{"cas_no": "3392-09-4", "cn_name": "Boc-Leu-Osu", "en_name": ["N-[(1,1-Dimethylethoxy)carbonyl]-L-leucine 2,5-dioxo-1-pyrrolidinyl ester", "L-Leucine, N-[(1,1-dimethylethoxy)carbonyl]-, 2,5-dioxo-1-pyrrolidinyl ester", "Succinimide, N-[(N-carboxy-L-leucyl)oxy]-, tert-butyl ester", "Carbamic acid, [1-[[(2,5-dioxo-1-pyrrolidinyl)oxy]carbonyl]-3-methylbutyl]-, 1,1-dimethylethyl ester, (S)-", "Carbamic acid, [(1S)-1-[[(2,5-dioxo-1-pyrrolidinyl)oxy]carbonyl]-3-methylbutyl]-, 1,1-dimethylethyl ester", "Leucine, N-carboxy-, N-tert-butyl ester, O-succinimido deriv., L-", "N-[(1,1-Dimethylethoxy)carbonyl]-L-leucine 2,5-dioxo-1-pyrrolidinyl ester", "N-(tert-Butyloxycarbonyl)-L-leucine ester with N-hydroxysuccinimide", "N-tert-Butyloxycarbonyl-L-leucine N-hydroxysuccinimide ester", "NSC 334346", "tert-Butyloxycarbonyl-L-leucine N-hydroxysuccinimide ester"], "SMILES": "O(C(C(NC(OC(C)(C)C)=O)CC(C)C)=O)N1C(=O)CCC1=O", "physical_data": {"Molecular Weight": "328.36", "Molecular Formula": "C15H24N2O6", "Melting Point": "116 \u00b0C"}}