{"cas_no": "3392-10-7", "cn_name": "BOC-L-\u812f\u6c28\u9178 N-\u7f9f\u57fa\u7425\u73c0\u9170\u4e9a\u80fa\u916f", "en_name": ["1,2-Pyrrolidinedicarboxylic acid, 1-(1,1-dimethylethyl) 2-(2,5-dioxo-1-pyrrolidinyl) ester, (2S)-", "1,2-Pyrrolidinedicarboxylic acid, 1-(1,1-dimethylethyl) 2-(2,5-dioxo-1-pyrrolidinyl) ester, (2S)-", "Succinimide, N-[(1-carboxy-L-prolyl)oxy]-, tert-butyl ester", "1-Pyrrolidinecarboxylic acid, 2-[[(2,5-dioxo-1-pyrrolidinyl)oxy]carbonyl]-, 1,1-dimethylethyl ester, (S)-", "1-Pyrrolidinecarboxylic acid, 2-[[(2,5-dioxo-1-pyrrolidinyl)oxy]carbonyl]-, 1,1-dimethylethyl ester, (2S)-", "1,2-Pyrrolidinedicarboxylic acid, 1-tert-butyl ester, succinimido deriv., L-", "N-Boc-L-proline N-hydroxysuccinimidyl ester", "1-O-tert-Butyl 2-O-(2,5-dioxopyrrolidin-1-yl) (2S)-pyrrolidine-1,2-dicarboxylate"], "SMILES": "C(ON1C(=O)CCC1=O)(=O)C2N(C(OC(C)(C)C)=O)CCC2", "physical_data": {"Molecular Weight": "312.32", "Molecular Formula": "C14H20N2O6", "Melting Point": "135-136 \u00b0C"}}