{"cas_no": "3392-97-0", "cn_name": "2,6-\u4e8c\u7532\u6c27\u57fa\u82ef\u7532\u919b", "en_name": ["2,6-Dimethoxybenzaldehyde", "Benzaldehyde, 2,6-dimethoxy-", "2,6-Dimethoxybenzaldehyde", "NSC 72362"], "SMILES": "C(=O)C1=C(OC)C=CC=C1OC", "physical_data": {"Molecular Weight": "166.17", "Molecular Formula": "C9H10O3", "Boiling Point": "285 \u00b0C", "Melting Point": "98-99 \u00b0C"}}