{"cas_no": "3393-64-4", "cn_name": "4-\u7f9f\u57fa-3-\u7532\u57fa-2-\u4e01\u916e", "en_name": ["4-Hydroxy-3-methyl-2-butanone", "2-Butanone, 4-hydroxy-3-methyl-", "4-Hydroxy-3-methyl-2-butanone", "3-(Hydroxymethyl)-2-butanone", "1-Hydroxy-2-methyl-3-butanone", "3-Methyl-4-hydroxy-2-butanone", "2-Methyl-3-oxo-1-butanol", "NSC 62078"], "SMILES": "C(C(C)=O)(CO)C", "physical_data": {"Molecular Weight": "102.13", "Molecular Formula": "C5H10O2", "Boiling Point": "89-90 \u00b0C @ Press: 11 Torr", "Density": "0.99 g/cm\u00b3"}}