{"cas_no": "33933-78-7", "cn_name": "5-\u7532\u57fa-5-\u58ec\u9187", "en_name": ["5-Methyl-5-nonanol", "5-Nonanol, 5-methyl-", "5-Methyl-5-nonanol", "2-Butyl-2-hexanol"], "SMILES": "C(CCCC)(CCCC)(C)O", "physical_data": {"Molecular Weight": "158.28", "Molecular Formula": "C10H22O", "Boiling Point": "91.4-92.4 \u00b0C @ Press: 15 Torr", "Density": "0.8253 g/cm\u00b3 @ Temp: 25 \u00b0C"}}