{"cas_no": "3393-77-9", "cn_name": "4,4'-\u4e8c\u7532\u6c27\u57fa\u4e8c\u82ef\u786b\u919a", "en_name": ["1,1\u2032-Thiobis[4-methoxybenzene]", "Benzene, 1,1\u2032-thiobis[4-methoxy-", "Anisole, 4,4\u2032-thiodi-", "1,1\u2032-Thiobis[4-methoxybenzene]", "Bis(p-methoxyphenyl) sulfide", "4,4\u2032-Thiodianisole", "Bis(4-methoxyphenyl) sulfide", "Di(p-methoxyphenyl) sulfide", "4,4\u2032-Dimethoxydiphenyl sulfide", "4,4\u2032-Thiobis[anisole]", "Bis(4-methoxyphenyl)sulfane"], "SMILES": "S(C1=CC=C(OC)C=C1)C2=CC=C(OC)C=C2", "physical_data": {"Molecular Weight": "246.32", "Molecular Formula": "C14H14O2S", "Boiling Point": "166-170 \u00b0C @ Press: 2 Torr", "Melting Point": "43-44 \u00b0C"}}