{"cas_no": "3393-96-2", "cn_name": "4'-\u785d\u57fa\u82ef\u7532\u9170\u82ef\u80fa", "en_name": ["N-(4-Nitrophenyl)benzamide", "Benzamide, N-(4-nitrophenyl)-", "Benzanilide, 4\u2032-nitro-", "N-(4-Nitrophenyl)benzamide", "4\u2032-Nitrobenzanilide", "p-Nitro-N-benzoylaniline", "p\u2032-Nitrobenzanilide", "N-(p-Nitrophenyl)benzamide", "N-Benzoyl-p-nitroaniline", "N-Benzoyl-4-nitroaniline", "NSC 82120"], "SMILES": "C(NC1=CC=C(N(=O)=O)C=C1)(=O)C2=CC=CC=C2", "physical_data": {"Molecular Weight": "242.23", "Molecular Formula": "C13H10N2O3", "Melting Point": "197-198 \u00b0C", "Density": "1.43 g/cm\u00b3"}}