{"cas_no": "3393-78-0", "cn_name": "4,4'-\u4e8c\u6eb4\u4e8c\u82ef\u786b\u919a", "en_name": ["1,1\u2032-Thiobis[4-bromobenzene]", "Benzene, 1,1\u2032-thiobis[4-bromo-", "Sulfide, bis(p-bromophenyl)", "1,1\u2032-Thiobis[4-bromobenzene]", "Bis(p-bromophenyl) sulfide", "4,4\u2032-Di(bromophenyl sulfide)", "Bis(4-bromophenyl) sulfide", "Di(4-bromophenyl) sulfide", "Bis(4-Bromophenyl) thioether"], "SMILES": "S(C1=CC=C(Br)C=C1)C2=CC=C(Br)C=C2", "physical_data": {"Molecular Weight": "344.06", "Molecular Formula": "C12H8Br2S", "Boiling Point": "268 \u00b0C", "Melting Point": "115 \u00b0C"}}