{"cas_no": "33941-15-0", "cn_name": "\u6c2e\u6742-18-\u51a0\u919a-6", "en_name": ["Aza-18-crown-6", "1,4,7,10,13-Pentaoxa-16-azacyclooctadecane", "1-Aza-4,7,10,13,16-pentaoxacyclooctadecane", "Monoaza-18-crown-6", "1-Aza-18-crown-6", "Aza-18-crown-6", "1-Aza-18-crown-6-ether"], "SMILES": "C1COCCOCCOCCOCCOCCN1", "physical_data": {"Molecular Weight": "263.33", "Molecular Formula": "C12H25NO5", "Boiling Point": "95-99 \u00b0C @ Press: 0.02 Torr", "Melting Point": "48 \u00b0C"}}