{"cas_no": "33948-22-0", "cn_name": "\u4e9a\u6c28\u57fa\u82aa\u7532\u9170\u6c2f", "en_name": ["5H-Dibenz[b,f]azepine-5-carbonyl chloride", "5H-Dibenz[b,f]azepine-5-carbonyl chloride", "N-(Chlorocarbonyl)-5H-dibenz[b,f]azepine", "5-(Chlorocarbonyl)-5H-dibenz[b,f]azepine"], "SMILES": "C(Cl)(=O)N1C=2C(=CC=CC2)C=CC=3C1=CC=CC3", "physical_data": {"Molecular Weight": "255.70", "Molecular Formula": "C15H10ClNO", "Melting Point": "148-149 \u00b0C"}}