{"cas_no": "3395-91-3", "cn_name": "3-\u6eb4\u4e19\u9178\u7532\u916f", "en_name": ["Methyl 3-bromopropanoate", "Propanoic acid, 3-bromo-, methyl ester", "Propionic acid, 3-bromo-, methyl ester", "Methyl 3-bromopropanoate", "\u03b2-Bromopropionic acid methyl ester", "Methyl \u03b2-bromopropionate", "Methyl 3-bromopropionate", "3-Bromopropanoic acid methyl ester", "3-Bromopropionic acid methyl ester", "NSC 3705"], "SMILES": "C(CCBr)(OC)=O", "physical_data": {"Molecular Weight": "167.00", "Molecular Formula": "C4H7BrO2", "Boiling Point": "80 \u00b0C @ Press: 27 Torr", "Density": "1.4897 g/cm\u00b3 @ Temp: 15 \u00b0C"}}