{"cas_no": "3395-35-5", "cn_name": "3,4-\u8131\u6c22-DL-\u812f\u6c28\u9178", "en_name": ["3,4-Dehydroproline", "1H-Pyrrole-2-carboxylic acid, 2,5-dihydro-", "3-Pyrroline-2-carboxylic acid, DL-", "1H-Pyrrole-2-carboxylic acid, 2,5-dihydro-, (\u00b1)-", "2,5-Dihydro-1H-pyrrole-2-carboxylic acid", "3,4-Dehydro-DL-proline", "DL-3,4-Dehydroproline", "4-Pyrroline-2-carboxylic acid, DL-", "3-Pyrroline-2-carboxylic acid", "Proline, 3,4-didehydro-", "3,4-Dehydroproline", "3,4-Didehydroproline", "NSC 49883", "3,4-Dehydro-D,L-proline"], "SMILES": "C(O)(=O)C1C=CCN1", "physical_data": {"Molecular Weight": "113.11", "Molecular Formula": "C5H7NO2", "Melting Point": "236-237 \u00b0C"}}