{"cas_no": "339530-91-5", "cn_name": "3-(4-\u6c1f\u82ef\u5def\u57fa)-2-\u7f9f\u57fa-2-\u7532\u57fa\u4e19\u9178", "en_name": ["3-[(4-Fluorophenyl)thio]-2-hydroxy-2-methylpropanoic acid", "Propanoic acid, 3-[(4-fluorophenyl)thio]-2-hydroxy-2-methyl-", "3-[(4-Fluorophenyl)thio]-2-hydroxy-2-methylpropanoic acid", "2-Hydroxy-2-methyl-3-(4-fluorophenylthio)propionic acid", "2-Hydroxy-2-methyl-3-p-fluorophenylsulfanylpropionic acid", "3-[(4-Fluorophenyl)sulfanyl]-2-hydroxy-2-methylpropanoic acid"], "SMILES": "S(CC(C(O)=O)(C)O)C1=CC=C(F)C=C1", "physical_data": {"Molecular Weight": "230.26", "Molecular Formula": "C10H11FO3S", "Melting Point": "69.1-72.7 \u00b0C"}}