{"cas_no": "33956-49-9", "cn_name": "\u53cd\u5f0f-8-\u53cd\u5f0f-10-\u5341\u4e8c\u78b3\u4e8c\u70ef-1-\u9187", "en_name": ["Codlemone", "8,10-Dodecadien-1-ol, (8E,10E)-", "8,10-Dodecadien-1-ol, (E,E)-", "(8E,10E)-8,10-Dodecadien-1-ol", "trans-8,trans-10-Dodecadien-1-ol", "Codlemone", "8-trans,10-trans-Dodecadien-1-ol", "Codlelure", "(E,E)-8,10-Dodecadienol", "Feroflon SR 2", "Feroflor SR 2", "(8E,10E)-Dodecadien-1-ol", "CP-MK", "(E,E)-8,10-Dodecadien-1-ol", "(E,E)-8,10-Dodecadien-l-ol", "trans-trans-8,10-Dodecadien-1-ol"], "SMILES": "C(CC=CC=CC)CCCCCO", "physical_data": {"Molecular Weight": "182.30", "Molecular Formula": "C12H22O", "Boiling Point": "115 \u00b0C", "Melting Point": "32 \u00b0C"}}