{"cas_no": "3396-11-0", "cn_name": "\u4e59\u9178\u94ef", "en_name": ["Cesium acetate", "Acetic acid, cesium salt (1:1)", "Acetic acid, cesium salt", "Cesium acetate"], "SMILES": "C(C)(O)=O.[Cs]", "physical_data": {"Molecular Weight": "", "Molecular Formula": "C2H4O2.Cs", "Melting Point": "190-195 \u00b0C"}}