{"cas_no": "3396-99-4", "cn_name": "\u0391-D-\u4e73\u9178\u5421\u5583\u7cd6\u82f7\u7532\u916f", "en_name": ["Methyl \u03b1-D-galactopyranoside", "\u03b1-D-Galactopyranoside, methyl", "Galactopyranoside, methyl, \u03b1-D-", "Methyl \u03b1-D-galactopyranoside", "1-O-Methyl-\u03b1-D-galactopyranoside", "Methyl \u03b1-D-galactoside", "Methyl \u03b1-galactopyranoside", "NSC 33684"], "SMILES": "C(O)C1OC(OC)C(O)C(O)C1O", "physical_data": {"Molecular Weight": "194.18", "Molecular Formula": "C7H14O6", "Melting Point": "114-115 \u00b0C"}}