{"cas_no": "33979-03-2", "cn_name": "2,2',4,4',6,6'-\u516d\u6c2f\u4e8c\u82ef\u915a", "en_name": ["PCB 155", "1,1\u2032-Biphenyl, 2,2\u2032,4,4\u2032,6,6\u2032-hexachloro-", "Biphenyl, 2,2\u2032,4,4\u2032,6,6\u2032-hexachloro-", "2,2\u2032,4,4\u2032,6,6\u2032-Hexachloro-1,1\u2032-biphenyl", "2,2\u2032,4,4\u2032,6,6\u2032-Hexachlorobiphenyl", "2,4,6,2\u2032,4\u2032,6\u2032-Hexachlorobiphenyl", "2,2\u2032,4,4\u2032,6,6\u2032-Hexachlorodiphenyl", "2,2\u2032,4,4\u2032,6,6\u2032-HCB", "PCB 155"], "SMILES": "ClC1=C(C(Cl)=CC(Cl)=C1)C2=C(Cl)C=C(Cl)C=C2Cl", "physical_data": {"Molecular Weight": "360.88", "Molecular Formula": "C12H4Cl6", "Melting Point": "164-166 \u00b0C"}}