{"cas_no": "3397-16-8", "cn_name": "\u786c\u8102\u9170\u8c37\u6c28\u9178", "en_name": ["N-Stearoyl-L-glutamic acid", "L-Glutamic acid, N-(1-oxooctadecyl)-", "Glutamic acid, N-stearoyl-, L-", "Glutamic acid, N-stearoyl-", "N-(1-Oxooctadecyl)-L-glutamic acid", "N-Stearoylglutamic acid", "N-Stearoyl-L-glutamic acid", "N-Octadecanoylglutamic acid", "Amisoft HA", "N-Octadecanoyl-L-glutamic acid", "Aminosoft HS11PF", "Amisoft HA-P"], "SMILES": "C(NC(CCCCCCCCCCCCCCCCC)=O)(CCC(O)=O)C(O)=O", "physical_data": {"Molecular Weight": "413.59", "Molecular Formula": "C23H43NO5", "Melting Point": "113-113.5 \u00b0C"}}