{"cas_no": "3397-35-1", "cn_name": "CBZ-L-\u4eae\u6c28\u9178N-\u7f9f\u57fa\u7425\u73c0\u9170\u4e9a\u80fa\u8102", "en_name": ["N-[(Phenylmethoxy)carbonyl]-L-leucine 2,5-dioxo-1-pyrrolidinyl ester", "L-Leucine, N-[(phenylmethoxy)carbonyl]-, 2,5-dioxo-1-pyrrolidinyl ester", "Succinimide, N-[(N-carboxy-L-leucyl)oxy]-, benzyl ester", "Carbamic acid, [1-[[(2,5-dioxo-1-pyrrolidinyl)oxy]carbonyl]-3-methylbutyl]-, phenylmethyl ester, (S)-", "Carbamic acid, [(1S)-1-[[(2,5-dioxo-1-pyrrolidinyl)oxy]carbonyl]-3-methylbutyl]-, phenylmethyl ester", "N-[(Phenylmethoxy)carbonyl]-L-leucine 2,5-dioxo-1-pyrrolidinyl ester", "N-Carbobenzoxy-L-leucine succinimido ester", "N-(Benzyloxycarbonyl)-L-leucine hydroxysuccinimide ester", "N-(Benzyloxycarbonyl)leucine N-hydroxysuccinimide ester", "N-Carbobenzyloxy-L-leucine N-hydroxysuccinimide ester", "N-(Benzyloxycarbonyl)-L-leucine N-hydroxysuccinimide ester", "(2,5-Dioxopyrrolidin-1-yl) (2S)-2-(benzyloxycarbonylamino)-4-methyl-pentanoate", "2,5-Dioxopyrrolidin-1-yl (2S)-2-[[(benzyloxy)carbonyl]amino]-4-methylpentanoate", "(2,5-Dioxopyrrolidin-1-yl) (2S)-4-methyl-2-(phenylmethoxycarbonylamino)pentanoate"], "SMILES": "O(C(C(NC(OCC1=CC=CC=C1)=O)CC(C)C)=O)N2C(=O)CCC2=O", "physical_data": {"Molecular Weight": "362.38", "Molecular Formula": "C18H22N2O6", "Melting Point": "116-117 \u00b0C"}}