{"cas_no": "33976-43-1", "cn_name": "\u5bf9\u6c28\u57fa\u82ef\u57fa\u4e09\u7532\u6c27\u57fa\u7845\u70f7", "en_name": ["(p-Aminophenyl)trimethoxysilane", "Benzenamine, 4-(trimethoxysilyl)-", "Aniline, p-(trimethoxysilyl)-", "4-(Trimethoxysilyl)benzenamine", "(p-Aminophenyl)trimethoxysilane", "p-(Trimethoxysilyl)aniline", "\u03b3-Anilinotrimethoxysilane", "(4-Aminophenyl)trimethoxysilane", "A 0724", "4-(Trimethoxysilyl)aniline", "SIA 0599.1D"], "SMILES": "[Si](OC)(OC)(OC)C1=CC=C(N)C=C1", "physical_data": {"Molecular Weight": "213.31", "Molecular Formula": "C9H15NO3Si", "Boiling Point": "110-114 \u00b0C @ Press: 0.6 Torr", "Melting Point": "60-62 \u00b0C"}}