{"cas_no": "3397-32-8", "cn_name": "N-\u82c4\u6c27\u7fb0\u57fa-L-\u82ef\u4e19\u6c28\u9178 N-\u7f9f\u57fa\u7425\u73c0\u9170\u4e9a\u80fa\u916f", "en_name": ["N-Carbobenzyloxy-L-phenylalanyl N-hydroxysuccinimide ester", "L-Phenylalanine, N-[(phenylmethoxy)carbonyl]-, 2,5-dioxo-1-pyrrolidinyl ester", "Succinimide, N-[(N-carboxy-3-phenyl-L-alanyl)oxy]-, benzyl ester", "Carbamic acid, [2-[(2,5-dioxo-1-pyrrolidinyl)oxy]-2-oxo-1-(phenylmethyl)ethyl]-, phenylmethyl ester, (S)-", "Carbamic acid, [(1S)-2-[(2,5-dioxo-1-pyrrolidinyl)oxy]-2-oxo-1-(phenylmethyl)ethyl]-, phenylmethyl ester", "Alanine, N-carboxy-3-phenyl-, N-benzyl ester, succinimido deriv., L-", "N-Carbobenzyloxy-L-phenylalanyl N-hydroxysuccinimide ester", "(S)-2,5-Dioxopyrrolidin-1-yl 2-(((benzyloxy)carbonyl)amino)-3-phenylpropanoate", "(2,5-Dioxopyrrolidin-1-yl) (2S)-3-phenyl-2-(phenylmethoxycarbonylamino)propanoate"], "SMILES": "O(C(C(CC1=CC=CC=C1)NC(OCC2=CC=CC=C2)=O)=O)N3C(=O)CCC3=O", "physical_data": {"Molecular Weight": "396.39", "Molecular Formula": "C21H20N2O6", "Melting Point": "140-140.5 \u00b0C"}}