{"cas_no": "3397-33-9", "cn_name": "N-\u82c4\u6c27\u7fb0\u57fa-L-\u812f\u6c28\u9178 N-\u7f9f\u57fa\u7425\u73c0\u9170\u4e9a\u80fa\u916f", "en_name": ["1,2-Pyrrolidinedicarboxylic acid, 2-(2,5-dioxo-1-pyrrolidinyl) 1-(phenylmethyl) ester, (2S)-", "1,2-Pyrrolidinedicarboxylic acid, 2-(2,5-dioxo-1-pyrrolidinyl) 1-(phenylmethyl) ester, (2S)-", "Succinimide, N-[(1-carboxy-L-prolyl)oxy]-, benzyl ester", "1-Pyrrolidinecarboxylic acid, 2-[[(2,5-dioxo-1-pyrrolidinyl)oxy]carbonyl]-, phenylmethyl ester, (S)-", "1-Pyrrolidinecarboxylic acid, 2-[[(2,5-dioxo-1-pyrrolidinyl)oxy]carbonyl]-, phenylmethyl ester, (2S)-", "1,2-Pyrrolidinedicarboxylic acid, 1-benzyl ester, succinimido deriv., L-", "L-Proline, 1-pyrrolidinecarboxylic acid deriv.", "Benzyloxycarbonyl-L-proline ester with N-hydroxysuccinimide", "1-O-Benzyl 2-O-(2,5-dioxopyrrolidin-1-yl) (2S)-pyrrolidine-1,2-dicarboxylate"], "SMILES": "C(ON1C(=O)CCC1=O)(=O)C2N(C(OCC3=CC=CC=C3)=O)CCC2", "physical_data": {"Molecular Weight": "346.33", "Molecular Formula": "C17H18N2O6", "Melting Point": "90 \u00b0C"}}