{"cas_no": "3397-65-7", "cn_name": "N-(1-\u6c27\u4ee3\u5341\u4e8c\u70f7\u57fa)-L-\u8c37\u6c28\u9178(9CI)", "en_name": ["N-Lauroyl-L-glutamic acid", "L-Glutamic acid, N-(1-oxododecyl)-", "Glutamic acid, N-lauroyl-, L-", "Glutamic acid, N-lauroyl-", "N-(1-Oxododecyl)-L-glutamic acid", "N-Lauroylglutamic acid", "N-Lauroyl-L-glutamic acid", "Lauroylglutamic acid", "Amisoft LA", "NSC 522180", "N-Dodecanoyl-L-glutamic acid", "(2S)-2-(Dodecanoylamino)pentanedioic acid"], "SMILES": "C(NC(CCCCCCCCCCC)=O)(CCC(O)=O)C(O)=O", "physical_data": {"Molecular Weight": "329.43", "Molecular Formula": "C17H31NO5", "Melting Point": "95-96 \u00b0C"}}