{"cas_no": "3397-62-4", "cn_name": "2-\u6c2f-4,6-\u4e8c\u6c28-1,3,5-\u4e09\u55ea", "en_name": ["1,3,5-Triazine-2,4-diamine, 6-chloro-", "1,3,5-Triazine-2,4-diamine, 6-chloro-", "s-Triazine, 2,4-diamino-6-chloro-", "6-Chloro-1,3,5-triazine-2,4-diamine", "2,4-Diamino-6-chloro-s-triazine", "4,6-Diamino-2-chloro-s-triazine", "G 28273", "ENT 50982", "2-Chloro-4,6-bisamino-s-triazine", "2-Chloro-4,6-diamino-1,3,5-triazine", "2,4-Diamino-6-chloro-1,3,5-triazine", "2-Chloro-4,6-diamino-s-triazine", "Deethyldeisopropylatrazine", "6-Chloro-2,4-diamino-1,3,5-triazine", "Dideethylsimazine", "Desethyldesisopropylatrazine", "Chloroammeline", "2-Chloro-4,6-bis(amino)-1,3,5-triazine", "NSC 680830", "NSC 7965", "Deisopropyldeethyl atrazine", "2,4-Diamino-6-chlorotriazine", "DACT", "Didealkylatrazine", "AtraMod", "2-Chloro-1,3,5-triazine-4,6-diamine"], "SMILES": "ClC=1N=C(N)N=C(N)N1", "physical_data": {"Molecular Weight": "145.55", "Molecular Formula": "C3H4ClN5", "Melting Point": "&gt;330 \u00b0C"}}