{"cas_no": "3398-16-1", "cn_name": "3,5-\u4e8c\u7532\u57fa-4-\u6eb4\u5421\u5511", "en_name": ["4-Bromo-3,5-dimethylpyrazole", "1H-Pyrazole, 4-bromo-3,5-dimethyl-", "Pyrazole, 4-bromo-3,5-dimethyl-", "4-Bromo-3,5-dimethyl-1H-pyrazole", "GF 12", "3,5-Dimethyl-4-bromopyrazole", "4-Bromo-3,5-dimethylpyrazole", "NSC 50564"], "SMILES": "BrC=1C(C)=NNC1C", "physical_data": {"Molecular Weight": "175.03", "Molecular Formula": "C5H7BrN2", "Melting Point": "118 \u00b0C"}}