{"cas_no": "3398-09-2", "cn_name": "\u5bf9\u6c28\u57fa-2\u2032\uff0c3-\u5076\u6c2e\u7532\u82ef", "en_name": ["3-Methyl-4-[2-(3-methylphenyl)diazenyl]benzenamine", "Benzenamine, 3-methyl-4-[2-(3-methylphenyl)diazenyl]-", "m-Toluidine, 4-(m-tolylazo)-", "Benzenamine, 3-methyl-4-[(3-methylphenyl)azo]-", "3-Methyl-4-[2-(3-methylphenyl)diazenyl]benzenamine", "Fast Garnet GC Base", "2,3\u2032-Dimethyl-4-aminoazobenzene", "4-Amino-2,3\u2032-dimethylazobenzene", "4-(m-Tolylazo)-m-toluidine"], "SMILES": "N(=NC1=C(C)C=C(N)C=C1)C2=CC(C)=CC=C2", "physical_data": {"Molecular Weight": "225.29", "Molecular Formula": "C14H15N3", "Melting Point": "81-82 \u00b0C"}}