{"cas_no": "33985-71-6", "cn_name": "9-\u919b\u57fa\u4e45\u6d1b\u5c3c\u5b9a", "en_name": ["2,3,6,7-Tetrahydro-1H,5H-benzo[ij]quinolizine-9-carboxaldehyde", "1H,5H-Benzo[ij]quinolizine-9-carboxaldehyde, 2,3,6,7-tetrahydro-", "2,3,6,7-Tetrahydro-1H,5H-benzo[ij]quinolizine-9-carboxaldehyde", "9-Julolidinecarboxaldehyde", "9-Julolidinylcarboxaldehyde", "9-Formyljulolidine", "9-Julolidinal", "NSC 159999", "2,3,6,7-Tetrahydro-1H,5H-pyrido[3,2,1-ij]quinoline-9-carbaldehyde", "9-Formyl-2,3,6,7-tetrahydro-1H,5H-benzo[ij]quinolizine"], "SMILES": "C(=O)C=1C=C2C3=C(C1)CCCN3CCC2", "physical_data": {"Molecular Weight": "201.26", "Molecular Formula": "C13H15NO", "Melting Point": "83 \u00b0C"}}