{"cas_no": "33996-33-7", "cn_name": "N-\u4e59\u9170-L-4-\u7f9f\u57fa\u812f\u6c28\u9178", "en_name": ["Oxaceprol", "L-Proline, 1-acetyl-4-hydroxy-, (4R)-", "L-Proline, 1-acetyl-4-hydroxy-, trans-", "Proline, 1-acetyl-4-hydroxy-, L-", "(4R)-1-Acetyl-4-hydroxy-L-proline", "N-Acetylhydroxyproline", "N-Acetyl-4-hydroxy-L-proline", "N-Acetyl-L-hydroxyproline", "N-Acetyl-4-hydroxyproline", "Oxaceprol", "(R)-N-Acetyl-4-hydroxy-L-proline", "N-Acetyl-trans-4-hydroxy-L-proline", "AHP 200", "CO 61", "Jonctum", "trans-N-Acetyl-4-hydroxy-L-proline"], "SMILES": "C(O)(=O)C1N(C(C)=O)CC(O)C1", "physical_data": {"Molecular Weight": "173.17", "Molecular Formula": "C7H11NO4", "Melting Point": "132 \u00b0C"}}