{"cas_no": "33998-26-4", "cn_name": "\u80c6\u753e\u9187\u82ef\u4e59\u9178\u916f", "en_name": ["Cholesteryl phenylacetate", "Cholest-5-en-3-ol (3\u03b2)-, 3-benzeneacetate", "Cholest-5-en-3-ol (3\u03b2)-, benzeneacetate", "Cholesterol, phenylacetate", "Cholesteryl phenylacetate"], "SMILES": "CC12C3C(C4C(C)(CC3)C(C(CCCC(C)C)C)CC4)CC=C1CC(OC(CC5=CC=CC=C5)=O)CC2", "physical_data": {"Molecular Weight": "504.79", "Molecular Formula": "C35H52O2", "Melting Point": "119-120 \u00b0C"}}