{"cas_no": "3399-73-3", "cn_name": "2-(1-\u73af\u5df1\u70ef\u57fa)\u4e59\u80fa", "en_name": ["1-Cyclohexene-1-ethanamine", "1-Cyclohexene-1-ethanamine", "1-Cyclohexene-1-ethylamine", "1-Cyclohexen-1-ylethylamine", "2-(1-Cyclohexenyl)ethylamine", "2-(1-Cyclohexen-1-yl)ethylamine", "2-(1-Cyclohexenyl)ethanamine", "NSC 26453", "1-(2-Aminoethyl)cyclohexene", "Cyclohexenylethylamine", "2-(Cyclohex-1-en-1-yl)ethanamine", "2-(Cyclohex-1-en-1-yl)ethan-1-amine"], "SMILES": "C(CN)C=1CCCCC1", "physical_data": {"Molecular Weight": "125.21", "Molecular Formula": "C8H15N", "Boiling Point": "75-76 \u00b0C @ Press: 10 Torr"}}