{"cas_no": "33996-58-6", "cn_name": "\u4e59\u62c9\u897f\u5766", "en_name": ["\u03b1-Ethyl-2-oxo-1-pyrrolidineacetamide", "1-Pyrrolidineacetamide, \u03b1-ethyl-2-oxo-", "\u03b1-Ethyl-2-oxo-1-pyrrolidineacetamide", "Etiracetam", "UCB 6474", "2-(2-Oxopyrrolidin-1-yl)butanamide", "2-(2-Oxo-1-pyrrolidinyl)butanamide"], "SMILES": "C(C(N)=O)(CC)N1C(=O)CCC1", "physical_data": {"Molecular Weight": "170.21", "Molecular Formula": "C8H14N2O2", "Melting Point": "113-114 \u00b0C"}}