{"cas_no": "3399-67-5", "cn_name": "(2-\u6c28\u57fa\u4e59\u57fa)\u4e09\u7532\u57fa\u6c2f\u5316\u94f5\u76d0\u9178\u76d0", "en_name": ["(2-Aminoethyl)trimethylammonium chloride, hydrochloride", "Ethanaminium, 2-amino-N,N,N-trimethyl-, chloride, hydrochloride (1:1:1)", "Ammonium, (2-aminoethyl)trimethyl-, chloride, hydrochloride", "Ethanaminium, 2-amino-N,N,N-trimethyl-, chloride, hydrochloride", "(2-Aminoethyl)trimethylammonium chloride, hydrochloride", "1-Amino-2-(trimethylammonium)ethane chloride", "2-AETA", "2-Amino-N,N,N-trimethylethanaminium chloride hydrochloride", "(2-Aminoethyl)trimethylazanium hydrochloride chloride", "Cholamine chloride hydrochloride"], "SMILES": "C([N+](C)(C)C)CN.[Cl-].Cl", "physical_data": {"Molecular Weight": "", "Molecular Formula": "C5H15N2.ClH.Cl", "Melting Point": "254 \u00b0C"}}