{"cas_no": "3399-22-2", "cn_name": "\u53cd\u5f0f-1,4-\u73af\u5df2\u4e8c\u7532\u9178\u7532\u916f", "en_name": ["1,4-Dimethyl trans-1,4-cyclohexanedicarboxylate", "1,4-Cyclohexanedicarboxylic acid, 1,4-dimethyl ester, trans-", "1,4-Cyclohexanedicarboxylic acid, dimethyl ester, trans-", "1,4-Dimethyl trans-1,4-cyclohexanedicarboxylate", "Dimethyl trans-1,4-cyclohexanedicarboxylate", "Dimethyl trans-cyclohexane-1,4-dicarboxylate", "trans-Cyclohexane-1,4-dicarboxylic acid dimethyl ester"], "SMILES": "C(OC)(=O)C1CCC(C(OC)=O)CC1", "physical_data": {"Molecular Weight": "200.23", "Molecular Formula": "C10H16O4", "Boiling Point": "122.5-126.5 \u00b0C @ Press: 6-7 Torr", "Melting Point": "69.1-69.4 \u00b0C"}}