{"cas_no": "33996-30-4", "cn_name": "(2S,4R)-4-\u7f9f\u57fa\u5421\u54af\u70f7-2-\u7532\u9178\u4e59\u916f\u76d0\u9178\u76d0", "en_name": ["L-Proline, 4-hydroxy-, ethyl ester, hydrochloride (1:1), (4R)-", "L-Proline, 4-hydroxy-, ethyl ester, hydrochloride (1:1), (4R)-", "Proline, 4-hydroxy-, ethyl ester, hydrochloride, L-", "L-Proline, 4-hydroxy-, ethyl ester, hydrochloride, trans-", "L-Proline, 4-hydroxy-, ethyl ester, hydrochloride, (4R)-", "Hydroxyproline ethyl ester hydrochloride", "L-Hydroxyproline ethyl ester hydrochloride", "4-Hydroxy-L-proline ethyl ester hydrochloride", "(2S,4R)-4-Hydroxypyrrolidine-2-carboxylic acid ethyl ester hydrochloride", "trans-4-Hydroxy-L-proline ethyl ester hydrochloride", "L-4-Hydroxyproline ethyl ester hydrochloride salt"], "SMILES": "C(OCC)(=O)C1NCC(O)C1.Cl", "physical_data": {"Molecular Weight": "", "Molecular Formula": "C7H13NO3.ClH", "Melting Point": "150 \u00b0C"}}