{"cas_no": "340-06-7", "cn_name": "(S)-(+)-\u0391-\u4e09\u6c1f\u7532\u57fa\u82c4\u9187", "en_name": ["(+)-2,2,2-Trifluoro-1-phenylethanol", "Benzenemethanol, \u03b1-(trifluoromethyl)-, (\u03b1S)-", "Benzyl alcohol, \u03b1-(trifluoromethyl)-, (S)-(+)-", "Benzenemethanol, \u03b1-(trifluoromethyl)-, (S)-", "(\u03b1S)-\u03b1-(Trifluoromethyl)benzenemethanol", "(S)-(+)-2,2,2-Trifluoro-1-phenylethanol", "(+)-1-Phenyl-2,2,2-trifluoroethanol", "(+)-2,2,2-Trifluoro-1-phenylethanol", "(+)-\u03b1-(Trifluoromethyl) benzyl alcohol", "(S)-\u03b1-(Trifluoromethyl)benzyl alcohol", "(S)-1-Phenyl-2,2,2-trifluoroethanol", "(1S)-2,2,2-Trifluoro-1-phenylethan-1-ol", "(S)-(+)-1-Phenyl-2,2,2-trifluoroethanol", "(1S)-2,2,2-Trifluoro-1-phenylethanol", "(S)-(+)-\u03b1-(Trifluoromethyl)benzyl alcohol"], "SMILES": "C(C(F)(F)F)(O)C1=CC=CC=C1", "physical_data": {"Molecular Weight": "176.14", "Molecular Formula": "C8H7F3O", "Boiling Point": "83-85 \u00b0C @ Press: 14 Torr"}}