{"cas_no": "340-07-8", "cn_name": "1-\u4e09\u6c1f\u4e59\u9170\u57fa\u54cc\u5576", "en_name": ["2,2,2-Trifluoro-1-(1-piperidinyl)ethanone", "Ethanone, 2,2,2-trifluoro-1-(1-piperidinyl)-", "Piperidine, 1-(trifluoroacetyl)-", "2,2,2-Trifluoro-1-(1-piperidinyl)ethanone", "1-(Trifluoroacetyl)piperidine", "N-(Trifluoroacetyl)piperidine", "2,2,2-Trifluoro-1-(piperidin-1-yl)ethanone", "2,2,2-Trifluoro-1-(piperidin-1-yl)ethan-1-one"], "SMILES": "C(C(F)(F)F)(=O)N1CCCCC1", "physical_data": {"Molecular Weight": "181.16", "Molecular Formula": "C7H10F3NO", "Boiling Point": "90 \u00b0C @ Press: 11 Torr"}}