{"cas_no": "340-04-5", "cn_name": "2,6-\u4e8c\u6c1f\u82ef\u7532\u919b", "en_name": ["2,2,2-Trifluoro-1-phenylethanol", "Benzenemethanol, \u03b1-(trifluoromethyl)-", "Benzyl alcohol, \u03b1-(trifluoromethyl)-, (\u00b1)-", "Benzenemethanol, \u03b1-(trifluoromethyl)-, (\u00b1)-", "Benzyl alcohol, \u03b1-(trifluoromethyl)-", "\u03b1-(Trifluoromethyl)benzenemethanol", "(\u00b1)-1-Phenyl-2,2,2-trifluoroethanol", "(\u00b1)-2,2,2-Trifluoro-1-phenylethanol", "\u03b1-(Trifluoromethyl)benzyl alcohol", "2,2,2-Trifluoro-1-phenylethanol", "2,2,2-Trifluorophenylethanol", "1-Phenyl-2,2,2-trifluoroethanol", "(\u00b1)-\u03b1-(Trifluoromethyl) benzyl alcohol", "\u03b2,\u03b2,\u03b2-Trifluoro-\u03b1-hydroxyethylbenzene", "NSC 20214", "(\u00b1)-1-Phenyl-2-trifluoroethanol", "2,2,2-Trifluoro-1-phenylethan-1-ol"], "SMILES": "C(C(F)(F)F)(O)C1=CC=CC=C1", "physical_data": {"Molecular Weight": "176.14", "Molecular Formula": "C8H7F3O", "Boiling Point": "125-127 \u00b0C @ Press: 760 Torr", "Melting Point": "74.3-75.2 \u00b0C"}}