{"cas_no": "340-90-9", "cn_name": "PHT-\u8c37\u6c28\u9178", "en_name": ["N-Phthaloyl-L-glutamic acid", "Pentanedioic acid, 2-(1,3-dihydro-1,3-dioxo-2H-isoindol-2-yl)-, (2S)-", "Glutaric acid, 2-phthalimido-, L-", "Pentanedioic acid, 2-(1,3-dihydro-1,3-dioxo-2H-isoindol-2-yl)-, (S)-", "(2S)-2-(1,3-Dihydro-1,3-dioxo-2H-isoindol-2-yl)pentanedioic acid", "N-Phthalyl-L-glutamic acid", "N-Phthaloyl-L-glutamic acid", "2-Phthalimido-L-glutaric acid", "(S)-2-(1,3-Dioxoisoindolin-2-yl)pentanedioic acid"], "SMILES": "C(CCC(O)=O)(C(O)=O)N1C(=O)C=2C(C1=O)=CC=CC2", "physical_data": {"Molecular Weight": "277.23", "Molecular Formula": "C13H11NO6", "Melting Point": "158-159 \u00b0C"}}