{"cas_no": "3400-55-3", "cn_name": "2-\u6eb4\u544b\u5583\u4e19\u919b\u4e8c\u7532\u7f29\u919b", "en_name": ["2-Bromo-1,1-diethoxypropane", "Propane, 2-bromo-1,1-diethoxy-", "Propionaldehyde, 2-bromo-, diethyl acetal", "2-Bromo-1,1-diethoxypropane", "\u03b2-Bromopropionaldehyde diethyl acetal", "2-Bromopropionaldehyde diethyl acetal", "1,1-Diethoxy-2-bromopropane"], "SMILES": "C(OCC)(OCC)C(Br)C", "physical_data": {"Molecular Weight": "211.10", "Molecular Formula": "C7H15BrO2", "Boiling Point": "69 \u00b0C @ Press: 2 Torr"}}