{"cas_no": "3400-45-1", "cn_name": "\u73af\u620a\u9178", "en_name": ["Cyclopentanecarboxylic acid", "Cyclopentanecarboxylic acid", "Cyclopentylcarboxylic acid", "Cyclopentanoic acid", "NSC 59714"], "SMILES": "C(O)(=O)C1CCCC1", "physical_data": {"Molecular Weight": "114.14", "Molecular Formula": "C6H10O2", "Boiling Point": "212 \u00b0C", "Melting Point": "-7 \u00b0C", "Density": "1.0510 g/cm\u00b3 @ Temp: 20 \u00b0C"}}