{"cas_no": "34006-60-5", "cn_name": "2-\u6c2f-2-\u4e59\u6c27\u57fa\u4e59\u9178\u4e59\u8102", "en_name": ["Acetic acid, 2-chloro-2-ethoxy-, ethyl ester", "Acetic acid, 2-chloro-2-ethoxy-, ethyl ester", "Acetic acid, chloroethoxy-, ethyl ester", "Ethyl 2-chloro-2-ethoxyacetate", "2-Chloro-2-ethoxyacetic acid ethyl ester"], "SMILES": "C(C(OCC)=O)(OCC)Cl", "physical_data": {"Molecular Weight": "166.60", "Molecular Formula": "C6H11ClO3", "Boiling Point": "79 \u00b0C @ Press: 12 Torr"}}