{"cas_no": "34000-39-0", "cn_name": "\u9ad8\u7d2b\u67f3\u67e5\u5c14\u916e", "en_name": ["Homobutein", "2-Propen-1-one, 1-(2,4-dihydroxyphenyl)-3-(4-hydroxy-3-methoxyphenyl)-, (2E)-", "Chalcone, 2\u2032,4,4\u2032-trihydroxy-3-methoxy-, (E)-", "2-Propen-1-one, 1-(2,4-dihydroxyphenyl)-3-(4-hydroxy-3-methoxyphenyl)-, (E)-", "(2E)-1-(2,4-Dihydroxyphenyl)-3-(4-hydroxy-3-methoxyphenyl)-2-propen-1-one", "Homobutein"], "SMILES": "C(=CC(=O)C1=C(O)C=C(O)C=C1)C2=CC(OC)=C(O)C=C2", "physical_data": {"Molecular Weight": "286.28", "Molecular Formula": "C16H14O5", "Melting Point": "192-194 \u00b0C"}}