{"cas_no": "34014-18-1", "cn_name": "\u7279\u4e01\u567b\u8349\u9686", "en_name": ["Tebuthiuron", "Urea, N-[5-(1,1-dimethylethyl)-1,3,4-thiadiazol-2-yl]-N,N\u2032-dimethyl-", "Urea, 1-(5-tert-butyl-1,3,4-thiadiazol-2-yl)-1,3-dimethyl-", "N-[5-(1,1-Dimethylethyl)-1,3,4-thiadiazol-2-yl]-N,N\u2032-dimethylurea", "1,3-Dimethyl-1-(5-tert-butyl-1,3,4-thiadiazol-2-yl)urea", "SPIKE", "1-(5-tert-Butyl-1,3,4-thiadiazol-2-yl)-1,3-dimethylurea", "Tebuthiuron", "EL 103", "Perflan", "Graslan", "Spike 80W", "Graslan 250 Brush Bullets", "Tebutiuron"], "SMILES": "N(C(NC)=O)(C)C=1SC(C(C)(C)C)=NN1", "physical_data": {"Molecular Weight": "228.31", "Molecular Formula": "C9H16N4OS", "Melting Point": "161.5-164 \u00b0C"}}