{"cas_no": "3401-47-6", "cn_name": "1-\u6eb4-2-\u7532\u6c27\u57fa\u8418", "en_name": ["1-Bromo-2-methoxynaphthalene", "Naphthalene, 1-bromo-2-methoxy-", "1-Bromo-2-methoxynaphthalene", "1-Bromo-2-naphthyl methyl ether", "NSC 110660", "2-Methoxy-1-bromonaphthalene"], "SMILES": "BrC=1C2=C(C=CC1OC)C=CC=C2", "physical_data": {"Molecular Weight": "237.09", "Molecular Formula": "C11H9BrO", "Boiling Point": "190-192 \u00b0C @ Press: 22 Torr", "Melting Point": "85 \u00b0C"}}