{"cas_no": "34010-21-4", "cn_name": "(Z)-11-\u5341\u516d\u78b3\u70ef-1-\u4e59\u9178\u76d0", "en_name": ["(Z)-11-Hexadecenyl acetate", "11-Hexadecen-1-ol, 1-acetate, (11Z)-", "11-Hexadecen-1-ol, acetate, (Z)-", "11-Hexadecen-1-ol, acetate, (11Z)-", "cis-11-Hexadecenyl acetate", "cis-11-Hexadecen-1-ol acetate", "cis-11-Hexadecen-1-yl acetate", "(Z)-11-Hexadecenyl acetate", "(Z)-11-Hexadecen-1-ol acetate", "(Z)-11-Hexadecen-1-yl acetate", "1-Acetoxy-(Z)-11-hexadecene", "Z11-16:Ac", "(Z)-11-Hexadecen-1-yl acetate", "(11Z)-11-Hexadecen-1-ol acetate"], "SMILES": "C(CCCCCC=CCCCC)CCCCOC(C)=O", "physical_data": {"Molecular Weight": "282.46", "Molecular Formula": "C18H34O2", "Boiling Point": "131 \u00b0C @ Press: 0.02 Torr"}}