{"cas_no": "3401-36-3", "cn_name": "N-\u82c4\u6c27\u7fb0\u57fa-L-\u4e19\u6c28\u9178 N-\u7f9f\u57fa\u7425\u73c0\u9170\u4e9a\u80fa\u916f", "en_name": ["L-Alanine, N-[(phenylmethoxy)carbonyl]-, 2,5-dioxo-1-pyrrolidinyl ester", "L-Alanine, N-[(phenylmethoxy)carbonyl]-, 2,5-dioxo-1-pyrrolidinyl ester", "Succinimide, N-[(N-carboxy-L-alanyl)oxy]-, benzyl ester", "Carbamic acid, [2-[(2,5-dioxo-1-pyrrolidinyl)oxy]-1-methyl-2-oxoethyl]-, phenylmethyl ester, (S)-", "Carbamic acid, [(1S)-2-[(2,5-dioxo-1-pyrrolidinyl)oxy]-1-methyl-2-oxoethyl]-, phenylmethyl ester", "Alanine, N-carboxy-, N-benzyl ester, succinimido deriv., L-", "N-Benzyloxycarbonyl-L-alanine N-hydroxysuccinimide ester", "Benzyloxycarbonyl-L-alanine ester with N-hydroxysuccinimide", "Carbobenzoxyalanine, ester with N-hydroxysuccinimide", "Cbz-Ala-OSu", "(2,5-Dioxopyrrolidin-1-yl) (2S)-2-(phenylmethoxycarbonylamino)propanoate"], "SMILES": "O(C(C(NC(OCC1=CC=CC=C1)=O)C)=O)N2C(=O)CCC2=O", "physical_data": {"Molecular Weight": "320.30", "Molecular Formula": "C15H16N2O6", "Melting Point": "115 \u00b0C"}}