{"cas_no": "3401-74-9", "cn_name": "\u53cc\u5341\u4e8c\u70f7\u57fa\u4e8c\u7532\u57fa\u6c2f\u5316\u94f5", "en_name": ["Dilauryldimethylammonium chloride", "1-Dodecanaminium, N-dodecyl-N,N-dimethyl-, chloride (1:1)", "Ammonium, didodecyldimethyl-, chloride", "1-Dodecanaminium, N-dodecyl-N,N-dimethyl-, chloride", "Didodecyldimethylammonium chloride", "Dimethyldilaurylammonium chloride", "Isothan DL", "Aliquat 204", "Dilauryldimethylammonium chloride", "Isothan DL 1", "Dimethyldidodecylammonium chloride", "Quaternium 47", "AQ 212", "Quartamin D 24E"], "SMILES": "[N+](CCCCCCCCCCCC)(CCCCCCCCCCCC)(C)C.[Cl-]", "physical_data": {"Molecular Weight": "", "Molecular Formula": "C26H56N.Cl", "Melting Point": "175 \u00b0C"}}