{"cas_no": "3401-80-7", "cn_name": "3,6-\u4e8c\u6c2f-2-\u7f9f\u57fa\u82ef\u7532\u9178", "en_name": ["3,6-Dichlorosalicylic acid", "Benzoic acid, 3,6-dichloro-2-hydroxy-", "Salicylic acid, 3,6-dichloro-", "3,6-Dichloro-2-hydroxybenzoic acid", "3,6-Dichlorosalicylic acid", "2-Hydroxy-3,6-dichlorobenzoic acid", "3,6-DCSA"], "SMILES": "C(O)(=O)C1=C(O)C(Cl)=CC=C1Cl", "physical_data": {"Molecular Weight": "207.01", "Molecular Formula": "C7H4Cl2O3", "Melting Point": "187 \u00b0C"}}