{"cas_no": "34023-62-6", "cn_name": "1-BCP", "en_name": ["1,3-Benzodioxol-5-yl-1-piperidinylmethanone", "Methanone, 1,3-benzodioxol-5-yl-1-piperidinyl-", "Piperidine, 1-piperonyloyl-", "Piperidine, 1-(1,3-benzodioxol-5-ylcarbonyl)-", "1,3-Benzodioxol-5-yl-1-piperidinylmethanone", "Piperonylic acid piperidide", "N-Piperonyloylpiperidine", "3,4-Methylenedioxybenzoylpiperidine", "BA 14", "1-BCP", "1-(2H-1,3-Benzodioxole-5-carbonyl)piperidine", "1-(1,3-Dioxaindane-5-carbonyl)piperidine"], "SMILES": "C(=O)(C=1C=C2C(=CC1)OCO2)N3CCCCC3", "physical_data": {"Molecular Weight": "233.26", "Molecular Formula": "C13H15NO3", "Melting Point": "51-52 \u00b0C"}}