{"cas_no": "34036-80-1", "cn_name": "\u82ef\u57fa\u4e09\u4e01\u916e\u809f\u57fa\u7845\u70f7", "en_name": ["Phenyltris(butanoxime)silane", "2-Butanone, 2,2\u2032,2\u2032\u2032-[O,O\u2032,O\u2032\u2032-(phenylsilylidyne)trioxime]", "2-Butanone, O,O\u2032,O\u2032\u2032-(phenylsilylidyne)trioxime", "Phenyltris(1-methylpropylideneaminooxy)silane", "Phenyltri(methyl ethyl ketoxime)silane", "Phenyltris(butanoxime)silane", "Phenyltris(methyl ethyl ketoxime)silane", "Phenyl tris(methyl ethyl ketoximino)silane", "D 36"], "SMILES": "[Si](ON=C(CC)C)(ON=C(CC)C)(ON=C(CC)C)C1=CC=CC=C1", "physical_data": {"Molecular Weight": "363.53", "Molecular Formula": "C18H29N3O3Si", "Boiling Point": "60-65 \u00b0C @ Press: 3 Torr", "Density": "0.995 g/cm\u00b3"}}