{"cas_no": "34035-04-6", "cn_name": "5-(2-\u6c2f\u82ef\u57fa)\u7ce0\u919b", "en_name": ["5-(2-Chlorophenyl)-2-furancarboxaldehyde", "2-Furancarboxaldehyde, 5-(2-chlorophenyl)-", "2-Furaldehyde, 5-(o-chlorophenyl)-", "5-(2-Chlorophenyl)-2-furancarboxaldehyde", "5-(o-Chlorophenyl)-2-furaldehyde", "5-(2-Chlorophenyl)-2-furaldehyde", "5-(o-Chlorophenyl)-2-furancarboxaldehyde", "5-(2-Chlorophenyl)furfural", "5-(o-Chlorophenyl)furfural"], "SMILES": "ClC1=C(C=2OC(C=O)=CC2)C=CC=C1", "physical_data": {"Molecular Weight": "206.63", "Molecular Formula": "C11H7ClO2", "Melting Point": "77 \u00b0C"}}