{"cas_no": "34036-16-3", "cn_name": "5-\u7532\u57fa-3-\u7fb0\u57fa\u5df1\u9178\u4e59\u916f", "en_name": ["Hexanoic acid, 5-methyl-3-oxo-, ethyl ester", "Hexanoic acid, 5-methyl-3-oxo-, ethyl ester", "Ethyl 5-methyl-3-oxohexanoate", "NSC 69069", "5-Methyl-3-oxohexanoic acid ethyl ester"], "SMILES": "C(C(CC(C)C)=O)C(OCC)=O", "physical_data": {"Molecular Weight": "172.22", "Molecular Formula": "C9H16O3", "Boiling Point": "99.5 \u00b0C @ Press: 12.5 Torr"}}