{"cas_no": "3403-47-2", "cn_name": "5-\u6c28\u57fa-2-\u7532\u6c27\u57fa\u82ef\u7532\u9178", "en_name": ["5-Amino-2-methoxybenzoic acid", "Benzoic acid, 5-amino-2-methoxy-", "o-Anisic acid, 5-amino-", "5-Amino-2-methoxybenzoic acid", "3-Carboxy-4-methoxyaniline", "5-Amino-o-anisic acid"], "SMILES": "C(O)(=O)C1=C(OC)C=CC(N)=C1", "physical_data": {"Molecular Weight": "167.16", "Molecular Formula": "C8H9NO3", "Melting Point": "153-154 \u00b0C"}}