{"cas_no": "34031-32-8", "cn_name": "\u91d1\u8bfa\u82ac", "en_name": ["Auranofin", "Gold, [1-(thio-\u03baS)-\u03b2-D-glucopyranose 2,3,4,6-tetraacetato](triethylphosphine)-", "Gold, (1-thio-\u03b2-D-glucopyranose 2,3,4,6-tetraacetato-S)(triethylphosphine)-", "Gold, (1-thio-\u03b2-D-glucopyranosato)(triethylphosphine)-, 2,3,4,6-tetraacetate", "\u03b2-D-Glucopyranose, 1-thio-, 2,3,4,6-tetraacetate, gold complex", "[1-(Thio-\u03baS)-\u03b2-D-glucopyranose 2,3,4,6-tetraacetato](triethylphosphine)gold", "[(Tetra-O-acetyl-\u03b2-D-glucopyranosyl)thio](triethylphosphine)gold", "SKF 39162D", "Auranofin", "Ridaura", "SKF 39162", "Crisofin", "Crisinor", "Aktil", "Ridauran", "NSC 321521", "Gold Salt", "MeSH ID: D001310"], "SMILES": "O(C(C)=O)C1C(OC(C)=O)C([S-][Au+][P](CC)(CC)CC)OC(COC(C)=O)C1OC(C)=O", "physical_data": {"Molecular Weight": "", "Molecular Formula": "C20H34AuO9PS", "Melting Point": "112-115 \u00b0C"}}