{"cas_no": "34047-39-7", "cn_name": "4-\u7532\u786b\u57fa-2-\u4e01\u916e", "en_name": ["4-(Methylthio)-2-butanone", "2-Butanone, 4-(methylthio)-", "4-(Methylthio)-2-butanone", "4-Methylsulfanylbutan-2-one"], "SMILES": "C(C(C)=O)CSC", "physical_data": {"Molecular Weight": "118.20", "Molecular Formula": "C5H10OS", "Boiling Point": "77-78 \u00b0C @ Press: 20 Torr"}}