{"cas_no": "34040-64-7", "cn_name": "4-\u6c2f\u7532\u57fa\u82ef\u7532\u9178\u7532\u916f", "en_name": ["Methyl 4-(chloromethyl)benzoate", "Benzoic acid, 4-(chloromethyl)-, methyl ester", "p-Toluic acid, \u03b1-chloro-, methyl ester", "p-(Methoxycarbonyl)benzyl chloride", "Methyl 4-(chloromethyl)benzoate", "Methyl p-(chloromethyl)benzoate", "Methyl \u03b1-chloro-p-toluate", "4-(Chloromethyl)benzoic acid methyl ester", "p-Carbomethoxybenzyl chloride", "4-Methoxycarbonylbenzyl chloride"], "SMILES": "C(OC)(=O)C1=CC=C(CCl)C=C1", "physical_data": {"Molecular Weight": "184.62", "Molecular Formula": "C9H9ClO2", "Boiling Point": "160-165 \u00b0C @ Press: 30 Torr", "Melting Point": "39-40 \u00b0C"}}