{"cas_no": "3404-61-3", "cn_name": "3-\u7532\u57fa-1-\u5df1\u70ef", "en_name": ["3-Methyl-1-hexene", "1-Hexene, 3-methyl-", "3-Methyl-1-hexene", "NSC 73925"], "SMILES": "C(CCC)(C=C)C", "physical_data": {"Molecular Weight": "98.19", "Molecular Formula": "C7H14", "Boiling Point": "83.9 \u00b0C", "Density": "0.6945 g/cm\u00b3 @ Temp: 20 \u00b0C"}}