{"cas_no": "3404-77-1", "cn_name": "3,3-\u4e8c\u7532\u57fa-1-\u5df1\u70ef", "en_name": ["3,3-Dimethyl-1-hexene", "1-Hexene, 3,3-dimethyl-", "3,3-Dimethyl-1-hexene"], "SMILES": "C(CCC)(C=C)(C)C", "physical_data": {"Molecular Weight": "112.21", "Molecular Formula": "C8H16", "Boiling Point": "104 \u00b0C", "Density": "0.7127 g/cm\u00b3 @ Temp: 20 \u00b0C"}}