{"cas_no": "34040-62-5", "cn_name": "2-\u6c2f\u7532\u57fa\u82ef\u7532\u9178\u7532\u916f", "en_name": ["Benzoic acid, 2-(chloromethyl)-, methyl ester", "Benzoic acid, 2-(chloromethyl)-, methyl ester", "o-Toluic acid, \u03b1-chloro-, methyl ester", "Methyl 2-chloromethylbenzoate", "Methyl o-(chloromethyl)benzoate", "2-(Chloromethyl)benzoic acid methyl ester"], "SMILES": "C(OC)(=O)C1=C(CCl)C=CC=C1", "physical_data": {"Molecular Weight": "184.62", "Molecular Formula": "C9H9ClO2", "Boiling Point": "98 \u00b0C @ Press: 760 Torr"}}