{"cas_no": "3404-72-6", "cn_name": "2,3-\u4e8c\u7532\u57fa-1-\u620a\u70ef", "en_name": ["2,3-Dimethyl-1-pentene", "1-Pentene, 2,3-dimethyl-", "2,3-Dimethyl-1-pentene", "NSC 74134"], "SMILES": "C(C(C)=C)(CC)C", "physical_data": {"Molecular Weight": "98.19", "Molecular Formula": "C7H14", "Boiling Point": "84.3 \u00b0C", "Melting Point": "-134.3 \u00b0C", "Density": "0.7054 g/cm\u00b3 @ Temp: 20 \u00b0C"}}