{"cas_no": "3405-77-4", "cn_name": "5-\u7532\u57fa\u5f02\u6076\u5511-3-\u7532\u9178", "en_name": ["5-Methyl-3-isoxazolecarboxylic acid", "3-Isoxazolecarboxylic acid, 5-methyl-", "5-Methyl-3-isoxazolecarboxylic acid", "3-Carboxy-5-methylisoxazole", "5-Methyl-1,2-oxazole-3-carboxylic acid"], "SMILES": "C(O)(=O)C=1C=C(C)ON1", "physical_data": {"Molecular Weight": "127.10", "Molecular Formula": "C5H5NO3", "Melting Point": "176-177 \u00b0C (decomp)"}}