{"cas_no": "3405-45-6", "cn_name": "N,N-\u4e8c\u6b63\u4e01\u57fa\u7532\u80fa", "en_name": ["N-Butyl-N-methyl-1-butanamine", "1-Butanamine, N-butyl-N-methyl-", "Dibutylamine, N-methyl-", "N-Butyl-N-methyl-1-butanamine", "N,N-Dibutylmethylamine", "Methyldibutylamine", "Methanamine, N,N-dibutyl-", "N-Methyldibutylamine", "Dibutylmethylamine", "N,N-Dibutyl-N-methylamine"], "SMILES": "N(CCCC)(CCCC)C", "physical_data": {"Molecular Weight": "143.27", "Molecular Formula": "C9H21N", "Boiling Point": "155-163 \u00b0C", "Density": "0.782 g/cm\u00b3 @ Temp: 20 \u00b0C"}}