{"cas_no": "34052-37-4", "cn_name": "2-\u6c2f-5-\u785d\u57fa\u4e8c\u82ef\u7532\u916e", "en_name": ["2-Chloro-5-nitrobenzophenone", "Methanone, (2-chloro-5-nitrophenyl)phenyl-", "Benzophenone, 2-chloro-5-nitro-", "(2-Chloro-5-nitrophenyl)phenylmethanone", "2-Chloro-5-nitrobenzophenone", "5-Nitro-2-chlorobenzophenone", "(2-Chloro-5-nitrophenyl)phenyl)methanone"], "SMILES": "C(=O)(C1=CC(N(=O)=O)=CC=C1Cl)C2=CC=CC=C2", "physical_data": {"Molecular Weight": "261.66", "Molecular Formula": "C13H8ClNO3", "Melting Point": "85-86 \u00b0C"}}