{"cas_no": "34052-90-9", "cn_name": "2,2'-(1,3-\u4e9a\u82ef\u57fa)-\u4e8c\u6076\u5511\u5549", "en_name": ["2,2\u2032-(1,3-Phenylene)bis(2-oxazoline)", "Oxazole, 2,2\u2032-(1,3-phenylene)bis[4,5-dihydro-", "2-Oxazoline, 2,2\u2032-m-phenylenebis-", "2,2\u2032-(1,3-Phenylene)bis[4,5-dihydrooxazole]", "1,3-Di(2-oxazolin-2-yl)benzene", "1,3-Bis(2-oxazolin-2-yl)benzene", "2,2\u2032-m-Phenylenebis(2-oxazoline)", "2,2\u2032-(1,3-Phenylene)bis(2-oxazoline)", "1,3-Phenylenebis-2-oxazoline", "BOX 210", "1,3-PBO", "CP Resin A", "CP Resin 1,3-PBO", "1,3-Bis(4,5-dihydro-2-oxazolyl)benzene", "1,3-Phenylenebisoxazoline", "2,2\u2032-(1,3-Phenylene)dioxazoline", "Nexamite A 99", "2-[3-(4,5-Dihydro-1,3-oxazol-2-yl)phenyl]-4,5-dihydro-1,3-oxazole"], "SMILES": "C1(=CC(=CC=C1)C2=NCCO2)C3=NCCO3", "physical_data": {"Molecular Weight": "216.24", "Molecular Formula": "C12H12N2O2", "Melting Point": "138.5 \u00b0C"}}