{"cas_no": "3405-88-7", "cn_name": "(4-\u6c2f\u82ef\u57fa\u786b\u915a)\u4e59\u9178", "en_name": ["2-[(4-Chlorophenyl)thio]acetic acid", "Acetic acid, 2-[(4-chlorophenyl)thio]-", "Acetic acid, [(p-chlorophenyl)thio]-", "Acetic acid, [(4-chlorophenyl)thio]-", "2-[(4-Chlorophenyl)thio]acetic acid", "[(p-Chlorophenyl)thio]acetic acid", "WR 5994", "2-(p-Chlorophenylthio)acetic acid", "W 2683", "p-Chlorophenylmercaptoacetic acid", "[(4-Chlorophenyl)thio]acetic acid", "S-(p-Chlorophenyl)mercaptoacetic acid", "NSC 33051", "2-[(4-Chlorophenyl)sulfanyl]acetic acid", "2-(4-Chlorophenyl)sulfanylacetic acid"], "SMILES": "S(CC(O)=O)C1=CC=C(Cl)C=C1", "physical_data": {"Molecular Weight": "202.66", "Molecular Formula": "C8H7ClO2S", "Melting Point": "105 \u00b0C"}}