{"cas_no": "3406-03-9", "cn_name": "2-(\u82ef\u57fa\u78fa\u9170)\u82ef\u4e59\u916e", "en_name": ["1-Phenyl-2-(phenylsulfonyl)ethanone", "Ethanone, 1-phenyl-2-(phenylsulfonyl)-", "Acetophenone, 2-(phenylsulfonyl)-", "1-Phenyl-2-(phenylsulfonyl)ethanone", "Phenacyl phenyl sulfone", "\u03c9-(Phenylsulfonyl)acetophenone", "\u03b1-(Phenylsulfonyl)acetophenone", "Benzoyl(phenylsulfonyl)methane", "Phenyl phenacyl sulfone", "2-(Phenylsulfonyl)acetophenone", "Phenylacyl phenyl sulfone", "1-Phenyl-2-phenylsulfonylethanone", "Benzoylmethyl phenyl sulfone", "NSC 2698", "NSC 63073", "NSC 633013", "1-Phenyl-2-(phenylsulfonyl)ethan-1-one", "2-(Benzenesulfonyl)-1-phenylethan-1-one", "2-(Benzenesulfonyl)-1-phenylethanone"], "SMILES": "S(CC(=O)C1=CC=CC=C1)(=O)(=O)C2=CC=CC=C2", "physical_data": {"Molecular Weight": "260.31", "Molecular Formula": "C14H12O3S", "Melting Point": "96 \u00b0C"}}