{"cas_no": "3406-84-6", "cn_name": "4,4'-\u8054\u82ef\u4e8c\u78fa\u9170\u6c2f", "en_name": ["[1,1\u2032-Biphenyl]-4,4\u2032-disulfonyl dichloride", "[1,1\u2032-Biphenyl]-4,4\u2032-disulfonyl dichloride", "4,4\u2032-Biphenyldisulfonyl chloride", "4,4\u2032-Biphenylylenedisulfonyl chloride", "4,4\u2032-Bis(chlorosulfonyl)biphenyl", "NSC 2062", "4,4\u2032-Biphenyldisulfonic acid dichloride", "4,4\u2032-Biphenylenedisulfonyl chloride"], "SMILES": "S(Cl)(=O)(=O)C1=CC=C(C=C1)C2=CC=C(S(Cl)(=O)=O)C=C2", "physical_data": {"Molecular Weight": "351.23", "Molecular Formula": "C12H8Cl2O4S2", "Melting Point": "203 \u00b0C"}}