{"cas_no": "34068-01-4", "cn_name": "3-\u82c4\u6c27\u57fa\u82ef\u4e59\u916e", "en_name": ["1-[3-(Phenylmethoxy)phenyl]ethanone", "Ethanone, 1-[3-(phenylmethoxy)phenyl]-", "Acetophenone, 3\u2032-(benzyloxy)-", "1-[3-(Phenylmethoxy)phenyl]ethanone", "3\u2032-(Benzyloxy)acetophenone", "m-Benzyloxyacetophenone", "3-Benzyloxyacetophenone", "1-(3-Phenylmethoxyphenyl)ethanone", "1-[3-(Benzyloxy)phenyl]ethanone", "NSC 159118", "1-[3-(Benzyloxy)phenyl]ethan-1-one"], "SMILES": "O(CC1=CC=CC=C1)C2=CC(C(C)=O)=CC=C2", "physical_data": {"Molecular Weight": "226.27", "Molecular Formula": "C15H14O2", "Boiling Point": "165-170 \u00b0C @ Press: 0.5 Torr", "Melting Point": "29-30 \u00b0C"}}