{"cas_no": "3406-02-8", "cn_name": "\u53cc\u82ef\u78fa\u9178\u7532\u70f7", "en_name": ["Bis(phenylsulfonyl)methane", "Benzene, 1,1\u2032-[methylenebis(sulfonyl)]bis-", "Methane, bis(phenylsulfonyl)-", "1,1\u2032-[Methylenebis(sulfonyl)]bis[benzene]", "Bis(phenylsulfonyl)methane", "Bis(benzenesulfonyl)methane", "NSC 47076", "(Benzenesulfonyl)methanesulfonylbenzene"], "SMILES": "S(CS(=O)(=O)C1=CC=CC=C1)(=O)(=O)C2=CC=CC=C2", "physical_data": {"Molecular Weight": "296.36", "Molecular Formula": "C13H12O4S2", "Melting Point": "118-119 \u00b0C"}}