{"cas_no": "3407-42-9", "cn_name": "\u6a80\u9999", "en_name": ["Sandela", "Cyclohexanol, 3-(5,5,6-trimethylbicyclo[2.2.1]hept-2-yl)-", "Cyclohexanol, 3-(5,5,6-trimethyl-2-norbornyl)-", "3-(5,5,6-Trimethylbicyclo[2.2.1]hept-2-yl)cyclohexanol", "3-Hydroxy-1-(5-isocamphyl)cyclohexane", "3-(5,5,6-Trimethylbicyclo[2.2.1]hept-2-yl)cyclohexan-1-ol", "Sandela", "3-(5,5,6-Trimethylbicyclo[2.2.1]heptan-2-yl)cyclohexan-1-ol"], "SMILES": "CC1C2C(CC(C2)C1(C)C)C3CC(O)CCC3", "physical_data": {"Molecular Weight": "236.39", "Molecular Formula": "C16H28O", "Boiling Point": "100-103 \u00b0C @ Press: 1 x 10<sup>-3</sup> Torr"}}