{"cas_no": "34086-50-5", "cn_name": "ALPINUMISOFLAVONE", "en_name": ["Alpinumisoflavone", "2H,6H-Benzo[1,2-b:5,4-b\u2032]dipyran-6-one, 5-hydroxy-7-(4-hydroxyphenyl)-2,2-dimethyl-", "2H,6H-Benzo[1,2-b:5,4-b\u2032]dipyran-6-one, 5-hydroxy-7-(p-hydroxyphenyl)-2,2-dimethyl-", "5-Hydroxy-7-(4-hydroxyphenyl)-2,2-dimethyl-2H,6H-benzo[1,2-b:5,4-b\u2032]dipyran-6-one", "Alpinumisoflavone"], "SMILES": "O=C1C=2C(=CC3=C(C2O)C=CC(C)(C)O3)OC=C1C4=CC=C(O)C=C4", "physical_data": {"Molecular Weight": "336.34", "Molecular Formula": "C20H16O5", "Melting Point": "213 \u00b0C"}}