{"cas_no": "34080-08-5", "cn_name": "20(s)-\u539f\u4eba\u53c2\u4e09\u9187", "en_name": ["(20S)-Protopanaxatriol", "Dammar-24-ene-3,6,12,20-tetrol, (3\u03b2,6\u03b1,12\u03b2)-", "Dammar-24-ene-3\u03b2,6\u03b1,12\u03b2,20-tetrol, (20S)-", "(3\u03b2,6\u03b1,12\u03b2)-Dammar-24-ene-3,6,12,20-tetrol", "(20S)-Protopanaxatriol", "Panaxoside A aglycone A\u03c6", "20(S)-APPT"], "SMILES": "CC12C3(C)C(C(C(CCC=C(C)C)(C)O)CC3)C(O)CC1C4(C)C(C(O)C2)C(C)(C)C(O)CC4", "physical_data": {"Molecular Weight": "476.73", "Molecular Formula": "C30H52O4", "Melting Point": "242-244 \u00b0C"}}