{"cas_no": "34097-60-4", "cn_name": "\u82ef\u78fa\u9170\u4e59\u9178\u7532\u916f", "en_name": ["Methyl 2-(phenylsulfonyl)acetate", "Acetic acid, 2-(phenylsulfonyl)-, methyl ester", "Acetic acid, (phenylsulfonyl)-, methyl ester", "Methyl 2-(phenylsulfonyl)acetate", "(Methoxycarbonyl)methyl phenyl sulfone", "Methyl (phenylsulfonyl)acetate", "(Phenylsulfonyl)acetic acid methyl ester"], "SMILES": "S(CC(OC)=O)(=O)(=O)C1=CC=CC=C1", "physical_data": {"Molecular Weight": "214.24", "Molecular Formula": "C9H10O4S", "Boiling Point": "130-135 \u00b0C @ Press: 0.75 Torr", "Melting Point": "35 \u00b0C", "Density": "1.3437 g/cm\u00b3 @ Temp: 20 \u00b0C"}}