{"cas_no": "341-41-3", "cn_name": "1-\u6eb4-4-\u6c1f\u8418", "en_name": ["1-Bromo-4-fluoronaphthalene", "Naphthalene, 1-bromo-4-fluoro-", "1-Bromo-4-fluoronaphthalene", "4-Fluoro-1-naphthyl bromide", "1-Fluoro-4-bromonaphthalene"], "SMILES": "BrC=1C2=C(C(F)=CC1)C=CC=C2", "physical_data": {"Molecular Weight": "225.06", "Molecular Formula": "C10H6BrF", "Boiling Point": "110-115 \u00b0C @ Press: 2 Torr", "Melting Point": "37 \u00b0C"}}