{"cas_no": "341-02-6", "cn_name": "\u4e09\u82ef\u7532\u57fa\u56db\u6c1f\u787c\u9178\u76d0", "en_name": ["Methylium, triphenyl-, tetrafluoroborate(1-) (1:1)", "Methylium, triphenyl-, tetrafluoroborate(1-) (1:1)", "Tritylium, tetrafluoroborate(1-)", "Tritylium tetrafluoroborate", "Methylium, triphenyl-, tetrafluoroborate(1-)", "Tritylcarbonium fluoborate", "Borate(1-), tetrafluoro-, tritylium", "Borate(1-), tetrafluoro-, triphenylmethylium", "Triphenylmethyl tetrafluoroborate", "Trityl tetrafluoroborate", "Triphenylcarbonium tetrafluoroborate", "Triphenylmethyl fluoroborate", "Trityl fluoroborate", "Triphenylmethylium tetrafluoroborate", "Triphenylcarbonium tetrafluoroborate(1-)", "Trityl tetrafluoroborate(1-)", "NSC 176021"], "SMILES": "[C+](C1=CC=CC=C1)(C2=CC=CC=C2)C3=CC=CC=C3.[B+3]([F-])([F-])([F-])[F-]", "physical_data": {"Molecular Weight": "", "Molecular Formula": "C19H15.BF4", "Melting Point": "202 \u00b0C (decomp)"}}