{"cas_no": "341-69-5", "cn_name": "\u76d0\u9178\u90bb\u7532\u82ef\u6d77\u62c9\u660e", "en_name": ["Orphenadrine hydrochloride", "Ethanamine, N,N-dimethyl-2-[(2-methylphenyl)phenylmethoxy]-, hydrochloride (1:1)", "Ethylamine, N,N-dimethyl-2-[(o-methyl-\u03b1-phenylbenzyl)oxy]-, hydrochloride", "Ethanamine, N,N-dimethyl-2-[(2-methylphenyl)phenylmethoxy]-, hydrochloride", "Brocasipal", "2-(Dimethylamino)ethyl 2-methylbenzhydryl ether hydrochloride", "N,N-Dimethyl-2-(o-methyl-\u03b1-phenylbenzyloxy)ethylamine hydrochloride", "Disipal hydrochloride", "Mephenamine hydrochloride", "Mephenamin hydrochloride", "Orphenadrine hydrochloride", "Disipal", "Mephenamine", "Mebedrol", "Mefenamin hydrochloride", "Orfenadrin hydrochloride", "Mephenamin", "(\u00b1)-Orphenadrine hydrochloride", "NSC 82357"], "SMILES": "C(OCCN(C)C)(C1=C(C)C=CC=C1)C2=CC=CC=C2.Cl", "physical_data": {"Molecular Weight": "", "Molecular Formula": "C18H23NO.ClH", "Melting Point": "156-157 \u00b0C", "Density": "0.295 g/cm\u00b3"}}