{"cas_no": "34101-86-5", "cn_name": "1,2-\u4e8c(3,4-\u4e8c\u7532\u82ef\u57fa)\u4e59\u70f7", "en_name": ["1,2-Bis(3,4-dimethylphenyl)ethane", "Benzene, 1,1\u2032-(1,2-ethanediyl)bis[3,4-dimethyl-", "Bibenzyl, 3,3\u2032,4,4\u2032-tetramethyl-", "1,1\u2032-(1,2-Ethanediyl)bis[3,4-dimethylbenzene]", "3,3\u2032,4,4\u2032-Tetramethyldiphenyl-1,2-ethane", "3,3\u2032,4,4\u2032-Tetramethylbibenzyl", "3,3\u2032,4,4\u2032-Tetramethyldiphenylethane", "1,2-Bis(3,4-dimethylphenyl)ethane", "1,2-Bis(3\u2032,4\u2032-dimethylphenyl)ethane"], "SMILES": "C(CC1=CC(C)=C(C)C=C1)C2=CC(C)=C(C)C=C2", "physical_data": {"Molecular Weight": "238.37", "Molecular Formula": "C18H22", "Boiling Point": "170-185 \u00b0C @ Press: 15 Torr", "Melting Point": "112-112.5 \u00b0C"}}