{"cas_no": "3410-77-3", "cn_name": "\u56db\u5f02\u6c30\u9178\u57fa\u7845\u70f7", "en_name": ["Tetraisocyanatosilane", "Silane, tetraisocyanato-", "Silicon isocyanate (Si(NCO)4)", "Silicon isocyanate", "Tetraisocyanatosilane", "Isocyanic acid, tetraanhydride with silicic acid (H4SiO4)", "Silicic acid (H4SiO4), tetraanhydride with isocyanic acid", "Silicon tetraisocyanate", "Silicon tetraisocyanate (Si(NCO)4)", "Tetraisocyanatesilane", "Tetra(cyanato-N)silane", "Teraisocyanatosilane"], "SMILES": "[Si](N=C=O)(N=C=O)(N=C=O)N=C=O", "physical_data": {"Molecular Weight": "196.15", "Molecular Formula": "C4N4O4Si", "Boiling Point": "186 \u00b0C", "Melting Point": "25-26 \u00b0C", "Density": "1.442 g/cm\u00b3"}}