{"cas_no": "34104-67-1", "cn_name": "\u8fd8\u539f\u6c1f\u54cc\u5576\u9187", "en_name": ["4-(4-Chlorophenyl)-\u03b1-(4-fluorophenyl)-4-hydroxy-1-piperidinebutanol", "1-Piperidinebutanol, 4-(4-chlorophenyl)-\u03b1-(4-fluorophenyl)-4-hydroxy-", "1-Piperidinebutanol, 4-(p-chlorophenyl)-\u03b1-(p-fluorophenyl)-4-hydroxy-", "4-(4-Chlorophenyl)-\u03b1-(4-fluorophenyl)-4-hydroxy-1-piperidinebutanol", "R 2572"], "SMILES": "OC1(C2=CC=C(Cl)C=C2)CCN(CCCC(O)C3=CC=C(F)C=C3)CC1", "physical_data": {"Molecular Weight": "377.88", "Molecular Formula": "C21H25ClFNO2", "Melting Point": "144-146 \u00b0C"}}