{"cas_no": "3411-95-8", "cn_name": "2-(2-\u7f9f\u57fa\u82ef\u57fa)\u82ef\u5e76\u567b\u5511", "en_name": ["2-(2\u2032-Hydroxyphenyl)benzothiazole", "Phenol, 2-(2-benzothiazolyl)-", "Phenol, o-2-benzothiazolyl-", "2-(2-Benzothiazolyl)phenol", "2-(o-Hydroxyphenyl)benzothiazole", "2-(2-Hydroxyphenyl)benzothiazole", "2-(2\u2032-Hydroxyphenyl)benzothiazole", "HBT", "NSC 5051", "NSC 58548", "2-(Benzo[d]thiazol-2-yl)phenol", "2-(2\u2032-Hydroxyphenyl)-2-benzothiazole", "2-(2-Hydroxyphenyl)-1,3-benzothiazole", "2-(1,3-Benzothiazol-2-yl)phenol"], "SMILES": "OC1=C(C2=NC=3C(S2)=CC=CC3)C=CC=C1", "physical_data": {"Molecular Weight": "227.28", "Molecular Formula": "C13H9NOS", "Boiling Point": "175-193 \u00b0C", "Melting Point": "131 \u00b0C"}}