{"cas_no": "3411-37-8", "cn_name": "\u69d0\u9187", "en_name": ["(+)-Sophoranol", "1H,5H,10H-Dipyrido[2,1-f:3\u2032,2\u2032,1\u2032-ij][1,6]naphthyridin-10-one, dodecahydro-7a-hydroxy-, (7aR,13aR,13bR,13cR)-", "Matrine, 5-hydroxy-", "Matridin-15-one, 5-hydroxy-", "Sophoranol", "(7aR,13aR,13bR,13cR)-Dodecahydro-7a-hydroxy-1H,5H,10H-dipyrido[2,1-f:3\u2032,2\u2032,1\u2032-ij][1,6]naphthyridin-10-one", "(+)-Sophoranol", "(+)-5\u03b1-Hydroxymatrine", "5-Hydroxymatrine", "1H,5H,10H-Dipyrido[2,1-f:3\u2032,2\u2032,1\u2032-ij][1,6]naphthyridin-10-one, dodecahydro-7a-hydroxy-, [7aR-(7a\u03b1,13a\u03b2,13b\u03b1,13c\u03b1)]-"], "SMILES": "OC12C3C(C4N(C1)C(=O)CCC4)CCCN3CCC2", "physical_data": {"Molecular Weight": "264.36", "Molecular Formula": "C15H24N2O2", "Melting Point": "171 \u00b0C"}}