{"cas_no": "34118-92-8", "cn_name": "N-\u76d0\u9178\u4e59\u9170\u666e\u9c81\u5361\u80fa", "en_name": ["Acecainide hydrochloride", "Benzamide, 4-(acetylamino)-N-[2-(diethylamino)ethyl]-, hydrochloride (1:1)", "Acetanilide, 4\u2032-[[2-(diethylamino)ethyl]carbamoyl]-, monohydrochloride", "Benzamide, 4-(acetylamino)-N-[2-(diethylamino)ethyl]-, monohydrochloride", "N-Acetylprocainamide hydrochloride", "N-Acetylprocaine amide hydrochloride", "Acecainide hydrochloride", "ASL 601"], "SMILES": "C(NCCN(CC)CC)(=O)C1=CC=C(NC(C)=O)C=C1.Cl", "physical_data": {"Molecular Weight": "", "Molecular Formula": "C15H23N3O2.ClH", "Melting Point": "190-193 \u00b0C"}}