{"cas_no": "34123-59-6", "cn_name": "\u5f02\u4e19\u9686", "en_name": ["Isoproturon", "Urea, N,N-dimethyl-N\u2032-[4-(1-methylethyl)phenyl]-", "Urea, 3-p-cumenyl-1,1-dimethyl-", "N,N-Dimethyl-N\u2032-[4-(1-methylethyl)phenyl]urea", "N\u2032-(p-Cumenyl)-N,N-dimethylurea", "N-(4-Isopropylphenyl)-N\u2032,N\u2032-dimethylurea", "DPX 6774", "N\u2032-(4-Isopropylphenyl)-N,N-dimethylurea", "Isoproturon", "Ipuron", "HOE 16410", "Arelon", "Arelon R", "Graminon", "CGA 18731", "CL 12150", "Tolkan", "Hytane 500L", "3-(4-Isopropylphenyl)-1,1-dimethylurea", "IP 50", "N\u2032-(p-Isopropylphenyl)-N,N-dimethylurea", "Nocilon", "IP-Flo", "IPU Stefes", "Alon", "Alon (pesticide)", "Protugan", "N,N-Dimethyl-N\u2032-(4-isopropylphenyl)urea", "Tolkan Flo", "Hora-Flo", "Isoflo (herbicide)", "Isoflo", "Arelon Dyspersyjny", "Izoturon", "Iralon", "Harpun", "Isogard", "Stefes IPU", "Arelon Top 500SC", "1-(4-Isopropylphenyl)-3,3-dimethylurea"], "SMILES": "N(C(N(C)C)=O)C1=CC=C(C(C)C)C=C1", "physical_data": {"Molecular Weight": "206.28", "Molecular Formula": "C12H18N2O", "Melting Point": "158 \u00b0C"}}