{"cas_no": "34124-14-6", "cn_name": "2,2'-\u4e8c\u6c28\u57fa\u8054\u82c4", "en_name": ["2,2\u2032-Ethylenedianiline", "Benzenamine, 2,2\u2032-(1,2-ethanediyl)bis-", "\u03b1,\u03b1\u2032-Bi-o-toluidine", "2,2\u2032-(1,2-Ethanediyl)bis[benzenamine]", "2,2\u2032-Diaminobibenzyl", "2,2\u2032-Diaminodibenzyl", "NSC 159119", "2,2\u2032-Ethylenedianiline", "2-(2-(2-Aminophenyl)ethyl)benzenamine", "2,2\u2032-(Ethane-1,2-diyl)dianiline", "2-[2-(2-Aminophenyl)ethyl]aniline"], "SMILES": "C(CC1=C(N)C=CC=C1)C2=C(N)C=CC=C2", "physical_data": {"Molecular Weight": "212.29", "Molecular Formula": "C14H16N2", "Melting Point": "241-242 \u00b0C"}}