{"cas_no": "34135-85-8", "cn_name": "\u7532\u57fa\u70ef\u4e19\u57fa\u4e09\u786b\u919a", "en_name": ["Allyl methyl trisulfide", "Trisulfide, methyl 2-propenyl", "Trisulfide, allyl methyl", "Methyl 2-propenyl trisulfide", "Methyl allyl trisulfide", "Allyl methyl trisulfide", "1-Methyl-3-allyl trisulfide", "1-Methyl-3-(prop-2-en-1-yl)trisulfane"], "SMILES": "S(CC=C)SSC", "physical_data": {"Molecular Weight": "152.30", "Molecular Formula": "C4H8S3", "Boiling Point": "29 \u00b0C", "Melting Point": "&lt;25 \u00b0C"}}