{"cas_no": "3413-58-9", "cn_name": "\u4e59\u57fa\u6c22\u5316\u94dc\u86cb\u767d", "en_name": ["Cinchonan-9-ol, 6\u2032-ethoxy-10,11-dihydro-, hydrochloride (1:1), (8\u03b1,9R)-", "Cinchonan-9-ol, 6\u2032-ethoxy-10,11-dihydro-, hydrochloride (1:1), (8\u03b1,9R)-", "Hydrocupreine, O6\u2032-ethyl-, monohydrochloride", "Cinchonan-9-ol, 6\u2032-ethoxy-10,11-dihydro-, monohydrochloride, (8\u03b1,9R)-", "O-Ethylhydrocupreine hydrochloride", "Neumolisina", "Numoquin hydrochloride", "Optochin hydrochloride", "Ethylhydrocupreine hydrochloride", "NSC 5361"], "SMILES": "C(O)(C=1C2=C(C=CC(OCC)=C2)N=CC1)C3N4CC(CC)C(C3)CC4.Cl", "physical_data": {"Molecular Weight": "", "Molecular Formula": "C21H28N2O2.ClH", "Melting Point": "252-254 \u00b0C"}}