{"cas_no": "3413-28-3", "cn_name": "4-(4-\u6c1f\u82ef\u6c27\u57fa)\u54cc\u5576", "en_name": ["4-(4-Fluorophenoxy)piperidine", "Piperidine, 4-(4-fluorophenoxy)-", "Piperidine, 4-(p-fluorophenoxy)-", "4-(4-Fluorophenoxy)piperidine", "4-(p-Fluorophenoxy)piperidine"], "SMILES": "O(C1=CC=C(F)C=C1)C2CCNCC2", "physical_data": {"Molecular Weight": "195.23", "Molecular Formula": "C11H14FNO", "Boiling Point": "83-85 \u00b0C @ Press: 0.3 Torr"}}