{"cas_no": "3413-72-7", "cn_name": "3-\u7532\u57fa(\u4e09\u6c2e\u6742\u70ef\u57fa)\u54aa\u5511-4 \u7532\u9170\u80fa", "en_name": ["5-(3-Methyltriazen-1-yl)imidazole-4-carboxamide", "1H-Imidazole-4-carboxamide, 5-[2-(methylimino)hydrazinyl]-", "Imidazole-4-carboxamide, 5-(3-methyl-1-triazeno)-", "1H-Imidazole-4-carboxamide, 5-(3-methyl-1-triazenyl)-", "Imidazole-4(or 5)-carboxamide, 5(or 4)-(3-methyl-1-triazeno)-", "5-[2-(Methylimino)hydrazinyl]-1H-imidazole-4-carboxamide", "5-(3-Methyl-1-triazeno)imidazole-4-carboxamide", "MTIC", "NSC 407347", "5-(3-Methyltriazen-1-yl)imidazole-4-carboxamide"], "SMILES": "C(N)(=O)C1=C(N=NNC)N=CN1", "physical_data": {"Molecular Weight": "168.16", "Molecular Formula": "C5H8N6O", "Melting Point": "178 \u00b0C"}}