{"cas_no": "34140-59-5", "cn_name": "\u9a6c\u6765\u9178\u66f2\u7f8e\u5e03\u6c40", "en_name": ["Trimebutine maleate", "Benzoic acid, 3,4,5-trimethoxy-, 2-(dimethylamino)-2-phenylbutyl ester, (2Z)-2-butenedioate (1:1)", "Benzoic acid, 3,4,5-trimethoxy-, \u03b2-(dimethylamino)-\u03b2-ethylphenethyl ester maleate (1:1)", "Benzoic acid, 3,4,5-trimethoxy-, 2-(dimethylamino)-2-phenylbutyl ester, (Z)-2-butenedioate (1:1)", "Trimebutine maleate", "Debridat", "Dromostat", "TM 906", "Spabucol", "Cerekinon", "Polibutin", "Digerent", "Foldox", "Trimedat", "Gast-Reg"], "SMILES": "C(=CC(O)=O)C(O)=O.C(COC(=O)C1=CC(OC)=C(OC)C(OC)=C1)(N(C)C)(CC)C2=CC=CC=C2", "physical_data": {"Molecular Weight": "", "Molecular Formula": "C22H29NO5.C4H4O4", "Melting Point": "105-106 \u00b0C"}}