{"cas_no": "3414-63-9", "cn_name": "\u9152\u77f3\u9178\u53bb\u7532\u80be\u4e0a\u817a\u7d20", "en_name": ["1,2-Benzenediol, 4-(2-amino-1-hydroxyethyl)-, (2R,3R)-2,3-dihydroxybutanedioate (1:1)", "1,2-Benzenediol, 4-(2-amino-1-hydroxyethyl)-, (2R,3R)-2,3-dihydroxybutanedioate (1:1)", "Benzyl alcohol, \u03b1-(aminomethyl)-3,4-dihydroxy-, (\u00b1)-, tartrate (1:1) (salt)", "1,2-Benzenediol, 4-(2-amino-1-hydroxyethyl)-, [R-(R*,R*)]-2,3-dihydroxybutanedioate (1:1) (salt)", "1,2-Benzenediol, 4-(2-amino-1-hydroxyethyl)-, (2R,3R)-2,3-dihydroxybutanedioate (1:1) (salt)", "dl-Noradrenaline bitartrate", "dl-Norepinephrine bitartrate", "(\u00b1)-Norepinephrine bitartrate", "(\u00b1)-Noradrenaline bitartrate", "DL-Noradrenaline L-bitartrate"], "SMILES": "C(C(C(O)=O)O)(C(O)=O)O.C(CN)(O)C1=CC(O)=C(O)C=C1", "physical_data": {"Molecular Weight": "", "Molecular Formula": "C8H11NO3.C4H6O6", "Melting Point": "163-165 \u00b0C"}}