{"cas_no": "3414-94-6", "cn_name": "3-\u82ef\u57fa-1,2,4-\u4e09\u5511-5-\u786b\u9187\u6c34\u5408\u7269", "en_name": ["3-Mercapto-5-phenyl-1,2,4-triazole", "3H-1,2,4-Triazole-3-thione, 1,2-dihydro-5-phenyl-", "\u03942-1,2,4-Triazoline-5-thione, 3-phenyl-", "s-Triazole-3-thiol, 5-phenyl-", "1,2-Dihydro-5-phenyl-3H-1,2,4-triazole-3-thione", "3-Phenyl-5-mercapto-s-triazole", "3-Mercapto-5-phenyl-1,2,4-triazole", "5-Phenyl-1,2,4-triazole-3-thiol", "3-Phenyl-1,2,4-triazole-5-thiol", "5-Phenyl-s-triazole-3-thiol", "5-Phenyl-1H-1,2,4-triazole-3-thiol", "NSC 11565", "5-Phenyl-2H-1,2,4-triazole-3-thiol", "3-Phenyl-4,5-dihydro-1H-1,2,4-triazole-5-thione", "3-Phenyl-1H-1,2,4-triazole-5-thiol"], "SMILES": "S=C1NC(=NN1)C2=CC=CC=C2", "physical_data": {"Molecular Weight": "177.23", "Molecular Formula": "C8H7N3S", "Melting Point": "265-267 \u00b0C"}}