{"cas_no": "34145-05-6", "cn_name": "2,5-\u4e8c\u6c2f\u82ef\u7532\u9187", "en_name": ["2,5-Dichlorobenzenemethanol", "Benzenemethanol, 2,5-dichloro-", "Benzyl alcohol, 2,5-dichloro-", "2,5-Dichlorobenzenemethanol", "2,5-Dichlorobenzyl alcohol", "(2,5-Dichlorophenyl)methanol"], "SMILES": "C(O)C1=C(Cl)C=CC(Cl)=C1", "physical_data": {"Molecular Weight": "177.03", "Molecular Formula": "C7H6Cl2O", "Melting Point": "80 \u00b0C"}}