{"cas_no": "3415-09-6", "cn_name": "(2S,3S,4R,5R)-5-(6-\u6c28\u57fa\u560c\u5464-9-\u57fa)-3,4-\u4e8c\u7f9f\u57fa\u56db\u6c22\u544b\u5583-2-\u7fa7\u9178", "en_name": ["Adenosine-5\u2032-carboxylic acid", "\u03b2-D-Ribofuranuronic acid, 1-(6-amino-9H-purin-9-yl)-1-deoxy-", "Ribofuranuronic acid, 1-(6-amino-9H-purin-9-yl)-1-deoxy-, \u03b2-D-", "1-(6-Amino-9H-purin-9-yl)-1-deoxy-\u03b2-D-ribofuranuronic acid", "Adenosine-5\u2032-carboxylic acid", "Adenine ribofuranosyluronic acid", "5\u2032-Carboxyadenosine", "Adenosine 5\u2032-uronic acid", "Adenine ribofuranuronic acid", "1-(9-Adenyl)-\u03b2-D-ribofuranuronic acid", "NSC 137784"], "SMILES": "OC1C(N2C=3C(N=C2)=C(N)N=CN3)OC(C(O)=O)C1O", "physical_data": {"Molecular Weight": "281.22", "Molecular Formula": "C10H11N5O5", "Melting Point": "198-200 \u00b0C"}}