{"cas_no": "34157-83-0", "cn_name": "\u96f7\u516c\u85e4\u7ea2\u7d20", "en_name": ["Celastrol", "24,25,26-Trinoroleana-1(10),3,5,7-tetraen-29-oic acid, 3-hydroxy-9,13-dimethyl-2-oxo-, (9\u03b2,13\u03b1,14\u03b2,20\u03b1)-", "D:A-Friedo-24-noroleana-1(10),3,5,7-tetraen-29-oic acid, 3-hydroxy-2-oxo-, (20\u03b1)-", "24-Nor-D:A-friedooleana-1(10),3,5,7-tetraen-29-oic acid, 3-hydroxy-2-oxo-", "(9\u03b2,13\u03b1,14\u03b2,20\u03b1)-3-Hydroxy-9,13-dimethyl-2-oxo-24,25,26-trinoroleana-1(10),3,5,7-tetraen-29-oic acid", "Celastrol", "Tripterin", "2-Picenecarboxylic acid, 1,2,3,4,4a,5,6,6a,11,12b,13,14,14a,14b-tetradecahydro-10-hydroxy-2,4a,6a,9,12b,14a-hexamethyl-11-oxo-, [2R-(2\u03b1,4a\u03b2,6a\u03b2,12b\u03b2,14a\u03b1,14b\u03b2)]-", "2-Picenecarboxylic acid, 1,2,3,4,4a,5,6,6a,11,12b,13,14,14a,14b-tetradecahydro-10-hydroxy-2,4a,6a,9,12b,14a-hexamethyl-11-oxo-, (2R,4aS,6aS,12bR,14aS,14bR)-", "NSC 70931", "UI1590"], "SMILES": "CC12C(C)(C3C(C)(CC1)CCC(C(O)=O)(C)C3)CCC4(C)C2=CC=C5C4=CC(=O)C(O)=C5C", "physical_data": {"Molecular Weight": "450.61", "Molecular Formula": "C29H38O4", "Melting Point": "195 \u00b0C (decomp)"}}