{"cas_no": "34158-72-0", "cn_name": "2-\u6eb4\u82ef\u7532\u919b\u809f", "en_name": ["Benzaldehyde, 2-bromo-, oxime", "Benzaldehyde, 2-bromo-, oxime", "Benzaldehyde, o-bromo-, oxime", "2-Bromobenzaldoxime", "2-Bromobenzaldehyde oxime"], "SMILES": "C(=NO)C1=C(Br)C=CC=C1", "physical_data": {"Molecular Weight": "200.03", "Molecular Formula": "C7H6BrNO", "Melting Point": "102.1-103.9 \u00b0C"}}