{"cas_no": "3416-18-0", "cn_name": "2-\u7532\u57fa-6-\u55b9\u5549\u7532\u9178", "en_name": ["5-Hydroxyoxindole", "2H-Indol-2-one, 1,3-dihydro-5-hydroxy-", "2-Indolinone, 5-hydroxy-", "Oxindole, 5-hydroxy-", "1,3-Dihydro-5-hydroxy-2H-indol-2-one", "5-Hydroxyoxindole", "5-Hydroxyindolin-2-one"], "SMILES": "O=C1NC=2C(C1)=CC(O)=CC2", "physical_data": {"Molecular Weight": "149.15", "Molecular Formula": "C8H7NO2", "Melting Point": "156-157 \u00b0C"}}