{"cas_no": "3416-26-0", "cn_name": "\u5229\u591a\u6c1f\u55ea", "en_name": ["Lidoflazine", "1-Piperazineacetamide, 4-[4,4-bis(4-fluorophenyl)butyl]-N-(2,6-dimethylphenyl)-", "1-Piperazineaceto-2\u2032,6\u2032-xylidide, 4-[4,4-bis(p-fluorophenyl)butyl]-", "4-[4,4-Bis(4-fluorophenyl)butyl]-N-(2,6-dimethylphenyl)-1-piperazineacetamide", "McN-JR 7904", "R 7904", "Clinium", "1-[4,4-Di(4-fluorophenyl)butyl]-4-[(2,6-dimethylanilinocarbonyl)methyl]piperazine", "Klinium", "Lidoflazine", "1-[4,4-Bis(4-fluorophenyl)butyl]-4-(2,6-dimethylphenylcarbamoylmethyl)piperazine", "4-[4,4-Bis(p-fluorophenyl)butyl]-1-piperazineaceto-2\u2032,6\u2032-xylidide", "Ordiflazine", "Corflazine", "1-[4,4-Bis(fluorophenyl)butyl]-4-(2,6-dimethylanilinocarbonylmethyl)piperazine", "Lidoflazinum", "Lidoflazin", "McN-JR 7094", "Angex", "2-(4-(4,4-Bis(4-fluorophenyl)butyl)piperazin-1-yl)-N-(2,6-dimethylphenyl)acetamide"], "SMILES": "C(CCCN1CCN(CC(NC2=C(C)C=CC=C2C)=O)CC1)(C3=CC=C(F)C=C3)C4=CC=C(F)C=C4", "physical_data": {"Molecular Weight": "491.62", "Molecular Formula": "C30H35F2N3O", "Melting Point": "159-161 \u00b0C"}}