{"cas_no": "34160-40-2", "cn_name": "6-\u6eb4\u5421\u5576-2-\u7532\u919b", "en_name": ["6-Bromo-2-pyridinecarboxaldehyde", "2-Pyridinecarboxaldehyde, 6-bromo-", "Picolinaldehyde, 6-bromo-", "6-Bromo-2-pyridinecarboxaldehyde", "6-Bromo-2-formylpyridine", "2-Bromopyridine-6-carboxaldehyde", "6-Bromopicolylaldehyde", "2-Bromo-6-formylpyridine", "6-Bromopyridine-2-aldehyde", "2-Bromopyridyl-6-carboxaldehyde", "2-Formyl-6-bromopyridine", "6-Bromo-2-pyridinecarbaldehyde", "6-Bromopicolinaldehyde"], "SMILES": "C(=O)C=1N=C(Br)C=CC1", "physical_data": {"Molecular Weight": "186.01", "Molecular Formula": "C6H4BrNO", "Melting Point": "80-81.5 \u00b0C"}}