{"cas_no": "3416-24-8", "cn_name": "\u8461\u7cd6\u80fa", "en_name": ["Glucosamine", "D-Glucose, 2-amino-2-deoxy-", "2-Amino-2-deoxy-D-glucose", "Chitosamine", "Glucosamine", "D-Glucosamine", "2-Amino-2-deoxyglucose", "2-Amino-2-deoxy-D-glucopyranose", "2-Deoxy-2-aminoglucose", "2-Deoxy-2-amino-D-glucose", "2-Aminoglucose", "Glucosamine, D-", "Mediflex"], "SMILES": "C(C(C(CO)O)O)(C(C=O)N)O", "physical_data": {"Molecular Weight": "179.17", "Molecular Formula": "C6H13NO5", "Melting Point": "88 \u00b0C"}}