{"cas_no": "3417-91-2", "cn_name": "L-\u916a\u6c28\u9178\u7532\u916f\u76d0\u9178\u76d0", "en_name": ["L-Tyrosine, methyl ester, hydrochloride", "L-Tyrosine, methyl ester, hydrochloride (1:1)", "Tyrosine, methyl ester, hydrochloride, L-", "L-Tyrosine, methyl ester, hydrochloride", "Methyl L-tyrosinate hydrochloride", "Tyrosine methyl ester hydrochloride", "Methyl tyrosinate hydrochloride", "(S)-Tyrosine methyl ester hydrochloride", "NSC 65609", "(2S)-Methyl 2-ammonio-3-(4-hydroxyphenyl)propionate chloride", "H-L-Tyr-OMe hydrochloride"], "SMILES": "C(C(C(OC)=O)N)C1=CC=C(O)C=C1.Cl", "physical_data": {"Molecular Weight": "", "Molecular Formula": "C10H13NO3.ClH", "Melting Point": "190 \u00b0C"}}