{"cas_no": "34176-52-8", "cn_name": "(4-\u82ef\u57fa\u567b\u5511-2-\u57fa)\u80bc", "en_name": ["2-Hydrazinyl-4-phenylthiazole", "Thiazole, 2-hydrazinyl-4-phenyl-", "Thiazole, 2-hydrazino-4-phenyl-", "2(3H)-Thiazolone, 4-phenyl-, hydrazone", "2-Hydrazinyl-4-phenylthiazole", "2-Hydrazino-4-phenylthiazole", "NSC 153290", "(4-Phenylthiazol-2-yl)hydrazine", "2-Hydrazinyl-4-phenyl-1,3-thiazole"], "SMILES": "N(N)=C1NC(=CS1)C2=CC=CC=C2", "physical_data": {"Molecular Weight": "191.25", "Molecular Formula": "C9H9N3S", "Melting Point": "167-168 \u00b0C"}}