{"cas_no": "342-25-6", "cn_name": "2,4'-\u4e8c\u6c1f\u4e8c\u82ef\u7532\u916e", "en_name": ["2,4\u2032-Difluorobenzophenone", "Methanone, (2-fluorophenyl)(4-fluorophenyl)-", "(2-Fluorophenyl)(4-fluorophenyl)methanone", "2,4\u2032-Difluorobenzophenone"], "SMILES": "C(=O)(C1=C(F)C=CC=C1)C2=CC=C(F)C=C2", "physical_data": {"Molecular Weight": "218.20", "Molecular Formula": "C13H8F2O", "Boiling Point": "176-178 \u00b0C @ Press: 16 Torr", "Melting Point": "22.8-23.6 \u00b0C"}}