{"cas_no": "342-69-8", "cn_name": "6-(\u7532\u786b\u57fa)-9-\u0392-D-\u544b\u5583\u6838\u7cd6-9H-\u560c\u5464", "en_name": ["6-Methylmercaptopurine riboside", "Inosine, 6-S-methyl-6-thio-", "9H-Purine, 6-(methylthio)-9-\u03b2-D-ribofuranosyl-", "6-S-Methyl-6-thioinosine", "6-Methylmercaptopurine riboside", "6-(Methylthio)purine ribonucleoside", "6-(Methylthio)-9-\u03b2-D-ribofuranosyl-9H-purine", "\u03b2-D-Ribosyl-6-methylthiopurine", "6-(Methylmercapto)purine ribonucleoside", "6-Methylthiopurine riboside", "6-Methylthioinosine", "6-(Methylmercapto)-9-(\u03b2-D-ribofuranosyl)purine", "6-(Methylthio)-9-\u03b2-D-ribofuranosylpurine", "Methylthioinosine", "SQ 21977", "NSC 40774", "6-MMPR", "NSC 49555", "MeSH ID: D008778"], "SMILES": "OC1C(N2C=3C(N=C2)=C(SC)N=CN3)OC(CO)C1O", "physical_data": {"Molecular Weight": "298.32", "Molecular Formula": "C11H14N4O4S", "Melting Point": "164 \u00b0C"}}