{"cas_no": "342-24-5", "cn_name": "\u90bb\u6c1f\u4e8c\u82ef\u7532\u916e", "en_name": ["2-Fluorobenzophenone", "Methanone, (2-fluorophenyl)phenyl-", "Benzophenone, 2-fluoro-", "2-Fluorobenzophenone", "o-Fluorobenzophenone", "2-Fluorophenyl phenyl ketone", "NSC 88283", "(2-Fluorophenyl)phenylmethanone"], "SMILES": "C(=O)(C1=C(F)C=CC=C1)C2=CC=CC=C2", "physical_data": {"Molecular Weight": "200.21", "Molecular Formula": "C13H9FO", "Boiling Point": "150 \u00b0C"}}