{"cas_no": "34205-21-5", "cn_name": "\u6076\u5511\u9686", "en_name": ["Dimefuron", "Urea, N\u2032-[3-chloro-4-[5-(1,1-dimethylethyl)-2-oxo-1,3,4-oxadiazol-3(2H)-yl]phenyl]-N,N-dimethyl-", "Urea, 3-[4-(2-tert-butyl-5-oxo-\u03942-1,3,4-oxadiazolin-4-yl)-3-chlorophenyl]-1,1-dimethyl-", "N\u2032-[3-Chloro-4-[5-(1,1-dimethylethyl)-2-oxo-1,3,4-oxadiazol-3(2H)-yl]phenyl]-N,N-dimethylurea", "3-[2-Chloro-4-(3,3-dimethylureido)phenyl]-5-tert-butyl-1,3,4-oxadiazolinone", "RP 23465", "Dimefuron", "Vt 2809", "Pradone TS"], "SMILES": "O=C1N(N=C(C(C)(C)C)O1)C2=C(Cl)C=C(NC(N(C)C)=O)C=C2", "physical_data": {"Molecular Weight": "338.79", "Molecular Formula": "C15H19ClN4O3", "Melting Point": "193 \u00b0C"}}