{"cas_no": "3420-72-2", "cn_name": "2'-\u7f9f\u57fa-4,4',6'-\u4e09\u7532\u6c27\u57fa\u67e5\u8033\u916e", "en_name": ["2\u2032-Hydroxy-4,4\u2032,6\u2032-trimethoxychalcone", "2-Propen-1-one, 1-(2-hydroxy-4,6-dimethoxyphenyl)-3-(4-methoxyphenyl)-", "Chalcone, 2\u2032-hydroxy-4,4\u2032,6\u2032-trimethoxy-", "1-(2-Hydroxy-4,6-dimethoxyphenyl)-3-(4-methoxyphenyl)-2-propen-1-one", "2\u2032-Hydroxy-4,4\u2032,6\u2032-trimethoxychalcone", "NSC 37445"], "SMILES": "O(C)C1=C(C(C=CC2=CC=C(OC)C=C2)=O)C(O)=CC(OC)=C1", "physical_data": {"Molecular Weight": "314.33", "Molecular Formula": "C18H18O5", "Melting Point": "112-114 \u00b0C"}}