{"cas_no": "34209-81-9", "cn_name": "16,17-\u73af\u6c27\u5b55\u70ef\u9187\u916e\u918b\u9178\u916f", "en_name": ["(3\u03b2,16\u03b1)-3-(Acetyloxy)-16,17-epoxypregn-5-en-20-one", "Pregn-5-en-20-one, 3-(acetyloxy)-16,17-epoxy-, (3\u03b2,16\u03b1)-", "Pregn-5-en-20-one, 16\u03b1,17-epoxy-3\u03b2-hydroxy-, acetate", "(3\u03b2,16\u03b1)-3-(Acetyloxy)-16,17-epoxypregn-5-en-20-one", "3\u03b2-Hydroxy-16\u03b1,17\u03b1-oxidopregn-5-en-20-one acetate", "3\u03b2-Acetoxy-16\u03b1,17-epoxypregnen-5-en-20-one", "3\u03b2-Acetoxy-16\u03b1,17-epoxypregn-5-en-20-one", "3\u03b2-Acetoxy-16\u03b1,17\u03b1-epoxypregn-5-en-20-one", "16\u03b1,17\u03b1-Epoxypregnenolone acetate", "16\u03b1,17\u03b1-Epoxy-20-oxopregn-5-en-3\u03b2-yl acetate", "NSC 21455", "3\u03b2-Acetoxy-16\u03b1,17\u03b1-epoxypregna-5-dien-20-one"], "SMILES": "C(C)(=O)C12C(O1)CC3C2(C)CCC4C3CC=C5C4(C)CCC(OC(C)=O)C5", "physical_data": {"Molecular Weight": "372.50", "Molecular Formula": "C23H32O4", "Melting Point": "156-158 \u00b0C"}}