{"cas_no": "34209-69-3", "cn_name": "\u7edc\u77f3\u82f7\u5143", "en_name": ["(-)-Trachelogenin", "2(3H)-Furanone, 4-[(3,4-dimethoxyphenyl)methyl]dihydro-3-hydroxy-3-[(4-hydroxy-3-methoxyphenyl)methyl]-, (3S,4S)-", "Trachelogenin", "2(3H)-Furanone, 4-[(3,4-dimethoxyphenyl)methyl]dihydro-3-hydroxy-3-[(4-hydroxy-3-methoxyphenyl)methyl]-, (3S-cis)-", "2(3H)-Furanone, dihydro-3-hydroxy-3-vanillyl-4-veratryl-", "(3S,4S)-4-[(3,4-Dimethoxyphenyl)methyl]dihydro-3-hydroxy-3-[(4-hydroxy-3-methoxyphenyl)methyl]-2(3H)-furanone", "(-)-Trachelogenin"], "SMILES": "C(C1C(CC2=CC(OC)=C(O)C=C2)(O)C(=O)OC1)C3=CC(OC)=C(OC)C=C3", "physical_data": {"Molecular Weight": "388.41", "Molecular Formula": "C21H24O7", "Melting Point": "144 \u00b0C"}}