{"cas_no": "34202-69-2", "cn_name": "\u4e09\u6c34\u516d\u6c1f\u4e19\u916e", "en_name": ["Hexafluoroacetone trihydrate", "2-Propanone, 1,1,1,3,3,3-hexafluoro-, hydrate (1:3)", "2-Propanone, 1,1,1,3,3,3-hexafluoro-, trihydrate", "Hexafluoroacetone trihydrate"], "SMILES": "C(C(F)(F)F)(C(F)(F)F)=O.O", "physical_data": {"Molecular Weight": "", "Molecular Formula": "C3F6O.3H2O", "Melting Point": "18-21 \u00b0C"}}