{"cas_no": "34213-86-0", "cn_name": "4-\u6c28\u57fa\u82ef\u57fa-ALPHA-D-\u5421\u5583\u7518\u9732\u7cd6\u82f7", "en_name": ["p-Aminophenyl \u03b1-D-mannopyranoside", "\u03b1-D-Mannopyranoside, 4-aminophenyl", "Mannopyranoside, p-aminophenyl, \u03b1-D-", "4-Aminophenyl \u03b1-D-mannopyranoside", "p-Aminophenyl \u03b1-D-mannopyranoside", "4-Aminophenyl \u03b1-D-mannoside"], "SMILES": "O(C1OC(CO)C(O)C(O)C1O)C2=CC=C(N)C=C2", "physical_data": {"Molecular Weight": "271.27", "Molecular Formula": "C12H17NO6", "Melting Point": "164 \u00b0C"}}