{"cas_no": "34225-81-5", "cn_name": "3-\u7532\u57fa\u831a-2-\u7fa7\u9178", "en_name": ["3-Methyl-1H-indene-2-carboxylic acid", "1H-Indene-2-carboxylic acid, 3-methyl-", "Indene-2-carboxylic acid, 3-methyl-", "3-Methyl-1H-indene-2-carboxylic acid", "3-Methylindene-2-carboxylic acid"], "SMILES": "CC=1C=2C(CC1C(O)=O)=CC=CC2", "physical_data": {"Molecular Weight": "174.20", "Molecular Formula": "C11H10O2", "Melting Point": "200-201 \u00b0C"}}