{"cas_no": "34231-78-2", "cn_name": "3-\u4e59\u9170\u6c27\u57fa\u82ef\u7532\u919b", "en_name": ["3-(Acetyloxy)benzaldehyde", "Benzaldehyde, 3-(acetyloxy)-", "Benzaldehyde, m-hydroxy-, acetate", "3-(Acetyloxy)benzaldehyde", "3-Acetoxybenzaldehyde", "m-Acetoxybenzaldehyde", "m-Hydroxybenzaldehyde acetate", "3-Formylphenyl acetate"], "SMILES": "O(C(C)=O)C1=CC(C=O)=CC=C1", "physical_data": {"Molecular Weight": "164.16", "Molecular Formula": "C9H8O3", "Boiling Point": "140 \u00b0C @ Press: 16 Torr", "Melting Point": "198 \u00b0C"}}