{"cas_no": "34246-54-3", "cn_name": "3-\u4e59\u57fa\u82ef\u7532\u919b", "en_name": ["3-Ethylbenzaldehyde", "Benzaldehyde, 3-ethyl-", "Benzaldehyde, m-ethyl-", "3-Ethylbenzaldehyde", "m-Ethylbenzaldehyde"], "SMILES": "C(C)C1=CC(C=O)=CC=C1", "physical_data": {"Molecular Weight": "134.18", "Molecular Formula": "C9H10O", "Boiling Point": "73 \u00b0C @ Press: 5.5 Torr"}}