{"cas_no": "3424-98-4", "cn_name": "\u66ff\u6bd4\u592b\u5b9a", "en_name": ["Telbivudine", "2,4(1H,3H)-Pyrimidinedione, 1-(2-deoxy-\u03b2-L-erythro-pentofuranosyl)-5-methyl-", "Thymine, 1-(2-deoxy-\u03b2-L-erythro-pentofuranosyl)-", "1-(2-Deoxy-\u03b2-L-erythro-pentofuranosyl)-5-methyl-2,4(1H,3H)-pyrimidinedione", "2\u2032-Deoxy-L-thymidine", "L-Thymidine", "\u03b2-L-Thymidine", "Epavudine", "NV 02B", "Telbivudine", "Sebivo", "L-Deoxythymidine", "Tyzeka", "32: PN: WO2016077321 SEQID: 32 claimed sequence"], "SMILES": "O=C1N(C2OC(CO)C(O)C2)C=C(C)C(=O)N1", "physical_data": {"Molecular Weight": "242.23", "Molecular Formula": "C10H14N2O5", "Melting Point": "186 \u00b0C"}}