{"cas_no": "3424-93-9", "cn_name": "4-\u7532\u6c27\u57fa\u82ef\u7532\u9170\u80fa", "en_name": ["4-Methoxybenzamide", "Benzamide, 4-methoxy-", "p-Anisamide", "4-Methoxybenzamide", "p-Methoxybenzamide", "Anisamide", "NSC 11139"], "SMILES": "C(N)(=O)C1=CC=C(OC)C=C1", "physical_data": {"Molecular Weight": "151.16", "Molecular Formula": "C8H9NO2", "Boiling Point": "295 \u00b0C", "Melting Point": "166.5 \u00b0C"}}