{"cas_no": "34246-57-6", "cn_name": "3-\u5f02\u4e19\u57fa\u82ef\u7532\u919b", "en_name": ["3-Isopropylbenzaldehyde", "Benzaldehyde, 3-(1-methylethyl)-", "Benzaldehyde, m-isopropyl-", "3-(1-Methylethyl)benzaldehyde", "m-Isopropylbenzaldehyde", "3-Isopropylbenzaldehyde", "3-Propan-2-ylbenzaldehyde"], "SMILES": "C(C)(C)C1=CC(C=O)=CC=C1", "physical_data": {"Molecular Weight": "148.20", "Molecular Formula": "C10H12O", "Boiling Point": "95-97 \u00b0C"}}