{"cas_no": "342417-01-0", "cn_name": "6-(4-\u7532\u57fa\u54cc\u55ea-1-\u57fa)-4-(2-\u7532\u57fa\u82ef\u57fa)\u70df\u9170\u80fa", "en_name": ["4-(2-Methylphenyl)-6-(4-methyl-1-piperazinyl)-3-pyridinecarboxamide", "3-Pyridinecarboxamide, 4-(2-methylphenyl)-6-(4-methyl-1-piperazinyl)-", "4-(2-Methylphenyl)-6-(4-methyl-1-piperazinyl)-3-pyridinecarboxamide", "6-(4-Methylpiperazin-1-yl)-4-o-tolylnicotinamide"], "SMILES": "C(N)(=O)C=1C(=CC(=NC1)N2CCN(C)CC2)C3=C(C)C=CC=C3", "physical_data": {"Molecular Weight": "310.39", "Molecular Formula": "C18H22N4O", "Melting Point": "163.6-164.5 \u00b0C"}}