{"cas_no": "3424-82-6", "cn_name": "3-\u90bb\u6c2f\u82ef\u57fa-2-\u5bf9\u6c2f\u82ef-1,1'-\u4e8c\u4e59\u70ef", "en_name": ["o,p\u2032-DDE", "Benzene, 1-chloro-2-[2,2-dichloro-1-(4-chlorophenyl)ethenyl]-", "Ethylene, 1,1-dichloro-2-(o-chlorophenyl)-2-(p-chlorophenyl)-", "1-Chloro-2-[2,2-dichloro-1-(4-chlorophenyl)ethenyl]benzene", "1,1-Dichloro-2-(o-chlorophenyl)-2-(p-chlorophenyl)ethylene", "o,p\u2032-DDE", "2-(2-Chlorophenyl)-2-(4-chlorophenyl)-1,1-dichloroethylene", "2,4\u2032-DDE", "2,4\u2032-Dichlorodiphenyldichloroethylene", "NSC 59908", "o,p\u2032-Dichlorodiphenyldichloroethylene", "1-Chloro-2-(2,2-dichloro-1-(4-chlorophenyl)vinyl)benzene"], "SMILES": "C(=C(Cl)Cl)(C1=C(Cl)C=CC=C1)C2=CC=C(Cl)C=C2", "physical_data": {"Molecular Weight": "318.03", "Molecular Formula": "C14H8Cl4", "Melting Point": "78.4-79.5 \u00b0C"}}