{"cas_no": "34246-96-3", "cn_name": "1-\u7532\u6c27\u57fa\u8298", "en_name": ["1-Methoxypyrene", "Pyrene, 1-methoxy-", "1-Methoxypyrene", "3-Methoxypyrene", "1-Hydroxypyrene methyl ether"], "SMILES": "O(C)C1=C2C3=C4C(C=C2)=CC=CC4=CC=C3C=C1", "physical_data": {"Molecular Weight": "232.28", "Molecular Formula": "C17H12O", "Melting Point": "128-129 \u00b0C"}}