{"cas_no": "34253-03-7", "cn_name": "2-\u5627\u5576\u7532\u9178\u7532\u916f", "en_name": ["2-Pyrimidinecarboxylic acid, methyl ester", "2-Pyrimidinecarboxylic acid, methyl ester", "Methyl 2-pyrimidinecarboxylate"], "SMILES": "C(OC)(=O)C=1N=CC=CN1", "physical_data": {"Molecular Weight": "138.12", "Molecular Formula": "C6H6N2O2", "Melting Point": "104-105 \u00b0C"}}