{"cas_no": "34256-82-1", "cn_name": "\u4e59\u8349\u80fa", "en_name": ["Acetochlor", "Acetamide, 2-chloro-N-(ethoxymethyl)-N-(2-ethyl-6-methylphenyl)-", "o-Acetotoluidide, 2-chloro-N-(ethoxymethyl)-6\u2032-ethyl-", "2-Chloro-N-(ethoxymethyl)-N-(2-ethyl-6-methylphenyl)acetamide", "2-Chloro-N-(ethoxymethyl)-6\u2032-ethyl-o-acetotoluidide", "Acetochlor", "MON 097", "Nevirex", "Azetochlor", "2\u2032-Ethyl-6\u2032-methyl-N-(ethoxymethyl)-2-chloroacetanilide", "MG 02", "Harness", "Acenit", "Acetal", "2-Methyl-6-ethyl-N-ethoxymethyl-2-chloroacetanilide", "Riley", "Acetal (herbicide)", "Trophee", "Henaisi", "Guardian", "Guardian (herbicide)", "Trophy", "Relay (herbicide)", "Relay", "Warrant", "Acetor 50 EC", "Surpass", "2-Ethyl-6-methyl-N-(ethoxymethyl)-2-chloroacetylaniline"], "SMILES": "N(C(CCl)=O)(COCC)C1=C(CC)C=CC=C1C", "physical_data": {"Molecular Weight": "269.77", "Molecular Formula": "C14H20ClNO2", "Boiling Point": "162 \u00b0C", "Melting Point": "&lt;0 \u00b0C"}}