{"cas_no": "3425-61-4", "cn_name": "\u7279\u620a\u57fa\u8fc7\u6c27\u5316\u6c22", "en_name": ["tert-Amyl hydroperoxide", "Hydroperoxide, 1,1-dimethylpropyl", "tert-Pentyl hydroperoxide", "1,1-Dimethylpropyl hydroperoxide", "tert-Amyl hydroperoxide", "2-Ethyl-2-propyl hydroperoxide", "t-Amyl hydroperoxide", "Trigonox TAHP", "tert-Amyl hydrogen peroxide", "TAH 85", "Luperox TAH", "Luperox TAH 85", "Luperox TAHP", "Peroxan AHP", "2-Hydroperoxy-2-methylbutane"], "SMILES": "C(CC)(OO)(C)C", "physical_data": {"Molecular Weight": "104.15", "Molecular Formula": "C5H12O2", "Boiling Point": "26 \u00b0C @ Press: 3.5 Torr", "Density": "0.903 g/cm\u00b3"}}