{"cas_no": "3425-89-6", "cn_name": "4-\u7532\u57fa\u56db\u6c22\u82ef\u9150", "en_name": ["Isomethyltetrahydrophthalic anhydride", "1,3-Isobenzofurandione, 3a,4,7,7a-tetrahydro-5-methyl-", "4-Cyclohexene-1,2-dicarboxylic anhydride, 4-methyl-", "3a,4,7,7a-Tetrahydro-5-methyl-1,3-isobenzofurandione", "4-Methyl-\u03944-tetrahydrophthalic anhydride", "4-Methyl-1,2,3,6-tetrahydrophthalic anhydride", "4-Methyltetrahydrophthalic anhydride", "4-Methyl-4-cyclohexene-1,2-dicarboxylic acid anhydride", "4-Methyl-4-cyclohexene-1,2-dicarboxylic anhydride", "Isomethyltetrahydrophthalic anhydride", "5-Methyltetrahydrophthalic anhydride", "1,2,3,6-Tetrahydro-4-methylphthalic anhydride", "Lindride 2", "NSC 52669", "5-Methyl-3a,4,7,7a-tetrahydro-2-benzofuran-1,3-dione", "4-Methyl-1,2,3,6-tetrahydrophthalic acid anhydride", "Aradur HY 2123"], "SMILES": "O=C1C2C(C(=O)O1)CC=C(C)C2", "physical_data": {"Molecular Weight": "166.17", "Molecular Formula": "C9H10O3", "Melting Point": "63-64 \u00b0C"}}