{"cas_no": "342573-75-5", "cn_name": "1-\u4e59\u57fa-3-\u7532\u57fa\u54aa\u5511\u786b\u9178\u4e59\u916f", "en_name": ["1-Ethyl-3-methylimidazolium ethylsulfate", "1H-Imidazolium, 3-ethyl-1-methyl-, ethyl sulfate (1:1)", "1H-Imidazolium, 1-ethyl-3-methyl-, ethyl sulfate", "1-Ethyl-3-methylimidazolium ethylsulfate", "Ecoeng 212", "Tego IL-IMES", "Ecoeng 121", "E 0650", "Tego IL EMIM-ES", "Basionics LQ 01", "Emin ETOSO3", "1-Ethyl-3-methylimidazolium ethylsulfate(1-)", "LQ 01", "[EMIM]ETSO4", "BASF LQ 01"], "SMILES": "O(S(=O)(=O)[O-])CC.C(C)[N+]1=CN(C)C=C1", "physical_data": {"Molecular Weight": "", "Molecular Formula": "C6H11N2.C2H5O4S", "Melting Point": "-65 \u00b0C", "Density": "1.2075 g/cm\u00b3 @ Temp: 79.15 \u00b0C"}}