{"cas_no": "342602-55-5", "cn_name": "1-(5-\u6c1f-3-\u5421\u5576\u57fa)-\u4e59\u916e", "en_name": ["1-(5-Fluoro-3-pyridinyl)ethanone", "Ethanone, 1-(5-fluoro-3-pyridinyl)-", "1-(5-Fluoro-3-pyridinyl)ethanone", "1-(5-Fluoropyridin-3-yl)ethan-1-one"], "SMILES": "C(C)(=O)C=1C=C(F)C=NC1", "physical_data": {"Molecular Weight": "139.13", "Molecular Formula": "C7H6FNO", "Melting Point": "48-50 \u00b0C"}}