{"cas_no": "34265-58-2", "cn_name": "2-\u7f9f\u57fa-5-\u7532\u57fa\u82ef\u7532\u9178\u4e59\u916f", "en_name": ["Benzoic acid, 2-hydroxy-5-methyl-, ethyl ester", "Benzoic acid, 2-hydroxy-5-methyl-, ethyl ester", "2,5-Cresotic acid, ethyl ester", "Ethyl 6-hydroxy-3-methylbenzoate", "Ethyl 5-methylsalicylate", "5-Methylsalicylic acid ethyl ester", "Ethyl 2-hydroxy-5-methylbenzoate", "2-Hydroxy-5-methylbenzoic acid ethyl ester"], "SMILES": "C(OCC)(=O)C1=C(O)C=CC(C)=C1", "physical_data": {"Molecular Weight": "180.20", "Molecular Formula": "C10H12O3", "Boiling Point": "153-154 \u00b0C", "Melting Point": "2 \u00b0C"}}