{"cas_no": "3426-71-9", "cn_name": "N-(\u82c4\u7fb0\u6c27\u57fa)\u7f9f\u57fa\u80fa", "en_name": ["Benzyl N-hydroxycarbamate", "Carbamic acid, N-hydroxy-, phenylmethyl ester", "Carbamic acid, hydroxy-, benzyl ester", "Carbamic acid, hydroxy-, phenylmethyl ester", "Benzyl N-hydroxycarbamate", "N-Benzyloxycarbonylhydroxylamine", "N-Hydroxycarbamic acid benzyl ester", "NSC 528506", "Benzyl hydroxycarbamate", "N-Cbz-hydroxylamine"], "SMILES": "C(OC(NO)=O)C1=CC=CC=C1", "physical_data": {"Molecular Weight": "167.16", "Molecular Formula": "C8H9NO3", "Melting Point": "68-69 \u00b0C"}}