{"cas_no": "34274-91-4", "cn_name": "GARDNERAMINE", "en_name": ["(1R,3Z,4R,4aS,11bR,12aS,13S)-3,4,4a,5,12,12a-Hexahydro-8,10,11-trimethoxy-3-(2-methoxyethylidene)-4,1,11b-ethanylylidene-2H-pyrido[2\u2032,3\u2032:5,6]oxepino[2,3-b]indole", "4,1,11b-Ethanylylidene-2H-pyrido[2\u2032,3\u2032:5,6]oxepino[2,3-b]indole, 3,4,4a,5,12,12a-hexahydro-8,10,11-trimethoxy-3-(2-methoxyethylidene)-, (1R,3Z,4R,4aS,11bR,12aS,13S)-", "Gardneramine oxindole, 1,2-didehydro-2-deoxo-17-deoxy-2,17-epoxy-", "(1R,3Z,4R,4aS,11bR,12aS,13S)-3,4,4a,5,12,12a-Hexahydro-8,10,11-trimethoxy-3-(2-methoxyethylidene)-4,1,11b-ethanylylidene-2H-pyrido[2\u2032,3\u2032:5,6]oxepino[2,3-b]indole", "Gardneramine", "4,1,11b-Ethanylylidene-2H-pyrido[2\u2032,3\u2032:5,6]oxepino[2,3-b]indole, 3,4,4a,5,12,12a-hexahydro-8,10,11-trimethoxy-3-(2-methoxyethylidene)-, [1R-(1\u03b1,3Z,4\u03b1,4a\u03b2,11b\u03b1,12a\u03b2,13S*)]-"], "SMILES": "O(C)C1=C2C34C5N6C(C3)C(C(C5)C(=CCOC)C6)COC4=NC2=C(OC)C=C1OC", "physical_data": {"Molecular Weight": "412.48", "Molecular Formula": "C23H28N2O5", "Melting Point": "133-134 \u00b0C"}}