{"cas_no": "34272-65-6", "cn_name": "(2,4-\u4e8c\u7532\u57fa-1,3-\u567b\u5511-5-\u57fa)\u4e59\u9178", "en_name": ["2,4-Dimethyl-5-thiazoleacetic acid", "5-Thiazoleacetic acid, 2,4-dimethyl-", "2,4-Dimethyl-5-thiazoleacetic acid", "(2,4-Dimethylthiazol-5-yl)acetic acid", "2-(2,4-Dimethylthiazol-5-yl)acetic acid", "(2,4-Dimethyl-1,3-thiazole-5-yl)acetic acid", "2-(Dimethyl-1,3-thiazol-5-yl)acetic acid", "2-(2,4-Dimethyl-1,3-thiazol-5-yl)acetic acid"], "SMILES": "C(C(O)=O)C=1SC(C)=NC1C", "physical_data": {"Molecular Weight": "171.22", "Molecular Formula": "C7H9NO2S", "Melting Point": "183-184 \u00b0C"}}