{"cas_no": "34271-24-4", "cn_name": "2-(\u4e59\u9170\u57fa\u6c28\u57fa)\u4e01\u9178", "en_name": ["2-(Acetylamino)butanoic acid", "Butanoic acid, 2-(acetylamino)-", "Butyric acid, 2-acetamido-", "2-(Acetylamino)butanoic acid", "N-Acetyl-\u03b1-aminobutyric acid", "2-Acetamidobutyric acid", "N-Acetyl-DL-\u03b1-aminobutyric acid", "N-Acetyl-2-ethylglycine", "NSC 205007", "N-Acetyl-DL-2-aminobutyric acid", "2-Acetamidobutanoic acid"], "SMILES": "C(NC(C)=O)(C(O)=O)CC", "physical_data": {"Molecular Weight": "145.16", "Molecular Formula": "C6H11NO3", "Melting Point": "178-180 \u00b0C"}}