{"cas_no": "34281-92-0", "cn_name": "(1S,2R)-\u53cd-2-\u82ef\u57fa-1-\u73af\u5df1\u9187", "en_name": ["(+)-trans-2-Phenylcyclohexanol", "Cyclohexanol, 2-phenyl-, (1S,2R)-", "Cyclohexanol, 2-phenyl-, (1S-trans)-", "Cyclohexanol, 2-phenyl-, (1S,2R)-(+)-", "(1S,2R)-2-Phenylcyclohexanol", "(+)-trans-2-Phenyl-1-cyclohexanol", "(1S,2R)-2-Phenyl-1-cyclohexanol", "(1S-trans)-2-Phenylcyclohexanol", "(+)-trans-2-Phenylcyclohexanol", "trans-(1S,2R)-2-Phenylcyclohexanol", "(1S,2R)-(+)-trans-2-Phenyl-1-cyclohexanol"], "SMILES": "OC1C(C2=CC=CC=C2)CCCC1", "physical_data": {"Molecular Weight": "176.25", "Molecular Formula": "C12H16O", "Boiling Point": "141-143 \u00b0C @ Press: 3 Torr", "Melting Point": "63.5-64.5 \u00b0C"}}