{"cas_no": "34289-60-6", "cn_name": "4,6-\u4e8c\u7532\u57fa-2-\u7f9f\u57fa\u5627\u5576\u76d0\u9178\u76d0", "en_name": ["2-Hydroxy-4,6-dimethylpyrimidine hydrochloride", "2(1H)-Pyrimidinone, 4,6-dimethyl-, hydrochloride (1:1)", "2(1H)-Pyrimidinone, 4,6-dimethyl-, monohydrochloride", "2-Pyrimidinol, 4,6-dimethyl-, hydrochloride", "2-Hydroxy-4,6-dimethylpyrimidine hydrochloride", "4,6-Dimethyl-2(1H)-pyrimidinone hydrochloride", "4,6-Dimethylpyrimidin-2-ol hydrochloride"], "SMILES": "CC1=CC(C)=NC(=O)N1.Cl", "physical_data": {"Molecular Weight": "", "Molecular Formula": "C6H8N2O.ClH", "Melting Point": "280 \u00b0C (decomp)"}}