{"cas_no": "3428-24-8", "cn_name": "4,5-\u4e8c\u6c2f\u90bb\u82ef\u4e8c\u915a", "en_name": ["4,5-Dichlorocatechol", "1,2-Benzenediol, 4,5-dichloro-", "Pyrocatechol, 4,5-dichloro-", "4,5-Dichloro-1,2-benzenediol", "4,5-Dichlorocatechol", "4,5-Dichloropyrocatechol", "4,5-Dichloro-1,2-dihydroxybenzene"], "SMILES": "ClC1=C(Cl)C=C(O)C(O)=C1", "physical_data": {"Molecular Weight": "179.00", "Molecular Formula": "C6H4Cl2O2", "Melting Point": "116-117 \u00b0C"}}