{"cas_no": "34298-86-7", "cn_name": "\u5927\u9ec4\u9178-8-\u8461\u7cd6\u82f7", "en_name": ["Rhein 8-O-\u03b2-D-glucopyranoside", "2-Anthracenecarboxylic acid, 5-(\u03b2-D-glucopyranosyloxy)-9,10-dihydro-4-hydroxy-9,10-dioxo-", "Glucorhein", "2-Anthroic acid, 5-(\u03b2-D-glucopyranosyloxy)-9,10-dihydro-4-hydroxy-9,10-dioxo-", "5-(\u03b2-D-Glucopyranosyloxy)-9,10-dihydro-4-hydroxy-9,10-dioxo-2-anthracenecarboxylic acid", "Glucorein", "Rhein-8-glucoside", "8-Glucosylrhein", "8-Glucosidorhein-9-anthrone", "Rhein 8-O-glucoside", "Rhein 8-O-\u03b2-D-glucopyranoside"], "SMILES": "O(C1=C2C(C(=O)C=3C(C2=O)=C(O)C=C(C(O)=O)C3)=CC=C1)C4OC(CO)C(O)C(O)C4O", "physical_data": {"Molecular Weight": "446.36", "Molecular Formula": "C21H18O11", "Melting Point": "266-270 \u00b0C"}}