{"cas_no": "343-90-8", "cn_name": "5-\u6c1f\u82a6\u7af9\u78b1", "en_name": ["5-Fluoro-N,N-dimethyl-1H-indole-3-methanamine", "1H-Indole-3-methanamine, 5-fluoro-N,N-dimethyl-", "Indole, 3-[(dimethylamino)methyl]-5-fluoro-", "5-Fluoro-N,N-dimethyl-1H-indole-3-methanamine", "5-Fluorogramine", "NSC 88621", "5-Fluoro-3-(dimethylaminomethyl)indole", "1-(5-Fluoro-1H-indol-3-yl)-N,N-dimethylmethanamine", "[(5-Fluoro-1H-indol-3-yl)methyl]dimethylamine", "3-Dimethylaminomethyl-5-fluoroindole"], "SMILES": "C(N(C)C)C=1C=2C(NC1)=CC=C(F)C2", "physical_data": {"Molecular Weight": "192.23", "Molecular Formula": "C11H13FN2", "Melting Point": "139-141 \u00b0C"}}