{"cas_no": "343-94-2", "cn_name": "\u8272\u6c28", "en_name": ["Tryptamine hydrochloride", "1H-Indole-3-ethanamine, hydrochloride (1:1)", "Indole, 3-(2-aminoethyl)-, monohydrochloride", "1H-Indole-3-ethanamine, monohydrochloride", "Tryptamine hydrochloride", "Tryptamine monohydrochloride", "3-(2-Aminoethyl)-1H-indole monohydrochloride", "3-(2-Aminoethyl)indole hydrochloride", "2-(3-Indolyl)ethylamine hydrochloride", "2-(1H-Indol-3-yl)ethan-1-amine hydrochloride"], "SMILES": "C(CN)C=1C=2C(NC1)=CC=CC2.Cl", "physical_data": {"Molecular Weight": "", "Molecular Formula": "C10H12N2.ClH", "Melting Point": "246 \u00b0C"}}