{"cas_no": "343-27-1", "cn_name": "\u54c8\u5c14\u78b1\u76d0\u9178\u76d0(\u6c34\u5408)", "en_name": ["Harmine hydrochloride", "9H-Pyrido[3,4-b]indole, 7-methoxy-1-methyl-, hydrochloride (1:1)", "9H-Pyrido[3,4-b]indole, 7-methoxy-1-methyl-, monohydrochloride", "Harmine monohydrochloride", "7-Methoxy-1-methyl-9H-pyrido[3,4-b]indole monohydrochloride", "Harmine hydrochloride"], "SMILES": "CC1=C2C(C=3C(N2)=CC(OC)=CC3)=CC=N1.Cl", "physical_data": {"Molecular Weight": "", "Molecular Formula": "C13H12N2O.ClH", "Melting Point": "272-275 \u00b0C (decomp)"}}