{"cas_no": "343-65-7", "cn_name": "\u72ac\u5c3f\u7d20", "en_name": ["Kynurenine", "Benzenebutanoic acid, \u03b1,2-diamino-\u03b3-oxo-", "Alanine, 3-anthraniloyl-", "\u03b1,2-Diamino-\u03b3-oxobenzenebutanoic acid", "3-Anthraniloylalanine", "Kynurenine", "Kynurenin", "DL-Kynurenine", "(\u00b1)-Kynurenine", "dl-Kynurenine", "3-Anthraniloyl-DL-alanine", "2-Amino-4-(2-aminophenyl)-4-oxobutanoicacid", "MeSH ID: D007737"], "SMILES": "C(CC(C(O)=O)N)(=O)C1=C(N)C=CC=C1", "physical_data": {"Molecular Weight": "208.21", "Molecular Formula": "C10H12N2O3", "Melting Point": "191 \u00b0C (decomp)"}}