{"cas_no": "3430-23-7", "cn_name": "3,5-\u4e8c\u6eb4-4-\u7532\u57fa\u5421\u5576", "en_name": ["3,5-Dibromo-4-methylpyridine", "Pyridine, 3,5-dibromo-4-methyl-", "4-Picoline, 3,5-dibromo-", "3,5-Dibromo-4-methylpyridine"], "SMILES": "CC=1C(Br)=CN=CC1Br", "physical_data": {"Molecular Weight": "250.92", "Molecular Formula": "C6H5Br2N", "Melting Point": "104-107 \u00b0C"}}