{"cas_no": "3430-16-8", "cn_name": "3-\u6eb4-5-\u7532\u57fa\u5421\u5576", "en_name": ["3-Bromo-5-methylpyridine", "Pyridine, 3-bromo-5-methyl-", "3-Picoline, 5-bromo-", "3-Bromo-5-methylpyridine", "5-Bromo-3-methylpyridine", "5-Bromo-3-picoline"], "SMILES": "BrC=1C=C(C)C=NC1", "physical_data": {"Molecular Weight": "172.02", "Molecular Formula": "C6H6BrN", "Melting Point": "16.5-16.7 \u00b0C"}}