{"cas_no": "3430-27-1", "cn_name": "3-\u6c28\u57fa-4-\u7532\u57fa\u5421\u5576", "en_name": ["3-Amino-4-methylpyridine", "3-Pyridinamine, 4-methyl-", "4-Picoline, 3-amino-", "4-Methyl-3-pyridinamine", "3-Amino-4-methylpyridine", "3-Amino-4-picoline", "3-Amino-\u03b3-picoline", "Ampic", "4-Methylpyridin-3-ylamine", "4-Methylpyridin-3-amine"], "SMILES": "CC=1C(N)=CN=CC1", "physical_data": {"Molecular Weight": "108.14", "Molecular Formula": "C6H8N2", "Melting Point": "104-105 \u00b0C"}}