{"cas_no": "3430-19-1", "cn_name": "3-\u6c28\u57fa-5-\u7532\u57fa\u5421\u5576", "en_name": ["5-Methyl-3-pyridinamine", "3-Pyridinamine, 5-methyl-", "3-Picoline, 5-amino-", "5-Methyl-3-pyridinamine", "3-Amino-5-methylpyridine", "(5-Methylpyridin-3-yl)amine", "5-Methyl-3-aminopyridine", "5-Methylpyridin-3-amine"], "SMILES": "CC=1C=C(N)C=NC1", "physical_data": {"Molecular Weight": "108.14", "Molecular Formula": "C6H8N2", "Boiling Point": "153 \u00b0C @ Press: 21 Torr", "Melting Point": "57-59 \u00b0C"}}