{"cas_no": "3430-33-9", "cn_name": "3-\u6c28\u57fa-2,6-\u4e8c\u7532\u57fa\u5421\u5576", "en_name": ["2,6-Dimethyl-3-pyridinamine", "3-Pyridinamine, 2,6-dimethyl-", "2,6-Lutidine, 3-amino-", "2,6-Dimethyl-3-pyridinamine", "3-Amino-2,6-dimethylpyridine", "3-Amino-2,6-lutidine", "2,6-Dimethyl-3-aminopyridine", "NSC 100152"], "SMILES": "CC1=C(N)C=CC(C)=N1", "physical_data": {"Molecular Weight": "122.17", "Molecular Formula": "C7H10N2", "Boiling Point": "228-235 \u00b0C", "Melting Point": "122 \u00b0C"}}