{"cas_no": "3430-15-7", "cn_name": "2,3,5\u4e09\u6eb4-6-\u7532\u57fa\u5421\u5576", "en_name": ["2,3,5-Tribromo-6-methylpyridine", "Pyridine, 2,3,5-tribromo-6-methyl-", "2-Picoline, 3,5,6-tribromo-", "2,3,5-Tribromo-6-methylpyridine", "3,5,6-Tribromo-2-picoline", "2,3,5-Tribromo-6-picoline"], "SMILES": "BrC1=C(Br)N=C(C)C(Br)=C1", "physical_data": {"Molecular Weight": "329.81", "Molecular Formula": "C6H4Br3N", "Melting Point": "76-77 \u00b0C"}}