{"cas_no": "3430-26-0", "cn_name": "2,5-\u4e8c\u6eb4-4-\u7532\u57fa\u5421\u5576", "en_name": ["2,5-Dibromo-4-methylpyridine", "Pyridine, 2,5-dibromo-4-methyl-", "4-Picoline, 2,5-dibromo-", "2,5-Dibromo-4-methylpyridine", "2,5-Dibromo-4-picoline"], "SMILES": "CC=1C(Br)=CN=C(Br)C1", "physical_data": {"Molecular Weight": "250.92", "Molecular Formula": "C6H5Br2N", "Melting Point": "37-38 \u00b0C"}}