{"cas_no": "3430-25-9", "cn_name": "2,3,5-\u4e09\u6eb4-4-\u7532\u57fa\u5421\u5576", "en_name": ["Pyridine, 2,3,5-tribromo-4-methyl-", "Pyridine, 2,3,5-tribromo-4-methyl-", "4-Picoline, 2,3,5-tribromo-", "2,3,5-Tribromo-4-methylpyridine"], "SMILES": "BrC=1C(C)=C(Br)C=NC1Br", "physical_data": {"Molecular Weight": "329.81", "Molecular Formula": "C6H4Br3N", "Melting Point": "56-57 \u00b0C"}}