{"cas_no": "3430-17-9", "cn_name": "2-\u6eb4-3-\u7532\u57fa\u5421\u5576", "en_name": ["2-Bromo-3-methylpyridine", "Pyridine, 2-bromo-3-methyl-", "3-Picoline, 2-bromo-", "2-Bromo-3-methylpyridine", "3-Methyl-2-bromopyridine", "2-Bromo-3-picoline", "NSC 245462", "NSC 4244"], "SMILES": "CC1=C(Br)N=CC=C1", "physical_data": {"Molecular Weight": "172.02", "Molecular Formula": "C6H6BrN", "Boiling Point": "218-219 \u00b0C", "Density": "1.536 g/cm\u00b3 @ Temp: 20 \u00b0C"}}