{"cas_no": "3430-13-5", "cn_name": "5-\u6eb4-2-\u7532\u57fa\u5421\u5576", "en_name": ["5-Bromo-2-methylpyridine", "Pyridine, 5-bromo-2-methyl-", "2-Picoline, 5-bromo-", "5-Bromo-2-methylpyridine", "5-Bromo-2-picoline", "3-Bromo-6-methylpyridine", "2-Methyl-5-bromopyridine"], "SMILES": "BrC=1C=CC(C)=NC1", "physical_data": {"Molecular Weight": "172.02", "Molecular Formula": "C6H6BrN", "Melting Point": "32 \u00b0C"}}