{"cas_no": "3430-14-6", "cn_name": "5-\u6c28\u57fa-2-\u7532\u57fa\u5421\u5576", "en_name": ["5-Amino-2-methylpyridine", "3-Pyridinamine, 6-methyl-", "2-Picoline, 5-amino-", "6-Methyl-3-pyridinamine", "5-Amino-2-picoline", "3-Amino-6-methylpyridine", "5-Amino-2-methylpyridine", "6-Methylpyridin-3-ylamine", "NSC 52872", "2-Methyl-5-aminopyridine", "6-Methylpyridine-3-amine"], "SMILES": "NC=1C=CC(C)=NC1", "physical_data": {"Molecular Weight": "108.14", "Molecular Formula": "C6H8N2", "Melting Point": "95-96 \u00b0C"}}