{"cas_no": "3430-18-0", "cn_name": "2,5-\u4e8c\u6eb4-3-\u7532\u57fa\u5421\u5576", "en_name": ["2,5-Dibromo-3-methylpyridine", "Pyridine, 2,5-dibromo-3-methyl-", "3-Picoline, 2,5-dibromo-", "2,5-Dibromo-3-methylpyridine", "2,5-Dibromo-3-picoline"], "SMILES": "CC1=C(Br)N=CC(Br)=C1", "physical_data": {"Molecular Weight": "250.92", "Molecular Formula": "C6H5Br2N", "Melting Point": "41-42 \u00b0C"}}