{"cas_no": "3430-34-0", "cn_name": "2,6-\u4e8c\u7532\u57fa-3,5-\u4e8c\u6eb4\u5421\u5576", "en_name": ["3,5-Dibromo-2,6-dimethylpyridine", "Pyridine, 3,5-dibromo-2,6-dimethyl-", "2,6-Lutidine, 3,5-dibromo-", "3,5-Dibromo-2,6-dimethylpyridine", "3,5-Dibromo-2,6-lutidine"], "SMILES": "BrC1=C(C)N=C(C)C(Br)=C1", "physical_data": {"Molecular Weight": "264.95", "Molecular Formula": "C7H7Br2N", "Melting Point": "46-57 \u00b0C"}}