{"cas_no": "3430-21-5", "cn_name": "2-\u6c28\u57fa-3-\u7532\u57fa-5-\u6eb4\u5421\u5576", "en_name": ["2-Amino-5-bromo-3-methylpyridine", "2-Pyridinamine, 5-bromo-3-methyl-", "3-Picoline, 2-amino-5-bromo-", "5-Bromo-3-methyl-2-pyridinamine", "2-Amino-5-bromo-3-methylpyridine", "2-Amino-3-methyl-5-bromopyridine", "5-Bromo-3-methylpyridin-2-ylamine", "5-Bromo-3-methyl-2-aminopyridine", "2-Amino-5-bromo-3-picoline", "5-Bromo-3-methylpyridin-2-amine"], "SMILES": "CC1=C(N)N=CC(Br)=C1", "physical_data": {"Molecular Weight": "187.04", "Molecular Formula": "C6H7BrN2", "Melting Point": "90-92 \u00b0C"}}