{"cas_no": "3430-22-6", "cn_name": "4-\u7532\u57fa-3-\u6eb4\u5421\u5576", "en_name": ["3-Bromo-4-methylpyridine", "Pyridine, 3-bromo-4-methyl-", "4-Picoline, 3-bromo-", "3-Bromo-4-methylpyridine", "3-Bromo-4-picoline", "4-Methyl-3-bromopyridine"], "SMILES": "BrC=1C(C)=CC=NC1", "physical_data": {"Molecular Weight": "172.02", "Molecular Formula": "C6H6BrN", "Boiling Point": "47-48 \u00b0C @ Press: 0.6 Torr"}}