{"cas_no": "34316-64-8", "cn_name": "\u6708\u6842\u9178\u5df1\u916f", "en_name": ["Hexyl laurate", "Dodecanoic acid, hexyl ester", "Lauric acid, hexyl ester", "Hexyl laurate", "n-Hexyl laurate", "Cetiol A", "Standamul CTA", "Hexyl dodecanoate", "Crodamol HL-R", "KAK-HL", "Exceparl HL", "SR Crodamol HL", "SR Crodamol HL-LQ"], "SMILES": "C(CCCCCCCCCCC)(OCCCCCC)=O", "physical_data": {"Molecular Weight": "284.48", "Molecular Formula": "C18H36O2", "Boiling Point": "134 \u00b0C @ Press: 5 Torr", "Melting Point": "-3.4 \u00b0C"}}