{"cas_no": "34316-15-9", "cn_name": "\u767d\u5c48\u83dc\u7ea2\u78b1", "en_name": ["Chelerythrine", "[1,3]Benzodioxolo[5,6-c]phenanthridinium, 1,2-dimethoxy-12-methyl-", "Chelerythrine", "1,2-Dimethoxy-12-methyl[1,3]benzodioxolo[5,6-c]phenanthridinium", "Cheleritrine", "Toddalin", "Toddaline", "Broussonpapyrine"], "SMILES": "C[N+]=1C=2C(C=3C(C1)=C(OC)C(OC)=CC3)=CC=C4C2C=C5C(=C4)OCO5", "physical_data": {"Molecular Weight": "", "Molecular Formula": "C21H18NO4", "Melting Point": "199 \u00b0C"}}