{"cas_no": "34328-61-5", "cn_name": "3-\u6c2f-4-\u6c1f\u82ef\u7532\u919b", "en_name": ["3-Chloro-4-fluorobenzaldehyde", "Benzaldehyde, 3-chloro-4-fluoro-", "3-Chloro-4-fluorobenzaldehyde", "4-Fluoro-3-chlorobenzaldehyde"], "SMILES": "C(=O)C1=CC(Cl)=C(F)C=C1", "physical_data": {"Molecular Weight": "158.56", "Molecular Formula": "C7H4ClFO", "Melting Point": "83-85 \u00b0C"}}