{"cas_no": "3433-80-5", "cn_name": "2-\u6eb4\u6eb4\u82c4", "en_name": ["2-Bromobenzyl bromide", "Benzene, 1-bromo-2-(bromomethyl)-", "Toluene, o,\u03b1-dibromo-", "1-Bromo-2-(bromomethyl)benzene", "2-Bromobenzyl bromide", "o-Bromobenzyl bromide", "\u03b1,o-Dibromotoluene", "o-(Bromomethyl)bromobenzene", "2-(Bromomethyl)bromobenzene", "1-Bromomethyl-2-bromobenzene"], "SMILES": "C(Br)C1=C(Br)C=CC=C1", "physical_data": {"Molecular Weight": "249.93", "Molecular Formula": "C7H6Br2", "Boiling Point": "124-128 \u00b0C @ Press: 17 Torr", "Melting Point": "31 \u00b0C"}}