{"cas_no": "34334-69-5", "cn_name": "\u6761\u53f6\u84df\u7d20", "en_name": ["Cirsiliol", "4H-1-Benzopyran-4-one, 2-(3,4-dihydroxyphenyl)-5-hydroxy-6,7-dimethoxy-", "Flavone, 3\u2032,4\u2032,5-trihydroxy-6,7-dimethoxy-", "2-(3,4-Dihydroxyphenyl)-5-hydroxy-6,7-dimethoxy-4H-1-benzopyran-4-one", "6-Methoxyluteolin 7-methyl ether", "Cirsiliol", "5,3\u2032,4\u2032-Trihydroxy-6,7-dimethoxyflavone", "6,7-Dimethoxy-5,3\u2032,4\u2032-trihydroxyflavone", "6-Hydroxyluteolin-6,7-dimethyl ether", "Crisiliol", "3\u2032,4\u2032,5-Trihydroxy-6,7-dimethoxyflavone", "SML 0953", "2-(3,4-Dihydroxyphenyl)-5-hydroxy-6,7-dimethoxychromen-4-one"], "SMILES": "OC1=C2C(OC(=CC2=O)C3=CC(O)=C(O)C=C3)=CC(OC)=C1OC", "physical_data": {"Molecular Weight": "330.29", "Molecular Formula": "C17H14O7", "Melting Point": "280-281.5 \u00b0C"}}