{"cas_no": "3433-37-2", "cn_name": "2-\u54cc\u5576\u7532\u9187", "en_name": ["2-Piperidinemethanol", "2-Piperidinemethanol", "2-Hydroxymethylpiperidine", "2-Piperidinylmethanol", "(\u00b1)-2-Piperidinemethanol"], "SMILES": "C(O)C1CCCCN1", "physical_data": {"Molecular Weight": "115.17", "Molecular Formula": "C6H13NO", "Boiling Point": "80-83 \u00b0C @ Press: 1 Torr", "Melting Point": "69 \u00b0C"}}