{"cas_no": "3434-88-6", "cn_name": "\u96cc\u4e8c\u9187\u4e8c\u4e59\u9178\u916f", "en_name": ["Estradiol, diacetate", "Estra-1,3,5(10)-triene-3,17-diol (17\u03b2)-, 3,17-diacetate", "Estradiol, diacetate", "Estra-1,3,5(10)-triene-3,17-diol (17\u03b2)-, diacetate", "\u03b2-Estradiol diacetate", "Estradiol-3,17\u03b2-diacetate", "3,17\u03b2-Diacetoxyestra-1,3,5(10)-triene", "Estradiol-3,17-diacetate", "17\u03b2-Estradiol diacetate", "Estra-1,3,5(10)-triene-3,17\u03b2-diol diacetate", "NSC 106559"], "SMILES": "CC12C(C3C(C=4C(CC3)=CC(OC(C)=O)=CC4)CC1)CCC2OC(C)=O", "physical_data": {"Molecular Weight": "356.46", "Molecular Formula": "C22H28O4", "Melting Point": "127-129 \u00b0C"}}