{"cas_no": "34346-01-5", "cn_name": "\u805a(\u4e73\u9178-\u7f9f\u57fa\u4e59\u9178)", "en_name": ["Poly(lactic-co-glycolic acid)", "Propanoic acid, 2-hydroxy-, polymer with 2-hydroxyacetic acid", "Propanoic acid, 2-hydroxy-, polymer with hydroxyacetic acid", "Acetic acid, hydroxy-, polymer with 2-hydroxypropanoic acid", "Glycolic acid-lactic acid polymer", "Glycolic acid-lactic acid copolymer", "Lactic acid-glycolic acid copolymer", "Lactic acid-glycolic acid polymer", "Poly(glycolic acid-lactic acid)", "Hydroxyacetic acid-lactic acid copolymer", "Poly(lactic acid-glycolic acid)", "Resomer RG 858", "Resolut LT", "Resolut ST", "Hydroxyacetic acid-(\u00b1)-2-hydroxypropanoic acid copolymer", "(\u00b1)-2-Hydroxypropanoic acid-hydroxyacetic acid copolymer", "dl-Lactic acid-glycolic acid polymer", "DL-Lactic acid-glycolic acid copolymer", "Glycolic acid-DL-lactic acid copolymer", "Poly(glycolic acid-co-DL-lactic acid)", "Poly(DL-lactic acid-glycolic acid)", "Hydroxyacetic acid-2-hydroxypropionic acid copolymer", "PLGA 5010", "Resolut", "PLGA 5020", "Alzamer Depot", "GC-Membrane", "PLGA 75-65", "PLGA 7520", "PLGA 7510", "Lactel BP 400", "PLGA 5-1", "Lactic acid-hydroxyacetic acid copolymer", "LG 80", "85DG065", "B 6006-1P", "Poly(lactic-co-glycolic acid)", "PLGA 5005", "PLGA 5015", "Resomer RG 756S", "PLGA", "Purasorb PLG 8531", "Polylactoglycolidic acid", "Purasorb PDLG 5002A", "Poly(DL-lactic-co-glycolic acid)", "Resomer LG 824S", "Medisorb 5050DL1A", "Poly(DL-lactic acid-co-glycolic acid)", "Poly(lactic acid-co-glycolic acid)", "PLGA 5-50", "2-Hydroxyacetic acid-lactic acid copolymer", "Resomer 753S", "Purasorb PDLG 5002", "Poly(d,l-lactic-co-glycolic acid)", "PLGA 7525", "Resomer LG 855S", "P 134386-1G", "Poly(lactic acid-hydroxyacetic acid) copolymer", "Polylactic acid-glycolic acid copolymer", "Glycolic acid-lactid acid copolymer", "M 700 (polyester)", "PLGA 7525-5A", "PLGA 7525-4A", "LG 855S", "Expansorb DLG 50-2A", "PLGA 7505", "PLGA 7515"], "SMILES": "C(C(O)=O)(C)O.C(CO)(O)=O", "physical_data": {"Molecular Weight": "", "Molecular Formula": "(C3H6O3.C2H4O3)x", "Melting Point": "&gt;100 \u00b0C"}}