{"cas_no": "34352-74-4", "cn_name": "2-(4-\u8054\u82ef\u57fa)-2-\u4e19\u9187", "en_name": ["\u03b1,\u03b1-Dimethyl[1,1\u2032-biphenyl]-4-methanol", "[1,1\u2032-Biphenyl]-4-methanol, \u03b1,\u03b1-dimethyl-", "4-Biphenylmethanol, \u03b1,\u03b1-dimethyl-", "\u03b1,\u03b1-Dimethyl[1,1\u2032-biphenyl]-4-methanol", "2-(4-Biphenylyl)-2-propanol", "2-p-Biphenylyl-2-propanol", "4-(1-Hydroxy-1-methylethyl)biphenyl", "2-(1,1\u2032-Biphenyl-4-yl)-2-propanol", "2-(4-Phenylphenyl)propan-2-ol"], "SMILES": "C(C)(C)(O)C1=CC=C(C=C1)C2=CC=CC=C2", "physical_data": {"Molecular Weight": "212.29", "Molecular Formula": "C15H16O", "Boiling Point": "122-124 \u00b0C @ Press: 3 Torr", "Melting Point": "92-93 \u00b0C"}}