{"cas_no": "3435-28-7", "cn_name": "4-\u6c28\u57fa-6-\u7532\u57fa\u5627\u5576", "en_name": ["4-Amino-6-methylpyrimidine", "4-Pyrimidinamine, 6-methyl-", "Pyrimidine, 4-amino-6-methyl-", "6-Methyl-4-pyrimidinamine", "4-Amino-6-methylpyrimidine", "(6-Methylpyrimidin-4-yl)amine"], "SMILES": "CC=1C=C(N)N=CN1", "physical_data": {"Molecular Weight": "109.13", "Molecular Formula": "C5H7N3", "Melting Point": "197 \u00b0C"}}