{"cas_no": "3435-25-4", "cn_name": "4-\u6c2f-6-\u7532\u57fa\u5627\u5576", "en_name": ["4-Chloro-6-methylpyrimidine", "Pyrimidine, 4-chloro-6-methyl-", "4-Chloro-6-methylpyrimidine", "6-Chloro-4-methylpyrimidine"], "SMILES": "CC=1C=C(Cl)N=CN1", "physical_data": {"Molecular Weight": "128.56", "Molecular Formula": "C5H5ClN2", "Boiling Point": "59-62 \u00b0C @ Press: 22 Torr", "Melting Point": "37 \u00b0C"}}