{"cas_no": "3435-51-6", "cn_name": "4-\u6c30\u57fa\u82ef\u4e59\u70ef", "en_name": ["4-Ethenylbenzonitrile", "Benzonitrile, 4-ethenyl-", "Benzonitrile, p-vinyl-", "4-Ethenylbenzonitrile", "p-Vinylbenzonitrile", "p-Cyanostyrene", "4-Cyanostyrene", "4-Vinylbenzonitrile", "4-Nitrilestyrene"], "SMILES": "C(=C)C1=CC=C(C#N)C=C1", "physical_data": {"Molecular Weight": "129.16", "Molecular Formula": "C9H7N", "Boiling Point": "102-104 \u00b0C @ Press: 9 Torr"}}