{"cas_no": "3435-27-6", "cn_name": "6-\u53d4\u4e01\u57fa\u5627\u5576-4-\u80fa", "en_name": ["6-(1,1-Dimethylethyl)-4-pyrimidinamine", "4-Pyrimidinamine, 6-(1,1-dimethylethyl)-", "Pyrimidine, 4-amino-6-tert-butyl-", "6-(1,1-Dimethylethyl)-4-pyrimidinamine"], "SMILES": "C(C)(C)(C)C=1C=C(N)N=CN1", "physical_data": {"Molecular Weight": "151.21", "Molecular Formula": "C8H13N3", "Melting Point": "170-171 \u00b0C"}}