{"cas_no": "34368-52-0", "cn_name": "(S)-3-\u7f9f\u57fa-2-\u5421\u54af\u70f7\u916e", "en_name": ["(3S)-3-Hydroxy-2-pyrrolidinone", "2-Pyrrolidinone, 3-hydroxy-, (3S)-", "2-Pyrrolidinone, 3-hydroxy-, (S)-(-)-", "2-Pyrrolidinone, 3-hydroxy-, (S)-", "(3S)-3-Hydroxy-2-pyrrolidinone", "(S)-3-Hydroxy-2-pyrrolidone", "(S)-3-Hydroxy-2-pyrrolidinone", "(S)-3-Hydroxybutyrolactam", "(S)-(-)-3-Hydroxypyrrolidin-2-one", "(-)-3-Hydroxypyrrolidin-2-one", "3-(S)-Hydroxypyrrolidin-2-one", "(3S)-3-Hydroxypyrrolidin-2-one", "(3S)-3-Hydroxy-2-pyrrolidinone", "2-Pyrrolidinone 3-hydroxy-, (3S)-"], "SMILES": "OC1C(=O)NCC1", "physical_data": {"Molecular Weight": "101.10", "Molecular Formula": "C4H7NO2", "Melting Point": "100-102 \u00b0C"}}