{"cas_no": "34377-38-3", "cn_name": "\u6c34\u6768\u9178\u5f02\u620a\u916f", "en_name": ["Isoamyl salicylate", "Benzoic acid, 2-hydroxy-, 3-methylbutyl ester", "Salicylic acid, isopentyl ester", "Isopentyl alcohol, salicylate", "Isoamyl o-hydroxybenzoate", "Isopentyl salicylate", "Isoamyl salicylate", "3-Methylbutyl salicylate", "NSC 7952", "Isoamyl 2-hydroxybenzoate", "3-Methylbutyl 2-hydroxybenzoate", "Isopentyl 2-hydroxybenzoate"], "SMILES": "C(OCCC(C)C)(=O)C1=C(O)C=CC=C1", "physical_data": {"Molecular Weight": "208.25", "Molecular Formula": "C12H16O3", "Boiling Point": "278 \u00b0C"}}