{"cas_no": "3437-30-7", "cn_name": "3,3-\u4e8c\u7532\u57fa\u5421\u54af\u76d0\u9178\u76d0", "en_name": ["3,3-Dimethylpyrrolidine", "Pyrrolidine, 3,3-dimethyl-", "3,3-Dimethylpyrrolidine"], "SMILES": "CC1(C)CCNC1", "physical_data": {"Molecular Weight": "99.17", "Molecular Formula": "C6H13N", "Boiling Point": "81 \u00b0C @ Press: 13 Torr", "Density": "0.8422 g/cm\u00b3 @ Temp: 20 \u00b0C"}}