{"cas_no": "3437-95-4", "cn_name": "2-\u7898\u567b\u5429", "en_name": ["2-Iodothiophene", "Thiophene, 2-iodo-", "2-Iodothiophene", "2-Thienyl iodide", "\u03b1-Iodothiophene", "NSC 1082"], "SMILES": "IC1=CC=CS1", "physical_data": {"Molecular Weight": "210.04", "Molecular Formula": "C4H3IS", "Boiling Point": "181 \u00b0C", "Melting Point": "-40 \u00b0C"}}