{"cas_no": "3438-16-2", "cn_name": "5-\u6c2f-2-\u7532\u6c27\u57fa\u82ef\u7532\u9178", "en_name": ["5-Chloro-2-methoxybenzoic acid", "Benzoic acid, 5-chloro-2-methoxy-", "o-Anisic acid, 5-chloro-", "5-Chloro-2-methoxybenzoic acid", "2-Methoxy-5-chlorobenzoic acid", "5-Chloro-o-anisic acid"], "SMILES": "C(O)(=O)C1=C(OC)C=CC(Cl)=C1", "physical_data": {"Molecular Weight": "186.59", "Molecular Formula": "C8H7ClO3", "Melting Point": "82 \u00b0C"}}