{"cas_no": "3438-48-0", "cn_name": "4-\u82ef\u57fa\u5627\u5576", "en_name": ["4-Phenylpyrimidine", "Pyrimidine, 4-phenyl-", "4-Phenylpyrimidine", "6-Phenylpyrimidine", "NSC 84249"], "SMILES": "C1(=CC=CC=C1)C=2C=CN=CN2", "physical_data": {"Molecular Weight": "156.18", "Molecular Formula": "C10H8N2", "Boiling Point": "117 \u00b0C @ Press: 4 Torr", "Melting Point": "54-58 \u00b0C"}}