{"cas_no": "34381-71-0", "cn_name": "N-\u7532\u57fa-L-\u812f\u6c28\u9187", "en_name": ["(2S)-1-Methyl-2-pyrrolidinemethanol", "2-Pyrrolidinemethanol, 1-methyl-, (2S)-", "2-Pyrrolidinemethanol, 1-methyl-, (S)-", "(2S)-1-Methyl-2-pyrrolidinemethanol", "L-(-)-N-Methyl-2-pyrrolidinylmethanol", "L-N-Methylprolinol", "(S)-(-)-1-Methylpyrrolidine-2-methanol", "(S)-1-Methyl-2-pyrrolidinemethanol", "(S)-N-Methylpyrrolidine-2-methanol", "(S)-2-(Hydroxymethyl)-1-methylpyrrolidine", "(2S)-1-Methylpyrrolidin-2-ylmethanol", "N-Methyl-L-prolinol", "(-)-(S)-1-Methyl-2-pyrrolidinemethanol", "(S)-(-)-2-Hydroxymethyl-1-methylpyrrolidine", "(S)-(-)-(1-Methyl-2-pyrrolidinyl)methanol", "(2S)-(Hydroxymethyl)-1-methylpyrrolidine", "(S)-1-Methylpyrrolidin-2-ylmethanol", "(2S)-1-Methylpyrrolidine-2-methanol", "((2S)-1-Methylpyrrolidin-2-yl)methanol", "2-Pyrrolidinemethanol 1-methyl-, (2S)-"], "SMILES": "C(O)C1N(C)CCC1", "physical_data": {"Molecular Weight": "115.17", "Molecular Formula": "C6H13NO", "Boiling Point": "64-66 \u00b0C @ Press: 11 Torr", "Density": "0.9743 g/cm\u00b3 @ Temp: 20 \u00b0C"}}