{"cas_no": "34381-68-5", "cn_name": "\u76d0\u9178\u918b\u4e01\u6d1b\u5c14", "en_name": ["Acebutolol hydrochloride", "Butanamide, N-[3-acetyl-4-[2-hydroxy-3-[(1-methylethyl)amino]propoxy]phenyl]-, hydrochloride (1:1)", "Butyranilide, 3\u2032-acetyl-4\u2032-[2-hydroxy-3-(isopropylamino)propoxy]-, monohydrochloride, (\u00b1)-", "Butanamide, N-[3-acetyl-4-[2-hydroxy-3-[(1-methylethyl)amino]propoxy]phenyl]-, monohydrochloride, (\u00b1)-", "Butanamide, N-[3-acetyl-4-[2-hydroxy-3-[(1-methylethyl)amino]propoxy]phenyl]-, monohydrochloride", "M and B 17803A", "DL-1-(2-Acetyl-4-butyramidophenoxy)-2-hydroxy-3-isopropylaminopropane hydrochloride", "M &", "B 17803A", "Acebutolol hydrochloride", "DL-1-(2-Acetyl-4-butyramido)-3-(isopropylamino)propan-2-ol hydrochloride", "Sectral", "Acetobutolol hydrochloride", "(\u00b1)-Acebutolol hydrochloride", "Acetanol", "IL 17803A", "Neptall"], "SMILES": "O(CC(CNC(C)C)O)C1=C(C(C)=O)C=C(NC(CCC)=O)C=C1.Cl", "physical_data": {"Molecular Weight": "", "Molecular Formula": "C18H28N2O4.ClH", "Melting Point": "141-143 \u00b0C"}}