{"cas_no": "3438-52-6", "cn_name": "4-\u7f9f\u57fa-5-\u6eb4-6-\u7532\u57fa\u5627\u5576", "en_name": ["5-Bromo-6-methyl-4(3H)-pyrimidinone", "4(3H)-Pyrimidinone, 5-bromo-6-methyl-", "4-Pyrimidinol, 5-bromo-6-methyl-", "4(1H)-Pyrimidinone, 5-bromo-6-methyl-", "5-Bromo-6-methyl-4(3H)-pyrimidinone"], "SMILES": "BrC1=C(C)NC=NC1=O", "physical_data": {"Molecular Weight": "189.01", "Molecular Formula": "C5H5BrN2O", "Melting Point": "269 \u00b0C"}}