{"cas_no": "3438-46-8", "cn_name": "4-\u7532\u57fa\u5627\u5576", "en_name": ["4-Methylpyrimidine", "Pyrimidine, 4-methyl-", "4-Methylpyrimidine", "4-Methyl-1,3-diazine"], "SMILES": "CC=1C=CN=CN1", "physical_data": {"Molecular Weight": "94.11", "Molecular Formula": "C5H6N2", "Boiling Point": "142 \u00b0C", "Melting Point": "32 \u00b0C"}}