{"cas_no": "3439-38-1", "cn_name": "\u4e59\u57fa\u4e09\u7532\u57fa\u7845\u70f7", "en_name": ["Ethyltrimethylsilane", "Silane, ethyltrimethyl-", "Ethyltrimethylsilane", "Trimethylethylsilane", "Trimethylsilylethane", "NSC 111643"], "SMILES": "[Si](CC)(C)(C)C", "physical_data": {"Molecular Weight": "102.25", "Molecular Formula": "C5H14Si", "Boiling Point": "62.6-63.4 \u00b0C @ Press: 756.4 Torr", "Density": "0.6901 g/cm\u00b3 @ Temp: 15 \u00b0C"}}