{"cas_no": "344-62-7", "cn_name": "2-(\u4e09\u6c1f\u7532\u57fa)\u4e59\u9170\u82ef\u80fa", "en_name": ["N-[2-(Trifluoromethyl)phenyl]acetamide", "Acetamide, N-[2-(trifluoromethyl)phenyl]-", "o-Acetotoluidide, \u03b1,\u03b1,\u03b1-trifluoro-", "N-[2-(Trifluoromethyl)phenyl]acetamide", "2\u2032-(Trifluoromethyl)acetanilide", "\u03b1,\u03b1,\u03b1-Trifluoro-o-acetotoluidide", "NSC 88329", "2-Trifluoromethylacetanilide", "o-Trifluoromethylpropionanilide", "2-Acetamidotrifluoromethylbenzene"], "SMILES": "C(F)(F)(F)C1=C(NC(C)=O)C=CC=C1", "physical_data": {"Molecular Weight": "203.16", "Molecular Formula": "C9H8F3NO", "Melting Point": "96 \u00b0C"}}