{"cas_no": "344-65-0", "cn_name": "2-\u6eb4-5-\u6c2f\u4e09\u6c1f\u7532\u82ef", "en_name": ["1-Bromo-4-chloro-2-(trifluoromethyl)benzene", "Benzene, 1-bromo-4-chloro-2-(trifluoromethyl)-", "Toluene, 2-bromo-5-chloro-\u03b1,\u03b1,\u03b1-trifluoro-", "1-Bromo-4-chloro-2-(trifluoromethyl)benzene", "4-Chloro-2-(trifluoromethyl)bromobenzene", "2-Bromo-5-chlorobenzotrifluoride"], "SMILES": "C(F)(F)(F)C1=C(Br)C=CC(Cl)=C1", "physical_data": {"Molecular Weight": "259.45", "Molecular Formula": "C7H3BrClF3", "Boiling Point": "195-196 \u00b0C @ Press: 740 Torr", "Melting Point": "14.9-16.2 \u00b0C"}}