{"cas_no": "344-72-9", "cn_name": "2-\u6c28\u57fa-4-(\u4e09\u6eb4\u7532\u57fa)-5-\u567b\u5511\u7fa7\u9178\u4e59\u916f", "en_name": ["5-Thiazolecarboxylic acid, 2-amino-4-(trifluoromethyl)-, ethyl ester", "5-Thiazolecarboxylic acid, 2-amino-4-(trifluoromethyl)-, ethyl ester", "NSC 4465", "Ethyl 2-amino-4-(trifluoromethyl)thiazole-5-carboxylate", "2-Amino-4-(trifluoromethyl)-5-(carbethoxy)thiazole", "2-Amino-4-trifluoromethyl-thiazole-5-carboxylic acid ethyl ester"], "SMILES": "C(F)(F)(F)C1=C(C(OCC)=O)SC(N)=N1", "physical_data": {"Molecular Weight": "240.20", "Molecular Formula": "C7H7F3N2O2S", "Melting Point": "168-171 \u00b0C"}}