{"cas_no": "344-04-7", "cn_name": "\u6eb4\u4e94\u6c1f\u82ef", "en_name": ["Bromopentafluorobenzene", "Benzene, 1-bromo-2,3,4,5,6-pentafluoro-", "Benzene, bromopentafluoro-", "1-Bromo-2,3,4,5,6-pentafluorobenzene", "Bromoperfluorobenzene", "Bromopentafluorobenzene", "Pentafluorobromobenzene", "Pentafluorophenyl bromide", "NSC 21630", "1,2,3,4,5-Pentafluoro-6-bromobenzene"], "SMILES": "BrC1=C(F)C(F)=C(F)C(F)=C1F", "physical_data": {"Molecular Weight": "246.96", "Molecular Formula": "C6BrF5", "Boiling Point": "137 \u00b0C", "Melting Point": "-31 \u00b0C", "Density": "1.9503 g/cm\u00b3 @ Temp: 20 \u00b0C"}}