{"cas_no": "344-19-4", "cn_name": "2,6-\u4e8c\u6c2f-4-\u6c1f\u82ef\u80fa", "en_name": ["2,6-Dichloro-4-fluorobenzenamine", "Benzenamine, 2,6-dichloro-4-fluoro-", "Aniline, 2,6-dichloro-4-fluoro-", "2,6-Dichloro-4-fluorobenzenamine", "2,6-Dichloro-4-fluoroaniline", "(2,6-Dichloro-4-fluorophenyl)amine"], "SMILES": "NC1=C(Cl)C=C(F)C=C1Cl", "physical_data": {"Molecular Weight": "180.01", "Molecular Formula": "C6H4Cl2FN", "Melting Point": "33 \u00b0C"}}