{"cas_no": "344-18-3", "cn_name": "2,6-\u4e8c\u6eb4-4-\u6c1f\u82ef\u80fa", "en_name": ["2,6-Dibromo-4-fluoroaniline", "Benzenamine, 2,6-dibromo-4-fluoro-", "Aniline, 2,6-dibromo-4-fluoro-", "2,6-Dibromo-4-fluorobenzenamine", "2,6-Dibromo-4-fluoroaniline", "NSC 51868", "2,6-Dibromo-4-fluoro-phenylamine"], "SMILES": "NC1=C(Br)C=C(F)C=C1Br", "physical_data": {"Molecular Weight": "268.91", "Molecular Formula": "C6H4Br2FN", "Melting Point": "63-64 \u00b0C"}}