{"cas_no": "344-20-7", "cn_name": "2,6-\u4e8c\u6eb4-4-\u6c1f\u82ef\u915a", "en_name": ["2,6-Dibromo-4-fluorophenol", "Phenol, 2,6-dibromo-4-fluoro-", "2,6-Dibromo-4-fluorophenol", "4-Fluoro-2,6-dibromophenol", "NSC 190640"], "SMILES": "OC1=C(Br)C=C(F)C=C1Br", "physical_data": {"Molecular Weight": "269.89", "Molecular Formula": "C6H3Br2FO", "Melting Point": "56 \u00b0C"}}