{"cas_no": "344-80-9", "cn_name": "2-\u6c28\u57fa-5-\u785d\u57fa-2'-\u6c1f\u4e8c\u82ef\u7532\u916e", "en_name": ["(2-Amino-5-nitrophenyl)(2-fluorophenyl)methanone", "Methanone, (2-amino-5-nitrophenyl)(2-fluorophenyl)-", "Benzophenone, 2-amino-2\u2032-fluoro-5-nitro-", "(2-Amino-5-nitrophenyl)(2-fluorophenyl)methanone", "2-Amino-2\u2032-fluoro-5-nitrobenzophenone", "2-Amino-5-nitro-2\u2032-fluorobenzophenone"], "SMILES": "C(=O)(C1=CC(N(=O)=O)=CC=C1N)C2=C(F)C=CC=C2", "physical_data": {"Molecular Weight": "260.22", "Molecular Formula": "C13H9FN2O3", "Melting Point": "161-163 \u00b0C"}}