{"cas_no": "344-07-0", "cn_name": "\u6c2f\u4e94\u6c1f\u82ef", "en_name": ["Chloropentafluorobenzene", "Benzene, 1-chloro-2,3,4,5,6-pentafluoro-", "Benzene, chloropentafluoro-", "1-Chloro-2,3,4,5,6-pentafluorobenzene", "Pentafluorochlorobenzene", "Chloropentafluorobenzene", "Pentafluorophenyl chloride", "Chloroperfluorobenzene", "NSC 96886", "Pentafluoro-1-chlorobenzene"], "SMILES": "ClC1=C(F)C(F)=C(F)C(F)=C1F", "physical_data": {"Molecular Weight": "202.51", "Molecular Formula": "C6ClF5", "Boiling Point": "117.9 \u00b0C", "Melting Point": "-15 \u00b0C", "Density": "1.568 g/cm\u00b3 @ Temp: 25 \u00b0C"}}