{"cas_no": "344-03-6", "cn_name": "1,4-\u4e8c\u6eb4\u56db\u6c1f\u82ef", "en_name": ["1,4-Dibromo-2,3,5,6-tetrafluorobenzene", "Benzene, 1,4-dibromo-2,3,5,6-tetrafluoro-", "Benzene, 1,4-dibromotetrafluoro-", "1,4-Dibromo-2,3,5,6-tetrafluorobenzene", "1,4-Dibromotetrafluorobenzene", "p-Dibromotetrafluorobenzene", "NSC 97061", "1,4-Dibromoperfluorobenzene", "2,3,5,6-Tetrafluoro-1,4-dibromobenzene"], "SMILES": "BrC1=C(F)C(F)=C(Br)C(F)=C1F", "physical_data": {"Molecular Weight": "307.87", "Molecular Formula": "C6Br2F4", "Melting Point": "78-81 \u00b0C"}}