{"cas_no": "344-25-2", "cn_name": "D-\u812f\u6c28\u9178", "en_name": ["D-Proline", "D-Proline", "Proline, D-", "D-(+)-Proline", "(+)-(R)-Proline", "(R)-Proline", "(R)-(+)-Proline", "(R)-Pyrrolidine-2-carboxylic acid", "(R)-2-Carboxypyrrolidine", "(R)-Pyrrolidine-2-carboxylic acid", "(2R)-Pyrrolidine-2-carboxylic acid", "(2R)-Pyrrolidin-1-ium-2-carboxylate"], "SMILES": "C(O)(=O)C1CCCN1", "physical_data": {"Molecular Weight": "115.13", "Molecular Formula": "C5H9NO2", "Melting Point": "202 \u00b0C"}}