{"cas_no": "34403-48-0", "cn_name": "N-\u7532\u57fa-4-\u6c30\u57fa\u82c4\u80fa", "en_name": ["4-[(Methylamino)methyl]benzonitrile", "Benzonitrile, 4-[(methylamino)methyl]-", "p-Tolunitrile, \u03b1-(methylamino)-", "4-[(Methylamino)methyl]benzonitrile", "\u03b1-(Methylamino)-p-toluonitrile", "[(4-Cyanophenyl)methyl]-N-methylamine", "N-Methyl-4-cyanobenzylamine", "4-Cyanophenylmethyl (methyl)amine"], "SMILES": "C(NC)C1=CC=C(C#N)C=C1", "physical_data": {"Molecular Weight": "146.19", "Molecular Formula": "C9H10N2", "Boiling Point": "148-151 \u00b0C @ Press: 14 Torr", "Melting Point": "108-109 \u00b0C"}}