{"cas_no": "34404-36-9", "cn_name": "BOC-LYS(Z)-OSU", "en_name": ["N2-[(1,1-Dimethylethoxy)carbonyl]-N6-[(phenylmethoxy)carbonyl]-L-lysine 2,5-dioxo-1-pyrrolidinyl ester", "L-Lysine, N2-[(1,1-dimethylethoxy)carbonyl]-N6-[(phenylmethoxy)carbonyl]-, 2,5-dioxo-1-pyrrolidinyl ester", "Carbamic acid, [5-[[(1,1-dimethylethoxy)carbonyl]amino]-6-[(2,5-dioxo-1-pyrrolidinyl)oxy]-6-oxohexyl]-, phenylmethyl ester, (S)-", "Succinimide, N-[(N2,N6-dicarboxy-L-lysyl)oxy]-, N6-benzyl tert-butyl ester", "Carbamic acid, [(5S)-5-[[(1,1-dimethylethoxy)carbonyl]amino]-6-[(2,5-dioxo-1-pyrrolidinyl)oxy]-6-oxohexyl]-, phenylmethyl ester", "N2-[(1,1-Dimethylethoxy)carbonyl]-N6-[(phenylmethoxy)carbonyl]-L-lysine 2,5-dioxo-1-pyrrolidinyl ester", "N\u03b1-(tert-Butyloxycarbonyl)-N\u03b5-(benzyloxycarbonyl)-L-lysine N-hydroxysuccinimide ester", "\u03b1-(tert-Butyloxycarbonyl)-\u03b5-(carbobenzoxy)-L-lysine ester with N-hydroxysuccinimide", "tert-Butyloxycarbonyl-benzyloxycarbonyl-L-lysine N-hydroxysuccinimide ester", "(2,5-Dioxopyrrolidin-1-yl) (2S)-2-[(2-methylpropan-2-yl)oxycarbonylamino]-6-(phenylmethoxycarbonylamino)hexanoate"], "SMILES": "O(C(C(NC(OC(C)(C)C)=O)CCCCNC(OCC1=CC=CC=C1)=O)=O)N2C(=O)CCC2=O", "physical_data": {"Molecular Weight": "477.51", "Molecular Formula": "C23H31N3O8", "Melting Point": "110-111 \u00b0C"}}