{"cas_no": "3440-28-6", "cn_name": "N-\u82ef\u7532\u9170\u57fa-beta-\u4e19\u6c28\u9178", "en_name": ["Betamipron", "\u03b2-Alanine, N-benzoyl-", "N-Benzoyl-\u03b2-alanine", "3-Benzamidopropionic acid", "3-(Benzoylamino)propionic acid", "Benzoyl-\u03b2-alanine", "Betamipron", "3-(Benzoylamino)propanoic acid", "N-Benzoyl-\u03b2-aminopropionic acid", "CS 443", "NSC 192714", "3-Benzamidopropanoicacid", "3-Benzamidopropanoic acid", "Bz-\u03b2-HoGly-OH"], "SMILES": "C(NCCC(O)=O)(=O)C1=CC=CC=C1", "physical_data": {"Molecular Weight": "193.20", "Molecular Formula": "C10H11NO3", "Melting Point": "120 \u00b0C"}}