{"cas_no": "3440-99-1", "cn_name": "5-(3-\u6eb4\u82ef\u57fa)-1H-\u56db\u6c2e\u5511", "en_name": ["5-(3-Bromophenyl)-2H-tetrazole", "2H-Tetrazole, 5-(3-bromophenyl)-", "Tetrazole, 5-(m-bromophenyl)-", "1H-Tetrazole, 5-(3-bromophenyl)-", "5-(3-Bromophenyl)-2H-tetrazole", "5-(m-Bromophenyl)tetrazole", "5-(3-Bromophenyl)-1H-tetrazole", "5-(3-Bromophenyl)-1H-1,2,3,4-tetrazole"], "SMILES": "BrC=1C=C(C=CC1)C=2NN=NN2", "physical_data": {"Molecular Weight": "225.05", "Molecular Formula": "C7H5BrN4", "Melting Point": "145-146 \u00b0C (decomp)"}}