{"cas_no": "34413-35-9", "cn_name": "5,6,7,8-\u56db\u6c22\u55b9\u5594\u5549", "en_name": ["5,6,7,8-Tetrahydroquinoxaline", "Quinoxaline, 5,6,7,8-tetrahydro-", "5,6,7,8-Tetrahydroquinoxaline", "Lucel", "Tetrahydro Terrazine 014"], "SMILES": "C=12C(=NC=CN1)CCCC2", "physical_data": {"Molecular Weight": "134.18", "Molecular Formula": "C8H10N2", "Boiling Point": "108-111 \u00b0C"}}