{"cas_no": "3441-01-8", "cn_name": "3-\u6c30\u57fa\u82ef\u7532\u9170\u80fa", "en_name": ["3-Cyanobenzamide", "Benzamide, 3-cyano-", "Benzamide, m-cyano-", "3-Cyanobenzamide", "m-Cyanobenzamide"], "SMILES": "C(N)(=O)C1=CC(C#N)=CC=C1", "physical_data": {"Molecular Weight": "146.15", "Molecular Formula": "C8H6N2O", "Melting Point": "222 \u00b0C"}}