{"cas_no": "34427-61-7", "cn_name": "7\u0391-\u7f9f\u57fa\u8c37\u753e\u9187", "en_name": ["7\u03b1-Hydroxysitosterol", "Stigmast-5-ene-3,7-diol, (3\u03b2,7\u03b1)-", "Stigmast-5-ene-3\u03b2,7\u03b1-diol", "(3\u03b2,7\u03b1)-Stigmast-5-ene-3,7-diol", "Ikshusterol", "7\u03b1-Hydroxy-\u03b2-sitosterol", "7\u03b1-Hydroxysitosterol", "3\u03b2,7\u03b1-Dihydroxystigmast-5-ene"], "SMILES": "CC12C(C3C(C4(C)C(=CC3O)CC(O)CC4)CC1)CCC2C(CCC(C(C)C)CC)C", "physical_data": {"Molecular Weight": "430.71", "Molecular Formula": "C29H50O2", "Melting Point": "202-204 \u00b0C"}}