{"cas_no": "34425-25-7", "cn_name": "\u5357\u70db\u6728\u7cd6\u7519", "en_name": ["Lyoniside", "\u03b2-D-Xylopyranoside, [(1S,2R,3R)-1,2,3,4-tetrahydro-7-hydroxy-1-(4-hydroxy-3,5-dimethoxyphenyl)-3-(hydroxymethyl)-6,8-dimethoxy-2-naphthalenyl]methyl", "Lyoniside", "\u03b2-D-Xylopyranoside, [1,2,3,4-tetrahydro-7-hydroxy-1-(4-hydroxy-3,5-dimethoxyphenyl)-3-(hydroxymethyl)-6,8-dimethoxy-2-naphthalenyl]methyl, [1S-(1\u03b1,2\u03b2,3\u03b1)]-", "Lyoniresinol, \u03b2-D-xyloside", "[(1S,2R,3R)-1,2,3,4-Tetrahydro-7-hydroxy-1-(4-hydroxy-3,5-dimethoxyphenyl)-3-(hydroxymethyl)-6,8-dimethoxy-2-naphthalenyl]methyl \u03b2-D-xylopyranoside", "(+)-Lyoniside"], "SMILES": "C(OC1C(O)C(O)C(O)CO1)C2C(C=3C(CC2CO)=CC(OC)=C(O)C3OC)C4=CC(OC)=C(O)C(OC)=C4", "physical_data": {"Molecular Weight": "552.57", "Molecular Formula": "C27H36O12", "Melting Point": "123.5 \u00b0C"}}