{"cas_no": "34420-19-4", "cn_name": "\u5343\u91d1\u5b50\u4e8c\u841c\u9187", "en_name": ["(1aR,2E,4aR,6S,7S,7aR,8R,11aS)-1,1a,4a,5,6,7,7a,8,9,10,11,11a-Dodecahydro-4a,7,8-trihydroxy-1,1,3,6-tetramethyl-9-methylene-4H-cyclopenta[a]cyclopropa[f]cycloundecen-4-one", "4H-Cyclopenta[a]cyclopropa[f]cycloundecen-4-one, 1,1a,4a,5,6,7,7a,8,9,10,11,11a-dodecahydro-4a,7,8-trihydroxy-1,1,3,6-tetramethyl-9-methylene-, (1aR,2E,4aR,6S,7S,7aR,8R,11aS)-", "4H-Cyclopenta[a]cyclopropa[f]cycloundecen-4-one, 1,1a,4a,5,6,7,7a,8,9,10,11,11a-dodecahydro-4a,7,8-trihydroxy-1,1,3,6-tetramethyl-9-methylene-, [1aR-(1aR*,2E,4aR*,6S*,7S*,7aR*,8R*,11aS*)]-", "(1aR,2E,4aR,6S,7S,7aR,8R,11aS)-1,1a,4a,5,6,7,7a,8,9,10,11,11a-Dodecahydro-4a,7,8-trihydroxy-1,1,3,6-tetramethyl-9-methylene-4H-cyclopenta[a]cyclopropa[f]cycloundecen-4-one", "Lathyrol"], "SMILES": "OC12C(C(O)C(C)C1)C(O)C(=C)CCC3C(C=C(C)C2=O)C3(C)C", "physical_data": {"Molecular Weight": "334.45", "Molecular Formula": "C20H30O4", "Melting Point": "158-160 \u00b0C"}}