{"cas_no": "34433-86-8", "cn_name": "3-\u6eb4\u54cc\u5576-2-\u916e", "en_name": ["3-Bromo-2-piperidinone", "2-Piperidinone, 3-bromo-", "2-Piperidone, 3-bromo-", "3-Bromo-2-piperidinone", "\u03b1-Bromovalerolactam", "3-Bromo-2-piperidone", "3-Bromopiperidin-2-one"], "SMILES": "BrC1C(=O)NCCC1", "physical_data": {"Molecular Weight": "178.03", "Molecular Formula": "C5H8BrNO", "Melting Point": "147 \u00b0C"}}