{"cas_no": "34433-31-3", "cn_name": "ASOXIME CHLORIDE", "en_name": ["HI 6 chloride", "Pyridinium, 1-[[[4-(aminocarbonyl)pyridinio]methoxy]methyl]-2-[(hydroxyimino)methyl]-, chloride (1:2)", "Pyridinium, 1-[[[4-(aminocarbonyl)pyridinio]methoxy]methyl]-2-[(hydroxyimino)methyl]-, dichloride", "Pyridinium, 4\u2032-carbamoyl-2-formyl-1,1\u2032-(oxydimethylene)di-, dichloride, 2-oxime", "HI 6", "HJ 6", "HI-6 dichloride", "Asoxime chloride", "HI 6 chloride", "Transant"], "SMILES": "C(OC[N+]=1C=CC(C(N)=O)=CC1)[N+]=2C(C=NO)=CC=CC2.[Cl-]", "physical_data": {"Molecular Weight": "", "Molecular Formula": "C14H16N4O3.2Cl", "Melting Point": "150-152 \u00b0C"}}