{"cas_no": "3443-84-3", "cn_name": "2-\u5341\u516b\u70ef\u9178\u5355\u7518\u6cb9\u916f", "en_name": ["2-Oleoylglycerol", "9-Octadecenoic acid (9Z)-, 2-hydroxy-1-(hydroxymethyl)ethyl ester", "Olein, 2-mono-", "9-Octadecenoic acid (Z)-, 2-hydroxy-1-(hydroxymethyl)ethyl ester", "2-Monoolein", "2-Oleoyl glycerol ether", "Glycerol 2-monooleate", "2-Monooleoylglycerol", "2-Oleoylglycerol", "\u03b2-Monoolein", "\u03b2-Glyceryl monooloeate", "\u03b2-Glyceryl monooleate", "1,3-Dihydroxypropan-2-yl oleate", "2-Glyceryl oleate"], "SMILES": "C(OC(CCCCCCCC=CCCCCCCCC)=O)(CO)CO", "physical_data": {"Molecular Weight": "356.54", "Molecular Formula": "C21H40O4", "Melting Point": "23-23.5 \u00b0C", "Density": "0.9963 g/cm\u00b3 @ Temp: 20 \u00b0C"}}