{"cas_no": "34435-05-7", "cn_name": "\u5341\u56db\u9170\u9798\u6c28\u9187", "en_name": ["C24-Ceramide", "Tetracosanamide, N-[(1S,2R,3E)-2-hydroxy-1-(hydroxymethyl)-3-heptadecen-1-yl]-", "Tetracosanamide, N-[2-hydroxy-1-(hydroxymethyl)-3-heptadecenyl]-, [R-[R*,S*-(E)]]-", "Tetracosanamide, N-[2-hydroxy-1-(hydroxymethyl)-3-heptadecenyl]-, (E)-D-erythro-", "Tetracosanamide, N-[(1S,2R,3E)-2-hydroxy-1-(hydroxymethyl)-3-heptadecenyl]-", "N-[(1S,2R,3E)-2-Hydroxy-1-(hydroxymethyl)-3-heptadecen-1-yl]tetracosanamide", "D-erythro-1,3-Dihydroxy-2-tetracosanoylamido-trans-4-octadecene", "N-Tetracosanoyl C18-sphingosine", "N-Lignoceroylsphingosine", "Lobophytamide L5", "C24-Ceramide", "Ceramide (d18:1,C24:0)", "C24:0 Ceramide", "Ceramide 24", "Ceramide d18:1/24:0", "CerNS"], "SMILES": "C(NC(CCCCCCCCCCCCCCCCCCCCCCC)=O)(C(C=CCCCCCCCCCCCCC)O)CO", "physical_data": {"Molecular Weight": "650.11", "Molecular Formula": "C42H83NO3", "Melting Point": "93-95 \u00b0C"}}