{"cas_no": "3443-28-5", "cn_name": "3,5,7-\u4e09\u7f9f\u57fa-8,4'-\u4e8c\u7532\u6c27\u57fa\u9ec4\u916e", "en_name": ["Prudomestin", "4H-1-Benzopyran-4-one, 3,5,7-trihydroxy-8-methoxy-2-(4-methoxyphenyl)-", "Flavone, 3,5,7-trihydroxy-4\u2032,8-dimethoxy-", "3,5,7-Trihydroxy-8-methoxy-2-(4-methoxyphenyl)-4H-1-benzopyran-4-one", "Prudomestin", "Herbacetin 8,4\u2032-dimethyl ether", "3,5,7-Trihydroxy-8,4\u2032-dimethoxyflavone"], "SMILES": "O(C)C1=C2C(C(=O)C(O)=C(O2)C3=CC=C(OC)C=C3)=C(O)C=C1O", "physical_data": {"Molecular Weight": "330.29", "Molecular Formula": "C17H14O7", "Melting Point": "209-210 \u00b0C"}}