{"cas_no": "3443-45-6", "cn_name": "1-\u8298\u4e01\u9178", "en_name": ["1-Pyrenebutanoic acid", "1-Pyrenebutanoic acid", "1-Pyrenebutyric acid", "\u03b3-(3-Pyrenyl)butyric acid", "Pyrene-3-butyric acid", "1-Pyrenylbutyric acid", "4-(1-Pyrenyl)butyric acid", "4-(1-Pyrene)butyric acid", "4-(1-Pyrenyl)butanoic acid", "4-(1-Pyrene)butanoic acid", "NSC 30833"], "SMILES": "C(CCC(O)=O)C1=C2C3=C4C(C=C2)=CC=CC4=CC=C3C=C1", "physical_data": {"Molecular Weight": "288.34", "Molecular Formula": "C20H16O2", "Melting Point": "185-186 \u00b0C"}}