{"cas_no": "34452-51-2", "cn_name": "\u5def\u57fa\u4e59\u9178\u94be", "en_name": ["Potassium thioglycolate", "Acetic acid, 2-mercapto-, potassium salt (1:1)", "Acetic acid, mercapto-, monopotassium salt", "Potassium thioglycolate", "Potassium 2-mercaptoacetate"], "SMILES": "C(CS)(O)=O.[K]", "physical_data": {"Molecular Weight": "", "Molecular Formula": "C2H4O2S.K", "Melting Point": "226-229 \u00b0C"}}