{"cas_no": "3445-52-1", "cn_name": "5-\u7532\u57fa\u5f02\u5641\u5511-3-\u9170\u6c28", "en_name": ["5-Methyl-3-isoxazolecarboxamide", "3-Isoxazolecarboxamide, 5-methyl-", "5-Methyl-3-isoxazolecarboxamide", "NSC 18369", "3-Carbamoyl-5-methylisoxazole"], "SMILES": "C(N)(=O)C=1C=C(C)ON1", "physical_data": {"Molecular Weight": "126.11", "Molecular Formula": "C5H6N2O2", "Melting Point": "166-168 \u00b0C"}}