{"cas_no": "3445-11-2", "cn_name": "N-\u7f9f\u4e59\u57fa-2-\u5421\u54af\u70f7\u916e", "en_name": ["1-(2-Hydroxyethyl)-2-pyrrolidinone", "2-Pyrrolidinone, 1-(2-hydroxyethyl)-", "1-(2-Hydroxyethyl)-2-pyrrolidinone", "N-(\u03b2-Hydroxyethyl)-2-pyrrolidinone", "N-(2-Hydroxyethyl)-2-pyrrolidinone", "1-(\u03b2-Hydroxyethyl)-2-pyrrolidone", "1-(2-Hydroxyethyl)-2-pyrrolidone", "N-(\u03b2-Hydroxyethyl)-2-pyrrolidone", "N-(2-Hydroxyethyl)-2-pyrrolidone", "N-(2-Hydroxyethyl)pyrrolidone", "2-(2-Oxopyrrolidin-1-yl)ethanol", "HEP", "1-(2-Hydroxyethyl)-2-oxopyrrolidine", "1-(2-Hydroxylethyl)-2-pyrrolidone", "2-Hydroxyethylpyrrolidin-2-one"], "SMILES": "C(CO)N1C(=O)CCC1", "physical_data": {"Molecular Weight": "129.16", "Molecular Formula": "C6H11NO2", "Boiling Point": "295 \u00b0C", "Melting Point": "20 \u00b0C", "Density": "1.1435 g/cm\u00b3 @ Temp: 20 \u00b0C"}}