{"cas_no": "34451-26-8", "cn_name": "1H,1H,2H,2H-\u5168\u6c1f\u8f9b\u786b\u9187", "en_name": ["3,3,4,4,5,5,6,6,7,7,8,8,8-Tridecafluoro-1-octanethiol", "1-Octanethiol, 3,3,4,4,5,5,6,6,7,7,8,8,8-tridecafluoro-", "3,3,4,4,5,5,6,6,7,7,8,8,8-Tridecafluoro-1-octanethiol", "1,1,2,2-Tetrahydroperfluorooctanethiol", "2-(Perfluorohexyl)ethanethiol", "1,1,2,2-Tetrahydroperfluorooctyl mercaptan", "Foralkyl EM 6", "1H,1H,2H,2H-Perfluorooctanethiol", "2-(Perfluorohexyl)ethane-1-thiol", "1H,1H,1H,2H-Perfluorooctanethiol"], "SMILES": "C(C(C(C(F)(F)F)(F)F)(F)F)(C(C(CCS)(F)F)(F)F)(F)F", "physical_data": {"Molecular Weight": "380.17", "Molecular Formula": "C8H5F13S", "Boiling Point": "120 \u00b0C @ Press: 760 Torr"}}