{"cas_no": "34450-15-2", "cn_name": "N8-\u4e59\u9170\u57fa\u4e9a\u7cbe\u80fa \u4e8c\u76d0\u9178\u76d0", "en_name": ["N8-Acetylspermidine dihydrochloride", "Acetamide, N-[4-[(3-aminopropyl)amino]butyl]-, hydrochloride (1:2)", "Acetamide, N-[4-[(3-aminopropyl)amino]butyl]-, dihydrochloride", "N8-Acetylspermidine dihydrochloride"], "SMILES": "C(CNCCCN)CCNC(C)=O.Cl", "physical_data": {"Molecular Weight": "", "Molecular Formula": "C9H21N3O.2ClH", "Melting Point": "200-202 \u00b0C"}}