{"cas_no": "34450-18-5", "cn_name": "17-\u5341\u516b\u7094\u9178", "en_name": ["17-Octadecynoic acid", "17-Octadecynoic acid"], "SMILES": "C(CCCCCCCCCC#C)CCCCCC(O)=O", "physical_data": {"Molecular Weight": "280.45", "Molecular Formula": "C18H32O2", "Melting Point": "70-72 \u00b0C"}}