{"cas_no": "3446-89-7", "cn_name": "4-(\u7532\u57fa\u5def\u57fa)\u82ef\u7532\u919b", "en_name": ["4-(Methylthio)benzaldehyde", "Benzaldehyde, 4-(methylthio)-", "Benzaldehyde, p-(methylthio)-", "4-(Methylthio)benzaldehyde", "p-(Methylthio)benzaldehyde", "4-(Methylmercapto)benzaldehyde", "Methyl 4-formylphenyl thioether", "4-Methylsulfanylbenzaldehyde", "4-Methanethiobenzaldehyde", "4-Methanesulfanylbenzaldehyde", "4-Formylthioanisole"], "SMILES": "C(=O)C1=CC=C(SC)C=C1", "physical_data": {"Molecular Weight": "152.21", "Molecular Formula": "C8H8OS", "Boiling Point": "273 \u00b0C"}}