{"cas_no": "344790-87-0", "cn_name": "1-\u4e01\u57fa-3-\u7532\u57fa\u54aa\u5511\u786b\u6c30\u9178\u76d0", "en_name": ["1-Butyl-3-methylimidazolium thiocyanate", "1H-Imidazolium, 3-butyl-1-methyl-, thiocyanate (1:1)", "1H-Imidazolium, 1-butyl-3-methyl-, thiocyanate", "1-Butyl-3-methylimidazolium thiocyanate", "1-Butyl-3-methyl-1H-imidazolium isothiocyanate", "BMIMSCN", "1-Methyl-3-butylimidazolium thiocyanate", "Butylmethylimidazolium thiocyanate"], "SMILES": "C(#N)[S-].C(CCC)[N+]1=CN(C)C=C1", "physical_data": {"Molecular Weight": "", "Molecular Formula": "C8H15N2.CNS", "Melting Point": "-28.63 \u00b0C", "Density": "1.06979 g/cm\u00b3 @ Temp: 25.00 \u00b0C"}}