{"cas_no": "34489-85-5", "cn_name": "2-\u6c28\u57fa-N-(2-\u6eb4\u82ef\u57fa)\u82ef\u9170\u80fa", "en_name": ["2-Amino-N-(2-bromophenyl)benzamide", "Benzamide, 2-amino-N-(2-bromophenyl)-", "Benzanilide, 2-amino-2\u2032-bromo-", "2-Amino-N-(2-bromophenyl)benzamide"], "SMILES": "N(C(=O)C1=C(N)C=CC=C1)C2=C(Br)C=CC=C2", "physical_data": {"Molecular Weight": "291.14", "Molecular Formula": "C13H11BrN2O", "Melting Point": "151 \u00b0C"}}