{"cas_no": "3449-28-3", "cn_name": "\u4e8c\u4e01\u57fa\u4e8c\u6c2f\u5316\u7845", "en_name": ["Dibutyldichlorosilane", "Silane, dibutyldichloro-", "Dibutyldichlorosilane", "LS 2250"], "SMILES": "[Si](CCCC)(CCCC)(Cl)Cl", "physical_data": {"Molecular Weight": "213.22", "Molecular Formula": "C8H18Cl2Si", "Boiling Point": "62-63.5 \u00b0C @ Press: 4.5 Torr", "Density": "0.9915 g/cm\u00b3 @ Temp: 20 \u00b0C"}}