{"cas_no": "3449-63-6", "cn_name": "3-(4-\u6c1f\u82ef\u57fa)\u620a\u4e8c\u9178", "en_name": ["3-(4-Fluorophenyl)pentanedioic acid", "Pentanedioic acid, 3-(4-fluorophenyl)-", "Glutaric acid, 3-(p-fluorophenyl)-", "3-(4-Fluorophenyl)pentanedioic acid", "3-(4-Fluorophenyl)glutaric acid", "NSC 128774"], "SMILES": "C(CC(O)=O)(CC(O)=O)C1=CC=C(F)C=C1", "physical_data": {"Molecular Weight": "226.20", "Molecular Formula": "C11H11FO4", "Melting Point": "144-147 \u00b0C"}}