{"cas_no": "3449-26-1", "cn_name": "1\uff0c3-\u8054\u82ef\u57fa\u56db\u7532\u57fa\u4e8c\u7845\u6c2e\u70f7", "en_name": ["N-(Dimethylphenylsilyl)-1,1-dimethyl-1-phenylsilanamine", "Silanamine, N-(dimethylphenylsilyl)-1,1-dimethyl-1-phenyl-", "Disilazane, 1,1,3,3-tetramethyl-1,3-diphenyl-", "N-(Dimethylphenylsilyl)-1,1-dimethyl-1-phenylsilanamine", "1,1,3,3-Tetramethyl-1,3-diphenyldisilazane", "1,3-Diphenyl-1,1,3,3-tetramethyldisilazane", "Bis(dimethylphenylsilyl)amine", "1,3-Diphenyltetramethyldisilazane", "Bis(phenyldimethylsilyl)amine", "[[[Dimethyl(phenyl)silyl]amino]-dimethylsilyl]benzene"], "SMILES": "[Si](N[Si](C)(C)C1=CC=CC=C1)(C)(C)C2=CC=CC=C2", "physical_data": {"Molecular Weight": "285.53", "Molecular Formula": "C16H23NSi2", "Boiling Point": "96-99 \u00b0C @ Press: 0.1 Torr", "Density": "0.985 g/cm\u00b3"}}