{"cas_no": "345-16-4", "cn_name": "5-\u6c1f\u6c34\u6768\u9178", "en_name": ["5-Fluorosalicylic acid", "Benzoic acid, 5-fluoro-2-hydroxy-", "Salicylic acid, 5-fluoro-", "5-Fluoro-2-hydroxybenzoic acid", "5-Fluorosalicylic acid", "2-Hydroxy-5-fluorobenzoic acid", "NSC 46619"], "SMILES": "C(O)(=O)C1=C(O)C=CC(F)=C1", "physical_data": {"Molecular Weight": "156.11", "Molecular Formula": "C7H5FO3", "Melting Point": "178.5-179.5 \u00b0C"}}