{"cas_no": "345-70-0", "cn_name": "3,3'-\u4e8c\u6c1f\u4e8c\u82ef\u7532\u916e", "en_name": ["3,3\u2032-Difluorobenzophenone", "Methanone, bis(3-fluorophenyl)-", "Benzophenone, 3,3\u2032-difluoro-", "Bis(3-fluorophenyl)methanone", "3,3\u2032-Difluorobenzophenone"], "SMILES": "C(=O)(C1=CC(F)=CC=C1)C2=CC(F)=CC=C2", "physical_data": {"Molecular Weight": "218.20", "Molecular Formula": "C13H8F2O", "Melting Point": "61.5 \u00b0C"}}