{"cas_no": "345-18-6", "cn_name": "5-\u6c2f-2-\u6c1f\u785d\u57fa\u82ef", "en_name": ["4-Chloro-1-fluoro-2-nitrobenzene", "Benzene, 4-chloro-1-fluoro-2-nitro-", "4-Chloro-1-fluoro-2-nitrobenzene", "5-Chloro-2-fluoronitrobenzene", "2-Fluoro-5-chloronitrobenzene", "2-Fluoro-5-chloro-1-nitrobenzene", "1-Fluoro-4-chloro-2-nitrobenzene", "3-Chloro-6-fluoro-1-nitrobenzene", "1-Chloro-4-fluoro-3-nitrobenzene"], "SMILES": "N(=O)(=O)C1=C(F)C=CC(Cl)=C1", "physical_data": {"Molecular Weight": "175.54", "Molecular Formula": "C6H3ClFNO2", "Boiling Point": "236.6-236.9 \u00b0C", "Melting Point": "10.2 \u00b0C"}}