{"cas_no": "345-83-5", "cn_name": "4-\u6c1f\u4e8c\u82ef\u7532\u916e", "en_name": ["4-Fluorobenzophenone", "Methanone, (4-fluorophenyl)phenyl-", "Benzophenone, 4-fluoro-", "(4-Fluorophenyl)phenylmethanone", "4-Fluorobenzophenone", "p-Fluorobenzophenone", "Phenyl 4-fluorophenyl ketone", "p-Fluorophenyl phenyl ketone", "NSC 88321", "4-Fluorophenyl phenyl ketone", "1-(4\u2032-Fluorophenyl)-phenylmethanone"], "SMILES": "C(=O)(C1=CC=C(F)C=C1)C2=CC=CC=C2", "physical_data": {"Molecular Weight": "200.21", "Molecular Formula": "C13H9FO", "Melting Point": "48 \u00b0C"}}