{"cas_no": "345-94-8", "cn_name": "2'-\u6eb4-4-\u6c1f\u82ef\u4e19\u916e", "en_name": ["2-Bromo-1-(4-fluorophenyl)-1-propanone", "1-Propanone, 2-bromo-1-(4-fluorophenyl)-", "Propiophenone, 2-bromo-4\u2032-fluoro-", "2-Bromo-1-(4-fluorophenyl)-1-propanone", "\u03b1-Bromo-4-fluoropropiophenone", "2-Bromo-1-(4-fluorophenyl)propan-1-one"], "SMILES": "C(C(Br)C)(=O)C1=CC=C(F)C=C1", "physical_data": {"Molecular Weight": "231.06", "Molecular Formula": "C9H8BrFO", "Boiling Point": "120-123 \u00b0C @ Press: 13 Torr"}}