{"cas_no": "345-17-5", "cn_name": "2-\u6c2f-5-\u6c1f\u785d\u57fa\u82ef", "en_name": ["1-Chloro-4-fluoro-2-nitrobenzene", "Benzene, 1-chloro-4-fluoro-2-nitro-", "1-Chloro-4-fluoro-2-nitrobenzene", "2-Chloro-5-fluoronitrobenzene", "2-Chloro-5-fluoro-1-nitrobenzene"], "SMILES": "N(=O)(=O)C1=C(Cl)C=CC(F)=C1", "physical_data": {"Molecular Weight": "175.54", "Molecular Formula": "C6H3ClFNO2", "Boiling Point": "100-120 \u00b0C @ Press: 11.25 Torr", "Melting Point": "36 \u00b0C"}}