{"cas_no": "345-92-6", "cn_name": "4,4'-\u4e8c\u6c1f\u4e8c\u82ef\u7532\u916e", "en_name": ["4,4\u2032-Difluorobenzophenone", "Methanone, bis(4-fluorophenyl)-", "Benzophenone, 4,4\u2032-difluoro-", "Bis(4-fluorophenyl)methanone", "4,4\u2032-Difluorobenzophenone", "p,p\u2032-Difluorobenzophenone", "Bis(4-fluorophenyl) ketone", "Di-p-fluorophenyl ketone", "Bis(p-fluorophenyl) ketone", "NSC 51800", "4,4\u2032-Difluorodiphenyl ketone", "4,4\u2032-Difluorodiphenylmethanone"], "SMILES": "C(=O)(C1=CC=C(F)C=C1)C2=CC=C(F)C=C2", "physical_data": {"Molecular Weight": "218.20", "Molecular Formula": "C13H8F2O", "Melting Point": "109 \u00b0C"}}