{"cas_no": "345-35-7", "cn_name": "\u90bb\u6c1f\u6c2f\u82c4", "en_name": ["2-Fluorobenzyl chloride", "Benzene, 1-(chloromethyl)-2-fluoro-", "Toluene, \u03b1-chloro-o-fluoro-", "1-(Chloromethyl)-2-fluorobenzene", "o-Fluorobenzyl chloride", "2-Fluorobenzyl chloride", "\u03b1-Chloro-2-fluorotoluene", "\u03b1-Chloro-o-fluorotoluene", "o-fluorobenzyl chloride", "NSC 88295", "2-Fluorophenylmethyl chloride"], "SMILES": "C(Cl)C1=C(F)C=CC=C1", "physical_data": {"Molecular Weight": "144.57", "Molecular Formula": "C7H6ClF", "Boiling Point": "83 \u00b0C @ Press: 32 Torr", "Melting Point": "36-38 \u00b0C", "Density": "1.2162 g/cm\u00b3 @ Temp: 24 \u00b0C"}}