{"cas_no": "345-24-4", "cn_name": "2,4-\u4e8c\u6c1f-5-\u6eb4\u785d\u57fa\u82ef", "en_name": ["1-Bromo-2,4-difluoro-5-nitrobenzene", "Benzene, 1-bromo-2,4-difluoro-5-nitro-", "1-Bromo-2,4-difluoro-5-nitrobenzene", "5-Bromo-2,4-difluoronitrobenzene", "2,4-Difluoro-5-nitrobromobenzene", "NSC 10238", "1-Bromo-2,4-difluoronitrobenzene"], "SMILES": "N(=O)(=O)C1=C(F)C=C(F)C(Br)=C1", "physical_data": {"Molecular Weight": "237.99", "Molecular Formula": "C6H2BrF2NO2", "Boiling Point": "97 \u00b0C @ Press: 5 Torr"}}