{"cas_no": "345-29-9", "cn_name": "4-\u6c1f\u6c34\u6768\u9178", "en_name": ["4-Fluoro-2-hydroxybenzoic acid", "Benzoic acid, 4-fluoro-2-hydroxy-", "Salicylic acid, 4-fluoro-", "4-Fluoro-2-hydroxybenzoic acid", "4-Fluorosalicylic acid", "NSC 109099", "4-Fluoro-2-hydroxybenzenecarboxylic acid"], "SMILES": "C(O)(=O)C1=C(O)C=C(F)C=C1", "physical_data": {"Molecular Weight": "156.11", "Molecular Formula": "C7H5FO3", "Melting Point": "180 \u00b0C"}}