{"cas_no": "345-78-8", "cn_name": "\u76d0\u9178\u53f3\u65cb\u9ebb\u9ec4\u7d20", "en_name": ["Pseudoephedrine hydrochloride", "Benzenemethanol, \u03b1-[(1S)-1-(methylamino)ethyl]-, hydrochloride (1:1), (\u03b1S)-", "Pseudoephedrine, hydrochloride, (+)-", "Pseudoephedrine hydrochloride", "Benzenemethanol, \u03b1-[1-(methylamino)ethyl]-, hydrochloride, [S-(R*,R*)]-", "Benzenemethanol, \u03b1-[(1S)-1-(methylamino)ethyl]-, hydrochloride, (\u03b1S)-", "d-[\u03b1-(1-Methylamino)ethyl]benzyl alcohol hydrochloride", "d-Pseudoephedrine hydrochloride", "L-(+)-Pseudoephedrine hydrochloride", "(+)-Pseudoephedrine hydrochloride", "1S,2S-(+)-Pseudoephedrine hydrochloride", "Sudafed", "Novafed", "(1S,2S)-(+)-2-(Methylamino)-1-phenylpropan-1-ol hydrochloride", "CPDD 0050", "d-(1S,2S)-Pseudoephedrine hydrochloride", "Sinufed", "Galpseud", "Otrinol", "Rhinalair", "Symptom 2", "NSC 106567", "NSC 33634", "Decongess SR"], "SMILES": "C(C(NC)C)(O)C1=CC=CC=C1.Cl", "physical_data": {"Molecular Weight": "", "Molecular Formula": "C10H15NO.ClH", "Melting Point": "190-191 \u00b0C"}}