{"cas_no": "345-89-1", "cn_name": "4-\u6c1f-4'-\u7532\u6c27\u57fa\u4e8c\u82ef\u7532\u916e", "en_name": ["(4-Fluorophenyl)(4-methoxyphenyl)methanone", "Methanone, (4-fluorophenyl)(4-methoxyphenyl)-", "Benzophenone, 4-fluoro-4\u2032-methoxy-", "(4-Fluorophenyl)(4-methoxyphenyl)methanone", "p-(4-Fluorobenzoyl)anisole", "4,4\u2032-Fluoromethoxybenzophenone", "4-Fluoro-4\u2032methoxybenzophenone"], "SMILES": "C(=O)(C1=CC=C(OC)C=C1)C2=CC=C(F)C=C2", "physical_data": {"Molecular Weight": "230.23", "Molecular Formula": "C14H11FO2", "Boiling Point": "208-212 \u00b0C @ Press: 22 Torr", "Melting Point": "96.0-96.5 \u00b0C"}}