{"cas_no": "3452-09-3", "cn_name": "1-\u58ec\u7094", "en_name": ["1-Nonyne", "1-Nonyne", "Heptylacetylene", "n-Heptylacetylene"], "SMILES": "C(CCCC)CCC#C", "physical_data": {"Molecular Weight": "124.22", "Molecular Formula": "C9H16", "Boiling Point": "150.8 \u00b0C", "Melting Point": "-50 \u00b0C", "Density": "0.7924 g/cm\u00b3 @ Temp: 13 \u00b0C"}}