{"cas_no": "3452-07-1", "cn_name": "1-\u4e8c\u5341\u70ef", "en_name": ["1-Eicosene", "1-Eicosene", "Cetyl ethylene", "\u03b1-Eicosene", "Neodene C 20", "NSC 77138", "Methylene nonadecane"], "SMILES": "C(CCCCCCCCC=C)CCCCCCCCC", "physical_data": {"Molecular Weight": "280.53", "Molecular Formula": "C20H40", "Boiling Point": "341 \u00b0C", "Melting Point": "28.5 \u00b0C"}}