{"cas_no": "3452-97-9", "cn_name": "3,5,5-\u4e09\u7532\u57fa-1-\u5df1\u9187", "en_name": ["3,5,5-Trimethyl-1-hexanol", "1-Hexanol, 3,5,5-trimethyl-", "3,5,5-Trimethyl-1-hexanol", "Nonylol", "3,5,5-Trimethylhexanol", "i-Nonyl alcohol", "3,5,5-Trimethylhexyl alcohol", "NSC 83151", "NSC 97226"], "SMILES": "C(CC(C)(C)C)(CCO)C", "physical_data": {"Molecular Weight": "144.25", "Molecular Formula": "C9H20O", "Boiling Point": "193 \u00b0C", "Melting Point": "-70 \u00b0C", "Density": "0.83 g/cm\u00b3"}}