{"cas_no": "345226-20-2", "cn_name": "2-\u6c2f-4-\u4e09\u6c1f\u7532\u6c27\u57fa\u82ef\u787c\u9178", "en_name": ["B-[2-Chloro-4-(trifluoromethoxy)phenyl]boronic acid", "Boronic acid, B-[2-chloro-4-(trifluoromethoxy)phenyl]-", "Boronic acid, [2-chloro-4-(trifluoromethoxy)phenyl]-", "B-[2-Chloro-4-(trifluoromethoxy)phenyl]boronic acid", "2-Chloro-4-trifluoromethoxybenzeneboronic acid", "(2-Chloro-4-trifluoromethoxyphenyl)boronic acid"], "SMILES": "B(O)(O)C1=C(Cl)C=C(OC(F)(F)F)C=C1", "physical_data": {"Molecular Weight": "240.37", "Molecular Formula": "C7H5BClF3O3", "Melting Point": "150-152 \u00b0C"}}