{"cas_no": "34523-34-7", "cn_name": "4-\u7f9f\u57fa\u82ef\u4e59\u916e\u809f", "en_name": ["4\u2032-Hydroxyacetophenone oxime", "Ethanone, 1-(4-hydroxyphenyl)-, oxime", "Acetophenone, 4\u2032-hydroxy-, oxime", "p-Hydroxyacetophenone oxime", "4\u2032-Hydroxyacetophenone oxime", "1-(4-Hydroxyphenyl)ethanone oxime", "1-(4-Hydroxyphenyl)-1-ethanone oxime", "NSC 77904"], "SMILES": "C(=NO)(C)C1=CC=C(O)C=C1", "physical_data": {"Molecular Weight": "151.16", "Molecular Formula": "C8H9NO2", "Melting Point": "144 \u00b0C"}}