{"cas_no": "34523-28-9", "cn_name": "\u4e39\u78fa\u9170\u6c1f", "en_name": ["5-(Dimethylamino)-1-naphthalenesulfonyl fluoride", "1-Naphthalenesulfonyl fluoride, 5-(dimethylamino)-", "5-(Dimethylamino)-1-naphthalenesulfonyl fluoride", "5-(Dimethylamino)naphthalene-1-sulfonyl fluoride", "Dansyl-fluoride"], "SMILES": "S(F)(=O)(=O)C=1C2=C(C(N(C)C)=CC=C2)C=CC1", "physical_data": {"Molecular Weight": "253.29", "Molecular Formula": "C12H12FNO2S", "Melting Point": "40-42 \u00b0C"}}