{"cas_no": "34522-32-2", "cn_name": "\u7ae0\u9c7c\u78b1", "en_name": ["Octopine", "L-Arginine, N2-[(1R)-1-carboxyethyl]-", "L-Arginine, N2-(1-carboxyethyl)-, (R)-", "Arginine, N2-(1-carboxyethyl)-, L-", "Octopine", "N2-[(1R)-1-Carboxyethyl]-L-arginine", "D-Octopine", "D-(+)-Octopine", "N2-(D-1-Carboxyethyl)-L-arginine"], "SMILES": "C(NC(C(O)=O)C)(CCCNC(=N)N)C(O)=O", "physical_data": {"Molecular Weight": "246.26", "Molecular Formula": "C9H18N4O4", "Melting Point": "261-264 \u00b0C (decomp)"}}