{"cas_no": "3453-83-6", "cn_name": "2,4,6-\u4e09\u7532\u57fa\u82ef\u78fa\u9178", "en_name": ["2,4,6-Trimethylbenzenesulfonic acid", "Benzenesulfonic acid, 2,4,6-trimethyl-", "2-Mesitylenesulfonic acid", "2,4,6-Trimethylbenzenesulfonic acid", "Mesitylenesulfonic acid", "Mesitylsulfonic acid", "NSC 5233", "2,4,6-Trimethylbenzene-1-sulfonic acid"], "SMILES": "S(=O)(=O)(O)C1=C(C)C=C(C)C=C1C", "physical_data": {"Molecular Weight": "200.25", "Molecular Formula": "C9H12O3S", "Melting Point": "77 \u00b0C"}}