{"cas_no": "3453-33-6", "cn_name": "6-\u7532\u6c27\u57fa-2-\u8418\u7532\u919b", "en_name": ["6-Methoxy-2-naphthaldehyde", "2-Naphthalenecarboxaldehyde, 6-methoxy-", "2-Naphthaldehyde, 6-methoxy-", "6-Methoxy-2-naphthalenecarboxaldehyde", "6-Methoxy-2-naphthaldehyde", "MONAL 62", "2-Methoxy-6-naphthalenecarboxaldehyde", "2-Methoxy-6-naphthaldehyde", "2-Formyl-6-methoxynaphthalene"], "SMILES": "C(=O)C1=CC2=C(C=C(OC)C=C2)C=C1", "physical_data": {"Molecular Weight": "186.21", "Molecular Formula": "C12H10O2", "Boiling Point": "140-145 \u00b0C @ Press: 5 Torr", "Melting Point": "80-81 \u00b0C"}}