{"cas_no": "3453-64-3", "cn_name": "\u4e01\u82ef\u915e\u6742\u8d28", "en_name": ["3-Methylphthalide", "1(3H)-Isobenzofuranone, 3-methyl-", "Phthalide, 3-methyl-", "3-Methyl-1(3H)-isobenzofuranone", "Benzoic acid, 2-(1-hydroxyethyl)-, \u03b3-lactone", "3-Methylphthalide", "3-Methyl-2-benzofuran-1(3H)-one", "3-Methyl-1,3-dihydro-2-benzofuran-1-one"], "SMILES": "CC1C=2C(C(=O)O1)=CC=CC2", "physical_data": {"Molecular Weight": "148.16", "Molecular Formula": "C9H8O2", "Boiling Point": "272-274 \u00b0C @ Press: 758 Torr"}}