{"cas_no": "34540-22-2", "cn_name": "\u7f9f\u57fa\u79ef\u96ea\u8349\u7519", "en_name": ["Madecassoside", "Urs-12-en-28-oic acid, 2,3,6,23-tetrahydroxy-, O-6-deoxy-\u03b1-L-mannopyranosyl-(1\u21924)-O-\u03b2-D-glucopyranosyl-(1\u21926)-\u03b2-D-glucopyranosyl ester, (2\u03b1,3\u03b2,4\u03b1,6\u03b2)-", "Madecassoside", "Asiaticoside A", "Redermic"], "SMILES": "C(OC1OC(COC2OC(CO)C(OC3C(O)C(O)C(O)C(C)O3)C(O)C2O)C(O)C(O)C1O)(=O)C45C(C=6C(C)(CC4)C7(C)C(CC6)C8(C)C(C(O)C7)C(CO)(C)C(O)C(O)C8)C(C)C(C)CC5", "physical_data": {"Molecular Weight": "975.12", "Molecular Formula": "C48H78O20", "Melting Point": "220-223 \u00b0C"}}