{"cas_no": "3454-07-7", "cn_name": "1-\u4e59\u57fa-4-\u4e59\u70ef\u57fa\u82ef", "en_name": ["4-Ethylstyrene", "Benzene, 1-ethenyl-4-ethyl-", "Styrene, p-ethyl-", "1-Ethenyl-4-ethylbenzene", "p-Ethylstyrene", "p-Ethylvinylbenzene", "4-Ethylstyrene", "p-Ethylethenylbenzene", "1-Ethyl-4-vinylbenzene"], "SMILES": "C(C)C1=CC=C(C=C)C=C1", "physical_data": {"Molecular Weight": "132.20", "Molecular Formula": "C10H12", "Boiling Point": "192.3 \u00b0C", "Melting Point": "-49.7 \u00b0C", "Density": "0.8976 g/cm\u00b3 @ Temp: 25 \u00b0C"}}