{"cas_no": "34552-15-3", "cn_name": "2-\u6c2f-3-\u6c1f-5-\u7532\u57fa\u5421\u5576", "en_name": ["2-Chloro-3-fluoro-5-methylpyridine", "Pyridine, 2-chloro-3-fluoro-5-methyl-", "2-Chloro-3-fluoro-5-methylpyridine", "6-Chloro-5-fluoro-3-methylpyridine", "2-Chloro-3-fluoro-5-picoline"], "SMILES": "FC1=C(Cl)N=CC(C)=C1", "physical_data": {"Molecular Weight": "145.56", "Molecular Formula": "C6H5ClFN", "Boiling Point": "90-92 \u00b0C @ Press: 25 Torr", "Melting Point": "29-30 \u00b0C"}}