{"cas_no": "34552-83-5", "cn_name": "\u76d0\u9178\u6d1b\u54cc\u4e01\u80fa", "en_name": ["Loperamide hydrochloride", "1-Piperidinebutanamide, 4-(4-chlorophenyl)-4-hydroxy-N,N-dimethyl-\u03b1,\u03b1-diphenyl-, hydrochloride (1:1)", "1-Piperidinebutanamide, 4-(4-chlorophenyl)-4-hydroxy-N,N-dimethyl-\u03b1,\u03b1-diphenyl-, monohydrochloride", "4-(p-Chlorophenyl)-4-hydroxy-N,N-dimethyl-\u03b1,\u03b1-diphenyl-1-piperidinobutyramide hydrochloride", "Loperamide hydrochloride", "R 18553", "Lopemin", "Imodium", "Loperazine", "Lopodium", "PJ 185", "Arret", "Imosec", "Fortasec", "Maalox Antidiarrheal", "Imossel", "Blox", "Tebloc", "Dissenten", "Suprasec", "Loperyl", "Brek", "Lopemid", "Imodium A-D", "NSC 696356"], "SMILES": "C(CCN1CCC(O)(CC1)C2=CC=C(Cl)C=C2)(C(N(C)C)=O)(C3=CC=CC=C3)C4=CC=CC=C4.Cl", "physical_data": {"Molecular Weight": "", "Molecular Formula": "C29H33ClN2O2.ClH", "Melting Point": "222-223 \u00b0C"}}