{"cas_no": "34552-84-6", "cn_name": "\u4f0a\u7d22\u6614\u5eb7", "en_name": ["Isoxicam", "2H-1,2-Benzothiazine-3-carboxamide, 4-hydroxy-2-methyl-N-(5-methyl-3-isoxazolyl)-, 1,1-dioxide", "Isoxicam", "Pacyl", "Pacyl (antiinflammatory)", "W 8495", "Vectren", "Floxicam"], "SMILES": "OC=1C=2C(S(=O)(=O)N(C)C1C(NC3=NOC(C)=C3)=O)=CC=CC2", "physical_data": {"Molecular Weight": "335.34", "Molecular Formula": "C14H13N3O5S", "Melting Point": "265-271 \u00b0C (decomp)"}}