{"cas_no": "34552-14-2", "cn_name": "3-\u6c28\u57fa-2-\u6eb4-5-\u7532\u57fa\u5421\u5576", "en_name": ["2-Bromo-5-methyl-3-pyridinamine", "3-Pyridinamine, 2-bromo-5-methyl-", "2-Bromo-5-methyl-3-pyridinamine", "3-Amino-2-bromo-5-methylpyridine", "(2-Bromo-5-methylpyridin-3-yl)amine", "2-Bromo-5-methylpyridin-3-amine", "3-Amino-2-bromo-5-picoline"], "SMILES": "NC1=C(Br)N=CC(C)=C1", "physical_data": {"Molecular Weight": "187.04", "Molecular Formula": "C6H7BrN2", "Melting Point": "106-107 \u00b0C"}}