{"cas_no": "3456-75-5", "cn_name": "5-\u6c1f-2-\u785d\u57fa\u82ef\u4e59\u8148", "en_name": ["5-Fluoro-2-nitrobenzeneacetonitrile", "Benzeneacetonitrile, 5-fluoro-2-nitro-", "Acetonitrile, (5-fluoro-2-nitrophenyl)-", "5-Fluoro-2-nitrobenzeneacetonitrile", "(5-Fluoro-2-nitrophenyl)acetonitrile", "2-(5-Fluoro-2-nitrophenyl)acetonitrile"], "SMILES": "N(=O)(=O)C1=C(CC#N)C=C(F)C=C1", "physical_data": {"Molecular Weight": "180.14", "Molecular Formula": "C8H5FN2O2", "Melting Point": "64-65 \u00b0C"}}