{"cas_no": "345627-80-7", "cn_name": "SNS-032", "en_name": ["N-[5-[[[5-(1,1-Dimethylethyl)-2-oxazolyl]methyl]thio]-2-thiazolyl]-4-piperidinecarboxamide", "4-Piperidinecarboxamide, N-[5-[[[5-(1,1-dimethylethyl)-2-oxazolyl]methyl]thio]-2-thiazolyl]-", "N-[5-[[[5-(1,1-Dimethylethyl)-2-oxazolyl]methyl]thio]-2-thiazolyl]-4-piperidinecarboxamide", "BMS 387032", "SNS 032", "N-[5-[[(5-tert-Butyloxazol-2-yl)methyl]thio]thiazol-2-yl]piperidine-4-carboxamide"], "SMILES": "C(SC=1SC(NC(=O)C2CCNCC2)=NC1)C=3OC(C(C)(C)C)=CN3", "physical_data": {"Molecular Weight": "380.53", "Molecular Formula": "C17H24N4O2S2", "Melting Point": "171-173 \u00b0C"}}