{"cas_no": "34562-97-5", "cn_name": "\u5339\u5361\u7c73\u9686", "en_name": ["4-[(3-Pyridinylcarbonyl)amino]butanoic acid", "Butanoic acid, 4-[(3-pyridinylcarbonyl)amino]-", "Butyric acid, 4-nicotinamido-", "4-[(3-Pyridinylcarbonyl)amino]butanoic acid", "Nicotinoyl-\u03b3-aminobutyric acid", "Nicotinoyl-GABA", "N-Nicotinoyl-\u03b3-aminobutyric acid"], "SMILES": "C(NCCCC(O)=O)(=O)C=1C=CC=NC1", "physical_data": {"Molecular Weight": "208.21", "Molecular Formula": "C10H12N2O3", "Melting Point": "210-211 \u00b0C (decomp)"}}