{"cas_no": "3457-61-2", "cn_name": "\u8fc7\u6c27\u5316\u53d4\u4e01\u57fa\u5f02\u4e19\u57fa\u82ef", "en_name": ["1,1-Dimethylethyl 1-methyl-1-phenylethyl peroxide", "Peroxide, 1,1-dimethylethyl 1-methyl-1-phenylethyl", "Peroxide, tert-butyl \u03b1,\u03b1-dimethylbenzyl", "1,1-Dimethylethyl 1-methyl-1-phenylethyl peroxide", "tert-Butyl cumyl peroxide", "Cumyl tert-butyl peroxide", "7-(tert-Butylperoxy)cumene", "Kayabutyl C", "tert-Butyl 1-methyl-1-phenylethyl peroxide", "Trigonox T 40", "Lupersol 801", "Luperox 801", "Peroximon 166", "tert-Butyl \u03b1,\u03b1-dimethylbenzyl peroxide", "Trigonox T", "2-(tert-Butylperoxy)-2-phenylpropane", "Peroximon 801", "C 24", "Trigonox T 50D-PD", "Luperox D 16", "Cumyl tert-butyl peroxide"], "SMILES": "C(OOC(C)(C)C)(C)(C)C1=CC=CC=C1", "physical_data": {"Molecular Weight": "208.30", "Molecular Formula": "C13H20O2", "Boiling Point": "40 \u00b0C @ Press: 0.2 Torr", "Melting Point": "15.5 \u00b0C"}}