{"cas_no": "3457-46-3", "cn_name": "4,4'-\u4e8c\u6c2f\u82ef\u5076\u9170", "en_name": ["4,4\u2032-Dichlorobenzil", "1,2-Ethanedione, 1,2-bis(4-chlorophenyl)-", "Benzil, 4,4\u2032-dichloro-", "Ethanedione, bis(4-chlorophenyl)-", "1,2-Bis(4-chlorophenyl)-1,2-ethanedione", "4,4\u2032-Dichlorobenzil", "4,4\u2032-Dichlorodibenzoyl", "Bis(p-chlorophenyl)ethanedione", "p,p\u2032-Dichlorobenzil", "NSC 274", "Bis(4-chlorophenyl)ethanedione", "1,2-Bis(4-chlorophenyl)ethane-1,2-dione", "1,2-Bis(4-chlorophenyl)ethanedione", "1,2-Bis(4-chlorophenyl)ethandione"], "SMILES": "C(C(=O)C1=CC=C(Cl)C=C1)(=O)C2=CC=C(Cl)C=C2", "physical_data": {"Molecular Weight": "279.12", "Molecular Formula": "C14H8Cl2O2", "Melting Point": "196-197 \u00b0C"}}