{"cas_no": "34570-16-6", "cn_name": "3-\u6c28\u57fa-3-\u4e59\u6c27\u57fa\u4e19\u70ef\u9178\u4e59\u916f", "en_name": ["2-Propenoic acid, 3-amino-3-ethoxy-, ethyl ester, hydrochloride (1:1)", "2-Propenoic acid, 3-amino-3-ethoxy-, ethyl ester, hydrochloride (1:1)", "Acrylic acid, 3-amino-3-ethoxy-, ethyl ester, hydrochloride", "2-Propenoic acid, 3-amino-3-ethoxy-, ethyl ester, hydrochloride", "Ethyl \u03b2-amino-\u03b2-ethoxyacrylate hydrochloride", "\u03b2-Amino-\u03b2-ethoxyacrylic acid ethyl ester hydrochloride", "Ethyl 3-amino-3-ethoxyacrylate hydrochloride", "Ethyl 3-amino-3-ethoxypropenoate hydrochloride", "\u03b2-Ethoxy-\u03b2-aminoacrylic acid ethyl ester hydrochloride", "[1-Ethoxy-2-(ethoxycarbonyl)vinyl]ammonium chloride"], "SMILES": "C(=CC(OCC)=O)(OCC)N.Cl", "physical_data": {"Molecular Weight": "", "Molecular Formula": "C7H13NO3.ClH", "Melting Point": "103-104 \u00b0C"}}