{"cas_no": "3457-48-5", "cn_name": "4,4'-\u4e8c\u7532\u57fa\u8054\u82ef\u7532\u9170", "en_name": ["1,2-Bis(4-methylphenyl)-1,2-ethanedione", "1,2-Ethanedione, 1,2-bis(4-methylphenyl)-", "p-Tolil", "Ethanedione, bis(4-methylphenyl)-", "1,2-Bis(4-methylphenyl)-1,2-ethanedione", "4,4\u2032-Dimethylbenzil", "Di-p-tolylethanedione", "p,p\u2032-Dimethylbenzil", "Di-p-methylbenzil", "NSC 22505", "Bis(4-methylphenyl)ethanedione", "1,2-Bis(p-tolyl)ethane-1,2-dione", "1,2-Bis(4-methylphenyl)ethane-1,2-dione", "1,2-Bis(4-methylphenyl)ethanedione", "1,2-Di-p-tolylethane-1,2-dione"], "SMILES": "C(C(=O)C1=CC=C(C)C=C1)(=O)C2=CC=C(C)C=C2", "physical_data": {"Molecular Weight": "238.28", "Molecular Formula": "C16H14O2", "Boiling Point": "178 \u00b0C @ Press: 16 Torr", "Melting Point": "106-107 \u00b0C"}}