{"cas_no": "34570-17-7", "cn_name": "\u4e19\u4e8c\u9170\u8112\u76d0\u9178\u76d0", "en_name": ["Propanamide, 3-amino-3-imino-, hydrochloride (1:1)", "Propanamide, 3-amino-3-imino-, hydrochloride (1:1)", "Acetamide, 2-amidino-, monohydrochloride", "Propanamide, 3-amino-3-imino-, monohydrochloride", "2-Amidinoacetamide hydrochloride", "Malonamideamidine hydrochloride", "3-Amino-3-iminopropanamide hydrochloride", "2-Carbamimidoylacetamide hydrochloride"], "SMILES": "C(C(=N)N)C(N)=O.Cl", "physical_data": {"Molecular Weight": "", "Molecular Formula": "C3H7N3O.ClH", "Melting Point": "176-177 \u00b0C"}}