{"cas_no": "34580-13-7", "cn_name": "\u916e\u66ff\u82ac", "en_name": ["Ketotifen", "10H-Benzo[4,5]cyclohepta[1,2-b]thiophen-10-one, 4,9-dihydro-4-(1-methyl-4-piperidinylidene)-", "4,9-Dihydro-4-(1-methyl-4-piperidinylidene)-10H-benzo[4,5]cyclohepta[1,2-b]thiophen-10-one", "4-(1-Methyl-4-piperidinylidene)-4H-benzo[4,5]cyclohepta[1,2-d]thiophene-10(9H)-one", "Ketotifen", "HC 20-511", "(\u00b1)-Ketotifen", "RS-ketotifen", "MeSH ID: D007665"], "SMILES": "O=C1C2=C(C(C=3C(C1)=CC=CC3)=C4CCN(C)CC4)C=CS2", "physical_data": {"Molecular Weight": "309.43", "Molecular Formula": "C19H19NOS", "Melting Point": "152-153 \u00b0C"}}