{"cas_no": "3458-98-8", "cn_name": "3-(2-\u6c28\u57fa-\u4e59\u57fa)\u82ef\u915a\u76d0\u9178\u76d0", "en_name": ["Phenol, 3-(2-aminoethyl)-, hydrochloride (1:1)", "Phenol, 3-(2-aminoethyl)-, hydrochloride (1:1)", "Phenol, m-(2-aminoethyl)-, hydrochloride", "Phenol, 3-(2-aminoethyl)-, hydrochloride", "m-Tyramine hydrochloride", "2-(3-Hydroxyphenyl)ethanamine hydrochloride", "2-(3-Hydroxyphenyl)ethylamine hydrochloride", "3-Hydroxyphenethylamine hydrochloride", "3-(2-Aminoethyl)phenol hydrochloride"], "SMILES": "C(CN)C1=CC(O)=CC=C1.Cl", "physical_data": {"Molecular Weight": "", "Molecular Formula": "C8H11NO.ClH", "Melting Point": "162 \u00b0C"}}