{"cas_no": "3458-28-4", "cn_name": "D-\u7518\u9732\u7cd6", "en_name": ["Mannose", "D-Mannose", "Mannose, D-", "Carubinose", "Seminose", "Mannose", "D(+)-Mannose", "(+)-Mannose", "NSC 26247", "Anhydro-mannose", "Mannopyranose, D-"], "SMILES": "C(C(C(C=O)O)O)(C(CO)O)O", "physical_data": {"Molecular Weight": "180.16", "Molecular Formula": "C6H12O6", "Melting Point": "132 \u00b0C (decomp)", "Density": "1.554 g/cm\u00b3 @ Temp: -5 \u00b0C"}}