{"cas_no": "34580-14-8", "cn_name": "\u5bcc\u9a6c\u9178\u916e\u66ff\u82ac", "en_name": ["Ketotifen fumarate", "10H-Benzo[4,5]cyclohepta[1,2-b]thiophen-10-one, 4,9-dihydro-4-(1-methyl-4-piperidinylidene)-, (2E)-2-butenedioate (1:1)", "10H-Benzo[4,5]cyclohepta[1,2-b]thiophen-10-one, 4,9-dihydro-4-(1-methyl-4-piperidinylidene)-, (E)-2-butenedioate (1:1)", "Ketotifen fumarate", "Zaditen", "Ketotifen hydrogen fumarate", "Zaditor", "Totifen", "HC 20511", "Allerkif", "Zasten", "HC 20511 fumarate", "Alaway"], "SMILES": "C(=CC(O)=O)C(O)=O.O=C1C2=C(C(C=3C(C1)=CC=CC3)=C4CCN(C)CC4)C=CS2", "physical_data": {"Molecular Weight": "", "Molecular Formula": "C19H19NOS.C4H4O4", "Melting Point": "192 \u00b0C (decomp)"}}