{"cas_no": "3458-72-8", "cn_name": "\u67e0\u6aac\u9178\u4e09\u94f5", "en_name": ["Triammonium citrate", "1,2,3-Propanetricarboxylic acid, 2-hydroxy-, ammonium salt (1:3)", "Citric acid, triammonium salt", "1,2,3-Propanetricarboxylic acid, 2-hydroxy-, triammonium salt", "Ammonium citrate ((NH4)3O7C6H5)", "Triammonium citrate", "Ammonium citrate", "2-Hydroxy-1,2,3-propanetricarboxylic acid triammonium salt", "Trisamine citrate"], "SMILES": "C(CC(O)=O)(CC(O)=O)(C(O)=O)O.N", "physical_data": {"Molecular Weight": "", "Molecular Formula": "C6H8O7.3H3N", "Melting Point": "150 \u00b0C (decomp)", "Density": "1.09 g/cm\u00b3 @ Temp: 26 \u00b0C"}}