{"cas_no": "3459-92-5", "cn_name": "\u4e8c\u82c4\u57fa\u78b3\u9178\u76d0[\u8102]", "en_name": ["Bis(phenylmethyl) carbonate", "Carbonic acid, bis(phenylmethyl) ester", "Carbonic acid, dibenzyl ester", "Bis(phenylmethyl) carbonate", "Dibenzyl carbonate", "Benzyl carbonate", "NSC 406789"], "SMILES": "C(OC(OCC1=CC=CC=C1)=O)C2=CC=CC=C2", "physical_data": {"Molecular Weight": "242.27", "Molecular Formula": "C15H14O3", "Boiling Point": "175-180 \u00b0C @ Press: 4 Torr", "Melting Point": "29-29.5 \u00b0C"}}