{"cas_no": "34590-94-8", "cn_name": "\u4e8c\u4e19\u4e8c\u9187\u7532\u919a", "en_name": ["Dipropylene glycol monomethyl ether", "Propanol, 1(or 2)-(2-methoxymethylethoxy)-", "Dipropylene glycol monomethyl ether", "1(or 2)-(2-Methoxymethylethoxy)propanol", "Dowanol DPM", "PPG-2 methyl ether", "Kino-red", "Arcosolv DPM", "Oxybispropanol methyl ether", "Dipropylene glycol methyl ether", "Methoxypropoxypropanol", "Methyl Dipropasol", "Glysolv DPM", "DPM", "Forguard M", "Methyl Propylene Di Glycol", "Hisolve DPM", "EBJ 105", "Dowanol DPM glycol ether", "Dowanol DMP"], "SMILES": "", "physical_data": {"Molecular Weight": "", "Molecular Formula": "C7H16O3", "Boiling Point": "190 \u00b0C", "Melting Point": "-80 \u00b0C", "Density": "0.95 g/cm\u00b3"}}