{"cas_no": "34592-47-7", "cn_name": "L-\u786b\u4ee3\u812f\u6c28\u9178", "en_name": ["L-Thioproline", "4-Thiazolidinecarboxylic acid, (4R)-", "4-Thiazolidinecarboxylic acid, (R)-", "4-Thiazolidinecarboxylic acid, L-", "(4R)-4-Thiazolidinecarboxylic acid", "L-4-Thiazolidinecarboxylic acid", "(R)-(-)-Thiazolidine-4-carboxylic acid", "L-Thioproline", "(R)-4-Thiazolidinecarboxylic acid", "(4R)-1,3-Thiazolidine-4-carboxylic acid", "(4R)-1,3-Thiazolidine-4-carboxylic acid", "(4R)-1,3-Thiazolidin-3-ium-4-carboxylate"], "SMILES": "C(O)(=O)C1CSCN1", "physical_data": {"Molecular Weight": "133.17", "Molecular Formula": "C4H7NO2S", "Melting Point": "195 \u00b0C"}}