{"cas_no": "34598-33-9", "cn_name": "2-\u6c28\u57fa\u7532\u82ef-5-\u78fa\u9178", "en_name": ["4,4,5,5,6,6,7,7,8,8,9,9,10,10,11,11,11-Heptadecafluoroundecanoic acid", "Undecanoic acid, 4,4,5,5,6,6,7,7,8,8,9,9,10,10,11,11,11-heptadecafluoro-", "4,4,5,5,6,6,7,7,8,8,9,9,10,10,11,11,11-Heptadecafluoroundecanoic acid", "3-Perfluorooctylpropionic acid", "Heptadecafluoroundecanoic acid", "2H,2H,3H,3H-Perfluoroundecanoic acid"], "SMILES": "C(C(C(C(C(F)(F)F)(F)F)(F)F)(F)F)(C(C(C(CCC(O)=O)(F)F)(F)F)(F)F)(F)F", "physical_data": {"Molecular Weight": "492.13", "Molecular Formula": "C11H5F17O2", "Melting Point": "91-92 \u00b0C"}}