{"cas_no": "34598-49-7", "cn_name": "5-\u6eb4\u831a\u916e", "en_name": ["5-Bromo-1-indanone", "1H-Inden-1-one, 5-bromo-2,3-dihydro-", "1-Indanone, 5-bromo-", "5-Bromo-2,3-dihydro-1H-inden-1-one", "5-Bromoindanone", "5-Bromo-1-indanone", "5-Bromo-2,3-dihydroinden-1-one", "5-Bromo-2,3-indan-1-one"], "SMILES": "O=C1C=2C(CC1)=CC(Br)=CC2", "physical_data": {"Molecular Weight": "211.06", "Molecular Formula": "C9H7BrO", "Melting Point": "126 \u00b0C"}}