{"cas_no": "34598-50-0", "cn_name": "BUTTPARK 91\\15-77", "en_name": ["5-Bromo-2,3-dihydro-1H-inden-1-ol", "1H-Inden-1-ol, 5-bromo-2,3-dihydro-", "5-Bromo-2,3-dihydro-1H-inden-1-ol", "5-Bromoindanol", "5-Bromo-1-indanol", "5-Bromo-1-hydroxy-2,3-dihydro-1H-indene"], "SMILES": "OC1C=2C(CC1)=CC(Br)=CC2", "physical_data": {"Molecular Weight": "213.07", "Molecular Formula": "C9H9BrO", "Melting Point": "77-79 \u00b0C"}}