{"cas_no": "3459-18-5", "cn_name": "4-\u785d\u57fa\u82ef\u57fa-2-\u4e59\u9170\u80fa\u57fa-2-\u8131\u6c27-B-D-\u5421\u5583\u8461\u7cd6\u9709", "en_name": ["p-Nitrophenyl N-acetyl-\u03b2-D-glucosaminide", "\u03b2-D-Glucopyranoside, 4-nitrophenyl 2-(acetylamino)-2-deoxy-", "Glucopyranoside, p-nitrophenyl 2-acetamido-2-deoxy-, \u03b2-D-", "Glucopyranoside, p-nitrophenyl 2-acetamido-2-deoxy-", "\u03b2-D-Glucoside, p-nitrophenyl 2-acetamido-2-deoxy-", "4-Nitrophenyl 2-(acetylamino)-2-deoxy-\u03b2-D-glucopyranoside", "p-Nitrophenyl N-acetyl-\u03b2-D-glucosaminide", "p-Nitrophenyl N-acetyl-\u03b2-glucosaminide", "4-Nitrophenyl 2-(acetylamino)-2-deoxy-\u03b2-D-glucoside", "4-Nitrophenyl N-acetylglucosaminide", "p-Nitrophenyl 2-acetamido-2-deoxy-\u03b2-D-glucopyranoside", "p-Nitrophenyl N-acetylglucosaminide", "4-Nitrophenyl N-acetyl-\u03b2-D-glucosaminide", "4-Nitrophenyl-\u03b2-D-2-deoxy-2-N-Acetylglucosaminopyranoside"], "SMILES": "O(C1C(NC(C)=O)C(O)C(O)C(CO)O1)C2=CC=C(N(=O)=O)C=C2", "physical_data": {"Molecular Weight": "342.30", "Molecular Formula": "C14H18N2O8", "Melting Point": "214 \u00b0C"}}