{"cas_no": "346-55-4", "cn_name": "4-\u6c2f-7-\u4e09\u6c1f\u7532\u57fa\u55b9\u5549", "en_name": ["4-Chloro-7-(trifluoromethyl)quinoline", "Quinoline, 4-chloro-7-(trifluoromethyl)-", "4-Chloro-7-(trifluoromethyl)quinoline", "4-Chloro-7-trifluoromethylquinoline"], "SMILES": "ClC=1C2=C(C=C(C(F)(F)F)C=C2)N=CC1", "physical_data": {"Molecular Weight": "231.60", "Molecular Formula": "C10H5ClF3N", "Melting Point": "71-72 \u00b0C"}}