{"cas_no": "346-18-9", "cn_name": "\u6cca\u5229\u567b\u55ea", "en_name": ["Polythiazide", "2H-1,2,4-Benzothiadiazine-7-sulfonamide, 6-chloro-3,4-dihydro-2-methyl-3-[[(2,2,2-trifluoroethyl)thio]methyl]-, 1,1-dioxide", "P 2525", "6-Chloro-3,4-dihydro-2-methyl-7-sulfamoyl-3-(2,2,2-trifluoroethylthiomethyl)-2H-1,2,4-benzothiadiazine 1,1-dioxide", "6-Chloro-3,4-dihydro-2-methyl-3-[[2,2,2-trifluoroethyl)thio]methyl]-2H-1,2,4-benzothiadiazine-7-sulfonamide 1,1-dioxide", "Drenusil", "2-Methyl-3-(\u03b2,\u03b2,\u03b2-trifluoroethylthiomethyl)-6-chloro-7-sulfamyl-3,4-dihydro-1,2,4-benzothiadiazine-1,1-dioxide", "Polythiazide", "Renese", "Nephril", "(\u00b1)-Polythiazide", "NSC 108161", "(\u00b1)-Nephril", "MeSH ID: D011139"], "SMILES": "O=S1(=O)C=2C(NC(CSCC(F)(F)F)N1C)=CC(Cl)=C(S(N)(=O)=O)C2", "physical_data": {"Molecular Weight": "439.88", "Molecular Formula": "C11H13ClF3N3O4S3", "Melting Point": "202.5 \u00b0C"}}