{"cas_no": "346-06-5", "cn_name": "2-\u4e09\u6c1f\u7532\u57fa\u82ef\u7532\u9187", "en_name": ["2-(Trifluoromethyl)benzenemethanol", "Benzenemethanol, 2-(trifluoromethyl)-", "Benzyl alcohol, o-(trifluoromethyl)-", "2-(Trifluoromethyl)benzenemethanol", "o-(Trifluoromethyl)benzyl alcohol", "2-(Trifluoromethyl)benzyl alcohol", "2-Trifluorobenzyl alcohol", "(2-Trifluoromethylphenyl)methanol"], "SMILES": "C(O)C1=C(C(F)(F)F)C=CC=C1", "physical_data": {"Molecular Weight": "176.14", "Molecular Formula": "C8H7F3O", "Boiling Point": "82-83 \u00b0C @ Press: 3.5 Torr"}}