{"cas_no": "34604-60-9", "cn_name": "5-\u7f9f\u57fa\u5421\u55ea-2-\u7fa7\u9178", "en_name": ["5-Hydroxypyrazine-2-carboxylic acid", "2-Pyrazinecarboxylic acid, 4,5-dihydro-5-oxo-", "Pyrazinecarboxylic acid, 4,5-dihydro-5-oxo-", "Pyrazinecarboxylic acid, 5-hydroxy-", "4,5-Dihydro-5-oxo-2-pyrazinecarboxylic acid", "5-Hydroxypyrazinoic acid", "5-Hydroxypyrazine-2-carboxylic acid", "5-Oxo-4,5-dihydropyrazine-2-carboxylic acid"], "SMILES": "C(O)(=O)C1=CNC(=O)C=N1", "physical_data": {"Molecular Weight": "140.10", "Molecular Formula": "C5H4N2O3", "Melting Point": "300 \u00b0C"}}