{"cas_no": "3460-23-9", "cn_name": "4-\u6eb4-2-\u6c2f\u4e59\u9170\u82ef\u80fa", "en_name": ["N-(4-Bromo-2-chlorophenyl)acetamide", "Acetamide, N-(4-bromo-2-chlorophenyl)-", "Acetanilide, 4\u2032-bromo-2\u2032-chloro-", "N-(4-Bromo-2-chlorophenyl)acetamide", "4\u2032-Bromo-2\u2032-chloroacetanilide", "N-(2-Chloro-4-Bromophenyl)acetamide"], "SMILES": "N(C(C)=O)C1=C(Cl)C=C(Br)C=C1", "physical_data": {"Molecular Weight": "248.50", "Molecular Formula": "C8H7BrClNO", "Melting Point": "151 \u00b0C"}}