{"cas_no": "3460-49-9", "cn_name": "4-\u4e59\u6c27\u57fa\u82ef\u57fa\u786b\u6c30\u9178\u916f", "en_name": ["1-Ethoxy-4-isothiocyanatobenzene", "Benzene, 1-ethoxy-4-isothiocyanato-", "Isothiocyanic acid, p-ethoxyphenyl ester", "Phenetole, p-isothiocyanato-", "1-Ethoxy-4-isothiocyanatobenzene", "p-Ethoxyphenyl isothiocyanate", "4-Ethoxyphenyl isothiocyanate", "NSC 108217", "1-Isothiocyanato-4-ethoxybenzene"], "SMILES": "N(=C=S)C1=CC=C(OCC)C=C1", "physical_data": {"Molecular Weight": "179.24", "Molecular Formula": "C9H9NOS", "Boiling Point": "153-154 \u00b0C @ Press: 15 Torr", "Melting Point": "62 \u00b0C"}}