{"cas_no": "3460-18-2", "cn_name": "2,5-\u4e8c\u6eb4\u785d\u57fa\u82ef", "en_name": ["2,5-Dibromonitrobenzene", "Benzene, 1,4-dibromo-2-nitro-", "1,4-Dibromo-2-nitrobenzene", "2,5-Dibromonitrobenzene", "2,5-Dibromo-1-nitrobenzene", "2-Nitro-4-bromobenzene bromide", "2-Nitro-1,4-dibromobenzene"], "SMILES": "N(=O)(=O)C1=C(Br)C=CC(Br)=C1", "physical_data": {"Molecular Weight": "280.90", "Molecular Formula": "C6H3Br2NO2", "Melting Point": "85.5 \u00b0C", "Density": "2.374 g/cm\u00b3 @ Temp: 16 \u00b0C"}}