{"cas_no": "3460-29-5", "cn_name": "2,5-\u4e8c\u7532\u57fa-4-\u785d\u57fa\u82ef\u80fa", "en_name": ["2,5-Dimethyl-4-nitrobenzenamine", "Benzenamine, 2,5-dimethyl-4-nitro-", "2,5-Xylidine, 4-nitro-", "2,5-Dimethyl-4-nitrobenzenamine", "2,5-Dimethyl-4-nitroaniline", "1-Amino-2,5-dimethyl-4-nitrobenzene", "NSC 135156", "NSC 43207"], "SMILES": "N(=O)(=O)C1=C(C)C=C(N)C(C)=C1", "physical_data": {"Molecular Weight": "166.18", "Molecular Formula": "C8H10N2O2", "Melting Point": "143-144 \u00b0C"}}