{"cas_no": "3460-44-4", "cn_name": "\u4e01\u9178-1-\u82ef\u4e59\u916f(9CI)", "en_name": ["\u03b1-Methylbenzyl butyrate", "Butanoic acid, 1-phenylethyl ester", "Butyric acid, \u03b1-methylbenzyl ester", "\u03b1-Methylbenzyl butyrate", "Styralyl butyrate", "\u03b1-Phenethyl butyrate", "1-Phenylethyl butanoate", "1-Phenylethyl butyrate"], "SMILES": "C(OC(CCC)=O)(C)C1=CC=CC=C1", "physical_data": {"Molecular Weight": "192.25", "Molecular Formula": "C12H16O2", "Boiling Point": "83.0-83.5 \u00b0C @ Press: 3 Torr", "Density": "0.9972 g/cm\u00b3 @ Temp: 20 \u00b0C"}}