{"cas_no": "34619-12-0", "cn_name": "4-\u5def\u57fa-2-\u4e01\u916e", "en_name": ["4-Mercapto-2-butanone", "2-Butanone, 4-mercapto-", "4-Mercapto-2-butanone", "2-keto-4-Butanethiol"], "SMILES": "C(C(C)=O)CS", "physical_data": {"Molecular Weight": "104.17", "Molecular Formula": "C4H8OS", "Boiling Point": "137-139 \u00b0C @ Press: 15 Torr"}}