{"cas_no": "34625-23-5", "cn_name": "\u4e59\u57fa D-\u5421\u5583\u8461\u8404\u7cd6\u82f7", "en_name": ["Ethyl glucoside", "D-Glucopyranoside, ethyl", "Ethyl D-glucopyranoside", "Ethyl glucoside", "Aqua Glucoside"], "SMILES": "O(CC)C1OC(CO)C(O)C(O)C1O", "physical_data": {"Molecular Weight": "208.21", "Molecular Formula": "C8H16O6", "Melting Point": "176-179 \u00b0C"}}