{"cas_no": "34626-51-2", "cn_name": "5-\u6eb4-1-\u620a\u9187", "en_name": ["5-Bromo-1-pentanol", "1-Pentanol, 5-bromo-", "5-Bromo-1-pentanol", "5-Bromopentanol", "1-Bromo-5-hydroxypentane"], "SMILES": "C(CCBr)CCO", "physical_data": {"Molecular Weight": "167.04", "Molecular Formula": "C5H11BrO", "Boiling Point": "72-74 \u00b0C @ Press: 0.2 Torr"}}