{"cas_no": "34622-58-7", "cn_name": "\u576a\u8349\u4e39", "en_name": ["Orbencarb", "Carbamothioic acid, N,N-diethyl-, S-[(2-chlorophenyl)methyl] ester", "Carbamothioic acid, diethyl-, S-[(2-chlorophenyl)methyl] ester", "S-(o-Chlorobenzyl) N,N-diethylthiocarbamate", "S-2-Chlorobenzyl N,N-diethylthiocarbamate", "B 3356", "Orthobencarb", "Orbencarb"], "SMILES": "C(SC(N(CC)CC)=O)C1=C(Cl)C=CC=C1", "physical_data": {"Molecular Weight": "257.78", "Molecular Formula": "C12H16ClNOS", "Boiling Point": "158 \u00b0C", "Melting Point": "9 \u00b0C"}}