{"cas_no": "3462-97-3", "cn_name": "(4-\u7532\u6c27\u57fa\u82c4\u57fa)\u4e09\u82ef\u57fa\u6c2f\u5316\u81a6", "en_name": ["(4-Methoxybenzyl)triphenylphosphonium chloride", "Phosphonium, [(4-methoxyphenyl)methyl]triphenyl-, chloride (1:1)", "Phosphonium, (p-methoxybenzyl)triphenyl-, chloride", "Phosphonium, [(4-methoxyphenyl)methyl]triphenyl-, chloride", "(p-Methoxybenzyl)triphenylphosphonium chloride", "(4-Methoxybenzyl)triphenylphosphonium chloride", "[(4-Methoxyphenyl)methyl]triphenylphosphonium chloride"], "SMILES": "[P+](CC1=CC=C(OC)C=C1)(C2=CC=CC=C2)(C3=CC=CC=C3)C4=CC=CC=C4.[Cl-]", "physical_data": {"Molecular Weight": "", "Molecular Formula": "C26H24OP.Cl", "Melting Point": "241-243 \u00b0C"}}