{"cas_no": "34633-69-7", "cn_name": "2,5-\u4e8c\u7532\u57fa-4-\u6c2f\u785d\u57fa\u82ef", "en_name": ["1-Chloro-2,5-dimethyl-4-nitrobenzene", "Benzene, 1-chloro-2,5-dimethyl-4-nitro-", "p-Xylene, 2-chloro-5-nitro-", "1-Chloro-2,5-dimethyl-4-nitrobenzene", "2-Chloro-5-nitro-p-xylene", "NSC 75002", "2,5-Dimethyl-4-chloro-1-nitrobenzene"], "SMILES": "N(=O)(=O)C1=C(C)C=C(Cl)C(C)=C1", "physical_data": {"Molecular Weight": "185.61", "Molecular Formula": "C8H8ClNO2", "Boiling Point": "135-136 \u00b0C @ Press: 13 Torr", "Melting Point": "97 \u00b0C"}}