{"cas_no": "34643-46-4", "cn_name": "\u4e19\u786b\u78f7", "en_name": ["Prothiofos", "Phosphorodithioic acid, O-(2,4-dichlorophenyl) O-ethyl S-propyl ester", "Tokuthion", "BAY-NTN 8629", "Prothiophos", "Prothiofos", "Toyodan", "Dichlorpropaphos"], "SMILES": "O(P(SCCC)(OCC)=S)C1=C(Cl)C=C(Cl)C=C1", "physical_data": {"Molecular Weight": "345.25", "Molecular Formula": "C11H15Cl2O2PS2", "Boiling Point": "126.5 \u00b0C", "Melting Point": "&lt;25 \u00b0C"}}