{"cas_no": "34654-80-3", "cn_name": "4-(3-\u7f9f\u4e19\u57fa\u6c28\u57fa)-1,3-\u4e8c\u7532\u57fa\u8132\u5627\u5576", "en_name": ["6-[(3-Hydroxypropyl)amino]-1,3-dimethyl-2,4(1H,3H)-pyrimidinedione", "2,4(1H,3H)-Pyrimidinedione, 6-[(3-hydroxypropyl)amino]-1,3-dimethyl-", "6-[(3-Hydroxypropyl)amino]-1,3-dimethyl-2,4(1H,3H)-pyrimidinedione", "4-(3-Hydroxypropylamino)-1,3-dimethyluracil", "1,3-Dimethyl-4-(\u03b3-hydroxypropylamino)uracil"], "SMILES": "N(CCCO)C=1N(C)C(=O)N(C)C(=O)C1", "physical_data": {"Molecular Weight": "213.23", "Molecular Formula": "C9H15N3O3", "Melting Point": "148-150 \u00b0C"}}