{"cas_no": "346599-63-1", "cn_name": "4-\u6c2f-5,7-\u4e8c\u6c22-6H-\u5421\u54af\u5e76[2,3-D]\u5627\u5576-6-\u916e", "en_name": ["4-Chloro-5,7-dihydro-6H-pyrrolo[2,3-d]pyrimidin-6-one", "6H-Pyrrolo[2,3-d]pyrimidin-6-one, 4-chloro-5,7-dihydro-", "6H-Pyrrolo[2,3-d]pyrimidin-6-one, 4-chloro-1,5-dihydro-", "4-Chloro-5,7-dihydro-6H-pyrrolo[2,3-d]pyrimidin-6-one", "4-Chloro-5,7-dihydropyrrolo[2,3-d]pyrimidin-6-one", "4-Chloro-5H-pyrrolo[2,3-d]pyrimidin-6(7H)-one"], "SMILES": "ClC1=C2C(NC(=O)C2)=NC=N1", "physical_data": {"Molecular Weight": "169.57", "Molecular Formula": "C6H4ClN3O", "Melting Point": "188-190 \u00b0C"}}