{"cas_no": "34662-32-3", "cn_name": "4-\u6c2f-2-\u785d\u57fa\u82ef\u7532\u8148", "en_name": ["4-Chloro-2-nitrobenzonitrile", "Benzonitrile, 4-chloro-2-nitro-", "4-Chloro-2-nitrobenzonitrile", "NSC 93896"], "SMILES": "N(=O)(=O)C1=C(C#N)C=CC(Cl)=C1", "physical_data": {"Molecular Weight": "182.56", "Molecular Formula": "C7H3ClN2O2", "Melting Point": "97 \u00b0C"}}