{"cas_no": "3466-82-8", "cn_name": "2-\u82ef\u57fa\u516d\u4e9a\u7532\u57fa\u4e9a\u80fa", "en_name": ["2-Phenylazepane", "1H-Azepine, hexahydro-2-phenyl-", "Hexamethylenimine, 2-phenyl-", "Hexahydro-2-phenyl-1H-azepine", "2-Phenylperhydroazepine", "2-Phenylhexahydroazepine", "2-Phenylazepane"], "SMILES": "C1(=CC=CC=C1)C2CCCCCN2", "physical_data": {"Molecular Weight": "175.27", "Molecular Formula": "C12H17N", "Boiling Point": "276-278 \u00b0C @ Press: 753 Torr"}}