{"cas_no": "3466-15-7", "cn_name": "\u9999\u9644\u70ef\u916e", "en_name": ["(+)-Cyperotundone", "3H-3a,7-Methanoazulen-2(4H)-one, 5,6,7,8-tetrahydro-1,4,9,9-tetramethyl-, (3aR,4R,7R)-", "3H-3a,7-Methanoazulen-2(4H)-one, 5,6,7\u03b1,8-tetrahydro-1,4\u03b1,9,9-tetramethyl-, (+)-", "3H-3a,7-Methanoazulen-2(4H)-one, 5,6,7,8-tetrahydro-1,4,9,9-tetramethyl-, [3aR-(3a\u03b1,4\u03b2,7\u03b1)]-", "3H-3a,7-Methanoazulen-2(4H)-one, 5,6,7\u03b1,8-tetrahydro-1,4\u03b1,9,9-tetramethyl-", "(3aR,4R,7R)-5,6,7,8-Tetrahydro-1,4,9,9-tetramethyl-3H-3a,7-methanoazulen-2(4H)-one", "Cyperotundone", "Cyperenone", "Isopatchoulenone", "(+)-Cyperotundone"], "SMILES": "CC1(C)C23C(CC1CCC2C)=C(C)C(=O)C3", "physical_data": {"Molecular Weight": "218.33", "Molecular Formula": "C15H22O", "Melting Point": "46-47.5 \u00b0C"}}