{"cas_no": "34662-28-7", "cn_name": "3-\u6c2f-2-\u785d\u57fa\u82ef\u8148", "en_name": ["3-Chloro-2-nitrobenzonitrile", "Benzonitrile, 3-chloro-2-nitro-", "3-Chloro-2-nitrobenzonitrile"], "SMILES": "N(=O)(=O)C1=C(C#N)C=CC=C1Cl", "physical_data": {"Molecular Weight": "182.56", "Molecular Formula": "C7H3ClN2O2", "Melting Point": "65 \u00b0C"}}