{"cas_no": "34661-75-1", "cn_name": "\u4e4c\u62c9\u5730\u5c14", "en_name": ["Urapidil", "2,4(1H,3H)-Pyrimidinedione, 6-[[3-[4-(2-methoxyphenyl)-1-piperazinyl]propyl]amino]-1,3-dimethyl-", "6-[[3-[4-(2-Methoxyphenyl)-1-piperazinyl]propyl]amino]-1,3-dimethyl-2,4(1H,3H)-pyrimidinedione", "Urapidil", "Ebrantil", "BKU", "Mediatensyl", "B 66256", "Eupressyl", "Uraprene", "NSC 310405", "Uropidil"], "SMILES": "O(C)C1=C(C=CC=C1)N2CCN(CCCNC=3N(C)C(=O)N(C)C(=O)C3)CC2", "physical_data": {"Molecular Weight": "387.48", "Molecular Formula": "C20H29N5O3", "Melting Point": "156-158 \u00b0C"}}