{"cas_no": "3466-80-6", "cn_name": "2-\u82ef\u57fa\u54cc\u5576", "en_name": ["2-Phenylpiperidine", "Piperidine, 2-phenyl-", "Piperidine, 2-phenyl-, (\u00b1)-", "2-Phenylpiperidine", "(\u00b1)-2-Phenylpiperidine"], "SMILES": "C1(=CC=CC=C1)C2CCCCN2", "physical_data": {"Molecular Weight": "161.24", "Molecular Formula": "C11H15N", "Boiling Point": "225.5-255 \u00b0C @ Press: 767 Torr", "Melting Point": "18 \u00b0C"}}