{"cas_no": "3466-32-8", "cn_name": "4-\u6eb4\u82ef\u7532\u781c", "en_name": ["4-Bromophenyl methyl sulfone", "Benzene, 1-bromo-4-(methylsulfonyl)-", "Sulfone, p-bromophenyl methyl", "1-Bromo-4-(methylsulfonyl)benzene", "p-Bromophenyl methyl sulfone", "Methyl 4-bromophenyl sulfone", "4-Bromophenyl methyl sulfone", "p-Bromo(methylsulfonyl)benzene", "Methyl p-bromophenyl sulfone", "[(4-Bromophenyl)sulfonyl]methane", "(4-Bromophenylsulfonyl)methane", "4-(Methanesulfonyl)bromobenzene", "NSC 174742", "4-Bromo-1-(methylsulfonyl)benzene", "1-Bromo-4-(methanesulfonyl)benzene", "4-(Methylsulfonyl)bromobenzene", "4-Methylsulfonylphenyl bromide", "1-Bromo-4-mesylbenzene"], "SMILES": "S(C)(=O)(=O)C1=CC=C(Br)C=C1", "physical_data": {"Molecular Weight": "235.10", "Molecular Formula": "C7H7BrO2S", "Melting Point": "102.5-103.0 \u00b0C"}}