{"cas_no": "346656-42-6", "cn_name": "2-(2-\u6c2f\u82ef\u57fa)-5,5-\u4e8c\u7532\u57fa-1,3,2-\u4e8c\u6c27\u787c\u6742\u73af\u5df1\u70f7", "en_name": ["2-(2-Chlorophenyl)-5,5-dimethyl-1,3,2-dioxaborinane", "1,3,2-Dioxaborinane, 2-(2-chlorophenyl)-5,5-dimethyl-", "2-(2-Chlorophenyl)-5,5-dimethyl-1,3,2-dioxaborinane"], "SMILES": "ClC1=C(C=CC=C1)B2OCC(C)(C)CO2", "physical_data": {"Molecular Weight": "224.49", "Molecular Formula": "C11H14BClO2", "Melting Point": "33-35 \u00b0C"}}