{"cas_no": "34662-31-2", "cn_name": "5-\u6c2f-2-\u785d\u57fa\u82c4\u8148", "en_name": ["5-Chloro-2-nitrobenzonitrile", "Benzonitrile, 5-chloro-2-nitro-", "5-Chloro-2-nitrobenzonitrile", "3-Chloro-6-nitrobenzonitrile", "1-Nitro-2-cyano-4-chlorobenzene", "NSC 310024"], "SMILES": "C(#N)C1=C(N(=O)=O)C=CC(Cl)=C1", "physical_data": {"Molecular Weight": "182.56", "Molecular Formula": "C7H3ClN2O2", "Melting Point": "164-165 \u00b0C"}}