{"cas_no": "346688-38-8", "cn_name": "4-[3-(\u7532\u78fa\u9170\u57fa)\u82ef\u57fa]-1-\u4e19\u57fa\u54cc\u5576", "en_name": ["Pridopidine", "Piperidine, 4-[3-(methylsulfonyl)phenyl]-1-propyl-", "4-[3-(Methylsulfonyl)phenyl]-1-propylpiperidine", "ACR 16", "ASP 2314", "Pridopidine", "FR 310826", "Huntexil"], "SMILES": "S(C)(=O)(=O)C=1C=C(C=CC1)C2CCN(CCC)CC2", "physical_data": {"Molecular Weight": "281.41", "Molecular Formula": "C15H23NO2S", "Melting Point": "212-214 \u00b0C"}}