{"cas_no": "34671-83-5", "cn_name": "2 2'-\u8054\u5627\u5576", "en_name": ["2,2\u2032-Bipyrimidine", "2,2\u2032-Bipyrimidine", "2,2\u2032-Dipyrimidine", "Bipyrimidyl", "[2,2\u2032]Bipyrimidinyl"], "SMILES": "C=1(N=CC=CN1)C=2N=CC=CN2", "physical_data": {"Molecular Weight": "158.16", "Molecular Formula": "C8H6N4", "Melting Point": "113.0-115.0 \u00b0C"}}