{"cas_no": "3467-59-2", "cn_name": "N-(2,5-\u4e8c\u7532\u6c27\u57fa\u82ef\u57fa)\u4e59\u9170\u80fa", "en_name": ["N-(2,5-Dimethoxyphenyl)acetamide", "Acetamide, N-(2,5-dimethoxyphenyl)-", "Acetanilide, 2\u2032,5\u2032-dimethoxy-", "N-(2,5-Dimethoxyphenyl)acetamide", "2\u2032,5\u2032-Dimethoxyacetanilide", "2-Acetamidohydroquinone dimethyl ether", "NSC 408044"], "SMILES": "N(C(C)=O)C1=C(OC)C=CC(OC)=C1", "physical_data": {"Molecular Weight": "195.22", "Molecular Formula": "C10H13NO3", "Melting Point": "93-94 \u00b0C"}}