{"cas_no": "3468-01-7", "cn_name": "3-\u7532\u57fa\u9ec4\u916e-8-\u7fa7\u9178", "en_name": ["3-Methylflavone-8-carboxylic acid", "4H-1-Benzopyran-8-carboxylic acid, 3-methyl-4-oxo-2-phenyl-", "3-Methyl-4-oxo-2-phenyl-4H-1-benzopyran-8-carboxylic acid", "3-Methylflavone-8-carboxylic acid", "8-Carboxy-3-methylflavone", "3-Methyl-4-oxo-2-phenyl-4H-chromene-8-carboxylic acid", "3-Methyl-4-oxo-2-phenylchromene-8-carboxylic acid"], "SMILES": "C(O)(=O)C1=C2C(C(=O)C(C)=C(O2)C3=CC=CC=C3)=CC=C1", "physical_data": {"Molecular Weight": "280.27", "Molecular Formula": "C17H12O4", "Melting Point": "215-220 \u00b0C"}}