{"cas_no": "3468-11-9", "cn_name": "1,3-\u4e8c\u4e9a\u80fa\u57fa\u5f02\u5432\u54da\u5549", "en_name": ["1-Imino-1H-isoindol-3-amine", "1H-Isoindol-3-amine, 1-imino-", "Isoindoline, 1,3-diimino-", "1H-Isoindole, 3-amino-1-imino-", "1-Imino-1H-isoindol-3-amine", "Fastogen Blue 5040", "Fastogen Blue FP-3100", "Fastogen Blue SH-100", "Phthalimidimide", "Phthalocyanine Blue 01216", "1-Amino-3-iminoisoindolenine", "1,3-Diiminoisoindoline", "3-Amino-1-imino-1H-isoindole", "3-Amino-1H-isoindol-1-imine", "1,3-Diiminoisoindolenine", "3-Iminoisoindolenin-1-amine", "NSC 516222", "Bis(diiminoisoindoline)", "2,3-Dihydro-1H-isoindole-1,3-diimine", "3-Iminoisoindol-1-amine"], "SMILES": "NC=1C=2C(C(=N)N1)=CC=CC2", "physical_data": {"Molecular Weight": "145.16", "Molecular Formula": "C8H7N3", "Melting Point": "~200 \u00b0C (approx)"}}