{"cas_no": "34688-71-6", "cn_name": "2,4,6-\u4e09\u7532\u57fa\u6c30\u82c4", "en_name": ["2,4,6-Trimethylbenzeneacetonitrile", "Benzeneacetonitrile, 2,4,6-trimethyl-", "Acetonitrile, mesityl-", "2,4,6-Trimethylbenzeneacetonitrile", "2,4,6-Trimethylbenzyl cyanide", "(2,4,6-Trimethylphenyl)acetonitrile", "Mesitylacetonitrile", "2-(2,4,6-Trimethylphenyl)ethanenitrile", "2-Mesitylacetonitrile", "2-(2,4,6-Trimethylphenyl)acetonitrile"], "SMILES": "C(C#N)C1=C(C)C=C(C)C=C1C", "physical_data": {"Molecular Weight": "159.23", "Molecular Formula": "C11H13N", "Boiling Point": "150-155 \u00b0C @ Press: 15 Torr", "Melting Point": "79 \u00b0C"}}