{"cas_no": "34681-23-7", "cn_name": "\u4e01\u916e\u781c\u5a01", "en_name": ["Butoxycarboxim", "2-Butanone, 3-(methylsulfonyl)-, O-[(methylamino)carbonyl]oxime", "Butoxycarboxim", "Co 859", "Butocarboxim sulfone", "(3-Methanesulfonylbutan-2-ylidene)amino N-methylcarbamate"], "SMILES": "C(C(=NOC(NC)=O)C)(S(C)(=O)=O)C", "physical_data": {"Molecular Weight": "222.26", "Molecular Formula": "C7H14N2O4S", "Melting Point": "85-89 \u00b0C", "Density": "1.21 g/cm\u00b3 @ Temp: 20 \u00b0C"}}