{"cas_no": "34681-10-2", "cn_name": "\u4e01\u916e\u5a01", "en_name": ["Butocarboxim", "2-Butanone, 3-(methylthio)-, O-[(methylamino)carbonyl]oxime", "3-(Methylthio)-2-butanone O-(methylcarbamoyl)oxime", "Co 755", "Butocarboxim", "Drawin 755", "Drawin", "Drawin 50", "[3-(Methylsulfanyl)butan-2-ylidene]amino N-methylcarbamate"], "SMILES": "C(=NOC(NC)=O)(C(SC)C)C", "physical_data": {"Molecular Weight": "190.26", "Molecular Formula": "C7H14N2O2S", "Melting Point": "25 \u00b0C", "Density": "1.12 g/cm\u00b3 @ Temp: 20 \u00b0C"}}