{"cas_no": "34683-73-3", "cn_name": "1-\u6c2f-6-\u7898\u5df1\u70f7", "en_name": ["1-Chloro-6-iodohexane", "Hexane, 1-chloro-6-iodo-", "1-Chloro-6-iodohexane", "1-Iodo-6-chlorohexane", "6-Chloro-1-iodohexane", "6-Iodo-1-chlorohexane"], "SMILES": "C(CCCI)CCCl", "physical_data": {"Molecular Weight": "246.52", "Molecular Formula": "C6H12ClI", "Boiling Point": "73-74 \u00b0C @ Press: 0.7 Torr"}}