{"cas_no": "3468-53-9", "cn_name": "\u70df\u9178\u82ef\u916f", "en_name": ["Phenyl 3-pyridinecarboxylate", "3-Pyridinecarboxylic acid, phenyl ester", "Nicotinic acid, phenyl ester", "Phenyl 3-pyridinecarboxylate", "Phenyl nicotinate", "NSC 75878"], "SMILES": "C(OC1=CC=CC=C1)(=O)C=2C=CC=NC2", "physical_data": {"Molecular Weight": "199.21", "Molecular Formula": "C12H9NO2", "Boiling Point": "166.5 \u00b0C @ Press: 9 Torr", "Melting Point": "59 \u00b0C"}}