{"cas_no": "3468-63-1", "cn_name": "\u989c\u6599\u6a59 5", "en_name": ["Fast Orange", "2-Naphthalenol, 1-[2-(2,4-dinitrophenyl)diazenyl]-", "C.I. Pigment Orange 5", "2-Naphthalenol, 1-[(2,4-dinitrophenyl)azo]-", "2-Naphthol, 1-(2,4-dinitrophenylazo)-", "1-[2-(2,4-Dinitrophenyl)diazenyl]-2-naphthalenol", "C.I. 12075", "Brilliant Tangerine 13030", "Calcotone Orange 2R", "Carnelio Red 2G", "Chromatex Orange R", "Dainichi Permanent Red GG", "Dinitroaniline Orange ND 204", "Dinitroaniline Red", "1-(2,4-Dinitrophenylazo)-2-naphthol", "Fastona Red 2G", "Graphtol Red 2GL", "Hansa Orange RN", "Helio Fast Orange 3RN", "Helio Fast Orange 3RT", "Helio Fast Orange RN", "Helio Fast Orange RT", "Irgalite Fast Red 2GL", "Irgalite Red 2G", "Irgalite Red 2GW", "Irgalite Red PV8", "Isol Fast Red 2G", "Lake Red 2GL", "Light Orange R", "Lutetia Fast Orange R", "Monolite Fast Orange 2R", "Monolite Fast Paper Orange 2R", "Monolite Fast Red 2G", "Nippon Orange X 881", "Oralith Red 2GL", "11048 Orange", "Orange Pigment X", "Permanent Orange DN Toner", "Permanent Orange GG", "Permanent Orange HD", "Permanent Orange Toner RA 5650", "Permanent Red GG", "Permansa Orange", "Permaton Orange XL 45-3015", "Segnale Light Orange RN", "Segnale Light Orange RNG", "Siegle Orange 2S", "Signal Orange Y 17", "Silopol Orange R", "Silosol Orange RN", "Siloton Orange RL", "Syton Fast Red 2G", "Tertropigment Orange LRN", "Tertropigment Red P2G", "Versal Orange RNL", "Pigment Orange 5", "D and C Orange No. 17", "Orange No. 203", "Permanent Orange", "Dinitraniline orange", "Pigment Fast Orange", "Dinitroaniline Orange", "Permanent Orange Toner", "Japan Orange 203", "Japan Orange No. 203", "Permaton Orange", "Fast Orange", "Pigment Orange Fast VCO", "Pigment Fast Orange VCO", "Dutch Vermilion", "EB Orange R 7305", "Sico Orange L 3051", "Lutetia Orange RN", "Seikafast Orange 3044", "Hansa Red GG", "NSC 15975", "Monolite Red 2G", "D&", "C Orange No. 17", "Pigment organge 5", "Permanent Orange RN", "Monolite Orange 200504", "P 0587", "Permanent Red 24"], "SMILES": "N(=NC1=C(N(=O)=O)C=C(N(=O)=O)C=C1)C=2C3=C(C=CC2O)C=CC=C3", "physical_data": {"Molecular Weight": "338.27", "Molecular Formula": "C16H10N4O5", "Melting Point": "298-300 \u00b0C"}}