{"cas_no": "3469-26-9", "cn_name": "2,7-\u4e8c\u7532\u6c27\u57fa\u8418", "en_name": ["2,7-Dimethoxynaphthalene", "Naphthalene, 2,7-dimethoxy-", "2,7-Dimethoxynaphthalene", "NSC 28991"], "SMILES": "O(C)C1=CC2=C(C=CC(OC)=C2)C=C1", "physical_data": {"Molecular Weight": "188.22", "Molecular Formula": "C12H12O2", "Boiling Point": "185-195 \u00b0C @ Press: 15 Torr", "Melting Point": "138 \u00b0C"}}