{"cas_no": "3469-69-0", "cn_name": "4-\u7898\u5421\u5511", "en_name": ["4-Iodopyrazole", "1H-Pyrazole, 4-iodo-", "Pyrazole, 4-iodo-", "4-Iodo-1H-pyrazole", "4-Iodopyrazole", "4-Iodo-1H-pyrazol"], "SMILES": "IC=1C=NNC1", "physical_data": {"Molecular Weight": "193.97", "Molecular Formula": "C3H3IN2", "Melting Point": "108-110 \u00b0C"}}