{"cas_no": "3469-20-3", "cn_name": "2,3-\u4e8c\u82ef\u57fa\u5432\u54da", "en_name": ["2,3-Diphenylindole", "1H-Indole, 2,3-diphenyl-", "Indole, 2,3-diphenyl-", "2,3-Diphenyl-1H-indole", "2,3-Diphenylindole", "NSC 17363"], "SMILES": "C1(=C(NC=2C1=CC=CC2)C3=CC=CC=C3)C4=CC=CC=C4", "physical_data": {"Molecular Weight": "269.34", "Molecular Formula": "C20H15N", "Boiling Point": "184-208 \u00b0C @ Press: 0.065 Torr", "Melting Point": "122-123 \u00b0C"}}