{"cas_no": "34698-41-4", "cn_name": "1-\u6c28\u57fa\u831a\u6ee1", "en_name": ["(\u00b1)-1-Aminoindan", "1H-Inden-1-amine, 2,3-dihydro-", "1-Indanamine", "2,3-Dihydro-1H-inden-1-amine", "1-Aminoindan", "1-Indanylamine", "(RS)-1-Aminoindan", "(\u00b1)-1-Aminoindan", "dl-Indan-1-amine", "NSC 62540", "TVP 136", "2,3-Dihydro-1H-inden-1-ylamine", "(\u00b1)-2,3-Dihydro-1H-inden-1-amine"], "SMILES": "NC1C=2C(=CC=CC2)CC1", "physical_data": {"Molecular Weight": "133.19", "Molecular Formula": "C9H11N", "Boiling Point": "92-95 \u00b0C @ Press: 7 Torr"}}