{"cas_no": "3469-00-9", "cn_name": "\u4e8c\u82ef\u57fa\u4e59\u9178\u7532\u916f", "en_name": ["Methyl \u03b1-phenylbenzeneacetate", "Benzeneacetic acid, \u03b1-phenyl-, methyl ester", "Acetic acid, diphenyl-, methyl ester", "Methyl \u03b1-phenylbenzeneacetate", "Diphenylacetic acid, methyl ester", "Methyl diphenylacetate", "Methyl 2,2-diphenylacetate", "NSC 120416", "NSC 27912"], "SMILES": "C(C(OC)=O)(C1=CC=CC=C1)C2=CC=CC=C2", "physical_data": {"Molecular Weight": "226.27", "Molecular Formula": "C15H14O2", "Boiling Point": "136-141 \u00b0C @ Press: 0.8 Torr", "Melting Point": "39-43 \u00b0C"}}