{"cas_no": "347-66-0", "cn_name": "2-\u6c2f-N-(2-\u6c1f\u82ef\u57fa)\u4e59\u9170\u80fa", "en_name": ["2-Chloro-N-(2-fluorophenyl)acetamide", "Acetamide, 2-chloro-N-(2-fluorophenyl)-", "Acetanilide, 2-chloro-2\u2032-fluoro-", "2-Chloro-N-(2-fluorophenyl)acetamide", "N-(2-Fluorophenyl)-2-chloroacetamide"], "SMILES": "N(C(CCl)=O)C1=C(F)C=CC=C1", "physical_data": {"Molecular Weight": "187.60", "Molecular Formula": "C8H7ClFNO", "Melting Point": "88-90 \u00b0C"}}