{"cas_no": "347-93-3", "cn_name": "3'-\u6c2f-4-\u6c1f\u82ef\u4e19\u916e", "en_name": ["3-Chloro-4\u2032-fluoropropiophenone", "1-Propanone, 3-chloro-1-(4-fluorophenyl)-", "Propiophenone, 3-chloro-4\u2032-fluoro-", "3-Chloro-1-(4-fluorophenyl)-1-propanone", "2-Chloroethyl p-fluorophenyl ketone", "3-Chloro-4\u2032-fluoropropiophenone", "2-(p-Fluorobenzoyl)ethyl chloride", "\u03b2-Chloro-4\u2032-fluoropropiophenone", "1-(3-Chloropropanoyl)-4-fluorobenzene", "2-Chloroethyl 4-fluorophenyl ketone", "NSC 36072"], "SMILES": "C(CCCl)(=O)C1=CC=C(F)C=C1", "physical_data": {"Molecular Weight": "186.61", "Molecular Formula": "C9H8ClFO", "Boiling Point": "100-103 \u00b0C @ Press: 3 Torr", "Melting Point": "49-50 \u00b0C"}}