{"cas_no": "347-63-7", "cn_name": "3-(3-\u6c1f-4-\u7532\u6c27\u57fa\u82ef\u7532\u9170)\u4e19\u9178", "en_name": ["3-Fluoro-4-methoxy-\u03b3-oxobenzenebutanoic acid", "Benzenebutanoic acid, 3-fluoro-4-methoxy-\u03b3-oxo-", "Propionic acid, 3-(3-fluoro-p-anisoyl)-", "3-Fluoro-4-methoxy-\u03b3-oxobenzenebutanoic acid", "3-(3-Fluoro-4-methoxybenzoyl)propionic acid", "NSC 87577", "3-(4-Methoxy-3-fluorobenzoyl)propanoic acid", "4-(3-Fluoro-4-methoxyphenyl)-4-oxobutanoic acid"], "SMILES": "C(CCC(O)=O)(=O)C1=CC(F)=C(OC)C=C1", "physical_data": {"Molecular Weight": "226.20", "Molecular Formula": "C11H11FO4", "Melting Point": "168-170 \u00b0C"}}