{"cas_no": "347-55-7", "cn_name": "2-(\u4e09\u6c1f\u7532\u57fa\u786b\u4ee3)\u82ef\u80fa", "en_name": ["2-[(Trifluoromethyl)thio]benzenamine", "Benzenamine, 2-[(trifluoromethyl)thio]-", "Aniline, o-[(trifluoromethyl)thio]-", "2-[(Trifluoromethyl)thio]benzenamine", "2-[(Trifluoromethyl)thio]aniline"], "SMILES": "S(C(F)(F)F)C1=C(N)C=CC=C1", "physical_data": {"Molecular Weight": "193.19", "Molecular Formula": "C7H6F3NS", "Boiling Point": "70-72 \u00b0C @ Press: 7 Torr", "Melting Point": "30-31 \u00b0C"}}