{"cas_no": "3470-50-6", "cn_name": "6-\u7f9f\u57fa-1-\u56db\u6c22\u8418\u916e", "en_name": ["3,4-Dihydro-6-hydroxy-1(2H)-naphthalenone", "1(2H)-Naphthalenone, 3,4-dihydro-6-hydroxy-", "3,4-Dihydro-6-hydroxy-1(2H)-naphthalenone", "6-Hydroxy-1-tetralone", "6-Hydroxy-\u03b1-tetralone", "6-Hydroxy-3,4-dihydronaphthalen-1(2H)-one", "3,4-Dihydro-6-hydroxy-1(2H)-Naphthalenone", "6-Hydroxy-3,4-dihydro-2H-naphthalen-1-one", "6-Hydroxy-3,4-dihydronaphthalene-1(2H)-one", "6-Hydroxy-1,2,3,4-tetrahydronaphthalen-1-one", "1,2,3,4-Tetrahydro-6-hydroxynaphthyl-1-one", "6-Hydroxytetralin-1-one"], "SMILES": "O=C1C=2C(=CC(O)=CC2)CCC1", "physical_data": {"Molecular Weight": "162.19", "Molecular Formula": "C10H10O2", "Melting Point": "150 \u00b0C"}}