{"cas_no": "3470-98-2", "cn_name": "1-\u4e01\u57fa-2-\u5421\u54af\u70f7\u916e", "en_name": ["N-Butyl-2-pyrrolidone", "2-Pyrrolidinone, 1-butyl-", "1-Butyl-2-pyrrolidinone", "N-Butyl-2-pyrrolidone", "N-Butylpyrrolidinone", "N-Butyl-2-pyrrolidinone", "N-Butylpyrrolidone", "1-Butyl-2-pyrrolidone", "N-Butylbutyrolactam", "Genagen NBP", "N-Butyl-\u03b3-butyrolactam"], "SMILES": "C(CCC)N1C(=O)CCC1", "physical_data": {"Molecular Weight": "141.21", "Molecular Formula": "C8H15NO", "Boiling Point": "121 \u00b0C @ Press: 16 Torr", "Density": "0.964 g/cm\u00b3 @ Temp: 20 \u00b0C"}}