{"cas_no": "3470-99-3", "cn_name": "1-\u4e19\u57fa-2-\u5421\u54af\u70f7\u916e", "en_name": ["N-Propyl-2-pyrrolidone", "2-Pyrrolidinone, 1-propyl-", "1-Propyl-2-pyrrolidinone", "N-Propylpyrrolidone", "N-Propyl-2-pyrrolidinone", "N-Propyl-2-pyrrolidone", "1-Propylazacyclopentan-2-one", "1-Propyl-2-pyrrolidone", "N-Propylbutyrolactam"], "SMILES": "C(CC)N1C(=O)CCC1", "physical_data": {"Molecular Weight": "127.18", "Molecular Formula": "C7H13NO", "Boiling Point": "117-120 \u00b0C @ Press: 23 Torr", "Melting Point": "53-54 \u00b0C"}}