{"cas_no": "34708-08-2", "cn_name": "3-\u786b\u6c30\u57fa\u4e19\u57fa\u4e09\u4e59\u6c27\u57fa\u7845\u70f7", "en_name": ["(3-Thiocyanatopropyl)triethoxysilane", "Thiocyanic acid, 3-(triethoxysilyl)propyl ester", "Triethoxy(3-thiocyanatopropyl)silane", "(3-Thiocyanatopropyl)triethoxysilane", "Si 264", "(\u03b3-Thiocyanatopropyl)triethoxysilane", "HP 264", "SIT 7908.0", "(Thiocyanatopropyl)triethoxysilane", "3-Triethoxysilylpropyl thiocyanate"], "SMILES": "[Si](CCCSC#N)(OCC)(OCC)OCC", "physical_data": {"Molecular Weight": "263.43", "Molecular Formula": "C10H21NO3SSi", "Boiling Point": "95 \u00b0C @ Press: 0.1 Torr", "Density": "1.030 g/cm\u00b3"}}