{"cas_no": "3471-31-6", "cn_name": "5-\u7532\u6c27\u57fa\u5432\u54da-3-\u4e59\u9178", "en_name": ["5-Methoxyindoleacetic acid", "1H-Indole-3-acetic acid, 5-methoxy-", "Indole-3-acetic acid, 5-methoxy-", "5-Methoxy-1H-indole-3-acetic acid", "5-Methoxyindoleacetic acid", "5-Methoxy-3-indoleacetic acid", "5-Methoxy-3-indolylacetic acid", "5-Methyloxyindole-3-acetic acid", "Methoxyindoleacetic acid", "5-Methoxy-IAA", "2-(5-Methoxy-3-indolyl)acetic acid", "2-(5-Methoxy-1H-indol-3-yl)acetic acid", "(5-Methoxy-1H-indol-3-yl)acetic acid"], "SMILES": "C(C(O)=O)C=1C=2C(NC1)=CC=C(OC)C2", "physical_data": {"Molecular Weight": "205.21", "Molecular Formula": "C11H11NO3", "Melting Point": "146-147 \u00b0C"}}