{"cas_no": "34713-94-5", "cn_name": "DL-2-\u7532\u57fa-1-\u4e01\u9187", "en_name": ["2-Methyl-1-butanol", "1-Butanol, 2-methyl-", "2-Methyl-1-butanol", "sec-Butylcarbinol", "Primary active amyl alcohol", "Active amyl alcohol", "Active primary amyl alcohol", "2-Methyl-n-butanol", "2-Methylbutyl alcohol", "(\u00b1)-2-Methyl-1-butanol", "NSC 8431"], "SMILES": "C(CC)(CO)C", "physical_data": {"Molecular Weight": "88.15", "Molecular Formula": "C5H12O", "Boiling Point": "128 \u00b0C @ Press: 760 Torr", "Melting Point": "-70 \u00b0C", "Density": "0.816 g/cm\u00b3 @ Temp: 20 \u00b0C"}}