{"cas_no": "3473-76-5", "cn_name": "\u82ef\u80fa\u7532\u57fa\u4e09\u4e59\u6c27\u57fa\u7845\u70f7", "en_name": ["(Anilinomethyl)triethoxysilane", "Benzenamine, N-[(triethoxysilyl)methyl]-", "Aniline, N-[(triethoxysilyl)methyl]-", "N-[(Triethoxysilyl)methyl]benzenamine", "(Anilinomethyl)triethoxysilane", "[(Phenylamino)methyl]triethoxysilane", "ND 42", "KH 42", "KH 42 (coupling agent)", "Sj 42", "KH-ND 42", "SiSiB PC 1711", "Aniline methyltriethoxysilane"], "SMILES": "[Si](CNC1=CC=CC=C1)(OCC)(OCC)OCC", "physical_data": {"Molecular Weight": "269.41", "Molecular Formula": "C13H23NO3Si", "Boiling Point": "135-137 \u00b0C @ Press: 4 Torr", "Density": "1.004 g/cm\u00b3 @ Temp: 25 \u00b0C"}}