{"cas_no": "3473-63-0", "cn_name": "\u918b\u9178\u7532\u8112", "en_name": ["Formamidine acetate", "Methanimidamide, acetate (1:1)", "Formamidine, monoacetate", "Methanimidamide, monoacetate", "Formamidine acetate", "Formamidinium acetate", "Methanimidamide acetate", "Formamidine acetate (1:1)", "NSC 96608", "Formimidamide acetate", "Acetic acid methanimidamide"], "SMILES": "C(C)(O)=O.C(=N)N", "physical_data": {"Molecular Weight": "", "Molecular Formula": "C2H4O2.CH4N2", "Melting Point": "162-164 \u00b0C"}}