{"cas_no": "34737-89-8", "cn_name": "1-\u82c4\u57fa-3-\u7532\u57fa-4-\u54cc\u5576\u916e", "en_name": ["1-Benzyl-3-methylpiperidin-4-one", "4-Piperidinone, 3-methyl-1-(phenylmethyl)-", "4-Piperidone, 1-benzyl-3-methyl-", "3-Methyl-1-(phenylmethyl)-4-piperidinone", "1-Benzyl-3-methyl-4-piperidone", "N-Benzyl-3-methyl-4-piperidone", "1-Benzyl-3-methyl-4-oxopiperidine", "1-Benzyl-3-methylpiperidin-4-one", "N-Benzyl-3-methyl-4-piperidinone"], "SMILES": "C(N1CC(C)C(=O)CC1)C2=CC=CC=C2", "physical_data": {"Molecular Weight": "203.28", "Molecular Formula": "C13H17NO", "Boiling Point": "112-117 \u00b0C @ Press: 1 Torr"}}