{"cas_no": "34732-09-7", "cn_name": "2,3,4-\u4e09\u6c2f\u82ef\u78fa\u9170\u6c2f", "en_name": ["2,3,4-Trichlorobenzenesulfonyl chloride", "Benzenesulfonyl chloride, 2,3,4-trichloro-", "2,3,4-Trichlorobenzenesulfonyl chloride", "2,3,4-Trichlorophenylsulfonyl chloride", "2,3,4-Trichlorobenzene-1-sulfonyl chloride"], "SMILES": "S(Cl)(=O)(=O)C1=C(Cl)C(Cl)=C(Cl)C=C1", "physical_data": {"Molecular Weight": "279.96", "Molecular Formula": "C6H2Cl4O2S", "Melting Point": "65-66 \u00b0C"}}