{"cas_no": "34743-88-9", "cn_name": "2-(4-\u6eb4\u82ef\u6c27\u57fa)\u4e59\u9187", "en_name": ["2-(4-Bromophenoxy)ethanol", "Ethanol, 2-(4-bromophenoxy)-", "Ethanol, 2-(p-bromophenoxy)-", "2-(4-Bromophenoxy)ethanol", "2-(p-Bromophenoxy)ethanol", "\u03b2-(p-Bromophenoxy)ethanol", "NSC 190715", "1-Bromo-4-(2-hydroxyethoxy)benzene", "2-(4-Bromophenoxy)ethan-1-ol"], "SMILES": "O(CCO)C1=CC=C(Br)C=C1", "physical_data": {"Molecular Weight": "217.06", "Molecular Formula": "C8H9BrO2", "Boiling Point": "132-134 \u00b0C @ Press: 4.6 Torr", "Melting Point": "55 \u00b0C"}}