{"cas_no": "3475-21-6", "cn_name": "4-\u7532\u57fa-2-\u82ef\u57fa\u5421\u5576", "en_name": ["4-Methyl-2-phenylpyridine", "Pyridine, 4-methyl-2-phenyl-", "4-Picoline, 2-phenyl-", "4-Methyl-2-phenylpyridine", "2-Phenyl-4-methylpyridine", "2-Phenyl-4-picoline"], "SMILES": "CC=1C=C(N=CC1)C2=CC=CC=C2", "physical_data": {"Molecular Weight": "169.22", "Molecular Formula": "C12H11N", "Boiling Point": "110-115 \u00b0C @ Press: 3 Torr", "Melting Point": "48.4-49.7 \u00b0C"}}