{"cas_no": "34756-16-6", "cn_name": "5-\u7532\u57fa\u544b\u5583-2-\u4e19\u919b", "en_name": ["5-Methyl-2-furanpropanal", "2-Furanpropanal, 5-methyl-", "2-Furanpropionaldehyde, 5-methyl-", "5-Methyl-2-furanpropanal", "3-(5-Methyl-2-furyl)propanal", "3-(5-Methyl-2-furyl)propionaldehyde", "NSC 239322", "3-(5-Methylfuryl)propanal", "3-(5-Methylfuran-2-yl)propanal"], "SMILES": "C(CC=O)C=1OC(C)=CC1", "physical_data": {"Molecular Weight": "138.16", "Molecular Formula": "C8H10O2", "Boiling Point": "56-56.5 \u00b0C @ Press: 3 Torr", "Density": "1.0350 g/cm\u00b3 @ Temp: 20 \u00b0C"}}