{"cas_no": "34761-47-2", "cn_name": "\u5168\u6c1f-2,5,8,11-\u56db\u7532\u57fa-3,6,9,12-\u56db\u6c27\u6742\u5341\u4e94\u9170\u6c1f", "en_name": ["2,4,4,5,7,7,8,10,10,11,13,13,14,14,15,15,15-Heptadecafluoro-2,5,8,11-tetrakis(trifluoromethyl)-3,6,9,12-tetraoxapentadecanoyl fluoride", "3,6,9,12-Tetraoxapentadecanoyl fluoride, 2,4,4,5,7,7,8,10,10,11,13,13,14,14,15,15,15-heptadecafluoro-2,5,8,11-tetrakis(trifluoromethyl)-", "2,4,4,5,7,7,8,10,10,11,13,13,14,14,15,15,15-Heptadecafluoro-2,5,8,11-tetrakis(trifluoromethyl)-3,6,9,12-tetraoxapentadecanoyl fluoride", "2,3,3,3-Tetrafluoro-2-[1,1,2,3,3,3-hexafluoro-2-[1,1,2,3,3,3-hexafluoro-2-[1,1,2,3,3,3-hexafluoro-2-(1,1,2,2,3,3,3-heptafluoropropoxy)propoxy]propoxy]propoxy]propanoyl fluoride"], "SMILES": "C(C(OC(C(OC(C(OC(C(F)(F)F)(C(F)=O)F)(F)F)(C(F)(F)F)F)(F)F)(C(F)(F)F)F)(F)F)(OC(C(C(F)(F)F)(F)F)(F)F)(C(F)(F)F)F", "physical_data": {"Molecular Weight": "830.11", "Molecular Formula": "C15F30O5", "Boiling Point": "162-163 \u00b0C @ Press: 760 Torr"}}