{"cas_no": "3476-89-9", "cn_name": "1,2,3,4-\u56db\u6c22\u55b9\u5594\u5549", "en_name": ["1,2,3,4-Tetrahydroquinoxaline", "Quinoxaline, 1,2,3,4-tetrahydro-", "1,2,3,4-Tetrahydroquinoxaline", "NSC 48945"], "SMILES": "C1=2C(NCCN1)=CC=CC2", "physical_data": {"Molecular Weight": "134.18", "Molecular Formula": "C8H10N2", "Boiling Point": "289 \u00b0C", "Melting Point": "99 \u00b0C"}}