{"cas_no": "34784-05-9", "cn_name": "6-\u6eb4\u5f02\u55b9\u5549", "en_name": ["6-Bromoisoquinoline", "Isoquinoline, 6-bromo-", "6-Bromoisoquinoline", "NSC 229320", "(Isoquinolin-6-yl)bromide"], "SMILES": "BrC1=CC2=C(C=C1)C=NC=C2", "physical_data": {"Molecular Weight": "208.05", "Molecular Formula": "C9H6BrN", "Melting Point": "39 \u00b0C"}}