{"cas_no": "34784-06-0", "cn_name": "7-\u6c2f\u5f02\u55b9\u5549", "en_name": ["7-Chloroisoquinoline", "Isoquinoline, 7-chloro-", "7-Chloroisoquinoline"], "SMILES": "ClC1=CC2=C(C=C1)C=CN=C2", "physical_data": {"Molecular Weight": "163.60", "Molecular Formula": "C9H6ClN", "Melting Point": "45 \u00b0C"}}