{"cas_no": "3478-94-2", "cn_name": "\u7c89\u75c5\u7075", "en_name": ["Piperalin", "Benzoic acid, 3,4-dichloro-, 3-(2-methyl-1-piperidinyl)propyl ester", "Benzoic acid, 3,4-dichloro-, 3-(2-methylpiperidino)propyl ester", "1-Piperidinepropanol, 2-methyl-, 3,4-dichlorobenzoate (ester)", "EL 211", "\u03b3-(2-Methylpiperidino)propyl 3,4-dichlorobenzoate", "3-(2-Methylpiperidino)propyl 3,4-dichlorobenzoate", "Piperalin", "Pipron"], "SMILES": "C(OCCCN1C(C)CCCC1)(=O)C2=CC(Cl)=C(Cl)C=C2", "physical_data": {"Molecular Weight": "330.25", "Molecular Formula": "C16H21Cl2NO2", "Boiling Point": "156-157 \u00b0C @ Press: 20 Torr", "Melting Point": "&lt;25 \u00b0C", "Density": "1.18 g/cm\u00b3"}}