{"cas_no": "3479-47-8", "cn_name": "Cbz-L-\u5929\u51ac\u6c28\u9178-4-\u82c4\u916f", "en_name": ["4-(Phenylmethyl) hydrogen N-[(phenylmethoxy)carbonyl]-L-aspartate", "L-Aspartic acid, N-[(phenylmethoxy)carbonyl]-, 4-(phenylmethyl) ester", "Aspartic acid, N-carboxy-, N,4-dibenzyl ester, L-", "4-(Phenylmethyl) hydrogen N-[(phenylmethoxy)carbonyl]-L-aspartate", "N-Carbobenzoxy-\u03b2-benzyl-L-aspartate", "\u03b2-Benzyl-N-(benzyloxycarbonyl)-L-aspartic acid", "N-Carbobenzoxy-L-aspartic acid 4-benzyl ester", "N-Carbobenzoxy-L-aspartic acid \u03b2-benzyl ester", "\u03b2-Benzyl N-(benzyloxycarbonyl)-L-aspartate", "N-(Benzyloxycarbonyl)-L-aspartic acid \u03b2-benzyl ester", "N-(Benzyloxycarbonyl)aspartic acid \u03b2-benzyl ester", "NSC 163521", "N\u03b1-(Benzyloxycarbonyl)-L-aspartic acid 4-benzyl ester", "(2S)-4-Oxo-4-phenylmethoxy-2-(phenylmethoxycarbonylamino)butanoic acid"], "SMILES": "C(CC(OCC1=CC=CC=C1)=O)(NC(OCC2=CC=CC=C2)=O)C(O)=O", "physical_data": {"Molecular Weight": "357.36", "Molecular Formula": "C19H19NO6", "Melting Point": "103 \u00b0C"}}