{"cas_no": "348-40-3", "cn_name": "2-\u6c28\u57fa-6-\u6c1f\u82ef\u5e76\u567b\u5511", "en_name": ["2-Amino-6-fluorobenzothiazole", "2-Benzothiazolamine, 6-fluoro-", "Benzothiazole, 2-amino-6-fluoro-", "6-Fluoro-2-benzothiazolamine", "2-Amino-6-fluorobenzothiazole", "6-Fluoro-2-aminobenzothiazole", "6-Fluoro-1,3-benzothiazol-2-ylamine", "6-Fluorobenzothiazol-2-ylamine", "2-Amino-6-fluoro-1,3-benzothiazole", "NSC 266095", "6-Fluorobenzothiazol-2-amine", "SKA 18", "6-Fluoro-1,3-benzothiazol-2-amine", "6-Fluorobenzo[d]thiazol-2-amine"], "SMILES": "NC1=NC=2C(S1)=CC(F)=CC2", "physical_data": {"Molecular Weight": "168.19", "Molecular Formula": "C7H5FN2S", "Melting Point": "183 \u00b0C"}}