{"cas_no": "348-51-6", "cn_name": "2-\u6c2f\u6c1f\u82ef", "en_name": ["1-Chloro-2-fluorobenzene", "Benzene, 1-chloro-2-fluoro-", "1-Chloro-2-fluorobenzene", "o-Chlorofluorobenzene", "1-Fluoro-2-chlorobenzene", "o-Fluorochlorobenzene", "2-Chlorofluorobenzene", "o-Monofluoromonochlorobenzene", "2-Fluoro-1-chlorobenzene", "NSC 10270", "2-Fluorophenyl chloride"], "SMILES": "ClC1=C(F)C=CC=C1", "physical_data": {"Molecular Weight": "130.55", "Molecular Formula": "C6H4ClF", "Boiling Point": "137.6 \u00b0C", "Melting Point": "-43 \u00b0C", "Density": "1.2346 g/cm\u00b3 @ Temp: 25.00 \u00b0C"}}