{"cas_no": "348-54-9", "cn_name": "2-\u6c1f\u82ef\u80fa", "en_name": ["2-Fluoroaniline", "Benzenamine, 2-fluoro-", "Aniline, o-fluoro-", "2-Fluorobenzenamine", "o-Fluoroaniline", "2-Fluoroaniline", "1-Amino-2-fluorobenzene", "2-Fluorophenylamine", "NSC 10299"], "SMILES": "FC1=C(N)C=CC=C1", "physical_data": {"Molecular Weight": "111.12", "Molecular Formula": "C6H6FN", "Boiling Point": "175 \u00b0C", "Melting Point": "-34.6 \u00b0C", "Density": "1.1476 g/cm\u00b3 @ Temp: 25.00 \u00b0C"}}