{"cas_no": "348-32-3", "cn_name": "4-\u6c1f\u5432\u54da-2-\u7fa7\u9178\u4e59\u916f", "en_name": ["Ethyl 4-fluoro-1H-indole-2-carboxylate", "1H-Indole-2-carboxylic acid, 4-fluoro-, ethyl ester", "2-Indolecarboxylic acid, 4-fluoro-, ethyl ester", "Ethyl 4-fluoro-1H-indole-2-carboxylate"], "SMILES": "FC1=C2C(NC(C(OCC)=O)=C2)=CC=C1", "physical_data": {"Molecular Weight": "207.20", "Molecular Formula": "C11H10FNO2", "Melting Point": "121 \u00b0C"}}