{"cas_no": "348-52-7", "cn_name": "2-\u6c1f\u7898\u82ef", "en_name": ["1-Fluoro-2-iodobenzene", "Benzene, 1-fluoro-2-iodo-", "1-Fluoro-2-iodobenzene", "o-Fluoroiodobenzene", "o-Iodofluorobenzene", "o-Fluorophenyl iodide", "2-Fluoroiodobenzene", "1-Iodo-2-fluorobenzene", "2-Iodofluorobenzene", "2-Fluorophenyl iodide", "NSC 51766", "1-Fluoro-2-iodo-5-trifluoromethylbenzene", "2-Iodo-1-fluorobenzene", "2-Fluoro-1-iodobenzene"], "SMILES": "FC1=C(I)C=CC=C1", "physical_data": {"Molecular Weight": "222.00", "Molecular Formula": "C6H4FI", "Boiling Point": "188.6 \u00b0C", "Melting Point": "-41.5 \u00b0C", "Density": "1.9206 g/cm\u00b3 @ Temp: 25.00 \u00b0C"}}