{"cas_no": "348-61-8", "cn_name": "3,4-\u4e8c\u6c1f\u6eb4\u82ef", "en_name": ["1-Bromo-3,4-difluorobenzene", "Benzene, 4-bromo-1,2-difluoro-", "4-Bromo-1,2-difluorobenzene", "3,4-Difluorobromobenzene", "1-Bromo-3,4-difluorobenzene", "NSC 10251", "3,4-Difluoro-1-bromobenzene"], "SMILES": "FC1=C(F)C=CC(Br)=C1", "physical_data": {"Molecular Weight": "192.99", "Molecular Formula": "C6H3BrF2", "Boiling Point": "151.5-152.5 \u00b0C"}}