{"cas_no": "348-27-6", "cn_name": "2-\u6c1f-4-\u7f9f\u57fa\u82ef\u7532\u919b", "en_name": ["2-Fluoro-4-hydroxybenzaldehyde", "Benzaldehyde, 2-fluoro-4-hydroxy-", "2-Fluoro-4-hydroxybenzaldehyde", "3-Fluoro-4-formylphenol"], "SMILES": "C(=O)C1=C(F)C=C(O)C=C1", "physical_data": {"Molecular Weight": "140.11", "Molecular Formula": "C7H5FO2", "Melting Point": "165 \u00b0C"}}