{"cas_no": "348-67-4", "cn_name": "D-\u86cb\u6c28\u9178", "en_name": ["D-Methionine", "D-Methionine", "Methionine, D-", "(R)-Methionine", "NSC 45689", "S-Methyl-D-homocysteine", "MRX 1024", "(R)-2-Amino-4-(methylthio)butanoic acid", "(2R)-2-Amino-4-methylsulfanylbutanoic acid"], "SMILES": "C(C(O)=O)(CCSC)N", "physical_data": {"Molecular Weight": "149.21", "Molecular Formula": "C5H11NO2S", "Melting Point": "275-277 \u00b0C (decomp)"}}