{"cas_no": "348-60-7", "cn_name": "4-\u6c2f-3-\u6c1f\u82ef\u915a", "en_name": ["4-Chloro-3-fluorophenol", "Phenol, 4-chloro-3-fluoro-", "4-Chloro-3-fluorophenol", "3-Fluoro-4-chlorophenol"], "SMILES": "FC1=C(Cl)C=CC(O)=C1", "physical_data": {"Molecular Weight": "146.55", "Molecular Formula": "C6H4ClFO", "Boiling Point": "84 \u00b0C @ Press: 4.4 Torr"}}