{"cas_no": "348-26-5", "cn_name": "5-\u6c1f-1H-\u5432\u5511", "en_name": ["5-Fluoro-1H-indazole", "1H-Indazole, 5-fluoro-", "5-Fluoro-1H-indazole"], "SMILES": "FC=1C=C2C(=CC1)NN=C2", "physical_data": {"Molecular Weight": "136.13", "Molecular Formula": "C7H5FN2", "Melting Point": "121 \u00b0C (decomp)"}}