{"cas_no": "348-36-7", "cn_name": "5-\u6c1f\u5432\u54da-2-\u7532\u9178\u4e59\u916f", "en_name": ["1H-Indole-2-carboxylic acid, 5-fluoro-, ethyl ester", "1H-Indole-2-carboxylic acid, 5-fluoro-, ethyl ester", "Indole-2-carboxylic acid, 5-fluoro-, ethyl ester", "Ethyl 5-fluoroindole-2-carboxylate", "5-Fluoro-1H-indole-2-carboxylic acid ethyl ester", "5-Fluoroindole-2-carboxylic acid ethyl ester", "Ethyl 5-fluoro-1H-indole-2-carboxylate"], "SMILES": "C(OCC)(=O)C1=CC=2C(N1)=CC=C(F)C2", "physical_data": {"Molecular Weight": "207.20", "Molecular Formula": "C11H10FNO2", "Melting Point": "148 \u00b0C"}}