{"cas_no": "348-37-8", "cn_name": "6-\u6c1f\u5432\u54da-2-\u7532\u9178\u4e59\u916f", "en_name": ["1H-Indole-2-carboxylic acid, 6-fluoro-, ethyl ester", "1H-Indole-2-carboxylic acid, 6-fluoro-, ethyl ester", "Indole-2-carboxylic acid, 6-fluoro-, ethyl ester", "Ethyl 6-fluoro-1H-indole-2-carboxylate", "6-Fluoro-1H-indole-2-carboxylic acid ethyl ester", "Ethyl 6-fluoroindole-2-carboxylate"], "SMILES": "C(OCC)(=O)C=1NC=2C(C1)=CC=C(F)C2", "physical_data": {"Molecular Weight": "207.20", "Molecular Formula": "C11H10FNO2", "Melting Point": "143 \u00b0C"}}