{"cas_no": "348-62-9", "cn_name": "4-\u6c2f-2-\u6c1f\u82ef\u915a", "en_name": ["4-Chloro-2-fluorophenol", "Phenol, 4-chloro-2-fluoro-", "4-Chloro-2-fluorophenol", "2-Fluoro-4-chlorophenol"], "SMILES": "FC1=C(O)C=CC(Cl)=C1", "physical_data": {"Molecular Weight": "146.55", "Molecular Formula": "C6H4ClFO", "Boiling Point": "103-104 \u00b0C @ Press: 50 Torr"}}