{"cas_no": "348-57-2", "cn_name": "1-\u6eb4-2,4-\u4e8c\u6c1f\u82ef", "en_name": ["1-Bromo-2,4-difluorobenzene", "Benzene, 1-bromo-2,4-difluoro-", "1-Bromo-2,4-difluorobenzene", "2,4-Difluorobromobenzene", "2,4-Difluoro-1-bromobenzene", "2,4-Difluorophenyl bromide", "4-Bromo-1,3-difluorobenzene"], "SMILES": "FC1=C(Br)C=CC(F)=C1", "physical_data": {"Molecular Weight": "192.99", "Molecular Formula": "C6H3BrF2", "Boiling Point": "146 \u00b0C", "Melting Point": "-8 \u00b0C"}}