{"cas_no": "348-65-2", "cn_name": "5-\u6c2f-2,4-\u4e8c\u6c1f\u82ef\u80fa", "en_name": ["5-Chloro-2,4-difluorobenzenamine", "Benzenamine, 5-chloro-2,4-difluoro-", "Aniline, 5-chloro-2,4-difluoro-", "5-Chloro-2,4-difluorobenzenamine", "5-Chloro-2,4-difluoroaniline"], "SMILES": "ClC1=C(F)C=C(F)C(N)=C1", "physical_data": {"Molecular Weight": "163.55", "Molecular Formula": "C6H4ClF2N", "Melting Point": "50-51 \u00b0C"}}