{"cas_no": "34803-66-2", "cn_name": "1-(2-\u5421\u5576\u57fa)\u54cc\u55ea", "en_name": ["1-(2-Pyridyl)piperazine", "Piperazine, 1-(2-pyridinyl)-", "Piperazine, 1-(2-pyridyl)-", "1-(2-Pyridinyl)piperazine", "1-(2-Pyridyl)piperazine", "N-(2-Pyridyl)piperazine", "4-(2-Pyridyl)piperazine", "2-Pyridylpiperazine", "4-(2-Pyridinyl)piperazine", "N-Pyridin-2-ylpiperazine", "NSC 137781", "NSC 26624", "1-(Pyridin-2-yl)piperazine", "2-(Piperazin-1-yl)pyridine"], "SMILES": "C1(=CC=CC=N1)N2CCNCC2", "physical_data": {"Molecular Weight": "163.22", "Molecular Formula": "C9H13N3", "Boiling Point": "120-122 \u00b0C", "Melting Point": "85-87 \u00b0C", "Density": "1.072 g/cm\u00b3"}}