{"cas_no": "3480-87-3", "cn_name": "3-\u7f9f\u57fa-3-\u82ef\u4e19\u9178", "en_name": ["\u03b2-Hydroxybenzenepropanoic acid", "Benzenepropanoic acid, \u03b2-hydroxy-", "Hydracrylic acid, 3-phenyl-", "\u03b2-Hydroxybenzenepropanoic acid", "\u03b2-Hydroxy-\u03b2-phenylpropionic acid", "3-Hydroxy-3-phenylpropanoic acid", "3-Hydroxy-3-phenylpropionic acid", "3-Phenyl-3-hydroxypropanoic acid", "\u03b2-Phenylhydracrylic acid", "NSC 120422", "NSC 16256"], "SMILES": "C(CC(O)=O)(O)C1=CC=CC=C1", "physical_data": {"Molecular Weight": "166.17", "Molecular Formula": "C9H10O3", "Melting Point": "115-116 \u00b0C"}}