{"cas_no": "348086-71-5", "cn_name": "\u666e\u745e\u5229\u97e6", "en_name": ["N-[5-(Aminosulfonyl)-4-methyl-1,3-thiazol-2-yl]-N-methyl-2-[4-(2-pyridinyl)phenyl]acetamide", "Benzeneacetamide, N-[5-(aminosulfonyl)-4-methyl-2-thiazolyl]-N-methyl-4-(2-pyridinyl)-", "N-[5-(Aminosulfonyl)-4-methyl-2-thiazolyl]-N-methyl-4-(2-pyridinyl)benzeneacetamide", "BAY 57-1293", "N-[5-(Aminosulfonyl)-4-methyl-1,3-thiazol-2-yl]-N-methyl-2-[4-(2-pyridinyl)phenyl]acetamide", "Pritelivir"], "SMILES": "N(C(CC1=CC=C(C=C1)C2=CC=CC=N2)=O)(C)C=3SC(S(N)(=O)=O)=C(C)N3", "physical_data": {"Molecular Weight": "402.49", "Molecular Formula": "C18H18N4O3S2", "Melting Point": "190 \u00b0C"}}