{"cas_no": "34810-67-8", "cn_name": "2-(1H-\u5421\u5511-3-\u57fa)\u82ef\u915a", "en_name": ["2-(1H-Pyrazol-3-yl)phenol", "Phenol, 2-(1H-pyrazol-3-yl)-", "Phenol, o-pyrazol-3-yl-", "2-(1H-Pyrazol-3-yl)phenol", "3-(2-Hydroxyphenyl)pyrazole", "2-(Pyrazol-5-yl)phenol", "3-(2-Hydroxyphenyl)-1H-pyrazole", "2-(1H-Pyrazol-5-yl)phenol"], "SMILES": "OC1=C(C=2C=CNN2)C=CC=C1", "physical_data": {"Molecular Weight": "160.17", "Molecular Formula": "C9H8N2O", "Melting Point": "98-99 \u00b0C"}}