{"cas_no": "3481-09-2", "cn_name": "N-\u6c2f\u4ee3\u915e\u9170\u4e9a\u80fa", "en_name": ["N-Chlorophthalimide", "1H-Isoindole-1,3(2H)-dione, 2-chloro-", "Phthalimide, N-chloro-", "2-Chloro-1H-isoindole-1,3(2H)-dione", "N-Chlorophthalimide", "Phthalimidoyl chloride", "Phthalimide chloride", "NSC 76078", "2-Chloroisoindole-1,3-dione", "2-Chloro-2,3-dihydro-1H-isoindole-1,3-dione", "2-Chloroisoindoline-1,3-dione"], "SMILES": "O=C1C=2C(C(=O)N1Cl)=CC=CC2", "physical_data": {"Molecular Weight": "181.58", "Molecular Formula": "C8H4ClNO2", "Melting Point": "181-183 \u00b0C"}}