{"cas_no": "3481-02-5", "cn_name": "\u82ef\u57fa\u73af\u4e19\u57fa\u7532\u916e", "en_name": ["Benzoylcyclopropane", "Methanone, cyclopropylphenyl-", "Ketone, cyclopropyl phenyl", "Cyclopropylphenylmethanone", "Cyclopropyl phenyl ketone", "Benzoylcyclopropane", "Phenyl cyclopropyl ketone", "NSC 10743"], "SMILES": "C(=O)(C1CC1)C2=CC=CC=C2", "physical_data": {"Molecular Weight": "146.19", "Molecular Formula": "C10H10O", "Boiling Point": "239 \u00b0C", "Melting Point": "-7.9 \u00b0C", "Density": "1.0453 g/cm\u00b3 @ Temp: 26 \u00b0C"}}