{"cas_no": "3481-20-7", "cn_name": "2,3,5,6-\u56db\u6c2f\u82ef\u80fa", "en_name": ["2,3,5,6-Tetrachloroaniline", "Benzenamine, 2,3,5,6-tetrachloro-", "Aniline, 2,3,5,6-tetrachloro-", "2,3,5,6-Tetrachlorobenzenamine", "2,3,5,6-Tetrachloroaniline", "NSC 29028"], "SMILES": "ClC1=C(N)C(Cl)=C(Cl)C=C1Cl", "physical_data": {"Molecular Weight": "230.91", "Molecular Formula": "C6H3Cl4N", "Melting Point": "106-108 \u00b0C"}}