{"cas_no": "34819-86-8", "cn_name": "3,4-\u4e8c-O-\u4e59\u9170-1,5-\u9150-2,6-\u53cc\u8131\u6c27-L-\u963f\u62c9\u4f2f-\u5df1-1-\u7cd6\u9187", "en_name": ["Di-O-acetyl-L-rhamnal", "L-arabino-Hex-1-enitol, 1,5-anhydro-2,6-dideoxy-, 3,4-diacetate", "L-arabino-Hex-1-enitol, 1,5-anhydro-2,6-dideoxy-, diacetate", "3,4-Di-O-acetyl-L-rhamnal", "Diacetyl-L-rhamnal", "Di-O-acetyl-L-rhamnal", "L-Rhamnal diacetate", "6-Deoxy-L-glucal diacetate", "3,4-Di-O-acetyl-6-deoxy-L-glucal"], "SMILES": "O(C(C)=O)C1C(OC(C)=O)C=COC1C", "physical_data": {"Molecular Weight": "214.22", "Molecular Formula": "C10H14O5", "Boiling Point": "68-69 \u00b0C"}}