{"cas_no": "34825-99-5", "cn_name": "(2 - \u6c30\u57fa\u82ef\u57fa)\u4e8c\u82ef\u57fa\u81a6", "en_name": ["2-(Diphenylphosphino)benzonitrile", "Benzonitrile, 2-(diphenylphosphino)-", "2-(Diphenylphosphino)benzonitrile", "(2-Cyanophenyl)diphenylphosphine", "2-Diphenylphosphanylbenzonitrile"], "SMILES": "P(C1=C(C#N)C=CC=C1)(C2=CC=CC=C2)C3=CC=CC=C3", "physical_data": {"Molecular Weight": "287.29", "Molecular Formula": "C19H14NP", "Melting Point": "146-147 \u00b0C"}}