{"cas_no": "34834-67-8", "cn_name": "3'R,5'S)-3'-\u7f9f\u57fa\u53ef\u66ff\u5b81", "en_name": ["Hydroxycotinine", "2-Pyrrolidinone, 3-hydroxy-1-methyl-5-(3-pyridinyl)-, (3R,5S)-", "2-Pyrrolidinone, 3-hydroxy-1-methyl-5-(3-pyridinyl)-, (3R-trans)-", "Cotinine, hydroxy-", "(3R,5S)-3-Hydroxy-1-methyl-5-(3-pyridinyl)-2-pyrrolidinone", "trans-1-Methyl-3(R)-hydroxy-5(S)-3-pyridyl-2-pyrrolidinone", "trans-3\u2032-Hydroxycotinine", "Hydroxycotinine", "(3S-trans)-3-Hydroxycotinine", "(3\u2032R,5\u2032S)-3\u2032-Hydroxycotinine"], "SMILES": "CN1C(CC(O)C1=O)C=2C=CC=NC2", "physical_data": {"Molecular Weight": "192.21", "Molecular Formula": "C10H12N2O2", "Melting Point": "108-110 \u00b0C"}}