{"cas_no": "3483-82-7", "cn_name": "N-\u82ef\u7532\u9170-L-\u916a\u6c28\u9178\u4e59\u916f", "en_name": ["N-Benzoyl-L-tyrosine ethyl ester", "L-Tyrosine, N-benzoyl-, ethyl ester", "Tyrosine, N-benzoyl-, ethyl ester, L-", "N-Benzoyl-L-tyrosine ethyl ester", "Ethyl N-benzoyl-L-tyrosinate", "Ethyl benzoyltyrosinate", "Benzoyltyrosine ethyl ester", "N-Benzoyltyrosine ethyl ester", "NSC 75895", "Ethyl N-benzoyl-L-tyrosine"], "SMILES": "C(CC1=CC=C(O)C=C1)(NC(=O)C2=CC=CC=C2)C(OCC)=O", "physical_data": {"Molecular Weight": "313.35", "Molecular Formula": "C18H19NO4", "Melting Point": "122-123 \u00b0C"}}