{"cas_no": "34837-55-3", "cn_name": "\u82ef\u57fa\u6eb4\u5316\u7852", "en_name": ["Benzeneselenenyl bromide", "Benzeneselenenyl bromide", "Phenylselenenyl bromide", "Phenylselenyl bromide", "Benzeneselenyl bromide", "Phenylselenium bromide"], "SMILES": "[Se](Br)C1=CC=CC=C1", "physical_data": {"Molecular Weight": "235.97", "Molecular Formula": "C6H5BrSe", "Boiling Point": "107-108 \u00b0C @ Press: 15 Torr", "Melting Point": "62 \u00b0C"}}