{"cas_no": "34841-11-7", "cn_name": "2-\u7532\u6c27\u57fa-5-\u785d\u57fa\u82ef\u7532\u9178\u7532\u916f", "en_name": ["Benzoic acid, 2-methoxy-5-nitro-, methyl ester", "Benzoic acid, 2-methoxy-5-nitro-, methyl ester", "o-Anisic acid, 5-nitro-, methyl ester", "Methyl 2-methoxy-5-nitrobenzoate", "2-Methoxy-5-nitrobenzoic acid methyl ester"], "SMILES": "C(OC)(=O)C1=C(OC)C=CC(N(=O)=O)=C1", "physical_data": {"Molecular Weight": "211.17", "Molecular Formula": "C9H9NO5", "Melting Point": "95-97 \u00b0C"}}