{"cas_no": "3484-10-4", "cn_name": "2-\u7532\u57fa-4-\u785d\u57fa\u5432\u54da", "en_name": ["2-Methyl-4-nitro-1H-indole", "1H-Indole, 2-methyl-4-nitro-", "Indole, 2-methyl-4-nitro-", "2-Methyl-4-nitro-1H-indole", "2-Methyl-4-nitroindole"], "SMILES": "N(=O)(=O)C1=C2C(NC(C)=C2)=CC=C1", "physical_data": {"Molecular Weight": "176.17", "Molecular Formula": "C9H8N2O2", "Melting Point": "192-194 \u00b0C"}}