{"cas_no": "34841-06-0", "cn_name": "3-\u6eb4-4-\u7532\u6c27\u57fa\u82ef\u7532\u919b", "en_name": ["3-Bromo-4-methoxybenzaldehyde", "Benzaldehyde, 3-bromo-4-methoxy-", "p-Anisaldehyde, 3-bromo-", "3-Bromo-4-methoxybenzaldehyde", "3-Bromo-p-anisaldehyde", "NSC 158162"], "SMILES": "C(=O)C1=CC(Br)=C(OC)C=C1", "physical_data": {"Molecular Weight": "215.04", "Molecular Formula": "C8H7BrO2", "Boiling Point": "108-110 \u00b0C @ Press: 1 Torr", "Melting Point": "43-44 \u00b0C"}}