{"cas_no": "3484-35-3", "cn_name": "5-\u7532\u57fa-2-\u5432\u54da\u916e", "en_name": ["5-Methyloxindole", "2H-Indol-2-one, 1,3-dihydro-5-methyl-", "2-Indolinone, 5-methyl-", "Oxindole, 5-methyl-", "1,3-Dihydro-5-methyl-2H-indol-2-one", "5-Methyloxindole", "5-Methyl-2-oxoindoline", "5-Methyl-2-oxindole", "5-Methyl-2-indolinone", "5-Methyl-1,3-dihydro-2H-indol-2-one"], "SMILES": "O=C1NC=2C(C1)=CC(C)=CC2", "physical_data": {"Molecular Weight": "147.17", "Molecular Formula": "C9H9NO", "Melting Point": "168 \u00b0C"}}