{"cas_no": "3484-22-8", "cn_name": "5-\u785d\u57fa-2,3,3-\u4e09\u7532\u57fa\u5432\u54da", "en_name": ["2,3,3-Trimethyl-5-nitroindolenine", "3H-Indole, 2,3,3-trimethyl-5-nitro-", "2,3,3-Trimethyl-5-nitro-3H-indole", "2,3,3-Trimethyl-5-nitroindolenine", "5-Nitro-2,3,3-trimethyl-3H-indole", "5-Nitro-2,3,3-trimethylindole", "NSC 131893", "5-Nitro-2,3,3-trimethylindolenine", "2,3,3-Trimethyl-5-nitroindole"], "SMILES": "CC1(C)C=2C(N=C1C)=CC=C(N(=O)=O)C2", "physical_data": {"Molecular Weight": "204.23", "Molecular Formula": "C11H12N2O2", "Melting Point": "130-131 \u00b0C"}}