{"cas_no": "34846-44-1", "cn_name": "3-\u6eb4\u7532\u57fa\u567b\u5429", "en_name": ["3-(Bromomethyl)thiophene", "Thiophene, 3-(bromomethyl)-", "3-(Bromomethyl)thiophene", "3-Thenyl bromide", "3-Thienylmethyl bromide"], "SMILES": "C(Br)C=1C=CSC1", "physical_data": {"Molecular Weight": "177.06", "Molecular Formula": "C5H5BrS", "Boiling Point": "75-78 \u00b0C @ Press: 1 Torr", "Melting Point": "-9 \u00b0C", "Density": "1.635 g/cm\u00b3 @ Temp: 20 \u00b0C"}}