{"cas_no": "34840-23-8", "cn_name": "1,3-\u4e8c\u7fa7\u7532\u57fa-2-\u7532\u57fa-2-\u786b\u4ee3\u5f02\u8132", "en_name": ["Methyl N-[[(methoxycarbonyl)amino](methylthio)methylene]carbamate", "Carbamic acid, N-[[(methoxycarbonyl)amino](methylthio)methylene]-, methyl ester", "Carbamic acid, [[(methoxycarbonyl)amino](methylthio)methylene]-, methyl ester", "Carbamic acid, [(methylthio)methylidyne]di-, dimethyl ester", "Methyl N-[[(methoxycarbonyl)amino](methylthio)methylene]carbamate", "1,3-Bis(methoxycarbonyl)-2-methylisothiourea", "1,3-Bis(methoxycarbonyl)-S-methylisothiourea", "N,N-Di(methoxycarbonyl)-S-methylisothiourea", "Dimethyl 2-methylisothiourea-1,3-dicarboxylate", "N,N\u2032-Bis(methoxycarbonyl)-S-methylisothiourea", "1,3-Bis(carbomethoxy)-S-methylisothiourea", "1,3-Dicarbomethoxy-S-methylisothiourea", "1,3-Bis(methoxycarbonyl)-2-methyl-2-thiopseudourea", "NSC 160237", "1,3-Di(methoxycarbonyl)-2-methylisothiourea"], "SMILES": "C(=NC(OC)=O)(NC(OC)=O)SC", "physical_data": {"Molecular Weight": "206.22", "Molecular Formula": "C6H10N2O4S", "Melting Point": "100-102 \u00b0C"}}