{"cas_no": "34841-35-5", "cn_name": "3-\u6c2f\u82ef\u4e19\u916e", "en_name": ["1-(3-Chlorophenyl)-1-propanone", "1-Propanone, 1-(3-chlorophenyl)-", "Propiophenone, 3\u2032-chloro-", "1-(3-Chlorophenyl)-1-propanone", "m-Chloropropiophenone", "3-Chlorophenyl ethyl ketone", "3\u2032-Chloropropiophenone"], "SMILES": "C(CC)(=O)C1=CC(Cl)=CC=C1", "physical_data": {"Molecular Weight": "168.62", "Molecular Formula": "C9H9ClO", "Boiling Point": "135-137 \u00b0C @ Press: 1 Torr", "Melting Point": "45-46 \u00b0C"}}