{"cas_no": "34846-64-5", "cn_name": "3-\u6c30\u57fa\u55b9\u5549", "en_name": ["3-Quinolinecarbonitrile", "3-Quinolinecarbonitrile", "3-Cyanoquinoline", "NSC 44644"], "SMILES": "C(#N)C1=CC2=C(N=C1)C=CC=C2", "physical_data": {"Molecular Weight": "154.17", "Molecular Formula": "C10H6N2", "Melting Point": "108-110 \u00b0C"}}