{"cas_no": "34846-65-6", "cn_name": "4-\u6c30\u57fa\u5f02\u55b9\u5549", "en_name": ["4-Isoquinolinecarbonitrile", "4-Isoquinolinecarbonitrile", "4-Cyanoisoquinoline", "NSC 74868"], "SMILES": "C(#N)C=1C2=C(C=NC1)C=CC=C2", "physical_data": {"Molecular Weight": "154.17", "Molecular Formula": "C10H6N2", "Melting Point": "104 \u00b0C"}}