{"cas_no": "3485-62-9", "cn_name": "\u514b\u5229\u6eb4\u94f5", "en_name": ["Clidinium bromide", "1-Azoniabicyclo[2.2.2]octane, 3-[(2-hydroxy-2,2-diphenylacetyl)oxy]-1-methyl-, bromide (1:1)", "Quinuclidinium, 3-hydroxy-1-methyl-, bromide, benzilate", "1-Azoniabicyclo[2.2.2]octane, 3-[(hydroxydiphenylacetyl)oxy]-1-methyl-, bromide", "3-Hydroxy-1-methylquinuclidinium bromide, benzilate", "Ro 2-3773", "3-(Benziloyloxy)-1-methylquinuclidinium bromide", "Clidinium bromide", "1-Methyl-3-(benziloyloxy)quinuclidinium bromide", "Quarzan", "Quarzan bromide"], "SMILES": "C(C(OC1C2CC[N+](C)(C1)CC2)=O)(O)(C3=CC=CC=C3)C4=CC=CC=C4.[Br-]", "physical_data": {"Molecular Weight": "", "Molecular Formula": "C22H26NO3.Br", "Melting Point": "240.5 \u00b0C"}}