{"cas_no": "3485-84-5", "cn_name": "N-\u4e59\u70ef\u57fa\u90bb\u82ef\u4e9a\u80fa", "en_name": ["Vinylphthalimide", "1H-Isoindole-1,3(2H)-dione, 2-ethenyl-", "Phthalimide, N-vinyl-", "2-Ethenyl-1H-isoindole-1,3(2H)-dione", "N-Vinylphthalimide", "Vinylphthalimide", "NSC 10395", "2-Vinyl-1H-isoindole-1,3(2H)-dione", "2-Vinylisoindoline-1,3-dione", "N-Vinylphthalamide", "2-Ethenylisoindole-1,3-dione", "2-Ethenyl-2,3-dihydro-1H-isoindole-1,3-dione"], "SMILES": "O=C1C=2C(C(=O)N1C=C)=CC=CC2", "physical_data": {"Molecular Weight": "173.17", "Molecular Formula": "C10H7NO2", "Boiling Point": "115-120 \u00b0C @ Press: 0.5 Torr", "Melting Point": "86 \u00b0C"}}