{"cas_no": "34859-74-0", "cn_name": "3-\u6c2f\u91d1\u521a\u70f7-1-\u7fa7\u9178", "en_name": ["3-Chlorotricyclo[3.3.1.13,7]decane-1-carboxylic acid", "Tricyclo[3.3.1.13,7]decane-1-carboxylic acid, 3-chloro-", "1-Adamantanecarboxylic acid, 3-chloro-", "3-Chlorotricyclo[3.3.1.13,7]decane-1-carboxylic acid", "3-Chloro-1-adamantanecarboxylic acid", "1-Chloro-3-adamantanecarboxylic acid"], "SMILES": "C(O)(=O)C12CC3(Cl)CC(C1)CC(C2)C3", "physical_data": {"Molecular Weight": "214.69", "Molecular Formula": "C11H15ClO2", "Boiling Point": "130 \u00b0C @ Press: 10 Torr", "Melting Point": "149 \u00b0C"}}