{"cas_no": "3486-08-6", "cn_name": "\u5168\u6c1f\u5f02\u5e9a\u57fa\u7898\u5316\u7269", "en_name": ["1,1,1,2,3,3,4,4,5,5,6,6-Dodecafluoro-6-iodo-2-(trifluoromethyl)hexane", "Hexane, 1,1,1,2,3,3,4,4,5,5,6,6-dodecafluoro-6-iodo-2-(trifluoromethyl)-", "Hexane, dodecafluoro-1-iodo-5-(trifluoromethyl)-", "1,1,1,2,3,3,4,4,5,5,6,6-Dodecafluoro-6-iodo-2-(trifluoromethyl)hexane", "Pentadecafluoro-1-iodo-5-methylhexane", "1-Iodo-5-(trifluoromethyl)perfluorohexane", "1-Iodo-perfluoro-5-methylhexane"], "SMILES": "C(C(C(C(C(F)(F)I)(F)F)(F)F)(F)F)(C(F)(F)F)(C(F)(F)F)F", "physical_data": {"Molecular Weight": "495.96", "Molecular Formula": "C7F15I", "Boiling Point": "139 \u00b0C"}}