{"cas_no": "3486-66-6", "cn_name": "\u9ec4\u8fde\u78b1", "en_name": ["Coptisine", "Bis[1,3]benzodioxolo[5,6-a:4\u2032,5\u2032-g]quinolizinium, 6,7-dihydro-", "Berbinium, 7,8,13,13a-tetradehydro-2,3:9,10-bis(methylenedioxy)-", "6,7-Dihydrobis[1,3]benzodioxolo[5,6-a:4\u2032,5\u2032-g]quinolizinium", "Coptisine", "Coptisin", "Alkaloid A, from Coptisgroenlandica", "YHL II"], "SMILES": "C1=2C=3C(=CC4=C(C3)OCO4)CC[N+]1=CC=5C(C2)=CC=C6C5OCO6", "physical_data": {"Molecular Weight": "", "Molecular Formula": "C19H14NO4", "Melting Point": "212-217 \u00b0C"}}