{"cas_no": "3486-67-7", "cn_name": "\u9ec4\u85e4\u7d20", "en_name": ["Palmatine", "Dibenzo[a,g]quinolizinium, 5,6-dihydro-2,3,9,10-tetramethoxy-", "Berbinium, 7,8,13,13a-tetradehydro-2,3,9,10-tetramethoxy-", "Palmatine", "5,6-Dihydro-2,3,9,10-tetramethoxydibenzo[a,g]quinolizinium", "Berbericinine", "O,O-Dimethyldemethyleneberberine", "Depiline", "Fibrauretin", "Huang Teng Su", "Fibrauretine", "2,3,9,10-Tetramethoxy-5,6-dihydroisoquinolino[2,1-b]isoquinolin-7-ium"], "SMILES": "O(C)C=1C=C2C=3[N+](=CC=4C(C3)=CC=C(OC)C4OC)CCC2=CC1OC", "physical_data": {"Molecular Weight": "", "Molecular Formula": "C21H22NO4", "Melting Point": "187-189 \u00b0C"}}