{"cas_no": "3487-99-8", "cn_name": "\u8089\u7845\u9178\u620a\u916f", "en_name": ["Amyl cinnamate", "2-Propenoic acid, 3-phenyl-, pentyl ester", "Cinnamic acid, pentyl ester", "Amyl cinnamate", "Pentyl cinnamate", "NSC 46140"], "SMILES": "C(=CC(OCCCCC)=O)C1=CC=CC=C1", "physical_data": {"Molecular Weight": "218.29", "Molecular Formula": "C14H18O2", "Boiling Point": "104-106 \u00b0C @ Press: 0.50 Torr", "Melting Point": "310-314 \u00b0C"}}