{"cas_no": "34883-39-1", "cn_name": "2,5-\u4e8c\u6c2f\u8054\u82ef", "en_name": ["2,5-Dichlorobiphenyl", "1,1\u2032-Biphenyl, 2,5-dichloro-", "Biphenyl, 2,5-dichloro-", "2,5-Dichloro-1,1\u2032-biphenyl", "2,5-Dichlorobiphenyl", "PCB 9", "1,4-Dichloro-2-phenylbenzene"], "SMILES": "ClC1=C(C=C(Cl)C=C1)C2=CC=CC=C2", "physical_data": {"Molecular Weight": "223.10", "Molecular Formula": "C12H8Cl2", "Boiling Point": "171 \u00b0C @ Press: 15 Torr", "Melting Point": "19 \u00b0C"}}