{"cas_no": "34883-43-7", "cn_name": "2,4'-\u4e8c\u6c2f\u8054\u82ef", "en_name": ["PCB 8", "1,1\u2032-Biphenyl, 2,4\u2032-dichloro-", "Biphenyl, 2,4\u2032-dichloro-", "2,4\u2032-Dichloro-1,1\u2032-biphenyl", "2,4\u2032-Dichlorobiphenyl", "PCB 8", "CB 8", "1-Chloro-4-(2-chlorophenyl)benzene"], "SMILES": "ClC1=C(C2=CC=C(Cl)C=C2)C=CC=C1", "physical_data": {"Molecular Weight": "223.10", "Molecular Formula": "C12H8Cl2", "Boiling Point": "172 \u00b0C", "Melting Point": "44.5 \u00b0C"}}