{"cas_no": "34885-02-4", "cn_name": "N-(3-\u6c28\u57fa\u4e19\u57fa)\u54cc\u55ea", "en_name": ["1-Piperazinepropanamine", "1-Piperazinepropanamine", "N-(3-Aminopropyl)piperazine", "1-Piperazinepropylamine", "1-(3-Aminopropyl)piperazine", "3-(1-Piperazinyl)propylamine", "3-(Piperazin-1-yl)propan-1-amine"], "SMILES": "C(CCN)N1CCNCC1", "physical_data": {"Molecular Weight": "143.23", "Molecular Formula": "C7H17N3", "Boiling Point": "73.5-76 \u00b0C @ Press: 3 Torr"}}