{"cas_no": "34885-03-5", "cn_name": "4-\u7532\u57fa-1-\u73af\u5df1\u70f7\u7532\u9187(\u987a\u53cd\u5f02\u6784\u4f53\u6df7\u5408\u7269)", "en_name": ["4-Methylcyclohexanemethanol", "Cyclohexanemethanol, 4-methyl-", "4-Methylcyclohexanemethanol", "Hexahydro-p-methylbenzyl alcohol", "(4-Methylcyclohexyl)methanol", "4-Methylcyclohexane methanol", "1-(4-Methylcyclohexyl)methanol"], "SMILES": "C(O)C1CCC(C)CC1", "physical_data": {"Molecular Weight": "128.21", "Molecular Formula": "C8H16O", "Boiling Point": "202 \u00b0C", "Density": "1.0176 g/cm\u00b3 @ Temp: 20 \u00b0C"}}