{"cas_no": "34883-41-5", "cn_name": "3,5-\u4e8c\u6c2f\u8054\u82ef", "en_name": ["3,5-Dichlorobiphenyl", "1,1\u2032-Biphenyl, 3,5-dichloro-", "Biphenyl, 3,5-dichloro-", "3,5-Dichloro-1,1\u2032-biphenyl", "3,5-Dichlorobiphenyl", "PCB 14", "1,3-Dichloro-5-phenylbenzene"], "SMILES": "ClC=1C=C(C=C(Cl)C1)C2=CC=CC=C2", "physical_data": {"Molecular Weight": "223.10", "Molecular Formula": "C12H8Cl2", "Melting Point": "62 \u00b0C"}}