{"cas_no": "3489-28-9", "cn_name": "1,9-\u58ec\u4e8c\u786b\u9187", "en_name": ["1,9-Nonanedithiol", "1,9-Nonanedithiol", "1,9-Dimercaptononane", "NSC 65658"], "SMILES": "C(CCCCS)CCCCS", "physical_data": {"Molecular Weight": "192.39", "Molecular Formula": "C9H20S2", "Boiling Point": "103 \u00b0C @ Press: 0.8 Torr"}}