{"cas_no": "349-88-2", "cn_name": "4-\u6c1f\u82ef\u78fa\u9170\u6c2f", "en_name": ["4-Fluorobenzenesulfonyl chloride", "Benzenesulfonyl chloride, 4-fluoro-", "Benzenesulfonyl chloride, p-fluoro-", "4-Fluorobenzenesulfonyl chloride", "p-Fluorobenzenesulfonyl chloride", "4-Fluorophenylsulfonyl chloride", "p-Fluorophenylsulfonyl chloride", "NSC 140128", "4-Fluorobenzene-1-sulfonyl chloride"], "SMILES": "S(Cl)(=O)(=O)C1=CC=C(F)C=C1", "physical_data": {"Molecular Weight": "194.61", "Molecular Formula": "C6H4ClFO2S", "Boiling Point": "89-89.5 \u00b0C @ Press: 0.5 Torr", "Melting Point": "30 \u00b0C"}}