{"cas_no": "349-76-8", "cn_name": "\u95f4\u4e09\u6c1f\u7532\u57fa\u82ef\u4e59\u916e", "en_name": ["3\u2032-(Trifluoromethyl)acetophenone", "Ethanone, 1-[3-(trifluoromethyl)phenyl]-", "Acetophenone, 3\u2032-(trifluoromethyl)-", "1-[3-(Trifluoromethyl)phenyl]ethanone", "3\u2032-(Trifluoromethyl)acetophenone", "m-(Trifluoromethyl)acetophenone", "1-[3-(Trifluoromethyl)phenyl]-1-ethanone", "m-Trifluoromethylphenyl methyl ketone", "NSC 59177", "NSC 81888", "1-[5-(Trifluoromethyl)phenyl]ethanone", "3-Trifluoromethylphenyl methyl ketone", "3-Trifluoromethyl-1-acetylbenzene", "Methyl 3-trifluoromethylphenyl ketone", "3-Acetylbenzotrifluoride"], "SMILES": "C(F)(F)(F)C1=CC(C(C)=O)=CC=C1", "physical_data": {"Molecular Weight": "188.15", "Molecular Formula": "C9H7F3O", "Boiling Point": "199 \u00b0C"}}