{"cas_no": "349-97-3", "cn_name": "N1-[4-(\u4e09\u6c1f\u7532\u57fa0\u82ef\u57fa]\u4e59\u9170\u6c28", "en_name": ["N-[4-(Trifluoromethyl)phenyl]acetamide", "Acetamide, N-[4-(trifluoromethyl)phenyl]-", "p-Acetotoluidide, \u03b1,\u03b1,\u03b1-trifluoro-", "N-[4-(Trifluoromethyl)phenyl]acetamide", "p-(Trifluoromethyl)acetanilide", "\u03b1,\u03b1,\u03b1-Trifluoro-p-acetotoluidide", "4\u2032-(Trifluoromethyl)acetanilide", "NSC 403019", "N-Acetyl-4-(trifluoromethyl)aniline"], "SMILES": "C(F)(F)(F)C1=CC=C(NC(C)=O)C=C1", "physical_data": {"Molecular Weight": "203.16", "Molecular Formula": "C9H8F3NO", "Melting Point": "153-155 \u00b0C"}}