{"cas_no": "349-49-5", "cn_name": "2-\u6c28\u57fa-4-\u4e09\u6c1f\u7532\u57fa\u567b\u5511", "en_name": ["4-(Trifluoromethyl)-2-thiazolamine", "2-Thiazolamine, 4-(trifluoromethyl)-", "Thiazole, 2-amino-4-(trifluoromethyl)-", "4-(Trifluoromethyl)-2-thiazolamine", "2-Amino-4-trifluoromethylthiazole", "4-Trifluoromethyl-2-aminothiazole", "2-Amino-4-trifluoromethyl-1,3-thiazole", "4-(Trifluoromethyl)thiazol-2-amine", "4-(Trifluoromethyl)-1,3-thiazol-2-amine", "(4-Trifluoromethylthiazol-2-yl)amine"], "SMILES": "C(F)(F)(F)C=1N=C(N)SC1", "physical_data": {"Molecular Weight": "168.14", "Molecular Formula": "C4H3F3N2S", "Boiling Point": "110-114 \u00b0C @ Press: 9 Torr", "Melting Point": "58-60 \u00b0C"}}