{"cas_no": "349-57-5", "cn_name": "3-\u785d\u57fa-5-(\u4e09\u6c1f\u7532\u57fa)\u82ef\u915a", "en_name": ["3-(Trifluoromethyl)-5-nitrophenol", "Phenol, 3-nitro-5-(trifluoromethyl)-", "m-Cresol, \u03b1,\u03b1,\u03b1-trifluoro-5-nitro-", "3-Nitro-5-(trifluoromethyl)phenol", "3-(Trifluoromethyl)-5-nitrophenol", "3-Nitro-5-trifluoromethylphenol"], "SMILES": "C(F)(F)(F)C1=CC(N(=O)=O)=CC(O)=C1", "physical_data": {"Molecular Weight": "207.11", "Molecular Formula": "C7H4F3NO3", "Melting Point": "92 \u00b0C"}}