{"cas_no": "349-65-5", "cn_name": "2-\u7532\u6c27\u57fa-5-\u4e09\u6c1f\u7532\u57fa\u82ef\u80fa", "en_name": ["2-Methoxy-5-(trifluoromethyl)aniline", "Benzenamine, 2-methoxy-5-(trifluoromethyl)-", "o-Anisidine, 5-(trifluoromethyl)-", "2-Methoxy-5-(trifluoromethyl)benzenamine", "\u03b1,\u03b1,\u03b1-Trifluoro-6-methoxy-m-toluidine", "2-Methoxy-5-(trifluoromethyl)aniline", "2-Amino-4-(trifluoromethyl)anisole", "5-(Trifluoromethyl)-o-anisidine", "3-Amino-4-methoxybenzotrifluoride", "(2-Methoxy-5-(trifluoromethyl)phenyl)amine", "2-Methyloxy-5-trifluoromethylaniline"], "SMILES": "C(F)(F)(F)C1=CC(N)=C(OC)C=C1", "physical_data": {"Molecular Weight": "191.15", "Molecular Formula": "C8H8F3NO", "Melting Point": "57-58 \u00b0C"}}