{"cas_no": "349-95-1", "cn_name": "4-(\u4e09\u6c1f\u7532\u57fa)\u82c4\u9187", "en_name": ["4-(Trifluoromethyl)benzenemethanol", "Benzenemethanol, 4-(trifluoromethyl)-", "Benzyl alcohol, p-(trifluoromethyl)-", "4-(Trifluoromethyl)benzenemethanol", "p-(Trifluoromethyl)benzyl alcohol", "4-(Trifluoromethyl)benzyl alcohol", "(4-Trifluoromethylphenyl)methanol", "p-(Trifluoromethyl)phenylmethanol"], "SMILES": "C(F)(F)(F)C1=CC=C(CO)C=C1", "physical_data": {"Molecular Weight": "176.14", "Molecular Formula": "C8H7F3O", "Boiling Point": "78.5-80 \u00b0C @ Press: 4 Torr"}}