{"cas_no": "349-96-2", "cn_name": "\u5bf9\u785d\u57fa\u82ef\u7532\u78fa\u9170\u6c1f", "en_name": ["4-Nitrobenzenesulfonyl fluoride", "Benzenesulfonyl fluoride, 4-nitro-", "Benzenesulfonyl fluoride, p-nitro-", "4-Nitrobenzenesulfonyl fluoride", "p-Nitrobenzenesulfonyl fluoride", "4-Nitrophenylsulfonyl fluoride"], "SMILES": "S(F)(=O)(=O)C1=CC=C(N(=O)=O)C=C1", "physical_data": {"Molecular Weight": "205.16", "Molecular Formula": "C6H4FNO4S", "Melting Point": "79 \u00b0C"}}