{"cas_no": "349-59-7", "cn_name": "3,5-\u53cc\uff08\u4e09\u6c1f\u7532\u57fa\uff09\u82ef\u4e59\u70ef", "en_name": ["1-Ethenyl-3,5-bis(trifluoromethyl)benzene", "Benzene, 1-ethenyl-3,5-bis(trifluoromethyl)-", "1-Ethenyl-3,5-bis(trifluoromethyl)benzene", "3,5-Bis(trifluoromethyl)styrene", "3,5-Bis(trifluoromethyl)-1-vinylbenzene", "3,5-Bis(trifluoromethyl)-1-ethenylbenzene", "1,3-Bis(trifluoromethyl)-5-vinylbenzene"], "SMILES": "C(F)(F)(F)C1=CC(C(F)(F)F)=CC(C=C)=C1", "physical_data": {"Molecular Weight": "240.15", "Molecular Formula": "C10H6F6", "Boiling Point": "60 \u00b0C @ Press: 20 Torr", "Melting Point": "7-8 \u00b0C", "Density": "1.3341 g/cm\u00b3 @ Temp: 23 \u00b0C"}}