{"cas_no": "349-55-3", "cn_name": "3-\u7532\u6c27\u57fa-5-\u4e09\u6c1f\u7532\u57fa\u82ef\u80fa", "en_name": ["3-Methoxy-5-(trifluoromethyl)aniline", "Benzenamine, 3-methoxy-5-(trifluoromethyl)-", "m-Anisidine, 5-(trifluoromethyl)-", "3-Methoxy-5-(trifluoromethyl)benzenamine", "3-Methoxy-5-(trifluoromethyl)aniline", "3-(Trifluoromethyl)-5-methoxyaniline", "5-Methoxy-3-(trifluoromethyl)aniline", "(3-Methoxy-5-trifluoromethylphenyl)amine", "5-Methoxy-3-trifluoromethylbenzenamine", "3-(Methyloxy)-5-(trifluoromethyl)aniline"], "SMILES": "C(F)(F)(F)C1=CC(OC)=CC(N)=C1", "physical_data": {"Molecular Weight": "191.15", "Molecular Formula": "C8H8F3NO", "Melting Point": "151 \u00b0C"}}