{"cas_no": "349-56-4", "cn_name": "3-\u7532\u6c27\u57fa-5-\u4e09\u6c1f\u7532\u57fa\u82ef\u915a", "en_name": ["3-Methoxy-5-(trifluoromethyl)phenol", "Phenol, 3-methoxy-5-(trifluoromethyl)-", "m-Cresol, \u03b1,\u03b1,\u03b1-trifluoro-5-methoxy-", "3-Methoxy-5-(trifluoromethyl)phenol"], "SMILES": "C(F)(F)(F)C1=CC(OC)=CC(O)=C1", "physical_data": {"Molecular Weight": "192.14", "Molecular Formula": "C8H7F3O2", "Boiling Point": "100 \u00b0C @ Press: 14 Torr", "Melting Point": "75 \u00b0C"}}