{"cas_no": "349-58-6", "cn_name": "3,5-\u4e8c\u4e09\u6c1f\u7532\u57fa\u82ef\u915a", "en_name": ["3,5-Bis(trifluoromethyl)phenol", "Phenol, 3,5-bis(trifluoromethyl)-", "3,5-Xylenol, \u03b1,\u03b1,\u03b1,\u03b1\u2032,\u03b1\u2032,\u03b1\u2032-hexafluoro-", "3,5-Bis(trifluoromethyl)phenol", "NSC 88299"], "SMILES": "C(F)(F)(F)C1=CC(C(F)(F)F)=CC(O)=C1", "physical_data": {"Molecular Weight": "230.11", "Molecular Formula": "C8H4F6O", "Boiling Point": "97.2 \u00b0C @ Press: 50 Torr", "Melting Point": "20.4-21.3 \u00b0C"}}