{"cas_no": "349-75-7", "cn_name": "3-\u4e09\u6c1f\u7532\u57fa\u82ef\u7532\u9187", "en_name": ["3-(Trifluoromethyl)benzenemethanol", "Benzenemethanol, 3-(trifluoromethyl)-", "Benzyl alcohol, m-(trifluoromethyl)-", "3-(Trifluoromethyl)benzenemethanol", "m-(Trifluoromethyl)benzyl alcohol", "3-Hydroxymethylbenzyltrifluoride", "3-Trifluoromethylbenzyl alcohol", "3-Trifluorobenzyl alcohol", "(3-Trifluoromethylphenyl)methanol"], "SMILES": "C(F)(F)(F)C1=CC(CO)=CC=C1", "physical_data": {"Molecular Weight": "176.14", "Molecular Formula": "C8H7F3O", "Boiling Point": "68 \u00b0C", "Density": "1.2850 g/cm\u00b3 @ Temp: 25 \u00b0C"}}