{"cas_no": "3490-06-0", "cn_name": "N-\u7532\u57fa-2-(3,4-\u4e8c\u7532\u6c27\u57fa\u82ef\u57fa)\u4e59\u80fa", "en_name": ["N-Methylhomoveratrylamine", "Benzeneethanamine, 3,4-dimethoxy-N-methyl-", "Phenethylamine, 3,4-dimethoxy-N-methyl-", "3,4-Dimethoxy-N-methylbenzeneethanamine", "N-Methyl-3,4-dimethoxy-\u03b2-phenethylamine", "N-Methylhomoveratrylamine", "N-Methyl-3,4-dimethoxy-\u03b2-phenylethylamine", "3,4-Dimethoxy-N-methylphenethylamine", "3,4-Dimethoxy-\u03b2-phenethylmethylamine", "N-Methyl-3,4-dimethoxyphenethylamine", "3,4-Dimethoxy-N-methylphenylethylamine", "N-(3,4-Dimethoxyphenethyl)-N-methylamine", "N-Methyl-2-(3,4-dimethoxyphenyl)ethylamine", "2-(3,4-Dimethoxyphenyl)-N-methylethylamine", "N-Methyl-3,4-dimethoxybenzeneethanamine", "[2-(3,4-Dimethoxyphenyl)ethyl]methylamine", "Methyl[2-(3,4-dimethoxyphenyl)ethyl]amine", "NSC 187772", "N-[2-(3,4-Dimethoxyphenyl)ethyl]-N-methylamine", "2-(3,4-Dimethoxyphenyl)-N-methylethanamine"], "SMILES": "O(C)C1=C(OC)C=CC(CCNC)=C1", "physical_data": {"Molecular Weight": "195.26", "Molecular Formula": "C11H17NO2", "Boiling Point": "99.0-112.0 \u00b0C @ Press: 0.075-0.120 Torr"}}