{"cas_no": "34915-68-9", "cn_name": "\u5e03\u8bfa\u6d1b\u5c14", "en_name": ["(\u00b1)-Bunitrolol", "Benzonitrile, 2-[3-[(1,1-dimethylethyl)amino]-2-hydroxypropoxy]-", "2-[3-[(1,1-Dimethylethyl)amino]-2-hydroxypropoxy]benzonitrile", "1-tert-Butylamino-3-(2-cyanophenoxy)-2-propanol", "1-tert-Butylamino-3-(2-nitrilophenoxy)-2-propanol", "Bunitrolol", "1-(2-Cyanophenoxy)-2-hydroxy-3-tert-butylaminopropane", "dl-Bunitrolol", "(\u00b1)-Bunitrolol", "2-[3-(tert-Butylamino)-2-hydroxypropoxy]benzonitrile"], "SMILES": "O(CC(CNC(C)(C)C)O)C1=C(C#N)C=CC=C1", "physical_data": {"Molecular Weight": "248.32", "Molecular Formula": "C14H20N2O2", "Melting Point": "163-165 \u00b0C"}}