{"cas_no": "34911-55-2", "cn_name": "\u5b89\u975e\u4ed6\u916e", "en_name": ["(\u00b1)-Bupropion", "1-Propanone, 1-(3-chlorophenyl)-2-[(1,1-dimethylethyl)amino]-", "1-Propanone, 1-(3-chlorophenyl)-2-[(1,1-dimethylethyl)amino]-, (\u00b1)-", "1-(3-Chlorophenyl)-2-[(1,1-dimethylethyl)amino]-1-propanone", "Bupropion", "Amfebutamone", "\u03b1-(tert-Butylamino)-m-chloropropiophenone", "(\u00b1)-Bupropion", "Amfebutamon", "Bupropion SR", "Elontril", "Aplenzin", "Bupropion XL", "Bupropion XR", "Bupron", "2-(tert-Butylamino)-1-(3-chlorophenyl)propan-1-one", "Forfivo XL", "Buproban", "MeSH ID: D016642"], "SMILES": "C(C(NC(C)(C)C)C)(=O)C1=CC(Cl)=CC=C1", "physical_data": {"Molecular Weight": "239.74", "Molecular Formula": "C13H18ClNO", "Boiling Point": "52 \u00b0C", "Melting Point": "25 \u00b0C"}}