{"cas_no": "34911-51-8", "cn_name": "2-\u6eb4-3'-\u6c2f\u82ef\u4e19\u916e", "en_name": ["2-Bromo-1-(3-chlorophenyl)-1-propanone", "1-Propanone, 2-bromo-1-(3-chlorophenyl)-", "Propiophenone, 2-bromo-3\u2032-chloro-", "2-Bromo-1-(3-chlorophenyl)-1-propanone", "2-Bromo-3\u2032-chloropropiophenone", "\u03b1-Bromo-m-chloropropiophenone", "\u03b1-Bromo-3-chloropropiophenone", "2-Bromo-1-(3-chlorophenyl)propan-1-one"], "SMILES": "C(C(Br)C)(=O)C1=CC(Cl)=CC=C1", "physical_data": {"Molecular Weight": "247.52", "Molecular Formula": "C9H8BrClO", "Boiling Point": "148-148.5 \u00b0C @ Press: 9 Torr", "Density": "1.5316 g/cm\u00b3 @ Temp: 20 \u00b0C"}}