{"cas_no": "3491-12-1", "cn_name": "1,4-\u53cc(4-\u6c28\u57fa\u82ef\u6c27\u57fa)\u82ef", "en_name": ["4,4\u2032-[1,4-Phenylenebis(oxy)]bis[benzenamine]", "Benzenamine, 4,4\u2032-[1,4-phenylenebis(oxy)]bis-", "Aniline, 4,4\u2032-(p-phenylenedioxy)di-", "4,4\u2032-[1,4-Phenylenebis(oxy)]bis[benzenamine]", "p-Bis(4-aminophenoxy)benzene", "p-Phenylenebis(oxy-p-phenylene)diamine", "1,4-Bis(p-aminophenoxy)benzene", "4,4\u2032-(p-Phenylenedioxy)dianiline", "4,4\u2032-[1,4-Phenylenebis(oxy)]bis[aniline]", "1,4-Bis(4-aminophenoxy)benzene", "B 1243", "4,4\u2032-(1,4-Phenylenebis(oxy))dianiline", "TPEQ"], "SMILES": "O(C1=CC=C(OC2=CC=C(N)C=C2)C=C1)C3=CC=C(N)C=C3", "physical_data": {"Molecular Weight": "292.33", "Molecular Formula": "C18H16N2O2", "Melting Point": "173 \u00b0C"}}