{"cas_no": "34916-78-4", "cn_name": "4-\u7f9f\u57fa-5,6-\u4e8c\u7532\u57fa\u5627\u5576", "en_name": ["5,6-Dimethyl-4(3H)-pyrimidinone", "4(3H)-Pyrimidinone, 5,6-dimethyl-", "4(1H)-Pyrimidinone, 5,6-dimethyl-", "4-Pyrimidinol, 5,6-dimethyl-", "5,6-Dimethyl-4(3H)-pyrimidinone", "4-Hydroxy-5,6-dimethylpyrimidine", "5,6-Dimethyl-4-hydroxypyrimidine"], "SMILES": "CC1=C(C)NC=NC1=O", "physical_data": {"Molecular Weight": "124.14", "Molecular Formula": "C6H8N2O", "Melting Point": "202-204 \u00b0C"}}