{"cas_no": "34911-25-6", "cn_name": "7-\u6c2f-1-\u831a\u6ee1\u916e", "en_name": ["7-Chloro-2,3-dihydro-1H-inden-1-one", "1H-Inden-1-one, 7-chloro-2,3-dihydro-", "7-Chloro-2,3-dihydro-1H-inden-1-one", "7-Chloro-1-indanone"], "SMILES": "ClC1=C2C(=CC=C1)CCC2=O", "physical_data": {"Molecular Weight": "166.60", "Molecular Formula": "C9H7ClO", "Melting Point": "98 \u00b0C"}}