{"cas_no": "3493-12-7", "cn_name": "\u7ef4\u751f\u7d20U", "en_name": ["DL-Methionine methylsulfonium chloride", "Sulfonium, (3-amino-3-carboxypropyl)dimethyl-, chloride (1:1)", "Sulfonium, (3-amino-3-carboxypropyl)dimethyl-, chloride, DL-", "Sulfonium, (3-amino-3-carboxypropyl)dimethyl-, chloride, (\u00b1)-", "Sulfonium, (3-amino-3-carboxypropyl)dimethyl-, chloride", "dl-Methionine methylsulphonium chloride", "DL-Methionine methylsulfonium chloride", "\u03b3-Dimethylsulfonium-\u03b1-aminobutyric acid chloride", "(3-Amino-3-carboxypropyl)dimethylsulfonium chloride", "(3-Amino-3-carboxypropyl)dimethylsulfanium chloride"], "SMILES": "C(CC[S+](C)C)(C(O)=O)N.[Cl-]", "physical_data": {"Molecular Weight": "", "Molecular Formula": "C6H14NO2S.Cl", "Melting Point": "137-138 \u00b0C (decomp)"}}