{"cas_no": "34946-82-2", "cn_name": "\u4e09\u6c1f\u7532\u70f7\u78fa\u9178\u94dc(\u2161)", "en_name": ["Copper(II) triflate", "Methanesulfonic acid, 1,1,1-trifluoro-, copper(2+) salt (2:1)", "Methanesulfonic acid, trifluoro-, copper(2+) salt", "Cupric trifluoromethanesulfonate", "Copper(II) triflate", "Cupric bis(trifluoromethanesulfonate)", "Cupric triflate", "Cupric trifluoromethylsulfonate", "Bis(trifluoromethanesulfonato)copper", "Copper ditriflate", "Copper bis(trifluoromethanesulfonate)", "Trifluoromethanesulfonic acid copper salt (2:1)", "Copper(II) trifluoromethanesulfonate", "Copper(2+) trifluoromethylsulfonate", "Copper(2+) bis(trifluoromethanesulfonate)", "Copper(2+) triflate", "Trifluoromethanesulfonic acid copper(2+) salt", "Copper, bis(1,1,1-trifluoromethanesulfonato-\u03baO)-", "Bis(1,1,1-trifluoromethanesulfonato-\u03baO)copper"], "SMILES": "C(S(=O)(=O)O)(F)(F)F.[Cu]", "physical_data": {"Molecular Weight": "", "Molecular Formula": "CHF3O3S.<sup>1</sup>/2Cu", "Melting Point": "&gt;400 \u00b0C"}}