{"cas_no": "34941-90-7", "cn_name": "2,4-\u4e8c\u6c1f\u5421\u5576", "en_name": ["2,4-Difluoropyridine", "Pyridine, 2,4-difluoro-", "2,4-Difluoropyridine"], "SMILES": "FC=1C=C(F)N=CC1", "physical_data": {"Molecular Weight": "115.08", "Molecular Formula": "C5H3F2N", "Boiling Point": "104-106 \u00b0C"}}