{"cas_no": "3496-11-5", "cn_name": "N-\u82c4\u6c27\u7fb0\u57fa-L-\u7f2c\u6c28\u9178\u7425\u73c0\u9170\u4e9a\u80fa\u916f", "en_name": ["L-Valine, N-[(phenylmethoxy)carbonyl]-, 2,5-dioxo-1-pyrrolidinyl ester", "L-Valine, N-[(phenylmethoxy)carbonyl]-, 2,5-dioxo-1-pyrrolidinyl ester", "Succinimide, N-[(N-carboxy-L-valyl)oxy]-, benzyl ester", "Carbamic acid, [1-[[(2,5-dioxo-1-pyrrolidinyl)oxy]carbonyl]-2-methylpropyl]-, phenylmethyl ester, (S)-", "Carbamic acid, [(1S)-1-[[(2,5-dioxo-1-pyrrolidinyl)oxy]carbonyl]-2-methylpropyl]-, phenylmethyl ester", "Valine, N-carboxy-, N-benzyl ester, succinimido deriv., L-", "N-Benzyloxycarbonyl-L-valine N-hydroxysuccinimide ester", "N-Carbobenzyloxy-L-valine hydroxysuccinimide ester", "NSC 322480", "(2,5-Dioxopyrrolidin-1-yl) (2S)-3-methyl-2-(phenylmethoxycarbonylamino)butanoate"], "SMILES": "O(C(C(NC(OCC1=CC=CC=C1)=O)C(C)C)=O)N2C(=O)CCC2=O", "physical_data": {"Molecular Weight": "348.35", "Molecular Formula": "C17H20N2O6", "Melting Point": "116-117 \u00b0C"}}