{"cas_no": "3497-00-5", "cn_name": "\u82ef\u57fa\u786b\u4ee3\u78f7\u9170\u4e8c\u6c2f", "en_name": ["P-Phenylphosphonothioic dichloride", "Phosphonothioic dichloride, P-phenyl-", "Phosphonothioic dichloride, phenyl-", "P-Phenylphosphonothioic dichloride", "Phenylthiophosphonyl dichloride", "Phenylphosphonothioic dichloride", "Phenylphosphonothioyl dichloride", "Phenylthionophosphonic dichloride", "Dichlorophenylphosphine sulfide", "Phenylphosphonothioic chloride", "Phenylthiophosphonic dichloride", "Phenylphosphorus thiodichloride", "Phenylphosphonothionodichloridic acid", "NSC 62217"], "SMILES": "P(Cl)(Cl)(=S)C1=CC=CC=C1", "physical_data": {"Molecular Weight": "211.05", "Molecular Formula": "C6H5Cl2PS", "Boiling Point": "95-110 \u00b0C @ Press: 2-3 Torr", "Melting Point": "76-77 \u00b0C", "Density": "1.4042 g/cm\u00b3 @ Temp: 20 \u00b0C"}}