{"cas_no": "34970-18-8", "cn_name": "3,3-\u4e8c\u7532\u57fa\u73af\u4e01\u70f7\u7532\u9178", "en_name": ["3,3-Dimethylcyclobutanecarboxylic acid", "Cyclobutanecarboxylic acid, 3,3-dimethyl-", "3,3-Dimethylcyclobutanecarboxylic acid", "3,3-Dimethylcyclobutane-1-carboxylic acid"], "SMILES": "C(O)(=O)C1CC(C)(C)C1", "physical_data": {"Molecular Weight": "128.17", "Molecular Formula": "C7H12O2", "Boiling Point": "204 \u00b0C"}}