{"cas_no": "34980-39-7", "cn_name": "\u6606\u5e03\u4e8c\u7cd6", "en_name": ["Laminaribiose", "D-Glucose, 3-O-\u03b2-D-glucopyranosyl-", "Laminaribiose", "3-O-\u03b2-D-Glucopyranosyl-D-glucose", "Laminariose"], "SMILES": "O(C(C(C(CO)O)O)C(C=O)O)C1OC(CO)C(O)C(O)C1O", "physical_data": {"Molecular Weight": "342.30", "Molecular Formula": "C12H22O11", "Melting Point": "204-206 \u00b0C"}}