{"cas_no": "34981-38-9", "cn_name": "5-\u6c2f-2-\u7532\u57fa\u82ef\u78fa\u9170\u6c2f", "en_name": ["5-Chloro-2-methylbenzenesulfonyl chloride", "Benzenesulfonyl chloride, 5-chloro-2-methyl-", "o-Toluenesulfonyl chloride, 5-chloro-", "5-Chloro-2-methylbenzenesulfonyl chloride", "2-Methyl-5-chlorobenzenesulfonyl chloride", "5-Chloro-o-toluenesulfonyl chloride", "3-Chloro-6-methylbenzenesulfonyl chloride", "NSC 295387"], "SMILES": "S(Cl)(=O)(=O)C1=C(C)C=CC(Cl)=C1", "physical_data": {"Molecular Weight": "225.09", "Molecular Formula": "C7H6Cl2O2S", "Boiling Point": "154 \u00b0C @ Press: 16 Torr", "Melting Point": "24 \u00b0C"}}