{"cas_no": "34981-12-9", "cn_name": "3-(1-\u4e59\u9170\u57fa-1,4-\u4e8c\u6c22\u5421\u5576-4-\u57fa)-1H-\u5432\u54da", "en_name": ["1-[4-(1H-Indol-3-yl)-1(4H)-pyridinyl]ethanone", "Ethanone, 1-[4-(1H-indol-3-yl)-1(4H)-pyridinyl]-", "Pyridine, 1-acetyl-1,4-dihydro-4-(1H-indol-3-yl)-", "Pyridine, 1-acetyl-1,4-dihydro-4-indol-3-yl-", "1-[4-(1H-Indol-3-yl)-1(4H)-pyridinyl]ethanone", "1-[4-(1H-Indol-3-yl)-4H-pyridin-1-yl]ethanone", "1-[4-(1H-Indol-3-yl)pyridin-1(4H)-yl]ethan-1-one", "1-[4-(1H-Indol-3-yl)-1,4-dihydropyridin-1-yl]ethan-1-one"], "SMILES": "C(C)(=O)N1C=CC(C=2C=3C(NC2)=CC=CC3)C=C1", "physical_data": {"Molecular Weight": "238.28", "Molecular Formula": "C15H14N2O", "Melting Point": "155 \u00b0C"}}