{"cas_no": "34981-25-4", "cn_name": "\u6b21\u82e6\u53c2\u7d20", "en_name": ["Kuraridin", "2-Propen-1-one, 1-[2,4-dihydroxy-6-methoxy-3-[(2R)-5-methyl-2-(1-methylethenyl)-4-hexen-1-yl]phenyl]-3-(2,4-dihydroxyphenyl)-, (2E)-", "2-Propen-1-one, 1-[2,4-dihydroxy-6-methoxy-3-[5-methyl-2-(1-methylethenyl)-4-hexenyl]phenyl]-3-(2,4-dihydroxyphenyl)-, (E)-(+)-", "2-Propen-1-one, 1-[2,4-dihydroxy-6-methoxy-3-[(2R)-5-methyl-2-(1-methylethenyl)-4-hexenyl]phenyl]-3-(2,4-dihydroxyphenyl)-, (2E)-", "(2E)-1-[2,4-Dihydroxy-6-methoxy-3-[(2R)-5-methyl-2-(1-methylethenyl)-4-hexen-1-yl]phenyl]-3-(2,4-dihydroxyphenyl)-2-propen-1-one", "Kuraridin", "2,2\u2032,4,4\u2032-Tetrahydroxy-6\u2032-methoxy-3\u2032-(5-methyl-2-isopropenylhex-4-enyl)chalcone", "Kuraridine"], "SMILES": "C(C=CC1=C(O)C=C(O)C=C1)(=O)C2=C(OC)C=C(O)C(CC(CC=C(C)C)C(C)=C)=C2O", "physical_data": {"Molecular Weight": "438.51", "Molecular Formula": "C26H30O6", "Melting Point": "114-116 \u00b0C"}}