{"cas_no": "34981-26-5", "cn_name": "\u82e6\u53c2\u916e", "en_name": ["Kurarinone", "4H-1-Benzopyran-4-one, 2-(2,4-dihydroxyphenyl)-2,3-dihydro-7-hydroxy-5-methoxy-8-[(2R)-5-methyl-2-(1-methylethenyl)-4-hexen-1-yl]-, (2S)-", "4H-1-Benzopyran-4-one, 2-(2,4-dihydroxyphenyl)-2,3-dihydro-7-hydroxy-5-methoxy-8-[(2R)-5-methyl-2-(1-methylethenyl)-4-hexenyl]-, (2S)-", "(2S)-2-(2,4-Dihydroxyphenyl)-2,3-dihydro-7-hydroxy-5-methoxy-8-[(2R)-5-methyl-2-(1-methylethenyl)-4-hexen-1-yl]-4H-1-benzopyran-4-one", "Kurarinone", "(-)-Kurarinone", "Marini", "SML 1843"], "SMILES": "C(C(CC=C(C)C)C(C)=C)C1=C2C(=C(OC)C=C1O)C(=O)CC(O2)C3=C(O)C=C(O)C=C3", "physical_data": {"Molecular Weight": "438.51", "Molecular Formula": "C26H30O6", "Melting Point": "115-117 \u00b0C"}}