{"cas_no": "34985-37-0", "cn_name": "S(-)-2-\u7532\u57fa-1-\u4e19\u80fa", "en_name": ["(S)-(-)-2-Methylbutylamine", "1-Butanamine, 2-methyl-, (2S)-", "1-Butanamine, 2-methyl-, (S)-", "(2S)-2-Methyl-1-butanamine", "(S)-(-)-2-Methylbutylamine", "(S)-2-Methyl-1-butanamine", "(S)-1-Amino-2-methylbutane", "(S)-2-Methylbutylamine", "(2S)-2-Methylbutylamine", "(S)-2-Methyl-1-butylamine", "(S)-(-)-2-Methyl-1-butylamine", "(2S)-2-Methylbutan-1-amine"], "SMILES": "C(CC)(CN)C", "physical_data": {"Molecular Weight": "87.16", "Molecular Formula": "C5H13N", "Boiling Point": "95 \u00b0C", "Density": "0.7490 g/cm\u00b3"}}