{"cas_no": "34981-24-3", "cn_name": "\u82e6\u53c2\u9187 F", "en_name": ["Sophoraflavanone G", "4H-1-Benzopyran-4-one, 2-(2,4-dihydroxyphenyl)-2,3-dihydro-5,7-dihydroxy-8-[(2R)-5-methyl-2-(1-methylethenyl)-4-hexen-1-yl]-, (2S)-", "4H-1-Benzopyran-4-one, 2-(2,4-dihydroxyphenyl)-2,3-dihydro-5,7-dihydroxy-8-[5-methyl-2-(1-methylethenyl)-4-hexenyl]-, [S-(R*,S*)]-", "4H-1-Benzopyran-4-one, 2-(2,4-dihydroxyphenyl)-2,3-dihydro-5,7-dihydroxy-8-[(2R)-5-methyl-2-(1-methylethenyl)-4-hexenyl]-, (2S)-", "(2S)-2-(2,4-Dihydroxyphenyl)-2,3-dihydro-5,7-dihydroxy-8-[(2R)-5-methyl-2-(1-methylethenyl)-4-hexen-1-yl]-4H-1-benzopyran-4-one", "(-)-Vexibinol", "Vexibinol", "Sophoraflavanone G", "Norkurarinone", "Kushenol F", "Kushnol F"], "SMILES": "C(C(CC=C(C)C)C(C)=C)C1=C2C(C(=O)CC(O2)C3=C(O)C=C(O)C=C3)=C(O)C=C1O", "physical_data": {"Molecular Weight": "424.49", "Molecular Formula": "C25H28O6", "Melting Point": "178-180 \u00b0C"}}