{"cas_no": "350-51-6", "cn_name": "3-\u6c1f\u82ef\u4e59\u70ef", "en_name": ["3-Fluorostyrene", "Benzene, 1-ethenyl-3-fluoro-", "Styrene, m-fluoro-", "1-Ethenyl-3-fluorobenzene", "5-Fluorostyrene", "m-Fluorostyrene", "3-Fluorostyrene", "1-Fluoro-3-vinylbenzene"], "SMILES": "C(=C)C1=CC(F)=CC=C1", "physical_data": {"Molecular Weight": "122.14", "Molecular Formula": "C8H7F", "Boiling Point": "30-31 \u00b0C @ Press: 4 Torr", "Density": "1.025 g/cm\u00b3 @ Temp: 20 \u00b0C"}}