{"cas_no": "350-40-3", "cn_name": "1-\u6c1f-4-(\u5f02\u4e19\u70ef\u57fa)\u82ef", "en_name": ["1-Fluoro-4-(1-methylethenyl)benzene", "Benzene, 1-fluoro-4-(1-methylethenyl)-", "Styrene, p-fluoro-\u03b1-methyl-", "1-Fluoro-4-(1-methylethenyl)benzene", "p-Fluoro-\u03b1-methylstyrene", "4-Fluoro-\u03b1-methylstyrene", "1-Fluoro-4-isopropenylbenzene", "2-(4-Fluorophenyl)propene", "2-(4-Fluorophenyl)-1-propene", "4-Fluoro-1-isopropenylbenzene", "NSC 74474", "1-Fluoro-4-(prop-1-en-2-yl)benzene", "\u03b1-Methyl-4-fluorostyrene"], "SMILES": "C(C)(=C)C1=CC=C(F)C=C1", "physical_data": {"Molecular Weight": "136.17", "Molecular Formula": "C9H9F", "Boiling Point": "90-94 \u00b0C @ Press: 80 Torr"}}