{"cas_no": "350-12-9", "cn_name": "\u8212\u82ef\u6c40", "en_name": ["Sulbentine", "2H-1,3,5-Thiadiazine-2-thione, tetrahydro-3,5-bis(phenylmethyl)-", "2H-1,3,5-Thiadiazine-2-thione, 3,5-dibenzyltetrahydro-", "Tetrahydro-3,5-bis(phenylmethyl)-2H-1,3,5-thiadiazine-2-thione", "D 47", "Dibenzthion", "Dibenzthione", "3,5-Dibenzyltetrahydro-1,3,5-thiadiazine-2-thione", "N,N\u2032-Dibenzyl-2-thione-1,3,5-tetrahydrothiadiazine", "N,N\u2032-Dibenzyl-2-thio-1,3,5-tetrahydrothiadiazin", "Fungiplex", "Afungin", "Carbothialdin D47", "Carbothialdine", "3,5-Dibenzyltetrahydro-2H-1,3,5-thiadiazine-2-thione", "2-Thioxo-3,5-dibenzyltetrahydro-1,3,5-thiadiazine", "Refungine", "Sulbentine", "Noticin", "Mecal", "Sulbentin", "NSC 150555", "Dibenzathione", "3,5-Dibenzyl-1,3,5-thiadiazinane-2-thione"], "SMILES": "C(N1CN(CC2=CC=CC=C2)CSC1=S)C3=CC=CC=C3", "physical_data": {"Molecular Weight": "314.47", "Molecular Formula": "C17H18N2S2", "Melting Point": "101.5 \u00b0C"}}