{"cas_no": "350-57-2", "cn_name": "1,1,2,2-\u56db\u6c1f\u82ef\u4e59\u919a", "en_name": ["(1,1,2,2-Tetrafluoroethoxy)benzene", "Benzene, (1,1,2,2-tetrafluoroethoxy)-", "Phenetole, \u03b1,\u03b1,\u03b2,\u03b2-tetrafluoro-", "(1,1,2,2-Tetrafluoroethoxy)benzene", "1,1,2,2-Tetrafluoroethyl phenyl ether", "Phenyl \u03b1,\u03b1,\u03b2,\u03b2-tetrafluoroethyl ether", "4-(1,1,2,2-Tetrafluoroethoxy)benzene"], "SMILES": "O(C(C(F)F)(F)F)C1=CC=CC=C1", "physical_data": {"Molecular Weight": "194.13", "Molecular Formula": "C8H6F4O", "Boiling Point": "102 \u00b0C @ Press: 100 Torr"}}