{"cas_no": "350-92-5", "cn_name": "1,1,1-\u4e09\u6c1f-3-\u82ef\u57fa\u4e19\u916e", "en_name": ["1,1,1-Trifluoro-3-phenyl-2-propanone", "2-Propanone, 1,1,1-trifluoro-3-phenyl-", "1,1,1-Trifluoro-3-phenyl-2-propanone", "Trifluoromethyl benzyl ketone", "Benzyl trifluoromethyl ketone", "1,1,1-Trifluoro-3-phenylpropan-2-one", "3-Phenyl-1,1,1-trifluoro-2-propanone", "NSC 10062", "1-Phenyl-3,3,3-Trifluoro-2-propanone", "1,1,1-Trifluoro-3-phenylacetone"], "SMILES": "C(C(C(F)(F)F)=O)C1=CC=CC=C1", "physical_data": {"Molecular Weight": "188.15", "Molecular Formula": "C9H7F3O", "Boiling Point": "163.0-163.5 \u00b0C @ Press: 741 Torr"}}