{"cas_no": "350-31-2", "cn_name": "4-\u6c2f-3-\u6c1f\u785d\u57fa\u82ef", "en_name": ["1-Chloro-2-fluoro-4-nitrobenzene", "Benzene, 1-chloro-2-fluoro-4-nitro-", "1-Chloro-2-fluoro-4-nitrobenzene", "4-Chloro-3-fluoronitrobenzene"], "SMILES": "N(=O)(=O)C1=CC(F)=C(Cl)C=C1", "physical_data": {"Molecular Weight": "175.54", "Molecular Formula": "C6H3ClFNO2", "Boiling Point": "114-116 \u00b0C @ Press: 24 Torr", "Melting Point": "63-64 \u00b0C"}}