{"cas_no": "350-29-8", "cn_name": "3-\u6c1f-4-\u7f9f\u57fa\u82ef\u7532\u9178", "en_name": ["3-Fluoro-4-hydroxybenzoic acid", "Benzoic acid, 3-fluoro-4-hydroxy-", "3-Fluoro-4-hydroxybenzoic acid", "4-Hydroxy-3-fluorobenzoic acid", "5-Fluoro-4-hydroxybenzoic acid"], "SMILES": "C(O)(=O)C1=CC(F)=C(O)C=C1", "physical_data": {"Molecular Weight": "156.11", "Molecular Formula": "C7H5FO3", "Melting Point": "160-161 \u00b0C"}}