{"cas_no": "350-03-8", "cn_name": "3-\u4e59\u9170\u57fa\u5421\u5576", "en_name": ["3-Acetylpyridine", "Ethanone, 1-(3-pyridinyl)-", "Ketone, methyl 3-pyridyl", "1-(3-Pyridinyl)ethanone", "\u03b2-Acetylpyridine", "3-Acetylpyridine", "Methyl \u03b2-pyridyl ketone", "Methyl 3-pyridyl ketone", "3-Acetopyridine", "3-Pyridyl methyl ketone", "3-Pyridinyl methyl ketone", "NSC 761", "1-(Pyridin-3-yl)ethan-1-one", "1-(Pyridin-3-yl)ethanone", "Methyl pyridin-3-yl ketone", "1-(3-Pyridyl)ethanone", "3-Pyridylethanone"], "SMILES": "C(C)(=O)C=1C=CC=NC1", "physical_data": {"Molecular Weight": "121.14", "Molecular Formula": "C7H7NO", "Boiling Point": "220 \u00b0C", "Melting Point": "13.5 \u00b0C"}}