{"cas_no": "350-46-9", "cn_name": "\u5bf9\u6c1f\u785d\u57fa\u82ef", "en_name": ["4-Fluoronitrobenzene", "Benzene, 1-fluoro-4-nitro-", "1-Fluoro-4-nitrobenzene", "p-Nitrofluorobenzene", "p-Fluoronitrobenzene", "1-Nitro-4-fluorobenzene", "4-Fluoronitrobenzene", "4-Nitrofluorobenzene", "4-Fluoro-1-nitrobenzene", "4-Nitro-1-fluorobenzene", "4-Nitrophenyl fluoride", "NSC 10281", "Para-fluoronitrobenzene"], "SMILES": "N(=O)(=O)C1=CC=C(F)C=C1", "physical_data": {"Molecular Weight": "141.10", "Molecular Formula": "C6H4FNO2", "Boiling Point": "206-207 \u00b0C", "Melting Point": "27 \u00b0C", "Density": "1.3300 g/cm\u00b3 @ Temp: 20 \u00b0C"}}