{"cas_no": "350-30-1", "cn_name": "3-\u6c2f-4-\u6c1f\u785d\u57fa\u82ef", "en_name": ["3-Chloro-4-fluoronitrobenzene", "Benzene, 2-chloro-1-fluoro-4-nitro-", "2-Chloro-1-fluoro-4-nitrobenzene", "3-Chloro-4-fluoronitrobenzene", "1-Chloro-2-fluoro-5-nitrobenzene", "3-Chloro-4-fluoro-1-nitrobenzene", "NSC 163894", "4-Fluoro-3-chloronitrobenzene", "1-Fluoro-2-chloro-4-nitrobenzene", "2-Chloro-4-nitrofluorobenzene"], "SMILES": "N(=O)(=O)C1=CC(Cl)=C(F)C=C1", "physical_data": {"Molecular Weight": "175.54", "Molecular Formula": "C6H3ClFNO2", "Boiling Point": "92-93 \u00b0C @ Press: 7.5 Torr", "Melting Point": "41.5 \u00b0C"}}