{"cas_no": "350-28-7", "cn_name": "3-\u6c1f-4-\u7532\u57fa\u82ef\u7532\u9178", "en_name": ["3-Fluoro-4-methylbenzoic acid", "Benzoic acid, 3-fluoro-4-methyl-", "p-Toluic acid, 3-fluoro-", "3-Fluoro-4-methylbenzoic acid", "3-Fluoro-4-toluic acid", "NSC 56683", "5-Fluoro-4-methylbenzoic acid"], "SMILES": "C(O)(=O)C1=CC(F)=C(C)C=C1", "physical_data": {"Molecular Weight": "154.14", "Molecular Formula": "C8H7FO2", "Melting Point": "159-160.1 \u00b0C"}}