{"cas_no": "350-90-3", "cn_name": "\u03b1-\u6c1f\u8089\u6842\u9178", "en_name": ["2-Fluoro-3-phenyl-2-propenoic acid", "2-Propenoic acid, 2-fluoro-3-phenyl-", "Cinnamic acid, \u03b1-fluoro-", "2-Fluoro-3-phenyl-2-propenoic acid", "\u03b1-Fluorocinnamic acid", "NSC 102780", "2-Fluoro-3-phenylacrylic acid"], "SMILES": "C(=C(C(O)=O)F)C1=CC=CC=C1", "physical_data": {"Molecular Weight": "166.15", "Molecular Formula": "C9H7FO2", "Melting Point": "156-157 \u00b0C"}}