{"cas_no": "35000-38-5", "cn_name": "\u4e09\u82ef\u57fa\u78f7\u4e59\u9178\u53d4\u4e01\u916f", "en_name": ["(tert-Butoxycarbonylmethylene)triphenylphosphorane", "Acetic acid, 2-(triphenylphosphoranylidene)-, 1,1-dimethylethyl ester", "Acetic acid, (triphenylphosphoranylidene)-, 1,1-dimethylethyl ester", "(tert-Butoxycarbonylmethylene)triphenylphosphorane", "1,1-Dimethylethyl (triphenylphosphoranylidene)acetate", "tert-Butyl (triphenylphosphoranylidene)acetate", "Triphenyl(tert-butoxycarbonylmethylene)phosphorane", "(Triphenylphosphoranylidene)acetic acid tert-butyl ester", "(tert-Butoxycarbonylmethylene)triphenylphosphoran", "NSC 82469", "(Triphenyl-\u03bb5-phosphanylidene)acetic acid tert-butyl ester", "tert-Butyl 2-(triphenylphosphoranylidene)acetate", "1,1-Dimethylethyl 2-(triphenyl-\u03bb5-phosphanylidene)acetate", "tert-Butyl triphenylphosphoranylidenacetate", "tert-Butyl 2-(triphenylphosphaneylidene)acetate"], "SMILES": "P(=CC(OC(C)(C)C)=O)(C1=CC=CC=C1)(C2=CC=CC=C2)C3=CC=CC=C3", "physical_data": {"Molecular Weight": "376.43", "Molecular Formula": "C24H25O2P", "Melting Point": "158 \u00b0C"}}