{"cas_no": "35000-37-4", "cn_name": "(\u53d4\u4e01\u6c27\u57fa\u7fb0\u57fa\u7532\u57fa)\u6c2f\u5316\u4e09\u82ef\u57fa\u78f7", "en_name": ["Phosphonium, [2-(1,1-dimethylethoxy)-2-oxoethyl]triphenyl-, chloride (1:1)", "Phosphonium, [2-(1,1-dimethylethoxy)-2-oxoethyl]triphenyl-, chloride (1:1)", "Phosphonium, [2-(1,1-dimethylethoxy)-2-oxoethyl]triphenyl-, chloride", "(Carboxymethyl)triphenylphosphonium chloride, tert-butyl ester", "(tert-Butoxycarbonylmethyl)triphenylphosphonium chloride"], "SMILES": "[P+](CC(OC(C)(C)C)=O)(C1=CC=CC=C1)(C2=CC=CC=C2)C3=CC=CC=C3.[Cl-]", "physical_data": {"Molecular Weight": "", "Molecular Formula": "C24H26O2P.Cl", "Melting Point": "172-173 \u00b0C"}}