{"cas_no": "35013-72-0", "cn_name": "(+)\u751f\u7269\u7d20-N-\u7425\u73c0\u9170\u4e9a\u80fa\u57fa\u916f", "en_name": ["Biotin N-hydroxysuccinimide ester", "1H-Thieno[3,4-d]imidazole-4-pentanoic acid, hexahydro-2-oxo-, 2,5-dioxo-1-pyrrolidinyl ester, (3aS,4S,6aR)-", "2,5-Pyrrolidinedione, 1-[[5-(hexahydro-2-oxo-1H-thieno[3,4-d]imidazol-4-yl)-1-oxopentyl]oxy]-, [3aS-(3a\u03b1,4\u03b2,6a\u03b1)]-", "2,5-Pyrrolidinedione, 1-[[5-[(3aS,4S,6aR)-hexahydro-2-oxo-1H-thieno[3,4-d]imidazol-4-yl]-1-oxopentyl]oxy]-", "1H-Thieno[3,4-d]imidazole, 2,5-pyrrolidinedione deriv.", "Biotin N-hydroxysuccinimide ester", "Biotin N-hydroxysuccinimide", "(N-Hydroxysuccinimidyl)biotin", "D-Biotin N-hydroxysuccinimide ester", "NSC 345668", "Biotin N-hydroxysuccinimidyl ester", "(+)-Biotin N-hydroxysuccinimide ester", "Biotin NHS", "EZ-Link NHS-Biotin", "NHS Biotin", "Biotin succinimidyl ester", "Biotin-OSu", "Biotin NHS ester", "N-Succinimidyl D-biotinate", "(+)-Biotinyl-N-hydroxysuccinimide"], "SMILES": "C(CCCC(ON1C(=O)CCC1=O)=O)C2C3C(NC(=O)N3)CS2", "physical_data": {"Molecular Weight": "341.38", "Molecular Formula": "C14H19N3O5S", "Melting Point": "138-140 \u00b0C"}}