{"cas_no": "35044-57-6", "cn_name": "2,6,6-\u4e09\u7532\u57fa-2,4-\u73af\u5df1\u4e8c\u70ef-1-\u7532\u9178\u4e59\u916f", "en_name": ["Ethyl 2,6,6-trimethyl-2,4-cyclohexadiene-1-carboxylate", "2,4-Cyclohexadiene-1-carboxylic acid, 2,6,6-trimethyl-, ethyl ester", "Ethyl 2,6,6-trimethyl-2,4-cyclohexadiene-1-carboxylate", "Ethyl \u03b1-safranate", "2,6,6-Trimethyl-1-ethoxycarbonylcyclohexa-2,4-diene"], "SMILES": "C(OCC)(=O)C1C(C)(C)C=CC=C1C", "physical_data": {"Molecular Weight": "194.27", "Molecular Formula": "C12H18O2", "Boiling Point": "102-103 \u00b0C @ Press: 12 Torr"}}