{"cas_no": "3505-38-2", "cn_name": "\u9a6c\u6765\u9178\u7f57\u6258\u6c99\u654f", "en_name": ["Carbinoxamine maleate", "Ethanamine, 2-[(4-chlorophenyl)-2-pyridinylmethoxy]-N,N-dimethyl-, (2Z)-2-butenedioate (1:1)", "Pyridine, 2-[p-chloro-\u03b1-[2-(dimethylamino)ethoxy]benzyl]-, maleate (1:1)", "Ethanamine, 2-[(4-chlorophenyl)-2-pyridinylmethoxy]-N,N-dimethyl-, (Z)-2-butenedioate (1:1)", "Allergefon maleate", "Carbinoxamine maleate", "2-[p-Chloro-\u03b1-[2-(dimethylamino)ethoxy]benzyl]pyridine Bimaleate", "2-[p-Chloro-\u03b1-[2-(dimethylamino)ethoxy]benzyl]pyridine maleate", "Clistine Maleate", "Paracarbinoxamine maleate", "Cliston", "Clistin", "Rondec DM", "Polistin T-Caps", "Hislosine", "Allergefon", "Rondec", "Ciberon", "Lergefin", "NSC 62362"], "SMILES": "C(=CC(O)=O)C(O)=O.C(OCCN(C)C)(C1=CC=C(Cl)C=C1)C2=CC=CC=N2", "physical_data": {"Molecular Weight": "", "Molecular Formula": "C16H19ClN2O.C4H4O4", "Melting Point": "117-119 \u00b0C"}}