{"cas_no": "35065-86-2", "cn_name": "3-BROMOPHENYL ACETATE", "en_name": ["Phenol, 3-bromo-, 1-acetate", "Phenol, 3-bromo-, 1-acetate", "Phenol, 3-bromo-, acetate", "Phenol, m-bromo-, acetate", "m-Acetoxybromobenzene", "m-Bromophenyl acetate", "3-Bromophenyl acetate"], "SMILES": "O(C(C)=O)C1=CC(Br)=CC=C1", "physical_data": {"Molecular Weight": "215.04", "Molecular Formula": "C8H7BrO2", "Boiling Point": "149 \u00b0C @ Press: 40 Torr", "Density": "1.5478 g/cm\u00b3 @ Temp: 20 \u00b0C"}}