{"cas_no": "35065-27-1", "cn_name": "\u516d\u6c2f\u8054\u82ef", "en_name": ["PCB 153", "1,1\u2032-Biphenyl, 2,2\u2032,4,4\u2032,5,5\u2032-hexachloro-", "Biphenyl, 2,2\u2032,4,4\u2032,5,5\u2032-hexachloro-", "2,2\u2032,4,4\u2032,5,5\u2032-Hexachloro-1,1\u2032-biphenyl", "2,2\u2032,4,4\u2032,5,5\u2032-Hexachlorobiphenyl", "2,4,5,2\u2032,4\u2032,5\u2032-Hexachlorobiphenyl", "PCB 153", "K 153", "CB 153"], "SMILES": "ClC1=C(C=C(Cl)C(Cl)=C1)C2=C(Cl)C=C(Cl)C(Cl)=C2", "physical_data": {"Molecular Weight": "360.88", "Molecular Formula": "C12H4Cl6", "Melting Point": "137-138 \u00b0C"}}