{"cas_no": "35065-29-3", "cn_name": "2,2\u2032,3,4,4\u2032,5,5\u2032-\u4e03\u6c2f\u8054\u82ef", "en_name": ["PCB 180", "1,1\u2032-Biphenyl, 2,2\u2032,3,4,4\u2032,5,5\u2032-heptachloro-", "2,2\u2032,3,4,4\u2032,5,5\u2032-Heptachloro-1,1\u2032-biphenyl", "2,2\u2032,3,4,4\u2032,5,5\u2032-Heptachlorobiphenyl", "2,3,4,5,2\u2032,4\u2032,5\u2032-Heptachlorobiphenyl", "PCB 180", "K 180", "CB 180", "DTXSID6038299"], "SMILES": "ClC1=C(C=C(Cl)C(Cl)=C1Cl)C2=C(Cl)C=C(Cl)C(Cl)=C2", "physical_data": {"Molecular Weight": "395.32", "Molecular Formula": "C12H3Cl7", "Boiling Point": "240-280 \u00b0C", "Melting Point": "114 \u00b0C", "Density": "1.64 g/cm\u00b3 @ Temp: 65 \u00b0C"}}