{"cas_no": "3506-36-3", "cn_name": "3-(\u4e8c\u7532\u6c28\u57fa)\u82ef\u4e19\u916e\u76d0\u9178\u76d0", "en_name": ["3-(Dimethylamino)-1-phenyl-1-propanone", "1-Propanone, 3-(dimethylamino)-1-phenyl-", "Propiophenone, 3-(dimethylamino)-", "3-(Dimethylamino)-1-phenyl-1-propanone", "\u03b2-N,N\u2032-Dimethylaminopropiophenone", "3-(Dimethylamino)propiophenone", "Phenyl-\u03b2-dimethylaminoethyl ketone", "\u03b2-(Dimethylamino)propiophenone", "2-Benzoylethyldimethylamine", "2-(Dimethylamino)ethyl phenyl ketone", "NSC 89"], "SMILES": "C(CCN(C)C)(=O)C1=CC=CC=C1", "physical_data": {"Molecular Weight": "177.24", "Molecular Formula": "C11H15NO", "Boiling Point": "115-117 \u00b0C @ Press: 11 Torr", "Melting Point": "31-33 \u00b0C", "Density": "1.017 g/cm\u00b3 @ Temp: 20 \u00b0C"}}