{"cas_no": "3506-09-0", "cn_name": "\u76d0\u9178\u666e\u8418\u6d1b\u5c14", "en_name": ["Propranolol hydrochloride", "2-Propanol, 1-[(1-methylethyl)amino]-3-(1-naphthalenyloxy)-, hydrochloride (1:1)", "2-Propanol, 1-(isopropylamino)-3-(1-naphthyloxy)-, hydrochloride", "2-Propanol, 1-[(1-methylethyl)amino]-3-(1-naphthalenyloxy)-, hydrochloride", "Dociton", "1-(Isopropylamino)-3-(1-naphthyloxy)propan-2-ol hydrochloride", "1-(1-Naphthyloxy)-2-hydroxy-3-isopropylaminopropane hydrochloride", "Propranolol hydrochloride", "ICI 45520", "Naprilin", "Anapriline", "1-(1-Naphthoxy)-2-hydroxy-3-isopropylaminopropane hydrochloride", "Propranolol chloride", "1-(1-Naphthyloxy)-3-(isopropylamino)-2-propanol hydrochloride", "Anaprilin", "Obsidan", "Avlocardyl", "Inderal LA", "Propraratiopharm", "1-(Isopropylamino)-3-(1-naphthoxy)-2-propanol hydrochloride", "dl-Propranolol hydrochloride", "(\u00b1)-Propranolol hydrochloride", "Inderal", "DL-Anapriline", "Docitan", "DL-Propranolol hydrochloride", "Duranol", "(R,S)-Propranolol hydrochloride", "Angilol", "Beta-Tablinen", "Servanolol", "Oposim", "Prano-Puren", "Kemi S", "Elbol", "Bedranol", "NSC 91523", "Prophylux", "Pylapron", "Berkolol", "Cardinol", "Apsolol", "Tesnol", "Beta-Neg", "Frekven", "Beta-Timelets", "Rapynogen", "Sumial", "Beprane", "Sloprolol", "Deralin", "Propranur", "Sagittol", "Caridolol", "Efektolol", "Indobloc", "Intermigran", "(RS)-Propranolol hydrochloride", "Inderalici", "Monoprolol", "Ciplar", "Betacap", "1-Isopropylamino-3-naphthalen-1-yloxypropan-2-ol monohydrochloride", "1-(Naphthalen-1-yloxy)-3-[(propan-2-yl)amino]propan-2-ol hydrochloride", "1-(Isopropylamino)-3-(naphthalen-1-yloxy)propan-2-ol hydrochloride", "Hemangiol", "Hemangeol"], "SMILES": "O(CC(CNC(C)C)O)C=1C2=C(C=CC1)C=CC=C2.Cl", "physical_data": {"Molecular Weight": "", "Molecular Formula": "C16H21NO2.ClH", "Melting Point": "163-164 \u00b0C"}}