{"cas_no": "35061-50-8", "cn_name": "N,N'-\u4e8c\u4e59\u9170\u57fa\u58f3\u4e8c\u7cd6", "en_name": ["N,N\u2032-Diacetylchitobiose", "D-Glucose, 2-(acetylamino)-4-O-[2-(acetylamino)-2-deoxy-\u03b2-D-glucopyranosyl]-2-deoxy-", "Glucopyranose, 2-acetamido-4-O-(2-acetamido-2-deoxy-\u03b2-D-glucopyranosyl)-2-deoxy-, D-", "D-Glucose, 2-acetamido-4-O-(2-acetamido-2-deoxy-\u03b2-D-glucopyranosyl)-2-deoxy-", "D-Glucosamine, 4-O-(2-acetamido-2-deoxy-\u03b2-D-glucopyranosyl)-N-acetyl-", "2-(Acetylamino)-4-O-[2-(acetylamino)-2-deoxy-\u03b2-D-glucopyranosyl]-2-deoxy-D-glucose", "N,N\u2032-Diacetylchitobiose", "Chitobiose, N,N\u2032-diacetyl-", "Bis(N-acetyl)chitobiose", "Di-N-acetylchitobiose", "N,N\u2032-Diacetyl-D-chitobiose", "Di-N-acetyl-D-chitobiose", "Chitobiose diacetate", "N-acetylchitobiose", "N\u2032,N\u2032\u2032-Diacetylchitobiose"], "SMILES": "O(C(C(C(NC(C)=O)C=O)O)C(CO)O)C1C(NC(C)=O)C(O)C(O)C(CO)O1", "physical_data": {"Molecular Weight": "424.40", "Molecular Formula": "C16H28N2O11", "Melting Point": "&gt;185 \u00b0C (decomp)"}}