{"cas_no": "35071-17-1", "cn_name": "2-MERCAPTO-4-METHYLPYRIMIDINE", "en_name": ["2-Mercapto-4-methylpyrimidine", "2(1H)-Pyrimidinethione, 4-methyl-", "2-Pyrimidinethiol, 4-methyl-", "4-Methyl-2(1H)-pyrimidinethione", "4-Methyl-2-mercaptopyrimidine", "2-Mercapto-4-methylpyrimidine", "4-Methyl-2-pyrimidinethiol", "4-Methyl-2-thiopyrimidine", "4-Methylpyrimidine-2-thione", "NSC 314275"], "SMILES": "CC=1NC(=S)N=CC1", "physical_data": {"Molecular Weight": "126.18", "Molecular Formula": "C5H6N2S", "Melting Point": "200 \u00b0C"}}