{"cas_no": "35081-45-9", "cn_name": "4'-\u82ef\u7532\u6c27\u57fa-2-\u6eb4\u82ef\u4e19\u916e", "en_name": ["2-Bromo-1-[4-(phenylmethoxy)phenyl]-1-propanone", "1-Propanone, 2-bromo-1-[4-(phenylmethoxy)phenyl]-", "Propiophenone, 4\u2032-(benzyloxy)-2-bromo-", "2-Bromo-1-[4-(phenylmethoxy)phenyl]-1-propanone", "p-Benzyloxy-\u03b1-bromopropiophenone", "4\u2032-(Benzyloxy)-2-bromopropiophenone", "2-Bromo-1-(4-benzyloxyphenyl)-1-propanone", "NSC 321048", "1-(4-Benzyloxyphenyl)-2-bromopropan-1-one"], "SMILES": "C(C(Br)C)(=O)C1=CC=C(OCC2=CC=CC=C2)C=C1", "physical_data": {"Molecular Weight": "319.19", "Molecular Formula": "C16H15BrO2", "Melting Point": "78-80 \u00b0C"}}