{"cas_no": "3508-00-7", "cn_name": "1-\u6eb4\u5341\u4e03\u70f7", "en_name": ["1-Bromoheptadecane", "Heptadecane, 1-bromo-", "1-Bromoheptadecane", "n-Heptadecyl bromide", "NSC 103682", "Heptadecyl bromide"], "SMILES": "C(CCCCCCCCC)CCCCCCCBr", "physical_data": {"Molecular Weight": "319.36", "Molecular Formula": "C17H35Br", "Boiling Point": "349 \u00b0C", "Melting Point": "32 \u00b0C"}}