{"cas_no": "35086-59-0", "cn_name": "3,5-\u4e8c\u4e59\u9170\u6c27\u57fa\u82ef\u4e59\u916e", "en_name": ["1-[3,5-Bis(acetyloxy)phenyl]ethanone", "Ethanone, 1-[3,5-bis(acetyloxy)phenyl]-", "Acetophenone, 3\u2032,5\u2032-dihydroxy-, diacetate", "1-[3,5-Bis(acetyloxy)phenyl]ethanone", "3,5-Diacetoxyacetophenone", "3\u2032,5\u2032-Diacetoxyacetophenone", "(3-Acetyl-5-acetyloxyphenyl) acetate"], "SMILES": "O(C(C)=O)C1=CC(C(C)=O)=CC(OC(C)=O)=C1", "physical_data": {"Molecular Weight": "236.22", "Molecular Formula": "C12H12O5", "Boiling Point": "165-168 \u00b0C @ Press: 0.6 Torr", "Melting Point": "93 \u00b0C"}}