{"cas_no": "3508-94-9", "cn_name": "2-\u5f02\u4e19\u57fa-2-\u82ef\u57fa\u4e59\u9178", "en_name": ["3-Methyl-2-phenylbutanoic acid", "Benzeneacetic acid, \u03b1-(1-methylethyl)-", "Butyric acid, 3-methyl-2-phenyl-", "\u03b1-(1-Methylethyl)benzeneacetic acid", "3-Methyl-2-phenylbutyric acid", "\u03b1-Isopropylphenylacetic acid", "3-Methyl-2-phenylbutanoic acid", "(RS)-2-Phenyl-3-methylbutanoic acid", "(\u00b1)-\u03b1-Isopropylphenylacetic acid", "(\u00b1)-2-Phenyl-3-methylbutyric acid", "NSC 22982", "2-Phenyl-3-methylbutanoic acid", "2-Isopropyl-2-phenylacetic acid"], "SMILES": "C(C(C)C)(C(O)=O)C1=CC=CC=C1", "physical_data": {"Molecular Weight": "178.23", "Molecular Formula": "C11H14O2", "Boiling Point": "145-147 \u00b0C @ Press: 10 Torr", "Melting Point": "62-63 \u00b0C"}}