{"cas_no": "35082-49-6", "cn_name": "\u5c3e\u5b62\u83cc\u7d20", "en_name": ["Cercosporin", "Perylo[1,12-def]-1,3-dioxepin-5,11-dione, 6,12-dihydroxy-8,9-bis[(2R)-2-hydroxypropyl]-7,10-dimethoxy-, (13bR)-", "Cercosporin", "Perylo[1,12-def]-1,3-dioxepin-5,11-dione, 6,12-dihydroxy-8,9-bis(2-hydroxypropyl)-7,10-dimethoxy-, stereoisomer", "(13bR)-6,12-Dihydroxy-8,9-bis[(2R)-2-hydroxypropyl]-7,10-dimethoxyperylo[1,12-def]-1,3-dioxepin-5,11-dione", "(+)-Cercosporin", "NSC 153111"], "SMILES": "C(C(C)O)C=1C=2C=3C=4C5=C6C2C(CC(C)O)=C(OC)C(O)=C6C(=O)C=C5OCOC4C=C(O)C3C(=O)C1OC", "physical_data": {"Molecular Weight": "534.51", "Molecular Formula": "C29H26O10", "Melting Point": "241 \u00b0C"}}