{"cas_no": "35094-87-2", "cn_name": "2,4,5-\u4e09\u7f9f\u57fa\u82ef\u7532\u919b", "en_name": ["2,4,5-Trihydroxybenzaldehyde", "Benzaldehyde, 2,4,5-trihydroxy-", "2,4,5-Trihydroxybenzaldehyde", "4,5-Dihydroxysalicylaldehyde"], "SMILES": "C(=O)C1=C(O)C=C(O)C(O)=C1", "physical_data": {"Molecular Weight": "154.12", "Molecular Formula": "C7H6O4", "Melting Point": "229-230 \u00b0C"}}