{"cas_no": "35092-89-8", "cn_name": "2-\u785d\u57fa\u5bf9\u82ef\u4e8c\u9178\u5355\u7532\u916f", "en_name": ["1-Methyl 2-nitro-1,4-benzenedicarboxylate", "1,4-Benzenedicarboxylic acid, 2-nitro-, 1-methyl ester", "1-Methyl 2-nitro-1,4-benzenedicarboxylate", "4-Methoxycarbonyl-3-nitrobenzoic acid", "NSC 151109", "2-Nitroterephthalic acid 1-methyl ester", "1-Methyl 2-nitroterephthalate", "Methyl 4-carboxy-2-nitrobenzoate", "1-Nitrobenzene-2-methyloxycarbonyl-5-carboxylic acid"], "SMILES": "C(OC)(=O)C1=C(N(=O)=O)C=C(C(O)=O)C=C1", "physical_data": {"Molecular Weight": "225.15", "Molecular Formula": "C9H7NO6", "Melting Point": "177-179 \u00b0C"}}