{"cas_no": "351-50-8", "cn_name": "D-\u7ec4\u6c28\u9178", "en_name": ["D-Histidine", "D-Histidine", "Histidine, D-", "(R)-Histidine", "(R)-2-Amino-3-(1H-imidazol-4-yl)propanoic acid", "(2R)-2-Azaniumyl-3-(1H-imidazol-5-yl)propanoate", "(2R)-2-Amino-3-(1H-imidazol-4-yl)propanoic acid", "(R)-2-Amino-3-(1H-imidazol-4-yl)propanoic acid"], "SMILES": "C(C(C(O)=O)N)C1=CN=CN1", "physical_data": {"Molecular Weight": "155.15", "Molecular Formula": "C6H9N3O2", "Melting Point": "287-288 \u00b0C (decomp)"}}