{"cas_no": "351-32-6", "cn_name": "N-(4-\u6c1f-3-\u785d\u57fa\u82ef\u57fa)\u4e59\u9170\u80fa", "en_name": ["N-(4-Fluoro-3-nitrophenyl)acetamide", "Acetamide, N-(4-fluoro-3-nitrophenyl)-", "Acetanilide, 4\u2032-fluoro-3\u2032-nitro-", "N-(4-Fluoro-3-nitrophenyl)acetamide", "4\u2032-Fluoro-3\u2032-nitroacetanilide", "NSC 403008"], "SMILES": "N(C(C)=O)C1=CC(N(=O)=O)=C(F)C=C1", "physical_data": {"Molecular Weight": "198.15", "Molecular Formula": "C8H7FN2O3", "Melting Point": "138.5 \u00b0C"}}