{"cas_no": "351-30-4", "cn_name": "4'-\u6eb4-3'-\u6c1f\u4e59\u9170\u82ef\u80fa", "en_name": ["N-(4-Bromo-3-fluorophenyl)acetamide", "Acetamide, N-(4-bromo-3-fluorophenyl)-", "Acetanilide, 4\u2032-bromo-3\u2032-fluoro-", "N-(4-Bromo-3-fluorophenyl)acetamide", "4-Bromo-3-fluoroacetanilide"], "SMILES": "N(C(C)=O)C1=CC(F)=C(Br)C=C1", "physical_data": {"Molecular Weight": "232.05", "Molecular Formula": "C8H7BrFNO", "Melting Point": "152 \u00b0C"}}