{"cas_no": "351-35-9", "cn_name": "\u95f4\u4e09\u6c1f\u7532\u57fa\u82ef\u4e59\u9178", "en_name": ["[3-(Trifluoromethyl)phenyl]acetic acid", "Benzeneacetic acid, 3-(trifluoromethyl)-", "Acetic acid, (\u03b1,\u03b1,\u03b1-trifluoro-m-tolyl)-", "3-(Trifluoromethyl)benzeneacetic acid", "(m-Trifluoromethylphenyl)acetic acid", "[3-(Trifluoromethyl)phenyl]acetic acid", "3-Trifluoromethylbenzeneacetic acid", "(\u03b1,\u03b1,\u03b1-Trifluoro-m-tolyl)acetic acid", "2-[3-(Trifluoromethyl)phenyl]acetic acid", "m-(Trifluoromethyl)benzeneacetic acid"], "SMILES": "C(C(O)=O)C1=CC(C(F)(F)F)=CC=C1", "physical_data": {"Molecular Weight": "204.15", "Molecular Formula": "C9H7F3O2", "Melting Point": "77 \u00b0C"}}