{"cas_no": "351-83-7", "cn_name": "4-\u6c1f\u4e59\u9170\u82ef\u80fa", "en_name": ["N-(4-Fluorophenyl)acetamide", "Acetamide, N-(4-fluorophenyl)-", "Acetanilide, 4\u2032-fluoro-", "N-(4-Fluorophenyl)acetamide", "p-Fluoroacetanilide", "4-Fluoroacetanilide", "4\u2032-Fluoroacetanilide", "N-p-Fluorophenylacetamide", "NSC 10349", "N-Acetyl-4-fluoroaniline", "4-Acetylamino-1-fluorobenzene"], "SMILES": "N(C(C)=O)C1=CC=C(F)C=C1", "physical_data": {"Molecular Weight": "153.15", "Molecular Formula": "C8H8FNO", "Melting Point": "154 \u00b0C"}}