{"cas_no": "351-36-0", "cn_name": "3-\u4e59\u9170\u6c28\u57fa\u4e09\u6c1f\u7532\u82ef", "en_name": ["N-[3-(Trifluoromethyl)phenyl]acetamide", "Acetamide, N-[3-(trifluoromethyl)phenyl]-", "m-Acetotoluidide, \u03b1,\u03b1,\u03b1-trifluoro-", "N-[3-(Trifluoromethyl)phenyl]acetamide", "m-(Trifluoromethyl)acetanilide", "3-(Trifluoromethyl)acetanilide", "N-(\u03b1,\u03b1,\u03b1-Trifluoro-m-tolyl)acetamide", "\u03b1,\u03b1,\u03b1-Trifluoro-m-acetotoluidide", "N-Acetyl-\u03b1,\u03b1,\u03b1-trifluoro-m-toluidine", "NSC 30581", "NSC 60257", "N-(3-Trifluoromethylphenyl)acetamide"], "SMILES": "N(C(C)=O)C1=CC(C(F)(F)F)=CC=C1", "physical_data": {"Molecular Weight": "203.16", "Molecular Formula": "C9H8F3NO", "Boiling Point": "185-187.5 \u00b0C", "Melting Point": "104.5 \u00b0C"}}