{"cas_no": "351-38-2", "cn_name": "N-\u6c2f\u4e59\u9170-3-(\u4e09\u6c1f\u7532\u57fa)\u82ef\u80fa", "en_name": ["2-Chloro-N-[3-(trifluoromethyl)phenyl]acetamide", "Acetamide, 2-chloro-N-[3-(trifluoromethyl)phenyl]-", "m-Acetotoluidide, 2-chloro-\u03b1,\u03b1,\u03b1-trifluoro-", "2-Chloro-N-[3-(trifluoromethyl)phenyl]acetamide", "N-(3-Trifluoromethylphenyl)-2-chloroacetamide", "2-Chloro-m-trifluoromethylacetanilide", "[(3-Trifluoromethylphenyl)aminocarbonylmethyl]chloride"], "SMILES": "N(C(CCl)=O)C1=CC(C(F)(F)F)=CC=C1", "physical_data": {"Molecular Weight": "237.61", "Molecular Formula": "C9H7ClF3NO", "Melting Point": "68 \u00b0C"}}