{"cas_no": "351-54-2", "cn_name": "3-\u6c1f-4-\u7532\u6c27\u57fa\u82ef\u7532\u919b", "en_name": ["3-Fluoro-4-methoxybenzaldehyde", "Benzaldehyde, 3-fluoro-4-methoxy-", "p-Anisaldehyde, 3-fluoro-", "3-Fluoro-4-methoxybenzaldehyde", "3-Fluoro-p-anisaldehyde", "4-Methoxy-3-fluorobenzaldehyde"], "SMILES": "C(=O)C1=CC(F)=C(OC)C=C1", "physical_data": {"Molecular Weight": "154.14", "Molecular Formula": "C8H7FO2", "Melting Point": "31 \u00b0C"}}