{"cas_no": "351-28-0", "cn_name": "3-\u6c1f\u4e59\u9170\u82ef\u80fa", "en_name": ["N-(3-Fluorophenyl)acetamide", "Acetamide, N-(3-fluorophenyl)-", "Acetanilide, 3\u2032-fluoro-", "N-(3-Fluorophenyl)acetamide", "3\u2032-Fluoroacetanilide", "m-Fluoroacetanilide", "N-Methylcarbonyl-3-fluoroaniline", "N-Acetyl-3-fluoroaniline", "NSC 10348"], "SMILES": "N(C(C)=O)C1=CC(F)=CC=C1", "physical_data": {"Molecular Weight": "153.15", "Molecular Formula": "C8H8FNO", "Melting Point": "83 \u00b0C"}}