{"cas_no": "35109-93-4", "cn_name": "\u6b27\u5939\u7af9\u6843\u82f7\u4e59", "en_name": ["(3\u03b2,5\u03b2)-3-[(2,6-Dideoxy-3-O-methyl-\u03b2-D-lyxo-hexopyranosyl)oxy]-8,14-epoxycard-20(22)-enolide", "Card-20(22)-enolide, 3-[(2,6-dideoxy-3-O-methyl-\u03b2-D-lyxo-hexopyranosyl)oxy]-8,14-epoxy-, (3\u03b2,5\u03b2)-", "Adynerin", "8,14-Epoxy-1H-cyclopenta[a]phenanthrene, card-20(22)-enolide deriv.", "(3\u03b2,5\u03b2)-3-[(2,6-Dideoxy-3-O-methyl-\u03b2-D-lyxo-hexopyranosyl)oxy]-8,14-epoxycard-20(22)-enolide", "Adynerigenin 3-O-\u03b2-D-diginoside"], "SMILES": "CC12C3(C4(O3)C(C5(C)C(CC4)CC(OC6CC(OC)C(O)C(C)O6)CC5)CC1)CCC2C7=CC(=O)OC7", "physical_data": {"Molecular Weight": "516.67", "Molecular Formula": "C30H44O7", "Melting Point": "220-223 \u00b0C"}}