{"cas_no": "351003-58-2", "cn_name": "3-CHLORO-2-FLUOROBENZENESULFONAMIDE", "en_name": ["3-Chloro-2-fluorobenzenesulfonamide", "Benzenesulfonamide, 3-chloro-2-fluoro-", "3-Chloro-2-fluorobenzenesulfonamide", "3-Chloro-2-fluorobenzene-1-sulfonamide"], "SMILES": "S(N)(=O)(=O)C1=C(F)C(Cl)=CC=C1", "physical_data": {"Molecular Weight": "209.63", "Molecular Formula": "C6H5ClFNO2S", "Melting Point": "149-153 \u00b0C"}}