{"cas_no": "3510-66-5", "cn_name": "2-\u6eb4-5-\u7532\u57fa\u5421\u5576", "en_name": ["2-Bromo-5-methylpyridine", "Pyridine, 2-bromo-5-methyl-", "3-Picoline, 6-bromo-", "2-Bromo-5-methylpyridine", "5-Methyl-2-bromopyridine", "2-Bromo-5-picoline", "6-Bromo-3-picoline"], "SMILES": "CC=1C=CC(Br)=NC1", "physical_data": {"Molecular Weight": "172.02", "Molecular Formula": "C6H6BrN", "Boiling Point": "80 \u00b0C @ Press: 7 Torr", "Melting Point": "49-50 \u00b0C"}}