{"cas_no": "3511-19-1", "cn_name": "2,3-\u4e8c\u6c2f\u56db\u6c22\u544b\u5583", "en_name": ["2,3-Dichlorotetrahydrofuran", "Furan, 2,3-dichlorotetrahydro-", "2,3-Dichlorotetrahydrofuran"], "SMILES": "ClC1C(Cl)OCC1", "physical_data": {"Molecular Weight": "141.00", "Molecular Formula": "C4H6Cl2O", "Boiling Point": "62-63 \u00b0C @ Press: 20 Torr", "Density": "1.336 g/cm\u00b3 @ Temp: 16 \u00b0C"}}