{"cas_no": "3511-90-8", "cn_name": "4-\u6eb4-2,3,5,6-\u56db\u6c1f\u5421\u5576", "en_name": ["4-Bromotetrafluoropyridine", "Pyridine, 4-bromo-2,3,5,6-tetrafluoro-", "4-Bromo-2,3,5,6-tetrafluoropyridine", "4-Bromotetrafluoropyridine", "4-bromo-2,3,5,6-Tetrafluoropyridine"], "SMILES": "FC=1C(Br)=C(F)C(F)=NC1F", "physical_data": {"Molecular Weight": "229.96", "Molecular Formula": "C5BrF4N", "Boiling Point": "134-135 \u00b0C"}}