{"cas_no": "35112-28-8", "cn_name": "2,4-\u4e8c\u6c2f\u82ef\u7532\u9178\u7532\u916f", "en_name": ["Benzoic acid, 2,4-dichloro-, methyl ester", "Benzoic acid, 2,4-dichloro-, methyl ester", "Methyl 2,4-dichlorobenzoate"], "SMILES": "C(OC)(=O)C1=C(Cl)C=C(Cl)C=C1", "physical_data": {"Molecular Weight": "205.04", "Molecular Formula": "C8H6Cl2O2", "Boiling Point": "132 \u00b0C @ Press: 15 Torr", "Melting Point": "154-155 \u00b0C", "Density": "1.572 g/cm\u00b3 @ Temp: 20 \u00b0C"}}