{"cas_no": "3511-16-8", "cn_name": "\u7f29\u916e\u6c28\u82c4\u9752\u9709\u7d20", "en_name": ["Hetacillin", "4-Thia-1-azabicyclo[3.2.0]heptane-2-carboxylic acid, 6-[(4R)-2,2-dimethyl-5-oxo-4-phenyl-1-imidazolidinyl]-3,3-dimethyl-7-oxo-, (2S,5R,6R)-", "4-Thia-1-azabicyclo[3.2.0]heptane-2-carboxylic acid, 6-(2,2-dimethyl-5-oxo-4-phenyl-1-imidazolidinyl)-3,3-dimethyl-7-oxo-, D-(-)-", "4-Thia-1-azabicyclo[3.2.0]heptane-2-carboxylic acid, 6-(2,2-dimethyl-5-oxo-4-phenyl-1-imidazolidinyl)-3,3-dimethyl-7-oxo-, [2S-[2\u03b1,5\u03b1,6\u03b2(S*)]]-", "(2S,5R,6R)-6-[(4R)-2,2-Dimethyl-5-oxo-4-phenyl-1-imidazolidinyl]-3,3-dimethyl-7-oxo-4-thia-1-azabicyclo[3.2.0]heptane-2-carboxylic acid", "BRL 804", "BL-P 804", "Hetacillin", "Phenazacillin", "Versapen", "Vimocilin", "Penplenum", "Etacillin", "Versatrex"], "SMILES": "O=C1C(C2N1C(C(O)=O)C(C)(C)S2)N3C(=O)C(NC3(C)C)C4=CC=CC=C4", "physical_data": {"Molecular Weight": "389.47", "Molecular Formula": "C19H23N3O4S", "Melting Point": "190 \u00b0C"}}