{"cas_no": "35120-18-4", "cn_name": "\u4e59\u57fa1-\u6eb4\u73af\u4e01\u70f7\u7532\u9178\u916f", "en_name": ["Ethyl 1-bromocyclobutanecarboxylate", "Cyclobutanecarboxylic acid, 1-bromo-, ethyl ester", "1-Bromo-1-carbethoxycyclobutane", "Ethyl 1-bromocyclobutanecarboxylate", "Ethyl 1-bromocyclobutane-1-carboxylate", "1-Ethoxycarbonyl-1-bromocyclobutane", "NSC 135010", "1-Bromocyclobutanecarboxylic acid ethyl ester", "Ethyl 1-bromocyclobutanoate"], "SMILES": "C(OCC)(=O)C1(Br)CCC1", "physical_data": {"Molecular Weight": "207.07", "Molecular Formula": "C7H11BrO2", "Boiling Point": "67-68 \u00b0C @ Press: 5 Torr"}}