{"cas_no": "35120-10-6", "cn_name": "(\u7532\u57fa\u786b\u4ee3)\u4e59\u8148", "en_name": ["2-(Methylthio)acetonitrile", "Acetonitrile, 2-(methylthio)-", "Acetonitrile, (methylthio)-", "2-(Methylthio)acetonitrile", "(Methylthio)acetonitrile", "Cyanomethyl methyl sulfide", "NSC 207831", "2-(Methylsulfanyl)acetonitrile", "2-Methylsulfanylacetonitrile"], "SMILES": "C(C#N)SC", "physical_data": {"Molecular Weight": "87.14", "Molecular Formula": "C3H5NS", "Boiling Point": "74.5 \u00b0C @ Press: 20 Torr"}}