{"cas_no": "3512-17-2", "cn_name": "2,4,6-\u4e09\u6c1f\u5421\u5576", "en_name": ["2,4,6-Trifluoropyridine", "Pyridine, 2,4,6-trifluoro-", "2,4,6-Trifluoropyridine"], "SMILES": "FC=1C=C(F)N=C(F)C1", "physical_data": {"Molecular Weight": "133.07", "Molecular Formula": "C5H2F3N", "Boiling Point": "94.5 \u00b0C"}}