{"cas_no": "3512-18-3", "cn_name": "2,3,6-\u4e09\u6c1f\u5421\u5576", "en_name": ["2,3,6-Trifluoropyridine", "Pyridine, 2,3,6-trifluoro-", "2,3,6-Trifluoropyridine"], "SMILES": "FC1=C(F)C=CC(F)=N1", "physical_data": {"Molecular Weight": "133.07", "Molecular Formula": "C5H2F3N", "Boiling Point": "115-117 \u00b0C"}}