{"cas_no": "3512-80-9", "cn_name": "2,6-\u4e8c\u7532\u57fa-4-\u6c28\u57fa\u5421\u5576", "en_name": ["2,6-Dimethyl-4-pyridinamine", "4-Pyridinamine, 2,6-dimethyl-", "2,6-Lutidine, 4-amino-", "2,6-Dimethyl-4-pyridinamine", "2,6-Dimethyl-4-aminopyridine", "4-Amino-2,6-dimethylpyridine", "4-Amino-2,6-lutidine", "NSC 5090", "(2,6-Dimethylpyridin-4-yl)amine"], "SMILES": "NC=1C=C(C)N=C(C)C1", "physical_data": {"Molecular Weight": "122.17", "Molecular Formula": "C7H10N2", "Boiling Point": "246 \u00b0C", "Melting Point": "192.5 \u00b0C"}}