{"cas_no": "3513-81-3", "cn_name": "2-\u4e9a\u7532\u57fa-1,3-\u4e19\u4e8c\u9187", "en_name": ["2-Methylene-1,3-propanediol", "1,3-Propanediol, 2-methylene-", "2-Methylene-1,3-propanediol", "1,3-Hydroxy-2-methylenepropane"], "SMILES": "C(CO)(CO)=C", "physical_data": {"Molecular Weight": "88.11", "Molecular Formula": "C4H8O2", "Boiling Point": "125-126 \u00b0C @ Press: 18 Torr", "Density": "1.0791 g/cm\u00b3 @ Temp: 20 \u00b0C"}}