{"cas_no": "35132-20-8", "cn_name": "(1R,2R)-1,2-\u4e8c\u82ef\u57fa\u4e59\u4e8c\u80fa", "en_name": ["1R,2R-1,2-Diphenylethylenediamine", "1,2-Ethanediamine, 1,2-diphenyl-, (1R,2R)-", "1,2-Ethanediamine, 1,2-diphenyl-, [R-(R*,R*)]-", "(1R,2R)-1,2-Diphenyl-1,2-ethanediamine", "(R,R)-(+)-Stilbenediamine", "(+)-Stilbenediamine", "(R,R)-1,2-Diphenylethylenediamine", "(+)-1,2-Diphenylethylenediamine", "(1R,2R)-(+)-Diphenylethylenediamine", "(R,R)-1,2-Diamino-1,2-diphenylethane", "(1R,2R)-(+)-1,2-Diphenylethylenediamine", "(R,R)-1,2-Diphenyl-1,2-ethanediamine", "1R,2R-(+)-1,2-Diphenylethanediamine", "(1R,2R)-1,2-Diamino-1,2-diphenylethane", "(1R,2R)-Diphenylethylenediamine", "(1R,2R)-1,2-Diphenylethylenediamine", "(1R,2R)-Diphenylethanediamine", "1R,2R-1,2-Diphenylethylenediamine", "(R,R)-DPEN", "((1R,2R)-2-Amino-1,2-diphenylethyl)amine", "(R,R)-1,2-Diphenyl-1,2-diaminoethane", "(R,R)-(+)-1,2-Diphenyl-1,2-diaminoethane", "(1R,2R)-1,2-Diphenylethane-1,2-diamine", "(1R,2R)-(+)-1,2-Diphenyl-1,2-diaminoethane", "(R,R)-1,2-Diamino-1,2-diphenylethane", "(1R,2R)-1,2-Diphenylethan-1,2-diamine", "(R,R)-1,2-Diphenyl-1,2-ethanediamine", "(1R,2R)-1,2-Diphenylethylendiamine"], "SMILES": "C(C(N)C1=CC=CC=C1)(N)C2=CC=CC=C2", "physical_data": {"Molecular Weight": "212.29", "Molecular Formula": "C14H16N2", "Melting Point": "78-82 \u00b0C"}}