{"cas_no": "351329-88-9", "cn_name": "N-\u7532\u9170\u57fa-3,5-\u4e8c\u7532\u57fa\u91d1\u521a\u70f7", "en_name": ["N-(3,5-Dimethyltricyclo[3.3.1.13,7]dec-1-yl)formamide", "Formamide, N-(3,5-dimethyltricyclo[3.3.1.13,7]dec-1-yl)-", "N-(3,5-Dimethyltricyclo[3.3.1.13,7]dec-1-yl)formamide", "1-Formylamino-3,5-dimethyladamantane", "N-(3,5-Dimethyladamantan-1-yl)formamide", "(3,5-Dimethyladamantan-1-yl)formamide", "N-Formyl-3,5-dimethyladamantane-1-amine"], "SMILES": "N(C=O)C12CC3(C)CC(C)(C1)CC(C2)C3", "physical_data": {"Molecular Weight": "207.31", "Molecular Formula": "C13H21NO", "Melting Point": "69.5 \u00b0C"}}