{"cas_no": "35138-22-8", "cn_name": "\u4e8c(1,5-\u73af\u8f9b\u4e8c\u70ef)\u56db\u6c1f\u787c\u9178\u94d1(I)", "en_name": ["Rhodium(1+), bis[(1,2,5,6-\u03b7)-1,5-cyclooctadiene]-, tetrafluoroborate(1-) (1:1)", "Rhodium(1+), bis[(1,2,5,6-\u03b7)-1,5-cyclooctadiene]-, tetrafluoroborate(1-) (1:1)", "Rhodium(1+), bis[(1,2,5,6-\u03b7)-1,5-cyclooctadiene]-, tetrafluoroborate(1-)", "Rhodium(1+), bis(1,5-cyclooctadiene)-, tetrafluoroborate(1-)", "Borate(1-), tetrafluoro-, bis[(1,2,5,6-\u03b7)-1,5-cyclooctadiene]rhodium(1+)", "1,5-Cyclooctadiene, rhodium complex", "Bis(1,5-cyclooctadienyl)rhodium tetrafluoroborate", "Bis(cyclooctadiene)rhodium tetrafluoroborate", "Bis(1,5-cyclooctadiene)rhodium(I) tetrafluoroborate", "Bis(1,5-cyclooctadiene)rhodium(1+) tetrafluoroborate", "Bis(1,5-cyclooctadiene)rhodium tetrafluoroborate", "Bis(cis,cis-1,5-cyclooctadiene)rhodium tetrafluoroborate", "Bis(cyclooctadiene)rhodium(1+) tetrafluoroborate(1-)", "Bis[(1,2,5,6-\u03b7)-1,5-cyclooctadiene]rhodium tetrafluoroborate(1-)-", "Bis[(1,2,5,6-\u03b7)-1,5-cyclooctadiene]rhodium(1+) tetrafluoroborate(1-)", "Bis(1,5-cyclooctadiene)rhodium(1+) tetrafluoroborate(1-)", "Bis(cyclooctadiene)rhodium(1+) tetrafluoroborate", "Rh(COD)2BF4", "Dicyclooctadienerhodium tetrafluoroborate", "Bis(1,5-cyclooctadiene)(tetrafluoroborato)rhodium"], "SMILES": "[B+3]([F-])([F-])([F-])[F-].[Rh+]123456([CH]7=[CH]1CC[CH]2=[CH]3CC7)[CH]8=[CH]4CC[CH]5=[CH]6CC8", "physical_data": {"Molecular Weight": "", "Molecular Formula": "C16H24Rh.BF4", "Melting Point": "206-208 \u00b0C"}}