{"cas_no": "3513-03-9", "cn_name": "\u706d\u761f\u7d20S\u76d0\u9178\u76d0", "en_name": ["\u03b2-D-erythro-Hex-2-enopyranuronic acid, 4-[[(3S)-3-amino-5-[(aminoiminomethyl)methylamino]-1-oxopentyl]amino]-1-(4-amino-2-oxo-1(2H)-pyrimidinyl)-1,2,3,4-tetradeoxy-, hydrochloride (1:1)", "\u03b2-D-erythro-Hex-2-enopyranuronic acid, 4-[[(3S)-3-amino-5-[(aminoiminomethyl)methylamino]-1-oxopentyl]amino]-1-(4-amino-2-oxo-1(2H)-pyrimidinyl)-1,2,3,4-tetradeoxy-, hydrochloride (1:1)", "Blasticidin S, monohydrochloride", "\u03b2-D-erythro-Hex-2-enopyranuronic acid, 4-[[3-amino-5-[(aminoiminomethyl)methylamino]-1-oxopentyl]amino]-1-(4-amino-2-oxo-1(2H)-pyrimidinyl)-1,2,3,4-tetradeoxy-, monohydrochloride, (S)-", "\u03b2-D-erythro-Hex-2-enopyranuronic acid, 4-[[(3S)-3-amino-5-[(aminoiminomethyl)methylamino]-1-oxopentyl]amino]-1-(4-amino-2-oxo-1(2H)-pyrimidinyl)-1,2,3,4-tetradeoxy-, monohydrochloride", "Blasticidin S hydrochloride"], "SMILES": "O=C1N(C2OC(C(O)=O)C(NC(CC(CCN(C(=N)N)C)N)=O)C=C2)C=CC(N)=N1.Cl", "physical_data": {"Molecular Weight": "", "Molecular Formula": "C17H26N8O5.ClH", "Melting Point": "224-225 \u00b0C (decomp)"}}