{"cas_no": "35139-67-4", "cn_name": "2,6-\u4e8c\u6c28\u57fa-4-\u6c2f\u5627\u5576-1-\u6c27\u5316\u7269", "en_name": ["2,4-Diamino-6-chloropyrimidine 3-oxide", "2,4-Pyrimidinediamine, 6-chloro-, 3-oxide", "2,4-Diamino-6-chloropyrimidine 3-oxide", "6-Chloro-2,4-diaminopyrimidine 3-oxide", "6-Chloro-2,4-pyrimidinediamine 3-oxide", "2,4-Diamino-6-chloropyrimidine 3-N-oxide", "NSC 137211", "2,6-Diamino-4-chloropyrimidine 1-oxide"], "SMILES": "O=N1=C(N)C=C(Cl)N=C1N", "physical_data": {"Molecular Weight": "160.56", "Molecular Formula": "C4H5ClN4O", "Melting Point": "193 \u00b0C"}}