{"cas_no": "35144-22-0", "cn_name": "4,6-\u4e8c\u7532\u57fa-2-\u7532\u78fa\u9170\u57fa\u5627\u5576", "en_name": ["4,6-Dimethyl-2-(methylsulfonyl)pyrimidine", "Pyrimidine, 4,6-dimethyl-2-(methylsulfonyl)-", "4,6-Dimethyl-2-(methylsulfonyl)pyrimidine", "2-(Methylsulfonyl)-4,6-dimethylpyrimidine", "2-Methanesulfonyl-4,6-dimethylpyrimidine"], "SMILES": "S(C)(=O)(=O)C=1N=C(C)C=C(C)N1", "physical_data": {"Molecular Weight": "186.23", "Molecular Formula": "C7H10N2O2S", "Melting Point": "84-86 \u00b0C"}}