{"cas_no": "35146-32-8", "cn_name": "H-HIS(TRT)-OH", "en_name": ["1-(Triphenylmethyl)-L-histidine", "L-Histidine, 1-(triphenylmethyl)-", "1-(Triphenylmethyl)-L-histidine", "(S)-2-Amino-3-(1-trityl-1H-imidazol-4-yl)propanoic acid"], "SMILES": "C(N1C=C(CC(C(O)=O)N)N=C1)(C2=CC=CC=C2)(C3=CC=CC=C3)C4=CC=CC=C4", "physical_data": {"Molecular Weight": "397.47", "Molecular Formula": "C25H23N3O2", "Melting Point": "221 \u00b0C"}}