{"cas_no": "35158-25-9", "cn_name": "\u53ef\u53ef\u919b", "en_name": ["2-Isopropyl-5-methyl-2-hexenal", "2-Hexenal, 5-methyl-2-(1-methylethyl)-", "2-Hexenal, 2-isopropyl-5-methyl-", "5-Methyl-2-(1-methylethyl)-2-hexenal", "2-Isopropyl-5-methyl-2-hexenal", "2-Isopropyl-5-methyl-2-hexen-1-al", "\u03b1-Isopropyl-\u03b2-isobutylacrolein", "2-(1-Methylethyl)-5-methylhex-2-enal"], "SMILES": "C(=CCC(C)C)(C(C)C)C=O", "physical_data": {"Molecular Weight": "154.25", "Molecular Formula": "C10H18O", "Boiling Point": "49.5-50 \u00b0C @ Press: 3.5 Torr", "Density": "0.8454 g/cm\u00b3 @ Temp: 20 \u00b0C"}}