{"cas_no": "35153-15-2", "cn_name": "(Z)-9-\u5341\u56db\u78b3\u70ef-1-\u9187", "en_name": ["(Z)-9-Tetradecen-1-ol", "9-Tetradecen-1-ol, (9Z)-", "9-Tetradecen-1-ol, (Z)-", "(9Z)-9-Tetradecen-1-ol", "cis-9-Tetradecen-1-ol", "Myristoleyl alcohol", "9-cis-Tetradecenol", "\u03949-cis-n-Tetradecen-1-ol", "cis-\u03949-Tetradecenol", "(Z)-9-Tetradecen-1-ol", "(Z)-9-Tetradecenyl alcohol", "cis-9-Tetradecenol"], "SMILES": "C(CC=CCCCC)CCCCCCO", "physical_data": {"Molecular Weight": "212.37", "Molecular Formula": "C14H28O", "Boiling Point": "128-130 \u00b0C @ Press: 0.3 Torr"}}