{"cas_no": "35150-08-4", "cn_name": "N-\u53d4\u4e01\u6c27\u7fb0\u57fa-L-\u7f2c\u6c28\u9170\u80fa", "en_name": ["1,1-Dimethylethyl N-[(1S)-1-(aminocarbonyl)-2-methylpropyl]carbamate", "Carbamic acid, N-[(1S)-1-(aminocarbonyl)-2-methylpropyl]-, 1,1-dimethylethyl ester", "Carbamic acid, [1-(aminocarbonyl)-2-methylpropyl]-, 1,1-dimethylethyl ester, (S)-", "Carbamic acid, [(1S)-1-(aminocarbonyl)-2-methylpropyl]-, 1,1-dimethylethyl ester", "1,1-Dimethylethyl N-[(1S)-1-(aminocarbonyl)-2-methylpropyl]carbamate", "N-(tert-Butoxycarbonyl)-L-valine amide", "(tert-Butoxycarbonyl)valinamide", "N-(tert-Butoxycarbonyl)valine amide", "N-tert-Butoxycarbonyl-L-valinamide", "Boc-L-valinamide", "(S)-tert-Butyl(1-amino-3-methyl-1-oxobutan-2-yl)carbamate"], "SMILES": "C(NC(OC(C)(C)C)=O)(C(C)C)C(N)=O", "physical_data": {"Molecular Weight": "216.28", "Molecular Formula": "C10H20N2O3", "Melting Point": "156-157 \u00b0C"}}