{"cas_no": "35150-09-5", "cn_name": "N-\u53d4\u4e01\u6c27\u7fb0\u57fa-L-\u7518\u6c28\u9170\u80fa", "en_name": ["1,1-Dimethylethyl N-(2-amino-2-oxoethyl)carbamate", "Carbamic acid, N-(2-amino-2-oxoethyl)-, 1,1-dimethylethyl ester", "Carbamic acid, (2-amino-2-oxoethyl)-, 1,1-dimethylethyl ester", "1,1-Dimethylethyl N-(2-amino-2-oxoethyl)carbamate", "N-(tert-Butoxycarbonyl)glycine amide", "Boc-glycinamide", "tert-Butyl N-(2-amino-2-oxoethyl)carbamate", "tert-Butyl N-(carbamoylmethyl)carbamate", "tert-Butyl (2-amino-2-oxoethyl)carbamate"], "SMILES": "O(C(NCC(N)=O)=O)C(C)(C)C", "physical_data": {"Molecular Weight": "174.20", "Molecular Formula": "C7H14N2O3", "Melting Point": "85-87 \u00b0C"}}