{"cas_no": "3515-93-3", "cn_name": "4-\u6c27\u4ee3\u4e01\u8148", "en_name": ["4-Oxobutanenitrile", "Butanenitrile, 4-oxo-", "Succinaldehydonitrile", "Propionaldehyde, 3-cyano-", "4-Oxobutanenitrile", "\u03b2-Cyanopropionaldehyde", "3-Cyanopropionaldehyde", "3-Formylpropionitrile", "3-Cyanopropanal", "4-Oxobutyronitrile", "\u03b2-Cyanopropionic aldehyde"], "SMILES": "C(CC=O)C#N", "physical_data": {"Molecular Weight": "83.09", "Molecular Formula": "C4H5NO", "Boiling Point": "77 \u00b0C"}}