{"cas_no": "35150-07-3", "cn_name": "N-\u53d4\u4e01\u6c27\u7fb0\u57fa-L-\u812f\u6c28\u9170\u80fa", "en_name": ["1,1-Dimethylethyl (2S)-2-(aminocarbonyl)-1-pyrrolidinecarboxylate", "1-Pyrrolidinecarboxylic acid, 2-(aminocarbonyl)-, 1,1-dimethylethyl ester, (2S)-", "1-Pyrrolidinecarboxylic acid, 2-(aminocarbonyl)-, 1,1-dimethylethyl ester, (S)-", "1,1-Dimethylethyl (2S)-2-(aminocarbonyl)-1-pyrrolidinecarboxylate", "N-(tert-Butoxycarbonyl)proline amide", "N-tert-Butoxycarbonyl-L-proline amide", "tert-Butyl (S)-2-carbamoylpyrrolidine-1-carboxylate", "(S)-tert-Butyl 2-carbamoylpyrrolidine-1-carboxylate"], "SMILES": "C(OC(C)(C)C)(=O)N1C(C(N)=O)CCC1", "physical_data": {"Molecular Weight": "214.26", "Molecular Formula": "C10H18N2O3", "Melting Point": "108-110 \u00b0C"}}