{"cas_no": "35168-64-0", "cn_name": "3,6-\u53cc(\u6eb4\u7532\u57fa)-2,4,5-\u4e09\u7532\u57fa\u7532\u82ef", "en_name": ["1,4-Bis(bromomethyl)-2,3,5,6-tetramethylbenzene", "Benzene, 1,4-bis(bromomethyl)-2,3,5,6-tetramethyl-", "1,4-Bis(bromomethyl)-2,3,5,6-tetramethylbenzene", "p-Bis(bromomethyl)durene", "Bis(bromomethyl)durene", "1,4-Bis(bromomethyl)durene", "3,6-Bis(broMoMethyl)durene"], "SMILES": "C(Br)C1=C(C)C(C)=C(CBr)C(C)=C1C", "physical_data": {"Molecular Weight": "320.06", "Molecular Formula": "C12H16Br2", "Melting Point": "214.5-215 \u00b0C"}}