{"cas_no": "35161-70-7", "cn_name": "N-\u5df1\u57fa\u7532\u80fa", "en_name": ["Methylhexylamine", "1-Hexanamine, N-methyl-", "Hexylamine, N-methyl-", "N-Methyl-1-hexanamine", "N-Methylhexylamine", "N-Hexyl-N-methylamine", "Hexylmethylamine", "N-Methylhexanamine", "Methylhexylamine", "N-Methyl-N-hexylamine", "N-Methyl-1-aminohexane", "N-Methyl-1-hexylamine", "N-Hexylmethylamine"], "SMILES": "C(CCNC)CCC", "physical_data": {"Molecular Weight": "115.22", "Molecular Formula": "C7H17N", "Boiling Point": "126-128 \u00b0C @ Press: 754 Torr", "Density": "0.761 g/cm\u00b3 @ Temp: 20 \u00b0C"}}