{"cas_no": "3516-95-8", "cn_name": "2'-\u7f9f\u57fa-3-\u82ef\u57fa\u82ef\u4e19\u916e", "en_name": ["2\u2032-Hydroxydihydrochalcone", "1-Propanone, 1-(2-hydroxyphenyl)-3-phenyl-", "Propiophenone, 2\u2032-hydroxy-3-phenyl-", "1-(2-Hydroxyphenyl)-3-phenyl-1-propanone", "1-(o-Hydroxyphenyl)-3-phenylpropanone-1", "2\u2032-Hydroxydihydrochalcone", "2-Hydroxy-\u03b2-phenylpropiophenone", "\u03b2-Phenyl-2-hydroxypropiophenone", "2\u2032-Hydroxy-3-phenylpropiophenone", "1-(2-Hydroxyphenyl)-3-phenylpropan-1-one"], "SMILES": "C(CCC1=CC=CC=C1)(=O)C2=C(O)C=CC=C2", "physical_data": {"Molecular Weight": "226.27", "Molecular Formula": "C15H14O2", "Boiling Point": "162.5-163 \u00b0C @ Press: 0.5 Torr", "Melting Point": "32 \u00b0C"}}