{"cas_no": "35161-71-8", "cn_name": "N-\u7532\u57fa\u7094\u4e19\u57fa\u80fa", "en_name": ["N-Methylpropargylamine", "2-Propyn-1-amine, N-methyl-", "2-Propynylamine, N-methyl-", "N-Methylpropargylamine", "N-Methyl-N-propargylamine", "N-Methyl-2-propynylamine", "N-Methyl-N-2-propynylamine", "Methyl(propargyl)amine", "N-Methyl-2-propyn-1-amine", "Methyl(2-propynyl)amine", "NSC 56897", "3-Methylaminoprop-1-yne", "N-(2-Propynyl)methylamine", "Methyl(prop-2-yn-1-yl)amine"], "SMILES": "C(C#C)NC", "physical_data": {"Molecular Weight": "69.11", "Molecular Formula": "C4H7N", "Boiling Point": "83 \u00b0C", "Melting Point": "141 \u00b0C"}}