{"cas_no": "35189-28-7", "cn_name": "\u7094\u8bfa\u809f\u916f", "en_name": ["Norgestimate", "18,19-Dinorpregn-4-en-20-yn-3-one, 17-(acetyloxy)-13-ethyl-, 3-oxime, (17\u03b1)-", "Dexnorgestrel acetime", "Norgestimate", "ORF 10131", "RWJ 10131", "D 138", "d-(17\u03b1)-17-Acetoxy-13-ethyl-18,19-dinorpregn-4-en-20-yn-3-one oxime"], "SMILES": "C(C)C12C(OC(C)=O)(C#C)CCC1C3C(CC2)C4C(CC3)=CC(=NO)CC4", "physical_data": {"Molecular Weight": "369.50", "Molecular Formula": "C23H31NO3", "Melting Point": "216 \u00b0C"}}