{"cas_no": "35180-01-9", "cn_name": "\u6c2f\u7532\u57fa\u78b3\u9178\u5f02\u4e19\u916f", "en_name": ["Chloromethyl 1-methylethyl carbonate", "Carbonic acid, chloromethyl 1-methylethyl ester", "Chloromethyl 1-methylethyl carbonate", "Isopropoxycarbonyloxymethyl chloride", "Chloromethyl isopropyl carbonate", "[(Isopropyloxycarbonyl)oxy]methyl chloride", "Isopropyl chloromethyl carbonate", "Chloromethyl propan-2-yl carbonate"], "SMILES": "O(C(OCCl)=O)C(C)C", "physical_data": {"Molecular Weight": "152.58", "Molecular Formula": "C5H9ClO3", "Boiling Point": "66 \u00b0C @ Press: 16 Torr"}}