{"cas_no": "3518-83-0", "cn_name": "N-\u4e59\u57fa-4-\u7f9f\u57fa\u54cc\u5576", "en_name": ["1-Ethyl-4-piperidinol", "4-Piperidinol, 1-ethyl-", "1-Ethyl-4-piperidinol", "1-Ethyl-4-hydroxypiperidine", "N-Ethyl-4-hydroxypiperidine"], "SMILES": "C(C)N1CCC(O)CC1", "physical_data": {"Molecular Weight": "129.20", "Molecular Formula": "C7H15NO", "Boiling Point": "108-109 \u00b0C @ Press: 20-21 Torr", "Density": "0.9529 g/cm\u00b3 @ Temp: 25 \u00b0C"}}