{"cas_no": "35182-51-5", "cn_name": "4-(3-\u620a\u57fa)\u5421\u5576", "en_name": ["4-(1-Ethylpropyl)pyridine", "Pyridine, 4-(1-ethylpropyl)-", "4-(1-Ethylpropyl)pyridine", "4-(3-Pentyl)pyridine", "NSC 405218", "4-(Pentan-3-yl)pyridine"], "SMILES": "C(CC)(CC)C=1C=CN=CC1", "physical_data": {"Molecular Weight": "149.23", "Molecular Formula": "C10H15N", "Boiling Point": "217 \u00b0C", "Melting Point": "125.5 \u00b0C"}}