{"cas_no": "3518-65-8", "cn_name": "\u6c2f\u7532\u57fa\u78fa\u9170\u6c2f", "en_name": ["1-Chloromethanesulfonyl chloride", "Methanesulfonyl chloride, 1-chloro-", "Methanesulfonyl chloride, chloro-", "1-Chloromethanesulfonyl chloride", "Chloromethanesulfonyl chloride", "(Chloromethyl)sulfonyl chloride"], "SMILES": "S(CCl)(Cl)(=O)=O", "physical_data": {"Molecular Weight": "149.00", "Molecular Formula": "CH2Cl2O2S", "Boiling Point": "60 \u00b0C @ Press: 10 Torr", "Density": "1.638 g/cm\u00b3 @ Temp: 15 \u00b0C"}}