{"cas_no": "35193-63-6", "cn_name": "\u8054\u8418\u915a\u78f7\u9178\u916f", "en_name": ["(\u00b1)-1,1\u2032-Binaphthyl-2,2\u2032-diyl hydrogen phosphate", "Dinaphtho[2,1-d:1\u2032,2\u2032-f][1,3,2]dioxaphosphepin, 4-hydroxy-, 4-oxide", "BNDHP", "1,1\u2032-Binaphthyl-2,2\u2032-diyl hydrogen phosphate", "(\u00b1)-1,1\u2032-Binaphthyl-2,2\u2032-diyl hydrogen phosphate", "(RS)-1,1\u2032-Binaphthyl-2,2\u2032-diyl hydrogen phosphate", "(\u00b1)-1,1\u2032-Dinaphthyl-2,2\u2032-diyl hydrogen phosphate", "(RS)-1,1\u2032-Bi-2-naphthol-2,2\u2032-diyl hydrogen phosphate", "NSC 244999", "rac-1,1\u2032-Binaphthalene-2,2\u2032-diyl phosphoric acid", "1,1\u2032-Binaphthalene-2,2\u2032-diyl hydrogen phosphate", "13-Hydroxy-12,14-dioxa-13\u03bb5-phosphapentacyclo[13.8.0.0[2,11].0[3,8].0[18,23]]tricosa-1(15),2,4,6,8,10,16,18(23),19,21-decaen-13-one"], "SMILES": "O=P1(O)OC2=C(C=3C=4C(C=CC3O1)=CC=CC4)C=5C(C=C2)=CC=CC5", "physical_data": {"Molecular Weight": "348.29", "Molecular Formula": "C20H13O4P", "Melting Point": "&gt;180 \u00b0C"}}