{"cas_no": "351994-94-0", "cn_name": "N,N'-\u4e8c(2-\u5def\u57fa\u4e59\u57fa)\u95f4\u82ef\u4e8c\u7532\u9170\u80fa", "en_name": ["N1,N3-Bis(2-mercaptoethyl)-1,3-benzenedicarboxamide", "1,3-Benzenedicarboxamide, N1,N3-bis(2-mercaptoethyl)-", "1,3-Benzenedicarboxamide, N,N\u2032-bis(2-mercaptoethyl)-", "N1,N3-Bis(2-mercaptoethyl)-1,3-benzenedicarboxamide", "N,N\u2032-Bis(2-mercaptoethyl)isophthalamide", "Emeramide", "1-N,3-N-Bis(2-sulfanylethyl)benzene-1,3-dicarboxamide", "BDTH2"], "SMILES": "C(NCCS)(=O)C1=CC(C(NCCS)=O)=CC=C1", "physical_data": {"Molecular Weight": "284.40", "Molecular Formula": "C12H16N2O2S2", "Melting Point": "122-124 \u00b0C"}}