{"cas_no": "352-68-1", "cn_name": "4-\u7532\u82ef\u57fa\u4e09\u6c1f\u7532\u57fa\u786b\u5316\u7269", "en_name": ["1-Methyl-4-[(trifluoromethyl)thio]benzene", "Benzene, 1-methyl-4-[(trifluoromethyl)thio]-", "Sulfide, p-tolyl trifluoromethyl", "1-Methyl-4-[(trifluoromethyl)thio]benzene", "4-Methylphenyl trifluoromethyl sulfide", "Trifluoromethyl p-tolyl sulfide", "4-(Trifluoromethylthio)toluene", "p-(Trifluoromethylthio)toluene", "1-Methyl-4-[(trifluoromethyl)sulfanyl]benzene", "1-Methyl-4-(trifluoromethylsulfanyl)benzene"], "SMILES": "S(C(F)(F)F)C1=CC=C(C)C=C1", "physical_data": {"Molecular Weight": "192.20", "Molecular Formula": "C8H7F3S", "Boiling Point": "163-167 \u00b0C"}}