{"cas_no": "352-11-4", "cn_name": "4-\u6c1f\u6c2f\u82c4", "en_name": ["4-Fluorobenzyl chloride", "Benzene, 1-(chloromethyl)-4-fluoro-", "Toluene, \u03b1-chloro-p-fluoro-", "1-(Chloromethyl)-4-fluorobenzene", "p-Fluorobenzyl chloride", "4-Fluorobenzyl chloride", "\u03b1-Chloro-4-fluorotoluene", "\u03b1-Chloro-p-fluorotoluene", "4-Fluorophenylmethyl chloride", "NSC 25084", "4-Fluoro-1-(chloromethyl)benzene"], "SMILES": "C(Cl)C1=CC=C(F)C=C1", "physical_data": {"Molecular Weight": "144.57", "Molecular Formula": "C7H6ClF", "Boiling Point": "82 \u00b0C", "Melting Point": "44.5-45.5 \u00b0C", "Density": "1.2095 g/cm\u00b3 @ Temp: 20 \u00b0C"}}