{"cas_no": "352-97-6", "cn_name": "\u80cd\u57fa\u4e59\u9178", "en_name": ["Guanidinoacetic acid", "Glycine, N-(aminoiminomethyl)-", "Glycine, N-amidino-", "N-(Aminoiminomethyl)glycine", "Betacyamine", "Glycocyamine", "Guanidine, (carboxymethyl)-", "Guanidineacetic acid", "Guanidinoacetic acid", "Guanidoacetic acid", "Guanyl glycine", "Acetic acid, [(aminoiminomethyl)amino]-", "Guanidylacetic acid", "Betasyamine", "\u03b1-Guanidinoacetic acid", "\u03b2-Guanidinoacetic acid", "N-Amidinoglycine", "2-[[Amino(imino)methyl]amino]acetic acid", "NSC 1901", "NSC 227847", "NSC 26360", "2-Guanidinoacetic acid", "2-Carbamimidamidoacetic acid", "2-(Diaminomethylideneazaniumyl)acetate", "2-[(Diaminomethylidene)amino]acetic acid"], "SMILES": "C(NC(=N)N)C(O)=O", "physical_data": {"Molecular Weight": "117.11", "Molecular Formula": "C3H7N3O2", "Melting Point": "&gt;300 \u00b0C"}}