{"cas_no": "352-24-9", "cn_name": "4,4-\u4e8c\u6c1f\u4e59\u9170\u4e59\u9178\u4e59\u916f", "en_name": ["Butanoic acid, 4,4-difluoro-3-oxo-, ethyl ester", "Butanoic acid, 4,4-difluoro-3-oxo-, ethyl ester", "Acetoacetic acid, 4,4-difluoro-, ethyl ester", "4,4-Difluoro-3-oxobutanoic acid ethyl ester", "Ethyl 4,4-difluoroacetoacetate", "Ethyl 4,4-difluoro-3-oxobutanoate", "Ethyl 4,4-difluoro-3-oxobutyrate", "4,4-Difluoro-3-oxo-butyric acid ethyl ester", "4,4-Difluoroacetoacetic acid ethyl ester"], "SMILES": "C(CC(C(F)F)=O)(OCC)=O", "physical_data": {"Molecular Weight": "166.12", "Molecular Formula": "C6H8F2O3", "Boiling Point": "162 \u00b0C"}}