{"cas_no": "352-67-0", "cn_name": "4-\u4e09\u6c1f\u7532\u6c27\u57fa\u6c1f\u82ef", "en_name": ["1-Fluoro-4-(trifluoromethoxy)benzene", "Benzene, 1-fluoro-4-(trifluoromethoxy)-", "Anisole, p,\u03b1,\u03b1,\u03b1-tetrafluoro-", "1-Fluoro-4-(trifluoromethoxy)benzene", "4-Fluorophenyl trifluoromethyl ether", "4-(Trifluoromethoxy)fluorobenzene", "4-Fluoro-\u03b1,\u03b1,\u03b1-trifluoroanisole", "4-Fluoro(trifluoromethoxy)benzene", "\u03b1,\u03b1,\u03b1,4-Tetrafluoroanisole", "4-Trifluoromethoxyphenyl fluoride", "4-Trifluoromethoxy-1-fluorobenzene"], "SMILES": "O(C(F)(F)F)C1=CC=C(F)C=C1", "physical_data": {"Molecular Weight": "180.10", "Molecular Formula": "C7H4F4O", "Boiling Point": "104-105 \u00b0C", "Density": "1.323 g/cm\u00b3 @ Temp: 20 \u00b0C"}}