{"cas_no": "352-93-2", "cn_name": "\u4e59\u786b\u919a", "en_name": ["Ethyl sulfide", "Ethane, 1,1\u2032-thiobis-", "Ethyl sulfide", "1,1\u2032-Thiobis[ethane]", "Diethyl sulfide", "3-Thiapentane", "Thioethyl ether", "Ethyl monosulfide", "Diethylthioether", "Ethylthioethane", "Ethyl thioether", "NSC 75157", "(Ethylsulfanyl)ethane", "Diethylsulfane"], "SMILES": "S(CC)CC", "physical_data": {"Molecular Weight": "90.19", "Molecular Formula": "C4H10S", "Boiling Point": "92.1 \u00b0C", "Melting Point": "-103.9 \u00b0C", "Density": "0.837 g/cm\u00b3 @ Temp: 20 \u00b0C"}}