{"cas_no": "352-33-0", "cn_name": "1-\u6c2f-4-\u6c1f\u82ef", "en_name": ["1-Chloro-4-fluorobenzene", "Benzene, 1-chloro-4-fluoro-", "1-Chloro-4-fluorobenzene", "1-Fluoro-4-chlorobenzene", "p-Chlorofluorobenzene", "p-Fluorochlorobenzene", "4-Chlorofluorobenzene", "4-Fluorochlorobenzene", "p-Monofluoromonochlorobenzene", "4-Fluorophenyl chloride", "NSC 10272", "4-Fluoro-1-chlorobenzene"], "SMILES": "ClC1=CC=C(F)C=C1", "physical_data": {"Molecular Weight": "130.55", "Molecular Formula": "C6H4ClF", "Boiling Point": "130 \u00b0C", "Melting Point": "-26.8 \u00b0C", "Density": "1.2355 g/cm\u00b3 @ Temp: 11.2 \u00b0C"}}