{"cas_no": "352-91-0", "cn_name": "1-\u6eb4-3-\u6c1f\u4e19\u70f7", "en_name": ["Propane, 1-bromo-3-fluoro-", "Propane, 1-bromo-3-fluoro-", "1-Bromo-3-fluoropropane", "3-Fluoropropyl bromide", "1-Fluoro-3-bromopropane", "3-Bromo-1-fluoropropane", "3-Fluoro-1-bromopropane"], "SMILES": "C(CBr)CF", "physical_data": {"Molecular Weight": "140.98", "Molecular Formula": "C3H6BrF", "Boiling Point": "101.4 \u00b0C", "Density": "1.542 g/cm\u00b3 @ Temp: 25 \u00b0C"}}