{"cas_no": "352-32-9", "cn_name": "\u5bf9\u6c1f\u7532\u82ef", "en_name": ["4-Fluorotoluene", "Benzene, 1-fluoro-4-methyl-", "Toluene, p-fluoro-", "1-Fluoro-4-methylbenzene", "4-Fluorotoluene", "p-Fluoromethylbenzene", "p-Fluorotoluene", "p-Tolyl fluoride", "NSC 8861"], "SMILES": "CC1=CC=C(F)C=C1", "physical_data": {"Molecular Weight": "110.13", "Molecular Formula": "C7H7F", "Boiling Point": "116.6 \u00b0C", "Melting Point": "-56 \u00b0C", "Density": "1.005 g/cm\u00b3 @ Temp: 15 \u00b0C"}}