{"cas_no": "352-87-4", "cn_name": "\u7532\u57fa\u4e19\u70ef\u9178\u4e09\u6c1f\u4e59\u916f", "en_name": ["2,2,2-Trifluoroethyl methacrylate", "2-Propenoic acid, 2-methyl-, 2,2,2-trifluoroethyl ester", "Methacrylic acid, 2,2,2-trifluoroethyl ester", "2,2,2-Trifluoroethyl methacrylate", "Viscoat 3FM", "Light Ester M 3F", "M 1110", "Acryester 3FE", "Fluorester", "NSC 32617", "Actyflon G 03", "Trifluoroethyl methacrylate", "M 3F", "Trifluoromethylmethyl methacrylate", "V 3FM", "2,2,2-Trifluoroethyl 2-methylprop-2-enoate", "3FM", "G 03 (ester)", "G 03"], "SMILES": "O(C(C(C)=C)=O)CC(F)(F)F", "physical_data": {"Molecular Weight": "168.11", "Molecular Formula": "C6H7F3O2", "Boiling Point": "59 \u00b0C"}}