{"cas_no": "352-34-1", "cn_name": "\u5bf9\u6c1f\u7898\u82ef", "en_name": ["1-Fluoro-4-iodobenzene", "Benzene, 1-fluoro-4-iodo-", "1-Fluoro-4-iodobenzene", "p-Fluoroiodobenzene", "p-Iodofluorobenzene", "4-Iodofluorobenzene", "4-Fluoroiodobenzene", "p-Fluorophenyl iodide", "4-Fluorophenyl iodide", "4-Fluoro-1-iodobenzene", "NSC 10280", "NSC 4662", "1-Iodo-4-fluorobenzene", "4-Iodo-1-fluorobenzene"], "SMILES": "FC1=CC=C(I)C=C1", "physical_data": {"Molecular Weight": "222.00", "Molecular Formula": "C6H4FI", "Boiling Point": "183 \u00b0C", "Melting Point": "-27 \u00b0C", "Density": "1.9001 g/cm\u00b3 @ Temp: 25.00 \u00b0C"}}