{"cas_no": "352-70-5", "cn_name": "3-\u6c1f\u7532\u82ef", "en_name": ["3-Fluorotoluene", "Benzene, 1-fluoro-3-methyl-", "Toluene, m-fluoro-", "1-Fluoro-3-methylbenzene", "m-Fluorotoluene", "3-Fluorotoluene", "NSC 8860"], "SMILES": "CC1=CC(F)=CC=C1", "physical_data": {"Molecular Weight": "110.13", "Molecular Formula": "C7H7F", "Boiling Point": "115 \u00b0C", "Melting Point": "-87 \u00b0C", "Density": "0.9972 g/cm\u00b3 @ Temp: 13.4 \u00b0C"}}