{"cas_no": "352-21-6", "cn_name": "3-\u7f9f\u57fa-4-\u6c28\u57fa\u4e01\u9178", "en_name": ["4-Amino-3-hydroxybutanoic acid", "Butanoic acid, 4-amino-3-hydroxy-", "Butyric acid, 4-amino-3-hydroxy-, DL-", "Butanoic acid, 4-amino-3-hydroxy-, (\u00b1)-", "Butyric acid, \u03b3-amino-\u03b2-hydroxy-", "4-Amino-3-hydroxybutanoic acid", "DL-\u03b2-Hydroxy-\u03b3-aminobutyric acid", "DL-\u03b3-Amino-\u03b2-hydroxybutyric acid", "DL-3-Hydroxy-4-aminobutyric acid", "(\u00b1)-3-Hydroxy-4-aminobutanoic acid", "DL-4-Amino-3-hydroxybutanoic acid", "(RS)-\u03b3-Amino-\u03b2-hydroxybutyric acid", "(\u00b1)-4-Amino-3-hydroxybutanoic acid", "(RS)-3-Hydroxy-\u03b3-aminobutyric acid", "DL-4-Amino-3-hydroxybutyric acid", "(\u00b1)-\u03b2-Hydroxy-GABA", "(RS)-4-Amino-3-hydroxybutanoic acid", "(\u00b1)-4-Amino-3-hydroxybutyric acid", "\u03b3-Amino-\u03b2-hydroxybutyric acid", "4-Amino-3-hydroxybutyric acid", "Buxamine", "GABOB", "Gamibetal", "Gaminal", "3-Hydroxy-4-aminobutyric acid", "\u03b2-Hydroxy-\u03b3-aminobutyric acid", "Buksamin", "Gabomade", "3-Hydroxy-GABA", "Bogil", "Idramina", "Gabobe", "Gaboril", "\u03b2-Hydroxy-GABA", "3-Hydroxy-4-aminobutanoic acid", "NSC 40244", "gamma-Amino-beta-hydroxybutyric acid"], "SMILES": "C(CC(O)=O)(CN)O", "physical_data": {"Molecular Weight": "119.12", "Molecular Formula": "C4H9NO3", "Melting Point": "214 \u00b0C"}}