{"cas_no": "35203-44-2", "cn_name": "1-\u4e19\u57fa\u54aa\u5511", "en_name": ["1-Propylimidazole", "1H-Imidazole, 1-propyl-", "Imidazole, 1-propyl-", "1-Propyl-1H-imidazole", "1-Propylimidazole", "N-Propylimidazole"], "SMILES": "C(CC)N1C=CN=C1", "physical_data": {"Molecular Weight": "110.16", "Molecular Formula": "C6H10N2", "Boiling Point": "89-90 \u00b0C @ Press: 18 Torr"}}