{"cas_no": "35202-25-6", "cn_name": "5-(4-\u6c2f\u82ef\u57fa)\u5627\u5576-4-\u80fa", "en_name": ["5-(4-Chlorophenyl)-4-pyrimidinamine", "4-Pyrimidinamine, 5-(4-chlorophenyl)-", "Pyrimidine, 4-amino-5-(p-chlorophenyl)-", "5-(4-Chlorophenyl)-4-pyrimidinamine", "4-Amino-5-(p-chlorophenyl)pyrimidine"], "SMILES": "NC=1C(C2=CC=C(Cl)C=C2)=CN=CN1", "physical_data": {"Molecular Weight": "205.64", "Molecular Formula": "C10H8ClN3", "Melting Point": "203-204 \u00b0C"}}