{"cas_no": "35205-54-0", "cn_name": "\u4e59\u80fa,1-\u7532\u57fa-2-\u82ef\u6c27\u57fa-", "en_name": ["1-Phenoxy-2-propanamine", "2-Propanamine, 1-phenoxy-", "Ethylamine, 1-methyl-2-phenoxy-", "Ethylamine, methyl-2-phenoxy-", "1-Phenoxy-2-propanamine", "1-Methyl-2-phenoxyethylamine", "Phenoxyisopropylamine", "1-Phenoxy-2-propylamine", "2-Phenoxy-1-methylethylamine", "\u03b1-Methyl-2-phenoxyethanamine", "NSC 137777", "(2-Aminopropoxy)benzene"], "SMILES": "O(CC(C)N)C1=CC=CC=C1", "physical_data": {"Molecular Weight": "151.21", "Molecular Formula": "C9H13NO", "Boiling Point": "117-120 \u00b0C @ Press: 3 Torr", "Melting Point": "147-148 \u00b0C", "Density": "1.0146 g/cm\u00b3 @ Temp: 20 \u00b0C"}}