{"cas_no": "35202-54-1", "cn_name": "4,5-\u4e8c\u7532\u6c27\u57fa-1-\u6c30\u57fa\u82ef\u5e76\u73af\u4e01\u70f7", "en_name": ["3,4-Dimethoxybicyclo[4.2.0]octa-1,3,5-triene-7-carbonitrile", "Bicyclo[4.2.0]octa-1,3,5-triene-7-carbonitrile, 3,4-dimethoxy-", "3,4-Dimethoxybicyclo[4.2.0]octa-1,3,5-triene-7-carbonitrile", "1-Cyano-4,5-dimethoxybenzocyclobutene", "4,5-Dimethoxy-1-benzocyclobutenecarbonitrile", "1,2-Dihydro-4,5-dimethoxybenzocyclobutene-1-carbonitrile", "NSC 154410", "4,5-Dimethoxy-1-cyanobenzocyclobutane", "3,4-Dimethoxybicyclo[4.2.0]octa-1(6),2,4-triene-7-carbonitrile"], "SMILES": "C(#N)C1C=2C(C1)=CC(OC)=C(OC)C2", "physical_data": {"Molecular Weight": "189.21", "Molecular Formula": "C11H11NO2", "Melting Point": "79-81 \u00b0C"}}