{"cas_no": "35216-11-6", "cn_name": "7-\u5341\u56db\u7094", "en_name": ["7-Tetradecyne", "7-Tetradecyne"], "SMILES": "C(#CCCCCCC)CCCCCC", "physical_data": {"Molecular Weight": "194.36", "Molecular Formula": "C14H26", "Boiling Point": "124 \u00b0C @ Press: 15 Torr", "Density": "0.7991 g/cm\u00b3 @ Temp: 25 \u00b0C"}}