{"cas_no": "35212-99-8", "cn_name": "5,6-\u4e8c\u7532\u6c27\u57fa\u82ef\u5e76[B]\u567b\u5429-2-\u7fa7\u9178\u7532\u916f", "en_name": ["Benzo[b]thiophene-2-carboxylic acid, 5,6-dimethoxy-, methyl ester", "Benzo[b]thiophene-2-carboxylic acid, 5,6-dimethoxy-, methyl ester", "5,6-Dimethoxybenzo[b]thiophene-2-carboxylic acid methyl ester", "Methyl 5,6-dimethoxybenzo[b]thiophene-2-carboxylate"], "SMILES": "C(OC)(=O)C1=CC=2C(S1)=CC(OC)=C(OC)C2", "physical_data": {"Molecular Weight": "252.29", "Molecular Formula": "C12H12O4S", "Melting Point": "157-158 \u00b0C"}}