{"cas_no": "3521-62-8", "cn_name": "\u4f9d\u6258\u7ea2\u9709\u7d20", "en_name": ["Erythromycin estolate", "Erythromycin, 2\u2032-propanoate, dodecyl sulfate (1:1)", "Erythromycin, 2\u2032-propionate, dodecyl sulfate (salt)", "Erythromycin, 2\u2032-propanoate, dodecyl sulfate (salt)", "Erythromycin, propionate, compd. with dodecyl sulfate", "Propionic acid, 2\u2032-ester with erythromycin, dodecyl sulfate salt", "Sulfuric acid, monododecyl ester, compd. with erythromycin 2\u2032-propionate (1:1)", "Oxacyclotetradecane, erythromycin deriv.", "Sulfuric acid, monododecyl ester, compd. with erythromycin 2\u2032-propanoate (1:1)", "Erythromycin estolate", "Erythromycin propionate lauryl sulfate", "Ilosone", "Lauryl sulfate propionyl erythromycin ester", "Propionylerythromycin lauryl sulfate", "Eriscel", "Estomicina", "Erytrarco", "Eromycin", "Marcoeritrex", "Lauromicina", "Neo-Erycinum", "PELS", "Roxomicina", "Stellamicina", "Erythromycin, monopropanoate (ester), dodecyl sulfate (salt)", "Erythromycin, monopropionate (ester), compd. with monododecyl sulfate (1:1)", "Lubomycine B", "Propiocine Enfant", "Eritroger", "Eupragin", "Togiren", "NSC 263364", "Eltocin DS", "MeSH ID: D004918"], "SMILES": "O(C1C(OC(CC)=O)C(N(C)C)CC(C)O1)C2C(C)C(OC3CC(OC)(C)C(O)C(C)O3)C(C)C(=O)OC(CC)C(C)(O)C(O)C(C)C(=O)C(C)CC2(C)O.C(CCCCCCCCCC)COS(=O)(=O)O", "physical_data": {"Molecular Weight": "", "Molecular Formula": "C40H71NO14.C12H26O4S", "Melting Point": "137 \u00b0C (decomp)"}}