{"cas_no": "35212-22-7", "cn_name": "\u4f9d\u666e\u9ec4\u916e", "en_name": ["Ipriflavone", "4H-1-Benzopyran-4-one, 7-(1-methylethoxy)-3-phenyl-", "7-(1-Methylethoxy)-3-phenyl-4H-1-benzopyran-4-one", "7-Isopropoxyisoflavone", "Ipriflavone", "FL 113", "7-Isopropoxy-3-phenyl-4H-1-benzopyran-4-one", "TC 80", "Osteofix", "Osteofix (pharmaceutical)", "Osten", "Yambolap", "Iprosten", "TC 80 (pharmaceutical)", "Iprivone", "3-Phenyl-7-propan-2-yloxychromen-4-one"], "SMILES": "O=C1C=2C(=CC(OC(C)C)=CC2)OC=C1C3=CC=CC=C3", "physical_data": {"Molecular Weight": "280.32", "Molecular Formula": "C18H16O3", "Melting Point": "115-117 \u00b0C"}}