{"cas_no": "3522-94-9", "cn_name": "2\uff0c2\uff0c5-\u4e09\u7532\u57fa\u5df1\u70f7", "en_name": ["2,2,5-Trimethylhexane", "Hexane, 2,2,5-trimethyl-", "2,2,5-Trimethylhexane", "NSC 65657"], "SMILES": "C(C(C)(C)C)CC(C)C", "physical_data": {"Molecular Weight": "128.26", "Molecular Formula": "C9H20", "Boiling Point": "124 \u00b0C", "Melting Point": "-105.7 \u00b0C", "Density": "0.7082 g/cm\u00b3 @ Temp: 20 \u00b0C"}}