{"cas_no": "35225-79-7", "cn_name": "\u8054\u7532\u57fa\u82ef\u4e59\u70ef\u916e", "en_name": ["(1E,4E)-1,5-Diphenyl-1,4-pentadien-3-one", "1,4-Pentadien-3-one, 1,5-diphenyl-, (1E,4E)-", "1,4-Pentadien-3-one, 1,5-diphenyl-, (E,E)-", "(1E,4E)-1,5-Diphenyl-1,4-pentadien-3-one", "trans,trans-1,5-Diphenylpenta-1,4-dien-3-one", "trans,trans-Dibenzylideneacetone", "(E,E)-1,5-Diphenylpenta-1,4-dien-3-one", "trans,trans-Dibenzalacetone", "(E,E)-Dibenzylideneacetone", "Bis((E)-2-phenylethenyl) ketone", "(E,E)-1,5-Diphenyl-1,4-pentadien-3-one"], "SMILES": "C(=CC(C=CC1=CC=CC=C1)=O)C2=CC=CC=C2", "physical_data": {"Molecular Weight": "234.29", "Molecular Formula": "C17H14O", "Boiling Point": "230-240 \u00b0C @ Press: 1 mmHg", "Melting Point": "111 \u00b0C"}}