{"cas_no": "35231-44-8", "cn_name": "4-\u6eb4\u7532\u57fa-7-\u7532\u6c27\u57fa\u9999\u8c46\u7d20", "en_name": ["4-Bromomethyl-7-methoxycoumarin", "2H-1-Benzopyran-2-one, 4-(bromomethyl)-7-methoxy-", "4-(Bromomethyl)-7-methoxy-2H-1-benzopyran-2-one", "4-Bromomethyl-7-methoxy-2-oxo-2H-benzopyran", "4-Bromomethyl-7-methoxycoumarin", "7-Methoxy-4-(bromomethyl)coumarin", "4-(Bromomethyl)-7-methoxy-2H-chromen-2-one", "4-(Bromomethyl)-7-methoxy-2H-chromene-2-one", "4-(Bromomethyl)-7-methoxychromen-2-one"], "SMILES": "C(Br)C=1C=2C(=CC(OC)=CC2)OC(=O)C1", "physical_data": {"Molecular Weight": "269.09", "Molecular Formula": "C11H9BrO3", "Melting Point": "204 \u00b0C"}}