{"cas_no": "352303-67-4", "cn_name": "2-\u6c1f-3-\u7532\u6c27\u57fa\u82ef\u787c\u9178", "en_name": ["2-Fluoro-3-methoxyphenylboronic acid", "Boronic acid, B-(2-fluoro-3-methoxyphenyl)-", "Boronic acid, (2-fluoro-3-methoxyphenyl)-", "B-(2-Fluoro-3-methoxyphenyl)boronic acid", "2-Fluoro-3-methoxyphenylboronic acid", "(3-Methoxy-2-fluorophenyl)boronic acid", "2-Fluoro-3-methoxybenzeneboronic acid"], "SMILES": "B(O)(O)C1=C(F)C(OC)=CC=C1", "physical_data": {"Molecular Weight": "169.95", "Molecular Formula": "C7H8BFO3", "Melting Point": "205-206 \u00b0C"}}