{"cas_no": "352359-23-0", "cn_name": "N-\u53d4\u4e01\u6c27\u7fb0\u57fa-5-\u6c1f\u5432\u54da-2-\u787c\u9178", "en_name": ["1-(1,1-Dimethylethyl) 2-borono-5-fluoro-1H-indole-1-carboxylate", "1H-Indole-1-carboxylic acid, 2-borono-5-fluoro-, 1-(1,1-dimethylethyl) ester", "1-(1,1-Dimethylethyl) 2-borono-5-fluoro-1H-indole-1-carboxylate", "[1-[[(1,1-Dimethylethyl)oxy]carbonyl]-5-fluoro-1H-indol-2-yl]boronic acid", "[1-(tert-Butoxycarbonyl)-5-fluoro-1H-indol-2-yl]boronic acid", "1-Boc-5-fluoroindole-2-boronic Acid"], "SMILES": "C(OC(C)(C)C)(=O)N1C=2C(C=C1B(O)O)=CC(F)=CC2", "physical_data": {"Molecular Weight": "279.07", "Molecular Formula": "C13H15BFNO4", "Melting Point": "231-234 \u00b0C"}}