{"cas_no": "35237-37-7", "cn_name": "(+/-)-2-\u6c28\u57fa\u5341\u4e8c\u9178", "en_name": ["2-Aminododecanoic acid", "Dodecanoic acid, 2-amino-", "Dodecanoic acid, 2-amino-, (\u00b1)-", "2-Aminododecanoic acid", "DL-2-Aminododecanoic acid", "(\u00b1)-2-Aminododecanoic acid", "\u03b1-Aminolauric acid"], "SMILES": "C(CCCCCCCC)CC(C(O)=O)N", "physical_data": {"Molecular Weight": "215.33", "Molecular Formula": "C12H25NO2", "Melting Point": "263 \u00b0C (decomp)"}}