{"cas_no": "3524-75-2", "cn_name": "\u70ef\u4e19\u57fa\u73af\u620a\u70f7", "en_name": ["Allylcyclopentane", "Cyclopentane, 2-propen-1-yl-", "Cyclopentane, allyl-", "Cyclopentane, 2-propenyl-", "2-Propen-1-ylcyclopentane", "1-Propene, 3-cyclopentyl-", "Allylcyclopentane", "NSC 74152", "3-Cyclopentyl-1-propene"], "SMILES": "C(C=C)C1CCCC1", "physical_data": {"Molecular Weight": "110.20", "Molecular Formula": "C8H14", "Boiling Point": "125 \u00b0C", "Melting Point": "-110.7 \u00b0C", "Density": "0.793 g/cm\u00b3 @ Temp: 23 \u00b0C"}}