{"cas_no": "3524-87-6", "cn_name": "4-\u7f9f\u57fa-6-\u7532\u57fa\u5627\u5576", "en_name": ["6-Methyl-4(3H)-pyrimidinone", "4(3H)-Pyrimidinone, 6-methyl-", "4-Pyrimidinol, 6-methyl-", "4(1H)-Pyrimidinone, 6-methyl-", "6-Methyl-4(3H)-pyrimidinone", "4-Hydroxy-6-methylpyrimidine", "6-Methyl-4-oxopyrimidine", "6-Methyl-4-pyrimidinol", "6-Methyl-4-hydroxypyrimidine", "NSC 18893", "NSC 193523"], "SMILES": "CC1=CC(=O)N=CN1", "physical_data": {"Molecular Weight": "110.11", "Molecular Formula": "C5H6N2O", "Melting Point": "160-161 \u00b0C (decomp)"}}