{"cas_no": "35249-62-8", "cn_name": "2-\u6eb4-4,5-\u4e8c\u7532\u6c27\u57fa-\u82ef\u4e19\u8148", "en_name": ["2-Bromo-4,5-dimethoxybenzenepropanenitrile", "Benzenepropanenitrile, 2-bromo-4,5-dimethoxy-", "2-Bromo-4,5-dimethoxybenzenepropanenitrile", "2-Bromo-4,5-dimethoxyhydrocinnamonitrile", "NSC 268227", "3-(2-Bromo-4,5-dimethoxyphenyl)propiononitrile", "3-(2-Bromo-4,5-dimethoxyphenyl)propanenitrile"], "SMILES": "O(C)C1=C(OC)C=C(Br)C(CCC#N)=C1", "physical_data": {"Molecular Weight": "270.12", "Molecular Formula": "C11H12BrNO2", "Melting Point": "90-92 \u00b0C"}}