{"cas_no": "3524-73-0", "cn_name": "5-\u7532\u57fa-1-\u5df1\u70ef", "en_name": ["5-Methyl-1-hexene", "1-Hexene, 5-methyl-", "5-Methyl-1-hexene", "NSC 73927"], "SMILES": "C(C(C)C)CC=C", "physical_data": {"Molecular Weight": "98.19", "Molecular Formula": "C7H14", "Boiling Point": "85.3 \u00b0C", "Density": "0.7160 g/cm\u00b3 @ Temp: 16 \u00b0C"}}