{"cas_no": "3524-32-1", "cn_name": "5-\u6c28\u57fa-1,3-\u4e8c\u7532\u57fa\u5421\u5511", "en_name": ["1,3-Dimethyl-1H-pyrazol-5-amine", "1H-Pyrazol-5-amine, 1,3-dimethyl-", "Pyrazole, 5-amino-1,3-dimethyl-", "1,3-Dimethyl-1H-pyrazol-5-amine", "5-Amino-1,3-dimethylpyrazole", "5-Amino-1,3-dimethyl-1H-pyrazole", "1,3-Dimethyl-5-aminopyrazole", "1,3-Dimethyl-5-pyrazolamine", "1,3-Dimethyl-5-amino-1H-pyrazole", "2,5-Dimethyl-2H-pyrazol-3-ylamine", "3-Amino-2,5-dimethyl-2H-pyrazole", "(1,3-Dimethyl-1H-pyrazol-5-yl)amine", "2,5-Dimethylpyrazol-3-amine"], "SMILES": "NC=1N(C)N=C(C)C1", "physical_data": {"Molecular Weight": "111.15", "Molecular Formula": "C5H9N3", "Boiling Point": "121-123 \u00b0C @ Press: 9 Torr", "Melting Point": "78-79 \u00b0C"}}