{"cas_no": "3524-33-2", "cn_name": "1-\u4e59\u57fa-3-\u7532\u57fa-1H-\u5421\u5511-5-\u80fa", "en_name": ["1-Ethyl-3-methyl-1H-pyrazol-5-amine", "1H-Pyrazol-5-amine, 1-ethyl-3-methyl-", "Pyrazole, 5-amino-1-ethyl-3-methyl-", "1-Ethyl-3-methyl-1H-pyrazol-5-amine", "1-Ethyl-3-methyl-5-aminopyrazole", "5-Amino-1-ethyl-3-methylpyrazole", "5-Amino-3-methyl-1-ethylpyrazole", "1-Ethyl-3-methyl-5-pyrazolamine", "5-Amino-1-ethyl-3-methyl-1H-pyrazole", "5-Methyl-2-ethyl-2H-pyrazol-3-ylamine", "2-Ethyl-5-methylpyrazol-3-amine"], "SMILES": "C(C)N1C(N)=CC(C)=N1", "physical_data": {"Molecular Weight": "125.17", "Molecular Formula": "C6H11N3", "Melting Point": "100-101 \u00b0C"}}