{"cas_no": "3524-62-7", "cn_name": "\u5b89\u606f\u9999\u7532\u57fa\u919a", "en_name": ["(\u00b1)-Benzoin methyl ether", "Ethanone, 2-methoxy-1,2-diphenyl-", "Acetophenone, 2-methoxy-2-phenyl-", "2-Methoxy-1,2-diphenylethanone", "Benzoin methyl ether", "2-Methoxy-2-phenylacetophenone", "O-Methylbenzoin", "\u03b1-Methoxybenzyl phenyl ketone", "QCU 3", "2-Methoxy-1,2-diphenyl-1-ethanone", "\u03b1-Methoxydeoxybenzoin", "Nisso Cure MBO", "dl-Benzoin methyl ether", "(\u00b1)-Benzoin methyl ether", "(RS)-Benzoin methyl ether", "PS 96", "\u03b1-Methoxy-\u03b1-phenylacetophenone", "NSC 76550"], "SMILES": "C(C(=O)C1=CC=CC=C1)(OC)C2=CC=CC=C2", "physical_data": {"Molecular Weight": "226.27", "Molecular Formula": "C15H14O2", "Boiling Point": "192 \u00b0C @ Press: 1 Torr", "Melting Point": "49.5 \u00b0C", "Density": "1.209 g/cm\u00b3"}}