{"cas_no": "352535-01-4", "cn_name": "\u56db\u53cc(\u4e59\u57fa\u7532\u57fa\u6c28)\u94ea(IV)", "en_name": ["Ethanamine, N-methyl-, hafnium(4+) salt (4:1)", "Ethanamine, N-methyl-, hafnium(4+) salt (4:1)", "Ethanamine, N-methyl-, hafnium(4+) salt", "Tetrakis(ethylmethylamido)hafnium", "Tetrakis(ethylmethylamino)hafnium", "Hafnium tetra(ethylmethylamide)", "Tetrakis(methylethylamino)hafnium", "TEMAH", "Tetrakis(ethylmethylamino)hafnium(IV)"], "SMILES": "C(NC)C.[Hf]", "physical_data": {"Molecular Weight": "", "Molecular Formula": "C3H9N.<sup>1</sup>/4Hf", "Boiling Point": "79 \u00b0C @ Press: 0.1 Torr", "Melting Point": "&lt;-70 \u00b0C"}}