{"cas_no": "35256-85-0", "cn_name": "\u7267\u8349\u80fa", "en_name": ["Tebutam", "Propanamide, 2,2-dimethyl-N-(1-methylethyl)-N-(phenylmethyl)-", "2,2-Dimethyl-N-(1-methylethyl)-N-(phenylmethyl)propanamide", "N-Benzyl-N-isopropyltrimethylacetamide", "Butam", "N-Benzyl-N-isopropylpivalamide", "Comodor", "Tebutam"], "SMILES": "N(C(C(C)(C)C)=O)(CC1=CC=CC=C1)C(C)C", "physical_data": {"Molecular Weight": "233.35", "Molecular Formula": "C15H23NO", "Boiling Point": "96 \u00b0C", "Melting Point": "&lt;25 \u00b0C"}}