{"cas_no": "3526-43-0", "cn_name": "N-\u82ef\u57fa-4-\u7532\u6c27\u57fa\u82c4\u80fa", "en_name": ["4-Methoxy-N-phenylbenzenemethanamine", "Benzenemethanamine, 4-methoxy-N-phenyl-", "Benzylamine, p-methoxy-N-phenyl-", "4-Methoxy-N-phenylbenzenemethanamine", "p-Methoxy-N-phenylbenzylamine", "N-(4-Methoxybenzyl)aniline", "N-Phenyl-4-methoxybenzylamine", "4-Methoxybenzyl(phenyl)amine", "N-(p-Methoxybenzyl)aniline"], "SMILES": "C(NC1=CC=CC=C1)C2=CC=C(OC)C=C2", "physical_data": {"Molecular Weight": "213.27", "Molecular Formula": "C14H15NO", "Boiling Point": "170-177 \u00b0C @ Press: 2.5 Torr", "Melting Point": "64.5 \u00b0C"}}