{"cas_no": "35274-05-6", "cn_name": "\u5341\u516d\u70f7\u57fa\u4e73\u9178\u916f", "en_name": ["Cetyl lactate", "Propanoic acid, 2-hydroxy-, hexadecyl ester", "Lactic acid, hexadecyl ester", "Hexadecyl lactate", "Cetyl lactate", "Cyclochem CL", "Spermol lactate", "Ceraphyl 28"], "SMILES": "C(CCCCCCCCCCCCCC)COC(C(C)O)=O", "physical_data": {"Molecular Weight": "314.50", "Molecular Formula": "C19H38O3", "Melting Point": "41 \u00b0C"}}