{"cas_no": "35275-62-8", "cn_name": "1-\u6c2f\u831a\u6ee1", "en_name": ["1-Chloro-2,3-dihydro-1H-indene", "1H-Indene, 1-chloro-2,3-dihydro-", "Indan, 1-chloro-", "1-Chloro-2,3-dihydro-1H-indene", "\u03b1-Chlorindane", "1-Chloroindan", "1-Chloroindane", "1-Indanyl chloride", "1-Chloro-2,3-dihydroindene"], "SMILES": "ClC1C=2C(=CC=CC2)CC1", "physical_data": {"Molecular Weight": "152.62", "Molecular Formula": "C9H9Cl", "Boiling Point": "105 \u00b0C @ Press: 22 Torr"}}