{"cas_no": "35271-74-0", "cn_name": "3-(4-\u6c2f\u82ef\u57fa)\u620a\u4e8c\u9178", "en_name": ["3-(4-Chlorophenyl)pentanedioic acid", "Pentanedioic acid, 3-(4-chlorophenyl)-", "Glutaric acid, 3-(p-chlorophenyl)-", "3-(4-Chlorophenyl)pentanedioic acid", "\u03b2-(p-Chlorophenyl)glutaric acid", "3-(4-Chlorophenyl)glutaric acid"], "SMILES": "C(CC(O)=O)(CC(O)=O)C1=CC=C(Cl)C=C1", "physical_data": {"Molecular Weight": "242.66", "Molecular Formula": "C11H11ClO4", "Melting Point": "166-168 \u00b0C"}}