{"cas_no": "35276-83-6", "cn_name": "2-\u7532\u6c27\u57fa\u82ef\u7532\u9170\u4e59\u8148", "en_name": ["2-Methoxy-\u03b2-oxobenzenepropanenitrile", "Benzenepropanenitrile, 2-methoxy-\u03b2-oxo-", "Acetonitrile, o-anisoyl-", "2-Methoxy-\u03b2-oxobenzenepropanenitrile", "o-Anisoylacetonitrile", "2-Methoxybenzoylacetonitrile", "3-(2-Methoxyphenyl)-3-oxopropionitrile", "3-(2-Methoxyphenyl)-3-oxopropanenitrile"], "SMILES": "C(CC#N)(=O)C1=C(OC)C=CC=C1", "physical_data": {"Molecular Weight": "175.18", "Molecular Formula": "C10H9NO2", "Melting Point": "87 \u00b0C"}}