{"cas_no": "35287-42-4", "cn_name": "4-\u6eb4-2-(\u6eb4\u7532\u57fa)-1-\u785d\u57fa\u82ef", "en_name": ["4-Bromo-2-(bromomethyl)-1-nitrobenzene", "Benzene, 4-bromo-2-(bromomethyl)-1-nitro-", "4-Bromo-2-(bromomethyl)-1-nitrobenzene"], "SMILES": "C(Br)C1=C(N(=O)=O)C=CC(Br)=C1", "physical_data": {"Molecular Weight": "294.93", "Molecular Formula": "C7H5Br2NO2", "Melting Point": "75-78 \u00b0C"}}