{"cas_no": "3528-51-6", "cn_name": "1-\u82c4\u57fa-1H-\u5421\u5511-5-\u80fa", "en_name": ["1-(Phenylmethyl)-1H-pyrazol-5-amine", "1H-Pyrazol-5-amine, 1-(phenylmethyl)-", "Pyrazole, 5-amino-1-benzyl-", "1-(Phenylmethyl)-1H-pyrazol-5-amine", "5-Amino-1-benzylpyrazole", "1-Benzyl-5-aminopyrazole", "1-Benzyl-5-pyrazolamine", "1-Benzyl-1H-pyrazol-5-amine", "(1-Benzyl-1H-pyrazol-5-yl)amine", "2-Benzyl-2H-pyrazol-3-ylamine", "2-Benzylpyrazol-3-amine", "1-Benzyl-1H-pyrazole-5-amine"], "SMILES": "C(N1C(N)=CC=N1)C2=CC=CC=C2", "physical_data": {"Molecular Weight": "173.21", "Molecular Formula": "C10H11N3", "Boiling Point": "176-178 \u00b0C @ Press: 0.5 Torr", "Melting Point": "79-81 \u00b0C"}}