{"cas_no": "3528-17-4", "cn_name": "\u786b\u4ee3\u8272\u6ee1-4-\u916e", "en_name": ["Thiochromanone", "4H-1-Benzothiopyran-4-one, 2,3-dihydro-", "Thiochroman-4-one", "2,3-Dihydro-4H-1-benzothiopyran-4-one", "1-Thiochroman-4-one", "Thiochromanone", "Thiachroman-4-one", "2,3-Dihydro-4-benzothiopyranone", "2,3-Dihydro-4H-thiochromen-4-one", "NSC 113603", "NSC 153096", "NSC 64353", "2,3-Dihydrothiochromen-4-one", "3,4-Dihydro-2H-1-benzothiopyran-4-one"], "SMILES": "O=C1C=2C(SCC1)=CC=CC2", "physical_data": {"Molecular Weight": "164.22", "Molecular Formula": "C9H8OS", "Boiling Point": "154 \u00b0C @ Press: 12 Torr", "Melting Point": "29 \u00b0C", "Density": "1.2487 g/cm\u00b3 @ Temp: 13.7 \u00b0C"}}