{"cas_no": "3528-58-3", "cn_name": "5-\u6c28\u57fa-1-\u4e59\u57fa\u5421\u5511", "en_name": ["5-Amino-1-ethylpyrazole", "1H-Pyrazol-5-amine, 1-ethyl-", "Pyrazole, 5-amino-1-ethyl-", "1-Ethyl-1H-pyrazol-5-amine", "5-Amino-1-ethylpyrazole", "1-Ethyl-5-aminopyrazole", "5-Amino-1-ethyl-1H-pyrazole", "2-Ethyl-2H-pyrazol-3-ylamine", "1-Ethyl-1H-pyrazol-5-ylamine", "NSC 354694", "2-Ethylpyrazol-3-amine"], "SMILES": "C(C)N1C(N)=CC=N1", "physical_data": {"Molecular Weight": "111.15", "Molecular Formula": "C5H9N3", "Boiling Point": "75-76 \u00b0C @ Press: 25 Torr"}}