{"cas_no": "35286-59-0", "cn_name": "\u5730\u6986\u7682\u82f7\u2161", "en_name": ["Ziyuglycoside II", "Urs-12-en-28-oic acid, 3-(\u03b1-L-arabinopyranosyloxy)-19-hydroxy-, (3\u03b2)-", "(3\u03b2)-3-(\u03b1-L-Arabinopyranosyloxy)-19-hydroxyurs-12-en-28-oic acid", "Ziyuglycoside II", "Zigu-glucoside II", "3\u03b2,19\u03b1-Dihydroxyurs-12-en-28-oic acid 3-O-\u03b1-L-arabinopyranoside", "Pomolic acid 3-O-\u03b1-L-arabinopyranoside", "3-O-\u03b1-L-Arabinopyranosylpomolic acid", "Gouguside 1", "3\u03b2-O-\u03b1-L-Arabinopyranosyl-19\u03b1-hydroxyurs-12-en-28-oic acid", "Ziyu-glucoside II"], "SMILES": "C(O)(=O)C12C(C=3C(C)(CC1)C4(C)C(CC3)C5(C)C(CC4)C(C)(C)C(OC6C(O)C(O)C(O)CO6)CC5)C(C)(O)C(C)CC2", "physical_data": {"Molecular Weight": "604.81", "Molecular Formula": "C35H56O8", "Melting Point": "260-263 \u00b0C"}}