{"cas_no": "3529-87-1", "cn_name": "4-PHENOXYPHENYL ISOTHIOCYANATE", "en_name": ["1-Isothiocyanato-4-phenoxybenzene", "Benzene, 1-isothiocyanato-4-phenoxy-", "Isothiocyanic acid, p-phenoxyphenyl ester", "1-Isothiocyanato-4-phenoxybenzene", "4-Isothiocyanatodiphenyl ether", "4-Phenoxyphenyl isothiocyanate"], "SMILES": "O(C1=CC=C(N=C=S)C=C1)C2=CC=CC=C2", "physical_data": {"Molecular Weight": "227.28", "Molecular Formula": "C13H9NOS", "Boiling Point": "143 \u00b0C @ Press: 0.2 Torr", "Melting Point": "42 \u00b0C"}}