{"cas_no": "3529-08-6", "cn_name": "1-(3-\u6c28\u57fa\u4e19\u57fa)\u54cc\u5576", "en_name": ["1-Piperidinepropanamine", "1-Piperidinepropanamine", "Piperidine, 1-(3-aminopropyl)-", "N-(\u03c9-Aminopropyl)piperidine", "1-(3-Aminopropyl)piperidine", "3-Piperidinopropylamine", "3-(N-Piperidino)propylamine", "N-(3-Aminopropyl)piperidine", "3-(1-Piperidinyl)propylamine", "3-Piperidino-1-propylamine", "n-(\u03b3-Aminopropyl)piperidine", "3-Piperidinopropan-1-amine", "3-(Piperidin-1-yl)propan-1-amine", "3-(Piperidin-1-yl)propane-1-amine", "[3-(Piperidin-1-yl)propyl]amine-3-(piperidin-1-yl)propan-1-amine"], "SMILES": "C(CCN)N1CCCCC1", "physical_data": {"Molecular Weight": "142.24", "Molecular Formula": "C8H18N2", "Boiling Point": "81-83 \u00b0C @ Press: 9 Torr", "Density": "0.9024 g/cm\u00b3 @ Temp: 20 \u00b0C"}}