{"cas_no": "3529-09-7", "cn_name": "N,N-\u4e8c\u6b63\u4e01\u57fa\u4e59\u4e8c\u80fa", "en_name": ["N1,N1-Dibutyl-1,2-ethanediamine", "1,2-Ethanediamine, N1,N1-dibutyl-", "Ethylenediamine, N,N-dibutyl-", "1,2-Ethanediamine, N,N-dibutyl-", "N1,N1-Dibutyl-1,2-ethanediamine", "N,N-Dibutylethylenediamine", "2-(Dibutylamino)ethylamine", "N,N-Dibutyl-1,2-ethanediamine", "NSC 100948", "N,N-Dibutyl-1,2-diaminoethane", "(2-Aminoethyl)dibutylamine", "1,2-Ethanediamine N1,N1-dibutyl-"], "SMILES": "N(CCCC)(CCCC)CCN", "physical_data": {"Molecular Weight": "172.31", "Molecular Formula": "C10H24N2", "Boiling Point": "98-101 \u00b0C @ Press: 13 Torr", "Melting Point": "187-188 \u00b0C", "Density": "0.8255 g/cm\u00b3 @ Temp: 20 \u00b0C"}}