{"cas_no": "3529-10-0", "cn_name": "4-\u4e8c\u7532\u57fa\u6c28\u57fa\u4e01\u80fa", "en_name": ["N,N-Dimethyl-1,4-butanediamine", "1,4-Butanediamine, N1,N1-dimethyl-", "1,4-Butanediamine, N,N-dimethyl-", "N1,N1-Dimethyl-1,4-butanediamine", "Dimethylaminobutylamine", "N,N-Dimethyl-1,4-butanediamine", "4-(Dimethylamino)butylamine", "N,N-Dimethylputrescine", "N,N-Dimethyltetramethylenediamine", "4-(N,N-Dimethylamino)butylamine", "1-Amino-4-(dimethylamino)butane", "N-(4-Aminobutyl)-N,N-dimethylamine", "4-(Dimethylamino)-1-butylamine", "N\u2032,N\u2032-Dimethylbutane-1,4-diamine", "(4-Aminobutyl)dimethylamine", "N,N-Dimethylbutanediamine", "4-Dimethylaminobutan-1-amine"], "SMILES": "C(CCCN)N(C)C", "physical_data": {"Molecular Weight": "116.20", "Molecular Formula": "C6H16N2", "Boiling Point": "49-50 \u00b0C @ Press: 7 Torr", "Melting Point": "60 \u00b0C", "Density": "0.8179 g/cm\u00b3 @ Temp: 20 \u00b0C"}}