{"cas_no": "3529-82-6", "cn_name": "3-\u785d\u57fa\u5f02\u786b\u6c30\u9178\u82ef\u916f", "en_name": ["3-Nitrophenyl isothiocyanate", "Benzene, 1-isothiocyanato-3-nitro-", "Isothiocyanic acid, m-nitrophenyl ester", "1-Isothiocyanato-3-nitrobenzene", "m-Nitrophenyl isothiocyanate", "3-Nitrophenyl isothiocyanate"], "SMILES": "N(=C=S)C1=CC(N(=O)=O)=CC=C1", "physical_data": {"Molecular Weight": "180.18", "Molecular Formula": "C7H4N2O2S", "Boiling Point": "180 \u00b0C @ Press: 15 Torr", "Melting Point": "56 \u00b0C"}}