{"cas_no": "353-50-4", "cn_name": "\u78b3\u9170\u6c1f", "en_name": ["Carbonyl fluoride", "Carbonic difluoride", "Carbonyl fluoride", "Carbon oxyfluoride", "Carbonyl difluoride", "Fluorophosgene", "Carbonyl fluoride (COF2)", "Difluoroformaldehyde", "Fluoroformyl fluoride", "Carbon fluoride oxide (COF2)", "Carbon oxyfluoride (COF2)", "Carbon difluoride oxide", "Carbonyl difluoride (COF2)", "Difluorooxomethane", "Difluorophosgene"], "SMILES": "C(F)(F)=O", "physical_data": {"Molecular Weight": "66.01", "Molecular Formula": "CF2O", "Boiling Point": "-84.57 \u00b0C", "Melting Point": "-111.26 \u00b0C", "Density": "2.8959999999999997 x 10<sup>-3</sup> g/cm\u00b3"}}