{"cas_no": "353-66-2", "cn_name": "\u4e8c\u6c1f\u4e8c\u7532\u57fa\u7845\u70f7", "en_name": ["Difluorodimethylsilane", "Silane, difluorodimethyl-", "Difluorodimethylsilane", "Dimethyldifluorosilane"], "SMILES": "[Si](C)(C)(F)F", "physical_data": {"Molecular Weight": "96.15", "Molecular Formula": "C2H6F2Si", "Boiling Point": "2-3 \u00b0C", "Melting Point": "-88 \u00b0C"}}