{"cas_no": "353-36-6", "cn_name": "\u4e00\u6c1f\u4e59\u70f7", "en_name": ["Fluoroethane", "Ethane, fluoro-", "Fluoroethane", "Ethyl fluoride", "Monofluoroethane", "R 161", "HFC 161", "F 161", "HFA 161", "R 161 (refrigerant)"], "SMILES": "C(C)F", "physical_data": {"Molecular Weight": "48.06", "Molecular Formula": "C2H5F", "Boiling Point": "-37.6 \u00b0C", "Melting Point": "-143.2 \u00b0C", "Density": "0.8176 g/cm\u00b3"}}