{"cas_no": "353-85-5", "cn_name": "\u4e09\u6c1f\u4e59\u8148", "en_name": ["Trifluoroacetonitrile", "Acetonitrile, 2,2,2-trifluoro-", "Acetonitrile, trifluoro-", "2,2,2-Trifluoroacetonitrile", "Trifluoroacetonitrile", "Cyanotrifluoromethane", "Perfluoroacetonitrile", "Trifluoromethyl cyanide", "Trifluoromethylcarbonitrile", "CF3CN"], "SMILES": "C(C#N)(F)(F)F", "physical_data": {"Molecular Weight": "95.02", "Molecular Formula": "C2F3N", "Boiling Point": "-68.8 \u00b0C"}}