{"cas_no": "353-09-3", "cn_name": "\u80cd\u57fa\u4e19\u9178", "en_name": ["\u03b2-Guanidinopropionic acid", "\u03b2-Alanine, N-(aminoiminomethyl)-", "\u03b2-Alanine, N-amidino-", "N-(Aminoiminomethyl)-\u03b2-alanine", "Guanidinepropionic acid", "Guanidinopropionic acid", "\u03b2-Guanidinopropionic acid", "\u03b2-Guanidopropionic acid", "Guanidinepropanoic acid", "3-Guanidinopropanoic acid", "3-Guanidinopropionic acid", "Propanoic acid, 3-[(aminoiminomethyl)amino]-", "PNU 10483", "N-(3-Propanoic acid)guanidine", "3-(Diaminomethylideneamino)propanoic acid", "3-Carbamimidamidopropanoic acid", "Ompenaclid", "RGX 202", "RGX 202-01"], "SMILES": "C(CC(O)=O)NC(=N)N", "physical_data": {"Molecular Weight": "131.13", "Molecular Formula": "C4H9N3O2", "Melting Point": "204 \u00b0C"}}