{"cas_no": "353-59-3", "cn_name": "\u4e8c\u6c1f\u4e00\u6c2f\u4e00\u6eb4\u7532\u70f7", "en_name": ["Bromochlorodifluoromethane", "Methane, bromochlorodifluoro-", "Bromochlorodifluoromethane", "Freon 12B1", "Halon 1211", "R 12B1", "Difluorochlorobromomethane", "Fluorocarbon 1211", "Flugex 12B1", "BCF", "Chlorobromodifluoromethane", "Daiflon 12B1", "F 12B1", "H 1211", "BCF (halocarbon)"], "SMILES": "C(Br)(Cl)(F)F", "physical_data": {"Molecular Weight": "165.36", "Molecular Formula": "CBrClF2", "Boiling Point": "-3.7 \u00b0C", "Melting Point": "-159.5 \u00b0C", "Density": "1.917 g/cm\u00b3"}}