{"cas_no": "353-83-3", "cn_name": "2-\u7898-1,1,1-\u4e09\u6c1f\u4e59\u70f7", "en_name": ["1,1,1-Trifluoro-2-iodoethane", "Ethane, 1,1,1-trifluoro-2-iodo-", "1,1,1-Trifluoro-2-iodoethane", "2,2,2-Trifluoroethyl iodide", "1-Iodo-2,2,2-trifluoroethane", "2,2,2-Trifluoro-1-iodoethane", "2-Iodo-1,1,1-trifluoroethane", "2,2,2-Trifluoroiodoethane"], "SMILES": "C(CI)(F)(F)F", "physical_data": {"Molecular Weight": "209.94", "Molecular Formula": "C2H2F3I", "Boiling Point": "54.5 \u00b0C", "Density": "1.989 g/cm\u00b3 @ Temp: 23 \u00b0C"}}