{"cas_no": "353-54-8", "cn_name": "\u6c1f\u4e09\u6eb4\u7532\u70f7", "en_name": ["Tribromofluoromethane", "Methane, tribromofluoro-", "Tribromofluoromethane", "Fluorotribromomethane"], "SMILES": "C(Br)(Br)(Br)F", "physical_data": {"Molecular Weight": "270.72", "Molecular Formula": "CBr3F", "Boiling Point": "108 \u00b0C", "Melting Point": "-73.6 \u00b0C", "Density": "2.7648 g/cm\u00b3 @ Temp: 20 \u00b0C"}}