{"cas_no": "3530-36-7", "cn_name": "2-\u82ef\u57fa\u4e59\u57fa \u4e19\u70ef\u9178\u916f", "en_name": ["2-Phenylethyl acrylate", "2-Propenoic acid, 2-phenylethyl ester", "Acrylic acid, phenethyl ester", "Phenethyl alcohol, acrylate", "Phenethyl acrylate", "2-Phenylethyl acrylate", "2-Phenylethyl prop-2-enoate"], "SMILES": "C(COC(C=C)=O)C1=CC=CC=C1", "physical_data": {"Molecular Weight": "176.21", "Molecular Formula": "C11H12O2", "Boiling Point": "104 \u00b0C @ Press: 5.0 Torr", "Density": "1.0369 g/cm\u00b3 @ Temp: 20 \u00b0C"}}