{"cas_no": "35308-00-0", "cn_name": "9-\u7f9f\u57fa-4-\u7532\u6c27\u57fa\u5416\u5576", "en_name": ["4-Methoxyacridone", "9(10H)-Acridinone, 4-methoxy-", "9-Acridanone, 4-methoxy-", "4-Methoxy-9(10H)-acridinone", "4-Methoxyacridone", "4-Methoxy-9(10H)-acridone"], "SMILES": "O(C)C1=C2C(C(=O)C=3C(N2)=CC=CC3)=CC=C1", "physical_data": {"Molecular Weight": "225.24", "Molecular Formula": "C14H11NO2", "Melting Point": "346-348 \u00b0C"}}