{"cas_no": "3530-56-1", "cn_name": "1-(BETA-D-\u544b\u5583\u6728\u7cd6\u57fa)\u80de\u5627\u5576", "en_name": ["1-(\u03b2-D-Xylofuranosyl)cytosine", "2(1H)-Pyrimidinone, 4-amino-1-\u03b2-D-xylofuranosyl-", "Cytosine, 1-\u03b2-D-xylofuranosyl-", "4-Amino-1-\u03b2-D-xylofuranosyl-2(1H)-pyrimidinone", "1-(\u03b2-D-Xylofuranosyl)cytosine"], "SMILES": "OC1C(OC(CO)C1O)N2C(=O)N=C(N)C=C2", "physical_data": {"Molecular Weight": "243.22", "Molecular Formula": "C9H13N3O5", "Melting Point": "237-238 \u00b0C"}}