{"cas_no": "3530-15-2", "cn_name": "3,5-\u4e8c\u7532\u57fa-4H-1,2,4-\u567b\u5511-4-\u80fa", "en_name": ["4-Amino-3,5-dimethyl-1,2,4-triazole", "4H-1,2,4-Triazol-4-amine, 3,5-dimethyl-", "4H-1,2,4-Triazole, 4-amino-3,5-dimethyl-", "3,5-Dimethyl-4H-1,2,4-triazol-4-amine", "4-Amino-3,5-dimethyl-4H-1,2,4-triazole", "3,5-Dimethyl-4-amino-1,2,4-triazole", "4-Amino-3,5-dimethyl-1,2,4-triazole", "3,5-Dimethyl-4-amino-4H-1,2,4-triazole", "NSC 23773", "NSC 34805", "3,5-Dimethyl-1,2,4-triazol-4-amine", "3,5-Dimethyl-[1,2,4]triazol-4-ylamine"], "SMILES": "NN1C(C)=NN=C1C", "physical_data": {"Molecular Weight": "112.13", "Molecular Formula": "C4H8N4", "Melting Point": "196 \u00b0C"}}