{"cas_no": "3530-82-3", "cn_name": "5-\u82c4\u57fa-2,4-\u54aa\u5511\u5549\u4e8c\u916e", "en_name": ["5-(Phenylmethyl)-2,4-imidazolidinedione", "2,4-Imidazolidinedione, 5-(phenylmethyl)-", "Hydantoin, 5-benzyl-", "5-(Phenylmethyl)-2,4-imidazolidinedione", "5-Benzylhydantoin", "Benzylhydantoin", "DL-5-Benzylhydantoin", "NSC 30459", "NSC 50842"], "SMILES": "C(C1C(=O)NC(=O)N1)C2=CC=CC=C2", "physical_data": {"Molecular Weight": "190.20", "Molecular Formula": "C10H10N2O2", "Melting Point": "188-189 \u00b0C"}}