{"cas_no": "35302-70-6", "cn_name": "\u94f6\u677e\u7d20\u5355\u7532\u919a", "en_name": ["Pinosylvin monomethyl ether", "Phenol, 3-methoxy-5-[(1E)-2-phenylethenyl]-", "Phenol, 3-methoxy-5-(2-phenylethenyl)-, (E)-", "3-Methoxy-5-[(1E)-2-phenylethenyl]phenol", "Pinosylvin, methyl ether", "Pinosylvin monomethyl ether", "Pinosylvin 3-(methyl ether)", "(E)-3-Hydroxy-5-methoxystilbene"], "SMILES": "C(=CC1=CC=CC=C1)C2=CC(OC)=CC(O)=C2", "physical_data": {"Molecular Weight": "226.27", "Molecular Formula": "C15H14O2", "Melting Point": "120-121 \u00b0C"}}