{"cas_no": "35303-76-5", "cn_name": "4-(2-\u6c28\u4e59\u57fa)\u82ef\u78fa\u9170\u80fa", "en_name": ["4-(2-Aminoethyl)benzenesulfonamide", "Benzenesulfonamide, 4-(2-aminoethyl)-", "Benzenesulfonamide, p-(2-aminoethyl)-", "4-(2-Aminoethyl)benzenesulfonamide", "p-(\u03b2-Aminoethyl)benzenesulfonamide", "p-(2-Aminoethyl)benzenesulfonamide", "4-Sulfamoylphenethylamine", "2-[4-(Aminosulfonyl)phenyl]ethylamine", "4-(Aminosulfonyl)phenethylamine", "p-Aminoethyl-benzenesulfonamide", "4-(2-Aminoethyl)benzensulfonamide", "2-(4-Sulfamoylphenyl)ethylamine", "4-Aminoethylbenzenesulfonamide"], "SMILES": "S(N)(=O)(=O)C1=CC=C(CCN)C=C1", "physical_data": {"Molecular Weight": "200.26", "Molecular Formula": "C8H12N2O2S", "Melting Point": "145-147 \u00b0C"}}