{"cas_no": "3531-19-9", "cn_name": "2-\u6c2f-4,6-\u4e8c\u785d\u57fa\u82ef\u80fa", "en_name": ["6-Chloro-2,4-dinitroaniline", "Benzenamine, 2-chloro-4,6-dinitro-", "Aniline, 2-chloro-4,6-dinitro-", "2-Chloro-4,6-dinitrobenzenamine", "2-Chloro-4,6-dinitroaniline", "6-Chloro-2,4-dinitroaniline", "2,4-Dinitro-6-chloroaniline"], "SMILES": "N(=O)(=O)C1=CC(N(=O)=O)=CC(Cl)=C1N", "physical_data": {"Molecular Weight": "217.57", "Molecular Formula": "C6H4ClN3O4", "Melting Point": "157 \u00b0C"}}