{"cas_no": "35323-91-2", "cn_name": "(+)-\u8868\u513f\u8336\u7d20", "en_name": ["(+)-Epicatechin", "2H-1-Benzopyran-3,5,7-triol, 2-(3,4-dihydroxyphenyl)-3,4-dihydro-, (2S,3S)-", "2H-1-Benzopyran-3,5,7-triol, 2-(3,4-dihydroxyphenyl)-3,4-dihydro-, (2S-cis)-", "(2S,3S)-2-(3,4-Dihydroxyphenyl)-3,4-dihydro-2H-1-benzopyran-3,5,7-triol", "(+)-Epicatechol", "d-Epicatechin", "(+)-Epicatechin", "(2S,3S)-(+)-Epicatechin", "ent-Epicatechin", "Dexepicatechin"], "SMILES": "OC1C(OC=2C(C1)=C(O)C=C(O)C2)C3=CC(O)=C(O)C=C3", "physical_data": {"Molecular Weight": "290.27", "Molecular Formula": "C15H14O6", "Melting Point": "234-238 \u00b0C"}}