{"cas_no": "35349-68-9", "cn_name": "\u6c27\u6742\u84bd\u916e I", "en_name": ["Xanthone I", "2H,6H-Pyrano[3,2-b]xanthen-6-one, 5,9-dihydroxy-8-methoxy-2,2-dimethyl-7-(3-methyl-2-buten-1-yl)-", "2H,6H-Pyrano[3,2-b]xanthen-6-one, 5,9-dihydroxy-8-methoxy-2,2-dimethyl-7-(3-methyl-2-butenyl)-", "5,9-Dihydroxy-8-methoxy-2,2-dimethyl-7-(3-methyl-2-buten-1-yl)-2H,6H-pyrano[3,2-b]xanthen-6-one", "5,9-Dihydroxy-8-methoxy-2,2-dimethyl-7-(3-methylbut-2-enyl)-2H,6H-pyrano[3,2-b]xanthen-6-one", "Xanthone I", "1,6-Dihydroxy-7-methoxy-8-(3-methylbut-2-enyl)-6\u2032,6\u2032-dimethylpyrano(2\u2032,3\u2032:3,2)xanthone", "1,6-Dihydroxy-7-methoxy-13,13-dimethyl-8-(3-methyl-2-butenyl)-2H,6H-pyran[3,2-b]xanthen-9-one", "9-Hydroxycalabaxanthone", "6-Hydroxycalabaxanthone", "Mangostanin"], "SMILES": "C(C=C(C)C)C1=C2C(OC=3C(C2=O)=C(O)C4=C(C3)OC(C)(C)C=C4)=CC(O)=C1OC", "physical_data": {"Molecular Weight": "408.44", "Molecular Formula": "C24H24O6", "Melting Point": "155-157 \u00b0C"}}