{"cas_no": "3535-75-9", "cn_name": "4-\u6c28\u57fa\u5421\u5576\u6c27\u5316\u7269", "en_name": ["4-Aminopyridine 1-oxide", "4-Pyridinamine, 1-oxide", "Pyridine, 4-amino-, 1-oxide", "Phillips 1863", "4-Aminopyridine 1-oxide", "4-Aminopyridine N-oxide", "NSC 351983"], "SMILES": "NC=1C=CN(=O)=CC1", "physical_data": {"Molecular Weight": "110.11", "Molecular Formula": "C5H6N2O", "Melting Point": "229 \u00b0C"}}