{"cas_no": "3535-33-9", "cn_name": "4-\u5f02\u4e19\u6c27\u57fa-3-\u7532\u6c27\u57fa\u82ef\u7532\u9178", "en_name": ["3-Methoxy-4-(1-methylethoxy)benzoic acid", "Benzoic acid, 3-methoxy-4-(1-methylethoxy)-", "Benzoic acid, 4-isopropoxy-3-methoxy-", "3-Methoxy-4-(1-methylethoxy)benzoic acid", "Vanillic acid isopropyl ether", "4-Isopropoxy-3-methoxybenzoic acid", "3-Methoxy-4-propan-2-yloxybenzoic acid", "3-Methoxy-4-(propan-2-yloxy)benzoic acid"], "SMILES": "O(C(C)C)C1=C(OC)C=C(C(O)=O)C=C1", "physical_data": {"Molecular Weight": "210.23", "Molecular Formula": "C11H14O4", "Melting Point": "146-148 \u00b0C"}}