{"cas_no": "3535-30-6", "cn_name": "\u4e59\u6c27\u82ef\u8349\u80fa\u4ee3\u8c22\u7269", "en_name": ["4-Ethoxy-3-methoxybenzoic acid", "Benzoic acid, 4-ethoxy-3-methoxy-", "4-Ethoxy-3-methoxybenzoic acid", "Vanillic acid ethyl ether", "NSC 243739", "3-Methoxy-4-ethoxybenzoic acid"], "SMILES": "O(C)C1=C(OCC)C=CC(C(O)=O)=C1", "physical_data": {"Molecular Weight": "196.20", "Molecular Formula": "C10H12O4", "Melting Point": "195-196 \u00b0C"}}