{"cas_no": "35356-70-8", "cn_name": "2-\u4e59\u9170\u80fa\u57fa\u4e19\u70ef\u9178\u7532\u916f", "en_name": ["Methyl 2-acetamidoacrylate", "2-Propenoic acid, 2-(acetylamino)-, methyl ester", "Acrylic acid, 2-acetamido-, methyl ester", "Methyl \u03b1-acetamidoacrylate", "Methyl 2-(acetylamino)acrylate", "N-Acetyldehydroalanine methyl ester", "Methyl 2-acetylamino-2-propenoate", "N-(2-Methoxy-1-methylene-2-oxoethyl)acetamide", "N-(1-(Methoxycarbonyl)vinyl)acetamide", "2-(Acetylamino)-2-propenoic acid methyl ester", "Methyl 2-acetamidoacrylate", "NSC 156878", "2-Acetylaminoacrylic acid methyl ester", "Methyl 2-(acetamido)-2-propenoate"], "SMILES": "C(C(OC)=O)(NC(C)=O)=C", "physical_data": {"Molecular Weight": "143.14", "Molecular Formula": "C6H9NO3", "Boiling Point": "66-67 \u00b0C @ Press: 0.3 Torr", "Melting Point": "75-76 \u00b0C"}}