{"cas_no": "35354-74-6", "cn_name": "\u548c\u539a\u6734\u915a", "en_name": ["Honokiol", "[1,1\u2032-Biphenyl]-2,4\u2032-diol, 3\u2032,5-di-2-propen-1-yl-", "[1,1\u2032-Biphenyl]-2,4\u2032-diol, 3\u2032,5-di-2-propenyl-", "3\u2032,5-Di-2-propen-1-yl[1,1\u2032-biphenyl]-2,4\u2032-diol", "Honokiol", "3\u2032,5-Diallyl-2,4\u2032-biphenyldiol", "NSC 293100", "2-[4-Hydroxy-3-(2-propenyl)phenyl]-4-(2-propenyl)phenol", "2-Allyl-4-(5-allyl-2-hydroxyphenyl)phenol"], "SMILES": "OC=1C(=CC(CC=C)=CC1)C2=CC(CC=C)=C(O)C=C2", "physical_data": {"Molecular Weight": "266.33", "Molecular Formula": "C18H18O2", "Melting Point": "87.5 \u00b0C"}}