{"cas_no": "35351-21-4", "cn_name": "5-\u6eb4\u82ef\u5e76\u544b\u5583-2-\u7532\u9170\u80fa", "en_name": ["5-Bromo-2-benzofurancarboxamide", "2-Benzofurancarboxamide, 5-bromo-", "5-Bromo-2-benzofurancarboxamide", "5-Bromo-2-benzo[b]furancarboxamide", "5-Bromobenzofuran-2-carboxamide", "5-Bromobenzo[b]furan-2-carboxamide"], "SMILES": "C(N)(=O)C=1OC=2C(C1)=CC(Br)=CC2", "physical_data": {"Molecular Weight": "240.05", "Molecular Formula": "C9H6BrNO2", "Melting Point": "211-213 \u00b0C"}}