{"cas_no": "3535-37-3", "cn_name": "3,4-\u4e8c\u7532\u6c27\u57fa\u82ef\u7532\u9170\u6c2f", "en_name": ["3,4-Dimethoxybenzoyl chloride", "Benzoyl chloride, 3,4-dimethoxy-", "Veratroyl chloride", "3,4-Dimethoxybenzoyl chloride", "Veratric acid chloride", "3,4-Dimethoxybenzoic acid chloride", "3,4-Dimethoxy-1-benzenecarbonyl chloride", "3,4-Dimethoxyphenylcarbonyl chloride"], "SMILES": "O(C)C1=C(OC)C=CC(C(Cl)=O)=C1", "physical_data": {"Molecular Weight": "200.62", "Molecular Formula": "C9H9ClO3", "Boiling Point": "290 \u00b0C", "Melting Point": "68-69 \u00b0C"}}