{"cas_no": "35367-38-5", "cn_name": "\u9664\u866b\u8132", "en_name": ["Diflubenzuron", "Benzamide, N-[[(4-chlorophenyl)amino]carbonyl]-2,6-difluoro-", "N-[[(4-Chlorophenyl)amino]carbonyl]-2,6-difluorobenzamide", "PH 60-40", "OMS 1804", "TH 6040", "1-(4-Chlorophenyl)-3-(2,6-difluorobenzoyl)urea", "Thompson-Hayward 6040", "Difluron", "Dimilin", "Diflubenzuron", "Duphar PH 60-40", "AI 3-29054", "N-(2,6-Difluorobenzoyl)-N\u2032-(4-chlorophenyl)urea", "Larvakil", "Dimilin 25", "N-(p-Chlorophenyl)-N\u2032-(2,6-difluorobenzoyl)urea", "Micromite", "Micromite (Uniroyal)", "Minerin", "Suniao-one", "Rotadin", "Du-Dim", "Sniper", "Sniper (benzoylurea insecticide)", "Mosdop P", "Mosdop TB", "MeSH ID: D004132"], "SMILES": "C(NC(NC1=CC=C(Cl)C=C1)=O)(=O)C2=C(F)C=CC=C2F", "physical_data": {"Molecular Weight": "310.68", "Molecular Formula": "C14H9ClF2N2O2", "Melting Point": "239 \u00b0C"}}