{"cas_no": "35365-94-7", "cn_name": "\u4e09\u4e59\u80fa\u78f7\u9178\u76d0", "en_name": ["Triethylammonium dihydrogen phosphate", "Ethanamine, N,N-diethyl-, phosphate (1:1)", "Triethylamine phosphate (1:1)", "Phosphoric acid triethylamine salt", "Triethylammonium dihydrogen phosphate"], "SMILES": "N(CC)(CC)CC.P(=O)(O)(O)O", "physical_data": {"Molecular Weight": "", "Molecular Formula": "C6H15N.H3O4P", "Melting Point": "93 \u00b0C"}}