{"cas_no": "3537-14-2", "cn_name": "5-\u785d\u57fa\u5421\u5576-2,3-\u4e8c\u80fa", "en_name": ["5-Nitro-2,3-pyridinediamine", "2,3-Pyridinediamine, 5-nitro-", "Pyridine, 2,3-diamino-5-nitro-", "5-Nitro-2,3-pyridinediamine", "2,3-Diamino-5-nitropyridine", "NSC 107296", "5-Nitropyridine-2,3-diamine"], "SMILES": "N(=O)(=O)C=1C=C(N)C(N)=NC1", "physical_data": {"Molecular Weight": "154.13", "Molecular Formula": "C5H6N4O2", "Melting Point": "260 \u00b0C"}}