{"cas_no": "35386-24-4", "cn_name": "1-(2-\u7532\u6c27\u82ef\u57fa)\u54cc\u55ea", "en_name": ["1-(2-Methoxyphenyl)piperazine", "Piperazine, 1-(2-methoxyphenyl)-", "Piperazine, 1-(o-methoxyphenyl)-", "1-(2-Methoxyphenyl)piperazine", "N-(o-Methoxyphenyl)piperazine", "1-(o-Methoxyphenyl)piperazine", "N-(2-Methoxyphenyl)piperazine", "1-(o-Anisyl)piperazine", "o-Methoxyphenylpiperazine", "D 15157", "1-[2-(Methyloxy)phenyl]piperazine"], "SMILES": "O(C)C1=C(C=CC=C1)N2CCNCC2", "physical_data": {"Molecular Weight": "192.26", "Molecular Formula": "C11H16N2O", "Boiling Point": "130-133 \u00b0C", "Melting Point": "37-40 \u00b0C"}}