{"cas_no": "3538-65-6", "cn_name": "\u4e01\u9170\u80bc", "en_name": ["Butanoic acid hydrazide", "Butanoic acid, hydrazide", "Butyric acid, hydrazide", "Butanoic acid hydrazide", "Butyric hydrazide", "Butyrylhydrazine", "Butanoyl hydrazide", "Butanoic hydrazide", "NSC 24021", "NSC 41957"], "SMILES": "C(CCC)(NN)=O", "physical_data": {"Molecular Weight": "102.14", "Molecular Formula": "C4H10N2O", "Boiling Point": "138 \u00b0C", "Melting Point": "45.5 \u00b0C"}}