{"cas_no": "3538-68-9", "cn_name": "3-\u82ef\u57fa\u4e19\u9170\u80bc", "en_name": ["Benzenepropanoic acid, hydrazide", "Benzenepropanoic acid, hydrazide", "Hydrocinnamic acid, hydrazide", "3-Phenylpropionic acid hydrazide", "Hydrocinnamoyl hydrazide", "3-Phenylpropanoic acid hydrazide", "3-Phenylpropanoylhydrazine", "NSC 67600", "3-Phenylpropanehydrazide"], "SMILES": "C(CC(NN)=O)C1=CC=CC=C1", "physical_data": {"Molecular Weight": "164.20", "Molecular Formula": "C9H12N2O", "Melting Point": "48 \u00b0C"}}