{"cas_no": "3539-43-3", "cn_name": "\u9cb8\u8721\u57fa\u78f7\u9178-\u9cb8\u8721\u57fa\u78f7\u9178\u4e8c\u4e59\u9187\u80fa", "en_name": ["Hexadecyl phosphate", "1-Hexadecanol, 1-(dihydrogen phosphate)", "1-Hexadecanol, dihydrogen phosphate", "Hexadecyl phosphate", "Phosphoric acid monohexadecyl ester", "Cetyl dihydrogen phosphate", "Dihydrogen monohexadecyl phosphate", "Monohexadecyl phosphate", "Monocetyl phosphate", "Mono-n-hexadecyl phosphate", "Hexadecyl dihydrogen phosphate", "MAP 60H", "Monafax 160", "Monopalmityl phosphate", "Hostaphat CC 100"], "SMILES": "C(CCCCCCCCCCCCCC)COP(=O)(O)O", "physical_data": {"Molecular Weight": "322.42", "Molecular Formula": "C16H35O4P", "Melting Point": "71 \u00b0C"}}