{"cas_no": "354-33-6", "cn_name": "\u4e94\u6c1f\u4e59\u70f7", "en_name": ["Pentafluoroethane", "Ethane, 1,1,1,2,2-pentafluoro-", "Ethane, pentafluoro-", "1,1,1,2,2-Pentafluoroethane", "Pentafluoroethane", "R 125", "HFC 125", "1,1,2,2,2-Pentafluoroethane", "F 125", "FC 125", "Fron 125", "HCFC 125", "Ecolo Ace 125", "Khladon 125", "HFA 125", "Freon 125", "HFO 125"], "SMILES": "C(C(F)F)(F)(F)F", "physical_data": {"Molecular Weight": "120.02", "Molecular Formula": "C2HF5", "Boiling Point": "-48.5 \u00b0C", "Melting Point": "-103 \u00b0C"}}