{"cas_no": "354-24-5", "cn_name": "\u6c2f\u4e8c\u6c1f\u4e59\u9170\u6c2f", "en_name": ["2-Chloro-2,2-difluoroacetyl chloride", "Acetyl chloride, 2-chloro-2,2-difluoro-", "Acetyl chloride, chlorodifluoro-", "2-Chloro-2,2-difluoroacetyl chloride", "Chlorodifluoroacetyl chloride", "Difluorochloroacetyl chloride"], "SMILES": "C(C(Cl)=O)(Cl)(F)F", "physical_data": {"Molecular Weight": "148.92", "Molecular Formula": "C2Cl2F2O", "Boiling Point": "34 \u00b0C"}}