{"cas_no": "354-04-1", "cn_name": "1,2-\u4e8c\u6eb4-1,1,2-\u4e09\u6c1f\u4e59\u70f7", "en_name": ["1,2-Dibromo-1,1,2-trifluoroethane", "Ethane, 1,2-dibromo-1,1,2-trifluoro-", "1,2-Dibromo-1,1,2-trifluoroethane", "Halon 2302", "1,2-Dibromo-1,2,2-trifluoroethane"], "SMILES": "C(C(Br)F)(Br)(F)F", "physical_data": {"Molecular Weight": "241.83", "Molecular Formula": "C2HBr2F3", "Boiling Point": "76 \u00b0C", "Density": "2.274 g/cm\u00b3 @ Temp: 27.44 \u00b0C"}}