{"cas_no": "354-51-8", "cn_name": "1-\u6c2f-1,2-\u4e8c\u6eb4-1,2,2-\u4e09\u6c1f\u4e59\u70f7", "en_name": ["1,2-Dibromo-1-chloro-1,2,2-trifluoroethane", "Ethane, 1,2-dibromo-1-chloro-1,2,2-trifluoro-", "1,2-Dibromo-1-chloro-1,2,2-trifluoroethane", "Freon 113B2", "1,2-Dibromotrifluorochloroethane", "1,2-Dibromochlorotrifluoroethane", "1,2-Dibromo-2-chloro-1,1,2-trifluoroethane", "1,2-Dibromo-1-chlorotrifluoroethane", "2-Chloro-1,2-dibromo-1,1,2-trifluoroethane", "NSC 379421"], "SMILES": "C(C(Br)(F)F)(Br)(Cl)F", "physical_data": {"Molecular Weight": "276.28", "Molecular Formula": "C2Br2ClF3", "Boiling Point": "93 \u00b0C", "Melting Point": "50 \u00b0C", "Density": "2.2318 g/cm\u00b3 @ Temp: 20 \u00b0C"}}