{"cas_no": "354-58-5", "cn_name": "1,1,1-\u4e09\u6c2f\u4e09\u6c1f\u4e59\u70f7", "en_name": ["1,1,1-Trichloro-2,2,2-trifluoroethane", "Ethane, 1,1,1-trichloro-2,2,2-trifluoro-", "1,1,1-Trichloro-2,2,2-trifluoroethane", "Freon FT", "1,1,1-Trifluoro-2,2,2-trichloroethane", "1,1,1-Trichlorotrifluoroethane", "1,1,1-Trifluorotrichloroethane", "FC 113a", "F 113a", "CFC 113a", "R 113a", "Freon 113a"], "SMILES": "C(C(F)(F)F)(Cl)(Cl)Cl", "physical_data": {"Molecular Weight": "187.38", "Molecular Formula": "C2Cl3F3", "Boiling Point": "46.1 \u00b0C", "Melting Point": "14.2 \u00b0C", "Density": "1.5790 g/cm\u00b3 @ Temp: 20 \u00b0C"}}