{"cas_no": "354-25-6", "cn_name": "1-\u6c2f-1,1,2,2-\u56db\u6c1f\u4e59\u70f7", "en_name": ["1-Chloro-1,1,2,2-tetrafluoroethane", "Ethane, 1-chloro-1,1,2,2-tetrafluoro-", "1-Chloro-1,1,2,2-tetrafluoroethane", "R 124a", "HCFC 124a", "F 124a", "1,1,2,2-Tetrafluorochloroethane", "1,1,2,2-Tetrafluoro-1-chloroethane", "Monochlorotetrafluoroethane"], "SMILES": "C(C(F)F)(Cl)(F)F", "physical_data": {"Molecular Weight": "136.48", "Molecular Formula": "C2HClF4", "Boiling Point": "-10.2 \u00b0C", "Melting Point": "-117 \u00b0C", "Density": "1.299 g/cm\u00b3 @ Temp: 44.7 \u00b0C"}}