{"cas_no": "354-76-7", "cn_name": "\u4e94\u6c1f\u4e19\u80fa", "en_name": ["2,2,3,3,3-Pentafluoropropanamide", "Propanamide, 2,2,3,3,3-pentafluoro-", "Propionamide, 2,2,3,3,3-pentafluoro-", "2,2,3,3,3-Pentafluoropropanamide", "Pentafluoropropionamide", "2,2,3,3,3-Pentafluoropropionamide", "Pentafluoropropionylamide"], "SMILES": "C(C(F)(F)F)(C(N)=O)(F)F", "physical_data": {"Molecular Weight": "163.05", "Molecular Formula": "C3H2F5NO", "Melting Point": "95-96 \u00b0C"}}