{"cas_no": "354-23-4", "cn_name": "1,2-\u4e8c\u6c2f\u4e09\u6c1f\u4e59\u70f7", "en_name": ["1,2-Dichloro-1,1,2-trifluoroethane", "Ethane, 1,2-dichloro-1,1,2-trifluoro-", "1,2-Dichloro-1,1,2-trifluoroethane", "R 123a", "CFC 123a", "1,2-Dichloro-1,2,2-trifluoroethane", "HCFC 123a", "F 123a", "1,1,2-Trifluoro-1,2-dichloroethane", "1,2-Dichlorotrifluoroethane", "HFC-123a"], "SMILES": "C(C(Cl)F)(Cl)(F)F", "physical_data": {"Molecular Weight": "152.93", "Molecular Formula": "C2HCl2F3", "Boiling Point": "28 \u00b0C", "Melting Point": "-78 \u00b0C", "Density": "1.496 g/cm\u00b3 @ Temp: 10 \u00b0C"}}