{"cas_no": "354-08-5", "cn_name": "\u4e8c\u6c1f\u6eb4\u4e59\u9178", "en_name": ["2-Bromo-2,2-difluoroacetic acid", "Acetic acid, 2-bromo-2,2-difluoro-", "Acetic acid, bromodifluoro-", "2-Bromo-2,2-difluoroacetic acid", "Bromodifluoroacetic acid"], "SMILES": "C(C(O)=O)(Br)(F)F", "physical_data": {"Molecular Weight": "174.93", "Molecular Formula": "C2HBrF2O2", "Boiling Point": "155-160 \u00b0C", "Melting Point": "112-113 \u00b0C"}}