{"cas_no": "354-34-7", "cn_name": "\u4e09\u6c1f\u4e59\u9170\u6c1f", "en_name": ["Trifluoroacetyl fluoride", "Acetyl fluoride, 2,2,2-trifluoro-", "Acetyl fluoride, trifluoro-", "2,2,2-Trifluoroacetyl fluoride", "Perfluoroacetyl fluoride", "Trifluoroacetyl fluoride"], "SMILES": "C(C(F)=O)(F)(F)F", "physical_data": {"Molecular Weight": "116.01", "Molecular Formula": "C2F4O", "Boiling Point": "-59 \u00b0C"}}