{"cas_no": "354-21-2", "cn_name": "1,2,2-\u4e09\u6c2f-1,1-\u4e8c\u6c1f\u4e59\u70f7", "en_name": ["1,2,2-Trichloro-1,1-difluoroethane", "Ethane, 1,2,2-trichloro-1,1-difluoro-", "1,2,2-Trichloro-1,1-difluoroethane", "Frigen 122", "1,1-Difluoro-1,2,2-trichloroethane", "1,1,2-Trichloro-2,2-difluoroethane", "2,2-Difluoro-1,1,2-trichloroethane", "R 122", "Freon 122", "F 122", "HCFC 122", "FC 122", "F 122 (halocarbon)", "R 122 (halocarbon)", "Khladon 122"], "SMILES": "C(C(Cl)Cl)(Cl)(F)F", "physical_data": {"Molecular Weight": "169.39", "Molecular Formula": "C2HCl3F2", "Boiling Point": "71.9 \u00b0C", "Density": "1.5447 g/cm\u00b3 @ Temp: 25 \u00b0C"}}