{"cas_no": "354-28-9", "cn_name": "\u6c2f\u6c1f\u4e59\u9170\u80fa", "en_name": ["Chlorodifluoroacetamide", "Acetamide, 2-chloro-2,2-difluoro-", "2-Chloro-2,2-difluoroacetamide", "Chlorodifluoroacetamide", "NSC 9448"], "SMILES": "C(C(N)=O)(Cl)(F)F", "physical_data": {"Molecular Weight": "129.49", "Molecular Formula": "C2H2ClF2NO", "Boiling Point": "93 \u00b0C @ Press: 18 Torr", "Melting Point": "78.5 \u00b0C"}}