{"cas_no": "354-26-7", "cn_name": "1-\u6c2f-2-\u7898-1,1,2-\u4e09\u6c1f\u4e59\u70f7", "en_name": ["1-Chloro-1,1,2-trifluoro-2-iodoethane", "Ethane, 1-chloro-1,1,2-trifluoro-2-iodo-", "1-Chloro-1,1,2-trifluoro-2-iodoethane", "1-Iodo-2-chloro-1,2,2-trifluoroethane", "1-Chloro-2-iodo-1,1,2-trifluoroethane"], "SMILES": "C(C(F)I)(Cl)(F)F", "physical_data": {"Molecular Weight": "244.38", "Molecular Formula": "C2HClF3I", "Boiling Point": "77 \u00b0C @ Press: 630 Torr", "Density": "2.181 g/cm\u00b3 @ Temp: 20 \u00b0C"}}