{"cas_no": "354-69-8", "cn_name": "1,1,1,2,2-\u4e94\u6c1f-3-\u7898\u4e19\u70f7", "en_name": ["1,1,1,2,2-Pentafluoro-3-iodopropane", "Propane, 1,1,1,2,2-pentafluoro-3-iodo-", "1,1,1,2,2-Pentafluoro-3-iodopropane", "NSC 141151", "1-Iodo-2,2,3,3,3-pentafluoropropane"], "SMILES": "C(C(F)(F)F)(CI)(F)F", "physical_data": {"Molecular Weight": "259.94", "Molecular Formula": "C3H2F5I", "Boiling Point": "70.5 \u00b0C", "Density": "2.038 g/cm\u00b3 @ Temp: 25 \u00b0C"}}