{"cas_no": "354-65-4", "cn_name": "1,2-\u4e8c\u7898\u56db\u6c1f\u4ee3\u4e59\u70f7", "en_name": ["1,2-Diiodotetrafluoroethane", "Ethane, 1,1,2,2-tetrafluoro-1,2-diiodo-", "Ethane, tetrafluoro-1,2-diiodo-", "1,1,2,2-Tetrafluoro-1,2-diiodoethane", "1,2-Diiodotetrafluoroethane", "Tetrafluoro-1,2-diiodoethane", "1,2-Diiodo-1,1,2,2-tetrafluoroethane", "1,2-Diiodoperfluoroethane", "\u03b1,\u03c9-Diiodoperfluoroethane"], "SMILES": "C(C(F)(F)I)(F)(F)I", "physical_data": {"Molecular Weight": "353.82", "Molecular Formula": "C2F4I2", "Boiling Point": "112 \u00b0C", "Density": "2.6293 g/cm\u00b3 @ Temp: 25 \u00b0C"}}