{"cas_no": "354-06-3", "cn_name": "1-\u6eb42-\u6c2f-1,1,2-\u4e09\u6c1f\u4e59\u70f7", "en_name": ["1-Bromo-2-chloro-1,1,2-trifluoroethane", "Ethane, 1-bromo-2-chloro-1,1,2-trifluoro-", "1-Bromo-2-chloro-1,1,2-trifluoroethane", "1-Chloro-2-bromo-1,2,2-trifluoroethane", "1,1,2-Trifluoro-1-bromo-2-chloroethane", "Isohaloethane", "2-Bromo-1-chloro-1,2,2-trifluoroethane", "NSC 123315"], "SMILES": "C(C(Cl)F)(Br)(F)F", "physical_data": {"Molecular Weight": "197.38", "Molecular Formula": "C2HBrClF3", "Boiling Point": "52.5 \u00b0C", "Density": "1.8636 g/cm\u00b3 @ Temp: 25 \u00b0C"}}