{"cas_no": "354-64-3", "cn_name": "\u4e94\u6c1f\u7898\u4e59\u70f7", "en_name": ["1,1,1,2,2-Pentafluoro-2-iodoethane", "Ethane, 1,1,1,2,2-pentafluoro-2-iodo-", "Ethane, pentafluoroiodo-", "1,1,1,2,2-Pentafluoro-2-iodoethane", "Pentafluoroiodoethane", "Perfluoroethyl iodide", "Pentafluoroethyl iodide", "Pentafluoro-1-iodoethane", "1-Iodoperfluoroethane", "Iodopentafluoroethane", "Perfluoroiodoethane", "1-Iodo-1,1,2,2,2-pentafluoroethane", "R 115I1", "Iodoperfluoroethane", "1,1,2,2,2-Pentafluoroethyl iodide"], "SMILES": "C(C(F)(F)I)(F)(F)F", "physical_data": {"Molecular Weight": "245.92", "Molecular Formula": "C2F5I", "Boiling Point": "13 \u00b0C", "Density": "2.0850 g/cm\u00b3 @ Temp: 20 \u00b0C"}}