{"cas_no": "354-53-0", "cn_name": "1-\u6eb4-2-\u6c2f\u56db\u6c1f\u4e59\u70f7", "en_name": ["1-Bromo-2-chloro-1,1,2,2-tetrafluoroethane", "Ethane, 1-bromo-2-chloro-1,1,2,2-tetrafluoro-", "Ethane, 1-bromo-2-chlorotetrafluoro-", "1-Bromo-2-chloro-1,1,2,2-tetrafluoroethane", "1-Bromo-2-chlorotetrafluoroethane", "R 114B1", "F 114B1"], "SMILES": "C(C(Cl)(F)F)(Br)(F)F", "physical_data": {"Molecular Weight": "215.37", "Molecular Formula": "C2BrClF4", "Boiling Point": "82 \u00b0C @ Press: 195 Torr"}}