{"cas_no": "354-61-0", "cn_name": "1,2-\u4e8c\u6c2f-2-\u7898-1,1,2-\u4e09\u6c1f\u4e59\u70f7", "en_name": ["1,2-Dichloro-1,1,2-trifluoro-2-iodoethane", "Ethane, 1,2-dichloro-1,1,2-trifluoro-2-iodo-", "1,2-Dichloro-1,1,2-trifluoro-2-iodoethane", "1,2-Dichloro-1,2,2-trifluoro-1-iodoethane", "1,2-Dichloro-1-iodo-1,2,2-trifluoroethane", "1,2-Dichloro-2-iodo-1,1,2-trifluoroethane", "1,2-Dichloro-1-iodotrifluoroethane", "1-Iodo-1,2-dichloro-1,2,2-trifluoroethane"], "SMILES": "C(C(Cl)(F)I)(Cl)(F)F", "physical_data": {"Molecular Weight": "278.83", "Molecular Formula": "C2Cl2F3I", "Boiling Point": "99 \u00b0C", "Density": "2.1959 g/cm\u00b3 @ Temp: 25 \u00b0C"}}