{"cas_no": "354-32-5", "cn_name": "\u4e09\u6c1f\u4e59\u9170\u6c2f", "en_name": ["Trifluoroacetyl chloride", "Acetyl chloride, 2,2,2-trifluoro-", "Acetyl chloride, trifluoro-", "2,2,2-Trifluoroacetyl chloride", "Trifluoroacetyl chloride", "Perfluoroacetyl chloride"], "SMILES": "C(C(Cl)=O)(F)(F)F", "physical_data": {"Molecular Weight": "132.47", "Molecular Formula": "C2ClF3O", "Boiling Point": "-27 \u00b0C"}}