{"cas_no": "354-38-1", "cn_name": "\u4e09\u6c1f\u4e59\u9170\u80fa", "en_name": ["Trifluoroacetamide", "Acetamide, 2,2,2-trifluoro-", "2,2,2-Trifluoroacetamide", "Trifluoroacetamide", "NSC 9449"], "SMILES": "C(C(N)=O)(F)(F)F", "physical_data": {"Molecular Weight": "113.04", "Molecular Formula": "C2H2F3NO", "Boiling Point": "162.5 \u00b0C", "Melting Point": "72.5 \u00b0C"}}