{"cas_no": "35400-43-2", "cn_name": "\u786b\u4e19\u78f7", "en_name": ["Sulprofos", "Phosphorodithioic acid, O-ethyl O-[4-(methylthio)phenyl] S-propyl ester", "BAY-NTN 9306", "NTN 9306", "Bayer NTN 9306", "Bolstar", "Sulprofos", "Helothion", "O-Ethyl O-(4-methylthiophenyl) S-propyl dithiophosphate", "Merpafos", "Mercaprophos", "Mercaprofos", "Sulprophos"], "SMILES": "P(OC1=CC=C(SC)C=C1)(SCCC)(OCC)=S", "physical_data": {"Molecular Weight": "322.45", "Molecular Formula": "C12H19O2PS3", "Boiling Point": "155-158 \u00b0C @ Press: 0.1 Torr", "Melting Point": "-15 \u00b0C", "Density": "1.20 g/cm\u00b3 @ Temp: 20 \u00b0C"}}