{"cas_no": "3541-42-2", "cn_name": "2-\u7f9f\u57fa\u8089\u6842\u919b", "en_name": ["2-Hydroxycinnamaldehyde", "2-Propenal, 3-(2-hydroxyphenyl)-", "Cinnamaldehyde, o-hydroxy-", "3-(2-Hydroxyphenyl)-2-propenal", "o-Hydroxycinnamaldehyde", "2-Hydroxycinnamic aldehyde", "2-Hydroxycinnamaldehyde", "NSC 114588", "3-(2-Hydroxyphenyl)acrylaldehyde"], "SMILES": "C(=CC=O)C1=C(O)C=CC=C1", "physical_data": {"Molecular Weight": "148.16", "Molecular Formula": "C9H8O2", "Melting Point": "133 \u00b0C"}}