{"cas_no": "35418-16-7", "cn_name": "L-\u7126\u8c37\u6c28\u9178\u53d4\u4e01\u916f", "en_name": ["5-Oxo-L-proline 1,1-dimethylethyl ester", "L-Proline, 5-oxo-, 1,1-dimethylethyl ester", "5-Oxo-L-proline 1,1-dimethylethyl ester", "5-Oxo-L-proline tert-butyl ester", "tert-Butyl L-pyroglutamate", "tert-Butyl pyroglutamate", "(S)-5-Oxoproline tert-butyl ester", "tert-Butyl (S)-5-oxo-2-pyrrolidinecarboxylate", "tert-Butyl 5-oxo-L-prolinate", "(S)-tert-Butyl 5-oxopyrrolidine-2-carboxylate"], "SMILES": "C(OC(C)(C)C)(=O)C1CCC(=O)N1", "physical_data": {"Molecular Weight": "185.22", "Molecular Formula": "C9H15NO3", "Melting Point": "104-106 \u00b0C"}}