{"cas_no": "354153-64-3", "cn_name": "(R)-2-\u6c28\u57fa-2-(4-\u6eb4\u82ef\u57fa)\u4e59\u9187", "en_name": ["(\u03b2R)-\u03b2-Amino-4-bromobenzeneethanol", "Benzeneethanol, \u03b2-amino-4-bromo-, (\u03b2R)-", "(\u03b2R)-\u03b2-Amino-4-bromobenzeneethanol", "(2R)-2-Amino-2-(4-bromophenyl)ethan-1-ol", "(R)-2-(4-Bromophenyl)glycinol"], "SMILES": "C(CO)(N)C1=CC=C(Br)C=C1", "physical_data": {"Molecular Weight": "216.08", "Molecular Formula": "C8H10BrNO", "Melting Point": "70-73 \u00b0C"}}