{"cas_no": "3542-44-7", "cn_name": "3-\u7f9f\u57fa\u4e19\u70f7-1-\u78fa\u9178\u94a0", "en_name": ["Sodium 3-hydroxypropanesulfonate", "1-Propanesulfonic acid, 3-hydroxy-, sodium salt (1:1)", "1-Propanesulfonic acid, 3-hydroxy-, monosodium salt", "Sodium 3-hydroxypropanesulfonate", "Sodium 3-hydroxy-1-propanesulfonate", "Sodium 1-hydroxy-3-propanesulfonate", "Monosodium 3-hydroxypropylsulfonate", "3-Hydroxypropane-1-sulfonic acid sodium salt"], "SMILES": "C(S(=O)(=O)O)CCO.[Na]", "physical_data": {"Molecular Weight": "", "Molecular Formula": "C3H8O4S.Na", "Melting Point": "261 \u00b0C"}}