{"cas_no": "3542-36-7", "cn_name": "\u4e8c\u6b63\u8f9b\u57fa\u9521\u4e8c\u6c2f\u5316\u7269", "en_name": ["Dioctyltin dichloride", "Stannane, dichlorodioctyl-", "Dioctyltin dichloride", "Tin, dichlorodioctyl-", "Dichlorodioctylstannane", "Dichlorodioctyltin", "Dioctyldichlorotin", "Dioctylstannyl dichloride", "NSC 102574"], "SMILES": "[Sn](CCCCCCCC)(CCCCCCCC)(Cl)Cl", "physical_data": {"Molecular Weight": "416.06", "Molecular Formula": "C16H34Cl2Sn", "Boiling Point": "175 \u00b0C @ Press: 1 Torr", "Melting Point": "46-48 \u00b0C", "Density": "1.175 g/cm\u00b3"}}