{"cas_no": "3542-72-1", "cn_name": "\u8292\u679c\u82f7\u5143", "en_name": ["Norathyriol", "9H-Xanthen-9-one, 1,3,6,7-tetrahydroxy-", "Xanthen-9-one, 1,3,6,7-tetrahydroxy-", "1,3,6,7-Tetrahydroxy-9H-xanthen-9-one", "Mangiferitin", "1,3,6,7-Tetrahydroxyxanthone", "1,3,6,7-Tetrahydroxyxanthen-9-one", "Norathyriol", "1,4,6,7-Tetrahydroxyxanthone)"], "SMILES": "O=C1C=2C(OC=3C1=CC(O)=C(O)C3)=CC(O)=CC2O", "physical_data": {"Molecular Weight": "260.20", "Molecular Formula": "C13H8O6", "Melting Point": "320 \u00b0C"}}