{"cas_no": "3543-75-7", "cn_name": "\u76d0\u9178\u82ef\u8fbe\u83ab\u53f8\u6c40", "en_name": ["Bendamustine hydrochloride", "1H-Benzimidazole-2-butanoic acid, 5-[bis(2-chloroethyl)amino]-1-methyl-, hydrochloride (1:1)", "2-Benzimidazolebutyric acid, 5-[bis(2-chloroethyl)amino]-1-methyl-, monohydrochloride", "1H-Benzimidazole-2-butanoic acid, 5-[bis(2-chloroethyl)amino]-1-methyl-, monohydrochloride", "IMET 3393", "Cytostasan", "ZIMET 33/93", "Bendamustin hydrochloride", "Bendamustine hydrochloride", "Ribomustin", "SDX 105", "Treanda", "Bendit", "Purplz", "Bendeka"], "SMILES": "CN1C=2C(=CC(N(CCCl)CCCl)=CC2)N=C1CCCC(O)=O.Cl", "physical_data": {"Molecular Weight": "", "Molecular Formula": "C16H21Cl2N3O2.ClH", "Melting Point": "148-151 \u00b0C"}}