{"cas_no": "3543-73-5", "cn_name": "5-\u6c28\u57fa-1-\u7532\u57fa-1H-\u82ef\u5e76\u54aa\u5511-2-\u4e01\u9178\u4e59\u916f", "en_name": ["Ethyl 5-amino-1-methyl-1H-benzimidazole-2-butanoate", "1H-Benzimidazole-2-butanoic acid, 5-amino-1-methyl-, ethyl ester", "2-Benzimidazolebutyric acid, 5-amino-1-methyl-, ethyl ester", "Ethyl 5-amino-1-methyl-1H-benzimidazole-2-butanoate", "4-[5-Amino-1-methylbenzimidazol-2-yl]butanoic acid ethyl ester", "Ethyl 1-methyl-5-amino-1H-benzimidazole-2-butanoate"], "SMILES": "CN1C=2C(N=C1CCCC(OCC)=O)=CC(N)=CC2", "physical_data": {"Molecular Weight": "261.32", "Molecular Formula": "C14H19N3O2", "Melting Point": "130.5-132.0 \u00b0C"}}