{"cas_no": "3543-02-0", "cn_name": "\u5421\u5576-3,5-\u4e8c\u9187", "en_name": ["3,5-Pyridinediol", "3,5-Pyridinediol", "3,5-Dihydroxypyridine"], "SMILES": "OC=1C=C(O)C=NC1", "physical_data": {"Molecular Weight": "111.10", "Molecular Formula": "C5H5NO2", "Melting Point": "234-236 \u00b0C"}}