{"cas_no": "3544-24-9", "cn_name": "3-\u6c28\u57fa\u82ef\u7532\u9170\u80fa", "en_name": ["3-Aminobenzamide", "Benzamide, 3-amino-", "Benzamide, m-amino-", "3-Aminobenzamide", "m-Aminobenzamide", "SR 4294", "[3-(Aminocarbonyl)phenyl]amine", "NSC 36962", "3-Carboxamidoaniline", "WD 97-000835", "3-(Aminocarbonyl)aniline", "3-Carbamoylaniline", "INO 1001"], "SMILES": "C(N)(=O)C1=CC(N)=CC=C1", "physical_data": {"Molecular Weight": "136.15", "Molecular Formula": "C7H8N2O", "Melting Point": "115-116 \u00b0C"}}