{"cas_no": "3544-25-0", "cn_name": "\u5bf9\u6c28\u57fa\u82ef\u4e59\u8148", "en_name": ["4-Aminobenzeneacetonitrile", "Benzeneacetonitrile, 4-amino-", "Acetonitrile, (p-aminophenyl)-", "4-Aminobenzeneacetonitrile", "(p-Aminophenyl)acetonitrile", "(4-Aminophenyl)acetonitrile", "4-(Cyanomethyl)aniline", "p-Aminobenzyl cyanide", "4-Aminobenzyl cyanide", "[4-(Cyanomethyl)phenyl]amine", "4-Aminophenylacetic acid nitrile", "2-(4-Aminophenyl)acetonitrile"], "SMILES": "C(C#N)C1=CC=C(N)C=C1", "physical_data": {"Molecular Weight": "132.16", "Molecular Formula": "C8H8N2", "Boiling Point": "312 \u00b0C", "Melting Point": "46 \u00b0C"}}