{"cas_no": "35444-44-1", "cn_name": "3,\u7532\u57fa\u8102\u80aa\u9170\u6c2f", "en_name": ["Hexanoic acid, 6-chloro-6-oxo-, methyl ester", "Hexanoic acid, 6-chloro-6-oxo-, methyl ester", "Valeric acid, 5-(chloroformyl)-, methyl ester", "Methyl adipoyl chloride", "Methyl 6-chloro-6-oxohexanoate", "Adipic acid monomethyl ester chloride", "5-Carbomethoxypentanoyl chloride", "5-(Methoxycarbonyl)pentanoyl chloride", "Methyl 5-(chlorocarbonyl)pentanoate", "Adipic acid methyl ester chloride", "Adipic acid chloride methyl ester", "Methyl 5-(chloroformyl)pentanoate", "Adipoyl chloride monomethyl ester", "6-Chloro-6-oxohexanoic acid methyl ester", "5-Carbomethoxyvaleryl chloride", "5-Chlorocarbonylpentanoic acid methyl ester", "Monomethyl adipoyl chloride"], "SMILES": "C(CCCC(Cl)=O)C(OC)=O", "physical_data": {"Molecular Weight": "178.61", "Molecular Formula": "C7H11ClO3", "Boiling Point": "129-130 \u00b0C @ Press: 24 Torr", "Density": "1.145 g/cm\u00b3 @ Temp: 20 \u00b0C"}}