{"cas_no": "3544-94-3", "cn_name": "\u7425\u73c0\u9178\u6c2f\u9709\u7d20", "en_name": ["Chloramphenicol succinate", "Butanedioic acid, mono[(2R,3R)-2-[(dichloroacetyl)amino]-3-hydroxy-3-(4-nitrophenyl)propyl] ester", "Succinic acid, \u03b1-monoester with D-threo-(-)-2,2-dichloro-N-[\u03b2-hydroxy-\u03b1-(hydroxymethyl)-p-nitrophenethyl]acetamide", "Butanedioic acid, mono[2-[(dichloroacetyl)amino]-3-hydroxy-3-(4-nitrophenyl)propyl] ester, [R-(R*,R*)]-", "Succinic acid, ester with chloramphenicol", "Acetamide, 2,2-dichloro-N-[\u03b2-hydroxy-\u03b1-(hydroxymethyl)-p-nitrophenethyl]-, \u03b1-(hydrogen succinate), D-(-)-threo-", "Chloramphenicol hemisuccinate", "Chloramphenicol hydrogen succinate", "Chloramphenicol succinate", "Chloromycetin succinate", "Kemicetine succinate", "Levomycetin hemisuccinate", "Chloramphenicol acid succinate", "Chloramphenicol monosuccinate", "Levomycetin succinate", "Paraxin succinate", "Chronicin foam", "Chloramphenicol 3-monosuccinate"], "SMILES": "C(C(O)C1=CC=C(N(=O)=O)C=C1)(NC(C(Cl)Cl)=O)COC(CCC(O)=O)=O", "physical_data": {"Molecular Weight": "423.20", "Molecular Formula": "C15H16Cl2N2O8", "Melting Point": "127 \u00b0C"}}