{"cas_no": "35457-80-8", "cn_name": "\u9ea6\u8fea\u9709\u7d20", "en_name": ["Midecamycin A1", "Leucomycin V, 3,4B-dipropanoate", "Oxacyclohexadecane, leucomycin V deriv.", "Antibiotic SF 837", "SF 837", "Mydecamycin", "YL 704B1", "Midecamycin", "Medemycin", "Antibiotic YL 704B1", "Turimycin P3", "Antibiotic SF 837A1", "Midecamycin A1", "Platenomycin B1", "Medecamycin A1", "SF 837A1", "Medemycin A1", "Mydecamycin A1", "Espinomycin A", "Aboren", "Midecin", "Myoxam", "Normicina", "Rubimycin", "Momicine", "NSC 154011", "Macropen"], "SMILES": "O(C1C(OC)C(OC(CC)=O)CC(=O)OC(C)CC=CC=CC(O)C(C)CC1CC=O)C2C(O)C(N(C)C)C(OC3CC(C)(O)C(OC(CC)=O)C(C)O3)C(C)O2", "physical_data": {"Molecular Weight": "813.97", "Molecular Formula": "C41H67NO15", "Melting Point": "155-156 \u00b0C"}}