{"cas_no": "35454-39-8", "cn_name": "1-\u7532\u57fa-4-\u7fa7\u9178\u54aa\u5511 \u76d0\u9178\u76d0", "en_name": ["1H-Imidazole-4-acetic acid, 1-methyl-, hydrochloride (1:1)", "1H-Imidazole-4-acetic acid, 1-methyl-, hydrochloride (1:1)", "1H-Imidazole-4-acetic acid, 1-methyl-, monohydrochloride", "1-Methyl-4-imidazoleacetic acid hydrochloride", "2-(1-Methyl-1H-imidazol-4-yl)ethanoic acid hydrochloride", "2-(1-Methyl-1H-imidazol-4-yl)acetic acid hydrochloride"], "SMILES": "C(C(O)=O)C1=CN(C)C=N1.Cl", "physical_data": {"Molecular Weight": "", "Molecular Formula": "C6H8N2O2.ClH", "Melting Point": "204-206 \u00b0C"}}