{"cas_no": "35453-19-1", "cn_name": "5-\u6c28\u57fa-2,4,6-\u4e09\u7898\u95f4\u82ef\u4e8c\u7532\u9178", "en_name": ["5-Amino-2,4,6-triiodo-1,3-benzenedicarboxylic acid", "1,3-Benzenedicarboxylic acid, 5-amino-2,4,6-triiodo-", "Isophthalic acid, 5-amino-2,4,6-triiodo-", "5-Amino-2,4,6-triiodo-1,3-benzenedicarboxylic acid", "5-Amino-2,4,6-triiodoisophthalic acid", "2,4,6-Triiodo-5-aminoisophthalic acid"], "SMILES": "C(O)(=O)C1=C(I)C(C(O)=O)=C(I)C(N)=C1I", "physical_data": {"Molecular Weight": "558.84", "Molecular Formula": "C8H4I3NO4", "Melting Point": "278-280 \u00b0C (decomp)"}}