{"cas_no": "3546-03-0", "cn_name": "\u6c30\u7f8e\u9a6c\u55ea", "en_name": ["2-Cyano-10-(3-dimethylamino-2-methylpropyl)phenothiazine", "10H-Phenothiazine-2-carbonitrile, 10-[3-(dimethylamino)-2-methylpropyl]-", "Phenothiazine-2-carbonitrile, 10-[3-(dimethylamino)-2-methylpropyl]-", "10-[3-(Dimethylamino)-2-methylpropyl]-10H-phenothiazine-2-carbonitrile", "7204 RP", "10-[3-(Dimethylamino)-2-methylpropyl]phenothiazine-2-carbonitrile", "Cyamemazine", "Cyamepromazine", "2-Cyano-10-(3-dimethylamino-2-methylpropyl)phenothiazine", "R.P. 7204", "TH 2602", "Kyamepromazine", "Cianatil", "Cyamemazin", "F. I. 6229", "7204 R. E.", "Cyamepromezine", "Ciamatil", "Tercian"], "SMILES": "C(C(CN(C)C)C)N1C=2C(SC=3C1=CC=CC3)=CC=C(C#N)C2", "physical_data": {"Molecular Weight": "323.46", "Molecular Formula": "C19H21N3S", "Boiling Point": "205-220 \u00b0C @ Press: 0.2-0.5 Torr"}}