{"cas_no": "3546-41-6", "cn_name": "\u6251\u86f2\u7075", "en_name": ["Pyrvinium pamoate", "Quinolinium, 6-(dimethylamino)-2-[2-(2,5-dimethyl-1-phenyl-1H-pyrrol-3-yl)ethenyl]-1-methyl-, 4,4\u2032-methylenebis[3-hydroxy-2-naphthalenecarboxylate] (2:1)", "Quinolinium, 6-(dimethylamino)-2-[2-(2,5-dimethyl-1-phenyl-1H-pyrrol-3-yl)ethenyl]-1-methyl-, salt with 4,4\u2032-methylenebis[3-hydroxy-2-naphthalenecarboxylic acid] (2:1)", "Quinolinium, 6-(dimethylamino)-2-[2-(2,5-dimethyl-1-phenylpyrrol-3-yl)vinyl]-1-methyl-, salt with 4,4\u2032-methylenebis[3-hydroxy-2-naphthoic acid] (2:1)", "Bis[6-(dimethylamino)-2-[2-(2,5-dimethyl-1-phenylpyrrol-3-yl)vinyl]-1-methylquinolinium] 4,4\u2032-methylenebis[3-hydroxy-2-naphthoate]", "2-Naphthoic acid, 4,4\u2032-methylenebis[3-hydroxy-, ion(2-), bis[6-(dimethylamino)-2-[2-(2,5-dimethyl-1-phenylpyrrol-3-yl)vinyl]-1-methylquinolinium]", "2-Naphthalenecarboxylic acid, 4,4\u2032-methylenebis[3-hydroxy-, ion(2-), bis[6-(dimethylamino)-2-[2-(2,5-dimethyl-1-phenyl-1H-pyrrol-3-yl)ethenyl]-1-methylquinolinium]", "Povan", "Pyrvinium pamoate", "6-Dimethylamino-2-[2-(2,5-dimethyl-1-phenyl-3-pyrryl)vinyl]-1-methylquinolinium salt of 2,2\u2032-dihydroxy-1,1\u2032-dinaphthylmethane-3,3\u2032-dicarboxylic acid", "Pyrvinium embonate", "Viprynium embonate", "Alnoxin", "Molevac", "Neo-Oxypaat", "Pamovin", "Povanyl", "Tru", "Vanquin", "Pyrcon", "Altolat", "Tolapin", "Povanil", "Poquil", "Vermitibier", "NSC 223622"], "SMILES": "CC=1N(C(C)=CC1C=CC2=[N+](C)C3=C(C=C2)C=C(N(C)C)C=C3)C4=CC=CC=C4.C(C=1C2=C(C=C(C([O-])=O)C1O)C=CC=C2)C=3C4=C(C=C(C([O-])=O)C3O)C=CC=C4", "physical_data": {"Molecular Weight": "", "Molecular Formula": "C26H28N3.<sup>1</sup>/2C23H14O6", "Melting Point": "210-215 \u00b0C"}}