{"cas_no": "35461-99-5", "cn_name": "3-(\u544b\u5583-2-\u57fa)\u82ef\u7532\u9178", "en_name": ["3-(2-Furanyl)benzoic acid", "Benzoic acid, 3-(2-furanyl)-", "3-(2-Furanyl)benzoic acid", "m-2-Furylbenzoic acid", "3-(2-Furyl)benzoic acid"], "SMILES": "C(O)(=O)C=1C=C(C=CC1)C2=CC=CO2", "physical_data": {"Molecular Weight": "188.18", "Molecular Formula": "C11H8O3", "Melting Point": "138 \u00b0C"}}