{"cas_no": "35466-83-2", "cn_name": "\u70ef\u4e19\u57fa\u7532\u57fa\u78b3\u9178\u916f", "en_name": ["Methyl 2-propen-1-yl carbonate", "Carbonic acid, methyl 2-propen-1-yl ester", "Carbonic acid, methyl 2-propenyl ester", "Methyl 2-propen-1-yl carbonate", "Allyl methyl carbonate", "Methyl allyl carbonate", "Methyl 2-propenyl carbonate"], "SMILES": "C(OCC=C)(OC)=O", "physical_data": {"Molecular Weight": "116.12", "Molecular Formula": "C5H8O3", "Boiling Point": "38 \u00b0C @ Press: 18 Torr", "Density": "1.0261 g/cm\u00b3 @ Temp: 420 \u00b0C"}}