{"cas_no": "3547-33-9", "cn_name": "\u907f\u866b\u9187", "en_name": ["2-(Octylthio)ethanol", "Ethanol, 2-(octylthio)-", "2-(Octylthio)ethanol", "MGK Repellent 874", "2-Hydroxyethyl n-octyl sulfide", "MGK 874", "R 874", "2-Hydroxyethyl octyl sulfide", "NSC 163967", "2-(Octylsulfanyl)ethan-1-ol", "2-Octylsulfanyl-ethanol"], "SMILES": "C(CCSCCO)CCCCC", "physical_data": {"Molecular Weight": "190.35", "Molecular Formula": "C10H22OS", "Boiling Point": "98 \u00b0C", "Melting Point": "0 \u00b0C", "Density": "0.9285 g/cm\u00b3 @ Temp: 20 \u00b0C"}}