{"cas_no": "35472-56-1", "cn_name": "2-(\u7532\u57fa\u6c28\u57fa)\u82ef\u7532\u9178\u4e59\u916f", "en_name": ["Ethyl 2-(methylamino)benzoate", "Benzoic acid, 2-(methylamino)-, ethyl ester", "Anthranilic acid, N-methyl-, ethyl ester", "Ethyl 2-(methylamino)benzoate", "NSC 408328"], "SMILES": "C(OCC)(=O)C1=C(NC)C=CC=C1", "physical_data": {"Molecular Weight": "179.22", "Molecular Formula": "C10H13NO2", "Boiling Point": "153 \u00b0C @ Press: 32 Torr", "Melting Point": "32-33 \u00b0C"}}