{"cas_no": "35474-99-8", "cn_name": "\u7518\u6cb9\u82b1\u751f\u56db\u70ef\u9178\u916f", "en_name": ["1-Monoarachidin", "5,8,11,14-Eicosatetraenoic acid, 2,3-dihydroxypropyl ester, (5Z,8Z,11Z,14Z)-", "5,8,11,14-Eicosatetraenoic acid, 2,3-dihydroxypropyl ester, (all-Z)-", "1-Monoarachidin", "1-Monoarachidonoyl-rac-glycerol", "(all-Z)-(\u00b1)-2,3-Dihydroxypropyl 5,8,11,14-eicosatetraenoate", "1-Arachidonoylglycerol", "2,3-Dihydroxypropyl (5Z,8Z,11Z,14Z)-icosa-5,8,11,14-tetraenoate", "1-Arachidonylglycerol"], "SMILES": "C(CCC=CCC=CCC=CCC=CCCCCC)C(OCC(CO)O)=O", "physical_data": {"Molecular Weight": "378.55", "Molecular Formula": "C23H38O4", "Melting Point": "81.5 \u00b0C"}}