{"cas_no": "354812-41-2", "cn_name": "1-\u73af\u4e19\u57fa-7-(2,8-\u4e8c\u6c2e\u6742\u53cc\u73af[4.3.0]\u58ec\u70f7-8-\u57fa)-6-\u6c1f-8-\u7532\u6c27\u57fa-4-\u6c27\u4ee3\u55b9\u5549-3-\u7532\u9178", "en_name": ["1-Cyclopropyl-6-fluoro-1,4-dihydro-8-methoxy-7-(octahydro-6H-pyrrolo[3,4-b]pyridin-6-yl)-4-oxo-3-quinolinecarboxylic acid", "3-Quinolinecarboxylic acid, 1-cyclopropyl-6-fluoro-1,4-dihydro-8-methoxy-7-(octahydro-6H-pyrrolo[3,4-b]pyridin-6-yl)-4-oxo-", "1-Cyclopropyl-6-fluoro-1,4-dihydro-8-methoxy-7-(octahydro-6H-pyrrolo[3,4-b]pyridin-6-yl)-4-oxo-3-quinolinecarboxylic acid"], "SMILES": "O(C)C1=C2N(C=C(C(O)=O)C(=O)C2=CC(F)=C1N3CC4C(C3)NCCC4)C5CC5", "physical_data": {"Molecular Weight": "401.43", "Molecular Formula": "C21H24FN3O4", "Melting Point": "240-243 \u00b0C"}}