{"cas_no": "35486-42-1", "cn_name": "2-\u6c28\u57fa-3,5-\u4e8c\u6eb4\u5421\u5576", "en_name": ["2-Amino-3,5-dibromopyridine", "2-Pyridinamine, 3,5-dibromo-", "Pyridine, 2-amino-3,5-dibromo-", "3,5-Dibromo-2-pyridinamine", "3,5-Dibromo-2-aminopyridine", "2-Amino-3,5-dibromopyridine", "NSC 170846", "3-Bromo-5-bromo-6-aminopyridine", "3,5-Dibromo-pyridin-2-ylamine"], "SMILES": "BrC1=C(N)N=CC(Br)=C1", "physical_data": {"Molecular Weight": "251.91", "Molecular Formula": "C5H4Br2N2", "Melting Point": "105 \u00b0C"}}