{"cas_no": "35481-77-7", "cn_name": "\u9a6c\u6851\u5b81\u5185\u916f", "en_name": ["(2aS,3R,6S,6aR,6bS,7aR,7bR,7cS,8R)-Octahydro-6a,7b-dihydroxy-7c-methyl-8-(1-methylethenyl)-3,6-methano-2,4,7-trioxacyclopenta[cd]cycloprop[a]azulen-5(1H)-one", "3,6-Methano-2,4,7-trioxacyclopenta[cd]cycloprop[a]azulen-5(1H)-one, octahydro-6a,7b-dihydroxy-7c-methyl-8-(1-methylethenyl)-, (2aS,3R,6S,6aR,6bS,7aR,7bR,7cS,8R)-", "3,6-Methano-2,4,7-trioxacyclopenta[cd]cycloprop[a]azulen-5(1H)-one, octahydro-6a,7b-dihydroxy-7c-methyl-8-(1-methylethenyl)-, [2aS-(2a\u03b1,3\u03b1,6\u03b1,6a\u03b1,6b\u03b2,7a\u03b2,7b\u03b1,7c\u03b1,8S*)]-", "(2aS,3R,6S,6aR,6bS,7aR,7bR,7cS,8R)-Octahydro-6a,7b-dihydroxy-7c-methyl-8-(1-methylethenyl)-3,6-methano-2,4,7-trioxacyclopenta[cd]cycloprop[a]azulen-5(1H)-one", "Corianin"], "SMILES": "OC12C3(C)C(O)(C4C1O4)COC3C5C(C(C)=C)C2C(=O)O5", "physical_data": {"Molecular Weight": "294.30", "Molecular Formula": "C15H18O6", "Melting Point": "216-217 \u00b0C"}}