{"cas_no": "35480-52-5", "cn_name": "2,5-\u53cc(2,2,2-\u4e09\u6c1f\u4e59\u6c27\u57fa)\u82ef\u7532\u9178", "en_name": ["2,5-Bis(2,2,2-trifluoroethoxy)benzoic acid", "Benzoic acid, 2,5-bis(2,2,2-trifluoroethoxy)-", "2,5-Bis(2,2,2-trifluoroethoxy)benzoic acid"], "SMILES": "O(CC(F)(F)F)C1=C(C(O)=O)C=C(OCC(F)(F)F)C=C1", "physical_data": {"Molecular Weight": "318.17", "Molecular Formula": "C11H8F6O4", "Melting Point": "120-122 \u00b0C"}}