{"cas_no": "355-80-6", "cn_name": "2,2,3,3,4,4,5,5-\u516b\u6c1f-1-\u620a\u9187", "en_name": ["2,2,3,3,4,4,5,5-Octafluoro-1-pentanol", "1-Pentanol, 2,2,3,3,4,4,5,5-octafluoro-", "2,2,3,3,4,4,5,5-Octafluoro-1-pentanol", "1H,1H,5H-Octafluoro-1-pentanol", "2,2,3,3,4,4,5,5-Octafluoropentanol", "1,1,5-Trihydrooctafluoropentan-1-ol", "1,1,5-Trihydrooctafluoropentyl alcohol", "\u03b1,\u03b1,\u03c9-Trihydroperfluoropentanol", "1H,1H,5H-Octafluoro-n-pentanol", "NSC 114", "1,1,5-Trihydro-1-hydroxyperfluoropentane", "1,1,5-Trihydroperfluoropentanol", "1H,1H,5H-Perfluoropentanol", "1H,1H,5H-Perfluoro-1-pentanol", "1,1,5-Trihydroperfluoropentan-1-ol", "1,1,2,2,3,3,4,4-Octafluoropentan-5-ol"], "SMILES": "C(C(C(F)F)(F)F)(C(CO)(F)F)(F)F", "physical_data": {"Molecular Weight": "232.07", "Molecular Formula": "C5H4F8O", "Boiling Point": "140.5 \u00b0C", "Melting Point": "-65 \u00b0C", "Density": "1.667 g/cm\u00b3 @ Temp: 20 \u00b0C"}}