{"cas_no": "355-42-0", "cn_name": "\u5168\u6c1f\u5df1\u70f7", "en_name": ["Perfluorohexane", "Hexane, 1,1,1,2,2,3,3,4,4,5,5,6,6,6-tetradecafluoro-", "Hexane, tetradecafluoro-", "1,1,1,2,2,3,3,4,4,5,5,6,6,6-Tetradecafluorohexane", "Perfluorohexane", "Perfluoro-n-hexane", "Tetradecafluorohexane", "Flutec PP 1", "n-Tetradecafluorohexane", "PP 1", "Fluorinert FC 72", "FC 72", "Fluorinert PF 5060", "PF 5060", "Perflexane", "AF 0150", "Fluorinert FX 3250D", "PFC 51-14"], "SMILES": "C(C(C(C(F)(F)F)(F)F)(F)F)(C(C(F)(F)F)(F)F)(F)F", "physical_data": {"Molecular Weight": "338.04", "Molecular Formula": "C6F14", "Boiling Point": "56.6 \u00b0C", "Melting Point": "-87.1 \u00b0C", "Density": "1.68 g/cm\u00b3 @ Temp: 25 \u00b0C"}}