{"cas_no": "355-46-4", "cn_name": "\u5168\u6c1f\u5df1\u57fa\u78fa\u9178", "en_name": ["Perfluorohexanesulfonic acid", "1-Hexanesulfonic acid, 1,1,2,2,3,3,4,4,5,5,6,6,6-tridecafluoro-", "1-Hexanesulfonic acid, tridecafluoro-", "1,1,2,2,3,3,4,4,5,5,6,6,6-Tridecafluoro-1-hexanesulfonic acid", "Perfluorohexanesulfonic acid", "Tridecafluorohexanesulfonic acid", "1-Perfluorohexanesulfonic acid", "1,1,2,2,3,3,4,4,5,5,6,6,6-Tridecafluorohexane-1-sulfonic acid", "PFHxS", "Tridecafluorohexan-1-sulfonic acid", "Tridecafluorohexane-1-sulfonic acid"], "SMILES": "C(C(C(C(F)(F)F)(F)F)(F)F)(C(C(S(=O)(=O)O)(F)F)(F)F)(F)F", "physical_data": {"Molecular Weight": "400.11", "Molecular Formula": "C6HF13O3S", "Boiling Point": "238.5 \u00b0C"}}