{"cas_no": "355-38-4", "cn_name": "\u5341\u4e00\u6c1f\u5df1\u9170\u6c1f", "en_name": ["2,2,3,3,4,4,5,5,6,6,6-Undecafluorohexanoyl fluoride", "Hexanoyl fluoride, 2,2,3,3,4,4,5,5,6,6,6-undecafluoro-", "Hexanoyl fluoride, undecafluoro-", "2,2,3,3,4,4,5,5,6,6,6-Undecafluorohexanoyl fluoride", "Perfluorohexanoyl fluoride", "Undecafluorohexanoyl fluoride", "Perfluorohexanone"], "SMILES": "C(C(C(C(F)=O)(F)F)(F)F)(C(C(F)(F)F)(F)F)(F)F", "physical_data": {"Molecular Weight": "316.04", "Molecular Formula": "C6F12O", "Boiling Point": "60-65 \u00b0C"}}