{"cas_no": "355-68-0", "cn_name": "\u5168\u6c1f\u4ee3\u73af\u5df2\u70f7", "en_name": ["Perfluorocyclohexane", "Cyclohexane, 1,1,2,2,3,3,4,4,5,5,6,6-dodecafluoro-", "Cyclohexane, dodecafluoro-", "1,1,2,2,3,3,4,4,5,5,6,6-Dodecafluorocyclohexane", "Perfluorocyclohexane", "Dodecafluorocyclohexane", "FC-c 51-12c", "NSC 68382"], "SMILES": "FC1(F)C(F)(F)C(F)(F)C(F)(F)C(F)(F)C1(F)F", "physical_data": {"Molecular Weight": "300.05", "Molecular Formula": "C6F12", "Boiling Point": "50.6 \u00b0C", "Melting Point": "58.2 \u00b0C"}}