{"cas_no": "355-43-1", "cn_name": "\u5168\u6c1f\u5df1\u57fa\u7898\u70f7", "en_name": ["Perfluorohexyl iodide", "Hexane, 1,1,1,2,2,3,3,4,4,5,5,6,6-tridecafluoro-6-iodo-", "Hexane, tridecafluoro-1-iodo-", "1,1,1,2,2,3,3,4,4,5,5,6,6-Tridecafluoro-6-iodohexane", "Tridecafluoro-1-iodohexane", "Perfluorohexyl iodide", "1-Iodoperfluorohexane", "Perfluoro-1-iodohexane", "Tridecafluoro-6-iodohexane", "Tridecafluorohexyl iodide", "1-Iodotridecafluorohexane", "n-Perfluorohexyl iodide", "1-Iodo-1,1,2,2,3,3,4,4,5,5,6,6,6-tridecafluorohexane", "1,1,2,2,3,3,4,4,5,5,6,6,6-Tridecafluoro-1-iodohexane", "6-Iodoperfluorohexane", "1-Iodofluorohexane", "1,1,2,2,3,3,4,4,5,5,6,6,6-Tridecafluorohexyl iodide"], "SMILES": "C(C(C(C(F)(F)I)(F)F)(F)F)(C(C(F)(F)F)(F)F)(F)F", "physical_data": {"Molecular Weight": "445.95", "Molecular Formula": "C6F13I", "Boiling Point": "118 \u00b0C", "Melting Point": "-46 \u00b0C"}}