{"cas_no": "355-86-2", "cn_name": "\u78f7\u9178\u4e09(1H,1H,5H-\u516b\u6c1f\u4ee3\u6b63\u620a\u57fa)\u916f", "en_name": ["1-Pentanol, 2,2,3,3,4,4,5,5-octafluoro-, phosphate (3:1)", "1-Pentanol, 2,2,3,3,4,4,5,5-octafluoro-, phosphate (3:1)", "Tris(2,2,3,3,4,4,5,5-octafluoropentyl) phosphate", "Tris(1,1,5-Trihydroperfluoropentyl) phosphate"], "SMILES": "C(C(C(F)F)(F)F)(C(COP(OCC(C(C(C(F)F)(F)F)(F)F)(F)F)(OCC(C(C(C(F)F)(F)F)(F)F)(F)F)=O)(F)F)(F)F", "physical_data": {"Molecular Weight": "740.16", "Molecular Formula": "C15H9F24O4P", "Boiling Point": "295-302 \u00b0C", "Melting Point": "-45 \u00b0C", "Density": "1.7641 g/cm\u00b3 @ Temp: 20 \u00b0C"}}