{"cas_no": "355-25-9", "cn_name": "\u5168\u6c1f\u4e01\u70f7", "en_name": ["Perfluorobutane", "Butane, 1,1,1,2,2,3,3,4,4,4-decafluoro-", "Butane, decafluoro-", "1,1,1,2,2,3,3,4,4,4-Decafluorobutane", "Perfluorobutane", "Decafluorobutane", "FC 3110", "CEA 410", "Sonazoid", "NC 100100", "PF 5040", "Perflubutane", "AI 700", "PFC 31-10", "R 3110"], "SMILES": "C(C(C(F)(F)F)(F)F)(C(F)(F)F)(F)F", "physical_data": {"Molecular Weight": "238.03", "Molecular Formula": "C4F10", "Boiling Point": "-1.9 \u00b0C", "Melting Point": "-128.2 \u00b0C", "Density": "0.63 g/cm\u00b3"}}