{"cas_no": "355-02-2", "cn_name": "\u5168\u6c1f\u7532\u57fa\u73af\u5df1\u70f7", "en_name": ["Perfluoro(methylcyclohexane)", "Cyclohexane, 1,1,2,2,3,3,4,4,5,5,6-undecafluoro-6-(trifluoromethyl)-", "Cyclohexane, undecafluoro(trifluoromethyl)-", "1,1,2,2,3,3,4,4,5,5,6-Undecafluoro-6-(trifluoromethyl)cyclohexane", "Perfluoro(methylcyclohexane)", "Undecafluoro(trifluoromethyl)cyclohexane", "Flutec PP 2", "PP 2", "Flutec PC 2", "NSC 4779", "Khladon 350"], "SMILES": "C(F)(F)(F)C1(F)C(F)(F)C(F)(F)C(F)(F)C(F)(F)C1(F)F", "physical_data": {"Molecular Weight": "350.05", "Molecular Formula": "C7F14", "Boiling Point": "76.3 \u00b0C", "Melting Point": "-44.7 \u00b0C", "Density": "1.7994 g/cm\u00b3 @ Temp: 20 \u00b0C"}}