{"cas_no": "355-04-4", "cn_name": "2-\u4e09\u6c1f\u7532\u57fa-1,1,1,2,3,3,4,4,5,5,5-\u5341\u4e00\u6c1f\u4ee3\u620a\u70f7", "en_name": ["Perfluoro(2-methylpentane)", "Pentane, 1,1,1,2,2,3,3,4,5,5,5-undecafluoro-4-(trifluoromethyl)-", "Pentane, undecafluoro-2-(trifluoromethyl)-", "1,1,1,2,2,3,3,4,5,5,5-Undecafluoro-4-(trifluoromethyl)pentane", "Perfluoro(2-methylpentane)", "Tetradecafluoro-2-methylpentane", "Undecafluoro-2-(trifluoromethyl)pentane", "2-(Trifluoromethyl)perfluoropentane"], "SMILES": "C(C(C(C(F)(F)F)(F)F)(F)F)(C(F)(F)F)(C(F)(F)F)F", "physical_data": {"Molecular Weight": "338.04", "Molecular Formula": "C6F14", "Boiling Point": "57.6 \u00b0C", "Melting Point": "-119 \u00b0C", "Density": "1.7326 g/cm\u00b3 @ Temp: 20 \u00b0C"}}