{"cas_no": "355-49-7", "cn_name": "\u5168\u6c1f\u5341\u516d\u70f7", "en_name": ["1,1,1,2,2,3,3,4,4,5,5,6,6,7,7,8,8,9,9,10,10,11,11,12,12,13,13,14,14,15,15,16,16,16-Tetratriacontafluorohexadecane", "Hexadecane, 1,1,1,2,2,3,3,4,4,5,5,6,6,7,7,8,8,9,9,10,10,11,11,12,12,13,13,14,14,15,15,16,16,16-tetratriacontafluoro-", "Hexadecane, tetratriacontafluoro-", "1,1,1,2,2,3,3,4,4,5,5,6,6,7,7,8,8,9,9,10,10,11,11,12,12,13,13,14,14,15,15,16,16,16-Tetratriacontafluorohexadecane", "Perfluorohexadecane", "Perfluoro-n-hexadecane", "DTXSID40188997"], "SMILES": "C(C(C(C(C(C(C(C(C(F)(F)F)(F)F)(F)F)(F)F)(F)F)(F)F)(F)F)(F)F)(C(C(C(C(C(C(C(F)(F)F)(F)F)(F)F)(F)F)(F)F)(F)F)(F)F)(F)F", "physical_data": {"Molecular Weight": "838.12", "Molecular Formula": "C16F34", "Boiling Point": "238-240 \u00b0C", "Melting Point": "125-126 \u00b0C"}}