{"cas_no": "355-37-3", "cn_name": "1,1,1,2,2,3,3,4,4,5,5,6,6-\u5341\u4e09\u6c1f\u5df1\u70f7", "en_name": ["1H-Perfluorohexane", "Hexane, 1,1,1,2,2,3,3,4,4,5,5,6,6-tridecafluoro-", "1,1,1,2,2,3,3,4,4,5,5,6,6-Tridecafluorohexane", "1H-Perfluorohexane", "R 5213", "HFC 52-13p", "1-Hydrotridecafluorohexane", "AC 2000", "Asahiklin AC 2000"], "SMILES": "C(C(C(C(F)F)(F)F)(F)F)(C(C(F)(F)F)(F)F)(F)F", "physical_data": {"Molecular Weight": "320.05", "Molecular Formula": "C6HF13", "Boiling Point": "71-72 \u00b0C", "Density": "1.684 g/cm\u00b3 @ Temp: 25 \u00b0C"}}