{"cas_no": "355-17-9", "cn_name": "3,3,4,4,5,5,5-\u4e03\u6c1f\u620a-2-\u916e", "en_name": ["3,3,4,4,5,5,5-Heptafluoro-2-pentanone", "2-Pentanone, 3,3,4,4,5,5,5-heptafluoro-", "3,3,4,4,5,5,5-Heptafluoro-2-pentanone", "Heptafluoropropyl methyl ketone", "HFK 447mcc", "3,3,4,4,5,5,5-Heptafluoropentan-2-one"], "SMILES": "C(C(C(C)=O)(F)F)(C(F)(F)F)(F)F", "physical_data": {"Molecular Weight": "212.07", "Molecular Formula": "C5H3F7O", "Boiling Point": "63.5 \u00b0C @ Press: 740 Torr", "Density": "1.424 g/cm\u00b3 @ Temp: 20 \u00b0C"}}