{"cas_no": "355-74-8", "cn_name": "\u516b\u6c1f-1\uff0c6-\u5df1\u4e8c\u9187", "en_name": ["2,2,3,3,4,4,5,5-Octafluoro-1,6-hexanediol", "1,6-Hexanediol, 2,2,3,3,4,4,5,5-octafluoro-", "2,2,3,3,4,4,5,5-Octafluoro-1,6-hexanediol", "1,6-Dihydroxy-2,2,3,3,4,4,5,5-octafluorohexane", "2,2,3,3,4,4,5,5-Octafluorohexanediol", "A 7412", "C 6DI0L", "1H,1H,6H,6H-Perfluorohexane-1,6-diol"], "SMILES": "C(C(C(CO)(F)F)(F)F)(C(CO)(F)F)(F)F", "physical_data": {"Molecular Weight": "262.10", "Molecular Formula": "C6H6F8O2", "Boiling Point": "118-120 \u00b0C @ Press: 11 Torr", "Melting Point": "68 \u00b0C"}}