{"cas_no": "355-93-1", "cn_name": "\u7532\u57fa\u4e19\u70ef\u9178\u516b\u6c1f\u620a\u916f", "en_name": ["2,2,3,3,4,4,5,5-Octafluoropentyl methacrylate", "2-Propenoic acid, 2-methyl-, 2,2,3,3,4,4,5,5-octafluoropentyl ester", "Methacrylic acid, 2,2,3,3,4,4,5,5-octafluoropentyl ester", "2,2,3,3,4,4,5,5-Octafluoropentyl methacrylate", "\u03b1,\u03b1,\u03c9-Trihydroperfluoroamyl methacrylate", "1H,1H,5H-Octafluoropentyl methacrylate", "Viscoat 8FM", "2,2,3,3,4,4,5,5-Octafluoroamyl methacrylate", "1,1,5-Trihydroperfluoroamyl methacrylate", "1,1,5-Trihydrooctafluoroamyl methacrylate", "M 5410", "V 8FM", "1H,1H,5H-Perfluoropentyl methacrylate", "2,2,3,3,4,4,5,5-Octafluoropentyl 2-methylprop-2-enoate", "2,2,3,3,4,4,5,5-Octafluoro-1-pentyl methacrylate"], "SMILES": "C(C(COC(C(C)=C)=O)(F)F)(C(C(F)F)(F)F)(F)F", "physical_data": {"Molecular Weight": "300.15", "Molecular Formula": "C9H8F8O2", "Boiling Point": "87 \u00b0C @ Press: 40 Torr"}}