{"cas_no": "355-63-5", "cn_name": "\u5341\u56db\u6c1f-1-\u5e9a\u70ef", "en_name": ["1,1,2,3,3,4,4,5,5,6,6,7,7,7-Tetradecafluoro-1-heptene", "1-Heptene, 1,1,2,3,3,4,4,5,5,6,6,7,7,7-tetradecafluoro-", "1-Heptene, tetradecafluoro-", "1,1,2,3,3,4,4,5,5,6,6,7,7,7-Tetradecafluoro-1-heptene", "Tetradecafluoro-1-heptene", "Perfluoro-1-heptene"], "SMILES": "C(C(C(C(=C(F)F)F)(F)F)(F)F)(C(C(F)(F)F)(F)F)(F)F", "physical_data": {"Molecular Weight": "350.05", "Molecular Formula": "C7F14", "Boiling Point": "81 \u00b0C"}}