{"cas_no": "355-20-4", "cn_name": "2,3-\u4e8c\u6c2f\u516b\u6c1f\u4e01\u70f7", "en_name": ["2,3-Dichloro-1,1,1,2,3,4,4,4-octafluorobutane", "Butane, 2,3-dichloro-1,1,1,2,3,4,4,4-octafluoro-", "Butane, 2,3-dichlorooctafluoro-", "2,3-Dichloro-1,1,1,2,3,4,4,4-octafluorobutane", "2,3-Dichlorooctafluorobutane", "1,1,1,2,3,4,4,4-Octafluoro-2,3-dichlorobutane", "2,3-Dichloroperfluorobutane", "NSC 76604"], "SMILES": "C(C(C(F)(F)F)(Cl)F)(C(F)(F)F)(Cl)F", "physical_data": {"Molecular Weight": "270.94", "Molecular Formula": "C4Cl2F8", "Boiling Point": "63 \u00b0C", "Melting Point": "-68 \u00b0C", "Density": "1.6801 g/cm\u00b3 @ Temp: 20 \u00b0C"}}