{"cas_no": "35511-14-9", "cn_name": "4-\u7f9f\u57fa-2H-1,2-\u82ef\u5e76\u567b\u55ea-3-\u7fa7\u9178\u7532\u916f 1,1-\u4e8c\u6c27\u5316\u7269", "en_name": ["2H-1,2-Benzothiazine-3-carboxylic acid, 4-hydroxy-, methyl ester, 1,1-dioxide", "2H-1,2-Benzothiazine-3-carboxylic acid, 4-hydroxy-, methyl ester, 1,1-dioxide", "4-Hydroxy-2H-1,2-benzothiazine-3-carboxylic acid methyl ester 1,1-dioxide", "Methyl 4-hydroxy-2H-1,2-benzothiazine-3-carboxylate 1,1-dioxide"], "SMILES": "O=S1(=O)C=2C(C(O)=C(C(OC)=O)N1)=CC=CC2", "physical_data": {"Molecular Weight": "255.25", "Molecular Formula": "C10H9NO5S", "Melting Point": "173 \u00b0C"}}