{"cas_no": "35511-15-0", "cn_name": "4-\u7f9f\u57fa-2-\u7532\u57fa-2H-1,2-\u82ef\u5e76\u567b\u55ea-3-\u7fa7\u9178\u7532\u916f-1,1-\u4e8c\u6c27\u5316\u7269", "en_name": ["2H-1,2-Benzothiazine-3-carboxylic acid, 4-hydroxy-2-methyl-, methyl ester, 1,1-dioxide", "2H-1,2-Benzothiazine-3-carboxylic acid, 4-hydroxy-2-methyl-, methyl ester, 1,1-dioxide", "2-Methyl-4-hydroxy-2H-1,2-benzothiazine-3-carboxylic acid methyl ester 1,1-dioxide", "4-Hydroxy-2-methyl-2H-1,2-benzothiazine-3-carboxylic acid methyl ester 1,1-dioxide", "Methyl 4-hydroxy-2-methyl-2H-1,2-benzothiazine-3-carboxylate 1,1-dioxide"], "SMILES": "OC=1C=2C(S(=O)(=O)N(C)C1C(OC)=O)=CC=CC2", "physical_data": {"Molecular Weight": "269.27", "Molecular Formula": "C11H11NO5S", "Melting Point": "165 \u00b0C"}}