{"cas_no": "35541-81-2", "cn_name": "1,4-\u73af\u5df1\u70f7\u4e8c\u7532\u9187\u4e8c\u82ef\u7532\u9178\u916f", "en_name": ["Benzoflex 352", "1,4-Cyclohexanedimethanol, 1,4-dibenzoate", "1,4-Cyclohexanedimethanol, dibenzoate", "1,4-Bis(benzoyloxymethyl)cyclohexane", "Benzoflex 352"], "SMILES": "C(OCC1CCC(COC(=O)C2=CC=CC=C2)CC1)(=O)C3=CC=CC=C3", "physical_data": {"Molecular Weight": "352.42", "Molecular Formula": "C22H24O4", "Melting Point": "125 \u00b0C"}}