{"cas_no": "35543-24-9", "cn_name": "\u76d0\u9178\u4e01\u54af\u5730\u5c14", "en_name": ["Buflomedil hydrochloride", "1-Butanone, 4-(1-pyrrolidinyl)-1-(2,4,6-trimethoxyphenyl)-, hydrochloride (1:1)", "1-Butanone, 4-(1-pyrrolidinyl)-1-(2,4,6-trimethoxyphenyl)-, hydrochloride", "LL 1656", "Buflomedil hydrochloride", "Irrodan R", "Fonzylane", "Buflocit", "Lofton", "Buflan", "Provas", "Loftyl", "Bufedil", "Irrodan", "Buflonat", "1-[3-(2,4,6-Trimethoxybenzoyl)Propyl]PyrrolidiniumChloride"], "SMILES": "C(CCCN1CCCC1)(=O)C2=C(OC)C=C(OC)C=C2OC.Cl", "physical_data": {"Molecular Weight": "", "Molecular Formula": "C17H25NO4.ClH", "Melting Point": "192-193 \u00b0C"}}