{"cas_no": "35543-25-0", "cn_name": "1-\u5421\u54af\u70f7\u57fa\u4e01\u8148", "en_name": ["1-Pyrrolidinebutanenitrile", "1-Pyrrolidinebutanenitrile", "1-Pyrrolidinebutyronitrile", "4-Pyrrolidinobutyronitrile", "4-(1-Pyrrolidinyl)butyronitrile", "4-(Pyrrolidin-1-yl)butanenitrile"], "SMILES": "C(CCC#N)N1CCCC1", "physical_data": {"Molecular Weight": "138.21", "Molecular Formula": "C8H14N2", "Boiling Point": "115 \u00b0C @ Press: 18 Torr"}}