{"cas_no": "3554-74-3", "cn_name": "3-\u7f9f\u57fa-N-\u7532\u57fa\u54cc\u5576", "en_name": ["3-Hydroxy-1-methylpiperidine", "3-Piperidinol, 1-methyl-", "1-Methyl-3-piperidinol", "N-Methyl-3-hydroxypiperidine", "N-Methyl-3-piperidinol", "3-Hydroxy-1-methylpiperidine", "1-Methyl-3-hydroxypiperidine", "3-Hydroxy-N-methylpiperidine", "(\u00b1)-1-Methyl-3-piperidinol", "(\u00b1)-3-Hydroxy-1-methylpiperidine", "rac-3-Hydroxy-1-methylpiperidine", "NSC 68348"], "SMILES": "OC1CN(C)CCC1", "physical_data": {"Molecular Weight": "115.17", "Molecular Formula": "C6H13NO", "Boiling Point": "79 \u00b0C @ Press: 16 Torr", "Density": "0.9635 g/cm\u00b3 @ Temp: 16 \u00b0C"}}