{"cas_no": "3554-65-2", "cn_name": "1-\u7532\u57fa-2-\u5421\u54af\u70f7\u7532\u9187", "en_name": ["1-Methyl-2-pyrrolidinemethanol", "2-Pyrrolidinemethanol, 1-methyl-", "1-Methyl-2-pyrrolidinemethanol", "2-(Hydroxymethyl)-1-methylpyrrolidine", "(\u00b1)-1-Methyl-2-pyrrolidinemethanol", "N-Methylpyrrolidine-2-methanol", "(1-Methylpyrrolidin-2-yl)methanol", "NSC 45497", "N-Methylprolinol"], "SMILES": "C(O)C1N(C)CCC1", "physical_data": {"Molecular Weight": "115.17", "Molecular Formula": "C6H13NO", "Boiling Point": "67-68 \u00b0C @ Press: 12 Torr"}}