{"cas_no": "3555-47-3", "cn_name": "\u56db(\u4e09\u7532\u57fa\u7845\u6c27\u57fa)\u7845\u70f7", "en_name": ["Tetrakis(trimethylsiloxy)silane", "Trisiloxane, 1,1,1,5,5,5-hexamethyl-3,3-bis[(trimethylsilyl)oxy]-", "Trisiloxane, 1,1,1,5,5,5-hexamethyl-3,3-bis(trimethylsiloxy)-", "Silicic acid, tetrakis(trimethylsilyl) ester", "1,1,1,5,5,5-Hexamethyl-3,3-bis[(trimethylsilyl)oxy]trisiloxane", "Silanol, trimethyl-, tetraester with silicic acid (H4SiO4)", "Silicic acid (H4SiO4), tetrakis(trimethylsilyl) ester", "Tetrakis(trimethylsiloxy)silane", "Tetrakis(trimethylsilyl) silicate"], "SMILES": "[Si](O[Si](C)(C)C)(O[Si](C)(C)C)(O[Si](C)(C)C)O[Si](C)(C)C", "physical_data": {"Molecular Weight": "384.84", "Molecular Formula": "C12H36O4Si5", "Boiling Point": "103-106 \u00b0C @ Press: 2 Torr", "Melting Point": "-60 \u00b0C", "Density": "0.868 g/cm\u00b3"}}