{"cas_no": "35554-44-0", "cn_name": "\u6291\u9709\u5511", "en_name": ["Imazalil", "1H-Imidazole, 1-[2-(2,4-dichlorophenyl)-2-(2-propen-1-yloxy)ethyl]-", "1H-Imidazole, 1-[2-(2,4-dichlorophenyl)-2-(2-propenyloxy)ethyl]-", "1-[2-(2,4-Dichlorophenyl)-2-(2-propen-1-yloxy)ethyl]-1H-imidazole", "Imazalil", "R 23979", "Fungaflor", "Enilconazole", "Florasan", "Fungazil", "CGA 41333", "Deccozil S 75", "NuZone", "FloPro IMZ", "1-[2-(2,4-Dichlorophenyl)-2-(2-propenyloxy)ethyl]-1H-imidazole", "(\u00b1)-Imazalil", "Clinafarm", "Deccosil", "Deccozil", "Bromazil", "Imaverol", "Amolden MP 100", "Magnate", "(R,S)-1-[2-(2,4-Dichlorophenyl)-2-(2-propenyloxy)ethyl]-1H-imidazole", "Freshgard", "(RS)-1-[2-(Allyloxy)-2-(2,4-dichlorophenyl)ethyl]-1H-imidazole", "1-[2-(Allyloxy)-2-(2,4-dichlorophenyl)ethyl]-1H-imidazole"], "SMILES": "C(CN1C=CN=C1)(OCC=C)C2=C(Cl)C=C(Cl)C=C2", "physical_data": {"Molecular Weight": "297.18", "Molecular Formula": "C14H14Cl2N2O", "Boiling Point": "347 \u00b0C", "Melting Point": "52.7 \u00b0C", "Density": "1.348 g/cm\u00b3 @ Temp: 26 \u00b0C"}}