{"cas_no": "35553-92-5", "cn_name": "3-\u7532\u6c27\u57fa\u82ef\u57fa\u4e59\u9178\u4e59\u916f", "en_name": ["Ethyl 3-methoxybenzeneacetate", "Benzeneacetic acid, 3-methoxy-, ethyl ester", "Acetic acid, (m-methoxyphenyl)-, ethyl ester", "Ethyl 3-methoxybenzeneacetate", "Ethyl m-methoxyphenylacetate", "Ethyl 3-methoxyphenylacetate", "m-Methoxyphenylacetic acid ethyl ester", "(3-Methoxyphenyl)acetic acid ethyl ester", "Ethyl 2-(3-methoxyphenyl)acetate"], "SMILES": "C(C(OCC)=O)C1=CC(OC)=CC=C1", "physical_data": {"Molecular Weight": "194.23", "Molecular Formula": "C11H14O3", "Boiling Point": "90 \u00b0C @ Press: 0.0127 Torr", "Melting Point": "125-126 \u00b0C"}}