{"cas_no": "3556-60-3", "cn_name": "3-\u7532\u6c27\u57fa-4-\u7532\u57fa\u82ef\u8148", "en_name": ["3-Methoxy-4-methylbenzonitrile", "Benzonitrile, 3-methoxy-4-methyl-", "m-Anisonitrile, 4-methyl-", "3-Methoxy-4-methylbenzonitrile", "3-Methoxy-4-methylcyanobenzene", "4-Methyl-3-methoxybenzonitrile"], "SMILES": "O(C)C1=CC(C#N)=CC=C1C", "physical_data": {"Molecular Weight": "147.17", "Molecular Formula": "C9H9NO", "Melting Point": "51-52.5 \u00b0C"}}