{"cas_no": "3556-83-0", "cn_name": "3-\u7532\u6c27\u57fa-4-\u7532\u57fa\u82ef\u7532\u9178\u7532\u916f", "en_name": ["Benzoic acid, 3-methoxy-4-methyl-, methyl ester", "Benzoic acid, 3-methoxy-4-methyl-, methyl ester", "m-Anisic acid, 4-methyl-, methyl ester", "Methyl 3-methoxy-4-methylbenzoate", "3-Methoxy-4-methylbenzoic acid methyl ester", "Methyl 4-methyl-3-(methyloxy)benzoate"], "SMILES": "C(OC)(=O)C1=CC(OC)=C(C)C=C1", "physical_data": {"Molecular Weight": "180.20", "Molecular Formula": "C10H12O3", "Boiling Point": "138-142 \u00b0C @ Press: 20 Torr", "Melting Point": "46-48 \u00b0C"}}