{"cas_no": "3556-56-7", "cn_name": "N-\u82c4\u6c27\u7fb0\u57fa-L-\u916a\u6c28\u9178\u5bf9\u785d\u57fa\u82ef\u916f", "en_name": ["N-[(Phenylmethoxy)carbonyl]-L-tyrosine 4-nitrophenyl ester", "L-Tyrosine, N-[(phenylmethoxy)carbonyl]-, 4-nitrophenyl ester", "Tyrosine, N-carboxy-, N-benzyl p-nitrophenyl ester, L-", "N-[(Phenylmethoxy)carbonyl]-L-tyrosine 4-nitrophenyl ester", "N-(Benzyloxycarbonyl)-L-tyrosine p-nitrophenyl ester", "N-\u03b1-Carbobenzoxy-L-tyrosine p-nitrophenyl ester", "N-Carbobenzoxy-L-tyrosine p-nitrophenyl ester", "\u03b1-N-Benzyloxycarbonyl-L-tyrosine p-nitrophenyl ester", "p-Nitrophenyl N-benzyloxycarbonyl-L-tyrosine", "NSC 88489"], "SMILES": "C(CC1=CC=C(O)C=C1)(C(OC2=CC=C(N(=O)=O)C=C2)=O)NC(OCC3=CC=CC=C3)=O", "physical_data": {"Molecular Weight": "436.41", "Molecular Formula": "C23H20N2O7", "Melting Point": "155-156 \u00b0C"}}