{"cas_no": "35573-93-4", "cn_name": "3-\u6c2f\u4e19\u919b\u4e8c\u4e59\u9187\u7f29\u919b", "en_name": ["3-Chloro-1,1-diethoxypropane", "Propane, 3-chloro-1,1-diethoxy-", "Propionaldehyde, 3-chloro-, diethyl acetal", "3-Chloro-1,1-diethoxypropane", "3-Chloropropionaldehyde diethyl acetal", "\u03b2-Chloropropanal diethyl acetal", "3-Chloropropanal diethyl acetal", "\u03b2-Chloropropionaldehyde diethyl acetal", "1-Chloro-3,3-diethoxypropane", "3,3-Diethoxypropyl chloride", "NSC 60136", "3-Chloroprionaldehyde diethyl acetal"], "SMILES": "C(CCCl)(OCC)OCC", "physical_data": {"Molecular Weight": "166.65", "Molecular Formula": "C7H15ClO2", "Boiling Point": "74 \u00b0C @ Press: 20 Torr", "Density": "0.991 g/cm\u00b3 @ Temp: 20 \u00b0C"}}