{"cas_no": "35575-96-3", "cn_name": "\u5511\u5576\u78f7", "en_name": ["Azamethiphos", "Phosphorothioic acid, S-[(6-chloro-2-oxooxazolo[4,5-b]pyridin-3(2H)-yl)methyl] O,O-dimethyl ester", "Oxazolo[4,5-b]pyridine, phosphorothioic acid deriv.", "Azamethiphos", "Ciba-Geigy 18809", "CGA 18809", "Snip", "Azametiphos", "Salmosan"], "SMILES": "C(SP(OC)(OC)=O)N1C=2C(OC1=O)=CC(Cl)=CN2", "physical_data": {"Molecular Weight": "324.68", "Molecular Formula": "C9H10ClN2O5PS", "Melting Point": "89 \u00b0C"}}