{"cas_no": "35572-78-2", "cn_name": "2-\u6c28\u57fa-4,6-\u4e8c\u785d\u57fa\u7532\u82ef", "en_name": ["2-Amino-4,6-dinitrotoluene", "Benzenamine, 2-methyl-3,5-dinitro-", "o-Toluidine, 3,5-dinitro-", "2-Methyl-3,5-dinitrobenzenamine", "2-Amino-4,6-dinitrotoluene", "2-Methyl-3,5-dinitroaniline", "2,4-Dinitro-6-aminotoluene", "3,5-Dinitro-o-toluidine", "1-Amino-2-methyl-3,5-dinitrobenzene", "2-ADNT", "2-Methyl-3,5-dinitro-phenylamine"], "SMILES": "N(=O)(=O)C1=CC(N(=O)=O)=CC(N)=C1C", "physical_data": {"Molecular Weight": "197.15", "Molecular Formula": "C7H7N3O4", "Melting Point": "135 \u00b0C"}}