{"cas_no": "35578-47-3", "cn_name": "4,4'-\u4e8c\u6eb4\u8054\u82ef\u9170", "en_name": ["4,4\u2032-Dibromobenzil", "1,2-Ethanedione, 1,2-bis(4-bromophenyl)-", "Ethanedione, bis(4-bromophenyl)-", "Benzil, 4,4\u2032-dibromo-", "1,2-Bis(4-bromophenyl)-1,2-ethanedione", "p,p\u2032-Dibromobenzil", "4,4\u2032-Dibromobenzil", "NSC 74075", "Bis(4-bromophenyl)ethanedione", "1,2-Bis(4-bromophenyl)ethandione"], "SMILES": "C(C(=O)C1=CC=C(Br)C=C1)(=O)C2=CC=C(Br)C=C2", "physical_data": {"Molecular Weight": "368.02", "Molecular Formula": "C14H8Br2O2", "Melting Point": "228-229 \u00b0C"}}