{"cas_no": "35589-32-3", "cn_name": "3,4-\u4e8c\u7532\u6c27\u57fa\u82ef\u80fa\u76d0\u9178\u76d0", "en_name": ["Benzenamine, 3,4-dimethoxy-, hydrochloride (1:1)", "Benzenamine, 3,4-dimethoxy-, hydrochloride (1:1)", "Benzenamine, 3,4-dimethoxy-, hydrochloride", "Aniline, 3,4-dimethoxy-, hydrochloride", "3,4-Dimethoxyaniline hydrochloride", "4-Aminoveratrole hydrochloride", "[3,4-Bis(methyloxy)phenyl]amine hydrochloride", "3,4-Dimethoxyphenylamine hydrochloride"], "SMILES": "O(C)C1=C(OC)C=C(N)C=C1.Cl", "physical_data": {"Molecular Weight": "", "Molecular Formula": "C8H11NO2.ClH", "Melting Point": "240 \u00b0C"}}