{"cas_no": "3558-60-9", "cn_name": "\u7532\u57fa\u82ef\u4e59\u57fa\u919a", "en_name": ["(2-Methoxyethyl)benzene", "Benzene, (2-methoxyethyl)-", "Ether, methyl phenethyl", "(2-Methoxyethyl)benzene", "Methyl 2-phenethyl ether", "Methyl phenethyl ether", "\u03b2-Phenylethyl methyl ether", "1-Methoxy-2-phenylethane", "Kewda ether", "2-Phenylethyl methyl ether", "NSC 81229", "Pandanol", "Methyl 2-phenylethyl ether"], "SMILES": "C(COC)C1=CC=CC=C1", "physical_data": {"Molecular Weight": "136.19", "Molecular Formula": "C9H12O", "Boiling Point": "190-195 \u00b0C", "Density": "1.0617 g/cm\u00b3 @ Temp: 25 \u00b0C"}}