{"cas_no": "3558-69-8", "cn_name": "2,6-\u4e8c\u82ef\u57fa\u5421\u5576", "en_name": ["2,6-Diphenylpyridine", "Pyridine, 2,6-diphenyl-", "2,6-Diphenylpyridine", "NSC 133378"], "SMILES": "C=1(N=C(C=CC1)C2=CC=CC=C2)C3=CC=CC=C3", "physical_data": {"Molecular Weight": "231.29", "Molecular Formula": "C17H13N", "Boiling Point": "397 \u00b0C", "Melting Point": "82 \u00b0C"}}