{"cas_no": "3558-24-5", "cn_name": "1-\u7532\u57fa-2-\u82ef\u57fa\u5432\u54da", "en_name": ["1-Methyl-2-phenylindole", "1H-Indole, 1-methyl-2-phenyl-", "Indole, 1-methyl-2-phenyl-", "1-Methyl-2-phenyl-1H-indole", "1-Methyl-2-phenylindole", "2-Phenyl-N-methylindole", "N-Methyl-2-phenylindole", "NSC 63793", "2-Phenyl-1-methylindole"], "SMILES": "CN1C(=CC=2C1=CC=CC2)C3=CC=CC=C3", "physical_data": {"Molecular Weight": "207.27", "Molecular Formula": "C15H13N", "Melting Point": "100-101 \u00b0C"}}