{"cas_no": "3559-74-8", "cn_name": "\u73af\u620a\u4e8c\u7094\u4e09\u7532\u57fa\u7845\u70f7", "en_name": ["5-(Trimethylsilyl)-1,3-cyclopentadiene", "1,3-Cyclopentadiene, 5-(trimethylsilyl)-", "Silane, 2,4-cyclopentadien-1-yltrimethyl-", "5-(Trimethylsilyl)-1,3-cyclopentadiene", "5-(Trimethylsilyl)cyclopentadiene", "1-Trimethylsilyl-2,4-cyclopentadiene", "1-(Trimethylsilyl)cyclopentadiene", "Cyclopentadienyltrimethylsilane", "NSC 176274", "2,4-Cyclopentadien-1-yltrimethylsilane"], "SMILES": "[Si](C)(C)(C)C1C=CC=C1", "physical_data": {"Molecular Weight": "138.28", "Molecular Formula": "C8H14Si", "Boiling Point": "43-44 \u00b0C @ Press: 19 Torr", "Density": "0.8390 g/cm\u00b3 @ Temp: 20 \u00b0C"}}