{"cas_no": "356-27-4", "cn_name": "\u5e9a\u6c1f\u4e01\u9178\u4e59\u916f", "en_name": ["Ethyl 2,2,3,3,4,4,4-heptafluorobutanoate", "Butanoic acid, 2,2,3,3,4,4,4-heptafluoro-, ethyl ester", "Butyric acid, heptafluoro-, ethyl ester", "Butanoic acid, heptafluoro-, ethyl ester", "Ethyl 2,2,3,3,4,4,4-heptafluorobutanoate", "Ethyl perfluorobutyrate", "Ethyl heptafluorobutyrate", "Ethyl heptafluorobutanoate", "Ethyl perfluorobutanoate", "NSC 3639", "Ethyl 2,2,3,3,4,4,4-heptafluorobutyrate"], "SMILES": "C(C(C(F)(F)F)(F)F)(C(OCC)=O)(F)F", "physical_data": {"Molecular Weight": "242.09", "Molecular Formula": "C6H5F7O2", "Boiling Point": "95 \u00b0C", "Density": "1.396 g/cm\u00b3"}}