{"cas_no": "356-42-3", "cn_name": "\u4e94\u6c1f\u4e19\u9178\u9150", "en_name": ["Pentafluoropropionic anhydride", "Propanoic acid, 2,2,3,3,3-pentafluoro-, 1,1\u2032-anhydride", "Propionic acid, pentafluoro-, anhydride", "Propanoic acid, pentafluoro-, anhydride", "Pentafluoropropionic anhydride", "Pentafluoropropionic acid anhydride", "Perfluoropropionic anhydride", "Perfluoropropionic acid anhydride", "Pentafluoropropionyl anhydride", "2,2,3,3,3-Pentafluoropropionic anhydride", "Perfluoropropanoic anhydride", "Pentafluoropropanoic anhydride", "NSC 174167", "2,2,3,3,3-Pentafluoropropanoic anhydride", "2,2,3,3,3-Pentafluoropropanoyl 2,2,3,3,3-pentafluoropropanoate"], "SMILES": "C(C(F)(F)F)(C(OC(C(C(F)(F)F)(F)F)=O)=O)(F)F", "physical_data": {"Molecular Weight": "310.05", "Molecular Formula": "C6F10O3", "Boiling Point": "73 \u00b0C", "Density": "1.571 g/cm\u00b3 @ Temp: 25 \u00b0C"}}