{"cas_no": "356-15-0", "cn_name": "TETRAFLUOROSUCCINYL", "en_name": ["2,2,3,3-Tetrafluorobutanedioyl dichloride", "Butanedioyl dichloride, 2,2,3,3-tetrafluoro-", "Succinyl chloride, tetrafluoro-", "Butanedioyl dichloride, tetrafluoro-", "2,2,3,3-Tetrafluorobutanedioyl dichloride", "Tetrafluorosuccinoyl chloride"], "SMILES": "C(C(C(Cl)=O)(F)F)(C(Cl)=O)(F)F", "physical_data": {"Molecular Weight": "226.94", "Molecular Formula": "C4Cl2F4O2", "Boiling Point": "54 \u00b0C @ Press: 758 Torr", "Density": "1.6032 g/cm\u00b3 @ Temp: 20 \u00b0C"}}