{"cas_no": "356-24-1", "cn_name": "\u4e03\u6c1f\u4e01\u9178\u7532\u916f", "en_name": ["Methyl 2,2,3,3,4,4,4-heptafluorobutanoate", "Butanoic acid, 2,2,3,3,4,4,4-heptafluoro-, methyl ester", "Butyric acid, heptafluoro-, methyl ester", "Butanoic acid, heptafluoro-, methyl ester", "Methyl 2,2,3,3,4,4,4-heptafluorobutanoate", "Methyl heptafluorobutyrate", "Methyl perfluorobutyrate", "Heptafluorobutyric acid methyl ester", "Methyl perfluorobutanoate", "Methyl heptafluorobutanoate", "2,2,3,3,4,4,4-Heptafluoro-butyric acid methyl ester"], "SMILES": "C(C(C(F)(F)F)(F)F)(C(OC)=O)(F)F", "physical_data": {"Molecular Weight": "228.06", "Molecular Formula": "C5H3F7O2", "Boiling Point": "80 \u00b0C", "Melting Point": "-86 \u00b0C", "Density": "1.472 g/cm\u00b3"}}