{"cas_no": "356-18-3", "cn_name": "1,2-\u4e8c\u6c2f\u516d\u6c1f\u73af\u5df1\u70f7", "en_name": ["1,2-Dichlorohexafluorocyclobutane", "Cyclobutane, 1,2-dichloro-1,2,3,3,4,4-hexafluoro-", "Cyclobutane, 1,2-dichlorohexafluoro-", "1,2-Dichloro-1,2,3,3,4,4-hexafluorocyclobutane", "1,2-Dichloroperfluorocyclobutane", "1,2-Dichlorohexafluorocyclobutane", "RC 316"], "SMILES": "ClC1(F)C(Cl)(F)C(F)(F)C1(F)F", "physical_data": {"Molecular Weight": "232.94", "Molecular Formula": "C4Cl2F6", "Boiling Point": "59.87 \u00b0C", "Melting Point": "58.5 \u00b0C", "Density": "1.6441 g/cm\u00b3 @ Temp: 20 \u00b0C"}}