{"cas_no": "356-12-7", "cn_name": "\u918b\u9178\u6c1f\u8f7b\u677e", "en_name": ["Fluocinonide", "Pregna-1,4-diene-3,20-dione, 21-(acetyloxy)-6,9-difluoro-11-hydroxy-16,17-[(1-methylethylidene)bis(oxy)]-, (6\u03b1,11\u03b2,16\u03b1)-", "Pregna-1,4-diene-3,20-dione, 6\u03b1,9-difluoro-11\u03b2,16\u03b1,17,21-tetrahydroxy-, cyclic 16,17-acetal with acetone, 21-acetate", "2H-Naphth[2\u2032,1\u2032:4,5]indeno[1,2-d][1,3]dioxole, pregna-1,4-diene-3,20-dione deriv.", "(6\u03b1,11\u03b2,16\u03b1)-21-(Acetyloxy)-6,9-difluoro-11-hydroxy-16,17-[(1-methylethylidene)bis(oxy)]pregna-1,4-diene-3,20-dione", "Fluocinolone acetonide acetate", "Fluocinolide", "Fluocinonide", "Fluocinolone acetonide 21-acetate", "Metosyn", "Lidex E", "Fluocinolide acetate", "Flucinar", "Topsym", "Lidex", "Topsymin", "NSC 101791", "Topsyne", "Straderm", "Dermaplus", "Topsyn", "Biscosal", "Flucetonide", "Vanos", "MeSH ID: D005447"], "SMILES": "C(COC(C)=O)(=O)C12C3(C)C(CC1OC(C)(C)O2)C4C(F)(C(O)C3)C5(C)C(C(F)C4)=CC(=O)C=C5", "physical_data": {"Molecular Weight": "494.52", "Molecular Formula": "C26H32F2O7", "Melting Point": "309 \u00b0C"}}