{"cas_no": "35604-67-2", "cn_name": "2-[(2-\u4e59\u6c27\u57fa\u82ef\u6c27\u57fa)\u7532\u57fa]\u5417\u5549\u76d0\u9178\u76d0", "en_name": ["Viloxazine hydrochloride", "Morpholine, 2-[(2-ethoxyphenoxy)methyl]-, hydrochloride (1:1)", "Morpholine, 2-[(2-ethoxyphenoxy)methyl]-, hydrochloride", "ICI 58834", "Viloxazine hydrochloride", "Vivalan", "Viloxazin hydrochloride", "2-[(2-Ethoxyphenoxy)methyl]morpholinium chloride", "Catatrol", "Vivarint", "Vivilan", "Vicilan", "2-((2-Ethoxyphenoxy)methyl)morpholine hydrochloride"], "SMILES": "O(CC1CNCCO1)C2=C(OCC)C=CC=C2.Cl", "physical_data": {"Molecular Weight": "", "Molecular Formula": "C13H19NO3.ClH", "Melting Point": "185-186 \u00b0C"}}