{"cas_no": "35607-66-0", "cn_name": "\u5934\u5b62\u897f\u4e01", "en_name": ["Cefoxitin", "5-Thia-1-azabicyclo[4.2.0]oct-2-ene-2-carboxylic acid, 3-[[(aminocarbonyl)oxy]methyl]-7-methoxy-8-oxo-7-[[2-(2-thienyl)acetyl]amino]-, (6R,7S)-", "5-Thia-1-azabicyclo[4.2.0]oct-2-ene-2-carboxylic acid, 3-[[(aminocarbonyl)oxy]methyl]-7-methoxy-8-oxo-7-[(2-thienylacetyl)amino]-, (6R-cis)-", "5-Thia-1-azabicyclo[4.2.0]oct-2-ene-2-carboxylic acid, 3-[[(aminocarbonyl)oxy]methyl]-7-methoxy-8-oxo-7-[(2-thienylacetyl)amino]-, (6R,7S)-", "(6R,7S)-3-[[(Aminocarbonyl)oxy]methyl]-7-methoxy-8-oxo-7-[[2-(2-thienyl)acetyl]amino]-5-thia-1-azabicyclo[4.2.0]oct-2-ene-2-carboxylic acid", "Cefoxitin", "Cephoxitin", "MeSH ID: D002440"], "SMILES": "N(C(CC1=CC=CS1)=O)C2(OC)C3N(C2=O)C(C(O)=O)=C(COC(N)=O)CS3", "physical_data": {"Molecular Weight": "427.45", "Molecular Formula": "C16H17N3O7S2", "Melting Point": "149-150 \u00b0C"}}