{"cas_no": "3561-67-9", "cn_name": "\u4e8c\u82ef\u786b\u57fa\u7532\u70f7", "en_name": ["1,1\u2032-[Methylenebis(thio)]bis[benzene]", "Benzene, 1,1\u2032-[methylenebis(thio)]bis-", "Methane, bis(phenylthio)-", "1,1\u2032-[Methylenebis(thio)]bis[benzene]", "Bis(phenylthio)methane", "Formaldehyde diphenyl mercaptal", "Formaldehyde bis(phenylthio) acetal", "Formaldehyde diphenyl dithioacetal", "Di(phenylthio)methane", "NSC 65477", "Bis(phenylsulfanyl)methane"], "SMILES": "S(CSC1=CC=CC=C1)C2=CC=CC=C2", "physical_data": {"Molecular Weight": "232.36", "Molecular Formula": "C13H12S2", "Boiling Point": "194 \u00b0C @ Press: 8 Torr", "Melting Point": "35-36 \u00b0C"}}