{"cas_no": "3561-81-7", "cn_name": "MESUAXANTHONE A", "en_name": ["1,5-Dihydroxy-3-methoxyxanthone", "9H-Xanthen-9-one, 1,5-dihydroxy-3-methoxy-", "Xanthen-9-one, 1,5-dihydroxy-3-methoxy-", "1,5-Dihydroxy-3-methoxy-9H-xanthen-9-one", "Mesuaxanthone A", "1,5-Dihydroxy-3-methoxyxanthone", "1,5-Hydroxy-3-methoxyxanthone"], "SMILES": "O=C1C=2C(OC=3C1=CC=CC3O)=CC(OC)=CC2O", "physical_data": {"Molecular Weight": "258.23", "Molecular Formula": "C14H10O5", "Melting Point": "274-275 \u00b0C"}}