{"cas_no": "3561-48-6", "cn_name": "Z-GLY-MET-OH", "en_name": ["L-Methionine, N-[N-[(phenylmethoxy)carbonyl]glycyl]-", "L-Methionine, N-[N-[(phenylmethoxy)carbonyl]glycyl]-", "Methionine, N-(N-carboxyglycyl)-, N-benzyl ester", "N-(Benzyloxycarbonyl)glycyl-L-methionine", "N-(Carbobenzyloxy)glycyl-L-methionine", "NSC 169155", "(2S)-4-Methylsulfanyl-2-[[2-(phenylmethoxycarbonylamino)acetyl]amino]butanoic acid"], "SMILES": "C(OC(NCC(NC(CCSC)C(O)=O)=O)=O)C1=CC=CC=C1", "physical_data": {"Molecular Weight": "340.39", "Molecular Formula": "C15H20N2O5S", "Melting Point": "110-111 \u00b0C"}}