{"cas_no": "35621-01-3", "cn_name": "4-\u6c28\u57fa\u54cc\u5576\u4e8c\u76d0\u9178\u76d0", "en_name": ["4-Piperidinamine, hydrochloride (1:2)", "4-Piperidinamine, hydrochloride (1:2)", "4-Piperidinamine, dihydrochloride", "4-Aminopiperidine dihydrochloride"], "SMILES": "NC1CCNCC1.Cl", "physical_data": {"Molecular Weight": "", "Molecular Formula": "C5H12N2.2ClH", "Melting Point": "331-333 \u00b0C"}}