{"cas_no": "35620-72-5", "cn_name": "2-\u82ef\u57fa\u786b\u4ee3\u70df\u9178", "en_name": ["2-(Phenylthio)-3-pyridinecarboxylic acid", "3-Pyridinecarboxylic acid, 2-(phenylthio)-", "2-(Phenylthio)-3-pyridinecarboxylic acid", "2-(Phenylthio)nicotinic acid", "2-Phenylthio-3-pyridinecarboxylic acid", "2-(Phenylsulfanyl)pyridine-3-carboxylic acid"], "SMILES": "S(C1=C(C(O)=O)C=CC=N1)C2=CC=CC=C2", "physical_data": {"Molecular Weight": "231.27", "Molecular Formula": "C12H9NO2S", "Melting Point": "171-171.5 \u00b0C"}}