{"cas_no": "3562-99-0", "cn_name": "\u5b5f\u5e03\u916e", "en_name": ["Menbutone", "1-Naphthalenebutanoic acid, 4-methoxy-\u03b3-oxo-", "Propionic acid, 3-(4-methoxy-1-naphthoyl)-", "4-Methoxy-\u03b3-oxo-1-naphthalenebutanoic acid", "Menbutone", "Genabilic acid", "Genabil", "Ido-Genabil", "3-(4-Methoxy-1-naphthoyl)propionic acid", "Menbuton", "Epanaftol", "Fel-bis", "Genabilin", "Naftobil", "Nafto-Epatina", "Sintobilina", "Icteryl", "NSC 53969", "4-(4-Methoxynaphthalen-1-yl)-4-oxobutanoic acid", "Menbutyl"], "SMILES": "C(CCC(O)=O)(=O)C=1C2=C(C(OC)=CC1)C=CC=C2", "physical_data": {"Molecular Weight": "258.27", "Molecular Formula": "C15H14O4", "Melting Point": "172.5 \u00b0C"}}