{"cas_no": "3562-84-3", "cn_name": "\u82ef\u6eb4\u9a6c\u9686", "en_name": ["Benzbromarone", "Methanone, (3,5-dibromo-4-hydroxyphenyl)(2-ethyl-3-benzofuranyl)-", "Ketone, 3,5-dibromo-4-hydroxyphenyl 2-ethyl-3-benzofuranyl", "(3,5-Dibromo-4-hydroxyphenyl)(2-ethyl-3-benzofuranyl)methanone", "Benzbromarone", "3,5-Dibromo-4-hydroxyphenyl 2-ethyl-3-benzofuranyl ketone", "2-Ethyl-3-(3,5-dibromo-4-hydroxybenzoyl)benzofuran", "L 2214", "Benzbromaron", "Minuric", "Uricovac", "Desuric", "L 2214-Labaz", "Normurat", "Azubromaron", "Max-Uric", "Besuric", "MJ 10061", "Urinorm", "Narcaricin", "NSC 85433", "(3,5-Dibromo-4-hydroxyphenyl)(2-ethylbenzofuran-3-yl)methanone", "(3,5-Dibromo-4-hydroxyphenyl)-(2-ethyl-1-benzofuran-3-yl)methanone", "MeSH ID: D001553"], "SMILES": "C(=O)(C=1C=2C(OC1CC)=CC=CC2)C3=CC(Br)=C(O)C(Br)=C3", "physical_data": {"Molecular Weight": "424.08", "Molecular Formula": "C17H12Br2O3", "Melting Point": "151 \u00b0C"}}