{"cas_no": "3562-63-8", "cn_name": "\u7532\u5730\u5b55\u916e", "en_name": ["Megestrol", "Pregna-4,6-diene-3,20-dione, 17-hydroxy-6-methyl-", "17-Hydroxy-6-methylpregna-4,6-diene-3,20-dione", "Megestrol", "magestrol"], "SMILES": "CC12C(C3C(C4(C)C(C(C)=C3)=CC(=O)CC4)CC1)CCC2(C(C)=O)O", "physical_data": {"Molecular Weight": "342.47", "Molecular Formula": "C22H30O3", "Melting Point": "207-208 \u00b0C"}}