{"cas_no": "35620-71-4", "cn_name": "2-\u82ef\u6c27\u57fa\u70df\u9178", "en_name": ["2-Phenoxynicotinic acid", "3-Pyridinecarboxylic acid, 2-phenoxy-", "2-Phenoxy-3-pyridinecarboxylic acid", "2-Phenoxynicotinic acid", "3-Carboxy-2-phenoxypyridine"], "SMILES": "O(C1=C(C(O)=O)C=CC=N1)C2=CC=CC=C2", "physical_data": {"Molecular Weight": "215.20", "Molecular Formula": "C12H9NO3", "Melting Point": "179-180 \u00b0C"}}