{"cas_no": "3564-73-6", "cn_name": "10,11-\u4e8c\u6c22\u5361\u9a6c\u897f\u5e73", "en_name": ["10,11-Dihydrocarbamazepine", "5H-Dibenz[b,f]azepine-5-carboxamide, 10,11-dihydro-", "10,11-Dihydro-5H-dibenz[b,f]azepine-5-carboxamide", "10,11-Dihydrocarbamazepine", "GP 26-301"], "SMILES": "C(N)(=O)N1C=2C(=CC=CC2)CCC=3C1=CC=CC3", "physical_data": {"Molecular Weight": "238.28", "Molecular Formula": "C15H14N2O", "Melting Point": "210 \u00b0C"}}