{"cas_no": "3565-26-2", "cn_name": "8-\u7f9f\u57fa-5-\u785d\u57fa\u55b9\u5549", "en_name": ["5-Nitroso-8-hydroxyquinoline", "8-Quinolinol, 5-nitroso-", "5-Nitroso-8-quinolinol", "Hydron III", "5-Nitroso-8-hydroxyquinoline", "5-Nitrosooxine", "8-Hydroxy-5-nitrosoquinoline", "NSC 3852"], "SMILES": "N(=O)C=1C2=C(C(O)=CC1)N=CC=C2", "physical_data": {"Molecular Weight": "174.16", "Molecular Formula": "C9H6N2O2", "Melting Point": "234-236 \u00b0C"}}