{"cas_no": "35661-40-6", "cn_name": "Fmoc-L-\u82ef\u4e19\u6c28\u9178", "en_name": ["FMOC-L-phenylalanine", "L-Phenylalanine, N-[(9H-fluoren-9-ylmethoxy)carbonyl]-", "N-[(9H-Fluoren-9-ylmethoxy)carbonyl]-L-phenylalanine", "N-(9-Fluorenylmethoxycarbonyl)phenylalanine", "N-(9-Fluorenylmethoxycarbonyl)-L-phenylalanine", "FMOC-L-phenylalanine", "Fmoc-phenylalanine", "NSC 334293", "(S)-2-[9H-Fluoren-9-yl(methoxycarbonyl)amino]-3-phenylpropionic acid", "(S)-N-Fmoc-phenylalanine", "917: PN: WO2006135786 PAGE: 59 claimed protein", "226: PN: US20070042401 PAGE: 30 claimed protein", "(2S)-2-[[[(9H-Fluoren-9-yl)methoxy]carbonyl]amino]-3-phenylpropanoic acid", "N-\u03b1-[[(9H-Fluoren-9-yl)methoxy]carbonyl]-L-phenylalanine", "N-9-Fluorenylmethoxycarbonylphenylalanine", "(2S)-2-[[(9H-Fluoren-9-ylmethoxy)carbonyl]amino]-3-phenylpropanoic acid", "4: PN: WO2022213118 TABLE: 12 claimed sequence"], "SMILES": "C(OC(NC(CC1=CC=CC=C1)C(O)=O)=O)C2C=3C(C=4C2=CC=CC4)=CC=CC3", "physical_data": {"Molecular Weight": "387.43", "Molecular Formula": "C24H21NO4", "Melting Point": "166-168 \u00b0C (decomp)"}}