{"cas_no": "35661-60-0", "cn_name": "Fmoc-L-\u4eae\u6c28\u9178", "en_name": ["Fmoc-leucine", "L-Leucine, N-[(9H-fluoren-9-ylmethoxy)carbonyl]-", "N-[(9H-Fluoren-9-ylmethoxy)carbonyl]-L-leucine", "N-(9-Fluorenylmethoxycarbonyl)-L-leucine", "N-(9-Fluorenylmethoxycarbonyl)leucine", "NPC 15199", "N-(Fluorenylmethoxycarbonyl)leucine", "N-FMOC-leucine", "Fmoc-leucine", "NSC 334290", "908: PN: WO2006135786 PAGE: 58 claimed protein", "217: PN: US20070042401 PAGE: 29 claimed protein", "(2S)-2-[[[(9H-Fluoren-9-yl)methoxy]carbonyl]amino]-4-methylpentanoic acid", "Fmoc-L-Leucine", "(2S)-2-[[(9H-Fluoren-9-ylmethoxy)carbonyl]amino]-4-methylpentanoic acid", "(2S)-2-([[(9H-Fluoren-9-yl)methoxy]carbonyl]amino)-4-methylpentanoic acid"], "SMILES": "C(OC(NC(CC(C)C)C(O)=O)=O)C1C=2C(C=3C1=CC=CC3)=CC=CC2", "physical_data": {"Molecular Weight": "353.41", "Molecular Formula": "C21H23NO4", "Melting Point": "144-146 \u00b0C (decomp)"}}