{"cas_no": "35661-39-3", "cn_name": "N-\u82b4\u7532\u6c27\u7fb0\u57fa-L-\u4e19\u6c28\u9178", "en_name": ["N-[(9H-Fluoren-9-ylmethoxy)carbonyl]-L-alanine", "L-Alanine, N-[(9H-fluoren-9-ylmethoxy)carbonyl]-", "N-[(9H-Fluoren-9-ylmethoxy)carbonyl]-L-alanine", "N-(9-Fluorenylmethoxycarbonyl)alanine", "NPC 14688", "(9-Fluorenylmethoxycarbonyl)-L-alanine", "FMOC-L-alanine", "FMOC-Alanine", "(S)-N-Fmoc-alanine", "NSC 334296", "N-9-Fluorenylmethoxycarbonyl-L-alanine", "(S)-2-[[[(9H-Fluoren-9-yl)methoxy]carbonyl]amino]propionic acid", "(2S)-2-[[[(9H-Fluoren-9-yl)methoxy]carbonyl]amino]propanoic acid", "(2S)-2-[[(9H-Fluoren-9-ylmethoxy)carbonyl]amino]propanoic acid", "(2S)-2-([[(9H-Fluoren-9-yl)methoxy]carbonyl]amino)propanoic acid", "(2S)-2-[[(9H-fluoren-9-ylmethoxy)carbonyl]amino]propanoic acid"], "SMILES": "C(OC(NC(C(O)=O)C)=O)C1C=2C(C=3C1=CC=CC3)=CC=CC2", "physical_data": {"Molecular Weight": "311.33", "Molecular Formula": "C18H17NO4", "Melting Point": "161-163 \u00b0C (decomp)"}}