{"cas_no": "3566-61-8", "cn_name": "3,3,4,4-\u56db\u7532\u57fa\u5421\u54af\u70f7-2,5-\u4e8c\u916e", "en_name": ["2,2,3,3-Tetramethylsuccinimide", "2,5-Pyrrolidinedione, 3,3,4,4-tetramethyl-", "Succinimide, 2,2,3,3-tetramethyl-", "3,3,4,4-Tetramethyl-2,5-pyrrolidinedione", "PM 1090", "2,2,3,3-Tetramethylsuccinimide", "NSC 74524"], "SMILES": "CC1(C)C(C)(C)C(=O)NC1=O", "physical_data": {"Molecular Weight": "155.19", "Molecular Formula": "C8H13NO2", "Melting Point": "190-193 \u00b0C"}}