{"cas_no": "35660-94-7", "cn_name": "OR (E)-2-\u7532\u57fa-2-\u4e01\u70ef\u9170\u6c2f", "en_name": ["(2E)-2-Methyl-2-butenoyl chloride", "2-Butenoyl chloride, 2-methyl-, (2E)-", "2-Butenoyl chloride, 2-methyl-, (E)-", "Tigloyl chloride", "(2E)-2-Methyl-2-butenoyl chloride", "Tiglic acid chloride", "(E)-2-Methyl-2-butenoyl chloride", "trans-2-Methyl-2-butenoyl chloride", "(E)-2-Methylbut-2-enoyl chloride"], "SMILES": "C(C(Cl)=O)(=CC)C", "physical_data": {"Molecular Weight": "118.56", "Molecular Formula": "C5H7ClO", "Boiling Point": "142-145 \u00b0C"}}