{"cas_no": "3566-10-7", "cn_name": "\u4ee3\u68ee\u94f5", "en_name": ["Amobam", "Carbamodithioic acid, N,N\u2032-1,2-ethanediylbis-, ammonium salt (1:2)", "Carbamic acid, ethylenebis[dithio-, diammonium salt", "Carbamodithioic acid, 1,2-ethanediylbis-, diammonium salt", "Amobam", "Ammonium ethylenebis(dithiocarbamate)", "Diammonium ethylenebis[dithiocarbamate]", "Dithane stainless", "Ambis", "Ethylene-1,2-bis(ammonium dithiocarbamate)", "Ammonium 1,2-ethanebis(dithiocarbamate)", "Ambam"], "SMILES": "C(CNC(=S)S)NC(=S)S.N", "physical_data": {"Molecular Weight": "", "Molecular Formula": "C4H8N2S4.2H3N", "Melting Point": "185 \u00b0C"}}