{"cas_no": "356783-29-4", "cn_name": "Pyrazinecarboxamide, 3,6-difluoro- (9CI)", "en_name": ["3,6-Difluoro-2-pyrazinecarboxamide", "2-Pyrazinecarboxamide, 3,6-difluoro-", "Pyrazinecarboxamide, 3,6-difluoro-", "3,6-Difluoro-2-pyrazinecarboxamide"], "SMILES": "C(N)(=O)C=1C(F)=NC=C(F)N1", "physical_data": {"Molecular Weight": "159.09", "Molecular Formula": "C5H3F2N3O", "Melting Point": "122-124 \u00b0C"}}