{"cas_no": "3567-00-8", "cn_name": "\u9570\u5200\u83cc\u4e1d\u7ea2\u7d20", "en_name": ["Rubrofusarin", "4H-Naphtho[2,3-b]pyran-4-one, 5,6-dihydroxy-8-methoxy-2-methyl-", "Rubrofusarin", "5,6-Dihydroxy-8-methoxy-2-methyl-4H-naphtho[2,3-b]pyran-4-one", "NSC 258316"], "SMILES": "OC=1C2=C(C=C3C1C(=O)C=C(C)O3)C=C(OC)C=C2O", "physical_data": {"Molecular Weight": "272.25", "Molecular Formula": "C15H12O5", "Melting Point": "210-211 \u00b0C"}}