{"cas_no": "35677-84-0", "cn_name": "2-\u54cc\u5576\u7532\u9178\u4e59\u916f", "en_name": ["Ethyl 2-piperidinecarboxylate", "2-Piperidinecarboxylic acid, ethyl ester", "Pipecolic acid, ethyl ester", "Ethyl 2-pipecolate", "Ethyl pipecolate", "Ethyl 2-piperidinecarboxylate", "Ethyl pipecolinate", "2-(Ethoxycarbonyl)piperidine", "(\u00b1)-2-Piperidinecarboxylic acid ethyl ester", "DL-Pipecolic acid ethyl ester", "(\u00b1)-Ethyl pipecolinate", "NSC 49360", "DL-Ethyl pipecolinate", "Ethyl piperolinate"], "SMILES": "C(OCC)(=O)C1CCCCN1", "physical_data": {"Molecular Weight": "157.21", "Molecular Formula": "C8H15NO2", "Boiling Point": "93-94 \u00b0C @ Press: 11 Torr", "Density": "1.0065 g/cm\u00b3 @ Temp: 25 \u00b0C"}}