{"cas_no": "35677-88-4", "cn_name": "N-\u82c4\u6c27\u7fb0\u57fa-L-\u9ad8\u4e1d\u6c28\u9178", "en_name": ["N-[(Phenylmethoxy)carbonyl]-L-homoserine", "L-Homoserine, N-[(phenylmethoxy)carbonyl]-", "Butyric acid, 2-carboxyamino-4-hydroxy-, N-benzyl ester", "N-[(Phenylmethoxy)carbonyl]-L-homoserine", "N-Carbobenzoxy-L-homoserine", "N-(Benzyloxycarbonyl)-L-homoserine", "Cbz-hse-oh"], "SMILES": "C(NC(OCC1=CC=CC=C1)=O)(CCO)C(O)=O", "physical_data": {"Molecular Weight": "253.25", "Molecular Formula": "C12H15NO5", "Melting Point": "78-81 \u00b0C"}}