{"cas_no": "35674-20-5", "cn_name": "3,4-\u4e8c\u7898\u82ef\u7532\u9178", "en_name": ["3,4-Diiodobenzoic acid", "Benzoic acid, 3,4-diiodo-", "3,4-Diiodobenzoic acid"], "SMILES": "C(O)(=O)C1=CC(I)=C(I)C=C1", "physical_data": {"Molecular Weight": "373.91", "Molecular Formula": "C7H4I2O2", "Melting Point": "257 \u00b0C"}}