{"cas_no": "3568-90-9", "cn_name": "\u53bb\u6c27\u62c9\u5df4\u918c", "en_name": ["Deoxylapachol", "1,4-Naphthalenedione, 2-(3-methyl-2-buten-1-yl)-", "1,4-Naphthoquinone, 2-(3-methyl-2-butenyl)-", "1,4-Naphthalenedione, 2-(3-methyl-2-butenyl)-", "2-(3-Methyl-2-buten-1-yl)-1,4-naphthalenedione", "Deoxylapachol", "Desoxylapachol", "2-(3-Methyl-2-butenyl)-1,4-naphthoquinone", "NSC 123507"], "SMILES": "O=C1C=2C(C(=O)C=C1CC=C(C)C)=CC=CC2", "physical_data": {"Molecular Weight": "226.27", "Molecular Formula": "C15H14O2", "Melting Point": "56-58 \u00b0C"}}