{"cas_no": "35680-24-1", "cn_name": "2-\u6c2f-3-\u7f9f\u57fa-6-\u7532\u57fa\u5421\u5576", "en_name": ["2-Chloro-6-methyl-3-pyridinol", "3-Pyridinol, 2-chloro-6-methyl-", "2-Chloro-6-methyl-3-pyridinol", "2-Chloro-3-hydroxy-6-methylpyridine", "2-Chloro-3-hydroxy-6-picoline"], "SMILES": "ClC1=C(O)C=CC(C)=N1", "physical_data": {"Molecular Weight": "143.57", "Molecular Formula": "C6H6ClNO", "Melting Point": "196-198 \u00b0C"}}