{"cas_no": "35694-06-5", "cn_name": "2,2\u2032,3,4,4\u2032,5,-\u516d\u6c2f\u8054\u82ef", "en_name": ["2,2\u2032,3,4,4\u2032,5-Hexachlorobiphenyl", "1,1\u2032-Biphenyl, 2,2\u2032,3,4,4\u2032,5-hexachloro-", "2,2\u2032,3,4,4\u2032,5-Hexachloro-1,1\u2032-biphenyl", "2,2\u2032,3,4,4\u2032,5-Hexachlorobiphenyl", "2,3,4,2\u2032,4\u2032,5-Hexachlorobiphenyl", "2,3,4,5,2\u2032,4\u2032-Hexachlorobiphenyl", "PCB 137"], "SMILES": "ClC1=C(C=C(Cl)C(Cl)=C1Cl)C2=C(Cl)C=C(Cl)C=C2", "physical_data": {"Molecular Weight": "360.88", "Molecular Formula": "C12H4Cl6", "Melting Point": "77-79 \u00b0C"}}