{"cas_no": "35691-65-7", "cn_name": "\u6eb4\u83cc\u8148", "en_name": ["1,2-Dibromo-2,4-dicyanobutane", "Pentanedinitrile, 2-bromo-2-(bromomethyl)-", "2-Bromo-2-(bromomethyl)pentanedinitrile", "2-Bromo-2-(bromomethyl)glutaronitrile", "1,2-Dibromo-2,4-dicyanobutane", "Tektamer 38", "Tektamer 38AD", "BBMG", "1-Bromo-1-(bromomethyl)-1,3-propanedicarbonitrile", "Methyldibromoglutaronitrile", "Tektamer", "MDBGN", "Tuopai DM 01", "DBDCB", "Bromothalonil", "Merguard 1105", "Cosmoguard"], "SMILES": "C(CCC#N)(CBr)(C#N)Br", "physical_data": {"Molecular Weight": "265.93", "Molecular Formula": "C6H6Br2N2", "Melting Point": "52 \u00b0C"}}