{"cas_no": "3569-99-1", "cn_name": "N-\u7f9f\u7532\u57fa\u70df\u9170\u80fa", "en_name": ["N-(Hydroxymethyl)nicotinamide", "3-Pyridinecarboxamide, N-(hydroxymethyl)-", "Nicotinamide, N-(hydroxymethyl)-", "N-(Hydroxymethyl)-3-pyridinecarboxamide", "Bilamid", "Cholamide", "Choligen", "N-(Hydroxymethyl)nicotinamide", "Nicodin", "Nicodine", "Nikoform", "Cholamide (pyridine derivative)", "Nicoform", "Nifoform", "3-Pyridinecarboxylic acid hydroxymethylamide", "Nikodin", "Isochol", "Felosan", "Bilizorin", "Bilocid", "Biobilan", "Biloide", "Cholamid", "C 1094", "Coloton", "Nikomethamide", "Nicometamide", "3-Pyridinecarboxylic acid N-hydroxymethylamide"], "SMILES": "C(NCO)(=O)C=1C=CC=NC1", "physical_data": {"Molecular Weight": "152.15", "Molecular Formula": "C7H8N2O2", "Melting Point": "141.5 \u00b0C"}}