{"cas_no": "3569-21-9", "cn_name": "\u5432\u54da-3-\u4e19\u9187", "en_name": ["Indole-3-propanol", "1H-Indole-3-propanol", "Indole-3-propanol", "Homotryptophol", "3-(1H-Indol-3-yl)-1-propanol", "3-(3-Hydroxypropyl)indole", "3-(3-Hydroxypropyl)-1H-indole", "3-(3-Indolyl)-1-propanol", "3-(1H-Indol-3-yl)propanol"], "SMILES": "C(CCO)C=1C=2C(NC1)=CC=CC2", "physical_data": {"Molecular Weight": "175.23", "Molecular Formula": "C11H13NO", "Melting Point": "0 \u00b0C"}}