{"cas_no": "3569-10-6", "cn_name": "\u7f2c\u8349\u7d20", "en_name": ["(-)-Valerenic acid", "2-Propenoic acid, 3-[(4S,7R,7aR)-2,4,5,6,7,7a-hexahydro-3,7-dimethyl-1H-inden-4-yl]-2-methyl-, (2E)-", "Indene-4-acrylic acid, 2,4,5,6,7,7a-hexahydro-\u03b1,3,7-trimethyl-", "Valerenic acid", "2-Propenoic acid, 3-(2,4,5,6,7,7a-hexahydro-3,7-dimethyl-1H-inden-4-yl)-2-methyl-, [4S-[4\u03b1(E),7\u03b2,7a\u03b1]]-", "(2E)-3-[(4S,7R,7aR)-2,4,5,6,7,7a-Hexahydro-3,7-dimethyl-1H-inden-4-yl]-2-methyl-2-propenoic acid", "(-)-Valerenic acid", "Nardin"], "SMILES": "C(=C(C(O)=O)C)C1C=2C(CCC2C)C(C)CC1", "physical_data": {"Molecular Weight": "234.33", "Molecular Formula": "C15H22O2", "Melting Point": "140-142 \u00b0C"}}