{"cas_no": "35693-92-6", "cn_name": "2,4,6-\u4e09\u6c2f\u8054\u82ef", "en_name": ["2,4,6-Trichlorobiphenyl", "1,1\u2032-Biphenyl, 2,4,6-trichloro-", "Biphenyl, 2,4,6-trichloro-", "2,4,6-Trichloro-1,1\u2032-biphenyl", "2,4,6-Trichlorobiphenyl", "PCB 30", "1,3,5-Trichloro-2-phenylbenzene"], "SMILES": "ClC1=C(C(Cl)=CC(Cl)=C1)C2=CC=CC=C2", "physical_data": {"Molecular Weight": "257.54", "Molecular Formula": "C12H7Cl3", "Melting Point": "59-61 \u00b0C"}}