{"cas_no": "35691-93-1", "cn_name": "3,5-\u4e8c\u7532\u57fa-1H-4-\u5421\u5511\u7fa7\u9178\u4e59\u916f", "en_name": ["1H-Pyrazole-4-carboxylic acid, 3,5-dimethyl-, ethyl ester", "1H-Pyrazole-4-carboxylic acid, 3,5-dimethyl-, ethyl ester", "Ethyl 3,5-dimethylpyrazole-4-carboxylate", "3,5-Dimethylpyrazole-4-carboxylic acid ethyl ester", "Ethyl 3,5-dimethyl-1H-pyrazole-4-carboxylate", "3,5-Dimethyl-1H-pyrazole-4-carboxylic acid ethyl ester"], "SMILES": "C(OCC)(=O)C=1C(C)=NNC1C", "physical_data": {"Molecular Weight": "168.19", "Molecular Formula": "C8H12N2O2", "Melting Point": "96 \u00b0C"}}