{"cas_no": "35693-99-3", "cn_name": "2,2',5,5'-\u56db\u6c2f\u8054\u82ef", "en_name": ["2,2\u2032,5,5\u2032-Tetrachlorobiphenyl", "1,1\u2032-Biphenyl, 2,2\u2032,5,5\u2032-tetrachloro-", "2,2\u2032,5,5\u2032-Tetrachloro-1,1\u2032-biphenyl", "2,2\u2032,5,5\u2032-Tetrachlorobiphenyl", "2,2\u2032,5,5\u2032-TCB", "PCB 52", "2,5,2\u2032,5\u2032-Tetrachlorobiphenyl", "K 52", "CB 52", "CB 52 (polychlorinated biphenyl)"], "SMILES": "ClC1=C(C=C(Cl)C=C1)C2=C(Cl)C=CC(Cl)=C2", "physical_data": {"Molecular Weight": "291.99", "Molecular Formula": "C12H6Cl4", "Melting Point": "84-85 \u00b0C"}}