{"cas_no": "357-70-0", "cn_name": "\u52a0\u5170\u4ed6\u654f", "en_name": ["(-)-Galantamine", "6H-Benzofuro[3a,3,2-ef][2]benzazepin-6-ol, 4a,5,9,10,11,12-hexahydro-3-methoxy-11-methyl-, (4aS,6R,8aS)-", "Galanthamine", "6H-Benzofuro[3a,3,2-ef][2]benzazepin-6-ol, 4a,5,9,10,11,12-hexahydro-3-methoxy-11-methyl-", "(4aS,6R,8aS)-4a,5,9,10,11,12-Hexahydro-3-methoxy-11-methyl-6H-benzofuro[3a,3,2-ef][2]benzazepin-6-ol", "Galantamine", "Lycoremine", "Jilkon", "Galantamin", "Lycoremin", "6H-Benzofuro[3a,3,2-ef][2]benzazepin-6-ol, 4a,5,9,10,11,12-hexahydro-3-methoxy-11-methyl-, [4aS-(4a\u03b1,6\u03b2,8aR*)]-", "(-)-Galanthamine", "NSC 100058", "Galantamina", "BRN 0093736", "(-)-Galantamine", "MeSH ID: D005702"], "SMILES": "O(C)C1=C2C=3C4(C(O2)CC(O)C=C4)CCN(C)CC3C=C1", "physical_data": {"Molecular Weight": "287.35", "Molecular Formula": "C17H21NO3", "Melting Point": "126-127 \u00b0C"}}