{"cas_no": "357-57-3", "cn_name": "10,11-\u4e8c\u7532\u6c27\u57fa\u9a6c\u94b1\u5b50\u78b1", "en_name": ["Brucine", "Strychnidin-10-one, 2,3-dimethoxy-", "Brucine", "4,6-Methano-6H,14H-indolo[3,2,1-ij]oxepino[2,3,4-de]pyrrolo[2,3-h]quinoline, strychnidin-10-one deriv.", "2,3-Dimethoxystrychnidin-10-one", "2,3-Dimethoxystrychnine", "(-)-Brucine", "l-Brucine"], "SMILES": "O=C1N2C3C4(C=5C2=CC(OC)=C(OC)C5)C6N(CC4)CC=7C(C3C(C1)OCC7)C6", "physical_data": {"Molecular Weight": "394.46", "Molecular Formula": "C23H26N2O4", "Boiling Point": "470 \u00b0C", "Melting Point": "178 \u00b0C"}}