{"cas_no": "357-08-4", "cn_name": "\u76d0\u9178\u7eb3\u6d1b\u916e", "en_name": ["Naloxone hydrochloride", "Morphinan-6-one, 4,5-epoxy-3,14-dihydroxy-17-(2-propen-1-yl)-, hydrochloride (1:1), (5\u03b1)-", "Morphinan-6-one, 17-allyl-4,5\u03b1-epoxy-3,14-dihydroxy-, hydrochloride", "Morphinan-6-one, 4,5-epoxy-3,14-dihydroxy-17-(2-propenyl)-, hydrochloride, (5\u03b1)-", "Normorphinone, N-allyl-7,8-dihydro-14-hydroxy-, hydrochloride", "EN 1530", "(-)-N-Allyl-14-hydroxynordihydromorphinone hydrochloride", "Naloxone hydrochloride", "(-)-Naloxone hydrochloride", "Narcan", "l-Naloxone hydrochloride", "Nalonee", "N-Allyldihydro-14-hydroxynormorphinone hydrochloride", "NIH 7890", "EN 15304", "Narcanti", "Nalone", "Narcoxone"], "SMILES": "OC12C34C=5C(OC3C(=O)CC1)=C(O)C=CC5CC2N(CC=C)CC4.Cl", "physical_data": {"Molecular Weight": "", "Molecular Formula": "C19H21NO4.ClH", "Melting Point": "200-205 \u00b0C"}}