{"cas_no": "35700-21-1", "cn_name": "15(S)-15-\u7532\u57fa\u524d\u5217\u817a\u7d20", "en_name": ["Methyl carboprost", "Prosta-5,13-dien-1-oic acid, 9,11,15-trihydroxy-15-methyl-, methyl ester, (5Z,9\u03b1,11\u03b1,13E,15S)-", "(15S)-15-Methyl-PGF2\u03b1 methyl ester", "(15S)-15-Methylprostaglandin F2\u03b1 methyl ester", "U 36384", "Methyl carboprost", "cis-Methyl carboprost", "Carboprost methyl ester"], "SMILES": "C(=CC(CCCCC)(C)O)C1C(CC=CCCCC(OC)=O)C(O)CC1O", "physical_data": {"Molecular Weight": "382.53", "Molecular Formula": "C22H38O5", "Melting Point": "55-56 \u00b0C"}}