{"cas_no": "35704-19-9", "cn_name": "4-\u4e59\u9170\u6c28\u82ef\u7532\u8148", "en_name": ["N-(4-Cyanophenyl)acetamide", "Acetamide, N-(4-cyanophenyl)-", "Acetanilide, 4\u2032-cyano-", "N-(4-Cyanophenyl)acetamide", "4\u2032-Cyanoacetanilide", "p-Acetamidobenzonitrile", "4-Cyanoacetanilide", "p-Cyanoacetanilide", "4-Acetamidobenzonitrile", "N-Acetyl-4-cyanoaniline", "NSC 88010", "4-Acetylaminobenzonitrile"], "SMILES": "N(C(C)=O)C1=CC=C(C#N)C=C1", "physical_data": {"Molecular Weight": "160.17", "Molecular Formula": "C9H8N2O", "Melting Point": "206-208 \u00b0C"}}