{"cas_no": "3570-58-9", "cn_name": "\u7532\u78fa\u91782-\u6c2f\u4e59\u916f", "en_name": ["Ethanol, 2-chloro-, 1-methanesulfonate", "Ethanol, 2-chloro-, 1-methanesulfonate", "Ethanol, 2-chloro-, methanesulfonate", "Methanesulfonic acid, 2-chloroethyl ester", "NSC 18016", "2-Chloroethyl methanesulfonate", "CB 1506", "2-Chloroethyl mesylate"], "SMILES": "O(S(C)(=O)=O)CCCl", "physical_data": {"Molecular Weight": "158.60", "Molecular Formula": "C3H7ClO3S", "Boiling Point": "138-142 \u00b0C @ Press: 17 Torr", "Density": "1.3837 g/cm\u00b3 @ Temp: 20 \u00b0C"}}