{"cas_no": "3570-55-6", "cn_name": "\u53cc\u5def\u4e59\u57fa\u786b\u919a", "en_name": ["2-Mercaptoethyl sulfide", "Ethanethiol, 2,2\u2032-thiobis-", "Ethanethiol, 2,2\u2032-thiodi-", "2,2\u2032-Thiobis[ethanethiol]", "TDT", "2-Mercaptoethyl sulfide", "Bis(2-mercaptoethyl) sulfide", "2,2\u2032-Dimercaptodiethyl thioether", "2,2\u2032-Dimercaptodiethyl sulfide", "2,2\u2032-Thiodi(ethanethiol)", "1-Mercapto-2-(mercaptoethylthio)ethane", "3-Thia-1,5-pentanedithiol", "1,5-Dimercapto-3-thiapentane", "1,4,7-Trithiaheptane", "2-Mercaptoethyl thioether", "Bis(2-sulfanylethyl) sulfide", "NSC 4766", "DMDS", "2-[(2-Mercaptoethyl)thio]ethanethiol", "IU 11B", "2T-S", "2-(2-Sulfanylethylsulfanyl)ethanethiol", "2-[(2-Sulfanylethyl)sulfanyl]ethane-1-thiol", "Di(2-mercaptoethyl) sulfide"], "SMILES": "S(CCS)CCS", "physical_data": {"Molecular Weight": "154.32", "Molecular Formula": "C4H10S3", "Boiling Point": "135-136 \u00b0C @ Press: 10 Torr", "Melting Point": "-12.5 \u00b0C", "Density": "1.2187 g/cm\u00b3 @ Temp: 25 \u00b0C"}}