{"cas_no": "357263-41-3", "cn_name": "7-\u6c2f-6-\u6c2e\u6742\u5432\u54da", "en_name": ["7-Chloro-1H-pyrrolo[2,3-c]pyridine", "1H-Pyrrolo[2,3-c]pyridine, 7-chloro-", "7-Chloro-1H-pyrrolo[2,3-c]pyridine", "7-Chloro-6-azaindole"], "SMILES": "ClC1=C2C(=CC=N1)C=CN2", "physical_data": {"Molecular Weight": "152.58", "Molecular Formula": "C7H5ClN2", "Melting Point": "123-124 \u00b0C"}}