{"cas_no": "3572-43-8", "cn_name": "\u6eb4\u5df1\u65b0", "en_name": ["Bromhexine", "Benzenemethanamine, 2-amino-3,5-dibromo-N-cyclohexyl-N-methyl-", "Toluene-\u03b1,2-diamine, 3,5-dibromo-N\u03b1-cyclohexyl-N\u03b1-methyl-", "2-Amino-3,5-dibromo-N-cyclohexyl-N-methylbenzenemethanamine", "Na 274", "Bromexine", "N-(2-Amino-3,5-dibromobenzyl)-N-methylcyclohexylamine", "Bromhexine", "2-Amino-3,5-dibromo-N-cyclohexyl-N-methylbenzylamine", "2,4-Dibromo-6-[[cyclohexyl(methyl)amino]methyl]aniline", "Ezolvin"], "SMILES": "C(N(C)C1CCCCC1)C2=C(N)C(Br)=CC(Br)=C2", "physical_data": {"Molecular Weight": "376.13", "Molecular Formula": "C14H20Br2N2", "Melting Point": "238 \u00b0C"}}