{"cas_no": "35737-15-6", "cn_name": "Fmoc-L-\u8272\u6c28\u9178", "en_name": ["Fmoc-L-tryptophan", "L-Tryptophan, N-[(9H-fluoren-9-ylmethoxy)carbonyl]-", "N-[(9H-Fluoren-9-ylmethoxy)carbonyl]-L-tryptophan", "FMOC-Trp-OH", "N-(9-Fluorenylmethoxycarbonyl)tryptophan", "Fmoc-tryptophan", "Fmoc-L-tryptophan", "NSC 334295", "(S)-2-[[[(9H-Fluoren-9-yl)methoxy]carbonyl]amino]-3-(1H-indol-3-yl)propionic acid", "N-(Fluorenyl-9-methoxycarbonyl)-terminated tryptophan", "(2S)-2-(9H-Fluoren-9-ylmethoxycarbonylamino)-3-(1H-indol-3-yl)propanoic acid", "(2S)-2-[[(9H-Fluoren-9-ylmethoxy)carbonyl]amino]-3-(1H-indol-3-yl)propanoic acid", "(2S)-2-([[(9H-Fluoren-9-yl)methoxy]carbonyl]amino)-3-(1H-indol-3-yl)propanoic acid"], "SMILES": "C(OC(NC(CC=1C=2C(NC1)=CC=CC2)C(O)=O)=O)C3C=4C(C=5C3=CC=CC5)=CC=CC4", "physical_data": {"Molecular Weight": "426.46", "Molecular Formula": "C26H22N2O4", "Melting Point": "182-183 \u00b0C"}}