{"cas_no": "35730-09-7", "cn_name": "2,5-\u4e8c\u6c1f\u82ef\u7532\u9170\u6c2f", "en_name": ["2,5-Difluorobenzoyl chloride", "Benzoyl chloride, 2,5-difluoro-", "2,5-Difluorobenzoyl chloride"], "SMILES": "C(Cl)(=O)C1=C(F)C=CC(F)=C1", "physical_data": {"Molecular Weight": "176.55", "Molecular Formula": "C7H3ClF2O", "Boiling Point": "74-78 \u00b0C @ Press: 15 Torr", "Melting Point": "73-74 \u00b0C"}}