{"cas_no": "3574-96-7", "cn_name": "2-(2-\u6c2f\u82ef\u57fa)-1H-\u82ef\u5e76\u54aa\u5511", "en_name": ["Chlorfenazole", "1H-Benzimidazole, 2-(2-chlorophenyl)-", "Benzimidazole, 2-(o-chlorophenyl)-", "2-(2-Chlorophenyl)-1H-benzimidazole", "2-(2-Chlorophenyl)benzimidazole", "2-(2\u2032-Chlorophenyl)benzimidazole", "2-(o-Chlorophenyl)benzimidazole", "G 572", "NSC 128751", "Chlorfenazole", "2-(2-Chlorophenyl)-1H-benzo[d]imidazole", "2-(2-Chlorophenyl)-1H-1,3-benzodiazole"], "SMILES": "ClC1=C(C=2NC=3C(N2)=CC=CC3)C=CC=C1", "physical_data": {"Molecular Weight": "228.68", "Molecular Formula": "C13H9ClN2", "Melting Point": "234 \u00b0C"}}