{"cas_no": "35757-20-1", "cn_name": "2-\u6eb4-3-\u785d\u57fa\u82ef\u80fa", "en_name": ["2-Bromo-3-nitrobenzenamine", "Benzenamine, 2-bromo-3-nitro-", "Aniline, 2-bromo-3-nitro-", "2-Bromo-3-nitrobenzenamine", "2-Bromo-3-nitroaniline"], "SMILES": "N(=O)(=O)C1=C(Br)C(N)=CC=C1", "physical_data": {"Molecular Weight": "217.02", "Molecular Formula": "C6H5BrN2O2", "Melting Point": "96-97 \u00b0C"}}