{"cas_no": "3575-80-2", "cn_name": "\u7f8e\u54cc\u9686", "en_name": ["Melperone", "1-Butanone, 1-(4-fluorophenyl)-4-(4-methyl-1-piperidinyl)-", "Butyrophenone, 4\u2032-fluoro-4-(4-methylpiperidino)-", "1-(4-Fluorophenyl)-4-(4-methyl-1-piperidinyl)-1-butanone", "4\u2032-Fluoro-4-(4-methylpiperidino)butyrophenone", "\u03b3-(4-Methylpiperidino)-p-fluorobutyrophenone", "Methylperone", "4-Fluoro-\u03b3-(4-methylpiperidino)butyrophenone", "Buronil", "FG 5111", "Melperone", "Flubuperone", "Buronon"], "SMILES": "C(CCCN1CCC(C)CC1)(=O)C2=CC=C(F)C=C2", "physical_data": {"Molecular Weight": "263.35", "Molecular Formula": "C16H22FNO", "Boiling Point": "122.5 \u00b0C", "Melting Point": "&lt;25 \u00b0C"}}