{"cas_no": "3575-31-3", "cn_name": "\u5bf9\u6b63\u8f9b\u57fa\u82ef\u7532\u9178", "en_name": ["4-Octylbenzoic acid", "Benzoic acid, 4-octyl-", "Benzoic acid, p-octyl-", "4-Octylbenzoic acid", "p-Octylbenzoic acid", "4-n-Octylbenzoic acid", "NSC 173066"], "SMILES": "C(CCCCCCC)C1=CC=C(C(O)=O)C=C1", "physical_data": {"Molecular Weight": "234.33", "Molecular Formula": "C15H22O2", "Melting Point": "99-100 \u00b0C"}}