{"cas_no": "35762-76-6", "cn_name": "\u78fa\u80fa\u4e8c\u7532\u57fa\u5627\u5576", "en_name": ["4,6-Dimethyl-2-pyrimidinesulfonamide", "2-Pyrimidinesulfonamide, 4,6-dimethyl-", "4,6-Dimethyl-2-pyrimidinesulfonamide", "4,6-Dimethylpyrimidine-2-sulfonamide"], "SMILES": "S(N)(=O)(=O)C=1N=C(C)C=C(C)N1", "physical_data": {"Molecular Weight": "187.22", "Molecular Formula": "C6H9N3O2S", "Melting Point": "200-200.5 \u00b0C"}}