{"cas_no": "35761-27-4", "cn_name": "3-\u6c28\u57fa-N-(\u82c4\u6c27\u57fa\u7fb0\u57fa)-L-\u4e19\u6c28\u9178\u7532\u916f", "en_name": ["L-Alanine, 3-amino-N-[(phenylmethoxy)carbonyl]-, methyl ester, hydrochloride (1:1)", "L-Alanine, 3-amino-N-[(phenylmethoxy)carbonyl]-, methyl ester, hydrochloride (1:1)", "L-Alanine, 3-amino-N-[(phenylmethoxy)carbonyl]-, methyl ester, monohydrochloride", "(S)-Methyl 3-amino-2-(benzyloxycarbonylamino)propionate hydrochloride", "3-Amino-N-(benzyloxycarbonyl)-L-alanine methyl ester hydrochloride", "(2S)-2-[[(Benzyloxy)carbonyl]amino]-3-methoxy-3-oxopropan-1-aminium chloride", "(S)-Methyl 3-amino-2-(benzyloxycarbonylamino)propanoate hydrochloride", "Methyl (2S)-3-amino-2-[(benzyloxycarbonyl)amino]propanoate hydrochloride"], "SMILES": "C(OC(NC(C(OC)=O)CN)=O)C1=CC=CC=C1.Cl", "physical_data": {"Molecular Weight": "", "Molecular Formula": "C12H16N2O4.ClH", "Melting Point": "156-157 \u00b0C"}}