{"cas_no": "35778-58-6", "cn_name": "5-(4-\u4e8c\u4e59\u6c28\u82c4\u70ef)\u7f57\u4e39\u5b81", "en_name": ["p-Diethylaminobenzylidenerhodanine", "4-Thiazolidinone, 5-[[4-(diethylamino)phenyl]methylene]-2-thioxo-", "5-[[4-(Diethylamino)phenyl]methylene]-2-thioxo-4-thiazolidinone", "p-Diethylaminobenzylidenerhodanine", "5-(p-Diethylaminobenzylidene)rhodanine", "NSC 97270", "5-(4-(Diethylamino)benzylidene)-2-thioxothiazolidin-4-one"], "SMILES": "N(CC)(CC)C1=CC=C(C=C2SC(=S)NC2=O)C=C1", "physical_data": {"Molecular Weight": "292.42", "Molecular Formula": "C14H16N2OS2", "Melting Point": "208 \u00b0C"}}