{"cas_no": "3577-63-7", "cn_name": "2-\u6c28\u57fa-5-\u78fa\u57fa\u82ef\u7532\u9178", "en_name": ["5-Sulfoanthranilic acid", "Benzoic acid, 2-amino-5-sulfo-", "Anthranilic acid, 5-sulfo-", "2-Amino-5-sulfobenzoic acid", "4-Sulfo-2-carboxyaniline", "4-Amino-3-carboxybenzenesulfonic acid", "5-Sulfoanthranilic acid", "2-Carboxy-4-sulfoaniline", "2-Amino-1-carboxybenzene-5-sulfonic acid"], "SMILES": "C(O)(=O)C1=CC(S(=O)(=O)O)=CC=C1N", "physical_data": {"Molecular Weight": "217.20", "Molecular Formula": "C7H7NO5S", "Melting Point": "319 \u00b0C"}}