{"cas_no": "35779-04-5", "cn_name": "1-\u53d4\u4e01\u57fa-3-\u7898\u82ef", "en_name": ["1-tert-Butyl-4-iodobenzene", "Benzene, 1-(1,1-dimethylethyl)-4-iodo-", "Benzene, 1-tert-butyl-4-iodo-", "1-(1,1-Dimethylethyl)-4-iodobenzene", "1-tert-Butyl-4-iodobenzene", "p-Iodo-tert-butylbenzene", "p-tert-Butylphenyl iodide", "p-tert-Butyliodobenzene", "4-tert-Butylphenyl iodide", "4-tert-Butyliodobenzene", "4-tert-Butyl-1-iodobenzene", "4-Iodo-1-tert-butylbenzene", "1-Iodo-4-tert-butylbenzene", "4-t-Butyl-1-iodobenzene"], "SMILES": "C(C)(C)(C)C1=CC=C(I)C=C1", "physical_data": {"Molecular Weight": "260.11", "Molecular Formula": "C10H13I", "Boiling Point": "253-254 \u00b0C @ Press: 160 Torr", "Density": "1.4392 g/cm\u00b3 @ Temp: 14 \u00b0C"}}