{"cas_no": "35790-95-5", "cn_name": "\u0391-\u5e38\u6625\u85e4\u7d20", "en_name": ["\u03b2-Hederin", "Olean-12-en-28-oic acid, 3-[[2-O-(6-deoxy-\u03b1-L-mannopyranosyl)-\u03b1-L-arabinopyranosyl]oxy]-, (3\u03b2)-", "(3\u03b2)-3-[[2-O-(6-Deoxy-\u03b1-L-mannopyranosyl)-\u03b1-L-arabinopyranosyl]oxy]olean-12-en-28-oic acid", "\u03b2-Hederin", "Eleutheroside K", "Prosapogenin CP2", "Tauroside C", "Glycoside L-C", "Oleanoic acid 3-O-L-rhamnopyranosyl(1\u21922)-\u03b1-L-arabinopyranoside", "Eleatheroside K", "3\u03b2-[(O-\u03b1-L-Rhamnopyranosyl-(1\u21922)-\u03b1-L-arabinopyranosyl)oxy]olean-12-en-28-oic acid", "Oleanolic acid 3-O-\u03b1-L-rhamnopyranosyl-(1\u21922)-\u03b1-L-arabinopyranoside", "Pulchinenoside B11"], "SMILES": "CC12C3(C)C(C4C(C(O)=O)(CC3)CCC(C)(C)C4)=CCC1C5(C)C(CC2)C(C)(C)C(OC6C(OC7C(O)C(O)C(O)C(C)O7)C(O)C(O)CO6)CC5", "physical_data": {"Molecular Weight": "734.96", "Molecular Formula": "C41H66O11", "Melting Point": "221-223 \u00b0C"}}