{"cas_no": "35794-11-7", "cn_name": "3,5-\u4e8c\u7532\u57fa\u54cc\u5576", "en_name": ["3,5-Dimethylpiperidine", "Piperidine, 3,5-dimethyl-", "3,5-Lupetidine", "3,5-Dimethylpiperidine"], "SMILES": "CC1CC(C)CNC1", "physical_data": {"Molecular Weight": "113.20", "Molecular Formula": "C7H15N", "Boiling Point": "144 \u00b0C", "Density": "0.8532 g/cm\u00b3 @ Temp: 20 \u00b0C"}}