{"cas_no": "358-60-1", "cn_name": "\u4e00\u6c1f\u4e09\u4e59\u6c27\u57fa\u7845\u70f7", "en_name": ["Triethoxyfluorosilane", "Silane, triethoxyfluoro-", "Triethoxyfluorosilane", "Triethoxyfluorosilicon", "Silicon fluoride triethoxide", "Silicon fluoride triethoxide (Si(OEt)3F)", "Silicon monofluoride triethoxide (Si(OEt)3F)", "Fluorotriethoxysilane", "Silicon fluoride triethoxide (SiF(OEt)3)"], "SMILES": "[Si](OCC)(OCC)(OCC)F", "physical_data": {"Molecular Weight": "182.27", "Molecular Formula": "C6H15FO3Si", "Boiling Point": "133-134 \u00b0C", "Melting Point": "134-135 \u00b0C", "Density": "0.94 g/cm\u00b3"}}