{"cas_no": "358-23-6", "cn_name": "\u4e09\u6c1f\u7532\u78fa\u9178\u9150", "en_name": ["Trifluoromethanesulfonic anhydride", "Methanesulfonic acid, 1,1,1-trifluoro-, 1,1\u2032-anhydride", "Methanesulfonic acid, trifluoro-, anhydride", "Trifluoromethanesulfonic anhydride", "Trifluoromethylsulfonic anhydride", "Triflate anhydride", "Trifluoromethylsulfonic acid anhydride", "Trifluoromethanesulfonyl anhydride", "Trifluoromethanesulfonic acid anhydride", "Triflic anhydride", "Perfluoromethanesulfonic anhydride", "Triflic acid anhydride", "Tirflic anhydride", "Trifluoromethanesulfonic anyhydride", "Tf2O", "Trifluoromethanesulfonyl trifluoromethanesulfonate", "Trifluoromethylsulfonyl trifluoromethanesulfonate"], "SMILES": "S(OS(C(F)(F)F)(=O)=O)(C(F)(F)F)(=O)=O", "physical_data": {"Molecular Weight": "282.14", "Molecular Formula": "C2F6O5S2", "Boiling Point": "80.5 \u00b0C"}}