{"cas_no": "358-39-4", "cn_name": "1,2-\u53cc(1,1,2,2-\u56db\u6c1f\u4e59\u6c27\u57fa)\u4e59\u70f7", "en_name": ["1,2-Bis(1,1,2,2-tetrafluoroethoxy)ethane", "Ethane, 1,2-bis(1,1,2,2-tetrafluoroethoxy)-", "1,2-Bis(1,1,2,2-tetrafluoroethoxy)ethane", "Ethylene glycol bis(1,1,2,2-tetrafluoroethyl) ether", "1,1,2,2-Tetrafluoro-1-[2-(1,1,2,2-tetrafluoroethoxy)ethoxy]ethane"], "SMILES": "C(OCCOC(C(F)F)(F)F)(C(F)F)(F)F", "physical_data": {"Molecular Weight": "262.10", "Molecular Formula": "C6H6F8O2", "Boiling Point": "86 \u00b0C @ Press: 100 Torr", "Density": "1.4726 g/cm\u00b3 @ Temp: 25 \u00b0C"}}