{"cas_no": "358-67-8", "cn_name": "3,3,3-\u4e09\u6c1f\u4e19\u57fa\u7532\u57fa\u4e8c\u7532\u6c27\u57fa\u7845", "en_name": ["Dimethoxymethyl(3,3,3-trifluoropropyl)silane", "Silane, dimethoxymethyl(3,3,3-trifluoropropyl)-", "Dimethoxymethyl(3,3,3-trifluoropropyl)silane", "T 2842", "(3,3,3-Trifluoropropyl)(methyl)dimethoxysilane", "LS 1080", "3,3,3-Trifluoropropyldimethoxymethylsilane", "Methyl(3,3,3-trifluoropropyl)dimethoxysilane", "FD 1001", "SiSiB PC 9711", "PC 9711"], "SMILES": "[Si](CCC(F)(F)F)(OC)(OC)C", "physical_data": {"Molecular Weight": "202.25", "Molecular Formula": "C6H13F3O2Si", "Boiling Point": "118 \u00b0C", "Melting Point": "27 \u00b0C", "Density": "1.1 g/cm\u00b3"}}