{"cas_no": "358-43-0", "cn_name": "\u4e09\u4e59\u57fa\u6c1f\u7845\u70f7", "en_name": ["Triethylfluorosilane", "Silane, triethylfluoro-", "Triethylfluorosilane", "Triethylsilyl fluoride", "Fluorotriethylsilane"], "SMILES": "[Si](CC)(CC)(CC)F", "physical_data": {"Molecular Weight": "134.27", "Molecular Formula": "C6H15FSi", "Boiling Point": "110 \u00b0C", "Density": "0.8354 g/cm\u00b3 @ Temp: 25 \u00b0C"}}