{"cas_no": "3581-89-3", "cn_name": "5-\u7532\u57fa\u567b\u5511", "en_name": ["5-Methylthiazole", "Thiazole, 5-methyl-", "5-Methylthiazole", "5-Methyl-1,3-thiazole"], "SMILES": "CC1=CN=CS1", "physical_data": {"Molecular Weight": "99.15", "Molecular Formula": "C4H5NS", "Boiling Point": "143-145 \u00b0C", "Melting Point": "67.1-68.3 \u00b0C", "Density": "1.127 g/cm\u00b3 @ Temp: 20 \u00b0C"}}