{"cas_no": "3581-87-1", "cn_name": "2-\u7532\u57fa\u567b\u5511", "en_name": ["2-Methylthiazole", "Thiazole, 2-methyl-", "2-Methylthiazole", "2-Methyl-1,3-thiazole"], "SMILES": "CC1=NC=CS1", "physical_data": {"Molecular Weight": "99.15", "Molecular Formula": "C4H5NS", "Boiling Point": "128.5 \u00b0C", "Density": "1.1121 g/cm\u00b3 @ Temp: 20 \u00b0C"}}