{"cas_no": "35812-01-2", "cn_name": "N-\u6eb4\u90bb\u78fa\u9170\u82ef\u9170\u4e9a\u80fa", "en_name": ["N-Bromosaccharin", "1,2-Benzisothiazol-3(2H)-one, 2-bromo-, 1,1-dioxide", "Benzisothiazolin-3-one, 2-bromo-, 1,1-dioxide", "N-Bromosaccharin", "2-Bromo-1,1-dioxo-1,2-benzothiazol-3-one", "2-Bromo-2,3-dihydro-1\u03bb6,2-benzothiazole-1,1,3-trione", "2-Bromobenzo[d]isothiazol-3(2H)-one 1,1-dioxide"], "SMILES": "O=C1C=2C(S(=O)(=O)N1Br)=CC=CC2", "physical_data": {"Molecular Weight": "262.08", "Molecular Formula": "C7H4BrNO3S", "Melting Point": "171-173 \u00b0C"}}