{"cas_no": "3581-91-7", "cn_name": "4,5-\u4e8c\u7532\u57fa\u567b\u5511", "en_name": ["4,5-Dimethylthiazole", "Thiazole, 4,5-dimethyl-", "4,5-Dimethylthiazole", "4,5-Dimethyl-1,3-thiazole"], "SMILES": "CC1=C(C)SC=N1", "physical_data": {"Molecular Weight": "113.18", "Molecular Formula": "C5H7NS", "Boiling Point": "158 \u00b0C", "Melting Point": "83.5 \u00b0C", "Density": "1.0699 g/cm\u00b3 @ Temp: 20 \u00b0C"}}