{"cas_no": "35824-91-0", "cn_name": "1,3-\u53cc\u73af\u5df1\u57fa\u5df4\u6bd4\u59a5\u9178", "en_name": ["1,3-Dicyclohexyl-2,4,6(1H,3H,5H)-pyrimidinetrione", "2,4,6(1H,3H,5H)-Pyrimidinetrione, 1,3-dicyclohexyl-", "Barbituric acid, 1,3-dicyclohexyl-", "1,3-Dicyclohexyl-2,4,6(1H,3H,5H)-pyrimidinetrione", "1,3-Dicyclohexylbarbituric acid", "N,N\u2032-Dicyclohexylbarbituric acid", "1,3-Dicyclohexyl-1,3-diazinane-2,4,6-trione"], "SMILES": "O=C1N(C(=O)CC(=O)N1C2CCCCC2)C3CCCCC3", "physical_data": {"Molecular Weight": "292.37", "Molecular Formula": "C16H24N2O3", "Melting Point": "200-201 \u00b0C"}}