{"cas_no": "3582-72-7", "cn_name": "1,3-\u4e8c\u6c2f-1,3-\u4e8c\u7532\u57fa-1,3-\u4e8c\u82ef\u57fa\u4e8c\u7845\u6c27\u70f7", "en_name": ["1,3-Dichloro-1,3-dimethyl-1,3-diphenyldisiloxane", "Disiloxane, 1,3-dichloro-1,3-dimethyl-1,3-diphenyl-", "1,3-Dichloro-1,3-dimethyl-1,3-diphenyldisiloxane"], "SMILES": "[Si](O[Si](C)(Cl)C1=CC=CC=C1)(C)(Cl)C2=CC=CC=C2", "physical_data": {"Molecular Weight": "327.35", "Molecular Formula": "C14H16Cl2OSi2", "Boiling Point": "158-159 \u00b0C @ Press: 3 Torr", "Density": "1.153 g/cm\u00b3 @ Temp: 25 \u00b0C"}}