{"cas_no": "35825-57-1", "cn_name": "\u9690\u4e39\u53c2\u916e", "en_name": ["Cryptotanshinone", "Phenanthro[1,2-b]furan-10,11-dione, 1,2,6,7,8,9-hexahydro-1,6,6-trimethyl-, (1R)-", "Phenanthro[1,2-b]furan-10,11-dione, 1,2,6,7,8,9-hexahydro-1,6,6-trimethyl-, (R)-", "(1R)-1,2,6,7,8,9-Hexahydro-1,6,6-trimethylphenanthro[1,2-b]furan-10,11-dione", "Cryptotanshinone", "Cryptotanshinon", "Tanshinone c", "Cryototanshinone", "(15R)-Cryptotanshinone", "(1R)-1,6,6-Trimethyl-2,7,8,9-tetrahydro-1H-naphtho[1,2-g][1]benzofuran-10,11-dione"], "SMILES": "O=C1C=2C(C3=C(C1=O)C(C)CO3)=CC=C4C2CCCC4(C)C", "physical_data": {"Molecular Weight": "296.36", "Molecular Formula": "C19H20O3", "Melting Point": "182 \u00b0C"}}