{"cas_no": "3582-71-6", "cn_name": "1,5-\u4e8c\u6c2f\u516d\u7532\u57fa\u4e09\u7845\u6c27\u70f7", "en_name": ["1,5-Dichloro-1,1,3,3,5,5-hexamethyltrisiloxane", "Trisiloxane, 1,5-dichloro-1,1,3,3,5,5-hexamethyl-", "1,5-Dichloro-1,1,3,3,5,5-hexamethyltrisiloxane", "1,5-Dichlorohexamethyltrisiloxane", "Hexamethyl-1,5-dichlorotrisiloxane", "1,1,3,3,5,5-Hexamethyl-1,5-dichlorotrisiloxane", "Bis(chlorodimethylsiloxy)dimethylsilane", "1-Chloro-3-chlorodimethylsilyloxy-1,1,3,3-tetramethyldisiloxane"], "SMILES": "O([Si](O[Si](C)(C)Cl)(C)C)[Si](C)(C)Cl", "physical_data": {"Molecular Weight": "277.37", "Molecular Formula": "C6H18Cl2O2Si3", "Boiling Point": "184 \u00b0C", "Melting Point": "-53 \u00b0C", "Density": "1.018 g/cm\u00b3"}}