{"cas_no": "35833-69-3", "cn_name": "\u5357\u7f8e\u695d\u7f9f\u57fa\u4fc3\u76ae\u8d28\u7d20", "en_name": ["18-Norcholan-24-oic acid, 3,20-dihydroxy-4,4,8,14-tetramethyl-, \u03b3-lactone, (3\u03b1,5\u03b1)-", "18-Norcholan-24-oic acid, 3,20-dihydroxy-4,4,8,14-tetramethyl-, \u03b3-lactone, (3\u03b1,5\u03b1)-", "Cabraleahydroxylactone"], "SMILES": "CC12C(C3(C)C(CC1)C(C)(C)C(O)CC3)CCC4C2(C)CCC4C5(C)OC(=O)CC5", "physical_data": {"Molecular Weight": "416.64", "Molecular Formula": "C27H44O3", "Melting Point": "242-245 \u00b0C"}}