{"cas_no": "3584-23-4", "cn_name": "2-(4-\u7532\u6c27\u57fa\u82ef\u57fa)-4,6-\u53cc(\u4e09\u6c2f\u7532\u57fa)-S-\u4e09\u55ea", "en_name": ["2-(p-Methoxyphenyl)-4,6-bis(trichloromethyl)-s-triazine", "1,3,5-Triazine, 2-(4-methoxyphenyl)-4,6-bis(trichloromethyl)-", "s-Triazine, 2-(p-methoxyphenyl)-4,6-bis(trichloromethyl)-", "2-(4-Methoxyphenyl)-4,6-bis(trichloromethyl)-1,3,5-triazine", "2,6-Bis(trichloromethyl)-4-(4-methoxyphenyl)-1,3,5-triazine", "2-(p-Methoxyphenyl)-4,6-bis(trichloromethyl)-s-triazine", "XL 353", "2-(p-Methoxyphenyl)-4,6-bis(trichloromethyl)-1,3,5-triazine", "2-(4-Methoxyphenyl)-4,6-bis(trichloromethyl)-s-triazine", "TAZ 104", "2,4-Bis(trichloromethyl)-6-(4-methoxyphenyl)-s-triazine", "2,4-Bis(Trichloromethyl)-6-(4-methoxyphenyl)-1,3,5-triazine", "MP-Triazine", "2,4-Bis(trichloromethyl)-6-p-methoxyphenyl-s-triazine"], "SMILES": "C(Cl)(Cl)(Cl)C1=NC(=NC(C(Cl)(Cl)Cl)=N1)C2=CC=C(OC)C=C2", "physical_data": {"Molecular Weight": "421.92", "Molecular Formula": "C12H7Cl6N3O", "Melting Point": "144 \u00b0C"}}