{"cas_no": "3584-66-5", "cn_name": "5-\u6c2f-2-\u4e09\u6c2f\u7532\u57fa\u82ef\u5e76\u54aa\u5511", "en_name": ["6-Chloro-2-(trichloromethyl)-1H-benzimidazole", "1H-Benzimidazole, 6-chloro-2-(trichloromethyl)-", "Benzimidazole, 5-chloro-2-(trichloromethyl)-", "1H-Benzimidazole, 5-chloro-2-(trichloromethyl)-", "Benzimidazole, 5(or 6)-chloro-2-(trichloromethyl)-", "6-Chloro-2-(trichloromethyl)-1H-benzimidazole", "2-Trichloromethyl-5(6)-chlorobenzimidazole", "NSC 158057"], "SMILES": "C(Cl)(Cl)(Cl)C=1NC=2C(N1)=CC(Cl)=CC2", "physical_data": {"Molecular Weight": "269.94", "Molecular Formula": "C8H4Cl4N2", "Melting Point": "235 \u00b0C"}}