{"cas_no": "35846-53-8", "cn_name": "\u7f8e\u5766\u65b0", "en_name": ["MTS", "Maytansine", "4,24-Dioxa-9,22-diazatetracyclo[19.3.1.110,14.03,5]hexacosane, maytansine deriv.", "L-Alanine, N-acetyl-N-methyl-, 11-chloro-21-hydroxy-12,20-dimethoxy-2,5,9,16-tetramethyl-8,23-dioxo-4,24-dioxa-9,22-diazatetracyclo[19.3.1.110,14.03,5]hexacosa-10,12,14(26),16,18-pentaen-6-yl ester, [1S-(1R*,2S*,3R*,5R*,6R*,16E,18E,20S*,21R*)]-", "NSC 153858", "Maytansin", "N-Acetyl-N-methyl-L-alanine [1S-(1R*,2S*,3R*,5R*,6R*,16E,18E,20S*,21R*)]-11-chloro-21-hydroxy-12,20-dimethoxy-2,5,9,16-tetramethyl-8,23-dioxo-4,24-dioxa-9,22-diazatetracyclo[19.3.1.110,14.03,5]hexacosa-10,12,14(26),16,18-pentaen-6-yl ester", "Maitansine", "Maysanine", "MTS"], "SMILES": "CC12C(O1)C(C)C3CC(O)(C(OC)C=CC=C(C)CC4=CC(N(C)C(=O)CC2OC(C(N(C(C)=O)C)C)=O)=C(Cl)C(OC)=C4)NC(=O)O3", "physical_data": {"Molecular Weight": "692.20", "Molecular Formula": "C34H46ClN3O10", "Melting Point": "171-172 \u00b0C"}}