{"cas_no": "35853-55-5", "cn_name": "\u53cc[2,8-\u4e8c(\u4e09\u6c1f\u7532\u57fa)\u55b9\u5549-4-\u57fa-2-\u5421\u5576\u57fa]\u916e", "en_name": ["[2,8-Bis(trifluoromethyl)-4-quinolinyl]-2-pyridinylmethanone", "Methanone, [2,8-bis(trifluoromethyl)-4-quinolinyl]-2-pyridinyl-", "[2,8-Bis(trifluoromethyl)-4-quinolinyl]-2-pyridinylmethanone", "2-Pyridyl 2,8-bis(trifluoromethyl)-4-quinolyl ketone"], "SMILES": "C(F)(F)(F)C=1C2=C(C(C(=O)C3=CC=CC=N3)=CC(C(F)(F)F)=N2)C=CC1", "physical_data": {"Molecular Weight": "370.25", "Molecular Formula": "C17H8F6N2O", "Melting Point": "128-130 \u00b0C"}}