{"cas_no": "35853-45-3", "cn_name": "4-\u6eb4-2,8-\u4e8c(\u4e09\u6c1f\u7532\u57fa)\u55b9\u5549", "en_name": ["4-Bromo-2,8-bis(trifluoromethyl)quinoline", "Quinoline, 4-bromo-2,8-bis(trifluoromethyl)-", "4-Bromo-2,8-bis(trifluoromethyl)quinoline", "2,8-Bis(trifluoromethyl)-4-bromoquinoline"], "SMILES": "C(F)(F)(F)C=1C2=C(C(Br)=CC(C(F)(F)F)=N2)C=CC1", "physical_data": {"Molecular Weight": "344.05", "Molecular Formula": "C11H4BrF6N", "Melting Point": "60 \u00b0C"}}