{"cas_no": "35858-81-2", "cn_name": "L-\u8272\u6c28\u9178\u82c4\u916f\u76d0\u9178\u76d0", "en_name": ["L-Tryptophan, phenylmethyl ester, hydrochloride (1:1)", "L-Tryptophan, phenylmethyl ester, hydrochloride (1:1)", "L-Tryptophan, phenylmethyl ester, monohydrochloride", "L-Tryptophan benzyl ester hydrochloride", "Tryptophan benzyl ester monohydrochloride", "Benzyl L-tryptophanate hydrochloride", "NSC 202376", "NSC 219866", "H-(L)-Trp-O-Bn hydrochloride"], "SMILES": "C(C(C(OCC1=CC=CC=C1)=O)N)C=2C=3C(NC2)=CC=CC3.Cl", "physical_data": {"Molecular Weight": "", "Molecular Formula": "C18H18N2O2.ClH", "Melting Point": "222 \u00b0C"}}