{"cas_no": "3585-49-7", "cn_name": "\u5e03\u6d1b\u82ac\u6742\u8d28B", "en_name": ["2-(4-n-Butylphenyl)propionic acid", "Benzeneacetic acid, 4-butyl-\u03b1-methyl-", "Hydratropic acid, p-butyl-", "4-Butyl-\u03b1-methylbenzeneacetic acid", "p-Butylhydratropic acid", "2-(p-Butylphenyl)propionic acid", "2-(4-n-Butylphenyl)propionic acid", "2-(4-Butylphenyl)propanoic acid"], "SMILES": "C(C(O)=O)(C)C1=CC=C(CCCC)C=C1", "physical_data": {"Molecular Weight": "206.28", "Molecular Formula": "C13H18O2", "Boiling Point": "143 \u00b0C @ Press: 0.5 Torr"}}