{"cas_no": "35854-86-5", "cn_name": "(Z)-6-\u58ec\u70ef-1-\u9187", "en_name": ["cis-6-Nonen-1-ol", "6-Nonen-1-ol, (6Z)-", "6-Nonen-1-ol, (Z)-", "(6Z)-6-Nonen-1-ol", "cis-6-Nonen-1-ol", "(Z)-6-Nonen-1-ol", "(6Z)-Non-6-en-1-ol", "cis-6-Nonenol"], "SMILES": "C(CCCCO)C=CCC", "physical_data": {"Molecular Weight": "142.24", "Molecular Formula": "C9H18O", "Boiling Point": "54-60 \u00b0C @ Press: 0.2 Torr"}}