{"cas_no": "3586-14-9", "cn_name": "3-\u82ef\u6c27\u57fa\u7532\u82ef", "en_name": ["3-Phenoxytoluene", "Benzene, 1-methyl-3-phenoxy-", "Ether, phenyl m-tolyl", "1-Methyl-3-phenoxybenzene", "Phenyl m-tolyl ether", "m-Phenoxytoluene", "m-Methylphenyl phenyl ether", "3-Methylphenyl phenyl ether", "3-Phenoxytoluene", "3-Methyldiphenyl ether"], "SMILES": "O(C1=CC(C)=CC=C1)C2=CC=CC=C2", "physical_data": {"Molecular Weight": "184.23", "Molecular Formula": "C13H12O", "Boiling Point": "272 \u00b0C", "Melting Point": "151 \u00b0C"}}