{"cas_no": "3586-12-7", "cn_name": "3-\u82ef\u6c27\u57fa\u82ef\u80fa", "en_name": ["3-Phenoxybenzenamine", "Benzenamine, 3-phenoxy-", "Aniline, m-phenoxy-", "3-Phenoxybenzenamine", "3-Phenoxyaniline", "m-Aminophenyl phenyl ether", "3-Aminodiphenyl ether", "m-Phenoxyaniline", "NSC 57083", "(3-Phenoxyphenyl)amine", "3-(Phenyloxy)aniline"], "SMILES": "O(C1=CC(N)=CC=C1)C2=CC=CC=C2", "physical_data": {"Molecular Weight": "185.22", "Molecular Formula": "C12H11NO", "Boiling Point": "315 \u00b0C", "Melting Point": "37 \u00b0C"}}