{"cas_no": "358672-65-8", "cn_name": "5-\u6eb4-6-\u6c2f\u5421\u5576-2-\u80fa", "en_name": ["5-Bromo-6-chloro-2-pyridinamine", "2-Pyridinamine, 5-bromo-6-chloro-", "5-Bromo-6-chloro-2-pyridinamine", "6-Amino-2-chloro-3-bromopyridine", "5-Bromo-6-chloropyridin-2-amine", "6-Amino-3-bromo-2-chloropyridine", "5-Bromo-6-chloropyridin-2-ylamine"], "SMILES": "ClC1=C(Br)C=CC(N)=N1", "physical_data": {"Molecular Weight": "207.46", "Molecular Formula": "C5H4BrClN2", "Melting Point": "146-148 \u00b0C"}}