{"cas_no": "35878-28-5", "cn_name": "\u73af\u620a\u70f7-1,2-\u4e8c\u7532\u9178\u9150", "en_name": ["rel-(3aR,6aS)-Tetrahydro-1H-cyclopenta[c]furan-1,3(3aH)-dione", "1H-Cyclopenta[c]furan-1,3(3aH)-dione, tetrahydro-, (3aR,6aS)-rel-", "1H-Cyclopenta[c]furan-1,3(3aH)-dione, tetrahydro-, cis-", "rel-(3aR,6aS)-Tetrahydro-1H-cyclopenta[c]furan-1,3(3aH)-dione", "cis-1,2-Cyclopentanedicarboxylic anhydride", "cis-Cyclopentane-1,2-dicarboxylic acid anhydride", "1,2-cis-Cyclopentanedicarboxylic anhydride"], "SMILES": "O=C1C2C(C(=O)O1)CCC2", "physical_data": {"Molecular Weight": "140.14", "Molecular Formula": "C7H8O3", "Boiling Point": "100-102 \u00b0C @ Press: 1.5 Torr", "Melting Point": "73-74 \u00b0C"}}