{"cas_no": "35878-41-2", "cn_name": "\u7ef4\u65af\u4f53\u7d20", "en_name": ["(-)-Vestitol", "2H-1-Benzopyran-7-ol, 3,4-dihydro-3-(2-hydroxy-4-methoxyphenyl)-, (3R)-", "2H-1-Benzopyran-7-ol, 3,4-dihydro-3-(2-hydroxy-4-methoxyphenyl)-, (R)-", "(3R)-3,4-Dihydro-3-(2-hydroxy-4-methoxyphenyl)-2H-1-benzopyran-7-ol", "Vestitol, (-)-", "(3R)-Vestitol", "(-)-Vestitol", "Vestitol", "(R)-(-)-Vestitol"], "SMILES": "OC1=C(C=CC(OC)=C1)C2CC=3C(OC2)=CC(O)=CC3", "physical_data": {"Molecular Weight": "272.30", "Molecular Formula": "C16H16O4", "Melting Point": "154-156 \u00b0C"}}