{"cas_no": "3587-64-2", "cn_name": "1-\u7532\u6c27\u57fa-2-\u7532\u57fa-2-\u4e19\u9187", "en_name": ["1-Methoxy-2-methyl-2-propanol", "2-Propanol, 1-methoxy-2-methyl-", "1-Methoxy-2-methyl-2-propanol", "1,1-Dimethyl-2-methoxyethanol", "1-Methoxy-2-methylpropan-2-ol", "2-Methoxy-1,1-dimethylethanol"], "SMILES": "C(C(C)(C)O)OC", "physical_data": {"Molecular Weight": "104.15", "Molecular Formula": "C5H12O2", "Boiling Point": "116.6 \u00b0C", "Density": "0.9021 g/cm\u00b3"}}