{"cas_no": "3587-60-8", "cn_name": "\u82c4\u57fa\u6c2f\u7532\u57fa\u919a", "en_name": ["Benzyl chloromethyl ether", "Benzene, [(chloromethoxy)methyl]-", "Ether, benzyl chloromethyl", "[(Chloromethoxy)methyl]benzene", "Benzyl chloromethyl ether", "Benzyloxymethyl chloride", "Chloromethyl benzyl ether", "Chloromethyl phenylmethyl ether", "BOMCl"], "SMILES": "C(OCCl)C1=CC=CC=C1", "physical_data": {"Molecular Weight": "156.61", "Molecular Formula": "C8H9ClO", "Boiling Point": "103 \u00b0C @ Press: 13 Torr", "Density": "1.1350 g/cm\u00b3 @ Temp: 20 \u00b0C"}}