{"cas_no": "3587-58-4", "cn_name": "\u6c2f\u7532\u57fa\u5f02\u4e19\u57fa\u919a", "en_name": ["2-(Chloromethoxy)propane", "Propane, 2-(chloromethoxy)-", "Ether, chloromethyl isopropyl", "2-(Chloromethoxy)propane", "Chloromethyl isopropyl ether", "Isopropoxymethyl chloride", "Isopropyl chloromethyl ether"], "SMILES": "O(C(C)C)CCl", "physical_data": {"Molecular Weight": "108.57", "Molecular Formula": "C4H9ClO", "Boiling Point": "97-98 \u00b0C", "Density": "1.000 g/cm\u00b3 @ Temp: 0 \u00b0C"}}