{"cas_no": "35884-42-5", "cn_name": "\u4e8c\u4e19\u4e8c\u9187\u4e01\u919a", "en_name": ["Dipropylene glycol monobutyl ether", "Propanol, 1(or 2)-(2-butoxymethylethoxy)-", "1(or 2)-(2-Butoxymethylethoxy)propanol", "Dipropylene glycol monobutyl ether", "Butyl Dipropasol", "Dowanol DPnB", "Dipropyleneglycol butyl ether", "Arcosolv DPNB", "(Butoxypropoxy)propanol", "Dalpad D", "DBNP", "DPNB", "Arcosolve DPnB", "YT 303"], "SMILES": "", "physical_data": {"Molecular Weight": "", "Molecular Formula": "C10H22O3", "Boiling Point": "230 \u00b0C"}}