{"cas_no": "3588-31-6", "cn_name": "2,3-\u4e8c\u7532\u6c27\u57fa-1,3-\u4e01\u4e8c\u70ef", "en_name": ["2,3-Dimethoxy-1,3-butadiene", "1,3-Butadiene, 2,3-dimethoxy-", "2,3-Dimethoxy-1,3-butadiene", "2,3-Dimethoxybuta-1,3-diene", "2,3-Dimethoxybutadiene"], "SMILES": "C(C(OC)=C)(OC)=C", "physical_data": {"Molecular Weight": "114.14", "Molecular Formula": "C6H10O2", "Boiling Point": "51-52 \u00b0C @ Press: 30 Torr", "Melting Point": "19 \u00b0C"}}