{"cas_no": "3588-63-4", "cn_name": "N-\u82c4\u6c27\u7fb0\u57fa-DL-\u7f2c\u6c28\u9178", "en_name": ["N-(Benzyloxycarbonyl)-DL-valine", "Valine, N-[(phenylmethoxy)carbonyl]-", "Valine, N-carboxy-, N-benzyl ester, DL-", "DL-Valine, N-[(phenylmethoxy)carbonyl]-", "N-[(Phenylmethoxy)carbonyl]valine", "N-(Benzyloxycarbonyl)-DL-valine", "N-Carbobenzoxy-DL-valine", "N-Carbobenzyloxy-DL-valine", "NSC 33501", "DL-Cbz-Valine", "DL-Cbz valine", "2-(((Benzyloxy)carbonyl)amino)-3-methylbutanoicacid", "3-Methyl-2-(phenylmethoxycarbonylamino)butanoic acid", "2-[[(Benzyloxy)carbonyl]amino]-3-methylbutanoic acid"], "SMILES": "C(NC(OCC1=CC=CC=C1)=O)(C(C)C)C(O)=O", "physical_data": {"Molecular Weight": "251.28", "Molecular Formula": "C13H17NO4", "Melting Point": "72-73 \u00b0C"}}