{"cas_no": "3588-57-6", "cn_name": "CBZ-DL-\u82ef\u4e19\u6c28\u9178", "en_name": ["N-(Benzyloxycarbonyl)-DL-phenylalanine", "Phenylalanine, N-[(phenylmethoxy)carbonyl]-", "Alanine, N-carboxy-3-phenyl-, N-benzyl ester, DL-", "N-[(Phenylmethoxy)carbonyl]phenylalanine", "Carbobenzoxy-DL-phenylalanine", "N-(Benzyloxycarbonyl)-dl-phenylalanine", "N-(Benzyloxycarbonyl)-DL-phenylalanine", "DL-N-(Benzoxycarbonyl)phenylalanine", "N-Carbobenzoxy-DL-phenylalanine", "DL-(Carbobenzyloxy)phenylalanine", "2-((Benzyloxycarbonyl)amino)-3-phenylpropanoic acid", "NSC 333486", "DL-Cbz phenylalanine", "N-(Carbobenzyloxy)-DL-phenylalanine", "3-Phenyl-2-(phenylmethoxycarbonylamino)propanoic acid"], "SMILES": "C(CC1=CC=CC=C1)(NC(OCC2=CC=CC=C2)=O)C(O)=O", "physical_data": {"Molecular Weight": "299.32", "Molecular Formula": "C17H17NO4", "Melting Point": "102-103 \u00b0C"}}