{"cas_no": "3588-17-8", "cn_name": "\u53cd\u5f0f,\u53cd\u5f0f-1,3-\u4e01\u4e8c\u70ef-1,4-\u4e8c\u7fa7\u9178", "en_name": ["trans,trans-Muconic acid", "2,4-Hexadienedioic acid, (2E,4E)-", "2,4-Hexadienedioic acid, (E,E)-", "(2E,4E)-2,4-Hexadienedioic acid", "trans,trans-Muconic acid", "(E,E)-Muconic acid", "NSC 66486", "trans,trans-2,4-Hexadienedioic acid", "(E,E)-1,3-Butadiene-1,4-dicarboxylic acid"], "SMILES": "C(C=CC(O)=O)=CC(O)=O", "physical_data": {"Molecular Weight": "142.11", "Molecular Formula": "C6H6O4", "Melting Point": "301 \u00b0C"}}