{"cas_no": "3588-76-9", "cn_name": "4-\u6c28\u57fa-3-\u7f9f\u57fa\u82ef\u78fa\u9170\u80fa", "en_name": ["2-Aminophenol-5-sulfonamide", "Benzenesulfonamide, 4-amino-3-hydroxy-", "Sulfanilamide, 3-hydroxy-", "1-Phenol-3-sulfonamide, 6-amino-", "4-Amino-3-hydroxybenzenesulfonamide", "2-Aminophenol-5-sulfonamide", "3-Hydroxysulfanilamide"], "SMILES": "S(N)(=O)(=O)C1=CC(O)=C(N)C=C1", "physical_data": {"Molecular Weight": "188.20", "Molecular Formula": "C6H8N2O3S", "Melting Point": "164 \u00b0C"}}