{"cas_no": "35891-70-4", "cn_name": "\u591a\u7403\u58f3\u83cc\u7d20", "en_name": ["(+)-Myriocin", "6-Eicosenoic acid, 2-amino-3,4-dihydroxy-2-(hydroxymethyl)-14-oxo-, (2S,3R,4R,6E)-", "6-Eicosenoic acid, 2-amino-3,4-dihydroxy-2-(hydroxymethyl)-14-oxo-, [2S-(2R*,3S*,4S*,6E)]-", "(2S,3R,4R,6E)-2-Amino-3,4-dihydroxy-2-(hydroxymethyl)-14-oxo-6-eicosenoic acid", "Myriocin", "Thermozymocidin", "(2S,3R,4R)-(E)-2-Amino-3,4-dihydroxy-2-hydroxymethyl-14-oxoeicos-6-enoic acid", "ISP-I", "(+)-Myriocin", "NSC 177379"], "SMILES": "C(C(C(CC=CCCCCCCC(CCCCCC)=O)O)O)(C(O)=O)(CO)N", "physical_data": {"Molecular Weight": "401.54", "Molecular Formula": "C21H39NO6", "Melting Point": "170-172 \u00b0C"}}