{"cas_no": "35891-93-1", "cn_name": "\u76d0\u9178\u59a5\u5361\u5c3c", "en_name": ["Tocainide hydrochloride", "Propanamide, 2-amino-N-(2,6-dimethylphenyl)-, hydrochloride (1:1)", "Propanamide, 2-amino-N-(2,6-dimethylphenyl)-, monohydrochloride, (\u00b1)-", "Propanamide, 2-amino-N-(2,6-dimethylphenyl)-, monohydrochloride", "2-Amino-2\u2032,6\u2032-propionoxylidide hydrochloride", "Tocainide hydrochloride", "Tonocard", "Taquidil", "Xylotocan"], "SMILES": "N(C(C(C)N)=O)C1=C(C)C=CC=C1C.Cl", "physical_data": {"Molecular Weight": "", "Molecular Formula": "C11H16N2O.ClH", "Melting Point": "246-247 \u00b0C"}}