{"cas_no": "35897-13-3", "cn_name": "\u4e59\u91783-\u7532\u57fa\u620a\u916f", "en_name": ["1-Pentanol, 3-methyl-, 1-acetate", "1-Pentanol, 3-methyl-, 1-acetate", "1-Pentanol, 3-methyl-, acetate", "3-Methyl-1-pentyl acetate", "3-Methylpentyl acetate"], "SMILES": "C(CCOC(C)=O)(CC)C", "physical_data": {"Molecular Weight": "144.21", "Molecular Formula": "C8H16O2", "Boiling Point": "164-165 \u00b0C"}}