{"cas_no": "3589-73-9", "cn_name": "6-\u7532\u6c27\u57fa\u54c8\u9a6c\u5170", "en_name": ["6-Methoxyharmalan", "3H-Pyrido[3,4-b]indole, 4,9-dihydro-6-methoxy-1-methyl-", "4,9-Dihydro-6-methoxy-1-methyl-3H-pyrido[3,4-b]indole", "6-Methoxy-1-methyl-3,4-dihydro-\u03b2-carboline", "6-Methoxyharmalan", "6-Methoxyharmalane"], "SMILES": "O(C)C=1C=C2C3=C(NC2=CC1)C(C)=NCC3", "physical_data": {"Molecular Weight": "214.26", "Molecular Formula": "C13H14N2O", "Melting Point": "208-209 \u00b0C"}}