{"cas_no": "359-37-5", "cn_name": "\u7898\u4e09\u6c1f\u4e59\u70ef", "en_name": ["Iodotrifluoroethylene", "Ethene, 1,1,2-trifluoro-2-iodo-", "Ethylene, trifluoroiodo-", "Ethene, trifluoroiodo-", "1,1,2-Trifluoro-2-iodoethene", "Trifluorovinyl iodide", "Iodotrifluoroethylene", "Perfluorovinyl iodide", "Trifluoroiodoethylene", "1-Iodo-1,2,2-trifluoroethene", "Iodotrifluoroethene", "1,2,2-Trifluoro-1-iodoethene", "Trifluoroiodoethene", "NSC 174158", "1-Iodo-1,2,2-trifluoroethylene", "1,1,2-Trifluoro-2-iodoethylene"], "SMILES": "C(=C(F)I)(F)F", "physical_data": {"Molecular Weight": "207.92", "Molecular Formula": "C2F3I", "Boiling Point": "30 \u00b0C", "Density": "2.284 g/cm\u00b3 @ Temp: 0 \u00b0C"}}