{"cas_no": "359-08-0", "cn_name": "2-\u6eb4-1,1-\u4e8c\u6c1f\u4e59\u70ef", "en_name": ["2-Bromo-1,1-difluoroethene", "Ethene, 2-bromo-1,1-difluoro-", "Ethylene, 2-bromo-1,1-difluoro-", "2-Bromo-1,1-difluoroethene", "1,1-Difluoro-2-bromoethylene", "1-Bromo-2,2-difluoroethene", "2-Bromo-1,1-difluoroethylene", "1-Bromo-2,2-difluoroethylene", "R 1122B1", "2,2-Difluoro-1-bromoethylene", "1,1-Difluoro-2-bromoethene"], "SMILES": "C(=CBr)(F)F", "physical_data": {"Molecular Weight": "142.93", "Molecular Formula": "C2HBrF2", "Boiling Point": "6.1 \u00b0C", "Density": "1.8175 g/cm\u00b3 @ Temp: 0.5 \u00b0C"}}