{"cas_no": "359-38-6", "cn_name": "\u4e8c\u6c1f\u4e59\u9170\u80fa", "en_name": ["2,2-Difluoroacetamide", "Acetamide, 2,2-difluoro-", "2,2-Difluoroacetamide", "Difluoroacetamide"], "SMILES": "C(C(N)=O)(F)F", "physical_data": {"Molecular Weight": "95.05", "Molecular Formula": "C2H3F2NO", "Boiling Point": "108.63 \u00b0C @ Press: 35 Torr", "Melting Point": "51.8 \u00b0C"}}