{"cas_no": "359-41-1", "cn_name": "1,1,1-\u4e09\u6c1f-2,3-\u73af\u6c27\u4e19\u70f7", "en_name": ["2-(Trifluoromethyl)oxirane", "Oxirane, 2-(trifluoromethyl)-", "Propane, 2,3-epoxy-1,1,1-trifluoro-", "Oxirane, (trifluoromethyl)-", "2-(Trifluoromethyl)oxirane", "1,2-Epoxy-3,3,3-trifluoropropane", "3,3,3-Trifluoro-1,2-epoxypropane", "3,3,3-Trifluoropropene oxide", "3,3,3-Trifluoropropene epoxide", "3,3,3-Trifluoropropylene oxide", "Trifluoromethyloxirane", "1,1,1-Trifluoro-2,3-epoxypropane", "2-Trifluoromethyloxirane", "Trifluoroepoxypropane"], "SMILES": "C(F)(F)(F)C1CO1", "physical_data": {"Molecular Weight": "112.05", "Molecular Formula": "C3H3F3O", "Boiling Point": "39.1-39.3 \u00b0C @ Press: 748.3 Torr", "Density": "1.382 g/cm\u00b3 @ Temp: 20 \u00b0C"}}