{"cas_no": "359-70-6", "cn_name": "\u5168\u6c1f\u4e09\u4e59\u80fa", "en_name": ["Perfluorotriethylamine", "Ethanamine, 1,1,2,2,2-pentafluoro-N,N-bis(1,1,2,2,2-pentafluoroethyl)-", "Triethylamine, pentadecafluoro-", "Ethanamine, 1,1,2,2,2-pentafluoro-N,N-bis(pentafluoroethyl)-", "1,1,2,2,2-Pentafluoro-N,N-bis(1,1,2,2,2-pentafluoroethyl)ethanamine", "Perfluorotriethylamine", "Pentadecafluorotriethylamine", "Tri(perfluoroethyl)amine", "Tris(pentafluoroethyl)amine", "Tris(perfluoroethyl) amine", "FC 131 (amine)", "FC 131"], "SMILES": "N(C(C(F)(F)F)(F)F)(C(C(F)(F)F)(F)F)C(C(F)(F)F)(F)F", "physical_data": {"Molecular Weight": "371.05", "Molecular Formula": "C6F15N", "Boiling Point": "71 \u00b0C", "Melting Point": "-110 \u00b0C", "Density": "1.736 g/cm\u00b3 @ Temp: 25 \u00b0C"}}