{"cas_no": "359-07-9", "cn_name": "1-\u6eb4-2,2-\u4e8c\u6c1f\u4e59\u70f7", "en_name": ["2-Bromo-1,1-difluoroethane", "Ethane, 2-bromo-1,1-difluoro-", "2-Bromo-1,1-difluoroethane", "2,2-Difluoroethyl bromide", "1-Bromo-2,2-difluoroethane", "2,2-Difluoro-1-bromoethane"], "SMILES": "C(CBr)(F)F", "physical_data": {"Molecular Weight": "144.95", "Molecular Formula": "C2H3BrF2", "Boiling Point": "57.3 \u00b0C", "Melting Point": "-75 \u00b0C"}}