{"cas_no": "359-35-3", "cn_name": "1,1,2,2-\u56db\u6c1f\u4e59\u70f7", "en_name": ["1,1,2,2-Tetrafluoroethane", "Ethane, 1,1,2,2-tetrafluoro-", "1,1,2,2-Tetrafluoroethane", "Freon 134", "R 134", "HFC 134", "F 134", "FC 134", "Fron 134", "\u03b1,\u03c9-Dihydroperfluoroethane", "R 134 (fluorocarbon)", "KLEA 134", "HFO 134", "HFA"], "SMILES": "C(C(F)F)(F)F", "physical_data": {"Molecular Weight": "102.03", "Molecular Formula": "C2H2F4", "Boiling Point": "-19.9 \u00b0C", "Melting Point": "-89 \u00b0C"}}