{"cas_no": "359-04-6", "cn_name": "1-CHLORO-1,2-DIFLUOROETHYLENE", "en_name": ["Ethene, 1-chloro-1,2-difluoro-", "Ethene, 1-chloro-1,2-difluoro-", "Ethylene, 1-chloro-1,2-difluoro-", "1-Chloro-1,2-difluoroethylene", "HCFC 1122a", "F 1122a", "1-Chloro-1,2-difluoroethene", "HCFO 1122a"], "SMILES": "C(=CF)(Cl)F", "physical_data": {"Molecular Weight": "98.48", "Molecular Formula": "C2HClF2", "Boiling Point": "-15 \u00b0C"}}