{"cas_no": "359-10-4", "cn_name": "2-\u6c2f-1,1-\u4e8c\u6c1f\u4e59\u70ef", "en_name": ["Ethene, 2-chloro-1,1-difluoro-", "Ethene, 2-chloro-1,1-difluoro-", "Ethylene, 2-chloro-1,1-difluoro-", "1,1-Difluoro-2-chloroethylene", "1,1-Difluoro-2-chloroethene", "2-Chloro-1,1-difluoroethene", "2,2-Difluoro-1-chloroethene", "2-Chloro-1,1-difluoroethylene", "1,1-Difluorochloroethylene", "HCFC 1122", "R 1122", "FC 1122", "F 1122", "1-Chloro-2,2-difluoroethylene", "1-Chloro-2,2-difluoroethene", "HCFO 1122", "HFO 1122"], "SMILES": "C(=CCl)(F)F", "physical_data": {"Molecular Weight": "98.48", "Molecular Formula": "C2HClF2", "Boiling Point": "-18.5 \u00b0C", "Melting Point": "-138.5 \u00b0C"}}