{"cas_no": "359-06-8", "cn_name": "\u6c1f\u4e59\u9170\u57fa \u6c2f", "en_name": ["2-Fluoroacetyl chloride", "Acetyl chloride, 2-fluoro-", "Acetyl chloride, fluoro-", "2-Fluoroacetyl chloride", "Fluoroacetyl chloride"], "SMILES": "C(CF)(Cl)=O", "physical_data": {"Molecular Weight": "96.49", "Molecular Formula": "C2H2ClFO", "Boiling Point": "70-71 \u00b0C @ Press: 755 Torr", "Melting Point": "101 \u00b0C", "Density": "1.3813 g/cm\u00b3 @ Temp: 20 \u00b0C"}}