{"cas_no": "35900-26-6", "cn_name": "4-\u7532\u57fa-5-\u58ec\u916e", "en_name": ["4-Methyl-5-nonanone", "5-Nonanone, 4-methyl-", "4-Methyl-5-nonanone"], "SMILES": "C(C(CCC)C)(CCCC)=O", "physical_data": {"Molecular Weight": "156.27", "Molecular Formula": "C10H20O", "Melting Point": "85 \u00b0C"}}