{"cas_no": "3590-84-9", "cn_name": "\u56db\u8f9b\u57fa\u9521", "en_name": ["Tetraoctylstannane", "Stannane, tetraoctyl-", "Tin, tetraoctyl-", "Tetraoctylstannane", "Tetraoctyltin", "Tetra-n-octyltin", "Tetra-n-octylstannane", "NSC 65527"], "SMILES": "[Sn](CCCCCCCC)(CCCCCCCC)(CCCCCCCC)CCCCCCCC", "physical_data": {"Molecular Weight": "571.59", "Molecular Formula": "C32H68Sn", "Boiling Point": "224 \u00b0C @ Press: 1 Torr", "Density": "0.961 g/cm\u00b3"}}