{"cas_no": "35927-38-9", "cn_name": "\u7ef4\u91c7\u5b81-1", "en_name": ["Vicenin 1", "4H-1-Benzopyran-4-one, 8-\u03b2-D-glucopyranosyl-5,7-dihydroxy-2-(4-hydroxyphenyl)-6-\u03b2-D-xylopyranosyl-", "8-\u03b2-D-Glucopyranosyl-5,7-dihydroxy-2-(4-hydroxyphenyl)-6-\u03b2-D-xylopyranosyl-4H-1-benzopyran-4-one", "Vicenin 1", "6-C-Xylosyl-8-C-glucosylapigenin", "Vitexin 1", "6-C-\u03b2-D-Xylopyranosyl-8-C-\u03b2-D-glucopyranosylapigenin"], "SMILES": "OC=1C(=C2C(=C(O)C1C3C(O)C(O)C(O)CO3)C(=O)C=C(O2)C4=CC=C(O)C=C4)C5OC(CO)C(O)C(O)C5O", "physical_data": {"Molecular Weight": "564.49", "Molecular Formula": "C26H28O14", "Melting Point": "230 \u00b0C (decomp)"}}