{"cas_no": "3592-12-9", "cn_name": "5,5-\u4e8c\u7532-1,3-\u4e8c\u6076\u70f7-2-\u916e", "en_name": ["2,2-Dimethyltrimethylene carbonate", "1,3-Dioxan-2-one, 5,5-dimethyl-", "Carbonic acid, cyclic 2,2-dimethyltrimethylene ester", "Carbonic acid, 2,2-dimethyltrimethylene ester", "5,5-Dimethyl-1,3-dioxan-2-one", "Cyclic 2,2-dimethyltrimethylene carbonate", "Neopentylene carbonate", "5,5-Dimethyl-2-oxo-1,3-dioxane", "5,5-Dimethyl-1,3-dioxane-2-one", "2,2-Dimethyltrimethylene carbonate", "Neopentyl glycol carbonate", "NSC 14669", "Cyclic 2,2-dimethylpropane carbonate", "5,5-Dimethyltrimethylene carbonate"], "SMILES": "CC1(C)COC(=O)OC1", "physical_data": {"Molecular Weight": "130.14", "Molecular Formula": "C6H10O3", "Boiling Point": "110-120 \u00b0C @ Press: 1 Torr", "Melting Point": "110-111 \u00b0C"}}