{"cas_no": "3592-25-4", "cn_name": "1,5-\u4e8c\u6c2f-3-\u620a\u916e", "en_name": ["1,5-Dichloro-3-pentanone", "3-Pentanone, 1,5-dichloro-", "1,5-Dichloro-3-pentanone", "Bis(2-chloroethyl) ketone"], "SMILES": "C(CCCl)(CCCl)=O", "physical_data": {"Molecular Weight": "155.02", "Molecular Formula": "C5H8Cl2O", "Boiling Point": "74 \u00b0C @ Press: 0.8 Torr"}}