{"cas_no": "35935-34-3", "cn_name": "1-\u4e59\u57fa-3-\u7532\u57fa\u7898\u5316\u54aa\u5511\u9393", "en_name": ["1H-Imidazolium, 3-ethyl-1-methyl-, iodide (1:1)", "1H-Imidazolium, 3-ethyl-1-methyl-, iodide (1:1)", "1H-Imidazolium, 1-ethyl-3-methyl-, iodide", "1-Methylimidazole ethiodide", "1-Ethylimidazole methiodide", "1-Ethyl-3-methylimidazolium iodide", "1-Methyl-3-ethylimidazolium iodide", "1-Ethyl-1H-3-methylimidazolium iodide"], "SMILES": "C(C)[N+]1=CN(C)C=C1.[I-]", "physical_data": {"Molecular Weight": "", "Molecular Formula": "C6H11N2.I", "Melting Point": "80-82 \u00b0C"}}