{"cas_no": "35948-25-5", "cn_name": "9,10-\u4e8c\u6c22-9-\u6c27\u6742-10-\u78f7\u6742\u83f2-10-\u6c27\u5316\u7269", "en_name": ["9,10-Dihydro-9-oxa-10-phosphaphenanthrene 10-oxide", "6H-Dibenz[c,e][1,2]oxaphosphorin, 6-oxide", "3,4:5,6-Dibenzo-2H-1,2-oxaphosphorin-2-oxide", "9,10-Dihydro-9-oxa-10-phosphaphenanthrene 10-oxide", "HCA (heat stabilizer)", "HCA", "Hiretar 101", "Sanko HCA", "DOPO", "9,10-Dihydro-9-oxa-10-phosphorylphenanthrene 10-oxide", "Ukanol DOPO", "Ukanol GKF", "Epoclean", "Struktol Polydis 3710", "Polydis 3710", "KFR-DOPO", "Chemguard DOPO", "Polyphlox 3742", "DOP 11S25", "Polyphlox 3710", "Nofia OL 3001P", "IDB-DPP"], "SMILES": "O=P1C=2C(C=3C(O1)=CC=CC3)=CC=CC2", "physical_data": {"Molecular Weight": "216.17", "Molecular Formula": "C12H9O2P", "Melting Point": "119-121 \u00b0C"}}