{"cas_no": "35943-35-2", "cn_name": "\u66f2\u897f\u745e\u5bbe", "en_name": ["Triciribine", "1,4,5,6,8-Pentaazaacenaphthylen-3-amine, 1,5-dihydro-5-methyl-1-\u03b2-D-ribofuranosyl-", "1,5-Dihydro-5-methyl-1-\u03b2-D-ribofuranosyl-1,4,5,6,8-pentaazaacenaphthylen-3-amine", "6-Amino-4-methyl-8-(\u03b2-D-ribofuranosyl)-4H,8H-pyrrolo[4,3,2-de]pyrimido[4,5-c]pyridazine", "NSC 154020", "Triciribine", "TCN", "API 2", "AKT Inhibitor V", "Triciribidine"], "SMILES": "NC=1C=2C=3C(N(C2)C4OC(CO)C(O)C4O)=NC=NC3N(C)N1", "physical_data": {"Molecular Weight": "320.30", "Molecular Formula": "C13H16N6O4", "Melting Point": "205 \u00b0C (decomp)"}}