{"cas_no": "35941-71-0", "cn_name": "4-[(5-\u6c2f-2-\u6c27\u4ee3-2H-\u82ef\u5e76\u567b\u5511-3-\u57fa)\u4e59\u9170\u57fa]\u54cc\u55ea-1-\u4e59\u9187\u5355\u76d0\u9178\u76d0", "en_name": ["2(3H)-Benzothiazolone, 5-chloro-3-[2-[4-(2-hydroxyethyl)-1-piperazinyl]-2-oxoethyl]-, hydrochloride (1:1)", "2(3H)-Benzothiazolone, 5-chloro-3-[2-[4-(2-hydroxyethyl)-1-piperazinyl]-2-oxoethyl]-, hydrochloride (1:1)", "1-Piperazineethanol, 4-[(5-chloro-2-oxo-3(2H)-benzothiazolyl)acetyl]-, monohydrochloride", "Tiaramide hydrochloride", "Solantal", "RHC 2592", "FK 1160", "NTA 194", "NSC 289337"], "SMILES": "C(C(=O)N1CCN(CCO)CC1)N2C=3C(SC2=O)=CC=C(Cl)C3.Cl", "physical_data": {"Molecular Weight": "", "Molecular Formula": "C15H18ClN3O3S.ClH", "Melting Point": "159-161 \u00b0C"}}