{"cas_no": "35944-64-0", "cn_name": "3-\u7898-4-\u7532\u57fa\u82ef\u80fa", "en_name": ["3-Iodo-4-methylbenzenamine", "Benzenamine, 3-iodo-4-methyl-", "3-Iodo-4-methylbenzenamine", "3-Iodo-p-toluidine", "4-Amino-2-iodotoluene", "3-Iodo-4-methylaniline", "3-Iodo-4-methylphenylamine"], "SMILES": "IC1=C(C)C=CC(N)=C1", "physical_data": {"Molecular Weight": "233.05", "Molecular Formula": "C7H8IN", "Melting Point": "40 \u00b0C"}}