{"cas_no": "35944-74-2", "cn_name": "\u76d0\u9178\u7f8e\u6258\u54aa\u916f", "en_name": ["1H-Imidazole-5-carboxylic acid, 1-(1-phenylethyl)-, methyl ester, hydrochloride (1:1)", "1H-Imidazole-5-carboxylic acid, 1-(1-phenylethyl)-, methyl ester, hydrochloride (1:1)", "1H-Imidazole-5-carboxylic acid, 1-(1-phenylethyl)-, methyl ester, monohydrochloride", "Imidazole-5-carboxylic acid, 1-(\u03b1-methylbenzyl)-, methyl ester, hydrochloride", "Metomidate hydrochloride", "NSC 168403"], "SMILES": "C(C)(N1C(C(OC)=O)=CN=C1)C2=CC=CC=C2.Cl", "physical_data": {"Molecular Weight": "", "Molecular Formula": "C13H14N2O2.ClH", "Melting Point": "173-174 \u00b0C"}}