{"cas_no": "35946-91-9", "cn_name": "\u4e50\u679c(\u6709\u673a\u78f7\u6740\u866b\u3001\u6740\u87a8\u5242)-D6", "en_name": ["2,5-Diisopropylphenol", "Phenol, 2,5-bis(1-methylethyl)-", "Phenol, 2,5-diisopropyl-", "2,5-Bis(1-methylethyl)phenol", "2,5-Diisopropylphenol", "2,5-Di(propan-2-yl)phenol", "2,5-Bis(propan-2-yl)phenol", "3,6-Di-isopropyl-phenol"], "SMILES": "C(C)(C)C1=CC(O)=C(C(C)C)C=C1", "physical_data": {"Molecular Weight": "178.27", "Molecular Formula": "C12H18O", "Boiling Point": "115-120 \u00b0C"}}