{"cas_no": "35951-28-1", "cn_name": "2-\u6c2f\u73af\u5341\u4e8c\u916e", "en_name": ["2-Chlorocyclododecanone", "Cyclododecanone, 2-chloro-", "2-Chlorocyclododecanone", "\u03b1-Chloro-1-cyclododecanone", "2-Chloro-1-cyclododecanone", "\u03b1-Chlorocyclododecanone"], "SMILES": "ClC1C(=O)CCCCCCCCCC1", "physical_data": {"Molecular Weight": "216.75", "Molecular Formula": "C12H21ClO", "Boiling Point": "117-118 \u00b0C", "Melting Point": "59-60 \u00b0C"}}