{"cas_no": "35966-84-8", "cn_name": "5-\u6c2f-N-\u7532\u57fa-2-\u785d\u57fa\u82ef\u80fa", "en_name": ["5-Chloro-N-methyl-2-nitrobenzenamine", "Benzenamine, 5-chloro-N-methyl-2-nitro-", "Aniline, 5-chloro-N-methyl-2-nitro-", "5-Chloro-N-methyl-2-nitrobenzenamine", "N-Methyl-5-chloro-2-nitroaniline", "5-Chloro-N-methyl-2-nitroaniline", "4-Chloro-2-(methylamino)nitrobenzene", "NSC 86687"], "SMILES": "N(C)C1=C(N(=O)=O)C=CC(Cl)=C1", "physical_data": {"Molecular Weight": "186.60", "Molecular Formula": "C7H7ClN2O2", "Melting Point": "100-102 \u00b0C"}}