{"cas_no": "35963-20-3", "cn_name": "\u5de6\u65cb\u6a1f\u8111\u78fa\u9178", "en_name": ["(-)-Camphorsulfonic acid", "Bicyclo[2.2.1]heptane-1-methanesulfonic acid, 7,7-dimethyl-2-oxo-, (1R,4S)-", "Bicyclo[2.2.1]heptane-1-methanesulfonic acid, 7,7-dimethyl-2-oxo-, (1R)-", "(1R,4S)-7,7-Dimethyl-2-oxobicyclo[2.2.1]heptane-1-methanesulfonic acid", "(-)-10-Camphorsulfonic acid", "l-Camphorsulfonic acid", "(-)-Camphorsulfonic acid", "(1R)-(-)-10-Camphorsulfonic acid", "(1R)-10-Camphorsulfonic acid", "l-10-Camphorsulfonic acid", "(-)-(1R)-7,7-Dimethyl-2-oxobicyclo[2.2.1]heptane-1-methanesulfonic acid", "(1R)-Camphorsulfonic acid", "(R)-(-)-10-Camphorsulfonic acid", "(R)-Camphor-10-sulfonic acid", "(R)-(-)-CSA", "L(-)-Camphor-10-sulfonic acid", "((1R,4S)-7,7-Dimethyl-2-oxobicyclo[2.2.1]heptan-1-yl)methanesulfonic acid", "(-)-CSA"], "SMILES": "C(S(=O)(=O)O)C12C(C)(C)C(CC1=O)CC2", "physical_data": {"Molecular Weight": "232.30", "Molecular Formula": "C10H16O4S", "Melting Point": "39 \u00b0C"}}