{"cas_no": "35963-37-2", "cn_name": "\u6866\u8910\u5b54\u83cc\u9187", "en_name": ["Inotodiol", "Lanosta-8,24-diene-3,22-diol, (3\u03b2,22R)-", "Inotodiol", "Lanosta-8,24-diene-3\u03b2,22-diol", "(3\u03b2,22R)-Lanosta-8,24-diene-3,22-diol"], "SMILES": "CC12C3=C(C4(C)C(C)(CC3)C(C(C(CC=C(C)C)O)C)CC4)CCC1C(C)(C)C(O)CC2", "physical_data": {"Molecular Weight": "442.72", "Molecular Formula": "C30H50O2", "Melting Point": "191-193 \u00b0C"}}