{"cas_no": "3597-91-9", "cn_name": "4-\u8054\u82ef\u7532\u9187", "en_name": ["[1,1\u2032-Biphenyl]-4-methanol", "[1,1\u2032-Biphenyl]-4-methanol", "4-Biphenylmethanol", "p-Phenylbenzyl alcohol", "4-(Hydroxymethyl)biphenyl", "4HMB", "4-Biphenylylmethanol", "4-Phenylbenzyl alcohol", "4-Hydroxymethyl-1,1\u2032-biphenyl", "NSC 233860", "NSC 84169", "(4-Phenylphenyl)methanol", "(1,1\u2032-Biphenyl-4-yl)methanol", "([1,1\u2032-Biphenyl]-4-ylmethyl)alcohol"], "SMILES": "C(O)C1=CC=C(C=C1)C2=CC=CC=C2", "physical_data": {"Molecular Weight": "184.23", "Molecular Formula": "C13H12O", "Boiling Point": "183-184 \u00b0C @ Press: 11 Torr", "Melting Point": "101-102 \u00b0C"}}