{"cas_no": "35978-39-3", "cn_name": "5-\u82ef\u57fa-3H-\u567b\u5429[2,3-D]-\u5627\u5576-4-\u916e", "en_name": ["5-Phenylthieno[2,3-d]pyrimidin-4(1H)-one", "Thieno[2,3-d]pyrimidin-4(1H)-one, 5-phenyl-", "Thieno[2,3-d]pyrimidin-4-ol, 5-phenyl-", "5-Phenylthieno[2,3-d]pyrimidin-4(1H)-one", "5-Phenylthieno[2,3-d]pyrimidin-4(3H)-one"], "SMILES": "O=C1C=2C(=CSC2NC=N1)C3=CC=CC=C3", "physical_data": {"Molecular Weight": "228.27", "Molecular Formula": "C12H8N2OS", "Melting Point": "216 \u00b0C"}}