{"cas_no": "35975-00-9", "cn_name": "5-\u6c28\u57fa-6-\u785d\u57fa\u55b9\u5549", "en_name": ["5-Amino-6-nitroquinoline", "5-Quinolinamine, 6-nitro-", "6-Nitro-5-quinolinamine", "5-Amino-6-nitroquinoline"], "SMILES": "NC=1C2=C(C=CC1N(=O)=O)N=CC=C2", "physical_data": {"Molecular Weight": "189.17", "Molecular Formula": "C9H7N3O2", "Melting Point": "272 \u00b0C (decomp)"}}