{"cas_no": "3598-37-6", "cn_name": "\u4e59\u9170\u4e19\u55ea\u9a6c\u6765\u9178\u916f", "en_name": ["Acepromazine maleate", "Ethanone, 1-[10-[3-(dimethylamino)propyl]-10H-phenothiazin-2-yl]-, (2Z)-2-butenedioate (1:1)", "Ketone, 10-[3-(dimethylamino)propyl]phenothiazin-2-yl methyl, maleate (1:1)", "Ethanone, 1-[10-[3-(dimethylamino)propyl]-10H-phenothiazin-2-yl]-, (Z)-2-butenedioate (1:1)", "Ketone, 10-[3-(dimethylamino)propyl]phenothiazin-2-yl methyl, maleate", "Maleic acid, compd. with 10-(3-dimethylaminopropyl)phenothiazin-2-yl methyl ketone", "Acepromazine maleate", "Acepromazine monomaleate", "Anatran", "Notenzil", "Plegicil", "Soprontin", "Acetylpromazine maleate", "Atravet", "Sedalin", "Calmivet", "Notensil", "NSC 264522", "Acetopromazine maleate salt", "Calmo Neosan", "Acepran"], "SMILES": "C(CCN(C)C)N1C=2C(SC=3C1=CC=CC3)=CC=C(C(C)=O)C2.C(=CC(O)=O)C(O)=O", "physical_data": {"Molecular Weight": "", "Molecular Formula": "C19H22N2OS.C4H4O4", "Melting Point": "135-136 \u00b0C"}}