{"cas_no": "3598-16-1", "cn_name": "\u82ef\u6c27\u4e59\u9178\u94a0", "en_name": ["Sodium phenoxyacetate", "Acetic acid, 2-phenoxy-, sodium salt (1:1)", "Acetic acid, phenoxy-, sodium salt", "Sodium phenoxyacetate"], "SMILES": "O(CC(O)=O)C1=CC=CC=C1.[Na]", "physical_data": {"Molecular Weight": "", "Molecular Formula": "C8H8O3.Na", "Melting Point": "216 \u00b0C"}}