{"cas_no": "3599-89-1", "cn_name": "\u4e19\u8112\u76d0\u9178\u76d0", "en_name": ["Propanimidamide, monohydrochloride", "Propanimidamide, monohydrochloride", "Propionamidine, hydrochloride", "Propioamidine hydrochloride", "Propanamidine hydrochloride", "Propanimidamide hydrochloride", "Propionimidamide hydrochloride"], "SMILES": "C(CC)(=N)N.Cl", "physical_data": {"Molecular Weight": "", "Molecular Formula": "C3H8N2.ClH", "Melting Point": "298.5 \u00b0C"}}