{"cas_no": "360-70-3", "cn_name": "\u7678\u9178\u8bfa\u9f99", "en_name": ["Nandrolone decanoate", "Estr-4-en-3-one, 17-[(1-oxodecyl)oxy]-, (17\u03b2)-", "Estr-4-en-3-one, 17\u03b2-hydroxy-, decanoate", "Decanoic acid, ester with 17\u03b2-hydroxyestr-4-en-3-one", "(17\u03b2)-17-[(1-Oxodecyl)oxy]estr-4-en-3-one", "Deca-Durabolin", "17\u03b2-Hydroxyestr-4-en-3-one decanoate", "Nandrolone decanoate", "19-Norandrostenolone decanoate", "19-Nor-17\u03b2-hydroxy-3-ketoandrost-4-ene 17-decanoate", "19-Nortestosterone decanoate", "19-Nortestosterone 17\u03b2-decanoate", "Norandrostenolone decanoate", "Retabolil", "17\u03b2-Hydroxyestr-4-en-3-one 17-decanoate", "17\u03b2-Hydroxy-19-norandrost-4-en-3-one 17-decanoate", "Deca-Durabol", "Nortestosterone decanoate", "Anabolicum", "Decanofort", "Extraboline", "Hybolin decanoate", "Nandrobolic LA", "Deca-Hybolin", "Anabolin Forte", "17\u03b2-Nandrolone laureate", "17\u03b2-Nortestosterone laureate", "DECA-Deca-Durabolin", "4-Estrene-17\u03b2-ol-3-one decanoate"], "SMILES": "CC12C(C3C(C4C(CC3)=CC(=O)CC4)CC1)CCC2OC(CCCCCCCCC)=O", "physical_data": {"Molecular Weight": "428.65", "Molecular Formula": "C28H44O3", "Melting Point": "32-35 \u00b0C"}}