{"cas_no": "360-97-4", "cn_name": "4-\u6c28\u57fa-5-\u54aa\u5511\u7532\u9170\u80fa", "en_name": ["5-Aminoimidazole-4-carboxamide", "1H-Imidazole-4-carboxamide, 5-amino-", "Imidazole-4-carboxamide, 5-amino-", "5-Amino-1H-imidazole-4-carboxamide", "AIC", "4-Aminoimidazole-5-carboxamide", "5-Aminoimidazole-4-carboxamide", "AICA", "Ba 2756", "4-Carboxamido-5-aminoimidazole", "4-Carbamoyl-5-aminoimidazole", "5-Amino-4-carbamoylimidazole", "NSC 7784", "4-Amino-5-carbamoylimidazole", "5-Amino-1H-imidazole-4-carboxylic acid amide", "5-Amino-3H-imidazole-4-carboxamide", "4-Amino-1H-imidazole-5-carboxamide"], "SMILES": "C(N)(=O)C1=C(N)N=CN1", "physical_data": {"Molecular Weight": "126.12", "Molecular Formula": "C4H6N4O", "Melting Point": "255-256 \u00b0C (decomp)"}}