{"cas_no": "360-89-4", "cn_name": "\u5168\u6c1f2-\u4e01\u70ef", "en_name": ["Perfluoro-2-butene", "2-Butene, 1,1,1,2,3,4,4,4-octafluoro-", "2-Butene, octafluoro-", "1,1,1,2,3,4,4,4-Octafluoro-2-butene", "Perfluoro-2-butene", "Octafluoro-2-butene", "Perfluorobutene-2", "Perfluoro-1-methylpropene", "R 1318my", "FC 1318"], "SMILES": "C(=C(C(F)(F)F)F)(C(F)(F)F)F", "physical_data": {"Molecular Weight": "200.03", "Molecular Formula": "C4F8", "Boiling Point": "1.5 \u00b0C", "Melting Point": "-129 \u00b0C", "Density": "1.5297 g/cm\u00b3 @ Temp: 0 \u00b0C"}}