{"cas_no": "360-65-6", "cn_name": "\u7518\u6c28\u8131\u6c27\u80c6\u9178", "en_name": ["Glycodeoxycholic acid", "Glycine, N-[(3\u03b1,5\u03b2,12\u03b1)-3,12-dihydroxy-24-oxocholan-24-yl]-", "Glycodeoxycholic acid", "Glycine, N-(3\u03b1,12\u03b1-dihydroxy-5\u03b2-cholan-24-oyl)-", "5\u03b2-Cholan-24-amide, N-(carboxymethyl)-3\u03b1,12\u03b1-dihydroxy-", "Cholane, glycine deriv.", "N-[(3\u03b1,5\u03b2,12\u03b1)-3,12-Dihydroxy-24-oxocholan-24-yl]glycine", "Deoxycholic acid glycine conjugate", "Deoxycholylglycine", "Glycodesoxycholic acid", "Glycyldeoxycholic acid", "Deoxyglycocholic acid", "3\u03b1,12\u03b1-Dihydroxy-5\u03b2-cholanic acid-24-glycine", "ZINC 08837267", "MeSH ID: D006002"], "SMILES": "CC12C(C3C(C4(C)C(CC3)CC(O)CC4)CC1O)CCC2C(CCC(NCC(O)=O)=O)C", "physical_data": {"Molecular Weight": "449.62", "Molecular Formula": "C26H43NO5", "Melting Point": "184 \u00b0C"}}