{"cas_no": "360-64-5", "cn_name": "2-(\u4e09\u6c1f\u7532\u57fa)\u82ef\u7532\u9170\u80fa", "en_name": ["2-(Trifluoromethyl)benzamide", "Benzamide, 2-(trifluoromethyl)-", "o-Toluamide, \u03b1,\u03b1,\u03b1-trifluoro-", "2-(Trifluoromethyl)benzamide"], "SMILES": "C(F)(F)(F)C1=C(C(N)=O)C=CC=C1", "physical_data": {"Molecular Weight": "189.13", "Molecular Formula": "C8H6F3NO", "Melting Point": "160-161 \u00b0C"}}