{"cas_no": "360-53-2", "cn_name": "1-\u7532\u6c27\u57fa-(\u5168\u6c1f-2-\u7532\u57fa-1-\u4e19\u70ef)", "en_name": ["1,3,3,3-Tetrafluoro-1-methoxy-2-(trifluoromethyl)-1-propene", "1-Propene, 1,3,3,3-tetrafluoro-1-methoxy-2-(trifluoromethyl)-", "Ether, methyl 1,3,3,3-tetrafluoro-2-(trifluoromethyl)propenyl", "Ether, methyl tetrafluoro-2-(trifluoromethyl)propenyl", "1,3,3,3-Tetrafluoro-1-methoxy-2-(trifluoromethyl)-1-propene", "Methyl perfluoroisobutenyl ether", "Heptafluoroisobutenyl methyl ether"], "SMILES": "C(=C(OC)F)(C(F)(F)F)C(F)(F)F", "physical_data": {"Molecular Weight": "212.07", "Molecular Formula": "C5H3F7O", "Boiling Point": "101-102 \u00b0C @ Press: 754 Torr", "Density": "1.5078 g/cm\u00b3 @ Temp: 20 \u00b0C"}}