{"cas_no": "360-54-3", "cn_name": "2-(\u4e09\u6c1f\u7532\u57fa)-3,3,3-\u4e09\u5e45\u4e19\u9178\u7532\u916f", "en_name": ["Methyl 3,3,3-trifluoro-2-(trifluoromethyl)propanoate", "Propanoic acid, 3,3,3-trifluoro-2-(trifluoromethyl)-, methyl ester", "Propionic acid, 3,3,3-trifluoro-2-(trifluoromethyl)-, methyl ester", "Methyl 3,3,3-trifluoro-2-(trifluoromethyl)propanoate", "Methyl 3,3,3-trifluoro-2-(trifluoromethyl)propionate", "Methyl \u03b1-hydrohexafluoroisobutyrate", "Methyl 2-trifluoromethyl-3,3,3-trifluoropropionate", "3,3,3-Trifluoro-2-(trifluoromethyl)propanoic acid methyl", "3,3,3-Trifluoro-2-(trifluoromethyl)propanoic acid methyl ester"], "SMILES": "C(C(OC)=O)(C(F)(F)F)C(F)(F)F", "physical_data": {"Molecular Weight": "210.07", "Molecular Formula": "C5H4F6O2", "Boiling Point": "89 \u00b0C @ Press: 743 Torr", "Density": "1.4470 g/cm\u00b3 @ Temp: 20 \u00b0C"}}