{"cas_no": "360-68-9", "cn_name": "\u7caa\u753e\u70f7-3-\u9187", "en_name": ["Coprostanol", "Cholestan-3-ol, (3\u03b2,5\u03b2)-", "5\u03b2-Cholestan-3\u03b2-ol", "(3\u03b2,5\u03b2)-Cholestan-3-ol", "Coprostanol", "Coprosterol", "Koprosterol", "Stercorin", "3\u03b2-Hydroxy-5\u03b2-cholestanol", "Koprosterin", "Coprostan-3\u03b2-ol", "NSC 18175", "NSC 5060", "5\u03b2-Coprostanol", "Coprostan-3-ol"], "SMILES": "CC12C(C3C(C4(C)C(CC3)CC(O)CC4)CC1)CCC2C(CCCC(C)C)C", "physical_data": {"Molecular Weight": "388.67", "Molecular Formula": "C27H48O", "Melting Point": "102 \u00b0C"}}