{"cas_no": "3600-86-0", "cn_name": "2,5-\u4e8c\u7532\u6c27\u57fa\u82ef\u4e59\u80fa", "en_name": ["2,5-Dimethoxyphenethylamine", "Benzeneethanamine, 2,5-dimethoxy-", "Phenethylamine, 2,5-dimethoxy-", "2,5-Dimethoxybenzeneethanamine", "2,5-Dimethoxyphenethylamine", "2-(2,5-Dimethoxyphenyl)ethylamine", "2-Aminoethyl-2,5-dimethoxybenzene", "NSC 168525", "2-(2-Aminoethyl)-1,4-dimethoxybenzene", "2-(2,5-Dimethoxyphenyl)ethanamine", "2-(2,5-Dimethoxyphenyl)ethan-1-amine"], "SMILES": "C(CN)C1=C(OC)C=CC(OC)=C1", "physical_data": {"Molecular Weight": "181.23", "Molecular Formula": "C10H15NO2", "Boiling Point": "148 \u00b0C @ Press: 8 Torr"}}