{"cas_no": "3600-24-6", "cn_name": "\u4e8c\u4e59\u57fa\u4e09\u786b\u919a", "en_name": ["Diethyl trisulfide", "Trisulfide, diethyl", "Ethyl trisulfide", "Diethyl trisulfide", "3,4,5-Trithiaheptane", "Diethyl sulfide (C4H10S3)", "NSC 97329"], "SMILES": "S(SCC)SCC", "physical_data": {"Molecular Weight": "154.32", "Molecular Formula": "C4H10S3", "Boiling Point": "84-85 \u00b0C", "Melting Point": "-72.83 \u00b0C", "Density": "1.1082 g/cm\u00b3 @ Temp: 20 \u00b0C"}}