{"cas_no": "3600-87-1", "cn_name": "2-\u6c28\u57fa-1-(2,5-\u4e8c\u7532\u6c27\u57fa\u82ef\u57fa)\u4e59\u9187", "en_name": ["Desglymidodrine", "Benzenemethanol, \u03b1-(aminomethyl)-2,5-dimethoxy-", "Benzyl alcohol, \u03b1-(aminomethyl)-2,5-dimethoxy-", "\u03b1-(Aminomethyl)-2,5-dimethoxybenzenemethanol", "ST 1059", "1-(2,5-Dimethoxyphenyl)-2-aminoethanol", "Desglymidodrine", "Deglymidodrine", "2-Amino-1-(2,5-dimethoxyphenyl)ethanol", "2-Amino-1-(2\u2032,5\u2032-dimethoxyphenyl)ethanol", "2-Amino-1-(2,5-dimethoxyphenyl)ethan-1-ol"], "SMILES": "C(CN)(O)C1=C(OC)C=CC(OC)=C1", "physical_data": {"Molecular Weight": "197.23", "Molecular Formula": "C10H15NO3", "Melting Point": "95-96 \u00b0C"}}