{"cas_no": "36011-19-5", "cn_name": "\u7ec6\u80de\u677e\u9a70\u7d20 E", "en_name": ["Cytochalasin E", "[1,3]Dioxacyclotridecino[4,5-d]oxireno[f]isoindole-5,10,12(4H,6H)-trione, 3,13,14,14a,15,15a,16a,16b-octahydro-6-hydroxy-4,6,15,15a-tetramethyl-14-(phenylmethyl)-, (1E,4S,6R,7E,11aS,14S,14aS,15S,15aR,16aS,16bS)-", "21,23-Dioxa[13]cytochalasa-13,19-diene-1,17,22-trione, 6,7-epoxy-18-hydroxy-16,18-dimethyl-10-phenyl-, (7S,13E,16S,18R,19E)-", "(1E,4S,6R,7E,11aS,14S,14aS,15S,15aR,16aS,16bS)-3,13,14,14a,15,15a,16a,16b-Octahydro-6-hydroxy-4,6,15,15a-tetramethyl-14-(phenylmethyl)[1,3]dioxacyclotridecino[4,5-d]oxireno[f]isoindole-5,10,12(4H,6H)-trione", "Cytochalasin E", "[1,3]Dioxacyclotridecino[4,5-d]oxireno[f]isoindole-5,10,12(4H,6H)-trione, 3,13,14,14a,15,15a,16a,16b-octahydro-6-hydroxy-4,6,15,15a-tetramethyl-14-(phenylmethyl)-, [4S-(1E,4R*,6S*,7E,11aR*,14R*,14aR*,15R*,15aS*,16aR*,16bR*)]-", "NSC 175151"], "SMILES": "O=C1C23C(C(CC4=CC=CC=C4)N1)C(C)C5(C)C(C2C=CCC(C)C(=O)C(C)(O)C=COC(=O)O3)O5", "physical_data": {"Molecular Weight": "495.56", "Molecular Formula": "C28H33NO7", "Melting Point": "206-208 \u00b0C (decomp)"}}