{"cas_no": "36016-39-4", "cn_name": "N-BOC-O-(2,4,6-\u4e09\u7532\u57fa\u82ef\u78fa\u9170\u57fa)\u7f9f\u80fa", "en_name": ["[(1,1-Dimethylethoxy)carbonyl]azanyl 2,4,6-trimethylbenzenesulfonate", "Benzenesulfonic acid, 2,4,6-trimethyl-, [(1,1-dimethylethoxy)carbonyl]azanyl ester", "Carbamic acid, [[(2,4,6-trimethylphenyl)sulfonyl]oxy]-, 1,1-dimethylethyl ester", "Carbamic acid, hydroxy-, tert-butyl ester, 2-mesitylenesulfonate", "[(1,1-Dimethylethoxy)carbonyl]azanyl 2,4,6-trimethylbenzenesulfonate", "N-tert-Butoxycarbonyl-O-(mesitylsulfonyl)hydroxylamine", "NSC 620029", "1,1-Dimethylethyl [[(2,4,6-trimethylphenyl)sulfonyl]oxy]carbamate", "tert-Butyl (((mesityl)sulfonyl)oxy)carbamate", "[(2-Methylpropan-2-yl)oxycarbonylamino] 2,4,6-trimethylbenzenesulfonate"], "SMILES": "S(ONC(OC(C)(C)C)=O)(=O)(=O)C1=C(C)C=C(C)C=C1C", "physical_data": {"Molecular Weight": "315.39", "Molecular Formula": "C14H21NO5S", "Melting Point": "104-105.5 \u00b0C"}}