{"cas_no": "36016-38-3", "cn_name": "N-\u7f9f\u57fa\u6c28\u57fa\u7532\u9178\u53d4\u4e01\u916f", "en_name": ["tert-Butyl N-hydroxycarbamate", "Carbamic acid, N-hydroxy-, 1,1-dimethylethyl ester", "Carbamic acid, hydroxy-, 1,1-dimethylethyl ester", "Carbamic acid, hydroxy-, tert-butyl ester", "tert-Butoxycarbonylhydroxylamine", "N-(tert-Butoxycarbonyl)hydroxylamine", "tert-Butyl N-hydroxycarbamate", "tert-Butyl hydroxycarbamate", "N-(tert-Butyloxycarbonyl)hydroxylamine", "1,1-Dimethylethyl N-hydroxycarbamate", "N-t-Butyloxycarbonyl hydroxylamine", "Hydroxycarbamic acid 1,1-dimethylethyl ester", "NSC 131086", "NSC 144620", "N-Hydroxycarbamic acid tert-butyl ester", "N-Boc-hydroxylamine", "tert-Butoxyhydroxamic acid", "N-Boc-hydroxyamine"], "SMILES": "O(C(C)(C)C)C(NO)=O", "physical_data": {"Molecular Weight": "133.15", "Molecular Formula": "C5H11NO3", "Melting Point": "58-59 \u00b0C"}}