{"cas_no": "3602-54-8", "cn_name": "2,4-DIHYDROXY-6-METHOXYACETOPHENONE", "en_name": ["1-(2,4-Dihydroxy-6-methoxyphenyl)ethanone", "Ethanone, 1-(2,4-dihydroxy-6-methoxyphenyl)-", "Acetophenone, 2\u2032,4\u2032-dihydroxy-6\u2032-methoxy-", "Acetophenone, 2,4-dihydroxy-6-methoxy-", "1-(2,4-Dihydroxy-6-methoxyphenyl)ethanone", "2-O-Methylphloroacetophenone", "6-O-Methylphloroacetophenone", "2\u2032,4\u2032-Dihydroxy-6\u2032-methoxyacetophenone", "1-(2,4-Dihydroxy-6-methoxyphenyl)ethan-1-one"], "SMILES": "O(C)C1=C(C(C)=O)C(O)=CC(O)=C1", "physical_data": {"Molecular Weight": "182.17", "Molecular Formula": "C9H10O4", "Melting Point": "205-207 \u00b0C"}}