{"cas_no": "3602-55-9", "cn_name": "\u53d4\u4e01\u57fa\u5bf9\u82ef\u918c", "en_name": ["tert-Butyl-1,4-benzoquinone", "2,5-Cyclohexadiene-1,4-dione, 2-(1,1-dimethylethyl)-", "p-Benzoquinone, 2-tert-butyl-", "p-Benzoquinone, tert-butyl-", "2-(1,1-Dimethylethyl)-2,5-cyclohexadiene-1,4-dione", "tert-Butylquinone", "tert-Butyl-p-benzoquinone", "2-tert-Butyl-1,4-benzoquinone", "tert-Butyl-1,4-benzoquinone", "2-tert-Butyl-p-benzoquinone", "tert-Butylbenzoquinone", "NSC 124503", "2-(tert-Butyl)benzoquinone", "2-tert-Butylcyclohexa-2,5-diene-1,4-dione"], "SMILES": "C(C)(C)(C)C=1C(=O)C=CC(=O)C1", "physical_data": {"Molecular Weight": "164.20", "Molecular Formula": "C10H12O2", "Melting Point": "59 \u00b0C"}}