{"cas_no": "36039-36-8", "cn_name": "\u5e03\u6d1b\u82ac\u6742\u8d28P", "en_name": ["\u03b2-Methyl-4-(2-methylpropyl)benzeneethanol", "Benzeneethanol, \u03b2-methyl-4-(2-methylpropyl)-", "\u03b2-Methyl-4-(2-methylpropyl)benzeneethanol", "2-(4-Isobutylphenyl)propanol", "Ibuprofen alcohol", "2-(4-Isobutylphenyl)propyl alcohol", "2-(4-Isobutylphenyl)-1-propanol", "(2RS)-2-[4-(2-Methylpropyl)phenyl]propan-1-ol", "2-[4-(2-Methylpropyl)phenyl]propan-1-ol"], "SMILES": "C(C(C)C)C1=CC=C(C(CO)C)C=C1", "physical_data": {"Molecular Weight": "192.30", "Molecular Formula": "C13H20O", "Boiling Point": "104 \u00b0C @ Press: 0.8 Torr"}}