{"cas_no": "3604-87-3", "cn_name": "\u8715\u76ae\u6fc0\u7d20", "en_name": ["\u03b1-Ecdysone", "Cholest-7-en-6-one, 2,3,14,22,25-pentahydroxy-, (2\u03b2,3\u03b2,5\u03b2,22R)-", "5\u03b2-Cholest-7-en-6-one, 2\u03b2,3\u03b2,14,22,25-pentahydroxy-, (20S,22R)-", "(2\u03b2,3\u03b2,5\u03b2,22R)-2,3,14,22,25-Pentahydroxycholest-7-en-6-one", "Ecdysone", "\u03b1-Ecdysone", "MeSH ID: D004440"], "SMILES": "OC12C=3C(C4(C)C(C(=O)C3)CC(O)C(O)C4)CCC1(C)C(C(C(CCC(C)(C)O)O)C)CC2", "physical_data": {"Molecular Weight": "464.63", "Molecular Formula": "C27H44O6", "Melting Point": "242 \u00b0C"}}