{"cas_no": "3605-01-4", "cn_name": "\u5421\u8d1d\u5730\u5c14", "en_name": ["Piribedil", "Pyrimidine, 2-[4-(1,3-benzodioxol-5-ylmethyl)-1-piperazinyl]-", "Pyrimidine, 2-(4-piperonyl-1-piperazinyl)-", "2-[4-(1,3-Benzodioxol-5-ylmethyl)-1-piperazinyl]pyrimidine", "1-(2-Pyrimidyl)-4-piperonylpiperazine", "4-[3,4-(Methylenedioxy)benzyl]-1-(2-pyrimidinyl)piperazine", "ET 495", "Piribedil", "Trivastal", "1-(2-Pyrimidyl)-4-(3,4-methylenedioxybenzyl)piperazine", "Trivastan", "EU 4200", "Pronoran", "2-(4-(Benzo[d][1,3]dioxol-5-ylmethyl)piperazin-1-yl)pyrimidine"], "SMILES": "C(C=1C=C2C(=CC1)OCO2)N3CCN(CC3)C=4N=CC=CN4", "physical_data": {"Molecular Weight": "298.34", "Molecular Formula": "C16H18N4O2", "Melting Point": "98 \u00b0C"}}