{"cas_no": "36052-37-6", "cn_name": "\u5c71\u59dc\u7d20", "en_name": ["(-)-Alpinetin", "4H-1-Benzopyran-4-one, 2,3-dihydro-7-hydroxy-5-methoxy-2-phenyl-, (2S)-", "4H-1-Benzopyran-4-one, 2,3-dihydro-7-hydroxy-5-methoxy-2-phenyl-, (S)-", "Alpinetin", "Flavanone, 7-hydroxy-5-methoxy-", "(2S)-2,3-Dihydro-7-hydroxy-5-methoxy-2-phenyl-4H-1-benzopyran-4-one", "5-Methoxy-7-hydroxyflavanone", "5-O-Methylpinocembrin", "(-)-Alpinetin", "(S)-7-Hydroxy-5-methoxy-2-phenylchroman-4-one"], "SMILES": "O(C)C1=C2C(OC(CC2=O)C3=CC=CC=C3)=CC(O)=C1", "physical_data": {"Molecular Weight": "270.28", "Molecular Formula": "C16H14O4", "Melting Point": "223 \u00b0C"}}