{"cas_no": "360575-29-7", "cn_name": "4-\u6eb4\u82ef\u5e76\u567b\u5429-2-\u7fa7\u9178\u7532\u916f", "en_name": ["Methyl 4-bromobenzo[b]thiophene-2-carboxylate", "Benzo[b]thiophene-2-carboxylic acid, 4-bromo-, methyl ester", "Methyl 4-bromobenzo[b]thiophene-2-carboxylate", "4-Bromobenzo[b]thiophene-2-carboxylic acid methyl ester"], "SMILES": "BrC1=C2C(SC(C(OC)=O)=C2)=CC=C1", "physical_data": {"Molecular Weight": "271.13", "Molecular Formula": "C10H7BrO2S", "Melting Point": "77-78 \u00b0C"}}