{"cas_no": "36052-25-2", "cn_name": "5-\u6c28\u57fa\u5421\u5576-3-\u7fa7\u9178\u7532\u916f", "en_name": ["3-Pyridinecarboxylic acid, 5-amino-, methyl ester", "3-Pyridinecarboxylic acid, 5-amino-, methyl ester", "3-Amino-5-(methoxycarbonyl)pyridine", "5-Aminonicotinic acid methyl ester", "Methyl 5-aminonicotinate", "Methyl 5-amino-3-pyridinecarboxylate"], "SMILES": "C(OC)(=O)C=1C=C(N)C=NC1", "physical_data": {"Molecular Weight": "152.15", "Molecular Formula": "C7H8N2O2", "Melting Point": "135-137 \u00b0C"}}