{"cas_no": "36062-04-1", "cn_name": "\u56db\u6c22\u59dc\u9ec4\u7d20", "en_name": ["Tetrahydrocurcumin", "3,5-Heptanedione, 1,7-bis(4-hydroxy-3-methoxyphenyl)-", "1,7-Bis(4-hydroxy-3-methoxyphenyl)-3,5-heptanedione", "Tetrahydrocurcumin", "HZIV 81-2", "NSC 687845", "Tetrahydrodiferuloylmethane", "1,7-Bis(4-hydroxy-3-methoxyphenyl)heptane-3,5-dione", "Sabiwhite", "AS-KTC 004"], "SMILES": "C(CC(CC(CCC1=CC(OC)=C(O)C=C1)=O)=O)C2=CC(OC)=C(O)C=C2", "physical_data": {"Molecular Weight": "372.41", "Molecular Formula": "C21H24O6", "Melting Point": "96 \u00b0C"}}