{"cas_no": "36062-05-2", "cn_name": "\u516d\u6c22\u59dc\u9ec4\u7d20", "en_name": ["Hexahydrocurcumin", "3-Heptanone, 5-hydroxy-1,7-bis(4-hydroxy-3-methoxyphenyl)-", "5-Hydroxy-1,7-bis(4-hydroxy-3-methoxyphenyl)-3-heptanone", "Hexahydrocurcumin"], "SMILES": "C(CC(CC(CCC1=CC(OC)=C(O)C=C1)=O)O)C2=CC(OC)=C(O)C=C2", "physical_data": {"Molecular Weight": "374.43", "Molecular Formula": "C21H26O6", "Melting Point": "87-88 \u00b0C"}}