{"cas_no": "3606-45-9", "cn_name": "\u4e8c\u6c22\u8840\u6839\u78b1", "en_name": ["Dihydrosanguinarine", "[1,3]Benzodioxolo[5,6-c]-1,3-dioxolo[4,5-i]phenanthridine, 13,14-dihydro-13-methyl-", "Sanguinarine, 13,14-dihydro-", "Sanguinarine, dihydro-", "13,14-Dihydro-13-methyl[1,3]benzodioxolo[5,6-c]-1,3-dioxolo[4,5-i]phenanthridine", "13,14-Dihydrosanguinarine", "Dihydrosanguinarine", "Hydrosanguinarine", "Dihydrosanquinarine"], "SMILES": "CN1C=2C(C=3C(C1)=C4C(=CC3)OCO4)=CC=C5C2C=C6C(=C5)OCO6", "physical_data": {"Molecular Weight": "333.34", "Molecular Formula": "C20H15NO4", "Melting Point": "190-191 \u00b0C"}}