{"cas_no": "36062-07-4", "cn_name": "\u516b\u6c22\u59dc\u9ec4\u7d20", "en_name": ["Octahydrocurcumin", "3,5-Heptanediol, 1,7-bis(4-hydroxy-3-methoxyphenyl)-", "1,7-Bis(4-hydroxy-3-methoxyphenyl)-3,5-heptanediol", "Octahydrocurcumin", "Hexahydrobisdemethoxycurcumin"], "SMILES": "C(CC(CC(CCC1=CC(OC)=C(O)C=C1)O)O)C2=CC(OC)=C(O)C=C2", "physical_data": {"Molecular Weight": "376.44", "Molecular Formula": "C21H28O6", "Melting Point": "74-75 \u00b0C"}}