{"cas_no": "36073-93-5", "cn_name": "4-\u785d\u57fa\u5f02\u55b9\u5549", "en_name": ["4-Nitroisoquinoline", "Isoquinoline, 4-nitro-", "4-Nitroisoquinoline"], "SMILES": "N(=O)(=O)C=1C2=C(C=NC1)C=CC=C2", "physical_data": {"Molecular Weight": "174.16", "Molecular Formula": "C9H6N2O2", "Melting Point": "64.5 \u00b0C"}}