{"cas_no": "36070-80-1", "cn_name": "5-\u6c2f\u5421\u55ea-2-\u7fa7\u9178", "en_name": ["5-Chloro-2-pyrazinecarboxylic acid", "2-Pyrazinecarboxylic acid, 5-chloro-", "Pyrazinecarboxylic acid, 5-chloro-", "5-Chloro-2-pyrazinecarboxylic acid", "5-Chloropyrazinoic acid"], "SMILES": "C(O)(=O)C=1C=NC(Cl)=CN1", "physical_data": {"Molecular Weight": "158.54", "Molecular Formula": "C5H3ClN2O2", "Melting Point": "153 \u00b0C (decomp)"}}