{"cas_no": "36077-41-5", "cn_name": "H-LEU-ILE-OH", "en_name": ["Leucylisoleucine", "L-Isoleucine, L-leucyl-", "L-Isoleucine, N-L-leucyl-", "L-Leucyl-L-isoleucine", "Leucylisoleucine", "165: PN: WO2011146121 PAGE: 117 claimed sequence"], "SMILES": "C(NC(C(CC(C)C)N)=O)(C(CC)C)C(O)=O", "physical_data": {"Molecular Weight": "244.33", "Molecular Formula": "C12H24N2O3", "Melting Point": "279-280 \u00b0C"}}