{"cas_no": "36076-26-3", "cn_name": "1,4-\u82ef\u4e8c\u4e59\u9178\u4e8c\u4e59\u916f", "en_name": ["1,4-Diethyl 1,4-benzenediacetate", "1,4-Benzenediacetic acid, 1,4-diethyl ester", "1,4-Benzenediacetic acid, diethyl ester", "p-Benzenediacetic acid, diethyl ester", "1,4-Diethyl 1,4-benzenediacetate", "p-Phenylenediacetic acid diethyl ester", "NSC 139681", "Diethyl 1,4-benzenediacetate"], "SMILES": "C(C(OCC)=O)C1=CC=C(CC(OCC)=O)C=C1", "physical_data": {"Molecular Weight": "250.29", "Molecular Formula": "C14H18O4", "Melting Point": "57 \u00b0C"}}