{"cas_no": "3607-17-8", "cn_name": "(3-\u6eb4\u4e19\u57fa)\u4e09\u82ef\u57fa\u6eb4\u5316\u78f7", "en_name": ["(3-Bromopropyl)triphenylphosphonium bromide", "Phosphonium, (3-bromopropyl)triphenyl-, bromide (1:1)", "Phosphonium, (3-bromopropyl)triphenyl-, bromide", "(3-Bromopropyl)triphenylphosphonium bromide", "NSC 84074", "Triphenyl(3-bromopropyl)phosphonium bromide"], "SMILES": "[P+](CCCBr)(C1=CC=CC=C1)(C2=CC=CC=C2)C3=CC=CC=C3.[Br-]", "physical_data": {"Molecular Weight": "", "Molecular Formula": "C21H21BrP.Br", "Melting Point": "210-215 \u00b0C"}}