{"cas_no": "36082-50-5", "cn_name": "5-\u6eb4-2,4-\u4e8c\u6c2f\u5627\u5576", "en_name": ["5-Bromo-2,4-dichloropyrimidine", "Pyrimidine, 5-bromo-2,4-dichloro-", "5-Bromo-2,4-dichloropyrimidine", "5-Bromo-2,6-dichloropyrimidine", "2,4-Dichloro-5-bromopyrimidine", "NSC 152517", "2,6-Dichloro-5-bromopyrimidine"], "SMILES": "ClC=1C(Br)=CN=C(Cl)N1", "physical_data": {"Molecular Weight": "227.87", "Molecular Formula": "C4HBrCl2N2", "Boiling Point": "112-113 \u00b0C @ Press: 12 Torr"}}