{"cas_no": "36085-73-1", "cn_name": "\u76d0\u9178\u4ed6\u5229\u514b\u7d22", "en_name": ["Domin", "4H-Thiazolo[4,5-d]azepin-2-amine, 5,6,7,8-tetrahydro-6-(2-propen-1-yl)-, hydrochloride (1:2)", "4H-Thiazolo[4,5-d]azepin-2-amine, 5,6,7,8-tetrahydro-6-(2-propenyl)-, dihydrochloride", "B-HT 920", "Talipexole dihydrochloride", "Domin", "6-Allyl-2-amino-5,6,7,8-tetrahydro-4H-thiazolo[4,5-d]azepine dihydrochloride"], "SMILES": "NC1=NC2=C(CCN(CC=C)CC2)S1.Cl", "physical_data": {"Molecular Weight": "", "Molecular Formula": "C10H15N3S.2ClH", "Melting Point": "245 \u00b0C (decomp)"}}