{"cas_no": "3610-02-4", "cn_name": "\u82ef\u5e76[B]\u567b\u5429-4-\u9187", "en_name": ["4-Hydroxybenzothiophene", "Benzo[b]thiophene-4-ol", "4-Hydroxybenzothiophene", "4-Hydroxybenzo[b]thiophene", "4-Hydroxy-1-thiaindene", "4-Hydroxy-1-benzothiophene", "Benzothiophen-4-ol", "1-Benzothiophen-4-ol", "Benzo[b]thiophen-4-ol"], "SMILES": "OC1=C2C(=CC=C1)SC=C2", "physical_data": {"Molecular Weight": "150.20", "Molecular Formula": "C8H6OS", "Melting Point": "79.8 \u00b0C"}}