{"cas_no": "3610-36-4", "cn_name": "3-(2-\u6c28\u57fa\u4e59\u57fa)-6-\u7532\u6c27\u57fa\u5432\u54da", "en_name": ["6-Methoxytryptamine", "1H-Indole-3-ethanamine, 6-methoxy-", "Indole, 3-(2-aminoethyl)-6-methoxy-", "6-Methoxy-1H-indole-3-ethanamine", "6-Methoxytryptamine", "Ba 2808", "6MOT", "2-(6-Methoxy-1H-indol-3-yl)ethylamine", "2-(6-Methoxyindol-3-yl)ethylamine", "6-Methoxyindole-3-ethanamine", "2-(6-Methoxy-1H-indol-3-yl)ethan-1-amine", "2-(6-Methoxy-1H-indol-3-yl)ethanamine"], "SMILES": "C(CN)C=1C=2C(=CC(OC)=CC2)NC1", "physical_data": {"Molecular Weight": "190.24", "Molecular Formula": "C11H14N2O", "Melting Point": "142.5-143.5 \u00b0C"}}