{"cas_no": "36112-95-5", "cn_name": "3-(\u8418\u915a\u57fa)-1,2-\u4e8c\u7f9f\u57fa\u4e19\u70f7", "en_name": ["Propranolol glycol", "1,2-Propanediol, 3-(1-naphthalenyloxy)-", "1,2-Propanediol, 3-(1-naphthyloxy)-", "3-(1-Naphthalenyloxy)-1,2-propanediol", "Propranolol glycol", "1-(\u03b1-Naphthoxy)-2,3-propylene glycol", "3-(\u03b1-Naphthoxy)-1,2-propanediol", "3-(\u03b1-Naphthoxy)-1,2-propylene glycol"], "SMILES": "O(CC(CO)O)C=1C2=C(C=CC1)C=CC=C2", "physical_data": {"Molecular Weight": "218.25", "Molecular Formula": "C13H14O3", "Melting Point": "92 \u00b0C"}}