{"cas_no": "3612-18-8", "cn_name": "N-\u4e59\u57fa-4-\u54cc\u5576\u916e", "en_name": ["1-Ethyl-4-piperidinone", "4-Piperidinone, 1-ethyl-", "4-Piperidone, 1-ethyl-", "1-Ethyl-4-piperidinone", "1-Ethyl-4-piperidone", "N-Ethyl-4-piperidone", "1-Ethyl-4-oxopiperidine", "1-Ethylpiperidine-4-one"], "SMILES": "C(C)N1CCC(=O)CC1", "physical_data": {"Molecular Weight": "127.18", "Molecular Formula": "C7H13NO", "Boiling Point": "46-48 \u00b0C @ Press: 1 Torr", "Melting Point": "45-47 \u00b0C"}}