{"cas_no": "3612-20-2", "cn_name": "N-\u82c4\u57fa\u54cc\u5576\u916e", "en_name": ["1-Benzyl-4-piperidone", "4-Piperidinone, 1-(phenylmethyl)-", "4-Piperidone, 1-benzyl-", "1-(Phenylmethyl)-4-piperidinone", "N-Benzylpiperidinone", "1-Benzyl-4-oxopiperidine", "1-Benzyl-4-piperidinone", "1-Benzyl-4-piperidone", "N-Benzyl-4-piperidone", "1-Benzylpiperidone", "N-Benzyl-4-piperidinone", "N-Benzylpiperidone", "N-Benzyl-4-oxopiperidine", "1-(Phenylmethyl)-4-piperidone", "NSC 77933", "1-Benzylpiperidine-4-one", "4-N-Benzylpiperidone", "1-Benzylpiperidin-4-one"], "SMILES": "C(N1CCC(=O)CC1)C2=CC=CC=C2", "physical_data": {"Molecular Weight": "189.25", "Molecular Formula": "C12H15NO", "Boiling Point": "114-116 \u00b0C @ Press: 0.3 Torr", "Density": "1.0626 g/cm\u00b3 @ Temp: 23 \u00b0C"}}