{"cas_no": "36122-35-7", "cn_name": "\u82ef\u57fa\u987a\u9150", "en_name": ["Phenylmaleic anhydride", "2,5-Furandione, 3-phenyl-", "Maleic anhydride, phenyl-", "3-Phenyl-2,5-furandione", "Phenylmaleic anhydride", "NSC 191772", "3-Phenylfuran-2,5-dione", "3-Phenyl-2,5-dihydrofuran-2,5-dione"], "SMILES": "O=C1C(=CC(=O)O1)C2=CC=CC=C2", "physical_data": {"Molecular Weight": "174.15", "Molecular Formula": "C10H6O3", "Boiling Point": "122-125 \u00b0C @ Press: 0.2 Torr", "Melting Point": "119-119.5 \u00b0C"}}