{"cas_no": "36127-17-0", "cn_name": "2-\u7532\u6c27\u7fb0\u57fa-3-\u6258\u54c1\u916e", "en_name": ["2-(Carbomethoxy)-3-tropinone", "8-Azabicyclo[3.2.1]octane-2-carboxylic acid, 8-methyl-3-oxo-, methyl ester", "1\u03b1H,5\u03b1H-Tropane-2-carboxylic acid, 3-oxo-, methyl ester", "2-Tropanecarboxylic acid, 3-oxo-, methyl ester", "2-(Methoxycarbonyl)-3-tropanone", "2-(Carbomethoxy)-3-tropinone", "NSC 72911", "8-Methyl-3-oxo-8-azabicyclo[3.2.1]octane-2-carboxylic acid methyl ester"], "SMILES": "C(OC)(=O)C1C2N(C)C(CC2)CC1=O", "physical_data": {"Molecular Weight": "197.23", "Molecular Formula": "C10H15NO3", "Boiling Point": "92-95 \u00b0C @ Press: 0.3 Torr", "Melting Point": "~104 \u00b0C (approx)"}}