{"cas_no": "361342-51-0", "cn_name": "(11BR)-2,6-\u4e8c-9-\u84bd\u57fa-4-\u7f9f\u57fa-\u4e8c\u8418[2,1-D:1',2'-F][1,3,2]\u4e8c\u6c27\u78f7\u9178-4-\u6c27\u5316\u7269", "en_name": ["(11bR)-2,6-Di-9-anthracenyl-4-hydroxydinaphtho[2,1-d:1\u2032,2\u2032-f][1,3,2]dioxaphosphepin 4-oxide", "Dinaphtho[2,1-d:1\u2032,2\u2032-f][1,3,2]dioxaphosphepin, 2,6-di-9-anthracenyl-4-hydroxy-, 4-oxide, (11bR)-", "(11bR)-2,6-Di-9-anthracenyl-4-hydroxydinaphtho[2,1-d:1\u2032,2\u2032-f][1,3,2]dioxaphosphepin 4-oxide"], "SMILES": "O=P1(O)OC2=C(C3=C(C(=CC=4C3=CC=CC4)C=5C6=C(C=C7C5C=CC=C7)C=CC=C6)O1)C=8C(C=C2C=9C%10=C(C=C%11C9C=CC=C%11)C=CC=C%10)=CC=CC8", "physical_data": {"Molecular Weight": "700.72", "Molecular Formula": "C48H29O4P", "Melting Point": "&gt;300 \u00b0C"}}