{"cas_no": "3613-30-7", "cn_name": "7-\u7532\u6c27\u57fa-3,7-\u4e8c\u7532\u57fa\u8f9b\u919b", "en_name": ["7-Methoxy-3,7-dimethyloctanal", "Octanal, 7-methoxy-3,7-dimethyl-", "7-Methoxy-3,7-dimethyloctanal", "Methoxydihydrocitronellal", "7-Methoxy-3,7-dimethyl-1-octanal", "7-Methoxycitronellal", "Methoxycitronellal", "7-Methoxy-6,7-dihydrocitronellal"], "SMILES": "C(CCCC(CC=O)C)(OC)(C)C", "physical_data": {"Molecular Weight": "186.29", "Molecular Formula": "C11H22O2", "Boiling Point": "60 \u00b0C @ Press: 0.45 Torr"}}