{"cas_no": "3613-73-8", "cn_name": "2,3,4,5-\u56db\u6c22-2,8-\u4e8c\u7532\u57fa-5-[2-(6-\u7532\u57fa\u5421\u5576-3-\u57fa)\u4e59\u57fa]-1H-\u5421\u5576\u5e76[4,3-B]\u5432\u54da", "en_name": ["Dimebon", "1H-Pyrido[4,3-b]indole, 2,3,4,5-tetrahydro-2,8-dimethyl-5-[2-(6-methyl-3-pyridinyl)ethyl]-", "1H-Pyrido[4,3-b]indole, 2,3,4,5-tetrahydro-2,8-dimethyl-5-[2-(6-methyl-3-pyridyl)ethyl]-", "2,3,4,5-Tetrahydro-2,8-dimethyl-5-[2-(6-methyl-3-pyridinyl)ethyl]-1H-pyrido[4,3-b]indole", "Dimeboline", "Preparation 84", "Dimebolin", "Dimebone", "Dimebon", "2,3,4,5-Tetrahydro-2,8-dimethyl-5-[2-(6-methylpyridin-3-yl)ethyl]-1H-pyrido[4,3-b]indole", "Latrepirdine", "2,8-Dimethyl-5-[2-(6-methylpyridin-3-yl)ethyl]-3,4-dihydro-1H-pyrido[4,3-b]indole", "2,8-Dimethyl-5-[2-(6-methyl-pyridin-3-yl)-ethyl]-2,3,4,5-tetrahydro-1H-pyrido[4,3-b]indole"], "SMILES": "C(CC=1C=CC(C)=NC1)N2C=3C(C4=C2CCN(C)C4)=CC(C)=CC3", "physical_data": {"Molecular Weight": "319.44", "Molecular Formula": "C21H25N3", "Melting Point": "115-116 \u00b0C"}}