{"cas_no": "3614-69-5", "cn_name": "\u9a6c\u6765\u9178\u4e8c\u7532\u831a\u5b9a", "en_name": ["Dimethindene maleate", "1H-Indene-2-ethanamine, N,N-dimethyl-3-[1-(2-pyridinyl)ethyl]-, (2Z)-2-butenedioate (1:1)", "Pyridine, 2-[1-[2-[2-(dimethylamino)ethyl]inden-3-yl]ethyl]-, maleate (1:1)", "1H-Indene-2-ethanamine, N,N-dimethyl-3-[1-(2-pyridinyl)ethyl]-, (Z)-2-butenedioate (1:1)", "Pyridine, 2-[1-[2-(dimethylaminoethyl)inden-3-yl]ethyl]-, maleate", "Su-6518", "Dimethindene maleate", "Dimethpyrindene maleate", "2-[1-[2-(2-Dimethylaminoethyl)inden-3-yl]ethyl]pyridine maleate", "Forhistal maleate", "Fenistil", "Fenistil-retard", "Dimethinden maleate", "Fenostil", "NSC 107677"], "SMILES": "C(=CC(O)=O)C(O)=O.C(C)(C=1C=2C(CC1CCN(C)C)=CC=CC2)C3=CC=CC=N3", "physical_data": {"Molecular Weight": "", "Molecular Formula": "C20H24N2.C4H4O4", "Melting Point": "159-161 \u00b0C"}}