{"cas_no": "361440-67-7", "cn_name": "(1S,3S,5S)-3-(\u6c28\u57fa\u7fb0\u57fa)-2-\u6c2e\u6742\u53cc\u73af[3.1.0]\u5df1\u70f7-2-\u7532\u9178\u53d4\u4e01\u916f", "en_name": ["1,1-Dimethylethyl (1S,3S,5S)-3-(aminocarbonyl)-2-azabicyclo[3.1.0]hexane-2-carboxylate", "2-Azabicyclo[3.1.0]hexane-2-carboxylic acid, 3-(aminocarbonyl)-, 1,1-dimethylethyl ester, (1S,3S,5S)-", "1,1-Dimethylethyl (1S,3S,5S)-3-(aminocarbonyl)-2-azabicyclo[3.1.0]hexane-2-carboxylate", "tert-Butyl (1S,3S,5S)-3-carbamoyl-2-azabicyclo[3.1.0]hexane-2-carboxylate"], "SMILES": "C(OC(C)(C)C)(=O)N1C2C(C2)CC1C(N)=O", "physical_data": {"Molecular Weight": "226.27", "Molecular Formula": "C11H18N2O3", "Melting Point": "56-58 \u00b0C"}}