{"cas_no": "361442-04-8", "cn_name": "\u6c99\u683c\u5217\u6c40", "en_name": ["Saxagliptin", "2-Azabicyclo[3.1.0]hexane-3-carbonitrile, 2-[(2S)-2-amino-2-(3-hydroxytricyclo[3.3.1.13,7]dec-1-yl)acetyl]-, (1S,3S,5S)-", "2-Azabicyclo[3.1.0]hexane-3-carbonitrile, 2-[(2S)-amino(3-hydroxytricyclo[3.3.1.13,7]dec-1-yl)acetyl]-, (1S,3S,5S)-", "(1S,3S,5S)-2-[(2S)-2-Amino-2-(3-hydroxytricyclo[3.3.1.13,7]dec-1-yl)acetyl]-2-azabicyclo[3.1.0]hexane-3-carbonitrile", "BMS 477118", "Saxagliptin", "BMS 477118-11", "Onglyza"], "SMILES": "C(C(=O)N1C2C(C2)CC1C#N)(N)C34CC5(O)CC(C3)CC(C4)C5", "physical_data": {"Molecular Weight": "315.41", "Molecular Formula": "C18H25N3O2", "Melting Point": "108-110 \u00b0C"}}