{"cas_no": "3615-44-9", "cn_name": "\u7518\u9732\u5e9a\u916e\u7cd6", "en_name": ["(+)-Mannoheptulose", "D-manno-2-Heptulose", "D-manno-Heptulose", "D-Mannoheptulose", "(+)-Mannoheptulose", "NSC 226836"], "SMILES": "C(C(C(CO)O)O)(C(C(CO)=O)O)O", "physical_data": {"Molecular Weight": "210.18", "Molecular Formula": "C7H14O7", "Melting Point": "151 \u00b0C"}}