{"cas_no": "3615-41-6", "cn_name": "L-\u9f20\u674e\u7cd6", "en_name": ["L-Rhamnose", "L-Mannose, 6-deoxy-", "Rhamnose, L-", "6-Deoxy-L-mannose", "Isodulcit", "L-Mannomethylose", "Rhamnose", "L-Rhamnose", "Isodulcitol", "Locaose", "NSC 2056", "L-(+)-Rhamnose"], "SMILES": "C(C(C(C)O)O)(C(C=O)O)O", "physical_data": {"Molecular Weight": "164.16", "Molecular Formula": "C6H12O5", "Melting Point": "122 \u00b0C"}}