{"cas_no": "3615-56-3", "cn_name": "\u5c71\u68a8\u7cd6", "en_name": ["D-Sorbose", "D-Sorbose", "Sorbose, D-", "Sorbinose", "D-(+)-Sorbose", "D-xylo-2-Hexulose"], "SMILES": "C(C(C(CO)=O)O)(C(CO)O)O", "physical_data": {"Molecular Weight": "180.16", "Molecular Formula": "C6H12O6", "Melting Point": "165 \u00b0C"}}