{"cas_no": "3615-24-5", "cn_name": "\u5f02\u4e19\u6c28\u57fa\u6bd4\u6797", "en_name": ["Ramifenazone", "3H-Pyrazol-3-one, 1,2-dihydro-1,5-dimethyl-4-[(1-methylethyl)amino]-2-phenyl-", "Antipyrine, 4-(isopropylamino)-", "1,2-Dihydro-1,5-dimethyl-4-[(1-methylethyl)amino]-2-phenyl-3H-pyrazol-3-one", "Isopropylaminoantipyrine", "Isopropylaminophenazone", "1-Phenyl-2,3-dimethyl-4-(isopropylamino)-2-pyrazolin-5-one", "Isopyrine", "Isopyrin", "4-(Isopropylamino)antipyrine", "4-Isopropylamino-2,3-dimethyl-1-phenyl-3-pyrazolin-5-one", "1-Phenyl-2,3-dimethyl-4-isopropylaminopyrazolone", "4-Monoisopropylamino-1-phenyl-2,3-dimethyl-5-pyrazolone", "Isopirina", "4-(Isopropylamino)phenazone", "Ramifenazone", "1,5-Dimethyl-2-phenyl-4-(propan-2-ylamino)pyrazol-3-one", "1,5-Dimethyl-2-phenyl-4-[(propan-2-yl)amino]-2,3-dihydro-1H-pyrazol-3-one"], "SMILES": "O=C1N(N(C)C(C)=C1NC(C)C)C2=CC=CC=C2", "physical_data": {"Molecular Weight": "245.32", "Molecular Formula": "C14H19N3O", "Melting Point": "80 \u00b0C"}}