{"cas_no": "36157-41-2", "cn_name": "2,5-\u4e8c\u6c2f-3-\u567b\u5429\u7532\u9178", "en_name": ["2,5-Dichloro-3-thiophenecarboxylic acid", "3-Thiophenecarboxylic acid, 2,5-dichloro-", "2,5-Dichloro-3-thiophenecarboxylic acid", "2,5-Dichlorothiophene-3-carboxylic acid", "NSC 14775"], "SMILES": "C(O)(=O)C=1C=C(Cl)SC1Cl", "physical_data": {"Molecular Weight": "197.04", "Molecular Formula": "C5H2Cl2O2S", "Melting Point": "146.5-147.5 \u00b0C"}}