{"cas_no": "3615-37-0", "cn_name": "D-\u5ca9\u85fb\u7cd6", "en_name": ["(+)-Fucose", "D-Galactose, 6-deoxy-", "Fucose, D-", "6-Deoxy-D-galactose", "D-6-Deoxygalactose", "Rhodeose", "6-Deoxygalactose", "D-Fucose", "D-(+)-Fucose", "(+)-Fucose"], "SMILES": "C(C(C(C)O)O)(C(C=O)O)O", "physical_data": {"Molecular Weight": "164.16", "Molecular Formula": "C6H12O5", "Melting Point": "144 \u00b0C"}}