{"cas_no": "36157-40-1", "cn_name": "2,5-\u4e8c\u6c2f-3-\u4e59\u9170\u57fa\u567b\u5429", "en_name": ["3-Acetyl-2,5-dichlorothiophene", "Ethanone, 1-(2,5-dichloro-3-thienyl)-", "1-(2,5-Dichloro-3-thienyl)ethanone", "2,5-Dichloro-3-thienyl methyl ketone", "3-Acetyl-2,5-dichlorothiophene", "2,5-Dichloro-3-acetylthiophene", "1-(2,5-Dichlorothiophen-3-yl)ethanone", "1-(2,5-Dichlorothiophen-3-yl)ethan-1-one"], "SMILES": "C(C)(=O)C=1C=C(Cl)SC1Cl", "physical_data": {"Molecular Weight": "195.07", "Molecular Formula": "C6H4Cl2OS", "Boiling Point": "120-122 \u00b0C @ Press: 6 Torr", "Melting Point": "39 \u00b0C"}}