{"cas_no": "3616-56-6", "cn_name": "\u4e8c\u7532\u6c28\u57fa\u4e59\u919b\u7f29\u4e8c\u4e59\u9187", "en_name": ["2,2-Diethoxy-N,N-dimethylethanamine", "Ethanamine, 2,2-diethoxy-N,N-dimethyl-", "Acetaldehyde, (dimethylamino)-, diethyl acetal", "Ethylamine, 2,2-diethoxy-N,N-dimethyl-", "2,2-Diethoxy-N,N-dimethylethanamine", "N-(2,2-Diethoxyethyl)-N,N-dimethylamine", "N,N-Dimethyl-2,2-diethoxyethylamine", "(Dimethylamino)acetaldehyde diethyl acetal", "N,N-Dimethylaminoacetaldehyde diethyl acetal", "NSC 62042", "(2,2-Diethoxyethyl)dimethylamine"], "SMILES": "C(CN(C)C)(OCC)OCC", "physical_data": {"Molecular Weight": "161.24", "Molecular Formula": "C8H19NO2", "Boiling Point": "170.5 \u00b0C"}}