{"cas_no": "3616-57-7", "cn_name": "\u4e8c\u4e59\u6c28\u57fa\u4e59\u919b\u7f29\u4e8c\u4e59\u9187", "en_name": ["2,2-Diethoxy-N,N-diethylethanamine", "Ethanamine, 2,2-diethoxy-N,N-diethyl-", "Acetaldehyde, (diethylamino)-, diethyl acetal", "Triethylamine, 2,2-diethoxy-", "2,2-Diethoxy-N,N-diethylethanamine", "(Diethylamino)acetaldehyde diethyl acetal", "2,2-Diethoxytriethylamine", "NSC 62128", "2,2-Diethoxy-N,N-diethylethylamine", "(2,2-Diethoxyethyl)diethylamine"], "SMILES": "C(CN(CC)CC)(OCC)OCC", "physical_data": {"Molecular Weight": "189.30", "Molecular Formula": "C10H23NO2", "Boiling Point": "194.5 \u00b0C"}}