{"cas_no": "36167-63-2", "cn_name": "\u76d0\u9178\u5364\u6cdb\u7fa4", "en_name": ["(\u00b1)-Halofantrine hydrochloride", "9-Phenanthrenemethanol, 1,3-dichloro-\u03b1-[2-(dibutylamino)ethyl]-6-(trifluoromethyl)-, hydrochloride (1:1)", "9-Phenanthrenemethanol, 1,3-dichloro-\u03b1-[2-(dibutylamino)ethyl]-6-(trifluoromethyl)-, hydrochloride", "9-[3-(Dibutylamino)-1-hydroxypropyl]-1,3-dichloro-6-(trifluoromethyl)phenanthrene hydrochloride", "WR 171669", "(\u00b1)-Halofantrine hydrochloride", "Halofantrine hydrochloride", "SKF 102886"], "SMILES": "C(CCN(CCCC)CCCC)(O)C1=C2C(=C3C(=C1)C(Cl)=CC(Cl)=C3)C=C(C(F)(F)F)C=C2.Cl", "physical_data": {"Molecular Weight": "", "Molecular Formula": "C26H30Cl2F3NO.ClH", "Melting Point": "93-96 \u00b0C"}}