{"cas_no": "3616-19-1", "cn_name": "4-O-(2,3,4,6-\u56db-O-\u4e59\u9170\u57fa)-\u03b2-D-\u5421\u5583(\u578b)\u8461\u7cd6\u57fa-D-\u5421\u5583(\u578b)\u8461\u7cd6\u56db\u4e59\u9178\u916f", "en_name": ["Cellobiose, octaacetate", "D-Glucopyranose, 4-O-(2,3,4,6-tetra-O-acetyl-\u03b2-D-glucopyranosyl)-, 1,2,3,6-tetraacetate", "Cellobiose, octaacetate", "D-Glucopyranose, 4-O-(2,3,4,6-tetra-O-acetyl-\u03b2-D-glucopyranosyl)-, tetraacetate", "Octa-O-acetylcellobiose", "Octaacetyl-D-cellobiose"], "SMILES": "O(C1C(OC(C)=O)C(OC(C)=O)C(OC(C)=O)OC1COC(C)=O)C2C(OC(C)=O)C(OC(C)=O)C(OC(C)=O)C(COC(C)=O)O2", "physical_data": {"Molecular Weight": "678.59", "Molecular Formula": "C28H38O19", "Melting Point": "220 \u00b0C"}}