{"cas_no": "3616-58-8", "cn_name": "1-\u54cc\u5576\u4e59\u919b\u4e8c\u4e59\u57fa\u7f29\u919b", "en_name": ["1-(2,2-Diethoxyethyl)piperidine", "Piperidine, 1-(2,2-diethoxyethyl)-", "1-Piperidineacetaldehyde, diethyl acetal", "1-(2,2-Diethoxyethyl)piperidine", "NSC 66158"], "SMILES": "C(CN1CCCCC1)(OCC)OCC", "physical_data": {"Molecular Weight": "201.31", "Molecular Formula": "C11H23NO2", "Boiling Point": "82 \u00b0C @ Press: 20 Torr"}}