{"cas_no": "3619-22-5", "cn_name": "\u5bf9\u7532\u82ef\u80bc", "en_name": ["4-Methylbenzohydrazide", "Benzoic acid, 4-methyl-, hydrazide", "p-Toluic acid, hydrazide", "4-Methylbenzoic acid hydrazide", "p-Methylbenzohydrazide", "p-Methylbenzoic acid hydrazide", "p-Methylbenzoylhydrazine", "p-Toluoylhydrazine", "p-Toluic hydrazide", "4-Methylbenzoylhydrazide", "4-Methylbenzenecarboxylic acid hydrazide", "4-Methylbenzohydrazide", "(4-Methylbenzoyl)hydrazine", "4-Toluic acid hydrazide", "p-Methylbenzoyl hydrazide", "4-Toluic hydrazide", "NSC 61567", "4-Methylbenzhydrazide", "4-Methylbenzoic hydrazide", "4-Toluihydrazide", "2\u2032-Methyl[1,1\u2032-biphenyl]-4-carboxylic acid hydrazide"], "SMILES": "C(NN)(=O)C1=CC=C(C)C=C1", "physical_data": {"Molecular Weight": "150.18", "Molecular Formula": "C8H10N2O", "Melting Point": "116-118 \u00b0C"}}