{"cas_no": "3619-17-8", "cn_name": "\u5f02\u4e01\u9170\u80bc", "en_name": ["Propanoic acid, 2-methyl-, hydrazide", "Propanoic acid, 2-methyl-, hydrazide", "Isobutyric acid, hydrazide", "Isobutyrohydrazide", "Isobutyryl hydrazide", "Isobutyrylhydrazine", "Isobutyric hydrazide", "2-Methylpropionic acid hydrazide", "Isobutanoic acid hydrazide", "NSC 141139", "2-Methylpropanoic acid hydrazide", "2-Methylpropanehydrazide", "2-Methylpropanohydrazide"], "SMILES": "C(C(C)C)(NN)=O", "physical_data": {"Molecular Weight": "102.14", "Molecular Formula": "C4H10N2O", "Melting Point": "98 \u00b0C"}}