{"cas_no": "36192-63-9", "cn_name": "2-\u6c28\u57fa-4\u2018-\u7532\u57fa\u82ef\u7532\u916e", "en_name": ["2-Amino-4\u2032-methylbenzophenone", "Methanone, (2-aminophenyl)(4-methylphenyl)-", "(2-Aminophenyl)(4-methylphenyl)methanone", "o-(p-Methylbenzoyl)aniline", "2-Amino-4\u2032-methylbenzophenone", "(2-Aminophenyl)-p-tolylmethanone", "2-Aminophenyl 4-methylphenyl ketone", "2-(4-Methylbenzoyl)aniline"], "SMILES": "C(=O)(C1=C(N)C=CC=C1)C2=CC=C(C)C=C2", "physical_data": {"Molecular Weight": "211.26", "Molecular Formula": "C14H13NO", "Melting Point": "94-95 \u00b0C"}}