{"cas_no": "362-75-4", "cn_name": "2',3'-\u5f02\u4e19\u53c9\u817a\u82f7", "en_name": ["2\u2032,3\u2032-O-Isopropylideneadenosine", "Adenosine, 2\u2032,3\u2032-O-(1-methylethylidene)-", "Adenosine, 2\u2032,3\u2032-O-isopropylidene-", "Furo[3,4-d]-1,3-dioxole, adenosine deriv.", "2\u2032,3\u2032-O-(1-Methylethylidene)adenosine", "2\u2032,3\u2032-O-Isopropylideneadenosine", "2\u2032,3\u2032-Isopropylideneadenosine", "NSC 29413", "26: PN: US20070161007 PAGE: 25 claimed sequence"], "SMILES": "C(O)C1OC(C2C1OC(C)(C)O2)N3C=4C(N=C3)=C(N)N=CN4", "physical_data": {"Molecular Weight": "307.31", "Molecular Formula": "C13H17N5O4", "Melting Point": "220 \u00b0C"}}