{"cas_no": "362-08-3", "cn_name": "2-\u7532\u57fa\u96cc\u916e", "en_name": ["2-Methoxyestrone", "Estra-1,3,5(10)-trien-17-one, 3-hydroxy-2-methoxy-", "Estrone, 2-methoxy-", "3-Hydroxy-2-methoxyestra-1,3,5(10)-trien-17-one", "2-Methoxyestrone", "2-Hydroxyestrone 2-methyl ether", "GSS 33", "2-Methoxy-3-hydroxyestra-1,3,5(10)-trien-17-one", "2-Methoxy-17-oxoestra-1,3,5(10)-trien-3-ol"], "SMILES": "CC12C(C3C(C=4C(CC3)=CC(O)=C(OC)C4)CC1)CCC2=O", "physical_data": {"Molecular Weight": "300.39", "Molecular Formula": "C19H24O3", "Melting Point": "187.0-189.5 \u00b0C"}}