{"cas_no": "362-76-5", "cn_name": "2',3'-O-\u5f02\u4e19\u4e9a\u57fa\u9e1f\u82f7", "en_name": ["2\u2032,3\u2032-Isopropylideneguanosine", "Guanosine, 2\u2032,3\u2032-O-(1-methylethylidene)-", "Guanosine, 2\u2032,3\u2032-O-isopropylidene-", "Furo[3,4-d]-1,3-dioxole, guanosine deriv.", "2\u2032,3\u2032-O-(1-Methylethylidene)guanosine", "Isopropylideneguanosine", "2\u2032,3\u2032-O-Isopropylideneguanosine", "2\u2032,3\u2032-Isopropylideneguanosine"], "SMILES": "C(O)C1OC(C2C1OC(C)(C)O2)N3C4=C(N=C3)C(=O)N=C(N)N4", "physical_data": {"Molecular Weight": "323.30", "Molecular Formula": "C13H17N5O5", "Melting Point": "299 \u00b0C (decomp)"}}