{"cas_no": "362-07-2", "cn_name": "2-\u7532\u6c27\u96cc\u4e8c\u9187", "en_name": ["2-Methoxyestradiol", "Estra-1,3,5(10)-triene-3,17-diol, 2-methoxy-, (17\u03b2)-", "Estra-1,3,5(10)-triene-3,17\u03b2-diol, 2-methoxy-", "Estradiol, 2-methoxy-", "(17\u03b2)-2-Methoxyestra-1,3,5(10)-triene-3,17-diol", "2-Methoxyestradiol", "2-Methoxyestra-1,3,5(10)-triene-3,17\u03b2-diol", "2-Hydroxyestradiol 2-methyl ether", "NSC 659853", "Panzem", "2ME2", "2-Methoxy-E2"], "SMILES": "CC12C(C3C(C=4C(CC3)=CC(O)=C(OC)C4)CC1)CCC2O", "physical_data": {"Molecular Weight": "302.41", "Molecular Formula": "C19H26O3", "Melting Point": "184-186 \u00b0C"}}