{"cas_no": "362-06-1", "cn_name": "2-\u7f9f\u96cc\u753e\u916e", "en_name": ["2-Hydroxyestrone", "Estra-1,3,5(10)-trien-17-one, 2,3-dihydroxy-", "2,3-Dihydroxyestra-1,3,5(10)-trien-17-one", "2-Hydroxyestrone", "Catecholestrone"], "SMILES": "CC12C(C3C(C=4C(CC3)=CC(O)=C(O)C4)CC1)CCC2=O", "physical_data": {"Molecular Weight": "286.37", "Molecular Formula": "C18H22O3", "Melting Point": "194-196 \u00b0C"}}