{"cas_no": "362-43-6", "cn_name": "2',3'-\u5f02\u4e19\u57fa\u8132", "en_name": ["2\u2032,3\u2032-O-Isopropylideneuridine", "Uridine, 2\u2032,3\u2032-O-(1-methylethylidene)-", "Uridine, 2\u2032,3\u2032-O-isopropylidene-", "Furo[3,4-d]-1,3-dioxole, uridine deriv.", "2\u2032,3\u2032-O-(1-Methylethylidene)uridine", "Uridine 2\u2032,3\u2032-acetonide", "2\u2032,3\u2032-O-Isopropylideneuridine", "NSC 520038"], "SMILES": "C(O)C1C2C(C(O1)N3C(=O)NC(=O)C=C3)OC(C)(C)O2", "physical_data": {"Molecular Weight": "284.27", "Molecular Formula": "C12H16N2O6", "Melting Point": "168-170 \u00b0C"}}