{"cas_no": "362-05-0", "cn_name": "\u96cc\u753e-1,3,5(10)-\u4e09\u70ef2,3,17-\u4e09\u9187", "en_name": ["2-Hydroxyestradiol", "Estra-1,3,5(10)-triene-2,3,17-triol, (17\u03b2)-", "Estra-1,3,5(10)-triene-2,3,17\u03b2-triol", "(17\u03b2)-Estra-1,3,5(10)-triene-2,3,17-triol", "2-Hydroxyestradiol", "2,3,17\u03b2-Trihydroxyestra-1,3,5(10)-triene", "NSC 61711"], "SMILES": "CC12C(C3C(C=4C(CC3)=CC(O)=C(O)C4)CC1)CCC2O", "physical_data": {"Molecular Weight": "288.38", "Molecular Formula": "C18H24O3", "Melting Point": "161-162 \u00b0C"}}