{"cas_no": "3621-38-3", "cn_name": "\u836f\u6839\u78b1", "en_name": ["Jatrorrhizine", "Dibenzo[a,g]quinolizinium, 5,6-dihydro-3-hydroxy-2,9,10-trimethoxy-", "Berbinium, 7,8,13,13a-tetradehydro-3-hydroxy-2,9,10-trimethoxy-", "5,6-Dihydro-3-hydroxy-2,9,10-trimethoxydibenzo[a,g]quinolizinium", "Jatrorrhizine", "Yatrorizine", "Jatrorhizine", "Neprotin", "7,8,13,13a-Tetradehydro-3-hydroxy-2,9,10-trimethoxyberbinium", "Neprotine", "Jateorhizine"], "SMILES": "O(C)C=1C=C2C=3[N+](=CC=4C(C3)=CC=C(OC)C4OC)CCC2=CC1O", "physical_data": {"Molecular Weight": "", "Molecular Formula": "C20H20NO4", "Melting Point": "&gt;200 \u00b0C (decomp)"}}