{"cas_no": "36215-07-3", "cn_name": "3-\u6c2f\u4e19\u57fa\u7532\u57fa\u919a", "en_name": ["1-Chloro-3-methoxypropane", "Propane, 1-chloro-3-methoxy-", "Ether, 3-chloropropyl methyl", "1-Chloro-3-methoxypropane", "3-Chloro-1-methoxypropane", "3-Chloropropyl methyl ether", "3-Methoxypropyl chloride", "3-Methoxy-1-chloropropane", "Methyl 3-chloropropyl ether"], "SMILES": "C(COC)CCl", "physical_data": {"Molecular Weight": "108.57", "Molecular Formula": "C4H9ClO", "Boiling Point": "111 \u00b0C", "Melting Point": "110-112 \u00b0C", "Density": "1.0009 g/cm\u00b3 @ Temp: 20 \u00b0C"}}