{"cas_no": "3621-36-1", "cn_name": "\u975e\u6d32\u9632\u5df1\u78b1", "en_name": ["Columbamine", "Dibenzo[a,g]quinolizinium, 5,6-dihydro-2-hydroxy-3,9,10-trimethoxy-", "Berbinium, 7,8,13,13a-tetradehydro-2-hydroxy-3,9,10-trimethoxy-", "Columbamine", "5,6-Dihydro-2-hydroxy-3,9,10-trimethoxydibenzo[a,g]quinolizinium", "Columbamin", "Dehydroisocorypalmine"], "SMILES": "OC=1C=C2C=3[N+](=CC=4C(C3)=CC=C(OC)C4OC)CCC2=CC1OC", "physical_data": {"Molecular Weight": "", "Molecular Formula": "C20H20NO4", "Melting Point": "280-282 \u00b0C"}}