{"cas_no": "3621-82-7", "cn_name": "2,6-\u4e8c\u6c2f\u82ef\u5e76\u5641\u5511", "en_name": ["2,6-Dichlorobenzoxazole", "Benzoxazole, 2,6-dichloro-", "2,6-Dichlorobenzoxazole", "2,6-Dichlorobenzo[d]oxazole", "2,6-Dichloro-1,3-benzooxazole", "2,6-Dichloro-1,3-benzoxazole"], "SMILES": "ClC1=NC=2C(O1)=CC(Cl)=CC2", "physical_data": {"Molecular Weight": "188.01", "Molecular Formula": "C7H3Cl2NO", "Melting Point": "56-57 \u00b0C"}}