{"cas_no": "3622-30-8", "cn_name": "2,4-\u4e8c\u6c2f\u82ef\u5e76\u567b\u5511", "en_name": ["2,4-Dichlorobenzothiazole", "Benzothiazole, 2,4-dichloro-", "2,4-Dichlorobenzothiazole", "2,4-Dichloro-1,3-benzothiazole", "2,4-Dichlorobenzo[d]thiazole"], "SMILES": "ClC1=C2C(SC(Cl)=N2)=CC=C1", "physical_data": {"Molecular Weight": "204.08", "Molecular Formula": "C7H3Cl2NS", "Melting Point": "96-97 \u00b0C"}}