{"cas_no": "3622-32-0", "cn_name": "2-\u6c2f-4-\u7532\u57fa\u82ef\u5e76\u567b\u5511", "en_name": ["2-Chloro-4-methylbenzothiazole", "Benzothiazole, 2-chloro-4-methyl-", "2-Chloro-4-methylbenzothiazole", "2-Chloro-4-methyl-1,3-benzothiazole"], "SMILES": "CC1=C2C(SC(Cl)=N2)=CC=C1", "physical_data": {"Molecular Weight": "183.66", "Molecular Formula": "C8H6ClNS", "Boiling Point": "130 \u00b0C @ Press: 9 Torr", "Melting Point": "49-50 \u00b0C"}}