{"cas_no": "3622-40-0", "cn_name": "2-\u6eb4-4-\u6c2f\u82ef\u5e76\u567b\u5511", "en_name": ["2-Bromo-4-chlorobenzothiazole", "Benzothiazole, 2-bromo-4-chloro-", "2-Bromo-4-chlorobenzothiazole", "NSC 523841", "2-Bromo-4-chloro-1,3-benzothiazole"], "SMILES": "ClC1=C2C(SC(Br)=N2)=CC=C1", "physical_data": {"Molecular Weight": "248.53", "Molecular Formula": "C7H3BrClNS", "Melting Point": "107-108 \u00b0C"}}