{"cas_no": "3622-84-2", "cn_name": "N-\u4e01\u57fa\u82ef\u78fa\u9170\u80fa", "en_name": ["N-Butylbenzenesulfonamide", "Benzenesulfonamide, N-butyl-", "N-Butylbenzenesulfonamide", "Plastomoll BMB", "BM 4", "Uniplex 214", "Plasthall BSA", "Cetamoll BMB", "Dellatol BBS", "BM 4 (sulfonamide)", "N-(n-Butyl)benzenesulfonamide", "BBSA", "NSC 3536", "AK 551", "Topcizer 7", "Benzenesulfonic acid butylamide", "Butylbenzenesulfonamide", "Proviplast 024"], "SMILES": "S(NCCCC)(=O)(=O)C1=CC=CC=C1", "physical_data": {"Molecular Weight": "213.30", "Molecular Formula": "C10H15NO2S", "Melting Point": "83 \u00b0C"}}