{"cas_no": "3622-19-3", "cn_name": "2-\u6eb4-6-\u7532\u57fa\u82ef\u5e76\u567b\u5511", "en_name": ["2-Bromo-6-methylbenzothiazole", "Benzothiazole, 2-bromo-6-methyl-", "2-Bromo-6-methylbenzothiazole", "2-Bromo-6-methylbenzo[d]thiazole", "2-Bromo-6-methyl-1,3-benzothiazole"], "SMILES": "BrC1=NC=2C(S1)=CC(C)=CC2", "physical_data": {"Molecular Weight": "228.11", "Molecular Formula": "C8H6BrNS", "Melting Point": "42-43 \u00b0C"}}