{"cas_no": "3622-23-9", "cn_name": "2,6-\u4e8c\u6c2f\u82ef\u5e76\u567b\u5511", "en_name": ["2,6-Dichlorobenzothiazole", "Benzothiazole, 2,6-dichloro-", "2,6-Dichlorobenzothiazole", "2,6-Dichlorobenzo[d]thiazole", "2,6-Dichloro-1,3-benzothiazole", "2-Chloro-6-chlorobenzo[d]thiazole"], "SMILES": "ClC1=NC=2C(S1)=CC(Cl)=CC2", "physical_data": {"Molecular Weight": "204.08", "Molecular Formula": "C7H3Cl2NS", "Melting Point": "101 \u00b0C"}}