{"cas_no": "3622-35-3", "cn_name": "1,3-\u82ef\u5e76\u567b\u5511-6-\u7fa7\u9178", "en_name": ["6-Benzothiazolecarboxylic acid", "6-Benzothiazolecarboxylic acid", "1,3-Benzothiazole-6-carboxylic acid", "Benzo[d]thiazole-6-carboxylic acid", "1: PN: WO2008156676 SEQID: 1 claimed sequence"], "SMILES": "C(O)(=O)C=1C=C2C(=CC1)N=CS2", "physical_data": {"Molecular Weight": "179.20", "Molecular Formula": "C8H5NO2S", "Melting Point": "245-246 \u00b0C"}}