{"cas_no": "36239-09-5", "cn_name": "\u6c2f\u7532\u9170\u4e59\u9178\u4e59\u916f", "en_name": ["Ethyl 3-chloro-3-oxopropanoate", "Propanoic acid, 3-chloro-3-oxo-, ethyl ester", "Acetic acid, (chloroformyl)-, ethyl ester", "Ethyl 3-chloro-3-oxopropanoate", "(Chloroformyl)acetic acid ethyl ester", "Carbethoxyethanoyl chloride", "Ethyl (chloroformyl)acetate", "Malonic acid monoethyl ester chloride", "(Ethoxycarbonyl)acetyl chloride", "Carbethoxyacetyl chloride", "Ethyl (chlorocarbonyl)acetate", "Ethyl malonoyl chloride", "Ethyl malonyl chloride", "2-(Ethoxycarbonyl)acetyl chloride", "Malonic ethyl ester chloride", "Malonic chloride ethyl ester", "Malonic acid chloride ethyl ester", "Malonic acid ethyl ester chloride", "Monoethyl malonyl chloride", "Ethyl 3-chloro-3-oxopropionate", "Ethoxymalonyl chloride", "Malonic acid chloride monoethyl ester", "Ethyl 3-oxo-3-chloropropanoate", "3-Chloro-3-oxopropanoic acid ethyl ester", "Carboethoxyacetyl chloride", "(Chlorocarbonyl)acetic acid ethyl ester", "3-Ethoxy-3-oxopropanoyl chloride"], "SMILES": "C(C(OCC)=O)C(Cl)=O", "physical_data": {"Molecular Weight": "150.56", "Molecular Formula": "C5H7ClO3", "Boiling Point": "60 \u00b0C @ Press: 7 Torr"}}