{"cas_no": "36238-67-2", "cn_name": "(3R,8AS)-\u516d\u6c22-3-\u5f02\u4e01\u57fa\u5421\u54af\u5e76[1,2-A]\u5421\u55ea-1,4-\u4e8c\u916e", "en_name": ["(3R,8aS)-Hexahydro-3-(2-methylpropyl)pyrrolo[1,2-a]pyrazine-1,4-dione", "Pyrrolo[1,2-a]pyrazine-1,4-dione, hexahydro-3-(2-methylpropyl)-, (3R,8aS)-", "Pyrrolo[1,2-a]pyrazine-1,4-dione, hexahydro-3-(2-methylpropyl)-, (3R-cis)-", "(3R,8aS)-Hexahydro-3-(2-methylpropyl)pyrrolo[1,2-a]pyrazine-1,4-dione", "Cyclo(L-prolyl-D-leucyl)", "Cyclo-L-prolyl-D-leucine", "Cyclo(S-Pro-R-Leu)", "Cyclo(L-Pro-D-Leu)"], "SMILES": "O=C1N2C(C(=O)NC1CC(C)C)CCC2", "physical_data": {"Molecular Weight": "210.27", "Molecular Formula": "C11H18N2O2", "Melting Point": "154-157 \u00b0C"}}