{"cas_no": "36255-44-4", "cn_name": "1-\u6eb4-3,3-\u4e8c\u7532\u6c27\u57fa\u4e19\u70f7", "en_name": ["3-Bromo-1,1-dimethoxypropane", "Propane, 3-bromo-1,1-dimethoxy-", "3-Bromo-1,1-dimethoxypropane", "3-Bromopropionaldehyde dimethylacetal", "1-Bromo-3,3-dimethoxypropane", "3-Bromopropanal dimethyl acetal", "3,3-Dimethoxypropyl bromide", "1,1-Dimethoxy-3-bromopropane"], "SMILES": "C(CCBr)(OC)OC", "physical_data": {"Molecular Weight": "183.04", "Molecular Formula": "C5H11BrO2", "Boiling Point": "58-60 \u00b0C @ Press: 17 Torr", "Density": "1.341 g/cm\u00b3 @ Temp: 18 \u00b0C"}}