{"cas_no": "3625-06-7", "cn_name": "\u7f8e\u8d1d\u7ef4\u6797", "en_name": ["(\u00b1)-Mebeverine", "Benzoic acid, 3,4-dimethoxy-, 4-[ethyl[2-(4-methoxyphenyl)-1-methylethyl]amino]butyl ester", "Veratric acid, 4-[ethyl(p-methoxy-\u03b1-methylphenethyl)amino]butyl ester", "4-Ethyl(p-methoxy-\u03b1-methylphenethyl)amino]butyl 3,4-dimethoxybenzoate", "Mebeverine", "3,4-Dimethoxybenzoic acid 4-[ethyl(p-methoxy-\u03b1-methylphenethyl)amino]butyl ester", "4-[N-[2-(p-Methoxyphenyl)-1-methylethyl]-N-ethylamino]butyl 3,4-dimethoxybenzoate", "(\u00b1)-Mebeverine"], "SMILES": "C(OCCCCN(C(CC1=CC=C(OC)C=C1)C)CC)(=O)C2=CC(OC)=C(OC)C=C2", "physical_data": {"Molecular Weight": "429.55", "Molecular Formula": "C25H35NO5", "Melting Point": "129-131 \u00b0C"}}