{"cas_no": "36263-51-1", "cn_name": "1-(4-\u7532\u6c27\u57fa\u82ef\u57fa)-1-\u73af\u5df1\u70f7\u7532\u8148", "en_name": ["1-(4-Methoxyphenyl)cyclohexanecarbonitrile", "Cyclohexanecarbonitrile, 1-(4-methoxyphenyl)-", "1-(4-Methoxyphenyl)cyclohexanecarbonitrile", "NSC 155171", "1-(4-Methoxyphenyl)-1-cyclohexanecarbonitrile"], "SMILES": "C(#N)C1(CCCCC1)C2=CC=C(OC)C=C2", "physical_data": {"Molecular Weight": "215.29", "Molecular Formula": "C14H17NO", "Melting Point": "46.8 \u00b0C"}}