{"cas_no": "36265-41-5", "cn_name": "1,4-\u4e8c\u6c22-3,5-\u4e8c\u4e59\u9178\u6708\u6842\u9187\u916f-2,6-\u4e8c\u7532\u57fa\u5421\u5576", "en_name": ["3,5-Didodecyl 1,4-dihydro-2,6-dimethyl-3,5-pyridinedicarboxylate", "3,5-Pyridinedicarboxylic acid, 1,4-dihydro-2,6-dimethyl-, 3,5-didodecyl ester", "3,5-Pyridinedicarboxylic acid, 1,4-dihydro-2,6-dimethyl-, didodecyl ester", "3,5-Didodecyl 1,4-dihydro-2,6-dimethyl-3,5-pyridinedicarboxylate", "Dilauryl 1,4-dihydro-2,6-dimethyl-3,5-pyridinedicarboxylate", "Didodecyl 1,4-dihydro-2,6-dimethylpyridine-3,5-dicarboxylate", "2,6-Dimethyl-3,5-didodecyloxycarbonyl-1,4-dihydropyridine", "2,6-Dimethyl-3,5-dilauryloxycarbonyl-1,4-dihydropyridine", "Stavinor D 507"], "SMILES": "C(OCCCCCCCCCCCC)(=O)C=1CC(C(OCCCCCCCCCCCC)=O)=C(C)NC1C", "physical_data": {"Molecular Weight": "533.83", "Molecular Formula": "C33H59NO4", "Melting Point": "93-94 \u00b0C"}}