{"cas_no": "36267-71-7", "cn_name": "2-\u7532\u57fa-5,7-\u4e8c\u6c22\u567b\u5429\u5e76[3,4-d]\u5627\u5576", "en_name": ["2-Methyl-5,7-dihydrothieno[3,4-d]pyrimidine", "Thieno[3,4-d]pyrimidine, 5,7-dihydro-2-methyl-", "5,7-Dihydro-2-methylthieno[3,4-d]pyrimidine", "2-Methyl-5,7-dihydrothieno[3,4-d]pyrimidine", "2-Methyl-5H,7H-thieno[3,4-d]pyrimidine"], "SMILES": "CC=1N=C2C(=CN1)CSC2", "physical_data": {"Molecular Weight": "152.22", "Molecular Formula": "C7H8N2S", "Melting Point": "64.5-65 \u00b0C"}}