{"cas_no": "36282-26-5", "cn_name": "2-\u6eb4-4-\u6c1f\u82ef\u7532\u8148", "en_name": ["2-Bromo-4-fluorobenzonitrile", "Benzonitrile, 2-bromo-4-fluoro-", "2-Bromo-4-fluorobenzonitrile", "4-Fluoro-2-bromobenzonitrile"], "SMILES": "C(#N)C1=C(Br)C=C(F)C=C1", "physical_data": {"Molecular Weight": "200.01", "Molecular Formula": "C7H3BrFN", "Melting Point": "76 \u00b0C"}}