{"cas_no": "36284-77-2", "cn_name": "\u523a\u4e94\u52a0\u53f6\u4e2d", "en_name": ["Hederasaponin B", "Olean-12-en-28-oic acid, 3-[[2-O-(6-deoxy-\u03b1-L-mannopyranosyl)-\u03b1-L-arabinopyranosyl]oxy]-, O-6-deoxy-\u03b1-L-mannopyranosyl-(1\u21924)-O-\u03b2-D-glucopyranosyl-(1\u21926)-\u03b2-D-glucopyranosyl ester, (3\u03b2)-", "Eleutheroside M", "Hederacoside B", "Hederasaponin B", "Hederacolchiside C", "Tauroside G2", "Tauroside St-G2", "Glycoside L-G2", "Saponin Pl3", "Hederagenin B", "3-O-\u03b1-L-Rhamnopyranosyl-(1\u21922)-\u03b1-L-arabinopyranosyloleanolic acid 28-O-\u03b1-L-rhamnopyranosyl-(1\u21924)-\u03b2-D-glucopyranose-(1\u21926)-\u03b2-D-glucopyranoside"], "SMILES": "C(OC1OC(COC2OC(CO)C(OC3C(O)C(O)C(O)C(C)O3)C(O)C2O)C(O)C(O)C1O)(=O)C45C(C=6C(C)(CC4)C7(C)C(CC6)C8(C)C(CC7)C(C)(C)C(OC9C(OC%10C(O)C(O)C(O)C(C)O%10)C(O)C(O)CO9)CC8)CC(C)(C)CC5", "physical_data": {"Molecular Weight": "1205.38", "Molecular Formula": "C59H96O25", "Melting Point": "223-226 \u00b0C"}}