{"cas_no": "363-52-0", "cn_name": "3-\u6c1f\u90bb\u82ef\u4e8c\u915a", "en_name": ["3-Fluoro-1,2-benzenediol", "1,2-Benzenediol, 3-fluoro-", "Pyrocatechol, 3-fluoro-", "3-Fluoro-1,2-benzenediol", "3-Fluorocatechol", "3-Fluoro-2-hydroxyphenol", "1,2-Dihydroxy-3-fluorobenzene"], "SMILES": "OC1=C(F)C=CC=C1O", "physical_data": {"Molecular Weight": "128.10", "Molecular Formula": "C6H5FO2", "Melting Point": "71-71.5 \u00b0C"}}