{"cas_no": "363-03-1", "cn_name": "\u82ef\u57fa-P-\u82ef\u918c", "en_name": ["Phenyl-1,4-benzoquinone", "2,5-Cyclohexadiene-1,4-dione, 2-phenyl-", "p-Benzoquinone, 2-phenyl-", "p-Benzoquinone, phenyl-", "Quinone, phenyl-", "2-Phenyl-2,5-cyclohexadiene-1,4-dione", "Phenyl-p-benzoquinone", "Phenylquinone", "Phenylbenzoquinone", "2-Phenylbenzoquinone", "2-Phenyl-1,4-benzoquinone", "Phenyl-1,4-benzoquinone", "2-Phenyl-p-benzoquinone", "2-Phenylquinone", "NSC 2806", "[1,1\u2032-Biphenyl]-2,5-dione"], "SMILES": "O=C1C(=CC(=O)C=C1)C2=CC=CC=C2", "physical_data": {"Molecular Weight": "184.19", "Molecular Formula": "C12H8O2", "Melting Point": "114 \u00b0C"}}