{"cas_no": "363-51-9", "cn_name": "2-\u6c2f-6-\u6c1f\u82ef\u80fa", "en_name": ["2-Chloro-6-fluoroaniline", "Benzenamine, 2-chloro-6-fluoro-", "Aniline, 2-chloro-6-fluoro-", "2-Chloro-6-fluorobenzenamine", "2-Chloro-6-fluoroaniline", "2-Chloro-6-fluorophenylamine", "2-Fluoro-6-chloroaniline"], "SMILES": "NC1=C(Cl)C=CC=C1F", "physical_data": {"Molecular Weight": "145.56", "Molecular Formula": "C6H5ClFN", "Boiling Point": "91 \u00b0C @ Press: 30 Torr", "Melting Point": "31-32 \u00b0C", "Density": "1.316 g/cm\u00b3 @ Temp: 23 \u00b0C"}}