{"cas_no": "363-47-3", "cn_name": "3,5-\u4e8c\u6c1f-4-\u7532\u6c27\u57fa\u82ef\u80fa", "en_name": ["3,5-Difluoro-4-methoxyaniline", "Benzenamine, 3,5-difluoro-4-methoxy-", "p-Anisidine, 3,5-difluoro-", "3,5-Difluoro-4-methoxybenzenamine", "3,5-Difluoro-4-methoxyaniline"], "SMILES": "O(C)C1=C(F)C=C(N)C=C1F", "physical_data": {"Molecular Weight": "159.13", "Molecular Formula": "C7H7F2NO", "Boiling Point": "80 \u00b0C @ Press: 0.1 Torr", "Melting Point": "78.5-79 \u00b0C"}}