{"cas_no": "363-81-5", "cn_name": "2,4,6-\u4e09\u6c1f\u82ef\u80fa", "en_name": ["2,4,6-Trifluorobenzenamine", "Benzenamine, 2,4,6-trifluoro-", "Aniline, 2,4,6-trifluoro-", "2,4,6-Trifluorobenzenamine", "2,4,6-Trifluoroaniline", "2-Amino-1,3,5-trifluorobenzene", "1,3,5-Trifluoroaniline"], "SMILES": "NC1=C(F)C=C(F)C=C1F", "physical_data": {"Molecular Weight": "147.10", "Molecular Formula": "C6H4F3N", "Boiling Point": "57 \u00b0C", "Melting Point": "35 \u00b0C"}}