{"cas_no": "363-72-4", "cn_name": "\u4e94\u6c1f\u82ef", "en_name": ["Pentafluorobenzene", "Benzene, 1,2,3,4,5-pentafluoro-", "Benzene, pentafluoro-", "1,2,3,4,5-Pentafluorobenzene", "Pentafluorobenzene", "NSC 88293"], "SMILES": "FC1=C(F)C(F)=C(F)C=C1F", "physical_data": {"Molecular Weight": "168.06", "Molecular Formula": "C6HF5", "Boiling Point": "85.7 \u00b0C", "Melting Point": "-47.3 \u00b0C", "Density": "1.511 g/cm\u00b3 @ Temp: 23.8 \u00b0C"}}