{"cas_no": "363-24-6", "cn_name": "\u5730\u8bfa\u524d\u5217\u916e", "en_name": ["Prostaglandin E2", "Prosta-5,13-dien-1-oic acid, 11,15-dihydroxy-9-oxo-, (5Z,11\u03b1,13E,15S)-", "5-Heptenoic acid, 7-[3-hydroxy-2-(3-hydroxy-1-octenyl)-5-oxocyclopentyl]-", "5-Heptenoic acid, 7-[3\u03b1-hydroxy-2-(3-hydroxy-1-octenyl)-5-oxocyclopentyl]-", "(5Z,11\u03b1,13E,15S)-11,15-Dihydroxy-9-oxoprosta-5,13-dien-1-oic acid", "PGE2", "Prostaglandin E2", "U 12062", "11\u03b1,15\u03b1-Dihydroxy-9-oxo-5-cis,13-trans-prostadienoic acid", "(15S)-Prostaglandin E2", "(-)-Prostaglandin E2", "11\u03b1,15\u03b1-Dihydroxy-9-ketoprosta-5,13-dienoic acid", "Dinoprostone", "Prostin E2", "Prepidil", "l-Prostaglandin E2", "l-PGE2", "Minprostin E2", "Prostenon", "Prostenone", "Cervidil", "Prostin", "Prostin (prostaglandin)", "Glandin", "Prostarmon E", "Cerviprost", "Propess", "Minprositin E2", "Enzaprost E", "NSC 165560", "NSC 196514", "Primiprost", "Cerviprime", "11,15-Dihydroxy-9-oxoprosta-5,13-dien-1-oic acid (5Z,11\u03b1,13E,15S)", "5: PN: US20150065431 SEQID: 5 claimed sequence", "7-[3-hydroxy-2-(3-hydroxy-1-octenyl)-5-oxo-cyclopentyl]-5-heptenoic acid"], "SMILES": "C(C=CCCCC(O)=O)C1C(C=CC(CCCCC)O)C(O)CC1=O", "physical_data": {"Molecular Weight": "352.47", "Molecular Formula": "C20H32O5", "Melting Point": "67 \u00b0C"}}