{"cas_no": "36306-87-3", "cn_name": "4-(1-\u4e59\u6c27\u4ee3\u4e59\u70ef\u57fa)-3,3,5,5-\u56db\u7532\u57fa-\u73af\u5df1\u916e", "en_name": ["4-(1-Ethoxyethenyl)-3,3,5,5-tetramethylcyclohexanone", "Cyclohexanone, 4-(1-ethoxyethenyl)-3,3,5,5-tetramethyl-", "4-(1-Ethoxyethenyl)-3,3,5,5-tetramethylcyclohexanone", "Kephalis", "LRG 1182", "4-(1-Ethoxyvinyl)-3,3,5,5-tetramethylcyclohexanone", "4-(1-Ethoxyvinyl)-3,3,5,5-tetramethylcyclohexan-1-one"], "SMILES": "C(OCC)(=C)C1C(C)(C)CC(=O)CC1(C)C", "physical_data": {"Molecular Weight": "224.34", "Molecular Formula": "C14H24O2", "Boiling Point": "80-82 \u00b0C @ Press: 2 Torr"}}