{"cas_no": "36304-84-4", "cn_name": "\u4e8c\u7532\u5561\u70f7\u78f7\u9178\u76d0", "en_name": ["Morphinan, 3,17-dimethyl-, (9\u03b1,13\u03b1,14\u03b1)-, phosphate (1:1)", "Morphinan, 3,17-dimethyl-, (9\u03b1,13\u03b1,14\u03b1)-, phosphate (1:1)", "AT 17", "Dimemorfan phosphate", "Astomin"], "SMILES": "P(=O)(O)(O)O.CN1C2C3C(C=4C(C2)=CC=C(C)C4)(CC1)CCCC3", "physical_data": {"Molecular Weight": "", "Molecular Formula": "C18H25N.H3O4P", "Melting Point": "267-269 \u00b0C"}}