{"cas_no": "36315-01-2", "cn_name": "2-\u6c28\u57fa-4,6-\u4e8c\u7532\u6c27\u57fa\u5421\u5576", "en_name": ["2-Amino-4,6-dimethoxypyrimidine", "2-Pyrimidinamine, 4,6-dimethoxy-", "Pyrimidine, 2-amino-4,6-dimethoxy-", "4,6-Dimethoxy-2-pyrimidinamine", "2-Amino-4,6-dimethoxypyrimidine", "4,6-Dimethoxy-2-aminopyrimidine", "J 290", "AE-F 092944"], "SMILES": "O(C)C=1C=C(OC)N=C(N)N1", "physical_data": {"Molecular Weight": "155.15", "Molecular Formula": "C6H9N3O2", "Boiling Point": "252 \u00b0C @ Press: 760 Torr", "Melting Point": "95 \u00b0C"}}