{"cas_no": "36314-98-4", "cn_name": "2-\u6c28\u57fa-4-\u6c30\u57fa\u5627\u5576", "en_name": ["2-Amino-4-pyrimidinecarbonitrile", "4-Pyrimidinecarbonitrile, 2-amino-", "2-Amino-4-pyrimidinecarbonitrile", "2-Aminopyrimidine-4-carbonitrile", "2-Amino-4-cyanopyrimidine"], "SMILES": "C(#N)C1=NC(N)=NC=C1", "physical_data": {"Molecular Weight": "120.11", "Molecular Formula": "C5H4N4", "Melting Point": "222 \u00b0C (decomp)"}}