{"cas_no": "36323-28-1", "cn_name": "\u95f4-\u53cc\u6eb4\u7532\u57fa\u82ef", "en_name": ["1,3-Bis(dibromomethyl)benzene", "Benzene, 1,3-bis(dibromomethyl)-", "m-Xylene, \u03b1,\u03b1,\u03b1\u2032,\u03b1\u2032-tetrabromo-", "1,3-Bis(dibromomethyl)benzene", "\u03b1,\u03b1,\u03b1\u2032,\u03b1\u2032-Tetrabromo-m-xylene", "NSC 76079"], "SMILES": "C(Br)(Br)C1=CC(C(Br)Br)=CC=C1", "physical_data": {"Molecular Weight": "421.75", "Molecular Formula": "C8H6Br4", "Melting Point": "107 \u00b0C"}}