{"cas_no": "36322-90-4", "cn_name": "\u5421\u7f57\u6614\u5eb7", "en_name": ["Piroxicam", "2H-1,2-Benzothiazine-3-carboxamide, 4-hydroxy-2-methyl-N-2-pyridinyl-, 1,1-dioxide", "Piroxicam", "Pyroxycam", "Baxo", "Feldene", "Piroftal", "CHF 1251", "Roxicam", "4-Hydroxy-2-methyl-N-(2-pyridyl)-2H-1,2-benzothiazine-3-carboxamide 1,1-dioxide", "NSC 666076", "Sasulen", "Doblexan", "Improntal", "Piroflex", "Bruxicam", "Erazon", "Flogobene", "Geldene", "Reudene", "Artroxicam", "Roxiden", "Solocalm", "Riacen", "Larapam", "Zunden", "Caliment", "Pirkam", "CP 16171", "Felden gel", "Feldene Zydis", "Dolibid", "Feldene Melt", "Felvin 20", "Pixicam", "Feloxin", "Nkoyo piroxicam", "Felxicam", "Neoxicam", "Uphaxicam", "Maxvin", "Laxidene", "Rheugesic", "Piroxidine", "Dispercam", "Murupe", "Feledene", "Feldoral", "Piroxitas-DT", "Nesprex-DT", "Flogosan", "Inflacin", "MeSH ID: D010894"], "SMILES": "OC=1C=2C(S(=O)(=O)N(C)C1C(NC3=CC=CC=N3)=O)=CC=CC2", "physical_data": {"Molecular Weight": "331.35", "Molecular Formula": "C15H13N3O4S", "Melting Point": "198-200 \u00b0C"}}