{"cas_no": "36335-67-8", "cn_name": "\u6291\u8349\u78f7", "en_name": ["Butamifos", "Phosphoramidothioic acid, N-(1-methylpropyl)-, O-ethyl O-(5-methyl-2-nitrophenyl) ester", "Phosphoramidothioic acid, (1-methylpropyl)-, O-ethyl O-(5-methyl-2-nitrophenyl) ester", "O-Ethyl O-(5-methyl-2-nitrophenyl) N-sec-butylphosphorothionoamidate", "O-Ethyl O-(2-nitro-5-methylphenyl) N-sec-butylphosphorothionoamidate", "O-Ethyl O-(3-methyl-6-nitrophenyl) sec-butylphosphoramidothionate", "S 2846", "Hercules 26905", "Cremart", "H 26905", "O-Ethyl O-(5-methyl-2-nitrophenyl) sec-butylphosphonoamidothioate", "S 28", "S 28 (pesticide)", "O-Ethyl O-(3-methyl-6-nitrophenyl) N-sec-butylphosphorothioamidate", "Butamifos", "Metacrefos", "O-Ethyl-O-(5-methyl-2-nitrophenyl)-sec-butylphosphoroamidothioate", "Butamiphos"], "SMILES": "O(P(NC(CC)C)(OCC)=S)C1=C(N(=O)=O)C=CC(C)=C1", "physical_data": {"Molecular Weight": "332.36", "Molecular Formula": "C13H21N2O4PS", "Melting Point": "&lt;25 \u00b0C"}}