{"cas_no": "36330-85-5", "cn_name": "\u82ac\u5e03\u82ac", "en_name": ["Fenbufen", "[1,1\u2032-Biphenyl]-4-butanoic acid, \u03b3-oxo-", "Propionic acid, 3-(4-biphenylylcarbonyl)-", "\u03b3-Oxo[1,1\u2032-biphenyl]-4-butanoic acid", "3-(4-Biphenylcarbonyl)propionic acid", "Fenbufen", "CL 82204", "Cinopal", "Bufemid", "Napanol", "3-(4-Phenylbenzoyl)propionic acid", "4-(4-Phenylphenyl)-4-oxobutyric acid", "Lederfen", "Cinopol", "4-(Biphenyl-4-yl)-4-oxobutanoic acid", "3-[(Biphenyl-4-yl)carbonyl]propionic acid", "4-(1,1\u2032-Biphenyl-4-yl)-4-oxobutanoic acid"], "SMILES": "C(CCC(O)=O)(=O)C1=CC=C(C=C1)C2=CC=CC=C2", "physical_data": {"Molecular Weight": "254.28", "Molecular Formula": "C16H14O3", "Melting Point": "186 \u00b0C"}}