{"cas_no": "3634-56-8", "cn_name": "\u4e8c\u7532\u57fa\u5f02\u4e19\u57fa\u6c2f\u7845\u70f7[\u4e8c\u7532\u57fa\u5f02\u4e19\u57fa\u7845\u5316\u5242]", "en_name": ["Chlorodimethyl(1-methylethyl)silane", "Silane, chlorodimethyl(1-methylethyl)-", "Silane, chloroisopropyldimethyl-", "Chlorodimethyl(1-methylethyl)silane", "Dimethylisopropylchlorosilane", "Dimethylisopropylsilyl chloride", "Isopropyldimethylchlorosilane", "Chloroisopropyldimethylsilane", "Isopropyldimethylsilyl chloride", "Chlorodimethylisopropylsilane"], "SMILES": "[Si](C(C)C)(C)(C)Cl", "physical_data": {"Molecular Weight": "136.70", "Molecular Formula": "C5H13ClSi", "Boiling Point": "114 \u00b0C", "Density": "0.873 g/cm\u00b3"}}