{"cas_no": "36343-05-2", "cn_name": "N-\u7532\u57fa\u5e9a\u80fa", "en_name": ["N-Methylheptylamine", "1-Heptanamine, N-methyl-", "Heptylamine, N-methyl-", "N-Methyl-1-heptanamine", "N-Methylheptylamine", "Heptylmethylamine", "N-Heptyl-N-methylamine", "NSC 96468"], "SMILES": "C(CCCC)CCNC", "physical_data": {"Molecular Weight": "129.24", "Molecular Formula": "C8H19N", "Boiling Point": "168 \u00b0C", "Density": "0.7843 g/cm\u00b3 @ Temp: 0 \u00b0C"}}