{"cas_no": "3634-67-1", "cn_name": "\u6c2f\u4e09\u5df1\u57fa\u7845\u70f7", "en_name": ["Chlorotrihexylsilane", "Silane, chlorotrihexyl-", "Chlorotrihexylsilane", "Trihexylchlorosilane", "Trihexylsilyl chloride", "Tri-n-hexylsilyl chloride", "NSC 139855"], "SMILES": "[Si](CCCCCC)(CCCCCC)(CCCCCC)Cl", "physical_data": {"Molecular Weight": "319.04", "Molecular Formula": "C18H39ClSi", "Boiling Point": "154-155 \u00b0C @ Press: 5 Torr", "Density": "0.871 g/cm\u00b3"}}