{"cas_no": "3634-83-1", "cn_name": "\u95f4\u82ef\u4e8c\u7532\u57fa\u5f02\u6c30\u9178\u916f", "en_name": ["m-Xylylene diisocyanate", "Benzene, 1,3-bis(isocyanatomethyl)-", "Isocyanic acid, m-phenylenedimethylene ester", "1,3-Bis(isocyanatomethyl)benzene", "m-Xylylene diisocyanate", "m-Phenylenedimethylene isocyanate", "1,3-Di(isocyanatomethyl)benzene", "1,3-Xylylene diisocyanate", "1,3-Xylene diisocyanate", "\u03c9,\u03c9\u2032-Diisocyanato-1,3-dimethylbenzene", "m-XDI", "(Benzene-1,3-diyl)dimethyl diisocyanate"], "SMILES": "C(N=C=O)C1=CC(CN=C=O)=CC=C1", "physical_data": {"Molecular Weight": "188.18", "Molecular Formula": "C10H8N2O2", "Boiling Point": "159-162 \u00b0C @ Press: 12 Torr"}}