{"cas_no": "36357-38-7", "cn_name": "5-\u4e59\u9170\u57fa-2-\u7532\u57fa\u5421\u5576", "en_name": ["1-(6-Methyl-3-pyridinyl)ethanone", "Ethanone, 1-(6-methyl-3-pyridinyl)-", "Ketone, methyl 6-methyl-3-pyridyl", "1-(6-Methyl-3-pyridinyl)ethanone", "2-Methyl-5-acetylpyridine", "5-Acetyl-2-methylpyridine", "5-Acetyl-2-picoline", "NSC 27972", "1-(6-Methylpyridin-3-yl)ethanone", "3-Acetyl-6-methylpyridine", "1-(6-Methyl-3-pyridyl)-1-ethanone", "6-Methyl-3-acetylpyridine", "1-(6-Methylpyridin-3-yl)ethan-1-one"], "SMILES": "C(C)(=O)C=1C=CC(C)=NC1", "physical_data": {"Molecular Weight": "135.16", "Molecular Formula": "C8H9NO", "Boiling Point": "231-232 \u00b0C", "Melting Point": "17.6 \u00b0C", "Density": "1.0661 g/cm\u00b3 @ Temp: 20 \u00b0C"}}