{"cas_no": "36355-01-8", "cn_name": "\u516d\u6eb4\u8054\u82ef", "en_name": ["Hexabromodiphenyl", "1,1\u2032-Biphenyl, hexabromo-", "Hexabromo-1,1\u2032-biphenyl", "Hexabromobiphenyl", "Hexabromodiphenyl", "RBF 075"], "SMILES": "", "physical_data": {"Molecular Weight": "", "Molecular Formula": "C12H4Br6", "Melting Point": "72 \u00b0C"}}