{"cas_no": "3637-61-4", "cn_name": "\u73af\u620a\u57fa\u7532\u9187", "en_name": ["Cyclopentanemethanol", "Cyclopentanemethanol", "Cyclopentylmethanol", "Cyclopentylmethyl alcohol", "(Hydroxymethyl)cyclopentane", "Cyclopentylcarbinol", "NSC 102763", "Cyclopentanemethan-1-ol", "Cylopentylmethanol"], "SMILES": "C(O)C1CCCC1", "physical_data": {"Molecular Weight": "100.16", "Molecular Formula": "C6H12O", "Boiling Point": "163 \u00b0C", "Melting Point": "121-123 \u00b0C", "Density": "0.9260 g/cm\u00b3 @ Temp: 20 \u00b0C"}}