{"cas_no": "36377-59-0", "cn_name": "4-\u4e59\u6c27\u57fa-3-\u7532\u6c27\u57fa\u82ef\u4e59\u80fa", "en_name": ["4-Ethoxy-3-methoxybenzeneethanamine", "Benzeneethanamine, 4-ethoxy-3-methoxy-", "Phenethylamine, 4-ethoxy-3-methoxy-", "4-Ethoxy-3-methoxybenzeneethanamine", "4-Ethoxy-3-methoxyphenethylamine", "3-Methoxy-4-ethoxyphenethylamine", "2-(4-Ethoxy-3-methoxyphenyl)ethanamine", "2-(4-Ethoxy-3-methoxyphenyl)ethylamine", "2-(4-Ethoxy-3-methoxyphenyl)ethan-1-amine"], "SMILES": "O(C)C1=C(OCC)C=CC(CCN)=C1", "physical_data": {"Molecular Weight": "195.26", "Molecular Formula": "C11H17NO2", "Boiling Point": "160 \u00b0C @ Press: 13 Torr", "Density": "1.0661 g/cm\u00b3 @ Temp: 25 \u00b0C"}}