{"cas_no": "3637-10-3", "cn_name": "4-\u7f9f\u57fa-2,2,6,6-\u56db\u7532\u57fa\u54cc\u5576\u6c27", "en_name": ["1,4-Dihydroxy-2,2,6,6-tetramethylpiperidine", "4-Piperidinol, 1-hydroxy-2,2,6,6-tetramethyl-", "1-Hydroxy-2,2,6,6-tetramethyl-4-piperidinol", "1,4-Dihydroxy-2,2,6,6-tetramethylpiperidine", "TOLH", "Tempol H", "4-Hydroxy-2,2,6,6-tetramethyl-N-hydroxypiperidine", "1-Hydroxy-2,2,6,6-tetramethyl-4-hydroxypiperidine", "OT 674"], "SMILES": "ON1C(C)(C)CC(O)CC1(C)C", "physical_data": {"Molecular Weight": "173.25", "Molecular Formula": "C9H19NO2", "Melting Point": "159 \u00b0C"}}