{"cas_no": "3637-26-1", "cn_name": "3-[N,N-\u4e8c\u7532\u57fa-[2-(2-\u7532\u57fa\u4e19-2-\u70ef\u9170\u6c27\u57fa)\u4e59\u57fa]\u94f5]\u4e19\u70f7-1-\u78fa\u9178\u5185\u76d0", "en_name": ["Sulfobetaine methacrylate", "1-Propanaminium, N,N-dimethyl-N-[2-[(2-methyl-1-oxo-2-propen-1-yl)oxy]ethyl]-3-sulfo-, inner salt", "Ammonium, (2-hydroxyethyl)dimethyl(3-sulfopropyl)-, hydroxide, inner salt, methacrylate", "1-Propanaminium, N,N-dimethyl-N-[2-[(2-methyl-1-oxo-2-propenyl)oxy]ethyl]-3-sulfo-, hydroxide, inner salt", "(2-Hydroxyethyl)dimethyl(3-sulfopropyl)ammonium hydroxide, inner salt, methacrylate", "1-Propanaminium, N,N-dimethyl-N-[2-[(2-methyl-1-oxo-2-propenyl)oxy]ethyl]-3-sulfo-, inner salt", "N-[2-(Methacryloyloxy)ethyl]-N,N-dimethyl-N-(3-sulfopropyl)betaine", "[2-(Methacryloyloxy)ethyl]dimethyl(3-sulfopropyl)ammonium hydroxide inner salt", "SPE", "Hartomer HB 6380", "Dimethyl(2-methacryloyloxyethyl)(3-sulfopropyl)ammonium", "3-[Dimethyl(methacryloyloxyethyl)ammonium]propanesulfonate", "3-[N,N-Dimethyl-N-(methacryloyloxyethyl)ammonium]propanesulfonate", "N-(3-Sulfopropyl)-N-(methacryloyloxyethyl)-N,N-dimethylammonium betaine", "N,N-Dimethyl-N-methacryloyloxyethyl-N-(3-sulfopropyl)ammonium inner salt", "N,N-Dimethyl-N-[2-(methacryloyloxy)ethyl]-N-(3-sulfopropyl)ammonium betaine", "N,N-Dimethyl(methacryloyloxyethyl)ammonium propanesulfonate", "DMAPS", "N-(2-Methacryloyloxyethyl)-N,N-dimethyl-N-(sulfopropyl)betain", "Ralu Mer SPE", "Sulfobetaine methacrylate", "[2-(Methacryloyloxy)ethyl]dimethyl(3-sulfopropyl)ammonium hydroxide", "N,N-Dimethyl-N-(3-sulfonatopropyl)-2-(methacryloyloxy)ethane-1-aminium", "N-(3-Sulfopropyl)-N-(methacryloxyethyl)-N,N-dimethylammonium betaine", "N,N-Dimethyl-N-(2-methacryloxyethyl)-N-(3-sulfopropyl)ammonium betaine", "N-(2-Methacryloyloxy)ethyl-N,N-dimethylammonio propanesulfonate"], "SMILES": "[N+](CCOC(C(C)=C)=O)(CCCS(=O)(=O)[O-])(C)C", "physical_data": {"Molecular Weight": "", "Molecular Formula": "C11H21NO5S", "Melting Point": "148-149 \u00b0C"}}