{"cas_no": "3637-01-2", "cn_name": "3,4-\u4e8c\u7532\u57fa\u82ef\u4e59\u916e", "en_name": ["3,4-Dimethylacetophenone", "Ethanone, 1-(3,4-dimethylphenyl)-", "Acetophenone, 3\u2032,4\u2032-dimethyl-", "1-(3,4-Dimethylphenyl)ethanone", "3\u2032,4\u2032-Dimethylacetophenone", "3,4-Dimethylacetophenone", "Methyl 3,4-dimethylphenyl ketone"], "SMILES": "C(C)(=O)C1=CC(C)=C(C)C=C1", "physical_data": {"Molecular Weight": "148.20", "Molecular Formula": "C10H12O", "Boiling Point": "246.5 \u00b0C", "Melting Point": "-3 \u00b0C", "Density": "1.0042 g/cm\u00b3 @ Temp: 20 \u00b0C"}}