{"cas_no": "36376-47-3", "cn_name": "2-(4-\u7532\u57fa-1H-\u54aa\u5511\u57fa-5-\u57fa)\u4e59\u80fa\u4e8c\u76d0\u9178\u76d0", "en_name": ["1H-Imidazole-5-ethanamine, 4-methyl-, hydrochloride (1:2)", "1H-Imidazole-5-ethanamine, 4-methyl-, hydrochloride (1:2)", "1H-Imidazole-4-ethanamine, 5-methyl-, dihydrochloride", "5-Methylhistamine dihydrochloride", "4-Methylhistamine dihydrochloride", "2-(5-Methyl-4-imidazolyl)ethylamine dihydrochloride", "4-(2-Aminoethyl)-5-methylimidazole dihydrochloride", "2-(5-Methyl-1H-imidazol-4-yl)ethan-1-amine dihydrochloride", "2-(4-Methyl-1H-imidazol-5-yl)ethan-1-amine dihydrochloride"], "SMILES": "C(CN)C1=C(C)N=CN1.Cl", "physical_data": {"Molecular Weight": "", "Molecular Formula": "C6H11N3.2ClH", "Melting Point": "231-233 \u00b0C"}}