{"cas_no": "36377-33-0", "cn_name": "12-\u7f9f\u57fa\u786c\u8102\u9178", "en_name": ["12-Hydroxystearic acid", "Octadecanoic acid, 12-hydroxy-", "Stearic acid, \u03bb-hydroxy-", "12-Hydroxyoctadecanoic acid", "Hydrofol Acid 200", "12-Hydroxystearic acid", "Harwax A", "Cerit Fac 3", "Barolub FTO", "Ceroxin GL", "Loxiol G 21", "KOW", "G 21", "12-HSA", "DL-12-Hydroxystearic acid", "DL-12-Hydroxyoctadecanoic acid", "Solsperse 2000", "Hoctol A", "HSIM 160", "Hydroxystearin R", "NSC 2385", "ADK Stab LS 12", "Pelemol HSA", "H 0308", "Solid X", "12HAS-I", "HSA", "12-Hydroacid", "12-Hydroacid HP", "Solplus D 310"], "SMILES": "C(CCCCCCCCCCC(O)=O)(CCCCCC)O", "physical_data": {"Molecular Weight": "300.48", "Molecular Formula": "C18H36O3", "Melting Point": "82 \u00b0C"}}