{"cas_no": "3638-04-8", "cn_name": "2,4-\u4e8c\u6c2f-6-\u7532\u6c27\u57fa-1,3,5-\u4e09\u55ea", "en_name": ["2,4-Dichloro-6-methoxy-1,3,5-triazine", "1,3,5-Triazine, 2,4-dichloro-6-methoxy-", "s-Triazine, 2,4-dichloro-6-methoxy-", "2,4-Dichloro-6-methoxy-1,3,5-triazine", "2,4-Dichloro-6-methoxy-s-triazine", "2-Methoxy-4,6-dichloro-s-triazine", "4,6-Dichloro-2-methoxy-s-triazine", "Dichloromethoxy-s-triazine", "2-Methoxy-4,6-dichloro-1,3,5-triazine", "6-Methoxy-2,4-dichloro-s-triazine", "Methoxydichloro-s-triazine", "NSC 50574", "Dichloromethoxytriazine"], "SMILES": "O(C)C=1N=C(Cl)N=C(Cl)N1", "physical_data": {"Molecular Weight": "179.99", "Molecular Formula": "C4H3Cl2N3O", "Melting Point": "88-90 \u00b0C"}}