{"cas_no": "3638-73-1", "cn_name": "2,5-\u4e8c\u6eb4\u82ef\u80fa", "en_name": ["2,5-Dibromoaniline", "Benzenamine, 2,5-dibromo-", "Aniline, 2,5-dibromo-", "2,5-Dibromobenzenamine", "2,5-Dibromoaniline", "NSC 88348", "2,5-Dibromophenylamine"], "SMILES": "NC1=C(Br)C=CC(Br)=C1", "physical_data": {"Molecular Weight": "250.92", "Molecular Formula": "C6H5Br2N", "Melting Point": "54.5-55 \u00b0C", "Density": "1.78 g/cm\u00b3"}}