{"cas_no": "3638-64-0", "cn_name": "\u785d\u57fa\u4e59\u70ef", "en_name": ["Ethene, nitro-", "Ethene, nitro-", "Ethylene, nitro-", "Nitroethylene", "1-Nitroethylene", "Nitroethene", "1-Nitroethene"], "SMILES": "N(C=C)(=O)=O", "physical_data": {"Molecular Weight": "73.05", "Molecular Formula": "C2H3NO2", "Boiling Point": "98.5 \u00b0C", "Melting Point": "-55.5 \u00b0C", "Density": "1.073 g/cm\u00b3 @ Temp: 13.8 \u00b0C"}}