{"cas_no": "36394-75-9", "cn_name": "2-\u8fc7\u6c27\u4e59\u9170\u4e19\u9170\u6c2f", "en_name": ["(S)-(-)-2-Acetoxypropionyl chloride", "Propanoyl chloride, 2-(acetyloxy)-, (2S)-", "Propanoyl chloride, 2-(acetyloxy)-, (S)-", "(2S)-2-(Acetyloxy)propanoyl chloride", "L-\u03b1-Acetoxypropionyl chloride", "(S)-2-Acetoxypropanoyl chloride", "(S)-2-Acetoxypropionyl chloride", "(S)-(-)-2-Acetoxypropionyl chloride", "(S)-2-(Acetyloxy)propanoyl chloride", "Acetic acid (1S)-2-chloro-1-methyl-2-oxoethyl ester", "(1S)-2-Chloro-1-methyl-2-oxoethyl acetate", "Acetic acid (1S)-1-(chlorocarbonyl)ethyl ester", "(S)-1-Chloro-1-oxopropan-2-yl acetate", "(S)-2-Acetoxypropionoyl chloride", "(2S)-1-Chloro-1-oxopropan-2-yl acetate", "(S)-2-Acetyloxypropionyl chloride", "2-(S)-Acetoxypropanoyl chloride", "(2S)-2-Acetoxypropionyl chloride", "Acetic acid (2S)-1-chloro-1-oxopropan-2-yl ester", "(1S)-2-Chloro-1-methyl-2-oxoethyl acetate"], "SMILES": "C(OC(C)=O)(C(Cl)=O)C", "physical_data": {"Molecular Weight": "150.56", "Molecular Formula": "C5H7ClO3", "Boiling Point": "58 \u00b0C @ Press: 15 Torr"}}