{"cas_no": "3639-21-2", "cn_name": "2-\u4e59\u57fa-2-\u7f9f\u57fa\u4e01\u9178", "en_name": ["2-Ethyl-2-hydroxybutanoic acid", "Butanoic acid, 2-ethyl-2-hydroxy-", "Butyric acid, 2-ethyl-2-hydroxy-", "2-Ethyl-2-hydroxybutanoic acid", "2-Ethyl-2-hydroxybutyric acid", "2-Hydroxy-2-ethylbutanoic acid"], "SMILES": "C(C(O)=O)(CC)(CC)O", "physical_data": {"Molecular Weight": "132.16", "Molecular Formula": "C6H12O3", "Melting Point": "78-79.5 \u00b0C"}}