{"cas_no": "364-74-9", "cn_name": "2,5-\u4e8c\u6c1f\u785d\u57fa\u82ef", "en_name": ["2,5-Difluoronitrobenzene", "Benzene, 1,4-difluoro-2-nitro-", "1,4-Difluoro-2-nitrobenzene", "2,5-Difluoronitrobenzene", "2,5-Difluoro-1-nitrobenzene", "2-Nitro-1,4-difluorobenzene", "NSC 528657"], "SMILES": "N(=O)(=O)C1=C(F)C=CC(F)=C1", "physical_data": {"Molecular Weight": "159.09", "Molecular Formula": "C6H3F2NO2", "Boiling Point": "206.5 \u00b0C", "Melting Point": "-11.7 \u00b0C"}}