{"cas_no": "364-98-7", "cn_name": "\u6c2f\u7532\u82ef\u567b\u55ea", "en_name": ["Diazoxide", "2H-1,2,4-Benzothiadiazine, 7-chloro-3-methyl-, 1,1-dioxide", "4H-1,2,4-Benzothiadiazine, 7-chloro-3-methyl-, 1,1-dioxide", "SRG 95213", "7-Chloro-3-methyl-2H-1,2,4-benzothiadiazine 1,1-dioxide", "Diazoxide", "Dizoxide", "Hyperstat", "3-Methyl-7-chloro-1,2,4-benzothiadiazine 1,1-dioxide", "Proglicem", "Mutabase", "NSC 64198", "Eudemine injection", "Sch 6783", "Hypertonalum", "Proglycem", "NSC 76130", "MeSH ID: D003981"], "SMILES": "O=S1(=O)C=2C(NC(C)=N1)=CC=C(Cl)C2", "physical_data": {"Molecular Weight": "230.67", "Molecular Formula": "C8H7ClN2O2S", "Melting Point": "330.5 \u00b0C"}}