{"cas_no": "364-83-0", "cn_name": "2',4'-\u4e8c\u6c1f\u82ef\u4e59\u916e", "en_name": ["1-(2,4-Difluorophenyl)ethanone", "Ethanone, 1-(2,4-difluorophenyl)-", "Acetophenone, 2\u2032,4\u2032-difluoro-", "1-(2,4-Difluorophenyl)ethanone", "2,4-Difluoroacetophenone", "2\u2032,4\u2032-Difluoroacetophenone", "2,4-Difluorophenyl methyl ketone", "o,p-Difluoroacetophenone", "1-(2,4-Difluorophenyl)ethan-1-one"], "SMILES": "C(C)(=O)C1=C(F)C=C(F)C=C1", "physical_data": {"Molecular Weight": "156.13", "Molecular Formula": "C8H6F2O", "Boiling Point": "80-81 \u00b0C @ Press: 25 Torr"}}