{"cas_no": "364-76-1", "cn_name": "4-\u6c1f-3-\u785d\u57fa\u82ef\u80fa", "en_name": ["4-Fluoro-3-nitroaniline", "Benzenamine, 4-fluoro-3-nitro-", "Aniline, 4-fluoro-3-nitro-", "4-Fluoro-3-nitrobenzenamine", "4-Fluoro-3-nitroaniline", "3-Nitro-4-fluoroaniline", "4-Fluoro-3-nitrophenylamine", "NSC 10293"], "SMILES": "N(=O)(=O)C1=C(F)C=CC(N)=C1", "physical_data": {"Molecular Weight": "156.11", "Molecular Formula": "C6H5FN2O2", "Melting Point": "96.5 \u00b0C"}}