{"cas_no": "364-12-5", "cn_name": "5-\u6eb4-2-\u7898\u4e09\u6c1f\u7532\u82ef", "en_name": ["4-Bromo-1-iodo-2-(trifluoromethyl)benzene", "Benzene, 4-bromo-1-iodo-2-(trifluoromethyl)-", "Toluene, 5-bromo-\u03b1,\u03b1,\u03b1-trifluoro-2-iodo-", "4-Bromo-1-iodo-2-(trifluoromethyl)benzene", "2-Trifluoromethyl-4-bromoiodobenzene", "5-Bromo-2-iodobenzotrifluoride"], "SMILES": "C(F)(F)(F)C1=C(I)C=CC(Br)=C1", "physical_data": {"Molecular Weight": "350.90", "Molecular Formula": "C7H3BrF3I", "Melting Point": "77-78 \u00b0C"}}