{"cas_no": "364-30-7", "cn_name": "2,4-\u4e8c\u6c1f-6-\u785d\u57fa\u82ef\u80fa", "en_name": ["2,4-Difluoro-6-nitrobenzenamine", "Benzenamine, 2,4-difluoro-6-nitro-", "Aniline, 2,4-difluoro-6-nitro-", "2,4-Difluoro-6-nitrobenzenamine", "2,4-Difluoro-6-nitroaniline", "2-Amino-3,5-difluoronitrobenzene", "NSC 81335", "(2,4-Difluoro-6-nitrophenyl)amine"], "SMILES": "N(=O)(=O)C1=C(N)C(F)=CC(F)=C1", "physical_data": {"Molecular Weight": "174.10", "Molecular Formula": "C6H4F2N2O2", "Melting Point": "85.5-86.5 \u00b0C (sublm)"}}