{"cas_no": "364-77-2", "cn_name": "4-\u6c1f-1-\u7898-2-\u785d\u57fa\u82ef", "en_name": ["4-Fluoro-1-iodo-2-nitrobenzene", "Benzene, 4-fluoro-1-iodo-2-nitro-", "4-Fluoro-1-iodo-2-nitrobenzene", "5-Fluoro-2-iodonitrobenzene", "2-Iodo-5-fluoronitrobenzene"], "SMILES": "N(=O)(=O)C1=C(I)C=CC(F)=C1", "physical_data": {"Molecular Weight": "267.00", "Molecular Formula": "C6H3FINO2", "Boiling Point": "126-128 \u00b0C @ Press: 9.8 Torr"}}