{"cas_no": "364-78-3", "cn_name": "4-\u6c1f-2-\u785d\u57fa\u82ef\u80fa", "en_name": ["4-Fluoro-2-nitroaniline", "Benzenamine, 4-fluoro-2-nitro-", "Aniline, 4-fluoro-2-nitro-", "4-Fluoro-2-nitrobenzenamine", "4-Fluoro-2-nitroaniline", "2-Nitro-4-fluoroaniline", "NSC 402980", "4-Fluoro-2-nitrophenylamine"], "SMILES": "N(=O)(=O)C1=C(N)C=CC(F)=C1", "physical_data": {"Molecular Weight": "156.11", "Molecular Formula": "C6H5FN2O2", "Melting Point": "93.5-94 \u00b0C"}}