{"cas_no": "364-53-4", "cn_name": "3,4-\u4e8c\u785d\u57fa\u6c1f\u82ef*", "en_name": ["4-Fluoro-1,2-dinitrobenzene", "Benzene, 4-fluoro-1,2-dinitro-", "4-Fluoro-1,2-dinitrobenzene", "1,2-Dinitro-4-fluorobenzene", "3,4-Dinitrofluorobenzene", "1-Fluoro-3,4-dinitrobenzene", "NSC 170938"], "SMILES": "N(=O)(=O)C1=C(N(=O)=O)C=C(F)C=C1", "physical_data": {"Molecular Weight": "186.10", "Molecular Formula": "C6H3FN2O4", "Melting Point": "25.8 \u00b0C"}}