{"cas_no": "364-71-6", "cn_name": "4-\u6c1f-2-\u785d\u57fa\u82ef\u80fa", "en_name": ["2-[(2-Fluoroacetyl)oxy]benzoic acid", "Benzoic acid, 2-[(2-fluoroacetyl)oxy]-", "Salicylic acid, 2-fluoroacetate", "Benzoic acid, 2-[(fluoroacetyl)oxy]-", "2-[(2-Fluoroacetyl)oxy]benzoic acid", "2-[(Fluoroacetyl)oxy]benzoic acid", "2-(2-Fluoroacetoxy)benzoic acid"], "SMILES": "C(O)(=O)C1=C(OC(CF)=O)C=CC=C1", "physical_data": {"Molecular Weight": "198.15", "Molecular Formula": "C9H7FO4", "Melting Point": "131.6 \u00b0C"}}