{"cas_no": "364-62-5", "cn_name": "\u7532\u6c27\u6c2f\u666e\u80fa", "en_name": ["Metoclopramide", "Benzamide, 4-amino-5-chloro-N-[2-(diethylamino)ethyl]-2-methoxy-", "o-Anisamide, 4-amino-5-chloro-N-[2-(diethylamino)ethyl]-", "4-Amino-5-chloro-N-[2-(diethylamino)ethyl]-2-methoxybenzamide", "5-Chloro-2-methoxyprocainamide", "N-(Diethylaminoethyl)-2-methoxy-4-amino-5-chlorbenzamide", "N-(Diethylaminoethyl)-2-methoxy-4-amino-5-chlorobenzamide", "Methochlopramide", "2-Methoxy-5-chloroprocainamide", "Metoclopramide", "Plasil", "Metochlopramide", "N-(2-Diethylaminoethyl)-2-methoxy-4-amino-5-chlorobenzamide", "N-[2-(Diethylamino)ethyl]-4-amino-5-chloro-2-methoxybenzamide", "2-Methoxy-4-amino-5-chloro-N,N-dimethylaminoethylbenzamide", "4-Amino-5-chloro-N-[2-(diethylamino)ethyl]-o-anisamide", "4-Amino-5-chloro-N-[2-(diethylamino)ethyl]-o-anisamide", "4-Amino-5-chloro-2-methoxy-N-(\u03b2-diethylaminoethyl)benzamide", "DEL 1267", "Reliveran", "Moriperan", "Metoclol", "Primperan", "Plasil (pharmaceutical)", "Parmid", "Eucil", "MCP-ratiopharm", "Clopromate", "Gastrosil", "Meclopran", "Gastro-tablinen", "Maxeran", "Draclamid", "Metramid", "Metamide", "Gastrobid", "Gastrese", "Emperal", "Gastromax", "Regla", "Gastro-Timelets", "Gastrotem", "Metocobil", "Macperan", "Orpamid", "Afipran", "MeSH ID: D008787"], "SMILES": "C(NCCN(CC)CC)(=O)C1=C(OC)C=C(N)C(Cl)=C1", "physical_data": {"Molecular Weight": "299.80", "Molecular Formula": "C14H22ClN3O2", "Melting Point": "147.25 \u00b0C"}}