{"cas_no": "36404-30-5", "cn_name": "3,4-\u4e8c\u6c2f\u82ef\u7532\u919a", "en_name": ["1,2-Dichloro-4-methoxybenzene", "Benzene, 1,2-dichloro-4-methoxy-", "1,2-Dichloro-4-methoxybenzene", "3,4-Dichloroanisole", "3,4-Dichloromethoxybenzene", "4,5-Dichlorophenyl methyl ether"], "SMILES": "O(C)C1=CC(Cl)=C(Cl)C=C1", "physical_data": {"Molecular Weight": "177.03", "Molecular Formula": "C7H6Cl2O", "Boiling Point": "200-204 \u00b0C", "Melting Point": "206 \u00b0C"}}