{"cas_no": "36404-90-7", "cn_name": "2-\u6c1f\u70df\u919b", "en_name": ["2-Fluoro-3-pyridinecarboxaldehyde", "3-Pyridinecarboxaldehyde, 2-fluoro-", "2-Fluoro-3-pyridinecarboxaldehyde", "2-Fluoropyridine-3-carboxaldehyde", "2-Fluoro-3-formylpyridine", "2-Fluoronicotinaldehyde", "2-Fluoropyridine-3-carbaldehyde"], "SMILES": "C(=O)C1=C(F)N=CC=C1", "physical_data": {"Molecular Weight": "125.10", "Molecular Formula": "C6H4FNO", "Boiling Point": "50 \u00b0C @ Press: 3 Torr"}}