{"cas_no": "3641-51-8", "cn_name": "(R)-(+)-\u7532\u57fa\u4e01\u4e8c\u9178", "en_name": ["(+)-Methylsuccinic acid", "Butanedioic acid, 2-methyl-, (2R)-", "Succinic acid, methyl-, (R)-(+)-", "Butanedioic acid, methyl-, (R)-", "Butanedioic acid, methyl-, (2R)-", "(2R)-2-Methylbutanedioic acid", "(R)-(+)-Methylsuccinic acid", "d-Methylsuccinic acid", "(R)-Methylsuccinic acid", "(R)-(+)-2-Methylbutanedioic acid", "(+)-Methylsuccinic acid", "(+)-\u03b1-Methylsuccinic acid", "(R)-(+)-Methylsuccinic acid", "(R)-2-Methylsuccinic acid", "(+)-2-Methylsuccinic acid", "(+)-(2R)-Methylbutanedioic acid", "(2R)-2-Methylsuccinic acid", "(R)-(+)-2-Methylsuccinic acid", "(2R)-2-Methylbutanedioic acid"], "SMILES": "C(CC(O)=O)(C(O)=O)C", "physical_data": {"Molecular Weight": "132.11", "Molecular Formula": "C5H8O4", "Melting Point": "114-115 \u00b0C"}}