{"cas_no": "3641-14-3", "cn_name": "5-\u6c28\u57fa-1H-1,2,4-\u4e09\u6c2e\u5511-3-\u7fa7\u9178\u7532\u916f", "en_name": ["Methyl 5-amino-1H-1,2,4-triazole-3-carboxylate", "1H-1,2,4-Triazole-3-carboxylic acid, 5-amino-, methyl ester", "s-Triazole-3-carboxylic acid, 5-amino-, methyl ester", "3-Amino-5-(methoxycarbonyl)-1,2,4-triazole", "Methyl 5-amino-1H-1,2,4-triazole-3-carboxylate", "NSC 139097", "5-Amino-1H-[1,2,4]triazole-3-carboxylic acid methyl ester", "3-Amino-1,2,4-triazole-5-carboxylic acid methyl ester"], "SMILES": "C(OC)(=O)C=1NC(N)=NN1", "physical_data": {"Molecular Weight": "142.12", "Molecular Formula": "C4H6N4O2", "Melting Point": "220 \u00b0C (decomp)"}}