{"cas_no": "36411-52-6", "cn_name": "3-\u6c34\u6768\u9170\u80fa\u57fa-1,2,4-\u4e09\u6c2e\u5511", "en_name": ["Salicyloylaminotriazole", "Benzamide, 2-hydroxy-N-1H-1,2,4-triazol-5-yl-", "Benzamide, 2-hydroxy-N-1H-1,2,4-triazol-3-yl-", "2-Hydroxy-N-1H-1,2,4-triazol-5-ylbenzamide", "3-Salicylamido-1H-1,2,4-triazole", "Mark 1475", "Salicyloylaminotriazole", "3-(N-Salicyloyl)amino-1,2,4-triazole", "Mark CDA 1", "3-(Salicyloylamino)-1,2,4-triazole", "CDA 1", "ADK Stab CDA 1", "Mark CDA 1M", "Adeka CDA 1c", "NSC 332171", "ADK Stab CDA 1M", "CDA 1M", "N-(1,2,4-Triazol-3-yl)salicylamide", "Adeka CDA-1", "2-Hydroxy-N-1H-1,2,4-triazol-3-yl-benzamide", "2-Hydroxy-N-(4H-[1,2,4]triazol-3-yl)-benzamide", "2-Hydroxy-N-(4H-1,2,4-triazol-3-yl)benzamide"], "SMILES": "C(NC=1NC=NN1)(=O)C2=C(O)C=CC=C2", "physical_data": {"Molecular Weight": "204.19", "Molecular Formula": "C9H8N4O2", "Melting Point": "225 \u00b0C"}}