{"cas_no": "36417-86-4", "cn_name": "N-\u53cd\u5f0f-\u5bf9\u9999\u8c46\u9170\u916a\u80fa", "en_name": ["Paprazine", "2-Propenamide, 3-(4-hydroxyphenyl)-N-[2-(4-hydroxyphenyl)ethyl]-, (2E)-", "2-Propenamide, 3-(4-hydroxyphenyl)-N-[2-(4-hydroxyphenyl)ethyl]-, (E)-", "(2E)-3-(4-Hydroxyphenyl)-N-[2-(4-hydroxyphenyl)ethyl]-2-propenamide", "N-(p-Hydroxy-\u03b2-phenylethyl)-p-hydroxy-trans-cinnamamide", "trans-N-(p-Coumaroyl)tyramine", "Paprazine", "N-(p-trans-Coumaroyl)tyramine", "(E)-3-(4-Hydroxyphenyl)-N-[2-(4-hydroxyphenyl)ethyl]prop-2-enamide", "trans-4-Coumaroyltyramine", "4-Coumaroyltyramine", "N-trans-Coumaroyltyramine", "N-E-Coumaroyltyramine", "N-trans-p-Coumaroyltyramine", "E-N-Coumaroyltyramine", "(E)-3-(4-Hydroxyphenyl)-N-phenylethyl acrylamide"], "SMILES": "C(CNC(C=CC1=CC=C(O)C=C1)=O)C2=CC=C(O)C=C2", "physical_data": {"Molecular Weight": "283.32", "Molecular Formula": "C17H17NO3", "Melting Point": "234-236 \u00b0C"}}