{"cas_no": "3641-13-2", "cn_name": "5-\u6c28\u57fa-1H-1,2,4-\u4e09\u6c2e\u5511-3-\u7fa7\u9178", "en_name": ["3-Amino-1,2,4-triazole-5-carboxylic acid", "1H-1,2,4-Triazole-3-carboxylic acid, 5-amino-", "s-Triazole-3-carboxylic acid, 5-amino-", "5-Amino-1H-1,2,4-triazole-3-carboxylic acid", "3-Amino-1,2,4-triazole-5-carboxylic acid", "3-Amino-5-carboxy-1,2,4-triazole", "5-Carboxy-2-amino-1,3,4-triazole", "2-Amino-5-carboxy-1,3,4-triazole", "NSC 164710", "NSC 513580", "3-Amino-1H-1,2,4-trizole-5-carboxylic acid", "5-Amino-2H-1,2,4-triazole-3-carboxylic acid", "5-Amino-[1,3,4]triazole-2-carboxylic acid", "3-Amino-1H-1,2,4-triazole-5-carboxylic acid", "5-Carboxy-3-amino-1,2,4-triazole", "5-Amino-1,2,4-triazole-3-carboxylic acid", "5-Amino-3-carboxyl-1,2,4-triazole"], "SMILES": "C(O)(=O)C=1NC(N)=NN1", "physical_data": {"Molecular Weight": "128.09", "Molecular Formula": "C3H4N4O2", "Melting Point": "178 \u00b0C"}}