{"cas_no": "3641-10-9", "cn_name": "3-\u6c30\u57fa-1,2,4-\u4e09\u6c2e\u5511", "en_name": ["1H-1,2,4-Triazole-5-carbonitrile", "1H-1,2,4-Triazole-5-carbonitrile", "s-Triazole-3-carbonitrile", "1H-1,2,4-Triazole-3-carbonitrile", "3-Cyano-1,2,4-triazole", "1,2,4-Triazole-3-carbonitrile", "5-Carbonitrile-1H-1,2,4-Triazole"], "SMILES": "C(#N)C=1NC=NN1", "physical_data": {"Molecular Weight": "94.07", "Molecular Formula": "C3H2N4", "Melting Point": "187 \u00b0C"}}