{"cas_no": "36421-15-5", "cn_name": "N-(3-\u6c2f\u4e19\u57fa)\u4e8c\u4e01\u57fa\u80fa", "en_name": ["N-Butyl-N-(3-chloropropyl)-1-butanamine", "1-Butanamine, N-butyl-N-(3-chloropropyl)-", "N-Butyl-N-(3-chloropropyl)-1-butanamine", "3-(Dibutylamino)propyl chloride", "1-Chloro-3-dibutylaminopropane", "3-Dibutylamino-1-chloropropane", "(3-Chloropropyl)dibutylamine", "N-(3-Chloropropyl)dibutylamine", "3-Chloro-N,N-dibutyl-1-propanamine", "3-(N,N-Dibutylamino)-1-chloropropane", "1-Dibutylamino-3-chloropropane", "NSC 51133", "N,N-Dibutyl-3-chloro-1-propanamine"], "SMILES": "N(CCCC)(CCCC)CCCCl", "physical_data": {"Molecular Weight": "205.77", "Molecular Formula": "C11H24ClN", "Boiling Point": "118-130 \u00b0C @ Press: 25 Torr"}}