{"cas_no": "36436-65-4", "cn_name": "2'-\u7f9f\u57fa-4\u2018,5'-\u4e8c\u7532\u57fa\u82ef\u4e59\u916e", "en_name": ["2\u2032-Hydroxy-4\u2032,5\u2032-dimethylacetophenone", "Ethanone, 1-(2-hydroxy-4,5-dimethylphenyl)-", "Acetophenone, 2\u2032-hydroxy-4\u2032,5\u2032-dimethyl-", "1-(2-Hydroxy-4,5-dimethylphenyl)ethanone", "2\u2032-Hydroxy-4\u2032,5\u2032-dimethylacetophenone", "4\u2032,5\u2032-Dimethyl-2\u2032-hydroxyacetophenone", "2-Acetyl-4,5-dimethylphenol", "4,5-Dimethyl-2-hydroxyacetophenone", "1-(4,5-Dimethyl-2-hydroxyphenyl)ethanone", "1-(2-Hydroxy-4,5-dimethylphenyl)ethan-1-one"], "SMILES": "C(C)(=O)C1=C(O)C=C(C)C(C)=C1", "physical_data": {"Molecular Weight": "164.20", "Molecular Formula": "C10H12O2", "Melting Point": "71 \u00b0C"}}