{"cas_no": "36437-37-3", "cn_name": "2-(2'-\u7f9f\u57fa-3'-\u5f02\u4e01\u57fa-5'-\u53d4\u4e01\u57fa\u82ef\u57fa)\u82ef\u5e76\u4e09\u5511", "en_name": ["2-(3-sec-Butyl-5-tert-butyl-2-hydroxyphenyl)benzotriazole", "Phenol, 2-(2H-benzotriazol-2-yl)-4-(1,1-dimethylethyl)-6-(1-methylpropyl)-", "2-(2H-Benzotriazol-2-yl)-4-(1,1-dimethylethyl)-6-(1-methylpropyl)phenol", "2-(3-sec-Butyl-5-tert-butyl-2-hydroxyphenyl)benzotriazole", "4-tert-Butyl-6-sec-butyl-2-(2H-benzotriazol-2-yl)phenol", "2-(3\u2032-sec-Butyl-5\u2032-tert-butyl-2\u2032-hydroxyphenyl)benzotriazole", "2-(2-Hydroxy-3-sec-butyl-5-tert-butylphenyl) benzotriazole", "Eversorb 79", "2-(2-Hydroxy-3-sec-butyl-5-tert-butylphenyl)-2H-benzotriazole", "2-(2H-Benzotriazol-2-yl)-4-(tert-butyl)-6-(sec-butyl)phenol", "Chisorb 350", "2-(Benzotriazol-2-yl)-6-butan-2-yl-4-tert-butylphenol", "UV 350", "Chisorb 325"], "SMILES": "OC1=C(N2N=C3C(=N2)C=CC=C3)C=C(C(C)(C)C)C=C1C(CC)C", "physical_data": {"Molecular Weight": "323.43", "Molecular Formula": "C20H25N3O", "Melting Point": "81-83 \u00b0C"}}