{"cas_no": "36438-97-8", "cn_name": "1-\u7532\u57fa-1,2,3,4-\u56db\u6c22\u55b9\u5594\u5549\u4e8c\u76d0\u9178\u76d0", "en_name": ["1-Methyl-1,2,3,4-tetrahydroquinoxaline", "Quinoxaline, 1,2,3,4-tetrahydro-1-methyl-", "1,2,3,4-Tetrahydro-1-methylquinoxaline", "1-Methyl-1,2,3,4-tetrahydroquinoxaline", "N-Methylbenzopiperazine"], "SMILES": "CN1C=2C(NCC1)=CC=CC2", "physical_data": {"Molecular Weight": "148.21", "Molecular Formula": "C9H12N2", "Boiling Point": "163-169 \u00b0C @ Press: 21 Torr", "Melting Point": "40.5-42 \u00b0C"}}