{"cas_no": "3643-76-3", "cn_name": "\u918b\u9178\u9511", "en_name": ["Antimony acetate", "Acetic acid, antimony(3+) salt (3:1)", "Acetic acid, trianhydride with antimonic acid (H3SbO3)", "Acetic acid, antimony(3+) salt", "Acetic acid, trianhydride with antimonic(III) acid", "Antimonic acid (H3SbO3), trianhydride with acetic acid", "Triacetoxystibine", "Antimony triacetate", "Antimony(III) acetate", "Antimony(3+) acetate", "Antimony acetate, Sb(OAc)3", "Tris(acetato)antimony", "Antimony acetate", "S 21"], "SMILES": "C(C)(O)=O.[Sb]", "physical_data": {"Molecular Weight": "", "Molecular Formula": "C2H4O2.<sup>1</sup>/3Sb", "Melting Point": "134-136 \u00b0C"}}