{"cas_no": "36437-30-6", "cn_name": "1,1'-\u4e8c\u6b63\u8f9b\u57fa-4,4'-\u8054\u5421\u5576\u55e1\u4e8c\u6eb4\u5316\u7269", "en_name": ["1,1\u2032-Dioctyl-4,4\u2032-bipyridinium dibromide", "4,4\u2032-Bipyridinium, 1,1\u2032-dioctyl-, bromide (1:2)", "4,4\u2032-Bipyridinium, 1,1\u2032-dioctyl-, dibromide", "Octylviologen bromide", "1,1\u2032-Dioctyl-4,4\u2032-bipyridinium dibromide", "1,1\u2032-Dioctyl-4,4\u2032-bipyridinium(2+) dibromide", "1,1\u2032-Di-n-octyl-4,4\u2032-bipyridinium dibromide"], "SMILES": "C(CCCCCCC)[N+]=1C=CC(=CC1)C=2C=C[N+](CCCCCCCC)=CC2.[Br-]", "physical_data": {"Molecular Weight": "", "Molecular Formula": "C26H42N2.2Br", "Melting Point": "300-301 \u00b0C (decomp)"}}