{"cas_no": "3644-61-9", "cn_name": "\u76d0\u9178\u6258\u54cc\u916e", "en_name": ["Tolperisone hydrochloride", "1-Propanone, 2-methyl-1-(4-methylphenyl)-3-(1-piperidinyl)-, hydrochloride (1:1)", "Propiophenone, 2,4\u2032-dimethyl-3-piperidino-, hydrochloride", "1-Propanone, 2-methyl-1-(4-methylphenyl)-3-(1-piperidinyl)-, hydrochloride", "Mydocalm", "1-Piperidino-2-methyl-3-(4-methylphenyl)propan-3-one hydrochloride", "Tolperisone hydrochloride", "Muscalm", "Midocalm", "Tolisartine", "N 553", "Isocalm", "Besnoline", "Kineorl", "Naismeritin", "Minacalm", "Atmosgen", "Metosomin", "Menopatol", "Abbsa", "Arantoick", "2,4\u2032-Dimethyl-3-piperidinopropiophenone hydrochloride", "Tolpidol", "Tolfree", "Biocalm"], "SMILES": "C(C(CN1CCCCC1)C)(=O)C2=CC=C(C)C=C2.Cl", "physical_data": {"Molecular Weight": "", "Molecular Formula": "C16H23NO.ClH", "Melting Point": "176-177 \u00b0C"}}