{"cas_no": "3644-18-6", "cn_name": "1-(2-\u4e8c\u7532\u57fa\u6c28\u57fa\u4e59\u57fa)\u54cc\u55ea", "en_name": ["1-[2-(Dimethylamino)ethyl]piperazine", "1-Piperazineethanamine, N,N-dimethyl-", "Piperazine, 1-[2-(dimethylamino)ethyl]-", "N,N-Dimethyl-1-piperazineethanamine", "1-[2-(Dimethylamino)ethyl]piperazine", "N-[2-(N,N-Dimethylamino)ethyl]piperazine", "4-[2-(Dimethylamino)ethyl]piperazine", "N,N-Dimethyl-2-piperazin-1-ylethanamine", "Dimethyl[2-(piperazin-1-yl)ethyl]amine", "N,N-Dimethyl-N-[2-(piperazin-1-yl)ethyl]amine", "N-(2-Dimethylaminoethyl)piperazine", "N,N-Dimethyl-2-(piperazin-1-yl)ethan-1-amine"], "SMILES": "C(CN(C)C)N1CCNCC1", "physical_data": {"Molecular Weight": "157.26", "Molecular Formula": "C8H19N3", "Boiling Point": "94-95 \u00b0C @ Press: 8 Torr", "Density": "0.9165 g/cm\u00b3 @ Temp: 20 \u00b0C"}}