{"cas_no": "3644-12-0", "cn_name": "N-\u7532\u6c27\u57fa\u7532\u57fa-2-\u7532\u57fa-2-\u4e19\u70ef\u9170\u80fa", "en_name": ["N-(Methoxymethyl)-2-methyl-2-propenamide", "2-Propenamide, N-(methoxymethyl)-2-methyl-", "Acrylamide, N-(methoxymethyl)-2-methyl-", "N-(Methoxymethyl)-2-methyl-2-propenamide", "N-Methylolmethacrylamide methyl ether", "Methoxymethylmethacrylamide", "N-(Methoxymethyl)methacrylamide", "N-Methoxymethylmethacrylamide", "N-Methoxymethymethacrylamide"], "SMILES": "C(C(C)=C)(NCOC)=O", "physical_data": {"Molecular Weight": "129.16", "Molecular Formula": "C6H11NO2", "Boiling Point": "86 \u00b0C @ Press: 0.8 Torr"}}