{"cas_no": "3645-00-9", "cn_name": "\u5bf9\u82ef\u4e8c\u7532\u9178\u4e8c\u4e59\u4e8c\u9187\u916f", "en_name": ["1,4-Benzenedicarboxylic acid, 1-(2-hydroxyethyl) 4-methyl ester", "1,4-Benzenedicarboxylic acid, 1-(2-hydroxyethyl) 4-methyl ester", "Terephthalic acid, 2-hydroxyethyl methyl ester", "1,4-Benzenedicarboxylic acid, 2-hydroxyethyl methyl ester", "Ethylene glycol, mono(methyl terephthalate)", "2-Hydroxyethyl methyl terephthalate", "\u03b2-Hydroxyethyl methyl terephthalate", "Methyl 2-hydroxyethyl terephthalate", "Monoglycol monomethyl terephthalate", "Dimethyl terephthalate-ethylene glycol monoester", "1-(2-Hydroxyethyl) 4-methyl benzene-1,4-dicarboxylate"], "SMILES": "C(OCCO)(=O)C1=CC=C(C(OC)=O)C=C1", "physical_data": {"Molecular Weight": "224.21", "Molecular Formula": "C11H12O5", "Melting Point": "81 \u00b0C"}}