{"cas_no": "36455-72-8", "cn_name": "ALPHA-\u7389\u7c73\u8d64\u9709\u70ef\u9187", "en_name": ["(-)-\u03b1-Zearalenol", "1H-2-Benzoxacyclotetradecin-1-one, 3,4,5,6,7,8,9,10-octahydro-7,14,16-trihydroxy-3-methyl-, (3S,7R,11E)-", "1H-2-Benzoxacyclotetradecin-1-one, 3,4,5,6,7,8,9,10-octahydro-7,14,16-trihydroxy-3-methyl-, [3S-(3R*,7S*,11E)]-", "(3S,7R,11E)-3,4,5,6,7,8,9,10-Octahydro-7,14,16-trihydroxy-3-methyl-1H-2-benzoxacyclotetradecin-1-one", "trans-Zearalenol", "\u03b1-Zearalenol", "Zearalenol", "(-)-\u03b1-Zearalenol"], "SMILES": "OC1=C2C(=CC(O)=C1)C=CCCCC(O)CCCC(C)OC2=O", "physical_data": {"Molecular Weight": "320.38", "Molecular Formula": "C18H24O5", "Melting Point": "169-170 \u00b0C"}}