{"cas_no": "36450-02-9", "cn_name": "6-\u7f9f\u57fa\u8c46\u753e-4-\u70ef-3-\u916e", "en_name": ["6\u03b2-Hydroxystigmast-4-en-3-one", "Stigmast-4-en-3-one, 6-hydroxy-, (6\u03b2)-", "(6\u03b2)-6-Hydroxystigmast-4-en-3-one", "Stigmast-4-en-6\u03b2-ol-3-one", "6\u03b2-Hydroxy-4-stigmasten-3-one", "(24R)-6\u03b2-Hydroxy-24-ethylcholest-4-en-3-one", "6\u03b2-Hydroxystigmast-4-en-3-one", "(24R)-6\u03b2-Hydroxystigmast-4-en-3-one", "6\u03b2-Hydroxysitostenone", "Stigmasta-4-en-6\u03b2-ol-3-one"], "SMILES": "CC12C3C(C4C(C)(CC3)C(C(CCC(C(C)C)CC)C)CC4)CC(O)C1=CC(=O)CC2", "physical_data": {"Molecular Weight": "428.69", "Molecular Formula": "C29H48O2", "Melting Point": "192-194 \u00b0C"}}