{"cas_no": "36457-58-6", "cn_name": "N-\u82ef\u57fa\u4e09\u6c1f\u7532\u78fa\u9178\u7532\u80fa", "en_name": ["1,1,1-Trifluoro-N-(phenylmethyl)methanesulfonamide", "Methanesulfonamide, 1,1,1-trifluoro-N-(phenylmethyl)-", "1,1,1-Trifluoro-N-(phenylmethyl)methanesulfonamide", "N-Benzyl-1,1,1-trifluoromethanesulfonamide", "N-Benzyltrifluoromethanesulfonamide", "N-Benzyltriflamide"], "SMILES": "S(NCC1=CC=CC=C1)(C(F)(F)F)(=O)=O", "physical_data": {"Molecular Weight": "239.21", "Molecular Formula": "C8H8F3NO2S", "Melting Point": "43-44 \u00b0C"}}