{"cas_no": "3646-68-2", "cn_name": "D-\u6c28\u57fa\u8461\u8404\u7cd6\u9178", "en_name": ["D-Glucosaminic acid", "D-Gluconic acid, 2-amino-2-deoxy-", "Gluconic acid, 2-amino-2-deoxy-, D-", "2-Amino-2-deoxy-D-gluconic acid", "Glucosaminic acid", "D-Glucosaminic acid", "D-Glucosamic acid", "NSC 37779", "NSC 404265"], "SMILES": "C(C(C(CO)O)O)(C(C(O)=O)N)O", "physical_data": {"Molecular Weight": "195.17", "Molecular Formula": "C6H13NO6", "Melting Point": "210-240 \u00b0C (decomp)", "Density": "1.618 g/cm\u00b3 @ Temp: -5 \u00b0C"}}