{"cas_no": "364622-33-3", "cn_name": "\u8d64\u829d\u9178LM1", "en_name": ["Lucidenic acid N", "Chol-8-en-24-oic acid, 3,7-dihydroxy-4,4,14-trimethyl-11,15-dioxo-, (3\u03b2,5\u03b1,7\u03b2)-", "(3\u03b2,5\u03b1,7\u03b2)-3,7-Dihydroxy-4,4,14-trimethyl-11,15-dioxochol-8-en-24-oic acid", "Lucidenic acid N", "Lucidenic acid LM1", "Lucidenic acid SP1", "Lucideric acid SP1", "Lucidenic acid LM1"], "SMILES": "CC12C3=C(C4(C)C(CC3O)C(C)(C)C(O)CC4)C(=O)CC1(C)C(C(CCC(O)=O)C)CC2=O", "physical_data": {"Molecular Weight": "460.60", "Molecular Formula": "C27H40O6", "Melting Point": "202-204 \u00b0C"}}