{"cas_no": "364782-34-3", "cn_name": "\u76d0\u9178\u7532\u72b6\u65c1\u817a\u6fc0\u7d20", "en_name": ["Cinacalcet hydrochloride", "1-Naphthalenemethanamine, \u03b1-methyl-N-[3-[3-(trifluoromethyl)phenyl]propyl]-, hydrochloride (1:1), (\u03b1R)-", "1-Naphthalenemethanamine, \u03b1-methyl-N-[3-[3-(trifluoromethyl)phenyl]propyl]-, hydrochloride, (\u03b1R)-", "AMG 073 HCl", "Cinacalcet hydrochloride", "KRN 1493", "Sensipar", "Mimpara", "Regpara", "N-[(1R)-1-(1-Naphthyl)ethyl]-3-[3-(trifluoromethyl)phenyl]propan-1-amine hydrochloride", "[(1R)-1-(Naphthalen-1-yl)ethyl]([3-[3-(trifluoromethyl)phenyl]propyl])amine hydrochloride"], "SMILES": "C(NCCCC1=CC(C(F)(F)F)=CC=C1)(C)C=2C3=C(C=CC2)C=CC=C3.Cl", "physical_data": {"Molecular Weight": "", "Molecular Formula": "C22H22F3N.ClH", "Melting Point": "180-184 \u00b0C"}}