{"cas_no": "36476-29-6", "cn_name": "4-\u7532\u57fa\u4f1e\u5f62\u916f-N-\u4e59\u9170-\u0392-D-\u6c28\u57fa\u534a\u4e73\u7cd6\u82f7", "en_name": ["4-Methylumbelliferyl N-acetyl-\u03b2-D-galactosaminide", "2H-1-Benzopyran-2-one, 7-[[2-(acetylamino)-2-deoxy-\u03b2-D-galactopyranosyl]oxy]-4-methyl-", "7-[[2-(Acetylamino)-2-deoxy-\u03b2-D-galactopyranosyl]oxy]-4-methyl-2H-1-benzopyran-2-one", "4-Methylumbelliferyl N-acetyl-\u03b2-galactosaminide", "4-Methylumbelliferyl N-acetyl-\u03b2-D-galactosaminide", "4-Methylumbelliferyl \u03b2-D-N-acetylgalactosaminide", "4-Methylumbelliferyl \u03b2-D-acetylgalactosaminide"], "SMILES": "O(C1C(NC(C)=O)C(O)C(O)C(CO)O1)C=2C=C3C(=CC2)C(C)=CC(=O)O3", "physical_data": {"Molecular Weight": "379.36", "Molecular Formula": "C18H21NO8", "Melting Point": "226-226.5 \u00b0C"}}