{"cas_no": "3647-69-6", "cn_name": "N-(2-\u6c2f\u4e59\u57fa)\u5417\u5549\u76d0\u9178\u76d0", "en_name": ["4-(2-Chloroethyl)morpholine hydrochloride", "Morpholine, 4-(2-chloroethyl)-, hydrochloride (1:1)", "Morpholine, 4-(2-chloroethyl)-, hydrochloride", "N-(\u03b2-Chloroethyl)morpholine hydrochloride", "2-Morpholinoethyl chloride hydrochloride", "N-(2-Chloroethyl)morpholine hydrochloride", "2-(4-Morpholinyl)ethyl chloride hydrochloride", "4-(2-Chloroethyl)morpholine hydrochloride", "\u03b2-Morpholinoethyl chloride hydrochloride", "1-Chloro-2-morpholinoethane hydrochloride", "Morpholinoethyl chloride hydrochloride", "4-(2-Chloroethyl)morpholinium chloride", "4-(2-Chloroethyl)morpholine monohydrochloride", "1-(Morpholin-4-yl)-2-chloroethane hydrochloride", "1-Chloro-2-(morpholin-4-yl)ethane monohydrochloride"], "SMILES": "C(CCl)N1CCOCC1.Cl", "physical_data": {"Molecular Weight": "", "Molecular Formula": "C6H12ClNO.ClH", "Melting Point": "182-182.5 \u00b0C"}}