{"cas_no": "3647-71-0", "cn_name": "N-\u82c4\u57fa-2-\u82ef\u4e59\u80fa", "en_name": ["Benzylphenethylamine", "Benzeneethanamine, N-(phenylmethyl)-", "Phenethylamine, N-benzyl-", "N-(Phenylmethyl)benzeneethanamine", "N-Benzylphenethylamine", "N-Benzyl-2-phenylethylamine", "N-Phenethylbenzylamine", "N-Benzylbenzeneethanamine", "N-Benzyl-2-phenethylamine", "N-Benzyl-N-(2-phenylethyl)amine", "NSC 62943", "Benzylphenethylamine", "Benethamine", "N-Benzyl-2-phenylethan-1-amine"], "SMILES": "C(CNCC1=CC=CC=C1)C2=CC=CC=C2", "physical_data": {"Molecular Weight": "211.30", "Molecular Formula": "C15H17N", "Boiling Point": "186-187 \u00b0C @ Press: 15 Torr", "Melting Point": "61-64 \u00b0C", "Density": "1.0456 g/cm\u00b3 @ Temp: 20 \u00b0C"}}