{"cas_no": "3647-74-3", "cn_name": "5-\u964d\u51b0\u7247\u70ef-2,3-\u4e8c\u7532\u9170\u4e9a\u80fa", "en_name": ["3a,4,7,7a-Tetrahydro-4,7-methano-1H-isoindole-1,3(2H)-dione", "4,7-Methano-1H-isoindole-1,3(2H)-dione, 3a,4,7,7a-tetrahydro-", "5-Norbornene-2,3-dicarboximide", "3a,4,7,7a-Tetrahydro-4,7-methano-1H-isoindole-1,3(2H)-dione", "3,6-Endomethylenetetrahydrophthalimide", "3,6-Endomethylenephthalimide, 1,2,3,6-tetrahydro-", "3,6-Endomethylene-4-cyclohexene-1,2-dicarboximide", "Bicyclo[2.2.1]hept-5-ene-2,3-dicarboximide", "cis-3,6-Endomethylene-\u03944-tetrahydrophthalimide", "NSC 147237", "3a,4,7,7a-Tetrahydro-1H-4,7-methanoisoindole-1,3(2H)-dione"], "SMILES": "O=C1C2C(C3CC2C=C3)C(=O)N1", "physical_data": {"Molecular Weight": "163.17", "Molecular Formula": "C9H9NO2", "Melting Point": "187 \u00b0C"}}