{"cas_no": "3648-21-3", "cn_name": "\u90bb\u82ef\u4e8c\u7532\u9178\u53cc\u5e9a\u916f", "en_name": ["Diheptyl phthalate", "1,2-Benzenedicarboxylic acid, 1,2-diheptyl ester", "Phthalic acid, diheptyl ester", "1,2-Benzenedicarboxylic acid, diheptyl ester", "Diheptyl phthalate", "Heptyl phthalate", "Di-n-heptyl phthalate", "Sansocizer DHP", "Bis-heptyl phthalate"], "SMILES": "C(OCCCCCCC)(=O)C1=C(C(OCCCCCCC)=O)C=CC=C1", "physical_data": {"Molecular Weight": "362.50", "Molecular Formula": "C22H34O4", "Boiling Point": "360 \u00b0C @ Press: 760 Torr", "Melting Point": "&lt;40 \u00b0C", "Density": "0.99 g/cm\u00b3"}}