{"cas_no": "3648-18-8", "cn_name": "\u4e8c\u6708\u6842\u9178\u4e8c\u6b63\u8f9b\u57fa\u9521", "en_name": ["Dioctyltin dilaurate", "Stannane, dioctylbis[(1-oxododecyl)oxy]-", "Stannane, bis(lauroyloxy)dioctyl-", "Dioctyltin dilaurate", "Tin, bis(lauroyloxy)dioctyl-", "Lauric acid, dioctylstannylene deriv.", "Dioctylbis[(1-oxododecyl)oxy]stannane", "Dioctyldi(lauroyloxy)tin", "Dioctyltin didodecanoate", "Di-n-octyltin dilaurate", "Dioctytin dilaurate", "OT 1", "OT 1 (stabilizer)", "KS 1200A1", "Stann SNT", "U 810", "Neostann U 810", "Tegokat 216", "ADK Stab OT 1", "Dioctyltindilaureate", "DOTL", "OL 1", "Tin dioctyldilaurate", "TIB KAT 216", "LZ 082", "Di-n-ocytyltin dilaurate", "Acima DOTL 99", "Bis(lauroyloxy)dioctyltin", "DOTDL", "Nissetsu CK 920"], "SMILES": "[Sn](OC(CCCCCCCCCCC)=O)(OC(CCCCCCCCCCC)=O)(CCCCCCCC)CCCCCCCC", "physical_data": {"Molecular Weight": "743.77", "Molecular Formula": "C40H80O4Sn", "Melting Point": "17-18 \u00b0C", "Density": "0.998 g/cm\u00b3"}}