{"cas_no": "3648-20-2", "cn_name": "1,2-\u82ef\u4e8c\u7fa7\u9178\u53cc\u5341\u4e00\u70f7\u57fa\u916f", "en_name": ["Diundecyl phthalate", "1,2-Benzenedicarboxylic acid, 1,2-diundecyl ester", "Phthalic acid, diundecyl ester", "1,2-Benzenedicarboxylic acid, diundecyl ester", "Undecyl alcohol, phthalate", "Undecyl alcohol, phthalate (2:1)", "Diundecyl phthalate", "DUP", "Di-n-undecyl phthalate", "Bisoflex DUP", "Jayflex L 11P", "Sansocizer DUP", "Palatinol 11", "Diplast L 11", "Bis-diundecyl phthalate"], "SMILES": "C(OCCCCCCCCCCC)(=O)C1=C(C(OCCCCCCCCCCC)=O)C=CC=C1", "physical_data": {"Molecular Weight": "474.72", "Molecular Formula": "C30H50O4", "Boiling Point": "185 \u00b0C @ Press: 0.15 Torr", "Density": "1 x 10<sup>-6</sup> g/cm\u00b3 @ Temp: 20 \u00b0C"}}