{"cas_no": "365-26-4", "cn_name": "\u7532\u57fa\u8f9b\u5f17\u6797\u76d0\u9178\u76d0", "en_name": ["(\u00b1)-Hydroxyephedrine", "Benzenemethanol, 4-hydroxy-\u03b1-[(1R)-1-(methylamino)ethyl]-, (\u03b1S)-rel-", "Benzyl alcohol, p-hydroxy-\u03b1-[1-(methylamino)ethyl]-", "Benzenemethanol, 4-hydroxy-\u03b1-[1-(methylamino)ethyl]-, (R*,S*)-", "Ephedrine, p-hydroxy-", "rel-(\u03b1S)-4-Hydroxy-\u03b1-[(1R)-1-(methylamino)ethyl]benzenemethanol", "p-Hydroxyephedrine", "Methylsympatol", "Suprifen", "4-Hydroxyephedrine", "Hydroxyephedrine", "1-(4-Hydroxyphenyl)-1-hydroxy-2-methylaminopropane", "Oxyephedrine", "Supriphen", "Oxilofrine", "dl-p-Hydroxyephedrine", "(\u00b1)-Hydroxyephedrine", "(\u00b1)-p-Hydroxyephedrine", "(\u00b1)-p-hydroxyephedrine", "Methylsynephrine"], "SMILES": "C(C(NC)C)(O)C1=CC=C(O)C=C1", "physical_data": {"Molecular Weight": "181.23", "Molecular Formula": "C10H15NO2", "Melting Point": "153 \u00b0C"}}