{"cas_no": "365-24-2", "cn_name": "4,4'-\u4e8c\u6c1f\u4e8c\u82ef\u7532\u9187", "en_name": ["Bis(4-fluorophenyl)methanol", "Benzenemethanol, 4-fluoro-\u03b1-(4-fluorophenyl)-", "Benzhydrol, 4,4\u2032-difluoro-", "4-Fluoro-\u03b1-(4-fluorophenyl)benzenemethanol", "p,p\u2032-Difluorobenzhydrol", "4,4\u2032-Difluorobenzhydrol", "4-Fluoro-\u03b1-(4-fluorophenyl)benzyl alcohol", "Bis(p-fluorophenyl)methanol", "Bis(4-fluorophenyl)methanol", "Di-p-fluorophenylmethanol", "4,4\u2032-Difluorodiphenylcarbinol", "4,4\u2032-Difluorodiphenylmethanol", "4,4\u2032-Difluorobenzhydryl alcohol", "Di-(4-fluorophenyl)methanol"], "SMILES": "C(O)(C1=CC=C(F)C=C1)C2=CC=C(F)C=C2", "physical_data": {"Molecular Weight": "220.21", "Molecular Formula": "C13H10F2O", "Boiling Point": "150-154 \u00b0C @ Press: 5 Torr", "Melting Point": "47.3-47.5 \u00b0C"}}