{"cas_no": "365-22-0", "cn_name": "4-\u6c1f\u4e8c\u82ef\u7532\u9187", "en_name": ["4-Fluoro-\u03b1-phenylbenzenemethanol", "Benzenemethanol, 4-fluoro-\u03b1-phenyl-", "Benzhydrol, 4-fluoro-", "4-Fluoro-\u03b1-phenylbenzenemethanol", "4-Fluorobenzhydrol", "(4-Fluorophenyl)phenylmethanol", "(p-Fluorophenyl)phenylcarbinol", "(\u00b1)-(4-Fluorophenyl)phenylmethanol", "(\u00b1)-1-(p-Fluorophenyl)-1-phenylmethanol"], "SMILES": "C(O)(C1=CC=C(F)C=C1)C2=CC=CC=C2", "physical_data": {"Molecular Weight": "202.22", "Molecular Formula": "C13H11FO", "Boiling Point": "167-168 \u00b0C @ Press: 10-11 Torr", "Melting Point": "48 \u00b0C"}}