{"cas_no": "365-34-4", "cn_name": "\u90bb\u4e09\u6c1f\u7532\u57fa\u82ef\u80bc", "en_name": ["[2-(Trifluoromethyl)phenyl]hydrazine", "Hydrazine, [2-(trifluoromethyl)phenyl]-", "Hydrazine, (\u03b1,\u03b1,\u03b1-trifluoro-o-tolyl)-", "[2-(Trifluoromethyl)phenyl]hydrazine", "o-(Trifluoromethyl)phenylhydrazine", "2-Trifluoromethylphenylhydrazine", "1-[2-(Trifluoromethyl)phenyl]hydrazine"], "SMILES": "N(N)C1=C(C(F)(F)F)C=CC=C1", "physical_data": {"Molecular Weight": "176.14", "Molecular Formula": "C7H7F3N2", "Melting Point": "61-62 \u00b0C"}}