{"cas_no": "36507-30-9", "cn_name": "\u5361\u9a6c\u897f\u5e73 10,11-\u73af\u6c27\u5316\u7269", "en_name": ["Carbamazepine 10,11-epoxide", "6H-Dibenz[b,f]oxireno[d]azepine-6-carboxamide, 1a,10b-dihydro-", "1a,10b-Dihydro-6H-dibenz[b,f]oxireno[d]azepine-6-carboxamide", "Carbamazepine 10,11-epoxide", "10,11-Dihydro-5H-dibenz[b,f]azepine-5-carboxamide 10,11-epoxide", "10,11-Epoxycarbamazepine", "Carbamazepine 10,11-oxide", "GP 49-023", "10,11-Dihydro-10,11-epoxycarbamazepine", "1a,10b-Dihydro-6H-dibenzo[b,f]oxireno[d]azepine-6-carboxamide"], "SMILES": "C(N)(=O)N1C=2C(C3C(O3)C=4C1=CC=CC4)=CC=CC2", "physical_data": {"Molecular Weight": "252.27", "Molecular Formula": "C15H12N2O2", "Melting Point": "195-197 \u00b0C (decomp)"}}