{"cas_no": "3650-09-7", "cn_name": "\u9f20\u5c3e\u8349\u9178", "en_name": ["Carnosic acid", "4a(2H)-Phenanthrenecarboxylic acid, 1,3,4,9,10,10a-hexahydro-5,6-dihydroxy-1,1-dimethyl-7-(1-methylethyl)-, (4aR,10aS)-", "Podocarpa-8,11,13-trien-17-oic acid, 11,12-dihydroxy-13-isopropyl-", "4a(2H)-Phenanthrenecarboxylic acid, 1,3,4,9,10,10a-hexahydro-5,6-dihydroxy-1,1-dimethyl-7-(1-methylethyl)-, (4aR-trans)-", "(4aR,10aS)-1,3,4,9,10,10a-Hexahydro-5,6-dihydroxy-1,1-dimethyl-7-(1-methylethyl)-4a(2H)-phenanthrenecarboxylic acid", "Carnosic acid", "Salvin", "RoseOx", "Rosamox", "(+)-Carnosic acid", "(4AR,10aS)-5,6-dihydroxy-1,1-dimethyl-7-propan-2-yl-2,3,4,9,10,10a-hexahydrophenanthrene-4a-carboxylic acid"], "SMILES": "C(O)(=O)C12C=3C(=CC(C(C)C)=C(O)C3O)CCC1C(C)(C)CCC2", "physical_data": {"Molecular Weight": "332.43", "Molecular Formula": "C20H28O4", "Melting Point": "201-202 \u00b0C"}}