{"cas_no": "3650-43-9", "cn_name": "BETA-\u6728\u9999\u9178", "en_name": ["Costic acid", "2-Naphthaleneacetic acid, decahydro-4a-methyl-\u03b1,8-bis(methylene)-, (2R,4aR,8aS)-", "Eudesma-4(14),11(13)-dien-12-oic acid", "2-Naphthaleneacetic acid, decahydro-4a-methyl-\u03b1,8-bis(methylene)-, [2R-(2\u03b1,4a\u03b1,8a\u03b2)]-", "2-Naphthaleneacetic acid, 1,2\u03b2,3,4,4a,5,6,7,8,8a\u03b2-decahydro-4a\u03b1-methyl-\u03b1,8-dimethylene-", "(2R,4aR,8aS)-Decahydro-4a-methyl-\u03b1,8-bis(methylene)-2-naphthaleneacetic acid", "Costic acid", "Costus acid", "\u03b2-Costic acid"], "SMILES": "CC12C(CC(C(C(O)=O)=C)CC1)C(=C)CCC2", "physical_data": {"Molecular Weight": "234.33", "Molecular Formula": "C15H22O2", "Melting Point": "87-88 \u00b0C"}}