{"cas_no": "36505-84-7", "cn_name": "\u4e01\u87ba\u73af\u916e", "en_name": ["Buspirone", "8-Azaspiro[4.5]decane-7,9-dione, 8-[4-[4-(2-pyrimidinyl)-1-piperazinyl]butyl]-", "8-[4-[4-(2-Pyrimidinyl)-1-piperazinyl]butyl]-8-azaspiro[4.5]decane-7,9-dione", "Buspirone", "Buspin", "Spitomin", "MeSH ID: D002065"], "SMILES": "O=C1CC2(CC(=O)N1CCCCN3CCN(CC3)C=4N=CC=CN4)CCCC2", "physical_data": {"Molecular Weight": "385.50", "Molecular Formula": "C21H31N5O2", "Melting Point": "105-107 \u00b0C"}}