{"cas_no": "3651-23-8", "cn_name": "\u4e8c\u70ef\u4e19\u57fa\u4e8c\u6c2f\u7845\u70f7", "en_name": ["Dichlorodi-2-propen-1-ylsilane", "Silane, dichlorodi-2-propen-1-yl-", "Silane, diallyldichloro-", "Silane, dichlorodi-2-propenyl-", "Dichlorodi-2-propen-1-ylsilane", "Diallyldichlorosilane"], "SMILES": "[Si](CC=C)(CC=C)(Cl)Cl", "physical_data": {"Molecular Weight": "181.14", "Molecular Formula": "C6H10Cl2Si", "Boiling Point": "82-84 \u00b0C @ Press: 50 Torr", "Density": "1.0565 g/cm\u00b3 @ Temp: 20 \u00b0C"}}