{"cas_no": "3652-90-2", "cn_name": "2-\u6eb4\u5494\u5511", "en_name": ["2-Bromocarbazole", "9H-Carbazole, 2-bromo-", "Carbazole, 2-bromo-", "2-Bromo-9H-carbazole", "2-Bromocarbazole"], "SMILES": "BrC=1C=C2C(C=3C(N2)=CC=CC3)=CC1", "physical_data": {"Molecular Weight": "246.10", "Molecular Formula": "C12H8BrN", "Melting Point": "250-251 \u00b0C"}}