{"cas_no": "3652-32-2", "cn_name": "\u5421", "en_name": ["4-Methyl-5-(pyridin-4-yl)-4H-[1,2,4]triazole-3-thiol", "3H-1,2,4-Triazole-3-thione, 2,4-dihydro-4-methyl-5-(4-pyridinyl)-", "4H-1,2,4-Triazole-3-thiol, 4-methyl-5-(4-pyridyl)-", "2,4-Dihydro-4-methyl-5-(4-pyridinyl)-3H-1,2,4-triazole-3-thione", "4-Methyl-3-\u03b3-pyridyl-1,2,4-triazoline-5-thione", "4-Methyl-5-(pyridin-4-yl)-4H-[1,2,4]triazole-3-thiol"], "SMILES": "CN1C(=NNC1=S)C=2C=CN=CC2", "physical_data": {"Molecular Weight": "192.24", "Molecular Formula": "C8H8N4S", "Melting Point": "287 \u00b0C"}}