{"cas_no": "3652-92-4", "cn_name": "1,3-\u4e8c\u7532\u57fa\u82ef\u5e76\u54aa\u5511", "en_name": ["2,3-Dihydro-1,3-dimethyl-2-phenyl-1H-benzimidazole", "1H-Benzimidazole, 2,3-dihydro-1,3-dimethyl-2-phenyl-", "Benzimidazoline, 1,3-dimethyl-2-phenyl-", "2,3-Dihydro-1,3-dimethyl-2-phenyl-1H-benzimidazole", "1,3-Dimethyl-2-phenylbenzimidazoline", "1,3-Dimethyl-2-phenyl-2,3-dihydro-1H-benzo[d]imidazole"], "SMILES": "CN1C(N(C)C=2C1=CC=CC2)C3=CC=CC=C3", "physical_data": {"Molecular Weight": "224.30", "Molecular Formula": "C15H16N2", "Melting Point": "93-94 \u00b0C"}}