{"cas_no": "36536-22-8", "cn_name": "1,1',3,3,3',3'-\u516d\u7532\u57fa\u5432\u54da\u53cc\u78b3\u83c1\u7898", "en_name": ["1,1\u2032,3,3,3\u2032,3\u2032-Hexamethylindodicarbocyanine iodide", "3H-Indolium, 2-[5-(1,3-dihydro-1,3,3-trimethyl-2H-indol-2-ylidene)-1,3-pentadien-1-yl]-1,3,3-trimethyl-, iodide (1:1)", "3H-Indolium, 2-[5-(1,3-dihydro-1,3,3-trimethyl-2H-indol-2-ylidene)-1,3-pentadienyl]-1,3,3-trimethyl-, iodide", "1,3,3-Trimethyl-2-[5-(1,3,3-trimethyl-2-indolinylidene)-1,3-pentadienyl]-3H-indolium iodide", "1,3,3,1\u2032,3\u2032,3\u2032-Hexamethylindoledicarbocyanine iodide", "NK 529", "1,1\u2032,3,3,3\u2032,3\u2032-Hexamethylindoledicarbocyanine iodide", "HIDC", "PK 643", "SNC 6", "Hexacyanine 2", "1,1\u2032,3,3,3\u2032,3\u2032-Hexamethylindodicarbocyanine iodide", "HIDCI", "ESNF 10", "DiIC1(5)", "1,1,3,3,3\u2032,3\u2032-Hexamethylindodicarbocyanine iodide"], "SMILES": "CC1(C)C=2C([N+](C)=C1C=CC=CC=C3N(C)C=4C(C3(C)C)=CC=CC4)=CC=CC2.[I-]", "physical_data": {"Molecular Weight": "", "Molecular Formula": "C27H31N2.I", "Melting Point": "205 \u00b0C"}}