{"cas_no": "3654-49-7", "cn_name": "1,5-\u4e8c\u5bf9\u7f9f\u82ef\u57fa-1,4-\u620a\u4e8c\u70ef-3-\u916e", "en_name": ["1,5-Bis(4-hydroxyphenyl)-1,4-pentadien-3-one", "1,4-Pentadien-3-one, 1,5-bis(4-hydroxyphenyl)-", "1,4-Pentadien-3-one, 1,5-bis(p-hydroxyphenyl)-", "1,5-Bis(4-hydroxyphenyl)-1,4-pentadien-3-one", "1,3-Bis(p-hydroxybenzylidene)acetone", "1,5-Bis(p-hydroxyphenyl)-1,4-pentadien-3-one", "1,5-Bis(4-hydroxyphenyl)penta-1,4-dien-3-one", "1,3-Bis(4-hydroxybenzylidene)acetone"], "SMILES": "C(=CC(C=CC1=CC=C(O)C=C1)=O)C2=CC=C(O)C=C2", "physical_data": {"Molecular Weight": "266.29", "Molecular Formula": "C17H14O3", "Melting Point": "237-238 \u00b0C"}}