{"cas_no": "36545-53-6", "cn_name": "\u5f02\u53f6\u6ce2\u7f57\u871c\u73af\u9ec4\u916e\u7d20", "en_name": ["Cycloheterophyllin", "6H,7H,11H-Bis[1]benzopyrano[4,3-b:6\u2032,7\u2032-e]pyran-7-one, 2,3,8-trihydroxy-11,11-dimethyl-13-(3-methyl-2-buten-1-yl)-6-(2-methyl-1-propen-1-yl)-, (+)-", "6H,7H,11H-Bis[1]benzopyrano[4,3-b:6\u2032,7\u2032-e]pyran-7-one, 2,3,8-trihydroxy-11,11-dimethyl-13-(3-methyl-2-butenyl)-6-(2-methyl-1-propenyl)-, (+)-", "(+)-2,3,8-Trihydroxy-11,11-dimethyl-13-(3-methyl-2-buten-1-yl)-6-(2-methyl-1-propen-1-yl)-6H,7H,11H-bis[1]benzopyrano[4,3-b:6\u2032,7\u2032-e]pyran-7-one", "Cycloheterophyllin"], "SMILES": "C(=C(C)C)C1C2=C(C=3C(O1)=CC(O)=C(O)C3)OC=4C(C2=O)=C(O)C5=C(C4CC=C(C)C)OC(C)(C)C=C5", "physical_data": {"Molecular Weight": "502.55", "Molecular Formula": "C30H30O7", "Melting Point": "220 \u00b0C"}}