{"cas_no": "36554-97-9", "cn_name": "9H,9H-\u4e09\u5341\u6c1f-8,10-\u5341\u4e03\u70f7\u4e8c\u916e", "en_name": ["1,1,1,2,2,3,3,4,4,5,5,6,6,7,7,11,11,12,12,13,13,14,14,15,15,16,16,17,17,17-Triacontafluoro-8,10-heptadecanedione", "8,10-Heptadecanedione, 1,1,1,2,2,3,3,4,4,5,5,6,6,7,7,11,11,12,12,13,13,14,14,15,15,16,16,17,17,17-triacontafluoro-", "1,1,1,2,2,3,3,4,4,5,5,6,6,7,7,11,11,12,12,13,13,14,14,15,15,16,16,17,17,17-Triacontafluoro-8,10-heptadecanedione", "9,9-Dihydroperfluoro-8,10-heptadecanedione"], "SMILES": "C(C(C(C(C(F)(F)F)(F)F)(F)F)(F)F)(C(C(C(CC(C(C(C(C(C(C(C(F)(F)F)(F)F)(F)F)(F)F)(F)F)(F)F)(F)F)=O)=O)(F)F)(F)F)(F)F", "physical_data": {"Molecular Weight": "808.15", "Molecular Formula": "C17H2F30O2", "Melting Point": "50 \u00b0C"}}