{"cas_no": "3655-05-8", "cn_name": "BOC-GLY-ONP", "en_name": ["N-[(1,1-Dimethylethoxy)carbonyl]glycine 4-nitrophenyl ester", "Glycine, N-[(1,1-dimethylethoxy)carbonyl]-, 4-nitrophenyl ester", "Glycine, N-carboxy-, N-tert-butyl p-nitrophenyl ester", "N-[(1,1-Dimethylethoxy)carbonyl]glycine 4-nitrophenyl ester", "N-tert-Butyloxycarbonylglycine p-nitrophenyl ester", "(tert-Butoxycarbonyl)glycine p-nitrophenyl ester", "N-t-Butyloxycarbonylglycine p-nitrophenyl ester", "N-tert-Butoxycarbonylglycine p-nitrophenyl ester", "N-tert-Butoxycarbonylglycine 4-nitrophenyl ester", "BOC-Glycine p-nitrophenyl ester", "4-Nitrophenyl 2-((tert-butoxycarbonyl)amino)acetate", "(4-Nitrophenyl) 2-[(2-methylpropan-2-yl)oxycarbonylamino]acetate"], "SMILES": "O(C(CNC(OC(C)(C)C)=O)=O)C1=CC=C(N(=O)=O)C=C1", "physical_data": {"Molecular Weight": "296.28", "Molecular Formula": "C13H16N2O6", "Melting Point": "71 \u00b0C"}}