{"cas_no": "36556-47-5", "cn_name": "2,3-\u4e8c\u6c1f\u6c2f\u82ef", "en_name": ["1-Chloro-2,3-difluorobenzene", "Benzene, 1-chloro-2,3-difluoro-", "1-Chloro-2,3-difluorobenzene", "2,3-Difluorochlorobenzene", "3-Chloro-1,2-difluorobenzene"], "SMILES": "FC1=C(Cl)C=CC=C1F", "physical_data": {"Molecular Weight": "148.54", "Molecular Formula": "C6H3ClF2", "Boiling Point": "138.5 \u00b0C @ Press: 760 Torr"}}