{"cas_no": "36556-06-6", "cn_name": "\u56db\u6c22\u5f02\u55b9\u5549", "en_name": ["5,6,7,8-Tetrahydroisoquinoline", "Isoquinoline, 5,6,7,8-tetrahydro-", "5,6,7,8-Tetrahydroisoquinoline"], "SMILES": "C1=2C(CCCC1)=CN=CC2", "physical_data": {"Molecular Weight": "133.19", "Molecular Formula": "C9H11N", "Boiling Point": "218 \u00b0C", "Melting Point": "146.5 \u00b0C", "Density": "1.03025 g/cm\u00b3 @ Temp: 29.15 \u00b0C"}}