{"cas_no": "365564-11-0", "cn_name": "1-(\u4e09\u5f02\u4e19\u57fa\u7845\u57fa)\u5421\u54af-3-\u787c\u9178\u9891\u54ea\u9187\u916f", "en_name": ["3-(4,4,5,5-Tetramethyl-1,3,2-dioxaborolan-2-yl)-1-[tris(1-methylethyl)silyl]-1H-pyrrole", "1H-Pyrrole, 3-(4,4,5,5-tetramethyl-1,3,2-dioxaborolan-2-yl)-1-[tris(1-methylethyl)silyl]-", "3-(4,4,5,5-Tetramethyl-1,3,2-dioxaborolan-2-yl)-1-[tris(1-methylethyl)silyl]-1H-pyrrole", "3-(4,4,5,5-Tetramethyl-1,3,2-dioxaborolan-2-yl)-1-(triisopropylsilyl)-1H-pyrrole", "1-Triisopropylsilanyl-1H-pyrrole-3-boronic acid pinacol ester"], "SMILES": "[Si](C(C)C)(C(C)C)(C(C)C)N1C=C(C=C1)B2OC(C)(C)C(C)(C)O2", "physical_data": {"Molecular Weight": "349.39", "Molecular Formula": "C19H36BNO2Si", "Melting Point": "59 \u00b0C"}}