{"cas_no": "36567-72-3", "cn_name": "(s)-3-\u7f9f\u57fa-3-\u82ef\u57fa\u4e19\u9178", "en_name": ["(S)-3-Hydroxy-3-phenylpropionic acid", "Benzenepropanoic acid, \u03b2-hydroxy-, (\u03b2S)-", "Benzenepropanoic acid, \u03b2-hydroxy-, (S)-", "(\u03b2S)-\u03b2-Hydroxybenzenepropanoic acid", "(S)-3-Hydroxybenzenepropanoic acid", "(S)-3-Hydroxy-3-phenylpropanoic acid", "L-3-Hydroxy-3-phenylpropionic acid", "(3S)-3-Hydroxy-3-phenylpropionic acid", "(3S)-3-Hydroxy-3-phenylpropanoic acid", "(S)-3-Hydroxy-3-phenylpropionic acid", "(3S)-3-Phenyl-3-hydroxypropionic acid", "(3S)-3-Hydroxy-3-phenylpropanoic acid"], "SMILES": "C(CC(O)=O)(O)C1=CC=CC=C1", "physical_data": {"Molecular Weight": "166.17", "Molecular Formula": "C9H10O3", "Melting Point": "118-120 \u00b0C"}}