{"cas_no": "3658-80-8", "cn_name": "\u4e8c\u7532\u57fa\u4e09\u786b", "en_name": ["Dimethyl trisulfide", "Trisulfide, dimethyl", "Methyl trisulfide", "Dimethyl trisulfide", "2,3,4-Trithiapentane", "NSC 97324", "(Methyltrisulfanyl)methane"], "SMILES": "S(SC)SC", "physical_data": {"Molecular Weight": "126.26", "Molecular Formula": "C2H6S3", "Boiling Point": "70 \u00b0C @ Press: 14 Torr", "Melting Point": "-68.05 \u00b0C", "Density": "1.1978 g/cm\u00b3 @ Temp: 25 \u00b0C"}}