{"cas_no": "3658-93-3", "cn_name": "1,1-\u4e8c\u4e59\u57fa\u5df1\u70f7", "en_name": ["1,1-Diethoxyhexane", "Hexane, 1,1-diethoxy-", "Hexanal, diethyl acetal", "1,1-Diethoxyhexane", "Hexylaldehyde diacetal"], "SMILES": "C(CCCCC)(OCC)OCC", "physical_data": {"Molecular Weight": "174.28", "Molecular Formula": "C10H22O2", "Boiling Point": "155-158 \u00b0C"}}