{"cas_no": "3658-95-5", "cn_name": "\u4e01\u919b\u4e8c\u4e59\u7f29\u919b", "en_name": ["1,1-Diethoxybutane", "Butane, 1,1-diethoxy-", "Butyraldehyde, diethyl acetal", "1,1-Diethoxybutane", "Butylaldehyde diethyl acetal", "Butyraldehyde ethyl acetal", "Butanal diethyl acetal"], "SMILES": "C(CCC)(OCC)OCC", "physical_data": {"Molecular Weight": "146.23", "Molecular Formula": "C8H18O2", "Boiling Point": "143 \u00b0C", "Density": "0.8285 g/cm\u00b3 @ Temp: 20 \u00b0C"}}