{"cas_no": "3658-48-8", "cn_name": "\u53cc(2-\u4e59\u57fa\u5df1\u57fa)\u78f7\u9178", "en_name": ["Bis(2-ethylhexyl) phosphite", "Phosphonic acid, bis(2-ethylhexyl) ester", "Bis(2-ethylhexyl) hydrogen phosphite", "Bis(2-ethylhexyl) phosphite", "Diisooctyl phosphite", "Di-2-Ethylhexyl phosphite", "Bis(2-ethylhexyl) phosphonate", "Di-2-ethylhexyl hydrogen phosphite", "Chelex H 8", "Bis(2-ethylhexyl) phosphonic acid", "Phosphonic acid di(2-ethylhexyl) ester", "NSC 2664", "JPE 208"], "SMILES": "C(COP(OCC(CCCC)CC)=O)(CCCC)CC", "physical_data": {"Molecular Weight": "306.42", "Molecular Formula": "C16H35O3P", "Boiling Point": "174 \u00b0C @ Press: 7 Torr", "Density": "0.940 g/cm\u00b3 @ Temp: 25 \u00b0C"}}