{"cas_no": "3658-77-3", "cn_name": "\u544b\u5583\u916e", "en_name": ["Furaneol", "3(2H)-Furanone, 4-hydroxy-2,5-dimethyl-", "4-Hydroxy-2,5-dimethyl-3(2H)-furanone", "2,5-Dimethyl-4-hydroxy-3(2H)-furanone", "2,5-Dimethyl-4-hydroxy-2,3-dihydrofuran-3-one", "4-Hydroxy-2,5-dimethyl-2H-furan-3-one", "2,5-Dimethyl-4,5-dihydrofuran-3-ol-4-one", "4-Hydroxy-2,5-dimethyl-2,3-dihydrofuran-3-one", "Furaneol", "2,5-Dimethyl-3-hydroxy-4-oxo-4,5-dihydrofuran", "Alletone", "Pineapple ketone", "4-Hydroxy-2,5-Dimethyl-3-oxo-2,3-dihydrofuran", "4-Hydroxy-2,5-dimethyl-3-furanone", "2,5-Dimethyl-4-hydroxy-3-oxo-(2H)-furan"], "SMILES": "O=C1C(O)=C(C)OC1C", "physical_data": {"Molecular Weight": "128.13", "Molecular Formula": "C6H8O3", "Melting Point": "70 \u00b0C"}}