{"cas_no": "365996-05-0", "cn_name": "2-\u6c28\u57fa-6,7-\u4e8c\u6c22\u567b\u5511\u5e76[5,4-C]\u5627\u5576-5(4H)\u7fa7\u9178\u53d4\u4e01\u916f", "en_name": ["1,1-Dimethylethyl 2-amino-6,7-dihydrothiazolo[5,4-c]pyridine-5(4H)-carboxylate", "Thiazolo[5,4-c]pyridine-5(4H)-carboxylic acid, 2-amino-6,7-dihydro-, 1,1-dimethylethyl ester", "1,1-Dimethylethyl 2-amino-6,7-dihydrothiazolo[5,4-c]pyridine-5(4H)-carboxylate", "2-Amino-6,7-dihydro-4H-thiazolo[5,4-c]pyridine-5-carboxylic acid tert-butyl ester", "2-Amino-4,5,6,7-tetrahydrothiazolo[5,4-c]pyridine-5-carboxylic acid tert-butyl ester", "tert-Butyl 2-amino-6,7-dihydrothiazolo[5,4-c]pyridine-5-(4H)-carboxylate"], "SMILES": "C(OC(C)(C)C)(=O)N1CC2=C(CC1)N=C(N)S2", "physical_data": {"Molecular Weight": "255.34", "Molecular Formula": "C11H17N3O2S", "Melting Point": "91-94 \u00b0C"}}