{"cas_no": "366-77-8", "cn_name": "3-(4-\u6c1f\u82ef\u7532\u9170)\u4e19\u9178", "en_name": ["3-(4-Fluorobenzoyl)propionic acid", "Benzenebutanoic acid, 4-fluoro-\u03b3-oxo-", "Propionic acid, 3-(p-fluorobenzoyl)-", "4-Fluoro-\u03b3-oxobenzenebutanoic acid", "\u03b2-(p-Fluorobenzoyl)propionic acid", "Ba 2833", "3-(p-Fluorobenzoyl)propionic acid", "4-Oxo-4-(p-fluorophenyl)butyric acid", "3-(4-Fluorobenzoyl)propionic acid", "4-Fluorobenzoylpropionic acid", "3-(4-Fluorobenzoyl)propanoic acid", "\u03b2-(4-Fluorobenzoyl)propionic acid", "\u03b3-(4-Fluorophenyl)-\u03b3-oxobutanoic acid", "4-(4-Fluorophenyl)-4-oxobutanoic acid", "4-(4-Fluorophenyl)-4-oxobutyric acid", "NSC 408180"], "SMILES": "C(CCC(O)=O)(=O)C1=CC=C(F)C=C1", "physical_data": {"Molecular Weight": "196.18", "Molecular Formula": "C10H9FO3", "Melting Point": "102.2-102.7 \u00b0C"}}