{"cas_no": "366-49-4", "cn_name": "2-\u4e59\u9170\u6c28\u57fa-4-\u6c1f\u7532\u82ef", "en_name": ["N-(5-Fluoro-2-methylphenyl)acetamide", "Acetamide, N-(5-fluoro-2-methylphenyl)-", "o-Acetotoluidide, 5\u2032-fluoro-", "N-(5-Fluoro-2-methylphenyl)acetamide", "2-Acetamido-4-fluorotoluene", "5\u2032-Fluoro-o-acetotoluidide"], "SMILES": "N(C(C)=O)C1=C(C)C=CC(F)=C1", "physical_data": {"Molecular Weight": "167.18", "Molecular Formula": "C9H10FNO", "Melting Point": "111-115 \u00b0C"}}