{"cas_no": "366-70-1", "cn_name": "\u76d0\u9178\u7532\u57fa\u82c4\u80bc", "en_name": ["Procarbazine hydrochloride", "Benzamide, N-(1-methylethyl)-4-[(2-methylhydrazinyl)methyl]-, hydrochloride (1:1)", "p-Toluamide, N-isopropyl-\u03b1-(2-methylhydrazino)-, monohydrochloride", "Benzamide, N-(1-methylethyl)-4-[(2-methylhydrazino)methyl]-, monohydrochloride", "NSC 77213", "Ibenzmethyzine hydrochloride", "Ibenzmethyzin hydrochloride", "IBZ", "2-[p-(Isopropylcarbamoyl)benzyl]-1-methylhydrazine hydrochloride", "N-Isopropyl-p-(2-methylhydrazinomethyl)benzamide hydrochloride", "N-Isopropyl-\u03b1-(2-methylhydrazino)-p-toluamide hydrochloride", "MBH", "1-Methyl-2-[p-(isopropylcarbamoyl)benzyl]hydrazine hydrochloride", "Natulan", "Natulan hydrochloride", "Procarbazine hydrochloride", "Ro 4-6467", "Matulane", "Natulanar", "MIH hydrochloride", "Ro 4 6467/1", "NCI-C 01810", "Nathulane", "PCB hydrochloride", "Indicarb"], "SMILES": "C(NC(C)C)(=O)C1=CC=C(CNNC)C=C1.Cl", "physical_data": {"Molecular Weight": "", "Molecular Formula": "C12H19N3O.ClH", "Melting Point": "223-226 \u00b0C", "Density": "8.3 g/cm\u00b3"}}