{"cas_no": "366-18-7", "cn_name": "2,2'-\u8054\u5421\u5576", "en_name": ["2,2\u2032-Bipyridine", "2,2\u2032-Bipyridine", "\u03b1,\u03b1\u2032-Bipyridyl", "2,2\u2032-Bipyridyl", "\u03b1,\u03b1\u2032-Dipyridyl", "2,2\u2032-Dipyridyl", "\u03b1,\u03b1\u2032-Bipyridine", "2,2\u2032-Dipyridine", "\u03b1,\u03b1\u2032-Dipyridine", "2-(2-Pyridyl)pyridine", "Dri-Rx 19LC-E", "NSC 1550", "NSC 615009", "DryMax 2", "2-Pyridin-2-ylpyridine", "2-(Pyridin-2-yl)pyridine", "XL-Dri", "MeSH ID: D015082"], "SMILES": "C1(=CC=CC=N1)C2=CC=CC=N2", "physical_data": {"Molecular Weight": "156.18", "Molecular Formula": "C10H8N2", "Boiling Point": "273.5 \u00b0C", "Melting Point": "72 \u00b0C"}}