{"cas_no": "366-29-0", "cn_name": "N,N,N',N'-\u56db\u7532\u57fa\u8054\u82ef\u80fa", "en_name": ["N,N,N\u2032,N\u2032-Tetramethylbenzidine", "[1,1\u2032-Biphenyl]-4,4\u2032-diamine, N4,N4,N4\u2032,N4\u2032-tetramethyl-", "Benzidine, N,N,N\u2032,N\u2032-tetramethyl-", "[1,1\u2032-Biphenyl]-4,4\u2032-diamine, N,N,N\u2032,N\u2032-tetramethyl-", "N,N,N\u2032,N\u2032-Tetramethylbenzidine", "4,4\u2032-Bis(N,N-dimethylamino)biphenyl", "N,N,N\u2032,N\u2032-Tetramethyl-p,p\u2032-benzidine", "4,4\u2032-Bis(dimethylamino)biphenyl", "N,N,N\u2032,N\u2032-Tetramethyl[1,1\u2032-biphenyl]-4,4\u2032-diamine", "TMB", "NSC 433", "4,4\u2032-Bis(dimethylamino)-1,1\u2032-biphenyl", "N,N-Dimethyl-(4\u2032-(dimethylamino)biphenyl-4-yl)amine", "N4,N4,N4\u2032,N4\u2032-Tetramethyl[1,1\u2032-biphenyl]-4,4\u2032-diamine"], "SMILES": "N(C)(C)C1=CC=C(C=C1)C2=CC=C(N(C)C)C=C2", "physical_data": {"Molecular Weight": "240.34", "Molecular Formula": "C16H20N2", "Melting Point": "194 \u00b0C"}}