{"cas_no": "36603-49-3", "cn_name": "2-\u5bf9\u6eb4\u82ef\u6c27\u57fa\u56db\u6c22\u5421\u5583", "en_name": ["2-(4-Bromophenoxy)tetrahydro-2H-pyran", "2H-Pyran, 2-(4-bromophenoxy)tetrahydro-", "Pyran, 2-(p-bromophenoxy)tetrahydro-", "2-(4-Bromophenoxy)tetrahydro-2H-pyran", "p-Bromotetrahydro-2-(pyranyloxy)benzene", "p-(2-Tetrahydropyranyloxy)phenyl bromide", "4-(2-Tetrahydropyranyloxy)phenyl bromide", "4-Bromophenyl 2-tetrahydropyranyl ether", "p-(Tetrahydropyranyloxy)phenyl bromide", "4-(2-Tetrahydropyranyloxy)bromobenzene", "2-(4-Bromophenoxy)tetrahydropyran", "2-(4-Bromophenoxy)-2H-tetrahydropyran", "4-Bromophenyl THP ether", "1-Bromo-4-[(tetrahydro-2H-pyran-2-yl)oxy]benzene", "2-(4-Bromophenoxy)oxane"], "SMILES": "O(C1=CC=C(Br)C=C1)C2CCCCO2", "physical_data": {"Molecular Weight": "257.12", "Molecular Formula": "C11H13BrO2", "Boiling Point": "109 \u00b0C @ Press: 0.26 Torr", "Melting Point": "57-57.5 \u00b0C"}}