{"cas_no": "36626-29-6", "cn_name": "2-(\u7fa7\u4e59\u57fa)\u4e09\u82ef\u57fa\u6c2f\u5316\u81a6", "en_name": ["Phosphonium, (2-carboxyethyl)triphenyl-, chloride (1:1)", "Phosphonium, (2-carboxyethyl)triphenyl-, chloride (1:1)", "Phosphonium, (2-carboxyethyl)triphenyl-, chloride", "(2-Carboxyethyl)triphenylphosphonium chloride", "Triphenyl(2-carboxyethyl)phosphonium chloride", "(\u03b2-Carboxyethyl)triphenylphosphonium chloride", "3-(Triphenylphosphonium)propionic acid chloride", "NSC 165227"], "SMILES": "[P+](CCC(O)=O)(C1=CC=CC=C1)(C2=CC=CC=C2)C3=CC=CC=C3.[Cl-]", "physical_data": {"Molecular Weight": "", "Molecular Formula": "C21H20O2P.Cl", "Melting Point": "198-200 \u00b0C"}}