{"cas_no": "36635-61-7", "cn_name": "\u5bf9\u7532\u57fa\u82ef\u78fa\u9170\u7532\u57fa\u5f02\u8148", "en_name": ["Tosylmethyl isocyanide", "Benzene, 1-[(isocyanomethyl)sulfonyl]-4-methyl-", "1-[(Isocyanomethyl)sulfonyl]-4-methylbenzene", "Tosylmethyl isocyanide", "4-Tolylsulfonylmethyl isocyanide", "(p-Tolylsulfonyl)methyl isocyanide", "p-Toluenesulfonylmethyl isocyanide", "p-Tosylmethyl isocyanide", "Isocyanomethyl p-tolyl sulfone", "4-Toluenesulfonylmethyl isocyanide", "TOSMIC", "p-Toluenesulfonylmethylisonitrile", "p-Tosylmethyl isonitrile", "(4-Methylphenylsulfonyl)methyl isocyanide", "NSC 631633", "1-(Isocyanomethanesulfonyl)-4-methylbenzene", "1-Methyl-4-(((isocyano)methyl)sulfonyl)benzene"], "SMILES": "S(C[N+]#[C-])(=O)(=O)C1=CC=C(C)C=C1", "physical_data": {"Molecular Weight": "", "Molecular Formula": "C9H9NO2S", "Melting Point": "112-113 \u00b0C"}}