{"cas_no": "36635-56-0", "cn_name": "N-\u5bf9\u7532\u82ef\u78fa\u9170\u7532\u57fa\u7532\u9170\u80fa", "en_name": ["N-[[(4-Methylphenyl)sulfonyl]methyl]formamide", "Formamide, N-[[(4-methylphenyl)sulfonyl]methyl]-", "N-[[(4-Methylphenyl)sulfonyl]methyl]formamide", "N-(Tosylmethyl)formamide", "N-(p-Toluenesulfonylmethyl)formamide", "N-(4-Methylbenzenesulfonylmethyl)-formamide"], "SMILES": "S(CNC=O)(=O)(=O)C1=CC=C(C)C=C1", "physical_data": {"Molecular Weight": "213.25", "Molecular Formula": "C9H11NO3S", "Melting Point": "109-111 \u00b0C"}}