{"cas_no": "3663-80-7", "cn_name": "1,4-\u82ef\u5e76\u4e8c\u5641\u70f7-2-\u7fa7\u9178", "en_name": ["1,4-Benzodioxane-2-carboxylic acid", "1,4-Benzodioxin-2-carboxylic acid, 2,3-dihydro-", "1,4-Benzodioxan-2-carboxylic acid", "2,3-Dihydro-1,4-benzodioxin-2-carboxylic acid", "1,4-Benzodioxane-2-carboxylic acid", "RX 811056", "(\u00b1)-1,4-Benzodioxan-2-carboxylic acid", "2,3-Dihydro-1,4-benzodioxine-2-carboxylic acid", "2,3-Dihydrobenzo[b][1,4]dioxine-2-carboxylic acid", "2,3-Dihydro-1,4-benzodioxine-3-carboxylic acid"], "SMILES": "C(O)(=O)C1OC=2C(OC1)=CC=CC2", "physical_data": {"Molecular Weight": "180.16", "Molecular Formula": "C9H8O4", "Melting Point": "116-117 \u00b0C"}}