{"cas_no": "3663-82-9", "cn_name": "2-\u7f9f\u57fa\u7532\u57fa-1,4-\u82ef\u4e8c\u6076", "en_name": ["2,3-Dihydro-1,4-benzodioxin-2-methanol", "1,4-Benzodioxin-2-methanol, 2,3-dihydro-", "1,4-Benzodioxan-2-methanol", "2,3-Dihydro-1,4-benzodioxin-2-methanol", "2-(Hydroxymethyl)-1,4-benzodioxan", "2-(Hydroxymethyl)-1,4-benzodioxane", "1,4-Benzodioxane-2-methanol", "(2,3-Dihydro-1,4-benzodioxin-2-yl)methanol", "NSC 1880", "NSC 24520", "NSC 36118", "NSC 36578", "NSC 403800", "NSC 51502", "(1,4-Benzodioxan-2-yl)methanol", "2-(Hydroxymethyl)-2,3-dihydro-1,4-benzodioxane", "2,3-Dihydro-1,4-benzodioxin-3-ylmethanol", "2-Hydroxymethyl-2,3-dihydrobenzo[1,4]dioxin", "2-Hydroxymethyl-5,6-benzo-1,4-dioxane"], "SMILES": "C(O)C1OC=2C(OC1)=CC=CC2", "physical_data": {"Molecular Weight": "166.17", "Molecular Formula": "C9H10O3", "Boiling Point": "154-155 \u00b0C @ Press: 12 Torr", "Melting Point": "86 \u00b0C"}}