{"cas_no": "3663-44-3", "cn_name": "3-\u6c28\u4e19\u57fa\u7532\u57fa\u4e8c\u7532\u6c27\u57fa\u7845\u70f7", "en_name": ["\u03b3-Aminopropylmethyldimethoxysilane", "1-Propanamine, 3-(dimethoxymethylsilyl)-", "Propylamine, 3-(dimethoxymethylsilyl)-", "3-(Dimethoxymethylsilyl)-1-propanamine", "\u03b3-Aminopropylmethyldimethoxysilane", "3-Aminopropylmethyldimethoxysilane", "(3-Aminopropyl)dimethoxymethylsilane", "3-(Dimethoxymethylsilyl)propylamine", "\u03b3-Aminopropyldimethoxymethylsilane", "Q 2-8038", "A 0742", "KBM 902", "Silquest A 2110C", "YDH 660", "Aminopropyldimethoxymethylsilane", "Silquest A 2110", "DB 912", "3-(Dimethoxymethylsilyl)-1-propylamine", "Chemos 266007", "AJ 114", "3-(Dimethoxymethylsilanyl)propylamine", "KH 554", "Si 903", "A 311", "KH 552", "SCA-A 10T", "FD 554"], "SMILES": "[Si](CCCN)(OC)(OC)C", "physical_data": {"Molecular Weight": "163.29", "Molecular Formula": "C6H17NO2Si", "Boiling Point": "58-60 \u00b0C @ Press: 4 Torr", "Density": "0.9430 g/cm\u00b3 @ Temp: 20 \u00b0C"}}