{"cas_no": "366453-22-7", "cn_name": "4-\u7532\u6c27\u57fa\u5f02\u5432\u54da\u5549-1-\u916e", "en_name": ["2,3-Dihydro-4-methoxy-1H-isoindol-1-one", "1H-Isoindol-1-one, 2,3-dihydro-4-methoxy-", "2,3-Dihydro-4-methoxy-1H-isoindol-1-one", "4-Methoxy-2,3-dihydroisoindol-1-one"], "SMILES": "O(C)C1=C2C(C(=O)NC2)=CC=C1", "physical_data": {"Molecular Weight": "163.17", "Molecular Formula": "C9H9NO2", "Melting Point": "&gt;200 \u00b0C"}}