{"cas_no": "3665-80-3", "cn_name": "N-\u4e59\u57fa-\u5bf9-\u785d\u57fa\u82ef\u80fa", "en_name": ["N-Ethyl-4-nitroaniline", "Benzenamine, N-ethyl-4-nitro-", "Aniline, N-ethyl-p-nitro-", "N-Ethyl-4-nitrobenzenamine", "N-Ethyl-4-nitroaniline"], "SMILES": "N(=O)(=O)C1=CC=C(NCC)C=C1", "physical_data": {"Molecular Weight": "166.18", "Molecular Formula": "C8H10N2O2", "Melting Point": "96-98 \u00b0C"}}