{"cas_no": "36653-82-4", "cn_name": "1-\u5341\u516d\u70f7\u9187", "en_name": ["Cetyl alcohol", "1-Hexadecanol", "Cetyl alcohol", "Siponol CC", "Siponol Wax A", "Cetanol", "n-1-Hexadecanol", "Adol 52NF", "n-Cetyl alcohol", "Atalco C", "Cetaffine", "Cetal", "Cetalol CA", "Cetylic alcohol", "Cetylol", "Crodacol CAS", "Crodacol CAT", "Ethal", "Ethol", "n-Hexadecanol", "Lorol 24", "Loxanol K", "Loxanol K extra", "Palmityl alcohol", "Product 308", "Adol 52", "Hexadecanol", "Hexadecyl alcohol", "Loxanwax SK", "Elfacos C", "Lanol C", "Adol 54", "Crodacol C", "Alfol 16", "Cachalot C 51", "Hyfatol 16", "Palmitic alcohol", "Kalcohl 60", "1-Cetanol", "Lorol C 16", "CO 1695", "Epal 16", "Laurex 16", "Cetalcos", "Tego Alkanol 16", "Lanette 16", "Conol 1695", "Hyfatol 16-85", "Hyfatol 16-95", "NSC 4194", "Alfol 16RD", "Kalcohl 6098", "NAA 44", "CO 1695F", "Lipocol C", "Crodacol C 95", "Cetyl Alcohol NX", "Nacol 1618", "Kalcol 6098", "Hainol 16SS", "Lorol C 14/98", "Lanette 1665", "n-Hexadecyl alcohol", "Nacol 16-99", "Cetanol NX", "Speziol C 16", "Kolliwax CA", "Nacol 16-95", "Cetanol 70", "Conol 1670", "1-Hydroxyhexadecane", "Crodacol C 90", "Spermol", "Ginol 16", "Kalcol 6028", "Nafol 16", "SP Crodacol C 90MBAL"], "SMILES": "C(CCCCCCCC)CCCCCCCO", "physical_data": {"Molecular Weight": "242.44", "Molecular Formula": "C16H34O", "Boiling Point": "334 \u00b0C @ Press: 760 Torr", "Melting Point": "49.3 \u00b0C", "Density": "0.8187 g/cm\u00b3 @ Temp: 50 \u00b0C"}}