{"cas_no": "3665-51-8", "cn_name": "2-\u7f9f\u57fa-3-\u8418\u7532\u9170\u80fa", "en_name": ["3-Hydroxy-2-naphthalenecarboxamide", "2-Naphthalenecarboxamide, 3-hydroxy-", "2-Naphthamide, 3-hydroxy-", "3-Hydroxy-2-naphthalenecarboxamide", "3-Hydroxy-2-naphthamide", "2-Hydroxy-3-naphthalenecarboxamide", "2-Hydroxy-3-naphthoamide", "2-Hydroxy-3-naphthamide", "2-Hydroxy-3-naphthoic acid amide", "NSC 37060", "3-Hydroxy-2-naphthalenecarbamide", "3-Hydroxy-2-naphthoamide"], "SMILES": "C(N)(=O)C1=CC2=C(C=C1O)C=CC=C2", "physical_data": {"Molecular Weight": "187.19", "Molecular Formula": "C11H9NO2", "Melting Point": "185 \u00b0C"}}