{"cas_no": "366789-02-8", "cn_name": "\u5229\u4f10\u6c99\u73ed", "en_name": ["Rivaroxaban", "2-Thiophenecarboxamide, 5-chloro-N-[[(5S)-2-oxo-3-[4-(3-oxo-4-morpholinyl)phenyl]-5-oxazolidinyl]methyl]-", "5-Chloro-N-[[(5S)-2-oxo-3-[4-(3-oxo-4-morpholinyl)phenyl]-5-oxazolidinyl]methyl]-2-thiophenecarboxamide", "Rivaroxaban", "BAY 59-7939", "5-Chloro-N-[[(S)-3-(4-(3-oxomorpholin-4-yl)phenyl)-2-oxo-1,3-oxazolidin-5-yl]methyl]-thiophene-2-carboxamide", "Xarelto", "5-Chloro-N-[[(5S)-2-oxo-3-[4-(3-oxo-4-morpholinyl)phenyl]-1,3-oxazolidin-5-yl]methyl]-2-thiophenecarboxamide", "5-Chloro-N-([(5S)-2-oxo-3-[4-(3-oxo-4-morpholinyl)-phenyl]-1,3-oxazolidin-5-yl]-methyl)-2-thiophenecarboxamide", "(S)-Rivaroxaban"], "SMILES": "O=C1N(CC(CNC(=O)C=2SC(Cl)=CC2)O1)C3=CC=C(C=C3)N4C(=O)COCC4", "physical_data": {"Molecular Weight": "435.88", "Molecular Formula": "C19H18ClN3O5S", "Melting Point": "230 \u00b0C"}}