{"cas_no": "366814-43-9", "cn_name": "3-O-B-D-\u8461\u8404\u7cd6( 1\u21924)-[ A -L-\u9f20\u674e\u7cd6(1\u21922)]- A-L-\u963f\u62c9\u4f2f\u7cd6 23-\u7f9f\u57fa\u7fbd\u6247\u8c4620(29)-\u70ef-28\u2013\u9178- 28-O-\u9f20\u674e\u7cd6(1\u21924)\u8461\u8404\u7cd6(1\u21926)\u8461\u8404\u7cd6\u82f7", "en_name": ["Pulsatilloside E", "Lup-20(29)-en-28-oic acid, 3-[(O-6-deoxy-\u03b1-L-mannopyranosyl-(1\u21922)-O-[\u03b2-D-glucopyranosyl-(1\u21924)]-\u03b1-L-arabinopyranosyl)oxy]-23-hydroxy-, O-6-deoxy-\u03b1-L-mannopyranosyl-(1\u21924)-O-\u03b2-D-glucopyranosyl-(1\u21926)-\u03b2-D-glucopyranosyl ester, (3\u03b2,4\u03b1)-", "Pulsatilloside E", "3-O-[\u03b2-D-glucopyranosyl(1\u21924)][\u03b1-L-rhamnopyranosyl(1\u21922)]-\u03b1-L-arabinopyranosyl-23-hydroxybetulinic acid 28-O-\u03b1-L-rhamnopyranosyl(1\u21924)-\u03b2-D-glucopyranosyl(1\u21926)-\u03b2-D-glucopyranosyl ester", "Chinensioside B"], "SMILES": "C(OC1OC(COC2OC(CO)C(OC3C(O)C(O)C(O)C(C)O3)C(O)C2O)C(O)C(O)C1O)(=O)C45C(C6C(C)(CC4)C7(C)C(CC6)C8(C)C(CC7)C(CO)(C)C(OC9C(OC%10C(O)C(O)C(O)C(C)O%10)C(O)C(OC%11OC(CO)C(O)C(O)C%11O)CO9)CC8)C(C(C)=C)CC5", "physical_data": {"Molecular Weight": "1383.52", "Molecular Formula": "C65H106O31", "Melting Point": "216-218 \u00b0C"}}