{"cas_no": "3669-41-8", "cn_name": "2',4'-\u4e8c\u7f9f\u57fa-2-\u82ef\u57fa\u82ef\u4e59\u916e", "en_name": ["2,4-Dihydroxyphenyl benzyl ketone", "Ethanone, 1-(2,4-dihydroxyphenyl)-2-phenyl-", "Acetophenone, 2\u2032,4\u2032-dihydroxy-2-phenyl-", "1-(2,4-Dihydroxyphenyl)-2-phenylethanone", "2,4-Dihydroxydeoxybenzoin", "2\u2032,4\u2032-Dihydroxy-2-phenylacetophenone", "2,4-Dihydroxyphenyl benzyl ketone", "4-(Phenylacetyl)resorcinol", "\u03c9-Phenylresacetophenone", "2,4-Dihydroxydesoxybenzoin", "NSC 105542", "Benzyl 2,4-dihydroxyphenyl ketone", "1-(2,4-Dihydroxyphenyl)-2-phenylethan-1-one"], "SMILES": "C(CC1=CC=CC=C1)(=O)C2=C(O)C=C(O)C=C2", "physical_data": {"Molecular Weight": "228.24", "Molecular Formula": "C14H12O3", "Boiling Point": "192-194 \u00b0C @ Press: 0.2 Torr", "Melting Point": "115 \u00b0C"}}