{"cas_no": "3669-80-5", "cn_name": "11-\u7f9f\u57fa\u5341\u4e00\u70f7\u9178", "en_name": ["11-Hydroxyundecanoic acid", "Undecanoic acid, 11-hydroxy-", "11-Hydroxyundecanoic acid"], "SMILES": "C(CCCCCCCO)CCC(O)=O", "physical_data": {"Molecular Weight": "202.29", "Molecular Formula": "C11H22O3", "Melting Point": "65.5 \u00b0C"}}