{"cas_no": "367-11-3", "cn_name": "1,2-\u4e8c\u6c1f\u82ef", "en_name": ["1,2-Difluorobenzene", "Benzene, 1,2-difluoro-", "Benzene, o-difluoro-", "1,2-Difluorobenzene", "o-Difluorobenzene", "NSC 10275"], "SMILES": "FC1=C(F)C=CC=C1", "physical_data": {"Molecular Weight": "114.09", "Molecular Formula": "C6H4F2", "Boiling Point": "94 \u00b0C", "Melting Point": "-34 \u00b0C", "Density": "1.1496 g/cm\u00b3 @ Temp: 25 \u00b0C"}}