{"cas_no": "367-27-1", "cn_name": "2,4-\u4e8c\u6c1f\u82ef\u915a", "en_name": ["2,4-Difluorophenol", "Phenol, 2,4-difluoro-", "2,4-Difluorophenol"], "SMILES": "FC1=C(O)C=CC(F)=C1", "physical_data": {"Molecular Weight": "130.09", "Molecular Formula": "C6H4F2O", "Boiling Point": "150 \u00b0C", "Melting Point": "22.4 \u00b0C"}}