{"cas_no": "367-57-7", "cn_name": "1,1,1-\u4e09\u6c1f-2,4-\u620a\u4e8c\u916e", "en_name": ["1,1,1-Trifluoro-2,4-pentanedione", "2,4-Pentanedione, 1,1,1-trifluoro-", "1,1,1-Trifluoro-2,4-pentanedione", "1,1,1-(Trifluoroacetyl)acetone", "(Trifluoroacetyl)acetone", "NSC 9455", "1,1,1-Trifluoroacetylacetonate"], "SMILES": "C(CC(C)=O)(C(F)(F)F)=O", "physical_data": {"Molecular Weight": "154.09", "Molecular Formula": "C5H5F3O2", "Boiling Point": "106 \u00b0C", "Density": "1.27 g/cm\u00b3"}}