{"cas_no": "367-22-6", "cn_name": "4-\u6c2f-3-\u6c1f\u82ef\u80fa", "en_name": ["4-Chloro-3-fluorobenzenamine", "Benzenamine, 4-chloro-3-fluoro-", "Aniline, 4-chloro-3-fluoro-", "4-Chloro-3-fluorobenzenamine", "4-Chloro-3-fluoroaniline", "3-Fluoro-4-chloroaniline", "4-Chloro-3-fluorophenylamine", "4-Chloro-3-fluorobenzeneamine", "3-Fluoro-4-chlorobenzenamine"], "SMILES": "FC1=C(Cl)C=CC(N)=C1", "physical_data": {"Molecular Weight": "145.56", "Molecular Formula": "C6H5ClFN", "Boiling Point": "226 \u00b0C", "Melting Point": "61-62 \u00b0C"}}