{"cas_no": "367-25-9", "cn_name": "2,4-\u4e8c\u6c1f\u82ef\u80fa", "en_name": ["2,4-Difluoroaniline", "Benzenamine, 2,4-difluoro-", "Aniline, 2,4-difluoro-", "2,4-Difluorobenzenamine", "2,4-Difluoroaniline", "2,4-Difluorophenylamine", "NSC 10297"], "SMILES": "FC1=C(N)C=CC(F)=C1", "physical_data": {"Molecular Weight": "129.11", "Molecular Formula": "C6H5F2N", "Boiling Point": "170 \u00b0C", "Melting Point": "-7.5 \u00b0C"}}