{"cas_no": "367-32-8", "cn_name": "4-\u6c1f-1,2-\u82ef\u4e8c\u915a", "en_name": ["4-Fluoro-1,2-benzenediol", "1,2-Benzenediol, 4-fluoro-", "Pyrocatechol, 4-fluoro-", "4-Fluoro-1,2-benzenediol", "4-Fluoropyrocatechol", "4-Fluoro-2-hydroxyphenol"], "SMILES": "OC1=C(O)C=CC(F)=C1", "physical_data": {"Molecular Weight": "128.10", "Molecular Formula": "C6H5FO2", "Melting Point": "90-91 \u00b0C"}}