{"cas_no": "367-34-0", "cn_name": "2,4,5-\u4e09\u6c1f\u82ef\u80fa", "en_name": ["2,4,5-Trifluoroaniline", "Benzenamine, 2,4,5-trifluoro-", "Aniline, 2,4,5-trifluoro-", "2,4,5-Trifluorobenzenamine", "2,4,5-Trifluoroaniline", "NSC 10289", "2,4,5-Trifluorophenylamine"], "SMILES": "FC1=C(F)C=C(N)C(F)=C1", "physical_data": {"Molecular Weight": "147.10", "Molecular Formula": "C6H4F3N", "Melting Point": "60 \u00b0C"}}