{"cas_no": "367-23-7", "cn_name": "1,2,4-\u4e09\u6c1f\u82ef", "en_name": ["1,2,4-Trifluorobenzene", "Benzene, 1,2,4-trifluoro-", "1,2,4-Trifluorobenzene", "1,3,4-Trifluorobenzene", "1,2,5-Trifluorobenzene", "NSC 10263"], "SMILES": "FC1=C(F)C=CC(F)=C1", "physical_data": {"Molecular Weight": "132.08", "Molecular Formula": "C6H3F3", "Boiling Point": "90 \u00b0C", "Density": "1.28-1.32 g/cm\u00b3 @ Temp: 25 \u00b0C"}}