{"cas_no": "367-93-1", "cn_name": "\u5f02\u4e19\u57fa-beta-D-\u786b\u4ee3\u534a\u4e73\u7cd6\u5421\u5583\u7cd6\u82f7", "en_name": ["Isopropyl \u03b2-D-thiogalactopyranoside", "\u03b2-D-Galactopyranoside, 1-methylethyl 1-thio-", "Galactopyranoside, isopropyl 1-thio-, \u03b2-D-", "Galactopyranoside, isopropyl 1-thio-", "1-Methylethyl 1-thio-\u03b2-D-galactopyranoside", "IPTG", "Isopropyl \u03b2-D-thiogalactopyranoside", "Isopropyl \u03b2-thiogalactopyranoside", "Thioisopropyl \u03b2-D-galactopyranoside", "Isopropyl thio-\u03b2-D-galactoside", "Isopropyl 1-thio-\u03b2-D-galactoside", "Isopropyl \u03b2-thiogalactoside", "Isopropyl thio-\u03b2-D-galactopyranoside", "Isopropyl 1-thio-\u03b2-D-galactopyranoside", "Isopropyl-\u03b2-D-1-thiogalactopyranoside", "1: PN: CN105175524 PAGE: 2 claimed sequence"], "SMILES": "S(C(C)C)C1OC(CO)C(O)C(O)C1O", "physical_data": {"Molecular Weight": "238.30", "Molecular Formula": "C9H18O5S", "Melting Point": "121 \u00b0C"}}