{"cas_no": "367-21-5", "cn_name": "3-\u6c2f-4-\u6c1f\u82ef\u80fa", "en_name": ["3-Chloro-4-fluoroaniline", "Benzenamine, 3-chloro-4-fluoro-", "Aniline, 3-chloro-4-fluoro-", "3-Chloro-4-fluorobenzenamine", "3-Chloro-4-fluoroaniline", "4-Fluoro-3-chloroaniline", "m-Chloro-p-fluoroaniline", "3-Chloro-4-fluorophenylamine", "NSC 10290"], "SMILES": "ClC1=C(F)C=CC(N)=C1", "physical_data": {"Molecular Weight": "145.56", "Molecular Formula": "C6H5ClFN", "Boiling Point": "227.5 \u00b0C", "Melting Point": "45.5 \u00b0C"}}