{"cas_no": "367-24-8", "cn_name": "4-\u6eb4-2-\u6c1f\u82ef\u80fa", "en_name": ["4-Bromo-2-fluoroaniline", "Benzenamine, 4-bromo-2-fluoro-", "Aniline, 4-bromo-2-fluoro-", "4-Bromo-2-fluorobenzenamine", "4-Bromo-2-fluoroaniline", "2-Fluoro-4-bromoaniline", "4-Bromo-2-fluorophenylamine"], "SMILES": "FC1=C(N)C=CC(Br)=C1", "physical_data": {"Molecular Weight": "190.01", "Molecular Formula": "C6H5BrFN", "Melting Point": "40-42 \u00b0C"}}