{"cas_no": "367-86-2", "cn_name": "2-\u785d\u57fa-4-\u4e09\u6c1f\u7532\u57fa\u6c1f\u82ef", "en_name": ["4-Fluoro-3-nitrobenzotrifluoride", "Benzene, 1-fluoro-2-nitro-4-(trifluoromethyl)-", "Toluene, \u03b1,\u03b1,\u03b1,4-tetrafluoro-3-nitro-", "1-Fluoro-2-nitro-4-(trifluoromethyl)benzene", "\u03b1,\u03b1,\u03b1,4-Tetrafluoro-3-nitrotoluene", "4-Fluoro-3-nitrobenzotrifluoride", "3-Nitro-4-fluorobenzotrifluoride", "4-Fluoro-3-nitrobenzofluoride", "4-Trifluoromethyl-2-nitro-1-fluorobenzene", "2-Fluoro-5-(trifluoromethyl)nitrobenzene", "NSC 10303", "2-Nitro-4-(trifluoromethyl)fluorobenzene", "2-Fluoro-5-trifluoromethyl-1-nitrobenzene"], "SMILES": "N(=O)(=O)C1=CC(C(F)(F)F)=CC=C1F", "physical_data": {"Molecular Weight": "209.10", "Molecular Formula": "C7H3F4NO2", "Boiling Point": "92 \u00b0C @ Press: 15 Torr"}}