{"cas_no": "367-64-6", "cn_name": "\u4e09\u6c1f\u4e59\u9178\u4e01\u916f", "en_name": ["Butyl 2,2,2-trifluoroacetate", "Acetic acid, 2,2,2-trifluoro-, butyl ester", "Acetic acid, trifluoro-, butyl ester", "Butyl 2,2,2-trifluoroacetate", "Butyl trifluoroacetate", "Butyl perfluoroacetate", "NSC 77658", "n-Butyl trifluoroacetate", "1-Butyl trifluoroacetate"], "SMILES": "C(OCCCC)(C(F)(F)F)=O", "physical_data": {"Molecular Weight": "170.13", "Molecular Formula": "C6H9F3O2", "Boiling Point": "102.7-102.8 \u00b0C", "Density": "1.016 g/cm\u00b3 @ Temp: 20 \u00b0C"}}