{"cas_no": "367-12-4", "cn_name": "2-\u6c1f\u82ef\u915a", "en_name": ["2-Fluorophenol", "Phenol, 2-fluoro-", "Phenol, o-fluoro-", "2-Fluorophenol", "o-Fluorophenol", "1-Fluoro-2-hydroxybenzene", "NSC 10294"], "SMILES": "FC1=C(O)C=CC=C1", "physical_data": {"Molecular Weight": "112.10", "Molecular Formula": "C6H5FO", "Boiling Point": "151.5 \u00b0C", "Melting Point": "16.1 \u00b0C"}}