{"cas_no": "367-31-7", "cn_name": "4-\u6c1f-1,2-\u82ef\u4e8c\u80fa", "en_name": ["4-Fluoro-1,2-phenylenediamine", "1,2-Benzenediamine, 4-fluoro-", "o-Phenylenediamine, 4-fluoro-", "4-Fluoro-1,2-benzenediamine", "4-Fluoro-o-phenylenediamine", "4-Fluoro-1,2-phenylenediamine", "1,2-Diamino-4-fluorobenzene", "4-Fluoro-1,2-diaminobenzene", "2-Amino-5-fluoroaniline", "5-Fluoro-1,2-diaminobenzene", "3,4-Diamino-1-fluorobenzene", "(4-Fluorophenyl)-1,2-diamine", "5-Fluorobenzene-1,2-diamine"], "SMILES": "NC1=C(N)C=CC(F)=C1", "physical_data": {"Molecular Weight": "126.13", "Molecular Formula": "C6H7FN2", "Melting Point": "88-89 \u00b0C"}}