{"cas_no": "367-67-9", "cn_name": "2-\u6eb4-5-\u785d\u57fa\u4e09\u6c1f\u7532\u82ef", "en_name": ["2-Bromo-5-nitrobenzotrifluoride", "Benzene, 1-bromo-4-nitro-2-(trifluoromethyl)-", "Toluene, 2-bromo-\u03b1,\u03b1,\u03b1-trifluoro-5-nitro-", "1-Bromo-4-nitro-2-(trifluoromethyl)benzene", "2-Bromo-5-nitrobenzotrifluoride", "4-Bromo-3-trifluoromethylnitrobenzene", "2-Trifluoromethyl-4-nitrobromobenzene"], "SMILES": "C(F)(F)(F)C1=CC(N(=O)=O)=CC=C1Br", "physical_data": {"Molecular Weight": "270.00", "Molecular Formula": "C7H3BrF3NO2", "Boiling Point": "87-88 \u00b0C @ Press: 2.5-3 Torr", "Melting Point": "46-48 \u00b0C"}}