{"cas_no": "367-29-3", "cn_name": "5-\u6c1f-2-\u7532\u57fa\u82ef\u80fa", "en_name": ["5-Fluoro-2-methylaniline", "Benzenamine, 5-fluoro-2-methyl-", "o-Toluidine, 5-fluoro-", "5-Fluoro-2-methylbenzenamine", "2-Methyl-5-fluoroaniline", "5-Fluoro-2-methylaniline", "2-Amino-4-fluorotoluene", "3-Fluoro-6-methylaniline", "NSC 60730", "5-Fluoro-2-methylphenylamine"], "SMILES": "NC1=C(C)C=CC(F)=C1", "physical_data": {"Molecular Weight": "125.14", "Molecular Formula": "C7H8FN", "Boiling Point": "100-101 \u00b0C @ Press: 16 Torr", "Melting Point": "37.5 \u00b0C"}}