{"cas_no": "367-80-6", "cn_name": "4-\u6c1f-3-\u785d\u57fa\u82ef\u7532\u9178\u4e59\u916f", "en_name": ["Ethyl 4-fluoro-3-nitrobenzoate", "Benzoic acid, 4-fluoro-3-nitro-, ethyl ester", "Ethyl 4-fluoro-3-nitrobenzoate", "4-Fluoro-3-nitrobenzoic acid ethyl ester"], "SMILES": "N(=O)(=O)C1=CC(C(OCC)=O)=CC=C1F", "physical_data": {"Molecular Weight": "213.16", "Molecular Formula": "C9H8FNO4", "Melting Point": "45.3 \u00b0C"}}