{"cas_no": "367-30-6", "cn_name": "2,5-\u4e8c\u6c1f\u82ef\u80fa", "en_name": ["2,5-Difluoroaniline", "Benzenamine, 2,5-difluoro-", "Aniline, 2,5-difluoro-", "2,5-Difluorobenzenamine", "2,5-Difluoroaniline", "NSC 3259", "2,5-Difluorophenylamine"], "SMILES": "NC1=C(F)C=CC(F)=C1", "physical_data": {"Molecular Weight": "129.11", "Molecular Formula": "C6H5F2N", "Boiling Point": "84.5-85.8 \u00b0C @ Press: 30 Torr", "Melting Point": "134.5 \u00b0C", "Density": "1.28795 g/cm\u00b3 @ Temp: 17.2 \u00b0C"}}