{"cas_no": "367-81-7", "cn_name": "2,4-\u4e8c\u785d\u57fa-5-\u6c1f\u82ef\u80fa", "en_name": ["2,4-Dinitro-5-fluoroaniline", "Benzenamine, 5-fluoro-2,4-dinitro-", "Aniline, 5-fluoro-2,4-dinitro-", "5-Fluoro-2,4-dinitrobenzenamine", "2,4-Dinitro-5-fluoroaniline", "3-Fluoro-4,6-dinitroaniline", "5-Fluoro-2,4-dinitroaniline", "5-Amino-2,4-dinitro-1-fluorobenzene", "NSC 88336"], "SMILES": "N(=O)(=O)C1=CC(N(=O)=O)=C(N)C=C1F", "physical_data": {"Molecular Weight": "201.11", "Molecular Formula": "C6H4FN3O4", "Melting Point": "186-187 \u00b0C"}}