{"cas_no": "36701-89-0", "cn_name": "2-[3-(\u4e09\u6c1f\u7532\u57fa)\u82ef\u6c27\u57fa]\u70df\u9178", "en_name": ["2-[3-(Trifluoromethyl)phenoxy]-3-pyridinecarboxylic acid", "3-Pyridinecarboxylic acid, 2-[3-(trifluoromethyl)phenoxy]-", "2-[3-(Trifluoromethyl)phenoxy]-3-pyridinecarboxylic acid", "2-(3-Trifluoromethylphenoxy)nicotinic acid", "2-(3-Trifluoromethylphenoxy)-3-pyridinecarboxylic acid"], "SMILES": "O(C1=C(C(O)=O)C=CC=N1)C2=CC(C(F)(F)F)=CC=C2", "physical_data": {"Molecular Weight": "283.20", "Molecular Formula": "C13H8F3NO3", "Melting Point": "144-146 \u00b0C"}}