{"cas_no": "36701-01-6", "cn_name": "\u620a\u9178\u7ce0\u916f", "en_name": ["Furfuryl pentanoate", "Pentanoic acid, 2-furanylmethyl ester", "Furfuryl valerate", "Furfuryl pentanoate", "Oxaromate 884"], "SMILES": "C(OC(CCCC)=O)C1=CC=CO1", "physical_data": {"Molecular Weight": "182.22", "Molecular Formula": "C10H14O3", "Boiling Point": "228 \u00b0C"}}