{"cas_no": "3670-93-7", "cn_name": "2,4,8,10-tetraoxa-3,9-dithiaspiro[5.5]undecane 3,9-dioxide", "en_name": ["2,4,8,10-Tetraoxa-3,9-dithiaspiro[5.5]undecane, 3,9-dioxide", "2,4,8,10-Tetraoxa-3,9-dithiaspiro[5.5]undecane, 3,9-dioxide", "Pentaerythritol, cyclic disulfite", "Neopentanetetrayl sulfite", "Pentaerythritol disulfite", "NSC 25619", "T 0400-1511", "2,4,8,10-Tetraoxa-3\u03bb4,9\u03bb4-dithiaspiro[5.5]undecane-3,9-dione"], "SMILES": "O=S1OCC2(COS(=O)OC2)CO1", "physical_data": {"Molecular Weight": "228.24", "Molecular Formula": "C5H8O6S2", "Melting Point": "151 \u00b0C"}}