{"cas_no": "36715-97-6", "cn_name": "3-\u7532\u57fa-1,2-\u82ef\u4e8c\u8148", "en_name": ["3-Methyl-1,2-benzenedicarbonitrile", "1,2-Benzenedicarbonitrile, 3-methyl-", "3-Methyl-1,2-benzenedicarbonitrile", "3-Methylphthalonitrile", "3-Methylphthalodinitrile"], "SMILES": "C(#N)C1=C(C#N)C(C)=CC=C1", "physical_data": {"Molecular Weight": "142.16", "Molecular Formula": "C9H6N2", "Melting Point": "143 \u00b0C"}}