{"cas_no": "3672-39-7", "cn_name": "2-\u82ef\u57fa\u54aa\u5511\u5e76[1,2-A]\u5421\u5576-3-\u7532\u919b", "en_name": ["3-Formyl-2-phenylimidazo[1,2-a]pyridine", "Imidazo[1,2-a]pyridine-3-carboxaldehyde, 2-phenyl-", "2-Phenylimidazo[1,2-a]pyridine-3-carboxaldehyde", "3-Formyl-2-phenylimidazo[1,2-a]pyridine", "2-Phenylimidazo[1,2-a]pyridine-3-carbaldehyde"], "SMILES": "C(=O)C1=C(N=C2N1C=CC=C2)C3=CC=CC=C3", "physical_data": {"Molecular Weight": "222.24", "Molecular Formula": "C14H10N2O", "Melting Point": "145-146 \u00b0C"}}