{"cas_no": "36727-29-4", "cn_name": "3,5,5-\u4e09\u7532\u57fa\u5df1\u9170\u6c2f", "en_name": ["3,5,5-Trimethylhexanoyl chloride", "Hexanoyl chloride, 3,5,5-trimethyl-", "3,5,5-Trimethylhexanoyl chloride", "3,5,5-Trimethylhexanoic acid chloride", "Isononanoic acid chloride", "2,4,4-Trimethylhexanoyl chloride"], "SMILES": "C(C(C)(C)C)C(CC(Cl)=O)C", "physical_data": {"Molecular Weight": "176.68", "Molecular Formula": "C9H17ClO", "Boiling Point": "188-190 \u00b0C @ Press: 760 Torr"}}