{"cas_no": "36734-19-7", "cn_name": "\u5f02\u83cc\u8132", "en_name": ["Iprodione", "1-Imidazolidinecarboxamide, 3-(3,5-dichlorophenyl)-N-(1-methylethyl)-2,4-dioxo-", "3-(3,5-Dichlorophenyl)-N-(1-methylethyl)-2,4-dioxo-1-imidazolidinecarboxamide", "RP 26019", "Rovral", "Glycophen", "LFA 2043", "Glycophene", "Promidione", "Iprodione", "Chipco 26019", "Iprodial", "Rovral Flo", "Verisan", "Rovral 50WP", "Rovral PM", "Quintalic", "Rovral Green GT", "Xiuan", "Kidan", "Iprodin", "Rovral 500 Aqua", "Rovral Flo 255SC", "Rovral Aquaflo", "Civet", "Junheling", "Yijunniao", "Botrix"], "SMILES": "O=C1N(C2=CC(Cl)=CC(Cl)=C2)C(=O)CN1C(NC(C)C)=O", "physical_data": {"Molecular Weight": "330.17", "Molecular Formula": "C13H13Cl2N3O3", "Melting Point": "~136 \u00b0C (approx)"}}