{"cas_no": "36735-22-5", "cn_name": "\u5938\u897f\u6cee", "en_name": ["Quazepam", "2H-1,4-Benzodiazepine-2-thione, 7-chloro-5-(2-fluorophenyl)-1,3-dihydro-1-(2,2,2-trifluoroethyl)-", "7-Chloro-5-(2-fluorophenyl)-1,3-dihydro-1-(2,2,2-trifluoroethyl)-2H-1,4-benzodiazepine-2-thione", "7-Chloro-1-(2,2,2-trifluoroethyl)-1,3-dihydro-5-(o-fluorophenyl)-2H-1,4-benzodiazepine-2-thione", "7-Chloro-1-(2,2,2-trifluoroethyl)-1,3-dihydro-5-(2-fluorophenyl)-2H-1,4-benzodiazepine-2-thione", "Quazepam", "Sch 16134", "Oniria", "Selepam", "Prosedar", "Dormalin", "Quazium", "Doral", "NSC 309702"], "SMILES": "C(C(F)(F)F)N1C=2C(C(=NCC1=S)C3=C(F)C=CC=C3)=CC(Cl)=CC2", "physical_data": {"Molecular Weight": "386.79", "Molecular Formula": "C17H11ClF4N2S", "Melting Point": "137.5-139 \u00b0C"}}