{"cas_no": "3674-54-2", "cn_name": "\u786b\u6c30\u9178\u56db\u4e01\u57fa\u94f5", "en_name": ["1-Butanaminium, N,N,N-tributyl-, thiocyanate (1:1)", "1-Butanaminium, N,N,N-tributyl-, thiocyanate (1:1)", "Ammonium, tetrabutyl-, thiocyanate", "1-Butanaminium, N,N,N-tributyl-, thiocyanate", "Tetrabutylammonium thiocyanate", "Tetrabutylammonium rhodanide", "Tetrabutylammonium isothiocyanide", "Tetrabutylammonium isothiocyanate", "Tetra-n-butylammonium thiocyanate"], "SMILES": "C(#N)[S-].[N+](CCCC)(CCCC)(CCCC)CCCC", "physical_data": {"Molecular Weight": "", "Molecular Formula": "C16H36N.CNS", "Melting Point": "119-120 \u00b0C"}}