{"cas_no": "3674-09-7", "cn_name": "2,3-\u4e8c\u6c2f\u4e19\u9178\u7532\u916f", "en_name": ["Propanoic acid, 2,3-dichloro-, methyl ester", "Propanoic acid, 2,3-dichloro-, methyl ester", "Propionic acid, 2,3-dichloro-, methyl ester", "Methyl \u03b1,\u03b2-dichloropropionate", "Methyl 2,3-dichloropropionate", "Methyl 2,3-dichloropropanoate", "2,3-Dichloropropanoic acid methyl ester", "2,3-Dichloropropionic acid methyl ester", "NSC 67382", "NSC 9373"], "SMILES": "C(C(OC)=O)(CCl)Cl", "physical_data": {"Molecular Weight": "157.00", "Molecular Formula": "C4H6Cl2O2", "Boiling Point": "92 \u00b0C @ Press: 50 Torr", "Density": "1.3282 g/cm\u00b3 @ Temp: 20 \u00b0C"}}