{"cas_no": "3674-06-4", "cn_name": "Boc-L-\u82ef\u4e19\u6c28\u9178N-\u7f9f\u57fa\u916f", "en_name": ["N-tert-Butyloxycarbonyl-L-phenylalanine N-hydroxysuccinimide ester", "L-Phenylalanine, N-[(1,1-dimethylethoxy)carbonyl]-, 2,5-dioxo-1-pyrrolidinyl ester", "Succinimide, N-[(N-carboxy-3-phenyl-L-alanyl)oxy]-, tert-butyl ester", "Carbamic acid, [2-[(2,5-dioxo-1-pyrrolidinyl)oxy]-2-oxo-1-(phenylmethyl)ethyl]-, 1,1-dimethylethyl ester, (S)-", "Carbamic acid, [(1S)-2-[(2,5-dioxo-1-pyrrolidinyl)oxy]-2-oxo-1-(phenylmethyl)ethyl]-, 1,1-dimethylethyl ester", "Alanine, N-carboxy-3-phenyl-, N-tert-butyl ester, succinimido deriv., L-", "N-tert-Butoxycarbonyl-L-phenylalanine N-hydroxysuccinimide ester", "N-tert-Butyloxycarbonyl-L-phenylalanine N-hydroxysuccinimide ester", "tert-Butyloxycarbonyl-(S)-phenylalanine N-hydroxysuccinimide ester", "29: PN: US20070066537 PAGE: 12 claimed protein", "Boc-L-Phe-OSu", "(2,5-Dioxopyrrolidin-1-yl) (2S)-2-[(2-methylpropan-2-yl)oxycarbonylamino]-3-phenylpropanoate"], "SMILES": "O(C(C(CC1=CC=CC=C1)NC(OC(C)(C)C)=O)=O)N2C(=O)CCC2=O", "physical_data": {"Molecular Weight": "362.38", "Molecular Formula": "C18H22N2O6", "Melting Point": "149.5-151.5 \u00b0C"}}