{"cas_no": "36748-89-7", "cn_name": "2-\u7898\u82ef\u5e76\u567b\u5429", "en_name": ["2-Iodobenzothiophene", "Benzo[b]thiophene, 2-iodo-", "2-Iodobenzo[b]thiophene", "2-Iodo-1-benzothiophene", "2-Iodobenzothiophene", "2-Iodobenzo(b)thiophene"], "SMILES": "IC1=CC=2C(S1)=CC=CC2", "physical_data": {"Molecular Weight": "260.09", "Molecular Formula": "C8H5IS", "Boiling Point": "119-120 \u00b0C @ Press: 1.6 Torr", "Melting Point": "59-62 \u00b0C"}}