{"cas_no": "3674-18-8", "cn_name": "BOC-D-PHE-OSU", "en_name": ["N-[(1,1-Dimethylethoxy)carbonyl]-D-phenylalanine 2,5-dioxo-1-pyrrolidinyl ester", "D-Phenylalanine, N-[(1,1-dimethylethoxy)carbonyl]-, 2,5-dioxo-1-pyrrolidinyl ester", "Succinimide, N-[(N-carboxy-3-phenyl-D-alanyl)oxy]-, tert-butyl ester", "Carbamic acid, [2-[(2,5-dioxo-1-pyrrolidinyl)oxy]-2-oxo-1-(phenylmethyl)ethyl]-, 1,1-dimethylethyl ester, (R)-", "Carbamic acid, [(1R)-2-[(2,5-dioxo-1-pyrrolidinyl)oxy]-2-oxo-1-(phenylmethyl)ethyl]-, 1,1-dimethylethyl ester", "N-[(1,1-Dimethylethoxy)carbonyl]-D-phenylalanine 2,5-dioxo-1-pyrrolidinyl ester", "tert-Butyloxycarbonyl-(R)-phenylalanine N-hydroxysuccinimide ester", "Boc-D-Phe-OSu"], "SMILES": "O(C(C(CC1=CC=CC=C1)NC(OC(C)(C)C)=O)=O)N2C(=O)CCC2=O", "physical_data": {"Molecular Weight": "362.38", "Molecular Formula": "C18H22N2O6", "Melting Point": "152-153 \u00b0C"}}