{"cas_no": "3674-13-3", "cn_name": "2,3-\u4e8c\u6eb4\u4e19\u9178\u4e59\u916f", "en_name": ["Ethyl 2,3-dibromopropanoate", "Propanoic acid, 2,3-dibromo-, ethyl ester", "Propionic acid, 2,3-dibromo-, ethyl ester", "Ethyl 2,3-dibromopropanoate", "Ethyl 2,3-dibromopropionate", "Ethyl \u03b1,\u03b2-dibromopropionate", "2,3-Dibromopropanoic acid ethyl ester", "NSC 60552", "2,3-Dibromopropionic acid ethyl ester", "2,3-Dibromopropionic ethyl ester"], "SMILES": "C(C(CBr)Br)(OCC)=O", "physical_data": {"Molecular Weight": "259.92", "Molecular Formula": "C5H8Br2O2", "Boiling Point": "214.5 \u00b0C", "Density": "1.7882 g/cm\u00b3 @ Temp: 0 \u00b0C"}}