{"cas_no": "3675-63-6", "cn_name": "\u6c18\u4ee3\u6eb4\u4e59\u70f7", "en_name": ["2-Bromoethane-1,1,1,2,2-d5", "Ethane-1,1,1,2,2-d5, 2-bromo-", "Ethane-d5, bromo-", "2-Bromoethane-1,1,1,2,2-d5", "Pentadeuteroethyl bromide", "Ethyl bromide-d5", "Ethyl-d5 bromide", "Perdeuterioethyl bromide", "Pentadeuterioethyl bromide", "Bromoethane-d5", "1-Bromo-1,1,2,2,2-pentadeuterioethane"], "SMILES": "C(Br)(C)([2H])[2H]", "physical_data": {"Molecular Weight": "", "Molecular Formula": "C2BrD5", "Boiling Point": "38-38.5 \u00b0C"}}