{"cas_no": "36768-62-4", "cn_name": "2,2,6,6-\u56db\u7532\u57fa\u54cc\u5576\u80fa", "en_name": ["4-Amino-2,2,6,6-tetramethylpiperidine", "4-Piperidinamine, 2,2,6,6-tetramethyl-", "2,2,6,6-Tetramethyl-4-piperidinamine", "4-Amino-2,2,6,6-tetramethylpiperidine", "2,2,6,6-Tetramethyl-4-aminopiperidine", "2,2,6,6-Tetramethyl-4-piperidylamine", "Triacetonediamine", "NSC 102510"], "SMILES": "CC1(C)NC(C)(C)CC(N)C1", "physical_data": {"Molecular Weight": "156.27", "Molecular Formula": "C9H20N2", "Boiling Point": "188.5 \u00b0C", "Melting Point": "17 \u00b0C", "Density": "0.8966 g/cm\u00b3 @ Temp: 20 \u00b0C"}}