{"cas_no": "3676-97-9", "cn_name": "\u56db\u7532\u57fa\u4e8c\u81a6\u70f7\u4e8c\u786b\u5316\u7269", "en_name": ["Tetramethylbiphosphine disulfide", "Diphosphine, 1,1,2,2-tetramethyl-, 1,2-disulfide", "Diphosphine, tetramethyl-, disulfide", "Diphosphine, tetramethyl-, 1,2-disulfide", "Tetramethylbiphosphine disulfide", "Tetramethyldiphosphoryl disulfide", "Tetramethyldiphosphine disulfide", "NSC 666477", "NSC 84363"], "SMILES": "P(P(C)(C)=S)(C)(C)=S", "physical_data": {"Molecular Weight": "186.22", "Molecular Formula": "C4H12P2S2", "Melting Point": "217 \u00b0C"}}