{"cas_no": "3676-85-5", "cn_name": "4-\u6c28\u57fa\u90bb\u82ef\u4e8c\u7532\u9170\u4e9a\u80fa", "en_name": ["4-Aminophthalimide", "1H-Isoindole-1,3(2H)-dione, 5-amino-", "Phthalimide, 4-amino-", "5-Amino-1H-isoindole-1,3(2H)-dione", "4-Aminophthalimide", "NSC 25173", "5-Amino-1,3-dioxo-2,3-dihydro-1H-isoindole", "5-Aminoisoindoline-1,3-dione", "5-Aminoisoindole-1,3-dione"], "SMILES": "O=C1C=2C(C(=O)N1)=CC=C(N)C2", "physical_data": {"Molecular Weight": "162.15", "Molecular Formula": "C8H6N2O2", "Boiling Point": "268-275 \u00b0C @ Press: 9 Torr", "Melting Point": "294 \u00b0C"}}