{"cas_no": "3676-72-0", "cn_name": "N2-\u82ef\u7532\u9170\u57fa-D-\u9e1f\u82f7", "en_name": ["N-Benzoylguanosine", "Guanosine, N-benzoyl-", "Benzamide, N-(1,6-dihydro-6-oxo-9-\u03b2-D-ribofuranosyl-9H-purin-9-yl)-", "N-Benzoylguanosine", "N2-Benzoylguanosine", "2-N-Benzoylguanosine"], "SMILES": "O=C1C2=C(N(C=N2)C3OC(CO)C(O)C3O)NC(NC(=O)C4=CC=CC=C4)=N1", "physical_data": {"Molecular Weight": "387.35", "Molecular Formula": "C17H17N5O6", "Melting Point": "252-254 \u00b0C"}}