{"cas_no": "36760-20-0", "cn_name": "3,5-\u4e8c\u6c2f-1H-\u5432\u5511", "en_name": ["3,5-Dichloro-1H-indazole", "1H-Indazole, 3,5-dichloro-", "Indazole, 3,5-dichloro-", "3,5-Dichloro-1H-indazole", "3,5-Dichloro-2H-indazole"], "SMILES": "ClC=1C=2C(=CC=C(Cl)C2)NN1", "physical_data": {"Molecular Weight": "187.03", "Molecular Formula": "C7H4Cl2N2", "Melting Point": "240 \u00b0C"}}