{"cas_no": "36770-74-8", "cn_name": "N-\u7532\u57fal-N-(3-\u6c2f\u4e19\u57fa)-3,4-\u4e8c\u7532\u6c27\u57fa\u82ef\u4e59\u80fa", "en_name": ["N-(3-Chloropropyl)-3,4-dimethoxy-N-methylbenzeneethanamine", "Benzeneethanamine, N-(3-chloropropyl)-3,4-dimethoxy-N-methyl-", "N-(3-Chloropropyl)-3,4-dimethoxy-N-methylbenzeneethanamine", "SR 45813", "N-Methyl-N-(3-chloropropyl)homoveratrylamine", "(3-Chloropropyl)[2-(3,4-dimethoxyphenyl)ethyl]methylamine"], "SMILES": "O(C)C1=C(OC)C=CC(CCN(CCCCl)C)=C1", "physical_data": {"Molecular Weight": "271.78", "Molecular Formula": "C14H22ClNO2", "Boiling Point": "69-70 \u00b0C @ Press: 5 x 10<sup>-3</sup> Torr"}}