{"cas_no": "3678-62-4", "cn_name": "2-\u6c2f-4-\u7532\u57fa\u5421\u5576", "en_name": ["2-Chloro-4-methylpyridine", "Pyridine, 2-chloro-4-methyl-", "4-Picoline, 2-chloro-", "2-Chloro-4-methylpyridine", "2-Chloro-4-picoline"], "SMILES": "CC=1C=C(Cl)N=CC1", "physical_data": {"Molecular Weight": "127.57", "Molecular Formula": "C6H6ClN", "Boiling Point": "192 \u00b0C", "Melting Point": "115 \u00b0C"}}