{"cas_no": "3678-63-5", "cn_name": "4-\u6c2f-2-\u7532\u57fa\u5421\u5576", "en_name": ["4-Chloro-2-methylpyridine", "Pyridine, 4-chloro-2-methyl-", "2-Picoline, 4-chloro-", "4-Chloro-2-methylpyridine", "4-Chloro-2-picoline", "2-Methyl-4-chloropyridine"], "SMILES": "ClC=1C=C(C)N=CC1", "physical_data": {"Molecular Weight": "127.57", "Molecular Formula": "C6H6ClN", "Boiling Point": "48.5 \u00b0C @ Press: 10 Torr"}}