{"cas_no": "3679-64-9", "cn_name": "\u6eb4\u67f3\u6c2f\u82ef\u80fa", "en_name": ["Bromosalicylchloranilide", "Benzamide, 5-bromo-N-(4-chlorophenyl)-2-hydroxy-", "Salicylanilide, 5-bromo-4\u2032-chloro-", "5-Bromo-N-(4-chlorophenyl)-2-hydroxybenzamide", "5-Bromo-4\u2032-chlorosalicylanilide", "Salifungin", "5-Bromosalicyl-4\u2032-chloranilide", "Multifungin", "Bromosalicylchloranilide", "5-Bromosalicyl-4\u2032-chloroanilide", "NSC 526297", "Clobromsalan"], "SMILES": "C(NC1=CC=C(Cl)C=C1)(=O)C2=C(O)C=CC(Br)=C2", "physical_data": {"Molecular Weight": "326.57", "Molecular Formula": "C13H9BrClNO2", "Melting Point": "238-243 \u00b0C"}}