{"cas_no": "36798-79-5", "cn_name": "\u5e03\u5c48\u55ea", "en_name": ["Budralazine", "3-Penten-2-one, 4-methyl-, 2-(1-phthalazinyl)hydrazone", "1(2H)-Phthalazinone, (1,3-dimethyl-2-butenylidene)hydrazone", "DJ 1461", "Budralazine", "Buterazine"], "SMILES": "N(N=C(C=C(C)C)C)C=1C2=C(C=NN1)C=CC=C2", "physical_data": {"Molecular Weight": "240.30", "Molecular Formula": "C14H16N4", "Melting Point": "132-133 \u00b0C"}}