{"cas_no": "36791-04-5", "cn_name": "\u5229\u5df4\u97e6\u6797", "en_name": ["Ribavirin", "1H-1,2,4-Triazole-3-carboxamide, 1-\u03b2-D-ribofuranosyl-", "1-\u03b2-D-Ribofuranosyl-1H-1,2,4-triazole-3-carboxamide", "Virazole", "1-\u03b2-D-Ribofuranosyl-1,2,4-triazole-3-carboxamide", "ICN 1229", "Ribavirin", "Viramid", "1-\u03b2-D-Ribofuranosyl-1,2,4-triazol-3-carboxyamide", "NSC 163039", "Vilona", "Ribamide", "Ribamidil", "Tribavirin", "Rebetol", "Ribavarin", "Ravanex", "Copegus", "Ribasphere", "Virizadole", "MegaRibavirin", "EBP 954", "Meduna", "Virin", "1-[(2R,3R,4S,5R)-3,4-Dihydroxy-5-(hydroxymethyl)oxolan-2-yl]-1H-1,2,4-triazole-3-carboxamide", "Cotronak", "MeSH ID: D012254"], "SMILES": "OC1C(OC(CO)C1O)N2N=C(C(N)=O)N=C2", "physical_data": {"Molecular Weight": "244.20", "Molecular Formula": "C8H12N4O5", "Melting Point": "166-168 \u00b0C"}}