{"cas_no": "368-53-6", "cn_name": "3,5-\u4e8c\u6c28\u57fa\u4e09\u6c1f\u7532\u82ef", "en_name": ["3,5-Diaminobenzotrifluoride", "1,3-Benzenediamine, 5-(trifluoromethyl)-", "Toluene-3,5-diamine, \u03b1,\u03b1,\u03b1-trifluoro-", "5-(Trifluoromethyl)-1,3-benzenediamine", "5-(Trifluoromethyl)-1,3-phenylenediamine", "3,5-Diaminobenzotrifluoride", "5-Trifluoromethyl-1,3-benzenediamine", "5-(Trifluoromethyl)-1,3-diaminobenzene", "3,5-Diamino-1-trifluoromethylbenzene", "1-Trifluoromethyl-3,5-diaminobenzene"], "SMILES": "C(F)(F)(F)C1=CC(N)=CC(N)=C1", "physical_data": {"Molecular Weight": "176.14", "Molecular Formula": "C7H7F3N2", "Melting Point": "88 \u00b0C"}}