{"cas_no": "368-88-7", "cn_name": "4-\u6c1f\u82ef\u78fa\u9178", "en_name": ["4-Fluorobenzenesulfonic acid", "Benzenesulfonic acid, 4-fluoro-", "Benzenesulfonic acid, p-fluoro-", "4-Fluorobenzenesulfonic acid", "p-Fluorobenzenesulfonic acid", "Benzene-1-fluoro-4-sulfonic acid", "p-Fluorophenylsulfonic acid", "NSC 43021"], "SMILES": "S(=O)(=O)(O)C1=CC=C(F)C=C1", "physical_data": {"Molecular Weight": "176.17", "Molecular Formula": "C6H5FO3S", "Melting Point": "87 \u00b0C"}}