{"cas_no": "368-90-1", "cn_name": "4-(\u4e09\u6c1f\u7532\u57fa)\u82ef\u80bc", "en_name": ["4-Trifluoromethylphenylhydrazine", "Hydrazine, [4-(trifluoromethyl)phenyl]-", "Hydrazine, (\u03b1,\u03b1,\u03b1-trifluoro-p-tolyl)-", "[4-(Trifluoromethyl)phenyl]hydrazine", "4-Trifluoromethylphenylhydrazine", "p-Trifluoromethylphenylhydrazine", "1-(4-Trifluoromethylphenyl)hydrazine"], "SMILES": "C(F)(F)(F)C1=CC=C(NN)C=C1", "physical_data": {"Molecular Weight": "176.14", "Molecular Formula": "C7H7F3N2", "Boiling Point": "118-122 \u00b0C @ Press: 17 Torr"}}