{"cas_no": "368-77-4", "cn_name": "\u95f4\u4e09\u6c1f\u7532\u57fa\u82ef\u8148", "en_name": ["3-(Trifluoromethyl)benzonitrile", "Benzonitrile, 3-(trifluoromethyl)-", "m-Tolunitrile, \u03b1,\u03b1,\u03b1-trifluoro-", "3-(Trifluoromethyl)benzonitrile", "m-(Trifluoromethyl)benzonitrile", "\u03b1,\u03b1,\u03b1-Trifluoro-m-tolunitrile", "m-(Trifluoromethyl)cyanobenzene", "1-Cyano-3-(trifluoromethyl)benzene", "NSC 88314"], "SMILES": "C(F)(F)(F)C1=CC(C#N)=CC=C1", "physical_data": {"Molecular Weight": "171.12", "Molecular Formula": "C8H4F3N", "Boiling Point": "189 \u00b0C", "Melting Point": "14.5 \u00b0C", "Density": "1.2821 g/cm\u00b3 @ Temp: 20 \u00b0C"}}