{"cas_no": "368-47-8", "cn_name": "\u82ef\u57fa\u4e09\u6c1f\u7845\u70f7", "en_name": ["(Trifluorosilyl)benzene", "Benzene, (trifluorosilyl)-", "Silane, trifluorophenyl-", "(Trifluorosilyl)benzene", "Phenyltrifluorosilane", "Trifluorophenylsilane", "Phenylsilane trifluoride"], "SMILES": "[Si](F)(F)(F)C1=CC=CC=C1", "physical_data": {"Molecular Weight": "162.18", "Molecular Formula": "C6H5F3Si", "Boiling Point": "101.5 \u00b0C", "Melting Point": "-18 \u00b0C", "Density": "1.216 g/cm\u00b3"}}