{"cas_no": "368-94-5", "cn_name": "\u5bf9\u4e09\u6c1f\u7532\u57fa\u82ef\u7532\u9170\u6c1f", "en_name": ["4-(Trifluoromethyl)benzoyl fluoride", "Benzoyl fluoride, 4-(trifluoromethyl)-", "p-Toluoyl fluoride, \u03b1,\u03b1,\u03b1-trifluoro-", "4-(Trifluoromethyl)benzoyl fluoride", "p-(Trifluoromethyl)benzoyl fluoride"], "SMILES": "C(F)(F)(F)C1=CC=C(C(F)=O)C=C1", "physical_data": {"Molecular Weight": "192.11", "Molecular Formula": "C8H4F4O", "Boiling Point": "156 \u00b0C"}}