{"cas_no": "368-66-1", "cn_name": "2,4,6-\u4e09(\u4e09\u6c1f\u7532\u57fa)-1,3,5-\u4e09\u55ea", "en_name": ["2,4,6-Tris(trifluoromethyl)-1,3,5-triazine", "1,3,5-Triazine, 2,4,6-tris(trifluoromethyl)-", "s-Triazine, 2,4,6-tris(trifluoromethyl)-", "2,4,6-Tris(trifluoromethyl)-1,3,5-triazine", "2,4,6-Tris(trifluoromethyl)-s-triazine"], "SMILES": "C(F)(F)(F)C=1N=C(C(F)(F)F)N=C(C(F)(F)F)N1", "physical_data": {"Molecular Weight": "285.07", "Molecular Formula": "C6F9N3", "Boiling Point": "95.5 \u00b0C", "Melting Point": "-24.8 \u00b0C", "Density": "1.5857 g/cm\u00b3 @ Temp: 26 \u00b0C"}}