{"cas_no": "368-43-4", "cn_name": "\u82ef\u78fa\u9170\u6c1f", "en_name": ["Benzenesulfonyl fluoride", "Benzenesulfonyl fluoride", "Phenylsulfonyl fluoride", "NSC 8543"], "SMILES": "S(F)(=O)(=O)C1=CC=CC=C1", "physical_data": {"Molecular Weight": "160.17", "Molecular Formula": "C6H5FO2S", "Boiling Point": "203.5 \u00b0C", "Melting Point": "87 \u00b0C", "Density": "1.3286 g/cm\u00b3 @ Temp: 20 \u00b0C"}}