{"cas_no": "368-72-9", "cn_name": "3-\u6c28\u57fa-4-\u6c2f\u82ef\u78fa\u9170\u6c1f", "en_name": ["3-Amino-4-chlorobenzenesulfonyl fluoride", "Benzenesulfonyl fluoride, 3-amino-4-chloro-", "Metanilyl fluoride, 4-chloro-", "3-Amino-4-chlorobenzenesulfonyl fluoride", "NSC 119917", "3-Amino-4-chlorobenzene-1-sulfonyl fluoride"], "SMILES": "S(F)(=O)(=O)C1=CC(N)=C(Cl)C=C1", "physical_data": {"Molecular Weight": "209.63", "Molecular Formula": "C6H5ClFNO2S", "Melting Point": "64-66 \u00b0C"}}