{"cas_no": "368-54-7", "cn_name": "4-\u7f9f\u57fa-6-(\u4e09\u6c1f\u7532\u57fa)\u5627\u5576-2-\u786b\u9187", "en_name": ["2,3-Dihydro-2-thioxo-6-(trifluoromethyl)-4(1H)-pyrimidinone", "4(1H)-Pyrimidinone, 2,3-dihydro-2-thioxo-6-(trifluoromethyl)-", "Uracil, 2-thio-6-(trifluoromethyl)-", "2,3-Dihydro-2-thioxo-6-(trifluoromethyl)-4(1H)-pyrimidinone", "6-Trifluoromethyl-2-thiouracil", "NSC 400847", "4-Hydroxy-6-(trifluoromethyl)pyrimidine-2-thiol", "2-Sulfanylidene-6-(trifluoromethyl)-1,2,3,4-tetrahydropyrimidin-4-one", "2-Sulfanyl-6-(trifluoromethyl)-3,4-dihydropyrimidin-4-one", "2-Thioxo-6-trifluoromethyl-2,3-dihydro-1H-pyrimidin-4-one", "2-Sulfanyl-6-(trifluoromethyl)pyrimidin-4-ol", "2-Sulfanylidene-6-(trifluoromethyl)-1H-pyrimidin-4-one", "2-Mercapto-6-trifluoromethyl-3H-pyrimidin-4-one", "2-Sulfanyl-6-(trifluoromethyl)-1,4-dihydropyrimidin-4-one", "2-Mercapto-6-(trifluoromethyl)pyrimidin-4-ol"], "SMILES": "C(F)(F)(F)C1=CC(=O)NC(=S)N1", "physical_data": {"Molecular Weight": "196.15", "Molecular Formula": "C5H3F3N2OS", "Melting Point": "247-249 \u00b0C"}}