{"cas_no": "368-78-5", "cn_name": "3-\u4e09\u6c1f\u7532\u57fa\u82ef\u80bc", "en_name": ["[3-(Trifluoromethyl)phenyl]hydrazine", "Hydrazine, [3-(trifluoromethyl)phenyl]-", "Hydrazine, (\u03b1,\u03b1,\u03b1-trifluoro-m-tolyl)-", "[3-(Trifluoromethyl)phenyl]hydrazine", "\u03b1,\u03b1,\u03b1-Trifluoro-m-tolylhydrazine", "3-Trifluoromethylphenyl hydrazine", "m-(Trifluoromethyl)phenylhydrazine", "NSC 157345"], "SMILES": "C(F)(F)(F)C1=CC(NN)=CC=C1", "physical_data": {"Molecular Weight": "176.14", "Molecular Formula": "C7H7F3N2", "Boiling Point": "80-83 \u00b0C @ Press: 9 Torr"}}