{"cas_no": "368-39-8", "cn_name": "\u4e09\u4e59\u57fa\u6c27\u9393\u56db\u6c1f\u787c\u9178\u76d0", "en_name": ["Triethyloxonium tetrafluoroborate", "Oxonium, triethyl-, tetrafluoroborate(1-) (1:1)", "Oxonium, triethyl-, tetrafluoroborate(1-)", "Triethyloxonium tetrafluoroborate", "Triethyloxonium fluoborate", "Borate(1-), tetrafluoro-, triethyloxonium", "Triethyloxonium fluoroborate", "Triethyloxonium tetrafluoroborate(1-)", "Boron tetrafluoride triethyloxonium", "Triethyloxonium borofluoride", "Meerwein's reagent", "Reagents, Meerwein's", "NSC 176023", "Et3OBF4"], "SMILES": "[B+3]([F-])([F-])([F-])[F-].[O+](CC)(CC)CC", "physical_data": {"Molecular Weight": "", "Molecular Formula": "C6H15O.BF4", "Melting Point": "92 \u00b0C (decomp)"}}