{"cas_no": "368-48-9", "cn_name": "2-\u4e09\u6c1f\u7532\u57fa\u5421\u5576", "en_name": ["2-(Trifluoromethyl)pyridine", "Pyridine, 2-(trifluoromethyl)-", "2-(Trifluoromethyl)pyridine"], "SMILES": "C(F)(F)(F)C1=CC=CC=N1", "physical_data": {"Molecular Weight": "147.10", "Molecular Formula": "C6H4F3N", "Boiling Point": "143.0 \u00b0C @ Press: 745.5 Torr"}}