{"cas_no": "36805-97-7", "cn_name": "N,N-\u4e8c\u7532\u57fa\u7532\u9170\u80fa\u4e8c\u53d4\u4e01\u57fa\u7f29\u919b", "en_name": ["N,N-Dimethylformamide di-tert-butyl acetal", "Methanamine, 1,1-bis(1,1-dimethylethoxy)-N,N-dimethyl-", "Trimethylamine, 1,1-di-tert-butoxy-", "1,1-Bis(1,1-dimethylethoxy)-N,N-dimethylmethanamine", "Dimethylformamide di-tert-butyl acetal", "N,N-Dimethylformamide di-tert-butyl acetal", "DMF di-tert-butyl acetal", "Di-tert-butyl dimethylformamide acetal", "Di-tert-butoxymethyldimethylamine", "N,N-DMF di-tert-butyl acetal", "1,1-Di-tert-butoxy-N,N-dimethylmethaneamine", "1,1-Di-tert-butoxy-N,N-dimethylmethanamine", "Di(tert-butoxy)(dimethylamino)methane", "1,1-Di-tert-butoxytrimethylamine", "[Bis(tert-butoxy)methyl]dimethylamine", "1,1-Ditertbutoxy-N,N-dimethyl-methanamine"], "SMILES": "C(OC(C)(C)C)(OC(C)(C)C)N(C)C", "physical_data": {"Molecular Weight": "203.32", "Molecular Formula": "C11H25NO2", "Boiling Point": "53-54 \u00b0C @ Press: 3 Torr"}}