{"cas_no": "3680-69-1", "cn_name": "4-\u6c2f\u5421\u54af\u5e76\u5627\u5576", "en_name": ["4-Chloro-7H-pyrrolo[2,3-d]pyrimidine", "7H-Pyrrolo[2,3-d]pyrimidine, 4-chloro-", "1H-Pyrrolo[2,3-d]pyrimidine, 4-chloro-", "4-Chloro-7H-pyrrolo[2,3-d]pyrimidine", "4-Chloropyrrolo[2,3-d]pyrimidine", "NSC 64952", "6-Chloro-7-deazapurine", "4-Chloro-1H-pyrrolo[2,3-d]pyrimidine", "4-Chloro-7H-pyrrolo[2,3-d]pyrimidin"], "SMILES": "ClC1=C2C(=NC=N1)NC=C2", "physical_data": {"Molecular Weight": "153.57", "Molecular Formula": "C6H4ClN3", "Melting Point": "188 \u00b0C (decomp)"}}