{"cas_no": "3680-02-2", "cn_name": "\u7532\u57fa\u4e59\u70ef\u781c", "en_name": ["Methyl vinyl sulfone", "Ethene, (methylsulfonyl)-", "Sulfone, methyl vinyl", "(Methylsulfonyl)ethene", "Methyl vinyl sulfone", "Methyl vinyl sulphone", "URI 718", "Vinyl methyl sulfone", "NSC 518304", "1-Methylsulfonylethylene", "Methanesulfonylethene", "1-Methylsulfonylethene"], "SMILES": "S(C=C)(C)(=O)=O", "physical_data": {"Molecular Weight": "106.14", "Molecular Formula": "C3H6O2S", "Boiling Point": "115-117 \u00b0C @ Press: 19 Torr", "Density": "1.2146 g/cm\u00b3 @ Temp: 20 \u00b0C"}}