{"cas_no": "3681-93-4", "cn_name": "\u7261\u8346\u7d20", "en_name": ["Vitexin", "4H-1-Benzopyran-4-one, 8-\u03b2-D-glucopyranosyl-5,7-dihydroxy-2-(4-hydroxyphenyl)-", "Vitexin", "Flavone, 8-D-glucosyl-4\u2032,5,7-trihydroxy-", "8-\u03b2-D-Glucopyranosyl-5,7-dihydroxy-2-(4-hydroxyphenyl)-4H-1-benzopyran-4-one", "Vitexine", "Apigenin 8-C-glucoside", "8-C-\u03b2-D-Glucopyranosylapigenin", "Vitexina", "Orientoside", "Flavone, 8-\u03b2-D-glucopyranosyl-4\u2032,5,7-trihydroxy-", "Isovitexin (C-8 isomer)", "Apigenin-8-C-\u03b2-D-glucopyranoside", "Apigenin 8-C-\u03b2-D-glucoside", "5,7,4\u2032-Trihydroxyflavone 8-C-\u03b2-D-glucopyranoside", "Apigenin 8-C-\u03b2-glucopyranoside", "8-C-Glucosylapigenin"], "SMILES": "OC=1C(=C2C(C(=O)C=C(O2)C3=CC=C(O)C=C3)=C(O)C1)C4OC(CO)C(O)C(O)C4O", "physical_data": {"Molecular Weight": "432.38", "Molecular Formula": "C21H20O10", "Melting Point": "263 \u00b0C"}}