{"cas_no": "3681-78-5", "cn_name": "\u6708\u6842\u9178\u4e19\u916f", "en_name": ["Propyl laurate", "Dodecanoic acid, propyl ester", "Lauric acid, propyl ester", "Propyl laurate", "Propyl dodecanoate", "NSC 42573"], "SMILES": "C(CC(OCCC)=O)CCCCCCCCC", "physical_data": {"Molecular Weight": "242.40", "Molecular Formula": "C15H30O2", "Boiling Point": "204 \u00b0C @ Press: 60 Torr"}}