{"cas_no": "3681-99-0", "cn_name": "\u845b\u6839\u7d20", "en_name": ["Puerarin", "4H-1-Benzopyran-4-one, 8-\u03b2-D-glucopyranosyl-7-hydroxy-3-(4-hydroxyphenyl)-", "Puerarin", "8-\u03b2-D-Glucopyranosyl-7-hydroxy-3-(4-hydroxyphenyl)-4H-1-benzopyran-4-one", "NPI 031G", "Kakonein", "Daidzein 8-C-glucoside"], "SMILES": "OC=1C(=C2C(C(=O)C(=CO2)C3=CC=C(O)C=C3)=CC1)C4OC(CO)C(O)C(O)C4O", "physical_data": {"Molecular Weight": "416.38", "Molecular Formula": "C21H20O9", "Melting Point": "187 \u00b0C (decomp)"}}