{"cas_no": "3681-71-8", "cn_name": "\u4e59\u9178\u53f6\u9187\u916f", "en_name": ["cis-3-Hexenyl acetate", "3-Hexen-1-ol, 1-acetate, (3Z)-", "3-Hexen-1-ol, acetate, (Z)-", "3-Hexen-1-ol, acetate, (3Z)-", "cis-3-Hexenyl acetate", "(Z)-3-Hexenyl acetate", "cis-3-Hexenyl ethanoate", "(Z)-3-Hexen-1-ol acetate", "(Z)-Hex-3-en-1-yl acetate", "cis-3-Hexenol acetate", "cis-Hex-3-en-1-yl acetate", "(Z)-3-Hexen-1-yl acetate", "(3Z)-Hexen-1-yl acetate", "3Z-Hexenyl acetate", "cis-3-Hexen-1-ol acetate", "3Z-Hexen-1-ol acetate", "Leaf acetate"], "SMILES": "C(CC=CCC)OC(C)=O", "physical_data": {"Molecular Weight": "142.20", "Molecular Formula": "C8H14O2", "Boiling Point": "198 \u00b0C"}}