{"cas_no": "36822-11-4", "cn_name": "6-\u82ef\u57fa-2-\u786b\u5c3f\u5627\u5576", "en_name": ["6-Phenyl-2-thiouracil", "4(1H)-Pyrimidinone, 2,3-dihydro-6-phenyl-2-thioxo-", "Uracil, 6-phenyl-2-thio-", "2,3-Dihydro-6-phenyl-2-thioxo-4(1H)-pyrimidinone", "6-Phenyl-2-thiouracil", "6-Phenylthiouracil", "2-Mercapto-6-phenylpyrimidin-4-ol", "Fenucil", "NSC 163991", "NSC 42600", "2-Mercapto-6-phenyl-1H-pyrimidin-4-one"], "SMILES": "O=C1C=C(NC(=S)N1)C2=CC=CC=C2", "physical_data": {"Molecular Weight": "204.25", "Molecular Formula": "C10H8N2OS", "Melting Point": "263-264.5 \u00b0C"}}