{"cas_no": "36823-84-4", "cn_name": "4-\u6b63\u620a\u6c27\u57fa\u82ef\u7532\u9170\u6c2f", "en_name": ["4-Pentyloxybenzoyl chloride", "Benzoyl chloride, 4-(pentyloxy)-", "Benzoyl chloride, p-pentyloxy-", "4-(Pentyloxy)benzoyl chloride", "4-Pentyloxybenzoyl chloride", "p-(Pentyloxy)benzoyl chloride", "p-Pentoxybenzoyl chloride", "4-(Amyloxy)benzoyl chloride", "NSC 7951", "4-Pentyloxybenzoic acid chloride"], "SMILES": "C(Cl)(=O)C1=CC=C(OCCCCC)C=C1", "physical_data": {"Molecular Weight": "226.70", "Molecular Formula": "C12H15ClO2", "Boiling Point": "198-200 \u00b0C @ Press: 30 Torr"}}