{"cas_no": "36825-36-2", "cn_name": "4-\u6c28\u57fa-3-\u6eb4\u55b9\u5549", "en_name": ["3-Bromo-4-quinolinamine", "4-Quinolinamine, 3-bromo-", "Quinoline, 4-amino-3-bromo-", "3-Bromo-4-quinolinamine", "4-Amino-3-bromoquinoline", "(3-Bromoquinolin-4-yl)amine"], "SMILES": "NC=1C2=C(N=CC1Br)C=CC=C2", "physical_data": {"Molecular Weight": "223.07", "Molecular Formula": "C9H7BrN2", "Melting Point": "202 \u00b0C"}}