{"cas_no": "36823-88-8", "cn_name": "4-(\u4e09\u6c1f\u7532\u6c27\u57fa)\u82ef(\u7532)\u9170\u6c2f", "en_name": ["4-Trifluoromethoxybenzoyl chloride", "Benzoyl chloride, 4-(trifluoromethoxy)-", "4-(Trifluoromethoxy)benzoyl chloride", "4-Trifluoromethoxybenzoyl chloride", "p-Trifluoromethoxybenzoyl chloride", "4-(Trifluoromethoxy)-1-benzenecarbonyl chloride"], "SMILES": "O(C(F)(F)F)C1=CC=C(C(Cl)=O)C=C1", "physical_data": {"Molecular Weight": "224.56", "Molecular Formula": "C8H4ClF3O2", "Boiling Point": "85-86 \u00b0C @ Press: 17 Torr"}}