{"cas_no": "3682-35-7", "cn_name": "2,4,6-\u4e09(2-\u5421\u5576\u57fa)\u4e09\u55ea", "en_name": ["2,4,6-Tris(2\u2032-pyridyl)-1,3,5-triazine", "1,3,5-Triazine, 2,4,6-tri-2-pyridinyl-", "s-Triazine, 2,4,6-tri-2-pyridinyl-", "2,4,6-Tri-2-pyridinyl-1,3,5-triazine", "2,4,6-Tri(2\u2032-pyridyl)-s-triazine", "Tri-2-pyridyl-s-triazine", "2,4,6-Tripyridyl-1,3,5-triazine", "2,4,6-Tris(2-pyridyl)-s-triazine", "2,4,6-Tris(2-pyridyl)-1,3,5-triazine", "2,4,6-Tripyridyl-s-triazine", "TPTZ (iron reagent)", "2,4,6-Tri-2-pyridyl-1,3,5-triazine", "2,4,6-Tri-2-pyridyl-s-triazine", "TPTZ", "Tri(2-pyridinyl)-s-triazine", "2,4,6-(2-Pyridinyl)-s-triazine", "NSC 112125", "2,4,6-Tri-\u03b1-pyridyl-1,3,5-triazine", "2,4,6-Tris(2\u2032-pyridyl)-1,3,5-triazine", "2,4,6-Tris(2-pyridiyl)-s-triazine", "2,4,6-Tri(pyridin-2-yl)-1,3,5-s-triazine"], "SMILES": "C=1(N=C(N=C(N1)C2=CC=CC=N2)C3=CC=CC=N3)C4=CC=CC=N4", "physical_data": {"Molecular Weight": "312.33", "Molecular Formula": "C18H12N6", "Melting Point": "210 \u00b0C"}}