{"cas_no": "3682-15-3", "cn_name": "3-\u785d\u57fa\u90bb\u82ef\u4e8c\u7532\u9170\u80bc", "en_name": ["5-Nitrophthalhydrazide", "1,4-Phthalazinedione, 2,3-dihydro-5-nitro-", "2,3-Dihydro-5-nitro-1,4-phthalazinedione", "5-Nitro-2,3-dihydro-1,4-phthalazinedione", "5-Nitrophthalhydrazide", "NSC 942"], "SMILES": "N(=O)(=O)C1=C2C(C(=O)NNC2=O)=CC=C1", "physical_data": {"Molecular Weight": "207.14", "Molecular Formula": "C8H5N3O4", "Melting Point": "&gt;320 \u00b0C"}}