{"cas_no": "36838-71-8", "cn_name": "4-\u4e9a\u7532\u57fa\u56db\u6c22-2H-\u5421\u5583", "en_name": ["Tetrahydro-4-methylene-2H-pyran", "2H-Pyran, tetrahydro-4-methylene-", "Pyran, tetrahydro-4-methylene-", "Tetrahydro-4-methylene-2H-pyran", "4-Methylenetetrahydropyran", "Tetrahydro-4-methylenepyran", "4-Methylenetetrahydro-2H-pyran"], "SMILES": "C=C1CCOCC1", "physical_data": {"Molecular Weight": "98.14", "Molecular Formula": "C6H10O", "Boiling Point": "109 \u00b0C", "Density": "0.901 g/cm\u00b3 @ Temp: 20 \u00b0C"}}