{"cas_no": "36840-85-4", "cn_name": "1,5-\u620a\u4e8c\u9187\u4e8c\u4e19\u70ef\u9178\u916f", "en_name": ["1,1\u2032-(1,5-Pentanediyl) di-2-propenoate", "2-Propenoic acid, 1,1\u2032-(1,5-pentanediyl) ester", "2-Propenoic acid, 1,5-pentanediyl ester", "1,1\u2032-(1,5-Pentanediyl) di-2-propenoate", "1,5-Pentanediol diacrylate", "Pentamethylene diacrylate", "1,5-Pentamethylene diacrylate", "1,5-Pentanediyl bisacrylate"], "SMILES": "C(OCCCCCOC(C=C)=O)(C=C)=O", "physical_data": {"Molecular Weight": "212.24", "Molecular Formula": "C11H16O4", "Boiling Point": "90-95 \u00b0C @ Press: 0.1 Torr"}}