{"cas_no": "36847-51-5", "cn_name": "2,4-\u4e8c\u6eb4\u4e01\u9178\u4e59\u916f", "en_name": ["Butanoic acid, 2,4-dibromo-, ethyl ester", "Butanoic acid, 2,4-dibromo-, ethyl ester", "Butyric acid, 2,4-dibromo-, ethyl ester", "Ethyl 2,4-dibromobutyrate", "Ethyl \u03b1,\u03b3-dibromobutyrate", "Ethyl 2,4-dibromobutanoate", "NSC 60691"], "SMILES": "C(C(OCC)=O)(CCBr)Br", "physical_data": {"Molecular Weight": "273.95", "Molecular Formula": "C6H10Br2O2", "Boiling Point": "149-150 \u00b0C @ Press: 52 Torr", "Density": "1.6871 g/cm\u00b3 @ Temp: 20 \u00b0C"}}