{"cas_no": "3685-27-6", "cn_name": "\u53cd-4-(\u7f9f\u7532\u57fa)\u73af\u5df1\u9187", "en_name": ["trans-4-Hydroxycyclohexanemethanol", "Cyclohexanemethanol, 4-hydroxy-, trans-", "trans-4-Hydroxycyclohexanemethanol", "trans-4-(Hydroxymethyl)cyclohexanol"], "SMILES": "C(O)C1CCC(O)CC1", "physical_data": {"Molecular Weight": "130.18", "Molecular Formula": "C7H14O2", "Melting Point": "103 \u00b0C"}}