{"cas_no": "3685-26-5", "cn_name": "\u53cd\u5f0f-4-\u7f9f\u57fa\u73af\u5df1\u70f7\u7fa7\u9178", "en_name": ["trans-4-Hydroxycyclohexanecarboxylic acid", "Cyclohexanecarboxylic acid, 4-hydroxy-, trans-", "trans-4-Hydroxycyclohexanecarboxylic acid", "trans-4-Hydroxycyclohexylcarboxylic acid", "(1r,2r)-4-Hydroxycyclohexan-1-carboxylic acid"], "SMILES": "C(O)(=O)C1CCC(O)CC1", "physical_data": {"Molecular Weight": "144.17", "Molecular Formula": "C7H12O3", "Melting Point": "120 \u00b0C"}}