{"cas_no": "36854-57-6", "cn_name": "2-\u82ef\u57fa\u4e01\u9170\u6c2f", "en_name": ["\u03b1-Ethylbenzeneacetyl chloride", "Benzeneacetyl chloride, \u03b1-ethyl-", "Butyryl chloride, 2-phenyl-", "\u03b1-Ethylbenzeneacetyl chloride", "\u03b1-Phenylbutyryl chloride", "2-Phenylbutyryl chloride", "(\u00b1)-\u03b1-Phenylbutyryl chloride", "(\u00b1)-2-Phenylbutyric chloride", "2-Phenylbutanoyl chloride", "NSC 86133"], "SMILES": "C(C(Cl)=O)(CC)C1=CC=CC=C1", "physical_data": {"Molecular Weight": "182.65", "Molecular Formula": "C10H11ClO", "Boiling Point": "122-125 \u00b0C @ Press: 20 Torr", "Melting Point": "178-180 \u00b0C"}}