{"cas_no": "3685-84-5", "cn_name": "\u76d0\u9178\u7532\u6c2f\u82ac\u916f", "en_name": ["Centrophenoxine", "Acetic acid, 2-(4-chlorophenoxy)-, 2-(dimethylamino)ethyl ester, hydrochloride (1:1)", "Acetic acid, (p-chlorophenoxy)-, 2-(dimethylamino)ethyl ester hydrochloride", "Acetic acid, (4-chlorophenoxy)-, 2-(dimethylamino)ethyl ester, hydrochloride", "Dimethylaminoethyl 4-chlorophenoxyacetate hydrochloride", "Acephen", "Centrophenoxine hydrochloride", "Lucidryl hydrochloride", "Meclofenoxate hydrochloride", "Centrophenoxine", "2-(Dimethylamino)ethyl (p-chlorophenoxy)acetate hydrochloride", "Meclophenoxate hydrochloride", "Acefen", "Lucidril", "Cerutil", "Dimethylaminoethyl p-chlorophenoxyacetate hydrochloride", "Helfergin", "Marucotol", "Methocynal", "Cellative", "Proserout", "Brenal", "(4-Chlorophenoxy)-2-acetoxyethyldimethylammonium hydrochloride", "2-(Dimethylamino)ethyl 2-(4-chlorophenoxy)acetate hydrochloride"], "SMILES": "O(CC(OCCN(C)C)=O)C1=CC=C(Cl)C=C1.Cl", "physical_data": {"Molecular Weight": "", "Molecular Formula": "C12H16ClNO3.ClH", "Melting Point": "135-139 \u00b0C"}}