{"cas_no": "36865-41-5", "cn_name": "3-\u6eb4\u4e19\u57fa\u7532\u57fa\u919a", "en_name": ["1-Bromo-3-methoxypropane", "Propane, 1-bromo-3-methoxy-", "Ether, 3-bromopropyl methyl", "1-Bromo-3-methoxypropane", "3-Methoxy-1-bromopropane", "3-Methoxypropyl bromide", "3-Bromopropyl methyl ether", "3-Bromo-1-methoxypropane", "1-Methoxy-3-bromopropane"], "SMILES": "C(COC)CBr", "physical_data": {"Molecular Weight": "153.02", "Molecular Formula": "C4H9BrO", "Boiling Point": "132-133 \u00b0C", "Density": "1.3592 g/cm\u00b3 @ Temp: 20 \u00b0C"}}