{"cas_no": "3686-55-3", "cn_name": "2-\u4e59\u6c27\u57fa\u82ef\u7532\u9178\u7532\u916f", "en_name": ["Methyl 2-ethoxybenzoate", "Benzoic acid, 2-ethoxy-, methyl ester", "Benzoic acid, o-ethoxy-, methyl ester", "Methyl 2-ethoxybenzoate", "Methyl o-ethoxybenzoate", "R 172", "NSC 406652", "2-Ethoxy-benzoic acid methyl ester"], "SMILES": "O(CC)C1=C(C(OC)=O)C=CC=C1", "physical_data": {"Molecular Weight": "180.20", "Molecular Formula": "C10H12O3", "Boiling Point": "120-121 \u00b0C @ Press: 5 Torr", "Density": "1.1535 g/cm\u00b3 @ Temp: 20 \u00b0C"}}