{"cas_no": "36861-47-9", "cn_name": "3-(4-\u7532\u57fa\u82ef\u4e9a\u7532\u57fa)\u6a1f\u8111", "en_name": ["3-(4\u2032-Methylbenzylidene)camphor", "Bicyclo[2.2.1]heptan-2-one, 1,7,7-trimethyl-3-[(4-methylphenyl)methylene]-", "Bicyclo[2.2.1]heptan-2-one, 1,7,7-trimethyl-3-[(4-methylphenyl)methylene]-, (\u00b1)-", "1,7,7-Trimethyl-3-[(4-methylphenyl)methylene]bicyclo[2.2.1]heptan-2-one", "3-(4-Methylbenzylidene)-DL-camphor", "3-(p-Methylbenzylidene)-DL-camphor", "Eusolex 6300", "3-(4-Methylbenzylidene)camphor", "3-(p-Methylbenzylidene)camphor", "p-Methylbenzylidenecamphor", "1,7,7-Trimethyl-3-(4-methylbenzylidene)bicyclo[2.2.1]heptan-2-one", "4-Methylbenzylidenecamphor", "3-(4\u2032-Methylbenzylidene)camphor", "Parsol 5000", "3-(4-Methylbenzylidene)bornan-2-one", "Enzacamene", "Neo Heliopan MBC", "Uvinul MBC 95", "Methylbenzylidenecamphor", "Parsol 500", "3-(4-Methylbenzylidene)-dl-camphor", "4-MBC"], "SMILES": "CC12C(C)(C)C(C(=CC3=CC=C(C)C=C3)C1=O)CC2", "physical_data": {"Molecular Weight": "254.37", "Molecular Formula": "C18H22O", "Boiling Point": "198-200 \u00b0C", "Melting Point": "-25 \u00b0C"}}