{"cas_no": "3687-45-4", "cn_name": "(Z)-9-\u5341\u516b\u70ef\u9178-(Z)-9-\u5341\u516b\u70ef\u916f", "en_name": ["Oleyl oleate", "9-Octadecenoic acid (9Z)-, (9Z)-9-octadecen-1-yl ester", "9-Octadecenoic acid (Z)-, 9-octadecenyl ester, (Z)-", "Oleic acid, (Z)-9-octadecenyl ester", "Oleic acid, cis-9-octadecenyl ester", "Oleic acid, 9-octadecenyl ester", "9-Octadecenoic acid (9Z)-, (9Z)-9-octadecenyl ester", "9-Octadecen-1-ol, oleate, (Z)-", "Cetiol", "Oleyl oleate", "Oleic acid oleyl ester", "Cosmol liquid", "Exceparl OL-OL", "Crodamol OO-V", "Schercemol OLO"], "SMILES": "O(C(CCCCCCCC=CCCCCCCCC)=O)CCCCCCCCC=CCCCCCCCC", "physical_data": {"Molecular Weight": "532.92", "Molecular Formula": "C36H68O2", "Melting Point": "-7.1 \u00b0C", "Density": "0.8600 g/cm\u00b3 @ Temp: 30 \u00b0C"}}