{"cas_no": "3687-18-1", "cn_name": "3-\u6c28\u57fa\u4e19\u70f7\u78fa\u9178", "en_name": ["3-Aminopropanesulfonic acid", "1-Propanesulfonic acid, 3-amino-", "3-Amino-1-propanesulfonic acid", "3-Aminopropanesulfonic acid", "Homotaurine", "\u03b3-Aminopropylsulfonic acid", "3-Aminopropiosulfonic acid", "3-Sulfopropylamine", "3-Amino-1-propanesulfonate", "NSC 77071", "NC 758", "Tramiprosate", "Alzhemed", "3-Azaniumylpropane-1-sulfonate"], "SMILES": "C(S(=O)(=O)O)CCN", "physical_data": {"Molecular Weight": "139.17", "Molecular Formula": "C3H9NO3S", "Melting Point": "292 \u00b0C"}}