{"cas_no": "3687-46-5", "cn_name": "\u7678\u57fa\u6cb9\u9178\u916f", "en_name": ["Decyl oleate", "9-Octadecenoic acid (9Z)-, decyl ester", "Oleic acid, decyl ester", "9-Octadecenoic acid (Z)-, decyl ester", "Cetiol V", "Decyl oleate", "Ceraphyl 140", "Standamul CTV", "Oleic acid n-decyl ester", "Tegosoft DO", "Estol DCO 3662", "Saboderm DO", "Decyl cis-9-octadecenoate", "Cetiol V-PH", "Kollicream DO", "Decyl cis-9-octadecenoate"], "SMILES": "C(CCCCCCCC=CCCCCCCCC)(OCCCCCCCCCC)=O", "physical_data": {"Molecular Weight": "422.73", "Molecular Formula": "C28H54O2", "Melting Point": "2.8 \u00b0C", "Density": "0.862 g/cm\u00b3 @ Temp: 20 \u00b0C"}}