{"cas_no": "36887-04-4", "cn_name": "\u7518\u6cb9\u5355\u7532\u919a", "en_name": ["3-Methoxy-1,2-propanediol", "1,2-Propanediol, 3-methoxy-", "3-Methoxy-1,2-propanediol", "Glycerin-\u03b1-monomethyl ether", "Glycerol 1-monomethyl ether", "NSC 6752", "3-Methoxy-1,2-dihydroxypropane", "1-Methoxy-2,3-propanediol"], "SMILES": "C(COC)(CO)O", "physical_data": {"Molecular Weight": "106.12", "Molecular Formula": "C4H10O3", "Boiling Point": "220 \u00b0C", "Density": "1.1197 g/cm\u00b3 @ Temp: 17 \u00b0C"}}