{"cas_no": "36886-76-7", "cn_name": "3',6'-\u4e8c\u7532\u6c27\u57fa\u8367\u70f7", "en_name": ["3\u2032,6\u2032-Dimethoxyspiro[isobenzofuran-1(3H),9\u2032-[9H]xanthen]-3-one", "Spiro[isobenzofuran-1(3H),9\u2032-[9H]xanthen]-3-one, 3\u2032,6\u2032-dimethoxy-", "3\u2032,6\u2032-Dimethoxyspiro[isobenzofuran-1(3H),9\u2032-[9H]xanthen]-3-one", "3\u2032,6\u2032-Dimethoxyfluoran", "Yellow Y 1", "3\u2032,6\u2032-Dimethoxy-3H-spiro[isobenzofuran-1,9\u2032-xanthen]-3-one"], "SMILES": "O=C1OC2(C=3C(OC=4C2=CC=C(OC)C4)=CC(OC)=CC3)C=5C1=CC=CC5", "physical_data": {"Molecular Weight": "360.36", "Molecular Formula": "C22H16O5", "Melting Point": "198 \u00b0C"}}