{"cas_no": "368869-86-7", "cn_name": "1-(4-\u7898\u82ef\u57fa)-1H-\u5421\u5511", "en_name": ["1-(4-Iodophenyl)-1H-pyrazole", "1H-Pyrazole, 1-(4-iodophenyl)-", "1-(4-Iodophenyl)-1H-pyrazole", "1-(4-Iodophenyl)pyrazole"], "SMILES": "IC1=CC=C(C=C1)N2C=CC=N2", "physical_data": {"Molecular Weight": "270.07", "Molecular Formula": "C9H7IN2", "Melting Point": "90-91 \u00b0C"}}