{"cas_no": "36880-33-8", "cn_name": "5-\u4e59\u57fa\u567b\u5429-2-\u7532\u919b", "en_name": ["5-Ethyl-2-thiophenecarboxaldehyde", "2-Thiophenecarboxaldehyde, 5-ethyl-", "5-Ethyl-2-thiophenecarboxaldehyde", "5-Ethylthiophene-2-carbaldehyde"], "SMILES": "C(C)C=1SC(C=O)=CC1", "physical_data": {"Molecular Weight": "140.20", "Molecular Formula": "C7H8OS", "Boiling Point": "117-119 \u00b0C @ Press: 18 Torr", "Density": "1.117 g/cm\u00b3 @ Temp: 419 \u00b0C"}}