{"cas_no": "36881-42-2", "cn_name": "1-(\u6eb4\u7532\u57fa)-4-\u82ef\u6c27\u57fa\u82ef", "en_name": ["1-(Bromomethyl)-4-phenoxybenzene", "Benzene, 1-(bromomethyl)-4-phenoxy-", "Ether, \u03b1-bromo-p-tolyl phenyl", "1-(Bromomethyl)-4-phenoxybenzene", "p-Phenoxybenzyl bromide", "4-(Bromomethyl)diphenyl ether", "1-Bromomethyl-4-phenoxybenzene", "4-Phenoxybenzyl bromide"], "SMILES": "O(C1=CC=C(CBr)C=C1)C2=CC=CC=C2", "physical_data": {"Molecular Weight": "263.13", "Molecular Formula": "C13H11BrO", "Boiling Point": "157-160 \u00b0C @ Press: 6 Torr"}}