{"cas_no": "3689-24-5", "cn_name": "\u6cbb\u879f\u78f7", "en_name": ["Sulfotep", "Thiodiphosphoric acid ([(HO)2P(S)]2O), OP,OP,OP\u2032,OP\u2032-tetraethyl ester", "Thiopyrophosphoric acid ([(HO)2PS]2O), tetraethyl ester", "Thiodiphosphoric acid ([(HO)2P(S)]2O), tetraethyl ester", "ASP 47", "E 393", "Dithiofos", "Dithiophos", "Dithiotep", "Sulfotep", "Sulfotepp", "TEDTP", "O,O,O,O-Tetraethyl dithiopyrophosphate", "Thiotepp", "Ethyl thiopyrophosphate ([(EtO)2PS]2O)", "Dithione", "Bladafum", "Dithion", "TEDP", "Plantfume 103", "Fulex", "NSC 66403", "O,O,O\u2032,O\u2032-Tetraethyl dithiopyrophosphate"], "SMILES": "O(P(OCC)(OCC)=S)P(OCC)(OCC)=S", "physical_data": {"Molecular Weight": "322.32", "Molecular Formula": "C8H20O5P2S2", "Boiling Point": "136-139 \u00b0C @ Press: 2 Torr", "Melting Point": "&lt;25 \u00b0C", "Density": "1.196 g/cm\u00b3 @ Temp: 25 \u00b0C"}}