{"cas_no": "36897-94-6", "cn_name": "\u53cc\u73af[2.2.1]-5-\u5e9a\u70ef-2,3-\u4e8c\u7fa7\u9178 \u5355\u7532\u919a", "en_name": ["2-Methyl bicyclo[2.2.1]hept-5-ene-2,3-dicarboxylate", "Bicyclo[2.2.1]hept-5-ene-2,3-dicarboxylic acid, 2-methyl ester", "Bicyclo[2.2.1]hept-5-ene-2,3-dicarboxylic acid, monomethyl ester", "5-Norbornene-2,3-dicarboxylic acid, methyl ester", "2-Methyl bicyclo[2.2.1]hept-5-ene-2,3-dicarboxylate", "Methyl 5-norbornene-2,3-dicarboxylate", "5-Norbornene-2,3-dicarboxylic acid monomethyl ester", "Nadic acid monomethyl ester", "NSC 168053", "3-Methoxycarbonylbicyclo[2.2.1]hept-5-ene-2-carboxylic acid"], "SMILES": "C(OC)(=O)C1C(C(O)=O)C2CC1C=C2", "physical_data": {"Molecular Weight": "196.20", "Molecular Formula": "C10H12O4", "Melting Point": "96.4-98.2 \u00b0C"}}