{"cas_no": "3689-50-7", "cn_name": "\u53cc\u6c27\u5f02\u4e01\u55ea", "en_name": ["(\u00b1)-Oxomemazine", "10H-Phenothiazine-10-propanamine, N,N,\u03b2-trimethyl-, 5,5-dioxide", "Phenothiazine, 10-[3-(dimethylamino)-2-methylpropyl]-, 5,5-dioxide", "6487 RP", "6847 RP", "Doxergan", "Dysedon", "Oxomemazine", "Trimeprazine 5,5-dioxide", "Oxomemazin", "(\u00b1)-Oxomemazine", "RP 6847", "Imakol", "Oplex", "EXE-TOP"], "SMILES": "C(C(CN(C)C)C)N1C=2C(S(=O)(=O)C=3C1=CC=CC3)=CC=CC2", "physical_data": {"Molecular Weight": "330.44", "Molecular Formula": "C18H22N2O2S", "Melting Point": "115 \u00b0C"}}