{"cas_no": "36894-69-6", "cn_name": "\u62c9\u8d1d\u6d1b\u5c14", "en_name": ["Labetalol", "Benzamide, 2-hydroxy-5-[1-hydroxy-2-[(1-methyl-3-phenylpropyl)amino]ethyl]-", "2-Hydroxy-5-[1-hydroxy-2-[(1-methyl-3-phenylpropyl)amino]ethyl]benzamide", "AH 5158", "Labetalol", "Albetol", "Ibidomide", "(\u00b1)-Labetalol", "2-Hydroxy-5-[1-hydroxy-2-(4-phenylbutan-2-ylamino)ethyl]benzamide", "2-Hydroxy-5-(1-hydroxy-2-((4-phenylbutan-2-yl)amino)ethyl)benzamide", "MeSH ID: D007741"], "SMILES": "C(CNC(CCC1=CC=CC=C1)C)(O)C2=CC(C(N)=O)=C(O)C=C2", "physical_data": {"Molecular Weight": "328.41", "Molecular Formula": "C19H24N2O3", "Melting Point": "188 \u00b0C"}}