{"cas_no": "369-30-2", "cn_name": "3-\u6c1f-4-\u7532\u6c27\u57fa\u82ef\u7532\u9178\u7532\u916f", "en_name": ["Benzoic acid, 3-fluoro-4-methoxy-, methyl ester", "Benzoic acid, 3-fluoro-4-methoxy-, methyl ester", "p-Anisic acid, 3-fluoro-, methyl ester", "Methyl 3-fluoro-4-methoxybenzoate", "Methyl 3-fluoro-4-(methyloxy)benzoate"], "SMILES": "C(OC)(=O)C1=CC(F)=C(OC)C=C1", "physical_data": {"Molecular Weight": "184.16", "Molecular Formula": "C9H9FO3", "Boiling Point": "116 \u00b0C @ Press: 5 Torr", "Melting Point": "70-71 \u00b0C"}}