{"cas_no": "369-26-6", "cn_name": "3-\u6c28\u57fa-4-\u6c1f\u82ef\u7532\u9178\u7532\u916f", "en_name": ["Benzoic acid, 3-amino-4-fluoro-, methyl ester", "Benzoic acid, 3-amino-4-fluoro-, methyl ester", "3-Amino-4-fluorobenzoic acid methyl ester", "Methyl 3-amino-4-fluorobenzoate"], "SMILES": "C(OC)(=O)C1=CC(N)=C(F)C=C1", "physical_data": {"Molecular Weight": "169.15", "Molecular Formula": "C8H8FNO2", "Melting Point": "105-107 \u00b0C"}}