{"cas_no": "369-35-7", "cn_name": "2-\u6c1f-4-\u785d\u57fa\u82ef\u80fa", "en_name": ["2-Fluoro-4-nitrobenzenamine", "Benzenamine, 2-fluoro-4-nitro-", "Aniline, 2-fluoro-4-nitro-", "2-Fluoro-4-nitrobenzenamine", "2-Fluoro-4-nitroaniline", "NSC 402982", "(2-Fluoro-4-nitrophenyl)amine", "4-Nitro-2-fluoroaniline"], "SMILES": "N(=O)(=O)C1=CC(F)=C(N)C=C1", "physical_data": {"Molecular Weight": "156.11", "Molecular Formula": "C6H5FN2O2", "Melting Point": "135-136 \u00b0C"}}