{"cas_no": "369-07-3", "cn_name": "2-\u785d\u57fa\u82ef-beta-D-\u534a\u4e73\u7cd6\u82f7", "en_name": ["o-Nitrophenyl \u03b2-D-galactopyranoside", "\u03b2-D-Galactopyranoside, 2-nitrophenyl", "Galactopyranoside, o-nitrophenyl, \u03b2-D-", "2-Nitrophenyl \u03b2-D-galactopyranoside", "o-Nitrophenyl \u03b2-D-galactopyranoside", "o-Nitrophenyl \u03b2-galactoside", "o-Nitrophenyl \u03b2-D-galactoside", "o-Nitrophenyl-\u03b2-galactopyranoside", "o-Nitrophenol \u03b2-D-galactopyranoside", "ONPG", "NSC 83631", "o-NPG", "2-Nitrophenyl \u03b2-D-galactoside"], "SMILES": "O(C1OC(CO)C(O)C(O)C1O)C2=C(N(=O)=O)C=CC=C2", "physical_data": {"Molecular Weight": "301.25", "Molecular Formula": "C12H15NO8", "Melting Point": "193-194 \u00b0C"}}