{"cas_no": "369-54-0", "cn_name": "1,4-\u53cc(\u4e8c\u6c1f\u7532\u57fa)\u82ef", "en_name": ["1,4-Bis(difluoromethyl)benzene", "Benzene, 1,4-bis(difluoromethyl)-", "p-Xylene, \u03b1,\u03b1,\u03b1\u2032,\u03b1\u2032-tetrafluoro-", "1,4-Bis(difluoromethyl)benzene", "\u03b1,\u03b1,\u03b1\u2032,\u03b1\u2032-Tetrafluoro-p-xylene"], "SMILES": "C(F)(F)C1=CC=C(C(F)F)C=C1", "physical_data": {"Molecular Weight": "178.13", "Molecular Formula": "C8H6F4", "Boiling Point": "54 \u00b0C @ Press: 20 Torr", "Density": "1.312 g/cm\u00b3 @ Temp: 25 \u00b0C"}}