{"cas_no": "369-33-5", "cn_name": "3',4'-\u4e8c\u6c1f\u82ef\u4e59\u916e", "en_name": ["1-(3,4-Difluorophenyl)ethanone", "Ethanone, 1-(3,4-difluorophenyl)-", "Acetophenone, 3\u2032,4\u2032-difluoro-", "1-(3,4-Difluorophenyl)ethanone", "3\u2032,4\u2032-Difluoroacetophenone", "1-(3,4-Difluorophenyl)ethan-1-one"], "SMILES": "C(C)(=O)C1=CC(F)=C(F)C=C1", "physical_data": {"Molecular Weight": "156.13", "Molecular Formula": "C8H6F2O", "Boiling Point": "200-201 \u00b0C @ Press: 734 Torr", "Melting Point": "19.5-20 \u00b0C"}}