{"cas_no": "369-68-6", "cn_name": "3-(\u4e09\u6c1f\u7532\u786b\u57fa)\u82ef\u80fa", "en_name": ["3-[(Trifluoromethyl)thio]benzenamine", "Benzenamine, 3-[(trifluoromethyl)thio]-", "Aniline, m-[(trifluoromethyl)thio]-", "3-[(Trifluoromethyl)thio]benzenamine", "m-(Trifluoromethylthio)aniline", "3-Trifluoromethylthioaniline", "3-Aminophenyl trifluoromethyl sulfide", "(3-((Trifluoromethyl)thio)phenyl)amine", "3-(Trifluoromethylthio)benzenamine"], "SMILES": "S(C(F)(F)F)C1=CC(N)=CC=C1", "physical_data": {"Molecular Weight": "193.19", "Molecular Formula": "C7H6F3NS", "Boiling Point": "108-110 \u00b0C @ Press: 5 Torr"}}