{"cas_no": "369-36-8", "cn_name": "2-\u6c1f-5-\u785d\u57fa\u82ef\u80fa", "en_name": ["2-Fluoro-5-nitrobenzenamine", "Benzenamine, 2-fluoro-5-nitro-", "Aniline, 2-fluoro-5-nitro-", "2-Fluoro-5-nitrobenzenamine", "2-Fluoro-5-nitroaniline", "1-Amino-2-fluoro-5-nitrobenzene", "6-Fluoro-3-nitroaniline", "NSC 51768", "2-Fluoro-5-nitrophenylamine"], "SMILES": "N(=O)(=O)C1=CC(N)=C(F)C=C1", "physical_data": {"Molecular Weight": "156.11", "Molecular Formula": "C6H5FN2O2", "Melting Point": "101.5 \u00b0C"}}