{"cas_no": "369-34-6", "cn_name": "3,4-\u4e8c\u6c1f\u785d\u57fa\u82ef", "en_name": ["3,4-Difluoronitrobenzene", "Benzene, 1,2-difluoro-4-nitro-", "1,2-Difluoro-4-nitrobenzene", "3,4-Difluoronitrobenzene", "4-Nitro-1,2-difluorobenzene", "3,4-Difluoro-1-nitrobenzene"], "SMILES": "N(=O)(=O)C1=CC(F)=C(F)C=C1", "physical_data": {"Molecular Weight": "159.09", "Molecular Formula": "C6H3F2NO2", "Boiling Point": "80-81 \u00b0C @ Press: 14 Torr"}}