{"cas_no": "3690-10-6", "cn_name": "2-\u5627\u5576\u916e-B-\u6838\u7519", "en_name": ["Zebularine", "2(1H)-Pyrimidinone, 1-\u03b2-D-ribofuranosyl-", "1-\u03b2-D-Ribofuranosyl-2(1H)-pyrimidinone", "4-Deoxyuridine", "1-(\u03b2-D-Ribofuranosyl)-2-pyrimidone", "Uridine, 4-deoxy-", "Pyrimidin-2-one \u03b2-D-ribofuranoside", "1-\u03b2-D-Ribofuranosyl-2-pyrimidinone", "Zebularine", "NSC 309132", "1-(\u03b2-D-Ribofuranosyl)-1,2-dihydropyrimidin-2-one"], "SMILES": "OC1C(OC(CO)C1O)N2C(=O)N=CC=C2", "physical_data": {"Molecular Weight": "228.20", "Molecular Formula": "C9H12N2O5", "Melting Point": "183 \u00b0C"}}