{"cas_no": "3690-05-9", "cn_name": "\u5bf9\u7f9f\u57fa\u8089\u6842\u9187", "en_name": ["p-Coumaryl alcohol", "Phenol, 4-(3-hydroxy-1-propen-1-yl)-", "2-Propen-1-ol, 3-(p-hydroxyphenyl)-", "Phenol, 4-(3-hydroxy-1-propenyl)-", "4-(3-Hydroxy-1-propen-1-yl)phenol", "p-Coumaryl alcohol", "3-(p-Hydroxyphenyl)-2-propen-1-ol", "p-Coumaric alcohol", "p-Hydroxycinnamic alcohol", "p-Hydroxycinnamyl alcohol", "p-Cumaric alcohol", "4-Hydroxycinnamyl alcohol", "4-Hydroxycinnamic alcohol"], "SMILES": "C(=CCO)C1=CC=C(O)C=C1", "physical_data": {"Molecular Weight": "150.17", "Molecular Formula": "C9H10O2", "Melting Point": "124 \u00b0C"}}