{"cas_no": "36913-39-0", "cn_name": "1-\u7532\u57fa-4-\u82ef\u57fa\u5421\u5576\u9393\u7898\u5316\u7269", "en_name": ["Pyridinium, 1-methyl-4-phenyl-, iodide (1:1)", "Pyridinium, 1-methyl-4-phenyl-, iodide (1:1)", "Pyridinium, 1-methyl-4-phenyl-, iodide", "1-Methyl-4-phenylpyridinium iodide", "N-Methyl-4-phenylpyridinium iodide"], "SMILES": "C[N+]=1C=CC(=CC1)C2=CC=CC=C2.[I-]", "physical_data": {"Molecular Weight": "", "Molecular Formula": "C12H12N.I", "Melting Point": "166-168 \u00b0C"}}