{"cas_no": "36919-03-6", "cn_name": "\u4e94\u6c1f\u82ef\u57fa\u78b3\u9178\u7532\u916f", "en_name": ["Methyl 2,3,4,5,6-pentafluorophenyl carbonate", "Carbonic acid, methyl 2,3,4,5,6-pentafluorophenyl ester", "Carbonic acid, methyl pentafluorophenyl ester", "Methyl 2,3,4,5,6-pentafluorophenyl carbonate", "Methyl pentafluorophenyl carbonate"], "SMILES": "O(C(OC)=O)C1=C(F)C(F)=C(F)C(F)=C1F", "physical_data": {"Molecular Weight": "242.10", "Molecular Formula": "C8H3F5O3", "Melting Point": "31-33 \u00b0C"}}