{"cas_no": "36916-19-5", "cn_name": "5-\u6c2f-2-\uff083-\u7532\u57fa-4H-1,2,4-\u4e09\u5511\u57fa-4-\u57fa\uff09\u82ef\u7532\u916e", "en_name": ["[5-Chloro-2-(3-methyl-4H-1,2,4-triazol-4-yl)phenyl]phenylmethanone", "Methanone, [5-chloro-2-(3-methyl-4H-1,2,4-triazol-4-yl)phenyl]phenyl-", "[5-Chloro-2-(3-methyl-4H-1,2,4-triazol-4-yl)phenyl]phenylmethanone", "Benzophenone, 5-chloro-2-(3-methyl-4H-1,2,4-triazol-4-yl)-", "[5-Chloro-2-(3-methyl-1,2,4-triazol-4-yl)phenyl]-phenylmethanone"], "SMILES": "C(=O)(C1=C(C=CC(Cl)=C1)N2C(C)=NN=C2)C3=CC=CC=C3", "physical_data": {"Molecular Weight": "297.74", "Molecular Formula": "C16H12ClN3O", "Melting Point": "170-172 \u00b0C"}}