{"cas_no": "3691-35-8", "cn_name": "\u6c2f\u9f20\u916e", "en_name": ["Chlorophacinone", "1H-Indene-1,3(2H)-dione, 2-[2-(4-chlorophenyl)-2-phenylacetyl]-", "1,3-Indandione, 2-[(p-chlorophenyl)phenylacetyl]-", "1H-Indene-1,3(2H)-dione, 2-[(4-chlorophenyl)phenylacetyl]-", "2-[2-(4-Chlorophenyl)-2-phenylacetyl]-1H-indene-1,3(2H)-dione", "LM 91", "2-[2-Phenyl-2-(4-chlorophenyl)acetyl]-1,3-indandione", "Chlorophacinone", "2-Acetyl-2-(p-chlorophenyl)-2-phenylindan-1,3-dione", "Chlorphacinone", "Raticide-Caid", "2-Phenyl-p-chlorophenylacetyl-1,3-indandione", "2-[(p-Chlorophenyl)phenylacetyl]-1,3-indandione", "Drat", "Chlorphenacone", "Chlorodiphacinone", "Caid", "Ratindan 3", "Rozol", "Liphadione", "Chlorophacinon", "Redentin", "Raticide", "Kaid"], "SMILES": "C(C(=O)C1C(=O)C=2C(C1=O)=CC=CC2)(C3=CC=C(Cl)C=C3)C4=CC=CC=C4", "physical_data": {"Molecular Weight": "374.82", "Molecular Formula": "C23H15ClO3", "Melting Point": "138 \u00b0C"}}