{"cas_no": "3693-22-9", "cn_name": "2-\u6c28\u57fa\u4e8c\u82ef\u5e76\u544b\u5583", "en_name": ["2-Dibenzofuranamine", "2-Dibenzofuranamine", "2-Aminodibenzofuran", "NSC 402280", "Dibenzo[b,d]furan-2-amine"], "SMILES": "NC=1C=C2C=3C(OC2=CC1)=CC=CC3", "physical_data": {"Molecular Weight": "183.21", "Molecular Formula": "C12H9NO", "Melting Point": "125 \u00b0C"}}