{"cas_no": "3694-46-0", "cn_name": "4-\u7532\u57fa\u5f02\u786b\u6c30\u9178\u916f", "en_name": ["1-(Isothiocyanatomethyl)-4-methylbenzene", "Benzene, 1-(isothiocyanatomethyl)-4-methyl-", "Isothiocyanic acid, p-methylbenzyl ester", "1-(Isothiocyanatomethyl)-4-methylbenzene", "p-Methylbenzyl isothiocyanate", "4-Methylbenzyl isothiocyanate", "1-Isothiocyanatomethyl-4-methylbenzene", "NSC 221231"], "SMILES": "C(N=C=S)C1=CC=C(C)C=C1", "physical_data": {"Molecular Weight": "163.24", "Molecular Formula": "C9H9NS", "Boiling Point": "155 \u00b0C @ Press: 17 Torr"}}