{"cas_no": "3694-58-4", "cn_name": "\u5f02\u786b\u6c30\u91783-\u6c2f\u82c4\u916f", "en_name": ["1-Chloro-3-(isothiocyanatomethyl)benzene", "Benzene, 1-chloro-3-(isothiocyanatomethyl)-", "Isothiocyanic acid, m-chlorobenzyl ester", "Toluene, m-chloro-\u03b1-isothiocyanato-", "1-Chloro-3-(isothiocyanatomethyl)benzene", "3-Chlorobenzyl isothiocyanate", "m-Chlorobenzyl isothiocyanate"], "SMILES": "C(N=C=S)C1=CC(Cl)=CC=C1", "physical_data": {"Molecular Weight": "183.66", "Molecular Formula": "C8H6ClNS", "Boiling Point": "140-145 \u00b0C @ Press: 6 Torr", "Density": "1.201 g/cm\u00b3 @ Temp: 27 \u00b0C"}}