{"cas_no": "3694-57-3", "cn_name": "4-\u7532\u6c27\u57fa\u82c4\u57fa\u5f02\u786b\u6c30\u9178\u916f", "en_name": ["4-Methoxybenzyl isothiocyanate", "Benzene, 1-(isothiocyanatomethyl)-4-methoxy-", "Isothiocyanic acid, p-methoxybenzyl ester", "1-(Isothiocyanatomethyl)-4-methoxybenzene", "p-Methoxybenzyl isothiocyanate", "4-Methoxybenzyl isothiocyanate", "\u03b1-Isothiocyanato-p-methoxytoluene", "1-Isothiocyanatomethyl-4-methoxybenzene", "Benzenemethanamine, 4-methoxy-, sulfide"], "SMILES": "C(N=C=S)C1=CC=C(OC)C=C1", "physical_data": {"Molecular Weight": "179.24", "Molecular Formula": "C9H9NOS", "Boiling Point": "133 \u00b0C @ Press: 0.7 Torr"}}