{"cas_no": "36947-69-0", "cn_name": "2-\u53d4\u4e01\u57fa\u54aa\u5511", "en_name": ["2-(1,1-Dimethylethyl)-1H-imidazole", "1H-Imidazole, 2-(1,1-dimethylethyl)-", "2-(1,1-Dimethylethyl)-1H-imidazole", "2-tert-Butylimidazole", "2-tert-Butyl-1H-imidazole"], "SMILES": "C(C)(C)(C)C=1NC=CN1", "physical_data": {"Molecular Weight": "124.18", "Molecular Formula": "C7H12N2", "Melting Point": "176-178 \u00b0C"}}