{"cas_no": "3694-52-8", "cn_name": "3-\u785d\u57fa\u90bb\u82ef\u4e8c\u80fa", "en_name": ["3-Nitro-1,2-phenylenediamine", "1,2-Benzenediamine, 3-nitro-", "o-Phenylenediamine, 3-nitro-", "3-Nitro-1,2-benzenediamine", "3-Nitro-o-phenylenediamine", "3-Nitro-1,2-phenylenediamine", "2-Amino-6-nitroaniline", "1,2-Diamino-3-nitrobenzene", "2-Amino-3-nitroaniline", "NSC 84243", "3-Nitro-1,2-diaminobenzene"], "SMILES": "N(=O)(=O)C1=C(N)C(N)=CC=C1", "physical_data": {"Molecular Weight": "153.14", "Molecular Formula": "C6H7N3O2", "Melting Point": "157-159 \u00b0C"}}