{"cas_no": "36947-68-9", "cn_name": "2-\u5f02\u4e19\u57fa\u54aa\u5511", "en_name": ["2-Isopropylimidazole", "1H-Imidazole, 2-(1-methylethyl)-", "2-(1-Methylethyl)-1H-imidazole", "2-Isopropylimidazole", "2-Isopropyl-1H-imidazole", "2-(Propan-2-yl)-1H-imidazole", "2-Propan-2-yl-1H-imidazole"], "SMILES": "C(C)(C)C=1NC=CN1", "physical_data": {"Molecular Weight": "110.16", "Molecular Formula": "C6H10N2", "Melting Point": "130-135 \u00b0C"}}