{"cas_no": "3694-45-9", "cn_name": "4-\u6c2f\u82c4\u57fa\u786b\u6c30\u9178\u916f", "en_name": ["1-Chloro-4-(isothiocyanatomethyl)benzene", "Benzene, 1-chloro-4-(isothiocyanatomethyl)-", "Isothiocyanic acid, p-chlorobenzyl ester", "Toluene, p-chloro-\u03b1-isothiocyanato-", "1-Chloro-4-(isothiocyanatomethyl)benzene", "p-Chlorobenzyl isothiocyanate", "4-Chlorobenzyl isothiocyanate", "1-Isothiocyanatomethyl-4-chlorobenzene", "NSC 221238"], "SMILES": "C(N=C=S)C1=CC=C(Cl)C=C1", "physical_data": {"Molecular Weight": "183.66", "Molecular Formula": "C8H6ClNS", "Boiling Point": "105-108 \u00b0C @ Press: 0.35 Torr", "Density": "1.291 g/cm\u00b3 @ Temp: 20 \u00b0C"}}