{"cas_no": "3695-24-7", "cn_name": "4\uff0d\u7f9f\u57fa\uff0d3\uff0d\u7532\u6c27\u57fa\u82e6\u674f\u4ec1\u9178", "en_name": ["(\u00b1)-3-Hydroxy-4-methoxymandelic acid", "Benzeneacetic acid, \u03b1,3-dihydroxy-4-methoxy-", "Mandelic acid, 3-hydroxy-4-methoxy-", "\u03b1,3-Dihydroxy-4-methoxybenzeneacetic acid", "3-Hydroxy-4-methoxymandelic acid", "(\u00b1)-3-Hydroxy-4-methoxymandelic acid", "Isovanilmandelic acid", "(RS)-3-Hydroxy-4-methoxymandelic acid", "Isovanillyl-dl-mandelic acid", "2-Hydroxy-2-(3-hydroxy-4-methoxyphenyl)acetic acid", "2-(3\u2032-Hydroxy-4\u2032-methoxyphenyl)-2-hydroxyethanoic acid"], "SMILES": "C(C(O)=O)(O)C1=CC(O)=C(OC)C=C1", "physical_data": {"Molecular Weight": "198.17", "Molecular Formula": "C9H10O5", "Melting Point": "75 \u00b0C"}}