{"cas_no": "3695-73-6", "cn_name": "\u7518\u6c28\u9170-L-\u4e19\u6c28\u9178", "en_name": ["Glycyl-L-alanine", "L-Alanine, glycyl-", "Alanine, N-glycyl-, L-", "L-Alanine, N-glycyl-", "Glycyl-L-alanine", "Glycylalanine", "Glycine-alanine dipeptide", "N-Glycyl-L-alanine", "Glycyl-(S)-alanine", "NSC 83246", "123: PN: WO2006024694 SEQID: 123 claimed protein", "121: PN: US20070015162 SEQID: 131 claimed protein", "279: PN: US20070032414 SEQID: 279 claimed protein", "285: PN: US20070026454 SEQID: 295 claimed protein", "444: PN: US20070042361 SEQID: 454 claimed protein", "198: PN: EP2161028 PAGE: 10 claimed protein", "76: PN: WO2011084714 SEQID: 79 claimed sequence", "21: PN: WO2011146121 PAGE: 114 claimed sequence", "12: PN: WO2012061268 SEQID: 12 claimed protein", "5: PN: US20150203546 PAGE: 78 claimed sequence", "92: PN: WO2017078631 PAGE: 50 claimed protein", "(2S)-2-(2-Aminoacetamido)propanoic acid", "(2S)-2-[(2-Azaniumylacetyl)amino]propanoate", "1: PN: WO2020023418 PAGE: 66 claimed sequence", "4: PN: WO2021055880 SEQID: 4 claimed protein", "309: PN: WO2021146320 SEQID: 309 claimed protein", "72: PN: WO2021147954 SEQID: 72 claimed protein", "89: PN: WO2021164722 SEQID: 89 claimed protein", "31: PN: WO2021219786 SEQID: 31 claimed protein", "32: PN: WO2021254574 SEQID: 32 claimed protein", "92: PN: WO2022006370 SEQID: 92 claimed protein", "517: PN: WO2022056313 SEQID: 533 claimed protein", "363: PN: US20220128567 SEQID: 533 claimed protein", "1: PN: WO2022099157 PAGE: 113 claimed sequence", "103: PN: WO2022105914 SEQID: 109 claimed protein", "363: PN: US20220178935 SEQID: 533 claimed protein", "3: PN: WO2022144812 SEQID: 3 claimed protein", "67: PN: WO2022165258 SEQID: 67 claimed protein", "348: PN: WO2022177963 SEQID: 449 claimed protein", "488: PN: WO2022215055 SEQID: 488 claimed protein", "4: PN: WO2022218941 PAGE: 253 claimed sequence", "117: PN: WO2022240360 SEQID: 125 claimed protein"], "SMILES": "N(C(C(O)=O)C)C(CN)=O", "physical_data": {"Molecular Weight": "146.14", "Molecular Formula": "C5H10N2O3", "Melting Point": "228 \u00b0C (decomp)", "Density": "1.1562-1.1584 g/cm\u00b3 @ Temp: 25.00 \u00b0C"}}