{"cas_no": "36953-41-0", "cn_name": "3-\u6eb4-4-\u7f9f\u57fa\u5421\u5576", "en_name": ["3-Bromo-4-pyridinol", "4-Pyridinol, 3-bromo-", "3-Bromo-4-pyridinol", "3-Bromo-4-hydroxypyridine", "3-Bromo-1H-pyridin-4-one"], "SMILES": "BrC=1C(O)=CC=NC1", "physical_data": {"Molecular Weight": "174.00", "Molecular Formula": "C5H4BrNO", "Melting Point": "229-230 \u00b0C"}}