{"cas_no": "3695-00-9", "cn_name": "4-\u7532\u57fa-N-[(4-\u7532\u82ef\u57fa)\u78fa\u9170\u57fa]\u82ef\u78fa\u9170\u80fa", "en_name": ["4-Methyl-N-[(4-methylphenyl)sulfonyl]benzenesulfonamide", "Benzenesulfonamide, 4-methyl-N-[(4-methylphenyl)sulfonyl]-", "Di-p-toluenesulfonamide", "4-Methyl-N-[(4-methylphenyl)sulfonyl]benzenesulfonamide", "Bis(p-tolylsulfonyl)amine", "Di-p-Toluenesulfonimide", "Bis(4-methylbenzenesulfon)amine", "Ditosylamine", "Bis(4-methylbenzenesulfonyl)amine", "N-(p-Tolylsulfonyl)-p-toluenesulfonamide", "KPTSM", "NSC 1150", "Bis(p-toluenesulfonyl)amine", "N-(4-Methylphenylsulfonyl)-4-methylbenzenesulfonamide", "Ditosylimide", "Bis(4-methylbenzenesulfonyl)imide"], "SMILES": "S(NS(=O)(=O)C1=CC=C(C)C=C1)(=O)(=O)C2=CC=C(C)C=C2", "physical_data": {"Molecular Weight": "325.40", "Molecular Formula": "C14H15NO4S2", "Melting Point": "171-172 \u00b0C"}}