{"cas_no": "3695-77-0", "cn_name": "\u4e09\u82ef\u7532\u786b\u9187", "en_name": ["Triphenylmethanethiol", "Benzenemethanethiol, \u03b1,\u03b1-diphenyl-", "Methanethiol, triphenyl-", "\u03b1,\u03b1-Diphenylbenzenemethanethiol", "Tritylthiol", "Trityl mercaptan", "Triphenylmethyl mercaptan", "Triphenylmethanethiol", "Triphenylmethylthiol", "NSC 22520", "Hydrotriphenylsulfur"], "SMILES": "C(S)(C1=CC=CC=C1)(C2=CC=CC=C2)C3=CC=CC=C3", "physical_data": {"Molecular Weight": "276.40", "Molecular Formula": "C19H16S", "Melting Point": "107 \u00b0C", "Density": "1.214 g/cm\u00b3"}}