{"cas_no": "3696-28-4", "cn_name": "2,2\u2019-\u4e8c\u786b\u4ee3\u4e8c(\u5421\u5576-1-\u6c27\u5316\u7269)", "en_name": ["Dipyrithione", "Pyridine, 2,2\u2032-dithiobis-, 1,1\u2032-dioxide", "Pyridine, 2,2\u2032-dithiodi-, 1,1\u2032-dioxide", "Bis(2-pyridyl) disulfide di-N-oxide", "Dipyrithione", "2,2\u2032-Dithiodipyridine 1,1\u2032-dioxide", "Bis(2-pyridyl-N-oxide) disulfide", "2,2\u2032-Dithiobispyridine 1,1\u2032-dioxide", "Bis(N-oxido-2-pyridyl) disulfide", "Bis(2-pyridyl 1-oxide) disulfide", "2,2\u2032-Dithiobis(pyridine 1-oxide)", "Bis(2-pyridine-N-oxide)disulfide", "2,2\u2032-Dithiobis(pyridine N-oxide)", "Omadine disulfide", "(1-Oxo-2-pyridyl) disulfide", "OSY 20", "Omadine DS", "Di-2-pyridyl disulfide N,N\u2032-dioxide", "NSC 677437", "2,2\u2032-Dipyridyl disulfide bis-N-oxide", "2,2\u2032-Dipyridyl disulfide N,N\u2032-bisoxide", "OMDS", "NSC 241716", "NSC 84740", "Pyrion disulfide", "Pyrithione disulfide", "bispyrithione", "Sentex TBS", "1-Oxido-2-[(1-oxidopyridin-1-ium-2-yl)disulfanyl]pyridin-1-ium", "Bispyrithione"], "SMILES": "S(SC=1N(=O)=CC=CC1)C=2N(=O)=CC=CC2", "physical_data": {"Molecular Weight": "252.31", "Molecular Formula": "C10H8N2O2S2", "Melting Point": "205 \u00b0C"}}