{"cas_no": "3696-22-8", "cn_name": "\u5bf9\u785d\u57fa\u82ef\u57fa\u786b\u8132", "en_name": ["N-(4-Nitrophenyl)thiourea", "Thiourea, N-(4-nitrophenyl)-", "Urea, 1-(p-nitrophenyl)-2-thio-", "Thiourea, (4-nitrophenyl)-", "N-(4-Nitrophenyl)thiourea", "U 20757", "1-(4-Nitrophenyl)-2-thiourea", "(p-Nitrophenyl)thiourea", "4-Nitrophenylthiourea", "1-(4-Nitrophenyl)thiourea", "NSC 61006", "Ethanethioamide, 2-[(4-nitrophenyl)amino]-"], "SMILES": "N(C(N)=S)C1=CC=C(N(=O)=O)C=C1", "physical_data": {"Molecular Weight": "197.21", "Molecular Formula": "C7H7N3O2S", "Melting Point": "189-190 \u00b0C"}}