{"cas_no": "36961-64-5", "cn_name": "2-(2-\u6c2f\u4e59\u6c27\u57fa)\u4e59\u9170\u80fa", "en_name": ["2-(2-Chloroethoxy)acetamide", "Acetamide, 2-(2-chloroethoxy)-", "2-(2-Chloroethoxy)acetamide", "(2-Chloroethoxy)acetamide"], "SMILES": "C(OCCCl)C(N)=O", "physical_data": {"Molecular Weight": "137.56", "Molecular Formula": "C4H8ClNO2", "Melting Point": "72-75 \u00b0C"}}