{"cas_no": "3696-23-9", "cn_name": "4-\u6c2f\u82ef\u57fa\u786b\u8132", "en_name": ["N-(4-Chlorophenyl)thiourea", "Thiourea, N-(4-chlorophenyl)-", "Urea, 1-(p-chlorophenyl)-2-thio-", "Thiourea, (4-chlorophenyl)-", "N-(4-Chlorophenyl)thiourea", "p-Chlorophenylthiourea", "N-(p-Chlorophenyl)thiourea", "1-(p-Chlorophenyl)thiourea", "1-(p-Chlorophenyl)-2-thiourea", "4-Chlorophenylthiourea", "1-(4-Chlorophenyl)thiourea", "NSC 72217", "N\u2032-(4-Chlorophenyl)carbamimidothioic acid"], "SMILES": "N(C(N)=S)C1=CC=C(Cl)C=C1", "physical_data": {"Molecular Weight": "186.66", "Molecular Formula": "C7H7ClN2S", "Melting Point": "183 \u00b0C"}}