{"cas_no": "3697-24-3", "cn_name": "5-\u7532\u57fa-1,2-\u82ef\u5e76\u83f2", "en_name": ["5-Methylchrysene", "Chrysene, 5-methyl-", "5-Methylchrysene", "NSC 407620"], "SMILES": "CC=1C2=C(C=3C(C1)=CC=CC3)C=CC=4C2=CC=CC4", "physical_data": {"Molecular Weight": "242.31", "Molecular Formula": "C19H14", "Melting Point": "117.5 \u00b0C"}}