{"cas_no": "3697-66-3", "cn_name": "\u73af\u4e19\u57fa-1,1-\u4e8c\u7532\u9178\u5355\u4e59\u916f", "en_name": ["1-(Ethoxycarbonyl)cyclopropanecarboxylic acid", "1,1-Cyclopropanedicarboxylic acid, 1-ethyl ester", "1,1-Cyclopropanedicarboxylic acid, monoethyl ester", "1,1-Cyclopropanedicarboxylic acid, ethyl ester", "1-(Ethoxycarbonyl)cyclopropanecarboxylic acid", "1-Ethoxycarbonylcyclopropane-1-carboxylic acid"], "SMILES": "C(OCC)(=O)C1(C(O)=O)CC1", "physical_data": {"Molecular Weight": "158.15", "Molecular Formula": "C7H10O4", "Boiling Point": "66-69 \u00b0C @ Press: 0.15 Torr"}}