{"cas_no": "36978-41-3", "cn_name": "2,3,3',4'-\u8054\u82ef\u56db\u7532\u9178\u4e8c\u9150", "en_name": ["2,3\u2032,3,4\u2032-Biphenyltetracarboxylic dianhydride", "[4,5\u2032-Biisobenzofuran]-1,1\u2032,3,3\u2032-tetrone", "2,3,3\u2032,4\u2032-Biphenyltetracarboxylic dianhydride", "2,3,3\u2032,4\u2032-Biphenyltetracarboxylic acid dianhydride", "1,1\u2032-Biphenyl-2,3,3\u2032,4\u2032-tetracarboxylic acid dianhydride", "2,3,3\u2032,4\u2032-Biphenyltetracarboxylic anhydride", "2,3\u2032,3,4\u2032-Biphenyltetracarboxylic acid dianhydride", "4,3\u2032-Biphthalic anhydride", "2,3\u2032,3,4\u2032-Biphenyltetracarboxylic dianhydride", "2,3,3\u2032,4\u2032-Diphenyltetracarboxylic dianhydride", "[4,5\u2032-Biisobenzofuran]-1,1\u2032,3,3\u2032-tetraone", "2,3,3\u2032,4\u2032-Biphenyltetracarbocylic dianhydride", "a-BPDA"], "SMILES": "O=C1C2=C(C=CC=C2C(=O)O1)C=3C=C4C(=CC3)C(=O)OC4=O", "physical_data": {"Molecular Weight": "294.22", "Molecular Formula": "C16H6O6", "Melting Point": "199 \u00b0C"}}