{"cas_no": "3697-42-5", "cn_name": "\u76d0\u9178\u6c2f\u5df1\u5b9a", "en_name": ["Chlorhexidine hydrochloride", "2,4,11,13-Tetraazatetradecanediimidamide, N1,N14-bis(4-chlorophenyl)-3,12-diimino-, hydrochloride (1:2)", "Biguanide, 1,1\u2032-hexamethylenebis[5-(p-chlorophenyl)-, dihydrochloride", "2,4,11,13-Tetraazatetradecanediimidamide, N,N\u2032\u2032-bis(4-chlorophenyl)-3,12-diimino-, dihydrochloride", "AY 5312", "Chlorhexidine dihydrochloride", "1,1\u2032-Hexamethylenebis[5-(p-chlorophenyl)biguanide] dihydrochloride", "Chlorhexidine hydrochloride", "Chlorhexidinium dichloride", "Arlacide H", "Lisium", "Sebidin"], "SMILES": "N(C(NC(NCCCCCCNC(NC(NC1=CC=C(Cl)C=C1)=N)=N)=N)=N)C2=CC=C(Cl)C=C2.Cl", "physical_data": {"Molecular Weight": "", "Molecular Formula": "C22H30Cl2N10.2ClH", "Melting Point": "257-258 \u00b0C"}}