{"cas_no": "36982-84-0", "cn_name": "2,4,6-\u4e09\u5f02\u4e19\u57fa\u82ef\u78fa\u9170\u53e0\u6c2e\u5316\u7269", "en_name": ["Trisyl azide", "Benzenesulfonyl azide, 2,4,6-tris(1-methylethyl)-", "2,4,6-Tris(1-methylethyl)benzenesulfonyl azide", "2,4,6-Triisopropylphenylsulfonyl azide", "2,4,6-Triisopropylbenzenesulfonyl azide", "Trisyl azide", "2,4,6-Tris(isopropyl)benzenesulfonyl azide", "NSC 646156", "2,4,6-Tris(propan-2-yl)benzene-1-sulfonyl azide"], "SMILES": "S(N=[N+]=[N-])(=O)(=O)C1=C(C(C)C)C=C(C(C)C)C=C1C(C)C", "physical_data": {"Molecular Weight": "", "Molecular Formula": "C15H23N3O2S", "Melting Point": "42-43 \u00b0C"}}