{"cas_no": "3698-89-3", "cn_name": "\u6b63\u5341\u4e8c\u70f7\u57fa\u7532\u57fa\u786b\u919a", "en_name": ["1-(Methylthio)dodecane", "Dodecane, 1-(methylthio)-", "Sulfide, dodecyl methyl", "1-(Methylthio)dodecane", "Dodecyl methyl sulphide", "Methyl lauryl sulfide", "Dodecyl methyl sulfide", "2-Thiatetradecane", "1-Methylthiododecane", "NSC 87889", "n-Dodecyl methyl sulfide", "Methyl dodecyl sulfide", "1-Methylsulfanyldodecane"], "SMILES": "C(CCCCCSC)CCCCCC", "physical_data": {"Molecular Weight": "216.43", "Molecular Formula": "C13H28S", "Boiling Point": "135 \u00b0C @ Press: 11 Torr"}}