{"cas_no": "3698-83-7", "cn_name": "1,5-\u4e8c\u6c2f-2,4-\u4e8c\u785d\u57fa\u82ef", "en_name": ["1,3-Dichloro-4,6-dinitrobenzene", "Benzene, 1,5-dichloro-2,4-dinitro-", "1,5-Dichloro-2,4-dinitrobenzene", "2,4-Dichloro-1,5-dinitrobenzene", "1,3-Dichloro-4,6-dinitrobenzene", "4,6-Dichloro-1,3-dinitrobenzene", "4,6-Dinitro-1,3-dichlorobenzene", "NSC 28971", "2,6-Dichloro-3,5-dinitrobenzene"], "SMILES": "N(=O)(=O)C1=CC(N(=O)=O)=C(Cl)C=C1Cl", "physical_data": {"Molecular Weight": "237.00", "Molecular Formula": "C6H2Cl2N2O4", "Melting Point": "103 \u00b0C"}}