{"cas_no": "3698-95-1", "cn_name": "\u6b63\u8f9b\u57fa\u7532\u57fa\u786b\u919a", "en_name": ["Methyl octyl sulfide", "Octane, 1-(methylthio)-", "Sulfide, methyl octyl", "1-(Methylthio)octane", "Methyl octyl sulfide", "Octyl methyl sulfide", "2-Thiadecane", "n-Octyl methyl sulfide", "Methyl 1-octyl sulfide", "1-Methylthiooctane", "Methyl n-octyl sulfide", "1-Methylsulfanyloctane"], "SMILES": "C(CCCSC)CCCC", "physical_data": {"Molecular Weight": "160.32", "Molecular Formula": "C9H20S", "Boiling Point": "90-91 \u00b0C @ Press: 18 Torr"}}