{"cas_no": "3699-54-5", "cn_name": "1-(2-\u7f9f\u4e59\u57fa)-2-\u54aa\u5511\u5549\u916e", "en_name": ["1-(2-Hydroxyethyl)-2-imidazolidinone", "2-Imidazolidinone, 1-(2-hydroxyethyl)-", "1-(2-Hydroxyethyl)-2-imidazolidinone", "N-(2-Hydroxyethyl)imidazolidone", "1-(Hydroxyethyl)ethyleneurea", "N-(\u03b2-Hydroxyethyl)-N,N\u2032-ethylene urea", "Ucar RD 65-2", "N-(2-Hydroxyethyl)ethyleneurea", "SR 511", "Sartomer SR 511", "SR 511A", "NSC 5775", "Norsocryl 101", "N-(2-Hydroxyethyl)imidazolidin-2-one", "3-(2-Hydroxyethyl)-2-imidazolidinone"], "SMILES": "C(CO)N1C(=O)NCC1", "physical_data": {"Molecular Weight": "130.15", "Molecular Formula": "C5H10N2O2", "Boiling Point": "220-240 \u00b0C @ Press: 20 Torr", "Melting Point": "50-51 \u00b0C"}}