{"cas_no": "36997-31-6", "cn_name": "1,3,5-\u82ef\u4e09\u7532\u9170\u80bc", "en_name": ["1,3,5-Benzenetricarboxylic acid, trihydrazide", "1,3,5-Benzenetricarboxylic acid, 1,3,5-trihydrazide", "Trimesic acid trihydrazide", "1,3,5-Benzenetricarboxylic acid, trihydrazide", "Trimesic trihydrazide"], "SMILES": "C(NN)(=O)C1=CC(C(NN)=O)=CC(C(NN)=O)=C1", "physical_data": {"Molecular Weight": "252.23", "Molecular Formula": "C9H12N6O3", "Melting Point": "300 \u00b0C (decomp)"}}