{"cas_no": "3699-66-9", "cn_name": "\u4e09\u4e59\u57fa2-\u81a6\u9170\u57fa\u4e19\u916f", "en_name": ["Triethyl 2-phosphonopropionate", "Propanoic acid, 2-(diethoxyphosphinyl)-, ethyl ester", "Propionic acid, 2-phosphono-, triethyl ester", "\u03b1-Diethylphosphonopropionic acid ethyl ester", "Ethyl \u03b1-diethylphosphonopropionate", "Ethyl 2-(diethylphosphono)propionate", "Triethyl \u03b1-phosphonopropionate", "Triethyl 2-phosphonopropionate", "Ethyl 2-(diethoxyphosphinyl)propanoate", "2-Phosphonopropanoic acid triethyl ester", "2-Phosphonopropionic acid triethyl ester", "Triethyl 2-phosphonopropanoate", "2-(Diethoxyphosphoryl)propionic acid ethyl ester", "2-(Diethoxyphosphinyl)propanoic acid ethyl ester", "Ethyl 2-(diethoxyphosphoryl)propanoate", "Ethyl 2-(diethoxyphosphoryl)propionate", "Ethyl 2(diethyoxyphosphoryl)propanoate", "Triethyl 2-phosphonoproprionate"], "SMILES": "P(C(C(OCC)=O)C)(OCC)(OCC)=O", "physical_data": {"Molecular Weight": "238.22", "Molecular Formula": "C9H19O5P", "Boiling Point": "130.5-132.5 \u00b0C @ Press: 10.5 Torr", "Density": "1.093 g/cm\u00b3 @ Temp: 20 \u00b0C"}}