{"cas_no": "370-78-5", "cn_name": "1-(BENZYLOXY)-4-FLUOROBENZENE", "en_name": ["1-Fluoro-4-(phenylmethoxy)benzene", "Benzene, 1-fluoro-4-(phenylmethoxy)-", "Ether, benzyl p-fluorophenyl", "1-Fluoro-4-(phenylmethoxy)benzene", "Benzyl p-fluorophenyl ether", "Benzyl 4-fluorophenyl ether", "4-Benzyloxy-1-fluorobenzene", "1-(Benzyloxy)-4-fluorobenzene"], "SMILES": "O(CC1=CC=CC=C1)C2=CC=C(F)C=C2", "physical_data": {"Molecular Weight": "202.22", "Molecular Formula": "C13H11FO", "Melting Point": "55.5 \u00b0C"}}