{"cas_no": "370-86-5", "cn_name": "\u78b3\u9170\u6c30-4-\u4e09\u6c1f\u7532\u6c27\u57fa\u82ef\u8159", "en_name": ["FCCP", "Propanedinitrile, 2-[2-[4-(trifluoromethoxy)phenyl]hydrazinylidene]-", "Mesoxalonitrile, [p-(trifluoromethoxy)phenyl]hydrazone", "Propanedinitrile, [[4-(trifluoromethoxy)phenyl]hydrazono]-", "2-[2-[4-(Trifluoromethoxy)phenyl]hydrazinylidene]propanedinitrile", "FCCP", "Trifluoromethoxy carbonylcyanide phenylhydrazone", "Carbonyl cyanide [p-(trifluoromethoxy)phenyl]hydrazone", "Carbonyl cyanide [4-(trifluoromethoxy)phenyl]hydrazone", "FCCCP", "[[4-(Trifluoromethoxy)phenyl]hydrazono]malononitrile", "2-[[4-(Trifluoromethoxy)phenyl]hydrazinylidene]propanedinitrile", "MeSH ID: D002259"], "SMILES": "O(C(F)(F)F)C1=CC=C(NN=C(C#N)C#N)C=C1", "physical_data": {"Molecular Weight": "254.17", "Molecular Formula": "C10H5F3N4O", "Melting Point": "174 \u00b0C (decomp)"}}