{"cas_no": "370-98-9", "cn_name": "4-[2-(\u7532\u57fa\u6c28\u57fa)\u4e59\u57fa]\u82ef\u915a", "en_name": ["N-Methyltyramine", "Phenol, 4-[2-(methylamino)ethyl]-", "Phenol, p-[2-(methylamino)ethyl]-", "4-[2-(Methylamino)ethyl]phenol", "N-Methyltyramine", "4-Hydroxy-N-methylphenethylamine", "N-Methyl-p-tyramine", "NSC 113958", "N-Methyl-N-[2-(4-hydroxyphenyl)ethyl]amine"], "SMILES": "C(CNC)C1=CC=C(O)C=C1", "physical_data": {"Molecular Weight": "151.21", "Molecular Formula": "C9H13NO", "Melting Point": "127-128 \u00b0C"}}