{"cas_no": "370-50-3", "cn_name": "\u7d22\u62c9\u975e\u5c3c\u6742\u8d28 9", "en_name": ["Flucofuron", "Urea, N,N\u2032-bis[4-chloro-3-(trifluoromethyl)phenyl]-", "Carbanilide, 4,4\u2032-dichloro-3,3\u2032-bis(trifluoromethyl)-", "N,N\u2032-Bis[4-chloro-3-(trifluoromethyl)phenyl]urea", "Mitin N", "Flucofuron", "Flucofenuron", "1,3-Bis(4-chloro-3-(trifluoromethyl)phenyl)urea"], "SMILES": "N(C(NC1=CC(C(F)(F)F)=C(Cl)C=C1)=O)C2=CC(C(F)(F)F)=C(Cl)C=C2", "physical_data": {"Molecular Weight": "417.13", "Molecular Formula": "C15H8Cl2F6N2O", "Melting Point": "231-232 \u00b0C"}}