{"cas_no": "370-69-4", "cn_name": "\u4e09(2,2,2-\u4e09\u6c1f\u4e59\u57fa)\u4e9a\u78f7\u9178\u916f", "en_name": ["Ethanol, 2,2,2-trifluoro-, phosphite (3:1)", "Ethanol, 2,2,2-trifluoro-, phosphite (3:1)", "Ethanol, 2,2,2-trifluoro-, phosphite", "Tris(2,2,2-trifluoroethyl) phosphite", "NSC 325606", "Tris(2,2,2-trifluoroethoxy)phosphine"], "SMILES": "P(OCC(F)(F)F)(OCC(F)(F)F)OCC(F)(F)F", "physical_data": {"Molecular Weight": "328.07", "Molecular Formula": "C6H6F9O3P", "Boiling Point": "130-131 \u00b0C @ Press: 743 Torr", "Density": "1.4866 g/cm\u00b3 @ Temp: 25 \u00b0C"}}