{"cas_no": "3700-67-2", "cn_name": "\u53cc\u5341\u516b\u70f7\u57fa\u4e8c\u7532\u57fa\u6eb4\u5316\u94f5", "en_name": ["Dimethyldioctadecylammonium bromide", "1-Octadecanaminium, N,N-dimethyl-N-octadecyl-, bromide (1:1)", "Ammonium, dimethyldioctadecyl-, bromide", "1-Octadecanaminium, N,N-dimethyl-N-octadecyl-, bromide", "Dimethyldioctadecylammonium bromide", "Dioctadecyldimethylammonium bromide", "Dioctadecanyldimethylammonium bromide", "DSDMAB", "Dimethyldistearylammonium bromide", "Di-n-octadecyldimethylammonium bromide", "Distearyldimethylammonium bromide", "GERBU Adjuvant 10", "GERBU Adjuvant 100", "DODAB", "DODA(Br)", "DDAB", "Bis(octadecyl)dimethylammonium bromide", "Dimethyldioctadecylammomium bromide", "VSA 3", "N,N-Distearyl-N,N-dimethylammonium bromide"], "SMILES": "C([N+](CCCCCCCCCCCCCCCCCC)(C)C)CCCCCCCCCCCCCCCCC.[Br-]", "physical_data": {"Molecular Weight": "", "Molecular Formula": "C38H80N.Br", "Melting Point": "158-159 \u00b0C"}}