{"cas_no": "37002-45-2", "cn_name": "(-)-1,4-\u4e8c-O-\u7532\u82ef\u78fa\u9170\u57fa-2,3-O-\u5f02\u4e9a\u4e19\u57fa-L-\u82cf\u7cd6\u9187", "en_name": ["1,3-Dioxolane-4,5-dimethanol, 2,2-dimethyl-, 4,5-bis(4-methylbenzenesulfonate), (4S,5S)-", "1,3-Dioxolane-4,5-dimethanol, 2,2-dimethyl-, 4,5-bis(4-methylbenzenesulfonate), (4S,5S)-", "1,3-Dioxolane-4,5-dimethanol, 2,2-dimethyl-, bis(4-methylbenzenesulfonate), (4S-trans)-", "1,3-Dioxolane-4,5-dimethanol, 2,2-dimethyl-, bis(4-methylbenzenesulfonate), (4S,5S)-", "1,4-Di-O-tosyl-2,3-O-isopropylidene-L-threitol", "(2S,3S)-(-)-2,3-O-Isopropylidene-1,4-di-O-tosyl-L-threitol", "(S,S)-(-)-1,4-Di-O-tosyl-2,3-O-isopropylidene-L-threitol", "(4S-trans)-2,2-Dimethyl-4,5-bis[(4-methylphenylsulfonyloxy)methyl]-1,3-dioxolane", "(4S,5S)-2,2-Dimethyl-4,5-bis[(4-toluenesulfonyloxy)methyl]-1,3-dioxolane", "(S,S)-(-)-2,3-O-Isopropylidenethreitol 1,4-ditosylate", "4-Methylbenzenesulfonic acid [(4S,5S)-2,2-dimethyl-1,3-dioxolane-4,5-diyl]bis(methylene) ester"], "SMILES": "C(OS(=O)(=O)C1=CC=C(C)C=C1)C2C(COS(=O)(=O)C3=CC=C(C)C=C3)OC(C)(C)O2", "physical_data": {"Molecular Weight": "470.56", "Molecular Formula": "C21H26O8S2", "Melting Point": "90-92 \u00b0C"}}