{"cas_no": "37002-52-1", "cn_name": "BENZOYL-D-PHE-OH", "en_name": ["N-Benzoyl-D-phenylalanine", "D-Phenylalanine, N-benzoyl-", "N-Benzoyl-D-phenylalanine", "(R)-N-Benzoylphenylalanine", "D-N-Benzoylphenylalanine", "(R)-2-Benzoylamino-3-phenylpropanoic acid", "D-Bz-Phenylalanine", "(2R)-2-Benzamido-3-phenylpropanoic acid", "(2R)-3-Phenyl-2-(phenylformamido)propanoic acid"], "SMILES": "C(NC(=O)C1=CC=CC=C1)(CC2=CC=CC=C2)C(O)=O", "physical_data": {"Molecular Weight": "269.30", "Molecular Formula": "C16H15NO3", "Melting Point": "142-143 \u00b0C"}}