{"cas_no": "37014-08-7", "cn_name": "1-(\u95f4\u7532\u6c27\u57fa\u82ef\u57fa)-2-\u786b\u8132", "en_name": ["N-(3-Methoxyphenyl)thiourea", "Thiourea, N-(3-methoxyphenyl)-", "Thiourea, (3-methoxyphenyl)-", "Urea, 1-(m-methoxyphenyl)-2-thio-", "N-(3-Methoxyphenyl)thiourea", "N-(m-Methoxyphenyl)thiourea", "1-(m-Methoxyphenyl)thiourea", "(3-Methoxyphenyl)thiourea", "3-Thioureidoanisole", "NSC 130357"], "SMILES": "N(C(N)=S)C1=CC(OC)=CC=C1", "physical_data": {"Molecular Weight": "182.24", "Molecular Formula": "C8H10N2OS", "Melting Point": "159 \u00b0C"}}