{"cas_no": "37026-88-3", "cn_name": "\u7532\u57fa\u4e09\u6b63\u4e01\u57fa\u6eb4\u5316\u94f5", "en_name": ["1-Butanaminium, N,N-dibutyl-N-methyl-, bromide (1:1)", "1-Butanaminium, N,N-dibutyl-N-methyl-, bromide (1:1)", "1-Butanaminium, N,N-dibutyl-N-methyl-, bromide", "Tributylmethylammonium bromide", "Methyltributylammonium bromide", "N-Methyl-N,N,N-tributylammonium bromide"], "SMILES": "[N+](CCCC)(CCCC)(CCCC)C.[Br-]", "physical_data": {"Molecular Weight": "", "Molecular Formula": "C13H30N.Br", "Melting Point": "120.5-121.5 \u00b0C"}}