{"cas_no": "3702-98-5", "cn_name": "4,4,4-\u4e09\u6c2f\u4e59\u9170\u4e59\u9178\u4e59\u916f", "en_name": ["Butanoic acid, 4,4,4-trichloro-3-oxo-, ethyl ester", "Butanoic acid, 4,4,4-trichloro-3-oxo-, ethyl ester", "Acetoacetic acid, 4,4,4-trichloro-, ethyl ester", "Ethyl 4,4,4-trichloroacetoacetate", "Ethyl 4,4,4-trichloro-3-oxobutanoate"], "SMILES": "C(C(C(Cl)(Cl)Cl)=O)C(OCC)=O", "physical_data": {"Molecular Weight": "233.48", "Molecular Formula": "C6H7Cl3O3", "Boiling Point": "91.5 \u00b0C @ Press: 2.5 Torr", "Melting Point": "126-127.5 \u00b0C"}}