{"cas_no": "37031-29-1", "cn_name": "(-)-\u4e8c\u7532\u57fa-2,3-\u90bb\u5f02\u4e19\u4e9a\u57fa-L-\u9152\u77f3\u9178\u916f", "en_name": ["4,5-Dimethyl (4R,5R)-2,2-dimethyl-1,3-dioxolane-4,5-dicarboxylate", "1,3-Dioxolane-4,5-dicarboxylic acid, 2,2-dimethyl-, 4,5-dimethyl ester, (4R,5R)-", "1,3-Dioxolane-4,5-dicarboxylic acid, 2,2-dimethyl-, dimethyl ester, (4R-trans)-", "1,3-Dioxolane-4,5-dicarboxylic acid, 2,2-dimethyl-, dimethyl ester, (4R,5R)-", "4,5-Dimethyl (4R,5R)-2,2-dimethyl-1,3-dioxolane-4,5-dicarboxylate", "Dimethyl 2,3-O-isopropylidene-L-tartrate", "(-)-Dimethyl-2,3-O-isopropylidene-L-tartrate", "Dimethyl (4R,5R)-2,2-dimethyl-1,3-dioxolane-4,5-dicarboxylate", "Dimethyl (4R,5R)-2,2,dimethyl-1,3-dioxolane-4,5-dicarboxylate", "(4R,5R)-2,2-Dimethyl-1,3-dioxolane-4,5-dicarboxylic acid dimethyl ester", "Dimethyl L-tartarte acetonide", "Dimethyl 2,3-O-isopropylidene L-tartrate", "2,3-Di-O-isopropylidene-L-tartrate"], "SMILES": "C(OC)(=O)C1C(C(OC)=O)OC(C)(C)O1", "physical_data": {"Molecular Weight": "218.20", "Molecular Formula": "C9H14O6", "Boiling Point": "120-122 \u00b0C @ Press: 8 Torr", "Melting Point": "40-43 \u00b0C"}}