{"cas_no": "3703-76-2", "cn_name": "\u54b3\u5b89\u5b9a", "en_name": ["Cloperastine", "Piperidine, 1-[2-[(4-chlorophenyl)phenylmethoxy]ethyl]-", "Piperidine, 1-[2-[(p-chloro-\u03b1-phenylbenzyl)oxy]ethyl]-", "1-[2-[(4-Chlorophenyl)phenylmethoxy]ethyl]piperidine", "1-[2-[(p-Chloro-\u03b1-phenylbenzyl)oxy]ethyl]piperidine", "Cloperastine", "p-Chlorobenzhydryl 2-(1-piperidyl)ethyl ether", "(\u00b1)-Cloperastine"], "SMILES": "C(OCCN1CCCCC1)(C2=CC=C(Cl)C=C2)C3=CC=CC=C3", "physical_data": {"Molecular Weight": "329.86", "Molecular Formula": "C20H24ClNO", "Boiling Point": "179 \u00b0C"}}