{"cas_no": "37031-30-4", "cn_name": "(4S,5S)-2,2-1,3-\u4e8c\u6c27\u620a\u73af-4,5-\u4e8c\u7fa7\u9178\u4e8c\u7532\u916f", "en_name": ["4,5-Dimethyl (4S,5S)-2,2-dimethyl-1,3-dioxolane-4,5-dicarboxylate", "1,3-Dioxolane-4,5-dicarboxylic acid, 2,2-dimethyl-, 4,5-dimethyl ester, (4S,5S)-", "1,3-Dioxolane-4,5-dicarboxylic acid, 2,2-dimethyl-, dimethyl ester, (4S-trans)-", "1,3-Dioxolane-4,5-dicarboxylic acid, 2,2-dimethyl-, dimethyl ester, (4S,5S)-", "4,5-Dimethyl (4S,5S)-2,2-dimethyl-1,3-dioxolane-4,5-dicarboxylate", "Dimethyl 2,3-O-isopropylidene-D-tartrate", "(+)-Dimethyl-2,3-O-isopropylidene-D-tartrate"], "SMILES": "C(OC)(=O)C1C(C(OC)=O)OC(C)(C)O1", "physical_data": {"Molecular Weight": "218.20", "Molecular Formula": "C9H14O6", "Boiling Point": "120-122 \u00b0C @ Press: 8 Torr"}}