{"cas_no": "37033-94-6", "cn_name": "2-\u4e59\u9178\u57fa-5-\u4e59\u57fa\u5432\u54da", "en_name": ["Ethyl 5-ethyl-1H-indole-2-carboxylate", "1H-Indole-2-carboxylic acid, 5-ethyl-, ethyl ester", "Ethyl 5-ethyl-1H-indole-2-carboxylate", "NSC 111163"], "SMILES": "C(OCC)(=O)C1=CC=2C(N1)=CC=C(CC)C2", "physical_data": {"Molecular Weight": "217.26", "Molecular Formula": "C13H15NO2", "Boiling Point": "155.7 \u00b0C @ Press: 0.4 Torr", "Melting Point": "103 \u00b0C"}}