{"cas_no": "37033-95-7", "cn_name": "5-\u82c4\u6c27\u57fa\u5432\u54da-2-\u7532\u9178\u4e59\u916f", "en_name": ["Ethyl 5-(phenylmethoxy)-1H-indole-2-carboxylate", "1H-Indole-2-carboxylic acid, 5-(phenylmethoxy)-, ethyl ester", "Indole-2-carboxylic acid, 5-(benzyloxy)-, ethyl ester", "Ethyl 5-(phenylmethoxy)-1H-indole-2-carboxylate", "2-Carbethoxy-5-(benzyloxy)indole", "Ethyl 5-(benzyloxy)indole-2-carboxylate", "5-(Benzyloxy)-2-carbethoxyindole", "Ethyl 5-(benzyloxy)-1H-indole-2-carboxylate", "5-(Benzyloxy)indole-2-carboxylic acid ethyl ester", "NSC 30931"], "SMILES": "C(OCC)(=O)C1=CC=2C(N1)=CC=C(OCC3=CC=CC=C3)C2", "physical_data": {"Molecular Weight": "295.33", "Molecular Formula": "C18H17NO3", "Melting Point": "162-164 \u00b0C"}}