{"cas_no": "3704-28-7", "cn_name": "2-(\u7532\u57fa\u786b\u4ee3)\u82ef\u7532\u9178\u7532\u916f", "en_name": ["Benzoic acid, 2-(methylthio)-, methyl ester", "Benzoic acid, 2-(methylthio)-, methyl ester", "Benzoic acid, o-(methylthio)-, methyl ester", "o-(Methylthio)benzoic acid methyl ester", "Methyl 2-(methylmercapto)benzoate", "Methyl 2-(methylthio)benzoate", "Methyl o-(methylthio)benzoate", "Methyl O-methylthiosalicylate", "Methyl o-(methoxycarbonyl)phenyl sulfide", "2-(Methylthio)benzoic acid methyl ester", "NSC 130740", "2-Methylsulfanylbenzoic acid methyl ester"], "SMILES": "C(OC)(=O)C1=C(SC)C=CC=C1", "physical_data": {"Molecular Weight": "182.24", "Molecular Formula": "C9H10O2S", "Melting Point": "66-67 \u00b0C"}}