{"cas_no": "3704-09-4", "cn_name": "\u7c73\u52c3\u9f99", "en_name": ["Mibolerone", "Estr-4-en-3-one, 17-hydroxy-7,17-dimethyl-, (7\u03b1,17\u03b2)-", "Estr-4-en-3-one, 17\u03b2-hydroxy-7\u03b1,17-dimethyl-", "(7\u03b1,17\u03b2)-17-Hydroxy-7,17-dimethylestr-4-en-3-one", "U 10997", "7\u03b1,17\u03b1-Dimethyl-19-nortestosterone", "Mibolerone", "Miboleron", "7\u03b1,17\u03b1-Dimethyl-17\u03b2-hydroxy-4-estren-3-one", "Cheque", "Matenon", "NSC 72260"], "SMILES": "CC1C2C3C(C)(CCC2C4C(C1)=CC(=O)CC4)C(C)(O)CC3", "physical_data": {"Molecular Weight": "302.45", "Molecular Formula": "C20H30O2", "Melting Point": "150.5-151.5 \u00b0C"}}