{"cas_no": "37052-78-1", "cn_name": "2-\u5def\u57fa-5-\u7532\u6c27\u57fa\u82ef\u5e76\u54aa\u5511", "en_name": ["2-Mercapto-5-methoxybenzimidazole", "2H-Benzimidazole-2-thione, 1,3-dihydro-5-methoxy-", "1,3-Dihydro-5-methoxy-2H-benzimidazole-2-thione", "2-Mercapto-5-methoxybenzimidazole", "5-Methoxy-2-benzimidazolethiol", "2-Mercapto-5-methoxy-1H-benzimidazole", "5-Methoxy-1H-benzimidazole-2-thiol", "5-Methoxy-2-mercaptobenzimidazole", "5-Methoxy-1H-benzo[d]imidazole-2(3H)-thione", "5-Methoxy-1H-benzoimidazole-2-thiol", "2-Thio-5-methoxy-1H-benzimidazole", "1,3-Dihydro-5-methoxybenzimidazole-2-thione", "5-Methoxy-2-mercapto-1H-benzimidazole"], "SMILES": "S=C1NC=2C(=CC(OC)=CC2)N1", "physical_data": {"Molecular Weight": "180.23", "Molecular Formula": "C8H8N2OS", "Melting Point": "255-256 \u00b0C"}}