{"cas_no": "3706-26-1", "cn_name": "\u798f\u83ab\u7279\u7f57\u6742\u8d2812", "en_name": ["Benzeneethanamine, 4-methoxy-\u03b1-methyl-, hydrochloride (1:1)", "Benzeneethanamine, 4-methoxy-\u03b1-methyl-, hydrochloride (1:1)", "Phenethylamine, p-methoxy-\u03b1-methyl-, hydrochloride", "Benzeneethanamine, 4-methoxy-\u03b1-methyl-, hydrochloride", "p-Methoxy-\u03b1-methylphenethylamine hydrochloride", "2-Amino-1-(4-methoxyphenyl)propane hydrochloride", "p-Methoxyamphetamine hydrochloride", "4-Methoxyamphetamine hydrochloride", "(\u00b1)-4-Methoxyamphetamine hydrochloride", "2-(4-Methoxy-phenyl)-1-methyl-ethylamine", "hydrochloride"], "SMILES": "C(C(C)N)C1=CC=C(OC)C=C1.Cl", "physical_data": {"Molecular Weight": "", "Molecular Formula": "C10H15NO.ClH", "Melting Point": "210-211 \u00b0C"}}