{"cas_no": "37067-27-9", "cn_name": "\u5bf9\u82ef\u4e8c\u915a\u4e00\u786b\u9178\u94be", "en_name": ["1,4-Benzenediol, 1-(hydrogen sulfate), potassium salt (1:1)", "1,4-Benzenediol, 1-(hydrogen sulfate), potassium salt (1:1)", "1,4-Benzenediol, mono(hydrogen sulfate), monopotassium salt", "Hydroquinone, hydrogen sulfate, potassium salt", "Potassium 4-hydroxyphenyl sulfate"], "SMILES": "O(S(=O)(=O)O)C1=CC=C(O)C=C1.[K]", "physical_data": {"Molecular Weight": "", "Molecular Formula": "C6H6O5S.K", "Melting Point": "220 \u00b0C"}}