{"cas_no": "37067-96-2", "cn_name": "4,5-\u4e8c\u7898-1-\u7532\u57fa-1H-\u54aa\u5511", "en_name": ["4,5-Diiodo-1-methyl-1H-imidazole", "1H-Imidazole, 4,5-diiodo-1-methyl-", "4,5-Diiodo-1-methyl-1H-imidazole", "NSC 329118", "1-Methyl-4,5-diiodoimidazole", "4,5-Diiodo-1-methylimidazole"], "SMILES": "IC1=C(I)N=CN1C", "physical_data": {"Molecular Weight": "333.90", "Molecular Formula": "C4H4I2N2", "Melting Point": "144-145 \u00b0C"}}