{"cas_no": "37074-39-8", "cn_name": "4-\u6c2f-3-\u7532\u57fa\u82ef\u4e59\u916e", "en_name": ["1-(4-Chloro-3-methylphenyl)ethanone", "Ethanone, 1-(4-chloro-3-methylphenyl)-", "Acetophenone, 4\u2032-chloro-3\u2032-methyl-", "1-(4-Chloro-3-methylphenyl)ethanone", "3-Methyl-4-chloroacetophenone", "4\u2032-Chloro-3\u2032-methylacetophenone", "4-Chloro-3-methylacetophenone", "1-(4-Chloro-3-methylphenyl)ethan-1-one"], "SMILES": "C(C)(=O)C1=CC(C)=C(Cl)C=C1", "physical_data": {"Molecular Weight": "168.62", "Molecular Formula": "C9H9ClO", "Boiling Point": "254.2-254.4 \u00b0C @ Press: 753-754 Torr", "Melting Point": "56-57 \u00b0C"}}