{"cas_no": "3708-04-1", "cn_name": "2-\u7532\u57fa\u78fa\u9170\u82ef\u4e59\u916e", "en_name": ["2-(Methylsulfonyl)-1-phenylethanone", "Ethanone, 2-(methylsulfonyl)-1-phenyl-", "Acetophenone, 2-(methylsulfonyl)-", "2-(Methylsulfonyl)-1-phenylethanone", "(Methylsulfonyl)benzoylmethane", "2-(Methylsulfonyl)acetophenone", "Methyl phenacyl sulfone", "\u03b1-(Methylsulfonyl)acetophenone", "NSC 137561", "NSC 2736", "NSC 51601", "2-(Methylsulfonyl)-1-phenylethan-1-one", "2-Methanesulfonyl-1-phenylethan-1-one"], "SMILES": "C(CS(C)(=O)=O)(=O)C1=CC=CC=C1", "physical_data": {"Molecular Weight": "198.24", "Molecular Formula": "C9H10O3S", "Melting Point": "110 \u00b0C"}}