{"cas_no": "370865-89-7", "cn_name": "1-\u4e59\u57fa-3-\u7532\u57fa\u54aa\u5511\u4e8c\u8148\u80fa\u76d0", "en_name": ["1-Ethyl-3-methylimidazolium dicyanamide", "1H-Imidazolium, 3-ethyl-1-methyl-, salt with N-cyanocyanamide (1:1)", "1H-Imidazolium, 1-ethyl-3-methyl-, salt with cyanocyanamide (1:1)", "Cyanamide, cyano-, ion(1-), 1-ethyl-3-methyl-1H-imidazolium", "1-Ethyl-3-methylimidazolium dicyanamide", "1-Ethyl-3-methylimidazolium dicyanoamide", "1-Methyl-3-ethylimidazolium dicyanamide", "1-Ethyl-3-methylimidazolium dicyanimide", "Basionics VS 03", "Ethylmethylimidazolium dicyanamide", "1-Ethyl-3-methylimidazolium dicyanamide(1-)", "VS 03", "A 83377"], "SMILES": "[N-](C#N)C#N.C(C)[N+]1=CN(C)C=C1", "physical_data": {"Molecular Weight": "", "Molecular Formula": "C6H11N2.C2N3", "Melting Point": "-12 \u00b0C", "Density": "1.08 g/cm\u00b3 @ Temp: 20 \u00b0C"}}