{"cas_no": "3709-18-0", "cn_name": "\u7532\u57fa\u4e19\u4e8c\u9178\u4e9a\u5f02\u4e19\u916f", "en_name": ["2,2,5-Trimethyl-1,3-dioxane-4,6-dione", "1,3-Dioxane-4,6-dione, 2,2,5-trimethyl-", "Malonic acid, methyl-, cyclic isopropylidene ester", "Malonic acid, methyl-, monoisopropylidene cyclic ester", "2,2,5-Trimethyl-1,3-dioxane-4,6-dione", "2,2,5-Trimethyl-m-dioxane-4,6-dione", "Methyl Meldrum's acid", "2,2,5-Trimethyl-1,3-dioxan-4,6-dione", "NSC 233870"], "SMILES": "CC1(C)OC(=O)C(C)C(=O)O1", "physical_data": {"Molecular Weight": "158.15", "Molecular Formula": "C7H10O4", "Melting Point": "114-115 \u00b0C"}}