{"cas_no": "371-49-3", "cn_name": "\u6c1f\u4e59\u9178\u4e01\u916f", "en_name": ["Butyl 2-fluoroacetate", "Acetic acid, 2-fluoro-, butyl ester", "Butyl 2-fluoroacetate", "Butyl fluoroacetate"], "SMILES": "C(OCCCC)(CF)=O", "physical_data": {"Molecular Weight": "134.15", "Molecular Formula": "C6H11FO2", "Boiling Point": "153 \u00b0C", "Density": "1.0231 g/cm\u00b3"}}