{"cas_no": "371-27-7", "cn_name": "\u6b63\u4e01\u91782,2,2-\u4e09\u6c1f\u4e59\u916f", "en_name": ["2,2,2-Trifluoroethyl butanoate", "Butanoic acid, 2,2,2-trifluoroethyl ester", "Butyric acid, 2,2,2-trifluoroethyl ester", "2,2,2-Trifluoroethyl butanoate", "2,2,2-Trifluoroethyl butyrate"], "SMILES": "C(OCC(F)(F)F)(CCC)=O", "physical_data": {"Molecular Weight": "170.13", "Molecular Formula": "C6H9F3O2", "Boiling Point": "113 \u00b0C @ Press: 747 Torr", "Density": "1.137 g/cm\u00b3 @ Temp: 25 \u00b0C"}}