{"cas_no": "371-41-5", "cn_name": "4-\u6c1f\u82ef\u915a", "en_name": ["4-Fluorophenol", "Phenol, 4-fluoro-", "Phenol, p-fluoro-", "4-Fluorophenol", "p-Fluorophenol", "4-Hydroxyphenyl fluoride", "NSC 10295"], "SMILES": "FC1=CC=C(O)C=C1", "physical_data": {"Molecular Weight": "112.10", "Molecular Formula": "C6H5FO", "Boiling Point": "185.5 \u00b0C", "Melting Point": "48 \u00b0C"}}