{"cas_no": "371-15-3", "cn_name": "4-\u6c1f\u8334\u9999\u786b\u919a", "en_name": ["4-Fluorophenyl methyl sulfide", "Benzene, 1-fluoro-4-(methylthio)-", "Sulfide, p-fluorophenyl methyl", "1-Fluoro-4-(methylthio)benzene", "p-Fluorothioanisole", "Methyl 4-fluorophenyl sulfide", "p-Fluorophenyl methyl sulfide", "4-Fluorophenyl methyl sulfide", "4-Fluorothioanisole", "Methyl p-fluorophenyl sulfide", "4-Fluoro-1-methylsulfanylbenzene", "4-Fluorophenyl methyl sulphide", "1-Fluoro-4-(methylsulfanyl)benzene", "1-(Methylthio)-4-fluorobenzene", "1-Fluoro-4-methylsulfanylbenzene", "(4-Fluorophenyl)(methyl)sulfane"], "SMILES": "S(C)C1=CC=C(F)C=C1", "physical_data": {"Molecular Weight": "142.19", "Molecular Formula": "C7H7FS", "Boiling Point": "74 \u00b0C @ Press: 10 Torr"}}