{"cas_no": "371-40-4", "cn_name": "4-\u6c1f\u82ef\u80fa", "en_name": ["4-Fluoroaniline", "Benzenamine, 4-fluoro-", "Aniline, p-fluoro-", "4-Fluorobenzenamine", "p-Fluoroaniline", "4-Fluoroaniline", "p-Fluorophenylamine", "1-Amino-4-fluorobenzene", "4-Fluorophenylamine", "NSC 579", "4-Fluoro-1-benzenamine"], "SMILES": "FC1=CC=C(N)C=C1", "physical_data": {"Molecular Weight": "111.12", "Molecular Formula": "C6H6FN", "Boiling Point": "188 \u00b0C", "Melting Point": "-1.9 \u00b0C", "Density": "1.1725 g/cm\u00b3 @ Temp: 20 \u00b0C"}}