{"cas_no": "371-62-0", "cn_name": "2-\u6c1f\u4e59\u9187", "en_name": ["2-Fluoroethanol", "Ethanol, 2-fluoro-", "2-Fluoroethanol", "Ethylene fluorohydrin", "Flutritex 2", "1-Fluoroethan-2-ol", "\u03b2-Fluoroethanol", "NSC 158283"], "SMILES": "C(CO)F", "physical_data": {"Molecular Weight": "64.06", "Molecular Formula": "C2H5FO", "Boiling Point": "103.5 \u00b0C", "Melting Point": "-26.4 \u00b0C", "Density": "1.1040 g/cm\u00b3 @ Temp: 20 \u00b0C"}}