{"cas_no": "371-14-2", "cn_name": "4-\u6c1f\u82ef\u80bc", "en_name": ["4-Fluorophenylhydrazine", "Hydrazine, (4-fluorophenyl)-", "Hydrazine, (p-fluorophenyl)-", "(4-Fluorophenyl)hydrazine", "(p-Fluorophenyl)hydrazine", "4-Fluorophenylhydrazine", "1-(4-Fluorophenyl)hydrazine", "N-(4-Fluorophenyl)hydrazine"], "SMILES": "N(N)C1=CC=C(F)C=C1", "physical_data": {"Molecular Weight": "126.13", "Molecular Formula": "C6H7FN2", "Boiling Point": "129.2 \u00b0C @ Press: 12 Torr", "Melting Point": "36.8 \u00b0C"}}