{"cas_no": "371-42-6", "cn_name": "\u5bf9\u6c1f\u82ef\u786b\u915a", "en_name": ["4-Fluorobenzenethiol", "Benzenethiol, 4-fluoro-", "Benzenethiol, p-fluoro-", "4-Fluorobenzenethiol", "p-Fluorobenzenethiol", "p-Fluorothiophenol", "4-Fluorothiophenol", "4-Fluorophenyl mercaptan", "(4-Fluorophenyl)thiol", "NSC 77081"], "SMILES": "FC1=CC=C(S)C=C1", "physical_data": {"Molecular Weight": "128.17", "Molecular Formula": "C6H5FS", "Boiling Point": "162 \u00b0C", "Melting Point": "49-51 \u00b0C"}}