{"cas_no": "3710-31-4", "cn_name": "1,2-\u5e9a\u4e8c\u9187", "en_name": ["1,2-Heptanediol", "1,2-Heptanediol", "(\u00b1)-1,2-Heptanediol"], "SMILES": "C(CCCCC)(CO)O", "physical_data": {"Molecular Weight": "132.20", "Molecular Formula": "C7H16O2", "Boiling Point": "90 \u00b0C"}}