{"cas_no": "37106-97-1", "cn_name": "\u80f0\u529f\u5b9a", "en_name": ["N-Benzoyl-L-tyrosyl-p-aminobenzoic acid", "Benzoic acid, 4-[[(2S)-2-(benzoylamino)-3-(4-hydroxyphenyl)-1-oxopropyl]amino]-", "Benzoic acid, 4-[[2-(benzoylamino)-3-(4-hydroxyphenyl)-1-oxopropyl]amino]-, (S)-", "4-[[(2S)-2-(Benzoylamino)-3-(4-hydroxyphenyl)-1-oxopropyl]amino]benzoic acid", "4-(N-Benzoyl-L-tyrosyl)aminobenzoic acid", "N-Benzoyl-L-tyrosyl-p-aminobenzoate", "Bentiromide", "Benzoyltyrosyl-p-aminobenzoic acid", "N-Benzoyl-L-tyrosyl-p-aminobenzoic acid"], "SMILES": "C(CC1=CC=C(O)C=C1)(C(NC2=CC=C(C(O)=O)C=C2)=O)NC(=O)C3=CC=CC=C3", "physical_data": {"Molecular Weight": "404.42", "Molecular Formula": "C23H20N2O5", "Melting Point": "241 \u00b0C"}}