{"cas_no": "3710-23-4", "cn_name": "2-\u5f02\u4e19\u82ef\u57fa\u8418", "en_name": ["2-Isopropenylnaphthalene", "Naphthalene, 2-(1-methylethenyl)-", "Naphthalene, 2-isopropenyl-", "2-(1-Methylethenyl)naphthalene", "2-Isopropenylnaphthalene", "2-(\u03b1-Methylvinyl)naphthalene", "2-(1-Propen-2-yl)naphthalene", "2-(2-Naphthyl)-1-propene"], "SMILES": "C(C)(=C)C1=CC2=C(C=C1)C=CC=C2", "physical_data": {"Molecular Weight": "168.23", "Molecular Formula": "C13H12", "Boiling Point": "155 \u00b0C @ Press: 11 Torr", "Melting Point": "56 \u00b0C"}}