{"cas_no": "3710-30-3", "cn_name": "1,7-\u8f9b\u4e8c\u70ef", "en_name": ["1,7-Octadiene", "1,7-Octadiene", "\u03b1,\u03c9-Octadiene", "NSC 82324"], "SMILES": "C(CCC=C)CC=C", "physical_data": {"Molecular Weight": "110.20", "Molecular Formula": "C8H14", "Boiling Point": "114 \u00b0C", "Melting Point": "-70 \u00b0C", "Density": "0.7293 g/cm\u00b3 @ Temp: 21.44 \u00b0C"}}