{"cas_no": "3710-42-7", "cn_name": "7-\u7f9f\u57fa\u5e9a\u9178", "en_name": ["7-Hydroxyheptanoic acid", "Heptanoic acid, 7-hydroxy-", "7-Hydroxyheptanoic acid"], "SMILES": "C(CCCCO)CC(O)=O", "physical_data": {"Molecular Weight": "146.18", "Molecular Formula": "C7H14O3", "Boiling Point": "145-152 \u00b0C @ Press: 18 Torr", "Melting Point": "46 \u00b0C"}}