{"cas_no": "37107-50-9", "cn_name": "\u4e9a\u5f02\u4e19\u7094\u8148\u9178\u73af\u5df1\u916f", "en_name": ["2-Cyano-2-cyclohexylideneacetic acid", "Acetic acid, 2-cyano-2-cyclohexylidene-", "Acetic acid, cyanocyclohexylidene-", "\u03941,\u03b1-Cyclohexaneacetic acid, \u03b1-cyano-", "2-Cyano-2-cyclohexylideneacetic acid", "Cyclohexylidenecyanoacetic acid", "NSC 124616"], "SMILES": "C(C(O)=O)(C#N)=C1CCCCC1", "physical_data": {"Molecular Weight": "165.19", "Molecular Formula": "C9H11NO2", "Boiling Point": "129-130 \u00b0C", "Melting Point": "110-110.5 \u00b0C", "Density": "1.03053 g/cm\u00b3 @ Temp: 20.5 \u00b0C"}}