{"cas_no": "3710-84-7", "cn_name": "\u4e8c\u4e59\u57fa\u7f9f\u80fa", "en_name": ["Diethylhydroxylamine", "Ethanamine, N-ethyl-N-hydroxy-", "N-Ethyl-N-hydroxyethanamine", "N,N-Diethylhydroxylamine", "N-Hydroxydiethylamine", "Diethylhydroxylamine", "DEHA"], "SMILES": "N(CC)(CC)O", "physical_data": {"Molecular Weight": "89.14", "Molecular Formula": "C4H11NO", "Boiling Point": "133 \u00b0C", "Melting Point": "10 \u00b0C", "Density": "0.8612 g/cm\u00b3 @ Temp: 25 \u00b0C"}}