{"cas_no": "37115-32-5", "cn_name": "\u963f\u5730\u5511\u4ed1", "en_name": ["Adinazolam", "4H-[1,2,4]Triazolo[4,3-a][1,4]benzodiazepine-1-methanamine, 8-chloro-N,N-dimethyl-6-phenyl-", "8-Chloro-N,N-dimethyl-6-phenyl-4H-[1,2,4]triazolo[4,3-a][1,4]benzodiazepine-1-methanamine", "Adinazolam", "U 41123", "1-(8-Chloro-6-phenyl-4H-[1,2,4]triazolo[4,3-a][1,4]benzodiazepin-1-yl)-N,N-dimethylmethanamine"], "SMILES": "C(N(C)C)C=1N2C=3C(C(=NCC2=NN1)C4=CC=CC=C4)=CC(Cl)=CC3", "physical_data": {"Molecular Weight": "351.83", "Molecular Formula": "C19H18ClN5", "Melting Point": "171-172.5 \u00b0C"}}