{"cas_no": "37131-89-8", "cn_name": "2,4-\u4e8c\u6c2f\u5627\u5576-5-\u7fa7\u9178", "en_name": ["2,4-Dichloro-5-pyrimidinecarboxylic acid", "5-Pyrimidinecarboxylic acid, 2,4-dichloro-", "2,4-Dichloro-5-pyrimidinecarboxylic acid"], "SMILES": "C(O)(=O)C=1C(Cl)=NC(Cl)=NC1", "physical_data": {"Molecular Weight": "192.99", "Molecular Formula": "C5H2Cl2N2O2", "Melting Point": "96-97 \u00b0C"}}