{"cas_no": "37143-54-7", "cn_name": "1-\u7532\u6c27\u57fa-2-\u4e19\u80fa", "en_name": ["2-Amino-1-methoxypropane", "2-Propanamine, 1-methoxy-", "Ethylamine, 2-methoxy-1-methyl-", "Ethylamine, 2-methoxymethyl-", "1-Methoxy-2-propanamine", "1-Methyl-2-methoxyethylamine", "Methoxyisopropylamine", "1-Methoxy-2-propylamine", "1-Methoxy-2-aminopropane", "1-Methoxyisopropylamine", "2-Amino-1-methoxypropane", "(\u00b1)-1-Methoxy-2-propylamine", "(\u00b1)-1-Methoxy-2-propanamine", "DL-Alaninol methyl ether", "2-Methoxy-1-methylethylamine", "(1-Methoxypropan-2-yl)amine"], "SMILES": "C(C(C)N)OC", "physical_data": {"Molecular Weight": "89.14", "Molecular Formula": "C4H11NO", "Boiling Point": "92.5-93.5 \u00b0C @ Press: 743 Torr"}}