{"cas_no": "37148-48-4", "cn_name": "3,5-\u4e8c\u6c2f-4-\u6c28\u57fa\u82ef\u4e59\u916e", "en_name": ["1-(4-Amino-3,5-dichlorophenyl)ethanone", "Ethanone, 1-(4-amino-3,5-dichlorophenyl)-", "1-(4-Amino-3,5-dichlorophenyl)ethanone", "4\u2032-Amino-3\u2032,5\u2032-dichloroacetophenone", "4-Acetyl-2,6-dichloroaniline", "3,5-Dichloro-4-aminoacetophenone", "1-(4-Amino-3,5-dichlorophenyl)ethan-1-one"], "SMILES": "C(C)(=O)C1=CC(Cl)=C(N)C(Cl)=C1", "physical_data": {"Molecular Weight": "204.05", "Molecular Formula": "C8H7Cl2NO", "Melting Point": "162-163.5 \u00b0C"}}