{"cas_no": "37148-47-3", "cn_name": "4-\u6c28\u57fa-3,5-\u4e8c\u6c2f-\u0391-\u6eb4\u4ee3\u82ef\u4e59\u916e", "en_name": ["1-(4-Amino-3,5-dichlorophenyl)-2-bromoethanone", "Ethanone, 1-(4-amino-3,5-dichlorophenyl)-2-bromo-", "1-(4-Amino-3,5-dichlorophenyl)-2-bromoethanone", "4-Amino-\u03c9-bromo-3,5-dichloroacetophenone", "4-Amino-3,5-dichlorophenacyl bromide", "4-Amino-\u03b1-bromo-3,5-dichloroacetophenone", "1-(4-Amino-3,5-dichlorophenyl)-2-bromoethan-1-one", "1-(4-Amino-3,5-dichlorophenyl)-2-bromo-1-ethanone"], "SMILES": "C(CBr)(=O)C1=CC(Cl)=C(N)C(Cl)=C1", "physical_data": {"Molecular Weight": "282.95", "Molecular Formula": "C8H6BrCl2NO", "Melting Point": "140-142 \u00b0C"}}