{"cas_no": "37156-84-6", "cn_name": "4-(5-\u6c28\u57fa-6-\u82c4\u57fa\u5421\u55ea-2-\u57fa)\u82ef\u915a", "en_name": ["4-[5-Amino-6-(phenylmethyl)-2-pyrazinyl]phenol", "Phenol, 4-[5-amino-6-(phenylmethyl)-2-pyrazinyl]-", "Phenol, 4-[5-amino-6-(phenylmethyl)pyrazinyl]-", "4-[5-Amino-6-(phenylmethyl)-2-pyrazinyl]phenol", "2-Amino-3-benzyl-5-(4\u2032-hydroxyphenyl)pyrazine", "2-Amino-3-benzyl 5-(p-hydroxyphenyl)pyrazine", "Coelenteramine", "Etioluciferin (Oplophorus)", "Etioluciferin", "Aetioluciferin", "2-Amino-3-benzyl-5-(4-hydroxyphenyl)pyrazine", "4-(5-Amino-6-benzylpyrazin-2-yl)phenol"], "SMILES": "C(C=1N=C(C=NC1N)C2=CC=C(O)C=C2)C3=CC=CC=C3", "physical_data": {"Molecular Weight": "277.32", "Molecular Formula": "C17H15N3O", "Melting Point": "201.6-203.1 \u00b0C"}}