{"cas_no": "3715-29-5", "cn_name": "3-\u7532\u57fa-2-\u6c27\u4ee3\u4e01\u9178\u94a0", "en_name": ["Sodium 3-methyl-2-oxobutanoate", "Butanoic acid, 3-methyl-2-oxo-, sodium salt (1:1)", "Butyric acid, 3-methyl-2-oxo-, sodium salt", "Butanoic acid, 3-methyl-2-oxo-, sodium salt", "Sodium \u03b1-ketoisovalerate", "Sodium \u03b1-oxoisovalerate", "Sodium 3-methyl-2-oxobutyrate", "Sodium dimethylpyruvate", "3-Methyl-2-oxobutanoic acid sodium salt", "Sodium 3-methyl-2-oxobutanoate"], "SMILES": "C(C(C)C)(C(O)=O)=O.[Na]", "physical_data": {"Molecular Weight": "", "Molecular Formula": "C5H8O3.Na", "Melting Point": "223-226 \u00b0C"}}