{"cas_no": "37161-74-3", "cn_name": "2-\u82ef\u57fa\u73af\u6c27\u4e59\u70f7-1-\u7fa7\u9178\u7532\u916f", "en_name": ["Methyl 3-phenyl-2-oxiranecarboxylate", "2-Oxiranecarboxylic acid, 3-phenyl-, methyl ester", "Oxiranecarboxylic acid, 3-phenyl-, methyl ester", "Glycidic acid, 3-phenyl-, methyl ester", "Methyl 3-phenyl-2-oxiranecarboxylate", "1-Phenyl-2-methoxycarbonyloxirane", "Methyl \u03b2-phenylglycidate", "Methyl 2-phenyloxirane-1-carboxylate", "NSC 53768", "(\u00b1)-Methyl 2,3-epoxycinnamate", "Methyl 3-phenyloxiran-2-carboxylate"], "SMILES": "C(OC)(=O)C1C(O1)C2=CC=CC=C2", "physical_data": {"Molecular Weight": "178.18", "Molecular Formula": "C10H10O3", "Boiling Point": "115-116 \u00b0C @ Press: 6 Torr"}}