{"cas_no": "3717-28-0", "cn_name": "\u90bb\u6c2f\u82ef\u7532\u919b\u809f", "en_name": ["2-Chlorobenzaldehyde oxime", "Benzaldehyde, 2-chloro-, oxime", "Benzaldehyde, o-chloro-, oxime", "o-Chlorobenzaldoxime", "2-Chlorobenzaldoxime", "2-Chlorobenzaldehyde oxime", "o-Chlorobenzaldehyde oxime", "NSC 61415"], "SMILES": "C(=NO)C1=C(Cl)C=CC=C1", "physical_data": {"Molecular Weight": "155.58", "Molecular Formula": "C7H6ClNO", "Boiling Point": "214-216 \u00b0C @ Press: 760 Torr", "Melting Point": "100 \u00b0C"}}