{"cas_no": "3717-88-2", "cn_name": "\u76d0\u9178\u9ec4\u916e\u54cc\u916f", "en_name": ["Flavoxate hydrochloride", "4H-1-Benzopyran-8-carboxylic acid, 3-methyl-4-oxo-2-phenyl-, 2-(1-piperidinyl)ethyl ester, hydrochloride (1:1)", "4H-1-Benzopyran-8-carboxylic acid, 3-methyl-4-oxo-2-phenyl-, 2-piperidinoethyl ester, hydrochloride", "4H-1-Benzopyran-8-carboxylic acid, 3-methyl-4-oxo-2-phenyl-, 2-(1-piperidinyl)ethyl ester, hydrochloride", "1-Piperidineethanol, 3-methyl-4-oxo-2-phenyl-4H-1-benzopyran-8-carboxylate (ester), hydrochloride", "Flavoxate hydrochloride", "Piperidinoethyl-3-methylflavone-8-carboxylate hydrochloride", "DW 61", "Peflate", "Rec 7/0040", "Spasmal", "Urispas", "Bladderon", "Genurin", "Patricin", "Spasuret", "NSC 114649", "2-(Piperidin-1-yl)ethyl 3-methyl-4-oxo-2-phenyl-4H-chromene-8-carboxylate hydrochloride"], "SMILES": "C(OCCN1CCCCC1)(=O)C2=C3C(C(=O)C(C)=C(O3)C4=CC=CC=C4)=CC=C2.Cl", "physical_data": {"Molecular Weight": "", "Molecular Formula": "C24H25NO4.ClH", "Melting Point": "232-234 \u00b0C"}}