{"cas_no": "37199-66-9", "cn_name": "\u805a\u786b\u5316\u9240", "en_name": ["Potassium polysulfide", "Potassium sulfide (K2(Sx))", "Potassium polysulfide"], "SMILES": "", "physical_data": {"Molecular Weight": "", "Molecular Formula": "Unspecified", "Melting Point": "400 \u00b0C"}}