{"cas_no": "372-30-5", "cn_name": "3-\u7f9f\u57fa-4,4,4-\u4e09\u6c1f\u4e01\u9178\u4e59\u916f", "en_name": ["Ethyl 4,4,4-trifluoro-3-hydroxybutanoate", "Butanoic acid, 4,4,4-trifluoro-3-hydroxy-, ethyl ester", "Butyric acid, 4,4,4-trifluoro-3-hydroxy-, ethyl ester", "Ethyl 4,4,4-trifluoro-3-hydroxybutanoate", "Ethyl 4,4,4-trifluoro-3-hydroxybutyrate", "Ethyl 3-hydroxy-4,4,4-trifluorobutyrate"], "SMILES": "C(C(C(F)(F)F)O)C(OCC)=O", "physical_data": {"Molecular Weight": "186.13", "Molecular Formula": "C6H9F3O3", "Boiling Point": "90-91 \u00b0C @ Press: 50 Torr", "Melting Point": "25.5 \u00b0C", "Density": "1.259 g/cm\u00b3 @ Temp: 25 \u00b0C"}}