{"cas_no": "372-38-3", "cn_name": "1,3,5-\u4e09\u6c1f\u82ef", "en_name": ["1,3,5-Trifluorobenzene", "Benzene, 1,3,5-trifluoro-", "1,3,5-Trifluorobenzene", "sym-Trifluorobenzene", "NSC 10264"], "SMILES": "FC1=CC(F)=CC(F)=C1", "physical_data": {"Molecular Weight": "132.08", "Molecular Formula": "C6H3F3", "Boiling Point": "75.5 \u00b0C", "Melting Point": "-5.5 \u00b0C", "Density": "1.277 g/cm\u00b3 @ Temp: 20 \u00b0C"}}