{"cas_no": "372-48-5", "cn_name": "2-\u6c1f\u5421\u5576", "en_name": ["2-Fluoropyridine", "Pyridine, 2-fluoro-", "2-Fluoropyridine", "NSC 5077", "2-Pyridyl fluoride"], "SMILES": "FC1=CC=CC=N1", "physical_data": {"Molecular Weight": "97.09", "Molecular Formula": "C5H4FN", "Boiling Point": "127 \u00b0C", "Density": "1.1281 g/cm\u00b3 @ Temp: 20 \u00b0C"}}