{"cas_no": "372-16-7", "cn_name": "\u5bf9\u4e09\u6c1f\u7532\u786b\u57fa\u82ef\u80fa", "en_name": ["4-[(Trifluoromethyl)thio]benzenamine", "Benzenamine, 4-[(trifluoromethyl)thio]-", "Aniline, p-[(trifluoromethyl)thio]-", "4-[(Trifluoromethyl)thio]benzenamine", "p-[(Trifluoromethyl)thio]aniline", "4-[(Trifluoromethyl)mercapto]benzenamine", "4-Trifluoromethylthioaniline", "p-Aminophenyl trifluoromethyl sulfide", "4-(Trifluoromethanethio)aniline", "4-Trifluoromethylsulfanylphenylamine", "4-Trifluoromethylsulfanylaniline", "p-Trifluoromethylsulfanylphenylamine", "4-(Trifluoromethylsufanyl)phenylamine", "4-Aminophenyl trifluoromethylsulfide"], "SMILES": "S(C(F)(F)F)C1=CC=C(N)C=C1", "physical_data": {"Molecular Weight": "193.19", "Molecular Formula": "C7H6F3NS", "Boiling Point": "102-103 \u00b0C @ Press: 8 Torr"}}