{"cas_no": "372-31-6", "cn_name": "\u4e09\u6c1f\u4e59\u9170\u4e59\u9178\u4e59\u916f", "en_name": ["Ethyl 4,4,4-trifluoroacetoacetate", "Butanoic acid, 4,4,4-trifluoro-3-oxo-, ethyl ester", "Acetoacetic acid, 4,4,4-trifluoro-, ethyl ester", "Ethyl 4,4,4-trifluoroacetoacetate", "Ethyl (trifluoroacetyl)acetate", "Ethyl \u03b3,\u03b3,\u03b3-trifluoroacetoacetate", "Ethyl 4,4,4-trifluoro-3-oxobutanoate", "Ethyl 4,4,4-trifluoro-3-oxobutyrate", "Ethyl 3-oxo-4,4,4-trifluorobutanoate", "Ethyl trifluoroacetoacetate", "Ethyl \u03c9,\u03c9,\u03c9-trifluoroacetoacetate", "Ethyl 4,4,4-trifluoroacetylacetonate", "1-Ethoxy-4,4,4-trifluorobutane-1,3-dione", "4,4,4-Trifluoro-3-oxobutanoic acid ethyl ester", "4,4,4-Trifluoroacetoacetic acid ethyl ester", "NSC 42739", "NSC 49750", "4,4,4-Trifluoro-3-oxo-butyric acid ethyl ester", "Ethyl-4,4,4-trifloro-3-oxo-butanoate"], "SMILES": "C(C(C(F)(F)F)=O)C(OCC)=O", "physical_data": {"Molecular Weight": "184.11", "Molecular Formula": "C6H7F3O3", "Boiling Point": "133 \u00b0C"}}