{"cas_no": "372-18-9", "cn_name": "1,3-\u4e8c\u6c1f\u82ef", "en_name": ["1,3-Difluorobenzene", "Benzene, 1,3-difluoro-", "Benzene, m-difluoro-", "1,3-Difluorobenzene", "m-Difluorobenzene", "NSC 10285", "2,4-Difluorobenzene", "1,3-Bisfluorobenzene"], "SMILES": "FC1=CC(F)=CC=C1", "physical_data": {"Molecular Weight": "114.09", "Molecular Formula": "C6H4F2", "Boiling Point": "82.6 \u00b0C", "Melting Point": "-69 \u00b0C", "Density": "1.1651 g/cm\u00b3 @ Temp: 15.5 \u00b0C"}}