{"cas_no": "372-29-2", "cn_name": "3-\u6c28\u57fa-4,4,4-\u4e09\u6c1f\u5df4\u8c46\u9178\u4e59\u916f", "en_name": ["Ethyl 3-amino-4,4,4-trifluoro-2-butenoate", "2-Butenoic acid, 3-amino-4,4,4-trifluoro-, ethyl ester", "Crotonic acid, 3-amino-4,4,4-trifluoro-, ethyl ester", "Ethyl 3-amino-4,4,4-trifluoro-2-butenoate", "Ethyl 3-amino-4,4,4-trifluorocrotonate", "3-Amino-4,4,4-trifluorocrotonic acid ethyl ester", "3-Amino-4,4,4-trifluoro-2-butenoic acid ethyl ester"], "SMILES": "C(=C(C(F)(F)F)N)C(OCC)=O", "physical_data": {"Molecular Weight": "183.13", "Molecular Formula": "C6H8F3NO2", "Melting Point": "25 \u00b0C"}}