{"cas_no": "372-93-0", "cn_name": "4-\u6c1f-1-\u4e01\u9187", "en_name": ["4-Fluoro-1-butanol", "1-Butanol, 4-fluoro-", "4-Fluoro-1-butanol"], "SMILES": "C(CCO)CF", "physical_data": {"Molecular Weight": "92.11", "Molecular Formula": "C4H9FO", "Boiling Point": "52.0-53.0 \u00b0C @ Press: 11 Torr"}}