{"cas_no": "372-75-8", "cn_name": "L-\u74dc\u6c28\u9178", "en_name": ["Citrulline", "L-Ornithine, N5-(aminocarbonyl)-", "Ornithine, N5-carbamoyl-, L-", "N5-(Aminocarbonyl)-L-ornithine", "\u03b1-Amino-\u03b4-ureidovaleric acid", "N\u03b4-Carbamylornithine", "\u03b4-Ureidonorvaline", "Citrulline", "N5-Carbamoyl-L-ornithine", "Cit", "L-Citrulline", "NSC 27425", "L-(+)-Citrulline", "164: PN: US20220128567 SEQID: 529 claimed sequence", "164: PN: US20220178935 SEQID: 529 claimed sequence", "MeSH ID: D002956"], "SMILES": "C(CCNC(N)=O)C(C(O)=O)N", "physical_data": {"Molecular Weight": "175.19", "Molecular Formula": "C6H13N3O3", "Melting Point": "235.5 \u00b0C"}}