{"cas_no": "372-20-3", "cn_name": "3-\u6c1f\u82ef\u915a", "en_name": ["3-Fluorophenol", "Phenol, 3-fluoro-", "Phenol, m-fluoro-", "3-Fluorophenol", "m-Fluorophenol", "NSC 87078"], "SMILES": "FC1=CC(O)=CC=C1", "physical_data": {"Molecular Weight": "112.10", "Molecular Formula": "C6H5FO", "Boiling Point": "178 \u00b0C", "Melting Point": "13.7 \u00b0C"}}