{"cas_no": "372-19-0", "cn_name": "3-\u6c1f\u82ef\u80fa", "en_name": ["3-Fluoroaniline", "Benzenamine, 3-fluoro-", "Aniline, m-fluoro-", "3-Fluorobenzenamine", "3-Fluoroaniline", "m-Fluorophenylamine", "1-Amino-3-fluorobenzene", "m-Fluoroaniline", "3-Fluorophenylamine", "NSC 10300", "4-Amino-2-fluorobenzene"], "SMILES": "FC1=CC(N)=CC=C1", "physical_data": {"Molecular Weight": "111.12", "Molecular Formula": "C6H6FN", "Boiling Point": "188 \u00b0C", "Melting Point": "-5 \u00b0C", "Density": "1.16004 g/cm\u00b3 @ Temp: 15.8 \u00b0C"}}