{"cas_no": "372-47-4", "cn_name": "3-\u6c1f\u5421\u5576", "en_name": ["3-Fluoropyridine", "Pyridine, 3-fluoro-", "3-Fluoropyridine", "NSC 5078"], "SMILES": "FC=1C=CC=NC1", "physical_data": {"Molecular Weight": "97.09", "Molecular Formula": "C5H4FN", "Boiling Point": "107.5 \u00b0C"}}