{"cas_no": "372-39-4", "cn_name": "3,5-\u4e8c\u6c1f\u82ef\u80fa", "en_name": ["3,5-Difluoroaniline", "Benzenamine, 3,5-difluoro-", "Aniline, 3,5-difluoro-", "3,5-Difluorobenzenamine", "3,5-Difluoroaniline", "3,5-Difluoronitroaniline", "3,5-Difluorophenylamine", "NSC 81289", "3,5-Fluoroaniline"], "SMILES": "FC1=CC(F)=CC(N)=C1", "physical_data": {"Molecular Weight": "129.11", "Molecular Formula": "C6H5F2N", "Melting Point": "39-40 \u00b0C"}}