{"cas_no": "372-46-3", "cn_name": "\u6c1f\u4ee3\u73af\u5df1\u80fa", "en_name": ["Fluorocyclohexane", "Cyclohexane, fluoro-", "Fluorocyclohexane", "Cyclohexyl fluoride"], "SMILES": "FC1CCCCC1", "physical_data": {"Molecular Weight": "102.15", "Molecular Formula": "C6H11F", "Boiling Point": "101 \u00b0C", "Melting Point": "13 \u00b0C", "Density": "0.9296 g/cm\u00b3 @ Temp: 20 \u00b0C"}}