{"cas_no": "372-09-8", "cn_name": "\u6c30\u4e59\u9178", "en_name": ["Cyanoacetic acid", "Acetic acid, 2-cyano-", "Acetic acid, cyano-", "2-Cyanoacetic acid", "Cyanoacetic acid", "Malonic mononitrile", "Monocyanoacetic acid", "Cyanoethanoic acid", "NSC 5571"], "SMILES": "C(C(O)=O)C#N", "physical_data": {"Molecular Weight": "85.06", "Molecular Formula": "C3H3NO2", "Boiling Point": "108 \u00b0C @ Press: 15 Torr", "Melting Point": "66 \u00b0C"}}