{"cas_no": "3720-16-9", "cn_name": "\u82b9\u83dc\u916e", "en_name": ["Celery ketone", "2-Cyclohexen-1-one, 3-methyl-5-propyl-", "3-Methyl-5-propyl-2-cyclohexen-1-one", "Livescone", "3-Methyl-5-propyl-2-cyclohexene-1-one", "Celery ketone", "3-Methyl-5-propyl-2-cyclohexenone"], "SMILES": "C(CC)C1CC(C)=CC(=O)C1", "physical_data": {"Molecular Weight": "152.23", "Molecular Formula": "C10H16O", "Boiling Point": "110-113 \u00b0C @ Press: 9 Torr"}}