{"cas_no": "372137-35-4", "cn_name": "\u82ef\u5627\u78fa\u8349\u80fa", "en_name": ["Saflufenacil", "Benzamide, 2-chloro-5-[3,6-dihydro-3-methyl-2,6-dioxo-4-(trifluoromethyl)-1(2H)-pyrimidinyl]-4-fluoro-N-[[methyl(1-methylethyl)amino]sulfonyl]-", "2-Chloro-5-[3,6-dihydro-3-methyl-2,6-dioxo-4-(trifluoromethyl)-1(2H)-pyrimidinyl]-4-fluoro-N-[[methyl(1-methylethyl)amino]sulfonyl]benzamide", "Saflufenacil", "2-Chloro-5-[3,6-dihydro-3-methyl-2,6-dioxo-4-trifluoromethyl-1(2H)-pyrimidinyl]-4-fluoro-N-[[N-methyl-N-(1-methylethyl)amino]sulfonyl]benzamide", "N\u2032-[2-Chloro-4-fluoro-5-[1,2,3,6-tetrahydro-3-methyl-2,6-dioxo-4-(trifluoromethyl)pyrimidin-1-yl]benzoyl]-N-isopropyl-N-methylsulfamide", "Treevix", "Kixor", "2-Chloro-4-fluoro-N-[isopropyl(methyl)sulfamoyl]-5-[3-methyl-2,6-dioxo-4-(trifluoromethyl)pyrimidin-1-yl]benzamide", "Eragon", "Sharpen", "Benmihuangcaoan", "2-Chloro-5-[3,6-dihydro-3-methyl-2,6-dioxo-4-(trifluoromethyl)-1(2H)-pyrimidinyl]-4-fluoro-N-[(isopropyl)methylsulfamoyl]benzamide"], "SMILES": "FC=1C(=CC(C(NS(N(C(C)C)C)(=O)=O)=O)=C(Cl)C1)N2C(=O)N(C)C(C(F)(F)F)=CC2=O", "physical_data": {"Molecular Weight": "500.85", "Molecular Formula": "C17H17ClF4N4O5S", "Melting Point": "189.2-191.4 \u00b0C"}}