{"cas_no": "3721-95-7", "cn_name": "\u73af\u4e01\u57fa\u7532\u9178", "en_name": ["Cyclobutanecarboxylic acid", "Cyclobutanecarboxylic acid", "Cyclobutylcarboxylic acid", "Cyclobutane-1-carboxylic acid", "NSC 4535", "Cyclobutanoic acid"], "SMILES": "C(O)(=O)C1CCC1", "physical_data": {"Molecular Weight": "100.12", "Molecular Formula": "C5H8O2", "Boiling Point": "190 \u00b0C", "Melting Point": "-2 \u00b0C", "Density": "1.0470 g/cm\u00b3 @ Temp: 420 \u00b0C"}}