{"cas_no": "37239-47-7", "cn_name": "\u96f7\u516c\u85e4\u7cbe\u78b1", "en_name": ["Wilforgine", "3-Furancarboxylic acid, (8R,9R,10R,11S,12R,13R,14R,15S,18S,21S,22S,23R)-10,13,22,23-tetrakis(acetyloxy)-12-[(acetyloxy)methyl]-7,8,9,10,12,13,14,15,17,18,19,20-dodecahydro-21-hydroxy-8,18,21-trimethyl-5,17-dioxo-8,11-epoxy-9,12-ethano-11,15-methano-5H,11H-[1,9]dioxacyclooctadecino[4,3-b]pyridin-14-yl ester", "Evonimine, 8-(acetyloxy)-O2-deacetyl-8-deoxo-O2-(3-furanylcarbonyl)-, (8\u03b1)-", "Wilforgine", "Wilforgin"], "SMILES": "C(OC(C)=O)C12C34C(OC(C)=O)C(C(C)(O3)COC(=O)C=5C(CCC(C)C(=O)OC(C4(C)O)C(OC(=O)C=6C=COC6)C1OC(C)=O)=NC=CC5)C(OC(C)=O)C2OC(C)=O", "physical_data": {"Molecular Weight": "857.81", "Molecular Formula": "C41H47NO19", "Melting Point": "211 \u00b0C"}}