{"cas_no": "3724-52-5", "cn_name": "\u73af\u620a\u70f7\u56db\u7fa7\u9178", "en_name": ["1,2,3,4-Cyclopentanetetracarboxylic acid", "1,2,3,4-Cyclopentanetetracarboxylic acid", "1,2,3,4-Tetracarboxycyclopentane"], "SMILES": "C(O)(=O)C1C(C(O)=O)C(C(O)=O)CC1C(O)=O", "physical_data": {"Molecular Weight": "246.17", "Molecular Formula": "C9H10O8", "Melting Point": "194 \u00b0C"}}