{"cas_no": "3724-16-1", "cn_name": "\u5421\u5576-3-\u4e59\u9170\u80fa", "en_name": ["3-Pyridineacetamide", "3-Pyridineacetamide", "3-Pyridylacetamide", "\u03b2-Pyridylethanamide", "2-(Pyridin-3-yl)acetamide", "2-(Pyridine-3-yl)-acetamide"], "SMILES": "C(C(N)=O)C=1C=CC=NC1", "physical_data": {"Molecular Weight": "136.15", "Molecular Formula": "C7H8N2O", "Melting Point": "123 \u00b0C"}}