{"cas_no": "3724-43-4", "cn_name": "(\u6c2f\u4e9a\u7532\u57fa)\u4e8c\u7532\u57fa\u6c2f\u5316\u94f5", "en_name": ["(Chloromethylene)dimethylammonium chloride", "Methanaminium, N-(chloromethylene)-N-methyl-, chloride (1:1)", "Ammonium, (chloromethylene)dimethyl-, chloride", "Methanaminium, N-(chloromethylene)-N-methyl-, chloride", "(Chloromethylene)dimethylammonium chloride", "Chlorodimethylformiminium chloride", "Dimethyl(chloromethylene)ammonium chloride", "Dimethylchloroformiminium chloride", "Chloro(dimethylamino)methylium chloride", "Arnold's reagent", "N,N-Dimethylchloroformiminium chloride", "Reagents, Arnold's", "N-(Chloromethylene)-N-methylmethanaminium chloride"], "SMILES": "[N+](=CCl)(C)C.[Cl-]", "physical_data": {"Molecular Weight": "", "Molecular Formula": "C3H7ClN.Cl", "Melting Point": "135.5-138.0 \u00b0C"}}