{"cas_no": "3724-55-8", "cn_name": "3-\u4e01\u70ef\u9178\u7532\u916f", "en_name": ["Methyl 3-butenoate", "3-Butenoic acid, methyl ester", "Methyl 3-butenoate", "NSC 250983"], "SMILES": "C(CC=C)(OC)=O", "physical_data": {"Molecular Weight": "100.12", "Molecular Formula": "C5H8O2", "Boiling Point": "107 \u00b0C @ Press: 742 Torr"}}