{"cas_no": "3724-26-3", "cn_name": "\u54aa\u5511-2-\u7532\u9187", "en_name": ["1H-Imidazole-2-methanol", "1H-Imidazole-2-methanol", "Imidazole-2-methanol", "2-(Hydroxymethyl)imidazole", "1H-Imidazol-2-ylmethanol", "2-Hydroxymethyl-1H-imidazole"], "SMILES": "C(O)C=1NC=CN1", "physical_data": {"Molecular Weight": "98.10", "Molecular Formula": "C4H6N2O", "Melting Point": "&gt;160 \u00b0C (decomp)"}}