{"cas_no": "3724-19-4", "cn_name": "3-(3-\u5421\u5576\u57fa)\u4e19\u9178", "en_name": ["3-Pyridinepropanoic acid", "3-Pyridinepropanoic acid", "3-Pyridinepropionic acid", "3-(3-Pyridyl)propanoic acid", "3-(3-Pyridyl)propionic acid", "3-(3\u2032-Pyridyl)propionic acid", "3-(3-Pyridinyl)propanoic acid", "NSC 89720", "3-(Pyridin-3-yl)propanoic acid", "3-(Pyridin-3-yl)propionic acid", "3-Pyridylpropionic acid"], "SMILES": "C(CC(O)=O)C=1C=CC=NC1", "physical_data": {"Molecular Weight": "151.16", "Molecular Formula": "C8H9NO2", "Melting Point": "160-162 \u00b0C"}}