{"cas_no": "37248-47-8", "cn_name": "\u4e95\u5188\u9709\u7d20", "en_name": ["Validamycin A", "D-chiro-Inositol, 1,5,6-trideoxy-4-O-\u03b2-D-glucopyranosyl-5-(hydroxymethyl)-1-[[(1S,4R,5S,6S)-4,5,6-trihydroxy-3-(hydroxymethyl)-2-cyclohexen-1-yl]amino]-", "D-chiro-Inositol, 1,5,6-trideoxy-4-O-\u03b2-D-glucopyranosyl-5-(hydroxymethyl)-1-[[4,5,6-trihydroxy-3-(hydroxymethyl)-2-cyclohexen-1-yl]amino]-, [1S-(1\u03b1,4\u03b1,5\u03b2,6\u03b1)]-", "1,5,6-Trideoxy-4-O-\u03b2-D-glucopyranosyl-5-(hydroxymethyl)-1-[[(1S,4R,5S,6S)-4,5,6-trihydroxy-3-(hydroxymethyl)-2-cyclohexen-1-yl]amino]-D-chiro-inositol", "Validamycin A", "Validacin", "Cepex 10SL", "Jinggangmycin A", "Jinggangmycin", "Validamycin", "Jinggang", "Jinganmycin A"], "SMILES": "O(C1C(CO)CC(NC2C=C(CO)C(O)C(O)C2O)C(O)C1O)C3OC(CO)C(O)C(O)C3O", "physical_data": {"Molecular Weight": "497.49", "Molecular Formula": "C20H35NO13", "Melting Point": "130-135 \u00b0C (decomp)"}}