{"cas_no": "3724-10-5", "cn_name": "2-(\u7532\u57fa\u786b\u4ee3)\u82ef\u7532\u9178", "en_name": ["2-(Methylthio)benzoic acid", "Benzoic acid, 2-(methylthio)-", "Benzoic acid, o-(methylthio)-", "Benzoic acid, o-methylmercapto-", "2-(Methylthio)benzoic acid", "o-(Methylthio)benzoic acid", "2-Methylmercaptobenzoic acid", "2-Carboxyphenyl methyl sulfide", "NSC 104019", "NSC 145347", "NSC 151478", "NSC 218090", "NSC 221934", "NSC 266228"], "SMILES": "S(C)C1=C(C(O)=O)C=CC=C1", "physical_data": {"Molecular Weight": "168.21", "Molecular Formula": "C8H8O2S", "Melting Point": "169-170 \u00b0C"}}