{"cas_no": "3724-65-0", "cn_name": "\u53cd\u5f0f\u4e01\u70ef\u9178", "en_name": ["Crotonic acid", "2-Butenoic acid", "Crotonic acid", "\u03b1-Butenoic acid", "3-Methylacrylic acid", "NSC 206946", "MeSH ID: D003437"], "SMILES": "C(C(O)=O)=CC", "physical_data": {"Molecular Weight": "86.09", "Molecular Formula": "C4H6O2", "Boiling Point": "185 \u00b0C", "Melting Point": "72 \u00b0C", "Density": "1.018 g/cm\u00b3 @ Temp: 15 \u00b0C"}}