{"cas_no": "3725-39-1", "cn_name": "1-\u5417\u5549-1-\u73af\u5341\u4e8c\u70f7\u70ef", "en_name": ["1-Morpholino-1-cyclododecene", "Morpholine, 4-(1-cyclododecen-1-yl)-", "Cyclododecane, morpholine deriv.", "4-(1-Cyclododecen-1-yl)morpholine", "1-Morpholinocyclododecene", "1-Morpholino-1-cyclododecene"], "SMILES": "N1(CCOCC1)C=2CCCCCCCCCCC2", "physical_data": {"Molecular Weight": "251.41", "Molecular Formula": "C16H29NO", "Boiling Point": "128-130 \u00b0C @ Press: 0.05 Torr"}}