{"cas_no": "3726-23-6", "cn_name": "\u70df\u9170\u80fa\u6c22\u7898", "en_name": ["3-Pyridinecarboxamide, hydriodide (1:1)", "3-Pyridinecarboxamide, hydriodide (1:1)", "Nicotinamide, monohydriodide", "3-Pyridinecarboxamide, monohydriodide", "Nicotinamide hydriodide"], "SMILES": "C(N)(=O)C=1C=CC=NC1.I", "physical_data": {"Molecular Weight": "", "Molecular Formula": "C6H6N2O.HI", "Melting Point": "223-226 \u00b0C"}}