{"cas_no": "3728-20-9", "cn_name": "D-\u916a\u6c28\u9178\u7532\u916f\u76d0\u9178\u76d0", "en_name": ["D-Tyrosine, methyl ester, hydrochloride", "D-Tyrosine, methyl ester, hydrochloride (1:1)", "Tyrosine, methyl ester, hydrochloride, D-", "D-Tyrosine, methyl ester, hydrochloride", "Methyl D-tyrosinate hydrochloride"], "SMILES": "C(C(C(OC)=O)N)C1=CC=C(O)C=C1.Cl", "physical_data": {"Molecular Weight": "", "Molecular Formula": "C10H13NO3.ClH", "Melting Point": "177-179 \u00b0C"}}