{"cas_no": "3728-56-1", "cn_name": "1-\u4e59\u57fa-4-\u7532\u57fa\u73af\u5df1\u70f7", "en_name": ["1-Ethyl-4-methylcyclohexane", "Cyclohexane, 1-ethyl-4-methyl-", "1-Ethyl-4-methylcyclohexane", "1-Methyl-4-ethylcyclohexane"], "SMILES": "C(C)C1CCC(C)CC1", "physical_data": {"Molecular Weight": "126.24", "Molecular Formula": "C9H18", "Boiling Point": "147 \u00b0C", "Density": "0.7884 g/cm\u00b3 @ Temp: 15 \u00b0C"}}