{"cas_no": "37280-56-1", "cn_name": "\u9152\u77f3\u9178\u5409\u4ed6\u9709\u7d20", "en_name": ["Leucomycin, (2R,3R)-2,3-dihydroxybutanedioate (1:?)", "Leucomycin, (2R,3R)-2,3-dihydroxybutanedioate (1:?)", "Leucomycin, [R-(R*,R*)]-2,3-dihydroxybutanedioate (salt)", "Leucomycin, (2R,3R)-2,3-dihydroxybutanedioate (salt)", "Leucomycin tartrate", "Kitasamycin tartrate", "Trubin"], "SMILES": "", "physical_data": {"Molecular Weight": "", "Molecular Formula": "C4H6O6.xUnspecified", "Melting Point": "125 \u00b0C"}}