{"cas_no": "373-44-4", "cn_name": "1,8-\u8f9b\u4e8c\u80fa", "en_name": ["1,8-Octanediamine", "1,8-Octanediamine", "1,8-Diaminooctane", "Octamethylenediamine", "1,8-Octamethylenediamine", "1,8-Octylenediamine", "1,8-Diamino-n-octane", "\u03b1,\u03c9-Octanediamine"], "SMILES": "C(CCCCN)CCCN", "physical_data": {"Molecular Weight": "144.26", "Molecular Formula": "C8H20N2", "Boiling Point": "225 \u00b0C", "Melting Point": "52 \u00b0C"}}