{"cas_no": "373-96-6", "cn_name": "2,2-\u4e8c\u6c1f\u4e19\u9178", "en_name": ["2,2-Difluoropropanoic acid", "Propanoic acid, 2,2-difluoro-", "Propionic acid, 2,2-difluoro-", "2,2-Difluoropropanoic acid", "\u03b1,\u03b1-Difluoropropionic acid", "2,2-Difluoropropionic acid"], "SMILES": "C(C(O)=O)(C)(F)F", "physical_data": {"Molecular Weight": "110.06", "Molecular Formula": "C3H4F2O2", "Boiling Point": "140-141 \u00b0C"}}