{"cas_no": "373-49-9", "cn_name": "\u68d5\u6988\u6cb9\u9178", "en_name": ["Palmitoleic acid", "9-Hexadecenoic acid, (9Z)-", "9-Hexadecenoic acid, (Z)-", "Palmitoleic acid", "(9Z)-9-Hexadecenoic acid", "cis-\u03949-Hexadecenoic acid", "cis-9-Hexadecenoic acid", "9-cis-Hexadecenoic acid", "(Z)-9-Hexadecenoic acid", "Zoomeric acid", "cis-Palmitoleic acid", "C16:1", "Oleopalmitic acid", "9Z-Hexadecenoic acid", "9-Hexadecenoic acid", "(Z)-Hexadec-9-enoic acid"], "SMILES": "C(CCC=CCCCCCC)CCCCC(O)=O", "physical_data": {"Molecular Weight": "254.41", "Molecular Formula": "C16H30O2", "Boiling Point": "146 \u00b0C @ Press: 0.4 Torr", "Melting Point": "-0.1 \u00b0C"}}