{"cas_no": "373-68-2", "cn_name": "\u56db\u7532\u57fa\u6c1f\u5316\u94f5", "en_name": ["Tetramethylammonium fluoride", "Methanaminium, N,N,N-trimethyl-, fluoride (1:1)", "Ammonium, tetramethyl-, fluoride", "Methanaminium, N,N,N-trimethyl-, fluoride", "Tetramethylammonium fluoride", "TMAF"], "SMILES": "[N+](C)(C)(C)C.[F-]", "physical_data": {"Molecular Weight": "", "Molecular Formula": "C4H12N.F", "Melting Point": "180 \u00b0C (decomp)"}}