{"cas_no": "373-53-5", "cn_name": "\u6c1f\u7898\u7532\u70f7", "en_name": ["Methane, fluoroiodo-", "Methane, fluoroiodo-", "Fluoroiodomethane", "Fluoroiodomethane (CH2FI)", "Fluoromethyl iodide"], "SMILES": "C(F)I", "physical_data": {"Molecular Weight": "159.93", "Molecular Formula": "CH2FI", "Boiling Point": "53.4 \u00b0C", "Density": "2.366 g/cm\u00b3 @ Temp: 20 \u00b0C"}}