{"cas_no": "373-52-4", "cn_name": "\u6c1f\u6eb4\u7532\u70f7", "en_name": ["Bromofluoromethane", "Methane, bromofluoro-", "Bromofluoromethane", "Fluorobromomethane"], "SMILES": "C(Br)F", "physical_data": {"Molecular Weight": "112.93", "Molecular Formula": "CH2BrF", "Boiling Point": "19 \u00b0C"}}