{"cas_no": "373-02-4", "cn_name": "\u918b\u9178\u954d", "en_name": ["Nickel acetate", "Acetic acid, nickel(2+) salt (2:1)", "Acetic acid, nickel(2+) salt", "Nickel acetate (Ni(OAc)2)", "Nickel(II) acetate", "Nickel diacetate", "Nickelous acetate", "Nickel(2+) acetate", "Nickel acetate", "Top Seal DX 300", "Top Seal H 298"], "SMILES": "C(C)(O)=O.[Ni]", "physical_data": {"Molecular Weight": "", "Molecular Formula": "C2H4O2.<sup>1</sup>/2Ni", "Boiling Point": "16.6 \u00b0C", "Density": "1.798 g/cm\u00b3"}}