{"cas_no": "373-88-6", "cn_name": "2,2,2-\u4e09\u6c1f\u4e59\u80fa\u76d0\u9178\u76d0", "en_name": ["2,2,2-Trifluoroethylamine hydrochloride", "Ethanamine, 2,2,2-trifluoro-, hydrochloride (1:1)", "Ethylamine, 2,2,2-trifluoro-, hydrochloride", "Ethanamine, 2,2,2-trifluoro-, hydrochloride", "2,2,2-Trifluoroethylamine hydrochloride", "2,2,2-Trifluoroethanamine hydrochloride", "2,2,2-Trifluoro-1-ethanamine hydrochloride", "2,2,2-Trifluoroethan-1-aminium chloride"], "SMILES": "C(CN)(F)(F)F.Cl", "physical_data": {"Molecular Weight": "", "Molecular Formula": "C2H4F3N.ClH", "Melting Point": "&gt;200 \u00b0C (sublm)"}}