{"cas_no": "373-04-6", "cn_name": "6-\u6c28\u57fa\u5df1\u9170\u80fa", "en_name": ["6-Aminohexanamide", "Hexanamide, 6-amino-", "Caproamide, \u03b5-amino-", "6-Aminohexanamide", "\u03b5-Aminocaproamide", "6-Aminocaproic amide", "6-Aminocaproamide", "6-Aminocapronamide"], "SMILES": "C(CC(N)=O)CCCN", "physical_data": {"Molecular Weight": "130.19", "Molecular Formula": "C6H14N2O", "Boiling Point": "165-167 \u00b0C @ Press: 1 Torr", "Melting Point": "50-51 \u00b0C"}}