{"cas_no": "373-14-8", "cn_name": "1-\u6c1f\u5df1\u70f7", "en_name": ["1-Fluorohexane", "Hexane, 1-fluoro-", "1-Fluorohexane", "Hexyl fluoride", "1-Hexylfluoride", "1-Hexyl fluoride"], "SMILES": "C(CCC)CCF", "physical_data": {"Molecular Weight": "104.17", "Molecular Formula": "C6H13F", "Boiling Point": "91.5 \u00b0C", "Melting Point": "-103 \u00b0C", "Density": "0.819 g/cm\u00b3 @ Temp: 0 \u00b0C"}}