{"cas_no": "373-74-0", "cn_name": "METHYLTRIFLUOROSILANE", "en_name": ["Trifluoromethylsilane", "Silane, trifluoromethyl-", "Trifluoromethylsilane", "Methyltrifluorosilane", "Silicon carbide fluoride hydride (SiCF3H3)"], "SMILES": "[Si](C)(F)(F)F", "physical_data": {"Molecular Weight": "100.12", "Molecular Formula": "CH3F3Si", "Boiling Point": "-30 \u00b0C", "Melting Point": "-73 \u00b0C"}}