{"cas_no": "37308-75-1", "cn_name": "\u9ec4\u5361\u74e6\u80e1\u6912\u7d20 C", "en_name": ["Flavokawain C", "2-Propen-1-one, 1-(2-hydroxy-4,6-dimethoxyphenyl)-3-(4-hydroxyphenyl)-, (2E)-", "2-Propen-1-one, 1-(2-hydroxy-4,6-dimethoxyphenyl)-3-(4-hydroxyphenyl)-, (E)-", "(2E)-1-(2-Hydroxy-4,6-dimethoxyphenyl)-3-(4-hydroxyphenyl)-2-propen-1-one", "Flavokawain C", "2\u2032,4-Dihydroxy-4\u2032,6\u2032-dimethoxy-trans-chalcone", "Flavokavin C", "4-Hydroxyflavokawain B", "(E)-1-(2-Hydroxy-4,6-dimethoxyphenyl)-3-(4-hydroxyphenyl)prop-2-en-1-one (Flavokawain C)"], "SMILES": "O(C)C1=C(C(C=CC2=CC=C(O)C=C2)=O)C(O)=CC(OC)=C1", "physical_data": {"Molecular Weight": "300.31", "Molecular Formula": "C17H16O5", "Melting Point": "179-182 \u00b0C"}}