{"cas_no": "3730-60-7", "cn_name": "2,5-\u4e8c\u7532\u57fa-2-\u5df1\u9187", "en_name": ["2,5-Dimethyl-2-hexanol", "2-Hexanol, 2,5-dimethyl-", "2,5-Dimethyl-2-hexanol", "NSC 5594"], "SMILES": "C(C(C)(C)O)CC(C)C", "physical_data": {"Molecular Weight": "130.23", "Molecular Formula": "C8H18O", "Boiling Point": "154.5 \u00b0C", "Density": "0.8158 g/cm\u00b3 @ Temp: 20 \u00b0C"}}