{"cas_no": "37318-31-3", "cn_name": "\u8517\u7cd6\u8102\u80aa\u9178\u916f", "en_name": ["Sucrose, stearate", "\u03b1-D-Glucopyranoside, \u03b2-D-fructofuranosyl, octadecanoate", "Sucrose, stearate", "Cane sugar stearate", "Crodesta F 110", "SM 90", "Crodesta F 160", "Nitto Ester S 370", "Ryoto Sugar Ester S 270", "Ryoto Sugar Ester S 970", "Ryoto Sugar Ester S 370F", "Ryoto Sugar Ester S 1170", "Sucroester WE 11", "Ryoto Sugar Ester S 170", "S 1170", "S 970", "Ryoto Sugar Ester SM 1800", "DK 50", "DK 160", "S 1570", "Ryoto Sugar Ester S 1570", "S 270", "Ryoto Sugar Ester S 70", "SM 90 (sugar ester)", "Ryoto Sugar Ester S 1170F", "Ryoto Sugar Ester S 570", "S 070", "Crodesta F 140", "SS 7", "SS 15", "Surfhope Sepharma J 1811F", "Sucrose octadecanoate", "S 170", "Crodesta F 90", "Sisterna SP 50", "Ryoto Sugar Ester S 1170S", "Ryoto Sugar Ester S 395", "S 395", "Sefose 1618H", "SEFA polystearate", "Surfhope SE Cosme C 1816", "Cosmelike S 10", "DK Ester O 10", "DUB-SE 11S", "Cosmelike S 110", "SE 1570", "SE 970", "Surfhope C 1816", "Rikemal A", "Surfhope J 1809", "Surfhope J 1815", "Ryoto Sugar Ester S 070", "Surfhope SE COSME C 1802", "Surfhope SE Cosme C 1811", "Surfhope SE COSME C 1800", "Surfhope SE COSME C 1801", "Surfhope J 1811", "DKF 10", "Ryoto S 1170", "Surfhope SE Cosme C 1815", "SFE 1815", "SP 10C", "Ryoto S 170", "Sucrose stearate", "Saccharose stearate", "Tego Care SE 121", "Sugar Ester S 570", "Emalex C 1611", "S 370", "Ryoto Sugar Ester S 1170J", "Sugar Ester S 170", "Surfhope C 1815", "S 570", "Ryoto Sugar Ester S 370"], "SMILES": "C(CCCCCCCCCCC)CCCCCC(O)=O.O(C1(CO)OC(CO)C(O)C1O)C2OC(CO)C(O)C(O)C2O", "physical_data": {"Molecular Weight": "", "Molecular Formula": "C18H36O2.xC12H22O11", "Melting Point": "56-60 \u00b0C"}}