{"cas_no": "3731-38-2", "cn_name": "3-\u594e\u5b81\u73af\u916e", "en_name": ["3-Quinuclidinone", "1-Azabicyclo[2.2.2]octan-3-one", "3-Quinuclidinone", "3-Oxoquinuclidine", "3-Quinuclidone", "NSC 168448", "4-Azabicyclo[2.2.2]octan-2-one"], "SMILES": "O=C1C2CCN(C1)CC2", "physical_data": {"Molecular Weight": "125.17", "Molecular Formula": "C7H11NO", "Melting Point": "200 \u00b0C"}}