{"cas_no": "37318-06-2", "cn_name": "\u6d0b\u6a44\u6984\u53f6\u7d20", "en_name": ["Elaiophylin", "Elaiophylin", "1,9-Dioxacyclohexadecane, elaiophylin deriv.", "[7S-[3E,5E,7R*,8R*[1R*,2S*,3R*(2S*,4S*,5S*,6S*)],11E,13E,15R*,16R*[1R*,2S*,3R*(2S*,4S*,5S*,6S*)]]]-8,16-Bis[3-[4-[(2,6-dideoxy-\u03b1-L-lyxo-hexopyranosyl)oxy]-5-ethyltetrahydro-2-hydroxy-6-methyl-2H-pyran-2-yl]-2-hydroxy-1-methylbutyl]-7,15-dimethyl-1,9-dioxacyclohexadeca-3,5,11,13-tetraene-2,10-dione", "1,9-Dioxacyclohexadeca-3,5,11,13-tetraene-2,10-dione, 8,16-bis[3-[4-[(2,6-dideoxy-\u03b1-L-lyxo-hexopyranosyl)oxy]-5-ethyltetrahydro-2-hydroxy-6-methyl-2H-pyran-2-yl]-2-hydroxy-1-methylbutyl]-7,15-dimethyl-, [7S-[3E,5E,7R*,8R*[1R*,2S*,3R*(2S*,4S*,5S*,6S*)],11E,13E,15R*,16R*[1R*,2S*,3R*(2S*,4S*,5S*,6S*)]]]-", "Antibiotic 5001B", "Antibiotic 56-62", "Azalomycin B", "5001B", "Antibiotic A 164AB", "(+)-Elaiophylin", "Gopalamicin", "Efomycin E", "Efomycine E"], "SMILES": "O(C1C(CC)C(C)OC(C(C(C(C)C2C(C)C=CC=CC(=O)OC(C(C(C(C)C3(O)CC(OC4CC(O)C(O)C(C)O4)C(CC)C(C)O3)O)C)C(C)C=CC=CC(=O)O2)O)C)(O)C1)C5CC(O)C(O)C(C)O5", "physical_data": {"Molecular Weight": "1025.27", "Molecular Formula": "C54H88O18", "Melting Point": "178-183 \u00b0C (decomp)"}}