{"cas_no": "3731-16-6", "cn_name": "2-\u6c27-3-\u54cc\u5576\u7fa7\u9178\u4e59\u916f", "en_name": ["3-Carbethoxy-2-piperidone", "3-Piperidinecarboxylic acid, 2-oxo-, ethyl ester", "Nipecotic acid, 2-oxo-, ethyl ester", "Ethyl 2-oxonipecotate", "3-(Ethoxycarbonyl)-2-piperidone", "Ethyl 2-oxo-3-piperidinecarboxylate", "3-Carbethoxy-2-piperidone", "NSC 38545", "2-Oxopiperidine-3-carboxylic acid ethyl ester", "Ethyl 2-oxo-piperidine-3-carboxylate"], "SMILES": "C(OCC)(=O)C1C(=O)NCCC1", "physical_data": {"Molecular Weight": "171.19", "Molecular Formula": "C8H13NO3", "Boiling Point": "205-215 \u00b0C @ Press: 12 Torr", "Melting Point": "75 \u00b0C"}}