{"cas_no": "3731-53-1", "cn_name": "4-\u7532\u6c28\u57fa\u5421\u5576", "en_name": ["4-Pyridinemethanamine", "4-Pyridinemethanamine", "Pyridine, 4-(aminomethyl)-", "4-Picolinamine", "4-Pyridylmethylamine", "4-Picolinylamine", "4-Pyridinemethylamine", "4-(Aminomethyl)pyridine", "4-Picolylamine", "\u03b3-Pyridylmethylamine", "\u03b3-Picolylamine", "\u03b3-(Aminomethyl)pyridine", "Pyridin-4-ylmethylamine", "1-(Pyridin-4-yl)methanamine", "4-Pyridinylmethanamine", "NSC 59707", "C-(Pyridin-4-yl)methylamine", "N-[(4-Pyridinyl)methyl]amine", "1-(4-Pyridyl)methylamine", "4-Pyridylmethanamine", "p-Picolylamine", "4-Picolamine"], "SMILES": "C(N)C=1C=CN=CC1", "physical_data": {"Molecular Weight": "108.14", "Molecular Formula": "C6H8N2", "Boiling Point": "230 \u00b0C", "Melting Point": "-7.6 \u00b0C", "Density": "1.065 g/cm\u00b3"}}