{"cas_no": "3731-52-0", "cn_name": "3-\u6c28\u7532\u57fa\u5421\u5576", "en_name": ["3-Pyridinemethanamine", "3-Pyridinemethanamine", "Pyridine, 3-(aminomethyl)-", "3-Picolylamine", "3-Pyridylmethylamine", "3-(Aminomethyl)pyridine", "3-Pyridinemethylamine", "\u03b2-Pyridylmethylamine", "Picolamine", "(3-Pyridinylmethyl)amine", "1-(Pyridin-3-yl)methanamine", "NSC 59706", "Pyridin-3-ylmethanamine", "3-Pyridylmethanamine", "N-(3-Pyridylmethyl)amine", "m-Picolylamine"], "SMILES": "C(N)C=1C=CC=NC1", "physical_data": {"Molecular Weight": "108.14", "Molecular Formula": "C6H8N2", "Boiling Point": "226 \u00b0C", "Melting Point": "-21.1 \u00b0C", "Density": "1.062 g/cm\u00b3 @ Temp: 25 \u00b0C"}}