{"cas_no": "3731-51-9", "cn_name": "2-\u6c28\u7532\u57fa\u5421\u5576", "en_name": ["2-Pyridinemethanamine", "2-Pyridinemethanamine", "Pyridine, 2-(aminomethyl)-", "2-(Aminomethyl)pyridine", "2-Picolylamine", "2-Picolinamine", "2-Pyridinemethylamine", "(2-Pyridylmethyl)amine", "\u03b1-(Aminomethyl)pyridine", "\u03b1-Picolylamine", "2-Pyridinylmethylamine", "1-(Pyridin-2-yl)methanamine", "NSC 59705", "Pyridin-2-ylmethanamine", "2-(2-Aminomethyl)pyridine", "(Pyridin-2-ylmethyl)amine", "2-Pyridylmethanamine", "o-Picolylamine"], "SMILES": "C(N)C1=CC=CC=N1", "physical_data": {"Molecular Weight": "108.14", "Molecular Formula": "C6H8N2", "Boiling Point": "203 \u00b0C", "Melting Point": "81 \u00b0C", "Density": "1.105 g/cm\u00b3 @ Temp: 20 \u00b0C"}}