{"cas_no": "3731-59-7", "cn_name": "\u5417\u5549\u80cd", "en_name": ["Moroxydine", "4-Morpholinecarboximidamide, N-(aminoiminomethyl)-", "4-Morpholinecarboxamidine, N-amidino-", "Guanidine, 4-morpholinecarboximidoyl-", "N-(Aminoiminomethyl)-4-morpholinecarboximidamide", "JD 1022", "N1,N1-Anhydrobis(\u03b2-hydroxyethyl)biguanide", "Moroxydine", "4-Morpholinecarboximidoylguanidine", "Vironil", "Virugon", "Virumin", "Wirumin", "ABOB", "SKF 8898A", "N-[Imino(4-morpholinyl)methyl]guanidine"], "SMILES": "C(NC(=N)N)(=N)N1CCOCC1", "physical_data": {"Molecular Weight": "171.20", "Molecular Formula": "C6H13N5O", "Melting Point": "196-198 \u00b0C"}}