{"cas_no": "3733-63-9", "cn_name": "\u53bb\u6c2f\u7f9f\u55ea", "en_name": ["2-[2-[4-(Diphenylmethyl)-1-piperazinyl]ethoxy]ethanol", "Ethanol, 2-[2-[4-(diphenylmethyl)-1-piperazinyl]ethoxy]-", "2-[2-[4-(Diphenylmethyl)-1-piperazinyl]ethoxy]ethanol", "UCB 1402", "Decloxizine", "NSC 289116", "2-[2-(4-Benzhydrylpiperazin-1-yl)ethoxy]ethanol"], "SMILES": "C(N1CCN(CCOCCO)CC1)(C2=CC=CC=C2)C3=CC=CC=C3", "physical_data": {"Molecular Weight": "340.46", "Molecular Formula": "C21H28N2O2", "Boiling Point": "185 \u00b0C @ Press: 5 x 10<sup>-3</sup> Torr"}}