{"cas_no": "3734-48-3", "cn_name": "\u516d\u6c2f", "en_name": ["Chlordene", "4,7-Methano-1H-indene, 4,5,6,7,8,8-hexachloro-3a,4,7,7a-tetrahydro-", "4,7-Methanoindene, 4,5,6,7,8,8-hexachloro-3a,4,7,7a-tetrahydro-", "4,5,6,7,8,8-Hexachloro-3a,4,7,7a-tetrahydro-4,7-methano-1H-indene", "Chlordene", "4,5,6,7,8,8-Hexachloro-3a,4,7,7a-tetrahydro-4,7-methanoindene", "4,5,6,7,8,8-Hexachloro-3a,4,7,7a-tetrahydro-4,7-methanoindene"], "SMILES": "ClC12C(Cl)(Cl)C(Cl)(C3C1CC=C3)C(Cl)=C2Cl", "physical_data": {"Molecular Weight": "338.87", "Molecular Formula": "C10H6Cl6", "Melting Point": "155 \u00b0C"}}