{"cas_no": "3734-33-6", "cn_name": "\u82ef\u7532\u5730\u90a3\u94f5", "en_name": ["Denatonium benzoate", "Benzenemethanaminium, N-[2-[(2,6-dimethylphenyl)amino]-2-oxoethyl]-N,N-diethyl-, benzoate (1:1)", "Ammonium, benzyldiethyl[(2,6-xylylcarbamoyl)methyl]-, benzoate", "Benzyldiethyl[(2,6-xylylcarbamoyl)methyl]ammonium benzoate", "Benzenemethanaminium, N-[2-[(2,6-dimethylphenyl)amino]-2-oxoethyl]-N,N-diethyl-, benzoate", "THS 839", "Bitrex", "Denatonium benzoate", "Win 16568", "Lignocaine benzyl benzoate", "Anispray", "Gori", "ECX 95BY", "NSC 157658", "N-[2-[(2,6-Dimethylphenyl)amino]-2-oxoethyl]-N,N-diethyl(phenylmethyl)ammonium benzoate", "Aversion", "Bitterant Bitrex PG"], "SMILES": "C([O-])(=O)C1=CC=CC=C1.[N+](CC1=CC=CC=C1)(CC(NC2=C(C)C=CC=C2C)=O)(CC)CC", "physical_data": {"Molecular Weight": "", "Molecular Formula": "C21H29N2O.C7H5O2", "Melting Point": "168 \u00b0C"}}