{"cas_no": "37350-58-6", "cn_name": "\u7f8e\u6258\u6d1b\u5c14", "en_name": ["Metoprolol", "2-Propanol, 1-[4-(2-methoxyethyl)phenoxy]-3-[(1-methylethyl)amino]-", "1-[4-(2-Methoxyethyl)phenoxy]-3-[(1-methylethyl)amino]-2-propanol", "1-Isopropylamino-3-[4-(2-methoxyethyl)phenoxy]-2-propanol", "Metoprolol", "CGP 2175", "(\u00b1)-Metoprolol", "dl-Metoprolol", "(RS)-Metoprolol", "Spesicor", "Beatrolol", "Seroken", "Meijoprolol", "Toprol", "Metocard", "Vazocardin", "[2-Hydroxy-3-[4-(2-methoxyethyl)phenoxy]propyl](propan-2-yl)amine", "1-[4-(2-Methoxyethyl)phenoxy]-3-(propan-2-ylamino)propan-2-ol", "MeSH ID: D008790"], "SMILES": "O(CC(CNC(C)C)O)C1=CC=C(CCOC)C=C1", "physical_data": {"Molecular Weight": "267.36", "Molecular Formula": "C15H25NO3", "Melting Point": "35 \u00b0C"}}