{"cas_no": "3736-77-4", "cn_name": "2,2'-\u8131\u6c34\u5c3f\u82f7", "en_name": ["2,2\u2032-Anhydrouridine", "6H-Furo[2\u2032,3\u2032:4,5]oxazolo[3,2-a]pyrimidin-6-one, 2,3,3a,9a-tetrahydro-3-hydroxy-2-(hydroxymethyl)-, (2R,3R,3aS,9aR)-", "6H-Furo[2\u2032,3\u2032:4,5]oxazolo[3,2-a]pyrimidin-6-one, 2,3,3a,9a-tetrahydro-3-hydroxy-2-(hydroxymethyl)-, [2R-(2\u03b1,3\u03b2,3a\u03b2,9a\u03b2)]-", "6H-Furo[2\u2032,3\u2032:4,5]oxazolo[3,2-a]pyrimidin-6-one, 2,3,3a,9a-tetrahydro-3-hydroxy-2-(hydroxymethyl)-, stereoisomer", "6H-Furo[2\u2032,3\u2032:4,5]oxazolo[3,2-a]pyrimidin-6-one, 2,3,3a,9a-tetrahydro-3-hydroxy-2-(hydroxymethyl)-", "(2R,3R,3aS,9aR)-2,3,3a,9a-Tetrahydro-3-hydroxy-2-(hydroxymethyl)-6H-furo[2\u2032,3\u2032:4,5]oxazolo[3,2-a]pyrimidin-6-one", "O2,2\u2032-Cyclouridine", "2,2\u2032-O-Cyclouridine", "2,2\u2032-Anhydro-1-\u03b2-D-arabino-furanosyluracil", "2,2\u2032-Anhydrouridine", "2,2\u2032-Anhydro-N1-(\u03b2-D-arabinofuranosyl)uracil", "2,2\u2032-Anhydro(1-\u03b2-D-arabinofuranosyl)uracil", "\u03b2-D-2\u2032,2-O-Cycloarabinouridine", "O2,2\u2032-Anhydrouridine", "NSC 157148"], "SMILES": "OC1C2C(N3C(O2)=NC(=O)C=C3)OC1CO", "physical_data": {"Molecular Weight": "226.19", "Molecular Formula": "C9H10N2O5", "Melting Point": "234-235 \u00b0C"}}