{"cas_no": "3736-81-0", "cn_name": "\u7ce0\u9178\u4e8c\u6c2f\u5c3c\u7279", "en_name": ["Diloxanide furoate", "2-Furancarboxylic acid, 4-[(2,2-dichloroacetyl)methylamino]phenyl ester", "2-Furoic acid, ester with 2,2-dichloro-4\u2032-hydroxy-N-methylacetanilide", "2-Furancarboxylic acid, 4-[(dichloroacetyl)methylamino]phenyl ester", "Furoic acid, ester with 2,2-dichloro-4\u2032-hydroxy-N-methylacetanilide", "Acetanilide, 2,2-dichloro-4\u2032-hydroxy-N-methyl-, 2-furoate (ester)", "8073 CB", "Dichlofurazol", "Entamide furoate", "Entamide 2-furoate", "4-Hydroxy-N-methyl dichloroacetanilide 2-furoate", "Furamide (amebicide)", "Furamide", "Diloxanide furoate", "Diloxanid furoate", "Amebiazol", "Diclofurazol", "Furentomin", "Histomibal", "Miforon"], "SMILES": "N(C(C(Cl)Cl)=O)(C)C1=CC=C(OC(=O)C2=CC=CO2)C=C1", "physical_data": {"Molecular Weight": "328.15", "Molecular Formula": "C14H11Cl2NO4", "Melting Point": "111-114 \u00b0C"}}