{"cas_no": "3737-09-5", "cn_name": "\u8fbe\u8212\u5e73", "en_name": ["Disopyramide", "2-Pyridineacetamide, \u03b1-[2-[bis(1-methylethyl)amino]ethyl]-\u03b1-phenyl-", "2-Pyridineacetamide, \u03b1-[2-(diisopropylamino)ethyl]-\u03b1-phenyl-", "\u03b1-[2-[Bis(1-methylethyl)amino]ethyl]-\u03b1-phenyl-2-pyridineacetamide", "SC 7031", "\u03b1-[2-(Diisopropylamino)ethyl]-\u03b1-phenyl-2-pyridineacetamide", "4-Diisopropylamino-2-phenyl-2-(2-pyridyl)butyramide", "Disopyramide", "H 3292", "Dicorantil", "Searle 703", "(\u00b1)-Disopyramide", "dl-Disopyramide", "(RS)-disopyramide", "Ritmilen", "Lispine", "Isorythm", "Ritmodan", "MeSH ID: D004206"], "SMILES": "C(CCN(C(C)C)C(C)C)(C(N)=O)(C1=CC=CC=C1)C2=CC=CC=N2", "physical_data": {"Molecular Weight": "339.47", "Molecular Formula": "C21H29N3O", "Melting Point": "94.5-95 \u00b0C"}}