{"cas_no": "3737-41-5", "cn_name": "3,3,4,4-\u56db\u6c2f\u73af\u4e01\u781c", "en_name": ["Thiophene, 3,3,4,4-tetrachlorotetrahydro-, 1,1-dioxide", "Thiophene, 3,3,4,4-tetrachlorotetrahydro-, 1,1-dioxide", "DAC 649", "3,3,4,4-Tetrachlorotetrahydrothiophene 1,1-dioxide", "Slacurb", "3,3,4,4-Tetrachlorothiolane 1,1-dioxide", "3,3,4,4-Tetrachloro-1\u03bb6-thiolane-1,1-dione"], "SMILES": "ClC1(Cl)C(Cl)(Cl)CS(=O)(=O)C1", "physical_data": {"Molecular Weight": "257.95", "Molecular Formula": "C4H4Cl4O2S", "Melting Point": "178.5-179.5 \u00b0C"}}