{"cas_no": "3738-00-9", "cn_name": "\u5341\u4e8c\u6c22-3A,6,6,9A-\u56db\u7532\u57fa-\u8418\u5e76[2,1-B]-\u544b\u5583", "en_name": ["Cetalox", "Naphtho[2,1-b]furan, dodecahydro-3a,6,6,9a-tetramethyl-", "Dodecahydro-3a,6,6,9a-tetramethylnaphtho[2,1-b]furan", "Amberlyn", "Ambrox DL", "Synambran", "3a,6,6,9a-Tetramethyldodecahydronaphtho[2,1-b]furan", "Cetalox", "Ambrotech", "Dodecahydro-3a,6,6,9a-tetramethylnaphtho[2,1-b]furan", "Cachalox"], "SMILES": "CC12C3C(C)(CCC1C(C)(C)CCC2)OCC3", "physical_data": {"Molecular Weight": "236.39", "Molecular Formula": "C16H28O", "Melting Point": "75-76 \u00b0C"}}