{"cas_no": "3739-38-6", "cn_name": "3-\u82ef\u6c27\u57fa\u82ef\u7532\u9178", "en_name": ["3-Phenoxybenzoic acid", "Benzoic acid, 3-phenoxy-", "Benzoic acid, m-phenoxy-", "3-Phenoxybenzoic acid", "m-Phenoxybenzoic acid", "m-(Phenyloxy)benzoic acid", "3-PBA"], "SMILES": "O(C1=CC(C(O)=O)=CC=C1)C2=CC=CC=C2", "physical_data": {"Molecular Weight": "214.22", "Molecular Formula": "C13H10O3", "Melting Point": "149-150 \u00b0C"}}