{"cas_no": "3739-30-8", "cn_name": "2-\u7f9f\u57fa-2-\u7532\u57fa\u4e01\u9178", "en_name": ["(\u00b1)-2-Hydroxy-2-methylbutyric acid", "Butanoic acid, 2-hydroxy-2-methyl-", "Butyric acid, 2-hydroxy-2-methyl-", "Butyric acid, \u03b1-hydroxy-\u03b1-methyl-", "2-Hydroxy-2-methylbutanoic acid", "\u03b1-Hydroxy-\u03b1-methylbutyric acid", "2-Hydroxy-2-methylbutyric acid", "2-Methyl-2-hydroxybutyric acid", "(\u00b1)-\u03b1-Hydroxy-\u03b1-methylbutyric acid", "(\u00b1)-2-Hydroxy-2-methylbutyric acid", "(\u00b1)-2-Hydroxy-2-methylbutanoic acid", "NSC 9458"], "SMILES": "C(C(O)=O)(CC)(C)O", "physical_data": {"Molecular Weight": "118.13", "Molecular Formula": "C5H10O3", "Boiling Point": "133-134 \u00b0C @ Press: 16 Torr", "Melting Point": "74 \u00b0C"}}