{"cas_no": "3739-67-1", "cn_name": "\u53cc\u915a A \u53cc\u70ef\u4e19\u57fa\u919a", "en_name": ["Bisphenol A diallyl ether", "Benzene, 1,1\u2032-(1-methylethylidene)bis[4-(2-propen-1-yloxy)-", "Propane, 2,2-bis[p-(allyloxy)phenyl]-", "Benzene, 1,1\u2032-(1-methylethylidene)bis[4-(2-propenyloxy)-", "1,1\u2032-(1-Methylethylidene)bis[4-(2-propen-1-yloxy)benzene]", "2,2-Bis(4-allyloxyphenyl)propane", "Bisphenol A diallyl ether", "4,4\u2032-Isopropylidenebis[(allyloxy)benzene]", "O,O-Diallylbisphenol A", "Dial 1", "Dial 2", "4,4\u2032-Isopropylidenediphenol diallyl ether", "BPA-AE", "NSC 404194", "Homide 126A", "912A", "CM-BPAED", "1-Prop-2-enoxy-4-[2-(4-prop-2-enoxyphenyl)propan-2-yl]benzene", "Matrimid 2292", "B 303589"], "SMILES": "C(C)(C)(C1=CC=C(OCC=C)C=C1)C2=CC=C(OCC=C)C=C2", "physical_data": {"Molecular Weight": "308.41", "Molecular Formula": "C21H24O2", "Boiling Point": "125-180 \u00b0C", "Density": "1.043 g/cm\u00b3 @ Temp: 25 \u00b0C"}}