{"cas_no": "3739-94-4", "cn_name": "2,6-\u5421\u5576\u4e8c\u7532\u9170\u6c2f", "en_name": ["2,6-Pyridinedicarbonyl dichloride", "2,6-Pyridinedicarbonyl dichloride", "2,6-Pyridinedicarbonyl chloride", "2,6-Pyridinedicarboxylic acid dichloride", "2,6-Bis(chlorocarbonyl)pyridine", "2,6-Dicarbonylpyridine dichloride", "(2,6-Chlorocarbonyl)pyridine", "Pyridine-2,6-bis(carbonyl chloride)", "2,6-Pyridinedicarboxylic acid chloride", "Pyridine-2,6-dicarboxylic chloride"], "SMILES": "C(Cl)(=O)C=1N=C(C(Cl)=O)C=CC1", "physical_data": {"Molecular Weight": "204.01", "Molecular Formula": "C7H3Cl2NO2", "Boiling Point": "163 \u00b0C @ Press: 15 Torr", "Melting Point": "60-61.5 \u00b0C"}}