{"cas_no": "3739-64-8", "cn_name": "\u70ef\u4e19\u57fa\u4e01\u57fa\u919a", "en_name": ["1-(2-Propen-1-yloxy)butane", "Butane, 1-(2-propen-1-yloxy)-", "Ether, allyl butyl", "Butane, 1-(2-propenyloxy)-", "1-(2-Propen-1-yloxy)butane", "Allyl butyl ether", "Butyl allyl ether", "n-Butyl allyl ether", "1-(Allyloxy)butane", "(Allyloxy) butane"], "SMILES": "C(OCC=C)CCC", "physical_data": {"Molecular Weight": "114.19", "Molecular Formula": "C7H14O", "Boiling Point": "114-118 \u00b0C", "Density": "0.8161 g/cm\u00b3 @ Temp: 20 \u00b0C"}}