{"cas_no": "374-99-2", "cn_name": "2,2,3,3,4,4,4-\u4e03\u6c1f\u4e01\u80fa", "en_name": ["2,2,3,3,4,4,4-Heptafluorobutylamine", "1-Butanamine, 2,2,3,3,4,4,4-heptafluoro-", "Butylamine, 2,2,3,3,4,4,4-heptafluoro-", "2,2,3,3,4,4,4-Heptafluoro-1-butanamine", "2,2,3,3,4,4,4-Heptafluorobutylamine", "1H,1H-Heptafluorobutylamine"], "SMILES": "C(C(CN)(F)F)(C(F)(F)F)(F)F", "physical_data": {"Molecular Weight": "199.07", "Molecular Formula": "C4H4F7N", "Boiling Point": "68 \u00b0C", "Density": "1.493 g/cm\u00b3 @ Temp: 20 \u00b0C"}}