{"cas_no": "374-40-3", "cn_name": "3,3,4,4,4-\u4e94\u6c1f-2-\u4e01\u9187", "en_name": ["3,3,4,4,4-Pentafluoro-2-butanol", "2-Butanol, 3,3,4,4,4-pentafluoro-", "3,3,4,4,4-Pentafluoro-2-butanol", "1,1,1,2,2-Pentafluorobutan-3-ol"], "SMILES": "C(C(F)(F)F)(C(C)O)(F)F", "physical_data": {"Molecular Weight": "164.07", "Molecular Formula": "C4H5F5O", "Boiling Point": "84 \u00b0C", "Density": "1.406 g/cm\u00b3 @ Temp: 20 \u00b0C"}}