{"cas_no": "374-01-6", "cn_name": "1,1,1-\u4e09\u6c1f\u5f02\u4e19\u9187", "en_name": ["1,1,1-Trifluoro-2-propanol", "2-Propanol, 1,1,1-trifluoro-", "1,1,1-Trifluoro-2-propanol", "1-Methyl-2,2,2-trifluoroethanol", "1,1,1-Trifluoropropane-2-ol", "NSC 3637", "1,1,1-Trifluoroisopropanol", "1-(Trifluoromethyl)ethanol"], "SMILES": "C(C(C)O)(F)(F)F", "physical_data": {"Molecular Weight": "114.07", "Molecular Formula": "C3H5F3O", "Boiling Point": "75.5 \u00b0C", "Melting Point": "-52 \u00b0C", "Density": "1.2709 g/cm\u00b3 @ Temp: 16 \u00b0C"}}