{"cas_no": "374-98-1", "cn_name": "2,2,3,3,4,4,4-\u4e03\u6c1f-1-\u7898\u4e01\u70f7", "en_name": ["1,1,1,2,2,3,3-Heptafluoro-4-iodobutane", "Butane, 1,1,1,2,2,3,3-heptafluoro-4-iodo-", "1,1,1,2,2,3,3-Heptafluoro-4-iodobutane", "2,2,3,3,4,4,4-Heptafluoro-1-iodobutane", "1-Iodo-2,2,3,3,4,4,4-heptafluorobutane"], "SMILES": "C(C(CI)(F)F)(C(F)(F)F)(F)F", "physical_data": {"Molecular Weight": "309.95", "Molecular Formula": "C4H2F7I", "Boiling Point": "92 \u00b0C @ Press: 760 Torr", "Density": "2.019 g/cm\u00b3 @ Temp: 25 \u00b0C"}}