{"cas_no": "374-41-4", "cn_name": "3,3,4,4,4-\u4e94\u6c1f\u4e01-2-\u916e", "en_name": ["3,3,4,4,4-Pentafluoro-2-butanone", "2-Butanone, 3,3,4,4,4-pentafluoro-", "3,3,4,4,4-Pentafluoro-2-butanone", "Pentafluoroethyl methyl ketone", "NSC 42726"], "SMILES": "C(C(F)(F)F)(C(C)=O)(F)F", "physical_data": {"Molecular Weight": "162.06", "Molecular Formula": "C4H3F5O", "Boiling Point": "39.5-40 \u00b0C", "Density": "1.284 g/cm\u00b3 @ Temp: 20 \u00b0C"}}