{"cas_no": "374064-01-4", "cn_name": "5-(\u5421\u5576-3-\u57fa)-1H-\u5421\u5511-3-\u7fa7\u9178", "en_name": ["5-(3-Pyridinyl)-1H-pyrazole-3-carboxylic acid", "1H-Pyrazole-3-carboxylic acid, 5-(3-pyridinyl)-", "5-(3-Pyridinyl)-1H-pyrazole-3-carboxylic acid", "5-(Pyridin-3-yl)-1H-pyrazole-3-carboxylic acid", "3-Pyridin-3-yl-1H-pyrazole-5-carboxylic acid"], "SMILES": "C(O)(=O)C=1C=C(NN1)C=2C=CC=NC2", "physical_data": {"Molecular Weight": "189.17", "Molecular Formula": "C9H7N3O2", "Melting Point": "308-310 \u00b0C (decomp)"}}