{"cas_no": "374063-92-0", "cn_name": "2-\u6eb4-5-\u7f9f\u57fa\u5421\u55ea", "en_name": ["5-Bromo-2(1H)-pyrazinone", "2(1H)-Pyrazinone, 5-bromo-", "5-Bromo-2(1H)-pyrazinone", "5-Bromopyrazin-2-ol", "5-Bromopyrazin-2(1H)-one", "2-Bromo-5-hydroxypyrazine"], "SMILES": "BrC1=CNC(=O)C=N1", "physical_data": {"Molecular Weight": "174.98", "Molecular Formula": "C4H3BrN2O", "Melting Point": "115-116 \u00b0C"}}