{"cas_no": "3740-18-9", "cn_name": "2,4-\u4e8c\u6c2f-5-\u6c2f\u78fa\u9170\u57fa\u82ef\u7532\u9178", "en_name": ["2,4-Dichloro-5-(chlorosulfonyl)benzoic acid", "Benzoic acid, 2,4-dichloro-5-(chlorosulfonyl)-", "2,4-Dichloro-5-(chlorosulfonyl)benzoic acid", "5-Carboxy-2,4-dichlorobenzenesulfonyl chloride", "3-Carboxy-4,6-dichlorobenzenesulfonyl chloride", "2,4-Dichloro-5-(chlorosulphonyl)benzoic acid"], "SMILES": "S(Cl)(=O)(=O)C1=CC(C(O)=O)=C(Cl)C=C1Cl", "physical_data": {"Molecular Weight": "289.52", "Molecular Formula": "C7H3Cl3O4S", "Melting Point": "191-192 \u00b0C"}}