{"cas_no": "3740-92-9", "cn_name": "\u89e3\u8349\u5576", "en_name": ["Fenclorim", "Pyrimidine, 4,6-dichloro-2-phenyl-", "4,6-Dichloro-2-phenylpyrimidine", "2-Phenyl-4,6-dichloropyrimidine", "CGA 123407", "Fenclorim", "NSC 27713"], "SMILES": "ClC1=NC(=NC(Cl)=C1)C2=CC=CC=C2", "physical_data": {"Molecular Weight": "225.07", "Molecular Formula": "C10H6Cl2N2", "Melting Point": "96.9 \u00b0C"}}