{"cas_no": "3740-52-1", "cn_name": "\u90bb\u785d\u57fa\u82ef\u4e59\u9178", "en_name": ["(2-Nitrophenyl)acetic acid", "Benzeneacetic acid, 2-nitro-", "Acetic acid, (o-nitrophenyl)-", "2-Nitrobenzeneacetic acid", "o-Nitrophenylacetic acid", "2-(o-Nitrophenyl)acetic acid", "(2-Nitrophenyl)acetic acid", "2-(2-Nitrophenyl)acetic acid", "NSC 16624"], "SMILES": "N(=O)(=O)C1=C(CC(O)=O)C=CC=C1", "physical_data": {"Molecular Weight": "181.15", "Molecular Formula": "C8H7NO4", "Melting Point": "141 \u00b0C"}}