{"cas_no": "3741-80-8", "cn_name": "N-\u53d4\u4e01\u57fa-\u53cc(2-\u82ef\u5e76\u567b\u5511)\u6b21\u78fa\u9170\u4e9a\u80fa", "en_name": ["N-(2-Benzothiazolylthio)-N-(1,1-dimethylethyl)-2-benzothiazolesulfenamide", "2-Benzothiazolesulfenamide, N-(2-benzothiazolylthio)-N-(1,1-dimethylethyl)-", "Di(2-benzothiazolesulfen)amide, N-tert-butyl-", "N-(2-Benzothiazolylthio)-N-(1,1-dimethylethyl)-2-benzothiazolesulfenamide", "N,N-Bis[(2-benzothiazolyl)thio]-tert-butylamine", "Santocure TBSI", "N-tert-Butylbis(2-benzothiazolesulfen)amide", "N-tert-Butyl2-benzothiazolesulfenimide", "TBSI", "N-tert-Butylbis(2-benzothiazolyl)sulfenimide", "SF 201"], "SMILES": "N(C(C)(C)C)(SC1=NC=2C(S1)=CC=CC2)SC3=NC=4C(S3)=CC=CC4", "physical_data": {"Molecular Weight": "403.61", "Molecular Formula": "C18H17N3S4", "Melting Point": "143-144 \u00b0C"}}