{"cas_no": "3741-00-2", "cn_name": "\u620a\u57fa\u73af\u620a\u70f7", "en_name": ["Pentylcyclopentane", "Cyclopentane, pentyl-", "Pentane, 1-cyclopentyl-", "Cyclopentane, amyl-", "Pentylcyclopentane", "n-Pentylcyclopentane", "1-Cyclopentylpentane", "NSC 174063"], "SMILES": "C(CCCC)C1CCCC1", "physical_data": {"Molecular Weight": "140.27", "Molecular Formula": "C10H20", "Boiling Point": "180 \u00b0C", "Melting Point": "-83 \u00b0C", "Density": "0.7898 g/cm\u00b3 @ Temp: 20 \u00b0C"}}