{"cas_no": "37418-88-5", "cn_name": "3-\u7f9f\u57fa\u82ef\u4e8c\u7532\u9178\u9150", "en_name": ["3-Hydroxyphthalic anhydride", "1,3-Isobenzofurandione, 4-hydroxy-", "4-Hydroxy-1,3-isobenzofurandione", "3-Hydroxyphthalic anhydride", "4-Hydroxyisobenzofuran-1,3-dione", "NSC 80858", "4-Hydroxy-2-benzofuran-1,3-dione", "4-Hydroxy-1,3-dihydro-2-benzofuran-1,3-dione", "3-Hydroxyphthalic acid anhydride", "SM1-175"], "SMILES": "OC1=C2C(C(=O)OC2=O)=CC=C1", "physical_data": {"Molecular Weight": "164.12", "Molecular Formula": "C8H4O4", "Melting Point": "150-190 \u00b0C"}}