{"cas_no": "3741-38-6", "cn_name": "\u4e9a\u786b\u9178\u4e9a\u4e59\u916f", "en_name": ["Ethylene sulfite", "1,3,2-Dioxathiolane, 2-oxide", "Ethylene glycol, cyclic sulfite", "Ethylene sulfite", "NSC 3225", "Glycol sulfite", "Cyclic ethylene sulfite", "1,2-Ethylene sulfite", "1,3-Dioxa-2-thiacyclopentane oxide", "1,3,2\u03bb4-Dioxathiolan-2-one", "1,3,2-Dioxathiolan-2-oxide"], "SMILES": "O=S1OCCO1", "physical_data": {"Molecular Weight": "108.12", "Molecular Formula": "C2H4O3S", "Boiling Point": "173 \u00b0C", "Melting Point": "-11 \u00b0C", "Density": "1.4375 g/cm\u00b3 @ Temp: 25 \u00b0C"}}