{"cas_no": "3741-77-3", "cn_name": "2,4,6-\u4e09\u6eb4\u82ef\u4e19\u70ef\u9178\u916f", "en_name": ["2,4,6-Tribromophenyl acrylate", "2-Propenoic acid, 2,4,6-tribromophenyl ester", "Acrylic acid, 2,4,6-tribromophenyl ester", "Phenol, 2,4,6-tribromo-, acrylate", "2,4,6-Tribromophenyl acrylate", "Fire Lord A", "SR 803", "Newfrontier BR 30", "BR 30", "2,4,6-Tribromophenyl prop-2-enoate", "(2,4,6-Tribromophenyl) prop-2-enoate"], "SMILES": "O(C(C=C)=O)C1=C(Br)C=C(Br)C=C1Br", "physical_data": {"Molecular Weight": "384.85", "Molecular Formula": "C9H5Br3O2", "Melting Point": "78-79 \u00b0C"}}