{"cas_no": "37413-91-5", "cn_name": "21-\u7f9f\u57fa\u5b55\u753e-1,4,9(11),16-\u56db\u70ef-3,20-\u4e8c\u916e-21-\u918b\u9178\u916f", "en_name": ["21-(Acetyloxy)pregna-1,4,9(11),16-tetraene-3,20-dione", "Pregna-1,4,9(11),16-tetraene-3,20-dione, 21-(acetyloxy)-", "Pregna-1,4,9(11),16-tetraene-3,20-dione, 21-hydroxy-, acetate", "21-(Acetyloxy)pregna-1,4,9(11),16-tetraene-3,20-dione", "21-Acetoxypregna-1,4,9(11),16-tetraene-3,20-dione", "21-Hydroxy-1,4,9(11)-tetraene 21-acetate", "2-((10S,13S,14S)-10,13-Dimethyl-3-oxo-6,7,8,10,12,13,14,15-octahydro-3H-cyclopenta[a]phenanthren-17-yl)-2-oxoethyl acetate", "3,20-Dioxopregna-1,4,9(11),16-tetraen-21-yl acetate", "3TR"], "SMILES": "CC12C(C3C(C4(C)C(CC3)=CC(=O)C=C4)=CC1)CC=C2C(COC(C)=O)=O", "physical_data": {"Molecular Weight": "366.45", "Molecular Formula": "C23H26O4", "Melting Point": "172-174 \u00b0C"}}