{"cas_no": "3742-34-5", "cn_name": "\u4e59\u70ef\u57fa\u73af\u620a\u70f7", "en_name": ["Vinylcyclopentane", "Cyclopentane, ethenyl-", "Cyclopentane, vinyl-", "Ethenylcyclopentane", "Vinylcyclopentane", "NSC 73919", "Ethylenecyclopentane", "Cyclopentylethylene"], "SMILES": "C(=C)C1CCCC1", "physical_data": {"Molecular Weight": "96.17", "Molecular Formula": "C7H12", "Boiling Point": "98.2-98.5 \u00b0C @ Press: 750 Torr", "Density": "0.7796 g/cm\u00b3 @ Temp: 20 \u00b0C"}}