{"cas_no": "37439-34-2", "cn_name": "3,5,6-\u4e09\u6c2f\u5421\u5576-2-\u9187\u94a0\u76d0", "en_name": ["2(1H)-Pyridinone, 3,5,6-trichloro-, sodium salt (1:1)", "2(1H)-Pyridinone, 3,5,6-trichloro-, sodium salt (1:1)", "2(1H)-Pyridinone, 3,5,6-trichloro-, sodium salt", "Sodium 3,5,6-trichloro-2-pyridinol", "3,5,6-Trichloro-2-pyridinol sodium salt", "Sodium 3,5,6-trichloro-2-pyridinate", "Sodium 3,5,6-trichloro-2-pyridinolate", "Sodium O-3,5,6-trichloro-2-pyridinate"], "SMILES": "ClC1=C(Cl)NC(=O)C(Cl)=C1.[Na]", "physical_data": {"Molecular Weight": "", "Molecular Formula": "C5H2Cl3NO.Na", "Melting Point": "172-175 \u00b0C"}}