{"cas_no": "3743-22-4", "cn_name": "2-(\u4e8c\u7532\u6c28\u57fa)\u82ef\u915a", "en_name": ["2-(Dimethylamino)phenol", "Phenol, 2-(dimethylamino)-", "Phenol, o-(dimethylamino)-", "2-(Dimethylamino)phenol", "o-(Dimethylamino)phenol", "2-Hydroxy-N,N-dimethylaniline", "N,N-Dimethyl-2-aminophenol", "2-(N,N-Dimethylamino)phenol"], "SMILES": "N(C)(C)C1=C(O)C=CC=C1", "physical_data": {"Molecular Weight": "137.18", "Molecular Formula": "C8H11NO", "Boiling Point": "62-63 \u00b0C @ Press: 5 Torr", "Melting Point": "45-46 \u00b0C"}}