{"cas_no": "37443-42-8", "cn_name": "2-\u56db\u6c22\u7ce0\u9178\u7532\u916f", "en_name": ["2-Furancarboxylic acid, tetrahydro-, methyl ester", "2-Furancarboxylic acid, tetrahydro-, methyl ester", "2-Furoic acid, tetrahydro-, methyl ester", "Methyl tetrahydro-2-furancarboxylate", "Tetrahydro-2-furancarboxylic acid methyl ester", "Tetrahydro-2-furoic acid methyl ester", "Methyl 2-tetrahydrofuroate"], "SMILES": "C(OC)(=O)C1CCCO1", "physical_data": {"Molecular Weight": "130.14", "Molecular Formula": "C6H10O3", "Boiling Point": "179.5-180.5 \u00b0C @ Press: 736 Torr", "Density": "1.1080 g/cm\u00b3 @ Temp: 20 \u00b0C"}}