{"cas_no": "374538-03-1", "cn_name": "2-(\u7532\u6c27\u57fa\u7fb0\u57fa)\u82ef\u787c\u9178", "en_name": ["1-Methyl 2-boronobenzoate", "Benzoic acid, 2-borono-, 1-methyl ester", "1-Methyl 2-boronobenzoate", "2-Methoxycarbonylphenylboronic acid", "Methyl 2-boronobenzoate"], "SMILES": "C(OC)(=O)C1=C(B(O)O)C=CC=C1", "physical_data": {"Molecular Weight": "179.97", "Molecular Formula": "C8H9BO4", "Melting Point": "102-104 \u00b0C"}}