{"cas_no": "3746-67-6", "cn_name": "3-\u4e59\u9170\u6c28\u57fa-4-\u7532\u6c27\u57fa\u82ef\u78fa\u9170\u6c2f", "en_name": ["3-(Acetylamino)-4-methoxybenzenesulfonyl chloride", "Benzenesulfonyl chloride, 3-(acetylamino)-4-methoxy-", "Metanilyl chloride, N-acetyl-4-methoxy-", "3-(Acetylamino)-4-methoxybenzenesulfonyl chloride", "2-Acetamidoanisole-4-sulfonyl chloride", "3-Acetamido-4-methoxybenzenesulfonyl chloride", "3-Acetamido-4-methoxybenzene-1-sulfonylchloride", "3-Acetamido-4-methoxybenzene-1-sulfonyl chloride"], "SMILES": "N(C(C)=O)C1=C(OC)C=CC(S(Cl)(=O)=O)=C1", "physical_data": {"Molecular Weight": "263.70", "Molecular Formula": "C9H10ClNO4S", "Melting Point": "152-153 \u00b0C"}}