{"cas_no": "37466-89-0", "cn_name": "1,2-\u4e8c\u6c28\u57fa-3-\u7532\u6c27\u57fa\u82ef", "en_name": ["3-Methoxy-1,2-benzenediamine", "1,2-Benzenediamine, 3-methoxy-", "o-Phenylenediamine, 3-methoxy-", "3-Methoxy-1,2-benzenediamine", "1,2-Diamino-3-methoxybenzene", "3-Methoxy-1,2-diaminobenzene", "NSC 521887", "2,3-Diaminoanisole", "3-Methoxybenzene-1,2-diamine", "3-Methoxy-1,2-phenylenediamine", "2-Amino-3-methoxyaniline"], "SMILES": "O(C)C1=C(N)C(N)=CC=C1", "physical_data": {"Molecular Weight": "138.17", "Molecular Formula": "C7H10N2O", "Boiling Point": "114-116 \u00b0C @ Press: 0.5 Torr", "Melting Point": "39-40 \u00b0C"}}