{"cas_no": "37464-90-7", "cn_name": "5,8-\u4e8c\u7532\u6c27\u57fa-2-\u8418\u6ee1\u916e", "en_name": ["5,8-Dimethoxy-2-tetralone", "2(1H)-Naphthalenone, 3,4-dihydro-5,8-dimethoxy-", "3,4-Dihydro-5,8-dimethoxy-2(1H)-naphthalenone", "5,8-Dimethoxy-\u03b2-tetralone", "5,8-Dimethoxy-2-tetralone", "1,4-Dimethoxy-6-tetralone", "NSC 246148"], "SMILES": "O(C)C1=C2C(=C(OC)C=C1)CCC(=O)C2", "physical_data": {"Molecular Weight": "206.24", "Molecular Formula": "C12H14O3", "Melting Point": "99-100 \u00b0C"}}