{"cas_no": "3747-74-8", "cn_name": "2-\u6c2f\u7532\u57fa\u55b9\u5549\u76d0\u9178\u76d0", "en_name": ["2-(Chloromethyl)quinoline hydrochloride", "Quinoline, 2-(chloromethyl)-, hydrochloride (1:1)", "Quinoline, 2-(chloromethyl)-, hydrochloride", "2-(Chloromethyl)quinoline hydrochloride", "2-(Chloromethyl)quinoline monohydrochloride", "2-Chloromethylchinoline hydrochloride"], "SMILES": "C(Cl)C1=NC2=C(C=C1)C=CC=C2.Cl", "physical_data": {"Molecular Weight": "", "Molecular Formula": "C10H8ClN.ClH", "Melting Point": "190-192 \u00b0C"}}