{"cas_no": "3748-13-8", "cn_name": "1,3-\u4e8c(1-\u7532\u57fa\u4e59\u70ef\u57fa)\u82ef", "en_name": ["1,3-Diisopropenylbenzene", "Benzene, 1,3-bis(1-methylethenyl)-", "Benzene, m-diisopropenyl-", "1,3-Bis(1-methylethenyl)benzene", "m-Diisopropenylbenzene", "1,3-Diisopropenylbenzene", "m-Bis(1-methylvinyl)benzene", "1,3-Bis(1-methylvinyl)benzene", "1,3-Bis(prop-1-en-2-yl)benzene"], "SMILES": "C(C)(=C)C1=CC(C(C)=C)=CC=C1", "physical_data": {"Molecular Weight": "158.24", "Molecular Formula": "C12H14", "Boiling Point": "102 \u00b0C @ Press: 20 Torr"}}