{"cas_no": "37493-16-6", "cn_name": "(S)-1-\u6c2f-2-\u4e19\u9187", "en_name": ["2-Propanol, 1-chloro-, (2S)-", "2-Propanol, 1-chloro-, (2S)-", "2-Propanol, 1-chloro-, (S)-", "(S)-1-Chloro-2-propanol", "(+)-1-Chloro-2-propanol", "(2S)-1-Chloropropan-2-ol", "(2S)-1-Chloropropan-2-ol"], "SMILES": "C(CCl)(C)O", "physical_data": {"Molecular Weight": "94.54", "Molecular Formula": "C3H7ClO", "Boiling Point": "68-70 \u00b0C @ Press: 70 Torr"}}