{"cas_no": "3749-36-8", "cn_name": "2-\u7f9f\u7532\u57fa-3,4-\u4e8c\u6c22\u5421\u5583", "en_name": ["3,4-Dihydro-2H-pyran-2-methanol", "2H-Pyran-2-methanol, 3,4-dihydro-", "3,4-Dihydro-2H-pyran-2-methanol", "3,4-Dihydro-2-(hydroxymethyl)-2H-pyran", "NSC 20753", "2-Hydroxymethyl-3,4-dihydro-2H-pyran", "(3,4-Dihydro-2H-pyran-2-yl)methanol", "(Rac)-3,4-dihydro-2H-pyran-2-methanol"], "SMILES": "C(O)C1CCC=CO1", "physical_data": {"Molecular Weight": "114.14", "Molecular Formula": "C6H10O2", "Boiling Point": "90 \u00b0C @ Press: 20 Torr"}}