{"cas_no": "37493-70-2", "cn_name": "5-\u5341\u4e00\u9187", "en_name": ["5-Undecanol", "5-Undecanol", "1-Butylheptyl alcohol", "(\u00b1)-5-Undecanol", "NSC 158512"], "SMILES": "C(C(CCCC)O)CCCCC", "physical_data": {"Molecular Weight": "172.31", "Molecular Formula": "C11H24O", "Boiling Point": "229 \u00b0C", "Melting Point": "-3.5 \u00b0C", "Density": "0.8378 g/cm\u00b3 @ Temp: 0 \u00b0C"}}