{"cas_no": "3749-51-7", "cn_name": "2,4-\u4e8c\u7f9f\u57fa-6-\u7532\u57fa\u5421\u5576", "en_name": ["4-Hydroxy-6-methyl-2(1H)-pyridinone", "2(1H)-Pyridinone, 4-hydroxy-6-methyl-", "2(1H)-Pyridone, 4-hydroxy-6-methyl-", "4-Hydroxy-6-methyl-2(1H)-pyridinone", "4-Hydroxy-6-methyl-2-pyridone", "2-Picoline-4,6-diol", "4-Hydroxy-6-methyl-2(1H)-pyridone", "2,4-Dihydroxy-6-methylpyridine", "NSC 110283", "4-Hydroxy-6-methyl-1H-pyridin-2-one", "4-Hydroxy-6-methylpyridin-2(1H)-one"], "SMILES": "OC=1C=C(C)NC(=O)C1", "physical_data": {"Molecular Weight": "125.13", "Molecular Formula": "C6H7NO2", "Melting Point": "320 \u00b0C (decomp)"}}