{"cas_no": "375-88-2", "cn_name": "1-\u6eb4\u5168\u6c1f\u5e9a\u70f7", "en_name": ["1-Bromo-1,1,2,2,3,3,4,4,5,5,6,6,7,7,7-pentadecafluoroheptane", "Heptane, 1-bromo-1,1,2,2,3,3,4,4,5,5,6,6,7,7,7-pentadecafluoro-", "Heptane, 1-bromopentadecafluoro-", "1-Bromo-1,1,2,2,3,3,4,4,5,5,6,6,7,7,7-pentadecafluoroheptane", "Pentadecafluoro-1-bromoheptane", "1-Bromopentadecafluoroheptane", "Perfluoroheptyl bromide", "1-Bromoperfluoroheptane"], "SMILES": "C(C(C(C(Br)(F)F)(F)F)(F)F)(C(C(C(F)(F)F)(F)F)(F)F)(F)F", "physical_data": {"Molecular Weight": "448.95", "Molecular Formula": "C7BrF15", "Boiling Point": "118 \u00b0C"}}