{"cas_no": "375-72-4", "cn_name": "\u5168\u6c1f\u4e01\u57fa\u78fa\u9170\u6c1f", "en_name": ["1,1,2,2,3,3,4,4,4-Nonafluoro-1-butanesulfonyl fluoride", "1-Butanesulfonyl fluoride, 1,1,2,2,3,3,4,4,4-nonafluoro-", "1-Butanesulfonyl fluoride, nonafluoro-", "1,1,2,2,3,3,4,4,4-Nonafluoro-1-butanesulfonyl fluoride", "Perfluorobutylsulfonyl fluoride", "Nonafluorobutanesulfonyl fluoride", "Perfluorobutanesulfonyl fluoride", "Nonaflyl fluoride", "Perfluoro-1-butanesulfonyl fluoride", "n-Nonafluorobutanesulfonyl fluoride", "1,1,2,2,3,3,4,4,4-Nonafluorobutan-1-sulfonyl fluoride", "Nonafluoro-1-butanesulfonyl fluoride", "Perfluorobutan-1-sulfonyl fluoride", "1,1,2,2,3,3,4,4,4-Nonafluorobutanesulfonyl fluoride", "Nonafluorobutanesulfonic acid fluoride"], "SMILES": "C(C(C(F)(F)F)(F)F)(C(S(F)(=O)=O)(F)F)(F)F", "physical_data": {"Molecular Weight": "302.09", "Molecular Formula": "C4F10O2S", "Boiling Point": "64 \u00b0C", "Melting Point": "&lt;-120 \u00b0C"}}