{"cas_no": "375-84-8", "cn_name": "\u5168\u6c1f\u5e9a\u9170\u6c1f", "en_name": ["2,2,3,3,4,4,5,5,6,6,7,7,7-Tridecafluoroheptanoyl fluoride", "Heptanoyl fluoride, 2,2,3,3,4,4,5,5,6,6,7,7,7-tridecafluoro-", "Heptanoyl fluoride, tridecafluoro-", "2,2,3,3,4,4,5,5,6,6,7,7,7-Tridecafluoroheptanoyl fluoride", "(Perfluorohexyl)carbonyl fluoride", "Perfluoroheptanoyl fluoride"], "SMILES": "C(C(C(C(F)(F)F)(F)F)(F)F)(C(C(C(F)=O)(F)F)(F)F)(F)F", "physical_data": {"Molecular Weight": "366.05", "Molecular Formula": "C7F14O", "Boiling Point": "78-80 \u00b0C", "Density": "1.7280 g/cm\u00b3 @ Temp: 25 \u00b0C"}}