{"cas_no": "375-95-1", "cn_name": "\u5168\u6c1f\u58ec\u9178", "en_name": ["Perfluorononanoic acid", "Nonanoic acid, 2,2,3,3,4,4,5,5,6,6,7,7,8,8,9,9,9-heptadecafluoro-", "Nonanoic acid, heptadecafluoro-", "2,2,3,3,4,4,5,5,6,6,7,7,8,8,9,9,9-Heptadecafluorononanoic acid", "Perfluoropelargonic acid", "Heptadecafluorononanoic acid", "Perfluorononanoic acid", "C 1800", "PFNA"], "SMILES": "C(C(C(C(C(F)(F)F)(F)F)(F)F)(F)F)(C(C(C(C(O)=O)(F)F)(F)F)(F)F)(F)F", "physical_data": {"Molecular Weight": "464.08", "Molecular Formula": "C9HF17O2", "Melting Point": "69-71 \u00b0C"}}