{"cas_no": "375-50-8", "cn_name": "1,4-\u4e8c\u7898\u5168\u6c1f\u4e01\u70f7", "en_name": ["1,4-Diiodoperfluorobutane", "Butane, 1,1,2,2,3,3,4,4-octafluoro-1,4-diiodo-", "Butane, octafluoro-1,4-diiodo-", "1,1,2,2,3,3,4,4-Octafluoro-1,4-diiodobutane", "Octafluoro-1,4-diiodobutane", "1,4-Diiodoperfluorobutane", "1,4-Diiodooctafluorobutane", "1,4-Diiodo-1,1,2,2,3,3,4,4-octafluorobutane", "\u03b1,\u03c9-Diiodoperfluorobutane"], "SMILES": "C(C(C(F)(F)I)(F)F)(C(F)(F)I)(F)F", "physical_data": {"Molecular Weight": "453.84", "Molecular Formula": "C4F8I2", "Boiling Point": "150 \u00b0C", "Melting Point": "-9 \u00b0C", "Density": "2.4739 g/cm\u00b3 @ Temp: 27 \u00b0C"}}