{"cas_no": "375-16-6", "cn_name": "\u4e03\u6c1f\u4e01\u9170\u6c2f", "en_name": ["Heptafluorobutyryl chloride", "Butanoyl chloride, 2,2,3,3,4,4,4-heptafluoro-", "Butyryl chloride, heptafluoro-", "Butanoyl chloride, heptafluoro-", "2,2,3,3,4,4,4-Heptafluorobutanoyl chloride", "Perfluorobutyryl chloride", "Heptafluorobutyryl chloride", "Heptafluoro-n-butyryl chloride", "Heptafluorobutanoyl chloride", "Perfluorobutanoyl chloride", "Heptafluorobutyric chloride", "Perfluorobutanoic acid chloride"], "SMILES": "C(C(C(Cl)=O)(F)F)(C(F)(F)F)(F)F", "physical_data": {"Molecular Weight": "232.48", "Molecular Formula": "C4ClF7O", "Boiling Point": "38.5 \u00b0C", "Density": "1.55 g/cm\u00b3 @ Temp: 25 \u00b0C"}}