{"cas_no": "375-03-1", "cn_name": "1,1,1,2,2,3,3-\u4e03\u6c1f\u4ee3-3-\u7532\u6c27\u57fa\u4e19\u70f7", "en_name": ["Methyl perfluoropropyl ether", "Propane, 1,1,1,2,2,3,3-heptafluoro-3-methoxy-", "Ether, heptafluoropropyl methyl", "1,1,1,2,2,3,3-Heptafluoro-3-methoxypropane", "HFE 347", "Perfluoropropyl methyl ether", "Methyl perfluoropropyl ether", "1-Methoxyperfluoropropane", "Heptafluoropropyl methyl ether", "1-Methoxy-1,1,2,2,3,3,3-heptafluoropropane", "E 347", "1,1,2,2,3,3,3-Heptafluoro-1-methoxypropane", "HFE 301", "HFE 7000", "R-E 347mcc1", "HFE 347mcc", "Methyl heptafluoropropyl ether", "Novec HFE 7000", "1-Methoxyheptafluoropropane", "Novec 7000", "HFE 347MCC1", "RE 347mcc"], "SMILES": "C(C(OC)(F)F)(C(F)(F)F)(F)F", "physical_data": {"Molecular Weight": "200.05", "Molecular Formula": "C4H3F7O", "Boiling Point": "33-35 \u00b0C"}}