{"cas_no": "375-22-4", "cn_name": "\u4e03\u6c1f\u4e01\u9178", "en_name": ["Heptafluorobutyric acid", "Butanoic acid, 2,2,3,3,4,4,4-heptafluoro-", "Butyric acid, heptafluoro-", "Butanoic acid, heptafluoro-", "2,2,3,3,4,4,4-Heptafluorobutanoic acid", "Perfluorobutyric acid", "Heptafluorobutyric acid", "Perfluoropropanecarboxylic acid", "Heptafluorobutanoic acid", "Perfluorobutanoic acid", "HFBA", "NSC 820", "Fluorad FC 23", "FC 23", "H 0024"], "SMILES": "C(C(C(O)=O)(F)F)(C(F)(F)F)(F)F", "physical_data": {"Molecular Weight": "214.04", "Molecular Formula": "C4HF7O2", "Boiling Point": "121 \u00b0C", "Melting Point": "-17.5 \u00b0C", "Density": "1.651 g/cm\u00b3 @ Temp: 20 \u00b0C"}}