{"cas_no": "375-73-5", "cn_name": "\u5168\u6c1f-1-\u4e01\u78fa\u9178", "en_name": ["Perfluorobutanesulfonic acid", "1-Butanesulfonic acid, 1,1,2,2,3,3,4,4,4-nonafluoro-", "1-Butanesulfonic acid, nonafluoro-", "1,1,2,2,3,3,4,4,4-Nonafluoro-1-butanesulfonic acid", "Perfluorobutanesulfonic acid", "Nonafluorobutanesulfonic acid", "Nonafluoro-1-butanesulfonic acid", "1-Perfluorobutanesulfonic acid", "Eftop FBSA", "PFBS", "n-Nonafluorobutanesulfonic acid", "Nonafluorobutan-1-sulfonic acid"], "SMILES": "C(C(C(F)(F)F)(F)F)(C(S(=O)(=O)O)(F)F)(F)F", "physical_data": {"Molecular Weight": "300.10", "Molecular Formula": "C4HF9O3S", "Boiling Point": "211 \u00b0C"}}