{"cas_no": "375-82-6", "cn_name": "\u5168\u6c1f-1-\u5e9a\u9187", "en_name": ["2,2,3,3,4,4,5,5,6,6,7,7,7-Tridecafluoro-1-heptanol", "1-Heptanol, 2,2,3,3,4,4,5,5,6,6,7,7,7-tridecafluoro-", "2,2,3,3,4,4,5,5,6,6,7,7,7-Tridecafluoro-1-heptanol", "1H,1H-Perfluoroheptanol", "\u03b1,\u03b1-Dihydroperfluoroheptanol", "1,1-Dihydroperfluoroheptanol", "Perfluorohexylmethanol", "1H,1H-Perfluoro-1-heptanol", "1H,1H-Tridecafluoroheptanol", "1H,1H-Tridecafluoro-1-heptanol"], "SMILES": "C(C(C(C(F)(F)F)(F)F)(F)F)(C(C(CO)(F)F)(F)F)(F)F", "physical_data": {"Molecular Weight": "350.08", "Molecular Formula": "C7H3F13O", "Boiling Point": "146-147 \u00b0C"}}