{"cas_no": "375-45-1", "cn_name": "1,2,3,4-\u56db\u6c2f\u516d\u6c1f\u4e01\u70f7", "en_name": ["1,2,3,4-Tetrachlorohexafluorobutane", "Butane, 1,2,3,4-tetrachloro-1,1,2,3,4,4-hexafluoro-", "Butane, 1,2,3,4-tetrachlorohexafluoro-", "1,2,3,4-Tetrachloro-1,1,2,3,4,4-hexafluorobutane", "1,2,3,4-Tetrachlorohexafluorobutane", "1,1,2,3,4,4-Hexafluoro-1,2,3,4-tetrachlorobutane", "1,2,3,4-Tetrachloroperfluorobutane"], "SMILES": "C(C(C(Cl)(F)F)(Cl)F)(C(Cl)(F)F)(Cl)F", "physical_data": {"Molecular Weight": "303.85", "Molecular Formula": "C4Cl4F6", "Boiling Point": "133-134 \u00b0C", "Melting Point": "134-135 \u00b0C", "Density": "1.7812 g/cm\u00b3 @ Temp: 20 \u00b0C"}}