{"cas_no": "375-85-9", "cn_name": "\u5168\u6c1f\u5e9a\u9178", "en_name": ["Perfluoroheptanoic acid", "Heptanoic acid, 2,2,3,3,4,4,5,5,6,6,7,7,7-tridecafluoro-", "Heptanoic acid, tridecafluoro-", "2,2,3,3,4,4,5,5,6,6,7,7,7-Tridecafluoroheptanoic acid", "Perfluoroenanthic acid", "Perfluoroheptanoic acid", "Tridecafluoroheptanoic acid", "Perfluoro-n-heptanoic acid", "PFHpA"], "SMILES": "C(C(C(C(F)(F)F)(F)F)(F)F)(C(C(C(O)=O)(F)F)(F)F)(F)F", "physical_data": {"Molecular Weight": "364.06", "Molecular Formula": "C7HF13O2", "Boiling Point": "177 \u00b0C", "Melting Point": "31-36 \u00b0C"}}