{"cas_no": "375-97-3", "cn_name": "1H-\u5168\u6c1f\u7678\u70f7", "en_name": ["1,1,1,2,2,3,3,4,4,5,5,6,6,7,7,8,8,9,9,10,10-Heneicosafluorodecane", "Decane, 1,1,1,2,2,3,3,4,4,5,5,6,6,7,7,8,8,9,9,10,10-heneicosafluoro-", "1,1,1,2,2,3,3,4,4,5,5,6,6,7,7,8,8,9,9,10,10-Heneicosafluorodecane", "1H-Perfluorodecane", "1-Hydroperfluorodecane"], "SMILES": "C(C(C(C(C(C(F)F)(F)F)(F)F)(F)F)(F)F)(C(C(C(C(F)(F)F)(F)F)(F)F)(F)F)(F)F", "physical_data": {"Molecular Weight": "520.08", "Molecular Formula": "C10HF21", "Boiling Point": "159-160 \u00b0C", "Melting Point": "31-32 \u00b0C"}}