{"cas_no": "375-01-9", "cn_name": "\u5168\u6c1f\u4e01\u9187", "en_name": ["2,2,3,3,4,4,4-Heptafluorobutanol", "1-Butanol, 2,2,3,3,4,4,4-heptafluoro-", "2,2,3,3,4,4,4-Heptafluoro-1-butanol", "1H,1H-Heptafluorobutanol-1", "2,2,3,3,4,4,4-Heptafluorobutanol", "1,1-Dihydroperfluorobutyl alcohol", "\u03b1,\u03b1-Dihydroperfluorobutanol", "Heptafluoro-1,1-dihydrobutyl alcohol", "1,1-Dihydroperfluoro-1-butanol", "(Perfluoropropyl)methanol", "1H,1H-Heptafluoro-1-butanol", "NSC 60528", "1H,1H-Heptafluorobutanol"], "SMILES": "C(C(CO)(F)F)(C(F)(F)F)(F)F", "physical_data": {"Molecular Weight": "200.05", "Molecular Formula": "C4H3F7O", "Boiling Point": "95 \u00b0C"}}