{"cas_no": "375-80-4", "cn_name": "1,6-\u4e8c\u7898\u4ee3\u5341\u4e8c\u6c1f\u5df1\u70f7", "en_name": ["1,6-Diiodoperfluorohexane", "Hexane, 1,1,2,2,3,3,4,4,5,5,6,6-dodecafluoro-1,6-diiodo-", "Hexane, dodecafluoro-1,6-diiodo-", "1,1,2,2,3,3,4,4,5,5,6,6-Dodecafluoro-1,6-diiodohexane", "1,6-Diiodoperfluorohexane", "1,6-Diiodododecafluorohexane", "Dodecafluoro-1,6-diiodohexane", "\u03b1,\u03c9-Diiodoperfluorohexane", "1,6-Iododecafluorohexane"], "SMILES": "C(C(C(C(F)(F)I)(F)F)(F)F)(C(C(F)(F)I)(F)F)(F)F", "physical_data": {"Molecular Weight": "553.85", "Molecular Formula": "C6F12I2", "Boiling Point": "102 \u00b0C @ Press: 62 Torr", "Melting Point": "25 \u00b0C"}}