{"cas_no": "375-62-2", "cn_name": "\u5168\u6c1f\u620a\u9170\u6c1f", "en_name": ["2,2,3,3,4,4,5,5,5-Nonafluoropentanoyl fluoride", "Pentanoyl fluoride, 2,2,3,3,4,4,5,5,5-nonafluoro-", "Valeryl fluoride, nonafluoro-", "Pentanoyl fluoride, nonafluoro-", "2,2,3,3,4,4,5,5,5-Nonafluoropentanoyl fluoride", "Perfluorovaleryl fluoride", "Perfluorovaleroyl fluoride", "Perfluoropentanoyl fluoride", "Perfluoropentanone"], "SMILES": "C(C(C(F)(F)F)(F)F)(C(C(F)=O)(F)F)(F)F", "physical_data": {"Molecular Weight": "266.04", "Molecular Formula": "C5F10O", "Boiling Point": "32 \u00b0C @ Press: 760 Torr", "Density": "1.601 g/cm\u00b3 @ Temp: 20 \u00b0C"}}