{"cas_no": "375-00-8", "cn_name": "\u4e03\u6c1f\u4e01\u8148", "en_name": ["2,2,3,3,4,4,4-Heptafluorobutanenitrile", "Butanenitrile, 2,2,3,3,4,4,4-heptafluoro-", "Butyronitrile, heptafluoro-", "Butanenitrile, heptafluoro-", "2,2,3,3,4,4,4-Heptafluorobutanenitrile", "Heptafluoropropyl cyanide", "Heptafluorobutyronitrile", "Perfluorobutyronitrile", "Heptafluorobutanenitrile"], "SMILES": "C(C(C#N)(F)F)(C(F)(F)F)(F)F", "physical_data": {"Molecular Weight": "195.04", "Molecular Formula": "C4F7N", "Boiling Point": "1 \u00b0C @ Press: 757 Torr"}}