{"cas_no": "375-02-0", "cn_name": "2,2,3,3,4,4,4-\u4e03\u6c1f\u4e01\u919b\u6c34\u5408\u7269,TECH.", "en_name": ["2,2,3,3,4,4,4-Heptafluorobutanal", "Butanal, 2,2,3,3,4,4,4-heptafluoro-", "Butyraldehyde, heptafluoro-", "Butanal, heptafluoro-", "2,2,3,3,4,4,4-Heptafluorobutanal", "Heptafluorobutyraldehyde", "Perfluorobutyraldehyde"], "SMILES": "C(C(C=O)(F)F)(C(F)(F)F)(F)F", "physical_data": {"Molecular Weight": "198.04", "Molecular Formula": "C4HF7O", "Boiling Point": "28 \u00b0C @ Press: 740 Torr"}}