{"cas_no": "375-14-4", "cn_name": "3,3,4,4,5,5,5-\u516d\u6c1f\u620a\u9187", "en_name": ["3,3,4,4,5,5,5-Heptafluoro-2-pentanol", "2-Pentanol, 3,3,4,4,5,5,5-heptafluoro-", "3,3,4,4,5,5,5-Heptafluoro-2-pentanol", "NSC 3630"], "SMILES": "C(C(C(C)O)(F)F)(C(F)(F)F)(F)F", "physical_data": {"Molecular Weight": "214.08", "Molecular Formula": "C5H5F7O", "Boiling Point": "100-102 \u00b0C", "Density": "1.483 g/cm\u00b3 @ Temp: 29 \u00b0C"}}