{"cas_no": "375-34-8", "cn_name": "\u516d\u6c1f-2,2,3,3-\u56db\u6c2f\u4e01\u70f7", "en_name": ["2,2,3,3-Tetrachloro-1,1,1,4,4,4-hexafluorobutane", "Butane, 2,2,3,3-tetrachloro-1,1,1,4,4,4-hexafluoro-", "Butane, 2,2,3,3-tetrachlorohexafluoro-", "2,2,3,3-Tetrachloro-1,1,1,4,4,4-hexafluorobutane", "FC 316maa", "CFC 316", "1,1,1,4,4,4-Hexafluoro-2,2,3,3-tetrachlorobutane", "NSC 60525", "2,2,3,3-Tetrachlorohexafluorobutane"], "SMILES": "C(C(C(F)(F)F)(Cl)Cl)(C(F)(F)F)(Cl)Cl", "physical_data": {"Molecular Weight": "303.85", "Molecular Formula": "C4Cl4F6", "Boiling Point": "131 \u00b0C", "Melting Point": "83-84 \u00b0C"}}