{"cas_no": "37517-30-9", "cn_name": "\u918b\u4e01\u6d1b\u5c14", "en_name": ["Acebutolol", "Butanamide, N-[3-acetyl-4-[2-hydroxy-3-[(1-methylethyl)amino]propoxy]phenyl]-", "Butanamide, N-[3-acetyl-4-[2-hydroxy-3-[(1-methylethyl)amino]propoxy]phenyl]-, (\u00b1)-", "N-[3-Acetyl-4-[2-hydroxy-3-[(1-methylethyl)amino]propoxy]phenyl]butanamide", "Acebutolol", "(\u00b1)-Acebutolol", "dl-Acebutolol", "Neptal", "Prent", "Monitan", "(RS)-Acebutolol", "Acecor", "MeSH ID: D000070"], "SMILES": "O(CC(CNC(C)C)O)C1=C(C(C)=O)C=C(NC(CCC)=O)C=C1", "physical_data": {"Molecular Weight": "336.43", "Molecular Formula": "C18H28N2O4", "Melting Point": "119-123 \u00b0C"}}