{"cas_no": "37517-81-0", "cn_name": "\u4e19\u4e8c\u9178\u7532\u916f\u9170\u6c2f", "en_name": ["Methyl 3-chloro-3-oxopropanoate", "Propanoic acid, 3-chloro-3-oxo-, methyl ester", "Methyl malonyl chloride", "(Methoxycarbonyl)acetyl chloride", "Methyl (chlorocarbonyl)acetate", "(Carbomethoxy)acetyl chloride", "Methyl (chloroformyl)acetate", "Malonic acid monomethyl ester chloride", "Malonic acid chloride monomethyl ester", "2-Methoxycarbonylacetyl chloride", "Methyl 3-chloro-3-oxopropanoate", "Methyl 2-(chloroformyl)acetate", "Methyl 3-chloro-3-oxopropionate", "3-Chloro-3-oxopropanoic acid methyl ester", "Methyl 2-(chlorocarbonyl)acetate", "Chlorocarbonylacetic acid methyl ester", "3-Methoxy-3-oxopropanoyl chloride", "Methyl malonoyl chloride"], "SMILES": "C(CC(Cl)=O)(OC)=O", "physical_data": {"Molecular Weight": "136.53", "Molecular Formula": "C4H5ClO3", "Boiling Point": "63-64 \u00b0C @ Press: 10 Torr"}}