{"cas_no": "37517-28-5", "cn_name": "\u963f\u7c73\u5361\u661f", "en_name": ["Amikacin", "D-Streptamine, O-3-amino-3-deoxy-\u03b1-D-glucopyranosyl-(1\u21926)-O-[6-amino-6-deoxy-\u03b1-D-glucopyranosyl-(1\u21924)]-N1-[(2S)-4-amino-2-hydroxy-1-oxobutyl]-2-deoxy-", "D-Streptamine, O-3-amino-3-deoxy-\u03b1-D-glucopyranosyl-(1\u21926)-O-[6-amino-6-deoxy-\u03b1-D-glucopyranosyl-(1\u21924)]-N1-(4-amino-2-hydroxy-1-oxobutyl)-2-deoxy-, (S)-", "O-3-Amino-3-deoxy-\u03b1-D-glucopyranosyl-(1\u21926)-O-[6-amino-6-deoxy-\u03b1-D-glucopyranosyl-(1\u21924)]-N1-[(2S)-4-amino-2-hydroxy-1-oxobutyl]-2-deoxy-D-streptamine", "1-N-[L-(-)-\u03b3-Amino-\u03b1-hydroxybutyryl]kanamycin A", "Amikacin", "Antibiotic BB-K 8", "BB-K 8", "Amicacin", "Amikacillin", "Lukadin", "Amukin", "Arikace", "Potentox", "BAY 41-6551", "BAY 416651", "Amikozit", "Amigasol", "Arikayce", "MeSH ID: D000583"], "SMILES": "O(C1C(NC(C(CCN)O)=O)CC(N)C(OC2OC(CN)C(O)C(O)C2O)C1O)C3OC(CO)C(O)C(N)C3O", "physical_data": {"Molecular Weight": "585.60", "Molecular Formula": "C22H43N5O13", "Melting Point": "203-204 \u00b0C"}}