{"cas_no": "37529-30-9", "cn_name": "4-\u7678\u57fa\u82ef\u80fa", "en_name": ["4-Decylaniline", "Benzenamine, 4-decyl-", "Aniline, p-decyl-", "4-Decylbenzenamine", "p-n-Decylaniline", "4-n-Decylaniline", "p-Decylaniline", "4-Decylaniline", "4-Decylphenylamine"], "SMILES": "C(CCCCCCCCC)C1=CC=C(N)C=C1", "physical_data": {"Molecular Weight": "233.39", "Molecular Formula": "C16H27N", "Boiling Point": "219 \u00b0C", "Melting Point": "25 \u00b0C"}}