{"cas_no": "37526-88-8", "cn_name": "(E)-2-\u7532\u57fa-2-\u4e01\u70ef\u9178\u82ef\u7532\u916f", "en_name": ["Benzyl tiglate", "2-Butenoic acid, 2-methyl-, phenylmethyl ester, (2E)-", "2-Butenoic acid, 2-methyl-, phenylmethyl ester, (E)-", "Tiglic acid benzyl ester", "Benzyl tiglate", "NSC 69098"], "SMILES": "C(OC(C(=CC)C)=O)C1=CC=CC=C1", "physical_data": {"Molecular Weight": "190.24", "Molecular Formula": "C12H14O2", "Boiling Point": "139 \u00b0C @ Press: 9 Torr", "Density": "1.0431 g/cm\u00b3 @ Temp: 12 \u00b0C"}}