{"cas_no": "3752-25-8", "cn_name": "\u90bb\u6c2f\u8089\u6842\u9178", "en_name": ["2-Chlorocinnamic acid", "2-Propenoic acid, 3-(2-chlorophenyl)-", "Cinnamic acid, o-chloro-", "3-(2-Chlorophenyl)-2-propenoic acid", "2-Chlorocinnamic acid", "o-Chlorocinnamic acid", "3-(2-Chlorophenyl)propenoic acid", "NSC 4792", "3-(2-Chlorophenyl)acrylic acid"], "SMILES": "C(=CC(O)=O)C1=C(Cl)C=CC=C1", "physical_data": {"Molecular Weight": "182.60", "Molecular Formula": "C9H7ClO2", "Melting Point": "205 \u00b0C"}}