{"cas_no": "3752-97-4", "cn_name": "1,4-\u4e8c(\u6c2f\u7532\u57fa)-2,5-\u4e8c\u7532\u6c27\u57fa\u82ef", "en_name": ["1,4-Bis(chloromethyl)-2,5-dimethoxybenzene", "Benzene, 1,4-bis(chloromethyl)-2,5-dimethoxy-", "p-Xylene, \u03b1,\u03b1\u2032-dichloro-2,5-dimethoxy-", "1,4-Bis(chloromethyl)-2,5-dimethoxybenzene", "2,5-Bis(chloromethyl)-1,4-dimethoxybenzene", "2,5-Dimethoxy-1,4-bis(chloromethyl)benzene", "1,4-Dichloromethyl-2,5-dimethoxybenzene"], "SMILES": "C(Cl)C1=C(OC)C=C(CCl)C(OC)=C1", "physical_data": {"Molecular Weight": "235.11", "Molecular Formula": "C10H12Cl2O2", "Melting Point": "165-166 \u00b0C"}}