{"cas_no": "3753-18-2", "cn_name": "4,4'-\u8054\u82ef\u4e8c\u7532\u57fa\u4e8c\u7532\u919a", "en_name": ["4,4\u2032-Bis(methoxymethyl)-1,1\u2032-biphenyl", "1,1\u2032-Biphenyl, 4,4\u2032-bis(methoxymethyl)-", "p,p\u2032-Bitolyl, \u03b1,\u03b1\u2032-dimethoxy-", "4,4\u2032-Bis(methoxymethyl)-1,1\u2032-biphenyl", "4,4\u2032-Bis(methoxymethyl)biphenyl", "1-(Methoxymethyl)-4-[4-(methoxymethyl)phenyl]benzene"], "SMILES": "C(OC)C1=CC=C(C=C1)C2=CC=C(COC)C=C2", "physical_data": {"Molecular Weight": "242.31", "Molecular Formula": "C16H18O2", "Melting Point": "46-49 \u00b0C"}}