{"cas_no": "37535-50-5", "cn_name": "D-3-(4-\u5421\u5576\u57fa)-\u4e19\u6c28\u9178", "en_name": ["(\u03b1R)-\u03b1-Amino-4-pyridinepropanoic acid", "4-Pyridinepropanoic acid, \u03b1-amino-, (\u03b1R)-", "4-Pyridinepropanoic acid, \u03b1-amino-, (R)-", "(\u03b1R)-\u03b1-Amino-4-pyridinepropanoic acid", "3-(4-Pyridyl)-D-alanine", "\u03b2-4-Pyridyl-D-alanine", "(2R)-2-Amino-3-(pyridin-4-yl)propanoic acid", "(R)-2-Amino-3-(pyridin-4-yl)propanoicacid", "(R)-2-Amino-3-(pyridin-4-yl)propanoic acid"], "SMILES": "C(C(C(O)=O)N)C=1C=CN=CC1", "physical_data": {"Molecular Weight": "166.18", "Molecular Formula": "C8H10N2O2", "Melting Point": "280 \u00b0C (decomp)"}}