{"cas_no": "3753-05-7", "cn_name": "\u4e59\u4e8c\u9187\u53cc(4-\u7fa7\u82ef\u57fa) \u919a", "en_name": ["4,4\u2032-[1,2-Ethanediylbis(oxy)]bis[benzoic acid]", "Benzoic acid, 4,4\u2032-[1,2-ethanediylbis(oxy)]bis-", "Benzoic acid, 4,4\u2032-(ethylenedioxy)di-", "4,4\u2032-[1,2-Ethanediylbis(oxy)]bis[benzoic acid]", "\u03b1,\u03b1\u2032-Bi-p-anisic acid", "1,2-Bis(p-carboxyphenoxy)ethane", "4,4\u2032-Ethylenedioxybis[benzoic acid]", "1,2-Bis(4-carboxyphenoxy)ethane", "4,4\u2032-(Ethylenedioxy)dibenzoic acid", "1,2-Diphenoxyethane-4,4\u2032-dicarboxylic acid"], "SMILES": "C(O)(=O)C1=CC=C(OCCOC2=CC=C(C(O)=O)C=C2)C=C1", "physical_data": {"Molecular Weight": "302.28", "Molecular Formula": "C16H14O6", "Melting Point": "352-355 \u00b0C"}}