{"cas_no": "375395-33-8", "cn_name": "\u7532\u57fa\u4e09\u6b63\u8f9b\u94f5\u5408\u53cc(\u4e09\u6c1f\u7532\u70f7\u78fa\u9170)\u4e9a\u80fa", "en_name": ["Methyltrioctylammonium bis(trifluoromethylsulfonyl)imide", "1-Octanaminium, N-methyl-N,N-dioctyl-, salt with 1,1,1-trifluoro-N-[(trifluoromethyl)sulfonyl]methanesulfonamide (1:1)", "Trioctylmethylammonium bis(trifluoromethane sulfone)imide", "Methyltrioctylammonium bis(trifluoromethanesulfonyl)imide", "Trioctylmethylammonium bis(trifluoromethylsulfonyl)imide", "NSC 747259", "Methyltrioctylammonium bis(trifluoromethylsulfonyl)imide", "Methyltrioctylammonium bistriflamide", "Methyltri-n-octylammonium bis(trifluoromethanesulfonyl)imide", "Trioctylmethylammonium bis(trifluoromethanesulfonyl)imide", "MTOA-TFSI"], "SMILES": "[N+](CCCCCCCC)(CCCCCCCC)(CCCCCCCC)C.S([N-]S(C(F)(F)F)(=O)=O)(C(F)(F)F)(=O)=O", "physical_data": {"Molecular Weight": "", "Molecular Formula": "C25H54N.C2F6NO4S2", "Melting Point": "-70.0 \u00b0C", "Density": "1.0823 g/cm\u00b3 @ Temp: 20 \u00b0C"}}