{"cas_no": "37538-68-4", "cn_name": "\u5421\u5576\u5e76[3,2-D]\u5627\u5576-2,4(1H,3H)-\u4e8c\u916e", "en_name": ["Pyrido[3,2-d]pyrimidine-2,4-diol", "Pyrido[3,2-d]pyrimidine-2,4(1H,3H)-dione", "Pyrido[3,2-d]pyrimidine-2,4-diol", "2,4-Dihydroxypyrido[3,2-d]pyrimidine", "1H,3H-Pyrido[3,2-d]pyrimidine-2,4-dione", "1H,2H,3H,4H-Pyrido[3,2-d]pyrimidine-2,4-dione", "1H-Pyrido[3,2-d]pyrimidine-2,4-dione"], "SMILES": "O=C1C=2C(NC(=O)N1)=CC=CN2", "physical_data": {"Molecular Weight": "163.13", "Molecular Formula": "C7H5N3O2", "Melting Point": "320 \u00b0C"}}