{"cas_no": "3755-83-7", "cn_name": "2-\u7532\u57fa-4,5-\u4e8c\u82ef\u57fa\u567b\u5511", "en_name": ["2-Methyl-4,5-diphenylthiazole", "Thiazole, 2-methyl-4,5-diphenyl-", "2-Methyl-4,5-diphenylthiazole", "4,5-Diphenyl-2-methylthiazole", "NSC 59791", "2-Methyl-4,5-diphenyl-1,3-thiazole"], "SMILES": "CC1=NC(=C(S1)C2=CC=CC=C2)C3=CC=CC=C3", "physical_data": {"Molecular Weight": "251.35", "Molecular Formula": "C16H13NS", "Boiling Point": "132 \u00b0C @ Press: 0.15 Torr", "Melting Point": "51-52 \u00b0C"}}