{"cas_no": "37551-43-2", "cn_name": "5-\u6c2f-N,2-\u4e8c\u7f9f\u57fa\u82ef\u7532\u9170\u80fa", "en_name": ["5-Chloro-N,2-dihydroxybenzamide", "Benzamide, 5-chloro-N,2-dihydroxy-", "5-Chloro-N,2-dihydroxybenzamide", "5-Chlorosalicylhydroxamic acid", "N-(5-Chlorosalicyl)hydroxamic acid"], "SMILES": "C(NO)(=O)C1=C(O)C=CC(Cl)=C1", "physical_data": {"Molecular Weight": "187.58", "Molecular Formula": "C7H6ClNO3", "Melting Point": "246 \u00b0C"}}