{"cas_no": "37560-50-2", "cn_name": "1-(4-\u6c2f\u82ef\u57fa)-1H-\u5421\u54af-2-\u7532\u919b", "en_name": ["1-(4-Chlorophenyl)-1H-pyrrole-2-carboxaldehyde", "1H-Pyrrole-2-carboxaldehyde, 1-(4-chlorophenyl)-", "1-(4-Chlorophenyl)-1H-pyrrole-2-carboxaldehyde", "1-(4-Chlorophenyl)-2-pyrrolecarboxaldehyde", "1-(4-Chlorophenyl)-1H-pyrrole-2-carbaldehyde", "1-(4-Chlorophenyl)pyrrole-2-carbaldehyde"], "SMILES": "C(=O)C=1N(C=CC1)C2=CC=C(Cl)C=C2", "physical_data": {"Molecular Weight": "205.64", "Molecular Formula": "C11H8ClNO", "Melting Point": "96-97 \u00b0C"}}