{"cas_no": "37566-40-8", "cn_name": "5-\u6c2f-1,3,4-\u567b\u4e8c\u5511-2-\u80fa", "en_name": ["5-Chloro-1,3,4-thiadiazol-2-amine", "1,3,4-Thiadiazol-2-amine, 5-chloro-", "5-Chloro-1,3,4-thiadiazol-2-amine", "2-Amino-5-chloro-1,3,4-thiadiazole", "NSC 231514"], "SMILES": "ClC=1SC(N)=NN1", "physical_data": {"Molecular Weight": "135.58", "Molecular Formula": "C2H2ClN3S", "Melting Point": "192 \u00b0C (decomp)"}}