{"cas_no": "37577-28-9", "cn_name": "\u6d88\u65cb\u53bb\u7532\u9ebb\u9ec4\u78b1", "en_name": ["(+)-Phenylpropanolamine", "Benzenemethanol, \u03b1-[(1R)-1-aminoethyl]-, (\u03b1S)-", "Benzenemethanol, \u03b1-(1-aminoethyl)-, [S-(R*,S*)]-", "(\u03b1S)-\u03b1-[(1R)-1-Aminoethyl]benzenemethanol", "(+)-Norephedrine", "(2R,3S)-3-Phenyl-3-hydroxy-2-aminopropane", "d-Phenylpropanolamine", "(+)-Norephedrin", "d-Norephedrine", "(1S,2R)-Norephedrine", "(1S,2R)-(+)-Norephedrine", "(1S,2R)-2-Amino-1-phenylpropanol", "(+)-Phenylpropanolamine", "D-(+)-Norephedrine", "(+)-(1S,2R)-Norephedrine", "(1S,2R)-2-Methyl-1-phenyl-2-aminoethanol", "(1R,2S)-2-Hydroxy-2-phenyl-1-methyl-1-aminoethane", "(1S,2R)-2-Amino-1-phenyl-1-propanol", "(1S,2R)-2-Amino-1-phenylpropan-1-ol"], "SMILES": "C(C(C)N)(O)C1=CC=CC=C1", "physical_data": {"Molecular Weight": "151.21", "Molecular Formula": "C9H13NO", "Melting Point": "51-54 \u00b0C"}}