{"cas_no": "3758-34-7", "cn_name": "beta-\u96cc\u4e8c\u9187 17-\u4e19\u9178\u916f", "en_name": ["Estradiol, 17-propionate", "Estra-1,3,5(10)-triene-3,17-diol (17\u03b2)-, 17-propanoate", "Estradiol, 17-propionate", "Estra-1,3,5(10)-triene-3,17\u03b2-diol 17\u03b2-propionate", "Oestra-1,3,5(10)-trien-3,17\u03b2-diol 17-propionate", "Estra-1,3,5(10)-triene-3,17\u03b2-diol 17-propionate", "17\u03b2-Estradiol 17-propionate", "Estradiol propionate", "Akrofollin"], "SMILES": "CC12C(C3C(C=4C(CC3)=CC(O)=CC4)CC1)CCC2OC(CC)=O", "physical_data": {"Molecular Weight": "328.45", "Molecular Formula": "C21H28O3", "Melting Point": "199-200 \u00b0C"}}