{"cas_no": "37589-57-4", "cn_name": "\u5168\u6c1f\u4e8c\u5341\u70f7", "en_name": ["1,1,1,2,2,3,3,4,4,5,5,6,6,7,7,8,8,9,9,10,10,11,11,12,12,13,13,14,14,15,15,16,16,17,17,18,18,19,19,20,20,20-Dotetracontafluoroeicosane", "Eicosane, 1,1,1,2,2,3,3,4,4,5,5,6,6,7,7,8,8,9,9,10,10,11,11,12,12,13,13,14,14,15,15,16,16,17,17,18,18,19,19,20,20,20-dotetracontafluoro-", "Eicosane, dotetracontafluoro-", "1,1,1,2,2,3,3,4,4,5,5,6,6,7,7,8,8,9,9,10,10,11,11,12,12,13,13,14,14,15,15,16,16,17,17,18,18,19,19,20,20,20-Dotetracontafluoroeicosane", "Perfluoroeicosane"], "SMILES": "C(C(C(C(C(C(C(C(C(C(C(F)(F)F)(F)F)(F)F)(F)F)(F)F)(F)F)(F)F)(F)F)(F)F)(F)F)(C(C(C(C(C(C(C(C(C(F)(F)F)(F)F)(F)F)(F)F)(F)F)(F)F)(F)F)(F)F)(F)F)(F)F", "physical_data": {"Molecular Weight": "1038.15", "Molecular Formula": "C20F42", "Melting Point": "120 \u00b0C"}}