{"cas_no": "375857-66-2", "cn_name": "7-(\u4e09\u6c1f\u7532\u57fa)\u54aa\u5511\u5e76[1,2-A]\u5627\u5576", "en_name": ["7-(Trifluoromethyl)imidazo[1,2-a]pyrimidine", "Imidazo[1,2-a]pyrimidine, 7-(trifluoromethyl)-", "7-(Trifluoromethyl)imidazo[1,2-a]pyrimidine", "7-Trifluoromethylimidazo[1,2-a]pyrimidine"], "SMILES": "C(F)(F)(F)C1=NC=2N(C=C1)C=CN2", "physical_data": {"Molecular Weight": "187.12", "Molecular Formula": "C7H4F3N3", "Melting Point": "163-164 \u00b0C"}}