{"cas_no": "37593-02-5", "cn_name": "\u5bf9\u620a\u57fa\u82ef\u4e59\u916e", "en_name": ["1-(4-Pentylphenyl)ethanone", "Ethanone, 1-(4-pentylphenyl)-", "Acetophenone, 4\u2032-pentyl-", "1-(4-Pentylphenyl)ethanone", "p-n-Pentylacetophenone", "4\u2032-Pentylacetophenone", "p-Pentylacetophenone", "NSC 172891", "4-Pentylacetophenone", "1-(4-Pentylphenyl)ethan-1-one"], "SMILES": "C(CCCC)C1=CC=C(C(C)=O)C=C1", "physical_data": {"Molecular Weight": "190.28", "Molecular Formula": "C13H18O", "Boiling Point": "159.5 \u00b0C @ Press: 17 Torr", "Density": "0.914 g/cm\u00b3 @ Temp: 20 \u00b0C"}}