{"cas_no": "3759-28-2", "cn_name": "alpha-\u6c30\u57fa-\u90bb-\u82ef\u4e59\u8148", "en_name": ["2-Cyanobenzeneacetonitrile", "Benzeneacetonitrile, 2-cyano-", "o-Tolunitrile, \u03b1-cyano-", "2-Cyanobenzeneacetonitrile", "\u03b1-Cyano-o-tolunitrile", "o-Cyanobenzyl cyanide", "\u03b1-Cyano-o-toluonitrile", "1-Cyano-2-(cyanomethyl)benzene", "(o-Cyanophenyl)acetonitrile", "2-Cyanobenzyl cyanide", "(2-Cyanophenyl)acetonitrile", "Homophthalonitrile", "2-(Cyanomethyl)benzonitrile", "NSC 340237"], "SMILES": "C(C#N)C1=C(C#N)C=CC=C1", "physical_data": {"Molecular Weight": "142.16", "Molecular Formula": "C9H6N2", "Melting Point": "79-80 \u00b0C"}}