{"cas_no": "37595-74-7", "cn_name": "N-\u82ef\u57fa\u53cc(\u4e09\u6c1f\u7532\u70f7\u78fa\u9170)\u4e9a\u80fa", "en_name": ["N-Phenyltrifluoromethanesulfonimide", "Methanesulfonamide, 1,1,1-trifluoro-N-phenyl-N-[(trifluoromethyl)sulfonyl]-", "1,1,1-Trifluoro-N-phenyl-N-[(trifluoromethyl)sulfonyl]methanesulfonamide", "N,N-Bis(trifluoromethylsulfonyl)aniline", "N,N-Bis(trifluoromethylsulfonyl)phenylamine", "Phenyl triflimide", "N-Phenyltriflimide", "N,N-Bis(trifluoromethanesulfonyl)aniline", "N-Phenyltrifluoromethanesulfonimide", "N-Phenyltrifluoromethylsulfonimide", "Phenyl bis((trifluoromethyl)sulfonyl)amine", "Trifluoro-N-phenyl-N-[(trifluoromethyl)sulfonyl]methanesulfonamide", "NSC 240874", "N-Phenylbis(trifluoromethanesulfonimide)", "1,1,1-Trifluoro-N-phenyl-N-trifluoromethanesulfonylmethanesulfonamide", "N-Phenyl-N-[(trifluoromethyl)sulfonyl]trifluoromethanesulfonamide", "N-Phenylbis(trifluoromethanesulfonyl)imide", "PhNTf2", "N-Phenyl-N-(trifluoromethanesulfonyl)trifluoromethanesulfonamide", "N,N\u2032-Bis(trifluoromethanesulfonyl)aniline", "N-Phenyl-bis(trifluoromethanesulfonimide)"], "SMILES": "N(S(C(F)(F)F)(=O)=O)(S(C(F)(F)F)(=O)=O)C1=CC=CC=C1", "physical_data": {"Molecular Weight": "357.25", "Molecular Formula": "C8H5F6NO4S2", "Melting Point": "95-96 \u00b0C"}}