{"cas_no": "37593-03-6", "cn_name": "\u5bf9\u5e9a\u57fa\u82ef\u4e59\u916e", "en_name": ["1-(4-Heptylphenyl)ethanone", "Ethanone, 1-(4-heptylphenyl)-", "1-(4-Heptylphenyl)ethanone", "p-n-Heptylacetophenone", "4\u2032-Heptylacetophenone", "p-Heptylacetophenone", "NSC 172893", "1-(4-Heptylphenyl)ethan-1-one"], "SMILES": "C(CCCCCC)C1=CC=C(C(C)=O)C=C1", "physical_data": {"Molecular Weight": "218.33", "Molecular Formula": "C15H22O", "Boiling Point": "176-179 \u00b0C @ Press: 13 Torr"}}