{"cas_no": "37593-05-8", "cn_name": "\u5bf9\u58ec\u57fa\u82ef\u4e59\u916e", "en_name": ["1-(4-Nonylphenyl)ethanone", "Ethanone, 1-(4-nonylphenyl)-", "1-(4-Nonylphenyl)ethanone", "4\u2032-Nonylacetophenone", "p-Nonylacetophenone", "1-(4-Nonylphenyl)ethan-1-one"], "SMILES": "C(CCCCCCCC)C1=CC=C(C(C)=O)C=C1", "physical_data": {"Molecular Weight": "246.39", "Molecular Formula": "C17H26O", "Boiling Point": "165 \u00b0C @ Press: 3 Torr"}}