{"cas_no": "37592-72-6", "cn_name": "\u5bf9\u5df1\u57fa\u82ef\u4e59\u916e", "en_name": ["1-(4-Hexylphenyl)ethanone", "Ethanone, 1-(4-hexylphenyl)-", "1-(4-Hexylphenyl)ethanone", "p-n-Hexylacetophenone", "4\u2032-Hexylacetophenone", "p-Hexylacetophenone", "1-(4-Hexylphenyl)ethan-1-one"], "SMILES": "C(C)(=O)C1=CC=C(CCCCCC)C=C1", "physical_data": {"Molecular Weight": "204.31", "Molecular Formula": "C14H20O", "Boiling Point": "171-172 \u00b0C"}}