{"cas_no": "376-72-7", "cn_name": "2,2,3,3,3,4,4,5,5-\u516b\u6c1f\u620a\u9178", "en_name": ["\u03c9-Hydroperfluorovaleric acid", "Pentanoic acid, 2,2,3,3,4,4,5,5-octafluoro-", "Valeric acid, 2,2,3,3,4,4,5,5-octafluoro-", "2,2,3,3,4,4,5,5-Octafluoropentanoic acid", "\u03c9-Monohydrooctafluoropentanoic acid", "\u03c9-Hydrooctafluorovaleric acid", "\u03c9-Hydroperfluorovaleric acid", "2,2,3,3,4,4,5,5,-Octafluoropentanoic acid", "5-H-Octafluoropentanoic acid"], "SMILES": "C(C(C(F)F)(F)F)(C(C(O)=O)(F)F)(F)F", "physical_data": {"Molecular Weight": "246.06", "Molecular Formula": "C5H2F8O2", "Boiling Point": "155-160 \u00b0C"}}