{"cas_no": "376-18-1", "cn_name": "1H,1H,9H-\u5341\u516d\u6c1f-1-\u58ec\u9187", "en_name": ["2,2,3,3,4,4,5,5,6,6,7,7,8,8,9,9-Hexadecafluoro-1-nonanol", "1-Nonanol, 2,2,3,3,4,4,5,5,6,6,7,7,8,8,9,9-hexadecafluoro-", "2,2,3,3,4,4,5,5,6,6,7,7,8,8,9,9-Hexadecafluoro-1-nonanol", "\u03b1,\u03b1,\u03c9-Trihydro-perfluorononyl alcohol", "1H,1H,9H-Hexadecafluoro-1-hydroxynonane", "1H,1H,9H-Hexadecafluoro-1-nonanol", "\u03b1,\u03b1,\u03c9-Trihydroperfluorononanol", "Hexadecylfluorononyl alcohol", "2,2,3,3,4,4,5,5,6,6,7,7,8,8,9,9-Hexadecafluorononanol", "NSC 5597", "A 5810", "2,2,3,3,4,4,5,5,6,6,7,7,8,8,9,9-Hexadecafluorononan-1-ol", "1,1,9-Trihydroperfluorononanol", "1H,1H,9H-Perfluorononyl alcohol", "1,1,9-Trihydroperfluorononanol-1"], "SMILES": "C(C(C(C(C(F)F)(F)F)(F)F)(F)F)(C(C(C(CO)(F)F)(F)F)(F)F)(F)F", "physical_data": {"Molecular Weight": "432.10", "Molecular Formula": "C9H4F16O", "Boiling Point": "156-158 \u00b0C @ Press: 194 Torr", "Melting Point": "66 \u00b0C"}}