{"cas_no": "376-53-4", "cn_name": "OCTAFLUOROADIPONITRILE", "en_name": ["2,2,3,3,4,4,5,5-Octafluorohexanedinitrile", "Hexanedinitrile, 2,2,3,3,4,4,5,5-octafluoro-", "Hexanedinitrile, octafluoro-", "2,2,3,3,4,4,5,5-Octafluorohexanedinitrile", "Perfluoroadiponitrile", "Perfluoroadipic acid dinitrile", "Octafluoroadiponitrile"], "SMILES": "C(C(C(C#N)(F)F)(F)F)(C(C#N)(F)F)(F)F", "physical_data": {"Molecular Weight": "252.06", "Molecular Formula": "C6F8N2", "Boiling Point": "63 \u00b0C"}}