{"cas_no": "376-71-6", "cn_name": "5H-\u8f9b\u6c1f\u620a\u9170\u6c2f", "en_name": ["2,2,3,3,4,4,5,5-Octafluoropentanoyl chloride", "Pentanoyl chloride, 2,2,3,3,4,4,5,5-octafluoro-", "Valeryl chloride, 2,2,3,3,4,4,5,5-octafluoro-", "2,2,3,3,4,4,5,5-Octafluoropentanoyl chloride", "2,2,3,3,4,4,5,5-Octafluorovaleryl chloride"], "SMILES": "C(C(C(Cl)=O)(F)F)(C(C(F)F)(F)F)(F)F", "physical_data": {"Molecular Weight": "264.50", "Molecular Formula": "C5HClF8O", "Boiling Point": "84.5-86.5 \u00b0C"}}