{"cas_no": "376-27-2", "cn_name": "\u5341\u4e94\u6c1f\u8f9b\u9178\u7532\u916f", "en_name": ["Methyl perfluorooctanoate", "Octanoic acid, 2,2,3,3,4,4,5,5,6,6,7,7,8,8,8-pentadecafluoro-, methyl ester", "Octanoic acid, pentadecafluoro-, methyl ester", "Methyl perfluorooctanoate", "Methyl pentadecafluorooctanoate", "Perfluorooctanoic acid methyl ester", "P 1453"], "SMILES": "C(C(C(C(C(F)(F)F)(F)F)(F)F)(F)F)(C(C(C(OC)=O)(F)F)(F)F)(F)F", "physical_data": {"Molecular Weight": "428.10", "Molecular Formula": "C9H3F15O2", "Boiling Point": "158 \u00b0C"}}