{"cas_no": "376-84-1", "cn_name": "\u4e19\u70ef\u9178\u516b\u6c1f\u620a\u916f", "en_name": ["1H,1H,5H-Octafluoropentyl acrylate", "2-Propenoic acid, 2,2,3,3,4,4,5,5-octafluoropentyl ester", "Acrylic acid, 2,2,3,3,4,4,5,5-octafluoropentyl ester", "1-Pentanol, 2,2,3,3,4,4,5,5-octafluoro-, acrylate", "1H,1H,5H-Octafluoropentyl acrylate", "1,1,5-Trihydroperfluoroamyl acrylate", "2,2,3,3,4,4,5,5-Octafluoropentyl acrylate", "1,1,5-Trihydrooctafluoropentyl acrylate", "Viscoat 8F", "FA 3", "R 5410", "FA 3 (ester)", "V 8F", "1H,1H,5H-Perfluoropentyl acrylate", "2,2,3,3,4,4,5,5-Octafluoropentyl prop-2-enoate", "O 0318"], "SMILES": "C(C(C(F)F)(F)F)(C(COC(C=C)=O)(F)F)(F)F", "physical_data": {"Molecular Weight": "286.12", "Molecular Formula": "C8H6F8O2", "Boiling Point": "69-70 \u00b0C @ Press: 21 Torr"}}