{"cas_no": "376-73-8", "cn_name": "\u5168\u6c1f\u620a\u4e8c\u9178", "en_name": ["Hexafluoroglutaric acid", "Pentanedioic acid, 2,2,3,3,4,4-hexafluoro-", "Glutaric acid, hexafluoro-", "Pentanedioic acid, hexafluoro-", "2,2,3,3,4,4-Hexafluoropentanedioic acid", "Perfluoroglutaric acid", "Hexafluoroglutaric acid", "2,2,3,3,4,4-Hexafluoroglutaric acid", "NSC 6826"], "SMILES": "C(C(C(O)=O)(F)F)(C(C(O)=O)(F)F)(F)F", "physical_data": {"Molecular Weight": "240.06", "Molecular Formula": "C5H2F6O4", "Boiling Point": "134 \u00b0C", "Melting Point": "80 \u00b0C"}}