{"cas_no": "376-90-9", "cn_name": "2,2,3,3,4,4-\u516d\u6c1f\u73af-1,5-\u620a\u4e8c\u9187", "en_name": ["2,2,3,3,4,4-Hexafluoro-1,5-pentanediol", "1,5-Pentanediol, 2,2,3,3,4,4-hexafluoro-", "2,2,3,3,4,4-Hexafluoro-1,5-pentanediol", "Hexafluoroamylene glycol", "2,2,3,3,4,4-Hexafluoropentanediol", "NSC 29196"], "SMILES": "C(C(CO)(F)F)(C(CO)(F)F)(F)F", "physical_data": {"Molecular Weight": "212.09", "Molecular Formula": "C5H6F6O2", "Boiling Point": "111.5 \u00b0C @ Press: 10 Torr", "Melting Point": "77.5 \u00b0C"}}