{"cas_no": "376-68-1", "cn_name": "\u516d\u6c1f\u620a\u4e8c\u9178\u9150", "en_name": ["3,3,4,4,5,5-Hexafluorodihydro-2H-pyran-2,6(3H)-dione", "2H-Pyran-2,6(3H)-dione, 3,3,4,4,5,5-hexafluorodihydro-", "Glutaric anhydride, hexafluoro-", "3,3,4,4,5,5-Hexafluorodihydro-2H-pyran-2,6(3H)-dione", "Perfluoroglutaric anhydride", "Hexafluoroglutaric anhydride", "3,3,4,4,5,5-Hexafluorooxane-2,6-dione", "2,2,3,3,4,4-Hexafluoropentanedioic anhydride"], "SMILES": "FC1(F)C(F)(F)C(=O)OC(=O)C1(F)F", "physical_data": {"Molecular Weight": "222.04", "Molecular Formula": "C5F6O3", "Boiling Point": "72 \u00b0C", "Density": "1.7231 g/cm\u00b3 @ Temp: 40 \u00b0C"}}