{"cas_no": "3760-54-1", "cn_name": "1-\u7532\u9170\u5421\u54af\u70f7", "en_name": ["1-Pyrrolidinecarboxaldehyde", "1-Pyrrolidinecarboxaldehyde", "N-Formylpyrrolidine", "1-Formylpyrrolidine", "NSC 42516"], "SMILES": "C(=O)N1CCCC1", "physical_data": {"Molecular Weight": "99.13", "Molecular Formula": "C5H9NO", "Boiling Point": "213-214 \u00b0C", "Density": "1.0409 g/cm\u00b3 @ Temp: 20 \u00b0C"}}