{"cas_no": "3760-95-0", "cn_name": "(R)-(+)-1,2-\u73af\u6c27\u4e01\u70f7", "en_name": ["(2R)-2-Ethyloxirane", "Oxirane, 2-ethyl-, (2R)-", "Butane, 1,2-epoxy-, (R)-(+)-", "Oxirane, ethyl-, (R)-", "Oxirane, ethyl-, (2R)-", "(2R)-2-Ethyloxirane", "(R)-1,2-Epoxybutane", "(R)-Ethyloxirane", "(R)-(+)-1,2-Epoxybutane", "(R)-2-Ethyloxirane", "(R)-1,2-Epoxybutane", "(R)-2-Ethyloxirane", "(R)-Epoxybutane", "(2R)-2-Ethyloxirane", "(R)-(+)-1,2-Epoxybutane"], "SMILES": "C(C)C1CO1", "physical_data": {"Molecular Weight": "72.11", "Molecular Formula": "C4H8O", "Boiling Point": "63-65 \u00b0C @ Press: 760 Torr"}}