{"cas_no": "3760-11-0", "cn_name": "\u53cd-2-\u58ec\u70ef\u9178", "en_name": ["2-Nonenoic acid", "2-Nonenoic acid", "NSC 32357"], "SMILES": "C(CCCCC)C=CC(O)=O", "physical_data": {"Molecular Weight": "156.22", "Molecular Formula": "C9H16O2", "Boiling Point": "220-223 \u00b0C", "Melting Point": "0-1 \u00b0C", "Density": "0.9345 g/cm\u00b3 @ Temp: 17.100009765625 \u00b0C"}}