{"cas_no": "3760-52-9", "cn_name": "3-\u5421\u54af\u70f7\u916e\u76d0\u9178\u76d0", "en_name": ["3-Pyrrolidinone, hydrochloride (1:1)", "3-Pyrrolidinone, hydrochloride (1:1)", "3-Pyrrolidinone, hydrochloride"], "SMILES": "O=C1CCNC1.Cl", "physical_data": {"Molecular Weight": "", "Molecular Formula": "C4H7NO.ClH", "Melting Point": "141-142 \u00b0C"}}