{"cas_no": "3760-20-1", "cn_name": "\u53cd\u5f0f-2-\u58ec\u70ef\u9178", "en_name": ["2-Ethylcyclohexanol", "Cyclohexanol, 2-ethyl-", "2-Ethylcyclohexanol", "NSC 62035", "2-Ethylcyclohexan-1-ol"], "SMILES": "C(C)C1C(O)CCCC1", "physical_data": {"Molecular Weight": "128.21", "Molecular Formula": "C8H16O", "Boiling Point": "55-65 \u00b0C @ Press: 4 Torr", "Density": "0.9214 g/cm\u00b3 @ Temp: 20 \u00b0C"}}