{"cas_no": "37617-03-1", "cn_name": "\u53cd\u5f0f-2-\u5341\u4e00\u70ef-1-\u9187", "en_name": ["2-Undecen-1-ol", "2-Undecen-1-ol", "1-Hydroxy-2-undecene"], "SMILES": "C(CCC=CCO)CCCCC", "physical_data": {"Molecular Weight": "170.29", "Molecular Formula": "C11H22O", "Boiling Point": "90 \u00b0C @ Press: 0.5 Torr", "Density": "0.8375 g/cm\u00b3 @ Temp: 25 \u00b0C"}}