{"cas_no": "3761-41-9", "cn_name": "\u500d\u786b\u78f7\u4e9a\u781c", "en_name": ["Mesulfenfos", "Phosphorothioic acid, O,O-dimethyl O-[3-methyl-4-(methylsulfinyl)phenyl] ester", "Phosphorothioic acid, O,O-dimethyl O-[4-(methylsulfinyl)-m-tolyl] ester", "Fenthion sulfoxide", "Fensulfoxide", "Mesulfenfos", "Mesulfenphos"], "SMILES": "O(P(OC)(OC)=S)C1=CC(C)=C(S(C)=O)C=C1", "physical_data": {"Molecular Weight": "294.33", "Molecular Formula": "C10H15O4PS2", "Boiling Point": "110 \u00b0C @ Press: 0.01 Torr"}}