{"cas_no": "37619-25-3", "cn_name": "1H -\u82ef\u5e76[D]\u54aa\u5511- 4 -\u7fa7\u9178\u7532\u916f", "en_name": ["Methyl 1H-benzimidazole-7-carboxylate", "1H-Benzimidazole-7-carboxylic acid, methyl ester", "1H-Benzimidazole-4-carboxylic acid, methyl ester", "Methyl 1H-benzimidazole-7-carboxylate", "Methyl 4-benzimidazolecarboxylate", "Methyl 3H-benzimidazole-4-carboxylate", "Methyl 1H-benzimidazole-4-carboxylate"], "SMILES": "C(OC)(=O)C1=C2C(=CC=C1)N=CN2", "physical_data": {"Molecular Weight": "176.17", "Molecular Formula": "C9H8N2O2", "Melting Point": "211-213 \u00b0C"}}