{"cas_no": "37622-90-5", "cn_name": "4-\u5421\u5511\u7532\u9178\u4e59\u916f", "en_name": ["Ethyl 1H-pyrazole-4-carboxylate", "1H-Pyrazole-4-carboxylic acid, ethyl ester", "Pyrazole-4-carboxylic acid, ethyl ester", "Ethyl 4-pyrazolecarboxylate", "Ethyl 1H-pyrazole-4-carboxylate", "4-Ethoxycarbonyl-1H-pyrazole", "1H-Pyrazol-4-carboxylic acid ethyl ester", "4-Ethoxycarbonylpyrazole"], "SMILES": "C(OCC)(=O)C=1C=NNC1", "physical_data": {"Molecular Weight": "140.14", "Molecular Formula": "C6H8N2O2", "Boiling Point": "138-140 \u00b0C @ Press: 3 Torr", "Melting Point": "76-78 \u00b0C"}}