{"cas_no": "37620-20-5", "cn_name": "N-\u4e9a\u785d\u57fa\u65b0\u70df\u8349\u78b1", "en_name": ["3-(1-Nitroso-2-piperidinyl)pyridine", "Pyridine, 3-(1-nitroso-2-piperidinyl)-", "Piperidine, 1-nitroso-2-(3-pyridyl)-", "3-(1-Nitroso-2-piperidinyl)pyridine"], "SMILES": "N(=O)N1C(CCCC1)C=2C=CC=NC2", "physical_data": {"Molecular Weight": "191.23", "Molecular Formula": "C10H13N3O", "Boiling Point": "165-170 \u00b0C @ Press: 3 Torr"}}