{"cas_no": "3762-25-2", "cn_name": "4-\u7532\u57fa\u82c4\u57fa\u81a6\u9178\u4e8c\u4e59\u916f", "en_name": ["Diethyl P-[(4-methylphenyl)methyl]phosphonate", "Phosphonic acid, P-[(4-methylphenyl)methyl]-, diethyl ester", "Phosphonic acid, (p-methylbenzyl)-, diethyl ester", "Phosphonic acid, [(4-methylphenyl)methyl]-, diethyl ester", "Diethyl P-[(4-methylphenyl)methyl]phosphonate", "Diethyl (p-methylbenzyl)phosphonate", "Diethyl (4-methylbenzyl)phosphonate", "Diethyl p-tolylmethylphosphonate", "4-Methylbenzylphosphonic acid diethyl ester", "1-(Diethoxyphosphorylmethyl)-4-methylbenzene"], "SMILES": "C(P(OCC)(OCC)=O)C1=CC=C(C)C=C1", "physical_data": {"Molecular Weight": "242.25", "Molecular Formula": "C12H19O3P", "Boiling Point": "160-163 \u00b0C @ Press: 2 Torr", "Melting Point": "90 \u00b0C", "Density": "1.0832 g/cm\u00b3 @ Temp: 20 \u00b0C"}}