{"cas_no": "376348-77-5", "cn_name": "4,4-\u4e8c\u6c1f-N-((1S)-3-\u7f9f\u57fa-1-\u82ef\u57fa\u4e19\u57fa)\u73af\u5df1\u70f7\u7532\u9170\u80fa", "en_name": ["4,4-Difluoro-N-[(1S)-3-hydroxy-1-phenylpropyl]cyclohexanecarboxamide", "Cyclohexanecarboxamide, 4,4-difluoro-N-[(1S)-3-hydroxy-1-phenylpropyl]-", "4,4-Difluoro-N-[(1S)-3-hydroxy-1-phenylpropyl]cyclohexanecarboxamide", "4,4-Difluoro-N-((1S)-3-hydroxy-1-phenylpropyl)cyclohexanecarboxamide", "UK 453465", "(S)-4,4-Difluoro-N-(3-hydroxy-1-phenylpropyl)cyclohexanecarboxamide"], "SMILES": "C(NC(=O)C1CCC(F)(F)CC1)(CCO)C2=CC=CC=C2", "physical_data": {"Molecular Weight": "297.34", "Molecular Formula": "C16H21F2NO2", "Melting Point": "119.2 \u00b0C"}}