{"cas_no": "376348-65-1", "cn_name": "\u9a6c\u62c9\u7ef4\u82e5", "en_name": ["Maraviroc", "Cyclohexanecarboxamide, 4,4-difluoro-N-[(1S)-3-[(3-exo)-3-[3-methyl-5-(1-methylethyl)-4H-1,2,4-triazol-4-yl]-8-azabicyclo[3.2.1]oct-8-yl]-1-phenylpropyl]-", "4,4-Difluoro-N-[(1S)-3-[(3-exo)-3-[3-methyl-5-(1-methylethyl)-4H-1,2,4-triazol-4-yl]-8-azabicyclo[3.2.1]oct-8-yl]-1-phenylpropyl]cyclohexanecarboxamide", "Maraviroc", "UK 427857", "Celsentri", "Selzentry", "4,4-Difluoro-N[(1S)-3-[(1R,5S)-3-(3-methyl-5-propan-2-yl-1,2,4-triazol-4-yl)-8-azabicyclo[3.2.1]octan-8-yl]-1-phenylpropyl]cyclohexane-1-carboxamide"], "SMILES": "C(CC(NC(=O)C1CCC(F)(F)CC1)C2=CC=CC=C2)N3C4CC(CC3CC4)N5C(C(C)C)=NN=C5C", "physical_data": {"Molecular Weight": "513.67", "Molecular Formula": "C29H41F2N5O", "Melting Point": "197-198 \u00b0C"}}