{"cas_no": "37632-18-1", "cn_name": "4-\u7532\u6c27\u82ef\u57fa\u81a6\u9170\u4e8c\u6c2f", "en_name": ["P-(4-Methoxyphenyl)phosphonic dichloride", "Phosphonic dichloride, P-(4-methoxyphenyl)-", "Phosphonic dichloride, (4-methoxyphenyl)-", "Phosphonic dichloride, (p-methoxyphenyl)-", "P-(4-Methoxyphenyl)phosphonic dichloride", "Dichloro(4-methoxyphenyl)phosphine oxide", "(p-Methoxyphenyl)phosphonic dichloride", "p-Anisylphosphonic dichloride", "(4-Methoxyphenyl)phosphonic dichloride", "1-Dichlorophosphoryl-4-methoxybenzene", "(4-Methoxyphenyl)phosphonoyl dichloride"], "SMILES": "P(Cl)(Cl)(=O)C1=CC=C(OC)C=C1", "physical_data": {"Molecular Weight": "225.01", "Molecular Formula": "C7H7Cl2O2P", "Boiling Point": "149-153 \u00b0C @ Press: 6-7 Torr"}}