{"cas_no": "376348-67-3", "cn_name": "N-(8-\u82c4\u57fa-8-\u6c2e\u6742\u53cc\u73af[3.2.1]\u8f9b-3-\u57fa-\u5916\u5411)-2-\u7532\u57fa\u4e19\u9170\u80fa", "en_name": ["2-Methyl-N-[(3-exo)-8-(phenylmethyl)-8-azabicyclo[3.2.1]oct-3-yl]propanamide", "Propanamide, 2-methyl-N-[(3-exo)-8-(phenylmethyl)-8-azabicyclo[3.2.1]oct-3-yl]-", "2-Methyl-N-[(3-exo)-8-(phenylmethyl)-8-azabicyclo[3.2.1]oct-3-yl]propanamide"], "SMILES": "C(N1C2CC(NC(C(C)C)=O)CC1CC2)C3=CC=CC=C3", "physical_data": {"Molecular Weight": "286.41", "Molecular Formula": "C18H26N2O", "Melting Point": "138-140 \u00b0C"}}