{"cas_no": "376348-78-6", "cn_name": "4,4-\u4e8c\u6c1f-N-((1S)-3-\u6c27\u4ee3-1-\u82ef\u57fa\u4e19\u57fa)\u73af\u5df1\u70f7-1-\u7532\u9170\u80fa", "en_name": ["4,4-Difluoro-N-[(1S)-3-oxo-1-phenylpropyl]cyclohexanecarboxamide", "Cyclohexanecarboxamide, 4,4-difluoro-N-[(1S)-3-oxo-1-phenylpropyl]-", "4,4-Difluoro-N-[(1S)-3-oxo-1-phenylpropyl]cyclohexanecarboxamide", "4,4-Difluorocyclohexanecarboxylic acid N-((1S)-3-oxo-1-phenylpropyl)amide", "(s)-4,4-Difluoro-n-(3-oxo-1-phenylpropyl)cyclohexanecarboxamide"], "SMILES": "C(NC(=O)C1CCC(F)(F)CC1)(CC=O)C2=CC=CC=C2", "physical_data": {"Molecular Weight": "295.32", "Molecular Formula": "C16H19F2NO2", "Melting Point": "119.0 \u00b0C"}}