{"cas_no": "3764-94-1", "cn_name": "5-\u6c2f\u975b\u80fa\u76d0\u9178\u76d0", "en_name": ["5-Chlorotryptamine", "1H-Indole-3-ethanamine, 5-chloro-", "Indole, 3-(2-aminoethyl)-5-chloro-", "5-Chloro-1H-indole-3-ethanamine", "5-Chlorotryptamine", "2-(5-Chloro-1H-indol-3-yl)ethylamine", "2-(5-Chloro-1H-indol-3-yl)ethanamine", "5-Chloro-3-indoleethanamine", "2-(5-Chloro-1H-indol-3-yl)ethan-1-amine"], "SMILES": "C(CN)C=1C=2C(NC1)=CC=C(Cl)C2", "physical_data": {"Molecular Weight": "194.66", "Molecular Formula": "C10H11ClN2", "Melting Point": "120 \u00b0C"}}