{"cas_no": "3764-01-0", "cn_name": "2,4,6-\u4e09\u6c2f\u5627\u5576", "en_name": ["2,4,6-Trichloropyrimidine", "Pyrimidine, 2,4,6-trichloro-", "2,4,6-Trichloropyrimidine", "NSC 6494"], "SMILES": "ClC=1C=C(Cl)N=C(Cl)N1", "physical_data": {"Molecular Weight": "183.42", "Molecular Formula": "C4HCl3N2", "Boiling Point": "212.5 \u00b0C", "Melting Point": "22.5 \u00b0C"}}