{"cas_no": "3764-87-2", "cn_name": "\u66f2\u6258\u9f99", "en_name": ["MENT", "Estr-4-en-3-one, 17-hydroxy-7-methyl-, (7\u03b1,17\u03b2)-", "Estr-4-en-3-one, 17\u03b2-hydroxy-7\u03b1-methyl-", "(7\u03b1,17\u03b2)-17-Hydroxy-7-methylestr-4-en-3-one", "7\u03b1-Methyl-19-nortestosterone", "Trestolone", "19-Nor-7\u03b1-methyltestosterone", "17\u03b2-Hydroxy-7\u03b1-methylestr-4-enone", "7\u03b1-Methyl-17\u03b2-hydroxy-4-estren-3-one", "7\u03b1-Methyl-3-oxo-4-estren-17\u03b2-ol", "RU 27333", "17\u03b2-Hydroxy-7\u03b1-methylestr-4-en-3-one", "MENT", "7\u03b1-Methylnandrolone", "NSC 142229"], "SMILES": "CC1C2C(C3C(C1)=CC(=O)CC3)CCC4(C)C2CCC4O", "physical_data": {"Molecular Weight": "288.42", "Molecular Formula": "C19H28O2", "Melting Point": "145-146 \u00b0C"}}