{"cas_no": "37641-36-4", "cn_name": "5-\u7532\u57fa-1,3,4-\u4e8c\u5511-2-\u7fa7\u9178\u4e59\u916f", "en_name": ["1,3,4-Oxadiazole-2-carboxylic acid, 5-methyl-, ethyl ester", "1,3,4-Oxadiazole-2-carboxylic acid, 5-methyl-, ethyl ester", "Ethyl 5-methyl-1,3,4-oxadiazole-2-carboxylate"], "SMILES": "C(OCC)(=O)C1=NN=C(C)O1", "physical_data": {"Molecular Weight": "156.14", "Molecular Formula": "C6H8N2O3", "Melting Point": "43-45 \u00b0C"}}