{"cas_no": "37661-08-8", "cn_name": "\u76d0\u9178\u5df4\u6c28\u897f\u6797", "en_name": ["Bacampicillin-hydrochloride", "4-Thia-1-azabicyclo[3.2.0]heptane-2-carboxylic acid, 6-[[(2R)-2-amino-2-phenylacetyl]amino]-3,3-dimethyl-7-oxo-, 1-[(ethoxycarbonyl)oxy]ethyl ester, hydrochloride (1:1), (2S,5R,6R)-", "4-Thia-1-azabicyclo[3.2.0]heptane-2-carboxylic acid, 6-[(aminophenylacetyl)amino]-3,3-dimethyl-7-oxo-, 1-[(ethoxycarbonyl)oxy]ethyl ester, monohydrochloride, [2S-[2\u03b1,5\u03b1,6\u03b2(S*)]]-", "4-Thia-1-azabicyclo[3.2.0]heptane-2-carboxylic acid, 6-[[(2R)-aminophenylacetyl]amino]-3,3-dimethyl-7-oxo-, 1-[(ethoxycarbonyl)oxy]ethyl ester, monohydrochloride, (2S,5R,6R)-", "Bacampicillin-hydrochloride", "Becampicillin hydrochloride", "Penglobe", "Bacampicine", "Bacacil", "Spectrobid", "Ambacamp", "Ambaxin"], "SMILES": "C(OC(OC(OCC)=O)C)(=O)C1N2C(C(NC(C(N)C3=CC=CC=C3)=O)C2=O)SC1(C)C.Cl", "physical_data": {"Molecular Weight": "", "Molecular Formula": "C21H27N3O7S.ClH", "Melting Point": "171-176 \u00b0C (decomp)"}}