{"cas_no": "3766-55-0", "cn_name": "4-\u4e19\u70ef\u57fa\u786b\u4ee3\u6c28\u57fa\u8132", "en_name": ["4-Allylthiosemicarbazide", "Hydrazinecarbothioamide, N-2-propen-1-yl-", "Semicarbazide, 4-allyl-3-thio-", "Hydrazinecarbothioamide, N-2-propenyl-", "N-2-Propen-1-ylhydrazinecarbothioamide", "N-Allylthiosemicarbazide", "Allylthiosemicarbazide", "4-Allylthiosemicarbazide", "4-Allyl-3-thiosemicarbazide", "N-(2-Propenyl)hydrazinecarbothioamide", "NSC 75830", "4-(2-Propenyl)hydrazinethiocarbamide", "4-Propenylthiosemicarbazide", "1-Amino-3-prop-2-enylthiourea", "1-Amino-3-(prop-2-en-1-yl)thiourea"], "SMILES": "C(NCC=C)(NN)=S", "physical_data": {"Molecular Weight": "131.20", "Molecular Formula": "C4H9N3S", "Melting Point": "96.5-97 \u00b0C"}}