{"cas_no": "3766-60-7", "cn_name": "\u519c\u836f\u64ad\u58eb\u9686\uff0c\u7094\u8349\u9686", "en_name": ["Buturon", "Urea, N\u2032-(4-chlorophenyl)-N-methyl-N-(1-methyl-2-propyn-1-yl)-", "Urea, 3-(p-chlorophenyl)-1-methyl-1-(1-methyl-2-propynyl)-", "Urea, N\u2032-(4-chlorophenyl)-N-methyl-N-(1-methyl-2-propynyl)-", "N\u2032-(4-Chlorophenyl)-N-methyl-N-(1-methyl-2-propyn-1-yl)urea", "H 95", "Arisan", "Buturon", "Butyron", "3-(p-Chlorophenyl)-1-methyl-1-(1-methyl-2-propynyl)urea", "H 951", "Eptapur", "HS 95"], "SMILES": "N(C(N(C(C#C)C)C)=O)C1=CC=C(Cl)C=C1", "physical_data": {"Molecular Weight": "236.70", "Molecular Formula": "C12H13ClN2O", "Melting Point": "148.5-149 \u00b0C"}}