{"cas_no": "3766-81-2", "cn_name": "\u4ef2\u4e01\u5a01", "en_name": ["Fenobucarb", "Phenol, 2-(1-methylpropyl)-, 1-(N-methylcarbamate)", "Carbamic acid, methyl-, o-sec-butylphenyl ester", "Phenol, 2-(1-methylpropyl)-, methylcarbamate", "Phenol, o-sec-butyl-, methylcarbamate", "BAY 41637", "2-sec-Butylphenyl N-methylcarbamate", "o-sec-Butylphenyl N-methylcarbamate", "2-(1-Methylpropyl)phenyl methylcarbamate", "o-sec-Butylphenol methylcarbamate", "BPMC", "BASSA", "Barizon", "Baycarb", "Fenobucarb", "Osbac", "2-sec-Butylphenol methylcarbamate", "2-sec-Butylphenyl methylcarbamate", "Baktop MC", "Fenocarb", "Bipvin", "Vocktop MC", "Zhongdingwei"], "SMILES": "C(CC)(C)C1=C(OC(NC)=O)C=CC=C1", "physical_data": {"Molecular Weight": "207.27", "Molecular Formula": "C12H17NO2", "Boiling Point": "112.5 \u00b0C", "Melting Point": "31.5 \u00b0C"}}