{"cas_no": "37677-14-8", "cn_name": "\u67d1\u9752\u919b", "en_name": ["Myrac aldehyde", "3-Cyclohexene-1-carboxaldehyde, 4-(4-methyl-3-penten-1-yl)-", "3-Cyclohexene-1-carboxaldehyde, 4-(4-methyl-3-pentenyl)-", "4-(4-Methyl-3-penten-1-yl)-3-cyclohexene-1-carboxaldehyde", "1-(4-Methyl-3-pentenyl)-1-cyclohexene-4-carboxaldehyde", "1-(4-Methyl-3-pentenyl)-4-formyl-1-cyclohexene", "4-(4-Methyl-3-pentenyl)-3-cyclohexenecarboxaldehyde", "Myrac aldehyde", "Para-myrac aldehyde", "Empetaal", "4-(4\u2032-Methylpent-3\u2032-enyl)cyclohex-3-enal", "p-Myrac aldehyde", "Emfetal", "4-(4-Methyl-3-pentenyl)-3-cyclohexene-1-carboxaldehyde", "4-(4-Methylpent-3-en-1-yl)cyclohex-3-ene-1-carboxaldehyde", "Isohexenyl cyclohexenylcarboxaldehyde", "Vertomugal", "4-(4-Methylpent-3-enyl)cyclohex-3-ene-1-carbaldehyde", "4-(4-Methylpent-3-en-1-yl)cyclohex-3-enecarboxaldehyde"], "SMILES": "C(CC=C(C)C)C=1CCC(C=O)CC1", "physical_data": {"Molecular Weight": "192.30", "Molecular Formula": "C13H20O", "Boiling Point": "108 \u00b0C @ Press: 1.6 Torr", "Density": "0.933 g/cm\u00b3 @ Temp: 20 \u00b0C"}}