{"cas_no": "37674-72-9", "cn_name": "6-\u6c2f-4-\u4e8c\u6c22\u8272\u539f\u916e", "en_name": ["6-Chloro-2,3-dihydro-4H-1-benzopyran-4-one", "4H-1-Benzopyran-4-one, 6-chloro-2,3-dihydro-", "4-Chromanone, 6-chloro-", "6-Chloro-2,3-dihydro-4H-1-benzopyran-4-one", "6-Chloro-4-chromanone", "6-chloro-2,3-dihydro-4H-1-Benzopyran-4-one", "NSC 26783"], "SMILES": "O=C1C=2C(=CC=C(Cl)C2)OCC1", "physical_data": {"Molecular Weight": "182.60", "Molecular Formula": "C9H7ClO2", "Melting Point": "99-101 \u00b0C"}}