{"cas_no": "3767-28-0", "cn_name": "4-\u785d\u57fa\u82ef-\u0391-D-\u8461\u5421\u5583\u7cd6\u82f7", "en_name": ["p-Nitrophenyl \u03b1-D-glucopyranoside", "\u03b1-D-Glucopyranoside, 4-nitrophenyl", "Glucopyranoside, p-nitrophenyl, \u03b1-D-", "\u03b1-D-Glucoside, p-nitrophenyl", "\u03b1-D-Glucopyranoside, p-nitrophenyl", "4-Nitrophenyl \u03b1-D-glucopyranoside", "p-Nitrophenyl \u03b1-D-glucopyranoside", "p-Nitrophenyl \u03b1-D-glucoside", "p-Nitrophenol \u03b1-D-glucoside", "4\u2032-Nitrophenyl \u03b1-D-glucopyranoside", "4-Nitrophenyl \u03b1-D-glucoside", "4-Nitrophenyl-O-\u03b1-D-glucopyranoside"], "SMILES": "O(C1C(O)C(O)C(O)C(CO)O1)C2=CC=C(N(=O)=O)C=C2", "physical_data": {"Molecular Weight": "301.25", "Molecular Formula": "C12H15NO8", "Melting Point": "209-213 \u00b0C"}}