{"cas_no": "37686-84-3", "cn_name": "\u7279\u9ea6\u89d2\u8132", "en_name": ["Terguride", "Urea, N,N-diethyl-N\u2032-[(8\u03b1)-6-methylergolin-8-yl]-", "Ergoline, urea deriv.", "Indolo[4,3-fg]quinoline, urea deriv.", "N,N-Diethyl-N\u2032-[(8\u03b1)-6-methylergolin-8-yl]urea", "N,N-Diethyl-N\u2032-(D-6-methyl-10\u03b1-isoergolin-8-yl)urea", "6-Methyl-8\u03b1-(diethylcarbamoylamino)ergoline", "trans-Dihydrolisuride", "9,10\u03b1-Dihydrolisuride", "Terguride", "Tergurid", "(+)-(5R,8S,10R)-Terguride", "(5R,8S,10R)-Terguride", "(+)-Terguride", "TDHL"], "SMILES": "CN1C2C(C=3C=4C(C2)=CNC4C=CC3)CC(NC(N(CC)CC)=O)C1", "physical_data": {"Molecular Weight": "340.46", "Molecular Formula": "C20H28N4O", "Melting Point": "203-204 \u00b0C (decomp)"}}