{"cas_no": "37688-96-3", "cn_name": "1,14-\u4e8c\u6eb4\u5341\u56db\u70f7", "en_name": ["1,14-Dibromotetradecane", "Tetradecane, 1,14-dibromo-", "1,14-Dibromotetradecane", "Tetradecamethylene dibromide"], "SMILES": "C(CCCCCCCBr)CCCCCCBr", "physical_data": {"Molecular Weight": "356.18", "Molecular Formula": "C14H28Br2", "Boiling Point": "172-175 \u00b0C", "Melting Point": "50.4 \u00b0C"}}