{"cas_no": "3768-56-7", "cn_name": "1-(\u4e09\u7532\u57fa\u7845\u57fa)\u54cc\u5576", "en_name": ["1-(Trimethylsilyl)piperidine", "Piperidine, 1-(trimethylsilyl)-", "1-(Trimethylsilyl)piperidine", "N-(Trimethylsilyl)piperidine", "Trimethylsilylpiperidine", "Piperidinotrimethylsilane", "Trimethylpiperidinosilane"], "SMILES": "[Si](C)(C)(C)N1CCCCC1", "physical_data": {"Molecular Weight": "157.33", "Molecular Formula": "C8H19NSi", "Boiling Point": "67 \u00b0C @ Press: 28 Torr"}}