{"cas_no": "37680-73-2", "cn_name": "2,2',4,5,5'-\u4e94\u6c2f\u8054\u82ef(\u5373PCB 101)", "en_name": ["PCB 101", "1,1\u2032-Biphenyl, 2,2\u2032,4,5,5\u2032-pentachloro-", "2,2\u2032,4,5,5\u2032-Pentachloro-1,1\u2032-biphenyl", "2,5,2\u2032,4\u2032,5\u2032-Pentachlorobiphenyl", "2,2\u2032,4,5,5\u2032-Pentachlorobiphenyl", "2,4,5,2\u2032,5\u2032-Pentachlorobiphenyl", "2,2\u2032,4,5,5\u2032-PCB", "2,2\u2032,4\u2032,5,5\u2032-Pentachlorobiphenyl", "PCB 101", "K 101", "CB 101", "1,2,4-Trichloro-5-(2,5-dichlorophenyl)benzene"], "SMILES": "ClC1=C(C=C(Cl)C(Cl)=C1)C2=C(Cl)C=CC(Cl)=C2", "physical_data": {"Molecular Weight": "326.43", "Molecular Formula": "C12H5Cl5", "Boiling Point": "196-213 \u00b0C", "Melting Point": "77 \u00b0C"}}