{"cas_no": "3768-55-6", "cn_name": "1,1,1-\u4e09\u7532\u57fa-N-\u82ef\u57fa\u54cc\u5576", "en_name": ["1,1,1-Trimethyl-N-phenylsilanamine", "Silanamine, 1,1,1-trimethyl-N-phenyl-", "Silylamine, 1,1,1-trimethyl-N-phenyl-", "1,1,1-Trimethyl-N-phenylsilanamine", "N-(Trimethylsilyl)aniline", "Phenyl(trimethylsilyl)amine", "Anilinotrimethylsilane", "N-Phenyltrimethylsilylamine", "N-(Trimethylsilyl)benzenamine", "Trimethyl(phenylamino)silane"], "SMILES": "N([Si](C)(C)C)C1=CC=CC=C1", "physical_data": {"Molecular Weight": "165.31", "Molecular Formula": "C9H15NSi", "Boiling Point": "98-99 \u00b0C @ Press: 19 Torr", "Density": "0.940 g/cm\u00b3"}}