{"cas_no": "3768-57-8", "cn_name": "\u4e09(\u4e8c\u7532\u6c28\u57fa)\u7532\u57fa\u7845\u70f7", "en_name": ["N,N,N\u2032,N\u2032,N\u2032\u2032,N\u2032\u2032,1-Heptamethylsilanetriamine", "Silanetriamine, N,N,N\u2032,N\u2032,N\u2032\u2032,N\u2032\u2032,1-heptamethyl-", "Silanetriamine, heptamethyl-", "N,N,N\u2032,N\u2032,N\u2032\u2032,N\u2032\u2032,1-Heptamethylsilanetriamine", "Methyltris(dimethylamino)silane", "Tris(dimethylamino)methylsilane", "LS 1960", "[Bis(dimethylamino)(methyl)silyl]dimethylamine"], "SMILES": "[Si](N(C)C)(N(C)C)(N(C)C)C", "physical_data": {"Molecular Weight": "175.35", "Molecular Formula": "C7H21N3Si", "Boiling Point": "55-56 \u00b0C @ Press: 17 Torr", "Melting Point": "-11 \u00b0C", "Density": "0.850 g/cm\u00b3 @ Temp: 22 \u00b0C"}}