{"cas_no": "37687-57-3", "cn_name": "2-\u6c2f\u4ee3\u5f02\u9999\u5170\u7d20", "en_name": ["2-Chloro-3-hydroxy-4-methoxybenzaldehyde", "Benzaldehyde, 2-chloro-3-hydroxy-4-methoxy-", "p-Anisaldehyde, 2-chloro-3-hydroxy-", "Isovanillin, 2-chloro-", "2-Chloro-3-hydroxy-4-methoxybenzaldehyde", "2-Chloroisovanillin"], "SMILES": "C(=O)C1=C(Cl)C(O)=C(OC)C=C1", "physical_data": {"Molecular Weight": "186.59", "Molecular Formula": "C8H7ClO3", "Melting Point": "207-208 \u00b0C"}}