{"cas_no": "3768-18-1", "cn_name": "N4-\u4e59\u9170\u57fa\u80de\u82f7", "en_name": ["N4-Acetylcytidine", "Cytidine, N-acetyl-", "Acetamide, N-(1,2-dihydro-2-oxo-1-\u03b2-D-ribofuranosyl-4-pyrimidinyl)-", "N-Acetylcytidine", "N4-Acetylcytidine", "4-Acetylcytidine", "N4-Acetylcytidine"], "SMILES": "OC1C(OC(CO)C1O)N2C(=O)N=C(NC(C)=O)C=C2", "physical_data": {"Molecular Weight": "285.25", "Molecular Formula": "C11H15N3O6", "Melting Point": "208-209 \u00b0C"}}