{"cas_no": "37680-65-2", "cn_name": "2,2',5-\u4e09\u6c2f\u8054\u82ef\u919a", "en_name": ["2,2\u2032,5\u2032-Trichlorobiphenyl", "1,1\u2032-Biphenyl, 2,2\u2032,5-trichloro-", "2,2\u2032,5-Trichloro-1,1\u2032-biphenyl", "2,2\u2032,5-Trichlorobiphenyl", "2,5,2\u2032-Trichlorobiphenyl", "2,2\u2032,5\u2032-Trichlorobiphenyl", "PCB 18", "CB 18", "CB 18 (chlorocarbon)"], "SMILES": "ClC1=C(C=C(Cl)C=C1)C2=C(Cl)C=CC=C2", "physical_data": {"Molecular Weight": "257.54", "Molecular Formula": "C12H7Cl3", "Melting Point": "44 \u00b0C"}}