{"cas_no": "3768-58-9", "cn_name": "\u53cc(\u4e8c\u7532\u57fa\u6c28\u57fa)\u4e8c\u7532\u57fa\u7845\u70f7", "en_name": ["N,N,N\u2032,N\u2032,1,1-Hexamethylsilanediamine", "Silanediamine, N,N,N\u2032,N\u2032,1,1-hexamethyl-", "Silanediamine, hexamethyl-", "N,N,N\u2032,N\u2032,1,1-Hexamethylsilanediamine", "Bis(dimethylamino)dimethylsilane", "Dimethylbis(dimethylamino)silane", "Bis(N,N-dimethylamino)dimethylsilane", "Hexamethylsilanediamine", "BDMADS", "Dimethylsilylbis(dimethylamine)", "LS 1440", "Dimethyldi(N,N-dimethylamino)silane", "[(Dimethylamino)dimethylsilyl]dimethylamine"], "SMILES": "[Si](N(C)C)(N(C)C)(C)C", "physical_data": {"Molecular Weight": "146.31", "Molecular Formula": "C6H18N2Si", "Boiling Point": "128-129 \u00b0C", "Melting Point": "-98 \u00b0C", "Density": "0.810 g/cm\u00b3"}}