{"cas_no": "37687-24-4", "cn_name": "3,5-\u5421\u5511\u7fa7\u9178\u4e8c\u4e59\u916f", "en_name": ["1H-Pyrazole-3,5-dicarboxylic acid, 3,5-diethyl ester", "1H-Pyrazole-3,5-dicarboxylic acid, 3,5-diethyl ester", "1H-Pyrazole-3,5-dicarboxylic acid, diethyl ester", "3,5-(Diethoxycarbonyl)-1H-pyrazole", "Diethyl pyrazole-3,5-dicarboxylate", "3,5-Pyrazoledicarboxylic acid diethyl ester", "NSC 97126", "Diethyl 1H-pyrazole-3,5-dicarboxylate", "3,5-Diethyl 1H-pyrazole-3,5-dicarboxylate"], "SMILES": "C(OCC)(=O)C=1C=C(C(OCC)=O)NN1", "physical_data": {"Molecular Weight": "212.20", "Molecular Formula": "C9H12N2O4", "Melting Point": "54-55 \u00b0C"}}