{"cas_no": "37693-01-9", "cn_name": "\u53d4\u8f9b\u915a\u6c2f", "en_name": ["Clofoctol", "Phenol, 2-[(2,4-dichlorophenyl)methyl]-4-(1,1,3,3-tetramethylbutyl)-", "2-[(2,4-Dichlorophenyl)methyl]-4-(1,1,3,3-tetramethylbutyl)phenol", "2-(2,4-Dichlorobenzyl)-4-(1,1,3,3-tetramethylbutyl)phenol", "2-(2,4-Dichlorobenzyl)-4-(2,4,4-trimethyl-2-pentyl)phenol", "Clofoctol", "Octofene", "2-[(2,4-Dichlorophenyl)methyl]-4-(2,4,4-trimethylpentan-2-yl)phenol"], "SMILES": "C(C1=CC(C(CC(C)(C)C)(C)C)=CC=C1O)C2=C(Cl)C=C(Cl)C=C2", "physical_data": {"Molecular Weight": "365.34", "Molecular Formula": "C21H26Cl2O", "Melting Point": "78 \u00b0C"}}