{"cas_no": "3769-23-1", "cn_name": "4-\u7532-1-\u5df1\u70ef", "en_name": ["4-Methyl-1-hexene", "1-Hexene, 4-methyl-", "4-Methyl-1-hexene", "(\u00b1)-4-Methyl-1-hexene", "(R,S)-4-Methyl-1-hexene", "NSC 73926"], "SMILES": "C(CC=C)(CC)C", "physical_data": {"Molecular Weight": "98.19", "Molecular Formula": "C7H14", "Boiling Point": "86.7 \u00b0C", "Melting Point": "-141.5 \u00b0C", "Density": "0.6969 g/cm\u00b3 @ Temp: 20 \u00b0C"}}