{"cas_no": "37699-43-7", "cn_name": "2,3-\u4e8c\u7532\u57fa-4-\u785d\u57fa\u5421\u5576-N-\u6c27\u5316\u7269", "en_name": ["2,3-Dimethyl-4-nitropyridine N-oxide", "Pyridine, 2,3-dimethyl-4-nitro-, 1-oxide", "2,3-Lutidine, 4-nitro-, 1-oxide", "2,3-Dimethyl-4-nitropyridine 1-oxide", "2,3-Dimethyl-4-nitropyridine N-oxide", "4-Nitro-2,3-dimethylpyridine N-oxide", "2,3-Dimethyl-4-nitro-1-oxidopyridin-1-ium", "2,3-Dimethyl-4-nitropyridin-1-ium-1-olate"], "SMILES": "N(=O)(=O)C=1C(C)=C(C)N(=O)=CC1", "physical_data": {"Molecular Weight": "168.15", "Molecular Formula": "C7H8N2O3", "Melting Point": "91.5-93.0 \u00b0C"}}