{"cas_no": "377-37-7", "cn_name": "\u56db\u6c1f\u4e01\u4e8c\u9170\u80fa", "en_name": ["2,2,3,3-Tetrafluorobutanediamide", "Butanediamide, 2,2,3,3-tetrafluoro-", "Succinamide, 2,2,3,3-tetrafluoro-", "2,2,3,3-Tetrafluorobutanediamide", "Tetrafluorosuccinamide", "NSC 379422", "2,2,3,3-Tetrafluorosuccinamide"], "SMILES": "C(C(C(N)=O)(F)F)(C(N)=O)(F)F", "physical_data": {"Molecular Weight": "188.08", "Molecular Formula": "C4H4F4N2O2", "Melting Point": "255-260 \u00b0C (decomp)"}}