{"cas_no": "377-38-8", "cn_name": "\u56db\u6c1f\u4e01\u4e8c\u9178", "en_name": ["2,2,3,3-Tetrafluorobutanedioic acid", "Butanedioic acid, 2,2,3,3-tetrafluoro-", "Succinic acid, tetrafluoro-", "Butanedioic acid, tetrafluoro-", "2,2,3,3-Tetrafluorobutanedioic acid", "Perfluorosuccinic acid", "Tetrafluorosuccinic acid", "NSC 3238", "2,2,3,3-Tetrafluorosuccinic acid"], "SMILES": "C(C(C(O)=O)(F)F)(C(O)=O)(F)F", "physical_data": {"Molecular Weight": "190.05", "Molecular Formula": "C4H2F4O4", "Boiling Point": "150 \u00b0C @ Press: 15 Torr", "Melting Point": "119 \u00b0C"}}