{"cas_no": "377-71-9", "cn_name": "\u56db\u6c1f\u4e01\u4e8c\u9178\u4e8c\u4e59\u916f", "en_name": ["1,4-Diethyl 2,2,3,3-tetrafluorobutanedioate", "Butanedioic acid, 2,2,3,3-tetrafluoro-, 1,4-diethyl ester", "Succinic acid, tetrafluoro-, diethyl ester", "Butanedioic acid, tetrafluoro-, diethyl ester", "1,4-Diethyl 2,2,3,3-tetrafluorobutanedioate", "Diethyl tetrafluorosuccinate"], "SMILES": "C(C(C(OCC)=O)(F)F)(C(OCC)=O)(F)F", "physical_data": {"Molecular Weight": "246.16", "Molecular Formula": "C8H10F4O4", "Boiling Point": "89 \u00b0C @ Press: 15 Torr", "Density": "1.264 g/cm\u00b3 @ Temp: 20 \u00b0C"}}