{"cas_no": "3770-22-7", "cn_name": "6-\u6c27\u4ee3\u54cc\u5576-2-\u7532\u9178", "en_name": ["6-Oxo-2-piperidinecarboxylic acid", "2-Piperidinecarboxylic acid, 6-oxo-", "Pipecolic acid, 6-oxo-", "6-Oxo-2-piperidinecarboxylic acid", "6-Oxopipecolic acid"], "SMILES": "C(O)(=O)C1NC(=O)CCC1", "physical_data": {"Molecular Weight": "143.14", "Molecular Formula": "C6H9NO3", "Melting Point": "178-179 \u00b0C"}}