{"cas_no": "3770-97-6", "cn_name": "2-\u91cd\u6c2e-1-\u8418\u915a-5-\u78fa\u9170\u6c2f", "en_name": ["1,2-Naphthoquinonediazide-5-sulfonyl chloride", "1-Naphthalenesulfonyl chloride, 6-diazo-5,6-dihydro-5-oxo-", "6-Diazo-5,6-dihydro-5-oxo-1-naphthalenesulfonyl chloride", "2-Diazo-1-naphthol-5-sulfonyl chloride", "2-Diazo-1(2H)-naphthalenone-5-sulfonyl chloride", "1,2-Naphthoquinone-2-diazide-5-sulfonyl chloride", "6-Diazo-5-hydroxy-1-naphthalenesulfonyl chloride", "2-Diazo-1-oxonaphthalene-5-sulfonyl chloride", "2-Diazo-1,2-dihydro-1-oxonaphthalene-5-sulfonyl chloride", "5-(Chlorosulfonyl)-1,2-naphthoquinone-2-diazide", "2-Diazo-1-naphtho-5-sulfonyl chloride", "2-Diazo-1,2-naphthoquinone-5-sulfonyl chloride", "2-Diazo-1-oxo-1,2-dihydronaphthalene-5-sulfonyl chloride", "1,2-Naphthoquinonediazido-5-sulfonyl chloride", "6-Diazo-5-oxo-1-naphthalenesulfonyl chloride", "3-Diazo-4-oxo-1-naphthalenesulfonyl chloride", "1-Oxo-2-diazonaphthoquinone-5-sulfonyl chloride", "1-Oxo-1,2-dihydro-2-diazonaphthalene-5-sulfonyl chloride", "1,2-Naphthoquinonediazide-5-sulfonyl chloride", "o-Naphthoquinonediazide-5-sulfonyl chloride", "1,2-Naphthoquinone-2-diazido-5-sulfonyl chloride", "NAC 5", "5-Naphthoquinonediazidesulfonyl chloride", "2-Diazo-1,2-dihydro-1-oxonaphthalene-5-sulphonyl chloride"], "SMILES": "S(Cl)(=O)(=O)C1=C2C(C(=O)C(=[N+]=[N-])C=C2)=CC=C1", "physical_data": {"Molecular Weight": "", "Molecular Formula": "C10H5ClN2O3S", "Melting Point": "139 \u00b0C (decomp)"}}