{"cas_no": "3770-82-9", "cn_name": "1\u30013-\u4e8c\u82ef\u7532\u9170\u82ef", "en_name": ["1,3-Dibenzoylbenzene", "Methanone, 1,1\u2032-(1,3-phenylene)bis[1-phenyl-", "Benzene, m-dibenzoyl-", "Methanone, 1,3-phenylenebis[phenyl-", "1,1\u2032-(1,3-Phenylene)bis[1-phenylmethanone]", "m-Benzoylbenzophenone", "m-Dibenzoylbenzene", "1,3-Dibenzoylbenzene", "3-Benzoylbenzophenone", "NSC 43091", "NSC 631642", "1,3-Phenylenebis(phenylmethanone)", "(3-Benzoylphenyl)-phenylmethanone"], "SMILES": "C(=O)(C1=CC(C(=O)C2=CC=CC=C2)=CC=C1)C3=CC=CC=C3", "physical_data": {"Molecular Weight": "286.32", "Molecular Formula": "C20H14O2", "Melting Point": "98 \u00b0C"}}