{"cas_no": "3770-50-1", "cn_name": "\u5432\u54da-2-\u7fa7\u9178\u4e59\u916f", "en_name": ["Ethyl 1H-indole-2-carboxylate", "1H-Indole-2-carboxylic acid, ethyl ester", "Indole-2-carboxylic acid, ethyl ester", "Ethyl 1H-indole-2-carboxylate", "Ethyl indole-2-carboxylate", "2-Carbethoxyindole", "2-Ethoxycarbonylindole", "NSC 10076"], "SMILES": "C(OCC)(=O)C1=CC=2C(N1)=CC=CC2", "physical_data": {"Molecular Weight": "189.21", "Molecular Formula": "C11H11NO2", "Melting Point": "122-125 \u00b0C"}}