{"cas_no": "37718-11-9", "cn_name": "1H-\u5421\u5511-4-\u7532\u9178", "en_name": ["Pyrazole-4-carboxylic acid", "1H-Pyrazole-4-carboxylic acid", "Pyrazole-4-carboxylic acid", "4-Carboxypyrazole"], "SMILES": "C(O)(=O)C=1C=NNC1", "physical_data": {"Molecular Weight": "112.09", "Molecular Formula": "C4H4N2O2", "Melting Point": "279-280 \u00b0C (decomp)"}}