{"cas_no": "3772-55-2", "cn_name": "\u8131\u6c22\u679e\u9187", "en_name": ["Dehydroabietol", "1-Phenanthrenemethanol, 1,2,3,4,4a,9,10,10a-octahydro-1,4a-dimethyl-7-(1-methylethyl)-, (1R,4aS,10aR)-", "Abietyl alcohol, dehydro-", "Podocarpa-8,11,13-trien-15-ol, 13-isopropyl-", "1-Phenanthrenemethanol, 1,2,3,4,4a,9,10,10a-octahydro-1,4a-dimethyl-7-(1-methylethyl)-, [1R-(1\u03b1,4a\u03b2,10a\u03b1)]-", "Abietinol, dehydro-", "(1R,4aS,10aR)-1,2,3,4,4a,9,10,10a-Octahydro-1,4a-dimethyl-7-(1-methylethyl)-1-phenanthrenemethanol", "Dehydroabietinol", "Dehydroabietol", "Dehydroabeityl alcohol", "Dehydroabietyl alcohol", "Pomiferin A", "ar-Abietatrienol", "13-Isopropylpodocarpa-8,11,13-trien-15-ol", "Dehydroabietanol"], "SMILES": "CC12C=3C(CCC1C(CO)(C)CCC2)=CC(C(C)C)=CC3", "physical_data": {"Molecular Weight": "286.45", "Molecular Formula": "C20H30O", "Boiling Point": "177 \u00b0C"}}