{"cas_no": "37721-75-8", "cn_name": "2,3,5,6-\u56db\u6eb4-4-\u7532\u57fa\u82ef\u915a", "en_name": ["2,3,5,6-Tetrabromo-4-methylphenol", "Phenol, 2,3,5,6-tetrabromo-4-methyl-", "2,3,5,6-Tetrabromo-4-methylphenol", "2,3,5,6-Tetrabromo-p-cresol", "4-Methyl-2,3,5,6-tetrabromophenol", "Tetrabromo-p-cresol"], "SMILES": "BrC1=C(Br)C(O)=C(Br)C(Br)=C1C", "physical_data": {"Molecular Weight": "423.72", "Molecular Formula": "C7H4Br4O", "Melting Point": "209 \u00b0C"}}