{"cas_no": "3772-56-3", "cn_name": "\u9676\u5854\u4e8c\u915a", "en_name": ["(2S,4aS,10aR)-1,2,3,4,4a,9,10,10a-Octahydro-1,1,4a-trimethyl-8-(1-methylethyl)-2,7-phenanthrenediol", "2,7-Phenanthrenediol, 1,2,3,4,4a,9,10,10a-octahydro-1,1,4a-trimethyl-8-(1-methylethyl)-, (2S,4aS,10aR)-", "Podocarpa-8,11,13-triene-3\u03b2,13-diol, 14-isopropyl-", "2,7-Phenanthrenediol, 1,2,3,4,4a,9,10,10a-octahydro-1,1,4a-trimethyl-8-(1-methylethyl)-, [2S-(2\u03b1,4a\u03b1,10a\u03b2)]-", "(2S,4aS,10aR)-1,2,3,4,4a,9,10,10a-Octahydro-1,1,4a-trimethyl-8-(1-methylethyl)-2,7-phenanthrenediol", "Totaradiol", "3\u03b2-Hydroxytotarol", "(+)-Totaradiol"], "SMILES": "CC12C=3C(=C(C(C)C)C(O)=CC3)CCC1C(C)(C)C(O)CC2", "physical_data": {"Molecular Weight": "302.45", "Molecular Formula": "C20H30O2", "Melting Point": "180.5-181.5 \u00b0C"}}