{"cas_no": "3772-26-7", "cn_name": "N-\u5f02\u4e19\u57fa-2-\u5421\u54af\u70f7\u916e", "en_name": ["N-Isopropyl-2-pyrrolidone", "2-Pyrrolidinone, 1-(1-methylethyl)-", "2-Pyrrolidinone, 1-isopropyl-", "1-(1-Methylethyl)-2-pyrrolidinone", "N-Isopropyl-2-pyrrolidone", "1-Isopropyl-2-pyrrolidinone", "N-Isopropylpyrrolidinone", "N-Isopropyl-2-pyrrolidinone", "N-Isopropylbutyrolactam", "1-(Propan-2-yl)pyrrolidin-2-one", "1-Propan-2-ylpyrrolidin-2-one"], "SMILES": "C(C)(C)N1C(=O)CCC1", "physical_data": {"Molecular Weight": "127.18", "Molecular Formula": "C7H13NO", "Boiling Point": "110-115 \u00b0C @ Press: 25 Torr"}}