{"cas_no": "3773-14-6", "cn_name": "2,4,5-\u4e09\u6c2f\u82ef\u786b\u9187", "en_name": ["2,4,5-Trichlorobenzenethiol", "Benzenethiol, 2,4,5-trichloro-", "2,4,5-Trichlorobenzenethiol", "Renacite II", "2,4,5-Trichlorothiophenol", "2,4,5-Trichlorophenylmercaptan", "NSC 41933", "2,4,5-Trichlorobenzene-1-thiol"], "SMILES": "ClC1=C(Cl)C=C(S)C(Cl)=C1", "physical_data": {"Molecular Weight": "213.51", "Molecular Formula": "C6H3Cl3S", "Boiling Point": "140-141 \u00b0C @ Press: 13 Torr", "Melting Point": "118-120 \u00b0C"}}