{"cas_no": "37746-78-4", "cn_name": "4-\u6eb4\u5df4\u8c46\u9178\u4e59\u916f", "en_name": ["Ethyl (E)-4-bromo-2-butenoate", "2-Butenoic acid, 4-bromo-, ethyl ester, (2E)-", "2-Butenoic acid, 4-bromo-, ethyl ester, (E)-", "trans-Ethyl \u03b3-bromocrotonate", "Ethyl (E)-4-bromo-2-butenoate", "Ethyl 4-bromo-2-(E)-butenoate", "Ethyl bromocrotonate", "(2E)-4-Bromo-2-butenoic acid ethyl ester", "(E)-Ethyl 4-bromocrotonate", "(E)-4-Bromo-2-butenoic acid ethyl ester", "Ethyl (E)-4-bromobutenoate", "(E)-4-Bromobut-2-enoic acid ethyl ester", "(E)-Ethyl 4-bromobut-2-enoate", "Ethyl trans-4-bromo-2-butenoate", "trans-Ethyl 4-bromocrotonate", "Ethyl (E)-4-bromocrotonate", "Ethyl (2E)-4-bromobut-2-enoate", "Ethyl (2E)-4-bromobut-2-enoate"], "SMILES": "C(C=CCBr)(OCC)=O", "physical_data": {"Molecular Weight": "193.04", "Molecular Formula": "C6H9BrO2", "Boiling Point": "91-93 \u00b0C @ Press: 10 Torr"}}