{"cas_no": "3774-53-6", "cn_name": "2-\u7532\u57fa-4-\u786b\u6c30\u57fa\u82ef\u915a", "en_name": ["Thiocyanic acid, 4-hydroxy-3-methylphenyl ester", "Thiocyanic acid, 4-hydroxy-3-methylphenyl ester", "Thiocyanic acid, 4-hydroxy-m-tolyl ester", "o-Cresol, 4-thiocyanato-", "3-Methyl-4-hydroxyphenyl thiocyanate", "4-Hydroxy-3-methylphenyl thiocyanate", "4-Hydroxy-m-tolyl thiocyanate", "4-Thiocyanato-o-cresol", "2-Methyl-4-(thiocyano)phenol", "NSC 31040", "NSC 4470", "NSC 7392", "2-Methyl-4-thiocyanatophenol"], "SMILES": "S(C#N)C1=CC(C)=C(O)C=C1", "physical_data": {"Molecular Weight": "165.21", "Molecular Formula": "C8H7NOS", "Melting Point": "61 \u00b0C"}}