{"cas_no": "3775-90-4", "cn_name": "2-\u7532\u57fa-2-\u4e19\u70ef\u9178-2-[(1,1-\u4e8c\u7532\u57fa\u4e59\u57fa)\u6c28]\u4e59\u916f", "en_name": ["tert-Butylaminoethyl methacrylate", "2-Propenoic acid, 2-methyl-, 2-[(1,1-dimethylethyl)amino]ethyl ester", "Methacrylic acid, 2-(tert-butylamino)ethyl ester", "Ethanol, 2-(tert-butylamino)-, methacrylate (ester)", "tert-Butylaminoethyl methacrylate", "2-(tert-Butylamino)ethyl methacrylate", "N-tert-Butylaminoethyl methacrylate", "Ageflex FM 4", "Mhoromer BM 615", "t-Butylaminoethyl methacrylate", "2-(N-tert-Butylamino)ethyl methacrylate", "2-(tert-Butylamino)ethyl methacrylate methacrylate", "2-(tert-Butylamino)ethyl 2-methylprop-2-enoate", "t-BAEMA"], "SMILES": "O(CCNC(C)(C)C)C(C(C)=C)=O", "physical_data": {"Molecular Weight": "185.26", "Molecular Formula": "C10H19NO2", "Boiling Point": "100-105 \u00b0C @ Press: 12 Torr", "Melting Point": "&lt;-70 \u00b0C", "Density": "0.914 g/cm\u00b3 @ Temp: 25 \u00b0C"}}