{"cas_no": "3775-61-9", "cn_name": "5-\u4e59\u57fa-1,3,4-\u6c27\u4e8c\u5511-2-\u57fa\u80fa", "en_name": ["5-Ethyl-1,3,4-oxadiazol-2-amine", "1,3,4-Oxadiazol-2-amine, 5-ethyl-", "1,3,4-Oxadiazole, 2-amino-5-ethyl-", "5-Ethyl-1,3,4-oxadiazol-2-amine", "2-Amino-5-ethyl-1,3,4-oxadiazole", "NSC 382942", "5-Ethyl-2-amino-[1,3,4]oxadiazole", "5-Ethyl-1,3,4-oxadiazol-2-ylamine"], "SMILES": "C(C)C=1OC(N)=NN1", "physical_data": {"Molecular Weight": "113.12", "Molecular Formula": "C4H7N3O", "Melting Point": "180-181 \u00b0C"}}