{"cas_no": "37750-29-1", "cn_name": "2-\u6c28\u57fa-4'-\u6c2f\u4e8c\u82ef\u786b\u919a", "en_name": ["2-[(4-Chlorophenyl)thio]benzenamine", "Benzenamine, 2-[(4-chlorophenyl)thio]-", "Aniline, o-[(p-chlorophenyl)thio]-", "2-[(4-Chlorophenyl)thio]benzenamine", "2-Aminophenyl 4-chlorophenyl sulfide", "o-(p-Chlorophenylthio)aniline", "2-[(4-Chlorophenyl)sulfanyl]aniline", "2-(4-Chlorophenyl)sulfanylaniline"], "SMILES": "S(C1=C(N)C=CC=C1)C2=CC=C(Cl)C=C2", "physical_data": {"Molecular Weight": "235.73", "Molecular Formula": "C12H10ClNS", "Boiling Point": "164-166 \u00b0C @ Press: 0.45 Torr", "Melting Point": "32 \u00b0C"}}