{"cas_no": "3775-29-9", "cn_name": "2-\u4e9a\u7532\u57fa\u4e19\u70f7-1,3-\u4e8c\u4e59\u9170\u6c27\u57fa", "en_name": ["1,3-Propanediol, 2-methylene-, 1,3-diacetate", "1,3-Propanediol, 2-methylene-, 1,3-diacetate", "1,3-Propanediol, 2-methylene-, diacetate", "1,3-Diacetoxy-2-methylenepropane", "2-Methylene-1,3-diacetoxypropane", "2-Methylene-1,3-propanediyl diacetate", "3-Acetoxy-2-(acetoxymethyl)-1-propene", "2-Methylene-1,3-propanediol diacetate", "2-[(Acetyloxy)methyl]prop-2-en-1-yl acetate"], "SMILES": "C(COC(C)=O)(COC(C)=O)=C", "physical_data": {"Molecular Weight": "172.18", "Molecular Formula": "C8H12O4", "Boiling Point": "100.5-101.0 \u00b0C @ Press: 12 Torr", "Density": "1.066 g/cm\u00b3 @ Temp: 22 \u00b0C"}}