{"cas_no": "3775-73-3", "cn_name": "(R)-3-\u6c28\u57fa\u4e01\u9178", "en_name": ["(-)-3-Aminobutyric acid", "Butanoic acid, 3-amino-, (3R)-", "Butyric acid, 3-amino-, D-", "Butanoic acid, 3-amino-, (R)-", "(3R)-3-Aminobutanoic acid", "D-\u03b2-Aminobutyric acid", "(R)-3-Aminobutanoic acid", "D-3-Aminobutyric acid", "(R)-\u03b2-Aminobutanoic acid", "(R)-(-)-3-Aminobutyric acid", "D-3-Aminobutanoic acid", "(R)-3-Aminobutyric acid", "(-)-3-Aminobutanoic acid", "(-)-3-Aminobutyric acid", "3(R)-Methyl-\u03b2-alanine", "(R)-3-Aminobutanoic acid", "(3R)-3-Azaniumylbutanoate"], "SMILES": "C(C(C)N)C(O)=O", "physical_data": {"Molecular Weight": "103.12", "Molecular Formula": "C4H9NO2", "Melting Point": "215-216 \u00b0C"}}