{"cas_no": "37763-43-2", "cn_name": "1-\u6eb4-2-(\u6eb4\u7532\u57fa)\u8418", "en_name": ["1-Bromo-2-(bromomethyl)naphthalene", "Naphthalene, 1-bromo-2-(bromomethyl)-", "1-Bromo-2-(bromomethyl)naphthalene", "NSC 97068"], "SMILES": "BrC=1C2=C(C=CC1CBr)C=CC=C2", "physical_data": {"Molecular Weight": "299.99", "Molecular Formula": "C11H8Br2", "Melting Point": "103.5-105.5 \u00b0C"}}