{"cas_no": "37762-06-4", "cn_name": "2-(2-\u4e19\u6c27\u82ef\u57fa)-8-\u6c2e\u6742\u6b21\u9ec4\u560c\u5464", "en_name": ["Zaprinast", "7H-1,2,3-Triazolo[4,5-d]pyrimidin-7-one, 3,6-dihydro-5-(2-propoxyphenyl)-", "7H-1,2,3-Triazolo[4,5-d]pyrimidin-7-one, 1,4-dihydro-5-(2-propoxyphenyl)-", "3,6-Dihydro-5-(2-propoxyphenyl)-7H-1,2,3-triazolo[4,5-d]pyrimidin-7-one", "8-Aza-2-(2-propoxyphenyl)-6-purinone", "2-(o-Propoxyphenyl)-8-azapurin-6-one", "M&", "B 22,948", "M and B 22948", "Zaprinast", "2-(2-Propoxyphenyl)-8-aza-6-purinone", "5-(2-Propoxyphenyl)-1H-[1,2,3]triazolo[4,5-d]pyrimidin-7(4H)-one", "M&", "B 22948"], "SMILES": "O(CCC)C1=C(C=CC=C1)C=2NC3=C(C(=O)N2)NN=N3", "physical_data": {"Molecular Weight": "271.27", "Molecular Formula": "C13H13N5O2", "Melting Point": "241 \u00b0C (decomp)"}}