{"cas_no": "37764-25-3", "cn_name": "\u4e8c\u6c2f\u4e19\u70ef\u80fa", "en_name": ["Dichlormid", "Acetamide, 2,2-dichloro-N,N-di-2-propen-1-yl-", "Acetamide, 2,2-dichloro-N,N-di-2-propenyl-", "Acetamide, N,N-diallyl-2,2-dichloro-", "2,2-Dichloro-N,N-di-2-propen-1-ylacetamide", "N,N-Diallyl-2,2-dichloroacetamide", "R 25788", "N,N-Diallyldichloroacetamide", "Stauffer R 25788", "N,N-Diallyl-\u03b1,\u03b1-dichloroacetamide", "Dichlormid", "2,2-Dichloro-N,N-bis(prop-2-enyl)acetamide"], "SMILES": "N(C(C(Cl)Cl)=O)(CC=C)CC=C", "physical_data": {"Molecular Weight": "208.09", "Molecular Formula": "C8H11Cl2NO", "Boiling Point": "130 \u00b0C", "Melting Point": "5.5 \u00b0C"}}