{"cas_no": "3776-39-4", "cn_name": "\u5ef6\u547d\u8349\u7d20", "en_name": ["Enmein", "Enmein", "5H-5a,8-Methano-11H-cyclohepta[c]furo[3,4-e][1]benzopyran-5,6(7H)-dione, decahydro-2,13-dihydroxy-1,1-dimethyl-7-methylene-, (2S,3aS,5aS,8R,10aS,10bS,13R,13aR)-", "Isodonin", "Bicyclo[3.2.1]octane-1-carboxylic acid, 6-methylene-7-oxo-2-(tetrahydro-1,4,6-trihydroxy-7,7-dimethyl-3a(4H)-phthalanyl)-, \u03b4-lactone", "5H-5a,8-Methano-11H-cyclohepta[c]furo[3,4-e][1]benzopyran, enmein deriv.", "5H-5a,8-Methano-11H-cyclohepta[c]furo[3,4-e][1]benzopyran-5,6(7H)-dione, decahydro-2,13-dihydroxy-1,1-dimethyl-7-methylene-, [2S-(2\u03b1,3a\u03b1,5a\u03b1,8\u03b1,10a\u03b2,10bR*,13\u03b1,13a\u03b1)]-", "Isodonine", "[2S-(2\u03b1,3a\u03b1,5a\u03b1,8\u03b1,10a\u03b2,10bR*,13\u03b1,13a\u03b1)]-Decahydro-2,13-dihydroxy-1,1-dimethyl-7-methylene-5H-5a,8-methano-11H-cyclohepta[c]furo[3,4-e][1]benzopyran-5,6(7H)-dione", "NSC 526961", "(-)-Enmein"], "SMILES": "CC1(C)C2C3(C4C5(CC(CC4)C(=C)C5=O)C(=O)OC3CC1O)COC2O", "physical_data": {"Molecular Weight": "362.42", "Molecular Formula": "C20H26O6", "Melting Point": "227-229 \u00b0C (decomp)"}}