{"cas_no": "37777-81-4", "cn_name": "5-\u7532\u57fa-2-\u785d\u57fa\u82ef\u4e59\u9178", "en_name": ["5-Methyl-2-nitrobenzeneacetic acid", "Benzeneacetic acid, 5-methyl-2-nitro-", "5-Methyl-2-nitrobenzeneacetic acid", "(5-Methyl-2-nitrophenyl)acetic acid", "2-(5-Methyl-2-nitrophenyl)acetic acid"], "SMILES": "N(=O)(=O)C1=C(CC(O)=O)C=C(C)C=C1", "physical_data": {"Molecular Weight": "195.17", "Molecular Formula": "C9H9NO4", "Melting Point": "149 \u00b0C"}}