{"cas_no": "3777-71-7", "cn_name": "2-\u5e9a\u57fa\u544b\u5583", "en_name": ["2-Heptylfuran", "Furan, 2-heptyl-", "2-Heptylfuran", "2-n-Heptylfuran"], "SMILES": "C(CCCCCC)C1=CC=CO1", "physical_data": {"Molecular Weight": "166.26", "Molecular Formula": "C11H18O", "Boiling Point": "83-84 \u00b0C @ Press: 11 Torr", "Density": "0.8794 g/cm\u00b3 @ Temp: 20 \u00b0C"}}