{"cas_no": "37777-71-2", "cn_name": "4-\u6c2f-2-\u785d\u57fa\u82ef\u4e59\u9178", "en_name": ["4-Chloro-2-nitrobenzeneacetic acid", "Benzeneacetic acid, 4-chloro-2-nitro-", "4-Chloro-2-nitrobenzeneacetic acid", "4-Chloro-2-nitrophenylacetic acid", "NSC 115143", "2-(4-Chloro-2-nitrophenyl)-acetic acid"], "SMILES": "C(C(O)=O)C1=C(N(=O)=O)C=C(Cl)C=C1", "physical_data": {"Molecular Weight": "215.59", "Molecular Formula": "C8H6ClNO4", "Melting Point": "155 \u00b0C"}}