{"cas_no": "3777-69-3", "cn_name": "2-\u6b63\u620a\u57fa\u544b\u5583", "en_name": ["2-Pentylfuran", "Furan, 2-pentyl-", "2-Pentylfuran", "2-n-Pentylfuran", "2-Amylfuran", "Dihydro-5-pentyl-2(hydro)-furan"], "SMILES": "C(CCCC)C1=CC=CO1", "physical_data": {"Molecular Weight": "138.21", "Molecular Formula": "C9H14O", "Boiling Point": "64-65 \u00b0C @ Press: 20.5 Torr", "Density": "0.838 g/cm\u00b3 @ Temp: 19 \u00b0C"}}