{"cas_no": "3778-73-2", "cn_name": "\u5f02\u73af\u78f7\u9170\u80fa", "en_name": ["Ifosfamide", "2H-1,3,2-Oxazaphosphorin-2-amine, N,3-bis(2-chloroethyl)tetrahydro-, 2-oxide", "2H-1,3,2-Oxazaphosphorine, 3-(2-chloroethyl)-2-[(2-chloroethyl)amino]tetrahydro-, 2-oxide", "A 4942", "3-(2-Chloroethyl)-2-(2-chloroethylamino)tetrahydro-2H-1,3,2-oxaazaphosphorin 2-oxide", "Ifosfamide", "3-(2-Chloroethyl)-2-(2-chloroethylamino)tetrahydro-2H-1,3,2-oxazaphosphorine 2-oxide", "Asta Z 4942", "Isoendoxan", "Isophosphamide", "NSC 109724", "Ifosfamid", "Iphosphamide", "3-(2-Chloroethyl)-2-(2-chloroethylamino)tetrahydro-2H-1,3,2-oxazaphosphorin 2-oxide", "Holoxan 1000", "Isofosfamide", "Z 4942", "Ifomide", "Ifosphamide", "Mitoxana", "Holoxan", "(\u00b1)-Ifosfamide", "Cyfos", "Naxamide", "Ifex", "MJF 9325", "Ifosfomide", "(2-Chloro-ethyl)-[3-(2-chloro-ethyl)-2-oxo-2\u03bb*5*-[1,3,2]oxazaphosphinan-2-yl]-amine", "MeSH ID: D007069"], "SMILES": "C(CCl)N1P(NCCCl)(=O)OCCC1", "physical_data": {"Molecular Weight": "261.09", "Molecular Formula": "C7H15Cl2N2O2P", "Melting Point": "39-41 \u00b0C"}}