{"cas_no": "37784-63-7", "cn_name": "\u4e59\u57fa3-\u4e09\u82ef\u4e59\u9178\u4e59\u9178", "en_name": ["Ethyl 3-thiopheneacetate", "3-Thiopheneacetic acid, ethyl ester", "Ethyl 3-thiopheneacetate", "Ethyl 3-thienylacetate", "Ethyl 2-(thiophen-3-yl)acetate", "Ethyl 2-(thien-3-yl)acetate"], "SMILES": "C(C(OCC)=O)C=1C=CSC1", "physical_data": {"Molecular Weight": "170.23", "Molecular Formula": "C8H10O2S", "Boiling Point": "107-115 \u00b0C @ Press: 6 Torr"}}