{"cas_no": "3779-42-8", "cn_name": "(3-\u6eb4\u4e19\u57fa)\u4e09\u7532\u57fa\u6eb4\u5316\u94f5", "en_name": ["1-Propanaminium, 3-bromo-N,N,N-trimethyl-, bromide (1:1)", "1-Propanaminium, 3-bromo-N,N,N-trimethyl-, bromide (1:1)", "Ammonium, (3-bromopropyl)trimethyl-, bromide", "1-Propanaminium, 3-bromo-N,N,N-trimethyl-, bromide", "(3-Bromopropyl)trimethylammonium bromide", "N,N,N-Trimethyl-N-3-bromopropylammonium bromide", "3-Bromo-N,N,N-trimethyl-1-propanaminium bromide", "(3-Bromopropyl)trimethylazanium bromide"], "SMILES": "C([N+](C)(C)C)CCBr.[Br-]", "physical_data": {"Molecular Weight": "", "Molecular Formula": "C6H15BrN.Br", "Melting Point": "208 \u00b0C"}}