{"cas_no": "3779-29-1", "cn_name": "1,1-\u73af\u4e01\u70f7-\u4e59\u4e8c\u9178\u4e8c\u4e59\u916f", "en_name": ["Diethyl 1,1-cyclobutanedicarboxylate", "1,1-Cyclobutanedicarboxylic acid, 1,1-diethyl ester", "1,1-Cyclobutanedicarboxylic acid, diethyl ester", "Diethyl 1,1-cyclobutanedicarboxylate", "NSC 9017", "1,1-Diethyl cyclobutane-1,1-dicarboxylate"], "SMILES": "C(OCC)(=O)C1(C(OCC)=O)CCC1", "physical_data": {"Molecular Weight": "200.23", "Molecular Formula": "C10H16O4", "Boiling Point": "224 \u00b0C", "Density": "1.0350 g/cm\u00b3 @ Temp: 420 \u00b0C"}}