{"cas_no": "37795-77-0", "cn_name": "5-\u7532\u6c27\u57fa\u975b\u7ea2\u9178\u9150", "en_name": ["5-Methoxyisatoic anhydride", "2H-3,1-Benzoxazine-2,4(1H)-dione, 6-methoxy-", "6-Methoxy-2H-3,1-benzoxazine-2,4(1H)-dione", "6-Methoxy-4H-3,1-benzoxazine-2,4(1H)-dione", "6-Methoxy-1H-benzo[d][1,3]oxazine-2,4-dione", "NSC 163035", "6-Methoxy-2H-benzo[d][1,3]oxazine-2,4(1H)-dione", "5-Methoxyisatoic anhydride"], "SMILES": "O=C1C=2C(NC(=O)O1)=CC=C(OC)C2", "physical_data": {"Molecular Weight": "193.16", "Molecular Formula": "C9H7NO4", "Melting Point": "242-244 \u00b0C"}}