{"cas_no": "378-75-6", "cn_name": "\u4e94\u6c1f\u4e19\u9178\u7532\u916f", "en_name": ["Methyl 2,2,3,3,3-pentafluoropropanoate", "Propanoic acid, 2,2,3,3,3-pentafluoro-, methyl ester", "Propionic acid, pentafluoro-, methyl ester", "Propanoic acid, pentafluoro-, methyl ester", "Methyl 2,2,3,3,3-pentafluoropropanoate", "Methyl pentafluoropropionate", "Methyl perfluoropropionate", "Methyl 2,2,3,3,3-pentafluoropropionate", "Methyl pentafluoropropanoate"], "SMILES": "C(C(OC)=O)(C(F)(F)F)(F)F", "physical_data": {"Molecular Weight": "178.06", "Molecular Formula": "C4H3F5O2", "Boiling Point": "59.5 \u00b0C", "Density": "1.393 g/cm\u00b3 @ Temp: 20 \u00b0C"}}