{"cas_no": "378-44-9", "cn_name": "\u500d\u4ed6\u7c73\u677e", "en_name": ["Betamethasone", "Pregna-1,4-diene-3,20-dione, 9-fluoro-11,17,21-trihydroxy-16-methyl-, (11\u03b2,16\u03b2)-", "Pregna-1,4-diene-3,20-dione, 9-fluoro-11\u03b2,17,21-trihydroxy-16\u03b2-methyl-", "(11\u03b2,16\u03b2)-9-Fluoro-11,17,21-trihydroxy-16-methylpregna-1,4-diene-3,20-dione", "Betamethasone", "Betamethazone", "Betnelan", "Betsolan", "Celestone", "9\u03b1-Fluoro-16\u03b2-methylprednisolone", "9\u03b1-Fluoro-16\u03b2-methyl-1,4-pregnadiene-11\u03b2,17\u03b1,21-triol-3,20-dione", "9-Fluoro-11\u03b2,17,21-trihydroxy-16\u03b2-methylpregna-1,4-diene-3,20-dione", "9\u03b1-Fluoro-11\u03b2,17,21-trihydroxy-16\u03b2-methylpregna-1,4-diene-3,20-dione", "\u03b2-Methasone", "\u03b2-Methasone alcohol", "9\u03b1-Fluoro-11\u03b2,17\u03b1,21-trihydroxy-16\u03b2-methylpregna-1,4-diene-3,20-dione", "9-Fluoro-16\u03b2-methylprednisolone", "Betacorlan", "Rinderon", "Betacortril", "Celestene", "Betapredol", "Cidoten", "Betasolon", "Desacort-Beta", "Rinderon A", "Bedifos", "Celeston", "Colircusi betamida", "Bifas", "Dermabet", "Flubenisolone", "Visubeta", "Becort", "Sch 4831", "NSC 39470", "Betadexamethasone", "Celestan", "Betametasone", "Flosteron", "Bethamethasone", "Betacortil", "Ethamethasoneb", "MeSH ID: D001623"], "SMILES": "FC12C(C3C(C)(CC1O)C(C(CO)=O)(O)C(C)C3)CCC=4C2(C)C=CC(=O)C4", "physical_data": {"Molecular Weight": "392.46", "Molecular Formula": "C22H29FO5", "Melting Point": "231-234 \u00b0C (decomp)"}}