{"cas_no": "3780-50-5", "cn_name": "4-\u8f9b\u6c27\u57fa\u82ef\u915a", "en_name": ["4-(Octyloxy)phenol", "Phenol, 4-(octyloxy)-", "Phenol, p-(octyloxy)-", "4-(Octyloxy)phenol", "Hydroquinone octyl ether", "p-(Octyloxy)phenol", "4-(n-Octyloxy)phenol"], "SMILES": "O(CCCCCCCC)C1=CC=C(O)C=C1", "physical_data": {"Molecular Weight": "222.32", "Molecular Formula": "C14H22O2", "Boiling Point": "127-128 \u00b0C @ Press: 3 Torr", "Melting Point": "60-61 \u00b0C"}}