{"cas_no": "37811-72-6", "cn_name": "\u5341\u4e8c\u70f7\u9178\u5f02\u4e01\u916f", "en_name": ["Isobutyl laurate", "Dodecanoic acid, 2-methylpropyl ester", "Lauric acid isobutyl ester", "Isobutyl laurate", "Texaprint SLIB", "NSC 406877", "Tosolv-Lib", "Isobutyl dodecanoate", "2-Methylpropyl dodecanoate"], "SMILES": "C(CCCCCCCCCC)C(OCC(C)C)=O", "physical_data": {"Molecular Weight": "256.42", "Molecular Formula": "C16H32O2", "Boiling Point": "173 \u00b0C @ Press: 18 Torr"}}