{"cas_no": "3782-00-1", "cn_name": "2,3-\u4e8c\u7532\u57fa\u82ef\u5e76\u544b\u5583", "en_name": ["2,3-Dimethylbenzofuran", "Benzofuran, 2,3-dimethyl-", "2,3-Dimethylbenzofuran", "2,3-Dimethyl-1-benzofuran"], "SMILES": "CC=1C=2C(OC1C)=CC=CC2", "physical_data": {"Molecular Weight": "146.19", "Molecular Formula": "C10H10O", "Boiling Point": "101-102 \u00b0C @ Press: 19 Torr"}}