{"cas_no": "37843-11-1", "cn_name": "\u91d1\u521a\u70f7\u57fa\u4e59\u57fa\u4e09\u6c2f\u7845\u70f7", "en_name": ["1-[2-(Trichlorosilyl)ethyl]tricyclo[3.3.1.13,7]decane", "Tricyclo[3.3.1.13,7]decane, 1-[2-(trichlorosilyl)ethyl]-", "Silane, trichloro(2-tricyclo[3.3.1.13,7]dec-1-ylethyl)-", "1-[2-(Trichlorosilyl)ethyl]tricyclo[3.3.1.13,7]decane", "1-[2-(Trichlorosilyl)ethyl]adamantane", "2-(1-Adamantyl)ethyltrichlorosilane"], "SMILES": "C(C[Si](Cl)(Cl)Cl)C12CC3CC(C1)CC(C2)C3", "physical_data": {"Molecular Weight": "297.72", "Molecular Formula": "C12H19Cl3Si", "Boiling Point": "135 \u00b0C @ Press: 3 Torr", "Melting Point": "36-37 \u00b0C", "Density": "1.220 g/cm\u00b3"}}