{"cas_no": "37847-52-2", "cn_name": "2,4-\u4e8c\u6c1f\u8054\u82ef", "en_name": ["2,4-Difluoro-1,1\u2032-biphenyl", "1,1\u2032-Biphenyl, 2,4-difluoro-", "2,4-Difluoro-1,1\u2032-biphenyl", "2,4-Difluorobiphenyl", "2,4-Difluoro-1-phenylbenzene"], "SMILES": "FC1=C(C2=CC=CC=C2)C=CC(F)=C1", "physical_data": {"Molecular Weight": "190.19", "Molecular Formula": "C12H8F2", "Melting Point": "59-61 \u00b0C"}}