{"cas_no": "37841-91-1", "cn_name": "", "en_name": ["(+)-Isovelleral", "Cycloprop[e]indene-1a,2(1H)-dicarboxaldehyde, 3a,4,5,6,6a,6b-hexahydro-5,5,6b-trimethyl-, (1aS,3aS,6aS,6bR)-", "Cycloprop[e]indene-1a,2(1H)-dicarboxaldehyde, 3a,4,5,6,6a,6b-hexahydro-5,5,6b-trimethyl-, [1aS-(1a\u03b1,3a\u03b2,6a\u03b2,6b\u03b1)]-", "(1aS,3aS,6aS,6bR)-3a,4,5,6,6a,6b-Hexahydro-5,5,6b-trimethylcycloprop[e]indene-1a,2(1H)-dicarboxaldehyde", "Isovelleral", "(+)-Isovelleral", "NSC 299922"], "SMILES": "C(=O)C12C(C)(C1)C3C(C=C2C=O)CC(C)(C)C3", "physical_data": {"Molecular Weight": "232.32", "Molecular Formula": "C15H20O2", "Melting Point": "104.5-105 \u00b0C"}}