{"cas_no": "3784-03-0", "cn_name": "2,4,6-\u4e09\u6c2f\u82ef\u915a\u94a0", "en_name": ["Phenol, 2,4,6-trichloro-, sodium salt (1:1)", "Phenol, 2,4,6-trichloro-, sodium salt (1:1)", "Phenol, 2,4,6-trichloro-, sodium salt", "Sodium 2,4,6-trichlorophenate", "2,4,6-Trichlorophenol sodium salt", "Sodium 2,4,6-trichlorophenoxide", "Sodium 2,4,6-trichlorophenolate"], "SMILES": "OC1=C(Cl)C=C(Cl)C=C1Cl.[Na]", "physical_data": {"Molecular Weight": "", "Molecular Formula": "C6H3Cl3O.Na", "Melting Point": "185 \u00b0C"}}