{"cas_no": "3785-24-8", "cn_name": "\u7f8a\u8e44\u7d20", "en_name": ["Nepodin", "Ethanone, 1-(1,8-dihydroxy-3-methyl-2-naphthalenyl)-", "2\u2032-Acetonaphthone, 1\u2032,8\u2032-dihydroxy-3\u2032-methyl-", "1-(1,8-Dihydroxy-3-methyl-2-naphthalenyl)ethanone", "Musizin", "Nepodin", "Musizine", "Dianellidin", "2-Acetyl-1,8-dihydroxy-3-methylnaphthalene", "NSC 365795"], "SMILES": "OC=1C2=C(C=C(C)C1C(C)=O)C=CC=C2O", "physical_data": {"Molecular Weight": "216.23", "Molecular Formula": "C13H12O3", "Melting Point": "158 \u00b0C"}}