{"cas_no": "3785-34-0", "cn_name": "1,2-\u53cc(\u6eb4\u4e59\u9170\u6c27\u57fa)\u4e59\u70f7", "en_name": ["1,1\u2032-(1,2-Ethanediyl) bis(2-bromoacetate)", "Acetic acid, 2-bromo-, 1,1\u2032-(1,2-ethanediyl) ester", "Acetic acid, bromo-, ethylene ester", "Acetic acid, bromo-, 1,2-ethanediyl ester", "Ethylene glycol, bis(bromoacetate)", "1,1\u2032-(1,2-Ethanediyl) bis(2-bromoacetate)", "Pandurol", "Bromoacetic acid 1,2-ethanediyl ester", "1,2-Bis(bromoacetoxy)ethane", "Ethylene bromoacetate", "BBAE", "NSC 25854", "NSC 406054", "Ethylene bis(2-bromoacetate)"], "SMILES": "O(CCOC(CBr)=O)C(CBr)=O", "physical_data": {"Molecular Weight": "303.93", "Molecular Formula": "C6H8Br2O4", "Boiling Point": "135-136 \u00b0C @ Press: 1.5 Torr"}}