{"cas_no": "3785-32-8", "cn_name": "(2-\u6c28\u57fa\u7532\u9170\u82ef\u6c27\u57fa)\u4e59\u9178\u94a0", "en_name": ["Acetic acid, 2-[2-(aminocarbonyl)phenoxy]-, sodium salt (1:1)", "Acetic acid, 2-[2-(aminocarbonyl)phenoxy]-, sodium salt (1:1)", "Acetic acid, (o-carbamoylphenoxy)-, sodium salt", "Acetic acid, [2-(aminocarbonyl)phenoxy]-, monosodium salt", "Salizell", "Sodium orthocarbamylphenoxyacetate", "Akistin", "Alagamon", "Salizell (ampule)", "Salizell ampules"], "SMILES": "O(CC(O)=O)C1=C(C(N)=O)C=CC=C1.[Na]", "physical_data": {"Molecular Weight": "", "Molecular Formula": "C9H9NO4.Na", "Melting Point": "212-215 \u00b0C"}}