{"cas_no": "37853-59-1", "cn_name": "1,2-\u53cc(2,4,6-\u4e09\u6eb4\u82ef\u6c27\u57fa)\u4e59\u70f7", "en_name": ["1,2-Bis(2,4,6-tribromophenoxy)ethane", "Benzene, 1,1\u2032-[1,2-ethanediylbis(oxy)]bis[2,4,6-tribromo-", "1,1\u2032-[1,2-Ethanediylbis(oxy)]bis[2,4,6-tribromobenzene]", "1,2-Bis(2,4,6-tribromophenoxy)ethane", "FireMaster 680", "FF 680", "FireMaster FF 680", "FI 680", "FM 680", "BTBPE", "1,3,5-Tribromo-2-[2-(2,4,6-tribromophenoxy)ethoxy]benzene", "DTXSID1024627"], "SMILES": "O(CCOC1=C(Br)C=C(Br)C=C1Br)C2=C(Br)C=C(Br)C=C2Br", "physical_data": {"Molecular Weight": "687.64", "Molecular Formula": "C14H8Br6O2", "Melting Point": "222-223 \u00b0C", "Density": "2.58 g/cm\u00b3"}}