{"cas_no": "3785-90-8", "cn_name": "4-\u7f9f\u57fa\u82ef\u4e9a\u7532\u57fa\u4e19\u4e8c\u8148", "en_name": ["4-Hydroxybenzylidenemalononitrile", "Propanedinitrile, 2-[(4-hydroxyphenyl)methylene]-", "Propanedinitrile, [(4-hydroxyphenyl)methylene]-", "Malononitrile, (p-hydroxybenzylidene)-", "2-[(4-Hydroxyphenyl)methylene]propanedinitrile", "4-Hydroxybenzylidenemalononitrile", "p-Hydroxybenzylidenemalononitrile", "Tyrphostin 8", "Tyrphostin A 8", "[(4-Hydroxyphenyl)methylene]propanedinitrile", "NSC 1345", "2-[(4-Hydroxyphenyl)methylene]malononitrile", "2-(4-Hydroxybenzylidene)malononitrile", "Tyrphostin AG 10", "AG 10", "2-[(4-Hydroxyphenyl)methylidene]propanedinitrile"], "SMILES": "C(=C(C#N)C#N)C1=CC=C(O)C=C1", "physical_data": {"Molecular Weight": "170.17", "Molecular Formula": "C10H6N2O", "Melting Point": "196 \u00b0C"}}