{"cas_no": "37859-25-9", "cn_name": "2-(2-\u8418\u57fa)\u4e59\u9170\u6c2f", "en_name": ["2-Naphthaleneacetyl chloride", "2-Naphthaleneacetyl chloride", "\u03b2-Naphthylacetyl chloride", "2-(2-Naphthyl)acetyl chloride", "2-Naphthylacetyl chloride", "Naphthalen-2-ylacetyl chloride", "2-(Naphthalen-2-yl)acetyl chloride"], "SMILES": "C(C(Cl)=O)C1=CC2=C(C=C1)C=CC=C2", "physical_data": {"Molecular Weight": "204.65", "Molecular Formula": "C12H9ClO", "Boiling Point": "156-158 \u00b0C @ Press: 10 Torr", "Melting Point": "181.5-183.5 \u00b0C"}}