{"cas_no": "37866-45-8", "cn_name": "2-\u6c28\u57fa\u4e59\u6c27\u57fa\u80fa\u4e8c\u76d0\u9178\u76d0", "en_name": ["Ethanamine, 2-(aminooxy)-, dihydrochloride", "Ethanamine, 2-(aminooxy)-, dihydrochloride", "Ethylamine, 2-(aminooxy)-, dihydrochloride", "O-(2-Aminoethyl)hydroxylamine dihydrochloride", "2-Aminoethoxyamine dihydrochloride", "2-(Aminooxy)ethylamine dihydrochloride", "2-(Aminooxy)ethanamine dihydrochloride"], "SMILES": "C(CN)ON.Cl", "physical_data": {"Molecular Weight": "", "Molecular Formula": "C2H8N2O.2ClH", "Melting Point": "165-169 \u00b0C (decomp)"}}