{"cas_no": "3786-91-2", "cn_name": "\u987a\u5f0f-1,2,3,4-\u73af\u620a\u70f7\u56db\u7fa7\u9178", "en_name": ["rel-(1R,2R,3S,4S)-1,2,3,4-Cyclopentanetetracarboxylic acid", "1,2,3,4-Cyclopentanetetracarboxylic acid, (1R,2R,3S,4S)-rel-", "1,2,3,4-Cyclopentanetetracarboxylic acid, all-cis-", "1,2,3,4-Cyclopentanetetracarboxylic acid, (1\u03b1,2\u03b1,3\u03b1,4\u03b1)-", "rel-(1R,2R,3S,4S)-1,2,3,4-Cyclopentanetetracarboxylic acid", "1-cis,2-cis,3-cis,4-cis-Cyclopentanetetracarboxylic acid", "1\u03b1,2\u03b1,3\u03b1,4\u03b1-Cyclopentanetetracarboxylic acid", "all-cis-1,2,3,4-Cyclopentanetetracarboxylic acid", "NSC 73712", "(1R,2R,3S,4S)-1,2,3,4-Cyclopentanetetracarboxylic acid"], "SMILES": "C(O)(=O)C1C(C(O)=O)C(C(O)=O)CC1C(O)=O", "physical_data": {"Molecular Weight": "246.17", "Molecular Formula": "C9H10O8", "Melting Point": "195 \u00b0C (decomp)"}}