{"cas_no": "37865-86-4", "cn_name": "6-\u4e59\u6c27\u57fa\u5432\u54da", "en_name": ["6-Ethoxy-1H-indole", "1H-Indole, 6-ethoxy-", "Indole, 6-ethoxy-", "6-Ethoxy-1H-indole", "6-Ethoxyindole"], "SMILES": "O(CC)C=1C=C2C(=CC1)C=CN2", "physical_data": {"Molecular Weight": "161.20", "Molecular Formula": "C10H11NO", "Melting Point": "55 \u00b0C"}}