{"cas_no": "37860-51-8", "cn_name": "\u56db\u4e59\u4e8c\u9187\u4e8c\u5bf9\u7532\u82ef\u78fa\u9178\u916f", "en_name": ["Tetraethylene glycol ditosylate", "Ethanol, 2,2\u2032-[oxybis(2,1-ethanediyloxy)]bis-, 1,1\u2032-bis(4-methylbenzenesulfonate)", "Ethanol, 2,2\u2032-[oxybis(2,1-ethanediyloxy)]bis-, bis(4-methylbenzenesulfonate)", "Tetraethylene glycol, di-p-toluenesulfonate", "Tetraethylene glycol ditosylate", "3,6,9-Trioxaundecane-1,11-diol ditosylate", "Tetraethylene glycol bis(p-toluenesulfonate)", "Tetraethylene glycol bis(4-toluenesulfonate)", "Tetraethylene glycol bistosylate", "1,11-Bis(tosyloxy)-3,6,9-trioxaundecane", "Tetraethylene glycol di-p-tosylate", "1,11-Bis(p-tolylsulfonyloxy)-3,6,9-trioxaundecane", "\u03b1,\u03c9-Di(p-toluenesulfonyl)tetraethylene glycol", "2,2\u2032-[Oxybis(2,1-ethanediyloxy)]bis[ethanol] bis(4-methylbenzenesulfonate)", "2-[2-[2-[2-[[(4-Methylphenyl)sulfonyl]oxy]ethoxy]ethoxy]ethoxy]ethyl 4-methylbenzenesulfonate", "Bis[2-[2-[[(4-methylphenyl)sulfonyl]oxy]ethoxy]ethyl] ether", "Bis-1,11-(p-toluenesulfonyloxy)-3,6,9-trioxaundecane", "1,11-Ditosyl-3,6,9-trioxaundecane", "((Oxybis(ethane-2,1-diyl))bis(oxy))bis(ethane-2,1-diyl) bis(4-methylbenzenesulfonate)"], "SMILES": "S(OCCOCCOCCOCCOS(=O)(=O)C1=CC=C(C)C=C1)(=O)(=O)C2=CC=C(C)C=C2", "physical_data": {"Molecular Weight": "502.60", "Molecular Formula": "C22H30O9S2", "Melting Point": "65-69 \u00b0C"}}