{"cas_no": "3788-56-5", "cn_name": "9-\u7f9f\u57fa\u58ec\u9178", "en_name": ["9-Hydroxynonanoic acid", "Nonanoic acid, 9-hydroxy-", "9-Hydroxynonanoic acid", "9-Hydroxypelargonic acid", "\u03c9-Hydroxynonanoic acid"], "SMILES": "C(CCCCCO)CCC(O)=O", "physical_data": {"Molecular Weight": "174.24", "Molecular Formula": "C9H18O3", "Melting Point": "53-54 \u00b0C"}}