{"cas_no": "3788-94-1", "cn_name": "2-\u4e59\u6c27\u4e9a\u7532\u57fa\u4e59\u9170\u4e59\u9178\u4e59\u916f", "en_name": ["Butanoic acid, 2-(ethoxymethylene)-3-oxo-, ethyl ester", "Butanoic acid, 2-(ethoxymethylene)-3-oxo-, ethyl ester", "Acetoacetic acid, 2-(ethoxymethylene)-, ethyl ester", "Ethyl 2-(ethoxymethylene)acetoacetate", "Ethyl (ethoxymethylene)acetoacetate", "2-(Ethoxymethylene)acetoacetic acid ethyl ester", "Ethyl 2-ethoxymethylene-3-oxobutanoate", "Ethyl 2-acetyl-3-ethoxyacrylate", "Ethyl 2-(ethoxymethylene)-3-oxobutyrate", "2-Acetyl-3-ethoxyacrylic acid ethyl ester", "NSC 32775", "2-Ethoxymethylene-3-oxobutanoic acid ethyl ester", "2-[1-Ethoxymethylidene]-3-oxo-butyric acid ethyl ester", "Ethyl 2-ethoxymethylidene-acetoacetate", "Ethyl 2-(ethoxymethylidene)-3-oxobutanoate", "Butanoic acid, 3-oxo-, ethoxymethyl ester"], "SMILES": "C(C(OCC)=O)(=COCC)C(C)=O", "physical_data": {"Molecular Weight": "186.21", "Molecular Formula": "C9H14O4", "Boiling Point": "105-112 \u00b0C @ Press: 0.6-0.8 Torr"}}