{"cas_no": "37895-73-1", "cn_name": "4,5-\u4e8c\u6eb4\u85dc\u82a6\u919a", "en_name": ["1,2-Dibromo-4,5-dimethoxybenzene", "Benzene, 1,2-dibromo-4,5-dimethoxy-", "1,2-Dibromo-4,5-dimethoxybenzene", "4,5-Dibromoveratrole", "4,5-Dibromo-1,2-dimethoxybenzene", "4,5-Dimethoxy-1,2-dibromobenzene"], "SMILES": "O(C)C1=C(OC)C=C(Br)C(Br)=C1", "physical_data": {"Molecular Weight": "295.96", "Molecular Formula": "C8H8Br2O2", "Melting Point": "92 \u00b0C"}}