{"cas_no": "37893-02-0", "cn_name": "\u76d0\u9178\u73af\u4e19\u6c99\u661f(\u7528\u4e8e\u5cf0\u503c\u6d4b\u5b9a)", "en_name": ["Flubenzimine", "Benzenamine, N-[3-phenyl-4,5-bis[(trifluoromethyl)imino]-2-thiazolidinylidene]-", "N-[3-Phenyl-4,5-bis[(trifluoromethyl)imino]-2-thiazolidinylidene]benzenamine", "Flubenzimine", "Cropotex", "SLJ 0312"], "SMILES": "N(C(F)(F)F)=C1N(C(=NC2=CC=CC=C2)SC1=NC(F)(F)F)C3=CC=CC=C3", "physical_data": {"Molecular Weight": "416.34", "Molecular Formula": "C17H10F6N4S", "Melting Point": "118 \u00b0C"}}