{"cas_no": "3789-59-1", "cn_name": "(S)-(-)-1-\u82ef\u4e19\u80fa", "en_name": ["(-)-1-Phenylpropylamine", "Benzenemethanamine, \u03b1-ethyl-, (\u03b1S)-", "Benzylamine, \u03b1-ethyl-, (S)-(-)-", "Benzenemethanamine, \u03b1-ethyl-, (S)-", "Benzylamine, \u03b1-ethyl-, l-", "(\u03b1S)-\u03b1-Ethylbenzenemethanamine", "(S)-(-)-\u03b1-Ethylbenzylamine", "(S)-\u03b1-Ethylbenzylamine", "(S)-1-Phenylpropylamine", "(-)-1-Ethylbenzylamine", "(S)-\u03b1-Phenylpropylamine", "(S)-\u03b1-Ethylbenzenemethanamine", "(-)-1-Phenylpropylamine", "[(1S)-1-Phenylpropyl]amine", "(1S)-1-Phenyl-1-propanamine", "(-)-(S)-1-Phenylpropylamine", "(S)-(-)-1-Phenylpropylamine", "(S)-1-Phenylpropan-1-amine", "(S)-(-)-1-Amino-1-phenylpropane"], "SMILES": "C(CC)(N)C1=CC=CC=C1", "physical_data": {"Molecular Weight": "135.21", "Molecular Formula": "C9H13N", "Boiling Point": "87-90 \u00b0C @ Press: 15 Torr"}}