{"cas_no": "379-50-0", "cn_name": "\u4e09\u82ef\u7532\u57fa\u6c1f\u7845\u70f7", "en_name": ["1,1\u2032,1\u2032\u2032-(Fluorosilylidyne)tris[benzene]", "Benzene, 1,1\u2032,1\u2032\u2032-(fluorosilylidyne)tris-", "Silane, fluorotriphenyl-", "1,1\u2032,1\u2032\u2032-(Fluorosilylidyne)tris[benzene]", "Trisyl fluoride", "Triphenylfluorosilane", "Triphenylsilicon fluoride", "Fluorotriphenylsilane", "Triphenylsilyl fluoride", "NSC 139863", "NSC 43086"], "SMILES": "[Si](F)(C1=CC=CC=C1)(C2=CC=CC=C2)C3=CC=CC=C3", "physical_data": {"Molecular Weight": "278.40", "Molecular Formula": "C18H15FSi", "Boiling Point": "207-210 \u00b0C @ Press: 12 Torr", "Melting Point": "61-62 \u00b0C", "Density": "1.212 g/cm\u00b3"}}