{"cas_no": "379-95-3", "cn_name": "\u4e8c\u6c1f\u4e19\u4e8c\u9178\u4e8c\u7532\u916f", "en_name": ["Propanedioic acid, 2,2-difluoro-, 1,3-dimethyl ester", "Propanedioic acid, 2,2-difluoro-, 1,3-dimethyl ester", "Malonic acid, difluoro-, dimethyl ester", "Propanedioic acid, difluoro-, dimethyl ester", "Dimethyl difluoromalonate", "Dimethyl 2,2-difluoromalonate", "1,3-Dimethyl 2,2-difluoropropanedioate"], "SMILES": "C(C(OC)=O)(C(OC)=O)(F)F", "physical_data": {"Molecular Weight": "168.10", "Molecular Formula": "C5H6F2O4", "Boiling Point": "58-59 \u00b0C @ Press: 9 Torr", "Melting Point": "~-35 \u00b0C (approx)", "Density": "1.3059 g/cm\u00b3 @ Temp: 20 \u00b0C"}}