{"cas_no": "379-52-2", "cn_name": "\u4e09\u82ef\u57fa\u6c1f\u5316\u9521", "en_name": ["Triphenyltin fluoride", "Stannane, fluorotriphenyl-", "Triphenyltin fluoride", "Tin, fluorotriphenyl-", "Fluorotriphenylstannane", "BioMeT 204", "Tin triphenylfluoride"], "SMILES": "[Sn](F)(C1=CC=CC=C1)(C2=CC=CC=C2)C3=CC=CC=C3", "physical_data": {"Molecular Weight": "369.02", "Molecular Formula": "C18H15FSn", "Melting Point": "357 \u00b0C (decomp)"}}