{"cas_no": "379-79-3", "cn_name": "\u9152\u77f3\u9178\u9ea6\u89d2\u80fa", "en_name": ["Ergotamine tartrate", "Ergotaman-3\u2032,6\u2032,18-trione, 12\u2032-hydroxy-2\u2032-methyl-5\u2032-(phenylmethyl)-, (5\u03b1)-, (2R,3R)-2,3-dihydroxybutanedioate (2:1)", "Ergotamine tartrate", "Ergotamine, tartrate (2:1) (salt)", "Ergotaman-3\u2032,6\u2032,18-trione, 12\u2032-hydroxy-2\u2032-methyl-5\u2032-(phenylmethyl)-, (5\u2032\u03b1)-, [R-(R*,R*)]-2,3-dihydroxybutanedioate (2:1) (salt)", "Ergotaman-3\u2032,6\u2032,18-trione, 12\u2032-hydroxy-2\u2032-methyl-5\u2032-(phenylmethyl)-, (5\u2032\u03b1)-, (2R,3R)-2,3-dihydroxybutanedioate (2:1) (salt)", "Gynergen", "Ergotamine bitartrate", "Gotamine tartrate", "Neo-Ergotin", "Ergam", "Rigetamin", "Ergate", "Secagyn", "Etin", "Exmigra", "Secupan", "Ergomar", "Lingraine", "Lingran", "Ergotartrat", "Gynergin", "Femergin", "Ergostat", "Medihaler ergotamine", "NSC 41869"], "SMILES": "C(C(C(O)=O)O)(C(O)=O)O.OC12N(C(CC3=CC=CC=C3)C(=O)N4C1CCC4)C(=O)C(NC(=O)C5C=C6C=7C=8C(CC6N(C)C5)=CNC8C=CC7)(C)O2", "physical_data": {"Molecular Weight": "", "Molecular Formula": "C33H35N5O5.<sup>1</sup>/2C4H6O6", "Melting Point": "203 \u00b0C (decomp)"}}