{"cas_no": "37905-08-1", "cn_name": "\u5ca9\u5927\u621f\u5185\u916fB", "en_name": ["Jolkinolide B", "Bisoxireno[1,10a:3,4]phenanthro[3,2-b]furan-9(7aH)-one, 1,2,3,4,4a,5,6,11a,11b,11c-decahydro-4,4,8,11c-tetramethyl-, (4aR,6aS,7aR,10aR,11aR,11bR,11cR)-", "Bisoxireno[1,10a:3,4]phenanthro[3,2-b]furan-9(7aH)-one, 1,2,3,4,4a,5,6,11a,11b,11c-decahydro-4,4,8,11c-tetramethyl-, [4aR-(4a\u03b1,6aS*,7a\u03b2,10aR*,11a\u03b2,11b\u03b1,11c\u03b2)]-", "(4aR,6aS,7aR,10aR,11aR,11bR,11cR)-1,2,3,4,4a,5,6,11a,11b,11c-Decahydro-4,4,8,11c-tetramethylbisoxireno[1,10a:3,4]phenanthro[3,2-b]furan-9(7aH)-one", "Jolkinolide B"], "SMILES": "CC12C3C4(C(O4)C=5C6(C3O6)OC(=O)C5C)CCC1C(C)(C)CCC2", "physical_data": {"Molecular Weight": "330.42", "Molecular Formula": "C20H26O4", "Melting Point": "213-215 \u00b0C"}}