{"cas_no": "37908-98-8", "cn_name": "3-\u6c2f-4-\u7532\u6c27\u57fa\u82ef\u7532\u9178\u7532\u916f", "en_name": ["Methyl 3-chloro-4-methoxybenzoate", "Benzoic acid, 3-chloro-4-methoxy-, methyl ester", "p-Anisic acid, 3-chloro-, methyl ester", "Methyl 3-chloro-4-methoxybenzoate", "3-Chloro-4-methoxybenzoic acid methyl ester"], "SMILES": "C(OC)(=O)C1=CC(Cl)=C(OC)C=C1", "physical_data": {"Molecular Weight": "200.62", "Molecular Formula": "C9H9ClO3", "Melting Point": "89-90 \u00b0C"}}