{"cas_no": "37904-72-6", "cn_name": "2-\u6eb4-1-(4-\u4e8c\u7532\u57fa\u6c28\u57fa\u82ef\u57fa)\u4e59\u916e", "en_name": ["2-Bromo-1-[4-(dimethylamino)phenyl]ethanone", "Ethanone, 2-bromo-1-[4-(dimethylamino)phenyl]-", "2-Bromo-1-[4-(dimethylamino)phenyl]ethanone", "\u03c9-Bromo-4-(N,N-dimethylamino)acetophenone", "2-Bromo-4-(dimethylamino)acetophenone", "p-Dimethylaminophenacyl bromide", "2-Bromo-4\u2032-(dimethylamino)acetophenone", "\u03b1-Bromo-4-(dimethylamino)acetophenone", "4-(Dimethylamino)phenacyl bromide", "2-Bromo-1-[4-(dimethylamino)phenyl]ethan-1-one"], "SMILES": "C(CBr)(=O)C1=CC=C(N(C)C)C=C1", "physical_data": {"Molecular Weight": "242.11", "Molecular Formula": "C10H12BrNO", "Melting Point": "90-92 \u00b0C"}}