{"cas_no": "37902-58-2", "cn_name": "4-\u6c27-4-\u82ef\u80fa\u57fa-2-\u4e01\u70ef\u9178", "en_name": ["4-Oxo-4-(phenylamino)-2-butenoic acid", "2-Butenoic acid, 4-oxo-4-(phenylamino)-", "4-Oxo-4-(phenylamino)-2-butenoic acid", "NSC 163935", "4-Anilino-4-oxobut-2-enoic acid"], "SMILES": "N(C(C=CC(O)=O)=O)C1=CC=CC=C1", "physical_data": {"Molecular Weight": "191.18", "Molecular Formula": "C10H9NO3", "Melting Point": "206 \u00b0C (decomp)"}}