{"cas_no": "37905-07-0", "cn_name": "\u5ca9\u5927\u621f\u5185\u916fA", "en_name": ["(4aR,6aS,7aR,11aS,11bR)-2,3,4,4a,5,6,11a,11b-Octahydro-4,4,8,11b-tetramethyl-1H-oxireno[1,10a]phenanthro[3,2-b]furan-9(7aH)-one", "1H-Oxireno[1,10a]phenanthro[3,2-b]furan-9(7aH)-one, 2,3,4,4a,5,6,11a,11b-octahydro-4,4,8,11b-tetramethyl-, (4aR,6aS,7aR,11aS,11bR)-", "1H-Oxireno[1,10a]phenanthro[3,2-b]furan-9(7aH)-one, 2,3,4,4a,5,6,11a,11b-octahydro-4,4,8,11b-tetramethyl-, [4aR-(4a\u03b1,6aS*,7a\u03b2,11a\u03b1,11b\u03b2)]-", "(4aR,6aS,7aR,11aS,11bR)-2,3,4,4a,5,6,11a,11b-Octahydro-4,4,8,11b-tetramethyl-1H-oxireno[1,10a]phenanthro[3,2-b]furan-9(7aH)-one", "Jolkinolide A"], "SMILES": "CC12C3C4(C(O4)C=5C(=C3)OC(=O)C5C)CCC1C(C)(C)CCC2", "physical_data": {"Molecular Weight": "314.42", "Molecular Formula": "C20H26O3", "Melting Point": "218-219 \u00b0C"}}