{"cas_no": "37908-96-6", "cn_name": "3-\u6c2f-4-\u7532\u6c27\u57fa\u82ef\u7532\u9178", "en_name": ["3-Chloro-4-methoxybenzoic acid", "Benzoic acid, 3-chloro-4-methoxy-", "3-Chloro-4-methoxybenzoic acid", "N-(3-Chloro-4-methoxyphenyl)carbamic acid"], "SMILES": "C(O)(=O)C1=CC(Cl)=C(OC)C=C1", "physical_data": {"Molecular Weight": "186.59", "Molecular Formula": "C8H7ClO3", "Melting Point": "213 \u00b0C"}}