{"cas_no": "3790-78-1", "cn_name": "CIS-\u6a59\u82b1\u53d4\u9187", "en_name": ["cis-Nerolidol", "1,6,10-Dodecatrien-3-ol, 3,7,11-trimethyl-, (6Z)-", "1,6,10-Dodecatrien-3-ol, 3,7,11-trimethyl-, (Z)-", "(6Z)-3,7,11-Trimethyl-1,6,10-dodecatrien-3-ol", "cis-Nerolidol", "(Z)-Nerolidol", "(\u00b1)-cis-Nerolidol", "(6Z)-3,7,11-Trimethyl-1,6,10-dodecatrien-3-ol", "(Z)-3,7,11-Trimethyl-1,6,10-dodecatrien-3-ol"], "SMILES": "C(CCC(C=C)(C)O)=C(CCC=C(C)C)C", "physical_data": {"Molecular Weight": "222.37", "Molecular Formula": "C15H26O", "Boiling Point": "123-125 \u00b0C @ Press: 4 Torr", "Density": "0.8785 g/cm\u00b3 @ Temp: 20 \u00b0C"}}