{"cas_no": "37910-77-3", "cn_name": "\u82a5\u9178\u4e59\u916f", "en_name": ["Ethyl erucate", "13-Docosenoic acid, ethyl ester, (13Z)-", "13-Docosenoic acid, ethyl ester, (Z)-", "Ethyl erucate", "(Z)-13-Docosenoic acid ethyl ester", "Erucic acid ethyl ester", "Ethyl (Z)-13-docosenoate"], "SMILES": "C(CCCCCCCCC=CCCCCCCCC)CCC(OCC)=O", "physical_data": {"Molecular Weight": "366.62", "Molecular Formula": "C24H46O2", "Boiling Point": "229-230 \u00b0C", "Melting Point": "34 \u00b0C", "Density": "0.8648 g/cm\u00b3 @ Temp: 20 \u00b0C"}}