{"cas_no": "379270-37-8", "cn_name": "\u6cf0\u8bfa\u798f\u97e6\u827e\u62c9\u915a\u80fa", "en_name": ["Tenofovir alafenamide", "L-Alanine, N-[(S)-[[(1R)-2-(6-amino-9H-purin-9-yl)-1-methylethoxy]methyl]phenoxyphosphinyl]-, 1-methylethyl ester", "GS 7340", "Tenofovir alafenamide", "4: PN: WO2016077321 SEQID: 4 claimed sequence", "Vemlidy"], "SMILES": "C(C(OCP(OC1=CC=CC=C1)(NC(C(OC(C)C)=O)C)=O)C)N2C=3C(N=C2)=C(N)N=CN3", "physical_data": {"Molecular Weight": "476.47", "Molecular Formula": "C21H29N6O5P", "Melting Point": "117-120 \u00b0C"}}