{"cas_no": "37924-85-9", "cn_name": "3-\u6eb4\u7532\u57fa-1,2-\u82ef\u5e76\u5f02\u5641\u5511", "en_name": ["3-Bromomethylbenzisoxazole", "1,2-Benzisoxazole, 3-(bromomethyl)-", "3-(Bromomethyl)-1,2-benzisoxazole", "3-Bromomethylbenzisoxazole", "3-Bromomethylbenzo[d]isoxazole"], "SMILES": "C(Br)C=1C=2C(ON1)=CC=CC2", "physical_data": {"Molecular Weight": "212.04", "Molecular Formula": "C8H6BrNO", "Melting Point": "69 \u00b0C"}}