{"cas_no": "37920-25-5", "cn_name": "4'-\u4e01\u57fa\u82ef\u4e59\u916e", "en_name": ["1-(4-Butylphenyl)ethanone", "Ethanone, 1-(4-butylphenyl)-", "Acetophenone, 4\u2032-butyl-", "1-(4-Butylphenyl)ethanone", "p-Butylacetophenone", "4\u2032-Butylacetophenone", "4-n-Butylacetophenone", "1-(4-Butylphenyl)ethan-1-one"], "SMILES": "C(C)(=O)C1=CC=C(CCCC)C=C1", "physical_data": {"Molecular Weight": "176.25", "Molecular Formula": "C12H16O", "Boiling Point": "268-270 \u00b0C @ Press: 766 Torr", "Density": "0.9862 g/cm\u00b3 @ Temp: 20 \u00b0C"}}