{"cas_no": "37934-89-7", "cn_name": "2,6-\u4e8c\u7532\u57fa-4-\u7532\u6c27\u57fa\u82ef\u7532\u9178", "en_name": ["4-Methoxy-2,6-dimethylbenzoic acid", "Benzoic acid, 4-methoxy-2,6-dimethyl-", "p-Anisic acid, 2,6-dimethyl-", "4-Methoxy-2,6-dimethylbenzoic acid", "2,6-Dimethyl-4-methoxybenzoic acid"], "SMILES": "C(O)(=O)C1=C(C)C=C(OC)C=C1C", "physical_data": {"Molecular Weight": "180.20", "Molecular Formula": "C10H12O3", "Melting Point": "144.5-145 \u00b0C"}}