{"cas_no": "37940-57-1", "cn_name": "4-\u4e19\u9170\u8054\u82ef", "en_name": ["1-[1,1\u2032-Biphenyl]-4-yl-1-propanone", "1-Propanone, 1-[1,1\u2032-biphenyl]-4-yl-", "Propiophenone, 4\u2032-phenyl-", "1-[1,1\u2032-Biphenyl]-4-yl-1-propanone", "4\u2032-Phenylpropiophenone", "p-Phenylpropiophenone", "4-Propionylbiphenyl", "4-Phenylpropiophenone", "1-(1,1\u2032-Biphenyl-4-yl)propan-1-one", "NSC 24800", "4-Propanoylbiphenyl", "1-(Biphenyl-4-yl)propan-1-one"], "SMILES": "C(CC)(=O)C1=CC=C(C=C1)C2=CC=CC=C2", "physical_data": {"Molecular Weight": "210.27", "Molecular Formula": "C15H14O", "Boiling Point": "280-300 \u00b0C @ Press: 18 Torr", "Melting Point": "97 \u00b0C"}}