{"cas_no": "37943-90-1", "cn_name": "\u4e8c\u82ef\u57fa-2-\u5421\u5576\u81a6", "en_name": ["2-(Diphenylphosphino)pyridine", "Pyridine, 2-(diphenylphosphino)-", "2-(Diphenylphosphino)pyridine", "Diphenyl-2-pyridylphosphine", "2-Pyridyldiphenylphosphine", "Diphenyl(2-pyridinyl)phosphine", "Diphenyl(2-pyridyl)phosphane", "2-(Diphenylphosphanyl)pyridine", "2-Diphenylphosphanyl-pyridine"], "SMILES": "P(C1=CC=CC=C1)(C2=CC=CC=C2)C3=CC=CC=N3", "physical_data": {"Molecular Weight": "263.27", "Molecular Formula": "C17H14NP", "Boiling Point": "163 \u00b0C @ Press: 0.05 Torr", "Melting Point": "85 \u00b0C"}}