{"cas_no": "37942-07-7", "cn_name": "3,5-\u4e8c\u53d4\u4e01\u57fa\u6c34\u6768\u919b", "en_name": ["3,5-Di-tert-butylsalicylaldehyde", "Benzaldehyde, 3,5-bis(1,1-dimethylethyl)-2-hydroxy-", "Salicylaldehyde, 3,5-di-tert-butyl-", "3,5-Bis(1,1-dimethylethyl)-2-hydroxybenzaldehyde", "2-Hydroxy-3,5-di-tert-butylbenzaldehyde", "3,5-Di-tert-butylsalicylaldehyde", "3,5-Di-tert-butyl-2-hydroxybenzaldehyde", "3,5-Di-tert-butylsalicylic aldehyde", "3,5-Bis(tert-butyl)salicylaldehyde", "3,5-Di-t-butylsalicylaldehyde", "3,5-Di-t-butyl-2-hydroxybenzaldehyde", "3,5-tert-Butyl-2-hydroxybenzaldehyde", "2-Hydroxy-3,5-bis(tert-butyl)benzaldehyde", "3,5-Bis-tert-butyl-2-hydroxybenzaldehyde", "3,5-Ditert-butyl-2-hydroxybenzaldehyde"], "SMILES": "C(C)(C)(C)C1=CC(C(C)(C)C)=CC(C=O)=C1O", "physical_data": {"Molecular Weight": "234.33", "Molecular Formula": "C15H22O2", "Boiling Point": "114-116 \u00b0C @ Press: 1 Torr", "Melting Point": "61.5-63 \u00b0C"}}