{"cas_no": "3794-64-7", "cn_name": "\u4e03\u6c1f\u4e01\u9178\u94f6", "en_name": ["Silver heptafluorobutyrate", "Butanoic acid, 2,2,3,3,4,4,4-heptafluoro-, silver(1+) salt (1:1)", "Butyric acid, heptafluoro-, silver(1+) salt", "Butanoic acid, heptafluoro-, silver(1+) salt", "2,2,3,3,4,4,4-Heptafluorobutyric acid, silver(1+) salt", "Silver heptafluorobutanoate", "Silver perfluorobutanoate", "Silver heptafluorobutyrate", "Silver perfluorobutyrate", "Silver(I) perfluorobutyrate", "Silver(1+) heptafluorobutanoate", "Silver(I) heptafluorobutyrate", "Silver(1+) heptafluorobutyrate", "Silver(I) perfluorobutanoate", "Silver(I) heptafluorobutanoate"], "SMILES": "C(C(C(O)=O)(F)F)(C(F)(F)F)(F)F.[Ag]", "physical_data": {"Molecular Weight": "", "Molecular Formula": "C4HF7O2.Ag", "Melting Point": "292-294 \u00b0C"}}