{"cas_no": "37942-01-1", "cn_name": "5-\u6eb4-2-\u7532\u6c27\u57fa\u82ef\u915a", "en_name": ["5-Bromo-2-methoxyphenol", "Phenol, 5-bromo-2-methoxy-", "5-Bromo-2-methoxyphenol", "2-Methoxy-5-bromophenol", "3-Hydroxy-4-methoxybromobenzene"], "SMILES": "O(C)C1=C(O)C=C(Br)C=C1", "physical_data": {"Molecular Weight": "203.03", "Molecular Formula": "C7H7BrO2", "Boiling Point": "150 \u00b0C @ Press: 20 Torr", "Melting Point": "62-65 \u00b0C"}}