{"cas_no": "37951-13-6", "cn_name": "(E)-1-(2-\u7f9f\u57fa-4,6-\u4e8c\u7532\u6c27\u57fa\u82ef\u57fa)-3-(4-\u7532\u6c27\u57fa\u82ef\u57fa)-2-\u4e19\u70ef-1-\u916e", "en_name": ["Flavokawain A", "2-Propen-1-one, 1-(2-hydroxy-4,6-dimethoxyphenyl)-3-(4-methoxyphenyl)-, (2E)-", "2-Propen-1-one, 1-(2-hydroxy-4,6-dimethoxyphenyl)-3-(4-methoxyphenyl)-, (E)-", "(2E)-1-(2-Hydroxy-4,6-dimethoxyphenyl)-3-(4-methoxyphenyl)-2-propen-1-one", "Flavokawain A", "Flavokavin A", "4-Methoxyflavokawain B", "(E)-1-(2-Hydroxy-4,6-dimethoxyphenyl)-3-(4-methoxyphenyl)prop-2-en-1-one"], "SMILES": "O(C)C1=C(C(C=CC2=CC=C(OC)C=C2)=O)C(O)=CC(OC)=C1", "physical_data": {"Molecular Weight": "314.33", "Molecular Formula": "C18H18O5", "Melting Point": "109-110 \u00b0C"}}