{"cas_no": "37951-49-8", "cn_name": "\u95f4\u7532\u6c27\u57fa\u82ef\u4e19\u916e", "en_name": ["3\u2032-Methoxypropiophenone", "1-Propanone, 1-(3-methoxyphenyl)-", "1-(3-Methoxyphenyl)-1-propanone", "3\u2032-Methoxypropiophenone", "m-Methoxypropiophenone", "3-Methoxyphenyl ethyl ketone"], "SMILES": "C(CC)(=O)C1=CC(OC)=CC=C1", "physical_data": {"Molecular Weight": "164.20", "Molecular Formula": "C10H12O2", "Boiling Point": "259 \u00b0C"}}