{"cas_no": "37951-15-8", "cn_name": "4-\u82ef\u6c27\u57fa-1,2-\u82ef\u4e8c\u7532\u9178", "en_name": ["4-Phenoxyphthalic acid", "1,2-Benzenedicarboxylic acid, 4-phenoxy-", "4-Phenoxy-1,2-benzenedicarboxylic acid", "4-Phenoxyphthalic acid"], "SMILES": "C(O)(=O)C1=C(C(O)=O)C=CC(OC2=CC=CC=C2)=C1", "physical_data": {"Molecular Weight": "258.23", "Molecular Formula": "C14H10O5", "Melting Point": "170-173 \u00b0C"}}