{"cas_no": "3796-70-1", "cn_name": "\u9999\u53f6\u57fa\u4e19\u916e", "en_name": ["Geranylacetone", "5,9-Undecadien-2-one, 6,10-dimethyl-, (5E)-", "5,9-Undecadien-2-one, 6,10-dimethyl-, (E)-", "(5E)-6,10-Dimethyl-5,9-undecadien-2-one", "Geranylacetone", "trans-Geranylacetone", "(E)-6,10-Dimethyl-5,9-undecadien-2-one", "trans-6,10-Dimethyl-5,9-undecadien-2-one", "(E)-Geranylacetone", "6,10-Dimethyl-(E)-5,9-undecadien-2-one", "Ethanol, 2-(acetylsulfonyl)-, 1-acetate"], "SMILES": "C(CCC=C(C)C)(=CCCC(C)=O)C", "physical_data": {"Molecular Weight": "194.31", "Molecular Formula": "C13H22O", "Boiling Point": "126-128 \u00b0C @ Press: 10 Torr", "Density": "0.8698 g/cm\u00b3 @ Temp: 20 \u00b0C"}}