{"cas_no": "3796-24-5", "cn_name": "4-\u4e09\u6c1f\u7532\u57fa\u5421\u5576", "en_name": ["4-(Trifluoromethyl)pyridine", "Pyridine, 4-(trifluoromethyl)-", "4-(Trifluoromethyl)pyridine"], "SMILES": "C(F)(F)(F)C=1C=CN=CC1", "physical_data": {"Molecular Weight": "147.10", "Molecular Formula": "C6H4F3N", "Boiling Point": "108-110 \u00b0C"}}