{"cas_no": "3796-23-4", "cn_name": "3-\u4e09\u6c1f\u7532\u57fa\u5421\u5576", "en_name": ["3-(Trifluoromethyl)pyridine", "Pyridine, 3-(trifluoromethyl)-", "3-(Trifluoromethyl)pyridine", "5-(Trifluoromethyl)pyridine"], "SMILES": "C(F)(F)(F)C=1C=CC=NC1", "physical_data": {"Molecular Weight": "147.10", "Molecular Formula": "C6H4F3N", "Boiling Point": "114 \u00b0C"}}