{"cas_no": "37964-17-3", "cn_name": "1H-\u5421\u54af-3-\u7fa7\u9178\u4e59\u916f", "en_name": ["1H-Pyrrole-3-carboxylic acid, ethyl ester", "1H-Pyrrole-3-carboxylic acid, ethyl ester", "3-Carbethoxypyrrole", "Ethyl pyrrole-3-carboxylate", "Ethyl 1H-pyrrole-3-carboxylate"], "SMILES": "C(OCC)(=O)C=1C=CNC1", "physical_data": {"Molecular Weight": "139.15", "Molecular Formula": "C7H9NO2", "Melting Point": "118 \u00b0C"}}