{"cas_no": "37972-24-0", "cn_name": "2-\u4e59\u7094\u57fa\u5627\u5576", "en_name": ["2-Ethynylpyrimidine", "Pyrimidine, 2-ethynyl-", "2-Ethynylpyrimidine"], "SMILES": "C(#C)C=1N=CC=CN1", "physical_data": {"Molecular Weight": "104.11", "Molecular Formula": "C6H4N2", "Melting Point": "95-96 \u00b0C"}}