{"cas_no": "37988-38-8", "cn_name": "2-\u5421\u5576-2-\u4e19\u9187", "en_name": ["\u03b1,\u03b1-Dimethyl-2-pyridinemethanol", "2-Pyridinemethanol, \u03b1,\u03b1-dimethyl-", "\u03b1,\u03b1-Dimethyl-2-pyridinemethanol", "2-Pyridyldimethylcarbinol", "2-(1-Hydroxy-1-methylethyl)pyridine", "2-(2-Pyridyl)-2-propanol", "2-(2-Pyridinyl)-2-propanol", "\u03b1,\u03b1-Dimethyl-2-pyridylmethanol", "Dimethyl(2-pyridyl)methanol"], "SMILES": "C(C)(C)(O)C1=CC=CC=N1", "physical_data": {"Molecular Weight": "137.18", "Molecular Formula": "C8H11NO", "Boiling Point": "203-205 \u00b0C", "Melting Point": "49-50 \u00b0C"}}