{"cas_no": "37993-32-1", "cn_name": "1-\u6c28\u57fa\u73af\u5df1\u70f7\u7fa7\u9178\u7532\u916f\u76d0\u9178\u76d0", "en_name": ["Cyclohexanecarboxylic acid, 1-amino-, methyl ester, hydrochloride (1:1)", "Cyclohexanecarboxylic acid, 1-amino-, methyl ester, hydrochloride (1:1)", "Cyclohexanecarboxylic acid, 1-amino-, methyl ester, hydrochloride", "Methyl 1-aminocyclohexanecarboxylate hydrochloride", "1-Aminocyclohexanecarboxylic acid methyl ester hydrochloride"], "SMILES": "C(OC)(=O)C1(N)CCCCC1.Cl", "physical_data": {"Molecular Weight": "", "Molecular Formula": "C8H15NO2.ClH", "Melting Point": "210-212 \u00b0C"}}