{"cas_no": "380-86-9", "cn_name": "2,2-\u4e8c\u6c1f\u620a\u4e8c\u9178", "en_name": ["2,2-Difluoropentanedioic acid", "Pentanedioic acid, 2,2-difluoro-", "Glutaric acid, 2,2-difluoro-", "2,2-Difluoropentanedioic acid"], "SMILES": "C(CCC(O)=O)(C(O)=O)(F)F", "physical_data": {"Molecular Weight": "168.10", "Molecular Formula": "C5H6F2O4", "Melting Point": "103-105 \u00b0C"}}