{"cas_no": "3800-06-4", "cn_name": "2-\u6c28\u57fa-4'-\u6c1f\u4e8c\u82ef\u7532\u916e", "en_name": ["2\u2032-Amino-4-fluorobenzophenone", "Methanone, (2-aminophenyl)(4-fluorophenyl)-", "Benzophenone, 2-amino-4\u2032-fluoro-", "(2-Aminophenyl)(4-fluorophenyl)methanone", "o-(p-Fluorobenzoyl)aniline", "2-Amino-4\u2032-fluorobenzophenone", "2-Aminophenyl 4-fluorophenyl ketone", "4\u2032-Fluoro-2-aminobenzophenone", "2\u2032-Amino-4-fluorobenzophenone", "2-(4-Fluorobenzoyl)aniline"], "SMILES": "C(=O)(C1=C(N)C=CC=C1)C2=CC=C(F)C=C2", "physical_data": {"Molecular Weight": "215.22", "Molecular Formula": "C13H10FNO", "Melting Point": "127-128 \u00b0C"}}