{"cas_no": "38002-45-8", "cn_name": "3-\u6eb4-1-\u4e09\u7532\u57fa\u7845\u57fa-1-\u4e19\u7094", "en_name": ["(3-Bromo-1-propyn-1-yl)trimethylsilane", "Silane, (3-bromo-1-propyn-1-yl)trimethyl-", "Silane, (3-bromo-1-propynyl)trimethyl-", "(3-Bromo-1-propyn-1-yl)trimethylsilane", "(3-Bromo-1-propynyl)trimethylsilane", "3-(Trimethylsilyl)propargyl bromide", "1-(Trimethylsilyl)-3-bromopropyne", "3-Bromo-1-(trimethylsilyl)propyne", "1-Bromo-3-trimethylsilyl-2-propyne", "3-Bromo-1-(trimethylsilyl)-1-propyne", "(Trimethylsilyl)propargyl bromide", "(Bromomethyl)(trimethylsilyl)acetylene", "3-Trimethylsilyl-2-propynyl bromide", "1-Bromo-3-trimethylsilylyprop-2-yne", "3-Bromo-1-(trimethylsily)-1-propyne", "3-Trimethylsilyl-1-bromo-2-propyne"], "SMILES": "C([Si](C)(C)C)#CCBr", "physical_data": {"Molecular Weight": "191.14", "Molecular Formula": "C6H11BrSi", "Boiling Point": "44-45 \u00b0C @ Press: 2 Torr", "Density": "1.351 g/cm\u00b3"}}