{"cas_no": "3801-06-7", "cn_name": "\u6c1f\u7c73\u9f99\u918b\u9178\u916f", "en_name": ["Fluorometholone acetate", "Pregna-1,4-diene-3,20-dione, 17-(acetyloxy)-9-fluoro-11-hydroxy-6-methyl-, (6\u03b1,11\u03b2)-", "Pregna-1,4-diene-3,20-dione, 9-fluoro-11\u03b2,17-dihydroxy-6\u03b1-methyl-, 17-acetate", "(6\u03b1,11\u03b2)-17-(Acetyloxy)-9-fluoro-11-hydroxy-6-methylpregna-1,4-diene-3,20-dione", "U 17323", "6\u03b1-Methyl-9\u03b1-fluoro-17-acetoxy-21-deoxyprednisolone", "Oxylone acetate", "6\u03b1-Methyl-9\u03b1-fluoro-21-desoxyprednisolone-17-acetate", "Fluorometholone acetate", "Flarex", "NSC 47438", "Eflone"], "SMILES": "FC12C(C3C(C)(CC1O)C(OC(C)=O)(C(C)=O)CC3)CC(C)C=4C2(C)C=CC(=O)C4", "physical_data": {"Molecular Weight": "418.50", "Molecular Formula": "C24H31FO5", "Melting Point": "292-303 \u00b0C"}}