{"cas_no": "3801-89-6", "cn_name": "1-(3-\u6c1f\u82ef\u57fa)\u54cc\u55ea", "en_name": ["1-(3-Fluorophenyl)piperazine", "Piperazine, 1-(3-fluorophenyl)-", "Piperazine, 1-(m-fluorophenyl)-", "1-(3-Fluorophenyl)piperazine", "N-(3-Fluorophenyl)piperazine", "1-(m-Fluorophenyl)piperazine", "4-(3-Fluorophenyl)piperazine"], "SMILES": "FC=1C=C(C=CC1)N2CCNCC2", "physical_data": {"Molecular Weight": "180.22", "Molecular Formula": "C10H13FN2", "Boiling Point": "145-155 \u00b0C @ Press: 3 Torr"}}