{"cas_no": "38028-67-0", "cn_name": "2-\u4e59\u6c27\u57fa\u5421\u55ea", "en_name": ["2-Ethoxypyrazine", "Pyrazine, 2-ethoxy-", "Pyrazine, ethoxy-", "2-Ethoxypyrazine", "Ethoxypyrazine"], "SMILES": "O(CC)C=1C=NC=CN1", "physical_data": {"Molecular Weight": "124.14", "Molecular Formula": "C6H8N2O", "Boiling Point": "72-73 \u00b0C @ Press: 30 Torr"}}