{"cas_no": "38026-46-9", "cn_name": "5-\u4e59\u916f\u57fa-2-\u786b\u4ee3\u5c3f\u5627\u5576", "en_name": ["Ethyl 1,2,3,4-tetrahydro-4-oxo-2-thioxo-5-pyrimidinecarboxylate", "5-Pyrimidinecarboxylic acid, 1,2,3,4-tetrahydro-4-oxo-2-thioxo-, ethyl ester", "5-Pyrimidinecarboxylic acid, 1,2,3,4-tetrahydro-4-oxo-2-thio-, ethyl ester", "Ethyl 1,2,3,4-tetrahydro-4-oxo-2-thioxo-5-pyrimidinecarboxylate", "Ethyl 2-mercapto-4-hydroxypyrimidine-5-carboxylate", "2-Mercapto-5-carbethoxyuracil", "5-Carbethoxy-2-thiouracil", "NSC 11999", "NSC 1584", "Ethyl 2-mercapto-6-oxo-1,6-dihydropyrimidine-5-carboxylate"], "SMILES": "C(OCC)(=O)C=1C(=O)NC(=S)NC1", "physical_data": {"Molecular Weight": "200.21", "Molecular Formula": "C7H8N2O3S", "Melting Point": "252 \u00b0C"}}