{"cas_no": "380380-60-9", "cn_name": "5-(5-\u6eb4\u5421\u5576)\u56db\u6c2e\u5511", "en_name": ["5-Bromo-2-(2H-tetrazol-5-yl)pyridine", "Pyridine, 5-bromo-2-(2H-tetrazol-5-yl)-", "Pyridine, 5-bromo-2-(1H-tetrazol-5-yl)-", "5-Bromo-2-(2H-tetrazol-5-yl)pyridine", "2-(5-Tetrazolyl)-5-bromopyridine", "5-Bromo-2-(tetrazol-5-yl)pyridine", "2-(1,2,3,4-Tetrazol-5-yl)-5-bromopyridine"], "SMILES": "BrC1=CC=C(N=C1)C=2NN=NN2", "physical_data": {"Molecular Weight": "226.03", "Molecular Formula": "C6H4BrN5", "Melting Point": "228 \u00b0C"}}