{"cas_no": "380380-63-2", "cn_name": "\u7279\u5730\u5511\u80fa\u4e2d\u95f4\u4f53\u5f02\u6784\u4f53", "en_name": ["5-Bromo-2-(1-methyl-1H-tetrazol-5-yl)pyridine", "Pyridine, 5-bromo-2-(1-methyl-1H-tetrazol-5-yl)-", "5-Bromo-2-(1-methyl-1H-tetrazol-5-yl)pyridine", "2-(1-Methyl-5-tetrazolyl)-5-bromopyridine", "1-Methyl-5-(5-bromopyridin-2-yl)tetrazole", "2-(1-Methyl-1,2,3,4-tetrazol-5-yl)-5-bromopyridine"], "SMILES": "CN1C(=NN=N1)C2=CC=C(Br)C=N2", "physical_data": {"Molecular Weight": "240.06", "Molecular Formula": "C7H6BrN5", "Melting Point": "163-165 \u00b0C"}}