{"cas_no": "38030-57-8", "cn_name": "4-KETO\u5168\u53cd\u5f0f\u7ef4\u7532\u9178", "en_name": ["4-Oxoretinoic acid", "Retinoic acid, 4-oxo-", "4-Oxoretinoic acid", "all-trans-4-Oxoretinoic acid", "4-Ketoretinoic acid", "Ro 12-4824", "4-Oxo-all-trans-retinoic acid", "4-keto-Retinoic acid", "4-Oxotretinoin", "Ro 11-4824", "4-Oxo-atRA"], "SMILES": "C(=CC(=CC=CC(=CC(O)=O)C)C)C=1C(C)(C)CCC(=O)C1C", "physical_data": {"Molecular Weight": "314.42", "Molecular Formula": "C20H26O3", "Melting Point": "175-179 \u00b0C"}}