{"cas_no": "38048-32-7", "cn_name": "S-(4-\u785d\u57fa\u82c4\u57fa)-6-\u786b\u4ee3\u808c\u82f7", "en_name": ["S-(4-Nitrobenzyl)-6-thioinosine", "Inosine, 6-S-[(4-nitrophenyl)methyl]-6-thio-", "6-S-[(4-Nitrophenyl)methyl]-6-thioinosine", "6-[(4-Nitrobenzyl)thio]-9-\u03b2-D-ribofuranosylpurine", "S-(p-Nitrobenzyl)-6-mercapto-9-\u03b2-D-ribofuranosylpurine", "S-(4-Nitrobenzyl)-6-thioinosine", "NSC 296962", "NBMPR", "6-[(4-Nitrobenzyl)thio)inosine", "2-(Hydroxymethyl)-5-[6-[(4-nitrophenyl)methylsulfanyl]purin-9-yl]oxolane-3,4-diol", "2-(Hydroxymethyl)-5-[6-[(4-nitrophenyl)methylthio]purin-9-yl]oxolane-3,4-diol"], "SMILES": "OC1C(N2C=3C(N=C2)=C(SCC4=CC=C(N(=O)=O)C=C4)N=CN3)OC(CO)C1O", "physical_data": {"Molecular Weight": "419.41", "Molecular Formula": "C17H17N5O6S", "Melting Point": "197-198 \u00b0C", "Density": "1.49 g/cm\u00b3"}}