{"cas_no": "38049-26-2", "cn_name": "\u4e8c\u6c22\u9999\u82b9\u9187", "en_name": ["Dihydrocarveol", "Cyclohexanol, 2-methyl-5-(1-methylethenyl)-, (1R,2R,5R)-rel-", "Cyclohexanol, 2-methyl-5-(1-methylethenyl)-, (1\u03b1,2\u03b2,5\u03b1)-", "rel-(1R,2R,5R)-2-Methyl-5-(1-methylethenyl)cyclohexanol", "p-Menth-8-en-2-ol", "Dihydrocarveol", "Carveol, dihydro-", "Cyclohexanol, 2-methyl-5-(1-methylethenyl)-, (1\u03b1,2\u03b2,5\u03b1)-(\u00b1)-", "(\u00b1)-trans-Dihydrocarveol"], "SMILES": "C(C)(=C)C1CC(O)C(C)CC1", "physical_data": {"Molecular Weight": "154.25", "Molecular Formula": "C10H18O", "Boiling Point": "98 \u00b0C @ Press: 9 Torr", "Density": "0.9210 g/cm\u00b3 @ Temp: 20 \u00b0C"}}