{"cas_no": "3804-70-4", "cn_name": "\u4e8c\u6c22\u5c71\u82b9\u9187", "en_name": ["(+)-Columbianetin", "2H-Furo[2,3-h]-1-benzopyran-2-one, 8,9-dihydro-8-(1-hydroxy-1-methylethyl)-, (8S)-", "2H-Furo[2,3-h]-1-benzopyran-2-one, 8,9-dihydro-8-(1-hydroxy-1-methylethyl)-, (S)-(+)-", "Columbianetin", "2H-Furo[2,3-h]-1-benzopyran-2-one, 8,9-dihydro-8-(1-hydroxy-1-methylethyl)-, (S)-", "(8S)-8,9-Dihydro-8-(1-hydroxy-1-methylethyl)-2H-furo[2,3-h]-1-benzopyran-2-one", "(+)-Columbianetin", "(8S)-8-(2-Hydroxypropan-2-yl)-8,9-dihydrofuro[2,3-h]chromen-2-one"], "SMILES": "C(C)(C)(O)C1CC=2C3=C(C=CC2O1)C=CC(=O)O3", "physical_data": {"Molecular Weight": "246.26", "Molecular Formula": "C14H14O4", "Melting Point": "143-145 \u00b0C"}}