{"cas_no": "38051-57-9", "cn_name": "\u7678\u57fa\u4e8c\u7532\u57fa\u6c2f\u7845\u70f7", "en_name": ["Chlorodecyldimethylsilane", "Silane, chlorodecyldimethyl-", "Chlorodecyldimethylsilane", "Dimethyldecylchlorosilane", "Decyldimethylchlorosilane", "n-Decyldimethylchlorosilane", "Decyldimethylsilyl chloride", "Chlorodimethyldecylsilane"], "SMILES": "C(CCCCCCCC)C[Si](C)(C)Cl", "physical_data": {"Molecular Weight": "234.88", "Molecular Formula": "C12H27ClSi", "Boiling Point": "98 \u00b0C @ Press: 2 Torr", "Density": "0.866 g/cm\u00b3"}}