{"cas_no": "38050-71-4", "cn_name": "8-\u7532\u6c27\u57fa-9-\u787c\u6742\u53cc\u73af[3,3,1]\u58ec\u70f7", "en_name": ["9-Methoxy-9-borabicyclo[3.3.1]nonane", "9-Borabicyclo[3.3.1]nonane, 9-methoxy-", "9-Methoxy-9-borabicyclo[3.3.1]nonane", "B-Methoxy-9-borabicyclo[3.3.1]nonane", "B-Methoxy-9-borabicyclo[3.3.1]nonane", "9-Methoxy-BBN", "B-Methoxy-9-BBN", "9-MeO-9-BBN", "9-Methoxy-9-BBN"], "SMILES": "O(C)B1C2CCCC1CCC2", "physical_data": {"Molecular Weight": "152.04", "Molecular Formula": "C9H17BO", "Boiling Point": "57-58 \u00b0C @ Press: 7 Torr"}}