{"cas_no": "38053-91-7", "cn_name": "2-\u4e09\u7532\u57fa\u7845\u6c27\u57fa-1,3-\u4e01\u4e8c\u70ef", "en_name": ["2-(Trimethylsilyloxy)-1,3-butadiene", "Silane, trimethyl[(1-methylene-2-propen-1-yl)oxy]-", "Silane, trimethyl[(1-methylene-2-propenyl)oxy]-", "Trimethyl[(1-methylene-2-propen-1-yl)oxy]silane", "2-(Trimethylsiloxy)-1,3-butadiene", "2-(Trimethylsilyloxy)-1,3-butadiene", "2-Trimethylsilyloxybutadiene", "3-Trimethylsiloxy-1,3-butadiene", "Trimethyl[(1-methylene-2-propenyl)oxy]silane", "Trimethyl[(1-methyleneprop-2-en-1-yl)oxy]silane", "(Buta-1,3-dien-2-yloxy)trimethylsilane", "Trimethyl(1-methyleneallyloxy)silane"], "SMILES": "O([Si](C)(C)C)C(C=C)=C", "physical_data": {"Molecular Weight": "142.27", "Molecular Formula": "C7H14OSi", "Boiling Point": "50-55 \u00b0C @ Press: 50 Torr", "Density": "0.807 g/cm\u00b3"}}