{"cas_no": "38064-90-3", "cn_name": "2,4-\u4e8c\u7532\u6c27\u57fa\u7532\u82ef", "en_name": ["2,4-Dimethoxytoluene", "Benzene, 2,4-dimethoxy-1-methyl-", "Toluene, 2,4-dimethoxy-", "2,4-Dimethoxy-1-methylbenzene", "2,4-Dimethoxytoluene", "4-Methylresorcinol dimethyl ether", "1,3-Dimethoxy-4-methylbenzene", "1-Methyl-2,4-dimethoxybenzene", "4-Methyl-1,3-dimethoxybenzene", "NSC 72351"], "SMILES": "O(C)C1=CC(OC)=CC=C1C", "physical_data": {"Molecular Weight": "152.19", "Molecular Formula": "C9H12O2", "Boiling Point": "110-120 \u00b0C"}}