{"cas_no": "3806-34-6", "cn_name": "\u6297\u6c27\u5242 618", "en_name": ["Distearyl pentaerythritol diphosphite", "2,4,8,10-Tetraoxa-3,9-diphosphaspiro[5.5]undecane, 3,9-bis(octadecyloxy)-", "Phosphorous acid, cyclic neopentanetetrayl dioctadecyl ester", "Phosphorous acid, octadecyl ester, cyclic diester with pentaerythritol", "Phosphorous acid, dicyclic ester with pentaerythritol, dioctadecyl ester", "Pentaerythritol, cyclic bis(octadecyl phosphite)", "3,9-Bis(octadecyloxy)-2,4,8,10-tetraoxa-3,9-diphosphaspiro[5.5]undecane", "Distearyl pentaerythritol diphosphite", "Weston 618", "Pentaerythritol bis(octadecyl) diphosphite", "Distearyl pentaerythrityl diphosphite", "Cyclic neopentanetetraylbis(octadecyl phosphite)", "Weston WX 618", "Dioctadecyl pentaerythritol diphosphite", "P 1 (antioxidant)", "Pentaerythritol bis(stearyl phosphite)", "Mark PEP 8", "PEP 8", "HI-M-P", "Weston MDW 618", "Distearyl pentaerythritol disphosphite", "JPP 2000", "Mark PEP 8F", "Doverphos S 680", "Phos 4", "Pentaerythritol bis(octadecyl phosphite)", "ADK Stab PEP 8", "Weston 618F", "AO 118", "Antioxidant 118", "ADK Stab PEP 8F", "Dioctadecyl pentaerythritol diphosphonite", "Weston 619F", "Antioxidant 618", "619F", "PEP 8T", "Heat Stabilizer 618", "S 682F", "Songnox 6180", "Antioxidant 619", "Bis(octadecyl) pentaerythritol diphosphite", "3,9-Dioctadecoxy-2,4,8,10-tetraoxa-3,9-diphosphaspiro[5.5]undecane", "Jyanox 618", "Chemfos 619", "Yiphos 3019"], "SMILES": "O(CCCCCCCCCCCCCCCCCC)P1OCC2(COP(OCCCCCCCCCCCCCCCCCC)OC2)CO1", "physical_data": {"Molecular Weight": "733.03", "Molecular Formula": "C41H82O6P2", "Melting Point": "40 \u00b0C"}}