{"cas_no": "3806-59-5", "cn_name": "1\uff0c3-\u73af\u8f9b\u4e8c\u70ef", "en_name": ["1,3-Cyclooctadiene", "1,3-Cyclooctadiene", "NSC 105773", "NSC 72422", "cis,cis-1,3-Cyclooctadiene", "(Z,Z)-Cycloocta-1,3-diene"], "SMILES": "C1CCC=CC=CC1", "physical_data": {"Molecular Weight": "108.18", "Molecular Formula": "C8H12", "Boiling Point": "48 \u00b0C @ Press: 25 Torr", "Melting Point": "-57.5-55 \u00b0C", "Density": "0.8699 g/cm\u00b3 @ Temp: 25 \u00b0C"}}