{"cas_no": "38066-16-9", "cn_name": "\u4e8c\u4e59\u57fa(\u82ef\u57fa\u786b\u4ee3\u7532\u57fa)\u78f7\u9178\u916f", "en_name": ["Diethyl P-[(phenylthio)methyl]phosphonate", "Phosphonic acid, P-[(phenylthio)methyl]-, diethyl ester", "Phosphonic acid, [(phenylthio)methyl]-, diethyl ester", "Diethyl P-[(phenylthio)methyl]phosphonate", "Diethyl [(phenylthio)methyl]phosphonate", "Diethyl phenylthiomethanephosphonate", "[(Phenylthio)methyl]phosphonic acid diethyl ester", "NSC 202497"], "SMILES": "P(CSC1=CC=CC=C1)(OCC)(OCC)=O", "physical_data": {"Molecular Weight": "260.29", "Molecular Formula": "C11H17O3PS", "Boiling Point": "177-179 \u00b0C @ Press: 7 Torr"}}