{"cas_no": "38076-81-2", "cn_name": "2-\u7f9f\u57fa-4-\u7532\u57fa\u70df\u9178", "en_name": ["1,2-Dihydro-4-methyl-2-oxo-3-pyridinecarboxylic acid", "3-Pyridinecarboxylic acid, 1,2-dihydro-4-methyl-2-oxo-", "1,2-Dihydro-4-methyl-2-oxo-3-pyridinecarboxylic acid", "2-Hydroxy-4-methylnicotinic acid", "2-Hydroxy-4-methyl-3-pyridinecarboxylic acid", "4-Methyl-2-oxo-1,2-dihydro-3-pyridinecarboxylic acid", "4-Methyl-1,2-dihydro-2-oxopyridine-3-carboxylic acid"], "SMILES": "C(O)(=O)C1=C(C)C=CNC1=O", "physical_data": {"Molecular Weight": "153.14", "Molecular Formula": "C7H7NO3", "Melting Point": "247 \u00b0C"}}