{"cas_no": "38078-09-0", "cn_name": "\u4e8c\u4e59\u80fa\u57fa\u4e09\u6c1f\u5316\u786b(DAST)", "en_name": ["(Diethylamino)sulfur trifluoride", "Sulfur, (N-ethylethanaminato)trifluoro-, (T-4)-", "Ethanamine, N-ethyl-, sulfur complex", "(T-4)-(N-Ethylethanaminato)trifluorosulfur", "Trifluoro(diethylamino)sulfur", "(Diethylamino)sulfur trifluoride", "DAST", "(Diethylamino)trifluorosulfur", "(Diethylamino)sulphur trifluoride", "(N,N-Diethylamino)sulfur trifluoride", "DAST (fluorinating agent)", "Diethylaminosulfate trifluoride"], "SMILES": "N(S(F)(F)F)(CC)CC", "physical_data": {"Molecular Weight": "161.19", "Molecular Formula": "C4H10F3NS", "Boiling Point": "46-47 \u00b0C @ Press: 9.8 Torr"}}