{"cas_no": "3808-87-5", "cn_name": "\u53cc(2,4,5-\u4e09\u6c2f\u82ef\u57fa)\u4e8c\u786b\u5316\u7269", "en_name": ["Bis(2,4,5-trichlorophenyl) disulfide", "Disulfide, bis(2,4,5-trichlorophenyl)", "Bis(2,4,5-trichlorophenyl) disulfide", "NSC 238936", "NSC 677440", "1,2,4-Trichloro-5-[(2,4,5-trichlorophenyl)disulfanyl]benzene", "2,4,5-Trichlorophenyl disulfide"], "SMILES": "S(SC1=C(Cl)C=C(Cl)C(Cl)=C1)C2=C(Cl)C=C(Cl)C(Cl)=C2", "physical_data": {"Molecular Weight": "425.01", "Molecular Formula": "C12H4Cl6S2", "Melting Point": "148 \u00b0C"}}