{"cas_no": "380843-75-4", "cn_name": "\u4f2f\u8212\u66ff\u5c3c", "en_name": ["Bosutinib", "3-Quinolinecarbonitrile, 4-[(2,4-dichloro-5-methoxyphenyl)amino]-6-methoxy-7-[3-(4-methyl-1-piperazinyl)propoxy]-", "4-[(2,4-Dichloro-5-methoxyphenyl)amino]-6-methoxy-7-[3-(4-methyl-1-piperazinyl)propoxy]-3-quinolinecarbonitrile", "SKI 606", "Bosutinib", "SK 606", "Bosulif", "KIN 001-160"], "SMILES": "N(C=1C2=C(C=C(OCCCN3CCN(C)CC3)C(OC)=C2)N=CC1C#N)C4=CC(OC)=C(Cl)C=C4Cl", "physical_data": {"Molecular Weight": "530.45", "Molecular Formula": "C26H29Cl2N5O3", "Melting Point": "116-120 \u00b0C"}}