{"cas_no": "38092-89-6", "cn_name": "\u6c2f\u96f7\u4ed6\u5b9aEP\u6742\u8d28G", "en_name": ["N-Methyldesloratadine", "5H-Benzo[5,6]cyclohepta[1,2-b]pyridine, 8-chloro-6,11-dihydro-11-(1-methyl-4-piperidinylidene)-", "8-Chloro-6,11-dihydro-11-(1-methyl-4-piperidinylidene)-5H-benzo[5,6]cyclohepta[1,2-b]pyridine", "N-Methyldesloratadine"], "SMILES": "ClC=1C=C2C(C(C=3C(CC2)=CC=CN3)=C4CCN(C)CC4)=CC1", "physical_data": {"Molecular Weight": "324.85", "Molecular Formula": "C20H21ClN2", "Melting Point": "116-119 \u00b0C"}}