{"cas_no": "3809-32-3", "cn_name": "2,5-\u4e8c\u7532\u57fa\u73af\u5df1\u9187", "en_name": ["2,5-Dimethylcyclohexanol", "Cyclohexanol, 2,5-dimethyl-", "2,5-Dimethylcyclohexanol", "2,5-Dimethyl-1-cyclohexanol", "NSC 62033"], "SMILES": "OC1C(C)CCC(C)C1", "physical_data": {"Molecular Weight": "128.21", "Molecular Formula": "C8H16O", "Boiling Point": "178.5 \u00b0C", "Density": "0.921 g/cm\u00b3 @ Temp: 0 \u00b0C"}}