{"cas_no": "380917-97-5", "cn_name": "\u5421\u4ed1\u5e15\u5948", "en_name": ["Perampanel", "Benzonitrile, 2-(1\u2032,6\u2032-dihydro-6\u2032-oxo-1\u2032-phenyl[2,3\u2032-bipyridin]-5\u2032-yl)-", "2-(1\u2032,6\u2032-Dihydro-6\u2032-oxo-1\u2032-phenyl[2,3\u2032-bipyridin]-5\u2032-yl)benzonitrile", "3-(2-Cyanophenyl)-1-phenyl-5-(2-pyridyl)-1,2-dihydropyridin-2-one", "3-(2-Cyanophenyl)-5-(2-pyridyl)-1-phenyl-1,2-dihydropyridin-2-one", "Perampanel", "E 2007", "ER 155055-90", "Fycompa"], "SMILES": "O=C1C(=CC(=CN1C2=CC=CC=C2)C3=CC=CC=N3)C4=C(C#N)C=CC=C4", "physical_data": {"Molecular Weight": "349.38", "Molecular Formula": "C23H15N3O", "Melting Point": "180 \u00b0C"}}