{"cas_no": "381-98-6", "cn_name": "2-(\u4e09\u6c1f\u7532\u57fa)\u4e19\u70ef\u9178", "en_name": ["2-(Trifluoromethyl)acrylic acid", "2-Propenoic acid, 2-(trifluoromethyl)-", "Acrylic acid, 2-(trifluoromethyl)-", "2-(Trifluoromethyl)-2-propenoic acid", "2-(Trifluoromethyl)acrylic acid", "\u03b1-(Trifluoromethyl)acrylic acid", "2-Trifluoromethylpropenoic acid", "2-Trifluoromethylprop-2-enoic acid", "\u03b1-Trifluoromethacrylic acid", "2-(Trifluoromethyl)methacrylic acid", "Trifluoromethyl acrylic acid"], "SMILES": "C(C(F)(F)F)(C(O)=O)=C", "physical_data": {"Molecular Weight": "140.06", "Molecular Formula": "C4H3F3O2", "Boiling Point": "146-148 \u00b0C", "Melting Point": "51.5 \u00b0C"}}