{"cas_no": "381-73-7", "cn_name": "\u4e8c\u6c1f\u4e59\u9178", "en_name": ["Difluoroacetic acid", "Acetic acid, 2,2-difluoro-", "Acetic acid, difluoro-", "2,2-Difluoroacetic acid", "Difluoroacetic acid"], "SMILES": "C(C(O)=O)(F)F", "physical_data": {"Molecular Weight": "96.03", "Molecular Formula": "C2H2F2O2", "Boiling Point": "133 \u00b0C", "Melting Point": "-1 \u00b0C", "Density": "1.530 g/cm\u00b3 @ Temp: 20 \u00b0C"}}