{"cas_no": "38101-59-6", "cn_name": "H-GLU-TRP-OH", "en_name": ["Thymogen", "L-Tryptophan, L-\u03b1-glutamyl-", "L-Tryptophan, N-L-\u03b1-glutamyl-", "L-\u03b1-Glutamyl-L-tryptophan", "Glutamyltryptophan", "Thymogen", "Timogen", "IM 862", "Oglufanide", "L-Glutamyl-L-tryptophan", "NSC 334073", "262: PN: EP2161028 PAGE: 12 claimed protein", "13: PN: JP2010248096 PAGE: 2 claimed protein", "199: PN: WO2011146121 PAGE: 117 claimed sequence", "22: PN: JP2014079213 TABLE: 2 claimed sequence", "\u03b1-Glu-Trp"], "SMILES": "C(C(NC(C(CCC(O)=O)N)=O)C(O)=O)C=1C=2C(NC1)=CC=CC2", "physical_data": {"Molecular Weight": "333.34", "Molecular Formula": "C16H19N3O5", "Melting Point": "121-122 \u00b0C"}}