{"cas_no": "3810-80-8", "cn_name": "\u5730\u82ac\u8bfa\u916f\u76d0\u9178\u76d0", "en_name": ["Diphenoxylate hydrochloride", "4-Piperidinecarboxylic acid, 1-(3-cyano-3,3-diphenylpropyl)-4-phenyl-, ethyl ester, hydrochloride (1:1)", "Isonipecotic acid, 1-(3-cyano-3,3-diphenylpropyl)-4-phenyl-, ethyl ester, monohydrochloride", "4-Piperidinecarboxylic acid, 1-(3-cyano-3,3-diphenylpropyl)-4-phenyl-, ethyl ester, monohydrochloride", "Isonipecotic acid, 1-(3-cyano-3,3-diphenylpropyl)-4-phenyl-, ethyl ester, hydrochloride", "1-(3-Cyano-3,3-diphenylpropyl)-4-phenylpiperidine-4-carboxylic acid ethyl ester hydrochloride", "Diphenoxylate hydrochloride", "2,2-Diphenyl-4-(4-carbethoxy-4-phenyl-1-piperidino)butyronitrile hydrochloride", "2,2-Diphenyl-4-(4-carboxy-4-phenyl-1-piperidino)butyronitrile ethyl ester hydrochloride", "R 1132", "R 1132 (antiperistaltic)"], "SMILES": "C(CCN1CCC(C(OCC)=O)(CC1)C2=CC=CC=C2)(C#N)(C3=CC=CC=C3)C4=CC=CC=C4.Cl", "physical_data": {"Molecular Weight": "", "Molecular Formula": "C30H32N2O2.ClH", "Melting Point": "220.5-222 \u00b0C"}}