{"cas_no": "38115-87-6", "cn_name": "DL-\u82f9\u679c\u9178\u4e8c\u7532\u916f", "en_name": ["Dimethyl malate", "Butanedioic acid, 2-hydroxy-, 1,4-dimethyl ester", "Malic acid, dimethyl ester", "Butanedioic acid, hydroxy-, dimethyl ester", "Dimethyl malate", "Dimethyl DL-malate", "(RS)-Dimethyl malate", "(\u00b1)-Dimethyl 2-hydroxybutanedioate", "(\u00b1)-Dimethyl malate", "NSC 165661", "Dimethyl hydroxybutanedioate", "Dimethyl 2-hydroxysuccinate", "1,4-Dimethyl 2-hydroxybutanedioate"], "SMILES": "C(CC(OC)=O)(C(OC)=O)O", "physical_data": {"Molecular Weight": "162.14", "Molecular Formula": "C6H10O5", "Boiling Point": "90 \u00b0C @ Press: 8.5 Torr"}}