{"cas_no": "3811-25-4", "cn_name": "\u6c2f\u4e19\u90a3\u6797", "en_name": ["Clorprenaline", "Benzenemethanol, 2-chloro-\u03b1-[[(1-methylethyl)amino]methyl]-", "Benzyl alcohol, o-chloro-\u03b1-[(isopropylamino)methyl]-", "2-Chloro-\u03b1-[[(1-methylethyl)amino]methyl]benzenemethanol", "1-o-Chlorophenyl-2-isopropylaminoethanol", "Clorprenaline", "Isoprophenamine", "E 241", "o-Chloro-\u03b1-(isopropylaminomethyl)benzyl alcohol", "(\u00b1)-Chloroprenaline", "Isoprofenamine", "1-(2-Chlorophenyl)-2-[(propan-2-yl)amino]ethan-1-ol", "1-(2-Chlorophenyl)-2-(propan-2-ylamino)ethanol", "2-Chloro-\u03b1-[(isopropylamino)methyl]benzenemethanol"], "SMILES": "C(CNC(C)C)(O)C1=C(Cl)C=CC=C1", "physical_data": {"Molecular Weight": "213.70", "Molecular Formula": "C11H16ClNO", "Melting Point": "81-82 \u00b0C"}}