{"cas_no": "3811-49-2", "cn_name": "\u852c\u679c\u78f7,\u6c34\u6768\u786b\u78f7", "en_name": ["Salithion", "4H-1,3,2-Benzodioxaphosphorin, 2-methoxy-, 2-sulfide", "Phosphorothioic acid, cyclic O,O-(methylene-o-phenylene) O-methyl ester", "Phosphorothioic acid, O-methyl ester, cyclic O,O-ester with o-hydroxybenzyl alcohol", "Benzyl alcohol, o-hydroxy-, cyclic O,O-ester with O-methyl phosphorothioate", "Salithion", "2-Methoxy-4H-1,3,2-benzodioxaphosphorin-2-sulfide", "Saligenin cyclic methyl phosphorothionate", "2-Methoxy-4H-1,3,2-benzodioxaphospholin-2-sulfide", "Fenfosphorin", "Dioxabenzophos", "Dioxabenzofos", "2-Methoxy-2,4-dihydro-1,3,2\u03bb5-benzodioxaphosphinine-2-thione"], "SMILES": "O(C)P1(=S)OC=2C(CO1)=CC=CC2", "physical_data": {"Molecular Weight": "216.19", "Molecular Formula": "C8H9O3PS", "Melting Point": "55 \u00b0C"}}