{"cas_no": "3811-04-9", "cn_name": "\u6c2f\u9178\u94be", "en_name": ["Potassium chlorate", "Chloric acid, potassium salt (1:1)", "Chloric acid, potassium salt", "Fekabit", "Potassium chlorate", "Potassium oxymuriate", "Potassium chlorate (KClO3)", "Potcrate", "Chloric acid (HClO3) potassium salt", "Berthollet salt", "Berthollet's salt", "Anforstan", "Chloric acid potassium salt (KClO3)"], "SMILES": "Cl(=O)(=O)O.[K]", "physical_data": {"Molecular Weight": "", "Molecular Formula": "ClHO3.K", "Melting Point": "368 \u00b0C", "Density": "2.32 g/cm\u00b3"}}