{"cas_no": "38116-61-9", "cn_name": "2-\u7f9f\u57fa-6-\u7532\u57fa\u70df\u9178", "en_name": ["2-Hydroxy-6-methylnicotinic acid", "3-Pyridinecarboxylic acid, 1,2-dihydro-6-methyl-2-oxo-", "Nicotinic acid, 1,2-dihydro-6-methyl-2-oxo-", "Nicotinic acid, 2-hydroxy-6-methyl-", "1,2-Dihydro-6-methyl-2-oxo-3-pyridinecarboxylic acid", "2-Hydroxy-6-methylnicotinic acid", "2-Hydroxy-6-methylpyridine-3-carboxylic acid", "1,2-Dihydro-6-methyl-2-oxonicotinic acid", "6-Methyl-2-pyridone-3-carboxylic acid", "NSC 10728", "6-Methyl-2-oxo-1,2-dihydropyridine-3-carboxylic acid"], "SMILES": "C(O)(=O)C=1C(=O)NC(C)=CC1", "physical_data": {"Molecular Weight": "153.14", "Molecular Formula": "C7H7NO3", "Melting Point": "227 \u00b0C (decomp)"}}