{"cas_no": "3813-27-2", "cn_name": "3-\u4e8c\u4e59\u57fa\u6c28\u57fa\u4e19\u9170\u80fa", "en_name": ["3-(Diethylamino)propanamide", "Propanamide, 3-(diethylamino)-", "Propionamide, 3-(diethylamino)-", "3-(Diethylamino)propanamide", "3-(Diethylamino)propionamide"], "SMILES": "N(CCC(N)=O)(CC)CC", "physical_data": {"Molecular Weight": "144.21", "Molecular Formula": "C7H16N2O", "Boiling Point": "154-157 \u00b0C @ Press: 8 Torr"}}