{"cas_no": "38136-29-7", "cn_name": "\u5f02\u5df1\u9170\u6c2f", "en_name": ["4-Methylpentanoyl chloride", "Pentanoyl chloride, 4-methyl-", "4-Methylpentanoyl chloride", "Isocaproyl chloride", "4-Methylvaleryl chloride", "Isohexanoyl chloride", "4-Methylvaleroyl chloride", "\u03b3-Methylvaleryl chloride", "4-Methylvaleric acid chloride", "\u03b3-Methylvaleroyl chloride"], "SMILES": "C(CC(Cl)=O)C(C)C", "physical_data": {"Molecular Weight": "134.60", "Molecular Formula": "C6H11ClO", "Boiling Point": "141-142 \u00b0C"}}