{"cas_no": "3813-52-3", "cn_name": "5-\u964d\u51b0\u7247\u70ef-2,3-\u4e8c\u7fa7\u9178", "en_name": ["5-Norbornene-2,3-dicarboxylic acid", "Bicyclo[2.2.1]hept-5-ene-2,3-dicarboxylic acid", "5-Norbornene-2,3-dicarboxylic acid", "3,6-Endomethylene-4-cyclohexene-1,2-dicarboxylic acid", "endo-Methylenetetrahydrophthalic acid", "1,2-Benzenedicarboxylic acid, 1,2,3,6-tetrahydro-3,6-endo-methylene-", "3,6-Endomethylenephthalic acid, tetrahydro-", "Bicyclo[2.2.1]hept-2-ene-5,6-dicarboxylic acid", "3,6-Methano-4-cyclohexene-1,2-dicarboxylic acid", "NSC 62668"], "SMILES": "C(O)(=O)C1C(C(O)=O)C2CC1C=C2", "physical_data": {"Molecular Weight": "182.17", "Molecular Formula": "C9H10O4", "Melting Point": "177-179 \u00b0C"}}