{"cas_no": "3813-05-6", "cn_name": "\u8349\u9664\u7075", "en_name": ["Benazolin", "3(2H)-Benzothiazoleacetic acid, 4-chloro-2-oxo-", "3-Benzothiazolineacetic acid, 4-chloro-2-oxo-", "4-Chloro-2-oxo-3(2H)-benzothiazoleacetic acid", "RD 7693", "Benazolin", "Cornox CWK", "4-Chloro-2-oxobenzothiazolin-3-ylacetic acid", "Eunasin", "Ley-Cornox", "Benazoline", "Cresopur", "Benazolin (pesticide)", "Benzar", "NSC 521058", "2-(4-Chloro-2-oxo-2,3-dihydro-1,3-benzothiazol-3-yl)acetic acid"], "SMILES": "C(C(O)=O)N1C=2C(SC1=O)=CC=CC2Cl", "physical_data": {"Molecular Weight": "243.67", "Molecular Formula": "C9H6ClNO3S", "Melting Point": "193 \u00b0C"}}