{"cas_no": "38136-70-8", "cn_name": "(3S,8AS)-3-(1H-INDOL-3-YLMETHYL)HEXAHYDROPYRROLO[1,2-A]PYRAZINE-1,4-DIONE", "en_name": ["Brevianamide F", "Pyrrolo[1,2-a]pyrazine-1,4-dione, hexahydro-3-(1H-indol-3-ylmethyl)-, (3S,8aS)-", "Pyrrolo[1,2-a]pyrazine-1,4-dione, hexahydro-3-(1H-indol-3-ylmethyl)-, (3S-trans)-", "(3S,8aS)-Hexahydro-3-(1H-indol-3-ylmethyl)pyrrolo[1,2-a]pyrazine-1,4-dione", "Brevianamide F", "Cyclo-L-tryptophyl-L-proline", "cyclo-L-Prolyl-L-tryptophanyl", "L-Prolyl-L-tryptophan anhydride", "Prolyltryptophanyldiketopiperazine", "Cyclo(L-Pro-L-Trp)", "Cyclo-L-Trp-L-Pro"], "SMILES": "C(C=1C=2C(NC1)=CC=CC2)C3C(=O)N4C(C(=O)N3)CCC4", "physical_data": {"Molecular Weight": "283.33", "Molecular Formula": "C16H17N3O2", "Melting Point": "165-167 \u00b0C"}}