{"cas_no": "3814-34-4", "cn_name": "2-\u4e59\u57fa\u6eb4\u4ee3\u4e01\u70f7", "en_name": ["1-Bromo-2-ethylbutane", "Pentane, 3-(bromomethyl)-", "3-(Bromomethyl)pentane", "Butane, 1-bromo-2-ethyl-", "2-Ethylbutyl bromide", "2-Ethyl-1-bromobutane", "1-Bromo-2-ethylbutane"], "SMILES": "C(CBr)(CC)CC", "physical_data": {"Molecular Weight": "165.07", "Molecular Formula": "C6H13Br", "Boiling Point": "143-144 \u00b0C @ Press: 762 Torr"}}