{"cas_no": "3814-30-0", "cn_name": "\u6eb4\u7532\u57fa\u73af\u620a\u70f7", "en_name": ["(Bromomethyl)cyclopentane", "Cyclopentane, (bromomethyl)-", "(Bromomethyl)cyclopentane", "Cyclopentylmethyl bromide", "Bromocyclopentylmethane"], "SMILES": "C(Br)C1CCCC1", "physical_data": {"Molecular Weight": "163.06", "Molecular Formula": "C6H11Br", "Boiling Point": "58-60 \u00b0C @ Press: 15 Torr", "Density": "1.271 g/cm\u00b3 @ Temp: 20 \u00b0C"}}