{"cas_no": "3815-86-9", "cn_name": "\u4e19\u4e8c\u9170\u80bc", "en_name": ["Malonic dihydrazide", "Propanedioic acid, 1,3-dihydrazide", "Malonic acid, dihydrazide", "Propanedioic acid, dihydrazide", "Malonyl dihydrazide", "Malonyl hydrazide", "Malonhydrazide", "Malonic acid hydrazide", "Malonic dihydrazide", "Malonoyl dihydrazine", "Malondihydrazide", "NSC 649", "MDH"], "SMILES": "C(C(NN)=O)C(NN)=O", "physical_data": {"Molecular Weight": "132.12", "Molecular Formula": "C3H8N4O2", "Melting Point": "154 \u00b0C"}}