{"cas_no": "3817-11-6", "cn_name": "N-\u4e01\u57fa-N-(4-\u7f9f\u4e01\u57fa)\u4e9a\u785d\u80fa", "en_name": ["N-Butyl-N-(4-hydroxybutyl)nitrosamine", "1-Butanol, 4-(butylnitrosoamino)-", "1-Butanol, 4-(butylnitrosamino)-", "4-(Butylnitrosoamino)-1-butanol", "N-Butyl-N-(4-hydroxybutyl)nitrosamine", "Butyl(4-hydroxybutyl)nitrosamine", "Butylbutanolnitrosamine", "4-Hydroxybutylbutylnitrosamine", "N-Butyl-N-(1-hydroxybutyl)nitrosamine", "N-Nitrosobutyl-4-hydroxybutylamine", "N-Nitrosobutylbutan-4-olamine", "BBN"], "SMILES": "N(CCCCO)(CCCC)N=O", "physical_data": {"Molecular Weight": "174.24", "Molecular Formula": "C8H18N2O2", "Boiling Point": "165-167 \u00b0C @ Press: 5 Torr"}}