{"cas_no": "38176-02-2", "cn_name": "R-\u7ef4\u62c9\u5e15\u7c73", "en_name": ["(+)-Verapamil hydrochloride", "Benzeneacetonitrile, \u03b1-[3-[[2-(3,4-dimethoxyphenyl)ethyl]methylamino]propyl]-3,4-dimethoxy-\u03b1-(1-methylethyl)-, hydrochloride (1:1), (\u03b1R)-", "Benzeneacetonitrile, \u03b1-[3-[[2-(3,4-dimethoxyphenyl)ethyl]methylamino]propyl]-3,4-dimethoxy-\u03b1-(1-methylethyl)-, monohydrochloride, (R)-", "Benzeneacetonitrile, \u03b1-[3-[[2-(3,4-dimethoxyphenyl)ethyl]methylamino]propyl]-3,4-dimethoxy-\u03b1-(1-methylethyl)-, monohydrochloride, (\u03b1R)-", "(+)-Verapamil hydrochloride", "LU 33925", "(R)-Verapamil hydrochloride", "Dexverapamil monohydrochloride", "NSC 632821"], "SMILES": "C(CCCN(CCC1=CC(OC)=C(OC)C=C1)C)(C(C)C)(C#N)C2=CC(OC)=C(OC)C=C2.Cl", "physical_data": {"Molecular Weight": "", "Molecular Formula": "C27H38N2O4.ClH", "Melting Point": "131-133 \u00b0C"}}