{"cas_no": "38186-88-8", "cn_name": "2-\u6c2f-5-\u6c1f\u70df\u9178", "en_name": ["2-Chloro-5-fluoronicotinic acid", "3-Pyridinecarboxylic acid, 2-chloro-5-fluoro-", "2-Chloro-5-fluoro-3-pyridinecarboxylic acid", "2-Chloro-5-fluoronicotinic acid", "2-Chloro-5-fluoropyridine-3-carboxylic acid"], "SMILES": "C(O)(=O)C1=C(Cl)N=CC(F)=C1", "physical_data": {"Molecular Weight": "175.54", "Molecular Formula": "C6H3ClFNO2", "Melting Point": "132.9-134.0 \u00b0C"}}