{"cas_no": "3818-50-6", "cn_name": "\u7f9f\u8418\u9178\u82c4\u915a\u5b81", "en_name": ["Bephenium hydroxynaphthoate", "Benzenemethanaminium, N,N-dimethyl-N-(2-phenoxyethyl)-, 3-hydroxy-2-naphthalenecarboxylate (1:1)", "Benzyldimethyl(2-phenoxyethyl)ammonium 3-hydroxy-2-naphthoate", "Ammonium, benzyldimethyl(2-phenoxyethyl)-, salt with 3-hydroxy-2-naphthoic acid (1:1)", "Benzenemethanaminium, N,N-dimethyl-N-(2-phenoxyethyl)-, salt with 3-hydroxy-2-naphthalenecarboxylic acid (1:1)", "2-Naphthoic acid, 3-hydroxy-, ion(1-), benzyldimethyl(2-phenoxyethyl)ammonium", "2-Naphthalenecarboxylic acid, 3-hydroxy-, ion(1-), N,N-dimethyl-N-(2-phenoxyethyl)benzenemethanaminium", "Alcopar", "Alcopara", "Bephenium 3-hydroxy-2-naphthoate", "Naftamon", "Bephenium hydroxynaphthoate", "Frantin", "Naphtamone", "Naphtamon", "Bephenamine hydroxynaphthoate", "Bephenium embonate", "Befen", "Befeniol", "Befenium", "Debefenium", "Fedal-Uncin", "Lecibis", "Nemex"], "SMILES": "C([O-])(=O)C1=CC2=C(C=C1O)C=CC=C2.C([N+](CCOC1=CC=CC=C1)(C)C)C2=CC=CC=C2", "physical_data": {"Molecular Weight": "", "Molecular Formula": "C17H22NO.C11H7O3", "Melting Point": "170-171 \u00b0C"}}