{"cas_no": "38183-03-8", "cn_name": "7,8-\u4e8c\u7f9f\u57fa\u9ec4\u916e", "en_name": ["7,8-Dihydroxyflavone", "4H-1-Benzopyran-4-one, 7,8-dihydroxy-2-phenyl-", "Flavone, 7,8-dihydroxy-", "7,8-Dihydroxy-2-phenyl-4H-1-benzopyran-4-one", "7,8-Dihydroxyflavone", "7,8-Dihydroxy-2-phenyl-4H-chromen-4-one"], "SMILES": "OC1=C2C(C(=O)C=C(O2)C3=CC=CC=C3)=CC=C1O", "physical_data": {"Molecular Weight": "254.24", "Molecular Formula": "C15H10O4", "Melting Point": "240-242 \u00b0C"}}