{"cas_no": "38184-47-3", "cn_name": "3,5-\u4e8c\u7532\u57fa\u5421\u5511-1-\u785d\u9178\u54aa", "en_name": ["1H-Pyrazole-1-carboximidamide, 3,5-dimethyl-, nitrate (1:1)", "1H-Pyrazole-1-carboximidamide, 3,5-dimethyl-, nitrate (1:1)", "1H-Pyrazole-1-carboximidamide, 3,5-dimethyl-, mononitrate", "3,5-Dimethyl-1-guanylpyrazole nitrate", "1-Amidino-3,5-dimethylpyrazole nitrate", "3,5-Dimethylpyrazole-1-carboxamidine nitrate", "NSC 54493", "3,5-Dimethyl-1H-pyrazole-1-carboximidamide nitrate", "3,5-Dimethyl-1-pyrazolylformamidinium nitrate"], "SMILES": "N(=O)(=O)O.C(=N)(N)N1N=C(C)C=C1C", "physical_data": {"Molecular Weight": "", "Molecular Formula": "C6H10N4.HNO3", "Melting Point": "174 \u00b0C"}}