{"cas_no": "38183-04-9", "cn_name": "6,7-\u4e8c\u7f9f\u57fa\u9ec4\u916e", "en_name": ["6,7-Dihydroxyflavone", "4H-1-Benzopyran-4-one, 6,7-dihydroxy-2-phenyl-", "6,7-Dihydroxy-2-phenyl-4H-1-benzopyran-4-one", "6,7-Dihydroxyflavone", "ABT-1841", "ABT 1841"], "SMILES": "O=C1C=2C(OC(=C1)C3=CC=CC=C3)=CC(O)=C(O)C2", "physical_data": {"Molecular Weight": "254.24", "Molecular Formula": "C15H10O4", "Melting Point": "250 \u00b0C"}}