{"cas_no": "38185-55-6", "cn_name": "2-\u6c28\u57fa-3-\u6c2f-5-\u6eb4\u5421\u5576", "en_name": ["5-Bromo-3-chloropyridin-2-amine", "2-Pyridinamine, 5-bromo-3-chloro-", "5-Bromo-3-chloro-2-pyridinamine", "2-Amino-5-bromo-3-chloropyridine", "2-Amino-3-chloro-5-bromopyridine", "5-Bromo-3-chloropyridin-2-amine"], "SMILES": "ClC1=C(N)N=CC(Br)=C1", "physical_data": {"Molecular Weight": "207.46", "Molecular Formula": "C5H4BrClN2", "Melting Point": "97 \u00b0C"}}