{"cas_no": "38183-12-9", "cn_name": "\u8367\u5149\u80fa", "en_name": ["Fluorescamine", "Spiro[furan-2(3H),1\u2032(3\u2032H)-isobenzofuran]-3,3\u2032-dione, 4-phenyl-", "4-Phenylspiro[furan-2(3H),1\u2032(3\u2032H)-isobenzofuran]-3,3\u2032-dione", "4-Phenylspiro[furan-2(3H),1\u2032-phthalan]-3,3\u2032-dione", "Fluorescamine", "Ro 20-7234", "Fluram", "MeSH ID: D005450"], "SMILES": "O=C1C2(C=3C(C(=O)O2)=CC=CC3)OC=C1C4=CC=CC=C4", "physical_data": {"Molecular Weight": "278.26", "Molecular Formula": "C17H10O4", "Melting Point": "154.5 \u00b0C"}}