{"cas_no": "3819-00-9", "cn_name": "\u4e59\u9170\u54cc\u666e\u55ea", "en_name": ["Piperacetazine", "Ethanone, 1-[10-[3-[4-(2-hydroxyethyl)-1-piperidinyl]propyl]-10H-phenothiazin-2-yl]-", "Ketone, 10-[3-[4-(2-hydroxyethyl)piperidino]propyl]phenothiazin-2-yl methyl", "1-[10-[3-[4-(2-Hydroxyethyl)-1-piperidinyl]propyl]-10H-phenothiazin-2-yl]ethanone", "PC 1421", "2-Acetyl-10-[3-[4-(\u03b2-hydroxyethyl)piperidino]propyl]phenothiazine", "10-[3-[4-(2-Hydroxyethyl)piperidino]propyl]phenothiazin-2-yl methyl ketone", "Quide", "Piperacetazine", "Psymod", "SC 9794", "1-(10-[3-[4-(2-Hydroxyethyl)piperidin-1-yl]propyl]-10H-phenothiazin-2-yl)ethan-1-one"], "SMILES": "C(CCN1CCC(CCO)CC1)N2C=3C(SC=4C2=CC=CC4)=CC=C(C(C)=O)C3", "physical_data": {"Molecular Weight": "410.57", "Molecular Formula": "C24H30N2O2S", "Melting Point": "105.2-107.6 \u00b0C"}}