{"cas_no": "38194-50-2", "cn_name": "\u8212\u6797\u9178", "en_name": ["Sulindac", "1H-Indene-3-acetic acid, 5-fluoro-2-methyl-1-[[4-(methylsulfinyl)phenyl]methylene]-, (1Z)-", "1H-Indene-3-acetic acid, 5-fluoro-2-methyl-1-[[4-(methylsulfinyl)phenyl]methylene]-, (Z)-", "(1Z)-5-Fluoro-2-methyl-1-[[4-(methylsulfinyl)phenyl]methylene]-1H-indene-3-acetic acid", "cis-5-Fluoro-2-methyl-1-[(p-methylsulfinyl)benzylidenyl]indene-3-acetic acid", "Sulindac", "Clinoril", "MK 231", "Arthrocine", "Mobilin", "cis-Sulindac", "Sulindac sulfoxide", "Clisundac", "Artribid", "Reumofil", "Sulreuma", "Algocetil", "Citireuma", "Sudac", "Aflodac", "Reumyl", "Sulinol", "Imbaral", "(Z)-5-Fluoro-2-methyl-1-[p-(methylsulfinyl)benzylidene]indene-3-acetic acid", "MeSH ID: D013467"], "SMILES": "C(=C1C=2C(C(CC(O)=O)=C1C)=CC(F)=CC2)C3=CC=C(S(C)=O)C=C3", "physical_data": {"Molecular Weight": "356.41", "Molecular Formula": "C20H17FO3S", "Melting Point": "183 \u00b0C"}}