{"cas_no": "38191-34-3", "cn_name": "2-\u6c28\u57fa-5-\u6eb4\u82ef\u915a", "en_name": ["2-Amino-5-bromophenol", "Phenol, 2-amino-5-bromo-", "2-Amino-5-bromophenol", "4-Bromo-2-hydroxyaniline", "5-Bromo-2-aminophenol"], "SMILES": "OC1=C(N)C=CC(Br)=C1", "physical_data": {"Molecular Weight": "188.02", "Molecular Formula": "C6H6BrNO", "Melting Point": "146-147 \u00b0C"}}