{"cas_no": "382-45-6", "cn_name": "\u80be\u4e0a\u817a\u753e\u916e", "en_name": ["Adrenosterone", "Androst-4-ene-3,11,17-trione", "Adrenosterone", "\u03944-Androstene-3,11,17-trione", "11-Keto-4-androstene-3,17-dione", "Reichstein's substance G", "11-Oxo-4-androstene-3,17-dione", "Andrenosterone", "(+)-Adrenosterone", "NSC 12166", "Androst-4-en-3,11,17-trione"], "SMILES": "CC12C3C(C4C(C)(CC3=O)C(=O)CC4)CCC1=CC(=O)CC2", "physical_data": {"Molecular Weight": "300.39", "Molecular Formula": "C19H24O3", "Melting Point": "222 \u00b0C"}}