{"cas_no": "382-67-2", "cn_name": "\u53bb\u7f9f\u7c73\u677e", "en_name": ["Desoximetasone", "Pregna-1,4-diene-3,20-dione, 9-fluoro-11,21-dihydroxy-16-methyl-, (11\u03b2,16\u03b1)-", "Pregna-1,4-diene-3,20-dione, 9-fluoro-11\u03b2,21-dihydroxy-16\u03b1-methyl-", "(11\u03b2,16\u03b1)-9-Fluoro-11,21-dihydroxy-16-methylpregna-1,4-diene-3,20-dione", "9\u03b1-Fluoro-11\u03b2,21-dihydroxy-16\u03b1-methylpregna-1,4-diene-3,20-dione", "17-Desoximethasone", "Deoxymethasone", "9-Fluoro-16\u03b1-methyl-\u03941-corticosterone", "17-Deoxymethasone", "Desoximetasone", "A 41304", "R 2113", "Topicorte", "Topisolon", "Desoxymetasone", "Desoxymethasone", "Desoximethasone", "17-Deoxydexamethasone", "A 41-304", "Esperson", "Stidex", "HOE 304", "Topicort", "MeSH ID: D003899"], "SMILES": "FC12C(C3C(C)(CC1O)C(C(CO)=O)C(C)C3)CCC=4C2(C)C=CC(=O)C4", "physical_data": {"Molecular Weight": "376.46", "Molecular Formula": "C22H29FO4", "Melting Point": "217 \u00b0C"}}