{"cas_no": "382-26-3", "cn_name": "1,1,3,3,3-\u4e94\u6c1f-2-\u4e09\u6c1f\u7532\u57fa\u4e19\u57fa\u7532\u57fa\u919a", "en_name": ["1,1,1,3,3-Pentafluoro-3-methoxy-2-(trifluoromethyl)propane", "Propane, 1,1,1,3,3-pentafluoro-3-methoxy-2-(trifluoromethyl)-", "Ether, methyl 1,1,3,3,3-pentafluoro-2-(trifluoromethyl)propyl", "Propane, 2-(difluoromethoxymethyl)-1,1,1,3,3,3-hexafluoro-", "1,1,1,3,3-Pentafluoro-3-methoxy-2-(trifluoromethyl)propane", "2H-Octafluoroisobutyl methyl ether", "1,1,3,3,3-Pentafluoro-1-methoxy-2-(trifluoromethyl)propane", "2-(Difluoro(methoxy)methyl)-1,1,1,3,3,3-hexafluoropropane", "1,1,3,3,3-Pentafluoro-2-trifluoromethylpropyl methyl ether", "1,1,1,3,3-Pentafluoro-2-(trifluoromethyl)-4-oxapentane"], "SMILES": "C(C(OC)(F)F)(C(F)(F)F)C(F)(F)F", "physical_data": {"Molecular Weight": "232.07", "Molecular Formula": "C5H4F8O", "Boiling Point": "68.5 \u00b0C @ Press: 760 Torr", "Density": "1.4931 g/cm\u00b3 @ Temp: 25 \u00b0C"}}