{"cas_no": "382-10-5", "cn_name": "\u516d\u6c1f\u5f02\u4e01\u70ef", "en_name": ["3,3,3-Trifluoro-2-(trifluoromethyl)-1-propene", "1-Propene, 3,3,3-trifluoro-2-(trifluoromethyl)-", "Propene, 3,3,3-trifluoro-2-(trifluoromethyl)-", "3,3,3-Trifluoro-2-(trifluoromethyl)-1-propene", "3,3,3-Trifluoro-2-(trifluoromethyl)propene", "1,1-Bis(trifluoromethyl)ethene", "2-Trifluoromethyl-3,3,3-trifluoro-1-propene", "2-Trifluoromethyl-3,3,3-trifluoropropene", "1,1,1-Trifluoro-2-(trifluoromethyl)-2-propene", "HFO 1336mcfq"], "SMILES": "C(C(F)(F)F)(C(F)(F)F)=C", "physical_data": {"Molecular Weight": "164.05", "Molecular Formula": "C4H2F6", "Boiling Point": "11-13 \u00b0C"}}