{"cas_no": "382-21-8", "cn_name": "\u5168\u6c1f\u5f02\u4e01\u70ef", "en_name": ["1,1,3,3,3-Pentafluoro-2-(trifluoromethyl)-1-propene", "1-Propene, 1,1,3,3,3-pentafluoro-2-(trifluoromethyl)-", "Propene, pentafluoro-2-(trifluoromethyl)-", "1,1,3,3,3-Pentafluoro-2-(trifluoromethyl)-1-propene", "Perfluoroisobutylene", "Octafluoroisobutene", "Octafluoroisobutylene", "Perfluoroisobutene", "1,1,3,3,3-Pentafluoro-2-(trifluoromethyl)propene", "Perfluoro-2-methylpropene", "1,1-Difluoro-2,2-bis(trifluoromethyl)ethene", "Perfluoro-2-(trifluoromethyl)propene", "PFIB"], "SMILES": "C(C(F)(F)F)(C(F)(F)F)=C(F)F", "physical_data": {"Molecular Weight": "200.03", "Molecular Formula": "C4F8", "Boiling Point": "7 \u00b0C", "Density": "1.5922 g/cm\u00b3 @ Temp: 0 \u00b0C"}}