{"cas_no": "382-34-3", "cn_name": "1,1,1,2,3,3-\u516d\u6c1f-3-\u7532\u6c27\u57fa\u4e19\u70f7", "en_name": ["1,1,2,3,3,3-Hexafluoropropyl methyl ether", "Propane, 1,1,1,2,3,3-hexafluoro-3-methoxy-", "Ether, 1,1,2,3,3,3-hexafluoropropyl methyl", "1,1,1,2,3,3-Hexafluoro-3-methoxypropane", "1,1,2,3,3,3-Hexafluoropropyl methyl ether", "HFC-E 356", "356mecE\u03b3\u03b4", "HFE 356mec"], "SMILES": "C(C(OC)(F)F)(C(F)(F)F)F", "physical_data": {"Molecular Weight": "182.06", "Molecular Formula": "C4H4F6O", "Boiling Point": "54-55 \u00b0C", "Density": "1.429 g/cm\u00b3 @ Temp: 10 \u00b0C"}}