{"cas_no": "382-28-5", "cn_name": "\u5168\u6c1f(N-\u7532\u57fa\u5417\u5549)", "en_name": ["Perfluoro-N-methylmorpholine", "Morpholine, 2,2,3,3,5,5,6,6-octafluoro-4-(trifluoromethyl)-", "2,2,3,3,5,5,6,6-Octafluoro-4-(trifluoromethyl)morpholine", "4-(Trifluoromethyl)perfluoromorpholine", "Perfluoro-N-methylmorpholine", "L 12422", "PF 5052", "Fluorinert PF 5052", "Perfluoro(4-methylmorpholine)", "PFC 5052"], "SMILES": "C(F)(F)(F)N1C(F)(F)C(F)(F)OC(F)(F)C1(F)F", "physical_data": {"Molecular Weight": "299.04", "Molecular Formula": "C5F11NO", "Boiling Point": "51 \u00b0C", "Melting Point": "-80 \u00b0C"}}