{"cas_no": "382-31-0", "cn_name": "\u516d\u6c1f\u4e01\u9187", "en_name": ["2,2,3,4,4,4-Hexafluoro-1-butanol", "1-Butanol, 2,2,3,4,4,4-hexafluoro-", "2,2,3,4,4,4-Hexafluoro-1-butanol", "2,2,3,4,4,4-Hexafluorobutanol", "2,2,3,4,4,4-Hexafluoro-1-butyl alcohol", "H 0649", "1H,1H,3H-Hexafluorobutanol", "2,3,4,4,4-Hexafluorobutan-1-ol"], "SMILES": "C(C(CO)(F)F)(C(F)(F)F)F", "physical_data": {"Molecular Weight": "182.06", "Molecular Formula": "C4H4F6O", "Boiling Point": "117 \u00b0C"}}