{"cas_no": "382-44-5", "cn_name": "11\u03b2-\u7f9f\u57fa\u96c4\u753e-4-\u70ef-3,17-\u4e8c\u916e", "en_name": ["11\u03b2-Hydroxyandrost-4-ene-3,17-dione", "Androst-4-ene-3,17-dione, 11-hydroxy-, (11\u03b2)-", "Androst-4-ene-3,17-dione, 11\u03b2-hydroxy-", "(11\u03b2)-11-Hydroxyandrost-4-ene-3,17-dione", "\u03944-Androsten-11\u03b2-ol-3,17-dione", "11\u03b2-Hydroxy-\u03944-androstene-3,17-dione", "11\u03b2-Hydroxyandrost-4-ene-3,17-dione", "4-Androstene-11\u03b2-ol-3,17-dione", "4-Androsten-11\u03b2-ol-3,17-dione", "\u03944-Androstene-11\u03b2-ol-3,17-dione", "U 2826", "11\u03b2-Hydroxy-4-androsten-3,17-dione", "NSC 12167", "NSC 17102"], "SMILES": "CC12C3C(C4C(C)(CC3O)C(=O)CC4)CCC1=CC(=O)CC2", "physical_data": {"Molecular Weight": "302.41", "Molecular Formula": "C19H26O3", "Melting Point": "195.5-200.5 \u00b0C"}}