{"cas_no": "382-01-4", "cn_name": "2-(\u4e09\u6c1f\u7532\u57fa)\u4e19\u70ef\u9178", "en_name": ["3-Bromo-1,1,1-trifluoro-2-butanone", "2-Butanone, 3-bromo-1,1,1-trifluoro-", "3-Bromo-1,1,1-trifluoro-2-butanone", "1,1,1-Trifluoro-3-bromobutan-2-one"], "SMILES": "C(C(F)(F)F)(C(Br)C)=O", "physical_data": {"Molecular Weight": "204.97", "Molecular Formula": "C4H4BrF3O", "Boiling Point": "93.0 \u00b0C", "Density": "1.6303 g/cm\u00b3 @ Temp: 25 \u00b0C"}}