{"cas_no": "382-93-4", "cn_name": "2H-\u5168\u6c1f\u4e19\u9178\u7532\u916f", "en_name": ["Methyl 2,3,3,3-tetrafluoropropanoate", "Propanoic acid, 2,3,3,3-tetrafluoro-, methyl ester", "Propionic acid, 2,3,3,3-tetrafluoro-, methyl ester", "Methyl 2,3,3,3-tetrafluoropropanoate", "2,3,3,3-Tetrafluoropropionic acid methyl ester", "Methyl 2,3,3,3-tetrafluoropropionate"], "SMILES": "C(C(F)(F)F)(C(OC)=O)F", "physical_data": {"Molecular Weight": "160.07", "Molecular Formula": "C4H4F4O2", "Boiling Point": "96 \u00b0C", "Density": "1.353 g/cm\u00b3 @ Temp: 20 \u00b0C"}}