{"cas_no": "38202-27-6", "cn_name": "O-(2,4,6-\u4e09\u7532\u57fa\u82ef\u78fa\u9170\u57fa)\u4e59\u9170\u7f9f\u809f\u9178\u4e59\u916f", "en_name": ["Ethyl N-[[(2,4,6-trimethylphenyl)sulfonyl]oxy]ethanimidate", "Ethanimidic acid, N-[[(2,4,6-trimethylphenyl)sulfonyl]oxy]-, ethyl ester", "Ethyl N-[[(2,4,6-trimethylphenyl)sulfonyl]oxy]ethanimidate", "Ethyl O-2,4,6-trimethylphenylsulfonylacetohydroxamate", "O-Mesitylsulfonylacetohydroxamic acid ethyl ester", "N-[(Mesitylenesulfonyl)oxy]acetimidic acid ethyl ester", "Ethyl N-[(mesitylsulfonyl)oxy]acetimidate"], "SMILES": "S(ON=C(OCC)C)(=O)(=O)C1=C(C)C=C(C)C=C1C", "physical_data": {"Molecular Weight": "285.36", "Molecular Formula": "C13H19NO4S", "Melting Point": "56-58 \u00b0C"}}