{"cas_no": "38205-66-2", "cn_name": "4-\u4e59\u9170\u57fa\u567b\u5511", "en_name": ["1-(Thiazol-4-yl)ethanone", "Ethanone, 1-(4-thiazolyl)-", "1-(4-Thiazolyl)ethanone", "4-Acetylthiazole", "Ketone, methyl 4-thiazolyl", "Methyl 4-thiazolyl ketone", "1-(Thiazol-4-yl)ethanone", "1-(1,3-Thiazol-4-yl)ethan-1-one", "1-(1,3-Thiazol-4-yl)ethanone"], "SMILES": "C(C)(=O)C1=CSC=N1", "physical_data": {"Molecular Weight": "127.16", "Molecular Formula": "C5H5NOS", "Melting Point": "56 \u00b0C"}}