{"cas_no": "3820-67-5", "cn_name": "\u683c\u62c9\u975e\u5b81", "en_name": ["Glafenine", "Benzoic acid, 2-[(7-chloro-4-quinolinyl)amino]-, 2,3-dihydroxypropyl ester", "Anthranilic acid, N-(7-chloro-4-quinolyl)-, 2,3-dihydroxypropyl ester", "Glycerol, 1-[N-(7-chloro-4-quinolyl)anthranilate]", "R 1707", "4-[2-(\u03b2,\u03b3-Dihydroxypropoxycarbonyl)phenylamino]-7-chloroquinoline", "2,3-Dihydroxypropyl N-(7-chloro-4-quinolyl)anthranilate", "Glaphenine", "Glifanan", "Glycerylaminophenaquine", "Glafenine", "Glaphenin", "2,3-Dihydroxypropyl-N-(7-chloro-4-quinolinyl)anthranilate", "N-(7-Chloro-4-quinolyl)anthranilic acid 2,3-dihydroxypropyl ester", "4-[(2-Carboxyphenyl)amino]-7-chloroquinoline \u03b1-monoglyceride", "2-[(7-Chloro-4-quinolyl)amino]benzoic acid \u03b1-glyceride", "Glifan", "Alcidon", "Dolomate", "Glafenin", "Glicafan", "Glifanar", "Privadol", "2,3-Dihydroxypropyl 2-((7-chloroquinolin-4-yl)amino)benzoate"], "SMILES": "N(C=1C2=C(N=CC1)C=C(Cl)C=C2)C3=C(C(OCC(CO)O)=O)C=CC=C3", "physical_data": {"Molecular Weight": "372.80", "Molecular Formula": "C19H17ClN2O4", "Melting Point": "169.5 \u00b0C"}}