{"cas_no": "38205-60-6", "cn_name": "2,4-\u4e8c\u7532\u57fa-5-\u4e59\u9170\u57fa\u567b\u5511", "en_name": ["5-Acetyl-2,4-dimethylthiazole", "Ethanone, 1-(2,4-dimethyl-5-thiazolyl)-", "Ketone, 2,4-dimethyl-5-thiazolyl methyl", "1-(2,4-Dimethyl-5-thiazolyl)ethanone", "5-Acetyl-2,4-dimethylthiazole", "2,4-Dimethyl-5-acetylthiazole", "1-(2,4-Dimethylthiazol-5-yl)ethanone", "1-(2,4-Dimethyl-1,3-thiazol-5-yl)ethanone", "1-(2,4-Dimethylthiazol-5-yl)ethan-1-one", "1-(Dimethyl-1,3-thiazol-5-yl)ethan-1-one"], "SMILES": "C(C)(=O)C=1SC(C)=NC1C", "physical_data": {"Molecular Weight": "155.22", "Molecular Formula": "C7H9NOS", "Boiling Point": "228-230 \u00b0C"}}