{"cas_no": "382137-78-2", "cn_name": "1,3,5-\u4e09(4-\u6c30\u57fa\u82ef\u57fa)\u82ef", "en_name": ["5\u2032-(4-Cyanophenyl)[1,1\u2032:3\u2032,1\u2032\u2032-terphenyl]-4,4\u2032\u2032-dicarbonitrile", "[1,1\u2032:3\u2032,1\u2032\u2032-Terphenyl]-4,4\u2032\u2032-dicarbonitrile, 5\u2032-(4-cyanophenyl)-", "5\u2032-(4-Cyanophenyl)[1,1\u2032:3\u2032,1\u2032\u2032-terphenyl]-4,4\u2032\u2032-dicarbonitrile", "1,3,5-Tris(4-cyanophenyl)benzene"], "SMILES": "C(#N)C1=CC=C(C2=CC(=CC(=C2)C3=CC=C(C#N)C=C3)C4=CC=C(C#N)C=C4)C=C1", "physical_data": {"Molecular Weight": "381.43", "Molecular Formula": "C27H15N3", "Melting Point": "&gt;320 \u00b0C"}}