{"cas_no": "38212-30-5", "cn_name": "1-(4-\u7532\u6c27\u57fa\u82ef\u57fa)\u54cc\u55ea", "en_name": ["1-(4-Methoxyphenyl)piperazine", "Piperazine, 1-(4-methoxyphenyl)-", "1-(4-Methoxyphenyl)piperazine", "1-(p-Methoxyphenyl)piperazine", "1-(p-Anisyl)piperazine", "N-(p-Methoxyphenyl)piperazine", "N-(4-Methoxyphenyl)piperazine", "4-(4-Methoxyphenyl)piperazine", "1-(4\u2032-Methoxyphenyl)piperazine"], "SMILES": "O(C)C1=CC=C(C=C1)N2CCNCC2", "physical_data": {"Molecular Weight": "192.26", "Molecular Formula": "C11H16N2O", "Melting Point": "209-210 \u00b0C"}}