{"cas_no": "38212-33-8", "cn_name": "1-(4-\u6c2f\u82ef\u57fa)\u54cc\u55ea", "en_name": ["1-(4-Chlorophenyl)piperazine", "Piperazine, 1-(4-chlorophenyl)-", "Piperazine, 1-(p-chlorophenyl)-", "1-(4-Chlorophenyl)piperazine", "1-(p-Chlorophenyl)piperazine", "N-(p-Chlorophenyl)piperazine", "4-(4-Chlorophenyl)piperazine", "N-(4-Chlorophenyl)piperazine", "p-Chlorophenylpiperazine", "NSC 126708", "N-(4-Chloroophenyl)piperazine"], "SMILES": "ClC1=CC=C(C=C1)N2CCNCC2", "physical_data": {"Molecular Weight": "196.68", "Molecular Formula": "C10H13ClN2", "Boiling Point": "155.7-157.2 \u00b0C @ Press: 5 Torr", "Melting Point": "71.5-73.5 \u00b0C"}}