{"cas_no": "38215-36-0", "cn_name": "\u9999\u8c46\u7d20 6", "en_name": ["Coumarin 6", "2H-1-Benzopyran-2-one, 3-(2-benzothiazolyl)-7-(diethylamino)-", "Coumarin, 3-(2-benzothiazolyl)-7-(diethylamino)-", "3-(2-Benzothiazolyl)-7-(diethylamino)-2H-1-benzopyran-2-one", "Coumarin 6", "Coumarin 540", "3-(2-Benzothiazolyl-7-(diethylamino)coumarin", "3-(2\u2032-Benzothiazolyl)-7-N,N-diethylaminocoumarin", "NSC 290432", "3-(Benzothiazol-2-yl)-7-diethylamino-2H-benzopyran-2-one", "NK 1858", "3-Benzothiazol-2-yl-7-diethylamino-chromen-2-one", "3-(1,3-Benzothiazol-2-yl)-7-(diethylamino)chromen-2-one"], "SMILES": "O=C1C(=CC=2C(O1)=CC(N(CC)CC)=CC2)C3=NC=4C(S3)=CC=CC4", "physical_data": {"Molecular Weight": "350.43", "Molecular Formula": "C20H18N2O2S", "Melting Point": "212 \u00b0C"}}