{"cas_no": "38210-35-4", "cn_name": "2-(2-\u5421\u5576\u57fa)\u82ef\u5e76\u567b\u5429", "en_name": ["2-(Benzo[b]thiophen-2-yl)pyridine", "Pyridine, 2-benzo[b]thien-2-yl-", "2-Benzo[b]thien-2-ylpyridine", "2-(2-Pyridyl)benzothiophene", "2-(Benzo[b]thiophen-2-yl)pyridine", "2-(Benzo[b]thiphen-2-yl)pyridine", "2-(2-Pyridyl)benzo[b]thiophene"], "SMILES": "C1(=CC=2C(S1)=CC=CC2)C3=CC=CC=N3", "physical_data": {"Molecular Weight": "211.28", "Molecular Formula": "C13H9NS", "Melting Point": "124-126 \u00b0C"}}