{"cas_no": "38222-83-2", "cn_name": "2,6-\u4e8c\u53d4\u4e01\u57fa-4-\u7532\u57fa\u5421\u5576", "en_name": ["2,6-Di-tert-butyl-4-methylpyridine", "Pyridine, 2,6-bis(1,1-dimethylethyl)-4-methyl-", "4-Picoline, 2,6-di-tert-butyl-", "2,6-Bis(1,1-dimethylethyl)-4-methylpyridine", "2,6-Di-tert-butyl-4-methylpyridine", "4-Methyl-2,6-di-tert-butylpyridine", "2,6-Bis(tert-butyl)-4-methylpyridine", "NSC 175792", "DTBMP", "2,6-Ditert-butyl-4-methylpyridine"], "SMILES": "C(C)(C)(C)C=1N=C(C(C)(C)C)C=C(C)C1", "physical_data": {"Molecular Weight": "205.34", "Molecular Formula": "C14H23N", "Boiling Point": "148-153 \u00b0C @ Press: 95 Torr", "Melting Point": "31-32 \u00b0C"}}