{"cas_no": "38226-86-7", "cn_name": "\u8131\u6c34\u6deb\u7f8a\u85ff\u7d20(\u6deb\u7f8a\u85ff\u7d20)", "en_name": ["\u03b2-Anhydroicaritin", "4H,8H-Benzo[1,2-b:3,4-b\u2032]dipyran-4-one, 9,10-dihydro-3,5-dihydroxy-2-(4-methoxyphenyl)-8,8-dimethyl-", "9,10-Dihydro-3,5-dihydroxy-2-(4-methoxyphenyl)-8,8-dimethyl-4H,8H-benzo[1,2-b:3,4-b\u2032]dipyran-4-one", "Icaritin, \u03b2-anhydro-", "\u03b2-Anhydroicaritin", "Cycloicaritin", "Anhydroicaritin", "3,5-Dihydroxy-2-(4-methoxyphenyl)-8,8-dimethyl-9,10-dihydropyrano[2,3-h]chromen-4-one"], "SMILES": "O=C1C2=C(C3=C(C=C2O)OC(C)(C)CC3)OC(=C1O)C4=CC=C(OC)C=C4", "physical_data": {"Molecular Weight": "368.38", "Molecular Formula": "C21H20O6", "Melting Point": "222-223 \u00b0C"}}