{"cas_no": "38237-76-2", "cn_name": "4-\u5df1\u9170\u57fa\u82ef\u80fa", "en_name": ["1-(4-Aminophenyl)-1-hexanone", "1-Hexanone, 1-(4-aminophenyl)-", "Hexanophenone, 4\u2032-amino-", "1-(4-Aminophenyl)-1-hexanone", "4\u2032-Aminocaprophenone"], "SMILES": "C(CCCCC)(=O)C1=CC=C(N)C=C1", "physical_data": {"Molecular Weight": "191.27", "Molecular Formula": "C12H17NO", "Melting Point": "95.0-95.5 \u00b0C"}}