{"cas_no": "38240-29-8", "cn_name": "3-\u785d\u57fa-2-\u5421\u5576\u786b\u9187", "en_name": ["3-Nitro-2(1H)-pyridinethione", "2(1H)-Pyridinethione, 3-nitro-", "2-Pyridinethiol, 3-nitro-", "3-Nitro-2(1H)-pyridinethione", "3-Nitro-2-pyridinethiol", "2-Mercapto-3-nitropyridine", "3-Nitro-2-mercaptopyridine", "3-Nitropyridine-2-thione", "NSC 98807", "3-Nitro-1H-pyridine-2-thione"], "SMILES": "N(=O)(=O)C=1C(=S)NC=CC1", "physical_data": {"Molecular Weight": "156.16", "Molecular Formula": "C5H4N2O2S", "Melting Point": "174-175 \u00b0C"}}