{"cas_no": "38243-03-7", "cn_name": "20\uff08R\uff09-\u4eba\u53c2\u7682\u82f7Rg3", "en_name": ["R-Ginsenoside Rg3", "\u03b2-D-Glucopyranoside, (3\u03b2,12\u03b2,20R)-12,20-dihydroxydammar-24-en-3-yl 2-O-\u03b2-D-glucopyranosyl-", "(3\u03b2,12\u03b2,20R)-12,20-Dihydroxydammar-24-en-3-yl 2-O-\u03b2-D-glucopyranosyl-\u03b2-D-glucopyranoside", "20(R)-Propanaxadiol", "20(R)-Ginsenoside Rg3", "(3\u03b2,12\u03b2,20R)-12,20-Dihydroxydammar-24-en-3-yl O-\u03b2-D-glucopyranosyl-(1\u21922)-\u03b2-D-glucopyranoside", "R-Ginsenoside Rg3", "20R-Ginsenoside Rg3", "Ginsenoside rg3(R)", "Ginsenoside R-Rg3"], "SMILES": "CC12C3(C)C(C(C(CCC=C(C)C)(C)O)CC3)C(O)CC1C4(C)C(CC2)C(C)(C)C(OC5C(OC6OC(CO)C(O)C(O)C6O)C(O)C(O)C(CO)O5)CC4", "physical_data": {"Molecular Weight": "785.01", "Molecular Formula": "C42H72O13", "Melting Point": "315-318 \u00b0C"}}