{"cas_no": "38260-54-7", "cn_name": "\u4e59\u5627\u786b\u78f7", "en_name": ["Etrimfos", "Phosphorothioic acid, O-(6-ethoxy-2-ethyl-4-pyrimidinyl) O,O-dimethyl ester", "2-Ethyl-6-ethoxypyrimidin-4-yl dimethyl phosphorothionate", "SAN-I 197", "Etrimfos", "Ekamet", "SAN 197", "Satisfar", "Etrimphos"], "SMILES": "O(P(OC)(OC)=S)C=1C=C(OCC)N=C(CC)N1", "physical_data": {"Molecular Weight": "292.29", "Molecular Formula": "C10H17N2O4PS", "Melting Point": "-3.35 \u00b0C", "Density": "1.195 g/cm\u00b3 @ Temp: 20 \u00b0C"}}