{"cas_no": "38260-01-4", "cn_name": "\u76d0\u9178\u4e09\u4e59\u70ef\u56db\u80fa", "en_name": ["Triethylenetetramine dihydrochloride", "1,2-Ethanediamine, N1,N2-bis(2-aminoethyl)-, hydrochloride (1:2)", "1,2-Ethanediamine, N,N\u2032-bis(2-aminoethyl)-, dihydrochloride", "Triethylenetetramine dihydrochloride", "Trientine hydrochloride", "Trien dihydrochloride", "TTH", "Cuprid", "Syprine", "Trientine dihydrochloride", "N,N\u2032-Bis-(2-aminoethyl)-1,2-ethanediamine dihydrochloride", "Cufence"], "SMILES": "C(CNCCN)NCCN.Cl", "physical_data": {"Molecular Weight": "", "Molecular Formula": "C6H18N4.2ClH", "Melting Point": "115-118 \u00b0C"}}