{"cas_no": "38274-16-7", "cn_name": "(2-\u6eb4\u82ef\u4e59\u7094\u57fa)\u4e09\u7532\u57fa\u7845\u70f7", "en_name": ["1-Bromo-2-[2-(trimethylsilyl)ethynyl]benzene", "Benzene, 1-bromo-2-[2-(trimethylsilyl)ethynyl]-", "Silane, [(2-bromophenyl)ethynyl]trimethyl-", "1-Bromo-2-[2-(trimethylsilyl)ethynyl]benzene", "[(o-Bromophenyl)ethynyl]trimethylsilane", "1-Bromo-2-[(trimethylsilyl)ethynyl]benzene", "((2-Bromophenyl)ethynyl)trimethylsilane", "(2-(2-Bromophenyl)ethynyl)trimethylsilane", "2-Bromo-1-[2-(trimethylsilyl)ethynyl]benzene", "2-(o-Bromophenyl)-1-trimethylsilylacetylene"], "SMILES": "C(#C[Si](C)(C)C)C1=C(Br)C=CC=C1", "physical_data": {"Molecular Weight": "253.21", "Molecular Formula": "C11H13BrSi", "Melting Point": "100-102 \u00b0C"}}