{"cas_no": "38289-28-0", "cn_name": "\u53cd\u5f0f-4-\u4e01\u57fa\u73af\u5df1\u70f7\u7532\u9178", "en_name": ["trans-4-Butylcyclohexanecarboxylic acid", "Cyclohexanecarboxylic acid, 4-butyl-, trans-", "trans-4-Butylcyclohexanecarboxylic acid", "trans-4-Butylcyclohexane-1-carboxylic acid", "Bucyclic acid", "CDB 2725", "ZhKM 897", "trans-4-Butylcyclohexylcarboxylic acid", "trans-4-Butylcyclohexane carboxylate"], "SMILES": "C(O)(=O)C1CCC(CCCC)CC1", "physical_data": {"Molecular Weight": "184.28", "Molecular Formula": "C11H20O2", "Melting Point": "35.2 \u00b0C"}}