{"cas_no": "3829-86-5", "cn_name": "\u90bb\u83f2\u5570\u5549\u76d0\u9178\u76d0", "en_name": ["1,10-Phenanthroline, hydrochloride (1:1)", "1,10-Phenanthroline, hydrochloride (1:1)", "1,10-Phenanthroline, monohydrochloride", "1,10-Phenanthroline hydrochloride", "1,10-Diazaphenanthrene hydrochloride", "NSC 4265"], "SMILES": "C12=C3C(=CC=C1C=CC=N2)C=CC=N3.Cl", "physical_data": {"Molecular Weight": "", "Molecular Formula": "C12H8N2.ClH", "Melting Point": "225 \u00b0C"}}