{"cas_no": "383-62-0", "cn_name": "\u4e8c\u6c1f\u6c2f\u4e59\u9178\u4e59\u916f", "en_name": ["Ethyl 2-chloro-2,2-difluoroacetate", "Acetic acid, 2-chloro-2,2-difluoro-, ethyl ester", "Acetic acid, chlorodifluoro-, ethyl ester", "Ethyl 2-chloro-2,2-difluoroacetate", "Ethyl chlorodifluoroacetate", "Chlorodifluoroacetic acid ethyl ester", "NSC 62664", "Difluorochloroacetic acid ethyl ester", "Ethyl difluorochloroacetate"], "SMILES": "C(C(Cl)(F)F)(OCC)=O", "physical_data": {"Molecular Weight": "158.53", "Molecular Formula": "C4H5ClF2O2", "Boiling Point": "95.5 \u00b0C", "Density": "1.2471 g/cm\u00b3 @ Temp: 30 \u00b0C"}}