{"cas_no": "383-53-9", "cn_name": "2-\u6eb4-4'-(\u4e09\u6c1f\u7532\u57fa)\u82ef\u4e59\u916e", "en_name": ["2-Bromo-1-[4-(trifluoromethyl)phenyl]ethanone", "Ethanone, 2-bromo-1-[4-(trifluoromethyl)phenyl]-", "Acetophenone, 2-bromo-4\u2032-(trifluoromethyl)-", "2-Bromo-1-[4-(trifluoromethyl)phenyl]ethanone", "2-Bromo-4\u2032-(trifluoromethyl)acetophenone", "4-(Trifluoromethyl)phenacyl bromide", "1-(2-Bromo-1-oxoethyl)-4-trifluoromethylbenzene", "2-Bromo-1-[4-(trifluoromethyl)phenyl]ethan-1-one", "NSC 277303", "p-(Trifluoromethyl)phenacyl bromide", "\u03b1-Bromo-p-(trifluoromethyl)acetophenone"], "SMILES": "C(F)(F)(F)C1=CC=C(C(CBr)=O)C=C1", "physical_data": {"Molecular Weight": "267.04", "Molecular Formula": "C9H6BrF3O", "Melting Point": "47-50 \u00b0C"}}