{"cas_no": "383-63-1", "cn_name": "\u4e09\u6c1f\u4e59\u9178\u4e59\u916f", "en_name": ["Ethyl trifluoroacetate", "Acetic acid, 2,2,2-trifluoro-, ethyl ester", "Acetic acid, trifluoro-, ethyl ester", "Ethyl trifluoroacetate", "Ethyl perfluoroacetate", "Trifluoroacetic acid ethyl ester", "NSC 220215", "Ethyl \u03b1,\u03b1,\u03b1-trifluoroacetate", "Ethyl 2,2,2-trifluoroacetate", "7: PN: WO2007101224 PAGE: 36 claimed sequence"], "SMILES": "C(C(F)(F)F)(OCC)=O", "physical_data": {"Molecular Weight": "142.08", "Molecular Formula": "C4H5F3O2", "Boiling Point": "61 \u00b0C", "Density": "1.1952 g/cm\u00b3 @ Temp: 16.7 \u00b0C"}}