{"cas_no": "383-29-9", "cn_name": "4,4'-\u4e8c\u6c1f\u4e8c\u82ef\u781c", "en_name": ["4,4\u2032-Difluorodiphenyl sulfone", "Benzene, 1,1\u2032-sulfonylbis[4-fluoro-", "Sulfone, bis(p-fluorophenyl)", "1,1\u2032-Sulfonylbis[4-fluorobenzene]", "4,4\u2032-Difluorodiphenyl sulfone", "Bis(p-fluorophenyl) sulfone", "4-Fluorophenylsulfone", "Bis(4-fluorophenyl)sulfone", "NSC 87584", "D 0537", "NSC 683542", "4,4\u2032-Sulfonylbis(fluorobenzene)", "4,4\u2032-Fluorodiphenyl sulfone", "1-Fluoro-4-(4-fluorophenyl)sulfonylbenzene"], "SMILES": "S(=O)(=O)(C1=CC=C(F)C=C1)C2=CC=C(F)C=C2", "physical_data": {"Molecular Weight": "254.25", "Molecular Formula": "C12H8F2O2S", "Melting Point": "97-98 \u00b0C"}}