{"cas_no": "383-67-5", "cn_name": "\u4e09\u6c1f\u4e59\u9178\u70ef\u4e19\u916f", "en_name": ["Allyl trifluoroacetate", "Acetic acid, 2,2,2-trifluoro-, 2-propen-1-yl ester", "Acetic acid, trifluoro-, allyl ester", "Acetic acid, trifluoro-, 2-propenyl ester", "Allyl trifluoroacetate", "NSC 20943", "Allyl-2,2,2-trifluoroacetate", "2-Propenyl 2,2,2-Trifluoroacetate"], "SMILES": "C(C(F)(F)F)(OCC=C)=O", "physical_data": {"Molecular Weight": "154.09", "Molecular Formula": "C5H5F3O2", "Boiling Point": "66-67 \u00b0C", "Density": "1.168 g/cm\u00b3 @ Temp: 25 \u00b0C"}}