{"cas_no": "38304-91-5", "cn_name": "\u7c73\u8bfa\u5730\u5c14", "en_name": ["Minoxidil", "2,4-Pyrimidinediamine, 6-(1-piperidinyl)-, 3-oxide", "Minoxidil", "2,4-Diamino-6-piperidinopyrimidine 3-oxide", "Loniten", "2,4-Diamino-6-piperidinopyrimidine 3-N-oxide", "RiUP", "Mintop", "Rogaine", "Alostil", "Prexidil", "PDP", "Pierminox", "U 10858", "Minoximen", "Lonolox", "Alopexil", "Tricoxidil", "Normoxidil", "6-Amino-1,2-dihydro-1-hydroxy-2-imino-4-piperidinopyrimidine", "Riup X5", "2,6-Diamino-4-(piperidin-1-yl)pyrimidine 1-oxide", "2,6-Diamino-4-(piperidin-1-yl)pyrimidin-1-ium-1-olate", "2,4-Diamino-6-(1-piperidinyl)-pyrimidine-3-oxide", "Regro EX 5", "MeSH ID: D008914"], "SMILES": "NC1=CC(=NC(N)=N1=O)N2CCCCC2", "physical_data": {"Molecular Weight": "209.25", "Molecular Formula": "C9H15N5O", "Melting Point": "248 \u00b0C"}}