{"cas_no": "3832-48-2", "cn_name": "\u6eb4\u4e8c\u6c1f\u4e59\u9170\u80fa", "en_name": ["2-Bromo-2,2-difluoroacetyl chloride", "Acetyl chloride, 2-bromo-2,2-difluoro-", "Acetyl chloride, bromodifluoro-", "2-Bromo-2,2-difluoroacetyl chloride", "Bromodifluoroacetyl chloride"], "SMILES": "C(C(Cl)=O)(Br)(F)F", "physical_data": {"Molecular Weight": "193.37", "Molecular Formula": "C2BrClF2O", "Boiling Point": "50 \u00b0C"}}