{"cas_no": "38335-24-9", "cn_name": "(\u5bf9\u785d\u57fa\u82ef\u57fa)\u4e19\u916e\u9178", "en_name": ["4-Nitro-\u03b1-oxobenzenepropanoic acid", "Benzenepropanoic acid, 4-nitro-\u03b1-oxo-", "Pyruvic acid, (p-nitrophenyl)-", "4-Nitro-\u03b1-oxobenzenepropanoic acid", "NSC 28690", "(4-Nitrophenyl)pyruvic acid"], "SMILES": "C(C(C(O)=O)=O)C1=CC=C(N(=O)=O)C=C1", "physical_data": {"Molecular Weight": "209.16", "Molecular Formula": "C9H7NO5", "Melting Point": "191-193 \u00b0C"}}