{"cas_no": "38330-80-2", "cn_name": "\u4e19\u4e8c\u9178\u5355\u7532\u916f\u94be\u76d0", "en_name": ["Propanedioic acid, 1-methyl ester, potassium salt (1:1)", "Propanedioic acid, 1-methyl ester, potassium salt (1:1)", "Propanedioic acid, monomethyl ester, potassium salt", "Potassium methyl malonate", "Potassium (carbomethoxy)acetate", "Methyl potassium malonate", "Monomethyl malonate potassium salt", "Potassium monomethyl malonate", "Methyl malonate potassium salt", "Potassium methoxycarbonylacetate", "Potassium 3-methoxy-3-oxopropanoate", "3-Methoxy-3-oxopropanoic acid potassium salt"], "SMILES": "C(CC(O)=O)(OC)=O.[K]", "physical_data": {"Molecular Weight": "", "Molecular Formula": "C4H6O4.K", "Melting Point": "201-205 \u00b0C"}}