{"cas_no": "38353-09-2", "cn_name": "2-\u7f9f\u57fa\u5627\u5576\u76d0\u9178\u76d0", "en_name": ["2(1H)-Pyrimidinone, hydrochloride (1:1)", "2(1H)-Pyrimidinone, hydrochloride (1:1)", "2(1H)-Pyrimidinone, monohydrochloride", "2-Pyrimidinol, hydrochloride", "2-Hydroxypyrimidine hydrochloride", "2-Pyrimidinone hydrochloride", "Pyrimidin-2-one monohydrochloride", "2-Hydroxypyrimidine monohydrochloride", "1,2-Dihydropyrimidin-2-one hydrochloride"], "SMILES": "O=C1NC=CC=N1.Cl", "physical_data": {"Molecular Weight": "", "Molecular Formula": "C4H4N2O.ClH", "Melting Point": "203-205 \u00b0C"}}