{"cas_no": "38353-06-9", "cn_name": "5-\u6eb4-2-\u7f9f\u57fa\u5627\u5576", "en_name": ["5-Bromo-2(1H)-pyrimidinone", "2(1H)-Pyrimidinone, 5-bromo-", "2-Pyrimidinol, 5-bromo-", "5-Bromo-2(1H)-pyrimidinone", "5-Bromo-2-hydroxypyrimidine", "5-Bromo-2-pyrimidinone", "2-Oxo-5-bromopyrimidine", "NSC 528730", "2-Hydroxy-5-bromopyrimidine", "5-Bromo-1H-pyrimidin-2-one", "5-Bromopyrimidin-2-ol"], "SMILES": "BrC1=CNC(=O)N=C1", "physical_data": {"Molecular Weight": "174.98", "Molecular Formula": "C4H3BrN2O", "Melting Point": "241-243 \u00b0C"}}