{"cas_no": "38350-87-7", "cn_name": "\u5bf9\u6b63\u5e9a\u57fa\u82ef\u7532\u9178", "en_name": ["4-Heptylbenzoic acid", "Benzoic acid, 4-heptyl-", "4-Heptylbenzoic acid", "p-Heptylbenzoic acid"], "SMILES": "C(CCCCCC)C1=CC=C(C(O)=O)C=C1", "physical_data": {"Molecular Weight": "220.31", "Molecular Formula": "C14H20O2", "Melting Point": "101.5 \u00b0C"}}