{"cas_no": "38363-32-5", "cn_name": "\u55b7\u5e03\u7279\u7f57\u786b\u9178\u76d0", "en_name": ["Penbutolol sulfate", "2-Propanol, 1-(2-cyclopentylphenoxy)-3-[(1,1-dimethylethyl)amino]-, (2S)-, sulfate (2:1)", "2-Propanol, 1-(2-cyclopentylphenoxy)-3-[(1,1-dimethylethyl)amino]-, (2S)-, sulfate (2:1) (salt)", "Penbutolol sulfate", "(-)-Terbuclomine", "Levatol", "HOE 39-893d", "Paginol"], "SMILES": "S(=O)(=O)(O)O.O(CC(CNC(C)(C)C)O)C1=C(C=CC=C1)C2CCCC2", "physical_data": {"Molecular Weight": "", "Molecular Formula": "C18H29NO2.<sup>1</sup>/2H2O4S", "Melting Point": "216-218 \u00b0C (decomp)"}}