{"cas_no": "3836-23-5", "cn_name": "\u7094\u8bfa\u916e\u5e9a\u9178\u916f", "en_name": ["Norethisterone enanthate", "19-Norpregn-4-en-20-yn-3-one, 17-[(1-oxoheptyl)oxy]-, (17\u03b1)-", "19-Nor-17\u03b1-pregn-4-en-20-yn-3-one, 17-hydroxy-, heptanoate", "Heptanoic acid, ester with 17-hydroxy-19-nor-17\u03b1-pregn-4-en-20-yn-3-one", "(17\u03b1)-17-[(1-Oxoheptyl)oxy]-19-norpregn-4-en-20-yn-3-one", "Norethindrone enanthate", "Norethisterone enanthate", "17\u03b1-Ethynyl-19-nortestosterone enanthate", "17\u03b1-Ethynyl-19-nortestosterone 17-heptanoate", "Noristerat", "SH 8.0393", "Norigest", "ZK 5410", "Norethisterone heptanoate", "NSC 22846"], "SMILES": "O(C(CCCCCC)=O)C1(C#C)C2(C)C(CC1)C3C(CC2)C4C(CC3)=CC(=O)CC4", "physical_data": {"Molecular Weight": "410.59", "Molecular Formula": "C27H38O3", "Melting Point": "68-71 \u00b0C"}}