{"cas_no": "38360-81-5", "cn_name": "3,5-\u4e8c\u7532\u57fa\u82ef\u786b\u915a", "en_name": ["3,5-Dimethylbenzenethiol", "Benzenethiol, 3,5-dimethyl-", "3,5-Xylenethiol", "3,5-Dimethylbenzenethiol", "3,5-Dimethylthiophenol", "3,5-Dimethylbenzene-1-thiol"], "SMILES": "CC1=CC(C)=CC(S)=C1", "physical_data": {"Molecular Weight": "138.23", "Molecular Formula": "C8H10S", "Boiling Point": "127.5 \u00b0C @ Press: 50 Torr"}}