{"cas_no": "3837-55-6", "cn_name": "3'-\u785d\u57fa-4-\u4e8c\u7532\u6c28\u57fa\u5076\u6c2e\u82ef", "en_name": ["N,N-Dimethyl-4-[2-(3-nitrophenyl)diazenyl]benzenamine", "Benzenamine, N,N-dimethyl-4-[2-(3-nitrophenyl)diazenyl]-", "Aniline, N,N-dimethyl-p-[(m-nitrophenyl)azo]-", "Benzenamine, N,N-dimethyl-4-[(3-nitrophenyl)azo]-", "N,N-Dimethyl-4-[2-(3-nitrophenyl)diazenyl]benzenamine", "4-Dimethylamino-3\u2032-nitroazobenzene", "p-Dimethylamino-m-nitroazobenzene", "3\u2032-Nitro-N,N-dimethyl-4-aminoazobenzene", "N,N-Dimethyl-4-[(3-nitrophenyl)azo]aniline", "3-Nitro-4\u2032-dimethylaminoazobenzene", "N,N-Dimethyl-4-amino-3\u2032-nitroazobenzene", "[4-(Dimethylamino)phenyl](3-nitrophenyl)diazene", "NSC 204512", "3\u2032-Nitro-4-dimethylaminoazobenzene"], "SMILES": "N(=NC1=CC=C(N(C)C)C=C1)C2=CC(N(=O)=O)=CC=C2", "physical_data": {"Molecular Weight": "270.29", "Molecular Formula": "C14H14N4O2", "Melting Point": "157 \u00b0C"}}