{"cas_no": "38379-99-6", "cn_name": "2,2',3,5',6-\u620a\u6c2f\u8054\u82ef", "en_name": ["PCB 95", "1,1\u2032-Biphenyl, 2,2\u2032,3,5\u2032,6-pentachloro-", "2,2\u2032,3,5\u2032,6-Pentachloro-1,1\u2032-biphenyl", "2,5,2\u2032,3\u2032,6\u2032-Pentachlorobiphenyl", "2,3,6,2\u2032,5\u2032-Pentachlorobiphenyl", "2,2\u2032,3,5\u2032,6-Pentachlorobiphenyl", "2,2\u2032,3\u2032,5,6\u2032-Pentachlorobiphenyl", "PCB 95", "(\u00b1)-PCB 95"], "SMILES": "ClC1=C(C(Cl)=CC=C1Cl)C2=C(Cl)C=CC(Cl)=C2", "physical_data": {"Molecular Weight": "326.43", "Molecular Formula": "C12H5Cl5", "Melting Point": "91-92 \u00b0C"}}