{"cas_no": "38380-05-1", "cn_name": "2,2',3,3',4,6'-\u516d\u6c2f\u8054\u82ef", "en_name": ["PCB 132", "1,1\u2032-Biphenyl, 2,2\u2032,3,3\u2032,4,6\u2032-hexachloro-", "2,2\u2032,3,3\u2032,4,6\u2032-Hexachloro-1,1\u2032-biphenyl", "2,3,4,2\u2032,3\u2032,6\u2032-Hexachlorobiphenyl", "2,2\u2032,3,3\u2032,4,6\u2032-Hexachlorobiphenyl", "PCB 132", "2,3,6,2\u2032,3\u2032,4\u2032-Hexachlorobiphenyl", "CB 132", "(\u00b1)-PCB 132"], "SMILES": "ClC1=C(C(Cl)=CC=C1Cl)C2=C(Cl)C(Cl)=C(Cl)C=C2", "physical_data": {"Molecular Weight": "360.88", "Molecular Formula": "C12H4Cl6", "Melting Point": "112-114 \u00b0C"}}