{"cas_no": "38380-03-9", "cn_name": "2,3,3',4',6-\u4e94\u6c2f\u8054\u82ef\u919a", "en_name": ["PCB 110", "1,1\u2032-Biphenyl, 2,3,3\u2032,4\u2032,6-pentachloro-", "2,3,3\u2032,4\u2032,6-Pentachloro-1,1\u2032-biphenyl", "3,4,2\u2032,3\u2032,6\u2032-Pentachlorobiphenyl", "2,3,3\u2032,4\u2032,6-Pentachlorobiphenyl", "2\u2032,3,3\u2032,4,6\u2032-Pentachlorobiphenyl", "2,3,6,3\u2032,4\u2032-Pentachlorobiphenyl", "PCB 110"], "SMILES": "ClC1=C(C(Cl)=CC=C1Cl)C2=CC(Cl)=C(Cl)C=C2", "physical_data": {"Molecular Weight": "326.43", "Molecular Formula": "C12H5Cl5", "Boiling Point": "193-215 \u00b0C"}}