{"cas_no": "38380-08-4", "cn_name": "\u591a\u6c2f\u8054\u82ef", "en_name": ["PCB 156", "1,1\u2032-Biphenyl, 2,3,3\u2032,4,4\u2032,5-hexachloro-", "2,3,3\u2032,4,4\u2032,5-Hexachloro-1,1\u2032-biphenyl", "3,4,2\u2032,3\u2032,4\u2032,5\u2032-Hexachlorobiphenyl", "2,3,3\u2032,4,4\u2032,5-Hexachlorobiphenyl", "2,3,4,5,3\u2032,4\u2032-Hexachlorobiphenyl", "2,3,4,4\u2032,5,5\u2032-Hexachlorobiphenyl", "PCB 156", "CB 156", "2,3,3\u2032,4,4\u2032,5-HxCB"], "SMILES": "ClC1=C(C=C(Cl)C(Cl)=C1Cl)C2=CC(Cl)=C(Cl)C=C2", "physical_data": {"Molecular Weight": "360.88", "Molecular Formula": "C12H4Cl6", "Boiling Point": "199-212 \u00b0C"}}