{"cas_no": "38385-95-4", "cn_name": "2-(4-\u54cc\u5576)-1H-\u82ef\u5e76\u54aa\u5511", "en_name": ["2-(4-Piperidinyl)-1H-benzimidazole", "1H-Benzimidazole, 2-(4-piperidinyl)-", "2-(4-Piperidinyl)-1H-benzimidazole", "4-(Benzimidazol-2-yl)piperidine", "2-Piperidin-4-yl-1H-benzimidazole", "2-(Piperidin-4-yl)benzimidazole", "2-(4-Piperidyl)-1H-benzimidazole", "2-(Piperidin-4-yl)-1H-benzo[d]imidazole", "2-(Piperidin-4-yl)-1H-1,3-benzodiazole"], "SMILES": "C=1(NC=2C(N1)=CC=CC2)C3CCNCC3", "physical_data": {"Molecular Weight": "201.27", "Molecular Formula": "C12H15N3", "Melting Point": "230 \u00b0C (decomp)"}}