{"cas_no": "3839-48-3", "cn_name": "2-\u6c2f-2,4,6-\u73af\u5e9a\u4e09\u70ef-1-\u916e", "en_name": ["2-Chloro-2,4,6-cycloheptatrien-1-one", "2,4,6-Cycloheptatrien-1-one, 2-chloro-", "2-Chloro-2,4,6-cycloheptatrien-1-one", "2-Chlorotropone", "2-Chlorocycloheptatrienone", "2-Chlorocyclohepta-2,4,6-trienone", "NSC 328816"], "SMILES": "ClC=1C(=O)C=CC=CC1", "physical_data": {"Molecular Weight": "140.57", "Molecular Formula": "C7H5ClO", "Boiling Point": "79-82 \u00b0C @ Press: 0.01 Torr", "Melting Point": "63-64 \u00b0C"}}