{"cas_no": "38396-39-3", "cn_name": "\u4e01\u5421\u5361\u56e0", "en_name": ["Bupivacaine", "2-Piperidinecarboxamide, 1-butyl-N-(2,6-dimethylphenyl)-", "2-Piperidinecarboxamide, 1-butyl-N-(2,6-dimethylphenyl)-, (\u00b1)-", "1-Butyl-N-(2,6-dimethylphenyl)-2-piperidinecarboxamide", "DL-Bupivacaine", "(\u00b1)-Bupivacaine", "Win 11318", "1-Butyl-2\u2032,6\u2032-pipecoloxylidide", "Bupivacaine", "Carbostesin", "Marcaine", "Bupivan", "Anekain", "Bucain", "SKY 0402", "Exparel", "RS-Bupivacaine", "Bloccoc", "MeSH ID: D002045"], "SMILES": "C(NC1=C(C)C=CC=C1C)(=O)C2N(CCCC)CCCC2", "physical_data": {"Molecular Weight": "288.43", "Molecular Formula": "C18H28N2O", "Melting Point": "107-108 \u00b0C"}}