{"cas_no": "384-22-5", "cn_name": "2-\u785d\u57fa\u4e09\u6c1f\u7532\u82ef", "en_name": ["2-Nitrobenzotrifluoride", "Benzene, 1-nitro-2-(trifluoromethyl)-", "Toluene, \u03b1,\u03b1,\u03b1-trifluoro-o-nitro-", "1-Nitro-2-(trifluoromethyl)benzene", "o-Nitrobenzotrifluoride", "2-Nitro-\u03b1,\u03b1,\u03b1-trifluorotoluene", "\u03b1,\u03b1,\u03b1-Trifluoro-o-nitrotoluene", "o-(Trifluoromethyl)nitrobenzene", "2-(Trifluoromethyl)nitrobenzene", "2-Nitrobenzotrifluoride"], "SMILES": "C(F)(F)(F)C1=C(N(=O)=O)C=CC=C1", "physical_data": {"Molecular Weight": "191.11", "Molecular Formula": "C7H4F3NO2", "Boiling Point": "217 \u00b0C", "Melting Point": "32.5 \u00b0C"}}