{"cas_no": "3840-30-0", "cn_name": "3,4,5-\u4e09\u7532\u6c27\u57fa\u82c4\u6c2f", "en_name": ["3,4,5-Trimethoxybenzyl chloride", "Benzene, 5-(chloromethyl)-1,2,3-trimethoxy-", "Toluene, \u03b1-chloro-3,4,5-trimethoxy-", "5-(Chloromethyl)-1,2,3-trimethoxybenzene", "3,4,5-Trimethoxybenzyl chloride", "NSC 100940", "1-(Chloromethyl)-3,4,5-trimethoxybenzene"], "SMILES": "O(C)C1=C(OC)C=C(CCl)C=C1OC", "physical_data": {"Molecular Weight": "216.66", "Molecular Formula": "C10H13ClO3", "Boiling Point": "110 \u00b0C @ Press: 0.1 Torr", "Melting Point": "60-62 \u00b0C"}}