{"cas_no": "38401-71-7", "cn_name": "5-(4-\u6c2f\u82ef\u57fa)\u567b\u5429-2-\u7532\u919b", "en_name": ["5-(4-Chlorophenyl)-2-thiophenecarboxaldehyde", "2-Thiophenecarboxaldehyde, 5-(4-chlorophenyl)-", "5-(4-Chlorophenyl)-2-thiophenecarboxaldehyde", "5-(p-Chlorophenyl)-2-thiophenecarboxaldehyde"], "SMILES": "C(=O)C=1SC(=CC1)C2=CC=C(Cl)C=C2", "physical_data": {"Molecular Weight": "222.69", "Molecular Formula": "C11H7ClOS", "Melting Point": "88-89 \u00b0C"}}