{"cas_no": "3840-31-1", "cn_name": "3,4,5-\u4e09\u7532\u6c27\u57fa\u82c4\u9187", "en_name": ["3,4,5-Trimethoxybenzyl alcohol", "Benzenemethanol, 3,4,5-trimethoxy-", "Benzyl alcohol, 3,4,5-trimethoxy-", "3,4,5-Trimethoxybenzenemethanol", "3,4,5-Trimethoxybenzyl alcohol", "NSC 53949", "3,4,5-Trimethoxyphenylmethanol"], "SMILES": "O(C)C1=C(OC)C=C(CO)C=C1OC", "physical_data": {"Molecular Weight": "198.22", "Molecular Formula": "C10H14O4", "Boiling Point": "145-150 \u00b0C @ Press: 0.4 Torr", "Melting Point": "36-38 \u00b0C", "Density": "1.1427 g/cm\u00b3"}}