{"cas_no": "3840-18-4", "cn_name": "2-\u7532\u57fa-2'-\u6c28\u57fa\u4e8c\u82ef\u919a", "en_name": ["2-(o-Tolyloxy)aniline", "Benzenamine, 2-(2-methylphenoxy)-", "Aniline, o-(o-tolyloxy)-", "2-(2-Methylphenoxy)benzenamine", "o-(o-Tolyloxy)aniline", "2-Amino-2\u2032-methyldiphenyl ether", "2-(o-Tolyloxy)aniline", "NSC 163942", "2-(o-Tolyloxy)benzenamine", "2-(2-Methylphenoxy)aniline"], "SMILES": "O(C1=C(C)C=CC=C1)C2=C(N)C=CC=C2", "physical_data": {"Molecular Weight": "199.25", "Molecular Formula": "C13H13NO", "Boiling Point": "110 \u00b0C @ Press: 0.015 Torr"}}