{"cas_no": "38412-46-3", "cn_name": "\u82a6\u835f\u5b81", "en_name": ["Aloenin", "2H-Pyran-2-one, 6-[2-(\u03b2-D-glucopyranosyloxy)-4-hydroxy-6-methylphenyl]-4-methoxy-", "6-[2-(\u03b2-D-Glucopyranosyloxy)-4-hydroxy-6-methylphenyl]-4-methoxy-2H-pyran-2-one", "Aloenin", "Aloearbonaside", "Aloenin A"], "SMILES": "O(C1=C(C(C)=CC(O)=C1)C2=CC(OC)=CC(=O)O2)C3OC(CO)C(O)C(O)C3O", "physical_data": {"Molecular Weight": "410.37", "Molecular Formula": "C19H22O10", "Melting Point": "145-147 \u00b0C"}}