{"cas_no": "3842-55-5", "cn_name": "2-\u6c2f-4,6-\u4e8c\u82ef\u57fa-1,3,5-\u4e09\u55ea", "en_name": ["2-Chloro-4,6-diphenyl-1,3,5-triazine", "1,3,5-Triazine, 2-chloro-4,6-diphenyl-", "s-Triazine, 2-chloro-4,6-diphenyl-", "2-Chloro-4,6-diphenyl-1,3,5-triazine", "2-Chloro-4,6-bisphenyl-1,3,5-triazine", "6-Chloro-2,4-diphenyl-s-triazine", "2-Chloro-4,6-diphenyl-s-triazine", "NSC 231670", "2-Chloro-4,6-diphenyltriazine", "2-Chlorodiphenyl-1,3,5-triazine"], "SMILES": "ClC=1N=C(N=C(N1)C2=CC=CC=C2)C3=CC=CC=C3", "physical_data": {"Molecular Weight": "267.71", "Molecular Formula": "C15H10ClN3", "Melting Point": "135-136 \u00b0C"}}