{"cas_no": "3842-03-3", "cn_name": "1,1-\u4e8c\u4e59\u6c27\u57fa-3-\u7532\u57fa\u4e01\u70f7", "en_name": ["1,1-Diethoxy-3-methylbutane", "Butane, 1,1-diethoxy-3-methyl-", "Isovaleraldehyde, diethyl acetal", "1,1-Diethoxy-3-methylbutane", "1,1-Diethoxyisopentane"], "SMILES": "C(CC(C)C)(OCC)OCC", "physical_data": {"Molecular Weight": "160.25", "Molecular Formula": "C9H20O2", "Boiling Point": "167-168 \u00b0C @ Press: 750 Torr", "Density": "0.8356 g/cm\u00b3 @ Temp: 20 \u00b0C"}}