{"cas_no": "38421-90-8", "cn_name": "(E)-5-\u7678\u70ef-1-\u9187\u4e59\u9178\u916f", "en_name": ["(E)-5-Decenyl acetate", "5-Decen-1-ol, 1-acetate, (5E)-", "5-Decen-1-ol, acetate, (E)-", "5-Decen-1-ol, acetate, (5E)-", "trans-5-Decenyl acetate", "(E)-5-Decenyl acetate", "E-5-Decen-1-yl acetate", "(E)-5-Decen-1-ol acetate", "(5E)-5-Decen-1-ol acetate"], "SMILES": "C(CCC=CCCCC)COC(C)=O", "physical_data": {"Molecular Weight": "198.30", "Molecular Formula": "C12H22O2", "Boiling Point": "85-105 \u00b0C"}}