{"cas_no": "3843-74-1", "cn_name": "\u5496\u5561\u9178\u7532\u916f", "en_name": ["Methyl caffeate", "2-Propenoic acid, 3-(3,4-dihydroxyphenyl)-, methyl ester", "Cinnamic acid, 3,4-dihydroxy-, methyl ester", "Methyl caffeate", "Caffeic acid methyl ester", "Methyl 3,4-dihydroxycinnamate", "Methyl caffeoate"], "SMILES": "C(=CC(OC)=O)C1=CC(O)=C(O)C=C1", "physical_data": {"Molecular Weight": "194.18", "Molecular Formula": "C10H10O4", "Boiling Point": "112-115 \u00b0C @ Press: 1 x 10<sup>-3</sup> Torr", "Melting Point": "152-153 \u00b0C"}}