{"cas_no": "38439-33-7", "cn_name": "4-\u7532\u57fa-2,6-\u4e8c\u6c28\u57fa\u5421\u5576", "en_name": ["4-Methyl-2,6-pyridinediamine", "2,6-Pyridinediamine, 4-methyl-", "4-Picoline, 2,6-diamino-", "4-Methyl-2,6-pyridinediamine", "2,6-Diamino-4-methylpyridine", "4-Methylpyridine-2,6-diamine"], "SMILES": "CC=1C=C(N)N=C(N)C1", "physical_data": {"Molecular Weight": "123.16", "Molecular Formula": "C6H9N3", "Melting Point": "85-86 \u00b0C"}}