{"cas_no": "3844-54-0", "cn_name": "H-NLE-OME\u76d0\u9178\u76d0", "en_name": ["L-Norleucine, methyl ester, hydrochloride (1:1)", "L-Norleucine, methyl ester, hydrochloride (1:1)", "L-Norleucine, methyl ester, hydrochloride", "Norleucine, methyl ester, hydrochloride, L-", "Methyl (2S)-2-aminohexanoate hydrochloride", "Methyl L-norleucinate hydrochloride", "(S)-2-Aminohexanoic acid methyl ester hydrochloride"], "SMILES": "C(C(OC)=O)(CCCC)N.Cl", "physical_data": {"Molecular Weight": "", "Molecular Formula": "C7H15NO2.ClH", "Melting Point": "55-57 \u00b0C"}}