{"cas_no": "3844-94-8", "cn_name": "1-\u4e09\u7532\u57fa\u7845\u57fa-1-\u5df1\u7094", "en_name": ["1-Hexyn-1-yltrimethylsilane", "Silane, 1-hexyn-1-yltrimethyl-", "Silane, 1-hexynyltrimethyl-", "1-Hexyn-1-yltrimethylsilane", "1-(Trimethylsilyl)-1-hexyne", "Butyl(trimethylsilyl)acetylene", "1-(Trimethylsilyl)-2-butylacetylene", "1-Hexynyltrimethylsilane", "1-Butyl-2-trimethylsilylacetylene"], "SMILES": "C(#C[Si](C)(C)C)CCCC", "physical_data": {"Molecular Weight": "154.32", "Molecular Formula": "C9H18Si", "Boiling Point": "155 \u00b0C", "Density": "0.770 g/cm\u00b3"}}