{"cas_no": "38444-86-9", "cn_name": "2',3,4-\u4e09\u6c2f\u8054\u82ef", "en_name": ["PCB 33", "1,1\u2032-Biphenyl, 2,3\u2032,4\u2032-trichloro-", "Biphenyl, 2\u2032,3,4-trichloro-", "2,3\u2032,4\u2032-Trichloro-1,1\u2032-biphenyl", "3,4,2\u2032-Trichlorobiphenyl", "2,3\u2032,4\u2032-Trichlorobiphenyl", "2\u2032,3,4-Trichlorobiphenyl", "PCB 33", "2\u2032,3,4-Trichloro-1,1\u2032-biphenyl"], "SMILES": "ClC1=C(C=CC=C1)C2=CC(Cl)=C(Cl)C=C2", "physical_data": {"Molecular Weight": "257.54", "Molecular Formula": "C12H7Cl3", "Melting Point": "65-66 \u00b0C"}}