{"cas_no": "38444-85-8", "cn_name": "2,3,4'-\u4e09\u6c2f\u8054\u82ef\u919a", "en_name": ["2,3,4\u2032-Trichlorobiphenyl", "1,1\u2032-Biphenyl, 2,3,4\u2032-trichloro-", "Biphenyl, 2,3,4\u2032-trichloro-", "2,3,4\u2032-Trichloro-1,1\u2032-biphenyl", "2,3,4\u2032-Trichlorobiphenyl", "4,2\u2032,3\u2032-Trichlorobiphenyl", "PCB 22"], "SMILES": "ClC1=C(C=CC=C1Cl)C2=CC=C(Cl)C=C2", "physical_data": {"Molecular Weight": "257.54", "Molecular Formula": "C12H7Cl3", "Melting Point": "97-99 \u00b0C"}}