{"cas_no": "3844-53-9", "cn_name": "L-\u8d56\u6c28\u9178\u4e59\u916f\u4e8c\u76d0\u9178\u76d0", "en_name": ["L-Lysine, ethyl ester, hydrochloride (1:2)", "L-Lysine, ethyl ester, hydrochloride (1:2)", "Lysine, ethyl ester, dihydrochloride, L-", "L-Lysine, ethyl ester, dihydrochloride", "Lysine ethyl ester dihydrochloride", "NSC 162742"], "SMILES": "C(C(OCC)=O)(CCCCN)N.Cl", "physical_data": {"Molecular Weight": "", "Molecular Formula": "C8H18N2O2.2ClH", "Melting Point": "136-137 \u00b0C"}}