{"cas_no": "38452-47-0", "cn_name": "1,2-DICHLORO-4-METHYLSULFONYLBENZENE", "en_name": ["1,2-Dichloro-4-(methylsulfonyl)benzene", "Benzene, 1,2-dichloro-4-(methylsulfonyl)-", "Sulfone, 3,4-dichlorophenyl methyl", "1,2-Dichloro-4-(methylsulfonyl)benzene"], "SMILES": "S(C)(=O)(=O)C1=CC(Cl)=C(Cl)C=C1", "physical_data": {"Molecular Weight": "225.09", "Molecular Formula": "C7H6Cl2O2S", "Melting Point": "109 \u00b0C"}}