{"cas_no": "3845-64-5", "cn_name": "N-(\u53d4\u4e01\u6c27\u7fb0\u57fa)-L-\u86cb\u6c28\u9178N-\u7425\u73c0\u9170\u4e9a\u80fa\u916f", "en_name": ["L-Methionine, N-[(1,1-dimethylethoxy)carbonyl]-, 2,5-dioxo-1-pyrrolidinyl ester", "L-Methionine, N-[(1,1-dimethylethoxy)carbonyl]-, 2,5-dioxo-1-pyrrolidinyl ester", "Succinimide, N-[(N-carboxy-L-methionyl)oxy]-, tert-butyl ester", "Carbamic acid, [1-[[(2,5-dioxo-1-pyrrolidinyl)oxy]carbonyl]-3-(methylthio)propyl]-, 1,1-dimethylethyl ester, (S)-", "Carbamic acid, [(1S)-1-[[(2,5-dioxo-1-pyrrolidinyl)oxy]carbonyl]-3-(methylthio)propyl]-, 1,1-dimethylethyl ester", "Methionine, N-carboxy-, N-tert-butyl ester, succinimido deriv., L-", "N-(tert-Butyloxycarbonyl)-L-methionine ester with N-hydroxysuccinimide", "NSC 343722", "BOC-Met-NHS", "Boc-Met-OSu", "(2,5-Dioxopyrrolidin-1-yl) (2S)-2-[(2-methylpropan-2-yl)oxycarbonylamino]-4-methylsulfanylbutanoate"], "SMILES": "O(C(C(NC(OC(C)(C)C)=O)CCSC)=O)N1C(=O)CCC1=O", "physical_data": {"Molecular Weight": "346.40", "Molecular Formula": "C14H22N2O6S", "Melting Point": "128-129 \u00b0C"}}