{"cas_no": "3845-76-9", "cn_name": "\u4e8c\u7532\u80fa\u57fa\u4e19\u57fa\u4e19\u70ef\u9170\u80fa", "en_name": ["N-[3-(Dimethylamino)propyl]acrylamide", "2-Propenamide, N-[3-(dimethylamino)propyl]-", "Acrylamide, N-[3-(dimethylamino)propyl]-", "N-[3-(Dimethylamino)propyl]-2-propenamide", "3-(N,N-Dimethylaminopropyl)acrylamide", "N-[3-(Dimethylamino)propyl]acrylamide", "Dimethyl(3-acrylamidopropyl)amine", "Acrylamidopropyldimethylamine", "[3-(Acryloylamino)propyl]dimethylamine", "Acrylamido-3-N,N-dimethylpropylamine", "DMAPAA", "N-[3-(N,N-Dimethylamino)propyl]acrylamide", "DMAPAA-MHQ", "Kohshylmer DMAPAA"], "SMILES": "N(CCCN(C)C)C(C=C)=O", "physical_data": {"Molecular Weight": "156.23", "Molecular Formula": "C8H16N2O", "Boiling Point": "106-108 \u00b0C @ Press: 1 Torr"}}