{"cas_no": "38465-55-3", "cn_name": "\u53cc(4-\u4e8c\u7532\u6c28\u57fa\u4e8c\u786b\u4ee3\u4e8c\u82ef\u4e59\u4e8c\u916e)\u5408\u954d", "en_name": ["Bis[1-[4-(dimethylamino)phenyl]-2-phenyl-1,2-ethenedithiolato(2-)-\u03baS1,\u03baS2]nickel", "Nickel, bis[1-[4-(dimethylamino)phenyl]-2-phenyl-1,2-ethenedithiolato(2-)-\u03baS1,\u03baS2]-", "Nickel, bis[1-[4-(dimethylamino)phenyl]-2-phenyl-1,2-ethenedithiolato(2-)-S,S\u2032]-", "Nickel, bis[1-[4-(dimethylamino)phenyl]-2-phenyl-1,2-ethenedithiolato(2-)-\u03baS,\u03baS\u2032]-", "1,2-Ethenedithiol, 1-[4-(dimethylamino)phenyl]-2-phenyl-, nickel complex, (Z)-", "Bis[1-[4-(dimethylamino)phenyl]-2-phenyl-1,2-ethenedithiolato(2-)-\u03baS1,\u03baS2]nickel", "Bis(4-dimethylaminodithiobenzil)nickel", "Bis(4-dimethylaminodithiobenzil)nickel(II)", "Kodak 14015", "BDN", "BDN-I", "Dye 14015", "BDN (laser dye)", "B 4361"], "SMILES": "N(C)(C)C1=CC=C(C=2S[Ni]3(SC(=C(S3)C4=CC=CC=C4)C5=CC=C(N(C)C)C=C5)SC2C6=CC=CC=C6)C=C1", "physical_data": {"Molecular Weight": "", "Molecular Formula": "C32H30N2NiS4", "Melting Point": "277 \u00b0C"}}