{"cas_no": "38460-95-6", "cn_name": "10-\u5341\u4e00\u78b3\u70ef\u57fa\u6c2f\u9178", "en_name": ["10-Undecenoyl chloride", "10-Undecenoyl chloride", "10-Undecylenoyl chloride", "\u03c9-Undecylenic acid chloride", "10-Hendecenoyl chloride", "\u03c9-Undecenoyl chloride", "NSC 155178", "Undec-10-enoyl chloride"], "SMILES": "C(CCCCC=C)CCCC(Cl)=O", "physical_data": {"Molecular Weight": "202.72", "Molecular Formula": "C11H19ClO", "Boiling Point": "102 \u00b0C @ Press: 2 Torr"}}