{"cas_no": "3846-73-9", "cn_name": "4-\u7532\u57fa-8-\u7f9f\u57fa\u55b9\u5549", "en_name": ["4-Methyl-8-hydroxyquinoline", "8-Quinolinol, 4-methyl-", "4-Methyl-8-quinolinol", "8-Hydroxylepidine", "4-Methyl-8-hydroxyquinoline", "8-Hydroxy-4-methylquinoline", "NSC 402584"], "SMILES": "CC=1C2=C(C(O)=CC=C2)N=CC1", "physical_data": {"Molecular Weight": "159.18", "Molecular Formula": "C10H9NO", "Boiling Point": "65-66 \u00b0C @ Press: 0.2 mmHg", "Melting Point": "141 \u00b0C"}}