{"cas_no": "38469-84-0", "cn_name": "2-\u785d\u57fa-5-\u7532\u6c27\u57fa\u82ef\u8148", "en_name": ["5-Methoxy-2-nitrobenzonitrile", "Benzonitrile, 5-methoxy-2-nitro-", "5-Methoxy-2-nitrobenzonitrile", "NSC 263768"], "SMILES": "C(#N)C1=C(N(=O)=O)C=CC(OC)=C1", "physical_data": {"Molecular Weight": "178.14", "Molecular Formula": "C8H6N2O3", "Melting Point": "96 \u00b0C"}}