{"cas_no": "3846-71-7", "cn_name": "\u7d2b\u5916\u7ebf\u5438\u6536\u5242 UV-320", "en_name": ["2-(2\u2032-Hydroxy-3\u20325-di-tert-butylphenyl) benzotriazole", "Phenol, 2-(2H-benzotriazol-2-yl)-4,6-bis(1,1-dimethylethyl)-", "Phenol, 2-(2H-benzotriazol-2-yl)-4,6-di-tert-butyl-", "2-(2H-Benzotriazol-2-yl)-4,6-bis(1,1-dimethylethyl)phenol", "Tinuvin 320", "2-(2\u2032-Hydroxy-3\u2032,5\u2032-di-tert-butylphenyl)benzotriazole", "2-(2-Hydroxy-3,5-di-tert-butylphenyl)benzotriazole", "2-(2-Benzotriazolyl)-4,6-di-tert-butylphenol", "2-(3,5-Di-tert-butyl-2-hydroxyphenyl)benzotriazole", "2-(3,5-Di-tert-butyl-2-hydroxyphenyl)-2H-benzotriazole", "Sumisorb 320", "Viosorb 582", "Kemisorb 75", "Seesorb 705", "2-(3\u2032,5\u2032-Di-tert-butyl-2\u2032-hydroxyphenyl)benzotriazole", "Eversorb 77", "2-(2-Hydroxy-3,5-di-tert-butylphenyl)-2H-benzotriazole", "2-(2\u2032-Hydroxy-3\u2032,5\u2032-di-t-butylphenyl)benzotriazole", "2-(2\u2032-Hydroxy-3\u20325-di-tert-butylphenyl) benzotriazole", "UV 320", "Chisorb 320", "2-(2H-Benzo[d][1,2,3]triazol-2-yl)-4,6-di-tert-butylphenol", "2-(Benzotriazol-2-yl)-4,6-ditert-butylphenol", "2-(2\u2032-Hydroxy-3\u2032,5\u2032-di-tert-butylphenyl)-2H-benzotriazole"], "SMILES": "OC1=C(C=C(C(C)(C)C)C=C1C(C)(C)C)N2N=C3C(=N2)C=CC=C3", "physical_data": {"Molecular Weight": "323.43", "Molecular Formula": "C20H25N3O", "Melting Point": "148.5-149.6 \u00b0C"}}