{"cas_no": "38462-22-5", "cn_name": "8-\u5def\u57fa\u9a6c\u6765\u916e", "en_name": ["p-Mentha-8-thiol-3-one", "Cyclohexanone, 2-(1-mercapto-1-methylethyl)-5-methyl-", "2-(1-Mercapto-1-methylethyl)-5-methylcyclohexanone", "Mangone", "p-Mentha-8-thiol-3-one", "5-Methyl-2-(2-sulfanylpropan-2-yl)cyclohexan-1-one", "2-(2-Mercaptopropan-2-yl)-5-methylcyclohexan-1-one", "2-(2-Mercaptopropan-2-yl)-5-methylcyclohexanone", "8-Mercaptomenthone"], "SMILES": "C(C)(C)(S)C1C(=O)CC(C)CC1", "physical_data": {"Molecular Weight": "186.31", "Molecular Formula": "C10H18OS", "Boiling Point": "120 \u00b0C @ Press: 10 Torr"}}