{"cas_no": "38464-04-9", "cn_name": "3,4-\u4e8c\u4e59\u6c27\u57fa\u82ef\u4e59\u9178", "en_name": ["3,4-Diethoxybenzeneacetic acid", "Benzeneacetic acid, 3,4-diethoxy-", "Acetic acid, (3,4-diethoxyphenyl)-", "3,4-Diethoxybenzeneacetic acid", "3,4-Diethoxyphenylacetic acid", "2-(3,4-Diethoxyphenyl)acetic acid"], "SMILES": "O(CC)C1=C(OCC)C=CC(CC(O)=O)=C1", "physical_data": {"Molecular Weight": "224.25", "Molecular Formula": "C12H16O4", "Melting Point": "79-80 \u00b0C"}}