{"cas_no": "3847-29-8", "cn_name": "\u4e73\u7cd6\u9178\u963f\u5947\u9709\u7d20", "en_name": ["Erythromycin lactobionate", "Erythromycin, 4-O-\u03b2-D-galactopyranosyl-D-gluconate (1:1)", "Erythromycin, 4-O-\u03b2-D-galactopyranosyl-D-gluconate (salt)", "Lactobionic acid, compd. with erythromycin (1:1)", "Erythromycin, compd. with lactobionic acid", "Erythromycin, lactobionate (1:1) (salt)", "D-Gluconic acid, 4-O-\u03b2-D-galactopyranosyl-, compd. with erythromycin (1:1)", "Oxacyclotetradecane, erythromycin deriv.", "Erythromycin lactobionate", "Erythrocin lactobionate"], "SMILES": "C(OC1OC(CO)C(O)C(O)C1O)(C(C(C(O)=O)O)O)C(CO)O.O(C1C(C)C(OC2CC(OC)(C)C(O)C(C)O2)C(C)C(=O)OC(CC)C(C)(O)C(O)C(C)C(=O)C(C)CC1(C)O)C3C(O)C(N(C)C)CC(C)O3", "physical_data": {"Molecular Weight": "", "Molecular Formula": "C37H67NO13.C12H22O12", "Melting Point": "145-150 \u00b0C"}}