{"cas_no": "3848-24-6", "cn_name": "2,3-\u5df2\u4e8c\u916e", "en_name": ["2,3-Hexanedione", "2,3-Hexanedione", "Acetylbutyryl", "NSC 31665"], "SMILES": "C(CCC)(C(C)=O)=O", "physical_data": {"Molecular Weight": "114.14", "Molecular Formula": "C6H10O2", "Boiling Point": "128-130 \u00b0C", "Density": "0.9353 g/cm\u00b3 @ Temp: 20 \u00b0C"}}