{"cas_no": "38487-86-4", "cn_name": "2-\u6c28\u57fa-4-\u6c2f\u82ef\u8148", "en_name": ["2-Amino-4-chlorobenzonitrile", "Benzonitrile, 2-amino-4-chloro-", "Anthranilonitrile, 4-chloro-", "2-Amino-4-chlorobenzonitrile", "5-Chloro-2-cyanoaniline", "4-Chloroanthranilonitrile", "4-Chloro-2-aminobenzonitrile"], "SMILES": "C(#N)C1=C(N)C=C(Cl)C=C1", "physical_data": {"Molecular Weight": "152.58", "Molecular Formula": "C7H5ClN2", "Melting Point": "161 \u00b0C"}}