{"cas_no": "38496-18-3", "cn_name": "2,6-\u4e8c\u6c2f\u70df\u9178", "en_name": ["2,6-Dichloronicotinic acid", "3-Pyridinecarboxylic acid, 2,6-dichloro-", "2,6-Dichloro-3-pyridinecarboxylic acid", "2,6-Dichloronicotinic acid", "AC 39661"], "SMILES": "C(O)(=O)C1=C(Cl)N=C(Cl)C=C1", "physical_data": {"Molecular Weight": "192.00", "Molecular Formula": "C6H3Cl2NO2", "Melting Point": "143-147 \u00b0C"}}