{"cas_no": "3849-21-6", "cn_name": "2-\u809f\u6c30\u4e59\u9178\u4e59\u916f", "en_name": ["Ethyl 2-cyano-2-(hydroxyimino)acetate", "Acetic acid, 2-cyano-2-(hydroxyimino)-, ethyl ester", "Glyoxylic acid, cyano-, ethyl ester, 2-oxime", "Acetic acid, cyano(hydroxyimino)-, ethyl ester", "Glyoxylic acid, cyano-, ethyl ester, oxime", "Ethyl cyanoglyoxylate oxime", "Ethyl 2-hydroxyimino-2-cyanoacetate", "Ethyl \u03b1-cyano-\u03b1-oximinoacetate", "Ethyl cyano(hydroxyimino)acetate", "Ethyl 2-cyano-2-(hydroxyimino)ethanoate", "Ethyl 2-(hydroxyimino)cyanoacetate", "Ethyl cyanoglyoxylate-2-oxime", "NSC 137667", "NSC 41021", "NSC 42116", "Ethyl 2-cyano-2-oximinoacetate", "2-Cyano-2-(hydroxyimino)acetic acid ethyl ester", "Ethyl 2-cyano-2-(hydroxyimino)acetate", "Oxyma", "Oxyma Pure", "Ethyl 2-cyano-2-oxidoiminoacetate"], "SMILES": "C(C(OCC)=O)(C#N)=NO", "physical_data": {"Molecular Weight": "142.11", "Molecular Formula": "C5H6N2O3", "Boiling Point": "106 \u00b0C @ Press: 10 Torr", "Melting Point": "129 \u00b0C"}}