{"cas_no": "3849-33-0", "cn_name": "1,1,1,2,3,3,3-\u4e03\u6c2f\u4e19\u70f7", "en_name": ["1,1,1,2,3,3,3-Heptachloropropane", "Propane, 1,1,1,2,3,3,3-heptachloro-", "1,1,1,2,3,3,3-Heptachloropropane"], "SMILES": "C(C(Cl)(Cl)Cl)(C(Cl)(Cl)Cl)Cl", "physical_data": {"Molecular Weight": "285.21", "Molecular Formula": "C3HCl7", "Boiling Point": "249 \u00b0C", "Melting Point": "11 \u00b0C"}}