{"cas_no": "385-00-2", "cn_name": "2,6-\u4e8c\u6c1f\u82ef\u7532\u9178", "en_name": ["2,6-Difluorobenzoic acid", "Benzoic acid, 2,6-difluoro-", "2,6-Difluorobenzoic acid", "NSC 126584"], "SMILES": "C(O)(=O)C1=C(F)C=CC=C1F", "physical_data": {"Molecular Weight": "158.10", "Molecular Formula": "C7H4F2O2", "Melting Point": "159 \u00b0C"}}