{"cas_no": "385-01-3", "cn_name": "3-\u6c1f-2-\u785d\u57fa\u82ef\u915a", "en_name": ["3-Fluoro-2-nitrophenol", "Phenol, 3-fluoro-2-nitro-", "3-Fluoro-2-nitrophenol", "2-Nitro-3-fluorophenol"], "SMILES": "N(=O)(=O)C1=C(F)C=CC=C1O", "physical_data": {"Molecular Weight": "157.10", "Molecular Formula": "C6H4FNO3", "Melting Point": "39 \u00b0C"}}