{"cas_no": "3850-30-4", "cn_name": "2-\u6c28\u57fa-3\uff0c3-\u4e8c\u7532\u57fa\u4e01\u70f7", "en_name": ["2-Amino-3,3-dimethylbutane", "2-Butanamine, 3,3-dimethyl-", "Propylamine, 1,2,2-trimethyl-", "3,3-Dimethyl-2-butanamine", "3,3-Dimethyl-2-aminobutane", "2-Amino-3,3-dimethylbutane", "3,3-Dimethylbut-2-ylamine", "3-Amino-2,2-dimethylbutane", "1,2,2-Trimethylpropylamine", "1,2,2-Trimethylpropanamine", "dl-3,3-Dimethyl-2-aminobutane", "(\u00b1)-2-Amino-3,3-dimethylbutane", "(\u00b1)-3,3-Dimethyl-2-butanamine", "1-tert-Butylethylamine"], "SMILES": "C(C(C)N)(C)(C)C", "physical_data": {"Molecular Weight": "101.19", "Molecular Formula": "C6H15N", "Boiling Point": "102 \u00b0C", "Melting Point": "-20 \u00b0C"}}