{"cas_no": "38512-82-2", "cn_name": "5-\u7532\u57fa-2-\u785d\u57fa\u8334\u9999\u919a", "en_name": ["2-Methoxy-4-methyl-1-nitrobenzene", "Benzene, 2-methoxy-4-methyl-1-nitro-", "Anisole, 5-methyl-2-nitro-", "2-Methoxy-4-methyl-1-nitrobenzene", "5-Methyl-2-nitroanisole", "3-Methyl-6-nitroanisole", "3-Methoxy-4-nitrotoluene", "2-Methoxy-4-methylnitrobenzene", "2-Nitro-5-methylanisole", "NSC 124451"], "SMILES": "O(C)C1=C(N(=O)=O)C=CC(C)=C1", "physical_data": {"Molecular Weight": "167.16", "Molecular Formula": "C8H9NO3", "Boiling Point": "153 \u00b0C @ Press: 12 Torr", "Melting Point": "57-58 \u00b0C"}}