{"cas_no": "38514-05-5", "cn_name": "6-\u7532\u57fa-1-\u8f9b\u9187", "en_name": ["6-Methyl-1-octanol", "1-Octanol, 6-methyl-", "6-Methyl-1-octanol"], "SMILES": "C(CCCCCO)(CC)C", "physical_data": {"Molecular Weight": "144.25", "Molecular Formula": "C9H20O", "Boiling Point": "100 \u00b0C @ Press: 20 Torr", "Density": "0.828 g/cm\u00b3 @ Temp: 24 \u00b0C"}}