{"cas_no": "38521-46-9", "cn_name": "2-\u5def\u57fa\u70df\u9178", "en_name": ["2-Mercaptonicotinic acid", "3-Pyridinecarboxylic acid, 1,2-dihydro-2-thioxo-", "1,2-Dihydro-2-thioxo-3-pyridinecarboxylic acid", "2-Mercaptonicotinic acid", "2-Mercaptopyridine-3-carboxylic acid", "3-Aza-2-thiosalicylic acid", "2-Mercapto-3-carboxypyridine", "2-Sulfanylpyridine-3-carboxylic acid", "2-Thioxo-1,2-dihydro-pyridine-3-carboxylic acid", "2-Sulfanylidene-1H-pyridine-3-carboxylic acid"], "SMILES": "C(O)(=O)C=1C(=S)NC=CC1", "physical_data": {"Molecular Weight": "155.17", "Molecular Formula": "C6H5NO2S", "Melting Point": "270 \u00b0C"}}