{"cas_no": "3852-09-3", "cn_name": "3-\u7532\u6c27\u57fa\u4e19\u9178\u7532\u916f", "en_name": ["Methyl 3-methoxypropionate", "Propanoic acid, 3-methoxy-, methyl ester", "Propionic acid, 3-methoxy-, methyl ester", "Methyl 3-methoxypropionate", "Methyl \u03b2-methoxypropionate", "Methyl 3-methoxypropanoate", "3-Methoxypropionic acid methyl ester", "3-Methoxypropanoic acid methyl ester", "NSC 65578", "Methyl 3-methoxypripionate", "\u03b2-Methoxypropionic acid methyl ester"], "SMILES": "C(CCOC)(OC)=O", "physical_data": {"Molecular Weight": "118.13", "Molecular Formula": "C5H10O3", "Boiling Point": "142.8 \u00b0C", "Density": "1.0148 g/cm\u00b3 @ Temp: 15 \u00b0C"}}