{"cas_no": "38521-51-6", "cn_name": "2,3,4,5,6-\u4e94\u6eb4\u82c4\u57fa\u6eb4", "en_name": ["Pentabromobenzyl bromide", "Benzene, 1,2,3,4,5-pentabromo-6-(bromomethyl)-", "Benzene, pentabromo(bromomethyl)-", "1,2,3,4,5-Pentabromo-6-(bromomethyl)benzene", "Pentabromobenzyl bromide", "2,3,4,5,6-Pentabromobenzyl bromide", "FR 706"], "SMILES": "C(Br)C1=C(Br)C(Br)=C(Br)C(Br)=C1Br", "physical_data": {"Molecular Weight": "565.51", "Molecular Formula": "C7H2Br6", "Melting Point": "170-171 \u00b0C"}}