{"cas_no": "38520-57-9", "cn_name": "N-\u4e59\u9170-L-\u80f1\u6c28\u9178", "en_name": ["N-Acetylcysteine amide", "Propanamide, 2-(acetylamino)-3-mercapto-, (2R)-", "Propanamide, 2-(acetylamino)-3-mercapto-, (R)-", "(2R)-2-(Acetylamino)-3-mercaptopropanamide", "N-Acetyl-L-cysteinamide", "N-Acetylcysteine amide", "(2R)-2-Acetamido-3-sulfanylpropanamide", "(R)-2-Acetamido-3-mercaptopropanamide", "N-Acetyl-L-cysteine amide"], "SMILES": "C(NC(C)=O)(C(N)=O)CS", "physical_data": {"Molecular Weight": "162.21", "Molecular Formula": "C5H10N2O2S", "Melting Point": "147-149 \u00b0C"}}