{"cas_no": "3853-91-6", "cn_name": "\u4e94\u7532\u57fa\u7898\u82ef", "en_name": ["1-Iodo-2,3,4,5,6-pentamethylbenzene", "Benzene, 1-iodo-2,3,4,5,6-pentamethyl-", "Benzene, iodopentamethyl-", "1-Iodo-2,3,4,5,6-pentamethylbenzene", "Iodopentamethylbenzene", "Pentamethyliodobenzene", "2,3,4,5,6-Pentamethyliodobenzene"], "SMILES": "CC1=C(C)C(C)=C(I)C(C)=C1C", "physical_data": {"Molecular Weight": "274.14", "Molecular Formula": "C11H15I", "Melting Point": "134-136 \u00b0C"}}