{"cas_no": "38533-61-8", "cn_name": "2-\u6c2f-6-\u7532\u6c27\u57fa-3-\u785d\u57fa\u5421\u5576", "en_name": ["2-Chloro-6-methoxy-3-nitropyridine", "Pyridine, 2-chloro-6-methoxy-3-nitro-", "2-Chloro-6-methoxy-3-nitropyridine", "6-Methoxy-3-nitro-2-chloropyridine"], "SMILES": "N(=O)(=O)C1=C(Cl)N=C(OC)C=C1", "physical_data": {"Molecular Weight": "188.57", "Molecular Formula": "C6H5ClN2O3", "Melting Point": "78-80 \u00b0C"}}