{"cas_no": "38559-92-1", "cn_name": "4-\u82ef\u7532\u6c27\u57fa\u82ef\u6c27\u57fa\u4e59\u9178", "en_name": ["2-[4-(Phenylmethoxy)phenoxy]acetic acid", "Acetic acid, 2-[4-(phenylmethoxy)phenoxy]-", "Acetic acid, [4-(phenylmethoxy)phenoxy]-", "Acetic acid, [p-(benzyloxy)phenoxy]-", "2-[4-(Phenylmethoxy)phenoxy]acetic acid", "4-(Benzyloxy)phenoxyacetic acid", "2-[4-(Benzyloxy)phenoxy]acetic acid"], "SMILES": "O(CC1=CC=CC=C1)C2=CC=C(OCC(O)=O)C=C2", "physical_data": {"Molecular Weight": "258.27", "Molecular Formula": "C15H14O4", "Melting Point": "140 \u00b0C"}}