{"cas_no": "38557-82-3", "cn_name": "\u5f02\u70df\u9170\u80fa\u6c2e\u6c27\u5316\u7269", "en_name": ["4-Pyridinecarboxamide, 1-oxide", "4-Pyridinecarboxamide, 1-oxide", "Isonicotinamide, 1-oxide", "Isonicotinamide N-oxide", "NSC 18386", "1-Oxidopyridin-1-ium-4-carboxamide"], "SMILES": "C(N)(=O)C=1C=CN(=O)=CC1", "physical_data": {"Molecular Weight": "138.12", "Molecular Formula": "C6H6N2O2", "Melting Point": "306 \u00b0C (decomp)"}}