{"cas_no": "3855-32-1", "cn_name": "N-[3-(\u4e8c\u7532\u6c28\u57fa)\u4e19\u57fa]-N,N\u2019,N\u2019-\u4e09\u7532\u57fa-1,3\u4e19\u4e8c\u80fa", "en_name": ["N1-[3-(Dimethylamino)propyl]-N1,N3,N3-trimethyl-1,3-propanediamine", "1,3-Propanediamine, N1-[3-(dimethylamino)propyl]-N1,N3,N3-trimethyl-", "Dipropylamine, 3,3\u2032-bis(dimethylamino)-N-methyl-", "1,3-Propanediamine, N-[3-(dimethylamino)propyl]-N,N\u2032,N\u2032-trimethyl-", "N1-[3-(Dimethylamino)propyl]-N1,N3,N3-trimethyl-1,3-propanediamine", "Polycat 77", "N,N,N\u2032,N\u2032\u2032,N\u2032\u2032-Pentamethyldipropylenetriamine", "N,N,N\u2032,N\u2032,N\u2032\u2032-Pentamethyliminobis(propylamine)", "2,6,10-Trimethyl-2,6,10-triazaundecane", "N,N,N\u2032,N\u2032\u2032,N\u2032\u2032-Pentamethyldi-1,3-propylenetriamine", "3,3\u2032-Bis(dimethylaminopropyl)methylamine", "Pentamethyliminobispropylamine", "N,N,N\u2032,N\u2032,N\u2032-Pentamethyldipropylenetriamine", "NSC 123346", "N-[3-(Dimethylamino)propyl]-N,N\u2032,N\u2032-trimethyl-1,3-propanediamine", "3,3\u2032-Bis(dimethylamino)-N-methyldipropylamine", "N-Methyl-N,N-bis(3-dimethylaminopropyl)amine", "Jeffcat ZR 40"], "SMILES": "N(CCCN(C)C)(CCCN(C)C)C", "physical_data": {"Molecular Weight": "201.35", "Molecular Formula": "C11H27N3", "Boiling Point": "100-102 \u00b0C @ Press: 11 Torr"}}