{"cas_no": "38565-52-5", "cn_name": "3-(\u5168\u6c1f\u6b63\u5df1\u57fa)\u73af\u6c27\u4e19\u70f7", "en_name": ["2-(2,2,3,3,4,4,5,5,6,6,7,7,7-Tridecafluoroheptyl)oxirane", "Oxirane, 2-(2,2,3,3,4,4,5,5,6,6,7,7,7-tridecafluoroheptyl)-", "Oxirane, (2,2,3,3,4,4,5,5,6,6,7,7,7-tridecafluoroheptyl)-", "2-(2,2,3,3,4,4,5,5,6,6,7,7,7-Tridecafluoroheptyl)oxirane", "3-(Perfluorohexyl)propylene oxide", "3-Perfluorohexyl-1,2-epoxypropane", "E 1630", "2,2,3,3,4,4,5,5,6,6,7,7,7-Tridecafluoroheptyloxirane"], "SMILES": "C(C(C(C(F)(F)F)(F)F)(F)F)(C(C(CC1CO1)(F)F)(F)F)(F)F", "physical_data": {"Molecular Weight": "376.11", "Molecular Formula": "C9H5F13O", "Boiling Point": "120 \u00b0C @ Press: 0.5 Torr"}}