{"cas_no": "3856-05-1", "cn_name": "\u6ca1\u98df\u5b50\u9178\u5f02\u4e01\u916f", "en_name": ["Isobutyl gallate", "Benzoic acid, 3,4,5-trihydroxy-, 2-methylpropyl ester", "Gallic acid, isobutyl ester", "Isobutyl gallate", "NSC 147482", "2-Methylpropyl 3,4,5-trihydroxybenzoate", "Isobutyl 3,4,5-trihydroxybenzoate"], "SMILES": "C(OCC(C)C)(=O)C1=CC(O)=C(O)C(O)=C1", "physical_data": {"Molecular Weight": "226.23", "Molecular Formula": "C11H14O5", "Melting Point": "130-131 \u00b0C"}}