{"cas_no": "38562-01-5", "cn_name": "\u5730\u8bfa\u524d\u5217\u7d20\u6c28\u4e01\u4e09\u9187", "en_name": ["Dinoprost tromethamine", "Prosta-5,13-dien-1-oic acid, 9,11,15-trihydroxy-, (5Z,9\u03b1,11\u03b1,13E,15S)-, compd. with 2-amino-2-(hydroxymethyl)-1,3-propanediol (1:1)", "1,3-Propanediol, 2-amino-2-(hydroxymethyl)-, (5Z,9\u03b1,11\u03b1,13E,15S)-9,11,15-trihydroxyprosta-5,13-dien-1-oate (salt)", "Prostaglandin F2\u03b1 THAM salt", "Prostaglandin F2\u03b1 tromethamine salt", "Prostaglandin F2\u03b1 tromethamine", "THAM PGF2\u03b1", "Tromethamine prostaglandin F2\u03b1", "PGF2\u03b1 THAM", "PGF2\u03b1 THAM salt", "PGF2\u03b1 tromethamine salt", "Prostaglandin F2\u03b1 tris(hydroxymethyl)aminomethane salt", "U 14585", "PGF2\u03b1 Tris salt", "Prostaglandin F2\u03b1-tham", "PGF2\u03b1 tromethamine", "Dinoprost tromethamine", "Lutalyse", "U 14583E", "Minprostin F2\u03b1", "Prostaglandin F2\u03b1 tris(hydroxymethyl)aminomethane", "Dinolytic", "Pronalgon F", "Prostaglandin F2a tromethamine salt", "NSC 196515", "Lutalyze", "Enzaprost T", "Dinoprost trometamol"], "SMILES": "C(CO)(CO)(CO)N.C(C=CCCCC(O)=O)C1C(C=CC(CCCCC)O)C(O)CC1O", "physical_data": {"Molecular Weight": "", "Molecular Formula": "C20H34O5.C4H11NO3", "Melting Point": "100-101 \u00b0C"}}