{"cas_no": "38565-53-6", "cn_name": "3-(\u5168\u6c1f\u6b63\u8f9b\u57fa)-1,2-\u73af\u6c27\u4e19\u70f7", "en_name": ["2-(2,2,3,3,4,4,5,5,6,6,7,7,8,8,9,9,9-Heptadecafluorononyl)oxirane", "Oxirane, 2-(2,2,3,3,4,4,5,5,6,6,7,7,8,8,9,9,9-heptadecafluorononyl)-", "Oxirane, (2,2,3,3,4,4,5,5,6,6,7,7,8,8,9,9,9-heptadecafluorononyl)-", "2-(2,2,3,3,4,4,5,5,6,6,7,7,8,8,9,9,9-Heptadecafluorononyl)oxirane", "3-Perfluorooctyl-1,2-epoxypropane", "(2,2,3,3,4,4,5,5,6,6,7,7,8,8,9,9,9-Heptadecafluorononyl)oxirane", "1,2-Epoxy-4,4,5,5,6,6,7,7,8,8,9,9,10,10,11,11,11-heptadecafluoroundecane", "3-(Perfluorooctyl)propylene oxide", "3-(2-Perfluoro-n-octyl)-1,2-epoxypropane", "H 010", "3-Perfluorooctyl-1,2-propene oxide", "1,2-Epoxy-1H,1H,2H,3H,3H-heptadecafluoroundecane", "[(Perfluorooctyl)methyl]oxirane", "3-Perfluorooctyl-1,2-propeneoxide", "E 0462"], "SMILES": "C(C(C(C(C(F)(F)F)(F)F)(F)F)(F)F)(C(C(C(CC1CO1)(F)F)(F)F)(F)F)(F)F", "physical_data": {"Molecular Weight": "476.13", "Molecular Formula": "C11H5F17O", "Melting Point": "76-78 \u00b0C"}}