{"cas_no": "3856-25-5", "cn_name": "ALPHA-\u848e\u70ef", "en_name": ["Copaene", "Tricyclo[4.4.0.02,7]dec-3-ene, 1,3-dimethyl-8-(1-methylethyl)-, (1R,2S,6S,7S,8S)-", "Copaene", "Tricyclo[4.4.0.02,7]dec-3-ene, 8-isopropyl-1,3-dimethyl-, (1R,2S,6S,7S,8S)-(-)-", "Tricyclo[4.4.0.02,7]dec-3-ene, 1,3-dimethyl-8-(1-methylethyl)-, stereoisomer", "Tricyclo[4.4.0.02,7]dec-3-ene, 8-isopropyl-1,3-dimethyl-", "(1R,2S,6S,7S,8S)-1,3-Dimethyl-8-(1-methylethyl)tricyclo[4.4.0.02,7]dec-3-ene", "\u03b1-Copaene", "(-)-\u03b1-Copaene", "(1R,2S,6S,7S,8S)-(-)-8-Isopropyl-1,3-dimethyltricyclo[4.4.0.02,7]dec-3-ene", "(-)-Copaene", "Aglaiene", "alpha-Copaene"], "SMILES": "CC12C3C(C1CC=C3C)C(C(C)C)CC2", "physical_data": {"Molecular Weight": "204.35", "Molecular Formula": "C15H24", "Boiling Point": "248.5 \u00b0C", "Melting Point": "74 \u00b0C", "Density": "0.8996 g/cm\u00b3 @ Temp: 20 \u00b0C"}}