{"cas_no": "38573-88-5", "cn_name": "2,3-\u4e8c\u6c1f\u6eb4\u82ef", "en_name": ["1-Bromo-2,3-difluorobenzene", "Benzene, 1-bromo-2,3-difluoro-", "1-Bromo-2,3-difluorobenzene", "2,3-Difluorobromobenzene", "2,3-Difluoro-1-bromobenzene"], "SMILES": "FC1=C(Br)C=CC=C1F", "physical_data": {"Molecular Weight": "192.99", "Molecular Formula": "C6H3BrF2", "Boiling Point": "158 \u00b0C"}}