{"cas_no": "3857-25-8", "cn_name": "5-\u7532\u57fa-2-\u544b\u5583\u7532\u9187", "en_name": ["5-Methyl-2-furanmethanol", "2-Furanmethanol, 5-methyl-", "Furfuryl alcohol, 5-methyl-", "5-Methyl-2-furanmethanol", "Furan, 2-(hydroxymethyl)-5-methyl-", "5-Methyl-2-furfuryl alcohol", "2-(Hydroxymethyl)-5-methylfuran", "5-Methylfurfuryl alcohol", "(5-Methylfuran-2-yl)methanol", "(5-Methyl-2-furyl)methanol"], "SMILES": "C(O)C=1OC(C)=CC1", "physical_data": {"Molecular Weight": "112.13", "Molecular Formula": "C6H8O2", "Boiling Point": "100 \u00b0C @ Press: 11 Torr", "Density": "1.0769 g/cm\u00b3 @ Temp: 20 \u00b0C"}}