{"cas_no": "3858-89-7", "cn_name": "\u76d0\u9178\u6c2f\u666e\u9c81\u5361\u56e0", "en_name": ["Chloroprocaine hydrochloride", "Benzoic acid, 4-amino-2-chloro-, 2-(diethylamino)ethyl ester, hydrochloride (1:1)", "Benzoic acid, 4-amino-2-chloro-, 2-(diethylamino)ethyl ester, monohydrochloride", "2-Chloro-4-aminobenzoic acid diethylaminoethyl ester hydrochloride", "Chloroprocaine hydrochloride", "2-Chloroprocaine hydrochloride", "2-(Diethylamino)ethyl 4-amino-2-chlorobenzoate hydrochloride", "Nesacaine hydrochloride", "Chlorprocaine hydrochloride", "Nesacaine"], "SMILES": "C(OCCN(CC)CC)(=O)C1=C(Cl)C=C(N)C=C1.Cl", "physical_data": {"Molecular Weight": "", "Molecular Formula": "C13H19ClN2O2.ClH", "Melting Point": "177 \u00b0C"}}