{"cas_no": "3858-78-4", "cn_name": "\u6b63\u4e01\u80fa\u76d0\u9178\u76d0", "en_name": ["1-Butanamine, hydrochloride (1:1)", "1-Butanamine, hydrochloride (1:1)", "Butylamine, hydrochloride", "1-Butanamine, hydrochloride", "n-Butylammonium chloride", "n-Butylamine hydrochloride", "Butylammonium chloride", "Butylamine monohydrochloride", "Monobutylammonium chloride"], "SMILES": "C(CC)CN.Cl", "physical_data": {"Molecular Weight": "", "Molecular Formula": "C4H11N.ClH", "Melting Point": "192 \u00b0C"}}