{"cas_no": "38585-74-9", "cn_name": "5-\u7f9f\u7532\u57fa\u567b\u5511", "en_name": ["5-Thiazolemethanol", "5-Thiazolemethanol", "5-(Hydroxymethyl)thiazole", "5-(Hydroxymethyl)-1,3-thiazole", "(1,3-Thiazol-5-yl)methanol", "Thiazol-5-ylmethanol"], "SMILES": "C(O)C1=CN=CS1", "physical_data": {"Molecular Weight": "115.15", "Molecular Formula": "C4H5NOS", "Boiling Point": "114 \u00b0C @ Press: 1.5 Torr"}}