{"cas_no": "38585-61-4", "cn_name": "4-(\u6c2f\u7532\u57fa)-1H-\u54aa\u5511\u76d0\u9178\u76d0", "en_name": ["1H-Imidazole, 5-(chloromethyl)-, hydrochloride (1:1)", "1H-Imidazole, 5-(chloromethyl)-, hydrochloride (1:1)", "1H-Imidazole, 4-(chloromethyl)-, monohydrochloride", "4-(Chloromethyl)imidazole hydrochloride", "4-Chloromethyl-1H-imidazole hydrochloride", "5-(Chloromethyl)-1H-imidazole hydrochloride"], "SMILES": "C(Cl)C1=CN=CN1.Cl", "physical_data": {"Molecular Weight": "", "Molecular Formula": "C4H5ClN2.ClH", "Melting Point": "144-146 \u00b0C"}}