{"cas_no": "3859-41-4", "cn_name": "1,3-\u73af\u620a\u4e8c\u916e", "en_name": ["1,3-Cyclopentanedione", "1,3-Cyclopentanedione", "1,3-Cyclopentadione", "NSC 364015"], "SMILES": "O=C1CC(=O)CC1", "physical_data": {"Molecular Weight": "98.10", "Molecular Formula": "C5H6O2", "Melting Point": "151.5-152.5 \u00b0C"}}