{"cas_no": "386-17-4", "cn_name": "3',3'',5',5''-\u56db\u7898\u915a\u915e", "en_name": ["Iodophthalein", "1(3H)-Isobenzofuranone, 3,3-bis(4-hydroxy-3,5-diiodophenyl)-", "Phenolphthalein, 3\u2032,3\u2032\u2032,5\u2032,5\u2032\u2032-tetraiodo-", "3,3-Bis(4-hydroxy-3,5-diiodophenyl)-1(3H)-isobenzofuranone", "Nosophen", "Nosophene", "3,3\u2032,5,5\u2032-Tetraiodophenolphthalein", "Iodophthalein", "3\u2032,3\u2032\u2032,5\u2032,5\u2032\u2032-Tetraiodophenolphthalein", "NSC 4904", "NSC 164900", "Tetraiodophenolphthalein", "3,3-Bis(4-hydroxy-3,5-diiodophenyl)-2-benzofuran-1-one", "3,3-Bis(4-hydroxy-3,5-diiodo-phenyl)isobenzofuran-1-one"], "SMILES": "O=C1OC(C=2C1=CC=CC2)(C3=CC(I)=C(O)C(I)=C3)C4=CC(I)=C(O)C(I)=C4", "physical_data": {"Molecular Weight": "821.91", "Molecular Formula": "C20H10I4O4", "Melting Point": "228 \u00b0C (decomp)"}}