{"cas_no": "38609-97-1", "cn_name": "\u5416\u5576\u916e\u4e59\u9178", "en_name": ["N-(Carboxymethyl)acridone", "10(9H)-Acridineacetic acid, 9-oxo-", "9-Oxo-10(9H)-acridineacetic acid", "N-(Carboxymethyl)acridone", "10-(Carboxymethyl)-9-acridinone", "9-Oxo-10-acridineacetic acid", "L 1", "N-(Carboxymethyl)-9-acridone", "Acridone-N-acetic acid", "Cridanimod", "10-CMA", "2-(9-Oxo-9,10-dihydroacridin-10-yl)acetic acid", "2-(9-Oxoacridin-10-yl)acetic acid", "CMA (pharmaceutical)"], "SMILES": "C(C(O)=O)N1C=2C(C(=O)C=3C1=CC=CC3)=CC=CC2", "physical_data": {"Molecular Weight": "253.25", "Molecular Formula": "C15H11NO3", "Melting Point": "280 \u00b0C"}}