{"cas_no": "38603-72-4", "cn_name": "\u76d0\u9178\u897f\u54aa\u66ff\u4e01EP\u6742\u8d28J", "en_name": ["Ethanamine, 2-[[(4-methyl-1H-imidazol-5-yl)methyl]thio]-, hydrochloride (1:2)", "Ethanamine, 2-[[(4-methyl-1H-imidazol-5-yl)methyl]thio]-, hydrochloride (1:2)", "Ethanamine, 2-[[(5-methyl-1H-imidazol-4-yl)methyl]thio]-, dihydrochloride", "4-Methyl-5-[(2-aminoethyl)thiomethyl]imidazole dihydrochloride", "5-[[(2-Aminoethyl)thio]methyl]-4-methylimidazole dihydrochloride", "4-[(2-Aminoethyl)thiomethyl]-5-methylimidazole dihydrochloride"], "SMILES": "C(SCCN)C1=C(C)N=CN1.Cl", "physical_data": {"Molecular Weight": "", "Molecular Formula": "C7H13N3S.2ClH", "Melting Point": "190-193 \u00b0C"}}