{"cas_no": "3860-63-7", "cn_name": "1,5-\u4e8c\u7f9f\u57fa-4,8-(\u7532\u57fa\u6c28\u57fa)-9,10-\u84bd\u4e8c\u916e", "en_name": ["Disperse Blue 26", "9,10-Anthracenedione, 1,5-dihydroxy-4,8-bis(methylamino)-", "Anthraquinone, 1,5-dihydroxy-4,8-bis(methylamino)-", "1,5-Dihydroxy-4,8-bis(methylamino)-9,10-anthracenedione", "C.I. 63305", "Duranol Blue G", "Duranol Printing Blue G", "Kayalon Polyester Blue GF", "Serilene Blue 2GL", "Serilene Blue GL", "Sumikaron Blue BR", "C.I. Disperse Blue 26", "Resiren Blue TG", "Dispersol Blue B-G", "Sumikaron Blue E-BR", "PTB 31", "Disperse Blue 26", "Navilene Blue GL", "RTB 31", "Dipersol Blue B-G", "Akasperse Blue 7G"], "SMILES": "O=C1C=2C(C(=O)C=3C1=C(O)C=CC3NC)=C(O)C=CC2NC", "physical_data": {"Molecular Weight": "298.29", "Molecular Formula": "C16H14N2O4", "Melting Point": "217 \u00b0C"}}