{"cas_no": "3861-47-0", "cn_name": "\u7898\u82ef\u8148\u8f9b\u9178\u916f", "en_name": ["Ioxynil octanoate", "Octanoic acid, 4-cyano-2,6-diiodophenyl ester", "Octanoic acid, ester with 4-hydroxy-3,5-diiodobenzonitrile", "Ioxynil octanoate", "3,5-Diiodo-4-n-octanoyloxybenzonitrile", "MB 11641", "3,5-Diiodo-4-octanoyloxybenzonitrile", "Totril", "Bentrol L"], "SMILES": "O(C(CCCCCCC)=O)C1=C(I)C=C(C#N)C=C1I", "physical_data": {"Molecular Weight": "497.11", "Molecular Formula": "C15H17I2NO2", "Melting Point": "59.5 \u00b0C"}}