{"cas_no": "38613-77-3", "cn_name": "4,4'-[1,1'-\u8054\u82ef\u57fa]\u4e9a\u57fa\u4e8c\u81a6\u9178-\u56db[2,4-\u4e8c\u53d4\u4e01\u82ef\u57fa]\u916f", "en_name": ["Tetrakis(2,4-di-tert-butylphenyl)-4,4\u2032-biphenylenediphosphonite", "Phosphonous acid, P,P\u2032-[[1,1\u2032-biphenyl]-4,4\u2032-diyl]bis-, P,P,P\u2032,P\u2032-tetrakis[2,4-bis(1,1-dimethylethyl)phenyl] ester", "Phosphonous acid, [1,1\u2032-biphenyl]-4,4\u2032-diylbis-, tetrakis[2,4-bis(1,1-dimethylethyl)phenyl] ester", "Irgafos PEPQ", "Irgafos P-EPQFF", "Tetrakis(2,4-di-tert-butylphenyl)-4,4\u2032-biphenylenediphosphonite", "Phos 2", "Irganox P-EPQ", "Sandostab EPQ", "Irgafos P-EPO", "4,4\u2032-Biphenylenediphosphonous acid tetrakis(2,4-di-tert-butylphenyl) ester", "P-EPQ", "Tetrakis(2,4-di-tert-butylphenyl-4,4\u2032-biphenylylene-diphosphonite)", "Tetrakis(2,4-di-tert-butylphenyl) [1,1\u2032-biphenyl]-4,4\u2032-diylbisphosphonite", "Irgafos P-EPQ-FD", "Irgafos EPQ", "Hostanox P-EPQ", "THP-EPQ", "AO 110", "Tetrakis(2,4-di-tert-butylphenyl) [1,1-biphenyl]-4,4\u2032-diyl bisphosphonite", "[4-[4-Bis(2,4-ditert-butylphenoxy)phosphanylphenyl]phenyl]-bis(2,4-ditert-butylphenoxy)phosphane", "Tetrakis(2,4-di-tert-butylphenyl)-[1,1-biphenyl]-4,4\u2032-diyl bisphosphonite", "LXR 568", "AddWorks LXR 568", "VN 125949"], "SMILES": "C(C)(C)(C)C1=C(OP(OC2=C(C(C)(C)C)C=C(C(C)(C)C)C=C2)C3=CC=C(C=C3)C4=CC=C(P(OC5=C(C(C)(C)C)C=C(C(C)(C)C)C=C5)OC6=C(C(C)(C)C)C=C(C(C)(C)C)C=C6)C=C4)C=CC(C(C)(C)C)=C1", "physical_data": {"Molecular Weight": "1035.40", "Molecular Formula": "C68H92O4P2", "Melting Point": "85-110 \u00b0C"}}