{"cas_no": "3862-25-7", "cn_name": "7-\u7f9f\u57fa-4-\u80c6\u753e\u70ef-3-\u916e", "en_name": ["7\u03b1-Hydroxy-4-cholesten-3-one", "Cholest-4-en-3-one, 7-hydroxy-, (7\u03b1)-", "Cholest-4-en-3-one, 7\u03b1-hydroxy-", "(7\u03b1)-7-Hydroxycholest-4-en-3-one", "7\u03b1-Hydroxycholest-4-en-3-one", "7\u03b1-Hydroxy-4-cholesten-3-one"], "SMILES": "CC12C(C3C(C4(C)C(CC3O)=CC(=O)CC4)CC1)CCC2C(CCCC(C)C)C", "physical_data": {"Molecular Weight": "400.64", "Molecular Formula": "C27H44O2", "Melting Point": "181-182 \u00b0C"}}