{"cas_no": "3862-73-5", "cn_name": "2,3,4-\u4e09\u6c1f\u82ef\u80fa", "en_name": ["2,3,4-Trifluoroaniline", "Benzenamine, 2,3,4-trifluoro-", "Aniline, 2,3,4-trifluoro-", "2,3,4-Trifluorobenzenamine", "2,3,4-Trifluoroaniline", "2,3,4-Trifluorophenylamine"], "SMILES": "FC1=C(F)C(N)=CC=C1F", "physical_data": {"Molecular Weight": "147.10", "Molecular Formula": "C6H4F3N", "Boiling Point": "46 \u00b0C @ Press: 5 Torr"}}