{"cas_no": "3863-11-4", "cn_name": "3,4-\u4e8c\u6c1f\u82ef\u80fa", "en_name": ["3,4-Difluoroaniline", "Benzenamine, 3,4-difluoro-", "Aniline, 3,4-difluoro-", "3,4-Difluorobenzenamine", "3,4-Difluoroaniline", "NSC 10296", "4,5-Difluoroaniline", "3,4-Difluorophenylamine"], "SMILES": "FC1=C(F)C=CC(N)=C1", "physical_data": {"Molecular Weight": "129.11", "Molecular Formula": "C6H5F2N", "Boiling Point": "77 \u00b0C @ Press: 7 Torr", "Melting Point": "227-228 \u00b0C"}}