{"cas_no": "38640-62-9", "cn_name": "\u4e8c(\u5f02\u4e19\u57fa)\u8418", "en_name": ["Diisopropylnaphthalene", "Naphthalene, bis(1-methylethyl)-", "Naphthalene, diisopropyl-", "Bis(1-methylethyl)naphthalene", "Diisopropylnaphthalene", "Bis(isopropyl)naphthalene", "KMC 113", "KMC-R 113", "K 113", "Rutasolv DI", "Reutasolv DI"], "SMILES": "", "physical_data": {"Molecular Weight": "", "Molecular Formula": "C16H20", "Boiling Point": "290-299 \u00b0C", "Melting Point": "38 \u00b0C", "Density": "0.96 g/cm\u00b3 @ Temp: 25 \u00b0C"}}