{"cas_no": "38647-11-9", "cn_name": "\u96f7\u516c\u85e4\u5185\u916f\u916e", "en_name": ["(-)-Triptonide", "Trisoxireno[4b,5:6,7:8a,9]phenanthro[1,2-c]furan-1,6(3H,6aH)-dione, 3b,4,4a,7a,7b,8b,9,10-octahydro-8b-methyl-6a-(1-methylethyl)-, (3bS,4aS,5aS,6aS,7aS,7bS,8aS,8bS)-", "Triptolide, 14-deoxy-14-oxo-", "Trisoxireno[4b,5:6,7:8a,9]phenanthro[1,2-c]furan, triptolide deriv.", "(3bS,4aS,5aS,6aS,7aS,7bS,8aS,8bS)-3b,4,4a,7a,7b,8b,9,10-Octahydro-8b-methyl-6a-(1-methylethyl)trisoxireno[4b,5:6,7:8a,9]phenanthro[1,2-c]furan-1,6(3H,6aH)-dione", "Triptonide", "Triptonid", "(-)-Triptonide", "Trisoxireno[4b,5:6,7:8a,9]phenanthro[1,2-c]furan-1,6(3H,6aH)-dione, 3b,4,4a,7a,7b,8b,9,10-octahydro-8b-methyl-6a-(1-methylethyl)-, [3bS-(3b\u03b1,4a\u03b1,5aR*,6a\u03b2,7a\u03b2,7b\u03b1,8aR*,8b\u03b2)]-", "NSC 165677", "PG 492"], "SMILES": "CC12C34C5(C(O5)CC1C6=C(CC2)C(=O)OC6)C(=O)C7(C(C)C)C(C3O4)O7", "physical_data": {"Molecular Weight": "358.39", "Molecular Formula": "C20H22O6", "Melting Point": "224-225 \u00b0C"}}