{"cas_no": "38646-68-3", "cn_name": "4,4-\u4e8c\u7532\u57fa\u54cc\u5576\u76d0\u9178\u76d0", "en_name": ["Piperidine, 4,4-dimethyl-, hydrochloride (1:1)", "Piperidine, 4,4-dimethyl-, hydrochloride (1:1)", "Piperidine, 4,4-dimethyl-, hydrochloride", "4,4-Dimethylpiperidine hydrochloride"], "SMILES": "CC1(C)CCNCC1.Cl", "physical_data": {"Molecular Weight": "", "Molecular Formula": "C7H15N.ClH", "Melting Point": "227-228 \u00b0C"}}