{"cas_no": "3864-99-1", "cn_name": "\u7d2b\u5916\u7ebf\u5438\u6536\u5242 UV-327", "en_name": ["UV 327", "Phenol, 2-(5-chloro-2H-benzotriazol-2-yl)-4,6-bis(1,1-dimethylethyl)-", "Phenol, 2,4-di-tert-butyl-6-(5-chloro-2H-benzotriazol-2-yl)-", "2-(5-Chloro-2H-benzotriazol-2-yl)-4,6-bis(1,1-dimethylethyl)phenol", "2-(3,5-Di-tert-butyl-2-hydroxyphenyl)-5-chlorobenzotriazole", "2-(2\u2032-Hydroxy-3\u2032,5\u2032-di-tert-butylphenyl)-5-chlorobenzotriazole", "Tinuvin 327", "2-(2-Hydroxy-3,5-di-tert-butylphenyl)-5-chlorobenzotriazole", "2-(3,5-Di-tert-butyl-2-hydroxyphenyl)-5-chloro-2H-benzotriazole", "2-(2-Hydroxy-3,5-di-tert-butylphenyl)-5-chloro-2H-benzotriazole", "2,4-Di-tert-butyl-6-(5-chloro-2H-benzotriazol-2-yl)phenol", "5-Chloro-2-(2-hydroxy-3,5-di-tert-butylphenyl)benzotriazole", "5-Chloro-2-(3,5-di-tert-butyl-2-hydroxyphenyl)benzotriazole", "5-Chloro-2-(3\u2032,5\u2032-di-tert-butyl-2\u2032-hydroxyphenyl)benzotriazole", "UV 2", "5-Chloro-2-(3,5-di-tert-butyl-2-hydroxyphenyl)-2H-benzotriazole", "UV 327", "UV-Chek AM 607", "Viosorb 580", "Kemisorb 72", "LA 34", "ADK Stab LA 34", "5-Chloro-2-(2-hydroxy-3,5-di-tert-butylphenyl)-2H-benzotriazole", "Cyasorb UV 5357", "2-(3\u2032,5\u2032-Di-tert-butyl-2\u2032-hydroxyphenyl)-5-chlorobenzotriazole", "Seesorb 702", "UV 2 (UV stabilizer)", "Hisorp 327", "2,4-Di-tert-butyl-6-(5-chlorobenzotriazol-2-yl)phenol", "TNV 327", "Mark LA 34", "Lowilite 27", "Eversorb 75", "Hisorb 327", "Antioxidant 327", "Songsorb 3270", "2,4-Di-(tert-butyl)-6-(5-chloro-2H-benzo[d][1,2,3]triazol-2-yl)phenol", "Chiguard 327", "UVP 327", "Light stabilizer 327", "Sunsorb 327", "2,4-Ditert-butyl-6-(5-chlorobenzotriazol-2-yl)phenol", "T 327", "Chemsorb 327"], "SMILES": "OC1=C(N2N=C3C(=N2)C=C(Cl)C=C3)C=C(C(C)(C)C)C=C1C(C)(C)C", "physical_data": {"Molecular Weight": "357.88", "Molecular Formula": "C20H24ClN3O", "Melting Point": "147.6-148.8 \u00b0C"}}