{"cas_no": "38642-74-9", "cn_name": "2-\u6c30\u57fa\u5429\u567b\u55ea", "en_name": ["10H-Phenothiazine-2-carbonitrile", "10H-Phenothiazine-2-carbonitrile", "Phenothiazine-2-carbonitrile", "2-Cyanophenothiazine", "NSC 170554", "2-(Cyano)-10H-phenothiazine"], "SMILES": "C(#N)C=1C=C2C(SC=3C(N2)=CC=CC3)=CC1", "physical_data": {"Molecular Weight": "224.28", "Molecular Formula": "C13H8N2S", "Melting Point": "204 \u00b0C"}}