{"cas_no": "38641-16-6", "cn_name": "1-\u6b63\u5341\u4e8c\u70f7\u57fa\u8418", "en_name": ["Dodecylnaphthalene", "Naphthalene, dodecyl-", "Dodecylnaphthalene"], "SMILES": "", "physical_data": {"Molecular Weight": "", "Molecular Formula": "C22H32", "Boiling Point": "192-215 \u00b0C @ Press: 5 Torr"}}