{"cas_no": "38647-10-8", "cn_name": "\u96f7\u516c\u85e4\u4e59\u7d20", "en_name": ["Tripdiolide", "Trisoxireno[4b,5:6,7:8a,9]phenanthro[1,2-c]furan-1(3H)-one, 3b,4,4a,6,6a,7a,7b,8b,9,10-decahydro-6,10-dihydroxy-8b-methyl-6a-(1-methylethyl)-, (3bS,4aS,5aS,6R,6aR,7aS,7bS,8aS,8bS,10S)-", "Triptolide, 2-hydroxy-, (2\u03b2)-", "(3bS,4aS,5aS,6R,6aR,7aS,7bS,8aS,8bS,10S)-3b,4,4a,6,6a,7a,7b,8b,9,10-Decahydro-6,10-dihydroxy-8b-methyl-6a-(1-methylethyl)trisoxireno[4b,5:6,7:8a,9]phenanthro[1,2-c]furan-1(3H)-one", "Tripdiolide", "NSC 163063", "Triptodiolide", "Trisoxireno[4b,5:6,7:8a,9]phenanthro[1,2-c]furan-1(3H)-one, 3b,4,4a,6,6a,7a,7b,8b,9,10-decahydro-6,10-dihydroxy-8b-methyl-6a-(1-methylethyl)-, [3bS-(3b\u03b1,4a\u03b1,5aR*,6\u03b2,6a\u03b2,7a\u03b2,7b\u03b1,8aR*,8b\u03b2,10\u03b2)]-", "(-)-Tripdiolide"], "SMILES": "CC12C34C5(C(O5)CC1C6=C(C(O)C2)C(=O)OC6)C(O)C7(C(C)C)C(C3O4)O7", "physical_data": {"Molecular Weight": "376.40", "Molecular Formula": "C20H24O7", "Melting Point": "220-222 \u00b0C"}}