{"cas_no": "38663-85-3", "cn_name": "\u5f02\u786b\u6c30\u91782-\u7532\u6c27\u57fa\u4e59\u916f", "en_name": ["1-Isothiocyanato-2-methoxyethane", "Ethane, 1-isothiocyanato-2-methoxy-", "Isothiocyanic acid, 2-methoxyethyl ester", "1-Isothiocyanato-2-methoxyethane", "2-Methoxyethyl isothiocyanate", "1-Isothiocyanato-2-(methyloxy)ethane", "2-Isothiocyanatoethyl methyl ether"], "SMILES": "C(COC)N=C=S", "physical_data": {"Molecular Weight": "117.17", "Molecular Formula": "C4H7NOS", "Boiling Point": "88.5-92 \u00b0C @ Press: 23.5 Torr"}}