{"cas_no": "386715-42-0", "cn_name": "(2-ISOPROPOXYPHENYL)METHANAMINE", "en_name": ["2,3-Dihydro-5-oxo-1H,5H-benzo[ij]quinolizine-6-carboxylic acid", "1H,5H-Benzo[ij]quinolizine-6-carboxylic acid, 2,3-dihydro-5-oxo-", "2,3-Dihydro-5-oxo-1H,5H-benzo[ij]quinolizine-6-carboxylic acid", "5-Oxo-2,3-Dihydro-1H,5H-pyrido[3,2,1-ij]quinoline-6-carboxylic acid"], "SMILES": "O=C1N2C3=C(C=C1C(O)=O)C=CC=C3CCC2", "physical_data": {"Molecular Weight": "229.23", "Molecular Formula": "C13H11NO3", "Melting Point": "251 \u00b0C"}}