{"cas_no": "38677-85-9", "cn_name": "\u6c1f\u5c3c\u8f9b\u8461\u7532\u80fa", "en_name": ["Flunixin", "3-Pyridinecarboxylic acid, 2-[[2-methyl-3-(trifluoromethyl)phenyl]amino]-", "2-[[2-Methyl-3-(trifluoromethyl)phenyl]amino]-3-pyridinecarboxylic acid", "Flunixin", "2-(2-Methyl-3-trifluoromethylanilino)nicotinic acid", "Sch 14714"], "SMILES": "N(C1=C(C(O)=O)C=CC=N1)C2=C(C)C(C(F)(F)F)=CC=C2", "physical_data": {"Molecular Weight": "296.24", "Molecular Formula": "C14H11F3N2O2", "Melting Point": "226-228 \u00b0C"}}