{"cas_no": "386715-35-1", "cn_name": "6-\u4e09\u6c1f\u7532\u57fa\u70df\u9170\u80fa", "en_name": ["6-(Trifluoromethyl)-3-pyridinecarboxamide", "3-Pyridinecarboxamide, 6-(trifluoromethyl)-", "6-(Trifluoromethyl)-3-pyridinecarboxamide"], "SMILES": "C(F)(F)(F)C1=CC=C(C(N)=O)C=N1", "physical_data": {"Molecular Weight": "190.12", "Molecular Formula": "C7H5F3N2O", "Melting Point": "184-187 \u00b0C"}}