{"cas_no": "38675-79-5", "cn_name": "\u5bf9\u53d4\u4e01\u57fa\u82ef\u57fa\u73af\u4e19\u57fa\u7532\u916e", "en_name": ["Cyclopropyl[4-(1,1-dimethylethyl)phenyl]methanone", "Methanone, cyclopropyl[4-(1,1-dimethylethyl)phenyl]-", "Ketone, p-tert-butylphenyl cyclopropyl", "Cyclopropyl[4-(1,1-dimethylethyl)phenyl]methanone", "p-tert-Butylphenyl cyclopropyl ketone", "NSC 163106", "(4-tert-Butylphenyl)-cyclopropylmethanone", "(4-tert-Butylphenyl)(cyclopropyl)methanone"], "SMILES": "C(=O)(C1=CC=C(C(C)(C)C)C=C1)C2CC2", "physical_data": {"Molecular Weight": "202.29", "Molecular Formula": "C14H18O", "Melting Point": "56-59 \u00b0C"}}