{"cas_no": "38675-10-4", "cn_name": "BOC-D-PHE-PRO-OH", "en_name": ["N-[(1,1-Dimethylethoxy)carbonyl]-D-phenylalanyl-L-proline", "L-Proline, N-[(1,1-dimethylethoxy)carbonyl]-D-phenylalanyl-", "L-Proline, 1-[N-[(1,1-dimethylethoxy)carbonyl]-D-phenylalanyl]-", "N-[(1,1-Dimethylethoxy)carbonyl]-D-phenylalanyl-L-proline", "tert-Butoxycarbonyl-D-phenylalanyl-L-proline", "N-(tert-Butoxycarbonyl)-D-phenylalanyl-L-proline"], "SMILES": "C(C(CC1=CC=CC=C1)NC(OC(C)(C)C)=O)(=O)N2C(C(O)=O)CCC2", "physical_data": {"Molecular Weight": "362.42", "Molecular Formula": "C19H26N2O5", "Melting Point": "171-174 \u00b0C"}}