{"cas_no": "3868-61-9", "cn_name": "\u786b\u4e39\u5185\u916f", "en_name": ["Endosulfan lactone", "4,7-Methanoisobenzofuran-1(3H)-one, 4,5,6,7,8,8-hexachloro-3a,4,7,7a-tetrahydro-", "5-Norbornene-2-carboxylic acid, 1,4,5,6,7,7-hexachloro-3-(hydroxymethyl)-, \u03b3-lactone", "4,5,6,7,8,8-Hexachloro-3a,4,7,7a-tetrahydro-4,7-methanoisobenzofuran-1(3H)-one", "Endosulfan lactone", "Endolactone", "4,5,6,7,8,8-Hexachloro-4,7-methano 1,3,3a,4,7,7a-hexahydroisobenzofuran-1-one"], "SMILES": "ClC12C3C(C(Cl)(C1(Cl)Cl)C(Cl)=C2Cl)COC3=O", "physical_data": {"Molecular Weight": "356.84", "Molecular Formula": "C9H4Cl6O2", "Melting Point": "263-264 \u00b0C"}}