{"cas_no": "38689-31-5", "cn_name": "H-D-LEU-LEU-OH", "en_name": ["D-Leucyl-L-leucine", "L-Leucine, D-leucyl-", "L-Leucine, N-D-leucyl-", "Leucine, N-D-leucyl-", "D-Leucyl-L-leucine", "NSC 524455"], "SMILES": "C(NC(C(CC(C)C)N)=O)(CC(C)C)C(O)=O", "physical_data": {"Molecular Weight": "244.33", "Molecular Formula": "C12H24N2O3", "Melting Point": "285 \u00b0C"}}