{"cas_no": "38690-77-6", "cn_name": "4-\u4e01\u57fa\u82ef\u7532\u9178-4-\u6c30\u57fa\u82ef\u916f", "en_name": ["4-Cyanophenyl 4-butylbenzoate", "Benzoic acid, 4-butyl-, 4-cyanophenyl ester", "p-Cyanophenyl p\u2032-butylbenzoate", "p-Cyanophenyl p-butylbenzoate", "4-Cyanophenyl 4-butylbenzoate", "p\u2032-Cyanophenyl p-butylbenzoate", "4\u2032-Cyanophenyl 4-butylbenzoate", "4-Cyanophenyl 4\u2032-butylbenzoate", "ZhK 487", "p-Cyanophenyl p-n-butylbenzoate", "4-BEB-C"], "SMILES": "O(C(=O)C1=CC=C(CCCC)C=C1)C2=CC=C(C#N)C=C2", "physical_data": {"Molecular Weight": "279.33", "Molecular Formula": "C18H17NO2", "Melting Point": "-20 \u00b0C"}}