{"cas_no": "38692-80-7", "cn_name": "3-\u6eb4-4-\u7f9f\u57fa\u82ef\u57fa\u4e59\u9178", "en_name": ["3-Bromo-4-hydroxyphenylacetic acid", "Benzeneacetic acid, 3-bromo-4-hydroxy-", "Acetic acid, (3-bromo-4-hydroxyphenyl)-", "3-Bromo-4-hydroxybenzeneacetic acid", "3-Bromo-4-hydroxyphenylacetic acid", "2-(3-Bromo-4-hydroxyphenyl)acetic acid"], "SMILES": "C(C(O)=O)C1=CC(Br)=C(O)C=C1", "physical_data": {"Molecular Weight": "231.04", "Molecular Formula": "C8H7BrO3", "Melting Point": "107 \u00b0C"}}