{"cas_no": "387-45-1", "cn_name": "2-\u6c2f-6-\u6c1f-\u82ef\u7532\u919b", "en_name": ["2-Chloro-6-fluorobenzaldehyde", "Benzaldehyde, 2-chloro-6-fluoro-", "2-Chloro-6-fluorobenzaldehyde", "2-Fluoro-6-chlorobenzaldehyde", "6-Chloro-2-fluorobenzaldehyde"], "SMILES": "C(=O)C1=C(Cl)C=CC=C1F", "physical_data": {"Molecular Weight": "158.56", "Molecular Formula": "C7H4ClFO", "Boiling Point": "104-105 \u00b0C", "Melting Point": "38.5 \u00b0C"}}