{"cas_no": "387-44-0", "cn_name": "7-\u6c1f\u5432\u54da", "en_name": ["7-Fluoro-1H-indole", "1H-Indole, 7-fluoro-", "Indole, 7-fluoro-", "7-Fluoro-1H-indole", "7-Fluoroindole"], "SMILES": "FC1=C2C(=CC=C1)C=CN2", "physical_data": {"Molecular Weight": "135.14", "Molecular Formula": "C8H6FN", "Melting Point": "61-62 \u00b0C"}}