{"cas_no": "387-79-1", "cn_name": "17\u03b1-\u7f9f\u57fa\u598a\u5a20\u70ef\u9187\u916e", "en_name": ["17-Hydroxypregnenolone", "Pregn-5-en-20-one, 3,17-dihydroxy-, (3\u03b2)-", "Pregn-5-en-20-one, 3\u03b2,17-dihydroxy-", "(3\u03b2)-3,17-Dihydroxypregn-5-en-20-one", "17-Hydroxypregnenolone", "17\u03b1-Hydroxypregnenolone", "3\u03b2,17\u03b1-Dihydroxypregn-5-en-20-one", "17-Hydroxy-\u03945-pregnenolone", "3\u03b2,17-Dihydroxy-5-pregnen-20-one", "5-Pregnen-3\u03b2,17\u03b1-diol-20-one", "NSC 63853"], "SMILES": "CC12C(C3C(C4(C)C(=CC3)CC(O)CC4)CC1)CCC2(C(C)=O)O", "physical_data": {"Molecular Weight": "332.48", "Molecular Formula": "C21H32O3", "Melting Point": "265 \u00b0C"}}