{"cas_no": "387-48-4", "cn_name": "3-\u6c1f-2-\u7898\u82ef\u7532\u9178", "en_name": ["3-Fluoro-2-iodobenzoic acid", "Benzoic acid, 3-fluoro-2-iodo-", "3-Fluoro-2-iodobenzoic acid"], "SMILES": "C(O)(=O)C1=C(I)C(F)=CC=C1", "physical_data": {"Molecular Weight": "266.01", "Molecular Formula": "C7H4FIO2", "Melting Point": "152-153 \u00b0C"}}