{"cas_no": "387-46-2", "cn_name": "2,6-\u4e8c\u7f9f\u57fa\u82ef\u7532\u919b", "en_name": ["2,6-Dihydroxybenzaldehyde", "Benzaldehyde, 2,6-dihydroxy-", "\u03b3-Resorcylaldehyde", "2,6-Dihydroxybenzaldehyde", "Ranjal", "6-Hydroxysalicylaldehyde"], "SMILES": "C(=O)C1=C(O)C=CC=C1O", "physical_data": {"Molecular Weight": "138.12", "Molecular Formula": "C7H6O3", "Boiling Point": "122 \u00b0C @ Press: 15 Torr", "Melting Point": "154-155 \u00b0C"}}