{"cas_no": "3870-07-3", "cn_name": "\u918b\u9178\u66f2\u5b89\u5948\u5fb7", "en_name": ["(11\u03b2,16\u03b1)-21-(Acetyloxy)-9-fluoro-11-hydroxy-16,17-[(1-methylethylidene)bis(oxy)]pregna-1,4-diene-3,20-dione", "Pregna-1,4-diene-3,20-dione, 21-(acetyloxy)-9-fluoro-11-hydroxy-16,17-[(1-methylethylidene)bis(oxy)]-, (11\u03b2,16\u03b1)-", "Pregna-1,4-diene-3,20-dione, 9-fluoro-11\u03b2,16\u03b1,17,21-tetrahydroxy-, cyclic 16,17-acetal with acetone, 21-acetate", "2H-Naphth[2\u2032,1\u2032:4,5]indeno[1,2-d][1,3]dioxole, pregna-1,4-diene-3,20-dione deriv.", "(11\u03b2,16\u03b1)-21-(Acetyloxy)-9-fluoro-11-hydroxy-16,17-[(1-methylethylidene)bis(oxy)]pregna-1,4-diene-3,20-dione", "Triamcinolone acetonide 21-acetate"], "SMILES": "C(COC(C)=O)(=O)C12C3(C)C(CC1OC(C)(C)O2)C4C(F)(C(O)C3)C5(C)C(CC4)=CC(=O)C=C5", "physical_data": {"Molecular Weight": "476.53", "Molecular Formula": "C26H33FO7", "Melting Point": "266 \u00b0C"}}