{"cas_no": "3871-20-3", "cn_name": "\u4e09(4-\u785d\u57fa\u82ef\u57fa)\u78f7\u9178\u916f", "en_name": ["Phosphoric acid, tris(4-nitrophenyl) ester", "Phosphoric acid, tris(4-nitrophenyl) ester", "Phosphoric acid, tris(p-nitrophenyl) ester", "Phenol, p-nitro-, phosphate (3:1)", "Tris(p-nitrophenyl) phosphate", "Tris(4-nitrophenyl) phosphate", "NSC 66455", "Tri(p-nitrophenyl) phosphate"], "SMILES": "P(OC1=CC=C(N(=O)=O)C=C1)(OC2=CC=C(N(=O)=O)C=C2)(OC3=CC=C(N(=O)=O)C=C3)=O", "physical_data": {"Molecular Weight": "461.28", "Molecular Formula": "C18H12N3O10P", "Melting Point": "155 \u00b0C"}}