{"cas_no": "38713-56-3", "cn_name": "4-\u7f9f\u57fa\u82ef\u7532\u9178\u6b63\u58ec\u916f", "en_name": ["Nonyl 4-hydroxybenzoate", "Benzoic acid, 4-hydroxy-, nonyl ester", "Benzoic acid, p-hydroxy-, nonyl ester", "Nonyl p-hydroxybenzoate", "p-Hydroxybenzoic acid nonyl ester", "n-Nonyl 4-hydroxybenzoate", "4-Hydroxy nonylbenzoate", "Nonyl 4-hydroxybenzoate"], "SMILES": "C(OCCCCCCCCC)(=O)C1=CC=C(O)C=C1", "physical_data": {"Molecular Weight": "264.36", "Molecular Formula": "C16H24O3", "Melting Point": "55 \u00b0C"}}