{"cas_no": "38711-20-5", "cn_name": "(\u4e8c\u7532\u6c28\u57fa)\u4e59\u919b\u7f29\u4e8c\u7532\u919b", "en_name": ["2,2-Dimethoxy-N,N-dimethylethanamine", "Ethanamine, 2,2-dimethoxy-N,N-dimethyl-", "Acetaldehyde, (dimethylamino)-, dimethyl acetal", "2,2-Dimethoxy-N,N-dimethylethanamine", "(Dimethylamino)acetaldehyde dimethyl acetal", "2-(Dimethylamino)acetaldehyde dimethyl acetal", "2,2-Dimethoxy-N,N-dimethylethylamine", "1,1-Dimethoxy-2-(dimethylamino)ethane", "(2,2-Dimethoxyethyl)dimethylamine"], "SMILES": "C(CN(C)C)(OC)OC", "physical_data": {"Molecular Weight": "133.19", "Molecular Formula": "C6H15NO2", "Boiling Point": "80-81 \u00b0C @ Press: 112 Torr"}}