{"cas_no": "387350-46-1", "cn_name": "3-[4-(\u7532\u78fa\u9170\u57fa)\u82ef\u57fa]\u4e19\u9178", "en_name": ["4-(Methylsulfonyl)benzenepropanoic acid", "Benzenepropanoic acid, 4-(methylsulfonyl)-", "4-(Methylsulfonyl)benzenepropanoic acid", "3-[4-(Methylsulfonyl)phenyl]propanoic acid", "4-Methylsulfonylbenzenepropanoic acid"], "SMILES": "S(C)(=O)(=O)C1=CC=C(CCC(O)=O)C=C1", "physical_data": {"Molecular Weight": "228.26", "Molecular Formula": "C10H12O4S", "Melting Point": "171-172 \u00b0C"}}