{"cas_no": "3874-54-2", "cn_name": "4-\u6c2f-4'-\u6c1f\u82ef\u4e01\u916e", "en_name": ["4-Chloro-1-(4-fluorophenyl)-1-butanone", "1-Butanone, 4-chloro-1-(4-fluorophenyl)-", "Butyrophenone, 4-chloro-4\u2032-fluoro-", "4-Chloro-1-(4-fluorophenyl)-1-butanone", "p-Fluoro-\u03c9-chlorobutyrophenone", "3-(4-Fluorobenzoyl)propyl chloride", "4-Chloro-p-fluorobutyrophenone", "4-Chloro-1-(p-fluorophenyl)-1-butanone", "4-Chloro-4\u2032-fluorobutyrophenone", "4-p-Fluorophenyl-4-oxo-1-chlorobutane", "\u03c9-Chloro-p-fluorobutyrophenone", "\u03b3-Chloro-p-fluorobutyrophenone", "3-Chloropropyl 4-fluorophenyl ketone", "p-Fluoro-4-chlorobutyrophenone", "\u03b3-Chloro-4-fluorobutyrophenone", "4-(4-Fluorophenyl)-4-oxobutyl chloride", "4-(p-Fluorophenyl)-4-oxobutyl chloride", "4-Chloro-1-(p-fluorophenyl)-1-oxobutane", "4\u2032-Fluoro-4-chlorobutyrophenone", "p-Fluoro-\u03b3-chlorobutyrophenone", "3-(p-Fluorobenzoyl)propyl chloride", "\u03c9-Chloro-4-fluorobutyrophenone", "1-Chloro-4-(4-fluorophenyl)-4-oxobutane", "\u03c9-Chloropropyl 4-fluorophenyl ketone", "4-Chloro-4\u2032-chlorobutyrophenone", "NSC 87082", "3-(4-Fluorophenylcarbonyl)-1-chloropropane"], "SMILES": "C(CCCCl)(=O)C1=CC=C(F)C=C1", "physical_data": {"Molecular Weight": "200.64", "Molecular Formula": "C10H10ClFO", "Boiling Point": "136-142 \u00b0C @ Press: 6 Torr", "Melting Point": "5-6 \u00b0C", "Density": "1.2267 g/cm\u00b3 @ Temp: 20 \u00b0C"}}