{"cas_no": "38746-92-8", "cn_name": "4-\u7532\u786b\u57fa\u82ef\u4e59\u8148", "en_name": ["4-(Methylthio)benzeneacetonitrile", "Benzeneacetonitrile, 4-(methylthio)-", "Acetonitrile, [p-(methylthio)phenyl]-", "4-(Methylthio)benzeneacetonitrile", "p-(Methylthio)phenylacetonitrile", "[4-(Methylthio)phenyl]acetonitrile", "4-Methylsulfanylphenylacetonitrile", "2-[4-(Methylsulfanyl)phenyl]acetonitrile"], "SMILES": "C(C#N)C1=CC=C(SC)C=C1", "physical_data": {"Molecular Weight": "163.24", "Molecular Formula": "C9H9NS", "Boiling Point": "120.5-127.5 \u00b0C @ Press: 1 Torr", "Melting Point": "40.5-41.5 \u00b0C"}}