{"cas_no": "38748-32-2", "cn_name": "\u96f7\u516c\u85e4\u7532\u7d20", "en_name": ["Triptolide", "Trisoxireno[4b,5:6,7:8a,9]phenanthro[1,2-c]furan-1(3H)-one, 3b,4,4a,6,6a,7a,7b,8b,9,10-decahydro-6-hydroxy-8b-methyl-6a-(1-methylethyl)-, (3bS,4aS,5aS,6R,6aR,7aS,7bS,8aS,8bS)-", "Triptolide", "(3bS,4aS,5aS,6R,6aR,7aS,7bS,8aS,8bS)-3b,4,4a,6,6a,7a,7b,8b,9,10-Decahydro-6-hydroxy-8b-methyl-6a-(1-methylethyl)trisoxireno[4b,5:6,7:8a,9]phenanthro[1,2-c]furan-1(3H)-one", "Triptolid", "[3bS-(3b\u03b1,4a\u03b1,5aR*,6\u03b2,6a\u03b2,7a\u03b2,7b\u03b1,8aR*,8b\u03b2)]-3b,4,4a,6,6a,7a,7b,8b,9,10-Decahydro-6-hydroxy-8b-methyl-6a-(1-methylethyl)trisoxireno[4b,5:6,7:8a,9]phenanthro[1,2-c]furan-1(3H)-one", "(-)-Triptolide", "PG 490", "NSC 163062"], "SMILES": "CC12C34C5(C(O5)CC1C6=C(CC2)C(=O)OC6)C(O)C7(C(C)C)C(C3O4)O7", "physical_data": {"Molecular Weight": "360.40", "Molecular Formula": "C20H24O6", "Melting Point": "226-227 \u00b0C"}}