{"cas_no": "3875-51-2", "cn_name": "\u5f02\u4e19\u73af\u620a\u70f7", "en_name": ["Isopropylcyclopentane", "Cyclopentane, (1-methylethyl)-", "Cyclopentane, isopropyl-", "(1-Methylethyl)cyclopentane", "Isopropylcyclopentane", "Propane, 2-cyclopentyl-", "NSC 73948", "(Propan-2-yl)cyclopentane"], "SMILES": "C(C)(C)C1CCCC1", "physical_data": {"Molecular Weight": "112.21", "Molecular Formula": "C8H16", "Boiling Point": "126.5 \u00b0C", "Melting Point": "-111.4 \u00b0C", "Density": "0.7717 g/cm\u00b3 @ Temp: 20 \u00b0C"}}