{"cas_no": "3875-78-3", "cn_name": "6-\u6eb4\u8272\u6ee1", "en_name": ["6-Bromochroman", "2H-1-Benzopyran, 6-bromo-3,4-dihydro-", "Chroman, 6-bromo-", "6-Bromo-3,4-dihydro-2H-1-benzopyran", "6-Bromochroman", "6-Bromochromane"], "SMILES": "BrC=1C=C2C(=CC1)OCCC2", "physical_data": {"Molecular Weight": "213.07", "Molecular Formula": "C9H9BrO", "Boiling Point": "143-144 \u00b0C @ Press: 18 Torr", "Density": "1.465 g/cm\u00b3 @ Temp: 25 \u00b0C"}}