{"cas_no": "38762-41-3", "cn_name": "4-\u6eb4-2-\u6c2f\u82ef\u80fa", "en_name": ["4-Bromo-2-chloroaniline", "Benzenamine, 4-bromo-2-chloro-", "Aniline, 4-bromo-2-chloro-", "4-Bromo-2-chlorobenzenamine", "2-Chloro-4-bromoaniline", "4-Bromo-2-chloroaniline", "4-Bromo-2-chlorophenylamine"], "SMILES": "ClC1=C(N)C=CC(Br)=C1", "physical_data": {"Molecular Weight": "206.47", "Molecular Formula": "C6H5BrClN", "Melting Point": "70.5-72 \u00b0C"}}