{"cas_no": "3877-15-4", "cn_name": "\u6b63\u8f9b\u57fa\u4e19\u57fa\u786b\u919a", "en_name": ["Methyl propyl sulfide", "Propane, 1-(methylthio)-", "Sulfide, methyl propyl", "Methyl propyl sulfide", "2-Thiapentane", "Propyl methyl sulfide", "1-(Methylthio)propane", "Methyl n-propyl sulfide", "1-(Methylsulfanyl)propane", "1-Methylsulfanylpropane"], "SMILES": "C(CC)SC", "physical_data": {"Molecular Weight": "90.19", "Molecular Formula": "C4H10S", "Boiling Point": "95.6 \u00b0C", "Melting Point": "-113 \u00b0C", "Density": "0.8438 g/cm\u00b3 @ Temp: 20 \u00b0C"}}