{"cas_no": "38775-38-1", "cn_name": "\u5341\u516d\u70f7\u57fa\u78fa\u9170\u6c2f", "en_name": ["1-Hexadecanesulfonyl chloride", "1-Hexadecanesulfonyl chloride", "Hexadecylsulfonyl chloride", "NSC 93798"], "SMILES": "C(CCCCCCCCCCCCC)CCS(Cl)(=O)=O", "physical_data": {"Molecular Weight": "324.95", "Molecular Formula": "C16H33ClO2S", "Melting Point": "49-50 \u00b0C"}}