{"cas_no": "3877-86-9", "cn_name": "\u846b\u82a6\u7d20 D", "en_name": ["Cucurbitacin D", "19-Norlanosta-5,23-diene-3,11,22-trione, 2,16,20,25-tetrahydroxy-9-methyl-, (2\u03b2,9\u03b2,10\u03b1,16\u03b1,23E)-", "19-Nor-9\u03b2,10\u03b1-lanosta-5,23-diene-3,11,22-trione, 2\u03b2,16\u03b1,20,25-tetrahydroxy-9-methyl-", "(2\u03b2,9\u03b2,10\u03b1,16\u03b1,23E)-2,16,20,25-Tetrahydroxy-9-methyl-19-norlanosta-5,23-diene-3,11,22-trione", "Elatericin A", "Cucurbitacin D", "NSC 521776", "Cucurbitacine D", "Elatericine A", "NSC 308606", "(+)-Cucurbitacin D"], "SMILES": "CC12C(C)(C(C(C(C=CC(C)(C)O)=O)(C)O)C(O)C1)CC(=O)C3(C)C2CC=C4C3CC(O)C(=O)C4(C)C", "physical_data": {"Molecular Weight": "516.67", "Molecular Formula": "C30H44O7", "Melting Point": "149-150 \u00b0C (decomp)"}}