{"cas_no": "3878-41-9", "cn_name": "2-\u82c4\u786b\u57fa\u4e59\u9187", "en_name": ["2-[(Phenylmethyl)thio]ethanol", "Ethanol, 2-[(phenylmethyl)thio]-", "Ethanol, 2-(benzylthio)-", "2-[(Phenylmethyl)thio]ethanol", "2-(Benzylthio)ethanol", "2-Hydroxyethyl benzyl sulfide", "NSC 404004", "Benzyl 2-hydroxyethylsulfide", "2-Benzylsulfanylethanol", "2-(Benzylsulfanyl)ethan-1-ol"], "SMILES": "C(SCCO)C1=CC=CC=C1", "physical_data": {"Molecular Weight": "168.26", "Molecular Formula": "C9H12OS", "Boiling Point": "169 \u00b0C @ Press: 18 Torr"}}