{"cas_no": "3878-44-2", "cn_name": "\u7852\u5316\u4e09\u82ef\u81a6", "en_name": ["Triphenylphosphine selenide", "Phosphine selenide, triphenyl-", "Triphenylphosphine selenide", "NSC 171032"], "SMILES": "P(=[Se])(C1=CC=CC=C1)(C2=CC=CC=C2)C3=CC=CC=C3", "physical_data": {"Molecular Weight": "341.25", "Molecular Formula": "C18H15PSe", "Melting Point": "187-188 \u00b0C"}}