{"cas_no": "38786-67-3", "cn_name": "2,4'-\u4e8c\u6eb4\u82ef\u4e19\u916e", "en_name": ["2-Bromo-1-(4-bromophenyl)-1-propanone", "1-Propanone, 2-bromo-1-(4-bromophenyl)-", "Propiophenone, 2,4\u2032-dibromo-", "2-Bromo-1-(4-bromophenyl)-1-propanone", "\u03b1,4\u2032-Dibromopropiophenone", "p-2-Dibromopropiophenone", "2,4\u2032-Dibromopropiophenone", "2-Bromo-4\u2032-bromopropiophenone", "2-Bromo-1-(4-bromophenyl)propan-1-one", "\u03b1,4-Dibromopropiophenone"], "SMILES": "C(C(Br)C)(=O)C1=CC=C(Br)C=C1", "physical_data": {"Molecular Weight": "291.97", "Molecular Formula": "C9H8Br2O", "Melting Point": "84-84.5 \u00b0C"}}