{"cas_no": "3878-45-3", "cn_name": "\u4e09\u82ef\u57fa\u77b5\u786b", "en_name": ["Triphenylphosphine sulfide", "Phosphine sulfide, triphenyl-", "Triphenylphosphine sulfide", "Triphenylphosphine monosulfide", "NSC 62216", "Triphenyl(thioxo)phosphine"], "SMILES": "P(=S)(C1=CC=CC=C1)(C2=CC=CC=C2)C3=CC=CC=C3", "physical_data": {"Molecular Weight": "294.35", "Molecular Formula": "C18H15PS", "Boiling Point": "110 \u00b0C @ Press: 23 Torr", "Melting Point": "161 \u00b0C", "Density": "1.246 g/cm\u00b3 @ Temp: 20 \u00b0C"}}