{"cas_no": "3878-19-1", "cn_name": "\u9ea6\u7a57\u7075", "en_name": ["Fuberidazole", "1H-Benzimidazole, 2-(2-furanyl)-", "Benzimidazole, 2-(2-furyl)-", "2-(2-Furanyl)-1H-benzimidazole", "Furidazole", "2-(2-Furyl)benzimidazole", "B 33172", "Bayer 33172", "Fuberidazol", "Voronit", "BAY 33172", "Fuberidazole", "Furidazol", "2-(2\u2032-Furyl)benzimidazole", "PF 7402", "2-(2-Furanyl)benzimidazole", "NSC 72670", "2-(Furan-2-yl)benzimidazole", "2-(2\u2032-Furanyl)benzimidazole", "2-(Furan-2-yl)-1H-benzo[d]imidazole", "2-(Furan-2-yl)-1H-1,3-benzodiazole", "2-(2-Furyl)-1H-benzimidazole"], "SMILES": "C=1(NC=2C(N1)=CC=CC2)C3=CC=CO3", "physical_data": {"Molecular Weight": "184.19", "Molecular Formula": "C11H8N2O", "Melting Point": "292 \u00b0C (decomp)"}}