{"cas_no": "3878-55-5", "cn_name": "\u4e01\u4e8c\u9178\u5355\u7532\u916f(\u7425\u73c0\u9178\u5355\u7532\u916f)", "en_name": ["Monomethyl succinate", "Butanedioic acid, 1-methyl ester", "Succinic acid, monomethyl ester", "Butanedioic acid, monomethyl ester", "Succinic acid, methyl ester", "Monomethyl succinate", "Methyl hydrogen succinate", "3-Carbomethoxypropanoic acid", "3-(Methoxycarbonyl)propionic acid", "NSC 511", "4-Methoxy-4-oxobutanoic acid", "3-(Methoxycarbonyl)propanoic acid", "Methyl monosuccinate", "Monomethyl butanedioate", "FEMA GRAS 3810", "1,4-Butanedioic acid monomethyl ester"], "SMILES": "C(CCC(O)=O)(OC)=O", "physical_data": {"Molecular Weight": "132.11", "Molecular Formula": "C5H8O4", "Boiling Point": "119 \u00b0C @ Press: 4 Torr", "Melting Point": "58 \u00b0C"}}