{"cas_no": "388-82-9", "cn_name": "2,2-\u4e8c\u6c1f\u8054\u82ef", "en_name": ["2,2\u2032-Difluoro-1,1\u2032-biphenyl", "1,1\u2032-Biphenyl, 2,2\u2032-difluoro-", "Biphenyl, 2,2\u2032-difluoro-", "2,2\u2032-Difluoro-1,1\u2032-biphenyl", "2,2\u2032-Difluorobiphenyl", "o,o\u2032-Difluorobiphenyl", "2,2\u2032-Difluorodiphenyl", "1-Fluoro-2-(2-fluorophenyl)benzene"], "SMILES": "FC1=C(C=CC=C1)C2=C(F)C=CC=C2", "physical_data": {"Molecular Weight": "190.19", "Molecular Formula": "C12H8F2", "Boiling Point": "110-112 \u00b0C", "Melting Point": "117-117.5 \u00b0C", "Density": "1.379 g/cm\u00b3 @ Temp: 25 \u00b0C"}}