{"cas_no": "38818-50-7", "cn_name": "3-\u785d\u57fa-4-\u6c2f\u82ef\u7532\u9170\u6c2f", "en_name": ["4-Chloro-3-nitrobenzoyl chloride", "Benzoyl chloride, 4-chloro-3-nitro-", "4-Chloro-3-nitrobenzoyl chloride", "3-Nitro-4-chlorobenzoyl chloride", "4-Chloro-3-nitrobenzoic acid chloride"], "SMILES": "N(=O)(=O)C1=CC(C(Cl)=O)=CC=C1Cl", "physical_data": {"Molecular Weight": "220.01", "Molecular Formula": "C7H3Cl2NO3", "Melting Point": "52-54 \u00b0C"}}