{"cas_no": "38819-01-1", "cn_name": "D-(+)-\u7ea4\u7ef4\u56db\u7cd6", "en_name": ["Cellotetraose", "D-Glucose, O-\u03b2-D-glucopyranosyl-(1\u21924)-O-\u03b2-D-glucopyranosyl-(1\u21924)-O-\u03b2-D-glucopyranosyl-(1\u21924)-", "Cellotetraose", "O-\u03b2-D-Glucopyranosyl-(1\u21924)-O-\u03b2-D-glucopyranosyl-(1\u21924)-O-\u03b2-D-glucopyranosyl-(1\u21924)-D-glucose", "Cellotetrose"], "SMILES": "O(C1C(CO)OC(OC(C(C(C=O)O)O)C(CO)O)C(O)C1O)C2OC(CO)C(OC3OC(CO)C(O)C(O)C3O)C(O)C2O", "physical_data": {"Molecular Weight": "666.58", "Molecular Formula": "C24H42O21", "Melting Point": "251 \u00b0C (decomp)"}}