{"cas_no": "38821-53-3", "cn_name": "\u5934\u5b62\u62c9\u5b9a", "en_name": ["Cephradine", "5-Thia-1-azabicyclo[4.2.0]oct-2-ene-2-carboxylic acid, 7-[[(2R)-2-amino-2-(1,4-cyclohexadien-1-yl)acetyl]amino]-3-methyl-8-oxo-, (6R,7R)-", "5-Thia-1-azabicyclo[4.2.0]oct-2-ene-2-carboxylic acid, 7-[(amino-1,4-cyclohexadien-1-ylacetyl)amino]-3-methyl-8-oxo-, [6R-[6\u03b1,7\u03b2(R*)]]-", "5-Thia-1-azabicyclo[4.2.0]oct-2-ene-2-carboxylic acid, 7-[[(2R)-amino-1,4-cyclohexadien-1-ylacetyl]amino]-3-methyl-8-oxo-, (6R,7R)-", "(6R,7R)-7-[[(2R)-2-Amino-2-(1,4-cyclohexadien-1-yl)acetyl]amino]-3-methyl-8-oxo-5-thia-1-azabicyclo[4.2.0]oct-2-ene-2-carboxylic acid", "Cephradin", "Cefradine", "Cephradine", "7-[D-\u03b1-Amino-(1,4-cyclohexadienyl)acetamide]-3-desacetoxycephalosphoranic acid", "Sefril", "Velosef", "SQ 11436", "Eskacef", "Cefro", "Cefrag", "Cesporan", "Dimacef", "Ecosporina", "Anspor", "Celex", "Cefradex", "Lisacef", "Lenzacef", "Velocef", "Samedrin", "Megacef", "Easkacef", "Cefradin", "MeSH ID: D002515"], "SMILES": "O=C1N2C(C1NC(C(N)C=3CC=CCC3)=O)SCC(C)=C2C(O)=O", "physical_data": {"Molecular Weight": "349.40", "Molecular Formula": "C16H19N3O4S", "Melting Point": "140 \u00b0C"}}