{"cas_no": "3882-98-2", "cn_name": "2-\u6c28\u57fa-2-\u567b\u5511\u5549\u76d0\u9178\u76d0", "en_name": ["2-Thiazolamine, 4,5-dihydro-, hydrochloride (1:1)", "2-Thiazolamine, 4,5-dihydro-, hydrochloride (1:1)", "2-Thiazolamine, 4,5-dihydro-, monohydrochloride", "Thiazolidine, 2-imino-, hydrochloride", "2-Amino-1,3-thiazoline monohydrochloride", "4,5-Dihydrothiazol-2-amine monohydrochloride", "2-Amino-2-thiazoline hydrochloride"], "SMILES": "NC1=NCCS1.Cl", "physical_data": {"Molecular Weight": "", "Molecular Formula": "C3H6N2S.ClH", "Melting Point": "198 \u00b0C"}}