{"cas_no": "3883-95-2", "cn_name": "3-\u6eb4-2-\u7f9f\u57fa\u82ef\u7532\u9178", "en_name": ["3-Bromosalicylic acid", "Benzoic acid, 3-bromo-2-hydroxy-", "Salicylic acid, 3-bromo-", "3-Bromo-2-hydroxybenzoic acid", "3-Bromosalicylic acid"], "SMILES": "C(O)(=O)C1=C(O)C(Br)=CC=C1", "physical_data": {"Molecular Weight": "217.02", "Molecular Formula": "C7H5BrO3", "Melting Point": "184 \u00b0C"}}