{"cas_no": "3883-86-1", "cn_name": "4H,4'H-\u516b\u6c1f\u8054\u82ef", "en_name": ["2,2\u2032,3,3\u2032,5,5\u2032,6,6\u2032-Octafluoro-1,1\u2032-biphenyl", "1,1\u2032-Biphenyl, 2,2\u2032,3,3\u2032,5,5\u2032,6,6\u2032-octafluoro-", "Biphenyl, 2,2\u2032,3,3\u2032,5,5\u2032,6,6\u2032-octafluoro-", "2,2\u2032,3,3\u2032,5,5\u2032,6,6\u2032-Octafluoro-1,1\u2032-biphenyl", "2,2\u2032,3,3\u2032,5,5\u2032,6,6\u2032-Octafluorobiphenyl", "NSC 96909", "2,3,5,6,2\u2032,3\u2032,5\u2032,6\u2032-Octafluorobiphenyl", "1,2,4,5-Tetrafluoro-3-(2,3,5,6-tetrafluorophenyl)benzene"], "SMILES": "FC1=C(C(F)=C(F)C=C1F)C2=C(F)C(F)=CC(F)=C2F", "physical_data": {"Molecular Weight": "298.13", "Molecular Formula": "C12H2F8", "Melting Point": "85 \u00b0C"}}