{"cas_no": "3884-71-7", "cn_name": "5-\u6eb4-2-\u620a\u916e", "en_name": ["5-Bromo-2-pentanone", "2-Pentanone, 5-bromo-", "5-Bromo-2-pentanone", "1-Bromo-4-pentanone", "3-Bromopropyl methyl ketone"], "SMILES": "C(C(C)=O)CCBr", "physical_data": {"Molecular Weight": "165.03", "Molecular Formula": "C5H9BrO", "Boiling Point": "73-75 \u00b0C @ Press: 12 Torr"}}