{"cas_no": "38840-23-2", "cn_name": "\u5927\u9ec4\u7d20-1-O-\u8461\u8404\u7cd6\u82f7", "en_name": ["Emodin 1-O-\u03b2-D-glucopyranoside", "9,10-Anthracenedione, 1-(\u03b2-D-glucopyranosyloxy)-6,8-dihydroxy-3-methyl-", "1-(\u03b2-D-Glucopyranosyloxy)-6,8-dihydroxy-3-methyl-9,10-anthracenedione", "Emodin 1-\u03b2-D-glucopyranoside", "1-O-\u03b2-D-Glucopyranosylemodin", "Emodin 1-O-\u03b2-D-glucopyranoside", "Emodin 1-\u03b2-glucoside", "Emodin 1-O-\u03b2-D-glucoside", "Emodin-1-O-glucoside"], "SMILES": "O(C1=C2C(C(=O)C=3C(C2=O)=C(O)C=C(O)C3)=CC(C)=C1)C4OC(CO)C(O)C(O)C4O", "physical_data": {"Molecular Weight": "432.38", "Molecular Formula": "C21H20O10", "Melting Point": "239-241 \u00b0C"}}