{"cas_no": "38841-54-2", "cn_name": "2,6-\u4e8c\u6c2f-4-\u7532\u57fa\u70df\u9170\u80fa", "en_name": ["2,6-Dichloro-4-methyl-3-pyridinecarboxamide", "3-Pyridinecarboxamide, 2,6-dichloro-4-methyl-", "2,6-Dichloro-4-methyl-3-pyridinecarboxamide", "2,6-Dichloro-4-methylnicotinamide", "NSC 341976"], "SMILES": "C(N)(=O)C=1C(C)=CC(Cl)=NC1Cl", "physical_data": {"Molecular Weight": "205.04", "Molecular Formula": "C7H6Cl2N2O", "Melting Point": "170-171 \u00b0C"}}