{"cas_no": "38853-67-7", "cn_name": "\u56db\u6c22\u8868\u5c0f\u6a97\u78b1", "en_name": ["(\u00b1)-Sinactine", "12H-Benzo[a]-1,3-benzodioxolo[4,5-g]quinolizine, 6,6a,11,14-tetrahydro-8,9-dimethoxy-", "Sinactine", "6,6a,11,14-Tetrahydro-8,9-dimethoxy-12H-benzo[a]-1,3-benzodioxolo[4,5-g]quinolizine", "(\u00b1)-Sinactine", "Epiberberine, tetrahydro-", "Sinactin", "Tetrahydroepiberberine", "2,3-Dimethoxy-9,10-methylenedioxyberbine"], "SMILES": "O(C)C=1C=C2C3N(CC=4C(C3)=CC=C5C4OCO5)CCC2=CC1OC", "physical_data": {"Molecular Weight": "339.39", "Molecular Formula": "C20H21NO4", "Melting Point": "174 \u00b0C"}}