{"cas_no": "3886-08-6", "cn_name": "N-\u82c4\u6c27\u7fb0\u57fa-L-\u8c37\u6c28\u9178 5-\u53d4\u4e01\u916f", "en_name": ["5-(1,1-Dimethylethyl) hydrogen N-[(phenylmethoxy)carbonyl]-L-glutamate", "L-Glutamic acid, N-[(phenylmethoxy)carbonyl]-, 5-(1,1-dimethylethyl) ester", "Glutamic acid, N-carboxy-, N-benzyl 5-tert-butyl ester, L-", "5-(1,1-Dimethylethyl) hydrogen N-[(phenylmethoxy)carbonyl]-L-glutamate", "(Benzyloxycarbonyl)-L-glutamic acid 5-tert-butyl ester", "N\u03b1-Benzyloxycarbonyl-\u03b3-tert-butyl-L-glutamic acid", "4(S)-Carboxy-4-(N-(benzyloxycarbonyl)amino)butanoic acid tert-butyl ester", "(2S)-2-[[(Benzyloxy)carbonyl]amino]-5-tert-butoxy-5-oxopentanoic acid", "(2S)-5-[(2-Methylpropan-2-yl)oxy]-5-oxo-2-(phenylmethoxycarbonylamino)pentanoic acid"], "SMILES": "C(OC(NC(CCC(OC(C)(C)C)=O)C(O)=O)=O)C1=CC=CC=C1", "physical_data": {"Molecular Weight": "337.37", "Molecular Formula": "C17H23NO6", "Melting Point": "81-85 \u00b0C"}}