{"cas_no": "38864-21-0", "cn_name": "N,N',N''-\u4e09\u4e59\u9170\u58f3\u4e09\u7cd6", "en_name": ["N,N\u2032,N\u2032\u2032-Triacetylchitotriose", "D-Glucose, O-2-(acetylamino)-2-deoxy-\u03b2-D-glucopyranosyl-(1\u21924)-O-2-(acetylamino)-2-deoxy-\u03b2-D-glucopyranosyl-(1\u21924)-2-(acetylamino)-2-deoxy-", "Glucopyranose, O-2-acetamido-2-deoxy-\u03b2-D-glucopyranosyl-(1\u21924)-O-2-acetamido-2-deoxy-\u03b2-D-glucopyranosyl-(1\u21924)-2-acetamido-2-deoxy-, D-", "Chitotriose, tri-N-acetyl-", "O-2-(Acetylamino)-2-deoxy-\u03b2-D-glucopyranosyl-(1\u21924)-O-2-(acetylamino)-2-deoxy-\u03b2-D-glucopyranosyl-(1\u21924)-2-(acetylamino)-2-deoxy-D-glucose", "Chitotriose, N,N\u2032,N\u2032\u2032-triacetyl-", "Tri-N-acetylchitotriose", "N,N\u2032,N\u2032\u2032-Triacetylchitotriose", "Tri-N-acetyl-D-glucosamine", "Tri(N-acetylglucosamine)", "N-Acetylglucosamine trimer", "N-acetylchitotriose", "N\u2032,N\u2032\u2032,N\u2032\u2032\u2032-Triacetylchitotriose"], "SMILES": "O(C1C(CO)OC(OC(C(C(NC(C)=O)C=O)O)C(CO)O)C(NC(C)=O)C1O)C2C(NC(C)=O)C(O)C(O)C(CO)O2", "physical_data": {"Molecular Weight": "627.59", "Molecular Formula": "C24H41N3O16", "Melting Point": "304-306 \u00b0C (decomp)"}}