{"cas_no": "38861-78-8", "cn_name": "4-\u5f02\u4e01\u57fa\u82ef\u4e59\u916e", "en_name": ["4\u2032-Isobutylacetophenone", "Ethanone, 1-[4-(2-methylpropyl)phenyl]-", "Acetophenone, 4\u2032-isobutyl-", "1-[4-(2-Methylpropyl)phenyl]ethanone", "p-Isobutylacetophenone", "4\u2032-Isobutylacetophenone", "p-Isobutylphenyl methyl ketone", "1-Acetyl-4-isobutylbenzene", "1-[4-(2-Methylpropyl)phenyl]-1-ethanone", "4-(2-Methylpropyl)acetophenone", "p-Acetylisobutylbenzene", "NSC 173015", "1-(4-Isobutylphenyl)ethan-1-one"], "SMILES": "C(C(C)C)C1=CC=C(C(C)=O)C=C1", "physical_data": {"Molecular Weight": "176.25", "Molecular Formula": "C12H16O", "Boiling Point": "135 \u00b0C"}}