{"cas_no": "38862-25-8", "cn_name": "\u7532\u57fa\u4e19\u70ef\u9178N-\u7f9f\u7425\u73c0\u9178\u4e9a\u80fa\u916f", "en_name": ["2,5-Dioxo-1-pyrrolidinyl 2-methyl-2-propenoate", "2-Propenoic acid, 2-methyl-, 2,5-dioxo-1-pyrrolidinyl ester", "2,5-Pyrrolidinedione, 1-[(2-methyl-1-oxo-2-propenyl)oxy]-", "2,5-Dioxo-1-pyrrolidinyl 2-methyl-2-propenoate", "N-(Methacryloyloxy)succinimide", "N-Hydroxysuccinimide methacrylate ester", "Methacryloyloxy succinimide", "N-Hydroxysuccinimide methacrylate", "Methacryloxy N-hydroxysuccinimide", "N-Methacryloxysuccinimide", "Methacrylic acid N-hydroxysuccinimide ester", "2,5-Dioxopyrrolidin-1-yl methacrylate", "Methacrylic acid N-hydroxysuccinimide ester-N,N-dimethylacrylamide copolymer"], "SMILES": "O(C(C(C)=C)=O)N1C(=O)CCC1=O", "physical_data": {"Molecular Weight": "183.16", "Molecular Formula": "C8H9NO4", "Melting Point": "100.9 \u00b0C"}}