{"cas_no": "38861-88-0", "cn_name": "\u5bf9\u5f02\u4e01\u57fa\u82ef\u7532\u9178", "en_name": ["4-Isobutylbenzoic acid", "Benzoic acid, 4-(2-methylpropyl)-", "4-(2-Methylpropyl)benzoic acid", "4-Isobutylbenzoic acid", "p-Isobutylbenzoic acid", "p-(2-Methylpropyl)benzoic acid", "NSC 168984"], "SMILES": "C(C(C)C)C1=CC=C(C(O)=O)C=C1", "physical_data": {"Molecular Weight": "178.23", "Molecular Formula": "C11H14O2", "Melting Point": "141-143 \u00b0C"}}