{"cas_no": "3886-69-9", "cn_name": "R(+)-alpha-\u7532\u57fa\u82c4\u80fa", "en_name": ["(+)-Phenylethylamine", "Benzenemethanamine, \u03b1-methyl-, (\u03b1R)-", "Benzylamine, \u03b1-methyl-, (R)-(+)-", "Benzenemethanamine, \u03b1-methyl-, (R)-", "Benzylamine, \u03b1-methyl-, d-", "(\u03b1R)-\u03b1-Methylbenzenemethanamine", "(+)-\u03b1-Phenylethylamine", "(+)-\u03b1-Methylbenzylamine", "D-\u03b1-Methylbenzylamine", "D-(+)-\u03b1-Phenylethylamine", "(R)-\u03b1-Phenethylamine", "(R)-(+)-\u03b1-Phenylethylamine", "(+)-(R)-\u03b1-Phenylethylamine", "(+)-1-Phenylethylamine", "(+)-(R)-\u03b1-Methylbenzylamine", "d-1-Phenylethylamine", "(R)-\u03b1-Methylbenzenemethanamine", "D-Phenethylamine", "(+)-\u03b1-Phenethylamine", "R-(+)-Methylbenzylamine", "(+)-(R)-1-Phenylethylamine", "(R)-\u03b1-Phenylethylamine", "(R)-(+)-\u03b1-Phenethylamine", "D-(+)-1-Phenylethylamine", "D-\u03b1-Phenethylamine", "(+)-\u03b1-Methylbenzenemethanamine", "(+)-(R)-1-Phenethylamine", "(R)-Phenethylamine", "(R)-1-Amino-1-phenylethane", "(R)-(+)-1-Phenethylamine", "(+)-Phenylethylamine", "(+)-1-Amino-1-phenylethane", "(R)-1-Phenethylamine", "D-1-Phenylethylamine", "(R)-\u03b1-Aminoethylbenzene", "D-(+)-\u03b1-Methylbenzylamine", "(R)-(+)-1-Phenylethylamine", "(R)-(+)-1-Methylbenzylamine", "(R)-1-Phenylethanamine", "(R)-(+)-Phenethylamine", "(R)-1-Aminoethylbenzene", "(1R)-1-Phenyl-1-ethanamine", "(R)-Phenylethylamine", "(1R)-1-Phenylethanamine", "(R)-(+)-\u03b1-Methylbenzylamine", "(1R)-1-Phenylethylamine", "(R)-\u03b1-Methylbenzylamine", "(R)-1-Phenylethylamine", "(+)-[(1R)-1-Phenylethyl]amine", "(1R)-Phenylethylamine", "(R)-Phenylethylamine", "(R)-1-Phenyl-1-ethanamine", "(R)-(+)-Alpha-methylbenzylamine", "(R)-(+)-1-Phenylethanamine", "(+)-1-Phenethylamine", "(R)-Methylbenzylamine", "(1R)-1-Phenylethanamine", "(1R)-1-Phenylethan-1-amine", "(+)-1-Phenylethan-1-amine", "(R)-Alpha-methylbenzylamine", "R-(+)-Phenylethylamine", "R-(+)-Phenylethylamine"], "SMILES": "C(C)(N)C1=CC=CC=C1", "physical_data": {"Molecular Weight": "121.18", "Molecular Formula": "C8H11N", "Boiling Point": "184-186 \u00b0C", "Melting Point": "142.5-145.5 \u00b0C"}}