{"cas_no": "3886-70-2", "cn_name": "(R)-1-(1-\u8418\u57fa)\u4e59\u80fa", "en_name": ["(+)-1-(1-Naphthyl)ethylamine", "1-Naphthalenemethanamine, \u03b1-methyl-, (\u03b1R)-", "1-Naphthalenemethylamine, \u03b1-methyl-, (R)-(+)-", "1-Naphthalenemethanamine, \u03b1-methyl-, (R)-", "(\u03b1R)-\u03b1-Methyl-1-naphthalenemethanamine", "(+)-\u03b1-(1-Naphthyl)ethylamine", "d-1-(1-Naphthyl)ethylamine", "(R)-(+)-\u03b1-(1-Naphthyl)ethylamine", "(+)-1-(1-Naphthyl)ethylamine", "(+)-1-(\u03b1-Naphthyl)ethylamine", "(R)-\u03b1-(1-Naphthyl)ethylamine", "(R)-1-(1-Naphthyl)ethylamine", "(R)-1-(\u03b1-Naphthyl)ethylamine", "(R)-(+)-1-(1-Naphthyl)ethylamine", "(R)-(+)-1-(\u03b1-Naphthyl)ethylamine", "(R)-1-(1-Naphthyl)ethanamine", "(R)-1-Naphthylethylamine", "(R)-\u03b1-Methyl-1-naphthalenemethanamine", "(R)-(+)-1-(1-Naphthyl)ethylamine", "[(R)-1-(Naphthalen-1-yl)ethyl]amine", "(1R)-1-(1-Naphthyl)ethanamine", "(R)-1-(Naphthalen-1-yl)ethanamine", "(+)-[(R)-1-(Naphthalen-1-yl)ethyl]amine", "(R)-1-(1-Naphthalenyl)ethylamine", "(R)-1-(Naphthalen-1-yl)ethan-1-amine", "(1R)-1-(Naphthalen-1-yl)ethan-1-amine", "(1R)-1-Naphthalen-1-ylethanamine"], "SMILES": "C(C)(N)C=1C2=C(C=CC1)C=CC=C2", "physical_data": {"Molecular Weight": "171.24", "Molecular Formula": "C12H13N", "Boiling Point": "110-115 \u00b0C @ Press: 0.1 Torr", "Melting Point": "135-136 \u00b0C"}}