{"cas_no": "38869-37-3", "cn_name": "1-(4-\u7f9f\u82ef\u57fa)\u54cc\u55ea\u4e8c\u6c30\u6eb4\u5316\u7269", "en_name": ["Phenol, 4-(1-piperazinyl)-, hydrobromide (1:2)", "Phenol, 4-(1-piperazinyl)-, hydrobromide (1:2)", "Phenol, 4-(1-piperazinyl)-, dihydrobromide", "4-(1-Piperazinyl)phenol dihydrobromide", "1-(4-Hydroxyphenyl)piperazine dihydrobromide"], "SMILES": "OC1=CC=C(C=C1)N2CCNCC2.Br", "physical_data": {"Molecular Weight": "", "Molecular Formula": "C10H14N2O.2BrH", "Melting Point": "275 \u00b0C (decomp)"}}