{"cas_no": "38875-53-5", "cn_name": "2,3-\u4e8c\u6c28\u57fa-5-\u6eb4\u5421\u5576", "en_name": ["2,3-Diamino-5-bromopyridine", "2,3-Pyridinediamine, 5-bromo-", "Pyridine, 2,3-diamino-5-bromo-", "5-Bromo-2,3-pyridinediamine", "2,3-Diamino-5-bromopyridine", "5-Bromo-2,3-diaminopyridine"], "SMILES": "NC1=C(N)N=CC(Br)=C1", "physical_data": {"Molecular Weight": "188.03", "Molecular Formula": "C5H6BrN3", "Boiling Point": "180 \u00b0C @ Press: 5 x 10<sup>-3</sup>-0.01 Torr", "Melting Point": "214-215 \u00b0C"}}