{"cas_no": "38870-89-2", "cn_name": "\u7532\u6c27\u57fa\u4e59\u9170\u6c2f", "en_name": ["Methoxyacetyl chloride", "Acetyl chloride, 2-methoxy-", "Acetyl chloride, methoxy-", "2-Methoxyacetyl chloride", "Methoxyacetyl chloride", "\u03b1-Methoxyacetyl chloride", "Methoxyacetic acid chloride", "NSC 82321"], "SMILES": "C(C(Cl)=O)OC", "physical_data": {"Molecular Weight": "108.52", "Molecular Formula": "C3H5ClO2", "Boiling Point": "112.5 \u00b0C"}}