{"cas_no": "3887-02-3", "cn_name": "N-\u7532\u57fa\u7532\u57fa\u4e19\u70ef\u9170\u80fa(\u542b\u7a33\u5b9a\u5242\u6c22\u918c)", "en_name": ["Methylmethacrylamide", "2-Propenamide, N,2-dimethyl-", "Acrylamide, N,2-dimethyl-", "N,2-Dimethyl-2-propenamide", "N-Methylmethacrylamide", "N,2-Dimethylpropenamide", "Methylmethacrylamide"], "SMILES": "C(C(C)=C)(NC)=O", "physical_data": {"Molecular Weight": "99.13", "Molecular Formula": "C5H9NO", "Boiling Point": "108-110 \u00b0C @ Press: 10 Torr", "Density": "0.9963 g/cm\u00b3 @ Temp: 20 \u00b0C"}}