{"cas_no": "3888-65-1", "cn_name": "4-\u7f9f\u57fa\u54cc\u5576, 4-(4-\u6c1f\u82ef\u57fa)-", "en_name": ["4-(4-Fluorophenyl)-4-hydroxypiperidine", "4-Piperidinol, 4-(4-fluorophenyl)-", "4-Piperidinol, 4-(p-fluorophenyl)-", "4-(4-Fluorophenyl)-4-piperidinol", "4-(p-Fluorophenyl)-4-piperidinol", "4-(4-Fluorophenyl)-4-hydroxypiperidine", "4-Hydroxy-4-(4-fluorophenyl)piperidine", "NSC 90449"], "SMILES": "OC1(CCNCC1)C2=CC=C(F)C=C2", "physical_data": {"Molecular Weight": "195.23", "Molecular Formula": "C11H14FNO", "Melting Point": "116.4-117.6 \u00b0C"}}