{"cas_no": "38896-30-9", "cn_name": "6-\u55b9\u5549\u7fa7\u9178\u7532\u916f", "en_name": ["Methyl 6-quinolinecarboxylate", "6-Quinolinecarboxylic acid, methyl ester", "Methyl 6-quinolinecarboxylate", "6-Carbomethoxyquinoline"], "SMILES": "C(OC)(=O)C1=CC2=C(C=C1)N=CC=C2", "physical_data": {"Molecular Weight": "187.19", "Molecular Formula": "C11H9NO2", "Melting Point": "85-86 \u00b0C"}}