{"cas_no": "389-40-2", "cn_name": "2,3,4,5,6-\u4e94\u6c1f\u56de\u9999\u919a", "en_name": ["Pentafluoroanisole", "Benzene, 1,2,3,4,5-pentafluoro-6-methoxy-", "Anisole, 2,3,4,5,6-pentafluoro-", "Benzene, pentafluoromethoxy-", "1,2,3,4,5-Pentafluoro-6-methoxybenzene", "2,3,4,5,6-Pentafluoroanisole", "Pentafluoroanisole", "Methyl pentafluorophenyl ether", "Pentafluorophenyl methyl ether", "Methoxypentafluorobenzene", "NSC 21631"], "SMILES": "O(C)C1=C(F)C(F)=C(F)C(F)=C1F", "physical_data": {"Molecular Weight": "198.09", "Molecular Formula": "C7H3F5O", "Boiling Point": "138.5 \u00b0C", "Melting Point": "-37 \u00b0C", "Density": "1.4960 g/cm\u00b3 @ Temp: 20 \u00b0C"}}