{"cas_no": "389-08-2", "cn_name": "\u8418\u5576\u9178", "en_name": ["Nalidixic acid", "1,8-Naphthyridine-3-carboxylic acid, 1-ethyl-1,4-dihydro-7-methyl-4-oxo-", "1-Ethyl-1,4-dihydro-7-methyl-4-oxo-1,8-naphthyridine-3-carboxylic acid", "Win 18320", "3-Carboxy-1-ethyl-7-methyl-1,8-naphthyridin-4-one", "1,4-Dihydro-1-ethyl-7-methyl-4-oxo-1,8-naphthyridine-3-carboxylic acid", "1-Ethyl-7-methyl-1,8-naphthyridin-4-one-3-carboxylic acid", "1-Ethyl-7-methyl-4-oxo-1,8-naphthyridine-3-carboxylic acid", "Nalidic acid", "Nalidixic acid", "Nalidixin", "Urisal", "Wintomylon", "NegGram", "Nogram", "Nevigramon", "Nalidixan", "Nalidixinic acid", "Nalix", "Nalurin", "Naxuril", "Nacid", "Nelidix", "Specifin", "Nalidicron", "Betaxina", "Nalitucsan", "Uriclar", "Nicelate", "Innoxalomn", "Eucistin", "Poleon", "NSC 82174", "Uralgin", "Uroneg", "Urodixin", "Dixiben", "Uriben", "Cybis", "Narigix", "Uropan", "Uroman", "Nalidram", "1-Ethyl-7-methyl-4-oxo-1,4-dihydro-[1,8]naphthyridine-3-carboxylic acid", "MeSH ID: D009268"], "SMILES": "C(C)N1C=2C(C(=O)C(C(O)=O)=C1)=CC=C(C)N2", "physical_data": {"Molecular Weight": "232.24", "Molecular Formula": "C12H12N2O3", "Melting Point": "229-230 \u00b0C"}}