{"cas_no": "38901-31-4", "cn_name": "4-[3,5-\u53cc(\u4e09\u6c1f\u7532\u70f7)\u82ef\u57fa]-3-\u6c28\u57fa\u786b\u8132", "en_name": ["N-[3,5-Bis(trifluoromethyl)phenyl]hydrazinecarbothioamide", "Hydrazinecarbothioamide, N-[3,5-bis(trifluoromethyl)phenyl]-", "N-[3,5-Bis(trifluoromethyl)phenyl]hydrazinecarbothioamide", "4-(3,5-Ditrifluoromethylphenyl)-3-thiosemicarbazide", "1-Amino-3-[3,5-bis(trifluoromethyl)phenyl]thiourea"], "SMILES": "N(C(NN)=S)C1=CC(C(F)(F)F)=CC(C(F)(F)F)=C1", "physical_data": {"Molecular Weight": "303.23", "Molecular Formula": "C9H7F6N3S", "Melting Point": "156-158 \u00b0C"}}