{"cas_no": "3891-59-6", "cn_name": "2,3,4,5,6-alpha-D-\u8461\u8404\u7cd6\u4e94\u4e59\u9178\u916f", "en_name": ["2,3,4,5,6-Penta-O-acetyl-D-glucose", "D-Glucose, 2,3,4,5,6-pentaacetate", "Penta-O-acetyl-aldehydo-D-glucose", "2,3,4,5,6-Penta-O-acetyl-D-glucose"], "SMILES": "C(C(C(OC(C)=O)C=O)OC(C)=O)(C(COC(C)=O)OC(C)=O)OC(C)=O", "physical_data": {"Molecular Weight": "390.34", "Molecular Formula": "C16H22O11", "Melting Point": "130-131 \u00b0C"}}