{"cas_no": "3891-98-3", "cn_name": "2,6,10-\u4e09\u7532\u57fa\u5341\u4e8c\u70f7", "en_name": ["Farnesane", "Dodecane, 2,6,10-trimethyl-", "2,6,10-Trimethyldodecane", "Farnesane", "Farnesan", "Hemisqualane", "Neossance TMD"], "SMILES": "C(CCCC(CC)C)(CCCC(C)C)C", "physical_data": {"Molecular Weight": "212.41", "Molecular Formula": "C15H32", "Boiling Point": "119.5-120 \u00b0C @ Press: 11 Torr", "Density": "0.7682 g/cm\u00b3 @ Temp: 25 \u00b0C"}}