{"cas_no": "3891-33-6", "cn_name": "1,4-\u4e01\u4e8c\u9187\u4e59\u70ef\u919a", "en_name": ["Butanediol divinyl ether", "Butane, 1,4-bis(ethenyloxy)-", "Butane, 1,4-bis(vinyloxy)-", "1,4-Bis(ethenyloxy)butane", "Butanediol divinyl ether", "1,4-Divinyloxybutane", "1,4-Bis(vinyloxy)butane", "1,4-Butanediol divinyl ether", "Rapi-Cure BDVE", "NSC 43556", "Rapi-Cure DVB 1D", "DVB 1D", "Butylene glycol divinyl ether", "1,4-Butandiol divinyl ether", "1,4-Butylene glycol vinyl diether", "1,4-Butylene glycol divinyl ether"], "SMILES": "C(CCOC=C)COC=C", "physical_data": {"Molecular Weight": "142.20", "Molecular Formula": "C8H14O2", "Boiling Point": "75 \u00b0C @ Press: 25 Torr", "Density": "0.8985 g/cm\u00b3 @ Temp: 20 \u00b0C"}}