{"cas_no": "3891-07-4", "cn_name": "N-\u7f9f\u4e59\u57fa\u915e\u9170\u4e9a\u80fa", "en_name": ["N-(2-Hydroxyethyl)phthalimide", "1H-Isoindole-1,3(2H)-dione, 2-(2-hydroxyethyl)-", "Phthalimide, N-(2-hydroxyethyl)-", "2-(2-Hydroxyethyl)-1H-isoindole-1,3(2H)-dione", "N-(2-Hydroxyethyl)phthalimide", "2-Phthalimidoethanol", "2-(N-Phthalimidyl)ethyl alcohol", "NSC 2773", "NSC 50624", "2-(2-Hydroxyethyl)isoindole-1,3-dione", "2-(2-Hydroxyethyl)isoindoline-1,3-dione", "N-Hydroxyethylphthalimide", "2-(2-Hydroxyethyl)-2,3-dihydro-1H-isoindole-1,3-dione"], "SMILES": "O=C1C=2C(C(=O)N1CCO)=CC=CC2", "physical_data": {"Molecular Weight": "191.18", "Molecular Formula": "C10H9NO3", "Boiling Point": "188 \u00b0C @ Press: 6 Torr", "Melting Point": "126.5-127.5 \u00b0C"}}