{"cas_no": "38923-57-8", "cn_name": "2,2,-\u4e8c\u7532\u57fa\u4e59\u9170\u4e59\u9178\u7532\u916f", "en_name": ["Butanoic acid, 2,2-dimethyl-3-oxo-, methyl ester", "Butanoic acid, 2,2-dimethyl-3-oxo-, methyl ester", "Methyl \u03b1,\u03b1-dimethylacetoacetate", "Methyl 2,2-dimethyl-3-oxobutanoate", "Methyl 2,2-dimethylacetoacetate", "Methyl 2,2-dimethyl-3-oxobutyrate", "NSC 93904"], "SMILES": "C(C(OC)=O)(C(C)=O)(C)C", "physical_data": {"Molecular Weight": "144.17", "Molecular Formula": "C7H12O3", "Boiling Point": "95-100 \u00b0C @ Press: 0.2 Torr", "Density": "0.9955 g/cm\u00b3 @ Temp: 20 \u00b0C"}}