{"cas_no": "38939-88-7", "cn_name": "3-\u6c2f-4-\u785d\u57fa\u7532\u82ef", "en_name": ["2-Chloro-4-methyl-1-nitrobenzene", "Benzene, 2-chloro-4-methyl-1-nitro-", "Toluene, 3-chloro-4-nitro-", "2-Chloro-4-methyl-1-nitrobenzene", "3-Chloro-4-nitrotoluene", "5-Methyl-2-nitrochlorobenzene", "1-Chloro-5-methyl-2-nitrobenzene", "1-Methyl-3-chloro-4-nitrobenzene", "2-Chloro-4-methylnitrobenzene"], "SMILES": "N(=O)(=O)C1=C(Cl)C=C(C)C=C1", "physical_data": {"Molecular Weight": "171.58", "Molecular Formula": "C7H6ClNO2", "Boiling Point": "108 \u00b0C @ Press: 3 Torr", "Melting Point": "24 \u00b0C"}}