{"cas_no": "38932-80-8", "cn_name": "\u56db\u4e01\u57fa\u4e09\u6eb4\u5316\u94f5", "en_name": ["Tetrabutylammonium tribromide", "1-Butanaminium, N,N,N-tributyl-, (tribromide) (1:1)", "1-Butanaminium, N,N,N-tributyl-, (tribromide)", "Tetrabutylammonium tribromide", "Bromide (Br31-), N,N,N-tributyl-1-butanaminium", "N,N,N,N-Tetrabutylammonium tribromide", "Tetra-n-butylammonium tribromide"], "SMILES": "[N+](CCCC)(CCCC)(CCCC)CCCC.[Br-](Br)Br", "physical_data": {"Molecular Weight": "", "Molecular Formula": "C16H36N.Br3", "Melting Point": "72-73 \u00b0C"}}