{"cas_no": "38936-60-6", "cn_name": "1-(\u6c28\u57fa\u6c27\u7532\u57fa)-4-\u6c2f\u82ef\u57fa\u76d0\u9178\u76d0", "en_name": ["Hydroxylamine, O-[(4-chlorophenyl)methyl]-, hydrochloride (1:1)", "Hydroxylamine, O-[(4-chlorophenyl)methyl]-, hydrochloride (1:1)", "Hydroxylamine, O-[(4-chlorophenyl)methyl]-, hydrochloride", "Benzyloxyamine, p-chloro-, hydrochloride", "O-(p-Chlorobenzyl)hydroxylamine hydrochloride", "O-(4-Chlorobenzyl)hydroxylamine hydrochloride", "4-Chlorobenzyloxyamine hydrochloride"], "SMILES": "C(ON)C1=CC=C(Cl)C=C1.Cl", "physical_data": {"Molecular Weight": "", "Molecular Formula": "C7H8ClNO.ClH", "Melting Point": "243-244 \u00b0C (decomp)"}}