{"cas_no": "3893-23-0", "cn_name": "\u73af\u5df1\u57fa\u82ef\u57fa\u4e59\u8148", "en_name": ["\u03b1-Cyclohexylbenzeneacetonitrile", "Benzeneacetonitrile, \u03b1-cyclohexyl-", "Cyclohexaneacetonitrile, \u03b1-phenyl-", "\u03b1-Cyclohexylbenzeneacetonitrile", "2-Cyclohexylphenylacetonitrile", "2-Cyclohexyl-2-phenylacetonitrile", "Cyclohexylphenylacetonitrile", "\u03b1-Phenylcyclohexaneacetonitrile", "\u03b1-Cyclohexylbenzyl cyanide", "NSC 506"], "SMILES": "C(C#N)(C1CCCCC1)C2=CC=CC=C2", "physical_data": {"Molecular Weight": "199.29", "Molecular Formula": "C14H17N", "Boiling Point": "174-176 \u00b0C @ Press: 3 Torr", "Melting Point": "55-56 \u00b0C"}}