{"cas_no": "38941-47-8", "cn_name": "\u73af\u5df1\u70f7\u78b3\u9170\u80bc", "en_name": ["Cyclohexanecarbohydrazide", "Cyclohexanecarboxylic acid, hydrazide", "Cyclohexanecarboxylic hydrazide", "Cyclohexanecarbonylhydrazine", "Cyclohexanecarbohydrazide", "NSC 45908"], "SMILES": "C(NN)(=O)C1CCCCC1", "physical_data": {"Molecular Weight": "142.20", "Molecular Formula": "C7H14N2O", "Melting Point": "158-159 \u00b0C"}}