{"cas_no": "3894-09-5", "cn_name": "\u73af\u5df2\u57fa\u82ef\u4e59\u9178", "en_name": ["Cyclohexylphenylacetic acid", "Benzeneacetic acid, \u03b1-cyclohexyl-", "Cyclohexaneacetic acid, \u03b1-phenyl-", "\u03b1-Cyclohexylbenzeneacetic acid", "Acetic acid, cyclohexylphenyl-", "Cyclohexylphenylacetic acid", "2-Cyclohexyl-2-phenylacetic acid", "\u03b1-Cyclohexyl-\u03b1-phenylacetic acid", "\u03b1-Cyclohexylphenylacetic acid", "\u03b1-Phenylcyclohexaneacetic acid", "(\u00b1)-Cyclohexylphenylacetic acid", "NSC 60418"], "SMILES": "C(C(O)=O)(C1CCCCC1)C2=CC=CC=C2", "physical_data": {"Molecular Weight": "218.29", "Molecular Formula": "C14H18O2", "Melting Point": "150-151 \u00b0C"}}