{"cas_no": "38942-50-6", "cn_name": "4-\u7532\u57fa-5-\u7532\u57fa-4H-[1,2,3]\u4e09\u5511-3-\u786b\u9187", "en_name": ["4-Methyl-5-methyl-4H-[1,2,4]triazole-3-thiol", "3H-1,2,4-Triazole-3-thione, 2,4-dihydro-4,5-dimethyl-", "4H-1,2,4-Triazole-3-thiol, 4,5-dimethyl-", "\u03942-1,2,4-Triazoline-5-thione, 3,4-dimethyl-", "2,4-Dihydro-4,5-dimethyl-3H-1,2,4-triazole-3-thione", "5-Mercapto-3,4-dimethyl-1,2,4-triazole", "4,5-Dimethyl-3-mercapto-1,2,4-triazole", "3,4-Dimethyl-1,2,4-triazoline-5-thione", "3,4-Dimethyl-5-mercapto-1,2,4-triazole", "3,4-Dimethyl-1,2,4-triazole-5-thiol", "NSC 520788", "4,5-Dimethyl-4H-1,2,4-triazole-3-thiol", "4-Methyl-5-methyl-4H-[1,2,4]triazole-3-thiol", "3,4-Dimethyl-1H-1,2,4-triazole-5-thione"], "SMILES": "CN1C(C)=NNC1=S", "physical_data": {"Molecular Weight": "129.18", "Molecular Formula": "C4H7N3S", "Melting Point": "210 \u00b0C"}}