{"cas_no": "38945-21-0", "cn_name": "O-\u70ef\u4e19\u57fa\u7f9f\u80fa\u76d0\u9178\u76d0", "en_name": ["O-Allylhydroxylamine hydrochloride", "Hydroxylamine, O-2-propenyl-, hydrochloride", "(Allyloxy)amine hydrochloride", "O-Allylhydroxylamine hydrochloride", "O-2-Propenylhydroxylamine hydrochloride", "3-(Aminooxy)prop-1-ene hydrochloride", "2-Propenyloxyamine hydrochloride"], "SMILES": "C(C=C)ON.Cl", "physical_data": {"Molecular Weight": "", "Molecular Formula": "C3H7NO.ClH", "Melting Point": "172 \u00b0C (decomp)"}}