{"cas_no": "38954-67-5", "cn_name": "\u8f9b\u57fa-2,3,4,6-\u56db-O-\u4e59\u9170\u57fa-BETA-D-\u5421\u5583\u8461\u8404\u7cd6\u82f7", "en_name": ["\u03b2-D-Glucopyranoside, octyl, 2,3,4,6-tetraacetate", "\u03b2-D-Glucopyranoside, octyl, 2,3,4,6-tetraacetate", "\u03b2-D-Glucopyranoside, octyl, tetraacetate", "Glucopyranoside, octyl, tetraacetate", "\u03b2-D-Tetraacetyloctyl glucoside"], "SMILES": "O(C(C)=O)C1C(OC(C)=O)C(COC(C)=O)OC(OCCCCCCCC)C1OC(C)=O", "physical_data": {"Molecular Weight": "460.52", "Molecular Formula": "C22H36O10", "Melting Point": "64 \u00b0C"}}