{"cas_no": "3895-92-9", "cn_name": "\u767d\u5c48\u83dc\u8d64\u78b1", "en_name": ["Chelerythrine, chloride", "[1,3]Benzodioxolo[5,6-c]phenanthridinium, 1,2-dimethoxy-12-methyl-, chloride (1:1)", "Chelerythrine, chloride", "[1,3]Benzodioxolo[5,6-c]phenanthridinium, 1,2-dimethoxy-12-methyl-, chloride", "Chelerythrinium chloride", "NSC 646662", "Broussonpapyrine chloride", "Chelerythrine chloride"], "SMILES": "C[N+]=1C=2C(C=3C(C1)=C(OC)C(OC)=CC3)=CC=C4C2C=C5C(=C4)OCO5.[Cl-]", "physical_data": {"Molecular Weight": "", "Molecular Formula": "C21H18NO4.Cl", "Melting Point": "205-206 \u00b0C"}}