{"cas_no": "38951-97-2", "cn_name": "\u53cc[4,4'-\u4e8c\u7532\u6c27\u57fa-ALPHA,ALPHA'-\u4e8c\u82ef\u4e59\u70ef\u4e8c\u786b\u9187(2-)]\u954d", "en_name": ["(SP-4-1)-Bis[1,2-bis(4-methoxyphenyl)-1,2-ethenedithiolato(2-)-\u03baS1,\u03baS2]nickel", "Nickel, bis[1,2-bis(4-methoxyphenyl)-1,2-ethenedithiolato(2-)-\u03baS1,\u03baS2]-, (SP-4-1)-", "Nickel, bis[1,2-bis(4-methoxyphenyl)-1,2-ethenedithiolato(2-)-S,S\u2032]-, (SP-4-1)-", "Nickel, bis[4,4\u2032-dimethoxy-\u03b1,\u03b1\u2032-stilbenedithiolato(2-)]-", "Nickel, bis[1,2-bis(4-methoxyphenyl)-1,2-ethenedithiolato(2-)-\u03baS,\u03baS\u2032]-, (SP-4-1)-", "1,2-Ethenedithiol, 1,2-bis(4-methoxyphenyl)-, nickel complex, (Z)-", "(SP-4-1)-Bis[1,2-bis(4-methoxyphenyl)-1,2-ethenedithiolato(2-)-\u03baS1,\u03baS2]nickel", "Bis[1,2-di(p-methoxyphenyl)-1,2-ethylenedithiolato]nickel", "B 4360", "ADS 920MC"], "SMILES": "O(C)C1=CC=C(C=2S[Ni]3(SC(=C(S3)C4=CC=C(OC)C=C4)C5=CC=C(OC)C=C5)SC2C6=CC=C(OC)C=C6)C=C1", "physical_data": {"Molecular Weight": "", "Molecular Formula": "C32H28NiO4S4", "Melting Point": "245 \u00b0C"}}