{"cas_no": "38952-62-4", "cn_name": "4,4'-\u7fb0\u57fa\u4e8c\u5417\u5549", "en_name": ["4,4\u2032-Carbonylbis[morpholine]", "Morpholine, 4,4\u2032-carbonylbis-", "Morpholine, 4,4\u2032-carbonyldi-", "4,4\u2032-Carbonylbis[morpholine]", "4,4\u2032-Carbonyldimorpholine", "Dimorpholinomethanone"], "SMILES": "C(=O)(N1CCOCC1)N2CCOCC2", "physical_data": {"Molecular Weight": "200.23", "Molecular Formula": "C9H16N2O3", "Melting Point": "144-145 \u00b0C"}}