{"cas_no": "38953-85-4", "cn_name": "\u5f02\u7267\u8346\u7d20", "en_name": ["Isovitexin", "4H-1-Benzopyran-4-one, 6-\u03b2-D-glucopyranosyl-5,7-dihydroxy-2-(4-hydroxyphenyl)-", "Homovitexin", "Flavone, 6-\u03b2-D-glucopyranosyl-4\u2032,5,7-trihydroxy-", "6-\u03b2-D-Glucopyranosyl-5,7-dihydroxy-2-(4-hydroxyphenyl)-4H-1-benzopyran-4-one", "Isovitexin", "Isovitexin (C-6 isomer)", "Saponaretin", "6-C-Glucosylapigenin", "6-C-\u03b2-D-Glucopyranosylapigenin", "Apigenin 6-C-\u03b2-D-glucoside", "Apigenin 6-C-\u03b2-glucopyranoside", "Isoavroside", "Apigenin-6-C-glucoside", "Avroside", "Apigenin-6-C-\u03b2-D-glucopyranoside"], "SMILES": "OC=1C(=C(O)C=C2C1C(=O)C=C(O2)C3=CC=C(O)C=C3)C4OC(CO)C(O)C(O)C4O", "physical_data": {"Molecular Weight": "432.38", "Molecular Formula": "C21H20O10", "Melting Point": "257-258 \u00b0C"}}