{"cas_no": "38965-51-4", "cn_name": "\u5723\u8349\u915a-7-O-\u8461\u7cd6\u82f7", "en_name": ["Eriodictyol 7-O-glucoside", "4H-1-Benzopyran-4-one, 2-(3,4-dihydroxyphenyl)-7-(\u03b2-D-glucopyranosyloxy)-2,3-dihydro-5-hydroxy-, (2S)-", "4H-1-Benzopyran-4-one, 2-(3,4-dihydroxyphenyl)-7-(\u03b2-D-glucopyranosyloxy)-2,3-dihydro-5-hydroxy-, (S)-", "Flavanone, 3\u2032,4\u2032,5,7-tetrahydroxy-, 7-\u03b2-D-glucopyranoside", "(2S)-2-(3,4-Dihydroxyphenyl)-7-(\u03b2-D-glucopyranosyloxy)-2,3-dihydro-5-hydroxy-4H-1-benzopyran-4-one", "Miscanthoside", "Eriodictyol 7-glucoside", "Eriodictyol 7-O-glucoside", "3\u2032,4\u2032,5,7-Tetrahydroxyflavanone 7-glucoside", "Eriodictyol 7-O-\u03b2-D-glucoside", "3\u2032,4\u2032,5,7-Tetrahydroxyflavanone 7-\u03b2-D-glucopyranoside", "Eriodictyol 7-O-\u03b2-D-glucopyranoside", "(2S)-Eriodictyol-7-O-\u03b2-D-glucopyranoside", "Eriodictyol 7-\u03b2-D-glucoside", "5,7,3\u2032,4\u2032-Tetrahydroxyflavanone 7-O-glucoside", "(2S)-Eriodictyol 7-O-\u03b2-D-glucopyranoside"], "SMILES": "O=C1C=2C(OC(C1)C3=CC(O)=C(O)C=C3)=CC(OC4OC(CO)C(O)C(O)C4O)=CC2O", "physical_data": {"Molecular Weight": "450.39", "Molecular Formula": "C21H22O11", "Melting Point": "168-170 \u00b0C"}}