{"cas_no": "38963-95-0", "cn_name": "\u767d\u85dc\u82a6\u9187-4'-O-\u8461\u8404\u7cd6\u82f7", "en_name": ["Resveratroloside", "\u03b2-D-Glucopyranoside, 4-[(1E)-2-(3,5-dihydroxyphenyl)ethenyl]phenyl", "\u03b2-D-Glucopyranoside, 4-[2-(3,5-dihydroxyphenyl)ethenyl]phenyl, (E)-", "4-[(1E)-2-(3,5-Dihydroxyphenyl)ethenyl]phenyl \u03b2-D-glucopyranoside", "3,4\u2032,5-Trihydroxystilbene 4\u2032-mono-\u03b2-D-glycopyranoside", "Resveratroloside", "Resveratrol 4\u2032-O-\u03b2-D-glucopyranoside"], "SMILES": "O(C1OC(CO)C(O)C(O)C1O)C2=CC=C(C=CC3=CC(O)=CC(O)=C3)C=C2", "physical_data": {"Molecular Weight": "390.38", "Molecular Formula": "C20H22O8", "Melting Point": "235-238 \u00b0C"}}