{"cas_no": "38966-21-1", "cn_name": "\u827e\u83f2\u5730\u53ef\u5b81", "en_name": ["Aphidicolin", "8,11a-Methano-11aH-cyclohepta[a]naphthalene-4,9-dimethanol, tetradecahydro-3,9-dihydroxy-4,11b-dimethyl-, (3R,4R,4aR,6aS,8R,9R,11aS,11bS)-", "9,15-Cyclo-C,18-dinor-14,15-secoandrostane-4,17-dimethanol, 3,17-dihydroxy-4-methyl-, (3\u03b1,4\u03b1,5\u03b1,17\u03b1)-", "(3R,4R,4aR,6aS,8R,9R,11aS,11bS)-Tetradecahydro-3,9-dihydroxy-4,11b-dimethyl-8,11a-methano-11aH-cyclohepta[a]naphthalene-4,9-dimethanol", "8,11a-Methano-11aH-cyclohepta[a]naphthalene-4,9-dimethanol, tetradecahydro-3,9-dihydroxy-4,11b-dimethyl-, [3R-(3\u03b1,4\u03b1,4a\u03b1,6a\u03b2,8\u03b2,9\u03b2,11a\u03b2,11b\u03b2)]-", "Aphidicolin", "ICI 69653", "NSC 234714", "(+)-Aphidicolin", "MeSH ID: D016590"], "SMILES": "CC12C34C(CC(C3)C(CO)(O)CC4)CCC1C(CO)(C)C(O)CC2", "physical_data": {"Molecular Weight": "338.48", "Molecular Formula": "C20H34O4", "Melting Point": "227-233 \u00b0C"}}