{"cas_no": "3896-11-5", "cn_name": "\u7d2b\u5916\u7ebf\u5438\u6536\u5242 UV\uff0d326", "en_name": ["2-(2-Hydroxy-3-tert-butyl-5-methylphenyl)-5-chlorobenzotriazole", "Phenol, 2-(5-chloro-2H-benzotriazol-2-yl)-6-(1,1-dimethylethyl)-4-methyl-", "p-Cresol, 2-tert-butyl-6-(5-chloro-2H-benzotriazol-2-yl)-", "2-(5-Chloro-2H-benzotriazol-2-yl)-6-(1,1-dimethylethyl)-4-methylphenol", "2-(2\u2032-Hydroxy-3\u2032-tert-butyl-5\u2032-methylphenyl)-5-chlorobenztriazole", "Tinuvin 326", "2-(2-Hydroxy-3-tert-butyl-5-methylphenyl)-5-chlorobenzotriazole", "2-(3-tert-Butyl-2-hydroxy-5-methylphenyl)-5-chloro-2H-benzo-v-triazole", "Benazol PBKh", "2-(3-tert-Butyl-2-hydroxy-5-methylphenyl)-5-chlorobenzotriazole", "5-Chloro-2-(3-tert-butyl-2-hydroxy-5-methylphenyl)benzotriazole", "2-tert-Butyl-6-(5-chloro-2-benzotriazolyl)-4-methylphenol", "Bumetrizole", "Cibatex LF", "Seesorb 703", "Sumisorb 300", "Viosorb 550", "2-(3-tert-Butyl-5-methyl-2-hydroxyphenyl)-5-chlorobenzotriazole", "2-(2-Hydroxy-3-tert-butyl-5-methylphenyl)-5-chloro-2H-benzotriazole", "Kemisorb 73", "Mark LA 36", "LA 36", "ADK Stab LA 36", "UV 326", "2-tert-Butyl-6-(5-chloro-2H-benzotriazol-2-yl)-4-methylphenol", "JF 79", "JC 30S", "VS 550", "J 395 (light stabilizer)", "J 395", "2-(2\u2032-Hydroxy-3\u2032-tert-butyl-5\u2032-methylphenyl)-5-chlorobenzotriazole", "2-[5-Chloro-2H-benzotriazol-2-yl]-4-methyl-6-(tert-butyl)phenol", "A-Light", "Tinogard AS", "Lowilite 26", "2-(3\u2032-tert-Butyl-5\u2032-methyl-2\u2032-hydroxyphenyl)-5-chlorobenzotriazole", "5-Chloro-2-(2-hydroxy-3-tert-butyl-5-methylphenyl)-2H-benzotriazole", "TNV 326", "2-(3\u2032-tert-Butyl-2\u2032-hydroxy-5\u2032-methylphenyl)-5-chlorobenzotriazole", "Eversorb 73", "Tomisorb 600", "Tin 326", "ADK Stab LA 36RG", "Uvinul 3026", "T 326", "CBT", "2-(5-Chloro-2-benzotriazolyl)-6-tert-butyl-p-cresol", "2-(3-tert-Butyl-2-hydroxy-5-methylphenyl)-5-chloro-2H-benzotriazole", "Light Stabilizer 326", "2-(5-Chloro-2H-benzotriazol-2-yl)-6-tert-butyl-4-methylphenol", "Songsorb 3260", "Hostavin 3326", "Riasorb UV 326", "2-(tert-Butyl)-6-(5-chloro-2H-benzo[d][1,2,3]triazol-2-yl)-4-methylphenol", "Chisorb 326", "UV 326H", "2-(2\u2032-Hydroxy-3\u2032-tert-butyl-5\u2032-methylphenyl)-5-chloro-2H-benzotriazole", "Songsorb 3260P", "6-tert-Butyl-2-(5-chloro-2H-benzotriazol-2-yl)-4-methylphenol"], "SMILES": "OC1=C(N2N=C3C(=N2)C=C(Cl)C=C3)C=C(C)C=C1C(C)(C)C", "physical_data": {"Molecular Weight": "315.80", "Molecular Formula": "C17H18ClN3O", "Melting Point": "137-141 \u00b0C"}}