{"cas_no": "3897-89-0", "cn_name": "3,4-\u4e8c\u7f9f\u57fa\u82c4\u9187", "en_name": ["3,4-Dihydroxybenzyl alcohol", "1,2-Benzenediol, 4-(hydroxymethyl)-", "Benzyl alcohol, 3,4-dihydroxy-", "4-(Hydroxymethyl)-1,2-benzenediol", "Protocatechuyl alcohol", "4-Hydroxymethylpyrocatechol", "3,4-Dihydroxybenzyl alcohol", "4,5-Dihydroxybenzyl alcohol", "NSC 355645", "4-Hydroxymethylcatechol"], "SMILES": "C(O)C1=CC(O)=C(O)C=C1", "physical_data": {"Molecular Weight": "140.14", "Molecular Formula": "C7H8O3", "Melting Point": "115-116 \u00b0C"}}