{"cas_no": "38985-70-5", "cn_name": "", "en_name": ["4-(4-Nitrophenyl)thiosemicarbazide", "Hydrazinecarbothioamide, N-(4-nitrophenyl)-", "Semicarbazide, 4-(p-nitrophenyl)-3-thio-", "N-(4-Nitrophenyl)hydrazinecarbothioamide", "4-(4-Nitrophenyl)thiosemicarbazide", "4-(4-Nitrophenyl)-3-thiosemicarbazide", "1-Amino-3-(4-nitrophenyl)thiourea"], "SMILES": "N(C(NN)=S)C1=CC=C(N(=O)=O)C=C1", "physical_data": {"Molecular Weight": "212.23", "Molecular Formula": "C7H8N4O2S", "Melting Point": "190 \u00b0C"}}