{"cas_no": "38985-79-4", "cn_name": "2-\u4e59\u9170\u6c28\u57fa-5-\u6eb4-\u82ef\u7532\u9178", "en_name": ["2-(Acetylamino)-5-bromobenzoic acid", "Benzoic acid, 2-(acetylamino)-5-bromo-", "Anthranilic acid, N-acetyl-5-bromo-", "2-(Acetylamino)-5-bromobenzoic acid", "N-Acetyl-5-bromoanthranilic acid", "2-Acetamido-5-bromobenzoic acid"], "SMILES": "N(C(C)=O)C1=C(C(O)=O)C=C(Br)C=C1", "physical_data": {"Molecular Weight": "258.07", "Molecular Formula": "C9H8BrNO3", "Melting Point": "222-223 \u00b0C"}}