{"cas_no": "3898-08-6", "cn_name": "1,1-\u4e8c\u82ef\u57fa\u786b\u8132", "en_name": ["N,N-Diphenylthiourea", "Thiourea, N,N-diphenyl-", "Urea, 1,1-diphenyl-2-thio-", "N,N-Diphenylthiourea", "1,1-Diphenyl-2-thiourea", "1,1-Diphenylthiourea", "NSC 49187"], "SMILES": "N(C(N)=S)(C1=CC=CC=C1)C2=CC=CC=C2", "physical_data": {"Molecular Weight": "228.31", "Molecular Formula": "C13H12N2S", "Melting Point": "212 \u00b0C"}}