{"cas_no": "389890-42-0", "cn_name": "\u53cd\u5f0f-3-\u6c28\u57fa\u73af\u4e01\u9187", "en_name": ["tert-Butyl trans-(3-hydroxycyclobutyl)carbamate", "Carbamic acid, N-(trans-3-hydroxycyclobutyl)-, 1,1-dimethylethyl ester", "Carbamic acid, (trans-3-hydroxycyclobutyl)-, 1,1-dimethylethyl ester", "tert-Butyl N-(trans-3-hydroxycyclobutyl)carbamate", "trans-N-[3-Hydroxycyclobutyl]carbamic acid tert-butyl ester", "1,1-Dimethylethyl (trans-3-hydroxycyclobutyl)carbamate", "tert-Butyl (trans-3-hydroxycyclobutyl)carbamate", "tert-Butyl trans-(3-hydroxycyclobutyl)carbamate", "trans-tert-Butyl (3-hydroxycyclobutyl)carbamate", "tert-Butyl trans-N-(3-hydroxycyclobutyl)carbamate"], "SMILES": "N(C(OC(C)(C)C)=O)C1CC(O)C1", "physical_data": {"Molecular Weight": "187.24", "Molecular Formula": "C9H17NO3", "Melting Point": "112 \u00b0C"}}