{"cas_no": "38998-17-3", "cn_name": "4-\u7532\u6c27\u57fa-2,3-\u4e8c\u7532\u57fa\u82ef\u7532\u919b", "en_name": ["4-Methoxy-2,3-dimethylbenzaldehyde", "Benzaldehyde, 4-methoxy-2,3-dimethyl-", "p-Anisaldehyde, 2,3-dimethyl-", "4-Methoxy-2,3-dimethylbenzaldehyde", "2,3-Dimethyl-4-methoxybenzaldehyde", "2,3-Dimethyl-p-anisaldehyde"], "SMILES": "C(=O)C1=C(C)C(C)=C(OC)C=C1", "physical_data": {"Molecular Weight": "164.20", "Molecular Formula": "C10H12O2", "Boiling Point": "149-151 \u00b0C @ Press: 12 Torr", "Melting Point": "64 \u00b0C"}}