{"cas_no": "3899-90-9", "cn_name": "\u5bf9\u7532\u82ef\u78fa\u9178-3-\u785d\u57fa\u82ef\u916f", "en_name": ["Benzenesulfonic acid, 4-methyl-, 3-nitrophenyl ester", "Benzenesulfonic acid, 4-methyl-, 3-nitrophenyl ester", "p-Toluenesulfonic acid, m-nitrophenyl ester", "m-Nitrophenyl tosylate", "3-Nitrophenyl tosylate", "NSC 6905", "3-Nitrophenyl 4-methylbenzene-1-sulfonate", "3-Nitrophenyl 4-methylbenzenesulfonate"], "SMILES": "S(OC1=CC(N(=O)=O)=CC=C1)(=O)(=O)C2=CC=C(C)C=C2", "physical_data": {"Molecular Weight": "293.30", "Molecular Formula": "C13H11NO5S", "Melting Point": "112-113 \u00b0C"}}