{"cas_no": "390-64-7", "cn_name": "\u666e\u5c3c\u62c9\u660e", "en_name": ["Prenylamine", "Benzenepropanamine, N-(1-methyl-2-phenylethyl)-\u03b3-phenyl-", "Phenethylamine, N-(3,3-diphenylpropyl)-\u03b1-methyl-", "N-(1-Methyl-2-phenylethyl)-\u03b3-phenylbenzenepropanamine", "B 436", "N-(3,3-Diphenylpropyl)-\u03b1-methylphenethylamine", "N-(3,3-Diphenylpropyl)-\u03b1-methylphenylethylamine", "Prenylamine", "Segontin", "Prenylamine (vasodilator)", "SAN 13-194", "Sandoz 13-194", "DL-Prenylamine", "Elecor", "MeSH ID: D011299"], "SMILES": "C(CCNC(CC1=CC=CC=C1)C)(C2=CC=CC=C2)C3=CC=CC=C3", "physical_data": {"Molecular Weight": "329.48", "Molecular Formula": "C24H27N", "Boiling Point": "197-203 \u00b0C @ Press: 0.5 Torr", "Melting Point": "36.5 \u00b0C"}}