{"cas_no": "3900-93-4", "cn_name": "\u0391-\u82ef\u57fa\u73af\u620a\u57fa\u4e59\u9178", "en_name": ["2-Cyclopentyl-2-phenylacetic acid", "Benzeneacetic acid, \u03b1-cyclopentyl-", "Cyclopentaneacetic acid, \u03b1-phenyl-", "\u03b1-Cyclopentylbenzeneacetic acid", "Acetic acid, cyclopentylphenyl-", "Cyclopentylphenylacetic acid", "\u03b1-Phenylcyclopentaneacetic acid", "2-Cyclopentyl-2-phenylacetic acid", "A-Cyclopentylbenzeneacetic acid", "NSC 68311"], "SMILES": "C(C(O)=O)(C1=CC=CC=C1)C2CCCC2", "physical_data": {"Molecular Weight": "204.26", "Molecular Formula": "C13H16O2", "Melting Point": "103 \u00b0C"}}