{"cas_no": "3900-45-6", "cn_name": "6-\u7532\u6c27\u57fa-2-\u4e59\u9170\u8418", "en_name": ["2-Acetyl-6-methoxynaphthalene", "Ethanone, 1-(6-methoxy-2-naphthalenyl)-", "2\u2032-Acetonaphthone, 6\u2032-methoxy-", "1-(6-Methoxy-2-naphthalenyl)ethanone", "2-Acetyl-6-methoxynaphthalene", "6-Methoxy-2-acetylnaphthalene", "6-Acetyl-2-methoxynaphthalene", "1-(6-Methoxy-2-naphthalenyl)-1-ethanone", "6\u2032-Methoxy-2\u2032-acetonaphthone", "6-Methoxy-2-naphthyl methyl ketone", "1-(6-Methoxy-2-naphthyl)-1-ethanone", "NSC 105564", "1-(2-Methoxynaphthalen-6-yl)ethanone", "1-(6-Methoxy-2-naphthyl)ethanone", "2-Methoxy-6-acetylnaphthalene"], "SMILES": "C(C)(=O)C1=CC2=C(C=C(OC)C=C2)C=C1", "physical_data": {"Molecular Weight": "200.23", "Molecular Formula": "C13H12O2", "Boiling Point": "165-170 \u00b0C @ Press: 3-4 Torr", "Melting Point": "105 \u00b0C"}}