{"cas_no": "3901-77-7", "cn_name": "2,4,6-\u4e09\u4e59\u70ef\u57fa-2,4,6-\u4e09\u7532\u57fa\u73af\u4e09\u7845\u6c27\u70f7", "en_name": ["2,4,6-Trimethyl-2,4,6-trivinylcyclotrisiloxane", "Cyclotrisiloxane, 2,4,6-triethenyl-2,4,6-trimethyl-", "Cyclotrisiloxane, 2,4,6-trimethyl-2,4,6-trivinyl-", "2,4,6-Triethenyl-2,4,6-trimethylcyclotrisiloxane", "2,4,6-Trimethyl-2,4,6-trivinylcyclotrisiloxane", "LS 8170", "NSC 242021", "Trimethyltrivinylcyclotrisiloxane", "2,4,6-Tris(ethenyl)-2,4,6-trimethyl-1,3,5,2,4,6-trioxatrisilinane", "2,4,6-Trimethyl-2,4,6-trivinyl-1,3,5,2,4,6-trioxatrisilinane", "2,4,6-Triethenyl-2,4,6-trimethyl-1,3,5,2,4,6-trioxatrisilinane"], "SMILES": "C(=C)[Si]1(C)O[Si](C=C)(C)O[Si](C=C)(C)O1", "physical_data": {"Molecular Weight": "258.49", "Molecular Formula": "C9H18O3Si3", "Boiling Point": "80 \u00b0C @ Press: 20 Torr", "Density": "0.966 g/cm\u00b3"}}