{"cas_no": "3901-07-3", "cn_name": "(E)-4-\u7532\u6c27\u57fa\u8089\u6842\u9178\u7532\u916f", "en_name": ["Methyl trans-4-methoxycinnamate", "2-Propenoic acid, 3-(4-methoxyphenyl)-, methyl ester, (2E)-", "Cinnamic acid, p-methoxy-, methyl ester, (E)-", "2-Propenoic acid, 3-(4-methoxyphenyl)-, methyl ester, (E)-", "Methyl trans-p-methoxycinnamate", "4-Methoxy-trans-cinnamic acid methyl ester", "Methyl (E)-p-methoxycinnamate", "Methyl (E)-3-(4-methoxyphenyl)propenoate", "Methyl p-methoxy-trans-cinnamate", "Methyl trans-4-methoxycinnamate", "(2E)-3-(4-Methoxyphenyl)-2-propenoic acid methyl ester", "(E)-Methyl 4-methoxycinnamate", "(E)-Methyl 3-(4-methoxyphenyl)acrylate", "(E)-Methyl 3-(4-methoxyphenyl)acrylate", "Methyl (E)-3-(4-methoxyphenyl)acrylate", "Methyl (E)-3-(4\u2032-methoxyphenyl)acrylate"], "SMILES": "C(=CC(OC)=O)C1=CC=C(OC)C=C1", "physical_data": {"Molecular Weight": "192.21", "Molecular Formula": "C11H12O3", "Melting Point": "86.5 \u00b0C"}}