{"cas_no": "39026-92-1", "cn_name": "9-\u7532\u6c27\u57fa\u559c\u6811\u78b1", "en_name": ["9-Methoxycamptothecin", "1H-Pyrano[3\u2032,4\u2032:6,7]indolizino[1,2-b]quinoline-3,14(4H,12H)-dione, 4-ethyl-4-hydroxy-10-methoxy-, (4S)-", "1H-Pyrano[3\u2032,4\u2032:6,7]indolizino[1,2-b]quinoline-3,14(4H,12H)-dione, 4-ethyl-4-hydroxy-10-methoxy-, (S)-", "(4S)-4-Ethyl-4-hydroxy-10-methoxy-1H-pyrano[3\u2032,4\u2032:6,7]indolizino[1,2-b]quinoline-3,14(4H,12H)-dione", "9-Methoxycamptothecin", "9-Methoxycamptothecine", "NSC 176323"], "SMILES": "C(C)C1(O)C2=C(C(=O)N3C(=C2)C=4C(C3)=CC=5C(N4)=CC=CC5OC)COC1=O", "physical_data": {"Molecular Weight": "378.38", "Molecular Formula": "C21H18N2O5", "Melting Point": "223-225 \u00b0C"}}