{"cas_no": "39028-27-8", "cn_name": "\u7898\u4e59\u9178 N-\u7f9f\u57fa\u7425\u73c0\u9170\u4e9a\u80fa\u916f", "en_name": ["Iodoacetic acid N-hydroxysuccinimide ester", "Acetic acid, 2-iodo-, 2,5-dioxo-1-pyrrolidinyl ester", "2,5-Pyrrolidinedione, 1-[(iodoacetyl)oxy]-", "N-Iodoacetoxysuccinimide", "N-Hydroxysuccinimide iodoacetate", "N-Hydroxysuccinimide iodoacetic acid ester", "SIA", "N-Hydroxysuccinimidyl iodoacetate", "SIA (crosslinking agent)", "Iodoacetic acid N-hydroxysuccinimide ester", "(2,5-Dioxopyrrolidin-1-yl) 2-iodoacetate"], "SMILES": "O(C(CI)=O)N1C(=O)CCC1=O", "physical_data": {"Molecular Weight": "283.02", "Molecular Formula": "C6H6INO4", "Melting Point": "144-148 \u00b0C"}}