{"cas_no": "39025-23-5", "cn_name": "\u5b55\u4e8c\u70ef\u4e8c\u916e", "en_name": ["Z-Guggulsterone", "Pregna-4,17(20)-diene-3,16-dione, (17Z)-", "(17Z)-Pregna-4,17(20)-diene-3,16-dione", "(17Z)-Guggulsterone", "Z-Guggulsterone", "4,17(20)-cis-Pregnadiene-3,6-dione", "cis-Guggulsterone"], "SMILES": "CC12C(C3C(C4(C)C(CC3)=CC(=O)CC4)CC1)CC(=O)C2=CC", "physical_data": {"Molecular Weight": "312.45", "Molecular Formula": "C21H28O2", "Melting Point": "174-178 \u00b0C"}}