{"cas_no": "39025-24-6", "cn_name": "\u5b55\u4e8c\u70ef\u4e8c\u916e", "en_name": ["(-)-(E)-Guggulsterone", "Pregna-4,17(20)-diene-3,16-dione, (17E)-", "(17E)-Pregna-4,17(20)-diene-3,16-dione", "(-)-(E)-Guggulsterone", "Guggulsterone E", "E-Guggulsterone", "4,17(20)-(trans)-Pregnadiene-3,16-dione", "trans-Guggulsterone"], "SMILES": "CC12C(C3C(C4(C)C(CC3)=CC(=O)CC4)CC1)CC(=O)C2=CC", "physical_data": {"Molecular Weight": "312.45", "Molecular Formula": "C21H28O2", "Melting Point": "168-171 \u00b0C"}}