{"cas_no": "3902-71-4", "cn_name": "4,5\u2018,8-\u4e09\u7532\u57fa]\u8865\u9aa8\u8102\u7d20", "en_name": ["Trimethylpsoralen", "7H-Furo[3,2-g][1]benzopyran-7-one, 2,5,9-trimethyl-", "5-Benzofuranacrylic acid, 6-hydroxy-\u03b2,2,7-trimethyl-, \u03b4-lactone", "2,5,9-Trimethyl-7H-furo[3,2-g][1]benzopyran-7-one", "4,5\u2032,8-Trimethylpsoralen", "Trioxsalen", "Trisoralen", "4,5\u2032,8-Trimethylpsoralene", "Trimethylpsoralen", "4,2\u2032,8-Trimethylpsoralen", "Trioxysalen", "NSC 71047", "TMP", "2,5,9-Trimethyl-7H-furo[3,2-g]chromen-7-one", "2,5,9-Trimethylfuro[3,2-g]chromen-7-one"], "SMILES": "CC=1C2=C(C=C3C1OC(C)=C3)C(C)=CC(=O)O2", "physical_data": {"Molecular Weight": "228.24", "Molecular Formula": "C14H12O3", "Melting Point": "234.5 \u00b0C"}}