{"cas_no": "3905-64-4", "cn_name": "2,6-\u4e8c\u53d4\u4e01\u57fa\u8418", "en_name": ["2,6-Di-tert-butylnaphthalene", "Naphthalene, 2,6-bis(1,1-dimethylethyl)-", "Naphthalene, 2,6-di-tert-butyl-", "2,6-Bis(1,1-dimethylethyl)naphthalene", "2,6-Di-tert-butylnaphthalene", "NSC 91463", "2,6-Di-t-butylnaphthalene", "2,6-Ditert-butylnaphthalene"], "SMILES": "C(C)(C)(C)C1=CC2=C(C=C(C(C)(C)C)C=C2)C=C1", "physical_data": {"Molecular Weight": "240.38", "Molecular Formula": "C18H24", "Melting Point": "145-146 \u00b0C"}}