{"cas_no": "39067-29-3", "cn_name": "2-(3-\u54cc\u5576)-1-,3-4-\u94a0\u9178\u7532\u916f", "en_name": ["2-(3-Pyridinyl)-4-thiazolecarboxylic acid", "4-Thiazolecarboxylic acid, 2-(3-pyridinyl)-", "4-Thiazolecarboxylic acid, 2-(3-pyridyl)-", "2-(3-Pyridinyl)-4-thiazolecarboxylic acid", "2-(3-Pyridyl)thiazole-4-carboxylic acid", "2-(3-Pyridinyl)-1,3-thiazole-4-carboxylic acid", "2-(3-Pyridyl)-1,3-thiazole-4-carboxylic acid"], "SMILES": "C(O)(=O)C=1N=C(SC1)C=2C=CC=NC2", "physical_data": {"Molecular Weight": "206.22", "Molecular Formula": "C9H6N2O2S", "Melting Point": "265-268 \u00b0C"}}