{"cas_no": "3906-87-4", "cn_name": "2-\u6c1f\u5bf9\u82ef\u4e8c\u7532\u9178", "en_name": ["2-Fluoro-1,4-benzenedicarboxylic acid", "1,4-Benzenedicarboxylic acid, 2-fluoro-", "Terephthalic acid, fluoro-", "2-Fluoro-1,4-benzenedicarboxylic acid", "Fluoroterephthalic acid", "NSC 127031", "2-Fluoroterephthalic acid"], "SMILES": "C(O)(=O)C1=CC(F)=C(C(O)=O)C=C1", "physical_data": {"Molecular Weight": "184.12", "Molecular Formula": "C8H5FO4", "Melting Point": "330 \u00b0C"}}