{"cas_no": "39073-14-8", "cn_name": "2-\u6c2f-6-\u7532\u57fa\u70df\u9178\u4e59\u916f", "en_name": ["3-Pyridinecarboxylic acid, 2-chloro-6-methyl-, ethyl ester", "3-Pyridinecarboxylic acid, 2-chloro-6-methyl-, ethyl ester", "Nicotinic acid, 2-chloro-6-methyl-, ethyl ester", "Ethyl 2-chloro-6-methylpyridine-3-carboxylate", "2-Chloro-6-methylnicotinic acid ethyl ester"], "SMILES": "C(OCC)(=O)C1=C(Cl)N=C(C)C=C1", "physical_data": {"Molecular Weight": "199.63", "Molecular Formula": "C9H10ClNO2", "Boiling Point": "130 \u00b0C @ Press: 8 Torr", "Melting Point": "27-29 \u00b0C"}}