{"cas_no": "3908-55-2", "cn_name": "\u4e09\u7532\u57fa\u7532\u786b\u57fa\u7845\u70f7", "en_name": ["Trimethyl(methylthio)silane", "Silane, trimethyl(methylthio)-", "Trimethyl(methylthio)silane", "(Methylthio)trimethylsilane", "Methyl trimethylsilyl sulfide"], "SMILES": "[Si](SC)(C)(C)C", "physical_data": {"Molecular Weight": "120.29", "Molecular Formula": "C4H12SSi", "Boiling Point": "110-114 \u00b0C", "Density": "0.85 g/cm\u00b3"}}