{"cas_no": "39085-59-1", "cn_name": "2,4,6-\u4e09\u5f02\u4e19\u57fa\u82ef\u78fa\u9170\u57fa\u80bc", "en_name": ["2,4,6-Triisopropylbenzenesulfonyl hydrazide", "Benzenesulfonic acid, 2,4,6-tris(1-methylethyl)-, hydrazide", "2,4,6-Triisopropylbenzenesulfonyl hydrazide", "2,4,6-Triisopropylbenzenesulfonohydrazide", "(2,4,6-Triisopropylbenzenesulfonyl)hydrazine", "Trisylhydrazine", "2,4,6-Triisopropylbenzenesulfonic acid hydrazide", "[(2,4,6-Triisopropylphenyl)sulfonyl] hydrazide", "Trisylhydrazide", "NSC 620119", "2,4,6-Triisopropylphenylsulfonylhydrazine", "2,4,6-Tri(propan-2-yl)benzenesulfonohydrazide"], "SMILES": "S(NN)(=O)(=O)C1=C(C(C)C)C=C(C(C)C)C=C1C(C)C", "physical_data": {"Molecular Weight": "298.44", "Molecular Formula": "C15H26N2O2S", "Melting Point": "117-119 \u00b0C"}}