{"cas_no": "39089-30-0", "cn_name": "\u591a\u6839\u4e4c\u5934\u78b1", "en_name": ["Karakoline", "Aconitane-1,8,14-triol, 20-ethyl-16-methoxy-4-methyl-, (1\u03b1,14\u03b1,16\u03b2)-", "Carmicheline", "11aH-12,3,6a-Ethanylylidene-7,9-methanonaphth[2,3-b]azocine, aconitane-1,8,14-triol deriv.", "(1\u03b1,14\u03b1,16\u03b2)-20-Ethyl-16-methoxy-4-methylaconitane-1,8,14-triol", "Karacoline", "Karakoline", "Carmichaeline"], "SMILES": "OC1C23C4C(CC2C(C)(CN4CC)CC1)C5(O)C6C3CC(C6O)C(OC)C5", "physical_data": {"Molecular Weight": "377.52", "Molecular Formula": "C22H35NO4", "Melting Point": "185-186 \u00b0C"}}