{"cas_no": "39098-97-0", "cn_name": "2-\u567b\u5429\u4e59\u9170\u6c2f", "en_name": ["2-Thiopheneacetyl chloride", "2-Thiopheneacetyl chloride", "2-Thienylacetyl chloride", "Thienylacetyl chloride", "2-(2-Thienyl)acetyl chloride", "Thiophene-2-acetic acid chloride", "Thiophen-2-ylacetyl chloride", "2-(2-Thienyl)ethanoyl chloride", "2-(Thiophen-2-yl)acetyl chloride"], "SMILES": "C(C(Cl)=O)C1=CC=CS1", "physical_data": {"Molecular Weight": "160.62", "Molecular Formula": "C6H5ClOS", "Boiling Point": "105-106 \u00b0C @ Press: 22 Torr"}}