{"cas_no": "39098-75-4", "cn_name": "3-\u73af\u5df1\u57fa\u4e19\u9170\u6c2f", "en_name": ["Cyclohexanepropanoyl chloride", "Cyclohexanepropanoyl chloride", "Cyclohexanepropionyl chloride", "3-Cyclohexylpropionyl chloride", "3-Cyclohexylpropionic acid chloride", "3-Cyclohexylpropanoyl chloride", "3-Cyclohexanepropionyl chloride"], "SMILES": "C(CC(Cl)=O)C1CCCCC1", "physical_data": {"Molecular Weight": "174.67", "Molecular Formula": "C9H15ClO", "Boiling Point": "108 \u00b0C @ Press: 17 Torr"}}