{"cas_no": "391-02-6", "cn_name": "4-\u7f9f\u57fa-7-\u4e09\u6c1f\u7532\u57fa-3-\u7fa7\u9178\u4e59\u916f", "en_name": ["4-Hydroxy-7-trifluoromethylquinoline-3-carboxylic acid ethyl ester", "3-Quinolinecarboxylic acid, 4-hydroxy-7-(trifluoromethyl)-, ethyl ester", "NSC 96992", "Ethyl 4-hydroxy-7-trifluoromethyl-3-quinolinecarboxylate", "4-Hydroxy-7-trifluoromethylquinoline-3-carboxylic acid ethyl ester"], "SMILES": "OC=1C2=C(C=C(C(F)(F)F)C=C2)N=CC1C(OCC)=O", "physical_data": {"Molecular Weight": "285.22", "Molecular Formula": "C13H10F3NO3", "Melting Point": "294-297 \u00b0C"}}