{"cas_no": "39106-10-0", "cn_name": "\u4e59\u9170\u80fa,2-\u6c2f-N-(2,4-\u4e8c\u7532\u57fa\u82ef\u57fa)-", "en_name": ["2-Chloro-N-(2,4-dimethylphenyl)acetamide", "Acetamide, 2-chloro-N-(2,4-dimethylphenyl)-", "2-Chloro-N-(2,4-dimethylphenyl)acetamide", "N-(2,4-Dimethylphenyl)-2-chloroacetamide"], "SMILES": "N(C(CCl)=O)C1=C(C)C=C(C)C=C1", "physical_data": {"Molecular Weight": "197.66", "Molecular Formula": "C10H12ClNO", "Melting Point": "144-146 \u00b0C"}}