{"cas_no": "3910-35-8", "cn_name": "1,3,3-\u4e09\u7532\u57fa-1-\u82ef\u57fa\u831a\u6ee1", "en_name": ["1,1,3-Trimethyl-3-phenylindane", "1H-Indene, 2,3-dihydro-1,1,3-trimethyl-3-phenyl-", "Indan, 1,1,3-trimethyl-3-phenyl-", "2,3-Dihydro-1,1,3-trimethyl-3-phenyl-1H-indene", "1,1,3-Trimethyl-3-phenylindan", "1,3,3-Trimethyl-1-phenylindan", "1,1,3-Trimethyl-3-phenylindane", "1-Phenyl-1,3,3-trimethylindan", "1,2-Dihydro-1,3,3-trimethyl-1-phenylindene", "1-Phenyl-1,3,3-trimethylindane", "1,3,3-Trimethyl-1-phenylindane", "NSC 11311", "NSC 55135", "1,1,3-Trimethyl-3-phenyl-2,3-dihydro-1H-indene", "1,1,3-Trimethyl-3-phenyl-2H-indene"], "SMILES": "CC1(C=2C(C(C)(C)C1)=CC=CC2)C3=CC=CC=C3", "physical_data": {"Molecular Weight": "236.35", "Molecular Formula": "C18H20", "Boiling Point": "308.5 \u00b0C", "Melting Point": "52.5 \u00b0C", "Density": "0.968 g/cm\u00b3 @ Temp: 70 \u00b0C"}}