{"cas_no": "39101-54-7", "cn_name": "3,5-\u4e8c\u7532\u57fa\u82ef\u4e59\u8148", "en_name": ["3,5-Dimethylbenzeneacetonitrile", "Benzeneacetonitrile, 3,5-dimethyl-", "Acetonitrile, (3,5-xylyl)-", "3,5-Dimethylbenzeneacetonitrile", "(3,5-Dimethylphenyl)acetonitrile", "3,5-Dimethylbenzyl cyanide", "2-(3,5-Dimethylphenyl)acetonitrile", "1-Cyanomethyl-3,5-dimethylbenzene"], "SMILES": "C(C#N)C1=CC(C)=CC(C)=C1", "physical_data": {"Molecular Weight": "145.20", "Molecular Formula": "C10H11N", "Boiling Point": "132 \u00b0C", "Melting Point": "45 \u00b0C"}}