{"cas_no": "39115-96-3", "cn_name": "3-\u6eb4\u82c4\u80bc", "en_name": ["3-Bromobenzoic acid hydrazide", "Benzoic acid, 3-bromo-, hydrazide", "Benzoic acid, m-bromo-, hydrazide", "m-Bromobenzoic acid hydrazide", "3-Bromobenzhydrazide", "m-Bromobenzohydrazide", "m-Bromobenzoic hydrazide", "3-Bromobenzoic acid hydrazide", "(m-Bromobenzoyl)hydrazine", "(3-Bromobenzoyl)hydrazine", "3-Bromobenzohydrazide", "3-Bromobenzoic hydrazide", "3-Bromobenzoyl hydrazide", "5-Bromobenzohydrazide", "m-Bromobenzoylhydrazide"], "SMILES": "C(NN)(=O)C1=CC(Br)=CC=C1", "physical_data": {"Molecular Weight": "215.05", "Molecular Formula": "C7H7BrN2O", "Melting Point": "157-159 \u00b0C"}}