{"cas_no": "39115-95-2", "cn_name": "4-\u7898\u82ef\u7532\u9170\u80bc", "en_name": ["Benzoic acid, 4-iodo-, hydrazide", "Benzoic acid, 4-iodo-, hydrazide", "p-Iodobenzoic acid hydrazide", "p-Iodobenzoic hydrazide", "4-Iodobenzoic acid hydrazide", "4-Iodobenzoylhydrazine", "(p-Iodobenzoyl)hydrazine", "4-Iodobenzohydrazide", "NSC 203430", "4-Iodobenzoic hydrazide"], "SMILES": "C(NN)(=O)C1=CC=C(I)C=C1", "physical_data": {"Molecular Weight": "262.05", "Molecular Formula": "C7H7IN2O", "Melting Point": "168-169 \u00b0C"}}