{"cas_no": "3913-67-5", "cn_name": "N-\u7532\u57fa-L-\u4e19\u6c28\u9178", "en_name": ["N-Methyl-L-alanine", "L-Alanine, N-methyl-", "Alanine, N-methyl-, L-", "N-Methyl-L-alanine", "N-Methylalanine", "\u03b1-(Methylamino)propionic acid", "(S)-N-Methylalanine", "2-(Methylamino)propanoic acid", "(S)-2-(Methylamino)propanoic acid", "(2S)-2-(Methylamino)propanoic acid", "(2S)-2-(Methylamino)propanoic acid"], "SMILES": "C(C(O)=O)(NC)C", "physical_data": {"Molecular Weight": "103.12", "Molecular Formula": "C4H9NO2", "Melting Point": "315-317 \u00b0C (decomp)"}}