{"cas_no": "39133-31-8", "cn_name": "\u66f2\u7f8e\u5e03\u6c40", "en_name": ["(\u00b1)-Trimebutine", "Benzoic acid, 3,4,5-trimethoxy-, 2-(dimethylamino)-2-phenylbutyl ester", "Trimebutine", "(\u00b1)-Trimebutine", "Triton", "Triton (pharmaceutical)", "[2-(Dimethylamino)-2-phenylbutyl] 3,4,5-trimethoxybenzoate", "2-(Dimethylamino)-2-phenylbutyl (-)-3,4,5-trimethoxybenzoate"], "SMILES": "C(COC(=O)C1=CC(OC)=C(OC)C(OC)=C1)(N(C)C)(CC)C2=CC=CC=C2", "physical_data": {"Molecular Weight": "387.47", "Molecular Formula": "C22H29NO5", "Melting Point": "79 \u00b0C"}}