{"cas_no": "3913-23-3", "cn_name": "2-\u6eb4\u7532\u57fa-4-\u785d\u57fa\u82ef\u7532\u919a", "en_name": ["2-(Bromomethyl)-1-methoxy-4-nitrobenzene", "Benzene, 2-(bromomethyl)-1-methoxy-4-nitro-", "Anisole, 2-(bromomethyl)-4-nitro-", "2-(Bromomethyl)-1-methoxy-4-nitrobenzene", "2-Methoxy-5-nitrobenzyl bromide", "2-(Bromomethyl)-4-nitroanisole", "Koshland reagent No. 2", "Koshland reagent 2", "Koshland reagent number 2"], "SMILES": "C(Br)C1=C(OC)C=CC(N(=O)=O)=C1", "physical_data": {"Molecular Weight": "246.06", "Molecular Formula": "C8H8BrNO3", "Melting Point": "76-78 \u00b0C"}}