{"cas_no": "3913-81-3", "cn_name": "\u53cd\u5f0f-2-\u7678\u70ef\u919b", "en_name": ["(E)-2-Decenal", "2-Decenal, (2E)-", "2-Decenal, (E)-", "(2E)-2-Decenal", "trans-2-Decenal", "2(E)-Decenal", "trans-2-Decen-1-al", "(E)-2-Decenal"], "SMILES": "C(CCCCC)CC=CC=O", "physical_data": {"Molecular Weight": "154.25", "Molecular Formula": "C10H18O", "Boiling Point": "117-119 \u00b0C @ Press: 22 Torr"}}