{"cas_no": "3913-71-1", "cn_name": "\u53cd\u5f0f-2-\u7678\u919b", "en_name": ["2-Decenal", "2-Decenal", "NSC 20747"], "SMILES": "C(CCCCC)CC=CC=O", "physical_data": {"Molecular Weight": "154.25", "Molecular Formula": "C10H18O", "Boiling Point": "230 \u00b0C", "Density": "0.846 g/cm\u00b3 @ Temp: 19 \u00b0C"}}