{"cas_no": "39136-63-5", "cn_name": "5-\u82ef\u57fa-2-\u4e09\u5511\u80fa", "en_name": ["5-Phenyl-2-thiazolamine", "2-Thiazolamine, 5-phenyl-", "Thiazole, 2-amino-5-phenyl-", "5-Phenyl-2-thiazolamine", "2-Amino-5-phenylthiazole", "5-Phenyl-2-aminothiazole", "5-Phenylthiazol-2-amine", "2-Amino-5-phenyl-1,3-thiazole"], "SMILES": "NC=1SC(=CN1)C2=CC=CC=C2", "physical_data": {"Molecular Weight": "176.24", "Molecular Formula": "C9H8N2S", "Melting Point": "191-191.5 \u00b0C"}}