{"cas_no": "3913-02-8", "cn_name": "2-\u4e01\u57fa\u8f9b\u9187", "en_name": ["2-Butyl-1-octanol", "1-Octanol, 2-butyl-", "2-Butyl-1-octanol", "2-Butyloctyl alcohol", "2-Butyloctanol", "5-(Hydroxymethyl)undecane", "Isofol 12", "Jarcol I 12", "NSC 2414", "Guerbet C12", "Guerbet dodecanol", "Butyloctanol", "Butyloctyl alcohol"], "SMILES": "C(CCCCCC)(CCCC)CO", "physical_data": {"Molecular Weight": "186.33", "Molecular Formula": "C12H26O", "Boiling Point": "132 \u00b0C", "Density": "0.8371 g/cm\u00b3 @ Temp: 16.5 \u00b0C"}}