{"cas_no": "3914-19-0", "cn_name": "1,3-\u53cc(1,1,2,2-\u56db\u6c1f\u4e59\u6c27\u57fa)\u82ef", "en_name": ["1,3-Bis(1,1,2,2-tetrafluoroethoxy)benzene", "Benzene, 1,3-bis(1,1,2,2-tetrafluoroethoxy)-", "Benzene, m-bis(1,1,2,2-tetrafluoroethoxy)-", "1,3-Bis(1,1,2,2-tetrafluoroethoxy)benzene"], "SMILES": "O(C(C(F)F)(F)F)C1=CC(OC(C(F)F)(F)F)=CC=C1", "physical_data": {"Molecular Weight": "310.14", "Molecular Formula": "C10H6F8O2", "Boiling Point": "78 \u00b0C @ Press: 10 Torr"}}