{"cas_no": "39149-80-9", "cn_name": "2-\u6eb4\u4e19\u9178\u53d4\u4e01\u916f", "en_name": ["1,1-Dimethylethyl 2-bromopropanoate", "Propanoic acid, 2-bromo-, 1,1-dimethylethyl ester", "Propionic acid, 2-bromo-, tert-butyl ester", "1,1-Dimethylethyl 2-bromopropanoate", "tert-Butyl 2-bromopropionate", "tert-Butyl \u03b1-bromopropionate", "tert-Butyl 2-bromopropanoate", "1,1-Dimethylethyl 2-bromopropionate", "2-Bromopropionic acid tert-butyl ester"], "SMILES": "C(OC(C)(C)C)(C(Br)C)=O", "physical_data": {"Molecular Weight": "209.08", "Molecular Formula": "C7H13BrO2", "Boiling Point": "51-52 \u00b0C @ Press: 10 Torr"}}