{"cas_no": "39148-24-8", "cn_name": "\u4e59\u81a6\u94dd", "en_name": ["Fosetyl aluminum", "Phosphonic acid, monoethyl ester, aluminum salt (3:1)", "Phosphonic acid, monoethyl ester, aluminum salt", "LS 74-783", "Aliette", "Aluminum tris(ethyl phosphite)", "Phosethyl Al", "Efosite Al", "EXP 1659", "Fosetyl Al", "Aluminum tris(O-ethylphosphonate)", "Efal", "Fosetyl aluminum", "Yilinlu", "Efal 50", "Ephal", "Fosethyl Al", "Chipco Aliette Signature", "Chipco Signature", "Aliette 80WG", "Alliete", "Sinophos", "Aliette Flash", "Aliette WP", "Aliette WDG", "Signature 80 WDG"], "SMILES": "O(P(=O)O)CC.[Al]", "physical_data": {"Molecular Weight": "", "Molecular Formula": "C2H7O3P.<sup>1</sup>/3Al", "Melting Point": "&gt;300 \u00b0C"}}