{"cas_no": "39150-45-3", "cn_name": "3,5-\u4e8c\u6eb4\u5bf9\u6c28\u57fa\u82ef\u78fa\u9170\u80fa", "en_name": ["4-Amino-3,5-dibromobenzenesulfonamide", "Benzenesulfonamide, 4-amino-3,5-dibromo-", "Sulfanilamide, 3,5-dibromo-", "4-Amino-3,5-dibromobenzenesulfonamide", "1-Amino-2,6-dibromobenzene-4-sulphonic acid amide"], "SMILES": "S(N)(=O)(=O)C1=CC(Br)=C(N)C(Br)=C1", "physical_data": {"Molecular Weight": "330.00", "Molecular Formula": "C6H6Br2N2O2S", "Melting Point": "237 \u00b0C"}}