{"cas_no": "39151-19-4", "cn_name": "3,5-\u4e8c\u7532\u6c27\u57fa\u82ef\u4e59\u916e", "en_name": ["3\u2032,5\u2032-Dimethoxyacetophenone", "Ethanone, 1-(3,5-dimethoxyphenyl)-", "Acetophenone, 3\u2032,5\u2032-dimethoxy-", "1-(3,5-Dimethoxyphenyl)ethanone", "3,5-Dimethoxyacetophenone", "3\u2032,5\u2032-Dimethoxyacetophenone", "NSC 46884", "3,5-Dimethoxy-1-acetylbenzene", "3,5-Dimethoxyphenyl methyl ketone", "1-(3,5-Dimethoxyphenyl)ethan-1-one"], "SMILES": "C(C)(=O)C1=CC(OC)=CC(OC)=C1", "physical_data": {"Molecular Weight": "180.20", "Molecular Formula": "C10H12O3", "Boiling Point": "151-152 \u00b0C @ Press: 10 Torr", "Melting Point": "42-43 \u00b0C"}}