{"cas_no": "39161-84-7", "cn_name": "4-\u5def\u57fa\u82ef\u57fa\u4e59\u9178", "en_name": ["4-Mercaptophenylacetic acid", "Benzeneacetic acid, 4-mercapto-", "4-Mercaptobenzeneacetic acid", "p-Mercaptophenylacetic acid", "4-Mercaptophenylacetic acid", "2-(4-Mercaptophenyl)acetic acid", "(4-Carboxymethyl)thiophenol", "(4-Sulfanylphenyl)acetic acid", "2-(4-Sulfanylphenyl)acetic acid"], "SMILES": "C(C(O)=O)C1=CC=C(S)C=C1", "physical_data": {"Molecular Weight": "168.21", "Molecular Formula": "C8H8O2S", "Melting Point": "97.5-100.0 \u00b0C"}}