{"cas_no": "3916-44-7", "cn_name": "4-\u7f9f\u57fa-4'-\u785d\u57fa\u8054\u82ef", "en_name": ["4\u2032-Nitro[1,1\u2032-biphenyl]-4-ol", "[1,1\u2032-Biphenyl]-4-ol, 4\u2032-nitro-", "4-Biphenylol, 4\u2032-nitro-", "Phenol, p-(p-nitrophenyl)-", "4\u2032-Nitro[1,1\u2032-biphenyl]-4-ol", "4-Hydroxy-4\u2032-nitrobiphenyl", "4\u2032-Hydroxy-4-nitrobiphenyl", "4\u2032-Nitro-4-biphenylol", "NSC 95704", "4\u2032-Nitro-1,1\u2032-biphenyl-4-ol", "4-(4-Nitrophenyl)phenol", "4-Nitro-4\u2032-hydroxybiphenyl"], "SMILES": "N(=O)(=O)C1=CC=C(C=C1)C2=CC=C(O)C=C2", "physical_data": {"Molecular Weight": "215.20", "Molecular Formula": "C12H9NO3", "Melting Point": "200-201 \u00b0C"}}