{"cas_no": "3916-64-1", "cn_name": "2,4-\u5e9a\u4e8c\u70ef-6-\u916e(\u542b\u7a33\u5b9a\u5242\u6c22\u918c)", "en_name": ["3,5-Heptadien-2-one", "3,5-Heptadien-2-one", "Crotylideneacetone", "Crotonylideneacetone", "2,4-Heptadien-6-one", "3,5-Heptadienone"], "SMILES": "C(=CC=CC)C(C)=O", "physical_data": {"Molecular Weight": "110.15", "Molecular Formula": "C7H10O", "Boiling Point": "74-75 \u00b0C", "Density": "0.8995 g/cm\u00b3 @ Temp: 15 \u00b0C"}}