{"cas_no": "3917-15-5", "cn_name": "\u70ef\u4e19\u57fa\u4e59\u70ef\u57fa\u919a", "en_name": ["Allyl vinyl ether", "1-Propene, 3-(ethenyloxy)-", "Ether, allyl vinyl", "3-(Ethenyloxy)-1-propene", "Allyl vinyl ether", "Vinyl allyl ether", "Allyl ethenyl ether", "NSC 6270", "1-(Vinyloxy)-2-propene", "3-Ethenoxyprop-1-ene"], "SMILES": "C(OC=C)C=C", "physical_data": {"Molecular Weight": "84.12", "Molecular Formula": "C5H8O", "Boiling Point": "66 \u00b0C", "Density": "0.805 g/cm\u00b3 @ Temp: 20 \u00b0C"}}