{"cas_no": "39178-35-3", "cn_name": "\u6c2f\u5316\u5f02\u6c30\u76d0\u9178\u76d0", "en_name": ["Isonicotinoyl chloride hydrochloride", "4-Pyridinecarbonyl chloride, hydrochloride (1:1)", "4-Pyridinecarbonyl chloride, hydrochloride", "Isonicotinoyl chloride, hydrochloride", "Isonicotinyl chloride hydrochloride", "Isonicotinic acid chloride hydrochloride", "4-Pyridinecarboxylic acid chloride hydrochloride", "4-Nicotinoyl chloride hydrochloride", "4-(Chloroformyl)pyridinium hydrochloride", "(Chlorocarbonyl)-4-(pyridinyl) monohydrochloride", "Isonicotinoyl chloride hydrochloride"], "SMILES": "C(Cl)(=O)C=1C=CN=CC1.Cl", "physical_data": {"Molecular Weight": "", "Molecular Formula": "C6H4ClNO.ClH", "Melting Point": "148-152 \u00b0C"}}