{"cas_no": "3918-94-3", "cn_name": "H-VAL-VAL-OH", "en_name": ["L-Valyl-L-valine", "L-Valine, L-valyl-", "Valine, N-L-valyl-, L-", "L-Valine, N-L-valyl-", "Valine, N-L-valyl-", "L-Valyl-L-valine", "Valylvaline", "Di-valine", "108: PN: EP2161028 PAGE: 10 claimed protein", "130: PN: WO2014102104 SEQID: 229 claimed protein", "130: PN: WO2014102101 SEQID: 430 claimed protein", "170: PN: WO2014102103 TABLE: 1 claimed protein", "149: PN: WO2014102100 TABLE: 1 claimed protein", "6: PN: WO2023056433 PAGE: 60 claimed sequence"], "SMILES": "C(NC(C(C(C)C)N)=O)(C(C)C)C(O)=O", "physical_data": {"Molecular Weight": "216.28", "Molecular Formula": "C10H20N2O3", "Melting Point": "253-254 \u00b0C", "Density": "1.216 g/cm\u00b3 @ Temp: 26 \u00b0C"}}