{"cas_no": "3918-87-4", "cn_name": "\u82ef\u5e76\u6c28\u9170\u4e19\u6c28\u9178", "en_name": ["L-Phenylalanyl-L-alanine", "L-Alanine, L-phenylalanyl-", "Alanine, N-(3-phenyl-L-alanyl)-, L-", "L-Alanine, N-L-phenylalanyl-", "Alanine, N-(3-phenyl-L-alanyl)-", "L-Phenylalanyl-L-alanine", "Phenylalanylalanine", "20: PN: WO2011146121 PAGE: 114 claimed sequence", "339: PN: WO2021146320 SEQID: 339 claimed protein"], "SMILES": "C(C(C(NC(C(O)=O)C)=O)N)C1=CC=CC=C1", "physical_data": {"Molecular Weight": "236.27", "Molecular Formula": "C12H16N2O3", "Melting Point": "241 \u00b0C (decomp)"}}