{"cas_no": "39183-20-5", "cn_name": "2-\u7532\u57fa-5-\u785d\u57fa-6-\u6c2f\u82ef\u915a", "en_name": ["2-Chloro-6-methyl-3-nitrophenol", "Phenol, 2-chloro-6-methyl-3-nitro-", "2-Chloro-6-methyl-3-nitrophenol", "2-Methyl-5-nitro-6-chlorophenol"], "SMILES": "N(=O)(=O)C1=C(Cl)C(O)=C(C)C=C1", "physical_data": {"Molecular Weight": "187.58", "Molecular Formula": "C7H6ClNO3", "Melting Point": "74 \u00b0C"}}