{"cas_no": "3918-84-1", "cn_name": "H-GLU-ASP-OH", "en_name": ["L-\u03b1-Glutamyl-L-aspartic acid", "L-Aspartic acid, L-\u03b1-glutamyl-", "Aspartic acid, N-L-\u03b1-glutamyl-, L-", "L-Aspartic acid, N-L-\u03b1-glutamyl-", "Aspartic acid, N-L-\u03b1-glutamyl-", "L-\u03b1-Glutamyl-L-aspartic acid", "L-Glutamyl-L-aspartic acid", "\u03b1-L-Glutamyl-L-aspartic acid", "NSC 186905", "76: PN: WO2005016244 PAGE: 71 claimed protein", "456: PN: WO2005081628 SEQID: 1565 claimed protein", "4: PN: WO2008083678 PAGE: 33 claimed protein", "170: PN: EP2161028 PAGE: 10 claimed protein", "59: PN: WO2011146121 PAGE: 114 claimed sequence", "10: PN: WO2013130683 TABLE: 7 claimed sequence", "\u03b1-Glu-Asp", "102: PN: WO2022240360 SEQID: 110 claimed protein", "52: PN: WO2023003984 SEQID: 62 claimed sequence", "15: PN: WO2023056433 PAGE: 60 claimed sequence"], "SMILES": "C(NC(C(CCC(O)=O)N)=O)(CC(O)=O)C(O)=O", "physical_data": {"Molecular Weight": "262.22", "Molecular Formula": "C9H14N2O7", "Melting Point": "150-153 \u00b0C (decomp)"}}