{"cas_no": "39186-58-8", "cn_name": "\u6eb4\u4e59\u57fa\u4e8c\u82ef\u4e59\u8148", "en_name": ["4-Bromo-2,2-diphenylbutyronitrile", "Benzeneacetonitrile, \u03b1-(2-bromoethyl)-\u03b1-phenyl-", "Butyronitrile, 4-bromo-2,2-diphenyl-", "\u03b1-(2-Bromoethyl)-\u03b1-phenylbenzeneacetonitrile", "3-Cyano-3,3-diphenylpropyl bromide", "4-Bromo-2,2-diphenylbutyronitrile", "2,2-Diphenyl-4-bromobutyronitrile", "NSC 80688", "1-Bromo-3,3-diphenyl-3-cyanopropane", "4-Bromo-2,2-diphenylbutanenitrile"], "SMILES": "C(CCBr)(C#N)(C1=CC=CC=C1)C2=CC=CC=C2", "physical_data": {"Molecular Weight": "300.19", "Molecular Formula": "C16H14BrN", "Melting Point": "66-67 \u00b0C"}}