{"cas_no": "39191-07-6", "cn_name": "3-\u6c2f-N-\u7532\u57fa\u82c4\u80fa", "en_name": ["3-Chloro-N-methylbenzenemethanamine", "Benzenemethanamine, 3-chloro-N-methyl-", "Benzylamine, m-chloro-N-methyl-", "3-Chloro-N-methylbenzenemethanamine", "3-Chloro-N-methylbenzylamine", "(3-Chlorobenzyl)methylamine", "N-Methyl-3-chlorobenzylamine", "N-(3-Chlorobenzyl)-N-methylamine", "3-Chlorobenzyl-N-methylamine", "1-(3-Chlorophenyl)-N-methylmethanamine", "[(3-Chlorophenyl)methyl](methyl)amine"], "SMILES": "C(NC)C1=CC(Cl)=CC=C1", "physical_data": {"Molecular Weight": "155.62", "Molecular Formula": "C8H10ClN", "Boiling Point": "97 \u00b0C @ Press: 6.6 Torr"}}