{"cas_no": "39190-67-5", "cn_name": "N-\u4ef2\u4e01\u57fa\u6b63\u4e19\u80fa", "en_name": ["N-Propyl-2-butanamine", "2-Butanamine, N-propyl-", "N-Propyl-2-butanamine", "sec-Butylpropylamine", "sec-Butyl-n-propylamine", "N-Propyl-sec-butylamine", "N-sec-Butyl-N-propylamine", "Propyl(sec-butyl)amine", "N-(1-Methylpropyl)-N-propylamine", "N-Propylbutan-2-amine", "N-Propyl-N-sec-butylamine", "(Butan-2-yl)(propyl)amine"], "SMILES": "C(NCCC)(CC)C", "physical_data": {"Molecular Weight": "115.22", "Molecular Formula": "C7H17N", "Boiling Point": "121.5-122 \u00b0C @ Press: 770 Torr", "Density": "0.7651 g/cm\u00b3 @ Temp: 0 \u00b0C"}}