{"cas_no": "3919-74-2", "cn_name": "3-(2-\u6c2f-6-\u6c1f\u82ef\u57fa)-5-\u7532\u57fa\u5f02\u6076\u5511-4-\u7fa7\u9178", "en_name": ["3-(2-Chloro-6-fluorophenyl)-5-methylisoxazole-4-carboxylic acid", "4-Isoxazolecarboxylic acid, 3-(2-chloro-6-fluorophenyl)-5-methyl-", "3-(2-Chloro-6-fluorophenyl)-5-methyl-4-isoxazolecarboxylic acid", "3-(2-Chloro-6-fluorophenyl)-5-methylisoxazole-4-carboxylic acid"], "SMILES": "ClC1=C(C(F)=CC=C1)C=2C(C(O)=O)=C(C)ON2", "physical_data": {"Molecular Weight": "255.63", "Molecular Formula": "C11H7ClFNO3", "Melting Point": "206-207 \u00b0C"}}