{"cas_no": "3919-76-4", "cn_name": "3-(2,6-\u4e8c\u6c2f\u82ef\u57fa)-5-\u7532\u57fa\u5f02\u6076\u5511-4-\u7fa7\u9178", "en_name": ["3-(2,6-Dichlorophenyl)-5-methylisoxazole-4-carboxylic acid", "4-Isoxazolecarboxylic acid, 3-(2,6-dichlorophenyl)-5-methyl-", "3-(2,6-Dichlorophenyl)-5-methyl-4-isoxazolecarboxylic acid", "3-(2,6-Dichlorophenyl)-5-methyl-4-isoxazolylcarboxylic acid", "5-Methyl-3-(2,6-dichlorophenyl)isoxazole-4-carboxylic acid", "3-(2,6-Dichlorophenyl)-5-methylisoxazole-4-carboxylic acid"], "SMILES": "ClC1=C(C(Cl)=CC=C1)C=2C(C(O)=O)=C(C)ON2", "physical_data": {"Molecular Weight": "272.08", "Molecular Formula": "C11H7Cl2NO3", "Melting Point": "220-221 \u00b0C"}}