{"cas_no": "392-85-8", "cn_name": "2-\u6c1f\u4e09\u6c1f\u7532\u82ef", "en_name": ["2-Fluorobenzotrifluoride", "Benzene, 1-fluoro-2-(trifluoromethyl)-", "Toluene, o,\u03b1,\u03b1,\u03b1-tetrafluoro-", "1-Fluoro-2-(trifluoromethyl)benzene", "o-Fluorobenzotrifluoride", "2-Fluorobenzotrifluoride", "o,\u03b1,\u03b1,\u03b1-Tetrafluorotoluene", "2-Trifluoromethylfluorobenzene", "o-Fluoro(trifluoromethyl)benzene", "NSC 10314", "2-Fluoro-1-trifluoromethylbenzene"], "SMILES": "C(F)(F)(F)C1=C(F)C=CC=C1", "physical_data": {"Molecular Weight": "164.10", "Molecular Formula": "C7H4F4", "Boiling Point": "114.5 \u00b0C"}}