{"cas_no": "392-04-1", "cn_name": "4-\u6c1f\u6c34\u6768\u9178\u7532\u916f", "en_name": ["Benzoic acid, 4-fluoro-2-hydroxy-, methyl ester", "Benzoic acid, 4-fluoro-2-hydroxy-, methyl ester", "Salicylic acid, 4-fluoro-, methyl ester", "Methyl 4-fluoro-2-hydroxybenzoate", "4-Fluoro-2-hydroxybenzoic acid methyl ester"], "SMILES": "C(OC)(=O)C1=C(O)C=C(F)C=C1", "physical_data": {"Molecular Weight": "170.14", "Molecular Formula": "C8H7FO3", "Melting Point": "42 \u00b0C"}}