{"cas_no": "392-41-6", "cn_name": "\u7532\u57fa\u4e09\u6c1f\u4e19\u70ef\u9178", "en_name": ["Methyl trifluoroacrylate", "2-Propenoic acid, 2,3,3-trifluoro-, methyl ester", "Acrylic acid, trifluoro-, methyl ester", "Methyl trifluoroacrylate", "Methyl perfluoroacrylate", "Methyl \u03b1,\u03b2,\u03b2-trifluoroacrylate", "Perfluoroacrylic acid methyl ester", "Methyl trifluoropropenoate", "Methyl 2,3,3-trifluoroacrylate"], "SMILES": "C(C(OC)=O)(=C(F)F)F", "physical_data": {"Molecular Weight": "140.06", "Molecular Formula": "C4H3F3O2", "Boiling Point": "84-85 \u00b0C", "Density": "1.3259 g/cm\u00b3 @ Temp: 21.5 \u00b0C"}}