{"cas_no": "392-83-6", "cn_name": "\u90bb\u6eb4\u4e09\u6c1f\u7532\u82ef", "en_name": ["1-Bromo-2-(trifluoromethyl)benzene", "Benzene, 1-bromo-2-(trifluoromethyl)-", "Toluene, o-bromo-\u03b1,\u03b1,\u03b1-trifluoro-", "1-Bromo-2-(trifluoromethyl)benzene", "o-(Trifluoromethyl)bromobenzene", "2-Bromobenzotrifluoride", "o-Bromobenzotrifluoride", "o-Bromo-\u03b1,\u03b1,\u03b1-trifluorotoluene", "2-(Trifluoromethyl)bromobenzene", "2-Bromo-\u03b1,\u03b1,\u03b1-trifluorotoluene", "o-(Trifluoromethyl)phenyl bromide", "2-Bromo(trifluoromethyl)benzene", "o-Bromo(trifluoromethyl)benzene", "2-(Trifluoromethyl)phenyl bromide", "1-Bromo-2-(1,1,1-trifluoromethyl)benzene", "2-(Trifluoromethyl)-1-bromobenzene", "2-Bromo-1-trifluoromethylbenzene"], "SMILES": "C(F)(F)(F)C1=C(Br)C=CC=C1", "physical_data": {"Molecular Weight": "225.01", "Molecular Formula": "C7H4BrF3", "Boiling Point": "167.5 \u00b0C", "Melting Point": "149.3-149.6 \u00b0C", "Density": "1.664 g/cm\u00b3 @ Temp: 25 \u00b0C"}}