{"cas_no": "392-95-0", "cn_name": "2-\u6c2f-3,5-\u4e8c\u785d\u57fa\u4e09\u6c1f\u7532\u82ef", "en_name": ["2-Chloro-3,5-dinitrobenzotrifluoride", "Benzene, 2-chloro-1,5-dinitro-3-(trifluoromethyl)-", "Toluene, 2-chloro-\u03b1,\u03b1,\u03b1-trifluoro-3,5-dinitro-", "2-Chloro-1,5-dinitro-3-(trifluoromethyl)benzene", "2-Chloro-3,5-dinitrobenzotrifluoride", "2-Chloro-3,5-dinitro-\u03b1,\u03b1,\u03b1-trifluorotoluene", "2-Chloro-\u03b1,\u03b1,\u03b1-trifluoro-3,5-dinitrotoluene", "1-Chloro-2,4-dinitro-6-(trifluoromethyl)benzene"], "SMILES": "C(F)(F)(F)C1=C(Cl)C(N(=O)=O)=CC(N(=O)=O)=C1", "physical_data": {"Molecular Weight": "270.55", "Molecular Formula": "C7H2ClF3N2O4", "Melting Point": "57-59 \u00b0C"}}