{"cas_no": "392-70-1", "cn_name": "4-\u6c1f-2,6-\u4e8c\u7532\u57fa\u82ef\u80fa", "en_name": ["4-Fluoro-2,6-dimethylbenzenamine", "Benzenamine, 4-fluoro-2,6-dimethyl-", "2,6-Xylidine, 4-fluoro-", "4-Fluoro-2,6-dimethylbenzenamine", "4-Fluoro-2,6-dimethylaniline", "2,6-Dimethyl-4-fluoroaniline"], "SMILES": "NC1=C(C)C=C(F)C=C1C", "physical_data": {"Molecular Weight": "139.17", "Molecular Formula": "C8H10FN", "Boiling Point": "117-118 \u00b0C @ Press: 14 Torr"}}