{"cas_no": "392-25-6", "cn_name": "2,6-\u4e8c\u6c1f-4-\u785d\u57fa\u82ef\u7532\u919a", "en_name": ["1,3-Difluoro-2-methoxy-5-nitrobenzene", "Benzene, 1,3-difluoro-2-methoxy-5-nitro-", "Anisole, 2,6-difluoro-4-nitro-", "1,3-Difluoro-2-methoxy-5-nitrobenzene", "2,6-Difluoro-4-nitroanisole", "3,5-Difluoro-4-methoxynitrobenzene"], "SMILES": "O(C)C1=C(F)C=C(N(=O)=O)C=C1F", "physical_data": {"Molecular Weight": "189.12", "Molecular Formula": "C7H5F2NO3", "Boiling Point": "71 \u00b0C @ Press: 0.6 Torr", "Melting Point": "35 \u00b0C"}}