{"cas_no": "392-57-4", "cn_name": "1,4-\u4e8c\u7898\u56db\u6c1f\u82ef", "en_name": ["1,4-Diiodotetrafluorobenzene", "Benzene, 1,2,4,5-tetrafluoro-3,6-diiodo-", "Benzene, tetrafluoro-1,4-diiodo-", "1,2,4,5-Tetrafluoro-3,6-diiodobenzene", "Tetrafluoro-1,4-diiodobenzene", "1,4-Diiodotetrafluorobenzene", "p-Diiodoperfluorobenzene", "3,6-Diiodo-1,2,4,5-tetrafluorobenzene", "1,4-Diiodo-2,3,5,6-tetrafluorobenzene"], "SMILES": "FC1=C(F)C(I)=C(F)C(F)=C1I", "physical_data": {"Molecular Weight": "401.87", "Molecular Formula": "C6F4I2", "Melting Point": "109-111 \u00b0C"}}