{"cas_no": "392-12-1", "cn_name": "3-(3-\u5432\u54da\u57fa)-2-\u6c27\u4ee3\u4e19\u9178", "en_name": ["Indole-3-pyruvic acid", "1H-Indole-3-propanoic acid, \u03b1-oxo-", "Indole-3-pyruvic acid", "Indolepyruvic acid", "\u03b1-Oxo-1H-indole-3-propanoic acid", "3-Indolylpyruvic acid", "Indolyl-3-pyruvate", "\u03b2-Indolylpyruvic acid", "\u03b2-Indolepyruvic acid", "3-Indolylpyroracemic acid", "1H-Indole-3-pyruvic acid", "Indole-3-pyruvate", "3-(3-Indolyl)pyruvic acid", "3-(3-Indolyl)-2-oxopropanoic acid", "NSC 88874", "POL 240", "3-(1H-Indol-3-yl)-2-oxopropanoic acid"], "SMILES": "C(C(C(O)=O)=O)C=1C=2C(NC1)=CC=CC2", "physical_data": {"Molecular Weight": "203.19", "Molecular Formula": "C11H9NO3", "Melting Point": "190-208 \u00b0C"}}