{"cas_no": "392-09-6", "cn_name": "2-\u6c1f-4-\u785d\u57fa\u82ef\u7532\u9178\u7532\u916f", "en_name": ["Benzoic acid, 2-fluoro-4-nitro-, methyl ester", "Benzoic acid, 2-fluoro-4-nitro-, methyl ester", "Methyl 2-fluoro-4-nitrobenzoate", "2-Fluoro-4-nitrobenzoic acid methyl ester"], "SMILES": "C(OC)(=O)C1=C(F)C=C(N(=O)=O)C=C1", "physical_data": {"Molecular Weight": "199.14", "Molecular Formula": "C8H6FNO4", "Melting Point": "75.5 \u00b0C"}}