{"cas_no": "392-42-7", "cn_name": "2-\u6c2f\u4ee3\u4e94\u6c1f-1,3-\u4e01\u4e8c\u70ef", "en_name": ["2-Chloropentafluoro-1,3-butadiene", "1,3-Butadiene, 2-chloro-1,1,3,4,4-pentafluoro-", "1,3-Butadiene, 2-chloropentafluoro-", "2-Chloro-1,1,3,4,4-pentafluoro-1,3-butadiene", "2-Chloropentafluoro-1,3-butadiene"], "SMILES": "C(C(=C(F)F)F)(=C(F)F)Cl", "physical_data": {"Molecular Weight": "178.49", "Molecular Formula": "C4ClF5", "Boiling Point": "37 \u00b0C"}}