{"cas_no": "392-13-2", "cn_name": "5-\u6c1f-3-\u7532\u57fa\u5432\u54da", "en_name": ["5-Fluoro-3-methyl-1H-indole", "1H-Indole, 5-fluoro-3-methyl-", "Indole, 5-fluoro-3-methyl-", "5-Fluoro-3-methyl-1H-indole", "5-Fluoro-3-methylindole"], "SMILES": "CC=1C=2C(=CC=C(F)C2)NC1", "physical_data": {"Molecular Weight": "149.16", "Molecular Formula": "C9H8FN", "Melting Point": "82-83 \u00b0C"}}