{"cas_no": "392-71-2", "cn_name": "2,6-\u4e8c\u6c2f-4-\u6c1f\u82ef\u915a", "en_name": ["2,6-Dichloro-4-fluorophenol", "Phenol, 2,6-dichloro-4-fluoro-", "2,6-Dichloro-4-fluorophenol", "NSC 10257"], "SMILES": "OC1=C(Cl)C=C(F)C=C1Cl", "physical_data": {"Molecular Weight": "180.99", "Molecular Formula": "C6H3Cl2FO", "Melting Point": "42 \u00b0C"}}