{"cas_no": "392-56-3", "cn_name": "\u516d\u6c1f\u82ef", "en_name": ["Hexafluorobenzene", "Benzene, 1,2,3,4,5,6-hexafluoro-", "Benzene, hexafluoro-", "1,2,3,4,5,6-Hexafluorobenzene", "Hexafluorobenzene", "Perfluorobenzene", "CP 28", "NSC 21628"], "SMILES": "FC1=C(F)C(F)=C(F)C(F)=C1F", "physical_data": {"Molecular Weight": "186.05", "Molecular Formula": "C6F6", "Boiling Point": "80.2 \u00b0C", "Melting Point": "5.3 \u00b0C", "Density": "1.612 g/cm\u00b3 @ Temp: 25 \u00b0C"}}