{"cas_no": "39201-89-3", "cn_name": "3,4,5-\u4e09\u7532\u6c27\u57fa\u82c4\u809f\u76d0\u9178\u76d0", "en_name": ["Benzaldehyde, 3,4,5-trimethoxy-, oxime", "Benzaldehyde, 3,4,5-trimethoxy-, oxime", "3,4,5-Trimethoxybenzaldoxime", "3,4,5-Trimethoxybenzaldehyde oxime"], "SMILES": "O(C)C1=C(OC)C=C(C=NO)C=C1OC", "physical_data": {"Molecular Weight": "211.21", "Molecular Formula": "C10H13NO4", "Melting Point": "83-84 \u00b0C"}}