{"cas_no": "39205-62-4", "cn_name": "\u90bb\u6c2f\u82ef\u9a88\u567b\u5511\u916e", "en_name": ["4-Chloro-2(3H)-benzothiazolone", "2(3H)-Benzothiazolone, 4-chloro-", "2-Benzothiazolol, 4-chloro-", "4-Chloro-2(3H)-benzothiazolone", "4-Chloro-2-oxobenzothiazoline", "4-Chloro-2-hydroxybenzothiazole", "4-Chloro-2-benzothiazolinone"], "SMILES": "ClC1=C2C(SC(=O)N2)=CC=C1", "physical_data": {"Molecular Weight": "185.63", "Molecular Formula": "C7H4ClNOS", "Melting Point": "204-205 \u00b0C"}}