{"cas_no": "3920-42-1", "cn_name": "4-\u785d\u57fa-1,5-\u4e8c\u7532\u57fa\u5421\u5511", "en_name": ["1,5-Dimethyl-4-nitro-1H-pyrazole", "1H-Pyrazole, 1,5-dimethyl-4-nitro-", "Pyrazole, 1,5-dimethyl-4-nitro-", "1,5-Dimethyl-4-nitro-1H-pyrazole", "1,5-Dimethyl-4-nitropyrazole"], "SMILES": "N(=O)(=O)C1=C(C)N(C)N=C1", "physical_data": {"Molecular Weight": "141.13", "Molecular Formula": "C5H7N3O2", "Melting Point": "114.6 \u00b0C"}}