{"cas_no": "39212-23-2", "cn_name": "\u5a01\u58eb\u5fcc\u5185\u916f", "en_name": ["Whiskey lactone", "2(3H)-Furanone, 5-butyldihydro-4-methyl-", "5-Butyldihydro-4-methyl-2(3H)-furanone", "\u03b2-Methyl-\u03b3-octalactone", "Oaklactone", "Whiskey lactone", "3-Methyl-4-octanolide", "3-Methyloctano-4-lactone", "5-Butyl-4-methyldihydrofuran-2(3H)-one"], "SMILES": "C(CCC)C1OC(=O)CC1C", "physical_data": {"Molecular Weight": "156.22", "Molecular Formula": "C9H16O2", "Boiling Point": "93-94 \u00b0C @ Press: 5 Torr"}}