{"cas_no": "39213-22-4", "cn_name": "3,5-BIS(TRIFLUOROMETHYL)BENZENESULFONAMIDE", "en_name": ["3,5-Bis(trifluoromethyl)benzenesulfonamide", "Benzenesulfonamide, 3,5-bis(trifluoromethyl)-", "3,5-Bis(trifluoromethyl)benzenesulfonamide", "3,5-Bis(trifluoromethyl)benzene-1-sulfonamide"], "SMILES": "C(F)(F)(F)C1=CC(C(F)(F)F)=CC(S(N)(=O)=O)=C1", "physical_data": {"Molecular Weight": "293.19", "Molecular Formula": "C8H5F6NO2S", "Melting Point": "184.5-185 \u00b0C"}}