{"cas_no": "39225-17-7", "cn_name": "4-\u6c2f\u82ef\u57fa\u78f7\u9178\u4e8c\u4e59\u916f", "en_name": ["Diethyl P-[(4-chlorophenyl)methyl]phosphonate", "Phosphonic acid, P-[(4-chlorophenyl)methyl]-, diethyl ester", "Phosphonic acid, [(4-chlorophenyl)methyl]-, diethyl ester", "Diethyl P-[(4-chlorophenyl)methyl]phosphonate", "p-(Chlorobenzyl)phosphonic acid diethyl ester", "Diethyl (p-chlorobenzyl)phosphonate", "Diethyl (4-chlorobenzyl)phosphonate", "[(4-Chlorophenyl)methyl]phosphonic acid diethyl ester", "4-(Chlorobenzyl)phosphonic acid diethyl ester", "NSC 202843", "1-Chloro-4-(diethoxyphosphorylmethyl)benzene"], "SMILES": "C(P(OCC)(OCC)=O)C1=CC=C(Cl)C=C1", "physical_data": {"Molecular Weight": "262.67", "Molecular Formula": "C11H16ClO3P", "Boiling Point": "180 \u00b0C @ Press: 3 Torr", "Melting Point": "90 \u00b0C"}}