{"cas_no": "39222-73-6", "cn_name": "2-\u6c28\u57fa-5-\u53d4\u4e01\u57fa- 1,3,4-\u567b\u4e8c\u5511", "en_name": ["5-(1,1-Dimethylethyl)-1,3,4-thiadiazol-2-amine", "1,3,4-Thiadiazol-2-amine, 5-(1,1-dimethylethyl)-", "1,3,4-Thiadiazole, 2-amino-5-tert-butyl-", "5-(1,1-Dimethylethyl)-1,3,4-thiadiazol-2-amine", "5-Amino-2-tert-butyl-1,3,4-thiadiazole", "5-tert-Butyl-2-amino-1,3,4-thiadiazole", "2-Amino-5-tert-butyl-1,3,4-thiadiazole", "2-tert-Butyl-5-amino-1,3,4-thiadiazole", "2-Amino-4-tert-butyl-1,3,4-thiadiazole", "Buthidazolamine", "(5-tert-Butyl-[1,3,4]thiadiazol-2-yl)amine", "5-(tert-Butyl)-[1,3,4]thiadiazole-2-amine", "N-(5-tert-Butyl-1,3,4-thiadiazol-2-yl)amine", "5-tert-Butyl-1,3,4-thiadiazol-2-amine"], "SMILES": "C(C)(C)(C)C=1SC(N)=NN1", "physical_data": {"Molecular Weight": "157.24", "Molecular Formula": "C6H11N3S", "Melting Point": "180 \u00b0C"}}