{"cas_no": "3922-90-5", "cn_name": "\u7af9\u6843\u9709\u7d20", "en_name": ["Oleandomycin", "Oleandomycin", "Nonanoic acid, 8-(3,5-dihydroxy-2,4-dimethylhexanoyl)-5-(4-dimethylaminotetrahydro-3-hydroxy-6-methylpyran-2-yloxy)-8,9-epoxy-2,4,6-trimethyl-3-(tetrahydro-5-hydroxy-4-methoxy-6-methylpyran-2-yloxy)-, \u03bc-lactone", "1,9-Dioxaspiro[2.13]hexadecane, oleandomycin deriv.", "Amimycin", "PA 775", "1,9-Dioxaspiro[2.13]hexadecane-4,10-dione, 12-[(2,6-dideoxy-3-O-methyl-\u03b1-L-arabino-hexopyranosyl)oxy]-6-hydroxy-5,7,8,11,13,15-hexamethyl-14-[[3,4,6-trideoxy-3-(dimethylamino)-\u03b2-D-xylo-hexopyranosyl]oxy]-, [3R-(3R*,5R*,6S*,7R*,8R*,11R*,12S*,13R*,14S*,15S*)]-", "Antibiotic PA 105", "Romicil", "[3R-(3R*,5R*,6S*,7R*,8R*,11R*,12S*,13R*,14S*,15S*)]-12-[(2,6-Dideoxy-3-O-methyl-\u03b1-L-arabino-hexopyranosyl)oxy]-6-hydroxy-5,7,8,11,13,15-hexamethyl-14-[[3,4,6-trideoxy-3-(dimethylamino)-\u03b2-D-xylo-hexopyranosyl]oxy]-1,9-dioxaspiro[2.13]hexadecane-4,10-dione", "Oleandomycin A", "Landomycin", "PA 105", "Sigmamycine", "MeSH ID: D009827"], "SMILES": "O=C1C2(CO2)CC(C)C(OC3C(O)C(N(C)C)CC(C)O3)C(C)C(OC4CC(OC)C(O)C(C)O4)C(C)C(=O)OC(C)C(C)C(O)C1C", "physical_data": {"Molecular Weight": "687.86", "Molecular Formula": "C35H61NO12", "Melting Point": "110 \u00b0C (decomp)"}}