{"cas_no": "3922-40-5", "cn_name": "4,7-\u4e8c\u7f9f\u57fa-1,10-\u83f2\u5570\u5549", "en_name": ["4,7-Dihydroxy-1,10-phenanthroline", "1,10-Phenanthroline-4,7-diol", "4,7-Dihydroxy-1,10-phenanthroline"], "SMILES": "OC=1C=2C(=C3C(=CC2)C(O)=CC=N3)N=CC1", "physical_data": {"Molecular Weight": "212.20", "Molecular Formula": "C12H8N2O2", "Melting Point": "475 \u00b0C (decomp)"}}