{"cas_no": "39232-91-2", "cn_name": "3-\u7532\u6c27\u57fa\u82ef\u80bc\u76d0\u9178", "en_name": ["(3-Methoxyphenyl)hydrazine hydrochloride", "Hydrazine, (3-methoxyphenyl)-, hydrochloride (1:1)", "Hydrazine, (3-methoxyphenyl)-, monohydrochloride", "Hydrazine, (m-methoxyphenyl)-, hydrochloride", "m-Methoxyphenylhydrazine hydrochloride", "(3-Methoxyphenyl)hydrazine hydrochloride", "[3-(Methyloxy)phenyl]hydrazine monohydrochloride", "(3-Methoxyphenyl)hydrazine monohydrochloride"], "SMILES": "N(N)C1=CC(OC)=CC=C1.Cl", "physical_data": {"Molecular Weight": "", "Molecular Formula": "C7H10N2O.ClH", "Melting Point": "140-141 \u00b0C"}}