{"cas_no": "3923-52-2", "cn_name": "1,1-\u4e8c\u82ef\u57fa-2-\u4e19\u7094-1-\u9187", "en_name": ["1,1-Diphenyl-2-propyn-1-ol", "Benzenemethanol, \u03b1-ethynyl-\u03b1-phenyl-", "2-Propyn-1-ol, 1,1-diphenyl-", "\u03b1-Ethynyl-\u03b1-phenylbenzenemethanol", "1,1-Diphenylpropargyl alcohol", "1,1-Diphenyl-2-propyn-1-ol", "3,3-Diphenyl-3-hydroxy-1-propyne", "Ethynyldiphenylmethanol", "1,1-Diphenylpropyn-1-ol", "NSC 113228", "1,1-Diphenyl-1-hydroxy-2-propyne", "3,3-Diphenyl-propyn-1-ol", "1,1-Diphenyl-2-propyne-1-ol"], "SMILES": "C(C#C)(O)(C1=CC=CC=C1)C2=CC=CC=C2", "physical_data": {"Molecular Weight": "208.26", "Molecular Formula": "C15H12O", "Boiling Point": "177-178 \u00b0C @ Press: 16-18 Torr", "Melting Point": "44.5 \u00b0C"}}