{"cas_no": "39244-10-5", "cn_name": "3-(3-\u544b\u5583\u57fa)\u4e19\u70ef\u9178", "en_name": ["3-Furanacrylic acid", "2-Propenoic acid, 3-(3-furanyl)-", "3-Furanacrylic acid", "3-(3-Furanyl)-2-propenoic acid", "3-(3-Furyl)acrylic acid", "3-Furylacrylic acid", "3-(3-Furyl)-2-propenoic acid", "3-Furan-3-yl-acrylic acid"], "SMILES": "C(=CC(O)=O)C=1C=COC1", "physical_data": {"Molecular Weight": "138.12", "Molecular Formula": "C7H6O3", "Melting Point": "153-155 \u00b0C"}}