{"cas_no": "39243-02-2", "cn_name": "\u963f\u7a46\u9752", "en_name": ["8-Bromo-1-methyl-6-(2-pyridinyl)-4H-[1,2,4]triazolo[4,3-a][1,4]benzodiazepine", "4H-[1,2,4]Triazolo[4,3-a][1,4]benzodiazepine, 8-bromo-1-methyl-6-(2-pyridinyl)-", "8-Bromo-1-methyl-6-(2-pyridinyl)-4H-[1,2,4]triazolo[4,3-a][1,4]benzodiazepine", "Pyrazolam"], "SMILES": "CC=1N2C=3C(C(=NCC2=NN1)C4=CC=CC=N4)=CC(Br)=CC3", "physical_data": {"Molecular Weight": "354.20", "Molecular Formula": "C16H12BrN5", "Melting Point": "253-255 \u00b0C"}}