{"cas_no": "39255-32-8", "cn_name": "2-\u7532\u57fa\u620a\u9178\u4e59\u916f", "en_name": ["Ethyl 2-methylpentanoate", "Pentanoic acid, 2-methyl-, ethyl ester", "Ethyl \u03b1-methylvalerate", "Ethyl 2-methylpentanoate", "Ethyl 2-methylvalerate", "Manzanate", "Applinate"], "SMILES": "C(C(OCC)=O)(CCC)C", "physical_data": {"Molecular Weight": "144.21", "Molecular Formula": "C8H16O2", "Boiling Point": "153.5-154 \u00b0C @ Press: 758 Torr"}}