{"cas_no": "39251-88-2", "cn_name": "\u6b63\u8f9b\u57fa-2-\u544b\u5583\u7fa7\u9178\u916f", "en_name": ["Octyl 2-furoate", "2-Furancarboxylic acid, octyl ester", "Octyl 2-furancarboxylate", "2-Furoic acid octyl ester", "Octyl 2-furoate", "n-Octyl 2-furancarboxylate"], "SMILES": "C(OCCCCCCCC)(=O)C1=CC=CO1", "physical_data": {"Molecular Weight": "224.30", "Molecular Formula": "C13H20O3", "Boiling Point": "125 \u00b0C @ Press: 1 Torr"}}