{"cas_no": "39269-10-8", "cn_name": "1,3-\u91d1\u521a\u70f7\u4e8c\u7532\u9178", "en_name": ["1,3-Adamantanedicarboxylic acid", "Tricyclo[3.3.1.13,7]decane-1,3-dicarboxylic acid", "1,3-Adamantanedicarboxylic acid", "1,3-Dicarboxyadamantane"], "SMILES": "C(O)(=O)C12CC3(C(O)=O)CC(C1)CC(C2)C3", "physical_data": {"Molecular Weight": "224.25", "Molecular Formula": "C12H16O4", "Melting Point": "279.5-280.5 \u00b0C"}}