{"cas_no": "39262-14-1", "cn_name": "20(S)-\u4eba\u53c2\u7682\u82f7 C-K", "en_name": ["Ginsenoside K", "\u03b2-D-Glucopyranoside, (3\u03b2,12\u03b2)-3,12-dihydroxydammar-24-en-20-yl", "(3\u03b2,12\u03b2)-3,12-Dihydroxydammar-24-en-20-yl \u03b2-D-glucopyranoside", "20-O-\u03b2-D-Glucopyranosyl-20(S)-protopanaxadiol", "Ginsenoside K", "IH 901", "Protopanaxadiol 20-O-glucoside", "20(S)-Protopanaxadiol 20-O-D-glucopyranoside", "Ginsenoside C-K", "20-O-\u03b2-Glucopyranosyl-20(S)-protopanaxadiol", "Ginsenoside compound K", "20(S)-Protopanaxadiol 20-O-\u03b2-D-glucopyranoside", "Ginsenoside IH901", "Ginsenoside M1", "Ginsenoside metabolite M1", "Compound k", "3-O-Deglucosylginsenoside F2", "LCHK 168", "20S-Protopanaxadiol 20-O-\u03b2-D-glucopyranoside", "NT3 VAN SC6"], "SMILES": "CC12C(C3(C)C(CC1)C(C)(C)C(O)CC3)CC(O)C4C2(C)CCC4C(OC5OC(CO)C(O)C(O)C5O)(CCC=C(C)C)C", "physical_data": {"Molecular Weight": "622.87", "Molecular Formula": "C36H62O8", "Melting Point": "181-183 \u00b0C"}}