{"cas_no": "3926-62-3", "cn_name": "\u6c2f\u4e59\u9178\u94a0", "en_name": ["Sodium chloroacetate", "Acetic acid, 2-chloro-, sodium salt (1:1)", "Acetic acid, chloro-, sodium salt", "Sodium chloroacetate", "Chloroacetic acid sodium salt", "Sodium monochloroacetate", "SMA", "SMA (herbicide)", "Monochloroacetic acid sodium salt", "Sodium 2-chloroacetate", "Sodium \u03b1-chloroacetate", "Sodium chloroethanoate", "Sodium monochloroactetate"], "SMILES": "C(CCl)(O)=O.[Na]", "physical_data": {"Molecular Weight": "", "Molecular Formula": "C2H3ClO2.Na", "Melting Point": "150-200 \u00b0C (decomp)"}}