{"cas_no": "39267-05-5", "cn_name": "2,3-\u4e8c\u6c2f-6-\u7532\u57fa\u55b9\u5594\u5549", "en_name": ["2,3-Dichloro-6-methylquinoxaline", "Quinoxaline, 2,3-dichloro-6-methyl-", "2,3-Dichloro-6-methylquinoxaline", "2,3-Dichloro-7-methylquinoxaline"], "SMILES": "ClC1=NC2=C(N=C1Cl)C=CC(C)=C2", "physical_data": {"Molecular Weight": "213.06", "Molecular Formula": "C9H6Cl2N2", "Melting Point": "113-114 \u00b0C"}}