{"cas_no": "39260-89-4", "cn_name": "2-(4-\u6eb4\u82ef)\u4e59\u80fa\u76d0\u9178\u76d0", "en_name": ["Benzeneethanamine, 4-bromo-, hydrochloride (1:1)", "Benzeneethanamine, 4-bromo-, hydrochloride (1:1)", "Benzeneethanamine, 4-bromo-, hydrochloride", "Phenethylamine, p-bromo-, hydrochloride", "2-(4-Bromophenyl)ethylamine hydrochloride", "2-(4-Bromophenyl)-1-aminoethane hydrochloride"], "SMILES": "C(CN)C1=CC=C(Br)C=C1.Cl", "physical_data": {"Molecular Weight": "", "Molecular Formula": "C8H10BrN.ClH", "Melting Point": "240-243 \u00b0C"}}