{"cas_no": "39263-32-6", "cn_name": "2-\u6c28\u57fa-5-\u6eb4\u82ef\u7532\u8148", "en_name": ["2-Amino-5-bromobenzonitrile", "Benzonitrile, 2-amino-5-bromo-", "Anthranilonitrile, 5-bromo-", "2-Amino-5-bromobenzonitrile", "5-Bromoanthranilonitrile", "2-Cyano-4-bromoaniline", "4-Bromo-2-cyanoaniline", "NSC 263786", "5-Bromo-2-aminobenzonitrile"], "SMILES": "C(#N)C1=C(N)C=CC(Br)=C1", "physical_data": {"Molecular Weight": "197.03", "Molecular Formula": "C7H5BrN2", "Melting Point": "96-97 \u00b0C"}}