{"cas_no": "39267-04-4", "cn_name": "2,3-\u4e8c\u6c2f-6-\u7532\u6c27\u57fa\u55b9\u5594\u5549", "en_name": ["2,3-Dichloro-6-methoxyquinoxaline", "Quinoxaline, 2,3-dichloro-6-methoxy-", "2,3-Dichloro-6-methoxyquinoxaline", "6-Methoxy-2,3-dichloroquinoxaline"], "SMILES": "O(C)C1=CC2=C(N=C(Cl)C(Cl)=N2)C=C1", "physical_data": {"Molecular Weight": "229.06", "Molecular Formula": "C9H6Cl2N2O", "Melting Point": "160 \u00b0C"}}