{"cas_no": "39270-39-8", "cn_name": "2,3-\u4e8c\u6c22-1\uff0c4-\u82ef\u5e76\u4e8c\u6c27\u7532\u9187", "en_name": ["2,3-Dihydro-1,4-benzodioxin-6-methanol", "1,4-Benzodioxin-6-methanol, 2,3-dihydro-", "1,4-Benzodioxan-6-methanol", "2,3-Dihydro-1,4-benzodioxin-6-methanol", "(2,3-Dihydro-1,4-benzodioxin-6-yl)methanol", "(2,3-Dihydrobenzo[b][1,4]dioxin-6-yl)methanol", "3,4-Ethylenedioxybenzyl alcohol"], "SMILES": "C(O)C=1C=C2C(=CC1)OCCO2", "physical_data": {"Molecular Weight": "166.17", "Molecular Formula": "C9H10O3", "Boiling Point": "165-167 \u00b0C @ Press: 8 Torr"}}