{"cas_no": "3929-61-1", "cn_name": "GLU-GLU", "en_name": ["L-Glutamyl-L-glutamic acid", "L-Glutamic acid, L-\u03b1-glutamyl-", "Glutamic acid, N-L-\u03b1-glutamyl-, L-", "L-Glutamic acid, N-L-\u03b1-glutamyl-", "L-\u03b1-Glutamyl-L-glutamic acid", "L-Glutamyl-L-glutamic acid", "\u03b1-Glutamylglutamic acid", "NSC 335983", "90: PN: WO2004025259 PAGE: 57 claimed protein", "107: PN: US20070066537 PAGE: 17 claimed protein", "2: PN: WO2008083678 PAGE: 33 claimed protein", "84: PN: EP2161028 PAGE: 10 claimed protein", "14: PN: WO2020009548 SEQID: 14 claimed protein", "12: PN: WO2022182737 SEQID: 16 claimed sequence", "34: PN: WO2023003984 SEQID: 44 claimed sequence", "10: PN: WO2023056433 PAGE: 60 claimed sequence"], "SMILES": "C(NC(C(CCC(O)=O)N)=O)(CCC(O)=O)C(O)=O", "physical_data": {"Molecular Weight": "276.24", "Molecular Formula": "C10H16N2O7", "Melting Point": "167-168 \u00b0C", "Density": "1.51 g/cm\u00b3"}}