{"cas_no": "393-37-3", "cn_name": "5-\u6eb4-2-\u6c1f\u4e09\u6c1f\u7532\u82ef", "en_name": ["5-Bromo-2-fluorobenzotrifluoride", "Benzene, 4-bromo-1-fluoro-2-(trifluoromethyl)-", "Toluene, 5-bromo-\u03b1,\u03b1,\u03b1,2-tetrafluoro-", "4-Bromo-1-fluoro-2-(trifluoromethyl)benzene", "5-Bromo-2-fluorobenzotrifluoride", "5-Bromo-2-fluoro-1-trifluoromethylbenzene", "1-Bromo-4-fluoro-3-trifluoromethylbenzene", "4-Fluoro-3-(trifluoromethyl)bromobenzene", "2-Fluoro-5-bromobenzotrifluoride"], "SMILES": "C(F)(F)(F)C1=C(F)C=CC(Br)=C1", "physical_data": {"Molecular Weight": "243.00", "Molecular Formula": "C7H3BrF4", "Boiling Point": "78-83 \u00b0C @ Press: 50 Torr", "Melting Point": "203 \u00b0C", "Density": "1.720 g/cm\u00b3 @ Temp: 25 \u00b0C"}}