{"cas_no": "393-39-5", "cn_name": "2-\u6c28\u57fa-5-\u6c1f\u4e09\u6c1f\u7532\u82ef", "en_name": ["4-Fluoro-2-(trifluoromethyl)aniline", "Benzenamine, 4-fluoro-2-(trifluoromethyl)-", "o-Toluidine, \u03b1,\u03b1,\u03b1,4-tetrafluoro-", "4-Fluoro-2-(trifluoromethyl)benzenamine", "4-Fluoro-2-(trifluoromethyl)aniline", "2-(Trifluoromethyl)-4-fluoroaniline", "2-Amino-5-fluorobenzotrifluoride", "\u03b1,\u03b1,\u03b1,4-Tetrafluoro-2-methylaniline", "NSC 10325", "(4-Fluoro-2-trifluoromethylphenyl)amine", "\u03b1,\u03b1,\u03b1,4-Tetrafluoro-2-toluidine"], "SMILES": "C(F)(F)(F)C1=C(N)C=CC(F)=C1", "physical_data": {"Molecular Weight": "179.11", "Molecular Formula": "C7H5F4N", "Boiling Point": "70-72 \u00b0C @ Press: 17.5 Torr"}}