{"cas_no": "393-09-9", "cn_name": "5-\u6c1f-2-\u785d\u57fa\u4e09\u6c1f\u7532\u82ef", "en_name": ["4-Fluoro-1-nitro-2-(trifluoromethyl)benzene", "Benzene, 4-fluoro-1-nitro-2-(trifluoromethyl)-", "Toluene, \u03b1,\u03b1,\u03b1,5-tetrafluoro-2-nitro-", "4-Fluoro-1-nitro-2-(trifluoromethyl)benzene", "5-Fluoro-2-nitrobenzotrifluoride", "5-Fluoro-2-nitro(trifluoromethyl)benzene", "NSC 10304", "4-Fluoro-6-(trifluoromethyl)nitrobenzene", "4-Fluoro-2-(trifluoromethyl)nitrobenzene", "1-Fluoro-3-trifluoromethyl-4-nitrobenzene", "4-Nitro-3-(trifluoromethyl)fluorobenzene", "5-Fluoro-2-nitro-1-trifluoromethylbenzene"], "SMILES": "C(F)(F)(F)C1=C(N(=O)=O)C=CC(F)=C1", "physical_data": {"Molecular Weight": "209.10", "Molecular Formula": "C7H3F4NO2", "Boiling Point": "88 \u00b0C @ Press: 12 Torr"}}