{"cas_no": "393-79-3", "cn_name": "2,4-\u4e8c\u6c2f-3-\u6c1f-1-\u785d\u57fa\u82ef", "en_name": ["1,3-Dichloro-2-fluoro-4-nitrobenzene", "Benzene, 1,3-dichloro-2-fluoro-4-nitro-", "1,3-Dichloro-2-fluoro-4-nitrobenzene", "2,4-Dichloro-3-fluoronitrobenzene", "NSC 10242"], "SMILES": "N(=O)(=O)C1=C(Cl)C(F)=C(Cl)C=C1", "physical_data": {"Molecular Weight": "209.99", "Molecular Formula": "C6H2Cl2FNO2", "Boiling Point": "88 \u00b0C @ Press: 1 Torr"}}