{"cas_no": "393-36-2", "cn_name": "3-\u4e09\u6c1f\u7532\u57fa-4-\u6eb4\u82ef\u80fa", "en_name": ["4-Bromo-3-(trifluoromethyl)aniline", "Benzenamine, 4-bromo-3-(trifluoromethyl)-", "m-Toluidine, 4-bromo-\u03b1,\u03b1,\u03b1-trifluoro-", "4-Bromo-3-(trifluoromethyl)benzenamine", "4-Bromo-3-(trifluoromethyl)aniline", "4-Bromo-\u03b1,\u03b1,\u03b1-trifluoro-m-toluidine", "5-Amino-2-bromobenzotrifluoride", "3-Amino-6-bromobenzotrifluoride", "NSC 88332", "4-Bromo-3-(trifluoromethyl)phenylamine", "3-Trifluoromethyl-4-bromoaniline", "4-Bromo-3-trifluoromethylbenzeneamine"], "SMILES": "C(F)(F)(F)C1=C(Br)C=CC(N)=C1", "physical_data": {"Molecular Weight": "240.02", "Molecular Formula": "C7H5BrF3N", "Boiling Point": "104-108 \u00b0C @ Press: 5 Torr", "Melting Point": "55-56 \u00b0C"}}