{"cas_no": "393-11-3", "cn_name": "4-\u785d\u57fa-3-\u4e09\u6c1f\u7532\u57fa\u82ef\u80fa", "en_name": ["4-Nitro-3-(trifluoromethyl)aniline", "Benzenamine, 4-nitro-3-(trifluoromethyl)-", "m-Toluidine, \u03b1,\u03b1,\u03b1-trifluoro-4-nitro-", "4-Nitro-3-(trifluoromethyl)benzenamine", "\u03b1,\u03b1,\u03b1-Trifluoro-4-nitro-m-toluidine", "3-Trifluoromethyl-4-nitroaniline", "4-Nitro-3-(trifluoromethyl)aniline", "5-Amino-2-nitrobenzotrifluoride", "NSC 10323", "(4-Nitro-3-trifluoromethylphenyl)amine", "3-Amino-6-nitrobenzotrifluoride"], "SMILES": "C(F)(F)(F)C1=C(N(=O)=O)C=CC(N)=C1", "physical_data": {"Molecular Weight": "206.12", "Molecular Formula": "C7H5F3N2O2", "Melting Point": "129 \u00b0C"}}