{"cas_no": "393-77-1", "cn_name": "2,6-\u4e8c\u785d\u57fa-4-\u4e09\u6c1f\u7532\u57fa\u82ef\u915a", "en_name": ["2,6-Dinitro-4-(trifluoromethyl)phenol", "Phenol, 2,6-dinitro-4-(trifluoromethyl)-", "p-Cresol, \u03b1,\u03b1,\u03b1-trifluoro-2,6-dinitro-", "2,6-Dinitro-4-(trifluoromethyl)phenol", "4-(Trifluoromethyl)-2,6-dinitrophenol", "4-Hydroxy-3,5-dinitrobenzotrifluoride"], "SMILES": "N(=O)(=O)C1=C(O)C(N(=O)=O)=CC(C(F)(F)F)=C1", "physical_data": {"Molecular Weight": "252.10", "Molecular Formula": "C7H3F3N2O5", "Melting Point": "47-48 \u00b0C"}}