{"cas_no": "393-75-9", "cn_name": "4-\u6c2f-3,5-\u4e8c\u785d\u57fa\u4e09\u6c1f\u7532\u82ef", "en_name": ["4-Chloro-3,5-dinitrobenzotrifluoride", "Benzene, 2-chloro-1,3-dinitro-5-(trifluoromethyl)-", "Toluene, 4-chloro-\u03b1,\u03b1,\u03b1-trifluoro-3,5-dinitro-", "2-Chloro-1,3-dinitro-5-(trifluoromethyl)benzene", "4-Chloro-3,5-dinitrobenzotrifluoride", "2,6-Dinitro-4-(trifluoromethyl)chlorobenzene", "3,5-Dinitro-4-chlorobenzotrifluoride", "4-Chloro-3,5-dinitro-\u03b1,\u03b1,\u03b1-trifluorotoluene", "4-(Trifluoromethyl)-2,6-dinitrochlorobenzene", "1-Chloro-2,6-dinitro-4-(trifluoromethyl)benzene", "4-Chloro-\u03b1,\u03b1,\u03b1-trifluoro-3,5-dinitrotoluene", "1,3-Dinitro-2-chloro-5-(trifluoromethyl)benzene", "Chloralin", "NSC 88274", "3,5-Dinitro-4-chlorotrifluoromethylbenzene"], "SMILES": "N(=O)(=O)C1=C(Cl)C(N(=O)=O)=CC(C(F)(F)F)=C1", "physical_data": {"Molecular Weight": "270.55", "Molecular Formula": "C7H2ClF3N2O4", "Melting Point": "57 \u00b0C"}}