{"cas_no": "393-38-4", "cn_name": "2,5-\u4e8c\u6c1f\u4e09\u6c1f\u7532\u57fa\u82ef", "en_name": ["1,4-Difluoro-2-(trifluoromethyl)benzene", "Benzene, 1,4-difluoro-2-(trifluoromethyl)-", "Toluene, \u03b1,\u03b1,\u03b1,2,5-pentafluoro-", "1,4-Difluoro-2-(trifluoromethyl)benzene", "2,5-Difluorobenzotrifluoride"], "SMILES": "C(F)(F)(F)C1=C(F)C=CC(F)=C1", "physical_data": {"Molecular Weight": "182.09", "Molecular Formula": "C7H3F5", "Boiling Point": "107-108 \u00b0C", "Melting Point": "-14 \u00b0C", "Density": "1.4244 g/cm\u00b3 @ Temp: 15 \u00b0C"}}