{"cas_no": "393-55-5", "cn_name": "2-\u6c1f\u70df\u9178", "en_name": ["2-Fluoronicotinic acid", "3-Pyridinecarboxylic acid, 2-fluoro-", "Nicotinic acid, 2-fluoro-", "2-Fluoro-3-pyridinecarboxylic acid", "2-Fluoronicotinic acid", "NSC 51588"], "SMILES": "C(O)(=O)C1=C(F)N=CC=C1", "physical_data": {"Molecular Weight": "141.10", "Molecular Formula": "C6H4FNO2", "Melting Point": "164-165 \u00b0C (decomp)"}}