{"cas_no": "393-52-2", "cn_name": "\u90bb\u6c1f\u82ef\u7532\u9170\u6c2f", "en_name": ["2-Fluorobenzoyl chloride", "Benzoyl chloride, 2-fluoro-", "Benzoyl chloride, o-fluoro-", "2-Fluorobenzoyl chloride", "o-Fluorobenzoyl chloride", "NSC 88304", "2-Fluorobenzenecarbonyl chloride"], "SMILES": "C(Cl)(=O)C1=C(F)C=CC=C1", "physical_data": {"Molecular Weight": "158.56", "Molecular Formula": "C7H4ClFO", "Boiling Point": "204 \u00b0C", "Melting Point": "4 \u00b0C"}}