{"cas_no": "3930-83-4", "cn_name": "2-\u7898\u82ef\u7532\u9170\u80fa", "en_name": ["2-Iodobenzamide", "Benzamide, 2-iodo-", "Benzamide, o-iodo-", "2-Iodobenzamide", "o-Iodobenzamide", "NSC 136970"], "SMILES": "C(N)(=O)C1=C(I)C=CC=C1", "physical_data": {"Molecular Weight": "247.03", "Molecular Formula": "C7H6INO", "Melting Point": "186-187 \u00b0C"}}