{"cas_no": "3930-19-6", "cn_name": "\u68d5\u9709\u7d20", "en_name": ["Streptonigrin", "2-Pyridinecarboxylic acid, 5-amino-6-(7-amino-5,8-dihydro-6-methoxy-5,8-dioxo-2-quinolinyl)-4-(2-hydroxy-3,4-dimethoxyphenyl)-3-methyl-, (4R)-", "Picolinic acid, 5-amino-6-(7-amino-5,8-dihydro-6-methoxy-5,8-dioxo-2-quinolyl)-4-(2-hydroxy-3,4-dimethoxyphenyl)-3-methyl-", "(4R)-5-Amino-6-(7-amino-5,8-dihydro-6-methoxy-5,8-dioxo-2-quinolinyl)-4-(2-hydroxy-3,4-dimethoxyphenyl)-3-methyl-2-pyridinecarboxylic acid", "NSC 45383", "5-Amino-6-(7-amino-5,8-dihydro-6-methoxy-5,8-dioxo-2-quinolyl)-4-(2-hydroxy-3,4-dimethoxyphenyl)-3-methylpicolinic acid", "Nigrin", "SN", "Streptonigrin", "Bruneomycin", "Rufocromomycin", "5278RP", "AO 50165L302", "Abbott Crystalline antibiotic", "Streptonigran", "STP", "NSC 56748", "NSC 83950", "(R)-Streptonigrin", "(M)-Streptonigrin"], "SMILES": "NC=1C(=C(C)C(C(O)=O)=NC1C=2N=C3C(=CC2)C(=O)C(OC)=C(N)C3=O)C4=C(O)C(OC)=C(OC)C=C4", "physical_data": {"Molecular Weight": "506.46", "Molecular Formula": "C25H22N4O8", "Melting Point": "262-263 \u00b0C"}}