{"cas_no": "3930-20-9", "cn_name": "\u7d22\u4ed6\u6d1b\u5c14", "en_name": ["Sotalol", "Methanesulfonamide, N-[4-[1-hydroxy-2-[(1-methylethyl)amino]ethyl]phenyl]-", "Methanesulfonanilide, 4\u2032-[1-hydroxy-2-(isopropylamino)ethyl]-", "N-[4-[1-Hydroxy-2-[(1-methylethyl)amino]ethyl]phenyl]methanesulfonamide", "4\u2032-[1-Hydroxy-2-(isopropylamino)ethyl]methanesulfonanilide", "Sotalol", "Beta-Cardone", "DL-4-(2-Isopropylamino-1-hydroxyethyl)methanesulfonanilide", "dl-Sotalol", "(\u00b1)-Sotalol", "DL-Sotalol", "MeSH ID: D013015"], "SMILES": "C(CNC(C)C)(O)C1=CC=C(NS(C)(=O)=O)C=C1", "physical_data": {"Molecular Weight": "272.36", "Molecular Formula": "C12H20N2O3S", "Melting Point": "206.5-207 \u00b0C", "Density": "1.298 g/cm\u00b3"}}