{"cas_no": "39300-45-3", "cn_name": "\u654c\u87a8\u666e", "en_name": ["Dinocap", "2-Butenoic acid, 2(or 4)-isooctyl-4,6(or 2,6)-dinitrophenyl ester", "Karathane", "Dinocap", "Crotothane", "Mildex", "Carathane", "DPC", "DPC (pesticide)", "Karathane 25", "Caprane", "Karathane FN 57", "Karathane LC", "Dicap"], "SMILES": "", "physical_data": {"Molecular Weight": "", "Molecular Formula": "C18H24N2O6", "Boiling Point": "138-140 \u00b0C @ Press: 0.05 Torr", "Density": "1.10 g/cm\u00b3 @ Temp: 20 \u00b0C"}}