{"cas_no": "393105-53-8", "cn_name": "ALPHA-\u6c27\u4ee3-1-(\u82ef\u57fa\u7532\u57fa)-5-[4-(\u4e09\u6c1f\u7532\u6c27\u57fa)\u82ef\u57fa]-1H-\u5432\u54da-3-\u4e59\u9178", "en_name": ["Tiplaxtinin", "1H-Indole-3-acetic acid, \u03b1-oxo-1-(phenylmethyl)-5-[4-(trifluoromethoxy)phenyl]-", "\u03b1-Oxo-1-(phenylmethyl)-5-[4-(trifluoromethoxy)phenyl]-1H-indole-3-acetic acid", "PAI 039", "Tiplaxtinin", "Tiplasinin"], "SMILES": "C(C(O)=O)(=O)C=1C=2C(N(CC3=CC=CC=C3)C1)=CC=C(C2)C4=CC=C(OC(F)(F)F)C=C4", "physical_data": {"Molecular Weight": "439.38", "Molecular Formula": "C24H16F3NO4", "Melting Point": "169-171 \u00b0C"}}