{"cas_no": "3932-97-6", "cn_name": "2,4-\u4e8c\u6c2f-5-\u4e09\u6c1f\u7532\u57fa\u5627\u5576", "en_name": ["2,4-Dichloro-5-(trifluoromethyl)pyrimidine", "Pyrimidine, 2,4-dichloro-5-(trifluoromethyl)-", "2,4-Dichloro-5-(trifluoromethyl)pyrimidine", "5-Trifluoromethyl-2,4-dichloropyrimidine", "2,6-Dichloro-5-trifluoromethylpyrimidine"], "SMILES": "C(F)(F)(F)C=1C(Cl)=NC(Cl)=NC1", "physical_data": {"Molecular Weight": "216.98", "Molecular Formula": "C5HCl2F3N2", "Boiling Point": "126 \u00b0C @ Press: 650 Torr"}}