{"cas_no": "3934-81-4", "cn_name": "2,3-\u4e8c\u7f9f\u57fa-4-\u7532\u6c27\u57fa\u82ef\u7532\u9178", "en_name": ["2,3-Dihydroxy-4-methoxybenzoic acid", "Benzoic acid, 2,3-dihydroxy-4-methoxy-", "o-Pyrocatechuic acid, 4-methoxy-", "2,3-Dihydroxy-4-methoxybenzoic acid", "2,3-Dihydroxy-p-anisic acid", "NSC 156949"], "SMILES": "C(O)(=O)C1=C(O)C(O)=C(OC)C=C1", "physical_data": {"Molecular Weight": "184.15", "Molecular Formula": "C8H8O5", "Melting Point": "234 \u00b0C"}}