{"cas_no": "3934-23-4", "cn_name": "\u7532\u57fa\u4e19\u70ef\u9178-1H,1H-\u5168\u6c1f\u4ee3\u8f9b\u916f", "en_name": ["2,2,3,3,4,4,5,5,6,6,7,7,8,8,8-Pentadecafluorooctyl 2-methyl-2-propenoate", "2-Propenoic acid, 2-methyl-, 2,2,3,3,4,4,5,5,6,6,7,7,8,8,8-pentadecafluorooctyl ester", "Methacrylic acid, 2,2,3,3,4,4,5,5,6,6,7,7,8,8,8-pentadecafluorooctyl ester", "1-Octanol, 2,2,3,3,4,4,5,5,6,6,7,7,8,8,8-pentadecafluoro-, methacrylate", "2,2,3,3,4,4,5,5,6,6,7,7,8,8,8-Pentadecafluorooctyl 2-methyl-2-propenoate", "1H,1H-Pentadecafluoro-1-octyl methacrylate", "1H,1H-Pentadecafluorooctyl methacrylate", "1,1-Dihydroperfluorooctyl methacrylate", "Nyebar", "1H,1H-Perfluorooctyl methacrylate", "2,2,3,3,4,4,5,5,6,6,7,7,8,8,8-Pentadecafluorooctyl methacrylate"], "SMILES": "C(C(C(C(COC(C(C)=C)=O)(F)F)(F)F)(F)F)(C(C(C(F)(F)F)(F)F)(F)F)(F)F", "physical_data": {"Molecular Weight": "468.16", "Molecular Formula": "C12H7F15O2", "Boiling Point": "95-102 \u00b0C @ Press: 20-21 Torr"}}