{"cas_no": "3934-87-0", "cn_name": "5-\u7f9f\u57fa\u9999\u8349\u919b", "en_name": ["3,4-Dihydroxy-5-methoxybenzaldehyde", "Benzaldehyde, 3,4-dihydroxy-5-methoxy-", "Protocatechualdehyde, 5-methoxy-", "3,4-Dihydroxy-5-methoxybenzaldehyde", "5-Hydroxyvanillin", "4,5-Dihydroxy-3-methoxybenzaldehyde", "NSC 16679", "3-Methoxy-4,5-dihydroxybenzaldehyde"], "SMILES": "O(C)C1=C(O)C(O)=CC(C=O)=C1", "physical_data": {"Molecular Weight": "168.15", "Molecular Formula": "C8H8O4", "Melting Point": "129-131 \u00b0C"}}