{"cas_no": "3934-20-1", "cn_name": "2,4-\u4e8c\u6c2f\u5627\u5576", "en_name": ["2,4-Dichloropyrimidine", "Pyrimidine, 2,4-dichloro-", "2,4-Dichloropyrimidine", "2,6-Dichloropyrimidine", "NSC 20212", "NSC 37531", "NSC 49119", "2-Chloropyrimidin-4-yl chloride"], "SMILES": "ClC1=NC(Cl)=NC=C1", "physical_data": {"Molecular Weight": "148.98", "Molecular Formula": "C4H2Cl2N2", "Boiling Point": "100 \u00b0C @ Press: 19 Torr", "Melting Point": "61 \u00b0C"}}