{"cas_no": "3934-84-7", "cn_name": "3-O-\u7532\u57fa\u6ca1\u98df\u5b50\u9178", "en_name": ["3-O-Methylgallic acid", "Benzoic acid, 3,4-dihydroxy-5-methoxy-", "Protocatechuic acid, 5-methoxy-", "3,4-Dihydroxy-5-methoxybenzoic acid", "3-Methoxygallic acid", "4,5-Dihydroxy-m-anisic acid", "3-O-Methylgallic acid", "4,5-Dihydroxy-3-methoxybenzoic acid", "3-Methoxy-4,5-dihydroxybenzoic acid", "5-Methoxygallic acid", "5-Hydroxyvanillic acid", "Gallic acid 3-methyl ether"], "SMILES": "O(C)C1=CC(C(O)=O)=CC(O)=C1O", "physical_data": {"Molecular Weight": "184.15", "Molecular Formula": "C8H8O5", "Melting Point": "220 \u00b0C"}}