{"cas_no": "3937-56-2", "cn_name": "1,9-\u58ec\u4e8c\u9187", "en_name": ["1,9-Nonanediol", "1,9-Nonanediol", "\u03b1,\u03c9-Nonanediol", "1,9-Dihydroxynonane", "NSC 5416", "Nonamethylene glycol"], "SMILES": "C(CCCCO)CCCCO", "physical_data": {"Molecular Weight": "160.25", "Molecular Formula": "C9H20O2", "Boiling Point": "147-149 \u00b0C @ Press: 1 Torr", "Melting Point": "45.8 \u00b0C"}}