{"cas_no": "3937-28-8", "cn_name": "\u70ef\u4e19\u57fa\u4e8c\u6c2f\u7845\u70f7", "en_name": ["Dichloro-2-propen-1-ylsilane", "Silane, dichloro-2-propen-1-yl-", "Silane, allyldichloro-", "Silane, dichloro-2-propenyl-", "Dichloro-2-propen-1-ylsilane"], "SMILES": "C([SiH](Cl)Cl)C=C", "physical_data": {"Molecular Weight": "141.07", "Molecular Formula": "C3H6Cl2Si", "Boiling Point": "97 \u00b0C", "Density": "1.086 g/cm\u00b3 @ Temp: 27 \u00b0C"}}