{"cas_no": "3937-96-0", "cn_name": "\u5bf9\u7532\u82ef\u78fa\u9170\u4e59\u9178", "en_name": ["2-[(4-Methylphenyl)sulfonyl]acetic acid", "Acetic acid, 2-[(4-methylphenyl)sulfonyl]-", "Acetic acid, (p-tolylsulfonyl)-", "Acetic acid, [(4-methylphenyl)sulfonyl]-", "2-[(4-Methylphenyl)sulfonyl]acetic acid", "(p-Tolylsulfonyl)acetic acid", "(p-Methylphenylsulfonyl)acetic acid", "(p-Toluenesulfonyl)acetic acid", "NSC 46893", "4-Methylphenylsulfonylacetic acid", "2-Tosylacetic acid", "2-(4-Methylbenzenesulfonyl)acetic acid"], "SMILES": "S(CC(O)=O)(=O)(=O)C1=CC=C(C)C=C1", "physical_data": {"Molecular Weight": "214.24", "Molecular Formula": "C9H10O4S", "Melting Point": "114-115 \u00b0C"}}