{"cas_no": "3937-30-2", "cn_name": "\u4e8c\u7532\u57fa\u70ef\u4e19\u57fa\u7845\u70f7", "en_name": ["Allyldimethylsilane", "Silane, dimethyl-2-propen-1-yl-", "Silane, allyldimethyl-", "Silane, dimethyl-2-propenyl-", "Dimethyl-2-propen-1-ylsilane", "Allyldimethylsilane"], "SMILES": "C([SiH](C)C)C=C", "physical_data": {"Molecular Weight": "100.23", "Molecular Formula": "C5H12Si", "Boiling Point": "69-70 \u00b0C", "Density": "0.705 g/cm\u00b3 @ Temp: 25 \u00b0C"}}