{"cas_no": "3938-95-2", "cn_name": "\u4e09\u7532\u57fa\u4e59\u9178\u4e59\u916f", "en_name": ["Ethyl pivalate", "Propanoic acid, 2,2-dimethyl-, ethyl ester", "Pivalic acid, ethyl ester", "Ethyl pivalate", "Ethyl 2,2-dimethylpropionate", "Ethyl 2,2-dimethylpropanoate", "Ethyl trimethylacetate", "NSC 17494"], "SMILES": "C(C(C)(C)C)(OCC)=O", "physical_data": {"Molecular Weight": "130.18", "Molecular Formula": "C7H14O2", "Boiling Point": "118.4 \u00b0C", "Melting Point": "-89.5 \u00b0C", "Density": "0.8555 g/cm\u00b3 @ Temp: 20 \u00b0C"}}