{"cas_no": "3938-96-3", "cn_name": "\u7532\u6c27\u57fa\u4e59\u9178\u4e59\u916f", "en_name": ["Ethyl 2-methoxyacetate", "Acetic acid, 2-methoxy-, ethyl ester", "Acetic acid, methoxy-, ethyl ester", "Ethyl 2-methoxyacetate", "Ethyl methoxyacetate", "Methoxyacetic acid ethyl ester", "NSC 245101", "Ethyl 2-(methyloxy)acetate"], "SMILES": "C(COC)(OCC)=O", "physical_data": {"Molecular Weight": "118.13", "Molecular Formula": "C5H10O3", "Boiling Point": "142 \u00b0C", "Density": "1.0118 g/cm\u00b3 @ Temp: 15 \u00b0C"}}