{"cas_no": "3939-13-7", "cn_name": "3-\u6c30\u57fa-2-\u6c1f\u5421\u5576", "en_name": ["2-Fluoro-3-pyridinecarbonitrile", "3-Pyridinecarbonitrile, 2-fluoro-", "Nicotinonitrile, 2-fluoro-", "2-Fluoro-3-pyridinecarbonitrile", "2-Fluoronicotinonitrile", "3-Cyano-2-fluoropyridine"], "SMILES": "C(#N)C1=C(F)N=CC=C1", "physical_data": {"Molecular Weight": "122.10", "Molecular Formula": "C6H3FN2", "Melting Point": "30 \u00b0C"}}