{"cas_no": "3939-01-3", "cn_name": "1-\u82c4\u57fa-3-\u7532\u6c27\u7fb0\u57fa-4-\u54cc\u5576\u916e\u76d0\u9178\u76d0", "en_name": ["3-Piperidinecarboxylic acid, 4-oxo-1-(phenylmethyl)-, methyl ester, hydrochloride (1:1)", "3-Piperidinecarboxylic acid, 4-oxo-1-(phenylmethyl)-, methyl ester, hydrochloride (1:1)", "Nipecotic acid, 1-benzyl-4-oxo-, methyl ester, hydrochloride", "3-Piperidinecarboxylic acid, 4-oxo-1-(phenylmethyl)-, methyl ester, hydrochloride", "1-Benzyl-4-oxo-3-piperidinecarboxylic acid methyl ester monohydrochloride", "1-Benzyl-3-(methoxycarbonyl)-4-oxopiperidine monohydrochloride", "Methyl 1-benzyl-4-oxo-3-piperidinecarboxylate hydrochloride", "1-Benzyl-4-oxopiperidine-3-carboxylic acid methyl ester hydrochloride", "1-Benzyl-3-carbomethoxy-4-piperidone hydrochloride"], "SMILES": "C(OC)(=O)C1C(=O)CCN(CC2=CC=CC=C2)C1.Cl", "physical_data": {"Molecular Weight": "", "Molecular Formula": "C14H17NO3.ClH", "Melting Point": "173-174 \u00b0C (decomp)"}}