{"cas_no": "3939-09-1", "cn_name": "2,4-\u4e8c\u6c1f\u82ef\u8148", "en_name": ["2,4-Difluorobenzonitrile", "Benzonitrile, 2,4-difluoro-", "2,4-Difluorobenzonitrile"], "SMILES": "C(#N)C1=C(F)C=C(F)C=C1", "physical_data": {"Molecular Weight": "139.10", "Molecular Formula": "C7H3F2N", "Melting Point": "46 \u00b0C"}}