{"cas_no": "394-70-7", "cn_name": "4-\u6c1f\u55b9\u5549", "en_name": ["4-Fluoroquinoline", "Quinoline, 4-fluoro-", "4-Fluoroquinoline"], "SMILES": "FC=1C2=C(N=CC1)C=CC=C2", "physical_data": {"Molecular Weight": "147.15", "Molecular Formula": "C9H6FN", "Boiling Point": "119 \u00b0C @ Press: 30 Torr", "Melting Point": "180-195 \u00b0C"}}