{"cas_no": "394-31-0", "cn_name": "2-\u6c28\u57fa-5-\u7f9f\u57fa\u82ef\u7532\u9178", "en_name": ["5-Hydroxyanthranilic acid", "Benzoic acid, 2-amino-5-hydroxy-", "Anthranilic acid, 5-hydroxy-", "2-Amino-5-hydroxybenzoic acid", "5-Hydroxyanthranilic acid", "Diabeton", "Glyklaside"], "SMILES": "C(O)(=O)C1=C(N)C=CC(O)=C1", "physical_data": {"Molecular Weight": "153.14", "Molecular Formula": "C7H7NO3", "Melting Point": "231 \u00b0C"}}