{"cas_no": "394-28-5", "cn_name": "2-\u6eb4-5-\u6c1f\u82ef\u7532\u9178", "en_name": ["2-Bromo-5-fluorobenzoic acid", "Benzoic acid, 2-bromo-5-fluoro-", "2-Bromo-5-fluorobenzoic acid", "5-Fluoro-2-bromobenzoic acid"], "SMILES": "C(O)(=O)C1=C(Br)C=CC(F)=C1", "physical_data": {"Molecular Weight": "219.01", "Molecular Formula": "C7H4BrFO2", "Melting Point": "151 \u00b0C"}}