{"cas_no": "394-47-8", "cn_name": "2-\u6c1f\u82ef\u8148", "en_name": ["2-Fluorobenzonitrile", "Benzonitrile, 2-fluoro-", "Benzonitrile, o-fluoro-", "2-Fluorobenzonitrile", "o-Fluorobenzonitrile", "o-Cyanofluorobenzene", "2-Cyanofluorobenzene", "2-Fluorocyanobenzene", "NSC 88278", "2-Fluorobenzenenitrile"], "SMILES": "C(#N)C1=C(F)C=CC=C1", "physical_data": {"Molecular Weight": "121.11", "Molecular Formula": "C7H4FN", "Boiling Point": "90 \u00b0C @ Press: 21 Torr", "Melting Point": "-13.7 \u00b0C"}}