{"cas_no": "394-32-1", "cn_name": "5-\u6c1f-2-\u7f9f\u57fa\u82ef\u4e59\u916e", "en_name": ["5\u2032-Fluoro-2\u2032-hydroxyacetophenone", "Ethanone, 1-(5-fluoro-2-hydroxyphenyl)-", "Acetophenone, 5\u2032-fluoro-2\u2032-hydroxy-", "1-(5-Fluoro-2-hydroxyphenyl)ethanone", "5\u2032-Fluoro-2\u2032-hydroxyacetophenone", "2-Acetyl-4-fluorophenol", "NSC 46624", "2\u2032-Hydroxy-5\u2032-fluoroacetophenone", "3-Fluoro-6-hydroxyacetophenone", "1-(5-Fluoro-2-hydroxyphenyl)ethan-1-one"], "SMILES": "C(C)(=O)C1=C(O)C=CC(F)=C1", "physical_data": {"Molecular Weight": "154.14", "Molecular Formula": "C8H7FO2", "Boiling Point": "94-99 \u00b0C @ Press: 12 Torr", "Melting Point": "56-56.5 \u00b0C"}}