{"cas_no": "394-25-2", "cn_name": "4-\u7532\u6c27\u57fa-3-\u785d\u57fa\u4e09\u6c1f\u7532\u57fa\u82ef", "en_name": ["4-Methoxy-3-nitrobenzotrifluoride", "Benzene, 1-methoxy-2-nitro-4-(trifluoromethyl)-", "Anisole, 2-nitro-4-(trifluoromethyl)-", "1-Methoxy-2-nitro-4-(trifluoromethyl)benzene", "4-Methoxy-3-nitrobenzotrifluoride", "2-Nitro-4-(trifluoromethyl)anisole", "NSC 88325", "1-Methoxy-2-nitro-4-trifluoromethylbenzene"], "SMILES": "N(=O)(=O)C1=C(OC)C=CC(C(F)(F)F)=C1", "physical_data": {"Molecular Weight": "221.13", "Molecular Formula": "C8H6F3NO3", "Boiling Point": "90-95 \u00b0C @ Press: 0.5 Torr", "Melting Point": "47-49 \u00b0C"}}