{"cas_no": "394-29-6", "cn_name": "5-\u6c2f-2-\u6c1f\u82ef(\u7532)\u9170\u6c2f", "en_name": ["5-Chloro-2-fluorobenzoyl chloride", "Benzoyl chloride, 5-chloro-2-fluoro-", "5-Chloro-2-fluorobenzoyl chloride", "3-Chloro-6-fluorobenzoyl chloride"], "SMILES": "C(Cl)(=O)C1=C(F)C=CC(Cl)=C1", "physical_data": {"Molecular Weight": "193.00", "Molecular Formula": "C7H3Cl2FO", "Boiling Point": "103-104 \u00b0C @ Press: 15 Torr"}}