{"cas_no": "394-39-8", "cn_name": "2-\u6c1f-4-\u6c2f\u82ef\u7532\u9170\u6c2f", "en_name": ["4-Chloro-2-fluorobenzoyl chloride", "Benzoyl chloride, 4-chloro-2-fluoro-", "4-Chloro-2-fluorobenzoyl chloride", "2-Fluoro-4-chlorobenzoyl chloride"], "SMILES": "C(Cl)(=O)C1=C(F)C=C(Cl)C=C1", "physical_data": {"Molecular Weight": "193.00", "Molecular Formula": "C7H3Cl2FO", "Boiling Point": "105-106 \u00b0C @ Press: 14 Torr"}}