{"cas_no": "394-46-7", "cn_name": "2-\u6c1f\u82ef\u4e59\u70ef", "en_name": ["1-Ethenyl-2-fluorobenzene", "Benzene, 1-ethenyl-2-fluoro-", "Styrene, o-fluoro-", "1-Ethenyl-2-fluorobenzene", "6-Fluorostyrene", "o-Fluorostyrene", "2-Fluorostyrene", "1-Fluoro-2-vinylbenzene"], "SMILES": "C(=C)C1=C(F)C=CC=C1", "physical_data": {"Molecular Weight": "122.14", "Molecular Formula": "C8H7F", "Boiling Point": "32-34 \u00b0C @ Press: 3 Torr", "Density": "1.030 g/cm\u00b3 @ Temp: 20 \u00b0C"}}