{"cas_no": "394-35-4", "cn_name": "\u90bb\u6c1f\u82ef\u7532\u9178\u7532\u916f", "en_name": ["Benzoic acid, 2-fluoro-, methyl ester", "Benzoic acid, 2-fluoro-, methyl ester", "Benzoic acid, o-fluoro-, methyl ester", "Methyl 2-fluorobenzoate", "Methyl o-fluorobenzoate", "2-Fluorobenzoic acid methyl ester", "NSC 96624"], "SMILES": "C(OC)(=O)C1=C(F)C=CC=C1", "physical_data": {"Molecular Weight": "154.14", "Molecular Formula": "C8H7FO2", "Boiling Point": "207 \u00b0C", "Melting Point": "-20 \u00b0C"}}