{"cas_no": "394-33-2", "cn_name": "2-\u785d\u57fa-4-\u6c1f\u82ef\u915a", "en_name": ["4-Fluoro-2-nitrophenol", "Phenol, 4-fluoro-2-nitro-", "4-Fluoro-2-nitrophenol", "2-Nitro-4-fluorophenol", "2-Hydroxy-5-fluoronitrobenzene", "NSC 10283"], "SMILES": "N(=O)(=O)C1=C(O)C=CC(F)=C1", "physical_data": {"Molecular Weight": "157.10", "Molecular Formula": "C6H4FNO3", "Melting Point": "73.7 \u00b0C"}}