{"cas_no": "394-27-4", "cn_name": "4-\u4e59\u9170\u80fa\u57fa-4-\u6c1f\u82ef\u7532\u9178", "en_name": ["2-(Acetylamino)-4-fluorobenzoic acid", "Benzoic acid, 2-(acetylamino)-4-fluoro-", "Anthranilic acid, N-acetyl-4-fluoro-", "2-(Acetylamino)-4-fluorobenzoic acid", "N-Acetyl-4-fluoroanthranilic acid", "2-Acetamido-4-fluorobenzoic acid"], "SMILES": "C(O)(=O)C1=C(NC(C)=O)C=C(F)C=C1", "physical_data": {"Molecular Weight": "197.16", "Molecular Formula": "C9H8FNO3", "Melting Point": "212.5-214.5 \u00b0C"}}