{"cas_no": "394-30-9", "cn_name": "5-\u6c2f-2-\u6c1f\u82ef\u7532\u9178", "en_name": ["5-Chloro-2-fluorobenzoic acid", "Benzoic acid, 5-chloro-2-fluoro-", "5-Chloro-2-fluorobenzoic acid", "2-Fluoro-5-chlorobenzoic acid"], "SMILES": "C(O)(=O)C1=C(F)C=CC(Cl)=C1", "physical_data": {"Molecular Weight": "174.56", "Molecular Formula": "C7H4ClFO2", "Melting Point": "168 \u00b0C"}}