{"cas_no": "394-01-4", "cn_name": "4-\u6c1f-2-\u785d\u57fa\u82ef\u7532\u9178", "en_name": ["4-Fluoro-2-nitrobenzoic acid", "Benzoic acid, 4-fluoro-2-nitro-", "4-Fluoro-2-nitrobenzoic acid", "2-Nitro-4-fluorobenzoic acid"], "SMILES": "C(O)(=O)C1=C(N(=O)=O)C=C(F)C=C1", "physical_data": {"Molecular Weight": "185.11", "Molecular Formula": "C7H4FNO4", "Melting Point": "130 \u00b0C"}}