{"cas_no": "394-68-3", "cn_name": "8-\u6c1f\u55b9\u5549", "en_name": ["8-Fluoroquinoline", "Quinoline, 8-fluoro-", "8-Fluoroquinoline", "NSC 51786"], "SMILES": "FC=1C2=C(C=CC1)C=CC=N2", "physical_data": {"Molecular Weight": "147.15", "Molecular Formula": "C9H6FN", "Boiling Point": "148 \u00b0C @ Press: 30 Torr", "Density": "1.215 g/cm\u00b3 @ Temp: 25 \u00b0C"}}