{"cas_no": "394-41-2", "cn_name": "3-\u6c1f-4-\u785d\u57fa\u82ef\u915a", "en_name": ["3-Fluoro-4-nitrophenol", "Phenol, 3-fluoro-4-nitro-", "3-Fluoro-4-nitrophenol", "4-Nitro-3-fluorophenol", "2-Fluoro-4-hydroxy-1-nitrobenzene"], "SMILES": "N(=O)(=O)C1=C(F)C=C(O)C=C1", "physical_data": {"Molecular Weight": "157.10", "Molecular Formula": "C6H4FNO3", "Melting Point": "91.5-92.5 \u00b0C"}}