{"cas_no": "394-69-4", "cn_name": "5-\u6c1f\u55b9\u5549", "en_name": ["5-Fluoroquinoline", "Quinoline, 5-fluoro-", "5-Fluoroquinoline"], "SMILES": "FC=1C2=C(C=CC1)N=CC=C2", "physical_data": {"Molecular Weight": "147.15", "Molecular Formula": "C9H6FN", "Boiling Point": "123 \u00b0C @ Press: 30 Torr", "Melting Point": "147 \u00b0C", "Density": "1.197 g/cm\u00b3 @ Temp: 25 \u00b0C"}}