{"cas_no": "3940-27-0", "cn_name": "2-\u6c28\u57fa-3-\u7f9f\u57fa\u4e19\u9178\u4e59\u916f\u76d0\u9178\u76d0", "en_name": ["Serine, ethyl ester, hydrochloride (1:1)", "Serine, ethyl ester, hydrochloride (1:1)", "Serine, ethyl ester, hydrochloride, DL-", "DL-Serine, ethyl ester, hydrochloride", "Serine, ethyl ester, hydrochloride", "NSC 29417"], "SMILES": "C(C(CO)N)(OCC)=O.Cl", "physical_data": {"Molecular Weight": "", "Molecular Formula": "C5H11NO3.ClH", "Melting Point": "94-97 \u00b0C"}}