{"cas_no": "39416-48-3", "cn_name": "\u4e09\u6eb4\u5316\u5421\u5576", "en_name": ["Pyridinium tribromide", "Hydrogen tribromide, compd. with pyridine (1:1)", "Pyridine, (hydrogen tribromide)", "Pyridinium tribromide", "Pyridinium bromide perbromide", "Pyridinium hydrobromide perbromide", "Pyridinium perbromide", "NSC 61191"], "SMILES": "C=1C=CN=CC1.[BrH](Br)Br", "physical_data": {"Molecular Weight": "", "Molecular Formula": "C5H5N.Br3H", "Melting Point": "134 \u00b0C"}}