{"cas_no": "3943-77-9", "cn_name": "3,4-\u4e8c\u7532\u6c27\u57fa\u82ef\u7532\u9178\u4e59\u916f", "en_name": ["Benzoic acid, 3,4-dimethoxy-, ethyl ester", "Benzoic acid, 3,4-dimethoxy-, ethyl ester", "Veratric acid, ethyl ester", "3,4-Dimethoxybenzoic acid ethyl ester", "Ethyl 3,4-dimethoxybenzoate"], "SMILES": "C(OCC)(=O)C1=CC(OC)=C(OC)C=C1", "physical_data": {"Molecular Weight": "210.23", "Molecular Formula": "C11H14O4", "Boiling Point": "295.5 \u00b0C", "Melting Point": "43.5 \u00b0C"}}