{"cas_no": "39432-56-9", "cn_name": "\u523a\u4e94\u52a0\u7519 E", "en_name": ["Eleutheroside E", "\u03b2-D-Glucopyranoside, [(1R,3aR,4S,6aS)-tetrahydro-1H,3H-furo[3,4-c]furan-1,4-diyl]bis(2,6-dimethoxy-4,1-phenylene) bis-", "\u03b2-D-Glucopyranoside, (tetrahydro-1H,3H-furo[3,4-c]furan-1,4-diyl)bis(2,6-dimethoxy-4,1-phenylene) bis-, [1R-(1\u03b1,3a\u03b2,4\u03b2,6a\u03b1)]-", "1H,3H-Furo[3,4-c]furan, \u03b2-D-glucopyranoside deriv.", "[(1R,3aR,4S,6aS)-Tetrahydro-1H,3H-furo[3,4-c]furan-1,4-diyl]bis(2,6-dimethoxy-4,1-phenylene) bis-\u03b2-D-glucopyranoside", "Eleutheroside E", "Syringin E"], "SMILES": "O(C)C=1C=C(C2C3C(C(OC3)C4=CC(OC)=C(OC5OC(CO)C(O)C(O)C5O)C(OC)=C4)CO2)C=C(OC)C1OC6OC(CO)C(O)C(O)C6O", "physical_data": {"Molecular Weight": "742.72", "Molecular Formula": "C34H46O18", "Melting Point": "267-269 \u00b0C"}}