{"cas_no": "3943-97-3", "cn_name": "4-\u7f9f\u57fa\u8089\u6842\u9178\u7532\u916f", "en_name": ["Methyl p-coumarate", "2-Propenoic acid, 3-(4-hydroxyphenyl)-, methyl ester", "Cinnamic acid, p-hydroxy-, methyl ester", "Methyl p-hydroxycinnamate", "Methyl p-coumarate", "Methyl 4-hydroxycinnamate", "4-Hydroxycinnamic acid methyl ester", "p-Hydroxycinnamic acid methyl ester", "p-Coumaric acid methyl ester", "Methyl 4-coumarate", "3-(4-Hydroxyphenyl)-2-propenoic acid methyl ester", "NSC 154578", "Methyl 3-(4-hydroxyphenyl)acrylate", "Methyl 4-hydroxyphenyl acrylate", "M 40446"], "SMILES": "C(=CC(OC)=O)C1=CC=C(O)C=C1", "physical_data": {"Molecular Weight": "178.18", "Molecular Formula": "C10H10O3", "Melting Point": "139-140 \u00b0C"}}