{"cas_no": "3943-89-3", "cn_name": "3,4-\u4e8c\u7f9f\u57fa\u82ef\u7532\u9178\u4e59\u916f", "en_name": ["Ethyl 3,4-dihydroxybenzoate", "Benzoic acid, 3,4-dihydroxy-, ethyl ester", "Protocatechuic acid, ethyl ester", "Ethyl protocatechuate", "3,4-Dihydroxybenzoic acid ethyl ester", "Ethyl 3,4-dihydroxybenzoate", "NSC 619681", "NSC 86130"], "SMILES": "C(OCC)(=O)C1=CC(O)=C(O)C=C1", "physical_data": {"Molecular Weight": "182.17", "Molecular Formula": "C9H10O4", "Melting Point": "129-130 \u00b0C"}}