{"cas_no": "3943-74-6", "cn_name": "\u9999\u8349\u9178\u7532\u916f", "en_name": ["Methyl vanillate", "Benzoic acid, 4-hydroxy-3-methoxy-, methyl ester", "Vanillic acid, methyl ester", "Methyl 3-methoxy-4-hydroxybenzoate", "Methyl vanillate", "Methyl 4-hydroxy-3-methoxybenzoate", "4-Hydroxy-3-methoxybenzoic acid methyl ester", "NSC 74385"], "SMILES": "C(OC)(=O)C1=CC(OC)=C(O)C=C1", "physical_data": {"Molecular Weight": "182.17", "Molecular Formula": "C9H10O4", "Boiling Point": "286 \u00b0C", "Melting Point": "64 \u00b0C"}}