{"cas_no": "3944-72-7", "cn_name": "\u8f9b\u57fa\u78fa\u9178", "en_name": ["1-Octanesulfonic acid", "1-Octanesulfonic acid", "n-Octanesulfonic acid", "Octylsulfonic acid"], "SMILES": "C(CCCCCCC)S(=O)(=O)O", "physical_data": {"Molecular Weight": "194.29", "Molecular Formula": "C8H18O3S", "Melting Point": "103-104 \u00b0C"}}