{"cas_no": "3945-69-5", "cn_name": "4-(4,6-\u4e8c\u7532\u6c27\u57fa\u4e09\u55ea-2-\u57fa)-4-\u7532\u57fa\u5417\u5549\u76d0\u9178\u76d0", "en_name": ["4-(4,6-Dimethoxy-1,3,5-triazin-2-yl)-4-methylmorpholinium chloride", "Morpholinium, 4-(4,6-dimethoxy-1,3,5-triazin-2-yl)-4-methyl-, chloride (1:1)", "Morpholinium, 4-(4,6-dimethoxy-s-triazin-2-yl)-4-methyl-, chloride", "Morpholinium, 4-(4,6-dimethoxy-1,3,5-triazin-2-yl)-4-methyl-, chloride", "4-(4,6-Dimethoxy-s-triazin-2-yl)-4-methylmorpholinium chloride", "4-(4,6-Dimethoxy-1,3,5-triazin-2-yl)-4-methylmorpholinium chloride", "DMTMM", "4-(4,6-Dimethoxy-1,3,5-triazin-2-yl)-4-methylmorpholin-4-ium chloride", "4-(4,6-Dimethoxy-1,3,5-triazin-2-yl)-4-methylmorphonium chloride"], "SMILES": "C[N+]1(CCOCC1)C=2N=C(OC)N=C(OC)N2.[Cl-]", "physical_data": {"Molecular Weight": "", "Molecular Formula": "C10H17N4O3.Cl", "Melting Point": "120-122 \u00b0C (decomp)"}}