{"cas_no": "3946-29-0", "cn_name": "3,4'-\u4e8c\u6c2f\u82ef\u4e19\u916e", "en_name": ["3-Chloro-1-(4-chlorophenyl)-1-propanone", "1-Propanone, 3-chloro-1-(4-chlorophenyl)-", "Propiophenone, 3,4\u2032-dichloro-", "3-Chloro-1-(4-chlorophenyl)-1-propanone", "2-Chloroethyl p-chlorophenyl ketone", "p,\u03b2-Dichloropropiophenone", "3,4\u2032-Dichloropropiophenone", "p-Chloro-\u03b2-chloropropiophenone", "\u03b2,p-Dichloropropiophenone", "2-Chloroethyl 4-chlorophenyl ketone", "2-(4-Chlorobenzoyl)ethyl chloride", "\u03b2-Chloro-p-chloropropiophenone", "NSC 36074", "3-Chloro-4\u2032-chloropropiophenone"], "SMILES": "C(CCCl)(=O)C1=CC=C(Cl)C=C1", "physical_data": {"Molecular Weight": "203.07", "Molecular Formula": "C9H8Cl2O", "Melting Point": "49-50 \u00b0C"}}