{"cas_no": "3946-32-5", "cn_name": "\u8f9b\u4e8c\u9178\u5355\u7532\u916f", "en_name": ["1-Methyl octanedioate", "Octanedioic acid, 1-methyl ester", "Suberic acid, monomethyl ester", "Octanedioic acid, monomethyl ester", "Suberic acid, methyl ester", "1-Methyl octanedioate", "Monomethyl suberate", "Methyl 7-carboxyheptanoate", "Methyl 1,8-octanedionate", "8-Methoxy-8-oxooctanoic acid"], "SMILES": "C(CCCCCCC(O)=O)(OC)=O", "physical_data": {"Molecular Weight": "188.22", "Molecular Formula": "C9H16O4", "Boiling Point": "146-150 \u00b0C @ Press: 1 Torr", "Melting Point": "17-19 \u00b0C", "Density": "1.047 g/cm\u00b3 @ Temp: 20 \u00b0C"}}