{"cas_no": "3947-62-4", "cn_name": "2,3,4,6-\u56db-O-\u4e59\u9170\u57fa-\u0392-D-\u5421\u5583\u8461\u8404\u7cd6", "en_name": ["\u03b2-D-Glucopyranose, 2,3,4,6-tetraacetate", "\u03b2-D-Glucopyranose, 2,3,4,6-tetraacetate", "Glucopyranose, 2,3,4,6-tetraacetate, \u03b2-D-", "Glucopyranose, 2,3,4,6-tetraacetate", "2,3,4,6-Tetra-O-acetyl-\u03b2-D-glucopyranose", "\u03b2-D-Glucose 2,3,4,6-tetraacetate", "Acetic acid (2R,3R,4S,5R,6R)-4,5-diacetoxy-6-(acetoxymethyl)-2-hydroxytetrahydropyran-3-yl ester"], "SMILES": "O(C(C)=O)C1C(OC(C)=O)C(COC(C)=O)OC(O)C1OC(C)=O", "physical_data": {"Molecular Weight": "348.30", "Molecular Formula": "C14H20O10", "Boiling Point": "~0.130 \u00b0C (approx) @ Press: 5 x 10<sup>-4</sup> Torr", "Melting Point": "118-128 \u00b0C"}}