{"cas_no": "394735-22-9", "cn_name": "4-\u6c28\u57fa-1-\u73af\u4e01\u57fa-3,4-\u4e8c\u6c27\u4ee3\u4e01\u70f7-2-\u57fa\u6c28\u57fa\u7532\u9178\u53d4\u4e01\u916f", "en_name": ["1,1-Dimethylethyl N-[3-amino-1-(cyclobutylmethyl)-2-hydroxy-3-oxopropyl]carbamate", "Carbamic acid, N-[3-amino-1-(cyclobutylmethyl)-2-hydroxy-3-oxopropyl]-, 1,1-dimethylethyl ester", "Carbamic acid, [3-amino-1-(cyclobutylmethyl)-2-hydroxy-3-oxopropyl]-, 1,1-dimethylethyl ester", "1,1-Dimethylethyl N-[3-amino-1-(cyclobutylmethyl)-2-hydroxy-3-oxopropyl]carbamate", "3-(tert-Butoxycarbonylamino)-4-cyclobutyl-2-hydroxybutanamide", "tert-Butyl 4-amino-1-cyclobutyl-3-hydroxy-4-oxobutan-2-ylcarbamate"], "SMILES": "C(CC1CCC1)(NC(OC(C)(C)C)=O)C(C(N)=O)O", "physical_data": {"Molecular Weight": "272.34", "Molecular Formula": "C13H24N2O4", "Melting Point": "173-177 \u00b0C"}}