{"cas_no": "39478-78-9", "cn_name": "2-\u7532\u57fa-5-\u6eb4\u82ef\u80fa", "en_name": ["5-Bromo-2-methylbenzenamine", "Benzenamine, 5-bromo-2-methyl-", "5-Bromo-2-methylbenzenamine", "2-Amino-4-bromotoluene", "2-Methyl-5-bromoaniline", "5-Bromo-2-methylaniline", "3-Bromo-6-methylaniline", "5-Bromo-2-methylphenylamine"], "SMILES": "NC1=C(C)C=CC(Br)=C1", "physical_data": {"Molecular Weight": "186.05", "Molecular Formula": "C7H8BrN", "Boiling Point": "139 \u00b0C @ Press: 17 Torr", "Melting Point": "33 \u00b0C"}}