{"cas_no": "3947-65-7", "cn_name": "\u65b0\u9709\u80fa", "en_name": ["Neamine", "D-Streptamine, 2-deoxy-4-O-(2,6-diamino-2,6-dideoxy-\u03b1-D-glucopyranosyl)-", "Neomycin A", "2-Deoxy-4-O-(2,6-diamino-2,6-dideoxy-\u03b1-D-glucopyranosyl)-D-streptamine", "Neamine", "Neamin", "Negamicin", "Nebramycin X", "Dekamycin V", "O-2,6-Diamino-2,6-dideoxy-\u03b1-D-glucopyranosyl-(1\u21924)-1,3-diamino-1,2,3-trideoxy-D-myo-inositol", "ST 7 (neomycin A)", "(+)-Neamine"], "SMILES": "O(C1C(O)C(O)C(N)CC1N)C2OC(CN)C(O)C(O)C2N", "physical_data": {"Molecular Weight": "322.36", "Molecular Formula": "C12H26N4O6", "Melting Point": "256 \u00b0C (decomp)"}}