{"cas_no": "39482-87-6", "cn_name": "1,3-\u53cc\u4e09\u6c1f\u4e19\u57fa-1,1,3,3-\u56db\u7532\u57fa\u4e8c\u7845\u4ee3\u6c27\u70f7", "en_name": ["N-[Dimethyl(3,3,3-trifluoropropyl)silyl]-1,1-dimethyl-1-(3,3,3-trifluoropropyl)silanamine", "Silanamine, N-[dimethyl(3,3,3-trifluoropropyl)silyl]-1,1-dimethyl-1-(3,3,3-trifluoropropyl)-", "N-[Dimethyl(3,3,3-trifluoropropyl)silyl]-1,1-dimethyl-1-(3,3,3-trifluoropropyl)silanamine", "Di(trifluoropropyl)tetramethyldisilazane", "1,3-Bis(3,3,3-trifluoropropyl)tetramethyl-disilazane", "1,3-Bis(3,3,3-trifluoropropyl)-1,1,3,3-tetramethyldisilazane", "3-[[[Dimethyl(3,3,3-trifluoropropyl)silyl]amino]-dimethylsilyl]-1,1,1-trifluoropropane"], "SMILES": "N([Si](CCC(F)(F)F)(C)C)[Si](CCC(F)(F)F)(C)C", "physical_data": {"Molecular Weight": "325.44", "Molecular Formula": "C10H21F6NSi2", "Boiling Point": "76-79 \u00b0C @ Press: 10 Torr", "Density": "1.11 g/cm\u00b3"}}