{"cas_no": "39499-34-8", "cn_name": "5-\u7532\u57fa\u5f02\u6076\u5511-3-\u7fb0\u9170\u6c2f", "en_name": ["5-Methyl-3-isoxazolecarbonyl chloride", "3-Isoxazolecarbonyl chloride, 5-methyl-", "5-Methyl-3-isoxazolecarbonyl chloride", "5-Methylisoxazol-3-carbonyl chloride"], "SMILES": "C(Cl)(=O)C=1C=C(C)ON1", "physical_data": {"Molecular Weight": "145.54", "Molecular Formula": "C5H4ClNO2", "Boiling Point": "88 \u00b0C @ Press: 18 Torr"}}