{"cas_no": "3949-36-8", "cn_name": "3-\u4e59\u9170\u57fa\u7f9f\u57fa\u9999\u8c46\u7d20", "en_name": ["3-Acetylcoumarin", "2H-1-Benzopyran-2-one, 3-acetyl-", "Coumarin, 3-acetyl-", "3-Acetyl-2H-1-benzopyran-2-one", "3-Acetylcoumarin", "3-Acetylbenzopyran-2-one", "NSC 31678", "3-Acetyl-2H-chromen-2-one", "3-Acetyl-chromen-2-one", "3-Acetylchromen-2-one"], "SMILES": "C(C)(=O)C1=CC=2C(OC1=O)=CC=CC2", "physical_data": {"Molecular Weight": "188.18", "Molecular Formula": "C11H8O3", "Melting Point": "122 \u00b0C"}}