{"cas_no": "395-44-8", "cn_name": "2-(\u4e09\u6c1f\u7532\u57fa)\u82c4\u6eb4", "en_name": ["2-Trifluoromethylbenzyl bromide", "Benzene, 1-(bromomethyl)-2-(trifluoromethyl)-", "o-Xylene, \u03b1\u2032-bromo-\u03b1,\u03b1,\u03b1-trifluoro-", "1-(Bromomethyl)-2-(trifluoromethyl)benzene", "\u03b1\u2032-Bromo-\u03b1,\u03b1,\u03b1-trifluoro-o-xylene", "o-(Trifluoromethyl)benzyl bromide", "2-Trifluoromethylbenzyl bromide"], "SMILES": "C(Br)C1=C(C(F)(F)F)C=CC=C1", "physical_data": {"Molecular Weight": "239.03", "Molecular Formula": "C8H6BrF3", "Boiling Point": "72 \u00b0C @ Press: 7.5 Torr"}}