{"cas_no": "395-64-2", "cn_name": "2,5-\u53cc(\u4e09\u6c1f\u7532\u57fa)\u82ef\u7532\u919b", "en_name": ["2,5-Bis(trifluoromethyl)benzaldehyde", "Benzaldehyde, 2,5-bis(trifluoromethyl)-", "2,5-Bis(trifluoromethyl)benzaldehyde"], "SMILES": "C(=O)C1=C(C(F)(F)F)C=CC(C(F)(F)F)=C1", "physical_data": {"Molecular Weight": "242.12", "Molecular Formula": "C9H4F6O", "Boiling Point": "170-172 \u00b0C"}}