{"cas_no": "395-33-5", "cn_name": "\u5bf9\u6c1f\u6241\u6843\u9178", "en_name": ["4-Fluoromandelic acid", "Benzeneacetic acid, 4-fluoro-\u03b1-hydroxy-", "Mandelic acid, p-fluoro-", "4-Fluoro-\u03b1-hydroxybenzeneacetic acid", "p-Fluoromandelic acid", "4-Fluoromandelic acid", "2-Hydroxy-2-(4-fluorophenyl)acetic acid", "(\u00b1)-p-Fluoromandelic acid", "(\u00b1)-4\u2032-Fluoromandelic acid", "2-(4-Fluorophenyl)-2-hydroxyacetic acid", "NSC 73990", "DL-4-Fluoromandelic acid", "(4-Fluorophenyl)hydroxyacetic acid"], "SMILES": "C(C(O)=O)(O)C1=CC=C(F)C=C1", "physical_data": {"Molecular Weight": "170.14", "Molecular Formula": "C8H7FO3", "Melting Point": "135 \u00b0C"}}