{"cas_no": "395-82-4", "cn_name": "4-\u6c1f-2-\u7532\u6c27\u57fa\u82ef\u7532\u9178", "en_name": ["4-Fluoro-2-methoxybenzoic acid", "Benzoic acid, 4-fluoro-2-methoxy-", "4-Fluoro-2-methoxybenzoic acid"], "SMILES": "O(C)C1=C(C(O)=O)C=CC(F)=C1", "physical_data": {"Molecular Weight": "170.14", "Molecular Formula": "C8H7FO3", "Boiling Point": "93 \u00b0C @ Press: 10 Torr", "Melting Point": "136 \u00b0C"}}