{"cas_no": "395-81-3", "cn_name": "5-\u6c1f-2-\u785d\u57fa\u82ef\u7532\u919b", "en_name": ["5-Fluoro-2-nitrobenzaldehyde", "Benzaldehyde, 5-fluoro-2-nitro-", "5-Fluoro-2-nitrobenzaldehyde", "3-Fluoro-6-nitrobenzaldehyde", "2-Nitro-5-fluorobenzaldehyde"], "SMILES": "C(=O)C1=C(N(=O)=O)C=CC(F)=C1", "physical_data": {"Molecular Weight": "169.11", "Molecular Formula": "C7H4FNO3", "Melting Point": "94-95 \u00b0C"}}