{"cas_no": "39515-40-7", "cn_name": "\u82ef\u6c30\u83ca\u916f", "en_name": ["Cyphenothrin", "Cyclopropanecarboxylic acid, 2,2-dimethyl-3-(2-methyl-1-propen-1-yl)-, cyano(3-phenoxyphenyl)methyl ester", "Cyclopropanecarboxylic acid, 2,2-dimethyl-3-(2-methyl-1-propenyl)-, cyano(3-phenoxyphenyl)methyl ester", "\u03b1-Cyano-m-phenoxybenzyl 2,2-dimethyl-3-(2-methylpropenyl)cyclopropanecarboxylate", "SP 2703", "Cyphenothrin", "S 2703", "\u03b1-Cyano-3-phenoxybenzyl chrysanthemate", "S 2703 forte", "Gokilaht", "Chifenothrine", "Rarappu MC", "2,2-Dimethyl-3-(2-methyl-1-propenyl)cyclopropane carboxylic acid cyano(3-phenoxyphenyl)methyl ester", "Cyano-3-phenoxybenzyl 2,2-dimethyl-3-(2-methyl-1-propenyl)cyclopropanecarboxylate", "d-trans-Cyphenothrin"], "SMILES": "C(OC(C#N)C1=CC(OC2=CC=CC=C2)=CC=C1)(=O)C3C(C=C(C)C)C3(C)C", "physical_data": {"Molecular Weight": "375.46", "Molecular Formula": "C24H25NO3", "Boiling Point": "154 \u00b0C", "Melting Point": "&lt;25 \u00b0C"}}