{"cas_no": "39512-50-0", "cn_name": "1-(2-\u6c2f\u82ef\u57fa)\u54cc\u55ea", "en_name": ["1-(2-Chlorophenyl)piperazine", "Piperazine, 1-(2-chlorophenyl)-", "Piperazine, 1-(o-chlorophenyl)-", "1-(2-Chlorophenyl)piperazine", "1-(o-Chlorophenyl)piperazine", "N-(2-Chlorophenyl)piperazine", "N-(o-Chlorophenyl)piperazine"], "SMILES": "ClC1=C(N2CCNCC2)C=CC=C1", "physical_data": {"Molecular Weight": "196.68", "Molecular Formula": "C10H13ClN2", "Boiling Point": "123-124 \u00b0C @ Press: 2 Torr", "Melting Point": "152-154 \u00b0C"}}