{"cas_no": "39512-49-7", "cn_name": "4-(4-\u6c2f\u82ef\u57fa)-4-\u7f9f\u57fa\u54cc\u5576", "en_name": ["4-(4-Chlorophenyl)-4-hydroxypiperidine", "4-Piperidinol, 4-(4-chlorophenyl)-", "4-Piperidinol, 4-(p-chlorophenyl)-", "4-(4-Chlorophenyl)-4-piperidinol", "4-(p-Chlorophenyl)-4-piperidinol", "4-(p-Chlorophenyl)-4-hydroxypiperidine", "4-(4-Chlorophenyl)-4-hydroxypiperidine", "4-Hydroxy-4-(4-chlorophenyl)piperidine", "4-Hydroxy-4-(p-chlorophenyl)piperidine", "4-(4\u2032-Chlorophenyl)piperidin-4-ol", "NSC 89568"], "SMILES": "OC1(CCNCC1)C2=CC=C(Cl)C=C2", "physical_data": {"Molecular Weight": "211.69", "Molecular Formula": "C11H14ClNO", "Melting Point": "134.4-136.0 \u00b0C"}}