{"cas_no": "39511-08-5", "cn_name": "3-(2-\u544b\u5583)\u4e19\u70ef\u919b", "en_name": ["(2E)-3-(2-Furanyl)-2-propenal", "2-Propenal, 3-(2-furanyl)-, (2E)-", "2-Propenal, 3-(2-furanyl)-, (E)-", "(2E)-3-(2-Furanyl)-2-propenal", "trans-\u03b2-2-Furylacrolein", "(E)-3-(2-Furyl)acrolein", "(E)-3-(2-Furyl)-2-propenal", "trans-3-(2-Furyl)acrolein", "trans-3-(2-Furanyl)propenal", "(2E)-3-(2-Furyl)acrolein", "(E)-3-(Furan-2-yl)-2-propenal", "(2E)-3-(2-Furyl)prop-2-enal", "trans-3-(2-Furyl)-2-propenal", "(E)-3-(Furan-2-yl)propenal", "(E)-3-(Furan-2-yl)acrylaldehyde", "(E)-3-(2-Furanyl)acrolein", "trans-3-(2-Furanyl)-2-propenal", "(E)-3-(Furan-2-yl)-2-propenal", "(E)-3-(Furan-2-yl)acrolein", "(E)-3-(2-Furanyl)-2-propenal"], "SMILES": "C(=CC=O)C1=CC=CO1", "physical_data": {"Molecular Weight": "122.12", "Molecular Formula": "C7H6O2", "Melting Point": "49 \u00b0C"}}