{"cas_no": "39512-51-1", "cn_name": "1-(2-\u7532\u57fa\u82ef\u57fa)\u54cc\u55ea", "en_name": ["1-(2-Methylphenyl)piperazine", "Piperazine, 1-(2-methylphenyl)-", "1-(2-Methylphenyl)piperazine", "N-(o-Tolyl)piperazine", "N-(2-Methylphenyl)piperazine", "1-o-Tolylpiperazine", "4-(2-Methylphenyl)piperazine", "1-(o-Methylphenyl)piperazine", "1-(2-Tolyl)piperazine", "4-o-Tolylpiperazine", "N-2-Tolylpiperazine", "NSC 28784", "PAL 169"], "SMILES": "CC1=C(N2CCNCC2)C=CC=C1", "physical_data": {"Molecular Weight": "176.26", "Molecular Formula": "C11H16N2", "Boiling Point": "160-161 \u00b0C @ Press: 10 Torr", "Melting Point": "156-158 \u00b0C"}}