{"cas_no": "39515-51-0", "cn_name": "\u95f4\u82ef\u6c27\u57fa\u82ef\u7532\u919b", "en_name": ["3-Phenoxybenzaldehyde", "Benzaldehyde, 3-phenoxy-", "3-Phenoxybenzaldehyde", "m-Phenoxybenzaldehyde", "m-(Phenyloxy)benzaldehyde", "m-Phenoxybenzaldehyde", "5-Phenoxybenzaldehyde"], "SMILES": "O(C1=CC(C=O)=CC=C1)C2=CC=CC=C2", "physical_data": {"Molecular Weight": "198.22", "Molecular Formula": "C13H10O2", "Boiling Point": "140 \u00b0C", "Melting Point": "153 \u00b0C"}}