{"cas_no": "3952-18-9", "cn_name": "CUPRESSUFLAVONE TRIHYDRATE", "en_name": ["Cupressuflavone", "[8,8\u2032-Bi-4H-1-benzopyran]-4,4\u2032-dione, 5,5\u2032,7,7\u2032-tetrahydroxy-2,2\u2032-bis(4-hydroxyphenyl)-", "8,8\u2032\u2032-Biflavone, 4\u2032,4\u2032\u2032\u2032,5,5\u2032\u2032,7,7\u2032\u2032-hexahydroxy-", "5,5\u2032,7,7\u2032-Tetrahydroxy-2,2\u2032-bis(4-hydroxyphenyl)[8,8\u2032-bi-4H-1-benzopyran]-4,4\u2032-dione", "Cupressuflavone", "Neorhusflavone", "8,8\u2032\u2032-Bisbaicalein"], "SMILES": "OC=1C(=C2C(C(=O)C=C(O2)C3=CC=C(O)C=C3)=C(O)C1)C4=C5C(C(=O)C=C(O5)C6=CC=C(O)C=C6)=C(O)C=C4O", "physical_data": {"Molecular Weight": "538.46", "Molecular Formula": "C30H18O10", "Melting Point": "300 \u00b0C"}}