{"cas_no": "39524-08-8", "cn_name": "\u6728\u901a\u7682\u7519 D", "en_name": ["Asperosaponin VI", "Olean-12-en-28-oic acid, 3-(\u03b1-L-arabinopyranosyloxy)-23-hydroxy-, 6-O-\u03b2-D-glucopyranosyl-\u03b2-D-glucopyranosyl ester, (3\u03b2,4\u03b1)-", "Akebia saponin D", "Tauroside St-G0-1", "Hederagenin 3-O-\u03b1-L-arabinopyranosyl-28-\u03b2-D-glucopyranosyl(1\u21926)-\u03b2-D-glucopyranoside", "Asperosaponin VI", "3-O-\u03b1-L-Arabinopyranosylhederagenin 28-O-\u03b2-D-glucopyranosyl-(1\u21926)-\u03b2-D-glucopyranoside", "Leiyemudanoside A"], "SMILES": "C(OC1OC(COC2OC(CO)C(O)C(O)C2O)C(O)C(O)C1O)(=O)C34C(C=5C(C)(CC3)C6(C)C(CC5)C7(C)C(CC6)C(CO)(C)C(OC8C(O)C(O)C(O)CO8)CC7)CC(C)(C)CC4", "physical_data": {"Molecular Weight": "929.10", "Molecular Formula": "C47H76O18", "Melting Point": "234-235 \u00b0C"}}