{"cas_no": "39520-24-6", "cn_name": "\u5f02\u4e01\u57fa\u4e19\u4e8c\u9178\u4e8c\u7532\u916f", "en_name": ["1,3-Dimethyl 2-(2-methylpropyl)propanedioate", "Propanedioic acid, 2-(2-methylpropyl)-, 1,3-dimethyl ester", "Propanedioic acid, (2-methylpropyl)-, dimethyl ester", "1,3-Dimethyl 2-(2-methylpropyl)propanedioate", "Dimethyl isobutylmalonate", "Dimethyl 2-isobutylmalonate"], "SMILES": "C(C(OC)=O)(C(OC)=O)CC(C)C", "physical_data": {"Molecular Weight": "188.22", "Molecular Formula": "C9H16O4", "Boiling Point": "101 \u00b0C @ Press: 13 Torr"}}