{"cas_no": "3952-98-5", "cn_name": "\u9ed1\u4ecb\u5b50\u786b\u82f7\u9178\u94be", "en_name": ["Sinigrin", "\u03b2-D-Glucopyranose, 1-thio-, 1-[N-(sulfooxy)-3-butenimidate], potassium salt (1:1)", "Sinigrin", "Glucopyranose, 1-thio-, 1-(3-butenohydroximate) NO-(hydrogen sulfate), monopotassium salt, \u03b2-D-", "\u03b2-D-Glucopyranose, 1-thio-, 1-[N-(sulfooxy)-3-butenimidate], monopotassium salt", "Glucopyranose, 1-thio-, 1-(3-butenoate), oxime, O-sulfate, potassium salt, \u03b2-D-", "Allyl glucosinolate potassium", "Sinigrine", "NSC 407279", "NSC 90774"], "SMILES": "S(C(=NOS(=O)(=O)O)CC=C)C1OC(CO)C(O)C(O)C1O.[K]", "physical_data": {"Molecular Weight": "", "Molecular Formula": "C10H17NO9S2.K", "Melting Point": "127 \u00b0C"}}