{"cas_no": "3952-78-1", "cn_name": "\u831c\u7d20\u7edc\u5408\u6307\u793a\u5242", "en_name": ["Alizarin complexone", "Glycine, N-(carboxymethyl)-N-[(9,10-dihydro-3,4-dihydroxy-9,10-dioxo-2-anthracenyl)methyl]-", "Acetic acid, [[(3,4-dihydroxy-2-anthraquinonyl)methyl]imino]di-", "N-(Carboxymethyl)-N-[(9,10-dihydro-3,4-dihydroxy-9,10-dioxo-2-anthracenyl)methyl]glycine", "Alizarin complexon", "Alizarin Fluorine Blue", "Alizarine Complexone", "1,2-Dihydroxyanthraquinone-3-methylamine-N,N-diacetic acid", "3-Aminomethylalizarin-N,N-diacetic acid", "Alizarin complexone", "Alizarine complexon", "Alizarine Fluorine Blue", "Alizarin complexan", "Alizarine complexan", "NSC 293056", "N-(3,4-Dihydroxy-2-anthraquinonylmethyl)iminodiacetic acid", "2,2\u2032-(((3,4-Dihydroxy-9,10-dioxo-9,10-dihydroanthracen-2-yl)methyl)azanediyl)diacetic acid", "2,2\u2032-[[(3,4-Dihydroxy-9,10-dioxo-9,10-dihydroanthracen-2-yl)methyl]imino]diacetic acid", "2-[Carboxymethyl-[(3,4-dihydroxy-9,10-dioxoanthracen-2-yl)methyl]amino]acetic acid", "Alizarin-3-methyliminodiacetic acid"], "SMILES": "O=C1C=2C(C(=O)C=3C1=CC=CC3)=CC(CN(CC(O)=O)CC(O)=O)=C(O)C2O", "physical_data": {"Molecular Weight": "385.32", "Molecular Formula": "C19H15NO8", "Melting Point": "184 \u00b0C"}}