{"cas_no": "3953-10-4", "cn_name": "\u4e19\u70ef\u9178-2-\u4e59\u57fa\u4e01\u916f", "en_name": ["2-Ethylbutyl acrylate", "2-Propenoic acid, 2-ethylbutyl ester", "Acrylic acid, 2-ethylbutyl ester", "1-Butanol, 2-ethyl-, acrylate", "2-Ethylbutyl acrylate", "NSC 6121", "2-Ethylbutyl prop-2-enoate"], "SMILES": "C(COC(C=C)=O)(CC)CC", "physical_data": {"Molecular Weight": "156.22", "Molecular Formula": "C9H16O2", "Boiling Point": "10 \u00b0C", "Melting Point": "-70 \u00b0C", "Density": "0.8964 g/cm\u00b3"}}