{"cas_no": "39538-68-6", "cn_name": "2-\u7532\u6c27\u57fa-4-\u7532\u57fa\u82ef\u80fa", "en_name": ["2-Methoxy-4-methylaniline", "Benzenamine, 2-methoxy-4-methyl-", "2-Methoxy-4-methylbenzenamine", "2-Methoxy-p-toluidine", "2-Methoxy-4-methylaniline", "4-Methyl-o-anisidine", "4-Methyl-2-methoxyaniline", "(2-Methoxy-4-methylphenyl)amine"], "SMILES": "O(C)C1=C(N)C=CC(C)=C1", "physical_data": {"Molecular Weight": "137.18", "Molecular Formula": "C8H11NO", "Boiling Point": "109 \u00b0C @ Press: 11 Torr"}}