{"cas_no": "39537-23-0", "cn_name": "L-\u4e19\u6c28\u9170-L-\u8c37\u6c28\u9170\u80fa", "en_name": ["L-Alanyl-L-glutamine", "L-Glutamine, L-alanyl-", "L-Glutamine, N2-L-alanyl-", "Glutamine, N2-L-alanyl-", "L-Alanyl-L-glutamine", "Dipeptiven", "Dipeptamin", "L-Ala-L-Gln", "72: PN: US20070066537 PAGE: 17 claimed protein", "GlutaMAX", "Glutamax I", "Alanyl-glutamine", "96: PN: WO2011146121 PAGE: 115 claimed sequence", "Sustamine", "63: PN: WO2020097235 SEQID: 292 claimed protein", "GlutaMAX I", "13: PN: WO2022111997 PAGE: 22 claimed sequence", "GlutaMax I"], "SMILES": "C(NC(C(C)N)=O)(CCC(N)=O)C(O)=O", "physical_data": {"Molecular Weight": "217.22", "Molecular Formula": "C8H15N3O4", "Melting Point": "204-205 \u00b0C"}}