{"cas_no": "39546-32-2", "cn_name": "\u54cc\u5576-4-\u7532\u9170\u80fa", "en_name": ["4-Piperidinecarboxamide", "4-Piperidinecarboxamide", "Isonipecotamide", "4-Carbamoylpiperidine", "4-(Aminocarbonyl)piperidine", "4-Piperidylcarboxamide", "Piperidine-4-carboxylic acid amide", "4-Carboxamidopiperidine", "NSC 82318"], "SMILES": "C(N)(=O)C1CCNCC1", "physical_data": {"Molecular Weight": "128.17", "Molecular Formula": "C6H12N2O", "Melting Point": "152-153 \u00b0C"}}