{"cas_no": "39549-31-0", "cn_name": "6-\u6c28\u57fa-2,4-\u4e8c\u6c2f-3-\u7532\u57fa\u82ef\u915a\u76d0\u9178\u76d0", "en_name": ["Phenol, 6-amino-2,4-dichloro-3-methyl-, hydrochloride (1:1)", "Phenol, 6-amino-2,4-dichloro-3-methyl-, hydrochloride (1:1)", "Phenol, 6-amino-2,4-dichloro-3-methyl-, hydrochloride", "m-Cresol, 6-amino-2,4-dichloro-, hydrochloride", "2-Amino-4,6-dichloro-5-methylphenol hydrochloride", "3,5-Dichloro-6-hydroxy-4-methylaniline hydrochloride", "PC 87", "6-Amino-2,4-dichloro-3-methylphenol hydrochloride"], "SMILES": "CC1=C(Cl)C(O)=C(N)C=C1Cl.Cl", "physical_data": {"Molecular Weight": "", "Molecular Formula": "C7H7Cl2NO.ClH", "Melting Point": "&gt;230 \u00b0C"}}