{"cas_no": "3956-07-8", "cn_name": "4-\u7898\u82ef\u7532\u9170\u80fa", "en_name": ["4-Iodobenzamide", "Benzamide, 4-iodo-", "Benzamide, p-iodo-", "4-Iodobenzamide", "p-Iodobenzamide", "NSC 136972"], "SMILES": "C(N)(=O)C1=CC=C(I)C=C1", "physical_data": {"Molecular Weight": "247.03", "Molecular Formula": "C7H6INO", "Melting Point": "213-216 \u00b0C"}}