{"cas_no": "39562-25-9", "cn_name": "2-(3-\u785d\u57fa\u4e9a\u82c4\u57fa)\u4e59\u9170\u4e59\u9178\u5f02\u4e19\u916f", "en_name": ["1-Methylethyl 2-[(3-nitrophenyl)methylene]-3-oxobutanoate", "Butanoic acid, 2-[(3-nitrophenyl)methylene]-3-oxo-, 1-methylethyl ester", "1-Methylethyl 2-[(3-nitrophenyl)methylene]-3-oxobutanoate", "Isopropyl 2-(3-nitrobenzylidene)acetoacetate", "Isopropyl 2-(m-nitrobenzylidene)acetoacetate"], "SMILES": "C(=C(C(OC(C)C)=O)C(C)=O)C1=CC(N(=O)=O)=CC=C1", "physical_data": {"Molecular Weight": "277.27", "Molecular Formula": "C14H15NO5", "Melting Point": "94 \u00b0C"}}