{"cas_no": "39562-70-4", "cn_name": "\u5c3c\u7fa4\u5730\u5e73", "en_name": ["Nitrendipine", "3,5-Pyridinedicarboxylic acid, 1,4-dihydro-2,6-dimethyl-4-(3-nitrophenyl)-, 3-ethyl 5-methyl ester", "3,5-Pyridinedicarboxylic acid, 1,4-dihydro-2,6-dimethyl-4-(3-nitrophenyl)-, ethyl methyl ester", "BAY-e 5009", "Nitrendipine", "Bayotensin", "Baypress", "(\u00b1)-BAY E 5009", "(\u00b1)-Nitrendipine", "Nitrepin", "Nitrendipin", "Bylotensin", "Deiten", "Nidrel", "Cardif", "Baylotensin", "MeSH ID: D009568"], "SMILES": "C(OCC)(=O)C=1C(C(C(OC)=O)=C(C)NC1C)C2=CC(N(=O)=O)=CC=C2", "physical_data": {"Molecular Weight": "360.36", "Molecular Formula": "C18H20N2O6", "Melting Point": "158 \u00b0C"}}