{"cas_no": "39562-58-8", "cn_name": "3-\u7f9f\u57fa\u4e01\u919b\u7f29\u4e8c\u7532\u9187", "en_name": ["4,4-Dimethoxy-2-butanol", "2-Butanol, 4,4-dimethoxy-", "Butyraldehyde, 3-hydroxy-, dimethyl acetal", "4,4-Dimethoxy-2-butanol", "3-Hydroxybutyraldehyde dimethyl acetal", "Aldol dimethyl acetal"], "SMILES": "C(CC(C)O)(OC)OC", "physical_data": {"Molecular Weight": "134.17", "Molecular Formula": "C6H14O3", "Boiling Point": "71-76 \u00b0C @ Press: 9 Torr", "Density": "0.9894 g/cm\u00b3 @ Temp: 18 \u00b0C"}}