{"cas_no": "39565-07-6", "cn_name": "5,7-\u4e8c\u7532\u57fa[1,8]\u8418\u5576-2-\u80fa", "en_name": ["2-Amino-5,7-dimethyl-1,8-naphthyridine", "1,8-Naphthyridin-2-amine, 5,7-dimethyl-", "1,8-Naphthyridine, 7-amino-2,4-dimethyl-", "5,7-Dimethyl-1,8-naphthyridin-2-amine", "2-Amino-5,7-dimethyl-1,8-naphthyridine", "7-Amino-2,4-dimethyl-1,8-naphthyridine", "NSC 118392", "2,4-Dimethyl-7-amino-1,8-naphthyridine"], "SMILES": "CC=1C2=C(N=C(C)C1)N=C(N)C=C2", "physical_data": {"Molecular Weight": "173.21", "Molecular Formula": "C10H11N3", "Melting Point": "215 \u00b0C"}}