{"cas_no": "39562-16-8", "cn_name": "2-[(3-\u785d\u57fa\u82ef\u57fa)\u4e9a\u7532\u57fa]-3-\u6c27\u4ee3\u4e01\u9178\u4e59\u916f", "en_name": ["Ethyl 2-[(3-nitrophenyl)methylene]-3-oxobutanoate", "Butanoic acid, 2-[(3-nitrophenyl)methylene]-3-oxo-, ethyl ester", "Cinnamic acid, \u03b1-acetyl-m-nitro-, ethyl ester", "Ethyl 2-[(3-nitrophenyl)methylene]-3-oxobutanoate", "Ethyl 2-(3-nitrobenzylidene)acetoacetate", "Ethyl \u03b1-acetyl-\u03b2-(m-nitrophenyl)acrylate", "Ethyl 2-(m-nitrobenzylidene)acetoacetate", "Ethyl 3-nitrobenzylideneacetoacetate", "NSC 637307", "Ethyl 2-(3\u2032-nitrobenzylidene)acetoacetate"], "SMILES": "C(=C(C(OCC)=O)C(C)=O)C1=CC(N(=O)=O)=CC=C1", "physical_data": {"Molecular Weight": "263.25", "Molecular Formula": "C13H13NO5", "Melting Point": "110-112 \u00b0C"}}