{"cas_no": "39562-17-9", "cn_name": "2-(3-\u785d\u57fa\u82ef\u4e9a\u7532\u57fa)\u4e59\u9170\u4e59\u9178\u7532\u916f", "en_name": ["Methyl 2-[(3-nitrophenyl)methylene]-3-oxobutanoate", "Butanoic acid, 2-[(3-nitrophenyl)methylene]-3-oxo-, methyl ester", "Methyl 2-[(3-nitrophenyl)methylene]-3-oxobutanoate", "Methyl 2-(3-nitrobenzylidene)acetoacetate", "(3-Nitrobenzylidene)acetoacetic acid methyl ester", "Methyl \u03b1-acetyl-\u03b2-(m-nitrophenyl)acrylate", "Methyl 2-(m-nitrobenzylidene)acetoacetate", "Methyl 3-nitrobenzylideneacetoacetate", "2-(3-Nitrobenzylidene)acetoacetic acid methyl ester"], "SMILES": "C(=C(C(OC)=O)C(C)=O)C1=CC(N(=O)=O)=CC=C1", "physical_data": {"Molecular Weight": "249.22", "Molecular Formula": "C12H11NO5", "Melting Point": "151-154 \u00b0C"}}