{"cas_no": "39562-27-1", "cn_name": "3-\u916e\u57fa-2-\u90bb\u785d\u4e9a\u82c4\u57fa-\u4e01\u9170\u82ef\u80fa", "en_name": ["Methyl 2-(2\u2032-nitrobenzylidene)acetoacetate", "Butanoic acid, 2-[(2-nitrophenyl)methylene]-3-oxo-, methyl ester", "Methyl 2-(2-nitrobenzylidene)acetoacetate", "Methyl (o-nitrobenzylidene)acetoacetate", "Methyl 2-(o-nitrobenzylidene)acetoacetate", "Methyl 2-(2\u2032-nitrobenzylidene)acetoacetate", "2-(2-Nitrobenzylidene)-3-oxobutanoic acid methyl ester"], "SMILES": "C(=C(C(OC)=O)C(C)=O)C1=C(N(=O)=O)C=CC=C1", "physical_data": {"Molecular Weight": "249.22", "Molecular Formula": "C12H11NO5", "Melting Point": "100-101 \u00b0C"}}