{"cas_no": "39565-00-9", "cn_name": "2-\u4e59\u9170-5-\u785d\u57fa\u567b\u5429", "en_name": ["1-(5-Nitro-2-thienyl)ethanone", "Ethanone, 1-(5-nitro-2-thienyl)-", "Ketone, methyl 5-nitro-2-thienyl", "1-(5-Nitro-2-thienyl)ethanone", "2-Acetyl-5-nitrothiophene", "5-Nitro-2-acetylthiophene", "1-(5-Nitrothiophen-2-yl)ethan-1-one", "1-(5-Nitrothiophen-2-yl)ethanone"], "SMILES": "C(C)(=O)C=1SC(N(=O)=O)=CC1", "physical_data": {"Molecular Weight": "171.17", "Molecular Formula": "C6H5NO3S", "Melting Point": "105-106 \u00b0C"}}