{"cas_no": "39577-43-0", "cn_name": "1-(3-\u6c2f\u82ef\u57fa)-4-(3-\u6c2f\u4e19\u57fa)\u54cc\u55ea", "en_name": ["1-(3-Chlorophenyl)-4-(3-chloropropyl)piperazine", "Piperazine, 1-(3-chlorophenyl)-4-(3-chloropropyl)-", "Piperazine, 1-(m-chlorophenyl)-4-(3-chloropropyl)-", "1-(3-Chlorophenyl)-4-(3-chloropropyl)piperazine", "3-[4-(3-Chlorophenyl)piperazin-1-yl]propyl chloride", "NSC 520934", "1-[4-(3-Chlorophenyl)piperazin-1-yl]-3-chloropropane", "1-(3-Chloropropyl)-4-(3-chlorophenyl)piperazine"], "SMILES": "ClC=1C=C(N2CCN(CCCCl)CC2)C=CC1", "physical_data": {"Molecular Weight": "273.20", "Molecular Formula": "C13H18Cl2N2", "Boiling Point": "157-162 \u00b0C @ Press: 0.5 Torr"}}