{"cas_no": "3958-57-4", "cn_name": "3-\u785d\u57fa\u6eb4\u82c4", "en_name": ["3-Nitrobenzyl bromide", "Benzene, 1-(bromomethyl)-3-nitro-", "Toluene, \u03b1-bromo-m-nitro-", "1-(Bromomethyl)-3-nitrobenzene", "m-Nitrobenzyl bromide", "\u03b1-Bromo-m-nitrotoluene", "3-Nitrobenzyl bromide", "m-Nitro-\u03b1-bromotoluene", "\u03b1-Bromo-3-nitrotoluene", "3-(Bromomethyl)nitrobenzene", "m-(Bromomethyl)nitrobenzene", "m-Nitrobenzyl bromide", "3-(Bromomethyl)-1-nitrobenzene", "NSC 66499"], "SMILES": "N(=O)(=O)C1=CC(CBr)=CC=C1", "physical_data": {"Molecular Weight": "216.03", "Molecular Formula": "C7H6BrNO2", "Boiling Point": "160-162 \u00b0C @ Press: 14 Torr", "Melting Point": "59.3 \u00b0C"}}