{"cas_no": "3958-03-0", "cn_name": "\u56db\u6eb4\u567b\u5429", "en_name": ["Tetrabromothiophene", "Thiophene, 2,3,4,5-tetrabromo-", "Thiophene, tetrabromo-", "2,3,4,5-Tetrabromothiophene", "Tetrabromothiophene", "NSC 65427"], "SMILES": "BrC=1C(Br)=C(Br)SC1Br", "physical_data": {"Molecular Weight": "399.72", "Molecular Formula": "C4Br4S", "Boiling Point": "326 \u00b0C", "Melting Point": "117.5 \u00b0C"}}