{"cas_no": "3958-60-9", "cn_name": "2-\u785d\u57fa\u82c4\u6eb4", "en_name": ["2-Nitrobenzyl bromide", "Benzene, 1-(bromomethyl)-2-nitro-", "Toluene, \u03b1-bromo-o-nitro-", "1-(Bromomethyl)-2-nitrobenzene", "o-Nitrobenzyl bromide", "2-Nitrobenzyl bromide", "\u03b1-Bromo-o-nitrotoluene", "o-(Bromomethyl)nitrobenzene", "NSC 95415"], "SMILES": "C(Br)C1=C(N(=O)=O)C=CC=C1", "physical_data": {"Molecular Weight": "216.03", "Molecular Formula": "C7H6BrNO2", "Melting Point": "42 \u00b0C"}}