{"cas_no": "39593-08-3", "cn_name": "1-(4-\u7532\u57fa\u82ef\u57fa)\u54cc\u55ea", "en_name": ["1-(4-Methylphenyl)piperazine", "Piperazine, 1-(4-methylphenyl)-", "1-(4-Methylphenyl)piperazine", "1-p-Tolylpiperazine", "1-(4-Tolyl)piperazine", "N-p-Tolylpiperazine", "N-4-Tolylpiperazine", "1-(p-Methylphenyl)piperazine", "N-(4-Methylphenyl)piperazine", "4-(4-Methylphenyl)piperazine", "4-(4-Tolyl)piperazine", "NSC 150849"], "SMILES": "CC1=CC=C(C=C1)N2CCNCC2", "physical_data": {"Molecular Weight": "176.26", "Molecular Formula": "C11H16N2", "Boiling Point": "142-143 \u00b0C @ Press: 7 Torr", "Melting Point": "32-33 \u00b0C"}}