{"cas_no": "3959-07-7", "cn_name": "\u5bf9\u6eb4\u82c4\u80fa", "en_name": ["4-Bromobenzenemethanamine", "Benzenemethanamine, 4-bromo-", "Benzylamine, p-bromo-", "4-Bromobenzenemethanamine", "4-Bromobenzylamine", "p-Bromobenzylamine", "p-Bromobenzenemethanamine", "(4-Bromophenyl)methanamine", "1-(4-Bromophenyl)methanamine"], "SMILES": "C(N)C1=CC=C(Br)C=C1", "physical_data": {"Molecular Weight": "186.05", "Molecular Formula": "C7H8BrN", "Boiling Point": "250 \u00b0C", "Melting Point": "20 \u00b0C"}}