{"cas_no": "39590-81-3", "cn_name": "1,1-\u73af\u4e19\u70f7\u4e8c\u7532\u9187", "en_name": ["1,1-Cyclopropanedimethanol", "1,1-Cyclopropanedimethanol", "1,1-Bis(hydroxymethyl)cyclopropane", "1,1-Di(hydroxymethyl)cyclopropane", "2,2-(1,2-Ethylene)-1,3-propanediol", "(1-Hydroxymethylcyclopropyl)methanol", "Cyclopropane-1,1-bis(methanol)", "Cyclopropane-1,1-diyldimethanol"], "SMILES": "C(O)C1(CO)CC1", "physical_data": {"Molecular Weight": "102.13", "Molecular Formula": "C5H10O2", "Boiling Point": "123-127 \u00b0C @ Press: 12 Torr", "Density": "1.0710 g/cm\u00b3 @ Temp: 20 \u00b0C"}}