{"cas_no": "396-01-0", "cn_name": "\u6c28\u82ef\u8776\u5576", "en_name": ["Triamterene", "2,4,7-Pteridinetriamine, 6-phenyl-", "Pteridine, 2,4,7-triamino-6-phenyl-", "6-Phenyl-2,4,7-pteridinetriamine", "SKF 8542", "Ademine", "Ditak", "Dyrenium", "2,4,7-Triamino-6-phenylpteridine", "Triamterene", "Triamteril complex", "Dytac", "6-Phenyl-2,4,7-triaminopteridine", "Triamteren", "Jatropur", "Tri-Span", "Diren", "Noridil", "Pterofen", "Teriam", "Triamteril", "Pterophene", "Taturil", "Diurene", "Teridin", "Dyren", "Triteren", "Triampur", "Urocaudal", "Ademin", "NSC 77625", "MeSH ID: D014223"], "SMILES": "NC=1C2=C(N=C(N)C(=N2)C3=CC=CC=C3)N=C(N)N1", "physical_data": {"Molecular Weight": "253.26", "Molecular Formula": "C12H11N7", "Melting Point": "316 \u00b0C"}}