{"cas_no": "396-30-5", "cn_name": "6-\u6c1f\u55b9\u5549", "en_name": ["6-Fluoroquinoline", "Quinoline, 6-fluoro-", "6-Fluoroquinoline"], "SMILES": "FC1=CC2=C(C=C1)N=CC=C2", "physical_data": {"Molecular Weight": "147.15", "Molecular Formula": "C9H6FN", "Boiling Point": "124 \u00b0C @ Press: 30 Torr", "Density": "1.200 g/cm\u00b3 @ Temp: 25 \u00b0C"}}