{"cas_no": "396-64-5", "cn_name": "3,3'-\u4e8c\u6c1f\u8054\u82ef", "en_name": ["3,3\u2032-Difluoro-1,1\u2032-biphenyl", "1,1\u2032-Biphenyl, 3,3\u2032-difluoro-", "Biphenyl, 3,3\u2032-difluoro-", "3,3\u2032-Difluoro-1,1\u2032-biphenyl", "3,3\u2032-Difluorobiphenyl", "m,m\u2032-Difluorobiphenyl", "3,3\u2032-Difluorodiphenyl", "1-Fluoro-3-(3-fluorophenyl)benzene"], "SMILES": "FC=1C=C(C=CC1)C2=CC(F)=CC=C2", "physical_data": {"Molecular Weight": "190.19", "Molecular Formula": "C12H8F2", "Boiling Point": "130 \u00b0C", "Melting Point": "7-8 \u00b0C", "Density": "1.372 g/cm\u00b3 @ Temp: -10 \u00b0C"}}