{"cas_no": "39608-31-6", "cn_name": "\u82c4\u6c27\u7fb0\u9170\u57fa\u808c\u6c28\u9178", "en_name": ["N-Methyl-N-[(phenylmethoxy)carbonyl]glycine", "Glycine, N-methyl-N-[(phenylmethoxy)carbonyl]-", "Sarcosine, N-carboxy-, N-benzyl ester", "N-Methyl-N-[(phenylmethoxy)carbonyl]glycine", "N-(Benzyloxycarbonyl)sarcosine", "N-Carbobenzoxysarcosine", "N-(Phenylmethoxycarbonyl)sarcosine", "N-Benzyloxycarbonyl-N-methylglycine", "Cbz-Sar-OH", "NSC 97943", "[(Benzyloxycarbonyl)(methyl)amino]acetic acid", "2-[(Benzyloxycarbonyl)(methyl)amino]acetic acid", "2-[Methyl(phenylmethoxycarbonyl)amino]acetic acid"], "SMILES": "C(OC(N(CC(O)=O)C)=O)C1=CC=CC=C1", "physical_data": {"Molecular Weight": "223.23", "Molecular Formula": "C11H13NO4", "Melting Point": "54 \u00b0C"}}