{"cas_no": "39603-24-2", "cn_name": "5,7-\u4e8c\u7532\u57fa\u975b\u7ea2", "en_name": ["5,7-Dimethylisatin", "1H-Indole-2,3-dione, 5,7-dimethyl-", "Isatin, 5,7-dimethyl-", "5,7-Dimethyl-1H-indole-2,3-dione", "5,7-Dimethylisatin", "5,7-Dimethylindoline-2,3-dione", "5,7-Dimethyl-2,3-dihydro-2,3-dioxoindole"], "SMILES": "CC1=C2C(C(=O)C(=O)N2)=CC(C)=C1", "physical_data": {"Molecular Weight": "175.18", "Molecular Formula": "C10H9NO2", "Melting Point": "242 \u00b0C"}}