{"cas_no": "39614-78-3", "cn_name": "6-\u4e59\u6c27\u57fa\u5421\u55ea-3-\u80fa", "en_name": ["6-Ethoxy-3-pyridazinamine", "3-Pyridazinamine, 6-ethoxy-", "Pyridazine, 3-amino-6-ethoxy-", "6-Ethoxy-3-pyridazinamine", "6-Ethoxypyridazin-3-amine"], "SMILES": "O(CC)C1=CC=C(N)N=N1", "physical_data": {"Molecular Weight": "139.16", "Molecular Formula": "C6H9N3O", "Melting Point": "163-166 \u00b0C"}}