{"cas_no": "39615-79-7", "cn_name": "\u4e8c\u7532\u57fa\u6c30\u4e59\u9170\u8132", "en_name": ["N-(Cyanoacetyl)-N,N\u2032-dimethylurea", "Acetamide, 2-cyano-N-methyl-N-[(methylamino)carbonyl]-", "2-Cyano-N-methyl-N-[(methylamino)carbonyl]acetamide", "N-(Cyanoacetyl)-N,N\u2032-dimethylurea", "N,N\u2032-Dimethyl-N-cyanoacetylurea", "1-(2-Cyanoacetyl)-1,3-dimethylurea"], "SMILES": "N(C(CC#N)=O)(C(NC)=O)C", "physical_data": {"Molecular Weight": "155.15", "Molecular Formula": "C6H9N3O2", "Melting Point": "77 \u00b0C"}}