{"cas_no": "39627-84-4", "cn_name": "2-\u8418\u80bc", "en_name": ["2-Naphthoic acid hydrazide", "2-Naphthalenecarboxylic acid, hydrazide", "2-Naphthoic acid hydrazide", "\u03b2-Naphthoylhydrazine", "\u03b2-Naphthoic acid hydrazide", "2-Naphthoylhydrazine", "2-Naphthoylhydrazide"], "SMILES": "C(NN)(=O)C1=CC2=C(C=C1)C=CC=C2", "physical_data": {"Molecular Weight": "186.21", "Molecular Formula": "C11H10N2O", "Melting Point": "147.5 \u00b0C"}}