{"cas_no": "39629-88-4", "cn_name": "1-(4-\u7f9f\u57fa-\u82ef\u57fa)-5-\u6c27\u4ee3-\u5421\u54af\u70f7-3-\u7fa7\u9178", "en_name": ["1-(4-Hydroxyphenyl)-5-oxo-3-pyrrolidinecarboxylic acid", "3-Pyrrolidinecarboxylic acid, 1-(4-hydroxyphenyl)-5-oxo-", "3-Pyrrolidinecarboxylic acid, 1-(p-hydroxyphenyl)-5-oxo-", "1-(4-Hydroxyphenyl)-5-oxo-3-pyrrolidinecarboxylic acid", "1-[4-Hydroxyphenyl]-5-oxopyrrolidine-3-carboxylic acid"], "SMILES": "O=C1N(CC(C(O)=O)C1)C2=CC=C(O)C=C2", "physical_data": {"Molecular Weight": "221.21", "Molecular Formula": "C11H11NO4", "Melting Point": "201-202 \u00b0C"}}