{"cas_no": "39627-98-0", "cn_name": "N-(2,6-\u4e8c\u7532\u57fa\u82ef\u57fa)-2-\u5421\u5576\u7532\u9170\u80fa", "en_name": ["N-(2,6-Dimethylphenyl)-2-pyridinecarboxamide", "2-Pyridinecarboxamide, N-(2,6-dimethylphenyl)-", "2\u2032,6\u2032-Picolinoxylidide", "N-(2,6-Dimethylphenyl)-2-pyridinecarboxamide"], "SMILES": "N(C(=O)C1=CC=CC=N1)C2=C(C)C=CC=C2C", "physical_data": {"Molecular Weight": "226.27", "Molecular Formula": "C14H14N2O", "Melting Point": "104 \u00b0C"}}