{"cas_no": "39629-87-3", "cn_name": "1-(4-\u6c2f-\u82ef\u57fa)-5-\u6c27\u4ee3-\u5421\u54af\u70f7-3-\u7fa7\u9178", "en_name": ["1-(4-Chlorophenyl)-5-oxo-3-pyrrolidinecarboxylic acid", "3-Pyrrolidinecarboxylic acid, 1-(4-chlorophenyl)-5-oxo-", "3-Pyrrolidinecarboxylic acid, 1-(p-chlorophenyl)-5-oxo-", "1-(4-Chlorophenyl)-5-oxo-3-pyrrolidinecarboxylic acid"], "SMILES": "O=C1N(CC(C(O)=O)C1)C2=CC=C(Cl)C=C2", "physical_data": {"Molecular Weight": "239.65", "Molecular Formula": "C11H10ClNO3", "Melting Point": "150-151 \u00b0C"}}