{"cas_no": "3962-66-1", "cn_name": "19-\u53bb\u7532\u57fa-5(10)-\u96c4\u70ef\u4e8c\u916e", "en_name": ["Estr-5(10)-ene-3,17-dione", "Estr-5(10)-ene-3,17-dione"], "SMILES": "CC12C(C3C(C4=C(CC3)CC(=O)CC4)CC1)CCC2=O", "physical_data": {"Molecular Weight": "272.38", "Molecular Formula": "C18H24O2", "Melting Point": "144-146 \u00b0C"}}