{"cas_no": "39637-74-6", "cn_name": "(1S)-(-)-\u83b0\u70f7\u9170\u6c2f", "en_name": ["(-)-Camphanoyl chloride", "2-Oxabicyclo[2.2.1]heptane-1-carbonyl chloride, 4,7,7-trimethyl-3-oxo-, (1S,4R)-", "2-Oxabicyclo[2.2.1]heptane-1-carbonyl chloride, 4,7,7-trimethyl-3-oxo-, (1S)-", "(1S,4R)-4,7,7-Trimethyl-3-oxo-2-oxabicyclo[2.2.1]heptane-1-carbonyl chloride", "Camphanoyl chloride", "(-)-Camphanoyl chloride", "Camphanic acid chloride", "(1S,4R)-\u03c9-Camphanoyl chloride", "(-)-Camphanic acid chloride", "(1S)-(-)-Camphanoyl chloride", "(1S)-(-)-Camphanic chloride", "(1S)-(-)-Camphanic acid chloride", "(-)-Camphanic chloride", "(1S,4R)-(-)-Camphanic acid chloride", "(1S)-(-)-Camphanoyl chloride", "(-)-(S)-Camphanyl chloride", "(1S)-(-)-\u03c9-Camphanic chloride", "(-)-(1S,4R)-Camphanoyl chloride", "(S)-Camphanoyl chloride", "(-)-(1S)-Camphanoyl chloride", "(S)-Camphanic acid chloride", "(1S)-Camphanoyl chloride", "(-)-Camphanyl chloride", "(1S)-(-)-Camphanyl chloride"], "SMILES": "C(Cl)(=O)C12C(C)(C)C(C)(C(=O)O1)CC2", "physical_data": {"Molecular Weight": "216.66", "Molecular Formula": "C10H13ClO3", "Melting Point": "70-71 \u00b0C"}}