{"cas_no": "39635-11-5", "cn_name": "3,4-\u4e8c\u7f9f\u57fa\u82ef\u9170\u80bc", "en_name": ["3,4-Dihydroxybenzoic acid hydrazide", "Benzoic acid, 3,4-dihydroxy-, hydrazide", "Protocatechuic acid, hydrazide", "3,4-Dihydroxybenzoic acid hydrazide", "3,4-Dihydroxybenzoylhydrazine", "3,4-Dihydroxybenzoyl hydrazide", "3,4-Dihydroxybenzohydrazide"], "SMILES": "C(NN)(=O)C1=CC(O)=C(O)C=C1", "physical_data": {"Molecular Weight": "168.15", "Molecular Formula": "C7H8N2O3", "Melting Point": "260 \u00b0C (decomp)"}}