{"cas_no": "3963-62-0", "cn_name": "2,2-\u4e8c\u82ef\u57fa\u4e59\u80fa", "en_name": ["2,2-Diphenylethylamine", "Benzeneethanamine, \u03b2-phenyl-", "Ethylamine, 2,2-diphenyl-", "\u03b2-Phenylbenzeneethanamine", "Ethanamine, 2,2-diphenyl-", "2,2-Diphenethylamine", "2,2-Diphenylethylamine", "2,2-Diphenylethanamine", "IEM 2009", "\u03b2,\u03b2-Diphenylethylamine", "NSC 27209", "2,2-Diphenylethan-1-amine"], "SMILES": "C(CN)(C1=CC=CC=C1)C2=CC=CC=C2", "physical_data": {"Molecular Weight": "197.28", "Molecular Formula": "C14H15N", "Boiling Point": "170 \u00b0C @ Press: 11 Torr", "Melting Point": "38 \u00b0C"}}