{"cas_no": "3964-18-9", "cn_name": "2,3-\u4e8c\u7532\u57fa-2,3-\u4e8c\u785d\u57fa\u4e01\u70f7", "en_name": ["2,3-Dimethyl-2,3-dinitrobutane", "Butane, 2,3-dimethyl-2,3-dinitro-", "2,3-Dimethyl-2,3-dinitrobutane", "2,3-Dinitro-2,3-dimethylbutane", "NSC 1156"], "SMILES": "C(C(N(=O)=O)(C)C)(N(=O)=O)(C)C", "physical_data": {"Molecular Weight": "176.17", "Molecular Formula": "C6H12N2O4", "Melting Point": "208.4-209 \u00b0C"}}