{"cas_no": "39648-67-4", "cn_name": "R-\u8054\u8418\u915a\u78f7\u9178\u916f", "en_name": ["(-)-1,1\u2032-Binaphthyl-2,2\u2032-diyl hydrogen phosphate", "Dinaphtho[2,1-d:1\u2032,2\u2032-f][1,3,2]dioxaphosphepin, 4-hydroxy-, 4-oxide, (11bR)-", "Dinaphtho[2,1-d:1\u2032,2\u2032-f][1,3,2]dioxaphosphepin, 4-hydroxy-, 4-oxide, (R)-", "(R)-(-)-1,1\u2032-Binaphthyl-2,2\u2032-diyl hydrogen phosphate", "(-)-4-Hydroxydinaphtho[2,1-d:1\u2032,2\u2032-f][1,3,2]dioxaphosphepin 4-oxide", "(-)-1,1\u2032-Binaphthyl-2,2\u2032-diyl hydrogen phosphate", "(-)-1,1\u2032-Dinaphthyl-2,2\u2032-diyl hydrogen phosphate", "(R)-(-)-BNDHP", "(R)-1,1\u2032-Binaphthyl-2,2\u2032-diyl hydrogen phosphate", "(R)-1,1\u2032-Bi-2-naphthol-2,2\u2032-diyl hydrogen phosphate", "(R)-(-)-Binaphthyl-2,2\u2032-diyl hydrogen phosphate", "(R)-BNPPA", "(R)-1,1\u2032-Binaphthyl-2,2\u2032-diyl hydrogen phosphate", "(R)-1,1\u2032-Binaphthalene-2,2\u2032-diyl hydrogen phosphate"], "SMILES": "O=P1(O)OC2=C(C=3C=4C(C=CC3O1)=CC=CC4)C=5C(C=C2)=CC=CC5", "physical_data": {"Molecular Weight": "348.29", "Molecular Formula": "C20H13O4P", "Melting Point": "220 \u00b0C"}}