{"cas_no": "3964-57-6", "cn_name": "3-\u6c2f-4-\u7f9f\u57fa\u82ef\u7532\u9178\u7532\u916f", "en_name": ["Methyl 3-chloro-4-hydroxybenzoate", "Benzoic acid, 3-chloro-4-hydroxy-, methyl ester", "Methyl 3-chloro-4-hydroxybenzoate", "3-Chloro-4-hydroxybenzoic acid methyl ester", "NSC 210795"], "SMILES": "C(OC)(=O)C1=CC(Cl)=C(O)C=C1", "physical_data": {"Molecular Weight": "186.59", "Molecular Formula": "C8H7ClO3", "Melting Point": "108-110 \u00b0C"}}