{"cas_no": "3964-52-1", "cn_name": "2-\u6c2f-4-\u6c28\u57fa\u82ef\u915a", "en_name": ["4-Amino-2-chlorophenol", "Phenol, 4-amino-2-chloro-", "4-Amino-2-chlorophenol", "2-Chloro-4-aminophenol", "3-Chloro-4-hydroxyaniline", "m-Chloro-p-hydroxyaniline", "(3-Chloro-4-hydroxyphenyl)amine", "2-Chloro-p-aminophenol"], "SMILES": "ClC1=C(O)C=CC(N)=C1", "physical_data": {"Molecular Weight": "143.57", "Molecular Formula": "C6H6ClNO", "Melting Point": "162 \u00b0C"}}