{"cas_no": "3964-81-6", "cn_name": "\u963f\u624e\u4ed6\u5576", "en_name": ["Azatadine", "5H-Benzo[5,6]cyclohepta[1,2-b]pyridine, 6,11-dihydro-11-(1-methyl-4-piperidinylidene)-", "5H-Benzo[5,6]cyclohepta[1,2-b]pyridine, 6,11-dihydro-11-(1-methyl-4-piperidylidene)-", "6,11-Dihydro-11-(1-methyl-4-piperidinylidene)-5H-benzo[5,6]cyclohepta[1,2-b]pyridine", "Azatadine", "6,11-Dihydro-11-(1-methyl-4-piperidylidene)-5H-benzo[5,6]cyclohepta-[1,2-b]pyridine"], "SMILES": "CN1CCC(=C2C=3C(CCC=4C2=NC=CC4)=CC=CC3)CC1", "physical_data": {"Molecular Weight": "290.40", "Molecular Formula": "C20H22N2", "Melting Point": "124-126 \u00b0C"}}