{"cas_no": "3964-58-7", "cn_name": "3-\u6c2f-4-\u7f9f\u57fa\u82ef\u7532\u9178", "en_name": ["3-Chloro-4-hydroxybenzoic acid", "Benzoic acid, 3-chloro-4-hydroxy-", "3-Chloro-4-hydroxybenzoic acid", "4-Hydroxy-3-chlorobenzoic acid", "m-Chloro-p-hydroxybenzoic acid", "NSC 21186"], "SMILES": "C(O)(=O)C1=CC(Cl)=C(O)C=C1", "physical_data": {"Molecular Weight": "172.57", "Molecular Formula": "C7H5ClO3", "Melting Point": "171 \u00b0C"}}