{"cas_no": "3964-54-3", "cn_name": "N-(3-\u6c2f-4-\u7f9f\u82ef\u57fa)\u4e59\u9170\u82ef\u80fa", "en_name": ["3\u2032-Chloro-4\u2032-hydroxyacetanilide", "Acetamide, N-(3-chloro-4-hydroxyphenyl)-", "Acetanilide, 3\u2032-chloro-4\u2032-hydroxy-", "N-(3-Chloro-4-hydroxyphenyl)acetamide", "4-Acetylamino-2-chlorophenol", "2-Chloro-4-acetamidophenol", "2-Chloro-4-acetylaminophenol", "3\u2032-Chloro-4\u2032-hydroxyacetanilide", "4-Acetamido-2-chlorophenol"], "SMILES": "N(C(C)=O)C1=CC(Cl)=C(O)C=C1", "physical_data": {"Molecular Weight": "185.61", "Molecular Formula": "C8H8ClNO2", "Melting Point": "144 \u00b0C"}}