{"cas_no": "3964-56-5", "cn_name": "4-\u6eb4-2-\u6c2f\u82ef\u915a", "en_name": ["4-Bromo-2-chlorophenol", "Phenol, 4-bromo-2-chloro-", "4-Bromo-2-chlorophenol", "2-Chloro-4-bromophenol"], "SMILES": "ClC1=C(O)C=CC(Br)=C1", "physical_data": {"Molecular Weight": "207.45", "Molecular Formula": "C6H4BrClO", "Boiling Point": "233.5 \u00b0C", "Melting Point": "50.5 \u00b0C"}}