{"cas_no": "39652-32-9", "cn_name": "3-\u6c2f-4-\u7532\u57fa\u82ef\u7532\u9187,TECH.,MIXTURE OF \u5f02MERS", "en_name": ["3-Chloro-4-methylbenzenemethanol", "Benzenemethanol, 3-chloro-4-methyl-", "3-Chloro-4-methylbenzenemethanol", "(3-Chloro-4-methylphenyl)methanol", "3-Chloro-4-methylbenzyl alcohol"], "SMILES": "C(O)C1=CC(Cl)=C(C)C=C1", "physical_data": {"Molecular Weight": "156.61", "Molecular Formula": "C8H9ClO", "Boiling Point": "135-136 \u00b0C @ Press: 15 Torr", "Melting Point": "29 \u00b0C"}}