{"cas_no": "3966-32-3", "cn_name": "(R)-(-)-alpha-\u7532\u6c27\u57fa\u82ef\u4e59\u9178", "en_name": ["(-)-Methoxyphenylacetic acid", "Benzeneacetic acid, \u03b1-methoxy-, (\u03b1R)-", "Acetic acid, methoxyphenyl-, (R)-(-)-", "Benzeneacetic acid, \u03b1-methoxy-, (R)-", "(\u03b1R)-\u03b1-Methoxybenzeneacetic acid", "(R)-(-)-O-Methylmandelic acid", "D-(-)-Methoxyphenylacetic acid", "(R)-\u03b1-Methoxyphenylacetic acid", "(R)-O-Methylmandelic acid", "(R)-(-)-\u03b1-Methoxyphenylacetic acid", "(R)-2-Methoxy-2-phenylacetic acid", "(R)-2-Phenyl-2-methoxyacetic acid", "(2R)-O-Methylmandelic acid", "D-\u03b1-Methoxyphenylacetic acid", "(-)-\u03b1-Methoxyphenylacetic acid", "(-)-2-Methoxyphenylacetic acid", "(-)-(R)-\u03b1-Methoxyphenylacetic acid", "(R)-\u03b1-Methoxy-\u03b1-phenylacetic acid", "(R)-(-)-2-Methoxy-2-phenylacetic acid", "(R)-\u03b1-Methoxybenzeneacetic acid", "(2R)-2-Methoxy-2-phenylacetic acid", "(-)-Methoxyphenylacetic acid", "(-)-2-Methoxy-2-phenylacetic acid", "(R)-Methoxyphenylacetic acid", "(R)-Methoxy(phenyl)acetic acid", "(-)-(\u03b1R)-\u03b1-Methoxybenzeneacetic acid", "(R)-\u03b1-Methoxybenzeneethanoic acid", "(R)-2-Methoxy-2-phenylethanoic acid", "(R)-2-Methoxy-2-phenylacetic acid", "(R)-(-)-\u03b1-Methoxyphenylethanoic acid", "(R)-2-Methoxyphenylacetic acid", "(2R)-2-Methoxy-2-phenylethanoic acid", "(R)-(-)-\u03b1-MPA", "(R)-\u03b1-Methoxy-\u03b1-phenylacetic acid", "(2R)-2-Methoxy-2-phenylacetic acid", "(2R)-Methoxy(phenyl)ethanoic acid", "(2R)-Methoxy(phenyl)ethanoic acid"], "SMILES": "C(C(O)=O)(OC)C1=CC=CC=C1", "physical_data": {"Molecular Weight": "166.17", "Molecular Formula": "C9H10O3", "Melting Point": "65-67 \u00b0C"}}