{"cas_no": "3967-55-3", "cn_name": "4,5-\u4e8c\u6c2f-1,3-\u4e8c\u6c27\u4e94\u73af-2-\u916e", "en_name": ["4,5-Dichloro-1,3-dioxolan-2-one", "1,3-Dioxolan-2-one, 4,5-dichloro-", "Carbonic acid, cyclic 1,2-dichloroethylene ester", "Carbonic acid, 1,2-dichloroethylene ester", "4,5-Dichloro-1,3-dioxolan-2-one", "1,2-Ethanediol, 1,2-dichloro-, cyclic carbonate", "1,2-Dichloroethylene carbonate", "Cyclic 1,2-dichloroethylene carbonate", "NSC 15913", "4,5-Dichloro-1,3-oxolan-2-one"], "SMILES": "ClC1C(Cl)OC(=O)O1", "physical_data": {"Molecular Weight": "156.95", "Molecular Formula": "C3H2Cl2O3", "Boiling Point": "178 \u00b0C @ Press: 739 Torr", "Density": "1.585 g/cm\u00b3 @ Temp: 25 \u00b0C"}}