{"cas_no": "3967-54-2", "cn_name": "\u6c2f\u4ee3\u78b3\u9178\u4e59\u70ef\u916f", "en_name": ["Chloroethylene carbonate", "1,3-Dioxolan-2-one, 4-chloro-", "Carbonic acid, cyclic chloroethylene ester", "Carbonic acid, chloroethylene ester", "1,2-Ethanediol, 1-chloro-, cyclic carbonate", "4-Chloro-1,3-dioxolan-2-one", "1,2-Ethanediol, chloro-, cyclic carbonate", "Chloroethylene carbonate", "Cyclic chloroethylene carbonate", "NSC 74446"], "SMILES": "ClC1OC(=O)OC1", "physical_data": {"Molecular Weight": "122.51", "Molecular Formula": "C3H3ClO3", "Boiling Point": "212 \u00b0C @ Press: 735 Torr", "Density": "1.513 g/cm\u00b3 @ Temp: 25 \u00b0C"}}