{"cas_no": "3967-32-6", "cn_name": "\u8d5b\u5e9a\u5576\u76f8\u5173\u7269\u8d28C", "en_name": ["5-(1-Methyl-4-piperidinyl)-5H-dibenzo[a,d]cyclohepten-5-ol", "5H-Dibenzo[a,d]cyclohepten-5-ol, 5-(1-methyl-4-piperidinyl)-", "5H-Dibenzo[a,d]cyclohepten-5-ol, 5-(1-methyl-4-piperidyl)-", "5-(1-Methyl-4-piperidinyl)-5H-dibenzo[a,d]cyclohepten-5-ol", "5-(1-Methyl-4-piperidyl)-5H-dibenzo[a,d]cyclohepten-5-ol", "5-(1-Methylpiperidin-4-yl)-5H-dibenzo[a,d]cyclohepten-5-ol"], "SMILES": "OC1(C=2C(C=CC=3C1=CC=CC3)=CC=CC2)C4CCN(C)CC4", "physical_data": {"Molecular Weight": "305.41", "Molecular Formula": "C21H23NO", "Melting Point": "166.7-167.7 \u00b0C"}}