{"cas_no": "3968-92-1", "cn_name": "(2-\u4e01\u57fa)\u4e09\u82ef\u57fa\u6eb4\u5316\u81a6", "en_name": ["Phosphonium, (1-methylpropyl)triphenyl-, bromide (1:1)", "Phosphonium, (1-methylpropyl)triphenyl-, bromide (1:1)", "Phosphonium, sec-butyltriphenyl-, bromide", "Phosphonium, (1-methylpropyl)triphenyl-, bromide", "sec-Butyltriphenylphosphonium bromide", "2-Butyltriphenylphosphonium bromide"], "SMILES": "[P+](C(CC)C)(C1=CC=CC=C1)(C2=CC=CC=C2)C3=CC=CC=C3.[Br-]", "physical_data": {"Molecular Weight": "", "Molecular Formula": "C22H24P.Br", "Melting Point": "225-227 \u00b0C"}}