{"cas_no": "3970-13-6", "cn_name": "\u82c4\u57fa\u6c2f\u7532\u57fa\u786b\u919a", "en_name": ["[[(Chloromethyl)thio]methyl]benzene", "Benzene, [[(chloromethyl)thio]methyl]-", "Sulfide, benzyl chloromethyl", "[[(Chloromethyl)thio]methyl]benzene", "Benzyl chloromethyl sulfide", "Chloromethyl benzyl sulfide", "Benzylthiomethyl chloride", "NSC 266050"], "SMILES": "C(SCCl)C1=CC=CC=C1", "physical_data": {"Molecular Weight": "172.68", "Molecular Formula": "C8H9ClS", "Boiling Point": "136-139 \u00b0C @ Press: 25 Torr", "Density": "1.1907 g/cm\u00b3 @ Temp: 20 \u00b0C"}}