{"cas_no": "3970-40-9", "cn_name": "2-\u6c2f-3-\u785d\u57fa\u7532\u82ef", "en_name": ["2-Chloro-1-methyl-3-nitrobenzene", "Benzene, 2-chloro-1-methyl-3-nitro-", "Toluene, 2-chloro-3-nitro-", "2-Chloro-1-methyl-3-nitrobenzene", "2-Chloro-3-nitrotoluene", "2-Chloro-3-methylnitrobenzene", "NSC 87550", "2-Chloro-3-methyl-1-nitrobenzene"], "SMILES": "N(=O)(=O)C1=C(Cl)C(C)=CC=C1", "physical_data": {"Molecular Weight": "171.58", "Molecular Formula": "C7H6ClNO2", "Melting Point": "17 \u00b0C"}}