{"cas_no": "3970-35-2", "cn_name": "2-\u6c2f-3-\u785d\u57fa\u82ef\u7532\u9178", "en_name": ["2-Chloro-3-nitrobenzoic acid", "Benzoic acid, 2-chloro-3-nitro-", "2-Chloro-3-nitrobenzoic acid", "2-Chloro-3-carboxynitrobenzene", "NSC 92742"], "SMILES": "C(O)(=O)C1=C(Cl)C(N(=O)=O)=CC=C1", "physical_data": {"Molecular Weight": "201.56", "Molecular Formula": "C7H4ClNO4", "Melting Point": "183.5 \u00b0C"}}