{"cas_no": "3970-21-6", "cn_name": "2-\u7532\u6c27\u57fa\u4e59\u6c27\u57fa\u7532\u57fa\u6c2f", "en_name": ["1-(Chloromethoxy)-2-methoxyethane", "Ethane, 1-(chloromethoxy)-2-methoxy-", "1-(Chloromethoxy)-2-methoxyethane", "2-Methoxyethoxymethyl chloride", "Chloromethyl 2-methoxyethyl ether", "2,5-Dioxahexyl chloride", "Methoxyethoxymethyl chloride", "\u03b2-Methoxyethoxymethyl chloride", "2-(Chloromethoxy)ethoxymethane"], "SMILES": "C(COC)OCCl", "physical_data": {"Molecular Weight": "124.57", "Molecular Formula": "C4H9ClO2", "Boiling Point": "150 \u00b0C"}}