{"cas_no": "3970-62-5", "cn_name": "2,4-\u4e8c\u7532\u57fa-3-\u620a\u9187", "en_name": ["2,2-Dimethyl-3-pentanol", "3-Pentanol, 2,2-dimethyl-", "2,2-Dimethyl-3-pentanol", "(\u00b1)-2,2-Dimethyl-3-pentanol", "NSC 42943"], "SMILES": "C(C(C)(C)C)(CC)O", "physical_data": {"Molecular Weight": "116.20", "Molecular Formula": "C7H16O", "Boiling Point": "135 \u00b0C", "Melting Point": "-5 \u00b0C", "Density": "0.82462 g/cm\u00b3 @ Temp: 20 \u00b0C"}}