{"cas_no": "39718-32-6", "cn_name": "\u5f02\u6c30\u91782\uff0c5-\u4e8c\u6c1f\u82ef\u916f", "en_name": ["1,4-Difluoro-2-isocyanatobenzene", "Benzene, 1,4-difluoro-2-isocyanato-", "1,4-Difluoro-2-isocyanatobenzene", "2,5-Difluorophenyl isocyanate"], "SMILES": "N(=C=O)C1=C(F)C=CC(F)=C1", "physical_data": {"Molecular Weight": "155.10", "Molecular Formula": "C7H3F2NO", "Boiling Point": "52-54 \u00b0C @ Press: 14 Torr"}}