{"cas_no": "39718-89-3", "cn_name": "\u963f\u660e\u6d1b\u82ac", "en_name": ["Alminoprofen", "Benzeneacetic acid, \u03b1-methyl-4-[(2-methyl-2-propen-1-yl)amino]-", "Benzeneacetic acid, \u03b1-methyl-4-[(2-methyl-2-propenyl)amino]-", "\u03b1-Methyl-4-[(2-methyl-2-propen-1-yl)amino]benzeneacetic acid", "Alminoprofen", "EB 382", "(\u00b1)-Alminoprofen", "Minalfene", "2-(4-((2-Methylallyl)amino)phenyl)propanoic acid", "2-[4-[(2-Methylprop-2-en-1-yl)amino]phenyl]propanoic acid"], "SMILES": "C(C(O)=O)(C)C1=CC=C(NCC(C)=C)C=C1", "physical_data": {"Molecular Weight": "219.28", "Molecular Formula": "C13H17NO2", "Melting Point": "107 \u00b0C"}}