{"cas_no": "3971-31-1", "cn_name": "1,3-\u73af\u5df1\u4e8c\u7532\u9178", "en_name": ["1,3-Cyclohexanedicarboxylic acid", "1,3-Cyclohexanedicarboxylic acid", "Isophthalic acid, hexahydro-", "1,3-Benzenedicarboxylic acid, hexahydro-", "3-Carboxycyclohexanecarboxylic acid", "Hexahydroisophthalic acid", "Cyclohexan-1,3-dicarboxylic acid"], "SMILES": "C(O)(=O)C1CC(C(O)=O)CCC1", "physical_data": {"Molecular Weight": "172.18", "Molecular Formula": "C8H12O4", "Melting Point": "188 \u00b0C"}}