{"cas_no": "39716-58-0", "cn_name": "4-\u6c2f\u4ee3\u620a\u70ef\u9187", "en_name": ["4-Pentenoyl chloride", "4-Pentenoyl chloride", "4-Pentenoic acid chloride"], "SMILES": "C(C(Cl)=O)CC=C", "physical_data": {"Molecular Weight": "118.56", "Molecular Formula": "C5H7ClO", "Boiling Point": "130-133 \u00b0C @ Press: 760 Torr"}}