{"cas_no": "39711-79-0", "cn_name": "N-\u4e59\u57fa-5-\u7532\u57fa-2-(1-\u7532\u57fa\u4e59\u57fa)\u73af\u5df1\u7532\u9170\u80fa", "en_name": ["N-Ethyl-p-menthane-3-carboxamide", "Cyclohexanecarboxamide, N-ethyl-5-methyl-2-(1-methylethyl)-", "N-Ethyl-5-methyl-2-(1-methylethyl)cyclohexanecarboxamide", "N-Ethyl-p-menthane-3-carboxamide", "WS 3 (amide)", "WS 3", "Ethyl menthane carboxamide", "Cooling Sensate WS 3", "FEMA 3455", "N-Ethyl-p-menthanecarboxamide"], "SMILES": "C(NCC)(=O)C1C(C(C)C)CCC(C)C1", "physical_data": {"Molecular Weight": "211.34", "Molecular Formula": "C13H25NO", "Melting Point": "88 \u00b0C"}}