{"cas_no": "39718-00-8", "cn_name": "2-\u6c2f\u82c4\u786b\u9187", "en_name": ["2-Chlorobenzyl mercaptan", "Benzenemethanethiol, 2-chloro-", "2-Chlorobenzenemethanethiol", "(2-Chlorophenyl)methanethiol", "o-Chlorobenzyl mercaptan", "2-Chlorobenzyl mercaptan", "2-Chlorotoluene-\u03b1-thiol", "(o-Chlorophenyl)methanethiol", "o-Chlorobenzylthiol"], "SMILES": "C(S)C1=C(Cl)C=CC=C1", "physical_data": {"Molecular Weight": "158.65", "Molecular Formula": "C7H7ClS", "Boiling Point": "120-121 \u00b0C @ Press: 25 Torr"}}