{"cas_no": "3972-26-7", "cn_name": "\u5f02\u4e19\u9187-2-D1", "en_name": ["2-Propan-2-d-ol", "2-Propan-2-d-ol", "Isopropyl-1-d alcohol", "2-Deuterioisopropanol", "2-Deuterio-2-propanol", "2-Propanol-2-d1", "Propan-2-d-2-ol"], "SMILES": "C(C)(C)(O)[2H]", "physical_data": {"Molecular Weight": "", "Molecular Formula": "C3H7DO", "Boiling Point": "80-82 \u00b0C"}}