{"cas_no": "3972-56-3", "cn_name": "4-\u53d4\u4e01\u57fa\u6c2f\u5316\u82ef", "en_name": ["1-Chloro-4-(1,1-dimethylethyl)benzene", "Benzene, 1-chloro-4-(1,1-dimethylethyl)-", "Benzene, 1-tert-butyl-4-chloro-", "1-Chloro-4-(1,1-dimethylethyl)benzene", "p-Chloro-tert-butylbenzene", "1-tert-Butyl-4-chlorobenzene", "p-tert-Butylchlorobenzene", "4-tert-Butylchlorobenzene", "4-Chloro-tert-butylbenzene", "1-Chloro-4-tert-butylbenzene", "4-tert-Butylphenyl chloride", "4-tert-Butyl-1-chlorobenzene"], "SMILES": "C(C)(C)(C)C1=CC=C(Cl)C=C1", "physical_data": {"Molecular Weight": "168.66", "Molecular Formula": "C10H13Cl", "Boiling Point": "213 \u00b0C", "Melting Point": "23 \u00b0C", "Density": "1.0075 g/cm\u00b3 @ Temp: 18.5 \u00b0C"}}