{"cas_no": "3972-36-9", "cn_name": "S-2-\u82c4\u57fa\u7425\u73c0\u9178", "en_name": ["(2S)-2-(Phenylmethyl)butanedioic acid", "Butanedioic acid, 2-(phenylmethyl)-, (2S)-", "Butanedioic acid, (phenylmethyl)-, (S)-", "Butanedioic acid, (phenylmethyl)-, (2S)-", "(2S)-2-(Phenylmethyl)butanedioic acid", "2(S)-Benzyl-3-carboxypropionic acid", "(-)-Benzylsuccinic acid", "(S)-Benzylsuccinic acid", "(S)-2-Benzylsuccinic acid", "L-(-)-Benzylsuccinic acid", "(2S)-2-Benzylbutanedioic acid"], "SMILES": "C(CC1=CC=CC=C1)(CC(O)=O)C(O)=O", "physical_data": {"Molecular Weight": "208.21", "Molecular Formula": "C11H12O4", "Melting Point": "163-164 \u00b0C"}}