{"cas_no": "39720-27-9", "cn_name": "4-(\u6c2f\u7532\u57fa)\u82ef\u57fa\u4e59\u9178\u916f", "en_name": ["4-(Chloromethyl)phenyl acetate", "Phenol, 4-(chloromethyl)-, 1-acetate", "Phenol, 4-(chloromethyl)-, acetate", "p-Cresol, \u03b1-chloro-, acetate", "p-Acetoxybenzyl chloride", "p-(Chloromethyl)phenyl acetate", "4-(Chloromethyl)phenyl acetate", "\u03b1-Chloro-p-cresol acetate", "4-Acetoxybenzyl chloride"], "SMILES": "O(C(C)=O)C1=CC=C(CCl)C=C1", "physical_data": {"Molecular Weight": "184.62", "Molecular Formula": "C9H9ClO2", "Boiling Point": "82 \u00b0C @ Press: 0.01 Torr", "Melting Point": "31.5 \u00b0C"}}