{"cas_no": "397246-14-9", "cn_name": "(R)-(+)-2-(Boc-\u6c28\u57fa)-1,4-\u4e01\u4e8c\u9187", "en_name": ["1,1-Dimethylethyl N-[(1R)-3-hydroxy-1-(hydroxymethyl)propyl]carbamate", "Carbamic acid, N-[(1R)-3-hydroxy-1-(hydroxymethyl)propyl]-, 1,1-dimethylethyl ester", "Carbamic acid, [(1R)-3-hydroxy-1-(hydroxymethyl)propyl]-, 1,1-dimethylethyl ester", "1,1-Dimethylethyl N-[(1R)-3-hydroxy-1-(hydroxymethyl)propyl]carbamate", "(2R)-(tert-Butoxycarbonylamino)butane-1,4-diol", "(R)-tert-Butyl (1,4-dihydroxybutan-2-yl)carbamate"], "SMILES": "N(C(CCO)CO)C(OC(C)(C)C)=O", "physical_data": {"Molecular Weight": "205.25", "Molecular Formula": "C9H19NO4", "Melting Point": "64-68 \u00b0C"}}