{"cas_no": "3972-65-4", "cn_name": "4-\u53d4\u4e01\u57fa\u6eb4\u82ef", "en_name": ["1-Bromo-4-tert-butylbenzene", "Benzene, 1-bromo-4-(1,1-dimethylethyl)-", "Benzene, 1-bromo-4-tert-butyl-", "1-Bromo-4-(1,1-dimethylethyl)benzene", "p-tert-Butylbromobenzene", "1-Bromo-4-tert-butylbenzene", "p-Bromo-tert-butylbenzene", "4-tert-Butyl-1-bromobenzene", "1-Bromo-4-t-butylbenzene", "4-tert-Butylbromobenzene", "1-tert-Butyl-4-bromobenzene", "4-tert-Butylphenyl bromide", "4-Bromo-tert-butylbenzene", "p-tert-Butylphenyl bromide", "NSC 43038", "B 1727", "4-t-Butylbromobenzene", "4-Bromo-1-tert-butylbenzene"], "SMILES": "C(C)(C)(C)C1=CC=C(Br)C=C1", "physical_data": {"Molecular Weight": "213.11", "Molecular Formula": "C10H13Br", "Boiling Point": "231.5 \u00b0C", "Melting Point": "19 \u00b0C", "Density": "1.2028 g/cm\u00b3 @ Temp: 30 \u00b0C"}}