{"cas_no": "3972-25-6", "cn_name": "\u6c18\u4ee3\u53d4\u4e01\u9187", "en_name": ["tert-Butyl alcohol-d", "2-Propanol-d, 2-methyl-", "tert-Butyl alcohol-d", "tert-Butyl hydroxide-d"], "SMILES": "C(C)(C)(C)O[2H]", "physical_data": {"Molecular Weight": "", "Molecular Formula": "C4H9DO", "Boiling Point": "84.2 \u00b0C @ Press: 760 Torr"}}