{"cas_no": "3973-70-4", "cn_name": "1-\u6c28\u57fa-4-(2-\u7f9f\u4e59\u57fa)\u54cc\u55ea", "en_name": ["1-Amino-4-(2-hydroxyethyl)piperazine", "1-Piperazineethanol, 4-amino-", "4-Amino-1-piperazineethanol", "1-Amino-4-(2-hydroxyethyl)piperazine", "NSC 87954", "2-(4-Aminopiperazin-1-yl)ethanol", "2-(4-Aminopiperazin-1-yl)ethan-1-ol"], "SMILES": "C(CO)N1CCN(N)CC1", "physical_data": {"Molecular Weight": "145.20", "Molecular Formula": "C6H15N3O", "Melting Point": "103-105 \u00b0C"}}