{"cas_no": "3973-62-4", "cn_name": "3-\u82ef\u57fa\u54cc\u5576", "en_name": ["3-Phenylpiperidine", "Piperidine, 3-phenyl-", "3-Phenylpiperidine"], "SMILES": "C1(=CC=CC=C1)C2CCCNC2", "physical_data": {"Molecular Weight": "161.24", "Molecular Formula": "C11H15N", "Boiling Point": "257 \u00b0C", "Melting Point": "14.5 \u00b0C", "Density": "1.0040 g/cm\u00b3"}}