{"cas_no": "39736-29-3", "cn_name": "4-\u6c28\u57fa-2-(\u7532\u786b\u57fa)\u567b\u5511-5-\u7fa7\u9178\u4e59\u916f", "en_name": ["Ethyl 4-amino-2-(methylthio)-5-thiazolecarboxylate", "5-Thiazolecarboxylic acid, 4-amino-2-(methylthio)-, ethyl ester", "Ethyl 4-amino-2-(methylthio)-5-thiazolecarboxylate", "NSC 675697", "4-Amino-2-(methylsulfanyl)thiazole-5-carboxylic acid ethyl ester"], "SMILES": "C(OCC)(=O)C1=C(N)N=C(SC)S1", "physical_data": {"Molecular Weight": "218.30", "Molecular Formula": "C7H10N2O2S2", "Melting Point": "100-102 \u00b0C"}}