{"cas_no": "3973-18-0", "cn_name": "\u4e19\u7094\u9187\u4e59\u6c27\u57fa\u5316\u7269", "en_name": ["2-(2-Propyn-1-yloxy)ethanol", "Ethanol, 2-(2-propyn-1-yloxy)-", "Ethanol, 2-(2-propynyloxy)-", "2-(2-Propyn-1-yloxy)ethanol", "Ethylene glycol monopropargyl ether", "4-Oxa-1-hexyn-6-ol", "2-(2-Propynyloxy)ethanol", "2-Propynoxyethanol", "2-(Propargyloxy)ethanol", "3-(2-Hydroxyethoxy)-1-propyne", "2-(Prop-2-yn-1-yloxy)ethan-1-ol", "2-Prop-2-ynoxyethanol", "Ethanol, 2-(ethynyloxy)-"], "SMILES": "O(CC#C)CCO", "physical_data": {"Molecular Weight": "100.12", "Molecular Formula": "C5H8O2", "Boiling Point": "80-90 \u00b0C @ Press: 12-14 Torr", "Density": "1.0251 g/cm\u00b3 @ Temp: 20 \u00b0C"}}