{"cas_no": "39742-60-4", "cn_name": "N-(2-\u82ef\u4e59\u57fa)-4-\u54cc\u5576\u916e", "en_name": ["1-Phenethyl-4-piperidone", "4-Piperidinone, 1-(2-phenylethyl)-", "4-Piperidone, 1-phenethyl-", "1-(2-Phenylethyl)-4-piperidinone", "N-Phenethyl-4-piperidone", "1-Phenethyl-4-piperidone", "1-Phenethyl-4-piperidinone", "1-(\u03b2-Phenylethyl)-4-piperidone", "1-(2-Phenylethyl)-4-piperidone", "1-Phenylethyl-4-piperidone", "N-Phenethylpiperidin-4-one", "N-(2-Phenylethyl)-4-piperidone", "1-(2-Phenethyl)-4-piperidinone", "NSC 74494", "1-(2-Phenethyl)-4-piperidone"], "SMILES": "C(CC1=CC=CC=C1)N2CCC(=O)CC2", "physical_data": {"Molecular Weight": "203.28", "Molecular Formula": "C13H17NO", "Boiling Point": "117-118 \u00b0C @ Press: 0.1 Torr", "Melting Point": "59.5-60.5 \u00b0C"}}