{"cas_no": "39741-41-8", "cn_name": "N-\u4e59\u57fa-2-\u4e59\u9170\u57fa\u5421\u54af", "en_name": ["1-(1-Ethyl-1H-pyrrol-2-yl)ethanone", "Ethanone, 1-(1-ethyl-1H-pyrrol-2-yl)-", "1-(1-Ethyl-1H-pyrrol-2-yl)ethanone", "1-Ethyl-2-acetylpyrrole", "N-Ethyl-2-acetylpyrrole", "1-(1-Ethylpyrrol-2-yl)ethanone", "1-(1-Ethyl-1H-pyrrol-2-yl)ethan-1-one"], "SMILES": "C(C)N1C(C(C)=O)=CC=C1", "physical_data": {"Molecular Weight": "137.18", "Molecular Formula": "C8H11NO", "Boiling Point": "82 \u00b0C @ Press: 12 Torr"}}