{"cas_no": "39746-01-5", "cn_name": "[3aR(3aa,4a,5b,6aa)]-(-)-5-(\u82ef\u7532\u9170\u6c27\u57fa)\u516d\u6c22-2-\u6c27\u4ee3-2H-\u73af\u620a\u5e76[b]\u544b\u5583-4-\u7532\u919b", "en_name": ["(3aR,4R,5R,6aS)-5-(Benzoyloxy)hexahydro-2-oxo-2H-cyclopenta[b]furan-4-carboxaldehyde", "2H-Cyclopenta[b]furan-4-carboxaldehyde, 5-(benzoyloxy)hexahydro-2-oxo-, (3aR,4R,5R,6aS)-", "2H-Cyclopenta[b]furan-4-carboxaldehyde, 5-(benzoyloxy)hexahydro-2-oxo-, [3aR-(3a\u03b1,4\u03b1,5\u03b2,6a\u03b1)]-", "(3aR,4R,5R,6aS)-5-(Benzoyloxy)hexahydro-2-oxo-2H-cyclopenta[b]furan-4-carboxaldehyde", "3\u03b2-Benzoyloxy-2\u03b2-carboxaldehyde-5\u03b1-hydroxy-1\u03b1-cyclopentaneacetic acid \u03b3-lactone", "(1S,5R,6R,7R)-6-Formyl-7-(benzyloxy)-2-oxabicyclo[3.3.0]octan-3-one", "PGX 5", "(1S,5R,6R,7R)-6-Formyl-7-benzoyloxy-2-oxabicyclo[3.3.0]octan-3-one", "(3aR,4R,5R,6aS)-4-Formyl-2-oxohexahydro-2H-cyclopenta[b]furan-5-yl benzoate"], "SMILES": "C(=O)C1C2C(CC1OC(=O)C3=CC=CC=C3)OC(=O)C2", "physical_data": {"Molecular Weight": "274.27", "Molecular Formula": "C15H14O5", "Melting Point": "123.5-125.5 \u00b0C"}}