{"cas_no": "39741-91-8", "cn_name": "(\u7898\u7532\u57fa)\u4e09\u7532\u57fa\u7898\u5316\u94f5", "en_name": ["Methanaminium, 1-iodo-N,N,N-trimethyl-, iodide (1:1)", "Methanaminium, 1-iodo-N,N,N-trimethyl-, iodide (1:1)", "Methanaminium, 1-iodo-N,N,N-trimethyl-, iodide", "(Iodomethyl)trimethylammonium iodide"], "SMILES": "[N+](CI)(C)(C)C.[I-]", "physical_data": {"Molecular Weight": "", "Molecular Formula": "C4H11IN.I", "Melting Point": "228-229 \u00b0C (decomp)"}}