{"cas_no": "39755-95-8", "cn_name": "5-\u7532\u6c27\u57fa\u975b\u7ea2", "en_name": ["5-Methoxyisatin", "1H-Indole-2,3-dione, 5-methoxy-", "Indole-2,3-dione, 5-methoxy-", "Isatin, 5-methoxy-", "5-Methoxy-1H-indole-2,3-dione", "5-Methoxyisatin", "5-Methoxyindole-2,3-dione", "NSC 88052", "5-Methoxyindoline-2,3-dione"], "SMILES": "O=C1C=2C(NC1=O)=CC=C(OC)C2", "physical_data": {"Molecular Weight": "177.16", "Molecular Formula": "C9H7NO3", "Melting Point": "201-202 \u00b0C"}}