{"cas_no": "39769-09-0", "cn_name": "4,4'-\u4e8c\u6c1f\u82ef\u4e9a\u7532\u57fa\u82ef\u80fa", "en_name": ["4-Fluoro-N-[(4-fluorophenyl)methylene]benzenamine", "Benzenamine, 4-fluoro-N-[(4-fluorophenyl)methylene]-", "4-Fluoro-N-[(4-fluorophenyl)methylene]benzenamine", "N-(4-Fluorophenyl)-N-[(4-fluorophenyl)methylene]amine", "N-(4-Fluorophenylmethylene)-4-fluorobenzenamine", "4-Fluoro-N-(4-fluorobenzylidene)aniline"], "SMILES": "C(=NC1=CC=C(F)C=C1)C2=CC=C(F)C=C2", "physical_data": {"Molecular Weight": "217.21", "Molecular Formula": "C13H9F2N", "Melting Point": "65 \u00b0C"}}