{"cas_no": "3976-69-0", "cn_name": "(R)-3-\u7f9f\u57fa\u4e01\u9178\u7532\u916f", "en_name": ["Methyl (-)-3-hydroxybutyrate", "Butanoic acid, 3-hydroxy-, methyl ester, (3R)-", "Butanoic acid, 3-hydroxy-, methyl ester, (R)-", "Butyric acid, 3-hydroxy-, methyl ester, D-(-)-", "D-3-Hydroxybutyric acid methyl ester", "Methyl (R)-3-hydroxybutanoate", "Methyl (-)-3-hydroxybutyrate", "Methyl (R)-3-hydroxybutyrate", "(R)-\u03b2-Hydroxybutyric acid methyl ester", "Methyl 3R-hydroxybutyrate", "Methyl (R)-(-)-3-hydroxybutyrate", "Methyl (-)-3-hydroxybutanoate", "Methyl (R)-3-hydroxybutanoate", "(-)-(3R)-3-Hydroxybutanoic acid methyl ester", "(3R)-3-Hydroxybutanoic acid methyl ester", "Methyl (3R)-hydroxybutanoate", "(R)-(-)-3-Hydroxy-n-butyrate methyl ester", "Methyl (R)-3-hydroxybutyrate"], "SMILES": "C(CC(C)O)(OC)=O", "physical_data": {"Molecular Weight": "118.13", "Molecular Formula": "C5H10O3", "Boiling Point": "63-66 \u00b0C @ Press: 10 Torr", "Density": "1.0523 g/cm\u00b3 @ Temp: 25.00 \u00b0C"}}