{"cas_no": "39765-80-5", "cn_name": "\u53cd\u5f0f\u4e5d\u6c2f", "en_name": ["trans-Nonachlor", "4,7-Methano-1H-indene, 1,2,3,4,5,6,7,8,8-nonachloro-2,3,3a,4,7,7a-hexahydro-, (1\u03b1,2\u03b2,3\u03b1,3a\u03b1,4\u03b2,7\u03b2,7a\u03b1)-", "(1\u03b1,2\u03b2,3\u03b1,3a\u03b1,4\u03b2,7\u03b2,7a\u03b1)-1,2,3,4,5,6,7,8,8-Nonachloro-2,3,3a,4,7,7a-hexahydro-4,7-methano-1H-indene", "Nonachlor, trans-", "trans-Nonachlor", "t-Nonachlor", "trans-Nonachlordane"], "SMILES": "ClC12C3C(C(Cl)(C1(Cl)Cl)C(Cl)=C2Cl)C(Cl)C(Cl)C3Cl", "physical_data": {"Molecular Weight": "444.22", "Molecular Formula": "C10H5Cl9", "Melting Point": "148 \u00b0C"}}