{"cas_no": "3977-23-9", "cn_name": "5\uff0c6-\u4e8c\u7532\u57fa-2-\u6c28\u57fa-4-\u7f9f\u57fa\u5627\u5576", "en_name": ["2-Amino-5,6-dimethyl-4(3H)-pyrimidinone", "4(3H)-Pyrimidinone, 2-amino-5,6-dimethyl-", "4-Pyrimidinol, 2-amino-5,6-dimethyl-", "4(1H)-Pyrimidinone, 2-amino-5,6-dimethyl-", "2-Amino-5,6-dimethyl-4(3H)-pyrimidinone", "2-Amino-4-hydroxy-5,6-dimethylpyrimidine", "2-Amino-5,6-dimethyl-4-pyrimidinol", "5,6-Dimethylisocytosine", "2-Amino-5,6-dimethyl-4(1H)-pyrimidinone", "2-Amino-5,6-dimethyl-4-hydroxypyrimidine", "NSC 66052", "2-Amino-5,6-dimethyl-1,4-dihydropyrimidin-4-one", "2-Amino-5,6-dimethyl-1H-pyrimidin-4-one", "2-Amino-5,6-dimethyl-3H-pyrimidin-4-one", "2-Amino-5,6-dimethyl-3,4-dihydropyrimidin-4-one"], "SMILES": "CC1=C(C)NC(N)=NC1=O", "physical_data": {"Molecular Weight": "139.16", "Molecular Formula": "C6H9N3O", "Melting Point": "330 \u00b0C"}}