{"cas_no": "3977-29-5", "cn_name": "2-\u6c28\u57fa-4-\u7f9f\u57fa-6-\u7532\u57fa\u5627\u5576", "en_name": ["2-Amino-4-hydroxy-6-methylpyrimidine", "4(3H)-Pyrimidinone, 2-amino-6-methyl-", "4(1H)-Pyrimidinone, 2-amino-6-methyl-", "4-Pyrimidinol, 2-amino-6-methyl-", "2-Amino-6-methyl-4(3H)-pyrimidinone", "4-Methylisocytosine", "Superacyl", "Mecytosine", "Superacil", "2-Amino-6-hydroxy-4-methylpyrimidine", "2-Amino-4-oxo-6-methylpyrimidine", "2-Amino-4-hydroxy-6-methylpyrimidine", "2-Amino-4-methyl-6-hydroxypyrimidine", "2-Amino-6-methyl-4-oxopyrimidine", "6-Methylisocytosine", "2-Amino-6-methylpyrimidin-4-ol", "2-Amino-6-methyl-4-pyrimidinol", "2-Amino-6-methyl-4-pyrimidinone", "NSC 13145", "NSC 23662", "NSC 41833", "NSC 7893", "2-Amino-6-methyl-4(1H)-pyrimidinone", "4-Hydroxy-6-methyl-2-pyrimidinamine", "2-Amino-6-methylpyrimidin-4(3H)-one", "2-Amino-6-methyl-1H-pyrimidin-4-one", "2-Amino-6-methyl-1,4-dihydropyrimidin-4-one", "2-Amino-6-methyl-3H-pyrimidin-4-one", "2-Amino-6-methyl-3,4-dihydropyrimidin-4-one"], "SMILES": "CC1=CC(=O)N=C(N)N1", "physical_data": {"Molecular Weight": "125.13", "Molecular Formula": "C5H7N3O", "Melting Point": "299-300 \u00b0C"}}