{"cas_no": "39774-26-0", "cn_name": "2-\u6eb4-6-\u82ef\u57fa\u5421\u5576", "en_name": ["2-Bromo-6-phenylpyridine", "Pyridine, 2-bromo-6-phenyl-", "2-Bromo-6-phenylpyridine", "6-Bromo-2-phenylpyridine"], "SMILES": "BrC1=NC(=CC=C1)C2=CC=CC=C2", "physical_data": {"Molecular Weight": "234.09", "Molecular Formula": "C11H8BrN", "Melting Point": "51-52 \u00b0C"}}