{"cas_no": "397843-71-9", "cn_name": "3-\u82ef\u6c28\u7fb0\u57fa\u82ef\u787c\u9178", "en_name": ["B-[3-[(Phenylamino)carbonyl]phenyl]boronic acid", "Boronic acid, B-[3-[(phenylamino)carbonyl]phenyl]-", "Boronic acid, [3-[(phenylamino)carbonyl]phenyl]-", "B-[3-[(Phenylamino)carbonyl]phenyl]boronic acid", "[3-(Phenylcarbamoyl)phenyl]boronic acid"], "SMILES": "C(NC1=CC=CC=C1)(=O)C2=CC(B(O)O)=CC=C2", "physical_data": {"Molecular Weight": "241.05", "Molecular Formula": "C13H12BNO3", "Melting Point": "245-246 \u00b0C"}}