{"cas_no": "3978-86-7", "cn_name": "\u9a6c\u6765\u9178\u963f\u624e\u4ed6\u5576", "en_name": ["Azatadine maleate", "5H-Benzo[5,6]cyclohepta[1,2-b]pyridine, 6,11-dihydro-11-(1-methyl-4-piperidinylidene)-, (2Z)-2-butenedioate (1:2)", "5H-Benzo[5,6]cyclohepta[1,2-b]pyridine, 6,11-dihydro-11-(1-methyl-4-piperidylidene)-, maleate (1:2)", "5H-Benzo[5,6]cyclohepta[1,2-b]pyridine, 6,11-dihydro-11-(1-methyl-4-piperidinylidene)-, (Z)-2-butenedioate (1:2)", "Azatadine maleate", "5-(4\u2032-N-Methylpiperidylidene)-4-azo-10:11-dihydrodibenzocycloheptene dimaleate", "Azatadine dimaleate", "Sch 10649", "Idulian", "Optimine", "Trinalin", "Atoramin", "Bonamid", "Zadine", "11-(1-Methylpiperidin-4-ylidene)-6,11-dihydro-5H-benzo[5,6]cyclohepta[1,2-b]pyridine dimaleate"], "SMILES": "C(=CC(O)=O)C(O)=O.CN1CCC(=C2C=3C(CCC=4C2=NC=CC4)=CC=CC3)CC1", "physical_data": {"Molecular Weight": "", "Molecular Formula": "C20H22N2.2C4H4O4", "Melting Point": "152-154 \u00b0C"}}