{"cas_no": "3978-81-2", "cn_name": "4-\u53d4\u4e01\u57fa\u5421\u5576", "en_name": ["4-tert-Butylpyridine", "Pyridine, 4-(1,1-dimethylethyl)-", "Pyridine, 4-tert-butyl-", "4-(1,1-Dimethylethyl)pyridine", "4-t-Butylpyridine", "4-tert-Butylpyridine", "p-tert-Butylpyridine", "NSC 5104"], "SMILES": "C(C)(C)(C)C=1C=CN=CC1", "physical_data": {"Molecular Weight": "135.21", "Molecular Formula": "C9H13N", "Boiling Point": "196.5 \u00b0C", "Melting Point": "-41 \u00b0C"}}