{"cas_no": "3978-80-1", "cn_name": "N-\u53d4\u4e01\u6c27\u7fb0\u57fa-L-\u916a\u6c28\u9178", "en_name": ["BOC-L-tyrosine", "L-Tyrosine, N-[(1,1-dimethylethoxy)carbonyl]-", "Tyrosine, N-carboxy-, N-tert-butyl ester, L-", "Tyrosine, N-carboxy-, N-tert-butyl ester", "N-[(1,1-Dimethylethoxy)carbonyl]-L-tyrosine", "N-tert-Butoxycarbonyl-L-tyrosine", "N-(tert-Butoxycarbonyl)tyrosine", "N-(tert-Butyloxycarbonyl)-L-tyrosine", "BOC-L-tyrosine", "tert-Butoxycarbonyl-L-tyrosine", "N-Boc-L-tyrosine", "(2S)-2-[(tert-Butoxycarbonyl)amino]-3-(4-hydroxyphenyl)propanoic acid", "NSC 334307", "(2S)-2-[(tert-Butoxycarbonyl)amino]-3-(4-hydroxyphenyl)propanoic acid", "(2S)-3-(4-Hydroxyphenyl)-2-[(2-methylpropan-2-yl)oxycarbonylamino]propanoic acid", "(S)-2-((tert-Butoxycarbonyl)amino]-3-(4-hydroxyphenyl)propanoic acid"], "SMILES": "C(C(NC(OC(C)(C)C)=O)C(O)=O)C1=CC=C(O)C=C1", "physical_data": {"Molecular Weight": "281.30", "Molecular Formula": "C14H19NO5", "Melting Point": "138-139 \u00b0C"}}