{"cas_no": "39791-20-3", "cn_name": "\u5c3c\u5c14\u96cc\u9187", "en_name": ["Nilestriol", "19-Norpregna-1,3,5(10)-trien-20-yne-16,17-diol, 3-(cyclopentyloxy)-, (16\u03b1,17\u03b1)-", "(16\u03b1,17\u03b1)-3-(Cyclopentyloxy)-19-norpregna-1,3,5(10)-trien-20-yne-16,17-diol", "17\u03b1-Ethynylestriol 3-cyclopentyl ether", "3-Cyclopentyloxy-19-nor-17\u03b1-pregna-1,3,5(10)-trien-20-yne-16\u03b1,17\u03b2-diol", "Nylestriol", "EE3CPE", "Nilestriol", "WeiNiAn"], "SMILES": "CC12C(C3C(CC1)C=4C(CC3)=CC(OC5CCCC5)=CC4)CC(O)C2(C#C)O", "physical_data": {"Molecular Weight": "380.52", "Molecular Formula": "C25H32O3", "Melting Point": "162-165 \u00b0C"}}