{"cas_no": "3979-51-9", "cn_name": "\u5f02\u4e19\u9187-D", "en_name": ["2-Propanol-d", "2-Propanol-d", "Isopropyl alcohol-d", "Isopropanol-d", "2-Propanol-O-d1", "i-Propanol-d", "2-Deuteriooxypropane"], "SMILES": "C(C)(C)O[2H]", "physical_data": {"Molecular Weight": "", "Molecular Formula": "C3H7DO", "Boiling Point": "83.2 \u00b0C @ Press: 760 Torr"}}