{"cas_no": "39795-60-3", "cn_name": "5-\u6eb4\u5432\u54da\u5549-2-\u916e", "en_name": ["4-(4-Bromophenyl)pyridine", "Pyridine, 4-(4-bromophenyl)-", "4-(4-Bromophenyl)pyridine", "4-(p-Bromophenyl)pyridine", "4-(4-Pyridyl)bromobenzene", "4-(4\u2032-Bromophenyl)pyridine"], "SMILES": "BrC1=CC=C(C=C1)C=2C=CN=CC2", "physical_data": {"Molecular Weight": "234.09", "Molecular Formula": "C11H8BrN", "Melting Point": "129.5 \u00b0C"}}