{"cas_no": "398-21-0", "cn_name": "4-\u6eb4-4'-\u6c1f\u8054\u82ef", "en_name": ["4-Bromo-4\u2032-fluoro-1,1\u2032-biphenyl", "1,1\u2032-Biphenyl, 4-bromo-4\u2032-fluoro-", "Biphenyl, 4-bromo-4\u2032-fluoro-", "4-Bromo-4\u2032-fluoro-1,1\u2032-biphenyl", "4-Bromo-4\u2032-fluorobiphenyl", "4-Fluoro-4\u2032-bromobiphenyl", "4\u2032-Bromo-4-fluorobiphenyl", "NSC 91565", "1-Bromo-4-(4-fluorophenyl)benzene", "4-(4-Fluorophenyl)bromobenzene"], "SMILES": "BrC1=CC=C(C=C1)C2=CC=C(F)C=C2", "physical_data": {"Molecular Weight": "251.09", "Molecular Formula": "C12H8BrF", "Melting Point": "98 \u00b0C"}}