{"cas_no": "398-71-0", "cn_name": "2-\u4e59\u57fa-4-\u6c1f\u82ef\u915a", "en_name": ["2-Ethyl-4-fluorophenol", "Phenol, 2-ethyl-4-fluoro-", "2-Ethyl-4-fluorophenol", "4-Fluoro-2-ethylphenol"], "SMILES": "C(C)C1=C(O)C=CC(F)=C1", "physical_data": {"Molecular Weight": "140.15", "Molecular Formula": "C8H9FO", "Boiling Point": "64-65 \u00b0C @ Press: 3 Torr", "Density": "1.124 g/cm\u00b3"}}