{"cas_no": "398-23-2", "cn_name": "4,4'-\u4e8c\u6c1f\u8054\u82ef", "en_name": ["4,4\u2032-Difluoro-1,1\u2032-biphenyl", "1,1\u2032-Biphenyl, 4,4\u2032-difluoro-", "Biphenyl, 4,4\u2032-difluoro-", "4,4\u2032-Difluoro-1,1\u2032-biphenyl", "4,4\u2032-Difluorodiphenyl", "4,4\u2032-Difluorobiphenyl", "p,p\u2032-Difluorobiphenyl", "NSC 4173", "1-Fluoro-4-(4-fluorophenyl)benzene"], "SMILES": "FC1=CC=C(C=C1)C2=CC=C(F)C=C2", "physical_data": {"Molecular Weight": "190.19", "Molecular Formula": "C12H8F2", "Boiling Point": "254.5 \u00b0C", "Melting Point": "94.5 \u00b0C", "Density": "1.328 g/cm\u00b3 @ Temp: 25 \u00b0C"}}