{"cas_no": "39807-15-3", "cn_name": "\u4e19\u7094\u6076\u8349\u916e", "en_name": ["Oxadiargyl", "1,3,4-Oxadiazol-2(3H)-one, 3-[2,4-dichloro-5-(2-propyn-1-yloxy)phenyl]-5-(1,1-dimethylethyl)-", "1,3,4-Oxadiazol-2(3H)-one, 3-[2,4-dichloro-5-(2-propynyloxy)phenyl]-5-(1,1-dimethylethyl)-", "3-[2,4-Dichloro-5-(2-propyn-1-yloxy)phenyl]-5-(1,1-dimethylethyl)-1,3,4-oxadiazol-2(3H)-one", "Oxadiargyl", "RP 020630", "SAN-1315", "Raft", "Topstar", "Raft 400 SC"], "SMILES": "O=C1N(N=C(C(C)(C)C)O1)C2=CC(OCC#C)=C(Cl)C=C2Cl", "physical_data": {"Molecular Weight": "341.19", "Molecular Formula": "C15H14Cl2N2O3", "Melting Point": "131 \u00b0C"}}