{"cas_no": "39809-25-1", "cn_name": "\u55b7\u6614\u6d1b\u97e6", "en_name": ["Penciclovir", "6H-Purin-6-one, 2-amino-1,9-dihydro-9-[4-hydroxy-3-(hydroxymethyl)butyl]-", "2-Amino-1,9-dihydro-9-[4-hydroxy-3-(hydroxymethyl)butyl]-6H-purin-6-one", "BRL 39123", "Penciclovir", "9-[4-Hydroxy-3-(hydroxymethyl)butyl]guanine", "VSA 671", "Denavir", "Penxiluowei", "2-Amino-9-[4-hydroxy-3-(hydroxymethyl)butyl]-3H-purin-6-one", "2-Amino-9-[4-hydroxy-3-(hydroxymethyl)butyl]-6,9-dihydro-1H-purin-6-one", "2-Amino-9-[4-hydroxy-3-(hydroxymethyl)butyl]-3,9-dihydropurin-6-one"], "SMILES": "C(CC(CO)CO)N1C2=C(N=C1)C(=O)N=C(N)N2", "physical_data": {"Molecular Weight": "253.26", "Molecular Formula": "C10H15N5O3", "Melting Point": "275-277 \u00b0C"}}