{"cas_no": "39811-17-1", "cn_name": "5-\u82ef\u57fa\u90bb\u8334\u9999\u80fa", "en_name": ["4-Methoxy[1,1\u2032-biphenyl]-3-amine", "[1,1\u2032-Biphenyl]-3-amine, 4-methoxy-", "4-Methoxy[1,1\u2032-biphenyl]-3-amine", "3-Amino-4-methoxybiphenyl", "5-Phenyl-o-anisidine", "5-Phenyl-2-anisidine", "2-Methoxy-5-phenylaniline", "(4-Methoxy-1,1\u2032-biphenyl-3-yl)amine", "4-Methoxybiphenyl-3-ylamine", "4-Methoxybiphenyl-3-amine"], "SMILES": "NC=1C=C(C=CC1OC)C2=CC=CC=C2", "physical_data": {"Molecular Weight": "199.25", "Molecular Formula": "C13H13NO", "Melting Point": "80-81 \u00b0C"}}