{"cas_no": "39811-14-8", "cn_name": "6-CHLORO-1H-BENZOIMIDAZOLE-2-CARBOXYLIC ACID", "en_name": ["6-Chloro-1H-benzimidazole-2-carboxylic acid", "1H-Benzimidazole-2-carboxylic acid, 6-chloro-", "1H-Benzimidazole-2-carboxylic acid, 5-chloro-", "2-Benzimidazolecarboxylic acid, 5(or 6)-chloro-", "6-Chloro-1H-benzimidazole-2-carboxylic acid", "5-Chlorobenzimidazole-2-carboxylic acid", "5-Chloro-1H-benzimidazole-2-carboxylic acid", "6-Chlorobenzimidazole-2-carboxylic acid"], "SMILES": "C(O)(=O)C=1NC=2C(N1)=CC(Cl)=CC2", "physical_data": {"Molecular Weight": "196.59", "Molecular Formula": "C8H5ClN2O2", "Melting Point": "159-160 \u00b0C"}}