{"cas_no": "39815-78-6", "cn_name": "3-\u916e\u5e9a\u9178\u7532\u916f", "en_name": ["Heptanoic acid, 3-oxo-, methyl ester", "Heptanoic acid, 3-oxo-, methyl ester", "Methyl 3-oxoheptanoate", "Methyl pentanoylacetate", "3-Oxoheptanoic acid methyl ester"], "SMILES": "C(CC(OC)=O)(CCCC)=O", "physical_data": {"Molecular Weight": "158.20", "Molecular Formula": "C8H14O3", "Boiling Point": "54-55 \u00b0C @ Press: 0.1 Torr"}}