{"cas_no": "3982-91-0", "cn_name": "\u786b\u4ee3\u78f7\u9170\u6c2f", "en_name": ["Thiophosphoryl chloride", "Phosphorothioic trichloride", "Thiophosphoryl chloride", "Phosphorus sulfochloride", "Phosphorus thiochloride", "Phosphorothionic trichloride", "Trichlorophosphine sulfide", "Thiophosphoryl chloride (PSCl3)", "Thiophosphoryl trichloride", "Thiophosphoric trichloride", "Phosphorus trichloride sulfide", "Phosphorus thiotrichloride", "Thiophosphoric acid trichloride", "Phosphorus sulfide trichloride", "Trichlorophosphorus thioxide", "NSC 158334", "Phosphorus trichloride sulfide (PCl3S)"], "SMILES": "P(Cl)(Cl)(Cl)=S", "physical_data": {"Molecular Weight": "169.40", "Molecular Formula": "Cl3PS", "Boiling Point": "125 \u00b0C @ Press: 760 Torr", "Melting Point": "-35 \u00b0C", "Density": "1.635 g/cm\u00b3"}}