{"cas_no": "3982-87-4", "cn_name": "\u4e09(2-\u7532\u57fa\u4e19\u57fa)\u786b\u5316\u81a6", "en_name": ["Cyanex 471X", "Phosphine sulfide, tris(2-methylpropyl)-", "Phosphine sulfide, triisobutyl-", "Tris(2-methylpropyl)phosphine sulfide", "Triisobutylphosphine sulfide", "Cyanex 471X", "NSC 222464"], "SMILES": "P(CC(C)C)(CC(C)C)(CC(C)C)=S", "physical_data": {"Molecular Weight": "234.38", "Molecular Formula": "C12H27PS", "Melting Point": "59-60 \u00b0C"}}