{"cas_no": "3982-82-9", "cn_name": "1,1,5,5-\u56db\u82ef\u57fa-1,3,3,5-\u56db\u7532\u57fa\u7845\u6c27\u70f7", "en_name": ["DC 704", "Trisiloxane, 1,3,3,5-tetramethyl-1,1,5,5-tetraphenyl-", "1,3,3,5-Tetramethyl-1,1,5,5-tetraphenyltrisiloxane", "HIVAC F 4", "Dow Corning 704", "DC 704", "Dimethylbis(methyldiphenylsilyloxy)silane", "Silicone DC 704", "FT 704", "SH 704", "1,1,5,5-Tetraphenyltetramethyltrisiloxane", "1,1,5,5-Tetraphenyl-1,3,3,5-tetramethyltrisiloxane", "DM 7040", "SIT 7757", "PDM 7040"], "SMILES": "[Si](O[Si](O[Si](C)(C1=CC=CC=C1)C2=CC=CC=C2)(C)C)(C)(C3=CC=CC=C3)C4=CC=CC=C4", "physical_data": {"Molecular Weight": "484.81", "Molecular Formula": "C28H32O2Si3", "Boiling Point": "233 \u00b0C @ Press: 0.5 Torr", "Density": "1.070 g/cm\u00b3"}}