{"cas_no": "39835-09-1", "cn_name": "2-\u7f9f\u57fa-5-\u785d\u57fa\u82ef\u8148", "en_name": ["2-Hydroxy-5-nitrobenzonitrile", "Benzonitrile, 2-hydroxy-5-nitro-", "Salicylonitrile, 5-nitro-", "2-Hydroxy-5-nitrobenzonitrile", "2-Cyano-4-nitrophenol", "4-Nitro-2-cyanophenol"], "SMILES": "C(#N)C1=CC(N(=O)=O)=CC=C1O", "physical_data": {"Molecular Weight": "164.12", "Molecular Formula": "C7H4N2O3", "Melting Point": "197 \u00b0C"}}