{"cas_no": "398489-26-4", "cn_name": "1-Boc-3-\u6c2e\u6742\u73af\u4e01\u916e", "en_name": ["tert-Butyl 3-oxoazetidine-1-carboxylate", "1-Azetidinecarboxylic acid, 3-oxo-, 1,1-dimethylethyl ester", "3-Oxoazetidine-1-carboxylic acid tert-butyl ester", "1-tert-Butoxycarbonyl-3-azetidinone", "tert-Butyl 3-oxoazetidine-1-carboxylate", "1-(tert-Butoxycarbonyl)-3-oxoazetidine", "3-Oxoazetidine-1-carboxylic acid tert-butyl ester", "1-Boc-3-oxoazetidine", "1-Boc-azetidin-3-one", "N-Boc-azetidin-3-one", "3-Boc-azetidinone", "N-(tert-Butoxycarbonyl)-3-oxoazetidine"], "SMILES": "C(OC(C)(C)C)(=O)N1CC(=O)C1", "physical_data": {"Molecular Weight": "171.19", "Molecular Formula": "C8H13NO3", "Melting Point": "40-45 \u00b0C"}}