{"cas_no": "3984-34-7", "cn_name": "3-(4-\u6c2f\u82ef\u7532\u9170)\u4e19\u9178", "en_name": ["3-(4-Chlorobenzoyl)propionic acid", "Benzenebutanoic acid, 4-chloro-\u03b3-oxo-", "Propionic acid, 3-(p-chlorobenzoyl)-", "4-Chloro-\u03b3-oxobenzenebutanoic acid", "3-(p-Chlorobenzoyl)propionic acid", "\u03b2-(p-Chlorobenzoyl)propionic acid", "\u03b2-(4-Chlorobenzoyl)propionic acid", "3-(4-Chlorobenzoyl)propionic acid", "4-Oxo-4-(4-chlorophenyl)butanoic acid", "4-(4-Chlorophenyl)-4-oxobutyric acid", "\u03b2-(4-Chlorophenyl)propionic acid", "NSC 5137", "4-(4-Chlorophenyl)-4-oxobutanoic acid", "3-(4-Chlorobenzoyl)propanoic acid"], "SMILES": "C(CCC(O)=O)(=O)C1=CC=C(Cl)C=C1", "physical_data": {"Molecular Weight": "212.63", "Molecular Formula": "C10H9ClO3", "Melting Point": "131 \u00b0C"}}