{"cas_no": "3984-22-3", "cn_name": "2-\u4e59\u70ef\u57fa-1,3-\u4e8c\u6076\u8302\u70f7", "en_name": ["2-Ethenyl-1,3-dioxolane", "1,3-Dioxolane, 2-ethenyl-", "1,3-Dioxolane, 2-vinyl-", "2-Ethenyl-1,3-dioxolane", "2-Vinyl-1,3-dioxolane", "Acrolein ethylene acetal", "Acrolein ethylene ketal"], "SMILES": "C(=C)C1OCCO1", "physical_data": {"Molecular Weight": "100.12", "Molecular Formula": "C5H8O2", "Boiling Point": "112-116 \u00b0C", "Density": "0.9581 g/cm\u00b3 @ Temp: 20 \u00b0C"}}