{"cas_no": "39846-84-9", "cn_name": "5-\u785d\u57fa\u5421\u5511-3-\u7fa7\u9178\u4e59\u916f", "en_name": ["Ethyl 5-nitro-1H-pyrazole-3-carboxylate", "1H-Pyrazole-3-carboxylic acid, 5-nitro-, ethyl ester", "Ethyl 5-nitro-1H-pyrazole-3-carboxylate", "5-Nitro-3-pyrazolecarboxylic acid ethyl ester", "Ethyl 3-nitro-1H-pyrazole-5-carboxylate"], "SMILES": "C(OCC)(=O)C=1C=C(N(=O)=O)NN1", "physical_data": {"Molecular Weight": "185.14", "Molecular Formula": "C6H7N3O4", "Melting Point": "155 \u00b0C"}}