{"cas_no": "39856-57-0", "cn_name": "2,6-\u4e8c\u6eb4-3-\u6c28\u57fa\u5421\u5576", "en_name": ["2,6-Dibromo-3-pyridinamine", "3-Pyridinamine, 2,6-dibromo-", "2,6-Dibromo-3-pyridinamine", "3-Amino-2,6-dibromopyridine", "2,6-dibromo-3-pyridinamine"], "SMILES": "BrC1=C(N)C=CC(Br)=N1", "physical_data": {"Molecular Weight": "251.91", "Molecular Formula": "C5H4Br2N2", "Melting Point": "142 \u00b0C"}}