{"cas_no": "39856-50-3", "cn_name": "5-\u6eb4-2-\u785d\u57fa\u5421\u5576", "en_name": ["5-Bromo-2-nitropyridine", "Pyridine, 5-bromo-2-nitro-", "5-Bromo-2-nitropyridine", "3-Bromo-6-nitropyridine", "2-Nitro-5-bromopyridine"], "SMILES": "N(=O)(=O)C1=CC=C(Br)C=N1", "physical_data": {"Molecular Weight": "202.99", "Molecular Formula": "C5H3BrN2O2", "Melting Point": "149.5-150 \u00b0C"}}