{"cas_no": "39878-65-4", "cn_name": "D-4-\u7532\u6c27\u57fa\u82ef\u4e19\u6c28\u9178", "en_name": ["O-Methyl-D-tyrosine", "D-Tyrosine, O-methyl-", "O-Methyl-D-tyrosine", "D-O-Methyltyrosine", "D-4-Methoxyphenylalanine", "(R)-2-Amino-3-(4-methoxyphenyl)propionic acid", "(2R)-2-Amino-3-(4-methoxyphenyl)propanoic acid"], "SMILES": "C(C(C(O)=O)N)C1=CC=C(OC)C=C1", "physical_data": {"Molecular Weight": "195.22", "Molecular Formula": "C10H13NO3", "Melting Point": "262-263 \u00b0C (decomp)"}}