{"cas_no": "3987-92-6", "cn_name": "4-\u6c28\u57fa-3-\u785d\u57fa\u82ef\u7532\u9178\u7532\u916f", "en_name": ["Methyl 4-amino-3-nitrobenzoate", "Benzoic acid, 4-amino-3-nitro-, methyl ester", "4-Methoxycarbonyl-2-nitroaniline", "Methyl 4-amino-3-nitrobenzoate", "4-Amino-3-nitrobenzoic acid methyl ester", "Methyl 3-nitro-4-aminobenzoate", "1-Amino-2-nitro-4-(methoxycarbonyl)benzene", "2-Nitro-4-carbomethoxyaniline"], "SMILES": "C(OC)(=O)C1=CC(N(=O)=O)=C(N)C=C1", "physical_data": {"Molecular Weight": "196.16", "Molecular Formula": "C8H8N2O4", "Melting Point": "204-207 \u00b0C"}}