{"cas_no": "39870-05-8", "cn_name": "1-(\u5627\u5576-4-\u57fa)\u4e59\u916e", "en_name": ["1-(4-Pyrimidinyl)ethanone", "Ethanone, 1-(4-pyrimidinyl)-", "Ketone, methyl 4-pyrimidinyl", "1-(4-Pyrimidinyl)ethanone", "Methyl 4-pyrimidinyl ketone", "4-Pyrimidinyl methyl ketone", "Methyl 4-pyrimidyl ketone", "4-Acetylpyrimidine", "1-(Pyrimidin-4-yl)ethanone", "1-(Pyrimidin-4-yl)ethan-1-one"], "SMILES": "C(C)(=O)C=1C=CN=CN1", "physical_data": {"Molecular Weight": "122.12", "Molecular Formula": "C6H6N2O", "Boiling Point": "70 \u00b0C @ Press: 3 Torr", "Melting Point": "67 \u00b0C"}}