{"cas_no": "3987-53-9", "cn_name": "N-\u82c4\u57fa\u4e9a\u80fa\u4e8c\u4e59\u9178", "en_name": ["N-(Carboxymethyl)-N-(phenylmethyl)glycine", "Glycine, N-(carboxymethyl)-N-(phenylmethyl)-", "Acetic acid, (benzylimino)di-", "N-(Carboxymethyl)-N-(phenylmethyl)glycine", "N-Benzyliminodiacetic acid", "Benzyliminodiacetic acid", "Benzylbis(carboxymethyl)amine", "NSC 1003", "Imidodicarbonic acid, 2-(phenylmethyl)-", "(Benzyl-carboxymethyl-amino)-acetic acid", "2-[Benzyl(carboxymethyl)amino]acetic acid"], "SMILES": "N(CC1=CC=CC=C1)(CC(O)=O)CC(O)=O", "physical_data": {"Molecular Weight": "223.23", "Molecular Formula": "C11H13NO4", "Melting Point": "198 \u00b0C (decomp)"}}