{"cas_no": "39884-48-5", "cn_name": "4-\u6c28\u57fa-2-\u4e01\u9187", "en_name": ["4-Amino-2-butanol", "2-Butanol, 4-amino-", "4-Amino-2-butanol", "3-Hydroxybutylamine", "1-Aminobutan-3-ol", "3-Hydroxybutanamine", "3-Hydroxybutan-1-amine"], "SMILES": "C(C(C)O)CN", "physical_data": {"Molecular Weight": "89.14", "Molecular Formula": "C4H11NO", "Boiling Point": "78-86 \u00b0C @ Press: 11 Torr"}}