{"cas_no": "39885-50-2", "cn_name": "3-\u6c2f-4-\u6c28\u57fa\u4e09\u6c1f\u7532\u82ef", "en_name": ["2-Chloro-4-trifluoromethylaniline", "Benzenamine, 2-chloro-4-(trifluoromethyl)-", "2-Chloro-4-(trifluoromethyl)benzenamine", "2-Chloro-\u03b1,\u03b1,\u03b1-trifluoro-p-toluidine", "2-Chloro-4-trifluoromethylaniline", "2-Chloro-4-trifluoromethylphenylamine"], "SMILES": "C(F)(F)(F)C1=CC(Cl)=C(N)C=C1", "physical_data": {"Molecular Weight": "195.57", "Molecular Formula": "C7H5ClF3N", "Boiling Point": "89 \u00b0C @ Press: 0.5 Torr"}}