{"cas_no": "3988-03-2", "cn_name": "4,4'-\u4e8c\u6eb4\u4e8c\u82ef\u7532\u916e", "en_name": ["4,4\u2032-Dibromobenzophenone", "Methanone, bis(4-bromophenyl)-", "Benzophenone, 4,4\u2032-dibromo-", "Bis(4-bromophenyl)methanone", "p,p\u2032-Dibromobenzophenone", "Bis(p-bromophenyl) ketone", "4,4\u2032-Dibromobenzophenone", "Bis(4-bromophenyl) ketone", "NSC 86518"], "SMILES": "C(=O)(C1=CC=C(Br)C=C1)C2=CC=C(Br)C=C2", "physical_data": {"Molecular Weight": "340.01", "Molecular Formula": "C13H8Br2O", "Boiling Point": "395 \u00b0C", "Melting Point": "177 \u00b0C"}}