{"cas_no": "39891-09-3", "cn_name": "2-\u6c2f-5-\u5421\u5576\u4e59\u8148", "en_name": ["6-Chloro-3-pyridineacetonitrile", "3-Pyridineacetonitrile, 6-chloro-", "6-Chloro-3-pyridineacetonitrile", "6-Chloro-3-pyridylacetonitrile", "(6-Chloro-3-pyridinyl)acetonitrile", "2-(6-Chloro-3-pyridinyl)acetonitrile", "2-Chloro-5-pyridineacetonitrile", "2-Chloro-5-(cyanomethyl)pyridine"], "SMILES": "C(C#N)C=1C=CC(Cl)=NC1", "physical_data": {"Molecular Weight": "152.58", "Molecular Formula": "C7H5ClN2", "Boiling Point": "182 \u00b0C @ Press: 1 Torr", "Melting Point": "48-50 \u00b0C"}}