{"cas_no": "39891-04-8", "cn_name": "5-\u6c1f\u5421\u5576-3-\u7532\u919b", "en_name": ["5-Fluoronicotinaldehyde", "3-Pyridinecarboxaldehyde, 5-fluoro-", "5-Fluoro-3-pyridinecarboxaldehyde", "3-Fluoro-5-formylpyridine", "5-Fluoronicotinaldehyde", "3-Fluoropyridine-5-carboxaldehyde"], "SMILES": "C(=O)C=1C=C(F)C=NC1", "physical_data": {"Molecular Weight": "125.10", "Molecular Formula": "C6H4FNO", "Boiling Point": "71-76 \u00b0C @ Press: 10 Torr"}}