{"cas_no": "39890-45-4", "cn_name": "1-(2-\u54cc\u55ea-1-\u57fa\u4e59\u9170)\u5421\u54af\u70f7", "en_name": ["2-(1-Piperazinyl)-1-(1-pyrrolidinyl)ethanone", "Ethanone, 2-(1-piperazinyl)-1-(1-pyrrolidinyl)-", "Pyrrolidine, 1-(1-piperazinylacetyl)-", "2-(1-Piperazinyl)-1-(1-pyrrolidinyl)ethanone", "1-Pyrrolidinocarbonylmethylpiperazine", "1-(1-Pyrrolidinylcarbonylmethyl)piperazine", "1-[(1-Piperazinylmethyl)carbonyl]pyrrolidine", "N-Pyrrolidinocarbonylmethylpiperazine", "1-(1-Piperazinylacetyl)pyrrolidine", "N-[2-(1-Piperazinyl)acetyl]pyrrolidine", "2-(Piperazin-1-yl)-1-(pyrrolidin-1-yl)ethanone", "1-(2-Oxo-2-pyrrolidin-1-ylethyl)piperazine", "NSC 330748", "1-[2-(Piperazin-1-yl)acetyl]pyrrolidine", "1-(2-(Pyrrolidin-1-yl)-2-oxoethyl)piperazine", "2-(Piperazin-1-yl)-1-(pyrrolidin-1-yl)ethan-1-one"], "SMILES": "C(CN1CCNCC1)(=O)N2CCCC2", "physical_data": {"Molecular Weight": "197.28", "Molecular Formula": "C10H19N3O", "Melting Point": "90 \u00b0C"}}