{"cas_no": "3989-15-9", "cn_name": "2-[(\u4e09\u7532\u57fa\u7845\u57fa)\u4e59\u7094\u57fa]\u7532\u82ef", "en_name": ["1-Methyl-2-[2-(trimethylsilyl)ethynyl]benzene", "Benzene, 1-methyl-2-[2-(trimethylsilyl)ethynyl]-", "Silane, trimethyl(o-tolylethynyl)-", "Silane, trimethyl[(2-methylphenyl)ethynyl]-", "1-Methyl-2-[2-(trimethylsilyl)ethynyl]benzene", "2-Tolyl(trimethylsilyl)acetylene", "1-Methyl-2-(2-trimethylsilylethynyl)benzene", "2-[(Trimethylsilyl)ethynyl]toluene", "[(2-Methylphenyl)ethynyl]trimethylsilane"], "SMILES": "C(#C[Si](C)(C)C)C1=C(C)C=CC=C1", "physical_data": {"Molecular Weight": "188.34", "Molecular Formula": "C12H16Si", "Boiling Point": "50-58 \u00b0C @ Press: 0.5 Torr", "Density": "0.88 g/cm\u00b3"}}