{"cas_no": "3989-36-4", "cn_name": "1,2,3-\u567b\u91cd\u6c2e-4-\u7fa7\u9178\u4e59\u916f", "en_name": ["Ethyl 1,2,3-thiadiazole-4-carboxylate", "1,2,3-Thiadiazole-4-carboxylic acid, ethyl ester", "Ethyl 1,2,3-thiadiazole-4-carboxylate", "4-(Ethoxycarbonyl)-1,2,3-thiadiazole", "NSC 78612"], "SMILES": "C(OCC)(=O)C1=CSN=N1", "physical_data": {"Molecular Weight": "158.18", "Molecular Formula": "C5H6N2O2S", "Melting Point": "86-86.5 \u00b0C"}}