{"cas_no": "399-36-0", "cn_name": "2,4-\u4e8c\u6c1f\u4e59\u9170\u82ef\u80fa", "en_name": ["N-(2,4-Difluorophenyl)acetamide", "Acetamide, N-(2,4-difluorophenyl)-", "Acetanilide, 2\u2032,4\u2032-difluoro-", "N-(2,4-Difluorophenyl)acetamide", "2\u2032,4\u2032-Difluoroacetanilide", "N-Acetyl-2,4-difluoroaniline", "2,4-Difluoroacetanilide", "NSC 51780"], "SMILES": "N(C(C)=O)C1=C(F)C=C(F)C=C1", "physical_data": {"Molecular Weight": "171.14", "Molecular Formula": "C8H7F2NO", "Melting Point": "121-123 \u00b0C"}}