{"cas_no": "399-94-0", "cn_name": "2,5-\u4e8c\u6c1f\u6eb4\u82ef", "en_name": ["1-Bromo-2,5-difluorobenzene", "Benzene, 2-bromo-1,4-difluoro-", "2-Bromo-1,4-difluorobenzene", "1-Bromo-2,5-difluorobenzene", "2,5-Difluoro-1-bromobenzene", "2,5-Difluorobromobenzene", "NSC 10250"], "SMILES": "BrC1=C(F)C=CC(F)=C1", "physical_data": {"Molecular Weight": "192.99", "Molecular Formula": "C6H3BrF2", "Boiling Point": "58-58.5 \u00b0C @ Press: 20 Torr", "Melting Point": "~-31.5 \u00b0C (approx)"}}