{"cas_no": "399-67-7", "cn_name": "7-\u6c1f\u5432\u54da-2-\u7fa7\u9178", "en_name": ["7-Fluoro-1H-indole-2-carboxylic acid", "1H-Indole-2-carboxylic acid, 7-fluoro-", "Indole-2-carboxylic acid, 7-fluoro-", "7-Fluoro-1H-indole-2-carboxylic acid"], "SMILES": "FC1=C2C(C=C(C(O)=O)N2)=CC=C1", "physical_data": {"Molecular Weight": "179.15", "Molecular Formula": "C9H6FNO2", "Melting Point": "198 \u00b0C (decomp)"}}