{"cas_no": "399-75-7", "cn_name": "5-\u6c1f-2-\u7532\u57fa\u82ef\u5e76\u567b\u5511", "en_name": ["5-Fluoro-2-methylbenzothiazole", "Benzothiazole, 5-fluoro-2-methyl-", "5-Fluoro-2-methylbenzothiazole", "5-Fluoro-2-methyl-1,3-benzothiazole"], "SMILES": "CC=1SC=2C(N1)=CC(F)=CC2", "physical_data": {"Molecular Weight": "167.20", "Molecular Formula": "C8H6FNS", "Boiling Point": "110-112 \u00b0C @ Press: 7 Torr"}}