{"cas_no": "399-52-0", "cn_name": "5-\u6c1f\u5432\u54da", "en_name": ["5-Fluoroindole", "1H-Indole, 5-fluoro-", "Indole, 5-fluoro-", "5-Fluoro-1H-indole", "5-Fluoroindole", "NSC 88613"], "SMILES": "FC=1C=C2C(=CC1)NC=C2", "physical_data": {"Molecular Weight": "135.14", "Molecular Formula": "C8H6FN", "Melting Point": "46 \u00b0C"}}