{"cas_no": "399-25-7", "cn_name": "1-(2-\u6c1f\u82ef\u57fa)-2-\u785d\u57fa\u4e59\u70ef", "en_name": ["1-Fluoro-2-(2-nitroethenyl)benzene", "Benzene, 1-fluoro-2-(2-nitroethenyl)-", "Styrene, o-fluoro-\u03b2-nitro-", "1-Fluoro-2-(2-nitroethenyl)benzene", "o-Fluoro-\u03b2-nitrostyrene", "NSC 170713", "1-(2-Fluorophenyl)-2-nitroethene", "1-Fluoro-2-(2-nitrovinyl)benzene"], "SMILES": "C(=CN(=O)=O)C1=C(F)C=CC=C1", "physical_data": {"Molecular Weight": "167.14", "Molecular Formula": "C8H6FNO2", "Melting Point": "56.5-57.5 \u00b0C"}}