{"cas_no": "399-68-8", "cn_name": "4-\u6c1f\u5432\u54da-2-\u7532\u9178", "en_name": ["4-Fluoro-1H-indole-2-carboxylic acid", "1H-Indole-2-carboxylic acid, 4-fluoro-", "Indole-2-carboxylic acid, 4-fluoro-", "4-Fluoro-1H-indole-2-carboxylic acid"], "SMILES": "FC1=C2C(NC(C(O)=O)=C2)=CC=C1", "physical_data": {"Molecular Weight": "179.15", "Molecular Formula": "C9H6FNO2", "Melting Point": "219-220 \u00b0C (decomp)"}}