{"cas_no": "399-95-1", "cn_name": "3-\u6c1f-4-\u6c28\u57fa\u82ef\u915a", "en_name": ["4-Amino-3-fluorophenol", "Phenol, 4-amino-3-fluoro-", "4-Amino-3-fluorophenol", "3-Fluoro-4-aminophenol", "2-Fluoro-4-hydroxyaniline", "2-Fluoro-4-hydroxylaniline"], "SMILES": "FC1=C(N)C=CC(O)=C1", "physical_data": {"Molecular Weight": "127.12", "Molecular Formula": "C6H6FNO", "Melting Point": "139 \u00b0C"}}