{"cas_no": "399-31-5", "cn_name": "2-\u6c1f\u4e59\u9170\u82ef\u80fa", "en_name": ["2\u2032-Fluoroacetanilide", "Acetamide, N-(2-fluorophenyl)-", "Acetanilide, 2\u2032-fluoro-", "N-(2-Fluorophenyl)acetamide", "2\u2032-Fluoroacetanilide", "o-Fluoroacetanilide", "NSC 51783"], "SMILES": "N(C(C)=O)C1=C(F)C=CC=C1", "physical_data": {"Molecular Weight": "153.15", "Molecular Formula": "C8H8FNO", "Boiling Point": "141 \u00b0C", "Melting Point": "78 \u00b0C"}}