{"cas_no": "399-72-4", "cn_name": "5-\u6c1f-2-\u7532\u57fa\u5432\u54da", "en_name": ["5-Fluoro-2-methylindole", "1H-Indole, 5-fluoro-2-methyl-", "Indole, 5-fluoro-2-methyl-", "5-Fluoro-2-methyl-1H-indole", "5-Fluoro-2-methylindole"], "SMILES": "CC=1NC=2C(C1)=CC(F)=CC2", "physical_data": {"Molecular Weight": "149.16", "Molecular Formula": "C9H8FN", "Boiling Point": "112-120 \u00b0C @ Press: 0.1 Torr", "Melting Point": "102 \u00b0C"}}