{"cas_no": "399-54-2", "cn_name": "4-\u6c1f-2-\u7532\u57fa\u82ef\u7532\u919a", "en_name": ["4-Fluoro-1-methoxy-2-methylbenzene", "Benzene, 4-fluoro-1-methoxy-2-methyl-", "4-Fluoro-1-methoxy-2-methylbenzene", "2-Methyl-4-fluoroanisole", "4-Fluoro-2-methylanisole"], "SMILES": "O(C)C1=C(C)C=C(F)C=C1", "physical_data": {"Molecular Weight": "140.15", "Molecular Formula": "C8H9FO", "Boiling Point": "62.5-63 \u00b0C @ Press: 11 Torr"}}