{"cas_no": "399-73-5", "cn_name": "6-\u6c1f-2-\u7532\u57fa\u82ef\u5e76\u567b\u5511", "en_name": ["6-Fluoro-2-methylbenzothiazole", "Benzothiazole, 6-fluoro-2-methyl-", "6-Fluoro-2-methylbenzothiazole", "2-Methyl-6-fluorobenzothiazole"], "SMILES": "CC1=NC=2C(S1)=CC(F)=CC2", "physical_data": {"Molecular Weight": "167.20", "Molecular Formula": "C8H6FNS", "Melting Point": "112-114 \u00b0C"}}