{"cas_no": "399-97-3", "cn_name": "2-\u6c28\u57fa-4-\u6c1f\u82ef\u915a", "en_name": ["2-Amino-4-fluorophenol", "Phenol, 2-amino-4-fluoro-", "2-Amino-4-fluorophenol", "5-Fluoro-2-hydroxyaniline", "4-Fluoro-2-aminophenol"], "SMILES": "NC1=C(O)C=CC(F)=C1", "physical_data": {"Molecular Weight": "127.12", "Molecular Formula": "C6H6FNO", "Melting Point": "145-146 \u00b0C"}}