{"cas_no": "399-76-8", "cn_name": "5-\u6c1f\u5432\u54da-2-\u7fa7\u9178", "en_name": ["5-Fluoroindole-2-carboxylic acid", "1H-Indole-2-carboxylic acid, 5-fluoro-", "Indole-2-carboxylic acid, 5-fluoro-", "5-Fluoro-1H-indole-2-carboxylic acid", "5-Fluoroindole-2-carboxylic acid", "2-Carboxy-5-fluoroindole"], "SMILES": "C(O)(=O)C=1NC=2C(C1)=CC(F)=CC2", "physical_data": {"Molecular Weight": "179.15", "Molecular Formula": "C9H6FNO2", "Melting Point": "248-249 \u00b0C (decomp)"}}