{"cas_no": "39905-57-2", "cn_name": "4-\u5e9a\u6c27\u57fa\u82ef\u80fa", "en_name": ["4-(Hexyloxy)aniline", "Benzenamine, 4-(hexyloxy)-", "Aniline, p-(hexyloxy)-", "4-(Hexyloxy)benzenamine", "4-(Hexyloxy)aniline", "p-(Hexyloxy)aniline", "4-(n-Hexyloxy)aniline", "4-Hexyloxyphenylamine", "1-Amino-4-(hexyloxy)benzene"], "SMILES": "O(CCCCCC)C1=CC=C(N)C=C1", "physical_data": {"Molecular Weight": "193.29", "Molecular Formula": "C12H19NO", "Boiling Point": "153-155 \u00b0C @ Press: 0.5 Torr", "Melting Point": "62-63 \u00b0C"}}