{"cas_no": "39903-01-0", "cn_name": "2-\u6c28\u57fa-5-\u6eb4-3-\u7f9f\u57fa\u5421\u5576", "en_name": ["2-Amino-5-bromo-3-hydroxypyridine", "3-Pyridinol, 2-amino-5-bromo-", "2-Amino-5-bromo-3-pyridinol", "2-Amino-3-hydroxy-5-bromopyridine", "2-Amino-5-bromo-3-hydroxypyridine", "5-Bromo-3-hydroxy-2-aminopyridine"], "SMILES": "OC1=C(N)N=CC(Br)=C1", "physical_data": {"Molecular Weight": "189.01", "Molecular Formula": "C5H5BrN2O", "Melting Point": "205 \u00b0C"}}