{"cas_no": "39905-50-5", "cn_name": "4-\u620a\u6c27\u57fa\u82ef\u80fa", "en_name": ["4-(Pentyloxy)benzenamine", "Benzenamine, 4-(pentyloxy)-", "Aniline, p-pentyloxy-", "4-(Pentyloxy)benzenamine", "p-(n-Pentoxy)aniline", "4-(Pentyloxy)aniline", "p-(Pentyloxy)aniline", "4-Pentoxyaniline", "p-Aminophenyl pentyl ether", "4-Pentyloxyphenylamine"], "SMILES": "O(CCCCC)C1=CC=C(N)C=C1", "physical_data": {"Molecular Weight": "179.26", "Molecular Formula": "C11H17NO", "Boiling Point": "180 \u00b0C @ Press: 24 Torr"}}