{"cas_no": "39906-04-2", "cn_name": "2-\u7532\u57fa-4,6-\u4e8c\u6c2f-5-\u6c28\u57fa\u5627\u5576", "en_name": ["4,6-Dichloro-2-methyl-5-pyrimidinamine", "5-Pyrimidinamine, 4,6-dichloro-2-methyl-", "Pyrimidine, 5-amino-4,6-dichloro-2-methyl-", "4,6-Dichloro-2-methyl-5-pyrimidinamine", "5-Amino-4,6-dichloro-2-methylpyrimidine", "4,6-Dichloro-2-methylpyrimidin-5-amine", "2-Methyl-4,6-dichloro-5-aminopyrimidine", "4,6-Dichloro-2-methylpyrimidin-5-ylamine"], "SMILES": "NC=1C(Cl)=NC(C)=NC1Cl", "physical_data": {"Molecular Weight": "178.02", "Molecular Formula": "C5H5Cl2N3", "Melting Point": "70-72 \u00b0C"}}