{"cas_no": "39903-21-4", "cn_name": "29-\u7f9f\u57fa\u65e0\u7f81\u841c-3-\u916e", "en_name": ["3-Oxo-29-hydroxyfriedelane", "24,25,26-Trinoroleanan-3-one, 29-hydroxy-5,9,13-trimethyl-, (4\u03b2,5\u03b2,8\u03b1,9\u03b2,10\u03b1,13\u03b1,14\u03b2,20\u03b1)-", "D:A-Friedooleanan-3-one, 29-hydroxy-, (20\u03b1)-", "(4\u03b2,5\u03b2,8\u03b1,9\u03b2,10\u03b1,13\u03b1,14\u03b2,20\u03b1)-29-Hydroxy-5,9,13-trimethyl-24,25,26-trinoroleanan-3-one", "(20\u03b1)-29-Hydroxy-D:A-friedooleanan-3-one", "3-Oxo-29-hydroxyfriedelane", "3(2H)-Picenone, eicosahydro-11-(hydroxymethyl)-4,4a,6b,8a,11,12b,14a-heptamethyl-, (4R,4aS,6aS,6bR,8aS,11R,12aR,12bS,14aS,14bS)-", "29-Hydroxyfriedelan-3-one", "Friedelane-3-one-29-ol", "29-Hydroxyfriedelin"], "SMILES": "CC12C(C)(C3C(C)(CC1)CCC(CO)(C)C3)CCC4(C)C2CCC5(C)C4CCC(=O)C5C", "physical_data": {"Molecular Weight": "442.72", "Molecular Formula": "C30H50O2", "Melting Point": "262-265 \u00b0C"}}