{"cas_no": "39910-98-0", "cn_name": "4-\u5417\u5549\u57fa\u82ef\u4e19\u916e", "en_name": ["4\u2032-Morpholinoacetophenone", "Ethanone, 1-[4-(4-morpholinyl)phenyl]-", "Acetophenone, 4\u2032-morpholino-", "1-[4-(4-Morpholinyl)phenyl]ethanone", "4\u2032-Morpholinoacetophenone", "N-(4-Acetylphenyl)morpholine", "4-(4-Morpholinyl)acetophenone", "4\u2032-Morpholin-4-ylacetophenone", "1-(4-Morpholinophenyl)ethanone", "4-(4-Acetylphenyl)morpholine", "1-(4-Morpholinophenyl)ethan-1-one", "1-[4-(Morpholin-4-yl)phenyl]ethan-1-one"], "SMILES": "C(C)(=O)C1=CC=C(C=C1)N2CCOCC2", "physical_data": {"Molecular Weight": "205.25", "Molecular Formula": "C12H15NO2", "Melting Point": "95-96 \u00b0C"}}