{"cas_no": "39929-79-8", "cn_name": "2,4-\u4e8c\u7f9f\u57fa\u5421\u54af[2,3-d]\u5627\u5576", "en_name": ["7-Deazaxanthine", "1H-Pyrrolo[2,3-d]pyrimidine-2,4(3H,7H)-dione", "7H-Pyrrolo[2,3-d]pyrimidine-2,4-diol", "7-Deazaxanthine", "1,7-Dihydropyrrolo[2,3-d]pyrimidine-2,4-dione", "1,7-Dihydro-pyrrolo[2,3-d]pyrimidine-2,4-dione"], "SMILES": "O=C1C2=C(NC(=O)N1)NC=C2", "physical_data": {"Molecular Weight": "151.12", "Molecular Formula": "C6H5N3O2", "Melting Point": "&gt;330 \u00b0C"}}