{"cas_no": "3992-42-5", "cn_name": "2'-\u8131\u6c27\u80de\u82f7\u76d0\u9178\u76d0", "en_name": ["2\u2032-Deoxycytidine hydrochloride", "Cytidine, 2\u2032-deoxy-, hydrochloride (1:1)", "Cytidine, 2\u2032-deoxy-, monohydrochloride", "2\u2032-Deoxycytidine hydrochloride", "2\u2032-Deoxycytidine monohydrochloride", "Deoxycytidine hydrochloride", "NSC 83251"], "SMILES": "O=C1N(C2OC(CO)C(O)C2)C=CC(N)=N1.Cl", "physical_data": {"Molecular Weight": "", "Molecular Formula": "C9H13N3O4.ClH", "Melting Point": "163 \u00b0C"}}