{"cas_no": "39924-52-2", "cn_name": "\u7532\u57fa\u8309\u8389\u916e\u9178\u916f", "en_name": ["Methyl 3-oxo-2-(2-penten-1-yl)cyclopentaneacetate", "Cyclopentaneacetic acid, 3-oxo-2-(2-penten-1-yl)-, methyl ester", "Cyclopentaneacetic acid, 3-oxo-2-(2-pentenyl)-, methyl ester", "Methyl 3-oxo-2-(2-penten-1-yl)cyclopentaneacetate", "Methyl 2-pentenyl-3-oxocyclopentaneacetate", "Methyl 2-(3-oxo-2-pent-2-enylcyclopentyl)acetate"], "SMILES": "C(C(OC)=O)C1C(CC=CCC)C(=O)CC1", "physical_data": {"Molecular Weight": "224.30", "Molecular Formula": "C13H20O3", "Boiling Point": "78 \u00b0C @ Press: 0.2 mmHg"}}