{"cas_no": "39920-37-1", "cn_name": "2,6-\u4e8c\u6c2f\u82ef\u57fa\u5f02\u6c30\u9178\u916f", "en_name": ["2,6-Dichlorophenyl isocyanate", "Benzene, 1,3-dichloro-2-isocyanato-", "1,3-Dichloro-2-isocyanatobenzene", "2,6-Dichlorophenyl isocyanate"], "SMILES": "N(=C=O)C1=C(Cl)C=CC=C1Cl", "physical_data": {"Molecular Weight": "188.01", "Molecular Formula": "C7H3Cl2NO", "Melting Point": "40-45 \u00b0C"}}