{"cas_no": "39925-10-5", "cn_name": "1-(2 3 5-TRI-O-ACETYL-BETA-D-", "en_name": ["Methyl 1-(2,3,5-tri-O-acetyl-\u03b2-D-ribofuranosyl)-1H-1,2,4-triazole-3-carboxylate", "1H-1,2,4-Triazole-3-carboxylic acid, 1-(2,3,5-tri-O-acetyl-\u03b2-D-ribofuranosyl)-, methyl ester", "Methyl 1-(2,3,5-tri-O-acetyl-\u03b2-D-ribofuranosyl)-1H-1,2,4-triazole-3-carboxylate", "Methyl 1-(2,3,5-tri-O-acetyl-\u03b2-D-ribofuranosyl)-1,2,4-triazole-3-carboxylate", "1-(2,3,5-Tri-O-acetyl-\u03b2-D-ribofuranosyl)-1,2,4-triazole-3-carboxylic acid methyl ester"], "SMILES": "O(C(C)=O)C1C(OC(COC(C)=O)C1OC(C)=O)N2N=C(C(OC)=O)N=C2", "physical_data": {"Molecular Weight": "385.33", "Molecular Formula": "C15H19N3O9", "Melting Point": "106-108 \u00b0C"}}