{"cas_no": "39931-77-6", "cn_name": "3-\u5421\u5576\u4e59\u9178\u4e59\u916f", "en_name": ["3-Pyridineacetic acid, ethyl ester", "3-Pyridineacetic acid, ethyl ester", "Ethyl 3-pyridineacetate", "Ethyl 3-pyridylacetate", "Ethyl 3-pyridinylacetate", "NSC 76091", "2-(Pyridin-3-yl)acetic acid ethyl ester", "Pyridin-3-ylacetic acid ethyl ester", "Ethyl 2-(pyridin-3-yl)acetate", "(3-Pyridyl)acetic acid ethyl ester"], "SMILES": "C(C(OCC)=O)C=1C=CC=NC1", "physical_data": {"Molecular Weight": "165.19", "Molecular Formula": "C9H11NO2", "Boiling Point": "124 \u00b0C @ Press: 12 Torr"}}