{"cas_no": "3994-50-1", "cn_name": "1-\u7532\u57fa-4-\u785d\u57fa\u5421\u5511", "en_name": ["1-Methyl-4-nitro-1H-pyrazole", "1H-Pyrazole, 1-methyl-4-nitro-", "Pyrazole, 1-methyl-4-nitro-", "1-Methyl-4-nitro-1H-pyrazole", "1-Methyl-4-nitropyrazole"], "SMILES": "N(=O)(=O)C1=CN(C)N=C1", "physical_data": {"Molecular Weight": "127.10", "Molecular Formula": "C4H5N3O2", "Melting Point": "91-92 \u00b0C"}}