{"cas_no": "39959-59-6", "cn_name": "4-\u7898\u82c4\u80fa", "en_name": ["4-Iodobenzylamine", "Benzenemethanamine, 4-iodo-", "Benzylamine, p-iodo-", "4-Iodobenzenemethanamine", "4-Iodobenzylamine", "(4-Iodophenyl)methanamine"], "SMILES": "C(N)C1=CC=C(I)C=C1", "physical_data": {"Molecular Weight": "233.05", "Molecular Formula": "C7H8IN", "Boiling Point": "113-115 \u00b0C @ Press: 4 Torr", "Melting Point": "45 \u00b0C"}}