{"cas_no": "39959-51-8", "cn_name": "2-\u7898\u82c4\u80fa", "en_name": ["2-Iodobenzenemethanamine", "Benzenemethanamine, 2-iodo-", "Benzylamine, o-iodo-", "2-Iodobenzenemethanamine", "2-Iodobenzylamine", "o-Iodobenzylamine", "1-(2-Iodophenyl)methanamine", "(2-Iodophenyl)methanamine"], "SMILES": "C(N)C1=C(I)C=CC=C1", "physical_data": {"Molecular Weight": "233.05", "Molecular Formula": "C7H8IN", "Melting Point": "63-65 \u00b0C"}}