{"cas_no": "39959-72-3", "cn_name": "1-\u73af\u4e19\u57fa-1-\u82ef\u57fa\u7532\u80fa\u76d0\u9178\u76d0", "en_name": ["Benzenemethanamine, \u03b1-cyclopropyl-, hydrochloride (1:1)", "Benzenemethanamine, \u03b1-cyclopropyl-, hydrochloride (1:1)", "Benzenemethanamine, \u03b1-cyclopropyl-, hydrochloride", "Benzylamine, \u03b1-cyclopropyl-, hydrochloride", "[Cyclopropyl(phenyl)methyl]amine hydrochloride", "1-Cyclopropyl-1-phenylmethanamine hydrochloride"], "SMILES": "C(N)(C1CC1)C2=CC=CC=C2.Cl", "physical_data": {"Molecular Weight": "", "Molecular Formula": "C10H13N.ClH", "Melting Point": "235-236 \u00b0C"}}