{"cas_no": "39968-33-7", "cn_name": "N-\u7f9f\u57fa-7-\u6c2e\u6742\u82ef\u5e76\u4e09\u6c2e\u5511", "en_name": ["HOAt", "3H-1,2,3-Triazolo[4,5-b]pyridine, 3-hydroxy-", "3-Hydroxy-3H-1,2,3-triazolo[4,5-b]pyridine", "1-Hydroxy-1H-v-triazolo[4,5-b]pyridine", "1-Hydroxy-7-azabenzotriazole", "7-Aza-1-hydroxybenzotriazole", "HOAt", "[1,2,3]Triazolo[4,5-b]pyridin-3-ol", "1-Hydroxyl-7-azabenzotriazole", "3H-[1,2,3]Triazolo[4,5-b]pyridin-3-ol", "N-Hydroxy-7-azabenzotriazole", "3-Hydroxytriazolo[4,5-b]pyridine"], "SMILES": "ON1C=2C(=CC=CN2)N=N1", "physical_data": {"Molecular Weight": "136.11", "Molecular Formula": "C5H4N4O", "Melting Point": "215-217 \u00b0C", "Density": "1.603 g/cm\u00b3"}}