{"cas_no": "39961-95-0", "cn_name": "(1R,2R)-(+)-1,2-\u73af\u5df1\u4e8c\u80fa L-\u9152\u77f3\u9178\u76d0", "en_name": ["(R,R)-1,2-Diammoniumcyclohexane mono-(+)-tartrate", "1,2-Cyclohexanediamine, (1R,2R)-, (2R,3R)-2,3-dihydroxybutanedioate (1:1)", "1,2-Cyclohexanediamine, (1R-trans)-, [R-(R*,R*)]-2,3-dihydroxybutanedioate (1:1)", "trans-(R,R)-1,2-Cyclohexanediammonium (+)-tartrate", "(R,R)-1,2-Diaminocyclohexane tartrate (1:1)", "(1R,2R)-Diaminocyclohexane L-tartrate", "(R,R)-1,2-Diaminocyclohexane L-tartrate", "(R,R)-1,2-Cyclohexanediamine (+)-tartrate (1:1)", "(R,R)-1,2-Diammoniumcyclohexane mono-(+)-tartrate", "(R,R)-1,2-Cyclohexanediamine (+)-tartrate", "(1R,2R)-1,2-Diaminocyclohexane L-tartaric acid salt", "(1R,2R)-1,2-Cyclohexanediamine L-tartrate", "(R,R)-Cyclohexane-1,2-diammonium (R,R)-tartrate"], "SMILES": "C(C(C(O)=O)O)(C(O)=O)O.NC1C(N)CCCC1", "physical_data": {"Molecular Weight": "", "Molecular Formula": "C6H14N2.C4H6O6", "Melting Point": "252.5-256 \u00b0C"}}