{"cas_no": "39969-28-3", "cn_name": "1-\u620a\u57fa-4-[2-(4-\u7532\u6c27\u82ef\u57fa)\u4e59\u7094\u57fa]\u82ef", "en_name": ["1-Methoxy-4-[2-(4-pentylphenyl)ethynyl]benzene", "Benzene, 1-methoxy-4-[2-(4-pentylphenyl)ethynyl]-", "Benzene, 1-methoxy-4-[(4-pentylphenyl)ethynyl]-", "1-Methoxy-4-[2-(4-pentylphenyl)ethynyl]benzene", "p-[(p-Pentylphenyl)ethynyl]anisole", "(p-Methoxyphenyl)(p-pentylphenyl)acetylene", "p-Methoxy-p\u2032-pentyltolane", "4-Methoxy-4\u2032-pentyltolan", "p-Methoxy-p\u2032-pentyltolan", "4-Methoxy-4\u2032-amyltolan", "4-Pentyl-4\u2032-methoxytolane", "5-Btb-o1", "1-Methoxy-4-[(4-pentylphenyl)ethynyl]benzene"], "SMILES": "C(#CC1=CC=C(OC)C=C1)C2=CC=C(CCCCC)C=C2", "physical_data": {"Molecular Weight": "278.39", "Molecular Formula": "C20H22O", "Melting Point": "44-45 \u00b0C"}}