{"cas_no": "39977-44-1", "cn_name": "6-\u7f9f\u7532\u57fa\u5421\u5576-2-\u7fa7\u9178\u7532\u916f", "en_name": ["Methyl 6-(hydroxymethyl)picolinate", "2-Pyridinecarboxylic acid, 6-(hydroxymethyl)-, methyl ester", "Methyl 6-(hydroxymethyl)picolinate", "2-(Hydroxymethyl)-6-methoxycarbonylpyridine", "Methyl 6-(hydroxymethyl)-2-pyridinecarboxylate", "6-(Hydroxymethyl)picolinic acid methyl ester"], "SMILES": "C(OC)(=O)C=1N=C(CO)C=CC1", "physical_data": {"Molecular Weight": "167.16", "Molecular Formula": "C8H9NO3", "Melting Point": "178 \u00b0C"}}