{"cas_no": "39994-75-7", "cn_name": "L-\u82cf\u6c28\u9178\u7532\u916f\u76d0\u9178\u76d0", "en_name": ["L-Threonine, methyl ester, hydrochloride (1:1)", "L-Threonine, methyl ester, hydrochloride (1:1)", "L-Threonine, methyl ester, hydrochloride", "Threonine, methyl ester, hydrochloride, L-", "Methyl L-threoninate hydrochloride", "Methyl (2S,3R)-2-amino-3-hydroxybutanoate hydrochloride", "(2S,3R)-2-Amino-3-hydroxybutanoic acid methyl ester hydrochloride"], "SMILES": "C(C(OC)=O)(C(C)O)N.Cl", "physical_data": {"Molecular Weight": "", "Molecular Formula": "C5H11NO3.ClH", "Melting Point": "122-124 \u00b0C"}}