{"cas_no": "39998-25-9", "cn_name": "\u5421\u5576\u57fa-3-\u4e59\u9178\u7532\u916f", "en_name": ["3-Pyridineacetic acid, methyl ester", "3-Pyridineacetic acid, methyl ester", "Methyl 3-pyridylacetate", "Methyl 3-pyridineacetate", "NSC 75852", "Methyl pyridin-3-ylacetate", "Methyl 2-(pyridin-3-yl)acetate"], "SMILES": "C(C(OC)=O)C=1C=CC=NC1", "physical_data": {"Molecular Weight": "151.16", "Molecular Formula": "C8H9NO2", "Boiling Point": "112 \u00b0C @ Press: 10 Torr"}}