{"cas_no": "400-93-1", "cn_name": "4'-\u6c1f-3'-\u785d\u57fa\u82ef\u4e59\u916e", "en_name": ["1-(4-Fluoro-3-nitrophenyl)ethanone", "Ethanone, 1-(4-fluoro-3-nitrophenyl)-", "Acetophenone, 4\u2032-fluoro-3\u2032-nitro-", "1-(4-Fluoro-3-nitrophenyl)ethanone", "4\u2032-Fluoro-3\u2032-nitroacetophenone", "4-Acetyl-1-fluoro-2-nitrobenzene", "3-Nitro-4-fluoroacetophenone", "1-(3-Nitro-4-fluorophenyl)ethan-1-one"], "SMILES": "N(=O)(=O)C1=CC(C(C)=O)=CC=C1F", "physical_data": {"Molecular Weight": "183.14", "Molecular Formula": "C8H6FNO3", "Melting Point": "49-50 \u00b0C"}}