{"cas_no": "400-70-4", "cn_name": "2,4-\u4e8c\u6c2f-5-\u785d\u57fa\u4e09\u6c1f\u7532\u57fa\u82ef", "en_name": ["2,4-Dichloro-5-nitrobenzotrifluoride", "Benzene, 1,5-dichloro-2-nitro-4-(trifluoromethyl)-", "Toluene, 2,4-dichloro-\u03b1,\u03b1,\u03b1-trifluoro-5-nitro-", "1,5-Dichloro-2-nitro-4-(trifluoromethyl)benzene", "2,4-Dichloro-5-nitrobenzotrifluoride", "2,4-Dichloro-5-nitro-1-(trifluoromethyl)benzene", "3-Nitro-4,6-dichlorobenzotrifluoride", "2,4-Dichloro-5-(trifluoromethyl)nitrobenzene", "3-Trifluoromethyl-4,6-dichloronitrobenzene"], "SMILES": "C(F)(F)(F)C1=CC(N(=O)=O)=C(Cl)C=C1Cl", "physical_data": {"Molecular Weight": "260.00", "Molecular Formula": "C7H2Cl2F3NO2", "Melting Point": "53-54 \u00b0C"}}