{"cas_no": "400-54-4", "cn_name": "1,1,1-\u4e09\u6c1f-2,4-\u5df1\u4e8c\u916e", "en_name": ["1,1,1-Trifluoro-2,4-hexanedione", "2,4-Hexanedione, 1,1,1-trifluoro-", "1,1,1-Trifluoro-2,4-hexanedione"], "SMILES": "C(CC(CC)=O)(C(F)(F)F)=O", "physical_data": {"Molecular Weight": "168.11", "Molecular Formula": "C6H7F3O2", "Boiling Point": "124 \u00b0C @ Press: 755 Torr", "Density": "1.22 g/cm\u00b3"}}