{"cas_no": "400-67-9", "cn_name": "2-\u6c2f-4-\u785d\u57fa-6-(\u4e09\u6c1f\u7532\u57fa)\u82ef\u80fa", "en_name": ["2-Chloro-4-nitro-6-(trifluoromethyl)benzenamine", "Benzenamine, 2-chloro-4-nitro-6-(trifluoromethyl)-", "o-Toluidine, 6-chloro-\u03b1,\u03b1,\u03b1-trifluoro-4-nitro-", "2-Chloro-4-nitro-6-(trifluoromethyl)benzenamine", "2-Chloro-4-nitro-6-trifluoromethylphenylamine", "2-Chloro-4-nitro-6-trifluoromethylaniline", "2-Amino-3-chloro-5-nitrobenzotrifluoride"], "SMILES": "C(F)(F)(F)C1=CC(N(=O)=O)=CC(Cl)=C1N", "physical_data": {"Molecular Weight": "240.57", "Molecular Formula": "C7H4ClF3N2O2", "Melting Point": "115-116 \u00b0C"}}