{"cas_no": "400-53-3", "cn_name": "\u4e09\u7532\u57fa\u4e09\u6c1f\u4e59\u9178", "en_name": ["Acetic acid, 2,2,2-trifluoro-, trimethylsilyl ester", "Acetic acid, 2,2,2-trifluoro-, trimethylsilyl ester", "Acetic acid, trifluoro-, trimethylsilyl ester", "Silanol, trimethyl-, trifluoroacetate", "Trimethyl(trifluoroacetato)silane", "Trimethylsilyl trifluoroacetate", "Trimethyl(trifluoroacetoxy)silane", "(Trifluoroacetoxy)trimethylsilane"], "SMILES": "C(O[Si](C)(C)C)(C(F)(F)F)=O", "physical_data": {"Molecular Weight": "186.20", "Molecular Formula": "C5H9F3O2Si", "Boiling Point": "88-90 \u00b0C", "Density": "1.078 g/cm\u00b3"}}