{"cas_no": "400-74-8", "cn_name": "2-\u6c1f-5-\u785d\u57fa\u4e09\u6c1f\u7532\u82ef", "en_name": ["2-Fluoro-5-nitrobenzotrifluoride", "Benzene, 1-fluoro-4-nitro-2-(trifluoromethyl)-", "Toluene, \u03b1,\u03b1,\u03b1,2-tetrafluoro-5-nitro-", "1-Fluoro-4-nitro-2-(trifluoromethyl)benzene", "3-(Trifluoromethyl)-4-fluoronitrobenzene", "2-Fluoro-5-nitrobenzotrifluoride", "2-Fluoro-5-nitro-1-(trifluoromethyl)benzene", "5-Nitro-2-fluorobenzotrifluoride", "1-Fluoro-4-nitro-2-trifluoromethylbenzene", "4-Fluoro-3-trifluoromethylnitrobenzene", "NSC 10302", "4-Fluoro-3-trifluoromethyl-1-nitrobenzene", "4-Nitro-2-(trifluoromethyl)fluorobenzene", "1-Fluoro-2-(trifluoromethyl)-4-nitrobenzene"], "SMILES": "C(F)(F)(F)C1=CC(N(=O)=O)=CC=C1F", "physical_data": {"Molecular Weight": "209.10", "Molecular Formula": "C7H3F4NO2", "Boiling Point": "105-110 \u00b0C @ Press: 25 Torr"}}