{"cas_no": "400-75-9", "cn_name": "2-\u7898-5-\u785d\u57fa\u4e09\u6c1f\u7532\u82ef", "en_name": ["1-Iodo-4-nitro-2-(trifluoromethyl)benzene", "Benzene, 1-iodo-4-nitro-2-(trifluoromethyl)-", "Toluene, \u03b1,\u03b1,\u03b1-trifluoro-2-iodo-5-nitro-", "1-Iodo-4-nitro-2-(trifluoromethyl)benzene", "3-(Trifluoromethyl)-4-iodonitrobenzene", "4-Iodo-3-trifluoromethylnitrobenzene"], "SMILES": "C(F)(F)(F)C1=CC(N(=O)=O)=CC=C1I", "physical_data": {"Molecular Weight": "317.00", "Molecular Formula": "C7H3F3INO2", "Melting Point": "82 \u00b0C"}}