{"cas_no": "400-76-0", "cn_name": "4-\u6c28\u57fa-3-\u4e09\u6c1f\u7532\u57fa\u82ef\u7532\u9178", "en_name": ["4-Amino-3-(trifluoromethyl)benzoic acid", "Benzoic acid, 4-amino-3-(trifluoromethyl)-", "m-Toluic acid, 4-amino-\u03b1,\u03b1,\u03b1-trifluoro-", "4-Amino-3-(trifluoromethyl)benzoic acid", "4-Amino-5-trifluoromethylbenzoic acid"], "SMILES": "C(F)(F)(F)C1=CC(C(O)=O)=CC=C1N", "physical_data": {"Molecular Weight": "205.13", "Molecular Formula": "C8H6F3NO2", "Melting Point": "206-207 \u00b0C"}}