{"cas_no": "400-38-4", "cn_name": "\u4e09\u6c1f\u4e59\u9178\u5f02\u4e19\u916f", "en_name": ["Isopropyl trifluoroacetate", "Acetic acid, 2,2,2-trifluoro-, 1-methylethyl ester", "Acetic acid, trifluoro-, isopropyl ester", "Acetic acid, trifluoro-, 1-methylethyl ester", "Isopropyl trifluoroacetate", "Trifluoroacetic acid isopropyl ester"], "SMILES": "C(OC(C)C)(C(F)(F)F)=O", "physical_data": {"Molecular Weight": "156.10", "Molecular Formula": "C5H7F3O2", "Boiling Point": "73.5 \u00b0C", "Density": "1.077 g/cm\u00b3 @ Temp: 25 \u00b0C"}}