{"cas_no": "400-44-2", "cn_name": "\u6c99\u68d8\u6cb9", "en_name": ["2-Chloro-1,1,1,4,4,4-hexafluoro-2-butene", "2-Butene, 2-chloro-1,1,1,4,4,4-hexafluoro-", "2-Chloro-1,1,1,4,4,4-hexafluoro-2-butene", "R 1326mxz", "1,1,1,4,4,4-Hexafluoro-2-chlorobutene", "CFC 1326", "HCFO 1326mxz", "HCFO-1326", "FC-1326mxz"], "SMILES": "C(=CC(F)(F)F)(C(F)(F)F)Cl", "physical_data": {"Molecular Weight": "198.49", "Molecular Formula": "C4HClF6", "Boiling Point": "33.5 \u00b0C", "Density": "1.487 g/cm\u00b3 @ Temp: 17 \u00b0C"}}