{"cas_no": "400-99-7", "cn_name": "4-\u7f9f\u57fa-3-\u785d\u57fa\u4e09\u6c1f\u7532\u82ef", "en_name": ["2-Nitro-4-(trifluoromethyl)phenol", "Phenol, 2-nitro-4-(trifluoromethyl)-", "p-Cresol, \u03b1,\u03b1,\u03b1-trifluoro-2-nitro-", "2-Nitro-4-(trifluoromethyl)phenol", "o-Nitro-p-(trifluoromethyl)phenol", "4-(Trifluoromethyl)-2-nitrophenol", "4-Hydroxy-3-nitrobenzotrifluoride"], "SMILES": "N(=O)(=O)C1=CC(C(F)(F)F)=CC=C1O", "physical_data": {"Molecular Weight": "207.11", "Molecular Formula": "C7H4F3NO3", "Boiling Point": "92-94 \u00b0C"}}