{"cas_no": "400-98-6", "cn_name": "4-\u6c28\u57fa-3-\u785d\u57fa\u4e09\u6c1f\u7532\u82ef", "en_name": ["2-Nitro-4-(trifluoromethyl)aniline", "Benzenamine, 2-nitro-4-(trifluoromethyl)-", "p-Toluidine, \u03b1,\u03b1,\u03b1-trifluoro-2-nitro-", "2-Nitro-4-(trifluoromethyl)benzenamine", "\u03b1,\u03b1,\u03b1-Trifluoro-2-nitro-p-toluidine", "2-Nitro-4-(trifluoromethyl)aniline", "4-Amino-3-nitrobenzotrifluoride", "4-(Trifluoromethyl)-2-nitroaniline", "1-Amino-2-nitro-4-trifluoromethylbenzene", "TX 101", "NSC 13396", "NSC 9429", "(2-Nitro-4-trifluoromethylphenyl)amine"], "SMILES": "N(=O)(=O)C1=CC(C(F)(F)F)=CC=C1N", "physical_data": {"Molecular Weight": "206.12", "Molecular Formula": "C7H5F3N2O2", "Melting Point": "109-110 \u00b0C"}}