{"cas_no": "400-94-2", "cn_name": "3-\u785d\u57fa-4-\u6c1f\u82ef\u7532\u9170\u6c2f", "en_name": ["4-Fluoro-3-nitrobenzoyl chloride", "Benzoyl chloride, 4-fluoro-3-nitro-", "4-Fluoro-3-nitrobenzoyl chloride", "3-Nitro-4-fluorobenzoyl chloride"], "SMILES": "N(=O)(=O)C1=CC(C(Cl)=O)=CC=C1F", "physical_data": {"Molecular Weight": "203.55", "Molecular Formula": "C7H3ClFNO3", "Boiling Point": "113-115 \u00b0C @ Press: 1.2 Torr", "Melting Point": "23.5-25 \u00b0C"}}