{"cas_no": "40004-08-8", "cn_name": "1-(\u4e59\u6c27\u57fa\u7fb0\u7532\u57fa)\u54cc\u55ea", "en_name": ["1-(Ethoxycarbonylmethyl)piperazine", "1-Piperazineacetic acid, ethyl ester", "1-(Ethoxycarbonylmethyl)piperazine", "Ethyl 1-piperazinylacetate", "Ethyl 1-piperazineacetate", "N-(Ethoxycarbonylmethyl)piperazine", "4-(Carboethoxymethyl)piperazine", "N-(Carboethoxymethyl)piperazine", "Piperazin-1-ylacetic acid ethyl ester", "2-(Piperazin-1-yl)acetic acid ethyl ester", "Ethyl piperazinoacetate", "Ethyl 2-piperazinoacetate", "Ethyl 2-(piperazin-1-yl)acetate"], "SMILES": "C(C(OCC)=O)N1CCNCC1", "physical_data": {"Molecular Weight": "172.22", "Molecular Formula": "C8H16N2O2", "Boiling Point": "153-159 \u00b0C"}}