{"cas_no": "40000-20-2", "cn_name": "5-\u6eb4-1,10-\u83f2\u7f57\u5549", "en_name": ["5-Bromo-1,10-phenanthroline", "1,10-Phenanthroline, 5-bromo-", "5-Bromo-1,10-phenanthroline"], "SMILES": "BrC1=C2C(=C3C(=C1)C=CC=N3)N=CC=C2", "physical_data": {"Molecular Weight": "259.10", "Molecular Formula": "C12H7BrN2", "Melting Point": "110 \u00b0C"}}