{"cas_no": "40004-69-1", "cn_name": "2-\u7532\u57fa\u567b\u5511-5-\u7fa7\u9178", "en_name": ["2-Methyl-5-thiazolecarboxylic acid", "5-Thiazolecarboxylic acid, 2-methyl-", "2-Methyl-5-thiazolecarboxylic acid", "RU 21933", "2-Methyl-1,3-thiazole-5-carboxylic acid", "NSC 170606"], "SMILES": "C(O)(=O)C=1SC(C)=NC1", "physical_data": {"Molecular Weight": "143.16", "Molecular Formula": "C5H5NO2S", "Melting Point": "209 \u00b0C"}}