{"cas_no": "40018-25-5", "cn_name": "\u90bb\u6c2f\u82ef\u4e59\u9170\u8148", "en_name": ["2-Chloro-\u03b2-oxobenzenepropanenitrile", "Benzenepropanenitrile, 2-chloro-\u03b2-oxo-", "Acetonitrile, (o-chlorobenzoyl)-", "2-Chloro-\u03b2-oxobenzenepropanenitrile", "o-Chlorophenacyl cyanide", "o-Chloro-\u03c9-cyanoacetophenone", "o-Chlorobenzoylacetonitrile", "(2-Chlorophenyl)cyanomethyl ketone", "2-Chlorobenzoylacetonitrile", "3-(2-Chlorophenyl)-3-oxopropanenitrile", "3-Oxo-3-(2-chlorophenyl)propanenitrile"], "SMILES": "C(CC#N)(=O)C1=C(Cl)C=CC=C1", "physical_data": {"Molecular Weight": "179.60", "Molecular Formula": "C9H6ClNO", "Melting Point": "101 \u00b0C"}}