{"cas_no": "40015-15-4", "cn_name": "1,1-\u4e8c\u7532\u6c27\u57fa-2-(\u7532\u786b\u57fa)\u4e59\u70f7", "en_name": ["1,1-Dimethoxy-2-(methylthio)ethane", "Ethane, 1,1-dimethoxy-2-(methylthio)-", "1,1-Dimethoxy-2-(methylthio)ethane", "Methylthioacetaldehyde dimethyl acetal", "2-(Methylthio)acetaldehyde dimethyl acetal", "2,2-Dimethoxyethyl methyl sulfide", "1,1-Dimethoxy-2-methylsulfanylethane"], "SMILES": "C(CSC)(OC)OC", "physical_data": {"Molecular Weight": "136.21", "Molecular Formula": "C5H12O2S", "Boiling Point": "60 \u00b0C @ Press: 40 mbar"}}