{"cas_no": "4001-73-4", "cn_name": "2-\u6eb4\u82ef\u7532\u9170\u80fa", "en_name": ["2-Bromobenzamide", "Benzamide, 2-bromo-", "Benzamide, o-bromo-", "2-Bromobenzamide", "o-Bromobenzamide", "NSC 10071", "2-Carbamoyl-1-bromobenzene"], "SMILES": "C(N)(=O)C1=C(Br)C=CC=C1", "physical_data": {"Molecular Weight": "200.03", "Molecular Formula": "C7H6BrNO", "Boiling Point": "158-161 \u00b0C @ Press: 12 Torr", "Melting Point": "160.5 \u00b0C"}}