{"cas_no": "4001-61-0", "cn_name": "2,5-\u4e8c\u7532\u57fa\u82ef\u786b\u915a", "en_name": ["2,5-Dimethylbenzenethiol", "Benzenethiol, 2,5-dimethyl-", "2,5-Xylenethiol", "2,5-Dimethylbenzenethiol", "2,5-Dimethylthiophenol", "2,5-Dimethylbenzene-1-thiol"], "SMILES": "SC1=C(C)C=CC(C)=C1", "physical_data": {"Molecular Weight": "138.23", "Molecular Formula": "C8H10S", "Boiling Point": "211-212 \u00b0C"}}