{"cas_no": "40018-26-6", "cn_name": "1,4-\u4e8c\u786b-2,5-\u4e8c\u9187", "en_name": ["1,4-Dithiane-2,5-diol", "1,4-Dithiane-2,5-diol", "2,5-Dihydroxy-1,4-dithiane", "Mercaptoacetaldehyde dimer", "p-Dithiane-2,5-diol", "1,4-Dithian-2,5-diol", "NSC 106280"], "SMILES": "OC1CSC(O)CS1", "physical_data": {"Molecular Weight": "152.24", "Molecular Formula": "C4H8O2S2", "Melting Point": "138-143 \u00b0C"}}