{"cas_no": "40020-01-7", "cn_name": "\u8fbe\u8349\u6b62\u4ee3\u8c22\u4ea7\u7269\u6807\u51c6\u54c1", "en_name": ["Pyridafol", "4-Pyridazinol, 6-chloro-3-phenyl-", "6-Chloro-3-phenyl-4-pyridazinol", "3-Phenyl-4-hydroxy-6-chloropyridazine", "CL 9673", "NOA 402989", "Pyridafol", "3-Chloro-5-hydroxy-6-phenylpyridazine"], "SMILES": "OC1=C(C2=CC=CC=C2)N=NC(Cl)=C1", "physical_data": {"Molecular Weight": "206.63", "Molecular Formula": "C10H7ClN2O", "Melting Point": "214-216 \u00b0C"}}