{"cas_no": "4002-83-9", "cn_name": "1-\u7532\u57fa-1H-\u5432\u5511-3-\u7532\u919b", "en_name": ["1-Methyl-1H-indazole-3-carboxaldehyde", "1H-Indazole-3-carboxaldehyde, 1-methyl-", "1-Methyl-1H-indazole-3-carboxaldehyde", "3-Formyl-1-methylindazole", "1-Methyl-1H-indazole-3-carbaldehyde"], "SMILES": "C(=O)C=1C=2C(N(C)N1)=CC=CC2", "physical_data": {"Molecular Weight": "160.17", "Molecular Formula": "C9H8N2O", "Melting Point": "47-48 \u00b0C"}}