{"cas_no": "4003-94-5", "cn_name": "4-\u785d\u57fa\u5747\u4e8c\u82ef\u4ee3\u4e59\u70ef", "en_name": ["4-Nitrostilbene", "Benzene, 1-nitro-4-(2-phenylethenyl)-", "Stilbene, 4-nitro-", "1-Nitro-4-(2-phenylethenyl)benzene", "p-Nitrostilbene", "4-Nitrostilbene", "NSC 141579", "1-Phenyl-2-(4-nitrophenyl)ethene", "\u03b2-(4-Nitrophenyl)styrene", "1-Nitro-4-styrylbenzene", "1-(4-Nitrophenyl)-2-phenylethene"], "SMILES": "C(=CC1=CC=CC=C1)C2=CC=C(N(=O)=O)C=C2", "physical_data": {"Molecular Weight": "225.24", "Molecular Formula": "C14H11NO2", "Boiling Point": "170 \u00b0C @ Press: 9 Torr", "Melting Point": "155 \u00b0C"}}