{"cas_no": "40034-44-4", "cn_name": "3-\u5421\u5576-4-\u57fa\u82ef\u80fa", "en_name": ["3-(4-Pyridinyl)benzenamine", "Benzenamine, 3-(4-pyridinyl)-", "Pyridine, 4-(m-aminophenyl)-", "3-(4-Pyridinyl)benzenamine", "4-(3-Aminophenyl)pyridine", "4-(m-Aminophenyl)pyridine", "3-(4-Pyridyl)aniline", "3-(4-Pyridinyl)aniline", "3-(Pyridin-4-yl)benzenamine"], "SMILES": "NC=1C=C(C=CC1)C=2C=CN=CC2", "physical_data": {"Molecular Weight": "170.21", "Molecular Formula": "C11H10N2", "Melting Point": "165-166 \u00b0C"}}