{"cas_no": "40032-81-3", "cn_name": "2-\u6c2f-3-\u6eb4\u7532\u57fa\u567b\u5429", "en_name": ["3-(Bromomethyl)-2-chlorothiophene", "Thiophene, 3-(bromomethyl)-2-chloro-", "3-(Bromomethyl)-2-chlorothiophene", "2-Chloro-3-thienyl bromide", "2-Chloro-3-Bromomethylthiophene"], "SMILES": "C(Br)C1=C(Cl)SC=C1", "physical_data": {"Molecular Weight": "211.51", "Molecular Formula": "C5H4BrClS", "Boiling Point": "88 \u00b0C @ Press: 1 Torr"}}