{"cas_no": "40047-23-2", "cn_name": "6-\u7f9f\u57fa-2-\u5432\u54da\u7532\u9178", "en_name": ["6-Hydroxy-1H-indole-2-carboxylic acid", "1H-Indole-2-carboxylic acid, 6-hydroxy-", "6-Hydroxy-1H-indole-2-carboxylic acid", "6-Hydroxyindole-2-carboxylic acid"], "SMILES": "C(O)(=O)C1=CC=2C(N1)=CC(O)=CC2", "physical_data": {"Molecular Weight": "177.16", "Molecular Formula": "C9H7NO3", "Melting Point": "236 \u00b0C (decomp)"}}