{"cas_no": "40054-68-0", "cn_name": "Metizolam", "en_name": ["4-(2-Chlorophenyl)-2-ethyl-6H-thieno[3,2-f][1,2,4]triazolo[4,3-a][1,4]diazepine", "6H-Thieno[3,2-f][1,2,4]triazolo[4,3-a][1,4]diazepine, 4-(2-chlorophenyl)-2-ethyl-", "4-(2-Chlorophenyl)-2-ethyl-6H-thieno[3,2-f][1,2,4]triazolo[4,3-a][1,4]diazepine", "Metizolam"], "SMILES": "C(C)C1=CC2=C(N3C(CN=C2C4=C(Cl)C=CC=C4)=NN=C3)S1", "physical_data": {"Molecular Weight": "328.82", "Molecular Formula": "C16H13ClN4S", "Melting Point": "153-154 \u00b0C"}}