{"cas_no": "40052-13-9", "cn_name": "\u4e19\u4e8c\u9178\u5355\u53d4\u4e01\u916f", "en_name": ["Mono-tert-butyl malonate", "Propanedioic acid, 1-(1,1-dimethylethyl) ester", "Propanedioic acid, mono(1,1-dimethylethyl) ester", "tert-Butyl hydrogen malonate", "Mono-tert-butyl malonate", "Malonic acid tert-butyl monoester", "Malonic acid mono-tert-butyl ester", "2-(tert-Butoxycarbonyl)acetic acid", "3-tert-Butoxy-3-oxopropanoic acid", "3-tert-Butoxy-3-oxopropionic acid", "3-[(2-Methylpropan-2-yl)oxy]-3-oxopropanoic acid"], "SMILES": "O(C(C)(C)C)C(CC(O)=O)=O", "physical_data": {"Molecular Weight": "160.17", "Molecular Formula": "C7H12O4", "Boiling Point": "90 \u00b0C @ Press: 2 Torr", "Melting Point": "19-20 \u00b0C"}}