{"cas_no": "40054-01-1", "cn_name": "6-\u6eb4\u7532\u57fa-2-\u5421\u5576\u7532\u9187", "en_name": ["6-(Bromomethyl)-2-pyridinemethanol", "2-Pyridinemethanol, 6-(bromomethyl)-", "6-(Bromomethyl)-2-pyridinemethanol", "2-(Bromomethyl)-6-(hydroxymethyl)pyridine", "6-(Bromomethyl)-2-(hydroxymethyl)pyridine", "[6-(Bromomethyl)pyridin-2-yl]methanol"], "SMILES": "C(Br)C=1N=C(CO)C=CC1", "physical_data": {"Molecular Weight": "202.05", "Molecular Formula": "C7H8BrNO", "Melting Point": "74-78 \u00b0C (decomp)"}}