{"cas_no": "4005-51-0", "cn_name": "2-\u6c28\u57fa-1,3,4-\u567b\u4e8c\u5511", "en_name": ["1,3,4-Thiadiazol-2-amine", "1,3,4-Thiadiazol-2-amine", "1,3,4-Thiadiazole, 2-amino-", "2-Amino-1,3,4-thiadiazole", "Aminothiadiazole", "NSC 4728", "TF 128", "2-Aminothiadiazole", "1,3,4-Thiadiazole-2-amine", "5-Amino-1,3,4-thiadiazole", "1,3,4-Thiadiazol-2-ylamine", "2-Amine-1,3,4-thiadiazole"], "SMILES": "NC1=NN=CS1", "physical_data": {"Molecular Weight": "101.13", "Molecular Formula": "C2H3N3S", "Melting Point": "190-192 \u00b0C"}}