{"cas_no": "40054-73-7", "cn_name": "2-ethyl-9-Methyl-4-phenyl-6H-thieno[3,2-f][1,2,4]triazolo[4,3-a][1,4]diazepine", "en_name": ["2-Ethyl-9-methyl-4-phenyl-6H-thieno[3,2-f][1,2,4]triazolo[4,3-a][1,4]diazepine", "6H-Thieno[3,2-f][1,2,4]triazolo[4,3-a][1,4]diazepine, 2-ethyl-9-methyl-4-phenyl-", "2-Ethyl-9-methyl-4-phenyl-6H-thieno[3,2-f][1,2,4]triazolo[4,3-a][1,4]diazepine"], "SMILES": "CC=1N2C3=C(C(=NCC2=NN1)C4=CC=CC=C4)C=C(CC)S3", "physical_data": {"Molecular Weight": "308.40", "Molecular Formula": "C17H16N4S", "Melting Point": "165-166 \u00b0C"}}