{"cas_no": "40059-53-8", "cn_name": "2,4-\u4e8c\u7f9f\u57fa\u55b9\u5549-3-\u7532\u9178\u4e59\u916f", "en_name": ["Ethyl 4-hydroxy-2-oxo-1,2-dihydroquinoline-3-carboxylate", "3-Quinolinecarboxylic acid, 1,2-dihydro-4-hydroxy-2-oxo-, ethyl ester", "3-Ethoxycarbonyl-2,4-dihydroxyquinoline", "Ethyl 4-hydroxy-2-oxo-1,2-dihydroquinoline-3-carboxylate", "3-Carbethoxy-4-hydroxy-2-quinolone"], "SMILES": "OC=1C=2C(NC(=O)C1C(OCC)=O)=CC=CC2", "physical_data": {"Molecular Weight": "233.22", "Molecular Formula": "C12H11NO4", "Melting Point": "208 \u00b0C"}}