{"cas_no": "40061-55-0", "cn_name": "3-\u7532\u57fa\u82ef\u57fa\u4e59\u9178\u4e59\u916f", "en_name": ["Benzeneacetic acid, 3-methyl-, ethyl ester", "Benzeneacetic acid, 3-methyl-, ethyl ester", "Acetic acid, m-tolyl-, ethyl ester", "Ethyl (3-methylphenyl)acetate", "Ethyl 3-methylbenzeneacetate", "Ethyl m-tolylacetate", "m-Tolylacetic acid ethyl ester", "NSC 80677", "(3-Methylphenyl)acetic acid ethyl ester", "Ethyl 2-(3-methylphenyl)acetate", "Ethyl 2-(m-tolyl)acetate"], "SMILES": "C(C(OCC)=O)C1=CC(C)=CC=C1", "physical_data": {"Molecular Weight": "178.23", "Molecular Formula": "C11H14O2", "Boiling Point": "155-156 \u00b0C @ Press: 15 Torr"}}