{"cas_no": "400755-44-4", "cn_name": "1-\u4e59\u57fa\u5421\u5511-3-\u7532\u9178", "en_name": ["1-Ethyl-1H-pyrazole-3-carboxylic acid", "1H-Pyrazole-3-carboxylic acid, 1-ethyl-", "1-Ethyl-1H-pyrazole-3-carboxylic acid", "1-Ethylpyrazole-3-carboxylic acid"], "SMILES": "C(O)(=O)C1=NN(CC)C=C1", "physical_data": {"Molecular Weight": "140.14", "Molecular Formula": "C6H8N2O2", "Melting Point": "176-177 \u00b0C"}}