{"cas_no": "400882-07-7", "cn_name": "\u4e01\u6c1f\u87a8\u916f", "en_name": ["Cyflumetofen", "Benzenepropanoic acid, \u03b1-cyano-\u03b1-[4-(1,1-dimethylethyl)phenyl]-\u03b2-oxo-2-(trifluoromethyl)-, 2-methoxyethyl ester", "Cyflumetofen", "BAS 92100I"], "SMILES": "C(C(=O)C1=C(C(F)(F)F)C=CC=C1)(C(OCCOC)=O)(C#N)C2=CC=C(C(C)(C)C)C=C2", "physical_data": {"Molecular Weight": "447.45", "Molecular Formula": "C24H24F3NO4", "Melting Point": "77.3-80.7 \u00b0C"}}