{"cas_no": "4008-48-4", "cn_name": "5-\u785d\u57fa-8-\u7f9f\u57fa\u55b9\u5549", "en_name": ["Nitroxoline", "8-Quinolinol, 5-nitro-", "5-Nitro-8-quinolinol", "8-Hydroxy-5-nitroquinoline", "5-Nitro-8-hydroxyquinoline", "Nitroxoline", "Nibiol", "Nitroxolin", "5-Nitro-8-oxyquinoline", "5-Nitro-8-oxychinoline", "5NOK", "Noxibiol", "5-Nitroxine", "BAS 58", "5-Nitrox", "A 82", "NSC 74947", "NSC 74948", "5-(Hydroxyl[oxido]amino)-8-hydroxyquinoline"], "SMILES": "N(=O)(=O)C=1C2=C(C(O)=CC1)N=CC=C2", "physical_data": {"Molecular Weight": "190.16", "Molecular Formula": "C9H6N2O3", "Melting Point": "180 \u00b0C"}}