{"cas_no": "4009-98-7", "cn_name": "(\u7532\u6c27\u57fa\u7532\u57fa)\u4e09\u82ef\u57fa\u6c2f\u5316\u78f7", "en_name": ["(Methoxymethyl)triphenylphosphonium chloride", "Phosphonium, (methoxymethyl)triphenyl-, chloride (1:1)", "Phosphonium, (methoxymethyl)triphenyl-, chloride", "(Methoxymethyl)triphenylphosphonium chloride", "Triphenyl(methoxymethyl)phosphonium chloride", "NSC 49223", "[(Methyloxy)methyl]triphenylphosphonium chloride", "(Methoxymethyl)triphenylphosphanium chloride"], "SMILES": "[P+](COC)(C1=CC=CC=C1)(C2=CC=CC=C2)C3=CC=CC=C3.[Cl-]", "physical_data": {"Molecular Weight": "", "Molecular Formula": "C20H20OP.Cl", "Melting Point": "191-193 \u00b0C"}}