{"cas_no": "401-94-5", "cn_name": "3-\u6c28\u57fa-5-\u785d\u57fa\u4e09\u6c1f\u7532\u82ef", "en_name": ["3-Nitro-5-(trifluoromethyl)benzenamine", "Benzenamine, 3-nitro-5-(trifluoromethyl)-", "m-Toluidine, \u03b1,\u03b1,\u03b1-trifluoro-5-nitro-", "3-Nitro-5-(trifluoromethyl)benzenamine", "3-Trifluoromethyl-5-nitroaniline", "5-Trifluoromethyl-3-nitroaniline", "3-Nitro-5-trifluoromethylaniline", "3-Amino-5-nitrobenzotrifluoride"], "SMILES": "C(F)(F)(F)C1=CC(N(=O)=O)=CC(N)=C1", "physical_data": {"Molecular Weight": "206.12", "Molecular Formula": "C7H5F3N2O2", "Melting Point": "80-81.5 \u00b0C"}}