{"cas_no": "401-84-3", "cn_name": "3,5-\u4e8c\u6eb4\u4e09\u6c1f\u7532\u82ef", "en_name": ["1,3-Dibromo-5-(trifluoromethyl)benzene", "Benzene, 1,3-dibromo-5-(trifluoromethyl)-", "Toluene, 3,5-dibromo-\u03b1,\u03b1,\u03b1-trifluoro-", "1,3-Dibromo-5-(trifluoromethyl)benzene", "3,5-Dibromobenzotrifluoride", "3,5-Dibromo-1-(trifluoromethyl)benzene"], "SMILES": "C(F)(F)(F)C1=CC(Br)=CC(Br)=C1", "physical_data": {"Molecular Weight": "303.90", "Molecular Formula": "C7H3Br2F3", "Boiling Point": "117-118 \u00b0C @ Press: 38 Torr", "Melting Point": "47.4-48.0 \u00b0C"}}