{"cas_no": "401-55-8", "cn_name": "\u6eb4\u6c1f\u4e59\u9178\u4e59\u916f", "en_name": ["Acetic acid, 2-bromo-2-fluoro-, ethyl ester", "Acetic acid, 2-bromo-2-fluoro-, ethyl ester", "Acetic acid, bromofluoro-, ethyl ester", "Ethyl bromofluoroacetate", "Bromofluoroacetic acid ethyl ester", "Ethyl 2-bromo-2-fluoroacetate", "2-Bromo-2-fluoroacetic acid ethyl ester", "Ethyl 2-fluoro-2-bromoacetate"], "SMILES": "C(OCC)(C(Br)F)=O", "physical_data": {"Molecular Weight": "184.99", "Molecular Formula": "C4H6BrFO2", "Boiling Point": "68 \u00b0C @ Press: 34 Torr", "Density": "1.565 g/cm\u00b3"}}