{"cas_no": "401-73-0", "cn_name": "3-\u4e09\u6c1f\u7532\u57fa-1H-5-\u5421\u5511\u916e", "en_name": ["2,4-Dihydro-5-(trifluoromethyl)-3H-pyrazol-3-one", "3H-Pyrazol-3-one, 2,4-dihydro-5-(trifluoromethyl)-", "2-Pyrazolin-5-one, 3-(trifluoromethyl)-", "2,4-Dihydro-5-(trifluoromethyl)-3H-pyrazol-3-one"], "SMILES": "C(F)(F)(F)C=1CC(=O)NN1", "physical_data": {"Molecular Weight": "152.07", "Molecular Formula": "C4H3F3N2O", "Melting Point": "210-212 \u00b0C"}}