{"cas_no": "401-58-1", "cn_name": "\u6c1f\u7898\u4e59\u9178\u4e59\u916f", "en_name": ["Ethyl 2-fluoro-2-iodoacetate", "Acetic acid, 2-fluoro-2-iodo-, ethyl ester", "Acetic acid, fluoroiodo-, ethyl ester", "Ethyl 2-fluoro-2-iodoacetate", "Ethyl fluoroiodoacetate", "Ethyl iodofluoroacetate"], "SMILES": "C(OCC)(C(F)I)=O", "physical_data": {"Molecular Weight": "231.99", "Molecular Formula": "C4H6FIO2", "Boiling Point": "70 \u00b0C @ Press: 14 Torr"}}