{"cas_no": "401-80-9", "cn_name": "3-\u6c1f\u4e09\u6c1f\u7532\u82ef", "en_name": ["3-Fluorobenzotrifluoride", "Benzene, 1-fluoro-3-(trifluoromethyl)-", "Toluene, m,\u03b1,\u03b1,\u03b1-tetrafluoro-", "1-Fluoro-3-(trifluoromethyl)benzene", "m-Fluorobenzotrifluoride", "Trifluoromethyl-3-fluorobenzene", "m,\u03b1,\u03b1,\u03b1-Tetrafluorotoluene", "3-Fluorobenzotrifluoride", "m-Fluoro(trifluoromethyl)benzene", "3-Fluoro(trifluoromethyl)benzene", "m-(Trifluoromethyl)fluorobenzene", "NSC 10315", "\u03b1,\u03b1,\u03b1,3-Tetrafluorotoluene"], "SMILES": "C(F)(F)(F)C1=CC(F)=CC=C1", "physical_data": {"Molecular Weight": "164.10", "Molecular Formula": "C7H4F4", "Boiling Point": "101.5 \u00b0C", "Melting Point": "-81.5 \u00b0C", "Density": "1.2891 g/cm\u00b3 @ Temp: 25.4 \u00b0C"}}