{"cas_no": "401-56-9", "cn_name": "\u6c2f\u6c1f\u4e59\u9178\u4e59\u916f", "en_name": ["Acetic acid, 2-chloro-2-fluoro-, ethyl ester", "Acetic acid, 2-chloro-2-fluoro-, ethyl ester", "Acetic acid, chlorofluoro-, ethyl ester", "Ethyl chlorofluoroacetate", "Ethyl fluorochloroacetate", "Ethyl 2-chloro-2-fluoroacetate"], "SMILES": "C(OCC)(C(Cl)F)=O", "physical_data": {"Molecular Weight": "140.54", "Molecular Formula": "C4H6ClFO2", "Boiling Point": "129 \u00b0C", "Density": "1.227 g/cm\u00b3 @ Temp: 25 \u00b0C"}}