{"cas_no": "401-81-0", "cn_name": "3-\u7898\u4e09\u6c1f\u7532\u82ef", "en_name": ["1-Iodo-3-(trifluoromethyl)benzene", "Benzene, 1-iodo-3-(trifluoromethyl)-", "Toluene, \u03b1,\u03b1,\u03b1-trifluoro-m-iodo-", "1-Iodo-3-(trifluoromethyl)benzene", "\u03b1,\u03b1,\u03b1-Trifluoro-m-iodotoluene", "m-(Trifluoromethyl)iodobenzene", "3-(Trifluoromethyl)iodobenzene", "m-Iodobenzotrifluoride", "3-Iodo-1-(trifluoromethyl)benzene", "3-Iodo-\u03b1,\u03b1,\u03b1-trifluorotoluene", "3-Trifluoromethyl-1-iodobenzene", "3-(Trifluoromethyl)phenyl iodide", "3-Iodo(trifluoromethyl)benzene", "3-Iodobenzotrifluoride", "NSC 88322", "1-Trifluoromethyl-3-iodobenzene"], "SMILES": "C(F)(F)(F)C1=CC(I)=CC=C1", "physical_data": {"Molecular Weight": "272.01", "Molecular Formula": "C7H4F3I", "Boiling Point": "82.0-82.5 \u00b0C @ Press: 25 Torr", "Melting Point": "230 \u00b0C"}}