{"cas_no": "401-78-5", "cn_name": "\u95f4\u6eb4\u4e09\u6c1f\u7532\u82ef", "en_name": ["1-Bromo-3-(trifluoromethyl)benzene", "Benzene, 1-bromo-3-(trifluoromethyl)-", "Toluene, m-bromo-\u03b1,\u03b1,\u03b1-trifluoro-", "1-Bromo-3-(trifluoromethyl)benzene", "m-(Trifluoromethyl)bromobenzene", "m-Bromobenzotrifluoride", "3-Bromobenzotrifluoride", "m-Bromo(trifluoromethyl)benzene", "m-Bromo-\u03b1,\u03b1,\u03b1-trifluorotoluene", "3-Bromobenzyltrifluoride", "3-(Trifluoromethyl)bromobenzene", "3-(Trifluoromethyl)phenyl bromide", "m-(Trifluoromethyl)phenyl bromide", "\u03b1,\u03b1,\u03b1-Trifluoro-m-tolyl bromide", "3-Bromotrifluoromethylbenzene", "2-Bromo-4-trifluoromethylbenzene", "NSC 9468", "3-(Trifluoromethyl)-1-bromobenzene", "3-Bromo-1-trifluoromethylbenzene", "3-Bromo-\u03b1,\u03b1,\u03b1-trifluorotoluene"], "SMILES": "C(F)(F)(F)C1=CC(Br)=CC=C1", "physical_data": {"Molecular Weight": "225.01", "Molecular Formula": "C7H4BrF3", "Boiling Point": "151.5 \u00b0C", "Melting Point": "1 \u00b0C", "Density": "1.6371 g/cm\u00b3 @ Temp: 25 \u00b0C"}}