{"cas_no": "401-99-0", "cn_name": "3,5-\u4e8c\u785d\u57fa\u4e09\u6c1f\u7532\u82ef", "en_name": ["3,5-Dinitrobenzotrifluoride", "Benzene, 1,3-dinitro-5-(trifluoromethyl)-", "Toluene, \u03b1,\u03b1,\u03b1-trifluoro-3,5-dinitro-", "1,3-Dinitro-5-(trifluoromethyl)benzene", "3,5-Dinitrobenzotrifluoride", "\u03b1,\u03b1,\u03b1-Trifluoro-3,5-dinitrotoluene", "3,5-Dinitro-\u03b1,\u03b1,\u03b1-trifluorotoluene", "3,5-Dinitro-1-(trifluoromethyl)benzene", "1-Trifluoromethyl-3,5-dinitrobenzene"], "SMILES": "C(F)(F)(F)C1=CC(N(=O)=O)=CC(N(=O)=O)=C1", "physical_data": {"Molecular Weight": "236.10", "Molecular Formula": "C7H3F3N2O4", "Boiling Point": "125-127 \u00b0C @ Press: 9 Torr", "Melting Point": "49-50 \u00b0C"}}