{"cas_no": "401-79-6", "cn_name": "3-\u7532\u57fa\u4e09\u6c1f\u7532\u82ef", "en_name": ["1-Methyl-3-(trifluoromethyl)benzene", "Benzene, 1-methyl-3-(trifluoromethyl)-", "m-Xylene, \u03b1,\u03b1,\u03b1-trifluoro-", "1-Methyl-3-(trifluoromethyl)benzene", "m-(Trifluoromethyl)toluene", "\u03b1,\u03b1,\u03b1-Trifluoro-m-xylene", "3-(Trifluoromethyl)toluene", "m-(Trifluoromethyl)toluene", "1-Methyl-3-trifluoromethylbenzene", "3-Methylbenzotrifluoride"], "SMILES": "C(F)(F)(F)C1=CC(C)=CC=C1", "physical_data": {"Molecular Weight": "160.14", "Molecular Formula": "C8H7F3", "Boiling Point": "127 \u00b0C @ Press: 734 Torr"}}