{"cas_no": "40106-13-6", "cn_name": "2-\u6c28\u57fa\u73af\u5e9a\u70f7\u5e76[B]\u567b\u5429-3-\u7fa7\u9178\u4e59\u916f", "en_name": ["4H-Cyclohepta[b]thiophene-3-carboxylic acid, 2-amino-5,6,7,8-tetrahydro-, ethyl ester", "4H-Cyclohepta[b]thiophene-3-carboxylic acid, 2-amino-5,6,7,8-tetrahydro-, ethyl ester", "Ethyl 2-amino-5,6,7,8-tetrahydro-4H-cyclohepta[b]thiophene-3-carboxylate", "NSC 158551"], "SMILES": "C(OCC)(=O)C=1C2=C(SC1N)CCCCC2", "physical_data": {"Molecular Weight": "239.33", "Molecular Formula": "C12H17NO2S", "Melting Point": "79 \u00b0C"}}