{"cas_no": "4010-33-7", "cn_name": "2-\u4e59\u9170\u82ef\u57fa\u82ef\u7532\u9178\u916f", "en_name": ["1-[2-(Benzoyloxy)phenyl]ethanone", "Ethanone, 1-[2-(benzoyloxy)phenyl]-", "Acetophenone, 2\u2032-hydroxy-, benzoate", "1-[2-(Benzoyloxy)phenyl]ethanone", "2\u2032-Benzoyloxyacetophenone", "o-(Benzoyloxy)acetophenone", "NSC 31880", "2-Benzoyloxyphenyl methyl ketone", "o-Acetylphenyl benzoate", "2-Acetylphenyl benzoate"], "SMILES": "O(C(=O)C1=CC=CC=C1)C2=C(C(C)=O)C=CC=C2", "physical_data": {"Molecular Weight": "240.25", "Molecular Formula": "C15H12O3", "Melting Point": "89 \u00b0C"}}