{"cas_no": "40101-31-3", "cn_name": "N-(4-\u6eb4\u82ef\u57fa)\u90bb\u82ef\u4e8c\u7532\u9170\u4e9a\u80fa", "en_name": ["2-(4-Bromophenyl)-1H-isoindole-1,3(2H)-dione", "1H-Isoindole-1,3(2H)-dione, 2-(4-bromophenyl)-", "Phthalimide, N-(p-bromophenyl)-", "2-(4-Bromophenyl)-1H-isoindole-1,3(2H)-dione", "N-p-Bromophenylphthalimide", "N-(4-Bromophenyl)phthalimide", "NSC 406153", "4-Phthalimido-1-bromobenzene", "2-(4-Bromophenyl)isoindoline-1,3-dione", "2-(4-Bromo-phenyl)-isoindole-1,3-dione", "2-(4-Bromophenyl)-2,3-dihydro-1H-isoindole-1,3-dione"], "SMILES": "O=C1N(C(=O)C=2C1=CC=CC2)C3=CC=C(Br)C=C3", "physical_data": {"Molecular Weight": "302.12", "Molecular Formula": "C14H8BrNO2", "Melting Point": "204 \u00b0C"}}