{"cas_no": "40101-17-5", "cn_name": "3,3'-\u4e8c\u7532\u6c27\u57fa\u82ef\u5076\u9170", "en_name": ["3,3\u2032-Dimethoxybenzil", "1,2-Ethanedione, 1,2-bis(3-methoxyphenyl)-", "Ethanedione, bis(3-methoxyphenyl)-", "1,2-Bis(3-methoxyphenyl)-1,2-ethanedione", "Bis(3-methoxyphenyl)ethanedione", "3,3\u2032-Dimethoxybenzil", "1,2-Bis(3-methoxyphenyl)-1,2-ethandione"], "SMILES": "C(C(=O)C1=CC(OC)=CC=C1)(=O)C2=CC(OC)=CC=C2", "physical_data": {"Molecular Weight": "270.28", "Molecular Formula": "C16H14O4", "Melting Point": "83 \u00b0C"}}