{"cas_no": "40119-17-3", "cn_name": "3,4-\u4e8c\u7532\u6c27\u57fa\u82ef\u80bc\u76d0\u9178\u76d0", "en_name": ["Hydrazine, (3,4-dimethoxyphenyl)-, hydrochloride (1:1)", "Hydrazine, (3,4-dimethoxyphenyl)-, hydrochloride (1:1)", "Hydrazine, (3,4-dimethoxyphenyl)-, monohydrochloride", "3,4-Dimethoxyphenylhydrazine hydrochloride", "(3,4-Dimethoxyphenyl)hydrazine monohydrochloride"], "SMILES": "O(C)C1=C(OC)C=CC(NN)=C1.Cl", "physical_data": {"Molecular Weight": "", "Molecular Formula": "C8H12N2O2.ClH", "Melting Point": "162 \u00b0C (decomp)"}}