{"cas_no": "4013-94-9", "cn_name": "N,N'-\u4e8c\u5f02\u4e19\u57fa\u4e59\u4e8c\u80fa", "en_name": ["N,N\u2032-Diisopropylethylenediamine", "1,2-Ethanediamine, N1,N2-bis(1-methylethyl)-", "Ethylenediamine, N,N\u2032-diisopropyl-", "1,2-Ethanediamine, N,N\u2032-bis(1-methylethyl)-", "N1,N2-Bis(1-methylethyl)-1,2-ethanediamine", "N,N\u2032-Diisopropylethylenediamine", "N,N\u2032-Diisopropyl-1,2-diaminoethane", "1,2-Bis(isopropylamino)ethane", "N,N\u2032-Diisopropyl-1,2-ethanediamine", "(Propan-2-yl)([2-[(propan-2-yl)amino]ethyl])amine"], "SMILES": "C(CNC(C)C)NC(C)C", "physical_data": {"Molecular Weight": "144.26", "Molecular Formula": "C8H20N2", "Boiling Point": "169-171 \u00b0C"}}