{"cas_no": "40134-18-7", "cn_name": "2-\u6c2f\u70df\u9178\u7532\u916f", "en_name": ["3-Pyridinecarboxylic acid, 2-chloro-, methyl ester", "3-Pyridinecarboxylic acid, 2-chloro-, methyl ester", "Nicotinic acid, 2-chloro-, methyl ester", "Methyl 2-chloronicotinate", "2-Chloronicotinic acid methyl ester", "Methyl 2-chloropyridine-3-carboxylate", "2-Chloro-3-methoxycarbonylpyridine", "2-Chloropyridine-3-carboxylic acid methyl ester"], "SMILES": "C(OC)(=O)C1=C(Cl)N=CC=C1", "physical_data": {"Molecular Weight": "171.58", "Molecular Formula": "C7H6ClNO2", "Boiling Point": "87-88 \u00b0C @ Press: 3 Torr", "Density": "1.325 g/cm\u00b3 @ Temp: 20 \u00b0C"}}