{"cas_no": "40138-17-8", "cn_name": "2-\u919b\u57fa-5-\u7532\u57fa\u82ef\u787c\u9178", "en_name": ["B-(2-Formyl-5-methylphenyl)boronic acid", "Boronic acid, B-(2-formyl-5-methylphenyl)-", "Boronic acid, (2-formyl-5-methylphenyl)-", "m-Tolueneboronic acid, 6-formyl-", "B-(2-Formyl-5-methylphenyl)boronic acid", "2-Formyl-5-methylphenylboronic acid"], "SMILES": "B(O)(O)C1=C(C=O)C=CC(C)=C1", "physical_data": {"Molecular Weight": "163.97", "Molecular Formula": "C8H9BO3", "Melting Point": "186 \u00b0C"}}