{"cas_no": "40133-07-1", "cn_name": "4,5,6,7-\u56db\u6c22\u82ef\u5e76[B]\u567b\u5429\u4e8c\u7532\u9178", "en_name": ["4,5,6,7-Tetrahydrobenzo[b]thiophene-2-carboxylic acid", "Benzo[b]thiophene-2-carboxylic acid, 4,5,6,7-tetrahydro-", "4,5,6,7-Tetrahydrobenzo[b]thiophene-2-carboxylic acid", "4,5,6,7-Tetrahydrobenzothiophene-2-carboxylic acid", "4,5,6,7-Tetrahydro-1-benzothiophene-2-carboxylic acid"], "SMILES": "C(O)(=O)C1=CC2=C(S1)CCCC2", "physical_data": {"Molecular Weight": "182.24", "Molecular Formula": "C9H10O2S", "Melting Point": "183 \u00b0C"}}