{"cas_no": "40150-98-9", "cn_name": "4-\u5f02\u4e01\u57fa\u82ef\u7532\u919b", "en_name": ["4-Isobutylbenzaldehyde", "Benzaldehyde, 4-(2-methylpropyl)-", "4-(2-Methylpropyl)benzaldehyde", "p-Isobutylbenzaldehyde", "4-Isobutylbenzaldehyde", "p-(2-Methylpropyl)phenylaldehyde", "4-i-Butylbenzaldehyde"], "SMILES": "C(C(C)C)C1=CC=C(C=O)C=C1", "physical_data": {"Molecular Weight": "162.23", "Molecular Formula": "C11H14O", "Boiling Point": "258 \u00b0C"}}