{"cas_no": "40150-92-3", "cn_name": "1-(4-\u5f02\u4e01\u57fa\u82ef\u57fa)\u4e59\u9187", "en_name": ["1-(4-Isobutylphenyl)ethanol", "Benzenemethanol, \u03b1-methyl-4-(2-methylpropyl)-", "\u03b1-Methyl-4-(2-methylpropyl)benzenemethanol", "1-(4-Isobutylphenyl)ethanol", "\u03b1-(4-Isobutylphenyl)ethanol", "\u03b1-(4-Isobutylphenyl)ethyl alcohol", "1-(p-Isobutylphenyl)ethanol", "4-(2-Methylpropyl)-\u03b1-methylbenzenemethanol", "1-(4\u2032-Isobutylphenyl)ethanol", "1-(4-Isobutylphenyl)ethan-1-ol", "(1-Hydroxyethyl)-4-(2-methylpropyl)benzene", "1-[4-(2-Methylpropyl)phenyl]ethanol", "1-[4-(2-Methylpropyl)phenyl]ethan-1-ol"], "SMILES": "C(C(C)C)C1=CC=C(C(C)O)C=C1", "physical_data": {"Molecular Weight": "178.27", "Molecular Formula": "C12H18O", "Boiling Point": "111 \u00b0C @ Press: 1 Torr"}}