{"cas_no": "4016-63-1", "cn_name": "8-\u6eb4\u9e1f\u82f7", "en_name": ["8-Bromoguanosine", "Guanosine, 8-bromo-", "8-Bromoguanosine", "NSC 174257", "NSC 79211", "Chembridge 5141604", "2-Amino-8-bromo-9-[3,4-dihydroxy-5-(hydroxymethyl)oxolan-2-yl]-1H-purin-6-one", "2-Amino-8-bromo-9-[3,4-dihydroxy-5-(hydroxymethyl)tetrahydrofuran-2-yl]-6,9-dihydro-1H-purin-6-one", "2-Amino-8-bromo-9-[3,4-dihydroxy-5-(hydroxymethyl)tetrahydro-2-furanyl]-1,9-dihydro-6H-purin-6-one"], "SMILES": "BrC=1N(C2=C(N1)C(=O)N=C(N)N2)C3OC(CO)C(O)C3O", "physical_data": {"Molecular Weight": "362.14", "Molecular Formula": "C10H12BrN5O5", "Melting Point": "&gt;180 \u00b0C (decomp)"}}