{"cas_no": "4016-85-7", "cn_name": "2'-\u82ef\u7532\u9170-2,4'-\u4e8c\u6c2f\u4e59\u9170\u82ef\u80fa", "en_name": ["2-Chloroacetamido-5-chlorobenzophenone", "Acetamide, N-(2-benzoyl-4-chlorophenyl)-2-chloro-", "Acetanilide, 2\u2032-benzoyl-2,4\u2032-dichloro-", "N-(2-Benzoyl-4-chlorophenyl)-2-chloroacetamide", "5-Chloro-2-(chloroacetamido)benzophenone", "5-Chloro-2-chloracetylaminobenzophenone", "2-(2-Chloroacetamido)-5-chlorobenzophenone", "2-Chloroacetamido-5-chlorobenzophenone", "NSC 270127"], "SMILES": "C(=O)(C1=C(NC(CCl)=O)C=CC(Cl)=C1)C2=CC=CC=C2", "physical_data": {"Molecular Weight": "308.16", "Molecular Formula": "C15H11Cl2NO2", "Melting Point": "119-121 \u00b0C"}}