{"cas_no": "40165-87-5", "cn_name": "3-\u7f9f\u57fa\u58ec\u9178", "en_name": ["3-Hydroxynonanoic acid", "Nonanoic acid, 3-hydroxy-", "3-Hydroxynonanoic acid", "\u03b2-Hydroxynonanoic acid", "(\u00b1)-3-Hydroxynonanoic acid"], "SMILES": "C(C(CC(O)=O)O)CCCCC", "physical_data": {"Molecular Weight": "174.24", "Molecular Formula": "C9H18O3", "Melting Point": "57-59 \u00b0C"}}