{"cas_no": "4016-14-2", "cn_name": "\u5f02\u4e19\u57fa\u7f29\u6c34\u7518\u6cb9\u919a", "en_name": ["2-[(1-Methylethoxy)methyl]oxirane", "Oxirane, 2-[(1-methylethoxy)methyl]-", "Propane, 1,2-epoxy-3-isopropoxy-", "Oxirane, [(1-methylethoxy)methyl]-", "2-[(1-Methylethoxy)methyl]oxirane", "Glycidyl isopropyl ether", "3-Isopropoxy-1,2-epoxypropane", "(Isopropoxymethyl)oxirane", "Isopropyl glycidyl ether", "3-Isopropyloxypropylene oxide", "1,2-Epoxy-3-isopropoxypropane", "2,3-Epoxypropyl isopropyl ether", "(\u00b1)-Glycidyl isopropyl ether", "(Isopropyloxymethyl)oxirane", "[(1-Methylethoxy)methyl]oxirane", "NSC 4127", "NSC 46562", "2-(Isopropoxymethyl)oxirane", "3-(Isopropoxy)propylene epoxide", "2-[(Propan-2-yloxy)methyl]oxirane", "2-(Propan-2-yloxymethyl)oxirane"], "SMILES": "C(OC(C)C)C1CO1", "physical_data": {"Molecular Weight": "116.16", "Molecular Formula": "C6H12O2", "Boiling Point": "137 \u00b0C @ Press: 760 Torr", "Density": "0.9186 g/cm\u00b3 @ Temp: 20 \u00b0C"}}