{"cas_no": "4016-11-9", "cn_name": "\u4e59\u57fa\u7f29\u6c34\u7518\u6cb9\u57fa\u919a", "en_name": ["Ethyl glycidyl ether", "Oxirane, 2-(ethoxymethyl)-", "Propane, 1,2-epoxy-3-ethoxy-", "Oxirane, (ethoxymethyl)-", "2-(Ethoxymethyl)oxirane", "Ethyl glycidyl ether", "1,2-Epoxy-3-ethoxypropane", "3-Ethoxy-1,2-epoxypropane", "(Ethoxymethyl)oxirane", "Glycidyl ethyl ether", "NSC 71436", "2,3-Epoxypropyl ethyl ether", "Ethoxy glycidyl ether"], "SMILES": "C(OCC)C1CO1", "physical_data": {"Molecular Weight": "102.13", "Molecular Formula": "C5H10O2", "Boiling Point": "128 \u00b0C", "Density": "0.939 g/cm\u00b3 @ Temp: 25 \u00b0C"}}