{"cas_no": "401788-98-5", "cn_name": "1-\u4e01\u57fa-3-\u7532\u57fa\u54aa\u5511\u7532\u78fa\u9178", "en_name": ["1-Butyl-3-methylimidazolium methylsulfate", "1H-Imidazolium, 3-butyl-1-methyl-, methyl sulfate (1:1)", "1H-Imidazolium, 1-butyl-3-methyl-, methyl sulfate", "1-Butyl-3-methylimidazolium methylsulfate", "3-Butyl-1-methylimidazolium methyl sulfate", "Basionics AC 01", "Butylmethylimidazolium methyl sulfate", "1-n-Butyl-3-methylimidazolium methylsulfate"], "SMILES": "S(OC)(=O)(=O)[O-].C(CCC)[N+]1=CN(C)C=C1", "physical_data": {"Molecular Weight": "", "Molecular Formula": "C8H15N2.CH3O4S", "Melting Point": "25 \u00b0C", "Density": "1.0684 g/cm\u00b3 @ Temp: 298.15 \u00b0C"}}