{"cas_no": "40172-95-0", "cn_name": "1-(2-\u544b\u5583\u7532\u9170\u57fa)\u54cc\u55ea", "en_name": ["1-(2-Furoyl)piperazine", "Methanone, 2-furanyl-1-piperazinyl-", "Piperazine, 1-(2-furanylcarbonyl)-", "2-Furanyl-1-piperazinylmethanone", "N-(2-Furoyl)piperazine", "1-(2-Furoyl)piperazine", "1-(2-Furylcarbonyl)piperazine", "1-(2-Furanylcarbonyl)piperazine", "1-(Furan-2-carbonyl)piperazine", "(Furan-2-yl)(piperazin-1-yl)methanone", "4-(Furan-2-ylcarbonyl)piperazine", "N-(2-Furancarbonyl)piperazine", "N-(Furan-2-oyl)piperazine", "1-(2-Furanoyl)piperazine"], "SMILES": "C(=O)(C1=CC=CO1)N2CCNCC2", "physical_data": {"Molecular Weight": "180.20", "Molecular Formula": "C9H12N2O2", "Boiling Point": "137-140 \u00b0C @ Press: 0.1 Torr"}}