{"cas_no": "40172-65-4", "cn_name": "NAPHTHO[1,2-D]THIAZOL-2-AMINE", "en_name": ["Naphtho[1,2-d]thiazol-2-amine", "Naphtho[1,2-d]thiazol-2-amine", "Naphtho[1,2-d]thiazole, 2-amino-", "\u03b1-Naphthothiazole, 1-amino-", "2-Aminonaphtho[1,2-d]thiazole", "2-Aminonaphthiazole", "NSC 6278", "SKA 31"], "SMILES": "NC1=NC=2C=3C(C=CC2S1)=CC=CC3", "physical_data": {"Molecular Weight": "200.26", "Molecular Formula": "C11H8N2S", "Melting Point": "235-237 \u00b0C"}}