{"cas_no": "4018-65-9", "cn_name": "3-\u6c2f\u90bb\u82ef\u4e8c\u915a", "en_name": ["3-Chlorocatechol", "1,2-Benzenediol, 3-chloro-", "Pyrocatechol, 3-chloro-", "3-Chloro-1,2-benzenediol", "3-Chlorocatechol", "3-Chloropyrocatechol", "3-Chloro-1,2-dihydroxybenzene"], "SMILES": "OC1=C(Cl)C=CC=C1O", "physical_data": {"Molecular Weight": "144.56", "Molecular Formula": "C6H5ClO2", "Boiling Point": "110-111 \u00b0C @ Press: 11 Torr", "Melting Point": "48.5 \u00b0C"}}