{"cas_no": "40188-45-2", "cn_name": "2-\u4e59\u9170\u57fa-4-\u4e01\u9170\u80fa\u57fa\u82ef\u915a", "en_name": ["2-Acetyl-4-butyramidophenol", "Butanamide, N-(3-acetyl-4-hydroxyphenyl)-", "N-(3-Acetyl-4-hydroxyphenyl)butanamide", "2-Acetyl-4-butyramidophenol", "3\u2032-Acetyl-4\u2032-hydroxybutyranilide", "N-(3-Acetyl-4-hydroxyphenyl)butyramide"], "SMILES": "N(C(CCC)=O)C1=CC(C(C)=O)=C(O)C=C1", "physical_data": {"Molecular Weight": "221.25", "Molecular Formula": "C12H15NO3", "Melting Point": "118-119 \u00b0C"}}