{"cas_no": "40187-51-7", "cn_name": "5-\u4e59\u9170\u57fa\u6c34\u6768\u9170\u80fa", "en_name": ["5-Acetyl-2-hydroxybenzamide", "Benzamide, 5-acetyl-2-hydroxy-", "5-Acetyl-2-hydroxybenzamide", "5-Acetylsalicylamide"], "SMILES": "C(N)(=O)C1=CC(C(C)=O)=CC=C1O", "physical_data": {"Molecular Weight": "179.17", "Molecular Formula": "C9H9NO3", "Melting Point": "217 \u00b0C"}}