{"cas_no": "40180-04-9", "cn_name": "\u66ff\u5b81\u9178", "en_name": ["Tienilic acid", "Acetic acid, 2-[2,3-dichloro-4-(2-thienylcarbonyl)phenoxy]-", "Acetic acid, [2,3-dichloro-4-(2-thienylcarbonyl)phenoxy]-", "2-[2,3-Dichloro-4-(2-thienylcarbonyl)phenoxy]acetic acid", "2,3-Dichloro-4-(2-thenoyl)phenoxyacetic acid", "Tienilic acid", "Ticrynafen", "SKF 62698", "4-(2-Thenoyl)-2,3-dichlorophenoxyacetic acid", "4-(2-Thienylcarbonyl)-2,3-dichlorophenoxyacetic acid", "FR 3068", "Selacryn", "ANP 3624", "Tienylic acid", "Thienylic acid", "Difluorex", "CE 3624", "2-[2,3-Dichloro-4-(thiophene-2-carbonyl)phenoxy]acetic acid"], "SMILES": "C(=O)(C1=C(Cl)C(Cl)=C(OCC(O)=O)C=C1)C2=CC=CS2", "physical_data": {"Molecular Weight": "331.17", "Molecular Formula": "C13H8Cl2O4S", "Melting Point": "149 \u00b0C"}}