{"cas_no": "401900-40-1", "cn_name": "SARM S4", "en_name": ["Andarine", "Propanamide, 3-[4-(acetylamino)phenoxy]-2-hydroxy-2-methyl-N-[4-nitro-3-(trifluoromethyl)phenyl]-, (2S)-", "(2S)-3-[4-(Acetylamino)phenoxy]-2-hydroxy-2-methyl-N-[4-nitro-3-(trifluoromethyl)phenyl]propanamide", "N-[4-Nitro-3-(trifluoromethyl)phenyl]-(2S)-3-[4-(acetylamino)phenoxy]-2-hydroxy-2-methylpropanamide", "S 4", "Andarine", "SARM S-4", "GTx 007", "(2S)-3-(4-Acetamidophenoxy)-2-hydroxy-2-methyl-N-[4-nitro-3-(trifluoromethyl)phenyl]propanamide"], "SMILES": "C(F)(F)(F)C1=C(N(=O)=O)C=CC(NC(C(COC2=CC=C(NC(C)=O)C=C2)(C)O)=O)=C1", "physical_data": {"Molecular Weight": "441.36", "Molecular Formula": "C19H18F3N3O6", "Melting Point": "70-74 \u00b0C"}}