{"cas_no": "402-40-4", "cn_name": "1,5-BIS(4-ALLYLDIMETHYL-AMMONIUMPHENYL)PENTAN-3-ONE DIBROMIDE", "en_name": ["BW 284C51", "Benzenaminium, 4,4\u2032-(3-oxo-1,5-pentanediyl)bis[N,N-dimethyl-N-2-propen-1-yl-, bromide (1:2)", "Ammonium, [(3-oxopentamethylene)di-p-phenylene]bis[allyldimethyl-, dibromide", "Benzenaminium, 4,4\u2032-(3-oxo-1,5-pentanediyl)bis[N,N-dimethyl-N-2-propenyl-, dibromide", "[(3-Oxopentamethylene)di-p-phenylene]bis[allyldimethylammonium bromide]", "1,5-Bis(p-N-allylmethylaminophenyl)-pentan-3-one dimethylbromide", "1,5-Bis[4-(allyldimethylammonium)phenyl]pentan-3-one dibromide", "BW 284", "BW 284C51"], "SMILES": "[N+](CC=C)(C)(C)C1=CC=C(CCC(CCC2=CC=C([N+](CC=C)(C)C)C=C2)=O)C=C1.[Br-]", "physical_data": {"Molecular Weight": "", "Molecular Formula": "C27H38N2O.2Br", "Melting Point": "203-205 \u00b0C"}}