{"cas_no": "402-31-3", "cn_name": "\u95f4\u4e8c\u4e09\u6c1f\u7532\u82ef", "en_name": ["3,5-Bis(trifluoromethyl)benzene", "Benzene, 1,3-bis(trifluoromethyl)-", "m-Xylene, \u03b1,\u03b1,\u03b1,\u03b1\u2032,\u03b1\u2032,\u03b1\u2032-hexafluoro-", "1,3-Bis(trifluoromethyl)benzene", "3-(Trifluoromethyl)benzotrifluoride", "\u03b1,\u03b1,\u03b1,\u03b1\u2032,\u03b1\u2032,\u03b1\u2032-Hexafluoro-m-xylene", "m-Bis(trifluoromethyl)benzene", "m-(Trifluoromethyl)benzotrifluoride", "1,3-Di(trifluoromethyl)benzene", "SRS 500", "3,5-Bis(trifluoromethyl)benzene", "NSC 10342", "H 0585", "RS 90"], "SMILES": "C(F)(F)(F)C1=CC(C(F)(F)F)=CC=C1", "physical_data": {"Molecular Weight": "214.11", "Molecular Formula": "C8H4F6", "Boiling Point": "116 \u00b0C"}}