{"cas_no": "402-66-4", "cn_name": "5-\u6c1f\u70df\u9178", "en_name": ["5-Fluoronicotinic acid", "3-Pyridinecarboxylic acid, 5-fluoro-", "Nicotinic acid, 5-fluoro-", "5-Fluoro-3-pyridinecarboxylic acid", "5-Fluoronicotinic acid"], "SMILES": "C(O)(=O)C=1C=C(F)C=NC1", "physical_data": {"Molecular Weight": "141.10", "Molecular Formula": "C6H4FNO2", "Melting Point": "195-197 \u00b0C"}}