{"cas_no": "402-65-3", "cn_name": "2-\u6c1f\u5f02\u70df\u9178", "en_name": ["2-Fluoroisonicotinic acid", "4-Pyridinecarboxylic acid, 2-fluoro-", "Isonicotinic acid, 2-fluoro-", "2-Fluoro-4-pyridinecarboxylic acid", "2-Fluoroisonicotinic acid", "2-Fluoropyridine-4-carboxylic acid", "NSC 402973"], "SMILES": "C(O)(=O)C=1C=C(F)N=CC1", "physical_data": {"Molecular Weight": "141.10", "Molecular Formula": "C6H4FNO2", "Melting Point": "195-197 \u00b0C"}}