{"cas_no": "402-54-0", "cn_name": "4-\u785d\u57fa\u4e09\u6c1f\u7532\u82ef", "en_name": ["4-Nitrobenzotrifluoride", "Benzene, 1-nitro-4-(trifluoromethyl)-", "Toluene, \u03b1,\u03b1,\u03b1-trifluoro-p-nitro-", "1-Nitro-4-(trifluoromethyl)benzene", "p-Nitrobenzotrifluoride", "\u03b1,\u03b1,\u03b1-Trifluoro-p-nitrotoluene", "4-(Trifluoromethyl)nitrobenzene", "p-Nitro(trifluoromethyl)benzene", "p-(Trifluoromethyl)nitrobenzene", "4-(Trifluoromethyl)-1-nitrobenzene", "4-Nitrobenzotrifluoride", "4-Nitro-1-(trifluoromethyl)benzene", "NSC 159121", "4-Nitro(trifluoromethyl)benzene"], "SMILES": "C(F)(F)(F)C1=CC=C(N(=O)=O)C=C1", "physical_data": {"Molecular Weight": "191.11", "Molecular Formula": "C7H4F3NO2", "Boiling Point": "82 \u00b0C", "Melting Point": "39 \u00b0C"}}