{"cas_no": "402-43-7", "cn_name": "\u5bf9\u6eb4\u4e09\u6c1f\u7532\u82ef", "en_name": ["1-Bromo-4-(trifluoromethyl)benzene", "Benzene, 1-bromo-4-(trifluoromethyl)-", "Toluene, p-bromo-\u03b1,\u03b1,\u03b1-trifluoro-", "1-Bromo-4-(trifluoromethyl)benzene", "p-(Trifluoromethyl)bromobenzene", "p-Bromobenzotrifluoride", "4-(Trifluoromethyl)bromobenzene", "p-Bromo-\u03b1,\u03b1,\u03b1-trifluorotoluene", "4-Bromobenzotrifluoride", "4-Bromo-1-(trifluoromethyl)benzene", "p-(Trifluoromethyl)phenyl bromide", "p-Bromo(trifluoromethyl)benzene", "4-(Trifluoromethyl)phenyl bromide", "4-Bromo(trifluoromethyl)benzene", "4-Bromo-\u03b1,\u03b1,\u03b1-trifluorotoluene", "4-Trifluoromethyl-1-bromobenzene", "4-Trifluoromethane-1-bromobenzene", "4-Bromobenzyltrifluoride", "1-Trifluoromethyl-4-bromobenzene"], "SMILES": "C(F)(F)(F)C1=CC=C(Br)C=C1", "physical_data": {"Molecular Weight": "225.01", "Molecular Formula": "C7H4BrF3", "Boiling Point": "160 \u00b0C", "Density": "1.607 g/cm\u00b3 @ Temp: 25 \u00b0C"}}