{"cas_no": "402-13-1", "cn_name": "2-\u6c28\u57fa-4-\u4e09\u6c1f\u7532\u57fa\u82ef\u7532\u9178", "en_name": ["2-Amino-4-(trifluoromethyl)benzoic acid", "Benzoic acid, 2-amino-4-(trifluoromethyl)-", "p-Toluic acid, 2-amino-\u03b1,\u03b1,\u03b1-trifluoro-", "2-Amino-4-(trifluoromethyl)benzoic acid", "4-Trifluoromethylanthranilic acid"], "SMILES": "C(F)(F)(F)C1=CC(N)=C(C(O)=O)C=C1", "physical_data": {"Molecular Weight": "205.13", "Molecular Formula": "C8H6F3NO2", "Melting Point": "172-174 \u00b0C"}}