{"cas_no": "402-44-8", "cn_name": "4-\u6c1f\u4e09\u6c1f\u7532\u82ef", "en_name": ["4-Fluorobenzotrifluoride", "Benzene, 1-fluoro-4-(trifluoromethyl)-", "Toluene, p,\u03b1,\u03b1,\u03b1-tetrafluoro-", "1-Fluoro-4-(trifluoromethyl)benzene", "p-Fluorobenzotrifluoride", "p-Fluoro(trifluoromethyl)benzene", "\u03b1,\u03b1,\u03b1,p-Tetrafluorotoluene", "4-Fluorobenzotrifluoride", "p-(Trifluoromethyl)fluorobenzene", "p,\u03b1,\u03b1,\u03b1-Tetrafluorotoluene", "\u03b1,\u03b1,\u03b1,4-Tetrafluorotoluene", "4-(Trifluoromethyl)fluorobenzene", "4-Fluoro(trifluoromethyl)benzene", "NSC 88289", "4-Trifluoromethyl-1-fluorobenzene", "4-Trifluoromethylphenyl fluoride", "4-Fluoro-1-trifluoromethylbenzene"], "SMILES": "C(F)(F)(F)C1=CC=C(F)C=C1", "physical_data": {"Molecular Weight": "164.10", "Molecular Formula": "C7H4F4", "Boiling Point": "103.5 \u00b0C", "Melting Point": "-41.7 \u00b0C"}}