{"cas_no": "402-45-9", "cn_name": "\u5bf9\u4e09\u6c1f\u7532\u57fa\u82ef\u915a", "en_name": ["4-(Trifluoromethyl)phenol", "Phenol, 4-(trifluoromethyl)-", "p-Cresol, \u03b1,\u03b1,\u03b1-trifluoro-", "4-(Trifluoromethyl)phenol", "p-Trifluoromethylphenol", "p-Hydroxybenzotrifluoride", "\u03b1,\u03b1,\u03b1-Trifluoro-p-cresol", "\u03b1,\u03b1,\u03b1-Trifluoro-4-cresol", "4-Hydroxybenzotrifluoride", "NSC 88303"], "SMILES": "C(F)(F)(F)C1=CC=C(O)C=C1", "physical_data": {"Molecular Weight": "162.11", "Molecular Formula": "C7H5F3O", "Boiling Point": "50 \u00b0C @ Press: 2 Torr", "Melting Point": "46 \u00b0C"}}