{"cas_no": "402-67-5", "cn_name": "\u95f4\u6c1f\u785d\u57fa\u82ef", "en_name": ["1-Fluoro-3-nitrobenzene", "Benzene, 1-fluoro-3-nitro-", "1-Fluoro-3-nitrobenzene", "m-Fluoronitrobenzene", "3-Fluoronitrobenzene", "m-Nitrofluorobenzene", "3-Nitrofluorobenzene", "3-Fluoro-1-nitrobenzene", "m-Nitrobenzofluoride", "NSC 60651", "1-Nitro-3-fluorobenzene"], "SMILES": "N(=O)(=O)C1=CC(F)=CC=C1", "physical_data": {"Molecular Weight": "141.10", "Molecular Formula": "C6H4FNO2", "Boiling Point": "199 \u00b0C", "Melting Point": "3.6 \u00b0C", "Density": "1.3272 g/cm\u00b3 @ Temp: 17.2 \u00b0C"}}