{"cas_no": "402-61-9", "cn_name": "5-\u7532\u57fa-1H-\u5421\u5511-3-\u7fa7\u9178", "en_name": ["5-Methyl-1H-pyrazole-3-carboxylic acid", "1H-Pyrazole-3-carboxylic acid, 5-methyl-", "Pyrazole-3-carboxylic acid, 5-methyl-", "Pyrazole-3(or 5)-carboxylic acid, 5(or 3)-methyl-", "5-Methyl-1H-pyrazole-3-carboxylic acid", "U 19425", "5-Methylpyrazole-3-carboxylic acid", "3-Methylpyrazole-5-carboxylic acid", "5-Carboxy-3-methylpyrazole", "5-Methyl-3-carboxypyrazole", "3-Carboxy-5-methylpyrazole", "AS 057278"], "SMILES": "C(O)(=O)C=1C=C(C)NN1", "physical_data": {"Molecular Weight": "126.11", "Molecular Formula": "C5H6N2O2", "Melting Point": "236 \u00b0C"}}