{"cas_no": "402-11-9", "cn_name": "3-\u6c2f-4-\u785d\u57fa\u4e09\u6c1f\u7532\u82ef", "en_name": ["3-Chloro-4-nitrobenzotrifluoride", "Benzene, 2-chloro-1-nitro-4-(trifluoromethyl)-", "Toluene, 3-chloro-4-nitro-\u03b1,\u03b1,\u03b1-trifluoro-", "2-Chloro-1-nitro-4-(trifluoromethyl)benzene", "3-Chloro-4-nitrobenzotrifluoride", "2-Chloro-4-(trifluoromethyl)-1-nitrobenzene"], "SMILES": "C(F)(F)(F)C1=CC(Cl)=C(N(=O)=O)C=C1", "physical_data": {"Molecular Weight": "225.55", "Molecular Formula": "C7H3ClF3NO2", "Boiling Point": "116 \u00b0C @ Press: 28 Torr", "Density": "1.527 g/cm\u00b3 @ Temp: 24 \u00b0C"}}