{"cas_no": "402-46-0", "cn_name": "4-\u6c1f\u82ef\u78fa\u9170\u80fa", "en_name": ["4-Fluorobenzenesulfonamide", "Benzenesulfonamide, 4-fluoro-", "Benzenesulfonamide, p-fluoro-", "4-Fluorobenzenesulfonamide", "p-Fluorobenzenesulfonamide", "4-Fluorobenzene-1-sulfonamide"], "SMILES": "S(N)(=O)(=O)C1=CC=C(F)C=C1", "physical_data": {"Molecular Weight": "175.18", "Molecular Formula": "C6H6FNO2S", "Melting Point": "125-126 \u00b0C"}}