{"cas_no": "402-42-6", "cn_name": "4-\u6c1f\u4e09\u6c2f\u82c4", "en_name": ["1-Fluoro-4-(trichloromethyl)benzene", "Benzene, 1-fluoro-4-(trichloromethyl)-", "Toluene, \u03b1,\u03b1,\u03b1-trichloro-p-fluoro-", "1-Fluoro-4-(trichloromethyl)benzene", "Trichloro(p-fluorophenyl)methane", "4-Fluorophenyltrichloromethane", "p-Fluorobenzotrichloride", "4-Fluorobenzotrichloride", "\u03b1,\u03b1,\u03b1-Trichloro-p-fluorotoluene", "NSC 10310"], "SMILES": "C(Cl)(Cl)(Cl)C1=CC=C(F)C=C1", "physical_data": {"Molecular Weight": "213.46", "Molecular Formula": "C7H4Cl3F", "Boiling Point": "121-125 \u00b0C @ Press: 45 Torr"}}