{"cas_no": "402-64-2", "cn_name": "3-\u6c1f\u4e8c\u6c2f\u7532\u57fa\u82ef", "en_name": ["1-(Dichloromethyl)-3-fluorobenzene", "Benzene, 1-(dichloromethyl)-3-fluoro-", "Toluene, \u03b1,\u03b1-dichloro-m-fluoro-", "1-(Dichloromethyl)-3-fluorobenzene", "m-Fluorobenzal chloride", "NSC 60715"], "SMILES": "C(Cl)(Cl)C1=CC(F)=CC=C1", "physical_data": {"Molecular Weight": "179.02", "Molecular Formula": "C7H5Cl2F", "Boiling Point": "195-197 \u00b0C @ Press: 756 Torr", "Density": "1.3441 g/cm\u00b3 @ Temp: 20 \u00b0C"}}