{"cas_no": "402-63-1", "cn_name": "1-(3-\u6c1f\u82ef\u57fa)-1-\u4e59\u9187", "en_name": ["3-Fluoro-\u03b1-methylbenzenemethanol", "Benzenemethanol, 3-fluoro-\u03b1-methyl-", "Benzyl alcohol, m-fluoro-\u03b1-methyl-", "3-Fluoro-\u03b1-methylbenzenemethanol", "1-(3-Fluorophenyl)ethanol", "NSC 2996", "(\u00b1)-1-(m-Fluorophenyl)ethanol", "1-(3-Fluorophenyl)ethan-1-ol"], "SMILES": "C(C)(O)C1=CC(F)=CC=C1", "physical_data": {"Molecular Weight": "140.15", "Molecular Formula": "C8H9FO", "Boiling Point": "120-121 \u00b0C @ Press: 45 Torr", "Density": "1.1201 g/cm\u00b3 @ Temp: 20 \u00b0C"}}