{"cas_no": "402-49-3", "cn_name": "1-\u6eb4-\u4e09\u6c1f\u5bf9\u4e8c\u7532\u82ef", "en_name": ["4-(Trifluoromethyl)benzyl bromide", "Benzene, 1-(bromomethyl)-4-(trifluoromethyl)-", "p-Xylene, \u03b1\u2032-bromo-\u03b1,\u03b1,\u03b1-trifluoro-", "1-(Bromomethyl)-4-(trifluoromethyl)benzene", "\u03b1\u2032-Bromo-\u03b1,\u03b1,\u03b1-trifluoro-p-xylene", "p-(Trifluoromethyl)benzyl bromide", "4-(Trifluoromethyl)benzyl bromide", "1-Trifluoromethyl-4-(bromomethyl)benzene", "4-Bromomethylbenzotrifluoride"], "SMILES": "C(F)(F)(F)C1=CC=C(CBr)C=C1", "physical_data": {"Molecular Weight": "239.03", "Molecular Formula": "C8H6BrF3", "Boiling Point": "65-66 \u00b0C @ Press: 5 Torr"}}