{"cas_no": "402-23-3", "cn_name": "3-(\u4e09\u6c1f\u7532\u57fa)\u6eb4\u82c4", "en_name": ["3-(Trifluoromethyl)benzyl bromide", "Benzene, 1-(bromomethyl)-3-(trifluoromethyl)-", "m-Xylene, \u03b1\u2032-bromo-\u03b1,\u03b1,\u03b1-trifluoro-", "1-(Bromomethyl)-3-(trifluoromethyl)benzene", "\u03b1\u2032-Bromo-\u03b1,\u03b1,\u03b1-trifluoro-m-xylene", "3-(Bromomethyl)benzotrifluoride", "3-(Trifluoromethyl)benzyl bromide", "m-(Trifluoromethyl)benzyl bromide", "3-(Bromomethyl)-1-(trifluoromethyl)benzene"], "SMILES": "C(F)(F)(F)C1=CC(CBr)=CC=C1", "physical_data": {"Molecular Weight": "239.03", "Molecular Formula": "C8H6BrF3", "Boiling Point": "69 \u00b0C @ Press: 4 Torr"}}