{"cas_no": "40204-26-0", "cn_name": "\u4e19\u4e8c\u9178\u5355\u82ef\u7532\u916f", "en_name": ["1-(Phenylmethyl) propanedioate", "Propanedioic acid, 1-(phenylmethyl) ester", "Propanedioic acid, mono(phenylmethyl) ester", "1-(Phenylmethyl) propanedioate", "Monobenzyl malonate", "Benzyl hemimalonate", "Malonic acid monobenzyl ester", "2-(Benzyloxycarbonyl)acetic acid", "Benzyl hydrogen malonate", "(Benzyloxycarbonyl)acetic acid", "3-(Benzyloxy)-3-oxopropanoic acid", "3-Oxo-3-phenylmethoxypropanoic acid"], "SMILES": "C(OC(CC(O)=O)=O)C1=CC=CC=C1", "physical_data": {"Molecular Weight": "194.18", "Molecular Formula": "C10H10O4", "Melting Point": "50.5 \u00b0C", "Density": "1.0737 g/cm\u00b3 @ Temp: 20 \u00b0C"}}