{"cas_no": "40207-02-1", "cn_name": "4-(2-\u7532\u6c27\u57fa\u82ef\u57fa)-3-\u6c28\u57fa\u786b\u8132", "en_name": ["N-(2-Methoxyphenyl)hydrazinecarbothioamide", "Hydrazinecarbothioamide, N-(2-methoxyphenyl)-", "Semicarbazide, 4-(o-methoxyphenyl)-3-thio-", "N-(2-Methoxyphenyl)hydrazinecarbothioamide", "4-(o-Methoxyphenyl)-3-thiosemicarbazide", "4-(o-Methoxyphenyl)thiosemicarbazide", "4-(2-Methoxyphenyl)thiosemicarbazide", "4-(2-Methoxyphenyl)-3-thiosemicarbazide", "N-(2-Methoxyphenyl)thiosemicarbazide", "1-Amino-3-(2-methoxyphenyl)thiourea", "3-Amino-1-(2-methoxyphenyl)thiourea"], "SMILES": "N(C(NN)=S)C1=C(OC)C=CC=C1", "physical_data": {"Molecular Weight": "197.26", "Molecular Formula": "C8H11N3OS", "Melting Point": "156 \u00b0C"}}