{"cas_no": "4020-99-9", "cn_name": "\u4e8c\u82ef\u57fa\u7532\u6c27\u57fa\u81a6", "en_name": ["Methyl P,P-diphenylphosphinite", "Phosphinous acid, P,P-diphenyl-, methyl ester", "Phosphinous acid, diphenyl-, methyl ester", "Methyl P,P-diphenylphosphinite", "Methoxydiphenylphosphine", "Methyl diphenylphosphinite", "Diphenylmethoxyphosphine", "NSC 171167"], "SMILES": "P(OC)(C1=CC=CC=C1)C2=CC=CC=C2", "physical_data": {"Molecular Weight": "216.22", "Molecular Formula": "C13H13OP", "Boiling Point": "158 \u00b0C @ Press: 12 Torr"}}