{"cas_no": "40207-03-2", "cn_name": "4-(4-\u7532\u6c27\u82ef\u57fa)-3-\u6c28\u57fa\u786b\u8132", "en_name": ["4-(4-Methoxyphenyl)thiosemicarbazide", "Hydrazinecarbothioamide, N-(4-methoxyphenyl)-", "Semicarbazide, 4-(p-methoxyphenyl)-3-thio-", "N-(4-Methoxyphenyl)hydrazinecarbothioamide", "4-(p-Methoxyphenyl)-3-thiosemicarbazide", "4-(p-Methoxyphenyl)thiosemicarbazide", "4-(4-Methoxyphenyl)thiosemicarbazide", "4-(4-Methoxyphenyl)-3-thiosemicarbazide", "NSC 157324", "N-(4-Methoxyphenyl)thiosemicarbazide", "1-Amino-3-(4-methoxyphenyl)thiourea", "3-Amino-1-(4-methoxyphenyl)thiourea"], "SMILES": "N(C(NN)=S)C1=CC=C(OC)C=C1", "physical_data": {"Molecular Weight": "197.26", "Molecular Formula": "C8H11N3OS", "Melting Point": "154 \u00b0C"}}