{"cas_no": "4021-07-2", "cn_name": "3-\u7532\u57fa-2-\u5421\u5576\u7532\u9178", "en_name": ["3-Methylpicolinic acid", "2-Pyridinecarboxylic acid, 3-methyl-", "Picolinic acid, 3-methyl-", "3-Methyl-2-pyridinecarboxylic acid", "3-Methyl-2-picolinic acid", "3-Methylpicolinic acid", "NSC 109145", "NSC 109148"], "SMILES": "C(O)(=O)C1=C(C)C=CC=N1", "physical_data": {"Molecular Weight": "137.14", "Molecular Formula": "C7H7NO2", "Melting Point": "118 \u00b0C"}}