{"cas_no": "40216-83-9", "cn_name": "\u53cd\u5f0f-4-\u7f9f\u57fa-L-\u812f\u6c28\u9178\u7532\u916f\u76d0\u9178\u76d0", "en_name": ["4-Hydroxy-L-proline methyl ester hydrochloride", "L-Proline, 4-hydroxy-, methyl ester, hydrochloride (1:1), (4R)-", "L-Proline, 4-hydroxy-, methyl ester, hydrochloride, trans-", "Proline, 4-hydroxy-, methyl ester, hydrochloride", "L-Proline, 4-hydroxy-, methyl ester, hydrochloride, (4R)-", "Hydroxyproline methyl ester hydrochloride", "L-Hydroxyproline methyl ester hydrochloride", "4-Hydroxy-L-proline methyl ester hydrochloride", "trans-4-Hydroxyproline methyl ester hydrochloride", "Methyl L-hydroxyprolinate hydrochloride", "4-trans-Hydroxy-L-proline methyl ester hydrochloride", "trans-4-Hydroxy-L-proline methyl ester hydrochloride", "(4R)-4-Hydroxy-L-proline methyl ester hydrochloride", "4-Hydroxyproline methyl ester hydrochloride", "Methyl (2S,4R)-4-hydroxy-2-pyrrolidinecarboxylate hydrochloride", "Methyl trans-4-hydroxy-L-prolinate hydrochloride", "(2S,4R)-Methyl 4-hydroxypyrrolidine-2-carboxylate hydrochloride", "(2S,4R)-4-Hydroxypyrrolidine-2-carboxylic acid methyl ester hydrochloride", "Methyl(2S,4R)-4-hydroxypyrrolidine-2-carboxylate hydrochloride", "4-Hydroxyproline ester hydrochloride"], "SMILES": "C(OC)(=O)C1CC(O)CN1.Cl", "physical_data": {"Molecular Weight": "", "Molecular Formula": "C6H11NO3.ClH", "Melting Point": "169 \u00b0C"}}