{"cas_no": "4021-34-5", "cn_name": "5-\u7532\u6c27\u57fa-N,N-\u4e8c\u5f02\u4e19\u57fa\u8272\u80fa", "en_name": ["5-Methoxy-N,N-diisopropyltryptamine", "1H-Indole-3-ethanamine, 5-methoxy-N,N-bis(1-methylethyl)-", "Indole, 3-[2-(diisopropylamino)ethyl]-5-methoxy-", "5-Methoxy-N,N-bis(1-methylethyl)-1H-indole-3-ethanamine", "5-Methoxy-N,N-diisopropyltryptamine", "N,N-Diisopropyl-5-methoxytryptamine", "3-[2-(Diisopropylamino)ethyl]-5-methoxyindole"], "SMILES": "C(CN(C(C)C)C(C)C)C=1C=2C(NC1)=CC=C(OC)C2", "physical_data": {"Molecular Weight": "274.40", "Molecular Formula": "C17H26N2O", "Melting Point": "181-186 \u00b0C"}}