{"cas_no": "40228-93-1", "cn_name": "15-\u82ef\u57fa\u5341\u4e94\u9178", "en_name": ["Benzenepentadecanoic acid", "Benzenepentadecanoic acid", "15-Phenylpentadecanoic acid"], "SMILES": "C(CCCCCCCCCCCCCC(O)=O)C1=CC=CC=C1", "physical_data": {"Molecular Weight": "318.49", "Molecular Formula": "C21H34O2", "Melting Point": "60-61 \u00b0C"}}