{"cas_no": "4022-81-5", "cn_name": "1-(4-\u6c2f\u82ef\u57fa)\u53cc\u80cd\u76d0\u9178\u76d0", "en_name": ["Imidodicarbonimidic diamide, N-(4-chlorophenyl)-, hydrochloride (1:1)", "Imidodicarbonimidic diamide, N-(4-chlorophenyl)-, hydrochloride (1:1)", "Biguanide, 1-(p-chlorophenyl)-, monohydrochloride", "Imidodicarbonimidic diamide, N-(4-chlorophenyl)-, monohydrochloride", "1-(p-Chlorophenyl)biguanide monohydrochloride", "N-p-Chlorophenylbiguanide hydrochloride", "1-(p-Chlorophenyl)biguanide hydrochloride", "N-(4-Chlorophenyl)imidodicarbonimidic diamide monohydrochloride", "[[(4-Chloroanilino)(imino)methyl]amino]methanimidamide hydrochloride", "1-(4-Chlorophenyl)biguanide hydrochloride"], "SMILES": "N(C(NC(=N)N)=N)C1=CC=C(Cl)C=C1.Cl", "physical_data": {"Molecular Weight": "", "Molecular Formula": "C8H10ClN5.ClH", "Melting Point": "253-254 \u00b0C"}}