{"cas_no": "40220-08-4", "cn_name": "\u4e09-2-\u4e19\u70ef\u9178[2,4,6-\u4e09\u6c27\u4ee3-1,3,5-\u4e09\u55ea-1,3,5(2H,4H,6H)-\u6b21\u57fa]\u4e09-2,1-\u4e9a\u4e59\u916f", "en_name": ["Tris(2-hydroxyethyl) isocyanurate triacrylate", "2-Propenoic acid, 1,1\u2032,1\u2032\u2032-[(2,4,6-trioxo-1,3,5-triazine-1,3,5(2H,4H,6H)-triyl)tri-2,1-ethanediyl] ester", "2-Propenoic acid, (2,4,6-trioxo-1,3,5-triazine-1,3,5(2H,4H,6H)-triyl)tri-2,1-ethanediyl ester", "Tris[2-(acryloyloxy)ethyl] isocyanurate", "Tris(2-hydroxyethyl) isocyanurate triacrylate", "Tris(\u03b2-acryloyloxyethyl) isocyanurate", "FA 731A", "Aronix M 315", "Sartomer SR 368", "SR 368", "Tris(2-acryloxyethyl) isocyanurate", "Genomer T 930", "Fancryl FA 731A", "SR 360", "Newfrontier TEICA", "Sartomer 369", "GX 8430", "Tris(2-hydroxyethyl)isocyanuric acid triacrylate", "Sartomer 368", "Ebecryl IRR 264", "THEICTA", "CN 936", "NK Ester A 9300", "A 9300", "M 315", "Tris(acryloyloxyethyl) isocyanurate", "Newfrontier GX 8430", "Miramer M 370", "M 370", "A 9300S", "Tri(2-hydroxyethyl)isocyanurate triacrylate", "NK Ester A 9300S", "EM 2308", "SR 368DNS", "SR 368NS", "Tris hydroxyethyl isocyanurate triacrylate", "Fancryl FA 331A", "EM 238-1", "SR 387", "Accelerator 407534", "Ebecryl 8602-Ebecryl LED 02-Photomer 4356-Sartomer SR 399-OPTOOL DAC-HP copolymer", "Photomer 4356"], "SMILES": "C(COC(C=C)=O)N1C(=O)N(CCOC(C=C)=O)C(=O)N(CCOC(C=C)=O)C1=O", "physical_data": {"Molecular Weight": "423.37", "Molecular Formula": "C18H21N3O9", "Melting Point": "52 \u00b0C"}}