{"cas_no": "4023-53-4", "cn_name": "\u4e09(2-\u6c30\u4e59\u57fa)\u81a6", "en_name": ["Tris(2-cyanoethyl)phosphine", "Propanenitrile, 3,3\u2032,3\u2032\u2032-phosphinidynetris-", "Propionitrile, 3,3\u2032,3\u2032\u2032-phosphinidynetri-", "Propionitrile, 3,3\u2032,3\u2032-phosphinidynetri-", "3,3\u2032,3\u2032\u2032-Phosphinidynetris[propanenitrile]", "Phosphine, tris(2-cyanoethyl)-", "Tris(2-cyanoethyl)phosphine", "Tris(\u03b2-cyanoethyl)phosphine", "NSC 41940", "3,3\u2032,3\u2032\u2032-Phosphinetriyltripropanenitrile"], "SMILES": "P(CCC#N)(CCC#N)CCC#N", "physical_data": {"Molecular Weight": "193.19", "Molecular Formula": "C9H12N3P", "Melting Point": "97 \u00b0C"}}