{"cas_no": "4023-34-1", "cn_name": "\u73af\u4e19\u57fa\u7532\u9170\u6c2f", "en_name": ["Cyclopropanecarbonyl chloride", "Cyclopropanecarbonyl chloride", "Cyclopropylcarbonyl chloride", "Cyclopropanecarboxylic acid chloride", "Cyclopropanoyl chloride", "Cyclopropylcarboxylic acid chloride"], "SMILES": "C(Cl)(=O)C1CC1", "physical_data": {"Molecular Weight": "104.53", "Molecular Formula": "C4H5ClO", "Boiling Point": "109-112 \u00b0C", "Melting Point": "77.5-78.5 \u00b0C"}}