{"cas_no": "4023-02-3", "cn_name": "1H-\u5421\u5511-1-\u7532\u8112\u76d0\u9178\u76d0", "en_name": ["1H-Pyrazole-1-carboxamidine hydrochloride", "1H-Pyrazole-1-carboximidamide, hydrochloride (1:1)", "Pyrazole-1-carboxamidine, hydrochloride", "1H-Pyrazole-1-carboximidamide, monohydrochloride", "1H-Pyrazole-1-carboxamidine hydrochloride", "Pyrazole-1-carboximidamide hydrochloride", "Praxadine hydrochloride", "1-Amidinopyrazole hydrochloride", "1H-Pyrazole-1-carboxamidine monohydrochloride", "[Amino(pyrazol-1-yl)methylene]ammonium chloride"], "SMILES": "C(=N)(N)N1C=CC=N1.Cl", "physical_data": {"Molecular Weight": "", "Molecular Formula": "C4H6N4.ClH", "Melting Point": "165-166 \u00b0C"}}