{"cas_no": "40235-68-5", "cn_name": "1-\u4e59\u9170\u6c27\u57fa-3-\u6c2f\u4e19\u916e", "en_name": ["1-(Acetyloxy)-3-chloro-2-propanone", "2-Propanone, 1-(acetyloxy)-3-chloro-", "2-Propanone, 1-chloro-3-hydroxy-, acetate", "1-(Acetyloxy)-3-chloro-2-propanone", "3-Chloro-2-oxo-1-propanol, acetate", "1-Chloro-3-acetoxy-2-propanone", "1-Acetoxy-3-chloro-2-propanone", "Chloroacetol acetate", "1-Acetoxy-3-chloroacetone", "3-Chloro-2-oxopropyl acetate", "1-Acetyloxy-3-chloroacetone"], "SMILES": "C(COC(C)=O)(CCl)=O", "physical_data": {"Molecular Weight": "150.56", "Molecular Formula": "C5H7ClO3", "Boiling Point": "112-114 \u00b0C @ Press: 16 Torr"}}