{"cas_no": "40236-20-2", "cn_name": "3,5-\u4e8c\u7532\u57fa-4-\u785d\u57fa\u5421\u54af-2-\u7532\u919b", "en_name": ["3,5-Dimethyl-4-nitro-1H-pyrrole-2-carboxaldehyde", "1H-Pyrrole-2-carboxaldehyde, 3,5-dimethyl-4-nitro-", "3,5-Dimethyl-4-nitro-1H-pyrrole-2-carboxaldehyde", "3,5-Dimethyl-4-nitro-2-pyrrolecarboxaldehyde", "3,5-Dimethyl-4-nitro-1H-pyrrole-2-carbaldehyde"], "SMILES": "N(=O)(=O)C=1C(C)=C(C=O)NC1C", "physical_data": {"Molecular Weight": "168.15", "Molecular Formula": "C7H8N2O3", "Melting Point": "220-229 \u00b0C (decomp)"}}