{"cas_no": "4023-65-8", "cn_name": "\u53cd\u5f0f-\u4e4c\u5934\u9178", "en_name": ["trans-Aconitic acid", "1-Propene-1,2,3-tricarboxylic acid, (1E)-", "1-Propene-1,2,3-tricarboxylic acid, (E)-", "Aconitic acid, trans-", "(1E)-1-Propene-1,2,3-tricarboxylic acid", "trans-Aconitic acid", "trans-1-Propene-1,2,3-tricarboxylic acid", "(E)-Aconitic acid", "(E)-1-Propene-1,2,3-tricarboxylic acid", "(1E)-Prop-1-ene-1,2,3-tricarboxylic acid"], "SMILES": "C(CC(O)=O)(=CC(O)=O)C(O)=O", "physical_data": {"Molecular Weight": "174.11", "Molecular Formula": "C6H6O6", "Melting Point": "173 \u00b0C"}}