{"cas_no": "40246-10-4", "cn_name": "\u9ec4\u8c46\u9ec4\u82f7", "en_name": ["Glycitin", "4H-1-Benzopyran-4-one, 7-(\u03b2-D-glucopyranosyloxy)-3-(4-hydroxyphenyl)-6-methoxy-", "7-(\u03b2-D-Glucopyranosyloxy)-3-(4-hydroxyphenyl)-6-methoxy-4H-1-benzopyran-4-one", "Glycitein 7-O-\u03b2-glucoside", "Glycitein 7-O-glucoside", "Glycitein-7-\u03b2-O-glucoside", "Glycitin"], "SMILES": "O=C1C=2C(=CC(OC3OC(CO)C(O)C(O)C3O)=C(OC)C2)OC=C1C4=CC=C(O)C=C4", "physical_data": {"Molecular Weight": "446.40", "Molecular Formula": "C22H22O10", "Melting Point": "203-204 \u00b0C"}}