{"cas_no": "4024-34-4", "cn_name": "\u7532\u82ef\u6d77\u660e", "en_name": ["Neobenodine", "Ethanamine, N,N-dimethyl-2-[(4-methylphenyl)phenylmethoxy]-, hydrochloride (1:1)", "Ethylamine, N,N-dimethyl-2-[(p-methyl-\u03b1-phenylbenzyl)oxy]-, hydrochloride", "Ethanamine, N,N-dimethyl-2-[(4-methylphenyl)phenyl methoxy]-, hydrochloride", "Neobenodine", "4-Methyldiphenhydramine hydrochloride", "2-[(p-Methyl-\u03b1-phenylbenzyl)oxy]ethyl(dimethyl)ammonium chloride"], "SMILES": "C(OCCN(C)C)(C1=CC=C(C)C=C1)C2=CC=CC=C2.Cl", "physical_data": {"Molecular Weight": "", "Molecular Formula": "C18H23NO.ClH", "Melting Point": "150-152 \u00b0C"}}