{"cas_no": "402470-91-1", "cn_name": "\u7532\u82ef\u7532\u9170\u4e19\u9170\u80fa", "en_name": ["N,N,4-Trimethyl-\u03b3-oxobenzenebutanamide", "Benzenebutanamide, N,N,4-trimethyl-\u03b3-oxo-", "N,N,4-Trimethyl-\u03b3-oxobenzenebutanamide", "N,N-Dimethyl-3-(4-methylbenzoyl)propionamide", "N,N-Dimethyl 4-(4-Methylphenyl)-4-oxobutanamide"], "SMILES": "C(CCC(N(C)C)=O)(=O)C1=CC=C(C)C=C1", "physical_data": {"Molecular Weight": "219.28", "Molecular Formula": "C13H17NO2", "Melting Point": "59-60 \u00b0C"}}