{"cas_no": "40248-63-3", "cn_name": "\uff08-\uff09\u2014\u5b5f\u6c27\u57fa\u4e59\u9178", "en_name": ["2-[[(1R,2S,5R)-5-Methyl-2-(1-methylethyl)cyclohexyl]oxy]acetic acid", "Acetic acid, 2-[[(1R,2S,5R)-5-methyl-2-(1-methylethyl)cyclohexyl]oxy]-", "Acetic acid, [[5-methyl-2-(1-methylethyl)cyclohexyl]oxy]-, [1R-(1\u03b1,2\u03b2,5\u03b1)]-", "Acetic acid, [[(1R,2S,5R)-5-methyl-2-(1-methylethyl)cyclohexyl]oxy]-", "2-[[(1R,2S,5R)-5-Methyl-2-(1-methylethyl)cyclohexyl]oxy]acetic acid", "l-Menthoxyacetic acid", "(-)-Menthoxyacetic acid", "Menthyloxy acetic acid"], "SMILES": "O(CC(O)=O)C1C(C(C)C)CCC(C)C1", "physical_data": {"Molecular Weight": "214.30", "Molecular Formula": "C12H22O3", "Boiling Point": "112-115 \u00b0C @ Press: 0.3 Torr", "Melting Point": "54 \u00b0C"}}