{"cas_no": "4024-14-0", "cn_name": "1-\u7532\u57fa-2-\u56db\u6c22\u8418\u916e", "en_name": ["3,4-Dihydro-1-methyl-2(1H)-naphthalenone", "2(1H)-Naphthalenone, 3,4-dihydro-1-methyl-", "3,4-Dihydro-1-methyl-2(1H)-naphthalenone", "1-Methyl-2-tetralone", "(RS)-1-Methyl-2-tetralone", "NSC 89281", "1,2,3,4-Tetrahydro-1-methylnaphthalen-2-one", "1-Methyl-3,4-dihydronaphthalen-2(1H)-one", "1-Methyl-1,2,3,4-tetrahydronaphthalen-2-one", "1-Methyl-3,4-dihydro-1H-naphthalen-2-one"], "SMILES": "CC1C=2C(CCC1=O)=CC=CC2", "physical_data": {"Molecular Weight": "160.21", "Molecular Formula": "C11H12O", "Boiling Point": "137-138 \u00b0C @ Press: 18 Torr", "Density": "1.0873 g/cm\u00b3 @ Temp: 20 \u00b0C"}}