{"cas_no": "40244-90-4", "cn_name": "\u6c2f\u4e8c\u5f02\u4e19\u57fa\u77b5", "en_name": ["Chlorodiisopropylphosphine", "Phosphinous chloride, P,P-bis(1-methylethyl)-", "Phosphinous chloride, bis(1-methylethyl)-", "Phosphinous chloride, diisopropyl-", "P,P-Bis(1-methylethyl)phosphinous chloride", "Chlorodiisopropylphosphine", "Diisopropylchlorophosphine", "Diisopropylphosphinyl chloride", "Diisopropylphosphinous chloride", "Chlorobis(isopropyl)phosphine", "Diisopropylphosphine chloride", "Bis(1-methylethyl)phosphinous chloride"], "SMILES": "P(C(C)C)(C(C)C)Cl", "physical_data": {"Molecular Weight": "152.60", "Molecular Formula": "C6H14ClP", "Boiling Point": "55-60 \u00b0C @ Press: 10 Torr"}}