{"cas_no": "40258-78-4", "cn_name": "1-\u6eb4\u4e59\u57fa\u4e59\u9178\u916f", "en_name": ["Ethanol, 1-bromo-, 1-acetate", "Ethanol, 1-bromo-, 1-acetate", "Ethanol, 1-bromo-, acetate", "1-Bromoethyl acetate", "\u03b1-Bromoethyl acetate", "1-Acetoxyethyl bromide", "(RS)-1-Acetoxyethyl bromide"], "SMILES": "O(C(Br)C)C(C)=O", "physical_data": {"Molecular Weight": "167.00", "Molecular Formula": "C4H7BrO2", "Boiling Point": "122-125 \u00b0C @ Press: 738 Torr"}}