{"cas_no": "40252-74-2", "cn_name": "DMEOB", "en_name": ["3-Methoxybenzaldehyde 2-[(3-methoxyphenyl)methylene]hydrazone", "Benzaldehyde, 3-methoxy-, 2-[(3-methoxyphenyl)methylene]hydrazone", "Benzaldehyde, 3-methoxy-, [(3-methoxyphenyl)methylene]hydrazone", "m-Anisaldehyde, azine", "3-Methoxybenzaldehyde 2-[(3-methoxyphenyl)methylene]hydrazone", "3,3\u2032-Dimethoxybenzaldazine"], "SMILES": "C(=NN=CC1=CC(OC)=CC=C1)C2=CC(OC)=CC=C2", "physical_data": {"Molecular Weight": "268.31", "Molecular Formula": "C16H16N2O2", "Melting Point": "77-78 \u00b0C"}}