{"cas_no": "4025-75-6", "cn_name": "(4-\u785d\u57fa\u82ef\u57fa)\u7532\u78fa\u9170\u6c2f", "en_name": ["4-Nitrobenzenemethanesulfonyl chloride", "Benzenemethanesulfonyl chloride, 4-nitro-", "\u03b1-Toluenesulfonyl chloride, p-nitro-", "4-Nitrobenzenemethanesulfonyl chloride", "(p-Nitrophenyl)methanesulfonyl chloride", "p-Nitrobenzylsulfonyl chloride", "(4-Nitrophenyl)methanesulfonyl chloride", "p-Nitro-\u03b1-toluenesulfonyl chloride", "4-Nitrobenzylsulfonyl chloride"], "SMILES": "C(S(Cl)(=O)=O)C1=CC=C(N(=O)=O)C=C1", "physical_data": {"Molecular Weight": "235.64", "Molecular Formula": "C7H6ClNO4S", "Melting Point": "92-93 \u00b0C"}}