{"cas_no": "4025-64-3", "cn_name": "3-\u6c2f\u78fa\u9170\u57fa\u82ef\u7532\u9178", "en_name": ["3-(Chlorosulfonyl)benzoic acid", "Benzoic acid, 3-(chlorosulfonyl)-", "Benzoic acid, m-(chlorosulfonyl)-", "3-(Chlorosulfonyl)benzoic acid", "3-Carboxyphenylsulfonyl chloride", "m-Chlorosulfonylbenzoic acid", "3-Carboxybenzenesulfonyl chloride", "m-Carboxybenzenesulfonyl chloride", "NSC 23778", "NSC 44616"], "SMILES": "S(Cl)(=O)(=O)C1=CC(C(O)=O)=CC=C1", "physical_data": {"Molecular Weight": "220.63", "Molecular Formula": "C7H5ClO4S", "Melting Point": "131 \u00b0C"}}