{"cas_no": "4026-18-0", "cn_name": "2-\u7f9f\u57fa-3-\u7532\u57fa\u4e01\u9178", "en_name": ["(\u00b1)-2-Hydroxyisovaleric acid", "Butanoic acid, 2-hydroxy-3-methyl-", "Butyric acid, 2-hydroxy-3-methyl-", "2-Hydroxy-3-methylbutanoic acid", "\u03b1-Hydroxyisovaleric acid", "2-Oxyisovaleric acid", "2-Hydroxyisovaleric acid", "2-Hydroxy-3-methylbutyric acid", "3-Methyl-2-hydroxybutyric acid", "(\u00b1)-\u03b1-Hydroxyisovaleric acid", "DL-\u03b1-Hydroxyisovaleric acid", "DL-2-Hydroxy-3-methylbutanoic acid", "(\u00b1)-2-Hydroxyisopentanoic acid", "DL-2-Hydroxyisovaleric acid", "(\u00b1)-2-Hydroxyisovaleric acid", "(\u00b1)-2-Hydroxy-3-methylbutyric acid", "dl-2-Hydroxyisovaleric acid", "NSC 227884", "\u03b1-Hydroxyl-3-methylbutyric acid"], "SMILES": "C(C(C)C)(C(O)=O)O", "physical_data": {"Molecular Weight": "118.13", "Molecular Formula": "C5H10O3", "Boiling Point": "120-125 \u00b0C @ Press: 17 Torr", "Melting Point": "57 \u00b0C"}}