{"cas_no": "402616-26-6", "cn_name": "\uff08S\uff09FTY720\u78f7\u9178\u76d0", "en_name": ["1,3-Propanediol, 2-amino-2-[2-(4-octylphenyl)ethyl]-, 1-(dihydrogen phosphate), (2S)-", "1,3-Propanediol, 2-amino-2-[2-(4-octylphenyl)ethyl]-, 1-(dihydrogen phosphate), (2S)-", "1,3-Propanediol, 2-amino-2-[2-(4-octylphenyl)ethyl]-, mono(dihydrogen phosphate) (ester), (2S)-", "(+)-(S)-FTY 720 phosphate", "(S)-FTY 720P", "(S)-2-Amino-2-(hydroxymethyl)-4-(4-octylphenyl)butyl dihydrogen phosphate"], "SMILES": "C(CC(COP(=O)(O)O)(CO)N)C1=CC=C(CCCCCCCC)C=C1", "physical_data": {"Molecular Weight": "387.45", "Molecular Formula": "C19H34NO5P", "Melting Point": "198-199 \u00b0C"}}