{"cas_no": "4026-95-3", "cn_name": "\u53bb\u4e59\u9170\u534e\u87fe\u870d\u7cbe", "en_name": ["Desacetylcinobufagin", "Bufa-20,22-dienolide, 14,15-epoxy-3,16-dihydroxy-, (3\u03b2,5\u03b2,15\u03b2,16\u03b2)-", "5\u03b2-Bufa-20,22-dienolide, 14,15\u03b2-epoxy-3\u03b2,16\u03b2-dihydroxy-", "Cinobufagin, deacetyl-", "(3\u03b2,5\u03b2,15\u03b2,16\u03b2)-14,15-Epoxy-3,16-dihydroxybufa-20,22-dienolide", "Deacetylcinobufagin", "Desacetylcinobufagin", "NSC 234203"], "SMILES": "CC12C3(C(O3)C(O)C1C=4C=CC(=O)OC4)C5C(CC2)C6(C)C(CC5)CC(O)CC6", "physical_data": {"Molecular Weight": "400.51", "Molecular Formula": "C24H32O5", "Melting Point": "129-130 \u00b0C"}}