{"cas_no": "40267-72-9", "cn_name": "\u9999\u53f6\u57fa\u4e59\u919a", "en_name": ["Geranyl ethyl ether", "2,6-Octadiene, 1-ethoxy-3,7-dimethyl-", "1-Ethoxy-3,7-dimethyl-2,6-octadiene", "Ethyl geranyl ether", "Geranyl ethyl ether", "2,6-Dimethyl-8-ethoxy-2,6-octadiene"], "SMILES": "C(CCC=C(C)C)(=CCOCC)C", "physical_data": {"Molecular Weight": "182.30", "Molecular Formula": "C12H22O", "Boiling Point": "218 \u00b0C", "Density": "0.864 g/cm\u00b3 @ Temp: 25 \u00b0C"}}