{"cas_no": "40263-57-8", "cn_name": "3-\u7f9f\u57fa-2-\u7898\u5421\u5576", "en_name": ["2-Iodo-3-pyridinol", "3-Pyridinol, 2-iodo-", "2-Iodo-3-pyridinol", "2-Iodo-3-hydroxypyridine", "3-Hydroxy-2-iodopyridine", "NSC 103161"], "SMILES": "OC1=C(I)N=CC=C1", "physical_data": {"Molecular Weight": "221.00", "Molecular Formula": "C5H4INO", "Melting Point": "192 \u00b0C"}}