{"cas_no": "4027-59-2", "cn_name": "2-\u4e59\u57fa-4-\u7fa7\u57fa\u5421\u5511", "en_name": ["5-Ethyl-1H-pyrazole-3-carboxylic acid", "1H-Pyrazole-3-carboxylic acid, 5-ethyl-", "Pyrazole-3-carboxylic acid, 5-ethyl-", "Pyrazole-3(or 5)-carboxylic acid, 5(or 3)-ethyl-", "5-Ethyl-1H-pyrazole-3-carboxylic acid", "5-Ethyl-3-pyrazolecarboxylic acid", "3-Ethyl-1H-pyrazole-5-carboxylic acid"], "SMILES": "C(O)(=O)C=1C=C(CC)NN1", "physical_data": {"Molecular Weight": "140.14", "Molecular Formula": "C6H8N2O2", "Melting Point": "189-192.5 \u00b0C"}}