{"cas_no": "4027-54-7", "cn_name": "5-\u82ef\u57fa-3-\u4e09\u6c1f\u7532\u57fa\u5421\u5511", "en_name": ["3-Phenyl-5-(trifluoromethyl)-1H-pyrazole", "1H-Pyrazole, 3-phenyl-5-(trifluoromethyl)-", "Pyrazole, 3-phenyl-5-(trifluoromethyl)-", "Pyrazole, 3(or 5)-phenyl-5(or 3)-(trifluoromethyl)-", "3-Phenyl-5-(trifluoromethyl)-1H-pyrazole", "5-Phenyl-3-(trifluoromethyl)pyrazole"], "SMILES": "C(F)(F)(F)C1=CC(=NN1)C2=CC=CC=C2", "physical_data": {"Molecular Weight": "212.17", "Molecular Formula": "C10H7F3N2", "Melting Point": "123-124 \u00b0C"}}