{"cas_no": "40278-59-9", "cn_name": "7,7\u2019-\u4e8c\u7532\u57fa-6,6\u2019-\u4e8c\u7f9f\u57fa-4,4,4\u2019,4\u2019-\u56db\u7532\u57fa-\u4e8c-2,2\u2019-\u87ba\u82ef\u4e8c\u6c22\u5421\u5583", "en_name": ["3,3\u2032,4,4\u2032-Tetrahydro-4,4,4\u2032,4\u2032,7,7\u2032-hexamethyl-2,2\u2032-spirobi[2H-1-benzopyran]-6,6\u2032-diol", "2,2\u2032-Spirobi[2H-1-benzopyran]-6,6\u2032-diol, 3,3\u2032,4,4\u2032-tetrahydro-4,4,4\u2032,4\u2032,7,7\u2032-hexamethyl-", "3,3\u2032,4,4\u2032-Tetrahydro-4,4,4\u2032,4\u2032,7,7\u2032-hexamethyl-2,2\u2032-spirobi[2H-1-benzopyran]-6,6\u2032-diol", "6,6\u2032-Dihydroxy-4,4,4\u2032,4\u2032,7,7\u2032-hexamethylbis-2,2\u2032-spirochroman", "6,6\u2032-Dihydroxy-4,4,4\u2032,4\u2032,7,7\u2032-hexamethyl-2,2\u2032-spirobichroman", "OHM-SP", "2,2\u2032-Spirobi[6-hydroxy-4,4,7-trimethylchromane]", "A 3880"], "SMILES": "CC1(C)CC2(OC=3C(C(C)(C)C2)=CC(O)=C(C)C3)OC=4C1=CC(O)=C(C)C4", "physical_data": {"Molecular Weight": "368.47", "Molecular Formula": "C23H28O4", "Melting Point": "200-201 \u00b0C"}}