{"cas_no": "4027-57-0", "cn_name": "3-\u7532\u57fa\u5421\u5511-5-\u7532\u9178\u4e59\u916f", "en_name": ["5-Methyl-1H-pyrazole-3-carboxylic acid ethyl ester", "1H-Pyrazole-3-carboxylic acid, 5-methyl-, ethyl ester", "Pyrazole-3-carboxylic acid, 5-methyl-, ethyl ester", "Pyrazole-3(or 5)-carboxylic acid, 5(or 3)-methyl-, ethyl ester", "Ethyl 3-methyl-5-pyrazolecarboxylate", "Ethyl 5-methylpyrazole-3-carboxylate", "3-Ethoxycarbonyl-5-methylpyrazole", "5-Methyl-1H-pyrazole-3-carboxylic acid ethyl ester", "NSC 44006", "NSC 62433", "5-Methylpyrazole-3-carboxylic acid ethyl ester", "Ethyl 5-methyl-1H-pyrazole-3-carboxylate"], "SMILES": "C(OCC)(=O)C1=NNC(C)=C1", "physical_data": {"Molecular Weight": "154.17", "Molecular Formula": "C7H10N2O2", "Melting Point": "82 \u00b0C"}}