{"cas_no": "40288-65-1", "cn_name": "1-(1,3-\u82ef\u5e76\u6c27)2-\u6eb4\u4e59\u916e", "en_name": ["1-(1,3-Benzodioxol-5-yl)-2-bromoethanone", "Ethanone, 1-(1,3-benzodioxol-5-yl)-2-bromo-", "1-(1,3-Benzodioxol-5-yl)-2-bromoethanone", "2-Bromo-3\u2032,4\u2032-(methylenedioxy)acetophenone", "3,4-Methylenedioxyphenacyl bromide", "\u03b1-Bromo-3,4-methylenedioxyacetophenone", "1-(1,3-Benzodioxol-5-yl)-2-bromoethan-1-one", "NSC 53941", "1-(Benzodioxol-5-yl)-2-bromoethanone", "1-Benzo[1,3]dioxol-5-yl-2-bromoethanone", "1-(Bromoacetyl)-3,4-methylenedioxybenzene", "2-Bromo-1-(1,3-benzodioxol-5-yl)ethanone", "5-(Bromoacetyl)-1,3-benzodioxolane", "1-(Benzo[d][1,3]dioxol-5-yl)-2-bromoethanone", "1-(2H-1,3-Benzodioxol-5-yl)-2-bromoethan-1-one", "1-(1,3-Dioxaindan-5-yl)-2-bromoethan-1-one", "2-Bromo-1-(benzo[1,3]dioxol-5-yl)-1-ethanone"], "SMILES": "C(CBr)(=O)C=1C=C2C(=CC1)OCO2", "physical_data": {"Molecular Weight": "243.05", "Molecular Formula": "C9H7BrO3", "Melting Point": "86-87 \u00b0C"}}