{"cas_no": "4028-23-3", "cn_name": "\u70ef\u4e19\u57fa\u4e8c\u7532\u57fa\u6c2f\u7845\u70f7", "en_name": ["Chlorodimethyl-2-propen-1-ylsilane", "Silane, chlorodimethyl-2-propen-1-yl-", "Silane, allylchlorodimethyl-", "Silane, chlorodimethyl-2-propenyl-", "Chlorodimethyl-2-propen-1-ylsilane", "Allyldimethylchlorosilane", "Allylchlorodimethylsilane", "Allyldimethylsilyl chloride", "Chlorodimethyl(2-propenyl)silane"], "SMILES": "C([Si](C)(C)Cl)C=C", "physical_data": {"Molecular Weight": "134.68", "Molecular Formula": "C5H11ClSi", "Boiling Point": "111 \u00b0C", "Density": "0.896 g/cm\u00b3"}}