{"cas_no": "40283-46-3", "cn_name": "2-\u6c28\u57fa\u567b\u5511-5-\u7532\u9178", "en_name": ["2-Amino-5-thiazolecarboxylic acid", "5-Thiazolecarboxylic acid, 2-amino-", "2-Amino-5-thiazolecarboxylic acid", "NSC 239729", "2-Amino-1,3-thiazole-5-carboxylic acid"], "SMILES": "C(O)(=O)C=1SC(N)=NC1", "physical_data": {"Molecular Weight": "144.15", "Molecular Formula": "C4H4N2O2S", "Melting Point": "213-215 \u00b0C (decomp)"}}