{"cas_no": "4028-63-1", "cn_name": "2,4,6-\u4e09\u7532\u57fa\u7898\u82ef", "en_name": ["Iodomesitylene", "Benzene, 2-iodo-1,3,5-trimethyl-", "Mesitylene, 2-iodo-", "2-Iodo-1,3,5-trimethylbenzene", "2-Iodomesitylene", "1-Iodo-2,4,6-trimethylbenzene", "Iodomesitylene", "2,4,6-Trimethyliodobenzene", "2,4,6-Trimethylphenyl iodide", "Mesityl iodide", "1,3,5-Trimethyl-2-iodobenzene", "Iodo-2,4,6-trimethylbenzene", "NSC 68044"], "SMILES": "IC1=C(C)C=C(C)C=C1C", "physical_data": {"Molecular Weight": "246.09", "Molecular Formula": "C9H11I", "Melting Point": "30.5 \u00b0C"}}