{"cas_no": "40291-39-2", "cn_name": "\u90bb\u7532\u82ef\u57fa\u4e59\u9178\u4e59\u916f", "en_name": ["Benzeneacetic acid, 2-methyl-, ethyl ester", "Benzeneacetic acid, 2-methyl-, ethyl ester", "Acetic acid, o-tolyl-, ethyl ester", "o-Tolylacetic acid ethyl ester", "Ethyl o-tolylacetate", "Ethyl (2-methylphenyl)acetate", "Ethyl 2-methylbenzeneacetate", "NSC 78459"], "SMILES": "C(C(OCC)=O)C1=C(C)C=CC=C1", "physical_data": {"Molecular Weight": "178.23", "Molecular Formula": "C11H14O2", "Boiling Point": "76-77 \u00b0C @ Press: 3 Torr", "Density": "0.9988 g/cm\u00b3 @ Temp: 25 \u00b0C"}}