{"cas_no": "40298-71-3", "cn_name": "NA-T-BOC-O-2,6-\u4e8c\u6c2f\u82c4\u57fa-L-\u916a\u6c28\u9178", "en_name": ["O-[(2,6-Dichlorophenyl)methyl]-N-[(1,1-dimethylethoxy)carbonyl]-L-tyrosine", "L-Tyrosine, O-[(2,6-dichlorophenyl)methyl]-N-[(1,1-dimethylethoxy)carbonyl]-", "O-[(2,6-Dichlorophenyl)methyl]-N-[(1,1-dimethylethoxy)carbonyl]-L-tyrosine", "N-(tert-Butoxycarbonyl)-O-(2,6-dichlorobenzyl)-L-tyrosine", "NSC 334369", "N-[(tert-Butoxy)carbonyl]-O-[(2,6-dichlorophenyl)methyl]-L-tyrosine", "(2S)-3-[4-[(2,6-Dichlorophenyl)methoxy]phenyl]-2-[(2-methylpropan-2-yl)oxycarbonylamino]propanoic acid"], "SMILES": "C(OC1=CC=C(CC(NC(OC(C)(C)C)=O)C(O)=O)C=C1)C2=C(Cl)C=CC=C2Cl", "physical_data": {"Molecular Weight": "440.32", "Molecular Formula": "C21H23Cl2NO5", "Melting Point": "103-104 \u00b0C"}}