{"cas_no": "403-42-9", "cn_name": "4-\u6c1f\u82ef\u4e59\u916e", "en_name": ["4\u2032-Fluoroacetophenone", "Ethanone, 1-(4-fluorophenyl)-", "Acetophenone, 4\u2032-fluoro-", "1-(4-Fluorophenyl)ethanone", "p-Fluoroacetophenone", "4\u2032-Fluoroacetophenone", "1-Acetyl-4-fluorobenzene", "Methyl 4-fluorophenyl ketone", "4-Acetylfluorobenzene", "4-Fluorophenyl methyl ketone", "1-(4-Fluorophenyl)ethan-1-one", "4-Acetylphenyl fluoride", "NSC 30635", "p-Fluorophenyl methyl ketone", "p-Fluorohypnone", "4-Flouroacetophenone"], "SMILES": "C(C)(=O)C1=CC=C(F)C=C1", "physical_data": {"Molecular Weight": "138.14", "Molecular Formula": "C8H7FO", "Boiling Point": "196 \u00b0C", "Melting Point": "-45 \u00b0C", "Density": "1.043 g/cm\u00b3 @ Temp: 30 \u00b0C"}}