{"cas_no": "403-32-7", "cn_name": "4-\u6c1f\u82ef\u7532\u9170\u7532\u919b\u6c34\u5408\u7269", "en_name": ["(4-Fluorophenyl)glyoxal", "Benzeneacetaldehyde, 4-fluoro-\u03b1-oxo-", "Glyoxal, (p-fluorophenyl)-", "4-Fluoro-\u03b1-oxobenzeneacetaldehyde", "(4-Fluorophenyl)glyoxal", "(p-Fluorophenyl)glyoxal", "NSC 402742", "2-(4-Fluorophenyl)-2-oxoacetaldehyde"], "SMILES": "C(C=O)(=O)C1=CC=C(F)C=C1", "physical_data": {"Molecular Weight": "152.12", "Molecular Formula": "C8H5FO2", "Boiling Point": "65-67 \u00b0C @ Press: 5 Torr"}}