{"cas_no": "403-31-6", "cn_name": "4'-\u6c1f-2-\u7f9f\u57fa\u82ef\u4e59\u916e", "en_name": ["1-(4-Fluorophenyl)-2-hydroxyethanone", "Ethanone, 1-(4-fluorophenyl)-2-hydroxy-", "1-(4-Fluorophenyl)-2-hydroxyethanone", "p-Fluorophenacyl alcohol", "2-Hydroxy-1-(4-fluorophenyl)ethanone", "4\u2032-Fluoro-\u03b1-hydroxyacetophenone", "4-Fluoro-\u03b1-hydroxyacetophenone", "1-(4-Fluorophenyl)-2-hydroxyethan-1-one"], "SMILES": "C(CO)(=O)C1=CC=C(F)C=C1", "physical_data": {"Molecular Weight": "154.14", "Molecular Formula": "C8H7FO2", "Melting Point": "114 \u00b0C"}}