{"cas_no": "403-43-0", "cn_name": "\u5bf9\u6c1f\u82ef\u7532\u9170\u6c2f", "en_name": ["4-Fluorobenzoyl chloride", "Benzoyl chloride, 4-fluoro-", "Benzoyl chloride, p-fluoro-", "4-Fluorobenzoyl chloride", "p-Fluorobenzoyl chloride", "p-Fluorobenzoic acid chloride", "4-Fluorobenzenecarbonyl chloride", "4-Fluorobenzoic acid chloride", "NSC 88305"], "SMILES": "C(Cl)(=O)C1=CC=C(F)C=C1", "physical_data": {"Molecular Weight": "158.56", "Molecular Formula": "C7H4ClFO", "Boiling Point": "191-192 \u00b0C", "Melting Point": "9 \u00b0C"}}