{"cas_no": "403-41-8", "cn_name": "1-(4-\u6c1f\u82ef\u57fa)-1-\u4e59\u9187", "en_name": ["1-(4-Fluorophenyl)ethanol", "Benzenemethanol, 4-fluoro-\u03b1-methyl-", "Benzyl alcohol, p-fluoro-\u03b1-methyl-", "4-Fluoro-\u03b1-methylbenzenemethanol", "p-Fluoro-\u03b1-methylbenzyl alcohol", "4-Fluoro-\u03b1-methylbenzyl alcohol", "1-(p-Fluorophenyl)ethanol", "1-(4-Fluorophenyl)ethanol", "(\u00b1)-1-(4-Fluorophenyl)ethanol", "NSC 2983", "\u03b1-Methyl-4-fluorobenzyl alcohol", "(\u00b1)-1-(p-Fluorophenyl)ethanol", "1-(4-Flourophenyl)ethanol", "1-(4-Fluorophenyl)ethan-1-ol"], "SMILES": "C(C)(O)C1=CC=C(F)C=C1", "physical_data": {"Molecular Weight": "140.15", "Molecular Formula": "C8H9FO", "Boiling Point": "122-123 \u00b0C @ Press: 45 Torr", "Melting Point": "9 \u00b0C", "Density": "1.122 g/cm\u00b3 @ Temp: 20 \u00b0C"}}