{"cas_no": "403-29-2", "cn_name": "2-\u6eb4-4'-\u6c1f\u82ef\u4e59\u916e", "en_name": ["4-Fluorophenacyl bromide", "Ethanone, 2-bromo-1-(4-fluorophenyl)-", "Acetophenone, 2-bromo-4\u2032-fluoro-", "2-Bromo-1-(4-fluorophenyl)ethanone", "\u03b1-Bromo-4\u2032-fluoroacetophenone", "2-Bromo-4\u2032-fluoroacetophenone", "4-Fluorophenacyl bromide", "p-Fluorophenacyl bromide", "2-Bromo-p-fluoroacetophenone", "4\u2032-Fluoro-\u03b1-bromoacetophenone", "\u03b1-Bromo-p-fluoroacetophenone", "Bromomethyl 4-fluorophenyl ketoxime", "\u03b1-Bromo-4-fluoroacetophenone", "p-Fluoro-\u03b1-bromoacetophenone", "2-Bromo-1-(4-fluorophenyl)-1-ethanone", "1-(4-Fluorophenyl)-2-bromoethanone", "NSC 88343", "4\u2032-Fluoro-2-bromoacetophenone", "2-Bromo-(4-fluorophenyl)ethan-1-one"], "SMILES": "C(CBr)(=O)C1=CC=C(F)C=C1", "physical_data": {"Molecular Weight": "217.04", "Molecular Formula": "C8H6BrFO", "Boiling Point": "150-155 \u00b0C @ Press: 12 Torr", "Melting Point": "48-49 \u00b0C"}}