{"cas_no": "403-40-7", "cn_name": "DL-4-\u6c1f-\u03b1-\u7532\u57fa\u82c4\u80fa", "en_name": ["1-(4-Fluorophenyl)ethylamine", "Benzenemethanamine, 4-fluoro-\u03b1-methyl-", "Benzylamine, p-fluoro-\u03b1-methyl-", "4-Fluoro-\u03b1-methylbenzenemethanamine", "p-Fluoro-\u03b1-methylbenzylamine", "1-(4-Fluorophenyl)ethylamine", "1-(p-Fluorophenyl)ethylamine", "1-(4-Fluorophenyl)ethanamine", "4-Fluoro-\u03b1-methylbenzylamine", "1-(4-Fluorophenyl)-1-ethanamine", "(\u00b1)-1-(4-Fluorophenyl)ethylamine", "\u03b1-Methyl-4-fluorobenzylamine"], "SMILES": "C(C)(N)C1=CC=C(F)C=C1", "physical_data": {"Molecular Weight": "139.17", "Molecular Formula": "C8H10FN", "Boiling Point": "75-76 \u00b0C @ Press: 12 Torr"}}