{"cas_no": "403-54-3", "cn_name": "3-\u6c1f\u82ef\u8148", "en_name": ["3-Fluorobenzonitrile", "Benzonitrile, 3-fluoro-", "Benzonitrile, m-fluoro-", "3-Fluorobenzonitrile", "m-Fluorobenzonitrile", "m-Cyanofluorobenzene", "m-Fluorobenzonitrile", "NSC 88310", "3-Fluorobenzenenitrile"], "SMILES": "C(#N)C1=CC(F)=CC=C1", "physical_data": {"Molecular Weight": "121.11", "Molecular Formula": "C7H4FN", "Boiling Point": "182.5 \u00b0C", "Melting Point": "-16 \u00b0C"}}