{"cas_no": "403-33-8", "cn_name": "\u5bf9\u6c1f\u82ef\u7532\u9178\u7532\u916f", "en_name": ["Methyl 4-fluorobenzoate", "Benzoic acid, 4-fluoro-, methyl ester", "Benzoic acid, p-fluoro-, methyl ester", "Methyl 4-fluorobenzoate", "Methyl p-fluorobenzoate", "4-Fluorobenzoic acid methyl ester", "NSC 102770", "4-Methoxycarbonyl-1-fluorobenzene"], "SMILES": "C(OC)(=O)C1=CC=C(F)C=C1", "physical_data": {"Molecular Weight": "154.14", "Molecular Formula": "C8H7FO2", "Boiling Point": "197 \u00b0C", "Melting Point": "4.5 \u00b0C"}}