{"cas_no": "403-15-6", "cn_name": "4-\u6c1f-3-\u7532\u57fa-\u82ef\u7532\u9178", "en_name": ["4-Fluoro-3-methylbenzoic acid", "Benzoic acid, 4-fluoro-3-methyl-", "m-Toluic acid, 4-fluoro-", "4-Fluoro-3-methylbenzoic acid", "4-Fluoro-m-toluic acid", "NSC 51778"], "SMILES": "C(O)(=O)C1=CC(C)=C(F)C=C1", "physical_data": {"Molecular Weight": "154.14", "Molecular Formula": "C8H7FO2", "Melting Point": "165 \u00b0C"}}