{"cas_no": "403-39-4", "cn_name": "1-FLUORO-4-ISOPROPYLBENZENE", "en_name": ["4-Fluorocumene", "Benzene, 1-fluoro-4-(1-methylethyl)-", "Cumene, p-fluoro-", "1-Fluoro-4-(1-methylethyl)benzene", "p-Fluorocumene", "4-Fluorocumene", "p-Isopropylfluorobenzene", "1-Fluoro-4-isopropylbenzene", "4-Fluoro-1-isopropylbenzene", "NSC 79875", "1-Fluoro-4-propan-2-ylbenzene", "1-Fluoro-4-(propan-2-yl)benzene"], "SMILES": "C(C)(C)C1=CC=C(F)C=C1", "physical_data": {"Molecular Weight": "138.18", "Molecular Formula": "C9H11F", "Boiling Point": "54.5-55.5 \u00b0C @ Press: 20 Torr", "Density": "0.9783 g/cm\u00b3 @ Temp: 20 \u00b0C"}}