{"cas_no": "403-20-3", "cn_name": "3-\u6c1f-4-\u7532\u6c27\u57fa\u82ef\u7532\u9178", "en_name": ["3-Fluoro-4-methoxybenzoic acid", "Benzoic acid, 3-fluoro-4-methoxy-", "p-Anisic acid, 3-fluoro-", "3-Fluoro-4-methoxybenzoic acid", "4-Methoxy-3-fluorobenzoic acid"], "SMILES": "C(O)(=O)C1=CC(F)=C(OC)C=C1", "physical_data": {"Molecular Weight": "170.14", "Molecular Formula": "C8H7FO3", "Melting Point": "208-210 \u00b0C"}}