{"cas_no": "403-24-7", "cn_name": "2-\u6c1f-4-\u785d\u57fa\u82ef\u7532\u9178", "en_name": ["2-Fluoro-4-nitrobenzoic acid", "Benzoic acid, 2-fluoro-4-nitro-", "2-Fluoro-4-nitrobenzoic acid", "NSC 190361", "2-Fluoro-4-nitrobenzenecarboxylic acid"], "SMILES": "N(=O)(=O)C1=CC(F)=C(C(O)=O)C=C1", "physical_data": {"Molecular Weight": "185.11", "Molecular Formula": "C7H4FNO4", "Melting Point": "176-177 \u00b0C"}}