{"cas_no": "403-16-7", "cn_name": "3-\u6c2f-4-\u6c1f\u82ef\u7532\u9178", "en_name": ["3-Chloro-4-fluorobenzoic acid", "Benzoic acid, 3-chloro-4-fluoro-", "3-Chloro-4-fluorobenzoic acid", "5-Chloro-4-difluorobenzoic acid"], "SMILES": "C(O)(=O)C1=CC(Cl)=C(F)C=C1", "physical_data": {"Molecular Weight": "174.56", "Molecular Formula": "C7H4ClFO2", "Melting Point": "131-133 \u00b0C"}}