{"cas_no": "403-90-7", "cn_name": "\u95f4\u6c1f-DL-\u916a\u6c28\u9178", "en_name": ["3-Fluoro-DL-tyrosine", "Tyrosine, 3-fluoro-", "Tyrosine, 3-fluoro-, DL-", "DL-Tyrosine, 3-fluoro-", "3-Fluorotyrosine", "DL-m-Fluorotyrosine", "Ba 2745", "DL-3-Fluorotyrosine", "3-Fluoro-DL-tyrosine", "Pardinon", "m-Fluoro-DL-tyrosine", "DL-3-Fluorotyrosin", "Fluorthyrin", "NSC 83231", "2-Amino-3-(3-fluoro-4-hydroxyphenyl)propanoic acid"], "SMILES": "C(C(C(O)=O)N)C1=CC(F)=C(O)C=C1", "physical_data": {"Molecular Weight": "199.18", "Molecular Formula": "C9H10FNO3", "Melting Point": "276-277 \u00b0C (decomp)"}}