{"cas_no": "403-21-4", "cn_name": "3-\u6c1f-4-\u785d\u57fa\u82ef\u7532\u9178", "en_name": ["3-Fluoro-4-nitrobenzoic acid", "Benzoic acid, 3-fluoro-4-nitro-", "3-Fluoro-4-nitrobenzoic acid", "NSC 25749", "4-Nitro-3-fluorobenzoic acid", "3-Fluoro-4-nitrobenzenecarboxylic acid"], "SMILES": "C(O)(=O)C1=CC(F)=C(N(=O)=O)C=C1", "physical_data": {"Molecular Weight": "185.11", "Molecular Formula": "C7H4FNO4", "Melting Point": "174-175 \u00b0C"}}