{"cas_no": "4030-18-6", "cn_name": "1-\u4e59\u9170\u57fa\u5421\u54af\u70f7", "en_name": ["N-Acetylpyrrolidine", "Ethanone, 1-(1-pyrrolidinyl)-", "Pyrrolidine, 1-acetyl-", "1-(1-Pyrrolidinyl)ethanone", "N-Acetylpyrrolidine", "1-Acetylpyrrolidine", "1-(Pyrrolidin-1-yl)ethan-1-one", "Acetylpyrrolidine"], "SMILES": "C(C)(=O)N1CCCC1", "physical_data": {"Molecular Weight": "113.16", "Molecular Formula": "C6H11NO", "Boiling Point": "80 \u00b0C @ Press: 10 Torr"}}