{"cas_no": "40323-88-4", "cn_name": "2-\u4e59\u57fa-5-\u7532\u57fa\u567b\u5429", "en_name": ["2-Ethyl-5-methylthiophene", "Thiophene, 2-ethyl-5-methyl-", "2-Ethyl-5-methylthiophene", "2-Methyl-5-ethylthiophene"], "SMILES": "C(C)C=1SC(C)=CC1", "physical_data": {"Molecular Weight": "126.22", "Molecular Formula": "C7H10S", "Boiling Point": "53-55 \u00b0C @ Press: 22 Torr", "Density": "0.9577 g/cm\u00b3 @ Temp: 20 \u00b0C"}}