{"cas_no": "4032-86-4", "cn_name": "3,3-\u4e8c\u7532\u57fa\u5e9a\u70f7", "en_name": ["3,3-Dimethylheptane", "Heptane, 3,3-dimethyl-", "3,3-Dimethylheptane"], "SMILES": "C(CCCC)(CC)(C)C", "physical_data": {"Molecular Weight": "128.26", "Molecular Formula": "C9H20", "Boiling Point": "137.3 \u00b0C", "Density": "0.7304 g/cm\u00b3 @ Temp: 20 \u00b0C"}}