{"cas_no": "4033-46-9", "cn_name": "S-(2-\u7fa7\u4e59\u57fa)-L-\u534a\u80f1\u6c28\u9178", "en_name": ["S-(2-Carboxyethyl)cysteine", "L-Cysteine, S-(2-carboxyethyl)-", "Alanine, 3-[(2-carboxyethyl)thio]-, L-", "S-(2-Carboxyethyl)-L-cysteine", "S-Carboxyethylcysteine", "S-2-Carboxyethyl-L-cysteine", "S-(2-Carboxyethyl)cysteine", "3-(2-Carboxyethylthio)alanine", "2-Amino-4-thiaheptanedioic acid", "S-Carboxyethyl-L-cysteine", "(2R)-2-Amino-3-[(2-carboxyethyl)sulfanyl]-propanoic acid", "(2R)-2-Amino-3-(2-carboxyethylsulfanyl)propanoic acid"], "SMILES": "C(SCCC(O)=O)C(C(O)=O)N", "physical_data": {"Molecular Weight": "193.22", "Molecular Formula": "C6H11NO4S", "Melting Point": "218 \u00b0C"}}