{"cas_no": "4033-40-3", "cn_name": "N-\u4e59\u9170-L-\u5929\u95e8\u51ac\u9170\u80fa", "en_name": ["N-Acetylasparagine", "L-Asparagine, N2-acetyl-", "Asparagine, N2-acetyl-, L-", "N2-Acetyl-L-asparagine", "N-Acetyl-L-asparagine", "N-Acetylasparagine", "\u03b1-N-Acetyl-L-asparagine", "N2-Acetylasparagine", "NSC 186895", "(2S)-2-Acetamido-4-amino-4-oxobutanoic acid", "(2S)-3-Carbamoyl-2-acetamidopropanoic acid"], "SMILES": "C(CC(N)=O)(NC(C)=O)C(O)=O", "physical_data": {"Molecular Weight": "174.15", "Molecular Formula": "C6H10N2O4", "Melting Point": "165 \u00b0C"}}