{"cas_no": "40348-66-1", "cn_name": "(R)-1,2-\u4e01\u4e8c\u9187", "en_name": ["(2R)-1,2-Butanediol", "1,2-Butanediol, (2R)-", "1,2-Butanediol, (R)-", "(2R)-1,2-Butanediol", "(R)-(-)-1,2-Butanediol", "(-)-1,2-Butanediol", "(R)-1,2-Butanediol", "(2R)-Butane-1,2-diol", "(R)-(-)-1,2-Butanediol"], "SMILES": "C(CC)(CO)O", "physical_data": {"Molecular Weight": "90.12", "Molecular Formula": "C4H10O2", "Boiling Point": "70-72 \u00b0C @ Press: 10 Torr"}}