{"cas_no": "40353-34-2", "cn_name": "7-\u785d\u57fa-3,4-\u4e8c\u6c22-2H-1-\u8418\u916e", "en_name": ["7-Nitro-1-tetralone", "1(2H)-Naphthalenone, 3,4-dihydro-7-nitro-", "3,4-Dihydro-7-nitro-1(2H)-naphthalenone", "7-Nitro-\u03b1-tetralone", "7-Nitro-1-tetralone", "NSC 184729", "NSC 78452", "3,4-Dihydro-7-nitronaphthalen-1(2H)-one", "7-Nitro-3,4-dihydro-1(2H)-naphthalenone", "7-Nitro-3,4-dihydro-2H-naphthalen-1-one"], "SMILES": "O=C1C=2C(=CC=C(N(=O)=O)C2)CCC1", "physical_data": {"Molecular Weight": "191.18", "Molecular Formula": "C10H9NO3", "Melting Point": "105-106 \u00b0C"}}