{"cas_no": "4036-30-0", "cn_name": "(S)-(+)-\u82ef\u57fa\u4e01\u4e8c\u9178", "en_name": ["(+)-Phenylsuccinic acid", "Butanedioic acid, 2-phenyl-, (2S)-", "Succinic acid, phenyl-, D-(+)-", "Butanedioic acid, phenyl-, (S)-", "Butanedioic acid, phenyl-, (2S)-", "(2S)-2-Phenylbutanedioic acid", "(+)-Phenylsuccinic acid", "(S)-Phenylsuccinic acid", "(+)-2-Phenylsuccinic acid", "(S)-2-Phenylsuccinic acid", "(S)-(+)-Phenylsuccinic acid", "(2S)-2-Phenylbutanedioic acid"], "SMILES": "C(CC(O)=O)(C(O)=O)C1=CC=CC=C1", "physical_data": {"Molecular Weight": "194.18", "Molecular Formula": "C10H10O4", "Melting Point": "138-140 \u00b0C"}}