{"cas_no": "40372-72-3", "cn_name": "\u53cc-[3-(\u4e09\u4e59\u6c27\u57fa\u7845)\u4e19\u57fa]-\u56db\u786b\u5316\u7269", "en_name": ["Bis[3-(triethoxysilyl)propyl] tetrasulfide", "3,16-Dioxa-8,9,10,11-tetrathia-4,15-disilaoctadecane, 4,4,15,15-tetraethoxy-", "4,4,15,15-Tetraethoxy-3,16-dioxa-8,9,10,11-tetrathia-4,15-disilaoctadecane", "Si 69", "Bis[3-(triethoxysilyl)propyl] tetrasulfide", "Si 29", "B 2494", "3,3\u2032-Bis(triethoxysilylpropyl) tetrasulfide", "Bis(3-triethoxysilylpropyl)tetrasulfane", "Unisilan 41", "Silquest A 1289", "KH 846", "Bis[\u03b3-(triethoxysilyl)propyl] tetrasulfide", "MB 69", "A 1289", "Silane 69", "EF 60", "EF 60 (coupling agent)", "Degussa Si 69", "SCA 98", "SIB 1825.0", "TM 69", "Cabrus 4", "KBE 849", "KBE 846", "Z 6940", "TESPT", "WD 40", "WD 40 (coupling agent)", "KH 845-4", "KBE 845", "DB 619", "Xiameter Z 6940", "KH 845-4-2", "Bis[triethoxysilylpropyl] tetrasulfide", "KH 858", "KBM 846", "KBE 864", "Luvomaxx TESPT", "Couplink 89", "Bis(triethoxysilylpropyl)tetrasulfane", "SG-Si 998", "HP 1898B", "BTES", "Bis(3-(ethoxysilyl)propyl)tetrasulfide", "OFS 6940", "Xiameter OFS 6940", "Bis(3-triethoxisilylpropyl)tetrasulfide", "B 803049", "BTSPS", "KH 69", "KH-Si 69", "Silanogran SI 69", "OFS 6945", "Xiameter OFS 6945", "HP 669", "JH-S 69"], "SMILES": "[Si](CCCSSSSCCC[Si](OCC)(OCC)OCC)(OCC)(OCC)OCC", "physical_data": {"Molecular Weight": "538.95", "Molecular Formula": "C18H42O6S4Si2", "Boiling Point": "250 \u00b0C", "Density": "1.10 g/cm\u00b3"}}