{"cas_no": "4039-32-1", "cn_name": "\u53cc\u4e09\u7532\u57fa\u7845\u57fa\u80fa\u57fa\u9502", "en_name": ["Lithium bis(trimethylsilyl)amide", "Silanamine, 1,1,1-trimethyl-N-(trimethylsilyl)-, lithium salt (1:1)", "Silanamine, 1,1,1-trimethyl-N-(trimethylsilyl)-, lithium salt", "Lithium, [bis(trimethylsilyl)amino]-", "Disilazane, 1,1,1,3,3,3-hexamethyl-, lithium salt", "Disilazane, 1,1,1,3,3,3-hexamethyl-, Li deriv.", "Lithium hexamethyldisilazane", "Bis(trimethylsilyl)amidolithium", "Hexamethyldisilazane lithium salt", "Lithium bis(trimethylsilyl)amine", "Lithium hexamethyldisilazide", "1,1,1,3,3,3-Hexamethyldisilazane lithium salt", "Lithiobis(trimethylsilyl)amide", "Lithium hexamethyldisilazanide", "Lithiohexamethyldisilazane", "Lithium bis(trimethylsilyl)amide", "Lithium hexamethyldisilazanate", "[1,1,1-Trimethyl-N-(trimethylsilyl)silanaminato]lithium", "(Hexamethyldisilazane)lithium", "1,1,1-Trimethyl-N-(trimethylsilyl)silanamine lithium salt", "N-Lithiohexamethyldisilazane", "N,N-Bis(trimethylsilyl)amine lithium salt", "LiHMDS", "Lithium bis(trimethylsilyl)amide(1-)", "LHMDS"], "SMILES": "N([Si](C)(C)C)[Si](C)(C)C.[Li]", "physical_data": {"Molecular Weight": "", "Molecular Formula": "C6H19NSi2.Li", "Boiling Point": "110-115 \u00b0C @ Press: 1 Torr", "Melting Point": "70-71 \u00b0C", "Density": "0.891 g/cm\u00b3"}}