{"cas_no": "40391-99-9", "cn_name": "\u5e15\u7c73\u81a6\u9178", "en_name": ["Pamidronic acid", "Phosphonic acid, P,P\u2032-(3-amino-1-hydroxypropylidene)bis-", "Phosphonic acid, (3-amino-1-hydroxypropylidene)bis-", "P,P\u2032-(3-Amino-1-hydroxypropylidene)bis[phosphonic acid]", "3-Amino-1-hydroxypropane-1,1-diphosphonic acid", "Propane-1-hydroxy-3-amino-1,1-diphosphonic acid", "(3-Amino-1-hydroxypropylidene)-1,1-bisphosphonate", "Pamidronic acid", "Amidronic acid", "(\u03b1-Hydroxy-\u03b3-aminopropylidene)diphosphonic acid", "3-Amino-1-hydroxypropylidenediphosphonic acid", "AHPrBP", "ADP", "3-Amino-1-hydroxypropylidene-1,1-bisphosphonic acid", "(3-Amino-1-hydroxypropylidene)bisphosphonic acid", "Panolin", "BPH 5", "1-Hydroxy-3-aminopropane-1,1-diphosphonic acid", "(3-amino-1-hydroxypropane-1,1-diyl)bis(phosphonic acid)", "(3-Amino-1-hydroxy-1-phosphonopropyl)phosphonic acid"], "SMILES": "C(P(=O)(O)O)(P(=O)(O)O)(CCN)O", "physical_data": {"Molecular Weight": "235.07", "Molecular Formula": "C3H11NO7P2", "Melting Point": "&lt;300 \u00b0C"}}