{"cas_no": "40392-27-6", "cn_name": "4-\u785d\u57fa\u6b63\u82ef\u57fa\u90bb\u82ef\u4e8c\u7532\u9170\u4e9a\u80fa", "en_name": ["5-Nitro-2-phenyl-1H-isoindole-1,3(2H)-dione", "1H-Isoindole-1,3(2H)-dione, 5-nitro-2-phenyl-", "Phthalimide, 4-nitro-N-phenyl-", "5-Nitro-2-phenyl-1H-isoindole-1,3(2H)-dione", "N-Phenyl-4-nitrophthalimide", "4-Nitro-N-phenylphthalimide", "5-Nitro-2-phenylisoindole-1,3-dione"], "SMILES": "O=C1C=2C(C(=O)N1C3=CC=CC=C3)=CC=C(N(=O)=O)C2", "physical_data": {"Molecular Weight": "268.22", "Molecular Formula": "C14H8N2O4", "Melting Point": "189 \u00b0C"}}