{"cas_no": "404-86-4", "cn_name": "\u8fa3\u6912\u78b1", "en_name": ["Capsaicin", "6-Nonenamide, N-[(4-hydroxy-3-methoxyphenyl)methyl]-8-methyl-, (6E)-", "Capsaicin", "6-Nonenamide, 8-methyl-N-vanillyl-, (E)-", "6-Nonenamide, N-[(4-hydroxy-3-methoxyphenyl)methyl]-8-methyl-, (E)-", "(6E)-N-[(4-Hydroxy-3-methoxyphenyl)methyl]-8-methyl-6-nonenamide", "Capsaicine", "(E)-N-(4-Hydroxy-3-methoxybenzyl)-8-methylnon-6-enamide", "Ratden PE 40", "Zostrix", "Capsin P 50", "Mioton", "trans-8-Methyl-N-vanillyl-6-nonenamide", "Axsain", "NSC 56353", "Dolenon", "N-(4-Oxy-3-methoxybenzyl)-8-methyl-6-nonenamide", "Togarashi Orenji", "E-Capsaicin", "ALGRX 4975", "Capzasin-HP", "NGX 4010", "Adlea", "Ovocap", "Qutenza", "Ausanil", "trans-Capsaicin", "Chilli Orange", "(E)-8-Methyl-N-vanillyl-6-nonenamide", "Capsicin", "MeSH ID: D002211"], "SMILES": "C(NC(CCCCC=CC(C)C)=O)C1=CC(OC)=C(O)C=C1", "physical_data": {"Molecular Weight": "305.41", "Molecular Formula": "C18H27NO3", "Boiling Point": "210-220 \u00b0C @ Press: 0.01 Torr", "Melting Point": "65 \u00b0C"}}