{"cas_no": "404-72-8", "cn_name": "\u5f02\u786b\u6c30\u9178(3-\u6c1f\u82ef)\u916f", "en_name": ["3-Fluorophenyl isothiocyanate", "Benzene, 1-fluoro-3-isothiocyanato-", "Isothiocyanic acid, m-fluorophenyl ester", "1-Fluoro-3-isothiocyanatobenzene", "3-Fluorophenyl isothiocyanate", "m-Fluorophenyl isothiocyanate", "NSC 78432", "Benzenamine, 3-fluoro-, N-sulfide"], "SMILES": "N(=C=S)C1=CC(F)=CC=C1", "physical_data": {"Molecular Weight": "153.18", "Molecular Formula": "C7H4FNS", "Boiling Point": "227 \u00b0C"}}