{"cas_no": "404-24-0", "cn_name": "\u4e09\u6c1f\u4e59\u9170\u82ef\u80fa", "en_name": ["2,2,2-Trifluoro-N-phenylacetamide", "Acetamide, 2,2,2-trifluoro-N-phenyl-", "Acetanilide, 2,2,2-trifluoro-", "2,2,2-Trifluoro-N-phenylacetamide", "\u03b1,\u03b1,\u03b1-Trifluoroacetanilide", "2,2,2-Trifluoroacetanilide", "N-Phenyltrifluoroacetamide", "N-Phenyl-2,2,2-trifluoroacetamide", "NSC 9474"], "SMILES": "N(C(C(F)(F)F)=O)C1=CC=CC=C1", "physical_data": {"Molecular Weight": "189.13", "Molecular Formula": "C8H6F3NO", "Boiling Point": "220-225 \u00b0C", "Melting Point": "87.64 \u00b0C (sublm)"}}