{"cas_no": "404-71-7", "cn_name": "\u5f02\u6c30-3-\u6c1f\u57fa\u82ef\u916f", "en_name": ["3-Fluorophenyl isocyanate", "Benzene, 1-fluoro-3-isocyanato-", "Isocyanic acid, m-fluorophenyl ester", "1-Fluoro-3-isocyanatobenzene", "Isocyanic acid, 3-fluorophenyl ester", "m-Fluorophenyl isocyanate", "3-Fluorophenyl isocyanate", "1-Isocyanato-3-fluorobenzene"], "SMILES": "N(=C=O)C1=CC(F)=CC=C1", "physical_data": {"Molecular Weight": "137.11", "Molecular Formula": "C7H4FNO", "Boiling Point": "66-68.5 \u00b0C @ Press: 29 Torr"}}