{"cas_no": "4040-74-8", "cn_name": "1,1-\u4e8c\u7532\u57fa\u7845\u6742\u73af\u5df1\u70f7", "en_name": ["1,1-Dimethylsilacyclohexane", "Silacyclohexane, 1,1-dimethyl-", "1,1-Dimethylsilacyclohexane", "1,1-Dimethyl-1-silacyclohexane", "NSC 96808", "Cyclopentamethylenedimethylsilane", "1,1-Dimethylsilinane"], "SMILES": "C[Si]1(C)CCCCC1", "physical_data": {"Molecular Weight": "128.29", "Molecular Formula": "C7H16Si", "Boiling Point": "132-133 \u00b0C", "Density": "0.804 g/cm\u00b3"}}