{"cas_no": "4041-95-6", "cn_name": "N,N'-\u4e8c\u53d4\u4e01\u57fa\u786b\u8132", "en_name": ["N,N\u2032-Bis(1,1-dimethylethyl)thiourea", "Thiourea, N,N\u2032-bis(1,1-dimethylethyl)-", "Urea, 1,3-di-tert-butyl-2-thio-", "N,N\u2032-Bis(1,1-dimethylethyl)thiourea", "N,N\u2032-Di-tert-butylthiourea", "1,3-Di-tert-butylthiourea", "1,3-Di-tert-butyl-2-thiourea", "1,3-Di-t-butylthiourea", "NSC 47496", "1,3-Ditert-butylthiourea"], "SMILES": "N(C(C)(C)C)C(NC(C)(C)C)=S", "physical_data": {"Molecular Weight": "188.33", "Molecular Formula": "C9H20N2S", "Melting Point": "140-150 \u00b0C (decomp)"}}