{"cas_no": "40422-73-9", "cn_name": "4-(2-\u6eb4\u4e59\u57fa)\u82ef\u4e59\u916e", "en_name": ["1-[4-(2-Bromoethyl)phenyl]ethanone", "Ethanone, 1-[4-(2-bromoethyl)phenyl]-", "Acetophenone, 4\u2032-(2-bromoethyl)-", "1-[4-(2-Bromoethyl)phenyl]ethanone", "p-Acetylphenethyl bromide", "p-(2-Bromoethyl)acetophenone", "1-Acetyl-4-(2-bromoethyl)benzene", "4\u2032-(\u03b2-Bromoethyl)acetophenone", "4\u2032-(2-Bromoethyl)acetophenone", "4-Acetylphenethyl bromide", "1-[4-(2-Bromoethyl)phenyl]ethan-1-one", "2-[4-Acetylphenyl]ethyl bromide"], "SMILES": "C(C)(=O)C1=CC=C(CCBr)C=C1", "physical_data": {"Molecular Weight": "227.10", "Molecular Formula": "C10H11BrO", "Boiling Point": "111-112 \u00b0C @ Press: 0.3 Torr"}}