{"cas_no": "40420-22-2", "cn_name": "3-\u6c27\u5e9a\u4e8c\u9178\u4e8c\u4e59\u916f", "en_name": ["Heptanedioic acid, 3-oxo-, 1,7-diethyl ester", "Heptanedioic acid, 3-oxo-, 1,7-diethyl ester", "Heptanedioic acid, 3-oxo-, diethyl ester", "Diethyl 3-oxoheptanedioate", "Diethyl 3-oxopimelate", "3-Oxoheptanedioic acid diethyl ester", "1,7-Diethyl 3-oxoheptanedioate"], "SMILES": "C(CCCC(OCC)=O)(CC(OCC)=O)=O", "physical_data": {"Molecular Weight": "230.26", "Molecular Formula": "C11H18O5", "Boiling Point": "120-121 \u00b0C @ Press: 0.15 Torr"}}