{"cas_no": "4042-36-8", "cn_name": "D-\u7126\u8c37\u6c28\u9178", "en_name": ["(+)-Pyroglutamic acid", "D-Proline, 5-oxo-", "Proline, 5-oxo-, D-", "5-Oxo-D-proline", "D-Pyrrolidonecarboxylic acid", "D-2-Pyrrolidone-5-carboxylic acid", "D-Pyroglutamic acid", "D-Pyrrolidinonecarboxylic acid", "(R)-2-Pyrrolidone-5-carboxylic acid", "(+)-Pyroglutamic acid", "(+)-2-Pyrrolidone-5-carboxylic acid", "(R)-(+)-2-Pyrrolidone-5-carboxylic acid", "(2R)-2-Carboxy-5-pyrrolidinone", "(R)-5-Oxopyrrolidine-2-carboxylic acid", "(R)-Pyroglutamic acid", "(R)-5-Oxoproline", "(R)-(+)-5-Oxopyrrolidine-2-carboxylic acid", "(+)-D-Pyroglutamic acid", "D-Pidolic acid", "(R)-(+)-2-Pyrrolidone-5-carboxylic acid", "(2R)-5-Oxopyrrolidine-2-carboxylic acid"], "SMILES": "C(O)(=O)C1NC(=O)CC1", "physical_data": {"Molecular Weight": "129.11", "Molecular Formula": "C5H7NO3", "Melting Point": "170-178 \u00b0C"}}