{"cas_no": "40432-52-8", "cn_name": "3-\u6c28\u57fa-1-\u4e8c\u82ef\u7532\u57fa\u6c2e\u6742\u73af\u4e01\u70f7", "en_name": ["1-(Diphenylmethyl)-3-azetidinamine", "3-Azetidinamine, 1-(diphenylmethyl)-", "1-(Diphenylmethyl)-3-azetidinamine", "1-(Diphenylmethyl)-3-aminoazetidine", "1-Benzhydrylazetidin-3-ylamine", "3-Amino-1-(diphenylmethyl)azetidine", "3-Amino-1-benzhydrylazetidine", "1-Benzhydrylazetidin-3-amine", "1-Benzhydryl-3-aminoazetidine"], "SMILES": "C(N1CC(N)C1)(C2=CC=CC=C2)C3=CC=CC=C3", "physical_data": {"Molecular Weight": "238.33", "Molecular Formula": "C16H18N2", "Melting Point": "84-87 \u00b0C"}}