{"cas_no": "40430-66-8", "cn_name": "1-\u4e59\u7094\u57fa\u91d1\u521a\u70f7", "en_name": ["1-Ethynyladamantane", "Tricyclo[3.3.1.13,7]decane, 1-ethynyl-", "Adamantane, 1-ethynyl-", "1-Ethynyltricyclo[3.3.1.13,7]decane", "1-Adamantylacetylene", "1-Ethynyladamantane", "1-Ethynyladamantan"], "SMILES": "C(#C)C12CC3CC(C1)CC(C2)C3", "physical_data": {"Molecular Weight": "160.26", "Molecular Formula": "C12H16", "Melting Point": "82 \u00b0C"}}