{"cas_no": "4043-59-8", "cn_name": "1,3-\u4e8c\u4e59\u6c27\u57fa-2-\u4e19\u9187", "en_name": ["1,3-Diethoxy-2-propanol", "2-Propanol, 1,3-diethoxy-", "1,3-Diethoxy-2-propanol", "Glycerol \u03b1,\u03b3-diethyl ether", "Diethylin", "Glycerol 1,3-bis(ethyl ether)", "Glycerol 1,3-diethyl ether", "1,3-Glycerin diethyl ether", "1,3-Diethyl glycerin ether", "NSC 403841"], "SMILES": "C(COCC)(COCC)O", "physical_data": {"Molecular Weight": "148.20", "Molecular Formula": "C7H16O3", "Boiling Point": "61.5-62 \u00b0C @ Press: 2 Torr", "Density": "0.9514 g/cm\u00b3 @ Temp: 20 \u00b0C"}}