{"cas_no": "40432-84-6", "cn_name": "5-\u6eb4\u5432\u54da-3-\u4e59\u9178", "en_name": ["(5-Bromo-1H-indol-3-yl)acetic acid", "1H-Indole-3-acetic acid, 5-bromo-", "5-Bromo-1H-indole-3-acetic acid", "5-Bromo-IAA", "5-Bromo-3-indoleacetic acid", "2-(5-Bromo-1H-indol-3-yl)acetic acid", "NSC 88145", "(5-Bromo-1H-indol-3-yl)acetic acid", "(5-Bromoindol-3-yl)acetic acid"], "SMILES": "C(C(O)=O)C=1C=2C(NC1)=CC=C(Br)C2", "physical_data": {"Molecular Weight": "254.08", "Molecular Formula": "C10H8BrNO2", "Melting Point": "144-146 \u00b0C"}}