{"cas_no": "4044-99-9", "cn_name": "6-\u6eb4-2-\u7532\u57fa\u54aa\u5511\u5e76[1,2-A]\u5421\u5576", "en_name": ["6-Bromo-2-methylimidazo[1,2-a]pyridine", "Imidazo[1,2-a]pyridine, 6-bromo-2-methyl-", "6-Bromo-2-methylimidazo[1,2-a]pyridine"], "SMILES": "CC=1N=C2N(C1)C=C(Br)C=C2", "physical_data": {"Molecular Weight": "211.06", "Molecular Formula": "C8H7BrN2", "Melting Point": "101.0-101.5 \u00b0C"}}