{"cas_no": "4044-65-9", "cn_name": "\u5bf9\u82ef\u4e8c\u5f02\u786b\u6c30\u9178\u916f", "en_name": ["p-Phenylene diisothiocyanate", "Benzene, 1,4-diisothiocyanato-", "Isothiocyanic acid, p-phenylene ester", "1,4-Diisothiocyanatobenzene", "Bitoscanate", "WM 842", "Jonit", "Phenylene-1,4-diisothiocyanate", "p-Phenylene diisothiocyanate", "p-Phenylene bisisothiocyanate", "Bitoscanat", "PDITC", "1,4-phenylenediisothiocyanate"], "SMILES": "N(=C=S)C1=CC=C(N=C=S)C=C1", "physical_data": {"Molecular Weight": "192.26", "Molecular Formula": "C8H4N2S2", "Melting Point": "132 \u00b0C"}}