{"cas_no": "4044-60-4", "cn_name": "2,5-\u4e8c\u7532\u57fa\u82ef\u7532\u916e", "en_name": ["2,5-Dimethylbenzophenone", "Methanone, (2,5-dimethylphenyl)phenyl-", "Benzophenone, 2,5-dimethyl-", "(2,5-Dimethylphenyl)phenylmethanone", "2,5-Dimethylbenzophenone", "2,5-Dimethylphenyl phenyl ketone", "NSC 82305", "2-Benzoyl-1,4-dimethylbenzene"], "SMILES": "C(=O)(C1=C(C)C=CC(C)=C1)C2=CC=CC=C2", "physical_data": {"Molecular Weight": "210.27", "Molecular Formula": "C15H14O", "Boiling Point": "255-258 \u00b0C @ Press: 10 Torr", "Melting Point": "138.5 \u00b0C"}}