{"cas_no": "4045-29-8", "cn_name": "3-\u7532\u6c27\u57fa\u54cc\u5576", "en_name": ["3-Methoxypiperidine", "Piperidine, 3-methoxy-", "3-Methoxypiperidine"], "SMILES": "O(C)C1CCCNC1", "physical_data": {"Molecular Weight": "115.17", "Molecular Formula": "C6H13NO", "Boiling Point": "159-160 \u00b0C @ Press: 748 Torr"}}