{"cas_no": "4045-44-7", "cn_name": "\u4e94\u7532\u57fa\u73af\u620a\u4e8c\u70ef", "en_name": ["Pentamethylcyclopentadiene", "1,3-Cyclopentadiene, 1,2,3,4,5-pentamethyl-", "Cyclopentadiene, 1,2,3,4,5-pentamethyl-", "1,2,3,4,5-Pentamethyl-1,3-cyclopentadiene", "1,2,3,4,5-Pentamethylcyclopentadiene", "Pentamethylcyclopentadiene", "NSC 222823"], "SMILES": "CC1C(C)=C(C)C(C)=C1C", "physical_data": {"Molecular Weight": "136.23", "Molecular Formula": "C10H16", "Boiling Point": "58.3 \u00b0C @ Press: 13.5 Torr", "Density": "0.8395 g/cm\u00b3 @ Temp: 20 \u00b0C"}}