{"cas_no": "4045-30-1", "cn_name": "4,4-\u4e8c\u7532\u57fa\u54cc\u5576", "en_name": ["4,4-Dimethylpiperidine", "Piperidine, 4,4-dimethyl-", "4,4-Dimethylpiperidine", "NSC 107116"], "SMILES": "CC1(C)CCNCC1", "physical_data": {"Molecular Weight": "113.20", "Molecular Formula": "C7H15N", "Boiling Point": "145-146 \u00b0C"}}