{"cas_no": "4045-24-3", "cn_name": "4-\u7532\u6c27\u57fa\u54cc\u5576", "en_name": ["4-Methoxypiperidine", "Piperidine, 4-methoxy-", "4-Methoxypiperidine"], "SMILES": "O(C)C1CCNCC1", "physical_data": {"Molecular Weight": "115.17", "Molecular Formula": "C6H13NO", "Boiling Point": "61-65 \u00b0C @ Press: 11 Torr"}}