{"cas_no": "4046-02-0", "cn_name": "\u963f\u9b4f\u9178\u4e59\u916f", "en_name": ["Ethyl ferulate", "2-Propenoic acid, 3-(4-hydroxy-3-methoxyphenyl)-, ethyl ester", "Cinnamic acid, 4-hydroxy-3-methoxy-, ethyl ester", "Ferulic acid ethyl ester", "Ethyl ferulate", "Ethyl 4-hydroxy-3-methoxycinnamate", "BBR 3222", "NSC 14879", "Ethyl 3-(4-hydroxy-3-methoxyphenyl)acrylate"], "SMILES": "C(=CC(OCC)=O)C1=CC(OC)=C(O)C=C1", "physical_data": {"Molecular Weight": "222.24", "Molecular Formula": "C12H14O4", "Boiling Point": "164-166 \u00b0C @ Press: 0.5 Torr", "Melting Point": "75.5-76.5 \u00b0C"}}