{"cas_no": "40465-45-0", "cn_name": "4-\u6c30\u57fa\u82ef\u5f02\u6c30\u9178\u916f", "en_name": ["4-Cyanophenyl isocyanate", "Benzonitrile, 4-isocyanato-", "4-Isocyanatobenzonitrile", "4-Cyanophenyl isocyanate", "p-Cyanophenyl isocyanate", "4-Cyano-isocyanatobenzene"], "SMILES": "N(=C=O)C1=CC=C(C#N)C=C1", "physical_data": {"Molecular Weight": "144.13", "Molecular Formula": "C8H4N2O", "Boiling Point": "129-132 \u00b0C @ Press: 12 Torr", "Melting Point": "102-102.5 \u00b0C"}}