{"cas_no": "40473-07-2", "cn_name": "2-\u6eb4-6-\u7532\u6c27\u57fa\u5421\u5576", "en_name": ["2-Bromo-6-methoxypyridine", "Pyridine, 2-bromo-6-methoxy-", "2-Bromo-6-methoxypyridine", "2-Methoxy-6-bromopyridine", "6-Bromo-2-methoxypyridine", "NSC 84173", "2-Bromo-6-(methyloxy)pyridine"], "SMILES": "O(C)C=1N=C(Br)C=CC1", "physical_data": {"Molecular Weight": "188.02", "Molecular Formula": "C6H6BrNO", "Boiling Point": "87-91 \u00b0C @ Press: 15 Torr"}}