{"cas_no": "40487-42-1", "cn_name": "\u4e8c\u7532\u620a\u7075", "en_name": ["Pendimethalin", "Benzenamine, N-(1-ethylpropyl)-3,4-dimethyl-2,6-dinitro-", "N-(1-Ethylpropyl)-3,4-dimethyl-2,6-dinitrobenzenamine", "Prowl", "AC 92553", "Stomp", "Penoxalin", "N-(1-Ethylpropyl)-2,6-dinitro-3,4-xylidine", "Penoxaline", "Pendimethalin", "3,4-Dimethyl-2,6-dinitro-N-(1-ethylpropyl)aniline", "Phenoxalin", "Stomp 330E", "Stomp 330D", "Stomp 330", "N-(1-Ethylpropyl)-3,4-dimethyl-2,6-dinitroaniline", "Accotab", "Pendimethaline", "SWGC", "Southern Weed Grass Control", "Herbadox", "Pendulum", "3,4-Dimethyl-2,6-dinitro-N-(1\u2032-ethylpropyl)aniline", "Prowl 3.3", "Acumen", "Pendimax", "Most Micro", "Ornamental Weedgrass Control", "OWC", "Panida", "Panida 330EC", "Prowl 400", "Stomp 330EC", "Activus EC", "Gogosan", "3,4-Dimethyl-2,6-dinitro-N-(3-pentanyl)aniline", "3,4-Dimethyl-2,6-dinitro-N-(pentan-3-yl)aniline", "Prowl H2O", "Stomp Aqua", "Pendulum 2G"], "SMILES": "N(C(CC)CC)C1=C(N(=O)=O)C(C)=C(C)C=C1N(=O)=O", "physical_data": {"Molecular Weight": "281.31", "Molecular Formula": "C13H19N3O4", "Boiling Point": "330 \u00b0C", "Melting Point": "56-57 \u00b0C", "Density": "1.19 g/cm\u00b3 @ Temp: 25 \u00b0C"}}