{"cas_no": "4048-33-3", "cn_name": "6-\u6c28\u57fa-1-\u5df1\u9187", "en_name": ["6-Amino-1-hexanol", "1-Hexanol, 6-amino-", "6-Amino-1-hexanol", "6-Aminohexyl alcohol", "1-Amino-6-hexanol", "6-Hydroxyhexylamine", "6-Hexanolamine", "6-Hydroxy-1-hexanamine", "6-Aminohexanol", "6-Hydroxy-1-hexylamine", "1-Amino-6-hydroxyhexane", "NSC 91538"], "SMILES": "C(CCCO)CCN", "physical_data": {"Molecular Weight": "117.19", "Molecular Formula": "C6H15NO", "Boiling Point": "140-150 \u00b0C @ Press: 17 Torr", "Melting Point": "52-54 \u00b0C"}}