{"cas_no": "4049-39-2", "cn_name": "3-\u7f9f\u57fa-4-\u82c4\u6c27\u57fa\u82ef\u7532\u919b", "en_name": ["4-Benzyloxy-3-hydroxybenzaldehyde", "Benzaldehyde, 3-hydroxy-4-(phenylmethoxy)-", "Benzaldehyde, 4-(benzyloxy)-3-hydroxy-", "3-Hydroxy-4-(phenylmethoxy)benzaldehyde", "Protocatechuic aldehyde-4-benzyl ether", "3-Hydroxy-4-benzyloxybenzaldehyde", "4-Benzyloxy-3-hydroxybenzaldehyde"], "SMILES": "O(CC1=CC=CC=C1)C2=C(O)C=C(C=O)C=C2", "physical_data": {"Molecular Weight": "228.24", "Molecular Formula": "C14H12O3", "Melting Point": "120 \u00b0C"}}