{"cas_no": "4049-34-7", "cn_name": "\u56db-O-\u4e59\u9170\u57fa-\u0392-D-\u5421\u5583\u6838\u7cd6", "en_name": ["\u03b2-D-Ribopyranose, 1,2,3,4-tetraacetate", "\u03b2-D-Ribopyranose, 1,2,3,4-tetraacetate", "Ribopyranose, tetraacetate, \u03b2-D-", "\u03b2-D-Ribopyranose, tetraacetate", "Ribopyranose, tetraacetate", "Tetra-O-acetyl-\u03b2-D-ribopyranose", "1,2,3,4-Tetra-O-acetyl-\u03b2-D-ribopyranose", "NSC 116266"], "SMILES": "O(C(C)=O)C1C(OC(C)=O)C(OC(C)=O)OCC1OC(C)=O", "physical_data": {"Molecular Weight": "318.28", "Molecular Formula": "C13H18O9", "Melting Point": "110 \u00b0C"}}