{"cas_no": "40499-83-0", "cn_name": "3-\u7f9f\u57fa\u5421\u54af\u70f7", "en_name": ["3-Pyrrolidinol", "3-Pyrrolidinol", "3-Pyrrolidinol, (\u00b1)-", "3-Hydroxypyrrolidine", "(\u00b1)-3-Pyrrolidinol", "(RS)-3-Pyrrolidinol", "(\u00b1)-3-Hydroxypyrrolidine", "NSC 89294", "Pyrrolidin-3-ol", "Pyrrolidine-3-ol"], "SMILES": "OC1CCNC1", "physical_data": {"Molecular Weight": "87.12", "Molecular Formula": "C4H9NO", "Boiling Point": "102-103 \u00b0C @ Press: 12 Torr"}}