{"cas_no": "4049-81-4", "cn_name": "2-\u7532\u57fa-1,5-\u73af\u5df1\u4e8c\u70ef", "en_name": ["2-Methyl-1,5-hexadiene", "1,5-Hexadiene, 2-methyl-", "2-Methyl-1,5-hexadiene", "2-Methyldiallyl", "5-Methyldiallyl", "NSC 66540"], "SMILES": "C(C(C)=C)CC=C", "physical_data": {"Molecular Weight": "96.17", "Molecular Formula": "C7H12", "Boiling Point": "88.1 \u00b0C", "Melting Point": "-128.8 \u00b0C", "Density": "0.723 g/cm\u00b3 @ Temp: 24 \u00b0C"}}