{"cas_no": "40497-30-1", "cn_name": "4,6-\u4e8c\u7f9f\u57fa-2-\u7532\u57fa\u5627\u5576", "en_name": ["2-Methyl-4,6-pyrimidinedione", "4,6(1H,5H)-Pyrimidinedione, 2-methyl-", "2-Methyl-4,6(1H,5H)-pyrimidinedione", "2-Methyl-4,6-pyrimidinedione", "2-Methylpyrimidin-4,6(3H,5H)-dione", "2-Methyl-1H-pyrimidine-4,6-dione"], "SMILES": "O=C1CC(=O)N=C(C)N1", "physical_data": {"Molecular Weight": "126.11", "Molecular Formula": "C5H6N2O2", "Melting Point": "46-48 \u00b0C"}}