{"cas_no": "404951-53-7", "cn_name": "\u8fbe\u8bfa\u53f8\u4ed6", "en_name": ["Dacinostat", "2-Propenamide, N-hydroxy-3-[4-[[(2-hydroxyethyl)[2-(1H-indol-3-yl)ethyl]amino]methyl]phenyl]-, (2E)-", "(2E)-N-Hydroxy-3-[4-[[(2-hydroxyethyl)[2-(1H-indol-3-yl)ethyl]amino]methyl]phenyl]-2-propenamide", "Dacinostat", "NVP-LAQ 824"], "SMILES": "C(CN(CC1=CC=C(C=CC(NO)=O)C=C1)CCO)C=2C=3C(NC2)=CC=CC3", "physical_data": {"Molecular Weight": "379.45", "Molecular Formula": "C22H25N3O3", "Melting Point": "100-103 \u00b0C"}}