{"cas_no": "40497-11-8", "cn_name": "2,3-\u4e8c\u6c30\u57fa\u4e19\u9178\u4e59\u916f", "en_name": ["Propanoic acid, 2,3-dicyano-, ethyl ester", "Propanoic acid, 2,3-dicyano-, ethyl ester", "Propionic acid, 2,3-dicyano-, ethyl ester", "Ethyl 2,3-dicyanopropionate", "Ethyl 2,3-dicyanopropanoate", "2,3-Dicyanopropionic acid ethyl ester", "2,3-Dicyanopropanoic acid ethyl ester"], "SMILES": "C(C(OCC)=O)(CC#N)C#N", "physical_data": {"Molecular Weight": "152.15", "Molecular Formula": "C7H8N2O2", "Boiling Point": "120-135 \u00b0C"}}