{"cas_no": "405-50-5", "cn_name": "4-\u6c1f\u82ef\u4e59\u9178", "en_name": ["(4-Fluorophenyl)acetic acid", "Benzeneacetic acid, 4-fluoro-", "Acetic acid, (p-fluorophenyl)-", "4-Fluorobenzeneacetic acid", "Ba 2821", "(4-Fluorophenyl)acetic acid", "(p-Fluorophenyl)acetic acid", "2-(4-Fluorophenyl)acetic acid", "NSC 402", "p-Fluorobenzeneacetic acid"], "SMILES": "C(C(O)=O)C1=CC=C(F)C=C1", "physical_data": {"Molecular Weight": "154.14", "Molecular Formula": "C8H7FO2", "Boiling Point": "164 \u00b0C", "Melting Point": "86 \u00b0C"}}