{"cas_no": "405-66-3", "cn_name": "N-\u7532\u57fa-4-\u6c1f\u82c4\u80fa", "en_name": ["4-Fluoro-N-methylbenzenemethanamine", "Benzenemethanamine, 4-fluoro-N-methyl-", "Benzylamine, p-fluoro-N-methyl-", "4-Fluoro-N-methylbenzenemethanamine", "4-Fluoro-N-methylbenzylamine", "N-(4-Fluorobenzyl)-N-methylamine", "(4-Fluorobenzyl)methylamine", "N-Methyl-4-fluorobenzylamine", "N-(4-Fluorobenzyl)methylamine", "N-[(4-Fluorophenyl)methyl]-N-methylamine", "(4-Fluorophenyl)-N-methylmethanamine", "1-(4-Fluorophenyl)-N-methylmethanamine", "[(4-Fluorophenyl)methyl](methyl)amine", "1-(4-Fuorophenyl)-N-methylmethanamine"], "SMILES": "C(NC)C1=CC=C(F)C=C1", "physical_data": {"Molecular Weight": "139.17", "Molecular Formula": "C8H10FN", "Boiling Point": "80-82 \u00b0C @ Press: 14 Torr"}}