{"cas_no": "405-79-8", "cn_name": "4-\u6c1f\u82ef\u6c27\u4e59\u9178", "en_name": ["4-Fluorophenoxyacetic acid", "Acetic acid, 2-(4-fluorophenoxy)-", "Acetic acid, (p-fluorophenoxy)-", "Acetic acid, (4-fluorophenoxy)-", "2-(4-Fluorophenoxy)acetic acid", "4-Fluorophenoxyacetic acid", "p-Fluorophenoxyacetic acid", "NSC 49589", "2-(4-Fluorophenoxy)ethanoic acid"], "SMILES": "O(CC(O)=O)C1=CC=C(F)C=C1", "physical_data": {"Molecular Weight": "170.14", "Molecular Formula": "C8H7FO3", "Melting Point": "104.25 \u00b0C"}}