{"cas_no": "405-05-0", "cn_name": "3-\u6c1f-4-\u7f9f\u57fa\u82ef\u7532\u919b", "en_name": ["3-Fluoro-4-hydroxybenzaldehyde", "Benzaldehyde, 3-fluoro-4-hydroxy-", "3-Fluoro-4-hydroxybenzaldehyde", "2-Fluoro-4-formylphenol"], "SMILES": "C(=O)C1=CC(F)=C(O)C=C1", "physical_data": {"Molecular Weight": "140.11", "Molecular Formula": "C7H5FO2", "Melting Point": "121.1-122.9 \u00b0C"}}