{"cas_no": "405-04-9", "cn_name": "3-\u6c1f-4-\u7f9f\u57fa\u82ef\u8148", "en_name": ["4-Cyano-2-fluorophenol", "Benzonitrile, 3-fluoro-4-hydroxy-", "3-Fluoro-4-hydroxybenzonitrile", "4-Hydroxy-3-fluorobenzonitrile", "4-Cyano-2-fluorophenol", "2-Fluoro-4-cyanophenol"], "SMILES": "C(#N)C1=CC(F)=C(O)C=C1", "physical_data": {"Molecular Weight": "137.11", "Molecular Formula": "C7H4FNO", "Melting Point": "134 \u00b0C"}}