{"cas_no": "405-51-6", "cn_name": "4-\u6c1f\u82ef\u57fa\u918b\u9178\u916f", "en_name": ["4-Fluorophenyl acetate", "Phenol, 4-fluoro-, 1-acetate", "Phenol, p-fluoro-, acetate", "Phenol, 4-fluoro-, acetate", "p-Fluorophenyl acetate", "4-Fluorophenyl acetate", "1-Acetoxy-4-fluorobenzene"], "SMILES": "O(C(C)=O)C1=CC=C(F)C=C1", "physical_data": {"Molecular Weight": "154.14", "Molecular Formula": "C8H7FO2", "Boiling Point": "61 \u00b0C @ Press: 2 Torr"}}