{"cas_no": "405-39-0", "cn_name": "N2,N6-\u53ccCBZ-\u79bb\u6c28\u9178", "en_name": ["N2,N6-Bis[(phenylmethoxy)carbonyl]-L-lysine", "L-Lysine, N2,N6-bis[(phenylmethoxy)carbonyl]-", "Lysine, N2,N6-dicarboxy-, N2,N6-dibenzyl ester, L-", "N2,N6-Bis[(phenylmethoxy)carbonyl]-L-lysine", "N,N\u2032-Dicarbobenzoxy-L-lysine", "N2,N6-Dicarbobenzoxy-L-lysine", "\u03b1,\u03b5-Dicarbobenzoxy-L-lysine", "N\u03b1,N\u03b5-Bis(carbobenzyloxy)-L-lysine", "N,N\u2032-Bis(benzyloxycarbonyl)lysine", "N2,N6-Bis(benzyloxycarbonyl)-L-lysine", "N\u03b1,N\u03b5-Bis(benzyloxycarbonyl)lysine", "N,N\u2032-Bis(benzyloxycarbonyl)-L-lysine", "NSC 88474", "124: PN: WO2004099237 PAGE: 36 claimed protein", "N\u03b1,N\u03c9-Bis(benzyloxycarbonyl)-L-lysine", "N,N\u2032-Di-Z-L-lysine", "Z-Lyz(Z)-OH"], "SMILES": "C(OC(NC(CCCCNC(OCC1=CC=CC=C1)=O)C(O)=O)=O)C2=CC=CC=C2", "physical_data": {"Molecular Weight": "414.45", "Molecular Formula": "C22H26N2O6", "Melting Point": "55-69 \u00b0C"}}