{"cas_no": "405-99-2", "cn_name": "4-\u6c1f\u82ef\u4e59\u70ef", "en_name": ["4-Fluorostyrene", "Benzene, 1-ethenyl-4-fluoro-", "Styrene, p-fluoro-", "1-Ethenyl-4-fluorobenzene", "4-Fluorostyrene", "p-Fluorostyrene", "p-Vinylfluorobenzene", "1-Fluoro-4-vinylbenzene", "1-Vinyl-4-fluorobenzene", "4-Fluoro-1-ethenylbenzene"], "SMILES": "C(=C)C1=CC=C(F)C=C1", "physical_data": {"Molecular Weight": "122.14", "Molecular Formula": "C8H7F", "Boiling Point": "29-30 \u00b0C @ Press: 4 Torr", "Melting Point": "-34.5 \u00b0C", "Density": "1.024 g/cm\u00b3 @ Temp: 20 \u00b0C"}}