{"cas_no": "405-31-2", "cn_name": "\u53cc(4-\u6c1f\u82ef\u57fa)\u4e8c\u786b\u919a", "en_name": ["Disulfide, bis(4-fluorophenyl)", "Disulfide, bis(4-fluorophenyl)", "Disulfide, bis(p-fluorophenyl)", "Bis(p-fluorophenyl) disulfide", "Bis(4-fluorophenyl) disulfide", "Di-4-fluorophenyl disulfide", "1,2-Bis(4-fluorophenyl)disulfane", "1-Fluoro-4-[(4-fluorophenyl)disulfanyl]benzene"], "SMILES": "S(SC1=CC=C(F)C=C1)C2=CC=C(F)C=C2", "physical_data": {"Molecular Weight": "254.32", "Molecular Formula": "C12H8F2S2", "Boiling Point": "149-151 \u00b0C @ Press: 3.5 Torr", "Melting Point": "49-51 \u00b0C"}}