{"cas_no": "40507-59-3", "cn_name": "4-\u785d\u57fa-1H-\u54aa\u5511-5-\u7fa7\u9178", "en_name": ["5-Nitro-4-imidazolecarboxylic acid", "1H-Imidazole-4-carboxylic acid, 5-nitro-", "Imidazole-4-carboxylic acid, 5-nitro-", "4-Imidazolecarboxylic acid, 5-nitro-", "5-Nitro-1H-imidazole-4-carboxylic acid", "4-Nitroimidazole-5-carboxylic acid", "5-Nitro-4-imidazolecarboxylic acid"], "SMILES": "C(O)(=O)C1=C(N(=O)=O)N=CN1", "physical_data": {"Molecular Weight": "157.08", "Molecular Formula": "C4H3N3O4", "Melting Point": "304-305 \u00b0C"}}