{"cas_no": "40507-78-6", "cn_name": "\u831a\u5511\u5549", "en_name": ["Indanazoline", "1H-Imidazol-2-amine, N-(2,3-dihydro-1H-inden-4-yl)-4,5-dihydro-", "N-(2,3-Dihydro-1H-inden-4-yl)-4,5-dihydro-1H-imidazol-2-amine", "2-(4-Indanamino)-2-imidazoline", "Indanazoline", "(4,5-Dihydro-1H-imidazol-2-yl)-4-indanylamine"], "SMILES": "N(C1=C2C(=CC=C1)CCC2)C=3NCCN3", "physical_data": {"Molecular Weight": "201.27", "Molecular Formula": "C12H15N3", "Melting Point": "109-113 \u00b0C"}}