{"cas_no": "40501-41-5", "cn_name": "4'-\u7f9f\u57fa-4-\u8054\u82ef\u57fa\u7fa7\u9178\u7532\u916f", "en_name": ["[1,1\u2032-Biphenyl]-4-carboxylic acid, 4\u2032-hydroxy-, methyl ester", "[1,1\u2032-Biphenyl]-4-carboxylic acid, 4\u2032-hydroxy-, methyl ester", "Methyl 4\u2032-hydroxy-4-biphenylcarboxylate", "Methyl 4-hydroxybiphenyl-4\u2032-carboxylate", "4\u2032-Hydroxy-4-biphenylcarboxylic acid methyl ester", "Methyl 4-(4-hydroxyphenyl)benzoate", "Methyl 4-(4\u2032-hydroxyphenyl)benzoate", "4\u2032-Hydroxy[1,1\u2032-biphenyl]-4-carboxylic acid methyl ester", "Methyl 4\u2032-hydroxy-1,1\u2032-biphenyl-4-carboxylate"], "SMILES": "C(OC)(=O)C1=CC=C(C=C1)C2=CC=C(O)C=C2", "physical_data": {"Molecular Weight": "228.24", "Molecular Formula": "C14H12O3", "Melting Point": "224-226 \u00b0C"}}