{"cas_no": "4050-45-7", "cn_name": "\u53cd-2-\u5df2\u70ef", "en_name": ["trans-2-Hexene", "2-Hexene, (2E)-", "2-Hexene, (E)-", "2-Hexene, trans-", "(2E)-2-Hexene", "trans-2-Hexene", "(E)-2-Hexene", "NSC 74123"], "SMILES": "C(C=CC)CC", "physical_data": {"Molecular Weight": "84.16", "Molecular Formula": "C6H12", "Boiling Point": "67.9 \u00b0C", "Melting Point": "-133 \u00b0C", "Density": "0.67853 g/cm\u00b3 @ Temp: 20 \u00b0C"}}