{"cas_no": "4051-63-2", "cn_name": "\u989c\u6599\u7ea2 177", "en_name": ["Pigment Red 177", "[1,1\u2032-Bianthracene]-9,9\u2032,10,10\u2032-tetrone, 4,4\u2032-diamino-", "1,1\u2032-Bianthraquinone, 4,4\u2032-diamino-", "4,4\u2032-Diamino[1,1\u2032-bianthracene]-9,9\u2032,10,10\u2032-tetrone", "Pigment Red 177", "C.I. Pigment Red 177", "1,1\u2032-Diamino-4,4\u2032-dianthraquinonyl", "4,4\u2032-Diamino-1,1\u2032-dianthraquinone", "4,4\u2032-Diamino-1,1\u2032-dianthraquinonyl", "Cromophtal Red A 3B", "Versal Red A 3B", "Cromophtal Red A 2B", "Red A 3B", "Dianthraquinonyl red", "4,4\u2032-Diamino-1,1\u2032-bianthraquinone", "Fastogen Super Red ATY 01", "Fastogen Super Red ATY", "C.I. 65300", "Irgazin Red A 2BN", "Irgazin Red A 2BX", "Oracet Red BG", "4,4\u2032-Diamino-1,1\u2032-dianthrquinonyl", "4,4\u2032-Diamino[1,1\u2032-bianthracene]-9,9\u2032,10,10\u2032-tetraone", "MG Red K-VC", "Fastogen Super Red ATY-TR", "Red ATY-TR", "CF Red EX 109", "CAB-LX 471 Red", "PR 177", "Chromofine Red 6601", "Chromofine Red 6605", "C.I. PR 177", "Chromofine Red 6125EC", "Chromofine Red 6128EC", "Chromofine Red 6130EC", "Fast Red A 3B", "Cinilex Red SR 4C", "Paliogen Red L 4039", "4,4\u2032-Bis(1-aminoanthraquinone)", "Chromofine Red 6605T", "Chromonfine Red 6605T", "Paliogen Red L 4045", "Cinilex Red SR 3C", "Chromofine Red 6121EC", "DTXSID2052079"], "SMILES": "O=C1C2=C(C=CC(N)=C2C(=O)C=3C1=CC=CC3)C4=C5C(C(=O)C=6C(C5=O)=CC=CC6)=C(N)C=C4", "physical_data": {"Molecular Weight": "444.44", "Molecular Formula": "C28H16N2O4", "Melting Point": "356-358 \u00b0C"}}