{"cas_no": "4052-92-0", "cn_name": "3-\u6c2f\u78fa\u9170\u82ef\u7532\u9170\u6c2f", "en_name": ["3-(Chlorosulfonyl)benzoyl chloride", "Benzoyl chloride, 3-(chlorosulfonyl)-", "Benzoyl chloride, m-(chlorosulfonyl)-", "3-(Chlorosulfonyl)benzoyl chloride", "3-Chlorocarbonylphenylsulfonyl chloride", "m-(Chlorosulfonyl)benzoyl chloride", "3-Chlorosulfonylbenzoyl chloride", "3-(Chlorosulfonyl)benzoic acid chloride"], "SMILES": "S(Cl)(=O)(=O)C1=CC(C(Cl)=O)=CC=C1", "physical_data": {"Molecular Weight": "239.08", "Molecular Formula": "C7H4Cl2O3S", "Boiling Point": "170-175 \u00b0C @ Press: 15 Torr"}}