{"cas_no": "4052-30-6", "cn_name": "4-\u7532\u781c\u57fa\u82ef\u7532\u9178", "en_name": ["4-(Methylsulfonyl)benzoic acid", "Benzoic acid, 4-(methylsulfonyl)-", "Benzoic acid, p-(methylsulfonyl)-", "4-(Methylsulfonyl)benzoic acid", "4-(Methanesulfonyl)benzoic acid", "p-(Methylsulfonyl)benzoic acid", "4-Carboxyphenyl methyl sulfone", "NSC 11336"], "SMILES": "S(C)(=O)(=O)C1=CC=C(C(O)=O)C=C1", "physical_data": {"Molecular Weight": "200.21", "Molecular Formula": "C8H8O4S", "Boiling Point": "210-220 \u00b0C @ Press: 0.1 Torr", "Melting Point": "268-271 \u00b0C"}}