{"cas_no": "405230-90-2", "cn_name": "2-CHLORO-5-FLUORO-3-NITRO-4-PYRIDINAMINE", "en_name": ["2-Chloro-5-fluoro-3-nitro-4-pyridinamine", "4-Pyridinamine, 2-chloro-5-fluoro-3-nitro-", "2-Chloro-5-fluoro-3-nitro-4-pyridinamine"], "SMILES": "N(=O)(=O)C=1C(N)=C(F)C=NC1Cl", "physical_data": {"Molecular Weight": "191.55", "Molecular Formula": "C5H3ClFN3O2", "Melting Point": "154-155 \u00b0C"}}