{"cas_no": "4053-08-1", "cn_name": "4-\u6c2f-1,8-\u8418\u4e8c\u7532\u9178\u9150", "en_name": ["4-Chloro-1,8-naphthalic anhydride", "1H,3H-Naphtho[1,8-cd]pyran-1,3-dione, 6-chloro-", "Naphthalic anhydride, 4-chloro-", "6-Chloro-1H,3H-naphtho[1,8-cd]pyran-1,3-dione", "4-Chloro-1,8-naphthalenedicarboxylic anhydride", "4-Chloronaphthalic anhydride", "4-Chloro-1,8-naphthalic anhydride", "4-Chloro-1,8-naphthalimide anhydride"], "SMILES": "O=C1C=2C=3C(C(=O)O1)=CC=CC3C(Cl)=CC2", "physical_data": {"Molecular Weight": "232.62", "Molecular Formula": "C12H5ClO3", "Melting Point": "216-217 \u00b0C"}}