{"cas_no": "4053-45-6", "cn_name": "5-(\u6c2f\u7532\u57fa)-8-\u55b9\u5549\u9187\u76d0\u9178\u76d0", "en_name": ["5-(Chloromethyl)-8-hydroxyquinoline hydrochloride", "8-Quinolinol, 5-(chloromethyl)-, hydrochloride (1:1)", "8-Quinolinol, 5-(chloromethyl)-, hydrochloride", "5-(Chloromethyl)-8-hydroxyquinoline hydrochloride", "5-(Chloromethyl)-8-quinolinol hydrochloride"], "SMILES": "C(Cl)C=1C2=C(C(O)=CC1)N=CC=C2.Cl", "physical_data": {"Molecular Weight": "", "Molecular Formula": "C10H8ClNO.ClH", "Melting Point": "280 \u00b0C (decomp)"}}