{"cas_no": "40530-18-5", "cn_name": "5-\u6eb4-2-\u7f9f\u57fa\u82ef\u7532\u8148", "en_name": ["5-Bromo-2-hydroxybenzonitrile", "Benzonitrile, 5-bromo-2-hydroxy-", "5-Bromo-2-hydroxybenzonitrile", "5-Bromosalicylonitrile", "2-Hydroxy-5-bromobenzonitrile", "4-Bromo-2-cyanophenol"], "SMILES": "C(#N)C1=C(O)C=CC(Br)=C1", "physical_data": {"Molecular Weight": "198.02", "Molecular Formula": "C7H4BrNO", "Melting Point": "155-156 \u00b0C"}}