{"cas_no": "4053-34-3", "cn_name": "2-\u7f9f\u57fa-6-\u7532\u57fa\u55b9\u5549", "en_name": ["6-Methylquinolin-2(1H)-one", "2(1H)-Quinolinone, 6-methyl-", "Carbostyril, 6-methyl-", "6-Methyl-2(1H)-quinolinone", "6-Methyl-2-hydroxyquinoline", "6-Methylcarbostyril", "6-Methyl-1H-quinolin-2-one", "6-Methylquinolin-2(1H)-one"], "SMILES": "CC=1C=C2C(NC(=O)C=C2)=CC1", "physical_data": {"Molecular Weight": "159.18", "Molecular Formula": "C10H9NO", "Melting Point": "233 \u00b0C"}}