{"cas_no": "4054-38-0", "cn_name": "1,3-\u73af\u5e9a\u4e8c\u70ef", "en_name": ["1,3-Cycloheptadiene", "1,3-Cycloheptadiene"], "SMILES": "C1CC=CC=CC1", "physical_data": {"Molecular Weight": "94.15", "Molecular Formula": "C7H10", "Boiling Point": "120.5 \u00b0C", "Melting Point": "-110.4 \u00b0C", "Density": "0.8650 g/cm\u00b3 @ Temp: 20 \u00b0C"}}