{"cas_no": "40546-94-9", "cn_name": "6-\u7532\u57fa-4-\u82ef\u57fa\u8272\u6ee1-2-\u916e", "en_name": ["3,4-Dihydro-6-methyl-4-phenyl-2H-1-benzopyran-2-one", "2H-1-Benzopyran-2-one, 3,4-dihydro-6-methyl-4-phenyl-", "Hydrocoumarin, 6-methyl-4-phenyl-", "3,4-Dihydro-6-methyl-4-phenyl-2H-1-benzopyran-2-one", "6-Methyl-4-phenyl-3,4-dihydrocoumarin", "3,4-Dihydro-6-methyl-4-phenyl-2H-benzopyran-2-one", "6-Methyl-4-phenylchroman-2-one", "6-Methyl-4-phenyl-3,4-dihydro-1-benzopyran-2-one"], "SMILES": "CC=1C=C2C(CC(=O)OC2=CC1)C3=CC=CC=C3", "physical_data": {"Molecular Weight": "238.28", "Molecular Formula": "C16H14O2", "Boiling Point": "166-170 \u00b0C @ Press: 2.5 Torr", "Melting Point": "80-81 \u00b0C"}}