{"cas_no": "4055-39-4", "cn_name": "\u4e1d\u88c2\u9709\u7d20A", "en_name": ["Mitomycin A", "Azirino[2\u2032,3\u2032:3,4]pyrrolo[1,2-a]indole-4,7-dione, 8-[[(aminocarbonyl)oxy]methyl]-1,1a,2,8,8a,8b-hexahydro-6,8a-dimethoxy-5-methyl-, (1aS,8S,8aR,8bS)-", "Mitomycin A", "Azirino[2\u2032,3\u2032:3,4]pyrrolo[1,2-a]indole-4,7-dione, 1,1a,2,8,8a,8b-hexahydro-8-(hydroxymethyl)-6,8a-dimethoxy-5-methyl-, carbamate (ester)", "Azirino[2\u2032,3\u2032:3,4]pyrrolo[1,2-a]indole-4,7-dione, 8-[[(aminocarbonyl)oxy]methyl]-1,1a,2,8,8a,8b-hexahydro-6,8a-dimethoxy-5-methyl-, [1aS-(1a\u03b1,8\u03b2,8a\u03b1,8b\u03b1)]-", "(1aS,8S,8aR,8bS)-8-[[(Aminocarbonyl)oxy]methyl]-1,1a,2,8,8a,8b-hexahydro-6,8a-dimethoxy-5-methylazirino[2\u2032,3\u2032:3,4]pyrrolo[1,2-a]indole-4,7-dione", "NSC 75986"], "SMILES": "O(C)C12N(C3=C(C1COC(N)=O)C(=O)C(OC)=C(C)C3=O)CC4C2N4", "physical_data": {"Molecular Weight": "349.34", "Molecular Formula": "C16H19N3O6", "Melting Point": "161 \u00b0C"}}