{"cas_no": "4056-78-4", "cn_name": "1,3-\u73af\u620a\u4e8c\u7fa7\u9178", "en_name": ["1,3-Cyclopentanedicarboxylic acid", "1,3-Cyclopentanedicarboxylic acid", "Norcamphoric acid"], "SMILES": "C(O)(=O)C1CC(C(O)=O)CC1", "physical_data": {"Molecular Weight": "158.15", "Molecular Formula": "C7H10O4", "Melting Point": "121.5 \u00b0C"}}