{"cas_no": "40580-83-4", "cn_name": "\u76d0\u9178\u54c8\u5c14\u915a", "en_name": ["9H-Pyrido[3,4-b]indol-7-ol, 1-methyl-, hydrochloride (1:1)", "9H-Pyrido[3,4-b]indol-7-ol, 1-methyl-, hydrochloride (1:1)", "9H-Pyrido[3,4-b]indol-7-ol, 1-methyl-, monohydrochloride", "Harmol hydrochloride", "NSC 640470"], "SMILES": "CC1=C2C(C=3C(N2)=CC(O)=CC3)=CC=N1.Cl", "physical_data": {"Molecular Weight": "", "Molecular Formula": "C12H10N2O.ClH", "Melting Point": "265-267 \u00b0C"}}