{"cas_no": "40594-98-7", "cn_name": "1H-1,2,3-\u4e09\u6c2e\u5511-5-\u7532\u9178\u4e59\u916f", "en_name": ["Ethyl 1H-1,2,3-triazole-5-carboxylate", "1H-1,2,3-Triazole-5-carboxylic acid, ethyl ester", "1H-1,2,3-Triazole-4-carboxylic acid, ethyl ester", "v-Triazole-4-carboxylic acid, ethyl ester", "Ethyl 1H-1,2,3-triazole-5-carboxylate", "Ethyl 1,2,3-triazole-5-carboxylate", "Ethyl 1,2,3-triazole-4-carboxylate", "Ethyl 1H-1,2,3-triazole-4-carboxylate", "4-Ethoxycarbonyl-1H-1,2,3-triazole", "1,2,3-Triazole-4-carboxylic acid ethyl ester"], "SMILES": "C(OCC)(=O)C1=CN=NN1", "physical_data": {"Molecular Weight": "141.13", "Molecular Formula": "C5H7N3O2", "Melting Point": "102-104 \u00b0C"}}