{"cas_no": "40591-65-9", "cn_name": "2-(2,3,4,6-\u56db-O-\u4e59\u9170\u57fa-\u0392-D-\u5421\u5583\u8461\u8404\u7cd6\u57fa)-2-\u786b\u4ee3\u5047\u8132\u6c22\u6eb4\u9178\u76d0", "en_name": ["\u03b2-D-Glucopyranose, 1-thio-, 2,3,4,6-tetraacetate 1-carbamimidate, hydrobromide (1:1)", "\u03b2-D-Glucopyranose, 1-thio-, 2,3,4,6-tetraacetate 1-carbamimidate, hydrobromide (1:1)", "\u03b2-D-Glucopyranose, 1-thio-, 2,3,4,6-tetraacetate 1-carbamimidate, monohydrobromide", "Pseudourea 2-\u03b2-D-glucopyranosyl-2-thio-, tetraacetate, hydrobromide", "S-(2,3,4,6-Tetra-O-acetyl-\u03b2-D-glucopyranosyl)isothiourea hydrobromide", "NSC 409734", "2,3,4,6-Tetra-O-acetyl-1-carbamimidoyl-1-thio-\u03b2-D-glucopyranose monohydrobromide", "2,3,4,6-Tetra-O-acetyl-\u03b2-D-glucopyranosyl 1-isothiouronium) bromide"], "SMILES": "O(C(C)=O)C1C(OC(C)=O)C(COC(C)=O)OC(SC(=N)N)C1OC(C)=O.Br", "physical_data": {"Molecular Weight": "", "Molecular Formula": "C15H22N2O9S.BrH", "Melting Point": "192 \u00b0C"}}