{"cas_no": "40598-94-5", "cn_name": "3-\u6eb4\u5432\u5511", "en_name": ["3-Bromo-1H-indazole", "1H-Indazole, 3-bromo-", "3-Bromo-1H-indazole", "3-Bromoindazole"], "SMILES": "BrC=1C=2C(=CC=CC2)NN1", "physical_data": {"Molecular Weight": "197.03", "Molecular Formula": "C7H5BrN2", "Melting Point": "141-142 \u00b0C"}}