{"cas_no": "40596-69-8", "cn_name": "\u70ef\u866b\u916f", "en_name": ["Methoprene", "2,4-Dodecadienoic acid, 11-methoxy-3,7,11-trimethyl-, 1-methylethyl ester, (2E,4E)-", "2,4-Dodecadienoic acid, 11-methoxy-3,7,11-trimethyl-, 1-methylethyl ester, (E,E)-", "Methoprene", "Altosid", "Isopropyl (2E,4E)-11-methoxy-3,7,11-trimethyl-2,4-dodecadienoate", "ZR 515", "ENT 70460", "Altosid SR 10", "Manta", "Kabat", "ZPA 1019", "Dianex", "Apex 600E", "Manina", "Starbar Inhibitor", "Juvemon", "Juvenmon", "Altosid XR", "Methoprene S", "Manta (hormone)", "Altosid Liquid Larvicide", "dl-Isopropyl 11-methoxy-3,7,11-trimethyl-trans-trans-2,4-dodecadienoate", "Apex", "Apex 5E", "Apex (pesticide)", "Bioprene BM Fire Ant Killer Bait", "(2E,4E)-3,7,11-Trimethyl-11-methoxydodeca-2,4-dienoic acid ethyl ester", "Metoprag 20CE", "SB-515", "MeSH ID: D008726"], "SMILES": "C(=C(C=CCC(CCCC(OC)(C)C)C)C)C(OC(C)C)=O", "physical_data": {"Molecular Weight": "310.47", "Molecular Formula": "C19H34O3", "Boiling Point": "100 \u00b0C @ Press: 0.05 Torr", "Melting Point": "&lt;25 \u00b0C", "Density": "0.9261 g/cm\u00b3 @ Temp: 20 \u00b0C"}}