{"cas_no": "406-93-9", "cn_name": "4,4,4-\u4e09\u6c1f\u4e01\u9178", "en_name": ["4,4,4-Trifluorobutanoic acid", "Butanoic acid, 4,4,4-trifluoro-", "Butyric acid, 4,4,4-trifluoro-", "4,4,4-Trifluorobutanoic acid", "4,4,4-Trifluorobutyric acid"], "SMILES": "C(C(F)(F)F)CC(O)=O", "physical_data": {"Molecular Weight": "142.08", "Molecular Formula": "C4H5F3O2", "Boiling Point": "70 \u00b0C @ Press: 12 Torr", "Melting Point": "33.2 \u00b0C"}}