{"cas_no": "406-39-3", "cn_name": "1,1,1-\u4e09\u6c1f-2-\u4e01\u70ef", "en_name": ["1,1,1-Trifluoro-2-butene", "2-Butene, 1,1,1-trifluoro-", "1,1,1-Trifluoro-2-butene"], "SMILES": "C(C(F)(F)F)=CC", "physical_data": {"Molecular Weight": "110.08", "Molecular Formula": "C4H5F3", "Boiling Point": "20 \u00b0C"}}