{"cas_no": "406-78-0", "cn_name": "1,1,2,2-\u56db\u6c1f\u4e59\u57fa-2,2,2-\u4e09\u6c1f\u4e59\u57fa\u919a", "en_name": ["1,1,2,2-Tetrafluoro-1-(2,2,2-trifluoroethoxy)ethane", "Ethane, 1,1,2,2-tetrafluoro-1-(2,2,2-trifluoroethoxy)-", "Ether, 1,1,2,2-tetrafluoroethyl 2,2,2-trifluoroethyl", "1,1,2,2-Tetrafluoro-1-(2,2,2-trifluoroethoxy)ethane", "2,2,2-Trifluoroethyl 1,1,2,2-tetrafluoroethyl ether", "347mcfE\u03b2\u03b3", "1-(2,2,2-Trifluoroethoxy)-1,1,2,2-tetrafluoroethane", "HFE 347pc-f", "HFE-S 7", "1,1,2,2-Tetrafluoroethyl 2,2,2-trifluoroethyl ether", "S 7", "S 7 (ether)", "HFE 347", "AE 3000", "Asahiklin AE 3000", "(2,2,2-Trifluoroethoxy)-1,1,2,2-tetrafluoroethane", "HFE 347pcf2", "Asahiklin AE 3100", "Asahiklin AE 3100E", "HFE 3400", "HFE"], "SMILES": "O(C(C(F)F)(F)F)CC(F)(F)F", "physical_data": {"Molecular Weight": "200.05", "Molecular Formula": "C4H3F7O", "Boiling Point": "56.2 \u00b0C", "Density": "1.4874 g/cm\u00b3 @ Temp: 20 \u00b0C"}}