{"cas_no": "406-58-6", "cn_name": "1,1,1,3,3-\u4e94\u6c1f\u4e01\u70f7", "en_name": ["1,1,1,3,3-Pentafluorobutane", "Butane, 1,1,1,3,3-pentafluoro-", "1,1,1,3,3-Pentafluorobutane", "2,2,4,4,4-Pentafluorobutane", "R 365", "HFC 365", "HFC 365mfc", "Solkane 365mfc", "R 365mfc", "Solkane 365", "HFO 365mfc", "Forane 365mfc", "365mfc", "H 33737", "Solkane HFC 365mfc", "HFC 365mfe", "HCFC 365mfc", "365fa"], "SMILES": "C(C(C)(F)F)C(F)(F)F", "physical_data": {"Molecular Weight": "148.07", "Molecular Formula": "C4H5F5", "Boiling Point": "40 \u00b0C", "Density": "1.2666 g/cm\u00b3 @ Temp: 20 \u00b0C"}}