{"cas_no": "406-90-6", "cn_name": "\u4e09\u6c1f\u4e59\u70ef\u919a", "en_name": ["Fluroxene", "Ethene, (2,2,2-trifluoroethoxy)-", "Ether, 2,2,2-trifluoroethyl vinyl", "(2,2,2-Trifluoroethoxy)ethene", "Fluoromar", "Fluoroxene", "Fluroxene", "2,2,2-Trifluoroethyl vinyl ether", "Trifluoroethyl vinyl ether", "2-Ethenoxy-1,1,1-trifluoroethane"], "SMILES": "C(C(F)(F)F)OC=C", "physical_data": {"Molecular Weight": "126.08", "Molecular Formula": "C4H5F3O", "Boiling Point": "42.5 \u00b0C", "Density": "1.135 g/cm\u00b3 @ Temp: 20 \u00b0C"}}