{"cas_no": "40604-49-7", "cn_name": "2-\u6c2f-6-\u8418\u915a", "en_name": ["6-Chloro-2-naphthalenol", "2-Naphthalenol, 6-chloro-", "2-Naphthol, 6-chloro-", "6-Chloro-2-naphthalenol", "2-Chloro-6-naphthol", "6-Chloro-2-naphthol", "NSC 76587", "6-Chloronaphthalen-2-ol"], "SMILES": "ClC1=CC2=C(C=C(O)C=C2)C=C1", "physical_data": {"Molecular Weight": "178.62", "Molecular Formula": "C10H7ClO", "Melting Point": "116.5 \u00b0C"}}