{"cas_no": "40611-85-6", "cn_name": "4-\u7532\u57fa-2-\u5421\u54af\u7fa7\u9178\u4e59\u916f", "en_name": ["Ethyl 4-methyl-1H-pyrrole-2-carboxylate", "1H-Pyrrole-2-carboxylic acid, 4-methyl-, ethyl ester", "Pyrrole-2-carboxylic acid, 4-methyl-, ethyl ester", "Ethyl 4-methyl-1H-pyrrole-2-carboxylate", "4-Methyl-2-pyrrolecarboxylic acid ethyl ester", "Ethyl 4-methyl-2-pyrrolecarboxylate", "4-Methyl-1H-pyrrole-2-carboxylic acid ethyl ester"], "SMILES": "C(OCC)(=O)C=1NC=C(C)C1", "physical_data": {"Molecular Weight": "153.18", "Molecular Formula": "C8H11NO2", "Melting Point": "37-38 \u00b0C"}}