{"cas_no": "40615-39-2", "cn_name": "\u4fdd\u62a4\u80f8\u82f7", "en_name": ["5\u2032-O-(4,4\u2032-Dimethoxytrityl)thymidine", "Thymidine, 5\u2032-O-[bis(4-methoxyphenyl)phenylmethyl]-", "Thymidine, 5\u2032-O-[\u03b1,\u03b1-bis(p-methoxyphenyl)benzyl]-", "5\u2032-O-[Bis(4-methoxyphenyl)phenylmethyl]thymidine", "5\u2032-O-(Di-p-methoxytrityl)thymidine", "5\u2032-O-(4,4\u2032-Dimethoxytrityl)thymidine", "5\u2032-O-(4,4\u2032-Dimethoxytrityl)-2\u2032-deoxythymidine", "5\u2032-O-(p,p\u2032-Dimethoxytrityl)thymidine"], "SMILES": "C(OCC1OC(CC1O)N2C(=O)NC(=O)C(C)=C2)(C3=CC=C(OC)C=C3)(C4=CC=C(OC)C=C4)C5=CC=CC=C5", "physical_data": {"Molecular Weight": "544.59", "Molecular Formula": "C31H32N2O7", "Melting Point": "122-124 \u00b0C"}}