{"cas_no": "40626-29-7", "cn_name": "\u53f3\u65cb\u76d0\u9178\u53bb\u7532\u9ebb\u9ec4\u78b1", "en_name": ["Benzenemethanol, \u03b1-[(1R)-1-aminoethyl]-, hydrochloride (1:1), (\u03b1S)-", "Benzenemethanol, \u03b1-[(1R)-1-aminoethyl]-, hydrochloride (1:1), (\u03b1S)-", "Benzenemethanol, \u03b1-(1-aminoethyl)-, hydrochloride, [S-(R*,S*)]-", "Benzenemethanol, \u03b1-[(1R)-1-aminoethyl]-, hydrochloride, (\u03b1S)-", "d-Phenylpropanolamine hydrochloride", "(R)-(+)-\u03b1-Norephedrine hydrochloride", "(1S,2R)-(+)-Norephedrine hydrochloride", "(+)-Phenylpropanolamine hydrochloride", "(1S,2R)-Norephedrine hydrochloride", "(+)-Norephedrine hydrochloride", "[S-(R*,S*)]-\u03b1-(1-Aminoethyl)benzyl alcohol hydrochloride"], "SMILES": "C(C(C)N)(O)C1=CC=CC=C1.Cl", "physical_data": {"Molecular Weight": "", "Molecular Formula": "C9H13NO.ClH", "Melting Point": "188-190 \u00b0C"}}