{"cas_no": "4062-60-6", "cn_name": "N,N-\u53cc(\u53d4\u4e01\u57fa)\u4e59\u70ef\u4e8c\u80fa", "en_name": ["N,N\u2032-Di-tert-butylethylenediamine", "1,2-Ethanediamine, N1,N2-bis(1,1-dimethylethyl)-", "Ethylenediamine, N,N\u2032-di-tert-butyl-", "1,2-Ethanediamine, N,N\u2032-bis(1,1-dimethylethyl)-", "N1,N2-Bis(1,1-dimethylethyl)-1,2-ethanediamine", "N,N\u2032-Di-tert-butylethylenediamine", "N,N\u2032-Bis(tert-butyl)ethylenediamine", "1,2-Bis(tert-butylamino)ethane", "N,N\u2032-Di-tert-butyl-1,2-ethylenediamine", "N,N\u2032-Di-tert-butyl-1,4-diazabutane", "N,N\u2032-Di-tert-butyl-1,2-ethanediamine", "Amine SDA 172", "1,2-Ethanediamine N1,N2-bis(1,1-dimethylethyl)-", "N,N-tert-Butylethylenediamine"], "SMILES": "N(C(C)(C)C)CCNC(C)(C)C", "physical_data": {"Molecular Weight": "172.31", "Molecular Formula": "C10H24N2", "Boiling Point": "196-198 \u00b0C", "Melting Point": "53 \u00b0C"}}