{"cas_no": "40635-66-3", "cn_name": "2-\u4e59\u9170\u6c27\u57fa\u5f02\u4e01\u9170\u6c2f", "en_name": ["2-(Acetyloxy)-2-methylpropanoyl chloride", "Propanoyl chloride, 2-(acetyloxy)-2-methyl-", "Lactoyl chloride, 2-methyl-, acetate", "2-(Acetyloxy)-2-methylpropanoyl chloride", "2-Acetoxyisobutyryl chloride", "2-Acetoxy-2-methylpropionyl chloride", "\u03b1-Acetoxyisobutyryl chloride", "1-Chlorocarbonyl-1-methylethyl acetate", "Acetic acid 1-chlorocarbonyl-1-methylethyl ester", "2-Chloro-1,1-dimethyl-2-oxoethyl acetate", "2-Acetoxyisobutyroyl chloride", "Acetic acid 2-chloro-1,1-dimethyl-2-oxoethyl ester", "1-Chloro-2-methyl-1-oxopropan-2-yl acetate", "2-Acetoxy-2-methylpropanoyl chloride"], "SMILES": "C(OC(C)=O)(C(Cl)=O)(C)C", "physical_data": {"Molecular Weight": "164.59", "Molecular Formula": "C6H9ClO3", "Boiling Point": "60-65 \u00b0C @ Press: 9 Torr", "Density": "1.1498 g/cm\u00b3 @ Temp: 20 \u00b0C"}}