{"cas_no": "406482-19-7", "cn_name": "2-\u6c1f-5-\u7532\u6c27\u57fa\u82ef\u787c\u9178", "en_name": ["2-Fluoro-5-methoxyphenylboronic acid", "Boronic acid, B-(2-fluoro-5-methoxyphenyl)-", "Boronic acid, (2-fluoro-5-methoxyphenyl)-", "B-(2-Fluoro-5-methoxyphenyl)boronic acid", "2-Fluoro-5-methoxyphenylboronic acid"], "SMILES": "B(O)(O)C1=CC(OC)=CC=C1F", "physical_data": {"Molecular Weight": "169.95", "Molecular Formula": "C7H8BFO3", "Melting Point": "195-196 \u00b0C"}}