{"cas_no": "40641-93-8", "cn_name": "4'-(2,2-\u4e8c\u6c2f\u73af\u4e19\u57fa)\u82ef\u4e59\u916e", "en_name": ["1-[4-(2,2-Dichlorocyclopropyl)phenyl]ethanone", "Ethanone, 1-[4-(2,2-dichlorocyclopropyl)phenyl]-", "1-[4-(2,2-Dichlorocyclopropyl)phenyl]ethanone", "1-(4-Acetylphenyl)-2,2-dichlorocyclopropane", "1-[4-(2,2-Dichlorocyclopropyl)phenyl]ethan-1-one"], "SMILES": "ClC1(Cl)C(C1)C2=CC=C(C(C)=O)C=C2", "physical_data": {"Molecular Weight": "229.10", "Molecular Formula": "C11H10Cl2O", "Boiling Point": "150-153 \u00b0C @ Press: 2 Torr", "Melting Point": "35 \u00b0C"}}