{"cas_no": "406482-73-3", "cn_name": "4-\u6c30\u57fa-4-\u8054\u82ef\u787c\u9178", "en_name": ["B-(4\u2032-Cyano[1,1\u2032-biphenyl]-4-yl)boronic acid", "Boronic acid, B-(4\u2032-cyano[1,1\u2032-biphenyl]-4-yl)-", "Boronic acid, (4\u2032-cyano[1,1\u2032-biphenyl]-4-yl)-", "B-(4\u2032-Cyano[1,1\u2032-biphenyl]-4-yl)boronic acid", "4\u2032-Cyanobiphenyl-4-ylboronic acid", "4-Cyano-[1,1\u2032-biphenyl]-4\u2032-boronic acid", "4\u2032-Cyano-1,1\u2032-biphenyl-4-boronic acid", "(4\u2032-Cyano-[1,1\u2032-biphenyl]-4-yl)boronic acid", "(4\u2032-Cyano-[1,1\u2032-biphenyl]-4-yl)boronicacid", "[4-(4-Cyanophenyl)phenyl]boronic acid"], "SMILES": "B(O)(O)C1=CC=C(C=C1)C2=CC=C(C#N)C=C2", "physical_data": {"Molecular Weight": "223.04", "Molecular Formula": "C13H10BNO2", "Melting Point": "190.5-191.5 \u00b0C"}}