{"cas_no": "40649-36-3", "cn_name": "4-\u4e19\u57fa\u73af\u5df1\u57fa\u916e", "en_name": ["4-Propylcyclohexanone", "Cyclohexanone, 4-propyl-", "4-Propylcyclohexanone", "4-n-Propylcyclohexanone", "4-Propyl-1-cyclohexanone"], "SMILES": "C(CC)C1CCC(=O)CC1", "physical_data": {"Molecular Weight": "140.22", "Molecular Formula": "C9H16O", "Boiling Point": "212 \u00b0C @ Press: 740 Torr", "Density": "0.9049 g/cm\u00b3 @ Temp: 25 \u00b0C"}}