{"cas_no": "4064-06-6", "cn_name": "\u53cc\u4e19\u916e\u534a\u4e73\u7cd6", "en_name": ["1,2:3,4-Di-O-isopropylidene-\u03b1-D-galactopyranose", "\u03b1-D-Galactopyranose, 1,2:3,4-bis-O-(1-methylethylidene)-", "Galactopyranose, 1,2:3,4-di-O-isopropylidene-, \u03b1-D-", "Galactopyranose, 1,2:3,4-di-O-isopropylidene-", "5H-Bis[1,3]dioxolo[4,5-b:4\u2032,5\u2032-d]pyran, \u03b1-D-galactopyranose deriv.", "1,2:3,4-Bis-O-(1-methylethylidene)-\u03b1-D-galactopyranose", "Diisopropylidenegalactose", "1,2:3,4-Di-O-isopropylidene-\u03b1-D-galactopyranose", "1,2:3,4-Di-O-isopropylidene-D-galactopyranose", "1,2:3,4-Di-O-isopropylidene-D-galactose", "1,2:3,4-Di-O-isopropylidene-\u03b1-D-galactose", "1,2:3,4-Diisopropylidene-\u03b1-D-galactopyranose", "NSC 89756", "1,2:3,4-Di-O-isopropylidene-\u03b1-D-galactopyranoside", "1,2:3,4-Di-O-isopropylidene-\u03b1-D-galactopyranosole", "1,2,3,4-Diisopropyl-galactopyranose"], "SMILES": "C(O)C1C2C(C3C(O1)OC(C)(C)O3)OC(C)(C)O2", "physical_data": {"Molecular Weight": "260.28", "Molecular Formula": "C12H20O6", "Boiling Point": "110-120 \u00b0C @ Press: 0.1-0.2 Torr", "Melting Point": "91-100 \u00b0C"}}