{"cas_no": "40642-40-8", "cn_name": "(Z)-8-\u5341\u4e8c\u70ef-1-\u9187", "en_name": ["cis-8-Dodecen-1-ol", "8-Dodecen-1-ol, (8Z)-", "8-Dodecen-1-ol, (Z)-", "(8Z)-8-Dodecen-1-ol", "cis-8-Dodecen-1-ol", "(Z)-8-Dodecenyl alcohol", "(Z)-8-Dodecen-1-ol", "(8Z)-Dodec-8-en-1-ol"], "SMILES": "C(CC=CCCC)CCCCCO", "physical_data": {"Molecular Weight": "184.32", "Molecular Formula": "C12H24O", "Boiling Point": "88-90 \u00b0C @ Press: 1 Torr"}}