{"cas_no": "4065-45-6", "cn_name": "\u7d2b\u5916\u7ebf\u5438\u6536\u5242BP-4", "en_name": ["Benzophenone 4", "Benzenesulfonic acid, 5-benzoyl-4-hydroxy-2-methoxy-", "1-Phenol-4-sulfonic acid, 2-benzoyl-5-methoxy-", "5-Benzoyl-4-hydroxy-2-methoxybenzenesulfonic acid", "MS 40", "3-Benzoyl-4-hydroxy-6-methoxybenzenesulfonic acid", "2-Hydroxy-4-methoxybenzophenone-5-sulfonic acid", "Spectra-Sorb UV 284", "Sulisobenzone", "Uval", "Uvinul MS 40", "2-Hydroxy-4-methoxy-5-sulfobenzophenone", "2-Methoxy-4-hydroxy-5-benzoylbenzenesulfonic acid", "Syntase 230", "Benzophenone 4", "Seesorb 101S", "Uvasorb S 5", "Sungard", "NSC 60584", "Uvinul D 5030", "Viosorb 111", "Escalol 577", "UV 284", "BP 4", "Kemisorb 11S"], "SMILES": "C(=O)(C1=CC(S(=O)(=O)O)=C(OC)C=C1O)C2=CC=CC=C2", "physical_data": {"Molecular Weight": "308.31", "Molecular Formula": "C14H12O6S", "Boiling Point": "491 \u00b0C", "Melting Point": "145 \u00b0C"}}