{"cas_no": "40663-68-1", "cn_name": "4-\u70ef\u4e19\u6c27\u57fa\u82ef\u7532\u919b", "en_name": ["4-(Allyloxy)benzaldehyde", "Benzaldehyde, 4-(2-propen-1-yloxy)-", "Benzaldehyde, 4-(2-propenyloxy)-", "Benzaldehyde, p-(allyloxy)-", "4-(2-Propen-1-yloxy)benzaldehyde", "p-(Allyloxy)benzaldehyde", "4-(Allyloxy)benzaldehyde", "4-(2-Propenyloxy)benzaldehyde", "Allyl 4-formylphenyl ether", "NSC 44013", "Allyl p-formylphenyl ether", "4-(Prop-2-enoxy)benzaldehyde"], "SMILES": "O(CC=C)C1=CC=C(C=O)C=C1", "physical_data": {"Molecular Weight": "162.19", "Molecular Formula": "C10H10O2", "Boiling Point": "142 \u00b0C @ Press: 10 Torr", "Melting Point": "179 \u00b0C"}}