{"cas_no": "4066-02-8", "cn_name": "2,2'-\u7532\u4e9a\u57fa\u53cc(6-\u73af\u5df1\u57fa-4-\u7532\u57fa\u915a)", "en_name": ["2,2\u2032-Methylenebis(4-methyl-6-cyclohexylphenol)", "Phenol, 2,2\u2032-methylenebis[6-cyclohexyl-4-methyl-", "p-Cresol, 2,2\u2032-methylenebis[6-cyclohexyl-", "2,2\u2032-Methylenebis[6-cyclohexyl-4-methylphenol]", "2,2\u2032-Methylenebis(4-methyl-6-cyclohexylphenol)", "Bis(3-cyclohexyl-5-methyl-2-hydroxyphenyl)methane", "Antioxidant ZKF", "ZKF", "Bis(3-cyclohexyl-2-hydroxy-5-methylphenyl)methane", "Vulkanox ZKF", "2,2\u2032-Methylenebis[6-cyclohexyl-p-cresol]", "Bis(2-hydroxy-3-cyclohexyl-5-methylphenyl)methane", "2-Cyclohexyl-6-[(3-cyclohexyl-2-hydroxy-5-methylphenyl)methyl]-4-methylphenol"], "SMILES": "OC1=C(C=C(C)C=C1CC2=C(O)C(=CC(C)=C2)C3CCCCC3)C4CCCCC4", "physical_data": {"Molecular Weight": "392.57", "Molecular Formula": "C27H36O2", "Melting Point": "134 \u00b0C"}}