{"cas_no": "4066-41-5", "cn_name": "5-\u4e59\u9170\u57fa\u567b\u5429-2-\u7fa7\u9178", "en_name": ["5-Acetyl-2-thiophenecarboxylic acid", "2-Thiophenecarboxylic acid, 5-acetyl-", "5-Acetyl-2-thiophenecarboxylic acid", "5-Carboxy-2-acetylthiophene"], "SMILES": "C(C)(=O)C=1SC(C(O)=O)=CC1", "physical_data": {"Molecular Weight": "170.19", "Molecular Formula": "C7H6O3S", "Melting Point": "142-143 \u00b0C"}}