{"cas_no": "4067-01-0", "cn_name": "1-(2-\u7532\u57fa\u82ef\u57fa)-1H-\u5421\u54af-2,5-\u4e8c\u916e", "en_name": ["N-(2-Methylphenyl)maleimide", "1H-Pyrrole-2,5-dione, 1-(2-methylphenyl)-", "Maleimide, N-o-tolyl-", "1-(2-Methylphenyl)-1H-pyrrole-2,5-dione", "N-o-Tolylmaleimide", "N-(o-Methylphenyl)maleimide", "N-(2-Methylphenyl)maleimide", "N-2-Tolylmaleimide", "NSC 39640", "NSC 52611", "NSC 56115", "1-(2-Methylphenyl)-2,5-dihydro-1H-pyrrole-2,5-dione"], "SMILES": "O=C1N(C(=O)C=C1)C2=C(C)C=CC=C2", "physical_data": {"Molecular Weight": "187.19", "Molecular Formula": "C11H9NO2", "Melting Point": "70-71 \u00b0C"}}