{"cas_no": "4067-16-7", "cn_name": "\u4e94\u4e59\u70ef\u516d\u80fa", "en_name": ["Pentaethylenehexamine", "3,6,9,12-Tetraazatetradecane-1,14-diamine", "Pentaethylenehexamine", "Pentaethylenehexaamine", "1,4,7,10,13,16-Hexaazahexadecane", "3,6,9,12-Tetraazatetradecamethylenediamine", "1,2-Bis[[2-[(2-aminoethyl)amino]ethyl]amino]ethane", "PEHA", "Pentaethylene hexaamine", "1,14-Diamino-3,6,9,12-tetraazatetradecane", "Aradur 5003"], "SMILES": "C(CNCCNCCN)NCCNCCN", "physical_data": {"Molecular Weight": "232.37", "Molecular Formula": "C10H28N6", "Boiling Point": "380 \u00b0C"}}