{"cas_no": "40677-44-9", "cn_name": "2-\u6c28\u57fa-4,6-\u4e8c\u6c2f-5-\u7532\u57fa\u82ef\u915a\u76d0\u9178\u76d0", "en_name": ["6-Amino-2,4-dichloro-3-methylphenol", "Phenol, 6-amino-2,4-dichloro-3-methyl-", "6-Amino-2,4-dichloro-3-methylphenol", "2-Amino-4,6-dichloro-5-methylphenol", "6-Amino-2,4-dichloro-m-cresol", "3,5-Dichloro-2-hydroxy-4-methylaniline"], "SMILES": "CC1=C(Cl)C(O)=C(N)C=C1Cl", "physical_data": {"Molecular Weight": "192.04", "Molecular Formula": "C7H7Cl2NO", "Melting Point": "133-134 \u00b0C"}}