{"cas_no": "4068-76-2", "cn_name": "5-\u6eb4\u6c34\u6768\u9178\u7532\u916f", "en_name": ["5-Bromo-2-hydroxybenzoic acid methyl ester", "Benzoic acid, 5-bromo-2-hydroxy-, methyl ester", "Salicylic acid, 5-bromo-, methyl ester", "Methyl 5-bromosalicylate", "Methyl 5-bromo-2-hydroxybenzoate", "4-Bromo-2-(methoxycarbonyl)phenol", "Methyl 2-hydroxy-5-bromobenzoate", "2-Hydroxy-5-bromobenzoic acid methyl ester", "NSC 30264", "5-Bromo-2-hydroxybenzoic acid methyl ester"], "SMILES": "C(OC)(=O)C1=C(O)C=CC(Br)=C1", "physical_data": {"Molecular Weight": "231.04", "Molecular Formula": "C8H7BrO3", "Melting Point": "37-38 \u00b0C"}}