{"cas_no": "4068-75-1", "cn_name": "5-\u7898\u6c34\u6768\u9178\u7532\u916f", "en_name": ["Methyl 5-iodosalicylate", "Benzoic acid, 2-hydroxy-5-iodo-, methyl ester", "Salicylic acid, 5-iodo-, methyl ester", "Methyl 5-iodosalicylate", "Methyl 2-hydroxy-5-iodobenzoate", "2-Hydroxy-5-iodobenzoic acid methyl ester", "NSC 66548", "5-Iodo-2-hydroxybenzoic acid methyl ester", "Methyl 5-iodo-2-hydroxybenzoate", "3-Methoxycarbonyl-4-iodophenol"], "SMILES": "C(OC)(=O)C1=C(O)C=CC(I)=C1", "physical_data": {"Molecular Weight": "278.04", "Molecular Formula": "C8H7IO3", "Boiling Point": "100-110 \u00b0C @ Press: 0.3-0.5 Torr", "Melting Point": "163-164 \u00b0C"}}