{"cas_no": "4068-78-4", "cn_name": "5-\u6c2f-2-\u7f9f\u57fa\u82ef\u7532\u9178\u7532\u916f", "en_name": ["Methyl 5-chloro-2-hydroxybenzoate", "Benzoic acid, 5-chloro-2-hydroxy-, methyl ester", "Salicylic acid, 5-chloro-, methyl ester", "Methyl 5-chloro-2-hydroxybenzoate", "Methyl 5-chlorosalicylate", "5-Chlorosalicylic acid methyl ester", "5-Chloro-2-hydroxybenzoic acid methyl ester", "2-Hydroxy-5-chlorobenzoic acid methyl ester", "NSC 85495", "Methyl 2-hydroxy-5-chlorobenzoate"], "SMILES": "C(OC)(=O)C1=C(O)C=CC(Cl)=C1", "physical_data": {"Molecular Weight": "186.59", "Molecular Formula": "C8H7ClO3", "Melting Point": "50 \u00b0C"}}