{"cas_no": "40691-66-5", "cn_name": "2,2-\u8054\u82ef\u57fa\u4e19\u57fa\u80fa\u76d0\u9178\u76d0", "en_name": ["Benzeneethanamine, \u03b2-methyl-\u03b2-phenyl-, hydrochloride (1:1)", "Benzeneethanamine, \u03b2-methyl-\u03b2-phenyl-, hydrochloride (1:1)", "Benzeneethanamine, \u03b2-methyl-\u03b2-phenyl-, hydrochloride", "2,2-Diphenylpropylamine hydrochloride", "2,2-Diphenylpropan-1-amine hydrochloride"], "SMILES": "C(CN)(C)(C1=CC=CC=C1)C2=CC=CC=C2.Cl", "physical_data": {"Molecular Weight": "", "Molecular Formula": "C15H17N.ClH", "Melting Point": "258-260 \u00b0C"}}