{"cas_no": "407-16-9", "cn_name": "4-(\u4e09\u6c1f\u7532\u786b)\u6c2f\u82ef", "en_name": ["1-Chloro-4-[(trifluoromethyl)thio]benzene", "Benzene, 1-chloro-4-[(trifluoromethyl)thio]-", "Sulfide, p-chlorophenyl trifluoromethyl", "1-Chloro-4-[(trifluoromethyl)thio]benzene", "1-Chloro-4-(trifluoromethylthio)benzene", "4-Chlorophenyl trifluoromethyl sulfide", "p-Chlorophenyl trifluoromethyl sulfide", "4-Chlorophenyl trifluoromethyl thioether", "(4-Chlorophenyl)(trifluoromethyl)sulfane", "1-Chloro-4-(trifluoromethylsulfanyl)benzene"], "SMILES": "S(C(F)(F)F)C1=CC=C(Cl)C=C1", "physical_data": {"Molecular Weight": "212.62", "Molecular Formula": "C7H4ClF3S", "Boiling Point": "173-174 \u00b0C"}}