{"cas_no": "407-01-2", "cn_name": "\u53cc(\u4e09\u6c1f\u4e59\u57fa)\u80fa", "en_name": ["2,2,2-Trifluoro-N-(2,2,2-trifluoroethyl)ethanamine", "Ethanamine, 2,2,2-trifluoro-N-(2,2,2-trifluoroethyl)-", "Diethylamine, 2,2,2,2\u2032,2\u2032,2\u2032-hexafluoro-", "2,2,2-Trifluoro-N-(2,2,2-trifluoroethyl)ethanamine", "Bis(2,2,2-trifluoroethyl)amine", "N,N-Bis(2,2,2-trifluoroethyl)amine"], "SMILES": "C(C(F)(F)F)NCC(F)(F)F", "physical_data": {"Molecular Weight": "181.08", "Molecular Formula": "C4H5F6N", "Boiling Point": "79 \u00b0C"}}