{"cas_no": "407-25-0", "cn_name": "\u4e09\u6c1f\u4e59\u9178\u9150", "en_name": ["Trifluoroacetic anhydride", "Acetic acid, 2,2,2-trifluoro-, 1,1\u2032-anhydride", "Acetic acid, trifluoro-, anhydride", "Trifluoroacetic anhydride", "Perfluoroacetic anhydride", "Trifluoroacetic acid anhydride", "Hexafluoroacetic anhydride", "Trifluoroacetyl anhydride", "Bis(trifluoroacetic) anhydride", "2,2,2-Trifluoroacetic anhydride", "NSC 96965", "(2,2,2-Trifluoroacetyl) 2,2,2-trifluoroacetate", "Trifluoroacetyl 2,2,2-trifluoroacetate"], "SMILES": "O(C(C(F)(F)F)=O)C(C(F)(F)F)=O", "physical_data": {"Molecular Weight": "210.03", "Molecular Formula": "C4F6O3", "Boiling Point": "39.5 \u00b0C", "Melting Point": "-65 \u00b0C", "Density": "1.490 g/cm\u00b3 @ Temp: 25 \u00b0C"}}