{"cas_no": "407-47-6", "cn_name": "\u4e19\u70ef\u9178\u4e09\u6c1f\u4e59\u916f", "en_name": ["2,2,2-Trifluoroethyl acrylate", "2-Propenoic acid, 2,2,2-trifluoroethyl ester", "Acrylic acid, 2,2,2-trifluoroethyl ester", "Ethanol, 2,2,2-trifluoro-, acrylate", "2,2,2-Trifluoroethyl acrylate", "Viscoat 3F", "NSC 32611", "V 3F", "A 1152", "Trifluoroethyl acrylate", "Trifluoromethylmethyl acrylate", "R 1110", "2,2,2-Trifluoroethyl prop-2-enoate", "Viscoat V 3F"], "SMILES": "O(C(C=C)=O)CC(F)(F)F", "physical_data": {"Molecular Weight": "154.09", "Molecular Formula": "C5H5F3O2", "Boiling Point": "46 \u00b0C"}}