{"cas_no": "407-22-7", "cn_name": "2-\u6c1f-6-\u7532\u57fa\u5421\u5576", "en_name": ["2-Fluoro-6-methylpyridine", "Pyridine, 2-fluoro-6-methyl-", "2-Picoline, 6-fluoro-", "2-Fluoro-6-methylpyridine", "6-Fluoro-2-picoline", "NSC 51590", "2-Methyl-6-fluoropyridine", "6-Fluoro-2-methylpyridine"], "SMILES": "CC=1N=C(F)C=CC1", "physical_data": {"Molecular Weight": "111.12", "Molecular Formula": "C6H6FN", "Boiling Point": "142 \u00b0C"}}