{"cas_no": "407-38-5", "cn_name": "\u4e09\u6c1f\u4e59\u91782,2,2-\u4e09\u6c1f\u4e59\u916f", "en_name": ["Acetic acid, 2,2,2-trifluoro-, 2,2,2-trifluoroethyl ester", "Acetic acid, 2,2,2-trifluoro-, 2,2,2-trifluoroethyl ester", "Acetic acid, trifluoro-, 2,2,2-trifluoroethyl ester", "Ethanol, 2,2,2-trifluoro-, trifluoroacetate", "2,2,2-Trifluoroethyl trifluoroacetate", "Trifluoroethyl trifluoroacetate", "2,2,2-Trifluoroethyl 2,2,2-trifluoroacetate", "Trifluoroacetic acid 2,2,2-trifluoroethyl ester"], "SMILES": "O(C(C(F)(F)F)=O)CC(F)(F)F", "physical_data": {"Molecular Weight": "196.05", "Molecular Formula": "C4H2F6O2", "Boiling Point": "55 \u00b0C", "Melting Point": "-65.5 \u00b0C", "Density": "1.4725 g/cm\u00b3 @ Temp: 18 \u00b0C"}}