{"cas_no": "407-24-9", "cn_name": "\u53cc\u4e09\u6c1f\u4e59\u9170\u80fa", "en_name": ["Bis(trifluoroacetyl)imide", "Acetamide, 2,2,2-trifluoro-N-(2,2,2-trifluoroacetyl)-", "Diacetamide, 2,2,2,2\u2032,2\u2032,2\u2032-hexafluoro-", "Acetamide, 2,2,2-trifluoro-N-(trifluoroacetyl)-", "2,2,2-Trifluoro-N-(2,2,2-trifluoroacetyl)acetamide", "2,2,2,2\u2032,2\u2032,2\u2032-Hexafluorodiacetamide", "Bis(trifluoroacetyl)imide", "N-(Trifluoroacetyl)trifluoroacetamide"], "SMILES": "N(C(C(F)(F)F)=O)C(C(F)(F)F)=O", "physical_data": {"Molecular Weight": "209.05", "Molecular Formula": "C4HF6NO2", "Boiling Point": "135-136 \u00b0C @ Press: 744 Torr", "Melting Point": "85 \u00b0C"}}