{"cas_no": "407-41-0", "cn_name": "L-O-\u78f7\u9178\u4e1d\u6c28\u9178", "en_name": ["Phospho-L-serine", "L-Serine, O-phosphono-", "Serine, dihydrogen phosphate (ester), L-", "L-Serine, dihydrogen phosphate (ester)", "Serine phosphate, L-", "O-Phosphono-L-serine", "O-Phosphorylserine", "L-Seryl phosphate", "3-O-Phosphoserine", "L-Phosphoserine", "O-Phospho-L-serine", "Serine O-phosphate", "L-O-Serine phosphate", "O-Phosphoryl-L-serine", "Fosforina", "L-Serinephosphoric acid", "Serine dihydrogen phosphate (ester)", "L-O-Phosphoserine", "Phospho-L-serine", "Dexfosfoserine", "L-3-Phosphoserine", "Seriphos", "(S)-2-Amino-3-(phosphonooxy)propanoic acid", "(2S)-2-Azaniumyl-3-phosphonooxypropanoate", "(2S)-2-Amino-3-(phosphonooxy)propanoic acid"], "SMILES": "C(C(C(O)=O)N)OP(=O)(O)O", "physical_data": {"Molecular Weight": "185.07", "Molecular Formula": "C3H8NO6P", "Melting Point": "166 \u00b0C (decomp)"}}