{"cas_no": "407-97-6", "cn_name": "1-\u6eb4-5-\u6c1f\u620a\u70f7", "en_name": ["1-Bromo-5-fluoropentane", "Pentane, 1-bromo-5-fluoro-", "1-Bromo-5-fluoropentane"], "SMILES": "C(CCBr)CCF", "physical_data": {"Molecular Weight": "169.04", "Molecular Formula": "C5H10BrF", "Boiling Point": "162.0 \u00b0C", "Density": "1.3604 g/cm\u00b3 @ Temp: 25 \u00b0C"}}