{"cas_no": "4070-75-1", "cn_name": "\u53cd-1,2-\u4e8c\u82ef\u9170\u4e59\u70ef", "en_name": ["1,4-Diphenyl-2-butene-1,4-dione", "2-Butene-1,4-dione, 1,4-diphenyl-", "1,4-Diphenyl-2-butene-1,4-dione", "Dibenzoylethylene", "1,2-Dibenzoylethylene", "1,2-Dibenzoylethene", "NSC 28072"], "SMILES": "C(C=CC(=O)C1=CC=CC=C1)(=O)C2=CC=CC=C2", "physical_data": {"Molecular Weight": "236.27", "Molecular Formula": "C16H12O2", "Melting Point": "111 \u00b0C"}}