{"cas_no": "40711-41-9", "cn_name": "\u8349\u9178\u4e01\u80bc", "en_name": ["Hydrazine, butyl-, ethanedioate (1:?)", "Hydrazine, butyl-, ethanedioate (1:?)", "Hydrazine, butyl-, ethanedioate", "Butylhydrazine oxalate"], "SMILES": "C(C(O)=O)(O)=O.C(CNN)CC", "physical_data": {"Molecular Weight": "", "Molecular Formula": "C4H12N2.xC2H2O4", "Melting Point": "163-164 \u00b0C"}}