{"cas_no": "40716-66-3", "cn_name": "\u53cd\u5f0f-\u6a59\u82b1\u53d4\u9187", "en_name": ["trans-Nerolidol", "1,6,10-Dodecatrien-3-ol, 3,7,11-trimethyl-, (6E)-", "1,6,10-Dodecatrien-3-ol, 3,7,11-trimethyl-, (E)-", "(6E)-3,7,11-Trimethyl-1,6,10-dodecatrien-3-ol", "trans-Nerolidol", "(\u00b1)-trans-Nerolidol", "(6E)-Nerolidol", "1-Geranyl-2-methyl-3-buten-2-ol", "(E)-3,7,11-Trimethyl-1,6,10-dodecatrien-3-ol", "(E)-Nerolidol", "(6E)-3,7,11-Trimethyldodeca-1,6,10-trien-3-ol", "Nerolidol B", "(6E)-3,7,11-Trimethyl-1,6,10-dodecatrien-3-ol", "(E)-3,7,11-Trimethyldodeca-1,6,10-trien-3-ol"], "SMILES": "C(CCC(C=C)(C)O)=C(CCC=C(C)C)C", "physical_data": {"Molecular Weight": "222.37", "Molecular Formula": "C15H26O", "Boiling Point": "113 \u00b0C @ Press: 0.4 Torr"}}