{"cas_no": "4071-88-9", "cn_name": "(\u4e09\u7532\u57fa\u7845\u57fa)\u4e59\u9178\u4e59\u916f", "en_name": ["Ethyl (trimethylsilyl)acetate", "Acetic acid, 2-(trimethylsilyl)-, ethyl ester", "Acetic acid, (trimethylsilyl)-, ethyl ester", "Ethyl 2-(trimethylsilyl)acetate", "Ethyl \u03b1-(trimethylsilyl)acetate", "2-(Trimethylsilyl)acetic acid ethyl ester", "Ethyl (trimethylsilyl)acetate", "NSC 108051", "NSC 234752", "(Trimethylsilyl)acetic acid ethyl ester"], "SMILES": "C(C[Si](C)(C)C)(OCC)=O", "physical_data": {"Molecular Weight": "160.29", "Molecular Formula": "C7H16O2Si", "Boiling Point": "157-158 \u00b0C", "Density": "0.876 g/cm\u00b3"}}