{"cas_no": "4072-67-7", "cn_name": "4,4'-\u4e8c(2-\u6eb4\u4e59\u9170\u57fa)\u8054\u82ef", "en_name": ["1,1\u2032-[1,1\u2032-Biphenyl]-4,4\u2032-diylbis[2-bromoethanone]", "Ethanone, 1,1\u2032-[1,1\u2032-biphenyl]-4,4\u2032-diylbis[2-bromo-", "4\u2032,4\u2032\u2032\u2032-Biacetophenone, 2,2\u2032\u2032-dibromo-", "1,1\u2032-[1,1\u2032-Biphenyl]-4,4\u2032-diylbis[2-bromoethanone]", "p,p\u2032-Bis(bromoacetyl)biphenyl", "\u03b1,\u03b1\u2032-Dibromo-4,4\u2032-biacetophenone", "4,4\u2032-Bis(bromoacetyl)biphenyl", "NSC 619613", "4,4\u2032-Bis(2-bromoacetyl)biphenyl", "1,1\u2032-[1,1\u2032-Biphenyl]-4,4\u2032-diylbis[2-bromoethan-1-one]", "2-Bromo-1-[4-[4-(2-bromoacetyl)phenyl]phenyl]ethanone"], "SMILES": "C(CBr)(=O)C1=CC=C(C=C1)C2=CC=C(C(CBr)=O)C=C2", "physical_data": {"Molecular Weight": "396.07", "Molecular Formula": "C16H12Br2O2", "Melting Point": "226-227 \u00b0C"}}