{"cas_no": "40720-05-6", "cn_name": "5-[(1S,2S,5R)-3,3,7-trioxo-3,lambda6-thia-6,8-diazabicyclo[3.3.0]oct-2-yl]pentanoic acid", "en_name": ["1H-Thieno[3,4-d]imidazole-4-pentanoic acid, hexahydro-2-oxo-, 5,5-dioxide, (3aS,4S,6aR)-", "1H-Thieno[3,4-d]imidazole-4-pentanoic acid, hexahydro-2-oxo-, 5,5-dioxide, (3aS,4S,6aR)-", "1H-Thieno[3,4-d]imidazole-4-pentanoic acid, hexahydro-2-oxo-, 5,5-dioxide, [3aS-(3a\u03b1,4\u03b2,6a\u03b1)]-", "Biotin, 5,5-dioxide", "Biotin sulfone"], "SMILES": "C(CCCC(O)=O)C1C2C(CS1(=O)=O)NC(=O)N2", "physical_data": {"Molecular Weight": "276.31", "Molecular Formula": "C10H16N2O5S", "Melting Point": "268-270 \u00b0C"}}