{"cas_no": "40723-80-6", "cn_name": "1,1,1,2,2-\u4e94\u6c1f-4-\u7898\u4e01\u70f7", "en_name": ["1,1,1,2,2-Pentafluoro-4-iodobutane", "Butane, 1,1,1,2,2-pentafluoro-4-iodo-", "1,1,1,2,2-Pentafluoro-4-iodobutane", "3,3,4,4,4-Pentafluorobutyl iodide", "2-(Perfluoroethyl)ethyl iodide", "4-Iodo-1,1,1,2,2-pentafluorobutane", "Perfluoroethylethyl iodide", "1,1,2,2-Tetrahydroperfluorobutyl iodide", "1-Iodo-3,3,4,4,4-pentafluorobutane", "3,3,4,4,4-Pentafluoro-1-iodobutane"], "SMILES": "C(C(F)(F)F)(CCI)(F)F", "physical_data": {"Molecular Weight": "273.97", "Molecular Formula": "C4H4F5I", "Boiling Point": "100 \u00b0C"}}