{"cas_no": "40733-28-6", "cn_name": "5'-O-(\u53d4\u4e01\u57fa\u4e8c\u7532\u57fa\u7532\u7845\u70f7\u57fa)\u80f8\u82f7", "en_name": ["5\u2032-O-[(1,1-Dimethylethyl)dimethylsilyl]thymidine", "Thymidine, 5\u2032-O-[(1,1-dimethylethyl)dimethylsilyl]-", "5\u2032-O-[(1,1-Dimethylethyl)dimethylsilyl]thymidine", "5\u2032-O-tert-Butyldimethylsilylthymidine", "5\u2032-O-(tert-Butyldimethylsilyl)deoxythymidine"], "SMILES": "O=C1N(C2OC(CO[Si](C(C)(C)C)(C)C)C(O)C2)C=C(C)C(=O)N1", "physical_data": {"Molecular Weight": "356.49", "Molecular Formula": "C16H28N2O5Si", "Melting Point": "198-200 \u00b0C"}}