{"cas_no": "40736-26-3", "cn_name": "N-\u7532\u78fa\u9170\u54aa\u5511", "en_name": ["1-(Methylsulfonyl)-1H-imidazole", "1H-Imidazole, 1-(methylsulfonyl)-", "1-(Methylsulfonyl)-1H-imidazole", "N-Methanesulfonylimidazole", "1-Methanesulfonylimidazole", "1-(Methylsulfonyl)imidazole", "1-Methanesulfonyl-1H-imidazole"], "SMILES": "S(C)(=O)(=O)N1C=CN=C1", "physical_data": {"Molecular Weight": "146.17", "Molecular Formula": "C4H6N2O2S", "Melting Point": "189-190 \u00b0C"}}