{"cas_no": "4073-98-7", "cn_name": "4-(4-\u6c28\u57fa-3,5-\u4e8c\u7532\u57fa\u82c4\u57fa)-2,6-\u4e8c\u7532\u57fa\u82ef\u80fa", "en_name": ["4,4\u2032-Methylenebis(2,6-dimethylaniline)", "Benzenamine, 4,4\u2032-methylenebis[2,6-dimethyl-", "2,6-Xylidine, 4,4\u2032-methylenedi-", "4,4\u2032-Methylenebis[2,6-dimethylbenzenamine]", "4,4\u2032-Methylenedi-2,6-xylidine", "4,4\u2032-Methylenebis(2,6-dimethylaniline)", "4,4\u2032-Methylenebis(2,6-xylidine)", "3,3\u2032,5,5\u2032-Tetramethyl-4,4\u2032-diaminodiphenylmethane", "Kayabond C 200", "Kayabond C 200S", "C 200S", "3,3\u2032,5,5\u2032-Tetramethyl-4,4\u2032-methylene dianiline", "Bis(4-amino-3,5-dimethylphenyl)methane"], "SMILES": "C(C1=CC(C)=C(N)C(C)=C1)C2=CC(C)=C(N)C(C)=C2", "physical_data": {"Molecular Weight": "254.37", "Molecular Formula": "C17H22N2", "Melting Point": "122.5-123.5 \u00b0C"}}