{"cas_no": "4074-88-8", "cn_name": "\u4e8c\u4e59\u4e8c\u9187\u53cc\u4e19\u70ef\u9178\u916f", "en_name": ["Diethylene glycol, diacrylate", "2-Propenoic acid, 1,1\u2032-(oxydi-2,1-ethanediyl) ester", "Acrylic acid, oxydiethylene ester", "2-Propenoic acid, oxydi-2,1-ethanediyl ester", "Diethylene glycol, diacrylate", "TGA 2", "Oxydiethylene diacrylate", "NK Ester A 2G", "SR 230", "Kayarad DEGDA", "2,2\u2032-Oxydiethyl diacrylate", "Sartomer SR 230", "FA 222A", "Fancryl FA 222A", "Diethylene glycol diacrylate", "Sartomer 230"], "SMILES": "C(OCCOCCOC(C=C)=O)(C=C)=O", "physical_data": {"Molecular Weight": "214.22", "Molecular Formula": "C10H14O5", "Boiling Point": "94 \u00b0C @ Press: 0.225 Torr"}}