{"cas_no": "4074-25-3", "cn_name": "2,4,6-\u4e09\u53d4\u4e01\u57fa\u785d\u57fa\u82ef", "en_name": ["1,3,5-Tris(1,1-dimethylethyl)-2-nitrobenzene", "Benzene, 1,3,5-tris(1,1-dimethylethyl)-2-nitro-", "Benzene, 1,3,5-tri-tert-butyl-2-nitro-", "1,3,5-Tris(1,1-dimethylethyl)-2-nitrobenzene", "1,3,5-Tri-tert-butyl-2-nitrobenzene", "2,4,6-Tri-tert-butyl-1-nitrobenzene", "2,4,6-Tri-tert-butylnitrobenzene", "1,3,5-Tritert-butyl-2-nitrobenzene"], "SMILES": "N(=O)(=O)C1=C(C(C)(C)C)C=C(C(C)(C)C)C=C1C(C)(C)C", "physical_data": {"Molecular Weight": "291.43", "Molecular Formula": "C18H29NO2", "Melting Point": "204-205 \u00b0C"}}