{"cas_no": "4074-90-2", "cn_name": "\u5df1\u4e8c\u9178\u4e8c\u4e59\u70ef\u916f", "en_name": ["Divinyl adipate", "Hexanedioic acid, 1,6-diethenyl ester", "Adipic acid, divinyl ester", "Hexanedioic acid, diethenyl ester", "Divinyl adipate", "Divinyl hexanedioate", "Diethenyl adipate", "A 1188"], "SMILES": "C(CCCCC(OC=C)=O)(OC=C)=O", "physical_data": {"Molecular Weight": "198.22", "Molecular Formula": "C10H14O4", "Boiling Point": "133 \u00b0C @ Press: 15 Torr", "Density": "1.0383 g/cm\u00b3 @ Temp: 20 \u00b0C"}}