{"cas_no": "4075-07-4", "cn_name": "4,16-\u4e8c\u70ef-3-\u96c4\u916e", "en_name": ["Androsta-4,16-dien-3-one", "Androsta-4,16-dien-3-one", "\u03944,16-Androstadien-3-one", "Androstadienone", "NSC 93234", "4,16-Androstadien-3-one"], "SMILES": "CC12C3C(C4C(C)(CC3)C=CC4)CCC1=CC(=O)CC2", "physical_data": {"Molecular Weight": "270.41", "Molecular Formula": "C19H26O", "Melting Point": "131.5-133.5 \u00b0C"}}