{"cas_no": "4075-59-6", "cn_name": "2-\u567b\u5429\u4e59\u919b\u9178", "en_name": ["2-Thiopheneglyoxylic acid", "2-Thiopheneacetic acid, \u03b1-oxo-", "2-Thiopheneglyoxylic acid", "\u03b1-Oxo-2-thiopheneacetic acid", "2-Thienylglyoxylic acid", "2-Thienylglyoxalic acid", "(2-Thienyl)oxoacetic acid", "\u03b1-Thienylglyoxalic acid", "2-(2-Thienyl)-2-oxoacetic acid", "Oxo(thien-2-yl)acetic acid", "2-Oxo-2-(thiophen-2-yl)acetic acid", "2-Oxo-2-(2-thienyl)acetic acid"], "SMILES": "C(C(O)=O)(=O)C1=CC=CS1", "physical_data": {"Molecular Weight": "156.16", "Molecular Formula": "C6H4O3S", "Melting Point": "91.5 \u00b0C"}}