{"cas_no": "40751-89-1", "cn_name": "2-\u7532\u6c27\u57fa-5-\u785d\u57fa\u82ef\u7532\u9178", "en_name": ["2-Methoxy-5-nitrobenzoic acid", "Benzoic acid, 2-methoxy-5-nitro-", "o-Anisic acid, 5-nitro-", "2-Methoxy-5-nitrobenzoic acid", "NSC 139931"], "SMILES": "C(O)(=O)C1=C(OC)C=CC(N(=O)=O)=C1", "physical_data": {"Molecular Weight": "197.14", "Molecular Formula": "C8H7NO5", "Melting Point": "160-161 \u00b0C"}}