{"cas_no": "4075-58-5", "cn_name": "2-\u567b\u915a\u4e59\u916f\u4e59\u9178\u4e59\u916f", "en_name": ["Ethyl 2-thienylglyoxylate", "2-Thiopheneacetic acid, \u03b1-oxo-, ethyl ester", "2-Thiopheneglyoxylic acid, ethyl ester", "Ethyl 2-thienylglyoxylate", "Ethyl 2-oxo-2-(2\u2032-thienyl)acetate", "Ethyl 2-thiopheneglyoxylate", "Ethyl \u03b1-oxo-2-thiopheneacetate", "Ethyl 2-oxo-2-(2-thienyl)ethanoate", "Ethyl 2-oxo-2-thienylacetate", "Ethyl oxo(2-thienyl)acetate", "2-Oxo-2-(thiophen-2-yl)acetic acid ethyl ester", "Ethyl 2-oxo-2-(2-thienyl)acetate", "Ethyl 2-oxo-2-(thiophen-2-yl)acetate"], "SMILES": "C(C(OCC)=O)(=O)C1=CC=CS1", "physical_data": {"Molecular Weight": "184.21", "Molecular Formula": "C8H8O3S", "Boiling Point": "115-120 \u00b0C @ Press: 3 Torr", "Melting Point": "81-83 \u00b0C"}}