{"cas_no": "4076-36-2", "cn_name": "5-\u7532\u57fa\u56db\u6c2e\u5511", "en_name": ["5-Methyl-2H-tetrazole", "2H-Tetrazole, 5-methyl-", "1H-Tetrazole, 5-methyl-", "5-Methyl-2H-tetrazole", "5-Methyltetrazole", "5-Methyl-1,2,3,4-tetrazole", "T 2588F", "5-Methyl-1H-tetrazole", "NSC 11136", "M 5T"], "SMILES": "CC=1NN=NN1", "physical_data": {"Molecular Weight": "84.08", "Molecular Formula": "C2H4N4", "Melting Point": "145-146 \u00b0C"}}