{"cas_no": "40769-81-1", "cn_name": "1H-\u5421\u5511\u5e76[4,3-D]\u5627\u5576-5,7(4H,6H)-\u4e8c\u916e", "en_name": ["1H-Pyrazolo[4,3-d]pyrimidine-5,7(4H,6H)-dione", "1H-Pyrazolo[4,3-d]pyrimidine-5,7(4H,6H)-dione", "1H-Pyrazolo[4,3-d]pyrimidine-5,7-diol", "5,7-Dihydroxypyrazolo[4,3-d]pyrimidine", "1,4-Dihydropyrazolo[4,3-d]pyrimidine-5,7-dione"], "SMILES": "O=C1C2=C(NC(=O)N1)C=NN2", "physical_data": {"Molecular Weight": "152.11", "Molecular Formula": "C5H4N4O2", "Melting Point": "&gt;300 \u00b0C"}}