{"cas_no": "4076-02-2", "cn_name": "2,3-\u4e8c\u5def\u57fa\u4e19\u78fa\u9178\u94a0", "en_name": ["Unithiol", "1-Propanesulfonic acid, 2,3-dimercapto-, sodium salt (1:1)", "1-Propanesulfonic acid, 2,3-dimercapto-, monosodium salt", "Unithiol", "Sodium 2,3-dimercaptopropanesulfonate", "Sodium 2,3-dimercapto-1-propanesulfonate", "Unitiol", "Sodium 2,3-dimercaptopropan-1-sulfonate", "DMPS", "Dimaval", "MeSH ID: D014494"], "SMILES": "C(S(=O)(=O)O)C(CS)S.[Na]", "physical_data": {"Molecular Weight": "", "Molecular Formula": "C3H8O3S3.Na", "Melting Point": "235 \u00b0C"}}