{"cas_no": "40774-73-0", "cn_name": "\u65b0\u70df\u78b1", "en_name": ["(\u00b1)-Anabasine", "Pyridine, 3-(2-piperidinyl)-", "Anabasine, (\u00b1)-", "Pyridine, 3-(2-piperidinyl)-, (\u00b1)-", "Piperidine, 2-(3-pyridyl)-", "3-(2-Piperidinyl)pyridine", "(\u00b1)-Anabasine", "DL-Anabasine", "2-(3-Pyridyl)piperidine", "3-(2-Piperidyl)pyridine", "1,2,3,4,5,6-Hexahydro-[2,3\u2032]bipyridinyl", "3-(Piperidin-2-yl)pyridine", "2-(Pyridin-3-yl)piperidine", "Rac-anabasine"], "SMILES": "C=1(C=CC=NC1)C2CCCCN2", "physical_data": {"Molecular Weight": "162.23", "Molecular Formula": "C10H14N2", "Boiling Point": "104-105 \u00b0C @ Press: 2 Torr", "Melting Point": "92-95 \u00b0C (decomp)", "Density": "1.0455 g/cm\u00b3 @ Temp: 20 \u00b0C"}}