{"cas_no": "40771-26-4", "cn_name": "1,5-\u4e8c\u7f9f\u57fa-1,2,3,4-\u56db\u6c22\u8418", "en_name": ["1,5-Dihydroxy-1,2,3,4-tetrahydronaphthalene", "1,5-Naphthalenediol, 1,2,3,4-tetrahydro-", "1,5-Naphthalenediol, 5,6,7,8-tetrahydro-", "1,2,3,4-Tetrahydro-1,5-naphthalenediol", "1,5-Dihydroxy-1,2,3,4-tetrahydronaphthalene", "1,5-Dihydroxytetralin", "1,2,3,4-Tetrahydro-1,5-dihydroxynaphthalene", "5,6,7,8-Tetrahydro-1,5-dihydroxynaphthalene", "(RS)-1,5-Dihydroxytetralin", "1,2,3,4-Tetrahydronaphthalene-1,5-diol", "NSC 96982", "(\u00b1)-1,5-Dihydroxy-1,2,3,4-tetrahydronaphthalene"], "SMILES": "OC1C=2C(=C(O)C=CC2)CCC1", "physical_data": {"Molecular Weight": "164.20", "Molecular Formula": "C10H12O2", "Melting Point": "131-133 \u00b0C"}}