{"cas_no": "40789-98-8", "cn_name": "3-\u5def\u57fa-2-\u4e01\u916e", "en_name": ["3-Mercapto-2-butanone", "2-Butanone, 3-mercapto-", "3-Mercapto-2-butanone", "2-Mercapto-3-butanone", "3-Sulfanylbutan-2-one"], "SMILES": "C(C(C)S)(C)=O", "physical_data": {"Molecular Weight": "104.17", "Molecular Formula": "C4H8OS", "Boiling Point": "39 \u00b0C @ Press: 8 Torr"}}