{"cas_no": "40796-97-2", "cn_name": "\u8d1d\u7f8e\u53f8\u743c", "en_name": ["Bemesetron", "Benzoic acid, 3,5-dichloro-, (3-endo)-8-methyl-8-azabicyclo[3.2.1]oct-3-yl ester", "Benzoic acid, 3,5-dichloro-, 8-methyl-8-azabicyclo[3.2.1]oct-3-yl ester, endo-", "MDL 72222", "Bemesetron"], "SMILES": "O(C(=O)C1=CC(Cl)=CC(Cl)=C1)C2CC3N(C)C(C2)CC3", "physical_data": {"Molecular Weight": "314.21", "Molecular Formula": "C15H17Cl2NO2", "Melting Point": "165 \u00b0C"}}