{"cas_no": "4079-52-1", "cn_name": "2-\u7532\u6c27\u57fa\u82ef\u4e59\u916e", "en_name": ["2-Methoxy-1-phenylethanone", "Ethanone, 2-methoxy-1-phenyl-", "Acetophenone, 2-methoxy-", "2-Methoxy-1-phenylethanone", "\u03b1-Methoxyacetophenone", "\u03c9-Methoxyacetophenone", "2-Methoxyacetophenone", "Methoxymethyl phenyl ketone", "NSC 227212", "NSC 354", "Phenyl methoxymethyl ketone", "2-Methoxy-1-phenylethan-1-one"], "SMILES": "C(COC)(=O)C1=CC=CC=C1", "physical_data": {"Molecular Weight": "150.17", "Molecular Formula": "C9H10O2", "Boiling Point": "245 \u00b0C", "Melting Point": "8 \u00b0C", "Density": "1.093 g/cm\u00b3 @ Temp: 21.2 \u00b0C"}}