{"cas_no": "4079-68-9", "cn_name": "N,N-\u4e8c\u4e59\u57fa\u4e19\u7094\u80fa", "en_name": ["Diethylpropargylamine", "2-Propyn-1-amine, N,N-diethyl-", "2-Propynylamine, N,N-diethyl-", "N,N-Diethyl-2-propyn-1-amine", "3-(Diethylamino)propyne", "N,N-Diethylpropargylamine", "Diethylpropargylamine", "3-(N,N-Diethylamino)propyne", "N,N-Diethyl-2-propynylamine", "1-(Diethylamino)-2-propyne", "3-(Diethylamino)-1-propyne", "Propargyldiethylamine", "NSC 63868", "Golpanol DEP"], "SMILES": "N(CC#C)(CC)CC", "physical_data": {"Molecular Weight": "111.18", "Molecular Formula": "C7H13N", "Boiling Point": "120 \u00b0C", "Density": "0.8042 g/cm\u00b3 @ Temp: 25 \u00b0C"}}