{"cas_no": "408-35-5", "cn_name": "\u68d5\u6988\u9178\u94a0", "en_name": ["Sodium palmitate", "Hexadecanoic acid, sodium salt (1:1)", "Palmitic acid, sodium salt", "Hexadecanoic acid, sodium salt", "Sodium palmitate", "Sodium pentadecanecarboxylate", "Sodium hexadecanoate", "C-Lube 16", "Nonsoul PN 1", "PN 1", "C 16-98/100MY, sodium salt", "C16 Soap"], "SMILES": "C(CCCCCCCCCC)CCCCC(O)=O.[Na]", "physical_data": {"Molecular Weight": "", "Molecular Formula": "C16H32O2.Na", "Melting Point": "270 \u00b0C"}}