{"cas_no": "4080-95-9", "cn_name": "\u58ec\u4e8c\u9178\u4e8c\u9170\u80bc", "en_name": ["Azelaic dihydrazide", "Nonanedioic acid, 1,9-dihydrazide", "Azelaic acid, dihydrazide", "Nonanedioic acid, dihydrazide", "Azelaic dihydrazide", "NSC 23708", "Azelaohydrazide", "Nonanedioic dihydrazide"], "SMILES": "C(CCCCCCCC(NN)=O)(NN)=O", "physical_data": {"Molecular Weight": "216.28", "Molecular Formula": "C9H20N4O2", "Melting Point": "177 \u00b0C"}}