{"cas_no": "4080-31-3", "cn_name": "\u5b63\u94f5\u76d0-15", "en_name": ["Quaternium 15", "3,5,7-Triaza-1-azoniatricyclo[3.3.1.13,7]decane, 1-(3-chloro-2-propen-1-yl)-, chloride (1:1)", "3,5,7-Triaza-1-azoniaadamantane, 1-(3-chloroallyl)-, chloride", "1-(3-Chloroallyl)-3,5,7-triaza-1-azoniaadamantane chloride", "3,5,7-Triaza-1-azoniatricyclo[3.3.1.13,7]decane, 1-(3-chloro-2-propenyl)-, chloride", "1,3,5,7-Tetraazatricyclo[3.3.1.13,7]decane, 3,5,7-triaza-1-azoniatricyclo[3.3.1.13,7]decane deriv.", "Dowco 184", "Dowicil 100", "1-(3-Chloroallyl)-3,5,7-triaza-1-azoniumadamantane chloride", "Dowicide Q", "Dowicil 75", "1-(3-Chloroallyl)-3,5,7-triaza-1-azoniadamantane chloride", "Quaternium 15", "N-(3-Chloroallyl)hexaminium chloride", "1-(3-Chloro-2-propenyl)-3,5,7-triaza-1-azoniatricyclo[3.3.1.13,7]decane chloride", "3-(3\u2032-Chloroallyl)hexamethylenetetraammonium chloride", "daoweixier 75", "1-(3-Chloroallyl)-1,3,5,7-tetraazaadamantan-1-iumchloride"], "SMILES": "C(C=CCl)[N+]12CN3CN(C1)CN(C2)C3.[Cl-]", "physical_data": {"Molecular Weight": "", "Molecular Formula": "C9H16ClN4.Cl", "Melting Point": "178-210 \u00b0C"}}