{"cas_no": "4080-98-2", "cn_name": "\u5341\u4e8c\u70f7\u4e8c\u7fa7\u9178\u4e8c\u9170\u80bc", "en_name": ["Dodecanedioic acid dihydrazide", "Dodecanedioic acid, 1,12-dihydrazide", "Dodecanedioic acid, dihydrazide", "N 12 (hydrazide)", "N 12", "Dodecanedioic dihydrazide", "DDH-S", "DDH", "1,12-Dodecandioic acid dihydrazide", "Dodecanedioic acid dihydrazide"], "SMILES": "C(CCCCCCCCCCC(NN)=O)(NN)=O", "physical_data": {"Molecular Weight": "258.36", "Molecular Formula": "C12H26N4O2", "Melting Point": "184-185 \u00b0C"}}