{"cas_no": "40807-61-2", "cn_name": "4-\u82ef\u57fa-4-\u7f9f\u57fa\u54cc\u5576", "en_name": ["4-Hydroxy-4-phenylpiperidine", "4-Piperidinol, 4-phenyl-", "4-Phenyl-4-piperidinol", "4-Hydroxy-4-phenylpiperidine", "4-Phenyl-4-hydroxypiperidine", "NSC 71658", "[1,4\u2032-Bipiperidin]-4\u2032-ol", "4-Phenylpiperidine-4-ol"], "SMILES": "OC1(CCNCC1)C2=CC=CC=C2", "physical_data": {"Molecular Weight": "177.24", "Molecular Formula": "C11H15NO", "Melting Point": "159-160 \u00b0C"}}