{"cas_no": "40808-24-0", "cn_name": "4,5-\u4e8c\u7532\u57fa\u567b\u5429-2-\u7fb0\u9178", "en_name": ["4,5-Dimethyl-2-thiophenecarboxylic acid", "2-Thiophenecarboxylic acid, 4,5-dimethyl-", "4,5-Dimethyl-2-thiophenecarboxylic acid", "4,5-Dimethylthiophene-2-carboxylic acid"], "SMILES": "C(O)(=O)C1=CC(C)=C(C)S1", "physical_data": {"Molecular Weight": "156.20", "Molecular Formula": "C7H8O2S", "Melting Point": "210-212 \u00b0C"}}