{"cas_no": "40817-03-6", "cn_name": "\u4e8c\u7532\u82ef\u53cc\uff08\u4e09\u82ef\u57fa\u6eb4\u5316\u81a6\uff09", "en_name": ["Phosphonium, 1,1\u2032-[1,4-phenylenebis(methylene)]bis[1,1,1-triphenyl-, bromide (1:2)", "Phosphonium, 1,1\u2032-[1,4-phenylenebis(methylene)]bis[1,1,1-triphenyl-, bromide (1:2)", "Phosphonium, [1,4-phenylenebis(methylene)]bis[triphenyl-, dibromide", "(p-Phenylenedimethylene)bis[triphenylphosphonium bromide]", "[1,4-Bis(triphenylphosphoniummethyl)benzene]dibromide", "P,P\u2032-(p-Phenylenedimethylene)bis(triphenylphosphonium bromide)", "p-Xylylenebis(triphenylphosphonium bromide)", "1,4-Xylylenebis(triphenylphosphonium bromide)", "1,4-Bis[(triphenylphosphonio)methyl]benzene dibromide", "[1,4-Phenylenebis(methylene)]bis[triphenylphosphonium dibromide]", "1,4-Bis(triphenylphosphonium bromide)benzene"], "SMILES": "[P+](CC1=CC=C(C[P+](C2=CC=CC=C2)(C3=CC=CC=C3)C4=CC=CC=C4)C=C1)(C5=CC=CC=C5)(C6=CC=CC=C6)C7=CC=CC=C7.[Br-]", "physical_data": {"Molecular Weight": "", "Molecular Formula": "C44H38P2.2Br", "Melting Point": "&gt;300 \u00b0C"}}