{"cas_no": "4081-35-0", "cn_name": "N,N'-\u53cc(\u4e9a\u6c34\u6768\u57fa)-1,6-\u5df1\u70f7\u4e8c\u80fa", "en_name": ["Bis(salicylidene)-1,6-hexanediamine", "Phenol, 2,2\u2032-[1,6-hexanediylbis(nitrilomethylidyne)]bis-", "o-Cresol, \u03b1,\u03b1\u2032-(hexamethylenedinitrilo)di-", "2,2\u2032-[1,6-Hexanediylbis(nitrilomethylidyne)]bis[phenol]", "Disalicylalhexamethylenediamine", "N,N\u2032-Bis(salicylidene)hexamethylenediamine", "Bis(salicylidene)-1,6-hexanediamine", "1,6-Hexanediamine bis(salicylaldimine)", "1,6-Bis(salicylideneamino)hexane", "NSC 91309", "N,N\u2032-Bis(salicylidene)-1,6-hexanediamine", "N,N\u2032-Disalicylidene-1,6-hexanediamine"], "SMILES": "C(=NCCCCCCN=CC1=C(O)C=CC=C1)C2=C(O)C=CC=C2", "physical_data": {"Molecular Weight": "324.42", "Molecular Formula": "C20H24N2O2", "Melting Point": "60 \u00b0C"}}