{"cas_no": "40817-08-1", "cn_name": "4'-\u6b63\u620a\u57fa-4-\u6c30\u57fa\u8054\u82ef", "en_name": ["4-Cyano-4\u2032-pentylbiphenyl", "[1,1\u2032-Biphenyl]-4-carbonitrile, 4\u2032-pentyl-", "4\u2032-Pentyl[1,1\u2032-biphenyl]-4-carbonitrile", "4\u2032-n-Pentyl-4-biphenylcarbonitrile", "4-Cyano-4\u2032-pentylbiphenyl", "Pentyl cyanobiphenyl", "p\u2032-Cyano-p-pentylbiphenyl", "4\u2032-n-Pentyl-4-cyanobiphenyl", "4,4\u2032-n-Pentylcyanobiphenyl", "4\u2032-Pentyl-4-biphenylcarbonitrile", "4\u2032-Amyl-4-cyanobiphenyl", "4-Pentyl-4\u2032-cyanobiphenyl", "p-Pentyl-p\u2032-cyanobiphenyl", "4-Cyano-4\u2032-n-pentylbiphenyl", "4-Amyl-4\u2032-cyanobiphenyl", "5CB", "p-n-Amylbenzylidene-p\u2032-cyanoaniline", "p-Cyano-p\u2032-pentylbiphenyl", "4-n-Pentyl-4\u2032-cyanobiphenyl", "4-n-Amyl-4\u2032-cyanobiphenyl", "p-n-Pentyl-p\u2032-cyanobiphenyl", "p-Amyl-p\u2032-cyanobiphenyl", "CPB", "CB 5", "K 15 (liquid crystal)", "K 15", "5BF", "4\u2032-Cyano-4-pentylbiphenyl", "PCB (liquid crystal)", "4-Cyano-4\u2032-pentyl-1,1\u2032-biphenyl", "4-Cyano-4\u2032-pentyldiphenyl", "4-Cyano-4\u2032-n-pentyldiphenyl", "BDH-K 15", "5TsB", "LC 5CB", "CB 5 (liquid crystal)", "4\u2032-Pentyl-4-cyanobiphenyl", "4-Cyano-4\u2032-n-pentyl-1,1\u2032-biphenyl", "C 1550", "5-BB-C", "5CB (liquid crystal)"], "SMILES": "C(CCCC)C1=CC=C(C=C1)C2=CC=C(C#N)C=C2", "physical_data": {"Molecular Weight": "249.35", "Molecular Formula": "C18H19N", "Boiling Point": "178-182 \u00b0C @ Press: 2 Torr", "Melting Point": "24 \u00b0C", "Density": "1.0065 g/cm\u00b3"}}