{"cas_no": "40811-49-2", "cn_name": "2-\u7f9f\u57fa\u4e59\u57fa\u5f02\u4e19\u57fa\u786b\u919a", "en_name": ["2-[(1-Methylethyl)thio]ethanol", "Ethanol, 2-[(1-methylethyl)thio]-", "Ethanol, 2-(isopropylthio)-", "2-[(1-Methylethyl)thio]ethanol", "2-(Isopropylthio)ethanol", "2-[(1-Methyl)ethylthio]ethanol", "NSC 403991", "Isopropylthioethanol", "2-(Propan-2-ylsulfanyl)ethan-1-ol", "2-Propan-2-ylsulfanylethanol"], "SMILES": "S(C(C)C)CCO", "physical_data": {"Molecular Weight": "120.21", "Molecular Formula": "C5H12OS", "Boiling Point": "82-83 \u00b0C @ Press: 12 Torr", "Density": "0.9613 g/cm\u00b3 @ Temp: 20 \u00b0C"}}