{"cas_no": "40828-54-4", "cn_name": "1H-\u82ef\u5e76\u54aa\u5511-2-\u78fa\u9178", "en_name": ["1H-Benzimidazole-2-sulfonic acid", "1H-Benzimidazole-2-sulfonic acid", "2-Benzimidazolesulfonic acid", "1H-Benzoimidazole-2-sulfonic acid", "1H-1,3-Benzodiazole-2-sulfonic acid"], "SMILES": "S(=O)(=O)(O)C=1NC=2C(N1)=CC=CC2", "physical_data": {"Molecular Weight": "198.20", "Molecular Formula": "C7H6N2O3S", "Melting Point": "365 \u00b0C"}}