{"cas_no": "40828-46-4", "cn_name": "\u8212\u6d1b\u82ac", "en_name": ["Suprofen", "Benzeneacetic acid, \u03b1-methyl-4-(2-thienylcarbonyl)-", "\u03b1-Methyl-4-(2-thienylcarbonyl)benzeneacetic acid", "Suprofen", "R 25061", "TN 762", "Profenal", "Racemic suprofen", "(\u00b1)-Suprofen", "Profenol", "Sulproltin", "Srendam", "Masterfen", "Topalgic", "Sutoprofen", "Suprol", "Supranol", "Suprocil", "NSC 303611", "2-[4-(Thiophene-2-carbonyl)phenyl]propanoic acid", "p-(2-Thenoyl)hydratropic acid", "MeSH ID: D013496"], "SMILES": "C(=O)(C1=CC=C(C(C(O)=O)C)C=C1)C2=CC=CS2", "physical_data": {"Molecular Weight": "260.31", "Molecular Formula": "C14H12O3S", "Melting Point": "124.3 \u00b0C", "Density": "1.37 g/cm\u00b3"}}