{"cas_no": "40835-96-9", "cn_name": "2-\u80fa\u57fa\u8418\u5d4c\u95f4\u4e8c\u6c2e(\u6742)\u82ef\u6c2f\u5316\u6c22", "en_name": ["1H-Perimidin-2-amine, hydrobromide (1:1)", "1H-Perimidin-2-amine, hydrobromide (1:1)", "1H-Perimidin-2-amine, monohydrobromide", "Perimidylammonium bromide", "2-Aminoperimidine hydrobromide", "2-Perimidylammonium bromide", "2-Aminoperimidinium bromide", "1H-Perimidin-2-amine hydrobromide"], "SMILES": "NC=1NC=2C=3C(N1)=CC=CC3C=CC2.Br", "physical_data": {"Molecular Weight": "", "Molecular Formula": "C11H9N3.BrH", "Melting Point": "265 \u00b0C"}}