{"cas_no": "4083-64-1", "cn_name": "\u5bf9\u7532\u57fa\u82ef\u78fa\u9170\u5f02\u6c30\u9178\u916f", "en_name": ["p-Toluenesulfonyl isocyanate", "Benzenesulfonyl isocyanate, 4-methyl-", "p-Toluenesulfonic acid, anhydride with isocyanic acid", "Isocyanic acid, anhydride with p-toluenesulfonic acid", "4-Methylbenzenesulfonyl isocyanate", "p-Toluenesulfonyl isocyanate", "4-Toluenesulfonyl isocyanate", "p-Tosyl isocyanate", "p-Methylphenylsulfonyl isocyanate", "4-Methylphenylsulfonyl isocyanate", "Tosyl isocyanate", "p-Methylbenzenesulfonyl isocyanate", "Additive TI", "PTSI", "Toluenesulfonyl isocyanate", "4-Toluolsulfonyl isocyanate", "HK-additive TI", "TI", "Dow TI", "4-Methylbenzene-1-sulfonyl isocyanate"], "SMILES": "S(N=C=O)(=O)(=O)C1=CC=C(C)C=C1", "physical_data": {"Molecular Weight": "197.21", "Molecular Formula": "C8H7NO3S", "Boiling Point": "114-116 \u00b0C @ Press: 0.3-0.5 Torr", "Melting Point": "188-189 \u00b0C"}}