{"cas_no": "40834-42-2", "cn_name": "4-\u7532\u57fa-5-\u7f9f\u57fa\u544b\u5583-2-\u916e", "en_name": ["5-Hydroxy-4-methyl-2(5H)-furanone", "2(5H)-Furanone, 5-hydroxy-4-methyl-", "5-Hydroxy-4-methyl-2(5H)-furanone", "4-Hydroxy-3-methylbut-2-en-4-olide", "4-Methyl-5-hydroxy-2(5H)-furanone", "5-Hydroxy-4-methyl-5H-furan-2-one", "\u03b3-Hydroxy-\u03b2-methylbutenolide", "2-Hydroxy-3-methyl-2H-furan-5-one"], "SMILES": "CC=1C(O)OC(=O)C1", "physical_data": {"Molecular Weight": "114.10", "Molecular Formula": "C5H6O3", "Boiling Point": "113 \u00b0C @ Press: 0.05 Torr"}}