{"cas_no": "408492-27-3", "cn_name": "2,6-\u4e8c\u6c2f\u5421\u5576-4-\u787c\u9178\u9891\u54ea\u9187\u916f", "en_name": ["2,6-Dichloro-4-(4,4,5,5-tetramethyl-1,3,2-dioxaborolan-2-yl)pyridine", "Pyridine, 2,6-dichloro-4-(4,4,5,5-tetramethyl-1,3,2-dioxaborolan-2-yl)-", "2,6-Dichloro-4-(4,4,5,5-tetramethyl-1,3,2-dioxaborolan-2-yl)pyridine", "2-(2,6-Dichloro-4-pyridinyl)-4,4,5,5-tetramethyl-1,3,2-dioxaborolane", "2,6-Dichloro-4-(pinacolboryl)pyridine", "2,6-Dichloro-4-(4,4,5,5\u2032-tetramethyl-1,3,2-dioxaborolan-2-yl)pyridine", "2,6-Dichloro-4-(tetramethyl-1,3,2-dioxaborolan-2-yl)pyridine", "2,6-Dichloropyridine-4-boronic acid pinacol ester", "(2,6-Dichloropyridin-4-yl)boronic acid pinacol ester"], "SMILES": "CC1(C)OB(OC1(C)C)C=2C=C(Cl)N=C(Cl)C2", "physical_data": {"Molecular Weight": "273.95", "Molecular Formula": "C11H14BCl2NO2", "Melting Point": "118-119 \u00b0C"}}