{"cas_no": "40843-25-2", "cn_name": "\u79be\u8349\u7075", "en_name": ["Diclofop", "Propanoic acid, 2-[4-(2,4-dichlorophenoxy)phenoxy]-", "2-[4-(2,4-Dichlorophenoxy)phenoxy]propanoic acid", "Dichlorfop acid", "2-[4-(2\u2032,4\u2032-Dichlorophenoxy)phenoxy]propionic acid", "HOE 21079", "Diclofop", "Diclofop acid", "(\u00b1)-Diclofop"], "SMILES": "O(C1=C(Cl)C=C(Cl)C=C1)C2=CC=C(OC(C(O)=O)C)C=C2", "physical_data": {"Molecular Weight": "327.16", "Molecular Formula": "C15H12Cl2O4", "Melting Point": "120 \u00b0C"}}