{"cas_no": "40856-44-8", "cn_name": "(S)-3-\u6c28\u57fa-3-\u82ef\u57fa\u4e19\u9178", "en_name": ["(-)-3-Amino-3-phenylpropanoic acid", "Benzenepropanoic acid, \u03b2-amino-, (\u03b2S)-", "Benzenepropanoic acid, \u03b2-amino-, (S)-", "(\u03b2S)-\u03b2-Aminobenzenepropanoic acid", "(S)-3-Amino-3-phenylpropionic acid", "(-)-\u03b2-Aminobenzenepropanoic acid", "(-)-3-Amino-3-phenylpropanoic acid", "D-3-Amino-3-phenylpropionic acid", "(S)-3-Amino-3-phenylpropanoic acid", "(S)-\u03b2-Phenylalanine", "(3S)-3-Amino-3-phenylpropanoic acid"], "SMILES": "C(CC(O)=O)(N)C1=CC=CC=C1", "physical_data": {"Molecular Weight": "165.19", "Molecular Formula": "C9H11NO2", "Melting Point": "251-253 \u00b0C"}}