{"cas_no": "40851-98-7", "cn_name": "5-\u6c2f-1H-\u54aa\u5511[4,5-B]\u5421\u5576-2(3H)-\u916e", "en_name": ["5-Chloro-1,3-dihydro-2H-imidazo[4,5-b]pyridin-2-one", "2H-Imidazo[4,5-b]pyridin-2-one, 5-chloro-1,3-dihydro-", "5-Chloro-1,3-dihydro-2H-imidazo[4,5-b]pyridin-2-one"], "SMILES": "O=C1NC=2C(N1)=NC(Cl)=CC2", "physical_data": {"Molecular Weight": "169.57", "Molecular Formula": "C6H4ClN3O", "Melting Point": "374 \u00b0C"}}