{"cas_no": "40851-65-8", "cn_name": "2-\u6c28\u57fa\u7532\u57fa\u82ef\u4e59\u9178", "en_name": ["2-Aminomethylphenylacetic acid", "Benzeneacetic acid, 2-(aminomethyl)-", "Acetic acid, (\u03b1-amino-o-tolyl)-", "2-(Aminomethyl)benzeneacetic acid", "o-(Aminomethyl)phenylacetic acid", "2-Aminomethylphenylacetic acid", "2-[2-(Aminomethyl)phenyl]acetic acid"], "SMILES": "C(C(O)=O)C1=C(CN)C=CC=C1", "physical_data": {"Molecular Weight": "165.19", "Molecular Formula": "C9H11NO2", "Melting Point": "202 \u00b0C (decomp)"}}