{"cas_no": "4086-73-1", "cn_name": "\u6c2f\u5316N-\u8f9b\u57fa\u5421\u5576", "en_name": ["Octylpyridinium chloride", "Pyridinium, 1-octyl-, chloride (1:1)", "Pyridinium, 1-octyl-, chloride", "1-Octylpyridinium chloride", "Octylpyridinium chloride", "N-Octylpyridinium chloride"], "SMILES": "C(CCCCCCC)[N+]=1C=CC=CC1.[Cl-]", "physical_data": {"Molecular Weight": "", "Molecular Formula": "C13H22N.Cl", "Melting Point": "118-121 \u00b0C"}}