{"cas_no": "40876-94-6", "cn_name": "N-\u4e59\u57fa-2-\u7532\u57fa\u5432\u54da", "en_name": ["1-Ethyl-2-methyl-1H-indole", "1H-Indole, 1-ethyl-2-methyl-", "Indole, 1-ethyl-2-methyl-", "1-Ethyl-2-methyl-1H-indole", "1-Ethyl-2-methylindole", "N-Ethyl-2-methylindole"], "SMILES": "C(C)N1C=2C(C=C1C)=CC=CC2", "physical_data": {"Molecular Weight": "159.23", "Molecular Formula": "C11H13N", "Boiling Point": "85-90 \u00b0C @ Press: 0.08 Torr"}}