{"cas_no": "40877-19-8", "cn_name": "4-\u6c2f-4'-\u7532\u6c27\u57fa\u82ef\u4e01\u916e", "en_name": ["4-Chloro-1-(4-methoxyphenyl)-1-butanone", "1-Butanone, 4-chloro-1-(4-methoxyphenyl)-", "Butyrophenone, 4-chloro-4\u2032-methoxy-", "4-Chloro-1-(4-methoxyphenyl)-1-butanone", "4-Chloro-4\u2032-methoxybutyrophenone", "3-Chloropropyl 4-methoxyphenyl ketone", "4-Methoxyphenyl 3-chloropropyl ketone", "NSC 73121", "4\u2032-Methoxy-4-chlorobutyrophenone"], "SMILES": "C(CCCCl)(=O)C1=CC=C(OC)C=C1", "physical_data": {"Molecular Weight": "212.67", "Molecular Formula": "C11H13ClO2", "Boiling Point": "175 \u00b0C @ Press: 6 Torr", "Melting Point": "28.5-30 \u00b0C"}}