{"cas_no": "40877-09-6", "cn_name": "4,4'-\u4e8c\u6c2f\u82ef\u4e01\u916e", "en_name": ["4-Chloro-1-(4-chlorophenyl)-1-butanone", "1-Butanone, 4-chloro-1-(4-chlorophenyl)-", "Butyrophenone, 4,4\u2032-dichloro-", "4-Chloro-1-(4-chlorophenyl)-1-butanone", "4,4\u2032-Dichlorobutyrophenone", "4-Chlorophenyl 3-chloropropyl ketone"], "SMILES": "C(CCCCl)(=O)C1=CC=C(Cl)C=C1", "physical_data": {"Molecular Weight": "217.09", "Molecular Formula": "C10H10Cl2O", "Boiling Point": "153-155 \u00b0C @ Press: 2 Torr", "Melting Point": "28-31 \u00b0C", "Density": "1.2575 g/cm\u00b3 @ Temp: 20 \u00b0C"}}