{"cas_no": "4088-22-6", "cn_name": "\u53cc\u5341\u516b\u70f7\u57fa\u7532\u57fa\u53d4\u80fa", "en_name": ["Dioctadecylmethylamine", "1-Octadecanamine, N-methyl-N-octadecyl-", "Dioctadecylamine, N-methyl-", "N-Methyl-N-octadecyl-1-octadecanamine", "Distearylmethylamine", "N-Methyl-N,N-dioctadecylamine", "N-Methyldioctadecylamine", "N,N-Dioctadecylmethylamine", "Methyldistearylamine", "Distearyl-N-methylamine", "Methyldioctadecylamine", "Dioctadecylmethylamine", "Armeen M 2-18", "N,N-Dioctadecyl-N-methylamine", "Radiamine 6346", "Methylbis(octadecyl)amine", "Hydrogen ionophore III", "Di(n-octadecyl)methylamine"], "SMILES": "C(N(CCCCCCCCCCCCCCCCCC)C)CCCCCCCCCCCCCCCCC", "physical_data": {"Molecular Weight": "536.01", "Molecular Formula": "C37H77N", "Boiling Point": "251 \u00b0C @ Press: 0.7 Torr"}}