{"cas_no": "4089-07-0", "cn_name": "L-\u916a\u6c28\u9178\u4e59\u916f\u76d0\u9178\u76d0", "en_name": ["L-Tyrosine, ethyl ester, hydrochloride (1:1)", "L-Tyrosine, ethyl ester, hydrochloride (1:1)", "Tyrosine, ethyl ester, hydrochloride, L-", "L-Tyrosine, ethyl ester, hydrochloride", "Ethyl L-tyrosinate hydrochloride", "(S)-Tyrosine ethyl ester hydrochloride", "NSC 17141", "(2S)-1-Ethoxy-3-(4-hydroxyphenyl)-1-oxopropan-2-aminium chloride"], "SMILES": "C(C(C(OCC)=O)N)C1=CC=C(O)C=C1.Cl", "physical_data": {"Molecular Weight": "", "Molecular Formula": "C11H15NO3.ClH", "Melting Point": "167-170 \u00b0C"}}