{"cas_no": "4090-55-5", "cn_name": "5,5-\u4e8c\u7532\u57fa-2-\u6c2f-1,3,2-\u4e8c\u6c27\u78f7\u6742\u5df1\u5185\u9170\u78f7\u9178\u916f", "en_name": ["1,3,2-Dioxaphosphorinane, 2-chloro-5,5-dimethyl-, 2-oxide", "1,3,2-Dioxaphosphorinane, 2-chloro-5,5-dimethyl-, 2-oxide", "Phosphorochloridic acid, cyclic 2,2-dimethyltrimethylene ester", "1,3-Propanediol, 2,2-dimethyl-, cyclic phosphorochloridate", "5,5-Dimethyl-2-chloro-2-oxo-1,3,2-dioxaphosphorinane", "2-Chloro-2-oxo-5,5-dimethyl-1,3,2-dioxaphosphorinane", "2-Chloro-5,5-dimethyl-1,3,2-dioxaphosphorinan-2-one", "2-Chloro-5,5-dimethyl-1,3,2-dioxaphosphorinane 2-oxide", "Cyclic 2,2-dimethyltrimethylene phosphorochloridate", "2-Chloro-5,5-dimethyl-2-oxodioxaphosphorinane", "2-Chloro-5,5-dimethyl-2-oxo-1,3,2-dioxaphosphorinane", "Cyclic 2,2-dimethyl-1,3-propanediol phosphoryl chloride", "2-Chloro-5,5-dimethyl-1,3,2-dioxaphosphinane 2-oxide", "2,2-Dimethyltrimethylene phosphorochloridate", "DMOCP", "2-Chloro-5,5-dimethyl-1,3,2\u03bb5-dioxaphosphinan-2-one"], "SMILES": "CC1(C)COP(Cl)(=O)OC1", "physical_data": {"Molecular Weight": "184.56", "Molecular Formula": "C5H10ClO3P", "Melting Point": "104.5-106.0 \u00b0C", "Density": "1.416 g/cm\u00b3"}}