{"cas_no": "4090-17-9", "cn_name": "\u6c2f\u4e59\u9170\u57fa-DL-\u7f2c\u6c28\u9178", "en_name": ["N-(2-Chloroacetyl)valine", "Valine, N-(2-chloroacetyl)-", "Valine, N-(chloroacetyl)-, DL-", "Valine, N-(chloroacetyl)-", "DL-Valine, N-(chloroacetyl)-", "N-(2-Chloroacetyl)valine", "N-Chloroacetyl-DL-valine", "NSC 401063", "2-[(2-Chloroacetyl)amino]-3-methylbutanoic acid", "2-(2-Chloroacetamido)-3-methylbutanoic acid"], "SMILES": "C(NC(CCl)=O)(C(C)C)C(O)=O", "physical_data": {"Molecular Weight": "193.63", "Molecular Formula": "C7H12ClNO3", "Melting Point": "129.5-130.5 \u00b0C"}}