{"cas_no": "4091-39-8", "cn_name": "3-\u6c2f-2-\u4e01\u916e", "en_name": ["3-Chloro-2-butanone", "2-Butanone, 3-chloro-", "3-Chloro-2-butanone", "3-Chlorobutanone", "1-Chloroethyl methyl ketone", "2-Chloro-3-butanone", "(\u00b1)-3-Chloro-2-butanone"], "SMILES": "C(C(C)=O)(C)Cl", "physical_data": {"Molecular Weight": "106.55", "Molecular Formula": "C4H7ClO", "Boiling Point": "115 \u00b0C", "Melting Point": "108-111 \u00b0C", "Density": "1.063 g/cm\u00b3 @ Temp: 12 \u00b0C"}}