{"cas_no": "4091-50-3", "cn_name": "N-\u7532\u57fa-4-\u7532\u6c27\u57fa-\u0392-\u82ef\u4e59\u80fa", "en_name": ["4-Methoxy-N-methylbenzeneethanamine", "Benzeneethanamine, 4-methoxy-N-methyl-", "Phenethylamine, p-methoxy-N-methyl-", "4-Methoxy-N-methylbenzeneethanamine", "p-Methoxy-N-methylphenethylamine", "(p-Methoxyphenethyl)methylamine", "N-Methyl-4-methoxyphenethylamine", "N-Methyl-4-methoxy-\u03b2-phenethylamine", "4-Methoxy-N-methylphenethylamine", "N-(p-Methoxyphenethyl)methylamine", "N-Methyl-N-(4-methoxyphenethyl)amine", "N-Methyl-2-(4-methoxyphenyl)ethylamine", "N-Methyl-\u03b2-(4-methoxyphenyl)ethylamine", "[2-(4-Methoxyphenyl)ethyl]methylamine", "N-Methyl-(p-methoxyphenethyl)amine", "2-(4-Methoxyphenyl)-N-methylethanamine"], "SMILES": "C(CNC)C1=CC=C(OC)C=C1", "physical_data": {"Molecular Weight": "165.23", "Molecular Formula": "C10H15NO", "Boiling Point": "258-259 \u00b0C @ Press: 760 Torr"}}