{"cas_no": "40915-37-5", "cn_name": "3,4-\u4e8c\u6c22-2H-\u5421\u5583-5-\u7fa7\u9178", "en_name": ["3,4-Dihydro-2H-pyran-5-carboxylic acid", "2H-Pyran-5-carboxylic acid, 3,4-dihydro-", "3,4-Dihydro-2H-pyran-5-carboxylic acid", "2,3-Dihydro-pyran-5-carboxylic acid"], "SMILES": "C(O)(=O)C=1CCCOC1", "physical_data": {"Molecular Weight": "128.13", "Molecular Formula": "C6H8O3", "Melting Point": "72-74 \u00b0C"}}