{"cas_no": "40925-70-0", "cn_name": "2-\u6c28\u57fa-5-\u7532\u6c27\u57fa\u82ef\u915a", "en_name": ["2-Amino-5-methoxyphenol", "Phenol, 2-amino-5-methoxy-", "2-Amino-5-methoxyphenol", "5-Methoxy-2-aminophenol", "2-Hydroxy-4-methoxyaniline"], "SMILES": "O(C)C1=CC(O)=C(N)C=C1", "physical_data": {"Molecular Weight": "139.15", "Molecular Formula": "C7H9NO2", "Melting Point": "128-131 \u00b0C"}}