{"cas_no": "40925-72-2", "cn_name": "2-\u6c28\u57fa-3-\u6c2f\u567b\u5429", "en_name": ["2-Amino-3-chlorobenzenethiol", "Benzenethiol, 2-amino-3-chloro-", "2-Amino-3-chlorobenzenethiol", "2-Amino-3-chlorothiophenol", "6-Chloro-2-mercaptoaniline", "2-Amino-3-chlorobenzene-1-thiol"], "SMILES": "NC1=C(Cl)C=CC=C1S", "physical_data": {"Molecular Weight": "159.64", "Molecular Formula": "C6H6ClNS", "Melting Point": "78 \u00b0C"}}