{"cas_no": "4093-35-0", "cn_name": "\u6eb4\u706d\u5410\u7075", "en_name": ["Bromopride", "Benzamide, 4-amino-5-bromo-N-[2-(diethylamino)ethyl]-2-methoxy-", "o-Anisamide, 4-amino-5-bromo-N-[2-(diethylamino)ethyl]-", "4-Amino-5-bromo-N-[2-(diethylamino)ethyl]-2-methoxybenzamide", "N-Diethylaminoethyl-2-methoxy-4-amino-5-bromobenzamide", "2-Methoxy-4-amino-5-bromo-N,N-diethylaminoethylbenzamide", "Bromopride", "Viadil", "Emepride", "Emoril"], "SMILES": "C(NCCN(CC)CC)(=O)C1=C(OC)C=C(N)C(Br)=C1", "physical_data": {"Molecular Weight": "344.25", "Molecular Formula": "C14H22BrN3O2", "Melting Point": "149 \u00b0C"}}