{"cas_no": "4093-89-4", "cn_name": "2-\u7532\u57fa\u6c28\u57fa-5-\u785d\u57fa\u5421\u5576", "en_name": ["N-Methyl-5-nitro-2-pyridinamine", "2-Pyridinamine, N-methyl-5-nitro-", "Pyridine, 2-(methylamino)-5-nitro-", "N-Methyl-5-nitro-2-pyridinamine", "3-Nitro-6-methylaminopyridine", "NSC 102502", "2-(Methylamino)-5-nitropyridine", "N-Methyl-5-nitropyridin-2-amine"], "SMILES": "N(=O)(=O)C=1C=CC(NC)=NC1", "physical_data": {"Molecular Weight": "153.14", "Molecular Formula": "C6H7N3O2", "Melting Point": "181 \u00b0C"}}