{"cas_no": "409345-29-5", "cn_name": "CS-2455", "en_name": ["(3,4-Dihydro-2H-pyrano[2,3-b]quinolin-7-yl)(cis-4-methoxycyclohexyl)methanone", "Methanone, (3,4-dihydro-2H-pyrano[2,3-b]quinolin-7-yl)(cis-4-methoxycyclohexyl)-", "(3,4-Dihydro-2H-pyrano[2,3-b]quinolin-7-yl)(cis-4-methoxycyclohexyl)methanone", "JNJ 16259685"], "SMILES": "C(=O)(C1=CC2=C(N=C3C(=C2)CCCO3)C=C1)C4CCC(OC)CC4", "physical_data": {"Molecular Weight": "325.40", "Molecular Formula": "C20H23NO3", "Melting Point": "115 \u00b0C"}}