{"cas_no": "4093-28-1", "cn_name": "\u5bf9\u4e59\u9170\u6c28\u57fa-\u90bb\u7532\u6c27\u57fa\u82ef\u7532\u9178\u7532\u916f", "en_name": ["Benzoic acid, 4-(acetylamino)-2-hydroxy-, methyl ester", "Benzoic acid, 4-(acetylamino)-2-hydroxy-, methyl ester", "Salicylic acid, 4-acetamido-, methyl ester", "Methyl 4-acetamido-2-hydroxybenzoate", "Methyl 4-acetamidosalicylate", "4-(Acetylamino)-2-hydroxybenzoic acid methyl ester", "Methyl 4-(acetylamino)-2-hydroxybenzoate", "Methyl 2-hydroxy-4-acetamidobenzoate", "Methyl 2-hydroxy-4-(acetylamino)benzoate", "Methyl 4-(acetylamino)salicylate", "4-Acetylaminosalicylic acid methyl ester"], "SMILES": "C(OC)(=O)C1=C(O)C=C(NC(C)=O)C=C1", "physical_data": {"Molecular Weight": "209.20", "Molecular Formula": "C10H11NO4", "Melting Point": "150 \u00b0C"}}