{"cas_no": "4093-31-6", "cn_name": "4-\u4e59\u9170\u6c28\u57fa-5-\u6c2f-2-\u7532\u6c27\u57fa\u82ef\u7532\u9178\u916f", "en_name": ["Methyl 4-acetamido-5-chloro-2-methoxybenzoate", "Benzoic acid, 4-(acetylamino)-5-chloro-2-methoxy-, methyl ester", "o-Anisic acid, 4-acetamido-5-chloro-, methyl ester", "Methyl 4-acetamido-5-chloro-o-anisate", "Methyl 2-methoxy-4-acetamido-5-chlorobenzoate", "Methyl 2-methoxy-4-acetylamino-5-chlorobenzoate", "Methyl 4-acetamido-5-chloro-2-methoxybenzoate", "4-Acetamido-5-chloro-2-methoxybenzoic acid methyl ester", "Methyl 4-acetylamino-5-chloro-2-methoxybenzoate", "4-Acetylamino-5-chloro-2-methoxybenzoic acid methyl ester", "Methyl 4-(acetylamino)-5-chloro-2-(methyloxy)benzoate"], "SMILES": "C(OC)(=O)C1=C(OC)C=C(NC(C)=O)C(Cl)=C1", "physical_data": {"Molecular Weight": "257.67", "Molecular Formula": "C11H12ClNO4", "Melting Point": "153 \u00b0C"}}