{"cas_no": "4093-34-9", "cn_name": "2-\u7532\u6c27\u57fa-4-\u4e59\u9170\u80fa\u57fa-5-\u6eb4\u82ef\u7532\u9178\u7532\u916f", "en_name": ["Methyl 4-(acetylamino)-5-bromo-2-methoxybenzoate", "Benzoic acid, 4-(acetylamino)-5-bromo-2-methoxy-, methyl ester", "o-Anisic acid, 4-acetamido-5-bromo-, methyl ester", "Methyl 4-(acetylamino)-5-bromo-2-methoxybenzoate", "Methyl 4-acetamido-5-bromo-2-methoxybenzoate"], "SMILES": "C(OC)(=O)C1=C(OC)C=C(NC(C)=O)C(Br)=C1", "physical_data": {"Molecular Weight": "302.12", "Molecular Formula": "C11H12BrNO4", "Melting Point": "174 \u00b0C"}}