{"cas_no": "40932-60-3", "cn_name": "3,5,6-\u4e09\u6c2f\u6c34\u6768\u9178", "en_name": ["2,3,5-Trichloro-6-hydroxybenzoic acid", "Benzoic acid, 2,3,5-trichloro-6-hydroxy-", "Salicylic acid, 3,5,6-trichloro-", "2,3,5-Trichloro-6-hydroxybenzoic acid", "3,5,6-Trichlorosalicylic acid", "3,5,6-Trichloro-2-hydroxybenzoic acid"], "SMILES": "C(O)(=O)C1=C(Cl)C(Cl)=CC(Cl)=C1O", "physical_data": {"Molecular Weight": "241.46", "Molecular Formula": "C7H3Cl3O3", "Melting Point": "207 \u00b0C"}}