{"cas_no": "4093-41-8", "cn_name": "4-\u4e59\u9170\u80fa\u57fa-2-\u7532\u6c27\u57fa-5-\u785d\u57fa\u82ef\u7532\u9178\u7532\u916f", "en_name": ["Methyl 4-acetylamino-2-methoxy-5-nitrobenzoate", "Benzoic acid, 4-(acetylamino)-2-methoxy-5-nitro-, methyl ester", "o-Anisic acid, 4-acetamido-5-nitro-, methyl ester", "Methyl 2-methoxy-4-acetamido-5-nitrobenzoate", "Methyl 4-acetylamino-2-methoxy-5-nitrobenzoate", "4-Acetylamino-2-methoxy-5-nitrobenzoic acid methyl ester", "Methyl 4-acetamido-2-methoxy-5-nitrobenzoate"], "SMILES": "C(OC)(=O)C1=C(OC)C=C(NC(C)=O)C(N(=O)=O)=C1", "physical_data": {"Molecular Weight": "268.22", "Molecular Formula": "C11H12N2O6", "Melting Point": "163-165 \u00b0C"}}