{"cas_no": "4093-29-2", "cn_name": "4-\u4e59\u9170\u6c28\u57fa-2-\u7532\u6c27\u57fa\u82ef\u7532\u9178\u7532\u916f", "en_name": ["Benzoic acid, 4-(acetylamino)-2-methoxy-, methyl ester", "Benzoic acid, 4-(acetylamino)-2-methoxy-, methyl ester", "o-Anisic acid, 4-acetamido-, methyl ester", "4-Acetamido-2-methoxybenzoic acid, methyl ester", "Methyl 4-acetamido-2-methoxybenzoate", "Methyl 4-acetylamino-2-methoxybenzoate"], "SMILES": "C(OC)(=O)C1=C(OC)C=C(NC(C)=O)C=C1", "physical_data": {"Molecular Weight": "223.23", "Molecular Formula": "C11H13NO4", "Melting Point": "127 \u00b0C"}}