{"cas_no": "40951-69-7", "cn_name": "\u7d2b\u6749\u8102\u7d20", "en_name": ["Taxiresinol", "1,2-Benzenediol, 4-[(2S,3R,4R)-tetrahydro-4-[(4-hydroxy-3-methoxyphenyl)methyl]-3-(hydroxymethyl)-2-furanyl]-", "4-[(2S,3R,4R)-Tetrahydro-4-[(4-hydroxy-3-methoxyphenyl)methyl]-3-(hydroxymethyl)-2-furanyl]-1,2-benzenediol", "Taxiresinol", "(+)-Taxiresinol"], "SMILES": "C(O)C1C(OCC1CC2=CC(OC)=C(O)C=C2)C3=CC(O)=C(O)C=C3", "physical_data": {"Molecular Weight": "346.37", "Molecular Formula": "C19H22O6", "Melting Point": "157-158 \u00b0C"}}