{"cas_no": "40957-99-1", "cn_name": "\u76ae\u6811\u8102\u9187", "en_name": ["(+)-Medioresinol", "Phenol, 2,6-dimethoxy-4-[(1S,3aR,4S,6aR)-tetrahydro-4-(4-hydroxy-3-methoxyphenyl)-1H,3H-furo[3,4-c]furan-1-yl]-", "Phenol, 2,6-dimethoxy-4-[tetrahydro-4-(4-hydroxy-3-methoxyphenyl)-1H,3H-furo[3,4-c]furan-1-yl]-, [1S-(1\u03b1,3a\u03b1,4\u03b1,6a\u03b1)]-", "1H,3H-Furo[3,4-c]furan, phenol deriv.", "2,6-Dimethoxy-4-[(1S,3aR,4S,6aR)-tetrahydro-4-(4-hydroxy-3-methoxyphenyl)-1H,3H-furo[3,4-c]furan-1-yl]phenol", "Medioresinol", "(+)-Medioresinol", "(+)-Mediaresinol"], "SMILES": "O(C)C=1C=C(C2C3C(C(OC3)C4=CC(OC)=C(O)C=C4)CO2)C=C(OC)C1O", "physical_data": {"Molecular Weight": "388.41", "Molecular Formula": "C21H24O7", "Melting Point": "170-172 \u00b0C"}}