{"cas_no": "40957-83-3", "cn_name": "\u9ec4\u8c46\u9ec4\u7d20", "en_name": ["Glycitein", "4H-1-Benzopyran-4-one, 7-hydroxy-3-(4-hydroxyphenyl)-6-methoxy-", "7-Hydroxy-3-(4-hydroxyphenyl)-6-methoxy-4H-1-benzopyran-4-one", "Glycitein", "Glycetein", "7,4\u2032-Dihydroxy-6-methoxyisoflavone", "Glycitin aglycon"], "SMILES": "O=C1C=2C(=CC(O)=C(OC)C2)OC=C1C3=CC=C(O)C=C3", "physical_data": {"Molecular Weight": "284.26", "Molecular Formula": "C16H12O5", "Melting Point": "178-180 \u00b0C"}}