{"cas_no": "4096-20-2", "cn_name": "N-\u82ef\u57fa\u54cc\u5576", "en_name": ["N-Phenylpiperidine", "Piperidine, 1-phenyl-", "1-Phenylpiperidine", "N-Phenylpiperidine", "NSC 53427"], "SMILES": "C1(=CC=CC=C1)N2CCCCC2", "physical_data": {"Molecular Weight": "161.24", "Molecular Formula": "C11H15N", "Boiling Point": "258 \u00b0C", "Melting Point": "4.7 \u00b0C"}}