{"cas_no": "4096-21-3", "cn_name": "1-\u82ef\u57fa\u5421\u54af\u70f7", "en_name": ["1-Phenylpyrrolidine", "Pyrrolidine, 1-phenyl-", "1-Phenylpyrrolidine", "N-Phenylpyrrolidine", "Pyrrolidinobenzene", "NSC 53425", "N-Phenylpyrolidine"], "SMILES": "N1(CCCC1)C2=CC=CC=C2", "physical_data": {"Molecular Weight": "147.22", "Molecular Formula": "C10H13N", "Boiling Point": "119-120 \u00b0C", "Melting Point": "101-102 \u00b0C", "Density": "1.0260 g/cm\u00b3 @ Temp: 25 \u00b0C"}}