{"cas_no": "4097-49-8", "cn_name": "4-\u53d4\u4e01\u57fa-2,6-\u4e8c\u785d\u57fa\u82ef\u915a", "en_name": ["4-tert-Butyl-2,6-dinitrophenol", "Phenol, 4-(1,1-dimethylethyl)-2,6-dinitro-", "Phenol, 4-tert-butyl-2,6-dinitro-", "4-(1,1-Dimethylethyl)-2,6-dinitrophenol", "2,6-Dinitro-p-(tert-butyl)phenol", "2,6-Dinitro-4-tert-butylphenol", "4-tert-Butyl-2,6-dinitrophenol", "NSC 21491"], "SMILES": "N(=O)(=O)C1=C(O)C(N(=O)=O)=CC(C(C)(C)C)=C1", "physical_data": {"Molecular Weight": "240.21", "Molecular Formula": "C10H12N2O5", "Melting Point": "94-96 \u00b0C"}}