{"cas_no": "4097-22-7", "cn_name": "2',3'-\u53cc\u8131\u6c27\u817a\u82f7", "en_name": ["Dideoxyadenosine", "Adenosine, 2\u2032,3\u2032-dideoxy-", "2\u2032,3\u2032-Dideoxyadenosine", "Dideoxyadenosine", "NSC 98700", "NQZ-047"], "SMILES": "NC1=C2C(N(C=N2)C3OC(CO)CC3)=NC=N1", "physical_data": {"Molecular Weight": "235.24", "Molecular Formula": "C10H13N5O2", "Melting Point": "184-186 \u00b0C"}}