{"cas_no": "4097-89-6", "cn_name": "\u4e09(2-\u6c28\u57fa\u4e59\u57fa)\u80fa", "en_name": ["Tris(2-aminoethyl)amine", "1,2-Ethanediamine, N1,N1-bis(2-aminoethyl)-", "Diethylenetriamine, 4-(2-aminoethyl)-", "1,2-Ethanediamine, N,N-bis(2-aminoethyl)-", "N1,N1-Bis(2-aminoethyl)-1,2-ethanediamine", "2,2\u2032,2\u2032\u2032-Nitrilotris[ethylamine]", "2,2\u2032,2\u2032\u2032-Triaminotris(ethylamine)", "Tris(aminoethyl)amine", "Ethanamine, 2,2\u2032,2\u2032\u2032-nitrilotris-", "Tris(2-aminoethyl)amine", "\u03b2,\u03b2\u2032,\u03b2\u2032\u2032-Triaminotriethylamine", "2,2\u2032,2\u2032\u2032-Triaminotriethylamine", "4-(3-Azapropyl)-1,4,7-triazaheptane", "Tri(2-aminoethyl)amine", "Nitrilotris(ethylamine)", "N,N-Bis(2-aminoethyl)ethylenediamine", "Tren", "N,N-Bis(2-aminoethyl)-1,2-ethanediamine", "4-(2-Aminoethyl)diethylenetriamine", "Tren-HP", "N,N,N-Tris(2-aminoethyl)amine", "Tris(\u03b2-aminoethyl)amine", "2,2\u2032,2\u2032\u2032-Tris(2-aminoethyl)amine", "Nitrilotriethylamine", "T 1243", "3-(2-Aminoethyl)-3-aza-pentane-1,5-diamine"], "SMILES": "N(CCN)(CCN)CCN", "physical_data": {"Molecular Weight": "146.23", "Molecular Formula": "C6H18N4", "Boiling Point": "96-99 \u00b0C"}}