{"cas_no": "4098-06-0", "cn_name": "D-\u4e09\u4e59\u9170\u534a\u4e73\u7cd6\u70ef", "en_name": ["Tri-O-acetyl-D-galactal", "D-arabino-Hex-5-enitol, 2,6-anhydro-5-deoxy-, 1,3,4-triacetate", "D-lyxo-Hex-1-enopyranose, 1,2-dideoxy-, triacetate", "D-arabino-Hex-5-enitol, 2,6-anhydro-5-deoxy-, triacetate", "Galactal, triacetate", "3,4,6-Tri-O-acetyl-D-galactal", "Triacetylgalactal", "Tri-O-acetyl-D-galactal", "D-Galactal triacetate", "Triacetyl-D-galactal"], "SMILES": "O(C(C)=O)C1C(OC(C)=O)C=COC1COC(C)=O", "physical_data": {"Molecular Weight": "272.25", "Molecular Formula": "C12H16O7", "Boiling Point": "138-140 \u00b0C", "Melting Point": "30 \u00b0C"}}