{"cas_no": "4098-30-0", "cn_name": "\u5341\u4e8c\u7532\u57fa\u73af\u5df1\u7845\u70f7", "en_name": ["1,1,2,2,3,3,4,4,5,5,6,6-Dodecamethylcyclohexasilane", "Cyclohexasilane, 1,1,2,2,3,3,4,4,5,5,6,6-dodecamethyl-", "Cyclohexasilane, dodecamethyl-", "1,1,2,2,3,3,4,4,5,5,6,6-Dodecamethylcyclohexasilane", "Dodecamethylcyclohexasilane", "Dodecamethylcyclohexasilylene", "NSC 635060", "Dodecamethylhexasilacyclohexane", "1,1,2,2,3,3,4,4,5,5,6,6-Dodecamethyl-hexasilinane", "1,1,2,2,3,3,4,4,5,5,6,6-Dodecamethylhexasilinane"], "SMILES": "C[Si]1(C)[Si](C)(C)[Si](C)(C)[Si](C)(C)[Si](C)(C)[Si]1(C)C", "physical_data": {"Molecular Weight": "348.93", "Molecular Formula": "C12H36Si6", "Melting Point": "207-209 \u00b0C"}}