{"cas_no": "4098-40-2", "cn_name": "\u5e3d\u67f1\u6728\u78b1\u76d0\u9178\u76d0", "en_name": ["(-)-Mitragynine", "Indolo[2,3-a]quinolizine-2-acetic acid, 3-ethyl-1,2,3,4,6,7,12,12b-octahydro-8-methoxy-\u03b1-(methoxymethylene)-, methyl ester, (\u03b1E,2S,3S,12bS)-", "Mitragynine", "Corynan-16-carboxylic acid, 16,17-didehydro-9,17-dimethoxy-, methyl ester, (16E,20\u03b2)-", "Corynantheidine, 9-methoxy-", "9-Methoxycorynantheidine", "Mitragynin", "(-)-Mitragynine", "Indolo[2,3-a]quinolizine-2-acetic acid, 3-ethyl-1,2,3,4,6,7,12,12b-octahydro-8-methoxy-\u03b1-(methoxymethylene)-, methyl ester, [2S-[2\u03b1(E),3\u03b1,12b\u03b2]]-"], "SMILES": "O(C)C1=C2C3=C(C4N(CC3)CC(CC)C(C(C(OC)=O)=COC)C4)NC2=CC=C1", "physical_data": {"Molecular Weight": "398.50", "Molecular Formula": "C23H30N2O4", "Boiling Point": "235 \u00b0C", "Melting Point": "104 \u00b0C"}}