{"cas_no": "4098-98-0", "cn_name": "\u56db(\u4e09\u7532\u57fa\u7845\u57fa)\u7845\u70f7", "en_name": ["1,1,1,3,3,3-Hexamethyl-2,2-bis(trimethylsilyl)trisilane", "Trisilane, 1,1,1,3,3,3-hexamethyl-2,2-bis(trimethylsilyl)-", "1,1,1,3,3,3-Hexamethyl-2,2-bis(trimethylsilyl)trisilane", "Tetrakis(trimethylsilyl)silane", "Tetra(trimethylsilyl)silane"], "SMILES": "[Si]([Si](C)(C)C)([Si](C)(C)C)([Si](C)(C)C)[Si](C)(C)C", "physical_data": {"Molecular Weight": "320.84", "Molecular Formula": "C12H36Si5", "Melting Point": "263-264 \u00b0C"}}