{"cas_no": "40987-24-4", "cn_name": "(4-\u82c4\u57fa\u5417\u5549-2-\u57fa)\u7532\u9187", "en_name": ["4-(Phenylmethyl)-2-morpholinemethanol", "2-Morpholinemethanol, 4-(phenylmethyl)-", "4-(Phenylmethyl)-2-morpholinemethanol", "4-Benzyl-2-(hydroxymethyl)morpholine", "N-Benzyl-2-(hydroxymethyl)morpholine", "4-Benzyl-2-morpholinemethanol", "(4-Benzylmorpholin-2-yl)methanol", "2-Hydroxymethyl-4-benzylmorpholine"], "SMILES": "C(N1CC(CO)OCC1)C2=CC=CC=C2", "physical_data": {"Molecular Weight": "207.27", "Molecular Formula": "C12H17NO2", "Boiling Point": "113-115 \u00b0C @ Press: 0.01 Torr"}}