{"cas_no": "4098-71-9", "cn_name": "\u5f02\u4f5b\u5c14\u916e\u4e8c\u5f02\u6c30\u9178\u916f", "en_name": ["Isophorone diisocyanate", "Cyclohexane, 5-isocyanato-1-(isocyanatomethyl)-1,3,3-trimethyl-", "Isocyanic acid, methylene(3,5,5-trimethyl-3,1-cyclohexylene) ester", "5-Isocyanato-1-(isocyanatomethyl)-1,3,3-trimethylcyclohexane", "3,3,5-Trimethyl-5-(isocyanatomethyl)cyclohexyl isocyanate", "1-(Isocyanatomethyl)-5-isocyanato-1,3,3-trimethylcyclohexane", "3-(Isocyanatomethyl)-3,5,5-trimethylcyclohexyl isocyanate", "1-Isocyanato-3-(isocyanatomethyl)-3,5,5-trimethylcyclohexane", "1,3,3-Trimethyl-1-(isocyanatomethyl)-5-isocyanatocyclohexane", "Isophorone diisocyanate", "1-Isocyanato-5-(isocyanatomethyl)-3,3,5-trimethylcyclohexane", "1-Isocyanato-3,3,5-trimethyl-5-(isocyanatomethyl)cyclohexane", "IPDI", "PDI", "1-Isocyanatomethyl-3-isocyanato-1,5,5-trimethylcyclohexane"], "SMILES": "C(N=C=O)C1(C)CC(N=C=O)CC(C)(C)C1", "physical_data": {"Molecular Weight": "222.28", "Molecular Formula": "C12H18N2O2", "Boiling Point": "158 \u00b0C @ Press: 10 Torr", "Melting Point": "-60 \u00b0C", "Density": "1.056 g/cm\u00b3"}}