{"cas_no": "40987-25-5", "cn_name": "4-\u82c4\u57fa-2-(\u6c2f\u7532\u57fa)\u5417\u5549", "en_name": ["4-Benzyl-2-(chloromethyl)morpholine", "Morpholine, 2-(chloromethyl)-4-(phenylmethyl)-", "2-(Chloromethyl)-4-(phenylmethyl)morpholine", "4-Benzyl-2-(chloromethyl)morpholine", "N-Benzyl-2-(chloromethyl)morpholine", "2-(Chloromethyl)-4-benzylmorpholine"], "SMILES": "C(N1CC(CCl)OCC1)C2=CC=CC=C2", "physical_data": {"Molecular Weight": "225.71", "Molecular Formula": "C12H16ClNO", "Boiling Point": "90-92 \u00b0C @ Press: 0.1 Torr"}}