{"cas_no": "4099-35-8", "cn_name": "S-(2-\u6c28\u57fa\u4e59\u57fa)-L-\u534a\u5149\u6c28\u9178", "en_name": ["S-(2-Aminoethyl)-L-cysteine hydrochloride", "L-Cysteine, S-(2-aminoethyl)-, hydrochloride (1:1)", "Alanine, 3-[(2-aminoethyl)thio]-, monohydrochloride, L-", "L-Cysteine, S-(2-aminoethyl)-, monohydrochloride", "S-(\u03b2-Aminoethyl)-L-cysteine hydrochloride", "Thialysine hydrochloride", "S-(2-Aminoethyl)-L-cysteine hydrochloride", "NSC 186915", "S-(2-Aminoethyl)-L-cysteine monohydrochloride", "L-4-Thialysine hydrochloride"], "SMILES": "C(CSCCN)(C(O)=O)N.Cl", "physical_data": {"Molecular Weight": "", "Molecular Formula": "C5H12N2O2S.ClH", "Melting Point": "195 \u00b0C (decomp)"}}