{"cas_no": "4099-85-8", "cn_name": "\u7532\u57fa-2,3-O-\u5f02\u4e9a\u4e19\u57fa-beta-D-\u544b\u5583\u6838\u7cd6\u82f7", "en_name": ["Methyl 2,3-O-(1-methylethylidene)-\u03b2-D-ribofuranoside", "\u03b2-D-Ribofuranoside, methyl 2,3-O-(1-methylethylidene)-", "Ribofuranoside, methyl 2,3-O-isopropylidene-, \u03b2-D-", "Ribofuranoside, methyl 2,3-O-isopropylidene-", "Furo[3,4-d]-1,3-dioxole, \u03b2-D-ribofuranoside deriv.", "Methyl 2,3-O-(1-methylethylidene)-\u03b2-D-ribofuranoside", "Methyl 2,3-O-isopropylidene-\u03b2-D-ribofuranoside", "NSC 85191"], "SMILES": "C(O)C1C2C(C(OC)O1)OC(C)(C)O2", "physical_data": {"Molecular Weight": "204.22", "Molecular Formula": "C9H16O5", "Boiling Point": "92-94 \u00b0C @ Press: 0.08 Torr"}}