{"cas_no": "4099-30-3", "cn_name": "\u53bb\u4e59\u9170\u534e\u87fe\u870d\u5b83\u7075", "en_name": ["Desacetylcinobufotalin", "Bufa-20,22-dienolide, 14,15-epoxy-3,5,16-trihydroxy-, (3\u03b2,5\u03b2,15\u03b2,16\u03b2)-", "5\u03b2-Bufa-20,22-dienolide, 14,15\u03b2-epoxy-3\u03b2,5,16\u03b2-trihydroxy-", "14,15-Epoxy-14H-cyclopenta[a]phenanthrene, bufa-20,22-dienolide deriv.", "(3\u03b2,5\u03b2,15\u03b2,16\u03b2)-14,15-Epoxy-3,5,16-trihydroxybufa-20,22-dienolide", "\u03b2-Bufa-20,22-dienolide, 14,15\u03b2-epoxy-3\u03b2,15\u03b2,16\u03b2-trihydroxy-", "Desacetylcinobufotalin", "Deacetylcinobufotalin", "De-O-acetylcinobufotalin"], "SMILES": "CC12C3(C(O3)C(O)C1C=4C=CC(=O)OC4)C5C(CC2)C6(C)C(O)(CC5)CC(O)CC6", "physical_data": {"Molecular Weight": "416.51", "Molecular Formula": "C24H32O6", "Melting Point": "251-261 \u00b0C (decomp)"}}