{"cas_no": "4100-80-5", "cn_name": "\u7532\u57fa\u7425\u73c0\u9178\u9150", "en_name": ["Methylsuccinic anhydride", "2,5-Furandione, dihydro-3-methyl-", "Pyrotartaric anhydride", "Succinic anhydride, methyl-", "Dihydro-3-methyl-2,5-furandione", "Methylsuccinic anhydride", "2-Methylsuccinic anhydride", "\u03b1-Methylsuccinic anhydride", "2-Methylbutanedioic anhydride", "NSC 65437", "Methyldihydrofuran-2,5-dione", "3-Methyldihydrofuran-2,5-dione", "3-Methyloxolane-2,5-dione"], "SMILES": "CC1C(=O)OC(=O)C1", "physical_data": {"Molecular Weight": "114.10", "Molecular Formula": "C5H6O3", "Boiling Point": "239 \u00b0C", "Melting Point": "34 \u00b0C"}}