{"cas_no": "4100-14-5", "cn_name": "1,2,3-\u567b\u4e8c\u5511-5-\u7fa7\u9178\u4e59\u916f", "en_name": ["Ethyl 1,2,3-thiadiazole-5-carboxylate", "1,2,3-Thiadiazole-5-carboxylic acid, ethyl ester", "Ethyl 1,2,3-thiadiazole-5-carboxylate"], "SMILES": "C(OCC)(=O)C1=CN=NS1", "physical_data": {"Molecular Weight": "158.18", "Molecular Formula": "C5H6N2O2S", "Boiling Point": "103-105 \u00b0C @ Press: 14 Torr"}}