{"cas_no": "4101-68-2", "cn_name": "1,10-\u4e8c\u6eb4\u7678\u70f7", "en_name": ["1,10-Dibromodecane", "Decane, 1,10-dibromo-", "1,10-Dibromodecane", "Decamethylene dibromide", "\u03b1,\u03c9-Dibromodecane", "NSC 6086"], "SMILES": "C(CCCCCBr)CCCCBr", "physical_data": {"Molecular Weight": "300.07", "Molecular Formula": "C10H20Br2", "Boiling Point": "161 \u00b0C", "Melting Point": "28 \u00b0C"}}