{"cas_no": "41011-01-2", "cn_name": "2-\u6eb4-1-\uff083-\u6c2f\u82ef\u57fa\uff09\u4e59\u916e", "en_name": ["2-Bromo-1-(3-chlorophenyl)ethanone", "Ethanone, 2-bromo-1-(3-chlorophenyl)-", "Acetophenone, 2-bromo-3\u2032-chloro-", "2-Bromo-1-(3-chlorophenyl)ethanone", "2-Bromo-3\u2032-chloroacetophenone", "3-Chlorophenacyl bromide", "m-Chlorophenacyl bromide", "2-Bromo-m-chloroacetophenone", "\u03b1-Bromo-3-chloroacetophenone", "2-Bromo-1-(3-chlorophenyl)-1-ethanone"], "SMILES": "C(CBr)(=O)C1=CC(Cl)=CC=C1", "physical_data": {"Molecular Weight": "233.49", "Molecular Formula": "C8H6BrClO", "Melting Point": "39.5-40 \u00b0C"}}