{"cas_no": "4101-32-0", "cn_name": "N/A", "en_name": ["1-(4,5-Dimethoxy-2-nitrophenyl)ethanone", "Ethanone, 1-(4,5-dimethoxy-2-nitrophenyl)-", "Acetophenone, 4\u2032,5\u2032-dimethoxy-2\u2032-nitro-", "1-(4,5-Dimethoxy-2-nitrophenyl)ethanone", "4\u2032,5\u2032-Dimethoxy-2\u2032-nitroacetophenone", "1-(4,5-Dimethoxy-2-nitrophenyl)ethan-1-one"], "SMILES": "C(C)(=O)C1=C(N(=O)=O)C=C(OC)C(OC)=C1", "physical_data": {"Molecular Weight": "225.20", "Molecular Formula": "C10H11NO5", "Melting Point": "133.5-135 \u00b0C"}}