{"cas_no": "41018-86-4", "cn_name": "2,3-\u4e8c\u7532\u57fa-7-\u785d\u57fa\u5432\u54da", "en_name": ["2,3-Dimethyl-7-nitro-1H-indole", "1H-Indole, 2,3-dimethyl-7-nitro-", "Indole, 2,3-dimethyl-7-nitro-", "2,3-Dimethyl-7-nitro-1H-indole", "2,3-Dimethyl-7-nitroindole", "NSC 88618"], "SMILES": "N(=O)(=O)C1=C2C(C(C)=C(C)N2)=CC=C1", "physical_data": {"Molecular Weight": "190.20", "Molecular Formula": "C10H10N2O2", "Melting Point": "164 \u00b0C"}}