{"cas_no": "41014-93-1", "cn_name": "S-2-\u7f9f\u57fa\u620a\u9178", "en_name": ["(2S)-2-Hydroxypentanoic acid", "Pentanoic acid, 2-hydroxy-, (2S)-", "Pentanoic acid, 2-hydroxy-, (S)-", "(2S)-2-Hydroxypentanoic acid", "L-2-Hydroxyvaleric acid", "L-2-Hydroxypentanoic acid", "(S)-\u03b1-Hydroxyvaleric acid", "S-2-Hydroxypentanoic acid", "(S)-2-Hydroxyvaleric acid"], "SMILES": "C(CCC)(C(O)=O)O", "physical_data": {"Molecular Weight": "118.13", "Molecular Formula": "C5H10O3", "Melting Point": "52-55 \u00b0C"}}