{"cas_no": "41019-44-7", "cn_name": "5-(3-CHLORO-PHENYL)-FURAN-2-CARBOXYLIC ACID", "en_name": ["5-(3-Chlorophenyl)-2-furancarboxylic acid", "2-Furancarboxylic acid, 5-(3-chlorophenyl)-", "5-(3-Chlorophenyl)-2-furancarboxylic acid", "5-(m-Chlorophenyl)-2-furancarboxylic acid", "5-(3-Chlorophenyl)-2-furoic acid"], "SMILES": "C(O)(=O)C=1OC(=CC1)C2=CC(Cl)=CC=C2", "physical_data": {"Molecular Weight": "222.62", "Molecular Formula": "C11H7ClO3", "Melting Point": "168-170 \u00b0C"}}