{"cas_no": "4102-53-8", "cn_name": "4-\u7898-2,6-\u4e8c\u7532\u57fa\u82ef\u80fa", "en_name": ["4-Iodo-2,6-dimethylbenzenamine", "Benzenamine, 4-iodo-2,6-dimethyl-", "2,6-Xylidine, 4-iodo-", "4-Iodo-2,6-dimethylbenzenamine", "2,6-Dimethyl-4-iodoaniline", "4-Iodo-2,6-dimethylaniline", "NSC 128900"], "SMILES": "NC1=C(C)C=C(I)C=C1C", "physical_data": {"Molecular Weight": "247.08", "Molecular Formula": "C8H10IN", "Boiling Point": "120 \u00b0C @ Press: 0.998 Torr", "Melting Point": "52 \u00b0C"}}