{"cas_no": "41037-28-9", "cn_name": "6-\u6eb4-4-\u7532\u57fa\u55b9\u5549", "en_name": ["6-Bromo-4-methylquinoline", "Quinoline, 6-bromo-4-methyl-", "6-Bromo-4-methylquinoline"], "SMILES": "CC=1C2=C(C=CC(Br)=C2)N=CC1", "physical_data": {"Molecular Weight": "222.08", "Molecular Formula": "C10H8BrN", "Melting Point": "98 \u00b0C"}}