{"cas_no": "41036-32-2", "cn_name": "D-\u4e19\u6c28\u9178\u82ef\u7532\u916f\u5bf9\u7532\u82ef\u78fa\u9178\u76d0", "en_name": ["D-Alanine, phenylmethyl ester, 4-methylbenzenesulfonate (1:1)", "D-Alanine, phenylmethyl ester, 4-methylbenzenesulfonate (1:1)", "D-Alanine, phenylmethyl ester, 4-methylbenzenesulfonate", "D-Alanine benzyl ester p-toluenesulfonate", "Benzyl D-alaninate p-toluenesulfonate", "D-Alanine benzyl ester tosylate", "D-Alanine benzyl ester p-toluenesulfonate salt", "O-Benzyl-D-alanine toluene-p-sulfonate"], "SMILES": "S(=O)(=O)(O)C1=CC=C(C)C=C1.C(OC(C(C)N)=O)C1=CC=CC=C1", "physical_data": {"Molecular Weight": "", "Molecular Formula": "C10H13NO2.C7H8O3S", "Melting Point": "113-114 \u00b0C"}}