{"cas_no": "41037-26-7", "cn_name": "6-\u7532\u6c27\u57fa-4-\u7532\u57fa\u55b9\u5549", "en_name": ["6-Methoxy-4-methylquinoline", "Quinoline, 6-methoxy-4-methyl-", "Lepidine, 6-methoxy-", "6-Methoxy-4-methylquinoline", "6-Methoxylepidine", "4-Methyl-6-methoxyquinoline"], "SMILES": "CC=1C2=C(C=CC(OC)=C2)N=CC1", "physical_data": {"Molecular Weight": "173.21", "Molecular Formula": "C11H11NO", "Boiling Point": "145-150 \u00b0C @ Press: 18 Torr", "Melting Point": "52 \u00b0C"}}