{"cas_no": "4104-45-4", "cn_name": "3-(\u7532\u57fa\u4e09)\u4e19\u70ef\u9178\u544b\u5583", "en_name": ["3-(Methylthio)propylamine", "1-Propanamine, 3-(methylthio)-", "Propylamine, 3-(methylthio)-", "3-(Methylthio)-1-propanamine", "3-(Methylmercapto)propylamine", "3-(Methylthio)propylamine", "3-Aminopropyl methyl sulfide", "1-Amino-3-(methylthio)propane", "S-Methylhomocysteamine", "3-(Methylthio)-1-propylamine", "3-Methylsulfanyl-1-propylamine", "3-(Methylsulfanyl)propylamine", "3-Methylsulfanylpropan-1-amine"], "SMILES": "C(CSC)CN", "physical_data": {"Molecular Weight": "105.20", "Molecular Formula": "C4H11NS", "Boiling Point": "170 \u00b0C"}}