{"cas_no": "4104-75-0", "cn_name": "N-\u7532\u57fa-N-\u82ef\u57fa\u786b\u8132", "en_name": ["N-Methyl-N-phenylthiourea", "Thiourea, N-methyl-N-phenyl-", "Urea, 1-methyl-1-phenyl-2-thio-", "N-Methyl-N-phenylthiourea", "1-Methyl-1-phenylthiourea", "NSC 87749"], "SMILES": "N(C(N)=S)(C)C1=CC=CC=C1", "physical_data": {"Molecular Weight": "166.24", "Molecular Formula": "C8H10N2S", "Melting Point": "106-108 \u00b0C"}}