{"cas_no": "41043-88-3", "cn_name": "\u5bf9\u73af\u5df1\u916e\u7532\u9178\u7532\u916f", "en_name": ["4-(Acetyloxy)cyclohexanone", "Cyclohexanone, 4-(acetyloxy)-", "Cyclohexanone, 4-hydroxy-, acetate", "4-(Acetyloxy)cyclohexanone", "4-Acetoxycyclohexanone", "4-Oxocyclohexyl acetate"], "SMILES": "O(C(C)=O)C1CCC(=O)CC1", "physical_data": {"Molecular Weight": "156.18", "Molecular Formula": "C8H12O3", "Boiling Point": "121-124 \u00b0C @ Press: 11 Torr"}}