{"cas_no": "41044-12-6", "cn_name": "\u9999\u8c46\u7d20 30", "en_name": ["7-(Diethylamino)-3-(1-methyl-2-benzimidazolyl)coumarin", "2H-1-Benzopyran-2-one, 7-(diethylamino)-3-(1-methyl-1H-benzimidazol-2-yl)-", "Coumarin, 7-(diethylamino)-3-(1-methyl-2-benzimidazolyl)-", "7-(Diethylamino)-3-(1-methyl-1H-benzimidazol-2-yl)-2H-1-benzopyran-2-one", "Coumarin 30", "Coumarin 515", "3-(2\u2032-N-Methylbenzimidazole)-7-(N,N-diethylamino)coumarin", "7-(Diethylamino)-3-(1-methyl-2-benzimidazolyl)coumarin", "K 30", "NSC 290433", "7-(Diethylamino)-3-(1-methyl-1H-benzimidazol-2-yl)-2-benzopyrone", "3-(1-Methylbenzimidazol-2-yl)-7-diethylamino-2H-benzopyran-2-one"], "SMILES": "CN1C(=NC=2C1=CC=CC2)C3=CC=4C(OC3=O)=CC(N(CC)CC)=CC4", "physical_data": {"Molecular Weight": "347.41", "Molecular Formula": "C21H21N3O2", "Melting Point": "224-226 \u00b0C"}}