{"cas_no": "4105-38-8", "cn_name": "2',3',5'-\u4e09\u4e59\u9170\u5c3f\u82f7", "en_name": ["2\u2032,3\u2032,5\u2032-Tri-O-acetyluridine", "Uridine, 2\u2032,3\u2032,5\u2032-triacetate", "2\u2032,3\u2032,5\u2032-Tri-O-acetyluridine", "2\u2032,3\u2032,5\u2032-Triacetyluridine", "Tri-O-acetyl uridine", "Uridine triacetate", "PN 401", "RG 2133", "Vistonuridine", "Xuriden", "Triacetyluridine", "Vistogard", "Chembridge 5106522"], "SMILES": "O(C(C)=O)C1C(OC(COC(C)=O)C1OC(C)=O)N2C(=O)NC(=O)C=C2", "physical_data": {"Molecular Weight": "370.31", "Molecular Formula": "C15H18N2O9", "Melting Point": "130-132 \u00b0C"}}