{"cas_no": "4105-95-7", "cn_name": "4-\u5341\u516b\u70f7\u6c27\u82ef\u7532\u919b", "en_name": ["4-(Octadecyloxy)benzaldehyde", "Benzaldehyde, 4-(octadecyloxy)-", "Benzaldehyde, p-(octadecyloxy)-", "4-(Octadecyloxy)benzaldehyde", "p-(Octadecyloxy)benzaldehyde", "4-(n-Octadecyloxy)benzaldehyde"], "SMILES": "O(CCCCCCCCCCCCCCCCCC)C1=CC=C(C=O)C=C1", "physical_data": {"Molecular Weight": "374.60", "Molecular Formula": "C25H42O2", "Boiling Point": "253-255 \u00b0C @ Press: 1 Torr", "Melting Point": "51-54 \u00b0C"}}