{"cas_no": "41059-79-4", "cn_name": "\u77e5\u6bcd\u7682\u82f7 A-III", "en_name": ["Timosaponin A III", "\u03b2-D-Galactopyranoside, (3\u03b2,5\u03b2,25S)-spirostan-3-yl 2-O-\u03b2-D-glucopyranosyl-", "Timosaponin A III", "(3\u03b2,5\u03b2,25S)-Spirostan-3-yl 2-O-\u03b2-D-glucopyranosyl-\u03b2-D-galactopyranoside", "Timosaponine A III", "Filiferin B", "Sarsasapogenin, 2-O-\u03b2-D-glucopyranosyl-\u03b2-D-galactopyranoside", "Zhi-mu saponin", "Anemarsaponin A 3", "Xilingsaponin A", "Sarsasapogenin-3-O-(2\u2032-O-\u03b2-glucopyranosyl-\u03b2-galactopyranoside)"], "SMILES": "CC12C3C(CC1C4C(CC2)C5(C)C(CC4)CC(OC6C(OC7OC(CO)C(O)C(O)C7O)C(O)C(O)C(CO)O6)CC5)OC8(C3C)CCC(C)CO8", "physical_data": {"Molecular Weight": "740.92", "Molecular Formula": "C39H64O13", "Melting Point": "317-322 \u00b0C"}}