{"cas_no": "41051-80-3", "cn_name": "N,N-\u4e8c\u4e59\u57fa-3-\u6c28\u4e19\u57fa\u4e09\u7532\u6c27\u57fa\u7845\u70f7", "en_name": ["3-(Diethylamino)propyltrimethoxysilane", "1-Propanamine, N,N-diethyl-3-(trimethoxysilyl)-", "N,N-Diethyl-3-(trimethoxysilyl)-1-propanamine", "3-N,N-Diethylaminopropyltrimethoxysilane", "Silar 1104", "N,N-Diethyl-3-aminopropyltrimethoxysilane", "3-(Diethylamino)propyltrimethoxysilane", "N,N-Diethyl-3-(trimethoxysilyl)propylamine", "SID 3396.0", "N,N-Diethyl-N-(3-trimethoxysilylpropyl)amine", "N,N-Diethyl-\u03b3-aminopropyl trimethoxy silane", "KH 703"], "SMILES": "[Si](CCCN(CC)CC)(OC)(OC)OC", "physical_data": {"Molecular Weight": "235.40", "Molecular Formula": "C10H25NO3Si", "Boiling Point": "120 \u00b0C @ Press: 20 Torr", "Density": "0.934 g/cm\u00b3"}}