{"cas_no": "41052-75-9", "cn_name": "2-\u6c2f\u82ef\u80bc\u76d0\u9178\u76d0", "en_name": ["2-Chlorophenylhydrazine hydrochloride", "Hydrazine, (2-chlorophenyl)-, hydrochloride (1:1)", "Hydrazine, (2-chlorophenyl)-, monohydrochloride", "Hydrazine, (o-chlorophenyl)-, hydrochloride", "2-Chlorophenylhydrazine hydrochloride", "(o-Chlorophenyl)hydrazizne hydrochloride", "o-Chlorophenylhydrazine hydrochloride", "2-(2-Chlorophenyl)hydrazinium chloride"], "SMILES": "N(N)C1=C(Cl)C=CC=C1.Cl", "physical_data": {"Molecular Weight": "", "Molecular Formula": "C6H7ClN2.ClH", "Melting Point": "198-200 \u00b0C (decomp)"}}