{"cas_no": "41059-02-3", "cn_name": "9-\u6eb4\u58ec\u9178", "en_name": ["9-Bromononanoic acid", "Nonanoic acid, 9-bromo-", "9-Bromononanoic acid"], "SMILES": "C(CCCCCBr)CCC(O)=O", "physical_data": {"Molecular Weight": "237.13", "Molecular Formula": "C9H17BrO2", "Boiling Point": "160-161 \u00b0C @ Press: 2 Torr", "Melting Point": "36-36.5 \u00b0C"}}