{"cas_no": "410536-97-9", "cn_name": "2-[[(2-\u7f9f\u57fa-1-\u8418\u57fa)\u4e9a\u7532\u57fa]\u6c28\u57fa]-N-(1-\u82ef\u57fa\u4e59\u57fa)\u82ef\u7532\u9170\u80fa", "en_name": ["Sirtinol", "Benzamide, 2-[[(2-hydroxy-1-naphthalenyl)methylene]amino]-N-(1-phenylethyl)-", "2-[[(2-Hydroxy-1-naphthalenyl)methylene]amino]-N-(1-phenylethyl)benzamide", "Sirtinol", "S 2804"], "SMILES": "C(=NC1=C(C(NC(C)C2=CC=CC=C2)=O)C=CC=C1)C=3C4=C(C=CC3O)C=CC=C4", "physical_data": {"Molecular Weight": "394.47", "Molecular Formula": "C26H22N2O2", "Melting Point": "119-120 \u00b0C"}}