{"cas_no": "4106-66-5", "cn_name": "3-\u6c28\u57fa\u4e8c\u82ef\u5e76\u544b\u5583", "en_name": ["3-Dibenzofuranamine", "3-Dibenzofuranamine", "3-Aminodibenzofuran", "N-(3-Dibenzofuranyl)amine", "NSC 89128", "Dibenzo[b,d]furan-3-amine"], "SMILES": "NC=1C=C2C(C=3C(O2)=CC=CC3)=CC1", "physical_data": {"Molecular Weight": "183.21", "Molecular Formula": "C12H9NO", "Melting Point": "128 \u00b0C"}}