{"cas_no": "41060-15-5", "cn_name": "\u65b0\u8865\u9aa8\u8102\u5f02\u9ec4\u916e", "en_name": ["Neobavaisoflavone", "4H-1-Benzopyran-4-one, 7-hydroxy-3-[4-hydroxy-3-(3-methyl-2-buten-1-yl)phenyl]-", "4H-1-Benzopyran-4-one, 7-hydroxy-3-[4-hydroxy-3-(3-methyl-2-butenyl)phenyl]-", "7-Hydroxy-3-[4-hydroxy-3-(3-methyl-2-buten-1-yl)phenyl]-4H-1-benzopyran-4-one", "Neobavaisoflavone"], "SMILES": "O=C1C(=COC=2C1=CC=C(O)C2)C3=CC(CC=C(C)C)=C(O)C=C3", "physical_data": {"Molecular Weight": "322.35", "Molecular Formula": "C20H18O4", "Melting Point": "189-191 \u00b0C"}}