{"cas_no": "41078-70-0", "cn_name": "3-(2-\u6c2f\u4e59\u57fa)-2-\u7532\u57fa\u5421\u5576\u5e76[1,2-a]\u5627\u5576-4-\u916e", "en_name": ["3-(2-Chloroethyl)-2-methyl-4H-pyrido[1,2-a]pyrimidin-4-one", "4H-Pyrido[1,2-a]pyrimidin-4-one, 3-(2-chloroethyl)-2-methyl-", "3-(2-Chloroethyl)-2-methyl-4H-pyrido[1,2-a]pyrimidin-4-one", "3-(2-Chloroethyl)-2-methylpyrido[1,2-a]pyrimidin-4-one"], "SMILES": "O=C1N2C(=NC(C)=C1CCCl)C=CC=C2", "physical_data": {"Molecular Weight": "222.67", "Molecular Formula": "C11H11ClN2O", "Melting Point": "140-142 \u00b0C"}}