{"cas_no": "4107-65-7", "cn_name": "2,4-\u4e8c\u7532\u6c27\u57fa\u82ef\u7532\u8148", "en_name": ["2,4-Dimethoxybenzonitrile", "Benzonitrile, 2,4-dimethoxy-", "2,4-Dimethoxybenzonitrile", "1-Cyano-2,4-dimethoxybenzene", "4-Cyano-3-methoxyanisole", "NSC 27020"], "SMILES": "O(C)C1=C(C#N)C=CC(OC)=C1", "physical_data": {"Molecular Weight": "163.17", "Molecular Formula": "C9H9NO2", "Boiling Point": "165-170 \u00b0C @ Press: 5 Torr", "Melting Point": "95-96 \u00b0C"}}