{"cas_no": "4107-98-6", "cn_name": "N,N-\u4e8c\u5f02\u4e19\u57fa\u82ef\u80fa", "en_name": ["N,N-Bis(1-methylethyl)benzenamine", "Benzenamine, N,N-bis(1-methylethyl)-", "Aniline, N,N-diisopropyl-", "N,N-Bis(1-methylethyl)benzenamine", "N,N-Diisopropylaniline", "N,N-Diisopropylbenzenamine"], "SMILES": "N(C(C)C)(C(C)C)C1=CC=CC=C1", "physical_data": {"Molecular Weight": "177.29", "Molecular Formula": "C12H19N", "Boiling Point": "205-210 \u00b0C @ Press: 0.1 Torr", "Melting Point": "50-52 \u00b0C"}}