{"cas_no": "41078-02-8", "cn_name": "\u82f1\u6d1b\u83f2\u6797", "en_name": ["Enprofylline", "1H-Purine-2,6-dione, 3,9-dihydro-3-propyl-", "1H-Purine-2,6-dione, 3,7-dihydro-3-propyl-", "3,9-Dihydro-3-propyl-1H-purine-2,6-dione", "Enprofylline", "3-Propylxanthine", "D 4028", "3-Propyl-1H-purine-2,6(3H,9H)-dione", "3-Propyl-2,3,6,9-tetrahydro-1H-purine-2,6-dione", "3,7-Dihydro-3-propyl-1H-purine-2,6-dione", "3-Propyl-2,3,6,7-tetrahydro-1H-purine-2,6-dione"], "SMILES": "C(CC)N1C2=C(C(=O)NC1=O)NC=N2", "physical_data": {"Molecular Weight": "194.19", "Molecular Formula": "C8H10N4O2", "Melting Point": "287-289 \u00b0C", "Density": "1.38 g/cm\u00b3"}}