{"cas_no": "41083-11-8", "cn_name": "\u4e09\u5511\u9521", "en_name": ["Azocyclotin", "1H-1,2,4-Triazole, 1-(tricyclohexylstannyl)-", "1-(Tricyclohexylstannyl)-1H-1,2,4-triazole", "Tricyclotin", "Azocyclotin", "Peropal", "BAY-BUE 1452", "Caligur 500SC"], "SMILES": "[Sn](N1C=NC=N1)(C2CCCCC2)(C3CCCCC3)C4CCCCC4", "physical_data": {"Molecular Weight": "436.22", "Molecular Formula": "C20H35N3Sn", "Melting Point": "210 \u00b0C (decomp)"}}