{"cas_no": "41088-52-2", "cn_name": "3,4-\u73af\u6c27\u73af\u5df1\u70f7\u7fa7\u9178\u7532\u916f", "en_name": ["Methyl 3,4-epoxycyclohexanecarboxylate", "7-Oxabicyclo[4.1.0]heptane-3-carboxylic acid, methyl ester", "Cyclohexanecarboxylic acid, 3,4-epoxy-, methyl ester", "Methyl 3,4-epoxycyclohexanecarboxylate", "Methyl 3,4-epoxycyclohexane-1-carboxylate", "3,4-Epoxycyclohexanecarboxylate methyl ester", "3,4-Cyclohexene oxide-1-carboxylic acid methyl ester", "ERL 4140", "3,4-Epoxycyclohexanecarboxylic acid methyl ester", "1,2-Epoxy-4-methoxycarbonylcyclohexane", "Methyl 7-oxabicyclo[4.1.0]heptane-3-carboxylate"], "SMILES": "C(OC)(=O)C1CC2C(O2)CC1", "physical_data": {"Molecular Weight": "156.18", "Molecular Formula": "C8H12O3", "Boiling Point": "115-117 \u00b0C @ Press: 22 Torr", "Density": "1.1309 g/cm\u00b3 @ Temp: 20 \u00b0C"}}