{"cas_no": "41093-60-1", "cn_name": "\u751c\u83ca\u53cc\u7cd6\u7519", "en_name": ["Steviolbioside", "Kaur-16-en-18-oic acid, 13-[(2-O-\u03b2-D-glucopyranosyl-\u03b2-D-glucopyranosyl)oxy]-, (4\u03b1)-", "(4\u03b1)-13-[(2-O-\u03b2-D-Glucopyranosyl-\u03b2-D-glucopyranosyl)oxy]kaur-16-en-18-oic acid", "Steviolbioside", "Steviobioside", "Steviol-1,2-Bioside"], "SMILES": "CC12C3C4(CC(OC5C(OC6OC(CO)C(O)C(O)C6O)C(O)C(O)C(CO)O5)(C(=C)C4)CC3)CCC1C(C(O)=O)(C)CCC2", "physical_data": {"Molecular Weight": "642.73", "Molecular Formula": "C32H50O13", "Melting Point": "188-192 \u00b0C"}}