{"cas_no": "4109-96-0", "cn_name": "\u4e8c\u6c2f\u7845\u70f7", "en_name": ["Dichlorosilane", "Silane, dichloro-", "Dichlorosilane", "Silicon chloride hydride (SiH2Cl2)", "Silicon chloride hydride (SiCl2H2)", "Dichlorosilane(SiH2Cl2)", "Silicon chloride hydride (Cl2H2Si)"], "SMILES": "[SiH2](Cl)Cl", "physical_data": {"Molecular Weight": "101.01", "Molecular Formula": "Cl2H2Si", "Boiling Point": "8 \u00b0C", "Melting Point": "-122 \u00b0C", "Density": "1.220 g/cm\u00b3 @ Temp: 7 \u00b0C"}}