{"cas_no": "4110-35-4", "cn_name": "3,5-\u4e8c\u785d\u57fa\u82ef\u7532\u8148", "en_name": ["3,5-Dinitrobenzonitrile", "Benzonitrile, 3,5-dinitro-", "3,5-Dinitrobenzonitrile", "1,3-Dinitro-5-cyanobenzene"], "SMILES": "N(=O)(=O)C1=CC(N(=O)=O)=CC(C#N)=C1", "physical_data": {"Molecular Weight": "193.12", "Molecular Formula": "C7H3N3O4", "Melting Point": "127 \u00b0C"}}