{"cas_no": "41108-81-0", "cn_name": "\u53d4\u4e01\u57fa\u4e09\u7532\u57fa\u7845\u57fa\u4e59\u9178", "en_name": ["1,1-Dimethylethyl 2-(trimethylsilyl)acetate", "Acetic acid, 2-(trimethylsilyl)-, 1,1-dimethylethyl ester", "Acetic acid, (trimethylsilyl)-, 1,1-dimethylethyl ester", "1,1-Dimethylethyl 2-(trimethylsilyl)acetate", "tert-Butyl (trimethylsilyl)acetate", "1,1-Dimethylethyl (trimethylsilyl)acetate", "tert-Butyl 2-(trimethylsilyl)acetate", "tert-Butyl \u03b1-(trimethylsilyl)acetate", "NSC 237636"], "SMILES": "C([Si](C)(C)C)C(OC(C)(C)C)=O", "physical_data": {"Molecular Weight": "188.34", "Molecular Formula": "C9H20O2Si", "Boiling Point": "172-173 \u00b0C @ Press: 760 Torr"}}