{"cas_no": "41105-35-5", "cn_name": "1-\u6c2f-9,10-\u4e8c\u82ef\u4e59\u7094\u57fa\u84bd", "en_name": ["1-Chloro-9,10-bis(phenylethynyl)anthracene", "Anthracene, 1-chloro-9,10-bis(2-phenylethynyl)-", "Anthracene, 1-chloro-9,10-bis(phenylethynyl)-", "1-Chloro-9,10-bis(2-phenylethynyl)anthracene", "1-Chloro-9,10-bis(phenylethynyl)anthracene", "9,10-Bis(phenylethynyl)-1-chloroanthracene"], "SMILES": "C(#CC1=CC=CC=C1)C=2C3=C(C(C#CC4=CC=CC=C4)=C5C2C=CC=C5)C(Cl)=CC=C3", "physical_data": {"Molecular Weight": "412.91", "Molecular Formula": "C30H17Cl", "Melting Point": "205-206 \u00b0C"}}