{"cas_no": "4110-50-3", "cn_name": "\u4e59\u57fa\u6b63\u4e19\u57fa\u786b\u919a", "en_name": ["Ethyl propyl sulfide", "Propane, 1-(ethylthio)-", "Sulfide, ethyl propyl", "1-(Ethylthio)propane", "Ethyl propyl sulfide", "Ethyl propyl thioether", "Propyl ethyl sulfide", "3-Thiahexane", "NSC 163319", "Ethyl n-propyl sulfide", "1-Ethylsulfanylpropane"], "SMILES": "C(SCC)CC", "physical_data": {"Molecular Weight": "104.21", "Molecular Formula": "C5H12S", "Boiling Point": "118.6 \u00b0C", "Melting Point": "-117 \u00b0C", "Density": "0.8441 g/cm\u00b3 @ Temp: 20 \u00b0C"}}