{"cas_no": "41100-52-1", "cn_name": "\u76d0\u9178\u7f8e\u91d1\u521a", "en_name": ["Memantine hydrochloride", "Tricyclo[3.3.1.13,7]decan-1-amine, 3,5-dimethyl-, hydrochloride (1:1)", "Tricyclo[3.3.1.13,7]decan-1-amine, 3,5-dimethyl-, hydrochloride", "1-Adamantanamine, 3,5-dimethyl-, hydrochloride", "1-Amino-3,5-dimethyladamantane hydrochloride", "Memantine hydrochloride", "SUN Y7017", "Ebixia", "Akatinol", "Ebixza", "NSC 102290", "Namenda", "Axura", "3,5-Dimethyltricyclo[3.3.1.13,7]decan-1-amine hydrochloride", "Ebix", "3,5-Dimethyl-1-aminoadamantane hydrochloride", "3,5-Dimethyladamantan-1-amine hydrochloride", "Memary", "Mantine", "3,5-Dimethyl-adamantan-1-ylamine", "hydrochloride", "Memantine LEK", "Marixino", "Ebixa", "Amel"], "SMILES": "CC12CC3(C)CC(N)(C1)CC(C2)C3.Cl", "physical_data": {"Molecular Weight": "", "Molecular Formula": "C12H21N.ClH", "Melting Point": "258 \u00b0C"}}