{"cas_no": "41107-82-8", "cn_name": "2,5-\u8131\u6c34-D-\u7518\u9732\u9187", "en_name": ["2,5-Anhydro-D-mannitol", "D-Mannitol, 2,5-anhydro-", "2,5-Anhydro-D-mannitol", "NSC 129241", "2,5-Mannitan"], "SMILES": "C(O)C1C(O)C(O)C(CO)O1", "physical_data": {"Molecular Weight": "164.16", "Molecular Formula": "C6H12O5", "Melting Point": "100-102 \u00b0C"}}