{"cas_no": "41107-56-6", "cn_name": "2',3'-\u4e8c\u8131\u6c27-3'-\u6c1f\u5c3f\u82f7", "en_name": ["2\u2032,3\u2032-Dideoxy-3\u2032-fluorouridine", "Uridine, 2\u2032,3\u2032-dideoxy-3\u2032-fluoro-", "2\u2032,3\u2032-Dideoxy-3\u2032-fluorouridine", "1-(2,3-Dideoxy-3-fluoro-\u03b2-D-ribofuranosyl)uracil", "3\u2032-Fluoro-2\u2032,3\u2032-dideoxyuridine"], "SMILES": "O=C1N(C2OC(CO)C(F)C2)C=CC(=O)N1", "physical_data": {"Molecular Weight": "230.19", "Molecular Formula": "C9H11FN2O4", "Melting Point": "184-188 \u00b0C"}}