{"cas_no": "41114-00-5", "cn_name": "\u5341\u4e94\u9178\u4e59\u916f", "en_name": ["Ethyl pentadecanoate", "Pentadecanoic acid, ethyl ester", "Ethyl pentadecanoate", "NSC 137833"], "SMILES": "C(CCCCCCCCCCCC)CC(OCC)=O", "physical_data": {"Molecular Weight": "270.45", "Molecular Formula": "C17H34O2", "Boiling Point": "172-174 \u00b0C @ Press: 16 Torr"}}