{"cas_no": "41110-33-2", "cn_name": "5-\u7532\u57fa\u5421\u55ea-2-\u7fa7\u9178\u7532\u916f", "en_name": ["2-Pyrazinecarboxylic acid, 5-methyl-, methyl ester", "2-Pyrazinecarboxylic acid, 5-methyl-, methyl ester", "Pyrazinecarboxylic acid, 5-methyl-, methyl ester", "Methyl 5-methylpyrazine-2-carboxylate", "2-Methoxycarbonyl-5-methylpyrazine", "5-Methylpyrazine-2-carboxylic acid methyl ester"], "SMILES": "C(OC)(=O)C=1C=NC(C)=CN1", "physical_data": {"Molecular Weight": "152.15", "Molecular Formula": "C7H8N2O2", "Melting Point": "92 \u00b0C"}}