{"cas_no": "41110-34-3", "cn_name": "5-\u7532\u57fa\u5421\u55ea-2-\u7532\u9178\u4e59\u916f", "en_name": ["2-Pyrazinecarboxylic acid, 5-methyl-, ethyl ester", "2-Pyrazinecarboxylic acid, 5-methyl-, ethyl ester", "Pyrazinecarboxylic acid, 5-methyl-, ethyl ester", "5-Methylpyrazine-2-carboxylic acid ethyl ester", "Ethyl 5-methylpyrazine-2-carboxylate"], "SMILES": "C(OCC)(=O)C=1C=NC(C)=CN1", "physical_data": {"Molecular Weight": "166.18", "Molecular Formula": "C8H10N2O2", "Melting Point": "132-134 \u00b0C"}}