{"cas_no": "4112-89-4", "cn_name": "\u82ef\u4e59\u9178-2-\u7532\u6c27\u57fa\u82ef\u916f", "en_name": ["2-Methoxyphenyl benzeneacetate", "Benzeneacetic acid, 2-methoxyphenyl ester", "Acetic acid, phenyl-, o-methoxyphenyl ester", "2-Methoxyphenyl benzeneacetate", "Guaiacyl phenylacetate", "Guaiafenolo", "Gujaphenyl", "Gu-Nyl", "2-Methoxyphenyl phenylacetate", "Guaiacol phenylacetate"], "SMILES": "O(C(CC1=CC=CC=C1)=O)C2=C(OC)C=CC=C2", "physical_data": {"Molecular Weight": "242.27", "Molecular Formula": "C15H14O3", "Melting Point": "32 \u00b0C", "Density": "1.136 g/cm\u00b3"}}