{"cas_no": "41122-71-8", "cn_name": "4-\u5e9a\u57fa-4'-\u6c30\u57fa\u8054\u82ef", "en_name": ["4\u2032-Heptyl-4-cyanobiphenyl", "[1,1\u2032-Biphenyl]-4-carbonitrile, 4\u2032-heptyl-", "4\u2032-Heptyl[1,1\u2032-biphenyl]-4-carbonitrile", "4-Cyano-4\u2032-heptylbiphenyl", "4\u2032-Heptyl-4-cyanobiphenyl", "4\u2032-Heptyl-4-biphenylcarbonitrile", "4-Heptyl-4\u2032-cyanobiphenyl", "p-Cyano-p\u2032-heptylbiphenyl", "p-Heptyl-p\u2032-cyanobiphenyl", "p-n-Heptyl-p\u2032-cyanobiphenyl", "4\u2032-n-Heptyl-4-cyanobiphenyl", "p,p\u2032-n-Heptylcyanobiphenyl", "CB 7 (liquid crystal)", "CB 7", "4-Cyano-4\u2032-n-heptylbiphenyl", "7CB", "K 21 (liquid crystal)", "K 21", "4-Cyano-4\u2032-heptyl-1,1\u2032-biphenyl", "4-n-Heptyl-4\u2032-cyanobiphenyl", "4-Cyano-4\u2032-n-heptyl-1,1\u2032-biphenyl", "H 0812"], "SMILES": "C(CCCCCC)C1=CC=C(C=C1)C2=CC=C(C#N)C=C2", "physical_data": {"Molecular Weight": "277.40", "Molecular Formula": "C20H23N", "Boiling Point": "196-199 \u00b0C @ Press: 2 Torr", "Melting Point": "30 \u00b0C"}}