{"cas_no": "4112-03-2", "cn_name": "\u7532\u57fa\u78fa\u80fa\u9178", "en_name": ["Methylsulfamic acid", "Sulfamic acid, N-methyl-", "Sulfamic acid, methyl-", "N-Methylsulfamic acid", "Methylsulfamic acid", "NSC 54922"], "SMILES": "S(NC)(=O)(=O)O", "physical_data": {"Molecular Weight": "111.12", "Molecular Formula": "CH5NO3S", "Melting Point": "179 \u00b0C", "Density": "1.65 g/cm\u00b3"}}