{"cas_no": "41122-70-7", "cn_name": "4\u2019-\u5df1\u57fa-(1,1\u2019-\u8054\u82ef\u57fa)-4-\u8148", "en_name": ["6CB", "[1,1\u2032-Biphenyl]-4-carbonitrile, 4\u2032-hexyl-", "4\u2032-Hexyl[1,1\u2032-biphenyl]-4-carbonitrile", "4\u2032-Hexyl-4-biphenylcarbonitrile", "4-Cyano-4\u2032-hexylbiphenyl", "4-Hexyl-4\u2032-cyanobiphenyl", "4-Cyano-4\u2032-n-hexylbiphenyl", "4\u2032-Hexyl-4-cyanobiphenyl", "p-Hexyl-p\u2032-cyanobiphenyl", "4-Hexyl-4\u2032-cyanodiphenyl", "CB 6 (liquid crystal)", "CB 6", "K 18 (liquid crystal)", "K 18", "4\u2032-n-Hexyl-4-cyanobiphenyl", "6CB", "4-n-Hexyl-4\u2032-cyanobiphenyl", "4-Cyano-4\u2032-hexyl-1,1\u2032-biphenyl", "FR 2321"], "SMILES": "C(CCCCC)C1=CC=C(C=C1)C2=CC=C(C#N)C=C2", "physical_data": {"Molecular Weight": "263.38", "Molecular Formula": "C19H21N", "Boiling Point": "183-185 \u00b0C @ Press: 2 Torr", "Melting Point": "13.5 \u00b0C"}}