{"cas_no": "4113-12-6", "cn_name": "\u5341\u516d\u70f7\u919a", "en_name": ["Hexadecyl ether", "Hexadecane, 1-(hexadecyloxy)-", "Hexadecyl ether", "Hexadecane, 1,1\u2032-oxybis-", "1-(Hexadecyloxy)hexadecane", "Dihexadecyl ether", "Dicetyl ether", "NSC 77143", "Nacol Ether 16", "Di-n-hexadecyl ether", "1-Hexadecoxyhexadecane"], "SMILES": "O(CCCCCCCCCCCCCCCC)CCCCCCCCCCCCCCCC", "physical_data": {"Molecular Weight": "466.87", "Molecular Formula": "C32H66O", "Melting Point": "55 \u00b0C", "Density": "0.8110 g/cm\u00b3 @ Temp: 56 \u00b0C"}}