{"cas_no": "41131-65-1", "cn_name": "\u53cc\u4e59\u9170\u4e59\u9170-2-\u6c2f-5-\u7532\u57fa\u5bf9\u82ef\u4e8c\u80fa", "en_name": ["N,N\u2032-(2-Chloro-5-methyl-1,4-phenylene)bis[3-oxobutanamide]", "Butanamide, N,N\u2032-(2-chloro-5-methyl-1,4-phenylene)bis[3-oxo-", "Acetoacetamide, N,N\u2032-(2-chloro-5-methyl-p-phenylene)bis-", "N,N\u2032-(2-Chloro-5-methyl-1,4-phenylene)bis[3-oxobutanamide]", "1,4-Bis(acetoacetamido)-5-chloro-2-methylbenzene", "2-Chloro-5-methyl-1,4-bisacetoacetylaminobenzene", "2-Methyl-5-chloro-1,4-bis(acetoacetylamino)benzene", "5-Chloro-2-methyl-1,4-bis[(acetoacetyl)amino]benzene", "1,4-Bis(acetoacetamido)-2-chloro-5-methylbenzene", "1,4-Bis(acetoacetylamino)-2-chloro-5-methylbenzene", "N,N\u2032-(2-Chloro-5-methyl-1,4-phenylene)bis[3-oxobutyramide]"], "SMILES": "N(C(CC(C)=O)=O)C1=C(C)C=C(NC(CC(C)=O)=O)C(Cl)=C1", "physical_data": {"Molecular Weight": "324.76", "Molecular Formula": "C15H17ClN2O4", "Melting Point": "195-196 \u00b0C"}}