{"cas_no": "41148-79-2", "cn_name": "N-(2,5-\u4e8c\u6c27\u4ee3\u6c27\u6742\u620a\u73af-3-\u57fa)\u4e59\u9170\u80fa", "en_name": ["N-[(3S)-Tetrahydro-2,5-dioxo-3-furanyl]acetamide", "Acetamide, N-[(3S)-tetrahydro-2,5-dioxo-3-furanyl]-", "Acetamide, N-(tetrahydro-2,5-dioxo-3-furanyl)-, (S)-", "N-[(3S)-Tetrahydro-2,5-dioxo-3-furanyl]acetamide", "N-Acetyl-L-aspartic acid anhydride", "N-Acetyl-L-(S)-aspartic anhydride", "L-(S)-N-Acetylaspartic anhydride", "N-Acetyl-L-aspartic anhydride", "N-Acetylaspartyl anhydride"], "SMILES": "N(C(C)=O)C1CC(=O)OC1=O", "physical_data": {"Molecular Weight": "157.12", "Molecular Formula": "C6H7NO4", "Melting Point": "141 \u00b0C"}}