{"cas_no": "4114-28-7", "cn_name": "1,2-\u80bc\u4e8c\u7fa7\u9178\u4e8c\u4e59\u916f", "en_name": ["1,2-Diethyl 1,2-hydrazinedicarboxylate", "1,2-Hydrazinedicarboxylic acid, 1,2-diethyl ester", "Bicarbamic acid, diethyl ester", "1,2-Hydrazinedicarboxylic acid, diethyl ester", "1,2-Diethyl 1,2-hydrazinedicarboxylate", "s-Dicarbethoxyhydrazine", "Diethyl bicarbamate", "Diethyl hydrazodicarboxylate", "Diethyl 1,2-hydrazinedicarboxylate", "1,2-Bis(ethoxycarbonyl)hydrazine", "sym-Dicarbethoxyhydrazine", "1,2-Dicarbethoxyhydrazine", "Ethyl hydrazoformate", "N,N\u2032-Diethoxycarbonylhydrazine", "N,N\u2032-Bis(ethoxycarbonyl)hydrazine", "NSC 122715", "NSC 17295", "NSC 227421", "NSC 3002", "Hydrazodicarboxylic acid diethyl ester"], "SMILES": "C(NNC(OCC)=O)(OCC)=O", "physical_data": {"Molecular Weight": "176.17", "Molecular Formula": "C6H12N2O4", "Boiling Point": "180 \u00b0C @ Press: 1 Torr", "Melting Point": "135 \u00b0C", "Density": "1.324 g/cm\u00b3 @ Temp: -5 \u00b0C"}}