{"cas_no": "4114-31-2", "cn_name": "\u80bc\u57fa\u7532\u9178\u4e59\u916f", "en_name": ["Ethyl carbazate", "Hydrazinecarboxylic acid, ethyl ester", "Carbazic acid, ethyl ester", "1-Carbethoxyhydrazine", "Ethyl carbazate", "Ethyl carbazinate", "Ethyl hydrazinecarboxylate", "N-(Ethoxycarbonyl)hydrazine", "(Ethoxycarbonyl)hydrazine", "Ethoxycarbonyl hydrazide", "Carbethoxyhydrazine", "Monocarbethoxyhydrazine", "N-(Carbethoxy)hydrazine", "1-(Ethoxycarbonyl)hydrazine", "Ethyl hydrazinocarboxylate", "Ethyl hydrazinoformate", "NSC 2277", "NSC 52663"], "SMILES": "C(OCC)(NN)=O", "physical_data": {"Molecular Weight": "104.11", "Molecular Formula": "C3H8N2O2", "Boiling Point": "93 \u00b0C @ Press: 9 Torr", "Melting Point": "46 \u00b0C"}}