{"cas_no": "41150-48-5", "cn_name": "4'-(4-\u6c2f\u82ef\u6c27\u57fa)\u82ef\u4e59\u916e", "en_name": ["1-[4-(4-Chlorophenoxy)phenyl]ethanone", "Ethanone, 1-[4-(4-chlorophenoxy)phenyl]-", "1-[4-(4-Chlorophenoxy)phenyl]ethanone", "4\u2032-(4-Chlorophenoxy)acetophenone", "4-(4-Chlorophenoxy)acetophenone", "4\u2032-(p-Chlorophenoxy)acetophenone", "1-(4-(4-Chlorophenoxy)phenyl)ethan-1-one"], "SMILES": "O(C1=CC=C(C(C)=O)C=C1)C2=CC=C(Cl)C=C2", "physical_data": {"Molecular Weight": "246.69", "Molecular Formula": "C14H11ClO2", "Boiling Point": "165-171 \u00b0C @ Press: 4 Torr", "Melting Point": "63-65 \u00b0C"}}