{"cas_no": "41177-72-4", "cn_name": "5-BROMO-2,3-DIHYDROBENZOFURAN-7-CARBOXYLIC ACID", "en_name": ["5-Bromo-2,3-dihydro-7-benzofurancarboxylic acid", "7-Benzofurancarboxylic acid, 5-bromo-2,3-dihydro-", "5-Bromo-2,3-dihydro-7-benzofurancarboxylic acid", "5-Bromo-2,3-dihydrobenzofuran-7-carboxylic acid", "5-Bromo-2,3-dihydro-1-benzofuran-7-carboxylic acid"], "SMILES": "C(O)(=O)C1=C2C(=CC(Br)=C1)CCO2", "physical_data": {"Molecular Weight": "243.05", "Molecular Formula": "C9H7BrO3", "Melting Point": "228-229 \u00b0C"}}