{"cas_no": "41171-91-9", "cn_name": "3-\u6c27\u4ee3\u73af\u620a\u70f7\u7532\u8148", "en_name": ["3-Oxocyclopentanecarbonitrile", "Cyclopentanecarbonitrile, 3-oxo-", "3-Oxocyclopentanecarbonitrile", "3-Cyanocyclopentanone", "3-Oxocyclopentane-1-carbonitrile"], "SMILES": "C(#N)C1CC(=O)CC1", "physical_data": {"Molecular Weight": "109.13", "Molecular Formula": "C6H7NO", "Boiling Point": "250-270 \u00b0C @ Press: 1 Torr"}}