{"cas_no": "4118-36-9", "cn_name": "6,7-dimethoxy-1-phenyl-1,2,3,4-tetrahydroisoquinoline", "en_name": ["6,7-Dimethoxy-1-phenyl-1,2,3,4-tetrahydroisoquinoline", "Isoquinoline, 1,2,3,4-tetrahydro-6,7-dimethoxy-1-phenyl-", "1,2,3,4-Tetrahydro-6,7-dimethoxy-1-phenylisoquinoline", "6,7-Dimethoxy-1-phenyl-1,2,3,4-tetrahydroisoquinoline"], "SMILES": "O(C)C=1C=C2C(NCCC2=CC1OC)C3=CC=CC=C3", "physical_data": {"Molecular Weight": "269.34", "Molecular Formula": "C17H19NO2", "Melting Point": "112-113 \u00b0C"}}