{"cas_no": "4118-51-8", "cn_name": "\u666e\u745e\u5df4\u6797EP\u6742\u8d28D", "en_name": ["1-Methylethyl \u03b1-hydroxybenzeneacetate", "Benzeneacetic acid, \u03b1-hydroxy-, 1-methylethyl ester", "Mandelic acid, isopropyl ester", "1-Methylethyl \u03b1-hydroxybenzeneacetate", "Isopropyl mandelate", "(\u00b1)-Isopropyl mandelate", "(\u00b1)-Mandelic acid isopropyl ester", "NSC 6582", "Isopropyl 2-hydroxy-2-phenylacetate", "Mandelic acid isopropyl ester"], "SMILES": "C(C(OC(C)C)=O)(O)C1=CC=CC=C1", "physical_data": {"Molecular Weight": "194.23", "Molecular Formula": "C11H14O3", "Boiling Point": "142 \u00b0C @ Press: 20 Torr"}}