{"cas_no": "41198-08-7", "cn_name": "\u4e19\u6eb4\u78f7", "en_name": ["Profenofos", "Phosphorothioic acid, O-(4-bromo-2-chlorophenyl) O-ethyl S-propyl ester", "O-(4-Bromo-2-chlorophenyl) O-ethyl S-propyl phosphorothioate", "CGA 15324", "Profenofos", "Curacron", "O-Ethyl-S-n-propyl-O-(2-chloro-4-bromophenyl)thiophosphate", "Polycron", "Selecron", "O-Ethyl S-propyl O-(2-chloro-4-bromophenyl)thiophosphate", "Tambo", "Profenophos", "Carina", "Calofos", "Prowess", "Ictacron", "Sylian", "Teleton", "Cord (insecticide)", "Cord"], "SMILES": "O(P(SCCC)(OCC)=O)C1=C(Cl)C=C(Br)C=C1", "physical_data": {"Molecular Weight": "373.63", "Molecular Formula": "C11H15BrClO3PS", "Boiling Point": "100 \u00b0C @ Press: 0.0135 Torr", "Melting Point": "&lt;25 \u00b0C", "Density": "1.455 g/cm\u00b3 @ Temp: 20 \u00b0C"}}