{"cas_no": "41199-19-3", "cn_name": "\u9f99\u6d8e\u9187", "en_name": ["1,2,3,4,4a,5,6,7-Octahydro-2,5,5-trimethyl-2-naphthalenol", "2-Naphthalenol, 1,2,3,4,4a,5,6,7-octahydro-2,5,5-trimethyl-", "1,2,3,4,4a,5,6,7-Octahydro-2,5,5-trimethyl-2-naphthalenol", "Ambrinol", "1,2,3,4,4a,5,6,7-Octahydro-2,5,5-trimethyl-2-naphthol", "2,5,5-Trimethyl-1,2,3,4,4a,5,6,7-octahydronaphthalen-2-ol"], "SMILES": "CC1(C)C2C(CC(C)(O)CC2)=CCC1", "physical_data": {"Molecular Weight": "194.31", "Molecular Formula": "C13H22O", "Boiling Point": "72 \u00b0C @ Press: 0.25 Torr", "Density": "0.9647 g/cm\u00b3 @ Temp: 20 \u00b0C"}}