{"cas_no": "41205-21-4", "cn_name": "\u6c1f\u9170\u4e9a\u80fa", "en_name": ["Fluoroimide", "1H-Pyrrole-2,5-dione, 3,4-dichloro-1-(4-fluorophenyl)-", "3,4-Dichloro-1-(4-fluorophenyl)-1H-pyrrole-2,5-dione", "N-(4-Fluorophenyl)-2,3-dichloromaleimide", "2,3-Dichloro-N-(4-fluorophenyl)maleimide", "N-(4-Fluorophenyl)dichloromaleimide", "2,3-Dichloro-N-(p-fluorophenyl)maleimide", "N-(p-Fluorophenyl)-2,3-dichloromaleimide", "MK 23", "Spartcide", "Spat", "Fluoromide", "NSC 622384", "Fluoroimide", "3,4-Dichloro-1-(4-fluorophenyl)-2,5-dihydro-1H-pyrrole-2,5-dione"], "SMILES": "O=C1N(C(=O)C(Cl)=C1Cl)C2=CC=C(F)C=C2", "physical_data": {"Molecular Weight": "260.05", "Molecular Formula": "C10H4Cl2FNO2", "Melting Point": "241 \u00b0C"}}