{"cas_no": "41202-32-8", "cn_name": "1-(2-\u6c2f\u82ef\u57fa)\u54cc\u55ea\u76d0\u9178\u76d0", "en_name": ["Piperazine, 1-(2-chlorophenyl)-, hydrochloride (1:1)", "Piperazine, 1-(2-chlorophenyl)-, hydrochloride (1:1)", "Piperazine, 1-(2-chlorophenyl)-, monohydrochloride", "N-(2-Chlorophenyl)piperazine monohydrochloride", "1-(2-Chlorophenyl)piperazine monohydrochloride", "1-4-(2-Chlorophenyl)piperazine monohydrochloride"], "SMILES": "ClC1=C(N2CCNCC2)C=CC=C1.Cl", "physical_data": {"Molecular Weight": "", "Molecular Formula": "C10H13ClN2.ClH", "Melting Point": "159-162 \u00b0C"}}