{"cas_no": "41200-96-8", "cn_name": "2,4-\u4e8c\u6c2f-5-\u5f02\u4e19\u6c27\u57fa\u82ef\u80fa", "en_name": ["2,4-Dichloro-5-(1-methylethoxy)benzenamine", "Benzenamine, 2,4-dichloro-5-(1-methylethoxy)-", "2,4-Dichloro-5-(1-methylethoxy)benzenamine", "2,4-Dichloro-5-isopropoxyaniline", "2,4-Dichloro-5-isopropoxyphenylamine", "2,4-Dichloro-5-(propan-2-yloxy)aniline", "2,4-Dichloro-5-propan-2-yloxyaniline"], "SMILES": "O(C(C)C)C1=C(Cl)C=C(Cl)C(N)=C1", "physical_data": {"Molecular Weight": "220.10", "Molecular Formula": "C9H11Cl2NO", "Boiling Point": "102 \u00b0C @ Press: 0.1 Torr"}}