{"cas_no": "41202-77-1", "cn_name": "1-(2,3-\u4e8c\u6c2f\u82ef\u57fa)\u54cc\u55ea\u76d0\u9178\u76d0", "en_name": ["1-(2,3-Dichlorophenyl)piperazine", "Piperazine, 1-(2,3-dichlorophenyl)-", "1-(2,3-Dichlorophenyl)piperazine", "N-(2,3-Dichlorophenyl)piperazine", "4-(2,3-Dichlorophenyl)piperazine", "DCPP"], "SMILES": "ClC1=C(C=CC=C1Cl)N2CCNCC2", "physical_data": {"Molecular Weight": "231.12", "Molecular Formula": "C10H12Cl2N2", "Boiling Point": "128-130 \u00b0C @ Press: 0.5 Torr", "Melting Point": "239-242 \u00b0C"}}