{"cas_no": "4121-12-4", "cn_name": "\u786b\u4ee3\u4e8c\u7518\u9178\u4e8c\u6b63\u4e01\u916f", "en_name": ["1,1\u2032-Dibutyl 2,2\u2032-thiobis[acetate]", "Acetic acid, 2,2\u2032-thiobis-, 1,1\u2032-dibutyl ester", "Acetic acid, thiodi-, dibutyl ester", "Acetic acid, 2,2\u2032-thiobis-, dibutyl ester", "1,1\u2032-Dibutyl 2,2\u2032-thiobis[acetate]", "2-[(2-Butoxy-2-oxoethyl)thio]acetic acid butyl ester"], "SMILES": "C(C(OCCCC)=O)SCC(OCCCC)=O", "physical_data": {"Molecular Weight": "262.37", "Molecular Formula": "C12H22O4S", "Boiling Point": "131 \u00b0C @ Press: 2 Torr"}}