{"cas_no": "41219-16-3", "cn_name": "2,3,4-\u4e09\u7532\u6c27\u57fa\u82c4\u80fa", "en_name": ["2,3,4-Trimethoxybenzenemethanamine", "Benzenemethanamine, 2,3,4-trimethoxy-", "2,3,4-Trimethoxybenzenemethanamine", "2,3,4-Trimethoxybenzylamine", "(2,3,4-Trimethoxyphenyl)methanamine"], "SMILES": "O(C)C1=C(OC)C(OC)=CC=C1CN", "physical_data": {"Molecular Weight": "197.23", "Molecular Formula": "C10H15NO3", "Boiling Point": "87-89 \u00b0C @ Press: 0.2 Torr"}}