{"cas_no": "4121-16-8", "cn_name": "\u7678\u4e8c\u9178\u4e8c\u58ec\u916f", "en_name": ["Dinonyl sebacate", "Decanedioic acid, 1,10-dinonyl ester", "Sebacic acid, dinonyl ester", "Decanedioic acid, dinonyl ester", "Bisoflex DNS", "Dinonyl sebacate", "Di-n-Nonyl sebacate"], "SMILES": "C(C(OCCCCCCCCC)=O)CCCCCCCC(OCCCCCCCCC)=O", "physical_data": {"Molecular Weight": "454.73", "Molecular Formula": "C28H54O4", "Boiling Point": "215-218 \u00b0C @ Press: 0.15 Torr"}}