{"cas_no": "4121-40-8", "cn_name": "((E)-9 - (\u4e19-1 - \u70ef\u57fa)-9H-\u560c\u5464-6 - \u80fa)", "en_name": ["9-(1-Propen-1-yl)-9H-purin-6-amine", "9H-Purin-6-amine, 9-(1-propen-1-yl)-", "Adenine, 9-propenyl-", "9H-Purin-6-amine, 9-(1-propenyl)-", "9-(1-Propen-1-yl)-9H-purin-6-amine"], "SMILES": "C(=CC)N1C=2C(=C(N)N=CN2)N=C1", "physical_data": {"Molecular Weight": "175.19", "Molecular Formula": "C8H9N5", "Melting Point": "197 \u00b0C"}}