{"cas_no": "4122-57-0", "cn_name": "3-\u7532\u6c27\u57fa\u82ef\u915e", "en_name": ["3-Methoxyphthalide", "1(3H)-Isobenzofuranone, 3-methoxy-", "Phthalide, 3-methoxy-", "3-Methoxy-1(3H)-isobenzofuranone", "3-Methoxyphthalide", "3-Methoxy-3H-isobenzofuran-1-one", "NSC 408564", "3-Methoxy-2-benzofuran-1(3H)-one", "3-Methoxy-3H-2-benzofuran-1-one", "3-Methoxy-1,3-dihydro-2-benzofuran-1-one"], "SMILES": "O(C)C1C=2C(C(=O)O1)=CC=CC2", "physical_data": {"Molecular Weight": "164.16", "Molecular Formula": "C9H8O3", "Melting Point": "44-45 \u00b0C"}}