{"cas_no": "4122-68-3", "cn_name": "4-\u6c2f\u82ef\u6c27\u57fa\u4e59\u9170\u6c2f", "en_name": ["(4-Chlorophenoxy)acetyl chloride", "Acetyl chloride, 2-(4-chlorophenoxy)-", "Acetyl chloride, (p-chlorophenoxy)-", "Acetyl chloride, (4-chlorophenoxy)-", "2-(4-Chlorophenoxy)acetyl chloride", "(p-Chlorophenoxy)acetyl chloride", "(4-Chlorophenoxy)acetyl chloride", "(4-Chlorophenoxy)acetic acid chloride", "NSC 20549"], "SMILES": "O(CC(Cl)=O)C1=CC=C(Cl)C=C1", "physical_data": {"Molecular Weight": "205.04", "Molecular Formula": "C8H6Cl2O2", "Boiling Point": "167-174 \u00b0C @ Press: 59-61 Torr", "Melting Point": "159-161 \u00b0C"}}