{"cas_no": "4122-04-7", "cn_name": "2-\u6c28\u57fa-1,3,5-\u4e09\u55ea", "en_name": ["1,3,5-Triazin-2-amine", "1,3,5-Triazin-2-amine", "s-Triazine, 2-amino-", "Aminotriazine", "2-Amino-1,3,5-triazine", "2-Amino-s-triazine", "NSC 54656", "Amino-1,3,5-triazine"], "SMILES": "NC=1N=CN=CN1", "physical_data": {"Molecular Weight": "96.09", "Molecular Formula": "C3H4N4", "Boiling Point": "195-205 \u00b0C", "Melting Point": "224 \u00b0C (decomp)"}}