{"cas_no": "41234-43-9", "cn_name": "1,2,3,4-\u56db\u6c22\u5f02\u55b9\u5549-3-\u7fa7\u9178\u4e59\u916f", "en_name": ["Ethyl 1,2,3,4-tetrahydro-3-isoquinolinecarboxylate", "3-Isoquinolinecarboxylic acid, 1,2,3,4-tetrahydro-, ethyl ester", "Ethyl 1,2,3,4-tetrahydro-3-isoquinolinecarboxylate", "Ethyl 1,2,3,4-tetrahydroisoquinoline-3-carboxylate", "(\u00b1)-Ethyl 1,2,3,4-tetrahydroisoquinoline-3-carboxylate", "1,2,3,4-Tetrahydroisoquinoline-3-carboxylic acid ethyl ester"], "SMILES": "C(OCC)(=O)C1CC=2C(CN1)=CC=CC2", "physical_data": {"Molecular Weight": "205.25", "Molecular Formula": "C12H15NO2", "Boiling Point": "120 \u00b0C @ Press: 1 Torr", "Melting Point": "204 \u00b0C"}}