{"cas_no": "4124-30-5", "cn_name": "\u4e8c\u6c2f\u4e59\u9178\u9150", "en_name": ["Acetic acid, 2,2-dichloro-, 1,1\u2032-anhydride", "Acetic acid, 2,2-dichloro-, 1,1\u2032-anhydride", "Acetic acid, dichloro-, anhydride", "Dichloroacetic anhydride", "Dichloroacetic acid anhydride", "NSC 401832", "2,2-Dichloroacetic anhydride", "2,2-Dichloroacetyl 2,2-dichloroacetate"], "SMILES": "C(OC(C(Cl)Cl)=O)(C(Cl)Cl)=O", "physical_data": {"Molecular Weight": "239.87", "Molecular Formula": "C4H2Cl4O3", "Boiling Point": "100-102 \u00b0C @ Press: 15 Torr", "Melting Point": "17-18 \u00b0C"}}