{"cas_no": "4124-31-6", "cn_name": "\u4e09\u6c2f\u4e59\u9178\u9150", "en_name": ["Trichloroacetic anhydride", "Acetic acid, 2,2,2-trichloro-, 1,1\u2032-anhydride", "Acetic acid, trichloro-, anhydride", "Trichloroacetic anhydride", "Trichloracetic anhydride", "Trichloroacetic acid anhydride", "(2,2,2-Trichloroacetyl) 2,2,2-trichloroacetate"], "SMILES": "O(C(C(Cl)(Cl)Cl)=O)C(C(Cl)(Cl)Cl)=O", "physical_data": {"Molecular Weight": "308.76", "Molecular Formula": "C4Cl6O3", "Boiling Point": "96-100 \u00b0C @ Press: 10-11 Torr"}}