{"cas_no": "41248-23-1", "cn_name": "1-\u7f9f\u57fa-1-\u73af\u620a\u57fa\u7532\u9178\u4e59\u916f", "en_name": ["Cyclopentanecarboxylic acid, 1-hydroxy-, ethyl ester", "Cyclopentanecarboxylic acid, 1-hydroxy-, ethyl ester", "Ethyl 1-hydroxycyclopentanecarboxylate"], "SMILES": "C(OCC)(=O)C1(O)CCCC1", "physical_data": {"Molecular Weight": "158.20", "Molecular Formula": "C8H14O3", "Boiling Point": "83.5-84.5 \u00b0C @ Press: 12 Torr"}}