{"cas_no": "4124-41-8", "cn_name": "4-\u7532\u82ef\u78fa\u9178\u9150", "en_name": ["p-Toluenesulfonic anhydride", "Benzenesulfonic acid, 4-methyl-, 1,1\u2032-anhydride", "p-Toluenesulfonic anhydride", "Benzenesulfonic acid, 4-methyl-, anhydride", "p-Toluenesulfonic acid anhydride", "4-Toluenesulfonic anhydride", "Tosylic anhydride", "4-Toluenesulfonic acid anhydride", "Toluenesulfonic anhydride", "4-Methylphenylsulfonic anhydride", "p-Toluenesulfonyl anhydride", "4-Methylbenzenesulfonic acid anhydride", "Toluene-4-sulfonic acid ahnydride", "(4-Methylphenyl)sulfonyl 4-methylbenzenesulfonate", "1,3-Bis(4-methylphenyl)-1,1,3,3-tetraoxo-1\u03bb6,3\u03bb6-dithioxane", "4-Methylbenzenesulfonic anhydride", "Ts2O", "p-Tolylsulfonyl 4-methylbenzenesulfonate"], "SMILES": "S(OS(=O)(=O)C1=CC=C(C)C=C1)(=O)(=O)C2=CC=C(C)C=C2", "physical_data": {"Molecular Weight": "326.39", "Molecular Formula": "C14H14O5S2", "Melting Point": "122-125 \u00b0C (decomp)"}}