{"cas_no": "4124-88-3", "cn_name": "3-\u58ec\u70ef\u9178", "en_name": ["3-Nonenoic acid", "3-Nonenoic acid"], "SMILES": "C(CCCCC)=CCC(O)=O", "physical_data": {"Molecular Weight": "156.22", "Molecular Formula": "C9H16O2", "Boiling Point": "114-115 \u00b0C @ Press: 2 Torr", "Density": "0.9290 g/cm\u00b3 @ Temp: 20 \u00b0C"}}