{"cas_no": "4125-25-1", "cn_name": "\u4e09\u53d4\u4e01\u81a6", "en_name": ["Triisobutylphosphine", "Phosphine, tris(2-methylpropyl)-", "Phosphine, triisobutyl-", "Tris(2-methylpropyl)phosphine", "Triisobutylphosphine"], "SMILES": "P(CC(C)C)(CC(C)C)CC(C)C", "physical_data": {"Molecular Weight": "202.32", "Molecular Formula": "C12H27P", "Boiling Point": "126 \u00b0C @ Press: 50 Torr"}}