{"cas_no": "41252-97-5", "cn_name": "4-\u7898-2-\u785d\u57fa\u7532\u82ef", "en_name": ["4-Iodo-2-nitrotoluene", "Benzene, 4-iodo-1-methyl-2-nitro-", "4-Iodo-1-methyl-2-nitrobenzene", "4-Iodo-2-nitrotoluene", "3-Iodo-6-methylnitrobenzene", "1-Iodo-4-methyl-3-nitrobenzene", "4-Methyl-3-nitrophenyl iodide"], "SMILES": "N(=O)(=O)C1=C(C)C=CC(I)=C1", "physical_data": {"Molecular Weight": "263.03", "Molecular Formula": "C7H6INO2", "Melting Point": "52-53 \u00b0C"}}