{"cas_no": "41252-96-4", "cn_name": "2-\u6c2f-1-\u7898-4-\u785d\u57fa\u82ef", "en_name": ["2-Chloro-1-iodo-4-nitrobenzene", "Benzene, 2-chloro-1-iodo-4-nitro-", "2-Chloro-1-iodo-4-nitrobenzene", "3-Chloro-4-iodonitrobenzene", "NSC 83313", "1-Chloro-2-iodo-5-nitrobenzene", "2-Chloro-4-nitrophenyl iodide"], "SMILES": "N(=O)(=O)C1=CC(Cl)=C(I)C=C1", "physical_data": {"Molecular Weight": "283.45", "Molecular Formula": "C6H3ClINO2", "Melting Point": "103 \u00b0C"}}