{"cas_no": "41267-76-9", "cn_name": "\u9999\u8c46\u7d20 102", "en_name": ["2,3,6,7-Tetrahydro-9-methyl-1H,5H,11H-[1]benzopyrano[6,7,8-ij]quinolizin-11-one", "1H,5H,11H-[1]Benzopyrano[6,7,8-ij]quinolizin-11-one, 2,3,6,7-tetrahydro-9-methyl-", "2,3,6,7-Tetrahydro-9-methyl-1H,5H,11H-[1]benzopyrano[6,7,8-ij]quinolizin-11-one", "Coumarin 102", "Exciton 480", "Coumarin 480", "C 102", "2,3,6,7-Tetrahydro-9-methyl-1H,5H-quinolizino[9,1-gh]coumarin", "K 102", "NSC 290431"], "SMILES": "CC=1C=2C(=C3C4=C(C2)CCCN4CCC3)OC(=O)C1", "physical_data": {"Molecular Weight": "255.31", "Molecular Formula": "C16H17NO2", "Melting Point": "94-96 \u00b0C"}}