{"cas_no": "41264-06-6", "cn_name": "4,6-\u4e8c\u7532\u57fa\u9614\u9a6c\u9178\u7532\u916f", "en_name": ["Methyl 4,6-dimethyl-2-oxo-2H-pyran-5-carboxylate", "2H-Pyran-5-carboxylic acid, 4,6-dimethyl-2-oxo-, methyl ester", "Methyl 4,6-dimethyl-2-oxo-2H-pyran-5-carboxylate", "Methyl 4,6-dimethyl-2-pyrone-5-carboxylate", "Isodehydroacetic acid methyl ester", "Methyl isodehydroacetate", "2,4-Dimethyl-6-oxo-6H-pyran-3-carboxylic acid methyl ester"], "SMILES": "C(OC)(=O)C=1C(C)=CC(=O)OC1C", "physical_data": {"Molecular Weight": "182.17", "Molecular Formula": "C9H10O4", "Boiling Point": "150-160 \u00b0C @ Press: 10 Torr", "Melting Point": "67 \u00b0C"}}