{"cas_no": "41263-94-9", "cn_name": "2'-\u5ca9\u85fb\u7cd6\u57fa\u4e73\u7cd6", "en_name": ["2\u2032-Fucosyllactose", "D-Glucose, O-6-deoxy-\u03b1-L-galactopyranosyl-(1\u21922)-O-\u03b2-D-galactopyranosyl-(1\u21924)-", "Lactose, 2\u2032-O-fucosyl-", "O-6-Deoxy-\u03b1-L-galactopyranosyl-(1\u21922)-O-\u03b2-D-galactopyranosyl-(1\u21924)-D-glucose", "2\u2032-Fucosyllactose", "2\u2032-O-Fucosyllactose", "Glycare 2\u2032FL 9000", "Aequival"], "SMILES": "O(C(C(C(C=O)O)O)C(CO)O)C1C(OC2C(O)C(O)C(O)C(C)O2)C(O)C(O)C(CO)O1", "physical_data": {"Molecular Weight": "488.44", "Molecular Formula": "C18H32O15", "Melting Point": "230-231 \u00b0C (decomp)", "Density": "1.548 g/cm\u00b3"}}