{"cas_no": "4127-47-3", "cn_name": "1,1,2,2-\u56db\u7532\u57fa\u73af\u4e19\u70f7", "en_name": ["1,1,2,2-Tetramethylcyclopropane", "Cyclopropane, 1,1,2,2-tetramethyl-", "1,1,2,2-Tetramethylcyclopropane"], "SMILES": "CC1(C)C(C)(C)C1", "physical_data": {"Molecular Weight": "98.19", "Molecular Formula": "C7H14", "Boiling Point": "75 \u00b0C @ Press: 747 Torr", "Density": "0.7188 g/cm\u00b3 @ Temp: 20 \u00b0C"}}