{"cas_no": "4128-37-4", "cn_name": "1,3-\u4e8c\u5f02\u4e19\u57fa\u8132", "en_name": ["N,N\u2032-Bis(1-methylethyl)urea", "Urea, N,N\u2032-bis(1-methylethyl)-", "Urea, 1,3-diisopropyl-", "N,N\u2032-Bis(1-methylethyl)urea", "1,3-Diisopropylurea", "N,N\u2032-Diisopropylurea", "Diptocarpamidine", "NSC 112719", "1,3-Di(propan-2-yl)urea", "1,3-Bis(propan-2-yl)urea"], "SMILES": "N(C(NC(C)C)=O)C(C)C", "physical_data": {"Molecular Weight": "144.21", "Molecular Formula": "C7H16N2O", "Melting Point": "192 \u00b0C"}}