{"cas_no": "41283-72-1", "cn_name": "\u5e03\u6d1b\u82ac\u6742\u8d2830", "en_name": ["Ethyl \u03b1-methyl-4-(2-methylpropyl)benzeneacetate", "Benzeneacetic acid, \u03b1-methyl-4-(2-methylpropyl)-, ethyl ester", "Hydratropic acid, p-isobutyl-, ethyl ester", "Ethyl \u03b1-methyl-4-(2-methylpropyl)benzeneacetate", "Ethyl 2-(p-isobutylphenyl)propionate", "2-(4-Isobutylphenyl)propionic acid ethyl ester", "Ethyl 4-isobutyl-\u03b1-methylphenylacetate", "Ethyl 2-(4-isobutylphenyl)propionate", "Ibuprofen ethyl ester"], "SMILES": "C(C(OCC)=O)(C)C1=CC=C(CC(C)C)C=C1", "physical_data": {"Molecular Weight": "234.33", "Molecular Formula": "C15H22O2", "Boiling Point": "260-262 \u00b0C"}}