{"cas_no": "41294-56-8", "cn_name": "\u963f\u6cd5\u9aa8\u5316\u9187", "en_name": ["Alfacalcidol", "1,3-Cyclohexanediol, 5-[(2E)-2-[(1R,3aS,7aR)-1-[(1R)-1,5-dimethylhexyl]octahydro-7a-methyl-4H-inden-4-ylidene]ethylidene]-4-methylene-, (1R,3R)-", "9,10-Secocholesta-5,7,10(19)-triene-1,3-diol, (1\u03b1,3\u03b2,5Z,7E)-", "(1R,3R)-5-[(2E)-2-[(1R,3aS,7aR)-1-[(1R)-1,5-Dimethylhexyl]octahydro-7a-methyl-4H-inden-4-ylidene]ethylidene]-4-methylene-1,3-cyclohexanediol", "1\u03b1-Hydroxycholecalciferol", "1\u03b1-Hydroxyvitamin D3", "1-Hydroxycholecalciferol", "1-Hydroxyvitamin D3", "Alfacalcidol", "Un Alpha", "\u03b1-Calcidol", "Alfarol", "Alphacalcidol", "Oxydevit", "Alpharol", "Bondiol", "Un Alfa", "Etalpha", "1\u03b1(OH)D3", "Alpha D3", "EinsAlpha", "(1S)-Hydroxycalciol", "Tevabone"], "SMILES": "CC12C(C(=CC=C3C(=C)C(O)CC(O)C3)CCC1)CCC2C(CCCC(C)C)C", "physical_data": {"Molecular Weight": "400.64", "Molecular Formula": "C27H44O2", "Melting Point": "136 \u00b0C"}}