{"cas_no": "41292-65-3", "cn_name": "1H-\u82ef\u5e76\u54aa\u5511-5-\u9187", "en_name": ["5-Hydroxybenzimidazole", "1H-Benzimidazol-6-ol", "1H-Benzimidazol-5-ol", "5(or 6)-Benzimidazolol", "5-Hydroxybenzimidazole", "5-Benzimidazolol", "1H-Benzo[d]imidazol-6-ol", "1H-1,3-Benzodiazol-6-ol", "1H-1,3-Benzodiazol-5-ol"], "SMILES": "OC=1C=C2C(=CC1)NC=N2", "physical_data": {"Molecular Weight": "134.14", "Molecular Formula": "C7H6N2O", "Melting Point": "220-222 \u00b0C"}}