{"cas_no": "41295-28-7", "cn_name": "\u82ef\u7532\u916e", "en_name": ["Methoxyphenone", "Methanone, (4-methoxy-3-methylphenyl)(3-methylphenyl)-", "(4-Methoxy-3-methylphenyl)(3-methylphenyl)methanone", "4-Methoxy-3,3\u2032-dimethylbenzophenone", "3,3\u2032-Dimethyl-4-methoxybenzophenone", "NK 049", "4-Methoxy-3-methylphenyl 3-methylphenyl ketone", "Methoxyphenone", "Kayacure MBP", "(4-Methoxy-3-methylphenyl)(m-tolyl)methanone"], "SMILES": "C(=O)(C1=CC(C)=C(OC)C=C1)C2=CC(C)=CC=C2", "physical_data": {"Molecular Weight": "240.30", "Molecular Formula": "C16H16O2", "Melting Point": "62.3 \u00b0C"}}