{"cas_no": "41295-20-9", "cn_name": "4-\u6c28\u57fa-4'-\u7532\u57fa\u4e8c\u82ef\u57fa\u919a", "en_name": ["4-(4-Methylphenoxy)benzenamine", "Benzenamine, 4-(4-methylphenoxy)-", "4-(4-Methylphenoxy)benzenamine", "p-(p-Tolyloxy)aniline", "4-Amino-4\u2032-methyldiphenyl ether", "4-Aminophenyl 4-methylphenyl ether", "4-(4-Methylphenoxy)aniline", "NSC 509659", "4-(4-Tolyloxy)aniline", "4-(p-Tolyloxy)phenylamine", "4-[(4-Methylphenyl)oxy]aniline", "4-(p-Tolyloxy)aniline"], "SMILES": "O(C1=CC=C(C)C=C1)C2=CC=C(N)C=C2", "physical_data": {"Molecular Weight": "199.25", "Molecular Formula": "C13H13NO", "Melting Point": "126 \u00b0C"}}