{"cas_no": "4130-08-9", "cn_name": "\u4e09\u4e59\u9170\u6c27\u57fa\u4e59\u70ef\u57fa\u7845\u70f7", "en_name": ["Vinyltriacetoxysilane", "Silanetriol, 1-ethenyl-, 1,1,1-triacetate", "Silanetriol, vinyl-, triacetate", "Silanetriol, ethenyl-, triacetate", "Vinyltriacetoxysilane", "Triacetoxyvinylsilane", "Z 6075", "SH 6075", "(Triacetyloxy)vinylsilane", "LS 2040", "Vinylsilane triacetate", "SZ 6075", "AP 3000", "NSC 93913", "Geniosil GF 62", "SHC 001B", "OFS 6075", "Xiameter OFS 6075", "[Diacetyloxy(ethenyl)silyl] acetate"], "SMILES": "[Si](OC(C)=O)(OC(C)=O)(OC(C)=O)C=C", "physical_data": {"Molecular Weight": "232.26", "Molecular Formula": "C8H12O6Si", "Boiling Point": "112-113 \u00b0C @ Press: 1 Torr", "Density": "1.167 g/cm\u00b3"}}