{"cas_no": "4130-54-5", "cn_name": "\u786c\u8102\u9170\u80bc", "en_name": ["Stearic acid, hydrazide", "Octadecanoic acid, hydrazide", "Stearic acid, hydrazide", "Stearohydrazide", "Stearoylhydrazine", "NSC 67213", "Stearic hydrazide"], "SMILES": "C(CCCCCCCCCCCC)CCCCC(NN)=O", "physical_data": {"Molecular Weight": "298.51", "Molecular Formula": "C18H38N2O", "Melting Point": "114 \u00b0C"}}