{"cas_no": "41306-45-0", "cn_name": "1,2-\u4e8c\u7532\u57fa-2-\u5f02\u786b\u8132\u6c22\u7898\u9178\u76d0", "en_name": ["Carbamimidothioic acid, N-methyl-, methyl ester, hydriodide (1:1)", "Carbamimidothioic acid, N-methyl-, methyl ester, hydriodide (1:1)", "Carbamimidothioic acid, methyl-, methyl ester, monohydriodide", "Pseudourea, 1,2-dimethyl-2-thio-, hydriodide", "Pseudourea, 2,3-dimethyl-2-thio-, hydriodide", "N,S-Dimethylthiopseudourea hydriodide", "N,S-Dimethylthiopseudourea hydrogen iodide", "N,S-Dimethylisothiourea hydroiodide", "N,S-Dimethylisothiourea hydriodide", "S,N-Dimethylisothiourea hydriodide", "N,S-Dimethylthiouronium iodide", "1,2-Dimethylisothiourea hydroiodide"], "SMILES": "C(NC)(SC)=N.I", "physical_data": {"Molecular Weight": "", "Molecular Formula": "C3H8N2S.HI", "Melting Point": "135 \u00b0C"}}