{"cas_no": "41302-34-5", "cn_name": "2-\u6c27\u73af\u5df1\u70f7\u7fa7\u9178\u7532\u916f", "en_name": ["Cyclohexanecarboxylic acid, 2-oxo-, methyl ester", "Cyclohexanecarboxylic acid, 2-oxo-, methyl ester", "Methyl 2-cyclohexanonecarboxylate", "Methyl 2-oxocyclohexanecarboxylate", "2-Carbomethoxycyclohexanone", "2-(Methoxycarbonyl)cyclohexanone", "Methyl 2-oxo-1-cyclohexanecarboxylate", "Methyl 2-oxocyclohexylcarboxylate", "2-Oxocyclohexanecarboxylic acid methyl ester"], "SMILES": "C(OC)(=O)C1C(=O)CCCC1", "physical_data": {"Molecular Weight": "156.18", "Molecular Formula": "C8H12O3", "Boiling Point": "95-107 \u00b0C @ Press: 30 Torr", "Melting Point": "75-78 \u00b0C"}}