{"cas_no": "41302-05-0", "cn_name": "2-(4-\u6c2f\u4e01\u6c27\u57fa)\u56db\u6c22\u5421\u5583", "en_name": ["2-(4-Chlorobutoxy)tetrahydro-2H-pyran", "2H-Pyran, 2-(4-chlorobutoxy)tetrahydro-", "Pyran, 2-(4-chlorobutoxy)tetrahydro-", "2-(4-Chlorobutoxy)tetrahydro-2H-pyran", "4-Chloro-1-(tetrahydropyranyloxy)butane", "2-(4-Chlorobutoxy)tetrahydropyran", "1-Chloro-4-(tetrahydropyranyloxy)butane", "4-Chlorobutyl tetrahydropyranyl ether", "4-Chlorobutanol tetrahydropyranyl ether", "4-(Tetrahydro-2-pyranyloxy)-1-chlorobutane", "4-Chloro-1-butanol tetrahydropyranyl ether", "2-(4-Chlorobutyloxy)tetrahydropyran", "2-(4-Chlorobutoxy)oxane"], "SMILES": "O(CCCCCl)C1CCCCO1", "physical_data": {"Molecular Weight": "192.68", "Molecular Formula": "C9H17ClO2", "Boiling Point": "105 \u00b0C @ Press: 10 Torr", "Density": "1.0648 g/cm\u00b3 @ Temp: 24 \u00b0C"}}