{"cas_no": "4130-42-1", "cn_name": "2,6-\u4e8c\u53d4\u4e01\u57fa-4-\u4e59\u57fa\u82ef\u915a", "en_name": ["2,6-Di-tert-butyl-4-ethylphenol", "Phenol, 2,6-bis(1,1-dimethylethyl)-4-ethyl-", "Phenol, 2,6-di-tert-butyl-4-ethyl-", "2,6-Bis(1,1-dimethylethyl)-4-ethylphenol", "2,6-Di-tert-butyl-4-ethylphenol", "Ionol 2", "Yoshinox 250", "4-Ethyl-2,6-di-tert-butylphenol", "Nocrac M 17", "Sandant 425", "Noclizer M 17", "NSC 14453", "BHEB", "DBEP", "2,6-Di-tert-butyl-p-ethylphenol", "2,6-Ditert-butyl-4-ethylphenol", "Antioxidant 698"], "SMILES": "C(C)(C)(C)C1=C(O)C(C(C)(C)C)=CC(CC)=C1", "physical_data": {"Molecular Weight": "234.38", "Molecular Formula": "C16H26O", "Boiling Point": "272 \u00b0C", "Melting Point": "44 \u00b0C"}}