{"cas_no": "41318-75-6", "cn_name": "2,4,4'-\u4e09\u6eb4\u8054\u82ef\u919a", "en_name": ["BDE 28", "Benzene, 2,4-dibromo-1-(4-bromophenoxy)-", "Ether, p-bromophenyl 2,4-dibromophenyl", "2,4-Dibromo-1-(4-bromophenoxy)benzene", "2,4,4\u2032-Tribromodiphenyl ether", "BDE 28", "PBDE 28"], "SMILES": "O(C1=C(Br)C=C(Br)C=C1)C2=CC=C(Br)C=C2", "physical_data": {"Molecular Weight": "406.90", "Molecular Formula": "C12H7Br3O", "Boiling Point": "370 \u00b0C"}}