{"cas_no": "41317-15-1", "cn_name": "2-\u7532\u57fa-4-\u7532\u6c27\u57fa\u4e8c\u82ef\u80fa", "en_name": ["4-Methoxy-2-methyl-N-phenylbenzenamine", "Benzenamine, 4-methoxy-2-methyl-N-phenyl-", "p-Anisidine, 2-methyl-N-phenyl-", "4-Methoxy-2-methyl-N-phenylbenzenamine", "2-Methyl-4-methoxydiphenylamine", "3-Methoxy-6-anilinotoluene", "4-Methoxy-2-methyldiphenylamine", "6-Anilino-3-methoxytoluene", "N-(2-Methyl-4-methoxyphenyl)aniline", "4-Methoxy-2-methyl-N-phenylaniline", "N-(4-Methoxy-2-methylphenyl)-N-phenylamine"], "SMILES": "N(C1=C(C)C=C(OC)C=C1)C2=CC=CC=C2", "physical_data": {"Molecular Weight": "213.27", "Molecular Formula": "C14H15NO", "Boiling Point": "165-171 \u00b0C @ Press: 4 Torr", "Melting Point": "82 \u00b0C"}}