{"cas_no": "4131-74-2", "cn_name": "3,3'-\u786b\u4ee3\u4e8c\u4e19\u9178\u4e8c\u7532\u916f", "en_name": ["Dimethyl 3,3\u2032-thiodipropionate", "Propanoic acid, 3,3\u2032-thiobis-, 1,1\u2032-dimethyl ester", "Propanoic acid, 3,3\u2032-thiobis-, dimethyl ester", "Propionic acid, 3,3\u2032-thiodi-, dimethyl ester", "Dimethyl 3,3\u2032-thiodipropionate", "Dimethyl thiodipropionate", "Thiodipropionic acid dimethyl ester", "Bis(2-methoxycarbonylethyl) sulfide", "\u03b2,\u03b2\u2032-Dicarbomethoxydiethyl sulfide", "3,3\u2032-Thiobis(methyl propionate)", "NSC 2244", "NSC 35224", "Mark 5152"], "SMILES": "C(CSCCC(OC)=O)C(OC)=O", "physical_data": {"Molecular Weight": "206.26", "Molecular Formula": "C8H14O4S", "Boiling Point": "148.5-149 \u00b0C @ Press: 8 Torr", "Density": "1.156 g/cm\u00b3 @ Temp: 20 \u00b0C"}}