{"cas_no": "4132-48-3", "cn_name": "4-\u5f02\u4e19\u57fa\u82ef\u7532\u919a", "en_name": ["4-Isopropylanisole", "Benzene, 1-methoxy-4-(1-methylethyl)-", "Anisole, p-isopropyl-", "1-Methoxy-4-(1-methylethyl)benzene", "p-Isopropylanisole", "p-Methoxyisopropylbenzene", "p-Methoxycumene", "2-(p-Methoxyphenyl)propane", "4-Methoxyisopropylbenzene", "4-Isopropylanisole", "1-Methoxy-4-isopropylbenzene", "4-Isopropylphenol methyl ether", "1-Isopropyl-4-methoxybenzene", "4-Methoxycumene", "1-Methoxy-4-propan-2-ylbenzene", "1-Methoxy-4-(propan-2-yl)benzene"], "SMILES": "C(C)(C)C1=CC=C(OC)C=C1", "physical_data": {"Molecular Weight": "150.22", "Molecular Formula": "C10H14O", "Boiling Point": "212-215 \u00b0C", "Melting Point": "60-61 \u00b0C", "Density": "0.9448 g/cm\u00b3 @ Temp: 20 \u00b0C"}}