{"cas_no": "4132-86-9", "cn_name": "N-CBZ-DL-\u4e19\u6c28\u9178", "en_name": ["N-(Benzyloxycarbonyl)-DL-alanine", "Alanine, N-[(phenylmethoxy)carbonyl]-", "Alanine, N-carboxy-, N-benzyl ester, DL-", "DL-Alanine, N-carboxy-, N-benzyl ester", "N-[(Phenylmethoxy)carbonyl]alanine", "N-(Benzyloxycarbonyl)-DL-alanine", "N-Carbobenzoxy-DL-alanine", "Benzyloxycarbonyl-DL-alanine", "N-Benzoxycarbonyl-DL-alanine", "DL-(Carbobenzyloxy)alanine", "N-Carbobenzyloxy-DL-alanine", "NSC 27684", "N-Cbz-DL-alanine", "Z-DL-Ala-OH", "2-[(Benzyloxycarbonyl)amino]propanoic acid", "DL-Cbz alanine"], "SMILES": "C(OC(NC(C(O)=O)C)=O)C1=CC=CC=C1", "physical_data": {"Molecular Weight": "223.23", "Molecular Formula": "C11H13NO4", "Melting Point": "114-115 \u00b0C"}}