{"cas_no": "4133-34-0", "cn_name": "7-\u7532\u6c27\u57fa-2-\u8418\u6ee1\u916e", "en_name": ["7-Methoxy-2-tetralone", "2(1H)-Naphthalenone, 3,4-dihydro-7-methoxy-", "3,4-Dihydro-7-methoxy-2(1H)-naphthalenone", "7-Methoxy-2-tetralone", "7-Methoxy-\u03b2-tetralone", "7-Methoxy-3,4-dihydro-1H-naphthalen-2-one", "7-Methoxy-1,2,3,4-tetrahydronaphthalen-2-one", "7-Methoxy-3,4-dihydronaphthalen-2(1H)-one", "7-Methoxy-2-tetralinone"], "SMILES": "O(C)C=1C=C2C(=CC1)CCC(=O)C2", "physical_data": {"Molecular Weight": "176.21", "Molecular Formula": "C11H12O2", "Boiling Point": "123-125 \u00b0C @ Press: 0.4 Torr", "Melting Point": "23-24 \u00b0C"}}