{"cas_no": "4133-35-1", "cn_name": "6-\u6eb4-3,4-\u4e8c\u6c22-1H-2-\u8418\u916e", "en_name": ["6-Bromo-2-tetralone", "2(1H)-Naphthalenone, 6-bromo-3,4-dihydro-", "6-Bromo-3,4-dihydro-2(1H)-naphthalenone", "6-Bromo-2-tetralone", "6-Bromo-\u03b2-tetralone", "6-Bromo-3,4-dihydro-1H-naphthalen-2-one", "6-Bromo-3,4-dihydronaphthalen-2(1H)-one"], "SMILES": "BrC=1C=C2C(CC(=O)CC2)=CC1", "physical_data": {"Molecular Weight": "225.08", "Molecular Formula": "C10H9BrO", "Melting Point": "74.5-75.5 \u00b0C"}}