{"cas_no": "41340-36-7", "cn_name": "7-\u4e59\u57fa-3-\u7f9f\u4e59\u57fa\u5432\u54da", "en_name": ["7-Ethyl-1H-indole-3-ethanol", "1H-Indole-3-ethanol, 7-ethyl-", "7-Ethyl-1H-indole-3-ethanol", "7-Ethyltryptophol", "7-Ethyl-3-indoleethanol", "3-(2-Hydroxyethyl)-7-ethylindole", "RAK 801", "2-(7-Ethyl-1H-indol-3-yl)-ethanol", "2-(7-Ethyl-1H-indol-3-yl)ethan-1-ol"], "SMILES": "C(CO)C=1C=2C(=C(CC)C=CC2)NC1", "physical_data": {"Molecular Weight": "189.25", "Molecular Formula": "C12H15NO", "Melting Point": "47-48 \u00b0C"}}