{"cas_no": "41340-25-4", "cn_name": "\u4f9d\u6258\u5ea6\u9178", "en_name": ["Etodolac", "Pyrano[3,4-b]indole-1-acetic acid, 1,8-diethyl-1,3,4,9-tetrahydro-", "1,8-Diethyl-1,3,4,9-tetrahydropyrano[3,4-b]indole-1-acetic acid", "Etodolic acid", "AY 24236", "Etodolac", "NIH 9918", "(\u00b1)-Etodolac", "(RS)-Etodolic acid", "Lodine", "Zedolac", "Ultradol", "Tedolan", "Ramodar", "Edolan", "NSC 282126", "Etogesic", "Lodin XL", "Napilac", "Etodine", "Eccoxolac", "1,8-Diethyl-1,3,4,9-tetrahydropyrano[3,4-b]indol-1-acetic acid", "Flancox", "Etopan", "2-(1,8-Diethyl-4,9-dihydro-3H-pyrano[3,4-b]indol-1-yl)acetic acid", "MeSH ID: D017308"], "SMILES": "C(C(O)=O)C1(CC)C2=C(C=3C(N2)=C(CC)C=CC3)CCO1", "physical_data": {"Molecular Weight": "287.35", "Molecular Formula": "C17H21NO3", "Melting Point": "146.5 \u00b0C"}}