{"cas_no": "4136-37-2", "cn_name": "\u76d0\u9178\u6c34\u82cf\u78b1", "en_name": ["Stachydrine, hydrochloride", "Pyrrolidinium, 2-carboxy-1,1-dimethyl-, chloride (1:1), (2S)-", "Stachydrine, hydrochloride", "Pyrrolidinium, 2-carboxy-1,1-dimethyl-, chloride, (S)-", "Stachydrine, chloride", "Pyrrolidinium, 2-carboxy-1,1-dimethyl-, chloride, (2S)-", "Cadabine hydrochloride"], "SMILES": "C(O)(=O)C1[N+](C)(C)CCC1.[Cl-]", "physical_data": {"Molecular Weight": "", "Molecular Formula": "C7H14NO2.Cl", "Melting Point": "222 \u00b0C"}}