{"cas_no": "4136-21-4", "cn_name": "2-\u7f9f\u57fa-4'-\u7532\u6c27\u57fa\u82ef\u4e59\u916e", "en_name": ["2-Hydroxy-1-(4-methoxyphenyl)ethanone", "Ethanone, 2-hydroxy-1-(4-methoxyphenyl)-", "Acetophenone, 2-hydroxy-4\u2032-methoxy-", "2-Hydroxy-1-(4-methoxyphenyl)ethanone", "2-Hydroxy-4\u2032-methoxyacetophenone", "1-p-Anisyl-2-hydroxyethanone", "\u03b1-Hydroxy-4-methoxyacetophenone", "NSC 67341", "1-(4-Methoxyphenyl)-2-hydroxyethanone", "2-Hydroxy-1-(4-methoxyphenyl)ethan-1-one"], "SMILES": "C(CO)(=O)C1=CC=C(OC)C=C1", "physical_data": {"Molecular Weight": "166.17", "Molecular Formula": "C9H10O3", "Melting Point": "105 \u00b0C"}}