{"cas_no": "4136-95-2", "cn_name": "2,4,6-\u4e09\u6c2f\u82ef\u7532\u9170\u6c2f", "en_name": ["2,4,6-Trichlorobenzoyl chloride", "Benzoyl chloride, 2,4,6-trichloro-", "2,4,6-Trichlorobenzoyl chloride", "TCBC"], "SMILES": "C(Cl)(=O)C1=C(Cl)C=C(Cl)C=C1Cl", "physical_data": {"Molecular Weight": "243.90", "Molecular Formula": "C7H2Cl4O", "Boiling Point": "90-96 \u00b0C @ Press: 0.7 Torr", "Melting Point": "165-166 \u00b0C"}}