{"cas_no": "41361-28-8", "cn_name": "1-\u4e59\u57fa\u54cc\u5576-3-\u916e\u76d0\u9178\u76d0", "en_name": ["1-Ethyl-3-piperidinone hydrochloride", "3-Piperidinone, 1-ethyl-, hydrochloride (1:1)", "3-Piperidinone, 1-ethyl-, hydrochloride", "1-Ethyl-3-piperidone hydrochloride", "1-Ethyl-3-piperidinone hydrochloride", "1-Ethyl-3-piperidone hydrochlorid"], "SMILES": "C(C)N1CC(=O)CCC1.Cl", "physical_data": {"Molecular Weight": "", "Molecular Formula": "C7H13NO.ClH", "Melting Point": "172-173.5 \u00b0C"}}