{"cas_no": "4136-97-4", "cn_name": "\u90bb\u7f9f\u57fa\u5bf9\u6c28\u57fa\u82ef\u7532\u9178\u7532\u916f", "en_name": ["Methyl 4-amino-2-hydroxybenzoate", "Benzoic acid, 4-amino-2-hydroxy-, methyl ester", "Salicylic acid, 4-amino-, methyl ester", "Methyl 4-amino-2-hydroxybenzoate", "Methyl p-aminosalicylate", "Methyl 4-aminosalicylate", "p-Aminosalicylic acid methyl ester", "Methyl 2-hydroxy-4-aminobenzoate", "NSC 30263", "NSC 48927", "4-Amino-2-hydroxybenzoic acid methyl ester", "4-Aminosalicylic acid methyl ester", "2-Hydroxy-4-aminobenzoic acid methyl ester", "3-Hydroxy-4-methoxycarbonylaniline"], "SMILES": "C(OC)(=O)C1=C(O)C=C(N)C=C1", "physical_data": {"Molecular Weight": "167.16", "Molecular Formula": "C8H9NO3", "Boiling Point": "120 \u00b0C", "Melting Point": "108 \u00b0C (decomp)"}}