{"cas_no": "41365-24-6", "cn_name": "N,N'-\u4e8c\u4e59\u57fa-N,N'-\u4e8c\u82ef\u57fa\u79cb\u5170\u59c6\u4e8c\u786b\u5316\u7269", "en_name": ["Thioperoxydicarbonic diamide ([(H2N)C(S)]2S2), N,N\u2032-diethyl-N,N\u2032-diphenyl-", "Thioperoxydicarbonic diamide ([(H2N)C(S)]2S2), N,N\u2032-diethyl-N,N\u2032-diphenyl-", "Disulfide, bis(ethylphenylthiocarbamoyl)", "Formanilide, \u03b1,\u03b1\u2032-dithiobis[N-ethylthio-", "Diethyldiphenylthiuram disulfide", "Ekagom TE", "Thiuram EF", "TE 75GE"], "SMILES": "N(C(SSC(N(CC)C1=CC=CC=C1)=S)=S)(CC)C2=CC=CC=C2", "physical_data": {"Molecular Weight": "392.62", "Molecular Formula": "C18H20N2S4", "Melting Point": "83-84 \u00b0C (decomp)"}}