{"cas_no": "41365-32-6", "cn_name": "\u7532\u57fa\u6761\u53f6\u84df\u7d20", "en_name": ["Cirsilineol", "4H-1-Benzopyran-4-one, 5-hydroxy-2-(4-hydroxy-3-methoxyphenyl)-6,7-dimethoxy-", "5-Hydroxy-2-(4-hydroxy-3-methoxyphenyl)-6,7-dimethoxy-4H-1-benzopyran-4-one", "Cirsilineol", "4\u2032,5-Dihydroxy-3\u2032,6,7-trimethoxyflavone", "Fastigenin", "Anisomelin", "5,4\u2032-Dihydroxy-6,7,3\u2032-trimethoxyflavone", "Eupatrin", "6-Methoxyluteolin 3\u2032,7-dimethyl ether", "NSC 633556", "5,4\u2032-Didemethylsinensetin"], "SMILES": "OC1=C2C(OC(=CC2=O)C3=CC(OC)=C(O)C=C3)=CC(OC)=C1OC", "physical_data": {"Molecular Weight": "344.32", "Molecular Formula": "C18H16O7", "Melting Point": "147 \u00b0C"}}