{"cas_no": "4137-10-4", "cn_name": "\u4e8c\u7532\u57fa\u94f5-\u4e8c\u7532\u57fa", "en_name": ["Dimethylammonium dimethylcarbamate", "Carbamic acid, N,N-dimethyl-, compd. with N-methylmethanamine (1:1)", "Carbamic acid, dimethyl-, compd. with dimethylamine (1:1)", "Carbamic acid, dimethyl-, compd. with N-methylmethanamine (1:1)", "Carbamic acid, dimethyl-, compd. with dimethylamine", "Methanamine, N-methyl-, dimethylcarbamate", "Dimethylamine, compd. with dimethylcarbamic acid (1:1)", "Dimethylammonium dimethylcarbamate", "Dimcarb", "Dimethylamine N,N-dimethylcarbamate"], "SMILES": "N(C)C.C(N(C)C)(O)=O", "physical_data": {"Molecular Weight": "", "Molecular Formula": "C3H7NO2.C2H7N", "Boiling Point": "60.17 \u00b0C", "Density": "1.026 g/cm\u00b3"}}