{"cas_no": "41373-39-1", "cn_name": "L-2-\u54cc\u5576\u7532\u9187", "en_name": ["(2S)-2-Piperidinemethanol", "2-Piperidinemethanol, (2S)-", "2-Piperidinemethanol, (S)-", "(2S)-2-Piperidinemethanol", "(+)-2-(Hydroxymethyl)piperidine", "(S)-Piperidin-2-ylmethanol", "(S)-2-Piperidinemethanol", "(2S)-2-(Hydroxymethyl)piperidine", "(S)-1-Piperidin-2-ylmethanol", "(2S)-Piperidin-2-ylmethanol", "2-Piperidinemethanol (2S)-"], "SMILES": "C(O)C1CCCCN1", "physical_data": {"Molecular Weight": "115.17", "Molecular Formula": "C6H13NO", "Melting Point": "66-68 \u00b0C"}}