{"cas_no": "4137-56-8", "cn_name": "1-\u7532\u6c27\u57fa-2,3-O-\u5f02\u4e9a\u4e19\u57fa-5-O-\u5bf9\u7532\u82ef\u78fa\u9170\u57fa-beta-D-\u544b\u5583\u6838\u7cd6\u82f7", "en_name": ["\u03b2-D-Ribofuranoside, methyl 2,3-O-(1-methylethylidene)-, 5-(4-methylbenzenesulfonate)", "\u03b2-D-Ribofuranoside, methyl 2,3-O-(1-methylethylidene)-, 5-(4-methylbenzenesulfonate)", "Ribofuranoside, methyl 2,3-O-isopropylidene-, p-toluenesulfonate, \u03b2-D-", "\u03b2-D-Ribofuranoside, methyl 2,3-O-(1-methylethylidene)-, 4-methylbenzenesulfonate", "Ribofuranoside, methyl 2,3-O-isopropylidene-, p-toluenesulfonate", "Furo[3,4-d]-1,3-dioxole, \u03b2-D-ribofuranoside deriv.", "Methyl 2,3-O-isopropylidene-5-O-p-tolylsulfonyl-\u03b2-D-ribofuranoside", "Methyl 2,3-O-isopropylidene-5-O-tosyl-\u03b2-D-ribofuranoside", "Methyl 2,3-O-isopropylidene-5-O-tosyl-D-ribonucleoside", "NSC 85192", "Methyl 2,3-O-isopropylidene-5-O-\u03b2-toluenesulfonyl-\u03b2-D-ribofuranoside", "Methyl 2,3-O-isopropylidene-5-O-p-toluenesulfonyl-\u03b2-D-ribofuranoside"], "SMILES": "C(OS(=O)(=O)C1=CC=C(C)C=C1)C2C3C(C(OC)O2)OC(C)(C)O3", "physical_data": {"Molecular Weight": "358.41", "Molecular Formula": "C16H22O7S", "Melting Point": "82-84 \u00b0C"}}