{"cas_no": "4138-26-5", "cn_name": "3-\u54cc\u5576\u7532\u9170\u80fa", "en_name": ["3-Piperidinecarboxamide", "3-Piperidinecarboxamide", "Nipecotamide", "Nipecotic acid amide", "3-Carbamoylpiperidine", "3-(Aminocarbonyl)piperidine", "TK 523", "NSC 523303", "Piperidine-3-carboxylic acid amide"], "SMILES": "C(N)(=O)C1CCCNC1", "physical_data": {"Molecular Weight": "128.17", "Molecular Formula": "C6H12N2O", "Boiling Point": "149-160 \u00b0C @ Press: 0.3-0.5 Torr", "Melting Point": "111-112 \u00b0C"}}