{"cas_no": "41394-05-2", "cn_name": "\u82ef\u55ea\u8349\u916e", "en_name": ["Metamitron", "1,2,4-Triazin-5(4H)-one, 4-amino-3-methyl-6-phenyl-", "4-Amino-3-methyl-6-phenyl-1,2,4-triazin-5(4H)-one", "3-Methyl-4-amino-6-phenyl-1,2,4-triazin-5-one", "Metamitron", "BAY 6676", "4-Amino-3-methyl-6-phenyl-1,2,4-triazin-5-one", "DRW 1139", "Goltix", "BAY-DRW 1139", "Goltix WG 70", "Metron Stefes", "Goltix VM 90", "Goltix WG", "Burakomitron", "Goltix Compact", "Gladiator", "Goltix Top", "Metron 700SL", "Metafol 700SC"], "SMILES": "O=C1C(=NN=C(C)N1N)C2=CC=CC=C2", "physical_data": {"Molecular Weight": "202.21", "Molecular Formula": "C10H10N4O", "Melting Point": "167 \u00b0C", "Density": "0.6 g/cm\u00b3"}}