{"cas_no": "4142-98-7", "cn_name": "\u4e8c\u7f9f\u57fa\u82ef\u7532\u9178\u4e59\u916f", "en_name": ["Benzoic acid, 3,5-dihydroxy-, ethyl ester", "Benzoic acid, 3,5-dihydroxy-, ethyl ester", "\u03b1-Resorcylic acid, ethyl ester", "3,5-Dihydroxybenzoic acid ethyl ester", "Ethyl 3,5-dihydroxybenzoate"], "SMILES": "C(OCC)(=O)C1=CC(O)=CC(O)=C1", "physical_data": {"Molecular Weight": "182.17", "Molecular Formula": "C9H10O4", "Melting Point": "128.5 \u00b0C"}}