{"cas_no": "41421-28-7", "cn_name": "5-(3-\u6c2f\u82ef\u57fa)-1H-\u56db\u5511", "en_name": ["5-(3-Chlorophenyl)-2H-tetrazole", "2H-Tetrazole, 5-(3-chlorophenyl)-", "1H-Tetrazole, 5-(3-chlorophenyl)-", "Tetrazole, 5-(m-chlorophenyl)-", "5-(3-Chlorophenyl)-2H-tetrazole", "5-(3-Chlorophenyl)tetrazole", "5-(m-Chlorophenyl)tetrazole", "5-(3-Chlorophenyl)-1H-tetrazole", "5-(3-Chlorophenyl)-1H-1,2,3,4-tetrazole"], "SMILES": "ClC=1C=C(C=CC1)C=2NN=NN2", "physical_data": {"Molecular Weight": "180.59", "Molecular Formula": "C7H5ClN4", "Melting Point": "134.5 \u00b0C"}}