{"cas_no": "41424-11-7", "cn_name": "4\u2019-\u5df1\u6c27\u57fa-[1,1\u2019-\u8054\u82ef\u57fa]-4-\u7532\u8148", "en_name": ["4\u2032-(Hexyloxy)[1,1\u2032-biphenyl]-4-carbonitrile", "[1,1\u2032-Biphenyl]-4-carbonitrile, 4\u2032-(hexyloxy)-", "4\u2032-(Hexyloxy)[1,1\u2032-biphenyl]-4-carbonitrile", "4-Hexyloxy-4\u2032-cyanobiphenyl", "p-Hexyloxy-p\u2032-cyanobiphenyl", "CHB", "4\u2032-Hexyloxy-4-cyanobiphenyl", "4-Cyano-4\u2032-(hexyloxy)biphenyl", "4-Cyano-4\u2032-n-hexyloxybiphenyl", "Liquid crystal 549", "4-(4-Hexyloxyphenyl)benzonitrile", "6OCB", "4-(n-Hexyloxy)-4\u2032-cyanobiphenyl", "M 18", "4\u2032-Hexyloxybiphenylyl-4-carbonitrile", "4\u2032-Hexyloxy-1,1\u2032-biphenyl-4-carbonitrile", "4\u2032-(Hexyloxy)-4-biphenyl-carbonitrile"], "SMILES": "O(CCCCCC)C1=CC=C(C=C1)C2=CC=C(C#N)C=C2", "physical_data": {"Molecular Weight": "279.38", "Molecular Formula": "C19H21NO", "Melting Point": "57 \u00b0C"}}