{"cas_no": "4143-74-2", "cn_name": "4'--\u7532\u6c27\u57fa\u9ec4\u916e", "en_name": ["4\u2032-Methoxyflavone", "4H-1-Benzopyran-4-one, 2-(4-methoxyphenyl)-", "Flavone, 4\u2032-methoxy-", "2-(4-Methoxyphenyl)-4H-1-benzopyran-4-one", "4\u2032-Methoxyflavone", "2-(4-Methoxyphenyl)chromone", "2-(4-Methoxyphenyl)-4H-chromen-4-one", "2-(4-Methoxyphenyl)chromen-4-one"], "SMILES": "O=C1C=C(OC=2C1=CC=CC2)C3=CC=C(OC)C=C3", "physical_data": {"Molecular Weight": "252.26", "Molecular Formula": "C16H12O3", "Melting Point": "157-158 \u00b0C"}}