{"cas_no": "41430-70-0", "cn_name": "\u5168\u6c1f\u5e9a\u9178\u4e59\u916f", "en_name": ["Ethyl 2,2,3,3,4,4,5,5,6,6,7,7,7-tridecafluoroheptanoate", "Heptanoic acid, 2,2,3,3,4,4,5,5,6,6,7,7,7-tridecafluoro-, ethyl ester", "Heptanoic acid, tridecafluoro-, ethyl ester", "Ethyl 2,2,3,3,4,4,5,5,6,6,7,7,7-tridecafluoroheptanoate", "Ethyl perfluoroheptanoate", "Ethyl tridecafluoroheptanoate"], "SMILES": "C(C(C(C(OCC)=O)(F)F)(F)F)(C(C(C(F)(F)F)(F)F)(F)F)(F)F", "physical_data": {"Molecular Weight": "392.11", "Molecular Formula": "C9H5F13O2", "Boiling Point": "87 \u00b0C @ Press: 20 Torr"}}