{"cas_no": "4143-62-8", "cn_name": "3',4'-\u4e8c\u7532\u6c27\u57fa\u9ec4\u916e", "en_name": ["3\u2032,4\u2032-Dimethoxyflavone", "4H-1-Benzopyran-4-one, 2-(3,4-dimethoxyphenyl)-", "Flavone, 3\u2032,4\u2032-dimethoxy-", "2-(3,4-Dimethoxyphenyl)-4H-1-benzopyran-4-one", "3\u2032,4\u2032-Dimethoxyflavone", "2-(3,4-Dimethoxyphenyl)-4H-chromen-4-one", "2-(3,4-Dimethoxyphenyl)chromen-4-one"], "SMILES": "O=C1C=C(OC=2C1=CC=CC2)C3=CC(OC)=C(OC)C=C3", "physical_data": {"Molecular Weight": "282.29", "Molecular Formula": "C17H14O4", "Melting Point": "156 \u00b0C"}}