{"cas_no": "4143-63-9", "cn_name": "4'-\u7f9f\u57fa\u9ec4\u70f7\u916e", "en_name": ["4\u2032-Hydroxyflavone", "4H-1-Benzopyran-4-one, 2-(4-hydroxyphenyl)-", "Flavone, 4\u2032-hydroxy-", "2-(4-Hydroxyphenyl)-4H-1-benzopyran-4-one", "4\u2032-Hydroxyflavone", "NSC 22357", "2-(4-Hydroxyphenyl)chromen-4-one", "2-(4-Hydroxyphenyl)-4H-chromen-4-one"], "SMILES": "O=C1C=C(OC=2C1=CC=CC2)C3=CC=C(O)C=C3", "physical_data": {"Molecular Weight": "238.24", "Molecular Formula": "C15H10O3", "Melting Point": "269-270 \u00b0C"}}