{"cas_no": "4143-64-0", "cn_name": "3',4'-\u4e8c\u7f9f\u57fa\u9ec4\u916e", "en_name": ["3\u2032,4\u2032-Dihydroxyflavone", "4H-1-Benzopyran-4-one, 2-(3,4-dihydroxyphenyl)-", "Flavone, 3\u2032,4\u2032-dihydroxy-", "2-(3,4-Dihydroxyphenyl)-4H-1-benzopyran-4-one", "3\u2032,4\u2032-Dihydroxyflavone", "2-(3,4-Dihydroxyphenyl)-4H-benzopyran-4-one", "2-(3,4-Dihydroxyphenyl)chromen-4-one", "2-(3,4-Dihydroxyphenyl)-4H-chromen-4-one", "3\u2032,4\u2032-HOFL", "3\u2032,4\u2032-Dihydroxyfavone"], "SMILES": "O=C1C=2C(OC(=C1)C3=CC(O)=C(O)C=C3)=CC=CC2", "physical_data": {"Molecular Weight": "254.24", "Molecular Formula": "C15H10O4", "Melting Point": "243 \u00b0C"}}