{"cas_no": "41443-28-1", "cn_name": "1H-[1,2,4]\u6076\u8349\u7075\u5e76[4,3-A]\u55b9\u5594\u5549-1-\u916e", "en_name": ["1H-[1,2,4]Oxadiazolo[4,3-a]quinoxalin-1-one", "1H-[1,2,4]Oxadiazolo[4,3-a]quinoxalin-1-one", "ODQ", "[1,2,4]Oxadiazolo[4,3-a]quinoxalin-1-one"], "SMILES": "O=C1N2C=3C(N=CC2=NO1)=CC=CC3", "physical_data": {"Molecular Weight": "187.15", "Molecular Formula": "C9H5N3O2", "Melting Point": "163-164 \u00b0C"}}