{"cas_no": "41447-18-1", "cn_name": "S-(-)-N-\u7532\u57fa2-\u54cc\u5576\u7532\u9178", "en_name": ["N-Methyl-L-pipecolic acid", "2-Piperidinecarboxylic acid, 1-methyl-, (2S)-", "2-Piperidinecarboxylic acid, 1-methyl-, (S)-", "(2S)-1-Methyl-2-piperidinecarboxylic acid", "(-)-(S)-N-Methylpipecolic acid", "N-Methyl-L-pipecolic acid", "(2S)-1-Methylpiperidine-2-carboxylic acid", "(S)-1-Methylpiperidine-2-carboxylic acid", "(-)-(2S)-1-Methylpiperidine-2-carboxylic acid", "2-Piperidinecarboxylic acid 1-methyl-, (2S)-"], "SMILES": "C(O)(=O)C1N(C)CCCC1", "physical_data": {"Molecular Weight": "143.18", "Molecular Formula": "C7H13NO2", "Melting Point": "213-214 \u00b0C (decomp)"}}