{"cas_no": "4144-62-1", "cn_name": "5-\u82ef(\u7532)\u9170\u620a\u9178", "en_name": ["5-Benzoylvaleric acid", "Benzenehexanoic acid, \u03b5-oxo-", "Valeric acid, 5-benzoyl-", "\u03b5-Oxobenzenehexanoic acid", "5-Benzoylvaleric acid", "\u03b4-Benzoylvaleric acid", "6-Oxo-6-phenylhexanoic acid", "5-Benzoylpentanoic acid", "NSC 11351"], "SMILES": "C(CCCCC(O)=O)(=O)C1=CC=CC=C1", "physical_data": {"Molecular Weight": "206.24", "Molecular Formula": "C12H14O3", "Melting Point": "77-78 \u00b0C"}}