{"cas_no": "41442-57-3", "cn_name": "5-\u5341\u4e03\u70f7\u57fa\u95f4\u82ef\u4e8c\u915a", "en_name": ["5-Heptadecylresorcinol", "1,3-Benzenediol, 5-heptadecyl-", "5-Heptadecyl-1,3-benzenediol", "5-Heptadecylresorcinol", "5-n-Heptadecylresorcinol", "1,3-Dihydroxy-5-heptadecylbenzene"], "SMILES": "C(CCCCCCCCCCCCCCCC)C1=CC(O)=CC(O)=C1", "physical_data": {"Molecular Weight": "348.56", "Molecular Formula": "C23H40O2", "Melting Point": "91-93 \u00b0C"}}