{"cas_no": "41447-17-0", "cn_name": "(2R)-1-\u7532\u57fa-2-\u54cc\u5576\u7532\u9178", "en_name": ["N-Methyl-D-pipecolic acid", "2-Piperidinecarboxylic acid, 1-methyl-, (2R)-", "2-Piperidinecarboxylic acid, 1-methyl-, (R)-", "(2R)-1-Methyl-2-piperidinecarboxylic acid", "(+)-(R)-N-Methylpipecolic acid", "N-Methyl-D-pipecolic acid", "(R)-1-Methylpiperidine-2-carboxylic acid", "(2R)-1-Methylpiperidine-2-carboxylic acid", "(2R)-1-Methyl-2-Piperidinecarboxylic acid", "2-Piperidinecarboxylic acid 1-methyl-, (2R)-", "(R)-N-Methylpipecolic acid"], "SMILES": "C(O)(=O)C1N(C)CCCC1", "physical_data": {"Molecular Weight": "143.18", "Molecular Formula": "C7H13NO2", "Melting Point": "208-210 \u00b0C"}}