{"cas_no": "41453-56-9", "cn_name": "\u987a-2-\u58ec\u70ef-1-\u9187", "en_name": ["cis-2-Nonen-1-ol", "2-Nonen-1-ol, (2Z)-", "2-Nonen-1-ol, (Z)-", "(2Z)-2-Nonen-1-ol", "cis-2-Nonen-1-ol", "(Z)-2-Nonenyl alcohol", "(Z)-2-Nonen-1-ol"], "SMILES": "C(CC=CCO)CCCC", "physical_data": {"Molecular Weight": "142.24", "Molecular Formula": "C9H18O", "Boiling Point": "110 \u00b0C @ Press: 22 Torr"}}