{"cas_no": "41459-42-1", "cn_name": "3-\u6eb4-2-\u6eb4\u7532\u57fa\u4e19\u9178", "en_name": ["3-Bromo-2-(bromomethyl)propanoic acid", "Propanoic acid, 3-bromo-2-(bromomethyl)-", "3-Bromo-2-(bromomethyl)propanoic acid", "\u03b2,\u03b2\u2032-Dibromoisobutyric acid", "3-Bromo-2-(bromomethyl)propionic acid", "2,2-Bis(bromomethyl)acetic acid", "NSC 259720"], "SMILES": "C(C(O)=O)(CBr)CBr", "physical_data": {"Molecular Weight": "245.90", "Molecular Formula": "C4H6Br2O2", "Melting Point": "100-102 \u00b0C"}}