{"cas_no": "41451-75-6", "cn_name": "\u9e26\u80c6\u4ead", "en_name": ["Bruceantin", "Picras-3-en-21-oic acid, 15-[[(2E)-3,4-dimethyl-1-oxo-2-penten-1-yl]oxy]-13,20-epoxy-3,11,12-trihydroxy-2,16-dioxo-, methyl ester, (11\u03b2,12\u03b1,15\u03b2)-", "Picras-3-en-21-oic acid, 15-[(3,4-dimethyl-1-oxo-2-pentenyl)oxy]-13,20-epoxy-3,11,12-trihydroxy-2,16-dioxo-, methyl ester, [11\u03b2,12\u03b1,15\u03b2(E)]-", "Picras-3-en-21-oic acid, 15-[[(2E)-3,4-dimethyl-1-oxo-2-pentenyl]oxy]-13,20-epoxy-3,11,12-trihydroxy-2,16-dioxo-, methyl ester, (11\u03b2,12\u03b1,15\u03b2)-", "2H-3,11c-(Epoxymethano)phenanthro[10,1-bc]pyran, picras-3-en-21-oic acid deriv.", "Bruceantin", "NSC 165563", "(-)-Bruceantin", "NCI 165563"], "SMILES": "C(OC)(=O)C12C3C4(C(C5(C)C(CC4OC(=O)C3OC(C=C(C(C)C)C)=O)C(C)=C(O)C(=O)C5)C(O)C1O)CO2", "physical_data": {"Molecular Weight": "548.58", "Molecular Formula": "C28H36O11", "Melting Point": "225-226 \u00b0C"}}