{"cas_no": "41458-65-5", "cn_name": "6-\u6c28\u57fa-2,4-\u4e8c\u7532\u82ef\u915a", "en_name": ["2-Amino-4,6-dimethylphenol", "Phenol, 2-amino-4,6-dimethyl-", "2,4-Xylenol, 6-amino-", "2-Amino-4,6-dimethylphenol", "1-Amino-2-hydroxy-3,5-dimethylbenzene", "6-Amino-2,4-xylenol", "2-Hydroxy-3,5-dimethylaniline", "4,6-Dimethyl-2-aminophenol", "6-Amino-2,4-dimethylphenol", "2,4-Dimethyl-6-aminophenol", "NSC 315547"], "SMILES": "OC1=C(C)C=C(C)C=C1N", "physical_data": {"Molecular Weight": "137.18", "Molecular Formula": "C8H11NO", "Melting Point": "130 \u00b0C"}}