{"cas_no": "4146-43-4", "cn_name": "\u4e01\u4e8c\u9178\u4e8c\u9170\u80bc", "en_name": ["Succinic dihydrazide", "Butanedioic acid, 1,4-dihydrazide", "Succinic acid, dihydrazide", "Butanedioic acid, dihydrazide", "Succinhydrazide", "Succinic dihydrazide", "Succinyl dihydrazide", "Succinic acid, hydrazide", "Succinoyldihydrazine", "NSC 25180", "NSC 29540", "NSC 42940", "SUDH"], "SMILES": "C(CCC(NN)=O)(NN)=O", "physical_data": {"Molecular Weight": "146.15", "Molecular Formula": "C4H10N4O2", "Melting Point": "166-167 \u00b0C"}}