{"cas_no": "4146-04-7", "cn_name": "DL-2-\u6c28\u57fa-1-\u620a\u9187", "en_name": ["2-Amino-1-pentanol", "1-Pentanol, 2-amino-", "1-Pentanol, 2-amino-, DL-", "1-Pentanol, 2-amino-, (\u00b1)-", "2-Amino-1-pentanol", "dl-Norvalinol", "(\u00b1)-2-Aminopentan-1-ol", "DL-2-Amino-1-pentanol", "[1-(Hydroxymethyl)butyl]amine"], "SMILES": "C(CCC)(CO)N", "physical_data": {"Molecular Weight": "103.16", "Molecular Formula": "C5H13NO", "Boiling Point": "101 \u00b0C @ Press: 25 Torr", "Melting Point": "32 \u00b0C"}}