{"cas_no": "41464-39-5", "cn_name": "\u591a\u6c2f\u8054\u82ef", "en_name": ["2,2\u2032,3,5\u2032-Tetrachlorobiphenyl", "1,1\u2032-Biphenyl, 2,2\u2032,3,5\u2032-tetrachloro-", "2,2\u2032,3,5\u2032-Tetrachloro-1,1\u2032-biphenyl", "2,2\u2032,3,5\u2032-Tetrachlorobiphenyl", "2,3,2\u2032,5\u2032-Tetrachlorobiphenyl", "2,5,2\u2032,3\u2032-Tetrachlorobiphenyl", "PCB 44", "CB 44"], "SMILES": "ClC1=C(C=CC=C1Cl)C2=C(Cl)C=CC(Cl)=C2", "physical_data": {"Molecular Weight": "291.99", "Molecular Formula": "C12H6Cl4", "Melting Point": "45 \u00b0C"}}