{"cas_no": "41468-25-1", "cn_name": "5'-\u78f7\u9178\u5421\u54c6\u919b\u4e00\u6c34\u5408\u7269", "en_name": ["Pyridoxal 5\u2032-phosphate monohydrate", "4-Pyridinecarboxaldehyde, 3-hydroxy-2-methyl-5-[(phosphonooxy)methyl]-, hydrate (1:1)", "4-Pyridinecarboxaldehyde, 3-hydroxy-2-methyl-5-[(phosphonooxy)methyl]-, monohydrate", "Pyridoxal 5\u2032-phosphate monohydrate", "MC 1"], "SMILES": "C(OP(=O)(O)O)C=1C(C=O)=C(O)C(C)=NC1.O", "physical_data": {"Molecular Weight": "", "Molecular Formula": "C8H10NO6P.H2O", "Melting Point": "140-143 \u00b0C"}}