{"cas_no": "4146-24-1", "cn_name": "6-\u6c2f-2-\u7532\u57fa\u82ef\u5e76\u567b\u5511", "en_name": ["6-Chloro-2-methylbenzothiazole", "Benzothiazole, 6-chloro-2-methyl-", "6-Chloro-2-methylbenzothiazole", "2-Methyl-6-chlorobenzothiazole"], "SMILES": "CC1=NC=2C(S1)=CC(Cl)=CC2", "physical_data": {"Molecular Weight": "183.66", "Molecular Formula": "C8H6ClNS", "Melting Point": "81 \u00b0C"}}