{"cas_no": "4147-51-7", "cn_name": "\u5f02\u4e19\u51c0", "en_name": ["Dipropetryn", "1,3,5-Triazine-2,4-diamine, 6-(ethylthio)-N2,N4-bis(1-methylethyl)-", "s-Triazine, 2-(ethylthio)-4,6-bis(isopropylamino)-", "1,3,5-Triazine-2,4-diamine, 6-(ethylthio)-N,N\u2032-bis(1-methylethyl)-", "6-(Ethylthio)-N2,N4-bis(1-methylethyl)-1,3,5-triazine-2,4-diamine", "GS 16068", "Sancap", "2-Ethylthio-4,6-bis(isopropylamino)-5-triazine", "2-Ethylthio-4,6-bis(isopropylamino)-s-triazine", "Dipropetryn", "Cotofor"], "SMILES": "N(C(C)C)C=1N=C(NC(C)C)N=C(SCC)N1", "physical_data": {"Molecular Weight": "255.38", "Molecular Formula": "C11H21N5S", "Melting Point": "105 \u00b0C"}}