{"cas_no": "41484-35-9", "cn_name": "\u6297\u6c27\u5242 1035", "en_name": ["Thiodiethylene bis(3,5-di-tert-butyl-4-hydroxyhydrocinnamate)", "Benzenepropanoic acid, 3,5-bis(1,1-dimethylethyl)-4-hydroxy-, 1,1\u2032-(thiodi-2,1-ethanediyl) ester", "Benzenepropanoic acid, 3,5-bis(1,1-dimethylethyl)-4-hydroxy-, thiodi-2,1-ethanediyl ester", "2,2\u2032-Thiodiethylene bis[3-(3,5-di-tert-butyl-4-hydroxyhydrocinnamate]", "Thiodiethylene glycol bis[3-(3,5-di-tert-butyl-4-hydroxyphenyl)propionate]", "2,2\u2032-Thiodiethylene bis[3-(3,5-di-tert-butyl-4-hydroxyphenyl)propionate]", "Bis[2-[3-(3,5-di-tert-butyl-4-hydroxyphenyl)propionyloxy]ethyl] sulfide", "Bis[(3,5-di-tert-butyl-4-hydroxyphenyl)propionyl-2-oxyethyl] sulfide", "Irganox 1035", "Fenozan 30", "3-Thia-1,5-pentanediol bis[3-(3,5-di-tert-butyl-4-hydroxyphenyl)propionate]", "Irganox 1035FF", "Thiodi(2,1-ethanediyl) bis[3-(3,5-di-tert-butyl-4-hydroxyphenyl)propionate]", "Thiodiethylene bis(3,5-di-tert-butyl-4-hydroxyhydrocinnamate)", "Irganox L 1035", "Naugard EL 50", "2-(3,5-Di-tert-butyl-4-hydroxyphenyl)propionic acid 2,2\u2032-thiobisethanol diester", "AO 75", "Durad AX 15", "Thiodiethylene glycol bis[\u03b2-(4-hydroxy-3,5-di(tert-butyl)phenyl)propionate]", "Thiodiethylene glycol bis[\u03b2-(3,5-di-tert-butyl-4-hydroxyphenyl)propionate]", "IR 1035", "Thiodiethylene bis[3-(3,5-di-tert-butyl-4-hydroxyphenyl)propionate", "Irganox L 115", "Anox 70", "Antioxidant 1035", "3,5-Di-tert-butyl-4-hydroxybenzenepropanoic acid thiodi-2,1-ethanediyl ester", "Chinox 1035", "2,2\u2032-Thiodiethyl bis[3-(3,5-di-tert-butyl-4-hydroxyphenyl)propionate]", "S 35", "L 115", "2,2-Thiodiethylene bis-[(3-(3,5-di-tert-butyl-4-hydroxyphenyl)propionate]", "Chinox S 35", "2,2\u2032-Thiodiethylene bis[3(3,5-di-tert-butyl-4-hydroxyphenyl)propionate]", "3,5-Bis(1,1-dimethylethyl)-4-hydroxybenzenepropanoic acid 1,1\u2032-(thiodi-2,1-ethanediyl) ester", "2-[2-[3-(3,5-Ditert-butyl-4-hydroxyphenyl)propanoyloxy]ethylsulfanyl]ethyl 3-(3,5-ditert-butyl-4-hydroxyphenyl)propanoate", "AO 1035", "S 65385", "Irgafos 1035", "Brad-Chem 395"], "SMILES": "C(CC(OCCSCCOC(CCC1=CC(C(C)(C)C)=C(O)C(C(C)(C)C)=C1)=O)=O)C2=CC(C(C)(C)C)=C(O)C(C(C)(C)C)=C2", "physical_data": {"Molecular Weight": "642.93", "Molecular Formula": "C38H58O6S", "Melting Point": "70 \u00b0C"}}