{"cas_no": "41481-66-7", "cn_name": "4,4'-\u78fa\u9170\u57fa\u53cc[2-(2-\u4e19\u70ef\u57fa)]\u82ef\u915a", "en_name": ["4,4\u2032-Sulfonylbis[2-(2-propen-1-yl)phenol]", "Phenol, 4,4\u2032-sulfonylbis[2-(2-propen-1-yl)-", "Phenol, 4,4\u2032-sulfonylbis[2-(2-propenyl)-", "4,4\u2032-Sulfonylbis[2-(2-propen-1-yl)phenol]", "Bis(4-hydroxy-3-allylphenyl) sulfone", "3,3\u2032-Diallyl-4,4\u2032-dihydroxydiphenylsulfone", "4,4\u2032-Sulfonylbis(2-allylphenol)", "Bis(3-allyl-4-hydroxyphenyl) sulfone", "TG-SA", "TGSH", "3,3\u2032-Diallyl-4,4\u2032-dihydroxybiphenyl sulfone", "2,2\u2032-Diallyl-4,4\u2032-sulfonyldiphenol", "4,4\u2032-Sulfonylbis[2-(2-propenyl)phenol]", "B 916361", "BPS 33AC"], "SMILES": "S(=O)(=O)(C1=CC(CC=C)=C(O)C=C1)C2=CC(CC=C)=C(O)C=C2", "physical_data": {"Molecular Weight": "330.40", "Molecular Formula": "C18H18O4S", "Melting Point": "138.5 \u00b0C"}}