{"cas_no": "41483-43-6", "cn_name": "\u4e59\u5627\u915a\u78fa\u9178\u916f", "en_name": ["Bupirimate", "Sulfamic acid, N,N-dimethyl-, 5-butyl-2-(ethylamino)-6-methyl-4-pyrimidinyl ester", "Sulfamic acid, dimethyl-, 5-butyl-2-(ethylamino)-6-methyl-4-pyrimidinyl ester", "Bupirimate", "Nimrod", "PP 588", "Buprimate"], "SMILES": "C(CCC)C=1C(OS(N(C)C)(=O)=O)=NC(NCC)=NC1C", "physical_data": {"Molecular Weight": "316.42", "Molecular Formula": "C13H24N4O3S", "Melting Point": "50-51 \u00b0C"}}