{"cas_no": "41489-76-3", "cn_name": "5-\u7532\u9170\u57fa\u6c34\u6768\u9178\u7532\u916f", "en_name": ["Benzoic acid, 5-formyl-2-hydroxy-, methyl ester", "Benzoic acid, 5-formyl-2-hydroxy-, methyl ester", "Isophthalaldehydic acid, 6-hydroxy-, methyl ester", "Methyl 5-formylsalicylate", "Methyl 3-formyl-6-hydroxybenzoate", "5-Formyl-2-hydroxybenzoic acid methyl ester", "Methyl 5-formyl-2-hydroxybenzoate", "Methyl 2-hydroxy-5-formylbenzoate", "3-Methoxycarbonyl-4-hydroxybenzaldehyde"], "SMILES": "C(OC)(=O)C1=CC(C=O)=CC=C1O", "physical_data": {"Molecular Weight": "180.16", "Molecular Formula": "C9H8O4", "Melting Point": "66-68 \u00b0C"}}