{"cas_no": "41492-05-1", "cn_name": "\u5bf9\u4e01\u57fa\u6eb4\u82ef", "en_name": ["1-Bromo-4-butylbenzene", "Benzene, 1-bromo-4-butyl-", "1-Bromo-4-butylbenzene", "p-Bromobutylbenzene", "p-Butylbromobenzene", "4-Butylbromobenzene", "4-Butylphenyl bromide", "p-Butylphenyl bromide", "4-n-Butylbromobenzene", "1-Bromo-4-n-butylbenzene", "4-Bromo-1-butylbenzene"], "SMILES": "C(CCC)C1=CC=C(Br)C=C1", "physical_data": {"Molecular Weight": "213.11", "Molecular Formula": "C10H13Br", "Boiling Point": "223 \u00b0C @ Press: 760 Torr", "Melting Point": "-25.65 \u00b0C", "Density": "1.2347 g/cm\u00b3 @ Temp: 20 \u00b0C"}}