{"cas_no": "41507-35-1", "cn_name": "3-\u567b\u5429\u7532\u9170\u6c2f", "en_name": ["3-Thiophenecarbonyl chloride", "3-Thiophenecarbonyl chloride", "3-Thienoyl chloride", "3-Thenoyl chloride", "3-Thienylcarbonyl chloride", "3-Thiophenecarboxylic acid chloride", "3-Chlorocarbonylthiophene"], "SMILES": "C(Cl)(=O)C=1C=CSC1", "physical_data": {"Molecular Weight": "146.59", "Molecular Formula": "C5H3ClOS", "Melting Point": "50-52 \u00b0C"}}