{"cas_no": "4151-97-7", "cn_name": "1-\u6c2f-3-\u7532\u6c27\u57fa-2-\u4e19\u9187", "en_name": ["1-Chloro-3-methoxy-2-propanol", "2-Propanol, 1-chloro-3-methoxy-", "1-Chloro-3-methoxy-2-propanol", "3-Methoxy-1-chloro-2-propanol", "3-Methoxy-2-hydroxypropyl chloride", "2-Hydroxy-3-methoxypropyl chloride", "1-Methoxy-2-hydroxy-3-chloropropane", "NSC 166627", "NSC 65872", "3-Chloro-1-methoxy-2-propanol", "3-Chloro-2-hydroxypropyl methyl ether"], "SMILES": "C(COC)(CCl)O", "physical_data": {"Molecular Weight": "124.57", "Molecular Formula": "C4H9ClO2", "Boiling Point": "173 \u00b0C", "Density": "1.1832 g/cm\u00b3 @ Temp: 20 \u00b0C"}}