{"cas_no": "41514-64-1", "cn_name": "KOABURASIDE MONOMETHYL ETHER", "en_name": ["3,4,5-Trimethoxyphenyl \u03b2-D-glucopyranoside", "\u03b2-D-Glucopyranoside, 3,4,5-trimethoxyphenyl", "3,4,5-Trimethoxyphenyl \u03b2-D-glucopyranoside", "Koaburaside monomethyl ether", "3,4,5-Trimethoxyphenol 1-O-\u03b2-D-glucopyranoside", "3,4,5-Trimethoxyphenyl O-\u03b2-D-glucopyranoside", "1,2,3-Trimethoxyphenyl-5-O-\u03b2-D-glucoside", "Koaburside", "3,4,5-Trimethoxyphenol \u03b2-D-glucopyranoside"], "SMILES": "O(C)C1=C(OC)C=C(OC2OC(CO)C(O)C(O)C2O)C=C1OC", "physical_data": {"Molecular Weight": "346.33", "Molecular Formula": "C15H22O9", "Melting Point": "201-203 \u00b0C"}}