{"cas_no": "4151-51-3", "cn_name": "\u786b\u4ee3\u78f7\u9178\u4e09\u82ef\u57fa\u5f02\u6c30\u9178\u916f", "en_name": ["Phenol, 4-isocyanato-, 1,1\u2032,1\u2032\u2032-phosphorothioate", "Phenol, 4-isocyanato-, 1,1\u2032,1\u2032\u2032-phosphorothioate", "Isocyanic acid, p-hydroxyphenyl ester, phosphorothioate (3:1) (ester)", "Phosphorothioic acid, O,O,O-tris(p-isocyanatophenyl) ester", "Phenol, 4-isocyanato-, phosphorothioate (3:1) (ester)", "Phenol, p-isocyanato-, phosphorothioate (3:1) (ester)", "Tris(p-isocyanatophenyl) monosulfophosphate", "Thiophosphoric acid tris(p-isocyanatophenyl ester)", "Tris(4-isocyanatophenyl) thiophosphate", "Tris(p-isocyanatophenyl) thiophosphate", "Tri(4-phenyl isocyanate) thiophosphate", "JQ 4", "DTXSID9063320"], "SMILES": "P(OC1=CC=C(N=C=O)C=C1)(OC2=CC=C(N=C=O)C=C2)(OC3=CC=C(N=C=O)C=C3)=S", "physical_data": {"Molecular Weight": "465.38", "Molecular Formula": "C21H12N3O6PS", "Melting Point": "84-86 \u00b0C"}}