{"cas_no": "4151-50-2", "cn_name": "\u6c1f\u866b\u80fa", "en_name": ["Volcano", "1-Octanesulfonamide, N-ethyl-1,1,2,2,3,3,4,4,5,5,6,6,7,7,8,8,8-heptadecafluoro-", "N-Ethyl-1,1,2,2,3,3,4,4,5,5,6,6,7,7,8,8,8-heptadecafluoro-1-octanesulfonamide", "GX 071", "AI 3-29757", "Sulfluramid", "FiniTron", "N-Ethylperfluorooctanesulfonamide", "Alstar", "Alstar (pesticide)", "N-Ethylperfluorooctylsulfonamide", "Mirex S", "Volcano", "Volcano (insecticide)", "FX 12", "N-Ethyl-1,1,2,2,3,3,4,4,5,5,6,6,7,7,8,8,8-heptadecafluorooctane-1-sulfonamide", "Sulfluramide", "N-Ethylperfluoro-1-octanesulfonamide"], "SMILES": "C(C(C(C(S(NCC)(=O)=O)(F)F)(F)F)(F)F)(C(C(C(C(F)(F)F)(F)F)(F)F)(F)F)(F)F", "physical_data": {"Molecular Weight": "527.20", "Molecular Formula": "C10H6F17NO2S", "Boiling Point": "196 \u00b0C", "Melting Point": "96 \u00b0C"}}