{"cas_no": "41513-04-6", "cn_name": "2-\u6eb4-5-\u6c2f\u785d\u57fa\u82ef", "en_name": ["1-Bromo-4-chloro-2-nitrobenzene", "Benzene, 1-bromo-4-chloro-2-nitro-", "1-Bromo-4-chloro-2-nitrobenzene", "4-Chloro-2-bromonitrobenzene", "2-Bromo-5-chloronitrobenzene", "4-Bromo-3-nitrochlorobenzene", "1-Bromo-2-nitro-4-chlorobenzene", "2-Nitro-4-chloro-1-bromobenzene", "4-Chloro-2-nitro-1-bromobenzene"], "SMILES": "N(=O)(=O)C1=C(Br)C=CC(Cl)=C1", "physical_data": {"Molecular Weight": "236.45", "Molecular Formula": "C6H3BrClNO2", "Melting Point": "64.8 \u00b0C", "Density": "2.048 g/cm\u00b3 @ Temp: 16 \u00b0C"}}