{"cas_no": "4151-98-8", "cn_name": "1-\u6c2f-3-\u4e59\u6c27\u57fa-2-\u4e19\u9187", "en_name": ["1-Chloro-3-ethoxy-2-propanol", "2-Propanol, 1-chloro-3-ethoxy-", "1-Chloro-3-ethoxy-2-propanol", "1-Ethoxy-2-hydroxy-3-chloropropane", "3-Ethoxy-1-chloro-2-propanol"], "SMILES": "C(COCC)(CCl)O", "physical_data": {"Molecular Weight": "138.59", "Molecular Formula": "C5H11ClO2", "Boiling Point": "104-106 \u00b0C @ Press: 60 Torr", "Density": "1.107 g/cm\u00b3 @ Temp: 25 \u00b0C"}}