{"cas_no": "41526-21-0", "cn_name": "N-[4-\u6eb4-2-(2-\u5421\u5576\u7532\u9170\u57fa)\u82ef\u57fa]-2-\u6c2f\u4e59\u9170\u80fa", "en_name": ["N-[4-Bromo-2-(2-pyridinylcarbonyl)phenyl]-2-chloroacetamide", "Acetamide, N-[4-bromo-2-(2-pyridinylcarbonyl)phenyl]-2-chloro-", "N-[4-Bromo-2-(2-pyridinylcarbonyl)phenyl]-2-chloroacetamide", "2-(2-Chloroacetamido-5-bromobenzoyl)pyridine", "2-[2-(2-Chloroacetamido)-5-bromobenzoyl]pyridine"], "SMILES": "C(=O)(C1=C(NC(CCl)=O)C=CC(Br)=C1)C2=CC=CC=N2", "physical_data": {"Molecular Weight": "353.60", "Molecular Formula": "C14H10BrClN2O2", "Melting Point": "131-132 \u00b0C"}}