{"cas_no": "4152-90-3", "cn_name": "3-\u6c2f\u82c4\u80fa", "en_name": ["3-Chlorobenzylamine", "Benzenemethanamine, 3-chloro-", "Benzylamine, m-chloro-", "3-Chlorobenzenemethanamine", "m-Chlorobenzylamine", "3-Chlorobenzylamine", "(3-Chlorophenyl)methanamine", "[(3-Chlorophenyl)methyl]amine", "1-(3-Chlorophenyl)methanamine"], "SMILES": "C(N)C1=CC(Cl)=CC=C1", "physical_data": {"Molecular Weight": "141.60", "Molecular Formula": "C7H8ClN", "Boiling Point": "110-112 \u00b0C @ Press: 17 Torr", "Melting Point": "97-98 \u00b0C"}}