{"cas_no": "4152-09-4", "cn_name": "N-\u82c4\u57fa\u4e59\u4e8c\u80fa", "en_name": ["N-Benzylethylenediamine", "1,2-Ethanediamine, N1-(phenylmethyl)-", "Ethylenediamine, N-benzyl-", "1,2-Ethanediamine, N-(phenylmethyl)-", "N1-(Phenylmethyl)-1,2-ethanediamine", "N-Benzylethylenediamine", "N-Benzyl-1,2-ethanediamine", "N-Benzyl-1,2-diaminoethane", "N-Benzylethanediamine", "N-(Phenylmethyl)-1,2-ethanediamine", "1-Amino-2-(N-benzylamino)ethane", "N-Benzyl-1,2-ethylenediamine", "NSC 18480", "2-(Benzylamino)ethylamine", "(2-Aminoethyl)(benzyl)amine"], "SMILES": "C(NCCN)C1=CC=CC=C1", "physical_data": {"Molecular Weight": "150.22", "Molecular Formula": "C9H14N2", "Boiling Point": "100 \u00b0C @ Press: 4 Torr"}}