{"cas_no": "41532-84-7", "cn_name": "1,1,2-\u4e09\u7532\u57fa-1H-\u82ef\u5e76[e]\u5432\u54da", "en_name": ["1,1,2-Trimethyl-1H-benz[e]indole", "1H-Benz[e]indole, 1,1,2-trimethyl-", "1,1,2-Trimethyl-1H-benz[e]indole", "1,1,2-Trimethylbenz[e]indole", "2,3,3-Trimethyl-4,5-benzo-3H-indole", "2,3,3-Trimethyl-3H-benz[e]indole", "1,1,2-Trimethylbenzo[e]indolenine"], "SMILES": "CC1(C)C=2C=3C(C=CC2N=C1C)=CC=CC3", "physical_data": {"Molecular Weight": "209.29", "Molecular Formula": "C15H15N", "Melting Point": "115.5-116.0 \u00b0C"}}