{"cas_no": "41552-82-3", "cn_name": "N6-\u73af\u620a\u57faTYLADENOSINE", "en_name": ["N6-cyclopentyladenosine", "Adenosine, N-cyclopentyl-", "N-Cyclopentyladenosine", "CPA", "N6-Cyclopentyladenosine", "N6-cyclopentyladenosine", "UK 80882", "(2R,3R,4S,5R)-2-[6-(Cyclopentylamino)-9H-purin-9-yl]-5-(hydroxymethyl)tetrahydrofuran-3,4-diol"], "SMILES": "OC1C(N2C=3C(N=C2)=C(NC4CCCC4)N=CN3)OC(CO)C1O", "physical_data": {"Molecular Weight": "335.36", "Molecular Formula": "C15H21N5O4", "Melting Point": "78.8 \u00b0C"}}