{"cas_no": "41570-61-0", "cn_name": "\u59a5\u5e03\u7279\u7f57", "en_name": ["(\u00b1)-Tulobuterol", "Benzenemethanol, 2-chloro-\u03b1-[[(1,1-dimethylethyl)amino]methyl]-", "2-Chloro-\u03b1-[[(1,1-dimethylethyl)amino]methyl]benzenemethanol", "o-Chloro-\u03b1-[(tert-butylamino)methyl]benzyl alcohol", "Tulobuterol", "(\u00b1)-Tulobuterol", "HN 078", "2-(tert-Butylamino)-1-(2-chlorophenyl)ethan-1-ol", "2-(tert-Butylamino)-1-(2-chlorophenyl)ethanol"], "SMILES": "C(CNC(C)(C)C)(O)C1=C(Cl)C=CC=C1", "physical_data": {"Molecular Weight": "227.73", "Molecular Formula": "C12H18ClNO", "Melting Point": "89-91 \u00b0C"}}