{"cas_no": "41575-94-4", "cn_name": "\u5361\u94c2", "en_name": ["Carboplatin", "Platinum, diammine[1,1-cyclobutanedicarboxylato(2-)-\u03baO,\u03baO\u2032\u2032]-, (SP-4-2)-", "Platinum, diammine[1,1-cyclobutanedi(carboxylato-\u03baO)(2-)]-, (SP-4-2)-", "1,1-Cyclobutanedicarboxylic acid, platinum complex", "(SP-4-2)-Diammine[1,1-cyclobutanedicarboxylato(2-)-\u03baO,\u03baO\u2032\u2032]platinum", "cis-Diammine[1,1-cyclobutanedicarboxylato(2-)]platinum", "JM 8", "cis-Diammine(1,1-cyclobutanedicarboxylato)platinum(II)", "NSC 241240", "cis-Diammine(1,1-cyclobutanedicarboxylato)platinum", "CBDCA", "cis-Diammineplatinum 1,1-cyclobutanedicarboxylate", "Paraplatin", "Carboplatinum", "Ribocarbo L", "Carboplatin", "NSC 201345", "Carbosin", "Cycloplatin", "Carbomedac", "cis-Diammine(cyclobutane-1,1-dicarboxylate-O,O\u2032)platinum(II)", "Paraplat", "MeSH ID: D016190"], "SMILES": "O=C1C2(C(=O)[O-][Pt+2]([NH3])([NH3])[O-]1)CCC2", "physical_data": {"Molecular Weight": "", "Molecular Formula": "C6H12N2O4Pt", "Melting Point": "217 \u00b0C"}}