{"cas_no": "4160-63-8", "cn_name": "2-(4-\u7532\u6c27\u57fa\u82c4\u6c27\u57fa)\u567b\u5429", "en_name": ["(4-Methoxyphenyl)-2-thienylmethanone", "Methanone, (4-methoxyphenyl)-2-thienyl-", "Ketone, p-methoxyphenyl 2-thienyl", "(4-Methoxyphenyl)-2-thienylmethanone", "p-Methoxyphenyl 2-thienyl ketone", "2-(4-Methoxybenzoyl)thiophene", "2-(p-Methoxybenzoyl)thiophene", "2-p-Anisoylthiophene", "NSC 151248", "4-Methoxyphenyl thiophene-2-yl ketone", "4-Methoxyphenyl 2-thienyl ketone", "(4-Methoxyphenyl)(thiophen-2-yl)methanone", "(4-Methoxyphenyl)-thiophen-2-ylmethanone"], "SMILES": "C(=O)(C1=CC=C(OC)C=C1)C2=CC=CS2", "physical_data": {"Molecular Weight": "218.27", "Molecular Formula": "C12H10O2S", "Boiling Point": "225 \u00b0C @ Press: 15 Torr", "Melting Point": "73 \u00b0C"}}