{"cas_no": "4160-82-1", "cn_name": "3,3-\u4e8c\u7532\u57fa\u620a\u4e8c\u9178\u9150", "en_name": ["Dihydro-4,4-dimethyl-2H-pyran-2,6(3H)-dione", "2H-Pyran-2,6(3H)-dione, dihydro-4,4-dimethyl-", "Glutaric anhydride, 3,3-dimethyl-", "Dihydro-4,4-dimethyl-2H-pyran-2,6(3H)-dione", "3,3-Dimethylglutaric anhydride", "\u03b2,\u03b2-Dimethylglutaric anhydride", "3,3-Dimethylglutaric acid anhydride", "NSC 2827", "4,4-Dimethyldihydropyran-2,6-dione", "4,4-Dimethyldihydro-2H-pyran-2,6(3H)-dione", "4,4-Dimethyltetrahydropyran-2,6-dione"], "SMILES": "CC1(C)CC(=O)OC(=O)C1", "physical_data": {"Molecular Weight": "142.15", "Molecular Formula": "C7H10O3", "Melting Point": "123-124 \u00b0C"}}