{"cas_no": "41604-19-7", "cn_name": "4-\u6eb4-2-\u6c1f\u8054\u82ef", "en_name": ["4-Bromo-2-fluoro-1,1\u2032-biphenyl", "1,1\u2032-Biphenyl, 4-bromo-2-fluoro-", "4-Bromo-2-fluoro-1,1\u2032-biphenyl", "4-Bromo-2-fluorobiphenyl", "2-Fluoro-4-bromobiphenyl", "4-Bromo-4-biphenylylacetone", "4\u2032-Bromo-2\u2032-fluorobiphenyl"], "SMILES": "FC1=C(C2=CC=CC=C2)C=CC(Br)=C1", "physical_data": {"Molecular Weight": "251.09", "Molecular Formula": "C12H8BrF", "Melting Point": "36.5-37 \u00b0C"}}