{"cas_no": "4160-61-6", "cn_name": "\u56db\u6c22-4-\u6c27\u4ee3-2H-\u567b\u5583-3-\u7532\u9178\u7532\u916f", "en_name": ["Methyl 4-oxotetrahydro-2H-thiopyran-3-carboxylate", "2H-Thiopyran-3-carboxylic acid, tetrahydro-4-oxo-, methyl ester", "Thiopyran-3-carboxylic acid, tetrahydro-4-oxo-, methyl ester", "Methyl tetrahydrothiopyran-4-one-3-carboxylate", "3-Carbomethoxytetrahydro-1,4-thiapyrone", "3-(Carbomethoxy)tetrahydrothiopyran-4-one", "3-Methoxycarbonyl-4-thianone", "Methyl 4-oxo-tetrahydrothiopyran-3-carboxylate", "Methyl 4-oxotetrahydro-2H-thiopyran-3-carboxylate", "Methyl 4-oxo-3,4,5,6-tetrahydro-2H-thiopyran-3-carboxylate", "4-Oxotetrahydro-2H-thiopyran-3-carboxylate methyl ester"], "SMILES": "C(OC)(=O)C1C(=O)CCSC1", "physical_data": {"Molecular Weight": "174.22", "Molecular Formula": "C7H10O3S", "Boiling Point": "120 \u00b0C @ Press: 5 Torr", "Density": "1.2562 g/cm\u00b3 @ Temp: 20 \u00b0C"}}