{"cas_no": "4160-51-4", "cn_name": "4'-\u7532\u6c27\u57fa\u82ef\u4e01\u916e", "en_name": ["1-(4-Methoxyphenyl)-1-butanone", "1-Butanone, 1-(4-methoxyphenyl)-", "Butyrophenone, 4\u2032-methoxy-", "1-(4-Methoxyphenyl)-1-butanone", "p-Methoxybutyrophenone", "4-Methoxybutyrophenone", "4\u2032-Methoxybutyrophenone", "4-Butanoylanisole", "Propyl p-anisyl ketone", "Propyl 4-methoxyphenyl ketone", "NSC 5615", "1-Butyryl-4-methoxybenzene"], "SMILES": "C(CCC)(=O)C1=CC=C(OC)C=C1", "physical_data": {"Molecular Weight": "178.23", "Molecular Formula": "C11H14O2", "Boiling Point": "158-159 \u00b0C @ Press: 19 Torr", "Melting Point": "21-22 \u00b0C", "Density": "1.0339 g/cm\u00b3 @ Temp: 40 \u00b0C"}}