{"cas_no": "41606-61-5", "cn_name": "2-\u6c28\u57fa\u82ef\u915a-4-(N-\u4e59\u57fa)\u78fa\u9170\u80fa", "en_name": ["3-Amino-N-ethyl-4-hydroxybenzenesulfonamide", "Benzenesulfonamide, 3-amino-N-ethyl-4-hydroxy-", "Metanilamide, N-ethyl-4-hydroxy-", "1-Phenol-4-sulfonamide, 2-amino-N-ethyl-", "3-Amino-N-ethyl-4-hydroxybenzenesulfonamide", "3-Amino-N-ethyl-4-hydroxybenzene-1-sulfonamide"], "SMILES": "S(NCC)(=O)(=O)C1=CC(N)=C(O)C=C1", "physical_data": {"Molecular Weight": "216.26", "Molecular Formula": "C8H12N2O3S", "Melting Point": "128 \u00b0C"}}