{"cas_no": "41608-64-4", "cn_name": "4-\u6c28\u57fa-3-\u7532\u6c27\u57fa\u82ef\u7532\u9178\u7532\u916f", "en_name": ["Benzoic acid, 4-amino-3-methoxy-, methyl ester", "Benzoic acid, 4-amino-3-methoxy-, methyl ester", "Methyl 4-amino-3-methoxybenzoate", "4-Amino-3-methoxybenzoic acid methyl ester"], "SMILES": "C(OC)(=O)C1=CC(OC)=C(N)C=C1", "physical_data": {"Molecular Weight": "181.19", "Molecular Formula": "C9H11NO3", "Melting Point": "127-129 \u00b0C"}}