{"cas_no": "4160-52-5", "cn_name": "4-\u7532\u57fa\u82ef\u4e01\u916e", "en_name": ["1-(4-Methylphenyl)-1-butanone", "1-Butanone, 1-(4-methylphenyl)-", "Butyrophenone, 4\u2032-methyl-", "1-(4-Methylphenyl)-1-butanone", "p-Methylbutyrophenone", "4\u2032-Methylbutyrophenone", "p-Tolyl propyl ketone", "NSC 163487", "1-Butyryl-4-methylbenzene", "1-(p-Tolyl)butan-1-one", "4-Methylbutyrophenone"], "SMILES": "C(CCC)(=O)C1=CC=C(C)C=C1", "physical_data": {"Molecular Weight": "162.23", "Molecular Formula": "C11H14O", "Boiling Point": "251.5 \u00b0C", "Melting Point": "12 \u00b0C", "Density": "0.9745 g/cm\u00b3 @ Temp: 20 \u00b0C"}}