{"cas_no": "4162-45-2", "cn_name": "2,2-\u53cc[4-(2-\u7f9f\u57fa\u4e59\u6c27\u57fa)-3,5-\u4e8c\u6eb4\u82ef\u57fa]\u4e19\u70f7", "en_name": ["Tetrabromobisphenol A bis(2-hydroxyethyl) ether", "Ethanol, 2,2\u2032-[(1-methylethylidene)bis[(2,6-dibromo-4,1-phenylene)oxy]]bis-", "Ethanol, 2,2\u2032-[isopropylidenebis[(2,6-dibromo-p-phenylene)oxy]]di-", "2,2\u2032-[(1-Methylethylidene)bis[(2,6-dibromo-4,1-phenylene)oxy]]bis[ethanol]", "2,2\u2032-Isopropylidenebis[(2,6-dibromo-p-phenyleneoxy)diethanol]", "2,2-Bis[4-(2-hydroxyethoxy)-3,5-dibromophenyl]propane", "2,2-Bis[3,5-dibromo-4-(2-hydroxyethoxy)phenyl]propane", "2,2-Bis[3,5-dibromo-4-(\u03b2-hydroxyethoxy)phenyl]propane", "Fire Guard 3600", "AFR 1011", "BA 50P", "BA 50", "FG 3600", "Tetrabromobisphenol A bis(2-hydroxyethyl) ether", "4,4\u2032-Isopropylidenebis[2-(2,6-dibromophenoxy)ethanol]", "TBA-EO 20", "2-[2,6-Dibromo-4-[2-[3,5-dibromo-4-(2-hydroxyethoxy)phenyl]propan-2-yl]phenoxy]ethanol"], "SMILES": "C(C)(C)(C1=CC(Br)=C(OCCO)C(Br)=C1)C2=CC(Br)=C(OCCO)C(Br)=C2", "physical_data": {"Molecular Weight": "631.98", "Molecular Formula": "C19H20Br4O4", "Melting Point": "107 \u00b0C"}}