{"cas_no": "4163-60-4", "cn_name": "beta-D-\u534a\u4e73\u7cd6\u4e94\u4e59\u9178\u916f", "en_name": ["\u03b2-D-Galactose pentaacetate", "\u03b2-D-Galactopyranose, 1,2,3,4,6-pentaacetate", "Galactopyranose, pentaacetate, \u03b2-D-", "\u03b2-D-Galactopyranose, pentaacetate", "1,2,3,4,6-Penta-O-acetyl-\u03b2-D-galactopyranose", "Penta-O-acetyl-\u03b2-D-galactopyranose", "Pentaacetyl-\u03b2-D-galactose", "1,2,3,4,6-Penta-O-acetyl-\u03b2-D-galactose", "\u03b2-Pentaacetylgalactose", "\u03b2-D-Galactose pentaacetate", "1,2,3,4,6-Penta-O-acetyl-\u03b2-D-galactopyranoside", "NSC 119334", "NSC 1353", "2,3,4,6-Tetra-O-acetyl-\u03b2-D-galactopyranosyl acetate", "Tetra-O-acetyl-\u03b2-D-galactopyranosyl acetate", "\u03b2-D-Galactopyranose peracetate", "\u03b2-D-Galactopyranoside pentaacetate", "1,2,3,4,6-Penta-O-acetyl-D-galactose", "O-Pentaacetyl \u03b2-D-galactopyranoside", "\u03b2-D-Galactopyranoside peracetate"], "SMILES": "O(C(C)=O)C1C(OC(C)=O)C(COC(C)=O)OC(OC(C)=O)C1OC(C)=O", "physical_data": {"Molecular Weight": "390.34", "Molecular Formula": "C16H22O11", "Melting Point": "141-142 \u00b0C"}}