{"cas_no": "4163-59-1", "cn_name": "\u0391-D-\u4e94\u4e59\u9170\u534a\u4e73\u7cd6", "en_name": ["\u03b1-D-Galactopyranose, 1,2,3,4,6-pentaacetate", "\u03b1-D-Galactopyranose, 1,2,3,4,6-pentaacetate", "Galactopyranose, pentaacetate, \u03b1-D-", "\u03b1-D-Galactopyranose, pentaacetate", "Galactopyranose, \u03b1-D-, pentaacetate", "Penta-O-acetyl-\u03b1-D-galactopyranose", "1,2,3,4,6-Penta-O-acetyl-\u03b1-D-galactopyranose", "1,2,3,4,6-Penta-O-acetyl-\u03b1-D-galactose", "Pentaacetyl-\u03b1-D-galactopyranose", "\u03b1-D-Galactose pentaacetate", "2,3,4,6-Tetra-O-acetyl-\u03b1-D-galactopyranosyl acetate"], "SMILES": "O(C(C)=O)C1C(OC(C)=O)C(COC(C)=O)OC(OC(C)=O)C1OC(C)=O", "physical_data": {"Molecular Weight": "390.34", "Molecular Formula": "C16H22O11", "Melting Point": "95-96 \u00b0C"}}