{"cas_no": "4163-65-9", "cn_name": "1,2,3,4,6-O-\u4e94\u4e59\u9170\u57fa-\u0391-\u7518\u9732\u7cd6", "en_name": ["\u03b1-D-Mannose pentaacetate", "\u03b1-D-Mannopyranose, 1,2,3,4,6-pentaacetate", "Mannopyranose, pentaacetate, \u03b1-D-", "\u03b1-D-Mannopyranose, pentaacetate", "Penta-O-acetyl-\u03b1-D-mannopyranose", "1,2,3,4,6-Penta-O-acetyl-\u03b1-D-mannopyranose", "1,2,3,4,6-Penta-O-acetyl-\u03b1-D-mannose", "\u03b1-D-Mannose pentaacetate", "NSC 51251", "2,3,4,6-Tetra-O-acetyl-\u03b1-D-mannopyranosyl acetate", "(2R,3S,4S,5R,6R)-6-(Acetoxymethyl)tetrahydro-2H-pyran-2,3,4,5-tetrayl tetraacetate"], "SMILES": "O(C(C)=O)C1C(OC(C)=O)C(COC(C)=O)OC(OC(C)=O)C1OC(C)=O", "physical_data": {"Molecular Weight": "390.34", "Molecular Formula": "C16H22O11", "Boiling Point": "135 \u00b0C @ Press: 1 x 10<sup>-4</sup> Torr", "Melting Point": "74 \u00b0C"}}