{"cas_no": "4164-39-0", "cn_name": "1.4-\u5421\u55ea\u4e8c\u7532\u919b", "en_name": ["1,4-Piperazinedicarboxaldehyde", "1,4-Piperazinedicarboxaldehyde", "N,N\u2032-Diformylpiperazine", "1,4-Diformylpiperazine", "NSC 506922"], "SMILES": "C(=O)N1CCN(C=O)CC1", "physical_data": {"Molecular Weight": "142.16", "Molecular Formula": "C6H10N2O2", "Boiling Point": "167-170 \u00b0C @ Press: 1 Torr", "Melting Point": "128-129 \u00b0C"}}