{"cas_no": "4165-98-4", "cn_name": "3-\u4e19\u57fa\u620a\u4e8c\u9178", "en_name": ["3-Propylpentanedioic acid", "Pentanedioic acid, 3-propyl-", "Glutaric acid, 3-propyl-", "3-Propylpentanedioic acid", "3-Propylglutaric acid"], "SMILES": "C(CC(O)=O)(CC(O)=O)CCC", "physical_data": {"Molecular Weight": "174.19", "Molecular Formula": "C8H14O4", "Melting Point": "52 \u00b0C"}}