{"cas_no": "4165-57-5", "cn_name": "\u6c18\u4ee3\u6eb4\u82ef", "en_name": ["Bromobenzene-d5", "Benzene-1,2,3,4,5-d5, 6-bromo-", "Benzene-d5, bromo-", "6-Bromobenzene-1,2,3,4,5-d5", "Bromobenzene-d5", "Bromopentadeuteriobenzene", "Perdeuteriobromobenzene", "Pentadeuterophenyl bromide", "Bromopentadeuterobenzene", "d5-Bromobenzene", "1-Bromobenzene-2,3,4,5,6-d5", "Pentadeutero-1-bromobenzene", "1-Bromo-2,3,4,5,6-pentadeuterobenzene", "2,3,4,5,6-Pentadeutero-1-bromobenzene", "1-Bromoperdeuterobenzene"], "SMILES": "BrC1=C(C=CC=C1)[2H]", "physical_data": {"Molecular Weight": "", "Molecular Formula": "C6BrD5", "Boiling Point": "88-89 \u00b0C @ Press: 100 Torr"}}