{"cas_no": "41653-72-9", "cn_name": "LACINILENE C", "en_name": ["(1R)-1,7-Dihydroxy-1,6-dimethyl-4-(1-methylethyl)-2(1H)-naphthalenone", "2(1H)-Naphthalenone, 1,7-dihydroxy-1,6-dimethyl-4-(1-methylethyl)-, (1R)-", "2(1H)-Naphthalenone, 1,7-dihydroxy-1,6-dimethyl-4-(1-methylethyl)-, (R)-", "(1R)-1,7-Dihydroxy-1,6-dimethyl-4-(1-methylethyl)-2(1H)-naphthalenone", "Lacinilene C", "(+)-Lacinilene C"], "SMILES": "C(C)(C)C=1C=2C(C(C)(O)C(=O)C1)=CC(O)=C(C)C2", "physical_data": {"Molecular Weight": "246.30", "Molecular Formula": "C15H18O3", "Melting Point": "92-93 \u00b0C"}}