{"cas_no": "4165-96-2", "cn_name": "3-\u82ef\u57fa\u620a\u4e8c\u9178", "en_name": ["3-Phenylglutaric acid", "Pentanedioic acid, 3-phenyl-", "Glutaric acid, 3-phenyl-", "3-Phenylpentanedioic acid", "\u03b2-Phenylglutaric acid", "3-Phenylglutaric acid"], "SMILES": "C(CC(O)=O)(CC(O)=O)C1=CC=CC=C1", "physical_data": {"Molecular Weight": "208.21", "Molecular Formula": "C11H12O4", "Melting Point": "140 \u00b0C"}}