{"cas_no": "4165-60-0", "cn_name": "\u6c18\u4ee3\u785d\u57fa\u82ef", "en_name": ["Nitrobenzene-d5", "Benzene-1,2,3,4,5-d5, 6-nitro-", "Benzene-d5, nitro-", "6-Nitrobenzene-1,2,3,4,5-d5", "Perdeuteronitrobenzene", "Pentadeuterionitrobenzene", "Nitrobenzene-d5", "1,2,3,4,5-Pentadeuterio-6-nitrobenzene"], "SMILES": "N(=O)(=O)C1=C(C=CC=C1)[2H]", "physical_data": {"Molecular Weight": "", "Molecular Formula": "C6D5NO2", "Boiling Point": "215-217 \u00b0C @ Press: 711 Torr", "Density": "1.2533 g/cm\u00b3 @ Temp: 25 \u00b0C"}}