{"cas_no": "41667-95-2", "cn_name": "5,6-\u4e8c\u6c2f\u70df\u9178", "en_name": ["5,6-Dichloronicotinic acid", "3-Pyridinecarboxylic acid, 5,6-dichloro-", "Nicotinic acid, 5,6-dichloro-", "5,6-Dichloro-3-pyridinecarboxylic acid", "5,6-Dichloronicotinic acid", "5,6-Dichloropyridine-3-carboxylic acid", "NSC 63885", "2,3-Dichloropyridine-5-carboxylic acid"], "SMILES": "C(O)(=O)C=1C=C(Cl)C(Cl)=NC1", "physical_data": {"Molecular Weight": "192.00", "Molecular Formula": "C6H3Cl2NO2", "Melting Point": "&gt;300 \u00b0C (decomp)"}}