{"cas_no": "41663-73-4", "cn_name": "5-\u6c2f-2-\u6c28\u57fa\u567b\u5511", "en_name": ["5-Chloro-2-thiazolamine", "2-Thiazolamine, 5-chloro-", "5-Chloro-2-thiazolamine", "2-Amino-5-chlorothiazole", "5-Chloro-2-aminothiazole", "NSC 86106", "5-Chlorothiazol-2-ylamine", "5-Chloro-1,3-thiazol-2-amine"], "SMILES": "ClC=1SC(N)=NC1", "physical_data": {"Molecular Weight": "134.59", "Molecular Formula": "C3H3ClN2S", "Melting Point": "109-110 \u00b0C"}}