{"cas_no": "4166-53-4", "cn_name": "3-\u7532\u57fa\u620a\u4e8c\u9178\u9150", "en_name": ["Dihydro-4-methyl-2H-pyran-2,6(3H)-dione", "2H-Pyran-2,6(3H)-dione, dihydro-4-methyl-", "Glutaric anhydride, 3-methyl-", "Dihydro-4-methyl-2H-pyran-2,6(3H)-dione", "\u03b2-Methylglutaric anhydride", "3-Methylglutaric anhydride", "\u03b2-Methylglutaryl anhydride", "4-Methyltetrahydropyran-2,6-dione"], "SMILES": "CC1CC(=O)OC(=O)C1", "physical_data": {"Molecular Weight": "128.13", "Molecular Formula": "C6H8O3", "Boiling Point": "276-278 \u00b0C", "Melting Point": "46-47 \u00b0C"}}