{"cas_no": "41663-84-7", "cn_name": "N-\u7532\u57fa-4-\u785d\u57fa\u90bb\u82ef\u4e8c\u7532\u9170\u4e9a\u80fa", "en_name": ["2-Methyl-5-nitro-1H-isoindole-1,3(2H)-dione", "1H-Isoindole-1,3(2H)-dione, 2-methyl-5-nitro-", "Phthalimide, N-methyl-4-nitro-", "2-Methyl-5-nitro-1H-isoindole-1,3(2H)-dione", "4-Nitro-N-methylphthalimide", "N-Methyl-4-nitrophthalimide", "2-Methyl-5-nitro-isoindole-1,3-dione", "2-Methyl-5-nitroisoindoline-1,3-dione", "2-Methyl-5-nitro-2,3-dihydro-1H-isoindole-1,3-dione", "2-Methyl-5-nitroisoindole-1,3-dione"], "SMILES": "O=C1C=2C(C(=O)N1C)=CC=C(N(=O)=O)C2", "physical_data": {"Molecular Weight": "206.15", "Molecular Formula": "C9H6N2O4", "Melting Point": "179-180 \u00b0C"}}