{"cas_no": "4167-77-5", "cn_name": "1,1-\u4e8c\u7532\u9178\u4e59\u916f\u73af\u620a\u70f7", "en_name": ["1,1-Cyclopentanedicarboxylic acid, 1,1-diethyl ester", "1,1-Cyclopentanedicarboxylic acid, 1,1-diethyl ester", "1,1-Cyclopentanedicarboxylic acid, diethyl ester", "Diethyl 1,1-cyclopentanedicarboxylate", "1,1-Bis(ethoxycarbonyl)cyclopentane", "NSC 67352", "1,1-Cyclopentanecarboxylic acid diethyl ester", "1,1-Diethyl cyclopentane-1,1-dicarboxylate"], "SMILES": "C(OCC)(=O)C1(C(OCC)=O)CCCC1", "physical_data": {"Molecular Weight": "214.26", "Molecular Formula": "C11H18O4", "Boiling Point": "210 \u00b0C", "Density": "1.0186 g/cm\u00b3 @ Temp: 20 \u00b0C"}}