{"cas_no": "4167-35-5", "cn_name": "1,4-dioxaspiro[4.5]dec-2-ylmethanol", "en_name": ["1,4-Dioxaspiro[4.5]decane-2-methanol", "1,4-Dioxaspiro[4.5]decane-2-methanol", "Cyclohexanone cyclic 3-hydroxypropylene acetal", "Cyclohexanone cyclic (hydroxymethyl)ethylene acetal", "Cyclohexylidene glycerol", "2-Hydroxymethyl-1,4-dioxaspiro[4.5]decane", "1,4-Dioxaspiro[4.5]decan-2-ylmethanol", "(1,4-Dioxa-spiro[4. 5]dec-2-yl)-methanol", "[1,4-Dioxaspiro[4.5]decan-2-yl]methanol", "1,4-Dioxaspiro[4.5]decan-3-ylmethanol"], "SMILES": "C(O)C1OC2(OC1)CCCCC2", "physical_data": {"Molecular Weight": "172.22", "Molecular Formula": "C9H16O3", "Boiling Point": "118-120 \u00b0C @ Press: 5 Torr", "Melting Point": "121-123 \u00b0C", "Density": "1.0931 g/cm\u00b3 @ Temp: 20 \u00b0C"}}