{"cas_no": "4168-79-0", "cn_name": "2,2,6,6-\u56db\u7532\u57fa-4-\u54cc\u5576\u916e\u809f", "en_name": ["4-Piperidinone, 2,2,6,6-tetramethyl-, oxime", "4-Piperidinone, 2,2,6,6-tetramethyl-, oxime", "4-Piperidone, 2,2,6,6-tetramethyl-, oxime", "EX 4826", "2,2,6,6-Tetramethyl-4-piperidinone oxime", "Triacetonamine oxime", "4-(Hydroxyimino)-2,2,6,6-tetramethylpiperidine", "2,2,6,6-Tetramethyl-4-oxopiperidine oxime", "IKh 86", "2,2,6,6-Tetramethyl-4-piperidone oxime"], "SMILES": "CC1(C)NC(C)(C)CC(=NO)C1", "physical_data": {"Molecular Weight": "170.25", "Molecular Formula": "C9H18N2O", "Melting Point": "155 \u00b0C"}}