{"cas_no": "4168-73-4", "cn_name": "\u4e09\u5df1\u57fa\u81a6", "en_name": ["Trihexylphosphine", "Phosphine, trihexyl-", "Trihexylphosphine", "Tri-n-hexylphosphine", "Cytop 360"], "SMILES": "P(CCCCCC)(CCCCCC)CCCCCC", "physical_data": {"Molecular Weight": "286.48", "Molecular Formula": "C18H39P", "Boiling Point": "227 \u00b0C", "Melting Point": "20 \u00b0C"}}