{"cas_no": "4169-04-4", "cn_name": "2-\u82ef\u6c27\u57fa-1-\u4e19\u9187", "en_name": ["2-Phenoxy-1-propanol", "1-Propanol, 2-phenoxy-", "2-Phenoxy-1-propanol", "2-Phenoxypropanol", "2-Phenoxypropyl alcohol"], "SMILES": "O(C(CO)C)C1=CC=CC=C1", "physical_data": {"Molecular Weight": "152.19", "Molecular Formula": "C9H12O2", "Boiling Point": "244 \u00b0C"}}