{"cas_no": "4170-90-5", "cn_name": "2,4,6-\u4e09\u7532\u57fa\u82c4\u9187", "en_name": ["2,4,6-Trimethylbenzyl alcohol", "Benzenemethanol, 2,4,6-trimethyl-", "Benzyl alcohol, 2,4,6-trimethyl-", "2,4,6-Trimethylbenzenemethanol", "Mesitylcarbinol", "2,4,6-Trimethylbenzyl alcohol", "Mesitylmethanol", "(2,4,6-Trimethylphenyl)methanol"], "SMILES": "C(O)C1=C(C)C=C(C)C=C1C", "physical_data": {"Molecular Weight": "150.22", "Molecular Formula": "C10H14O", "Boiling Point": "140-141 \u00b0C @ Press: 15 Torr", "Melting Point": "88-89 \u00b0C"}}