{"cas_no": "4170-30-3", "cn_name": "\u5df4\u8c46\u919b", "en_name": ["Crotonaldehyde", "2-Butenal", "Crotonaldehyde", "Crotonal", "Crotonic aldehyde", "1-Formylpropene", "2-Butenaldehyde", "NSC 56354", "But-2-en-1-al"], "SMILES": "C(=CC)C=O", "physical_data": {"Molecular Weight": "70.09", "Molecular Formula": "C4H6O", "Boiling Point": "102 \u00b0C", "Melting Point": "-76.5 \u00b0C", "Density": "0.853 g/cm\u00b3 @ Temp: 20 \u00b0C"}}