{"cas_no": "4170-24-5", "cn_name": "2-\u6c2f\u4e01\u9178", "en_name": ["2-Chlorobutanoic acid", "Butanoic acid, 2-chloro-", "Butyric acid, 2-chloro-", "Butyric acid, \u03b1-chloro-", "2-Chlorobutanoic acid", "2-Chlorobutyric acid", "\u03b1-Chlorobutyric acid", "(\u00b1)-2-Chlorobutyric acid", "(\u00b1)-\u03b1-Chlorobutanoic acid", "(\u00b1)-2-Chlorobutanoic acid", "(RS)-\u03b1-Chlorobutyric acid", "(RS)-2-Chlorobutyric acid", "\u03b1-Monochlorobutanoic acid", "2-Chloro-n-butyric acid"], "SMILES": "C(C(O)=O)(CC)Cl", "physical_data": {"Molecular Weight": "122.55", "Molecular Formula": "C4H7ClO2", "Boiling Point": "109.5 \u00b0C @ Press: 24 Torr", "Melting Point": "76.2-77 \u00b0C", "Density": "1.189 g/cm\u00b3 @ Temp: 25 \u00b0C"}}