{"cas_no": "41708-72-9", "cn_name": "\u59a5\u5361\u5c3c", "en_name": ["Tocainide", "Propanamide, 2-amino-N-(2,6-dimethylphenyl)-", "2-Amino-N-(2,6-dimethylphenyl)propanamide", "2-Amino-2\u2032,6\u2032-propionoxylidide", "Astra W 36095", "W 36095", "Tocainide", "(RS)-Tocainide", "(\u00b1)-Tocainide", "Racemic tocainide", "DL-Tocainide"], "SMILES": "N(C(C(C)N)=O)C1=C(C)C=CC=C1C", "physical_data": {"Molecular Weight": "192.26", "Molecular Formula": "C11H16N2O", "Melting Point": "246-266 \u00b0C"}}