{"cas_no": "4171-13-5", "cn_name": "\u620a\u8bfa\u9170\u80fa", "en_name": ["Valnoctamide", "Pentanamide, 2-ethyl-3-methyl-", "Valeramide, 2-ethyl-3-methyl-", "2-Ethyl-3-methylpentanamide", "McN X 181", "Axiquel", "2-Ethyl-3-methylvaleramide", "Nirvanil", "Valmethamide", "Valnoctamide", "NSC 32363", "NSC 34092"], "SMILES": "C(C(CC)C)(C(N)=O)CC", "physical_data": {"Molecular Weight": "143.23", "Molecular Formula": "C8H17NO", "Melting Point": "113.75 \u00b0C"}}