{"cas_no": "4171-83-9", "cn_name": "2-\u785d\u57fa\u4e8c\u82ef\u786b\u919a", "en_name": ["2-Nitrophenyl phenyl sulfide", "Benzene, 1-nitro-2-(phenylthio)-", "Sulfide, o-nitrophenyl phenyl", "1-Nitro-2-(phenylthio)benzene", "2-Nitrodiphenyl sulfide", "2-Nitrophenyl phenyl sulfide", "o-Nitrophenyl phenyl sulfide", "2-Nitrophenyl phenyl thioether", "NSC 408025", "NSC 633005", "1-Nitro-2-phenylsulfanylbenzene", "(2-Nitrophenyl)(phenyl)sulfane"], "SMILES": "S(C1=C(N(=O)=O)C=CC=C1)C2=CC=CC=C2", "physical_data": {"Molecular Weight": "231.27", "Molecular Formula": "C12H9NO2S", "Melting Point": "82 \u00b0C"}}