{"cas_no": "41717-28-6", "cn_name": "1-\u82ef\u5e76\u544b\u5583-2-\u7fb0\u9170\u6c2f", "en_name": ["2-Benzofurancarbonyl chloride", "2-Benzofurancarbonyl chloride", "Coumarilic acid chloride", "Coumariloyl chloride", "Benzofuran-2-carboxylic acid chloride", "2-Benzo[b]furancarbonyl chloride", "NSC 162303", "1-Benzofuran-2-carbonyl chloride", "Benzo[b]furan-2-carbonyl chloride"], "SMILES": "C(Cl)(=O)C1=CC=2C(O1)=CC=CC2", "physical_data": {"Molecular Weight": "180.59", "Molecular Formula": "C9H5ClO2", "Boiling Point": "267-269 \u00b0C @ Press: 746 Torr", "Melting Point": "54-55 \u00b0C"}}