{"cas_no": "41727-47-3", "cn_name": "3,5-\u4e8c\u6eb4-4-\u7f9f\u57fa\u82ef\u7532\u9178\u7532\u916f", "en_name": ["Methyl 3,5-dibromo-4-hydroxybenzoate", "Benzoic acid, 3,5-dibromo-4-hydroxy-, methyl ester", "Methyl 3,5-dibromo-4-hydroxybenzoate", "3,5-Dibromo-4-hydroxybenzoic acid methyl ester"], "SMILES": "C(OC)(=O)C1=CC(Br)=C(O)C(Br)=C1", "physical_data": {"Molecular Weight": "309.94", "Molecular Formula": "C8H6Br2O3", "Melting Point": "123-124 \u00b0C"}}