{"cas_no": "41720-98-3", "cn_name": "(R)-2-\u7532\u57fa\u5421\u54af\u70f7", "en_name": ["(2R)-2-Methylpyrrolidine", "Pyrrolidine, 2-methyl-, (2R)-", "Pyrrolidine, 2-methyl-, (R)-", "(2R)-2-Methylpyrrolidine", "L-2-Methylpyrrolidine", "(R)-(-)-2-Methylpyrrolidine", "2-(R)-Methylpyrrolidine", "(R)-2-Methylpyrrolidine", "(R)-(-)-2-Methylpyrrolidine"], "SMILES": "CC1CCCN1", "physical_data": {"Molecular Weight": "85.15", "Molecular Formula": "C5H11N", "Boiling Point": "94 \u00b0C @ Press: 728 Torr"}}