{"cas_no": "41730-79-4", "cn_name": "1-\u7532\u78fa\u9170\u57fa-2-\u54aa\u5511\u70f7\u916e", "en_name": ["1-(Methylsulfonyl)-2-imidazolidinone", "2-Imidazolidinone, 1-(methylsulfonyl)-", "1-(Methylsulfonyl)-2-imidazolidinone", "1-(Methylsulfonyl)-2-imidazolidin-2-one", "1-Mesyl-2-imidazolidinone", "1-Methanesulfonylimidazolidin-2-one"], "SMILES": "S(C)(=O)(=O)N1C(=O)NCC1", "physical_data": {"Molecular Weight": "164.18", "Molecular Formula": "C4H8N2O3S", "Melting Point": "192-194 \u00b0C"}}