{"cas_no": "41744-40-5", "cn_name": "\u78fa\u82c4\u897f\u6797", "en_name": ["Sulbenicillin", "4-Thia-1-azabicyclo[3.2.0]heptane-2-carboxylic acid, 3,3-dimethyl-7-oxo-6-[[(2R)-2-phenyl-2-sulfoacetyl]amino]-, (2S,5R,6R)-", "4-Thia-1-azabicyclo[3.2.0]heptane-2-carboxylic acid, 3,3-dimethyl-7-oxo-6-[(phenylsulfoacetyl)amino]-, [2S-[2\u03b1,5\u03b1,6\u03b2(S*)]]-", "4-Thia-1-azabicyclo[3.2.0]heptane-2-carboxylic acid, 3,3-dimethyl-7-oxo-6-[[(2R)-phenylsulfoacetyl]amino]-, (2S,5R,6R)-", "(2S,5R,6R)-3,3-Dimethyl-7-oxo-6-[[(2R)-2-phenyl-2-sulfoacetyl]amino]-4-thia-1-azabicyclo[3.2.0]heptane-2-carboxylic acid", "D-(-)-Sulbenicillin", "Sulbenicillin, D-(-)-", "\u03b1-Sulfobenzylpenicillin", "Sulbenicillin", "SBPC"], "SMILES": "C(O)(=O)C1N2C(C(NC(C(S(=O)(=O)O)C3=CC=CC=C3)=O)C2=O)SC1(C)C", "physical_data": {"Molecular Weight": "414.45", "Molecular Formula": "C16H18N2O7S2", "Melting Point": "197 \u00b0C (decomp)"}}