{"cas_no": "41743-73-1", "cn_name": "\u6b21\u91ce\u9e22\u5c3e\u9ec4\u7d20", "en_name": ["Irisflorentin", "8H-1,3-Dioxolo[4,5-g][1]benzopyran-8-one, 9-methoxy-7-(3,4,5-trimethoxyphenyl)-", "9-Methoxy-7-(3,4,5-trimethoxyphenyl)-8H-1,3-dioxolo[4,5-g][1]benzopyran-8-one", "Irisflorentin", "Irisflorentine"], "SMILES": "O(C)C=1C2=C(C=C3C1OCO3)OC=C(C2=O)C4=CC(OC)=C(OC)C(OC)=C4", "physical_data": {"Molecular Weight": "386.35", "Molecular Formula": "C20H18O8", "Melting Point": "165-167 \u00b0C"}}