{"cas_no": "4175-66-0", "cn_name": "2,5-\u4e8c\u7532\u57fa\u567b\u5511", "en_name": ["2,5-Dimethylthiazole", "Thiazole, 2,5-dimethyl-", "2,5-Dimethylthiazole", "2,5-Dimethyl-1,3-thiazole"], "SMILES": "CC=1SC(C)=NC1", "physical_data": {"Molecular Weight": "113.18", "Molecular Formula": "C5H7NS", "Boiling Point": "153 \u00b0C @ Press: 758 Torr", "Density": "1.0280 g/cm\u00b3 @ Temp: 21 \u00b0C"}}