{"cas_no": "4175-76-2", "cn_name": "2,4-\u4e8c\u6c2f\u567b\u5511", "en_name": ["2,4-Dichlorothiazole", "Thiazole, 2,4-dichloro-", "2,4-Dichlorothiazole", "2,4-Dichloro-1,3-thiazole"], "SMILES": "ClC=1N=C(Cl)SC1", "physical_data": {"Molecular Weight": "154.02", "Molecular Formula": "C3HCl2NS", "Boiling Point": "184 \u00b0C", "Melting Point": "42-43 \u00b0C"}}