{"cas_no": "41753-43-9", "cn_name": "\u4eba\u53c2\u7682\u82f7 Rb1", "en_name": ["Ginsenoside Rb1", "\u03b2-D-Glucopyranoside, (3\u03b2,12\u03b2)-20-[(6-O-\u03b2-D-glucopyranosyl-\u03b2-D-glucopyranosyl)oxy]-12-hydroxydammar-24-en-3-yl 2-O-\u03b2-D-glucopyranosyl-", "Dammarane, \u03b2-D-glucopyranoside deriv.", "(3\u03b2,12\u03b2)-20-[(6-O-\u03b2-D-Glucopyranosyl-\u03b2-D-glucopyranosyl)oxy]-12-hydroxydammar-24-en-3-yl 2-O-\u03b2-D-glucopyranosyl-\u03b2-D-glucopyranoside", "Ginsenoside Rb1", "Sanchinoside E1", "Gypenoside III", "Gynosaponin C", "Arasaponin E1", "Panaxoside Rb1", "Sanchinoside Rb1", "Notoginsenoside Rb1", "NSC 310103", "RB 1"], "SMILES": "CC12C(C3(C)C(CC1)C(C)(C)C(OC4C(OC5OC(CO)C(O)C(O)C5O)C(O)C(O)C(CO)O4)CC3)CC(O)C6C2(C)CCC6C(OC7OC(COC8OC(CO)C(O)C(O)C8O)C(O)C(O)C7O)(CCC=C(C)C)C", "physical_data": {"Molecular Weight": "1109.29", "Molecular Formula": "C54H92O23", "Melting Point": "186-188 \u00b0C"}}