{"cas_no": "4175-37-5", "cn_name": "\u9632\u8001\u5242OD", "en_name": ["p-Octyldiphenylamine", "Benzenamine, 4-octyl-N-phenyl-", "Diphenylamine, 4-octyl-", "4-Octyl-N-phenylbenzenamine", "p-Octyldiphenylamine", "4-Octyldiphenylamine"], "SMILES": "N(C1=CC=C(CCCCCCCC)C=C1)C2=CC=CC=C2", "physical_data": {"Molecular Weight": "281.44", "Molecular Formula": "C20H27N", "Melting Point": "41-43 \u00b0C"}}