{"cas_no": "41757-95-3", "cn_name": "4'-\u4e59\u9170\u82ef\u5e76-15-\u51a0-5-\u919a", "en_name": ["1-(2,3,5,6,8,9,11,12-Octahydro-1,4,7,10,13-benzopentaoxacyclopentadecin-15-yl)ethanone", "Ethanone, 1-(2,3,5,6,8,9,11,12-octahydro-1,4,7,10,13-benzopentaoxacyclopentadecin-15-yl)-", "1,4,7,10,13-Benzopentaoxacyclopentadecin, ethanone deriv.", "1-(2,3,5,6,8,9,11,12-Octahydro-1,4,7,10,13-benzopentaoxacyclopentadecin-15-yl)ethanone", "2,3-(4\u2032-Acetobenzo)-1,4,7,10,13-pentaoxacyclopentadeca-2-ene", "4\u2032-Acetobenzo-15-crown-5", "15-Acetylbenzo-[15-crown-5]", "4\u2032-Acetylbenzo-15-crown-5", "1-(6,7,9,10,12,13,15,16-Octahydro-5,8,11,14,17-pentaoxabenzocyclopentadecen-2-yl)ethanone", "1-(2,5,8,11,14-Pentaoxabicyclo[13.4.0]nonadeca-1(15),16,18-trien-17-yl)ethanone"], "SMILES": "C(C)(=O)C=1C=C2C(=CC1)OCCOCCOCCOCCO2", "physical_data": {"Molecular Weight": "310.34", "Molecular Formula": "C16H22O6", "Melting Point": "95-96.5 \u00b0C"}}