{"cas_no": "41764-74-3", "cn_name": "3,4-\u4e8c\u7532\u6c27\u57fa\u82ef\u9170\u80bc", "en_name": ["Benzoic acid, 3,4-dimethoxy-, hydrazide", "Benzoic acid, 3,4-dimethoxy-, hydrazide", "Veratric acid hydrazide", "3,4-Dimethoxybenzoic acid hydrazide", "3,4-Dimethoxybenzohydrazide", "(3,4-Dimethoxybenzoyl)hydrazine", "1,2-Dimethoxybenzene-4-carbohydrazide", "3,4-Dimethoxybenzhydrazide", "3,4-Dimethoxybenzoyl hydrazide"], "SMILES": "O(C)C1=C(OC)C=CC(C(NN)=O)=C1", "physical_data": {"Molecular Weight": "196.20", "Molecular Formula": "C9H12N2O3", "Melting Point": "145 \u00b0C"}}