{"cas_no": "4176-55-0", "cn_name": "\u4e9a\u786b\u9178\u4e19\u70ef\u916f", "en_name": ["1,3,2-Dioxathiane, 2-oxide", "1,3,2-Dioxathiane, 2-oxide", "1,3-Propanediol, cyclic sulfite", "Trimethylene sulfite", "1,3-Propylene sulfite", "2-Oxo-1,3,2-dioxathiane", "NSC 78687", "1,3,2\u03bb4-Dioxathian-2-one"], "SMILES": "O=S1OCCCO1", "physical_data": {"Molecular Weight": "122.14", "Molecular Formula": "C3H6O3S", "Boiling Point": "88 \u00b0C @ Press: 39 Torr", "Melting Point": "-14 \u00b0C", "Density": "1.3225 g/cm\u00b3 @ Temp: 20 \u00b0C"}}