{"cas_no": "41762-76-9", "cn_name": "1-\u6c2f\u7532\u9170\u57fa-3-\u7532\u78fa\u9170\u57fa-2-\u54aa\u5511\u70f7\u916e", "en_name": ["3-(Methylsulfonyl)-2-oxo-1-imidazolidinecarbonyl chloride", "1-Imidazolidinecarbonyl chloride, 3-(methylsulfonyl)-2-oxo-", "3-(Methylsulfonyl)-2-oxo-1-imidazolidinecarbonyl chloride", "1-(Chlorocarbonyl)-3-mesyl-2-oxoimidazolidine", "3-Mesyl-2-oxo-1-imidazolidinecarbonyl chloride", "3-(Methylsulfonyl)-2-oxoimidazolidine-1-carbonyl chloride", "1-Chlorocarbonyl-3-methylsulfonylimidazolidin-2-one", "3-(Methylsulfonyl)imidazolidin-2-one-1-carbonyl chloride", "3-Chlorocarbonyl-1-methanesulfonyl-2-imidazolidinone", "1-Chloroformyl-3-methanesulfonyl-2-imidazolidinone", "3-Methanesulfonyl-2-oxoimidazolidine-1-carbonyl chloride"], "SMILES": "O=C1N(S(C)(=O)=O)CCN1C(Cl)=O", "physical_data": {"Molecular Weight": "226.64", "Molecular Formula": "C5H7ClN2O4S", "Melting Point": "179-180 \u00b0C"}}