{"cas_no": "4176-97-0", "cn_name": "\u53bb\u6c27\u7a7f\u5fc3\u83b2\u5185\u916f", "en_name": ["Deoxyandrographolide", "2(5H)-Furanone, 3-[2-[(1R,4aS,5R,6R,8aS)-decahydro-6-hydroxy-5-(hydroxymethyl)-5,8a-dimethyl-2-methylene-1-naphthalenyl]ethyl]-", "5\u03b2,9\u03b2H,10\u03b1-Labda-8(20),13-dien-16-oic acid, 3\u03b1,15,18-trihydroxy-, \u03b3-lactone", "2(5H)-Furanone, 3-[2-[decahydro-6-hydroxy-5-(hydroxymethyl)-5,8a-dimethyl-2-methylene-1-naphthalenyl]ethyl]-, [1R-(1\u03b1,4a\u03b2,5\u03b1,6\u03b1,8a\u03b1)]-", "3-[2-[(1R,4aS,5R,6R,8aS)-Decahydro-6-hydroxy-5-(hydroxymethyl)-5,8a-dimethyl-2-methylene-1-naphthalenyl]ethyl]-2(5H)-furanone", "Deoxyandrographolide", "14-Deoxyandrographolide", "NP 011179", "AD 04130-4", "12,13-Dehydro,14-deoxyandrographolide"], "SMILES": "CC12C(C(CO)(C)C(O)CC1)CCC(=C)C2CCC=3C(=O)OCC3", "physical_data": {"Molecular Weight": "334.45", "Molecular Formula": "C20H30O4", "Melting Point": "170-172 \u00b0C"}}