{"cas_no": "4177-16-6", "cn_name": "2-\u4e59\u70ef\u57fa\u5421\u55ea", "en_name": ["Vinylpyrazine", "Pyrazine, 2-ethenyl-", "Pyrazine, vinyl-", "Pyrazine, ethenyl-", "2-Ethenylpyrazine", "2-Vinylpyrazine", "Vinylpyrazine"], "SMILES": "C(=C)C=1C=NC=CN1", "physical_data": {"Molecular Weight": "106.13", "Molecular Formula": "C6H6N2", "Boiling Point": "61 \u00b0C @ Press: 20 Torr", "Density": "1.046 g/cm\u00b3 @ Temp: 20 \u00b0C"}}