{"cas_no": "41775-76-2", "cn_name": "\u6c2e\u6742-12-\u51a0\u919a-4", "en_name": ["1,4,7-Trioxa-10-azacyclododecane", "1,4,7-Trioxa-10-azacyclododecane", "Monoaza-12-crown-4", "Aza-12-crown-4", "1-Aza-4,7,10-trioxacyclododecane", "10-Aza-12-crown-4", "12-Crown-O3N", "1-Aza-12-crown-4"], "SMILES": "C1COCCOCCOCCN1", "physical_data": {"Molecular Weight": "175.23", "Molecular Formula": "C8H17NO3", "Boiling Point": "58-62 \u00b0C @ Press: 5 x 10<sup>-3</sup> Torr", "Melting Point": "57-59 \u00b0C"}}