{"cas_no": "41772-23-0", "cn_name": "2-\u6c28\u57fa-1-\u8418\u915a\u76d0\u9178\u76d0", "en_name": ["1-Naphthalenol, 2-amino-, hydrochloride (1:1)", "1-Naphthalenol, 2-amino-, hydrochloride (1:1)", "1-Naphthalenol, 2-amino-, hydrochloride", "1-Naphthol, 2-amino-, hydrochloride", "2-Amino-1-naphthol hydrochloride", "1-Hydroxy-2-naphthylamine hydrochloride"], "SMILES": "OC=1C2=C(C=CC1N)C=CC=C2.Cl", "physical_data": {"Molecular Weight": "", "Molecular Formula": "C10H9NO.ClH", "Melting Point": "200-202 \u00b0C"}}