{"cas_no": "4178-93-2", "cn_name": "L-\u4eae\u6c28\u9178-4-\u785d\u57fa\u82ef\u80fa", "en_name": ["Leucine p-nitroanilide", "Pentanamide, 2-amino-4-methyl-N-(4-nitrophenyl)-, (2S)-", "Valeranilide, 2-amino-4-methyl-4\u2032-nitro-, L-", "Pentanamide, 2-amino-4-methyl-N-(4-nitrophenyl)-, (S)-", "(2S)-2-Amino-4-methyl-N-(4-nitrophenyl)pentanamide", "L-Leucine p-nitroanilide", "N-L-Leucyl-p-nitroanilide", "Leucine p-nitroanilide", "L-Leucyl-p-nitroanilide", "N-\u03b1-L-Leucine p-nitroanilide", "L-Leucyl-4-nitroanilide", "(2S)-2-Amino-4-methyl-N-(4-nitrophenyl)pentanamide"], "SMILES": "N(C(C(CC(C)C)N)=O)C1=CC=C(N(=O)=O)C=C1", "physical_data": {"Molecular Weight": "251.28", "Molecular Formula": "C12H17N3O3", "Melting Point": "88 \u00b0C"}}