{"cas_no": "4179-19-5", "cn_name": "3,5-\u4e8c\u7532\u6c27\u57fa\u7532\u82ef", "en_name": ["3,5-Dimethoxytoluene", "Benzene, 1,3-dimethoxy-5-methyl-", "Toluene, 3,5-dimethoxy-", "1,3-Dimethoxy-5-methylbenzene", "Orcinol dimethyl ether", "5-Methylresorcinol dimethyl ether", "3,5-Dimethoxytoluene", "1-Methyl-3,5-dimethoxybenzene", "5-Methyl-1,3-dimethoxybenzene", "NSC 72352"], "SMILES": "O(C)C1=CC(OC)=CC(C)=C1", "physical_data": {"Molecular Weight": "152.19", "Molecular Formula": "C9H12O2", "Boiling Point": "244 \u00b0C", "Melting Point": "145-147 \u00b0C"}}