{"cas_no": "4180-23-8", "cn_name": "\u8334\u9999\u70ef", "en_name": ["trans-Anethole", "Benzene, 1-methoxy-4-(1E)-1-propen-1-yl-", "Anisole, p-propenyl-, (E)-", "Benzene, 1-methoxy-4-(1-propenyl)-, (E)-", "Benzene, 1-methoxy-4-(1E)-1-propenyl-", "1-Methoxy-4-(1E)-1-propen-1-ylbenzene", "trans-Anethole", "trans-Anethol", "trans-1-(p-Methoxyphenyl)propene", "trans-1-(4-Methoxyphenyl)-1-propene", "trans-p-Methoxy-\u03b2-methylstyrene", "(E)-Anethole", "trans-p-Anethole", "(E)-1-(4-Methoxyphenyl)propene", "trans-1-(p-Methoxyphenyl)-1-propene", "trans-4-(1-Propenyl)anisole", "trans-1-p-Anisylpropene", "(E)-1-p-Methoxyphenylpropene", "(E)-Anethol", "1-Methoxy-4-[(1E)-1-propenyl]benzene", "NSC 209529", "(E)-1-Methoxy-4-(prop-1-en-1-yl)benzene", "(E)-1-Methoxy-4-(1-propen-1-yl)benzene", "trans-4-Methoxy-\u03b2-methylstyrene"], "SMILES": "C(=CC)C1=CC=C(OC)C=C1", "physical_data": {"Molecular Weight": "148.20", "Molecular Formula": "C10H12O", "Boiling Point": "234 \u00b0C", "Melting Point": "21.35 \u00b0C"}}