{"cas_no": "41808-35-9", "cn_name": "3-\u7532\u57fa-4-\u6c30\u57fa-5-\u6c28\u57fa\u5f02\u567b\u5511", "en_name": ["5-Amino-3-methyl-4-isothiazolecarbonitrile", "4-Isothiazolecarbonitrile, 5-amino-3-methyl-", "5-Amino-3-methyl-4-isothiazolecarbonitrile", "5-Amino-4-cyano-3-methylisothiazole", "5-Amino-3-methylisothiazole-4-carbonitrile"], "SMILES": "C(#N)C=1C(C)=NSC1N", "physical_data": {"Molecular Weight": "139.18", "Molecular Formula": "C5H5N3S", "Melting Point": "202 \u00b0C"}}