{"cas_no": "4180-26-1", "cn_name": "2,2,3,3,4,4,5,5,6,6,7,7,8,8,9,9-\u5341\u516d\u6c1f\u58ec\u9187\u4e19\u70ef\u9178\u76d0", "en_name": ["2-Propenoic acid, 2,2,3,3,4,4,5,5,6,6,7,7,8,8,9,9-hexadecafluorononyl ester", "2-Propenoic acid, 2,2,3,3,4,4,5,5,6,6,7,7,8,8,9,9-hexadecafluorononyl ester", "Acrylic acid, 2,2,3,3,4,4,5,5,6,6,7,7,8,8,9,9-hexadecafluorononyl ester", "1-Nonanol, 2,2,3,3,4,4,5,5,6,6,7,7,8,8,9,9-hexadecafluoro-, acrylate", "1,1,9-Trihydroperfluorononyl acrylate", "1H,1H,9H-Hexadecafluoro-1-nonyl acrylate", "1H,1H,9H-Hexadecafluorononyl acrylate", "1H,1H,9H-Perfluorononyl acrylate", "R 5810", "2,2,3,3,4,4,5,5,6,6,7,7,8,8,9,9-Hexadecafluorononyl acrylate", "2,2,3,3,4,4,5,5,6,6,7,7,8,8,9,9-Hexadecafluorononyl prop-2-enoate"], "SMILES": "C(C(C(C(C(F)F)(F)F)(F)F)(F)F)(C(C(C(COC(C=C)=O)(F)F)(F)F)(F)F)(F)F", "physical_data": {"Molecular Weight": "486.15", "Molecular Formula": "C12H6F16O2", "Boiling Point": "87-88 \u00b0C @ Press: 6 Torr"}}