{"cas_no": "41814-78-2", "cn_name": "\u4e09\u73af\u5511", "en_name": ["Tricyclazole", "1,2,4-Triazolo[3,4-b]benzothiazole, 5-methyl-", "5-Methyl-1,2,4-triazolo[3,4-b]benzothiazole", "Tricyclazole", "EL 291", "Beam", "Elanco 291", "MTB", "Sivic", "Dhanteam", "Baan", "Gain (pesticide)", "Gain"], "SMILES": "CC1=C2N3C(SC2=CC=C1)=NN=C3", "physical_data": {"Molecular Weight": "189.24", "Molecular Formula": "C9H7N3S", "Boiling Point": "275 \u00b0C", "Melting Point": "187 \u00b0C"}}