{"cas_no": "4181-95-7", "cn_name": "\u6b63\u56db\u5341\u70f7", "en_name": ["Tetracontane", "Tetracontane", "n-Tetracontane"], "SMILES": "C(CCCCCCCCCCCCCCCCCCCC)CCCCCCCCCCCCCCCCCCC", "physical_data": {"Molecular Weight": "563.08", "Molecular Formula": "C40H82", "Boiling Point": "150 \u00b0C", "Melting Point": "81-83 \u00b0C"}}