{"cas_no": "41826-92-0", "cn_name": "\u66f2\u5339\u5e03\u901a", "en_name": ["Trepibutone", "Benzenebutanoic acid, 2,4,5-triethoxy-\u03b3-oxo-", "2,4,5-Triethoxy-\u03b3-oxobenzenebutanoic acid", "AA 149", "Trepibutone", "Supacal"], "SMILES": "C(CCC(O)=O)(=O)C1=C(OCC)C=C(OCC)C(OCC)=C1", "physical_data": {"Molecular Weight": "310.34", "Molecular Formula": "C16H22O6", "Melting Point": "150.5 \u00b0C"}}