{"cas_no": "41825-73-4", "cn_name": "2-\u6eb4-4,6-\u4e8c\u7532\u57fa\u82ef\u80fa", "en_name": ["2-Bromo-4,6-dimethylbenzenamine", "Benzenamine, 2-bromo-4,6-dimethyl-", "2,4-Xylidine, 6-bromo-", "2-Bromo-4,6-dimethylbenzenamine", "6-Bromo-2,4-xylidine", "2-Bromo-4,6-dimethylaniline", "NSC 159243", "NSC 99447"], "SMILES": "NC1=C(Br)C=C(C)C=C1C", "physical_data": {"Molecular Weight": "200.08", "Molecular Formula": "C8H10BrN", "Melting Point": "49-50 \u00b0C"}}