{"cas_no": "4182-80-3", "cn_name": "N,N,N',N'-\u56db(4-\u4e8c\u4e01\u57fa\u6c28\u57fa\u82ef\u57fa)-1,4-\u82ef\u4e8c\u80fa", "en_name": ["N1,N1,N4,N4-Tetrakis[4-(dibutylamino)phenyl]-1,4-benzenediamine", "1,4-Benzenediamine, N1,N1,N4,N4-tetrakis[4-(dibutylamino)phenyl]-", "p-Phenylenediamine, N,N,N\u2032,N\u2032-tetrakis[p-(dibutylamino)phenyl]-", "1,4-Benzenediamine, N,N,N\u2032,N\u2032-tetrakis[4-(dibutylamino)phenyl]-", "N1,N1,N4,N4-Tetrakis[4-(dibutylamino)phenyl]-1,4-benzenediamine", "NIR-AM 1", "N,N,N\u2032,N\u2032-Tetrakis[p-(dibutylamino)phenyl]-p-phenylenediamine", "N,N,N\u2032,N\u2032-Tetrakis[p-(dibutylamino)phenyl]-1,4-phenylenediamine", "N,N,N\u2032,N\u2032-Tetrakis(4-dibutylaminophenyl)-p-phenylenediamine", "1-N,1-N-Dibutyl-4-N-[4-[4-(dibutylamino)-N-[4-(dibutylamino)phenyl]anilino]phenyl]-4-N-[4-(dibutylamino)phenyl]benzene-1,4-diamine", "1,4-Benzenediamine N1,N1,N4,N4-tetrakis[4-(dibutylamino)phenyl]-", "N,N,N\u2032,N\u2032-Tetrakis[4-(dibutylamino)phenyl]-1,4-phenylenediamine"], "SMILES": "N(C1=CC=C(N(C2=CC=C(N(CCCC)CCCC)C=C2)C3=CC=C(N(CCCC)CCCC)C=C3)C=C1)(C4=CC=C(N(CCCC)CCCC)C=C4)C5=CC=C(N(CCCC)CCCC)C=C5", "physical_data": {"Molecular Weight": "921.43", "Molecular Formula": "C62H92N6", "Melting Point": "92-94 \u00b0C"}}