{"cas_no": "41838-46-4", "cn_name": "4-\u6c28\u57fa-1-\u7532\u57fa\u54cc\u5576", "en_name": ["4-Amino-1-methylpiperidine", "4-Piperidinamine, 1-methyl-", "Piperidine, 4-amino-1-methyl-", "1-Methyl-4-piperidinamine", "4-Amino-1-methylpiperidine", "1-Methyl-4-aminopiperidine", "1-Methylpiperidin-4-ylamine", "N-Methyl-4-aminopiperidine"], "SMILES": "NC1CCN(C)CC1", "physical_data": {"Molecular Weight": "114.19", "Molecular Formula": "C6H14N2", "Boiling Point": "83 \u00b0C @ Press: 48 Torr", "Melting Point": "237-239 \u00b0C"}}