{"cas_no": "41841-16-1", "cn_name": "4-\u6eb4\u82ef\u4e59\u9178\u7532\u916f", "en_name": ["Methyl (4-bromophenyl)acetate", "Benzeneacetic acid, 4-bromo-, methyl ester", "Acetic acid, (p-bromophenyl)-, methyl ester", "Methyl (4-bromophenyl)acetate", "4-Bromophenylacetic acid methyl ester", "NSC 245163", "Methyl 2-(4-bromophenyl)acetate", "2-(4-Bromophenyl)acetic acid methyl ester", "Methyl 4-bromobenzeneacetate"], "SMILES": "C(C(OC)=O)C1=CC=C(Br)C=C1", "physical_data": {"Molecular Weight": "229.07", "Molecular Formula": "C9H9BrO2", "Boiling Point": "138-140 \u00b0C @ Press: 13 Torr", "Melting Point": "113-114 \u00b0C"}}