{"cas_no": "4184-79-6", "cn_name": "5,6-\u4e8c\u7532\u57fa-1H-\u82ef\u5e76\u4e09\u5511", "en_name": ["5,6-Dimethyl-1H-benzotriazole", "1H-Benzotriazole, 5,6-dimethyl-", "Benzotriazole, 5,6-dimethyl-", "5,6-Dimethyl-1H-benzotriazole", "5,6-Dimethylbenzotriazole", "5,6-Dimethyl-1,2,3-benzotriazole", "NSC 62005"], "SMILES": "CC=1C=C2C(=CC1C)N=NN2", "physical_data": {"Molecular Weight": "147.18", "Molecular Formula": "C8H9N3", "Melting Point": "156-157 \u00b0C"}}