{"cas_no": "41851-59-6", "cn_name": "(S)-(-)-1-(4-\u7532\u6c27\u57fa\u82ef)\u4e59\u80fa", "en_name": ["(\u03b1S)-4-Methoxy-\u03b1-methylbenzenemethanamine", "Benzenemethanamine, 4-methoxy-\u03b1-methyl-, (\u03b1S)-", "Benzenemethanamine, 4-methoxy-\u03b1-methyl-, (S)-", "(\u03b1S)-4-Methoxy-\u03b1-methylbenzenemethanamine", "(-)-\u03b1-(4-Methoxyphenyl)ethylamine", "(1S)-1-(4-Methoxyphenyl)ethylamine", "(-)-\u03b1-(p-Methoxyphenyl)ethylamine", "(-)-p-Methoxy-\u03b1-phenylethylamine", "(S)-1-(4-Methoxyphenyl)ethylamine", "(S)-(-)-1-(4-Methoxyphenyl)ethylamine", "(S)-4-Methoxyphenylethylamine", "(-)-[(S)-1-(4-Methoxyphenyl)ethyl]amine", "[(1S)-1-[4-(Methyloxy)phenyl]ethyl]amine", "(S)-1-(p-Methoxyphenyl)ethylamine", "(S)-1-(4-Methoxyphenyl)ethanamine", "(1S)-1-[4-(Methyloxy)phenyl]ethanamine", "(1S)-1-(4-Methoxyphenyl)ethanamine", "(S)-(-)-4-Methoxy-\u03b1-methylbenzylamine", "(S)-1-(4-Methoxyphenyl)ethan-1-amine", "(S)-4-Methoxy-\u03b1-methylbenzylamine", "(1S)-1-(4-Methoxyphenyl)ethanamine", "(1S)-1-(4-Methoxyphenyl)ethan-1-amine"], "SMILES": "C(C)(N)C1=CC=C(OC)C=C1", "physical_data": {"Molecular Weight": "151.21", "Molecular Formula": "C9H13NO", "Boiling Point": "72 \u00b0C @ Press: 0.5 Torr"}}