{"cas_no": "4185-69-7", "cn_name": "\u6c2f\u5316-1-(2,4-\u4e8c\u785d\u57fa\u82ef\u57fa)\u5421\u5576\u7fc1\u76d0", "en_name": ["(2,4-Dinitrophenyl)pyridinium chloride", "Pyridinium, 1-(2,4-dinitrophenyl)-, chloride (1:1)", "Pyridinium, 1-(2,4-dinitrophenyl)-, chloride", "1-(2,4-Dinitrophenyl)pyridinium chloride", "N-(2,4-Dinitrophenyl)pyridinium chloride", "(2,4-Dinitrophenyl)pyridinium chloride", "Zincke salt", "1-(2,4-Dinitrophenyl)-1\u03bb5-pyridin-1-ylium chloride", "1-(2,4-Dinitrophenyl)pyridin-1-ium chloride"], "SMILES": "N(=O)(=O)C1=C(C=CC(N(=O)=O)=C1)[N+]=2C=CC=CC2.[Cl-]", "physical_data": {"Molecular Weight": "", "Molecular Formula": "C11H8N3O4.Cl", "Melting Point": "170 \u00b0C"}}