{"cas_no": "41859-67-0", "cn_name": "\u82ef\u624e\u8d1d\u7279", "en_name": ["Bezafibrate", "Propanoic acid, 2-[4-[2-[(4-chlorobenzoyl)amino]ethyl]phenoxy]-2-methyl-", "2-[4-[2-[(4-Chlorobenzoyl)amino]ethyl]phenoxy]-2-methylpropanoic acid", "BM 15075", "Bezafibrate", "Cedur", "Bezalip", "Difaterol", "Befizal", "Bezatol", "Benzofibrate", "MeSH ID: D001629"], "SMILES": "C(NCCC1=CC=C(OC(C(O)=O)(C)C)C=C1)(=O)C2=CC=C(Cl)C=C2", "physical_data": {"Molecular Weight": "361.82", "Molecular Formula": "C19H20ClNO4", "Melting Point": "186 \u00b0C"}}