{"cas_no": "41864-22-6", "cn_name": "N,N'-\u7fb0\u57fa\u4e8c(1,2,4-\u4e09\u6c2e\u5511)", "en_name": ["Bis(1H-1,2,4-triazol-1-yl)methanone", "Methanone, bis(1H-1,2,4-triazol-1-yl)-", "1H-1,2,4-Triazole, 1,1\u2032-carbonylbis-", "Bis(1H-1,2,4-triazol-1-yl)methanone", "1,1\u2032-Carbonylbis(1,2,4-triazole)", "1,1\u2032-Carbonyldi(1,2,4-triazole)", "Carbonyldi(1,2,4-triazole)", "1-(1H-1,2,4-Triazole-1-carbonyl)-1H-1,2,4-triazole", "Bis(1,2,4-triazol-1-yl)methanone"], "SMILES": "C(=O)(N1C=NC=N1)N2C=NC=N2", "physical_data": {"Molecular Weight": "164.12", "Molecular Formula": "C5H4N6O", "Melting Point": "138-139 \u00b0C"}}