{"cas_no": "4186-54-3", "cn_name": "2,4-\u4e8c\u6eb4-6-\u6eb4\u7532\u57fa\u82ef\u915a", "en_name": ["2,4-Dibromo-6-(bromomethyl)phenol", "Phenol, 2,4-dibromo-6-(bromomethyl)-", "o-Cresol, \u03b1,4,6-tribromo-", "2,4-Dibromo-6-(bromomethyl)phenol", "\u03b1,3,5-Tribromo-2-hydroxytoluene", "3,5-Dibromo-2-hydroxybenzyl bromide", "4,6-Dibromo-2-bromomethylphenol", "2-(Bromomethyl)-4,6-dibromophenol"], "SMILES": "C(Br)C1=C(O)C(Br)=CC(Br)=C1", "physical_data": {"Molecular Weight": "344.83", "Molecular Formula": "C7H5Br3O", "Melting Point": "118.5-119 \u00b0C"}}