{"cas_no": "41862-11-7", "cn_name": "6-\u6c28\u57fa-1-(\u82ef\u57fa\u7532\u57fa)\u5627\u5576-2,4-\u4e8c\u916e", "en_name": ["6-Amino-1-benzyluracil", "2,4(1H,3H)-Pyrimidinedione, 6-amino-1-(phenylmethyl)-", "6-Amino-1-(phenylmethyl)-2,4(1H,3H)-pyrimidinedione", "6-Amino-1-benzyluracil", "6-Amino-1-benzyl-1,3-dihydropyrimidine-2,4-dione", "NSC 70496"], "SMILES": "C(N1C(N)=CC(=O)NC1=O)C2=CC=CC=C2", "physical_data": {"Molecular Weight": "217.22", "Molecular Formula": "C11H11N3O2", "Melting Point": "285-286 \u00b0C"}}