{"cas_no": "41862-14-0", "cn_name": "1,3-\u4e8c\u4e19\u57fa-6-\u6c28\u57fa\u8132\u5627\u5576", "en_name": ["6-Amino-1,3-dipropyl-2,4(1H,3H)-pyrimidinedione", "2,4(1H,3H)-Pyrimidinedione, 6-amino-1,3-dipropyl-", "6-Amino-1,3-dipropyl-2,4(1H,3H)-pyrimidinedione", "6-Amino-1,3-dipropyluracil"], "SMILES": "C(CC)N1C(=O)N(CCC)C(=O)C=C1N", "physical_data": {"Molecular Weight": "211.26", "Molecular Formula": "C10H17N3O2", "Melting Point": "136-138 \u00b0C"}}