{"cas_no": "41877-24-1", "cn_name": "1-(5-\u6eb4-2-\u785d\u57fa\u82ef\u57fa)\u4e59\u916e", "en_name": ["1-(5-Bromo-2-nitrophenyl)ethanone", "Ethanone, 1-(5-bromo-2-nitrophenyl)-", "1-(5-Bromo-2-nitrophenyl)ethanone", "(5-Bromo-2-nitrophenyl)ethanone", "1-(5-Bromo-2-nitrophenyl)ethan-1-one", "5\u2032-Bromo-2\u2032-nitroacetophenone"], "SMILES": "N(=O)(=O)C1=C(C(C)=O)C=C(Br)C=C1", "physical_data": {"Molecular Weight": "244.04", "Molecular Formula": "C8H6BrNO3", "Melting Point": "92-94 \u00b0C"}}