{"cas_no": "41870-52-4", "cn_name": "2-\u7532\u57fa\u4e8c\u82ef\u7532\u57fa\u6c2f\u5316\u7269", "en_name": ["1-(Chlorophenylmethyl)-2-methylbenzene", "Benzene, 1-(chlorophenylmethyl)-2-methyl-", "Methane, chlorophenyl-o-tolyl-", "1-(Chlorophenylmethyl)-2-methylbenzene"], "SMILES": "C(Cl)(C1=C(C)C=CC=C1)C2=CC=CC=C2", "physical_data": {"Molecular Weight": "216.71", "Molecular Formula": "C14H13Cl", "Boiling Point": "118-119 \u00b0C @ Press: 1 Torr"}}