{"cas_no": "4187-87-5", "cn_name": "(+/-)-1-\u82ef\u57fa-2-\u4e19\u7094-1-\u9187", "en_name": ["\u03b1-Ethynylbenzenemethanol", "Benzenemethanol, \u03b1-ethynyl-", "Benzyl alcohol, \u03b1-ethynyl-", "\u03b1-Ethynylbenzenemethanol", "1-Phenyl-2-propyn-1-ol", "2-Propyn-1-ol, 1-phenyl-", "1-Phenylpropargyl alcohol", "\u03b1-Ethynylbenzyl alcohol", "Phenylethynylcarbinol", "\u03b1-Phenylpropargyl alcohol", "Ethynylphenylcarbinol", "3-Hydroxy-3-phenylprop-1-yne", "1-Phenyl-2-propynol", "3-Phenyl-1-propyn-3-ol", "(\u00b1)-\u03b1-Ethynylbenzenemethanol", "(\u00b1)-1-Phenyl-2-propyn-1-ol", "\u03b1-Hydroxybenzylacetylene", "[(Hydroxy)(phenyl)methyl]acetylene", "NSC 4326", "3-Hydroxy-3-phenylpropyne", "1-Phenyl-1-propargyl alcohol"], "SMILES": "C(C#C)(O)C1=CC=CC=C1", "physical_data": {"Molecular Weight": "132.16", "Molecular Formula": "C9H8O", "Boiling Point": "114-115 \u00b0C @ Press: 18 Torr", "Melting Point": "22 \u00b0C", "Density": "1.053 g/cm\u00b3 @ Temp: 12.5 \u00b0C"}}