{"cas_no": "4187-56-8", "cn_name": "(S)-1-(4-\u6c2f\u82ef\u57fa)\u4e59\u80fa", "en_name": ["(-)-1-(4-Chlorophenyl)ethylamine", "Benzenemethanamine, 4-chloro-\u03b1-methyl-, (\u03b1S)-", "Benzylamine, p-chloro-\u03b1-methyl-, (-)-", "Benzenemethanamine, 4-chloro-\u03b1-methyl-, (S)-", "(\u03b1S)-4-Chloro-\u03b1-methylbenzenemethanamine", "(S)-4-Chloro-\u03b1-methylbenzenemethanamine", "(-)-p-Chloro-\u03b1-methylbenzylamine", "(-)-\u03b1-(p-Chlorophenyl)ethylamine", "(S)-1-(4-Chlorophenyl)ethylamine", "(S)-1-(p-Chlorophenyl)ethylamine", "(1S)-1-(4-Chlorophenyl)ethanamine", "(S)-(-)-1-(4-Chlorophenyl)ethylamine", "(S)-4-Chloro-\u03b1-methylbenzylamine", "(-)-1-(4-Chlorophenyl)ethylamine", "(S)-1-(4-Chlorophenyl)ethanamine", "(S)-4-Chlorophenylethylamine", "(S)-(-)-4-Chloro-\u03b1-methylbenzylamine", "(1S)-1-(4-Chlorophenyl)ethan-1-amine", "(S)-1-(4-Chlorophenyl]ethan-1-amine"], "SMILES": "C(C)(N)C1=CC=C(Cl)C=C1", "physical_data": {"Molecular Weight": "155.62", "Molecular Formula": "C8H10ClN", "Melting Point": "136-137 \u00b0C", "Density": "1.10686 g/cm\u00b3 @ Temp: 25.00 \u00b0C"}}