{"cas_no": "4187-86-4", "cn_name": "\u4e59\u57fa\u4e59\u7094\u57fa\u7532\u9187", "en_name": ["1-Pentyn-3-ol", "1-Pentyn-3-ol", "Ethylethynylcarbinol", "3-Hydroxy-1-pentyne", "(RS)-1-Pentyn-3-ol", "NSC 60556", "Pent-1-yn-3-ol"], "SMILES": "C(CC)(C#C)O", "physical_data": {"Molecular Weight": "84.12", "Molecular Formula": "C5H8O", "Boiling Point": "125 \u00b0C", "Density": "0.8926 g/cm\u00b3 @ Temp: 15 \u00b0C"}}