{"cas_no": "41873-65-8", "cn_name": "2-\u7f9f\u57fa-\u82ef\u4e59\u9178\u4e59\u916f", "en_name": ["2-(2-Hydroxyphenyl)acetic acid ethyl ester", "Benzeneacetic acid, 2-hydroxy-, ethyl ester", "Ethyl (2-hydroxyphenyl)acetate", "2-(2-Hydroxyphenyl)acetic acid ethyl ester", "Ethyl 2-hydroxybenzeneacetate"], "SMILES": "C(C(OCC)=O)C1=C(O)C=CC=C1", "physical_data": {"Molecular Weight": "180.20", "Molecular Formula": "C10H12O3", "Melting Point": "67-68 \u00b0C"}}