{"cas_no": "41908-12-7", "cn_name": "3-\u6c2f\u7532\u57fa\u82ef\u4e59\u916e", "en_name": ["1-[3-(Chloromethyl)phenyl]ethanone", "Ethanone, 1-[3-(chloromethyl)phenyl]-", "Acetophenone, 3\u2032-(chloromethyl)-", "1-[3-(Chloromethyl)phenyl]ethanone", "3\u2032-(Chloromethyl)acetophenone", "3-Chloromethyl-acetophenone", "1-[3-(Chloromethyl)phenyl]ethan-1-one"], "SMILES": "C(C)(=O)C1=CC(CCl)=CC=C1", "physical_data": {"Molecular Weight": "168.62", "Molecular Formula": "C9H9ClO", "Boiling Point": "130-131 \u00b0C @ Press: 7 Torr"}}