{"cas_no": "41906-86-9", "cn_name": "\u5934\u5b62\u785d\u567b\u5429", "en_name": ["Nitrocefin", "5-Thia-1-azabicyclo[4.2.0]oct-2-ene-2-carboxylic acid, 3-[(1E)-2-(2,4-dinitrophenyl)ethenyl]-8-oxo-7-[(2-thienylacetyl)amino]-, (6R,7R)-", "5-Thia-1-azabicyclo[4.2.0]oct-2-ene-2-carboxylic acid, 3-[2-(2,4-dinitrophenyl)ethenyl]-8-oxo-7-[(2-thienylacetyl)amino]-, [6R-[3(E),6\u03b1,7\u03b2]]-", "(6R,7R)-3-[(1E)-2-(2,4-Dinitrophenyl)ethenyl]-8-oxo-7-[(2-thienylacetyl)amino]-5-thia-1-azabicyclo[4.2.0]oct-2-ene-2-carboxylic acid", "Nitrocefin"], "SMILES": "C(O)(=O)C=1N2C(C(NC(CC3=CC=CS3)=O)C2=O)SCC1C=CC4=C(N(=O)=O)C=C(N(=O)=O)C=C4", "physical_data": {"Molecular Weight": "516.50", "Molecular Formula": "C21H16N4O8S2", "Melting Point": "167-169 \u00b0C (decomp)"}}