{"cas_no": "41910-64-9", "cn_name": "4-\u6c2f\u5432\u54da\u5549", "en_name": ["4-Chloroindoline", "1H-Indole, 4-chloro-2,3-dihydro-", "Indoline, 4-chloro-", "4-Chloro-2,3-dihydro-1H-indole", "4-Chloroindoline"], "SMILES": "ClC1=C2C(=CC=C1)NCC2", "physical_data": {"Molecular Weight": "153.61", "Molecular Formula": "C8H8ClN", "Boiling Point": "135 \u00b0C @ Press: 10 Torr"}}