{"cas_no": "4192-90-9", "cn_name": "\u4e09\u53f6\u82f7", "en_name": ["Trilobatin", "1-Propanone, 1-[4-(\u03b2-D-glucopyranosyloxy)-2,6-dihydroxyphenyl]-3-(4-hydroxyphenyl)-", "p-Phlorizin", "1-[4-(\u03b2-D-Glucopyranosyloxy)-2,6-dihydroxyphenyl]-3-(4-hydroxyphenyl)-1-propanone", "p-Phloridzin", "Prunin dihydrochalcone", "Trilobatin", "Phloretin 4\u2032-glucoside", "Phloretine-4\u2032-glucoside", "Phloretin 4\u2032-\u03b2-D-glucoside", "Phloretin-4\u2032-O-\u03b2-D-glucopyranoside", "Phloretin-4-O-glycoside"], "SMILES": "C(CCC1=CC=C(O)C=C1)(=O)C2=C(O)C=C(OC3OC(CO)C(O)C(O)C3O)C=C2O", "physical_data": {"Molecular Weight": "436.41", "Molecular Formula": "C21H24O10", "Melting Point": "170-173 \u00b0C"}}