{"cas_no": "4192-77-2", "cn_name": "\u53cd\u5f0f\u8089\u6842\u9178\u4e59\u916f", "en_name": ["Ethyl (E)-cinnamate", "2-Propenoic acid, 3-phenyl-, ethyl ester, (2E)-", "Cinnamic acid, ethyl ester, (E)-", "2-Propenoic acid, 3-phenyl-, ethyl ester, (E)-", "Ethyl trans-cinnamate", "Ethyl (E)-cinnamate", "trans-Cinnamic acid ethyl ester", "(2E)-3-Phenyl-2-propenoic acid ethyl ester", "Ethyl (E)-3-phenyl-2-propenoate", "trans-3-Phenyl-2-propenoic acid ethyl ester", "Ethyl (2E)-3-phenylprop-2-enoate", "Ethyl (E)-3-phenylacrylate", "Ethyl (E)-3-phenylacrylate", "(E)-Ethyl 3-phenyl-2-propenoate"], "SMILES": "C(=CC(OCC)=O)C1=CC=CC=C1", "physical_data": {"Molecular Weight": "176.21", "Molecular Formula": "C11H12O2", "Boiling Point": "98-99 \u00b0C @ Press: 0.5 Torr", "Melting Point": "125 \u00b0C"}}