{"cas_no": "41931-18-4", "cn_name": "4-\u6eb4\u82ef\u80bc\u76d0\u9178\u76d0", "en_name": ["Hydrazine, (4-bromophenyl)-, hydrochloride (1:?)", "Hydrazine, (4-bromophenyl)-, hydrochloride (1:?)", "Hydrazine, (4-bromophenyl)-, hydrochloride", "Hydrazine, (p-bromophenyl)-, hydrochloride", "p-Bromophenylhydrazine hydrochloride"], "SMILES": "N(N)C1=CC=C(Br)C=C1.Cl", "physical_data": {"Molecular Weight": "", "Molecular Formula": "C6H7BrN2.xClH", "Melting Point": "219-221 \u00b0C (decomp)"}}