{"cas_no": "41934-47-8", "cn_name": "\u9999\u8c46\u7d20-35", "en_name": ["7-(Diethylamino)-4-(trifluoromethyl)coumarin", "2H-1-Benzopyran-2-one, 7-(diethylamino)-4-(trifluoromethyl)-", "7-(Diethylamino)-4-(trifluoromethyl)-2H-1-benzopyran-2-one", "7-(Diethylamino)-4-(trifluoromethyl)coumarin", "Coumarin 481", "Pilot 481", "Coumarin 481F", "C 152A", "Coumarin 35", "Blue 7", "Coumarin 152A", "C 481"], "SMILES": "C(F)(F)(F)C=1C=2C(=CC(N(CC)CC)=CC2)OC(=O)C1", "physical_data": {"Molecular Weight": "285.26", "Molecular Formula": "C14H14F3NO2", "Melting Point": "80-81 \u00b0C", "Density": "1.405 g/cm\u00b3"}}