{"cas_no": "4196-86-5", "cn_name": "\u5b63\u620a\u56db\u9187\u56db\u82ef\u916f", "en_name": ["Pentaerythritol, tetrabenzoate", "1,3-Propanediol, 2,2-bis[(benzoyloxy)methyl]-, 1,3-dibenzoate", "Pentaerythritol, tetrabenzoate", "1,3-Propanediol, 2,2-bis[(benzoyloxy)methyl]-, dibenzoate", "Benzoflex S 552", "NSC 166502", "Pentaerythrityl tetrabenzoate", "[3-Benzoyloxy-2,2-bis(benzoyloxymethyl)propyl] benzoate"], "SMILES": "C(COC(=O)C1=CC=CC=C1)(COC(=O)C2=CC=CC=C2)(COC(=O)C3=CC=CC=C3)COC(=O)C4=CC=CC=C4", "physical_data": {"Molecular Weight": "552.57", "Molecular Formula": "C33H28O8", "Melting Point": "94.8 \u00b0C"}}