{"cas_no": "4196-89-8", "cn_name": "2,2-\u4e8c\u7532\u57fa-1,3-\u4e19\u4e8c\u9187,\u4e8c\u82ef\u7532\u9178\u916f", "en_name": ["Neopentyl glycol dibenzoate", "1,3-Propanediol, 2,2-dimethyl-, 1,3-dibenzoate", "1,3-Propanediol, 2,2-dimethyl-, dibenzoate", "2,2-Dimethyltrimethylene benzoate", "Neopentyl glycol dibenzoate", "Benzoflex S 312", "2,2-Dimethyl-1,3-propanediol dibenzoate", "NSC 166504", "2,2-Dimethyl-1,3-propylene glycol dibenzoate", "Uniplex 512"], "SMILES": "C(OCC(COC(=O)C1=CC=CC=C1)(C)C)(=O)C2=CC=CC=C2", "physical_data": {"Molecular Weight": "312.36", "Molecular Formula": "C19H20O4", "Melting Point": "49 \u00b0C"}}