{"cas_no": "41964-07-2", "cn_name": "\u6258\u5229\u54aa\u916e", "en_name": ["5-(3-Methylphenoxy)-2(1H)-pyrimidinone", "2(1H)-Pyrimidinone, 5-(3-methylphenoxy)-", "5-(3-Methylphenoxy)-2(1H)-pyrimidinone", "Tolimidone", "CP 26154", "NSC 314335", "MLR 1023"], "SMILES": "O(C1=CC(C)=CC=C1)C2=CNC(=O)N=C2", "physical_data": {"Molecular Weight": "202.21", "Molecular Formula": "C11H10N2O2", "Melting Point": "163-164 \u00b0C"}}