{"cas_no": "41965-95-1", "cn_name": "3-\u6c2f-4-\u7532\u6c27\u57fa\u82c4\u80fa\u76d0\u9178", "en_name": ["Benzenemethanamine, 3-chloro-4-methoxy-, hydrochloride (1:1)", "Benzenemethanamine, 3-chloro-4-methoxy-, hydrochloride (1:1)", "Benzenemethanamine, 3-chloro-4-methoxy-, hydrochloride", "3-Chloro-4-methoxybenzylamine hydrochloride"], "SMILES": "C(N)C1=CC(Cl)=C(OC)C=C1.Cl", "physical_data": {"Molecular Weight": "", "Molecular Formula": "C8H10ClNO.ClH", "Melting Point": "231-234 \u00b0C"}}