{"cas_no": "41979-39-9", "cn_name": "4-\u6c27\u4ee3\u54cc\u5576\u916e\u76d0\u9178\u76d0", "en_name": ["4-Piperidone hydrochloride", "4-Piperidinone, hydrochloride (1:1)", "4-Piperidinone, hydrochloride", "4-Piperidone hydrochloride", "4-Oxopiperidine hydrochloride"], "SMILES": "O=C1CCNCC1.Cl", "physical_data": {"Molecular Weight": "", "Molecular Formula": "C5H9NO.ClH", "Melting Point": "145.5-147 \u00b0C"}}