{"cas_no": "4198-90-7", "cn_name": "3,5-\u4e8c\u7532\u57fa-4-\u7f9f\u57fa\u82ef\u7532\u8148", "en_name": ["4-Hydroxy-3,5-dimethylbenzonitrile", "Benzonitrile, 4-hydroxy-3,5-dimethyl-", "4-Hydroxy-3,5-dimethylbenzonitrile", "2,6-Dimethyl-4-cyanophenol", "3,5-Dimethyl-4-hydroxybenzonitrile", "4-Cyano-2,6-dimethylphenol"], "SMILES": "C(#N)C1=CC(C)=C(O)C(C)=C1", "physical_data": {"Molecular Weight": "147.17", "Molecular Formula": "C9H9NO", "Melting Point": "105 \u00b0C"}}