{"cas_no": "4198-33-8", "cn_name": "L-2-\u6c2f\u4e01\u4e8c\u9178", "en_name": ["(2S)-2-Chlorobutanedioic acid", "Butanedioic acid, 2-chloro-, (2S)-", "Succinic acid, chloro-, (S)-", "Butanedioic acid, chloro-, (S)-", "Butanedioic acid, chloro-, (2S)-", "(2S)-2-Chlorobutanedioic acid", "L-Chlorosuccinic acid", "(S)-Chlorosuccinic acid", "(-)-Chlorosuccinic acid", "(2S)-2-Chlorobutanedioic acid"], "SMILES": "C(CC(O)=O)(C(O)=O)Cl", "physical_data": {"Molecular Weight": "152.53", "Molecular Formula": "C4H5ClO4", "Melting Point": "175 \u00b0C"}}