{"cas_no": "4199-89-7", "cn_name": "5-\u6c2f\u90bb\u83f2\u5f97\u5549", "en_name": ["5-Chloro-1,10-phenanthroline", "1,10-Phenanthroline, 5-chloro-", "5-Chloro-1,10-phenanthroline", "5-Chloro-1,10-diazaphenanthrene", "5-Chloro-o-phenanthroline"], "SMILES": "ClC1=C2C(=C3C(=C1)C=CC=N3)N=CC=C2", "physical_data": {"Molecular Weight": "214.65", "Molecular Formula": "C12H7ClN2", "Melting Point": "123 \u00b0C"}}