{"cas_no": "4199-10-4", "cn_name": "(S)-\u76d0\u9178\u666e\u8418\u6d1b\u5c14", "en_name": ["(S)-Propranolol hydrochloride", "2-Propanol, 1-[(1-methylethyl)amino]-3-(1-naphthalenyloxy)-, hydrochloride (1:1), (2S)-", "2-Propanol, 1-(isopropylamino)-3-(1-naphthyloxy)-, hydrochloride, (-)-", "2-Propanol, 1-[(1-methylethyl)amino]-3-(1-naphthalenyloxy)-, hydrochloride, (S)-", "2-Propanol, 1-[(1-methylethyl)amino]-3-(1-naphthalenyloxy)-, hydrochloride, (2S)-", "(-)-Propranolol hydrochloride", "l-Propranolol hydrochloride", "L-(-)-Propranolol hydrochloride", "S-(-)-1-Isopropylamino-3-(1-naphthoxy)-2-propanol hydrochloride", "l-Propranolol chlorhydrate", "(S)-(-)-Propranolol hydrochloride", "(S)-Propranolol hydrochloride"], "SMILES": "O(CC(CNC(C)C)O)C=1C2=C(C=CC1)C=CC=C2.Cl", "physical_data": {"Molecular Weight": "", "Molecular Formula": "C16H21NO2.ClH", "Melting Point": "192 \u00b0C"}}