{"cas_no": "41994-50-7", "cn_name": "2,5-\u5421\u54af\u70f7\u7fa7\u9178\u4e8c\u4e59\u916f", "en_name": ["2,5-Pyrrolidinedicarboxylic acid, 2,5-diethyl ester", "2,5-Pyrrolidinedicarboxylic acid, 2,5-diethyl ester", "2,5-Pyrrolidinedicarboxylic acid, diethyl ester", "Diethyl 2,5-pyrrolidinedicarboxylate", "2-Diethyl 2,5-pyrrolidinedicarboxylate", "2,5-Diethyl pyrrolidine-2,5-dicarboxylate"], "SMILES": "C(OCC)(=O)C1NC(C(OCC)=O)CC1", "physical_data": {"Molecular Weight": "215.25", "Molecular Formula": "C10H17NO4", "Boiling Point": "95-96 \u00b0C @ Press: 0.3 Torr"}}