{"cas_no": "41994-51-8", "cn_name": "(S)-1,2,3,4-\u56db\u6c22-3-\u5f02\u55b9\u5549\u7fa7\u9178", "en_name": ["3-Isoquinolinecarboxylic acid, 1,2,3,4-tetrahydro-, hydrochloride (1:1)", "3-Isoquinolinecarboxylic acid, 1,2,3,4-tetrahydro-, hydrochloride (1:1)", "3-Isoquinolinecarboxylic acid, 1,2,3,4-tetrahydro-, hydrochloride", "1,2,3,4-Tetrahydro-3-isoquinolinecarboxylic acid hydrochloride", "3-Carboxy-1,2,3,4-tetrahydroisoquinoline hydrochloride"], "SMILES": "C(O)(=O)C1CC=2C(CN1)=CC=CC2.Cl", "physical_data": {"Molecular Weight": "", "Molecular Formula": "C10H11NO2.ClH", "Melting Point": "305 \u00b0C (decomp)"}}