{"cas_no": "4199-88-6", "cn_name": "5-\u785d\u57fa-1,10-\u83f2\u54af\u5549", "en_name": ["5-Nitro-1,10-phenanthroline", "1,10-Phenanthroline, 5-nitro-", "5-Nitro-1,10-phenanthroline", "5-Nitro-1,10-diazaphenanthrene", "5-Nitro-o-phenanthroline", "NSC 4263"], "SMILES": "N(=O)(=O)C1=C2C(=C3C(=C1)C=CC=N3)N=CC=C2", "physical_data": {"Molecular Weight": "225.20", "Molecular Formula": "C12H7N3O2", "Melting Point": "202 \u00b0C"}}