{"cas_no": "41995-31-7", "cn_name": "2-\u6c28\u57fa-3-\u4e59\u57fa-6-\u7532\u57fa\u5421\u5576", "en_name": ["2-Amino-3-ethyl-6-methylpyridine", "2-Pyridinamine, 3-ethyl-6-methyl-", "2-Picoline, 6-amino-5-ethyl-", "3-Ethyl-6-methyl-2-pyridinamine", "3-Ethyl-6-methyl-2-aminopyridine", "2-Amino-3-ethyl-6-methylpyridine"], "SMILES": "C(C)C1=C(N)N=C(C)C=C1", "physical_data": {"Molecular Weight": "136.19", "Molecular Formula": "C8H12N2", "Boiling Point": "82-88 \u00b0C @ Press: 0.5 Torr", "Melting Point": "48 \u00b0C"}}