{"cas_no": "41995-30-6", "cn_name": "3,5-\u4e8c\u7532\u57fa\u5421\u5576-2-\u80fa", "en_name": ["3,5-Dimethyl-2-pyridinamine", "2-Pyridinamine, 3,5-dimethyl-", "3,5-Dimethyl-2-pyridinamine", "2-Amino-3,5-dimethylpyridine"], "SMILES": "CC1=C(N)N=CC(C)=C1", "physical_data": {"Molecular Weight": "122.17", "Molecular Formula": "C7H10N2", "Boiling Point": "110 \u00b0C @ Press: 10 Torr"}}