{"cas_no": "41999-70-6", "cn_name": "N-\u7532\u57fa-N-(2-\u7f9f\u4e59\u57fa)-1,3-\u4e19\u4e8c\u80fa", "en_name": ["2-[(3-Aminopropyl)methylamino]ethanol", "Ethanol, 2-[(3-aminopropyl)methylamino]-", "2-[(3-Aminopropyl)methylamino]ethanol", "N-(2-Hydroxyethyl)-N-methyl-1,3-propanediamine", "N-Methyl-N-(3-aminopropyl)ethanolamine", "N-(2-Hydroxyethyl)-N-methyl-1,3-propylenediamine", "N-(2-hydroxyethyl)-N-methyl-1,3-propylenediamine", "N-(3-Aminopropyl)-N-(2-hydroxyethyl)methylamine", "N-Aminopropyl-N-(2-hydroxyethyl)-N-methylamine", "N-Methyl-N-(2-hydroxyethyl)propanediamine", "(3-Aminopropyl)(2-hydroxyethyl)methylamine", "N-(3-Aminopropyl)-N-methylethanolamine", "N-(3-Aminopropyl)-N-(2-hydroxyethyl)-N-methylamine", "N-Hydroxyethyl-N-methyl-1,3-propanediamine", "N-Methyl-N-(2-hydroxyethyl)-N-(3-aminopropyl)amine", "N-(2-Hydroxyethyl)-N-(3-aminopropyl)-N-methylamine", "N-Methyl-N-(2-hydroxyethyl)-1,3-propanediamine", "2-[(3-Aminopropyl)(methyl)amino]ethan-1-ol"], "SMILES": "N(CCCN)(CCO)C", "physical_data": {"Molecular Weight": "132.20", "Molecular Formula": "C6H16N2O", "Boiling Point": "123-125 \u00b0C @ Press: 15 Torr", "Density": "0.9793 g/cm\u00b3 @ Temp: 25 \u00b0C"}}