{"cas_no": "420-04-2", "cn_name": "\u6c30\u80fa", "en_name": ["Cyanamide", "Cyanamide", "Amidocyanogen", "Cyanogenamide", "Cyanogen nitride", "Carbamonitrile", "Cyanoamine", "Hydrogen cyanamide", "N-Cyanoamine", "Alzogur", "Carbimide", "TsAKS", "NSC 24133", "Dormex", "Deurbraak", "Cyanamide F 1000", "F 1000", "Dyhard VP 111", "Amino cyanide", "CY 100", "Dormax", "MeSH ID: D003484"], "SMILES": "C(N)#N", "physical_data": {"Molecular Weight": "42.04", "Molecular Formula": "CH2N2", "Boiling Point": "83 \u00b0C @ Press: 0.5 Torr", "Melting Point": "45-46 \u00b0C", "Density": "1.282 g/cm\u00b3 @ Temp: 20 \u00b0C"}}