{"cas_no": "420-56-4", "cn_name": "\u4e09\u7532\u57fa\u6c1f\u7845\u70f7", "en_name": ["Fluorotrimethylsilane", "Silane, fluorotrimethyl-", "Fluorotrimethylsilane", "Trimethylfluorosilane", "Trimethylsilicon fluoride", "Trimethylsilyl fluoride"], "SMILES": "[Si](C)(C)(C)F", "physical_data": {"Molecular Weight": "92.19", "Molecular Formula": "C3H9FSi", "Boiling Point": "16-18 \u00b0C", "Melting Point": "-74 \u00b0C", "Density": "0.793 g/cm\u00b3 @ Temp: 0 \u00b0C"}}