{"cas_no": "420-97-3", "cn_name": "1,2-\u4e8c\u6c2f-2-\u6c1f\u4e19\u70f7", "en_name": ["1,2-Dichloro-2-fluoropropane", "Propane, 1,2-dichloro-2-fluoro-", "1,2-Dichloro-2-fluoropropane"], "SMILES": "C(CCl)(C)(Cl)F", "physical_data": {"Molecular Weight": "130.98", "Molecular Formula": "C3H5Cl2F", "Boiling Point": "88.6 \u00b0C", "Melting Point": "-91.7 \u00b0C", "Density": "1.2618 g/cm\u00b3 @ Temp: 20 \u00b0C"}}