{"cas_no": "420-46-2", "cn_name": "1,1,1-\u4e09\u6c1f\u4e59\u70f7", "en_name": ["1,1,1-Trifluoroethane", "Ethane, 1,1,1-trifluoro-", "1,1,1-Trifluoroethane", "Methylfluoroform", "R 143a", "FC 143a", "HFC 143a", "CFC 143A", "F 143A", "HCF 143a", "HCFC 143a", "Fron 143a", "TG 143a", "HFA 143a", "Freon 143a", "HFO 143a"], "SMILES": "C(C)(F)(F)F", "physical_data": {"Molecular Weight": "84.04", "Molecular Formula": "C2H3F3", "Boiling Point": "-47.5 \u00b0C", "Melting Point": "-111.3 \u00b0C"}}