{"cas_no": "420-45-1", "cn_name": "2,2-\u4e8c\u6c1f\u4e19\u70f7", "en_name": ["Propane, 2,2-difluoro-", "Propane, 2,2-difluoro-", "2,2-Difluoropropane", "Dimethyldifluoromethane", "R 272ca", "HFC 272ca"], "SMILES": "C(C)(C)(F)F", "physical_data": {"Molecular Weight": "80.08", "Molecular Formula": "C3H6F2", "Boiling Point": "-0.4 \u00b0C", "Melting Point": "-104.8 \u00b0C", "Density": "0.92 g/cm\u00b3 @ Temp: 20 \u00b0C"}}