{"cas_no": "420-12-2", "cn_name": "\u73af\u786b\u4e59\u70f7", "en_name": ["Thiirane", "Thiirane", "Ethylene sulfide", "Thiacyclopropane", "Thiirene, 2,3-dihydro-", "Ethylene episulfide", "NSC 89690"], "SMILES": "C1CS1", "physical_data": {"Molecular Weight": "60.12", "Molecular Formula": "C2H4S", "Boiling Point": "55-56 \u00b0C", "Density": "1.0368 g/cm\u00b3 @ Temp: 0 \u00b0C"}}