{"cas_no": "420-37-1", "cn_name": "\u4e09\u7532\u57fa\u6c27\u9393\u56db\u6c1f\u787c\u9178", "en_name": ["Trimethyloxonium tetrafluoroborate", "Oxonium, trimethyl-, tetrafluoroborate(1-) (1:1)", "Oxonium, trimethyl-, tetrafluoroborate(1-)", "Trimethyloxonium tetrafluoroborate", "Trimethyloxonium fluoborate", "Borate(1-), tetrafluoro-, trimethyloxonium", "Trimethyloxonium fluoroborate", "Trimethyloxonium tetrafluoroborate(1-)", "NSC 528455"], "SMILES": "[B+3]([F-])([F-])([F-])[F-].[O+](C)(C)C", "physical_data": {"Molecular Weight": "", "Molecular Formula": "C3H9O.BF4", "Melting Point": "124.5 \u00b0C (decomp)"}}