{"cas_no": "4200-95-7", "cn_name": "\u6b63\u5341\u4e03\u80fa", "en_name": ["Heptadecylamine", "1-Heptadecanamine", "Heptadecylamine", "n-Heptadecylamine", "Margarylamine", "1-Aminoheptadecane", "NSC 91524"], "SMILES": "C(CCCCCCCCN)CCCCCCCC", "physical_data": {"Molecular Weight": "255.48", "Molecular Formula": "C17H37N", "Boiling Point": "336 \u00b0C", "Melting Point": "49 \u00b0C"}}