{"cas_no": "4200-92-4", "cn_name": "\u6b63\u8f9b\u57fa\u7425\u73c0\u9178\u9150", "en_name": ["Dihydro-3-octyl-2,5-furandione", "2,5-Furandione, dihydro-3-octyl-", "Succinic anhydride, octyl-", "Dihydro-3-octyl-2,5-furandione", "n-Octylsuccinic anhydride", "Octylsuccinic anhydride", "2-Octylsuccinic anhydride", "\u03b1-Octylsuccinic anhydride", "3-Octyldihydro-2,5-furandione", "NSC 77114", "3-Octyloxolane-2,5-dione"], "SMILES": "C(CCCCCCC)C1CC(=O)OC1=O", "physical_data": {"Molecular Weight": "212.29", "Molecular Formula": "C12H20O3", "Melting Point": "62-64.5 \u00b0C"}}