{"cas_no": "42003-39-4", "cn_name": "\u6c2f\u7532\u57fa\u6742\u6c2e\u7845\u4e09\u70f7", "en_name": ["1-(Chloromethyl)-2,8,9-trioxa-5-aza-1-silabicyclo[3.3.3]undecane", "2,8,9-Trioxa-5-aza-1-silabicyclo[3.3.3]undecane, 1-(chloromethyl)-", "1-(Chloromethyl)-2,8,9-trioxa-5-aza-1-silabicyclo[3.3.3]undecane", "1-(Chloromethyl)silatrane", "Mival", "Silimin", "NSC 626545", "Mival Zoo", "Silacin", "Silatsin"], "SMILES": "C(Cl)[Si]12OCCN(CCO1)CCO2", "physical_data": {"Molecular Weight": "223.73", "Molecular Formula": "C7H14ClNO3Si", "Melting Point": "221-222 \u00b0C"}}