{"cas_no": "4200-91-3", "cn_name": "\u6b63\u5341\u516d\u70f7\u57fa\u7425\u73c0\u9178\u9150", "en_name": ["Hexadecylsuccinic anhydride", "2,5-Furandione, 3-hexadecyldihydro-", "Succinic anhydride, hexadecyl-", "3-Hexadecyldihydro-2,5-furandione", "n-Hexadecylsuccinic anhydride", "2-Hexadecylsuccinic anhydride", "Hexadecylsuccinic anhydride", "NSC 77137", "3-Hexadecyloxolane-2,5-dione"], "SMILES": "C(CCCCCCCCCCCCCCC)C1CC(=O)OC1=O", "physical_data": {"Molecular Weight": "324.50", "Molecular Formula": "C20H36O3", "Melting Point": "63 \u00b0C"}}