{"cas_no": "42013-20-7", "cn_name": "2-\u7532\u57fa\u9a6c\u5c3f\u9178", "en_name": ["2-Methylhippuric acid", "Glycine, N-(2-methylbenzoyl)-", "N-(2-Methylbenzoyl)glycine", "o-Toluric acid", "o-Methylhippuric acid", "2-Methylhippuric acid", "NSC 163983", "(2-Methyl-benzoylamino)-acetic acid", "2-[(2-Methylbenzoyl)amino]acetic acid", "2-[(2-Methylphenyl)formamido]acetic acid"], "SMILES": "C(NCC(O)=O)(=O)C1=C(C)C=CC=C1", "physical_data": {"Molecular Weight": "193.20", "Molecular Formula": "C10H11NO3", "Melting Point": "165 \u00b0C"}}