{"cas_no": "42017-89-0", "cn_name": "\u975e\u8bfa\u8d1d\u7279\u9178", "en_name": ["Fenofibric acid", "Propanoic acid, 2-[4-(4-chlorobenzoyl)phenoxy]-2-methyl-", "2-[4-(4-Chlorobenzoyl)phenoxy]-2-methylpropanoic acid", "2-[p-(p-Chlorobenzoyl)phenoxy]-2-methylpropionic acid", "LF 178 acid", "LF 153", "2-[4\u2032-(p-Chlorobenzoyl)phenoxy]-2-methylpropionic acid", "Procetofenic acid", "\u03b1-1081", "Fenofibric acid", "NSC 281318", "FNF acid"], "SMILES": "C(=O)(C1=CC=C(OC(C(O)=O)(C)C)C=C1)C2=CC=C(Cl)C=C2", "physical_data": {"Molecular Weight": "318.75", "Molecular Formula": "C17H15ClO4", "Melting Point": "179-180 \u00b0C"}}