{"cas_no": "42016-91-1", "cn_name": "3,5-\u4e8c\u7898\u6c34\u6768\u9170\u6c2f", "en_name": ["2-Hydroxy-3,5-diiodobenzoyl chloride", "Benzoyl chloride, 2-hydroxy-3,5-diiodo-", "Salicyloyl chloride, 3,5-diiodo-", "Salicylyl chloride, 3,5-diiodo-", "2-Hydroxy-3,5-diiodobenzoyl chloride", "3,5-Diiodosalicylyl chloride", "3,5-Diiodosalicyloyl chloride", "3,5-Diiodosalicyl chloride", "3,5-Diiodosalicylic acid chloride", "3,5-Diiodo-2-hydroxybenzoyl chloride"], "SMILES": "C(Cl)(=O)C1=C(O)C(I)=CC(I)=C1", "physical_data": {"Molecular Weight": "408.36", "Molecular Formula": "C7H3ClI2O2", "Melting Point": "90 \u00b0C"}}