{"cas_no": "42019-78-3", "cn_name": "4-\u6c2f-4'-\u7f9f\u57fa\u4e8c\u82ef\u7532\u916e", "en_name": ["4-Chloro-4\u2032-hydroxybenzophenone", "Methanone, (4-chlorophenyl)(4-hydroxyphenyl)-", "Benzophenone, 4-chloro-4\u2032-hydroxy-", "(4-Chlorophenyl)(4-hydroxyphenyl)methanone", "4-Hydroxy-4\u2032-chlorobenzophenone", "4-(4-Chlorobenzoyl)phenol", "4-p-Chlorobenzoylphenol", "4-Chloro-4\u2032-hydroxybenzophenone", "1-(4-Chlorophenyl)-1-(4-hydroxyphenyl)methanone", "4\u2032-Chloro-4-hydroxybenzophenone"], "SMILES": "C(=O)(C1=CC=C(Cl)C=C1)C2=CC=C(O)C=C2", "physical_data": {"Molecular Weight": "232.66", "Molecular Formula": "C13H9ClO2", "Melting Point": "179 \u00b0C"}}