{"cas_no": "42016-93-3", "cn_name": "2-\u6c2f-4-\u7898\u82ef\u80fa", "en_name": ["2-Chloro-4-iodobenzenamine", "Benzenamine, 2-chloro-4-iodo-", "2-Chloro-4-iodobenzenamine", "2-Chloro-4-iodoaniline", "NSC 137040", "2-Chloro-4-iodo-phenylamine"], "SMILES": "ClC1=C(N)C=CC(I)=C1", "physical_data": {"Molecular Weight": "253.47", "Molecular Formula": "C6H5ClIN", "Melting Point": "71-72 \u00b0C"}}