{"cas_no": "4202-38-4", "cn_name": "\u5341\u4e8c\u70f7\u57fa\u5f02\u6c30\u9178\u916f", "en_name": ["Dodecyl isocyanate", "Dodecane, 1-isocyanato-", "Isocyanic acid, dodecyl ester", "1-Isocyanatododecane", "Dodecyl isocyanate", "Lauryl isocyanate", "1-Dodecyl isocyanate"], "SMILES": "C(CCCCCCC)CCCCN=C=O", "physical_data": {"Molecular Weight": "211.34", "Molecular Formula": "C13H25NO", "Boiling Point": "140-145 \u00b0C @ Press: 11 Torr"}}