{"cas_no": "4202-14-6", "cn_name": "\u4e19\u916e\u57fa\u81a6\u9178\u4e8c\u7532\u916f", "en_name": ["Dimethyl P-(2-oxopropyl)phosphonate", "Phosphonic acid, P-(2-oxopropyl)-, dimethyl ester", "Phosphonic acid, acetonyl-, dimethyl ester", "Phosphonic acid, (2-oxopropyl)-, dimethyl ester", "Dimethyl P-(2-oxopropyl)phosphonate", "(2-Oxopropyl)phosphonic acid dimethyl ester", "Dimethyl (2-oxopropyl)phosphonate", "(Dimethylphosphono)acetone", "Dimethyl \u03b2-keto-propylphosphonate", "Dimethyl acetonylphosphonate", "Dimethyl 2-oxopropanephosphonate", "1-Dimethoxyphosphorylpropan-2-one"], "SMILES": "P(CC(C)=O)(OC)(OC)=O", "physical_data": {"Molecular Weight": "166.11", "Molecular Formula": "C5H11O4P", "Boiling Point": "76-79 \u00b0C", "Density": "1.1748 g/cm\u00b3 @ Temp: 20 \u00b0C"}}