{"cas_no": "4203-50-3", "cn_name": "2-\u82ef\u6c27\u57fa\u56db\u6c22\u5421\u5583", "en_name": ["Tetrahydro-2-phenoxy-2H-pyran", "2H-Pyran, tetrahydro-2-phenoxy-", "Pyran, tetrahydro-2-phenoxy-", "Tetrahydro-2-phenoxy-2H-pyran", "2-Phenoxytetrahydropyran", "Tetrahydropyran-2-yl phenyl ether", "2-Phenoxytetrahydro-2H-pyran", "Phenyl tetrahydropyranyl ether", "Phenyl 2-tetrahydropyranyl ether", "Tetrahydropyranyl phenyl ether", "Phenyl THP ether", "2-Phenoxyoxane"], "SMILES": "O(C1=CC=CC=C1)C2CCCCO2", "physical_data": {"Molecular Weight": "178.23", "Molecular Formula": "C11H14O2", "Boiling Point": "103 \u00b0C @ Press: 4 Torr"}}