{"cas_no": "42036-65-7", "cn_name": "2-\u4e8c\u7532\u6c28\u57fa\u7532\u57fa-1-\u73af\u5df1\u916e\u76d0\u9178\u76d0", "en_name": ["Cyclohexanone, 2-[(dimethylamino)methyl]-, hydrochloride (1:1)", "Cyclohexanone, 2-[(dimethylamino)methyl]-, hydrochloride (1:1)", "Cyclohexanone, 2-[(dimethylamino)methyl]-, hydrochloride", "2-[(Dimethylamino)methyl]cyclohexanone hydrochloride", "Dimethyl((2-oxocyclohexyl)methyl)ammonium chloride", "NSC 12467", "NSC 620461", "2-[(Dimethylamino)methyl]cyclohexan-1-one hydrochloride"], "SMILES": "C(N(C)C)C1C(=O)CCCC1.Cl", "physical_data": {"Molecular Weight": "", "Molecular Formula": "C9H17NO.ClH", "Melting Point": "152 \u00b0C"}}