{"cas_no": "4205-90-7", "cn_name": "\u53ef\u4e50\u5b9a", "en_name": ["Clonidine", "1H-Imidazol-2-amine, N-(2,6-dichlorophenyl)-4,5-dihydro-", "2-Imidazoline, 2-(2,6-dichloroanilino)-", "N-(2,6-Dichlorophenyl)-4,5-dihydro-1H-imidazol-2-amine", "734571A", "Clonidine", "Clonidin", "2-(2,6-Dichloroanilino)-2-imidazoline", "2-(2,6-Dichlorophenylimino)imidazolidine", "M 5041T", "SKF 34427", "Catapres-TTS", "ST 155BS", "2-(2,6-Dichlorophenylamino)-1,3-diazacyclopentene", "Duraclon", "Arkamin", "(2,6-Dichloro-phenyl)-(4,5-dihydro-1H-imidazol-2-yl)-amine", "(2,6-Dichloro-phenyl)-imidazolidin-2-ylidene-amine", "2-[(2,6-Dichlorophenyl)amino]-2-imidazoline", "MeSH ID: D003000"], "SMILES": "N(C1=C(Cl)C=CC=C1Cl)C=2NCCN2", "physical_data": {"Molecular Weight": "230.09", "Molecular Formula": "C9H9Cl2N3", "Melting Point": "130 \u00b0C"}}