{"cas_no": "4205-91-8", "cn_name": "\u76d0\u9178\u53ef\u4e50\u5b9a", "en_name": ["Clonidine hydrochloride", "1H-Imidazol-2-amine, N-(2,6-dichlorophenyl)-4,5-dihydro-, hydrochloride (1:1)", "2-Imidazoline, 2-(2,6-dichloroanilino)-, monohydrochloride", "1H-Imidazol-2-amine, N-(2,6-dichlorophenyl)-4,5-dihydro-, monohydrochloride", "Catapressan", "Catapres", "Clonidine hydrochloride", "ST 155", "2-[(2,6-Dichlorophenyl)amino]-2-imidazoline monohydrochloride", "Haemiton", "Chlophazolin", "2-[(2,6-Dichlorophenyl)amino]-2-imidazoline hydrochloride", "Katapresan", "Clonidine chloride", "Atensina", "Capresin", "DCAI", "Hemiton", "Normopresan", "Clonidine monohydrochloride", "Clofelin", "Isoglaucon", "2-(2,6-Dichloroanilino)-2-imidazoline hydrochloride", "Neuclon", "Clopheline", "KAPVAY", "Dichloranilino imidazolin", "Validive"], "SMILES": "N(C1=C(Cl)C=CC=C1Cl)C=2NCCN2.Cl", "physical_data": {"Molecular Weight": "", "Molecular Formula": "C9H9Cl2N3.ClH", "Melting Point": "305 \u00b0C"}}