{"cas_no": "42059-80-3", "cn_name": "3-\u7532\u9170\u57fa-6-\u785d\u57fa\u8272\u916e", "en_name": ["3-Formyl-6-nitrochromone", "4H-1-Benzopyran-3-carboxaldehyde, 6-nitro-4-oxo-", "6-Nitro-4-oxo-4H-1-benzopyran-3-carboxaldehyde", "6-Nitrochromone-3-carboxaldehyde", "3-Formyl-6-nitrochromone", "6-Nitro-4-oxo-4H-chromene-3-carbaldehyde"], "SMILES": "O=C1C=2C(=CC=C(N(=O)=O)C2)OC=C1C=O", "physical_data": {"Molecular Weight": "219.15", "Molecular Formula": "C10H5NO5", "Melting Point": "161 \u00b0C"}}