{"cas_no": "4206-75-1", "cn_name": "\u6c2f\u82ef\u57fa\u7845\u70f7", "en_name": ["(Chlorosilyl)benzene", "Benzene, (chlorosilyl)-", "Silane, chlorophenyl-", "(Chlorosilyl)benzene", "Chlorophenylsilane", "Phenylchlorosilane"], "SMILES": "[SiH2](Cl)C1=CC=CC=C1", "physical_data": {"Molecular Weight": "142.66", "Molecular Formula": "C6H7ClSi", "Boiling Point": "162.5 \u00b0C", "Melting Point": "156 \u00b0C"}}