{"cas_no": "4206-67-1", "cn_name": "\u7898\u7532\u57fa\u4e09\u7532\u57fa\u7845\u70f7", "en_name": ["(Iodomethyl)trimethylsilane", "Silane, (iodomethyl)trimethyl-", "(Iodomethyl)trimethylsilane", "Trimethyl(iodomethyl)silane", "Trimethylsilylmethyl iodide", "Iodo(trimethylsilyl)methane", "(Trimethylsilyl)iodomethane"], "SMILES": "[Si](CI)(C)(C)C", "physical_data": {"Molecular Weight": "214.12", "Molecular Formula": "C4H11ISi", "Boiling Point": "140-142 \u00b0C", "Melting Point": "137-141 \u00b0C", "Density": "1.441 g/cm\u00b3"}}