{"cas_no": "4206-61-5", "cn_name": "2,2\u2019-[\u6c27\u57fa\u53cc(2,1-\u4e9a\u4e59\u57fa\u6c27\u57fa\u4e9a\u7532\u57fa)]\u53cc\u73af\u6c27\u4e59\u70f7", "en_name": ["Diethylene glycol diglycidyl ether", "Oxirane, 2,2\u2032-[oxybis(2,1-ethanediyloxymethylene)]bis-", "Ether, bis[2-(2,3-epoxypropoxy)ethyl]", "2,2\u2032-[Oxybis(2,1-ethanediyloxymethylene)]bis[oxirane]", "Diethylene glycol bis-glycidyl ether", "4,7,10-Trioxatridecane, 1,2:12,13-diepoxy-", "Diethylene glycol diglycidyl ether", "Diglycidyl diethyleneglycol ether", "NSC 517936", "2-[(2-[2-[(Oxiran-2-yl)methoxy]ethoxy]ethoxy)methyl]oxirane", "2-[2-[2-(Oxiran-2-ylmethoxy)ethoxy]ethoxymethyl]oxirane"], "SMILES": "C(OCCOCCOCC1CO1)C2CO2", "physical_data": {"Molecular Weight": "218.25", "Molecular Formula": "C10H18O5", "Boiling Point": "100 \u00b0C @ Press: 0.05 Torr"}}