{"cas_no": "4206-58-0", "cn_name": "TRANS-3,5-\u4e8c\u7532\u6c27\u57fa-4-\u7f9f\u57fa\u8089\u6842\u919b", "en_name": ["Sinapaldehyde", "2-Propenal, 3-(4-hydroxy-3,5-dimethoxyphenyl)-, (2E)-", "Cinnamaldehyde, 4-hydroxy-3,5-dimethoxy-", "2-Propenal, 3-(4-hydroxy-3,5-dimethoxyphenyl)-, (E)-", "(2E)-3-(4-Hydroxy-3,5-dimethoxyphenyl)-2-propenal", "Sinapaldehyde", "Sinapic aldehyde", "Sinapyl aldehyde", "trans-Sinapaldehyde", "(E)-3,5-Dimethoxy-4-hydroxyphenylpropenaldehyde", "(E)-3-(4-Hydroxy-3,5-dimethoxyphenyl)acrylaldehyde"], "SMILES": "C(=CC=O)C1=CC(OC)=C(O)C(OC)=C1", "physical_data": {"Molecular Weight": "208.21", "Molecular Formula": "C11H12O4", "Melting Point": "109 \u00b0C"}}