{"cas_no": "42079-78-7", "cn_name": "5-\u7532\u6c27\u57fa\u9ec4\u916e", "en_name": ["5-Methoxyflavone", "4H-1-Benzopyran-4-one, 5-methoxy-2-phenyl-", "Flavone, 5-methoxy-", "5-Methoxy-2-phenyl-4H-1-benzopyran-4-one", "5-Methoxyflavone"], "SMILES": "O(C)C1=C2C(OC(=CC2=O)C3=CC=CC=C3)=CC=C1", "physical_data": {"Molecular Weight": "252.26", "Molecular Formula": "C16H12O3", "Melting Point": "135 \u00b0C"}}