{"cas_no": "42074-68-0", "cn_name": "\u6c2f\u4ee3(\u90bb\u6c2f\u82ef\u57fa)\u4e8c\u82ef\u57fa\u7532\u70f7", "en_name": ["2-Chlorotrityl chloride", "Benzene, 1-chloro-2-(chlorodiphenylmethyl)-", "1-Chloro-2-(chlorodiphenylmethyl)benzene", "2-Chlorophenyldiphenylmethyl chloride", "o-Chlorotriphenylchloromethane", "Chloro(2-chlorophenyl)diphenylmethane", "Diphenyl-2-chlorophenylmethyl chloride", "2-Chlorophenyldiphenylchloromethane", "2-Chlorotrityl chloride", "(Chloro(2-chlorophenyl)methylene)dibenzene"], "SMILES": "C(Cl)(C1=C(Cl)C=CC=C1)(C2=CC=CC=C2)C3=CC=CC=C3", "physical_data": {"Molecular Weight": "313.22", "Molecular Formula": "C19H14Cl2", "Melting Point": "136 \u00b0C"}}