{"cas_no": "42070-92-8", "cn_name": "(R)-1-(4-\u7532\u57fa\u82ef\u57fa)\u4e59\u9187", "en_name": ["(+)-1-(4-Methylphenyl)ethanol", "Benzenemethanol, \u03b1,4-dimethyl-, (\u03b1R)-", "Benzenemethanol, \u03b1,4-dimethyl-, (R)-", "(\u03b1R)-\u03b1,4-Dimethylbenzenemethanol", "(R)-\u03b1,p-Methylbenzyl alcohol", "(+)-1-(4-Methylphenyl)ethanol", "(R)-1-(4-Methylphenyl)ethanol", "(R)-1-(4-Tolyl)ethanol", "(R)-1-(p-Methylphenyl)ethanol", "(+)-1-(p-Methylphenyl)ethanol", "(R)-1-(p-Tolyl)ethanol", "(R)-4-Methylphenylethan-1-ol", "(R)-(+)-1-(4-Methylphenyl)ethanol", "(R)-1-(4\u2032-Methylphenyl)ethanol", "(R)-1-p-Tolylethanol", "(R)-1-(p-Tolyl)ethan-1-ol", "(R)-1-(4-Methylphenyl)ethanol", "(1R)-1-(4-Methylphenyl)ethan-1-ol"], "SMILES": "C(C)(O)C1=CC=C(C)C=C1", "physical_data": {"Molecular Weight": "136.19", "Molecular Formula": "C9H12O", "Boiling Point": "76 \u00b0C @ Press: 2.2 Torr", "Melting Point": "219-220 \u00b0C"}}