{"cas_no": "4207-56-1", "cn_name": "\u82ef\u57fa\u4e09\u7532\u57fa\u4e09\u6eb4\u5316\u94f5", "en_name": ["Benzenaminium, N,N,N-trimethyl-, (tribromide) (1:1)", "Benzenaminium, N,N,N-trimethyl-, (tribromide) (1:1)", "Ammonium, trimethylphenyl-, (tribromide)", "Benzenaminium, N,N,N-trimethyl-, (tribromide)", "Trimethylphenylammonium tribromide", "Bromide (Br31-), N,N,N-trimethylbenzenaminium", "Jacques reagent", "Phenyltrimethylammonium tribromide", "Phenyltrimethylammonium perbromide", "Trimethylphenylammonium perbromide", "NSC 138640", "NSC 173340", "NSC 87897"], "SMILES": "[N+](C)(C)(C)C1=CC=CC=C1.[Br-](Br)Br", "physical_data": {"Molecular Weight": "", "Molecular Formula": "C9H14N.Br3", "Melting Point": "113-115 \u00b0C"}}