{"cas_no": "4208-57-5", "cn_name": "2-\u4e01\u9170\u544b\u5583", "en_name": ["2-Butyrylfuran", "1-Butanone, 1-(2-furanyl)-", "1-Butanone, 1-(2-furyl)-", "1-(2-Furanyl)-1-butanone", "Furyl n-propyl ketone", "2-Butyrylfuran", "2-Furyl propyl ketone", "NSC 21612", "1-(2-Furyl)-1-butanone"], "SMILES": "C(CCC)(=O)C1=CC=CO1", "physical_data": {"Molecular Weight": "138.16", "Molecular Formula": "C8H10O2", "Boiling Point": "192 \u00b0C", "Melting Point": "10-12 \u00b0C", "Density": "1.0485 g/cm\u00b3 @ Temp: 20 \u00b0C"}}