{"cas_no": "42087-80-9", "cn_name": "4-\u6c2f-2-\u785d\u57fa\u82ef\u7532\u9178\u7532\u916f", "en_name": ["Benzoic acid, 4-chloro-2-nitro-, methyl ester", "Benzoic acid, 4-chloro-2-nitro-, methyl ester", "2-Nitro-4-chlorobenzoic acid methyl ester", "Methyl 4-chloro-2-nitrobenzoate", "Methyl 2-nitro-4-chlorobenzoate", "NSC 17028", "4-Chloro-2-nitrobenzoic acid methyl ester"], "SMILES": "C(OC)(=O)C1=C(N(=O)=O)C=C(Cl)C=C1", "physical_data": {"Molecular Weight": "215.59", "Molecular Formula": "C8H6ClNO4", "Melting Point": "43-45 \u00b0C"}}