{"cas_no": "4208-64-4", "cn_name": "DL-1-(2-\u544b\u5583\u57fa)\u4e59\u9187", "en_name": ["\u03b1-Methyl-2-furanmethanol", "2-Furanmethanol, \u03b1-methyl-", "Furfuryl alcohol, \u03b1-methyl-", "\u03b1-Methyl-2-furanmethanol", "\u03b1-Methylfurfuryl alcohol", "2-(1-Hydroxyethyl)furan", "1-(2-Furyl)ethanol", "1-(2\u2032-Furyl)ethanol", "(\u00b1)-1-(2-Furyl)ethanol", "1-(2-Furanyl)ethanol", "1-(2-Furyl)-1-ethanol", "1-(Furan-2-yl)ethan-1-ol"], "SMILES": "C(C)(O)C1=CC=CO1", "physical_data": {"Molecular Weight": "112.13", "Molecular Formula": "C6H8O2", "Boiling Point": "162.5 \u00b0C", "Melting Point": "73-74 \u00b0C", "Density": "1.0771 g/cm\u00b3 @ Temp: 25 \u00b0C"}}