{"cas_no": "4208-49-5", "cn_name": "\u7ce0\u9178\u70ef\u4e19\u916f", "en_name": ["2-Propen-1-yl 2-furancarboxylate", "2-Furancarboxylic acid, 2-propen-1-yl ester", "2-Furoic acid, allyl ester", "2-Furancarboxylic acid, 2-propenyl ester", "2-Propen-1-yl 2-furancarboxylate", "Allyl 2-furoate", "Allyl 2-furancarboxylate", "NSC 18604", "2-Propenyl 2-furancarboxylate"], "SMILES": "C(OCC=C)(=O)C1=CC=CO1", "physical_data": {"Molecular Weight": "152.15", "Molecular Formula": "C8H8O3", "Boiling Point": "207.5 \u00b0C", "Melting Point": "209 \u00b0C", "Density": "1.118 g/cm\u00b3 @ Temp: 20 \u00b0C"}}