{"cas_no": "4209-91-0", "cn_name": "3,5-\u4e8c\u7532\u57fa-3-\u5df1\u9187", "en_name": ["3,5-Dimethyl-3-hexanol", "3-Hexanol, 3,5-dimethyl-", "3,5-Dimethyl-3-hexanol", "NSC 95422"], "SMILES": "C(C(CC)(C)O)C(C)C", "physical_data": {"Molecular Weight": "130.23", "Molecular Formula": "C8H18O", "Boiling Point": "151 \u00b0C @ Press: 768 Torr", "Density": "0.830 g/cm\u00b3 @ Temp: 15 \u00b0C"}}