{"cas_no": "4209-02-3", "cn_name": "2'-\u6c2f-4-\u6eb4\u82ef\u4e59\u916e", "en_name": ["1-(4-Bromophenyl)-2-chloroethanone", "Ethanone, 1-(4-bromophenyl)-2-chloro-", "Acetophenone, 4\u2032-bromo-2-chloro-", "1-(4-Bromophenyl)-2-chloroethanone", "p-Bromophenacyl chloride", "4-Bromophenacyl chloride", "4\u2032-Bromo-2-chloroacetophenone", "4-Bromo-1-(chloroacetyl)benzene", "p-Bromo-\u03b1-chloroacetophenone", "4\u2032-Bromo-\u03b1-chloroacetophenone", "NSC 94761", "Chloromethyl 4-bromophenyl ketone", "1-(4-Bromophenyl)-2-chloroethan-1-one"], "SMILES": "C(CCl)(=O)C1=CC=C(Br)C=C1", "physical_data": {"Molecular Weight": "233.49", "Molecular Formula": "C8H6BrClO", "Melting Point": "119-120 \u00b0C"}}