{"cas_no": "42097-42-7", "cn_name": "3-\u7f9f\u57fa-6-\u7532\u57fa-2-\u5421\u5576\u7532\u9187", "en_name": ["3-Hydroxy-6-methyl-2-pyridinemethanol", "2-Pyridinemethanol, 3-hydroxy-6-methyl-", "3-Hydroxy-6-methyl-2-pyridinemethanol", "2-(Hydroxymethyl)-6-methyl-3-pyridinol", "2-(Hydroxymethyl)-3-hydroxy-6-methylpyridine", "6-Methyl-2-(hydroxymethyl)-3-hydroxypyridine", "2,6-Lutidine-\u03b12,3-diol", "3-Hydroxy-2-(hydroxymethyl)-6-methylpyridine"], "SMILES": "C(O)C1=C(O)C=CC(C)=N1", "physical_data": {"Molecular Weight": "139.15", "Molecular Formula": "C7H9NO2", "Melting Point": "153 \u00b0C"}}