{"cas_no": "4209-90-9", "cn_name": "2,2-\u4e8c\u7532\u57fa-3-\u5df1\u9187", "en_name": ["2,2-Dimethyl-3-hexanol", "3-Hexanol, 2,2-dimethyl-", "2,2-Dimethyl-3-hexanol", "Propyl-tert-butylcarbinol", "NSC 95419", "tert-Butyl propyl carbinol"], "SMILES": "C(C(C)(C)C)(CCC)O", "physical_data": {"Molecular Weight": "130.23", "Molecular Formula": "C8H18O", "Boiling Point": "156 \u00b0C", "Density": "0.920 g/cm\u00b3 @ Temp: 25 \u00b0C"}}