{"cas_no": "4209-24-9", "cn_name": "\u5bf9\u7532\u57fa-2-\u6c2f\u4e59\u9170\u82ef", "en_name": ["2-Chloro-1-(4-methylphenyl)ethanone", "Ethanone, 2-chloro-1-(4-methylphenyl)-", "Acetophenone, 2-chloro-4\u2032-methyl-", "2-Chloro-1-(4-methylphenyl)ethanone", "p-Methylphenacyl chloride", "p-Methyl-2-chloroacetophenone", "\u03b1-Chloro-4\u2032-methylacetophenone", "4-Methylphenacyl chloride", "2-Chloro-4\u2032-methylacetophenone", "4-(2-Chloroacetyl)toluene", "Chloromethyl 4-methylphenyl ketone", "2-Chloro-1-(4\u2032-methylphenyl)ethanone", "Chloromethyl p-tolyl ketone", "NSC 41667", "2-Chloro-1-(p-tolyl)ethanone", "2-Chloro-1-(4-methylphenyl)ethan-1-one"], "SMILES": "C(CCl)(=O)C1=CC=C(C)C=C1", "physical_data": {"Molecular Weight": "168.62", "Molecular Formula": "C9H9ClO", "Boiling Point": "113 \u00b0C @ Press: 4 Torr", "Melting Point": "57-58 \u00b0C", "Density": "1.0937 g/cm\u00b3 @ Temp: 20 \u00b0C"}}