{"cas_no": "421-50-1", "cn_name": "1,1,1-\u4e09\u6c1f\u4e19\u916e", "en_name": ["1,1,1-Trifluoroacetone", "2-Propanone, 1,1,1-trifluoro-", "1,1,1-Trifluoro-2-propanone", "1,1,1-Trifluoroacetone", "Trifluoromethyl methyl ketone", "Methyl trifluoromethyl ketone", "3,3,3-Trifluoroacetone", "\u03b1,\u03b1,\u03b1-Trifluoroacetone", "NSC 66412"], "SMILES": "C(C(C)=O)(F)(F)F", "physical_data": {"Molecular Weight": "112.05", "Molecular Formula": "C3H3F3O", "Boiling Point": "22 \u00b0C", "Density": "1.282 g/cm\u00b3"}}