{"cas_no": "421-83-0", "cn_name": "\u4e09\u6c1f\u7532\u70f7\u78fa\u9170\u6c2f", "en_name": ["Trifluoromethanesulfonyl chloride", "Methanesulfonyl chloride, trifluoro-", "Trifluoromethanesulfonyl chloride", "Trifluoromethylsulfonyl chloride", "Triflyl chloride", "Trifluoromethylsulfuryl chloride"], "SMILES": "C(S(Cl)(=O)=O)(F)(F)F", "physical_data": {"Molecular Weight": "168.52", "Molecular Formula": "CClF3O2S", "Boiling Point": "30.5 \u00b0C", "Melting Point": "-26 \u00b0C"}}