{"cas_no": "421-70-5", "cn_name": "1-\u6eb4-2-\u7898\u56db\u6c1f\u4e59\u70f7,", "en_name": ["1-Bromo-1,1,2,2-tetrafluoro-2-iodoethane", "Ethane, 1-bromo-1,1,2,2-tetrafluoro-2-iodo-", "1-Bromo-1,1,2,2-tetrafluoro-2-iodoethane", "2-Iodo-1-bromotetrafluoroethane", "1-Bromotetrafluoro-2-iodoethane", "1-Bromo-2-iodotetrafluoroethane", "1-Iodo-2-bromotetrafluoroethane", "1-Bromo-2-iodo-1,1,2,2-tetrafluoroethane", "1-Bromo-2-iodoperfluoroethane"], "SMILES": "C(C(F)(F)I)(Br)(F)F", "physical_data": {"Molecular Weight": "306.82", "Molecular Formula": "C2BrF4I", "Boiling Point": "80.5-81.0 \u00b0C"}}