{"cas_no": "421-53-4", "cn_name": "\u4e09\u6c1f\u4e59\u919b\u6c34\u5408\u7269", "en_name": ["2,2,2-Trifluoro-1,1-ethanediol", "1,1-Ethanediol, 2,2,2-trifluoro-", "Acetaldehyde, trifluoro-, hydrate", "Fluoral hydrate", "2,2,2-Trifluoro-1,1-ethanediol", "Trifluoroacetaldehyde hydrate", "2,2,2-Trifluoroacetaldehyde hydrate", "Trifluoroethanal hydrate", "NSC 146025"], "SMILES": "C(C(O)O)(F)(F)F", "physical_data": {"Molecular Weight": "116.04", "Molecular Formula": "C2H3F3O2", "Boiling Point": "105-106 \u00b0C", "Melting Point": "68-70 \u00b0C", "Density": "1.49 g/cm\u00b3"}}