{"cas_no": "421-06-7", "cn_name": "\u4e00\u6eb4\u4e09\u6c1f\u4e59\u70f7", "en_name": ["2-Bromo-1,1,1-trifluoroethane", "Ethane, 2-bromo-1,1,1-trifluoro-", "2-Bromo-1,1,1-trifluoroethane", "1-Bromo-2,2,2-trifluoroethane", "1,1,1-Trifluoro-2-bromoethane", "2,2,2-Trifluoroethyl bromide", "HBFC 133aB1", "2-Bromo-trifluoroethane"], "SMILES": "C(CBr)(F)(F)F", "physical_data": {"Molecular Weight": "162.94", "Molecular Formula": "C2H2BrF3", "Boiling Point": "26 \u00b0C", "Melting Point": "-93.9 \u00b0C", "Density": "1.8383 g/cm\u00b3 @ Temp: 17.5 \u00b0C"}}