{"cas_no": "421-20-5", "cn_name": "\u6c1f\u78fa\u9178\u7532\u916f", "en_name": ["Fluorosulfuric acid, methyl ester", "Fluorosulfuric acid, methyl ester", "Methyl fluorosulfate", "Methyl fluosulfonate", "Methyl fluorosulfonate", "Magic Methyl", "[(Fluorosulfonyl)oxy]methane"], "SMILES": "S(OC)(F)(=O)=O", "physical_data": {"Molecular Weight": "114.10", "Molecular Formula": "CH3FO3S", "Boiling Point": "93 \u00b0C", "Melting Point": "-95 \u00b0C", "Density": "1.427 g/cm\u00b3 @ Temp: 16 \u00b0C"}}