{"cas_no": "421-90-9", "cn_name": "2,2,3-\u4e09\u6eb4-1,1,1-\u4e09\u6c1f\u4e19\u70f7", "en_name": ["2,2,3-Tribromo-1,1,1-trifluoropropane", "Propane, 2,2,3-tribromo-1,1,1-trifluoro-", "2,2,3-Tribromo-1,1,1-trifluoropropane"], "SMILES": "C(C(F)(F)F)(CBr)(Br)Br", "physical_data": {"Molecular Weight": "334.76", "Molecular Formula": "C3H2Br3F3", "Boiling Point": "79-81 \u00b0C @ Press: 46-47 Torr"}}