{"cas_no": "421-07-8", "cn_name": "1,1,1-\u4e09\u6c1f\u4e19\u70f7", "en_name": ["1,1,1-Trifluoropropane", "Propane, 1,1,1-trifluoro-", "1,1,1-Trifluoropropane", "R 263fb", "HFC 263fb"], "SMILES": "C(CC)(F)(F)F", "physical_data": {"Molecular Weight": "98.07", "Molecular Formula": "C3H5F3", "Boiling Point": "-13 \u00b0C", "Melting Point": "-148 \u00b0C"}}