{"cas_no": "421-85-2", "cn_name": "\u4e09\u6c1f\u7532\u78fa\u9170\u80fa", "en_name": ["1,1,1-Trifluoromethanesulfonamide", "Methanesulfonamide, 1,1,1-trifluoro-", "1,1,1-Trifluoromethanesulfonamide", "Trifluoromethanesulfonamide", "Trifluoromethylsulfonamide"], "SMILES": "C(S(N)(=O)=O)(F)(F)F", "physical_data": {"Molecular Weight": "149.09", "Molecular Formula": "CH2F3NO2S", "Melting Point": "117-119 \u00b0C"}}