{"cas_no": "421-49-8", "cn_name": "A-\u4e09\u6c1f\u7532\u57fa\u4e59\u80fa", "en_name": ["1,1,1-Trifluoro-2-propanamine", "2-Propanamine, 1,1,1-trifluoro-", "Ethylamine, 2,2,2-trifluoro-1-methyl-", "1,1,1-Trifluoro-2-propanamine", "2,2,2-Trifluoro-1-methylethylamine", "1,1,1-Trifluoroprop-2-ylamine", "1,1,1-Trifluoro-2-aminopropane", "2-Amino-1,1,1-trifluoropropane"], "SMILES": "C(C(C)N)(F)(F)F", "physical_data": {"Molecular Weight": "113.08", "Molecular Formula": "C3H6F3N", "Boiling Point": "46-47 \u00b0C"}}