{"cas_no": "4210-32-6", "cn_name": "4-\u53d4\u4e01\u57fa\u82c4\u8148", "en_name": ["4-(1,1-Dimethylethyl)benzonitrile", "Benzonitrile, 4-(1,1-dimethylethyl)-", "Benzonitrile, p-tert-butyl-", "4-(1,1-Dimethylethyl)benzonitrile", "p-tert-Butylbenzonitrile", "4-tert-Butylbenzonitrile", "1-Cyano-4-(tert-butyl)benzene"], "SMILES": "C(C)(C)(C)C1=CC=C(C#N)C=C1", "physical_data": {"Molecular Weight": "159.23", "Molecular Formula": "C11H13N", "Boiling Point": "126 \u00b0C @ Press: 14 Torr", "Melting Point": "12-14 \u00b0C", "Density": "0.9492 g/cm\u00b3 @ Temp: 20 \u00b0C"}}