{"cas_no": "42116-76-7", "cn_name": "\u5361\u785d\u5511", "en_name": ["Carnidazole", "Carbamothioic acid, N-[2-(2-methyl-5-nitro-1H-imidazol-1-yl)ethyl]-, O-methyl ester", "Carbamothioic acid, [2-(2-methyl-5-nitro-1H-imidazol-1-yl)ethyl]-, O-methyl ester", "Carnidazole", "Me 108", "R 25831", "Spartrix", "NSC 293873"], "SMILES": "C(CNC(OC)=S)N1C(N(=O)=O)=CN=C1C", "physical_data": {"Molecular Weight": "244.27", "Molecular Formula": "C8H12N4O3S", "Melting Point": "142.4 \u00b0C (decomp)"}}