{"cas_no": "4212-49-1", "cn_name": "5-\u4e59\u57fa\u5c3f\u5627\u5576", "en_name": ["5-Ethyl-2,4(1H,3H)-pyrimidinedione", "2,4(1H,3H)-Pyrimidinedione, 5-ethyl-", "Uracil, 5-ethyl-", "5-Ethyl-2,4(1H,3H)-pyrimidinedione", "5-Ethyluracil"], "SMILES": "C(C)C=1C(=O)NC(=O)NC1", "physical_data": {"Molecular Weight": "140.14", "Molecular Formula": "C6H8N2O2", "Melting Point": "303 \u00b0C"}}