{"cas_no": "4213-45-0", "cn_name": "\u6c2e\u82a5\u55b9\u4e2b\u56e0", "en_name": ["Quinacrine mustard", "1,4-Pentanediamine, N1,N1-bis(2-chloroethyl)-N4-(6-chloro-2-methoxy-9-acridinyl)-, hydrochloride (1:2)", "Acridine, 9-[[4-[bis(2-chloroethyl)amino]-1-methylbutyl]amino]-6-chloro-2-methoxy-, dihydrochloride", "1,4-Pentanediamine, N1,N1-bis(2-chloroethyl)-N4-(6-chloro-2-methoxy-9-acridinyl)-, dihydrochloride", "2-Methoxy-6-chloro-9-[4-bis[2-chloroethyl]amino-1-methylbutyl amino)acridine dihydrochloride", "Quinacrine mustard", "Quinacrine mustard dihydrochloride", "ICR 10", "NSC 3424"], "SMILES": "N(C(CCCN(CCCl)CCCl)C)C=1C2=C(N=C3C1C=CC(Cl)=C3)C=CC(OC)=C2.Cl", "physical_data": {"Molecular Weight": "", "Molecular Formula": "C23H28Cl3N3O.2ClH", "Melting Point": "110 \u00b0C (decomp)"}}