{"cas_no": "42137-88-2", "cn_name": "N,N-\u53cc-2-\u6c2f\u4e59\u57fa\u5bf9\u7532\u82ef\u78fa\u9178\u80fa", "en_name": ["N,N-Bis(2-chloroethyl)-4-methylbenzenesulfonamide", "Benzenesulfonamide, N,N-bis(2-chloroethyl)-4-methyl-", "p-Toluenesulfonamide, N,N-bis(2-chloroethyl)-", "N,N-Bis(2-chloroethyl)-4-methylbenzenesulfonamide", "N,N-Bis(2-chloroethyl)-p-toluenesulfonamide", "NSC 49364", "N,N-Bis(2-chloroethyl)-4-methylbenzensulfonamide"], "SMILES": "S(N(CCCl)CCCl)(=O)(=O)C1=CC=C(C)C=C1", "physical_data": {"Molecular Weight": "296.21", "Molecular Formula": "C11H15Cl2NO2S", "Melting Point": "47 \u00b0C"}}