{"cas_no": "42137-24-6", "cn_name": "2-\u785d\u57fa\u567b\u5429-4-\u8148", "en_name": ["4-Nitro-2-thiophenecarbonitrile", "2-Thiophenecarbonitrile, 4-nitro-", "4-Nitro-2-thiophenecarbonitrile", "5-Cyano-3-nitrothiophene", "2-Cyano-4-nitrothiophene", "4-Nitro-2-cyanothiophene"], "SMILES": "N(=O)(=O)C=1C=C(C#N)SC1", "physical_data": {"Molecular Weight": "154.15", "Molecular Formula": "C5H2N2O2S", "Melting Point": "102 \u00b0C"}}