{"cas_no": "42135-75-1", "cn_name": "4-2-\u6c2f\u82ef\u57fa-3-\u80fa\u57fa\u786b\u8132", "en_name": ["N-(2-Chlorophenyl)hydrazinecarbothioamide", "Hydrazinecarbothioamide, N-(2-chlorophenyl)-", "Semicarbazide, 4-(o-chlorophenyl)-3-thio-", "N-(2-Chlorophenyl)hydrazinecarbothioamide", "4-(o-Chlorophenyl)-3-thiosemicarbazide", "4-(2-Chlorophenyl)thiosemicarbazide", "4-(o-Chlorophenyl)thiosemicarbazide", "4-(2-Chlorophenyl)-3-thiosemicarbazide", "1-Amino-3-(2-chlorophenyl)thiourea", "3-Amino-1-(2-chlorophenyl)thiourea"], "SMILES": "N(C(NN)=S)C1=C(Cl)C=CC=C1", "physical_data": {"Molecular Weight": "201.68", "Molecular Formula": "C7H8ClN3S", "Melting Point": "130-131 \u00b0C"}}