{"cas_no": "4214-75-9", "cn_name": "2-\u6c28\u57fa-3-\u785d\u57fa\u5421\u5576", "en_name": ["2-Amino-3-nitropyridine", "2-Pyridinamine, 3-nitro-", "Pyridine, 2-amino-3-nitro-", "3-Nitro-2-pyridinamine", "2-Amino-3-nitropyridine", "3-Nitro-2-aminopyridine", "NSC 12460"], "SMILES": "N(=O)(=O)C1=C(N)N=CC=C1", "physical_data": {"Molecular Weight": "139.11", "Molecular Formula": "C5H5N3O2", "Melting Point": "162 \u00b0C"}}