{"cas_no": "42142-52-9", "cn_name": "\u7532\u80fa\u82ef\u4e19\u9187", "en_name": ["3-(Methylamino)-1-phenyl-1-propanol", "Benzenemethanol, \u03b1-[2-(methylamino)ethyl]-", "Benzyl alcohol, \u03b1-[2-(methylamino)ethyl]-", "\u03b1-[2-(Methylamino)ethyl]benzenemethanol", "N-Methyl-3-phenyl-3-hydroxypropylamine", "3-Methylamino-1-phenylpropanol", "3-Hydroxy-N-methyl-3-phenylpropylamine", "(\u00b1)-N-Methyl-3-hydroxy-3-phenylpropylamine", "3-(Methylamino)-1-phenyl-1-propanol", "N-Methyl-3-hydroxy-3-phenylpropylamine", "Methyl(3-hydroxy-3-phenylpropyl)amine", "N-(3-Hydroxy-3-phenylpropyl)-N-methylamine", "N-Methyl-N-(3-hydroxy-3-phenylpropyl)amine", "N-(3-Hydroxy-3-phenylpropyl)methylamine", "3-N-Methylamino-1-phenyl-1-propanol"], "SMILES": "C(CCNC)(O)C1=CC=CC=C1", "physical_data": {"Molecular Weight": "165.23", "Molecular Formula": "C10H15NO", "Boiling Point": "109 \u00b0C @ Press: 2 Torr"}}