{"cas_no": "4214-74-8", "cn_name": "2-\u6c28\u57fa-3,5\u4e8c\u6c2f\u5421\u5576", "en_name": ["2-Amino-3,5-dichloropyridine", "2-Pyridinamine, 3,5-dichloro-", "Pyridine, 2-amino-3,5-dichloro-", "3,5-Dichloro-2-pyridinamine", "3,5-Dichloro-2-aminopyridine", "2-Amino-3,5-dichloropyridine", "NSC 51586", "3,5-Dichloropyridin-2-ylamine"], "SMILES": "ClC1=C(N)N=CC(Cl)=C1", "physical_data": {"Molecular Weight": "163.00", "Molecular Formula": "C5H4Cl2N2", "Melting Point": "85-86 \u00b0C"}}