{"cas_no": "42149-74-6", "cn_name": "2-\u4e19\u6c27\u57fa\u6c2f\u4e59\u70f7", "en_name": ["1-(2-Chloroethoxy)propane", "Propane, 1-(2-chloroethoxy)-", "Ether, 2-chloroethyl propyl", "1-(2-Chloroethoxy)propane", "2-Chloroethyl propyl ether"], "SMILES": "O(CCC)CCCl", "physical_data": {"Molecular Weight": "122.59", "Molecular Formula": "C5H11ClO", "Boiling Point": "47.5 \u00b0C @ Press: 40 Torr", "Density": "0.9322 g/cm\u00b3 @ Temp: 20 \u00b0C"}}