{"cas_no": "4214-28-2", "cn_name": "2,4-\u4e8c\u7532\u57fa-1-\u7898\u82ef", "en_name": ["1-Iodo-2,4-dimethylbenzene", "Benzene, 1-iodo-2,4-dimethyl-", "m-Xylene, 4-iodo-", "1-Iodo-2,4-dimethylbenzene", "2,4-Dimethyliodobenzene", "1,3-Dimethyl-4-iodobenzene", "4-Iodo-1,3-dimethylbenzene", "4-Iodo-m-xylene", "NSC 3780", "2,4-Dimethylphenyl iodide"], "SMILES": "CC1=C(I)C=CC(C)=C1", "physical_data": {"Molecular Weight": "232.06", "Molecular Formula": "C8H9I", "Boiling Point": "227-229 \u00b0C", "Melting Point": "70-80 \u00b0C"}}