{"cas_no": "4214-76-0", "cn_name": "2-\u6c28\u57fa-5-\u785d\u57fa\u5421\u5576", "en_name": ["2-Amino-5-nitropyridine", "2-Pyridinamine, 5-nitro-", "Pyridine, 2-amino-5-nitro-", "5-Nitro-2-pyridinamine", "2-Amino-5-nitropyridine", "5-Nitro-2-aminopyridine", "5-Nitropyridin-2-ylamine", "NSC 23774"], "SMILES": "N(=O)(=O)C=1C=CC(N)=NC1", "physical_data": {"Molecular Weight": "139.11", "Molecular Formula": "C5H5N3O2", "Melting Point": "186-188 \u00b0C"}}