{"cas_no": "42142-17-6", "cn_name": "1-(\u90bb\u7532\u82ef\u57fa)\u4e59\u80fa", "en_name": ["\u03b1,2-Dimethylbenzenemethanamine", "Benzenemethanamine, \u03b1,2-dimethyl-", "\u03b1,2-Dimethylbenzenemethanamine", "o-Methyl-\u03b1-phenylethylamine", "o-Methyl-\u03b1-phenethylamine", "(\u00b1)-o-Methyl-\u03b1-phenylethylamine", "1-(o-Methylphenyl)ethylamine", "1-o-Tolylethylamine", "1-(2-Methylphenyl)-1-ethanamine", "1-(2-Methylphenyl)ethanamine"], "SMILES": "C(C)(N)C1=C(C)C=CC=C1", "physical_data": {"Molecular Weight": "135.21", "Molecular Formula": "C9H13N", "Boiling Point": "55-57 \u00b0C @ Press: 1 Torr", "Density": "0.9736 g/cm\u00b3 @ Temp: 20 \u00b0C"}}