{"cas_no": "4214-73-7", "cn_name": "2-\u6c28\u57fa-5-\u6c30\u57fa\u5421\u5576", "en_name": ["2-Amino-5-cyanopyridine", "3-Pyridinecarbonitrile, 6-amino-", "Nicotinonitrile, 6-amino-", "6-Amino-3-pyridinecarbonitrile", "6-Aminonicotinonitrile", "2-Amino-5-cyanopyridine", "2-Amino-5-pyridinecarbonitrile", "6-Aminopyridine-3-carbonitrile", "5-Cyano-2-aminopyridine", "5-Cyanopyridin-2-amine"], "SMILES": "C(#N)C=1C=CC(N)=NC1", "physical_data": {"Molecular Weight": "119.12", "Molecular Formula": "C6H5N3", "Boiling Point": "240-250 \u00b0C @ Press: 15 Torr", "Melting Point": "163-164 \u00b0C"}}