{"cas_no": "4214-79-3", "cn_name": "5-\u6c2f-2-\u5421\u5576\u9187", "en_name": ["5-Chloro-2(1H)-pyridinone", "2(1H)-Pyridinone, 5-chloro-", "2(1H)-Pyridone, 5-chloro-", "2-Pyridinol, 5-chloro-", "5-Chloro-2(1H)-pyridinone", "5-Chloro-2-pyridone", "5-Chloro-2-pyridinol", "5-Chloro-2-hydroxypyridine", "5-Chloro-2(1H)-pyridone", "5-Chloro-1H-2-pyridinone", "2-Hydroxy-5-chloropyridine", "5-Chloro-1,2-dihydropyridin-2-one", "3-Chloro-6-hydroxypyridine"], "SMILES": "ClC=1C=CC(=O)NC1", "physical_data": {"Molecular Weight": "129.54", "Molecular Formula": "C5H4ClNO", "Melting Point": "163 \u00b0C"}}