{"cas_no": "4215-80-9", "cn_name": "\u4e09\u82ef\u7532\u7845\u70f7\u57fa", "en_name": ["1,1,1-Triphenylsilanamine", "Silanamine, 1,1,1-triphenyl-", "Silylamine, 1,1,1-triphenyl-", "1,1,1-Triphenylsilanamine", "(Triphenylsilyl)amine", "Aminotriphenylsilane", "[Amino(diphenyl)silyl]benzene", "1,1,1-Triphenylsilylamine"], "SMILES": "[Si](N)(C1=CC=CC=C1)(C2=CC=CC=C2)C3=CC=CC=C3", "physical_data": {"Molecular Weight": "275.42", "Molecular Formula": "C18H17NSi", "Boiling Point": "187-200 \u00b0C @ Press: 2 Torr", "Melting Point": "60-62 \u00b0C"}}