{"cas_no": "4216-02-8", "cn_name": "\u8fd8\u539f\u7ea2 15", "en_name": ["Pigment Red 194", "Bisbenzimidazo[2,1-b:1\u2032,2\u2032-j]benzo[lmn][3,8]phenanthroline-6,9-dione", "C.I. 71100", "Algol Bordeaux RR", "Algol Bordeaux RRP", "C.I. Vat Red 15", "Fenalac Bordeaux VRR Powder", "Fenanthren Bordeaux RR", "Helio Fast Bordeaux RR Toner 39-6001", "Hostavat Bordeaux RR", "Indanthren Bordeaux HRR", "Indanthren Bordeaux RR", "Mikethren Bordeaux RR", "Paradone Bordeaux RR", "Perinone Red", "cis-Perinone", "Indanthrene Bordeaux RR", "Permanent Red TG 01", "Vat Dye 15", "C.I. Pigment Red 194", "Pigment Bordeaux Anthraquinone", "Vat Scarlet IIZh", "Novoperm Red TG 02", "Novoperm Red TGO 2HF4B", "Pigment Red 194", "Vat Red 2R", "Vat Red 15", "Vat Bordeaux 2R"], "SMILES": "O=C1C=2C3=C4C(C=5N(C(=O)C4=CC2)C=6C(N5)=CC=CC6)=CC=C3C=7N1C=8C(N7)=CC=CC8", "physical_data": {"Molecular Weight": "412.40", "Molecular Formula": "C26H12N4O2", "Melting Point": "490-492 \u00b0C"}}