{"cas_no": "4216-96-0", "cn_name": "(R)-2-\u7f9f\u57fa-3-\u7532\u57fa\u4e01\u9178\u53d4\u4e01\u916f", "en_name": ["1,1-Dimethylethyl (2R)-2-hydroxy-3-methylbutanoate", "Butanoic acid, 2-hydroxy-3-methyl-, 1,1-dimethylethyl ester, (2R)-", "Butyric acid, 2-hydroxy-3-methyl-, tert-butyl ester, D-", "Butanoic acid, 2-hydroxy-3-methyl-, 1,1-dimethylethyl ester, (R)-", "1,1-Dimethylethyl (2R)-2-hydroxy-3-methylbutanoate", "D-\u03b1-Hydroxyisovaleric acid tert-butyl ester", "tert-Butyl D-2-hydroxyisovalerate", "tert-Butyl (R)-2-hydroxy-3-methylbutyrate", "(R)-tert-Butyl 2-hydroxy-3-methylbutanoate"], "SMILES": "C(C(C(C)C)O)(OC(C)(C)C)=O", "physical_data": {"Molecular Weight": "174.24", "Molecular Formula": "C9H18O3", "Boiling Point": "42-43 \u00b0C @ Press: 0.5 Torr", "Melting Point": "28-30 \u00b0C"}}