{"cas_no": "42185-03-5", "cn_name": "2-N-\u4e19\u6c27\u57fa\u4e59\u80fa", "en_name": ["2-Propoxyethylamine", "Ethanamine, 2-propoxy-", "Ethylamine, 2-propoxy-", "2-Propoxyethanamine", "2-Propoxyethylamine", "[2-(Propyloxy)ethyl]amine", "2-Propoxyethan-1-amine"], "SMILES": "O(CCC)CCN", "physical_data": {"Molecular Weight": "103.16", "Molecular Formula": "C5H13NO", "Boiling Point": "125-126 \u00b0C @ Press: 750 Torr"}}