{"cas_no": "42182-65-0", "cn_name": "2-\u82ef\u5e76\u567b\u5511\u7532\u80fa", "en_name": ["2-Benzothiazolemethanamine", "2-Benzothiazolemethanamine", "Benzothiazole, 2-(aminomethyl)-", "2-(Aminomethyl)benzothiazole", "NSC 509752", "(1,3-Benzothiazol-2-yl)methanamine", "1,3-Benzothiazol-2-ylmethanamine"], "SMILES": "C(N)C1=NC=2C(S1)=CC=CC2", "physical_data": {"Molecular Weight": "164.23", "Molecular Formula": "C8H8N2S", "Boiling Point": "156-157 \u00b0C @ Press: 10 Torr", "Melting Point": "51 \u00b0C"}}