{"cas_no": "4218-81-9", "cn_name": "L-\u6297\u574f\u8840\u9178-2,6-\u4e8c\u68d5\u6988\u9178\u916f", "en_name": ["Ascorbic acid, 2,6-dipalmitate", "L-Ascorbic acid, 2,6-dihexadecanoate", "L-Ascorbic acid, 2,6-dipalmitate", "Ascorbic acid, 2,6-dipalmitate", "Palmitic acid, 2,6-diester with L-ascorbic acid", "2,6-O-Dipalmitoylascorbic acid", "Ascorbyl 2,6-dipalmitate", "2,6-Di-O-palmitoyl-L-ascorbic acid", "L-(+)-Ascorbic acid 2,6-dihexadecanoate"], "SMILES": "C(COC(CCCCCCCCCCCCCCC)=O)(O)C1C(O)=C(OC(CCCCCCCCCCCCCCC)=O)C(=O)O1", "physical_data": {"Molecular Weight": "652.94", "Molecular Formula": "C38H68O8", "Melting Point": "114-115 \u00b0C"}}