{"cas_no": "4219-24-3", "cn_name": "\u987a\u5f0f-3-\u5df1\u70ef\u9178", "en_name": ["3-Hexenoic acid", "3-Hexenoic acid", "Hydrosorbic acid", "\u03943-Hexenoic acid", "NSC 26715"], "SMILES": "C(C=CCC)C(O)=O", "physical_data": {"Molecular Weight": "114.14", "Molecular Formula": "C6H10O2", "Boiling Point": "208 \u00b0C", "Melting Point": "12 \u00b0C", "Density": "0.9626 g/cm\u00b3 @ Temp: 14 \u00b0C"}}