{"cas_no": "422-61-7", "cn_name": "\u4e94\u6c1f\u4e19\u9170\u6c1f", "en_name": ["2,2,3,3,3-Pentafluoropropanoyl fluoride", "Propanoyl fluoride, 2,2,3,3,3-pentafluoro-", "Propionyl fluoride, pentafluoro-", "Propanoyl fluoride, pentafluoro-", "2,2,3,3,3-Pentafluoropropanoyl fluoride", "Pentafluoropropionyl fluoride", "Perfluoropropionyl fluoride", "Pentafluoropropanoyl fluoride", "Perfluoropropanoyl fluoride"], "SMILES": "C(C(F)(F)F)(C(F)=O)(F)F", "physical_data": {"Molecular Weight": "166.02", "Molecular Formula": "C3F6O", "Boiling Point": "-28-23 \u00b0C"}}