{"cas_no": "422-59-3", "cn_name": "\u4e94\u6c1f\u4e19\u9170\u6c2f", "en_name": ["2,2,3,3,3-Pentafluoropropanoyl chloride", "Propanoyl chloride, 2,2,3,3,3-pentafluoro-", "Propionyl chloride, pentafluoro-", "Propanoyl chloride, pentafluoro-", "2,2,3,3,3-Pentafluoropropanoyl chloride", "Pentafluoropropionyl chloride", "Perfluoropropionyl chloride", "Perfluoropropionic chloride"], "SMILES": "C(C(F)(F)F)(C(Cl)=O)(F)F", "physical_data": {"Molecular Weight": "182.48", "Molecular Formula": "C3ClF5O", "Boiling Point": "9.5 \u00b0C @ Press: 760 Torr"}}