{"cas_no": "422-85-5", "cn_name": "\u4e03\u6c1f\u4e19\u57fa\u6eb4", "en_name": ["1-Bromo-1,1,2,2,3,3,3-heptafluoropropane", "Propane, 1-bromo-1,1,2,2,3,3,3-heptafluoro-", "Propane, 1-bromoheptafluoro-", "1-Bromo-1,1,2,2,3,3,3-heptafluoropropane", "1-Bromoperfluoropropane", "Heptafluoropropyl bromide", "1-Bromoheptafluoropropane", "Perfluoropropyl bromide", "R 217caB1"], "SMILES": "C(C(Br)(F)F)(C(F)(F)F)(F)F", "physical_data": {"Molecular Weight": "248.92", "Molecular Formula": "C3BrF7", "Boiling Point": "11-12 \u00b0C"}}