{"cas_no": "422-77-5", "cn_name": "2-\u6eb4\u4e03\u6c1f\u4e19\u70f7", "en_name": ["2-Bromo-1,1,1,2,3,3,3-heptafluoropropane", "Propane, 2-bromo-1,1,1,2,3,3,3-heptafluoro-", "Propane, 2-bromoheptafluoro-", "2-Bromo-1,1,1,2,3,3,3-heptafluoropropane", "Perfluoroisopropyl bromide", "Heptafluoroisopropyl bromide", "2-Bromoheptafluoropropane"], "SMILES": "C(C(F)(F)F)(C(F)(F)F)(Br)F", "physical_data": {"Molecular Weight": "248.92", "Molecular Formula": "C3BrF7", "Boiling Point": "15-16 \u00b0C"}}