{"cas_no": "422-64-0", "cn_name": "\u4e94\u6c1f\u4e19\u9178", "en_name": ["Pentafluoropropionic acid", "Propanoic acid, 2,2,3,3,3-pentafluoro-", "Propionic acid, pentafluoro-", "Propanoic acid, pentafluoro-", "2,2,3,3,3-Pentafluoropropanoic acid", "Perfluoropropionic acid", "Pentafluoropropionic acid", "Pentafluoropropanoic acid", "Perfluoropropanoic acid", "2,2,3,3,3-Pentafluoropropionic acid"], "SMILES": "C(C(F)(F)F)(C(O)=O)(F)F", "physical_data": {"Molecular Weight": "164.03", "Molecular Formula": "C3HF5O2", "Boiling Point": "96.5 \u00b0C", "Density": "1.561 g/cm\u00b3 @ Temp: 20 \u00b0C"}}