{"cas_no": "422-05-9", "cn_name": "1H,1H-\u4e94\u6c1f\u4e19\u9187", "en_name": ["2,2,3,3,3-Pentafluoropropanol", "1-Propanol, 2,2,3,3,3-pentafluoro-", "2,2,3,3,3-Pentafluoro-1-propanol", "1,1-Dihydropentafluoropropanol", "2,2,3,3,3-Pentafluoropropanol", "1,1-Dihydroperfluoropropanol", "1H,1H-Perfluoropropanol", "3,3,3,2,2-Pentafluoropropan-1-ol", "NSC 66413", "P 0845", "1H,1H-Pentafluoro-1-propanol"], "SMILES": "C(C(F)(F)F)(CO)(F)F", "physical_data": {"Molecular Weight": "150.05", "Molecular Formula": "C3H3F5O", "Boiling Point": "82 \u00b0C", "Density": "1.505 g/cm\u00b3 @ Temp: 20 \u00b0C"}}