{"cas_no": "422-03-7", "cn_name": "2,2,3,3,3-\u4e94\u6c1f\u4e19\u80fa", "en_name": ["2,2,3,3,3-Pentafluoropropylamine", "1-Propanamine, 2,2,3,3,3-pentafluoro-", "Propylamine, 2,2,3,3,3-pentafluoro-", "2,2,3,3,3-Pentafluoro-1-propanamine", "2,2,3,3,3-Pentafluoropropylamine"], "SMILES": "C(C(F)(F)F)(CN)(F)F", "physical_data": {"Molecular Weight": "149.06", "Molecular Formula": "C3H4F5N", "Boiling Point": "49 \u00b0C", "Density": "1.400 g/cm\u00b3 @ Temp: 20 \u00b0C"}}