{"cas_no": "422-63-9", "cn_name": "\u4e94\u6c1f\u4e19\u919b\u6c34\u5408\u7269, TECH", "en_name": ["2,2,3,3,3-Pentafluoro-1,1-propanediol", "1,1-Propanediol, 2,2,3,3,3-pentafluoro-", "2,2,3,3,3-Pentafluoro-1,1-propanediol"], "SMILES": "C(C(F)(F)F)(C(O)O)(F)F", "physical_data": {"Molecular Weight": "166.05", "Molecular Formula": "C3H3F5O2", "Boiling Point": "92 \u00b0C @ Press: 732 Torr", "Melting Point": "52-53 \u00b0C"}}