{"cas_no": "42200-33-9", "cn_name": "\u82ef\u7532\u4e01\u6c2e\u916e", "en_name": ["Nadolol", "2,3-Naphthalenediol, 5-[3-[(1,1-dimethylethyl)amino]-2-hydroxypropoxy]-1,2,3,4-tetrahydro-", "5-[3-[(1,1-Dimethylethyl)amino]-2-hydroxypropoxy]-1,2,3,4-tetrahydro-2,3-naphthalenediol", "Nadolol", "SQ 11725", "Corgard", "Solgol", "Anabet", "MeSH ID: D009248"], "SMILES": "O(CC(CNC(C)(C)C)O)C1=C2C(CC(O)C(O)C2)=CC=C1", "physical_data": {"Molecular Weight": "309.40", "Molecular Formula": "C17H27NO4", "Melting Point": "124-136 \u00b0C"}}