{"cas_no": "4221-80-1", "cn_name": "3,5-\u4e8c\u53d4\u4e01\u57fa-4-\u7f9f\u57fa\u82ef\u7532\u9178-2,4-\u4e8c\u53d4\u4e01\u57fa\u82ef\u916f", "en_name": ["2,4-Di-tert-butylphenyl 3\u2032,5\u2032-di-tert-butyl-4\u2032-hydroxybenzoate", "Benzoic acid, 3,5-bis(1,1-dimethylethyl)-4-hydroxy-, 2,4-bis(1,1-dimethylethyl)phenyl ester", "Benzoic acid, 3,5-di-tert-butyl-4-hydroxy-, 2,4-di-tert-butylphenyl ester", "2,4-Di-tert-butylphenyl 3,5-di-tert-butyl-4-hydroxybenzoate", "2\u2032,4\u2032-Di-tert-butylphenyl 3,5-di-tert-butyl-4-hydroxybenzoate", "2,4-Di-tert-butylphenyl 4\u2032-hydroxy-3\u2032,5\u2032-di-tert-butylbenzoate", "Ferro Am 340", "UV-Chek AM 340", "Tinuvin 120", "AM 340", "Seesorb 712", "2,4-Di-tert-butylphenyl 3\u2032,5\u2032-di-tert-butyl-4\u2032-hydroxybenzoate", "Viosorb 80", "Sumisorb 400", "Cyasorb 712", "Ionox 901", "TN 120", "JLSun UV 120", "UV 120", "3,5-Bis(1,1-dimethylethyl)-4-hydroxybenzoic acid 2,4-bis(1,1-dimethylethyl)phenyl ester"], "SMILES": "O(C(=O)C1=CC(C(C)(C)C)=C(O)C(C(C)(C)C)=C1)C2=C(C(C)(C)C)C=C(C(C)(C)C)C=C2", "physical_data": {"Molecular Weight": "438.64", "Molecular Formula": "C29H42O3", "Melting Point": "191-192 \u00b0C"}}