{"cas_no": "42217-02-7", "cn_name": "1-\u6c2f\u4e8c\u5341\u4e00\u78b3\u70f7", "en_name": ["1-Chloroeicosane", "Eicosane, 1-chloro-", "1-Chloroeicosane", "1-Chloroicosane"], "SMILES": "C(CCCCCCCCCC)CCCCCCCCCCl", "physical_data": {"Molecular Weight": "316.99", "Molecular Formula": "C20H41Cl", "Boiling Point": "189 \u00b0C @ Press: 1.5 Torr"}}