{"cas_no": "4221-98-1", "cn_name": "\u6c34\u82b9\u70ef", "en_name": ["(-)-\u03b1-Phellandrene", "1,3-Cyclohexadiene, 2-methyl-5-(1-methylethyl)-, (5R)-", "p-Mentha-1,5-diene, (R)-(-)-", "1,3-Cyclohexadiene, 2-methyl-5-(1-methylethyl)-, (R)-", "p-Mentha-1,5-diene, (-)-", "(5R)-2-Methyl-5-(1-methylethyl)-1,3-cyclohexadiene", "(-)-\u03b1-Phellandrene", "l-\u03b1-Phellandrene", "\u03b1-Phellandrene, (-)-", "(-)-(R)-\u03b1-Phellandrene", "(R)-(-)-\u03b1-Phellandrene", "(R)-\u03b1-Phellandrene", "(R)-\u03b1-Phellandrene", "(5R)-2-Methyl-5-propan-2-ylcyclohexa-1,3-diene", "(R)-5-Isopropyl-2-methylcyclohexa-1,3-diene"], "SMILES": "C(C)(C)C1CC=C(C)C=C1", "physical_data": {"Molecular Weight": "136.23", "Molecular Formula": "C10H16", "Boiling Point": "173-175 \u00b0C", "Density": "0.8358 g/cm\u00b3 @ Temp: 20 \u00b0C"}}