{"cas_no": "4221-03-8", "cn_name": "5-\u7f9f\u57fa\u620a\u919b", "en_name": ["5-Hydroxypentanal", "Pentanal, 5-hydroxy-", "Valeraldehyde, 5-hydroxy-", "5-Hydroxypentanal", "5-Hydroxyvaleraldehyde", "5-Hydroxypentylaldehyde", "NSC 62080", "5-Hydroxy-1-pentanal"], "SMILES": "C(CCO)CC=O", "physical_data": {"Molecular Weight": "102.13", "Molecular Formula": "C5H10O2", "Boiling Point": "62-66 \u00b0C @ Press: 6-8 Torr", "Density": "1.053 g/cm\u00b3 @ Temp: 20 \u00b0C"}}