{"cas_no": "4221-99-2", "cn_name": "(S)-(+)-2-\u4e01\u9187", "en_name": ["(+)-2-Butanol", "2-Butanol, (2S)-", "sec-Butyl alcohol, (S)-(+)-", "2-Butanol, (S)-", "(S)-(+)-2-Butanol", "(+)-2-Butanol", "(S)-2-Butanol", "L-2-Butanol", "d-Butanol", "(S)-sec-Butanol", "(S)-sec-Butyl alcohol", "(2S)-2-Butanol", "(S)-(+)-sec-Butanol", "(1S)-1-Methylpropan-1-ol", "(S)-(-)-2-Butanol"], "SMILES": "C(CC)(C)O", "physical_data": {"Molecular Weight": "74.12", "Molecular Formula": "C4H10O", "Boiling Point": "97.5-98 \u00b0C @ Press: 745 Torr", "Density": "0.804 g/cm\u00b3"}}