{"cas_no": "4222-20-2", "cn_name": "3,3-\u4e8c\u82ef\u57fa-3H-\u8418\u5e76[2,1-b]\u5421\u5583", "en_name": ["3,3-Diphenyl-3H-naphtho[2,1-b]pyran", "3H-Naphtho[2,1-b]pyran, 3,3-diphenyl-", "3,3-Diphenyl-3H-naphtho[2,1-b]pyran", "2,2-Diphenyl-5,6-benzo(2H)chromene", "Variacrol Yellow L", "D 3197", "Photopia AQ Ink Yellow", "3,3-Diphenylbenzo[f]chromene"], "SMILES": "C1(OC=2C(C=C1)=C3C(=CC2)C=CC=C3)(C4=CC=CC=C4)C5=CC=CC=C5", "physical_data": {"Molecular Weight": "334.41", "Molecular Formula": "C25H18O", "Melting Point": "160-161 \u00b0C"}}