{"cas_no": "42228-92-2", "cn_name": "\u5f02\u6076\u5511\u918b\u9178", "en_name": ["Acivicin", "5-Isoxazoleacetic acid, \u03b1-amino-3-chloro-4,5-dihydro-, (\u03b1S,5S)-", "5-Isoxazoleacetic acid, \u03b1-amino-3-chloro-4,5-dihydro-, [S-(R*,R*)]-", "(\u03b1S,5S)-\u03b1-Amino-3-chloro-4,5-dihydro-5-isoxazoleacetic acid", "NSC 163501", "AT 125", "(\u03b1-S, 5S)-\u03b1-Amino-3-chloro-4,5-dihydro-5-isoxazoleacetic acid", "U 42126", "Antibiotic AT 125", "Acivicin"], "SMILES": "C(C(O)=O)(N)C1ON=C(Cl)C1", "physical_data": {"Molecular Weight": "178.57", "Molecular Formula": "C5H7ClN2O3", "Melting Point": "&gt;180 \u00b0C (decomp)"}}