{"cas_no": "4223-03-4", "cn_name": "N-\u53d4\u8f9b\u57fa\u4e19\u70ef\u9170\u80fa", "en_name": ["tert-Octylacrylamide", "2-Propenamide, N-(1,1,3,3-tetramethylbutyl)-", "Acrylamide, N-(1,1,3,3-tetramethylbutyl)-", "N-(1,1,3,3-Tetramethylbutyl)-2-propenamide", "N-(1,1,3,3-Tetramethylbutyl)acrylamide", "NSC 9035", "N-tert-Octylacrylamide", "tert-Octylacrylamide"], "SMILES": "C(C(NC(C=C)=O)(C)C)C(C)(C)C", "physical_data": {"Molecular Weight": "183.29", "Molecular Formula": "C11H21NO", "Melting Point": "83 \u00b0C"}}