{"cas_no": "4224-62-8", "cn_name": "6-\u6c2f\u5df1\u9178", "en_name": ["6-Chlorohexanoic acid", "Hexanoic acid, 6-chloro-", "6-Chlorohexanoic acid", "6-Chlorocaproic acid", "\u03b5-Chlorocaproic acid"], "SMILES": "C(CC(O)=O)CCCCl", "physical_data": {"Molecular Weight": "150.60", "Molecular Formula": "C6H11ClO2", "Boiling Point": "116-117 \u00b0C @ Press: 1.3 Torr", "Melting Point": "24-26 \u00b0C", "Density": "1.1320 g/cm\u00b3 @ Temp: 20 \u00b0C"}}