{"cas_no": "42245-42-1", "cn_name": "3-(4-\u7532\u6c27\u57fa\u82ef\u57fa)\u73af\u6c27\u4e59\u70f7-2-\u7532\u9178\u7532\u916f", "en_name": ["Methyl 3-(4-methoxyphenyl)-2-oxiranecarboxylate", "2-Oxiranecarboxylic acid, 3-(4-methoxyphenyl)-, methyl ester", "Oxiranecarboxylic acid, 3-(4-methoxyphenyl)-, methyl ester", "Glycidic acid, 3-(p-methoxyphenyl)-, methyl ester", "Methyl 3-(4-methoxyphenyl)-2-oxiranecarboxylate", "Methyl 3-(4-methoxyphenyl)glycidate", "Methyl 2,3-epoxy-3-(4-methoxyphenyl)propionate", "3-(4-Methoxyphenyl)oxirane-2-carboxylic acid methyl ester"], "SMILES": "C(OC)(=O)C1C(O1)C2=CC=C(OC)C=C2", "physical_data": {"Molecular Weight": "208.21", "Molecular Formula": "C11H12O4", "Boiling Point": "145 \u00b0C @ Press: 0.7 Torr", "Melting Point": "60-62 \u00b0C"}}