{"cas_no": "4224-70-8", "cn_name": "6-\u6eb4\u5df1\u9178", "en_name": ["6-Bromohexanoic acid", "Hexanoic acid, 6-bromo-", "6-Bromohexanoic acid", "\u03c9-Bromohexanoic acid", "6-Bromocaproic acid"], "SMILES": "C(CC(O)=O)CCCBr", "physical_data": {"Molecular Weight": "195.05", "Molecular Formula": "C6H11BrO2", "Boiling Point": "165-170 \u00b0C @ Press: 20 Torr", "Melting Point": "35 \u00b0C", "Density": "1.4157 g/cm\u00b3 @ Temp: 30 \u00b0C"}}