{"cas_no": "4224-69-5", "cn_name": "2-(\u6eb4\u7532\u57fa)\u4e19\u70ef\u9178\u7532\u916f", "en_name": ["Methyl 2-(bromomethyl)-2-propenoate", "2-Propenoic acid, 2-(bromomethyl)-, methyl ester", "Acrylic acid, 2-(bromomethyl)-, methyl ester", "Methyl 2-(bromomethyl)-2-propenoate", "Methyl \u03b1-(bromomethyl)acrylate", "Methyl 2-(bromomethyl)acrylate", "Methyl 2-(bromomethyl)propenoate", "2-(Bromomethyl)acrylic acid methyl ester", "Methyl 3-bromo-2-methylenepropanoate", "3-Bromo-2-(methylene)-1-oxo-1-methoxypropane", "3-Bromo-2-methylenepropionic acid methyl ester"], "SMILES": "C(C(OC)=O)(CBr)=C", "physical_data": {"Molecular Weight": "179.01", "Molecular Formula": "C5H7BrO2", "Boiling Point": "65 \u00b0C @ Press: 16 Torr"}}