{"cas_no": "4225-86-9", "cn_name": "2-\u6c2f-8-\u785d\u57fa\u55b9\u5549", "en_name": ["2-Chloro-8-nitroquinoline", "Quinoline, 2-chloro-8-nitro-", "2-Chloro-8-nitroquinoline", "NSC 263744"], "SMILES": "N(=O)(=O)C=1C2=C(C=CC(Cl)=N2)C=CC1", "physical_data": {"Molecular Weight": "208.60", "Molecular Formula": "C9H5ClN2O2", "Melting Point": "149 \u00b0C"}}