{"cas_no": "42252-34-6", "cn_name": "N-\u4e59\u57fa-N-\u7532\u57fa\u6c28\u57fa\u7532\u9170\u6c2f", "en_name": ["N-Ethyl-N-methylcarbamic chloride", "Carbamic chloride, N-ethyl-N-methyl-", "Carbamic chloride, ethylmethyl-", "N-Ethyl-N-methylcarbamic chloride", "N-Ethyl-N-methylcarbamoyl chloride", "N-Methyl-N-ethylcarbamyl chloride", "Ethylmethylcarbamoyl chloride", "Ethyl(methyl)carbamic chloride"], "SMILES": "N(C(Cl)=O)(CC)C", "physical_data": {"Molecular Weight": "121.57", "Molecular Formula": "C4H8ClNO", "Boiling Point": "88-89 \u00b0C @ Press: 40 Torr"}}