{"cas_no": "42267-27-6", "cn_name": "N-(4-(2,5-\u4e8c\u6c27\u4ee3-4-\u6076\u5511\u70f7\u57fa)\u4e01\u57fa)-2,2,2-\u4e09\u6c1f\u4e59\u9170\u80fa", "en_name": ["N-Trifluoroacetyl-L-lysine N-carboxyanhydride", "Acetamide, N-[4-[(4S)-2,5-dioxo-4-oxazolidinyl]butyl]-2,2,2-trifluoro-", "Acetamide, N-[4-(2,5-dioxo-4-oxazolidinyl)butyl]-2,2,2-trifluoro-, (S)-", "N-[4-[(4S)-2,5-Dioxo-4-oxazolidinyl]butyl]-2,2,2-trifluoroacetamide", "N-Trifluoroacetyl-L-lysine N-carboxyanhydride", "N\u03b5-Trifluoroacetyl-L-lysine N-carboxyanhydride"], "SMILES": "C(CCCNC(C(F)(F)F)=O)C1C(=O)OC(=O)N1", "physical_data": {"Molecular Weight": "268.19", "Molecular Formula": "C9H11F3N2O4", "Melting Point": "92-93 \u00b0C (decomp)"}}