{"cas_no": "42265-67-8", "cn_name": "4-\u53d4\u4e01\u57fa-2-\u6c2f\u82ef\u80fa", "en_name": ["2-Chloro-4-(1,1-dimethylethyl)benzenamine", "Benzenamine, 2-chloro-4-(1,1-dimethylethyl)-", "Aniline, 4-tert-butyl-2-chloro-", "2-Chloro-4-(1,1-dimethylethyl)benzenamine", "4-tert-Butyl-2-chlorobenzenamine", "(4-tert-Butyl-2-chlorophenyl)amine", "2-Chloro-4-(1,1-dimethylethyl)aniline", "4-tert-Butyl-2-chloroaniline"], "SMILES": "C(C)(C)(C)C1=CC(Cl)=C(N)C=C1", "physical_data": {"Molecular Weight": "183.68", "Molecular Formula": "C10H14ClN", "Boiling Point": "102-104 \u00b0C @ Press: 7 Torr"}}