{"cas_no": "42270-37-1", "cn_name": "1-(\u567b\u5511-2-\u57fa)\u54cc\u55ea", "en_name": ["1-(2-Thiazolyl)piperazine", "Piperazine, 1-(2-thiazolyl)-", "1-(2-Thiazolyl)piperazine", "4-(1,3-Thiazol-2-yl)piperazine", "2-(Piperazin-1-yl)thiazole", "2-Piperazin-1-yl-1,3-thiazole"], "SMILES": "C1(=NC=CS1)N2CCNCC2", "physical_data": {"Molecular Weight": "169.25", "Molecular Formula": "C7H11N3S", "Boiling Point": "120-125 \u00b0C @ Press: 2 Torr"}}