{"cas_no": "4228-66-4", "cn_name": "3,4-\u4e8c\u7f9f\u57fa\u82ef\u57fa\u4e19\u916e\u9178", "en_name": ["3,4-Dihydroxyphenylpyruvic acid", "Benzenepropanoic acid, 3,4-dihydroxy-\u03b1-oxo-", "Pyruvic acid, (3,4-dihydroxyphenyl)-", "3,4-Dihydroxy-\u03b1-oxobenzenepropanoic acid", "3,4-Dihydroxyphenylpyruvic acid", "3-(3,4-Dihydroxyphenyl)pyruvic acid"], "SMILES": "C(C(C(O)=O)=O)C1=CC(O)=C(O)C=C1", "physical_data": {"Molecular Weight": "196.16", "Molecular Formula": "C9H8O5", "Melting Point": "188-189 \u00b0C"}}