{"cas_no": "42287-90-1", "cn_name": "3-(3-\u6eb4\u82ef\u57fa)\u4e19\u9178", "en_name": ["3-(3-Bromophenyl)propionic acid", "Benzenepropanoic acid, 3-bromo-", "3-Bromobenzenepropanoic acid", "m-Bromohydrocinnamic acid", "3-(3-Bromophenyl)propanoic acid", "3-(3-Bromophenyl)propionic acid"], "SMILES": "C(CC(O)=O)C1=CC(Br)=CC=C1", "physical_data": {"Molecular Weight": "229.07", "Molecular Formula": "C9H9BrO2", "Melting Point": "74 \u00b0C"}}