{"cas_no": "4228-00-6", "cn_name": "PHENYL LAURATE", "en_name": ["Phenyl dodecanoate", "Dodecanoic acid, phenyl ester", "Lauric acid, phenyl ester", "Phenyl dodecanoate", "Phenyl laurate"], "SMILES": "O(C(CCCCCCCCCCC)=O)C1=CC=CC=C1", "physical_data": {"Molecular Weight": "276.41", "Molecular Formula": "C18H28O2", "Boiling Point": "192-195 \u00b0C @ Press: 4 Torr", "Melting Point": "24.5 \u00b0C", "Density": "0.9443 g/cm\u00b3 @ Temp: 20 \u00b0C"}}