{"cas_no": "42288-08-4", "cn_name": "3-\u7532\u57fa-3-(4-\u7532\u57fa\u82ef\u57fa)\u4e01\u9178", "en_name": ["\u03b2,\u03b2,4-Trimethylbenzenepropanoic acid", "Benzenepropanoic acid, \u03b2,\u03b2,4-trimethyl-", "Hydrocinnamic acid, p,\u03b2,\u03b2-trimethyl-", "\u03b2,\u03b2,4-Trimethylbenzenepropanoic acid", "3-Methyl-3-(4-methylphenyl)butanoic acid", "3-Methyl-3-(4-methylphenyl)butyric acid", "3-Methyl-3-p-tolylbutanoic acid", "3-Methyl-3-p-tolyl-butyric acid"], "SMILES": "C(CC(O)=O)(C)(C)C1=CC=C(C)C=C1", "physical_data": {"Molecular Weight": "192.25", "Molecular Formula": "C12H16O2", "Melting Point": "76.5-77 \u00b0C"}}