{"cas_no": "42287-87-6", "cn_name": "3-(3,5-\u4e8c\u7532\u57fa\u82ef\u57fa)\u4e19\u9178", "en_name": ["3,5-Dimethylbenzenepropanoic acid", "Benzenepropanoic acid, 3,5-dimethyl-", "3,5-Dimethylbenzenepropanoic acid", "3-(3,5-Xylyl)propionic acid", "3-(3,5-Dimethylphenyl)propionic acid"], "SMILES": "C(CC(O)=O)C1=CC(C)=CC(C)=C1", "physical_data": {"Molecular Weight": "178.23", "Molecular Formula": "C11H14O2", "Boiling Point": "168-178 \u00b0C @ Press: 13 Torr", "Melting Point": "45-46.5 \u00b0C"}}