{"cas_no": "42292-18-2", "cn_name": "3-\u6c28\u57fa\u4e19\u57fa\u4e8c(\u4e09\u7532\u57fa\u7845\u6c27\u57fa)\u7532\u57fa\u7845\u70f7", "en_name": ["3-[1,3,3,3-Tetramethyl-1-[(trimethylsilyl)oxy]-1-disiloxanyl]-1-propanamine", "1-Propanamine, 3-[1,3,3,3-tetramethyl-1-[(trimethylsilyl)oxy]-1-disiloxanyl]-", "1-Propanamine, 3-[1,3,3,3-tetramethyl-1-[(trimethylsilyl)oxy]disiloxanyl]-", "3-[1,3,3,3-Tetramethyl-1-[(trimethylsilyl)oxy]-1-disiloxanyl]-1-propanamine", "3-(3-Aminopropyl)heptamethyltrisiloxane", "3-Aminopropylbis(trimethylsiloxy)methylsilane", "3-[1,3,3,3-Tetramethyl-1-[(trimethylsilyloxy)disiloxanyl]propylamine", "3-Aminopropylmethylbis(trimethylsiloxy)silane", "3-(3-Aminopropyl)methylbis(trimethylsiloxy)silane", "SIA 0604.5", "3-[Bis(trimethylsilyloxy)(methyl)silyl]propan-1-amine"], "SMILES": "O([Si](O[Si](C)(C)C)(CCCN)C)[Si](C)(C)C", "physical_data": {"Molecular Weight": "279.60", "Molecular Formula": "C10H29NO2Si3", "Boiling Point": "75-78 \u00b0C @ Press: 0.75 Torr", "Density": "0.856 g/cm\u00b3"}}