{"cas_no": "4229-44-1", "cn_name": "N-\u7532\u57fa\u7f9f\u80fa\u76d0\u9178\u76d0", "en_name": ["N-Methylhydroxylamine hydrochloride", "Methanamine, N-hydroxy-, hydrochloride (1:1)", "Hydroxylamine, N-methyl-, hydrochloride", "Methanamine, N-hydroxy-, hydrochloride", "N-Methylhydroxylamine hydrochloride", "N-Methylhydroxylammonium chloride", "Methylhydroxylammonium chloride", "Methylhydroxylamine hydrochloride", "N-Hydroxymethanamine hydrochloride", "N-Hydroxy-N-methanamine hydrochloride", "N-Hydroxy-N-methylammonium chloride", "N-Hydroxymethylamine hydrochloride", "N-Methylhydroxylamine monohydrochloride", "N-Methylhydroxyamine hydrochloride"], "SMILES": "N(C)O.Cl", "physical_data": {"Molecular Weight": "", "Molecular Formula": "CH5NO.ClH", "Melting Point": "84.5-86.0 \u00b0C", "Density": "1.36 g/cm\u00b3"}}