{"cas_no": "4229-91-8", "cn_name": "2-\u6b63\u4e19\u57fa\u544b\u5583", "en_name": ["2-Propylfuran", "Furan, 2-propyl-", "2-Propylfuran", "\u03b1-Propylfuran", "NSC 35553"], "SMILES": "C(CC)C1=CC=CO1", "physical_data": {"Molecular Weight": "110.15", "Molecular Formula": "C7H10O", "Boiling Point": "115 \u00b0C", "Density": "0.882 g/cm\u00b3 @ Temp: 25 \u00b0C"}}