{"cas_no": "423-50-7", "cn_name": "\u5168\u6c1f\u5df1\u57fa\u78fa\u9170\u6c1f", "en_name": ["1,1,2,2,3,3,4,4,5,5,6,6,6-Tridecafluoro-1-hexanesulfonyl fluoride", "1-Hexanesulfonyl fluoride, 1,1,2,2,3,3,4,4,5,5,6,6,6-tridecafluoro-", "1-Hexanesulfonyl fluoride, tridecafluoro-", "1,1,2,2,3,3,4,4,5,5,6,6,6-Tridecafluoro-1-hexanesulfonyl fluoride", "Perfluorohexylsulfonyl fluoride", "Perfluorohexanesulfonyl fluoride", "Perfluoro-1-hexanesulfonyl fluoride", "Tridecafluorohexanesulfonyl fluoride", "1,1,2,2,3,3,4,4,5,5,6,6,6-Tridecafluorohexane-1-sulfonyl fluoride"], "SMILES": "C(C(C(C(F)(F)F)(F)F)(F)F)(C(C(S(F)(=O)=O)(F)F)(F)F)(F)F", "physical_data": {"Molecular Weight": "402.11", "Molecular Formula": "C6F14O2S", "Boiling Point": "114-115 \u00b0C"}}