{"cas_no": "423-54-1", "cn_name": "\u4e8c\u6c2f\u5f02\u6c30\u5c3f\u9178\u7eb3", "en_name": ["2,2,3,3,4,4,5,5,6,6,7,7,8,8,8-Pentadecafluorooctanamide", "Octanamide, 2,2,3,3,4,4,5,5,6,6,7,7,8,8,8-pentadecafluoro-", "2,2,3,3,4,4,5,5,6,6,7,7,8,8,8-Pentadecafluorooctanamide", "Perfluorocaprylamide", "Perfluorooctanamide", "Perfluorooctylamide", "Pentadecafluorooctanamide", "Perfluorooctanoic acid amide"], "SMILES": "C(C(C(C(C(N)=O)(F)F)(F)F)(F)F)(C(C(C(F)(F)F)(F)F)(F)F)(F)F", "physical_data": {"Molecular Weight": "413.08", "Molecular Formula": "C8H2F15NO", "Melting Point": "137 \u00b0C"}}