{"cas_no": "423-55-2", "cn_name": "\u5168\u6c1f\u6eb4\u8f9b\u70f7", "en_name": ["Perfluorooctyl bromide", "Octane, 1-bromo-1,1,2,2,3,3,4,4,5,5,6,6,7,7,8,8,8-heptadecafluoro-", "Octane, 1-bromoheptadecafluoro-", "1-Bromo-1,1,2,2,3,3,4,4,5,5,6,6,7,7,8,8,8-heptadecafluorooctane", "Perfluoroctyl bromide", "1-Bromoperfluorooctane", "Perfluorooctyl bromide", "Imagent", "PFOB", "Perflubron", "Imagent BP", "Oxygent", "Oxygent CA", "n-Perfluorooctyl bromide", "1-Bromoheptadecafluorooctane", "Oxygent HT", "Foralkyl Br 8", "AF 0104", "AFO 150", "FO 6167"], "SMILES": "C(C(C(C(C(F)(F)F)(F)F)(F)F)(F)F)(C(C(C(Br)(F)F)(F)F)(F)F)(F)F", "physical_data": {"Molecular Weight": "498.96", "Molecular Formula": "C8BrF17", "Boiling Point": "141 \u00b0C", "Melting Point": "&lt;25 \u00b0C", "Density": "1.93 g/cm\u00b3"}}