{"cas_no": "423-62-1", "cn_name": "1-\u7898\u5168\u6c1f\u7678\u70f7", "en_name": ["Perfluorodecyl iodide", "Decane, 1,1,1,2,2,3,3,4,4,5,5,6,6,7,7,8,8,9,9,10,10-heneicosafluoro-10-iodo-", "Decane, heneicosafluoro-1-iodo-", "1,1,1,2,2,3,3,4,4,5,5,6,6,7,7,8,8,9,9,10,10-Heneicosafluoro-10-iododecane", "Heneicosafluoro-1-iododecane", "Perfluorodecyl iodide", "1-Iodoperfluorodecane", "Perfluoro-1-iododecane", "1-Iodoheneicosafluorodecane", "1,1,1,2,2,3,3,4,4,5,5,6,6,7,7,8,8,9,9,10,10-Henicosafluoro-10-iododecane"], "SMILES": "C(C(C(C(C(C(F)(F)I)(F)F)(F)F)(F)F)(F)F)(C(C(C(C(F)(F)F)(F)F)(F)F)(F)F)(F)F", "physical_data": {"Molecular Weight": "645.98", "Molecular Formula": "C10F21I", "Boiling Point": "195 \u00b0C", "Melting Point": "65.5 \u00b0C"}}