{"cas_no": "423-39-2", "cn_name": "\u5168\u6c1f\u7898\u4ee3\u4e01\u70f7", "en_name": ["Perfluorobutyl iodide", "Butane, 1,1,1,2,2,3,3,4,4-nonafluoro-4-iodo-", "Butane, nonafluoro-1-iodo-", "1,1,1,2,2,3,3,4,4-Nonafluoro-4-iodobutane", "Perfluorobutyl iodide", "Nonafluorobutyl iodide", "1-Iodoperfluorobutane", "Nonafluoro-1-iodobutane", "1-Iodononafluorobutane", "Perfluoro-n-butyl iodide", "1,1,2,2,3,3,4,4,4-Nonafluoro-1-iodobutane", "4-Iodoperfluorobutane", "Nonafluoro-n-butyl iodide", "1-Iodo-1,1,2,2,3,3,4,4,4-nonafluorobutane", "1,1,2,2,3,3,4,4,4-Nonafluorobutyl iodide"], "SMILES": "C(C(C(F)(F)I)(F)F)(C(F)(F)F)(F)F", "physical_data": {"Molecular Weight": "345.93", "Molecular Formula": "C4F9I", "Boiling Point": "67 \u00b0C", "Melting Point": "-68 \u00b0C"}}