{"cas_no": "42302-17-0", "cn_name": "3-(\u4e8c\u7532\u57fa\u6c28\u57fa)-1-\u4e19\u786b\u9187", "en_name": ["3-(Dimethylamino)-1-propanethiol", "1-Propanethiol, 3-(dimethylamino)-", "3-(Dimethylamino)-1-propanethiol", "1-(Dimethylamino)-3-propanethiol", "3-(Dimethylamino)propanethiol"], "SMILES": "C(N(C)C)CCS", "physical_data": {"Molecular Weight": "119.23", "Molecular Formula": "C5H13NS", "Boiling Point": "40-41 \u00b0C @ Press: 12 Torr"}}