{"cas_no": "423165-13-3", "cn_name": "8-\u82c4\u57fa-3-\u5916\u578b-(5-\u5f02\u4e19\u57fa-3-\u7532\u57fa-4H-1,2,4-\u4e09\u5511-4-\u57fa)-8-\u6c2e\u6742\u53cc\u73af[3.2.1]\u8f9b\u70f7", "en_name": ["(3-exo)-3-[3-Methyl-5-(1-methylethyl)-4H-1,2,4-triazol-4-yl]-8-(phenylmethyl)-8-azabicyclo[3.2.1]octane", "8-Azabicyclo[3.2.1]octane, 3-[3-methyl-5-(1-methylethyl)-4H-1,2,4-triazol-4-yl]-8-(phenylmethyl)-, (3-exo)-", "(3-exo)-3-[3-Methyl-5-(1-methylethyl)-4H-1,2,4-triazol-4-yl]-8-(phenylmethyl)-8-azabicyclo[3.2.1]octane"], "SMILES": "C(C)(C)C=1N(C(C)=NN1)C2CC3N(CC4=CC=CC=C4)C(C2)CC3", "physical_data": {"Molecular Weight": "324.46", "Molecular Formula": "C20H28N4", "Melting Point": "148.9 \u00b0C"}}