{"cas_no": "4231-68-9", "cn_name": "1-\u82ef\u57fa-3-\u7f9f\u57fa-1,2,4-\u4e09\u5511", "en_name": ["1-Phenyl-3-hydroxy-1,2,4-triazole", "3H-1,2,4-Triazol-3-one, 1,2-dihydro-1-phenyl-", "\u03943-1,2,4-Triazolin-5-one, 2-phenyl-", "1H-1,2,4-Triazol-3-ol, 1-phenyl-", "1,2-Dihydro-1-phenyl-3H-1,2,4-triazol-3-one", "1-Phenyl-3-hydroxy-1,2,4-triazole", "1-Phenyl-1,2,4-triazol-3-ol", "1-Phenyl-1,2,4-triazole-3-ol", "3-Hydroxy-1-phenyl-1,2,4-triazole", "3-Hydroxy-1-phenyl-1H-1,2,4-triazole", "1-Phenyl-1H-1,2,4-triazol-3-ol", "2-Phenyl-1H-1,2,4-triazol-5-one", "3-Hydroxy-1-phenyl-1,2,4-1H-triazole"], "SMILES": "O=C1NN(C=N1)C2=CC=CC=C2", "physical_data": {"Molecular Weight": "161.16", "Molecular Formula": "C8H7N3O", "Melting Point": "281-282 \u00b0C"}}