{"cas_no": "4232-27-3", "cn_name": "2,4-\u4e8c\u785d\u57fa\u82ef\u916f", "en_name": ["Phenol, 2,4-dinitro-, 1-acetate", "Phenol, 2,4-dinitro-, 1-acetate", "Phenol, 2,4-dinitro-, acetate (ester)", "Phenol, 2,4-dinitro-, acetate", "2,4-Dinitrophenyl acetate", "NSC 99812"], "SMILES": "N(=O)(=O)C1=C(OC(C)=O)C=CC(N(=O)=O)=C1", "physical_data": {"Molecular Weight": "226.14", "Molecular Formula": "C8H6N2O6", "Melting Point": "72 \u00b0C"}}