{"cas_no": "4233-33-4", "cn_name": "4-\u82ef\u57fa-3H-1,2,4-\u4e09\u5511\u5549-3,5-\u4e8c\u916e", "en_name": ["4-Phenyl-1,2,4-triazoline-3,5-dione", "3H-1,2,4-Triazole-3,5(4H)-dione, 4-phenyl-", "\u03941-1,2,4-Triazoline-3,5-dione, 4-phenyl-", "4-Phenyl-3H-1,2,4-triazole-3,5(4H)-dione", "4-Phenyl-\u03941-1,2,4-triazoline-3,5-dione", "N-Phenylazodicarboxylic imide", "N-Phenyltriazolinedione", "N-Phenyl-1,3,4-triazoline-2,5-dione", "N-Phenylazodicarboximide", "4-Phenyldehydrourazole", "N-Phenyl-1,2,4-triazoline-3,5-dione", "4-Phenyltriazoline-3,5-dione", "4-Phenyl-4H-1,2,4-triazoline-3,5-dione", "N-Phenyltriazoline-3,5-dione", "4-Phenyl-1,2,4-triazolinedione", "PTAD", "4-Phenyl-3,5-dioxotriazole", "4-Phenyl-1,2,4-triazoline-3,5-dione", "N-Phenyl-1,3,5-triazoline-2,4-dione", "Azodicarboxylic acid N-phenylimide", "4-Phenyl-4H-[1,2,4]triazole-3,5-dione", "4-Phenyl-4,5-dihydro-3H-1,2,4-triazole-3,5-dione", "NSC 150362", "4-Phenyl-3H-1,2,4-triazoline-3,5-dione", "4-Phenyl-1,2,4-triazole-3,5-dione"], "SMILES": "O=C1N(C(=O)N=N1)C2=CC=CC=C2", "physical_data": {"Molecular Weight": "175.14", "Molecular Formula": "C8H5N3O2", "Melting Point": "168-175 \u00b0C"}}