{"cas_no": "42330-59-6", "cn_name": "2-\u6c2f-3-\u5421\u5576\u7532\u9187", "en_name": ["2-Chloro-3-pyridinemethanol", "3-Pyridinemethanol, 2-chloro-", "2-Chloro-3-pyridinemethanol", "2-Chloro-3-pyridylmethanol", "2-Chloro-3-hydroxymethylpyridine", "(2-Chloro-3-pyridinyl)methanol"], "SMILES": "C(O)C1=C(Cl)N=CC=C1", "physical_data": {"Molecular Weight": "143.57", "Molecular Formula": "C6H6ClNO", "Melting Point": "62-63 \u00b0C"}}