{"cas_no": "42346-68-9", "cn_name": "N-\u7532\u57fa\u5421\u5576-5-\u916e-3-\u7532\u9178", "en_name": ["1-Methyl-4-carboxy-2-pyrrolidone", "3-Pyrrolidinecarboxylic acid, 1-methyl-5-oxo-", "1-Methyl-5-oxo-3-pyrrolidinecarboxylic acid", "N-Methyl-2-pyrrolidone-4-carboxylic acid", "1-Methyl-4-carboxy-2-pyrrolidone", "1-Methyl-2-oxo-4-pyrrolidinecarboxylic acid"], "SMILES": "C(O)(=O)C1CC(=O)N(C)C1", "physical_data": {"Molecular Weight": "143.14", "Molecular Formula": "C6H9NO3", "Melting Point": "152 \u00b0C"}}