{"cas_no": "42348-86-7", "cn_name": "5-\u6c2f-1-\u831a\u916e", "en_name": ["5-Chloro-1-indanone", "1H-Inden-1-one, 5-chloro-2,3-dihydro-", "1-Indanone, 5-chloro-", "5-Chloro-2,3-dihydro-1H-inden-1-one", "5-Chloro-1-indanone", "5-Chloro-2,3-dihydroinden-1-one"], "SMILES": "O=C1C=2C(CC1)=CC(Cl)=CC2", "physical_data": {"Molecular Weight": "166.60", "Molecular Formula": "C9H7ClO", "Boiling Point": "150 \u00b0C @ Press: 0.2 Torr", "Melting Point": "96-97 \u00b0C"}}