{"cas_no": "4235-95-4", "cn_name": "1,2-\u4e8c\u6cb9\u9170\u57fa\u5375\u78f7\u8102", "en_name": ["1,2-Dioleoyl-sn-glycero-3-phosphocholine", "3,5,9-Trioxa-4-phosphaheptacos-18-en-1-aminium, 4-hydroxy-N,N,N-trimethyl-10-oxo-7-[[(9Z)-1-oxo-9-octadecen-1-yl]oxy]-, inner salt, 4-oxide, (7R,18Z)-", "Choline, hydroxide, dihydrogen phosphate, inner salt, ester with L-1,2-diolein", "3,5,9-Trioxa-4-phosphaheptacos-18-en-1-aminium, 4-hydroxy-N,N,N-trimethyl-10-oxo-7-[(1-oxo-9-octadecenyl)oxy]-, hydroxide, inner salt, 4-oxide, [R-(Z,Z)]-", "Choline phosphate, 3-ester with L-1,2-diolein", "3,5,9-Trioxa-4-phosphaheptacos-18-en-1-aminium, 4-hydroxy-N,N,N-trimethyl-10-oxo-7-[[(9Z)-1-oxo-9-octadecenyl]oxy]-, inner salt, 4-oxide, (7R,18Z)-", "Olein, 1,2-di-, L-, dihydrogen phosphate, monoester with choline hydroxide", "Dioleoyl L-\u03b1-lecithin", "1,2-Dioleyl-L-lecithin", "Dioleoyllecithin", "Dioleoyl-L-\u03b1-phosphatidylcholine", "L-Dioleoylphosphatidylcholine", "Dioleoyl-L-\u03b1-glycerophosphorylcholine", "1,2-Dioleoyl-sn-glycero-3-phosphorylcholine", "L-\u03b1-Di(cis-9-octadecanoyl) lecithin", "1,2-Dioleoylphosphatidylcholine", "L-Dioleoyl lecithin", "1,2-Dioleoyl-L-\u03b1-lecithin", "sn-3-Dioleoyllecithin", "1,2-Dioleoyl-sn-glycero-3-phosphorylcholine", "1,2-Dioleoyl-sn-phosphatidylcholine", "L-\u03b1-Dioleoyllecithin", "Dioleoyl-3-sn-phosphatidylcholine", "Dioleoyl-L-\u03b1-glycerophosphocholine", "L-\u03b1-Dioleoyl phosphatidylcholine", "DOPC", "L-\u03b1-Dioleylphosphatidylcholine", "3,5,9-Trioxa-4-phosphaheptacos-18-en-1-aminium, 4-hydroxy-N,N,N-trimethyl-10-oxo-7-[(1-oxo-9-octadecenyl)oxy]-, inner salt, 4-oxide, [R-(Z,Z)]-", "1,2-Dioleoyl-sn-glycero-3-phosphocholine", "Dioleoylphosphatidylcholine", "PDD 111", "1,2-Dioleoyl-3-sn-phosphatidylcholine", "1,2-Di-(9Z-octadecenoyl)-sn-glycero-3-phosphocholine", "51: PN: WO2017201317 SEQID: 124 claimed DNA", "1,2-Di-(9Z-octadecenoyl)-sn-glycero-3-phosphocholine", "1,2-Dioleoyl-sn-glycero-3-phosphochline", "Coatsome MC 8181"], "SMILES": "C(OC(CCCCCCCC=CCCCCCCCC)=O)(COP(OCC[N+](C)(C)C)(=O)[O-])COC(CCCCCCCC=CCCCCCCCC)=O", "physical_data": {"Molecular Weight": "", "Molecular Formula": "C44H84NO8P", "Melting Point": "-21 \u00b0C"}}