{"cas_no": "4237-40-5", "cn_name": "1-\u4ef2\u4e01\u57fa-4-\u785d\u57fa\u82ef", "en_name": ["1-(1-Methylpropyl)-4-nitrobenzene", "Benzene, 1-(1-methylpropyl)-4-nitro-", "Benzene, 1-sec-butyl-4-nitro-", "1-(1-Methylpropyl)-4-nitrobenzene", "2-(p-Nitrophenyl)butane", "4-sec-Butyl-1-nitrobenzene", "1-Butan-2-yl-4-nitrobenzene", "1-(Butan-2-yl)-4-nitrobenzene"], "SMILES": "C(CC)(C)C1=CC=C(N(=O)=O)C=C1", "physical_data": {"Molecular Weight": "179.22", "Molecular Formula": "C10H13NO2", "Boiling Point": "130 \u00b0C @ Press: 9 Torr", "Density": "1.0875 g/cm\u00b3 @ Temp: 4 \u00b0C"}}