{"cas_no": "4238-71-5", "cn_name": "N-\u82c4\u57fa\u54aa\u5511", "en_name": ["1-Benzylimidazole", "1H-Imidazole, 1-(phenylmethyl)-", "Imidazole, 1-benzyl-", "1-(Phenylmethyl)-1H-imidazole", "1-Benzylimidazole", "N-Benzylimidazole", "1-Benzyl-1H-imidazole", "CDD 3500", "NSC 126828", "NSC 217337"], "SMILES": "C(C1=CC=CC=C1)N2C=CN=C2", "physical_data": {"Molecular Weight": "158.20", "Molecular Formula": "C10H10N2", "Boiling Point": "310 \u00b0C", "Melting Point": "68-70 \u00b0C"}}