{"cas_no": "42389-57-1", "cn_name": "3-\u6c28\u57fa-1-\u7532\u57fa\u54cc\u5576\u53cc\u76d0\u9178\u76d0", "en_name": ["3-Amino-1-methylpiperidine", "3-Piperidinamine, 1-methyl-", "Piperidine, 3-amino-1-methyl-", "1-Methyl-3-piperidinamine", "3-Amino-1-methylpiperidine", "1-Methylpiperidin-3-ylamine"], "SMILES": "NC1CN(C)CCC1", "physical_data": {"Molecular Weight": "114.19", "Molecular Formula": "C6H14N2", "Boiling Point": "74-75 \u00b0C @ Press: 43 Torr"}}