{"cas_no": "42399-40-6", "cn_name": "\u53bb\u4e59\u9170\u5730\u5c14\u786b\u5353", "en_name": ["Deacetyldiltiazem", "1,5-Benzothiazepin-4(5H)-one, 5-[2-(dimethylamino)ethyl]-2,3-dihydro-3-hydroxy-2-(4-methoxyphenyl)-, (2S,3S)-", "1,5-Benzothiazepin-4(5H)-one, 5-[2-(dimethylamino)ethyl]-2,3-dihydro-3-hydroxy-2-(4-methoxyphenyl)-, (2S-cis)-", "(2S,3S)-5-[2-(Dimethylamino)ethyl]-2,3-dihydro-3-hydroxy-2-(4-methoxyphenyl)-1,5-benzothiazepin-4(5H)-one", "Desacetyldiltiazem", "Deacetyldiltiazem", "Deacetyl-d-diltiazem"], "SMILES": "C(CN(C)C)N1C=2C(SC(C(O)C1=O)C3=CC=C(OC)C=C3)=CC=CC2", "physical_data": {"Molecular Weight": "372.48", "Molecular Formula": "C20H24N2O3S", "Melting Point": "86-87 \u00b0C"}}