{"cas_no": "42397-65-9", "cn_name": "1\uff0c8-\u4e8c\u785d\u57fa\u8298", "en_name": ["1,8-Dinitropyrene", "Pyrene, 1,8-dinitro-", "1,8-Dinitropyrene"], "SMILES": "N(=O)(=O)C1=C2C3=C4C(=C(N(=O)=O)C=CC4=CC=C3C=C1)C=C2", "physical_data": {"Molecular Weight": "292.25", "Molecular Formula": "C16H8N2O4", "Melting Point": "&gt;300 \u00b0C"}}