{"cas_no": "42399-41-7", "cn_name": "\u5730\u5c14\u786b\u5353", "en_name": ["Diltiazem", "1,5-Benzothiazepin-4(5H)-one, 3-(acetyloxy)-5-[2-(dimethylamino)ethyl]-2,3-dihydro-2-(4-methoxyphenyl)-, (2S,3S)-", "1,5-Benzothiazepin-4(5H)-one, 3-(acetyloxy)-5-[2-(dimethylamino)ethyl]-2,3-dihydro-2-(4-methoxyphenyl)-, (2S-cis)-", "(2S,3S)-3-(Acetyloxy)-5-[2-(dimethylamino)ethyl]-2,3-dihydro-2-(4-methoxyphenyl)-1,5-benzothiazepin-4(5H)-one", "Diltiazem", "d-cis-Diltiazem", "(+)-cis-Diltiazem", "(+)-Diltiazem", "d-Diltiazem", "Dilzem", "Coras", "Adizem XL", "Cartia XT", "Balcor", "Dilzem retard", "Diltia XT", "MeSH ID: D004110"], "SMILES": "O(C(C)=O)C1C(SC=2C(N(CCN(C)C)C1=O)=CC=CC2)C3=CC=C(OC)C=C3", "physical_data": {"Molecular Weight": "414.52", "Molecular Formula": "C22H26N2O4S", "Melting Point": "212 \u00b0C (decomp)"}}