{"cas_no": "42398-73-2", "cn_name": "6-\u7532\u57fa\u5f02\u55b9\u5549", "en_name": ["6-Methylisoquinoline", "Isoquinoline, 6-methyl-", "6-Methylisoquinoline"], "SMILES": "CC1=CC2=C(C=C1)C=NC=C2", "physical_data": {"Molecular Weight": "143.19", "Molecular Formula": "C10H9N", "Boiling Point": "265.5 \u00b0C", "Melting Point": "85.5 \u00b0C"}}