{"cas_no": "42397-64-8", "cn_name": "1\uff0c6-\u4e8c\u785d\u57fa\u8298", "en_name": ["1,6-Dinitropyrene", "Pyrene, 1,6-dinitro-", "1,6-Dinitropyrene"], "SMILES": "N(=O)(=O)C1=C2C3=C4C(C(N(=O)=O)=CC=C4C=C2)=CC=C3C=C1", "physical_data": {"Molecular Weight": "292.25", "Molecular Formula": "C16H8N2O4", "Melting Point": "309 \u00b0C"}}