{"cas_no": "42399-49-5", "cn_name": "(2S-cis)-(+)-2,3-\u4e8c\u6c22-3-\u7f9f\u57fa-2-(4-\u7532\u6c27\u82ef\u57fa)-1,5-\u82ef\u5e76\u786b\u6c2e\u6742\u5353-4(5H)-\u916e", "en_name": ["(2S,3S)-3-Hydroxy-2-(4-methoxyphenyl)-2,3-dihydro-1,5-benzothiazepin-4(5H)-one", "1,5-Benzothiazepin-4(5H)-one, 2,3-dihydro-3-hydroxy-2-(4-methoxyphenyl)-, (2S,3S)-", "1,5-Benzothiazepin-4(5H)-one, 2,3-dihydro-3-hydroxy-2-(4-methoxyphenyl)-, (2S-cis)-", "(2S,3S)-2,3-Dihydro-3-hydroxy-2-(4-methoxyphenyl)-1,5-benzothiazepin-4(5H)-one", "(2S,3S)-3-Hydroxy-2-(4-methoxyphenyl)-2,3-dihydro-1,5-benzothiazepin-4(5H)-one"], "SMILES": "OC1C(SC=2C(NC1=O)=CC=CC2)C3=CC=C(OC)C=C3", "physical_data": {"Molecular Weight": "301.36", "Molecular Formula": "C16H15NO3S", "Melting Point": "208-210 \u00b0C"}}