{"cas_no": "424-18-0", "cn_name": "\u5341\u4e00\u6c1f\u5df1\u9178\u7532\u916f", "en_name": ["Methyl 2,2,3,3,4,4,5,5,6,6,6-undecafluorohexanoate", "Hexanoic acid, 2,2,3,3,4,4,5,5,6,6,6-undecafluoro-, methyl ester", "Hexanoic acid, undecafluoro-, methyl ester", "Methyl 2,2,3,3,4,4,5,5,6,6,6-undecafluorohexanoate", "Methyl undecafluorohexanoate", "Methyl perfluorohexanoate", "2,2,3,3,4,4,5,5,6,6,6-Undecafluorohexanoic acid methyl ester"], "SMILES": "C(C(C(C(OC)=O)(F)F)(F)F)(C(C(F)(F)F)(F)F)(F)F", "physical_data": {"Molecular Weight": "328.08", "Molecular Formula": "C7H3F11O2", "Boiling Point": "119 \u00b0C @ Press: 760 Torr", "Density": "1.579 g/cm\u00b3 @ Temp: 20 \u00b0C"}}