{"cas_no": "424-40-8", "cn_name": "\u516d\u6c1f\u620a\u4e8c\u9178\u4e8c\u4e59\u916f", "en_name": ["1,5-Diethyl 2,2,3,3,4,4-hexafluoropentanedioate", "Pentanedioic acid, 2,2,3,3,4,4-hexafluoro-, 1,5-diethyl ester", "Glutaric acid, hexafluoro-, diethyl ester", "Pentanedioic acid, hexafluoro-, diethyl ester", "1,5-Diethyl 2,2,3,3,4,4-hexafluoropentanedioate", "Diethyl hexafluoroglutarate", "Diethyl perfluoroglutarate", "NSC 63360"], "SMILES": "C(C(C(OCC)=O)(F)F)(C(C(OCC)=O)(F)F)(F)F", "physical_data": {"Molecular Weight": "296.16", "Molecular Formula": "C9H10F6O4", "Boiling Point": "76 \u00b0C @ Press: 5 Torr"}}