{"cas_no": "424-64-6", "cn_name": "2,2,3,3,4,4,4-\u4e03\u6c1f\u4e01\u57fa\u4e19\u70ef\u9178\u916f", "en_name": ["2,2,3,3,4,4,4-Heptafluorobutyl 2-propenoate", "2-Propenoic acid, 2,2,3,3,4,4,4-heptafluorobutyl ester", "Acrylic acid, 2,2,3,3,4,4,4-heptafluorobutyl ester", "1-Butanol, 2,2,3,3,4,4,4-heptafluoro-, acrylate", "2,2,3,3,4,4,4-Heptafluorobutyl 2-propenoate", "1,1-Dihydroheptafluorobutyl acrylate", "1,1-Dihydroperfluorobutyl acrylate", "1H,1H-Heptafluorobutyl acrylate", "BF 1 (ester)", "\u03b1,\u03b1-Dihydroperfluorobutyl acrylate", "BF 1", "2,2,3,3,4,4,4-Heptafluorobutyl acrylate", "2,2,3,3,4,4,4-Heptafluorobutyl prop-2-enoate"], "SMILES": "C(C(COC(C=C)=O)(F)F)(C(F)(F)F)(F)F", "physical_data": {"Molecular Weight": "254.10", "Molecular Formula": "C7H5F7O2", "Boiling Point": "43 \u00b0C @ Press: 40 Torr", "Density": "1.455 g/cm\u00b3 @ Temp: 20 \u00b0C"}}