{"cas_no": "4241-27-4", "cn_name": "3-\u6c30\u57fa-6-\u7532\u57fa-2(1H)-\u5421\u5576\u916e", "en_name": ["1,2-Dihydro-6-methyl-2-oxo-3-pyridinecarbonitrile", "3-Pyridinecarbonitrile, 1,2-dihydro-6-methyl-2-oxo-", "Nicotinonitrile, 1,2-dihydro-6-methyl-2-oxo-", "1,2-Dihydro-6-methyl-2-oxo-3-pyridinecarbonitrile", "3-Cyano-6-methyl-2-pyridone", "2-Hydroxy-6-methylnicotinonitrile", "3-Cyano-6-methyl-2(1H)-pyridinone", "3-Cyano-2-hydroxy-6-methylpyridine", "6-Methyl-2-oxo-1,2-dihydro-3-pyridinecarbonitrile", "NSC 15124", "3-Cyano-6-methyl-2-pyridinone", "2-Hydroxy-6-methylpyridine-3-carbonitrile", "3-Cyano-6-methyl-2(1H)-pyridone"], "SMILES": "C(#N)C=1C(=O)NC(C)=CC1", "physical_data": {"Molecular Weight": "134.14", "Molecular Formula": "C7H6N2O", "Melting Point": "276-278 \u00b0C"}}