{"cas_no": "42417-65-2", "cn_name": "N-\u82c4\u6c27\u7fb0\u57fa-N-\u7532\u57fa-L-\u7f2c\u6c28\u9178", "en_name": ["N-Methyl-N-[(phenylmethoxy)carbonyl]-L-valine", "L-Valine, N-methyl-N-[(phenylmethoxy)carbonyl]-", "N-Methyl-N-[(phenylmethoxy)carbonyl]-L-valine", "N-(Benzyloxycarbonyl)-N-methyl-L-valine", "N-(Benzyloxycarbonyl)-N-methylvaline", "(S)-N-(Benzyloxycarbonyl)-N-methylvaline"], "SMILES": "C(N(C(OCC1=CC=CC=C1)=O)C)(C(C)C)C(O)=O", "physical_data": {"Molecular Weight": "265.30", "Molecular Formula": "C14H19NO4", "Melting Point": "68.5-69 \u00b0C"}}