{"cas_no": "42417-66-3", "cn_name": "N-\u82c4\u6c27\u7fb0\u57fa-N-\u7532\u57fa-L-\u5f02\u4eae\u6c28\u9178", "en_name": ["L-Isoleucine, N-methyl-N-[(phenylmethoxy)carbonyl]-", "L-Isoleucine, N-methyl-N-[(phenylmethoxy)carbonyl]-", "Isoleucine, N-carboxy-N-methyl-, N-benzyl ester", "N-(Benzyloxycarbonyl)-N-methyl-L-isoleucine", "N-Methyl-N-(phenylmethoxy)carbonyl-L-isoleucine"], "SMILES": "C(N(C(OCC1=CC=CC=C1)=O)C)(C(CC)C)C(O)=O", "physical_data": {"Molecular Weight": "279.33", "Molecular Formula": "C15H21NO4", "Melting Point": "63-64 \u00b0C"}}