{"cas_no": "42413-03-6", "cn_name": "3-\u6c2f-4-\u7532\u57fa\u82ef-1-\u78fa\u9170\u6c2f", "en_name": ["3-Chloro-4-methylbenzenesulfonyl chloride", "Benzenesulfonyl chloride, 3-chloro-4-methyl-", "3-Chloro-4-methylbenzenesulfonyl chloride", "3-Chloro-4-toluenesulfonyl chloride", "3-Chloro-p-toluene sulfochloride", "3-Chloro-4-methylbenzene-1-sulfonyl chloride", "NSC 90118", "2-Chlorotoluene-4-sulfonic acid chloride"], "SMILES": "S(Cl)(=O)(=O)C1=CC(Cl)=C(C)C=C1", "physical_data": {"Molecular Weight": "225.09", "Molecular Formula": "C7H6Cl2O2S", "Melting Point": "38 \u00b0C"}}