{"cas_no": "42422-68-4", "cn_name": "B-\u8d64\u9709\u9187", "en_name": ["\u03b2-Zearalanol", "1H-2-Benzoxacyclotetradecin-1-one, 3,4,5,6,7,8,9,10,11,12-decahydro-7,14,16-trihydroxy-3-methyl-, (3S,7S)-", "1H-2-Benzoxacyclotetradecin-1-one, 3,4,5,6,7,8,9,10,11,12-decahydro-7,14,16-trihydroxy-3-methyl-, [3S-(3R*,7R*)]-", "(3S,7S)-3,4,5,6,7,8,9,10,11,12-Decahydro-7,14,16-trihydroxy-3-methyl-1H-2-benzoxacyclotetradecin-1-one", "Taleranol", "P 1560 (pharmaceutical)", "P 1560", "\u03b2-Zearalanol", "\u03b2-Zeranol", "\u03b2-Zearanol", "(+)-\u03b2-Zearalanol"], "SMILES": "OC1=C2C(=CC(O)=C1)CCCCCC(O)CCCC(C)OC2=O", "physical_data": {"Molecular Weight": "322.40", "Molecular Formula": "C18H26O5", "Melting Point": "156-158 \u00b0C"}}