{"cas_no": "4242-18-6", "cn_name": "5,6,7,8-\u56db\u6c22-1-\u8418\u7532\u9178", "en_name": ["5,6,7,8-Tetrahydro-1-naphthalenecarboxylic acid", "1-Naphthalenecarboxylic acid, 5,6,7,8-tetrahydro-", "1-Naphthoic acid, 5,6,7,8-tetrahydro-", "5,6,7,8-Tetrahydro-1-naphthalenecarboxylic acid", "5,6,7,8-Tetrahydro-1-naphthoic acid", "NSC 44874", "5,6,7,8-Tetrahydronaphthalen-1-carboxylic acid"], "SMILES": "C(O)(=O)C1=C2C(=CC=C1)CCCC2", "physical_data": {"Molecular Weight": "176.21", "Molecular Formula": "C11H12O2", "Melting Point": "148-150 \u00b0C"}}