{"cas_no": "42429-27-6", "cn_name": "L-\u812f\u6c28\u9170\u80fa\u76d0\u9178\u76d0", "en_name": ["2-Pyrrolidinecarboxamide, hydrochloride (1:1), (2S)-", "2-Pyrrolidinecarboxamide, hydrochloride (1:1), (2S)-", "2-Pyrrolidinecarboxamide, monohydrochloride, (S)-", "2-Pyrrolidinecarboxamide, monohydrochloride, (2S)-", "L-Prolinamide hydrochloride", "Prolinamide hydrochloride", "(S)-Pyrrolidine-2-carboxamide hydrochloride", "(S)-2-Carbamoylpyrrolidine hydrochloride"], "SMILES": "C(N)(=O)C1CCCN1.Cl", "physical_data": {"Molecular Weight": "", "Molecular Formula": "C5H10N2O.ClH", "Melting Point": "182 \u00b0C"}}