{"cas_no": "42438-90-4", "cn_name": "(S)-2,3,4,9-\u56db\u6c22-1H-\u5421\u5576[3,4-B]\u5432\u54da-3-\u7fa7\u9178", "en_name": ["Lycoperodine-1", "1H-Pyrido[3,4-b]indole-3-carboxylic acid, 2,3,4,9-tetrahydro-, (3S)-", "1H-Pyrido[3,4-b]indole-3-carboxylic acid, 2,3,4,9-tetrahydro-, (S)-", "(3S)-2,3,4,9-Tetrahydro-1H-pyrido[3,4-b]indole-3-carboxylic acid", "(-)-(3S)-1,2,3,4-Tetrahydro-\u03b2-carboline-3-carboxylic acid", "L-3-Carboxy-1,2,3,4-tetrahydro-\u03b2-carboline", "L-1,2,3,4-Tetrahydro-3-carboxy-2-carboline", "(S)-1,2,3,4-Tetrahydro-3-carboxy-2-carboline", "(S)-(-)-2,3,4,9-Tetrahydro-1H-pyrido[3,4-b]indole-3-carboxylic acid", "Lycoperodine-1", "(S)-2,3,4,9-Tetrahydro-\u03b2-carboline-3-carboxylic acid", "TNCA", "(3S)-1H,2H,3H,4H,9H-Pyrido[3,4-b]indole-3-carboxylic acid", "(3S)-2,3,4,9-Tetrahydro-1H-pyrido[3,4-b]indole-3-carboxylic acid", "(3S)-1,2,3,4-Tetrahydro-\u03b2-carboline-3-carboxylic acid"], "SMILES": "C(O)(=O)C1CC=2C=3C(NC2CN1)=CC=CC3", "physical_data": {"Molecular Weight": "216.24", "Molecular Formula": "C12H12N2O2", "Melting Point": "280-282 \u00b0C"}}