{"cas_no": "42438-89-1", "cn_name": "\u677e\u830b", "en_name": ["Pinostilbene", "Phenol, 3-[(1E)-2-(4-hydroxyphenyl)ethenyl]-5-methoxy-", "Phenol, 3-[2-(4-hydroxyphenyl)ethenyl]-5-methoxy-, (E)-", "3-[(1E)-2-(4-Hydroxyphenyl)ethenyl]-5-methoxyphenol", "trans-Pinostilbene", "Pinostilbene", "Pinostilbene, trans-", "3,4\u2032-Dihydroxy-5-methoxy-trans-stilbene"], "SMILES": "C(=CC1=CC=C(O)C=C1)C2=CC(OC)=CC(O)=C2", "physical_data": {"Molecular Weight": "242.27", "Molecular Formula": "C15H14O3", "Melting Point": "117-118 \u00b0C"}}