{"cas_no": "4244-84-2", "cn_name": "beta-\u4e19\u6c28\u9178\u4e59\u916f\u76d0\u9178\u76d0", "en_name": ["\u03b2-Alanine, ethyl ester, hydrochloride", "\u03b2-Alanine, ethyl ester, hydrochloride (1:1)", "\u03b2-Alanine, ethyl ester, hydrochloride", "3-Aminopropionic acid ethyl ester hydrochloride", "Ethyl 3-aminopropionate hydrochloride", "Ethyl \u03b2-alaninate hydrochloride", "Ethyl 3-aminopropanoate hydrochloride", "3-Aminopropanoic acid ethyl ester hydrochloride", "CarnoSyn", "Ethyl \u03b2-alaninoate hydrochloride", "Ethyl 3-aminopropanoate hydrochloride salt", "3-Ethoxy-3-oxopropan-1-aminium chloride"], "SMILES": "C(CCN)(OCC)=O.Cl", "physical_data": {"Molecular Weight": "", "Molecular Formula": "C5H11NO2.ClH", "Melting Point": "65.5 \u00b0C"}}