{"cas_no": "42454-06-8", "cn_name": "5-\u7f9f\u57fa-2-\u785d\u57fa\u82ef\u7532\u919b", "en_name": ["5-Hydroxy-2-nitrobenzaldehyde", "Benzaldehyde, 5-hydroxy-2-nitro-", "5-Hydroxy-2-nitrobenzaldehyde", "2-Nitro-5-hydroxybenzaldehyde", "3-Formyl-4-nitrophenol", "NSC 93899", "3-Hydroxy-6-nitrobenzaldehyde"], "SMILES": "C(=O)C1=C(N(=O)=O)C=CC(O)=C1", "physical_data": {"Molecular Weight": "167.12", "Molecular Formula": "C7H5NO4", "Melting Point": "167 \u00b0C"}}