{"cas_no": "4245-76-5", "cn_name": "1-\u7532\u57fa-3-\u785d\u57fa\u80cd", "en_name": ["N-Methyl-N\u2032-nitroguanidine", "Guanidine, N-methyl-N\u2032-nitro-", "Guanidine, 1-methyl-2-nitro-", "N-Methyl-N\u2032-nitroguanidine", "1-Methyl-3-nitroguanidine", "NSC 11887", "MNG", "2-Methyl-1-nitroguanidine"], "SMILES": "C(NN(=O)=O)(NC)=N", "physical_data": {"Molecular Weight": "118.09", "Molecular Formula": "C2H6N4O2", "Melting Point": "160-161 \u00b0C"}}