{"cas_no": "4245-35-6", "cn_name": "\u4e19\u70ef\u9178\u5f02\u620a\u916f", "en_name": ["Isoamyl acrylate", "2-Propenoic acid, 3-methylbutyl ester", "Acrylic acid, isopentyl ester", "Isopentyl alcohol, acrylate", "Isoamyl acrylate", "Isopentyl acrylate", "Isopentyl 2-propenoate", "3-Methylbutyl 2-propenoate", "Viscoat 158", "3-Methylbutyl acrylate", "NSC 20955", "Light Acrylate IA-A"], "SMILES": "C(OCCC(C)C)(C=C)=O", "physical_data": {"Molecular Weight": "142.20", "Molecular Formula": "C8H14O2", "Boiling Point": "71-72 \u00b0C @ Press: 22 Torr", "Density": "0.9022 g/cm\u00b3 @ Temp: 15 \u00b0C"}}