{"cas_no": "4245-37-8", "cn_name": "\u7532\u57fa\u4e19\u70ef\u9178\u4e59\u70ef\u916f", "en_name": ["Vinyl methacrylate", "2-Propenoic acid, 2-methyl-, ethenyl ester", "Methacrylic acid, vinyl ester", "Vinyl methacrylate", "NSC 32618"], "SMILES": "C(OC=C)(C(C)=C)=O", "physical_data": {"Molecular Weight": "112.13", "Molecular Formula": "C6H8O2", "Boiling Point": "61-63 \u00b0C @ Press: 150 Torr", "Density": "0.9430 g/cm\u00b3 @ Temp: 20 \u00b0C"}}