{"cas_no": "42461-84-7", "cn_name": "\u6c1f\u5c3c\u8f9b\u8461\u7532\u80fa", "en_name": ["Flunixin meglumine", "D-Glucitol, 1-deoxy-1-(methylamino)-, 2-[[2-methyl-3-(trifluoromethyl)phenyl]amino]-3-pyridinecarboxylate (1:1)", "D-Glucitol, 1-deoxy-1-(methylamino)-, 2-[[2-methyl-3-(trifluoromethyl)phenyl]amino]-3-pyridinecarboxylate (salt)", "3-Pyridinecarboxylic acid, 2-[[2-methyl-3-(trifluoromethyl)phenyl]amino]-, compd. with 1-deoxy-1-(methylamino)-D-glucitol (1:1)", "2-(2-Methyl-3-trifluoromethylanilino)nicotinic acid N-methyl-D-glucamine salt", "Banamine", "Flunixin meglumine", "Flunixin N-methylglucamine", "Finadyne", "NIH 10250", "Ilium flunixil", "Equileve", "Flunimeg", "Finadyne RP"], "SMILES": "C(C(C(CO)O)O)(C(CNC)O)O.N(C1=C(C(O)=O)C=CC=N1)C2=C(C)C(C(F)(F)F)=CC=C2", "physical_data": {"Molecular Weight": "", "Molecular Formula": "C14H11F3N2O2.C7H17NO5", "Melting Point": "135-139 \u00b0C"}}