{"cas_no": "4246-51-9", "cn_name": "4,7,10-\u4e09\u6c27-1,13-\u5341\u4e09\u70f7\u4e8c\u80fa", "en_name": ["4,7,10-Trioxatridecane-1,13-diamine", "1-Propanamine, 3,3\u2032-[oxybis(2,1-ethanediyloxy)]bis-", "Propylamine, 3,3\u2032-[oxybis(ethyleneoxy)]bis-", "3,3\u2032-[Oxybis(2,1-ethanediyloxy)]bis[1-propanamine]", "Diethylene glycol bis(3-aminopropyl) ether", "4,7,10-Trioxatridecane-1,13-diamine", "1,13-Diamino-4,7,10-trioxatridecane", "Q 19262", "4,7,10-Trioxa-1,13-tridecanamine", "Bis[2-(3-aminopropoxy)ethyl] ether", "DPA-DEG", "Ancamine 1922", "O,O\u2032-Bis(3-aminopropyl)diethylene glycol", "3,3\u2032-[Oxybis(ethane-2,1-diyloxy)]dipropan-1-amine", "Ancamine 1922A", "3,3\u2032-((Oxybis(ethane-2,1-diyl))bis(oxy))bis(propan-1-amine)", "3-[2-[2-(3-Aminopropoxy)ethoxy]ethoxy]propan-1-amine", "TTD", "4,7,10-Trioxa-1,1,3-tridecanediamine", "Baxxodur EC 130", "EC 130"], "SMILES": "O(CCOCCCN)CCOCCCN", "physical_data": {"Molecular Weight": "220.31", "Molecular Formula": "C10H24N2O3", "Boiling Point": "108-115 \u00b0C @ Press: 4 Torr", "Density": "1.0110 g/cm\u00b3 @ Temp: 20 \u00b0C"}}