{"cas_no": "42471-28-3", "cn_name": "\u5c3c\u83ab\u53f8\u6c40", "en_name": ["Nimustine", "Urea, N\u2032-[(4-amino-2-methyl-5-pyrimidinyl)methyl]-N-(2-chloroethyl)-N-nitroso-", "N\u2032-[(4-Amino-2-methyl-5-pyrimidinyl)methyl]-N-(2-chloroethyl)-N-nitrosourea", "Nimustine", "NSC 245382", "1-(4-Amino-2-methyl-5-pyrimidinyl)methyl-3-(2-chloroethyl)-3-nitrosourea"], "SMILES": "C(NC(N(CCCl)N=O)=O)C=1C(N)=NC(C)=NC1", "physical_data": {"Molecular Weight": "272.69", "Molecular Formula": "C9H13ClN6O2", "Melting Point": "125 \u00b0C (decomp)"}}