{"cas_no": "4247-02-3", "cn_name": "\u5c3c\u6cca\u91d1\u5f02\u4e01\u916f", "en_name": ["Isobutylparaben", "Benzoic acid, 4-hydroxy-, 2-methylpropyl ester", "Benzoic acid, p-hydroxy-, isobutyl ester", "Isobutyl p-hydroxybenzoate", "Isobutyl 4-hydroxybenzoate", "2-Methylpropyl p-hydroxybenzoate", "Isobutylparaben", "iso-Butyl p-hydroxybenzoate", "p-Hydroxybenzoic acid isobutyl ester", "2-Methylpropyl 4-hydroxybenzoate"], "SMILES": "C(OCC(C)C)(=O)C1=CC=C(O)C=C1", "physical_data": {"Molecular Weight": "194.23", "Molecular Formula": "C11H14O3", "Melting Point": "74-77 \u00b0C"}}