{"cas_no": "42487-09-2", "cn_name": "\u53cc\u4e59\u9170\u4e59\u9170-2,5-\u4e8c\u6c2f\u5bf9\u82ef\u4e8c\u80fa", "en_name": ["N,N\u2032-(2,5-Dichloro-1,4-phenylene)bis[3-oxobutanamide]", "Butanamide, N,N\u2032-(2,5-dichloro-1,4-phenylene)bis[3-oxo-", "Acetoacetamide, N,N\u2032-(2,5-dichloro-p-phenylene)bis-", "N,N\u2032-(2,5-Dichloro-1,4-phenylene)bis[3-oxobutanamide]", "2,5-Bis(acetoacetamido)-1,4-dichlorobenzene", "2,5-Dichloro-1,4-bis(acetylacetamido)benzene", "1,4-Bis(Acetoacetamido)-2,5-dichlorobenzene", "NSC 166276"], "SMILES": "N(C(CC(C)=O)=O)C1=C(Cl)C=C(NC(CC(C)=O)=O)C(Cl)=C1", "physical_data": {"Molecular Weight": "345.18", "Molecular Formula": "C14H14Cl2N2O4", "Melting Point": "205-206 \u00b0C"}}