{"cas_no": "4248-19-5", "cn_name": "\u6c28\u57fa\u7532\u9178\u53d4\u4e01\u916f", "en_name": ["1,1-Dimethylethyl carbamate", "Carbamic acid, 1,1-dimethylethyl ester", "Carbamic acid, tert-butyl ester", "1,1-Dimethylethyl carbamate", "tert-Butyl carbamate", "O-tert-Butyl carbamate", "NSC 131089", "Carbamic acid tert-butyl ester"], "SMILES": "O(C(C)(C)C)C(N)=O", "physical_data": {"Molecular Weight": "117.15", "Molecular Formula": "C5H11NO2", "Melting Point": "105-108 \u00b0C"}}