{"cas_no": "42487-72-9", "cn_name": "2-DIETHYLAMINO-6-HYDROXY-4-METHYLPYRIMIDINE", "en_name": ["2-(Diethylamino)-4-hydroxy-6-methylpyrimidine", "4(3H)-Pyrimidinone, 2-(diethylamino)-6-methyl-", "4(1H)-Pyrimidinone, 2-(diethylamino)-6-methyl-", "2-(Diethylamino)-6-methyl-4(3H)-pyrimidinone", "2-(Diethylamino)-4-hydroxy-6-methylpyrimidine", "2-(Diethylamino)-6-methyl-4-hydroxypyrimidine", "2-Diethylamino-6-methylpyrimidin-4-ol", "2-(Diethylamino)-6-methyl-3,4-dihydropyrimidin-4-one", "2-(Diethylamino)-6-methyl-1H-pyrimidin-4-one"], "SMILES": "N(CC)(CC)C=1NC(C)=CC(=O)N1", "physical_data": {"Molecular Weight": "181.23", "Molecular Formula": "C9H15N3O", "Melting Point": "133-134 \u00b0C"}}