{"cas_no": "4249-19-8", "cn_name": "L-3-\u6c28\u57fa\u5f02\u4e01\u9178", "en_name": ["L-\u03b2-Aminoisobutyric acid", "Propanoic acid, 3-amino-2-methyl-, (2S)-", "\u03b2-Alanine, 2-methyl-, L-", "Propanoic acid, 3-amino-2-methyl-, (S)-", "(2S)-3-Amino-2-methylpropanoic acid", "L-\u03b2-Aminoisobutyric acid", "(+)-\u03b1-Methyl-\u03b2-alanine", "(S)-\u03b2-Aminoisobutyric acid", "L-3-Amino-2-methylpropionic acid", "(+)-\u03b2-Aminoisobutyric acid", "L-3-Amino-2-methylpropanoic acid", "(S)-3-Amino-2-methylpropionic acid", "L-3-Aminoisobutyric acid", "(+)-3-Amino-2-methylpropionic acid", "2(S)-Methyl-\u03b2-alanine", "(2S)-3-Amino-2-methylpropanoic acid", "(S)-3-Amino-2-methylpropanoic acid"], "SMILES": "C(C(O)=O)(CN)C", "physical_data": {"Molecular Weight": "103.12", "Molecular Formula": "C4H9NO2", "Melting Point": "179 \u00b0C"}}