{"cas_no": "42498-38-4", "cn_name": "N-\u53d4\u4e01\u57fa-4-\u6eb4\u82ef\u7532\u9170\u80fa", "en_name": ["4-Bromo-N-(1,1-dimethylethyl)benzamide", "Benzamide, 4-bromo-N-(1,1-dimethylethyl)-", "4-Bromo-N-(1,1-dimethylethyl)benzamide", "4-Bromo-N-(tert-butyl)benzamide", "N-tert-Butyl-4-bromobenzamide"], "SMILES": "C(NC(C)(C)C)(=O)C1=CC=C(Br)C=C1", "physical_data": {"Molecular Weight": "256.14", "Molecular Formula": "C11H14BrNO", "Melting Point": "134.98 \u00b0C"}}