{"cas_no": "425-88-7", "cn_name": "1,1,2,2-\u56db\u6c1f\u4e59\u57fa\u7532\u919a", "en_name": ["1-Methoxy-1,1,2,2-tetrafluoroethane", "Ethane, 1,1,2,2-tetrafluoro-1-methoxy-", "Ether, methyl 1,1,2,2-tetrafluoroethyl", "1,1,2,2-Tetrafluoro-1-methoxyethane", "1,1,2,2-Tetrafluoroethyl methyl ether", "Methyl 1,1,2,2-tetrafluoroethyl ether", "1-Methoxy-1,1,2,2-tetrafluoroethane", "HFE 254pc", "HFE 254cb2", "HFE 254", "HFE 254CB1"], "SMILES": "C(C(F)F)(OC)(F)F", "physical_data": {"Molecular Weight": "132.06", "Molecular Formula": "C3H4F4O", "Boiling Point": "36 \u00b0C"}}