{"cas_no": "425-87-6", "cn_name": "2-\u6c2f-1\uff0c1\uff0c2-\u4e09\u6c1f\u4e59\u57fa\u7532\u919a", "en_name": ["2-Chloro-1,1,2-trifluoro-1-methoxyethane", "Ethane, 2-chloro-1,1,2-trifluoro-1-methoxy-", "Ether, 2-chloro-1,1,2-trifluoroethyl methyl", "2-Chloro-1,1,2-trifluoro-1-methoxyethane", "2-Chloro-1,1,2-trifluoroethyl methyl ether", "1-Chloro-1,2,2-trifluoro-2-methoxyethane"], "SMILES": "C(C(Cl)F)(OC)(F)F", "physical_data": {"Molecular Weight": "148.51", "Molecular Formula": "C3H4ClF3O", "Boiling Point": "70.6 \u00b0C", "Density": "1.3636 g/cm\u00b3 @ Temp: 20 \u00b0C"}}