{"cas_no": "425-75-2", "cn_name": "\u4e09\u6c1f\u7532\u70f7\u78fa\u9178\u4e59\u916f", "en_name": ["Ethyl 1,1,1-trifluoromethanesulfonate", "Methanesulfonic acid, 1,1,1-trifluoro-, ethyl ester", "Methanesulfonic acid, trifluoro-, ethyl ester", "Ethyl 1,1,1-trifluoromethanesulfonate", "Ethyl trifluoromethanesulfonate", "Ethyl triflate", "Ethyl trifluoromethylsulfonate", "Trifluoromethanesulfonic acid ethyl ester"], "SMILES": "S(C(F)(F)F)(OCC)(=O)=O", "physical_data": {"Molecular Weight": "178.13", "Molecular Formula": "C3H5F3O3S", "Boiling Point": "115 \u00b0C"}}