{"cas_no": "4250-77-5", "cn_name": "6-\u7f9f\u57fa\u9ec4\u70f7\u916e", "en_name": ["(\u00b1)-6-Hydroxyflavanone", "4H-1-Benzopyran-4-one, 2,3-dihydro-6-hydroxy-2-phenyl-", "Flavanone, 6-hydroxy-", "2,3-Dihydro-6-hydroxy-2-phenyl-4H-1-benzopyran-4-one", "6-Hydroxyflavanone", "(\u00b1)-6-Hydroxyflavanone", "6-Hydroxy-2-phenylchroman-4-one", "CSU-1814", "CSU 1814"], "SMILES": "O=C1C=2C(OC(C1)C3=CC=CC=C3)=CC=C(O)C2", "physical_data": {"Molecular Weight": "240.25", "Molecular Formula": "C15H12O3", "Melting Point": "213-214 \u00b0C"}}