{"cas_no": "42508-74-7", "cn_name": "(4-\u7532\u57fa\u5421\u5576-2-\u57fa)\u7532\u9187", "en_name": ["4-Methyl-2-pyridinemethanol", "2-Pyridinemethanol, 4-methyl-", "4-Methyl-2-pyridinemethanol", "2-(Hydroxymethyl)-4-methylpyridine", "2-(Hydroxymethyl)-4-picoline", "(4-Methylpyridin-2-yl)methanol"], "SMILES": "C(O)C1=CC(C)=CC=N1", "physical_data": {"Molecular Weight": "123.15", "Molecular Formula": "C7H9NO", "Boiling Point": "100-107 \u00b0C @ Press: 4 Torr", "Melting Point": "96 \u00b0C"}}