{"cas_no": "42509-80-8", "cn_name": "\u6c2f\u5511\u78f7", "en_name": ["Isazofos", "Phosphorothioic acid, O-[5-chloro-1-(1-methylethyl)-1H-1,2,4-triazol-3-yl] O,O-diethyl ester", "CGA 12223", "Miral", "Ciba-Geigy A 12223", "A 12223", "Isazophos", "CIBA 12223", "Miral 10G", "Isazofos", "Triumph", "Brace 10G", "Brace", "Triumph (insecticide)"], "SMILES": "P(OC1=NN(C(C)C)C(Cl)=N1)(OCC)(OCC)=S", "physical_data": {"Molecular Weight": "313.74", "Molecular Formula": "C9H17ClN3O3PS", "Boiling Point": "170 \u00b0C @ Press: 760 Torr", "Melting Point": "&lt;25 \u00b0C", "Density": "1.22 g/cm\u00b3 @ Temp: 20 \u00b0C"}}