{"cas_no": "4250-38-8", "cn_name": "\u4e8c\u5341\u4e5d\u70f7\u9178", "en_name": ["Nonacosanoic acid", "Nonacosanoic acid", "n-Nonacosanoic acid"], "SMILES": "C(CCCCCCCCCCCCCCCCCCC)CCCCCCCCC(O)=O", "physical_data": {"Molecular Weight": "438.77", "Molecular Formula": "C29H58O2", "Melting Point": "90.1-90.4 \u00b0C"}}