{"cas_no": "4250-81-1", "cn_name": "1-\u82ef\u57fa\u620a\u70ef", "en_name": ["1-Pentyn-1-ylbenzene", "Benzene, 1-pentyn-1-yl-", "1-Pentyne, 1-phenyl-", "Benzene, 1-pentynyl-", "1-Pentyn-1-ylbenzene", "1-Phenyl-1-pentyne", "1-Phenyl-2-propylacetylene", "Phenylpropylacetylene", "1-Pentynylbenzene", "Pent-1-yn-1-ylbenzene"], "SMILES": "C(#CCCC)C1=CC=CC=C1", "physical_data": {"Molecular Weight": "144.21", "Molecular Formula": "C11H12", "Boiling Point": "198-200 \u00b0C", "Density": "0.9138 g/cm\u00b3 @ Temp: 9 \u00b0C"}}