{"cas_no": "42513-36-0", "cn_name": "12-\u6c2f-5-\u5341\u4e8c\u7094", "en_name": ["12-Chloro-5-dodecyne", "5-Dodecyne, 12-chloro-", "12-Chloro-5-dodecyne"], "SMILES": "C(C#CCCCC)CCCCCCl", "physical_data": {"Molecular Weight": "200.75", "Molecular Formula": "C12H21Cl", "Boiling Point": "92-93 \u00b0C @ Press: 0.5 Torr"}}