{"cas_no": "42514-50-1", "cn_name": "3-\u6c28\u57fa-3-\u7532\u57fa\u4e01-1-\u9187", "en_name": ["3-Amino-3-methyl-1-butanol", "1-Butanol, 3-amino-3-methyl-", "3-Amino-3-methyl-1-butanol", "3-Amino-3-methylbutanol", "3-Methyl-3-aminobutanol", "3-Amino-3,3-dimethylpropanol", "4-Hydroxy-2-methylbutan-2-amine", "3-Methyl-3-amino-1-butanol"], "SMILES": "C(C(C)(C)N)CO", "physical_data": {"Molecular Weight": "103.16", "Molecular Formula": "C5H13NO", "Boiling Point": "71 \u00b0C @ Press: 9 Torr", "Density": "0.8380 g/cm\u00b3 @ Temp: 20 \u00b0C"}}