{"cas_no": "4251-21-2", "cn_name": "\u5bf9-\u82ef\u4e8c\u4e19\u9178", "en_name": ["1,4-Benzenedipropanoic acid", "1,4-Benzenedipropanoic acid", "p-Benzenedipropionic acid", "p-Phenylenedipropionic acid", "1,4-Benzenedipropionic acid", "1,4-Phenylenedipropionic acid"], "SMILES": "C(CC(O)=O)C1=CC=C(CCC(O)=O)C=C1", "physical_data": {"Molecular Weight": "222.24", "Molecular Formula": "C12H14O4", "Melting Point": "228-230 \u00b0C"}}