{"cas_no": "4252-78-2", "cn_name": "2,2',4'-\u4e09\u6c2f\u82ef\u4e59\u916e", "en_name": ["2,2\u2032,4\u2032-Trichloroacetophenone", "Ethanone, 2-chloro-1-(2,4-dichlorophenyl)-", "Acetophenone, 2,2\u2032,4\u2032-trichloro-", "2-Chloro-1-(2,4-dichlorophenyl)ethanone", "2,4-Dichlorophenacyl chloride", "2,2\u2032,4\u2032-Trichloroacetophenone", "\u03b1,2,4-Trichloroacetophenone", "\u03c9-Chloro-2,4-dichloroacetophenone", "2,4,2\u2032-Trichloroacetophenone", "Chloromethyl 2,4-dichlorophenyl ketone", "2-Chloro-1-(2\u2032,4\u2032-dichlorophenyl)ethanone", "2-Chloro-1-(2,4-dichlorophenyl)ethan-1-one"], "SMILES": "C(CCl)(=O)C1=C(Cl)C=C(Cl)C=C1", "physical_data": {"Molecular Weight": "223.48", "Molecular Formula": "C8H5Cl3O", "Boiling Point": "130-135 \u00b0C @ Press: 4 Torr", "Melting Point": "57 \u00b0C"}}