{"cas_no": "42521-09-5", "cn_name": "2,6-\u4e8c\u6c2f\u5f02\u70df\u9178\u7532\u916f", "en_name": ["4-Pyridinecarboxylic acid, 2,6-dichloro-, methyl ester", "4-Pyridinecarboxylic acid, 2,6-dichloro-, methyl ester", "Isonicotinic acid, 2,6-dichloro-, methyl ester", "Methyl 2,6-dichloroisonicotinate", "CGA 41397", "Methyl 2,6-dichloro-4-pyridinecarboxylate", "2,6-Dichloroisonicotinic acid methyl ester", "2,6-Dichloropyridine-4-carboxylic acid methyl ester"], "SMILES": "C(OC)(=O)C=1C=C(Cl)N=C(Cl)C1", "physical_data": {"Molecular Weight": "206.03", "Molecular Formula": "C7H5Cl2NO2", "Melting Point": "83 \u00b0C"}}