{"cas_no": "42521-82-4", "cn_name": "IPA-3", "en_name": ["1,1\u2032-Dithiobis[2-naphthalenol]", "2-Naphthalenol, 1,1\u2032-dithiobis-", "2-Naphthol, 1,1\u2032-dithiodi-", "1,1\u2032-Dithiobis[2-naphthalenol]", "1,1\u2032-Dithiodi-2-naphthol", "Bis(2-hydroxy-1-naphthyl) disulfide", "IPA 3", "1,1\u2032-Disulfanediyldinaphthalen-2-ol", "p21-Activated kinase inhibitor III", "1-[(2-Hydroxynaphthalen-1-yl)disulfanyl]naphthalen-2-ol"], "SMILES": "S(SC=1C2=C(C=CC1O)C=CC=C2)C=3C4=C(C=CC3O)C=CC=C4", "physical_data": {"Molecular Weight": "350.45", "Molecular Formula": "C20H14O2S2", "Melting Point": "171 \u00b0C"}}