{"cas_no": "42523-29-5", "cn_name": "2,7-\u4e8c\u7f9f\u57fa-9-\u82b4\u916e", "en_name": ["2,7-Dihydroxyfluoren-9-one", "9H-Fluoren-9-one, 2,7-dihydroxy-", "2,7-Dihydroxy-9H-fluoren-9-one", "RMI 15,152", "2,7-Dihydroxyfluoren-9-one", "RMI 15152", "9-Fluorenone-2,7-diol"], "SMILES": "O=C1C=2C(C=3C1=CC(O)=CC3)=CC=C(O)C2", "physical_data": {"Molecular Weight": "212.20", "Molecular Formula": "C13H8O3", "Melting Point": "338 \u00b0C"}}