{"cas_no": "4253-89-8", "cn_name": "\u5f02\u4e19\u57fa\u4e8c\u786b(\u8bd5\u5242)", "en_name": ["Diisopropyl disulfide", "Disulfide, bis(1-methylethyl)", "Isopropyl disulfide", "Bis(1-methylethyl) disulfide", "Diisopropyl disulfide", "2,5-Dimethyl-3,4-dithiahexane", "NSC 75123", "1,2-Diisopropyldisulfane", "2-(Propan-2-yldisulfanyl)propane"], "SMILES": "S(SC(C)C)C(C)C", "physical_data": {"Molecular Weight": "150.31", "Molecular Formula": "C6H14S2", "Boiling Point": "177 \u00b0C", "Melting Point": "-69 \u00b0C", "Density": "0.8104 g/cm\u00b3 @ Temp: 25 \u00b0C"}}