{"cas_no": "4253-22-9", "cn_name": "\u4e8c\u4e01\u57fa\u9521\u786b\u5316", "en_name": ["Dibutyltin mercaptide", "Stannane, dibutylthioxo-", "Dibutyltin sulfide", "Tin, dibutylthioxo-", "Dibutylthioxostannane", "Tin dibutyl mercaptide", "BTS 71", "BTS 80", "Stann BK 1100L", "TN 2000SK", "NSC 92620", "BTS 80 (tin compound)", "Stann 825", "Dibutyltin mercaptide"], "SMILES": "[Sn](CCCC)(CCCC)=S", "physical_data": {"Molecular Weight": "265.00", "Molecular Formula": "C8H18SSn", "Boiling Point": "210-214 \u00b0C @ Press: 1 Torr"}}