{"cas_no": "425386-60-3", "cn_name": "\u53f8\u9a6c\u897f\u7279", "en_name": ["Semagacestat", "Butanamide, 2-hydroxy-3-methyl-N-[(1S)-1-methyl-2-oxo-2-[[(1S)-2,3,4,5-tetrahydro-3-methyl-2-oxo-1H-3-benzazepin-1-yl]amino]ethyl]-, (2S)-", "(2S)-2-Hydroxy-3-methyl-N-[(1S)-1-methyl-2-oxo-2-[[(1S)-2,3,4,5-tetrahydro-3-methyl-2-oxo-1H-3-benzazepin-1-yl]amino]ethyl]butanamide", "LY 450139", "Semagacestat"], "SMILES": "N(C(C(NC(C(C(C)C)O)=O)C)=O)C1C=2C(CCN(C)C1=O)=CC=CC2", "physical_data": {"Molecular Weight": "361.44", "Molecular Formula": "C19H27N3O4", "Melting Point": "208-212 \u00b0C"}}