{"cas_no": "4253-34-3", "cn_name": "\u7532\u57fa\u4e09\u4e59\u9170\u6c27\u57fa\u7845\u70f7", "en_name": ["Methyltriacetoxysilane", "Silanetriol, 1-methyl-, 1,1,1-triacetate", "Silanetriol, methyl-, triacetate", "Triacetoxymethylsilane", "Methylsilanetriol triacetate", "Methyltrihydroxysilane triacetate", "Methyltriacetoxysilane", "K 10S", "APK 1", "TSL 8180", "APK 1 (silane derivative)", "NSC 139845", "SIM 6519.0", "SIM 6519", "ZH 1103", "CG 100", "CG 100 (coupling agent)", "Nethyltriacetoxysilane", "[Diacetyloxy(methyl)silyl] acetate", "ES 15", "KH 401", "TM 002"], "SMILES": "[Si](OC(C)=O)(OC(C)=O)(OC(C)=O)C", "physical_data": {"Molecular Weight": "220.25", "Molecular Formula": "C7H12O6Si", "Boiling Point": "87-88 \u00b0C @ Press: 3 Torr", "Melting Point": "40.5 \u00b0C", "Density": "1.175 g/cm\u00b3"}}