{"cas_no": "4254-29-9", "cn_name": "2-\u831a\u9187", "en_name": ["2-Indanol", "1H-Inden-2-ol, 2,3-dihydro-", "2-Indanol", "2,3-Dihydro-1H-inden-2-ol", "2-Hydroxyindane", "NSC 17485", "2-Hydroxyhydrindene"], "SMILES": "OC1CC=2C(C1)=CC=CC2", "physical_data": {"Molecular Weight": "134.18", "Molecular Formula": "C9H10O", "Boiling Point": "102 \u00b0C @ Press: 13 Torr", "Melting Point": "70 \u00b0C", "Density": "0.97095 g/cm\u00b3 @ Temp: 30 \u00b0C"}}