{"cas_no": "42545-43-7", "cn_name": "2-(4-\u7532\u6c27\u82ef\u57fa)\u567b\u5429", "en_name": ["2-(4-Methoxyphenyl)thiophene", "Thiophene, 2-(4-methoxyphenyl)-", "Thiophene, 2-(p-methoxyphenyl)-", "2-(4-Methoxyphenyl)thiophene", "2-(p-Methoxyphenyl)thiophene", "2-p-Anisylthiophene", "2-(4\u2032-Methoxyphenyl)thiophene"], "SMILES": "O(C)C1=CC=C(C=C1)C2=CC=CS2", "physical_data": {"Molecular Weight": "190.26", "Molecular Formula": "C11H10OS", "Boiling Point": "156-165 \u00b0C @ Press: 4 Torr", "Melting Point": "107-109 \u00b0C"}}