{"cas_no": "4254-02-8", "cn_name": "\u6c30\u57fa\u73af\u620a\u70f7", "en_name": ["Cyclopentanecarbonitrile", "Cyclopentanecarbonitrile", "Cyclopentanenitrile", "Cyclopentyl cyanide", "Cyclopentyl nitrile", "Cyanocyclopentane", "1-Cyanocyclopentane"], "SMILES": "C(#N)C1CCCC1", "physical_data": {"Molecular Weight": "95.14", "Molecular Formula": "C6H9N", "Boiling Point": "168-170 \u00b0C", "Melting Point": "76 \u00b0C", "Density": "0.916 g/cm\u00b3 @ Temp: 22 \u00b0C"}}