{"cas_no": "4254-14-2", "cn_name": "(R)-1,2-\u4e19\u4e8c\u9187", "en_name": ["R-(-)-1,2-Propanediol", "1,2-Propanediol, (R)-", "1,2-Propanediol, (R)-(-)-", "(-)-Propylene glycol", "1-Deoxy-sn-glycerol", "R-(-)-Propylene glycol", "D-(-)-Propanediol", "(-)-1,2-Propanediol", "(R)-1,2-Propanediol", "R-(-)-1,2-Propanediol", "(R)-2-Hydroxy-1-propanol", "(R)-Propylene glycol", "NSC 90793", "(2R)-1,2-Propanediol", "1,2-Propanediol, (2R)-", "1,2-Propanediol, (R)-", "(R)-(-)-1,2-Propanediol", "(2R)-Propane-1,2-diol"], "SMILES": "C(CO)(C)O", "physical_data": {"Molecular Weight": "76.09", "Molecular Formula": "C3H8O2", "Boiling Point": "85-86 \u00b0C @ Press: 10 Torr"}}