{"cas_no": "4254-15-3", "cn_name": "(S)-1,2-\u4e19\u4e8c\u9187", "en_name": ["(+)-1,2-Propanediol", "1,2-Propanediol, (2S)-", "1,2-Propanediol, (S)-(+)-", "1,2-Propanediol, (S)-", "(2S)-1,2-Propanediol", "L-(+)-Propylene glycol", "(+)-(S)-1,2-Propanediol", "d-Propylene glycol", "3-Deoxy-sn-glycerol", "(S)-1,2-Propanediol", "L-1,2-Propanediol", "(S)-(+)-Propylene glycol", "L-(+)-Propanediol", "(+)-1,2-Propanediol", "(S)-(+)-Propane-1,2-diol", "1,2(S)-Propanediol", "(S)-2-Hydroxy-1-propanol", "(S)-Propylene glycol", "(S)-2-Hydroxypropanol", "(2S)-Propane-1,2-diol", "(S)-Propane-1,2-diol", "(2S)-Propane-1,2-diol"], "SMILES": "C(CO)(C)O", "physical_data": {"Molecular Weight": "76.09", "Molecular Formula": "C3H8O2", "Boiling Point": "88.7 \u00b0C @ Press: 13 Torr", "Density": "1.0364 g/cm\u00b3 @ Temp: 20 \u00b0C"}}