{"cas_no": "42540-40-9", "cn_name": "\u5934\u5b62\u5b5f\u591a\u916f\u94a0", "en_name": ["Cefamandole nafate", "5-Thia-1-azabicyclo[4.2.0]oct-2-ene-2-carboxylic acid, 7-[[(2R)-2-(formyloxy)-2-phenylacetyl]amino]-3-[[(1-methyl-1H-tetrazol-5-yl)thio]methyl]-8-oxo-, sodium salt (1:1), (6R,7R)-", "5-Thia-1-azabicyclo[4.2.0]oct-2-ene-2-carboxylic acid, 7-[[(formyloxy)phenylacetyl]amino]-3-[[(1-methyl-1H-tetrazol-5-yl)thio]methyl]-8-oxo-, monosodium salt, [6R-[6\u03b1,7\u03b2(R*)]]-", "5-Thia-1-azabicyclo[4.2.0]oct-2-ene-2-carboxylic acid, 7-[[(2R)-(formyloxy)phenylacetyl]amino]-3-[[(1-methyl-1H-tetrazol-5-yl)thio]methyl]-8-oxo-, monosodium salt, (6R,7R)-", "Cefamandole nafate", "Sodium 7-(D-2-formyloxy-2-phenylacetamido)-3-(1-methyl-1H-tetrazol-5-ylthiomethyl)-3-cephem-4-carboxylate", "O-Formylcefamandole sodium", "Cefamandole formate sodium", "Cephamandole nafate", "Mandol", "Kefadol", "Sodium O-formylcefamandole", "Neocefal", "Mandokef", "Mandolsan", "Cemandil", "Pavecef", "Kefandol", "Bergacef", "Cefiran", "Cefam", "Fado", "Lampomandol", "Cedol", "Cemado", "NSC 299588"], "SMILES": "C(O)(=O)C=1N2C(C(NC(C(OC=O)C3=CC=CC=C3)=O)C2=O)SCC1CSC=4N(C)N=NN4.[Na]", "physical_data": {"Molecular Weight": "", "Molecular Formula": "C19H18N6O6S2.Na", "Melting Point": "190 \u00b0C (decomp)"}}