{"cas_no": "42553-65-1", "cn_name": "\u897f\u7ea2\u82b1\u82f7", "en_name": ["Crocin", "\u03b2-D-Glucopyranose, 6-O-\u03b2-D-glucopyranosyl-, 1,1\u2032-[(2E,4E,6E,8E,10E,12E,14E)-2,6,11,15-tetramethyl-2,4,6,8,10,12,14-hexadecaheptaenedioate]", "Crocin", "8,8\u2032-Diapo-\u03c8,\u03c8-carotenedioic acid, bis(6-O-\u03b2-D-glucopyranosyl-\u03b2-D-glucopyranosyl) ester", "\u03b1-Crocin", "Crocin 1", "all-trans-Crocetin di-\u03b2-D-gentiobiosyl ester", "Crocetin bis(gentiobiosyl) ester", "Crocin 4", "Crocetin digentiobioside", "Crocin A", "trans-Crocetin di(\u03b2-D-gentiobiosyl) ester", "Crocetin di(\u03b2-D-gentiobiosyl) ester", "Crocetin di-\u03b2-gentiobiosyl ester", "Crocin I", "trans-Crocin-1", "Trans-crocin-1", "Kiriyasu Oil Yellow GY", "Trans-crocin-4"], "SMILES": "C(OC1OC(CO)C(O)C(O)C1O)C2OC(OC(C(=CC=CC(=CC=CC=C(C=CC=C(C(OC3OC(COC4OC(CO)C(O)C(O)C4O)C(O)C(O)C3O)=O)C)C)C)C)=O)C(O)C(O)C2O", "physical_data": {"Molecular Weight": "976.96", "Molecular Formula": "C44H64O24", "Melting Point": "186 \u00b0C"}}