{"cas_no": "42558-54-3", "cn_name": "\u5f02\u4e01\u9170\u918b\u9178\u7532\u916f", "en_name": ["Pentanoic acid, 4-methyl-3-oxo-, methyl ester", "Pentanoic acid, 4-methyl-3-oxo-, methyl ester", "Methyl 4-methyl-3-oxopentanoate", "Methyl isobutyrylacetate", "Isobutyrylacetic acid methyl ester", "4-Methyl-3-oxopentanoic acid methyl ester", "Methyl 3-oxo-4-methylpentanoate", "Methyl 3-isopropyl-3-oxopropanoate", "Methyl isobutanoylacetate", "Isobutanoyl methyl acetate"], "SMILES": "C(C(C(C)C)=O)C(OC)=O", "physical_data": {"Molecular Weight": "144.17", "Molecular Formula": "C7H12O3", "Boiling Point": "147-149 \u00b0C"}}