{"cas_no": "42573-57-9", "cn_name": "2,4-\u53cc(\u4e09\u6c2f\u7532\u57fa)-6-\u5bf9\u7532\u6c27\u57fa\u82ef\u4e59\u70ef\u57fa-S-\u4e09\u55ea", "en_name": ["2-(4-Methoxystyryl)-4,6-bis(trichloromethyl)-1,3,5-triazine", "1,3,5-Triazine, 2-[2-(4-methoxyphenyl)ethenyl]-4,6-bis(trichloromethyl)-", "2-[2-(4-Methoxyphenyl)ethenyl]-4,6-bis(trichloromethyl)-1,3,5-triazine", "2,4-Bis(trichloromethyl)-6-(p-methoxystyryl)-s-triazine", "2,4-Bis(trichloromethyl)-6-(4-methoxystyryl)-s-triazine", "2-(4-Methoxystyryl)-4,6-bis(trichloromethyl)-s-triazine", "2-(p-Methoxystyryl)-4,6-bis(trichloromethyl)-s-triazine", "2-(p-Methoxystyryl)-4,6-bis(trichloromethyl)-1,3,5-triazine", "2-(4-Methoxystyryl)-4,6-bis(trichloromethyl)-1,3,5-triazine", "TAZ 100", "TAZ 110", "2,4-Bis(trichloromethyl)-6-(4-methoxystyryl)-1,3,5-triazine", "Triazine PMS", "2-(4-Methoxy-\u03b2-styryl)-4,6-bis(trichloromethyl)-s-triazine", "TMS (photoinitiator)", "TMS", "TAZ-TMS", "2,4-(Trichloromethyl)-6-(4-methoxystyryl)-1,3,5-triazine", "Chemcure PAG 4", "MOP Triazine"], "SMILES": "C(Cl)(Cl)(Cl)C=1N=C(C(Cl)(Cl)Cl)N=C(C=CC2=CC=C(OC)C=C2)N1", "physical_data": {"Molecular Weight": "447.96", "Molecular Formula": "C14H9Cl6N3O", "Melting Point": "191 \u00b0C"}}