{"cas_no": "42576-02-3", "cn_name": "\u7532\u7fa7\u9664\u8349\u919a", "en_name": ["Bifenox", "Benzoic acid, 5-(2,4-dichlorophenoxy)-2-nitro-, methyl ester", "Modown", "MC 4379", "Methyl 5-(2,4-dichlorophenoxy)-2-nitrobenzoate", "Bifenox", "2,4-Dichlorophenyl 3-(methoxycarbonyl)-4-nitrophenyl ether", "2,4-Dichlorophenyl 3\u2032-carbomethoxy-4\u2032-nitrophenyl ether", "Biphenox", "2,4-Dichlorophenyl-3\u2032-methoxycarbonyl-4\u2032-nitrophenyl ether", "MC 79", "3-Carbomethoxy-2\u2032,4\u2032-dichloro-4-nitrodiphenyl ether", "Modown 4F", "Weeral", "Fox", "Jiazhichucaomi", "AG-B2-480 SC", "Fox 480SC"], "SMILES": "C(OC)(=O)C1=C(N(=O)=O)C=CC(OC2=C(Cl)C=C(Cl)C=C2)=C1", "physical_data": {"Molecular Weight": "342.13", "Molecular Formula": "C14H9Cl2NO5", "Melting Point": "85 \u00b0C", "Density": "1.155 g/cm\u00b3"}}