{"cas_no": "42588-37-4", "cn_name": "\u70ef\u866b\u7094\u916f", "en_name": ["Kinoprene", "2,4-Dodecadienoic acid, 3,7,11-trimethyl-, 2-propyn-1-yl ester, (2E,4E)-", "2,4-Dodecadienoic acid, 3,7,11-trimethyl-, 2-propynyl ester, (E,E)-", "2,4-Dodecadienoic acid, 3,7,11-trimethyl-, 2-propynyl ester, (2E,4E)-", "XR 777", "Kinoprene", "ENT 70531", "Enstar", "ZR 77"], "SMILES": "C(=CC(OCC#C)=O)(C=CCC(CCCC(C)C)C)C", "physical_data": {"Molecular Weight": "276.41", "Molecular Formula": "C18H28O2", "Boiling Point": "115.5 \u00b0C", "Melting Point": "&lt;25 \u00b0C"}}