{"cas_no": "42588-57-8", "cn_name": "2-\u7532\u57fa-3-\u4e59\u6c27\u57fa\u4e19\u70ef\u919b", "en_name": ["3-Ethoxy-2-methyl-2-propenal", "2-Propenal, 3-ethoxy-2-methyl-", "Acrolein, 3-ethoxy-2-methyl-", "3-Ethoxy-2-methyl-2-propenal", "3-Ethoxy-2-methylacrolein", "\u03b1-Methyl-\u03b2-ethoxyacrolein", "2-Methyl-3-ethoxyacrolein", "3-Ethoxymethacrolein"], "SMILES": "C(=COCC)(C=O)C", "physical_data": {"Molecular Weight": "114.14", "Molecular Formula": "C6H10O2", "Boiling Point": "78-81 \u00b0C @ Press: 14 Torr"}}