{"cas_no": "42598-96-9", "cn_name": "\u4e59\u9170\u4e59\u9178\u6b63\u5e9a\u916f", "en_name": ["Heptyl 3-oxobutanoate", "Butanoic acid, 3-oxo-, heptyl ester", "Heptyl 3-oxobutanoate", "Heptyl acetoacetate", "n-Heptyl acetylacetate", "NSC 33607"], "SMILES": "C(OCCCCCCC)(CC(C)=O)=O", "physical_data": {"Molecular Weight": "200.27", "Molecular Formula": "C11H20O3", "Boiling Point": "78-80 \u00b0C @ Press: 0.4 Torr"}}