{"cas_no": "42599-18-8", "cn_name": "E-\u5df1\u70ef-1-\u57fa\u787c\u9178", "en_name": ["B-(1E)-1-Hexenylboronic acid", "Boronic acid, B-(1E)-1-hexenyl-", "Boronic acid, 1-hexenyl-, (E)-", "Boronic acid, (1E)-1-hexenyl-", "B-(1E)-1-Hexenylboronic acid", "trans-1-Hexenylboronic acid", "(E)-1-Hexenylboronic acid", "[(1E)-1-hexenyl]boronic acid", "trans-1-Hexen-1-ylboronic acid", "(E)-1-Hexen-1-ylboronic acid", "((1E)-Hex-1-en-1-yl)boronic acid"], "SMILES": "C(=CB(O)O)CCCC", "physical_data": {"Molecular Weight": "127.98", "Molecular Formula": "C6H13BO2", "Melting Point": "90-93 \u00b0C"}}