{"cas_no": "426-13-1", "cn_name": "\u6c1f\u7c73\u9f99", "en_name": ["Fluorometholone", "Pregna-1,4-diene-3,20-dione, 9-fluoro-11,17-dihydroxy-6-methyl-, (6\u03b1,11\u03b2)-", "Pregna-1,4-diene-3,20-dione, 9-fluoro-11\u03b2,17-dihydroxy-6\u03b1-methyl-", "(6\u03b1,11\u03b2)-9-Fluoro-11,17-dihydroxy-6-methylpregna-1,4-diene-3,20-dione", "U 8614", "21-Desoxy-9\u03b1-fluoro-6-methylprednisolone", "9\u03b1-Fluoro-11\u03b2,17\u03b1-dihydroxy-6\u03b1-methylpregna-1,4-diene-3,20-dione", "Fluorometholone", "6\u03b1-Methyl-9\u03b1-fluoro-21-desoxyprednisolone", "6\u03b1-Methyl-9\u03b1-fluoro-11\u03b2,17\u03b1-dihydroxypregna-1,4-diene-3,20-dione", "Oxylone", "Cortilet", "Delmeson", "NSC-33001", "Flumetholone", "FML", "Fluormetholon", "FML SOP", "Fluaton", "FML Forte", "Loticort", "FML Liquifilm", "Fluor-Op", "Efflumidex", "Flumetholon", "Ursnon", "Fluaton PVA", "MeSH ID: D005469"], "SMILES": "FC12C(C3C(C)(CC1O)C(C(C)=O)(O)CC3)CC(C)C=4C2(C)C=CC(=O)C4", "physical_data": {"Molecular Weight": "376.46", "Molecular Formula": "C22H29FO4", "Melting Point": "297 \u00b0C"}}