{"cas_no": "426-65-3", "cn_name": "\u4e94\u6c1f\u4e19\u9178\u4e59\u916f", "en_name": ["Ethyl 2,2,3,3,3-pentafluoropropanoate", "Propanoic acid, 2,2,3,3,3-pentafluoro-, ethyl ester", "Propionic acid, pentafluoro-, ethyl ester", "Propanoic acid, pentafluoro-, ethyl ester", "Ethyl 2,2,3,3,3-pentafluoropropanoate", "Ethyl pentafluoropropionate", "Ethyl perfluoropropionate", "Pentafluoropropanoic acid ethyl ester", "Ethyl pentafluoropropanoate", "Ethyl 2,2,3,3,3-pentafluoropropionate"], "SMILES": "C(C(OCC)=O)(C(F)(F)F)(F)F", "physical_data": {"Molecular Weight": "192.08", "Molecular Formula": "C5H5F5O2", "Boiling Point": "73 \u00b0C", "Density": "1.289 g/cm\u00b3 @ Temp: 20 \u00b0C"}}