{"cas_no": "426-79-9", "cn_name": "\u516d\u6c1f\u78f7\u9178\u56db\u7532\u57fa\u94f5", "en_name": ["Tetraphenylphosphonium tetrafluoroborate", "Phosphonium, tetraphenyl-, tetrafluoroborate(1-) (1:1)", "Phosphonium, tetraphenyl-, tetrafluoroborate(1-)", "Tetraphenylphosphonium tetrafluoroborate", "Borate(1-), tetrafluoro-, tetraphenylphosphonium", "Tetraphenylphosphonium fluoborate", "Tetraphenylphosphonium fluoroborate", "NSC 407396"], "SMILES": "[B+3]([F-])([F-])([F-])[F-].[P+](C1=CC=CC=C1)(C2=CC=CC=C2)(C3=CC=CC=C3)C4=CC=CC=C4", "physical_data": {"Molecular Weight": "", "Molecular Formula": "C24H20P.BF4", "Melting Point": "350.5 \u00b0C"}}