{"cas_no": "426-59-5", "cn_name": "3-\u6c28\u82ef\u57fa\u4e09\u6c1f\u7532\u57fa\u781c", "en_name": ["3-[(Trifluoromethyl)sulfonyl]benzenamine", "Benzenamine, 3-[(trifluoromethyl)sulfonyl]-", "Aniline, m-[(trifluoromethyl)sulfonyl]-", "3-[(Trifluoromethyl)sulfonyl]benzenamine", "m-(Trifluoromethylsulfonyl)aniline", "3-Trifluoromethylsulfonylaniline", "3-Aminophenyl trifluoromethyl sulfone", "3-Trifluoromethylsulfonylphenylamine", "5-(Trifluoromethylsulfonyl)aniline", "3-(Trifluoromethanesulfonyl)aniline", "3-(Trifluoromethanesulfonyl)phenylamine"], "SMILES": "S(C(F)(F)F)(=O)(=O)C1=CC(N)=CC=C1", "physical_data": {"Molecular Weight": "225.19", "Molecular Formula": "C7H6F3NO2S", "Melting Point": "78-79 \u00b0C"}}