{"cas_no": "42609-73-4", "cn_name": "\u5806\u6599\u673a", "en_name": ["Methyldymron", "Urea, N-methyl-N\u2032-(1-methyl-1-phenylethyl)-N-phenyl-", "N-Methyl-N\u2032-(1-methyl-1-phenylethyl)-N-phenylurea", "N-Methyl-N-phenyl-N\u2032-(2-phenylisopropyl)urea", "N-(\u03b1,\u03b1-Dimethylbenzyl)-N\u2032-methyl-N\u2032-phenylurea", "K 1441", "Dimelon-methyl", "Methyldymron", "1-Methyl-1-phenyl-3-(2-phenylpropan-2-yl)urea"], "SMILES": "N(C(NC(C)(C)C1=CC=CC=C1)=O)(C)C2=CC=CC=C2", "physical_data": {"Molecular Weight": "268.35", "Molecular Formula": "C17H20N2O", "Melting Point": "72 \u00b0C"}}