{"cas_no": "42609-52-9", "cn_name": "\u6740\u8349\u9686", "en_name": ["Daimuron", "Urea, N-(4-methylphenyl)-N\u2032-(1-methyl-1-phenylethyl)-", "N-(4-Methylphenyl)-N\u2032-(1-methyl-1-phenylethyl)urea", "SK 23 (herbicide)", "1-(4-Methylphenyl)-3-(\u03b1-phenylisopropyl)urea", "N-(p-Tolyl)-N\u2032-(\u03b1,\u03b1-dimethylbenzyl)urea", "1-(2-Phenyl-2-propyl)-3-(4-methylphenyl)urea", "K 223", "Dymrone", "Dymron", "SK 23", "N-(\u03b1,\u03b1-Dimethylbenzyl)-N\u2032-(p-tolyl)urea", "Daimuron", "1-(\u03b1,\u03b1-Dimethylbenzyl)-3-p-tolylurea", "K 223 (herbicide)", "SK 233"], "SMILES": "C(NC(NC1=CC=C(C)C=C1)=O)(C)(C)C2=CC=CC=C2", "physical_data": {"Molecular Weight": "268.35", "Molecular Formula": "C17H20N2O", "Melting Point": "203 \u00b0C"}}