{"cas_no": "42602-67-5", "cn_name": "N-(3-\u567b\u5429\u57fa)\u4e59\u9170\u80fa", "en_name": ["N-3-Thienylacetamide", "Acetamide, N-3-thienyl-", "Thiophene, 3-acetamido-", "N-3-Thienylacetamide", "3-Acetamidothiophene", "3-(Acetylamino)thiophene", "NSC 115029", "N-[Thien-3-yl]acetamide", "N-(Thiophen-3-yl)acetamide"], "SMILES": "N(C(C)=O)C=1C=CSC1", "physical_data": {"Molecular Weight": "141.19", "Molecular Formula": "C6H7NOS", "Melting Point": "147-148 \u00b0C"}}