{"cas_no": "42607-21-6", "cn_name": "2-\u82ef\u57fa\u567b\u5511\u70f7-4-\u7fa7\u9178", "en_name": ["2-Phenylthiazolidine-4-carboxylic acid", "4-Thiazolidinecarboxylic acid, 2-phenyl-", "2-Phenyl-4-thiazolidinecarboxylic acid", "2-Phenylthiazolidine-4-carboxylic acid", "NSC 522094"], "SMILES": "C(O)(=O)C1NC(SC1)C2=CC=CC=C2", "physical_data": {"Molecular Weight": "209.26", "Molecular Formula": "C10H11NO2S", "Melting Point": "160 \u00b0C"}}