{"cas_no": "4261-68-1", "cn_name": "\u4e8c\u5f02\u4e19\u6c28\u57fa\u4e59\u57fa\u6c2f\u76d0\u9178\u76d0", "en_name": ["2-Propanamine, N-(2-chloroethyl)-N-(1-methylethyl)-, hydrochloride (1:1)", "2-Propanamine, N-(2-chloroethyl)-N-(1-methylethyl)-, hydrochloride (1:1)", "Triethylamine, 2\u2032\u2032-chloro-1,1\u2032-dimethyl-, hydrochloride", "2-Propanamine, N-(2-chloroethyl)-N-(1-methylethyl)-, hydrochloride", "2-(Diisopropylamino)ethyl chloride hydrochloride", "(\u03b2-Chloroethyl)diisopropylamine hydrochloride", "N-(2-Chloroethyl)diisopropylamine hydrochloride", "2-Chloroethyldiisopropylamine hydrochloride", "2-Chloro-N,N-bis(isopropyl)ethanamine hydrochloride", "2-(N,N-Diisopropylamino)ethyl chloride hydrochloride", "N-(2-Chloroethyl)-N-isopropylpropan-2-amine hydrochloride", "2-Chloro-N,N-diisopropylethylamine hydrochloride", "N,N-Diisopropyl-2-Chloroethylamine hydrochloride", "1-Chloro-2-diisopropylaminoethane hydrochloride"], "SMILES": "N(CCCl)(C(C)C)C(C)C.Cl", "physical_data": {"Molecular Weight": "", "Molecular Formula": "C8H18ClN.ClH", "Melting Point": "110 \u00b0C"}}