{"cas_no": "4261-42-1", "cn_name": "\u5f02\u836d\u8349\u7d20", "en_name": ["Isoorientin", "4H-1-Benzopyran-4-one, 2-(3,4-dihydroxyphenyl)-6-\u03b2-D-glucopyranosyl-5,7-dihydroxy-", "Isoorientin", "2-(3,4-Dihydroxyphenyl)-6-\u03b2-D-glucopyranosyl-5,7-dihydroxy-4H-1-benzopyran-4-one", "Homoorientin", "Lutonaretin", "Lespecapitioside", "Lespecapitoside", "Luteolin 6-C-glucoside", "Luteolin 6-C-\u03b2-D-glucopyranoside", "Flavone, 6-\u03b2-D-glucopyranosyl-3\u2032,4\u2032,5,7-tetrahydroxy-", "3\u2032,4\u2032,5,7-Tetrahydroxy-6-C-glucopyranosylflavone", "Luteolin 6-C-\u03b2-D-glucoside"], "SMILES": "OC=1C(=C(O)C=C2C1C(=O)C=C(O2)C3=CC(O)=C(O)C=C3)C4OC(CO)C(O)C(O)C4O", "physical_data": {"Molecular Weight": "448.38", "Molecular Formula": "C21H20O11", "Melting Point": "236-237 \u00b0C (decomp)"}}