{"cas_no": "4261-14-7", "cn_name": "9-\u82c4\u57fa\u817a\u560c\u5464", "en_name": ["9-(Phenylmethyl)-9H-purin-6-amine", "9H-Purin-6-amine, 9-(phenylmethyl)-", "Adenine, 9-benzyl-", "9-(Phenylmethyl)-9H-purin-6-amine", "9-Benzyladenine", "9-Benzylaminopurine", "N9-Benzyladenine", "SQ 21611", "NSC 35649"], "SMILES": "C(N1C=2C(N=C1)=C(N)N=CN2)C3=CC=CC=C3", "physical_data": {"Molecular Weight": "225.25", "Molecular Formula": "C12H11N5", "Melting Point": "224-225 \u00b0C (decomp)"}}