{"cas_no": "4261-67-0", "cn_name": "N,N-\u4e8c\u7532\u6c28\u57fa-3-\u6c2f-2-\u7532\u57fa\u4e19\u70f7\u76d0\u9178\u76d0", "en_name": ["1-Propanamine, 3-chloro-N,N,2-trimethyl-, hydrochloride (1:1)", "1-Propanamine, 3-chloro-N,N,2-trimethyl-, hydrochloride (1:1)", "1-Propanamine, 3-chloro-N,N,2-trimethyl-, hydrochloride", "Propylamine, 3-chloro-N,N,2-trimethyl-, hydrochloride", "(\u03b3-Chloro-\u03b2-methylpropyl)dimethylamine-hydrochloride", "2-Methyl-3-(dimethylamino)propyl chloride hydrochloride", "3-(Dimethylamino)-2-methylpropyl chloride hydrochloride", "2,N,N-Trimethylaminopropyl chloride hydrochloride", "1-Chloro-2-methyl-3-(N,N-dimethylamino)propane hydrochloride", "1-Chloro-3-(dimethylamino)-2-methylpropane hydrochloride"], "SMILES": "C(CN(C)C)(CCl)C.Cl", "physical_data": {"Molecular Weight": "", "Molecular Formula": "C6H14ClN.ClH", "Melting Point": "172 \u00b0C"}}