{"cas_no": "4263-52-9", "cn_name": "2-\u6eb4\u4e59\u57fa\u78fa\u9178\u94a0", "en_name": ["Sodium 2-bromoethanesulfonate", "Ethanesulfonic acid, 2-bromo-, sodium salt (1:1)", "Ethanesulfonic acid, 2-bromo-, sodium salt", "Sodium 2-bromoethanesulfonate", "Sodium bromoethylsulfonate", "2-Bromoethanesulfonic acid sodium salt", "Sodium 2-bromoethane-1-sulfonate", "Sodium \u03b2-bromoethanesulfonate", "Sodium 2-bromoethylsulfonate", "2-Bromoethane-1-sulfonic acid sodium salt"], "SMILES": "C(S(=O)(=O)O)CBr.[Na]", "physical_data": {"Molecular Weight": "", "Molecular Formula": "C2H5BrO3S.Na", "Melting Point": "289 \u00b0C"}}