{"cas_no": "4263-87-0", "cn_name": "\u53bb\u6c22\u4e8c\u677e\u67cf\u9187", "en_name": ["Dehydrodiconiferyl alcohol", "3-Benzofuranmethanol, 2,3-dihydro-2-(4-hydroxy-3-methoxyphenyl)-5-(3-hydroxy-1-propen-1-yl)-7-methoxy-", "3-Benzofuranmethanol, 2,3-dihydro-2-(4-hydroxy-3-methoxyphenyl)-5-(3-hydroxypropenyl)-7-methoxy-", "3-Benzofuranmethanol, 2,3-dihydro-2-(4-hydroxy-3-methoxyphenyl)-5-(3-hydroxy-1-propenyl)-7-methoxy-", "2,3-Dihydro-2-(4-hydroxy-3-methoxyphenyl)-5-(3-hydroxy-1-propen-1-yl)-7-methoxy-3-benzofuranmethanol", "Coniferyl alcohol, dehydrodi-", "Diconiferyl alcohol, dehydro-", "Dehydrodiconiferyl alcohol"], "SMILES": "C(O)C1C=2C(OC1C3=CC(OC)=C(O)C=C3)=C(OC)C=C(C=CCO)C2", "physical_data": {"Molecular Weight": "358.39", "Molecular Formula": "C20H22O6", "Melting Point": "157.5-158.5 \u00b0C"}}