{"cas_no": "426463-05-0", "cn_name": "2-\u6c2f-5-\u7898-3-\u785d\u57fa\u5421\u5576", "en_name": ["2-Chloro-5-iodo-3-nitropyridine", "Pyridine, 2-chloro-5-iodo-3-nitro-", "2-Chloro-5-iodo-3-nitropyridine"], "SMILES": "N(=O)(=O)C1=C(Cl)N=CC(I)=C1", "physical_data": {"Molecular Weight": "284.44", "Molecular Formula": "C5H2ClIN2O2", "Melting Point": "77-79 \u00b0C"}}