{"cas_no": "426463-09-4", "cn_name": "3-\u6c28\u57fa-2-\u6c2f-5-\u7898\u5421\u5576", "en_name": ["2-Chloro-5-iodo-3-pyridinamine", "3-Pyridinamine, 2-chloro-5-iodo-", "2-Chloro-5-iodo-3-pyridinamine", "2-Chloro-5-iodo-pyridin-3-ylamine", "3-Amino-2-chloro-5-iodopyridine"], "SMILES": "NC1=C(Cl)N=CC(I)=C1", "physical_data": {"Molecular Weight": "254.46", "Molecular Formula": "C5H4ClIN2", "Melting Point": "129 \u00b0C"}}