{"cas_no": "4265-27-4", "cn_name": "2-\u4e01\u57fa\u82ef\u5e76\u544b\u5583", "en_name": ["2-Butylbenzofuran", "Benzofuran, 2-butyl-", "2-Butylbenzofuran", "2-Butylbenzo[b]furan", "2-Butyl-1-benzofuran", "2-(n-Butyl)benzofuran"], "SMILES": "C(CCC)C1=CC=2C(O1)=CC=CC2", "physical_data": {"Molecular Weight": "174.24", "Molecular Formula": "C12H14O", "Boiling Point": "129 \u00b0C @ Press: 15 Torr"}}