{"cas_no": "4265-25-2", "cn_name": "2-\u7532\u57fa\u82ef\u5e76\u544b\u5583", "en_name": ["2-Methylbenzofuran", "Benzofuran, 2-methyl-", "2-Methylbenzofuran", "2-Methylcumarone", "2-Methylbenzo[b]furan", "2-Methyl-1-benzofuran"], "SMILES": "CC1=CC=2C(O1)=CC=CC2", "physical_data": {"Molecular Weight": "132.16", "Molecular Formula": "C9H8O", "Boiling Point": "197.5 \u00b0C", "Melting Point": "154-155 \u00b0C", "Density": "1.051 g/cm\u00b3 @ Temp: 22 \u00b0C"}}