{"cas_no": "4265-16-1", "cn_name": "\u82ef\u5e76[b]\u544b\u5583-2-\u7532\u919b", "en_name": ["2-Benzofurancarboxaldehyde", "2-Benzofurancarboxaldehyde", "Coumarilaldehyde", "2-Formylbenzofuran", "2-Benzofurancarbaldehyde", "Benzo[b]-2-furfural", "Benzo[b]furan-2-carboxaldehyde", "Benzo[b]furan-2-aldehyde", "1-Benzofuran-2-carbaldehyde"], "SMILES": "C(=O)C1=CC=2C(O1)=CC=CC2", "physical_data": {"Molecular Weight": "146.14", "Molecular Formula": "C9H6O2", "Boiling Point": "90-100 \u00b0C", "Melting Point": "9-9.5 \u00b0C"}}