{"cas_no": "426844-23-7", "cn_name": "4-\u987a\u5f0f-\u6c1f-L-\u812f\u6c28\u9178\u6c28\u57fa.\u76d0\u9178\u76d0", "en_name": ["2-Pyrrolidinecarboxamide, 4-fluoro-, hydrochloride (1:1), (2S,4S)-", "2-Pyrrolidinecarboxamide, 4-fluoro-, hydrochloride (1:1), (2S,4S)-", "2-Pyrrolidinecarboxamide, 4-fluoro-, monohydrochloride, (2S,4S)-", "(2S,4S)-2-(Aminocarbonyl)-4-fluoropyrrolidine hydrochloride", "(2S,4S)-4-Fluoro-2-pyrrolidinecarboxamide hydrochloride"], "SMILES": "C(N)(=O)C1CC(F)CN1.Cl", "physical_data": {"Molecular Weight": "", "Molecular Formula": "C5H9FN2O.ClH", "Melting Point": "230-231 \u00b0C (decomp)"}}