{"cas_no": "427-49-6", "cn_name": "2-\u73af\u620a\u57fa-2-\u7f9f\u57fa\u82ef\u4e59\u9178", "en_name": ["\u03b1-Cyclopentylmandelic acid", "Benzeneacetic acid, \u03b1-cyclopentyl-\u03b1-hydroxy-", "Mandelic acid, \u03b1-cyclopentyl-", "\u03b1-Cyclopentyl-\u03b1-hydroxybenzeneacetic acid", "Cyclopentylphenylglycolic acid", "\u03b1-Cyclopentylmandelic acid", "NSC 96637", "2-Cyclopentyl-2-hydroxy-2-(phenyl)acetic acid", "(\u00b1)-Cyclopentylmandelic acid", "Cyclopentylhydroxyphenylacetic acid"], "SMILES": "C(C(O)=O)(O)(C1=CC=CC=C1)C2CCCC2", "physical_data": {"Molecular Weight": "220.26", "Molecular Formula": "C13H16O3", "Melting Point": "147-148 \u00b0C"}}