{"cas_no": "427-51-0", "cn_name": "\u918b\u9178\u73af\u4e19\u6c2f\u5730\u5b55\u916e", "en_name": ["Cyproterone acetate", "3\u2032H-Cyclopropa[1,2]pregna-1,4,6-triene-3,20-dione, 17-(acetyloxy)-6-chloro-1,2-dihydro-, (1\u03b2,2\u03b2)-", "3\u2032H-Cyclopropa[1,2]pregna-1,4,6-triene-3,20-dione, 6-chloro-1\u03b2,2\u03b2-dihydro-17-hydroxy-, acetate", "Pregna-4,6-diene-3,20-dione, 6-chloro-17-hydroxy-1\u03b1,2\u03b1-methylene-, acetate", "Cyclopropa[1,2]cyclopenta[a]phenanthrene, 3\u2032H-cyclopropa[1,2]pregna-1,4,6-triene-3,20-dione deriv.", "(1\u03b2,2\u03b2)-17-(Acetyloxy)-6-chloro-1,2-dihydro-3\u2032H-cyclopropa[1,2]pregna-1,4,6-triene-3,20-dione", "SH 714", "17\u03b1-Acetoxy-6-chloro-1\u03b1,2\u03b1-methylenepregna-4,6-diene-3,20-dione", "6-Chloro-1,2\u03b1-methylene-6-dehydro-17\u03b1-hydroxyprogesterone acetate", "6-Chloro-17-hydroxy-1\u03b1,2\u03b1-methylenepregna-4,6-diene-3,20-dione acetate", "6-Chloro-1,2\u03b1-methylene-17\u03b1-hydroxy-\u03946-progesterone acetate", "Cyproterone acetate", "1,2\u03b1-Methylene-6-chloro-pregna-4,6-diene-3,20-dione 17\u03b1-acetate", "1,2\u03b1-Methylene-6-chloro-\u03944,6-pregnadien-17\u03b1-ol-3,20-dione acetate", "Cyproterone 17\u03b1-acetate", "3\u2032H-Cyclopropa[1,2]pregna-1,4,6-triene-3,20-dione", "Cyproterone 17-O-acetate", "1,2\u03b1-Methylene-6-chloro-17\u03b1-acetoxy-4,6-pregnadiene-3,20-dione", "Androcur", "Cyproviron", "Cyprostat", "CPA", "NSC 81430", "Androcur Depot", "MeSH ID: D017373"], "SMILES": "CC12C3C(C3)C(=O)C=C1C(Cl)=CC4C2CCC5(C)C4CCC5(OC(C)=O)C(C)=O", "physical_data": {"Molecular Weight": "416.94", "Molecular Formula": "C24H29ClO4", "Melting Point": "200-201 \u00b0C"}}