{"cas_no": "4270-70-6", "cn_name": "\u4e09\u82ef\u57fa\u6c2f\u5316\u786b\u76d0", "en_name": ["Triphenylsulfonium chloride", "Sulfonium, triphenyl-, chloride (1:1)", "Sulfonium, triphenyl-, chloride", "Triphenylsulfonium chloride"], "SMILES": "[S+](C1=CC=CC=C1)(C2=CC=CC=C2)C3=CC=CC=C3.[Cl-]", "physical_data": {"Molecular Weight": "", "Molecular Formula": "C18H15S.Cl", "Melting Point": "277 \u00b0C"}}