{"cas_no": "4270-27-3", "cn_name": "6-\u6c2f\u5c3f\u5627\u5576", "en_name": ["6-Chlorouracil", "2,4(1H,3H)-Pyrimidinedione, 6-chloro-", "Uracil, 6-chloro-", "6-Chloro-2,4(1H,3H)-pyrimidinedione", "4-Chloro-2,6-dihydroxypyrimidine", "6-Chlorouracil", "6-Chloro-2,4-pyrimidinediol", "6-Chloro-2,4-dihydroxypyrimidine", "6-Chloropyrimidine-2,4(1H,3H)-dione", "NSC 210419", "NSC 43265", "6-Chloropyrimidine-2,4-dione"], "SMILES": "ClC1=CC(=O)NC(=O)N1", "physical_data": {"Molecular Weight": "146.53", "Molecular Formula": "C4H3ClN2O2", "Melting Point": "300 \u00b0C"}}