{"cas_no": "4271-96-9", "cn_name": "1,2-\u4e8c\u7532\u57fa-1,4,5,6-\u56db\u6c22\u5627\u5576", "en_name": ["1,4,5,6-Tetrahydro-1,2-dimethylpyrimidine", "Pyrimidine, 1,4,5,6-tetrahydro-1,2-dimethyl-", "1,4,5,6-Tetrahydro-1,2-dimethylpyrimidine", "1,2-Dimethyl-1,4,5,6-tetrahydropyrimidine", "2,3-Dimethyl-3,4,5,6-tetrahydropyrimidine", "Addocat 1872"], "SMILES": "CC=1N(C)CCCN1", "physical_data": {"Molecular Weight": "112.17", "Molecular Formula": "C6H12N2", "Boiling Point": "86-90 \u00b0C @ Press: 15 Torr"}}