{"cas_no": "4271-30-1", "cn_name": "N-(4-\u6c28\u57fa\u82ef\u7532\u9170)-L-\u8c37\u6c28\u9178", "en_name": ["N-(4-Aminobenzoyl)-L-glutamic acid", "L-Glutamic acid, N-(4-aminobenzoyl)-", "Glutamic acid, N-(p-aminobenzoyl)-, L-", "Glutamic acid, N-(p-aminobenzoyl)-", "N-(4-Aminobenzoyl)-L-glutamic acid", "N-(p-Aminobenzoyl)-L-glutamic acid", "(p-Aminobenzoyl)glutamic acid", "(p-Aminobenzoyl)-L-glutamic acid", "N-(p-Aminobenzoyl)glutamic acid", "N-(p-Aminobenzoyl)-L(+)-glutamic acid", "(4-Aminobenzoyl)-L-glutamic acid", "NSC 71042", "(2S)-2-[(4-Aminobenzoyl)amino]pentanedioic acid", "(S)-2-(4-Aminobenzamido)pentanedioicacid", "BL436"], "SMILES": "C(NC(CCC(O)=O)C(O)=O)(=O)C1=CC=C(N)C=C1", "physical_data": {"Molecular Weight": "266.25", "Molecular Formula": "C12H14N2O5", "Melting Point": "173 \u00b0C"}}