{"cas_no": "42712-64-1", "cn_name": "2-\u6c28\u57fa-4-\u7f9f\u57fa\u55b9\u5549\u6c34\u5408\u7269", "en_name": ["2-Amino-4-hydroxyquinoline", "4-Quinolinol, 2-amino-", "2-Amino-4-quinolinol", "2-Amino-4-hydroxyquinoline", "2-Aminoquinolin-4(1H)-one", "2-Amino-1H-quinolin-4-one"], "SMILES": "OC=1C2=C(N=C(N)C1)C=CC=C2", "physical_data": {"Molecular Weight": "160.17", "Molecular Formula": "C9H8N2O", "Melting Point": "303-304 \u00b0C"}}