{"cas_no": "4272-06-4", "cn_name": "4-\u5341\u4e00\u9187", "en_name": ["4-Undecanol", "4-Undecanol", "(\u00b1)-4-Undecanol", "NSC 158505"], "SMILES": "C(CCCCCCC)(CCC)O", "physical_data": {"Molecular Weight": "172.31", "Molecular Formula": "C11H24O", "Boiling Point": "78-80 \u00b0C @ Press: 2 Torr", "Density": "0.8215 g/cm\u00b3 @ Temp: 20 \u00b0C"}}