{"cas_no": "42729-56-6", "cn_name": "1-\u5f02\u4e19\u57fa-3-\u7f9f\u57fa\u5421\u54af\u70f7\u9187", "en_name": ["1-(1-Methylethyl)-3-pyrrolidinol", "3-Pyrrolidinol, 1-(1-methylethyl)-", "3-Pyrrolidinol, 1-isopropyl-", "1-(1-Methylethyl)-3-pyrrolidinol", "1-Isopropyl-3-pyrrolidinol", "N-Isopropyl-3-hydroxypyrrolidine", "3-Hydroxy-1-isopropylpyrrolidine", "N-Isopropylpyrrolidin-3-ol", "1-(Propan-2-yl)pyrrolidin-3-ol", "1-Propan-2-ylpyrrolidin-3-ol"], "SMILES": "C(C)(C)N1CC(O)CC1", "physical_data": {"Molecular Weight": "129.20", "Molecular Formula": "C7H15NO", "Boiling Point": "98 \u00b0C @ Press: 13 Torr"}}