{"cas_no": "42726-73-8", "cn_name": "\u4e19\u4e8c\u9178\u53d4\u4e01\u916f\u7532\u916f", "en_name": ["1-(1,1-Dimethylethyl) 3-methyl propanedioate", "Propanedioic acid, 1-(1,1-dimethylethyl) 3-methyl ester", "Propanedioic acid, 1,1-dimethylethyl methyl ester", "Malonic acid, tert-butyl methyl ester", "1-(1,1-Dimethylethyl) 3-methyl propanedioate", "Methyl tert-butyl malonate", "tert-Butyl methyl malonate", "Malonic acid methyl tert-butyl ester", "3-O-tert-Butyl 1-O-methyl propanedioate", "1-tert-Butyl 3-methyl propanedioate", "Propanedioic acid methyl tert-butyl ester"], "SMILES": "O(C(C)(C)C)C(CC(OC)=O)=O", "physical_data": {"Molecular Weight": "174.19", "Molecular Formula": "C8H14O4", "Boiling Point": "83-84 \u00b0C @ Press: 15 Torr", "Melting Point": "118-120 \u00b0C", "Density": "1.02 g/cm\u00b3 @ Temp: 25 \u00b0C"}}