{"cas_no": "42728-62-1", "cn_name": "4 - (\u6c2f\u7532\u57fa)\u4e8c\u82ef\u7532\u916e", "en_name": ["[4-(Chloromethyl)phenyl]phenylmethanone", "Methanone, [4-(chloromethyl)phenyl]phenyl-", "[4-(Chloromethyl)phenyl]phenylmethanone", "4-(Chloromethyl)benzophenone", "p-Benzoylbenzyl chloride"], "SMILES": "C(=O)(C1=CC=C(CCl)C=C1)C2=CC=CC=C2", "physical_data": {"Molecular Weight": "230.69", "Molecular Formula": "C14H11ClO", "Boiling Point": "200-210 \u00b0C @ Press: 4.1 Torr"}}