{"cas_no": "4273-98-7", "cn_name": "2-\u6c28\u57fa\u4e8c\u82ef\u781c", "en_name": ["2-(Phenylsulfonyl)aniline", "Benzenamine, 2-(phenylsulfonyl)-", "Aniline, o-(phenylsulfonyl)-", "2-(Phenylsulfonyl)benzenamine", "C.I. 37060", "C.I. Azoic Diazo Component 18", "Diazo Fast Orange LG", "Fast Orange LG Salt", "Fast Orange Salt LG", "2-Aminodiphenyl sulfone", "o-Aminophenyl phenyl sulfone", "2-Aminophenyl phenyl sulfone", "2-(Phenylsulfonyl)aniline", "Fast Red R Base", "Fast Red RC Base", "Fast Red RC Salt", "2-(Benzenesulfonyl)aniline"], "SMILES": "S(=O)(=O)(C1=C(N)C=CC=C1)C2=CC=CC=C2", "physical_data": {"Molecular Weight": "233.29", "Molecular Formula": "C12H11NO2S", "Melting Point": "118-120 \u00b0C"}}