{"cas_no": "4274-38-8", "cn_name": "2-\u6c28\u57fa-4-(\u4e09\u6c1f\u7532\u57fa)\u82ef\u786b\u9187 \u76d0\u9178\u76d0", "en_name": ["Benzenethiol, 2-amino-4-(trifluoromethyl)-, hydrochloride (1:1)", "Benzenethiol, 2-amino-4-(trifluoromethyl)-, hydrochloride (1:1)", "p-Toluenethiol, 2-amino-\u03b1,\u03b1,\u03b1-trifluoro-, hydrochloride", "Benzenethiol, 2-amino-4-(trifluoromethyl)-, hydrochloride", "3-Amino-4-mercaptobenzotrifluoride hydrochloride", "4-Trifluoromethyl-2-aminothiophenol hydrochloride", "2-Amino-4-(trifluoromethyl)benzenethiol hydrochloride", "2-Amino-4-(trifluoromethyl)benzene-1-thiol hydrochloride"], "SMILES": "C(F)(F)(F)C1=CC(N)=C(S)C=C1.Cl", "physical_data": {"Molecular Weight": "", "Molecular Formula": "C7H6F3NS.ClH", "Melting Point": "200-202 \u00b0C"}}