{"cas_no": "42757-55-1", "cn_name": "\u56db\u6eb4\u53cc\u915a S \u53cc(2,3-\u4e8c\u6eb4\u4e19\u57fa)\u919a", "en_name": ["Tetrabromobisphenol S bis(2,3-dibromopropyl ether)", "Benzene, 1,1\u2032-sulfonylbis[3,5-dibromo-4-(2,3-dibromopropoxy)-", "1,1\u2032-Sulfonylbis[3,5-dibromo-4-(2,3-dibromopropoxy)benzene]", "Bis[3,5-dibromo-4-(2,3-dibromopropoxy)phenyl] sulfone", "Nonnen PR 2", "4,4\u2032-Bis(2,3-dibromopropoxy)-3,3\u2032,5,5\u2032-tetrabromodiphenyl sulfone", "PR 2", "Flame Cut 161R", "Tetrabromobisphenol S bis(2,3-dibromopropyl ether)", "Nonnen 52", "Fire Cut P 65CN", "Nonnen PR 2H", "XZ 6600", "1,3-Dibromo-5-[3,5-dibromo-4-(2,3-dibromopropoxy)phenyl]sulfonyl-2-(2,3-dibromopropoxy)benzene", "Bis [3,5-dibromo-4-(2,3-dibromopropoxy) phenyl] sulfone", "FCP 65CN", "DXFR 920", "Greatbay XZ 6600"], "SMILES": "S(=O)(=O)(C1=CC(Br)=C(OCC(CBr)Br)C(Br)=C1)C2=CC(Br)=C(OCC(CBr)Br)C(Br)=C2", "physical_data": {"Molecular Weight": "965.60", "Molecular Formula": "C18H14Br8O4S", "Melting Point": "125 \u00b0C"}}