{"cas_no": "42753-75-3", "cn_name": "5-\u6c28\u57fa\u6c34\u6768\u9178\u7532\u916f", "en_name": ["Methyl 5-amino-2-hydroxybenzoate", "Benzoic acid, 5-amino-2-hydroxy-, methyl ester", "Methyl 5-amino-2-hydroxybenzoate", "Methyl 5-aminosalicylate", "Methyl m-aminosalicylate", "Methyl 2-hydroxy-5-aminobenzoate", "5-Amino-2-hydroxybenzoic acid methyl ester", "4-Amino-2-(methoxycarbonyl)phenol"], "SMILES": "C(OC)(=O)C1=C(O)C=CC(N)=C1", "physical_data": {"Molecular Weight": "167.16", "Molecular Formula": "C8H9NO3", "Melting Point": "97-98 \u00b0C"}}