{"cas_no": "4276-09-9", "cn_name": "D-\u7f2c\u6c28\u9187", "en_name": ["D-Valinol", "1-Butanol, 2-amino-3-methyl-, (2R)-", "1-Butanol, 2-amino-3-methyl-, D-", "1-Butanol, 2-amino-3-methyl-, (R)-", "(2R)-2-Amino-3-methyl-1-butanol", "D-Valinol", "(-)-Valinol", "(R)-Valinol", "(R)-(-)-2-Amino-3-methyl-1-butanol", "(R)-2-Amino-3-methyl-1-butanol", "(R)-2-Amino-3-methylbutanol", "(2R)-2-Amino-3-methylbutan-1-ol", "[(R)-1-(Hydroxymethyl)-2-methylpropyl]amine", "(-)-2-Amino-3-methyl-1-butanol", "(R)-(-)-2-Amino-3-methyl-1-butanol", "(R)-2-Amino-3-methylbutan-2-ol"], "SMILES": "C(C(C)C)(CO)N", "physical_data": {"Molecular Weight": "103.16", "Molecular Formula": "C5H13NO", "Melting Point": "31.5-33.0 \u00b0C"}}