{"cas_no": "4276-49-7", "cn_name": "1-\u6eb4\u4e8c\u5341\u70f7", "en_name": ["1-Bromoeicosane", "Eicosane, 1-bromo-", "1-Bromoeicosane", "Eicosyl bromide", "n-Eicosyl bromide", "NSC 87634", "1-Ecosyl bromide", "1-Bromoicosane"], "SMILES": "C(CCCCCCCCCBr)CCCCCCCCCC", "physical_data": {"Molecular Weight": "361.44", "Molecular Formula": "C20H41Br", "Melting Point": "37-38 \u00b0C"}}