{"cas_no": "4277-34-3", "cn_name": "4-\u7f9f\u57fa\u73af\u8f9b\u70ef", "en_name": ["4-Cycloocten-1-ol", "4-Cycloocten-1-ol", "5-Hydroxycyclooctene", "4-Cyclooctenol", "NSC 119487", "5-Hydroxy-1-cyclooctene", "1-Hydroxy-4-cyclooctene", "1-Hydroxy-5-cyclooctene", "5-Hydroxycycloctene", "Cycloocten-5-ol", "Cyclooct-4-enol"], "SMILES": "OC1CCCC=CCC1", "physical_data": {"Molecular Weight": "126.20", "Molecular Formula": "C8H14O", "Boiling Point": "87.5-90 \u00b0C @ Press: 10 Torr"}}