{"cas_no": "42771-79-9", "cn_name": "4-\u4e59\u9170\u57fa-2-\u6c1f\u8054\u82ef", "en_name": ["1-(2-Fluoro[1,1\u2032-biphenyl]-4-yl)ethanone", "Ethanone, 1-(2-fluoro[1,1\u2032-biphenyl]-4-yl)-", "1-(2-Fluoro[1,1\u2032-biphenyl]-4-yl)ethanone", "4-Acetyl-2-fluorobiphenyl", "3\u2032-Fluoro-4\u2032-phenylacetophenone", "1-(3-Fluoro-4-phenylphenyl)ethan-1-one", "1-(3-Fluoro-4-phenylphenyl)ethanone"], "SMILES": "FC1=C(C=CC(C(C)=O)=C1)C2=CC=CC=C2", "physical_data": {"Molecular Weight": "214.23", "Molecular Formula": "C14H11FO", "Melting Point": "94-95 \u00b0C"}}