{"cas_no": "4277-63-8", "cn_name": "\u7532\u57fa\u5421\u54af-1-\u7fa7\u9178\u916f", "en_name": ["1H-Pyrrole-1-carboxylic acid, methyl ester", "1H-Pyrrole-1-carboxylic acid, methyl ester", "Pyrrole-1-carboxylic acid, methyl ester", "Methyl 1-pyrrolecarboxylate", "N-(Methoxycarbonyl)pyrrole", "N-Carbomethoxypyrrole", "Methyl 1H-pyrrole-1-carboxylate"], "SMILES": "C(OC)(=O)N1C=CC=C1", "physical_data": {"Molecular Weight": "125.13", "Molecular Formula": "C6H7NO2", "Boiling Point": "168-170 \u00b0C"}}