{"cas_no": "42783-04-0", "cn_name": "2-\u6c28\u57fa-5-\u785d\u57fa-3-\u567b\u5429\u7fa7\u9178\u4e59\u916f", "en_name": ["3-Thiophenecarboxylic acid, 2-amino-5-nitro-, ethyl ester", "3-Thiophenecarboxylic acid, 2-amino-5-nitro-, ethyl ester", "Ethyl 2-amino-5-nitro-3-thenoate", "Ethyl 2-amino-5-nitro-3-thiophenecarboxylate", "2-Amino-3-ethoxycarbonyl-5-nitrothiophene"], "SMILES": "C(OCC)(=O)C=1C=C(N(=O)=O)SC1N", "physical_data": {"Molecular Weight": "216.21", "Molecular Formula": "C7H8N2O4S", "Melting Point": "243-246 \u00b0C"}}