{"cas_no": "42783-78-8", "cn_name": "\u82c4\u6c27\u57fa\u4e59\u919b\u4e8c\u4e59\u57fa\u4e59\u7f29\u919b", "en_name": ["[(2,2-Diethoxyethoxy)methyl]benzene", "Benzene, [(2,2-diethoxyethoxy)methyl]-", "[(2,2-Diethoxyethoxy)methyl]benzene", "Benzyloxyacetaldehyde diethyl acetal"], "SMILES": "C(OCC(OCC)OCC)C1=CC=CC=C1", "physical_data": {"Molecular Weight": "224.30", "Molecular Formula": "C13H20O3", "Boiling Point": "143 \u00b0C @ Press: 12 Torr", "Density": "1.0020 g/cm\u00b3 @ Temp: 24.5 \u00b0C"}}