{"cas_no": "42787-75-7", "cn_name": "5-\u6c30\u57fa-5H-\u4e8c\u82ef\u5e76[b,f]\u6c2e\u6742\u5353", "en_name": ["5H-Dibenz[b,f]azepine-5-carbonitrile", "5H-Dibenz[b,f]azepine-5-carbonitrile"], "SMILES": "C(#N)N1C=2C(C=CC=3C1=CC=CC3)=CC=CC2", "physical_data": {"Molecular Weight": "218.25", "Molecular Formula": "C15H10N2", "Melting Point": "109-110 \u00b0C"}}