{"cas_no": "427878-70-4", "cn_name": "5-\u7532\u57fa-4-\u6c27\u4ee3-3,4-\u4e8c\u6c22\u5421\u54af\u5e76[1,2-F][1,2,4]\u4e09\u55ea-6-\u7fa7\u9178\u4e59\u916f", "en_name": ["Ethyl 1,4-dihydro-5-methyl-4-oxopyrrolo[2,1-f][1,2,4]triazine-6-carboxylate", "Pyrrolo[2,1-f][1,2,4]triazine-6-carboxylic acid, 1,4-dihydro-5-methyl-4-oxo-, ethyl ester", "Ethyl 1,4-dihydro-5-methyl-4-oxopyrrolo[2,1-f][1,2,4]triazine-6-carboxylate", "5-Methyl-4-oxo-3,4-dihydropyrrolo[2,1-f][1,2,4]triazine-6-carboxylic acid ethyl ester"], "SMILES": "CC1=C2N(C=C1C(OCC)=O)NC=NC2=O", "physical_data": {"Molecular Weight": "221.21", "Molecular Formula": "C10H11N3O3", "Melting Point": "215 \u00b0C"}}