{"cas_no": "42797-18-2", "cn_name": "O-(1,1'-\u4e8c\u82ef\u57fa-4-\u7fb0\u57fa)\u82ef\u7532\u9178", "en_name": ["2-([1,1\u2032-Biphenyl]-4-ylcarbonyl)benzoic acid", "Benzoic acid, 2-([1,1\u2032-biphenyl]-4-ylcarbonyl)-", "2-([1,1\u2032-Biphenyl]-4-ylcarbonyl)benzoic acid", "o-(4-Phenylbenzoyl)benzoic acid", "2-(4-Phenylbenzoyl)benzoic acid", "o-Xenoylbenzoic acid", "4\u2032-Phenyl-2-benzoylbenzoic acid", "NSC 75270", "2-(4\u2032-Phenylbenzoyl)benzoic acid", "4-Phenylbenzoylbenzoic acid", "2-(4-Biphenylylcarbonyl)benzoic acid"], "SMILES": "C(=O)(C1=C(C(O)=O)C=CC=C1)C2=CC=C(C=C2)C3=CC=CC=C3", "physical_data": {"Molecular Weight": "302.32", "Molecular Formula": "C20H14O3", "Melting Point": "231.5 \u00b0C"}}