{"cas_no": "4279-22-5", "cn_name": "\u4e8c\u6c2f\u4e01\u70f7", "en_name": ["2,2-Dichlorobutane", "Butane, 2,2-dichloro-", "2,2-Dichlorobutane"], "SMILES": "C(CC)(C)(Cl)Cl", "physical_data": {"Molecular Weight": "127.01", "Molecular Formula": "C4H8Cl2", "Boiling Point": "104 \u00b0C", "Melting Point": "-74 \u00b0C", "Density": "1.05 g/cm\u00b3"}}