{"cas_no": "428-59-1", "cn_name": "\u516d\u6c1f\u73af\u6c27\u4e19\u70f7", "en_name": ["Hexafluoropropylene oxide", "Oxirane, 2,2,3-trifluoro-3-(trifluoromethyl)-", "Propane, 1,2-epoxy-1,1,2,3,3,3-hexafluoro-", "Oxirane, trifluoro(trifluoromethyl)-", "2,2,3-Trifluoro-3-(trifluoromethyl)oxirane", "Hexafluoropropylene epoxide", "Hexafluoropropylene oxide", "Hexafluoropropene oxide", "Perfluoropropylene oxide", "Propylene oxide hexafluoride", "(Trifluoromethyl)trifluorooxirane", "Hexafluoropropene epoxide", "Trifluoro(trifluoromethyl)oxirane", "Hexafluoroepoxypropane", "Hexafluoro-1,2-epoxypropane", "Perfluoro(methyloxirane)", "Perfluoropropene oxide", "Hexafluoropropene-1,2-oxide", "1,2-Epoxyhexafluoropropane", "Perfluoropropene-1,2-oxide", "Cheminox FAEP 6"], "SMILES": "C(F)(F)(F)C1(F)C(F)(F)O1", "physical_data": {"Molecular Weight": "166.02", "Molecular Formula": "C3F6O", "Boiling Point": "-27.4 \u00b0C"}}