{"cas_no": "4281-40-7", "cn_name": "6,7-\u4e8c\u7532\u6c27\u57fa-4-\u7532\u57fa\u9999\u8c46\u7d20", "en_name": ["6,7-Dimethoxy-4-methyl-2H-1-benzopyran-2-one", "2H-1-Benzopyran-2-one, 6,7-dimethoxy-4-methyl-", "Coumarin, 6,7-dimethoxy-4-methyl-", "6,7-Dimethoxy-4-methyl-2H-1-benzopyran-2-one", "4-Methyl-6,7-dimethoxycoumarin", "6,7-Dimethoxy-4-methylcoumarin", "NSC 688797"], "SMILES": "CC=1C=2C(=CC(OC)=C(OC)C2)OC(=O)C1", "physical_data": {"Molecular Weight": "220.22", "Molecular Formula": "C12H12O4", "Melting Point": "144 \u00b0C"}}