{"cas_no": "42816-53-5", "cn_name": "5-\u6c28\u57fa\u975b\u7ea2", "en_name": ["5-Aminoisatin", "1H-Indole-2,3-dione, 5-amino-", "Isatin, 5-amino-", "5-Amino-1H-indole-2,3-dione", "5-Aminoisatin"], "SMILES": "O=C1C=2C(NC1=O)=CC=C(N)C2", "physical_data": {"Molecular Weight": "162.15", "Molecular Formula": "C8H6N2O2", "Melting Point": "&gt;360 \u00b0C"}}