{"cas_no": "42823-46-1", "cn_name": "4-\u80cd\u57fa\u82ef\u7532\u9178\u76d0\u9178\u76d0", "en_name": ["4-Guanidinobenzoic acid hydrochloride", "Benzoic acid, 4-[(aminoiminomethyl)amino]-, hydrochloride (1:1)", "Benzoic acid, 4-[(aminoiminomethyl)amino]-, monohydrochloride", "Benzoic acid, p-guanidino-, hydrochloride", "p-Guanidinobenzoic acid hydrochloride", "4-Guanidinobenzoic acid monohydrochloride", "4-Guanidinobenzoic acid hydrochloride", "4-[[Amino(imino)methyl]amino]benzoic acid hydrochloride"], "SMILES": "N(C(=N)N)C1=CC=C(C(O)=O)C=C1.Cl", "physical_data": {"Molecular Weight": "", "Molecular Formula": "C8H9N3O2.ClH", "Melting Point": "268 \u00b0C (decomp)"}}