{"cas_no": "4282-44-4", "cn_name": "\u7898\u5341\u4e00\u70f7", "en_name": ["Undecyl iodide", "Undecane, 1-iodo-", "1-Iodoundecane", "Undecyl iodide", "1-Iodo-n-undecane"], "SMILES": "C(CCCCCI)CCCCC", "physical_data": {"Molecular Weight": "282.20", "Molecular Formula": "C11H23I", "Boiling Point": "125-130 \u00b0C"}}