{"cas_no": "42822-86-6", "cn_name": "\u5b5f\u4e8c\u9187", "en_name": ["p-Menthane-3,8-diol", "Cyclohexanemethanol, 2-hydroxy-\u03b1,\u03b1,4-trimethyl-", "p-Menthane-3,8-diol", "2-Hydroxy-\u03b1,\u03b1,4-trimethylcyclohexanemethanol", "3,8-p-Menthanediol", "1-Hydroxy-5-methyl-2-(1-methyl-1-hydroxyethyl)cyclohexane", "1-Hydroxy-2-(1-methyl-1-hydroxyethyl)-5-methylcyclohexane", "Geranium cyclohexane", "Geranodyle", "Citriodiol", "Citrepel", "Cooling agent 38D", "p-Menthan-3,8-diol", "2-(2-Hydroxypropan-2-yl)-5-methylcyclohexan-1-ol", "2-(2-Hydroxypropan-2-yl)-5-methylcyclohexanol", "Citradiol"], "SMILES": "C(C)(C)(O)C1C(O)CC(C)CC1", "physical_data": {"Molecular Weight": "172.26", "Molecular Formula": "C10H20O2", "Melting Point": "82-83 \u00b0C"}}