{"cas_no": "4282-31-9", "cn_name": "2,5-\u567b\u5429\u4e8c\u7fa7\u9178", "en_name": ["2,5-Thiophenedicarboxylic acid", "2,5-Thiophenedicarboxylic acid", "2,5-Dicarboxythiophene", "NSC 81789", "Thiophene-2,5-dicarboxylic acid"], "SMILES": "C(O)(=O)C=1SC(C(O)=O)=CC1", "physical_data": {"Molecular Weight": "172.16", "Molecular Formula": "C6H4O4S", "Melting Point": "359 \u00b0C"}}