{"cas_no": "4282-34-2", "cn_name": "2,5-\u567b\u5429\u4e8c\u7532\u9178\u7532\u916f", "en_name": ["2,5-Thiophenedicarboxylic acid, 2,5-dimethyl ester", "2,5-Thiophenedicarboxylic acid, 2,5-dimethyl ester", "2,5-Thiophenedicarboxylic acid, dimethyl ester", "Dimethyl 2,5-thiophenedicarboxylate", "2,5-Bismethoxycarbonylthiophene", "Dimethyl thiophene-2,5-carboxylate", "2,5-Dimethyl thiophene-2,5-dicarboxylate"], "SMILES": "C(OC)(=O)C=1SC(C(OC)=O)=CC1", "physical_data": {"Molecular Weight": "200.21", "Molecular Formula": "C8H8O4S", "Melting Point": "148.5-149.5 \u00b0C"}}