{"cas_no": "4282-40-0", "cn_name": "1-\u7898\u5e9a\u70f7", "en_name": ["1-Iodoheptane", "Heptane, 1-iodo-", "1-Iodoheptane", "Heptyl iodide", "n-Heptyl iodide", "1-Heptyl iodide", "NSC 7316", "1-Iodo-n-heptane"], "SMILES": "C(CCCI)CCC", "physical_data": {"Molecular Weight": "226.10", "Molecular Formula": "C7H15I", "Boiling Point": "204 \u00b0C", "Melting Point": "-48.2 \u00b0C", "Density": "1.3774 g/cm\u00b3 @ Temp: 20 \u00b0C"}}