{"cas_no": "42826-42-6", "cn_name": "2,2-\u4e8c\u7532\u57fa\u4e19\u9170\u80bc", "en_name": ["2,2-Dimethylpropanoic acid hydrazide", "Propanoic acid, 2,2-dimethyl-, hydrazide", "Pivalic acid, hydrazide", "2,2-Dimethylpropanoic acid hydrazide", "2,2-Dimethylpropionic acid hydrazide", "Pivaloylhydrazine", "Pivalohydrazide", "tert-Pentanoic acid hydrazide", "2,2-Dimethylpropanoylhydrazine", "2,2-Dimethylpropanehydrazide", "N-(tert-Butylcarbonyl)hydrazine"], "SMILES": "C(C(C)(C)C)(NN)=O", "physical_data": {"Molecular Weight": "116.16", "Molecular Formula": "C5H12N2O", "Boiling Point": "113 \u00b0C @ Press: 12 Torr", "Melting Point": "65 \u00b0C"}}