{"cas_no": "4282-42-2", "cn_name": "1-\u7898\u58ec\u70f7", "en_name": ["1-Iodononane", "Nonane, 1-iodo-", "1-Iodononane", "Nonyl iodide", "1-n-Nonyl iodide", "n-Nonyl iodide", "1-Nonyl iodide", "NSC 5520", "1-Iodo-n-nonane"], "SMILES": "C(CCCCI)CCCC", "physical_data": {"Molecular Weight": "254.15", "Molecular Formula": "C9H19I", "Boiling Point": "107-108 \u00b0C"}}