{"cas_no": "4282-32-0", "cn_name": "\u544b\u5583-2,5-\u4e8c\u7532\u9178\u4e8c\u7532\u916f", "en_name": ["2,5-Dimethyl 2,5-furandicarboxylate", "2,5-Furandicarboxylic acid, 2,5-dimethyl ester", "2,5-Furandicarboxylic acid, dimethyl ester", "2,5-Dimethyl 2,5-furandicarboxylate", "Dimethyl 2,5-furandicarboxylate", "NSC 191940", "Dimethyl 2,5-furanedicarboxylate", "Dimethyl furandicarboxylate", "2,5-Furandicarboxylate dimethyl ester", "2,5-Dimethyl furan-2,5-dicarboxylate"], "SMILES": "C(OC)(=O)C=1OC(C(OC)=O)=CC1", "physical_data": {"Molecular Weight": "184.15", "Molecular Formula": "C8H8O5", "Boiling Point": "140-145 \u00b0C @ Press: 10 Torr", "Melting Point": "112 \u00b0C"}}