{"cas_no": "4282-29-5", "cn_name": "3,4-\u567b\u5429\u4e8c\u7fa7\u9178", "en_name": ["3,4-Thiophenedicarboxylic acid", "3,4-Thiophenedicarboxylic acid", "NSC 672208", "NSC 81793"], "SMILES": "C(O)(=O)C=1C(C(O)=O)=CSC1", "physical_data": {"Molecular Weight": "172.16", "Molecular Formula": "C6H4O4S", "Melting Point": "230-231 \u00b0C"}}