{"cas_no": "42835-89-2", "cn_name": "6-\u6c1f-1,2,3,4-\u56db\u6c22-2-\u7532\u57fa\u55b9\u5549", "en_name": ["6-Fluoro-2-methyl-1,2,3,4-tetrahydroquinoline", "Quinoline, 6-fluoro-1,2,3,4-tetrahydro-2-methyl-", "6-Fluoro-1,2,3,4-tetrahydro-2-methylquinoline", "1,2,3,4-Tetrahydro-6-fluoro-2-methylquinoline", "6-Fluoro-2-methyl-1,2,3,4-tetrahydroquinoline"], "SMILES": "FC=1C=C2C(NC(C)CC2)=CC1", "physical_data": {"Molecular Weight": "165.21", "Molecular Formula": "C10H12FN", "Melting Point": "34-36 \u00b0C"}}