{"cas_no": "42831-50-5", "cn_name": "5-\u7532\u57fa\u5f02\u6076\u5511-4-\u7532\u9178", "en_name": ["5-Methylisoxazole-4-carboxylic acid", "4-Isoxazolecarboxylic acid, 5-methyl-", "5-Methyl-4-isoxazolecarboxylic acid", "5-Methylisoxazole-4-carboxylic acid", "5-Methyl-1,2-oxazole-4-carboxylic acid"], "SMILES": "C(O)(=O)C1=C(C)ON=C1", "physical_data": {"Molecular Weight": "127.10", "Molecular Formula": "C5H5NO3", "Melting Point": "146-147 \u00b0C"}}