{"cas_no": "42835-25-6", "cn_name": "\u6c1f\u7532\u55b9", "en_name": ["Flumequine", "1H,5H-Benzo[ij]quinolizine-2-carboxylic acid, 9-fluoro-6,7-dihydro-5-methyl-1-oxo-", "9-Fluoro-6,7-dihydro-5-methyl-1-oxo-1H,5H-benzo[ij]quinolizine-2-carboxylic acid", "R 802", "Flumequine", "Imequyl", "Flumix", "Flumisol", "Flumiquil", "R 802 (bactericide)", "Flumigal", "Apurone", "Fantacin", "Firestop", "(\u00b1)-Flumequine"], "SMILES": "O=C1C=2C=3N(C=C1C(O)=O)C(C)CCC3C=C(F)C2", "physical_data": {"Molecular Weight": "261.25", "Molecular Formula": "C14H12FNO3", "Melting Point": "253-255 \u00b0C"}}