{"cas_no": "4284-50-8", "cn_name": "N-(4-\u6eb4\u82ef\u57fa)\u7532\u57fa\u78fa\u9170\u80fa", "en_name": ["N-(4-Bromophenyl)methanesulfonamide", "Methanesulfonamide, N-(4-bromophenyl)-", "Methanesulfonanilide, 4\u2032-bromo-", "N-(4-Bromophenyl)methanesulfonamide", "4\u2032-Bromomethanesulfonanilide"], "SMILES": "N(S(C)(=O)=O)C1=CC=C(Br)C=C1", "physical_data": {"Molecular Weight": "250.11", "Molecular Formula": "C7H8BrNO2S", "Melting Point": "134-135 \u00b0C"}}