{"cas_no": "42856-71-3", "cn_name": "(S)-2-\u7532\u57fa\u812f\u6c28\u9178", "en_name": ["2-Methyl-L-proline", "L-Proline, 2-methyl-", "Proline, 2-methyl-, L-", "2-Methyl-L-proline", "(-)-2-Methyl-L-proline", "2-Methylproline", "(-)-2-Methyl-(S)-proline", "\u03b1-Methyl-L-proline", "(S)-2-Methylproline", "(S)-\u03b1-Methylproline", "NSC 14964", "(S)-2-Methylpyrrolidine-2-carboxylic acid", "(2S)-2-Methylpyrrolidine-2-carboxylic acid"], "SMILES": "C(O)(=O)C1(C)CCCN1", "physical_data": {"Molecular Weight": "129.16", "Molecular Formula": "C6H11NO2", "Melting Point": "260 \u00b0C"}}