{"cas_no": "4285-42-1", "cn_name": "N-\u7532\u57fa-N-\u82ef\u57fa\u6c28\u57fa\u7532\u9170\u6c2f", "en_name": ["N-Methyl-N-phenylcarbamic chloride", "Carbamic chloride, N-methyl-N-phenyl-", "Carbaniloyl chloride, N-methyl-", "Carbamic chloride, methylphenyl-", "N-Methyl-N-phenylcarbamic chloride", "Methylphenylcarbamoyl chloride", "N-Methyl-N-phenylcarbamoyl chloride", "N-Methyl-N-phenylcarbamic acid chloride", "NSC 165671", "(Methyl)phenylcarbamic chloride"], "SMILES": "N(C(Cl)=O)(C)C1=CC=CC=C1", "physical_data": {"Molecular Weight": "169.61", "Molecular Formula": "C8H8ClNO", "Boiling Point": "280 \u00b0C", "Melting Point": "88.5 \u00b0C"}}