{"cas_no": "42858-60-6", "cn_name": "3,5-\u4e8c\u6c27\u4ee3\u73af\u5df1\u70f7\u7fa7\u9178", "en_name": ["3,5-Dioxocyclohexanecarboxylic acid", "Cyclohexanecarboxylic acid, 3,5-dioxo-", "3,5-Dioxocyclohexanecarboxylic acid", "5-Carboxy-1,3-cyclohexanedione", "Dihydroresorcylic acid", "Dihydro-\u03b1-resorcylic acid", "3,5-Dioxocyclohexane-1-carboxylic acid"], "SMILES": "C(O)(=O)C1CC(=O)CC(=O)C1", "physical_data": {"Molecular Weight": "156.14", "Molecular Formula": "C7H8O4", "Melting Point": "178.5-180 \u00b0C"}}