{"cas_no": "42854-62-6", "cn_name": "L-\u4e19\u6c28\u9178\u82c4\u916f\u5bf9\u7532\u82ef\u78fa\u9178\u76d0", "en_name": ["L-Alanine, phenylmethyl ester, 4-methylbenzenesulfonate (1:1)", "L-Alanine, phenylmethyl ester, 4-methylbenzenesulfonate (1:1)", "L-Alanine, phenylmethyl ester, 4-methylbenzenesulfonate", "Alanine, benzyl ester, p-toluenesulfonate, L-", "L-Alanine benzyl ester tosylate", "L-Alanine benzyl ester p-toluenesulfonate", "Alanine benzyl ester tosylate", "(S)-Alanine benzyl ester tosylate", "L-Alanine benzyl ester 4-toluenesulfonic acid salt", "L-Alanine benzyl ester p-toluenesulfonate salt", "L-Alanine benzyl ester p-toluenesulfonic acid salt", "(S)-Alanine benzyl ester p-toluenesulfonate", "Benzyl L-alaninate p-toluenesulfonate", "Benzyl L-alaninate tosylate", "(S)-Benzyl 2-aminopropanoate 4-methylbenzenesulfonate"], "SMILES": "S(=O)(=O)(O)C1=CC=C(C)C=C1.C(OC(C(C)N)=O)C1=CC=CC=C1", "physical_data": {"Molecular Weight": "", "Molecular Formula": "C10H13NO2.C7H8O3S", "Melting Point": "115-117 \u00b0C"}}