{"cas_no": "4286-55-9", "cn_name": "6-\u6eb4\u6b63\u5df1\u9187", "en_name": ["6-Bromo-1-hexanol", "1-Hexanol, 6-bromo-", "6-Bromo-1-hexanol", "1-Bromo-6-hydroxyhexane", "6-Hydroxyhexyl bromide", "6-Bromohexyl alcohol", "\u03c9-Bromo-1-hexanol", "1-Bromo-6-hexanol"], "SMILES": "C(CCCO)CCBr", "physical_data": {"Molecular Weight": "181.07", "Molecular Formula": "C6H13BrO", "Boiling Point": "105-106 \u00b0C @ Press: 5 Torr", "Density": "1.3838 g/cm\u00b3 @ Temp: 24 \u00b0C"}}