{"cas_no": "42860-06-0", "cn_name": "4-\u6eb4-3-\u7898\u82ef\u7532\u9178", "en_name": ["4-Bromo-3-iodobenzoic acid", "Benzoic acid, 4-bromo-3-iodo-", "4-Bromo-3-iodobenzoic acid", "3-Iodo-4-bromobenzoic acid"], "SMILES": "C(O)(=O)C1=CC(I)=C(Br)C=C1", "physical_data": {"Molecular Weight": "326.91", "Molecular Formula": "C7H4BrIO2", "Melting Point": "243-244 \u00b0C"}}