{"cas_no": "42864-78-8", "cn_name": "\u76d0\u9178\u8d1d\u51e1\u6d1b\u5c14", "en_name": ["Bevantolol hydrochloride", "2-Propanol, 1-[[2-(3,4-dimethoxyphenyl)ethyl]amino]-3-(3-methylphenoxy)-, hydrochloride (1:1)", "2-Propanol, 1-[[2-(3,4-dimethoxyphenyl)ethyl]amino]-3-(3-methylphenoxy)-, hydrochloride", "1-[(3,4-Dimethoxyphenethyl)amino]-3-(m-tolyloxy)-2-propanol hydrochloride", "CI 775", "Bevantolol hydrochloride", "NC 1400", "Ranestol", "Cl 775", "Vantol", "Sentiloc"], "SMILES": "O(C)C1=C(OC)C=C(CCNCC(COC2=CC(C)=CC=C2)O)C=C1.Cl", "physical_data": {"Molecular Weight": "", "Molecular Formula": "C20H27NO4.ClH", "Melting Point": "137-138 \u00b0C"}}