{"cas_no": "42860-04-8", "cn_name": "4-\u6c2f-3-\u7898\u82ef\u7532\u9178", "en_name": ["4-Chloro-3-iodobenzoic acid", "Benzoic acid, 4-chloro-3-iodo-", "4-Chloro-3-iodobenzoic acid", "3-Iodo-4-chlorobenzoic acid"], "SMILES": "C(O)(=O)C1=CC(I)=C(Cl)C=C1", "physical_data": {"Molecular Weight": "282.46", "Molecular Formula": "C7H4ClIO2", "Melting Point": "216-217 \u00b0C"}}