{"cas_no": "4286-23-1", "cn_name": "4-\u5f02\u4e19\u57fa\u82ef\u915a", "en_name": ["p-Isopropenylphenol", "Phenol, 4-(1-methylethenyl)-", "Phenol, p-isopropenyl-", "4-(1-Methylethenyl)phenol", "p-Isopropenylphenol", "4-Isopropenylphenol", "p-Hydroxy-\u03b1-methylstyrene", "4-Hydroxy-\u03b1-methylstyrene", "2-(4-Hydroxyphenyl)propene", "4-(1-Propen-2-yl)phenol", "\u03b1-Methyl-p-hydroxystyrene", "4-(Methylethenyl)phenol"], "SMILES": "C(C)(=C)C1=CC=C(O)C=C1", "physical_data": {"Molecular Weight": "134.18", "Molecular Formula": "C9H10O", "Boiling Point": "125-160 \u00b0C", "Melting Point": "83-84 \u00b0C"}}