{"cas_no": "42874-03-3", "cn_name": "\u4e59\u6c27\u6c1f\u8349\u919a", "en_name": ["Oxyfluorfen", "Benzene, 2-chloro-1-(3-ethoxy-4-nitrophenoxy)-4-(trifluoromethyl)-", "2-Chloro-1-(3-ethoxy-4-nitrophenoxy)-4-(trifluoromethyl)benzene", "2-Chloro-4-trifluoromethylphenyl 3-ethoxy-4-nitrophenyl ether", "RH 2915", "Oxyfluorfen", "Goal", "4-Trifluoromethyl-2-chloro-3\u2032-ethoxy-4\u2032-nitrophenyl ether", "RH 2915D", "2\u2032-Chloro-3-ethoxy-4\u2032-trifluoromethyl-4-nitrodiphenyl ether", "Goal 2E", "Oxygold", "Galigan", "Koltar", "Goal 2XL", "Fluoxil 24EC", "Oxyfluorfen 4SC"], "SMILES": "N(=O)(=O)C1=C(OCC)C=C(OC2=C(Cl)C=C(C(F)(F)F)C=C2)C=C1", "physical_data": {"Molecular Weight": "361.70", "Molecular Formula": "C15H11ClF3NO4", "Boiling Point": "358.2 \u00b0C", "Melting Point": "84 \u00b0C"}}