{"cas_no": "42882-31-5", "cn_name": "1-\u8418\u4e59\u80fa", "en_name": ["1-(1-Naphthyl)ethylamine", "1-Naphthalenemethanamine, \u03b1-methyl-", "1-Naphthalenemethanamine, \u03b1-methyl-, (\u00b1)-", "\u03b1-Methyl-1-naphthalenemethanamine", "dl-\u03b1-(1-Naphthyl)ethylamine", "(\u00b1)-1-(1-Naphthyl)ethylamine", "(\u00b1)-1-(\u03b1-Naphthyl)ethylamine", "(RS)-1-(1-Naphthyl)ethylamine", "(RS)-1-(\u03b1-Naphthyl)ethylamine", "\u03b1-Methyl-1-naphthalenemethylamine", "1-(\u03b1-Naphthyl)ethylamine", "1-(1-Naphthyl)ethylamine", "1-Amino-1-(1-naphthyl)ethane", "(1-(Naphthalen-1-yl)ethyl)amine", "NSC 180601", "NSC 75881", "(\u00b1)-\u03b1-(1-Naphthyl)ethylamine", "1-(Naphthalen-1-yl)ethanamine", "1-Naphthylethylamine", "1-(Naphthalen-1-yl)ethan-1-amine"], "SMILES": "C(C)(N)C=1C2=C(C=CC1)C=CC=C2", "physical_data": {"Molecular Weight": "171.24", "Molecular Formula": "C12H13N", "Boiling Point": "153 \u00b0C", "Density": "1.063 g/cm\u00b3 @ Temp: 19 \u00b0C"}}