{"cas_no": "42885-14-3", "cn_name": "2-\u6c30\u57fa-5-\u7532\u57fa\u5421\u5576", "en_name": ["5-Methyl-3-pyridinecarbonitrile", "3-Pyridinecarbonitrile, 5-methyl-", "Nicotinonitrile, 5-methyl-", "5-Methyl-3-pyridinecarbonitrile", "3-Cyano-5-methylpyridine", "3-Methyl-5-cyanopyridine", "5-Methylnicotinonitrile", "5-Cyano-3-methylpyridine"], "SMILES": "C(#N)C=1C=C(C)C=NC1", "physical_data": {"Molecular Weight": "118.14", "Molecular Formula": "C7H6N2", "Melting Point": "56-57 \u00b0C"}}