{"cas_no": "4289-98-9", "cn_name": "N-\u7532\u91af\u7532\u786b\u80fa\u9178", "en_name": ["N-Formylmethionine", "L-Methionine, N-formyl-", "Methionine, N-formyl-, L-", "N-Formyl-L-methionine", "N-Formylmethionine", "Formylmethionine", "L-N-Formylmethionine", "Formyl-L-methionine", "L-Formylmethionine", "NSC 334322", "(2S)-2-Formamido-4-(methylsulfanyl)butanoic acid"], "SMILES": "C(CCSC)(NC=O)C(O)=O", "physical_data": {"Molecular Weight": "177.22", "Molecular Formula": "C6H11NO3S", "Melting Point": "100.0-101.5 \u00b0C"}}