{"cas_no": "42890-76-6", "cn_name": "(S)-(-)-1,2,4-\u4e01\u4e09\u9187", "en_name": ["(-)-1,2,4-Butanetriol", "1,2,4-Butanetriol, (2S)-", "1,2,4-Butanetriol, (S)-", "(2S)-1,2,4-Butanetriol", "(S)-1,2,4-Butanetriol", "(2S)-Butane-1,2,4-triol", "(S)-(-)-Butane-1,2,4-triol", "(-)-1,2,4-Butanetriol", "(-)-(S)-1,2,4-Butanetriol", "(S)-Butan-1,2,4-triol", "(2S)-Butane-1,2,4-triol"], "SMILES": "C(CCO)(CO)O", "physical_data": {"Molecular Weight": "106.12", "Molecular Formula": "C4H10O3", "Boiling Point": "133 \u00b0C @ Press: 0.8 Torr"}}