{"cas_no": "42891-22-5", "cn_name": "1-\u786b\u4ee3-\u0392-D-\u5421\u5583\u534a\u4e73\u7cd6", "en_name": ["\u03b2-D-Galactopyranose, 1-thio-, sodium salt (1:1)", "\u03b2-D-Galactopyranose, 1-thio-, sodium salt (1:1)", "\u03b2-D-Galactopyranose, 1-thio-, monosodium salt", "Sodium, (\u03b2-D-galactopyranosylthio)-", "1-Thio-\u03b2-D-galactose sodium salt"], "SMILES": "C(O)C1C(O)C(O)C(O)C(S)O1.[Na]", "physical_data": {"Molecular Weight": "", "Molecular Formula": "C6H12O5S.Na", "Melting Point": "145-148 \u00b0C"}}