{"cas_no": "4289-97-8", "cn_name": "Formyl-L-\u7f2c\u6c28\u9178", "en_name": ["N-Formyl-L-valine", "L-Valine, N-formyl-", "Valine, N-formyl-, L-", "Valine, N-formyl-", "N-Formyl-L-valine", "FVal", "Formylvaline", "N-Formylvaline", "NSC 334343", "(2S)-2-Formamido-3-methylbutanoic acid"], "SMILES": "C(NC=O)(C(C)C)C(O)=O", "physical_data": {"Molecular Weight": "145.16", "Molecular Formula": "C6H11NO3", "Melting Point": "148-149 \u00b0C"}}