{"cas_no": "429-07-2", "cn_name": "\u56db\u4e59\u57fa\u516d\u6c1f\u78f7\u9178\u94f5", "en_name": ["Tetraethylammonium hexafluorophosphate", "Ethanaminium, N,N,N-triethyl-, hexafluorophosphate(1-) (1:1)", "Ammonium, tetraethyl-, hexafluorophosphate(1-)", "Ethanaminium, N,N,N-triethyl-, hexafluorophosphate(1-)", "Tetraethylammonium hexafluorophosphate", "Phosphate(1-), hexafluoro-, N,N,N-triethylethanaminium", "Tetraethylammonium hexafluorophosphate(1-)", "NSC 404041", "[Et4N][PF6]"], "SMILES": "[N+](CC)(CC)(CC)CC.[P+5]([F-])([F-])([F-])([F-])([F-])[F-]", "physical_data": {"Molecular Weight": "", "Molecular Formula": "C8H20N.F6P", "Melting Point": "&gt;250 \u00b0C"}}