{"cas_no": "429-41-4", "cn_name": "\u56db\u4e01\u57fa\u6c1f\u5316\u94f5", "en_name": ["Tetrabutylammonium fluoride", "1-Butanaminium, N,N,N-tributyl-, fluoride (1:1)", "Ammonium, tetrabutyl-, fluoride", "1-Butanaminium, N,N,N-tributyl-, fluoride", "Tetrabutylammonium fluoride", "Tetra-n-butylammonium fluoride", "TBAF"], "SMILES": "[N+](CCCC)(CCCC)(CCCC)CCCC.[F-]", "physical_data": {"Molecular Weight": "", "Molecular Formula": "C16H36N.F", "Melting Point": "24.9 \u00b0C"}}