{"cas_no": "429-60-7", "cn_name": "\u4e09\u6c1f\u4e19\u70f7\u4e09\u7532\u6c27\u57fa\u7845\u70f7", "en_name": ["(3,3,3-Trifluoropropyl)trimethoxysilane", "Silane, trimethoxy(3,3,3-trifluoropropyl)-", "Trimethoxy(3,3,3-trifluoropropyl)silane", "(3,3,3-Trifluoropropyl)trimethoxysilane", "1,1,1-Trifluoro-3-(trimethoxysilyl)propane", "T 2847", "XC 95-418", "TSL 8262", "LS 1090", "Q 3-9030", "AY 43-013", "KBM 7103", "AP Silane 75", "FAS 3 (silane)", "FAS 3", "Z 6333", "Dow Corning Z 9030", "Z 9030", "DB-F 1100", "SIT 8372.0", "Trimethoxy(1H,1H,2H,2H-trifluoro-n-propyl)silane", "FAS 3M", "KH 331"], "SMILES": "[Si](CCC(F)(F)F)(OC)(OC)OC", "physical_data": {"Molecular Weight": "218.25", "Molecular Formula": "C6H13F3O3Si", "Boiling Point": "144 \u00b0C", "Density": "1.137 g/cm\u00b3"}}