{"cas_no": "429-06-1", "cn_name": "\u56db\u4e59\u57fa\u56db\u6c1f\u787c\u9178\u94f5", "en_name": ["Tetraethylammonium tetrafluoroborate", "Ethanaminium, N,N,N-triethyl-, tetrafluoroborate(1-) (1:1)", "Ammonium, tetraethyl-, tetrafluoroborate(1-)", "Ethanaminium, N,N,N-triethyl-, tetrafluoroborate(1-)", "Tetraethylammonium tetrafluoroborate", "Borate(1-), tetrafluoro-, tetraethylammonium", "Borate(1-), tetrafluoro-, N,N,N-triethylethanaminium", "Tetraethylammonium tetrafluoroborate(1-)", "NSC 231537", "Merck Supercapacitor Electrolyte LES 100", "LES 100", "Digirena", "Lipaste P/EAFIN", "Lipaste AN/EAF 1"], "SMILES": "[N+](CC)(CC)(CC)CC.[B+3]([F-])([F-])([F-])[F-]", "physical_data": {"Molecular Weight": "", "Molecular Formula": "C8H20N.BF4", "Melting Point": "365-368 \u00b0C"}}