{"cas_no": "429-42-5", "cn_name": "\u56db\u4e01\u57fa\u56db\u6c1f\u787c\u9178\u94f5", "en_name": ["Tetrabutylammonium tetrafluoroborate", "1-Butanaminium, N,N,N-tributyl-, tetrafluoroborate(1-) (1:1)", "Ammonium, tetrabutyl-, tetrafluoroborate(1-)", "Tetrabutylammonium tetrafluoroborate", "1-Butanaminium, N,N,N-tributyl-, tetrafluoroborate(1-)", "Borate(1-), tetrafluoro-, tetrabutylammonium", "Borate(1-), tetrafluoro-, N,N,N-tributyl-1-butanaminium", "Tetrabutylammonium fluoborate", "Tetrabutylammonium tetrafluoroborate(1-)", "Tetra-n-butylammonium tetrafluoroborate", "Tetrabutylammonium tetrafluoroborane", "Ammonium tetra-n-butyl tetrafluoroborate"], "SMILES": "[N+](CCCC)(CCCC)(CCCC)CCCC.[B+3]([F-])([F-])([F-])[F-]", "physical_data": {"Molecular Weight": "", "Molecular Formula": "C16H36N.BF4", "Melting Point": "158-159 \u00b0C"}}