{"cas_no": "42906-19-4", "cn_name": "4-\u4e8c\u5bf9\u7532\u82ef\u80fa\u57fa\u82ef\u7532\u919b", "en_name": ["4-[Bis(4-methylphenyl)amino]benzaldehyde", "Benzaldehyde, 4-[bis(4-methylphenyl)amino]-", "4-[Bis(4-methylphenyl)amino]benzaldehyde", "4-(Bis-p-tolylamino)benzaldehyde", "4-(Di-p-tolylamino)benzaldehyde", "4-(N,N-Di-p-tolylamino)benzaldehyde", "4-[N,N-Bis(4-methylphenyl)amino]benzaldehyde", "N-(4-Formylphenyl)-N,N-bis(4-methylphenyl)amine", "4,4\u2032-Dimethyl-4\u2032\u2032-formyltriphenylamine", "(p-Formylphenyl)di(p-methylphenyl)amine", "N,N-Bis(4-methylphenyl)-4-aminobenzaldehyde", "4-[N,N-Di(4-methylphenyl)amino]benzaldehyde", "4-(Di[4\u2032-methylphenyl]amino)benzaldehyde"], "SMILES": "N(C1=CC=C(C=O)C=C1)(C2=CC=C(C)C=C2)C3=CC=C(C)C=C3", "physical_data": {"Molecular Weight": "301.38", "Molecular Formula": "C21H19NO", "Melting Point": "112-113 \u00b0C"}}