{"cas_no": "4290-13-5", "cn_name": "\u88c2\u53f6\u82e3\u835a\u83b1\u5185\u916f", "en_name": ["Santamarin", "Naphtho[1,2-b]furan-2(3H)-one, 3a,4,5,5a,6,7,9a,9b-octahydro-6-hydroxy-5a,9-dimethyl-3-methylene-, (3aS,5aR,6R,9aS,9bS)-", "Eudesma-3,11(13)-dien-12-oic acid, 1\u03b2,6\u03b1-dihydroxy-, \u03b3-lactone", "Balchanin", "Naphtho[1,2-b]furan-2(3H)-one, 3a,4,5,5a,6,7,9a,9b-octahydro-6-hydroxy-5a,9-dimethyl-3-methylene-, [3aS-(3a\u03b1,5a\u03b2,6\u03b2,9a\u03b1,9b\u03b2)]-", "(3aS,5aR,6R,9aS,9bS)-3a,4,5,5a,6,7,9a,9b-Octahydro-6-hydroxy-5a,9-dimethyl-3-methylenenaphtho[1,2-b]furan-2(3H)-one", "Santamarin", "Santamarine"], "SMILES": "CC12C(C3C(CC1)C(=C)C(=O)O3)C(C)=CCC2O", "physical_data": {"Molecular Weight": "248.32", "Molecular Formula": "C15H20O3", "Melting Point": "142 \u00b0C"}}