{"cas_no": "42908-86-1", "cn_name": "2-(\u6c2f\u7532\u57fa)\u82ef\u7532\u9170\u6c2f", "en_name": ["2-(Chloromethyl)benzoyl chloride", "Benzoyl chloride, 2-(chloromethyl)-", "o-Toluoyl chloride, \u03b1-chloro-", "2-(Chloromethyl)benzoyl chloride", "o-Chloromethylbenzoyl chloride", "2-(Chloromethyl)benzoic acid chloride"], "SMILES": "C(Cl)C1=C(C(Cl)=O)C=CC=C1", "physical_data": {"Molecular Weight": "189.04", "Molecular Formula": "C8H6Cl2O", "Boiling Point": "135 \u00b0C @ Press: 14 Torr"}}