{"cas_no": "4291-63-8", "cn_name": "\u514b\u62c9\u5c48\u6ee8", "en_name": ["Cladribine", "Adenosine, 2-chloro-2\u2032-deoxy-", "2-Chloro-2\u2032-deoxyadenosine", "2-Chloro-2\u2032-deoxy-\u03b2-adenosine", "2-Chloro-6-amino-9-(2-deoxy-\u03b2-D-erythro-pentofuranosyl)purine", "2-Chlorodeoxyadenosine", "NSC 105014-F", "Cladribine", "RWJ 26251", "Leustatin", "2-CdA", "Cladarabine", "NSC 105014", "CldAdo", "Jk 6251", "Biodribin", "Leustat", "(2R,3S,5R)-5-(6-Amino-2-chloropurin-9-yl)-2-(hydroxymethyl)oxolan-3-ol", "Vero-Cladribine", "Mavenclad", "Litak", "MeSH ID: D017338"], "SMILES": "NC1=C2C(N(C=N2)C3OC(CO)C(O)C3)=NC(Cl)=N1", "physical_data": {"Molecular Weight": "285.69", "Molecular Formula": "C10H12ClN5O3", "Melting Point": "208-210 \u00b0C"}}