{"cas_no": "4291-60-5", "cn_name": "\u9999\u6e05\u5170\u82f7", "en_name": ["Tilianin", "4H-1-Benzopyran-4-one, 7-(\u03b2-D-glucopyranosyloxy)-5-hydroxy-2-(4-methoxyphenyl)-", "Tilianin", "7-(\u03b2-D-Glucopyranosyloxy)-5-hydroxy-2-(4-methoxyphenyl)-4H-1-benzopyran-4-one", "Moldavoside", "Acacetin 7-O-\u03b2-D-glucopyranoside", "Acacetin 7-O-glucoside", "Acacetin 7-glucoside", "Astroside", "7-O-\u03b2-D-Glucopyranosyl-4\u2032-methylapigenin", "Acacetin 7-O-\u03b2-D-glucoside", "Apigenin-7-O-\u03b2-D-glucopyranoside-4\u2032-O-methyl ether", "Tilianine", "Clerodendronone 1b"], "SMILES": "O=C1C=2C(OC(=C1)C3=CC=C(OC)C=C3)=CC(OC4OC(CO)C(O)C(O)C4O)=CC2O", "physical_data": {"Molecular Weight": "446.40", "Molecular Formula": "C22H22O10", "Melting Point": "260-262 \u00b0C"}}