{"cas_no": "42918-86-5", "cn_name": "(S)-2-(\u82c4\u6c27\u7fb0\u57fa\u6c28\u57fa)\u4e01\u9178", "en_name": ["(2S)-2-[[(Phenylmethoxy)carbonyl]amino]butanoic acid", "Butanoic acid, 2-[[(phenylmethoxy)carbonyl]amino]-, (2S)-", "Butanoic acid, 2-[[(phenylmethoxy)carbonyl]amino]-, (S)-", "(2S)-2-[[(Phenylmethoxy)carbonyl]amino]butanoic acid", "(S)-2-(Benzyloxycarbonylamino)butyric acid", "NSC 164666", "(S)-2-(((Benzyloxy)carbonyl)amino)butanoic acid", "(2S)-2-[[(Benzyloxy)carbonyl]amino]butanoic acid", "L-Cbz-Aminobutyric acid", "(2S)-2-[[(Benzyloxy)carbonyl]amino]butanoic acid"], "SMILES": "C(OC(NC(C(O)=O)CC)=O)C1=CC=CC=C1", "physical_data": {"Molecular Weight": "237.25", "Molecular Formula": "C12H15NO4", "Melting Point": "79 \u00b0C"}}