{"cas_no": "42916-73-4", "cn_name": "4-\u6b63\u620a\u9170\u8054\u82ef", "en_name": ["1-[1,1\u2032-Biphenyl]-4-yl-1-pentanone", "1-Pentanone, 1-[1,1\u2032-biphenyl]-4-yl-", "1-[1,1\u2032-Biphenyl]-4-yl-1-pentanone", "p-Phenylvalerophenone", "4-Pentanoylbiphenyl", "4-Valerylbiphenyl", "1-(4-Biphenylyl)-1-pentanone", "1-(4-Phenylphenyl)pentan-1-one"], "SMILES": "C(CCCC)(=O)C1=CC=C(C=C1)C2=CC=CC=C2", "physical_data": {"Molecular Weight": "238.32", "Molecular Formula": "C17H18O", "Melting Point": "76-78 \u00b0C"}}