{"cas_no": "4292-75-5", "cn_name": "n-\u5df1\u57fa\u73af\u5df1\u70f7", "en_name": ["Hexylcyclohexane", "Cyclohexane, hexyl-", "Hexane, 1-cyclohexyl-", "Hexylcyclohexane", "n-Hexylcyclohexane", "1-Cyclohexylhexane", "NSC 95433"], "SMILES": "C(CCCCC)C1CCCCC1", "physical_data": {"Molecular Weight": "168.32", "Molecular Formula": "C12H24", "Boiling Point": "224 \u00b0C", "Melting Point": "-43 \u00b0C", "Density": "0.806 g/cm\u00b3 @ Temp: 20 \u00b0C"}}