{"cas_no": "42923-79-5", "cn_name": "7-\u785d\u57fa-1,2,3,4-\u56db\u6c22\u5f02\u55b9\u5549", "en_name": ["1,2,3,4-Tetrahydro-7-nitroisoquinoline", "Isoquinoline, 1,2,3,4-tetrahydro-7-nitro-", "1,2,3,4-Tetrahydro-7-nitroisoquinoline"], "SMILES": "N(=O)(=O)C=1C=C2C(=CC1)CCNC2", "physical_data": {"Molecular Weight": "178.19", "Molecular Formula": "C9H10N2O2", "Melting Point": "121 \u00b0C"}}