{"cas_no": "4292-19-7", "cn_name": "1-\u7898\u5341\u4e8c\u70f7", "en_name": ["1-Iodododecane", "Dodecane, 1-iodo-", "1-Iodododecane", "Dodecyl iodide", "Lauryl iodide", "n-Dodecyl iodide", "1-Dodecyl iodide", "NSC 9285", "Iodododecane"], "SMILES": "C(CCCCCC)CCCCCI", "physical_data": {"Molecular Weight": "296.23", "Molecular Formula": "C12H25I", "Boiling Point": "298.2 \u00b0C", "Melting Point": "0.3 \u00b0C"}}