{"cas_no": "4292-92-6", "cn_name": "\u620a\u57fa\u73af\u4e59\u70f7", "en_name": ["Pentylcyclohexane", "Cyclohexane, pentyl-", "Pentylcyclohexane", "Pentane, 1-cyclohexyl-", "Amylcyclohexane"], "SMILES": "C(CCCC)C1CCCCC1", "physical_data": {"Molecular Weight": "154.29", "Molecular Formula": "C11H22", "Boiling Point": "203.7 \u00b0C", "Melting Point": "-57.5 \u00b0C", "Density": "0.802 g/cm\u00b3 @ Temp: 20 \u00b0C"}}