{"cas_no": "42924-53-8", "cn_name": "\u8418\u4e01\u7f8e\u916e", "en_name": ["Nabumetone", "2-Butanone, 4-(6-methoxy-2-naphthalenyl)-", "4-(6-Methoxy-2-naphthalenyl)-2-butanone", "4-(6-Methoxy-2-naphthyl)-2-butanone", "Nabumetone", "BRL 14777", "Relafen", "Nabumeton", "1-(2\u2032-Methoxynaphth-6\u2032-yl)butan-3-one", "Arthaxan", "Relifex", "Nabuser", "Balmox", "Consolan", "Relifen", "Nabugesic 500", "Gambaran", "Coxalgan", "Nabucox", "Nabuton VP", "Rodanol", "Relif"], "SMILES": "C(CC(C)=O)C1=CC2=C(C=C(OC)C=C2)C=C1", "physical_data": {"Molecular Weight": "228.29", "Molecular Formula": "C15H16O2", "Melting Point": "80 \u00b0C"}}