{"cas_no": "4292-25-5", "cn_name": "\u5b63\u94f5\u76d0", "en_name": ["1-Octadecanaminium, N,N,N-trimethyl-, iodide (1:1)", "1-Octadecanaminium, N,N,N-trimethyl-, iodide (1:1)", "Ammonium, trimethyloctadecyl-, iodide", "1-Octadecanaminium, N,N,N-trimethyl-, iodide", "Trimethyloctadecylammonium iodide", "Quaternol 2", "Trimethylstearylammonium iodide", "N-Octadecyl-N,N,N-trimethylammonium iodide", "Octadecyltrimethylammonium iodide", "Trimethyl(octadecanyl)ammonium iodide", "Stearyltrimethylammonium iodide"], "SMILES": "C(CCCCCCCCCCCCCCC)CC[N+](C)(C)C.[I-]", "physical_data": {"Molecular Weight": "", "Molecular Formula": "C21H46N.I", "Melting Point": "238-241 \u00b0C"}}