{"cas_no": "4294-45-5", "cn_name": "D,L - \u82cf - \u0392-\u7f9f\u57fa\u5929\u95e8\u51ac\u6c28\u9178", "en_name": ["DL-threo-\u03b2-Hydroxyaspartic acid", "D-Aspartic acid, 3-hydroxy-, (3R)-rel-", "Aspartic acid, 3-hydroxy-, DL-threo-", "DL-Aspartic acid, 3-hydroxy-, threo-", "rel-(3R)-3-Hydroxy-D-aspartic acid", "DL-threo-3-Hydroxyaspartic acid", "DL-threo-\u03b2-Hydroxyaspartic acid", "threo-3-Hydroxy-DL-aspartic acid"], "SMILES": "C(C(C(O)=O)O)(C(O)=O)N", "physical_data": {"Molecular Weight": "149.10", "Molecular Formula": "C4H7NO5", "Melting Point": "220-260 \u00b0C (decomp)"}}