{"cas_no": "4294-57-9", "cn_name": "\u5bf9\u7532\u82ef\u57fa\u6eb4\u5316\u9541", "en_name": ["p-Tolylmagnesium bromide", "Magnesium, bromo(4-methylphenyl)-", "Magnesium, bromo-p-tolyl-", "p-Tolylmagnesium bromide", "Bromo(4-methylphenyl)magnesium", "Bromo-p-tolylmagnesium", "(p-Methylphenyl)magnesium bromide", "(4-Methylphenyl)magnesium bromide", "4-Tolylmagnesium bromide", "Bromo(4-tolyl)magnesium", "Bromo(p-methylphenyl)magnesium", "T 1700", "Para-methylphenylmagnesium bromide"], "SMILES": "[Mg](Br)C1=CC=C(C)C=C1", "physical_data": {"Molecular Weight": "", "Molecular Formula": "C7H7BrMg", "Melting Point": "143-144 \u00b0C"}}