{"cas_no": "4294-16-0", "cn_name": "6-\u82c4\u57fa\u817a\u82f7", "en_name": ["Benzyladenosine", "Adenosine, N-(phenylmethyl)-", "Adenosine, N-benzyl-", "N-(Phenylmethyl)adenosine", "6-(Benzylamino)-9-\u03b2-D-ribofuranosylpurine", "6-Benzyladenosine", "6-(Benzylamino)purine riboside", "N-Benzyladenosine", "Benzyladenosine", "N6-Benzyladenosine", "Benzyladenine riboside", "6-(Benzylamino)purine 9-\u03b2-ribofuranoside", "9-\u03b2-D-Ribofuranosyl-6-benzyladenine", "N6-Benzyladenine 9-riboside", "NSC 70423", "6-Benzyladenine riboside", "NQZ-004", "CM 223"], "SMILES": "OC1C(N2C=3C(N=C2)=C(NCC4=CC=CC=C4)N=CN3)OC(CO)C1O", "physical_data": {"Molecular Weight": "357.36", "Molecular Formula": "C17H19N5O4", "Melting Point": "177-179 \u00b0C", "Density": "1.48 g/cm\u00b3"}}