{"cas_no": "4295-99-2", "cn_name": "4-\u6c30\u57fa\u56db\u6c22\u5421\u5583", "en_name": ["Tetrahydro-2H-pyran-4-carbonitrile", "2H-Pyran-4-carbonitrile, tetrahydro-", "Tetrahydro-2H-pyran-4-carbonitrile", "4-Cyanotetrahydropyran", "Tetrahydropyran-4-carbonitrile", "Oxane-4-carbonitrile", "4-Cyanotetrahydro-4H-pyran"], "SMILES": "C(#N)C1CCOCC1", "physical_data": {"Molecular Weight": "111.14", "Molecular Formula": "C6H9NO", "Boiling Point": "82-83 \u00b0C @ Press: 10 Torr", "Density": "1.0343 g/cm\u00b3 @ Temp: 20 \u00b0C"}}