{"cas_no": "4295-55-0", "cn_name": "\u6c2f\u706d\u9178", "en_name": ["2-[(2,3-Dichlorophenyl)amino]benzoic acid", "Benzoic acid, 2-[(2,3-dichlorophenyl)amino]-", "Anthranilic acid, N-(2,3-dichlorophenyl)-", "2-[(2,3-Dichlorophenyl)amino]benzoic acid", "Clofenamic acid", "N-(2,3-Dichlorophenyl)anthranilic acid", "2-(2,3-Dichloroanilino)benzoic acid"], "SMILES": "N(C1=C(C(O)=O)C=CC=C1)C2=C(Cl)C(Cl)=CC=C2", "physical_data": {"Molecular Weight": "282.12", "Molecular Formula": "C13H9Cl2NO2", "Melting Point": "256-257 \u00b0C"}}