{"cas_no": "4295-06-1", "cn_name": "4-\u6c2f\u55b9\u54ea\u5576", "en_name": ["4-Chloro-2-methylquinoline", "Quinoline, 4-chloro-2-methyl-", "Quinaldine, 4-chloro-", "4-Chloro-2-methylquinoline", "4-Chloroquinaldine", "NSC 89752", "2-Methyl-4-chloroquinoline"], "SMILES": "ClC=1C2=C(N=C(C)C1)C=CC=C2", "physical_data": {"Molecular Weight": "177.63", "Molecular Formula": "C10H8ClN", "Boiling Point": "269.5 \u00b0C", "Melting Point": "42.5 \u00b0C"}}