{"cas_no": "42969-65-3", "cn_name": "(R)-(+)-3-\u4e01\u7094-2-\u9187", "en_name": ["3-Butyn-2-ol, (2R)-", "3-Butyn-2-ol, (2R)-", "3-Butyn-2-ol, (R)-", "(+)-1-Butyn-3-ol", "(+)-3-Butyn-2-ol", "(R)-(+)-3-Butyn-2-ol", "(R)-3-Butyn-2-ol", "(R)-1-Butyn-3-ol", "(2R)-3-Butyn-2-ol", "(2R)-But-3-yn-2-ol", "(R)-(+)-1-Methylpropargyl alcohol", "(R)-But-3-yn-2-ol"], "SMILES": "C(C#C)(C)O", "physical_data": {"Molecular Weight": "70.09", "Molecular Formula": "C4H6O", "Boiling Point": "100 \u00b0C @ Press: 130 mmHg"}}