{"cas_no": "429659-01-8", "cn_name": "3-(4-(\u7532\u57fa\u6c28\u57fa)-3-\u785d\u57fa-N-(\u5421\u5576-2-\u57fa)\u82ef\u7532\u9170\u6c28\u57fa)\u4e19\u9178\u4e59\u916f", "en_name": ["N-[4-(Methylamino)-3-nitrobenzoyl]-N-2-pyridinyl-\u03b2-alanine ethyl ester", "\u03b2-Alanine, N-[4-(methylamino)-3-nitrobenzoyl]-N-2-pyridinyl-, ethyl ester", "N-[4-(Methylamino)-3-nitrobenzoyl]-N-2-pyridinyl-\u03b2-alanine ethyl ester", "Ethyl 3-[[4-(methylamino)-3-nitrobenzoyl](pyridin-2-yl)amino]propanoate"], "SMILES": "N(C(=O)C1=CC(N(=O)=O)=C(NC)C=C1)(CCC(OCC)=O)C2=CC=CC=N2", "physical_data": {"Molecular Weight": "372.38", "Molecular Formula": "C18H20N4O5", "Melting Point": "86-88 \u00b0C"}}