{"cas_no": "42978-66-5", "cn_name": "\u4e8c\u7f29\u4e09\u4e19\u4e8c\u9187\u4e8c\u4e19\u70ef\u9178\u916f", "en_name": ["Tripropylene glycol diacrylate", "2-Propenoic acid, 1,1\u2032-[(1-methyl-1,2-ethanediyl)bis[oxy(methyl-2,1-ethanediyl)]] ester", "2-Propenoic acid, (1-methyl-1,2-ethanediyl)bis[oxy(methyl-2,1-ethanediyl)] ester", "Tripropylene glycol diacrylate", "Photomer 4061", "Chemlink 51", "SR 306", "Aronix M 220", "Setacure AM 553", "Kayarad TPGDA", "Sartomer 306", "NK Ester APG 200", "MAX 2101", "TPGDA", "Viscoat 310HP", "310HP", "M 220", "Laromer TPGDA", "Actilane 424", "SR 3069", "TRPGDA", "Ebecryl TRPGDA-DEO", "Ultraglide UV 701", "Everglide UV 636", "APG 200", "Viscoat 310HG", "KS-TPGDA", "Genomer 1234", "SR 306HP", "Ph 4061F", "Ebecryl TPGDA", "Sartomer SR 306", "Viscoat 310", "Miramer M 220", "SR 306H", "Etermer EM 223", "EM 223", "AgiSyn 2815", "EB 1110", "V 310HP", "SR 306F", "SM 623", "Tri(propene oxide) dipropenoate", "EvergGlide UV 636", "Sartomer 306HP", "SR 306NS", "LM 259", "Doublemer TPGDA", "Cognis 4061", "(1-Methyl-1,2-ethanediyl)bis[oxy(methyl-2,1-ethanediyl)] diacrylate", "GM 62A00", "EM 223TF", "LM 259H", "Viscoat 30HP"], "SMILES": "", "physical_data": {"Molecular Weight": "", "Molecular Formula": "C15H24O6", "Boiling Point": "&gt;100 \u00b0C"}}