{"cas_no": "42973-56-8", "cn_name": "2-\u7f9f\u57fa-3-\u7532\u6c27\u57fa\u82ef\u7532\u8148", "en_name": ["2-Hydroxy-3-methoxybenzeneacetonitrile", "Benzeneacetonitrile, 2-hydroxy-3-methoxy-", "2-Hydroxy-3-methoxybenzeneacetonitrile", "(2-Hydroxy-3-methoxyphenyl)acetonitrile", "NSC 291918", "2-(2-Hydroxy-3-methoxyphenyl)acetonitrile"], "SMILES": "C(C#N)C1=C(O)C(OC)=CC=C1", "physical_data": {"Molecular Weight": "163.17", "Molecular Formula": "C9H9NO2", "Melting Point": "102-104 \u00b0C"}}