{"cas_no": "42971-12-0", "cn_name": "\u957f\u6625\u897f\u6c40\u6742\u8d28F", "en_name": ["1H-Indolo[3,2,1-de]pyrido[3,2,1-ij][1,5]naphthyridine-12-carboxylic acid, 13a-ethyl-2,3,5,6,13a,13b-hexahydro-, ethyl ester, (13aR,13bR)-", "1H-Indolo[3,2,1-de]pyrido[3,2,1-ij][1,5]naphthyridine-12-carboxylic acid, 13a-ethyl-2,3,5,6,13a,13b-hexahydro-, ethyl ester, (13aR,13bR)-", "Eburnamenine-14-carboxylic acid, ethyl ester", "1H-Indolo[3,2,1-de]pyrido[3,2,1-ij][1,5]naphthyridine, eburnamenine-14-carboxylic acid deriv.", "(-)-Ethyl apovincaminate", "Ethyl eburnamenine-14-carboxylate", "(-)-Apovincaminic acid ethyl ester"], "SMILES": "C(C)C12C3C=4N(C=5C(C4CCN3CCC1)=CC=CC5)C(C(OCC)=O)=C2", "physical_data": {"Molecular Weight": "350.45", "Molecular Formula": "C22H26N2O2", "Melting Point": "148-151 \u00b0C"}}