{"cas_no": "42971-09-5", "cn_name": "\u957f\u6625\u897f\u6c40", "en_name": ["Vinpocetine", "Eburnamenine-14-carboxylic acid, ethyl ester, (3\u03b1,16\u03b1)-", "1H-Indolo[3,2,1-de]pyrido[3,2,1-ij][1,5]naphthyridine, eburnamenine-14-carboxylic acid deriv.", "Ethyl apovincaminate", "Cavinton", "RGH 4405", "Vinpocetine", "(+)-cis-Apovincaminic acid ethyl ester", "Apovincaminic acid ethyl ester", "Ethyl (+)-apovincaminate", "Ethyl (+)-cis-apovincaminate", "cis-Apovincaminic acid ethyl ester", "TCV 3B", "(+)-Apovincaminic acid ethyl ester", "Ceractin", "AY 27255", "Ultra-Vinca", "Bravinton", "Vinporal", "(+)-Vinpocetine"], "SMILES": "C(C)C12C3C=4N(C=5C(C4CCN3CCC1)=CC=CC5)C(C(OCC)=O)=C2", "physical_data": {"Molecular Weight": "350.45", "Molecular Formula": "C22H26N2O2", "Melting Point": "147-153 \u00b0C (decomp)"}}