{"cas_no": "42981-08-8", "cn_name": "2,3',4'-\u4e09\u6c2f\u82ef\u4e59\u916e", "en_name": ["2-Chloro-1-(3,4-dichlorophenyl)ethanone", "Ethanone, 2-chloro-1-(3,4-dichlorophenyl)-", "Acetophenone, 2,3\u2032,4\u2032-trichloro-", "2-Chloro-1-(3,4-dichlorophenyl)ethanone", "2,3\u2032,4\u2032-Trichloroacetophenone", "NSC 243689", "2-Chloro-3\u2032,4\u2032-dichloroacetophenone", "3,4-Dichlorophenacyl chloride", "2-Chloro-1-(3,4-dichlorophenyl)ethan-1-one"], "SMILES": "C(CCl)(=O)C1=CC(Cl)=C(Cl)C=C1", "physical_data": {"Molecular Weight": "223.48", "Molecular Formula": "C8H5Cl3O", "Boiling Point": "171-173 \u00b0C @ Press: 15 Torr", "Melting Point": "44 \u00b0C"}}