{"cas_no": "4298-08-2", "cn_name": "\u53cd-3-\u7f9f\u57fa-L-\u812f\u6c28\u9178", "en_name": ["trans-3-Hydroxy-L-proline", "L-Proline, 3-hydroxy-, (3S)-", "Proline, 3-hydroxy-, L-trans-", "L-Proline, 3-hydroxy-, trans-", "(3S)-3-Hydroxy-L-proline", "trans-3-Hydroxy-L-proline", "trans-3-Hydroxyproline", "(2S,3S)-(-)-3-Hydroxy-L-proline", "(2S,3S)-3-Hydroxyproline", "(3S)-3-Hydroxy-L-proline", "(2S,3S)-3-Hydroxypyrrolidine-2-carboxylic acid"], "SMILES": "C(O)(=O)C1C(O)CCN1", "physical_data": {"Molecular Weight": "131.13", "Molecular Formula": "C5H9NO3", "Melting Point": "228-236 \u00b0C"}}