{"cas_no": "4299-07-4", "cn_name": "2-\u4e01\u57fa-1,2-\u82ef\u5e76\u5f02\u567b\u5511\u5549-3-\u916e", "en_name": ["N-Butyl-1,2-benzisothiazolin-3-one", "1,2-Benzisothiazol-3(2H)-one, 2-butyl-", "1,2-Benzisothiazolin-3-one, 2-butyl-", "2-Butyl-1,2-benzisothiazol-3(2H)-one", "Densil DN", "N-Butylbenzisothiazolin-3-one", "Vanquish 100", "Proxel XL 2S", "2-Butyl-2,3-dihydrobenzisothiazol-3-one", "N-Butyl-1,2-benzisothiazolin-3-one", "BBIT", "N-n-Butyl-1,2-benzisothiazolin-3-one", "2-Butylbenzo[d]isothiazol-3(2H)-one", "2-n-Butylbenzisothiazolin-3-one", "2-Butyl-1,2-benzisothiazolin-3-one"], "SMILES": "O=C1C=2C(SN1CCCC)=CC=CC2", "physical_data": {"Molecular Weight": "207.29", "Molecular Formula": "C11H13NOS", "Boiling Point": "180 \u00b0C", "Melting Point": "137-138 \u00b0C"}}