{"cas_no": "430-67-1", "cn_name": "2,2-\u4e8c\u6c1f\u4e59\u80fa", "en_name": ["Ethanamine, 2,2-difluoro-", "Ethanamine, 2,2-difluoro-", "Ethylamine, 2,2-difluoro-", "2,2-Difluoroethylamine", "2,2-Difluoroethanamine", "2,2-Difluoroethan-1-amine"], "SMILES": "C(CN)(F)F", "physical_data": {"Molecular Weight": "81.06", "Molecular Formula": "C2H5F2N", "Boiling Point": "68-69 \u00b0C"}}