{"cas_no": "430-66-0", "cn_name": "1,1,2-\u4e09\u6c1f\u4e59\u70f7", "en_name": ["1,1,2-Trifluoroethane", "Ethane, 1,1,2-trifluoro-", "1,1,2-Trifluoroethane", "R 143", "FC 143", "HFC 143", "R 143b", "HFA 143"], "SMILES": "C(CF)(F)F", "physical_data": {"Molecular Weight": "84.04", "Molecular Formula": "C2H3F3", "Boiling Point": "5 \u00b0C", "Melting Point": "-84 \u00b0C"}}