{"cas_no": "430-85-3", "cn_name": "1,1-\u4e8c\u6eb4\u4e8c\u6c1f\u4e59\u70ef", "en_name": ["1,1-Dibromo-2,2-difluoroethene", "Ethene, 1,1-dibromo-2,2-difluoro-", "Ethylene, 1,1-dibromo-2,2-difluoro-", "1,1-Dibromo-2,2-difluoroethene", "1,1-Dibromo-2,2-difluoroethylene", "1,1-Dibromodifluoroethene", "1,1-Dibromodifluoroethylene"], "SMILES": "C(=C(F)F)(Br)Br", "physical_data": {"Molecular Weight": "221.83", "Molecular Formula": "C2Br2F2", "Boiling Point": "66.2 \u00b0C @ Press: 700 Torr", "Density": "2.29 g/cm\u00b3 @ Temp: 25 \u00b0C"}}