{"cas_no": "430-51-3", "cn_name": "\u6c1f\u4ee3\u4e19\u916e", "en_name": ["Fluoroacetone", "2-Propanone, 1-fluoro-", "2-Propanone, fluoro-", "Fluoroacetone", "Monofluoroacetone", "1-Fluoro-2-propanone", "Fluoromethyl methyl ketone", "\u03b1-Fluoroacetone", "NSC 21302"], "SMILES": "C(CF)(C)=O", "physical_data": {"Molecular Weight": "76.07", "Molecular Formula": "C3H5FO", "Boiling Point": "77 \u00b0C", "Density": "1.0288 g/cm\u00b3 @ Temp: 20 \u00b0C"}}