{"cas_no": "430-58-0", "cn_name": "1,2-\u4e8c\u6c2f-1-\u6c1f\u4e59\u70ef", "en_name": ["Ethene, 1,2-dichloro-1-fluoro-", "Ethene, 1,2-dichloro-1-fluoro-", "Ethylene, 1,2-dichloro-1-fluoro-", "1-Fluoro-1,2-dichloroethylene", "1,2-Dichloro-1-fluoroethylene", "1,2-Dichlorofluoroethylene", "1,2-Dichlorofluoroethene", "HCFC 1121", "HCFO 1121"], "SMILES": "C(=CCl)(Cl)F", "physical_data": {"Molecular Weight": "114.93", "Molecular Formula": "C2HCl2F", "Boiling Point": "35 \u00b0C"}}