{"cas_no": "4300-97-4", "cn_name": "\u6c2f\u4ee3\u7279\u620a\u9170\u6c2f", "en_name": ["3-Chloro-2,2-dimethylpropanoyl chloride", "Propanoyl chloride, 3-chloro-2,2-dimethyl-", "Propionyl chloride, 3-chloro-2,2-dimethyl-", "3-Chloro-2,2-dimethylpropanoyl chloride", "\u03b2-Chloro-\u03b1,\u03b1-dimethylpropionyl chloride", "3-Chloro-2,2-dimethylpropionyl chloride", "\u03b2-Chloropivaloyl chloride", "\u03b2-Chloropivalic acid chloride", "3-Chloropivaloyl chloride", "Chloropivaloyl chloride", "2,2-Dimethyl-3-chloropropionyl chloride", "3-Chloro-2,2-dimethylpropionoyl chloride"], "SMILES": "C(C(Cl)=O)(CCl)(C)C", "physical_data": {"Molecular Weight": "155.02", "Molecular Formula": "C5H8Cl2O", "Boiling Point": "110-112 \u00b0C @ Press: 760 Torr"}}