{"cas_no": "43020-38-8", "cn_name": "2,3,4-\u4e09\u7532\u6c27\u57fa\u82ef\u7532\u8148", "en_name": ["2,3,4-Trimethoxybenzonitrile", "Benzonitrile, 2,3,4-trimethoxy-", "2,3,4-Trimethoxybenzonitrile"], "SMILES": "O(C)C1=C(OC)C(OC)=CC=C1C#N", "physical_data": {"Molecular Weight": "193.20", "Molecular Formula": "C10H11NO3", "Boiling Point": "164-167 \u00b0C @ Press: 8 Torr", "Melting Point": "58 \u00b0C"}}