{"cas_no": "43038-45-5", "cn_name": "1-\u8418\u7532\u9178\u80bc", "en_name": ["1-Naphthoic hydrazide", "1-Naphthalenecarboxylic acid, hydrazide", "1-Naphthoic acid hydrazide", "\u03b1-Naphthalenecarboxylic acid hydrazide", "1-Naphthoylhydrazine", "1-Naphthoylhydrazide", "1-Naphthoic hydrazide", "\u03b1-Naphthoylhydrazide", "NSC 23046"], "SMILES": "C(NN)(=O)C=1C2=C(C=CC1)C=CC=C2", "physical_data": {"Molecular Weight": "186.21", "Molecular Formula": "C11H10N2O", "Melting Point": "164-166 \u00b0C"}}