{"cas_no": "4303-67-7", "cn_name": "1-\u5341\u4e8c\u70f7\u57fa\u54aa\u5511", "en_name": ["1-Dodecylimidazole", "1H-Imidazole, 1-dodecyl-", "Imidazole, 1-dodecyl-", "1-Dodecyl-1H-imidazole", "1-Dodecylimidazole", "N-Dodecylimidazole", "N-Laurylimidazole", "1-Laurylimidazole", "NSC 307267", "1-(1-Dodecyl)-1H-imidazole"], "SMILES": "C(CCCCCCCCCCC)N1C=CN=C1", "physical_data": {"Molecular Weight": "236.40", "Molecular Formula": "C15H28N2", "Boiling Point": "199-200 \u00b0C @ Press: 24 Torr", "Melting Point": "69.5-70.5 \u00b0C"}}