{"cas_no": "43038-37-5", "cn_name": "2-\u82ef\u6c27\u57fa\u82ef\u7532\u9170\u80bc", "en_name": ["2-Phenoxybenzoic acid hydrazide", "Benzoic acid, 2-phenoxy-, hydrazide", "2-Phenoxybenzoic acid hydrazide", "2-Phenoxybenzhydrazide", "2-Phenoxybenzohydrazide"], "SMILES": "O(C1=C(C(NN)=O)C=CC=C1)C2=CC=CC=C2", "physical_data": {"Molecular Weight": "228.25", "Molecular Formula": "C13H12N2O2", "Melting Point": "107-108 \u00b0C"}}