{"cas_no": "43036-06-2", "cn_name": "N-2-\u6c30\u4e59\u57fa\u5421\u54af", "en_name": ["1H-Pyrrole-1-propanenitrile", "1H-Pyrrole-1-propanenitrile", "Pyrrole-1-propionitrile", "1-(2-Cyanoethyl)pyrrole", "N-(2-Cyanoethyl)pyrrole", "3-(1-Pyrrolyl)propionitrile", "NSC 78437", "3-(1H-Pyrrol-1-yl)propanenitrile", "3-Pyrrol-1-ylpropanenitrile"], "SMILES": "C(CC#N)N1C=CC=C1", "physical_data": {"Molecular Weight": "120.15", "Molecular Formula": "C7H8N2", "Boiling Point": "150-155 \u00b0C @ Press: 18 Torr"}}