{"cas_no": "43043-74-9", "cn_name": "\u53bb\u6c27\u7d2b\u8349\u7d20", "en_name": ["Deoxyshikonin", "1,4-Naphthalenedione, 5,8-dihydroxy-2-(4-methyl-3-penten-1-yl)-", "1,4-Naphthalenedione, 5,8-dihydroxy-2-(4-methyl-3-pentenyl)-", "5,8-Dihydroxy-2-(4-methyl-3-penten-1-yl)-1,4-naphthalenedione", "Arnebin 7", "Deoxyshikonin", "Arnebin VII", "Shikonin, deoxy-", "Deoxyalkannin", "Alkannin, deoxy-", "NSC 179184", "11-Deoxyalkannin", "Anhydroalkanin"], "SMILES": "O=C1C=2C(C(=O)C=C1CCC=C(C)C)=C(O)C=CC2O", "physical_data": {"Molecular Weight": "272.30", "Molecular Formula": "C16H16O4", "Melting Point": "94-95 \u00b0C"}}