{"cas_no": "43056-63-9", "cn_name": "\u785d\u57fa\u544b\u5583\u4ee3\u8c22\u7269AMOZ", "en_name": ["AMOZ", "2-Oxazolidinone, 3-amino-5-(4-morpholinylmethyl)-", "2-Oxazolidinone, 3-amino-5-(morpholinomethyl)-", "3-Amino-5-(4-morpholinylmethyl)-2-oxazolidinone", "AMOZ", "3-Amino-5-morpholinomethyl-2-oxazolidone", "3-Amino-5-morpholinomethyl-2-oxazolidinone", "3-Amino-5-(morpholin-4-ylmethyl)-1,3-oxazolidin-2-one", "3-Amino-5-[(morpholin-4-yl)methyl]-1,3-oxazolidin-2-one"], "SMILES": "C(C1CN(N)C(=O)O1)N2CCOCC2", "physical_data": {"Molecular Weight": "201.22", "Molecular Formula": "C8H15N3O3", "Melting Point": "120 \u00b0C"}}