{"cas_no": "43052-87-5", "cn_name": "1-(2,6,6-\u4e09\u7532\u57fa-2-\u73af\u5df1\u70ef-1-\u57fa)-2-\u4e01\u70ef-1-\u916e", "en_name": ["\u03b1-Damascone", "2-Buten-1-one, 1-(2,6,6-trimethyl-2-cyclohexen-1-yl)-", "1-(2,6,6-Trimethyl-2-cyclohexen-1-yl)-2-buten-1-one", "2,6,6-Trimethyl-1-crotonyl-2-cyclohexene", "\u03b1-Damascone", "1-(2,6,6-Trimethyl-2-cyclohexenyl)-2-buten-1-one"], "SMILES": "C(C=CC)(=O)C1C(C)(C)CCC=C1C", "physical_data": {"Molecular Weight": "192.30", "Molecular Formula": "C13H20O", "Boiling Point": "253-255 \u00b0C @ Press: 760 Torr", "Density": "0.9229 g/cm\u00b3 @ Temp: 27 \u00b0C"}}