{"cas_no": "43050-28-8", "cn_name": "1-(4-\u7532\u6c27\u57fa\u82ef\u57fa)-1-\u73af\u620a\u70f7\u7532\u9178", "en_name": ["1-(4-Methoxyphenyl)cyclopentanecarboxylic acid", "Cyclopentanecarboxylic acid, 1-(4-methoxyphenyl)-", "1-(4-Methoxyphenyl)cyclopentanecarboxylic acid", "1-(p-Methoxyphenyl)cyclopentanecarboxylic acid", "NSC 155172", "1-(4-Methoxyphenyl)-1-cyclopentanecarboxylic acid", "1-(4-Methoxyphenyl)cyclopentane-1-carboxylic acid"], "SMILES": "C(O)(=O)C1(CCCC1)C2=CC=C(OC)C=C2", "physical_data": {"Molecular Weight": "220.26", "Molecular Formula": "C13H16O3", "Melting Point": "140-141 \u00b0C"}}