{"cas_no": "43064-96-6", "cn_name": "\u56db\u4e01\u57fa\u6c30\u57fa\u787c\u70f7\u5316\u94f5", "en_name": ["Tetrabutylammonium cyanoborohydride", "1-Butanaminium, N,N,N-tributyl-, (T-4)-(cyano-\u03baC)trihydroborate(1-) (1:1)", "1-Butanaminium, N,N,N-tributyl-, (T-4)-(cyano-C)trihydroborate(1-)", "1-Butanaminium, N,N,N-tributyl-, (T-4)-(cyano-\u03baC)trihydroborate(1-)", "Borate(1-), (cyano-C)trihydro-, (T-4)-, N,N,N-tributyl-1-butanaminium", "Borate(1-), (cyano-\u03baC)trihydro-, (T-4)-, N,N,N-tributyl-1-butanaminium", "Tetrabutylammonium cyanoborohydride", "Tetrabutylammonium cyanotrihydroborate"], "SMILES": "[N+](CCCC)(CCCC)(CCCC)CCCC.[B+3]([C-]#N)([H-])([H-])[H-]", "physical_data": {"Molecular Weight": "", "Molecular Formula": "C16H36N.CH3BN", "Melting Point": "144-145 \u00b0C"}}