{"cas_no": "43064-12-6", "cn_name": "4-\u82ef\u57fa-1,2,3,6-\u56db\u6c22\u5421\u5576\u76d0\u9178\u76d0", "en_name": ["Pyridine, 1,2,3,6-tetrahydro-4-phenyl-, hydrochloride (1:1)", "Pyridine, 1,2,3,6-tetrahydro-4-phenyl-, hydrochloride (1:1)", "Pyridine, 1,2,3,6-tetrahydro-4-phenyl-, hydrochloride", "4-Phenyl-1,2,5,6-tetrahydropyridine hydrochloride", "1,2,3,6-Tetrahydro-4-phenylpyridine hydrochloride", "4-Phenyl-1,2,3,6-tetrahydropyridine hydrochloride"], "SMILES": "C1(=CC=CC=C1)C=2CCNCC2.Cl", "physical_data": {"Molecular Weight": "", "Molecular Formula": "C11H13N.ClH", "Melting Point": "199-202 \u00b0C"}}