{"cas_no": "43076-61-5", "cn_name": "4'-\u53d4\u4e01\u57fa-4-\u6c2f\u4e01\u9170\u82ef", "en_name": ["4-Chloro-1-[4-(1,1-dimethylethyl)phenyl]-1-butanone", "1-Butanone, 4-chloro-1-[4-(1,1-dimethylethyl)phenyl]-", "Butyrophenone, 4\u2032-tert-butyl-4-chloro-", "4-Chloro-1-[4-(1,1-dimethylethyl)phenyl]-1-butanone", "4\u2032-tert-Butyl-4-chlorobutyrophenone", "p-tert-Butyl-\u03c9-chlorobutyrophenone", "4-Chloro-4\u2032-tert-butylbutyrophenone", "1-(4-tert-Butylphenyl)-4-chloro-1-butanone"], "SMILES": "C(CCCCl)(=O)C1=CC=C(C(C)(C)C)C=C1", "physical_data": {"Molecular Weight": "238.75", "Molecular Formula": "C14H19ClO", "Melting Point": "47 \u00b0C"}}