{"cas_no": "43076-59-1", "cn_name": "4-\u6c2f-2\u2018-\u4e01\u9170\u567b\u5429\u916e", "en_name": ["4-Chloro-1-(2-thienyl)-1-butanone", "1-Butanone, 4-chloro-1-(2-thienyl)-", "4-Chloro-1-(2-thienyl)-1-butanone", "3-Chloropropyl 2-thienyl ketone", "2-(4-Chlorobutyryl)thiophene", "4-Chloro-1-(2-thienyl)butanone", "4-Chloro-1-(thiophen-2-yl)butan-1-one"], "SMILES": "C(CCCCl)(=O)C1=CC=CS1", "physical_data": {"Molecular Weight": "188.67", "Molecular Formula": "C8H9ClOS", "Boiling Point": "144-146 \u00b0C @ Press: 11 Torr"}}