{"cas_no": "43071-52-9", "cn_name": "2-\u4e59\u9170\u57fa-7-\u7532\u6c27\u57fa\u82ef\u5e76\u544b\u5583", "en_name": ["1-(7-Methoxy-2-benzofuranyl)ethanone", "Ethanone, 1-(7-methoxy-2-benzofuranyl)-", "1-(7-Methoxy-2-benzofuranyl)ethanone", "2-Acetyl-7-methoxybenzofuran", "7-Methoxy-2-benzofuranyl methyl ketone", "2-Acetyl-7-methoxybenzo[b]furan", "1-(7-Methoxybenzofuran-2-yl)ethanone", "1-(7-Methoxy-1-benzofuran-2-yl)ethan-1-one", "1-(7-Methoxy-1-benzofuran-2-yl)ethanone"], "SMILES": "O(C)C1=C2C(C=C(C(C)=O)O2)=CC=C1", "physical_data": {"Molecular Weight": "190.20", "Molecular Formula": "C11H10O3", "Boiling Point": "176-180 \u00b0C @ Press: 15 Torr", "Melting Point": "92 \u00b0C"}}