{"cas_no": "43083-14-3", "cn_name": "2-\u6c2f-6-\u82ef\u57fa\u70df\u8148", "en_name": ["2-Chloro-6-phenyl-3-pyridinecarbonitrile", "3-Pyridinecarbonitrile, 2-chloro-6-phenyl-", "2-Chloro-6-phenyl-3-pyridinecarbonitrile", "2-Chloro-3-cyano-6-phenylpyridine", "NSC 363888", "2-Chloro-6-phenylnicotinonitrile"], "SMILES": "ClC1=NC(=CC=C1C#N)C2=CC=CC=C2", "physical_data": {"Molecular Weight": "214.65", "Molecular Formula": "C12H7ClN2", "Melting Point": "112-114 \u00b0C"}}