{"cas_no": "43088-67-1", "cn_name": "4-\u6c2f-5-\u7532\u57fa\u567b\u5429\u57fa[2,3-d!\u5627\u5576", "en_name": ["4-Chloro-5-methylthieno[2,3-d]pyrimidine", "Thieno[2,3-d]pyrimidine, 4-chloro-5-methyl-", "4-Chloro-5-methylthieno[2,3-d]pyrimidine", "NSC 153315", "5-Methyl-4-chlorothieno[2,3-d]pyrimidine"], "SMILES": "ClC1=C2C(=NC=N1)SC=C2C", "physical_data": {"Molecular Weight": "184.65", "Molecular Formula": "C7H5ClN2S", "Melting Point": "140-142 \u00b0C"}}