{"cas_no": "43083-12-1", "cn_name": "\u539f\u4e01\u9178\u4e09\u7532\u916f", "en_name": ["Trimethyl orthobutyrate", "Butane, 1,1,1-trimethoxy-", "Orthobutyric acid, trimethyl ester", "1,1,1-Trimethoxybutane", "Methyl orthobutyrate", "Trimethyl orthobutyrate", "Trimethyl orthobutanoate"], "SMILES": "C(CCC)(OC)(OC)OC", "physical_data": {"Molecular Weight": "148.20", "Molecular Formula": "C7H16O3", "Boiling Point": "145-147 \u00b0C", "Density": "0.9261 g/cm\u00b3 @ Temp: 25 \u00b0C"}}