{"cas_no": "4309-82-4", "cn_name": "N-\u7532\u9170\u57fa-DL-\u86cb\u6c28\u9178", "en_name": ["N-Formylmethionine", "Methionine, N-formyl-", "Methionine, N-formyl-, DL-", "N-Formylmethionine", "N-Formyl-DL-methionine", "NSC 206506", "2-Formamido-4-(methylsulfanyl)butanoic acid", "2-Formamido-4-methylsulfanylbutanoic acid"], "SMILES": "C(CCSC)(NC=O)C(O)=O", "physical_data": {"Molecular Weight": "177.22", "Molecular Formula": "C6H11NO3S", "Melting Point": "99-100 \u00b0C"}}