{"cas_no": "431-03-8", "cn_name": "2,3-\u4e01\u4e8c\u916e", "en_name": ["Butanedione", "2,3-Butanedione", "Biacetyl", "Diacetyl", "2,3-Diketobutane", "Dimethyl diketone", "Dimethylglyoxal", "Butanedione", "2,3-Butadione", "2,3-Dioxobutane", "NSC 8750", "MeSH ID: D003931"], "SMILES": "C(C(C)=O)(C)=O", "physical_data": {"Molecular Weight": "86.09", "Molecular Formula": "C4H6O2", "Boiling Point": "88 \u00b0C @ Press: 760 Torr", "Melting Point": "-2.4 \u00b0C", "Density": "0.990 g/cm\u00b3 @ Temp: 15 \u00b0C"}}