{"cas_no": "431-35-6", "cn_name": "3-\u6eb4-1,1,1-\u4e09\u6c1f\u4e19\u916e", "en_name": ["3-Bromo-1,1,1-trifluoro-2-propanone", "2-Propanone, 3-bromo-1,1,1-trifluoro-", "3-Bromo-1,1,1-trifluoro-2-propanone", "Bromotrifluoro-2-propanone", "1,1,1-Trifluoro-3-bromoacetone", "3-Bromo-1,1,1-trifluoropropanone", "3,3,3-Trifluorobromoacetone", "3-Bromo-1,1,1-trifluoroacetone", "1,1,1-Trifluoro-3-bromopropanone", "1-Bromo-3,3,3-trifluoro-2-propanone", "Bromotrifluoroacetone", "Bromomethyl trifluoromethyl ketone", "1,1,1-Trifluoro-3-bromo-2-propanone", "1-Bromo-3,3,3-trifluoroacetone", "3-Bromo-1,1,1-trifuoroacetone"], "SMILES": "C(C(F)(F)F)(CBr)=O", "physical_data": {"Molecular Weight": "190.95", "Molecular Formula": "C3H2BrF3O", "Boiling Point": "84.7 \u00b0C @ Press: 743.8 Torr"}}