{"cas_no": "431-21-0", "cn_name": "1,2-\u4e8c\u6eb4\u4e09\u6c1f\u4e19\u70f7", "en_name": ["2,3-Dibromo-1,1,1-trifluoropropane", "Propane, 2,3-dibromo-1,1,1-trifluoro-", "2,3-Dibromo-1,1,1-trifluoropropane", "1,2-Dibromo-3,3,3-trifluoropropane"], "SMILES": "C(C(F)(F)F)(CBr)Br", "physical_data": {"Molecular Weight": "255.86", "Molecular Formula": "C3H3Br2F3", "Boiling Point": "116 \u00b0C", "Density": "2.121 g/cm\u00b3 @ Temp: 24 \u00b0C"}}