{"cas_no": "431-23-2", "cn_name": "3,3,3-\u4e09\u6c1f-2-\u7532\u57fa\u4e19\u70f7-1-\u9187", "en_name": ["3,3,3-Trifluoro-2-methyl-1-propanol", "1-Propanol, 3,3,3-trifluoro-2-methyl-", "3,3,3-Trifluoro-2-methyl-1-propanol", "2-Trifluoromethylpropanol"], "SMILES": "C(C(F)(F)F)(CO)C", "physical_data": {"Molecular Weight": "128.09", "Molecular Formula": "C4H7F3O", "Boiling Point": "108.5-109.5 \u00b0C"}}