{"cas_no": "431-46-9", "cn_name": "\u4e09\u6c1f\u4e59\u919b\u7f29\u7532\u57fa\u534a\u9187", "en_name": ["Trifluoroacetaldehyde methyl hemiacetal", "Ethanol, 2,2,2-trifluoro-1-methoxy-", "2,2,2-Trifluoro-1-methoxyethanol", "Fluoral methyl hemiacetal", "Trifluoroacetaldehyde methyl hemiacetal", "1-Methoxy-2,2,2-trifluoroethanol", "2,2,2-Trifluoro-1-methoxyethan-1-ol"], "SMILES": "C(C(F)(F)F)(OC)O", "physical_data": {"Molecular Weight": "130.07", "Molecular Formula": "C3H5F3O2", "Boiling Point": "96-96.5 \u00b0C @ Press: 729 Torr"}}