{"cas_no": "431-22-1", "cn_name": "1,2-\u4e8c\u6eb4-3,3,3-\u4e09\u6c1f\u4e19\u70ef", "en_name": ["1,2-Dibromo-3,3,3-trifluoro-1-propene", "1-Propene, 1,2-dibromo-3,3,3-trifluoro-", "Propene, 1,2-dibromo-3,3,3-trifluoro-", "1,2-Dibromo-3,3,3-trifluoro-1-propene", "1,2-Dibromo-3,3,3-trifluoropropene"], "SMILES": "C(C(F)(F)F)(=CBr)Br", "physical_data": {"Molecular Weight": "253.84", "Molecular Formula": "C3HBr2F3", "Boiling Point": "96 \u00b0C"}}