{"cas_no": "431-52-7", "cn_name": "1,1,2-\u4e09\u6c2f-3,3,3-\u4e09\u6c1f\u4e19\u7a00", "en_name": ["1,1,2-Trichloro-3,3,3-trifluoro-1-propene", "1-Propene, 1,1,2-trichloro-3,3,3-trifluoro-", "Propene, 1,1,2-trichloro-3,3,3-trifluoro-", "1,1,2-Trichloro-3,3,3-trifluoro-1-propene", "1,1,2-Trichlorotrifluoro-1-propene", "3,3,3-Trifluoro-1,1,2-trichloropropene", "3,3,3-Trifluoro-1,1,2-trichloropropylene", "1,1,1-Trifluoro-2,3,3-trichloropropene", "1,1,2-Trichloro-3,3,3-fluoropropene", "NSC 6824", "CFC 1213xa"], "SMILES": "C(C(F)(F)F)(=C(Cl)Cl)Cl", "physical_data": {"Molecular Weight": "199.39", "Molecular Formula": "C3Cl3F3", "Boiling Point": "88.3 \u00b0C", "Melting Point": "-114.7 \u00b0C", "Density": "1.6188 g/cm\u00b3 @ Temp: 20 \u00b0C"}}