{"cas_no": "431-47-0", "cn_name": "\u4e09\u6c1f\u4e59\u9178\u7532\u916f", "en_name": ["Methyl trifluoroacetate", "Acetic acid, 2,2,2-trifluoro-, methyl ester", "Acetic acid, trifluoro-, methyl ester", "Methyl trifluoroacetate", "Methyl perfluoroacetate", "Methyl 2,2,2-trifluoroacetate"], "SMILES": "C(C(F)(F)F)(OC)=O", "physical_data": {"Molecular Weight": "128.05", "Molecular Formula": "C3H3F3O2", "Boiling Point": "43.25 \u00b0C"}}