{"cas_no": "431-89-0", "cn_name": "\u4e03\u6c1f\u4e19\u70f7", "en_name": ["1,1,1,2,3,3,3-Heptafluoropropane", "Propane, 1,1,1,2,3,3,3-heptafluoro-", "1,1,1,2,3,3,3-Heptafluoropropane", "2H-Heptafluoropropane", "2-Hydroperfluoropropane", "2-Hydroheptafluoropropane", "R 227ea", "HFC 227ea", "R 227", "HFC 227", "TG 227", "Apaflurane", "FM 200 (fluorocarbon)", "FM 200", "HFA 227", "F 227e", "2H-Perfluoropropane", "F 227ea", "F 227", "HFA 227ea", "HFA P227", "Solkane 227ea", "Solkane 227", "1,1,1,2,3,3,3-Heptafluoro-n-propane", "HFC 227e", "HFC 227a", "HFO 227ea", "HFA 227a", "SP 350", "FM 700"], "SMILES": "C(C(F)(F)F)(C(F)(F)F)F", "physical_data": {"Molecular Weight": "170.03", "Molecular Formula": "C3HF7", "Boiling Point": "-18 \u00b0C", "Melting Point": "-129.5 \u00b0C"}}