{"cas_no": "431-49-2", "cn_name": "2-\u6eb4\u5168\u6c1f\u4e19\u70ef", "en_name": ["2-Bromo-1,1,3,3,3-pentafluoro-1-propene", "1-Propene, 2-bromo-1,1,3,3,3-pentafluoro-", "2-Bromo-1,1,3,3,3-pentafluoro-1-propene", "2-Bromoperfluoropropene", "2-Bromopentafluoropropene"], "SMILES": "C(C(F)(F)F)(=C(F)F)Br", "physical_data": {"Molecular Weight": "210.93", "Molecular Formula": "C3BrF5", "Boiling Point": "26-28 \u00b0C @ Press: 760 Torr"}}