{"cas_no": "431-05-0", "cn_name": "1,1-\u4e8c\u6c1f\u4e19\u916e", "en_name": ["1,1-Difluoro-2-propanone", "2-Propanone, 1,1-difluoro-", "1,1-Difluoro-2-propanone", "1,1-Difluoroacetone", "1,1-Difluoropropan-2-one"], "SMILES": "C(C(F)F)(C)=O", "physical_data": {"Molecular Weight": "94.06", "Molecular Formula": "C3H4F2O", "Boiling Point": "46 \u00b0C", "Density": "1.16 g/cm\u00b3"}}