{"cas_no": "43100-38-5", "cn_name": "\u5bf9\u53d4\u4e01\u57fa\u82ef\u7532\u9170\u80bc", "en_name": ["4-tert-Butylbenzohydrazide", "Benzoic acid, 4-(1,1-dimethylethyl)-, hydrazide", "Benzoic acid, p-tert-butyl-, hydrazide", "4-tert-Butylbenzoic acid hydrazide", "p-tert-Butylbenzoic acid hydrazide", "(p-tert-Butylbenzoyl)hydrazine", "4-tert-Butylbenzoylhydrazine", "4-tert-Butylbenzhydrazide", "4-tert-Butylbenzoyl hydrazide", "4-(1,1-Dimethylethyl)benzoic acid hydrazide", "4-tert-Butylbenzohydrazide", "4-tert-Butylbenzoic hydrazide"], "SMILES": "C(C)(C)(C)C1=CC=C(C(NN)=O)C=C1", "physical_data": {"Molecular Weight": "192.26", "Molecular Formula": "C11H16N2O", "Melting Point": "117-118 \u00b0C"}}