{"cas_no": "43112-38-5", "cn_name": "3-\u4e09\u7532\u57fa\u7532\u7845\u70f7\u57fa-2-\u5641\u5511\u70f7\u916e", "en_name": ["3-(Trimethylsilyl)-2-oxazolidinone", "2-Oxazolidinone, 3-(trimethylsilyl)-", "3-(Trimethylsilyl)-2-oxazolidinone", "N-(Trimethylsilyl)-2-oxazolidone", "N-(Trimethylsilyl)-2-oxazolidinone", "TMSO", "NSC 617258", "3-Trimethylsilyl-1,3-oxazolidin-2-one"], "SMILES": "[Si](C)(C)(C)N1C(=O)OCC1", "physical_data": {"Molecular Weight": "159.26", "Molecular Formula": "C6H13NO2Si", "Boiling Point": "99.5-100 \u00b0C @ Press: 5.5-6 Torr", "Density": "1.040 g/cm\u00b3 @ Temp: 20 \u00b0C"}}