{"cas_no": "43119-28-4", "cn_name": "(1S,5R)-2-\u6c27\u6742\u4e8c\u73af[3.3.0]\u8f9b-6-\u70ef-3-\u916e", "en_name": ["(3aR,6aS)-3,3a,6,6a-Tetrahydro-2H-cyclopenta[b]furan-2-one", "2H-Cyclopenta[b]furan-2-one, 3,3a,6,6a-tetrahydro-, (3aR,6aS)-", "2H-Cyclopenta[b]furan-2-one, 3,3a,6,6a-tetrahydro-, (3aR-cis)-", "(3aR,6aS)-3,3a,6,6a-Tetrahydro-2H-cyclopenta[b]furan-2-one", "(1S,5R)-2-Oxabicyclo[3.3.0]oct-6-en-3-one", "(-)-(1S,5R)-2-Oxabicyclo[3.3.0]oct-6-en-3-one", "(1S,5R)-2-Oxabicyclo[3.3.0]oct-6-en-3-one", "(3aR,6aS)-3,3a,6,6a-tetrahydro-2H-cyclopenta[b]furan-2-one", "(3aR,6aS)-3,3a,6,6a-Tetrahydrocyclopenta[b]furan-2-one", "(-)-(1S,5R)-2-Oxabicyclo[3.3.0]oct-6-en-3-one"], "SMILES": "O=C1CC2C(O1)CC=C2", "physical_data": {"Molecular Weight": "124.14", "Molecular Formula": "C7H8O2", "Melting Point": "46.5 \u00b0C"}}