{"cas_no": "43111-32-6", "cn_name": "3-\u6c2f\u82ef\u6c27\u57fa\u4e59\u8148", "en_name": ["2-(3-Chlorophenoxy)acetonitrile", "Acetonitrile, 2-(3-chlorophenoxy)-", "Acetonitrile, (3-chlorophenoxy)-", "Acetonitrile, (m-chlorophenoxy)-", "2-(3-Chlorophenoxy)acetonitrile", "3-Chlorophenoxyacetonitrile", "(m-Chlorophenoxy)acetonitrile"], "SMILES": "O(CC#N)C1=CC(Cl)=CC=C1", "physical_data": {"Molecular Weight": "167.59", "Molecular Formula": "C8H6ClNO", "Boiling Point": "89 \u00b0C @ Press: 0.2 Torr"}}