{"cas_no": "43121-43-3", "cn_name": "\u4e09\u5511\u916e", "en_name": ["Triadimefon", "2-Butanone, 1-(4-chlorophenoxy)-3,3-dimethyl-1-(1H-1,2,4-triazol-1-yl)-", "1-(4-Chlorophenoxy)-3,3-dimethyl-1-(1H-1,2,4-triazol-1-yl)-2-butanone", "BAY-MEB 6447", "1-(4-Chlorophenoxy)-3,3-dimethyl-1-(1,2,4-triazol-1-yl)-2-butanone", "Triadimefon", "BAY 6681F", "MEB 6447", "1-(4-Chlorophenoxy)-3,3-dimethyl-1,2,4-triazol-1-yl-2-butanone", "Bayleton", "Bayleton 250EC", "Bayleton special", "Tidifon", "Triadimephon", "Bayleton PB", "Bayleton 5WP", "Bayleton 25", "Azocene", "Fenxiunin", "1-(4-Chlorophenoxy)-3,3-dimethyl-1-(1-H-1,2,4-triazol-1-yl)butanone", "Tripinacloraz", "Bayleton 5", "NSC 303303", "Webeton", "Bayleton 5DF", "Triadimefone"], "SMILES": "C(OC1=CC=C(Cl)C=C1)(C(C(C)(C)C)=O)N2C=NC=N2", "physical_data": {"Molecular Weight": "293.75", "Molecular Formula": "C14H16ClN3O2", "Melting Point": "82 \u00b0C", "Density": "1.283 g/cm\u00b3 @ Temp: 21.5 \u00b0C"}}