{"cas_no": "4312-99-6", "cn_name": "1-\u8f9b\u70ef-3-\u916e", "en_name": ["1-Octen-3-one", "1-Octen-3-one", "Vinyl amyl ketone", "Pentyl vinyl ketone", "Amyl vinyl ketone", "n-Amyl vinyl ketone"], "SMILES": "C(CCCCC)(C=C)=O", "physical_data": {"Molecular Weight": "126.20", "Molecular Formula": "C8H14O", "Boiling Point": "59-60 \u00b0C @ Press: 16 Torr", "Density": "0.8428 g/cm\u00b3 @ Temp: 30 \u00b0C"}}