{"cas_no": "4313-03-5", "cn_name": "(E,E)-2,4-\u5e9a\u4e8c\u70ef\u919b", "en_name": ["(E,E)-2,4-Heptadienal", "2,4-Heptadienal, (2E,4E)-", "2,4-Heptadienal, (E,E)-", "(2E,4E)-2,4-Heptadienal", "trans-2-trans-4-Heptadienal", "trans,trans-2,4-Heptadienal", "(E,E)-2,4-Heptadien-1-al", "all-trans-2,4-Heptadienal", "(E,E)-2,4-Heptadienal", "2E,4E-Heptadienal", "2-trans-4-trans-Heptadienal"], "SMILES": "C(C=CC=O)=CCC", "physical_data": {"Molecular Weight": "110.15", "Molecular Formula": "C7H10O", "Melting Point": "84.5 \u00b0C"}}