{"cas_no": "4313-57-9", "cn_name": "1-\u7532\u57fa-1\uff0c4-\u73af\u5df1\u4e8c\u70ef", "en_name": ["1-Methyl-1,4-cyclohexadiene", "1,4-Cyclohexadiene, 1-methyl-", "1-Methyl-1,4-cyclohexadiene", "2,5-Dihydrotoluene", "2-Methyl-1,4-cyclohexadiene", "NSC 74127"], "SMILES": "CC=1CC=CCC1", "physical_data": {"Molecular Weight": "94.15", "Molecular Formula": "C7H10", "Boiling Point": "114-115 \u00b0C", "Melting Point": "&lt;-70 \u00b0C", "Density": "0.848 g/cm\u00b3 @ Temp: 20 \u00b0C"}}