{"cas_no": "4314-22-1", "cn_name": "1H - 1,2,3 -\u4e09\u5511- 1 -\u4e59\u9178", "en_name": ["1H-1,2,3-Triazole-1-acetic acid", "1H-1,2,3-Triazole-1-acetic acid", "2-(1,2,3-Triazol-1-yl)acetic acid", "2-(1H-1,2,3-Triazol-1-yl)acetic acid", "(1H-[1,2,3]Triazol-1-yl)acetic acid", "(1,2,3-Triazol-1-yl)acetic acid", "2-(Triazol-1-yl)acetic acid"], "SMILES": "C(C(O)=O)N1C=CN=N1", "physical_data": {"Molecular Weight": "127.10", "Molecular Formula": "C4H5N3O2", "Melting Point": "209 \u00b0C (decomp)"}}