{"cas_no": "4314-66-3", "cn_name": "N-\u4e59\u57fa\u70df\u9170\u80fa", "en_name": ["N-Ethylnicotinamide", "3-Pyridinecarboxamide, N-ethyl-", "Nicotinamide, N-ethyl-", "N-Ethyl-3-pyridinecarboxamide", "N-Ethylnicotinamide", "Nicotinic acid monoethylamide", "N-Monoethylnicotinamide", "NSC 62008"], "SMILES": "C(NCC)(=O)C=1C=CC=NC1", "physical_data": {"Molecular Weight": "150.18", "Molecular Formula": "C8H10N2O", "Boiling Point": "152 \u00b0C @ Press: 12 Torr", "Melting Point": "57 \u00b0C"}}