{"cas_no": "43141-69-1", "cn_name": "N,N-\u4e8c\u4e01\u57fa\u95f4\u6c28\u57fa\u82ef\u915a", "en_name": ["N,N-Dibutyl-3-aminophenol", "Phenol, 3-(dibutylamino)-", "3-(Dibutylamino)phenol", "N,N-Dibutyl-m-aminophenol", "m-(Dibutylamino)phenol", "N,N-Di-n-butyl-m-aminophenol", "N,N-Dibutyl-3-aminophenol", "3-Hydroxy-N,N-dibutylaniline", "3-(N,N-Dibutylamino)phenol", "N,N-Dibutyl-3-hydroxyaniline"], "SMILES": "N(CCCC)(CCCC)C1=CC(O)=CC=C1", "physical_data": {"Molecular Weight": "221.34", "Molecular Formula": "C14H23NO", "Boiling Point": "184-186 \u00b0C @ Press: 12 Torr"}}