{"cas_no": "4314-14-1", "cn_name": "\u6eb6\u5242\u9ec4 16", "en_name": ["Solvent Yellow 16", "3H-Pyrazol-3-one, 2,4-dihydro-5-methyl-2-phenyl-4-(2-phenyldiazenyl)-", "C.I. Disperse Yellow 16", "Sudan Yellow 3G", "3H-Pyrazol-3-one, 2,4-dihydro-5-methyl-2-phenyl-4-(phenylazo)-", "Pyrazol-5-ol, 3-methyl-1-phenyl-4-(phenylazo)-", "2,4-Dihydro-5-methyl-2-phenyl-4-(2-phenyldiazenyl)-3H-pyrazol-3-one", "C.I. 12700", "Ceres Yellow 3G", "C.I. Solvent Yellow 16", "Fat Yellow 3G", "Fat Yellow SG 3", "Lacquer Yellow V 3G", "Oil Yellow 3G", "Oleal Yellow 3G", "Orient Oil Yellow 3G", "4-Phenylazo-1-phenyl-3-methyl-5-pyrazolone", "1-Phenyl-3-methyl-4-phenylazo-5-pyrazolone", "PMPP", "Resinol Yellow 3G", "Silotras Yellow T3G", "Supracet Yellow 2G", "Yellow 3Zh", "Oil Yellow 5GS", "Sico Fat Citron Yellow 5G3", "Solvent Yellow 16", "Sumiplast Yellow GC", "Kayaset Yellow 937", "Disperse Yellow 16", "SOT Yellow 3", "Aizen SOT Yellow 3", "3-Methyl-1-phenyl-4-(phenylazo)-pyrazol-5-ol", "Sudan Yellow 146", "Foron Yellow SE-GLN", "2,4-Dihydro-5-methyl-2-phenyl-4-(phenylazo)-3H-pyrazol-3-one"], "SMILES": "O=C1N(N=C(C)C1N=NC2=CC=CC=C2)C3=CC=CC=C3", "physical_data": {"Molecular Weight": "278.31", "Molecular Formula": "C16H14N4O", "Melting Point": "154-155 \u00b0C"}}