{"cas_no": "43156-47-4", "cn_name": "2-\u785d\u57fa-5-\u82ef\u5def\u57fa\u82ef\u80fa", "en_name": ["2-Nitro-5-(phenylthio)benzenamine", "Benzenamine, 2-nitro-5-(phenylthio)-", "2-Nitro-5-(phenylthio)benzenamine", "2-Amino-4-phenylthio-1-nitrobenzene", "1-Amino-2-nitro-5-phenylthiobenzene", "2-Nitro-5-phenylthioaniline", "2-Nitro-5-phenylsulfanylaniline"], "SMILES": "S(C1=CC(N)=C(N(=O)=O)C=C1)C2=CC=CC=C2", "physical_data": {"Molecular Weight": "246.29", "Molecular Formula": "C12H10N2O2S", "Melting Point": "145-146 \u00b0C"}}