{"cas_no": "4315-09-7", "cn_name": "4-\u785d\u57fa\u82ef\u57fa-1,3-\u4e8c\u7532\u9178", "en_name": ["4-Nitroisophthalic acid", "1,3-Benzenedicarboxylic acid, 4-nitro-", "Isophthalic acid, 4-nitro-", "4-Nitro-1,3-benzenedicarboxylic acid", "1-Nitrobenzene-2,4-dicarboxylic acid", "4-Nitrobenzene-1,3-dicarboxylic acid", "4-Nitroisophthalic acid", "3-Carboxy-4-nitrobenzoic acid"], "SMILES": "C(O)(=O)C1=C(N(=O)=O)C=CC(C(O)=O)=C1", "physical_data": {"Molecular Weight": "211.13", "Molecular Formula": "C8H5NO6", "Melting Point": "245 \u00b0C"}}