{"cas_no": "4316-98-7", "cn_name": "4,5-\u4e8c\u6c28\u57fa-6-\u6c2f\u5627\u5576", "en_name": ["6-Chloro-4,5-pyrimidinediamine", "4,5-Pyrimidinediamine, 6-chloro-", "Pyrimidine, 4,5-diamino-6-chloro-", "6-Chloro-4,5-pyrimidinediamine", "4,5-Diamino-6-chloropyrimidine", "NSC 36907", "6-Chloropyrimidine-4,5-diamine", "5,6-Diamino-4-chloropyrimidine", "4-Chloropyrimidine-5,6-diamine", "6-Chloro-4,5-diaminopyrimidine"], "SMILES": "NC=1C(Cl)=NC=NC1N", "physical_data": {"Molecular Weight": "144.56", "Molecular Formula": "C4H5ClN4", "Melting Point": "252 \u00b0C (decomp)"}}