{"cas_no": "4316-94-3", "cn_name": "4-\u6c28\u57fa-5-\u785d\u57fa-6-\u6c2f\u5627\u5576", "en_name": ["6-Chloro-5-nitropyrimidin-4-amine", "4-Pyrimidinamine, 6-chloro-5-nitro-", "Pyrimidine, 4-amino-6-chloro-5-nitro-", "6-Chloro-5-nitro-4-pyrimidinamine", "4-Amino-5-nitro-6-chloropyrimidine", "4-Amino-6-chloro-5-nitropyrimidine", "4-Chloro-5-nitro-6-pyrimidinylamine", "NSC 401941", "6-Chloro-5-nitropyrimidin-4-amine"], "SMILES": "N(=O)(=O)C=1C(Cl)=NC=NC1N", "physical_data": {"Molecular Weight": "174.55", "Molecular Formula": "C4H3ClN4O2", "Melting Point": "155-156 \u00b0C"}}