{"cas_no": "4316-58-9", "cn_name": "\u4e09(4-\u6eb4\u82ef)\u80fa", "en_name": ["Tris(4-bromophenyl)amine", "Benzenamine, 4-bromo-N,N-bis(4-bromophenyl)-", "Triphenylamine, 4,4\u2032,4\u2032\u2032-tribromo-", "4-Bromo-N,N-bis(4-bromophenyl)benzenamine", "Tris(p-bromophenyl)amine", "p,p\u2032,p\u2032\u2032-Tribromotriphenylamine", "Tris(4-bromophenyl)amine", "N,N-Diphenyl-4,4\u2032,4\u2032\u2032-tribromoaniline", "4,4\u2032,4\u2032\u2032-Tribromotriphenylamine", "Tri(p-bromophenyl)amine", "NSC 86666", "Tri(4-bromophenyl)amine", "N,N-Bis(4-bromophenyl)-4-bromoaniline"], "SMILES": "N(C1=CC=C(Br)C=C1)(C2=CC=C(Br)C=C2)C3=CC=C(Br)C=C3", "physical_data": {"Molecular Weight": "482.01", "Molecular Formula": "C18H12Br3N", "Melting Point": "143-144 \u00b0C"}}