{"cas_no": "4316-93-2", "cn_name": "4,6-\u4e8c\u6c2f-5-\u785d\u57fa\u5627\u5576", "en_name": ["4,6-Dichloro-5-nitropyrimidine", "Pyrimidine, 4,6-dichloro-5-nitro-", "4,6-Dichloro-5-nitropyrimidine", "NSC 89693"], "SMILES": "N(=O)(=O)C=1C(Cl)=NC=NC1Cl", "physical_data": {"Molecular Weight": "193.98", "Molecular Formula": "C4HCl2N3O2", "Melting Point": "102-104 \u00b0C"}}