{"cas_no": "4316-23-8", "cn_name": "4-\u7532\u57fa\u90bb\u82ef\u4e8c\u7532\u9178", "en_name": ["4-Methylphthalic acid", "1,2-Benzenedicarboxylic acid, 4-methyl-", "Phthalic acid, 4-methyl-", "4-Methyl-1,2-benzenedicarboxylic acid", "4-Methylphthalic acid", "NSC 83573"], "SMILES": "C(O)(=O)C1=C(C(O)=O)C=C(C)C=C1", "physical_data": {"Molecular Weight": "180.16", "Molecular Formula": "C9H8O4", "Melting Point": "170 \u00b0C"}}