{"cas_no": "4316-42-1", "cn_name": "N-\u4e01\u57fa\u54aa\u5511", "en_name": ["Butylimidazole", "1H-Imidazole, 1-butyl-", "Imidazole, 1-butyl-", "1-Butyl-1H-imidazole", "Butylimidazole", "1-Butylimidazole", "N-Butylimidazole", "N-Butyl-1H-imidazole", "NSC 158165", "N-(n-Butyl)imidazole", "1-n-Butylimidazole", "N-Butylimidazolium"], "SMILES": "C(CCC)N1C=CN=C1", "physical_data": {"Molecular Weight": "124.18", "Molecular Formula": "C7H12N2", "Boiling Point": "114-116 \u00b0C @ Press: 13 Torr", "Melting Point": "114-116 \u00b0C"}}