{"cas_no": "4317-61-7", "cn_name": "1-(2-\u7532\u57fa\u82ef\u6c27\u57fa)-2-\u4e19\u9187", "en_name": ["1-(2-Methylphenoxy)-2-propanol", "2-Propanol, 1-(2-methylphenoxy)-", "2-Propanol, 1-(o-tolyloxy)-", "1-(2-Methylphenoxy)-2-propanol", "1-o-Tolyloxy-2-propanol", "o-Cresoxy-2-propanol", "3-(2-Methylphenoxy)-2-propanol"], "SMILES": "O(CC(C)O)C1=C(C)C=CC=C1", "physical_data": {"Molecular Weight": "166.22", "Molecular Formula": "C10H14O2", "Boiling Point": "106-108 \u00b0C @ Press: 5 Torr", "Density": "1.0390 g/cm\u00b3 @ Temp: 20 \u00b0C"}}