{"cas_no": "4318-56-3", "cn_name": "6-\u6c2f-3-\u7532\u57fa\u5c3f\u5627\u5576", "en_name": ["6-Chloro-3-methyl-2,4(1H,3H)-pyrimidinedione", "2,4(1H,3H)-Pyrimidinedione, 6-chloro-3-methyl-", "Uracil, 6-chloro-3-methyl-", "6-Chloro-3-methyl-2,4(1H,3H)-pyrimidinedione", "6-Chloro-3-methyluracil", "3-Methyl-6-chlorouracil", "6-Chloro-3-methylpyrimidine-2,4(1H,3H)-dione", "NSC 55976", "6-Chloro-3-methylpyrimidine-2,4-dione", "6-Chloro-2-hydroxy-3-methylpyrimidin-4(3H)-one"], "SMILES": "CN1C(=O)C=C(Cl)NC1=O", "physical_data": {"Molecular Weight": "160.56", "Molecular Formula": "C5H5ClN2O2", "Melting Point": "277-279 \u00b0C"}}