{"cas_no": "4318-76-7", "cn_name": "2,5-\u4e8c\u6c28\u57fa\u5421\u5576", "en_name": ["2,5-Diaminopyridine", "2,5-Pyridinediamine", "Pyridine, 2,5-diamino-", "2,5-Diaminopyridine", "NSC 175741"], "SMILES": "NC=1C=CC(N)=NC1", "physical_data": {"Molecular Weight": "109.13", "Molecular Formula": "C5H7N3", "Melting Point": "110.3 \u00b0C"}}