{"cas_no": "4318-78-9", "cn_name": "3,5-\u4e8c\u6c28\u57fa\u5421\u5576", "en_name": ["3,5-Pyridinediamine", "3,5-Pyridinediamine", "Pyridine, 3,5-diamino-", "3,5-Diaminopyridine"], "SMILES": "NC=1C=C(N)C=NC1", "physical_data": {"Molecular Weight": "109.13", "Molecular Formula": "C5H7N3", "Melting Point": "110-111 \u00b0C"}}