{"cas_no": "43182-10-1", "cn_name": "2-\u6c28\u57fa-1-\u82c4\u57fa\u82ef\u5e76\u54aa\u5511", "en_name": ["2-Amino-1-benzylbenzimidazole", "1H-Benzimidazol-2-amine, 1-(phenylmethyl)-", "Benzimidazole, 2-amino-1-benzyl-", "1-(Phenylmethyl)-1H-benzimidazol-2-amine", "1-Benzyl-2-aminobenzimidazole", "2-Amino-1-benzylbenzimidazole", "2-Imino-1-benzyl-1,3-dihydrobenzimidazole", "1-Benzyl-1H-benzoimidazol-2-ylamine", "1-Benzyl-1H-1,3-benzodiazol-2-amine", "1-Benzylbenzimidazol-2-amine", "1-Benzyl-1H-benzimidazol-2-amine", "1-Benzyl-1H-benzo[d]imidazol-2-amine"], "SMILES": "C(N1C=2C(N=C1N)=CC=CC2)C3=CC=CC=C3", "physical_data": {"Molecular Weight": "223.27", "Molecular Formula": "C14H13N3", "Melting Point": "192-193 \u00b0C"}}