{"cas_no": "4318-42-7", "cn_name": "1-\u5f02\u4e19\u57fa\u54cc\u55ea", "en_name": ["Isopropylpiperazine", "Piperazine, 1-(1-methylethyl)-", "Piperazine, 1-isopropyl-", "1-(1-Methylethyl)piperazine", "Isopropylpiperazine", "1-Isopropylpiperazine", "N-Isopropylpiperazine", "4-Isopropylpiperazine", "1-(Propan-2-yl)piperazine", "4-(Propan-2-yl)piperazine", "1-(2-Propyl)-piperazine"], "SMILES": "C(C)(C)N1CCNCC1", "physical_data": {"Molecular Weight": "128.22", "Molecular Formula": "C7H16N2", "Boiling Point": "156-163 \u00b0C"}}