{"cas_no": "43189-45-3", "cn_name": "(S)-2-(2-\u567b\u5429\u57fa)-\u7518\u6c28\u9178", "en_name": ["L-\u03b1-(2-Thienyl)glycine", "2-Thiopheneacetic acid, \u03b1-amino-, (\u03b1S)-", "2-Thiopheneacetic acid, \u03b1-amino-, (S)-", "(\u03b1S)-\u03b1-Amino-2-thiopheneacetic acid", "D-2-Thienylglycine", "D(-)-2-Thienylglycine", "D-2-(2-Thienyl)glycine", "D-\u03b1-Amino-2-thiopheneacetic acid", "L-\u03b1-(2-Thienyl)glycine", "(S)-2-Amino-2-(thiophen-2-yl)acetic acid"], "SMILES": "C(C(O)=O)(N)C1=CC=CS1", "physical_data": {"Molecular Weight": "157.19", "Molecular Formula": "C6H7NO2S", "Melting Point": "189-191 \u00b0C (decomp)"}}