{"cas_no": "43193-60-8", "cn_name": "\u5421\u55ea\u56db\u7fa7\u9178", "en_name": ["2,3,5,6-Pyrazinetetracarboxylic acid", "2,3,5,6-Pyrazinetetracarboxylic acid", "Pyrazinetetracarboxylic acid"], "SMILES": "C(O)(=O)C=1C(C(O)=O)=NC(C(O)=O)=C(C(O)=O)N1", "physical_data": {"Molecular Weight": "256.13", "Molecular Formula": "C8H4N2O8", "Melting Point": "205 \u00b0C (decomp)"}}