{"cas_no": "4319-49-7", "cn_name": "N-\u6c28\u57fa\u5417\u5549", "en_name": ["4-Morpholinamine", "4-Morpholinamine", "Morpholine, 4-amino-", "N-Aminomorpholine", "4-Aminomorpholine", "4-Morpholineamine", "NSC 6825", "(Morpholin-4-yl)amine"], "SMILES": "NN1CCOCC1", "physical_data": {"Molecular Weight": "102.14", "Molecular Formula": "C4H10N2O", "Boiling Point": "166 \u00b0C"}}