{"cas_no": "43192-34-3", "cn_name": "4-\u6eb4-3-\u7532\u6c27\u57fa\u82ef\u7532\u919b", "en_name": ["4-Bromo-3-methoxybenzaldehyde", "Benzaldehyde, 4-bromo-3-methoxy-", "4-Bromo-3-methoxybenzaldehyde", "3-Methoxy-4-bromo-Benzaldehyde"], "SMILES": "O(C)C1=CC(C=O)=CC=C1Br", "physical_data": {"Molecular Weight": "215.04", "Molecular Formula": "C8H7BrO2", "Melting Point": "74-76 \u00b0C"}}