{"cas_no": "4319-02-2", "cn_name": "5-\u7f9f\u57fa\u5f02\u9999\u8349\u9178", "en_name": ["4-O-Methylgallic acid", "Benzoic acid, 3,5-dihydroxy-4-methoxy-", "\u03b1-Resorcylic acid, 4-methoxy-", "3,5-Dihydroxy-4-methoxybenzoic acid", "4-O-Methylgallic acid", "Gallic acid 4-methyl ether", "4-Methoxy-3,5-dihydroxybenzoic acid"], "SMILES": "O(C)C1=C(O)C=C(C(O)=O)C=C1O", "physical_data": {"Molecular Weight": "184.15", "Molecular Formula": "C8H8O5", "Melting Point": "245 \u00b0C"}}