{"cas_no": "432-60-0", "cn_name": "\u70ef\u4e19\u96cc\u9187", "en_name": ["Allylestrenol", "Estr-4-en-17-ol, 17-(2-propen-1-yl)-, (17\u03b2)-", "Estr-4-en-17\u03b2-ol, 17-allyl-", "Estr-4-en-17-ol, 17-(2-propenyl)-, (17\u03b2)-", "(17\u03b2)-17-(2-Propen-1-yl)estr-4-en-17-ol", "Allylestrenol", "17\u03b1-Allylestr-4-en-17\u03b2-ol", "17\u03b1-Allyl-17\u03b2-hydroxy-\u03944-estren", "Gestanin", "Gestanon", "17\u03b1-Allylestrenol", "Gestanol", "Orageston", "Turinal", "17\u03b1-Allyl-4-oestren-17\u03b2-ol", "NSC 37723", "MeSH ID: D000500"], "SMILES": "CC12C(C3C(CC1)C4C(CC3)=CCCC4)CCC2(CC=C)O", "physical_data": {"Molecular Weight": "300.48", "Molecular Formula": "C21H32O", "Melting Point": "80 \u00b0C"}}