{"cas_no": "432-25-7", "cn_name": "BETA-\u73af\u67e0\u6aac\u919b", "en_name": ["\u03b2-Cyclocitral", "1-Cyclohexene-1-carboxaldehyde, 2,6,6-trimethyl-", "2,6,6-Trimethyl-1-cyclohexene-1-carboxaldehyde", "\u03b2-Cyclocitral", "1-Formyl-2,6,6-trimethyl-1-cyclohexene", "2,6,6-Trimethyl-1-cyclohexenecarboxaldehyde", "2,6,6-Trimethylcyclohexene-1-carbaldehyde"], "SMILES": "C(=O)C=1C(C)(C)CCCC1C", "physical_data": {"Molecular Weight": "152.23", "Molecular Formula": "C10H16O", "Boiling Point": "90-92 \u00b0C @ Press: 10 Torr", "Density": "0.952 g/cm\u00b3 @ Temp: 15 \u00b0C"}}