{"cas_no": "432-24-6", "cn_name": "alpha-\u73af\u67e0\u6aac\u919b", "en_name": ["\u03b1-Cyclocitral", "2-Cyclohexene-1-carboxaldehyde, 2,6,6-trimethyl-", "2,6,6-Trimethyl-2-cyclohexene-1-carboxaldehyde", "\u03b1-Cyclocitral", "Filipendulal", "1-Formyl-2,6,6-trimethyl-2-cyclohexene", "(\u00b1)-\u03b1-Cyclocitral", "2,6,6-Trimethylcyclohex-2-ene-1-carbaldehyde"], "SMILES": "C(=O)C1C(C)(C)CCC=C1C", "physical_data": {"Molecular Weight": "152.23", "Molecular Formula": "C10H16O", "Boiling Point": "75-77 \u00b0C @ Press: 10 Torr", "Density": "0.925 g/cm\u00b3 @ Temp: 15 \u00b0C"}}