{"cas_no": "43200-81-3", "cn_name": "6-(5-\u6c2f-2-\u5421\u5576\u57fa)-6,7-\u4e8c\u6c22-7-\u7f9f\u57fa-5H-\u5421\u54af\u5e76[3,4-b]\u5421\u55ea-5-\u916e", "en_name": ["6-(5-Chloro-2-pyridinyl)-6,7-dihydro-7-hydroxy-5H-pyrrolo[3,4-b]pyrazin-5-one", "5H-Pyrrolo[3,4-b]pyrazin-5-one, 6-(5-chloro-2-pyridinyl)-6,7-dihydro-7-hydroxy-", "6-(5-Chloro-2-pyridinyl)-6,7-dihydro-7-hydroxy-5H-pyrrolo[3,4-b]pyrazin-5-one", "RP 29307", "6-(5-Chloropyrid-2-yl)-5-hydroxy-7-oxo-5,6-dihydropyrrolo[3,4-b]pyrazine", "6-(5-Chloropyridin-2-yl)-7-hydroxy-6,7-dihydro-5H-pyrrolo[3,4-b]pyrazin-5-one", "6-(5-Chloro-2-pyridinyl)-5-hydroxy-7-oxo-6,7-dihydro-5H-pyrrolo[3,4-b]pyrazine"], "SMILES": "OC1N(C(=O)C=2C1=NC=CN2)C3=CC=C(Cl)C=N3", "physical_data": {"Molecular Weight": "262.65", "Molecular Formula": "C11H7ClN4O2", "Melting Point": "242 \u00b0C"}}