{"cas_no": "43204-63-3", "cn_name": "\u53cc(2-\u6eb4\u4e59\u57fa)\u80fa\u6c22\u6eb4\u9178\u76d0", "en_name": ["Ethanamine, 2-bromo-N-(2-bromoethyl)-, hydrobromide (1:1)", "Ethanamine, 2-bromo-N-(2-bromoethyl)-, hydrobromide (1:1)", "Ethanamine, 2-bromo-N-(2-bromoethyl)-, hydrobromide", "Diethylamine, 2,2\u2032-dibromo-, hydrobromide", "Bis(2-bromoethyl)amine hydrobromide", "Bis(\u03b2-bromoethyl)amine hydrobromide", "Di(2-bromoethyl)amine hydrobromide"], "SMILES": "N(CCBr)CCBr.Br", "physical_data": {"Molecular Weight": "", "Molecular Formula": "C4H9Br2N.BrH", "Melting Point": "203-205 \u00b0C"}}