{"cas_no": "43200-82-4", "cn_name": "6-(5-\u6c2f-2-\u5421\u5576\u57fa)-5H-\u5421\u54af\u5e76[3,4-b]\u5421\u55ea-5,7(6H)-\u4e8c\u916e", "en_name": ["6-(5-Chloro-2-pyridinyl)-5H-pyrrolo[3,4-b]pyrazine-5,7(6H)-dione", "5H-Pyrrolo[3,4-b]pyrazine-5,7(6H)-dione, 6-(5-chloro-2-pyridinyl)-", "6-(5-Chloro-2-pyridinyl)-5H-pyrrolo[3,4-b]pyrazine-5,7(6H)-dione", "6-(5-Chloro-2-pyridinyl)-5,7-dioxo-6,7-dihydro-5H-pyrrolo[3,4-b]pyrazine"], "SMILES": "O=C1N(C(=O)C=2C1=NC=CN2)C3=CC=C(Cl)C=N3", "physical_data": {"Molecular Weight": "260.64", "Molecular Formula": "C11H5ClN4O2", "Melting Point": "238 \u00b0C"}}