{"cas_no": "43200-80-2", "cn_name": "\u4f50\u5339\u514b\u9686", "en_name": ["Zopiclone", "1-Piperazinecarboxylic acid, 4-methyl-, 6-(5-chloro-2-pyridinyl)-6,7-dihydro-7-oxo-5H-pyrrolo[3,4-b]pyrazin-5-yl ester", "5H-Pyrrolo[3,4-b]pyrazine, 1-piperazinecarboxylic acid deriv.", "Zopiclone", "RP 27267", "Imovane", "(\u00b1)-Zopiclone", "Amoban", "Zimovane", "Amovane", "Sopivan", "Imovance", "Hypnor", "Imoclone"], "SMILES": "O(C(=O)N1CCN(C)CC1)C2N(C(=O)C=3C2=NC=CN3)C4=CC=C(Cl)C=N4", "physical_data": {"Molecular Weight": "388.81", "Molecular Formula": "C17H17ClN6O3", "Melting Point": "178 \u00b0C"}}