{"cas_no": "43218-56-0", "cn_name": "\u76d0\u9178\u7c73\u591a\u541b", "en_name": ["Midodrine hydrochloride", "Acetamide, 2-amino-N-[2-(2,5-dimethoxyphenyl)-2-hydroxyethyl]-, hydrochloride (1:1)", "Acetamide, 2-amino-N-[2-(2,5-dimethoxyphenyl)-2-hydroxyethyl]-, monohydrochloride", "Acetamide, 2-amino-N-(\u03b2-hydroxy-2,5-dimethoxyphenethyl)-, hydrochloride", "Midodrine hydrochloride", "TS 701", "St 1085", "Gutron", "(\u00b1)-Midodrine hydrochloride", "(\u00b1)-Midodrin hydrochloride", "ProAmatine", "Hipertan", "Alphamine", "A 4020 Linz", "Amatine", "St. Peter 224", "Midamine", "Metligene", "2-Amino-N-(2-(2,5-dimethoxyphenyl)-2-hydroxyethyl)acetamide hydrochloride"], "SMILES": "C(CNC(CN)=O)(O)C1=C(OC)C=CC(OC)=C1.Cl", "physical_data": {"Molecular Weight": "", "Molecular Formula": "C12H18N2O4.ClH", "Melting Point": "192-193 \u00b0C", "Density": "1.371 g/cm\u00b3"}}