{"cas_no": "43210-67-9", "cn_name": "\u82ac\u82ef\u8fbe\u5511", "en_name": ["Fenbendazole", "Carbamic acid, N-[6-(phenylthio)-1H-benzimidazol-2-yl]-, methyl ester", "Carbamic acid, [5-(phenylthio)-1H-benzimidazol-2-yl]-, methyl ester", "Fenbendazol", "Fenbendazole", "Methyl 5-(phenylthio)-2-benzimidazolecarbamate", "HOE 881", "2-(Methoxycarbonylamino)-5-(phenylthio)benzimidazole", "Panacur", "Methyl [5-(phenylthio)-1H-benzimidazol-2-yl]carbamate", "Fenbion", "Safe-Guard", "Febendazole", "Axilur", "Vigisol", "(5-Phenylsulfanyl-1H-benzoimidazol-2-yl)-carbamic acid methyl ester", "Panacur AquaSol", "MeSH ID: D005273"], "SMILES": "S(C=1C=C2C(N=C(NC(OC)=O)N2)=CC1)C3=CC=CC=C3", "physical_data": {"Molecular Weight": "299.35", "Molecular Formula": "C15H13N3O2S", "Melting Point": "233 \u00b0C (decomp)"}}