{"cas_no": "43229-80-7", "cn_name": "\u5bcc\u9a6c\u9178\u798f\u83ab\u7279\u7f57", "en_name": ["Formoterol fumarate", "Formamide, N-[2-hydroxy-5-[(1R)-1-hydroxy-2-[[(1R)-2-(4-methoxyphenyl)-1-methylethyl]amino]ethyl]phenyl]-, rel-, (2E)-2-butenedioate (2:1) (salt)", "Formamide, N-[2-hydroxy-5-[1-hydroxy-2-[[2-(4-methoxyphenyl)-1-methylethyl]amino]ethyl]phenyl]-, (R*,R*)-(\u00b1)-, (E)-2-butenedioate (2:1) (salt)", "BD 40A", "Formoterol fumarate", "Atock", "Aformoterol", "CGP 25827A", "YM 08316", "Eformoterol fumarate", "Foradil", "Formamide, N-[2-hydroxy-5-[1-hydroxy-2-[[2-(4-methoxyphenyl)-1-methylethyl]amino]ethyl]phenyl]-, (R*,R*)-, (E)-2-butenedioate (2:1) (salt)", "NSC 299587", "Foradil Acrolizer", "Foradil Certihaler", "Oxis pMDi", "Foradil Aerolizer"], "SMILES": "C(=CC(O)=O)C(O)=O.C(CNC(CC1=CC=C(OC)C=C1)C)(O)C2=CC(NC=O)=C(O)C=C2", "physical_data": {"Molecular Weight": "", "Molecular Formula": "C19H24N2O4.<sup>1</sup>/2C4H4O4", "Melting Point": "138-140 \u00b0C"}}