{"cas_no": "43222-48-6", "cn_name": "\u91ce\u71d5\u67af\u786b\u9178\u4e8c\u7532\u916f", "en_name": ["Difenzoquat methyl sulfate", "1H-Pyrazolium, 1,2-dimethyl-3,5-diphenyl-, methyl sulfate (1:1)", "1H-Pyrazolium, 1,2-dimethyl-3,5-diphenyl-, methyl sulfate", "1,2-Dimethyl-3,5-diphenylpyrazolium methyl sulfate", "AC 84777", "Avenge", "Finaven", "1,2-Dimethyl-3,5-diphenyl-1H-pyrazolium methyl sulfate", "Difenzoquat methyl sulfate", "Avenge SP", "Yeyanku", "Avenge 200C", "Yanmeiku", "Yanmaiku", "1,2-Dimethyl-3,5-diphenyl-1H-pyrazol-2-ium methyl sulfate"], "SMILES": "S(OC)(=O)(=O)[O-].C[N+]1=C(C=C(N1C)C2=CC=CC=C2)C3=CC=CC=C3", "physical_data": {"Molecular Weight": "", "Molecular Formula": "C17H17N2.CH3O4S", "Melting Point": "146-148 \u00b0C"}}