{"cas_no": "43229-01-2", "cn_name": "3'-\u785d\u57fa-4'-\u82c4\u6c27\u57fa-2-\u6eb4\u82ef\u4e59\u916e", "en_name": ["2-Bromo-1-[3-nitro-4-(phenylmethoxy)phenyl]ethanone", "Ethanone, 2-bromo-1-[3-nitro-4-(phenylmethoxy)phenyl]-", "2-Bromo-1-[3-nitro-4-(phenylmethoxy)phenyl]ethanone", "4\u2032-(Benzyloxy)-2-bromo-3\u2032-nitroacetophenone", "2-Bromo-4\u2032-Benzyloxy-3\u2032-nitroacetophenone", "2-Bromo-1-(3-nitro-4-benzyloxyphenyl)ethanone", "1-(Benzyloxy)-2-nitro-4-(2-bromoacetyl)benzene", "4\u2032-Benzyloxy-3\u2032-nitro-2-bromoacetophenone", "1-(4-(Benzyloxy)-3-nitrophenyl)-2-bromoethanone", "1-[4-(Benzyloxy)-3-nitrophenyl]-2-bromoethan-1-one"], "SMILES": "O(CC1=CC=CC=C1)C2=C(N(=O)=O)C=C(C(CBr)=O)C=C2", "physical_data": {"Molecular Weight": "350.16", "Molecular Formula": "C15H12BrNO4", "Melting Point": "135-137 \u00b0C"}}