{"cas_no": "4324-37-2", "cn_name": "2-\u7532\u6c27\u57fa\u4e19\u9178", "en_name": ["2-Methoxypropanoic acid", "Propanoic acid, 2-methoxy-", "Propionic acid, 2-methoxy-", "2-Methoxypropanoic acid", "\u03b1-Methoxypropionic acid", "2-Methoxypropionic acid"], "SMILES": "C(C(O)=O)(OC)C", "physical_data": {"Molecular Weight": "104.10", "Molecular Formula": "C4H8O3", "Boiling Point": "105-108 \u00b0C @ Press: 25 Torr", "Melting Point": "128.5 \u00b0C", "Density": "1.0915 g/cm\u00b3 @ Temp: 20 \u00b0C"}}