{"cas_no": "4324-38-3", "cn_name": "3-\u4e59\u6c27\u57fa\u4e19\u9178", "en_name": ["3-Ethoxypropionic acid", "Propanoic acid, 3-ethoxy-", "Propionic acid, 3-ethoxy-", "3-Ethoxypropanoic acid", "3-Ethoxypropionic acid", "\u03b2-Ethoxypropionic acid", "NSC 16879", "NSC 8118"], "SMILES": "C(COCC)C(O)=O", "physical_data": {"Molecular Weight": "118.13", "Molecular Formula": "C5H10O3", "Boiling Point": "112-114 \u00b0C @ Press: 15 Torr", "Density": "1.0515 g/cm\u00b3 @ Temp: 20 \u00b0C"}}