{"cas_no": "4325-85-3", "cn_name": "\u4e09\uff08\u4e09\u7532\u4ee3\u7532\u7845\u70f7\u57fa\uff09\u787c\u9178\u76d0", "en_name": ["Tris(trimethylsilyl) borate", "Silanol, 1,1,1-trimethyl-, 1,1\u2032,1\u2032\u2032-triester with boric acid (H3BO3)", "Silanol, trimethyl-, triester with boric acid (H3BO3)", "Silanol, trimethyl-, borate", "Borane, tris(trimethylsiloxy)-", "Tris(trimethylsilyl) borate", "Tris(trimethylsiloxy)boron"], "SMILES": "O(B(O[Si](C)(C)C)O[Si](C)(C)C)[Si](C)(C)C", "physical_data": {"Molecular Weight": "278.38", "Molecular Formula": "C9H27BO3Si3", "Boiling Point": "184 \u00b0C", "Melting Point": "-35 \u00b0C", "Density": "0.825 g/cm\u00b3"}}