{"cas_no": "4328-13-6", "cn_name": "\u56db\u5df1\u57fa\u6eb4\u5316\u94f5", "en_name": ["Tetrahexylammonium bromide", "1-Hexanaminium, N,N,N-trihexyl-, bromide (1:1)", "Ammonium, tetrahexyl-, bromide", "1-Hexanaminium, N,N,N-trihexyl-, bromide", "Tetrahexylammonium bromide", "Tetra-n-hexylammonium bromide"], "SMILES": "[N+](CCCCCC)(CCCCCC)(CCCCCC)CCCCCC.[Br-]", "physical_data": {"Molecular Weight": "", "Molecular Formula": "C24H52N.Br", "Melting Point": "99 \u00b0C"}}