{"cas_no": "4329-78-6", "cn_name": "\u6258\u5339\u53f8\u4ed6\u6742\u8d28 7", "en_name": ["4,4\u2032-(1H-1,2,4-Triazole-3,5-diyl)bis[pyridine]", "Pyridine, 4,4\u2032-(1H-1,2,4-triazole-3,5-diyl)bis-", "Pyridine, 4,4\u2032-s-triazole-3,5-diyldi-", "4,4\u2032-(1H-1,2,4-Triazole-3,5-diyl)bis[pyridine]", "3,5-Di(4-pyridyl)-1,2,4-triazole", "3,5-Bis(4-pyridyl)-1,2,4-triazole", "3,5-Bis(\u03b3-pyridyl)-1H-1,2,4-triazole", "3,5-Bis(4-pyridyl)-1H-1,2,4-triazole", "3,5-Di(4-pyridinyl)-1,2,4-triazole", "1H-3,5-Di(4-pyridyl)-1,2,4-triazole", "1H-3,5-Bis(4-pyridyl)-1,2,4-triazole", "3,5-Bis(pyridin-4-yl)-1,2,4-triazole"], "SMILES": "C=1(NC(=NN1)C=2C=CN=CC2)C=3C=CN=CC3", "physical_data": {"Molecular Weight": "223.23", "Molecular Formula": "C12H9N5", "Melting Point": "286-289 \u00b0C"}}