{"cas_no": "4329-81-1", "cn_name": "2-\u82ef\u80fa\u7532\u57fa\u5421\u5576", "en_name": ["N-Phenyl-2-pyridinemethanamine", "2-Pyridinemethanamine, N-phenyl-", "Pyridine, 2-(anilinomethyl)-", "N-Phenyl-2-pyridinemethanamine", "2-(Anilinomethyl)pyridine", "N-(2-Pyridylmethyl)phenylamine", "N-((Pyridin-2-yl)methyl)aniline", "N-(2-Pyridylmethyl)aniline"], "SMILES": "C(NC1=CC=CC=C1)C2=CC=CC=N2", "physical_data": {"Molecular Weight": "184.24", "Molecular Formula": "C12H12N2", "Boiling Point": "155-156 \u00b0C @ Press: 4 Torr", "Melting Point": "50-53 \u00b0C"}}