{"cas_no": "433-19-2", "cn_name": "\u5bf9\u4e8c\u4e09\u6c1f\u7532\u82ef", "en_name": ["1,4-Bis(trifluoromethyl)benzene", "Benzene, 1,4-bis(trifluoromethyl)-", "p-Xylene, \u03b1,\u03b1,\u03b1,\u03b1\u2032,\u03b1\u2032,\u03b1\u2032-hexafluoro-", "1,4-Bis(trifluoromethyl)benzene", "\u03b1,\u03b1,\u03b1,\u03b1\u2032,\u03b1\u2032,\u03b1\u2032-Hexafluoro-p-xylene", "p-Bis(trifluoromethyl)benzene", "p-Trifluoromethylbenzotrifluoride", "1,4-Di(trifluoromethyl)benzene", "NSC 61992", "p-Xylene hexafluoride", "PTF-TFM"], "SMILES": "C(F)(F)(F)C1=CC=C(C(F)(F)F)C=C1", "physical_data": {"Molecular Weight": "214.11", "Molecular Formula": "C8H4F6", "Boiling Point": "116 \u00b0C"}}