{"cas_no": "433-06-7", "cn_name": "2,2,2-\u4e09\u6c1f\u4e59\u57fa \u5bf9\u7532\u82ef\u78fa\u9178\u916f", "en_name": ["2,2,2-Trifluoroethyl p-toluenesulfonate", "Ethanol, 2,2,2-trifluoro-, 1-(4-methylbenzenesulfonate)", "Ethanol, 2,2,2-trifluoro-, p-toluenesulfonate", "Ethanol, 2,2,2-trifluoro-, 4-methylbenzenesulfonate", "2,2,2-Trifluoroethyl tosylate", "2,2,2-Trifluoroethyl p-toluenesulfonate", "2,2,2-Trifluoroethyl 4-toluenesulfonate", "NSC 77401", "p-Toluenesulfonic acid 2,2,2-trifluoroethyl ester", "Toluene-4-sulfonic acid 2,2,2-trifluoroethyl ester", "2,2,2-Trifluoroethyl 4-methylbenzenesulfonate", "2,2,2-Trifluoroethanol 4-methylbenzenesulfonate", "2,2,2-Trifluoroethyl p-methylbenzenesulfonate"], "SMILES": "S(OCC(F)(F)F)(=O)(=O)C1=CC=C(C)C=C1", "physical_data": {"Molecular Weight": "254.23", "Molecular Formula": "C9H9F3O3S", "Boiling Point": "87-92 \u00b0C @ Press: 0.1 Torr", "Melting Point": "41 \u00b0C"}}