{"cas_no": "433-53-4", "cn_name": "\u4e8c\u6c1f\u4e59\u9178\u7532\u916f", "en_name": ["Methyl difluoroacetate", "Acetic acid, 2,2-difluoro-, methyl ester", "Acetic acid, difluoro-, methyl ester", "Methyl difluoroacetate", "Difluoroacetic acid methyl ester", "Methyl 2,2-difluoroacetate", "\u03b1,\u03b1-Difluoroacetic acid methyl ester", "2,2-Difluoroacetic acid methyl ester"], "SMILES": "C(C(F)F)(OC)=O", "physical_data": {"Molecular Weight": "110.06", "Molecular Formula": "C3H4F2O2", "Boiling Point": "85.0-86.0 \u00b0C"}}