{"cas_no": "433-28-3", "cn_name": "\u4e09\u6c1f\u4e59\u9178\u4e59\u70ef\u916f", "en_name": ["Ethenyl 2,2,2-trifluoroacetate", "Acetic acid, 2,2,2-trifluoro-, ethenyl ester", "Acetic acid, trifluoro-, vinyl ester", "Acetic acid, trifluoro-, ethenyl ester", "Ethenyl 2,2,2-trifluoroacetate", "Vinyl trifluoroacetate"], "SMILES": "C(C(F)(F)F)(OC=C)=O", "physical_data": {"Molecular Weight": "140.06", "Molecular Formula": "C4H3F3O2", "Boiling Point": "39.5-40.5 \u00b0C", "Density": "1.2031 g/cm\u00b3 @ Temp: 25 \u00b0C"}}