{"cas_no": "433-97-6", "cn_name": "2-\u4e09\u6c1f\u7532\u57fa\u82ef\u7532\u9178", "en_name": ["2-(Trifluoromethyl)benzoic acid", "Benzoic acid, 2-(trifluoromethyl)-", "o-Toluic acid, \u03b1,\u03b1,\u03b1-trifluoro-", "2-(Trifluoromethyl)benzoic acid", "\u03b1,\u03b1,\u03b1-Trifluoro-o-toluic acid", "o-(Trifluoromethyl)benzoic acid", "NSC 88326"], "SMILES": "C(F)(F)(F)C1=C(C(O)=O)C=CC=C1", "physical_data": {"Molecular Weight": "190.12", "Molecular Formula": "C8H5F3O2", "Melting Point": "111 \u00b0C"}}