{"cas_no": "433-95-4", "cn_name": "1,2-\u53cc(\u4e09\u6c1f\u7532\u57fa)\u82ef", "en_name": ["1,2-Bis(trifluoromethyl)benzene", "Benzene, 1,2-bis(trifluoromethyl)-", "o-Xylene, \u03b1,\u03b1,\u03b1,\u03b1\u2032,\u03b1\u2032,\u03b1\u2032-hexafluoro-", "1,2-Bis(trifluoromethyl)benzene", "o-Bis(trifluoromethyl)benzene", "1,2-Di(trifluoromethyl)benzene", "\u03b1,\u03b1,\u03b1,\u03b1\u2032,\u03b1\u2032,\u03b1\u2032-Hexafluoro-o-xylene"], "SMILES": "C(F)(F)(F)C1=C(C(F)(F)F)C=CC=C1", "physical_data": {"Molecular Weight": "214.11", "Molecular Formula": "C8H4F6", "Boiling Point": "140-142 \u00b0C"}}