{"cas_no": "433-94-3", "cn_name": "2-\u6c28\u57fa-3-\u6c2f\u4e09\u6c1f\u7532\u82ef", "en_name": ["2-Chloro-6-(trifluoromethyl)benzenamine", "Benzenamine, 2-chloro-6-(trifluoromethyl)-", "o-Toluidine, 6-chloro-\u03b1,\u03b1,\u03b1-trifluoro-", "2-Chloro-6-(trifluoromethyl)benzenamine", "2-Amino-3-chlorobenzotrifluoride", "2-Chloro-6-(trifluoromethyl)aniline"], "SMILES": "C(F)(F)(F)C1=C(N)C(Cl)=CC=C1", "physical_data": {"Molecular Weight": "195.57", "Molecular Formula": "C7H5ClF3N", "Boiling Point": "39-40 \u00b0C @ Press: 0.1 Torr"}}