{"cas_no": "433-27-2", "cn_name": "\u4e09\u6c1f\u4e59\u919b\u7f29\u534a\u4e59\u9187", "en_name": ["Trifluoroacetaldehyde ethyl hemiacetal", "Ethanol, 1-ethoxy-2,2,2-trifluoro-", "1-Ethoxy-2,2,2-trifluoroethanol", "Fluoral ethyl hemiacetal", "Trifluoroacetaldehyde ethyl hemiacetal", "NSC 65431", "1-Ethoxy-2,2,2-trifluoroethan-1-ol"], "SMILES": "C(C(F)(F)F)(OCC)O", "physical_data": {"Molecular Weight": "144.09", "Molecular Formula": "C4H7F3O2", "Boiling Point": "104-105 \u00b0C @ Press: 746 Torr", "Density": "1.241 g/cm\u00b3 @ Temp: 20 \u00b0C"}}