{"cas_no": "433-98-7", "cn_name": "2-\u785d\u57fa\u82ef\u7532\u78fa\u9170\u6c1f", "en_name": ["2-Nitrobenzenesulfonyl fluoride", "Benzenesulfonyl fluoride, 2-nitro-", "Benzenesulfonyl fluoride, o-nitro-", "2-Nitrobenzenesulfonyl fluoride", "o-Nitrobenzenesulfonyl fluoride", "NSC 119099", "2-Nitrobenzene-1-sulfonyl fluoride"], "SMILES": "S(F)(=O)(=O)C1=C(N(=O)=O)C=CC=C1", "physical_data": {"Molecular Weight": "205.16", "Molecular Formula": "C6H4FNO4S", "Melting Point": "60 \u00b0C"}}