{"cas_no": "4330-21-6", "cn_name": "1-\u0391-\u6c2f-3,5-\u4e8c-O-\u5bf9\u7532\u82ef\u7532\u9170\u57fa-2-\u8131\u6c27-D-\u544b\u5583\u6838\u7cd6", "en_name": ["Hoffer's chlorosugar", "\u03b1-D-erythro-Pentofuranosyl chloride, 2-deoxy-, 3,5-bis(4-methylbenzoate)", "D-erythro-Pentofuranosyl chloride, 2-deoxy-, di-p-toluate, \u03b1-", "\u03b1-D-erythro-Pentofuranosyl chloride, 2-deoxy-, bis(4-methylbenzoate)", "p-Toluic acid, diester with 2-deoxy-\u03b1-D-erythro-pentofuranosyl chloride", "3,5-Di-O-p-toluyl-2-deoxy-\u03b1-D-ribofuranosyl chloride", "1-Chloro-2-deoxy-3,5-di-O-p-toluoyl-\u03b1-D-erythro-pentofuranose", "2-Deoxy-3,5-di-O-p-toluoyl-\u03b1-D-erythro-pentofuranosyl chloride", "NSC 148837", "Hoffer's chlorosugar", "Hoffer's \u03b1-chlorosugar", "1-Chloro-2-deoxy-3,5-di-O-p-toluoyl-\u03b1-D-ribose", "Hoffer's sugar", "(2R,3S,5R)-5-Chloro-2-[[(4-methylbenzoyl)oxy]methyl]tetrahydrofuran-3-yl] 4-methylbenzoate", "3,5-Di-O-toluoyl-\u03b1-1-chloro-2-deoxy-D-ribofuranose", "1-Chloro-2-deoxy-3,5-di-O-toluoyl-a-D-ribofuranose", "1-\u03b1-Chloro-3,5-ditoluoyl-2-deoxy-D-ribose"], "SMILES": "C(OC(=O)C1=CC=C(C)C=C1)C2C(OC(=O)C3=CC=C(C)C=C3)CC(Cl)O2", "physical_data": {"Molecular Weight": "388.84", "Molecular Formula": "C21H21ClO5", "Melting Point": "117-119 \u00b0C"}}