{"cas_no": "4331-54-8", "cn_name": "4-\u7532\u57fa\u73af\u5df1\u70f7\u7532\u9178", "en_name": ["4-Methylcyclohexanecarboxylic acid", "Cyclohexanecarboxylic acid, 4-methyl-", "4-Methylcyclohexanecarboxylic acid", "p-Methylcyclohexanecarboxylic acid"], "SMILES": "C(O)(=O)C1CCC(C)CC1", "physical_data": {"Molecular Weight": "142.20", "Molecular Formula": "C8H14O2", "Boiling Point": "134-136 \u00b0C @ Press: 15 Torr", "Melting Point": "110 \u00b0C", "Density": "1.0140 g/cm\u00b3 @ Temp: 16 \u00b0C"}}