{"cas_no": "4331-29-7", "cn_name": "3H-\u82ef\u5e76[D]\u54aa\u5511-4-\u80fa", "en_name": ["1H-Benzimidazol-7-amine", "1H-Benzimidazol-7-amine", "Benzimidazole, 4-amino-", "1H-Benzimidazol-4-amine", "Benzimidazole, 4(or 7)-amino-", "4-Aminobenzimidazole", "7-Aminobenzimidazole", "Benzimidazol-4-ylamine", "1H-Benzimidazol-4-ylamine", "NSC 143985", "1H-1,3-Benzodiazol-7-amine", "1H-1,3-Benzodiazol-4-amine", "1H-Benzoimidazol-4-ylamine"], "SMILES": "NC1=C2C(=CC=C1)N=CN2", "physical_data": {"Molecular Weight": "133.15", "Molecular Formula": "C7H7N3", "Melting Point": "120-121 \u00b0C"}}