{"cas_no": "4333-56-6", "cn_name": "\u6eb4\u4ee3\u73af\u4e19\u70f7", "en_name": ["Bromocyclopropane", "Cyclopropane, bromo-", "Bromocyclopropane", "Cyclopropyl bromide", "NSC 89692"], "SMILES": "BrC1CC1", "physical_data": {"Molecular Weight": "120.98", "Molecular Formula": "C3H5Br", "Boiling Point": "69 \u00b0C", "Density": "1.5052 g/cm\u00b3 @ Temp: 25 \u00b0C"}}