{"cas_no": "4333-62-4", "cn_name": "1,3-\u4e8c\u7532\u57fa\u54aa\u5511 \u7898", "en_name": ["1,3-Dimethylimidazolium iodide", "1H-Imidazolium, 1,3-dimethyl-, iodide (1:1)", "Imidazolium, 1,3-dimethyl-, iodide", "1H-Imidazolium, 1,3-dimethyl-, iodide", "1,3-Dimethylimidazolium iodide", "1-Methylimidazole methiodide", "N,N\u2032-Dimethylimidazolium iodide", "1,3-Dimethyl-1H-imidazolium iodide", "1-Methyl-3-methylimidazolium iodide"], "SMILES": "C[N+]1=CN(C)C=C1.[I-]", "physical_data": {"Molecular Weight": "", "Molecular Formula": "C5H9N2.I", "Melting Point": "78-80 \u00b0C"}}