{"cas_no": "4333-19-1", "cn_name": "\u82ef\u57fa\u786b\u4ee3\u4e59\u5185\u9170\u8132-\u4e19\u6c28\u9178", "en_name": ["5-Methyl-3-phenyl-2-thioxo-4-imidazolidinone", "4-Imidazolidinone, 5-methyl-3-phenyl-2-thioxo-", "Hydantoin, 5-methyl-3-phenyl-2-thio-", "5-Methyl-3-phenyl-2-thioxo-4-imidazolidinone", "Alanine phenylthiohydantoin", "Alanine 3-phenyl-2-thiohydantoin", "PTH-alanine", "DL-\u03b1-Alanine phenylthiohydantoin", "DL-Alanine phenylthiohydantoin", "Phenylthiohydantoin DL-alanine"], "SMILES": "O=C1N(C(=S)NC1C)C2=CC=CC=C2", "physical_data": {"Molecular Weight": "206.26", "Molecular Formula": "C10H10N2OS", "Melting Point": "185 \u00b0C"}}