{"cas_no": "4333-21-5", "cn_name": "\u82ef\u57fa\u786b\u4ee3\u4e59\u5185\u9170\u8132-\u812f\u6c28\u9178", "en_name": ["Hexahydro-2-phenyl-3-thioxo-1H-pyrrolo[1,2-c]imidazol-1-one", "1H-Pyrrolo[1,2-c]imidazol-1-one, hexahydro-2-phenyl-3-thioxo-", "1,2-Pyrrolidinedicarboximide, N-phenyl-1-thio-", "Hexahydro-2-phenyl-3-thioxo-1H-pyrrolo[1,2-c]imidazol-1-one", "Proline phenylthiohydantoin", "Phenylthiohydantoin DL-proline", "NSC 370871", "NSC 96411", "2-Phenyl-3-thioxohexahydro-1H-pyrrolo[1,2-c]imidazol-1-one", "2-Phenyl-3-sulfanylidene-5,6,7,7a-tetrahydropyrrolo[1,2-c]imidazol-1-one"], "SMILES": "O=C1N(C(=S)N2C1CCC2)C3=CC=CC=C3", "physical_data": {"Molecular Weight": "232.30", "Molecular Formula": "C12H12N2OS", "Melting Point": "179 \u00b0C"}}