{"cas_no": "4334-88-7", "cn_name": "4-\u4e59\u6c27\u7fb0\u57fa\u82ef\u787c\u9178", "en_name": ["4-(Ethoxycarbonyl)phenylboronic acid", "Benzoic acid, 4-borono-, 1-ethyl ester", "Benzoic acid, p-borono-, 1-ethyl ester", "Benzoic acid, p-borono-, ethyl ester", "4-Carboethoxybenzeneboronic acid", "4-(Ethoxycarbonyl)phenylboronic acid", "Ethyl 4-boronobenzoate", "[4-[(Ethyloxy)carbonyl]phenyl]boronic acid", "[p-(Ethoxycarbonyl)phenyl]boronic acid", "4-(Ethoxylcarbonyl)phenylboronic acid", "(4-(Ethoxycarbonyl)phenyl)boronic acid", "Ethyl 4-dihydroxyborylbenzoate"], "SMILES": "C(OCC)(=O)C1=CC=C(B(O)O)C=C1", "physical_data": {"Molecular Weight": "193.99", "Molecular Formula": "C9H11BO4", "Melting Point": "175-176 \u00b0C"}}