{"cas_no": "4335-77-7", "cn_name": "2-\u73af\u5df1\u57fa-2-\u7f9f\u57fa\u82ef\u4e59\u9178", "en_name": ["(\u00b1)-Cyclohexylphenylglycolic acid", "Benzeneacetic acid, \u03b1-cyclohexyl-\u03b1-hydroxy-", "Cyclohexaneglycolic acid, \u03b1-phenyl-", "\u03b1-Cyclohexyl-\u03b1-hydroxybenzeneacetic acid", "\u03b1-Phenylcyclohexylglycolic acid", "\u03b1-Cyclohexyl-\u03b1-phenylglycolic acid", "Hexahydrobenzilic acid", "2-Cyclohexyl-2-hydroxy-2-phenylacetic acid", "RCC 32", "(\u00b1)-Cyclohexylphenylglycolic acid", "Cyclohexylphenylglycolic acid", "NSC 28945", "NSC 93969", "(Cyclohexyl)(hydroxy)-2-(phenyl)acetic acid", "\u03b1-Cyclohexyl-DL-mandelic acid", "CPGA", "Cyclohexylhydroxyphenylacetic acid", "\u03b1-Cyclohexylmandelic acid"], "SMILES": "C(C(O)=O)(O)(C1CCCCC1)C2=CC=CC=C2", "physical_data": {"Molecular Weight": "234.29", "Molecular Formula": "C14H18O3", "Melting Point": "161-163 \u00b0C"}}