{"cas_no": "4335-90-4", "cn_name": "3-\u4e9a\u82c4\u57fa-2,4-\u620a\u4e8c\u916e", "en_name": ["3-(Phenylmethylene)-2,4-pentanedione", "2,4-Pentanedione, 3-(phenylmethylene)-", "2,4-Pentanedione, 3-benzylidene-", "3-(Phenylmethylene)-2,4-pentanedione", "Benzylidene acetylacetone", "3-Benzylideneacetylacetone", "3-Benzylidene-2,4-pentanedione", "Benzalacetylacetone", "1,1-Diacetyl-2-phenylethylene", "(2,2-Diacetylvinyl)benzene", "NSC 35140"], "SMILES": "C(=CC1=CC=CC=C1)(C(C)=O)C(C)=O", "physical_data": {"Molecular Weight": "188.22", "Molecular Formula": "C12H12O2", "Boiling Point": "150-152 \u00b0C @ Press: 15 Torr", "Melting Point": "169 \u00b0C"}}