{"cas_no": "4336-70-3", "cn_name": "\u6c30\u7532\u57fa\u4e09\u82ef\u57fa\u6c2f\u5316\u78f7", "en_name": ["Phosphonium, (cyanomethyl)triphenyl-, chloride (1:1)", "Phosphonium, (cyanomethyl)triphenyl-, chloride (1:1)", "Phosphonium, (cyanomethyl)triphenyl-, chloride", "(Cyanomethyl)triphenylphosphonium chloride", "NSC 92174", "(Cyanomethyl)triphenylphosphanium chloride"], "SMILES": "[P+](CC#N)(C1=CC=CC=C1)(C2=CC=CC=C2)C3=CC=CC=C3.[Cl-]", "physical_data": {"Molecular Weight": "", "Molecular Formula": "C20H17NP.Cl", "Melting Point": "244 \u00b0C"}}