{"cas_no": "4337-66-0", "cn_name": "\u82ef\u7532\u9178MEA\u76d0", "en_name": ["Ethanol, 2-amino-, benzoate (1:1)", "Ethanol, 2-amino-, benzoate (1:1)", "Ethanol, 2-amino-, benzoate (salt)", "Benzoic acid, compd. with 2-aminoethanol (1:1)", "Monoethanolamine benzoate", "Benzoic acid ethanolamine salt", "MEA-Benzoate", "2-Hydroxyethanaminium benzoate"], "SMILES": "C(O)(=O)C1=CC=CC=C1.C(CO)N", "physical_data": {"Molecular Weight": "", "Molecular Formula": "C7H6O2.C2H7NO", "Melting Point": "142-144 \u00b0C"}}