{"cas_no": "4337-37-5", "cn_name": "DL-\u4eae\u6c28\u9170-\u7518\u6c28\u9170-\u7518\u6c28\u9178", "en_name": ["Leucylglycylglycine", "Glycine, leucylglycyl-", "Glycine, N-(N-DL-leucylglycyl)-", "Leucylglycylglycine", "DL-Leucylglycylglycine", "N-(N-DL-Leucylglycyl)glycine", "NSC 89617", "2-[2-(2-Amino-4-methylpentanamido)acetamido]acetic acid", "2-[[2-[(2-Amino-4-methylpentanoyl)amino]acetyl]amino]acetic acid"], "SMILES": "C(C(CC(C)C)N)(NCC(NCC(O)=O)=O)=O", "physical_data": {"Molecular Weight": "245.28", "Molecular Formula": "C10H19N3O4", "Melting Point": "240 \u00b0C (decomp)", "Density": "1.28 g/cm\u00b3"}}