{"cas_no": "4338-48-1", "cn_name": "N6-(2-\u7f9f\u4e59\u57fa)\u817a\u82f7", "en_name": ["N6-(2-Hydroxyethyl)adenosine", "Adenosine, N-(2-hydroxyethyl)-", "N-(2-Hydroxyethyl)adenosine", "6-[(2-Hydroxyethyl)amino]-9-\u03b2-D-ribofuranosylpurine", "NSC 54251", "N6-(2-Hydroxyethyl)adenosine", "6-Hydroxyethyladenosine"], "SMILES": "OC1C(N2C=3C(N=C2)=C(NCCO)N=CN3)OC(CO)C1O", "physical_data": {"Molecular Weight": "311.29", "Molecular Formula": "C12H17N5O5", "Melting Point": "195-196 \u00b0C"}}