{"cas_no": "4338-95-8", "cn_name": "\u6c28\u57fa\u4e9a\u6c28\u57fa\u786b\u4ee3\u7532\u57fa\u6c22\u7898\u9178", "en_name": ["Carbamimidothioic acid, methyl ester, hydriodide (1:1)", "Carbamimidothioic acid, methyl ester, hydriodide (1:1)", "Pseudourea, 2-methyl-2-thio-, monohydriodide", "Pseudourea, 2-methyl-2-thio-, hydriodide", "Carbamimidothioic acid, methyl ester, monohydriodide", "S-Methylthiuronium iodide", "S-Methylisothiouronium iodide", "2-Methyl-2-isothiourea hydriodide", "S-Methylthiouronium iodide", "S-Methylisothiourea hydriodide", "S-Methylisothiuronium iodide", "2-Methyl-2-thiopseudourea hydriodide", "2-Methylisothiouronium iodide", "Methyl carbamimidothioate hydroiodide", "(Methylsulfanyl)methanimidamide hydroiodide", "Methyl aminomethanimidothioate hydroiodide"], "SMILES": "C(SC)(=N)N.I", "physical_data": {"Molecular Weight": "", "Molecular Formula": "C2H6N2S.HI", "Melting Point": "117 \u00b0C"}}