{"cas_no": "4338-47-0", "cn_name": "\u52a8\u529b\u7cbe\u6838\u82f7", "en_name": ["Kinetin riboside", "Adenosine, N-(2-furanylmethyl)-", "Adenosine, N-furfuryl-", "N-(2-Furanylmethyl)adenosine", "Kinetin riboside", "Riboside, kinetin", "Furfuryladenosine", "N6-Furfuryladenosine", "Ribosylkinetin", "6-Furfuryladenosine", "NSC 120958", "N6-(2-Furanylmethyl)adenosine", "Kinetin\u03b1 riboside", "MB 801"], "SMILES": "OC1C(N2C=3C(N=C2)=C(NCC4=CC=CO4)N=CN3)OC(CO)C1O", "physical_data": {"Molecular Weight": "347.33", "Molecular Formula": "C15H17N5O5", "Melting Point": "151-152 \u00b0C"}}