{"cas_no": "4339-72-4", "cn_name": "\u9f50\u58a9\u679c\u9178 3-\u4e59\u9178\u916f", "en_name": ["Oleanolic acid acetate", "Olean-12-en-28-oic acid, 3-(acetyloxy)-, (3\u03b2)-", "Olean-12-en-28-oic acid, 3\u03b2-hydroxy-, acetate", "Oleanolic acid, acetyl-", "(3\u03b2)-3-(Acetyloxy)olean-12-en-28-oic acid", "Acetyloleanolic acid", "O-Acetyloleanolic acid", "3-O-Acetyloleanolic acid", "3\u03b2-Acetyloleanolic acid", "Oleanolic acetate", "Oleanolic acid acetate", "3-Acetyloleanolic acid", "3\u03b2-Acetoxyolean-12-en-28-oic acid", "3-Acetoxyoleanolic acid", "Oleanolic acid 3-O-acetate", "Oleanolic acid 3\u03b2-acetate", "3\u03b2-Acetoxyolean-12-en-28-acid", "Oleanolic acid 3-acetate"], "SMILES": "CC12C3(C)C(C4C(C(O)=O)(CC3)CCC(C)(C)C4)=CCC1C5(C)C(CC2)C(C)(C)C(OC(C)=O)CC5", "physical_data": {"Molecular Weight": "498.74", "Molecular Formula": "C32H50O4", "Melting Point": "264-265 \u00b0C"}}