{"cas_no": "434-45-7", "cn_name": "2,2,2-\u4e09\u6c1f\u82ef\u4e59\u916e", "en_name": ["2,2,2-Trifluoro-1-phenylethanone", "Ethanone, 2,2,2-trifluoro-1-phenyl-", "Acetophenone, 2,2,2-trifluoro-", "2,2,2-Trifluoro-1-phenylethanone", "2,2,2-Trifluoroacetophenone", "Phenyl trifluoromethyl ketone", "Trifluoromethyl phenyl ketone", "\u03b1,\u03b1,\u03b1-Trifluoroacetophenone", "\u03c9,\u03c9,\u03c9-Trifluoroacetophenone", "2,2,2-Trifluoro-1-phenyl-1-ethanone", "NSC 42752", "(Trifluoroacetyl)benzene", "1-Phenyl-2,2,2-trifluoro-ethanone", "1-Phenyl-\u03b1,\u03b1,\u03b1-trifluoroethanone"], "SMILES": "C(C(F)(F)F)(=O)C1=CC=CC=C1", "physical_data": {"Molecular Weight": "174.12", "Molecular Formula": "C8H5F3O", "Boiling Point": "153 \u00b0C", "Melting Point": "-40 \u00b0C", "Density": "1.279 g/cm\u00b3 @ Temp: 20 \u00b0C"}}