{"cas_no": "434-13-9", "cn_name": "\u77f3\u80c6\u9178", "en_name": ["Lithocholic acid", "Cholan-24-oic acid, 3-hydroxy-, (3\u03b1,5\u03b2)-", "5\u03b2-Cholan-24-oic acid, 3\u03b1-hydroxy-", "5\u03b2-Cholanic acid, 3\u03b1-hydroxy-", "(3\u03b1,5\u03b2)-3-Hydroxycholan-24-oic acid", "3\u03b1-Hydroxycholanic acid", "3\u03b1-Hydroxy-5\u03b2-cholanic acid", "Lithocholic acid", "3\u03b1-Hydroxy-5\u03b2-cholanoic acid", "3\u03b1-Hydroxy-5\u03b2-cholan-24-oate", "3-Hydroxycholan-24-oic acid", "17\u03b2-(1-Methyl-3-carboxypropyl)etiocholan-3\u03b1-ol", "3\u03b1-Hydroxy-5\u03b2-cholan-24-oic acid", "NSC 683770", "MeSH ID: D008095"], "SMILES": "CC12C(C3C(C4(C)C(CC3)CC(O)CC4)CC1)CCC2C(CCC(O)=O)C", "physical_data": {"Molecular Weight": "376.57", "Molecular Formula": "C24H40O3", "Melting Point": "184-186 \u00b0C"}}