{"cas_no": "434-22-0", "cn_name": "\u8bfa\u9f99", "en_name": ["Nandrolone", "Estr-4-en-3-one, 17-hydroxy-, (17\u03b2)-", "Estr-4-en-3-one, 17\u03b2-hydroxy-", "(17\u03b2)-17-Hydroxyestr-4-en-3-one", "\u03944-Estren-17\u03b2-ol-3-one", "Menidrabol", "d-13\u03b2-Methyl-17\u03b2-hydroxygon-4-en-3-one", "Nandrolone", "Norandrostenolone", "19-Nor-17\u03b2-hydroxy-3-ketoandrost-4-ene", "19-Nortestosterone", "17\u03b2-Hydroxyestr-4-en-3-one", "Nortestosterone", "4-Estren-17\u03b2-ol-3-one", "17\u03b2-Hydroxy-19-nor-4-androsten-3-one", "19-Norandrostenolone", "Nandrolon", "Norandrostenolon", "Nortestonate", "Oestrenolon", "4-Estren-3-one-17\u03b2-ol", "(+)-19-Nortestosterone", "17\u03b2-Nortestosterone", "\u03b2-Nortestosterone", "(17\u03b2)-19-Nortestosterone", "NSC 3351", "17\u03b2-Nandrolone", "Biobol", "Hybolin", "4-Estrene-17\u03b2-ol-3-one", "MeSH ID: D009277"], "SMILES": "CC12C(C3C(C4C(CC3)=CC(=O)CC4)CC1)CCC2O", "physical_data": {"Molecular Weight": "274.40", "Molecular Formula": "C18H26O2", "Melting Point": "112 \u00b0C"}}