{"cas_no": "434-90-2", "cn_name": "\u5168\u6c1f\u8054\u82ef", "en_name": ["Decafluorobiphenyl", "1,1\u2032-Biphenyl, 2,2\u2032,3,3\u2032,4,4\u2032,5,5\u2032,6,6\u2032-decafluoro-", "Biphenyl, decafluoro-", "2,2\u2032,3,3\u2032,4,4\u2032,5,5\u2032,6,6\u2032-Decafluoro-1,1\u2032-biphenyl", "Perfluorobiphenyl", "Decafluorobiphenyl", "2,2\u2032,3,3\u2032,4,4\u2032,5,5\u2032,6,6\u2032-Decafluorobiphenyl", "Decafluorodiphenyl", "NSC 97070", "1,2,3,4,5-Pentafluoro-6-(2,3,4,5,6-pentafluorophenyl)benzene", "Perfluoro-[1,1\u2032-biphenyl]"], "SMILES": "FC1=C(C(F)=C(F)C(F)=C1F)C2=C(F)C(F)=C(F)C(F)=C2F", "physical_data": {"Molecular Weight": "334.11", "Molecular Formula": "C12F10", "Boiling Point": "206 \u00b0C", "Melting Point": "67.5 \u00b0C"}}