{"cas_no": "434-64-0", "cn_name": "\u516b\u6c1f\u7532\u82ef", "en_name": ["Octafluorotoluene", "Benzene, 1,2,3,4,5-pentafluoro-6-(trifluoromethyl)-", "Toluene, octafluoro-", "Benzene, pentafluoro(trifluoromethyl)-", "1,2,3,4,5-Pentafluoro-6-(trifluoromethyl)benzene", "Perfluorotoluene", "Octafluorotoluene", "(Trifluoromethyl)pentafluorobenzene", "Pentafluorobenzotrifluoride", "Pentafluoro(trifluoromethyl)benzene", "1-Trifluoromethyl-2,3,4,5,6-pentafluorobenzene", "NSC 88302"], "SMILES": "C(F)(F)(F)C1=C(F)C(F)=C(F)C(F)=C1F", "physical_data": {"Molecular Weight": "236.06", "Molecular Formula": "C7F8", "Boiling Point": "104.5 \u00b0C", "Melting Point": "-65.6 \u00b0C", "Density": "1.660 g/cm\u00b3 @ Temp: 25 \u00b0C"}}