{"cas_no": "434-75-3", "cn_name": "2-\u6c2f-6-\u6c1f\u82ef\u7532\u9178", "en_name": ["2-Chloro-6-fluorobenzoic acid", "Benzoic acid, 2-chloro-6-fluoro-", "2-Chloro-6-fluorobenzoic acid", "NSC 190689", "6-Chloro-2-fluorobenzoic acid"], "SMILES": "C(O)(=O)C1=C(Cl)C=CC=C1F", "physical_data": {"Molecular Weight": "174.56", "Molecular Formula": "C7H4ClFO2", "Melting Point": "160 \u00b0C"}}