{"cas_no": "434-05-9", "cn_name": "\u7f8e\u66ff\u8bfa\u9f99\u918b\u9178\u916f", "en_name": ["Methenolone acetate", "Androst-1-en-3-one, 17-(acetyloxy)-1-methyl-, (5\u03b1,17\u03b2)-", "5\u03b1-Androst-1-en-3-one, 17\u03b2-hydroxy-1-methyl-, acetate", "(5\u03b1,17\u03b2)-17-(Acetyloxy)-1-methylandrost-1-en-3-one", "SH 567", "SH 567a", "SQ 16496", "17\u03b2-Hydroxy-1-methyl-5\u03b1-androst-1-en-3-one acetate", "Methenolone acetate", "1-Methyl-5\u03b1-androst-1-en-17\u03b2-ol-3-one acetate", "Nibal", "Primobolan", "Metenolone acetate", "Primobolone", "1-Methyl-17\u03b2-hydroxy-5\u03b1-androst-1-en-3-one acetate", "1-Methyl-17\u03b2-hydroxy-5\u03b1-androst-1-en-3-one-17\u03b2-acetate", "Primonabol", "NSC 74226", "Methenolone 17-acetate", "Primobolan Tablets"], "SMILES": "CC12C3C(C4C(C)(CC3)C(OC(C)=O)CC4)CCC1CC(=O)C=C2C", "physical_data": {"Molecular Weight": "344.49", "Molecular Formula": "C22H32O3", "Melting Point": "138-139 \u00b0C"}}