{"cas_no": "434-03-7", "cn_name": "\u7094\u5b55\u916e", "en_name": ["Ethisterone", "Pregn-4-en-20-yn-3-one, 17-hydroxy-, (17\u03b1)-", "17\u03b1-Pregn-4-en-20-yn-3-one, 17-hydroxy-", "Testosterone, 17-ethynyl-", "(17\u03b1)-17-Hydroxypregn-4-en-20-yn-3-one", "Anhydrohydroxyprogesterone", "Anhydroxyprogesterone", "Colutoid", "Ethisterone", "17\u03b1-Ethynyl-4-androsten-17\u03b2-ol-3-one", "17\u03b1-Ethynyl-17\u03b2-hydroxy-4-androsten-3-one", "17-Ethynyl-17\u03b2-hydroxyandrost-4-en-3-one", "17-Ethynyl-17-hydroxy-3-ketoandrostene-4", "17\u03b1-Ethynyltestosterone", "Gestoral", "17-Hydroxy-17\u03b1-pregn-4-en-20-yn-3-one", "Lucorteum Oral", "Lutidon Oral", "Lutocylol", "Ora-Lutin", "Pranone", "Pregneninolone", "Pregnin", "Primolut C", "Prodroxan", "Progestab", "Progestoral", "Proluton C", "Prone", "Syngestrotabs", "Trosinone", "Ethynyltestosterone", "17\u03b1-Ethynyl-17-hydroxyandrost-4-en-3-one", "Ethinyltestosterone", "17\u03b2-Hydroxy-17\u03b1-ethynylandrost-4-en-3-one", "Aethisteron", "Progestolets", "Ethinone", "Prolutol", "Prodoxan", "Produxan", "Nalutoral", "Nugestoral", "Progestin P", "17\u03b2-Hydroxy-17\u03b1-pregn-4-en-20-yn-3-one", "4-Androsten-17\u03b1-ethinyl-17\u03b2-ol-3-one", "Lutocyclol", "Lutocyclin-Linguetten", "NSC 9565", "Pregn-4-en-17\u03b2-ol-3-on-20-yne", "MeSH ID: D005003"], "SMILES": "CC12C(C3C(C4(C)C(CC3)=CC(=O)CC4)CC1)CCC2(C#C)O", "physical_data": {"Molecular Weight": "312.45", "Molecular Formula": "C21H28O2", "Melting Point": "272 \u00b0C"}}