{"cas_no": "434-16-2", "cn_name": "7-\u53bb\u6c22\u80c6\u56fa\u9187", "en_name": ["7-Dehydrocholesterol", "Cholesta-5,7-dien-3-ol, (3\u03b2)-", "Cholesta-5,7-dien-3\u03b2-ol", "(3\u03b2)-Cholesta-5,7-dien-3-ol", "Cholesterol, 7-dehydro-", "7-Dehydrocholesterol", "Provitamin D3", "Dehydrocholesterol", "7-Dehydrocholesterin", "7,8-Didehydrocholesterol", "\u03947-Cholesterol", "\u03945,7-Cholestadien-3\u03b2-ol", "NSC 18159"], "SMILES": "CC12C(C=3C(C4(C)C(=CC3)CC(O)CC4)CC1)CCC2C(CCCC(C)C)C", "physical_data": {"Molecular Weight": "384.64", "Molecular Formula": "C27H44O", "Melting Point": "150.5 \u00b0C"}}