{"cas_no": "434-85-5", "cn_name": "\u4e8c\u84bd\u916e", "en_name": ["Bianthrone", "9(10H)-Anthracenone, 10-(10-oxo-9(10H)-anthracenylidene)-", "[\u03949,9\u2032(10H,10\u2032H)-Bianthracene]-10,10\u2032-dione", "\u039410,10\u2032-Bianthrone", "10-(10-Oxo-9(10H)-anthracenylidene)-9(10H)-anthracenone", "Dehydrodianthrone", "Bianthrone", "Bisanthrone", "BAN", "NSC 627656", "NSC 89778", "Bianthrone A", "[9,9\u2032]Bianthracenylidene-10,10\u2032-dione"], "SMILES": "O=C1C=2C(C(C=3C1=CC=CC3)=C4C=5C(C(=O)C=6C4=CC=CC6)=CC=CC5)=CC=CC2", "physical_data": {"Molecular Weight": "384.43", "Molecular Formula": "C28H16O2", "Melting Point": "&gt;300 \u00b0C"}}