{"cas_no": "4341-76-8", "cn_name": "2-\u4e01\u7094\u9178\u4e59\u916f", "en_name": ["Ethyl 2-butynoate", "2-Butynoic acid, ethyl ester", "Tetrolic acid, ethyl ester", "Ethyl tetrolate", "Ethyl 2-butynoate", "Ethyl 3-methylpropiolate", "Ethyl 1-propynecarboxylate"], "SMILES": "C(C#CC)(OCC)=O", "physical_data": {"Molecular Weight": "112.13", "Molecular Formula": "C6H8O2", "Boiling Point": "163 \u00b0C", "Density": "0.9660 g/cm\u00b3 @ Temp: 20 \u00b0C"}}