{"cas_no": "4342-03-4", "cn_name": "\u8fbe\u5361\u5df4\u55ea", "en_name": ["Dacarbazine", "1H-Imidazole-4-carboxamide, 5-(3,3-dimethyl-1-triazen-1-yl)-", "Imidazole-4-carboxamide, 5-(3,3-dimethyl-1-triazeno)-", "1H-Imidazole-4-carboxamide, 5-(3,3-dimethyl-1-triazenyl)-", "Imidazole-4(or 5)-carboxamide, 5(or 4)-(3,3-dimethyl-1-triazeno)-", "5-(3,3-Dimethyl-1-triazen-1-yl)-1H-imidazole-4-carboxamide", "4-(Dimethyltriazeno)imidazole-5-carboxamide", "5-(3,3-Dimethyl-1-triazeno)imidazole-4-carboxamide", "5-(Dimethyltriazeno)imidazole-4-carboxamide", "5(or 4)-(3,3-Dimethyl-1-triazeno)imidazole-4(or 5)carboxamide", "5(4)-(3,3-Dimethyl-1-triazeno)imidazole-4(5)-carboxamide", "4(or 5)-(3,3-Dimethyl-1-triazeno)imidazole-5(or 4)-carboxamide", "5-(3,3-Dimethyltriazeno)imidazole-4-carboxamide", "Dacarbazine", "NSC 45388", "5-(3,3-Dimethyl-1-triazenyl)-1H-imidazole-4-carboxamide", "(Dimethyltriazeno)imidazolecarboxamide", "DTIC", "5-(3,3-Dimethyl-1-triazenyl)imidazole-4-carboxamide", "Biocarbazine R", "Deticene", "5-(3,3\u2032-Dimethyl-1-triazeno)imidazole-4-carboxamide", "Dacarbasine", "DTIE", "DTIC-Dome", "NCI C04717", "ICDT", "ICDMT", "DIC", "Detimedac", "MeSH ID: D003606"], "SMILES": "N(=NN(C)C)C1=C(C(N)=O)N=CN1", "physical_data": {"Molecular Weight": "182.18", "Molecular Formula": "C6H10N6O", "Melting Point": "205 \u00b0C"}}