{"cas_no": "4342-36-3", "cn_name": "(\u82ef\u7532\u9170\u6c27\u57fa)\u4e09\u4e01\u57fa\u9521", "en_name": ["Tributyltin benzoate", "Benzoic acid, tributylstannyl ester", "Stannane, (benzoyloxy)tributyl-", "Tributyltin benzoate", "Tin, (benzoyloxy)tributyl-", "Tri-n-butyltin benzoate", "Tributylstannyl benzoate", "(Benzoyloxy)tributyltin", "NSC 221308", "(Benzoyloxy)tributylstannane", "Fungitrol 158"], "SMILES": "[Sn](OC(=O)C1=CC=CC=C1)(CCCC)(CCCC)CCCC", "physical_data": {"Molecular Weight": "411.17", "Molecular Formula": "C19H32O2Sn", "Boiling Point": "167 \u00b0C", "Density": "1.1926 g/cm\u00b3 @ Temp: 20 \u00b0C"}}