{"cas_no": "4342-61-4", "cn_name": "\u4e8c\u6c2f\u56db\u7532\u57fa\u4e8c\u7845\u70f7", "en_name": ["1,2-Dichloro-1,1,2,2-tetramethyldisilane", "Disilane, 1,2-dichloro-1,1,2,2-tetramethyl-", "1,2-Dichloro-1,1,2,2-tetramethyldisilane", "Dichlorotetramethyldisilane", "1,2-Dichlorotetramethyldisilane", "1,1,2,2-Tetramethyl-1,2-dichlorodisilane"], "SMILES": "[Si]([Si](C)(C)Cl)(C)(C)Cl", "physical_data": {"Molecular Weight": "187.22", "Molecular Formula": "C4H12Cl2Si2", "Boiling Point": "146-148 \u00b0C", "Density": "1.010 g/cm\u00b3 @ Temp: 20 \u00b0C"}}