{"cas_no": "4344-55-2", "cn_name": "4-\u6c28\u57fa\u82ef\u4e01\u919a", "en_name": ["4-Butoxybenzenamine", "Benzenamine, 4-butoxy-", "Aniline, p-butoxy-", "4-Butoxybenzenamine", "p-Butoxyaniline", "4-Butoxyaniline", "p-Butyloxyaniline", "p-n-Butoxyaniline", "(4-Butoxyphenyl)amine", "4-Amino-1-butoxybenzene", "NSC 5443"], "SMILES": "O(CCCC)C1=CC=C(N)C=C1", "physical_data": {"Molecular Weight": "165.23", "Molecular Formula": "C10H15NO", "Boiling Point": "143-144 \u00b0C @ Press: 12 Torr", "Melting Point": "130-132 \u00b0C"}}