{"cas_no": "4345-03-3", "cn_name": "\u7ef4\u751f\u7d20 E \u7425\u73c0\u9178\u916f", "en_name": ["Vitamin E succinate", "Butanedioic acid, 1-[(2R)-3,4-dihydro-2,5,7,8-tetramethyl-2-[(4R,8R)-4,8,12-trimethyltridecyl]-2H-1-benzopyran-6-yl] ester", "Succinic acid, mono[2,5,7,8-tetramethyl-2-(4,8,12-trimethyltridecyl)-6-chromanyl] ester, (+)-", "Butanedioic acid, mono[3,4-dihydro-2,5,7,8-tetramethyl-2-(4,8,12-trimethyltridecyl)-2H-1-benzopyran-6-yl] ester, [2R-[2R*(4R*,8R*)]]-", "\u03b1-Tocopherol, succinate", "Butanedioic acid, mono[(2R)-3,4-dihydro-2,5,7,8-tetramethyl-2-[(4R,8R)-4,8,12-trimethyltridecyl]-2H-1-benzopyran-6-yl] ester", "6-Chromanol, 2,5,7,8-tetramethyl-2-(4,8,12-trimethyltridecyl)-, hydrogen succinate, (+)-", "(+)-\u03b1-Tocopheryl succinate", "\u03b1-Tocopheryl acid succinate", "d-\u03b1-Tocopherol acid succinate", "d-\u03b1-Tocopheryl acid succinate", "\u03b1-Tocopheryl succinate", "\u03b1-Tocopherol hemisuccinate", "Covitol 1210", "\u03b1-Tocopherol acid succinate", "d-\u03b1-Tocopheryl hemisuccinate", "Vitamin E hemisuccinate", "Vitamin E d-\u03b1-tocosuccinate", "Vitamin E acid succinate", "Vitamin E succinate", "CV 104", "NSC 173849", "\u03b1-Vitamin E succinate", "Tocopherol succinate", "\u03b1-Tocopheryl hemisuccinate", "\u03b1-TOS"], "SMILES": "CC1=C2C(=C(C)C(OC(CCC(O)=O)=O)=C1C)CCC(CCCC(CCCC(CCCC(C)C)C)C)(C)O2", "physical_data": {"Molecular Weight": "530.78", "Molecular Formula": "C33H54O5", "Melting Point": "76-77 \u00b0C"}}