{"cas_no": "4346-15-0", "cn_name": "3-\u5432\u54da\u915a\u4e01\u9178\u916f", "en_name": ["Butanoic acid, 1H-indol-3-yl ester", "Butanoic acid, 1H-indol-3-yl ester", "Butyric acid, indol-3-yl ester", "Indol-3-ol, butyrate (ester)", "Indol-3-ol, butyrate", "Indoxyl butyrate", "Indoxyl n-butyrate", "1H-Indol-3-yl butyrate", "3-Butyryloxyindole"], "SMILES": "O(C(CCC)=O)C=1C=2C(NC1)=CC=CC2", "physical_data": {"Molecular Weight": "203.24", "Molecular Formula": "C12H13NO2", "Melting Point": "86-87 \u00b0C"}}