{"cas_no": "4346-94-5", "cn_name": "\u6c28\u57fa\u786b\u8132\u5355\u76d0\u9178\u76d0", "en_name": ["Thiosemicarbazide hydrochloride", "Hydrazinecarbothioamide, monohydrochloride", "Semicarbazide, thio-, monohydrochloride", "Thiosemicarbazide hydrochloride", "Thiosemicarbazide monohydrochloride"], "SMILES": "C(NN)(N)=S.Cl", "physical_data": {"Molecular Weight": "", "Molecular Formula": "CH5N3S.ClH", "Melting Point": "190-191 \u00b0C (decomp)"}}