{"cas_no": "4346-18-3", "cn_name": "\u4e01\u9178\u82ef\u916f", "en_name": ["Phenyl butyrate", "Butanoic acid, phenyl ester", "Butyric acid, phenyl ester", "Phenyl butyrate", "Phenyl butanoate"], "SMILES": "O(C(CCC)=O)C1=CC=CC=C1", "physical_data": {"Molecular Weight": "164.20", "Molecular Formula": "C10H12O2", "Boiling Point": "225 \u00b0C", "Density": "1.022 g/cm\u00b3 @ Temp: 20 \u00b0C"}}