{"cas_no": "4347-33-5", "cn_name": "5-\u919b\u57fa-2-\u567b\u5429\u787c\u9178", "en_name": ["5-Formyl-2-thiopheneboronic acid", "Boronic acid, B-(5-formyl-2-thienyl)-", "2-Thiopheneboronic acid, 5-formyl-", "Boronic acid, (5-formyl-2-thienyl)-", "B-(5-Formyl-2-thienyl)boronic acid", "5-Formyl-2-thiopheneboronic acid", "(5-Formyl-2-thienyl)boronic acid", "[5-(Formyl)thiophen-2-yl]boronic acid"], "SMILES": "B(O)(O)C=1SC(C=O)=CC1", "physical_data": {"Molecular Weight": "155.97", "Molecular Formula": "C5H5BO3S", "Melting Point": "&gt;200 \u00b0C (decomp)"}}