{"cas_no": "434935-69-0", "cn_name": "2-\u7532\u57fa-6-\u785d\u57fa\u82ef\u7532\u9178\u9150", "en_name": ["2-Methyl-6-nitrobenzoic anhydride", "Benzoic acid, 2-methyl-6-nitro-, 1,1\u2032-anhydride", "Benzoic acid, 2-methyl-6-nitro-, anhydride", "2-Methyl-6-nitrobenzoic anhydride", "MNBA", "2-Methyl-6-nitrobenzoic acid anhydride", "(2-Methyl-6-nitrobenzoyl) 2-methyl-6-nitrobenzoate"], "SMILES": "C(OC(=O)C1=C(N(=O)=O)C=CC=C1C)(=O)C2=C(N(=O)=O)C=CC=C2C", "physical_data": {"Molecular Weight": "344.28", "Molecular Formula": "C16H12N2O7", "Melting Point": "178-180 \u00b0C"}}