{"cas_no": "435-97-2", "cn_name": "\u4e59\u82c4\u9999\u8c46", "en_name": ["Phenprocoumon", "2H-1-Benzopyran-2-one, 4-hydroxy-3-(1-phenylpropyl)-", "Coumarin, 3-(\u03b1-ethylbenzyl)-4-hydroxy-", "4-Hydroxy-3-(1-phenylpropyl)-2H-1-benzopyran-2-one", "3-(\u03b1-Ethylbenzyl)-4-hydroxycoumarin", "Falithrom", "Liquamar", "Marcoumar", "Marcumar", "Phenprocoumarol", "Phenprocoumon", "3-(1-Phenylpropyl)-4-hydroxycoumarin", "Phenprocoumarole", "3-(\u03b1-Phenylpropyl)-4-hydroxycoumarin", "4-Hydroxy-2-oxo-3-(1-phenylpropyl)-2H-chromene", "Fencumar", "Ro 1-4849", "(\u00b1)-Phenprocoumon", "DL-3-(\u03b1-Ethylbenzyl)-4-hydroxycoumarin", "BS 7565", "MeSH ID: D010644"], "SMILES": "C(CC)(C1=C(O)C=2C(OC1=O)=CC=CC2)C3=CC=CC=C3", "physical_data": {"Molecular Weight": "280.32", "Molecular Formula": "C18H16O3", "Melting Point": "179-180 \u00b0C"}}