{"cas_no": "4350-41-8", "cn_name": "2-\u5bf9\u6c2f\u82c4\u57fa\u5421\u5576", "en_name": ["2-[(4-Chlorophenyl)methyl]pyridine", "Pyridine, 2-[(4-chlorophenyl)methyl]-", "Pyridine, 2-(p-chlorobenzyl)-", "2-[(4-Chlorophenyl)methyl]pyridine", "2-(4-Chlorobenzyl)pyridine", "2-(p-Chlorobenzyl)pyridine"], "SMILES": "C(C1=CC=C(Cl)C=C1)C2=CC=CC=N2", "physical_data": {"Molecular Weight": "203.67", "Molecular Formula": "C12H10ClN", "Boiling Point": "108-111 \u00b0C @ Press: 0.5 Torr"}}