{"cas_no": "4350-09-8", "cn_name": "5-\u7f9f\u57fa-L-\u8272\u6c28\u9178", "en_name": ["5-Hydroxy-L-tryptophan", "L-Tryptophan, 5-hydroxy-", "Tryptophan, 5-hydroxy-, L-", "5-Hydroxy-L-tryptophan", "L-5-Hydroxytryptophan", "5-Hydroxyl-L-tryptophan", "Pretonine", "Quietim", "Oxitriptan", "5-Hydroxytryptophan", "Triptene", "Levotinine", "Telesol", "Tript-Oh", "Levothym", "Oxyfan", "Serotonyl", "Cincofarm", "L-5-HTP", "(S)-5-Hydroxytryptophan", "(2S)-2-Azaniumyl-3-(5-hydroxy-1H-indol-3-yl)propanoate", "(2S)-2-Amino-3-(5-hydroxy-1H-indol-3-yl)propanoic acid", "(S)-2-Amino-3-(5-hydroxy-1H-indol-3-yl)propanoic acid", "Hydroxy-L-tryptophan"], "SMILES": "C(C(C(O)=O)N)C=1C=2C(NC1)=CC=C(O)C2", "physical_data": {"Molecular Weight": "220.22", "Molecular Formula": "C11H12N2O3", "Melting Point": "273 \u00b0C (decomp)"}}