{"cas_no": "4351-54-6", "cn_name": "\u7532\u9178\u73af\u5df1\u916f", "en_name": ["Cyclohexyl formate", "Formic acid, cyclohexyl ester", "Cyclohexanol, formate", "Cyclohexyl formate", "NSC 11766"], "SMILES": "O(C=O)C1CCCCC1", "physical_data": {"Molecular Weight": "128.17", "Molecular Formula": "C7H12O2", "Boiling Point": "163 \u00b0C", "Melting Point": "72.6 \u00b0C"}}