{"cas_no": "4351-55-7", "cn_name": "\u80c6\u753e\u70ef\u57fa\u7532\u9178\u916f", "en_name": ["Cholesteryl formate", "Cholest-5-en-3-ol (3\u03b2)-, 3-formate", "Cholesterol, formate", "Cholest-5-en-3-ol (3\u03b2)-, formate", "Cholesteryl formate", "3\u03b2-(Formyloxy)cholest-5-ene", "Cholest-5-en-3\u03b2-ol formate", "5-Cholesten-3\u03b2-ol formate"], "SMILES": "CC12C(C3C(C4(C)C(=CC3)CC(OC=O)CC4)CC1)CCC2C(CCCC(C)C)C", "physical_data": {"Molecular Weight": "414.66", "Molecular Formula": "C28H46O2", "Melting Point": "97.5-98.0 \u00b0C"}}