{"cas_no": "4352-42-5", "cn_name": "1-\u73af\u5df1\u57fa-1-\u4e01\u9187", "en_name": ["\u03b1-Propylcyclohexanemethanol", "Cyclohexanemethanol, \u03b1-propyl-", "\u03b1-Propylcyclohexanemethanol", "1-Butanol, 1-cyclohexyl-", "1-Cyclohexyl-1-butanol"], "SMILES": "C(CCC)(O)C1CCCCC1", "physical_data": {"Molecular Weight": "156.27", "Molecular Formula": "C10H20O", "Boiling Point": "112 \u00b0C @ Press: 14 Torr", "Density": "0.905 g/cm\u00b3 @ Temp: 17 \u00b0C"}}