{"cas_no": "4353-77-9", "cn_name": "\u4e09\u7532\u57fa\u7532\u7845\u70f7", "en_name": ["Trimethylsilyl chlorosulfonate", "Chlorosulfuric acid, trimethylsilyl ester", "Silanol, trimethyl-, chlorosulfate", "Silanol, trimethyl-, chlorosulfonate", "Trimethylsilyl chlorosulfonate", "Trimethylsiloxysulfonyl chloride", "Trimethylsilyl chlorosulfate", "Chlorosulfonic acid trimethylsilyl ester", "[Chlorosulfonyloxy(dimethyl)silyl]methane"], "SMILES": "O(S(Cl)(=O)=O)[Si](C)(C)C", "physical_data": {"Molecular Weight": "188.71", "Molecular Formula": "C3H9ClO3SSi", "Boiling Point": "62-64 \u00b0C @ Press: 10 Torr", "Melting Point": "-26 \u00b0C", "Density": "1.230 g/cm\u00b3"}}