{"cas_no": "4354-49-8", "cn_name": "2-\u73af\u5df1\u57fa-2-\u6c27\u4ee3\u4e59\u9178", "en_name": ["\u03b1-Oxocyclohexaneacetic acid", "Cyclohexaneacetic acid, \u03b1-oxo-", "Cyclohexaneglyoxylic acid", "\u03b1-Oxocyclohexaneacetic acid", "Cyclohexylglyoxylic acid", "2-Cyclohexyl-2-oxoacetic acid"], "SMILES": "C(C(O)=O)(=O)C1CCCCC1", "physical_data": {"Molecular Weight": "156.18", "Molecular Formula": "C8H12O3", "Boiling Point": "90-100 \u00b0C @ Press: 0.5 Torr", "Melting Point": "45-49 \u00b0C"}}