{"cas_no": "4355-11-7", "cn_name": "1,1-\u73af\u5df1\u57fa\u4e8c\u4e59\u9178", "en_name": ["1,1-Cyclohexanediacetic acid", "1,1-Cyclohexanediacetic acid", "NSC 169443", "NSC 39839", "1,1-Bis(carboxymethyl)cyclohexane", "(1-Carboxymethyl-cyclohexyl)-acetic acid", "2,2\u2032-(Cyclohexane-1,1-diyl)diacetic acid", "2-[1-(Carboxymethyl)cyclohexyl]acetic acid"], "SMILES": "C(C(O)=O)C1(CC(O)=O)CCCCC1", "physical_data": {"Molecular Weight": "200.23", "Molecular Formula": "C10H16O4", "Boiling Point": "115-133 \u00b0C @ Press: 1.5 Torr", "Melting Point": "181 \u00b0C"}}