{"cas_no": "4358-64-9", "cn_name": "1,4-\u9150-\u8d64\u85d3\u7cd6\u9187", "en_name": ["Erythritan", "3,4-Furandiol, tetrahydro-, (3R,4S)-rel-", "Erythritol, 1,4-anhydro-", "3,4-Furandiol, tetrahydro-, cis-", "rel-(3R,4S)-Tetrahydro-3,4-furandiol", "Erythritan", "cis-3,4-Dihydroxyoxolane", "cis-Tetrahydrofuran-3,4-diol", "cis-3,4-Dihydroxytetrahydrofuran", "Erythritol-1,4-anhydride", "cis-Oxolane-3,4-diol", "(3S,4R)-Tetrahydrofuran-3,4-diol", "meso-3,4-Dihydroxytetrahydrofuran", "(3R,4S)-Tetrahydrofuran-3,4-diol", "(3R,4S)-Tetrahydro-3,4-furandiol"], "SMILES": "OC1C(O)COC1", "physical_data": {"Molecular Weight": "104.10", "Molecular Formula": "C4H8O3", "Boiling Point": "160-165 \u00b0C @ Press: 0.17 Torr", "Melting Point": "20 \u00b0C", "Density": "1.38 g/cm\u00b3"}}