{"cas_no": "4358-87-6", "cn_name": "DL-\u6241\u6843\u9178\u7532\u916f", "en_name": ["(\u00b1)-Methyl mandelate", "Benzeneacetic acid, \u03b1-hydroxy-, methyl ester", "Mandelic acid, methyl ester, DL-", "Benzeneacetic acid, \u03b1-hydroxy-, methyl ester, (\u00b1)-", "Methyl DL-mandelate", "(\u00b1)-Methyl mandelate", "Methyl (RS)-\u03b1-hydroxybenzeneacetate", "(\u00b1)-Mandelic acid methyl ester", "Methyl (\u00b1)-\u03b1-hydroxyphenylacetate", "Methyl mandelate", "Methyl 2-hydroxy-2-phenylacetate", "Methyl phenylglycolate", "Methyl \u03b1-hydroxyphenylacetate", "Methyl (hydroxy)(phenyl)acetate", "\u03b1-Hydroxybenzeneacetic acid methyl ester", "Methyl 2-hydroxy-2-phenylethanoate", "NSC 6539", "2-Hydroxy-2-phenylethanoic acid methyl ester"], "SMILES": "C(C(OC)=O)(O)C1=CC=CC=C1", "physical_data": {"Molecular Weight": "166.17", "Molecular Formula": "C9H10O3", "Boiling Point": "100-104 \u00b0C @ Press: 1 Torr", "Melting Point": "58 \u00b0C", "Density": "1.1284 g/cm\u00b3 @ Temp: 70 \u00b0C"}}