{"cas_no": "436-77-1", "cn_name": "\u9632\u5df1\u8bfa\u6797\u78b1", "en_name": ["Fangchinoline", "16H-1,24:6,9-Dietheno-11,15-metheno-2H-pyrido[2\u2032,3\u2032:17,18][1,11]dioxacycloeicosino[2,3,4-ij]isoquinolin-22-ol, 3,4,4a,5,16a,17,18,19-octahydro-12,21,26-trimethoxy-4,17-dimethyl-, (4aS,16aS)-", "Fangchinoline", "Berbaman-7-ol, 6,6\u2032,12-trimethoxy-2,2\u2032-dimethyl-, (1\u03b2)-", "(4aS,16aS)-3,4,4a,5,16a,17,18,19-Octahydro-12,21,26-trimethoxy-4,17-dimethyl-16H-1,24:6,9-dietheno-11,15-metheno-2H-pyrido[2\u2032,3\u2032:17,18][1,11]dioxacycloeicosino[2,3,4-ij]isoquinolin-22-ol", "(+)-Limacine", "(+)-Fangchinoline", "7-O-Demethyltetrandrine", "16H-1,24:6,9-Dietheno-11,15-metheno-2H-pyrido[2\u2032,3\u2032:17,18][1,11]dioxacycloeicosino[2,3,4-ij]isoquinolin-22-ol, 3,4,4a,5,16a,17,18,19-octahydro-12,21,26-trimethoxy-4,17-dimethyl-, [4aS-(4aR*,16aR*)]-", "NSC 77036", "Hanfangchin B"], "SMILES": "OC1=C2C=3C(CC=4C=C(C(OC)=CC4)OC=5C=CC(CC6C7=CC(O2)=C(OC)C=C7CCN6C)=CC5)N(C)CCC3C=C1OC", "physical_data": {"Molecular Weight": "608.72", "Molecular Formula": "C37H40N2O6", "Melting Point": "237-238 \u00b0C"}}