{"cas_no": "436-05-5", "cn_name": "\u7da0\u5fc3\u6a39\u9e7c", "en_name": ["(-)-Curine", "13H-4,6:21,24-Dietheno-8,12-metheno-1H-pyrido[3\u2032,2\u2032:14,15][1,11]dioxacycloeicosino[2,3,4-ij]isoquinoline-9,19-diol, 2,3,13a,14,15,16,25,25a-octahydro-18,29-dimethoxy-1,14-dimethyl-, (13aR,25aR)-", "Curine", "Tubocuraran-7\u2032,12\u2032-diol, 6,6\u2032-dimethoxy-2,2\u2032-dimethyl-, (1\u03b2)-", "(13aR,25aR)-2,3,13a,14,15,16,25,25a-Octahydro-18,29-dimethoxy-1,14-dimethyl-13H-4,6:21,24-dietheno-8,12-metheno-1H-pyrido[3\u2032,2\u2032:14,15][1,11]dioxacycloeicosino[2,3,4-ij]isoquinoline-9,19-diol", "l-Curine", "(-)-Curine", "Aristolochine (C36 alkaloid)", "(-)-Bebeerine", "Aristolochine", "l-Bebeerine", "NSC 77034", "MCMC 10271"], "SMILES": "OC1=C2C=3C(CC=4C=C(OC=5C=C6C(CC=7C=CC(O2)=CC7)N(C)CCC6=CC5OC)C(O)=CC4)N(C)CCC3C=C1OC", "physical_data": {"Molecular Weight": "594.70", "Molecular Formula": "C36H38N2O6", "Melting Point": "212 \u00b0C"}}