{"cas_no": "436-32-8", "cn_name": "\u5730\u5f17\u5730\u8863\u9178", "en_name": ["Diffractaic acid", "Benzoic acid, 2,4-dimethoxy-3,6-dimethyl-, 4-carboxy-3-hydroxy-2,5-dimethylphenyl ester", "\u03b2-Resorcylic acid, 3,6-dimethyl-, 4-(2,4-dimethoxy-3,6-dimethylbenzoate)", "Diffractaic acid", "NSC 685595", "Difractaic acid", "NSC 5901"], "SMILES": "C(OC1=C(C)C(O)=C(C(O)=O)C(C)=C1)(=O)C2=C(OC)C(C)=C(OC)C=C2C", "physical_data": {"Molecular Weight": "374.38", "Molecular Formula": "C20H22O7", "Melting Point": "189-190 \u00b0C"}}