{"cas_no": "4360-12-7", "cn_name": "\u963f\u4e49\u5417\u5549", "en_name": ["Ajmaline", "Ajmalan-17,21-diol, (17R,21\u03b1)-", "Ajmaline", "5H-6,10:11,12a-Dimethanoindolo[3,2-b]quinolizine, ajmalan-17,21-diol deriv.", "(17R,21\u03b1)-Ajmalan-17,21-diol", "Tachmalin", "Rauwolfine", "Gilurytmal", "Cardiorythmine", "Raugalline", "Rauwolfin", "Ajmalin", "Ignazin", "Merabitol", "Rhytmaton", "Rytmalin", "Siddiqui", "Takycor", "(+)-Ajmaline", "Ritmos", "NSC 15627", "MeSH ID: D000404"], "SMILES": "O[C@H]1C23[C@]([C@]4(N5[C@@](C2)(C1C(C4)[C@H](CC)[C@H]5O)[H])[H])(N(C)C=6C3=CC=CC6)[H]", "physical_data": {"Molecular Weight": "326.43", "Molecular Formula": "C20H26N2O2", "Melting Point": "160 \u00b0C"}}