{"cas_no": "4360-63-8", "cn_name": "2-\u6eb4\u7532\u57fa-1,3-\u4e8c\u6c27\u620a\u70f7", "en_name": ["2-(Bromomethyl)-1,3-dioxolane", "1,3-Dioxolane, 2-(bromomethyl)-", "Acetaldehyde, bromo-, cyclic ethylene acetal", "2-(Bromomethyl)-1,3-dioxolane", "Bromoacetaldehyde ethylene acetal", "Bromoacetaldehyde ethylene ketal", "2-Bromomethyldioxolane", "Bromoacetaldehyde ethylene glycol acetal", "2-(2-Bromomethyl)-1,3-dioxolane", "(1,3-Dioxolan-2-yl)methyl bromide"], "SMILES": "C(Br)C1OCCO1", "physical_data": {"Molecular Weight": "167.00", "Molecular Formula": "C4H7BrO2", "Boiling Point": "79 \u00b0C @ Press: 22 Torr", "Density": "1.6172 g/cm\u00b3 @ Temp: 20 \u00b0C"}}