{"cas_no": "4360-47-8", "cn_name": "3-\u82ef\u57fa-2-\u4e19\u70ef\u8148", "en_name": ["Cinnamonitrile", "2-Propenenitrile, 3-phenyl-", "Cinnamonitrile", "3-Phenyl-2-propenenitrile", "Styryl cyanide", "\u03b2-Cyanostyrene", "3-Phenylacrylonitrile", "1-Cyano-2-phenylethene", "1-Cyano-2-phenylethylene", "\u03b2-Phenylacrylonitrile", "3-Phenylpropenenitrile", "NSC 42118", "NSC 49137", "Cinnamyl nitrile"], "SMILES": "C(=CC#N)C1=CC=CC=C1", "physical_data": {"Molecular Weight": "129.16", "Molecular Formula": "C9H7N", "Boiling Point": "134-136 \u00b0C @ Press: 12 Torr", "Melting Point": "20.5 \u00b0C", "Density": "1.031 g/cm\u00b3 @ Temp: 20 \u00b0C"}}