{"cas_no": "4362-40-7", "cn_name": "4-(\u6c2f\u7532\u57fa)-2,2-\u4e8c\u7532\u57fa-1,3-\u4e8c\u5641\u70f7", "en_name": ["4-(Chloromethyl)-2,2-dimethyl-1,3-dioxolane", "1,3-Dioxolane, 4-(chloromethyl)-2,2-dimethyl-", "4-(Chloromethyl)-2,2-dimethyl-1,3-dioxolane", "1-Chloro-2,3-O-isopropylidenepropane", "(\u00b1)-4-(Chloromethyl)-2,2-dimethyl-1,3-dioxolane"], "SMILES": "C(Cl)C1OC(C)(C)OC1", "physical_data": {"Molecular Weight": "150.60", "Molecular Formula": "C6H11ClO2", "Boiling Point": "157 \u00b0C @ Press: 767 Torr", "Density": "1.109 g/cm\u00b3 @ Temp: 16 \u00b0C"}}