{"cas_no": "4363-95-5", "cn_name": "4-Quinoline-carboxamide", "en_name": ["4-Quinolinecarboxamide", "4-Quinolinecarboxamide", "Cinchoninamide"], "SMILES": "C(N)(=O)C=1C2=C(N=CC1)C=CC=C2", "physical_data": {"Molecular Weight": "172.18", "Molecular Formula": "C10H8N2O", "Melting Point": "181 \u00b0C"}}