{"cas_no": "4363-93-3", "cn_name": "4-\u55b9\u5549\u7532\u919b", "en_name": ["4-Quinolinecarboxaldehyde", "4-Quinolinecarboxaldehyde", "Cinchoninaldehyde", "4-Formylquinoline", "Quinoline-4-carbaldehyde", "NSC 1213", "4-Quinolinyl aldehyde"], "SMILES": "C(=O)C=1C2=C(N=CC1)C=CC=C2", "physical_data": {"Molecular Weight": "157.17", "Molecular Formula": "C10H7NO", "Boiling Point": "122-123 \u00b0C", "Melting Point": "51 \u00b0C"}}