{"cas_no": "4363-94-4", "cn_name": "6-\u7532\u6c27\u57fa-4-\u55b9\u5549\u7fa7\u919b", "en_name": ["6-Methoxy-4-quinolinecarboxaldehyde", "4-Quinolinecarboxaldehyde, 6-methoxy-", "Cinchoninaldehyde, 6-methoxy-", "6-Methoxy-4-quinolinecarboxaldehyde", "Quininaldehyde", "NSC 449"], "SMILES": "C(=O)C=1C2=C(C=CC(OC)=C2)N=CC1", "physical_data": {"Molecular Weight": "187.19", "Molecular Formula": "C11H9NO2", "Melting Point": "160 \u00b0C"}}