{"cas_no": "436799-34-7", "cn_name": "3,5-\u4e8c\u6eb4-2-\u7898\u5421\u5576", "en_name": ["3,5-Dibromo-2-iodopyridine", "Pyridine, 3,5-dibromo-2-iodo-", "3,5-Dibromo-2-iodopyridine"], "SMILES": "BrC1=C(I)N=CC(Br)=C1", "physical_data": {"Molecular Weight": "362.79", "Molecular Formula": "C5H2Br2IN", "Melting Point": "70.5 \u00b0C"}}