{"cas_no": "4368-83-6", "cn_name": "5-\u4e59\u9170\u6c28\u57fa-2-\u785d\u57fa\u82ef\u7532\u9178", "en_name": ["5-Acetamido-2-nitrobenzoic acid", "Benzoic acid, 5-(acetylamino)-2-nitro-", "Benzoic acid, 5-acetamido-2-nitro-", "5-(Acetylamino)-2-nitrobenzoic acid", "5-Acetamido-2-nitrobenzoic acid", "2-Nitro-5-acetylaminobenzoic acid"], "SMILES": "C(O)(=O)C1=C(N(=O)=O)C=CC(NC(C)=O)=C1", "physical_data": {"Molecular Weight": "224.17", "Molecular Formula": "C9H8N2O5", "Melting Point": "210-220 \u00b0C"}}