{"cas_no": "4368-28-9", "cn_name": "\u6cb3\u8c5a\u6bd2\u7d20", "en_name": ["Tetrodotoxin", "5,9:7,10a-Dimethano-10aH-[1,3]dioxocino[6,5-d]pyrimidine-4,7,10,11,12-pentol, 2-amino-1,4,4a,5,9,10-hexahydro-12-(hydroxymethyl)-, (4R,4aR,5R,7S,9S,10S,10aR,11S,12S)-", "Tetrodotoxin", "8a(1H)-Quinazolineorthoglycolic acid, octahydro-4,5,6,7,8-pentahydroxy-6-(hydroxymethyl)-2-imino-, cyclic 8a,5:8a,7-ester", "(4R,4aR,5R,7S,9S,10S,10aR,11S,12S)-2-Amino-1,4,4a,5,9,10-hexahydro-12-(hydroxymethyl)-5,9:7,10a-dimethano-10aH-[1,3]dioxocino[6,5-d]pyrimidine-4,7,10,11,12-pentol", "Tarichatoxin", "Spheroidine", "5,9:7,10a-Dimethano-10aH-[1,3]dioxocino[6,5-d]pyrimidine-4,7,10,11,12-pentol, octahydro-12-(hydroxymethyl)-2-imino-, [4R-(4\u03b1,4a\u03b1,5\u03b1,7\u03b1,9\u03b1,10\u03b1,10a\u03b2,11S*,12S*)]-", "Maculotoxin", "Tetrodotoxine", "[4R-(4\u03b1,4a\u03b1,5\u03b1,7\u03b1,9\u03b1,10\u03b1,10a\u03b2,11S*,12S*)]-Octahydro-12-(hydroxymethyl)-2-imino-5,9:7,10a-dimethano-10aH-[1,3]dioxocino[6,5-d]pyrimidine-4,7,10,11,12-pentol", "BJT 1", "Babyloniajaponica toxin 1", "Araregai toxin", "TTX", "(-)-Tetrodotoxin", "PFT-1 Toxin", "Tectin", "MeSH ID: D013779"], "SMILES": "OC1C23C(C4C(CO)(O)C1OC(O)(C2O)O4)C(O)N=C(N)N3", "physical_data": {"Molecular Weight": "319.27", "Molecular Formula": "C11H17N3O8", "Melting Point": "280 \u00b0C (decomp)"}}