{"cas_no": "4368-51-8", "cn_name": "\u56db\u5e9a\u57fa\u6eb4\u5316\u94f5", "en_name": ["Tetraheptylammonium bromide", "1-Heptanaminium, N,N,N-triheptyl-, bromide (1:1)", "Ammonium, tetraheptyl-, bromide", "1-Heptanaminium, N,N,N-triheptyl-, bromide", "Tetraheptylammonium bromide", "Tetra(n-heptyl)ammonium bromide"], "SMILES": "[N+](CCCCCCC)(CCCCCCC)(CCCCCCC)CCCCCCC.[Br-]", "physical_data": {"Molecular Weight": "", "Molecular Formula": "C28H60N.Br", "Melting Point": "89-91 \u00b0C"}}