{"cas_no": "4369-14-6", "cn_name": "3-\u4e09\u7532\u6c27\u57fa\u7845\u70f7\u4e19\u70ef\u9178\u4e19\u8102", "en_name": ["Acryloxypropyltrimethoxysilane", "2-Propenoic acid, 3-(trimethoxysilyl)propyl ester", "Acrylic acid, 3-(trimethoxysilyl)propyl ester", "1-Propanol, 3-(trimethoxysilyl)-, acrylate", "3-(Trimethoxysilyl)propyl acrylate", "A 0397", "[3-(Acryloyloxy)propyl]trimethoxysilane", "[\u03b3-(Acryloyloxy)propyl]trimethoxysilane", "KBM 5103", "Acryloxypropyltrimethoxysilane", "(3-Acryloxypropyl)trimethoxysilane", "\u03b3-Acryloxypropyltrimethoxysilane", "AY 43-310M", "KMB 5103", "SIA 0200.0", "A 1597", "KBM 5013", "Trimethoxysilylpropyl acrylate", "KBE 5103", "VPS-ACMO", "3-Trimethoxysilylpropyl prop-2-enoate", "KH 5750"], "SMILES": "[Si](CCCOC(C=C)=O)(OC)(OC)OC", "physical_data": {"Molecular Weight": "234.32", "Molecular Formula": "C9H18O5Si", "Boiling Point": "68 \u00b0C @ Press: 0.4 Torr", "Density": "1 g/cm\u00b3"}}