{"cas_no": "437-50-3", "cn_name": "\u9f8d\u81bd\u6839\u7d20", "en_name": ["Gentisin", "9H-Xanthen-9-one, 1,7-dihydroxy-3-methoxy-", "Xanthen-9-one, 1,7-dihydroxy-3-methoxy-", "1,7-Dihydroxy-3-methoxy-9H-xanthen-9-one", "Gentianic acid", "Gentianin", "Gentisin", "Gentisine", "1,7-Dihydroxy-3-methoxyxanthone"], "SMILES": "O=C1C=2C(OC=3C1=CC(O)=CC3)=CC(OC)=CC2O", "physical_data": {"Molecular Weight": "258.23", "Molecular Formula": "C14H10O5", "Melting Point": "266.5 \u00b0C"}}