{"cas_no": "437-64-9", "cn_name": "\u82ab\u82b1\u7d20", "en_name": ["Genkwanin", "4H-1-Benzopyran-4-one, 5-hydroxy-2-(4-hydroxyphenyl)-7-methoxy-", "Flavone, 4\u2032,5-dihydroxy-7-methoxy-", "Genkwanin", "5-Hydroxy-2-(4-hydroxyphenyl)-7-methoxy-4H-1-benzopyran-4-one", "4\u2032,5-Dihydroxy-7-methoxyflavone", "Apigenin 7-methyl ether", "5,4\u2032-Dihydroxy-7-methoxyflavone", "7-O-Methylapigenin", "Puddumetin", "7-Methylapigenin", "Apigenin 7-O-methyl ether"], "SMILES": "O=C1C=2C(OC(=C1)C3=CC=C(O)C=C3)=CC(OC)=CC2O", "physical_data": {"Molecular Weight": "284.26", "Molecular Formula": "C16H12O5", "Melting Point": "286 \u00b0C"}}