{"cas_no": "437-74-1", "cn_name": "\u70df\u9178\u5360\u66ff\u8bfa", "en_name": ["Xanthinol nicotinate", "3-Pyridinecarboxylic acid, compd. with 3,7-dihydro-7-[2-hydroxy-3-[(2-hydroxyethyl)methylamino]propyl]-1,3-dimethyl-1H-purine-2,6-dione (1:1)", "Nicotinic acid, compd. with 7-[2-hydroxy-3-[(2-hydroxyethyl)methylamino]propyl]theophylline (1:1)", "Theophylline, 7-[2-hydroxy-3-[(2-hydroxyethyl)methylamino]propyl]-, nicotinate", "Theophylline, 7-[2-hydroxy-3-[(2-hydroxyethyl)methylamino]propyl]-, mononicotinate (salt)", "1H-Purine-2,6-dione, 3,7-dihydro-7-[2-hydroxy-3-[(2-hydroxyethyl)methylamino]propyl]-1,3-dimethyl-, mono-3-pyridinecarboxylate (salt)", "SK 331A", "Complamin", "7-[2-Hydroxy-3-[N-(2-hydroxyethyl)-N-methylamino]propyl]-1,3-dimethylxanthine pyridine-3-carboxylate", "7-[2-Hydroxy-3-[(2-hydroxyethyl)methylamino]propyl]theophylline nicotinate", "7-[2-Hydroxy-3-[N-methyl-N-(2-hydroxyethyl)amino]-propyl]-theophylline nicotinate", "Xanthinol niacinate", "Xanthinol nicotinate", "7-[3-(Methyl-2-hydroxyethylamino)-2-hydroxypropyl)]theophylline nicotinate", "Complamin retard", "Sadamine", "Complamex", "Angioamin", "Contamex", "Stenalgil", "Teonicol", "Vedrin", "Xavin", "Xantinol nicotinate", "Landrina 300", "Angiomin", "NSC 113217", "MeSH ID: D014971"], "SMILES": "C(O)(=O)C=1C=CC=NC1.C(C(CN(CCO)C)O)N1C2=C(N=C1)N(C)C(=O)N(C)C2=O", "physical_data": {"Molecular Weight": "", "Molecular Formula": "C13H21N5O4.C6H5NO2", "Melting Point": "180 \u00b0C"}}