{"cas_no": "437-81-0", "cn_name": "2,6-\u4e8c\u6c1f\u82ef\u7532\u919b", "en_name": ["2,6-Difluorobenzaldehyde", "Benzaldehyde, 2,6-difluoro-", "2,6-Difluorobenzaldehyde"], "SMILES": "C(=O)C1=C(F)C=CC=C1F", "physical_data": {"Molecular Weight": "142.10", "Molecular Formula": "C7H4F2O", "Boiling Point": "190-195 \u00b0C", "Melting Point": "15-17 \u00b0C"}}