{"cas_no": "437-82-1", "cn_name": "2,6-\u4e8c\u6c1f\u82ef\u7532\u919a", "en_name": ["1,3-Difluoro-2-methoxybenzene", "Benzene, 1,3-difluoro-2-methoxy-", "Anisole, 2,6-difluoro-", "1,3-Difluoro-2-methoxybenzene", "2,6-Difluoroanisole"], "SMILES": "O(C)C1=C(F)C=CC=C1F", "physical_data": {"Molecular Weight": "144.12", "Molecular Formula": "C7H6F2O", "Boiling Point": "62 \u00b0C @ Press: 40 Torr"}}