{"cas_no": "4370-59-6", "cn_name": "\u6eb4\u82ef\u9170\u80fa\u9178", "en_name": ["2,5-Dibromo-3,6-dihydroxy-2,5-cyclohexadiene-1,4-dione", "2,5-Cyclohexadiene-1,4-dione, 2,5-dibromo-3,6-dihydroxy-", "p-Benzoquinone, 2,5-dibromo-3,6-dihydroxy-", "2,5-Dibromo-3,6-dihydroxy-2,5-cyclohexadiene-1,4-dione", "Bromanilic acid", "2,5-Dibromo-3,6-dihydroxyquinone", "2,5-Dihydroxy-3,6-dibromo-1,4-benzoquinone", "NSC 36928", "2,5-Dibromo-3,6-dihydroxy-1,4-benzoquinone"], "SMILES": "BrC=1C(=O)C(O)=C(Br)C(=O)C1O", "physical_data": {"Molecular Weight": "297.89", "Molecular Formula": "C6H2Br2O4", "Melting Point": "270 \u00b0C (decomp)", "Density": "2.53 g/cm\u00b3"}}