{"cas_no": "4371-91-9", "cn_name": "\u516d\u7532\u6c27\u57fa\u4e8c\u7845\u6c27\u70f7", "en_name": ["Silicic acid (H6Si2O7), hexamethyl ester", "Silicic acid (H6Si2O7), hexamethyl ester", "Methyl silicate ((MeO)6Si2O)", "Hexamethoxydisiloxane", "Hexamethyl disilicate", "Bistrimethoxysiloxane"], "SMILES": "[Si](O[Si](OC)(OC)OC)(OC)(OC)OC", "physical_data": {"Molecular Weight": "258.37", "Molecular Formula": "C6H18O7Si2", "Boiling Point": "73 \u00b0C @ Press: 3 Torr", "Density": "1.1222 g/cm\u00b3 @ Temp: 20 \u00b0C"}}