{"cas_no": "4371-64-6", "cn_name": "\u5341\u516d\u70f7\u57fa\u4e19\u4e8c\u9178", "en_name": ["2-Hexadecylpropanedioic acid", "Propanedioic acid, 2-hexadecyl-", "Malonic acid, hexadecyl-", "Propanedioic acid, hexadecyl-", "2-Hexadecylpropanedioic acid", "1,1-Heptadecanedicarboxylic acid", "Hexadecylmalonic acid", "2-Hexadecylmalonic acid", "NSC 74095", "Hexadecyl propanedioic acid"], "SMILES": "C(CCCCCCCCCCCCCCCC)(C(O)=O)C(O)=O", "physical_data": {"Molecular Weight": "328.49", "Molecular Formula": "C19H36O4", "Melting Point": "119 \u00b0C"}}