{"cas_no": "4372-46-7", "cn_name": "\u5421\u54c6\u7d20\u4e09\u68d5\u6988\u9178\u916f", "en_name": ["Pyridoxine tripalmitate", "Hexadecanoic acid, 1,1\u2032-[[6-methyl-5-[(1-oxohexadecyl)oxy]-3,4-pyridinediyl]bis(methylene)] ester", "Palmitic acid, triester with pyridoxol", "Hexadecanoic acid, [6-methyl-5-[(1-oxohexadecyl)oxy]-3,4-pyridinediyl]bis(methylene) ester", "Pyridoxine tripalmitate", "Vitamin B6 tripalmitate"], "SMILES": "C(OC(CCCCCCCCCCCCCCC)=O)C=1C(OC(CCCCCCCCCCCCCCC)=O)=C(C)N=CC1COC(CCCCCCCCCCCCCCC)=O", "physical_data": {"Molecular Weight": "884.40", "Molecular Formula": "C56H101NO6", "Melting Point": "72-73 \u00b0C"}}