{"cas_no": "4373-41-5", "cn_name": "\u5c71\u6942\u9178", "en_name": ["Maslinic acid", "Olean-12-en-28-oic acid, 2,3-dihydroxy-, (2\u03b1,3\u03b2)-", "Olean-12-en-28-oic acid, 2\u03b1,3\u03b2-dihydroxy-", "Maslinic acid", "(2\u03b1,3\u03b2)-2,3-Dihydroxyolean-12-en-28-oic acid", "Crategolic acid", "Crataegolic acid", "2\u03b1-Hydroxyoleanolic acid", "2\u03b1,3\u03b2-Dihydroxyolean-12-en-28-oic acid", "Maslic acid", "Masilinic acid", "2\u03b1,3\u03b2-Dihydroxyloleanolic acid"], "SMILES": "CC12C3(C)C(C4C(C(O)=O)(CC3)CCC(C)(C)C4)=CCC1C5(C)C(CC2)C(C)(C)C(O)C(O)C5", "physical_data": {"Molecular Weight": "472.70", "Molecular Formula": "C30H48O4", "Melting Point": "255-258 \u00b0C"}}