{"cas_no": "4375-07-9", "cn_name": "\u8868\u9b3c\u81fc\u6bd2\u7d20", "en_name": ["(-)-Epipodophyllotoxin", "Furo[3\u2032,4\u2032:6,7]naphtho[2,3-d]-1,3-dioxol-6(5aH)-one, 5,8,8a,9-tetrahydro-9-hydroxy-5-(3,4,5-trimethoxyphenyl)-, (5R,5aR,8aR,9S)-", "Epipodophyllotoxin", "Furo[3\u2032,4\u2032:6,7]naphtho[2,3-d]-1,3-dioxol-6(5aH)-one, 5,8,8a,9-tetrahydro-9-hydroxy-5-(3,4,5-trimethoxyphenyl)-, [5R-(5\u03b1,5a\u03b2,8a\u03b1,9\u03b2)]-", "(5R,5aR,8aR,9S)-5,8,8a,9-Tetrahydro-9-hydroxy-5-(3,4,5-trimethoxyphenyl)furo[3\u2032,4\u2032:6,7]naphtho[2,3-d]-1,3-dioxol-6(5aH)-one", "(-)-Epipodophyllotoxin"], "SMILES": "O=C1C2C(C=3C(C(O)C2CO1)=CC4=C(C3)OCO4)C5=CC(OC)=C(OC)C(OC)=C5", "physical_data": {"Molecular Weight": "414.41", "Molecular Formula": "C22H22O8", "Melting Point": "180 \u00b0C"}}