{"cas_no": "4375-83-1", "cn_name": "\u4e09(\u4e8c\u7532\u57fa\u6c28\u57fa)\u787c\u70f7", "en_name": ["N,N,N\u2032,N\u2032,N\u2032\u2032,N\u2032\u2032-Hexamethylboranetriamine", "Boranetriamine, N,N,N\u2032,N\u2032,N\u2032\u2032,N\u2032\u2032-hexamethyl-", "Borane, tris(dimethylamino)-", "Boranetriamine, hexamethyl-", "Borine, tris(dimethylamino)-", "Dimethylamine, N,N\u2032,N\u2032\u2032-borylidynetris-", "N,N,N\u2032,N\u2032,N\u2032\u2032,N\u2032\u2032-Hexamethylboranetriamine", "Tris(dimethylamino)borane", "Tris(dimethylamino)boron", "NSC 379532", "Tris(dimethylamine)borane", "[Bis(dimethylamino)boranyl]dimethylamine"], "SMILES": "B(N(C)C)(N(C)C)N(C)C", "physical_data": {"Molecular Weight": "143.04", "Molecular Formula": "C6H18BN3", "Boiling Point": "147.5 \u00b0C", "Melting Point": "-40 \u00b0C"}}