{"cas_no": "4376-20-9", "cn_name": "\u90bb\u82ef\u4e8c\u7532\u9178\u5355\u4e59\u57fa\u5df1\u57fa\u916f", "en_name": ["Mono(2-ethylhexyl) phthalate", "1,2-Benzenedicarboxylic acid, 1-(2-ethylhexyl) ester", "Phthalic acid, mono(2-ethylhexyl) ester", "1,2-Benzenedicarboxylic acid, mono(2-ethylhexyl) ester", "Phthalic acid, 2-ethylhexyl ester", "Mono(2-ethylhexyl) phthalate", "2-Ethylhexyl hydrogen phthalate", "BAR 1", "Mono(ethylhexyl) phthalate", "2-((2-(Ethyl)hexyloxy)carbonyl)benzoic acid"], "SMILES": "C(OCC(CCCC)CC)(=O)C1=C(C(O)=O)C=CC=C1", "physical_data": {"Molecular Weight": "278.34", "Molecular Formula": "C16H22O4", "Melting Point": "25-27 \u00b0C"}}