{"cas_no": "4376-18-5", "cn_name": "\u90bb\u82ef\u4e8c\u7532\u9178\u5355\u7532\u916f", "en_name": ["Monomethyl phthalate", "1,2-Benzenedicarboxylic acid, 1-methyl ester", "Phthalic acid, monomethyl ester", "1,2-Benzenedicarboxylic acid, monomethyl ester", "Phthalic acid, methyl ester", "D 3 (ester)", "Monomethyl phthalate", "Methyl phthalate", "D 3", "o-(Methoxycarbonyl)benzoic acid", "Methyl hydrogen phthalate", "2-(Methoxycarbonyl)benzoic acid", "NSC 8281", "Methyl 2-carboxybenzoate", "2-(1-Methoxycarbonyl)benzoic acid"], "SMILES": "C(OC)(=O)C1=C(C(O)=O)C=CC=C1", "physical_data": {"Molecular Weight": "180.16", "Molecular Formula": "C9H8O4", "Melting Point": "82-84 \u00b0C"}}