{"cas_no": "4377-33-7", "cn_name": "2-\u6c2f\u7532\u57fa\u5421\u5576", "en_name": ["Picolyl chloride", "Pyridine, 2-(chloromethyl)-", "2-(Chloromethyl)pyridine", "2-Picolyl chloride", "2-Pyridinemethyl chloride", "2-Pyridylmethyl chloride", "2-Pyridinylmethyl chloride", "\u03b1-Picolyl chloride", "Picolyl chloride", "2-Picolinyl chloride"], "SMILES": "C(Cl)C1=CC=CC=N1", "physical_data": {"Molecular Weight": "127.57", "Molecular Formula": "C6H6ClN", "Boiling Point": "73-76 \u00b0C @ Press: 10 Torr", "Melting Point": "79 \u00b0C"}}