{"cas_no": "4377-43-9", "cn_name": "2-(\u6c2f\u7532\u57fa)-3-\u7532\u57fa\u5421\u5576", "en_name": ["2-(Chloromethyl)-3-methylpyridine", "Pyridine, 2-(chloromethyl)-3-methyl-", "2-(Chloromethyl)-3-methylpyridine"], "SMILES": "C(Cl)C1=C(C)C=CC=N1", "physical_data": {"Molecular Weight": "141.60", "Molecular Formula": "C7H8ClN", "Boiling Point": "59-61 \u00b0C @ Press: 1.4 Torr"}}