{"cas_no": "437742-34-2", "cn_name": "\u9a6c\u91cc\u4f50\u7c73", "en_name": ["(-)-Salinosporamide A", "6-Oxa-2-azabicyclo[3.2.0]heptane-3,7-dione, 4-(2-chloroethyl)-1-[(S)-(1S)-2-cyclohexen-1-ylhydroxymethyl]-5-methyl-, (1R,4R,5S)-", "(1R,4R,5S)-4-(2-Chloroethyl)-1-[(S)-(1S)-2-cyclohexen-1-ylhydroxymethyl]-5-methyl-6-oxa-2-azabicyclo[3.2.0]heptane-3,7-dione", "Salinosporamide A", "(-)-Salinosporamide A", "NPI 0052", "ML 858", "Marizomib"], "SMILES": "C(O)(C12C(C)(C(CCCl)C(=O)N1)OC2=O)C3CCCC=C3", "physical_data": {"Molecular Weight": "313.78", "Molecular Formula": "C15H20ClNO4", "Melting Point": "168-170 \u00b0C"}}