{"cas_no": "4377-41-7", "cn_name": "2-(\u6c2f\u7532\u57fa)\u55b9\u5549", "en_name": ["2-(Chloromethyl)quinoline", "Quinoline, 2-(chloromethyl)-", "2-(Chloromethyl)quinoline", "\u03b1-Chloroquinaldine", "NSC 158442"], "SMILES": "C(Cl)C1=NC2=C(C=C1)C=CC=C2", "physical_data": {"Molecular Weight": "177.63", "Molecular Formula": "C10H8ClN", "Melting Point": "53.5-54.5 \u00b0C"}}