{"cas_no": "438-59-5", "cn_name": "\u53bb\u7532\u57fa\u76d0\u9178\u73af\u82ef\u624e\u6797", "en_name": ["10,11-Didehydronortriptyline hydrochloride", "1-Propanamine, 3-(5H-dibenzo[a,d]cyclohepten-5-ylidene)-N-methyl-, hydrochloride (1:1)", "5H-Dibenzo[a,d]cycloheptene-\u03945,\u03b3-propylamine, N-methyl-, hydrochloride", "1-Propanamine, 3-(5H-dibenzo[a,d]cyclohepten-5-ylidene)-N-methyl-, hydrochloride", "Ro 4-6011", "Norproheptatriene hydrochloride", "N 7068 Hydrochloride", "10,11-Didehydronortriptyline hydrochloride"], "SMILES": "C(CCNC)=C1C=2C(C=CC=3C1=CC=CC3)=CC=CC2.Cl", "physical_data": {"Molecular Weight": "", "Molecular Formula": "C19H19N.ClH", "Melting Point": "210-212 \u00b0C"}}