{"cas_no": "438-60-8", "cn_name": "\u666e\u7f57\u66ff\u6797", "en_name": ["Protriptyline", "5H-Dibenzo[a,d]cycloheptene-5-propanamine, N-methyl-", "5H-Dibenzo[a,d]cycloheptene-5-propylamine, N-methyl-", "N-Methyl-5H-dibenzo[a,d]cycloheptene-5-propanamine", "MK 240", "N-3-(5H-Dibenzo[a,d]cyclohepten-5-yl)propyl-N-methylamine", "5-(3-Methylaminopropyl)-5H-dibenzo[a,d]cycloheptene", "Protriptyline", "Protryptyline", "Triptil", "N-Methyl-5H-dibenzo[a,d]cycloheptene-5-propylamine", "7-(3-Methylaminopropyl)-1,2:5,6-dibenzocycloheptatriene", "Amimetilina", "MeSH ID: D011530"], "SMILES": "C(CCNC)C1C=2C(C=CC=3C1=CC=CC3)=CC=CC2", "physical_data": {"Molecular Weight": "263.38", "Molecular Formula": "C19H21N", "Boiling Point": "163-164 \u00b0C @ Press: 0.35 Torr"}}