{"cas_no": "438-22-2", "cn_name": "5-ALPHA-\u96c4\u70f7", "en_name": ["Androstane", "Androstane, (5\u03b1)-", "5\u03b1-Androstane", "(5\u03b1)-Androstane", "Etioallocholane", "5\u03b1,14\u03b1-Androstane", "Androstane", "Aetioallocholane", "5\u03b1-Androstan", "NSC 49000"], "SMILES": "CC12C3C(C4C(C)(CC3)CCC4)CCC1CCCC2", "physical_data": {"Molecular Weight": "260.46", "Molecular Formula": "C19H32", "Melting Point": "50.25 \u00b0C"}}