{"cas_no": "438-67-5", "cn_name": "\u96cc\u916e3-\u786b\u9178\u94a0", "en_name": ["Sodium estrone sulfate", "Estra-1,3,5(10)-trien-17-one, 3-(sulfooxy)-, sodium salt (1:1)", "Estrone, hydrogen sulfate sodium salt", "Estra-1,3,5(10)-trien-17-one, 3-(sulfooxy)-, sodium salt", "Estrone sulfate sodium salt", "Estrone sodium sulfate", "Estrone sulfate sodium", "Sodium estrone sulfate", "Sodium estrone-3-sulfate", "Conestoral", "Morestin", "3-Sulfatoxyestra-1,3,5(10)-trien-17-one sodium salt", "NSC 18313"], "SMILES": "CC12C(C3C(C=4C(CC3)=CC(OS(=O)(=O)O)=CC4)CC1)CCC2=O.[Na]", "physical_data": {"Molecular Weight": "", "Molecular Formula": "C18H22O5S.Na", "Melting Point": "226-228 \u00b0C"}}