{"cas_no": "438-41-5", "cn_name": "\u76d0\u9178\u6c2f\u6c2e\u5353", "en_name": ["Chlordiazepoxide hydrochloride", "3H-1,4-Benzodiazepin-2-amine, 7-chloro-N-methyl-5-phenyl-, 4-oxide, hydrochloride (1:1)", "3H-1,4-Benzodiazepine, 7-chloro-2-(methylamino)-5-phenyl-, 4-oxide, monohydrochloride", "3H-1,4-Benzodiazepin-2-amine, 7-chloro-N-methyl-5-phenyl-, 4-oxide, monohydrochloride", "Ro 5-0690", "Chlordiazepoxide hydrochloride", "7-Chloro-2-(methylamino)-5-phenyl-3H-1,4-benzodiazepine-4-oxide hydrochloride", "Librium hydrochloride", "Methaminodiazepoxide hydrochloride", "Chlordiazepoxide monohydrochloride", "Librium", "Contol", "Chlorodiazepoxide hydrochloride", "Disarim", "Viansin", "Equibral", "Psicoterina", "Labican", "Cebrum", "SK-Lygen", "Corax", "A-Poxide", "Seren Vita", "Ansiacal", "NSC 115748", "OCM", "Reliberan", "Psichial", "Benzodiapin", "Lentotran", "Sigma C 2517"], "SMILES": "O=N1=C(C=2C(N=C(NC)C1)=CC=C(Cl)C2)C3=CC=CC=C3.Cl", "physical_data": {"Molecular Weight": "", "Molecular Formula": "C16H14ClN3O.ClH", "Melting Point": "213 \u00b0C"}}