{"cas_no": "438056-69-0", "cn_name": "4-(4-\u6c28\u57fa\u82ef\u57fa)\u5417\u5561\u5549-3-\u916e", "en_name": ["4-(4-Aminophenyl)morpholin-3-one", "3-Morpholinone, 4-(4-aminophenyl)-", "4-(4-Aminophenyl)-3-morpholinone", "4-(3-Oxo-4-morpholinyl)aniline", "4-(4-Aminophenyl)morpholin-3-one", "N-4-Aminophenylmorpholin-3-one"], "SMILES": "O=C1N(C2=CC=C(N)C=C2)CCOC1", "physical_data": {"Molecular Weight": "192.21", "Molecular Formula": "C10H12N2O2", "Melting Point": "118-120 \u00b0C"}}