{"cas_no": "4382-54-1", "cn_name": "5-\u7532\u6c27\u57fa\u5432\u54da-2-\u7fa7\u9178", "en_name": ["5-Methoxy-1H-indole-2-carboxylic acid", "1H-Indole-2-carboxylic acid, 5-methoxy-", "Indole-2-carboxylic acid, 5-methoxy-", "5-Methoxy-1H-indole-2-carboxylic acid", "5-Methoxyindole-2-carboxylic acid", "NSC 30927"], "SMILES": "C(O)(=O)C1=CC=2C(N1)=CC=C(OC)C2", "physical_data": {"Molecular Weight": "191.18", "Molecular Formula": "C10H9NO3", "Melting Point": "196-197 \u00b0C"}}