{"cas_no": "4382-56-3", "cn_name": "\u9739\u96f3\u841d\u8299\u6728\u78b1", "en_name": ["Perakine", "18-Norajmalan-19-al, 17-(acetyloxy)-1,2-didehydro-1-demethyl-21-methyl-, (17R,20\u03b1,21\u03b2)-", "Perakine", "(17R,20\u03b1,21\u03b2)-17-(Acetyloxy)-1,2-didehydro-1-demethyl-21-methyl-18-norajmalan-19-al", "Raucaffrine"], "SMILES": "O(C(C)=O)C1C23C(C4N5C(C2)C1C(C4)C(C=O)C5C)=NC=6C3=CC=CC6", "physical_data": {"Molecular Weight": "350.41", "Molecular Formula": "C21H22N2O3", "Melting Point": "186 \u00b0C"}}