{"cas_no": "4383-05-5", "cn_name": "2-\u7f9f\u57fa-3-\u7532\u6c27\u57fa\u82c4\u9187", "en_name": ["2-Hydroxy-3-methoxybenzenemethanol", "Benzenemethanol, 2-hydroxy-3-methoxy-", "Benzyl alcohol, 2-hydroxy-3-methoxy-", "2-Hydroxy-3-methoxybenzenemethanol", "o-Vanillyl alcohol", "2-Hydroxy-3-methoxybenzyl alcohol", "3-Methoxysalicyl alcohol", "o-(Hydroxymethyl)guaiacol", "2-Hydroxymethyl-6-methoxyphenol", "Ortho-vanillyl alcohol", "2-Hydroxy-3-methoxy-hydroxymethyl benzene"], "SMILES": "C(O)C1=C(O)C(OC)=CC=C1", "physical_data": {"Molecular Weight": "154.16", "Molecular Formula": "C8H10O3", "Boiling Point": "135 \u00b0C", "Melting Point": "61.5 \u00b0C"}}