{"cas_no": "4383-06-6", "cn_name": "3-\u7f9f\u57fa-4-\u7532\u6c27\u57fa\u82ef\u7532\u9187", "en_name": ["Isovanillyl alcohol", "Benzenemethanol, 3-hydroxy-4-methoxy-", "Benzyl alcohol, 3-hydroxy-4-methoxy-", "3-Hydroxy-4-methoxybenzenemethanol", "Isovanillyl alcohol", "3-Hydroxy-4-methoxybenzyl alcohol", "3-Hydroxymethyl-6-methoxyphenol", "5-Hydroxymethyl-2-methoxyphenol", "NSC 93802"], "SMILES": "C(O)C1=CC(O)=C(OC)C=C1", "physical_data": {"Molecular Weight": "154.16", "Molecular Formula": "C8H10O3", "Melting Point": "136 \u00b0C"}}