{"cas_no": "4385-56-2", "cn_name": "3,5-\u4e8c\u7532\u6c27\u57fa-4-\u7f9f\u57fa\u82ef\u4e59\u9178", "en_name": ["3,5-Dimethoxy-4-hydroxyphenylacetic acid", "Benzeneacetic acid, 4-hydroxy-3,5-dimethoxy-", "Acetic acid, (4-hydroxy-3,5-dimethoxyphenyl)-", "4-Hydroxy-3,5-dimethoxybenzeneacetic acid", "Homosyringic acid", "4-Hydroxy-3,5-dimethoxyphenylacetic acid", "3,5-Dimethoxy-4-hydroxyphenylacetic acid", "2-(4-Hydroxy-3,5-dimethoxyphenyl)acetic acid"], "SMILES": "C(C(O)=O)C1=CC(OC)=C(O)C(OC)=C1", "physical_data": {"Molecular Weight": "212.20", "Molecular Formula": "C10H12O5", "Melting Point": "130-131 \u00b0C"}}