{"cas_no": "4385-76-6", "cn_name": "4-\u5421\u5576-4-\u57fa\u82ef\u7532\u9178", "en_name": ["4-(4-Pyridyl)benzoic acid", "Benzoic acid, 4-(4-pyridinyl)-", "Benzoic acid, p-4-pyridyl-", "4-(4-Pyridinyl)benzoic acid", "4-(4-Pyridyl)benzoic acid"], "SMILES": "C(O)(=O)C1=CC=C(C=C1)C=2C=CN=CC2", "physical_data": {"Molecular Weight": "199.21", "Molecular Formula": "C12H9NO2", "Melting Point": "&gt;330 \u00b0C (decomp)"}}