{"cas_no": "4385-05-1", "cn_name": "4-[2-(\u4e8c\u7532\u57fa\u6c28\u57fa)\u4e59\u57fa]\u5417\u5549", "en_name": ["N-(2-Dimethylaminoethyl)morpholine", "4-Morpholineethanamine, N,N-dimethyl-", "Morpholine, 4-[2-(dimethylamino)ethyl]-", "N,N-Dimethyl-4-morpholineethanamine", "4-[2-(Dimethylamino)ethyl]morpholine", "Kalpur PM", "N-(2-Dimethylaminoethyl)morpholine", "Dabco XDM", "XDM", "Toyocat DAEM"], "SMILES": "C(CN(C)C)N1CCOCC1", "physical_data": {"Molecular Weight": "158.24", "Molecular Formula": "C8H18N2O", "Boiling Point": "93-94 \u00b0C @ Press: 20 Torr"}}