{"cas_no": "4385-35-7", "cn_name": "3-\u5f02\u8272\u916e", "en_name": ["3-Isochromanone", "3H-2-Benzopyran-3-one, 1,4-dihydro-", "3-Isochromanone", "Acetic acid, (\u03b1-hydroxy-o-tolyl)-, \u03b4-lactone", "1,4-Dihydro-3H-2-benzopyran-3-one", "1H-2-Benzopyran-3(4H)-one", "Benzeneacetic acid, 2-(hydroxymethyl)-, \u03b4-lactone", "2-Hydroxymethylphenylacetic acid lactone", "3,6-Dihydro-4,5-benzo-2-pyrone", "NSC 160530", "1,4-Dihydroisochromen-3-one", "3,4-Dihydro-1H-2-benzopyran-3-one"], "SMILES": "O=C1CC=2C(CO1)=CC=CC2", "physical_data": {"Molecular Weight": "148.16", "Molecular Formula": "C9H8O2", "Boiling Point": "130 \u00b0C @ Press: 1 Torr", "Melting Point": "82-83 \u00b0C"}}