{"cas_no": "4385-04-0", "cn_name": "N,N-\u4e8c\u7532\u57fa\u5df1\u80fa", "en_name": ["N,N-Dimethylhexylamine", "1-Hexanamine, N,N-dimethyl-", "Hexylamine, N,N-dimethyl-", "N,N-Dimethyl-1-hexanamine", "N,N-Dimethylhexylamine", "Hexyldimethylamine", "N-Hexyldimethylamine", "1-(Dimethylamino)hexane", "N,N-Dimethyl-n-hexylamine"], "SMILES": "C(CN(C)C)CCCC", "physical_data": {"Molecular Weight": "129.24", "Molecular Formula": "C8H19N", "Boiling Point": "147 \u00b0C"}}