{"cas_no": "4386-39-4", "cn_name": "2-\u4e59\u9170\u57fa-3-\u7532\u57fa\u82ef\u7532\u9178", "en_name": ["2-(Acetyloxy)-3-methylbenzoic acid", "Benzoic acid, 2-(acetyloxy)-3-methyl-", "2,3-Cresotic acid, acetate", "2-(Acetyloxy)-3-methylbenzoic acid", "Acetyl-o-cresotic acid", "Cresopirine", "AGN 357", "2-Acetoxy-3-methylbenzoic acid", "NSC 49105", "Cresopyrine"], "SMILES": "O(C(C)=O)C1=C(C(O)=O)C=CC=C1C", "physical_data": {"Molecular Weight": "194.18", "Molecular Formula": "C10H10O4", "Melting Point": "113 \u00b0C"}}