{"cas_no": "4387-31-9", "cn_name": "3-\u7532\u57fa-4-\u6c2f\u82ef\u8148", "en_name": ["4-Chloro-3-methylbenzonitrile", "Benzonitrile, 4-chloro-3-methyl-", "m-Tolunitrile, 4-chloro-", "4-Chloro-3-methylbenzonitrile"], "SMILES": "C(#N)C1=CC(C)=C(Cl)C=C1", "physical_data": {"Molecular Weight": "151.59", "Molecular Formula": "C8H6ClN", "Boiling Point": "58-60 \u00b0C @ Press: 6 x 10<sup>-3</sup> Torr", "Melting Point": "46-47 \u00b0C"}}