{"cas_no": "4387-36-4", "cn_name": "2-\u7898\u6c30\u57fa\u82ef", "en_name": ["2-Iodobenzonitrile", "Benzonitrile, 2-iodo-", "Benzonitrile, o-iodo-", "2-Iodobenzonitrile", "o-Iodobenzonitrile", "2-Iodophenyl cyanide", "o-Cyanophenyl iodide", "2-Cyanophenyl iodide", "1-Cyano-2-iodobenzene"], "SMILES": "C(#N)C1=C(I)C=CC=C1", "physical_data": {"Molecular Weight": "229.02", "Molecular Formula": "C7H4IN", "Melting Point": "54-55 \u00b0C"}}