{"cas_no": "4389-45-1", "cn_name": "2-\u6c28\u57fa-3-\u7532\u57fa\u82ef\u7532\u9178", "en_name": ["2-Amino-3-methylbenzoic acid", "Benzoic acid, 2-amino-3-methyl-", "m-Toluic acid, 2-amino-", "2-Amino-3-methylbenzoic acid", "3-Methylanthranilic acid", "3-Methyl-2-aminobenzoic acid", "2-Amino-m-toluic acid", "NSC 16049"], "SMILES": "C(O)(=O)C1=C(N)C(C)=CC=C1", "physical_data": {"Molecular Weight": "151.16", "Molecular Formula": "C8H9NO2", "Melting Point": "168-169 \u00b0C"}}