{"cas_no": "439-14-5", "cn_name": "\u5730\u897f\u6cee", "en_name": ["Diazepam", "2H-1,4-Benzodiazepin-2-one, 7-chloro-1,3-dihydro-1-methyl-5-phenyl-", "7-Chloro-1,3-dihydro-1-methyl-5-phenyl-2H-1,4-benzodiazepin-2-one", "Wy 3467", "Ro 5-2807", "7-Chloro-1-methyl-5-phenyl-3H-1,4-benzodiazepin-2(1H)-one", "Diazepam", "Methyldiazepinone", "Noan", "Saromet", "Valium", "Methyldiazepinone (pharmaceutical)", "1-Methyl-5-phenyl-7-chloro-1,3-dihydro-1H-1,4-benzodiazepin-2-one", "7-Chloro-1-methyl-2-oxo-5-phenyl-3H-1,4-benzodiazepine", "Duxen", "Seduxen", "Cercine", "Faustan", "1-Methyl-5-phenyl-7-chloro-1,3-dihydro-2H-1,4-benzodiazepin-2-one", "7-Chloro-1-methyl-5-phenyl-1,3-dihydro-2H-1,4-benzodiazepin-2-one", "LA 111", "Apaurin", "Apozepam", "Atensine", "Atilen", "Bialzepam", "Ceregulart", "Eridan", "Lembrol", "Levium", "Morosan", "Paxate", "Paxel", "Relanium", "Setonil", "Stesolid", "Stesolin", "Tranimul", "Vival", "Vivol", "Diacepan", "Calmpose", "Diapam", "Calmocitene", "Quievita", "Ansiolisina", "Valeo", "Assival", "Relaminal", "Sibazon", "Horizon", "Sibazone", "An-Ding", "Diazemuls", "Sonacon", "Umbrium", "Diazepam-Lipuro", "Valrelease", "Org 2447", "Aliseum", "Nellium", "Dupin", "Diapine", "Pomin", "Vatran", "Notense", "Lovium", "Amiprol", "Simasedan", "Jinpanfan", "Benzopin", "Disopam", "Caudel", "Doval", "Valitran", "Armonil", "Betapam", "Paxum", "Desconet", "D-Pam", "Nixtensyn", "Arzepam", "Calmod", "Ortopsique", "Diatran", "Trankinon", "Novazam", "Nivalen", "Apo-diazepam", "Kratium 2", "Dipaz", "Drenian", "Valaxona", "Gubex", "Ducene", "Zepaxid", "Ansiolin", "Alboral", "Diaquel", "Placidox 2", "Chuansuan", "Propam", "Winii", "Gewacalm", "Baogin", "Reliver", "Anxionil", "Placidox 5", "Azedipamin", "Parzam", "Vazen", "Mandro", "Desloneg", "Anlin", "Alupram", "Dizac", "Trazepam", "Diazepin", "Tensium", "Dialar", "Valiquid", "Dialag", "Diastat", "Euphorin P", "Tranquirit", "Antenex", "Placidox 10", "Meval", "Kratium", "Diaceplex", "Diapax", "Plidan", "Gradual", "Nerozen", "Sipam", "Best", "Centrazepam", "Diazem", "Dipezona", "Paceum", "Mentalium", "Radizepam", "DZP", "Psychopax", "Britazepam", "Tranquil", "Reposepan", "Pax", "Pacitran", "Euphorin", "Evacalm", "Elcion CR", "Neurolytril", "Sedapam", "Eurosan", "Servizepam", "Q-Pam", "Tranquo-Tablinen", "Mandrozep", "Dipam", "Tranquase", "Solis", "Unisedil", "Lamra", "Valium Injectable", "Tranquo-Puren", "NSC 77518", "7-Chloro-1-methyl-5-phenyl-1,3-dihydrobenzo[e][1,4]diazepin-2-one", "NSC 169897", "Horizon (pharmaceutical)", "Compaz", "7-Chloro-1-methyl-5-phenyl-3H-1,4-benzodiazepin-2-one", "Relium", "Pamlin", "7-Chloro-1-methyl-5-phenyl-1,3-dihydro-1,4-benzodiazepin-2-one", "7-Chloro-1-methyl-5-phenyl-1H-1,4-benzodiazepin-2(3H)-one", "Apzepam", "Hexalid", "Stedon", "Libervant", "Valtoco", "MeSH ID: D003975"], "SMILES": "CN1C=2C(C(=NCC1=O)C3=CC=CC=C3)=CC(Cl)=CC2", "physical_data": {"Molecular Weight": "284.74", "Molecular Formula": "C16H13ClN2O", "Melting Point": "132 \u00b0C"}}