{"cas_no": "439-89-4", "cn_name": "\u79e6\u827d\u7532\u7d20", "en_name": ["Gentianine", "1H-Pyrano[3,4-c]pyridin-1-one, 5-ethenyl-3,4-dihydro-", "1H-Pyrano[3,4-c]pyridin-1-one, 3,4-dihydro-5-vinyl-", "Gentianine", "Nicotinic acid, 4-(2-hydroxyethyl)-5-vinyl-, \u03b4-lactone", "5-Ethenyl-3,4-dihydro-1H-pyrano[3,4-c]pyridin-1-one", "NSC 606848", "5-Vinyl-3,4-dihydropyrano[3,4-c]pyridin-1-one"], "SMILES": "C(=C)C1=C2C(C(=O)OCC2)=CN=C1", "physical_data": {"Molecular Weight": "175.18", "Molecular Formula": "C10H9NO2", "Melting Point": "81-83 \u00b0C"}}