{"cas_no": "4390-39-0", "cn_name": "9-\u6c2e\u6742\u53cc\u73af[3.3.1]\u58ec\u70f7-3-\u916e", "en_name": ["9-Azabicyclo[3.3.1]nonan-3-one", "9-Azabicyclo[3.3.1]nonan-3-one", "Norpseudopelletierine", "Norgranatan-3-one", "NPPN", "9-Azabicyclo[3.3.1]nonane-3-one"], "SMILES": "O=C1CC2NC(C1)CCC2", "physical_data": {"Molecular Weight": "139.19", "Molecular Formula": "C8H13NO", "Boiling Point": "120-125 \u00b0C @ Press: 0.1 Torr", "Melting Point": "98-99 \u00b0C"}}