{"cas_no": "4390-92-5", "cn_name": "2',4'-\u4e8c\u7f9f\u57fa\u82ef\u4e01\u916e", "en_name": ["4-Butanoylresorcinol", "1-Butanone, 1-(2,4-dihydroxyphenyl)-", "Butyrophenone, 2\u2032,4\u2032-dihydroxy-", "1-(2,4-Dihydroxyphenyl)-1-butanone", "Resobutyrophenone", "4-Butanoylresorcinol", "NSC 43564", "4-Propionyl-1,3-benzenediol"], "SMILES": "C(CCC)(=O)C1=C(O)C=C(O)C=C1", "physical_data": {"Molecular Weight": "180.20", "Molecular Formula": "C10H12O3", "Melting Point": "73 \u00b0C"}}