{"cas_no": "4390-04-9", "cn_name": "\u4e03\u7532\u57fa\u58ec\u70f7", "en_name": ["(\u00b1)-2,2,4,4,6,8,8-Heptamethylnonane", "Nonane, 2,2,4,4,6,8,8-heptamethyl-", "2,2,4,4,6,8,8-Heptamethylnonane", "NSC 77129", "(\u00b1)-2,2,4,4,6,8,8-Heptamethylnonane", "Isocetane"], "SMILES": "C(C(CC(CC(C)(C)C)C)(C)C)C(C)(C)C", "physical_data": {"Molecular Weight": "226.44", "Molecular Formula": "C16H34", "Boiling Point": "240 \u00b0C"}}