{"cas_no": "4392-87-4", "cn_name": "2,2-\u8054\u5421\u5576-6-\u7fa7\u9178", "en_name": ["[2,2\u2032-Bipyridine]-6-carboxylic acid", "[2,2\u2032-Bipyridine]-6-carboxylic acid", "2,2\u2032-Bipyridyl-6-carboxylic acid"], "SMILES": "C(O)(=O)C1=NC(=CC=C1)C2=CC=CC=N2", "physical_data": {"Molecular Weight": "200.19", "Molecular Formula": "C11H8N2O2", "Melting Point": "210-220 \u00b0C (decomp)"}}