{"cas_no": "4392-54-5", "cn_name": "4-\u80bc\u57fa\u82ef\u78fa\u9170\u80fa", "en_name": ["4-Hydrazinobenzenesulfonamide", "Benzenesulfonamide, 4-hydrazinyl-", "Benzenesulfonamide, p-hydrazino-", "Benzenesulfonamide, 4-hydrazino-", "4-Hydrazinylbenzenesulfonamide", "(p-Sulfamoylphenyl)hydrazine", "(4-Sulfamoylphenyl)hydrazine", "4-(Aminosulfonyl)phenylhydrazine", "p-Hydrazinobenzenesulfonamide", "4-Hydrazinobenzenesulfonamide", "NSC 73246", "N-(4-Aminosulfonylphenyl)hydrazine", "Resist H"], "SMILES": "S(N)(=O)(=O)C1=CC=C(NN)C=C1", "physical_data": {"Molecular Weight": "187.22", "Molecular Formula": "C6H9N3O2S", "Melting Point": "155 \u00b0C"}}