{"cas_no": "439239-90-4", "cn_name": "\u62c9\u7c73\u5730\u5766", "en_name": ["Lasmiditan", "Benzamide, 2,4,6-trifluoro-N-[6-[(1-methyl-4-piperidinyl)carbonyl]-2-pyridinyl]-", "2,4,6-Trifluoro-N-[6-[(1-methyl-4-piperidinyl)carbonyl]-2-pyridinyl]benzamide", "Lasmiditan", "COL 144", "LY 573144", "2,4,6-Trifluoro-N-[6-(1-methylpiperidine-4-carbonyl)pyridin-2-yl]benzamide"], "SMILES": "C(=O)(C=1N=C(NC(=O)C2=C(F)C=C(F)C=C2F)C=CC1)C3CCN(C)CC3", "physical_data": {"Molecular Weight": "377.36", "Molecular Formula": "C19H18F3N3O2", "Melting Point": "255 \u00b0C"}}