{"cas_no": "4392-24-9", "cn_name": "\u8089\u6842\u57fa\u6eb4", "en_name": ["(3-Bromo-1-propen-1-yl)benzene", "Benzene, (3-bromo-1-propen-1-yl)-", "Benzene, (3-bromopropenyl)-", "Benzene, (3-bromo-1-propenyl)-", "(3-Bromo-1-propen-1-yl)benzene", "Cinnamyl bromide", "3-Bromo-1-phenylpropene", "3-Phenylallyl bromide", "3-Phenyl-2-propenyl bromide", "(3-Bromo-1-propenyl)benzene", "1-Phenyl-3-bromo-1-propene", "1-Bromo-3-phenyl-2-propene", "3-Bromo-1-phenylprop-1-ene", "NSC 78446", "(3-Bromoprop-1-en-1-yl)benzene"], "SMILES": "C(=CCBr)C1=CC=CC=C1", "physical_data": {"Molecular Weight": "197.07", "Molecular Formula": "C9H9Br", "Boiling Point": "105-106 \u00b0C @ Press: 2 Torr", "Melting Point": "34 \u00b0C", "Density": "1.366 g/cm\u00b3 @ Temp: 0 \u00b0C"}}