{"cas_no": "4393-09-3", "cn_name": "2,3-\u4e8c\u7532\u6c27\u57fa\u82c4\u80fa", "en_name": ["2,3-Dimethoxybenzylamine", "Benzenemethanamine, 2,3-dimethoxy-", "2,3-Dimethoxybenzenemethanamine", "o-Veratrylamine", "Benzylamine, 2,3-dimethoxy-", "2,3-Dimethoxybenzylamine", "[(2,3-Dimethoxyphenyl)methyl]amine", "(2,3-Dimethoxyphenyl)methanamine"], "SMILES": "O(C)C1=C(CN)C=CC=C1OC", "physical_data": {"Molecular Weight": "167.21", "Molecular Formula": "C9H13NO2", "Boiling Point": "137 \u00b0C @ Press: 11 Torr", "Melting Point": "229-230 \u00b0C", "Density": "1.1243 g/cm\u00b3 @ Temp: 0 \u00b0C"}}