{"cas_no": "4394-85-8", "cn_name": "N-\u7532\u9170\u5417\u5549", "en_name": ["N-Formylmorpholine", "4-Morpholinecarboxaldehyde", "Morpholine, 4-formyl-", "4-Formylmorpholine", "N-Formylmorpholine", "1-Formylmorpholine", "N-Morpholinecarboxaldehyde", "NSC 14833", "Morpholine-4-carboxaldehyde"], "SMILES": "C(=O)N1CCOCC1", "physical_data": {"Molecular Weight": "115.13", "Molecular Formula": "C5H9NO2", "Boiling Point": "239 \u00b0C", "Melting Point": "21 \u00b0C", "Density": "1.145 g/cm\u00b3 @ Temp: 26 \u00b0C"}}