{"cas_no": "4394-00-7", "cn_name": "\u6c1f\u5c3c\u9178", "en_name": ["Niflumic acid", "3-Pyridinecarboxylic acid, 2-[[3-(trifluoromethyl)phenyl]amino]-", "Nicotinic acid, 2-(\u03b1,\u03b1,\u03b1-trifluoro-m-toluidino)-", "2-[[3-(Trifluoromethyl)phenyl]amino]-3-pyridinecarboxylic acid", "UP 83", "Niflumic acid", "2-[3-(Trifluoromethyl)anilino]nicotinic acid", "Nifluril", "Actol (analgesic)", "Actol", "Nifluminic acid", "Flogovital", "Forenol", "Landruma", "Donalgin", "2-[3-(Trifluoromethyl)anilino]-3-pyridinecarboxylic acid", "N-(\u03b1,\u03b1,\u03b1-Trifluoro-m-tolyl)nicotinic acid", "Niflamol", "MeSH ID: D009544"], "SMILES": "N(C1=C(C(O)=O)C=CC=N1)C2=CC(C(F)(F)F)=CC=C2", "physical_data": {"Molecular Weight": "282.22", "Molecular Formula": "C13H9F3N2O2", "Melting Point": "204 \u00b0C"}}