{"cas_no": "4395-65-7", "cn_name": "1-\u6c28\u57fa-4-\u82ef\u6c28\u57fa-9,10-\u84bd\u4e8c\u916e", "en_name": ["Disperse Blue 19", "9,10-Anthracenedione, 1-amino-4-(phenylamino)-", "Anthraquinone, 1-amino-4-anilino-", "1-Amino-4-(phenylamino)-9,10-anthracenedione", "C.I. 61110", "Amacel Violet Blue FSI", "1-Amino-4-p-anilino-9,10-anthraquinone", "Artisil Blue 2RP", "Artisil Direct Blue 2RP", "Cibacet Blue 2R", "C.I. Solvent Blue 68", "Seriplas Blue BRL", "Serisol Fast Blue BRL", "Setacyl Blue PRS", "Setacyl Blue RS", "Terasil Blue 2R", "C.I. Disperse Blue 19", "1-Amino-4-(phenylamino)anthraquinone", "1-Amino-4-anilinoanthraquinone", "Synten Blue 2RL", "Teraprint Blue 5R", "Disperse Blue 2R", "Oracet Blue 2R", "Disperse Blue 19", "Solvent Blue 68", "Oracet blue", "1-Amino-4-anilinoanthra-9,10-quinone", "1-Amino-4-(phenylamino)anthracene-9,10-dione", "1-Amino-4-(phenylamino)-9,10-dihydroanthracene-9,10-dione", "1-Amino-4-anilinoanthracene-9,10-dione"], "SMILES": "N(C1=C2C(C(=O)C=3C(C2=O)=CC=CC3)=C(N)C=C1)C4=CC=CC=C4", "physical_data": {"Molecular Weight": "314.34", "Molecular Formula": "C20H14N2O2", "Melting Point": "192 \u00b0C"}}