{"cas_no": "4397-53-9", "cn_name": "4-\u82c4\u6c27\u57fa\u82ef\u7532\u919b", "en_name": ["4-(Benzyloxy)benzaldehyde", "Benzaldehyde, 4-(phenylmethoxy)-", "Benzaldehyde, p-(benzyloxy)-", "4-(Phenylmethoxy)benzaldehyde", "p-(Benzyloxy)benzaldehyde", "4-(Benzyloxy)benzaldehyde", "NSC 131669", "NSC 28298"], "SMILES": "O(CC1=CC=CC=C1)C2=CC=C(C=O)C=C2", "physical_data": {"Molecular Weight": "212.24", "Molecular Formula": "C14H12O2", "Boiling Point": "198 \u00b0C @ Press: 11 Torr", "Melting Point": "72 \u00b0C"}}