{"cas_no": "439948-91-1", "cn_name": "(S)-TERT-BUTYL 4-METHYL-1,2,3-OXATHIAZOLIDINE-3-CARBOXYLATE 2,2-DIOXIDE", "en_name": ["1,2,3-Oxathiazolidine-3-carboxylic acid, 4-methyl-, 1,1-dimethylethyl ester, 2,2-dioxide, (4S)-", "1,2,3-Oxathiazolidine-3-carboxylic acid, 4-methyl-, 1,1-dimethylethyl ester, 2,2-dioxide, (4S)-", "(S)-4-Methyl-2,2-dioxo-[1,2,3]oxathiazolidine-3-carboxylic acid tert-butyl ester", "(S)-tert-Butyl 4-methyl-1,2,3-oxathiazolidine-3-carboxylate 2,2-dioxide", "tert-Butyl (S)-4-methyl-1,2,3-oxathiazolidine-3-carboxylate 2,2-dioxide"], "SMILES": "C(OC(C)(C)C)(=O)N1S(=O)(=O)OCC1C", "physical_data": {"Molecular Weight": "237.27", "Molecular Formula": "C8H15NO5S", "Melting Point": "118-120 \u00b0C"}}