{"cas_no": "4399-80-8", "cn_name": "3-\u6c28\u57fa\u7532\u9170-PR\u6c27L", "en_name": ["Carbamoyl-PROXYL", "1-Pyrrolidinyloxy, 3-(aminocarbonyl)-2,2,5,5-tetramethyl-", "1-Pyrrolidinyloxy, 3-carbamoyl-2,2,5,5-tetramethyl-", "3-(Aminocarbonyl)-2,2,5,5-tetramethyl-1-pyrrolidinyloxy", "2,2,5,5-Tetramethyl-3-carbamoyl-1-pyrrolidinyloxy", "2,2,5,5-Tetramethylpyrrolidine-1-oxyl-3-carboxamide", "3-Carbamoyl-2,2,5,5-tetramethylpyrrolidinooxyl", "3-Carbamoyl-2,2,5,5-tetramethylpyrrolidine-1-oxyl", "2,2,5,5-Tetramethyl-3-carbamidopyrrolidine-1-oxyl", "Tempamide", "T 518", "Proxad", "CPROXYL", "3-Carbamoyl-2,2,5,5-tetramethyl-1-pyrrolidinyloxy", "Carbamoyl-PROXYL", "3-Carbamoylproxyl", "NSC 152272", "Pirolid", "CM-PROXYL", "CmP", "3-Carbamoyl-2,2,5,5-tetramethylpyrrolidine-N-oxyl"], "SMILES": "[O]N1C(C)(C)C(C(N)=O)CC1(C)C", "physical_data": {"Molecular Weight": "", "Molecular Formula": "C9H17N2O2", "Melting Point": "203-204 \u00b0C"}}