{"cas_no": "4399-47-7", "cn_name": "\u73af\u4e01\u57fa\u6eb4", "en_name": ["Bromocyclobutane", "Cyclobutane, bromo-", "Bromocyclobutane", "Cyclobutyl bromide"], "SMILES": "BrC1CCC1", "physical_data": {"Molecular Weight": "135.00", "Molecular Formula": "C4H7Br", "Boiling Point": "108.2-108.3 \u00b0C", "Density": "1.43 g/cm\u00b3 @ Temp: 24 \u00b0C"}}