{"cas_no": "440-17-5", "cn_name": "\u76d0\u9178\u4e09\u6c1f\u62c9\u55ea", "en_name": ["Trifluoperazine hydrochloride", "10H-Phenothiazine, 10-[3-(4-methyl-1-piperazinyl)propyl]-2-(trifluoromethyl)-, hydrochloride (1:2)", "Phenothiazine, 10-[3-(4-methyl-1-piperazinyl)propyl]-2-(trifluoromethyl)-, dihydrochloride", "10H-Phenothiazine, 10-[3-(4-methyl-1-piperazinyl)propyl]-2-(trifluoromethyl)-, dihydrochloride", "Trifluoperazine dihydrochloride", "2-Trifluoromethyl-10-[3\u2032-(1-methyl-4-piperazinyl)propyl]phenothiazine dihydrochloride", "Fluoperazine", "Trifluoperazine hydrochloride", "Trifluoroperazine hydrochloride", "Stelazine", "Jatroneural", "2-Trifluoromethyl-10-[3-(1-methyl-4-piperazinyl)propyl]phenothiazine dihydrochloride", "Triphthazine dihydrochloride", "Tryptazine dihydrochloride", "Eskazine", "Trifluoroperazine dihydrochloride", "SKF 5019", "Terfluzine", "Triftazin", "Tryptazine", "Triphthazine", "Eskazinyl", "Trazine", "Modalina", "Triphthasine", "TFP", "Stellasil", "10-[3-(4-Methylpiperazin-1-yl)propyl]-2-(trifluoromethyl)-10H-phenothiazine dihydrochloride"], "SMILES": "C(CCN1CCN(C)CC1)N2C=3C(SC=4C2=CC=CC4)=CC=C(C(F)(F)F)C3.Cl", "physical_data": {"Molecular Weight": "", "Molecular Formula": "C21H24F3N3S.2ClH", "Melting Point": "242-243 \u00b0C"}}