{"cas_no": "440-60-8", "cn_name": "\u4e94\u6c1f\u82ef\u7532\u9187", "en_name": ["Pentafluorobenzyl alcohol", "Benzenemethanol, 2,3,4,5,6-pentafluoro-", "Benzyl alcohol, 2,3,4,5,6-pentafluoro-", "2,3,4,5,6-Pentafluorobenzenemethanol", "2,3,4,5,6-Pentafluorobenzyl alcohol", "(Pentafluorophenyl)methanol", "(Hydroxymethyl)pentafluorobenzene", "Pentafluorobenzyl alcohol", "NSC 97003", "(Perfluorophenyl)methanol", "(2,3,4,5,6-Pentafluorophenyl)methanol"], "SMILES": "C(O)C1=C(F)C(F)=C(F)C(F)=C1F", "physical_data": {"Molecular Weight": "198.09", "Molecular Formula": "C7H3F5O", "Boiling Point": "114.5 \u00b0C", "Melting Point": "37.5 \u00b0C"}}