{"cas_no": "4402-32-8", "cn_name": "1-\u4e8c\u4e59\u80fa\u57fa-2-\u4e19\u9187", "en_name": ["1-(Diethylamino)-2-propanol", "2-Propanol, 1-(diethylamino)-", "1-(Diethylamino)-2-propanol", "N,N-Diethylisopropanolamine", "NSC 6304", "2-(Diethylamino)-1-methylethanol", "DEA 2P", "N,N-Diethyl-2-hydroxypropylamine", "2-(Diethylamino)isopropyl alcohol"], "SMILES": "N(CC(C)O)(CC)CC", "physical_data": {"Molecular Weight": "131.22", "Molecular Formula": "C7H17NO", "Boiling Point": "157 \u00b0C", "Density": "0.8677 g/cm\u00b3 @ Temp: 0 \u00b0C"}}