{"cas_no": "4403-61-6", "cn_name": "2-\u7532\u57fa-2-\u4e01\u70ef\u8148", "en_name": ["2-Methyl-2-butenenitrile", "2-Butenenitrile, 2-methyl-", "Crotononitrile, 2-methyl-", "2-Methyl-2-butenenitrile", "\u03b1,\u03b2-Dimethylacrylonitrile", "\u03b1-Methylcrotononitrile", "2-Methylcrotononitrile", "2-Cyano-2-butene", "NSC 44233", "2-Methyl-2-butennitrile"], "SMILES": "C(=CC)(C#N)C", "physical_data": {"Molecular Weight": "81.12", "Molecular Formula": "C5H7N", "Boiling Point": "122 \u00b0C"}}