{"cas_no": "4403-36-5", "cn_name": "2-\u82ef\u4e8c(\u7532)\u9170\u4e9a\u6c28\u57fa\u4e59\u70f7\u78fa\u9170\u6c2f", "en_name": ["2-Phthalimidoethanesulfonyl chloride", "2H-Isoindole-2-ethanesulfonyl chloride, 1,3-dihydro-1,3-dioxo-", "2-Isoindolineethanesulfonyl chloride, 1,3-dioxo-", "1,3-Dihydro-1,3-dioxo-2H-isoindole-2-ethanesulfonyl chloride", "2-Phthalimidoethanesulfonyl chloride", "2-Phthalimidoethylsulfonyl chloride", "NSC 210785", "NSC 218453", "2-(1,3-Dioxo-1,3-dihydro-isoindol-2-yl)-ethanesulfonyl chloride", "2-(1,3-Dioxoisoindolin-2-yl)ethanesulfonyl chloride", "2-(1,3-Dioxo-2,3-dihydro-1H-isoindol-2-yl)ethan-1-sulfonyl chloride", "2-(1,3-Dioxoisoindol-2-yl)ethanesulfonyl chloride", "2-(1,3-Dioxo-2,3-dihydro-1H-isoindol-2-yl)ethane-1-sulfonyl chloride"], "SMILES": "O=C1C=2C(C(=O)N1CCS(Cl)(=O)=O)=CC=CC2", "physical_data": {"Molecular Weight": "273.69", "Molecular Formula": "C10H8ClNO4S", "Melting Point": "157.5-158.5 \u00b0C"}}