{"cas_no": "4403-71-8", "cn_name": "4-\u6c28\u57fa\u82c4\u80fa", "en_name": ["4-Aminobenzylamine", "Benzenemethanamine, 4-amino-", "Toluene-\u03b1,4-diamine", "4-Aminobenzenemethanamine", "4-Aminobenzylamine", "p-Aminobenzylamine", "p-(Aminomethyl)aniline", "4-(Aminomethyl)aniline", "4-Aminomethylphenylamine", "4-(Aminomethyl)benzenamine"], "SMILES": "C(N)C1=CC=C(N)C=C1", "physical_data": {"Molecular Weight": "122.17", "Molecular Formula": "C7H10N2", "Boiling Point": "142-143 \u00b0C @ Press: 10 Torr", "Melting Point": "64 \u00b0C"}}