{"cas_no": "4403-70-7", "cn_name": "3-\u6c28\u57fa\u82c4\u80fa", "en_name": ["3-Aminobenzylamine", "Benzenemethanamine, 3-amino-", "Toluene-\u03b1,3-diamine", "3-Aminobenzenemethanamine", "3-Aminobenzylamine", "m-Aminobenzylamine", "3-Aminomethylphenylamine", "3-(Aminomethyl)aniline"], "SMILES": "C(N)C1=CC(N)=CC=C1", "physical_data": {"Molecular Weight": "122.17", "Molecular Formula": "C7H10N2", "Boiling Point": "267 \u00b0C @ Press: 760 mmHg", "Melting Point": "41-45 \u00b0C"}}