{"cas_no": "4403-78-5", "cn_name": "N,N'-\u4e8c\u82ef\u78fa\u9170\u57fa\u4e59\u4e8c\u80fa", "en_name": ["N,N\u2032-1,2-Ethanediylbis[4-methylbenzenesulfonamide]", "Benzenesulfonamide, N,N\u2032-1,2-ethanediylbis[4-methyl-", "p-Toluenesulfonamide, N,N\u2032-ethylenedi-", "p-Toluenesulfonamide, N,N\u2032-ethylenebis-", "N,N\u2032-1,2-Ethanediylbis[4-methylbenzenesulfonamide]", "N,N\u2032-Ditosylethylenediamine", "N,N\u2032-Bis(p-toluenesulfonyl)ethylenediamine", "N,N\u2032-Bis(tosyl)-1,2-diaminoethane", "N,N\u2032-Bis(toluenesulfonyl)-1,2-ethylenediamine", "N,N\u2032-Ethylenebis(p-toluenesulfonamide)", "N,N\u2032-Bis(p-tolylsulfonyl)-1,2-ethylenediamine", "NSC 25018", "1,2-(Tosylamino)ethane", "N,N\u2032-ethane-1,2-diylbis(4-methylbenzenesulfonamide)", "N,N\u2032-(Ethane-1,2-diyl)bis(4-methylbenzenesulfonamide)"], "SMILES": "S(NCCNS(=O)(=O)C1=CC=C(C)C=C1)(=O)(=O)C2=CC=C(C)C=C2", "physical_data": {"Molecular Weight": "368.47", "Molecular Formula": "C16H20N2O4S2", "Melting Point": "162-163 \u00b0C"}}