{"cas_no": "4404-45-9", "cn_name": "\u5f02\u786b\u6c30\u9178\u5df1\u916f", "en_name": ["Hexyl isothiocyanate", "Hexane, 1-isothiocyanato-", "Isothiocyanic acid, hexyl ester", "1-Isothiocyanatohexane", "Hexyl isothiocyanate", "n-Hexyl isothiocyanate", "1-Hexyl isothiocyanate"], "SMILES": "C(CCCC)CN=C=S", "physical_data": {"Molecular Weight": "143.25", "Molecular Formula": "C7H13NS", "Boiling Point": "210 \u00b0C", "Melting Point": "83 \u00b0C"}}