{"cas_no": "4407-36-7", "cn_name": "3-\u82ef\u57fa\u4e19-2-\u70ef-1-\u9187", "en_name": ["trans-Cinnamyl alcohol", "2-Propen-1-ol, 3-phenyl-, (2E)-", "Cinnamyl alcohol, (E)-", "2-Propen-1-ol, 3-phenyl-, (E)-", "(2E)-3-Phenyl-2-propen-1-ol", "trans-Cinnamyl alcohol", "1-Phenyl-1-(E)-propen-3-ol", "(E)-Cinnamyl alcohol", "trans-3-Phenyl-2-propen-1-ol", "(E)-3-Phenyl-2-propen-1-ol", "(E)-3-Phenyl-2-propenol", "trans-Cinnamic alcohol", "trans-3-Phenyl-2-propenol", "(E)-Cinnamic alcohol", "trans-1-Phenyl-1-propen-3-ol", "trans-3-Phenyl-2-propenyl alcohol", "(2E)-3-Phenylprop-2-en-1-ol", "(E)-3-Phenyl-2-propenol"], "SMILES": "C(=CCO)C1=CC=CC=C1", "physical_data": {"Molecular Weight": "134.18", "Molecular Formula": "C9H10O", "Boiling Point": "248-252 \u00b0C", "Melting Point": "32 \u00b0C", "Density": "1.0442 g/cm\u00b3 @ Temp: 20 \u00b0C"}}