{"cas_no": "4408-60-0", "cn_name": "2,4,6-\u4e09\u7532\u57fa\u82ef\u4e59\u9178", "en_name": ["2,4,6-Trimethylbenzeneacetic acid", "Benzeneacetic acid, 2,4,6-trimethyl-", "Acetic acid, mesityl-", "2,4,6-Trimethylbenzeneacetic acid", "2,4,6-Trimethyl-\u03b1-toluic acid", "2,4,6-Trimethylphenylacetic acid", "Mesitylacetic acid", "NSC 11348", "2-(2,4,6-Trimethylphenyl)acetic acid", "2-Mesitylacetic acid"], "SMILES": "C(C(O)=O)C1=C(C)C=C(C)C=C1C", "physical_data": {"Molecular Weight": "178.23", "Molecular Formula": "C11H14O2", "Melting Point": "172-172.5 \u00b0C"}}