{"cas_no": "4408-81-5", "cn_name": "1,2-\u4e19\u4e8c\u80fa-N,N,N',N'-\u56db\u4e59\u9178", "en_name": ["1,2-Diaminopropane-N,N,N\u2032,N\u2032-tetraacetic acid", "Glycine, N,N\u2032-(1-methyl-1,2-ethanediyl)bis[N-(carboxymethyl)-", "Acetic acid, (propylenedinitrilo)tetra-", "N,N\u2032-(1-Methyl-1,2-ethanediyl)bis[N-(carboxymethyl)glycine]", "1,2-Diaminopropanetetraacetic acid", "1,2-Propylenediaminetetraacetic acid", "1,2-Diaminopropane-N,N,N\u2032,N\u2032-tetraacetic acid", "1,2-Propylenediamine-N,N,N\u2032,N\u2032-tetraacetic acid", "Trilon FS", "(\u00b1)-1,2-Diaminopropanetetraacetic acid", "DL-Propylenediaminetetraacetic acid", "1,2-Diaminopropanetetraacetate", "Dissolvine P", "Methyl-EDTA", "Dissolvine PDZ", "Propylene-1,2-diaminetetraacetic acid", "1,2-Propanediaminetetraacetic acid", "MeEDTA", "2,2\u2032,2\u2032\u2032,2\u2032\u2032\u2032-(1,2-Propanediyldinitrilo)tetraacetic acid", "Propylenediamine-N,N,N\u2032,N\u2032-tetraacetic acid", "2-[2-[Bis(carboxymethyl)amino]propyl-(carboxymethyl)amino]acetic acid"], "SMILES": "N(C(CN(CC(O)=O)CC(O)=O)C)(CC(O)=O)CC(O)=O", "physical_data": {"Molecular Weight": "306.27", "Molecular Formula": "C11H18N2O8", "Melting Point": "236 \u00b0C"}}