{"cas_no": "4408-64-4", "cn_name": "N-\u7532\u57fa\u4e9a\u6c28\u4e8c\u4e59\u9178", "en_name": ["N-Methyliminodiacetic acid", "Glycine, N-(carboxymethyl)-N-methyl-", "Acetic acid, (methylimino)di-", "N-(Carboxymethyl)-N-methylglycine", "MIDA", "N-Methyliminodiacetic acid", "Methylimidodiacetic acid", "(Methylimino)diacetic acid", "N-Methylaminodiacetic acid", "NSC 11773", "2,2\u2032-Methyliminodiacetic acid", "2,2\u2032-(Methylazanediyl)diacetic acid", "(Carboxymethyl-methyl-amino)-acetic acid", "2-[Carboxymethyl(methyl)amino]acetic acid", "2-[(Carboxymethyl)(methyl)amino]acetic acid"], "SMILES": "C(N(CC(O)=O)C)C(O)=O", "physical_data": {"Molecular Weight": "147.13", "Molecular Formula": "C5H9NO4", "Melting Point": "216-219 \u00b0C (decomp)"}}