{"cas_no": "4408-78-0", "cn_name": "\u78f7\u9170\u57fa\u4e59\u9178", "en_name": ["Phosphonoacetic acid", "Acetic acid, 2-phosphono-", "Acetic acid, phosphono-", "2-Phosphonoacetic acid", "Phosphonic acid, (carboxymethyl)-", "Phosphonoacetic acid", "Phosphonacetic acid", "Fosfonet", "NSC 18205", "(Carboxymethyl)phosphonic acid", "Fosfonoacetic acid", "MeSH ID: D010746"], "SMILES": "C(P(=O)(O)O)C(O)=O", "physical_data": {"Molecular Weight": "140.03", "Molecular Formula": "C2H5O5P", "Melting Point": "143-146 \u00b0C"}}