{"cas_no": "441-38-3", "cn_name": "ALPHA-\u5b89\u606f\u9999\u809f(\u94dc\u8bd5\u5242)", "en_name": ["(\u00b1)-Benzoin oxime", "Ethanone, 2-hydroxy-1,2-diphenyl-, oxime", "Benzoin, oxime", "\u03b1-Benzoin oxime", "(\u00b1)-anti-Benzoin oxime", "dl-Benzoin anti-oxime", "(E)-(\u00b1)-2-Hydroxy-1,2-diphenyl-ethanone oxime", "(\u00b1)-Benzoin oxime", "2-Hydroxy-1,2-diphenylethanone oxime", "NSC 659"], "SMILES": "C(C(O)C1=CC=CC=C1)(=NO)C2=CC=CC=C2", "physical_data": {"Molecular Weight": "227.26", "Molecular Formula": "C14H13NO2", "Melting Point": "151 \u00b0C"}}