{"cas_no": "4410-31-5", "cn_name": "(\u00b1)-\u6241\u6843\u9170\u80fa", "en_name": ["Mandelamide", "Benzeneacetamide, \u03b1-hydroxy-", "Mandelamide", "\u03b1-Hydroxybenzeneacetamide", "2-Phenylglycolamide", "Amygdalinamide", "\u03b1-Hydroxybenzylcarboxamide", "2-Hydroxy-2-phenylacetamide", "(\u00b1)-Mandelamide", "DL-Mandelic acid amide", "Racemic mandelamide", "NSC 16603"], "SMILES": "C(C(N)=O)(O)C1=CC=CC=C1", "physical_data": {"Molecular Weight": "151.16", "Molecular Formula": "C8H9NO2", "Melting Point": "122-123 \u00b0C"}}