{"cas_no": "4410-99-5", "cn_name": "2-\u82ef\u4e59\u786b\u9187", "en_name": ["Benzeneethanethiol", "Benzeneethanethiol", "Ethanethiol, 2-phenyl-", "Phenethyl mercaptan", "2-Phenyl-1-ethanethiol", "2-Phenylethyl mercaptan", "\u03b2-Phenylethyl mercaptan", "Phenethylthiol", "2-Phenethylmercaptan", "2-Phenylethanethiol", "NSC 2616", "1-Phenyl-2-mercaptoethane", "2-Phenylethylthiol", "Phenylethyl mercaptan"], "SMILES": "C(CS)C1=CC=CC=C1", "physical_data": {"Molecular Weight": "138.23", "Molecular Formula": "C8H10S", "Boiling Point": "105 \u00b0C @ Press: 23 Torr", "Density": "1.032 g/cm\u00b3 @ Temp: 18 \u00b0C"}}