{"cas_no": "4411-26-1", "cn_name": "\u5f02\u786b\u6c30\u91781-\u91d1\u521a\u70f7\u916f", "en_name": ["Adamantyl isothiocyanate", "Tricyclo[3.3.1.13,7]decane, 1-isothiocyanato-", "Isothiocyanic acid, 1-adamantyl ester", "1-Isothiocyanatotricyclo[3.3.1.13,7]decane", "1-Adamantyl isothiocyanate", "1-Isothiocyanatoadamantane", "Adamantyl isothiocyanate", "NSC 529585"], "SMILES": "N(=C=S)C12CC3CC(C1)CC(C2)C3", "physical_data": {"Molecular Weight": "193.31", "Molecular Formula": "C11H15NS", "Melting Point": "166-169 \u00b0C"}}