{"cas_no": "4411-80-7", "cn_name": "6,6'-\u4e8c\u7532\u57fa-2,2'-\u8054\u5421\u5576", "en_name": ["6,6\u2032-Dimethyl-2,2\u2032-bipyridine", "2,2\u2032-Bipyridine, 6,6\u2032-dimethyl-", "6,6\u2032-Bi-2-picoline", "6,6\u2032-Dimethyl-2,2\u2032-bipyridine", "6,6\u2032-Dimethyl-2,2\u2032-bipyridyl", "6,6\u2032-Dimethyl-2,2\u2032-dipyridyl", "NSC 4705", "2-Methyl-6-(6-methylpyridin-2-yl)pyridine"], "SMILES": "CC1=NC(=CC=C1)C=2N=C(C)C=CC2", "physical_data": {"Molecular Weight": "184.24", "Molecular Formula": "C12H12N2", "Boiling Point": "105-106 \u00b0C @ Press: 2 Torr", "Melting Point": "89.5-90.5 \u00b0C"}}