{"cas_no": "4411-89-6", "cn_name": "\u03b1-\u4e9a\u4e59\u57fa-\u82ef\u4e59\u919b", "en_name": ["2-Phenyl-2-butenal", "Benzeneacetaldehyde, \u03b1-ethylidene-", "Crotonaldehyde, 2-phenyl-", "Crotonaldehyde, \u03b1-phenyl-", "\u03b1-Ethylidenebenzeneacetaldehyde", "\u03b1-Phenylcrotonaldehyde", "2-Phenyl-2-butenal", "2-Phenylcrotonaldehyde"], "SMILES": "C(=CC)(C=O)C1=CC=CC=C1", "physical_data": {"Molecular Weight": "146.19", "Molecular Formula": "C10H10O", "Boiling Point": "117 \u00b0C @ Press: 15 Torr", "Density": "1.045 g/cm\u00b3 @ Temp: 18 \u00b0C"}}