{"cas_no": "4412-16-2", "cn_name": "2-\u5341\u4e8c\u70ef\u9178", "en_name": ["2-Dodecenoic acid", "2-Dodecenoic acid", "NSC 59856"], "SMILES": "C(CCCCCCCC)C=CC(O)=O", "physical_data": {"Molecular Weight": "198.30", "Molecular Formula": "C12H22O2", "Boiling Point": "164-165 \u00b0C @ Press: 2 Torr", "Melting Point": "17.1 \u00b0C", "Density": "0.9130 g/cm\u00b3 @ Temp: 20 \u00b0C"}}