{"cas_no": "4412-96-8", "cn_name": "3-\u7532\u57fa-2-\u7ce0\u9178", "en_name": ["3-Methylfuran-2-carboxylic acid", "2-Furancarboxylic acid, 3-methyl-", "2-Furoic acid, 3-methyl-", "3-Methyl-2-furancarboxylic acid", "Elsholtzic acid", "3-Methyl-2-furoic acid", "3-Methylfuran-2-carboxylic acid", "NSC 508742"], "SMILES": "C(O)(=O)C1=C(C)C=CO1", "physical_data": {"Molecular Weight": "126.11", "Molecular Formula": "C6H6O3", "Melting Point": "134 \u00b0C"}}