{"cas_no": "4412-91-3", "cn_name": "3-\u544b\u5583\u7532\u9187", "en_name": ["3-Furanmethanol", "3-Furanmethanol", "3-Furancarbinol", "3-Furylcarbinol", "3-(Hydroxymethyl)furan", "3-Furylmethanol", "3-Furfuryl alcohol", "Furan-3-ylmethanol", "3-Furylmethyl alcohol"], "SMILES": "C(O)C=1C=COC1", "physical_data": {"Molecular Weight": "98.10", "Molecular Formula": "C5H6O2", "Boiling Point": "79-80 \u00b0C", "Density": "1.1391 g/cm\u00b3 @ Temp: 20 \u00b0C"}}