{"cas_no": "4414-89-5", "cn_name": "3-\u6c30\u57fa-7-\u6c2e\u6742\u5432\u54da", "en_name": ["1H-Pyrrolo[2,3-b]pyridine-3-carbonitrile", "1H-Pyrrolo[2,3-b]pyridine-3-carbonitrile", "3-Cyano-7-azaindole", "7-Azaindole-3-carbonitrile"], "SMILES": "C(#N)C=1C=2C(NC1)=NC=CC2", "physical_data": {"Molecular Weight": "143.15", "Molecular Formula": "C8H5N3", "Melting Point": "262-265 \u00b0C"}}