{"cas_no": "4414-87-3", "cn_name": "2-(1H-\u5421\u54af\u5e76[2,3-B]\u5421\u5576-3-\u57fa)\u4e59\u8148", "en_name": ["1H-Pyrrolo[2,3-b]pyridine-3-acetonitrile", "1H-Pyrrolo[2,3-b]pyridine-3-acetonitrile", "3-(Cyanomethyl)pyrrolo[2,3-b]pyridine", "(1H-Pyrrolo[2,3-b]pyridin-3-yl)acetonitrile", "2-[1H-Pyrrolo[2,3-b]pyridin-3-yl]acetonitrile"], "SMILES": "C(C#N)C=1C=2C(NC1)=NC=CC2", "physical_data": {"Molecular Weight": "157.17", "Molecular Formula": "C9H7N3", "Melting Point": "144 \u00b0C"}}