{"cas_no": "4414-88-4", "cn_name": "2-\u6c30\u7532\u57fa\u82ef\u5e76\u54aa\u5511", "en_name": ["1H-Benzimidazole-2-acetonitrile", "1H-Benzimidazole-2-acetonitrile", "2-Benzimidazoleacetonitrile", "(2-Benzimidazolyl)acetonitrile", "2-(Cyanomethyl)benzimidazole", "2-Benzimidazolacetonitrile", "NSC 525203", "(1H-Benzimidazol-2-yl)acetonitrile", "1-H-Benzoimidazol-2-yl-acetonitrile", "2-Cyanomethylbenz[d]imidazole", "2-(1H-Benzimidazol-2-yl)acetonitrile", "2-(1H-Benzo[d]imidazol-2-yl)acetonitrile", "(1H-Benzoimidazol-2-yl)-acetonitrile", "2-(1H-1,3-Benzodiazol-2-yl)acetonitrile"], "SMILES": "C(C#N)C=1NC=2C(N1)=CC=CC2", "physical_data": {"Molecular Weight": "157.17", "Molecular Formula": "C9H7N3", "Melting Point": "209.7-210.7 \u00b0C"}}