{"cas_no": "4415-82-1", "cn_name": "\u73af\u4e01\u57fa\u7532\u9187", "en_name": ["Cyclobutanemethanol", "Cyclobutanemethanol", "Cyclobutylmethanol", "Cyclobutylmethyl alcohol", "Cyclobutylcarbinol", "(Hydroxymethyl)cyclobutane"], "SMILES": "C(O)C1CCC1", "physical_data": {"Molecular Weight": "86.13", "Molecular Formula": "C5H10O", "Boiling Point": "142-142.5 \u00b0C @ Press: 750 Torr", "Melting Point": "68.5 \u00b0C", "Density": "0.9129 g/cm\u00b3 @ Temp: 20 \u00b0C"}}