{"cas_no": "4415-87-6", "cn_name": "\u73af\u4e01\u70f7\u56db\u7532\u9178\u4e8c\u9150", "en_name": ["Tetrahydrocyclobuta[1,2-c:3,4-c\u2032]difuran-1,3,4,6-tetrone", "Cyclobuta[1,2-c:3,4-c\u2032]difuran-1,3,4,6-tetrone, tetrahydro-", "Cyclobuta[1,2-c:3,4-c\u2032]difurantetrone, tetrahydro-", "1,2,3,4-Cyclobutanetetracarboxylic 1,2:3,4-dianhydride", "1,2,3,4-Cyclobutanetetracarboxylic dianhydride", "Tetrahydrocyclobuta[1,2-c:3,4-c\u2032]difuran-1,3,4,6-tetrone", "Cyclobutane-1,2,3,4-tetracarboxylic acid dianhydride", "Maleic anhydride cyclic dimer", "Cyclobutanetetracarboxylic dianhydride", "Cyclobutanetetracarboxylic acid dianhydride", "CBDA", "1,2,3,4-Tetracarboxycyclobutane dianhydride"], "SMILES": "O=C1C2C3C(C2C(=O)O1)C(=O)OC3=O", "physical_data": {"Molecular Weight": "196.11", "Molecular Formula": "C8H4O6", "Melting Point": "112 \u00b0C"}}