{"cas_no": "441798-33-0", "cn_name": "\u9a6c\u897f\u66ff\u5766", "en_name": ["Macitentan", "Sulfamide, N-[5-(4-bromophenyl)-6-[2-[(5-bromo-2-pyrimidinyl)oxy]ethoxy]-4-pyrimidinyl]-N\u2032-propyl-", "N-[5-(4-Bromophenyl)-6-[2-[(5-bromo-2-pyrimidinyl)oxy]ethoxy]-4-pyrimidinyl]-N\u2032-propylsulfamide", "Macitentan", "ACT 064992", "Propylsulfamic acid N-[5-(4-bromophenyl)-6-[2-[(5-bromopyrimidin-2-yl)oxy]ethoxy]pyrimidin-4-yl]amide", "Opsumit"], "SMILES": "N(S(NCCC)(=O)=O)C=1C(=C(OCCOC=2N=CC(Br)=CN2)N=CN1)C3=CC=C(Br)C=C3", "physical_data": {"Molecular Weight": "588.27", "Molecular Formula": "C19H20Br2N6O4S", "Melting Point": "135-136 \u00b0C"}}