{"cas_no": "4418-61-5", "cn_name": "5-\u6c28\u57fa\u56db\u6c2e\u5511", "en_name": ["Aminotetrazole", "2H-Tetrazol-5-amine", "1H-Tetrazole, 5-amino-", "1H-Tetrazol-5-amine", "Tetrazole, 5-amino-", "1,2,3,4-Tetrazole, 5-amino-", "Aminotetrazole", "5-Aminotetrazole", "5-Amino-1H-tetrazole", "5-Amino-1,2,3,4-tetrazole", "Thiolite HAT 1", "1H-Tetrazol-5-ylamine", "NSC 3004", "5-Amino-2H-tetrazole", "B 6030", "HAT", "Tetrazol-5-amine", "1H-1,2,3,4-Tetrazol-5-amine", "1H-Tetraazol-5-amine", "Tetrazolamine"], "SMILES": "NC=1NN=NN1", "physical_data": {"Molecular Weight": "85.07", "Molecular Formula": "CH3N5", "Melting Point": "202 \u00b0C (decomp)", "Density": "1.50 g/cm\u00b3"}}