{"cas_no": "4419-39-0", "cn_name": "\u500d\u6c2f\u7c73\u677e", "en_name": ["Beclomethasone", "Pregna-1,4-diene-3,20-dione, 9-chloro-11,17,21-trihydroxy-16-methyl-, (11\u03b2,16\u03b2)-", "Pregna-1,4-diene-3,20-dione, 9-chloro-11\u03b2,17,21-trihydroxy-16\u03b2-methyl-", "(11\u03b2,16\u03b2)-9-Chloro-11,17,21-trihydroxy-16-methylpregna-1,4-diene-3,20-dione", "9-Chloro-11\u03b2,17,21-trihydroxy-16\u03b2-methyl-pregna-1,4-diene-3,20-dione", "9-Chloro-16\u03b2-methylprednisolone", "Beclomethasone", "Beclometasone", "Becolvent", "9\u03b1-Chloro-16\u03b2-methylprednisolone", "MeSH ID: D001507"], "SMILES": "ClC12C(C3C(C)(CC1O)C(C(CO)=O)(O)C(C)C3)CCC=4C2(C)C=CC(=O)C4", "physical_data": {"Molecular Weight": "408.92", "Molecular Formula": "C22H29ClO5", "Melting Point": "234-237 \u00b0C"}}