{"cas_no": "4419-47-0", "cn_name": "\u56db(\u4e8c\u4e59\u80fa\u57fa\u949b)", "en_name": ["Ethanamine, N-ethyl-, titanium(4+) salt (4:1)", "Ethanamine, N-ethyl-, titanium(4+) salt (4:1)", "Diethylamine, titanium(4+) salt", "Ethanamine, N-ethyl-, titanium(4+) salt", "Titanium, tetrakis(diethylamino)-", "Titanium tetrakis(diethylamine)", "Tetrakis(diethylamino)titanium", "Tetrakis(diethylamido)titanium", "Titanium tetrakis(diethylamide)", "Titanium(4+) diethylamide", "TDEAT", "Tetrakis(diethylamido)titanium(IV)", "Titanium(IV) diethylamide"], "SMILES": "N(CC)CC.[Ti]", "physical_data": {"Molecular Weight": "", "Molecular Formula": "C4H11N.<sup>1</sup>/4Ti", "Boiling Point": "133 \u00b0C @ Press: 1.2 Torr", "Density": "0.938 g/cm\u00b3"}}