{"cas_no": "4419-94-7", "cn_name": "4-\u785d\u57fa\u82ef\u57fa-\u0392-D-\u4e73\u7cd6\u82f7", "en_name": ["p-Nitrophenyl \u03b2-D-lactoside", "\u03b2-D-Glucopyranoside, 4-nitrophenyl 4-O-\u03b2-D-galactopyranosyl-", "Lactoside, p-nitrophenyl, \u03b2-D-", "4-Nitrophenyl 4-O-\u03b2-D-galactopyranosyl-\u03b2-D-glucopyranoside", "4-Nitrophenyl \u03b2-lactoside", "p-Nitrophenyl \u03b2-D-lactoside", "p-Nitrophenyl-\u03b2-lactoside"], "SMILES": "O(C1C(CO)OC(OC2=CC=C(N(=O)=O)C=C2)C(O)C1O)C3OC(CO)C(O)C(O)C3O", "physical_data": {"Molecular Weight": "463.39", "Molecular Formula": "C18H25NO13", "Melting Point": "258-260 \u00b0C (decomp)"}}