{"cas_no": "4419-11-8", "cn_name": "\u5076\u6c2e\u4e8c\u5f02\u5e9a\u8148", "en_name": ["2,2\u2032-Azobis[2,4-dimethylvaleronitrile]", "Pentanenitrile, 2,2\u2032-(1,2-diazenediyl)bis[2,4-dimethyl-", "Valeronitrile, 2,2\u2032-azobis[2,4-dimethyl-", "Pentanenitrile, 2,2\u2032-azobis[2,4-dimethyl-", "2,2\u2032-(1,2-Diazenediyl)bis[2,4-dimethylpentanenitrile]", "\u03b1,\u03b1\u2032-Azobis(\u03b1,\u03b3-dimethylvaleronitrile)", "2,2\u2032-Azobis[2,4-dimethylvaleronitrile]", "\u03b1,\u03b1\u2032-Azobis[2,4-dimethylvaleronitrile]", "Vazo 52", "\u03b1,\u03b1\u2032-Azobis(dimethylvaleronitrile)", "2,2\u2032-Azobis[2,4-dimethylpentanenitrile]", "V 65", "V 65 (polymerization catalyst)", "2,2\u2032-Azodi(2,4-dimethylvaleronitrile)", "AMVN", "ADVN", "V 65B", "ABVN", "AIVN", "2,2\u2032-Azobis(dimethylvaleronitrile)", "2,2\u2032-(Diazene-1,2-diyl)bis(2,4-dimethylpentanenitrile)", "V 52", "V 65HP", "N,N\u2032-Azobis(2,4-dimethylvaleronitrile)", "ABN-V"], "SMILES": "C(N=NC(CC(C)C)(C#N)C)(CC(C)C)(C#N)C", "physical_data": {"Molecular Weight": "248.37", "Molecular Formula": "C14H24N4", "Melting Point": "75-76 \u00b0C (decomp)"}}