{"cas_no": "442-51-3", "cn_name": "\u8089\u53f6\u4e91\u9999\u78b1", "en_name": ["Harmine", "9H-Pyrido[3,4-b]indole, 7-methoxy-1-methyl-", "7-Methoxy-1-methyl-9H-pyrido[3,4-b]indole", "Banisterine", "Harmine", "Leucoharmine", "1-Methyl-7-methoxy-\u03b2-carboline", "Telepathine", "Yageine", "Banisterin", "Telepathin", "Harmin", "Yagein", "MeSH ID: D006247"], "SMILES": "CC1=C2C(C=3C(N2)=CC(OC)=CC3)=CC=N1", "physical_data": {"Molecular Weight": "212.25", "Molecular Formula": "C13H12N2O", "Melting Point": "273 \u00b0C", "Density": "1.35 g/cm\u00b3"}}