{"cas_no": "442-52-4", "cn_name": "\u5421\u54af\u54aa\u5511", "en_name": ["Clemizole", "1H-Benzimidazole, 1-[(4-chlorophenyl)methyl]-2-(1-pyrrolidinylmethyl)-", "Benzimidazole, 1-(p-chlorobenzyl)-2-(1-pyrrolidinylmethyl)-", "Pyrrolidine, 1-[(1-p-chlorobenzyl-2-benzimidazolyl)methyl]-", "1-[(4-Chlorophenyl)methyl]-2-(1-pyrrolidinylmethyl)-1H-benzimidazole", "1-p-Chlorobenzyl-2-pyrrolidino-methylbenzimidazole", "1-p-Chlorobenzyl-2-(1-pyrrolidinylmethyl)benzimidazole", "1-(p-Chlorobenzyl)-2-pyrrolidylmethylenebenzimidazole", "Histacur", "Histakool", "Clemizole", "Lergopenin", "Depocural", "NSC 46261"], "SMILES": "C(N1C=2C(N=C1CN3CCCC3)=CC=CC2)C4=CC=C(Cl)C=C4", "physical_data": {"Molecular Weight": "325.84", "Molecular Formula": "C19H20ClN3", "Melting Point": "167 \u00b0C"}}