{"cas_no": "442-16-0", "cn_name": "\u4f9d\u6c99\u5416\u5576", "en_name": ["Ethacridine", "3,9-Acridinediamine, 7-ethoxy-", "Acridine, 6,9-diamino-2-ethoxy-", "7-Ethoxy-3,9-acridinediamine", "6,9-Diamino-2-ethoxyacridine", "Ethacridine", "2-Ethoxy-6,9-diaminoacridine", "Etakridin", "2-Ethoxy-6,9-acridinediamine", "7-Ethoxy-3,9-diaminoacridine", "NSC 163296", "MeSH ID: D004975"], "SMILES": "NC=1C2=C(N=C3C1C=CC(N)=C3)C=CC(OCC)=C2", "physical_data": {"Molecular Weight": "253.30", "Molecular Formula": "C15H15N3O", "Melting Point": "226 \u00b0C"}}