{"cas_no": "4420-74-0", "cn_name": "\u5def\u4e19\u57fa\u4e09\u7532\u6c27\u57fa\u7845\u70f7", "en_name": ["(3-Mercaptopropyl)trimethoxysilane", "1-Propanethiol, 3-(trimethoxysilyl)-", "3-(Trimethoxysilyl)-1-propanethiol", "(\u03b3-Mercaptopropyl)trimethoxysilane", "A 189", "(3-Mercaptopropyl)trimethoxysilane", "3-(Trimethoxysilyl)propanethiol", "Z 6062", "Silane A 189", "NUC-A 189", "SH 6062", "KBM 803", "MPS-M", "M 8500", "KBE 803", "Sila-Ace S 810", "TSL 8380", "Prosil 196", "(3-Thiopropyl)trimethoxysilane", "GF 70", "3-(Trimethoxysilyl)propyl mercaptan", "TSL 8380E", "MPS", "AZ 6129", "Silquest A 189", "KBM 803P", "3-(Sulfanylpropyl)trimethoxysilane", "Silan GF 70", "M 8500 (coupling agent)", "3-Mercaptopropyl trimethoxylsilane", "Dynasylan MTMO", "Dynasylan NTNS", "VP-Si 163", "3-MPTMS", "A 160", "A 160 (coupling agent)", "KH 590", "LS 1390", "S 810", "SIM 6476.0", "MPTS", "SiSiB PC 2300", "MPTMS", "WD 80", "SCA 903", "M 0928", "Silanogran M", "LMD 80", "A 183 (coupling agent)", "A 183", "Silquest A 160", "DB 590", "KH 591", "\u03b3-Thiolpropyltrimethoxysilane", "Trimethoxy-3-mercaptopropylsilane", "Silanil 442", "JH-S 189", "Mercaptan Y", "Xiameter OFS 6062", "A 189Z", "HS 1389"], "SMILES": "[Si](CCCS)(OC)(OC)OC", "physical_data": {"Molecular Weight": "196.34", "Molecular Formula": "C6H16O3SSi", "Boiling Point": "93 \u00b0C @ Press: 40 Torr", "Density": "1.051 g/cm\u00b3 @ Temp: 25 \u00b0C"}}