{"cas_no": "4421-08-3", "cn_name": "4-\u7f9f\u57fa-3-\u7532\u6c27\u57fa\u82ef\u7532\u8148", "en_name": ["4-Hydroxy-3-methoxybenzonitrile", "Benzonitrile, 4-hydroxy-3-methoxy-", "Vanillonitrile", "4-Hydroxy-3-methoxybenzonitrile", "3-Methoxy-4-hydroxybenzonitrile", "4-Cyano-2-methoxyphenol", "2-Methoxy-4-cyanophenol", "NSC 158285"], "SMILES": "O(C)C1=CC(C#N)=CC=C1O", "physical_data": {"Molecular Weight": "149.15", "Molecular Formula": "C8H7NO2", "Melting Point": "86 \u00b0C"}}