{"cas_no": "4421-09-4", "cn_name": "\u80e1\u6912\u8148", "en_name": ["1,3-Benzodioxole-5-carbonitrile", "1,3-Benzodioxole-5-carbonitrile", "Piperonylonitrile", "1-Cyano-3,4-methylenedioxybenzene", "5-Cyano-1,3-benzodioxole", "3,4-(Methylenedioxy)benzonitrile", "NSC 27009", "2H-Benzo[d]-1,3-dioxolane-5-carbonitrile", "Benzodioxole-5-carbonitrile", "Benzo[d][1,3]dioxole-5-carbonitrile", "1,3-Dioxaindane-5-carbonitrile", "2H-1,3-Benzodioxole-5-carbonitrile"], "SMILES": "C(#N)C=1C=C2C(=CC1)OCO2", "physical_data": {"Molecular Weight": "147.13", "Molecular Formula": "C8H5NO2", "Melting Point": "94-97 \u00b0C"}}