{"cas_no": "4422-95-1", "cn_name": "1,3,5-\u82ef\u4e09\u7532\u9170\u6c2f", "en_name": ["Trimesoyl chloride", "1,3,5-Benzenetricarbonyl trichloride", "1,3,5-Benzenetricarbonyl chloride", "Trimesoyl chloride", "Trimesic acid trichloride", "1,3,5-Benzenetricarboxylic acid chloride", "1,3,5-Benzenetricarboxylic chloride", "1,3,5-Tris(chlorocarbonyl)benzene", "Trimesoyl trichloride", "1,3,5-Tris(chloroformyl)benzene", "Trimesinic acid trichloride", "NSC 82328", "1,3,5-Trimesoyl chloride", "Trimesic acid chloride"], "SMILES": "C(Cl)(=O)C1=CC(C(Cl)=O)=CC(C(Cl)=O)=C1", "physical_data": {"Molecular Weight": "265.48", "Molecular Formula": "C9H3Cl3O3", "Boiling Point": "175-176 \u00b0C @ Press: 15 Torr", "Melting Point": "36.3 \u00b0C"}}