{"cas_no": "4423-79-4", "cn_name": "2,2-\u4e94\u4e9a\u7532\u57fa-1,3-\u4e8c\u6c27\u516d\u73af\u57fa-4-\u916e", "en_name": ["1,4-Dioxaspiro[4.5]decan-2-one", "1,4-Dioxaspiro[4.5]decan-2-one", "Acetic acid, [(1-hydroxycyclohexyl)oxy]-, \u03b3-lactone"], "SMILES": "O=C1OC2(OC1)CCCCC2", "physical_data": {"Molecular Weight": "156.18", "Molecular Formula": "C8H12O3", "Melting Point": "38-40 \u00b0C"}}