{"cas_no": "4423-37-4", "cn_name": "\u4e01\u9999\u4ead", "en_name": ["Syringetin", "4H-1-Benzopyran-4-one, 3,5,7-trihydroxy-2-(4-hydroxy-3,5-dimethoxyphenyl)-", "Flavone, 3,4\u2032,5,7-tetrahydroxy-3\u2032,5\u2032-dimethoxy-", "3,5,7-Trihydroxy-2-(4-hydroxy-3,5-dimethoxyphenyl)-4H-1-benzopyran-4-one", "Syringetin", "Myricetin-3\u2032,5\u2032-dimethyl ether", "3\u2032,5\u2032-Dimethoxy-3,5,7,4\u2032-tetrahydroxyflavone"], "SMILES": "O=C1C=2C(OC(=C1O)C3=CC(OC)=C(O)C(OC)=C3)=CC(O)=CC2O", "physical_data": {"Molecular Weight": "346.29", "Molecular Formula": "C17H14O8", "Melting Point": "288-289 \u00b0C"}}