{"cas_no": "4424-06-0", "cn_name": "\u8fd8\u539f\u6a59 7", "en_name": ["Pigment Orange 43", "Bisbenzimidazo[2,1-b:2\u2032,1\u2032-i]benzo[lmn][3,8]phenanthroline-8,17-dione", "C.I. 71105", "Anthragen Brilliant Orange GR Lake 29-3002", "Anthragen Brilliant Orange GR Toner 29-3001", "Cibanone brilliant Orange GR", "C.I. Vat Orange 7", "Fenanthren Brilliant Orange GR", "Helio Brilliant Orange GRA Supra Paste 29-3016", "Helio Brilliant Orange GR Presscake 29-3003", "Hostaperm Vat Orange GR", "Hostavat Brilliant Orange GR", "Indanthren Brilliant Orange GR", "Indanthrene Brilliant Orange GR", "Indanthrene Brilliant Orange GRP", "Mikethren Brilliant Orange GR", "Ostanthrene orange GR", "Ostanthren Orange GR", "Palanthrene Brilliant Orange GR", "Paradone Brilliant Orange GR", "Paradone Brilliant Orange GR New", "Sanyo Permanent Orange D 213", "Sanyo Permanent Orange D 616", "Solanthrene Brilliant Orange JR", "Symuler Fast Orange GRD", "Threne Brilliant Orange GR", "Tinon Brilliant Orange GR", "PV Fast Orange GRL", "trans-Perinone", "Bordeaux RRN", "Brilliant Orange GR", "Mikethrene Orange GR", "Vat Brilliant Orange", "Vat Scarlet 2Zh", "C.I. Pigment Orange 43", "Hostaperm Orange GR", "Indofast Orange OV 5983", "Pigment Brilliant Orange Anthraquinone", "Vat Scarlet 2ZhD", "Perinone Orange", "Lionogen Orange GR", "Pigment Orange 43", "Fastogen Super Orange 6200", "Solanthrene Brilliant Orange FJRA", "Vat Orange 7", "Fuji AS Orange 200", "Vat Brilliant Orange GR", "Novoperm Orange GRL", "Orange A 76", "Hostaperm Orange 43", "Perinone", "DTXSID8025913"], "SMILES": "O=C1C=2C3=C4C(C=5N(C(=O)C4=CC=C3C=6N1C=7C(N6)=CC=CC7)C=8C(N5)=CC=CC8)=CC2", "physical_data": {"Molecular Weight": "412.40", "Molecular Formula": "C26H12N4O2", "Melting Point": "497-504 \u00b0C"}}