{"cas_no": "4424-17-3", "cn_name": "4-\u7532\u6c27\u57fa-3-\u6c28\u57fa\u82ef\u9170\u66ff\u82ef\u80fa", "en_name": ["2-Amino-N-phenylbenzamide", "Benzamide, 2-amino-N-phenyl-", "Benzanilide, 2-amino-", "2-Amino-N-phenylbenzamide", "Anthranilanilide", "N-(2-Aminobenzoyl)aniline", "2-Aminobenzanilide", "N-Phenylanthranilamide", "2-(N-Phenylcarbamoyl)aniline", "NSC 50644", "N-Phenyl-2-aminobenzamide", "N-(2-Aminobenzoyl)phenylamine"], "SMILES": "C(NC1=CC=CC=C1)(=O)C2=C(N)C=CC=C2", "physical_data": {"Molecular Weight": "212.25", "Molecular Formula": "C13H12N2O", "Melting Point": "131-132 \u00b0C"}}