{"cas_no": "4425-93-8", "cn_name": "9H-FLUORENE-9,9-DIMETHANOL", "en_name": ["9H-Fluorene-9,9-dimethanol", "9H-Fluorene-9,9-dimethanol", "Fluorene-9,9-dimethanol", "9,9-Bis(hydroxymethyl)fluorene", "NSC 402230", "(9H-Fluorene-9,9-diyl)dimethanol", "[9-(Hydroxymethyl)fluoren-9-yl]methanol"], "SMILES": "C(O)C1(CO)C=2C(C=3C1=CC=CC3)=CC=CC2", "physical_data": {"Molecular Weight": "226.27", "Molecular Formula": "C15H14O2", "Melting Point": "145.5-146.5 \u00b0C"}}