{"cas_no": "4425-56-3", "cn_name": "5-\u6c30\u57fa\u5c3f\u5627\u5576", "en_name": ["5-Cyanouracil", "5-Pyrimidinecarbonitrile, 1,2,3,4-tetrahydro-2,4-dioxo-", "1,2,3,4-Tetrahydro-2,4-dioxo-5-pyrimidinecarbonitrile", "5-Cyanouracil", "2,4(1H,3H)-Pyrimidinedione, 5-cyano-", "NSC 12931", "NSC 44192", "NSC 667760", "Uracil-5-carbonitrile", "2,4-Dioxo-1H-pyrimidine-5-carbonitrile", "2,4-Dioxo-1,2,3,4-tetrahydropyrimidine-5-carbonitrile", "2,4-Dihydroxypyrimidine-5-carbonitrile", "2-Hydroxy-4-oxo-1,4-dihydropyrimidine-5-carbonitrile"], "SMILES": "C(#N)C=1C(=O)NC(=O)NC1", "physical_data": {"Molecular Weight": "137.10", "Molecular Formula": "C5H3N3O2", "Melting Point": "295 \u00b0C (decomp)"}}