{"cas_no": "4425-82-5", "cn_name": "9-\u4e9a\u7532\u57fa-9H-\u82b4", "en_name": ["Dibenzofulvene", "9H-Fluorene, 9-methylene-", "Fluorene, 9-methylene-", "9-Methylene-9H-fluorene", "Dibenzofulvene", "Dibenzfulvene", "1,2:3,4-Dibenzofulvene", "9-Methylenefluorene", "Fluorenylidenemethane", "9-Methylidenefluorene"], "SMILES": "C=C1C=2C(C=3C1=CC=CC3)=CC=CC2", "physical_data": {"Molecular Weight": "178.23", "Molecular Formula": "C14H10", "Melting Point": "46-48 \u00b0C"}}