{"cas_no": "4426-11-3", "cn_name": "\u73af\u4e01\u8148", "en_name": ["Cyclobutanecarbonitrile", "Cyclobutanecarbonitrile", "Cyclobutanenitrile", "Cyanocyclobutane"], "SMILES": "C(#N)C1CCC1", "physical_data": {"Molecular Weight": "81.12", "Molecular Formula": "C5H7N", "Boiling Point": "149.6 \u00b0C", "Density": "0.868 g/cm\u00b3 @ Temp: 17 \u00b0C"}}