{"cas_no": "4426-47-5", "cn_name": "\u6b63\u4e01\u57fa\u787c\u9178", "en_name": ["Butylboronic acid", "Boronic acid, B-butyl-", "1-Butaneboronic acid", "Butaneboronic acid", "Boronic acid, butyl-", "B-Butylboronic acid", "Butylboronic acid", "n-Butaneboronic acid", "Butyldihydroxyborane", "n-Butylboronic acid", "1-Butylboronic acid"], "SMILES": "C(B(O)O)CCC", "physical_data": {"Molecular Weight": "101.94", "Molecular Formula": "C4H11BO2", "Melting Point": "94-96 \u00b0C", "Density": "1.022 g/cm\u00b3"}}