{"cas_no": "4426-51-1", "cn_name": "\u4e9a\u786b\u9178\u4e01\u70ef\u916f", "en_name": ["1,3,2-Dioxathiane, 4-methyl-, 2-oxide", "1,3,2-Dioxathiane, 4-methyl-, 2-oxide", "1,3-Butanediol, cyclic sulfite", "4-Methyltrimethylene sulfite", "NSC 60195", "4-Methyl-2-oxo-1,3,2-dioxathiane", "4-Methyl-1,3,2-dioxathiane 2-oxide", "1,3-Butylene glycol sulfite", "Butylene sulfite"], "SMILES": "CC1OS(=O)OCC1", "physical_data": {"Molecular Weight": "136.17", "Molecular Formula": "C4H8O3S", "Boiling Point": "185 \u00b0C", "Melting Point": "5 \u00b0C"}}