{"cas_no": "4426-79-3", "cn_name": "\u5f02\u786b\u6c30\u9178\u4ef2\u4e01\u916f", "en_name": ["sec-Butyl isothiocyanate", "Butane, 2-isothiocyanato-", "Isothiocyanic acid, sec-butyl ester", "2-Isothiocyanatobutane", "sec-Butyl isothiocyanate", "2-Butyl isothiocyanate", "1-Methylpropyl isothiocyanate"], "SMILES": "C(N=C=S)(CC)C", "physical_data": {"Molecular Weight": "115.20", "Molecular Formula": "C5H9NS", "Boiling Point": "62-63 \u00b0C @ Press: 21 Torr", "Density": "0.9322 g/cm\u00b3 @ Temp: 22 \u00b0C"}}