{"cas_no": "4427-96-7", "cn_name": "\u78b3\u9178\u4e59\u70ef\u4e9a\u4e59\u916f", "en_name": ["Vinylethylene carbonate", "1,3-Dioxolan-2-one, 4-ethenyl-", "Carbonic acid, cyclic vinylethylene ester", "4-Ethenyl-1,3-dioxolan-2-one", "Vinylethylene carbonate", "4-Vinyl-1,3-dioxolan-2-one", "4-Vinylethylene carbonate", "4-Ethenyl-4,5-dihydro-1,3-dioxol-2-one"], "SMILES": "C(=C)C1OC(=O)OC1", "physical_data": {"Molecular Weight": "114.10", "Molecular Formula": "C5H6O3", "Boiling Point": "123 \u00b0C @ Press: 14 Torr", "Density": "1.183 g/cm\u00b3 @ Temp: 25 \u00b0C"}}