{"cas_no": "4427-56-9", "cn_name": "4-\u7532\u57fa-2-(1-\u7532\u4e59\u57fa)\u82ef\u915a", "en_name": ["Isothymol", "Phenol, 4-methyl-2-(1-methylethyl)-", "m-Cymen-4-ol", "4-Methyl-2-(1-methylethyl)phenol", "4-Methyl-2-isopropylphenol", "2-Isopropyl-p-cresol", "2-Isopropyl-4-methylphenol", "Isothymol", "NSC 62110"], "SMILES": "C(C)(C)C1=C(O)C=CC(C)=C1", "physical_data": {"Molecular Weight": "150.22", "Molecular Formula": "C10H14O", "Boiling Point": "228.5 \u00b0C", "Melting Point": "36.5 \u00b0C", "Density": "0.9817 g/cm\u00b3 @ Temp: 17.800009765625 \u00b0C"}}