{"cas_no": "4429-42-9", "cn_name": "\u7126\u4e9a\u786b\u9178\u94be", "en_name": ["Potassium pyrosulfite", "Disulfurous acid, potassium salt (1:2)", "Pyrosulfurous acid, dipotassium salt", "Potassium pyrosulfite", "Disulfurous acid, dipotassium salt", "Potassium metabisulfite", "Potassium metabisulfite (K2S2O5)", "Dipotassium metabisulfite", "Potassium pyrosulfite (K2S2O5)", "Dipotassium pyrosulfite", "Dipotassium disulfite", "Potassium disulfite (K2S2O5)", "E 224", "Kadifit"], "SMILES": "S(S(=O)O)(=O)(=O)O.[K]", "physical_data": {"Molecular Weight": "", "Molecular Formula": "H2O5S2.2K", "Melting Point": "150 \u00b0C (decomp)", "Density": "2.3 g/cm\u00b3"}}