{"cas_no": "4429-63-4", "cn_name": "\u5b83\u52c3\u5b81", "en_name": ["Tabersonine", "Aspidospermidine-3-carboxylic acid, 2,3,6,7-tetradehydro-, methyl ester, (5\u03b1,12R,19\u03b1)-", "Tabersonine", "Aspidospermidine-3-carboxylic acid, 2,3,6,7-tetradehydro-, methyl ester, (5\u03b1,12\u03b2,19\u03b1)-", "1H-Indolizino[8,1-cd]carbazole-5-carboxylic acid, 3a-ethyl-3a,4,6,11,12,13a-hexahydro-, methyl ester", "1H-Indolizino[8,1-cd]carbazole, aspidospermidine-3-carboxylic acid deriv.", "(-)-Tabersonine", "Tabersonin"], "SMILES": "C(C)C12C3C4(C(=C(C(OC)=O)C1)NC=5C4=CC=CC5)CCN3CC=C2", "physical_data": {"Molecular Weight": "336.43", "Molecular Formula": "C21H24N2O2", "Melting Point": "196 \u00b0C"}}