{"cas_no": "443-83-4", "cn_name": "2-\u6c2f-6-\u6c1f\u7532\u82ef", "en_name": ["1-Chloro-3-fluoro-2-methylbenzene", "Benzene, 1-chloro-3-fluoro-2-methyl-", "Toluene, 2-chloro-6-fluoro-", "1-Chloro-3-fluoro-2-methylbenzene", "2-Chloro-6-fluorotoluene", "2-Fluoro-6-chlorotoluene", "6-Chloro-2-fluorotoluene"], "SMILES": "CC1=C(Cl)C=CC=C1F", "physical_data": {"Molecular Weight": "144.57", "Molecular Formula": "C7H6ClF", "Boiling Point": "154 \u00b0C"}}