{"cas_no": "443-84-5", "cn_name": "2,6-\u4e8c\u6c1f\u7532\u82ef", "en_name": ["1,3-Difluoro-2-methylbenzene", "Benzene, 1,3-difluoro-2-methyl-", "Toluene, 2,6-difluoro-", "1,3-Difluoro-2-methylbenzene", "2,6-Difluorotoluene", "2,6-Difluoro(methyl)benzene"], "SMILES": "CC1=C(F)C=CC=C1F", "physical_data": {"Molecular Weight": "128.12", "Molecular Formula": "C7H6F2", "Boiling Point": "112 \u00b0C", "Density": "1.1296 g/cm\u00b3 @ Temp: 20 \u00b0C"}}