{"cas_no": "443-26-5", "cn_name": "\u90bb\u6c1f\u82ef\u7532\u9178\u4e59\u916f", "en_name": ["Benzoic acid, 2-fluoro-, ethyl ester", "Benzoic acid, 2-fluoro-, ethyl ester", "Benzoic acid, o-fluoro-, ethyl ester", "Ethyl o-fluorobenzoate", "Ethyl 2-fluorobenzoate", "NSC 67340", "2-Fluorobenzoic acid ethyl ester"], "SMILES": "C(OCC)(=O)C1=C(F)C=CC=C1", "physical_data": {"Molecular Weight": "168.16", "Molecular Formula": "C9H9FO2", "Boiling Point": "85.5 \u00b0C @ Press: 8 Torr", "Density": "1.1261 g/cm\u00b3 @ Temp: 40 \u00b0C"}}