{"cas_no": "443-72-1", "cn_name": "6-(\u7532\u6c28\u57fa)\u560c\u5464", "en_name": ["N6-Methyladenine", "9H-Purin-6-amine, N-methyl-", "Adenine, N-methyl-", "1H-Purin-6-amine, N-methyl-", "N-Methyl-9H-purin-6-amine", "6-MAP", "N6-Methyladenine", "6-Methyladenine", "N6-Monomethyladenine", "6-Mono(methylamino)purine", "6-(Methylamino)purine", "N-Methyl-6-aminopurine", "6-N-Methyladenine", "N6-Methylaminopurine", "6-(N-Methylamino)purine", "NSC 11580"], "SMILES": "N(C)C1=C2C(N=CN2)=NC=N1", "physical_data": {"Molecular Weight": "149.15", "Molecular Formula": "C6H7N5", "Melting Point": "312-314 \u00b0C (decomp)"}}