{"cas_no": "443-81-2", "cn_name": "2-\u6eb4-3-\u6c1f\u82ef\u915a", "en_name": ["2-Bromo-3-fluorophenol", "Phenol, 2-bromo-3-fluoro-", "2-Bromo-3-fluorophenol"], "SMILES": "BrC1=C(F)C=CC=C1O", "physical_data": {"Molecular Weight": "191.00", "Molecular Formula": "C6H4BrFO", "Boiling Point": "123 \u00b0C @ Press: 50 Torr"}}