{"cas_no": "443-79-8", "cn_name": "DL-\u5f02\u4eae\u6c28\u9178", "en_name": ["DL-Isoleucine", "Isoleucine", "Isoleucine, DL-", "DL-Isoleucine", "(\u00b1)-Isoleucine", "DL-Ile", "NSC 9958"], "SMILES": "C(C(CC)C)(C(O)=O)N", "physical_data": {"Molecular Weight": "131.17", "Molecular Formula": "C6H13NO2", "Melting Point": "95-96 \u00b0C"}}