{"cas_no": "443-48-1", "cn_name": "\u7532\u785d\u5511", "en_name": ["Metronidazole", "1H-Imidazole-1-ethanol, 2-methyl-5-nitro-", "Imidazole-1-ethanol, 2-methyl-5-nitro-", "2-Methyl-5-nitro-1H-imidazole-1-ethanol", "Bayer 5360", "RP 8823", "Clont", "Flagyl", "1-(2-Hydroxyethyl)-2-methyl-5-nitroimidazole", "1-Hydroxyethyl-2-methyl-5-nitroimidazole", "1-(\u03b2-Hydroxyethyl)-2-methyl-5-nitroimidazole", "2-Methyl-5-nitroimidazole-1-ethanol", "Metronidazol", "Metronidazole", "Trichopal", "Flagil", "Klont", "Orvagil", "Anagiardil", "Gineflavir", "Takimetol", "Mexibol", "Flagesol", "Trichomol", "Trivazol", "Deflamon", "Vagimid", "Klion", "Entizol", "Metrogyl", "Metropol", "Elyzol", "Noritate", "Metron", "Tricocet", "Metrotop", "Trichocide", "Sanatrichom", "Protostat", "Tricho-Gynaedron", "Rathimed", "NSC 50364", "Metro Cream &", "Gel", "Fossyol", "Metrolyl", "Zadstat", "Metrolag", "Trichazol", "Arilin", "Vagilen", "MetroGel", "Tricho Cordes", "Satric", "Medazol", "Efloran", "NSC 69587", "Trichobrol", "Cimetrol 500LPCI", "Trikhopol", "Nidazole", "Dentamet gel", "metrovagin", "Polibiotic", "Flazol", "Supplin", "Emgyl", "Metrodol", "Loxagyl", "Metrotab", "Tromet", "Emtrin", "Rosiced", "Trichopole", "Trichopol", "Metrodine", "Compeba", "2-(2-Methyl-5-nitro-1H-imidazol-1-yl)ethanol", "Metro", "2-(2-Methyl-5-nitro-1H-imidazol-1-yl)ethan-1-ol", "MeSH ID: D008795"], "SMILES": "C(CO)N1C(N(=O)=O)=CN=C1C", "physical_data": {"Molecular Weight": "171.15", "Molecular Formula": "C6H9N3O3", "Melting Point": "158-160 \u00b0C"}}