{"cas_no": "443-86-7", "cn_name": "3-\u6c1f-2-\u7532\u57fa\u82ef\u80fa", "en_name": ["3-Fluoro-2-methylaniline", "Benzenamine, 3-fluoro-2-methyl-", "o-Toluidine, 3-fluoro-", "3-Fluoro-2-methylbenzenamine", "3-Fluoro-2-methylaniline", "6-Amino-2-fluorotoluene", "1-Amino-3-fluoro-2-methylbenzene", "2-Methyl-3-fluoroaniline", "(3-Fluoro-2-methylphenyl)amine"], "SMILES": "CC1=C(F)C=CC=C1N", "physical_data": {"Molecular Weight": "125.14", "Molecular Formula": "C7H8FN", "Boiling Point": "89.5-90.5 \u00b0C @ Press: 15 Torr", "Melting Point": "7 \u00b0C"}}