{"cas_no": "443-82-3", "cn_name": "3-\u6c1f\u90bb\u4e8c\u7532\u82ef", "en_name": ["3-Fluoro-o-xylene", "Benzene, 1-fluoro-2,3-dimethyl-", "o-Xylene, 3-fluoro-", "1-Fluoro-2,3-dimethylbenzene", "3-Fluoro-1,2-xylene", "3-Fluoro-o-xylene", "6-Methyl-2-fluorotoluene", "3-Fluoro-1,2-dimethylbenzene", "2,3-Dimethylfluorobenzene", "NSC 76081"], "SMILES": "CC1=C(C)C=CC=C1F", "physical_data": {"Molecular Weight": "124.16", "Molecular Formula": "C8H9F", "Boiling Point": "148-152 \u00b0C"}}