{"cas_no": "443-73-2", "cn_name": "5-\u6c1f\u5432\u54da-3-\u4e59\u9178", "en_name": ["5-Fluoroindole-3-acetic acid", "1H-Indole-3-acetic acid, 5-fluoro-", "Indole-3-acetic acid, 5-fluoro-", "5-Fluoro-1H-indole-3-acetic acid", "5-Fluoro-IAA", "2-(5-Fluoro-3-indolyl)acetic acid", "5-Fluoroindole-3-acetic acid", "(5-Fluoroindol-3-yl)acetic acid", "2-(5-Fluoro-1H-indol-3-yl)acetic acid", "NSC 88616", "5-Fluoroindoleacetic acid", "(5-Fluoro-1H-indol-3-yl)acetic acid"], "SMILES": "C(C(O)=O)C=1C=2C(NC1)=CC=C(F)C2", "physical_data": {"Molecular Weight": "193.17", "Molecular Formula": "C10H8FNO2", "Melting Point": "138-140 \u00b0C"}}