{"cas_no": "443-88-9", "cn_name": "2,6-\u4e8c\u7532\u57fa\u6c1f\u82ef", "en_name": ["2-Fluoro-1,3-dimethylbenzene", "Benzene, 2-fluoro-1,3-dimethyl-", "m-Xylene, 2-fluoro-", "2-Fluoro-1,3-dimethylbenzene", "2-Fluoro-1,3-xylene", "3-Methyl-2-fluorotoluene", "2-Fluoro-m-xylene", "1-Fluoro-2,6-dimethylbenzene", "1,3-Dimethyl-2-fluorobenzene", "2,6-Dimethylfluorobenzene", "2,6-Dimethyl-1-fluorobenzene"], "SMILES": "FC1=C(C)C=CC=C1C", "physical_data": {"Molecular Weight": "124.16", "Molecular Formula": "C8H9F", "Boiling Point": "165-167 \u00b0C @ Press: 760 Torr"}}