{"cas_no": "443-87-8", "cn_name": "3-\u6c1f-2-\u7532\u57fa\u82ef\u915a", "en_name": ["3-Fluoro-2-methylphenol", "Phenol, 3-fluoro-2-methyl-", "o-Cresol, 3-fluoro-", "3-Fluoro-2-methylphenol", "NSC 190309"], "SMILES": "CC1=C(F)C=CC=C1O", "physical_data": {"Molecular Weight": "126.13", "Molecular Formula": "C7H7FO", "Boiling Point": "186-188 \u00b0C @ Press: 748 Torr", "Melting Point": "56.5 \u00b0C"}}