{"cas_no": "443-85-6", "cn_name": "2-\u6c1f-6-\u7898\u7532\u82ef", "en_name": ["1-Fluoro-3-iodo-2-methylbenzene", "Benzene, 1-fluoro-3-iodo-2-methyl-", "Toluene, 2-fluoro-6-iodo-", "1-Fluoro-3-iodo-2-methylbenzene", "2-Fluoro-6-iodotoluene", "3-Fluoro-2-methyliodobenzene"], "SMILES": "CC1=C(F)C=CC=C1I", "physical_data": {"Molecular Weight": "236.03", "Molecular Formula": "C7H6FI", "Boiling Point": "114-116 \u00b0C @ Press: 8 Torr"}}