{"cas_no": "4430-51-7", "cn_name": "1,4-\u4e8c\u5f02\u786b\u4ee3\u6c30\u57fa\u4e01\u916f", "en_name": ["1,4-Diisothiocyanatobutane", "Butane, 1,4-diisothiocyanato-", "Isothiocyanic acid, tetramethylene ester", "1,4-Diisothiocyanatobutane", "Tetramethylene diisothiocyanate"], "SMILES": "C(CCN=C=S)CN=C=S", "physical_data": {"Molecular Weight": "172.27", "Molecular Formula": "C6H8N2S2", "Boiling Point": "170 \u00b0C @ Press: 11 Torr", "Density": "1.2107 g/cm\u00b3 @ Temp: 21.5 \u00b0C"}}