{"cas_no": "4430-45-9", "cn_name": "1-\u5f02\u786b\u4ee3\u6c30\u9178\u8f9b\u916f", "en_name": ["1-Isothiocyanatooctane", "Octane, 1-isothiocyanato-", "Isothiocyanic acid, octyl ester", "1-Isothiocyanatooctane", "Octyl isothiocyanate", "n-Octyl isothiocyanate", "1-Octyl isothiocyanate"], "SMILES": "C(CCCCC)CCN=C=S", "physical_data": {"Molecular Weight": "171.30", "Molecular Formula": "C9H17NS", "Boiling Point": "123 \u00b0C @ Press: 12 Torr"}}