{"cas_no": "4430-77-7", "cn_name": "6,7-\u4e8c\u6c22\u5421\u5576\u5e76[2,3-D]\u54d2\u55ea-5,8-\u4e8c\u916e", "en_name": ["6,7-Dihydropyrido[2,3-d]pyridazine-5,8-dione", "Pyrido[2,3-d]pyridazine-5,8-dione, 6,7-dihydro-", "6,7-Dihydropyrido[2,3-d]pyridazine-5,8-dione", "6,7-Diaza-5,8-dioxo-5,6,7,8-tetrahydroquinoline", "2,3-Pyridinedicarboxylic acid, cyclic hydrazide", "Pyrido[2,3-d]pyridazine-5,8-diol", "Quinolinic hydrazide", "NSC 131213", "NSC 131226", "NSC 3846"], "SMILES": "O=C1C=2C(C(=O)NN1)=NC=CC2", "physical_data": {"Molecular Weight": "163.13", "Molecular Formula": "C7H5N3O2", "Melting Point": "310 \u00b0C (decomp)"}}