{"cas_no": "4430-31-3", "cn_name": "\u516b\u6c22-2H-1-\u82ef\u5e76\u5421\u5583-2-\u916e", "en_name": ["Octahydrocoumarin", "2H-1-Benzopyran-2-one, octahydro-", "Coumarin, octahydro-", "Cyclohexanepropionic acid, 2-hydroxy-, \u03b4-lactone", "Octahydro-2H-1-benzopyran-2-one", "Octahydrocoumarin", "Cyclohexanepropanoic acid, 2-hydroxy-, \u03b4-lactone", "2-Oxabicyclo[4.4.0]decan-3-one", "3,4,4a,5,6,7,8,8a-Octahydrochromen-2-one"], "SMILES": "O=C1OC2C(CC1)CCCC2", "physical_data": {"Molecular Weight": "154.21", "Molecular Formula": "C9H14O2", "Boiling Point": "110 \u00b0C @ Press: 1 Torr", "Density": "1.0999 g/cm\u00b3 @ Temp: 24 \u00b0C"}}