{"cas_no": "4430-42-6", "cn_name": "BERTEROIN", "en_name": ["Berteroin", "Pentane, 1-isothiocyanato-5-(methylthio)-", "Isothiocyanic acid, 5-(methylthio)pentyl ester", "1-Isothiocyanato-5-(methylthio)pentane", "5-(Methylthio)pentyl isothiocyante", "5-(Methylthio)pentyl isothiocyanate", "Berteroin", "(5-Isothiocyanatopentyl)(methyl)sulfane"], "SMILES": "C(CCN=C=S)CCSC", "physical_data": {"Molecular Weight": "175.31", "Molecular Formula": "C7H13NS2", "Boiling Point": "155 \u00b0C @ Press: 10 Torr"}}