{"cas_no": "4430-36-8", "cn_name": "\u4e09\u82a5\u5b50\u9178\u7518\u6cb9\u916f", "en_name": ["Erucin", "Butane, 1-isothiocyanato-4-(methylthio)-", "Isothiocyanic acid, 4-(methylthio)butyl ester", "1-Isothiocyanato-4-(methylthio)butane", "4-(Methylthio)butyl isothiocyanate", "Erucin", "1-Isothiocyanato-4-methylsulfanylbutane", "4-(Methylsulfanyl)butyl isothiocyanate"], "SMILES": "C(CCSC)CN=C=S", "physical_data": {"Molecular Weight": "161.29", "Molecular Formula": "C6H11NS2", "Boiling Point": "130-140 \u00b0C @ Press: 9 Torr", "Melting Point": "50 \u00b0C"}}