{"cas_no": "4430-47-1", "cn_name": "1,3-\u82ef\u5e76\u4e8c\u6c27\u9187-5-\u57fa\u7532\u57fa\u5f02\u786b\u6c30\u9178\u916f", "en_name": ["5-(Isothiocyanatomethyl)-1,3-benzodioxole", "1,3-Benzodioxole, 5-(isothiocyanatomethyl)-", "Isothiocyanic acid, piperonyl ester", "5-(Isothiocyanatomethyl)-1,3-benzodioxole", "Piperonyl isothiocyanate", "3,4-Methylenedioxybenzyl isothiocyanate", "5-(Isothiocyanatomethyl)benzo[d][1,3]dioxole", "1,3-Benzodioxol-5-ylmethyl isothiocyanate", "1-(Isothiocyanatomethyl)-3,4-methylenedioxybenzene"], "SMILES": "C(N=C=S)C=1C=C2C(=CC1)OCO2", "physical_data": {"Molecular Weight": "193.22", "Molecular Formula": "C9H7NO2S", "Melting Point": "85-87 \u00b0C"}}