{"cas_no": "4431-83-8", "cn_name": "\u53cc(2-\u7532\u6c27\u57fa\u4e59\u6c27\u57fa)\u7532\u70f7", "en_name": ["2,5,7,10-Tetraoxaundecane", "2,5,7,10-Tetraoxaundecane", "Methane, bis(2-methoxyethoxy)-", "Ethylene glycol monomethyl ether formal", "Bis(2-methoxyethoxy)methane", "Formaldehyde bis(2-methoxyethyl) acetal", "NSC 5225", "1-Methoxy-2-(2-methoxyethoxymethoxy)ethane"], "SMILES": "C(OCCOC)OCCOC", "physical_data": {"Molecular Weight": "164.20", "Molecular Formula": "C7H16O4", "Boiling Point": "100 \u00b0C @ Press: 22 Torr", "Density": "0.9947 g/cm\u00b3 @ Temp: 20 \u00b0C"}}