{"cas_no": "4431-00-9", "cn_name": "\u91d1\u7cbe\u4e09\u7fa7\u9178", "en_name": ["Aurintricarboxylic acid", "Benzoic acid, 3,3\u2032-[(3-carboxy-4-oxo-2,5-cyclohexadien-1-ylidene)methylene]bis[6-hydroxy-", "1,4-Cyclohexadiene-1-carboxylic acid, 3-[bis(3-carboxy-4-hydroxyphenyl)methylene]-6-oxo-", "Aurintricarboxylic acid", "Benzoic acid, 5-[(3-carboxy-4-hydroxyphenyl)(3-carboxy-4-oxo-2,5-cyclohexadien-1-ylidene)methyl]-2-hydroxy-", "3,3\u2032-[(3-Carboxy-4-oxo-2,5-cyclohexadien-1-ylidene)methylene]bis[6-hydroxybenzoic acid]", "Aluminon free acid", "Aurine tricarboxylic acid", "CAC 1098", "CP 005240"], "SMILES": "C(C1=CC(C(O)=O)=C(O)C=C1)(C2=CC(C(O)=O)=C(O)C=C2)=C3C=C(C(O)=O)C(=O)C=C3", "physical_data": {"Molecular Weight": "422.34", "Molecular Formula": "C22H14O9", "Melting Point": "246-250 \u00b0C"}}