{"cas_no": "4432-31-9", "cn_name": "2-\u5417\u5549\u4e59\u78fa\u9178", "en_name": ["4-Morpholineethanesulfonic acid", "4-Morpholineethanesulfonic acid", "MES", "2-Morpholinoethanesulfonic acid", "2-(N-Morpholino)ethanesulfonic acid", "MES (buffering agent)", "2-(4-Morpholinyl)ethanesulfonic acid", "Morpholinoethanesulfonic acid", "2-(4-Morpholino)ethanesulfonic acid", "NSC 157116", "MES buffer", "2-(Morpholin-4-yl)ethane-1-sulfonic acid", "2-Morpholin-4-ium-4-ylethanesulfonate"], "SMILES": "C(CS(=O)(=O)O)N1CCOCC1", "physical_data": {"Molecular Weight": "195.24", "Molecular Formula": "C6H13NO4S", "Melting Point": "277-280 \u00b0C (decomp)"}}