{"cas_no": "443305-33-7", "cn_name": "O-\u7425\u73c0\u9170\u4e9a\u80fa-1,3-\u4e8c\u7532\u57fa\u4e19\u57fa\u8132\u516d\u6c1f\u78f7\u9178\u76d0", "en_name": ["Pyrimidinium, 2-[(2,5-dioxo-1-pyrrolidinyl)oxy]-3,4,5,6-tetrahydro-1,3-dimethyl-, hexafluorophosphate(1-) (1:1)", "Pyrimidinium, 2-[(2,5-dioxo-1-pyrrolidinyl)oxy]-3,4,5,6-tetrahydro-1,3-dimethyl-, hexafluorophosphate(1-) (1:1)", "Pyrimidinium, 2-[(2,5-dioxo-1-pyrrolidinyl)oxy]-3,4,5,6-tetrahydro-1,3-dimethyl-, hexafluorophosphate(1-)", "HDPyOSu"], "SMILES": "[P+5]([F-])([F-])([F-])([F-])([F-])[F-].O(N1C(=O)CCC1=O)C2=[N+](C)CCCN2C", "physical_data": {"Molecular Weight": "", "Molecular Formula": "C10H16N3O3.F6P", "Melting Point": "170-172 \u00b0C"}}