{"cas_no": "4433-30-1", "cn_name": "\u5341\u4e00\u82ef\u916e", "en_name": ["1-Phenyl-1-undecanone", "1-Undecanone, 1-phenyl-", "Undecanophenone", "1-Phenyl-1-undecanone", "Decyl phenyl ketone", "Undecanoylbenzene"], "SMILES": "C(CCCCCCCCCC)(=O)C1=CC=CC=C1", "physical_data": {"Molecular Weight": "246.39", "Molecular Formula": "C17H26O", "Melting Point": "29.5-30.2 \u00b0C"}}