{"cas_no": "4433-40-3", "cn_name": "5-\u7f9f\u7532\u57fa\u8132\u5627\u5576", "en_name": ["5-(Hydroxymethyl)uracil", "2,4(1H,3H)-Pyrimidinedione, 5-(hydroxymethyl)-", "Uracil, 5-(hydroxymethyl)-", "5-(Hydroxymethyl)-2,4(1H,3H)-pyrimidinedione", "5-(Hydroxymethyl)uracil", "\u03b1-Hydroxythymine", "NSC 20901", "5-(Hydroxymethyl)-1,3-dihydropyrimidine-2,4-dione", "5-Hydroxymethyl-1H-pyrimidine-2,4-dione", "5-(Hydroxymethyl)pyrimidine-2,4-diol"], "SMILES": "C(O)C=1C(=O)NC(=O)NC1", "physical_data": {"Molecular Weight": "142.11", "Molecular Formula": "C5H6N2O3", "Melting Point": "195-200 \u00b0C"}}