{"cas_no": "4433-13-0", "cn_name": "4,4'- \u4e8c\u4e59\u70ef\u57fa-1,1'-\u8054\u82ef", "en_name": ["4,4\u2032-Diethenyl-1,1\u2032-biphenyl", "1,1\u2032-Biphenyl, 4,4\u2032-diethenyl-", "Biphenyl, 4,4\u2032-divinyl-", "4,4\u2032-Diethenyl-1,1\u2032-biphenyl", "4,4\u2032-Divinylbiphenyl", "4,4\u2032-Divinyl-1,1\u2032-biphenyl", "1-Ethenyl-4-(4-ethenylphenyl)benzene"], "SMILES": "C(=C)C1=CC=C(C=C1)C2=CC=C(C=C)C=C2", "physical_data": {"Molecular Weight": "206.28", "Molecular Formula": "C16H14", "Melting Point": "153 \u00b0C"}}