{"cas_no": "4433-79-8", "cn_name": "\u4e59\u9170\u4e59\u9170-4-\u6c2f-2,5-\u4e8c\u7532\u6c27\u57fa\u82ef\u80fa", "en_name": ["N-(4-Chloro-2,5-dimethoxyphenyl)-3-oxobutanamide", "Butanamide, N-(4-chloro-2,5-dimethoxyphenyl)-3-oxo-", "Acetoacetanilide, 4\u2032-chloro-2\u2032,5\u2032-dimethoxy-", "N-(4-Chloro-2,5-dimethoxyphenyl)-3-oxobutanamide", "C.I. 37613", "N-Acetoacetyl-5-chloro-2-amino-1,4-dimethoxybenzene", "C.I. Azoic Coupling Component 44", "Naphtanilide LRG", "Naphtazol 4J", "Naphthol AS-IRG", "Naphtol AS-IRG", "Naphtol AS-LGLL", "1-Acetoacetylamino-2,5-dimethoxy-4-chlorobenzene", "4\u2032-Chloro-2\u2032,5\u2032-dimethoxyacetoacetanilide", "Acetoacetyl-2,5-dimethoxy-4-chloroanilide", "N-Acetoacetyl-4-chloro-2,5-dimethoxyaniline", "Naphthol AS 13GH", "N-(2,5-Dimethoxy-4-chlorophenyl)acetoacetamide", "Acetoaceto-2,5-dimethoxy-4-chloroanilide", "N-(2,5-Dimethoxy-4-chlorophenyl)-3-oxobutanamide", "2,5-Dimethoxy-4-chloro-N-acetoacetyl aniline", "NSC 50638", "Naftol AS-IRG", "Yellow Base GC", "Napthol ASIRG", "1-Acetoacetylamino-4-chloro-2,5-dimethoxy-benzene"], "SMILES": "N(C(CC(C)=O)=O)C1=C(OC)C=C(Cl)C(OC)=C1", "physical_data": {"Molecular Weight": "271.70", "Molecular Formula": "C12H14ClNO4", "Melting Point": "99 \u00b0C"}}