{"cas_no": "443305-34-8", "cn_name": "TPD-OSU", "en_name": ["Pyrimidinium, 2-[(2,5-dioxo-1-pyrrolidinyl)oxy]-3,4,5,6-tetrahydro-1,3-dimethyl-, tetrafluoroborate(1-) (1:1)", "Pyrimidinium, 2-[(2,5-dioxo-1-pyrrolidinyl)oxy]-3,4,5,6-tetrahydro-1,3-dimethyl-, tetrafluoroborate(1-) (1:1)", "Pyrimidinium, 2-[(2,5-dioxo-1-pyrrolidinyl)oxy]-3,4,5,6-tetrahydro-1,3-dimethyl-, tetrafluoroborate(1-)"], "SMILES": "[B+3]([F-])([F-])([F-])[F-].O(N1C(=O)CCC1=O)C2=[N+](C)CCCN2C", "physical_data": {"Molecular Weight": "", "Molecular Formula": "C10H16N3O3.BF4", "Melting Point": "104-106 \u00b0C"}}