{"cas_no": "4434-13-3", "cn_name": "5-\u7532\u57fa-2-\u7532\u9178\u5421\u5576", "en_name": ["5-Methylpicolinic acid", "2-Pyridinecarboxylic acid, 5-methyl-", "Picolinic acid, 5-methyl-", "5-Methyl-2-pyridinecarboxylic acid", "5-Methylpicolinic acid", "2-Carboxy-5-methylpyridine"], "SMILES": "C(O)(=O)C1=CC=C(C)C=N1", "physical_data": {"Molecular Weight": "137.14", "Molecular Formula": "C7H7NO2", "Melting Point": "164-166 \u00b0C"}}