{"cas_no": "4435-67-0", "cn_name": "\u5747\u82ef\u4e09\u4e59\u9178", "en_name": ["1,3,5-Benzenetriacetic acid", "1,3,5-Benzenetriacetic acid", "s-Phenenyltriacetic acid", "(3,5-Bis-carboxymethylphenyl)acetic acid", "NSC 408182", "2,2\u2032,2\u2032\u2032-(Benzene-1,3,5-triyl)triacetic acid", "2,2\u2032,2\u2032\u2032-(Benzene-1,3,5-triyl)triaceticacid"], "SMILES": "C(C(O)=O)C1=CC(CC(O)=O)=CC(CC(O)=O)=C1", "physical_data": {"Molecular Weight": "252.22", "Molecular Formula": "C12H12O6", "Melting Point": "197-204 \u00b0C"}}