{"cas_no": "4435-50-1", "cn_name": "1,2,3-\u4e01\u4e09\u9187", "en_name": ["1,2,3-Butanetriol", "1,2,3-Butanetriol", "1,2,3-Trihydroxybutane", "1-Methylglycerol", "1-Methyl-1,2,3-propanetriol"], "SMILES": "C(C(C)O)(CO)O", "physical_data": {"Molecular Weight": "106.12", "Molecular Formula": "C4H10O3", "Boiling Point": "170 \u00b0C"}}