{"cas_no": "4436-74-2", "cn_name": "\u53cd\u5f0f-2-\u4e01\u70ef-1,4-\u4e8c\u7532\u9178", "en_name": ["3-Hexenedioic acid", "3-Hexenedioic acid", "\u03b2-Hydromuconic acid", "2-Butene-1,4-dicarboxylic acid", "Dihydromuconic acid"], "SMILES": "C(=CCC(O)=O)CC(O)=O", "physical_data": {"Molecular Weight": "144.13", "Molecular Formula": "C6H8O4", "Melting Point": "197 \u00b0C"}}