{"cas_no": "443642-29-3", "cn_name": "(2R,3R,4R,5R)-2-(4-\u6c28\u57fa-7H-\u5421\u54af\u5e76[2,3-D]\u5627\u5576-7-\u57fa)-5-(\u7f9f\u7532\u57fa)-3-\u7532\u57fa\u56db\u6c22\u544b\u5583-3,4-\u4e8c\u9187", "en_name": ["7-Deaza-2\u2032-C-methyladenosine", "7H-Pyrrolo[2,3-d]pyrimidin-4-amine, 7-(2-C-methyl-\u03b2-D-ribofuranosyl)-", "7-(2-C-Methyl-\u03b2-D-ribofuranosyl)-7H-pyrrolo[2,3-d]pyrimidin-4-amine", "7-Deaza-2\u2032-C-methyladenosine", "MK 0608"], "SMILES": "CC1(O)C(OC(CO)C1O)N2C=3C(C=C2)=C(N)N=CN3", "physical_data": {"Molecular Weight": "280.28", "Molecular Formula": "C12H16N4O4", "Melting Point": "222 \u00b0C"}}