{"cas_no": "4436-24-2", "cn_name": "2-\u82c4\u57fa\u73af\u6c27\u4e59\u70f7", "en_name": ["2-(Phenylmethyl)oxirane", "Oxirane, 2-(phenylmethyl)-", "Benzene, (2,3-epoxypropyl)-", "Oxirane, (phenylmethyl)-", "2-(Phenylmethyl)oxirane", "Propane, 1,2-epoxy-3-phenyl-", "1-Phenyl-2,3-epoxypropane", "Benzylethylene oxide", "3-Phenylpropene-1,2-oxide", "2,3-Epoxy-1-phenylpropane", "Allylbenzene oxide", "1,2-Epoxy-3-phenylpropane", "2-Benzyloxirane", "3-Phenyl-1,2-epoxypropane", "Benzyloxirane", "Allylbenzene epoxide", "(2,3-Epoxypropyl)benzene", "Allylbenzene 2\u2032,3\u2032-oxide", "(Phenylmethyl)oxirane", "(\u00b1)-(2,3-Epoxypropyl)benzene", "1-Benzyloxirane", "NSC 4327"], "SMILES": "C(C1=CC=CC=C1)C2CO2", "physical_data": {"Molecular Weight": "134.18", "Molecular Formula": "C9H10O", "Boiling Point": "98-100 \u00b0C @ Press: 17 Torr", "Density": "1.0059 g/cm\u00b3 @ Temp: 0 \u00b0C"}}