{"cas_no": "4437-85-8", "cn_name": "4-\u4e59\u57fa-1,3-\u4e8c\u6076\u70f7-2-\u916e", "en_name": ["Butylene carbonate", "1,3-Dioxolan-2-one, 4-ethyl-", "Carbonic acid, cyclic ethylethylene ester", "Carbonic acid, ethylethylene ester", "1,2-Butanediol, cyclic carbonate", "4-Ethyl-1,3-dioxolan-2-one", "1,2-Butylene carbonate", "Butylene carbonate", "1,2-Butanediol carbonate", "2-Oxo-4-ethyl-1,3-dioxolane", "Jeffsol BC", "4-Ethyl-1,3-dioxolidin-2-one", "1-Butene carbonate"], "SMILES": "C(C)C1OC(=O)OC1", "physical_data": {"Molecular Weight": "116.12", "Molecular Formula": "C5H8O3", "Boiling Point": "75-80 \u00b0C @ Press: 0.8 Torr"}}