{"cas_no": "4437-20-1", "cn_name": "\u4e8c\u7ce0\u57fa\u4e8c\u786b", "en_name": ["Difurfuryl disulfide", "Furan, 2,2\u2032-[dithiobis(methylene)]bis-", "Furan, 2,2\u2032-(dithiodimethylene)di-", "2,2\u2032-[Dithiobis(methylene)]bis[furan]", "Furfuryl disulfide", "Difurfuryl disulfide", "Bisfurfuryl disulfide", "Bis(2-furylmethyl) disulfide", "Bis(furan-2-ylmethyl) disulfide", "Di(furan-2-ylmethyl) disulfide", "2-[(Furan-2-ylmethyldisulfanyl)methyl]furan"], "SMILES": "C(SSCC1=CC=CO1)C2=CC=CO2", "physical_data": {"Molecular Weight": "226.32", "Molecular Formula": "C10H10O2S2", "Boiling Point": "160-165 \u00b0C @ Press: 5 Torr", "Melting Point": "10 \u00b0C"}}