{"cas_no": "4437-22-3", "cn_name": "\u4e8c\u7ce0\u57fa\u919a", "en_name": ["Difurfuryl ether", "Furan, 2,2\u2032-[oxybis(methylene)]bis-", "Furan, 2,2\u2032-(oxydimethylene)di-", "Furfuryl ether", "Furan, 2,2\u2032-oxydimethylenebis-", "2,2\u2032-[Oxybis(methylene)]bis[furan]", "Difurfuryl ether", "2,2\u2032-Difurfuryl ether", "NSC 97234", "2-((Furan-2-ylmethoxy)methyl)furan", "2,2\u2032-(Oxybis(methylene))difuran", "2,2\u2032-Oxybis(methylene)difuran"], "SMILES": "C(OCC1=CC=CO1)C2=CC=CO2", "physical_data": {"Molecular Weight": "178.18", "Molecular Formula": "C10H10O3", "Boiling Point": "97-100 \u00b0C @ Press: 5 Torr", "Density": "1.1339 g/cm\u00b3 @ Temp: 25 \u00b0C"}}