{"cas_no": "4437-51-8", "cn_name": "3,4-\u5df1\u4e8c\u916e", "en_name": ["3,4-Hexanedione", "3,4-Hexanedione", "Bipropionyl", "NSC 23255"], "SMILES": "C(C(CC)=O)(CC)=O", "physical_data": {"Molecular Weight": "114.14", "Molecular Formula": "C6H10O2", "Boiling Point": "130 \u00b0C", "Melting Point": "-10 \u00b0C", "Density": "0.941 g/cm\u00b3 @ Temp: 21 \u00b0C"}}