{"cas_no": "443882-99-3", "cn_name": "3-\u6c2f-4-(3-\u6c1f\u82c4\u6c27\u57fa)\u785d\u57fa\u82ef", "en_name": ["2-Chloro-1-[(3-fluorophenyl)methoxy]-4-nitrobenzene", "Benzene, 2-chloro-1-[(3-fluorophenyl)methoxy]-4-nitro-", "2-Chloro-1-[(3-fluorophenyl)methoxy]-4-nitrobenzene", "2-Chloro-1-(3-fluorobenzyloxy)-4-nitrobenzene", "1-Fluoro-3-[(4-nitro-2-chlorophenoxy)methyl]benzene", "3-Chloro-4-[(3-fluorobenzyl)oxy]nitrobenzene", "4-(3-Fluorobenzyloxy)-3-chloronitrobenzene"], "SMILES": "O(CC1=CC(F)=CC=C1)C2=C(Cl)C=C(N(=O)=O)C=C2", "physical_data": {"Molecular Weight": "281.67", "Molecular Formula": "C13H9ClFNO3", "Melting Point": "90-96 \u00b0C"}}