{"cas_no": "443955-90-6", "cn_name": "2,3-\u4e8c\u6c22[1,4]\u4e8c\u6076\u5e76[2,3-C]\u5421\u5576-7-\u7532\u919b", "en_name": ["2,3-Dihydro-1,4-dioxino[2,3-c]pyridine-7-carboxaldehyde", "1,4-Dioxino[2,3-c]pyridine-7-carboxaldehyde, 2,3-dihydro-", "2,3-Dihydro-1,4-dioxino[2,3-c]pyridine-7-carboxaldehyde", "2,3-Dihydro[1,4]dioxino[2,3-c]pyridine-7-carboxaldehyde", "2,3-Dihydro-[1,4]dioxino[2,3-c]pyridine-7-carbaldehyde", "2H,3H-[1,4]Dioxino[2,3-c]pyridine-7-carbaldehyde"], "SMILES": "C(=O)C=1C=C2C(=CN1)OCCO2", "physical_data": {"Molecular Weight": "165.15", "Molecular Formula": "C8H7NO3", "Melting Point": "120-122 \u00b0C"}}