{"cas_no": "443913-73-3", "cn_name": "\u51e1\u5fb7\u4ed6\u5c3c", "en_name": ["Vandetanib", "4-Quinazolinamine, N-(4-bromo-2-fluorophenyl)-6-methoxy-7-[(1-methyl-4-piperidinyl)methoxy]-", "N-(4-Bromo-2-fluorophenyl)-6-methoxy-7-[(1-methyl-4-piperidinyl)methoxy]-4-quinazolinamine", "ZD 6474", "Vandetanib", "4-(4-Bromo-2-fluoroanilino)-6-methoxy-7-[(1-methylpiperidin-4-yl)methoxy]quinazoline", "Zactima", "CH 331", "Caprelsa", "N-(4-Bromo-2-fluorophenyl)-6-methoxy-7-[(1-methylpiperidin-4-yl)methoxy]quinazolin-4-amine", "N-(4-Bromo-2-fluorophenyl)-6-methoxy-7-(N-methylpiperidin-4-ylmethoxy)quinazolin-4-amine", "AZD 6474", "AZD6474", "AZD-6474"], "SMILES": "N(C=1C2=C(C=C(OCC3CCN(C)CC3)C(OC)=C2)N=CN1)C4=C(F)C=C(Br)C=C4", "physical_data": {"Molecular Weight": "475.35", "Molecular Formula": "C22H24BrFN4O2", "Melting Point": "242 \u00b0C"}}