{"cas_no": "4439-20-7", "cn_name": "N,N'-\u53cc(2-\u7f9f\u4e59\u57fa)\u4e59\u4e8c\u80fa", "en_name": ["2,2\u2032-(1,2-Ethanediyldiimino)bis[ethanol]", "Ethanol, 2,2\u2032-(1,2-ethanediyldiimino)bis-", "Ethanol, 2,2\u2032-(ethylenediimino)di-", "2,2\u2032-(1,2-Ethanediyldiimino)bis[ethanol]", "N,N\u2032-Di(\u03b2-hydroxyethyl)ethylenediamine", "N,N\u2032-Bis(2-hydroxyethyl)ethylenediamine", "1,2-Ethanediamine, N,N\u2032-bis(2-hydroxyethyl)-", "1,2-Bis(\u03b2-hydroxyethylamino)ethane", "1,2-Bis[(2-hydroxyethyl)amino]ethane", "N,N\u2032-Diethanolethylenediamine", "N,N\u2032-Bis(\u03b2-hydroxyethyl)ethylenediamine", "Bis(2-hydroxyethylamino)ethane", "3,6-Diazaoctane-1,8-diol", "N,N\u2032-Bis(2-hydroxyethyl)-1,2-ethanediamine", "N,N\u2032-Bis(hydroxyethyl)ethylenediamine", "NSC 18476", "Amino Alcohol A-EAD", "N,N\u2032-Di(2-hydroxyethyl)ethylenediamine", "(N,N\u2032-Bis(2-hydroxyethyl)ethylenediamine)", "2,2\u2032-(Ethane-1,2-diylbis(azanediyl))diethanol", "2-[2-(2-Hydroxyethylamino)ethylamino]ethanol", "2-[2-(2-Hydroxy-ethylamino)-ethylamino]-ethanol"], "SMILES": "C(CNCCO)NCCO", "physical_data": {"Molecular Weight": "148.20", "Molecular Formula": "C6H16N2O2", "Boiling Point": "175-190 \u00b0C @ Press: 13 Torr", "Melting Point": "97.5 \u00b0C"}}