{"cas_no": "443914-95-2", "cn_name": "A-\u6eb4-5'-\u6c1f-2'-\u7532\u6c27\u57fa\u82ef\u4e59\u916e", "en_name": ["2-Bromo-1-(4-fluoro-3-methoxyphenyl)ethanone", "Ethanone, 2-bromo-1-(4-fluoro-3-methoxyphenyl)-", "2-Bromo-1-(4-fluoro-3-methoxyphenyl)ethanone", "2-Bromo-4\u2032-fluoro-3\u2032-methoxyacetophenone", "2-Bromo-1-(4-fluoro-3-methoxyphenyl)ethan-1-one"], "SMILES": "C(CBr)(=O)C1=CC(OC)=C(F)C=C1", "physical_data": {"Molecular Weight": "247.06", "Molecular Formula": "C9H8BrFO2", "Melting Point": "76 \u00b0C"}}