{"cas_no": "443922-06-3", "cn_name": "2,4,6-\u4e09(4-\u919b\u57fa\u82ef\u57fa)-1,3,5-\u4e09\u55ea", "en_name": ["4,4\u2032,4\u2032\u2032-(1,3,5-Triazine-2,4,6-triyl)tris[benzaldehyde]", "Benzaldehyde, 4,4\u2032,4\u2032\u2032-(1,3,5-triazine-2,4,6-triyl)tris-", "4,4\u2032,4\u2032\u2032-(1,3,5-Triazine-2,4,6-triyl)tris[benzaldehyde]", "1,3,5-Tris(4-formylphenyl)triazine"], "SMILES": "C(=O)C1=CC=C(C=2N=C(N=C(N2)C3=CC=C(C=O)C=C3)C4=CC=C(C=O)C=C4)C=C1", "physical_data": {"Molecular Weight": "393.39", "Molecular Formula": "C24H15N3O3", "Melting Point": "&gt;300 \u00b0C"}}