{"cas_no": "4439-24-1", "cn_name": "\u4e59\u4e8c\u9187\u5355\u5f02\u4e01\u919a", "en_name": ["Ethylene glycol monoisobutyl ether", "Ethanol, 2-(2-methylpropoxy)-", "Ethanol, 2-isobutoxy-", "2-(2-Methylpropoxy)ethanol", "Ethylene glycol monoisobutyl ether", "2-Isobutoxyethanol", "Isobutyl cellosolve", "Isobutoxyethanol", "2-(2-Methylpropoxy)ethan-1-ol"], "SMILES": "C(OCCO)C(C)C", "physical_data": {"Molecular Weight": "118.17", "Molecular Formula": "C6H14O2", "Boiling Point": "160 \u00b0C"}}