{"cas_no": "4439-02-5", "cn_name": "\u80e1\u6912\u4e59\u8148", "en_name": ["1,3-Benzodioxole-5-acetonitrile", "1,3-Benzodioxole-5-acetonitrile", "Acetonitrile, [3,4-(methylenedioxy)phenyl]-", "Homopiperonylonitrile", "5-Cyanomethyl-1,3-benzodioxole", "3,4-Methylenedioxybenzyl cyanide", "[3,4-(Methylenedioxy)phenyl]acetonitrile", "Piperonylacetonitrile", "(Benzo[1,3]dioxol-5-yl)acetonitrile", "Benzodioxole-5-acetonitrile", "(Benzodioxol-5-yl)acetonitrile", "Piperonyl cyanide", "2-(Benzo[d][1,3]dioxol-5-yl)acetonitrile", "2-(3,4-Methylenedioxyphenyl)acetonitrile", "2-(1,3-Benzodioxol-5-yl)acetonitrile", "2-(2H-1,3-Benzodioxol-5-yl)acetonitrile", "2-(1,3-Dioxaindan-5-yl)acetonitrile"], "SMILES": "C(C#N)C=1C=C2C(=CC1)OCO2", "physical_data": {"Molecular Weight": "161.16", "Molecular Formula": "C9H7NO2", "Boiling Point": "160 \u00b0C @ Press: 10 Torr", "Melting Point": "49 \u00b0C"}}