{"cas_no": "444-14-4", "cn_name": "2-\u6eb4-4,6-\u4e8c\u6c1f\u82ef\u80fa", "en_name": ["2-Bromo-4,6-difluorobenzenamine", "Benzenamine, 2-bromo-4,6-difluoro-", "Aniline, 2-bromo-4,6-difluoro-", "2-Bromo-4,6-difluorobenzenamine", "2-Bromo-4,6-difluoroaniline", "6-Bromo-2,4-difluoroaniline", "NSC 93389", "2-Bromo-4,6-difluorophenylamine", "2,4-Difluoro-6-bromoaniline"], "SMILES": "NC1=C(Br)C=C(F)C=C1F", "physical_data": {"Molecular Weight": "208.00", "Molecular Formula": "C6H4BrF2N", "Melting Point": "41-42 \u00b0C"}}