{"cas_no": "444-30-4", "cn_name": "\u90bb\u4e09\u6c1f\u7532\u57fa\u82ef\u915a", "en_name": ["2-(Trifluoromethyl)phenol", "Phenol, 2-(trifluoromethyl)-", "o-Cresol, \u03b1,\u03b1,\u03b1-trifluoro-", "2-(Trifluoromethyl)phenol", "o-Hydroxybenzotrifluoride", "o-(Trifluoromethyl)phenol", "\u03b1,\u03b1,\u03b1-Trifluoro-o-cresol", "o-\u03b1,\u03b1,\u03b1-Trifluorocresol", "NSC 88333", "2-Hydroxybenzotrifluoride"], "SMILES": "C(F)(F)(F)C1=C(O)C=CC=C1", "physical_data": {"Molecular Weight": "162.11", "Molecular Formula": "C7H5F3O", "Boiling Point": "147.5 \u00b0C", "Melting Point": "45.5 \u00b0C"}}