{"cas_no": "444-27-9", "cn_name": "\u567b\u83ab\u897f\u9178", "en_name": ["4-Thiazolidinecarboxylic acid", "4-Thiazolidinecarboxylic acid", "T 4CA", "4-Carboxythiazolidine", "Thiazolidinecarboxylic acid", "Timonacic", "Hepalidine", "Heparegene", "\u03b3-Thiaproline", "Thioproline", "Thiaproline", "Heparegen", "DL-4-Thiazolidinecarboxylic acid", "(\u00b1)-4-Thiazolidinecarboxylic acid", "DL-Thiaproline", "Norgamen", "ATC", "Detoxepa", "Tiazolidin", "NSC 25855", "Norgamem", "1,3-Thiazolidine-4-carboxylic acid", "1,3-Thiazolane-4-carboxylic acid", "1,3-Thiazolidin-3-ium-4-carboxylate"], "SMILES": "C(O)(=O)C1CSCN1", "physical_data": {"Molecular Weight": "133.17", "Molecular Formula": "C4H7NO2S", "Melting Point": "196.5 \u00b0C"}}