{"cas_no": "4441-30-9", "cn_name": "3-(4-\u5417\u5549)-1-\u4e19\u9187", "en_name": ["3-Morpholino-1-propanol", "4-Morpholinepropanol", "3-Morpholinopropanol", "3-Morpholino-1-propanol", "3-(4-Morpholinyl)-1-propanol", "4-(3-Hydroxypropyl)morpholine", "N-(3-Hydroxypropyl)morpholine", "3-(Morpholin-4-yl)propanol", "3-(4-Morpholinyl)propanol", "3-(4-Morpholinyl)propan-1-ol"], "SMILES": "C(CCO)N1CCOCC1", "physical_data": {"Molecular Weight": "145.20", "Molecular Formula": "C7H15NO2", "Boiling Point": "134-136 \u00b0C @ Press: 24 Torr", "Melting Point": "110-111.5 \u00b0C", "Density": "1.0452 g/cm\u00b3 @ Temp: 25 \u00b0C"}}