{"cas_no": "4441-15-0", "cn_name": "2-\u5417\u5549\u916e", "en_name": ["2-Morpholinone", "2-Morpholinone", "Glycine, N-(2-hydroxyethyl)-, \u03b4-lactone"], "SMILES": "O=C1CNCCO1", "physical_data": {"Molecular Weight": "101.10", "Molecular Formula": "C4H7NO2", "Melting Point": "178 \u00b0C"}}