{"cas_no": "4441-56-9", "cn_name": "\u73af\u5df1\u57fa\u787c\u9178", "en_name": ["B-Cyclohexylboronic acid", "Boronic acid, B-cyclohexyl-", "Cyclohexaneboronic acid", "Boronic acid, cyclohexyl-", "B-Cyclohexylboronic acid", "Cyclohexylboronic acid", "Cyclohexylboric acid"], "SMILES": "B(O)(O)C1CCCCC1", "physical_data": {"Molecular Weight": "127.98", "Molecular Formula": "C6H13BO2", "Melting Point": "115-116 \u00b0C"}}