{"cas_no": "4441-57-0", "cn_name": "4-\u73af\u5df1\u57fa-1-\u4e01\u9187", "en_name": ["Cyclohexanebutanol", "Cyclohexanebutanol", "4-Cyclohexylbutanol", "4-Cyclohexyl-1-butanol", "NSC 44913"], "SMILES": "C(CCCO)C1CCCCC1", "physical_data": {"Molecular Weight": "156.27", "Molecular Formula": "C10H20O", "Boiling Point": "103-104 \u00b0C @ Press: 4 Torr", "Density": "0.9015 g/cm\u00b3 @ Temp: 25 \u00b0C"}}