{"cas_no": "4441-12-7", "cn_name": "\u4e09(4-\u5417\u5549\u57fa)\u6c27\u5316\u81a6", "en_name": ["Morpholine, 4,4\u2032,4\u2032\u2032-phosphinylidynetris-", "Morpholine, 4,4\u2032,4\u2032\u2032-phosphinylidynetris-", "Phosphine oxide, trimorpholino-", "Phosphoryl trimorpholide", "Phosphoric acid trimorpholide", "Phosphoric trimorpholide", "Tris(morpholino)phosphine oxide", "NSC 41250"], "SMILES": "P(=O)(N1CCOCC1)(N2CCOCC2)N3CCOCC3", "physical_data": {"Molecular Weight": "305.31", "Molecular Formula": "C12H24N3O4P", "Melting Point": "186-188 \u00b0C"}}