{"cas_no": "4441-63-8", "cn_name": "\u73af\u5df2\u70f7\u4e01\u9178", "en_name": ["Cyclohexanebutanoic acid", "Cyclohexanebutanoic acid", "Cyclohexanebutyric acid", "4-Cyclohexylbutyric acid", "4-Cyclohexylbutanoic acid", "NSC 2158", "NSC 406925"], "SMILES": "C(CCC(O)=O)C1CCCCC1", "physical_data": {"Molecular Weight": "170.25", "Molecular Formula": "C10H18O2", "Boiling Point": "132-134 \u00b0C @ Press: 3 Torr", "Melting Point": "29-30 \u00b0C", "Density": "0.9693 g/cm\u00b3 @ Temp: 38 \u00b0C"}}