{"cas_no": "4442-54-0", "cn_name": "2,3-\u4e8c\u6c22-1,4-\u82ef\u5e76\u4e8c\u70f7-6-\u7fa7\u9178", "en_name": ["2,3-Dihydro-1,4-benzodioxin-6-carboxylic acid", "1,4-Benzodioxin-6-carboxylic acid, 2,3-dihydro-", "1,4-Benzodioxan-6-carboxylic acid", "2,3-Dihydro-1,4-benzodioxin-6-carboxylic acid", "1,4-Benzodioxane-6-carboxylic acid", "3,4-Ethylenedioxybenzoic acid", "2,3-Dihydrobenzo[1,4]dioxine-6-carboxylic acid", "2,3-Dihydrobenzo[1,4]dioxin-6-carboxylic acid", "2,3-Dihydrobenzo[b][1,4]-dioxin-6-carboxylic acid", "2,3-Dihydrobenzo[b][1,4]dioxine-6-carboxylic acid", "2,3-Dihydro-1,4-benzodioxane-6-carboxylic acid"], "SMILES": "C(O)(=O)C=1C=C2C(=CC1)OCCO2", "physical_data": {"Molecular Weight": "180.16", "Molecular Formula": "C9H8O4", "Melting Point": "135-136 \u00b0C"}}