{"cas_no": "4442-79-9", "cn_name": "2-\u73af\u5df1\u57fa\u4e59\u9187", "en_name": ["Cyclohexylethanol", "Cyclohexaneethanol", "\u03b2-Cyclohexylethyl alcohol", "2-Cyclohexylethanol", "Cyclohexylethyl alcohol", "Cyclohexylethanol", "2-Cyclohexyl-1-ethanol", "NSC 30157", "2-Cyclohexaneethanol"], "SMILES": "C(CO)C1CCCCC1", "physical_data": {"Molecular Weight": "128.21", "Molecular Formula": "C8H16O", "Boiling Point": "208 \u00b0C", "Melting Point": "-20 \u00b0C", "Density": "0.9165 g/cm\u00b3 @ Temp: 25 \u00b0C"}}