{"cas_no": "4442-41-5", "cn_name": "\u4e8c\u82ef\u6c27\u57fa\u7532\u70f7", "en_name": ["Diphenoxymethane", "Benzene, 1,1\u2032-[methylenebis(oxy)]bis-", "Methane, diphenoxy-", "1,1\u2032-[Methylenebis(oxy)]bis[benzene]", "Carbon monoxide diphenyl acetal", "Carbonous acid diphenyl ester", "Phenyl carbonite", "Phenoxymethyl phenyl ether", "Diphenoxymethane"], "SMILES": "O(COC1=CC=CC=C1)C2=CC=CC=C2", "physical_data": {"Molecular Weight": "200.23", "Molecular Formula": "C13H12O2", "Boiling Point": "164-165 \u00b0C @ Press: 13 Torr", "Melting Point": "35-36 \u00b0C"}}