{"cas_no": "4442-85-7", "cn_name": "2-\u73af\u5df1\u57fa\u4e59\u80fa", "en_name": ["Cyclohexaneethanamine", "Cyclohexaneethanamine", "Cyclohexaneethylamine", "2-Cyclohexylethanamine", "2-Cyclohexylethylamine", "2-Aminoethylcyclohexane", "2-Cyclohexane-1-aminoethane", "NSC 44879", "NSC 59005", "2-Cyclohexylethan-1-amine"], "SMILES": "C(CN)C1CCCCC1", "physical_data": {"Molecular Weight": "127.23", "Molecular Formula": "C8H17N", "Boiling Point": "188-189 \u00b0C", "Melting Point": "258 \u00b0C", "Density": "0.9077 g/cm\u00b3 @ Temp: 20 \u00b0C"}}