{"cas_no": "4442-53-9", "cn_name": "2,3-\u4e8c\u6c22-1,4-\u82ef\u5e76\u4e8c\u70f7-5-\u7fa7\u9178", "en_name": ["1,4-Benzodioxan-5-carboxylic acid", "1,4-Benzodioxin-5-carboxylic acid, 2,3-dihydro-", "1,4-Benzodioxan-5-carboxylic acid", "2,3-Dihydro-1,4-benzodioxin-5-carboxylic acid", "1,4-Benzodioxane-5-carboxylic acid", "2,3-Dihydrobenzo[1,4]dioxine-5-carboxylic acid", "2,3-Dihydro-1,4-benzodioxane-5-carboxylic acid", "2,3-Dihydrobenzo[b][1,4]dioxine-5-carboxylic acid"], "SMILES": "C(O)(=O)C1=C2C(=CC=C1)OCCO2", "physical_data": {"Molecular Weight": "180.16", "Molecular Formula": "C9H8O4", "Melting Point": "195.5-196.5 \u00b0C"}}