{"cas_no": "4442-59-5", "cn_name": "2,3-\u4e8c\u6c22-1,4-\u82ef\u5e76\u4e8c\u6076-2-\u7532\u80fa", "en_name": ["2-Aminomethyl-1,4-benzodioxane", "1,4-Benzodioxin-2-methanamine, 2,3-dihydro-", "1,4-Benzodioxan-2-methylamine", "1,4-Benzodioxan, 2-(aminomethyl)-", "2,3-Dihydro-1,4-benzodioxin-2-methanamine", "Fourneau 946", "2-Aminomethyl-1,4-benzodioxane", "2-(Aminomethyl)-1,4-benzodioxan", "LP 1", "LP 1 (pharmaceutical)", "1,4-Benzodioxane-2-methylamine", "2-Aminomethyl-2,3-dihydro-1,4-benzodioxin", "[(2,3-Dihydro-1,4-benzodioxin-2-yl)methyl]amine", "NSC 116045", "N-[(2,3-Dihydrobenzo[1,4]dioxin-2-yl)methyl]amine", "[(2,3-Dihydro-1,4-benzdioxin-2-yl)methyl]amine", "(\u00b1)-2-(Aminomethyl)-1,4-benzodioxane", "(2,3-Dihydrobenzo[b][1,4]dioxin-2-yl)methanamine", "2,3-Dihydro-1,4-benzodioxin-2-ylmethanamine", "(2,3-Dihydro-1,4-benzodioxin-2-yl)methanamine", "2,3-Dihydro-1,4-benzodioxin-3-ylmethanamine"], "SMILES": "C(N)C1OC=2C(OC1)=CC=CC2", "physical_data": {"Molecular Weight": "165.19", "Molecular Formula": "C9H11NO2", "Boiling Point": "127-137 \u00b0C @ Press: 4 Torr", "Melting Point": "184-188 \u00b0C"}}