{"cas_no": "4443-09-8", "cn_name": "5,7,8-\u4e09\u7f9f\u57fa\u9ec4\u916e", "en_name": ["Norwogonin", "4H-1-Benzopyran-4-one, 5,7,8-trihydroxy-2-phenyl-", "Flavone, 5,7,8-trihydroxy-", "5,7,8-Trihydroxy-2-phenyl-4H-1-benzopyran-4-one", "Norwogonin", "5,7,8-Trihydroxyflavone", "NSC 128304"], "SMILES": "O=C1C=2C(OC(=C1)C3=CC=CC=C3)=C(O)C(O)=CC2O", "physical_data": {"Molecular Weight": "270.24", "Molecular Formula": "C15H10O5", "Melting Point": "227-228 \u00b0C"}}