{"cas_no": "4443-26-9", "cn_name": "\u03c9-\u915e\u9170\u4e9a\u80fa\u5df1\u9178", "en_name": ["1,3-Dihydro-1,3-dioxo-2H-isoindole-2-hexanoic acid", "2H-Isoindole-2-hexanoic acid, 1,3-dihydro-1,3-dioxo-", "2-Isoindolinehexanoic acid, 1,3-dioxo-", "1,3-Dihydro-1,3-dioxo-2H-isoindole-2-hexanoic acid", "Phthalimidocapronic acid", "\u03c9-Phthalimidocaproic acid", "6-Phthalimidohexanoic acid", "\u03b5-Phthalimidocaproic acid", "6-(1,3-Dioxo-1,3-dihydroisoindol-2-yl)hexanoic acid", "6-(1,3-Dioxoisoindolin-2-yl)hexanoic acid"], "SMILES": "O=C1C=2C(C(=O)N1CCCCCC(O)=O)=CC=CC2", "physical_data": {"Molecular Weight": "261.27", "Molecular Formula": "C14H15NO4", "Boiling Point": "239-240 \u00b0C @ Press: 3 Torr", "Melting Point": "107 \u00b0C"}}