{"cas_no": "4444-26-2", "cn_name": "\u516d\u6c28\u57fa\u82ef(3\u76d0\u9178\u76d0)", "en_name": ["Hexaaminobenzene", "1,2,3,4,5,6-Benzenehexamine", "Benzenehexamine", "Benzene, hexaamino-", "Hexaaminobenzene"], "SMILES": "NC1=C(N)C(N)=C(N)C(N)=C1N", "physical_data": {"Molecular Weight": "168.20", "Molecular Formula": "C6H12N6", "Melting Point": "255 \u00b0C (decomp)"}}