{"cas_no": "4444-27-3", "cn_name": "4,4',6,6'-\u56db\u7532\u57fa-2,2\u2018-\u8054\u5421\u5576", "en_name": ["4,4\u2032,6,6\u2032-Tetramethyl-2,2\u2032-bipyridine", "2,2\u2032-Bipyridine, 4,4\u2032,6,6\u2032-tetramethyl-", "6,6\u2032-Bi-2,4-lutidine", "4,4\u2032,6,6\u2032-Tetramethyl-2,2\u2032-bipyridine"], "SMILES": "CC=1C=C(N=C(C)C1)C2=CC(C)=CC(C)=N2", "physical_data": {"Molecular Weight": "212.29", "Molecular Formula": "C14H16N2", "Melting Point": "142.5-143.0 \u00b0C"}}