{"cas_no": "444579-42-4", "cn_name": "(4-\u5df1\u57fa\u567b\u5429\u57fa)\u4e09\u4e01\u57fa\u9521", "en_name": ["Tributyl(4-hexylthiophen-2-yl)stannane", "Stannane, tributyl(4-hexyl-2-thienyl)-", "Tributyl(4-hexyl-2-thienyl)stannane", "5-(Tributylstannyl)-3-hexylthiophene", "Tributyl(4-hexylthiophen-2-yl)stannane", "3-Hexyl-5-(tributylstannyl)thiophene", "2-(Tri-n-butylstannyl)-4-hexylthiophene", "Tributyl(4-hexyl-thien-2-yl)stannane", "(4-Hexyl-2-thienyl)(tributyl)stannane", "4-Hexyl-2-tributylstannylthiophene"], "SMILES": "[Sn](CCCC)(CCCC)(CCCC)C1=CC(CCCCCC)=CS1", "physical_data": {"Molecular Weight": "457.34", "Molecular Formula": "C22H42SSn", "Boiling Point": "136-138 \u00b0C @ Press: 4 Torr"}}