{"cas_no": "4445-07-2", "cn_name": "\u5341\u516b\u70f7\u57fa\u82ef", "en_name": ["Octadecylbenzene", "Benzene, octadecyl-", "Octadecane, 1-phenyl-", "Octadecylbenzene", "n-Octadecylbenzene", "NSC 41235"], "SMILES": "C(CCCCCCCCCCCCCCCCC)C1=CC=CC=C1", "physical_data": {"Molecular Weight": "330.59", "Molecular Formula": "C24H42", "Boiling Point": "408 \u00b0C", "Melting Point": "29 \u00b0C", "Density": "0.8563 g/cm\u00b3 @ Temp: 20 \u00b0C"}}