{"cas_no": "444731-74-2", "cn_name": "N-(2-\u6c2f\u5627\u5576-4-\u57fa)-2,3-\u4e8c\u7532\u57fa-2H-\u5432\u5511-6-\u80fa", "en_name": ["N-(2-Chloro-4-pyrimidinyl)-2,3-dimethyl-2H-indazol-6-amine", "2H-Indazol-6-amine, N-(2-chloro-4-pyrimidinyl)-2,3-dimethyl-", "N-(2-Chloro-4-pyrimidinyl)-2,3-dimethyl-2H-indazol-6-amine", "N-(2-Chloropyrimidin-4-yl)-2,3-dimethyl-2H-indazol-6-amine", "6-[N-(2-chloropyrimidin-4-yl)amino]-2,3-dimethyl-2H-indazole", "N-(2-Chloropyrimidin-4-yl)-2,3-Methyl-2H-indazol-6-amine"], "SMILES": "CC1=C2C(C=C(NC3=NC(Cl)=NC=C3)C=C2)=NN1C", "physical_data": {"Molecular Weight": "273.72", "Molecular Formula": "C13H12ClN5", "Melting Point": "215-216 \u00b0C"}}