{"cas_no": "444731-73-1", "cn_name": "2,3-\u4e8c\u7532\u57fa-6-\u785d\u57fa\u5432\u5511", "en_name": ["2,3-Dimethyl-6-nitro-2H-indazole", "2H-Indazole, 2,3-dimethyl-6-nitro-", "2,3-Dimethyl-6-nitro-2H-indazole", "2,3-Dimethyl-6-nitroindazole"], "SMILES": "CC1=C2C(C=C(N(=O)=O)C=C2)=NN1C", "physical_data": {"Molecular Weight": "191.19", "Molecular Formula": "C9H9N3O2", "Melting Point": "195-197 \u00b0C"}}