{"cas_no": "4447-60-3", "cn_name": "\u539f\u7532\u9178\u4e09\u5f02\u4e19\u916f", "en_name": ["2,2\u2032,2\u2032\u2032-[Methylidynetris(oxy)]tris[propane]", "Propane, 2,2\u2032,2\u2032\u2032-[methylidynetris(oxy)]tris-", "Orthoformic acid, triisopropyl ester", "2,2\u2032,2\u2032\u2032-[Methylidynetris(oxy)]tris[propane]", "Triisopropyl orthoformate", "Tri-iso-propyl orthoformate", "Tri(prop-2-yl) orthoformate", "Tri(2-propyl) orthoformate", "2-[Di(propan-2-yloxy)methoxy]propane", "2-[Bis(propan-2-yloxy)methoxy]propane"], "SMILES": "C(OC(C)C)(OC(C)C)OC(C)C", "physical_data": {"Molecular Weight": "190.28", "Molecular Formula": "C10H22O3", "Boiling Point": "167 \u00b0C", "Density": "0.8600 g/cm\u00b3 @ Temp: 25 \u00b0C"}}