{"cas_no": "4448-75-3", "cn_name": "(\u7f9f\u7532\u57fa)\u73af\u5e9a\u70f7", "en_name": ["Cycloheptanemethanol", "Cycloheptanemethanol", "Cycloheptylmethanol", "(Hydroxymethyl)cycloheptane"], "SMILES": "C(O)C1CCCCCC1", "physical_data": {"Molecular Weight": "128.21", "Molecular Formula": "C8H16O", "Boiling Point": "80-90 \u00b0C @ Press: 15 Torr", "Density": "0.9315 g/cm\u00b3 @ Temp: 20 \u00b0C"}}