{"cas_no": "4448-77-5", "cn_name": "\u73af\u5e9a\u7532\u80fa", "en_name": ["Cycloheptanemethanamine", "Cycloheptanemethanamine", "Cycloheptanemethylamine", "Cycloheptylmethylamine", "Aminomethylcycloheptane", "Cycloheptylmethanamine", "(Cycloheptanylmethyl)amine"], "SMILES": "C(N)C1CCCCCC1", "physical_data": {"Molecular Weight": "127.23", "Molecular Formula": "C8H17N", "Boiling Point": "102.5 \u00b0C @ Press: 35 Torr", "Density": "0.8893 g/cm\u00b3 @ Temp: 25 \u00b0C"}}