{"cas_no": "4449-51-8", "cn_name": "\u73af\u5df4\u80fa", "en_name": ["Cyclopamine", "Spiro[9H-benzo[a]fluorene-9,2\u2032(3\u2032H)-furo[3,2-b]pyridin]-3-ol, 1,2,3,3\u2032a,4,4\u2032,5\u2032,6,6\u2032,6a,6b,7,7\u2032,7\u2032a,8,11,11a,11b-octadecahydro-3\u2032,6\u2032,10,11b-tetramethyl-, (2\u2032R,3S,3\u2032R,3\u2032aS,6\u2032S,6aS,6bS,7\u2032aR,11aS,11bR)-", "Cyclopamine", "Veratraman-3-ol, 17,23-epoxy-, (3\u03b2,23\u03b2)-", "Jervine, 11-deoxo-", "(2\u2032R,3S,3\u2032R,3\u2032aS,6\u2032S,6aS,6bS,7\u2032aR,11aS,11bR)-1,2,3,3\u2032a,4,4\u2032,5\u2032,6,6\u2032,6a,6b,7,7\u2032,7\u2032a,8,11,11a,11b-Octadecahydro-3\u2032,6\u2032,10,11b-tetramethylspiro[9H-benzo[a]fluorene-9,2\u2032(3\u2032H)-furo[3,2-b]pyridin]-3-ol", "11-Deoxyjervine", "11-Deoxojervine", "(-)-Cyclopamine"], "SMILES": "CC=1C2(C(C)C3C(O2)CC(C)CN3)CCC4C1CC5C4CC=C6C5(C)CCC(O)C6", "physical_data": {"Molecular Weight": "411.62", "Molecular Formula": "C27H41NO2", "Melting Point": "224-227 \u00b0C"}}