{"cas_no": "4449-55-2", "cn_name": "WARANGALONE", "en_name": ["Warangalone", "2H,6H-Benzo[1,2-b:5,4-b\u2032]dipyran-6-one, 5-hydroxy-7-(4-hydroxyphenyl)-2,2-dimethyl-10-(3-methyl-2-buten-1-yl)-", "2H,6H-Benzo[1,2-b:5,4-b\u2032]dipyran-6-one, 5-hydroxy-7-(p-hydroxyphenyl)-2,2-dimethyl-10-(3-methyl-2-butenyl)-", "2H,6H-Benzo[1,2-b:5,4-b\u2032]dipyran-6-one, 5-hydroxy-7-(4-hydroxyphenyl)-2,2-dimethyl-10-(3-methyl-2-butenyl)-", "5-Hydroxy-7-(4-hydroxyphenyl)-2,2-dimethyl-10-(3-methyl-2-buten-1-yl)-2H,6H-benzo[1,2-b:5,4-b\u2032]dipyran-6-one", "Scandenolone", "Warangalone", "Scandenone", "Warangalon"], "SMILES": "OC1=C2C(=C(CC=C(C)C)C3=C1C=CC(C)(C)O3)OC=C(C2=O)C4=CC=C(O)C=C4", "physical_data": {"Molecular Weight": "404.46", "Molecular Formula": "C25H24O5", "Melting Point": "164-165 \u00b0C"}}