{"cas_no": "445-01-2", "cn_name": "5-\u6eb4-2-\u6c2f\u4e09\u6c1f\u7532\u82ef", "en_name": ["5-Bromo-2-chlorobenzotrifluoride", "Benzene, 4-bromo-1-chloro-2-(trifluoromethyl)-", "Toluene, 5-bromo-2-chloro-\u03b1,\u03b1,\u03b1-trifluoro-", "4-Bromo-1-chloro-2-(trifluoromethyl)benzene", "5-Bromo-2-chlorobenzotrifluoride", "4-Chloro-3-trifluoromethylphenyl bromide", "1-Bromo-4-chloro-3-(trifluoromethyl)benzene", "5-Bromo-2-chloro-1-trifluoromethylbenzene", "1-Bromo-4-chloro-5-(trifluoromethyl)benzene"], "SMILES": "C(F)(F)(F)C1=C(Cl)C=CC(Br)=C1", "physical_data": {"Molecular Weight": "259.45", "Molecular Formula": "C7H3BrClF3", "Boiling Point": "197-198 \u00b0C @ Press: 740 Torr", "Melting Point": "-21.9--20.5 \u00b0C"}}