{"cas_no": "445-14-7", "cn_name": "2-\u6c28\u57fa-4-\u6c2f\u4e09\u6c1f\u7532\u82ef", "en_name": ["5-Chloro-2-(trifluoromethyl)benzenamine", "Benzenamine, 5-chloro-2-(trifluoromethyl)-", "o-Toluidine, 5-chloro-\u03b1,\u03b1,\u03b1-trifluoro-", "5-Chloro-2-(trifluoromethyl)benzenamine", "5-Chloro-\u03b1,\u03b1,\u03b1-trifluoro-o-toluidine", "2-(Trifluoromethyl)-5-chloroaniline", "5-Chloro-2-trifluoromethylaniline", "2-Amino-4-chlorobenzotrifluoride"], "SMILES": "C(F)(F)(F)C1=C(N)C=C(Cl)C=C1", "physical_data": {"Molecular Weight": "195.57", "Molecular Formula": "C7H5ClF3N", "Boiling Point": "82-84 \u00b0C"}}