{"cas_no": "445-26-1", "cn_name": "1-(2-\u6c1f\u82ef\u57fa)-1-\u4e59\u9187", "en_name": ["2-Fluoro-\u03b1-methylbenzenemethanol", "Benzenemethanol, 2-fluoro-\u03b1-methyl-", "Benzyl alcohol, o-fluoro-\u03b1-methyl-", "2-Fluoro-\u03b1-methylbenzenemethanol", "1-(2-Fluorophenyl)ethanol", "(\u00b1)-1-(o-Fluorophenyl)ethanol", "1-(2-Fluorophenyl)-1-ethanol", "1-(2\u2032-Fluorophenyl)ethanol"], "SMILES": "C(C)(O)C1=C(F)C=CC=C1", "physical_data": {"Molecular Weight": "140.15", "Molecular Formula": "C8H9FO", "Boiling Point": "117-118 \u00b0C @ Press: 45 Torr", "Density": "1.123 g/cm\u00b3 @ Temp: 20 \u00b0C"}}