{"cas_no": "445-29-4", "cn_name": "\u90bb\u6c1f\u82ef\u7532\u9178", "en_name": ["2-Fluorobenzoic acid", "Benzoic acid, 2-fluoro-", "Benzoic acid, o-fluoro-", "2-Fluorobenzoic acid", "o-Fluorobenzoic acid", "NSC 10319"], "SMILES": "C(O)(=O)C1=C(F)C=CC=C1", "physical_data": {"Molecular Weight": "140.11", "Molecular Formula": "C7H5FO2", "Boiling Point": "114 \u00b0C", "Melting Point": "126.5 \u00b0C"}}