{"cas_no": "445-02-3", "cn_name": "2-\u6c28\u57fa-5-\u6eb4\u4e09\u6c1f\u7532\u82ef", "en_name": ["4-Bromo-2-(trifluoromethyl)aniline", "Benzenamine, 4-bromo-2-(trifluoromethyl)-", "o-Toluidine, 4-bromo-\u03b1,\u03b1,\u03b1-trifluoro-", "4-Bromo-2-(trifluoromethyl)benzenamine", "4-Bromo-2-(trifluoromethyl)aniline", "2-Amino-5-bromobenzotrifluoride", "2-(Trifluoromethyl)-4-bromoaniline", "4-Bromo-2-trifluoromethylphenylamine", "NSC 88311"], "SMILES": "C(F)(F)(F)C1=C(N)C=CC(Br)=C1", "physical_data": {"Molecular Weight": "240.02", "Molecular Formula": "C7H5BrF3N", "Boiling Point": "60.7-62.0 \u00b0C @ Press: 1 Torr"}}