{"cas_no": "445-13-6", "cn_name": "4-\u6c28\u57fa-2-\u6c2f\u4e09\u6c1f\u7532\u82ef", "en_name": ["3-Chloro-4-trifluoromethylaniline", "Benzenamine, 3-chloro-4-(trifluoromethyl)-", "p-Toluidine, 3-chloro-\u03b1,\u03b1,\u03b1-trifluoro-", "3-Chloro-4-(trifluoromethyl)benzenamine", "4-Amino-2-chlorobenzotrifluoride", "3-Chloro-4-trifluoromethylaniline", "(3-Chloro-4-trifluoromethylphenyl)amine", "3-Chloro-4-trifluoromethylbenzenamine"], "SMILES": "C(F)(F)(F)C1=C(Cl)C=C(N)C=C1", "physical_data": {"Molecular Weight": "195.57", "Molecular Formula": "C7H5ClF3N", "Boiling Point": "112-115 \u00b0C"}}