{"cas_no": "445-28-3", "cn_name": "2-\u6c1f\u82ef\u7532\u9170\u80fa", "en_name": ["2-Fluorobenzamide", "Benzamide, 2-fluoro-", "Benzamide, o-fluoro-", "2-Fluorobenzamide", "o-Fluorobenzamide", "o-Fluorobenzoic acid amide", "2-Carbamoyl-1-fluorobenzene"], "SMILES": "C(N)(=O)C1=C(F)C=CC=C1", "physical_data": {"Molecular Weight": "139.13", "Molecular Formula": "C7H6FNO", "Melting Point": "118 \u00b0C"}}