{"cas_no": "445-03-4", "cn_name": "2-\u6c28\u57fa-5-\u6c2f\u4e09\u6c1f\u7532\u82ef", "en_name": ["2-Trifluoromethyl-4-chloroaniline", "Benzenamine, 4-chloro-2-(trifluoromethyl)-", "o-Toluidine, 4-chloro-\u03b1,\u03b1,\u03b1-trifluoro-", "4-Chloro-2-(trifluoromethyl)benzenamine", "C.I. 37055", "C.I. Azoic Diazo Component 17", "Diazo Fast Scarlet VD", "Fast Scarlet Salt VD", "Fast Scarlet VD Salt", "Scarlet Salt NVD", "1-Amino-4-chloro-2-trifluoromethylbenzene", "4-Chloro-2-(trifluoromethyl)aniline", "4-Chloro-\u03b1,\u03b1,\u03b1-trifluoro-o-toluidine", "2-Amino-5-chlorobenzotrifluoride", "2-Trifluoromethyl-4-chloroaniline", "5-Chloro-2-aminotrifluorotoluene"], "SMILES": "C(F)(F)(F)C1=C(N)C=CC(Cl)=C1", "physical_data": {"Molecular Weight": "195.57", "Molecular Formula": "C7H5ClF3N", "Boiling Point": "76-77 \u00b0C @ Press: 4-5 Torr"}}