{"cas_no": "4453-90-1", "cn_name": "1,4-\u4e8c\u6c22-1,4-\u7532\u6865\u8418", "en_name": ["1,4-Dihydro-1,4-methanonaphthalene", "1,4-Methanonaphthalene, 1,4-dihydro-", "1,4-Dihydro-1,4-methanonaphthalene", "Benzonorbornadiene", "NSC 120540"], "SMILES": "C1=2C(C3CC1C=C3)=CC=CC2", "physical_data": {"Molecular Weight": "142.20", "Molecular Formula": "C11H10", "Boiling Point": "82.5-83.0 \u00b0C @ Press: 12 Torr"}}