{"cas_no": "4453-82-1", "cn_name": "\u4e8c\u73af\u5df1\u57fa\u7532\u9187", "en_name": ["Dicyclohexylmethanol", "Cyclohexanemethanol, \u03b1-cyclohexyl-", "Methanol, dicyclohexyl-", "\u03b1-Cyclohexylcyclohexanemethanol", "Dodecahydrobenzhydrol", "Dicyclohexylmethanol", "Dicyclohexylcarbinol", "NSC 60010"], "SMILES": "C(O)(C1CCCCC1)C2CCCCC2", "physical_data": {"Molecular Weight": "196.33", "Molecular Formula": "C13H24O", "Boiling Point": "158-161 \u00b0C @ Press: 14 Torr", "Melting Point": "63 \u00b0C", "Density": "1.070 g/cm\u00b3 @ Temp: 22 \u00b0C"}}