{"cas_no": "4454-05-1", "cn_name": "3,4-\u4e8c\u6c22-2-\u7532\u57fa-\u5421\u5583", "en_name": ["3,4-Dihydro-2-methoxy-2H-pyran", "2H-Pyran, 3,4-dihydro-2-methoxy-", "3,4-Dihydro-2-methoxy-2H-pyran", "2,3-Dihydro-2-methoxy-4H-pyran", "2-Methoxy-3,4-dihydro-2H-pyran", "2-Methoxy-2,3-dihydro-4H-pyran", "2-Methoxy-3,4-dihydropyran", "3,4-Dihydro-2-methoxypyran", "NSC 44974", "2H-2-Methoxy-3,4-dihydropyran"], "SMILES": "O(C)C1CCC=CO1", "physical_data": {"Molecular Weight": "114.14", "Molecular Formula": "C6H10O2", "Boiling Point": "136-138 \u00b0C", "Density": "1.0013 g/cm\u00b3 @ Temp: 20 \u00b0C"}}