{"cas_no": "4455-26-9", "cn_name": "\u4e8c\u8f9b\u57fa\u7532\u80fa", "en_name": ["N-Methyl-N-octyl-1-octanamine", "1-Octanamine, N-methyl-N-octyl-", "Dioctylamine, N-methyl-", "N-Methyl-N-octyl-1-octanamine", "Methyldioctylamine", "N-Methyldioctylamine", "Dioctylmethylamine", "Di-n-octylmethylamine", "N,N-Dioctyl-N-methylamine", "N-Methyl-N-octyloctan-1-amine", "N,N-Dioctylmethylamine", "N-Methyl-N,N-dioctylamine"], "SMILES": "N(CCCCCCCC)(CCCCCCCC)C", "physical_data": {"Molecular Weight": "255.48", "Molecular Formula": "C17H37N", "Boiling Point": "136-138 \u00b0C", "Melting Point": "-30.1 \u00b0C", "Density": "0.8006 g/cm\u00b3 @ Temp: 20 \u00b0C"}}