{"cas_no": "4455-15-6", "cn_name": "\u7532\u70f7\u78fa\u9170\u57fa\u4e59\u9178\u4e59\u916f", "en_name": ["Acetic acid, 2-(methylsulfonyl)-, ethyl ester", "Acetic acid, 2-(methylsulfonyl)-, ethyl ester", "Acetic acid, (methylsulfonyl)-, ethyl ester", "Ethyl (methylsulfonyl)acetate", "(Methylsulfonyl)acetic acid ethyl ester", "Ethyl 2-methylsulfonylacetate", "Ethyl methanesulfonylacetate", "NSC 227886", "Ethyl 2-(methanesulfonyl)acetate"], "SMILES": "C(CS(C)(=O)=O)(OCC)=O", "physical_data": {"Molecular Weight": "166.20", "Molecular Formula": "C5H10O4S", "Boiling Point": "122 \u00b0C @ Press: 0.8 Torr"}}