{"cas_no": "4455-77-0", "cn_name": "(\u7532\u6c27\u57fa\u7532\u57fa)\u4e8c\u82ef\u57fa\u6c27\u5316\u81a6", "en_name": ["(Methoxymethyl)diphenylphosphine oxide", "Phosphine oxide, (methoxymethyl)diphenyl-", "(Methoxymethyl)diphenylphosphine oxide", "Diphenyl(methoxymethyl)phosphine oxide", "[Methoxymethyl(phenyl)phosphoryl]benzene"], "SMILES": "P(COC)(=O)(C1=CC=CC=C1)C2=CC=CC=C2", "physical_data": {"Molecular Weight": "246.24", "Molecular Formula": "C14H15O2P", "Melting Point": "113.5-114 \u00b0C"}}