{"cas_no": "4455-13-4", "cn_name": "(\u7532\u786b\u57fa)\u4e59\u9178\u4e59\u916f", "en_name": ["Ethyl (methylthio)acetate", "Acetic acid, 2-(methylthio)-, ethyl ester", "Acetic acid, (methylthio)-, ethyl ester", "Ethyl (methylthio)acetate", "Ethyl 2-methylthioacetate", "NSC 165655", "(Methylsulfanyl)acetic acid ethyl ester", "(Methylthio)acetic acid ethyl ester", "Ethyl 2-(methylsulfanyl)acetate", "Ethyl methylmercapto-acetate"], "SMILES": "C(CSC)(OCC)=O", "physical_data": {"Molecular Weight": "134.20", "Molecular Formula": "C5H10O2S", "Boiling Point": "62 \u00b0C @ Press: 13 Torr"}}