{"cas_no": "4457-32-3", "cn_name": "\u6c2f\u7532\u9178\u5bf9\u785d\u57fa\u82c4\u916f", "en_name": ["4-Nitrobenzyl chloroformate", "Carbonochloridic acid, (4-nitrophenyl)methyl ester", "Formic acid, chloro-, p-nitrobenzyl ester", "p-Nitrobenzyl chloroformate", "p-Nitrocarbobenzoxy chloride", "p-Nitrobenzyloxycarbonyl chloride", "4-Nitrobenzyl chloroformate", "4-Nitrobenzyloxycarbonyl chloride", "(4-Nitrophenyl)methyl chloroformate", "(4-Nitrophenyl)methyl carbonochloridate"], "SMILES": "N(=O)(=O)C1=CC=C(COC(Cl)=O)C=C1", "physical_data": {"Molecular Weight": "215.59", "Molecular Formula": "C8H6ClNO4", "Melting Point": "33.5-34 \u00b0C"}}