{"cas_no": "4457-71-0", "cn_name": "3-\u7532\u57fa-1,5-\u620a\u4e8c\u9187", "en_name": ["3-Methyl-1,5-pentanediol", "1,5-Pentanediol, 3-methyl-", "3-Methyl-1,5-pentanediol", "1,5-Dihydroxy-3-methylpentane", "MPD", "Diol MPD", "NSC 6496"], "SMILES": "C(CCO)(CCO)C", "physical_data": {"Molecular Weight": "118.17", "Molecular Formula": "C6H14O2", "Boiling Point": "84-95 \u00b0C @ Press: 0.7 Torr", "Melting Point": "106-107 \u00b0C", "Density": "0.9738 g/cm\u00b3 @ Temp: 20 \u00b0C"}}