{"cas_no": "4457-72-1", "cn_name": "1,5-\u4e8c\u6eb4-3-\u7532\u57fa\u620a\u70f7", "en_name": ["1,5-Dibromo-3-methylpentane", "Pentane, 1,5-dibromo-3-methyl-", "1,5-Dibromo-3-methylpentane", "3-Methyl-1,5-dibromopentane", "NSC 27967"], "SMILES": "C(CCBr)(CCBr)C", "physical_data": {"Molecular Weight": "243.97", "Molecular Formula": "C6H12Br2", "Boiling Point": "97.0-98.5 \u00b0C @ Press: 10 Torr", "Density": "1.607 g/cm\u00b3 @ Temp: 20 \u00b0C"}}