{"cas_no": "4458-31-5", "cn_name": "N,N-\u4e8c\u4e59\u57fa-1-\u4e19\u80fa", "en_name": ["Diethylpropylamine", "1-Propanamine, N,N-diethyl-", "Propylamine, N,N-diethyl-", "N,N-Diethyl-1-propanamine", "Ethanamine, N-ethyl-N-propyl-", "Diethylpropylamine", "N,N-Diethylpropylamine", "Diethylammonium propane", "NSC 1097"], "SMILES": "N(CCC)(CC)CC", "physical_data": {"Molecular Weight": "115.22", "Molecular Formula": "C7H17N", "Boiling Point": "111.9-112.2 \u00b0C", "Density": "0.742 g/cm\u00b3 @ Temp: 20 \u00b0C"}}