{"cas_no": "446-35-5", "cn_name": "2,4-\u4e8c\u6c1f\u785d\u57fa\u82ef", "en_name": ["2,4-Difluoronitrobenzene", "Benzene, 2,4-difluoro-1-nitro-", "2,4-Difluoro-1-nitrobenzene", "1,3-Difluoro-4-nitrobenzene", "2,4-Difluoronitrobenzene", "1-Nitro-2,4-difluorobenzene", "NSC 10259", "1,5-Difluoro-2-nitrobenzene"], "SMILES": "N(=O)(=O)C1=C(F)C=C(F)C=C1", "physical_data": {"Molecular Weight": "159.09", "Molecular Formula": "C6H3F2NO2", "Boiling Point": "207 \u00b0C", "Melting Point": "9.8 \u00b0C"}}