{"cas_no": "446-86-6", "cn_name": "\u786b\u5511\u560c\u5464", "en_name": ["Azathioprine", "9H-Purine, 6-[(1-methyl-4-nitro-1H-imidazol-5-yl)thio]-", "Purine, 6-[(1-methyl-4-nitroimidazol-5-yl)thio]-", "1H-Purine, 6-[(1-methyl-4-nitro-1H-imidazol-5-yl)thio]-", "6-[(1-Methyl-4-nitro-1H-imidazol-5-yl)thio]-9H-purine", "NSC 39084", "Azathioprine", "Azothioprine", "Imuran", "6-(1-Methyl-4-nitroimidazol-5-yl)thiopurine", "6-(1-Methyl-4-nitromidazol-5-ylthio)purine", "Muran", "BW 57-322", "Imurel", "Imurek", "Azathioprin", "Azanin", "Azoran", "Azamune", "Azathropine", "Azafor", "Azasan", "MeSH ID: D001379"], "SMILES": "S(C1=C2C(N=CN2)=NC=N1)C3=C(N(=O)=O)N=CN3C", "physical_data": {"Molecular Weight": "277.26", "Molecular Formula": "C9H7N7O2S", "Melting Point": "243.5 \u00b0C"}}