{"cas_no": "446-09-3", "cn_name": "2-\u6eb4-5-\u6c1f\u785d\u57fa\u82ef", "en_name": ["1-Bromo-4-fluoro-2-nitrobenzene", "Benzene, 1-bromo-4-fluoro-2-nitro-", "1-Bromo-4-fluoro-2-nitrobenzene", "2-Bromo-5-fluoronitrobenzene", "1-Bromo-2-nitro-4-fluorobenzene"], "SMILES": "N(=O)(=O)C1=C(Br)C=CC(F)=C1", "physical_data": {"Molecular Weight": "220.00", "Molecular Formula": "C6H3BrFNO2", "Melting Point": "39.5-40.0 \u00b0C"}}