{"cas_no": "446-10-6", "cn_name": "4-\u6c1f-2-\u785d\u57fa\u7532\u82ef", "en_name": ["4-Fluoro-1-methyl-2-nitrobenzene", "Benzene, 4-fluoro-1-methyl-2-nitro-", "Toluene, 4-fluoro-2-nitro-", "4-Fluoro-1-methyl-2-nitrobenzene", "4-Fluoro-2-nitrotoluene", "1-Fluoro-4-methyl-3-nitrobenzene", "2-Nitro-4-fluorotoluene", "2-Methyl-5-fluoronitrobenzene", "NSC 60725"], "SMILES": "N(=O)(=O)C1=C(C)C=CC(F)=C1", "physical_data": {"Molecular Weight": "155.13", "Molecular Formula": "C7H6FNO2", "Boiling Point": "213 \u00b0C", "Melting Point": "27 \u00b0C", "Density": "1.359 g/cm\u00b3 @ Temp: 20 \u00b0C"}}