{"cas_no": "446-52-6", "cn_name": "2-\u6c1f\u82ef\u7532\u919b", "en_name": ["2-Fluorobenzaldehyde", "Benzaldehyde, 2-fluoro-", "Benzaldehyde, o-fluoro-", "2-Fluorobenzaldehyde", "o-Fluorobenzaldehyde", "NSC 66829"], "SMILES": "C(=O)C1=C(F)C=CC=C1", "physical_data": {"Molecular Weight": "124.11", "Molecular Formula": "C7H5FO", "Boiling Point": "175 \u00b0C", "Melting Point": "-44.5 \u00b0C"}}