{"cas_no": "446-71-9", "cn_name": "\u9ad8\u5723\u8349\u915a", "en_name": ["Homoeriodictyol", "4H-1-Benzopyran-4-one, 2,3-dihydro-5,7-dihydroxy-2-(4-hydroxy-3-methoxyphenyl)-, (2S)-", "Flavanone, 4\u2032,5,7-trihydroxy-3\u2032-methoxy-", "4H-1-Benzopyran-4-one, 2,3-dihydro-5,7-dihydroxy-2-(4-hydroxy-3-methoxyphenyl)-, (S)-", "(2S)-2,3-Dihydro-5,7-dihydroxy-2-(4-hydroxy-3-methoxyphenyl)-4H-1-benzopyran-4-one", "Eriodictyonone", "Homoeriodictyol", "4\u2032,5,7-Trihydroxy-3\u2032-methoxyflavanone", "Eriodictyol 3\u2032-methyl ether", "5,7,4\u2032-Trihydroxy-3\u2032-methoxyflavanone", "(S)-Homoeriodictyol", "Hersperetin", "(-)-Homoeriodictyol"], "SMILES": "O=C1C=2C(OC(C1)C3=CC(OC)=C(O)C=C3)=CC(O)=CC2O", "physical_data": {"Molecular Weight": "302.28", "Molecular Formula": "C16H14O6", "Melting Point": "223 \u00b0C"}}