{"cas_no": "446-51-5", "cn_name": "2-\u6c1f\u82c4\u9187", "en_name": ["2-Fluorobenzyl alcohol", "Benzenemethanol, 2-fluoro-", "Benzyl alcohol, o-fluoro-", "2-Fluorobenzenemethanol", "2-Fluorobenzyl alcohol", "o-Fluorobenzyl alcohol", "(2-Fluorophenyl)methanol", "NSC 158274"], "SMILES": "C(O)C1=C(F)C=CC=C1", "physical_data": {"Molecular Weight": "126.13", "Molecular Formula": "C7H7FO", "Boiling Point": "82 \u00b0C @ Press: 10 Torr", "Melting Point": "91-94 \u00b0C"}}