{"cas_no": "446-32-2", "cn_name": "2-\u6c28\u57fa-4-\u6c1f\u82ef\u7532\u9178", "en_name": ["2-Amino-4-fluorobenzoic acid", "Benzoic acid, 2-amino-4-fluoro-", "Anthranilic acid, 4-fluoro-", "2-Amino-4-fluorobenzoic acid", "4-Fluoroanthranilic acid", "4-Fluoro-2-aminobenzoic acid"], "SMILES": "C(O)(=O)C1=C(N)C=C(F)C=C1", "physical_data": {"Molecular Weight": "155.13", "Molecular Formula": "C7H6FNO2", "Melting Point": "192.5-193 \u00b0C"}}