{"cas_no": "446-30-0", "cn_name": "4-\u6c2f-2-\u6c1f\u82ef\u7532\u9178", "en_name": ["4-Chloro-2-fluorobenzoic acid", "Benzoic acid, 4-chloro-2-fluoro-", "4-Chloro-2-fluorobenzoic acid", "NSC 190363", "2-Fluoro-4-chlorobenzoic acid"], "SMILES": "C(O)(=O)C1=C(F)C=C(Cl)C=C1", "physical_data": {"Molecular Weight": "174.56", "Molecular Formula": "C7H4ClFO2", "Melting Point": "205 \u00b0C"}}