{"cas_no": "446-17-3", "cn_name": "2,4,5-\u4e09\u6c1f\u82ef\u7532\u9178", "en_name": ["2,4,5-Trifluorobenzoic acid", "Benzoic acid, 2,4,5-trifluoro-", "2,4,5-Trifluorobenzoic acid"], "SMILES": "C(O)(=O)C1=C(F)C=C(F)C(F)=C1", "physical_data": {"Molecular Weight": "176.09", "Molecular Formula": "C7H3F3O2", "Melting Point": "100 \u00b0C"}}