{"cas_no": "446-49-1", "cn_name": "1-\u4e59\u57fa-2-\u6c1f\u82ef", "en_name": ["1-Ethyl-2-fluorobenzene", "Benzene, 1-ethyl-2-fluoro-", "1-Ethyl-2-fluorobenzene", "2-Ethylfluorobenzene"], "SMILES": "C(C)C1=C(F)C=CC=C1", "physical_data": {"Molecular Weight": "124.16", "Molecular Formula": "C8H9F", "Boiling Point": "136-137 \u00b0C", "Density": "0.983 g/cm\u00b3 @ Temp: 20 \u00b0C"}}