{"cas_no": "446-36-6", "cn_name": "5-\u6c1f-2-\u785d\u57fa\u82ef\u915a", "en_name": ["5-Fluoro-2-nitrophenol", "Phenol, 5-fluoro-2-nitro-", "5-Fluoro-2-nitrophenol", "3-Fluoro-6-nitrophenol", "2-Nitro-5-fluorophenol", "4-Fluoro-2-hydroxynitrobenzene", "NSC 10284", "4-Fluoro-2-hydroxy-1-nitrobenzene"], "SMILES": "N(=O)(=O)C1=C(O)C=C(F)C=C1", "physical_data": {"Molecular Weight": "157.10", "Molecular Formula": "C6H4FNO3", "Melting Point": "36 \u00b0C"}}