{"cas_no": "446-48-0", "cn_name": "2-\u6c1f\u6eb4\u82c4", "en_name": ["2-Fluorobenzyl bromide", "Benzene, 1-(bromomethyl)-2-fluoro-", "Toluene, \u03b1-bromo-o-fluoro-", "1-(Bromomethyl)-2-fluorobenzene", "\u03b1-Bromo-2-fluorotoluene", "2-Fluorobenzyl bromide", "o-Fluorobenzyl bromide", "2-(Bromomethyl)fluorobenzene", "1-Fluoro-2-(bromomethyl)benzene"], "SMILES": "C(Br)C1=C(F)C=CC=C1", "physical_data": {"Molecular Weight": "189.02", "Molecular Formula": "C7H6BrF", "Boiling Point": "84-85 \u00b0C @ Press: 16 Torr"}}