{"cas_no": "446-72-0", "cn_name": "\u91d1\u96c0\u5f02\u9ec4\u916e", "en_name": ["Genistein", "4H-1-Benzopyran-4-one, 5,7-dihydroxy-3-(4-hydroxyphenyl)-", "Genistein", "Isoflavone, 4\u2032,5,7-trihydroxy-", "5,7-Dihydroxy-3-(4-hydroxyphenyl)-4H-1-benzopyran-4-one", "C.I. 75610", "Genisteol", "Prunetol", "Sophoricol", "4\u2032,5,7-Trihydroxyisoflavone", "Genisterin", "5,7,4\u2032-Trihydroxyisoflavone", "NPI 031L", "Baichanin A", "SIPI 807-1", "NSC 36586", "Bonistein", "FW 635I-2", "GeniVida", "Climagen F", "5,7-Dihydroxy-3-(4-hydroxyphenyl)-4H-chromen-4-one", "Genistin aglycone", "CSU-1999", "CSU 1999", "BIO 300", "MeSH ID: D019833"], "SMILES": "O=C1C=2C(OC=C1C3=CC=C(O)C=C3)=CC(O)=CC2O", "physical_data": {"Molecular Weight": "270.24", "Molecular Formula": "C15H10O5", "Melting Point": "301.5 \u00b0C (decomp)"}}