{"cas_no": "446-33-3", "cn_name": "5-\u6c1f-2-\u785d\u57fa\u7532\u82ef", "en_name": ["4-Fluoro-2-methyl-1-nitrobenzene", "Benzene, 4-fluoro-2-methyl-1-nitro-", "Toluene, 5-fluoro-2-nitro-", "4-Fluoro-2-methyl-1-nitrobenzene", "5-Fluoro-2-nitrotoluene", "2-Methyl-4-fluoronitrobenzene", "3-Fluoro-6-nitrotoluene", "3-Methyl-4-nitrofluorobenzene", "4-Fluoro-2-methylnitrobenzene", "NSC 10334", "1-Fluoro-3-methyl-4-nitrobenzene"], "SMILES": "N(=O)(=O)C1=C(C)C=C(F)C=C1", "physical_data": {"Molecular Weight": "155.13", "Molecular Formula": "C7H6FNO2", "Boiling Point": "50-60 \u00b0C @ Press: 11 Torr", "Melting Point": "28 \u00b0C"}}