{"cas_no": "446-08-2", "cn_name": "2-\u6c28\u57fa-5-\u6c1f\u82ef\u7532\u9178", "en_name": ["2-Amino-5-fluorobenzoic acid", "Benzoic acid, 2-amino-5-fluoro-", "Anthranilic acid, 5-fluoro-", "2-Amino-5-fluorobenzoic acid", "5-Fluoroanthranilic acid", "5-Fluoro-2-aminobenzoic acid", "NSC 513308", "2-Amino-5-(fluoromethyl)benzoic acid"], "SMILES": "C(O)(=O)C1=C(N)C=CC(F)=C1", "physical_data": {"Molecular Weight": "155.13", "Molecular Formula": "C7H6FNO2", "Melting Point": "180 \u00b0C"}}