{"cas_no": "446-65-1", "cn_name": "2,2,2-\u4e09\u6c1f-1-(\u5bf9\u7532\u82ef\u57fa)\u4e59\u9187", "en_name": ["4-Methyl-\u03b1-(trifluoromethyl)benzenemethanol", "Benzenemethanol, 4-methyl-\u03b1-(trifluoromethyl)-", "Benzyl alcohol, p-methyl-\u03b1-(trifluoromethyl)-", "4-Methyl-\u03b1-(trifluoromethyl)benzenemethanol", "p-Methyl-\u03b1-(trifluoromethyl)benzyl alcohol", "4-Methyl-\u03b1-(trifluoromethyl)benzyl alcohol", "NSC 405748", "1-(4-Methylphenyl)-2,2,2-trifluoroethanol", "4-(2,2,2-Trifluoro-1-hydroxyethyl)toluene", "2,2,2-Trifluoro-1-(4-methylphenyl)ethanol", "2,2,2-Trifluoro-1-p-tolyl-ethanol", "2,2,2-Trifluoro-1-(p-tolyl)ethanol", "2,2,2-Trifluoro-1-(4-methylphenyl)ethan-1-ol", "1-(4-Methylphenyl)-2,2,2-trifluoroethan-1-ol"], "SMILES": "C(C(F)(F)F)(O)C1=CC=C(C)C=C1", "physical_data": {"Molecular Weight": "190.16", "Molecular Formula": "C9H9F3O", "Boiling Point": "74.5-75.0 \u00b0C @ Press: 2.5 Torr"}}