{"cas_no": "446-34-4", "cn_name": "3-\u6c1f-4-\u785d\u57fa\u7532\u82ef", "en_name": ["2-Fluoro-4-methyl-1-nitrobenzene", "Benzene, 2-fluoro-4-methyl-1-nitro-", "Toluene, 3-fluoro-4-nitro-", "2-Fluoro-4-methyl-1-nitrobenzene", "3-Fluoro-4-nitrotoluene", "5-Methyl-2-nitrofluorobenzene", "2-Fluoro-4-methylnitrobenzene", "NSC 25756", "m-Fluoro-p-nitrotoluene", "4-Methyl-2-fluoro-1-nitrobenzene"], "SMILES": "N(=O)(=O)C1=C(F)C=C(C)C=C1", "physical_data": {"Molecular Weight": "155.13", "Molecular Formula": "C7H6FNO2", "Melting Point": "53.2 \u00b0C", "Density": "1.438 g/cm\u00b3 @ Temp: 25 \u00b0C"}}