{"cas_no": "4460-86-0", "cn_name": "2,4,5-\u4e09\u7532\u6c27\u57fa\u82ef\u7532\u919b", "en_name": ["2,4,5-Trimethoxybenzaldehyde", "Benzaldehyde, 2,4,5-trimethoxy-", "2,4,5-Trimethoxybenzaldehyde", "Asaronaldehyde", "Asaraldehyde", "3,4,6-Trimethoxybenzaldehyde", "Gazarin", "Asarylaldehyde", "NSC 89299", "2,4,5-Trimethoxylbenzaldehyde"], "SMILES": "C(=O)C1=C(OC)C=C(OC)C(OC)=C1", "physical_data": {"Molecular Weight": "196.20", "Molecular Formula": "C10H12O4", "Boiling Point": "143 \u00b0C @ Press: 6 Torr", "Melting Point": "114 \u00b0C", "Density": "1.093 g/cm\u00b3 @ Temp: 16.5 \u00b0C"}}