{"cas_no": "4461-29-4", "cn_name": "2-\u567b\u5429\u4e59\u9170\u80fa", "en_name": ["2-Thiopheneacetamide", "2-Thiopheneacetamide", "2-Thienylacetamide", "2-(Thiophen-2-yl)acetamide"], "SMILES": "C(C(N)=O)C1=CC=CS1", "physical_data": {"Molecular Weight": "141.19", "Molecular Formula": "C6H7NOS", "Melting Point": "146-147 \u00b0C"}}