{"cas_no": "4461-48-7", "cn_name": "\u987a\u5f0f-4-\u7532\u57fa-2-\u620a\u70ef", "en_name": ["4-Methyl-2-pentene", "2-Pentene, 4-methyl-", "4-Methyl-2-pentene", "2-Methyl-3-pentene", "1,1-Dimethyl-2-butene", "NSC 19873"], "SMILES": "C(C(C)C)=CC", "physical_data": {"Molecular Weight": "84.16", "Molecular Formula": "C6H12", "Boiling Point": "59 \u00b0C", "Melting Point": "-120 \u00b0C", "Density": "0.6709 g/cm\u00b3 @ Temp: 20 \u00b0C"}}