{"cas_no": "4461-39-6", "cn_name": "N-(2-\u7f9f\u4e59\u57fa)-1,3-\u4e19\u4e8c\u80fa", "en_name": ["N-(2-Hydroxyethyl)-1,3-propanediamine", "Ethanol, 2-[(3-aminopropyl)amino]-", "2-[(3-Aminopropyl)amino]ethanol", "N-(2-Hydroxyethyl)trimethylenediamine", "N-(Hydroxyethyl)propane-1,3-diamine", "N-(2-Hydroxyethyl)-1,3-propanediamine", "1,3-Diamino-N-(2-hydroxyethyl)propane", "1,3-Diamino-N-(hydroxyethyl)propane", "N-(2-Hydroxyethyl)-1,3-diaminopropane", "N-(\u03b2-Hydroxyethyl)-1,3-diaminopropane", "N-(Aminopropyl)ethanolamine", "3-(Hydroxyethylamino)propanamine", "Koei 3311", "3-(2-Hydroxyethylamino)propylamine", "N-(3-Aminopropyl)-2-aminoethanol", "2-[(3-Aminopropyl)amino]ethan-1-ol"], "SMILES": "C(NCCO)CCN", "physical_data": {"Molecular Weight": "118.18", "Molecular Formula": "C5H14N2O", "Boiling Point": "92-94 \u00b0C @ Press: 0.3 Torr", "Melting Point": "5.532 \u00b0C"}}