{"cas_no": "4461-33-0", "cn_name": "\u82ef\u7532\u9170\u5f02\u6c30\u9178\u8102", "en_name": ["Benzoyl isocyanate", "Benzoyl isocyanate", "Benzoic acid, anhydride with isocyanic acid", "Benzoic acid, anhydride with HNCO", "Isocyanic acid, anhydride with benzoic acid", "NSC 246191"], "SMILES": "C(N=C=O)(=O)C1=CC=CC=C1", "physical_data": {"Molecular Weight": "147.13", "Molecular Formula": "C8H5NO2", "Boiling Point": "82-84 \u00b0C @ Press: 10 Torr"}}