{"cas_no": "4461-30-7", "cn_name": "\u6c2f\u4e59\u9170\u5f02\u6c30\u9178\u916f", "en_name": ["Chloroacetyl isocyanate", "Acetyl isocyanate, 2-chloro-", "Acetic acid, chloro-, anhydride with isocyanic acid", "Acetyl isocyanate, chloro-", "Isocyanic acid, anhydride with chloroacetic acid", "2-Chloroacetyl isocyanate", "Chloroacetyl isocyanate"], "SMILES": "C(N=C=O)(CCl)=O", "physical_data": {"Molecular Weight": "119.51", "Molecular Formula": "C3H2ClNO2", "Boiling Point": "52.5 \u00b0C", "Melting Point": "&lt;25 \u00b0C"}}