{"cas_no": "4462-96-8", "cn_name": "\u73af\u4e01\u70f7-1,2-\u4e8c\u7532\u9178\u9150", "en_name": ["3-Oxabicyclo[3.2.0]heptane-2,4-dione", "3-Oxabicyclo[3.2.0]heptane-2,4-dione", "1,2-Cyclobutanedicarboxylic anhydride", "1,2-Cyclobutanedicarboxylic acid anhydride", "cis-1,2-Cyclobutanedicarboxylic anhydride", "NSC 119923", "NSC 134999", "NSC 148995"], "SMILES": "O=C1C2C(C(=O)O1)CC2", "physical_data": {"Molecular Weight": "126.11", "Molecular Formula": "C6H6O3", "Boiling Point": "90-100 \u00b0C @ Press: 0.5 Torr", "Melting Point": "77-78 \u00b0C"}}