{"cas_no": "4462-55-9", "cn_name": "3-(2,6-\u4e8c\u6c2f\u82ef\u57fa)-5-\u7532\u57fa\u5f02\u5511-4-\u7532\u9170\u6c2f", "en_name": ["3-(2,6-Dichlorophenyl)-5-methyl-4-isoxazolecarbonyl chloride", "4-Isoxazolecarbonyl chloride, 3-(2,6-dichlorophenyl)-5-methyl-", "3-(2,6-Dichlorophenyl)-5-methyl-4-isoxazolecarbonyl chloride", "3-(2,6-Dichlorophenyl)-5-methyl-4-isoxazolylcarbonyl chloride", "3-(2,6-Dichlorophenyl)-5-methylisoxazole-4-carbonyl chloride"], "SMILES": "ClC1=C(C(Cl)=CC=C1)C=2C(C(Cl)=O)=C(C)ON2", "physical_data": {"Molecular Weight": "290.53", "Molecular Formula": "C11H6Cl3NO2", "Melting Point": "88-91 \u00b0C"}}