{"cas_no": "446292-10-0", "cn_name": "4-[4-[(5S)-5-(\u6c28\u7532\u57fa)-2-\u7fb0\u57fa-3-\u5511\u70f7\u57fa]\u82ef\u57fa]-3-\u5417\u5561\u5549\u916e", "en_name": ["4-[4-[(5S)-5-(Aminomethyl)-2-oxo-1,3-oxazolidin-3-yl]phenyl]-morpholin-3-one", "3-Morpholinone, 4-[4-[(5S)-5-(aminomethyl)-2-oxo-3-oxazolidinyl]phenyl]-", "4-[4-[(5S)-5-(Aminomethyl)-2-oxo-3-oxazolidinyl]phenyl]-3-morpholinone", "4-[4-[(5S)-5-(Aminomethyl)-2-oxo-1,3-oxazolidin-3-yl]phenyl]morpholin-3-one", "4-[4-[(5S)-5-(Aminomethyl)-2-oxo-1,3-oxazolidin-3-yl]phenyl]-morpholin-3-one", "(S)-4-[4-(5-Aminomethyl-2-oxooxazolidin-3-yl)phenyl]morpholin-3-one", "4-[4-((S)-5-[Aminomethyl]-2-oxooxazolidin-3-yl)phenyl]morpholine-3-one"], "SMILES": "O=C1N(CC(CN)O1)C2=CC=C(C=C2)N3C(=O)COCC3", "physical_data": {"Molecular Weight": "291.30", "Molecular Formula": "C14H17N3O4", "Melting Point": "148.3-149.8 \u00b0C"}}