{"cas_no": "4463-59-6", "cn_name": "2-(2-\u6eb4\u4e59\u6c27\u57fa)\u8334\u9999\u919a", "en_name": ["1-(2-Bromoethoxy)-2-methoxybenzene", "Benzene, 1-(2-bromoethoxy)-2-methoxy-", "1-(2-Bromoethoxy)-2-methoxybenzene", "2-(2-Methoxyphenoxy)ethyl bromide", "2-Bromoethyl 2-methoxyphenyl ether"], "SMILES": "O(CCBr)C1=C(OC)C=CC=C1", "physical_data": {"Molecular Weight": "231.09", "Molecular Formula": "C9H11BrO2", "Boiling Point": "135-140 \u00b0C @ Press: 7 Torr", "Melting Point": "43-45 \u00b0C"}}