{"cas_no": "4463-03-0", "cn_name": "2,4,6-\u4e09\u7532\u57fa\u82ef-1,3,5-\u4e09\u9187", "en_name": ["Trimethylphloroglucinol", "1,3,5-Benzenetriol, 2,4,6-trimethyl-", "Phloroglucinol, trimethyl-", "2,4,6-Trimethyl-1,3,5-benzenetriol", "2,4,6-Mesitylenetriol", "Trimethylphloroglucinol", "2,4,6-Trimethylphloroglucinol", "2,4,6-Trihydroxymesitylene"], "SMILES": "CC1=C(O)C(C)=C(O)C(C)=C1O", "physical_data": {"Molecular Weight": "168.19", "Molecular Formula": "C9H12O3", "Melting Point": "184-185 \u00b0C"}}