{"cas_no": "4463-33-6", "cn_name": "2,3-\u4e8c\u7532\u6c27\u57fa\u7532\u82ef", "en_name": ["2,3-Dimethoxytoluene", "Benzene, 1,2-dimethoxy-3-methyl-", "Toluene, 2,3-dimethoxy-", "1,2-Dimethoxy-3-methylbenzene", "o-Homoveratrole", "3-Methylcatechol dimethyl ether", "2,3-Dimethoxytoluene", "3-Methyl-1,2-dimethoxybenzene", "3-Methylveratrole", "NSC 72350"], "SMILES": "O(C)C1=C(OC)C(C)=CC=C1", "physical_data": {"Molecular Weight": "152.19", "Molecular Formula": "C9H12O2", "Boiling Point": "204 \u00b0C", "Melting Point": "23-24 \u00b0C", "Density": "1.0335 g/cm\u00b3 @ Temp: 25 \u00b0C"}}