{"cas_no": "4465-44-5", "cn_name": "N-\u4e09\u82ef\u7532\u57fa-L-\u4e1d\u6c28\u9178\u7532\u916f", "en_name": ["N-(Triphenylmethyl)-L-serine methyl ester", "L-Serine, N-(triphenylmethyl)-, methyl ester", "Serine, N-trityl-, methyl ester, L-", "N-(Triphenylmethyl)-L-serine methyl ester", "N-Tritylserine methyl ester", "N-Trityl-L-serine methyl ester", "Methyl (2S)-3-hydroxy-2-(tritylamino)propanoate", "Methyl Trityl-L-serinate"], "SMILES": "C(NC(C(OC)=O)CO)(C1=CC=CC=C1)(C2=CC=CC=C2)C3=CC=CC=C3", "physical_data": {"Molecular Weight": "361.43", "Molecular Formula": "C23H23NO3", "Melting Point": "125-131 \u00b0C"}}