{"cas_no": "4466-24-4", "cn_name": "2-\u6b63\u4e01\u57fa\u544b\u5583", "en_name": ["2-Butylfuran", "Furan, 2-butyl-", "2-Butylfuran", "2-n-Butylfuran"], "SMILES": "C(CCC)C1=CC=CO1", "physical_data": {"Molecular Weight": "124.18", "Molecular Formula": "C8H12O", "Boiling Point": "137-138 \u00b0C", "Density": "0.8983 g/cm\u00b3 @ Temp: 25 \u00b0C"}}