{"cas_no": "4466-59-5", "cn_name": "3,6-\u4e8c\u6c2f\u90bb\u82ef\u4e8c\u7532\u9178\u9150", "en_name": ["3,6-Dichlorophthalic anhydride", "1,3-Isobenzofurandione, 4,7-dichloro-", "Phthalic anhydride, 3,6-dichloro-", "4,7-Dichloro-1,3-isobenzofurandione", "3,6-Dichlorophthalic anhydride", "3,6-Dichlorophthalic acid anhydride", "4,7-Dichloroisobenzofuran-1,3-dione"], "SMILES": "O=C1C=2C(C(=O)O1)=C(Cl)C=CC2Cl", "physical_data": {"Molecular Weight": "217.01", "Molecular Formula": "C8H2Cl2O3", "Melting Point": "191-191.5 \u00b0C"}}