{"cas_no": "4467-06-5", "cn_name": "2-(4-\u7532\u57fa\u82ef\u57fa)\u5421\u5576", "en_name": ["2-(4-Methylphenyl)pyridine", "Pyridine, 2-(4-methylphenyl)-", "Pyridine, 2-p-tolyl-", "2-(4-Methylphenyl)pyridine", "2-(p-Methylphenyl)pyridine", "2-p-Tolylpyridine", "2-(4-Tolyl)pyridine", "4-(2-Pyridinyl)toluene", "4-(2-Pyridyl)toluene", "2-(4\u2032-Methylphenyl)pyridine"], "SMILES": "CC1=CC=C(C=C1)C2=CC=CC=N2", "physical_data": {"Molecular Weight": "169.22", "Molecular Formula": "C12H11N", "Boiling Point": "93-98 \u00b0C @ Press: 1 Torr", "Melting Point": "132-132.5 \u00b0C", "Density": "1.055 g/cm\u00b3 @ Temp: 25 \u00b0C"}}