{"cas_no": "4468-48-8", "cn_name": "2-\u82ef\u57fa\u4e59\u9170\u57fa\u4e59\u8148", "en_name": ["\u03b1-Acetylbenzeneacetonitrile", "Benzeneacetonitrile, \u03b1-acetyl-", "Acetoacetonitrile, 2-phenyl-", "\u03b1-Acetylbenzeneacetonitrile", "\u03b1-Phenylacetoacetonitrile", "1-Cyano-1-phenylpropan-2-one", "2-Acetyl-2-phenylacetonitrile", "\u03b1-Acetylphenylacetonitrile", "3-Oxo-2-phenylbutanenitrile", "NSC 11777", "NSC 25183", "NSC 55206", "3-Oxo-2-phenyl-butyronitrile", "1-Phenyl-1-cyanopropan-2-one", "2-Phenylacetoacetonitrile"], "SMILES": "C(C(C)=O)(C#N)C1=CC=CC=C1", "physical_data": {"Molecular Weight": "159.18", "Molecular Formula": "C10H9NO", "Boiling Point": "120 \u00b0C @ Press: 0.03 Torr", "Melting Point": "90 \u00b0C"}}