{"cas_no": "4468-59-1", "cn_name": "3-\u7532\u6c27\u57fa-4-\u7f9f\u57fa\u82ef\u4e59\u8148", "en_name": ["(4-Hydroxy-3-methoxyphenyl)acetonitrile", "Benzeneacetonitrile, 4-hydroxy-3-methoxy-", "Acetonitrile, (4-hydroxy-3-methoxyphenyl)-", "4-Hydroxy-3-methoxybenzeneacetonitrile", "Homovanillonitrile", "(4-Hydroxy-3-methoxyphenyl)acetonitrile", "2-Methoxy-4-(cyanomethyl)phenol", "2-(4-Hydroxy-3-methoxyphenyl)acetonitrile"], "SMILES": "O(C)C1=CC(CC#N)=CC=C1O", "physical_data": {"Molecular Weight": "163.17", "Molecular Formula": "C9H9NO2", "Boiling Point": "138 \u00b0C", "Melting Point": "56.5 \u00b0C"}}