{"cas_no": "4468-02-4", "cn_name": "\u8461\u8404\u7cd6\u9178\u950c", "en_name": ["Zinc gluconate", "Zinc, bis(D-gluconato-\u03baO1,\u03baO2)-, (T-4)-", "Zinc gluconate", "Zinc, bis(D-gluconato-O1,O2)-", "D-Gluconic acid, zinc complex", "(T-4)-Bis(D-gluconato-\u03baO1,\u03baO2)zinc", "Rubozinc", "BioZn-AAS", "Zinc Verla", "Givobio G Zn", "Helshas Zn", "Testoblock", "Gluconal ZN-P"], "SMILES": "C(C(C(CO)O)O)(O)C1[OH][Zn+2]2([OH]C(C(C(C(CO)O)O)O)C(=O)[O-]2)[O-]C1=O", "physical_data": {"Molecular Weight": "", "Molecular Formula": "C12H22O14Zn", "Melting Point": "172-175 \u00b0C"}}