{"cas_no": "4469-80-1", "cn_name": "\u5bf9\u6b63\u4e19\u6c27\u57fa\u82ef\u80fa", "en_name": ["4-Propoxybenzenamine", "Benzenamine, 4-propoxy-", "Aniline, p-propoxy-", "4-Propoxybenzenamine", "4-Propoxyaniline", "p-Propoxyaniline", "4-(Propyloxy)aniline", "4-Propoxyphenylamine"], "SMILES": "O(CCC)C1=CC=C(N)C=C1", "physical_data": {"Molecular Weight": "151.21", "Molecular Formula": "C9H13NO", "Boiling Point": "137 \u00b0C @ Press: 11 Torr", "Melting Point": "265-267 \u00b0C"}}