{"cas_no": "447-61-0", "cn_name": "\u90bb\u4e09\u6c1f\u7532\u57fa\u82ef\u7532\u919b", "en_name": ["2-(Trifluoromethyl)benzaldehyde", "Benzaldehyde, 2-(trifluoromethyl)-", "o-Tolualdehyde, \u03b1,\u03b1,\u03b1-trifluoro-", "2-(Trifluoromethyl)benzaldehyde", "o-(Trifluoromethyl)benzaldehyde", "\u03b1,\u03b1,\u03b1-Trifluoro-o-tolualdehyde"], "SMILES": "C(=O)C1=C(C(F)(F)F)C=CC=C1", "physical_data": {"Molecular Weight": "174.12", "Molecular Formula": "C8H5F3O", "Boiling Point": "70 \u00b0C", "Melting Point": "205 \u00b0C"}}