{"cas_no": "447-60-9", "cn_name": "2-\u4e09\u6c1f\u7532\u57fa\u82ef\u8148", "en_name": ["2-(Trifluoromethyl)benzonitrile", "Benzonitrile, 2-(trifluoromethyl)-", "o-Tolunitrile, \u03b1,\u03b1,\u03b1-trifluoro-", "2-(Trifluoromethyl)benzonitrile", "o-(Trifluoromethyl)benzonitrile", "o-Cyanobenzotrifluoride", "\u03b1,\u03b1,\u03b1-Trifluoro-o-tolunitrile", "o-(Trifluoromethyl)cyanobenzene", "NSC 88312", "2-Cyanobenzotrifluoride"], "SMILES": "C(#N)C1=C(C(F)(F)F)C=CC=C1", "physical_data": {"Molecular Weight": "171.12", "Molecular Formula": "C8H4F3N", "Boiling Point": "205 \u00b0C", "Melting Point": "18 \u00b0C", "Density": "1.2886 g/cm\u00b3 @ Temp: 20 \u00b0C"}}