{"cas_no": "447-31-4", "cn_name": "2-\u6c2f-2-\u82ef\u57fa\u82ef\u4e59\u916e", "en_name": ["Desyl chloride", "Ethanone, 2-chloro-1,2-diphenyl-", "Acetophenone, 2-chloro-2-phenyl-", "2-Chloro-1,2-diphenylethanone", "Desyl chloride", "2-Chloro-2-phenylacetophenone", "\u03b1-Chlorobenzyl phenyl ketone", "1,2-Diphenyl-2-chloroethanone", "\u03b1-Chloro-\u03b1-phenylacetophenone", "\u03b1-Chlorodeoxybenzoin", "NSC 2883", "2-Chloro-1,2-diphenylethan-1-one"], "SMILES": "C(C(=O)C1=CC=CC=C1)(Cl)C2=CC=CC=C2", "physical_data": {"Molecular Weight": "230.69", "Molecular Formula": "C14H11ClO", "Boiling Point": "150 \u00b0C @ Press: 0.02 Torr", "Melting Point": "68.5 \u00b0C"}}