{"cas_no": "447-53-0", "cn_name": "1,2-\u4e8c\u7f9f\u57fa\u8418", "en_name": ["1,2-Dihydronaphthalene", "Naphthalene, 1,2-dihydro-", "1,2-Dihydronaphthalene", "1,2-Dialin", "Dialin", "\u03941-Dialin", "NSC 28463", "3,4-Dihydronaphthalene"], "SMILES": "C=12C(=CC=CC1)C=CCC2", "physical_data": {"Molecular Weight": "130.19", "Molecular Formula": "C10H10", "Boiling Point": "206.5 \u00b0C", "Melting Point": "-8 \u00b0C", "Density": "1.002 g/cm\u00b3 @ Temp: 25 \u00b0C"}}