{"cas_no": "447-14-3", "cn_name": "1,2,2-\u4e09\u6c1f\u82ef\u4e59\u70ef", "en_name": ["(1,2,2-Trifluoroethenyl)benzene", "Benzene, (1,2,2-trifluoroethenyl)-", "Styrene, \u03b1,\u03b2,\u03b2-trifluoro-", "Benzene, (trifluoroethenyl)-", "(1,2,2-Trifluoroethenyl)benzene", "\u03b1,\u03b2,\u03b2-Trifluorostyrene", "NSC 121160", "(Trifluoroethenyl)benzene"], "SMILES": "C(=C(F)F)(F)C1=CC=CC=C1", "physical_data": {"Molecular Weight": "158.12", "Molecular Formula": "C8H5F3", "Boiling Point": "66.2-67.5 \u00b0C @ Press: 70 Torr", "Melting Point": "-24--23 \u00b0C", "Density": "1.220 g/cm\u00b3 @ Temp: 20 \u00b0C"}}