{"cas_no": "4472-44-0", "cn_name": "2-\u6c2f-4,6-\u4e8c\u7532\u57fa\u5627\u5576", "en_name": ["2-Chloro-4,6-dimethylpyrimidine", "Pyrimidine, 2-chloro-4,6-dimethyl-", "2-Chloro-4,6-dimethylpyrimidine", "4,6-Dimethyl-2-chloropyrimidine", "NSC 49016"], "SMILES": "CC=1C=C(C)N=C(Cl)N1", "physical_data": {"Molecular Weight": "142.59", "Molecular Formula": "C6H7ClN2", "Boiling Point": "100.0-102.5 \u00b0C @ Press: 13 Torr", "Melting Point": "38 \u00b0C"}}