{"cas_no": "4472-45-1", "cn_name": "2-\u6c28\u57fa-4-\u6c2f-6-\u7532\u57fa\u5627\u5576", "en_name": ["4-Chloro-2,6-dimethylpyrimidine", "Pyrimidine, 4-chloro-2,6-dimethyl-", "4-Chloro-2,6-dimethylpyrimidine", "6-Chloro-2,4-dimethylpyrimidine", "2,6-Dimethyl-4-chloropyrimidine"], "SMILES": "CC=1C=C(Cl)N=C(C)N1", "physical_data": {"Molecular Weight": "142.59", "Molecular Formula": "C6H7ClN2", "Boiling Point": "180 \u00b0C @ Press: 760 Torr", "Melting Point": "39-40 \u00b0C"}}