{"cas_no": "4475-95-0", "cn_name": "(DL)-2-\u6c28\u57fa-2-\u7532\u57fa\u4e01\u8148", "en_name": ["2-Amino-2-methylbutanenitrile", "Butanenitrile, 2-amino-2-methyl-", "Butyronitrile, 2-amino-2-methyl-", "2-Amino-2-methylbutanenitrile", "Isovalinonitrile", "1-Cyano-1-methylpropylamine", "2-Amino-2-methylbutyronitrile", "2-Amino-2-methylbutanonitrile"], "SMILES": "C(CC)(C#N)(C)N", "physical_data": {"Molecular Weight": "98.15", "Molecular Formula": "C5H10N2", "Boiling Point": "72 \u00b0C @ Press: 20 Torr", "Density": "0.9 g/cm\u00b3"}}