{"cas_no": "4476-28-2", "cn_name": "4-\u5f02\u4e19\u57fa\u82ef\u4e59\u9178", "en_name": ["4-(1-Methylethyl)benzeneacetic acid", "Benzeneacetic acid, 4-(1-methylethyl)-", "p-Cymene-7-carboxylic acid", "4-(1-Methylethyl)benzeneacetic acid", "p-Isopropylphenylacetic acid", "2-(4-Isopropylphenyl)acetic acid", "4-(Propan-2-yl)phenylacetic acid", "2-(4-Propan-2-ylphenyl)acetic acid", "2-[4-(Propan-2-yl)phenyl]acetic acid"], "SMILES": "C(C(O)=O)C1=CC=C(C(C)C)C=C1", "physical_data": {"Molecular Weight": "178.23", "Molecular Formula": "C11H14O2", "Boiling Point": "170-174 \u00b0C @ Press: 14 Torr", "Melting Point": "38-40 \u00b0C"}}