{"cas_no": "4478-92-6", "cn_name": "\u5f02\u786b\u6c30\u9178DL-\u7532\u57fa\u82c4\u916f", "en_name": ["(1-Isothiocyanatoethyl)benzene", "Benzene, (1-isothiocyanatoethyl)-", "Isothiocyanic acid, \u03b1-methylbenzyl ester", "(1-Isothiocyanatoethyl)benzene", "1-Phenylethyl isothiocyanate", "\u03b1-Methylbenzylisothiocyanate", "NSC 221236"], "SMILES": "C(N=C=S)(C)C1=CC=CC=C1", "physical_data": {"Molecular Weight": "163.24", "Molecular Formula": "C9H9NS", "Boiling Point": "122-123 \u00b0C @ Press: 12 Torr"}}