{"cas_no": "4478-43-7", "cn_name": "1,2:3,4-\u4e8c-O-\u4e9a\u5f02\u4e19\u57fa-6-O-(P-\u7532\u82ef\u78fa\u9170\u57fa)-\u0391-D-\u5421\u5583\u534a\u4e73\u7cd6", "en_name": ["\u03b1-D-Galactopyranose, 1,2:3,4-bis-O-(1-methylethylidene)-, 6-(4-methylbenzenesulfonate)", "\u03b1-D-Galactopyranose, 1,2:3,4-bis-O-(1-methylethylidene)-, 6-(4-methylbenzenesulfonate)", "Galactopyranose, 1,2:3,4-di-O-isopropylidene-, p-toluenesulfonate, \u03b1-D-", "\u03b1-D-Galactopyranose, 1,2:3,4-bis-O-(1-methylethylidene)-, 4-methylbenzenesulfonate", "Galactose, 1,2:3,4-di-O-isopropylidene-, 6-p-toluenesulfonate", "5H-Bis[1,3]dioxolo[4,5-b:4\u2032,5\u2032-d]pyran, \u03b1-D-galactopyranose deriv.", "1,2:3,4-Di-O-Isopropylidene-6-O-p-tolylsulfonyl-\u03b1-D-galactopyranose", "NSC 116274"], "SMILES": "C(OS(=O)(=O)C1=CC=C(C)C=C1)C2C3C(C4C(O2)OC(C)(C)O4)OC(C)(C)O3", "physical_data": {"Molecular Weight": "414.47", "Molecular Formula": "C19H26O8S", "Melting Point": "147-149 \u00b0C"}}