{"cas_no": "4478-93-7", "cn_name": "\u841d\u535c\u786b\u7d20", "en_name": ["Sulforaphane", "Butane, 1-isothiocyanato-4-(methylsulfinyl)-", "Isothiocyanic acid, 4-(methylsulfinyl)butyl ester", "Sulforaphan", "1-Isothiocyanato-4-(methylsulfinyl)butane", "Sulforaphane", "4-Methylsulfinylbutyl isothiocyanate", "Detoxophane", "BroccoPhane"], "SMILES": "C(CCN=C=S)CS(C)=O", "physical_data": {"Molecular Weight": "177.29", "Molecular Formula": "C6H11NOS2", "Boiling Point": "125-135 \u00b0C @ Press: 0.01 Torr"}}