{"cas_no": "448-61-3", "cn_name": "2,4,6-\u4e09\u82ef\u57fa\u5421\u5583\u56db\u6c1f\u5316\u787c\u76d0", "en_name": ["2,4,6-Triphenylpyrylium tetrafluoroborate", "Pyrylium, 2,4,6-triphenyl-, tetrafluoroborate(1-) (1:1)", "Pyrylium, 2,4,6-triphenyl-, tetrafluoroborate(1-)", "2,4,6-Triphenylpyrylium tetrafluoroborate", "2,4,6-Triphenylpyrylium fluoborate", "Borate(1-), tetrafluoro-, 2,4,6-triphenylpyrylium", "2,4,6-Triphenylpyrylium fluoroborate", "TPPT"], "SMILES": "[B+3]([F-])([F-])([F-])[F-].C=1(C=C([O+]=C(C1)C2=CC=CC=C2)C3=CC=CC=C3)C4=CC=CC=C4", "physical_data": {"Molecular Weight": "", "Molecular Formula": "C23H17O.BF4", "Melting Point": "225-226 \u00b0C"}}