{"cas_no": "4480-83-5", "cn_name": "\u4e8c\u7518\u9187\u9150", "en_name": ["Diglycolic anhydride", "1,4-Dioxane-2,6-dione", "Diglycolic anhydride", "Acetic acid, oxydi-, cyclic anhydride", "p-Dioxane-2,6-dione", "Diglycolic acid anhydride", "Acetic acid, 2,2\u2032-oxybis-, cyclic anhydride", "Oxydiacetic anhydride", "3-Oxaglutaric anhydride"], "SMILES": "O=C1OC(=O)COC1", "physical_data": {"Molecular Weight": "116.07", "Molecular Formula": "C4H4O4", "Boiling Point": "140 \u00b0C @ Press: 35 Torr", "Melting Point": "91-93 \u00b0C"}}