{"cas_no": "4481-62-3", "cn_name": "\u767d\u6866\u8102\u916e\u9178", "en_name": ["(+)-Betulonic acid", "Lup-20(29)-en-28-oic acid, 3-oxo-", "Lup-20(30)-en-28-oic acid, 3-oxo-", "3-Oxolup-20(29)-en-28-oic acid", "Betulonic acid", "Liquidambronic acid", "Liquidambaric acid", "3-Oxobetulinic acid", "MJ 347-RS", "NSC 152534", "(+)-Betulonic acid", "Betunolic acid"], "SMILES": "C(O)(=O)C12C(C3C(C)(CC1)C4(C)C(CC3)C5(C)C(CC4)C(C)(C)C(=O)CC5)C(C(C)=C)CC2", "physical_data": {"Molecular Weight": "454.68", "Molecular Formula": "C30H46O3", "Melting Point": "253 \u00b0C"}}