{"cas_no": "448193-94-0", "cn_name": "5,7-\u4e8c\u6c2f-2,3-\u4e8c\u6c22\u831a\u9187-1-\u916e", "en_name": ["5,7-Dichloro-2,3-dihydro-1H-inden-1-one", "1H-Inden-1-one, 5,7-dichloro-2,3-dihydro-", "5,7-Dichloro-2,3-dihydro-1H-inden-1-one", "5,7-Dichloro-1-indanone"], "SMILES": "ClC1=C2C(=CC(Cl)=C1)CCC2=O", "physical_data": {"Molecular Weight": "201.05", "Molecular Formula": "C9H6Cl2O", "Melting Point": "97-99 \u00b0C"}}