{"cas_no": "4484-72-4", "cn_name": "\u5341\u4e8c\u70f7\u57fa\u4e09\u6c2f\u7845\u70f7", "en_name": ["Trichlorododecylsilane", "Silane, trichlorododecyl-", "Trichlorododecylsilane", "Dodecyltrichlorosilane", "NSC 139836", "n-Dodecyltrichlorosilane"], "SMILES": "C(CCCCCCCCC)CC[Si](Cl)(Cl)Cl", "physical_data": {"Molecular Weight": "303.77", "Molecular Formula": "C12H25Cl3Si", "Boiling Point": "288 \u00b0C", "Melting Point": "-30 \u00b0C", "Density": "1.026 g/cm\u00b3 @ Temp: 25 \u00b0C"}}