{"cas_no": "4485-12-5", "cn_name": "\u786c\u8102\u9178\u9502", "en_name": ["Lithium stearate", "Octadecanoic acid, lithium salt (1:1)", "Stearic acid, lithium salt", "Octadecanoic acid, lithium salt", "Lithalure", "Lithium stearate", "Litholite", "Stavinor 60", "Lithium octadecanoate", "S 7000 (fatty acid)", "S 7000", "S 7000F", "AFCO-Chem LIS", "SPL 100F", "Li-St", "LIC 17", "Lithiumsoap 1", "SAK-LIS-PE"], "SMILES": "C(CCCCCCCCCCC)CCCCCC(O)=O.[Li]", "physical_data": {"Molecular Weight": "", "Molecular Formula": "C18H36O2.Li", "Melting Point": "192 \u00b0C"}}