{"cas_no": "4485-09-0", "cn_name": "4-\u58ec\u916e", "en_name": ["4-Nonanone", "4-Nonanone", "Propyl amyl ketone", "Pentyl propyl ketone"], "SMILES": "C(C(CCC)=O)CCCC", "physical_data": {"Molecular Weight": "142.24", "Molecular Formula": "C9H18O", "Boiling Point": "187.5 \u00b0C", "Density": "0.8257 g/cm\u00b3 @ Temp: 20 \u00b0C"}}