{"cas_no": "44860-68-6", "cn_name": "3,5-\u4e8c\u786b\u6742-1,7-\u5e9a\u4e8c\u9187", "en_name": ["Bis(2-hydroxyethylthio)methane", "Ethanol, 2,2\u2032-[methylenebis(thio)]bis-", "Ethanol, 2,2\u2032-(methylenedithio)di-", "2,2\u2032-[Methylenebis(thio)]bis[ethanol]", "NSC 2875", "NSC 409772", "Bis(2-hydroxyethylthio)methane", "1,1-Bis(2-hydroxyethylsulfanyl)methane", "3,5-Dithia-1,7-heptanediol", "2,2\u2032-(Methylenebis(sulfanediyl))diethanol", "2-(2-Hydroxyethylsulfanylmethylsulfanyl)ethanol"], "SMILES": "C(SCCO)SCCO", "physical_data": {"Molecular Weight": "168.28", "Molecular Formula": "C5H12O2S2", "Boiling Point": "145 \u00b0C @ Press: 0.02 Torr"}}