{"cas_no": "4487-59-6", "cn_name": "2-\u6eb4-5-\u785d\u57fa\u5421\u5576", "en_name": ["2-Bromo-5-nitropyridine", "Pyridine, 2-bromo-5-nitro-", "2-Bromo-5-nitropyridine", "5-Nitro-2-bromopyridine", "NSC 73702"], "SMILES": "N(=O)(=O)C=1C=CC(Br)=NC1", "physical_data": {"Molecular Weight": "202.99", "Molecular Formula": "C5H3BrN2O2", "Boiling Point": "145-147 \u00b0C @ Press: 10 Torr", "Melting Point": "138 \u00b0C"}}