{"cas_no": "4487-51-8", "cn_name": "2-\u7f9f\u57fa-4-\u785d\u57fa\u5421\u5576", "en_name": ["4-Nitro-2(1H)-pyridinone", "2(1H)-Pyridinone, 4-nitro-", "2-Pyridinol, 4-nitro-", "4-Nitro-2(1H)-pyridinone", "4-Nitropyrid-2-one", "2-Hydroxy-4-nitropyridine"], "SMILES": "N(=O)(=O)C1=CC(=O)NC=C1", "physical_data": {"Molecular Weight": "140.10", "Molecular Formula": "C5H4N2O3", "Melting Point": "242 \u00b0C (decomp)"}}