{"cas_no": "4488-22-6", "cn_name": "(R)-(+)-1,1'-\u8054-2-\u8418\u80fa", "en_name": ["(\u00b1)-1,1\u2032-Binaphthyl-2,2\u2032-diamine", "[1,1\u2032-Binaphthalene]-2,2\u2032-diamine", "1,1\u2032-Bi[2-naphthylamine]", "1,1\u2032-Bi[2-naphthalenylamine]", "2,2\u2032-Diamino-1,1\u2032-dinaphthyl", "2,2\u2032-Diamino-1,1\u2032-binaphthalene", "2,2\u2032-Diamino-1,1\u2032-binaphthyl", "2,2\u2032-Diamino-1,1\u2032-binaphthylene", "(\u00b1)-1,1\u2032-Binaphthyl-2,2\u2032-diamine", "(RS)-1,1\u2032-Binaphthalene-2,2\u2032-diamine", "NSC 519704", "BINAM", "1,1\u2032-Binaphthyl-2,2\u2032-diamine", "rac-BINAM", "(\u00b1)-2,2\u2032-Diamino-1,1\u2032-binaphthyl", "(\u00b1)-2,2\u2032-Diamino-1,1\u2032-binaphthalene"], "SMILES": "NC1=C(C2=C(C=C1)C=CC=C2)C=3C4=C(C=CC3N)C=CC=C4", "physical_data": {"Molecular Weight": "284.35", "Molecular Formula": "C20H16N2", "Melting Point": "189 \u00b0C"}}