{"cas_no": "4488-57-7", "cn_name": "5,6-\u4e8c\u6c22\u4e8c\u73af\u620a\u4e8c\u70ef", "en_name": ["Dihydrodicyclopentadiene", "4,7-Methano-1H-indene, 3a,4,5,6,7,7a-hexahydro-", "4,7-Methanoindene, 3a,4,5,6,7,7a-hexahydro-", "3a,4,5,6,7,7a-Hexahydro-4,7-methano-1H-indene", "Tricyclo[5.2.1.02,6]dec-3-ene", "Dihydrodicyclopentadiene", "NSC 22462", "5,6-Dihydrodicyclopentadiene"], "SMILES": "C12C(C3CC1CC3)C=CC2", "physical_data": {"Molecular Weight": "134.22", "Molecular Formula": "C10H14", "Boiling Point": "103-105 \u00b0C @ Press: 12 Torr", "Melting Point": "57 \u00b0C"}}