{"cas_no": "4490-82-8", "cn_name": "O-\u4e01\u57fa\u7f9f\u80fa\u76d0\u9178\u76d0", "en_name": ["Hydroxylamine, O-butyl-, hydrochloride (1:1)", "Hydroxylamine, O-butyl-, hydrochloride (1:1)", "Hydroxylamine, O-butyl-, hydrochloride", "Butoxyamine, hydrochloride", "O-Butylhydroxylamine hydrochloride", "n-Butoxyamine hydrochloride"], "SMILES": "C(CON)CC.Cl", "physical_data": {"Molecular Weight": "", "Molecular Formula": "C4H11NO.ClH", "Melting Point": "156-157 \u00b0C"}}