{"cas_no": "4490-81-7", "cn_name": "2-(\u6c28\u57fa\u6c27\u57fa)\u4e19\u70f7\u76d0\u9178\u76d0", "en_name": ["Hydroxylamine, O-(1-methylethyl)-, hydrochloride (1:1)", "Hydroxylamine, O-(1-methylethyl)-, hydrochloride (1:1)", "Hydroxylamine, O-isopropyl-, hydrochloride", "Hydroxylamine, O-(1-methylethyl)-, hydrochloride", "Isopropoxyamine, hydrochloride", "O-Isopropylhydroxylamine hydrochloride", "N-Isopropoxyamine hydrochloride", "O-(1-Methylethyl)hydroxylamine hydrochloride", "2-(Aminooxy)propane hydrochloride", "Isopropyloxyamine hydrochloride"], "SMILES": "C(ON)(C)C.Cl", "physical_data": {"Molecular Weight": "", "Molecular Formula": "C3H9NO.ClH", "Melting Point": "75-76 \u00b0C"}}