{"cas_no": "4491-19-4", "cn_name": "\u5370\u4e4c\u5934\u78b1", "en_name": ["Indaconitine", "Aconitane-3,8,13,14-tetrol, 20-ethyl-1,6,16-trimethoxy-4-(methoxymethyl)-, 8-acetate 14-benzoate, (1\u03b1,3\u03b1,6\u03b1,14\u03b1,16\u03b2)-", "Indaconitine", "2H-12,3,6a-Ethanylylidene-7,9-methanonaphth[2,3-b]azocine, aconitane-3,8,13,14-tetrol deriv.", "Acetylbenzoylpseudoaconine", "Acetylbenzoylpseudaconine", "15-Deoxyaconitine"], "SMILES": "O(C)C1C23C4C(COC)(CN(CC)C2C(C4OC)C5(OC(C)=O)C6C3CC(O)(C6OC(=O)C7=CC=CC=C7)C(OC)C5)C(O)C1", "physical_data": {"Molecular Weight": "629.74", "Molecular Formula": "C34H47NO10", "Melting Point": "193-195 \u00b0C"}}