{"cas_no": "4493-42-9", "cn_name": "2,4-DECADIENOIC ACID METHYL ESTER", "en_name": ["Methyl (E,Z)-2,4-decadienoate", "2,4-Decadienoic acid, methyl ester, (2E,4Z)-", "2,4-Decadienoic acid, methyl ester, (E,Z)-", "Methyl trans-2,cis-4-decadienoate", "Methyl 2-trans-4-cis-decadienoate", "Methyl (E,Z)-2,4-decadienoate", "Methyl (2E,4Z)-2,4-decadienoate", "Methyl 2E,4Z-decadienoate", "Methyl (2E,4Z)-2,4-decadienoate", "(2E,4Z)-2,4-Decadienoic acid methyl ester"], "SMILES": "C(=CC=CCCCCC)C(OC)=O", "physical_data": {"Molecular Weight": "182.26", "Molecular Formula": "C11H18O2", "Boiling Point": "75 \u00b0C @ Press: 0.07 Torr", "Density": "0.9128 g/cm\u00b3 @ Temp: 22 \u00b0C"}}