{"cas_no": "4494-26-2", "cn_name": "5-FORMYL-DU", "en_name": ["5-Formyl-2\u2032-deoxyuridine", "Thymidine, \u03b1-oxo-", "Uridine, 2\u2032-deoxy-5-formyl-", "5-Pyrimidinecarboxaldehyde, 1-(2-deoxy-\u03b2-D-erythro-pentofuranosyl)-1,2,3,4-tetrahydro-2,4-dioxo-", "5-Pyrimidinecarboxaldehyde, 1-(2-deoxy-\u03b2-D-ribofuranosyl)-1,2,3,4-tetrahydro-2,4-dioxo-", "\u03b1-Oxothymidine", "5-Formyl-2\u2032-deoxyuridine", "2\u2032-Deoxy-5-formyluridine", "NSC 148297", "5-Formyldeoxyuridine"], "SMILES": "O=C1N(C2OC(CO)C(O)C2)C=C(C=O)C(=O)N1", "physical_data": {"Molecular Weight": "256.21", "Molecular Formula": "C10H12N2O6", "Melting Point": "157-158 \u00b0C"}}