{"cas_no": "4495-66-3", "cn_name": "4\u2018-\u82c4\u6c27\u57fa\u82ef\u4e19\u916e", "en_name": ["1-[4-(Phenylmethoxy)phenyl]-1-propanone", "1-Propanone, 1-[4-(phenylmethoxy)phenyl]-", "Propiophenone, 4\u2032-(benzyloxy)-", "1-[4-(Phenylmethoxy)phenyl]-1-propanone", "p-Benzyloxypropiophenone", "4\u2032-(Benzyloxy)propiophenone", "NSC 41188", "1-(4-Benzyloxyphenyl)propan-1-one"], "SMILES": "C(CC)(=O)C1=CC=C(OCC2=CC=CC=C2)C=C1", "physical_data": {"Molecular Weight": "240.30", "Molecular Formula": "C16H16O2", "Melting Point": "101 \u00b0C"}}