{"cas_no": "4497-92-1", "cn_name": "\u8488\u70ef", "en_name": ["(+)-2-Carene", "Bicyclo[4.1.0]hept-2-ene, 3,7,7-trimethyl-, (1S,6R)-", "2-Carene, (1S,6R)-(+)-", "Bicyclo[4.1.0]hept-2-ene, 3,7,7-trimethyl-, (1S)-", "(1S,6R)-3,7,7-Trimethylbicyclo[4.1.0]hept-2-ene", "Pinonene", "(+)-2-Carene"], "SMILES": "CC1(C)C2C1C=C(C)CC2", "physical_data": {"Molecular Weight": "136.23", "Molecular Formula": "C10H16", "Boiling Point": "50-51 \u00b0C @ Press: 12 Torr"}}