{"cas_no": "4497-05-6", "cn_name": "\u5341\u4e09\u70f7\u57fa\u82ef\u57fa\u916e", "en_name": ["1-Phenyl-1-tetradecanone", "1-Tetradecanone, 1-phenyl-", "Myristophenone", "1-Phenyl-1-tetradecanone", "Phenyl tridecyl ketone", "Tetradecanophenone", "Tridecyl phenyl ketone", "NSC 18795"], "SMILES": "C(CCCCCCCCCCCCC)(=O)C1=CC=CC=C1", "physical_data": {"Molecular Weight": "288.47", "Molecular Formula": "C20H32O", "Boiling Point": "212 \u00b0C @ Press: 12 Torr", "Melting Point": "55.5 \u00b0C"}}