{"cas_no": "4497-58-9", "cn_name": "2,2,4-\u4e09\u7532\u57fa-1,2,3,4-\u56db\u6c22\u55b9\u5549", "en_name": ["2,2,4-Trimethyl-1,2,3,4-tetrahydroquinoline", "Quinoline, 1,2,3,4-tetrahydro-2,2,4-trimethyl-", "1,2,3,4-Tetrahydro-2,2,4-trimethylquinoline", "2,2,4-Trimethyl-1,2,3,4-tetrahydroquinoline", "2,2,4-Trimethyl-3,4-dihydro-1H-quinoline"], "SMILES": "CC1C=2C(NC(C)(C)C1)=CC=CC2", "physical_data": {"Molecular Weight": "175.27", "Molecular Formula": "C12H17N", "Boiling Point": "259 \u00b0C @ Press: 760 Torr", "Melting Point": "39-40 \u00b0C"}}