{"cas_no": "4498-68-4", "cn_name": "\u5432\u5511-3-\u7fa7\u9178\u4e59\u8102", "en_name": ["1H-Indazole-3-carboxylic acid, ethyl ester", "1H-Indazole-3-carboxylic acid, ethyl ester", "Ethyl 3-indazolecarboxylate", "NSC 179807", "3-Ethoxycarbonylindazole", "Ethyl 1H-indazole-3-carboxylate"], "SMILES": "C(OCC)(=O)C=1C=2C(NN1)=CC=CC2", "physical_data": {"Molecular Weight": "190.20", "Molecular Formula": "C10H10N2O2", "Melting Point": "136-137 \u00b0C"}}