{"cas_no": "4498-67-3", "cn_name": "\u5432\u5511-3-\u7fa7\u9178", "en_name": ["Indazole-3-carboxylic acid", "1H-Indazole-3-carboxylic acid", "Indazole-3-carboxylic acid", "3-Carboxy-1H-indazole", "3(1H)-Indazolecarboxylic acid", "NSC 520610", "3-Carboxyindazole"], "SMILES": "C(O)(=O)C=1C=2C(NN1)=CC=CC2", "physical_data": {"Molecular Weight": "162.15", "Molecular Formula": "C8H6N2O2", "Melting Point": "259-260 \u00b0C"}}