{"cas_no": "4498-99-1", "cn_name": "4-\u7532\u57fa\u82c4\u57fa\u786b\u9187", "en_name": ["4-Methylbenzyl mercaptan", "Benzenemethanethiol, 4-methyl-", "Methanethiol, p-tolyl-", "4-Methylbenzenemethanethiol", "p-Methylbenzyl mercaptan", "p-Toluenemethanethiol", "4-Methyltoluene-\u03b1-thiol", "4-Methylbenzyl mercaptan", "p-Tolylmethyl mercaptan", "p-Tolylmethanethiol", "(4-Tolyl)methanethiol", "NSC 79870", "(4-Methylphenyl)methanethiol", "(p-Methylphenyl)methanethiol"], "SMILES": "C(S)C1=CC=C(C)C=C1", "physical_data": {"Molecular Weight": "138.23", "Molecular Formula": "C8H10S", "Boiling Point": "93 \u00b0C @ Press: 12 Torr", "Melting Point": "76 \u00b0C", "Density": "1.034 g/cm\u00b3 @ Temp: 23 \u00b0C"}}