{"cas_no": "449811-01-2", "cn_name": "PAMAPIMOD", "en_name": ["Pamapimod", "Pyrido[2,3-d]pyrimidin-7(8H)-one, 6-(2,4-difluorophenoxy)-2-[[3-hydroxy-1-(2-hydroxyethyl)propyl]amino]-8-methyl-", "6-(2,4-Difluorophenoxy)-2-[[3-hydroxy-1-(2-hydroxyethyl)propyl]amino]-8-methylpyrido[2,3-d]pyrimidin-7(8H)-one", "Pamapimod", "R 1503", "Ro 4402257", "FTX 839"], "SMILES": "CN1C=2C(C=C(OC3=C(F)C=C(F)C=C3)C1=O)=CN=C(NC(CCO)CCO)N2", "physical_data": {"Molecular Weight": "406.38", "Molecular Formula": "C19H20F2N4O4", "Melting Point": "157.4-158.2 \u00b0C"}}