{"cas_no": "4498-39-9", "cn_name": "4-\u7532\u57fa\u567b\u5511-2-\u786b\u9187", "en_name": ["4-Methyl-2(3H)-thiazolethione", "2(3H)-Thiazolethione, 4-methyl-", "4-Thiazoline-2-thione, 4-methyl-", "2-Thiazolethiol, 4-methyl-", "4-Methyl-2(3H)-thiazolethione", "4-Methylthiazoline-2-thione", "2-Mercapto-4-methylthiazole", "4-Methyl-4-thiazoline-2-thione", "4-Methyl-2-mercaptothiazole", "4-Methyl-2-thiazolethiol", "2-Mercapto-4-methyl-1,3-thiazole", "4-Methylthiazole-2-thione", "NSC 40808"], "SMILES": "CC=1NC(=S)SC1", "physical_data": {"Molecular Weight": "131.22", "Molecular Formula": "C4H5NS2", "Boiling Point": "188 \u00b0C @ Press: 3 Torr", "Melting Point": "89.3 \u00b0C"}}