{"cas_no": "4499-40-5", "cn_name": "\u80c6\u8336\u78b1", "en_name": ["Oxtriphylline", "Ethanaminium, 2-hydroxy-N,N,N-trimethyl-, salt with 3,9-dihydro-1,3-dimethyl-1H-purine-2,6-dione (1:1)", "Choline, compd. with theophylline (1:1)", "Ethanaminium, 2-hydroxy-N,N,N-trimethyl-, salt with 3,7-dihydro-1,3-dimethyl-1H-purine-2,6-dione (1:1)", "Choline, compd. with theophylline", "1H-Purine-2,6-dione, 3,7-dihydro-1,3-dimethyl-, ion(1-), 2-hydroxy-N,N,N-trimethylethanaminium", "Theophylline, ion(1-) choline (1:1)", "Theophylline, compd. with choline", "Choline theophyllinate", "Choledyl", "Cholegyl", "Cholinophylline", "Filoral", "Oxtrimethylline", "Oxtriphylline", "Soliphylline", "Teokolin", "Theophylline cholinate", "Theoxylline", "Teovent", "Zy 15061", "Sabidal", "Choledyl SA", "Teofilcolina", "Oxytrimethylline"], "SMILES": "C([N+](C)(C)C)CO.O=C1C2=C(N(C)C(=O)N1C)N=C[N-]2", "physical_data": {"Molecular Weight": "", "Molecular Formula": "C7H7N4O2.C5H14NO", "Melting Point": "176-178 \u00b0C"}}