{"cas_no": "4499-83-6", "cn_name": "\u5bf9\u516d\u8054\u82ef", "en_name": ["1,1\u2032:4\u2032,1\u2032\u2032:4\u2032\u2032,1\u2032\u2032\u2032:4\u2032\u2032\u2032,1\u2032\u2032\u2032\u2032:4\u2032\u2032\u2032\u2032,1\u2032\u2032\u2032\u2032\u2032-Sexiphenyl", "1,1\u2032:4\u2032,1\u2032\u2032:4\u2032\u2032,1\u2032\u2032\u2032:4\u2032\u2032\u2032,1\u2032\u2032\u2032\u2032:4\u2032\u2032\u2032\u2032,1\u2032\u2032\u2032\u2032\u2032-Sexiphenyl", "p-Sexiphenyl", "4,4\u2032\u2032\u2032-Diphenyl-p-quaterphenyl", "1,1\u2032:4\u2032,1\u2032\u2032:4\u2032\u2032,1\u2032\u2032\u2032-Quaterphenyl, 4,4\u2032\u2032\u2032-diphenyl-", "p-Hexaphenyl", "p-Sexiphenylene", "1-Phenyl-4-[4-[4-(4-phenylphenyl)phenyl]phenyl]benzene"], "SMILES": "C1(=CC=C(C=C1)C2=CC=C(C=C2)C3=CC=CC=C3)C4=CC=C(C=C4)C5=CC=C(C=C5)C6=CC=CC=C6", "physical_data": {"Molecular Weight": "458.59", "Molecular Formula": "C36H26", "Melting Point": "475 \u00b0C (sublm)"}}