{"cas_no": "450-95-3", "cn_name": "2-\u6c1f\u82ef\u4e59\u916e", "en_name": ["2-Fluoro-1-phenylethanone", "Ethanone, 2-fluoro-1-phenyl-", "Acetophenone, 2-fluoro-", "2-Fluoro-1-phenylethanone", "2-Fluoroacetophenone", "\u03b1-Fluoroacetophenone", "Phenacyl fluoride", "\u03c9-Fluoroacetophenone", "Monofluoromethyl phenyl ketone", "2-Fluoro-1-phenylethan-1-one"], "SMILES": "C(CF)(=O)C1=CC=CC=C1", "physical_data": {"Molecular Weight": "138.14", "Molecular Formula": "C8H7FO", "Boiling Point": "80-85 \u00b0C @ Press: 16 Torr", "Melting Point": "29 \u00b0C", "Density": "1.154 g/cm\u00b3 @ Temp: 20 \u00b0C"}}