{"cas_no": "450-93-1", "cn_name": "4-\u6c1f-2-\u7532\u6c27\u57fa\u82ef\u915a", "en_name": ["4-Fluoro-2-methoxyphenol", "Phenol, 4-fluoro-2-methoxy-", "4-Fluoro-2-methoxyphenol", "2-Methoxy-4-fluorophenol"], "SMILES": "O(C)C1=C(O)C=CC(F)=C1", "physical_data": {"Molecular Weight": "142.13", "Molecular Formula": "C7H7FO2", "Boiling Point": "94-95 \u00b0C @ Press: 16 Torr"}}