{"cas_no": "450-83-9", "cn_name": "4-\u6c1f-2-\u7532\u6c27\u57fa\u82ef\u7532\u919b", "en_name": ["4-Fluoro-2-methoxybenzaldehyde", "Benzaldehyde, 4-fluoro-2-methoxy-", "4-Fluoro-2-methoxybenzaldehyde"], "SMILES": "C(=O)C1=C(OC)C=C(F)C=C1", "physical_data": {"Molecular Weight": "154.14", "Molecular Formula": "C8H7FO2", "Melting Point": "53 \u00b0C"}}