{"cas_no": "4500-58-7", "cn_name": "2-\u4e59\u57fa\u82ef\u786b\u915a", "en_name": ["2-Ethylbenzenethiol", "Benzenethiol, 2-ethyl-", "Benzenethiol, o-ethyl-", "2-Ethylbenzenethiol", "o-Ethylbenzenethiol", "2-Ethylbenzothiol", "2-Ethylthiophenol"], "SMILES": "C(C)C1=C(S)C=CC=C1", "physical_data": {"Molecular Weight": "138.23", "Molecular Formula": "C8H10S", "Boiling Point": "207-209 \u00b0C @ Press: 730 Torr", "Density": "1.0349 g/cm\u00b3 @ Temp: 20 \u00b0C"}}