{"cas_no": "4500-12-3", "cn_name": "2-\u91d1\u521a\u70f7\u916e\u809f", "en_name": ["Adamantanone oxime", "Tricyclo[3.3.1.13,7]decan-2-one, oxime", "2-Adamantanone, oxime", "Tricyclo[3.3.1.13,7]decanone, oxime", "Adamantanone oxime", "2-Hydroxyiminoadamantane", "NSC 127840"], "SMILES": "N(O)=C1C2CC3CC1CC(C2)C3", "physical_data": {"Molecular Weight": "165.23", "Molecular Formula": "C10H15NO", "Melting Point": "162.8-163.6 \u00b0C"}}