{"cas_no": "4501-58-0", "cn_name": "\u9f99\u8111\u70ef\u919b", "en_name": ["\u03b1-Campholenal", "3-Cyclopentene-1-acetaldehyde, 2,2,3-trimethyl-, (1R)-", "3-Cyclopentene-1-acetaldehyde, 2,2,3-trimethyl-, (R)-", "\u03b1-Campholenaldehyde", "(1R)-2,2,3-Trimethyl-3-cyclopentene-1-acetaldehyde", "\u03b1-Campholenic aldehyde", "\u03b1-Campholenal", "\u03b1-Campholene aldehyde", "(+)-\u03b1-Campholenaldehyde", "(R)-\u03b1-Campholenic aldehyde", "(+)-(R)-Campholenaldehyde", "(+)-Campholenal", "(+)-\u03b1-Campholenic aldehyde", "(R)-(+)-Campholenic aldehyde", "(+)-Campholenaldehyde", "(+)-(R)-\u03b1-Campholenic aldehyde", "(R)-Campholenal", "2-[(1R)-2,2,3-Trimethylcyclopent-3-en-1-yl]acetaldehyde"], "SMILES": "C(C=O)C1C(C)(C)C(C)=CC1", "physical_data": {"Molecular Weight": "152.23", "Molecular Formula": "C10H16O", "Boiling Point": "68-70 \u00b0C @ Press: 9 Torr"}}