{"cas_no": "4501-31-9", "cn_name": "4-\u7f9f\u57fa\u8089\u6842\u9178", "en_name": ["cis-p-Coumaric acid", "2-Propenoic acid, 3-(4-hydroxyphenyl)-, (2Z)-", "Cinnamic acid, p-hydroxy-, (Z)-", "2-Propenoic acid, 3-(4-hydroxyphenyl)-, (Z)-", "(2Z)-3-(4-Hydroxyphenyl)-2-propenoic acid", "cis-p-Coumaric acid", "cis-p-Hydroxycinnamic acid", "cis-4-Hydroxycinnamic acid", "(Z)-p-Coumaric acid"], "SMILES": "C(=CC(O)=O)C1=CC=C(O)C=C1", "physical_data": {"Molecular Weight": "164.16", "Molecular Formula": "C9H8O3", "Melting Point": "130-131 \u00b0C"}}