{"cas_no": "45019-28-1", "cn_name": "4-\u7532\u57fa\u58ec\u9178", "en_name": ["4-Methylnonanoic acid", "Nonanoic acid, 4-methyl-", "4-Methylnonanoic acid"], "SMILES": "C(CCC(O)=O)(CCCCC)C", "physical_data": {"Molecular Weight": "172.26", "Molecular Formula": "C10H20O2", "Boiling Point": "92 \u00b0C @ Press: 0.1 Torr"}}