{"cas_no": "4502-10-7", "cn_name": "2-\u6c28\u57fa-3-\u7f9f\u57fa\u82ef\u4e59\u916e", "en_name": ["2\u2032-Amino-3\u2032-hydroxyacetophenone", "Ethanone, 1-(2-amino-3-hydroxyphenyl)-", "Acetophenone, 2\u2032-amino-3\u2032-hydroxy-", "1-(2-Amino-3-hydroxyphenyl)ethanone", "2-Amino-3-hydroxyphenyl methyl ketone", "2\u2032-Amino-3\u2032-hydroxyacetophenone", "1-(2-Amino-3-hydroxyphenyl)ethan-1-one"], "SMILES": "C(C)(=O)C1=C(N)C(O)=CC=C1", "physical_data": {"Molecular Weight": "151.16", "Molecular Formula": "C8H9NO2", "Melting Point": "179-181 \u00b0C"}}