{"cas_no": "450412-22-3", "cn_name": "1-\u6eb4-2-\u7898-3-\u7532\u6c27\u57fa\u82ef", "en_name": ["1-Bromo-2-iodo-3-methoxybenzene", "Benzene, 1-bromo-2-iodo-3-methoxy-", "1-Bromo-2-iodo-3-methoxybenzene", "2-Iodo-3-bromoanisole", "3-Bromo-2-iodoanisole"], "SMILES": "O(C)C1=C(I)C(Br)=CC=C1", "physical_data": {"Molecular Weight": "312.93", "Molecular Formula": "C7H6BrIO", "Melting Point": "63-65 \u00b0C"}}