{"cas_no": "450412-28-9", "cn_name": "1-\u6eb4-2-\u7898-3-\u6c2f\u82ef", "en_name": ["1-Bromo-3-chloro-2-iodobenzene", "Benzene, 1-bromo-3-chloro-2-iodo-", "1-Bromo-3-chloro-2-iodobenzene", "3-Chloro-2-iodo-1-bromobenzene"], "SMILES": "IC1=C(Br)C=CC=C1Cl", "physical_data": {"Molecular Weight": "317.35", "Molecular Formula": "C6H3BrClI", "Melting Point": "75-76 \u00b0C"}}