{"cas_no": "4504-88-5", "cn_name": "11-[3-(\u4e8c\u7532\u80fa\u57fa)\u4e19\u57fa]-6,11-\u4e8c\u6c22\u4e8cBENZ[B,E]\u6c27\u6742\u73af\u5e9a\u70f7-11-\u9187", "en_name": ["11-[3-(Dimethylamino)propyl]-6,11-dihydrodibenz[b,e]oxepin-11-ol", "Dibenz[b,e]oxepin-11-ol, 11-[3-(dimethylamino)propyl]-6,11-dihydro-", "11-[3-(Dimethylamino)propyl]-6,11-dihydrodibenz[b,e]oxepin-11-ol", "11-[3-(Dimethylamino)propyl]-6H-benzo[c][1]benzoxepin-11-ol"], "SMILES": "C(CCN(C)C)C1(O)C=2C(COC=3C1=CC=CC3)=CC=CC2", "physical_data": {"Molecular Weight": "297.39", "Molecular Formula": "C19H23NO2", "Melting Point": "119-120 \u00b0C"}}