{"cas_no": "4504-87-4", "cn_name": "6,11-\u4e8c\u6c22\u4e8c\u82ef\u5e76[b,e]\u6c27\u6742\u5353-11-\u916e", "en_name": ["Dibenz[b,e]oxepin-11(6H)-one", "Dibenz[b,e]oxepin-11(6H)-one", "6,11-Dihydrodibenz[b,e]oxepin-11-one"], "SMILES": "O=C1C=2C(COC=3C1=CC=CC3)=CC=CC2", "physical_data": {"Molecular Weight": "210.23", "Molecular Formula": "C14H10O2", "Melting Point": "71-72 \u00b0C"}}