{"cas_no": "4504-96-5", "cn_name": "\u591a\u585e\u5e73\u6742\u8d28C", "en_name": ["1-Propanamine, 3-dibenz[b,e]oxepin-11(6H)-ylidene-N-methyl-, hydrochloride (1:1), (3E)-", "1-Propanamine, 3-dibenz[b,e]oxepin-11(6H)-ylidene-N-methyl-, hydrochloride (1:1), (3E)-", "Dibenz[b,e]oxepin-\u039411(6H),\u03b3-propylamine, N-methyl-, hydrochloride, cis-", "1-Propanamine, 3-dibenz[b,e]oxepin-11(6H)-ylidene-N-methyl-, hydrochloride, (E)-", "Dibenz[b,e]oxepin, 1-propanamine deriv."], "SMILES": "C(CCNC)=C1C=2C(COC=3C1=CC=CC3)=CC=CC2.Cl", "physical_data": {"Molecular Weight": "", "Molecular Formula": "C18H19NO.ClH", "Melting Point": "225-226.5 \u00b0C"}}