{"cas_no": "4506-71-2", "cn_name": "2-\u6c28\u57fa-4,5,6,7-\u56db\u6c22\u82ef\u5e76\u567b\u915a-3-\u7fa7\u9178\u4e59\u916f", "en_name": ["Ethyl 2-amino-4,5,6,7-tetrahydrobenzo[b]thiophene-3-carboxylate", "Benzo[b]thiophene-3-carboxylic acid, 2-amino-4,5,6,7-tetrahydro-, ethyl ester", "Ethyl 2-amino-4,5,6,7-tetrahydrobenzo[b]thiophene-3-carboxylate", "2-Amino-3-carboethoxy-4,5-tetramethylenethiophene", "2-Amino-3-(ethoxycarbonyl)-4,5-tetramethylenethiophene", "2-Amino-4,5,6,7-tetrahydrobenzo[b]thiophene-3-carboxylic acid ethyl ester", "NSC 99005", "Ethyl 2-amino-4,5,6,7-tetrahydrobenzothiophene-3-carboxylate", "2-Amino-4,5,6,7-tetrahydro-3-ethoxycarbonylbenzothiophene", "2-Amino-3-ethoxycarbonyl-4,5,6,7-tetrahydrobenzo[b]thiophene", "Ethyl 2-amino-4,5,6,7-tetrahydro-1-benzothiophene-3-carboxylate", "2-Amino-4,5,6,7-tetrahydrobenzothiophene-3-carboxylic acid ethyl ester"], "SMILES": "C(OCC)(=O)C=1C2=C(SC1N)CCCC2", "physical_data": {"Molecular Weight": "225.31", "Molecular Formula": "C11H15NO2S", "Melting Point": "117-118 \u00b0C"}}