{"cas_no": "4507-13-5", "cn_name": "\u51c0\u53f8\u4ed6\u4e01", "en_name": ["Ethyl 2-amino-5-ethylthiophene-3-carboxylate", "3-Thiophenecarboxylic acid, 2-amino-5-ethyl-, ethyl ester", "Ethyl 2-amino-5-ethyl-3-thiophenecarboxylate", "NSC 159633", "Ethyl 2-amino-5-ethylthiophene-3-carboxylate", "2-Amino-5-ethylthiophene-3-carboxylic acid ethyl ester", "5-Ethyl-3-methyl-thiophen-2-amine"], "SMILES": "C(OCC)(=O)C1=C(N)SC(CC)=C1", "physical_data": {"Molecular Weight": "199.27", "Molecular Formula": "C9H13NO2S", "Melting Point": "67-68 \u00b0C"}}