{"cas_no": "4509-90-4", "cn_name": "5-\u6eb4\u620a\u9170\u6c2f", "en_name": ["5-Bromovaleryl chloride", "Pentanoyl chloride, 5-bromo-", "Valeryl chloride, 5-bromo-", "5-Bromopentanoyl chloride", "5-Bromovaleryl chloride", "5-Bromovaleric acid chloride", "5-Bromovaleroyl chloride"], "SMILES": "C(CCCBr)C(Cl)=O", "physical_data": {"Molecular Weight": "199.47", "Molecular Formula": "C5H8BrClO", "Boiling Point": "103-105 \u00b0C @ Press: 20 Torr"}}