{"cas_no": "4509-11-9", "cn_name": "3,4-\u73af\u6c27\u56db\u6c22\u567b\u5429-1,1-\u4e8c\u6c27\u5316\u7269", "en_name": ["6-Oxa-3-thiabicyclo[3.1.0]hexane, 3,3-dioxide", "6-Oxa-3-thiabicyclo[3.1.0]hexane, 3,3-dioxide", "2,3-Epoxytetramethylene sulfone", "Tetramethylene sulfone, 2,3-epoxy-", "3,4-Epoxysulfolane", "2,3-Epoxy-1,4-butanediyl sulfone", "3,4-Epoxytetrahydrothiophene 1,1-dioxide", "NSC 24263", "3,4-Epoxy-1,2,3,4-tetrahydrothiophene-1,1-dioxide"], "SMILES": "O=S1(=O)CC2C(O2)C1", "physical_data": {"Molecular Weight": "134.15", "Molecular Formula": "C4H6O3S", "Melting Point": "130 \u00b0C (sublm)"}}