{"cas_no": "451-80-9", "cn_name": "2-\u6c1f\u4ee3\u82ef\u4e59\u919a", "en_name": ["1-Ethoxy-2-fluorobenzene", "Benzene, 1-ethoxy-2-fluoro-", "Phenetole, o-fluoro-", "1-Ethoxy-2-fluorobenzene", "o-Fluorophenetole", "2-Fluorophenetole", "2-Fluoro-1-ethoxybenzene", "2-Ethoxyfluorobenzene", "NSC 89718"], "SMILES": "O(CC)C1=C(F)C=CC=C1", "physical_data": {"Molecular Weight": "140.15", "Molecular Formula": "C8H9FO", "Boiling Point": "171.4 \u00b0C", "Melting Point": "-16.7 \u00b0C"}}