{"cas_no": "451-81-0", "cn_name": "\u90bb\u6c1f\u82ef\u4e59\u9170\u6c2f", "en_name": ["2-Fluorobenzeneacetyl chloride", "Benzeneacetyl chloride, 2-fluoro-", "Acetyl chloride, (o-fluorophenyl)-", "2-Fluorobenzeneacetyl chloride", "o-Fluorophenylacetyl chloride", "2-(2-Fluorophenyl)acetyl chloride"], "SMILES": "C(C(Cl)=O)C1=C(F)C=CC=C1", "physical_data": {"Molecular Weight": "172.58", "Molecular Formula": "C8H6ClFO", "Boiling Point": "203-204 \u00b0C"}}