{"cas_no": "451-79-6", "cn_name": "2-\u6c1f\u82ef\u7532\u919b\u809f", "en_name": ["Benzaldehyde, 2-fluoro-, oxime", "Benzaldehyde, 2-fluoro-, oxime", "o-Fluorobenzaldoxime", "2-Fluorobenzaldoxime", "2-Fluorobenzaldehyde oxime"], "SMILES": "C(=NO)C1=C(F)C=CC=C1", "physical_data": {"Molecular Weight": "139.13", "Molecular Formula": "C7H6FNO", "Melting Point": "64.5-65 \u00b0C"}}