{"cas_no": "451-46-7", "cn_name": "\u5bf9\u6c1f\u82ef\u7532\u9178\u4e59\u916f", "en_name": ["Ethyl 4-fluorobenzoate", "Benzoic acid, 4-fluoro-, ethyl ester", "Benzoic acid, p-fluoro-, ethyl ester", "Ethyl p-fluorobenzoate", "Ethyl 4-fluorobenzoate", "4-Fluorobenzoic acid ethyl ester", "4-Carbethoxyphenyl fluoride", "NSC 190692"], "SMILES": "C(OCC)(=O)C1=CC=C(F)C=C1", "physical_data": {"Molecular Weight": "168.16", "Molecular Formula": "C9H9FO2", "Boiling Point": "210 \u00b0C", "Melting Point": "26 \u00b0C"}}