{"cas_no": "451-40-1", "cn_name": "\u4e8c\u82ef\u57fa\u4e59\u916e", "en_name": ["2-Phenylacetophenone", "Ethanone, 1,2-diphenyl-", "Acetophenone, 2-phenyl-", "1,2-Diphenylethanone", "Benzoin, deoxy-", "Deoxybenzoin", "Desoxybenzoin", "Phenyl benzyl ketone", "Benzyl phenyl ketone", "2-Phenylacetophenone", "1,2-Diphenylethan-1-one", "\u03b1-Phenylacetophenone", "Phenylmethyl phenyl ketone", "NSC 131456", "NSC 249236", "NSC 6097"], "SMILES": "C(CC1=CC=CC=C1)(=O)C2=CC=CC=C2", "physical_data": {"Molecular Weight": "196.24", "Molecular Formula": "C14H12O", "Boiling Point": "320 \u00b0C", "Melting Point": "60 \u00b0C"}}