{"cas_no": "451-13-8", "cn_name": "\u5c3f\u9ed1\u9178", "en_name": ["Homogentisic acid", "Benzeneacetic acid, 2,5-dihydroxy-", "Acetic acid, (2,5-dihydroxyphenyl)-", "2,5-Dihydroxybenzeneacetic acid", "Alcapton", "2,5-Dihydroxyphenylacetic acid", "2,5-Dihydroxy-\u03b1-toluic acid", "Homogentisic acid", "Homogentisinic acid", "NSC 88940", "2-(2,5-Dihydroxyphenyl)acetic acid", "MeSH ID: D006713"], "SMILES": "C(C(O)=O)C1=C(O)C=CC(O)=C1", "physical_data": {"Molecular Weight": "168.15", "Molecular Formula": "C8H8O4", "Melting Point": "153 \u00b0C"}}