{"cas_no": "451-82-1", "cn_name": "2-\u6c1f\u82ef\u4e59\u9178", "en_name": ["(2-Fluorophenyl)acetic acid", "Benzeneacetic acid, 2-fluoro-", "Acetic acid, (o-fluorophenyl)-", "2-Fluorobenzeneacetic acid", "(o-Fluorophenyl)acetic acid", "(2-Fluorophenyl)acetic acid", "NSC 401", "2-(2-Fluorophenyl)ethanoic acid hydrochloride", "o-Fluorobenzeneacetic acid", "2-(2-Fluorophenyl)acetic acid"], "SMILES": "C(C(O)=O)C1=C(F)C=CC=C1", "physical_data": {"Molecular Weight": "154.14", "Molecular Formula": "C8H7FO2", "Melting Point": "63 \u00b0C"}}