{"cas_no": "451-02-5", "cn_name": "3-\u6c1f\u82ef\u7532\u9178\u4e59\u916f", "en_name": ["Benzoic acid, 3-fluoro-, ethyl ester", "Benzoic acid, 3-fluoro-, ethyl ester", "Benzoic acid, m-fluoro-, ethyl ester", "Ethyl 3-fluorobenzoate", "3-Fluorobenzoic acid ethyl ester"], "SMILES": "C(OCC)(=O)C1=CC(F)=CC=C1", "physical_data": {"Molecular Weight": "168.16", "Molecular Formula": "C9H9FO2", "Boiling Point": "94-95 \u00b0C @ Press: 16 Torr", "Density": "1.1164 g/cm\u00b3 @ Temp: 40 \u00b0C"}}