{"cas_no": "451-69-4", "cn_name": "\u90bb\u6c1f\u8089\u6842\u9178", "en_name": ["3-(2-Fluorophenyl)-2-propenoic acid", "2-Propenoic acid, 3-(2-fluorophenyl)-", "Cinnamic acid, o-fluoro-", "3-(2-Fluorophenyl)-2-propenoic acid", "o-Fluorocinnamic acid", "2-Fluorocinnamic acid", "3-(2-Fluorophenyl)propenoic acid", "NSC 73989", "3-(2-Fluorophenyl)acrylic acid"], "SMILES": "C(=CC(O)=O)C1=C(F)C=CC=C1", "physical_data": {"Molecular Weight": "166.15", "Molecular Formula": "C9H7FO2", "Melting Point": "175 \u00b0C"}}