{"cas_no": "45102-52-1", "cn_name": "2,2,3,3-\u56db\u6c1f\u4e19\u57fa\u7532\u57fa\u4e19\u70ef\u9178\u916f", "en_name": ["2,2,3,3-Tetrafluoropropyl methacrylate", "2-Propenoic acid, 2-methyl-, 2,2,3,3-tetrafluoropropyl ester", "Methacrylic acid, 2,2,3,3-tetrafluoropropyl ester", "2,2,3,3-Tetrafluoropropyl methacrylate", "Viscoat 4FM", "1,1,3-Trihydroperfluoropropyl methacrylate", "1,1,3-Trihydrotetrafluoropropyl methacrylate", "M 5210", "1H,1H,3H-Tetrafluoropropyl methacrylate", "2,2,3,3-Tetrafluoropropyl 2-methylprop-2-enoate", "M 1150"], "SMILES": "C(COC(C(C)=C)=O)(C(F)F)(F)F", "physical_data": {"Molecular Weight": "200.13", "Molecular Formula": "C7H8F4O2", "Boiling Point": "124 \u00b0C", "Density": "1.2598 g/cm\u00b3 @ Temp: 20 \u00b0C"}}