{"cas_no": "4510-08-1", "cn_name": "2-\u6c28\u57fa-4-\u7532\u786b\u57fa\u4e01\u9170\u80fa", "en_name": ["L-Methioninamide", "Butanamide, 2-amino-4-(methylthio)-, (2S)-", "Methioninamide, L-", "Butanamide, 2-amino-4-(methylthio)-, (S)-", "(2S)-2-Amino-4-(methylthio)butanamide", "L-Methioninamide", "L-Methionine amide", "Methioninamide", "(2S)-2-Amino-4-methylsulfanylbutanamide", "(2S)-2-Amino-4-(methylsulfanyl)butanamide"], "SMILES": "C(C(N)=O)(CCSC)N", "physical_data": {"Molecular Weight": "148.23", "Molecular Formula": "C5H12N2OS", "Melting Point": "234 \u00b0C"}}