{"cas_no": "4511-42-6", "cn_name": "L-\u4e19\u4ea4\u916f", "en_name": ["L-Lactide", "1,4-Dioxane-2,5-dione, 3,6-dimethyl-, (3S,6S)-", "p-Dioxane-2,5-dione, 3,6-dimethyl-, L-", "1,4-Dioxane-2,5-dione, 3,6-dimethyl-, (3S-cis)-", "(3S,6S)-3,6-Dimethyl-1,4-dioxane-2,5-dione", "L-Lactide", "(S,S)-3,6-Dimethyl-1,4-dioxane-2,5-dione", "L,L-Dilactide", "L-(-)-Lactide", "L-Dilactide", "(-)-L-Dilactide", "LL-Lactide", "1,4-Dioxane-2,5-dione, 3,6-dimethyl-, (3S,5S)-", "Purasorb L", "Scolat AL", "Puralact B 3", "PuraLact L", "Purac TL", "Lumilact L", "Esun LA 99"], "SMILES": "CC1C(=O)OC(C)C(=O)O1", "physical_data": {"Molecular Weight": "144.13", "Molecular Formula": "C6H8O4", "Melting Point": "95-96 \u00b0C"}}