{"cas_no": "4513-56-8", "cn_name": "\u7532\u57fa\u4e19\u70ef\u91782-\u6eb4\u4e59\u916f (\u542b\u7a33\u5b9a\u5242MEHQ)", "en_name": ["2-Bromoethyl methacrylate", "2-Propenoic acid, 2-methyl-, 2-bromoethyl ester", "Methacrylic acid, 2-bromoethyl ester", "Ethanol, 2-bromo-, methacrylate", "2-Bromoethyl methacrylate", "NSC 18594"], "SMILES": "C(C(C)=C)(OCCBr)=O", "physical_data": {"Molecular Weight": "193.04", "Molecular Formula": "C6H9BrO2", "Boiling Point": "80 \u00b0C @ Press: 16 Torr", "Melting Point": "63-65 \u00b0C", "Density": "1.3994 g/cm\u00b3 @ Temp: 20 \u00b0C"}}