{"cas_no": "4513-94-4", "cn_name": "\u5421\u54af-2-\u8148", "en_name": ["Pyrrole-2-carbonitrile", "1H-Pyrrole-2-carbonitrile", "Pyrrole-2-carbonitrile", "2-Cyanopyrrole", "NSC 106054"], "SMILES": "C(#N)C1=CC=CN1", "physical_data": {"Molecular Weight": "92.10", "Molecular Formula": "C5H4N2", "Boiling Point": "89-90 \u00b0C @ Press: 1.6 Torr"}}