{"cas_no": "4515-23-5", "cn_name": "Z-\u5929\u51ac\u6c28\u9178\u9178\u9150", "en_name": ["Phenylmethyl [(3S)-tetrahydro-2,5-dioxo-3-furanyl]carbamate", "Carbamic acid, [(3S)-tetrahydro-2,5-dioxo-3-furanyl]-, phenylmethyl ester", "Carbamic acid, (tetrahydro-2,5-dioxo-3-furanyl)-, phenylmethyl ester, (S)-", "Aspartic anhydride, N-carboxy-, N-benzyl ester, L-", "Phenylmethyl [(3S)-tetrahydro-2,5-dioxo-3-furanyl]carbamate", "N-Carbobenzoxy-L-aspartic anhydride", "N-Carbobenzoxy-L-aspartic acid anhydride", "N-(Benzyloxycarbonyl)-L-aspartic anhydride", "N-(Benzyloxycarbonyl)-L-aspartic acid anhydride", "N-(Benzyloxycarbonyl)aspartic anhydride", "Cbz-L-Aspartic acid anhydride", "\u03b2-Benzyl L-aspartate N-carboxyl anhydride"], "SMILES": "N(C(OCC1=CC=CC=C1)=O)C2C(=O)OC(=O)C2", "physical_data": {"Molecular Weight": "249.22", "Molecular Formula": "C12H11NO5", "Melting Point": "124 \u00b0C"}}