{"cas_no": "4518-98-3", "cn_name": "1,2-\u4e8c\u7532\u57fa-1,1,2,2-\u56db\u6c2f\u4e8c\u7845\u70f7", "en_name": ["1,1,2,2-Tetrachloro-1,2-dimethyldisilane", "Disilane, 1,1,2,2-tetrachloro-1,2-dimethyl-", "1,1,2,2-Tetrachloro-1,2-dimethyldisilane", "1,2-Dimethyltetrachlorodisilane", "1,1,2,2-Tetrachlorodimethyldisilane", "sym-Dimethyltetrachlorodisilane", "1,2-Dimethyl-1,1,2,2-tetrachlorodisilane"], "SMILES": "[Si]([Si](C)(Cl)Cl)(C)(Cl)Cl", "physical_data": {"Molecular Weight": "228.05", "Molecular Formula": "C2H6Cl4Si2", "Boiling Point": "45 \u00b0C @ Press: 5 Torr"}}