{"cas_no": "4518-10-9", "cn_name": "3-\u6c28\u57fa\u82ef\u7532\u9178\u7532\u916f", "en_name": ["Methyl 3-aminobenzoate", "Benzoic acid, 3-amino-, methyl ester", "Benzoic acid, m-amino-, methyl ester", "Methyl m-aminobenzoate", "Methyl 3-aminobenzoate", "3-(Methoxycarbonyl)aniline", "3-Carbomethoxyaniline", "3-Aminobenzoic acid methyl ester", "m-Aminobenzoic acid methyl ester", "Methyl 3-aminophenylcarboxylate", "(3-(Methoxycarbonyl)phenyl)amine"], "SMILES": "C(OC)(=O)C1=CC(N)=CC=C1", "physical_data": {"Molecular Weight": "151.16", "Molecular Formula": "C8H9NO2", "Boiling Point": "152-153 \u00b0C @ Press: 11 Torr", "Melting Point": "39 \u00b0C"}}