{"cas_no": "4518-94-9", "cn_name": "\u4e8c\u6c2f\u7532\u57fa-N-\u4e19\u57fa\u7845\u70f7", "en_name": ["Propylmethyldichlorosilane", "Silane, dichloromethylpropyl-", "Dichloromethylpropylsilane", "Methylpropyldichlorosilane", "Dichloro(methyl)propylsilane", "Propylmethyldichlorosilane", "LS 450", "NSC 96614"], "SMILES": "C([Si](C)(Cl)Cl)CC", "physical_data": {"Molecular Weight": "157.11", "Molecular Formula": "C4H10Cl2Si", "Boiling Point": "125 \u00b0C", "Density": "1.027 g/cm\u00b3"}}