{"cas_no": "4519-39-5", "cn_name": "2,3-\u4e8c\u6c1f\u82ef\u7532\u9178", "en_name": ["2,3-Difluorobenzoic acid", "Benzoic acid, 2,3-difluoro-", "2,3-Difluorobenzoic acid"], "SMILES": "C(O)(=O)C1=C(F)C(F)=CC=C1", "physical_data": {"Molecular Weight": "158.10", "Molecular Formula": "C7H4F2O2", "Melting Point": "164 \u00b0C"}}