{"cas_no": "4519-40-8", "cn_name": "2,3-\u4e8c\u6c1f\u82ef\u80fa", "en_name": ["2,3-Difluoroaniline", "Benzenamine, 2,3-difluoro-", "Aniline, 2,3-difluoro-", "2,3-Difluorobenzenamine", "2,3-Difluoroaniline", "2,3-Difluorophenylamine"], "SMILES": "FC1=C(F)C=CC=C1N", "physical_data": {"Molecular Weight": "129.11", "Molecular Formula": "C6H5F2N", "Boiling Point": "69 \u00b0C @ Press: 12 Torr"}}