{"cas_no": "452-84-6", "cn_name": "2-\u6c1f-5-\u7532\u57fa\u82ef\u80fa", "en_name": ["2-Fluoro-5-methylaniline", "Benzenamine, 2-fluoro-5-methyl-", "m-Toluidine, 6-fluoro-", "2-Fluoro-5-methylbenzenamine", "2-Fluoro-5-methylaniline", "3-Methyl-6-fluoroaniline", "2-Fluoro-5-methylphenylamine", "NSC 97095"], "SMILES": "NC1=C(F)C=CC(C)=C1", "physical_data": {"Molecular Weight": "125.14", "Molecular Formula": "C7H8FN", "Boiling Point": "88-90 \u00b0C @ Press: 17 Torr"}}