{"cas_no": "452-65-3", "cn_name": "1,3-\u4e8c\u7532\u57fa-4-\u6c1f\u82ef", "en_name": ["1-Fluoro-2,4-dimethylbenzene", "Benzene, 1-fluoro-2,4-dimethyl-", "m-Xylene, 4-fluoro-", "1-Fluoro-2,4-dimethylbenzene", "1,3-Dimethyl-4-fluorobenzene", "2,4-Dimethylfluorobenzene"], "SMILES": "CC1=C(F)C=CC(C)=C1", "physical_data": {"Molecular Weight": "124.16", "Molecular Formula": "C8H9F", "Boiling Point": "140 \u00b0C", "Density": "0.998 g/cm\u00b3 @ Temp: 20 \u00b0C"}}