{"cas_no": "452-80-2", "cn_name": "2-\u6c1f-4-\u7532\u57fa\u82ef\u80fa", "en_name": ["2-Fluoro-4-methylaniline", "Benzenamine, 2-fluoro-4-methyl-", "p-Toluidine, 2-fluoro-", "2-Fluoro-4-methylbenzenamine", "2-Fluoro-p-toluidine", "4-Amino-3-fluorotoluene", "4-Methyl-2-fluoroaniline", "2-Fluoro-4-methylaniline", "(2-Fluoro-4-methylphenyl)amine", "NSC 147489"], "SMILES": "FC1=C(N)C=CC(C)=C1", "physical_data": {"Molecular Weight": "125.14", "Molecular Formula": "C7H8FN", "Boiling Point": "70-71 \u00b0C @ Press: 7 Torr", "Melting Point": "3.2-3.5 \u00b0C", "Density": "1.1084 g/cm\u00b3 @ Temp: 18 \u00b0C"}}