{"cas_no": "452-77-7", "cn_name": "3-\u6c1f-4-\u7532\u57fa\u82ef\u80fa", "en_name": ["3-Fluoro-4-methylaniline", "Benzenamine, 3-fluoro-4-methyl-", "p-Toluidine, 3-fluoro-", "3-Fluoro-4-methylbenzenamine", "3-Fluoro-4-methylaniline", "4-Amino-2-fluorotoluene", "2-Fluoro-4-aminotoluene", "3-Fluoro-p-toluidine", "NSC 57470", "(3-Fluoro-4-methylphenyl)amine", "4-Methyl-3-fluoroaniline"], "SMILES": "FC1=C(C)C=CC(N)=C1", "physical_data": {"Molecular Weight": "125.14", "Molecular Formula": "C7H8FN", "Boiling Point": "200-205 \u00b0C", "Melting Point": "32 \u00b0C"}}