{"cas_no": "452-06-2", "cn_name": "2-\u6c28\u57fa\u560c\u5464", "en_name": ["2-Aminopurine", "9H-Purin-2-amine", "Purine, 2-amino-", "1H-Purin-2-amine", "2-Aminopurine", "SQ 22451", "NSC 24129", "Isoadenine", "(9H-Purin-2-yl)amine", "MeSH ID: D015075"], "SMILES": "NC=1N=C2C(=CN1)NC=N2", "physical_data": {"Molecular Weight": "135.13", "Molecular Formula": "C5H5N5", "Melting Point": "275-282 \u00b0C"}}