{"cas_no": "452-79-9", "cn_name": "3-\u6c1f-4-\u7898\u7532\u82ef", "en_name": ["2-Fluoro-1-iodo-4-methylbenzene", "Benzene, 2-fluoro-1-iodo-4-methyl-", "Toluene, 3-fluoro-4-iodo-", "2-Fluoro-1-iodo-4-methylbenzene", "3-Fluoro-4-iodotoluene"], "SMILES": "FC1=C(I)C=CC(C)=C1", "physical_data": {"Molecular Weight": "236.03", "Molecular Formula": "C7H6FI", "Boiling Point": "138-139 \u00b0C @ Press: 9 Torr"}}