{"cas_no": "452-74-4", "cn_name": "4-\u6eb4-3-\u6c1f\u7532\u82ef", "en_name": ["4-Bromo-3-fluorotoluene", "Benzene, 1-bromo-2-fluoro-4-methyl-", "Toluene, 4-bromo-3-fluoro-", "1-Bromo-2-fluoro-4-methylbenzene", "3-Fluoro-4-bromotoluene", "4-Bromo-3-fluorotoluene", "2-Fluoro-4-methyl-1-bromobenzene"], "SMILES": "FC1=C(Br)C=CC(C)=C1", "physical_data": {"Molecular Weight": "189.02", "Molecular Formula": "C7H6BrF", "Boiling Point": "169 \u00b0C @ Press: 756 Torr"}}