{"cas_no": "452-85-7", "cn_name": "5-\u6c1f-2-\u7532\u57fa\u82ef\u915a", "en_name": ["5-Fluoro-2-methylphenol", "Phenol, 5-fluoro-2-methyl-", "o-Cresol, 5-fluoro-", "5-Fluoro-2-methylphenol", "2-Methyl-5-fluorophenol"], "SMILES": "OC1=C(C)C=CC(F)=C1", "physical_data": {"Molecular Weight": "126.13", "Molecular Formula": "C7H7FO", "Boiling Point": "66 \u00b0C @ Press: 4 Torr"}}