{"cas_no": "452-75-5", "cn_name": "4-\u6c2f-2-\u6c1f\u7532\u82ef", "en_name": ["4-Chloro-2-fluoro-1-methylbenzene", "Benzene, 4-chloro-2-fluoro-1-methyl-", "Toluene, 4-chloro-2-fluoro-", "4-Chloro-2-fluoro-1-methylbenzene", "2-Fluoro-4-chlorotoluene", "4-Chloro-2-fluorotoluene"], "SMILES": "FC1=C(C)C=CC(Cl)=C1", "physical_data": {"Molecular Weight": "144.57", "Molecular Formula": "C7H6ClF", "Boiling Point": "158 \u00b0C @ Press: 743 Torr"}}