{"cas_no": "452-62-0", "cn_name": "3-\u6eb4-4-\u6c1f\u7532\u82ef", "en_name": ["2-Bromo-1-fluoro-4-methylbenzene", "Benzene, 2-bromo-1-fluoro-4-methyl-", "Toluene, 3-bromo-4-fluoro-", "2-Bromo-1-fluoro-4-methylbenzene", "3-Bromo-4-fluorotoluene", "2-Fluoro-5-methyl-1-bromobenzene", "2-Fluoro-5-methylbromobenzene", "NSC 88313", "1-Bromo-2-fluoro-5-methylbenzene", "5-Methyl-2-fluorobromobenzene"], "SMILES": "BrC1=C(F)C=CC(C)=C1", "physical_data": {"Molecular Weight": "189.02", "Molecular Formula": "C7H6BrF", "Boiling Point": "174-177 \u00b0C @ Press: 757 Torr"}}