{"cas_no": "452-08-4", "cn_name": "2-\u6eb4-4-\u6c1f\u82ef\u7532\u919a", "en_name": ["2-Bromo-4-fluoro-1-methoxybenzene", "Benzene, 2-bromo-4-fluoro-1-methoxy-", "Anisole, 2-bromo-4-fluoro-", "2-Bromo-4-fluoro-1-methoxybenzene", "2-Bromo-4-fluoroanisole", "NSC 10328", "4-Fluoro-2-bromoanisole"], "SMILES": "O(C)C1=C(Br)C=C(F)C=C1", "physical_data": {"Molecular Weight": "205.02", "Molecular Formula": "C7H6BrFO", "Boiling Point": "79 \u00b0C @ Press: 5 Torr"}}