{"cas_no": "452-67-5", "cn_name": "2,5-\u4e8c\u6c1f\u7532\u82ef", "en_name": ["1,4-Difluoro-2-methylbenzene", "Benzene, 1,4-difluoro-2-methyl-", "Toluene, 2,5-difluoro-", "1,4-Difluoro-2-methylbenzene", "2,5-Difluorotoluene", "NSC 25757"], "SMILES": "CC1=C(F)C=CC(F)=C1", "physical_data": {"Molecular Weight": "128.12", "Molecular Formula": "C7H6F2", "Boiling Point": "117 \u00b0C"}}