{"cas_no": "452-71-1", "cn_name": "4-\u6c1f-2-\u7532\u57fa\u82ef\u80fa", "en_name": ["4-Fluoro-2-methylaniline", "Benzenamine, 4-fluoro-2-methyl-", "o-Toluidine, 4-fluoro-", "4-Fluoro-2-methylbenzenamine", "2-Amino-5-fluorotoluene", "4-Fluoro-2-methylaniline", "6-Amino-3-fluorotoluene", "2-Methyl-4-fluoroaniline", "4-Fluoro-o-toluidine", "NSC 88300", "(4-Fluoro-2-methylphenyl)amine", "2-Methyl-4-Fluorophenylamine", "4-Fluoro-2-methyl-1-aminobenzene"], "SMILES": "CC1=C(N)C=CC(F)=C1", "physical_data": {"Molecular Weight": "125.14", "Molecular Formula": "C7H8FN", "Boiling Point": "97 \u00b0C @ Press: 20 Torr", "Melting Point": "14.2 \u00b0C", "Density": "1.1263 g/cm\u00b3 @ Temp: 18 \u00b0C"}}