{"cas_no": "452-58-4", "cn_name": "2,3-\u4e8c\u6c28\u57fa\u5421\u5576", "en_name": ["2,3-Diaminopyridine", "2,3-Pyridinediamine", "Pyridine, 2,3-diamino-", "2,3-Diaminopyridine", "NSC 45406"], "SMILES": "NC1=C(N)N=CC=C1", "physical_data": {"Molecular Weight": "109.13", "Molecular Formula": "C5H7N3", "Boiling Point": "165 \u00b0C @ Press: 5 x 10<sup>-3</sup>-0.01 Torr", "Melting Point": "120.8 \u00b0C"}}