{"cas_no": "452-64-2", "cn_name": "3,4-\u4e8c\u7532\u57fa\u6c1f\u82ef", "en_name": ["4-Fluoro-1,2-dimethylbenzene", "Benzene, 4-fluoro-1,2-dimethyl-", "o-Xylene, 4-fluoro-", "4-Fluoro-1,2-dimethylbenzene", "4-Fluoro-1,2-xylene", "4-Fluoro-o-xylene", "1-Fluoro-3,4-dimethylbenzene", "1,2-Dimethyl-4-fluorobenzene", "NSC 76082", "3,4-Dimethylfluorobenzene"], "SMILES": "CC1=C(C)C=CC(F)=C1", "physical_data": {"Molecular Weight": "124.16", "Molecular Formula": "C8H9F", "Boiling Point": "143-144 \u00b0C @ Press: 730 Torr"}}