{"cas_no": "452-66-4", "cn_name": "5-\u6c2f-2-\u6c1f\u7532\u82ef", "en_name": ["4-Chloro-1-fluoro-2-methylbenzene", "Benzene, 4-chloro-1-fluoro-2-methyl-", "Toluene, 5-chloro-2-fluoro-", "4-Chloro-1-fluoro-2-methylbenzene", "2-Fluoro-5-chlorotoluene", "5-Chloro-2-fluorotoluene"], "SMILES": "CC1=C(F)C=CC(Cl)=C1", "physical_data": {"Molecular Weight": "144.57", "Molecular Formula": "C7H6ClF", "Boiling Point": "164-166 \u00b0C"}}