{"cas_no": "452-63-1", "cn_name": "2-\u6eb4-5-\u6c1f\u7532\u82ef", "en_name": ["2-Bromo-5-fluorotoluene", "Benzene, 1-bromo-4-fluoro-2-methyl-", "1-Bromo-4-fluoro-2-methylbenzene", "6-Bromo-3-fluorotoluene", "2-Bromo-5-fluorotoluene", "5-Fluoro-2-bromotoluene", "NSC 88287", "4-Fluoro-2-methyl-1-bromobenzene", "2-Methyl-4-fluorobromobenzene", "4-Fluoro-2-methylphenyl bromide", "4-Bromo-3-methyl-1-fluorobenzene", "1-Bromo-2-methyl-4-fluorobenzene"], "SMILES": "CC1=C(Br)C=CC(F)=C1", "physical_data": {"Molecular Weight": "189.02", "Molecular Formula": "C7H6BrF", "Boiling Point": "177 \u00b0C @ Press: 756 Torr"}}