{"cas_no": "452-78-8", "cn_name": "3-\u6c1f-4-\u7532\u57fa\u82ef\u915a", "en_name": ["3-Fluoro-4-methylphenol", "Phenol, 3-fluoro-4-methyl-", "p-Cresol, 3-fluoro-", "3-Fluoro-4-methylphenol", "3-Fluoro-4-cresol"], "SMILES": "FC1=C(C)C=CC(O)=C1", "physical_data": {"Molecular Weight": "126.13", "Molecular Formula": "C7H7FO", "Boiling Point": "194-196 \u00b0C @ Press: 760 Torr", "Melting Point": "72 \u00b0C"}}