{"cas_no": "452-73-3", "cn_name": "2-\u6c2f-4-\u6c1f\u7532\u82ef", "en_name": ["2-Chloro-4-fluoro-1-methylbenzene", "Benzene, 2-chloro-4-fluoro-1-methyl-", "Toluene, 2-chloro-4-fluoro-", "2-Chloro-4-fluoro-1-methylbenzene", "2-Chloro-4-fluorotoluene", "4-Fluoro-2-chlorotoluene", "NSC 88317"], "SMILES": "ClC1=C(C)C=CC(F)=C1", "physical_data": {"Molecular Weight": "144.57", "Molecular Formula": "C7H6ClF", "Boiling Point": "151.5-153.0 \u00b0C", "Density": "1.1972 g/cm\u00b3 @ Temp: 20 \u00b0C"}}