{"cas_no": "452-70-0", "cn_name": "4-\u6c1f-3-\u7532\u57fa\u82ef\u915a", "en_name": ["4-Fluoro-3-methylphenol", "Phenol, 4-fluoro-3-methyl-", "m-Cresol, 4-fluoro-", "4-Fluoro-3-methylphenol", "4-Fluoro-m-cresol", "3-Methyl-4-fluorophenol", "2-Fluoro-5-hydroxytoluene"], "SMILES": "CC1=C(F)C=CC(O)=C1", "physical_data": {"Molecular Weight": "126.13", "Molecular Formula": "C7H7FO", "Boiling Point": "98-99 \u00b0C @ Press: 12 Torr"}}