{"cas_no": "452-72-2", "cn_name": "4-\u6c1f-2-\u7532\u57fa\u82ef\u915a", "en_name": ["4-Fluoro-2-methylphenol", "Phenol, 4-fluoro-2-methyl-", "o-Cresol, 4-fluoro-", "4-Fluoro-2-methylphenol", "4-Fluoro-o-cresol", "2-Methyl-4-fluorophenol", "NSC 10340"], "SMILES": "CC1=C(O)C=CC(F)=C1", "physical_data": {"Molecular Weight": "126.13", "Molecular Formula": "C7H7FO", "Boiling Point": "83 \u00b0C @ Press: 9 Torr", "Melting Point": "33-34 \u00b0C"}}