{"cas_no": "452-09-5", "cn_name": "4-\u6c2f-2-\u6c1f\u82ef\u7532\u919a", "en_name": ["4-Chloro-2-fluoro-1-methoxybenzene", "Benzene, 4-chloro-2-fluoro-1-methoxy-", "Anisole, 4-chloro-2-fluoro-", "4-Chloro-2-fluoro-1-methoxybenzene", "4-Chloro-2-fluoroanisole", "NSC 10330", "1-Chloro-3-fluoro-4-methoxybenzene"], "SMILES": "O(C)C1=C(F)C=C(Cl)C=C1", "physical_data": {"Molecular Weight": "160.57", "Molecular Formula": "C7H6ClFO", "Boiling Point": "102-103 \u00b0C @ Press: 48 Torr"}}