{"cas_no": "452-68-6", "cn_name": "2-\u6c1f-5-\u7898\u7532\u82ef", "en_name": ["1-Fluoro-4-iodo-2-methylbenzene", "Benzene, 1-fluoro-4-iodo-2-methyl-", "Toluene, 2-fluoro-5-iodo-", "1-Fluoro-4-iodo-2-methylbenzene", "2-Fluoro-5-iodotoluene"], "SMILES": "CC1=C(F)C=CC(I)=C1", "physical_data": {"Molecular Weight": "236.03", "Molecular Formula": "C7H6FI", "Boiling Point": "86-87 \u00b0C @ Press: 9 Torr"}}