{"cas_no": "452-35-7", "cn_name": "\u4e59\u6c27\u82ef\u567b\u5511\u80fa", "en_name": ["Ethoxzolamide", "2-Benzothiazolesulfonamide, 6-ethoxy-", "6-Ethoxy-2-benzothiazolesulfonamide", "U 4191", "Cardrase", "Diuretic C", "Ethoxyzolamide", "Ethoxzolamide", "Etoxzolamide", "L 643786", "PNU 4191", "Glaucotensil", "Ethamide", "Redupresin", "NSC 10679", "6-Ethoxyzolamide", "MeSH ID: D005016"], "SMILES": "S(N)(=O)(=O)C=1SC=2C(N1)=CC=C(OCC)C2", "physical_data": {"Molecular Weight": "258.32", "Molecular Formula": "C9H10N2O3S2", "Melting Point": "188-190.5 \u00b0C"}}