{"cas_no": "452-14-2", "cn_name": "3-\u6c1f-4-\u7532\u6c27\u57fa\u82ef\u4e59\u9178", "en_name": ["(3-Fluoro-4-methoxyphenyl)acetic acid", "Benzeneacetic acid, 3-fluoro-4-methoxy-", "Acetic acid, (3-fluoro-4-methoxyphenyl)-", "3-Fluoro-4-methoxybenzeneacetic acid", "(3-Fluoro-4-methoxyphenyl)acetic acid", "2-(3-Fluoro-4-methoxyphenyl)acetic acid"], "SMILES": "O(C)C1=C(F)C=C(CC(O)=O)C=C1", "physical_data": {"Molecular Weight": "184.16", "Molecular Formula": "C9H9FO3", "Melting Point": "116 \u00b0C"}}