{"cas_no": "452-86-8", "cn_name": "4-\u7532\u57fa\u513f\u8336\u915a", "en_name": ["4-Methylcatechol", "1,2-Benzenediol, 4-methyl-", "Pyrocatechol, 4-methyl-", "4-Methyl-1,2-benzenediol", "Homocatechol", "Homopyrocatechol", "4-Methylcatechol", "4-Methylpyrocatechol", "p-Methylpyrocatechol", "3,4-Dihydroxytoluene", "Toluene-3,4-diol", "4-Methyl-1,2-dihydroxybenzene", "1,2-Dihydroxy-4-methylbenzene", "2-Hydroxy-4-methylphenol", "5-Methylcatechol", "1-Methyl-3,4-dihydroxybenzene", "NSC 17489", "p-Methylcatechol", "4-Methylbenzcatechin", "4-Methyl-1,2-benzediol"], "SMILES": "OC1=C(O)C=CC(C)=C1", "physical_data": {"Molecular Weight": "124.14", "Molecular Formula": "C7H8O2", "Boiling Point": "251 \u00b0C", "Melting Point": "65 \u00b0C", "Density": "1.1287 g/cm\u00b3 @ Temp: 73.6000390625 \u00b0C"}}