{"cas_no": "452-83-5", "cn_name": "2-\u6c2f-5-\u6c1f\u82ef\u80fa", "en_name": ["2-Chloro-5-fluorobenzenamine", "Benzenamine, 2-chloro-5-fluoro-", "Aniline, 2-chloro-5-fluoro-", "2-Chloro-5-fluorobenzenamine", "2-Chloro-5-fluoroaniline", "2-Chloro-5-fluoro-phenylamine"], "SMILES": "NC1=C(Cl)C=CC(F)=C1", "physical_data": {"Molecular Weight": "145.56", "Molecular Formula": "C6H5ClFN", "Boiling Point": "211 \u00b0C", "Melting Point": "26 \u00b0C"}}