{"cas_no": "452-11-9", "cn_name": "3-\u6c1f-4-\u7532\u6c27\u57fa\u82ef\u915a", "en_name": ["3-Fluoro-4-methoxyphenol", "Phenol, 3-fluoro-4-methoxy-", "3-Fluoro-4-methoxyphenol"], "SMILES": "O(C)C1=C(F)C=C(O)C=C1", "physical_data": {"Molecular Weight": "142.13", "Molecular Formula": "C7H7FO2", "Melting Point": "54-55 \u00b0C"}}