{"cas_no": "452-76-6", "cn_name": "2,4-\u4e8c\u6c1f\u7532\u82ef", "en_name": ["2,4-Difluoro-1-methylbenzene", "Benzene, 2,4-difluoro-1-methyl-", "Toluene, 2,4-difluoro-", "2,4-Difluoro-1-methylbenzene", "2,4-Difluorotoluene", "2,4-Difluorobenzyl", "NSC 3465"], "SMILES": "FC1=C(C)C=CC(F)=C1", "physical_data": {"Molecular Weight": "128.12", "Molecular Formula": "C7H6F2", "Boiling Point": "117 \u00b0C @ Press: 775 Torr", "Melting Point": "-35 \u00b0C"}}