{"cas_no": "452-69-7", "cn_name": "2-\u6c1f-5-\u6c28\u57fa\u7532\u82ef", "en_name": ["4-Fluoro-3-methylaniline", "Benzenamine, 4-fluoro-3-methyl-", "m-Toluidine, 4-fluoro-", "4-Fluoro-3-methylbenzenamine", "4-Fluoro-3-methylaniline", "2-Fluoro-5-aminotoluene", "5-Amino-2-fluorotoluene", "(4-Fluoro-3-methylphenyl)amine", "NSC 88319", "3-Methyl-4-fluoroaniline"], "SMILES": "CC1=C(F)C=CC(N)=C1", "physical_data": {"Molecular Weight": "125.14", "Molecular Formula": "C7H8FN", "Boiling Point": "85-86 \u00b0C @ Press: 9 Torr", "Melting Point": "35 \u00b0C"}}