{"cas_no": "452-10-8", "cn_name": "2,4-\u4e8c\u6c1f\u82ef\u7532\u919a", "en_name": ["2,4-Difluoroanisole", "Benzene, 2,4-difluoro-1-methoxy-", "Anisole, 2,4-difluoro-", "2,4-Difluoro-1-methoxybenzene", "2,4-Difluoroanisole", "2,4-Difluoroanisol", "1,3-Difluoro-4-methoxybenzene"], "SMILES": "O(C)C1=C(F)C=C(F)C=C1", "physical_data": {"Molecular Weight": "144.12", "Molecular Formula": "C7H6F2O", "Boiling Point": "52 \u00b0C", "Density": "1.2522 g/cm\u00b3 @ Temp: 20 \u00b0C"}}