{"cas_no": "4521-28-2", "cn_name": "4-(4-\u7532\u6c27\u57fa\u82ef\u57fa)\u4e01\u9178", "en_name": ["4-Methoxybenzenebutanoic acid", "Benzenebutanoic acid, 4-methoxy-", "Butyric acid, 4-(p-methoxyphenyl)-", "Butyric acid, \u03b3-(p-methoxyphenyl)-", "4-Methoxybenzenebutanoic acid", "4-(p-Methoxyphenyl)butyric acid", "4-(4-Methoxyphenyl)butyric acid", "4-(4-Methoxyphenyl)butanoic acid", "NSC 407553"], "SMILES": "C(CCC(O)=O)C1=CC=C(OC)C=C1", "physical_data": {"Molecular Weight": "194.23", "Molecular Formula": "C11H14O3", "Boiling Point": "205-206 \u00b0C @ Press: 13 Torr", "Melting Point": "56-59 \u00b0C"}}