{"cas_no": "4521-22-6", "cn_name": "4-\u5bf9\u7532\u82ef\u57fa\u4e01\u9178", "en_name": ["4-Methylbenzenebutanoic acid", "Benzenebutanoic acid, 4-methyl-", "Butyric acid, 4-p-tolyl-", "4-Methylbenzenebutanoic acid", "4-p-Tolylbutyric acid", "4-(4-Methylphenyl)butyric acid", "NSC 57013", "4-(4-Methylphenyl)butanoic acid", "4-(p-Tolyl)butanoic acid"], "SMILES": "C(CCC(O)=O)C1=CC=C(C)C=C1", "physical_data": {"Molecular Weight": "178.23", "Molecular Formula": "C11H14O2", "Boiling Point": "155 \u00b0C @ Press: 3 Torr", "Melting Point": "58 \u00b0C"}}