{"cas_no": "4521-61-3", "cn_name": "3,4,5-\u4e09\u7532\u6c27\u57fa\u82ef\u7532\u9170\u6c2f", "en_name": ["3,4,5-Trimethoxybenzoyl chloride", "Benzoyl chloride, 3,4,5-trimethoxy-", "3,4,5-Trimethoxybenzoyl chloride", "Trimethylgalloyl chloride", "Tri-O-methylgalloyl chloride", "3,4,5-Trimethoxybenzoic acid chloride", "NSC 91023"], "SMILES": "O(C)C1=C(OC)C=C(C(Cl)=O)C=C1OC", "physical_data": {"Molecular Weight": "230.64", "Molecular Formula": "C10H11ClO4", "Boiling Point": "178-180 \u00b0C @ Press: 10 Torr", "Melting Point": "77-78 \u00b0C"}}