{"cas_no": "4521-33-9", "cn_name": "5-\u785d\u57fa\u567b\u5429-2-\u7532\u919b", "en_name": ["5-Nitro-2-thiophenecarboxaldehyde", "2-Thiophenecarboxaldehyde, 5-nitro-", "5-Nitro-2-thiophenecarboxaldehyde", "2-Formyl-5-nitrothiophene", "5-Nitro-2-formylthiophene", "5-Nitro-2-thiophenealdehyde", "5-Nitro-2-thienylcarboxaldehyde", "NTA", "5-Nitro-2-thienylaldehyde", "2-Nitrothiophene-5-carboxaldehyde", "NSC 168226", "5-Nitrothiophene-2-carbaldehyde", "5-Nitro-2-thienaldehyde"], "SMILES": "N(=O)(=O)C=1SC(C=O)=CC1", "physical_data": {"Molecular Weight": "157.15", "Molecular Formula": "C5H3NO3S", "Boiling Point": "118-120 \u00b0C @ Press: 3-4 Torr", "Melting Point": "77.0-77.5 \u00b0C"}}