{"cas_no": "4521-31-7", "cn_name": "2-\u5def\u57fa\u82ef\u7532\u9187", "en_name": ["2-Mercaptobenzenemethanol", "Benzenemethanol, 2-mercapto-", "Benzyl alcohol, o-mercapto-", "2-Mercaptobenzenemethanol", "o-Mercaptobenzyl alcohol", "Thiosalicyl alcohol", "2-Mercaptobenzyl alcohol", "o-(Hydroxymethyl)benzenethiol", "2-(Hydroxymethyl)benzenethiol", "2-Sulfanylbenzenemethanol", "2-(Hydroxymethyl)thiophenol", "(2-Mercaptophenyl)methanol", "(2-Sulfanylphenyl)methanol"], "SMILES": "C(O)C1=C(S)C=CC=C1", "physical_data": {"Molecular Weight": "140.20", "Molecular Formula": "C7H8OS", "Boiling Point": "85 \u00b0C @ Press: 1 x 10<sup>-3</sup> Torr", "Melting Point": "30-31 \u00b0C"}}