{"cas_no": "4522-93-4", "cn_name": "\u4e94\u6c1f\u82ef\u7532\u9178\u4e59\u916f", "en_name": ["Ethyl 2,3,4,5,6-pentafluorobenzoate", "Benzoic acid, 2,3,4,5,6-pentafluoro-, ethyl ester", "Benzoic acid, pentafluoro-, ethyl ester", "Ethyl 2,3,4,5,6-pentafluorobenzoate", "Ethyl pentafluorobenzoate", "(Ethoxycarbonyl)pentafluorobenzene", "Pentafluorobenzoic acid ethyl ester"], "SMILES": "C(OCC)(=O)C1=C(F)C(F)=C(F)C(F)=C1F", "physical_data": {"Molecular Weight": "240.13", "Molecular Formula": "C9H5F5O2", "Boiling Point": "63 \u00b0C @ Press: 5 Torr"}}