{"cas_no": "45234-02-4", "cn_name": "L-\u8d56\u6c28\u9178-L-\u8c37\u6c28\u9178\u76d0", "en_name": ["Lysylglutamic acid", "L-Glutamic acid, L-lysyl-", "L-Glutamic acid, N-L-lysyl-", "Glutamic acid, N-L-lysyl-", "L-Lysyl-L-glutamic acid", "Lysylglutamic acid", "Vilon", "Vilon (peptide)", "1072: PN: EP2071334 SEQID: 1140 claimed protein", "1072: PN: WO2009077864 SEQID: 1140 claimed protein", "72: PN: EP2161028 PAGE: 10 claimed protein"], "SMILES": "C(NC(C(CCCCN)N)=O)(CCC(O)=O)C(O)=O", "physical_data": {"Molecular Weight": "275.30", "Molecular Formula": "C11H21N3O5", "Melting Point": "195-197 \u00b0C"}}