{"cas_no": "4524-77-0", "cn_name": "2,6-\u4e8c\u6c2f-4-\u6eb4\u82ef\u915a", "en_name": ["2-Bromo-4,6-dichlorophenol", "Phenol, 2-bromo-4,6-dichloro-", "2-Bromo-4,6-dichlorophenol", "2,4-Dichloro-6-bromophenol", "6-Bromo-2,4-dichlorophenol", "NSC 99829"], "SMILES": "OC1=C(Br)C=C(Cl)C=C1Cl", "physical_data": {"Molecular Weight": "241.90", "Molecular Formula": "C6H3BrCl2O", "Melting Point": "68 \u00b0C"}}