{"cas_no": "4524-93-0", "cn_name": "\u73af\u620a\u57fa\u7532\u9170\u6c2f", "en_name": ["Cyclopentanecarbonyl chloride", "Cyclopentanecarbonyl chloride", "Cyclopentanoyl chloride", "Cyclopentylcarbonyl chloride", "Cyclopentanecarboxylic acid chloride", "1-Cyclopentanecarbonyl chloride"], "SMILES": "C(Cl)(=O)C1CCCC1", "physical_data": {"Molecular Weight": "132.59", "Molecular Formula": "C6H9ClO", "Boiling Point": "160-162 \u00b0C"}}