{"cas_no": "4525-44-4", "cn_name": "\u7532\u57fa\u4e59\u57fa\u4e8c\u6c2f\u7845\u70f7", "en_name": ["Dichloroethylmethylsilane", "Silane, dichloroethylmethyl-", "Dichloroethylmethylsilane", "Methylethyldichlorosilane", "(Ethyl)(methyl)dichlorosilane"], "SMILES": "[Si](CC)(C)(Cl)Cl", "physical_data": {"Molecular Weight": "143.09", "Molecular Formula": "C3H8Cl2Si", "Boiling Point": "101 \u00b0C", "Density": "1.063 g/cm\u00b3"}}