{"cas_no": "4525-46-6", "cn_name": "\u82c4\u57fa\u4e09\u7532\u57fa\u7898\u5316\u94f5", "en_name": ["Benzyltrimethylammonium iodide", "Benzenemethanaminium, N,N,N-trimethyl-, iodide (1:1)", "Ammonium, benzyltrimethyl-, iodide", "Benzenemethanaminium, N,N,N-trimethyl-, iodide", "Benzyltrimethylammonium iodide", "Benzyldimethylamine methiodide", "Trimethylbenzylammonium iodide"], "SMILES": "C([N+](C)(C)C)C1=CC=CC=C1.[I-]", "physical_data": {"Molecular Weight": "", "Molecular Formula": "C10H16N.I", "Melting Point": "179 \u00b0C"}}