{"cas_no": "4525-75-1", "cn_name": "2-\u6c2f\u82ef\u57fa\u4e59\u9178\u916f", "en_name": ["2-Chlorophenyl acetate", "Acetic acid, 2-chlorophenyl ester", "Acetic acid, o-chlorophenyl ester", "Phenol, o-chloro-, acetate", "2-Chlorophenyl acetate", "o-Chlorophenyl acetate", "o-Acetoxychlorobenzene", "NSC 404080"], "SMILES": "O(C(C)=O)C1=C(Cl)C=CC=C1", "physical_data": {"Molecular Weight": "170.59", "Molecular Formula": "C8H7ClO2", "Boiling Point": "103 \u00b0C @ Press: 15 Torr", "Melting Point": "-20.5--19.5 \u00b0C", "Density": "1.2166 g/cm\u00b3 @ Temp: 20 \u00b0C"}}