{"cas_no": "4525-33-1", "cn_name": "\u4e8c\u7532\u57fa\u4e8c\u78b3\u9178\u76d0", "en_name": ["Dimethyl dicarbonate", "Dicarbonic acid, 1,3-dimethyl ester", "Formic acid, oxydi-, dimethyl ester", "Dicarbonic acid, dimethyl ester", "Dimethyl pyrocarbonate", "Dimethyl dicarbonate", "Methyl pyrocarbonate", "Velcorin", "Pyrocarbonic acid dimethyl ester"], "SMILES": "O(C(OC)=O)C(OC)=O", "physical_data": {"Molecular Weight": "134.09", "Molecular Formula": "C4H6O5", "Boiling Point": "52-53 \u00b0C @ Press: 4-5 Torr", "Melting Point": "100-101.5 \u00b0C", "Density": "1.258 g/cm\u00b3 @ Temp: 20 \u00b0C"}}