{"cas_no": "45267-19-4", "cn_name": "\u8089\u8c46\u853b\u9170\u80fa\u4e19\u57fa\u4e8c\u7532\u80fa", "en_name": ["Myristamidopropyl dimethylamine", "Tetradecanamide, N-[3-(dimethylamino)propyl]-", "N-[3-(Dimethylamino)propyl]tetradecanamide", "Myristamidopropyl dimethylamine", "Dimethylaminopropyl myristamide", "N-[3-(Dimethylamino)propyl]myristamide", "Lexamine M 13", "Schercodine M", "Aldox", "Opti-free Aldox"], "SMILES": "C(C(NCCCN(C)C)=O)CCCCCCCCCCCC", "physical_data": {"Molecular Weight": "312.53", "Molecular Formula": "C19H40N2O", "Boiling Point": "208-215 \u00b0C @ Press: 1-2 Torr", "Melting Point": "48-49 \u00b0C"}}