{"cas_no": "4526-77-6", "cn_name": "CYCLO(-ALA-GLY)", "en_name": ["Cyclo(alanylglycine)", "2,5-Piperazinedione, 3-methyl-, (3S)-", "2,5-Piperazinedione, 3-methyl-, (S)-", "2,5-Piperazinedione, 3-methyl-, L-", "Cyclo(L-alanylglycyl)", "(3S)-3-Methyl-2,5-piperazinedione", "Alanine, cyclic anhydride with glycine", "N-Glycylalanine, cyclic anhydride", "Cyclo(Gly-Ala)", "Cyclo(glycylalanine)", "Cyclo(alanylglycine)", "Cyclo(Gly-L-Ala)", "Cyclo(Ala-Gly)", "(3S)-3-Methylpiperazine-2,5-dione", "2,5-Piperazinedione 3-methyl-, (3S)-"], "SMILES": "CC1C(=O)NCC(=O)N1", "physical_data": {"Molecular Weight": "128.13", "Molecular Formula": "C5H8N2O2", "Melting Point": "305 \u00b0C (decomp)"}}