{"cas_no": "4528-64-7", "cn_name": "4,4-\u4e8c\u82ef\u57fa-2-\u73af\u5df1\u70ef-1-\u916e", "en_name": ["4,4-Diphenyl-2-cyclohexen-1-one", "2-Cyclohexen-1-one, 4,4-diphenyl-", "4,4-Diphenyl-2-cyclohexen-1-one", "4,4-Diphenyl-2-cyclohexenone", "NSC 82171", "2\u2032H-[1,1\u2032:1\u2032,1\u2032\u2032-Terphenyl]-4\u2032(3\u2032H)-one"], "SMILES": "O=C1CCC(C=C1)(C2=CC=CC=C2)C3=CC=CC=C3", "physical_data": {"Molecular Weight": "248.32", "Molecular Formula": "C18H16O", "Melting Point": "88.0-90.5 \u00b0C"}}