{"cas_no": "452972-14-4", "cn_name": "2-\u6c1f\u5627\u5576-3-\u787c\u9178\u9891\u90a3\u9187\u916f", "en_name": ["2-Fluoro-3-(4,4,5,5-tetramethyl-1,3,2-dioxaborolan-2-yl)pyridine", "Pyridine, 2-fluoro-3-(4,4,5,5-tetramethyl-1,3,2-dioxaborolan-2-yl)-", "2-Fluoro-3-(4,4,5,5-tetramethyl-1,3,2-dioxaborolan-2-yl)pyridine", "2-(2-Fluoro-3-pyridyl)-4,4,5,5-tetramethyl-1,3,2-dioxaborolane", "2-Fluoro-3-(tetramethyl-1,3,2-dioxaborolan-2-yl)pyridine", "2-Fluoropyridine-3-boronic acid pinacol ester"], "SMILES": "FC1=C(B2OC(C)(C)C(C)(C)O2)C=CC=N1", "physical_data": {"Molecular Weight": "223.05", "Molecular Formula": "C11H15BFNO2", "Melting Point": "37-45 \u00b0C"}}