{"cas_no": "453-20-3", "cn_name": "3-\u7f9f\u57fa\u56db\u6c22\u544b\u5583", "en_name": ["(\u00b1)-3-Hydroxytetrahydrofuran", "3-Furanol, tetrahydro-", "3-Furanol, tetrahydro-, (\u00b1)-", "Tetrahydro-3-furanol", "3-Hydroxytetrahydrofuran", "3-Hydroxyoxolane", "(RS)-3-Hydroxytetrahydrofuran", "(\u00b1)-3-Hydroxytetrahydrofuran", "NSC 71875", "Riftal", "3-Oxacyclopentanol", "Oxolan-3-ol", "(3RS)-3-Hydroxytetrahydrofuran"], "SMILES": "OC1CCOC1", "physical_data": {"Molecular Weight": "88.11", "Molecular Formula": "C4H8O2", "Boiling Point": "181 \u00b0C", "Density": "1.087 g/cm\u00b3 @ Temp: 19.14 \u00b0C"}}