{"cas_no": "453-13-4", "cn_name": "1,3-\u4e8c\u6c1f-2-\u4e19\u9187", "en_name": ["1,3-Difluoro-2-propanol", "2-Propanol, 1,3-difluoro-", "1,3-Difluoro-2-propanol", "1,3-Difluoropropane-2-ol", "1,3-Difluoroisopropanol", "NSC 21305", "NSC 76034"], "SMILES": "C(CF)(CF)O", "physical_data": {"Molecular Weight": "96.08", "Molecular Formula": "C3H6F2O", "Boiling Point": "59 \u00b0C @ Press: 40 Torr", "Density": "1.244 g/cm\u00b3 @ Temp: 20 \u00b0C"}}