{"cas_no": "453-11-2", "cn_name": "1-\u6c2f-3-\u6c1f-2-\u4e19\u9187", "en_name": ["1-Chloro-3-fluoro-2-propanol", "2-Propanol, 1-chloro-3-fluoro-", "1-Chloro-3-fluoro-2-propanol", "1-Fluoro-3-chloro-2-propanol", "NSC 21304", "NSC 80643", "1-Chloro-3-fluoroisopropanol"], "SMILES": "C(CCl)(CF)O", "physical_data": {"Molecular Weight": "112.53", "Molecular Formula": "C3H6ClFO", "Boiling Point": "153-156 \u00b0C", "Density": "1.300 g/cm\u00b3 @ Temp: 20 \u00b0C"}}