{"cas_no": "453-71-4", "cn_name": "4-\u6c1f-3-\u785d\u57fa\u82ef\u7532\u9178", "en_name": ["4-Fluoro-3-nitrobenzoic acid", "Benzoic acid, 4-fluoro-3-nitro-", "4-Fluoro-3-nitrobenzoic acid", "4-Carboxy-2-nitrofluorobenzene", "NSC 10311", "3-Nitro-4-fluorobenzoic acid"], "SMILES": "N(=O)(=O)C1=CC(C(O)=O)=CC=C1F", "physical_data": {"Molecular Weight": "185.11", "Molecular Formula": "C7H4FNO4", "Melting Point": "121-122 \u00b0C"}}