{"cas_no": "453-14-5", "cn_name": "1,3-\u4e8c\u6c1f\u4e19\u916e", "en_name": ["1,3-Difluoro-2-propanone", "2-Propanone, 1,3-difluoro-", "1,3-Difluoro-2-propanone", "sym-Difluoroacetone", "1,3-Difluoroacetone", "NSC 21301"], "SMILES": "C(CF)(CF)=O", "physical_data": {"Molecular Weight": "94.06", "Molecular Formula": "C3H4F2O", "Boiling Point": "101-102 \u00b0C"}}