{"cas_no": "453-72-5", "cn_name": "2-\u6c1f-5-\u7532\u57fa\u78fa\u9170\u785d\u57fa\u82ef", "en_name": ["1-Fluoro-4-(methylsulfonyl)-2-nitrobenzene", "Benzene, 1-fluoro-4-(methylsulfonyl)-2-nitro-", "Sulfone, 4-fluoro-3-nitrophenyl methyl", "1-Fluoro-4-(methylsulfonyl)-2-nitrobenzene", "1-Fluoro-2-nitro-4-methylsulfonylbenzene", "4-Fluoro-3-nitrophenyl methyl sulfone", "NSC 226257", "1-Fluoro-4-methylsulfonyl-2-nitrobenzene", "2-Fluoro-5-methylsulfonyl-1-nitrobenzene", "4-(Methylsulfonyl)-2-nitrofluorobenzene", "1-Fluoro-4-methanesulfonyl-2-nitrobenzene", "(3-Nitro-4-fluorophenyl)methyl sulfone", "2-Fluoro-5-methylsulphonylnitrobenzene"], "SMILES": "N(=O)(=O)C1=CC(S(C)(=O)=O)=CC=C1F", "physical_data": {"Molecular Weight": "219.19", "Molecular Formula": "C7H6FNO4S", "Melting Point": "156 \u00b0C"}}