{"cas_no": "453-18-9", "cn_name": "\u6c1f\u4e59\u9178\u7532\u916f", "en_name": ["Methyl fluoroacetate", "Acetic acid, 2-fluoro-, methyl ester", "Acetic acid, fluoro-, methyl ester", "Methyl fluoroacetate", "Methyl 2-fluoroacetate", "Fluoroacetic acid methyl ester"], "SMILES": "C(CF)(OC)=O", "physical_data": {"Molecular Weight": "92.07", "Molecular Formula": "C3H5FO2", "Boiling Point": "104.5 \u00b0C", "Melting Point": "-35 \u00b0C", "Density": "1.1744 g/cm\u00b3 @ Temp: 20 \u00b0C"}}