{"cas_no": "4530-20-5", "cn_name": "BOC-\u7518\u6c28\u9178", "en_name": ["N-(tert-Butoxycarbonyl)glycine", "Glycine, N-[(1,1-dimethylethoxy)carbonyl]-", "Glycine, N-carboxy-, N-tert-butyl ester", "N-[(1,1-Dimethylethoxy)carbonyl]glycine", "N-t-Butyloxycarbonylglycine", "N\u03b1-tert-Butyloxycarbonylglycine", "N-[(tert-Butyloxy)carbonyl]glycine", "N-(tert-Butoxycarbonyl)glycine", "(tert-Butoxycarbonyl)aminoacetic acid", "N-BOC-glycine", "2-(tert-Butoxycarbonylamino)acetic acid", "NSC 127669", "N-[[(1,1-Dimethylethyl)oxy]carbonyl]glycine", "N-tert-Butoxycarbonyl-2-aminoacetic acid", "Boc-L-glycine", "(tert-Butoxycarbonyl)glycine", "Boc-glycine", "2-[(2-Methylpropan-2-yl)oxycarbonylamino]acetic acid"], "SMILES": "O(C(NCC(O)=O)=O)C(C)(C)C", "physical_data": {"Molecular Weight": "175.18", "Molecular Formula": "C7H13NO4", "Melting Point": "88-89 \u00b0C"}}