{"cas_no": "4531-53-7", "cn_name": "1-\u7532\u57fa-5-\u6c2f\u54aa\u5511\u785d\u9178\u76d0", "en_name": ["1H-Imidazole, 5-chloro-1-methyl-, nitrate (1:1)", "1H-Imidazole, 5-chloro-1-methyl-, nitrate (1:1)", "Imidazole, 5-chloro-1-methyl-, nitrate", "1H-Imidazole, 5-chloro-1-methyl-, mononitrate"], "SMILES": "ClC=1N(C)C=NC1.N(=O)(=O)O", "physical_data": {"Molecular Weight": "", "Molecular Formula": "C4H5ClN2.HNO3", "Melting Point": "144-145 \u00b0C (decomp)"}}