{"cas_no": "4531-54-8", "cn_name": "\u4f9d\u7c73\u5170\u6742\u8d28A", "en_name": ["1-Methyl-4-nitro-1H-imidazol-5-amine", "1H-Imidazol-5-amine, 1-methyl-4-nitro-", "Imidazole, 5-amino-1-methyl-4-nitro-", "1-Methyl-4-nitro-1H-imidazol-5-amine", "5-Amino-1-methyl-4-nitroimidazole", "NSC 400013", "3-Methyl-5-nitroimidazol-4-amine", "3-Methyl-5-nitro-3H-imidazol-4-ylamine"], "SMILES": "N(=O)(=O)C1=C(N)N(C)C=N1", "physical_data": {"Molecular Weight": "142.12", "Molecular Formula": "C4H6N4O2", "Melting Point": "299 \u00b0C"}}