{"cas_no": "4532-96-1", "cn_name": "1-\u5f02\u4e19\u57fa\u54aa\u5511", "en_name": ["1-(1-Methylethyl)-1H-imidazole", "1H-Imidazole, 1-(1-methylethyl)-", "Imidazole, 1-isopropyl-", "1-(1-Methylethyl)-1H-imidazole", "1-Isopropylimidazole", "1-Isopropyl-1H-imidazole", "N-Isopropylimidazole", "1-(Propan-2-yl)-1H-imidazole", "1-Propan-2-ylimidazole"], "SMILES": "C(C)(C)N1C=CN=C1", "physical_data": {"Molecular Weight": "110.16", "Molecular Formula": "C6H10N2", "Boiling Point": "62 \u00b0C @ Press: 1 Torr"}}