{"cas_no": "4532-64-3", "cn_name": "2,3-\u4e01\u4e8c\u786b\u9187", "en_name": ["2,3-Butanedithiol", "2,3-Butanedithiol", "2,3-Dimercaptobutane"], "SMILES": "C(C(C)S)(C)S", "physical_data": {"Molecular Weight": "122.25", "Molecular Formula": "C4H10S2", "Boiling Point": "86-87 \u00b0C @ Press: 50 Torr"}}