{"cas_no": "4533-95-3", "cn_name": "2-\u6c2f-5-\u785d\u57fa\u82ef\u78fa\u9170\u6c2f", "en_name": ["2-Chloro-5-nitrobenzenesulfonyl chloride", "Benzenesulfonyl chloride, 2-chloro-5-nitro-", "2-Chloro-5-nitrobenzenesulfonyl chloride", "2-Chloro-5-nitrophenylsulfonyl chloride", "6-Chloro-3-nitrobenzenesulfonyl chloride", "NSC 350627", "2-Chloro-5-nitrobenzene-1-sulfonyl chloride"], "SMILES": "S(Cl)(=O)(=O)C1=CC(N(=O)=O)=CC=C1Cl", "physical_data": {"Molecular Weight": "256.06", "Molecular Formula": "C6H3Cl2NO4S", "Melting Point": "89 \u00b0C"}}