{"cas_no": "4534-11-6", "cn_name": "3-\u7532\u57fa-4-\u5f02\u4e19\u57fa\u82ef\u80fa\u76d0\u9178", "en_name": ["Benzenamine, 3-methyl-4-(1-methylethyl)-, hydrochloride (1:1)", "Benzenamine, 3-methyl-4-(1-methylethyl)-, hydrochloride (1:1)", "o-Cymen-5-amine, hydrochloride", "Benzenamine, 3-methyl-4-(1-methylethyl)-, hydrochloride", "3-Methyl-4-isopropylaniline hydrochloride", "4-Isopropyl-3-methylaniline hydrochloride", "3-Methyl-4-(propan-2-yl)aniline hydrochloride"], "SMILES": "C(C)(C)C1=C(C)C=C(N)C=C1.Cl", "physical_data": {"Molecular Weight": "", "Molecular Formula": "C10H15N.ClH", "Melting Point": "213.0-213.5 \u00b0C"}}