{"cas_no": "4534-74-1", "cn_name": "4-\u4e59\u57fa\u73af\u5df1\u9187", "en_name": ["4-Ethylcyclohexanol", "Cyclohexanol, 4-ethyl-", "4-Ethylcyclohexanol", "NSC 21118", "4-Ethylcyclohexan-1-ol"], "SMILES": "C(C)C1CCC(O)CC1", "physical_data": {"Molecular Weight": "128.21", "Molecular Formula": "C8H16O", "Boiling Point": "191-192 \u00b0C", "Density": "0.9194 g/cm\u00b3 @ Temp: 21 \u00b0C"}}