{"cas_no": "4534-73-0", "cn_name": "1,2,3,4-\u4e01\u70f7\u56db\u7fa7\u9178\u4e8c\u9150", "en_name": ["1,2,3,4-Butanetetracarboxylic dianhydride", "[3,3\u2032-Bifuran]-2,2\u2032,5,5\u2032-tetrone, tetrahydro-", "1,2,3,4-Butanetetracarboxylic 1,2:3,4-dianhydride", "Tetrahydro[3,3\u2032-bifuran]-2,2\u2032,5,5\u2032-tetrone", "1,2,3,4-Butanetetracarboxylic acid dianhydride", "1,2,3,4-Butanetetracarboxylic dianhydride", "Rikacid BT 100", "BT 100", "Tetrahydro-[3,3\u2032-bifuran]-2,2\u2032,5,5\u2032-tetraone"], "SMILES": "O=C1C(CC(=O)O1)C2CC(=O)OC2=O", "physical_data": {"Molecular Weight": "198.13", "Molecular Formula": "C8H6O6", "Melting Point": "242-243.5 \u00b0C"}}