{"cas_no": "4535-90-4", "cn_name": "2-\u6c2f-N-\u7532\u57fa\u4e59\u80fa\u76d0\u9178\u76d0", "en_name": ["Ethanamine, 2-chloro-N-methyl-, hydrochloride (1:1)", "Ethanamine, 2-chloro-N-methyl-, hydrochloride (1:1)", "Ethylamine, 2-chloro-N-methyl-, hydrochloride", "Ethanamine, 2-chloro-N-methyl-, hydrochloride", "2-(Methylamino)ethyl chloride hydrochloride", "2-Chloro-N-methylethylamine hydrochloride", "N-Methyl-2-chloroethylamine hydrochloride", "2-Chloro-N-methylethanamine hydrochloride", "(2-Chloroethyl)(methyl)amine hydrochloride"], "SMILES": "C(CCl)NC.Cl", "physical_data": {"Molecular Weight": "", "Molecular Formula": "C3H8ClN.ClH", "Melting Point": "89 \u00b0C"}}