{"cas_no": "4535-85-7", "cn_name": "3-\u6c2f-1-\u4e8c\u4e59\u6c28\u57fa\u4e19\u70f7\u76d0\u9178\u76d0", "en_name": ["1-Propanamine, 3-chloro-N,N-diethyl-, hydrochloride (1:1)", "1-Propanamine, 3-chloro-N,N-diethyl-, hydrochloride (1:1)", "Propylamine, 3-chloro-N,N-diethyl-, hydrochloride", "1-Propanamine, 3-chloro-N,N-diethyl-, hydrochloride", "3-(Diethylamino)propyl chloride hydrochloride", "(Diethylamino)propyl chloride hydrochloride", "1-Chloro-3-diethylaminopropane hydrochloride", "3-Chloro-N,N-diethylpropylamine hydrochloride", "3-Chloro-N,N-diethylpropanamine hydrochloride", "N-(3-Chloropropyl)diethylamine hydrochloride", "(3-Chloropropyl)diethylamine hydrochloride", "3-Chloro-N,N-diethylpropan-1-amine hydrochloride"], "SMILES": "N(CCCCl)(CC)CC.Cl", "physical_data": {"Molecular Weight": "", "Molecular Formula": "C7H16ClN.ClH", "Melting Point": "62-64 \u00b0C"}}