{"cas_no": "4536-23-6", "cn_name": "2-\u7532\u57fa\u5df1\u9178", "en_name": ["2-Methylhexanoic acid", "Hexanoic acid, 2-methyl-", "Caproic acid, \u03b1-methyl-", "2-Methylhexanoic acid", "\u03b1-Methylcaproic acid", "2-Hexanecarboxylic acid", "2-Methylcaproic acid", "(\u00b1)-2-Methylhexanoic acid"], "SMILES": "C(C(O)=O)(CCCC)C", "physical_data": {"Molecular Weight": "130.18", "Molecular Formula": "C7H14O2", "Boiling Point": "203-205 \u00b0C @ Press: 683 Torr", "Density": "0.9612 g/cm\u00b3 @ Temp: 20 \u00b0C"}}