{"cas_no": "4536-30-5", "cn_name": "\u4e59\u4e8c\u9187\u6708\u6842\u9178\u916f", "en_name": ["Ethylene glycol monododecyl ether", "Ethanol, 2-(dodecyloxy)-", "2-(Dodecyloxy)ethanol", "Ethylene glycol monododecyl ether", "Ethylene glycol monolauryl ether", "Lauryl ethoxylate", "Lipocol L 1", "Lauryl monoethoxylate", "Ethylene glycol dodecyl ether", "Laureth 1", "Monoethylene glycol monododecyl ether", "2-Hydroxyethyl lauryl ether", "Dodecyl monoethoxylate", "Monoethylene glycol dodecyl ether", "Nikkol BL 1SY", "FX-NS 12010", "Ethylene glycol 1-dodecyl ether", "2-Dodecyloxy-1-ethanol", "2-Dodecoxyethanol"], "SMILES": "C(CCCCOCCO)CCCCCCC", "physical_data": {"Molecular Weight": "230.39", "Molecular Formula": "C14H30O2", "Boiling Point": "142 \u00b0C @ Press: 1.8 Torr", "Melting Point": "22-24 \u00b0C", "Density": "0.8708 g/cm\u00b3 @ Temp: 25 \u00b0C"}}