{"cas_no": "45378-62-9", "cn_name": "\u7532\u786b\u4ee3\u73af\u6c27\u4e19\u70f7", "en_name": ["2-[(Methylthio)methyl]oxirane", "Oxirane, 2-[(methylthio)methyl]-", "Oxirane, [(methylthio)methyl]-", "2-[(Methylthio)methyl]oxirane", "Methyl glycidyl thioether", "[(Methylthio)methyl]oxirane", "2-[(Methylsulfanyl)methyl]oxirane", "2-(Methylsulfanylmethyl)oxirane"], "SMILES": "C(SC)C1CO1", "physical_data": {"Molecular Weight": "104.17", "Molecular Formula": "C4H8OS", "Boiling Point": "48-52 \u00b0C @ Press: 20 Torr"}}