{"cas_no": "4538-37-8", "cn_name": "\u5f02\u73af\u5df1\u9170\u4e9a\u80fa", "en_name": ["Tetramethylene diisocyanate", "Butane, 1,4-diisocyanato-", "Isocyanic acid, tetramethylene ester", "1,4-Diisocyanatobutane", "1,4-Tetramethylenediisocyanate", "Tetramethylene diisocyanate", "Tetramethylene isocyanate", "Butylenediisocyanate", "1,4-Butanediol diisocyanate", "NSC 510650", "Butane 1,4-diisocyanate", "1,4-Butylene diisocyanate"], "SMILES": "C(CCN=C=O)CN=C=O", "physical_data": {"Molecular Weight": "140.14", "Molecular Formula": "C6H8N2O2", "Boiling Point": "75-76 \u00b0C @ Press: 14 Torr", "Melting Point": "-41.93 \u00b0C"}}