{"cas_no": "454-89-7", "cn_name": "3-\u4e09\u6c1f\u7532\u57fa\u82ef\u7532\u919b", "en_name": ["3-(Trifluoromethyl)benzaldehyde", "Benzaldehyde, 3-(trifluoromethyl)-", "m-Tolualdehyde, \u03b1,\u03b1,\u03b1-trifluoro-", "3-(Trifluoromethyl)benzaldehyde", "\u03b1,\u03b1,\u03b1-Trifluoro-m-tolualdehyde", "m-(Trifluoromethyl)benzaldehyde", "3-(Trifluoromethyl)phenylcarboxaldehyde"], "SMILES": "C(F)(F)(F)C1=CC(C=O)=CC=C1", "physical_data": {"Molecular Weight": "174.12", "Molecular Formula": "C8H5F3O", "Boiling Point": "83-86 \u00b0C", "Density": "1.300 g/cm\u00b3 @ Temp: 27 \u00b0C"}}