{"cas_no": "454-82-0", "cn_name": "2-\u7f9f\u57fa-4-\u4e09\u6c1f\u7532\u57fa\u82ef\u80fa", "en_name": ["2-Amino-5-(trifluoromethyl)phenol", "Phenol, 2-amino-5-(trifluoromethyl)-", "m-Cresol, 6-amino-\u03b1,\u03b1,\u03b1-trifluoro-", "2-Amino-5-(trifluoromethyl)phenol", "2-Hydroxy-4-(trifluoromethyl)aniline"], "SMILES": "C(F)(F)(F)C1=CC(O)=C(N)C=C1", "physical_data": {"Molecular Weight": "177.12", "Molecular Formula": "C7H6F3NO", "Melting Point": "114-115 \u00b0C"}}