{"cas_no": "454-78-4", "cn_name": "3-\u6eb4-4-\u6c2f\u4e09\u6c1f\u7532\u82ef", "en_name": ["3-Bromo-4-chlorobenzotrifluoride", "Benzene, 2-bromo-1-chloro-4-(trifluoromethyl)-", "Toluene, 3-bromo-4-chloro-\u03b1,\u03b1,\u03b1-trifluoro-", "2-Bromo-1-chloro-4-(trifluoromethyl)benzene", "3-Bromo-4-chloro-\u03b1,\u03b1,\u03b1-trifluorotoluene", "3-Bromo-4-chlorobenzotrifluoride", "3-Bromo-4-chloro-1-(trifluoromethyl)benzene", "NSC 59728", "1-Bromo-2-chloro-5-trifluoromethylbenzene"], "SMILES": "C(F)(F)(F)C1=CC(Br)=C(Cl)C=C1", "physical_data": {"Molecular Weight": "259.45", "Molecular Formula": "C7H3BrClF3", "Boiling Point": "191-192 \u00b0C @ Press: 740 Torr", "Melting Point": "-22.5--21.9 \u00b0C"}}