{"cas_no": "454-79-5", "cn_name": "2-\u6eb4-5-\u4e09\u6c1f\u7532\u82ef\u82ef\u80fa", "en_name": ["2-Bromo-5-trifluoromethylaniline", "Benzenamine, 2-bromo-5-(trifluoromethyl)-", "m-Toluidine, 2-bromo-\u03b1,\u03b1,\u03b1-trifluoro-", "2-Bromo-5-(trifluoromethyl)benzenamine", "3-Amino-4-bromobenzotrifluoride", "2-Bromo-5-trifluoromethylaniline", "4-Bromo-3-aminobenzotrifluoride", "2-Bromo-5-trifluoromethylphenylamine", "NSC 88276", "2-Amino-4-trifluoromethyl-1-bromobenzene", "5-Trifluoromethyl-2-bromoaniline"], "SMILES": "C(F)(F)(F)C1=CC(N)=C(Br)C=C1", "physical_data": {"Molecular Weight": "240.02", "Molecular Formula": "C7H5BrF3N", "Boiling Point": "81-82 \u00b0C @ Press: 5 Torr", "Density": "1.694 g/cm\u00b3 @ Temp: 25 \u00b0C"}}