{"cas_no": "454-31-9", "cn_name": "\u4e8c\u6c1f\u4e59\u9178\u4e59\u916f", "en_name": ["Ethyl difluoroacetate", "Acetic acid, 2,2-difluoro-, ethyl ester", "Acetic acid, difluoro-, ethyl ester", "Ethyl difluoroacetate", "Difluoroacetic acid ethyl ester", "Ethyl 2,2-difluoroacetate", "2,2-Difluoroacetic acid ethyl ester", "\u03b1,\u03b1-Difluoroacetic acid ethyl ester"], "SMILES": "C(OCC)(C(F)F)=O", "physical_data": {"Molecular Weight": "124.09", "Molecular Formula": "C4H6F2O2", "Boiling Point": "100 \u00b0C", "Density": "1.244 g/cm\u00b3 @ Temp: 20 \u00b0C"}}