{"cas_no": "454-92-2", "cn_name": "3-\u4e09\u6c1f\u7532\u57fa\u82ef\u7532\u9178", "en_name": ["3-(Trifluoromethyl)benzoic acid", "Benzoic acid, 3-(trifluoromethyl)-", "m-Toluic acid, \u03b1,\u03b1,\u03b1-trifluoro-", "3-(Trifluoromethyl)benzoic acid", "m-(Trifluoromethyl)benzoic acid", "\u03b1,\u03b1,\u03b1-Trifluoro-m-toluic acid", "NSC 43025", "TFTA"], "SMILES": "C(F)(F)(F)C1=CC(C(O)=O)=CC=C1", "physical_data": {"Molecular Weight": "190.12", "Molecular Formula": "C8H5F3O2", "Boiling Point": "238.5 \u00b0C", "Melting Point": "105.5 \u00b0C"}}