{"cas_no": "454-90-0", "cn_name": "3-(\u4e09\u6c1f\u7532\u57fa)\u82ef\u7532\u919a", "en_name": ["1-Methoxy-3-(trifluoromethyl)benzene", "Benzene, 1-methoxy-3-(trifluoromethyl)-", "Anisole, m-(trifluoromethyl)-", "1-Methoxy-3-(trifluoromethyl)benzene", "m-(Trifluoromethyl)anisole", "3-(Trifluoromethyl)anisole", "NSC 86566", "3-Methoxybenzotrifluoride"], "SMILES": "C(F)(F)(F)C1=CC(OC)=CC=C1", "physical_data": {"Molecular Weight": "176.14", "Molecular Formula": "C8H7F3O", "Boiling Point": "159.5 \u00b0C @ Press: 754 Torr", "Melting Point": "-65.0 \u00b0C", "Density": "1.2342 g/cm\u00b3 @ Temp: 25 \u00b0C"}}