{"cas_no": "454-14-8", "cn_name": "\u7ea2\u53e4\u8c46\u78b1", "en_name": ["Cuscohygrine", "2-Propanone, 1-[(2R)-1-methyl-2-pyrrolidinyl]-3-[(2S)-1-methyl-2-pyrrolidinyl]-, rel-", "Cuscohygrine", "2-Propanone, 1,3-bis(1-methyl-2-pyrrolidinyl)-, (R*,S*)-", "rel-1-[(2R)-1-Methyl-2-pyrrolidinyl]-3-[(2S)-1-methyl-2-pyrrolidinyl]-2-propanone", "Cuskhygrine", "Bellaradine", "Bellaradin", "Cuskhygrin", "Cuscohygrine, meso-", "meso-Cuscohygrine"], "SMILES": "C(C(CC1N(C)CCC1)=O)C2N(C)CCC2", "physical_data": {"Molecular Weight": "224.34", "Molecular Formula": "C13H24N2O", "Boiling Point": "152 \u00b0C @ Press: 14 Torr", "Density": "0.9782 g/cm\u00b3 @ Temp: 16 \u00b0C"}}