{"cas_no": "454-81-9", "cn_name": "2-\u6c28\u57fa-4-\u4e09\u6c1f\u7532\u57fa\u82ef\u915a", "en_name": ["2-Amino-4-(trifluoromethyl)phenol", "Phenol, 2-amino-4-(trifluoromethyl)-", "p-Cresol, 2-amino-\u03b1,\u03b1,\u03b1-trifluoro-", "2-Amino-4-(trifluoromethyl)phenol", "2-Amino-4-trifluoromethylphenol", "4-(Trifluoromethyl)-2-aminophenol", "2-Hydroxy-5-(trifluoromethyl)aniline"], "SMILES": "C(F)(F)(F)C1=CC(N)=C(O)C=C1", "physical_data": {"Molecular Weight": "177.12", "Molecular Formula": "C7H6F3NO", "Melting Point": "121-122 \u00b0C"}}