{"cas_no": "4540-33-4", "cn_name": "\u54cc\u5576\u4e59\u9178\u76d0", "en_name": ["Piperidinium acetate", "Piperidine, acetate (1:1)", "Piperidine, acetate", "Piperidinium acetate"], "SMILES": "C(C)(O)=O.C1CCNCC1", "physical_data": {"Molecular Weight": "", "Molecular Formula": "C5H11N.C2H4O2", "Boiling Point": "96-98 \u00b0C @ Press: 9 Torr", "Melting Point": "104-106 \u00b0C", "Density": "0.9366 g/cm\u00b3"}}