{"cas_no": "4541-14-4", "cn_name": "4-\u82c4\u6c27\u57fa-1-\u4e01\u9187", "en_name": ["4-Benzyloxybutanol", "1-Butanol, 4-(phenylmethoxy)-", "1-Butanol, 4-(benzyloxy)-", "4-(Phenylmethoxy)-1-butanol", "Benzyl 4-hydroxybutyl ether", "4-(Benzyloxy)-1-butanol", "4-Benzyloxybutanol", "1,4-Butanediol monobenzyl ether", "4-Benzyloxybutyl alcohol"], "SMILES": "C(OCCCCO)C1=CC=CC=C1", "physical_data": {"Molecular Weight": "180.24", "Molecular Formula": "C11H16O2", "Boiling Point": "160 \u00b0C @ Press: 3 Torr"}}