{"cas_no": "4542-47-6", "cn_name": "3-(4-\u5417\u5549\u57fa)\u4e19\u8148", "en_name": ["4-Morpholinepropanenitrile", "4-Morpholinepropanenitrile", "4-Morpholinepropionitrile", "\u03b2-Morpholinopropionitrile", "3-Morpholinopropionitrile", "3-Morpholinopropanenitrile", "NSC 20547", "NSC 41718", "N-(2-Cyanoethyl)morpholine", "3-(Morpholin-4-yl)propionitrile"], "SMILES": "C(CC#N)N1CCOCC1", "physical_data": {"Molecular Weight": "140.18", "Molecular Formula": "C7H12N2O", "Boiling Point": "133-134 \u00b0C @ Press: 14 Torr", "Melting Point": "20.4-20.6 \u00b0C", "Density": "1.0375 g/cm\u00b3"}}