{"cas_no": "4542-75-0", "cn_name": "4,4'-\u4e8c(\u6eb4\u7532\u57fa)\u4e8c\u82ef\u919a", "en_name": ["1,1\u2032-Oxybis[4-(bromomethyl)benzene]", "Benzene, 1,1\u2032-oxybis[4-(bromomethyl)-", "Ether, bis(\u03b1-bromo-p-tolyl)", "1,1\u2032-Oxybis[4-(bromomethyl)benzene]", "4,4\u2032-Oxybis[1-(bromomethyl)benzene]", "4,4\u2032-Bis(bromomethyl) diphenyl ether", "Bis[4-(bromomethyl)phenyl] ether", "1-(Bromomethyl)-4-[4-(bromomethyl)phenoxy]benzene"], "SMILES": "O(C1=CC=C(CBr)C=C1)C2=CC=C(CBr)C=C2", "physical_data": {"Molecular Weight": "356.05", "Molecular Formula": "C14H12Br2O", "Boiling Point": "231-240 \u00b0C @ Press: 0.5 Torr", "Melting Point": "98 \u00b0C"}}