{"cas_no": "4542-57-8", "cn_name": "\u53cc\u5341\u4e8c\u70f7\u57fa\u4e59\u919a", "en_name": ["Dodecyl ether", "Dodecane, 1,1\u2032-oxybis-", "Dodecyl ether", "1,1\u2032-Oxybis[dodecane]", "Didodecyl ether", "Dilauryl ether", "NSC 6816", "Nacol Ether 12", "1-Dodecoxydodecane"], "SMILES": "O(CCCCCCCCCCCC)CCCCCCCCCCCC", "physical_data": {"Molecular Weight": "354.65", "Molecular Formula": "C24H50O", "Melting Point": "32-33 \u00b0C", "Density": "0.8107 g/cm\u00b3 @ Temp: 36 \u00b0C"}}