{"cas_no": "4543-66-2", "cn_name": "\u7678\u4e8c\u8148", "en_name": ["Dodecanedinitrile", "Dodecanedinitrile", "Dodecanodinitrile", "Decamethylenedinitrile", "1,10-Dicyanodecane", "1,12-Dodecanedinitrile", "NSC 59852"], "SMILES": "C(CCCCCC#N)CCCCC#N", "physical_data": {"Molecular Weight": "192.30", "Molecular Formula": "C12H20N2", "Boiling Point": "156-157 \u00b0C @ Press: 2 Torr", "Melting Point": "20.4 \u00b0C"}}