{"cas_no": "4543-96-8", "cn_name": "\u4e09\u7532\u57fa-1,3-\u4e19\u4e8c\u80fa", "en_name": ["N,N,N\u2032-Trimethyl-1,3-propanediamine", "1,3-Propanediamine, N1,N1,N3-trimethyl-", "1,3-Propanediamine, N,N,N\u2032-trimethyl-", "N1,N1,N3-Trimethyl-1,3-propanediamine", "N,N,N\u2032-Trimethyltrimethylenediamine", "N,N,N\u2032-Trimethyl-1,3-propanediamine", "N,N,N\u2032-Trimethyl-1,3-diaminopropane", "N-(3-Dimethylaminopropyl)-N-methylamine", "(3-Dimethylaminopropyl)methylamine", "Methyl[3-(dimethylamino)propyl]amine", "3-(Dimethylamino)-N-methylpropylamine", "N-(3-Dimethylaminopropyl)methylamine", "N,N,N\u2032-Trimethylpropan-1,3-diamine", "N1,N1,N3-Trimethylpropane-1,3-diamine"], "SMILES": "C(CCNC)N(C)C", "physical_data": {"Molecular Weight": "116.20", "Molecular Formula": "C6H16N2", "Boiling Point": "140-142 \u00b0C"}}