{"cas_no": "4543-95-7", "cn_name": "4-\u6b63\u4e01\u80fa\u57fa-1-\u4e01\u9187", "en_name": ["4-(Butylamino)-1-butanol", "1-Butanol, 4-(butylamino)-", "4-(Butylamino)-1-butanol", "4-(Butylamino)butan-1-ol", "Butyl(4-hydroxybutyl)amine", "N-Butyl-N-(4-hydroxybutyl)amine", "4-(Butylamino)butanol"], "SMILES": "C(NCCCC)CCCO", "physical_data": {"Molecular Weight": "145.24", "Molecular Formula": "C8H19NO", "Boiling Point": "80-80.5 \u00b0C @ Press: 0.2 Torr", "Density": "0.89 g/cm\u00b3"}}