{"cas_no": "4545-21-5", "cn_name": "\u82ef\u4e59\u916e\u5bf9\u7532\u82ef\u78fa\u9170\u8159", "en_name": ["4-Methylbenzenesulfonic acid 2-(1-phenylethylidene)hydrazide", "Benzenesulfonic acid, 4-methyl-, 2-(1-phenylethylidene)hydrazide", "p-Toluenesulfonic acid, (\u03b1-methylbenzylidene)hydrazide", "Benzenesulfonic acid, 4-methyl-, (1-phenylethylidene)hydrazide", "4-Methylbenzenesulfonic acid 2-(1-phenylethylidene)hydrazide", "Acetophenone tolylsulfonylhydrazone", "Acetophenone tosylhydrazone", "Acetophenone p-toluenesulfonylhydrazone", "NSC 126912"], "SMILES": "S(NN=C(C)C1=CC=CC=C1)(=O)(=O)C2=CC=C(C)C=C2", "physical_data": {"Molecular Weight": "288.36", "Molecular Formula": "C15H16N2O2S", "Melting Point": "144-146 \u00b0C"}}