{"cas_no": "4546-54-7", "cn_name": "2-\u6c28\u57fa\u560c\u5464\u6838\u82f7", "en_name": ["2-Aminopurine riboside", "9H-Purin-2-amine, 9-\u03b2-D-ribofuranosyl-", "9H-Purine, 2-amino-9-\u03b2-D-ribofuranosyl-", "9-\u03b2-D-Ribofuranosyl-9H-purin-2-amine", "2-Amino-9-\u03b2-D-ribofuranosylpurine", "2-Aminopurine riboside", "2-Aminonebularine", "2-Aminopurine ribonucleoside", "NSC 36906"], "SMILES": "OC1C(N2C=3C(N=C2)=CN=C(N)N3)OC(CO)C1O", "physical_data": {"Molecular Weight": "267.24", "Molecular Formula": "C10H13N5O4", "Melting Point": "165 \u00b0C"}}