{"cas_no": "4546-04-7", "cn_name": "\u5bf9\u4e8c\u7532\u82ef\u4e8c\u78f7\u9178\u56db\u4e59\u916f", "en_name": ["P,P,P\u2032,P\u2032-Tetraethyl P,P\u2032-[1,4-phenylenebis(methylene)]bis[phosphonate]", "Phosphonic acid, P,P\u2032-[1,4-phenylenebis(methylene)]bis-, P,P,P\u2032,P\u2032-tetraethyl ester", "Phosphonic acid, (p-phenylenedimethylene)di-, tetraethyl ester", "Phosphonic acid, [1,4-phenylenebis(methylene)]bis-, tetraethyl ester", "P,P,P\u2032,P\u2032-Tetraethyl P,P\u2032-[1,4-phenylenebis(methylene)]bis[phosphonate]", "p-Xylylenebis(diethyl phosphonate)", "p-Bis(diethylphosphono)xylene", "Tetraethyl p-xylylenediphosphonate", "Tetraethyl p-xylylenebis(phosphonate)", "1,4-Xylenebis(diethylphosphonate)", "p-Xylenebis(diethyl phosphonate)", "Tetraethyl [1,4-phenylenebis(methylene)]bisphosphonate", "NSC 203064", "Tetraethyl \u03b1,\u03b1\u2032-p-xylenediphosphonate", "1,4-Bis(diethoxyphosphinylmethyl)benzene", "Tetraethyl 1,4-phenylenebis(methylene)diphosphonate", "1,4-Bis(diethoxyphosphorylmethyl)benzene", "[4-(Diethoxy-phosphorylmethyl)-benzyl]-phosphonic acid diethyl ester"], "SMILES": "P(CC1=CC=C(CP(OCC)(OCC)=O)C=C1)(OCC)(OCC)=O", "physical_data": {"Molecular Weight": "378.34", "Molecular Formula": "C16H28O6P2", "Boiling Point": "204 \u00b0C @ Press: 2 Torr", "Melting Point": "72-73 \u00b0C"}}