{"cas_no": "4546-55-8", "cn_name": "N6-\u82ef\u7532\u9170\u57fa\u817a\u82f7", "en_name": ["N6-Benzoyladenosine", "Adenosine, N-benzoyl-", "Benzamide, N-(9-\u03b2-D-ribofuranosyl-9H-purin-6-yl)-", "N-Benzoyladenosine", "N6-Benzoyladenosine"], "SMILES": "OC1C(N2C=3C(N=C2)=C(NC(=O)C4=CC=CC=C4)N=CN3)OC(CO)C1O", "physical_data": {"Molecular Weight": "371.35", "Molecular Formula": "C17H17N5O5", "Melting Point": "152 \u00b0C"}}