{"cas_no": "4547-24-4", "cn_name": "\u79d1\u7f57\u7d22\u9178", "en_name": ["Corosolic acid", "Urs-12-en-28-oic acid, 2,3-dihydroxy-, (2\u03b1,3\u03b2)-", "Urs-12-en-28-oic acid, 2\u03b1,3\u03b2-dihydroxy-", "(2\u03b1,3\u03b2)-2,3-Dihydroxyurs-12-en-28-oic acid", "2\u03b1-Hydroxyursolic acid", "2\u03b1,3\u03b2-Dihydroxyurs-12-en-28-oic acid", "Corosolic acid", "Corsolic acid", "Glucosol", "Colosic acid", "Colosolic acid", "2\u03b1,3\u03b2-Dihydroxy ursolic acid", "2alpha-Hydroxyursolic acid", "2\u03b1,2\u03b2,-Dihydroxy-12-en-28-ursolic acid", "2\u03b1,3\u03b2-Dihydroxylursolic acid"], "SMILES": "CC12C3(C)C(C4C(C(O)=O)(CC3)CCC(C)C4C)=CCC1C5(C)C(CC2)C(C)(C)C(O)C(O)C5", "physical_data": {"Molecular Weight": "472.70", "Molecular Formula": "C30H48O4", "Melting Point": "283-285 \u00b0C"}}