{"cas_no": "4547-43-7", "cn_name": "6-\u7f9f\u57fa\u5df1\u9178\u7532\u916f", "en_name": ["Hexanoic acid, 6-hydroxy-, methyl ester", "Hexanoic acid, 6-hydroxy-, methyl ester", "6-Hydroxyhexanoic acid methyl ester", "Methyl \u03b5-hydroxycaproate", "Methyl 6-hydroxycaproate", "Methyl 6-hydroxyhexanoate", "5-Methoxycarbonylpentanol", "6-Hydroxycaproic acid methyl ester"], "SMILES": "C(CCCCCO)(OC)=O", "physical_data": {"Molecular Weight": "146.18", "Molecular Formula": "C7H14O3", "Boiling Point": "123 \u00b0C @ Press: 12 Torr", "Melting Point": "123-124 \u00b0C", "Density": "1.0214 g/cm\u00b3 @ Temp: 20 \u00b0C"}}