{"cas_no": "4547-57-3", "cn_name": "4-\u4e01\u6c27\u57fa\u82ef\u4e59\u9178", "en_name": ["4-Butoxybenzeneacetic acid", "Benzeneacetic acid, 4-butoxy-", "Acetic acid, (p-butoxyphenyl)-", "4-Butoxybenzeneacetic acid", "4-n-Butoxybenzeneacetic acid", "4-Butoxyphenylacetic acid", "(p-Butoxyphenyl)acetic acid", "4-n-Butoxyphenylacetic acid", "2-(4-Butoxyphenyl)acetic acid"], "SMILES": "C(C(O)=O)C1=CC=C(OCCCC)C=C1", "physical_data": {"Molecular Weight": "208.25", "Molecular Formula": "C12H16O3", "Boiling Point": "86-87 \u00b0C @ Press: 1 Torr", "Melting Point": "88.5 \u00b0C"}}