{"cas_no": "4547-02-8", "cn_name": "7-\u6c2f-1,3-\u4e8c\u6c22-5-\u82ef\u57fa-2H-1,4-\u82ef\u5e76\u4e8c\u6c2e\u6742-2-\u786b\u916e", "en_name": ["7-Chloro-1,3-dihydro-5-phenyl-2H-1,4-benzodiazepine-2-thione", "2H-1,4-Benzodiazepine-2-thione, 7-chloro-1,3-dihydro-5-phenyl-", "7-Chloro-1,3-dihydro-5-phenyl-2H-1,4-benzodiazepine-2-thione", "Demethylsulazepam", "1,3-Dihydro-7-chloro-5-phenyl-2H-1,4-benzodiazepine-2-thione"], "SMILES": "ClC=1C=C2C(=NCC(=S)NC2=CC1)C3=CC=CC=C3", "physical_data": {"Molecular Weight": "286.78", "Molecular Formula": "C15H11ClN2S", "Melting Point": "244-246 \u00b0C"}}