{"cas_no": "4548-45-2", "cn_name": "2-\u6c2f-5-\u785d\u57fa\u5421\u5576", "en_name": ["2-Chloro-5-nitropyridine", "Pyridine, 2-chloro-5-nitro-", "2-Chloro-5-nitropyridine", "6-Chloro-3-nitropyridine", "5-Nitro-2-chloropyridine", "3-Nitro-6-chloropyridine", "NSC 4468"], "SMILES": "N(=O)(=O)C=1C=CC(Cl)=NC1", "physical_data": {"Molecular Weight": "158.54", "Molecular Formula": "C5H3ClN2O2", "Melting Point": "107 \u00b0C"}}