{"cas_no": "4549-33-1", "cn_name": "1,9-\u4e8c\u6eb4\u58ec\u70f7", "en_name": ["1,9-Dibromononane", "Nonane, 1,9-dibromo-", "1,9-Dibromononane", "NSC 62682"], "SMILES": "C(CCCCBr)CCCCBr", "physical_data": {"Molecular Weight": "286.05", "Molecular Formula": "C9H18Br2", "Boiling Point": "154-155 \u00b0C @ Press: 10 Torr", "Melting Point": "-22.5 \u00b0C"}}