{"cas_no": "4549-02-4", "cn_name": "\u73af(\u812f\u6c28\u9178\u4e00\u916a\u6c28\u9178)", "en_name": ["Cyclo(L-Pro-L-Tyr)", "Pyrrolo[1,2-a]pyrazine-1,4-dione, hexahydro-3-[(4-hydroxyphenyl)methyl]-, (3S,8aS)-", "Pyrrolo[1,2-a]pyrazine-1,4-dione, hexahydro-3-(p-hydroxybenzyl)-", "Pyrrolo[1,2-a]pyrazine-1,4-dione, hexahydro-3-[(4-hydroxyphenyl)methyl]-, (3S-trans)-", "(3S,8aS)-Hexahydro-3-[(4-hydroxyphenyl)methyl]pyrrolo[1,2-a]pyrazine-1,4-dione", "L-Proline-L-tyrosine anhydride", "Maculosine", "Maculosin", "Cyclo(L-prolinyl-L-tyrosine)", "Maculosin 1", "Maculosine 1", "Cyclo(L-tyrosyl-L-proline)", "Cyclo(L-Pro-L-Tyr)", "Cyclo L-Prolyl-L-tyrosine", "Cyclo(Tyr-Pro)"], "SMILES": "O=C1N2C(C(=O)NC1CC3=CC=C(O)C=C3)CCC2", "physical_data": {"Molecular Weight": "260.29", "Molecular Formula": "C14H16N2O3", "Melting Point": "156-159 \u00b0C"}}