{"cas_no": "4549-32-0", "cn_name": "1,8-\u4e8c\u6eb4\u8f9b\u70f7", "en_name": ["1,8-Dibromooctane", "Octane, 1,8-dibromo-", "1,8-Dibromooctane", "Octamethylene dibromide", "\u03b1,\u03c9-Dibromooctane", "NSC 9820"], "SMILES": "C(CCCCBr)CCCBr", "physical_data": {"Molecular Weight": "272.02", "Molecular Formula": "C8H16Br2", "Boiling Point": "271 \u00b0C", "Melting Point": "15.5 \u00b0C"}}