{"cas_no": "4549-31-9", "cn_name": "1,7-\u4e8c\u6eb4\u5e9a\u70f7", "en_name": ["1,7-Dibromoheptane", "Heptane, 1,7-dibromo-", "1,7-Dibromoheptane", "Heptamethylene dibromide", "NSC 56149"], "SMILES": "C(CCCBr)CCCBr", "physical_data": {"Molecular Weight": "257.99", "Molecular Formula": "C7H14Br2", "Boiling Point": "263 \u00b0C", "Melting Point": "41.7 \u00b0C", "Density": "1.5306 g/cm\u00b3 @ Temp: 20 \u00b0C"}}