{"cas_no": "455-68-5", "cn_name": "3-\u6c1f\u82ef\u7532\u9178\u7532\u916f", "en_name": ["Benzoic acid, 3-fluoro-, methyl ester", "Benzoic acid, 3-fluoro-, methyl ester", "Benzoic acid, m-fluoro-, methyl ester", "Methyl m-fluorobenzoate", "Methyl 3-fluorobenzoate", "3-Fluorobenzoic acid methyl ester"], "SMILES": "C(OC)(=O)C1=CC(F)=CC=C1", "physical_data": {"Molecular Weight": "154.14", "Molecular Formula": "C8H7FO2", "Boiling Point": "194-195 \u00b0C", "Melting Point": "-10 \u00b0C"}}