{"cas_no": "455-88-9", "cn_name": "2-\u6c1f-5-\u785d\u57fa\u7532\u82ef", "en_name": ["2-Fluoro-5-nitrotoluene", "Benzene, 1-fluoro-2-methyl-4-nitro-", "Toluene, 2-fluoro-5-nitro-", "1-Fluoro-2-methyl-4-nitrobenzene", "2-Fluoro-5-nitrotoluene", "3-Methyl-4-fluoronitrobenzene", "5-Nitro-2-fluorotoluene", "4-Fluoro-3-methylnitrobenzene", "2-Methyl-4-nitrofluorobenzene", "4-Fluoro-3-methyl-1-nitrobenzene"], "SMILES": "N(=O)(=O)C1=CC(C)=C(F)C=C1", "physical_data": {"Molecular Weight": "155.13", "Molecular Formula": "C7H6FNO2", "Boiling Point": "99.4-99.6 \u00b0C @ Press: 13 Torr", "Melting Point": "41 \u00b0C"}}