{"cas_no": "455-93-6", "cn_name": "2-\u6c1f-4-\u785d\u57fa\u82ef\u7532\u919a", "en_name": ["2-Fluoro-1-methoxy-4-nitrobenzene", "Benzene, 2-fluoro-1-methoxy-4-nitro-", "Anisole, 2-fluoro-4-nitro-", "2-Fluoro-1-methoxy-4-nitrobenzene", "3-Fluoro-4-methoxynitrobenzene", "2-Fluoro-4-nitroanisole", "NSC 10335", "2-Fluoro-4-nitro-methoxy-benzene"], "SMILES": "N(=O)(=O)C1=CC(F)=C(OC)C=C1", "physical_data": {"Molecular Weight": "171.13", "Molecular Formula": "C7H6FNO3", "Melting Point": "104.6 \u00b0C"}}