{"cas_no": "455-15-2", "cn_name": "\u5bf9\u6c1f\u82ef\u7532\u781c", "en_name": ["4-Fluorophenyl methyl sulfone", "Benzene, 1-fluoro-4-(methylsulfonyl)-", "Sulfone, p-fluorophenyl methyl", "1-Fluoro-4-(methylsulfonyl)benzene", "4-(Methylsulfonyl)fluorobenzene", "Methyl 4-fluorophenyl sulfone", "1-Fluoro-4-methylsulfonylbenzene", "4-Fluorophenyl methyl sulfone", "p-Fluorophenyl methyl sulfone", "4-Methylsulfonyl-1-fluorobenzene", "NSC 226256", "1-Fluoro-4-methanesulfonylbenzene", "4-Fluoro-1-(methylsulfonyl)benzene"], "SMILES": "S(C)(=O)(=O)C1=CC=C(F)C=C1", "physical_data": {"Molecular Weight": "174.19", "Molecular Formula": "C7H7FO2S", "Melting Point": "77-78 \u00b0C"}}