{"cas_no": "455-17-4", "cn_name": "1-\u6c1f-4-(\u4e09\u7532\u57fa\u7845\u57fa)\u82ef", "en_name": ["1-Fluoro-4-(trimethylsilyl)benzene", "Benzene, 1-fluoro-4-(trimethylsilyl)-", "Silane, (p-fluorophenyl)trimethyl-", "Silane, (4-fluorophenyl)trimethyl-", "1-Fluoro-4-(trimethylsilyl)benzene", "(p-Fluorophenyl)trimethylsilane", "4-Fluorophenyltrimethylsilane", "4-Fluoro-1-(trimethylsilyl)benzene"], "SMILES": "[Si](C)(C)(C)C1=CC=C(F)C=C1", "physical_data": {"Molecular Weight": "168.28", "Molecular Formula": "C9H13FSi", "Boiling Point": "170-171 \u00b0C @ Press: 745 Torr", "Density": "0.9656 g/cm\u00b3 @ Temp: 20 \u00b0C"}}