{"cas_no": "455-18-5", "cn_name": "\u5bf9\u4e09\u6c1f\u7532\u57fa\u82ef\u8148", "en_name": ["4-(Trifluoromethyl)benzonitrile", "Benzonitrile, 4-(trifluoromethyl)-", "p-Tolunitrile, \u03b1,\u03b1,\u03b1-trifluoro-", "4-(Trifluoromethyl)benzonitrile", "p-(Trifluoromethyl)benzonitrile", "p-Cyanobenzotrifluoride", "p-(Trifluoromethyl)cyanobenzene", "\u03b1,\u03b1,\u03b1-Trifluoro-p-tolunitrile", "4-Cyano-\u03b1,\u03b1,\u03b1-trifluorotoluene", "NSC 88340", "4-Trifluoromethyl-1-cyanobenzene", "4-Cyanobenzotrifluoride", "1-Cyano-4-trifluoromethylbenzene"], "SMILES": "C(F)(F)(F)C1=CC=C(C#N)C=C1", "physical_data": {"Molecular Weight": "171.12", "Molecular Formula": "C8H4F3N", "Boiling Point": "80-81 \u00b0C @ Press: 20 Torr", "Melting Point": "36-37 \u00b0C", "Density": "1.2784 g/cm\u00b3 @ Temp: 20 \u00b0C"}}