{"cas_no": "455-70-9", "cn_name": "5-\u6c1f\u5421\u5576-3-\u7532\u9178\u7532\u916f", "en_name": ["Methyl 5-fluoro-3-pyridinecarboxylate", "3-Pyridinecarboxylic acid, 5-fluoro-, methyl ester", "Nicotinic acid, 5-fluoro-, methyl ester", "Methyl 5-fluoro-3-pyridinecarboxylate", "Methyl 5-fluoronicotinate", "5-Fluoropyridine-3-carboxylic acid methyl ester"], "SMILES": "C(OC)(=O)C=1C=C(F)C=NC1", "physical_data": {"Molecular Weight": "155.13", "Molecular Formula": "C7H6FNO2", "Melting Point": "48 \u00b0C"}}