{"cas_no": "455-40-3", "cn_name": "3,5-\u4e8c\u6c1f\u82ef\u7532\u9178", "en_name": ["3,5-Difluorobenzoic acid", "Benzoic acid, 3,5-difluoro-", "3,5-Difluorobenzoic acid", "NSC 403726"], "SMILES": "C(O)(=O)C1=CC(F)=CC(F)=C1", "physical_data": {"Molecular Weight": "158.10", "Molecular Formula": "C7H4F2O2", "Melting Point": "122 \u00b0C"}}