{"cas_no": "455-13-0", "cn_name": "4-\u7898\u4e09\u6c1f\u7532\u82ef", "en_name": ["1-Iodo-4-(trifluoromethyl)benzene", "Benzene, 1-iodo-4-(trifluoromethyl)-", "Toluene, \u03b1,\u03b1,\u03b1-trifluoro-p-iodo-", "1-Iodo-4-(trifluoromethyl)benzene", "p-(Trifluoromethyl)iodobenzene", "4-Iodobenzotrifluoride", "\u03b1,\u03b1,\u03b1-Trifluoro-p-iodotoluene", "p-Iodobenzotrifluoride", "4-(Trifluoromethyl)iodobenzene", "4-Iodo-1-(trifluoromethyl)benzene", "4-(Trifluoromethyl)phenyl iodide", "p-Iodo(trifluoromethyl)benzene", "4-Iodo(trifluoromethyl)benzene", "1-Trifluoromethyl-4-iodobenzene", "4-Trifluoromethyl-1-iodobenzene"], "SMILES": "C(F)(F)(F)C1=CC=C(I)C=C1", "physical_data": {"Molecular Weight": "272.01", "Molecular Formula": "C7H4F3I", "Melting Point": "167-168 \u00b0C", "Density": "1.851 g/cm\u00b3"}}