{"cas_no": "455-37-8", "cn_name": "\u95f4\u6c1f\u82ef\u7532\u9170\u80fa", "en_name": ["3-Fluorobenzamide", "Benzamide, 3-fluoro-", "Benzamide, m-fluoro-", "3-Fluorobenzamide", "m-Fluorobenzamide", "NSC 97485", "3-Carbamoyl-1-fluorobenzene"], "SMILES": "C(N)(=O)C1=CC(F)=CC=C1", "physical_data": {"Molecular Weight": "139.13", "Molecular Formula": "C7H6FNO", "Melting Point": "128-129 \u00b0C"}}