{"cas_no": "455-86-7", "cn_name": "3,4-\u4e8c\u6c1f\u82ef\u7532\u9178", "en_name": ["3,4-Difluorobenzoic acid", "Benzoic acid, 3,4-difluoro-", "3,4-Difluorobenzoic acid", "NSC 190686"], "SMILES": "C(O)(=O)C1=CC(F)=C(F)C=C1", "physical_data": {"Molecular Weight": "158.10", "Molecular Formula": "C7H4F2O2", "Melting Point": "123 \u00b0C"}}