{"cas_no": "455-91-4", "cn_name": "3-\u6c1f-4-\u7532\u6c27\u57fa\u82ef\u4e59\u916e", "en_name": ["1-(3-Fluoro-4-methoxyphenyl)ethanone", "Ethanone, 1-(3-fluoro-4-methoxyphenyl)-", "Acetophenone, 3\u2032-fluoro-4\u2032-methoxy-", "1-(3-Fluoro-4-methoxyphenyl)ethanone", "3\u2032-Fluoro-4\u2032-methoxyacetophenone", "NSC 89731", "1-(3-Fluoro-4-methoxyphenyl)ethan-1-one"], "SMILES": "C(C)(=O)C1=CC(F)=C(OC)C=C1", "physical_data": {"Molecular Weight": "168.16", "Molecular Formula": "C9H9FO2", "Boiling Point": "147-148 \u00b0C @ Press: 20 Torr", "Melting Point": "92 \u00b0C"}}