{"cas_no": "455-38-9", "cn_name": "\u95f4\u6c1f\u82ef\u7532\u9178", "en_name": ["3-Fluorobenzoic acid", "Benzoic acid, 3-fluoro-", "Benzoic acid, m-fluoro-", "3-Fluorobenzoic acid", "m-Fluorobenzoic acid", "NSC 10320", "NSC 176125"], "SMILES": "C(O)(=O)C1=CC(F)=CC=C1", "physical_data": {"Molecular Weight": "140.11", "Molecular Formula": "C7H5FO2", "Melting Point": "124 \u00b0C"}}