{"cas_no": "455-34-5", "cn_name": "3-\u6c1f\u82ef\u4e9a\u7532\u57fa\u4e8c\u6eb4", "en_name": ["1-(Dibromomethyl)-3-fluorobenzene", "Benzene, 1-(dibromomethyl)-3-fluoro-", "Toluene, \u03b1,\u03b1-dibromo-m-fluoro-", "1-(Dibromomethyl)-3-fluorobenzene", "3-Fluorobenzal bromide"], "SMILES": "C(Br)(Br)C1=CC(F)=CC=C1", "physical_data": {"Molecular Weight": "267.92", "Molecular Formula": "C7H5Br2F", "Boiling Point": "108-110 \u00b0C @ Press: 8 Torr"}}