{"cas_no": "455-36-7", "cn_name": "3'-\u6c1f\u82ef\u4e59\u916e", "en_name": ["3\u2032-Fluoroacetophenone", "Ethanone, 1-(3-fluorophenyl)-", "Acetophenone, 3\u2032-fluoro-", "1-(3-Fluorophenyl)ethanone", "m-Fluoroacetophenone", "3\u2032-Fluoroacetophenone", "1-Acetyl-3-fluorobenzene", "m-Fluorophenyl methyl ketone", "3-Fluorophenyl methyl ketone", "NSC 88301", "3-Acetyl-1-fluorobenzene", "Methyl 3-fluorophenyl ketone", "1-(3-Fluorophenyl)ethan-1-one"], "SMILES": "C(C)(=O)C1=CC(F)=CC=C1", "physical_data": {"Molecular Weight": "138.14", "Molecular Formula": "C8H7FO", "Boiling Point": "86-87 \u00b0C @ Press: 16 Torr"}}