{"cas_no": "455-87-8", "cn_name": "4-\u6c28\u57fa-3-\u6c1f\u82ef\u7532\u9178", "en_name": ["4-Amino-3-fluorobenzoic acid", "Benzoic acid, 4-amino-3-fluoro-", "4-Amino-3-fluorobenzoic acid", "NSC 25758", "3-Fluoro-4-aminobenzoic acid"], "SMILES": "C(O)(=O)C1=CC(F)=C(N)C=C1", "physical_data": {"Molecular Weight": "155.13", "Molecular Formula": "C7H6FNO2", "Melting Point": "215-216 \u00b0C"}}