{"cas_no": "455-69-6", "cn_name": "2-\u6c1f\u5421\u5576-4-\u7532\u9178\u7532\u916f", "en_name": ["Methyl 2-fluoro-4-pyridinecarboxylate", "4-Pyridinecarboxylic acid, 2-fluoro-, methyl ester", "Isonicotinic acid, 2-fluoro-, methyl ester", "Methyl 2-fluoro-4-pyridinecarboxylate", "NSC 402994", "Methyl 2-fluoroisonicotinate"], "SMILES": "C(OC)(=O)C=1C=C(F)N=CC1", "physical_data": {"Molecular Weight": "155.13", "Molecular Formula": "C7H6FNO2", "Boiling Point": "82-85 \u00b0C @ Press: 8 Torr"}}