{"cas_no": "455-32-3", "cn_name": "\u82ef\u7532\u9170\u6c1f", "en_name": ["Benzoyl fluoride", "Benzoyl fluoride"], "SMILES": "C(F)(=O)C1=CC=CC=C1", "physical_data": {"Molecular Weight": "124.11", "Molecular Formula": "C7H5FO", "Boiling Point": "154.5 \u00b0C", "Melting Point": "-28 \u00b0C", "Density": "1.155 g/cm\u00b3 @ Temp: 18 \u00b0C"}}