{"cas_no": "455-16-3", "cn_name": "\u5bf9\u7532\u57fa\u82ef\u78fa\u9170\u6c1f", "en_name": ["4-Methylbenzenesulfonyl fluoride", "Benzenesulfonyl fluoride, 4-methyl-", "p-Toluenesulfonyl fluoride", "4-Methylbenzenesulfonyl fluoride", "Tosyl fluoride", "p-Methylbenzenesulfonyl fluoride", "4-Tolylsulfonyl fluoride", "Toluene-4-sulfonyl fluoride", "p-Methylphenylsulfonyl fluoride", "4-Methylphenylsulfonyl fluoride", "NSC 2749", "p-Tolylsulfonyl fluoride", "1-(Fluorosulfonyl)-4-methylbenzene"], "SMILES": "S(F)(=O)(=O)C1=CC=C(C)C=C1", "physical_data": {"Molecular Weight": "174.19", "Molecular Formula": "C7H7FO2S", "Boiling Point": "112 \u00b0C", "Melting Point": "41.5 \u00b0C", "Density": "1.233 g/cm\u00b3"}}