{"cas_no": "455-26-5", "cn_name": "4-(\u6c1f\u78fa\u9170)\u82ef\u7532\u9178", "en_name": ["4-(Fluorosulfonyl)benzoic acid", "Benzoic acid, 4-(fluorosulfonyl)-", "Benzoic acid, p-(fluorosulfonyl)-", "4-(Fluorosulfonyl)benzoic acid", "p-(Fluorosulfonyl)benzoic acid", "4-Carboxybenzenesulfonyl fluoride"], "SMILES": "S(F)(=O)(=O)C1=CC=C(C(O)=O)C=C1", "physical_data": {"Molecular Weight": "204.18", "Molecular Formula": "C7H5FO4S", "Melting Point": "270 \u00b0C"}}