{"cas_no": "455-19-6", "cn_name": "\u5bf9\u4e09\u6c1f\u7532\u57fa\u82ef\u7532\u919b", "en_name": ["4-(Trifluoromethyl)benzaldehyde", "Benzaldehyde, 4-(trifluoromethyl)-", "p-Tolualdehyde, \u03b1,\u03b1,\u03b1-trifluoro-", "4-(Trifluoromethyl)benzaldehyde", "p-(Trifluoromethyl)benzaldehyde", "\u03b1,\u03b1,\u03b1-Trifluoro-p-tolualdehyde", "\u03b1,\u03b1,\u03b1-Trifluoro-4-tolualdehyde", "1-Formyl-4-trifluoromethylbenzene"], "SMILES": "C(F)(F)(F)C1=CC=C(C=O)C=C1", "physical_data": {"Molecular Weight": "174.12", "Molecular Formula": "C8H5F3O", "Boiling Point": "66-67 \u00b0C @ Press: 13 Torr"}}