{"cas_no": "455-01-6", "cn_name": "3-(\u4e09\u6c1f\u7532\u57fa)\u82ef\u4e59\u9187", "en_name": ["3-(Trifluoromethyl)benzeneethanol", "Benzeneethanol, 3-(trifluoromethyl)-", "Phenethyl alcohol, m-(trifluoromethyl)-", "3-(Trifluoromethyl)benzeneethanol", "2-[m-(Trifluoromethyl)phenyl]ethanol", "3-(Trifluoromethyl)phenethyl alcohol", "2-[3-(Trifluoromethyl)phenyl]ethanol", "2-[3-(Trifluoromethyl)phenyl]ethyl alcohol", "NSC 43028", "3-Trifluoromethylbenzeneethanol", "2-[3-(Trifluoromethyl)phenyl]ethan-1-ol"], "SMILES": "C(F)(F)(F)C1=CC(CCO)=CC=C1", "physical_data": {"Molecular Weight": "190.16", "Molecular Formula": "C9H9F3O", "Boiling Point": "85-90 \u00b0C @ Press: 4 Torr", "Density": "1.2608 g/cm\u00b3 @ Temp: 20 \u00b0C"}}