{"cas_no": "455-14-1", "cn_name": "\u5bf9\u4e09\u6c1f\u7532\u57fa\u82ef\u80fa", "en_name": ["4-(Trifluoromethyl)aniline", "Benzenamine, 4-(trifluoromethyl)-", "p-Toluidine, \u03b1,\u03b1,\u03b1-trifluoro-", "4-(Trifluoromethyl)benzenamine", "p-Aminobenzotrifluoride", "p-(Trifluoromethyl)aniline", "\u03b1,\u03b1,\u03b1-Trifluoro-p-toluidine", "p-Amino-\u03b1,\u03b1,\u03b1-trifluorotoluene", "4-(Trifluoromethyl)aniline", "4-Aminobenzotrifluoride", "4-Amino-\u03b1,\u03b1,\u03b1-benzotrifluoride", "(4-(Trifluoromethyl)phenyl)amine", "NSC 10337", "p-Trifluoromethylphenylamine", "1-Amino-4-(trifluoromethyl)benzene"], "SMILES": "C(F)(F)(F)C1=CC=C(N)C=C1", "physical_data": {"Molecular Weight": "161.12", "Molecular Formula": "C7H6F3N", "Boiling Point": "117.5 \u00b0C", "Melting Point": "38 \u00b0C", "Density": "1.283 g/cm\u00b3 @ Temp: 27 \u00b0C"}}