{"cas_no": "455-24-3", "cn_name": "4-\u4e09\u6c1f\u7532\u57fa\u82ef\u7532\u9178", "en_name": ["4-(Trifluoromethyl)benzoic acid", "Benzoic acid, 4-(trifluoromethyl)-", "p-Toluic acid, \u03b1,\u03b1,\u03b1-trifluoro-", "4-(Trifluoromethyl)benzoic acid", "p-(Trifluoromethyl)benzoic acid", "C 71640", "\u03b1,\u03b1,\u03b1-Trifluoro-p-toluic acid", "NSC 88327"], "SMILES": "C(F)(F)(F)C1=CC=C(C(O)=O)C=C1", "physical_data": {"Molecular Weight": "190.12", "Molecular Formula": "C8H5F3O2", "Melting Point": "219.5 \u00b0C"}}