{"cas_no": "4551-72-8", "cn_name": "1H-\u5421\u54af-2-\u7532\u9170\u80fa", "en_name": ["Pyrrole-2-carboxamide", "1H-Pyrrole-2-carboxamide", "Pyrrole-2-carboxamide"], "SMILES": "C(N)(=O)C1=CC=CN1", "physical_data": {"Molecular Weight": "110.11", "Molecular Formula": "C5H6N2O", "Melting Point": "174 \u00b0C"}}