{"cas_no": "4551-69-3", "cn_name": "4-\u82ef\u7532\u9170\u57fa-3-\u7532\u57fa-1-\u82ef\u57fa-2-\u5421\u5511-5-\u916e", "en_name": ["1-Phenyl-3-methyl-4-benzoyl-5-pyrazolone", "3H-Pyrazol-3-one, 4-benzoyl-2,4-dihydro-5-methyl-2-phenyl-", "2-Pyrazolin-5-one, 4-benzoyl-3-methyl-1-phenyl-", "4-Benzoyl-2,4-dihydro-5-methyl-2-phenyl-3H-pyrazol-3-one", "4-Benzoyl-3-methyl-1-phenyl-5-pyrazolone", "4-Benzoyl-3-methyl-1-phenyl-2-pyrazolin-5-one", "1-Phenyl-3-methyl-4-benzoylpyrazolin-5-one", "1-Phenyl-3-methyl-4-benzoyl-2-pyrazolin-5-one", "3-Methyl-1-phenyl-4-benzoyl-2-pyrazolin-5-one", "1-Phenyl-3-methyl-4-benzoylpyrazolone", "1-Phenyl-3-methyl-4-benzoyl-5-pyrazolone", "1-Phenyl-3-methyl-4-benzoylpyrazolone-5", "PMBP", "1,4-Dihydro-1-phenyl-3-methyl-4-benzoyl-5H-pyrazol-5-one", "4-Benzoyl-1-phenyl-3-methylpyrazol-5-one", "NSC 144647", "1-Phenyl-3-methyl-4-benzoyl-1H-pyrazol-5(4H)-one", "4-Benzoyl-5-methyl-2-phenyl-2H-pyrazol-3(4H)-one"], "SMILES": "O=C1N(N=C(C)C1C(=O)C2=CC=CC=C2)C3=CC=CC=C3", "physical_data": {"Molecular Weight": "278.31", "Molecular Formula": "C17H14N2O2", "Melting Point": "85 \u00b0C"}}