{"cas_no": "4551-15-9", "cn_name": "\u82ef\u57fa\u786b\u4e09\u7532\u57fa\u7845\u70f7", "en_name": ["[(Trimethylsilyl)thio]benzene", "Benzene, [(trimethylsilyl)thio]-", "Silane, trimethyl(phenylthio)-", "[(Trimethylsilyl)thio]benzene", "Trimethyl(phenylthio)silane", "Phenyl trimethylsilyl sulfide", "Trimethylsilyl phenyl sulfide", "Phenylthiotrimethylsilane", "Trimethyl(phenylthiolato)silicon"], "SMILES": "S([Si](C)(C)C)C1=CC=CC=C1", "physical_data": {"Molecular Weight": "182.36", "Molecular Formula": "C9H14SSi", "Boiling Point": "72 \u00b0C @ Press: 8 Torr", "Density": "0.963 g/cm\u00b3"}}