{"cas_no": "4551-51-3", "cn_name": "\u987a\u5f0f-\u516d\u6c22\u831a\u6ee1", "en_name": ["rel-(3aR,7aS)-Octahydro-1H-indene", "1H-Indene, octahydro-, (3aR,7aS)-rel-", "Indan, hexahydro-, cis-", "1H-Indene, octahydro-, cis-", "rel-(3aR,7aS)-Octahydro-1H-indene", "cis-Bicyclo[4.3.0]nonane", "cis-Hexahydroindan", "cis-Hydrindan", "cis-Perhydroindene"], "SMILES": "C12C(CCC1)CCCC2", "physical_data": {"Molecular Weight": "124.22", "Molecular Formula": "C9H16", "Boiling Point": "166 \u00b0C @ Press: 765 Torr"}}