{"cas_no": "45521-09-3", "cn_name": "D-THIAZOLIDINE-4-CARBOXYLIC ACID", "en_name": ["(S)-4-Thiazolidinecarboxylic acid", "4-Thiazolidinecarboxylic acid, (4S)-", "4-Thiazolidinecarboxylic acid, (S)-", "(4S)-4-Thiazolidinecarboxylic acid", "D-Thiazolidine-4-carboxylic acid", "(S)-4-Thiazolidinecarboxylic acid", "L-4-Thioproline", "(4S)-1,3-Thiazolidine-4-carboxylic acid", "(4S)-1,3-Thiazolidine-4-carboxylic acid"], "SMILES": "C(O)(=O)C1CSCN1", "physical_data": {"Molecular Weight": "133.17", "Molecular Formula": "C4H7NO2S", "Melting Point": "196-197 \u00b0C"}}