{"cas_no": "4553-07-5", "cn_name": "\u82ef\u57fa\u6c30\u57fa\u4e59\u9178\u4e59\u916f", "en_name": ["Benzeneacetic acid, \u03b1-cyano-, ethyl ester", "Benzeneacetic acid, \u03b1-cyano-, ethyl ester", "Acetic acid, cyanophenyl-, ethyl ester", "Ethyl \u03b1-cyanophenylacetate", "Phenylcyanoacetic acid ethyl ester", "Ethyl cyanophenylacetate", "Ethyl 2-cyano-2-phenylacetate", "Ethyl \u03b1-cyano-\u03b1-phenylacetate", "Ethyl (\u00b1)-2-cyano-2-phenylacetate", "NSC 362", "Ethyl 2-phenyl-2-cyanoacetate", "Ethyl \u03b1-cyanobenzeneacetate"], "SMILES": "C(C(OCC)=O)(C#N)C1=CC=CC=C1", "physical_data": {"Molecular Weight": "189.21", "Molecular Formula": "C11H11NO2", "Boiling Point": "163-165 \u00b0C @ Press: 10 Torr", "Melting Point": "115-116 \u00b0C", "Density": "1.085 g/cm\u00b3 @ Temp: 17 \u00b0C"}}