{"cas_no": "4553-62-2", "cn_name": "\u7532\u57fa\u620a\u4e8c\u8148", "en_name": ["2-Methylpentanedinitrile", "Pentanedinitrile, 2-methyl-", "Glutaronitrile, 2-methyl-", "2-Methylpentanedinitrile", "\u03b1-Methylglutarodinitrile", "2,4-Dicyanobutane", "1,3-Dicyanobutane", "2-Methylglutaronitrile", "\u03b1-Methylglutaronitrile", "Diacrylonitrile", "Dytek MGN"], "SMILES": "C(CCC#N)(C#N)C", "physical_data": {"Molecular Weight": "108.14", "Molecular Formula": "C6H8N2", "Boiling Point": "263 \u00b0C", "Melting Point": "-45 \u00b0C", "Density": "0.9548 g/cm\u00b3 @ Temp: 20 \u00b0C"}}