{"cas_no": "45534-08-5", "cn_name": "3-\u6c28\u57fa-5-\u7532\u786b\u57fa-1H-1\uff0c2\uff0c4-\u4e09\u5511", "en_name": ["5-(Methylthio)-1H-1,2,4-triazol-3-amine", "1H-1,2,4-Triazol-3-amine, 5-(methylthio)-", "s-Triazole, 3-amino-5-(methylthio)-", "5-(Methylthio)-1H-1,2,4-triazol-3-amine", "3-Amino-5-(methylthio)-1,2,4-triazole", "NSC 178858", "[5-(Methylsulfenyl)-1H-[1,2,4]triazol-3-yl]amine", "3-Amino-5-methylsulfanyl-1,2,4-triazole", "3-Methylthio-5-amino-1,2,4-triazole", "5-(Methylthio)-4H-1,2,4-triazol-3-amine", "3-Amino-5-methylthio-1H-1,2,4-triazole", "3-(Methylthio)-1,2,4-triazol-5-amine", "3-Methylsulfanyl-1H-1,2,4-triazol-5-amine"], "SMILES": "S(C)C=1NC(N)=NN1", "physical_data": {"Molecular Weight": "130.17", "Molecular Formula": "C3H6N4S", "Melting Point": "135 \u00b0C"}}