{"cas_no": "4554-16-9", "cn_name": "2,3-\u4e8c\u6eb4\u4e19\u8148", "en_name": ["2,3-Dibromopropionitrile", "Propanenitrile, 2,3-dibromo-", "Propionitrile, 2,3-dibromo-", "2,3-Dibromopropanenitrile", "2,3-Dibromopropionitrile", "\u03b1,\u03b2-Dibromopropionitrile", "2,3-Dibromopropanonitrile"], "SMILES": "C(CBr)(C#N)Br", "physical_data": {"Molecular Weight": "212.87", "Molecular Formula": "C3H3Br2N", "Boiling Point": "106-107 \u00b0C @ Press: 22 Torr", "Melting Point": "131-132 \u00b0C", "Density": "2.174 g/cm\u00b3 @ Temp: 20 \u00b0C"}}