{"cas_no": "4556-23-4", "cn_name": "4-\u5421\u5576\u786b\u9187", "en_name": ["4-Mercaptopyridine", "4-Pyridinethiol", "4-Mercaptopyridine", "4-Thiopyridine", "4-Sulfanylpyridine", "NSC 76036"], "SMILES": "SC=1C=CN=CC1", "physical_data": {"Molecular Weight": "111.16", "Molecular Formula": "C5H5NS", "Melting Point": "177 \u00b0C (decomp)"}}