{"cas_no": "4559-86-8", "cn_name": "\u56db\u4e01\u57fa\u8132", "en_name": ["Tetrabutylurea", "Urea, N,N,N\u2032,N\u2032-tetrabutyl-", "Urea, tetrabutyl-", "Urea, 1,1,3,3-tetrabutyl-", "N,N,N\u2032,N\u2032-Tetrabutylurea", "Tetrabutylurea", "1,1,3,3-Tetrabutylurea", "NSC 3892"], "SMILES": "N(C(N(CCCC)CCCC)=O)(CCCC)CCCC", "physical_data": {"Molecular Weight": "284.48", "Molecular Formula": "C17H36N2O", "Boiling Point": "125-130 \u00b0C @ Press: 1 Torr", "Density": "0.8828 g/cm\u00b3"}}