{"cas_no": "4559-79-9", "cn_name": "N,N,N',N'-\u56db\u7532\u57fa-2-\u4e01\u70ef-1,4-\u4e8c\u80fa", "en_name": ["N1,N1,N4,N4-Tetramethyl-2-butene-1,4-diamine", "2-Butene-1,4-diamine, N1,N1,N4,N4-tetramethyl-", "2-Butene-1,4-diamine, N,N,N\u2032,N\u2032-tetramethyl-", "N1,N1,N4,N4-Tetramethyl-2-butene-1,4-diamine", "N,N,N\u2032,N\u2032-Tetramethyl-2-butene-1,4-diamine", "1,4-Bis(dimethylamino)-2-butene", "N,N,N\u2032,N\u2032-Tetramethyl-1,4-diamino-2-butene", "2-Butene-1,4-diamine N1,N1,N4,N4-tetramethyl-", "Tetramethyl butenediamine"], "SMILES": "C(=CCN(C)C)CN(C)C", "physical_data": {"Molecular Weight": "142.24", "Molecular Formula": "C8H18N2", "Boiling Point": "171-172 \u00b0C @ Press: 723 Torr", "Density": "0.8198 g/cm\u00b3 @ Temp: 0 \u00b0C"}}