{"cas_no": "4559-96-0", "cn_name": "4'-\u6eb4-4-\u6c2f\u82ef\u4e01\u916e", "en_name": ["1-(4-Bromophenyl)-4-chloro-1-butanone", "1-Butanone, 1-(4-bromophenyl)-4-chloro-", "Butyrophenone, 4\u2032-bromo-4-chloro-", "1-(4-Bromophenyl)-4-chloro-1-butanone", "4\u2032-Bromo-4-chlorobutyrophenone", "4-Chloro-p-bromobutyrophenone", "4-Bromophenyl 3-chloropropyl ketone", "3-Chloropropyl 4-bromophenyl ketone", "1-(4-Bromophenyl)-4-chlorobutanone"], "SMILES": "C(CCCCl)(=O)C1=CC=C(Br)C=C1", "physical_data": {"Molecular Weight": "261.54", "Molecular Formula": "C10H10BrClO", "Boiling Point": "150-157 \u00b0C @ Press: 6.5 Torr", "Melting Point": "30 \u00b0C", "Density": "1.4808 g/cm\u00b3 @ Temp: 20 \u00b0C"}}