{"cas_no": "456-49-5", "cn_name": "\u95f4\u6c1f\u82ef\u7532\u919a", "en_name": ["1-Fluoro-3-methoxybenzene", "Benzene, 1-fluoro-3-methoxy-", "Anisole, m-fluoro-", "1-Fluoro-3-methoxybenzene", "3-Fluoroanisole", "m-Fluoroanisole", "m-Fluorophenyl methyl ether", "m-Fluoroanisole", "NSC 88277", "3-Methoxyphenyl fluoride"], "SMILES": "O(C)C1=CC(F)=CC=C1", "physical_data": {"Molecular Weight": "126.13", "Molecular Formula": "C7H7FO", "Boiling Point": "159 \u00b0C", "Melting Point": "-35 \u00b0C", "Density": "1.107 g/cm\u00b3 @ Temp: 20 \u00b0C"}}