{"cas_no": "456-42-8", "cn_name": "\u95f4\u6c1f\u6c2f\u82c4", "en_name": ["3-Fluorobenzyl chloride", "Benzene, 1-(chloromethyl)-3-fluoro-", "Toluene, \u03b1-chloro-m-fluoro-", "1-(Chloromethyl)-3-fluorobenzene", "m-Fluorobenzyl chloride", "3-Fluorobenzyl chloride", "\u03b1-Chloro-3-fluorotoluene", "\u03b1-Chloro-m-fluorotoluene", "3-Fluorophenylmethyl chloride", "NSC 60720"], "SMILES": "C(Cl)C1=CC(F)=CC=C1", "physical_data": {"Molecular Weight": "144.57", "Molecular Formula": "C7H6ClF", "Boiling Point": "176 \u00b0C @ Press: 756 Torr", "Melting Point": "34.5-36 \u00b0C", "Density": "1.2135 g/cm\u00b3 @ Temp: 20 \u00b0C"}}