{"cas_no": "456-19-9", "cn_name": "4-\u6c1f\u82ef\u4e9a\u7532\u57fa\u6c2f", "en_name": ["1-(Dichloromethyl)-4-fluorobenzene", "Benzene, 1-(dichloromethyl)-4-fluoro-", "Toluene, \u03b1,\u03b1-dichloro-p-fluoro-", "1-(Dichloromethyl)-4-fluorobenzene", "p-Fluorobenzal chloride", "4-Fluorobenzal chloride", "\u03b1,\u03b1-Dichloro-4-fluorotoluene", "NSC 60716"], "SMILES": "C(Cl)(Cl)C1=CC=C(F)C=C1", "physical_data": {"Molecular Weight": "179.02", "Molecular Formula": "C7H5Cl2F", "Boiling Point": "81-83 \u00b0C @ Press: 15 Torr", "Density": "1.3488 g/cm\u00b3 @ Temp: 20 \u00b0C"}}