{"cas_no": "456-48-4", "cn_name": "3-\u6c1f\u82ef\u7532\u919b", "en_name": ["3-Fluorobenzaldehyde", "Benzaldehyde, 3-fluoro-", "Benzaldehyde, m-fluoro-", "3-Fluorobenzaldehyde", "m-Fluorobenzaldehyde", "3-Fluorobenzenecarboxaldehyde", "NSC 66830", "3-Fluorophenylcarboxaldehyde"], "SMILES": "C(=O)C1=CC(F)=CC=C1", "physical_data": {"Molecular Weight": "124.11", "Molecular Formula": "C7H5FO", "Boiling Point": "173 \u00b0C", "Melting Point": "150-151 \u00b0C", "Density": "1.7156 g/cm\u00b3 @ Temp: 20 \u00b0C"}}