{"cas_no": "456-55-3", "cn_name": "\u4e09\u6c1f\u7532\u6c27\u57fa\u82ef", "en_name": ["(Trifluoromethoxy)benzene", "Benzene, (trifluoromethoxy)-", "Anisole, \u03b1,\u03b1,\u03b1-trifluoro-", "(Trifluoromethoxy)benzene", "Phenyl trifluoromethyl ether", "Trifluoromethyl phenyl ether", "\u03b1,\u03b1,\u03b1-Trifluoroanisole", "1-(Trifluoromethoxy)benzene", "1-Trifluoromethoxybenzene"], "SMILES": "O(C(F)(F)F)C1=CC=CC=C1", "physical_data": {"Molecular Weight": "162.11", "Molecular Formula": "C7H5F3O", "Boiling Point": "102 \u00b0C", "Melting Point": "-50 \u00b0C", "Density": "1.2263 g/cm\u00b3 @ Temp: 20 \u00b0C"}}