{"cas_no": "456-64-4", "cn_name": "\u4e09\u6c1f\u7532\u78fa\u9170\u82ef\u80fa", "en_name": ["1,1,1-Trifluoro-N-phenylmethanesulfonamide", "Methanesulfonamide, 1,1,1-trifluoro-N-phenyl-", "Methanesulfonanilide, 1,1,1-trifluoro-", "1,1,1-Trifluoro-N-phenylmethanesulfonamide", "1,1,1-Trifluoromethanesulfonanilide", "Trifluoromethanesulfonanilide", "N-Phenyltriflamide", "N-Phenyltrifluoromethanesulfonamide", "Phenyltriflamide", "N-Phenyl-1,1,1-trifluoromethanesulfonamide", "N-Trifluoromethanesulfonylaniline"], "SMILES": "N(S(C(F)(F)F)(=O)=O)C1=CC=CC=C1", "physical_data": {"Molecular Weight": "225.19", "Molecular Formula": "C7H6F3NO2S", "Melting Point": "65-66 \u00b0C"}}