{"cas_no": "456-24-6", "cn_name": "2-\u6c1f-5-\u785d\u57fa\u5421\u5576", "en_name": ["2-Fluoro-5-nitropyridine", "Pyridine, 2-fluoro-5-nitro-", "2-Fluoro-5-nitropyridine", "NSC 26280"], "SMILES": "N(=O)(=O)C=1C=CC(F)=NC1", "physical_data": {"Molecular Weight": "142.09", "Molecular Formula": "C5H3FN2O2", "Boiling Point": "79-81 \u00b0C @ Press: 5-6 Torr", "Melting Point": "19-21 \u00b0C", "Density": "1.410 g/cm\u00b3 @ Temp: 23 \u00b0C"}}