{"cas_no": "456-03-1", "cn_name": "4'-\u6c1f\u82ef\u4e19\u916e", "en_name": ["1-(4-Fluorophenyl)-1-propanone", "1-Propanone, 1-(4-fluorophenyl)-", "Propiophenone, 4\u2032-fluoro-", "1-(4-Fluorophenyl)-1-propanone", "p-Fluoropropiophenone", "4\u2032-Fluoropropiophenone", "4-Fluoropropiophenone", "1-(4-Fluorophenyl)propan-1-one", "Ethyl 4-fluorophenyl ketone", "NSC 63354", "4-Fluorophenylpropanone", "(4-Fluorophenyl)ethylketone"], "SMILES": "C(CC)(=O)C1=CC=C(F)C=C1", "physical_data": {"Molecular Weight": "152.17", "Molecular Formula": "C9H9FO", "Boiling Point": "105-107 \u00b0C @ Press: 22 Torr"}}