{"cas_no": "456-22-4", "cn_name": "\u5bf9\u6c1f\u82ef\u7532\u9178", "en_name": ["4-Fluorobenzoic acid", "Benzoic acid, 4-fluoro-", "Benzoic acid, p-fluoro-", "4-Fluorobenzoic acid", "p-Fluorobenzoic acid", "NSC 10321"], "SMILES": "C(O)(=O)C1=CC=C(F)C=C1", "physical_data": {"Molecular Weight": "140.11", "Molecular Formula": "C7H5FO2", "Melting Point": "185 \u00b0C"}}