{"cas_no": "456-06-4", "cn_name": "4-\u6c1f\u82ef\u7532\u9170\u80bc", "en_name": ["4-Fluorobenzoic acid hydrazide", "Benzoic acid, 4-fluoro-, hydrazide", "Benzoic acid, p-fluoro-, hydrazide", "p-Fluorobenzoic acid hydrazide", "4-Fluorobenzhydrazide", "4-Fluorobenzoylhydrazine", "4-Fluorobenzoic acid hydrazide", "p-Fluorobenzoyl hydrazide", "4-Fluorobenzoic hydrazide", "4-Fluorobenzoylhydrazide", "4-Fluorobenzenecarboxylic hydrazide"], "SMILES": "C(NN)(=O)C1=CC=C(F)C=C1", "physical_data": {"Molecular Weight": "154.14", "Molecular Formula": "C7H7FN2O", "Melting Point": "121-123 \u00b0C"}}