{"cas_no": "456-12-2", "cn_name": "\u5370\u67b3\u78b1", "en_name": ["(\u00b1)-Aegeline", "2-Propenamide, N-[2-hydroxy-2-(4-methoxyphenyl)ethyl]-3-phenyl-, (2E)-", "Egeline", "2-Propenamide, N-[2-hydroxy-2-(4-methoxyphenyl)ethyl]-3-phenyl-, (E)-(\u00b1)-", "(2E)-N-[2-Hydroxy-2-(4-methoxyphenyl)ethyl]-3-phenyl-2-propenamide", "Aegelin", "Aegeline", "(\u00b1)-Egeline", "(\u00b1)-Aegeline", "2-Propenamide, N-[2-hydroxy-2-(4-methoxyphenyl)ethyl]-3-phenyl-, (E)-"], "SMILES": "C(CNC(C=CC1=CC=CC=C1)=O)(O)C2=CC=C(OC)C=C2", "physical_data": {"Molecular Weight": "297.35", "Molecular Formula": "C18H19NO3", "Melting Point": "178-179 \u00b0C"}}