{"cas_no": "456-41-7", "cn_name": "3-\u6c1f\u6eb4\u82c4", "en_name": ["3-Fluorobenzyl bromide", "Benzene, 1-(bromomethyl)-3-fluoro-", "Toluene, \u03b1-bromo-m-fluoro-", "1-(Bromomethyl)-3-fluorobenzene", "m-Fluorobenzyl bromide", "3-Fluorobenzyl bromide", "NSC 91494", "(3-Fluorophenyl)methyl bromide", "3-(Bromomethyl)fluorobenzene", "\u03b1-Bromo-3-fluorotoluene", "m-Fluorobenzyl bromide", "1-Fluoro-3-(bromomethyl)benzene"], "SMILES": "C(Br)C1=CC(F)=CC=C1", "physical_data": {"Molecular Weight": "189.02", "Molecular Formula": "C7H6BrF", "Boiling Point": "77 \u00b0C @ Press: 12 Torr"}}