{"cas_no": "456-27-9", "cn_name": "\u5bf9\u785d\u57fa\u82ef\u56db\u6c1f\u787c\u9178\u91cd\u6c2e\u76d0", "en_name": ["4-Nitrobenzenediazonium tetrafluoroborate", "Benzenediazonium, 4-nitro-, tetrafluoroborate(1-) (1:1)", "Benzenediazonium, p-nitro-, tetrafluoroborate(1-)", "p-Nitrobenzenediazonium fluoborate", "Benzenediazonium, 4-nitro-, tetrafluoroborate(1-)", "Benzenediazonium, p-nitro, tetrafluoroborate", "Borate(1-), tetrafluoro-, p-nitrobenzenediazonium", "Borate(1-), tetrafluoro-, 4-nitrobenzenediazonium", "p-Nitrobenzenediazonium fluoroborate", "p-Nitrobenzenediazonium tetrafluoroborate(1-)", "p-Nitrophenyldiazonium tetrafluoroborate", "4-Nitrobenzenediazonium fluoborate", "4-Nitrobenzenediazonium tetrafluoroborate", "p-Nitrophenyl diazonium fluoroborate", "4-Nitrobenzenediazonium fluoroborate", "4-Nitrophenyldiazonium tetrafluoroborate", "p-Nitrobenzenediazonium tetrafluoroborate", "4-Nitrobenzenediazonium tetrafluoroborate(1-)", "NSC 63909", "4-Nitrophenyldiazonium tetrafluoroborate(1-)", "p-Nitroaphenyldiazodium tetrafluoroborate", "4-Nitrobenzenediazonium tetrafluoroboride"], "SMILES": "N(=O)(=O)C1=CC=C([N+]#N)C=C1.[B+3]([F-])([F-])([F-])[F-]", "physical_data": {"Molecular Weight": "", "Molecular Formula": "C6H4N3O2.BF4", "Melting Point": "156 \u00b0C (decomp)", "Density": "1.66 g/cm\u00b3 @ Temp: 25 \u00b0C"}}