{"cas_no": "456-47-3", "cn_name": "3-\u6c1f\u82c4\u9187", "en_name": ["3-Fluorobenzyl alcohol", "Benzenemethanol, 3-fluoro-", "Benzyl alcohol, m-fluoro-", "3-Fluorobenzenemethanol", "m-Fluorobenzyl alcohol", "3-Fluorobenzyl alcohol", "NSC 158273", "(3-Fluorophenyl)methanol"], "SMILES": "C(O)C1=CC(F)=CC=C1", "physical_data": {"Molecular Weight": "126.13", "Molecular Formula": "C7H7FO", "Boiling Point": "201 \u00b0C", "Melting Point": "115-119 \u00b0C"}}