{"cas_no": "456-59-7", "cn_name": "\u6241\u6843\u91783,3,5-\u4e09\u7532\u57fa\u73af\u5df1\u57fa\u916f", "en_name": ["Cyclandelate", "Benzeneacetic acid, \u03b1-hydroxy-, 3,3,5-trimethylcyclohexyl ester", "Mandelic acid, 3,3,5-trimethylcyclohexyl ester", "Cyclohexanol, 3,3,5-trimethyl-, mandelate", "BS 572", "Cyclandelate", "Cyclospasmol", "3,5,5-Trimethylcyclohexanol, mandelic acid ester", "3,3,5-Trimethylcyclohexanol \u03b1-phenyl-\u03b1-hydroxyacetate", "3,5,5-Trimethylcyclohexyl amygdalate", "3,3,5-Trimethylcyclohexyl mandelate", "3,5,5-Trimethylcyclohexyl mandelate", "Cyclolyt", "Cyclomandol", "Perebral", "Spasmocyclon", "Sepyron", "Spasmione", "Arto-Espasmol", "Dilatan", "Capilan", "Ciclospasmol", "Clandilon", "Saiclate", "Sancyclan", "Natil", "Novodil", "Cyclergine", "Cyclobral", "(3,3,5-Trimethylcyclohexyl) 2-hydroxy-2-phenylacetate", "MeSH ID: D003495"], "SMILES": "O(C(C(O)C1=CC=CC=C1)=O)C2CC(C)(C)CC(C)C2", "physical_data": {"Molecular Weight": "276.37", "Molecular Formula": "C17H24O3", "Boiling Point": "192-194 \u00b0C @ Press: 14 Torr", "Melting Point": "50-53 \u00b0C"}}