{"cas_no": "456-04-2", "cn_name": "2-\u6c2f\u4ee3-4'-\u6c1f\u82ef\u4e59\u916e", "en_name": ["2-Chloro-4\u2032-fluoroacetophenone", "Ethanone, 2-chloro-1-(4-fluorophenyl)-", "Acetophenone, 2-chloro-4\u2032-fluoro-", "2-Chloro-1-(4-fluorophenyl)ethanone", "p-Fluorophenacyl chloride", "2-Chloro-1-(4-fluorophenyl)-1-ethanone", "4-Fluorophenacyl chloride", "\u03b1-Chloro-p-fluoroacetophenone", "2-Chloro-4\u2032-fluoroacetophenone", "4\u2032-Fluoro-2-chloroacetophenone", "2-Chloro-1-(4\u2032-fluorophenyl)ethanone", "2\u2032-Chloro-4-fluoroacetophenone", "Chloromethyl 4-fluorophenyl ketone"], "SMILES": "C(CCl)(=O)C1=CC=C(F)C=C1", "physical_data": {"Molecular Weight": "172.58", "Molecular Formula": "C8H6ClFO", "Boiling Point": "137 \u00b0C", "Melting Point": "48 \u00b0C"}}