{"cas_no": "456-56-4", "cn_name": "\u4e09\u6c1f\u7532\u57fa\u82ef\u786b\u919a", "en_name": ["[(Trifluoromethyl)thio]benzene", "Benzene, [(trifluoromethyl)thio]-", "Sulfide, phenyl trifluoromethyl", "[(Trifluoromethyl)thio]benzene", "Phenyl trifluoromethyl sulfide", "Trifluoromethyl phenyl thioether", "Phenyl trifluoromethyl thioether"], "SMILES": "S(C(F)(F)F)C1=CC=CC=C1", "physical_data": {"Molecular Weight": "178.17", "Molecular Formula": "C7H5F3S", "Boiling Point": "140-142 \u00b0C"}}