{"cas_no": "4561-10-8", "cn_name": "L-\u8c37\u6c28\u9178\u4e8c\u82ef\u7532\u916f\u76d0\u9178\u76d0", "en_name": ["L-Glutamic acid, 1,5-bis(phenylmethyl) ester, hydrochloride (1:1)", "L-Glutamic acid, 1,5-bis(phenylmethyl) ester, hydrochloride (1:1)", "Glutamic acid, dibenzyl ester, hydrochloride, L-", "L-Glutamic acid, bis(phenylmethyl) ester, hydrochloride", "Glutamic acid, dibenzyl ester, hydrochloride", "Dibenzyl L-glutamate hydrochloride", "Dibenzyl glutamate hydrochloride", "(S)-Dibenzyl 2-aminopentanedioate hydrochloride"], "SMILES": "C(OC(C(CCC(OCC1=CC=CC=C1)=O)N)=O)C2=CC=CC=C2.Cl", "physical_data": {"Molecular Weight": "", "Molecular Formula": "C19H21NO4.ClH", "Melting Point": "95-97 \u00b0C"}}