{"cas_no": "4562-27-0", "cn_name": "4-\u5627\u5576\u916e", "en_name": ["4-Hydroxypyrimidine", "4(3H)-Pyrimidinone", "4(1H)-Pyrimidinone", "4-Pyrimidinol", "4-Hydroxypyrimidine", "4-Oxopyrimidine", "Deaminoisocytosine", "4-Pyrimidinone", "4-Pyrimidone", "4(3H)-Pyrimidone", "3H-Pyrimidin-4-one", "NSC 1575", "NSC 157911", "Pyrimidine-4-ol", "1H-Pyrimidin-6-one", "3,4-Dihydropyrimidin-4-one"], "SMILES": "O=C1C=CN=CN1", "physical_data": {"Molecular Weight": "96.09", "Molecular Formula": "C4H4N2O", "Melting Point": "164-165 \u00b0C"}}