{"cas_no": "4562-36-1", "cn_name": "\u683c\u5217\u82ef\u8132\u6742\u8d28A", "en_name": ["Gitoxin", "Card-20(22)-enolide, 3-[(O-2,6-dideoxy-\u03b2-D-ribo-hexopyranosyl-(1\u21924)-O-2,6-dideoxy-\u03b2-D-ribo-hexopyranosyl-(1\u21924)-2,6-dideoxy-\u03b2-D-ribo-hexopyranosyl)oxy]-14,16-dihydroxy-, (3\u03b2,5\u03b2,16\u03b2)-", "Gitoxin", "(3\u03b2,5\u03b2,16\u03b2)-3-[(O-2,6-Dideoxy-\u03b2-D-ribo-hexopyranosyl-(1\u21924)-O-2,6-dideoxy-\u03b2-D-ribo-hexopyranosyl-(1\u21924)-2,6-dideoxy-\u03b2-D-ribo-hexopyranosyl)oxy]-14,16-dihydroxycard-20(22)-enolide", "Anhydrogitalin", "Bigitalin", "Pseudodigitoxin", "Pseudodigitoixn", "NSC 95099"], "SMILES": "OC12C3C(C4(C)C(CC3)CC(OC5CC(O)C(OC6CC(O)C(OC7CC(O)C(O)C(C)O7)C(C)O6)C(C)O5)CC4)CCC1(C)C(C(O)C2)C8=CC(=O)OC8", "physical_data": {"Molecular Weight": "780.94", "Molecular Formula": "C41H64O14", "Melting Point": "285 \u00b0C (decomp)", "Density": "1.286 g/cm\u00b3"}}