{"cas_no": "4563-33-1", "cn_name": "\u82ef\u7532\u78fa\u9170\u80fa", "en_name": ["Phenylmethanesulfonamide", "Benzenemethanesulfonamide", "\u03b1-Toluenesulfonamide", "Phenylmethanesulfonamide", "Benzylsulfonamide", "1-Phenylmethanesulfonamide", "Griltex PS 7200", "NSC 28899", "Alpha-toluenesulfonamide"], "SMILES": "C(S(N)(=O)=O)C1=CC=CC=C1", "physical_data": {"Molecular Weight": "171.22", "Molecular Formula": "C7H9NO2S", "Melting Point": "102.5 \u00b0C"}}