{"cas_no": "45644-21-1", "cn_name": "2-\u6c28\u57fa-6-\u6c2f\u5421\u5576", "en_name": ["6-Chloro-2-pyridinamine", "2-Pyridinamine, 6-chloro-", "Pyridine, 2-amino-6-chloro-", "6-Chloro-2-pyridinamine", "2-Amino-6-chloropyridine", "2-Chloro-6-aminopyridine", "6-Amino-2-chloropyridine", "(6-Chloropyridin-2-yl)amine", "6-Chloro-2-aminopyridine"], "SMILES": "ClC=1N=C(N)C=CC1", "physical_data": {"Molecular Weight": "128.56", "Molecular Formula": "C5H5ClN2", "Melting Point": "75 \u00b0C"}}