{"cas_no": "4567-98-0", "cn_name": "\u5341\u4e00\u70f7\u4e8c\u9178\u4e8c\u7532\u916f", "en_name": ["1,11-Dimethyl undecanedioate", "Undecanedioic acid, 1,11-dimethyl ester", "Undecanedioic acid, dimethyl ester", "1,11-Dimethyl undecanedioate", "Hendecanedioic acid dimethyl ester", "Dimethyl undecanedioate", "Dimethyl 1,9-nonanedicarboxylate", "NSC 152029"], "SMILES": "C(CCCCCCCCCC(OC)=O)(OC)=O", "physical_data": {"Molecular Weight": "244.33", "Molecular Formula": "C13H24O4", "Boiling Point": "139-150 \u00b0C @ Press: 3 Torr", "Melting Point": "21-25 \u00b0C"}}