{"cas_no": "4568-71-2", "cn_name": "3-\u82c4\u57fa-5-(2-\u7f9f\u4e59\u57fa)-4-\u7532\u57fa\u6c2f\u5316\u567b\u5511", "en_name": ["3-Benzyl-5-(2-hydroxyethyl)-4-methylthiazolium chloride", "Thiazolium, 5-(2-hydroxyethyl)-4-methyl-3-(phenylmethyl)-, chloride (1:1)", "Thiazolium, 3-benzyl-5-(2-hydroxyethyl)-4-methyl-, chloride", "Thiazolium, 5-(2-hydroxyethyl)-4-methyl-3-(phenylmethyl)-, chloride", "3-Benzyl-5-(2-hydroxyethyl)-4-methylthiazolium chloride", "3-Benzyl-5-(2-hydroxyethyl)-4-methyl-1,3-thiazolium chloride", "5-(2-Hydroxyethyl)-4-methyl-3-(phenylmethyl)thiazolium chloride", "3-Benzyl-5-(2-hydroxyethyl)-4-methyl-1,3-thiazol-3-ium chloride", "3-Benzyl-5-(2-hydroxyethyl)-4-methylthiazol-3-ium chloride", "3-Benzyl-5-(hydroxyethyl)-4-methylthiazolium chloride"], "SMILES": "C([N+]=1C(C)=C(CCO)SC1)C2=CC=CC=C2.[Cl-]", "physical_data": {"Molecular Weight": "", "Molecular Formula": "C13H16NOS.Cl", "Melting Point": "140 \u00b0C"}}