{"cas_no": "4569-82-8", "cn_name": "2-\u82ef\u57fa\u567b\u5511\u70f7", "en_name": ["2-Phenylthiazolidine", "Thiazolidine, 2-phenyl-", "2-Phenylthiazolidine", "2-Phenyl-1,3-thiazolidine", "2-Phenyl-1,3-thiazolane", "2-Phenyltetrahydrothiazole"], "SMILES": "C1(NCCS1)C2=CC=CC=C2", "physical_data": {"Molecular Weight": "165.26", "Molecular Formula": "C9H11NS", "Melting Point": "105-109 \u00b0C"}}