{"cas_no": "4569-77-1", "cn_name": "2-\u6c28\u57fa-3-\u7f9f\u57fa\u5429\u55ea", "en_name": ["2-Amino-3-hydroxyphenazine", "2-Phenazinol, 3-amino-", "3-Amino-2-phenazinol", "3-Amino-2-hydroxyphenazine", "2-Hydroxy-3-aminophenazine", "2-Amino-3-hydroxyphenazine", "NSC 52575"], "SMILES": "NC1=CC2=C(N=C3C(=N2)C=CC=C3)C=C1O", "physical_data": {"Molecular Weight": "211.22", "Molecular Formula": "C12H9N3O", "Melting Point": "&gt;300 \u00b0C"}}