{"cas_no": "457-68-1", "cn_name": "4,4'-\u4e8c\u6c1f\u4e8c\u82ef\u7532\u70f7", "en_name": ["1,1\u2032-Methylenebis[4-fluorobenzene]", "Benzene, 1,1\u2032-methylenebis[4-fluoro-", "Methane, bis(p-fluorophenyl)-", "1,1\u2032-Methylenebis[4-fluorobenzene]", "4,4\u2032-Difluorodiphenylmethane", "1-Fluoro-4-(4-fluorobenzyl)benzene", "Bis(p-fluorophenyl)methane", "NSC 51803", "Bis(4-fluorophenyl)methane"], "SMILES": "C(C1=CC=C(F)C=C1)C2=CC=C(F)C=C2", "physical_data": {"Molecular Weight": "204.22", "Molecular Formula": "C13H10F2", "Boiling Point": "258-260 \u00b0C @ Press: 742 Torr", "Melting Point": "28.5 \u00b0C"}}