{"cas_no": "4570-45-0", "cn_name": "2-\u6c28\u57fa\u6076\u5511", "en_name": ["2-Oxazolamine", "2-Oxazolamine", "Oxazole, 2-amino-", "2-Aminooxazole", "1,3-Oxazol-2-amine", "(1,3-Oxazol-2-yl)amine", "Oxazol-2(3H)-imine"], "SMILES": "NC1=NC=CO1", "physical_data": {"Molecular Weight": "84.08", "Molecular Formula": "C3H4N2O", "Melting Point": "96-98 \u00b0C"}}