{"cas_no": "4570-41-6", "cn_name": "3,4-\u4e8c\u7532\u6c27\u57fa\u82ef\u78fa\u9170\u80fa", "en_name": ["2-Benzoxazolamine", "2-Benzoxazolamine", "Benzoxazole, 2-amino-", "2-Aminobenzoxazole", "NSC 26184", "1,3-Benzoxazol-2-amine", "Benzo[d]oxazol-2-amine", "Benzo[d]oxazole-2-amine"], "SMILES": "NC1=NC=2C(O1)=CC=CC2", "physical_data": {"Molecular Weight": "134.14", "Molecular Formula": "C7H6N2O", "Melting Point": "129-130 \u00b0C"}}