{"cas_no": "4571-25-9", "cn_name": "2-\u6eb4-1-(2,5-\u4e8c\u6c2f\u82ef\u57fa)\u4e59\u916e", "en_name": ["2-Bromo-1-(2,5-dichlorophenyl)ethanone", "Ethanone, 2-bromo-1-(2,5-dichlorophenyl)-", "Acetophenone, 2-bromo-2\u2032,5\u2032-dichloro-", "2-Bromo-1-(2,5-dichlorophenyl)ethanone", "2-Bromo-2\u2032,5\u2032-dichloroacetophenone", "2,5-Dichlorophenacyl bromide", "\u03b1-Bromo-2\u2032,5\u2032-dichloroacetophenone", "2-Bromo-1-(2,5-dichlorophenyl)ethan-1-one"], "SMILES": "C(CBr)(=O)C1=C(Cl)C=CC(Cl)=C1", "physical_data": {"Molecular Weight": "267.93", "Molecular Formula": "C8H5BrCl2O", "Melting Point": "34.5-35 \u00b0C"}}