{"cas_no": "4572-03-6", "cn_name": "1-(3-\u6c28\u4e19\u57fa)-4-\u7532\u57fa\u54cc\u55ea", "en_name": ["1-(3-Aminopropyl)-4-methylpiperazine", "1-Piperazinepropanamine, 4-methyl-", "Piperazine, 1-(3-aminopropyl)-4-methyl-", "4-Methyl-1-piperazinepropanamine", "1-(3-Aminopropyl)-4-methylpiperazine", "N-Methyl-N\u2032-(\u03b3-aminopropyl)piperazine", "3-(4-Methyl-1-piperazinyl)propylamine", "N-Methyl-N\u2032-(3-aminopropyl)piperazine", "4-(3-Aminopropyl)-1-methylpiperazine", "3-(4-Methylpiperazino)propylamine", "NSC 60215", "3-(4-Methylpiperazin-1-yl)propan-1-amine", "N-[3-(4-Methyl-1-piperazinyl)propyl]amine", "1-Methyl-4-(3-aminopropyl)piperazine", "3-(4-Methylpiperazin-1-yl)propanamine"], "SMILES": "C(CCN)N1CCN(C)CC1", "physical_data": {"Molecular Weight": "157.26", "Molecular Formula": "C8H19N3", "Boiling Point": "52 \u00b0C @ Press: 0.3 Torr"}}