{"cas_no": "4573-78-8", "cn_name": "D-\u91d1\u7f15\u6885\u7cd6", "en_name": ["Hamamelose", "D-Ribose, 2-C-(hydroxymethyl)-", "Ribose, 2-C-(hydroxymethyl)-, D-", "2-C-(Hydroxymethyl)-D-ribose", "Hamamelose", "D-Hamamelose"], "SMILES": "C(C(C(CO)O)O)(CO)(C=O)O", "physical_data": {"Molecular Weight": "180.16", "Molecular Formula": "C6H12O6", "Melting Point": "164 \u00b0C"}}