{"cas_no": "45762-41-2", "cn_name": "4-\u6eb4-2-\u4e59\u57fa\u82ef\u80fa", "en_name": ["4-Bromo-2-ethylaniline", "Benzenamine, 4-bromo-2-ethyl-", "Aniline, 4-bromo-2-ethyl-", "4-Bromo-2-ethylbenzenamine", "4-Bromo-2-ethylaniline", "2-Ethyl-4-bromoaniline"], "SMILES": "C(C)C1=C(N)C=CC(Br)=C1", "physical_data": {"Molecular Weight": "200.08", "Molecular Formula": "C8H10BrN", "Boiling Point": "134-138 \u00b0C @ Press: 8 Torr"}}