{"cas_no": "4578-58-9", "cn_name": "4,5-DIHYDRO-6-METHYL-2-PHENYLPYRIDAZIN-3(2H)-ONE", "en_name": ["4,5-Dihydro-6-methyl-2-phenyl-3(2H)-pyridazinone", "3(2H)-Pyridazinone, 4,5-dihydro-6-methyl-2-phenyl-", "4,5-Dihydro-6-methyl-2-phenyl-3(2H)-pyridazinone", "3(2H)-Pyridazin-3-one, 4,5-dihydro-6-methyl-2-phenyl-", "NSC 50989", "NSC 634580"], "SMILES": "O=C1N(N=C(C)CC1)C2=CC=CC=C2", "physical_data": {"Molecular Weight": "188.23", "Molecular Formula": "C11H12N2O", "Melting Point": "105-106 \u00b0C"}}