{"cas_no": "4579-64-0", "cn_name": "\u9ea6\u89d2\u9178\u7532\u916f", "en_name": ["Ergoline-8-carboxylic acid, 9,10-didehydro-6-methyl-, methyl ester, (8\u03b2)-", "Ergoline-8-carboxylic acid, 9,10-didehydro-6-methyl-, methyl ester, (8\u03b2)-", "Ergoline-8\u03b2-carboxylic acid, 9,10-didehydro-6-methyl-, methyl ester", "Lysergic acid, methyl ester", "Indolo[4,3-fg]quinoline, ergoline-8-carboxylic acid deriv.", "D-Lysergic acid methyl ester", "Methyl lysergate", "Methyl D-lysergate", "NSC 157966", "(+)-Lysergic acid methyl ester"], "SMILES": "CN1C2C(C=3C=4C(C2)=CNC4C=CC3)=CC(C(OC)=O)C1", "physical_data": {"Molecular Weight": "282.34", "Molecular Formula": "C17H18N2O2", "Melting Point": "131-139 \u00b0C"}}