{"cas_no": "458-36-6", "cn_name": "\u677e\u67cf\u919b", "en_name": ["Coniferaldehyde", "2-Propenal, 3-(4-hydroxy-3-methoxyphenyl)-", "Cinnamaldehyde, 4-hydroxy-3-methoxy-", "3-(4-Hydroxy-3-methoxyphenyl)-2-propenal", "Coniferaldehyde", "Ferulaldehyde", "p-Coniferaldehyde", "4-Hydroxy-3-methoxycinnamaldehyde", "Coniferyl aldehyde", "3-Methoxy-4-hydroxycinnamaldehyde", "3-(4-Hydroxy-3-methoxyphenyl)acrolein", "Ferulyl aldehyde", "2-Methoxy-4-(3-oxo-1-propenyl)phenol", "4-Hydroxy-3-methoxyzimtaldehyde", "3-(4-Hydroxy-3-methoxyphenyl)propenal", "Ferulic aldehyde"], "SMILES": "C(=CC=O)C1=CC(OC)=C(O)C=C1", "physical_data": {"Molecular Weight": "178.18", "Molecular Formula": "C10H10O3", "Boiling Point": "169 \u00b0C @ Press: 4 Torr", "Melting Point": "84 \u00b0C", "Density": "1.1562 g/cm\u00b3 @ Temp: 101.5 \u00b0C"}}