{"cas_no": "458-37-7", "cn_name": "\u59dc\u9ec4\u7d20", "en_name": ["Curcumin", "1,6-Heptadiene-3,5-dione, 1,7-bis(4-hydroxy-3-methoxyphenyl)-, (1E,6E)-", "Curcumin", "1,6-Heptadiene-3,5-dione, 1,7-bis(4-hydroxy-3-methoxyphenyl)-, (E,E)-", "(1E,6E)-1,7-Bis(4-hydroxy-3-methoxyphenyl)-1,6-heptadiene-3,5-dione", "C.I. 75300", "C.I. Natural Yellow 3", "Curcuma", "Haidr", "Halad", "Haldar", "Halud", "Indian Saffron", "Kacha Haldi", "Merita Earth", "Souchet", "Terra Merita", "Turmeric yellow", "Yellow Ginger", "Yellow Root", "Yo-Kin", "(E,E)-1,7-Bis(4-hydroxy-3-methoxyphenyl)-1,6-heptadiene-3,5-dione", "Diferuloylmethane", "E 100 (dye)", "E 100", "trans,trans-Curcumin", "Turmeric (dye)", "Turmeric", "Natural Yellow 3", "C Yellow 15", "Ukon (dye)", "Ukon", "Curcumin I", "Curcumine", "San-Ei Curcumine AL", "San-Ei Gen Curcumine AL", "NSC 32982", "(E)-1,7-Bis(4-hydroxy-3-methoxyphenyl)-1,6-heptadiene-3,5-dione", "Jianghuangsu", "Curcumin W", "Colorant E 100", "NanoCurc", "Theracurmin", "Biocurcumax", "BR 213", "INS 100i", "Lipocurc", "Natxtra", "Vacurin", "Cureit", "Longvida", "Curcumax", "Kiriyasu Oil Yellow U", "Theracurmin CR 011L", "(E,E)-1,7-Bis(4-hydroxy-3-methoxyphenyl)-1,6-heptadien-3,5-dione", "Curcuma yellow", "KB 2399", "MeSH ID: D003474"], "SMILES": "C(=CC(CC(C=CC1=CC(OC)=C(O)C=C1)=O)=O)C2=CC(OC)=C(O)C=C2", "physical_data": {"Molecular Weight": "368.38", "Molecular Formula": "C21H20O6", "Melting Point": "183 \u00b0C"}}