{"cas_no": "458-45-7", "cn_name": "3-(3\u6c1f\u82ef\u57fa)\u4e19\u9178", "en_name": ["3-(3-Fluorophenyl)propionic acid", "Benzenepropanoic acid, 3-fluoro-", "Hydrocinnamic acid, m-fluoro-", "3-Fluorobenzenepropanoic acid", "m-Fluorohydrocinnamic acid", "3-(3-Fluorophenyl)propanoic acid", "3-(3-Fluorophenyl)propionic acid"], "SMILES": "C(CC(O)=O)C1=CC(F)=CC=C1", "physical_data": {"Molecular Weight": "168.16", "Molecular Formula": "C9H9FO2", "Melting Point": "36-37 \u00b0C"}}