{"cas_no": "458-92-4", "cn_name": "\u4e8c\u6c1f\u7532\u6c27\u57fa\u82ef", "en_name": ["(Difluoromethoxy)benzene", "Benzene, (difluoromethoxy)-", "Anisole, \u03b1,\u03b1-difluoro-", "(Difluoromethoxy)benzene", "Difluoromethyl phenyl ether", "Phenyl difluoromethyl ether", "\u03b1,\u03b1-Difluoroanisole", "NSC 265871"], "SMILES": "O(C(F)F)C1=CC=CC=C1", "physical_data": {"Molecular Weight": "144.12", "Molecular Formula": "C7H6F2O", "Boiling Point": "139-140 \u00b0C @ Press: 763 Torr", "Density": "1.171 g/cm\u00b3 @ Temp: 20 \u00b0C"}}