{"cas_no": "458-46-8", "cn_name": "3-\u6c1f\u8089\u6842\u9178", "en_name": ["3-(3-Fluorophenyl)-2-propenoic acid", "2-Propenoic acid, 3-(3-fluorophenyl)-", "Cinnamic acid, m-fluoro-", "3-(3-Fluorophenyl)-2-propenoic acid", "3-Fluorocinnamic acid", "3-(3-Fluorophenyl)propenoic acid", "NSC 73988"], "SMILES": "C(=CC(O)=O)C1=CC(F)=CC=C1", "physical_data": {"Molecular Weight": "166.15", "Molecular Formula": "C9H7FO2", "Melting Point": "166.5 \u00b0C"}}