{"cas_no": "458-09-3", "cn_name": "3-\u6c1f-4-\u7f9f\u57fa\u82ef\u4e59\u9178", "en_name": ["3-Fluoro-4-hydroxybenzeneacetic acid", "Benzeneacetic acid, 3-fluoro-4-hydroxy-", "Acetic acid, (3-fluoro-4-hydroxyphenyl)-", "3-Fluoro-4-hydroxybenzeneacetic acid", "Capacin", "3-Fluoro-4-hydroxyphenylacetic acid", "Kapacin", "Thyreostaticum EBEWE", "Wiflucin", "2-(3-Fluoro-4-hydroxyphenyl)acetic acid"], "SMILES": "C(C(O)=O)C1=CC(F)=C(O)C=C1", "physical_data": {"Molecular Weight": "170.14", "Molecular Formula": "C8H7FO3", "Melting Point": "132-133 \u00b0C"}}