{"cas_no": "458-35-5", "cn_name": "\u677e\u67cf\u9187", "en_name": ["Coniferyl alcohol", "Phenol, 4-(3-hydroxy-1-propen-1-yl)-2-methoxy-", "Coniferyl alcohol", "2-Propen-1-ol, 3-(4-hydroxy-3-methoxyphenyl)-", "Phenol, 4-(3-hydroxy-1-propenyl)-2-methoxy-", "4-(3-Hydroxy-1-propen-1-yl)-2-methoxyphenol", "\u03b3-Hydroxyisoeugenol", "3-(4-Hydroxy-3-methoxyphenyl)-2-propen-1-ol", "3-(p-Hydroxy-m-methoxyphenyl)-2-propen-1-ol", "Coniferol", "p-Hydroxy-m-methoxycinnamyl alcohol", "3-(4-Hydroxy-3-methoxyphenyl)allyl alcohol", "4-(3-Hydroxy-1-propenyl)-2-methoxyphenol", "4-Hydroxy-3-methoxycinnamyl alcohol", "3-(4-Hydroxy-3-methoxyphenyl)-2-propenol"], "SMILES": "C(=CCO)C1=CC(OC)=C(O)C=C1", "physical_data": {"Molecular Weight": "180.20", "Molecular Formula": "C10H12O3", "Boiling Point": "164 \u00b0C", "Melting Point": "74 \u00b0C"}}