{"cas_no": "458-11-7", "cn_name": "3',4'-\u4e8c\u6c1f\u4e59\u9170\u82ef\u80fa", "en_name": ["N-(3,4-Difluorophenyl)acetamide", "Acetamide, N-(3,4-difluorophenyl)-", "N-(3,4-Difluorophenyl)acetamide", "3,4-Difluoroacetanilide", "NSC 10347"], "SMILES": "N(C(C)=O)C1=CC(F)=C(F)C=C1", "physical_data": {"Molecular Weight": "171.14", "Molecular Formula": "C8H7F2NO", "Melting Point": "127-127.5 \u00b0C"}}