{"cas_no": "458-03-7", "cn_name": "\u95f4\u6c1f\u82ef\u4e59\u919a", "en_name": ["1-Ethoxy-3-fluorobenzene", "Benzene, 1-ethoxy-3-fluoro-", "Phenetole, m-fluoro-", "1-Ethoxy-3-fluorobenzene", "3-Fluorophenetole", "m-Fluorophenyl ethyl ether"], "SMILES": "O(CC)C1=CC(F)=CC=C1", "physical_data": {"Molecular Weight": "140.15", "Molecular Formula": "C8H9FO", "Boiling Point": "172 \u00b0C", "Melting Point": "-27.5 \u00b0C", "Density": "1.0716 g/cm\u00b3 @ Temp: 18.4 \u00b0C"}}