{"cas_no": "4584-46-7", "cn_name": "\u4e8c\u7532\u6c28\u57fa\u6c2f\u4e59\u70f7\u76d0\u9178", "en_name": ["Dimethylaminoethyl chloride hydrochloride", "Ethanamine, 2-chloro-N,N-dimethyl-, hydrochloride (1:1)", "Ethylamine, 2-chloro-N,N-dimethyl-, hydrochloride", "Ethanamine, 2-chloro-N,N-dimethyl-, hydrochloride", "(\u03b2-Chloroethyl)dimethylamine-hydrochloride", "N,N-Dimethyl-N-(2-chloroethyl)amine hydrochloride", "2-Chloro-N,N-dimethylethylamine hydrochloride", "Chloro(dimethylamino)ethane hydrochloride", "1-Chloro-2-(dimethylamino)ethane hydrochloride", "Dimethylaminoethyl chloride hydrochloride", "2-(Dimethylamino)ethyl chloride hydrochloride", "2-Chloro-N,N-dimethylethanamine hydrochloride", "\u03b2-Dimethylaminoethyl chloride hydrochloride", "Chloroethyldimethylamine hydrochloride", "(2-Chloroethyl)dimethylamine hydrochloride", "2-Chloroethyldimethylamine monohydrochloride", "N-(2-Chloroethyl)-N,N-dimethylammonium chloride", "2-Chloroethyldimethylammonium chloride", "2-(Dimethylamino)chloroethane hydrochloride", "2-(N,N-Dimethylamino)ethyl chloride hydrochloride", "N-(2-Chloroethyl)dimethylamine hydrochloride", "N,N-Dimethyl-2-chloroethylamine hydrochloride", "2-Chloroethyl-N,N-dimethylamine hydrochloride", "1-Chloro-2-N,N-dimethylaminoethane hydrochloride", "1-(Dimethylamino)-2-chloroethane hydrochloride", "N,N-Dimethyl-2-chloroethanamine hydrochloride", "1-Chloro-2-dimethylaminoethane monohydrochloride", "N-(2-Chloroethyl)-N,N-dimethylamine hydrochloride", "\u03b2-Chloroethyl-N,N-dimethylamine hydrochloride", "2-Chloro-N,N-dimethylethane amine hydrochloride", "2-Chloro-N,N-dimethylethan-1-amine hydrochloride"], "SMILES": "C(N(C)C)CCl.Cl", "physical_data": {"Molecular Weight": "", "Molecular Formula": "C4H10ClN.ClH", "Melting Point": "201 \u00b0C"}}