{"cas_no": "4584-57-0", "cn_name": "4-\u4e8c\u7532\u6c28\u57fa-4'-\u785d\u57fa\u82ef\u4e59\u70ef", "en_name": ["4\u2032-(Dimethylamino)-4-nitrostilbene", "Benzenamine, N,N-dimethyl-4-[2-(4-nitrophenyl)ethenyl]-", "4-Stilbenamine, N,N-dimethyl-4\u2032-nitro-", "N,N-Dimethyl-4-[2-(4-nitrophenyl)ethenyl]benzenamine", "p-Dimethylamino-p\u2032-nitrostilbene", "4-Nitro-4\u2032-(dimethylamino)stilbene", "4-(Dimethylamino)-4\u2032-nitrostilbene", "4\u2032-Nitro-4-stilbenyl-N,N-dimethylamine", "4\u2032-(N,N-Dimethylamino)-4-nitrostilbene", "4-(N,N-Dimethylamino)-4\u2032-nitrostilbene", "DANS", "4\u2032-(Dimethylamino)-4-nitrostilbene", "DMANS", "DANS (amine)"], "SMILES": "N(C)(C)C1=CC=C(C=CC2=CC=C(N(=O)=O)C=C2)C=C1", "physical_data": {"Molecular Weight": "268.31", "Molecular Formula": "C16H16N2O2", "Melting Point": "250-251 \u00b0C"}}