{"cas_no": "4584-49-0", "cn_name": "N,N-\u4e8c\u7532\u6c28\u57fa-2-\u6c2f\u4e19\u70f7\u76d0\u9178\u76d0", "en_name": ["1-Propanamine, 2-chloro-N,N-dimethyl-, hydrochloride (1:1)", "1-Propanamine, 2-chloro-N,N-dimethyl-, hydrochloride (1:1)", "Propylamine, 2-chloro-N,N-dimethyl-, hydrochloride", "1-Propanamine, 2-chloro-N,N-dimethyl-, hydrochloride", "2-Chloro-N,N-dimethyl-1-propanamine hydrochloride", "1-Methyl-2-dimethylaminoethyl chloride hydrochloride", "(2-Chloropropyl)dimethylamine monohydrochloride", "N,N-Dimethyl-2-chloropropylamine hydrochloride", "2-(Dimethylamino)isopropyl chloride hydrochloride", "2-(Dimethylamino)-1-methylethyl chloride hydrochloride", "2-Chloro-N\u2032,N\u2032-dimethylaminopropane hydrochloride", "2-Chloro-N,N-dimethylaminopropane hydrochloride", "1-(Dimethylamino)-2-chloropropane hydrochloride", "Dimethylaminoisopropyl chloride hydrochloride", "1-Dimethylamino-2-propyl chloride hydrochloride", "NSC 53532", "NSC 5367", "1-Dimethylaminopropan-2-yl chloride hydrochloride", "(2-Chloropropyl)dimethylamine hydrochloride", "2-Chloro-N,N-dimethylpropylamine hydrochloride", "(2-Chloropropyl)dimethylazanium chloride"], "SMILES": "C(C(C)Cl)N(C)C.Cl", "physical_data": {"Molecular Weight": "", "Molecular Formula": "C5H12ClN.ClH", "Melting Point": "196 \u00b0C"}}