{"cas_no": "458532-88-2", "cn_name": "3-\u6c1f\u5421\u5576-4-\u787c\u9178\u9891\u54ea\u916f", "en_name": ["3-Fluoropyridine-4-boronic acid pinacol ester", "Pyridine, 3-fluoro-4-(4,4,5,5-tetramethyl-1,3,2-dioxaborolan-2-yl)-", "3-Fluoro-4-(4,4,5,5-tetramethyl-1,3,2-dioxaborolan-2-yl)pyridine", "3-Fluoro-4-(4,4,5,5-tetramethyl-[1,3,2]dioxaborolan-2-yl)pyridine", "3-Fluoropyridine-4-boronic acid pinacol ester", "2-(3-Fluoropyridin-4-yl)-4,4,5,5-tetramethyl-1,3,2-dioxaborolane", "3-Fluoro-4-(tetramethyl-1,3,2-dioxaborolan-2-yl)pyridine"], "SMILES": "FC=1C(B2OC(C)(C)C(C)(C)O2)=CC=NC1", "physical_data": {"Molecular Weight": "223.05", "Molecular Formula": "C11H15BFNO2", "Melting Point": "110-115 \u00b0C (sublm)"}}