{"cas_no": "4587-33-1", "cn_name": "BOC-L-\u5929\u51ac\u9170\u80fa 4-\u785d\u57fa\u82ef\u916f", "en_name": ["N2-[(1,1-Dimethylethoxy)carbonyl]-L-asparagine 4-nitrophenyl ester", "L-Asparagine, N2-[(1,1-dimethylethoxy)carbonyl]-, 4-nitrophenyl ester", "Asparagine, N2-carboxy-, N2-tert-butyl p-nitrophenyl ester, L-", "Asparagine, N2-carboxy-, N-tert-butyl p-nitrophenyl ester", "N2-[(1,1-Dimethylethoxy)carbonyl]-L-asparagine 4-nitrophenyl ester", "p-Nitrophenyl N\u03b1-tert-butoxycarbonyl-L-asparagine", "N2-tert-Butyloxycarbonyl-L-asparagine p-nitrophenyl ester", "N-(tert-Butoxycarbonyl)-L-asparagine p-nitrophenyl ester", "N2-tert-Butoxycarbonyl-L-asparagine p-nitrophenyl ester", "N-BOC-L-asparagine p-nitrophenyl ester", "N-tert-Butoxycarbonylasparagine 4-nitrophenyl ester", "(4-Nitrophenyl) (2S)-4-amino-2-[(2-methylpropan-2-yl)oxycarbonylamino]-4-oxobutanoate"], "SMILES": "O(C(C(NC(OC(C)(C)C)=O)CC(N)=O)=O)C1=CC=C(N(=O)=O)C=C1", "physical_data": {"Molecular Weight": "353.33", "Molecular Formula": "C15H19N3O7", "Melting Point": "180 \u00b0C"}}