{"cas_no": "459-86-9", "cn_name": "\u4e19\u8112\u8159", "en_name": ["Methylglyoxal bis(guanylhydrazone)", "Hydrazinecarboximidamide, 2,2\u2032-(1-methyl-1,2-ethanediylidene)bis-", "Guanidine, 1,1\u2032-[(methylethanediylidene)dinitrilo]di-", "2,2\u2032-(1-Methyl-1,2-ethanediylidene)bis[hydrazinecarboximidamide]", "Pyruvaldehyde, bis(amidinohydrazone)", "Methylglyoxal bis(guanylhydrazone)", "NSC 32946", "Me-GAG", "Methyl-Gag", "Methyl-G", "Mitoguazone", "MGBG", "Methylglyoxal bis(amidinohydrazone)", "Mitoguanazone"], "SMILES": "C(=NNC(=N)N)(C=NNC(=N)N)C", "physical_data": {"Molecular Weight": "184.20", "Molecular Formula": "C5H12N8", "Melting Point": "225 \u00b0C (decomp)"}}