{"cas_no": "459-57-4", "cn_name": "\u5bf9\u6c1f\u82ef\u7532\u919b", "en_name": ["4-Fluorobenzaldehyde", "Benzaldehyde, 4-fluoro-", "Benzaldehyde, p-fluoro-", "4-Fluorobenzaldehyde", "p-Fluorobenzaldehyde", "p-Fluorobenzenecarboxaldehyde", "NSC 68095"], "SMILES": "C(=O)C1=CC=C(F)C=C1", "physical_data": {"Molecular Weight": "124.11", "Molecular Formula": "C7H5FO", "Boiling Point": "181.5 \u00b0C", "Melting Point": "-10 \u00b0C"}}