{"cas_no": "459-64-3", "cn_name": "\u56db\u6c1f\u787c\u9178-4-\u7532\u6c27\u57fa\u91cd\u6c2e\u82ef\u6b63\u916f", "en_name": ["4-Methoxybenzenediazonium tetrafluoroborate", "Benzenediazonium, 4-methoxy-, tetrafluoroborate(1-) (1:1)", "Benzenediazonium, p-methoxy-, tetrafluoroborate(1-)", "Benzenediazonium, 4-methoxy-, tetrafluoroborate(1-)", "p-Methoxybenzenediazonium tetrafluoroborate", "p-Methoxybenzenediazonium fluoborate", "Borate(1-), tetrafluoro-, p-methoxybenzenediazonium", "Borate(1-), tetrafluoro-, 4-methoxybenzenediazonium", "p-Methoxybenzenediazonium tetrafluoroborate(1-)", "p-Methoxybenzenediazonium fluoroborate", "p-Anisyldiazonium tetrafluoroborate", "4-Methoxybenzenediazonium tetrafluoroborate", "4-Methoxyphenyldiazonium tetrafluoroborate", "p-Methoxyphenyldiazonium tetrafluoroborate", "Diazene, (4-methoxyphenyl)-, tetrafluoroborate(1-) (1:1)"], "SMILES": "[B+3]([F-])([F-])([F-])[F-].[N+](#N)C1=CC=C(OC)C=C1", "physical_data": {"Molecular Weight": "", "Molecular Formula": "C7H7N2O.BF4", "Melting Point": "142-143 \u00b0C"}}