{"cas_no": "459-03-0", "cn_name": "4-\u6c1f\u82ef\u57fa\u4e19\u916e", "en_name": ["(4-Fluorophenyl)acetone", "2-Propanone, 1-(4-fluorophenyl)-", "2-Propanone, 1-(p-fluorophenyl)-", "2-Propanone, (p-fluorophenyl)-", "1-(4-Fluorophenyl)-2-propanone", "p-Fluorobenzyl methyl ketone", "(p-Fluorophenyl)acetone", "(4-Fluorophenyl)acetone", "4-Fluorobenzyl methyl ketone", "3-(4-Fluorophenyl)-2-propanone", "1-Acetonyl-4-fluorobenzene"], "SMILES": "C(C(C)=O)C1=CC=C(F)C=C1", "physical_data": {"Molecular Weight": "152.17", "Molecular Formula": "C9H9FO", "Boiling Point": "108 \u00b0C @ Press: 18 Torr", "Density": "1.107 g/cm\u00b3 @ Temp: 20 \u00b0C"}}