{"cas_no": "459-19-8", "cn_name": "4-\u6c1f\u82ef\u4e59\u80fa", "en_name": ["Benzeneethanamine, 4-fluoro-, hydrochloride (1:1)", "Benzeneethanamine, 4-fluoro-, hydrochloride (1:1)", "Phenethylamine, p-fluoro-, hydrochloride", "Benzeneethanamine, 4-fluoro-, hydrochloride", "p-Fluorophenethylamine hydrochloride", "2-(4-Fluorophenyl)ethylamine hydrochloride", "4-Fluorophenethylamine hydrochloride", "2-(4-Fluorophenyl)ethanamine hydrochloride"], "SMILES": "C(CN)C1=CC=C(F)C=C1.Cl", "physical_data": {"Molecular Weight": "", "Molecular Formula": "C8H10FN.ClH", "Melting Point": "206-208 \u00b0C"}}