{"cas_no": "459-22-3", "cn_name": "\u5bf9\u6c1f\u82ef\u4e59\u8148", "en_name": ["4-Fluorobenzeneacetonitrile", "Benzeneacetonitrile, 4-fluoro-", "Acetonitrile, (p-fluorophenyl)-", "4-Fluorobenzeneacetonitrile", "(p-Fluorophenyl)acetonitrile", "p-Fluorobenzyl cyanide", "4-Fluorobenzyl cyanide", "4-Fluorophenylacetonitrile", "p-Fluorobenzeneacetonitrile", "p-Fluorobenzyl nitrile", "NSC 60739", "2-(4-Fluorophenyl)acetonitrile"], "SMILES": "C(C#N)C1=CC=C(F)C=C1", "physical_data": {"Molecular Weight": "135.14", "Molecular Formula": "C8H6FN", "Boiling Point": "122-123 \u00b0C @ Press: 21 Torr", "Density": "1.139 g/cm\u00b3 @ Temp: 20 \u00b0C"}}