{"cas_no": "459-31-4", "cn_name": "3-(4-\u6c1f\u82ef\u57fa)\u4e19\u9178", "en_name": ["3-(4-Fluorophenyl)propionic acid", "Benzenepropanoic acid, 4-fluoro-", "Hydrocinnamic acid, p-fluoro-", "4-Fluorobenzenepropanoic acid", "p-Fluorohydrocinnamic acid", "3-(p-Fluorophenyl)propionic acid", "3-(4-Fluorophenyl)propionic acid", "3-(4-Fluorophenyl)propanoic acid", "NSC 403021", "4-Fluorobenzylacetic acid"], "SMILES": "C(CC(O)=O)C1=CC=C(F)C=C1", "physical_data": {"Molecular Weight": "168.16", "Molecular Formula": "C9H9FO2", "Boiling Point": "105-107 \u00b0C @ Press: 22 Torr", "Melting Point": "95 \u00b0C"}}