{"cas_no": "459-23-4", "cn_name": "4-\u6c1fBENZALD\u809f", "en_name": ["4-Fluorobenzaldehyde oxime", "Benzaldehyde, 4-fluoro-, oxime", "Benzaldehyde, p-fluoro-, oxime", "p-Fluorobenzaldehyde oxime", "4-Fluorobenzaldoxime", "4-Fluorobenzaldehyde oxime"], "SMILES": "C(=NO)C1=CC=C(F)C=C1", "physical_data": {"Molecular Weight": "139.13", "Molecular Formula": "C7H6FNO", "Melting Point": "83.5 \u00b0C"}}