{"cas_no": "459-46-1", "cn_name": "4-\u6c1f\u6eb4\u82c4", "en_name": ["4-Fluorobenzyl bromide", "Benzene, 1-(bromomethyl)-4-fluoro-", "Toluene, \u03b1-bromo-p-fluoro-", "1-(Bromomethyl)-4-fluorobenzene", "4-Fluorobenzyl bromide", "p-Fluorobenzyl bromide", "\u03b1-Bromo-p-fluorotoluene", "\u03b1-Bromo-4-fluorotoluene", "1-Fluoro-4-(bromomethyl)benzene"], "SMILES": "C(Br)C1=CC=C(F)C=C1", "physical_data": {"Molecular Weight": "189.02", "Molecular Formula": "C7H6BrF", "Boiling Point": "85 \u00b0C @ Press: 16 Torr"}}