{"cas_no": "459-04-1", "cn_name": "\u5bf9\u6c1f\u82ef\u4e59\u9170\u6c2f", "en_name": ["2-(4-Fluorophenyl)acetyl chloride", "Benzeneacetyl chloride, 4-fluoro-", "Acetyl chloride, (p-fluorophenyl)-", "4-Fluorobenzeneacetyl chloride", "(p-Fluorophenyl)acetyl chloride", "4-Fluorophenylacetyl chloride", "2-(4-Fluorophenyl)acetyl chloride"], "SMILES": "C(C(Cl)=O)C1=CC=C(F)C=C1", "physical_data": {"Molecular Weight": "172.58", "Molecular Formula": "C8H6ClFO", "Boiling Point": "102-104 \u00b0C @ Press: 12 Torr"}}