{"cas_no": "459-80-3", "cn_name": "\u5785\u725b\u513f\u9178", "en_name": ["Geranic acid", "2,6-Octadienoic acid, 3,7-dimethyl-", "Geranic acid", "3,7-Dimethyl-2,6-octadienoic acid", "NSC 229335"], "SMILES": "C(CCC=C(C)C)(=CC(O)=O)C", "physical_data": {"Molecular Weight": "168.23", "Molecular Formula": "C10H16O2", "Boiling Point": "118-120 \u00b0C @ Press: 0.1 Torr", "Melting Point": "185-186 \u00b0C (decomp)", "Density": "1.10 g/cm\u00b3"}}