{"cas_no": "459-32-5", "cn_name": "\u5bf9\u6c1f\u8089\u6842\u9178", "en_name": ["3-(4-Fluorophenyl)-2-propenoic acid", "2-Propenoic acid, 3-(4-fluorophenyl)-", "Cinnamic acid, p-fluoro-", "3-(4-Fluorophenyl)-2-propenoic acid", "p-Fluorocinnamic acid", "4-Fluorocinnamic acid", "NSC 74070", "3-(4-Fluorophenyl)acrylic acid"], "SMILES": "C(=CC(O)=O)C1=CC=C(F)C=C1", "physical_data": {"Molecular Weight": "166.15", "Molecular Formula": "C9H7FO2", "Melting Point": "209-210 \u00b0C (decomp)"}}