{"cas_no": "459-47-2", "cn_name": "1-\u4e59\u57fa-4-\u6c1f\u82ef", "en_name": ["1-Ethyl-4-fluorobenzene", "Benzene, 1-ethyl-4-fluoro-", "1-Ethyl-4-fluorobenzene", "p-Fluoroethylbenzene", "4-Fluoroethylbenzene", "4-Ethylfluorobenzene", "1-Fluoro-4-ethylbenzene"], "SMILES": "C(C)C1=CC=C(F)C=C1", "physical_data": {"Molecular Weight": "124.16", "Molecular Formula": "C8H9F", "Boiling Point": "141 \u00b0C", "Density": "0.994 g/cm\u00b3 @ Temp: 0 \u00b0C"}}