{"cas_no": "459-72-3", "cn_name": "\u6c1f\u4e59\u9178\u4e59\u916f", "en_name": ["Ethyl fluoroacetate", "Acetic acid, 2-fluoro-, ethyl ester", "Acetic acid, fluoro-, ethyl ester", "Ethyl fluoroacetate", "Ethyl monofluoroacetate", "Monofluoroacetic acid ethyl ester", "NSC 133459", "Fluoroacetic acid ethyl ester", "Ethyl 2-fluoroacetate"], "SMILES": "C(OCC)(CF)=O", "physical_data": {"Molecular Weight": "106.10", "Molecular Formula": "C4H7FO2", "Boiling Point": "121.6 \u00b0C @ Press: 758 Torr", "Density": "1.0926 g/cm\u00b3 @ Temp: 20.5 \u00b0C"}}