{"cas_no": "459-60-9", "cn_name": "4-\u6c1f\u82ef\u7532\u919a", "en_name": ["4-Fluoroanisole", "Benzene, 1-fluoro-4-methoxy-", "Anisole, p-fluoro-", "1-Fluoro-4-methoxybenzene", "4-Fluoroanisole", "p-Methoxyfluorobenzene", "p-Fluoroanisole", "p-Fluoromethoxybenzene", "p-Fluorophenyl methyl ether", "4-Fluoromethoxybenzene", "4-Fluoro-1-methoxybenzene", "4-Fluorophenyl methyl ether", "4-Methoxyfluorobenzene", "4-Methoxyphenyl fluoride", "NSC 4672"], "SMILES": "O(C)C1=CC=C(F)C=C1", "physical_data": {"Molecular Weight": "126.13", "Molecular Formula": "C7H7FO", "Boiling Point": "157 \u00b0C", "Melting Point": "-45 \u00b0C", "Density": "1.1109 g/cm\u00b3 @ Temp: 25.00 \u00b0C"}}