{"cas_no": "459-26-7", "cn_name": "4-\u6c1f\u82ef\u4e59\u919a", "en_name": ["1-Ethoxy-4-fluorobenzene", "Benzene, 1-ethoxy-4-fluoro-", "Phenetole, p-fluoro-", "1-Ethoxy-4-fluorobenzene", "p-Fluorophenetole", "p-Ethoxyfluorobenzene", "4-Fluoro-1-ethoxybenzene", "Ethyl 4-fluorophenyl ether", "4-Ethoxyfluorobenzene", "NSC 89719"], "SMILES": "O(CC)C1=CC=C(F)C=C1", "physical_data": {"Molecular Weight": "140.15", "Molecular Formula": "C8H9FO", "Boiling Point": "173 \u00b0C", "Melting Point": "-8.5 \u00b0C", "Density": "1.07148 g/cm\u00b3 @ Temp: 18.2 \u00b0C"}}