{"cas_no": "459-59-6", "cn_name": "4-\u6c1f-N-\u7532\u57fa\u82ef\u80fa", "en_name": ["4-Fluoro-N-methylaniline", "Benzenamine, 4-fluoro-N-methyl-", "Aniline, p-fluoro-N-methyl-", "4-Fluoro-N-methylbenzenamine", "p-Fluoro-N-methylaniline", "4-Fluoro-N-methylaniline", "N-Methyl-4-fluoroaniline", "N-Methyl-p-fluoroaniline", "N-(4-Fluorophenyl)methylamine", "N-(4-Fluorophenyl)-N-methylamine", "4-Fluoro-N-methylphenylamine"], "SMILES": "N(C)C1=CC=C(F)C=C1", "physical_data": {"Molecular Weight": "125.14", "Molecular Formula": "C7H8FN", "Boiling Point": "79-80 \u00b0C @ Press: 10 Torr", "Density": "1.1057 g/cm\u00b3 @ Temp: 23 \u00b0C"}}