{"cas_no": "459-56-3", "cn_name": "\u5bf9\u6c1f\u82ef\u7532\u9187", "en_name": ["4-Fluorobenzyl alcohol", "Benzenemethanol, 4-fluoro-", "Benzyl alcohol, p-fluoro-", "4-Fluorobenzenemethanol", "p-Fluorobenzyl alcohol", "4-Fluorobenzyl alcohol", "(4-Fluorophenyl)methanol", "NSC 63347", "p-Fluorophenylmethanol"], "SMILES": "C(O)C1=CC=C(F)C=C1", "physical_data": {"Molecular Weight": "126.13", "Molecular Formula": "C7H7FO", "Boiling Point": "210 \u00b0C", "Melting Point": "23 \u00b0C"}}