{"cas_no": "459-05-2", "cn_name": "1-(4-\u6c1f\u82ef\u57fa)-2-\u786b\u8132", "en_name": ["N-(4-Fluorophenyl)thiourea", "Thiourea, N-(4-fluorophenyl)-", "Urea, 1-(p-fluorophenyl)-2-thio-", "Thiourea, (4-fluorophenyl)-", "N-(4-Fluorophenyl)thiourea", "p-Fluorophenylthiourea", "(4-Fluorophenyl)thiourea", "1-(4-Fluorophenyl)thiourea"], "SMILES": "N(C(N)=S)C1=CC=C(F)C=C1", "physical_data": {"Molecular Weight": "170.21", "Molecular Formula": "C7H7FN2S", "Melting Point": "164 \u00b0C"}}