{"cas_no": "459-73-4", "cn_name": "2-\u80fa\u57fa\u4e59\u9178\u4e59\u916f", "en_name": ["Glycine ethyl ester", "Glycine, ethyl ester", "Ethyl glycinate", "Ethyl glycine", "Ethyl aminoacetate", "(Ethoxycarbonyl)methylamine", "Ethyl 2-aminoacetate", "Aminoacetic acid ethyl ester", "Glycine ethyl ester"], "SMILES": "C(OCC)(CN)=O", "physical_data": {"Molecular Weight": "103.12", "Molecular Formula": "C4H9NO2", "Boiling Point": "149 \u00b0C", "Melting Point": "95.5 \u00b0C"}}