{"cas_no": "4591-55-3", "cn_name": "3,5-\u5421\u5576\u4e8c\u7532\u9178\u7532\u916f", "en_name": ["3,5-Pyridinedicarboxylic acid, 3,5-dimethyl ester", "3,5-Pyridinedicarboxylic acid, 3,5-dimethyl ester", "3,5-Pyridinedicarboxylic acid, dimethyl ester", "Dimethyl 3,5-pyridinedicarboxylate", "3,5-Bismethoxycarbonylpyridine", "3,5-Di(methoxycarbonyl)pyridine", "NSC 403260", "3,5-Dimethyl pyridine-3,5-dicarboxylate"], "SMILES": "C(OC)(=O)C=1C=C(C(OC)=O)C=NC1", "physical_data": {"Molecular Weight": "195.17", "Molecular Formula": "C9H9NO4", "Melting Point": "84-85 \u00b0C"}}