{"cas_no": "4591-56-4", "cn_name": "3,5-\u5421\u5576\u4e8c\u7532\u9178\u4e8c\u4e59\u916f", "en_name": ["3,5-Pyridinedicarboxylic acid, 3,5-diethyl ester", "3,5-Pyridinedicarboxylic acid, 3,5-diethyl ester", "3,5-Pyridinedicarboxylic acid, diethyl ester", "3,5-Diethoxycarbonylpyridine", "3,5-Dicarbethoxypyridine", "Diethyl pyridine-3,5-dicarboxylate", "Diethyl dinicotinate", "NSC 165814", "3,5-Diethyl pyridine-3,5-dicarboxylate"], "SMILES": "C(OCC)(=O)C=1C=C(C(OCC)=O)C=NC1", "physical_data": {"Molecular Weight": "223.23", "Molecular Formula": "C11H13NO4", "Boiling Point": "145 \u00b0C @ Press: 1 Torr", "Melting Point": "51 \u00b0C"}}