{"cas_no": "4593-81-1", "cn_name": "\u4e8c\u4e01\u57fa\u6c2f\u5316\u9517", "en_name": ["Dibutyldichlorogermane", "Germane, dibutyldichloro-", "Dibutylgermanium dichloride", "Dibutyldichlorogermane", "Dichlorodibutylgermane", "Di-n-butylgermanedichloride", "Dibutyldichlorogermanium", "NSC 166300"], "SMILES": "[Ge](CCCC)(CCCC)(Cl)Cl", "physical_data": {"Molecular Weight": "257.77", "Molecular Formula": "C8H18Cl2Ge", "Boiling Point": "242 \u00b0C", "Density": "1.208 g/cm\u00b3"}}