{"cas_no": "4593-90-2", "cn_name": "(+/-)-3-\u82ef\u57fa\u4e01\u9178", "en_name": ["3-Phenylbutyric acid", "Benzenepropanoic acid, \u03b2-methyl-", "Hydrocinnamic acid, \u03b2-methyl-", "\u03b2-Methylbenzenepropanoic acid", "\u03b2-Methylhydrocinnamic acid", "3-Phenylbutanoic acid", "\u03b2-Phenylbutyric acid", "3-Phenylbutyric acid", "(\u00b1)-\u03b2-Phenylbutyric acid", "(\u00b1)-3-Phenylbutyric acid", "(RS)-3-Phenylbutanoic acid", "NSC 177801", "NSC 67346"], "SMILES": "C(CC(O)=O)(C)C1=CC=CC=C1", "physical_data": {"Molecular Weight": "164.20", "Molecular Formula": "C10H12O2", "Boiling Point": "172-710 \u00b0C", "Melting Point": "37-39 \u00b0C", "Density": "1.067 g/cm\u00b3 @ Temp: 16.2 \u00b0C"}}