{"cas_no": "4594-78-9", "cn_name": "2-\u6c27-1-\u73af\u5df1\u70f7\u4e19\u8148", "en_name": ["2-Oxocyclohexanepropanenitrile", "Cyclohexanepropanenitrile, 2-oxo-", "Cyclohexanepropionitrile, 2-oxo-", "2-Oxocyclohexanepropanenitrile", "2-(2-Cyanoethyl)cyclohexanone", "2-(\u03b2-Cyanoethyl)cyclohexanone", "2-(2-Cyanoethyl)-1-cyclohexanone", "NSC 119497", "NSC 60268", "3-(2-Cyclohexanone)propionitrile", "3-(2-Oxocyclohexyl)propanenitrile"], "SMILES": "C(CC#N)C1C(=O)CCCC1", "physical_data": {"Molecular Weight": "151.21", "Molecular Formula": "C9H13NO", "Boiling Point": "138-142 \u00b0C @ Press: 10 Torr", "Melting Point": "61-62 \u00b0C", "Density": "1.002 g/cm\u00b3 @ Temp: 420 \u00b0C"}}