{"cas_no": "4595-59-9", "cn_name": "5-\u6eb4\u5627\u5576", "en_name": ["5-Bromopyrimidine", "Pyrimidine, 5-bromo-", "5-Bromopyrimidine"], "SMILES": "BrC=1C=NC=NC1", "physical_data": {"Molecular Weight": "158.98", "Molecular Formula": "C4H3BrN2", "Boiling Point": "60-80 \u00b0C @ Press: 10 Torr", "Melting Point": "71-73 \u00b0C"}}