{"cas_no": "4595-60-2", "cn_name": "2-\u6eb4\u5627\u5576", "en_name": ["2-Bromopyrimidine", "Pyrimidine, 2-bromo-", "2-Bromopyrimidine", "NSC 88935"], "SMILES": "BrC=1N=CC=CN1", "physical_data": {"Molecular Weight": "158.98", "Molecular Formula": "C4H3BrN2", "Melting Point": "55.5-57.0 \u00b0C"}}