{"cas_no": "4595-61-3", "cn_name": "\u5627\u5576-5-\u7fa7\u9178", "en_name": ["5-Pyrimidinecarboxylic acid", "5-Pyrimidinecarboxylic acid", "5-Carboxypyrimidine", "Pyrimidine-5-carboxylic acid"], "SMILES": "C(O)(=O)C=1C=NC=NC1", "physical_data": {"Molecular Weight": "124.10", "Molecular Formula": "C5H4N2O2", "Melting Point": "268-270 \u00b0C"}}