{"cas_no": "4596-23-0", "cn_name": "\u67b8\u6a7c\u9178\u5965\u82ac\u90a3\u541b", "en_name": ["Orphenadrine citrate", "Ethanamine, N,N-dimethyl-2-[(2-methylphenyl)phenylmethoxy]-, 2-hydroxy-1,2,3-propanetricarboxylate (1:1)", "Ethylamine, N,N-dimethyl-2-[(o-methyl-\u03b1-phenylbenzyl)oxy]-, citrate (1:1)", "Norflex (pharmaceutical)", "Orphenadrine citrate", "Plenactol", "Norflex", "X-Otag", "Banflex", "2-Hydroxypropane-1,2,3-tricarboxylic acid", "dimethyl([2-[(2-methylphenyl)(phenyl)methoxy]ethyl])amine"], "SMILES": "C(CC(O)=O)(CC(O)=O)(C(O)=O)O.C(OCCN(C)C)(C1=C(C)C=CC=C1)C2=CC=CC=C2", "physical_data": {"Molecular Weight": "", "Molecular Formula": "C18H23NO.C6H8O7", "Melting Point": "137 \u00b0C"}}