{"cas_no": "459789-99-2", "cn_name": "\u5965\u8d1d\u80c6\u9178", "en_name": ["Obeticholic acid", "Cholan-24-oic acid, 6-ethyl-3,7-dihydroxy-, (3\u03b1,5\u03b2,6\u03b1,7\u03b1)-", "(3\u03b1,5\u03b2,6\u03b1,7\u03b1)-6-Ethyl-3,7-dihydroxycholan-24-oic acid", "6-Ethylchenodeoxycholic acid", "3\u03b1,7\u03b2-Dihydroxy-6\u03b1-ethyl-5\u03b2-cholan-24-oic acid", "Obeticholic acid", "INT 747", "6\u03b1-Ethylchenodeoxycholic acid", "6-ECDCA", "Ocaliva"], "SMILES": "CC12C3C(C4C(C)(CC3)C(C(CCC(O)=O)C)CC4)C(O)C(CC)C1CC(O)CC2", "physical_data": {"Molecular Weight": "420.63", "Molecular Formula": "C26H44O4", "Melting Point": "108-110 \u00b0C"}}