{"cas_no": "4597-87-9", "cn_name": "2-\u7532\u57fa\u6c28\u57fa\u5421\u5576", "en_name": ["2-(Methylamino)pyridine", "2-Pyridinamine, N-methyl-", "Pyridine, 2-(methylamino)-", "N-Methyl-2-pyridinamine", "2-(Methylamino)pyridine", "N-2-Pyridylmethylamine", "N-Methyl-2-aminopyridine", "N-Methyl-N-(2-pyridyl)amine", "NSC 122871", "Methyl(pyridin-2-yl)amine", "N-Methyl-N-(pyridin-2-yl)amine"], "SMILES": "N(C)C1=CC=CC=N1", "physical_data": {"Molecular Weight": "108.14", "Molecular Formula": "C6H8N2", "Boiling Point": "200.5 \u00b0C", "Melting Point": "15 \u00b0C"}}