{"cas_no": "459856-18-9", "cn_name": "8-(6-\u7532\u6c27\u57fa-2-\u7532\u57fa-3-\u5421\u5576\u57fa)-2,7-\u4e8c\u7532\u57fa-N-[(1R)-1-\u7532\u57fa\u4e19\u57fa]\u5421\u5511\u5e76[1,5-A]-1,3,5-\u4e09\u55ea-4-\u80fa", "en_name": ["Pexacerfont", "Pyrazolo[1,5-a]-1,3,5-triazin-4-amine, 8-(6-methoxy-2-methyl-3-pyridinyl)-2,7-dimethyl-N-[(1R)-1-methylpropyl]-", "8-(6-Methoxy-2-methyl-3-pyridinyl)-2,7-dimethyl-N-[(1R)-1-methylpropyl]pyrazolo[1,5-a]-1,3,5-triazin-4-amine", "Pexacerfont", "BMS 562086"], "SMILES": "CC=1C(=C2N(C(NC(CC)C)=NC(C)=N2)N1)C3=C(C)N=C(OC)C=C3", "physical_data": {"Molecular Weight": "340.42", "Molecular Formula": "C18H24N6O", "Melting Point": "118.3 \u00b0C"}}