{"cas_no": "460-12-8", "cn_name": "\u4e8c\u4e59\u7094", "en_name": ["1,3-Butadiyne", "1,3-Butadiyne", "Butadiyne", "Biacetylene", "Biethynyl", "Diacetylene"], "SMILES": "C(C#C)#C", "physical_data": {"Molecular Weight": "50.06", "Molecular Formula": "C4H2", "Boiling Point": "10.3 \u00b0C", "Melting Point": "-36.4 \u00b0C", "Density": "0.7364 g/cm\u00b3 @ Temp: 0 \u00b0C"}}