{"cas_no": "460-73-1", "cn_name": "1,1,1,3,3-\u4e94\u6c1f\u4e19\u70f7", "en_name": ["1,1,1,3,3-Pentafluoropropane", "Propane, 1,1,1,3,3-pentafluoro-", "1,1,1,3,3-Pentafluoropropane", "HFC 245fa", "Enovate 3000", "Genetron 245fa", "Enovate 245", "Enovate 245fa", "1,1,3,3,3-Pentafluoropropane", "245fa", "R 245fa", "HCF 245Fa", "Enovate 245F"], "SMILES": "C(C(F)(F)F)C(F)F", "physical_data": {"Molecular Weight": "134.05", "Molecular Formula": "C3H3F5", "Boiling Point": "15.3 \u00b0C"}}