{"cas_no": "460-37-7", "cn_name": "1-\u7898-3,3,3-\u4e09\u6c1f\u4e19\u70f7", "en_name": ["1,1,1-Trifluoro-3-iodopropane", "Propane, 1,1,1-trifluoro-3-iodo-", "1,1,1-Trifluoro-3-iodopropane", "3,3,3-Trifluoropropyl iodide", "1-Iodo-3,3,3-trifluoropropane", "3,3,3-Trifluoro-1-iodopropane", "3-Iodo-1,1,1-trifluoropropane", "1H,1H,2H,2H-Trifluoro-1-iodopropane"], "SMILES": "C(C(F)(F)F)CI", "physical_data": {"Molecular Weight": "223.96", "Molecular Formula": "C3H4F3I", "Boiling Point": "90 \u00b0C"}}