{"cas_no": "460-35-5", "cn_name": "1-\u6c2f-3,3,3-\u4e09\u6c1f\u4e19\u70f7", "en_name": ["3-Chloro-1,1,1-trifluoropropane", "Propane, 3-chloro-1,1,1-trifluoro-", "3-Chloro-1,1,1-trifluoropropane", "1-Chloro-3,3,3-trifluoropropane", "1,1,1-Trifluoro-3-chloropropane", "3,3,3-Trifluoro-1-chloropropane", "3,3,3-Trifluorochloropropane", "HCFC 253fb", "R 253fb", "3,3,3-Trifluoropropyl chloride"], "SMILES": "C(C(F)(F)F)CCl", "physical_data": {"Molecular Weight": "132.51", "Molecular Formula": "C3H4ClF3", "Boiling Point": "45.1 \u00b0C", "Melting Point": "-106.5 \u00b0C", "Density": "1.3253 g/cm\u00b3 @ Temp: 20 \u00b0C"}}