{"cas_no": "460-00-4", "cn_name": "\u5bf9\u6eb4\u6c1f\u82ef", "en_name": ["1-Bromo-4-fluorobenzene", "Benzene, 1-bromo-4-fluoro-", "1-Bromo-4-fluorobenzene", "p-Fluorobromobenzene", "1-Fluoro-4-bromobenzene", "p-Bromofluorobenzene", "p-Fluorophenyl bromide", "4-Bromofluorobenzene", "4-Fluorophenyl bromide", "4-Fluoro-1-bromobenzene", "4-Fluorobromobenzene", "4-Fluorobenzene bromide", "4-Bromo-1-fluorobenzene", "4-Bromophenyl fluoride", "NSC 10268", "NSC 9460", "p-Bromophenyl fluoride"], "SMILES": "BrC1=CC=C(F)C=C1", "physical_data": {"Molecular Weight": "175.00", "Molecular Formula": "C6H4BrF", "Boiling Point": "151.5 \u00b0C", "Melting Point": "-17.4 \u00b0C", "Density": "1.7282 g/cm\u00b3 @ Temp: 21 \u00b0C"}}