{"cas_no": "460-19-5", "cn_name": "\u6c30", "en_name": ["Ethanedinitrile", "Ethanedinitrile", "Cyanogen (C2N2)", "Dicyanogen", "Oxalic acid dinitrile", "Carbon nitride (C2N2)", "Oxalonitrile", "Cyanogen", "Oxalyl cyanide", "Nitriloacetonitrile", "Dicyan", "EDN Fumigas"], "SMILES": "C(C#N)#N", "physical_data": {"Molecular Weight": "52.03", "Molecular Formula": "C2N2", "Boiling Point": "-21.17 \u00b0C", "Melting Point": "-27.9 \u00b0C", "Density": "0.9537 g/cm\u00b3 @ Temp: -21.17 \u00b0C"}}