{"cas_no": "460-40-2", "cn_name": "3,3,3-\u4e09\u6c1f\u4e19\u919b", "en_name": ["3,3,3-Trifluoropropanal", "Propanal, 3,3,3-trifluoro-", "Propionaldehyde, 3,3,3-trifluoro-", "3,3,3-Trifluoropropanal", "3,3,3-Trifluoropropionaldehyde"], "SMILES": "C(C(F)(F)F)C=O", "physical_data": {"Molecular Weight": "112.05", "Molecular Formula": "C3H3F3O", "Boiling Point": "56-56.5 \u00b0C @ Press: 745 Torr", "Density": "1.365 g/cm\u00b3 @ Temp: 20 \u00b0C"}}