{"cas_no": "460-39-9", "cn_name": "3,3,3-\u4e09\u6c1f\u4e19\u80fa", "en_name": ["3,3,3-Trifluoro-1-propanamine", "1-Propanamine, 3,3,3-trifluoro-", "Propylamine, 3,3,3-trifluoro-", "3,3,3-Trifluoro-1-propanamine", "3,3,3-Trifluoropropylamine", "3,3,3-Trifluoropropane-1-amine"], "SMILES": "C(C(F)(F)F)CN", "physical_data": {"Molecular Weight": "113.08", "Molecular Formula": "C3H6F3N", "Boiling Point": "67 \u00b0C"}}