{"cas_no": "460-16-2", "cn_name": "1-\u6c2f-2-\u6c1f\u4e59\u70ef", "en_name": ["Ethene, 1-chloro-2-fluoro-", "Ethene, 1-chloro-2-fluoro-", "Ethylene, 1-chloro-2-fluoro-", "1-Chloro-2-fluoroethylene", "1-Fluoro-2-chloroethene"], "SMILES": "C(=CF)Cl", "physical_data": {"Molecular Weight": "80.49", "Molecular Formula": "C2H2ClF", "Boiling Point": "10-12 \u00b0C"}}