{"cas_no": "460-08-2", "cn_name": "2-\u6c1f\u4e59\u80fa\u76d0\u9178\u76d0", "en_name": ["Ethanamine, 2-fluoro-, hydrochloride", "Ethanamine, 2-fluoro-, hydrochloride", "Ethylamine, 2-fluoro-, hydrochloride", "\u03b2-Fluoroethylamine hydrochloride", "2-Fluoroethylamine hydrochloride", "2-Fluoroethylammonium chloride", "2-Fluoro-1-ethanamine hydrochloride", "2-Fluoroethanamine hydrochloride"], "SMILES": "C(CN)F.Cl", "physical_data": {"Molecular Weight": "", "Molecular Formula": "C2H6FN.ClH", "Melting Point": "88 \u00b0C"}}