{"cas_no": "4600-86-6", "cn_name": "5-\u53d4\u4e01\u57fa-2,3-\u4e8c\u6c22-1H-\u831a-1-\u916e", "en_name": ["5-(1,1-Dimethylethyl)-2,3-dihydro-1H-inden-1-one", "1H-Inden-1-one, 5-(1,1-dimethylethyl)-2,3-dihydro-", "1-Indanone, 5-tert-butyl-", "5-(1,1-Dimethylethyl)-2,3-dihydro-1H-inden-1-one", "5-tert-Butylindan-1-one"], "SMILES": "O=C1C=2C(=CC(C(C)(C)C)=CC2)CC1", "physical_data": {"Molecular Weight": "188.27", "Molecular Formula": "C13H16O", "Melting Point": "87 \u00b0C"}}