{"cas_no": "4602-84-0", "cn_name": "\u6cd5\u5c3c\u9187", "en_name": ["Farnesol", "2,6,10-Dodecatrien-1-ol, 3,7,11-trimethyl-", "Farnesol", "3,7,11-Trimethyl-2,6,10-dodecatrien-1-ol", "Farnesyl alcohol", "FCI 119a", "NSC 60597", "Nikkosome", "3,7,11-Trimethyl-2,6,10-dodecen-1-ol", "CSU 1806", "MeSH ID: D005204"], "SMILES": "C(=CCCC(=CCO)C)(CCC=C(C)C)C", "physical_data": {"Molecular Weight": "222.37", "Molecular Formula": "C15H26O", "Boiling Point": "145-147 \u00b0C @ Press: 5 Torr", "Melting Point": "&lt;25 \u00b0C", "Density": "0.8871 g/cm\u00b3 @ Temp: 20 \u00b0C"}}