{"cas_no": "46032-98-8", "cn_name": "(1R,2R)-(-)-2-\u6c28\u57fa-1-\u82ef\u57fa-1,3-\u4e19\u4e8c\u9187", "en_name": ["(1R,2R)-2-Amino-1-phenyl-1,3-propanediol", "1,3-Propanediol, 2-amino-1-phenyl-, (1R,2R)-", "1,3-Propanediol, 2-amino-1-phenyl-, [R-(R*,R*)]-", "(1R,2R)-2-Amino-1-phenyl-1,3-propanediol", "D-threo-1-Phenyl-2-amino-1,3-propanediol", "D-threo-3-Phenyl-2-amino-1,3-propanediol", "(1R,2R)-(-)-2-Amino-1-phenyl-1,3-propanediol", "(1R,2R)-2-Amino-1-phenylpropane-1,3-diol", "(1R,2R)-2-Amino-1-phenyl-1,3-propanediol", "(1R,2R)-(-)-2-Amino-1-phenyl-propane-1,3-diol", "(1R,2R)-2-Amino-1-phenylpropan-1,3-diol"], "SMILES": "C(C(CO)N)(O)C1=CC=CC=C1", "physical_data": {"Molecular Weight": "167.21", "Molecular Formula": "C9H13NO2", "Melting Point": "112-113 \u00b0C"}}