{"cas_no": "4604-72-2", "cn_name": "\u5421\u55ea-2-\u786b\u4ee3\u9170\u80fa", "en_name": ["2-Pyrazinecarbothioamide", "2-Pyrazinecarbothioamide", "Pyrazinecarboxamide, thio-", "Pyrazinecarbothioamide", "Pyrazinecarboxylic acid thioamide", "2-Pyrazinethiocarboxamide", "Pyrazinethiocarboxamide", "NSC 18377", "Pyrazine-2-carbothioamide"], "SMILES": "C(N)(=S)C=1C=NC=CN1", "physical_data": {"Molecular Weight": "139.18", "Molecular Formula": "C5H5N3S", "Melting Point": "195-196 \u00b0C"}}