{"cas_no": "4604-41-5", "cn_name": "3,3'-\u4e8c\u7898\u7532\u817a\u539f\u6c28\u9178", "en_name": ["3,3\u2032-Diiodo-L-thyronine", "L-Tyrosine, O-(4-hydroxy-3-iodophenyl)-3-iodo-", "Alanine, 3-[4-(4-hydroxy-3-iodophenoxy)-3-iodophenyl]-, L-", "O-(4-Hydroxy-3-iodophenyl)-3-iodo-L-tyrosine", "3,3\u2032-Diiodo-L-thyronine", "L-3,3\u2032-Diiodothyronine"], "SMILES": "O(C1=C(I)C=C(CC(C(O)=O)N)C=C1)C2=CC(I)=C(O)C=C2", "physical_data": {"Molecular Weight": "525.08", "Molecular Formula": "C15H13I2NO4", "Melting Point": "198 \u00b0C (decomp)"}}