{"cas_no": "4606-07-9", "cn_name": "\u73af\u4e19\u57fa\u7532\u9178\u4e59\u916f", "en_name": ["Ethyl cyclopropanecarboxylate", "Cyclopropanecarboxylic acid, ethyl ester", "Ethyl cyclopropanecarboxylate", "Ethyl cyclopropylcarboxylate", "NSC 60696"], "SMILES": "C(OCC)(=O)C1CC1", "physical_data": {"Molecular Weight": "114.14", "Molecular Formula": "C6H10O2", "Boiling Point": "134 \u00b0C", "Density": "0.970 g/cm\u00b3"}}