{"cas_no": "4606-15-9", "cn_name": "\u82ef\u4e59\u9178\u4e19\u916f", "en_name": ["Propyl phenylacetate", "Benzeneacetic acid, propyl ester", "Acetic acid, phenyl-, propyl ester", "Propyl phenylacetate", "NSC 6579", "2-Phenylacetic acid n-propyl ester"], "SMILES": "C(C(OCCC)=O)C1=CC=CC=C1", "physical_data": {"Molecular Weight": "178.23", "Molecular Formula": "C11H14O2", "Boiling Point": "228-289 \u00b0C", "Density": "0.9431 g/cm\u00b3 @ Temp: 15 \u00b0C"}}