{"cas_no": "4606-65-9", "cn_name": "3-\u7f9f\u7532\u57fa\u54cc\u5576", "en_name": ["3-Piperidinemethanol", "3-Piperidinemethanol", "3-Pipecolin-\u03b1-ol", "3-(Hydroxymethyl)piperidine", "(3-Piperidinyl)methanol", "(Piperidin-3-yl)methanol", "(3-Piperidyl)methanol"], "SMILES": "C(O)C1CCCNC1", "physical_data": {"Molecular Weight": "115.17", "Molecular Formula": "C6H13NO", "Boiling Point": "106-107 \u00b0C @ Press: 3.5 Torr", "Melting Point": "61 \u00b0C", "Density": "1.0263 g/cm\u00b3 @ Temp: 20 \u00b0C"}}