{"cas_no": "460746-47-8", "cn_name": "4'-\u7f9f\u57fa-3'-\u7898\u8054\u82ef-4-\u7532\u8148", "en_name": ["4\u2032-Hydroxy-3\u2032-iodo[1,1\u2032-biphenyl]-4-carbonitrile", "[1,1\u2032-Biphenyl]-4-carbonitrile, 4\u2032-hydroxy-3\u2032-iodo-", "4\u2032-Hydroxy-3\u2032-iodo[1,1\u2032-biphenyl]-4-carbonitrile", "4\u2032-Hydroxy-3\u2032-iodobiphenyl-4-carbonitrile"], "SMILES": "IC=1C=C(C2=CC=C(C#N)C=C2)C=CC1O", "physical_data": {"Molecular Weight": "321.11", "Molecular Formula": "C13H8INO", "Melting Point": "166-167 \u00b0C"}}