{"cas_no": "461-89-2", "cn_name": "6-\u6c2e\u6742\u8132\u5627\u5576", "en_name": ["1,2,4-Triazine-3,5(2H,4H)-dione", "1,2,4-Triazine-3,5(2H,4H)-dione", "as-Triazine-3,5(2H,4H)-dione", "as-Triazine-3,5-diol", "6-Azauracil", "NSC 3425", "2,3,4,5-Tetrahydro-1,2,4-triazine-3,5-dione", "IPO 3834", "1,2,4-Triazine-3,5-diol", "2H-[1,2,4]Triazine-3,5-dione", "3-Hydroxy-4,5-dihydro-1,2,4-triazin-5-one", "3-Hydroxy-4H-[1,2,4]triazin-5-one"], "SMILES": "O=C1NC(=O)NN=C1", "physical_data": {"Molecular Weight": "113.07", "Molecular Formula": "C3H3N3O2", "Melting Point": "274.5 \u00b0C"}}