{"cas_no": "461-53-0", "cn_name": "4-\u6c1f\u4e01\u919b", "en_name": ["Butanoyl fluoride", "Butanoyl fluoride", "Butyryl fluoride"], "SMILES": "C(C(F)=O)CC", "physical_data": {"Molecular Weight": "90.10", "Molecular Formula": "C4H7FO", "Boiling Point": "67 \u00b0C @ Press: 767 Torr", "Density": "0.944 g/cm\u00b3 @ Temp: 11 \u00b0C"}}