{"cas_no": "461-88-1", "cn_name": "2,4-\u4e8c\u6c28\u57fa\u5421\u5576", "en_name": ["2,4-Diaminopyridine", "2,4-Pyridinediamine", "Pyridine, 2,4-diamino-", "2,4-Diaminopyridine"], "SMILES": "NC=1C=C(N)N=CC1", "physical_data": {"Molecular Weight": "109.13", "Molecular Formula": "C5H7N3", "Melting Point": "107 \u00b0C"}}