{"cas_no": "461-72-3", "cn_name": "\u6d77\u56e0", "en_name": ["Hydantoin", "2,4-Imidazolidinedione", "Hydantoin", "2-Imidazolin-4(or 5)-one, 2-hydroxy-", "Glycolylurea", "Imidazole-2,4(3H,5H)-dione", "NSC 9226"], "SMILES": "O=C1NC(=O)NC1", "physical_data": {"Molecular Weight": "100.08", "Molecular Formula": "C3H4N2O2", "Melting Point": "220 \u00b0C"}}