{"cas_no": "461-92-7", "cn_name": "1,1,1-\u4e09\u6c1f-6-\u7532\u57fa\u5e9a\u70f7-2,4-\u4e8c\u916e", "en_name": ["1,1,1-Trifluoro-6-methyl-2,4-heptanedione", "2,4-Heptanedione, 1,1,1-trifluoro-6-methyl-", "1,1,1-Trifluoro-6-methyl-2,4-heptanedione", "Trifluoroacetylisovalerylmethane", "Isovaleryltrifluoroacetone", "Trifluoroacetylisovaleroylmethane", "NSC 42614", "1,1,1-Trifluoro-6-methylheptan-2,4-dione"], "SMILES": "C(C(C(F)(F)F)=O)C(CC(C)C)=O", "physical_data": {"Molecular Weight": "196.17", "Molecular Formula": "C8H11F3O2", "Boiling Point": "78 \u00b0C @ Press: 64 Torr", "Density": "1.13 g/cm\u00b3"}}