{"cas_no": "461-56-3", "cn_name": "3-\u6c1f\u4e19\u9178", "en_name": ["3-Fluoropropanoic acid", "Propanoic acid, 3-fluoro-", "Propionic acid, 3-fluoro-", "3-Fluoropropanoic acid", "\u03b2-Fluoropropionic acid", "3-Fluoropropionic acid"], "SMILES": "C(C(O)=O)CF", "physical_data": {"Molecular Weight": "92.07", "Molecular Formula": "C3H5FO2", "Boiling Point": "78.5-79.5 \u00b0C @ Press: 12 Torr", "Density": "1.247 g/cm\u00b3 @ Temp: 20 \u00b0C"}}