{"cas_no": "461-05-2", "cn_name": "\u6df7\u65cb\u8089\u78b1\u76d0\u9178\u76d0", "en_name": ["Carnitine chloride", "1-Propanaminium, 3-carboxy-2-hydroxy-N,N,N-trimethyl-, chloride (1:1)", "1-Propanaminium, 3-carboxy-2-hydroxy-N,N,N-trimethyl-, chloride, (\u00b1)-", "Ammonium, (3-carboxy-2-hydroxypropyl)trimethyl-, chloride, (\u00b1)-", "1-Propanaminium, 3-carboxy-2-hydroxy-N,N,N-trimethyl-, chloride", "Bicarnesine", "DL-Carnitine hydrochloride", "(\u00b1)-Carnitine chloride", "(\u00b1)-Carnitine hydrochloride", "DL-Carnitine chloride", "d,l-Carnitine hydrochloride", "Carnitine, hydrochloride", "Carnitine chloride", "Monocamin", "(3-Carboxy-2-hydroxypropyl)trimethylammonium chloride", "Aplegin", "(3-Carboxy-2-hydroxypropyl)trimethylazanium chloride"], "SMILES": "C([N+](C)(C)C)C(CC(O)=O)O.[Cl-]", "physical_data": {"Molecular Weight": "", "Molecular Formula": "C7H16NO3.Cl", "Melting Point": "137-139 \u00b0C"}}