{"cas_no": "461-87-0", "cn_name": "2-\u6c1f-4-\u7532\u57fa\u5421\u5576", "en_name": ["2-Fluoro-4-methylpyridine", "Pyridine, 2-fluoro-4-methyl-", "4-Picoline, 2-fluoro-", "2-Fluoro-4-methylpyridine", "2-Fluoro-4-picoline"], "SMILES": "CC=1C=C(F)N=CC1", "physical_data": {"Molecular Weight": "111.12", "Molecular Formula": "C6H6FN", "Boiling Point": "157 \u00b0C", "Density": "1.0805 g/cm\u00b3"}}