{"cas_no": "461-81-4", "cn_name": "\u5bf9\u6c2f\u4e09\u6c1f\u7532\u6c27\u57fa\u82ef", "en_name": ["1-Chloro-4-(trifluoromethoxy)benzene", "Benzene, 1-chloro-4-(trifluoromethoxy)-", "Anisole, p-chloro-\u03b1,\u03b1,\u03b1-trifluoro-", "1-Chloro-4-(trifluoromethoxy)benzene", "4-Chlorophenyl trifluoromethyl ether", "p-Chloro(trifluoromethoxy)benzene", "4-Chloro-\u03b1,\u03b1,\u03b1-trifluoroanisole", "4-Chloro(trifluoromethoxy)benzene", "4-(Trifluoromethoxy)chlorobenzene"], "SMILES": "O(C(F)(F)F)C1=CC=C(Cl)C=C1", "physical_data": {"Molecular Weight": "196.55", "Molecular Formula": "C7H4ClF3O", "Boiling Point": "141-142 \u00b0C", "Density": "1.3679 g/cm\u00b3 @ Temp: 20 \u00b0C"}}