{"cas_no": "461-28-9", "cn_name": "3-\u6c1f\u4e19\u57fa\u78fa\u9170\u6c2f", "en_name": ["3-Fluoro-1-propanesulfonyl chloride", "1-Propanesulfonyl chloride, 3-fluoro-", "3-Fluoro-1-propanesulfonyl chloride", "3-Fluoropropane-1-sulfonyl chloride", "3-Fluoropropanesulfonyl chloride", "3-Fluoropropan-1-sulfonyl chloride"], "SMILES": "C(S(Cl)(=O)=O)CCF", "physical_data": {"Molecular Weight": "160.59", "Molecular Formula": "C3H6ClFO2S", "Boiling Point": "95.5-96 \u00b0C @ Press: 12 Torr"}}