{"cas_no": "461-98-3", "cn_name": "4-\u6c28\u57fa-2,6-\u4e8c\u7532\u57fa\u5627\u5576", "en_name": ["2,6-Dimethyl-4-pyrimidinamine", "4-Pyrimidinamine, 2,6-dimethyl-", "Pyrimidine, 4-amino-2,6-dimethyl-", "2,6-Dimethyl-4-pyrimidinamine", "4-Amino-2,6-dimethylpyrimidine", "6-Amino-2,4-dimethylpyrimidine", "Cyanmethine", "Cyanomethine", "Kyanmethin", "Kyanmethine", "2,4-Dimethyl-6-aminopyrimidine", "2,6-Dimethyl-4-pyrimidinylamine", "2,6-Dimethyl-4-aminopyrimidine", "2,6-Dimethylpyrimidin-4-amine", "NSC 21637", "2,6-Dimethylpyrimidine-4-amine"], "SMILES": "CC=1C=C(N)N=C(C)N1", "physical_data": {"Molecular Weight": "123.16", "Molecular Formula": "C6H9N3", "Melting Point": "183 \u00b0C"}}