{"cas_no": "461-96-1", "cn_name": "1-\u6eb4-3,5-\u4e8c\u6c1f\u82ef", "en_name": ["1-Bromo-3,5-difluorobenzene", "Benzene, 1-bromo-3,5-difluoro-", "1-Bromo-3,5-difluorobenzene", "3,5-Difluorobromobenzene", "3,5-Difluoro-1-bromobenzene", "5-Bromo-1,3-difluorobenzene", "3,5-Difluorophenyl bromide", "1,3-Difluoro-5-bromobenzene"], "SMILES": "BrC1=CC(F)=CC(F)=C1", "physical_data": {"Molecular Weight": "192.99", "Molecular Formula": "C6H3BrF2", "Boiling Point": "140 \u00b0C", "Density": "1.676 g/cm\u00b3 @ Temp: 23 \u00b0C"}}