{"cas_no": "461-17-6", "cn_name": "4,4,4-\u4e09\u6c1f-1-\u7898\u4e01\u70f7", "en_name": ["1,1,1-Trifluoro-4-iodobutane", "Butane, 1,1,1-trifluoro-4-iodo-", "1,1,1-Trifluoro-4-iodobutane", "4,4,4-Trifluorobutyl iodide", "1-Iodo-4,4,4-Trifluorobutane", "4,4,4-Trifluoro-1-iodobutane", "4-Iodo-1,1,1-trifluorobutane"], "SMILES": "C(C(F)(F)F)CCI", "physical_data": {"Molecular Weight": "237.99", "Molecular Formula": "C4H6F3I", "Boiling Point": "126-127 \u00b0C", "Density": "1.851 g/cm\u00b3 @ Temp: 20 \u00b0C"}}