{"cas_no": "461-91-6", "cn_name": "1-\u6eb4-3.5-\u4e8c\u6c1f\u82ef", "en_name": ["Arsinous acid, bis(trifluoromethyl)-, anhydride", "Arsinous acid, bis(trifluoromethyl)-, anhydride", "Arsine, oxybis[bis(trifluoromethyl)-"], "SMILES": "O([As](C(F)(F)F)C(F)(F)F)[As](C(F)(F)F)C(F)(F)F", "physical_data": {"Molecular Weight": "441.87", "Molecular Formula": "C4As2F12O", "Boiling Point": "100 \u00b0C"}}