{"cas_no": "461-82-5", "cn_name": "\u5bf9\u4e09\u6c1f\u7532\u6c27\u57fa\u82ef\u80fa", "en_name": ["4-(Trifluoromethoxy)aniline", "Benzenamine, 4-(trifluoromethoxy)-", "p-Anisidine, \u03b1,\u03b1,\u03b1-trifluoro-", "4-(Trifluoromethoxy)benzenamine", "p-(Trifluoromethoxy)aniline", "4-(Trifluoromethoxy)aniline", "\u03b1,\u03b1,\u03b1-Trifluoro-p-anisidine", "p-Trifluoromethoxyphenylamine", "(4-(Trifluoromethoxy)phenyl)amine", "4-Trifluoromethoxybenzeneamine", "1-Amino-4-(trifluoromethoxy)benzene", "4-[(Trifluoromethyl)oxy]aniline"], "SMILES": "O(C(F)(F)F)C1=CC=C(N)C=C1", "physical_data": {"Molecular Weight": "177.12", "Molecular Formula": "C7H6F3NO", "Boiling Point": "73-75 \u00b0C @ Press: 10 Torr"}}