{"cas_no": "461-18-7", "cn_name": "4,4,4-\u4e09\u6c1f\u4e01\u9187", "en_name": ["4,4,4-Trifluoro-1-butanol", "1-Butanol, 4,4,4-trifluoro-", "4,4,4-Trifluoro-1-butanol", "4,4,4-Trifluorobutanol"], "SMILES": "C(C(F)(F)F)CCO", "physical_data": {"Molecular Weight": "128.09", "Molecular Formula": "C4H7F3O", "Boiling Point": "125 \u00b0C", "Density": "1.217 g/cm\u00b3 @ Temp: 25 \u00b0C"}}