{"cas_no": "4611-05-6", "cn_name": "\u86c7\u5b62\u83cc\u7d20A", "en_name": ["Ophiobolin A", "Spiro[dicyclopenta[a,d]cyclooctene-3(2H),2\u2032(3\u2032H)-furan]-6-carboxaldehyde, 1,3a,4,4\u2032,5\u2032,6a,7,8,9,9a,10,10a-dodecahydro-9-hydroxy-3\u2032,9,10a-trimethyl-5\u2032-(2-methyl-1-propen-1-yl)-7-oxo-, (2\u2032S,3\u2032S,3aR,5\u2032R,6aS,9R,9aS,10aR)-", "Ophiobola-7,19-dien-25-al, 14,18-epoxy-3-hydroxy-5-oxo-, (18R)-", "Ophiobolin", "Cochliobolin A", "Spiro[dicyclopenta[a,d]cyclooctene-3(2H),2\u2032(3\u2032H)-furan]-6-carboxaldehyde, 1,3a,4,4\u2032,5\u2032,6a,7,8,9,9a,10,10a-dodecahydro-9-hydroxy-3\u2032,9,10a-trimethyl-5\u2032-(2-methyl-1-propenyl)-7-oxo-, (2\u2032S,3\u2032S,3aR,5\u2032R,6aS,9R,9aS,10aR)-", "(2\u2032S,3\u2032S,3aR,5\u2032R,6aS,9R,9aS,10aR)-1,3a,4,4\u2032,5\u2032,6a,7,8,9,9a,10,10a-Dodecahydro-9-hydroxy-3\u2032,9,10a-trimethyl-5\u2032-(2-methyl-1-propen-1-yl)-7-oxospiro[dicyclopenta[a,d]cyclooctene-3(2H),2\u2032(3\u2032H)-furan]-6-carboxaldehyde", "Ophiobolin A", "Cochliobolin", "Spiro[dicyclopenta[a,d]cyclooctene-3(2H),2\u2032(3\u2032H)-furan]-6-carboxaldehyde, 1,3a,4,4\u2032,5\u2032,6a,7,8,9,9a,10,10a-dodecahydro-9-hydroxy-3\u2032,9,10a-trimethyl-5\u2032-(2-methyl-1-propenyl)-7-oxo-, [3S-[3\u03b1(3\u2032R*,5\u2032S*),3a\u03b1,6a\u03b2,9\u03b1,9a\u03b2,10a\u03b2]]-", "NSC 114340", "(+)-Ophiobolin A"], "SMILES": "CC1C2(C3C(C)(CC2)CC4C(C(C=O)=CC3)C(=O)CC4(C)O)OC(C=C(C)C)C1", "physical_data": {"Molecular Weight": "400.55", "Molecular Formula": "C25H36O4", "Melting Point": "181-182 \u00b0C"}}