{"cas_no": "46112-46-3", "cn_name": "4-(2-\u7f9f\u4e59\u57fa)\u82ef\u7532\u9178", "en_name": ["4-(2-Hydroxyethyl)benzoic acid", "Benzoic acid, 4-(2-hydroxyethyl)-", "Benzoic acid, p-2-hydroxyethyl-", "4-(2-Hydroxyethyl)benzoic acid"], "SMILES": "C(O)(=O)C1=CC=C(CCO)C=C1", "physical_data": {"Molecular Weight": "166.17", "Molecular Formula": "C9H10O3", "Melting Point": "127-128 \u00b0C"}}