{"cas_no": "46118-95-0", "cn_name": "2-(\u7fb0\u7532\u57fa\u786b\u4ee3)-4-\u7532\u57fa\u5627\u5576", "en_name": ["2-[(4-Methyl-2-pyrimidinyl)thio]acetic acid", "Acetic acid, 2-[(4-methyl-2-pyrimidinyl)thio]-", "Acetic acid, [(4-methyl-2-pyrimidinyl)thio]-", "2-[(4-Methyl-2-pyrimidinyl)thio]acetic acid", "2-(Carboxymethylthio)-4-methylpyrimidine", "[(4-Methyl-2-pyrimidinyl)sulfanyl]acetic acid", "NSC 164942", "2-[(4-Methylpyrimidin-2-yl)thio]acetic acid", "[(4-Methyl-2-pyrimidinyl)thio]acetic acid", "2-(4-Methylpyrimidin-2-yl)sulfanylacetic acid", "2-[(4-Methylpyrimidin-2-yl)sulfanyl]acetic acid"], "SMILES": "S(CC(O)=O)C=1N=C(C)C=CN1", "physical_data": {"Molecular Weight": "184.22", "Molecular Formula": "C7H8N2O2S", "Melting Point": "191 \u00b0C"}}