{"cas_no": "4611-62-5", "cn_name": "N-\u4e59\u57fa\u82ef\u5f02\u6076\u5511\u916e\u56db\u6c1f\u787c\u9178\u76d0", "en_name": ["1,2-Benzisoxazolium, 2-ethyl-, tetrafluoroborate(1-) (1:1)", "1,2-Benzisoxazolium, 2-ethyl-, tetrafluoroborate(1-) (1:1)", "1,2-Benzisoxazolium, 2-ethyl-, tetrafluoroborate(1-)", "2-Ethyl-1,2-benzisoxazolium tetrafluoroborate", "Borate(1-), tetrafluoro-, 2-ethyl-1,2-benzisoxazolium", "NSC 308785", "2-Ethyl-1,2-benzoxazol-2-ium", "tetrafluoroboranuide"], "SMILES": "[B+3]([F-])([F-])([F-])[F-].C(C)[N+]1=CC=2C(O1)=CC=CC2", "physical_data": {"Molecular Weight": "", "Molecular Formula": "C9H10NO.BF4", "Melting Point": "109.5-110.2 \u00b0C"}}