{"cas_no": "4616-63-1", "cn_name": "N-\u7094\u4e19\u57fa\u6c27\u57fa\u915e\u4e9a\u80fa", "en_name": ["2-(2-Propyn-1-yloxy)-1H-isoindole-1,3(2H)-dione", "1H-Isoindole-1,3(2H)-dione, 2-(2-propyn-1-yloxy)-", "Phthalimide, N-(2-propynyloxy)-", "1H-Isoindole-1,3(2H)-dione, 2-(2-propynyloxy)-", "2-(2-Propyn-1-yloxy)-1H-isoindole-1,3(2H)-dione", "N-(Propargyloxy)phthalimide", "NSC 80674", "2-(Prop-2-ynyloxy)-isoindole-1,3-dione", "2-(Prop-2-yn-1-yloxy)isoindoline-1,3-dione", "2-(Prop-2-yn-1-yloxy)-2,3-dihydro-1H-isoindole-1,3-dione", "2-Prop-2-ynoxyisoindole-1,3-dione"], "SMILES": "O=C1C=2C(C(=O)N1OCC#C)=CC=CC2", "physical_data": {"Molecular Weight": "201.18", "Molecular Formula": "C11H7NO3", "Melting Point": "149-150 \u00b0C"}}