{"cas_no": "461642-78-4", "cn_name": "2-[\u5341\u4e8c\u70f7\u786b\u57fa(\u786b\u4ee3\u7fb0\u57fa)\u786b\u57fa]-2-\u7532\u57fa\u4e19\u9178", "en_name": ["S-1-Dodecyl-S\u2032-(\u03b1,\u03b1\u2032-dimethyl-\u03b1\u2032\u2032-acetic acid) trithiocarbonate", "Propanoic acid, 2-[[(dodecylthio)thioxomethyl]thio]-2-methyl-", "2-[[(Dodecylthio)thioxomethyl]thio]-2-methylpropanoic acid", "2-[(Dodecylsulfanyl)carbonothioyl]sulfanyl]-2-methylpropanoic acid", "2-(Dodecylsulfanylthiocarbonylsulfanyl)-2-methylpropionic acid", "S-1-Dodecyl S\u2032-(\u03b1,\u03b1-dimethylacetic acid) trithiocarbonate", "2-[Dodecylthio(thiocarbonyl)thio]-2-methylpropionic acid", "2-(Dodecylthiocarbonothioylthio)-2-methylpropionic acid", "2-Methyl-2-[(dodecylsulfanylthiocarbonyl)sulfanyl]propanoic acid", "2-(Dodecylthiocarbonothioylthio)-2-methylpropanoic acid", "S-1-Dodecyl-S\u2032-(\u03b1,\u03b1\u2032-dimethyl-\u03b1\u2032\u2032-acetic acid) trithiocarbonate", "DDATC", "S-1-Dodecyl-S\u2032-(\u03b1,\u03b1-dimethyl-\u03b1\u2032\u2032-acetic acid) trithiocarbonate", "S-Dodecyl-S\u2032-(\u03b1,\u03b1\u2032-dimethyl-\u03b1\u2032\u2032-acetic acid) trithiocarbonate", "S-1-Dodecyl-S\u2032\u2032-(\u03b1,\u03b1\u2032-dimethyl-\u03b1\u2032\u2032-acetic acid)trithiocarbonate", "2-[[(Dodecylsulfanyl)carbonothioyl]sulfanyl]-2-methylpropionic acid", "DDMAT"], "SMILES": "C(SCCCCCCCCCCCC)(SC(C(O)=O)(C)C)=S", "physical_data": {"Molecular Weight": "364.63", "Molecular Formula": "C17H32O2S3", "Melting Point": "60-61 \u00b0C"}}