{"cas_no": "4617-33-8", "cn_name": "15-\u7f9f\u57fa\u5341\u9178", "en_name": ["15-Hydroxypentadecanoic acid", "Pentadecanoic acid, 15-hydroxy-", "15-Hydroxypentadecanoic acid", "14-Hydroxy-1-tetradecanecarboxylic acid", "\u03c9-Hydroxypentadecanoic acid"], "SMILES": "C(CCCCCCCCCO)CCCCC(O)=O", "physical_data": {"Molecular Weight": "258.40", "Molecular Formula": "C15H30O3", "Boiling Point": "174-220 \u00b0C @ Press: 4 Torr", "Melting Point": "81-82 \u00b0C"}}