{"cas_no": "46181-30-0", "cn_name": "2-\u7532\u57fa-6-\u82ef\u57fa\u5421\u5576", "en_name": ["2-Methyl-6-phenylpyridine", "Pyridine, 2-methyl-6-phenyl-", "2-Picoline, 6-phenyl-", "2-Methyl-6-phenylpyridine", "2-Phenyl-6-methylpyridine"], "SMILES": "CC1=NC(=CC=C1)C2=CC=CC=C2", "physical_data": {"Molecular Weight": "169.22", "Molecular Formula": "C12H11N", "Boiling Point": "281-282 \u00b0C", "Density": "1.0731 g/cm\u00b3 @ Temp: 0 \u00b0C"}}