{"cas_no": "4618-18-2", "cn_name": "\u4e73\u679c\u7cd6", "en_name": ["Lactulose", "D-Fructose, 4-O-\u03b2-D-galactopyranosyl-", "Lactulose", "Fructose, 4-O-\u03b2-D-galactopyranosyl-, D-", "4-O-\u03b2-D-Galactopyranosyl-D-fructose", "D-Lactulose", "Bifiteral", "Laevolac", "Isolactose", "Well-me", "MLS 50", "Farlac", "Cephulac", "Generlac", "Normase", "Lactuflor", "Duphalac", "Laevilac", "Milk Oligosaccharide MLP 95", "Lazet", "Laktusan", "MLC 97", "Laktulak", "Vetalakt", "Lael", "Lactoflex", "Lactofit", "Prelax", "Osmolak", "Kristalose", "Solactis galactofructose", "Regulact", "Milk Oligosaccharide MLS 50", "MeSH ID: D007792"], "SMILES": "O(C(C(C(CO)=O)O)C(CO)O)C1OC(CO)C(O)C(O)C1O", "physical_data": {"Molecular Weight": "342.30", "Molecular Formula": "C12H22O11", "Melting Point": "169 \u00b0C"}}