{"cas_no": "4619-66-3", "cn_name": "\u4e8c\u4e59\u9170\u4e59\u9178\u7532\u916f", "en_name": ["Methyl 2-acetyl-3-oxobutanoate", "Butanoic acid, 2-acetyl-3-oxo-, methyl ester", "Acetoacetic acid, 2-acetyl-, methyl ester", "Methyl 2-acetyl-3-oxobutanoate", "Methyl diacetoacetate", "Methyl diacetylacetate", "Methyl 2-acetylacetoacetate", "2-Acetyl-3-oxobutanoic acid methyl ester", "2-Acetyl-3-oxo-butyric acid methyl ester"], "SMILES": "C(C(OC)=O)(C(C)=O)C(C)=O", "physical_data": {"Molecular Weight": "158.15", "Molecular Formula": "C7H10O4", "Boiling Point": "87-89 \u00b0C @ Press: 11 Torr"}}