{"cas_no": "4619-74-3", "cn_name": "2,3,6-\u4e09\u6eb4\u5bf9\u7532\u915a", "en_name": ["2,4,6-Tribromo-3-methylphenol", "Phenol, 2,4,6-tribromo-3-methyl-", "m-Cresol, 2,4,6-tribromo-", "2,4,6-Tribromo-3-methylphenol", "2,4,6-Tribromo-m-cresol", "Triphysan", "Triphysol", "Micatex", "NSC 74686"], "SMILES": "CC1=C(Br)C(O)=C(Br)C=C1Br", "physical_data": {"Molecular Weight": "344.83", "Molecular Formula": "C7H5Br3O", "Melting Point": "84 \u00b0C"}}