{"cas_no": "4619-20-9", "cn_name": "3-(4-\u7532\u57fa\u82ef\u7532\u9170)\u4e19\u9178", "en_name": ["4-Methyl-\u03b3-oxobenzenebutanoic acid", "Benzenebutanoic acid, 4-methyl-\u03b3-oxo-", "Propionic acid, 3-p-toluoyl-", "4-Methyl-\u03b3-oxobenzenebutanoic acid", "\u03b2-p-Toluoylpropionic acid", "3-(p-Methylbenzoyl)propionic acid", "\u03b2-(4-Methylbenzoyl)propionic acid", "3-(4-Methylbenzoyl)propanoic acid", "4-Oxo-4-(4-methylphenyl)butanoic acid", "3-(4-Methylbenzoyl)propionic acid", "3-p-Toluoylpropionic acid", "4-(4-Methylphenyl)-4-oxobutyric acid", "\u03b2-(4-Methylphenyl)propionic acid", "NSC 54788", "4-(4-Methylphenyl)-4-oxobutanoic acid", "4-Oxo-4-(p-tolyl)butanoic acid"], "SMILES": "C(CCC(O)=O)(=O)C1=CC=C(C)C=C1", "physical_data": {"Molecular Weight": "192.21", "Molecular Formula": "C11H12O3", "Melting Point": "94 \u00b0C"}}