{"cas_no": "462-08-8", "cn_name": "3-\u6c28\u57fa\u5421\u5576", "en_name": ["3-Aminopyridine", "3-Pyridinamine", "Pyridine, 3-amino-", "3-Aminopyridine", "\u03b2-Aminopyridine", "3-Pyridylamine", "m-Aminopyridine", "3-Pyridinylamine", "NSC 15040"], "SMILES": "NC=1C=CC=NC1", "physical_data": {"Molecular Weight": "94.11", "Molecular Formula": "C5H6N2", "Boiling Point": "252 \u00b0C", "Melting Point": "64.5 \u00b0C"}}