{"cas_no": "462-47-5", "cn_name": "3-\u5def\u57fa-1-\u4e19\u80fa", "en_name": ["1-Propanethiol, 3-amino-", "1-Propanethiol, 3-amino-", "3-Mercapto-1-propylamine", "Homocysteamine", "Mercaptopropylamine", "3-Amino-1-propanethiol", "3-Mercaptopropylamine", "3-Aminopropanethiol", "1-Amino-3-propanethiol", "NSC 123021", "3-Mercaptopropaneamine"], "SMILES": "C(CN)CS", "physical_data": {"Molecular Weight": "91.18", "Molecular Formula": "C3H9NS", "Melting Point": "112-113 \u00b0C"}}