{"cas_no": "462-10-2", "cn_name": "\u9ad8\u80f1\u6c28\u9178", "en_name": ["Homocystine", "Butanoic acid, 4,4\u2032-dithiobis[2-amino-", "Butyric acid, 4,4\u2032-dithiobis[2-amino-", "4,4\u2032-Dithiobis[2-aminobutanoic acid]", "4,4\u2032-Dithiobis[2-aminobutyric acid]", "Homocystine", "NSC 11337", "NSC 43122", "(RS)-Homocystine", "2-Azaniumyl-4-[(3-azaniumyl-3-carboxylatopropyl)disulfanyl]butanoate", "2-Amino-4-[(3-amino-3-carboxypropyl)disulfanyl]butanoic acid", "MeSH ID: D006711"], "SMILES": "C(C(C(O)=O)N)CSSCCC(C(O)=O)N", "physical_data": {"Molecular Weight": "268.35", "Molecular Formula": "C8H16N2O4S2", "Melting Point": "260-265 \u00b0C (decomp)"}}