{"cas_no": "462-23-7", "cn_name": "4-\u6c1f\u4e01\u9178", "en_name": ["4-Fluorobutanoic acid", "Butanoic acid, 4-fluoro-", "Butyric acid, 4-fluoro-", "4-Fluorobutanoic acid", "4-Fluorobutyric acid"], "SMILES": "C(C(O)=O)CCF", "physical_data": {"Molecular Weight": "106.10", "Molecular Formula": "C4H7FO2", "Boiling Point": "60.0-62.0 \u00b0C @ Press: 2 Torr"}}