{"cas_no": "462-43-1", "cn_name": "3-\u6c1f\u4e19\u9187", "en_name": ["1-Propanol, 3-fluoro-", "1-Propanol, 3-fluoro-", "3-Hydroxypropyl fluoride", "3-Fluoro-1-propanol", "3-Fluoropropanol"], "SMILES": "C(CF)CO", "physical_data": {"Molecular Weight": "78.09", "Molecular Formula": "C3H7FO", "Boiling Point": "127.8 \u00b0C", "Density": "1.0390 g/cm\u00b3 @ Temp: 25 \u00b0C"}}