{"cas_no": "462-06-6", "cn_name": "\u6c1f\u82ef", "en_name": ["Fluorobenzene", "Benzene, fluoro-", "Fluorobenzene", "Phenyl fluoride", "Monofluorobenzene", "NSC 68416"], "SMILES": "FC1=CC=CC=C1", "physical_data": {"Molecular Weight": "96.10", "Molecular Formula": "C6H5F", "Boiling Point": "84.7 \u00b0C", "Melting Point": "-42.2 \u00b0C", "Density": "1.04653 g/cm\u00b3 @ Temp: 40 \u00b0C"}}