{"cas_no": "462-72-6", "cn_name": "1-\u6eb4-4-\u6c1f\u4e01\u70f7", "en_name": ["1-Bromo-4-fluorobutane", "Butane, 1-bromo-4-fluoro-", "1-Bromo-4-fluorobutane", "4-Bromo-1-fluorobutane"], "SMILES": "C(CCF)CBr", "physical_data": {"Molecular Weight": "155.01", "Molecular Formula": "C4H8BrF", "Boiling Point": "135 \u00b0C", "Density": "1.4298 g/cm\u00b3 @ Temp: 35 \u00b0C"}}