{"cas_no": "462-88-4", "cn_name": "3-\u9170\u8132\u4e19\u9178", "en_name": ["N-Carbamoyl-\u03b2-alanine", "\u03b2-Alanine, N-(aminocarbonyl)-", "\u03b2-Alanine, N-carbamoyl-", "N-(Aminocarbonyl)-\u03b2-alanine", "Urea, (2-carboxyethyl)-", "Carbamoyl-\u03b2-alanine", "3-Ureidopropionic acid", "Propanoic acid, 3-[(aminocarbonyl)amino]-", "Carbamyl \u03b2-alanine", "N-Carbamoyl-\u03b2-alanine", "\u03b2-Ureidopropionic acid", "NSC 190691", "NSC 65768", "3-[(Aminocarbonyl)amino]propanoic acid"], "SMILES": "C(CC(O)=O)NC(N)=O", "physical_data": {"Molecular Weight": "132.12", "Molecular Formula": "C4H8N2O3", "Melting Point": "169-170 \u00b0C"}}