{"cas_no": "462-95-3", "cn_name": "\u4e8c\u4e59\u6c27\u57fa\u7532\u70f7", "en_name": ["Diethoxymethane", "Ethane, 1,1\u2032-[methylenebis(oxy)]bis-", "Methane, diethoxy-", "1,1\u2032-[Methylenebis(oxy)]bis[ethane]", "Diethoxymethane", "Ethylal", "Diethylformal", "Formaldehyde diethyl acetal", "Ethoxymethyl ethyl ether", "1,1-Diethoxymethane", "3,5-Dioxaheptane", "NSC 6754", "(Ethoxymethoxy)ethane"], "SMILES": "C(OCC)OCC", "physical_data": {"Molecular Weight": "104.15", "Molecular Formula": "C5H12O2", "Boiling Point": "88 \u00b0C", "Melting Point": "-66.5 \u00b0C", "Density": "0.7879 g/cm\u00b3 @ Temp: 20.0 \u00b0C"}}