{"cas_no": "462-18-0", "cn_name": "7-\u5341\u4e09\u916e", "en_name": ["Hexyl ketone", "7-Tridecanone", "Dihexyl ketone", "Enanthone", "Hexyl ketone", "Di-n-hexyl ketone", "NSC 77941"], "SMILES": "C(C(CCCCCC)=O)CCCCC", "physical_data": {"Molecular Weight": "198.34", "Molecular Formula": "C13H26O", "Boiling Point": "261 \u00b0C", "Melting Point": "33 \u00b0C"}}