{"cas_no": "462-94-2", "cn_name": "1,5-\u4e8c\u6c28\u57fa\u620a\u70f7", "en_name": ["Cadaverine", "1,5-Pentanediamine", "Cadaverine", "1,5-Diaminopentane", "Pentamethylenediamine", "1,5-Pentamethylenediamine", "1,5-Diamino-n-pentane", "\u03b1,\u03c9-Pentanediamine", "1,5-Amylene diamine", "MeSH ID: D002103"], "SMILES": "C(CCN)CCN", "physical_data": {"Molecular Weight": "102.18", "Molecular Formula": "C5H14N2", "Boiling Point": "179 \u00b0C", "Melting Point": "9 \u00b0C"}}