{"cas_no": "462-60-2", "cn_name": "\u6d77\u56e0\u9178", "en_name": ["Hydantoic acid", "Glycine, N-(aminocarbonyl)-", "Hydantoic acid", "Glycine, N-carbamoyl-", "N-(Aminocarbonyl)glycine", "Ureidoacetic acid", "Carbamoylglycine", "Glycoluric acid", "N-Carbamoylglycine", "Urea, (carboxymethyl)-", "Acetic acid, [(aminocarbonyl)amino]-", "N-Carbamylglycine", "N-(Carboxymethyl)urea", "NSC 49417", "2-Ureidoacetic acid", "2-(Carbamoylamino)acetic acid"], "SMILES": "C(NC(N)=O)C(O)=O", "physical_data": {"Molecular Weight": "118.09", "Molecular Formula": "C3H6N2O3", "Melting Point": "179-180 \u00b0C"}}