{"cas_no": "4620-70-6", "cn_name": "\u53d4\u4e01\u57fa\u4e59\u9187\u80fa", "en_name": ["2-(tert-Butylamino)ethanol", "Ethanol, 2-[(1,1-dimethylethyl)amino]-", "Ethanol, 2-(tert-butylamino)-", "2-[(1,1-Dimethylethyl)amino]ethanol", "2-(tert-Butylamino)ethanol", "\u03b2-tert-Butylaminoethanol", "N-tert-Butylethanolamine", "2-(t-Butylamino)ethanol", "NSC 78430", "tert-Butyl(2-hydroxyethyl)amine", "tert-Butylethanolamine", "2-(tert-Butylamino)ethan-1-ol", "N-tert-Butyl-2-aminoethanol"], "SMILES": "N(C(C)(C)C)CCO", "physical_data": {"Molecular Weight": "117.19", "Molecular Formula": "C6H15NO", "Boiling Point": "176.5 \u00b0C", "Melting Point": "44 \u00b0C"}}