{"cas_no": "4621-04-9", "cn_name": "4-(1-\u7532\u57fa\u4e59\u57fa)\u73af\u5df1\u9187", "en_name": ["4-Isopropylcyclohexanol", "Cyclohexanol, 4-(1-methylethyl)-", "Cyclohexanol, 4-isopropyl-", "4-(1-Methylethyl)cyclohexanol", "4-Isopropylcyclohexanol", "p-Isopropylcyclohexanol", "NSC 21123", "Folrosia", "Apo patchone"], "SMILES": "C(C)(C)C1CCC(O)CC1", "physical_data": {"Molecular Weight": "142.24", "Molecular Formula": "C9H18O", "Boiling Point": "102-106 \u00b0C @ Press: 12 Torr", "Density": "0.9209 g/cm\u00b3 @ Temp: 15 \u00b0C"}}