{"cas_no": "4621-66-3", "cn_name": "\u5def\u57fa\u5c3c\u53e4\u80fa", "en_name": ["Thionicotinamide", "3-Pyridinecarbothioamide", "Nicotinamide, thio-", "Thionicotinamide", "3-Thioamidopyridine", "Nicotinothioamide", "3-Pyridinethiocarboxamide", "Thio-3-pyridinecarboxamide", "3-Thiocarbamoylpyridine", "3-Pyridylthioformamide", "SR 4336", "Nicotinic acid thioamide", "NSC 18336", "3-(Aminothiocarbonyl)pyridine"], "SMILES": "C(N)(=S)C=1C=CC=NC1", "physical_data": {"Molecular Weight": "138.19", "Molecular Formula": "C6H6N2S", "Melting Point": "180-181 \u00b0C"}}