{"cas_no": "4627-10-5", "cn_name": "4,4,6-\u4e09\u7532\u57fa-2-\u4e59\u70ef\u57fa-1,3,2-\u4e8c\u6c27\u6742\u787c\u70f7", "en_name": ["4,4,6-Trimethyl-2-vinyl-1,3,2-dioxaborinane", "1,3,2-Dioxaborinane, 2-ethenyl-4,4,6-trimethyl-", "Etheneboronic acid, cyclic 1,1,3-trimethyltrimethylene ester", "1,3,2-Dioxaborinane, 4,4,6-trimethyl-2-vinyl-", "2,4-Pentanediol, 2-methyl-, cyclic etheneboronate", "2-Ethenyl-4,4,6-trimethyl-1,3,2-dioxaborinane", "4,4,6-Trimethyl-2-vinyl-1,3,2-dioxaborinane"], "SMILES": "C(=C)B1OC(C)(C)CC(C)O1", "physical_data": {"Molecular Weight": "154.01", "Molecular Formula": "C8H15BO2", "Boiling Point": "69-70 \u00b0C @ Press: 35 Torr"}}