{"cas_no": "4629-80-5", "cn_name": "1,3-\u4e8c\u7532\u57fa-4-\u54cc\u5576\u916e", "en_name": ["1,3-Dimethyl-4-piperidone", "4-Piperidinone, 1,3-dimethyl-", "4-Piperidone, 1,3-dimethyl-", "1,3-Dimethyl-4-piperidinone", "1,3-Dimethyl-4-piperidone"], "SMILES": "CC1C(=O)CCN(C)C1", "physical_data": {"Molecular Weight": "127.18", "Molecular Formula": "C7H13NO", "Boiling Point": "43.0-43.4 \u00b0C @ Press: 5.5 Torr"}}