{"cas_no": "463-00-3", "cn_name": "4-\u80cd\u57fa\u4e01\u9178", "en_name": ["\u03b3-Guanidinobutyric acid", "Butanoic acid, 4-[(aminoiminomethyl)amino]-", "Butyric acid, 4-guanidino-", "4-[(Aminoiminomethyl)amino]butanoic acid", "\u03b3-Guanidinobutyric acid", "\u03b3-Guanidinebutyric acid", "4-Guanidinobutanoic acid", "HL 6450", "NSC 521717", "N-(4-Butanoic acid)guanidine", "4-Guanidinobutyric acid"], "SMILES": "C(CNC(=N)N)CC(O)=O", "physical_data": {"Molecular Weight": "145.16", "Molecular Formula": "C5H11N3O2", "Melting Point": "246-248 \u00b0C (decomp)"}}