{"cas_no": "463-18-3", "cn_name": "1-\u6c1f\u58ec\u70f7", "en_name": ["1-Fluorononane", "Nonane, 1-fluoro-", "1-Fluorononane", "Nonyl fluoride"], "SMILES": "C(CCCCF)CCCC", "physical_data": {"Molecular Weight": "146.25", "Molecular Formula": "C9H19F", "Boiling Point": "167.5 \u00b0C", "Melting Point": "1 \u00b0C"}}