{"cas_no": "463-40-1", "cn_name": "\u03b1-\u4e9a\u9ebb\u9178", "en_name": ["Linolenic acid", "9,12,15-Octadecatrienoic acid, (9Z,12Z,15Z)-", "Linolenic acid", "9,12,15-Octadecatrienoic acid, (Z,Z,Z)-", "(9Z,12Z,15Z)-9,12,15-Octadecatrienoic acid", "all-cis-9,12,15-Octadecatrienoic acid", "\u03b1-Linolenic acid", "cis,cis,cis-9,12,15-Octadecatrienoic acid", "cis-9,cis-12,cis-15-Octadecatrienoic acid", "cis-\u03949,12,15-Octadecatrienoic acid", "9,12,15-all-cis-Octadecatrienoic acid", "9-cis,12-cis,15-cis-Octadecatrienoic acid", "(Z,Z,Z)-Octadeca-9,12,15-trienoic acid", "(all-Z)-9,12,15-Octadecatrienoic acid", "9Z,12Z,15Z-Octadecatrienoic acid", "alpha-Linolenic acid", "18:3n-3", "BRD-K33396764"], "SMILES": "C(CC=CCC=CCC=CCC)CCCCCC(O)=O", "physical_data": {"Molecular Weight": "278.43", "Molecular Formula": "C18H30O2", "Boiling Point": "157-158 \u00b0C @ Press: 1 x 10<sup>-3</sup>-2 x 10<sup>-3</sup> Torr", "Melting Point": "-16.5 \u00b0C", "Density": "0.9157 g/cm\u00b3 @ Temp: 20 \u00b0C"}}