{"cas_no": "463-56-9", "cn_name": "\u786b\u6c30\u9178", "en_name": ["Thiocyanic acid", "Thiocyanic acid", "Hydrogen thiocyanate", "Sulfocyanic acid", "Sulfocyanide", "Hydrogen thiocyanate (H(SCN))"], "SMILES": "C(#N)S", "physical_data": {"Molecular Weight": "59.09", "Molecular Formula": "CHNS", "Melting Point": "-110 \u00b0C"}}