{"cas_no": "463-04-7", "cn_name": "\u4e9a\u785d\u9178\u6b63\u620a\u916f", "en_name": ["Amyl nitrite", "Nitrous acid, pentyl ester", "Pentyl nitrite", "n-Amyl nitrite", "Nitramyl", "Amyl nitrite", "1-Pentyl nitrite", "n-Pentyl nitrite"], "SMILES": "C(CON=O)CCC", "physical_data": {"Molecular Weight": "117.15", "Molecular Formula": "C5H11NO2", "Boiling Point": "104.5 \u00b0C"}}