{"cas_no": "463-71-8", "cn_name": "\u786b\u5149\u6c14", "en_name": ["Thiophosgene", "Carbonothioic dichloride", "Thiophosgene", "Carbon chlorosulfide", "Thiocarbonyl chloride", "Carbonic dichloride, thio-", "Thiocarbonyl dichloride", "Dichlorothiocarbonyl", "Thiocarbonic dichloride", "Dichlorothioformaldehyde", "Carbonyl sulfide dichloride", "Carbon dichloride sulfide"], "SMILES": "C(Cl)(Cl)=S", "physical_data": {"Molecular Weight": "114.98", "Molecular Formula": "CCl2S", "Boiling Point": "73 \u00b0C", "Melting Point": "&lt;25 \u00b0C", "Density": "1.508 g/cm\u00b3 @ Temp: 15 \u00b0C"}}