{"cas_no": "463-58-1", "cn_name": "\u7fb0\u57fa\u786b", "en_name": ["Carbonyl sulfide", "Carbon oxide sulfide (COS)", "Carbonyl sulfide", "Carbon oxysulfide", "Carbonyl sulfide (COS)", "Carbon oxysulfide (COS)", "Oxycarbon sulfide (COS)", "Carbon monoxide monosulfide", "Carbon oxide sulfide", "Thiocarbonyl oxide", "OCS"], "SMILES": "C(=O)=S", "physical_data": {"Molecular Weight": "60.08", "Molecular Formula": "COS", "Boiling Point": "-50 \u00b0C @ Press: 760 Torr", "Melting Point": "-138 \u00b0C", "Density": "1.028 g/cm\u00b3 @ Temp: 17 \u00b0C"}}