{"cas_no": "463-82-1", "cn_name": "\u65b0\u620a\u70f7", "en_name": ["Neopentane", "Propane, 2,2-dimethyl-", "2,2-Dimethylpropane", "Neopentane", "tert-Pentane", "Tetramethylmethane", "1,1,1-Trimethylethane"], "SMILES": "C(C)(C)(C)C", "physical_data": {"Molecular Weight": "72.15", "Molecular Formula": "C5H12", "Boiling Point": "9.5 \u00b0C", "Melting Point": "-16.6 \u00b0C", "Density": "0.613 g/cm\u00b3 @ Temp: 0 \u00b0C"}}