{"cas_no": "463-11-6", "cn_name": "1-\u6c1f\u8f9b\u70f7", "en_name": ["1-Fluorooctane", "Octane, 1-fluoro-", "1-Fluorooctane", "Octyl fluoride", "n-Octyl fluoride", "1-Octyl fluoride", "NSC 62037"], "SMILES": "C(CCCC)CCCF", "physical_data": {"Molecular Weight": "132.22", "Molecular Formula": "C8H17F", "Boiling Point": "142.4 \u00b0C", "Density": "0.798 g/cm\u00b3 @ Temp: 0 \u00b0C"}}