{"cas_no": "463-49-0", "cn_name": "\u4e19\u4e8c\u70ef", "en_name": ["Allene", "1,2-Propadiene", "Propadiene", "Allene", "sym-Allylene", "Dimethylenemethane", "Bis(methylene)methane"], "SMILES": "C(=C)=C", "physical_data": {"Molecular Weight": "40.06", "Molecular Formula": "C3H4", "Boiling Point": "-34.5 \u00b0C @ Press: 760 Torr", "Melting Point": "-136 \u00b0C", "Density": "1.787 g/cm\u00b3"}}