{"cas_no": "4630-62-0", "cn_name": "\u82ef\u57fa-\u0391-D-\u5421\u5583\u8461\u8404\u7cd6\u82f7", "en_name": ["Phenyl \u03b1-D-glucopyranoside", "\u03b1-D-Glucopyranoside, phenyl", "Glucopyranoside, phenyl, \u03b1-D-", "Phenyl \u03b1-D-glucopyranoside", "Phenyl \u03b1-D-glucoside", "NSC 226967"], "SMILES": "O(C1C(O)C(O)C(O)C(CO)O1)C2=CC=CC=C2", "physical_data": {"Molecular Weight": "256.25", "Molecular Formula": "C12H16O6", "Melting Point": "174 \u00b0C"}}