{"cas_no": "4630-95-9", "cn_name": "\u5421\u82ac\u6eb4\u94f5", "en_name": ["Prifinium bromide", "Pyrrolidinium, 3-(diphenylmethylene)-1,1-diethyl-2-methyl-, bromide (1:1)", "Pyrrolidinium, 3-(diphenylmethylene)-1,1-diethyl-2-methyl-, bromide", "3-(Diphenylmethylene)-1,1-diethyl-2-methylpyrrolidinium bromide", "Pyrodifenium bromide", "Prifinium bromide", "Padrin", "3-(Diphenylmethylene)-1-ethyl-2-methylpyrrolidine ethyl bromide", "Riabal"], "SMILES": "C(=C1C(C)[N+](CC)(CC)CC1)(C2=CC=CC=C2)C3=CC=CC=C3.[Br-]", "physical_data": {"Molecular Weight": "", "Molecular Formula": "C22H28N.Br", "Melting Point": "216-218 \u00b0C"}}