{"cas_no": "4630-20-0", "cn_name": "3-\u7532\u57fa-9H-\u5494\u5511", "en_name": ["3-Methylcarbazole", "9H-Carbazole, 3-methyl-", "Carbazole, 3-methyl-", "3-Methyl-9H-carbazole", "3-Methylcarbazole", "6-Methylcarbazole", "NSC 10154"], "SMILES": "CC=1C=C2C=3C(NC2=CC1)=CC=CC3", "physical_data": {"Molecular Weight": "181.23", "Molecular Formula": "C13H11N", "Boiling Point": "365 \u00b0C", "Melting Point": "208.5 \u00b0C"}}