{"cas_no": "4630-07-3", "cn_name": "\u5df4\u4f26\u897f\u4e9a\u6a58\u70ef", "en_name": ["Valencene", "Naphthalene, 1,2,3,5,6,7,8,8a-octahydro-1,8a-dimethyl-7-(1-methylethenyl)-, (1R,7R,8aS)-", "4\u03b2H,5\u03b1-Eremophila-1(10),11-diene", "Valencene", "Naphthalene, 1,2,3,5,6,7,8,8a-octahydro-1,8a-dimethyl-7-(1-methylethenyl)-, [1R-(1\u03b1,7\u03b2,8a\u03b1)]-", "(1R,7R,8aS)-1,2,3,5,6,7,8,8a-Octahydro-1,8a-dimethyl-7-(1-methylethenyl)naphthalene", "Valencen", "(+)-Valencene", "NSC 148969", "4\u03b2H,5\u03b1-Eremophila-1(10),11-diene"], "SMILES": "CC12C(CCC(C(C)=C)C1)=CCCC2C", "physical_data": {"Molecular Weight": "204.35", "Molecular Formula": "C15H24", "Boiling Point": "123 \u00b0C @ Press: 11 Torr"}}