{"cas_no": "4630-82-4", "cn_name": "\u73af\u5df1\u7532\u9178\u7532\u916f", "en_name": ["Methyl cyclohexanecarboxylate", "Cyclohexanecarboxylic acid, methyl ester", "Methyl cyclohexanecarboxylate", "Hexahydrobenzoic acid methyl ester", "Methyl cyclohexylcarboxylate", "Methyl hexahydrobenzoate"], "SMILES": "C(OC)(=O)C1CCCCC1", "physical_data": {"Molecular Weight": "142.20", "Molecular Formula": "C8H14O2", "Boiling Point": "183 \u00b0C", "Melting Point": "48-50 \u00b0C", "Density": "0.9785 g/cm\u00b3 @ Temp: 20 \u00b0C"}}