{"cas_no": "4630-80-2", "cn_name": "\u73af\u620a\u70f7\u7532\u9178\u7532\u916f", "en_name": ["Methyl cyclopentanecarboxylate", "Cyclopentanecarboxylic acid, methyl ester", "Methyl cyclopentanecarboxylate", "1-(Methoxycarbonyl)cyclopentane", "NSC 87553", "Cyclopentanoic acid methyl ester"], "SMILES": "C(OC)(=O)C1CCCC1", "physical_data": {"Molecular Weight": "128.17", "Molecular Formula": "C7H12O2", "Boiling Point": "154.0-154.5 \u00b0C @ Press: 740 Torr", "Melting Point": "77-78 \u00b0C", "Density": "0.9859 g/cm\u00b3 @ Temp: 20 \u00b0C"}}