{"cas_no": "4631-27-0", "cn_name": "DCK", "en_name": ["Cyclohexanone, 2-(methylamino)-2-phenyl-, hydrochloride (1:1)", "Cyclohexanone, 2-(methylamino)-2-phenyl-, hydrochloride (1:1)", "Cyclohexanone, 2-(methylamino)-2-phenyl-, hydrochloride"], "SMILES": "N(C)C1(C(=O)CCCC1)C2=CC=CC=C2.Cl", "physical_data": {"Molecular Weight": "", "Molecular Formula": "C13H17NO.ClH", "Melting Point": "255-257 \u00b0C"}}