{"cas_no": "4635-59-0", "cn_name": "4-\u6c2f\u4e01\u9170\u6c2f", "en_name": ["4-Chlorobutyryl chloride", "Butanoyl chloride, 4-chloro-", "Butyryl chloride, 4-chloro-", "4-Chlorobutanoyl chloride", "\u03b3-Chlorobutyryl chloride", "4-Chlorobutyryl chloride", "4-Chlorobutyroyl chloride", "4-Chlorobutyric acid chloride", "\u03b3-Chlorobutyroyl chloride", "4-Chlorobutanoic acid chloride", "\u03c9-Chlorobutanoyl chloride", "\u03c9-Chlorobutyryl chloride"], "SMILES": "C(C(Cl)=O)CCCl", "physical_data": {"Molecular Weight": "141.00", "Molecular Formula": "C4H6Cl2O", "Boiling Point": "173.5 \u00b0C", "Density": "1.2799 g/cm\u00b3 @ Temp: 20 \u00b0C"}}