{"cas_no": "4635-87-4", "cn_name": "3-\u620a\u70ef\u8148", "en_name": ["3-Pentenenitrile", "3-Pentenenitrile", "3-Pentenonitrile", "Crotyl cyanide", "1-Cyano-2-butene"], "SMILES": "C(CC#N)=CC", "physical_data": {"Molecular Weight": "81.12", "Molecular Formula": "C5H7N", "Boiling Point": "85-87 \u00b0C @ Press: 110 Torr", "Density": "0.8430 g/cm\u00b3 @ Temp: 18.8 \u00b0C"}}