{"cas_no": "4635-08-9", "cn_name": "5-\u6eb4-3,4-\u4e8c\u6c28\u57fa\u5421\u5576", "en_name": ["5-Bromo-3,4-pyridinediamine", "3,4-Pyridinediamine, 5-bromo-", "Pyridine, 3,4-diamino-5-bromo-", "5-Bromo-3,4-pyridinediamine", "3-Bromopyridine-4,5-diamine"], "SMILES": "NC=1C(Br)=CN=CC1N", "physical_data": {"Molecular Weight": "188.03", "Molecular Formula": "C5H6BrN3", "Melting Point": "121-123 \u00b0C"}}