{"cas_no": "4637-56-3", "cn_name": "4-\u7f9f\u57fa\u6c28\u57fa\u55b9\u5549 N-\u6c27\u5316\u7269", "en_name": ["4-Quinolinamine, N-hydroxy-, 1-oxide", "4-Quinolinamine, N-hydroxy-, 1-oxide", "Quinoline, 4-(hydroxyamino)-, 1-oxide", "4-Hydroxylaminoquinoline 1-oxide", "4-(Hydroxyamino)quinoline 1-oxide", "4-Hydroxyaminoquinoline N-oxide", "4-Hydroxylaminoquinoline N-oxide", "NSC 177384"], "SMILES": "N(O)C=1C2=C(N(=O)=CC1)C=CC=C2", "physical_data": {"Molecular Weight": "176.17", "Molecular Formula": "C9H8N2O2", "Melting Point": "~210 \u00b0C (decomp) (approx)"}}