{"cas_no": "4637-24-5", "cn_name": "N,N-\u4e8c\u7532\u57fa\u7532\u9170\u80fa\u4e8c\u7532\u57fa\u7f29\u919b", "en_name": ["Dimethylformamide dimethyl acetal", "Methanamine, 1,1-dimethoxy-N,N-dimethyl-", "Trimethylamine, 1,1-dimethoxy-", "1,1-Dimethoxy-N,N-dimethylmethanamine", "1,1-Dimethoxytrimethylamine", "N-(Dimethoxymethyl)dimethylamine", "Dimethoxy(dimethylamino)methane", "Methyl-8", "(Dimethylamino)formaldehyde dimethyl acetal", "(Dimethylamino)dimethoxymethane", "Dimethoxy-N,N-dimethylmethylamine", "DMF dimethyl acetal", "N,N-Dimethylformamide dimethyl acetal", "Dimethylformamide dimethyl acetal", "\u03b1,\u03b1-Dimethoxytrimethylamine", "DMFDMA", "N-(Dimethoxymethyl)-N,N-dimethylamine", "(Dimethoxymethyl)dimethylamine", "Dimethoxy-N,N-dimethylmethanamine", "Dimethyl dimethylformamide acetal", "N,N-Dimethyl-1,1-bis(methyloxy)methanamine", "N,N-Dimethyl(dimethoxymethyl)amine", "N,N-Dimethylformamido dimethyl acetal"], "SMILES": "C(N(C)C)(OC)OC", "physical_data": {"Molecular Weight": "119.16", "Molecular Formula": "C5H13NO2", "Boiling Point": "107-108 \u00b0C @ Press: 763 Torr", "Density": "0.8990 g/cm\u00b3 @ Temp: 20 \u00b0C"}}