{"cas_no": "4638-48-6", "cn_name": "5-\u6c2f\u6c34\u6768\u9170\u82ef\u80fa", "en_name": ["5-Chlorosalicylanilide", "Benzamide, 5-chloro-2-hydroxy-N-phenyl-", "Salicylanilide, 5-chloro-", "5-Chloro-2-hydroxy-N-phenylbenzamide", "5-Chlorosalicylanilide", "WR 13084", "NSC 402600"], "SMILES": "C(NC1=CC=CC=C1)(=O)C2=C(O)C=CC(Cl)=C2", "physical_data": {"Molecular Weight": "247.68", "Molecular Formula": "C13H10ClNO2", "Melting Point": "211 \u00b0C"}}