{"cas_no": "4638-92-0", "cn_name": "\u83ca\u9178", "en_name": ["(+)-trans-Chrysanthemic acid", "Cyclopropanecarboxylic acid, 2,2-dimethyl-3-(2-methyl-1-propen-1-yl)-, (1R,3R)-", "Cyclopropanecarboxylic acid, 2,2-dimethyl-3-(2-methylpropenyl)-, (1R,3R)-(+)-", "Cyclopropanecarboxylic acid, 2,2-dimethyl-3-(2-methyl-1-propenyl)-, (1R-trans)-", "Cyclopropanecarboxylic acid, 2,2-dimethyl-3-(2-methyl-1-propenyl)-, (1R,3R)-", "(1R,3R)-2,2-Dimethyl-3-(2-methyl-1-propen-1-yl)cyclopropanecarboxylic acid", "d-trans-Chrysanthemumic acid", "d-trans-Chrysanthemummonocarboxylic acid", "d-trans-Chrysanthemic acid", "(+)-trans-Chrysanthemic acid", "trans-(+)-Chrysanthemic acid", "(+)-trans-Chrysanthemumic acid", "1R,3R-(+)-trans-Chrysanthemic acid", "(+)-trans-2,2-Dimethyl-3-isobutenyl-1-cyclopropanecarboxylic acid", "(1R-trans)-Chrysanthemic acid", "(1R,3R)-Chrysanthemic acid", "(1R)-trans-3-(2-Methyl-1-propenyl)-2,2-dimethylcyclopropanecarboxylic acid", "(1R)-trans-3-(2-Methyl-1-propenyl)-2,2-dimethylcyclopropanecarboxylic acid"], "SMILES": "C(O)(=O)C1C(C=C(C)C)C1(C)C", "physical_data": {"Molecular Weight": "168.23", "Molecular Formula": "C10H16O2", "Melting Point": "17 \u00b0C"}}