{"cas_no": "464-07-3", "cn_name": "3\uff0c3-\u4e8c\u7532\u57fa-2-\u4e01\u9187", "en_name": ["3,3-Dimethyl-2-butanol", "2-Butanol, 3,3-dimethyl-", "Pinacolyl alcohol", "3,3-Dimethyl-2-butanol", "tert-Butyl methyl carbinol", "2,2-Dimethyl-3-butanol", "1-Methyl-2,2-dimethylpropanol", "DL-3,3-Dimethylbutan-2-ol", "(\u00b1)-Pinacolyl alcohol", "(\u00b1)-3,3-Dimethyl-2-butanol", "NSC 939", "1,2,2-Trimethyl-1-propanol", "1-tert-Butylethanol"], "SMILES": "C(C(C)O)(C)(C)C", "physical_data": {"Molecular Weight": "102.17", "Molecular Formula": "C6H14O", "Boiling Point": "120 \u00b0C", "Melting Point": "4.8 \u00b0C", "Density": "0.810 g/cm\u00b3 @ Temp: 25 \u00b0C"}}