{"cas_no": "464-43-7", "cn_name": "(+)-\u51b0\u7247", "en_name": ["d-Borneol", "Bicyclo[2.2.1]heptan-2-ol, 1,7,7-trimethyl-, (1R,2S,4R)-", "Borneol, (1R,2S,4R)-(+)-", "Bicyclo[2.2.1]heptan-2-ol, 1,7,7-trimethyl-, (1R-endo)-", "(1R,2S,4R)-1,7,7-Trimethylbicyclo[2.2.1]heptan-2-ol", "d-Borneol", "(+)-(2S)-Borneol", "Borneol, (+)-", "(+)-Borneol", "(+)-endo-Borneol", "(1R)-(+)-Borneol", "d-(+)-Borneol", "(1R)-endo-Borneol", "(+)-2-Borneol", "Dexborneol", "(1R,2S,4R)-Borneol"], "SMILES": "CC12C(C)(C)C(CC1O)CC2", "physical_data": {"Molecular Weight": "154.25", "Molecular Formula": "C10H18O", "Melting Point": "208 \u00b0C"}}