{"cas_no": "464-74-4", "cn_name": "\u6c99\u87fe\u6bd2\u7ecf", "en_name": ["Arenobufagin", "Bufa-20,22-dienolide, 3,11,14-trihydroxy-12-oxo-, (3\u03b2,5\u03b2,11\u03b1)-", "5\u03b2-Bufa-20,22-dienolide, 3\u03b2,11\u03b1,14-trihydroxy-12-oxo-", "(3\u03b2,5\u03b2,11\u03b1)-3,11,14-Trihydroxy-12-oxobufa-20,22-dienolide", "Arenobufagin"], "SMILES": "CC12C(O)(C3C(C(O)C1=O)C4(C)C(CC3)CC(O)CC4)CCC2C=5C=CC(=O)OC5", "physical_data": {"Molecular Weight": "416.51", "Molecular Formula": "C24H32O6", "Melting Point": "220 \u00b0C"}}