{"cas_no": "464-48-2", "cn_name": "\u5de6\u65cb\u6a1f\u8111", "en_name": ["(-)-Camphor", "Bicyclo[2.2.1]heptan-2-one, 1,7,7-trimethyl-, (1S,4S)-", "Camphor, (1S,4S)-(-)-", "Bicyclo[2.2.1]heptan-2-one, 1,7,7-trimethyl-, (1S)-", "(1S,4S)-1,7,7-Trimethylbicyclo[2.2.1]heptan-2-one", "l-Camphor", "(-)-Camphor", "(-)-Alcanfor", "(1S)-(-)-Camphor", "(1S)-Camphor", "(1S,4S)-(-)-Camphor", "NSC 26351", "(S)-(-)-Camphor", "(1S)-1,7,7-Trimethylbicyclo[2.2.1]-2-heptanone", "(1S,4S)-1,7,7-Trimethylbicyclo[2.2.1]heptan-2-one"], "SMILES": "CC12C(C)(C)C(CC1=O)CC2", "physical_data": {"Molecular Weight": "152.23", "Molecular Formula": "C10H16O", "Melting Point": "175-178 \u00b0C"}}