{"cas_no": "464-98-2", "cn_name": "\u4f2a\u84b2\u516c\u82f1\u753e\u9187", "en_name": ["\u03c8-Taraxasterol", "Urs-20-en-3-ol, (3\u03b2,18\u03b1,19\u03b1)-", "Pseudotaraxasterol", "18\u03b1,19\u03b2H-Urs-20-en-3\u03b2-ol", "(3\u03b2,18\u03b1,19\u03b1)-Urs-20-en-3-ol", "\u03c8-Taraxasterol", "20-Taraxasten-3\u03b2-ol", "psi-Taraxasterol"], "SMILES": "CC12C3(C)C(C4C(C)(CC3)CC=C(C)C4C)CCC1C5(C)C(CC2)C(C)(C)C(O)CC5", "physical_data": {"Molecular Weight": "426.72", "Molecular Formula": "C30H50O", "Melting Point": "198-200 \u00b0C"}}