{"cas_no": "464-92-6", "cn_name": "\u79ef\u96ea\u8349\u9178", "en_name": ["Asiatic acid", "Urs-12-en-28-oic acid, 2,3,23-trihydroxy-, (2\u03b1,3\u03b2,4\u03b1)-", "Urs-12-en-28-oic acid, 2\u03b1,3\u03b2,23-trihydroxy-", "Asiatic acid", "(2\u03b1,3\u03b2,4\u03b1)-2,3,23-Trihydroxyurs-12-en-28-oic acid", "2\u03b1,3\u03b2,23-Trihydroxyurs-12-en-28-oic acid", "NSC 166063", "2\u03b1,23-Dihydroxyursolic acid", "Dammarolic acid", "2\u03b1,3\u03b2,24-Trihydroxy-12-en-28-ursolic acid"], "SMILES": "CC12C3(C)C(C4C(C(O)=O)(CC3)CCC(C)C4C)=CCC1C5(C)C(CC2)C(CO)(C)C(O)C(O)C5", "physical_data": {"Molecular Weight": "488.70", "Molecular Formula": "C30H48O5", "Melting Point": "~300 \u00b0C (approx)"}}