{"cas_no": "464-45-9", "cn_name": "\u5de6\u65cb\u9f99\u8111", "en_name": ["(-)-Borneol", "Bicyclo[2.2.1]heptan-2-ol, 1,7,7-trimethyl-, (1S,2R,4S)-", "Borneol, (1S,2R,4S)-(-)-", "Bicyclo[2.2.1]heptan-2-ol, 1,7,7-trimethyl-, (1S-endo)-", "(1S,2R,4S)-1,7,7-Trimethylbicyclo[2.2.1]heptan-2-ol", "(-)-Borneol", "Linderol", "Ngai camphor", "l-Borneol", "(-)-(1S,4S)-Borneol", "(2R)-(-)-Borneol", "(1S,2R,4S)-Borneol", "(-)-endo-Borneol", "L-Borneol", "endo-(-)-Borneol", "(1S)-(-)-Borneol", "(1S)-endo-Borneol", "(1S)-endo-(-)-Borneol", "(-)-[(1S)-endo]-Borneol", "endo-(1S)-(-)-Borneol", "Camphyl alcohol", "(1S)-endo-(-)-Borneol"], "SMILES": "CC12C(C)(C)C(CC1O)CC2", "physical_data": {"Molecular Weight": "154.25", "Molecular Formula": "C10H18O", "Boiling Point": "210 \u00b0C", "Melting Point": "207 \u00b0C"}}