{"cas_no": "464-49-3", "cn_name": "D-\u6a1f\u8111", "en_name": ["(+)-Camphor", "Bicyclo[2.2.1]heptan-2-one, 1,7,7-trimethyl-, (1R,4R)-", "Camphor, (1R,4R)-(+)-", "Bicyclo[2.2.1]heptan-2-one, 1,7,7-trimethyl-, (1R)-", "(1R,4R)-1,7,7-Trimethylbicyclo[2.2.1]heptan-2-one", "(+)-Camphor", "Japanese camphor", "d-Camphor", "D-(+)-Camphor", "Camphor, (+)-", "(+)-2-Bornanone", "Alcanfor", "D-Camphor", "(R)-(+)-Camphor", "(1R)-Camphor", "(R)-Camphor", "(1R)-(+)-Camphor", "(1R,4R)-(+)-Camphor", "(+)-(1R,4R)-Camphor", "(1R)-1,7,7-Trimethylbicyclo[2.2.1]heptan-2-one", "Dextrocamphora", "(1R,4R)-1,7,7-Trimethylbicyclo[2.2.1]heptan-2-one"], "SMILES": "CC12C(C)(C)C(CC1=O)CC2", "physical_data": {"Molecular Weight": "152.23", "Molecular Formula": "C10H16O", "Boiling Point": "207.4 \u00b0C", "Melting Point": "178.8 \u00b0C"}}