{"cas_no": "464-06-2", "cn_name": "2,2,3-\u4e09\u7532\u57fa\u4e01\u70f7", "en_name": ["2,2,3-Trimethylbutane", "Butane, 2,2,3-trimethyl-", "2,2,3-Trimethylbutane", "Triptane", "2,3,3-Trimethylbutane", "Trimethylbutane", "NSC 73938"], "SMILES": "C(C(C)C)(C)(C)C", "physical_data": {"Molecular Weight": "100.20", "Molecular Formula": "C7H16", "Boiling Point": "80.8 \u00b0C", "Melting Point": "-25 \u00b0C", "Density": "0.6945 g/cm\u00b3 @ Temp: 15 \u00b0C"}}