{"cas_no": "464-72-2", "cn_name": "\u82ef\u9891\u54ea\u9187", "en_name": ["Benzopinacol", "1,2-Ethanediol, 1,1,2,2-tetraphenyl-", "Benzopinacol", "1,1,2,2-Tetraphenyl-1,2-ethanediol", "Benzopinacone", "Benzpinacone", "\u03b1,\u03b1\u2032-Bibenzhydrol", "Tetraphenylethylene glycol", "Benzpinacol", "Tetraphenyl-1,2-ethanediol", "Benzophenone pinacol", "1,1,2,2-Tetraphenylethylene glycol", "NSC 120377", "NSC 1973", "1,1,2,2-Tetraphenyl-1,2-ethandiol", "Benzopicanol"], "SMILES": "C(C(O)(C1=CC=CC=C1)C2=CC=CC=C2)(O)(C3=CC=CC=C3)C4=CC=CC=C4", "physical_data": {"Molecular Weight": "366.45", "Molecular Formula": "C26H22O2", "Melting Point": "182 \u00b0C", "Density": "1.24 g/cm\u00b3"}}