{"cas_no": "464-05-1", "cn_name": "\u4e09\u6c1f\u4e59\u9178\u5421\u5576", "en_name": ["Pyridinium trifluoroacetate", "Acetic acid, 2,2,2-trifluoro-, compd. with pyridine (1:1)", "Pyridine, trifluoroacetate", "Acetic acid, trifluoro-, compd. with pyridine (1:1)", "Trifluoroacetic acid-pyridine complex", "Pyridinium trifluoroacetate", "NSC 211755"], "SMILES": "C(C(O)=O)(F)(F)F.C=1C=CN=CC1", "physical_data": {"Molecular Weight": "", "Molecular Formula": "C5H5N.C2HF3O2", "Melting Point": "82-83 \u00b0C"}}