{"cas_no": "4640-67-9", "cn_name": "4-\u6c1f\u82ef\u7532\u9170\u57fa\u4e59\u8148", "en_name": ["4-Fluoro-\u03b2-oxobenzenepropanenitrile", "Benzenepropanenitrile, 4-fluoro-\u03b2-oxo-", "Acetonitrile, (p-fluorobenzoyl)-", "4-Fluoro-\u03b2-oxobenzenepropanenitrile", "p-Fluorobenzoylacetonitrile", "4-Fluorobenzoylacetonitrile", "3-(4-Fluorophenyl)-3-oxopropanenitrile", "3-(4-Fluorophenyl)-3-oxopropionitrile", "3-Oxo-3-(4-fluorophenyl)propanenitrile", "\u03b1-Cyano-4-fluoroacetophenone"], "SMILES": "C(CC#N)(=O)C1=CC=C(F)C=C1", "physical_data": {"Molecular Weight": "163.15", "Molecular Formula": "C9H6FNO", "Melting Point": "77-78 \u00b0C"}}