{"cas_no": "4640-41-9", "cn_name": "DDQ\u526f\u4ea7\u7269", "en_name": ["4,5-Dichloro-3,6-dihydroxy-1,2-benzenedicarbonitrile", "1,2-Benzenedicarbonitrile, 4,5-dichloro-3,6-dihydroxy-", "Phthalonitrile, 4,5-dichloro-3,6-dihydroxy-", "4,5-Dichloro-3,6-dihydroxy-1,2-benzenedicarbonitrile", "2,3-Dichloro-5,6-dicyanohydroquinone", "2,3-Dicyano-5,6-dichlorohydroquinone", "DDHQ", "2,3-Dichloro-5,6-dicyano-1,4-benzoquinol", "4,5-Dichloro-3,6-dihydroxyphthalonitrile", "2,3-Dichloro-5,6-dicyano-p-hydroquinone", "2,3-Dichloro-5,6-dicyano-1,4-dihydroxybenzene", "NSC 172566", "2,3-Dichloro-5,6-dicyano-1,4-hydroquinone", "4,5-Dichloro-3,6-dihydroxyphthalodinitrile"], "SMILES": "C(#N)C1=C(C#N)C(O)=C(Cl)C(Cl)=C1O", "physical_data": {"Molecular Weight": "229.02", "Molecular Formula": "C8H2Cl2N2O2", "Melting Point": "265 \u00b0C (decomp)"}}