{"cas_no": "4640-69-1", "cn_name": "3,4-\u4e8c\u7532\u6c27\u57fa\u82ef\u7532\u9170\u4e59\u8148", "en_name": ["3,4-Dimethoxy-\u03b2-oxobenzenepropanenitrile", "Benzenepropanenitrile, 3,4-dimethoxy-\u03b2-oxo-", "Acetonitrile, veratroyl-", "3,4-Dimethoxy-\u03b2-oxobenzenepropanenitrile", "(3,4-Dimethoxybenzoyl)acetonitrile", "3,4-Dimethoxybenzoylacetonitrile"], "SMILES": "C(CC#N)(=O)C1=CC(OC)=C(OC)C=C1", "physical_data": {"Molecular Weight": "205.21", "Molecular Formula": "C11H11NO3", "Melting Point": "138-139 \u00b0C"}}