{"cas_no": "4641-57-0", "cn_name": "1-\u82ef\u57fa-2-\u5421\u54af\u70f7\u916e", "en_name": ["1-Phenyl-2-pyrrolidinone", "2-Pyrrolidinone, 1-phenyl-", "1-Phenyl-2-pyrrolidinone", "N-Phenyl-2-pyrrolidone", "N-Phenyl-2-pyrrolidinone", "1-Phenyl-2-pyrrolidone", "N-Phenylbutyrolactam", "NSC 25325"], "SMILES": "O=C1N(CCC1)C2=CC=CC=C2", "physical_data": {"Molecular Weight": "161.20", "Molecular Formula": "C10H11NO", "Boiling Point": "130-140 \u00b0C @ Press: 1 Torr", "Melting Point": "68-69 \u00b0C"}}