{"cas_no": "4642-95-9", "cn_name": "\u96cc-4,9,11-\u4e09\u70ef-3,17-\u4e8c\u916e", "en_name": ["Trendione", "Estra-4,9,11-triene-3,17-dione", "10758-25A", "Trendione", "RU 2065"], "SMILES": "CC12C(C3C(=C4C(CC3)=CC(=O)CC4)C=C1)CCC2=O", "physical_data": {"Molecular Weight": "268.35", "Molecular Formula": "C18H20O2", "Melting Point": "140 \u00b0C"}}