{"cas_no": "464213-10-3", "cn_name": "\u4f0a\u5fc5\u90a3\u73ed", "en_name": ["Ibipinabant", "1H-Pyrazole-1-carboximidamide, 3-(4-chlorophenyl)-N-[(4-chlorophenyl)sulfonyl]-4,5-dihydro-N\u2032-methyl-4-phenyl-, (4S)-", "(4S)-3-(4-Chlorophenyl)-N-[(4-chlorophenyl)sulfonyl]-4,5-dihydro-N\u2032-methyl-4-phenyl-1H-pyrazole-1-carboximidamide", "SLV 319", "BMS 646256", "Ibipinabant", "JD 5001"], "SMILES": "C(NS(=O)(=O)C1=CC=C(Cl)C=C1)(=NC)N2N=C(C(C2)C3=CC=CC=C3)C4=CC=C(Cl)C=C4", "physical_data": {"Molecular Weight": "487.40", "Molecular Formula": "C23H20Cl2N4O2S", "Melting Point": "159-162 \u00b0C"}}