{"cas_no": "4643-27-0", "cn_name": "2-\u8f9b-4-\u916e", "en_name": ["2-Octen-4-one", "2-Octen-4-one", "Butyl 1-propenyl ketone"], "SMILES": "C(CCCC)(C=CC)=O", "physical_data": {"Molecular Weight": "126.20", "Molecular Formula": "C8H14O", "Boiling Point": "178 \u00b0C", "Density": "0.852 g/cm\u00b3 @ Temp: 20 \u00b0C"}}