{"cas_no": "4644-61-5", "cn_name": "4-\u54cc\u5576\u916e-3-\u7532\u9178\u4e59\u916f\u76d0\u9178\u76d0", "en_name": ["3-Piperidinecarboxylic acid, 4-oxo-, ethyl ester, hydrochloride (1:1)", "3-Piperidinecarboxylic acid, 4-oxo-, ethyl ester, hydrochloride (1:1)", "Nipecotic acid, 4-oxo-, ethyl ester, hydrochloride", "3-Piperidinecarboxylic acid, 4-oxo-, ethyl ester, hydrochloride", "3-Ethoxycarbonyl-4-piperidinone hydrochloride", "Ethyl 4-piperidone-3-carboxylate hydrochloride", "3-Ethoxycarbonyl-4-piperidone hydrochloride", "Ethyl 4-oxo-3-piperidinecarboxylate hydrochloride", "4-Oxo-3-piperidinecarboxylic acid ethyl ester hydrochloride", "3-(Ethoxycarbonyl)-4-oxopiperidinium chloride", "NSC 74467"], "SMILES": "C(OCC)(=O)C1C(=O)CCNC1.Cl", "physical_data": {"Molecular Weight": "", "Molecular Formula": "C8H13NO3.ClH", "Melting Point": "168-169 \u00b0C (decomp)"}}