{"cas_no": "4645-32-3", "cn_name": "\u4e8c\u7532\u57fa-\u4e59\u70ef\u57fa\u78f7\u9178\u916f", "en_name": ["Dimethyl vinylphosphonate", "Phosphonic acid, P-ethenyl-, dimethyl ester", "Phosphonic acid, vinyl-, dimethyl ester", "Phosphonic acid, ethenyl-, dimethyl ester", "Dimethyl vinylphosphonate", "Vinylphosphonic acid dimethyl ester", "Dimethyl ethenylphosphonate", "Vinyl(dimethoxy)oxophosphine", "Vinyl dimethylphosphonate", "1-Dimethoxyphosphorylethene"], "SMILES": "P(C=C)(OC)(OC)=O", "physical_data": {"Molecular Weight": "136.09", "Molecular Formula": "C4H9O3P", "Boiling Point": "82-84 \u00b0C @ Press: 3.5 Torr", "Density": "1.1696 g/cm\u00b3 @ Temp: 20 \u00b0C"}}