{"cas_no": "4647-20-5", "cn_name": "\u83ab\u7f8e\u4ed6\u677eEP\u6742\u8d28K", "en_name": ["Icomethasone", "Pregna-1,4-diene-3,20-dione, 9-chloro-11,17,21-trihydroxy-16-methyl-, (11\u03b2,16\u03b1)-", "Pregna-1,4-diene-3,20-dione, 9-chloro-11\u03b2,17,21-trihydroxy-16\u03b1-methyl-", "(11\u03b2,16\u03b1)-9-Chloro-11,17,21-trihydroxy-16-methylpregna-1,4-diene-3,20-dione", "Icometasone", "Icomethasone"], "SMILES": "ClC12C(C3C(C)(CC1O)C(C(CO)=O)(O)C(C)C3)CCC=4C2(C)C=CC(=O)C4", "physical_data": {"Molecular Weight": "408.92", "Molecular Formula": "C22H29ClO5", "Melting Point": "229-234 \u00b0C"}}