{"cas_no": "4648-54-8", "cn_name": "\u53e0\u6c2e\u57fa\u4e09\u7532\u57fa\u7845\u70f7", "en_name": ["Azidotrimethylsilane", "Silane, azidotrimethyl-", "Azidotrimethylsilane", "Trimethylsilyl azide", "Trimethylsilicon azide", "Trimethylazidosilane"], "SMILES": "N([Si](C)(C)C)=[N+]=[N-]", "physical_data": {"Molecular Weight": "", "Molecular Formula": "C3H9N3Si", "Boiling Point": "95-96 \u00b0C", "Melting Point": "-95 \u00b0C", "Density": "0.876 g/cm\u00b3"}}