{"cas_no": "465-29-2", "cn_name": "1,7,7-\u4e09\u7532\u57fa-\u4e8c\u73af[2.2.1]\u5e9a\u70f7-2,3-\u4e8c\u916e", "en_name": ["Camphorquinone", "Bicyclo[2.2.1]heptane-2,3-dione, 1,7,7-trimethyl-", "2,3-Bornanedione, (\u00b1)-", "Bicyclo[2.2.1]heptane-2,3-dione, 1,7,7-trimethyl-, (\u00b1)-", "1,7,7-Trimethylbicyclo[2.2.1]heptane-2,3-dione", "(\u00b1)-Camphorquinone", "dl-2,3-Camphanedione", "dl-Camphorquinone", "Camphorquinone", "Camphoquinone", "Camphoroquinone", "NSC 285", "NSC 402031", "DL-Bornane-2,3-dione", "CQ", "C 0014"], "SMILES": "CC12C(C)(C)C(C(=O)C1=O)CC2", "physical_data": {"Molecular Weight": "166.22", "Molecular Formula": "C10H14O2", "Boiling Point": "90 \u00b0C @ Press: 20 Torr", "Melting Point": "198-200 \u00b0C"}}