{"cas_no": "465-65-6", "cn_name": "\u7eb3\u6d1b\u916e", "en_name": ["Naloxone", "Morphinan-6-one, 4,5-epoxy-3,14-dihydroxy-17-(2-propen-1-yl)-, (5\u03b1)-", "Morphinan-6-one, 17-allyl-4,5\u03b1-epoxy-3,14-dihydroxy-", "Morphinan-6-one, 4,5-epoxy-3,14-dihydroxy-17-(2-propenyl)-, (5\u03b1)-", "Normorphinone, N-allyl-7,8-dihydro-14-hydroxy-", "(5\u03b1)-4,5-Epoxy-3,14-dihydroxy-17-(2-propen-1-yl)morphinan-6-one", "12-Allyl-7,7a,8,9-tetrahydro-3,7a-dihydroxy-4aH-8,9c-iminoethanophenanthro[4,5-bcd]furan-5(6H)-one", "Naloxone", "l-Naloxone", "(-)-Naloxone", "NSC 70413", "MeSH ID: D009270"], "SMILES": "OC12C34C=5C(OC3C(=O)CC1)=C(O)C=CC5CC2N(CC=C)CC4", "physical_data": {"Molecular Weight": "327.37", "Molecular Formula": "C19H21NO4", "Melting Point": "184 \u00b0C"}}