{"cas_no": "465-90-7", "cn_name": "\u87fe\u870d\u5b83\u91cc\u5b9a", "en_name": ["Hellebrigenin", "Bufa-20,22-dienolide, 3,5,14-trihydroxy-19-oxo-, (3\u03b2,5\u03b2)-", "5\u03b2-Bufa-20,22-dienolide, 3\u03b2,5,14-trihydroxy-19-oxo-", "(3\u03b2,5\u03b2)-3,5,14-Trihydroxy-19-oxobufa-20,22-dienolide", "Bufotalidin", "Hellebrigenin", "Gellebrigenin", "NSC 89594"], "SMILES": "C(=O)C12C3C(C4(O)C(C)(CC3)C(CC4)C=5C=CC(=O)OC5)CCC1(O)CC(O)CC2", "physical_data": {"Molecular Weight": "416.51", "Molecular Formula": "C24H32O6", "Melting Point": "175 \u00b0C"}}