{"cas_no": "465-99-6", "cn_name": "\u5e38\u6625\u85e4\u7682\u82f7\u5143", "en_name": ["Hederagenin", "Olean-12-en-28-oic acid, 3,23-dihydroxy-, (3\u03b2,4\u03b1)-", "Olean-12-en-28-oic acid, 3\u03b2,23-dihydroxy-", "(3\u03b2,4\u03b1)-3,23-Dihydroxyolean-12-en-28-oic acid", "Caulosapogenin", "Hederagenin", "Hederagenol", "Astrantiagenin E", "Hederagenic acid", "NSC 24954", "Hederagenine", "3\u03b2,23-Dihydroxyolean-12-en-28-oic acid", "Helexin"], "SMILES": "CC12C(C3C(C(O)=O)(CC1)CCC(C)(C)C3)=CCC4C2(C)CCC5C4(C)CCC(O)C5(CO)C", "physical_data": {"Molecular Weight": "472.70", "Molecular Formula": "C30H48O4", "Melting Point": "325 \u00b0C"}}