{"cas_no": "465-39-4", "cn_name": "\u87fe\u529b\u82cf", "en_name": ["Resibufogenin", "Bufa-20,22-dienolide, 14,15-epoxy-3-hydroxy-, (3\u03b2,5\u03b2,15\u03b2)-", "5\u03b2-Bufa-20,22-dienolide, 14,15\u03b2-epoxy-3\u03b2-hydroxy-", "(3\u03b2,5\u03b2,15\u03b2)-14,15-Epoxy-3-hydroxybufa-20,22-dienolide", "Bufogenin", "14,15\u03b2-Epoxy-3\u03b2-hydroxy-5\u03b2-bufa-20,22-dienolide", "3\u03b2-Hydroxy-14,15\u03b2-epoxy-5\u03b2-bufa-20,22-dienolide", "Resibufogenin", "Respigon", "Resi", "Recibufogenin", "NSC 90783", "Resinobufagin"], "SMILES": "CC12C3(C(O3)CC1C=4C=CC(=O)OC4)C5C(CC2)C6(C)C(CC5)CC(O)CC6", "physical_data": {"Molecular Weight": "384.51", "Molecular Formula": "C24H32O4", "Melting Point": "155 \u00b0C"}}