{"cas_no": "465-21-4", "cn_name": "\u87fe\u6bd2\u7075", "en_name": ["Bufalin", "Bufa-20,22-dienolide, 3,14-dihydroxy-, (3\u03b2,5\u03b2)-", "Bufalin", "5\u03b2-Bufa-20,22-dienolide, 3\u03b2,14-dihydroxy-", "(3\u03b2,5\u03b2)-3,14-Dihydroxybufa-20,22-dienolide", "NSC 89595", "B 0261"], "SMILES": "OC12C(C)(C(CC1)C=3C=CC(=O)OC3)CCC4C2CCC5C4(C)CCC(O)C5", "physical_data": {"Molecular Weight": "386.52", "Molecular Formula": "C24H34O4", "Melting Point": "242.5 \u00b0C"}}