{"cas_no": "465-00-9", "cn_name": "\u963f\u6c5f\u6984\u4ec1\u9178", "en_name": ["Arjunolic acid", "Olean-12-en-28-oic acid, 2,3,23-trihydroxy-, (2\u03b1,3\u03b2,4\u03b1)-", "Olean-12-en-28-oic acid, 2\u03b1,3\u03b2,23-trihydroxy-", "Arjunolic acid", "(2\u03b1,3\u03b2,4\u03b1)-2,3,23-Trihydroxyolean-12-en-28-oic acid", "2\u03b1,3\u03b2,23-Trihydroxyolean-12-en-28-oic acid", "Urjinolic acid"], "SMILES": "CC12C3(C)C(C4C(C(O)=O)(CC3)CCC(C)(C)C4)=CCC1C5(C)C(CC2)C(CO)(C)C(O)C(O)C5", "physical_data": {"Molecular Weight": "488.70", "Molecular Formula": "C30H48O5", "Melting Point": "332-334 \u00b0C"}}