{"cas_no": "465-92-9", "cn_name": "\u590f\u81f3\u8349\u7d20", "en_name": ["Marrubiin", "2H-Naphtho[1,8-bc]furan-2-one, 6-[2-(3-furanyl)ethyl]decahydro-6-hydroxy-2a,5a,7-trimethyl-, (2aS,5aS,6R,7R,8aR,8bR)-", "8\u03b2H-Labda-13(16),14-dien-19-oic acid, 15,16-epoxy-6\u03b2,9-dihydroxy-, \u03b3-lactone", "Marrubiin", "2H-Naphtho[1,8-bc]furan-2-one, 6-[2-(3-furanyl)ethyl]decahydro-6-hydroxy-2a,5a,7-trimethyl-, [2aS-(2a\u03b1,5a\u03b2,6\u03b1,7\u03b1,8a\u03b1,8b\u03b1)]-", "(2aS,5aS,6R,7R,8aR,8bR)-6-[2-(3-Furanyl)ethyl]decahydro-6-hydroxy-2a,5a,7-trimethyl-2H-naphtho[1,8-bc]furan-2-one", "15,16-Epoxy-6\u03b2,9-dihydroxy-8\u03b2H-labda-13(16),14-dien-19-oic acid \u03b3-lactone", "Marrubin", "NSC 36693", "(+)-Marrubiin"], "SMILES": "CC12C3C(OC(=O)C3(C)CCC1)CC(C)C2(CCC=4C=COC4)O", "physical_data": {"Molecular Weight": "332.43", "Molecular Formula": "C20H28O4", "Boiling Point": "297-299 \u00b0C @ Press: 15 Torr", "Melting Point": "115.5-154.5 \u00b0C"}}