{"cas_no": "465-42-9", "cn_name": "\u8fa3\u6912\u7ea2", "en_name": ["Capsanthin", "\u03b2,\u03ba-Caroten-6\u2032-one, 3,3\u2032-dihydroxy-, (3R,3\u2032S,5\u2032R)-", "2,4,6,8,10,12,14,16,18-Nonadecanonaen-1-one, 19-(4-hydroxy-2,6,6-trimethyl-1-cyclohexen-1-yl)-1-(4-hydroxy-1,2,2-trimethylcyclopentyl)-4,8,13,17-tetramethyl-, (all-E)-", "Capsanthin", "2,4,6,8,10,12,14,16,18-Nonadecanonaen-1-one, 19-(4-hydroxy-2,6,6-trimethyl-1-cyclohexen-1-yl)-1-(5-hydroxy-1,2,2-trimethylcyclopentyl)-4,8,13,17-tetramethyl-", "(3R,3\u2032S,5\u2032R)-3,3\u2032-Dihydroxy-\u03b2,\u03ba-caroten-6\u2032-one", "all-trans-Capsanthin", "Orange Color 100OIL-EX", "Color-Up", "Capsanthal C"], "SMILES": "C(C=CC(=CC=CC(=CC=CC=C(C=CC=C(C=CC=1C(C)(C)CC(O)CC1C)C)C)C)C)(=O)C2(C)C(C)(C)CC(O)C2", "physical_data": {"Molecular Weight": "584.87", "Molecular Formula": "C40H56O3", "Melting Point": "177-178 \u00b0C"}}