{"cas_no": "465-16-7", "cn_name": "\u6b27\u5939\u7af9\u6843\u7519\u4e19", "en_name": ["Oleandrin", "Card-20(22)-enolide, 16-(acetyloxy)-3-[(2,6-dideoxy-3-O-methyl-\u03b1-L-arabino-hexopyranosyl)oxy]-14-hydroxy-, (3\u03b2,5\u03b2,16\u03b2)-", "Oleandrin", "(3\u03b2,5\u03b2,16\u03b2)-16-(Acetyloxy)-3-[(2,6-dideoxy-3-O-methyl-\u03b1-L-arabino-hexopyranosyl)oxy]-14-hydroxycard-20(22)-enolide", "Corrigen", "Foliandrin", "Folinerin", "Oleandrine", "Neriol", "Neriostene", "Neriolin", "Oleandrigenin 3-O-\u03b1-L-oleandroside"], "SMILES": "OC12C(C)(C(C(OC(C)=O)C1)C3=CC(=O)OC3)CCC4C2CCC5C4(C)CCC(OC6CC(OC)C(O)C(C)O6)C5", "physical_data": {"Molecular Weight": "576.72", "Molecular Formula": "C32H48O9", "Melting Point": "250 \u00b0C"}}