{"cas_no": "465-74-7", "cn_name": "QUINOVIC ACID", "en_name": ["Quinovic acid", "Urs-12-ene-27,28-dioic acid, 3-hydroxy-, (3\u03b2)-", "Urs-12-ene-27,28-dioic acid, 3\u03b2-hydroxy-", "(3\u03b2)-3-Hydroxyurs-12-ene-27,28-dioic acid", "Chinovic acid", "Quinovaic acid", "Quinovic acid", "3\u03b2-Hydroxyurs-12-ene-27,28-dioic acid"], "SMILES": "C(O)(=O)C12C(C3C(C(O)=O)(CC1)CCC(C)C3C)=CCC4C2(C)CCC5C4(C)CCC(O)C5(C)C", "physical_data": {"Molecular Weight": "486.68", "Molecular Formula": "C30H46O5", "Melting Point": "297 \u00b0C (decomp)"}}