{"cas_no": "465-11-2", "cn_name": "\u65e5\u672c\u87fe\u870d\u6bd2\u82f7\u5143", "en_name": ["Gamabufotalin", "Bufa-20,22-dienolide, 3,11,14-trihydroxy-, (3\u03b2,5\u03b2,11\u03b1)-", "Gamabufotalin", "5\u03b2-Bufa-20,22-dienolide, 3\u03b2,11\u03b1,14-trihydroxy-", "(3\u03b2,5\u03b2,11\u03b1)-3,11,14-Trihydroxybufa-20,22-dienolide", "Gamabufagin", "Gamabufogenin", "Gammabufotalin", "NSC 90384"], "SMILES": "CC12C(O)(C3C(C(O)C1)C4(C)C(CC3)CC(O)CC4)CCC2C=5C=CC(=O)OC5", "physical_data": {"Molecular Weight": "402.52", "Molecular Formula": "C24H34O5", "Melting Point": "254 \u00b0C"}}