{"cas_no": "4650-60-6", "cn_name": "\u5f02\u786b\u6c22\u9178\u7ce0\u916f", "en_name": ["2-(Isothiocyanatomethyl)furan", "Furan, 2-(isothiocyanatomethyl)-", "Isothiocyanic acid, furfuryl ester", "2-(Isothiocyanatomethyl)furan", "2-Furfuryl isothiocyanate", "Furfuryl isothiocyanate", "2-Furylmethyl isothiocyanate", "2-Furanylmethyl isothiocyanate"], "SMILES": "C(N=C=S)C1=CC=CO1", "physical_data": {"Molecular Weight": "139.18", "Molecular Formula": "C6H5NOS", "Boiling Point": "43-48 \u00b0C @ Press: 12 Torr"}}