{"cas_no": "46503-52-0", "cn_name": "2'-(1H-\u54aa\u5511-1-\u57fa)-2,4-\u4e8c\u6c2f\u82ef\u4e59\u916e", "en_name": ["1-(2,4-Dichlorophenyl)-2-(1H-imidazol-1-yl)ethanone", "Ethanone, 1-(2,4-dichlorophenyl)-2-(1H-imidazol-1-yl)-", "1-(2,4-Dichlorophenyl)-2-(1H-imidazol-1-yl)ethanone", "1-(2,4-Dichlorophenacyl)imidazole", "2\u2032,4\u2032-Dichloro-2-(imidazol-1-yl)acetophenone", "1-(2,4-Dichlorobenzoylmethyl)imidazole", "1-(2,4-Dichlorophenyl)-2-(1H-imidazolyl)ethanone", "1-(2,4-Dichlorophenyl)-2-imidazol-1-ylethanone", "2,4-Dichlorophenyl (1,3-imidazole-1-yl)methyl ketone"], "SMILES": "C(CN1C=CN=C1)(=O)C2=C(Cl)C=C(Cl)C=C2", "physical_data": {"Molecular Weight": "255.10", "Molecular Formula": "C11H8Cl2N2O", "Melting Point": "76-78 \u00b0C"}}