{"cas_no": "4651-91-6", "cn_name": "2-\u6c28\u57fa-3-\u8148\u57fa-4,5,6,7--\u56db\u6c22\u82ef\u5e76[B]\u567b\u5429", "en_name": ["2-Amino-4,5,6,7-tetrahydrobenzo[b]thiophene-3-carbonitrile", "Benzo[b]thiophene-3-carbonitrile, 2-amino-4,5,6,7-tetrahydro-", "2-Amino-4,5,6,7-tetrahydrobenzo[b]thiophene-3-carbonitrile", "2-Amino-3-cyano-4,5,6,7-tetrahydrobenzo[b]thiophene", "2-Amino-3-cyano-4,5-tetramethylenethiophene", "NSC 86907", "2-Amino-4,5,6,7-tetrahydro-4H-benzo[b]thiophene-3-carbonitrile", "2-Amino-4,5,6,7-tetrahydro-1-benzothiophene-3-carbonitrile", "2-Amino-4,5,6,7-tetrahydrobenzothiophene-3-carbonitrile"], "SMILES": "C(#N)C=1C2=C(SC1N)CCCC2", "physical_data": {"Molecular Weight": "178.25", "Molecular Formula": "C9H10N2S", "Melting Point": "147-148 \u00b0C"}}