{"cas_no": "4651-81-4", "cn_name": "2-\u6c28\u57fa\u567b\u5429-3-\u7fa7\u9178\u7532\u916f", "en_name": ["Methyl 2-amino-3-thiophenecarboxylate", "3-Thiophenecarboxylic acid, 2-amino-, methyl ester", "Methyl 2-amino-3-thiophenecarboxylate", "2-Amino-3-methoxycarbonylthiophene", "2-Amino-3-carbomethoxythiophene", "2-Amino-3-thiophenecarboxylic acid methyl ester", "NSC 523742"], "SMILES": "C(OC)(=O)C1=C(N)SC=C1", "physical_data": {"Molecular Weight": "157.19", "Molecular Formula": "C6H7NO2S", "Melting Point": "77-78 \u00b0C"}}