{"cas_no": "4651-67-6", "cn_name": "3\u0391-\u7f9f\u57fa-7-\u6c27\u4ee3-5\u0392-\u80c6\u70f7\u9178", "en_name": ["7-Ketolithocholic acid", "Cholan-24-oic acid, 3-hydroxy-7-oxo-, (3\u03b1,5\u03b2)-", "5\u03b2-Cholan-24-oic acid, 3\u03b1-hydroxy-7-oxo-", "5\u03b2-Cholanic acid, 3\u03b1-hydroxy-7-oxo-", "(3\u03b1,5\u03b2)-3-Hydroxy-7-oxocholan-24-oic acid", "3\u03b1-Hydroxy-7-oxo-5\u03b2-cholanoic acid", "7-Ketochenodeoxycholic acid", "7-Ketolithocholic acid", "7-Oxolithocholic acid", "7-Oxo-3\u03b1-hydroxycholan-24-oic acid", "3\u03b1-Hydroxy-7-oxo-5\u03b2-cholanic acid", "5\u03b2-Cholanic acid-3\u03b1-ol-7-one", "3\u03b1-Hydroxy-7-oxo-5\u03b2-cholan-24-oic acid", "Nutriacholic acid", "NSC 226118", "7-keto-Lithocholic acid", "3\u03b1-Hydroxy-7-oxo-5\u03b2-cholic acid", "3\u03b1-Hydroxy-7-keto-5\u03b2-cholanic acid", "7K-LCA", "3\u03b1-Hydroxy-7-keto-5\u03b2-cholan-24-oic acid", "keto-Lithocholic acid"], "SMILES": "CC12C(C3C(C4(C)C(CC3=O)CC(O)CC4)CC1)CCC2C(CCC(O)=O)C", "physical_data": {"Molecular Weight": "390.56", "Molecular Formula": "C24H38O4", "Melting Point": "202-203 \u00b0C"}}