{"cas_no": "4651-94-9", "cn_name": "2-\u6c28\u57fa-3-\u8148\u57fa-4,5-\u4e8c\u7532\u57fa\u567b\u5429", "en_name": ["2-Amino-3-cyano-4,5-dimethylthiophene", "3-Thiophenecarbonitrile, 2-amino-4,5-dimethyl-", "2-Amino-4,5-dimethyl-3-thiophenecarbonitrile", "2-Amino-3-cyano-4,5-dimethylthiophene", "NSC 153327", "2,3-Dimethyl-4-cyano-5-aminothiophene"], "SMILES": "C(#N)C=1C(C)=C(C)SC1N", "physical_data": {"Molecular Weight": "152.22", "Molecular Formula": "C7H8N2S", "Melting Point": "141-142 \u00b0C"}}