{"cas_no": "4651-82-5", "cn_name": "2-\u6c28\u57fa\u567b\u5429-3-\u7532\u8148", "en_name": ["2-Aminothiophene-3-carbonitrile", "3-Thiophenecarbonitrile, 2-amino-", "2-Amino-3-thiophenecarbonitrile", "2-Amino-3-cyanothiophene", "2-Aminothiophene-3-carbonitrile"], "SMILES": "C(#N)C1=C(N)SC=C1", "physical_data": {"Molecular Weight": "124.16", "Molecular Formula": "C5H4N2S", "Melting Point": "104-105 \u00b0C"}}