{"cas_no": "4652-27-1", "cn_name": "4-\u7532\u6c27\u57fa-3-\u4e01\u70ef-2-\u916e", "en_name": ["4-Methoxy-3-buten-2-one", "3-Buten-2-one, 4-methoxy-", "4-Methoxy-3-buten-2-one", "1-Methoxy-1-buten-3-one", "NSC 66263"], "SMILES": "C(C(C)=O)=COC", "physical_data": {"Molecular Weight": "100.12", "Molecular Formula": "C5H8O2", "Boiling Point": "54-56 \u00b0C @ Press: 10 Torr", "Density": "0.9973 g/cm\u00b3 @ Temp: 20 \u00b0C"}}