{"cas_no": "4653-11-6", "cn_name": "4-\uff082-\u567b\u55ef\u57fa\uff09\u4e01\u9178", "en_name": ["2-Thiophenebutanoic acid", "2-Thiophenebutanoic acid", "2-Thiophenebutyric acid", "4-(2-Thienyl)butyric acid", "4-(2-Thienyl)butanoic acid", "4-Thiophen-2-ylbutyric acid", "4-(Thiophen-2-yl)butanoic acid"], "SMILES": "C(CCC(O)=O)C1=CC=CS1", "physical_data": {"Molecular Weight": "170.23", "Molecular Formula": "C8H10O2S", "Boiling Point": "130-134 \u00b0C @ Press: 1.5 Torr", "Melting Point": "13.5-15 \u00b0C", "Density": "1.184 g/cm\u00b3 @ Temp: 19 \u00b0C"}}