{"cas_no": "4653-08-1", "cn_name": "3-(2-\u567b\u5429\u7532\u57fa)\u4e19\u9178", "en_name": ["\u03b3-Oxo-2-thiophenebutanoic acid", "2-Thiophenebutanoic acid, \u03b3-oxo-", "2-Thiophenebutyric acid, \u03b3-oxo-", "\u03b3-Oxo-2-thiophenebutanoic acid", "3-(2-Thenoyl)propionic acid", "\u03b2-(2-Thenoyl)propionic acid", "4-Oxo-4-(2-thienyl)butyric acid", "\u03b2-(\u03b1-Thenoyl)propionic acid", "3-(2-Thienoyl)propionic acid", "NSC 31635", "NSC 9624", "4-Oxo-4-(thiophen-2-yl)butyric acid", "3-(Thiophene-2-carbonyl)propionic acid", "4-Oxo-4-(thiophen-2-yl)butanoic acid", "4-Oxo-4-(thien-2-yl)butanoic acid", "3-(Thien-2-oyl)propanoic acid", "4-(2-Thienyl)-4-oxobutanoic acid"], "SMILES": "C(CCC(O)=O)(=O)C1=CC=CS1", "physical_data": {"Molecular Weight": "184.21", "Molecular Formula": "C8H8O3S", "Melting Point": "119-120 \u00b0C"}}