{"cas_no": "4654-39-1", "cn_name": "4-\u6eb4\u82ef\u4e59\u9187", "en_name": ["2-(4-Bromophenyl)ethanol", "Benzeneethanol, 4-bromo-", "Phenethyl alcohol, p-bromo-", "4-Bromobenzeneethanol", "2-(4-Bromophenyl)ethanol", "4-Bromophenethyl alcohol", "p-Bromophenethyl alcohol", "2-(p-Bromophenyl)ethanol", "4-(2-Hydroxyethyl)-1-bromobenzene", "4-Bromophenethanol", "2-(4-Bromophenyl)ethan-1-ol"], "SMILES": "C(CO)C1=CC=C(Br)C=C1", "physical_data": {"Molecular Weight": "201.06", "Molecular Formula": "C8H9BrO", "Boiling Point": "144.5-145 \u00b0C @ Press: 15 Torr", "Melting Point": "36-38 \u00b0C", "Density": "1.4845 g/cm\u00b3 @ Temp: 16.5 \u00b0C"}}