{"cas_no": "465529-57-1", "cn_name": "5-\u6eb4-1-\u7532\u57fa-1H-\u5432\u5511", "en_name": ["5-Bromo-1-methyl-1H-indazole", "1H-Indazole, 5-bromo-1-methyl-", "5-Bromo-1-methyl-1H-indazole", "1-Methyl-5-bromo-1H-indazole"], "SMILES": "CN1C=2C(C=N1)=CC(Br)=CC2", "physical_data": {"Molecular Weight": "211.06", "Molecular Formula": "C8H7BrN2", "Melting Point": "111-112 \u00b0C"}}