{"cas_no": "4655-34-9", "cn_name": "\u7532\u57fa\u4e19\u70ef\u9178\u5f02\u4e19\u916f(\u542b\u7a33\u5b9a\u5242\u7532\u6c27\u57fa\u6c22\u918c)", "en_name": ["Isopropyl methacrylate", "2-Propenoic acid, 2-methyl-, 1-methylethyl ester", "Methacrylic acid, isopropyl ester", "Isopropyl methacrylate", "Isopropyl 2-methyl-2-propenoate", "1-Methylethyl 2-methylpropenoate", "Isopropyl 2-methylacrylate", "NSC 32625"], "SMILES": "C(OC(C)C)(C(C)=C)=O", "physical_data": {"Molecular Weight": "128.17", "Molecular Formula": "C7H12O2", "Boiling Point": "125 \u00b0C", "Density": "0.8869 g/cm\u00b3 @ Temp: 20 \u00b0C"}}