{"cas_no": "4657-93-6", "cn_name": "1,2-DIHYDROACENAPHTHYLEN-5-AMINE", "en_name": ["5-Aminoacenaphthene", "5-Acenaphthylenamine, 1,2-dihydro-", "5-Acenaphthenamine", "1,2-Dihydro-5-acenaphthylenamine", "5-Aminoacenaphthene", "NSC 137427"], "SMILES": "NC1=C2C3=C(CCC3=CC=C2)C=C1", "physical_data": {"Molecular Weight": "169.22", "Molecular Formula": "C12H11N", "Melting Point": "108 \u00b0C"}}