{"cas_no": "4657-58-3", "cn_name": "\u73af\u6728\u83e0\u841d\u70f7\u9187", "en_name": ["Cycloartanol", "9,19-Cyclolanostan-3-ol, (3\u03b2)-", "Cycloartanol", "9,19-Cyclo-9\u03b2-lanostan-3\u03b2-ol", "(3\u03b2)-9,19-Cyclolanostan-3-ol", "9,19-Cyclolanostan-3\u03b2-ol", "NSC 226173", "3\u03b2-Cycloartanol"], "SMILES": "CC12C3C4(C5(C4)C(C(C)(C)C(O)CC5)CC3)CCC1(C)C(C(CCCC(C)C)C)CC2", "physical_data": {"Molecular Weight": "428.73", "Molecular Formula": "C30H52O", "Melting Point": "99-101 \u00b0C (decomp)"}}