{"cas_no": "4658-28-0", "cn_name": "\u53e0\u6c2e\u6d25", "en_name": ["Aziprotryne", "1,3,5-Triazin-2-amine, 4-azido-N-(1-methylethyl)-6-(methylthio)-", "s-Triazine, 2-azido-4-(isopropylamino)-6-(methylthio)-", "4-Azido-N-(1-methylethyl)-6-(methylthio)-1,3,5-triazin-2-amine", "C 7019", "2-Azido-4-isopropylamino-6-methylmercapto-s-triazine", "CIBA C 7019", "Aziprotryne", "2-Azido-4-isopropylamino-6-methylthio-s-triazine", "2-Azido-4-isopropylamino-6-methylthio-1,3,5-triazine", "Mesoranil", "2-Methylthio-4-azido-6-isopropylamino-1,3,5-triazine", "Mezuron", "Aziprotryn", "Brasoran", "4-Azido-N-isopropyl-6-(methylthio)-1,3,5-triazin-2-amine"], "SMILES": "N(C(C)C)C=1N=C(N=[N+]=[N-])N=C(SC)N1", "physical_data": {"Molecular Weight": "", "Molecular Formula": "C7H11N7S", "Melting Point": "92-94 \u00b0C"}}