{"cas_no": "4659-47-6", "cn_name": "2,3,6-\u4e09\u6c2f\u6eb4\u82ef\u915a\u6c27\u916f", "en_name": ["2,3,6-Trichlorobenzaldehyde", "Benzaldehyde, 2,3,6-trichloro-", "2,3,6-Trichlorobenzaldehyde"], "SMILES": "C(=O)C1=C(Cl)C(Cl)=CC=C1Cl", "physical_data": {"Molecular Weight": "209.46", "Molecular Formula": "C7H3Cl3O", "Melting Point": "86-87 \u00b0C"}}