{"cas_no": "4659-45-4", "cn_name": "2,6-\u4e8c\u6c2f\u82ef\u7532\u9170\u6c2f", "en_name": ["2,6-Dichlorobenzoyl chloride", "Benzoyl chloride, 2,6-dichloro-", "2,6-Dichlorobenzoyl chloride"], "SMILES": "C(Cl)(=O)C1=C(Cl)C=CC=C1Cl", "physical_data": {"Molecular Weight": "209.46", "Molecular Formula": "C7H3Cl3O", "Boiling Point": "92-103 \u00b0C @ Press: 0.7 Torr", "Melting Point": "208-210 \u00b0C"}}