{"cas_no": "466-37-5", "cn_name": "2,2,2-\u4e09\u82ef\u57fa\u82ef\u4e59\u916e", "en_name": ["1,2,2,2-Tetraphenylethanone", "Ethanone, 1,2,2,2-tetraphenyl-", "\u03b2-Benzopinacolone", "Acetophenone, 2,2,2-triphenyl-", "Ethanone, tetraphenyl-", "1,2,2,2-Tetraphenylethanone", "\u03c9,\u03c9,\u03c9-Triphenylacetophenone", "2,2,2-Triphenylacetophenone", "Phenyl trityl ketone", "Tetraphenylethanone", "1,2,2,2-Tetraphenyl-1-ethanone", "Benzopinacolone", "NSC 194", "NSC 2820"], "SMILES": "C(C(=O)C1=CC=CC=C1)(C2=CC=CC=C2)(C3=CC=CC=C3)C4=CC=CC=C4", "physical_data": {"Molecular Weight": "348.44", "Molecular Formula": "C26H20O", "Melting Point": "183-184 \u00b0C"}}