{"cas_no": "466-06-8", "cn_name": "\u539f\u6d77\u8471\u7519A", "en_name": ["Proscillaridin", "Bufa-4,20,22-trienolide, 3-[(6-deoxy-\u03b1-L-mannopyranosyl)oxy]-14-hydroxy-, (3\u03b2)-", "Proscillaridin A", "(3\u03b2)-3-[(6-Deoxy-\u03b1-L-mannopyranosyl)oxy]-14-hydroxybufa-4,20,22-trienolide", "Proscillaridin", "Talusin", "Transvaalin, degluco-", "3\u03b2-[(6-Deoxy-\u03b1-L-mannopyranosyl)oxy]-14-hydroxybufa-4,20,22-trienolide", "14-Hydroxy-3\u03b2-(rhamnosyloxy)bufa-4,20,22-trienolide", "3\u03b2-Rhamnosido-14\u03b2-hydroxy-\u03944,20,22-bufatrienolide", "Desglucotransvaaline", "Scillarenin 3\u03b2-rhamnoside", "Caradrin", "Cardion", "Carmazon", "Herzo Proscillan", "Prostosin", "Protasin", "Purosin-TC", "Sandoscill", "Scillacrist", "Solestril", "Simeon", "Stellarid", "Urgilan", "Cardiovite", "PSC-801", "Coratol", "Procilan", "Procardin", "Tradenal", "Proscillan", "Wirnesin", "Proszine", "Talucard", "A 32686", "Desglucotrnasvaaline", "NSC 7521", "Proslladin", "BRD-A34806832", "MeSH ID: D011442"], "SMILES": "OC12C3C(C4(C)C(CC3)=CC(OC5C(O)C(O)C(O)C(C)O5)CC4)CCC1(C)C(CC2)C=6C=CC(=O)OC6", "physical_data": {"Molecular Weight": "530.65", "Molecular Formula": "C30H42O8", "Melting Point": "221 \u00b0C"}}