{"cas_no": "466-09-1", "cn_name": "\u4e4c\u6c99\u7519\u5143", "en_name": ["Uzarigenin", "Card-20(22)-enolide, 3,14-dihydroxy-, (3\u03b2,5\u03b1)-", "Uzarigenin", "5\u03b1-Card-20(22)-enolide, 3\u03b2,14-dihydroxy-", "(3\u03b2,5\u03b1)-3,14-Dihydroxycard-20(22)-enolide", "Urarigenin", "Odorigeni", "NSC 119993", "NSC 277290"], "SMILES": "OC12C3C(C4(C)C(CC3)CC(O)CC4)CCC1(C)C(CC2)C=5COC(=O)C5", "physical_data": {"Molecular Weight": "374.51", "Molecular Formula": "C23H34O4", "Melting Point": "240-256 \u00b0C"}}