{"cas_no": "466-77-3", "cn_name": "\u523a\u6850\u9748\u9e7c", "en_name": ["Erythraline", "Erythrinan, 1,2,6,7-tetradehydro-3-methoxy-15,16-[methylenebis(oxy)]-, (3\u03b2)-", "Erythraline", "1H-[1,3]Dioxolo[4,5-g]indolo[7a,1-a]isoquinoline, erythrinan deriv.", "(3\u03b2)-1,2,6,7-Tetradehydro-3-methoxy-15,16-[methylenebis(oxy)]erythrinan", "(+)-Erythraline", "Erythralin"], "SMILES": "O(C)C1CC23C=4C(=CC5=C(C4)OCO5)CCN2CC=C3C=C1", "physical_data": {"Molecular Weight": "297.35", "Molecular Formula": "C18H19NO3", "Melting Point": "106-107 \u00b0C"}}