{"cas_no": "466-07-9", "cn_name": "\u9ec4\u5939\u6b21\u7519\u4e59", "en_name": ["Neriifolin", "Card-20(22)-enolide, 3-[(6-deoxy-3-O-methyl-\u03b1-L-glucopyranosyl)oxy]-14-hydroxy-, (3\u03b2,5\u03b2)-", "Neriifolin", "(3\u03b2,5\u03b2)-3-[(6-Deoxy-3-O-methyl-\u03b1-L-glucopyranosyl)oxy]-14-hydroxycard-20(22)-enolide", "NSC 123976", "17\u03b2-Neriifolin"], "SMILES": "OC12C3C(C4(C)C(CC3)CC(OC5C(O)C(OC)C(O)C(C)O5)CC4)CCC1(C)C(CC2)C6=CC(=O)OC6", "physical_data": {"Molecular Weight": "534.68", "Molecular Formula": "C30H46O8", "Melting Point": "221 \u00b0C"}}