{"cas_no": "466-26-2", "cn_name": "\u96ea\u4e0a\u4e00\u679d\u84bf\u4e59\u7d20", "en_name": ["Neoline", "Aconitane-1,8,14-triol, 20-ethyl-6,16-dimethoxy-4-(methoxymethyl)-, (1\u03b1,6\u03b1,14\u03b1,16\u03b2)-", "Neoline", "Bullatine B", "11aH-12,3,6a-Ethanylylidene-7,9-methanonaphth[2,3-b]azocine, aconitane-1,8,14-triol deriv.", "(1\u03b1,6\u03b1,14\u03b1,16\u03b2)-20-Ethyl-6,16-dimethoxy-4-(methoxymethyl)aconitane-1,8,14-triol", "Dideacetyldelphisine", "Xuan-Wu 3"], "SMILES": "OC1C23C4C(COC)(CN(CC)C2C(C4OC)C5(O)C6C3CC(C6O)C(OC)C5)CC1", "physical_data": {"Molecular Weight": "437.57", "Molecular Formula": "C24H39NO6", "Melting Point": "153-154 \u00b0C"}}