{"cas_no": "4660-80-4", "cn_name": "2,3-\u73af\u6c27\u4e19\u9178\u4e59\u916f", "en_name": ["Ethyl glycidate", "2-Oxiranecarboxylic acid, ethyl ester", "Glycidic acid, ethyl ester", "Oxiranecarboxylic acid, ethyl ester", "Ethyl glycidate", "Ethyl oxiranecarboxylate", "(Ethoxycarbonyl)oxirane", "Ethyl 2-oxiranecarboxylate", "Oxirane-2-carboxylic acid ethyl ester"], "SMILES": "C(OCC)(=O)C1CO1", "physical_data": {"Molecular Weight": "116.12", "Molecular Formula": "C5H8O3", "Boiling Point": "88-90 \u00b0C @ Press: 60 Torr", "Density": "1.085 g/cm\u00b3 @ Temp: 20 \u00b0C"}}