{"cas_no": "4663-97-2", "cn_name": "\u5421\u5576-2,6-\u4e8c\u7532\u9170\u80fa", "en_name": ["2,6-Pyridinedicarboxamide", "2,6-Pyridinedicarboxamide"], "SMILES": "C(N)(=O)C=1N=C(C(N)=O)C=CC1", "physical_data": {"Molecular Weight": "165.15", "Molecular Formula": "C7H7N3O2", "Melting Point": "295.5-297 \u00b0C"}}