{"cas_no": "4663-94-9", "cn_name": "\u5421\u5576-2,3-\u4e8c\u7532\u9170\u80fa", "en_name": ["2,3-Pyridinedicarboxamide", "2,3-Pyridinedicarboxamide", "Quinolinamide"], "SMILES": "C(N)(=O)C1=C(C(N)=O)N=CC=C1", "physical_data": {"Molecular Weight": "165.15", "Molecular Formula": "C7H7N3O2", "Melting Point": "209 \u00b0C"}}