{"cas_no": "4664-00-0", "cn_name": "2\uff0c3-\u5421\u5576\u4e8c\u9170\u4e9a\u80fa", "en_name": ["5H-Pyrrolo[3,4-b]pyridine-5,7(6H)-dione", "5H-Pyrrolo[3,4-b]pyridine-5,7(6H)-dione", "2,3-Pyridinedicarboximide", "Quinolinimide", "Pyrrolo[3,4-b]pyridine-5,7-dione", "2,3-Pyridinecarboximide", "NSC 405554"], "SMILES": "O=C1C=2C(C(=O)N1)=NC=CC2", "physical_data": {"Molecular Weight": "148.12", "Molecular Formula": "C7H4N2O2", "Melting Point": "230-231 \u00b0C"}}