{"cas_no": "4664-16-8", "cn_name": "2,6-\u4e8c\u7f9f\u57fa-4-\u7532\u57fa\u5421\u5576", "en_name": ["6-Hydroxy-4-methyl-2-pyridone", "2(1H)-Pyridinone, 6-hydroxy-4-methyl-", "2,6-Pyridinediol, 4-methyl-", "6-Hydroxy-4-methyl-2(1H)-pyridinone", "4-Picoline-2,6-diol", "4-Methyl-6-hydroxypyrid-2-one", "2,6-Dihydroxy-4-methylpyridine", "4-Methyl-2,6-pyridinediol", "6-Hydroxy-4-methyl-2-pyridone", "2-Hydroxy-4-methyl-6-pyridinone", "NSC 110280"], "SMILES": "CC1=CC(=O)NC(O)=C1", "physical_data": {"Molecular Weight": "125.13", "Molecular Formula": "C6H7NO2", "Melting Point": "194 \u00b0C"}}