{"cas_no": "4664-01-1", "cn_name": "3,4-\u5421\u5576\u4e8c\u9170\u4e9a\u80fa", "en_name": ["1H-Pyrrolo[3,4-c]pyridine-1,3(2H)-dione", "1H-Pyrrolo[3,4-c]pyridine-1,3(2H)-dione", "3,4-Pyridinedicarboximide", "Cinchomeronimide", "3,4-Pyridinecarboxyimide", "NSC 524479", "Pyrrolo[3,4-c]pyridine-1,3-dione", "1H,2H,3H-Pyrrolo[3,4-c]pyridine-1,3-dione"], "SMILES": "O=C1C=2C(C(=O)N1)=CN=CC2", "physical_data": {"Molecular Weight": "148.12", "Molecular Formula": "C7H4N2O2", "Melting Point": "225-260 \u00b0C (decomp)"}}