{"cas_no": "4666-84-6", "cn_name": "\u67f3\u6749\u4e8c\u9187", "en_name": ["Cryptomeridiol", "2-Naphthalenemethanol, decahydro-8-hydroxy-\u03b1,\u03b1,4a,8-tetramethyl-, (2R,4aR,8R,8aR)-", "5\u03b2,7\u03b2H,10\u03b1-Eudesmane-4,11-diol", "2-Naphthalenemethanol, decahydro-8-hydroxy-\u03b1,\u03b1,4a,8-tetramethyl-, [2R-(2\u03b1,4a\u03b1,8\u03b2,8a\u03b2)]-", "2-Naphthalenemethanol, 1,2\u03b2,3,4,4a,5,6,7,8,8a\u03b2-decahydro-8\u03b2-hydroxy-\u03b1,\u03b1,4a\u03b1,8-tetramethyl-", "(2R,4aR,8R,8aR)-Decahydro-8-hydroxy-\u03b1,\u03b1,4a,8-tetramethyl-2-naphthalenemethanol", "Cryptomeridiol", "Selina-4,7-diol", "Proximadiol", "Selinane-4\u03b1,11-diol"], "SMILES": "CC12C(CC(C(C)(C)O)CC1)C(C)(O)CCC2", "physical_data": {"Molecular Weight": "240.38", "Molecular Formula": "C15H28O2", "Melting Point": "137.5 \u00b0C"}}