{"cas_no": "4666-16-4", "cn_name": "Z-L-\u8c37\u6c28\u9178 5-\u53d4\u4e01\u57fa-1-(N-\u7425\u73c0\u9170\u4e9a\u80fa)\u916f", "en_name": ["L-Glutamic acid, N-[(phenylmethoxy)carbonyl]-, 5-(1,1-dimethylethyl) 1-(2,5-dioxo-1-pyrrolidinyl) ester", "L-Glutamic acid, N-[(phenylmethoxy)carbonyl]-, 5-(1,1-dimethylethyl) 1-(2,5-dioxo-1-pyrrolidinyl) ester", "Succinimide, N-[(N-carboxy-L-\u03b1-glutamyl)oxy]-, N-benzyl tert-butyl ester", "Pentanoic acid, 5-[(2,5-dioxo-1-pyrrolidinyl)oxy]-5-oxo-4-[[(phenylmethoxy)carbonyl]amino]-, 1,1-dimethylethyl ester, (S)-", "Succinimide, N-[(N-carboxy-L-\u03b1-glutamyl)oxy]-, benzyl tert-butyl ester", "Pentanoic acid, 5-[(2,5-dioxo-1-pyrrolidinyl)oxy]-5-oxo-4-[[(phenylmethoxy)carbonyl]amino]-, 1,1-dimethylethyl ester, (4S)-", "L-Glutamic acid, pentanoic acid deriv.", "N-Cbz-L-glutamic acid \u03b3-(tert butyl) \u03b1-(N-hydroxysuccinimidyl) diester"], "SMILES": "O(C(C(CCC(OC(C)(C)C)=O)NC(OCC1=CC=CC=C1)=O)=O)N2C(=O)CCC2=O", "physical_data": {"Molecular Weight": "434.44", "Molecular Formula": "C21H26N2O8", "Melting Point": "86-89 \u00b0C"}}