{"cas_no": "4667-99-6", "cn_name": "\u4e09\u4e59\u6c27\u57fa\u6c2f\u7845\u70f7", "en_name": ["Chlorotriethoxysilane", "Silane, chlorotriethoxy-", "Chlorotriethoxysilane", "Triethoxychlorosilane", "Monochlorotriethoxysilane"], "SMILES": "[Si](OCC)(OCC)(OCC)Cl", "physical_data": {"Molecular Weight": "198.72", "Molecular Formula": "C6H15ClO3Si", "Boiling Point": "156 \u00b0C", "Melting Point": "-51 \u00b0C", "Density": "1.012 g/cm\u00b3 @ Temp: 25 \u00b0C"}}