{"cas_no": "4669-59-4", "cn_name": "\u4e8c(\u4e8c\u7532\u6c28\u57fa)\u4e8c\u7532\u57fa\u7845", "en_name": ["N,N,N\u2032,N\u2032-Tetraethyl-1,1-dimethylsilanediamine", "Silanediamine, N,N,N\u2032,N\u2032-tetraethyl-1,1-dimethyl-", "N,N,N\u2032,N\u2032-Tetraethyl-1,1-dimethylsilanediamine", "Bis(diethylamino)dimethylsilane", "NSC 379582", "Dimethyldi(N,N-diethylamino)silane"], "SMILES": "[Si](N(CC)CC)(N(CC)CC)(C)C", "physical_data": {"Molecular Weight": "202.41", "Molecular Formula": "C10H26N2Si", "Boiling Point": "192-195 \u00b0C", "Density": "0.826 g/cm\u00b3"}}