{"cas_no": "467-77-6", "cn_name": "\u72d7\u7259\u82b1\u5b9a\u78b1", "en_name": ["(-)-Coronaridine", "Ibogamine-18-carboxylic acid, methyl ester", "Coronaridine", "6,9-Methano-5H-pyrido[1\u2032,2\u2032:1,2]azepino[4,5-b]indole, ibogamine-18-carboxylic acid deriv.", "(-)-Coronaridine", "Coronaridin", "NSC 127490"], "SMILES": "C(OC)(=O)C12C3N(CC(C1)CC3CC)CCC4=C2NC=5C4=CC=CC5", "physical_data": {"Molecular Weight": "338.44", "Molecular Formula": "C21H26N2O2", "Melting Point": "92-93 \u00b0C"}}