{"cas_no": "467-63-0", "cn_name": "\u6eb6\u5242\u7d2b 9 \u53f7", "en_name": ["Methylrosaniline", "Benzenemethanol, 4-(dimethylamino)-\u03b1,\u03b1-bis[4-(dimethylamino)phenyl]-", "Methanol, tris[p-(dimethylamino)phenyl]-", "4-(Dimethylamino)-\u03b1,\u03b1-bis[4-(dimethylamino)phenyl]benzenemethanol", "C.I. Basic Violet 3, carbinol", "4,4\u2032,4\u2032\u2032-Dimethylaminotriphenylcarbinol", "Methylrosaniline", "Tri(p-dimethylaminophenyl)methanol", "Crystal Violet carbinol", "Crystal violet carbinol base", "C.I. Solvent Violet 9", "C.I. 42555B", "Aizen Crystal Violet Base", "Violet 5BNO Base", "Violet 5BO Base", "Waxoline Violet 10B", "Crystal Violet base", "C.I. 42555:1", "1,1,1-Tris(4-dimethylaminophenyl)methanol", "Tris(4-dimethylaminophenyl)-methanol", "MMV 665941"], "SMILES": "C(O)(C1=CC=C(N(C)C)C=C1)(C2=CC=C(N(C)C)C=C2)C3=CC=C(N(C)C)C=C3", "physical_data": {"Molecular Weight": "389.53", "Molecular Formula": "C25H31N3O", "Melting Point": "188 \u00b0C (polymorph)"}}