{"cas_no": "467-81-2", "cn_name": "\u5ca9\u8328\u70ef A", "en_name": ["(22\u03b2)-22-[[(2Z)-2-Methyl-1-oxo-2-buten-1-yl]oxy]-3-oxoolean-12-en-28-oic acid", "Olean-12-en-28-oic acid, 22-[[(2Z)-2-methyl-1-oxo-2-buten-1-yl]oxy]-3-oxo-, (22\u03b2)-", "Olean-12-en-28-oic acid, 22\u03b2-hydroxy-3-oxo-, 2-methylcrotonate, (Z)-", "Olean-12-en-28-oic acid, 22-[(2-methyl-1-oxo-2-butenyl)oxy]-3-oxo-, [22\u03b2(Z)]-", "Rehmannic acid", "Olean-12-en-28-oic acid, 22-[[(2Z)-2-methyl-1-oxo-2-butenyl]oxy]-3-oxo-, (22\u03b2)-", "(22\u03b2)-22-[[(2Z)-2-Methyl-1-oxo-2-buten-1-yl]oxy]-3-oxoolean-12-en-28-oic acid", "Lantadene A"], "SMILES": "C(O)(=O)C12C(C=3C(C)(CC1)C4(C)C(CC3)C5(C)C(CC4)C(C)(C)C(=O)CC5)CC(C)(C)CC2OC(C(=CC)C)=O", "physical_data": {"Molecular Weight": "552.78", "Molecular Formula": "C35H52O5", "Melting Point": "284-286 \u00b0C"}}