{"cas_no": "467-55-0", "cn_name": "\u6d77\u67ef\u5409\u5b81", "en_name": ["(+)-Hecogenin", "Spirostan-12-one, 3-hydroxy-, (3\u03b2,5\u03b1,25R)-", "5\u03b1-Spirostan-12-one, 3\u03b2-hydroxy-, (25R)-", "5\u03b1,25D-Spirostan-12-one, 3\u03b2-hydroxy-", "(3\u03b2,5\u03b1,25R)-3-Hydroxyspirostan-12-one", "Hecogenin", "Hocogenin", "(25R)-3\u03b2-Hydroxy-5\u03b1-spirostan-12-one", "12-Oxotigogenin", "Gekogenin", "(+)-Hecogenin", "NSC 115921", "Hekogenin", "25(R)-3\u03b2-Hydroxyspirostan-12-one", "3\u03b2-Hydroxy-5\u03b1-hecogenin", "(25R)-3b-Hydroxy-5a-spirostan-12-one"], "SMILES": "CC12C3C(CC1C4C(CC2=O)C5(C)C(CC4)CC(O)CC5)OC6(C3C)CCC(C)CO6", "physical_data": {"Molecular Weight": "430.62", "Molecular Formula": "C27H42O4", "Melting Point": "266.5 \u00b0C"}}