{"cas_no": "467-69-6", "cn_name": "9-\u7f9f\u57fa-9-\u82b4\u7532\u9178", "en_name": ["Flurenol", "9H-Fluorene-9-carboxylic acid, 9-hydroxy-", "Fluorene-9-carboxylic acid, 9-hydroxy-", "9-Hydroxy-9H-fluorene-9-carboxylic acid", "9-Hydroxyfluorene-9-carboxylic acid", "Flurenol", "Flurecol", "9-Carboxy-9-hydroxyfluorene", "9-Hydroxy-9-carboxyfluorene", "NSC 97576"], "SMILES": "C(O)(=O)C1(O)C=2C(C=3C1=CC=CC3)=CC=CC2", "physical_data": {"Molecular Weight": "226.23", "Molecular Formula": "C14H10O3", "Melting Point": "165 \u00b0C (decomp)"}}