{"cas_no": "467-62-9", "cn_name": "\u526f\u54c1\u7ea2\u78b1(\u4e0d\u542b\u5416\u5576\u884d\u751f\u7269)", "en_name": ["Tris(4-aminophenyl)methanol", "Benzenemethanol, 4-amino-\u03b1,\u03b1-bis(4-aminophenyl)-", "Methanol, tris(p-aminophenyl)-", "Parafuchsin carbinol", "4-Amino-\u03b1,\u03b1-bis(4-aminophenyl)benzenemethanol", "Tris(p-aminophenyl)methanol", "Tris(4-aminophenyl)methanol"], "SMILES": "C(O)(C1=CC=C(N)C=C1)(C2=CC=C(N)C=C2)C3=CC=C(N)C=C3", "physical_data": {"Molecular Weight": "305.37", "Molecular Formula": "C19H19N3O", "Melting Point": "240-243 \u00b0C"}}