{"cas_no": "4670-56-8", "cn_name": "4-\u7532\u57fa\u6c34\u6768\u9178\u7532\u916f", "en_name": ["Benzoic acid, 2-hydroxy-4-methyl-, methyl ester", "Benzoic acid, 2-hydroxy-4-methyl-, methyl ester", "2,4-Cresotic acid, methyl ester", "Methyl 2-hydroxy-p-toluate", "2-Hydroxy-p-toluic acid methyl ester", "Methyl 2-hydroxy-4-methylbenzoate", "2-Hydroxy-4-methylbenzoic acid methyl ester", "Methyl 4-methylsalicylate", "2-(Methoxycarbonyl)-5-methylphenol", "4-Methylsalicylic acid methyl ester"], "SMILES": "C(OC)(=O)C1=C(O)C=C(C)C=C1", "physical_data": {"Molecular Weight": "166.17", "Molecular Formula": "C9H10O3", "Boiling Point": "243 \u00b0C", "Melting Point": "27.5 \u00b0C", "Density": "1.1621 g/cm\u00b3 @ Temp: 0 \u00b0C"}}