{"cas_no": "4670-05-7", "cn_name": "\u8336\u9ec4\u7d20", "en_name": ["Theaflavin", "5H-Benzocyclohepten-5-one, 1,8-bis[(2R,3R)-3,4-dihydro-3,5,7-trihydroxy-2H-1-benzopyran-2-yl]-3,4,6-trihydroxy-", "Theaflavin", "Theaflavine", "5H-Benzocyclohepten-5-one, 3,4,6-trihydroxy-1,8-bis(3\u03b1,5,7-trihydroxy-2\u03b1-chromanyl)-", "5H-Benzocyclohepten-5-one, 1,8-bis(3,4-dihydro-3,5,7-trihydroxy-2H-1-benzopyran-2-yl)-3,4,6-trihydroxy-, [2R-[2\u03b1(2R*,3R*),3\u03b1]]-", "1,8-Bis[(2R,3R)-3,4-dihydro-3,5,7-trihydroxy-2H-1-benzopyran-2-yl]-3,4,6-trihydroxy-5H-benzocyclohepten-5-one", "(-)-Theaflavin", "Theaflavin 1", "Xiayie", "TF 40"], "SMILES": "OC1=C2C(=C(C=C1O)C3OC=4C(CC3O)=C(O)C=C(O)C4)C=C(C=C(O)C2=O)C5OC=6C(CC5O)=C(O)C=C(O)C6", "physical_data": {"Molecular Weight": "564.49", "Molecular Formula": "C29H24O12", "Melting Point": "237-240 \u00b0C (decomp)"}}