{"cas_no": "4670-09-1", "cn_name": "3,5-\u4e8c\u7f9f\u57fa\u82ef\u4e59\u9178", "en_name": ["3,5-Dihydroxyphenylacetic acid", "Benzeneacetic acid, 3,5-dihydroxy-", "Acetic acid, (3,5-dihydroxyphenyl)-", "3,5-Dihydroxybenzeneacetic acid", "3,5-Dihydroxyphenylacetic acid", "2-(3,5-Dihydroxyphenyl)acetic acid"], "SMILES": "C(C(O)=O)C1=CC(O)=CC(O)=C1", "physical_data": {"Molecular Weight": "168.15", "Molecular Formula": "C8H8O4", "Melting Point": "126-127 \u00b0C"}}