{"cas_no": "4670-10-4", "cn_name": "(3,5-\u4e8c\u7532\u6c27\u57fa\u82ef\u57fa)\u4e59\u9178", "en_name": ["(3,5-Dimethoxyphenyl)acetic acid", "Benzeneacetic acid, 3,5-dimethoxy-", "Acetic acid, (3,5-dimethoxyphenyl)-", "3,5-Dimethoxybenzeneacetic acid", "(3,5-Dimethoxyphenyl)acetic acid", "2-(3,5-Dimethoxyphenyl)acetic acid"], "SMILES": "C(C(O)=O)C1=CC(OC)=CC(OC)=C1", "physical_data": {"Molecular Weight": "196.20", "Molecular Formula": "C10H12O4", "Melting Point": "99-100 \u00b0C"}}