{"cas_no": "4671-75-4", "cn_name": "N-\u56db\u7678\u57fa\u78f7\u9178", "en_name": ["Tetradecylphosphonic acid", "Phosphonic acid, P-tetradecyl-", "Phosphonic acid, tetradecyl-", "P-Tetradecylphosphonic acid", "1-Tetradecanephosphonic acid", "n-Tetradecylphosphonic acid", "Tetradecylphosphonic acid", "Tetradecanephosphonic acid", "TDPA", "1-Tetradecylphosphonic acid"], "SMILES": "C(CCCCCCCCCCC)CCP(=O)(O)O", "physical_data": {"Molecular Weight": "278.37", "Molecular Formula": "C14H31O3P", "Melting Point": "97-98 \u00b0C"}}