{"cas_no": "4672-38-2", "cn_name": "\u4e19\u57fa\u81a6\u9178", "en_name": ["Propylphosphonic acid", "Phosphonic acid, P-propyl-", "Phosphonic acid, propyl-", "P-Propylphosphonic acid", "1-Propanephosphonic acid", "1-Propylphosphonic acid", "Propylphosphonic acid", "NIA 10656", "Dihydrogen propylphosphonate", "Propanephosphonic acid", "PPA", "n-Propylphosphonic acid", "Propylphosphonic acid anhydride"], "SMILES": "C(P(=O)(O)O)CC", "physical_data": {"Molecular Weight": "124.08", "Molecular Formula": "C3H9O3P", "Melting Point": "73.8 \u00b0C"}}