{"cas_no": "4672-30-4", "cn_name": "\u82ef\u4e59\u57fa\u78f7\u9178", "en_name": ["Phenylethanephosphonic acid", "Phosphonic acid, P-(2-phenylethyl)-", "Phosphonic acid, phenethyl-", "Phosphonic acid, (2-phenylethyl)-", "P-(2-Phenylethyl)phosphonic acid", "Phenylethanephosphonic acid", "Phenethylphosphonic acid", "NSC 140288"], "SMILES": "C(CP(=O)(O)O)C1=CC=CC=C1", "physical_data": {"Molecular Weight": "186.14", "Molecular Formula": "C8H11O3P", "Melting Point": "137-138 \u00b0C"}}