{"cas_no": "4672-49-5", "cn_name": "\u4e8c\u7532\u57fa\u78fa\u9178\u4e59\u70f7", "en_name": ["1,2-Ethanediol, 1,2-dimethanesulfonate", "1,2-Ethanediol, 1,2-dimethanesulfonate", "Ethylene glycol, dimethanesulfonate", "Methanesulfonic acid, ethylene ester", "1,2-Ethanediol, dimethanesulfonate", "Ethylene bis(methanesulfonate)", "NSC 10716", "1,2-Ethanediyl dimethanesulfonate", "1,2-Bis(mesyloxy)ethane", "Ethylene glycol dimesylate", "1,2-Bis(methanesulfonyloxy)ethane", "1,2-Bis(methylsulfonyloxy)ethane", "Ethylene dimethanesulfonate", "Ethane dimethanesulfonate", "NSC 17016", "Ethylene glycol bis(methanesulfonate)", "2-Methylsulfonyloxyethyl methanesulfonate", "2-(Methanesulfonyloxy)ethyl methanesulfonate"], "SMILES": "O(S(C)(=O)=O)CCOS(C)(=O)=O", "physical_data": {"Molecular Weight": "218.25", "Molecular Formula": "C4H10O6S2", "Melting Point": "35-36 \u00b0C", "Density": "1.65 g/cm\u00b3"}}