{"cas_no": "4673-26-1", "cn_name": "\u4e8c\u82ef\u57fa\u6c2f\u5316\u7898\u76d0", "en_name": ["Diphenyleneiodonium chloride", "Dibenziodolium, chloride (1:1)", "Dibenziodolium, chloride", "Dibenziodolium chloride", "Diphenyleneiodonium chloride"], "SMILES": "C1=2C=3C([I+]C1=CC=CC2)=CC=CC3.[Cl-]", "physical_data": {"Molecular Weight": "", "Molecular Formula": "C12H8I.Cl", "Melting Point": "237-240 \u00b0C"}}