{"cas_no": "4674-50-4", "cn_name": "\u5706\u67da\u916e", "en_name": ["(+)-Nootkatone", "2(3H)-Naphthalenone, 4,4a,5,6,7,8-hexahydro-4,4a-dimethyl-6-(1-methylethenyl)-, (4R,4aS,6R)-", "4\u03b2H,5\u03b1-Eremophila-1(10),11-dien-2-one", "Nootkatone", "2(3H)-Naphthalenone, 4,4a,5,6,7,8-hexahydro-4,4a-dimethyl-6-(1-methylethenyl)-, [4R-(4\u03b1,4a\u03b1,6\u03b2)]-", "(4R,4aS,6R)-4,4a,5,6,7,8-Hexahydro-4,4a-dimethyl-6-(1-methylethenyl)-2(3H)-naphthalenone", "(+)-Nootkatone", "Nootkanone", "(4R,4AS,6R)-4,4a-dimethyl-6-(prop-1-en-2-yl)-4,4a,5,6,7,8-hexahydronaphthalen-2(3H)-one"], "SMILES": "CC12C(=CC(=O)CC1C)CCC(C(C)=C)C2", "physical_data": {"Molecular Weight": "218.33", "Molecular Formula": "C15H22O", "Melting Point": "31-34 \u00b0C"}}