{"cas_no": "46755-94-6", "cn_name": "S(-)-1,1-\u4e8c\u82ef\u57fa-1,2-\u4e19\u4e8c\u9187", "en_name": ["(2S)-1,1-Diphenyl-1,2-propanediol", "1,2-Propanediol, 1,1-diphenyl-, (2S)-", "1,2-Propanediol, 1,1-diphenyl-, (S)-", "l-1,2-Propanediol, 1,1-diphenyl-", "(2S)-1,1-Diphenyl-1,2-propanediol", "(-)-1,1-Diphenyl-1,2-propanediol", "(S)-1,1-Diphenyl-1,2-propanediol", "(S)-(-)-1,1-Diphenyl-1,2-propanediol", "(2S)-1,1-Diphenylpropane-1,2-diol"], "SMILES": "C(C(C)O)(O)(C1=CC=CC=C1)C2=CC=CC=C2", "physical_data": {"Molecular Weight": "228.29", "Molecular Formula": "C15H16O2", "Melting Point": "92 \u00b0C"}}