{"cas_no": "46765-03-1", "cn_name": "\u78fa\u9170\u4e8c\u82ef\u915a\uff08\u53cc\u915aS\uff09", "en_name": ["3,3\u2032-Sulfonylbis[phenol]", "Phenol, 3,3\u2032-sulfonylbis-", "3,3\u2032-Sulfonylbis[phenol]", "3,3\u2032-Dihydroxydiphenyl sulfone"], "SMILES": "S(=O)(=O)(C1=CC(O)=CC=C1)C2=CC(O)=CC=C2", "physical_data": {"Molecular Weight": "250.27", "Molecular Formula": "C12H10O4S", "Melting Point": "186-187 \u00b0C"}}