{"cas_no": "4676-39-5", "cn_name": "\u80e1\u6912\u57fa\u4e19\u916e", "en_name": ["3,4-Methylenedioxyphenyl-2-propanone", "2-Propanone, 1-(1,3-benzodioxol-5-yl)-", "2-Propanone, 1-[3,4-(methylenedioxy)phenyl]-", "2-Propanone, [3,4-(methylenedioxy)phenyl]-", "1-(1,3-Benzodioxol-5-yl)-2-propanone", "1-(Acetonyl)-3,4-methylenedioxybenzene", "5-Acetonyl-1,3-benzodioxole", "3,4-Methylenedioxybenzyl methyl ketone", "Methyl piperonyl ketone", "3,4-Methylenedioxyphenyl-2-propanone", "1-(3,4-Methylenedioxyphenyl)-2-propanone", "3,4-Methylenedioxyphenylacetone", "(1,3-Benzodioxolan-5-yl)acetone", "NSC 16688", "1-(2H-1,3-Benzodioxol-5-yl)propan-2-one", "1-(Benzo[d][1,3]dioxol-5-yl)propan-2-one", "1-(1,3-Benzodioxol-5-yl)acetone"], "SMILES": "C(C(C)=O)C=1C=C2C(=CC1)OCO2", "physical_data": {"Molecular Weight": "178.18", "Molecular Formula": "C10H10O3", "Boiling Point": "156 \u00b0C @ Press: 11 Torr", "Melting Point": "87-88 \u00b0C"}}