{"cas_no": "468-28-0", "cn_name": "\u86c7\u5e8a\u916e", "en_name": ["Lupulone", "2,4-Cyclohexadien-1-one, 3,5-dihydroxy-2,6,6-tris(3-methyl-2-buten-1-yl)-4-(3-methyl-1-oxobutyl)-", "Lupulone", "2,4-Cyclohexadien-1-one, 3,5-dihydroxy-2,6,6-tris(3-methyl-2-butenyl)-4-(3-methyl-1-oxobutyl)-", "3,5-Dihydroxy-2,6,6-tris(3-methyl-2-buten-1-yl)-4-(3-methyl-1-oxobutyl)-2,4-cyclohexadien-1-one", "\u03b2-Lupulic acid", "Lupulon", "n-Lupulone", "Lupulone \u03b2-acid", "3,5-Dihydroxy-2,6,6-tris(3-methylbut-2-enyl)-4-(3-methyl-1-oxobutyl)cyclohexa-2,4-dien-1-one"], "SMILES": "C(C=C(C)C)C1(CC=C(C)C)C(O)=C(C(CC(C)C)=O)C(O)=C(CC=C(C)C)C1=O", "physical_data": {"Molecular Weight": "414.58", "Molecular Formula": "C26H38O4", "Melting Point": "93 \u00b0C"}}