{"cas_no": "46815-10-5", "cn_name": "2-\u4e59\u786b\u57fa\u5429\u567b\u55ea", "en_name": ["2-(Ethylthio)-10H-phenothiazine", "10H-Phenothiazine, 2-(ethylthio)-", "Phenothiazine, 2-(ethylthio)-", "2-(Ethylthio)-10H-phenothiazine", "2-(Ethylthio)phenothiazine", "2-Ethylsulfanyl-10H-phenothiazine", "2-Ethylthiophenothiazine"], "SMILES": "S(CC)C=1C=C2C(SC=3C(N2)=CC=CC3)=CC1", "physical_data": {"Molecular Weight": "259.39", "Molecular Formula": "C14H13NS2", "Melting Point": "95-97 \u00b0C"}}