{"cas_no": "4684-32-6", "cn_name": "\u9e2d\u811a\u6811\u53f6\u78b1", "en_name": ["Picrinine", "2H,12H-6,12a-Epoxy-2,7a-methanoindolo[2,3-a]quinolizine-14-carboxylic acid, 3-ethylidene-1,3,4,6,7,12b-hexahydro-, methyl ester, (2R,3E,6S,7aR,12aR,12bS,14R)-", "Picrinine", "Akuammilan-17-oic acid, 2,5-epoxy-1,2-dihydro-, methyl ester, (2\u03b1,5\u03b1)-", "Picraline, deacetyldeformo-", "16-De[(acetyloxy)methyl]picraline", "Deacetyldeformopicraline", "2H,12H-6,12a-Epoxy-2,7a-methanoindolo[2,3-a]quinolizine-14-carboxylic acid, 3-ethylidene-1,3,4,6,7,12b-hexahydro-, methyl ester, [2R-(2\u03b1,3E,6\u03b2,7a\u03b1,12a\u03b2,12b\u03b2,14R*)]-"], "SMILES": "C(OC)(=O)C1C23C4(C5N(C(C2)O4)CC(=CC)C1C5)NC=6C3=CC=CC6", "physical_data": {"Molecular Weight": "338.40", "Molecular Formula": "C20H22N2O3", "Melting Point": "222-224 \u00b0C"}}