{"cas_no": "4684-12-2", "cn_name": "1-\u6c28\u57fa-4-\u6c2f\u8418", "en_name": ["4-Chloro-1-naphthalenamine", "1-Naphthalenamine, 4-chloro-", "1-Naphthylamine, 4-chloro-", "4-Chloro-1-naphthalenamine", "1-Amino-4-chloronaphthalene", "4-Chloro-1-naphthylamine", "NSC 60276", "(4-Chloronaphthalen-1-yl)amine"], "SMILES": "ClC=1C2=C(C(N)=CC1)C=CC=C2", "physical_data": {"Molecular Weight": "177.63", "Molecular Formula": "C10H8ClN", "Melting Point": "96-97 \u00b0C"}}