{"cas_no": "4684-94-0", "cn_name": "6-\u6c2f\u5421\u5576-2-\u7fa7\u9178", "en_name": ["6-Chloropicolinic acid", "2-Pyridinecarboxylic acid, 6-chloro-", "Picolinic acid, 6-chloro-", "6-Chloro-2-pyridinecarboxylic acid", "6-Chloropicolinic acid", "NSC 51587", "2-Chloropyridine-6-carboxylic acid", "6-Chloro-3-picolinic acid"], "SMILES": "C(O)(=O)C=1N=C(Cl)C=CC1", "physical_data": {"Molecular Weight": "157.55", "Molecular Formula": "C6H4ClNO2", "Melting Point": "190 \u00b0C"}}