{"cas_no": "4685-47-6", "cn_name": "3,4-\u4e8c\u7532\u57fa\u8334\u9999\u919a", "en_name": ["3,4-Dimethylanisole", "Benzene, 4-methoxy-1,2-dimethyl-", "Anisole, 3,4-dimethyl-", "4-Methoxy-1,2-dimethylbenzene", "3,4-Dimethylanisole", "4-Methoxy-o-xylene", "1-Methoxy-3,4-dimethylbenzene", "3,4-Dimethylphenol methyl ether", "1,2-Dimethyl-4-methoxybenzene", "2-Methyl-4-methoxytoluene"], "SMILES": "O(C)C1=CC(C)=C(C)C=C1", "physical_data": {"Molecular Weight": "136.19", "Molecular Formula": "C9H12O", "Boiling Point": "202 \u00b0C"}}