{"cas_no": "4685-14-7", "cn_name": "\u767e\u8349\u67af", "en_name": ["Paraquat", "4,4\u2032-Bipyridinium, 1,1\u2032-dimethyl-", "1,1\u2032-Dimethyl-4,4\u2032-bipyridinium", "1,1\u2032-Dimethyl-4,4\u2032-bipyridinium cation", "Paraquat ion", "Methyl viologen(2+)", "Paraquat dication", "N,N\u2032-Dimethyl-4,4\u2032-bipyridinium dication", "N,N\u2032-Dimethyl-4,4\u2032-bipyridinium", "Dimethyl viologen", "Spraytop-graze", "Methyl viologen ion(2+)", "Methyl viologen dication", "Paraquat", "Starfire", "1-Methyl-4-(1-methylpyridin-1-ium-4-yl)pyridin-1-ium", "MeSH ID: D010269"], "SMILES": "C[N+]=1C=CC(=CC1)C=2C=C[N+](C)=CC2", "physical_data": {"Molecular Weight": "", "Molecular Formula": "C12H14N2", "Melting Point": "300 \u00b0C (decomp)", "Density": "1.24 g/cm\u00b3 @ Temp: 20 \u00b0C"}}