{"cas_no": "4687-25-6", "cn_name": "3-\u919b\u57fa\u82ef\u5e76\u544b\u5583", "en_name": ["3-Benzofurancarboxaldehyde", "3-Benzofurancarboxaldehyde", "3-Formylbenzo[b]furan", "1-Benzofuran-3-carbaldehyde"], "SMILES": "C(=O)C=1C=2C(OC1)=CC=CC2", "physical_data": {"Molecular Weight": "146.14", "Molecular Formula": "C9H6O2", "Boiling Point": "145 \u00b0C @ Press: 35 Torr", "Melting Point": "39 \u00b0C"}}