{"cas_no": "469-21-6", "cn_name": "\u591a\u897f\u62c9\u654f", "en_name": ["(\u00b1)-Doxylamine", "Ethanamine, N,N-dimethyl-2-[1-phenyl-1-(2-pyridinyl)ethoxy]-", "Pyridine, 2-[\u03b1-[2-(dimethylamino)ethoxy]-\u03b1-methylbenzyl]-", "N,N-Dimethyl-2-[1-phenyl-1-(2-pyridinyl)ethoxy]ethanamine", "Doxylamine", "2-[\u03b1-[2-(Dimethylamino)ethoxy]-\u03b1-methylbenzyl]pyridine", "(\u00b1)-Doxylamine", "LS 127", "MeSH ID: D004319"], "SMILES": "C(OCCN(C)C)(C)(C1=CC=CC=C1)C2=CC=CC=N2", "physical_data": {"Molecular Weight": "270.37", "Molecular Formula": "C17H22N2O", "Boiling Point": "137-141 \u00b0C @ Press: 0.5 Torr", "Melting Point": "&lt;25 \u00b0C"}}