{"cas_no": "469-39-6", "cn_name": "CYCLOEUCALENOL", "en_name": ["Cycloeucalenol", "9,19-Cycloergost-24(28)-en-3-ol, 4,14-dimethyl-, (3\u03b2,4\u03b1,5\u03b1)-", "Cycloeucalenol", "9,19-Cyclo-5\u03b1,9\u03b2-ergost-24(28)-en-3\u03b2-ol, 4\u03b1,14-dimethyl-", "1H,19H-Cyclopropa[9,10]cyclopenta[a]phenanthrene, 9,19-cycloergost-24(28)en-3-ol deriv.", "(3\u03b2,4\u03b1,5\u03b1)-4,14-Dimethyl-9,19-cycloergost-24(28)-en-3-ol", "4\u03b1,14\u03b1-Dimethyl-9,19-cyclopropane-24(28)-methylenecholestan-3\u03b2-ol", "3\u03b2-Cycloeucalenol", "Cycloartanol, 4\u03b2-demethyl-24-methylene-"], "SMILES": "CC12C3C4(C5(C4)C(CC3)C(C)C(O)CC5)CCC1(C)C(C(CCC(C(C)C)=C)C)CC2", "physical_data": {"Molecular Weight": "426.72", "Molecular Formula": "C30H50O", "Melting Point": "140 \u00b0C"}}