{"cas_no": "469-32-9", "cn_name": "\u91d1\u7f15\u6885\u5355\u5b81", "en_name": ["Hamamelitannin", "D-Ribose, 2-C-[[(3,4,5-trihydroxybenzoyl)oxy]methyl]-, 5-(3,4,5-trihydroxybenzoate)", "Hamamelitannin", "Ribose, 2-C-(hydroxymethyl)-, 21,5-digallate, D-", "Gallic acid, 21,5-diester with 2-C-(hydroxymethyl)-D-ribose", "2\u2032,5-Di-O-galloyl-D-hamamelose"], "SMILES": "C(OCC(C(C(COC(=O)C1=CC(O)=C(O)C(O)=C1)O)O)(C=O)O)(=O)C2=CC(O)=C(O)C(O)=C2", "physical_data": {"Molecular Weight": "484.36", "Molecular Formula": "C20H20O14", "Melting Point": "217-223 \u00b0C (decomp)"}}