{"cas_no": "469-83-0", "cn_name": "\u5496\u5561\u6cb9\u9187", "en_name": ["Cafestol", "5a,8-Methano-5aH-cyclohepta[5,6]naphtho[2,1-b]furan-7-methanol, 3b,4,5,6,7,8,9,10,10a,10b,11,12-dodecahydro-7-hydroxy-10b-methyl-, (3bS,5aS,7R,8R,10aR,10bS)-", "Cafestol", "5a,8-Methano-5aH-cyclohepta[5,6]naphtho[2,1-b]furan-7-methanol, 3b,4,5,6,7,8,9,10,10a,10b,11,12-dodecahydro-7-hydroxy-10b-methyl-, [3bS-(3b\u03b1,5a\u03b2,7\u03b2,8\u03b2,10a\u03b1,10b\u03b2)]-", "(3bS,5aS,7R,8R,10aR,10bS)-3b,4,5,6,7,8,9,10,10a,10b,11,12-Dodecahydro-7-hydroxy-10b-methyl-5a,8-methano-5aH-cyclohepta[5,6]naphtho[2,1-b]furan-7-methanol", "Cafesterol"], "SMILES": "CC12C3C4(CC(C(CO)(O)C4)CC3)CCC1C5=C(CC2)OC=C5", "physical_data": {"Molecular Weight": "316.43", "Molecular Formula": "C20H28O3", "Melting Point": "153-155 \u00b0C"}}