{"cas_no": "469-90-9", "cn_name": "\u666f\u5929\u5e9a\u916e\u7cd6", "en_name": ["Sedoheptulosan", "\u03b2-D-altro-2-Heptulopyranose, 2,7-anhydro-", "D-altro-Heptulopyranose, 2,7-anhydro-, \u03b2-", "D-altro-Heptulopyranose, 2,7-anhydro-", "6,8-Dioxabicyclo[3.2.1]octane, \u03b2-D-altro-2-heptulopyranose deriv.", "2,7-Anhydro-\u03b2-D-altro-2-heptulopyranose", "Sedoheptulosan", "2,7-Anhydro-\u03b2-D-altro-heptulopyranose", "2,7-Anhydro-D-sedoheptulose", "NSC 2553"], "SMILES": "C(O)C12C(O)C(O)C(O)C(O1)CO2", "physical_data": {"Molecular Weight": "192.17", "Molecular Formula": "C7H12O6", "Melting Point": "155-156 \u00b0C"}}