{"cas_no": "469-38-5", "cn_name": "\u73af\u963f\u5c6f\u9187", "en_name": ["Cycloartenol", "9,19-Cyclolanost-24-en-3-ol, (3\u03b2)-", "Cycloartenol", "9,19-Cyclo-9\u03b2-lanost-24-en-3\u03b2-ol", "1H,19H-Cyclopropa[9,10]cyclopenta[a]phenanthrene, 9,19-cyclolanost-24-en-3-ol deriv.", "(3\u03b2)-9,19-Cyclolanost-24-en-3-ol", "Handianol", "9,19-Cyclo-24-lanosten-3\u03b2-ol", "Cycloart-24-en-3\u03b2-ol", "NSC 670193"], "SMILES": "CC12C3C4(C5(C4)C(C(C)(C)C(O)CC5)CC3)CCC1(C)C(C(CCC=C(C)C)C)CC2", "physical_data": {"Molecular Weight": "426.72", "Molecular Formula": "C30H50O", "Melting Point": "103.0-103.5 \u00b0C"}}