{"cas_no": "469-59-0", "cn_name": "\u849c\u9ece\u82a6\u78b1", "en_name": ["Jervine", "Spiro[9H-benzo[a]fluorene-9,2\u2032(3\u2032H)-furo[3,2-b]pyridin]-11(1H)-one, 2,3,3\u2032a,4,4\u2032,5\u2032,6,6\u2032,6a,6b,7,7\u2032,7\u2032a,8,11a,11b-hexadecahydro-3-hydroxy-3\u2032,6\u2032,10,11b-tetramethyl-, (2\u2032R,3S,3\u2032R,3\u2032aS,6\u2032S,6aS,6bS,7\u2032aR,11aS,11bR)-", "Jervine", "Veratraman-11-one, 17,23-epoxy-3-hydroxy-, (3\u03b2,23\u03b2)-", "(2\u2032R,3S,3\u2032R,3\u2032aS,6\u2032S,6aS,6bS,7\u2032aR,11aS,11bR)-2,3,3\u2032a,4,4\u2032,5\u2032,6,6\u2032,6a,6b,7,7\u2032,7\u2032a,8,11a,11b-Hexadecahydro-3-hydroxy-3\u2032,6\u2032,10,11b-tetramethylspiro[9H-benzo[a]fluorene-9,2\u2032(3\u2032H)-furo[3,2-b]pyridin]-11(1H)-one", "Jervin", "Spiro[9H-benzo[a]fluorene-9,2\u2032(3\u2032H)-furo[3,2-b]pyridin]-11(1H)-one, 2,3,3\u2032a,4,4\u2032,5\u2032,6,6\u2032,6a,6b,7,7\u2032,7\u2032a,8,11a,11b-hexadecahydro-3-hydroxy-3\u2032,6\u2032,10,11b-tetramethyl-, [3S-(3\u03b1,6a\u03b1,6b\u03b2,9\u03b1(3\u2032S*,3\u2032aR*,6\u2032R*,7\u2032aS*),11a\u03b2,11b\u03b1)]-", "NSC 23898", "NSC 7520"], "SMILES": "CC=1C2(OC3C(C2C)NCC(C)C3)CCC4C1C(=O)C5C4CC=C6C5(C)CCC(O)C6", "physical_data": {"Molecular Weight": "425.60", "Molecular Formula": "C27H39NO3", "Melting Point": "243.5-244.5 \u00b0C"}}