{"cas_no": "46917-07-1", "cn_name": "\u4e8c\u7532\u57fa\u82ef\u7532\u57fa-2-\u7532\u57fa\u4e19\u70ef\u9178\u4e59\u80fa\u916f\u6c2f\u5316\u7269", "en_name": ["Methacryloyloxyethyldimethylbenzylammonium chloride", "Benzenemethanaminium, N,N-dimethyl-N-[2-[(2-methyl-1-oxo-2-propen-1-yl)oxy]ethyl]-, chloride (1:1)", "Benzenemethanaminium, N,N-dimethyl-N-[2-[(2-methyl-1-oxo-2-propenyl)oxy]ethyl]-, chloride", "Benzyldimethyl-2-(methacryloyloxy)ethylammonium chloride", "Madquat BZ 75", "Benzyl(methacryloyloxyethyl)dimethylammonium chloride", "DML 60", "[2-(Methacryloyloxy)ethyl]dimethylbenzylammonium chloride", "DMB 60", "Methacryloyloxyethyldimethylbenzylammonium chloride", "MADAMBQ", "Methacryloyloxyethylbenzyldimethylammonium chloride", "2-Methacryloxyethylbenzyldimethylammonium chloride", "Methacryloxyethyldimethylbenzylammonium chloride", "N,N-Dimethylaminoethyl methacrylate benzyl chloride"], "SMILES": "C([N+](CCOC(C(C)=C)=O)(C)C)C1=CC=CC=C1.[Cl-]", "physical_data": {"Molecular Weight": "", "Molecular Formula": "C15H22NO2.Cl", "Melting Point": "108-110 \u00b0C"}}