{"cas_no": "4693-91-8", "cn_name": "4-\u7532\u6c27\u57fa\u82ef\u4e59\u9170\u6c2f", "en_name": ["4-Methoxybenzeneacetyl chloride", "Benzeneacetyl chloride, 4-methoxy-", "Acetyl chloride, (p-methoxyphenyl)-", "4-Methoxybenzeneacetyl chloride", "(p-Methoxyphenyl)acetyl chloride", "(4-Methoxyphenyl)acetyl chloride", "p-Methoxyphenacetyl chloride", "p-Anisylacetyl chloride", "2-(4-Methoxyphenyl)acetyl chloride", "4-Methoxyphenacetyl chloride"], "SMILES": "C(C(Cl)=O)C1=CC=C(OC)C=C1", "physical_data": {"Molecular Weight": "184.62", "Molecular Formula": "C9H9ClO2", "Boiling Point": "139 \u00b0C", "Density": "1.2283 g/cm\u00b3 @ Temp: 0 \u00b0C"}}