{"cas_no": "4693-02-1", "cn_name": "5-\u785d\u57fa\u975b\u7ea2\u9178\u9150", "en_name": ["5-Nitroisatoic anhydride", "2H-3,1-Benzoxazine-2,4(1H)-dione, 6-nitro-", "6-Nitro-2H-3,1-benzoxazine-2,4(1H)-dione", "5-Nitroisatoic anhydride", "6-Nitro-1H-benzo[d][1,3]oxazine-2,4-dione", "NSC 73615", "6-Nitro-benzo[d][1,3]oxazine-2,4-dione"], "SMILES": "O=C1C=2C(=CC=C(N(=O)=O)C2)NC(=O)O1", "physical_data": {"Molecular Weight": "208.13", "Molecular Formula": "C8H4N2O5", "Melting Point": "224-232 \u00b0C (decomp)"}}