{"cas_no": "4693-00-9", "cn_name": "3,5-\u4e8c\u6c2f\u975b\u7ea2\u9178\u9150", "en_name": ["3,5-Dichloroisatoic anhydride", "2H-3,1-Benzoxazine-2,4(1H)-dione, 6,8-dichloro-", "Isatoic anhydride, 3,5-dichloro-", "6,8-Dichloro-2H-3,1-benzoxazine-2,4(1H)-dione", "3,5-Dichloroisatoic acid anhydride", "3,5-Dichloroisatoic anhydride", "6,8-Dichloro-1H-benzo[d][1,3]oxazine-2,4-dione"], "SMILES": "O=C1C=2C(NC(=O)O1)=C(Cl)C=C(Cl)C2", "physical_data": {"Molecular Weight": "232.02", "Molecular Formula": "C8H3Cl2NO3", "Melting Point": "251-253 \u00b0C"}}