{"cas_no": "4694-91-1", "cn_name": "6-\u785d\u57fa\u82ef\u5e76\u6076\u5511-2(3H)-\u916e", "en_name": ["6-Nitro-2-benzoxazolone", "2(3H)-Benzoxazolone, 6-nitro-", "2-Benzoxazolinone, 6-nitro-", "6-Nitro-2(3H)-benzoxazolone", "6-Nitrobenzoxazolone", "6-Nitrobenzoxazolin-2-one", "6-Nitro-2-benzoxazolone", "6-Nitro-3H-benzoxazol-2-one", "6-Nitrobenzo[d]oxazol-2(3H)-one"], "SMILES": "N(=O)(=O)C=1C=C2C(=CC1)NC(=O)O2", "physical_data": {"Molecular Weight": "180.12", "Molecular Formula": "C7H4N2O4", "Melting Point": "241 \u00b0C"}}