{"cas_no": "4694-12-6", "cn_name": "2,4,4-\u4e09\u7532\u57fa\u73af\u620a\u916e", "en_name": ["2,4,4-Trimethylcyclopentanone", "Cyclopentanone, 2,4,4-trimethyl-", "2,4,4-Trimethylcyclopentanone", "(\u00b1)-2,4,4-Trimethylcyclopentanone", "2,4,4-Trimethylcyclopentan-1-one"], "SMILES": "CC1(C)CC(C)C(=O)C1", "physical_data": {"Molecular Weight": "126.20", "Molecular Formula": "C8H14O", "Boiling Point": "160.5 \u00b0C", "Melting Point": "-25.6 \u00b0C", "Density": "0.785000610351563 g/cm\u00b3 @ Temp: 18 \u00b0C"}}