{"cas_no": "4694-80-8", "cn_name": "2-\u4e19\u57fa-2-\u5511\u5549", "en_name": ["2-Propyl-2-oxazoline", "Oxazole, 4,5-dihydro-2-propyl-", "2-Oxazoline, 2-propyl-", "4,5-Dihydro-2-propyloxazole", "2-Propyl-2-oxazoline", "NSC 122378", "2-Propyl-4,5-dihydro-1,3-oxazole", "n-Propyl-2-oxazoline", "2-Propyl-4,5-dihydrooxazole"], "SMILES": "C(CC)C1=NCCO1", "physical_data": {"Molecular Weight": "113.16", "Molecular Formula": "C6H11NO", "Boiling Point": "147 \u00b0C"}}