{"cas_no": "4695-62-9", "cn_name": "D(+)-\u8334\u9999\u916e", "en_name": ["(+)-Fenchone", "Bicyclo[2.2.1]heptan-2-one, 1,3,3-trimethyl-, (1S,4R)-", "2-Norbornanone, 1,3,3-trimethyl-, (1S,4R)-(+)-", "Bicyclo[2.2.1]heptan-2-one, 1,3,3-trimethyl-, (1S)-", "(1S,4R)-1,3,3-Trimethylbicyclo[2.2.1]heptan-2-one", "(+)-Fenchone", "D(+)-Fenchone", "D-Fenchone", "(1S)-Fenchone", "(S)-(+)-Fenchone", "(S)-Fenchone"], "SMILES": "CC12C(=O)C(C)(C)C(C1)CC2", "physical_data": {"Molecular Weight": "152.23", "Molecular Formula": "C10H16O", "Melting Point": "6.1 \u00b0C", "Density": "1.1995 g/cm\u00b3 @ Temp: 25.00 \u00b0C"}}