{"cas_no": "4695-31-2", "cn_name": "2-\u5def\u57fa\u5f02\u4e01\u9178", "en_name": ["2-Mercapto-2-methylpropanoic acid", "Propanoic acid, 2-mercapto-2-methyl-", "Propionic acid, 2-mercapto-2-methyl-", "2-Mercapto-2-methylpropanoic acid", "\u03b1-Mercaptoisobutyric acid", "2-Mercaptoisobutyric acid", "2-Mercapto-2-methylpropionic acid", "2-Mercaptoisobutanoic acid", "2,2-Dimethyl-2-mercaptoacetic acid", "2-Methyl-2-sulfanylpropanoic acid"], "SMILES": "C(C(O)=O)(C)(C)S", "physical_data": {"Molecular Weight": "120.17", "Molecular Formula": "C4H8O2S", "Boiling Point": "100-102 \u00b0C @ Press: 15 Torr", "Melting Point": "47 \u00b0C"}}