{"cas_no": "4696-76-8", "cn_name": "\u5361\u90a3\u9709\u7d20 B", "en_name": ["Kanamycin B", "D-Streptamine, O-3-amino-3-deoxy-\u03b1-D-glucopyranosyl-(1\u21926)-O-[2,6-diamino-2,6-dideoxy-\u03b1-D-glucopyranosyl-(1\u21924)]-2-deoxy-", "Kanamycin B", "O-3-Amino-3-deoxy-\u03b1-D-glucopyranosyl-(1\u21926)-O-[2,6-diamino-2,6-dideoxy-\u03b1-D-glucopyranosyl-(1\u21924)]-2-deoxy-D-streptamine", "Kanendomycin", "Aminodeoxykanamycin", "2\u2032-Amino-2\u2032-deoxykanamycin", "Bekanamycin", "KDM", "NK 1006", "Nebramycin V", "Nebramycin factor 5", "Beckanamycin"], "SMILES": "O(C1C(O)C(OC2OC(CO)C(O)C(N)C2O)C(N)CC1N)C3OC(CN)C(O)C(O)C3N", "physical_data": {"Molecular Weight": "483.51", "Molecular Formula": "C18H37N5O10", "Melting Point": "178-182 \u00b0C (decomp)"}}