{"cas_no": "4696-56-4", "cn_name": "\u5341\u4e8c\u9178\u9499\u76d0", "en_name": ["Calcium laurate", "Dodecanoic acid, calcium salt (2:1)", "Lauric acid, calcium salt", "Dodecanoic acid, calcium salt", "Calcium laurate", "Stavinor 330", "Calcium dodecanoate", "C 12", "C 12 (salt)", "CS 3"], "SMILES": "C(CCCCCCCC)CCC(O)=O.[Ca]", "physical_data": {"Molecular Weight": "", "Molecular Formula": "C12H24O2.<sup>1</sup>/2Ca", "Melting Point": "182 \u00b0C"}}