{"cas_no": "4698-11-7", "cn_name": "10-\u7532\u6c27\u57fa\u4e9a\u6c28\u57fa\u82aa", "en_name": ["10-Methoxy-5H-dibenz[b,f]azepine", "5H-Dibenz[b,f]azepine, 10-methoxy-", "10-Methoxy-5H-dibenz[b,f]azepine", "10-Methoxy-5H-dibenzo[b,f]azepine"], "SMILES": "O(C)C=1C=2C(NC=3C(C1)=CC=CC3)=CC=CC2", "physical_data": {"Molecular Weight": "223.27", "Molecular Formula": "C15H13NO", "Melting Point": "124 \u00b0C"}}