{"cas_no": "470-90-6", "cn_name": "\u6bd2\u866b\u754f", "en_name": ["Chlorfenvinphos", "Phosphoric acid, 2-chloro-1-(2,4-dichlorophenyl)ethenyl diethyl ester", "Phosphoric acid, 2-chloro-1-(2,4-dichlorophenyl)vinyl diethyl ester", "Benzyl alcohol, 2,4-dichloro-\u03b1-(chloromethylene)-, diethyl phosphate", "GC 4072", "SD 7859", "ENT 24969", "Birlane", "Chlorfenvinfos", "Chlorfenvinphos", "2-Chloro-1-(2,4-dichlorophenyl)vinyl diethyl phosphate", "Compound 4072", "CVP", "Diethyl 1-(2,4-dichlorophenyl)-2-chlorovinyl phosphate", "Supona", "Chlorphenvinfos", "Chlorphenvinphos", "OMS 1328", "Sapecron", "Vinyphate", "Birlan", "O,O-Diethyl O-[1-(2,4-dichlorophenyl)-2-chlorovinyl] phosphate", "Sapecron 50EC", "Birlane 10G", "Dermaton", "Diethyl 2-chloro-1-(2,4-dichlorophenyl)vinyl phosphate", "O,O-Diethyl O-[2-chloro-1-(2,4-dichlorophenyl)vinyl] phosphate", "2,4-Dichloro-\u03b1-(chloromethylene)benzyldiethyl phosphate", "CVP (pesticide)", "Tarene", "Enolofos", "Haptasol", "Zaprawa enolofos", "Unitox", "Clofenvinfos", "Defiance S", "Quirlan", "Birlane Z 110", "Z 110", "Chlorfenviphose", "MeSH ID: D002709"], "SMILES": "P(OC(=CCl)C1=C(Cl)C=C(Cl)C=C1)(OCC)(OCC)=O", "physical_data": {"Molecular Weight": "359.57", "Molecular Formula": "C12H14Cl3O4P", "Boiling Point": "167-170 \u00b0C", "Melting Point": "-23--19 \u00b0C", "Density": "1.36 g/cm\u00b3 @ Temp: 20 \u00b0C"}}