{"cas_no": "470-37-1", "cn_name": "\u87fe\u9165", "en_name": ["Cinobufagin", "Bufa-20,22-dienolide, 16-(acetyloxy)-14,15-epoxy-3-hydroxy-, (3\u03b2,5\u03b2,15\u03b2,16\u03b2)-", "5\u03b2-Bufa-20,22-dienolide, 14,15\u03b2-epoxy-3\u03b2,16\u03b2-dihydroxy-, 16-acetate", "Cinobufagin", "14,15-Epoxy-14H-cyclopenta[a]phenanthrene, bufa-20,22-dienolide deriv.", "(3\u03b2,5\u03b2,15\u03b2,16\u03b2)-16-(Acetyloxy)-14,15-epoxy-3-hydroxybufa-20,22-dienolide", "Cinobufagine", "NSC 90325", "Cinobufagenin", "Cinobufogenin"], "SMILES": "CC12C3(C(O3)C(OC(C)=O)C1C=4C=CC(=O)OC4)C5C(CC2)C6(C)C(CC5)CC(O)CC6", "physical_data": {"Molecular Weight": "442.54", "Molecular Formula": "C26H34O6", "Melting Point": "222-223 \u00b0C", "Density": "1.261 g/cm\u00b3"}}