{"cas_no": "470-67-7", "cn_name": "1,4-\u6849\u53f6\u7d20", "en_name": ["1,4-Cineole", "7-Oxabicyclo[2.2.1]heptane, 1-methyl-4-(1-methylethyl)-", "p-Menthane, 1,4-epoxy-", "7-Oxabicyclo[2.2.1]heptane, 1-isopropyl-4-methyl-", "1-Methyl-4-(1-methylethyl)-7-oxabicyclo[2.2.1]heptane", "1,4-Cineole", "Isocineole", "1,4-Cineol", "1-Methyl-4-(propan-2-yl)-7-oxabicyclo[2.2.1]heptane"], "SMILES": "C(C)(C)C12OC(C)(CC1)CC2", "physical_data": {"Molecular Weight": "154.25", "Molecular Formula": "C10H18O", "Boiling Point": "173-174 \u00b0C", "Melting Point": "1 \u00b0C", "Density": "0.8997 g/cm\u00b3 @ Temp: 20 \u00b0C"}}