{"cas_no": "470-42-8", "cn_name": "\u5357\u7f8e\u87fe\u6bd2\u7cbe", "en_name": ["Marinobufagenin", "Bufa-20,22-dienolide, 14,15-epoxy-3,5-dihydroxy-, (3\u03b2,5\u03b2,15\u03b2)-", "5\u03b2-Bufa-20,22-dienolide, 14,15\u03b2-epoxy-3\u03b2,5-dihydroxy-", "14,15-Epoxy-14H-cyclopenta[a]phenanthrene, bufa-20,22-dienolide deriv.", "(3\u03b2,5\u03b2,15\u03b2)-14,15-Epoxy-3,5-dihydroxybufa-20,22-dienolide", "Marinobufagin", "Marinobufagenin", "Marinobufogenin", "NSC 234205"], "SMILES": "CC12C3(C(O3)CC1C=4C=CC(=O)OC4)C5C(C6(C)C(O)(CC5)CC(O)CC6)CC2", "physical_data": {"Molecular Weight": "400.51", "Molecular Formula": "C24H32O5", "Melting Point": "224-225 \u00b0C"}}