{"cas_no": "470-40-6", "cn_name": "\u7f57\u6c49\u67cf\u70ef", "en_name": ["Thujopsene", "Cyclopropa[d]naphthalene, 1,1a,4,4a,5,6,7,8-octahydro-2,4a,8,8-tetramethyl-, (1aS,4aS,8aS)-", "Cyclopropa[d]naphthalene, 1,1a,4,4a,5,6,7,8-octahydro-2,4a,8,8-tetramethyl-, (1aS,4aS,8aS)-(-)-", "Thujopsene", "Cyclopropa[d]naphthalene, 1,1a,4,4a,5,6,7,8-octahydro-2,4a,8,8-tetramethyl-, [1aS-(1a\u03b1,4a\u03b2,8aR*)]-", "(1aS,4aS,8aS)-1,1a,4,4a,5,6,7,8-Octahydro-2,4a,8,8-tetramethylcyclopropa[d]naphthalene", "Sesquichamene", "Widdrene", "Thujopsene, (-)-", "(-)-Thujopsene", "Thujopsen", "cis-(-)-Thujopsene", "NSC 44707"], "SMILES": "CC12C3(C(C3)C(C)=CC1)C(C)(C)CCC2", "physical_data": {"Molecular Weight": "204.35", "Molecular Formula": "C15H24", "Boiling Point": "120 \u00b0C", "Melting Point": "&lt;25 \u00b0C", "Density": "0.9277 g/cm\u00b3 @ Temp: 28 \u00b0C"}}