{"cas_no": "470-99-5", "cn_name": "3,5,5-\u4e09\u7532\u57fa-2-\u73af\u5df1\u70ef-1-\u9187", "en_name": ["Isophorol", "2-Cyclohexen-1-ol, 3,5,5-trimethyl-", "3,5,5-Trimethyl-2-cyclohexen-1-ol", "Isophorol", "3,5,5-Trimethylcyclohex-2-enol", "NSC 263506", "1,5,5-Trimethylcyclohex-1-en-3-ol", "(\u00b1)-Isophorol"], "SMILES": "CC1(C)CC(C)=CC(O)C1", "physical_data": {"Molecular Weight": "140.22", "Molecular Formula": "C9H16O", "Boiling Point": "69 \u00b0C @ Press: 5 Torr", "Density": "0.9144 g/cm\u00b3 @ Temp: 20 \u00b0C"}}