{"cas_no": "470-69-9", "cn_name": "\u8517\u679c\u4e09\u7cd6", "en_name": ["1-Kestose", "\u03b1-D-Glucopyranoside, O-\u03b2-D-fructofuranosyl-(2\u21921)-\u03b2-D-fructofuranosyl", "Glucopyranoside, O-\u03b2-D-fructofuranosyl-(2\u21921)-\u03b2-D-fructofuranosyl, \u03b1-D-", "\u03b1-D-Glucopyranoside, O-\u03b2-D-fructofuranosyl-(2\u21921)-O-\u03b2-D-fructofuranosyl-(2\u21921)", "O-\u03b2-D-Fructofuranosyl-(2\u21921)-\u03b2-D-fructofuranosyl \u03b1-D-glucopyranoside", "1-Kestose", "1F-Fructosylsucrose", "1-Kestotriose", "1-Fructosylsucrose", "GF 2"], "SMILES": "O(C1(COC2(CO)OC(CO)C(O)C2O)OC(CO)C(O)C1O)C3OC(CO)C(O)C(O)C3O", "physical_data": {"Molecular Weight": "504.44", "Molecular Formula": "C18H32O16", "Melting Point": "198-200 \u00b0C"}}