{"cas_no": "470-82-6", "cn_name": "\u6849\u53f6\u6cb9\u9187", "en_name": ["1,8-Cineole", "2-Oxabicyclo[2.2.2]octane, 1,3,3-trimethyl-", "p-Menthane, 1,8-epoxy-", "1,3,3-Trimethyl-2-oxabicyclo[2.2.2]octane", "Cajeputol", "Cineol", "Cineole", "1,8-Cineole", "1,8-Epoxy-p-menthane", "Eucalyptol", "Eucalyptole", "1,8-Cineol", "p-Cineole", "2-Oxa-1,3,3-trimethylbicyclo[2.2.2]octane", "Eucapur", "Terpan", "NSC 6171", "Eukalyptol", "Eucalytol", "Eucaliptol", "1,8-Eucalyptol", "FF 0964"], "SMILES": "CC12OC(C)(C)C(CC1)CC2", "physical_data": {"Molecular Weight": "154.25", "Molecular Formula": "C10H18O", "Boiling Point": "176.4 \u00b0C", "Melting Point": "1.5 \u00b0C", "Density": "0.9267 g/cm\u00b3 @ Temp: 20 \u00b0C"}}