{"cas_no": "470-55-3", "cn_name": "D-\u6c34\u82cf\u7cd6", "en_name": ["Stachyose", "\u03b1-D-Glucopyranoside, \u03b2-D-fructofuranosyl O-\u03b1-D-galactopyranosyl-(1\u21926)-O-\u03b1-D-galactopyranosyl-(1\u21926)-", "Glucopyranoside, \u03b2-D-fructofuranosyl O-\u03b1-D-galactopyranosyl-(1\u21926)-O-\u03b1-D-galactopyranosyl-(1\u21926)-, \u03b1-D-", "Stachyose", "\u03b2-D-Fructofuranosyl O-\u03b1-D-galactopyranosyl-(1\u21926)-O-\u03b1-D-galactopyranosyl-(1\u21926)-\u03b1-D-glucopyranoside", "D-Stachyose"], "SMILES": "O(C1(CO)OC(CO)C(O)C1O)C2OC(COC3OC(COC4OC(CO)C(O)C(O)C4O)C(O)C(O)C3O)C(O)C(O)C2O", "physical_data": {"Molecular Weight": "666.58", "Molecular Formula": "C24H42O21", "Melting Point": "101-105 \u00b0C"}}