{"cas_no": "470-17-7", "cn_name": "\u5f02\u571f\u6728\u9999\u5185\u916f", "en_name": ["(+)-Isoalantolactone", "Naphtho[2,3-b]furan-2(3H)-one, decahydro-8a-methyl-3,5-bis(methylene)-, (3aR,4aS,8aR,9aR)-", "Eudesma-4(14),11(13)-dien-12-oic acid, 8\u03b2-hydroxy-, \u03b3-lactone", "Isoalantolactone", "Naphtho[2,3-b]furan-2(3H)-one, decahydro-8a-methyl-3,5-bis(methylene)-, [3aR-(3a\u03b1,4a\u03b1,8a\u03b2,9a\u03b1)]-", "(3aR,4aS,8aR,9aR)-Decahydro-8a-methyl-3,5-bis(methylene)naphtho[2,3-b]furan-2(3H)-one", "(+)-Isoalantolactone", "Isoallantolactone", "Isohelenin", "5\u03b1H-Eudesma-4(15),11(13)-dien-12,8\u03b2-olide", "NSC 241036"], "SMILES": "CC12C(CC3C(C1)OC(=O)C3=C)C(=C)CCC2", "physical_data": {"Molecular Weight": "232.32", "Molecular Formula": "C15H20O2", "Melting Point": "115 \u00b0C"}}