{"cas_no": "4701-17-1", "cn_name": "5-\u6eb4\u567b\u5429-2-\u7532\u919b", "en_name": ["5-Bromo-2-thiophenecarboxaldehyde", "2-Thiophenecarboxaldehyde, 5-bromo-", "5-Bromo-2-thiophenecarboxaldehyde", "5-Bromo-2-formylthiophene", "2-Bromo-5-formylthiophene", "2-Bromo-5-thiophenecarboxaldehyde", "5-Bromothiophene-2-carbaldehyde", "5-Bromo-2-thiophenaldehyde", "2-Formyl-5-bromothiophene", "5-Bromothiophene-2-aldehyde", "5-Bromothiophen-2-carboxaldehyde", "5-Bromo-2-thienylaldehyde", "5-Bromo-2-carbonylthiophene"], "SMILES": "C(=O)C=1SC(Br)=CC1", "physical_data": {"Molecular Weight": "191.05", "Molecular Formula": "C5H3BrOS", "Boiling Point": "115 \u00b0C @ Press: 14 Torr"}}