{"cas_no": "4702-90-3", "cn_name": "\u6eb6\u5242\u9ec4 93", "en_name": ["Solvent Yellow 93", "3H-Pyrazol-3-one, 4-[(1,5-dihydro-3-methyl-5-oxo-1-phenyl-4H-pyrazol-4-ylidene)methyl]-2,4-dihydro-5-methyl-2-phenyl-", "2-Pyrazolin-5-one, 4,4\u2032-methylidynebis[3-methyl-1-phenyl-", "4-[(1,5-Dihydro-3-methyl-5-oxo-1-phenyl-4H-pyrazol-4-ylidene)methyl]-2,4-dihydro-5-methyl-2-phenyl-3H-pyrazol-3-one", "C.I. 48160", "C.I. Solvent Yellow 93", "Oplas Yellow 140", "Macrolex Yellow 3G", "Solvent Yellow 93", "Thermoplast Yellow 104", "Diaresin Yellow L 3G", "Plast Yellow 8000", "Kayaset Yellow GN", "Sandoplast Yellow 3G", "Keyplast Yellow 3G", "Solvaperm Yellow 3G", "KP Plast Yellow G"], "SMILES": "O=C1N(N=C(C)C1C=C2C(=O)N(N=C2C)C3=CC=CC=C3)C4=CC=CC=C4", "physical_data": {"Molecular Weight": "358.39", "Molecular Formula": "C21H18N4O2", "Melting Point": "180 \u00b0C"}}