{"cas_no": "4702-13-0", "cn_name": "\u90bb\u82ef\u4e8c\u7532\u9170\u7518\u6c28\u9178", "en_name": ["N-Phthaloylglycine", "2H-Isoindole-2-acetic acid, 1,3-dihydro-1,3-dioxo-", "2-Isoindolineacetic acid, 1,3-dioxo-", "1,3-Dihydro-1,3-dioxo-2H-isoindole-2-acetic acid", "Phthalimidoacetic acid", "N-Phthaloylglycine", "1,3-Dioxo-2-isoindolineacetic acid", "N-(Carboxymethyl)phthalimide", "Phthaloylglycine", "2-Phthalimidoacetic acid", "(1,3-Dioxo-1,3-dihydroisoindol-2-yl)acetic acid", "N-(2-Hydroxy-2-oxoethyl)phthalimide", "NSC 10771", "NSC 29044", "(1,3-Dioxo-1,3-dihydro-2H-isoindol-2-yl)acetic acid", "(1,3-Dihydro-1,3-dioxo-2H-isoindol-2-yl)acetic acid", "Phthaloglycine", "2-(1,3-Dioxoisoindolin-2-yl)acetic acid", "2-Phthalimidoylacetic acid", "2-(1,3-Dioxoisoindol-2-yl)acetic acid", "2-(1,3-Dioxo-2,3-dihydro-1H-isoindol-2-yl)acetic acid"], "SMILES": "O=C1C=2C(C(=O)N1CC(O)=O)=CC=CC2", "physical_data": {"Molecular Weight": "205.17", "Molecular Formula": "C10H7NO4", "Melting Point": "192 \u00b0C"}}