{"cas_no": "4702-32-3", "cn_name": "DL-\u5f02\u67e0\u6aac\u9178\u5185\u916f", "en_name": ["Isocitric acid lactone", "Pentaric acid, 3-carboxy-2,3-dideoxy-, 1,4-lactone", "Isocitric acid, \u03b3-lactone", "2,3-Furandicarboxylic acid, tetrahydro-5-oxo-", "Isocitric acid lactone", "1,2,3-Propanetricarboxylic acid, 1-hydroxy-, \u03b3-lactone", "Isocitric lactone", "NSC 95086"], "SMILES": "C(O)(=O)C1C(C(O)=O)OC(=O)C1", "physical_data": {"Molecular Weight": "174.11", "Molecular Formula": "C6H6O6", "Melting Point": "162-163 \u00b0C"}}