{"cas_no": "4702-34-5", "cn_name": "\u5f02\u8272\u7792", "en_name": ["3,4-Dihydroisocoumarin", "1H-2-Benzopyran-1-one, 3,4-dihydro-", "Isocoumarin, 3,4-dihydro-", "3,4-Dihydro-1H-2-benzopyran-1-one", "1-Isochromanone", "3,4-Dihydroisocoumarin", "3,4-Dihydroisochromen-1-one"], "SMILES": "O=C1C=2C(CCO1)=CC=CC2", "physical_data": {"Molecular Weight": "148.16", "Molecular Formula": "C9H8O2", "Boiling Point": "165 \u00b0C @ Press: 16 Torr", "Melting Point": "37-39 \u00b0C", "Density": "1.203 g/cm\u00b3 @ Temp: 18.5 \u00b0C"}}