{"cas_no": "4704-77-2", "cn_name": "3-\u6eb4-1,2-\u5e76\u4e8c\u915a", "en_name": ["3-Bromo-1,2-propanediol", "1,2-Propanediol, 3-bromo-", "3-Bromo-1,2-propanediol", "Glycerol \u03b1-bromohydrin", "1-Bromo-2,3-propanediol", "1-Bromo-2,3-dihydroxypropane", "\u03b1-Bromohydrin", "Glycerol bromohydrin", "1-Bromo-1-deoxyglycerol", "2,3-Dihydroxy-1-bromopropane", "DL-Glycerol 1-bromohydrin", "3-Bromo-1,2-dihydroxypropane", "(\u00b1)-Glycerol 1-bromohydrin", "3-Bromo-1,2-propandiol"], "SMILES": "C(CBr)(CO)O", "physical_data": {"Molecular Weight": "154.99", "Molecular Formula": "C3H7BrO2", "Boiling Point": "134 \u00b0C @ Press: 16 Torr", "Density": "1.7591 g/cm\u00b3 @ Temp: 25 \u00b0C"}}