{"cas_no": "4704-94-3", "cn_name": "2-\u7f9f\u7532\u57fa-1,3-\u4e19\u4e8c\u9187", "en_name": ["2-(Hydroxymethyl)-1,3-propanediol", "1,3-Propanediol, 2-(hydroxymethyl)-", "2-(Hydroxymethyl)-1,3-propanediol", "Tris(hydroxymethyl)methane", "Trimethylolmethane"], "SMILES": "C(CO)(CO)CO", "physical_data": {"Molecular Weight": "106.12", "Molecular Formula": "C4H10O3", "Boiling Point": "158 \u00b0C @ Press: 1.5 Torr", "Melting Point": "182 \u00b0C"}}