{"cas_no": "4704-31-8", "cn_name": "\u4e59\u70ef\u57fa\u7678\u9178", "en_name": ["Vinyl decanoate", "Decanoic acid, ethenyl ester", "Decanoic acid, vinyl ester", "Vinyl decanoate", "Vinyl caprate", "Vinyl n-decanoate", "NSC 32648"], "SMILES": "C(CCCCCCCC)C(OC=C)=O", "physical_data": {"Molecular Weight": "198.30", "Molecular Formula": "C12H22O2", "Boiling Point": "121 \u00b0C @ Press: 15 Torr", "Density": "0.8681 g/cm\u00b3 @ Temp: 20 \u00b0C"}}