{"cas_no": "4706-81-4", "cn_name": "2-\u5341\u56db\u9187", "en_name": ["(\u00b1)-2-Tetradecanol", "2-Tetradecanol", "(\u00b1)-2-Tetradecanol", "1-Methyltridecyl alcohol", "NSC 87599"], "SMILES": "C(CCCCCCCCC)CCC(C)O", "physical_data": {"Molecular Weight": "214.39", "Molecular Formula": "C14H30O", "Boiling Point": "284 \u00b0C", "Melting Point": "34 \u00b0C"}}