{"cas_no": "4707-32-8", "cn_name": "3,4-\u4e8c\u6c22-2,2-\u4e8c\u7532\u57fa-2H-\u8418\u5e76[1,2-B]\u5421\u5583-5,6-\u4e8c\u916e", "en_name": ["\u03b2-Lapachone", "2H-Naphtho[1,2-b]pyran-5,6-dione, 3,4-dihydro-2,2-dimethyl-", "3,4-Dihydro-2,2-dimethyl-2H-naphtho[1,2-b]pyran-5,6-dione", "\u03b2-Lapachone", "SL 11001", "NSC 26326", "NSC 629749", "ARQ 501", "MB 12066", "2,2-Dimethyl-3,4-dihydrobenzo[h]chromene-5,6-dione"], "SMILES": "O=C1C=2C(C3=C(C1=O)CCC(C)(C)O3)=CC=CC2", "physical_data": {"Molecular Weight": "242.27", "Molecular Formula": "C15H14O3", "Melting Point": "154-156 \u00b0C"}}