{"cas_no": "4707-47-5", "cn_name": "2,4-\u4e8c\u7f9f\u57fa-3,6-\u4e8c\u7532\u57fa\u82ef\u7532\u9178\u7532\u916f", "en_name": ["Atraric acid", "Benzoic acid, 2,4-dihydroxy-3,6-dimethyl-, methyl ester", "\u03b2-Resorcylic acid, 3,6-dimethyl-, methyl ester", "Atraric acid", "Methyl \u03b2-orcinolcarboxylate", "Methyl 3,6-dimethyl-\u03b2-resorcylate", "Veramoss", "Methyl 2,4-dihydroxy-3,6-dimethylbenzoate", "Evernyl", "Methyl 3,6-dimethyl-2,4-dihydroxybenzoate", "Moss Synth", "Everniate", "Oakmoss synthetic", "LRG 201", "Methyl atrarate", "Methyl \u03b2-orsellinate", "Mousse cristal", "2,4-Dihydroxy-3,6-dimethyl-benzoic acid methyl ester"], "SMILES": "C(OC)(=O)C1=C(O)C(C)=C(O)C=C1C", "physical_data": {"Molecular Weight": "196.20", "Molecular Formula": "C10H12O4", "Melting Point": "143 \u00b0C"}}