{"cas_no": "4707-33-9", "cn_name": "ALPHA-\u62c9\u6777\u918c", "en_name": ["3,4-Dihydro-2,2-dimethyl-2H-naphtho[2,3-b]pyran-5,10-dione", "2H-Naphtho[2,3-b]pyran-5,10-dione, 3,4-dihydro-2,2-dimethyl-", "3,4-Dihydro-2,2-dimethyl-2H-naphtho[2,3-b]pyran-5,10-dione", "\u03b1-Lapachone", "NSC 26327", "NSC 629747", "2,2-Dimethyl-3,4-dihydro-2H-benzo[g]chromene-5,10-dione", "2,2-Dimethyl-3,4-dihydrobenzo[g]chromene-5,10-dione"], "SMILES": "O=C1C2=C(C(=O)C=3C1=CC=CC3)CCC(C)(C)O2", "physical_data": {"Molecular Weight": "242.27", "Molecular Formula": "C15H14O3", "Melting Point": "113-114 \u00b0C"}}