{"cas_no": "4707-71-5", "cn_name": "9-\u7532\u919b\u83f2", "en_name": ["9-Phenanthrenecarboxaldehyde", "9-Phenanthrenecarboxaldehyde", "9-Phenanthraldehyde", "9-Phenanthrenaldehyde", "9-Phenanthrenecarbaldehyde", "9-Formylphenanthrene", "NSC 1932", "9-Phenanthridinecarboxaldehyde", "Phenanthrene-9-carboxaldehyde"], "SMILES": "C(=O)C1=C2C(=C3C(=C1)C=CC=C3)C=CC=C2", "physical_data": {"Molecular Weight": "206.24", "Molecular Formula": "C15H10O", "Boiling Point": "160-170 \u00b0C @ Press: 1 Torr", "Melting Point": "101 \u00b0C"}}