{"cas_no": "4707-50-0", "cn_name": "2,4-\u4e8c\u7f9f\u57fa\u4e19\u57fa\u82ef\u7532\u9178", "en_name": ["2,4-Dihydroxy-6-propylbenzoic acid", "Benzoic acid, 2,4-dihydroxy-6-propyl-", "\u03b2-Resorcylic acid, 6-propyl-", "2,4-Dihydroxy-6-propylbenzoic acid", "Divaric acid", "Divarinolic acid", "Divarinic acid"], "SMILES": "C(O)(=O)C1=C(CCC)C=C(O)C=C1O", "physical_data": {"Molecular Weight": "196.20", "Molecular Formula": "C10H12O4", "Melting Point": "169 \u00b0C (decomp)"}}