{"cas_no": "4707-46-4", "cn_name": "2,4-\u4e8c\u7f9f\u57fa-3,6-\u4e8c\u7532\u57fa\u82ef\u7532\u9178", "en_name": ["3-Methylorsellinic acid", "Benzoic acid, 2,4-dihydroxy-3,6-dimethyl-", "\u03b2-Resorcylic acid, 3,6-dimethyl-", "2,4-Dihydroxy-3,6-dimethylbenzoic acid", "\u03b2-Orcinolcarboxylic acid", "3-Methylorsellinic acid", "3,6-Dimethyl-2,4-dihydroxybenzoic acid"], "SMILES": "C(O)(=O)C1=C(O)C(C)=C(O)C=C1C", "physical_data": {"Molecular Weight": "182.17", "Molecular Formula": "C9H10O4", "Melting Point": "185 \u00b0C"}}