{"cas_no": "4708-04-7", "cn_name": "1-\u4e19\u57fa\u4e8c\u6c2f\u5316\u78f7", "en_name": ["P-Propylphosphonic dichloride", "Phosphonic dichloride, P-propyl-", "Phosphonic dichloride, propyl-", "P-Propylphosphonic dichloride", "1-Propanephosphonyl chloride", "Propylphosphonic dichloride", "Dichloropropylphosphine oxide", "Propylphosphonyl dichloride", "Propanephosphonic dichloride", "1-Dichlorophosphorylpropane"], "SMILES": "C(P(Cl)(Cl)=O)CC", "physical_data": {"Molecular Weight": "160.97", "Molecular Formula": "C3H7Cl2OP", "Boiling Point": "76-77 \u00b0C @ Press: 11 Torr", "Density": "1.2922 g/cm\u00b3 @ Temp: 20 \u00b0C"}}