{"cas_no": "471-46-5", "cn_name": "\u8349\u9170\u80fa", "en_name": ["Oxamide", "Ethanediamide", "Oxamide", "Oxalamide", "Oxamimidic acid", "Oxalic acid diamide", "Diaminoglyoxal", "Oxamic acid amide", "NSC 2770"], "SMILES": "C(C(N)=O)(N)=O", "physical_data": {"Molecular Weight": "88.07", "Molecular Formula": "C2H4N2O2", "Melting Point": "350 \u00b0C (decomp)", "Density": "1.667 g/cm\u00b3"}}