{"cas_no": "471-87-4", "cn_name": "\u6c34\u82cf\u78b1", "en_name": ["(-)-Stachydrine", "Pyrrolidinium, 2-carboxy-1,1-dimethyl-, inner salt, (2S)-", "Stachydrine", "Pyrrolidinium, 2-carboxy-1,1-dimethyl-, hydroxide, inner salt, (S)-", "Methyl hygrate betaine", "1-Methylproline methylbetaine", "Hygric acid, methylbetaine", "S-(-)-Stachydrine", "L-Stachydrine", "(S)-2-Carboxy-1,1-dimethylpyrrolidinium hydroxide inner salt", "Cadabine", "Stachydrin", "Proline betaine", "(-)-Stachydrine", "N,N-Dimethyl-L-proline", "\u03b1-N-Dimethyl-L-proline", "(2S)-1,1-Dimethylpyrrolidin-1-ium-2-carboxylate", "(S)-1,1-Dimethylpyrrolidin-1-ium-2-carboxylate"], "SMILES": "C([O-])(=O)C1[N+](C)(C)CCC1", "physical_data": {"Molecular Weight": "", "Molecular Formula": "C7H13NO2", "Melting Point": "235 \u00b0C (decomp)"}}