{"cas_no": "471-69-2", "cn_name": "\u9f99\u8111\u9999\u9187\u916e", "en_name": ["Dipterocarpol", "Dammar-24-en-3-one, 20-hydroxy-", "Dipterocarpol", "Dammar-24-en-3-one, 20-hydroxy-, (20S)-", "20-Hydroxydammar-24-en-3-one", "Hydroxydammarenone II", "NSC 732192"], "SMILES": "CC12C(C3(C)C(CC1)C(C)(C)C(=O)CC3)CCC4C2(C)CCC4C(CCC=C(C)C)(C)O", "physical_data": {"Molecular Weight": "442.72", "Molecular Formula": "C30H50O2", "Melting Point": "134-135 \u00b0C"}}