{"cas_no": "471-47-6", "cn_name": "\u8349\u6c28\u9178", "en_name": ["Oxamic acid", "Acetic acid, 2-amino-2-oxo-", "Oxamic acid", "Acetic acid, aminooxo-", "2-Amino-2-oxoacetic acid", "OA", "Oxalamic acid", "Oxamidic acid", "Formic acid, (aminocarbonyl)-", "Glycine, 2-oxo-", "Oxalic acid monoamide", "Aminooxoacetic acid", "NSC 47001", "NSC 49416", "NSC 53102", "MeSH ID: D010072"], "SMILES": "C(C(O)=O)(N)=O", "physical_data": {"Molecular Weight": "89.05", "Molecular Formula": "C2H3NO3", "Melting Point": "210 \u00b0C (decomp)"}}