{"cas_no": "471-25-0", "cn_name": "\u4e19\u7094\u9178", "en_name": ["Propiolic acid", "2-Propynoic acid", "Propiolic acid", "Acetylenecarboxylic acid", "Propargylic acid", "Propynoic acid", "Carboxyacetylene", "Acetylenemonocarboxylic acid", "2-Propyne-1-carboxylic acid", "NSC 16152"], "SMILES": "C(C#C)(O)=O", "physical_data": {"Molecular Weight": "70.05", "Molecular Formula": "C3H2O2", "Boiling Point": "57 \u00b0C", "Melting Point": "9 \u00b0C", "Density": "1.1435 g/cm\u00b3 @ Temp: 15 \u00b0C"}}