{"cas_no": "471-95-4", "cn_name": "\u87fe\u6bd2\u5b83\u7075", "en_name": ["Bufotalin", "Bufa-20,22-dienolide, 16-(acetyloxy)-3,14-dihydroxy-, (3\u03b2,5\u03b2,16\u03b2)-", "5\u03b2-Bufa-20,22-dienolide, 3\u03b2,14,16\u03b2-trihydroxy-, 16-acetate", "(3\u03b2,5\u03b2,16\u03b2)-16-(Acetyloxy)-3,14-dihydroxybufa-20,22-dienolide", "Bufotalin", "3\u03b2,14,16\u03b2-Trihydroxy-5\u03b2-bufa-20,22-dienolide 16-acetate", "NSC 89596", "Bufotaline"], "SMILES": "CC12C(C(OC(C)=O)CC1(O)C3C(CC2)C4(C)C(CC3)CC(O)CC4)C=5C=CC(=O)OC5", "physical_data": {"Molecular Weight": "444.56", "Molecular Formula": "C26H36O6", "Melting Point": "223 \u00b0C (decomp)"}}