{"cas_no": "471-80-7", "cn_name": "\u751c\u53f6\u83ca\u7519\u5143", "en_name": ["(-)-Steviol", "Kaur-16-en-18-oic acid, 13-hydroxy-, (4\u03b1)-", "Kaur-16-en-18-oic acid, 13-hydroxy-", "Steviol", "(4\u03b1)-13-Hydroxykaur-16-en-18-oic acid", "Hydroxydehydrostevic acid", "13-Hydroxykaurenoic acid", "(-)-Steviol", "NSC 226902", "Ent-13-hydroxykauran-16-en-19-oic acid", "13-O-Glucosylsteviol"], "SMILES": "CC12C3C4(CC(O)(CC3)C(=C)C4)CCC1C(C(O)=O)(C)CCC2", "physical_data": {"Molecular Weight": "318.45", "Molecular Formula": "C20H30O3", "Melting Point": "212-213 \u00b0C"}}