{"cas_no": "471-05-6", "cn_name": "\u82b1\u8591\u916e", "en_name": ["Zerumbone", "2,6,10-Cycloundecatrien-1-one, 2,6,9,9-tetramethyl-, (2E,6E,10E)-", "Zerumbone", "2,6,10-Cycloundecatrien-1-one, 2,6,9,9-tetramethyl-, (E,E,E)-", "(2E,6E,10E)-2,6,9,9-Tetramethyl-2,6,10-cycloundecatrien-1-one", "Z 3902"], "SMILES": "CC1(C)C=CC(=O)C(C)=CCCC(C)=CC1", "physical_data": {"Molecular Weight": "218.33", "Molecular Formula": "C15H22O", "Melting Point": "67-69 \u00b0C"}}