{"cas_no": "4711-68-6", "cn_name": "N-(4-\u4e59\u6c27\u57fa\u82ef\u57fa)-3-\u7f9f\u57fa-2-\u8418\u7532\u9170\u80fa", "en_name": ["N-(4-Ethoxyphenyl)-3-hydroxy-2-naphthalenecarboxamide", "2-Naphthalenecarboxamide, N-(4-ethoxyphenyl)-3-hydroxy-", "2-Naphtho-p-phenetidide, 3-hydroxy-", "N-(4-Ethoxyphenyl)-3-hydroxy-2-naphthalenecarboxamide", "C.I. 37559", "Cibanaphthol RPH", "C.I. Azoic Coupling Component 30", "C.I. Azoic Coupling Component 46", "Naphthol AS-VL", "3-Hydroxy-2-naphtho-p-phenetidide", "4\u2032-Ethoxy-3-hydroxy-2-naphthanilide", "NSC 50690", "Dycosthol AS-VL"], "SMILES": "C(NC1=CC=C(OCC)C=C1)(=O)C2=CC3=C(C=C2O)C=CC=C3", "physical_data": {"Molecular Weight": "307.34", "Molecular Formula": "C19H17NO3", "Melting Point": "221-224 \u00b0C"}}