{"cas_no": "4712-55-4", "cn_name": "\u4e9a\u78f7\u9178\u4e8c\u82ef\u916f", "en_name": ["Diphenyl phosphite", "Phosphonic acid, diphenyl ester", "Phenyl phosphonate ((PhO)2HPO)", "Diphenyl phosphonate", "Diphenoxyphosphine oxide", "Diphenyl hydrogen phosphite", "JP 260", "Weston DPP", "Doverphos 213", "Diphenyl phosphite", "NSC 43786"], "SMILES": "O(P(OC1=CC=CC=C1)=O)C2=CC=CC=C2", "physical_data": {"Molecular Weight": "234.19", "Molecular Formula": "C12H11O3P", "Boiling Point": "218-219 \u00b0C @ Press: 25 Torr", "Melting Point": "12 \u00b0C", "Density": "1.2268 g/cm\u00b3 @ Temp: 25 \u00b0C"}}