{"cas_no": "4712-38-3", "cn_name": "\u6c18\u4ee3\u4e01\u9187", "en_name": ["1-Butanol-d", "1-Butanol-d", "Butyl alcohol-d", "Butanol-O-d", "n-Butanol-O-d", "1-Deuteriooxybutane"], "SMILES": "C(CC)CO[2H]", "physical_data": {"Molecular Weight": "", "Molecular Formula": "C4H9DO", "Boiling Point": "118 \u00b0C"}}