{"cas_no": "4714-67-4", "cn_name": "4-\u6c28\u57fa\u786b\u4ee3\u82ef\u7532\u9170\u80fa", "en_name": ["4-Aminobenzenecarbothioamide", "Benzenecarbothioamide, 4-amino-", "Benzamide, p-aminothio-", "4-Aminobenzenecarbothioamide", "p-Aminobenzothiamide", "4-Aminothiobenzamide", "NSC 18337"], "SMILES": "C(N)(=S)C1=CC=C(N)C=C1", "physical_data": {"Molecular Weight": "152.22", "Molecular Formula": "C7H8N2S", "Melting Point": "188 \u00b0C"}}