{"cas_no": "47165-57-1", "cn_name": "\u6b63\u5341\u56db\u70f7\u57fa\u7425\u73c0\u9178\u9150", "en_name": ["Dihydro-3-tetradecyl-2,5-furandione", "2,5-Furandione, dihydro-3-tetradecyl-", "Dihydro-3-tetradecyl-2,5-furandione", "Tetradecylsuccinic anhydride", "2-Tetradecylsuccinic anhydride", "NSC 79893", "3-Tetradecyloxolane-2,5-dione", "n-Tetradecylsuccinic anhydride"], "SMILES": "C(CCCCCCCCCCCCC)C1C(=O)OC(=O)C1", "physical_data": {"Molecular Weight": "296.44", "Molecular Formula": "C18H32O3", "Melting Point": "74 \u00b0C"}}