{"cas_no": "472-11-7", "cn_name": "\u9c81\u65af\u53ef\u7682\u82f7\u5143", "en_name": ["Ruscogenin", "Spirost-5-ene-1,3-diol, (1\u03b2,3\u03b2,25R)-", "Spirost-5-ene-1\u03b2,3\u03b2-diol, (25R)-", "Ruscogenin", "Spiro[8H-naphth[2\u2032,1\u2032:4,5]indeno[2,1-b]furan-8,2\u2032-[2H]pyran], spirost-5-ene-1,3-diol deriv.", "(1\u03b2,3\u03b2,25R)-Spirost-5-ene-1,3-diol", "25D-Spirost-5-ene-1\u03b2,3\u03b2-diol", "25R-Ruscogenin"], "SMILES": "CC12C3C(OC4(C3C)CCC(C)CO4)CC1C5C(CC2)C6(C)C(=CC5)CC(O)CC6O", "physical_data": {"Molecular Weight": "430.62", "Molecular Formula": "C27H42O4", "Melting Point": "198-202 \u00b0C"}}