{"cas_no": "472-15-1", "cn_name": "\u767d\u6866\u8102\u9178", "en_name": ["Betulinic acid", "Lup-20(29)-en-28-oic acid, 3-hydroxy-, (3\u03b2)-", "Mairin", "Lup-20(29)-en-28-oic acid, 3\u03b2-hydroxy-", "3aH-Cyclopenta[a]chrysene, lup-20(29)-en-28-oic acid deriv.", "(3\u03b2)-3-Hydroxylup-20(29)-en-28-oic acid", "Betulinic acid", "Betulic acid", "3\u03b2-Hydroxylup-20(29)-en-28-oic acid", "(+)-Betulinic acid", "\u03b2-Betulinic acid", "NSC 113090", "Lupatic acid"], "SMILES": "C(O)(=O)C12C(C3C(C)(CC1)C4(C)C(CC3)C5(C)C(CC4)C(C)(C)C(O)CC5)C(C(C)=C)CC2", "physical_data": {"Molecular Weight": "456.70", "Molecular Formula": "C30H48O3", "Melting Point": "303 \u00b0C"}}