{"cas_no": "472-70-8", "cn_name": "\u9690\u9ec4\u8d28", "en_name": ["Cryptoxanthin", "\u03b2,\u03b2-Caroten-3-ol, (3R)-", "\u03b2-Caroten-3-ol, (R)-all-trans-", "Neo-\u03b2-cryptoxanthin", "(3R)-\u03b2,\u03b2-Caroten-3-ol", "\u03b2-Cryptoxanthin, all-trans-", "\u03b2-Cryptoxanthin", "Cryptoxanthin", "Cryptoxanthol", "Neocryptoxanthin, all-trans-", "Neocryptoxanthol, all-trans-", "Cryptoxanthine", "Cryptoxanthin, all-trans-", "Cryptoxanthol, all-trans-", "Kryptoxanthin", "Xanthrophyll 1", "3-Hydroxy-\u03b2-carotene", "trans-Cryptoxanthin", "Caricaxanthin", "all-trans-\u03b2-Cryptoxanthin", "all-trans-Cryptoxanthin", "(3R)-Cryptoxanthin", "(3R)-\u03b2-Cryptoxanthin", "E 161c", "trans-\u03b2-Crytoxanthin", "Paprika carotene", "CRP 015"], "SMILES": "C(=CC(=CC=CC(=CC=CC=C(C=CC=C(C=CC=1C(C)(C)CCCC1C)C)C)C)C)C=2C(C)(C)CC(O)CC2C", "physical_data": {"Molecular Weight": "552.87", "Molecular Formula": "C40H56O", "Melting Point": "160 \u00b0C"}}