{"cas_no": "472-66-2", "cn_name": "2,6,6-\u4e09\u7532\u57fa-1-\u73af\u5df1\u70ef\u57fa\u4e59\u919b", "en_name": ["\u03b2-Apo-8-carotenal", "1-Cyclohexene-1-acetaldehyde, 2,6,6-trimethyl-", "2,6,6-Trimethyl-1-cyclohexene-1-acetaldehyde", "\u03b2-Apo-8-carotenal", "\u03b2-Cyclohomocitral", "\u03b2-Homocyclocitral", "(2,6,6-Trimethyl-1-cyclohexenyl)acetaldehyde", "2-(2,6,6-Trimethylcyclohex-1-enyl)acetaldehyde", "2,6,6-Trimethyl-1-cycloetheneyl-acetaldehyde", "2-(2,6,6-Trimethylcyclohex-1-en-1-yl)acetaldehyde"], "SMILES": "C(C=O)C=1C(C)(C)CCCC1C", "physical_data": {"Molecular Weight": "166.26", "Molecular Formula": "C11H18O", "Boiling Point": "101 \u00b0C @ Press: 11 Torr"}}