{"cas_no": "472-26-4", "cn_name": "\u8fdc\u534e\u87fe\u870d\u7cbe", "en_name": ["Telocinobufagin", "Bufa-20,22-dienolide, 3,5,14-trihydroxy-, (3\u03b2,5\u03b2)-", "Telocinobufagin", "5\u03b2-Bufa-20,22-dienolide, 3\u03b2,5,14-trihydroxy-", "(3\u03b2,5\u03b2)-3,5,14-Trihydroxybufa-20,22-dienolide", "Telocinobufogenin", "NSC 119989", "NSC 90782", "Telobufotoxin"], "SMILES": "OC12C3C(C4(C)C(O)(CC3)CC(O)CC4)CCC1(C)C(CC2)C=5C=CC(=O)OC5", "physical_data": {"Molecular Weight": "402.52", "Molecular Formula": "C24H34O5", "Melting Point": "208-214 \u00b0C"}}