{"cas_no": "472-61-7", "cn_name": "\u867e\u9752\u7d20", "en_name": ["Astaxanthin", "\u03b2,\u03b2-Carotene-4,4\u2032-dione, 3,3\u2032-dihydroxy-, (3S,3\u2032S)-", "\u03b2-Carotene-4,4\u2032-dione, 3,3\u2032-dihydroxy-, all-trans-", "Astaxanthin", "(3S,3\u2032S)-3,3\u2032-Dihydroxy-\u03b2,\u03b2-carotene-4,4\u2032-dione", "Ovoester", "Astaxanthin, all-trans-", "(3S,3\u2032S)-Astaxanthin", "all-trans-Astaxanthin", "trans-Astaxanthin", "(3S,3\u2032S)-all-trans-Astaxanthin", "(3S,3\u2032S)-Astaxanthin", "Carophyll Pink", "Natupink", "BioAstin oleoresin", "BioAstin", "Lucantin Pink", "AstaREAL", "NatuRose", "AstaXin", "Astared", "Astots 10O", "Astots 5O", "Aquasta", "(S,S)-Astaxanthin", "Astabio AR 5", "AstaREAL A1010", "Puresta W 05", "Astareal ACT", "Astacarox", "Astabio AR 1", "Astax S", "Astots ST", "all-trans-(3S,3\u2032S)-Astaxanthin", "Sunactive AX 310", "AstaZine", "Astots AWS", "Astots 50S", "Astabio AP1", "AstaCos", "AstaFit", "Panaferd D"], "SMILES": "C(=CC(=CC=CC(=CC=CC=C(C=CC=C(C=CC=1C(C)(C)CC(O)C(=O)C1C)C)C)C)C)C=2C(C)(C)CC(O)C(=O)C2C", "physical_data": {"Molecular Weight": "596.84", "Molecular Formula": "C40H52O4", "Melting Point": "182.5 \u00b0C"}}