{"cas_no": "472-41-3", "cn_name": "4-(2,2,4-\u4e09\u7532\u57fa-3,4-\u4e8c\u6c22-2H-\u8272\u70ef)\u82ef\u915a", "en_name": ["Chroman I", "Phenol, 4-(3,4-dihydro-2,2,4-trimethyl-2H-1-benzopyran-4-yl)-", "Phenol, p-(2,2,4-trimethyl-4-chromanyl)-", "4-(3,4-Dihydro-2,2,4-trimethyl-2H-1-benzopyran-4-yl)phenol", "Dianin's compound", "4-(4\u2032-Hydroxyphenyl)-2,2,4-trimethylchroman", "4-p-Hydroxyphenyl-2,2,4-trimethylchroman", "4-(4-Hydroxyphenyl)-2,2,4-trimethyl-4-chroman", "Chroman I", "4-(4-Hydroxyphenyl)-2,2,4-trimethylchroman", "2,2,4-Trimethyl-4-(4-hydroxyphenyl)chroman", "NSC 39757", "NSC 46014", "NSC 527817", "4-(3,4-dihydro-2,2,4-trimethyl-2H-1-benzopyran-4-yl)phenol", "4-(2,2,4-Trimethyl-4-chromanyl)phenol"], "SMILES": "CC1(C=2C(OC(C)(C)C1)=CC=CC2)C3=CC=C(O)C=C3", "physical_data": {"Molecular Weight": "268.35", "Molecular Formula": "C18H20O2", "Melting Point": "156-157 \u00b0C"}}