{"cas_no": "4720-29-0", "cn_name": "N-\u82c4\u57fa-3-\u6c28\u57fa\u4e19\u9187", "en_name": ["3-(Benzylamino)-1-propanol", "1-Propanol, 3-[(phenylmethyl)amino]-", "1-Propanol, 3-(benzylamino)-", "3-[(Phenylmethyl)amino]-1-propanol", "3-(Benzylamino)-1-propanol", "N-Benzyl-N-(3-hydroxypropyl)amine", "N-Benzyl-3-aminopropanol", "N-Benzyl-3-propanolamine", "N-Benzylpropanolamine", "NSC 165603", "NSC 17283", "3-(N-Benzylamino)propan-1-ol"], "SMILES": "C(NCCCO)C1=CC=CC=C1", "physical_data": {"Molecular Weight": "165.23", "Molecular Formula": "C10H15NO", "Boiling Point": "132 \u00b0C @ Press: 2 Torr"}}