{"cas_no": "4720-82-5", "cn_name": "\u4e8c\u54cc\u5576\u916e\u9187", "en_name": ["1,2-Bis(1,3-benzodioxol-5-yl)-2-hydroxyethanone", "Ethanone, 1,2-bis(1,3-benzodioxol-5-yl)-2-hydroxy-", "Piperonyloin", "1,2-Bis(1,3-benzodioxol-5-yl)-2-hydroxyethanone", "Piperoin", "3,4:3\u2032,4\u2032-Bis(methylenedioxy)benzoin", "NSC 39453", "NSC 40921", "Bis(3,4-methylenedioxy)benzoin"], "SMILES": "C(C(=O)C=1C=C2C(=CC1)OCO2)(O)C=3C=C4C(=CC3)OCO4", "physical_data": {"Molecular Weight": "300.26", "Molecular Formula": "C16H12O6", "Melting Point": "118 \u00b0C"}}