{"cas_no": "4720-86-9", "cn_name": "3,4,5,6-\u56db\u6c22\u90bb\u82ef\u4e8c\u7532\u9170\u4e9a\u80fa", "en_name": ["4,5,6,7-Tetrahydro-1H-isoindole-1,3(2H)-dione", "1H-Isoindole-1,3(2H)-dione, 4,5,6,7-tetrahydro-", "1-Cyclohexene-1,2-dicarboximide", "4,5,6,7-Tetrahydro-1H-isoindole-1,3(2H)-dione", "3,4,5,6-Tetrahydrophthalimide", "Tetrahydrophthalimide", "NSC 293561"], "SMILES": "O=C1C2=C(C(=O)N1)CCCC2", "physical_data": {"Molecular Weight": "151.16", "Molecular Formula": "C8H9NO2", "Melting Point": "170-175 \u00b0C (sublm)"}}