{"cas_no": "4721-17-9", "cn_name": "\u6b63\u5341\u516d\u70f7\u57fa\u78f7\u9178", "en_name": ["P-Hexadecylphosphonic acid", "Phosphonic acid, P-hexadecyl-", "Phosphonic acid, hexadecyl-", "P-Hexadecylphosphonic acid", "1-Hexadecanephosphonic acid", "Hexadecylphosphonic acid", "Hexadecanephosphonic acid", "n-Hexadecylphosphonic acid", "1-Hexadecylphosphonic acid"], "SMILES": "C(CCCCCCCCCCCCC)CCP(=O)(O)O", "physical_data": {"Molecular Weight": "306.42", "Molecular Formula": "C16H35O3P", "Melting Point": "94.5-95.5 \u00b0C"}}