{"cas_no": "4724-48-5", "cn_name": "\u8f9b\u57fa\u81a6\u9178", "en_name": ["Octylphosphonic acid", "Phosphonic acid, P-octyl-", "Phosphonic acid, octyl-", "P-Octylphosphonic acid", "Octanephosphonic acid", "1-Octanephosphonic acid", "Octylphosphonic acid", "n-Octylphosphonic acid", "n-Octyl-1-phosphonic acid", "Hostaphat OPS 75E", "Hostaphat OPS 100", "Hostaphat OPS 75"], "SMILES": "C(CCCCCCC)P(=O)(O)O", "physical_data": {"Molecular Weight": "194.21", "Molecular Formula": "C8H19O3P", "Boiling Point": "170 \u00b0C @ Press: 0.05 Torr", "Melting Point": "99.5-100.5 \u00b0C"}}