{"cas_no": "4724-47-4", "cn_name": "\u78f7\u9178\u6b63\u5341\u516b\u916f", "en_name": ["Octadecylphosphonic acid", "Phosphonic acid, P-octadecyl-", "Phosphonic acid, octadecyl-", "P-Octadecylphosphonic acid", "1-Octadecanephosphonic acid", "Stearylphosphonic acid", "Octadecylphosphonic acid", "n-Octadecylphosphonic acid", "Octadecanephosphonic acid", "ODPA", "1-Octadecylphosphonic acid"], "SMILES": "C(CCCCCCCCCCCCCCC)CCP(=O)(O)O", "physical_data": {"Molecular Weight": "334.47", "Molecular Formula": "C18H39O3P", "Melting Point": "98.5-99 \u00b0C"}}