{"cas_no": "4724-89-4", "cn_name": "1,3,5,5-\u56db\u7532\u57fa-1,3-\u73af\u5df1\u4e8c\u70ef", "en_name": ["1,3,5,5-Tetramethyl-1,3-cyclohexadiene", "1,3-Cyclohexadiene, 1,3,5,5-tetramethyl-", "1,3,5,5-Tetramethyl-1,3-cyclohexadiene", "NSC 123453"], "SMILES": "CC1(C)CC(C)=CC(C)=C1", "physical_data": {"Molecular Weight": "136.23", "Molecular Formula": "C10H16", "Boiling Point": "151-155 \u00b0C @ Press: 760 Torr", "Density": "0.9075 g/cm\u00b3 @ Temp: 20 \u00b0C"}}