{"cas_no": "4726-96-9", "cn_name": "O-\u82c4\u57fa-L-\u4e1d\u6c28\u9178", "en_name": ["O-Benzyl-L-serine", "L-Serine, O-(phenylmethyl)-", "Alanine, 3-(benzyloxy)-, L-", "O-(Phenylmethyl)-L-serine", "O-Benzyl-L-serine", "3-(Benzyloxy)-L-alanine", "O-Benzylserine", "L-O-Benzylserine", "(S)-2-Amino-3-(benzyloxy)propanoic acid", "(S)-2-Amino-3-benzyloxypropionic acid", "(2S)-2-Azaniumyl-3-phenylmethoxypropanoate", "(2S)-2-Amino-3-(benzyloxy)propanoic acid"], "SMILES": "C(OCC(C(O)=O)N)C1=CC=CC=C1", "physical_data": {"Molecular Weight": "195.22", "Molecular Formula": "C10H13NO3", "Melting Point": "218 \u00b0C"}}