{"cas_no": "4726-14-1", "cn_name": "\u7532\u78fa\u4e50\u7075", "en_name": ["Nitralin", "Benzenamine, 4-(methylsulfonyl)-2,6-dinitro-N,N-dipropyl-", "Aniline, 4-(methylsulfonyl)-2,6-dinitro-N,N-dipropyl-", "4-(Methylsulfonyl)-2,6-dinitro-N,N-dipropylbenzenamine", "Nitralin", "Planuin", "4-(Methylsulfonyl)-2,6-dinitro-N,N-dipropylaniline", "Planavin", "SD 11831", "2,6-Dinitro-4-methylsulfonyl-N,N-dipropylaniline", "Planavin 75", "Nitraline", "N,N-Dipropyl-2,6-dinitro-4-methylsulfonylaniline", "N,N-Dipropyl-4-methylsulfonyl-2,6-dinitroaniline", "2,6-Dinitro-4-methylsulfonyl-N-N-di-n-propylaniline"], "SMILES": "N(CCC)(CCC)C1=C(N(=O)=O)C=C(S(C)(=O)=O)C=C1N(=O)=O", "physical_data": {"Molecular Weight": "345.37", "Molecular Formula": "C13H19N3O6S", "Melting Point": "151-152 \u00b0C"}}