{"cas_no": "4727-17-7", "cn_name": "\u73af\u5341\u4e94(\u70f7)\u9170", "en_name": ["Cyclopentadecanol", "Cyclopentadecanol", "Exaltol", "Normuscol"], "SMILES": "OC1CCCCCCCCCCCCCC1", "physical_data": {"Molecular Weight": "226.40", "Molecular Formula": "C15H30O", "Boiling Point": "175-180 \u00b0C", "Melting Point": "80.5 \u00b0C"}}