{"cas_no": "4727-41-7", "cn_name": "\u4e8c\u7532\u57fa\u4e59\u9178\u567b\u4ead", "en_name": ["Dimethylsulfonioacetate", "Sulfonium, (carboxymethyl)dimethyl-, inner salt", "Sulfonium, (carboxymethyl)dimethyl-, hydroxide, inner salt", "(Carboxymethyl)dimethylsulfonium hydroxide, inner salt", "Acetothetin, dimethyl-", "Thiobetaine", "Dimethylthetin", "Dimethylsulfonioacetate", "Thetin, dimethyl-", "2,2-Dimethylthetin", "Sulfobetaine", "2-(Dimethylsulfaniumyl)acetate", "2-Dimethylsulfonioacetate"], "SMILES": "C(C([O-])=O)[S+](C)C", "physical_data": {"Molecular Weight": "", "Molecular Formula": "C4H8O2S", "Melting Point": "241-242 \u00b0C"}}