{"cas_no": "4727-50-8", "cn_name": "\u9690\u82b1\u9752", "en_name": ["Quinolinium, 1-ethyl-4-[3-(1-ethyl-4(1H)-quinolinylidene)-1-propen-1-yl]-, iodide (1:1)", "Quinolinium, 1-ethyl-4-[3-(1-ethyl-4(1H)-quinolinylidene)-1-propen-1-yl]-, iodide (1:1)", "Quinolinium, 1-ethyl-4-[3-(1-ethyl-4(1H)-quinolylidene)propenyl]-, iodide", "Quinolinium, 1-ethyl-4-[3-(1-ethyl-4(1H)-quinolinylidene)-1-propenyl]-, iodide", "1-Ethyl-4-[3-(1-ethyl-4(1H)-quinolylidene)propenyl]quinolinium iodide", "1,1\u2032-Diethyl-4,4\u2032-carbocyanine iodide", "1,1\u2032-Diethyl-4,4\u2032-quinocarbocyanine iodide", "Cryptocyanine O.A. 2", "Cryptocyanine", "Cryptocyanin", "1-Ethyl-4-[3-[1-ethyl-4(1H)-quinolylidene]-1-propenyl]quinolinium iodide", "Kryptocyanine iodide", "NK 5 (dye)", "Cryptocyanine iodide", "NK 5", "1,1\u2032-Diethylquino-(4)-carbocyanine iodide", "Kryptocyanin", "Eastman 1334", "1-Ethyl-4-[3-(1-ethyl-4(1H)quinolinylidene)-1-propenyl]quinolinium iodide", "NSC 34391", "S-LAM 66", "S-BAH 28", "S-FPM 2", "1-Ethyl-4-[3-(1-ethyl-1,4-dihydroquinolin-4-ylidene)prop-1-en-1-yl]quinolin-1-ium iodide"], "SMILES": "C(C=CC=1C2=C([N+](CC)=CC1)C=CC=C2)=C3C=4C(N(CC)C=C3)=CC=CC4.[I-]", "physical_data": {"Molecular Weight": "", "Molecular Formula": "C25H25N2.I", "Melting Point": "253-254 \u00b0C"}}