{"cas_no": "4727-29-1", "cn_name": "\u82ef\u915e\u6c28\u9178", "en_name": ["Phthalanilic acid", "Benzoic acid, 2-[(phenylamino)carbonyl]-", "Phthalanilic acid", "2-[(Phenylamino)carbonyl]benzoic acid", "N-Phenylphthalamic acid", "2-(Phenylcarbamoyl)benzoic acid", "o-(Phenylcarbamoyl)benzoic acid", "Phthalomonoanilide", "Phthalic monoanilide", "Nevirol", "Phthalic acid monoanilide", "N-Phenylphthalamidic acid", "2-Carboxybenzanilide", "Lemax", "NSC 26414", "2-(Anilinocarbonyl)benzoic acid"], "SMILES": "C(NC1=CC=CC=C1)(=O)C2=C(C(O)=O)C=CC=C2", "physical_data": {"Molecular Weight": "241.24", "Molecular Formula": "C14H11NO3", "Melting Point": "169 \u00b0C (decomp)"}}