{"cas_no": "4727-72-4", "cn_name": "N-\u82c4\u57fa-4-\u7f9f\u57fa\u54cc\u5576", "en_name": ["1-Benzyl-4-hydroxypiperidine", "4-Piperidinol, 1-(phenylmethyl)-", "4-Piperidinol, 1-benzyl-", "1-(Phenylmethyl)-4-piperidinol", "1-Benzyl-4-piperidinol", "1-Benzyl-4-hydroxypiperidine", "N-Benzyl-4-hydroxypiperidine", "NSC 72991", "4-Hydroxy-1-benzylpiperidine", "4-Hydroxy-N-benzylpiperidine", "N-Benzylpiperidin-4-ol"], "SMILES": "C(N1CCC(O)CC1)C2=CC=CC=C2", "physical_data": {"Molecular Weight": "191.27", "Molecular Formula": "C12H17NO", "Boiling Point": "127-128 \u00b0C @ Press: 2 Torr", "Melting Point": "61-62 \u00b0C"}}