{"cas_no": "4728-12-5", "cn_name": "5-\u7f9f\u7532\u57fa-2,2-\u4e8c\u7532\u57fa-1,3-\u4e8c\u6076\u70f7", "en_name": ["[2,2-Dimethyl-1,3-dioxan-5-yl)methanol", "1,3-Dioxane-5-methanol, 2,2-dimethyl-", "m-Dioxane-5-methanol, 2,2-dimethyl-", "2,2-Dimethyl-1,3-dioxane-5-methanol", "2,2-Dimethyl-5-hydroxymethyl-1,3-dioxane", "[2,2-Dimethyl-1,3-dioxan-5-yl)methanol", "2,2-Dimethyl-5-(hydroxymethyl)-1,3-dixoane"], "SMILES": "C(O)C1COC(C)(C)OC1", "physical_data": {"Molecular Weight": "146.18", "Molecular Formula": "C7H14O3", "Melting Point": "197-198 \u00b0C"}}