{"cas_no": "473-08-5", "cn_name": "alpha-\u9999\u9644\u916e", "en_name": ["(+)-\u03b1-Cyperone", "2(3H)-Naphthalenone, 4,4a,5,6,7,8-hexahydro-1,4a-dimethyl-7-(1-methylethenyl)-, (4aS,7R)-", "\u03b1-Cyperone", "Eudesma-4,11-dien-3-one", "2(3H)-Naphthalenone, 4,4a,5,6,7,8-hexahydro-1,4a-dimethyl-7-(1-methylethenyl)-, (4aS-cis)-", "(4aS,7R)-4,4a,5,6,7,8-Hexahydro-1,4a-dimethyl-7-(1-methylethenyl)-2(3H)-naphthalenone", "\u03b1-Cyperone, (+)-", "(+)-\u03b1-Cyperone"], "SMILES": "CC12C(CC(C(C)=C)CC1)=C(C)C(=O)CC2", "physical_data": {"Molecular Weight": "218.33", "Molecular Formula": "C15H22O", "Boiling Point": "177 \u00b0C @ Press: 20 Torr", "Melting Point": "232 \u00b0C", "Density": "0.9946 g/cm\u00b3 @ Temp: 25 \u00b0C"}}