{"cas_no": "473-98-3", "cn_name": "\u767d\u6866\u8102\u9187", "en_name": ["Betulin", "Lup-20(29)-ene-3,28-diol, (3\u03b2)-", "Lup-20(29)-ene-3\u03b2,28-diol", "Lup-20(30)-ene-3\u03b2,28-diol", "3aH-Cyclopenta[a]chrysene, lup-20(29)-ene-3,28-diol deriv.", "(3\u03b2)-Lup-20(29)-ene-3,28-diol", "Betuline", "Betulin", "Betulinol", "Trochol", "Betulol", "3\u03b2,28-Dihydroxylup-20(29)-ene", "NSC 4644", "Betulinic alcohol", "(+)-Betulin", "3,28-Dihydroxy-lupeol"], "SMILES": "C(O)C12C(C3C(C)(C4(C)C(CC3)C5(C)C(CC4)C(C)(C)C(O)CC5)CC1)C(C(C)=C)CC2", "physical_data": {"Molecular Weight": "442.72", "Molecular Formula": "C30H50O2", "Boiling Point": "157.8 \u00b0C @ Press: 12 Torr", "Melting Point": "250 \u00b0C", "Density": "0.9777 g/cm\u00b3 @ Temp: 16 \u00b0C"}}