{"cas_no": "473-29-0", "cn_name": "\u4e8c\u6c2f\u80faB", "en_name": ["N,N-Dichlorobenzenesulfonamide", "Benzenesulfonamide, N,N-dichloro-", "Dichloramine-B", "N,N-Dichlorobenzenesulfonamide", "N,N-Dichlorobenzenesulfamide", "Benzenesulfonic acid dichloroamide", "Benzenedichlorosulfamide", "Halogen H 1", "NSC 80504"], "SMILES": "S(N(Cl)Cl)(=O)(=O)C1=CC=CC=C1", "physical_data": {"Molecular Weight": "226.08", "Molecular Formula": "C6H5Cl2NO2S", "Melting Point": "58 \u00b0C"}}