{"cas_no": "473-15-4", "cn_name": "beta-\u6849\u53f6\u9187", "en_name": ["beta-Eudesmol", "2-Naphthalenemethanol, decahydro-\u03b1,\u03b1,4a-trimethyl-8-methylene-, (2R,4aR,8aS)-", "Eudesm-4(14)-en-11-ol", "\u03b2-Eudesmol", "2-Naphthalenemethanol, decahydro-\u03b1,\u03b1,4a-trimethyl-8-methylene-, [2R-(2\u03b1,4a\u03b1,8a\u03b2)]-", "2-Naphthalenemethanol, 1,2\u03b1,3,4,4a,5,6,7,8,8a\u03b1-decahydro-\u03b1,\u03b1,4a\u03b2-trimethyl-8-methylene-", "(2R,4aR,8aS)-Decahydro-\u03b1,\u03b1,4a-trimethyl-8-methylene-2-naphthalenemethanol", "\u03b2-Selinenol", "(+)-\u03b2-Eudesmol", "beta-Selinenol", "beta-Eudesmol"], "SMILES": "CC12C(CC(C(C)(C)O)CC1)C(=C)CCC2", "physical_data": {"Molecular Weight": "222.37", "Molecular Formula": "C15H26O", "Melting Point": "75.5-76 \u00b0C"}}