{"cas_no": "473-34-7", "cn_name": "N,N-\u4e8c\u6c2f\u5bf9\u7532\u82ef\u78fa\u9170\u80fa", "en_name": ["Dichloramine-T", "Benzenesulfonamide, N,N-dichloro-4-methyl-", "Dichloramine-T", "p-Toluenesulfonamide, N,N-dichloro-", "N,N-Dichloro-4-methylbenzenesulfonamide", "N,N-Dichloro-p-toluenesulfonamide", "Benzyl p-sulfondichloramide", "Peraktivin", "N,N-Dichloro-p-methylbenzenesulfonamide", "N,N-Dichloro-p-tolylsulfonamide", "N,N-Dichloro-4-toluenesulfonamide", "NSC 1130"], "SMILES": "S(N(Cl)Cl)(=O)(=O)C1=CC=C(C)C=C1", "physical_data": {"Molecular Weight": "240.11", "Molecular Formula": "C7H7Cl2NO2S", "Melting Point": "83 \u00b0C"}}