{"cas_no": "473-55-2", "cn_name": "(1\u03b1,2\u03b2,5\u03b1)-2,6,6-\u4e09\u7532\u57fa\u4e8c\u73af[3.1.1]\u5e9a\u70f7", "en_name": ["Pinane", "Bicyclo[3.1.1]heptane, 2,6,6-trimethyl-", "Pinane", "2,6,6-Trimethylbicyclo[3.1.1]heptane", "Dihydropinene", "NSC 76674"], "SMILES": "CC1(C)C2CC1CCC2C", "physical_data": {"Molecular Weight": "138.25", "Molecular Formula": "C10H18", "Boiling Point": "169 \u00b0C", "Melting Point": "&lt;25 \u00b0C", "Density": "0.8 g/cm\u00b3"}}