{"cas_no": "473-81-4", "cn_name": "\u7518\u6cb9\u9178", "en_name": ["Glyceric acid", "Propanoic acid, 2,3-dihydroxy-", "Glyceric acid", "2,3-Dihydroxypropanoic acid", "Glyceronic acid", "\u03b1,\u03b2-Hydroxypropionic acid", "Glycerolic acid", "\u03b2-Hydroxylactic acid", "2,3-Dihydroxypropionic acid", "DL-Glyceric acid", "(\u00b1)-Glyceric acid", "NSC 9227"], "SMILES": "C(C(O)=O)(CO)O", "physical_data": {"Molecular Weight": "106.08", "Molecular Formula": "C3H6O4", "Melting Point": "&lt;25 \u00b0C"}}