{"cas_no": "4730-22-7", "cn_name": "6-\u7532\u57fa-2-\u5e9a\u9187", "en_name": ["6-Methyl-2-heptanol", "2-Heptanol, 6-methyl-", "6-Methyl-2-heptanol", "2-Methylheptan-6-ol", "1,5-Dimethyl-1-hexanol", "2-Hydroxy-6-methylheptane", "(\u00b1)-6-Methyl-2-heptanol", "NSC 75858"], "SMILES": "C(CC(C)C)CC(C)O", "physical_data": {"Molecular Weight": "130.23", "Molecular Formula": "C8H18O", "Boiling Point": "174 \u00b0C", "Melting Point": "-105 \u00b0C", "Density": "0.8128 g/cm\u00b3 @ Temp: 20 \u00b0C"}}