{"cas_no": "4730-54-5", "cn_name": "1,4,7-\u4e09\u6c2e\u6742\u73af\u58ec\u70f7", "en_name": ["1,4,7-Triazacyclononane", "1H-1,4,7-Triazonine, octahydro-", "Octahydro-1H-1,4,7-triazonine", "1,4,7-Triazacyclononane", "NSC 681101", "1,4,7-Triazonane", "TACN"], "SMILES": "C1CNCCNCCN1", "physical_data": {"Molecular Weight": "129.20", "Molecular Formula": "C6H15N3", "Melting Point": "62 \u00b0C"}}