{"cas_no": "4731-65-1", "cn_name": "\u4e09(2-\u7532\u6c27\u57fa\u82ef\u57fa)\u81a6", "en_name": ["Tris(2-methoxyphenyl)phosphine", "Phosphine, tris(2-methoxyphenyl)-", "Phosphine, tris(o-methoxyphenyl)-", "Tris(2-methoxyphenyl)phosphine", "Tris(o-anisyl)phosphine", "Tri-o-anisylphosphine", "Tris(o-methoxyphenyl)phosphine", "Tri(o-methoxyphenyl)phosphine", "Tri(2-methoxyphenyl)phosphine", "NSC 93545", "Tris(2-methoxylphenyl)phosphine", "(o-Meoph)3p"], "SMILES": "P(C1=C(OC)C=CC=C1)(C2=C(OC)C=CC=C2)C3=C(OC)C=CC=C3", "physical_data": {"Molecular Weight": "352.36", "Molecular Formula": "C21H21O3P", "Melting Point": "204 \u00b0C"}}