{"cas_no": "4731-53-7", "cn_name": "\u4e09\u8f9b\u57fa\u81a6", "en_name": ["Trioctylphosphine", "Phosphine, trioctyl-", "Trioctylphosphine", "Tri-n-octylphosphine", "TOP", "NSC 102529", "Hishicolin P 8"], "SMILES": "P(CCCCCCCC)(CCCCCCCC)CCCCCCCC", "physical_data": {"Molecular Weight": "370.64", "Molecular Formula": "C24H51P", "Boiling Point": "291 \u00b0C", "Melting Point": "30 \u00b0C"}}