{"cas_no": "4733-50-0", "cn_name": "3,6-\u4e8c\u7f9f\u57fa\u90bb\u82ef\u4e8c\u7532\u8148", "en_name": ["3,6-Dihydroxy-1,2-benzenedicarbonitrile", "1,2-Benzenedicarbonitrile, 3,6-dihydroxy-", "Phthalonitrile, 3,6-dihydroxy-", "3,6-Dihydroxy-1,2-benzenedicarbonitrile", "2,3-Dicyanohydroquinone", "2,3-Dicyano-p-hydroquinone", "2,3-Dicyanobenzene-1,4-diol", "3,6-Dihydroxyphthalodinitrile", "3,6-Dihydroxyphthalonitrile", "2,3-Dicyanoquinol", "2,3-Dicyano-1,4-dihydroxybenzene", "NSC 43554", "1,4-Dihydroxy-2,3-dicyanobenzene", "2,6-Dihydroxyphthalonitrile"], "SMILES": "C(#N)C1=C(C#N)C(O)=CC=C1O", "physical_data": {"Molecular Weight": "160.13", "Molecular Formula": "C8H4N2O2", "Melting Point": "230 \u00b0C (decomp)"}}