{"cas_no": "4733-39-5", "cn_name": "2,9-\u4e8c\u7532\u57fa-4,7\u4e8c\u82ef\u57fa-1,10-\u83f2\u5570\u5549", "en_name": ["Bathocuproine", "1,10-Phenanthroline, 2,9-dimethyl-4,7-diphenyl-", "2,9-Dimethyl-4,7-diphenyl-1,10-phenanthroline", "Bathocuproine", "Bathocuproin", "4,7-Diphenyl-2,9-dimethyl-1,10-phenanthroline", "BCP (dye)", "BCP", "NSC 89195", "2,9-Dimethyl-4,7-diaphenyl-1,10-phenanthroline", "2,9-Dimethyl-4,7-diphenylphenanthroline", "LT-E 304"], "SMILES": "CC1=NC2=C3C(C(=CC(C)=N3)C4=CC=CC=C4)=CC=C2C(=C1)C5=CC=CC=C5", "physical_data": {"Molecular Weight": "360.45", "Molecular Formula": "C26H20N2", "Melting Point": "&gt;275 \u00b0C (decomp)"}}