{"cas_no": "4736-60-1", "cn_name": "\u4e09\u82ef\u57fa\u4e59\u57fa\u7898\u5316", "en_name": ["Ethyltriphenylphosphonium iodide", "Phosphonium, ethyltriphenyl-, iodide (1:1)", "Phosphonium, ethyltriphenyl-, iodide", "Ethyltriphenylphosphonium iodide", "Phenylphosphonium ethyl iodide", "Triphenylethylphosphonium iodide", "ETPPI", "Hishicolin ETPPI"], "SMILES": "[P+](CC)(C1=CC=CC=C1)(C2=CC=CC=C2)C3=CC=CC=C3.[I-]", "physical_data": {"Molecular Weight": "", "Molecular Formula": "C20H20P.I", "Melting Point": "164-165 \u00b0C"}}