{"cas_no": "4737-50-2", "cn_name": "\u6b63\u620a\u57fa\u787c\u9178", "en_name": ["B-Pentylboronic acid", "Boronic acid, B-pentyl-", "1-Pentaneboronic acid", "Boronic acid, pentyl-", "B-Pentylboronic acid", "Pentylboronic acid", "NSC 524968", "n-Pentylboronic acid"], "SMILES": "C(CCCC)B(O)O", "physical_data": {"Molecular Weight": "115.97", "Molecular Formula": "C5H13BO2", "Melting Point": "93-94 \u00b0C"}}