{"cas_no": "473923-97-6", "cn_name": "3-\u6c2f-5-\u7f9f\u57fa\u82ef\u7532\u8148", "en_name": ["3-Chloro-5-hydroxybenzonitrile", "Benzonitrile, 3-chloro-5-hydroxy-", "3-Chloro-5-hydroxybenzonitrile", "3-Chloro-5-cyanophenol"], "SMILES": "C(#N)C1=CC(Cl)=CC(O)=C1", "physical_data": {"Molecular Weight": "153.57", "Molecular Formula": "C7H4ClNO", "Melting Point": "165-166 \u00b0C"}}