{"cas_no": "474-74-8", "cn_name": "\u7518\u6c28\u77f3\u80c6\u9178", "en_name": ["Glycolithocholic acid", "Glycine, N-[(3\u03b1,5\u03b2)-3-hydroxy-24-oxocholan-24-yl]-", "Glycolithocholic acid", "Glycine, N-(3\u03b1-hydroxy-5\u03b2-cholan-24-oyl)-", "5\u03b2-Cholan-24-amide, N-(carboxymethyl)-3\u03b1-hydroxy-", "Cholane, glycine deriv.", "N-[(3\u03b1,5\u03b2)-3-Hydroxy-24-oxocholan-24-yl]glycine", "3\u03b1-Hydroxy-5\u03b2-cholanoylglycine", "Lithocholic acid glycine conjugate", "Lithocholylglycine", "3\u03b1-Hydroxy-5\u03b2-cholanic acid glycine ester", "3\u03b1-Hydroxy-N-(carboxymethyl)-5\u03b2-cholan-24-amide", "N-(3\u03b1-Hydroxy-5\u03b2-cholanoyl)glycine"], "SMILES": "CC12C(C3C(C4(C)C(CC3)CC(O)CC4)CC1)CCC2C(CCC(NCC(O)=O)=O)C", "physical_data": {"Molecular Weight": "433.62", "Molecular Formula": "C26H43NO4", "Melting Point": "212-214 \u00b0C"}}