{"cas_no": "474-25-9", "cn_name": "\u9e45\u53bb\u6c27\u80c6\u9178", "en_name": ["Chenodeoxycholic acid", "Cholan-24-oic acid, 3,7-dihydroxy-, (3\u03b1,5\u03b2,7\u03b1)-", "5\u03b2-Cholan-24-oic acid, 3\u03b1,7\u03b1-dihydroxy-", "5\u03b2-Cholanic acid, 3\u03b1,7\u03b1-dihydroxy-", "(3\u03b1,5\u03b2,7\u03b1)-3,7-Dihydroxycholan-24-oic acid", "Anthropodeoxycholic acid", "Anthropodesoxycholic acid", "Chenodeoxycholic acid", "Chenodesoxycholic acid", "3\u03b1,7\u03b1-Dihydroxycholanic acid", "Gallodesoxycholic acid", "17\u03b2-(1-Methyl-3-carboxypropyl)etiocholane-3\u03b1,7\u03b1-diol", "3\u03b1,7\u03b1-Dihydroxy-5\u03b2-cholanic acid", "3\u03b1,7\u03b1-Dihydroxy-5\u03b2-cholanoic acid", "Anthropododesoxycholic acid", "CDC", "3\u03b1,7\u03b1-Dihydroxy-5\u03b2-cholan-24-oic acid", "Chenic acid", "Chendol", "Chenodiol", "7\u03b1-Hydroxylithocholic acid", "Chenofalk", "Chenix", "Chenocol", "Chenodex", "Hekbilin", "Ulmenide", "Cholanorm", "Fluibil", "Chenocedon", "Kebilis", "Chenossil", "(+)-Chenodeoxycholic acid", "MeSH ID: D002635"], "SMILES": "CC12C(C3C(C4(C)C(CC3O)CC(O)CC4)CC1)CCC2C(CCC(O)=O)C", "physical_data": {"Molecular Weight": "392.57", "Molecular Formula": "C24H40O4", "Melting Point": "119 \u00b0C"}}