{"cas_no": "474-67-9", "cn_name": "\u83dc\u7c7d\u753e\u9187", "en_name": ["Brassicasterol", "Ergosta-5,22-dien-3-ol, (3\u03b2,22E)-", "Brassicasterol", "Ergosta-5,22-dien-3\u03b2-ol", "(3\u03b2,22E)-Ergosta-5,22-dien-3-ol", "Brassicasterin", "24(R)-Methylcholesta-5,22E-dien-3\u03b2-ol", "\u03945,22-Ergostadien-3\u03b2-ol", "\u03945,22-Ergostadienol", "Ergosta-5,22(E)-dien-3\u03b2-ol", "24-Methylcholesta-5,22-dien-3\u03b2-ol", "(22E,24R)-Ergosta-5,22-dien-3\u03b2-ol"], "SMILES": "CC12C(C3C(C4(C)C(=CC3)CC(O)CC4)CC1)CCC2C(C=CC(C(C)C)C)C", "physical_data": {"Molecular Weight": "398.66", "Molecular Formula": "C28H46O", "Melting Point": "205-213 \u00b0C"}}