{"cas_no": "474-08-8", "cn_name": "DEMISSIDINE", "en_name": ["Demissidine", "Solanidan-3-ol, (3\u03b2,5\u03b1)-", "5\u03b1-Solanidan-3\u03b2-ol", "Demissidine", "1H-Naphth[2\u2032,1\u2032:4,5]indeno[1,2-b]indolizine, solanidan-3-ol deriv.", "(3\u03b2,5\u03b1)-Solanidan-3-ol", "Demissidin", "Dihydrosolanidine", "NSC 409074"], "SMILES": "CC12C3C(N4C(C3C)CCC(C)C4)CC1C5C(CC2)C6(C)C(CC5)CC(O)CC6", "physical_data": {"Molecular Weight": "399.65", "Molecular Formula": "C27H45NO", "Melting Point": "216.0-217.5 \u00b0C"}}