{"cas_no": "474-07-7", "cn_name": "\u82cf\u678b\u7cbe", "en_name": ["(+)-Brazilin", "Benz[b]indeno[1,2-d]pyran-3,6a,9,10(6H)-tetrol, 7,11b-dihydro-, (6aS,11bR)-", "Benz[b]indeno[1,2-d]pyran-3,6a,9,10(6H)-tetrol, 7,11b-dihydro-, (6aS-cis)-", "Brazilin", "(6aS,11bR)-7,11b-Dihydrobenz[b]indeno[1,2-d]pyran-3,6a,9,10(6H)-tetrol", "Brasilin", "Braziletto", "Hypernic Extract", "Limawood Extract", "Pernambuco Extract", "Superbresiline", "(+)-Brazilin", "NSC 56652", "(6AS,11bR)-7,11b-dihydro-6H-indeno[2,1-c]chromene-3,6a,9,10-tetrol"], "SMILES": "OC12C(C=3C(C1)=CC(O)=C(O)C3)C=4C(OC2)=CC(O)=CC4", "physical_data": {"Molecular Weight": "", "Molecular Formula": "C16H14O5", "Melting Point": "156-157 \u00b0C"}}