{"cas_no": "474-62-4", "cn_name": "\u83dc\u6cb9\u753e\u9187", "en_name": ["Campesterol", "Ergost-5-en-3-ol, (3\u03b2,24R)-", "Campesterol", "Ergost-5-en-3\u03b2-ol, (24R)-", "(3\u03b2,24R)-Ergost-5-en-3-ol", "Campesterin", "(24R)-24-Methylcholest-5-en-3\u03b2-ol", "24\u03b1-Methylcholesterol", "(24R)-5-Ergosten-3\u03b2-ol", "24\u03b1-Methyl-5-cholesten-3\u03b2-ol", "(24R)-Methylcholest-5-en-3\u03b2-ol", "\u03945-24-Isoergosten-3\u03b2-ol", "24(R)-Methylcholesterol", "NSC 224330", "Campasterol"], "SMILES": "CC12C(C3C(C4(C)C(=CC3)CC(O)CC4)CC1)CCC2C(CCC(C(C)C)C)C", "physical_data": {"Molecular Weight": "400.68", "Molecular Formula": "C28H48O", "Melting Point": "157.5 \u00b0C"}}