{"cas_no": "474-69-1", "cn_name": "\u5149\u753e\u9187", "en_name": ["Lumisterol", "Ergosta-5,7,22-trien-3-ol, (3\u03b2,9\u03b2,10\u03b1,22E)-", "9\u03b2,10\u03b1-Ergosta-5,7,22-trien-3\u03b2-ol", "Lumisterol", "9\u03b2,10\u03b1-Ergosta-5,7,22-trien-3-ol", "(3\u03b2,9\u03b2,10\u03b1,22E)-Ergosta-5,7,22-trien-3-ol", "9\u03b2,10\u03b1-Ergosterol", "Lumisterol2"], "SMILES": "CC12C(C=3C(C4(C)C(=CC3)CC(O)CC4)CC1)CCC2C(C=CC(C(C)C)C)C", "physical_data": {"Molecular Weight": "396.65", "Molecular Formula": "C28H44O", "Melting Point": "118 \u00b0C"}}