{"cas_no": "474-58-8", "cn_name": "\u897f\u6258\u7cd6\u82f7", "en_name": ["Daucosterol", "\u03b2-D-Glucopyranoside, (3\u03b2)-stigmast-5-en-3-yl", "Stigmast-5-ene, 3\u03b2-(\u03b2-D-glucopyranosyloxy)-", "Daucosterin", "Stigmastane, \u03b2-D-glucopyranoside deriv.", "(3\u03b2)-Stigmast-5-en-3-yl \u03b2-D-glucopyranoside", "Daucosterol", "(-)-\u03b2-Sitosterol glucoside", "Stigmast-5-ene, 3-(\u03b2-D-glucopyranosyloxy)-, (3\u03b2)-", "Eleutheroside A", "\u03b2-Sitosterol D-glucopyranoside", "\u03b2-Sitosterol D-glucoside", "\u03b2-Sitosterol \u03b2-D-glucopyranoside", "\u03b2-Sitosterol O-glucoside", "\u03b2-Sitosteryl \u03b2-D-glucoside", "Alexandrin", "Sitosterol glucoside", "Sterolin", "\u03b2-Sitosterol glucoside", "3-O-\u03b2-D-Glucopyranosylsitosterol", "Coriandrinol", "\u03b2-Sitosterol \u03b2-glucoside", "\u03b2-Sitosterol 3-O-glucoside", "\u03b2-Sitosterol monoglucoside", "Sitogluside", "\u03b2-Sitosteryl 3-\u03b2-D-glucoside", "Sitosterol D-glucoside", "Sitosteryl glucoside", "\u03b2-Sitosteryl 3-O-\u03b2-D-glucoside", "\u03b2-Sitosteryl glucoside", "\u03b2-Sitosterol 3-O-\u03b2-glucopyranoside", "\u03b2-Sitosterol O-\u03b2-D-glucoside", "\u03b2-Sitosteryl 3-glucoside", "Doursterol", "Stigmast-5-en-3\u03b2-yl \u03b2-D-glucopyranoside", "Sitosterol 3-O-\u03b2-D-glucopyranoside", "\u03b2-Sitosterol \u03b2-glucopyranoside", "\u03b2-Sitosteryl 3-O-glucoside", "Sitosteryl 3\u03b2-glucoside", "\u03b2-Sitosterol 3-O-\u03b2-D-glucopyranoside", "\u03b2-Sitosterol \u03b2-D-glycopyranoside", "\u03b2-Sitosterol \u03b2-D-glucoside", "\u03b2-Sitosterol glucopyranoside", "3-(\u03b2-D-Glucopyranosyloxy)stigmast-5-ene", "3-O-\u03b2-D-Glucopyranosyl-\u03b2-sitosterol", "\u03b2-Daucosterol", "1513DMIa", "(-)-\u03b2-Sitosterol \u03b2-D-glucopyranoside", "\u03b2-Sitosterol 3-O-\u03b2-D-glucoside", "3-O-\u03b2-D-Glucosyl-\u03b2-sitosterol", "3\u03b2-D-Glucosyl-\u03b2-sitosterol", "Sitosteryl \u03b2-D-glucopyranoside", "\u03b2-Sitosterol 3-\u03b2-D-glucopyranoside", "\u03b2-Sitosteryl 3-O-\u03b2-D-glucopyranoside", "\u03b2-Sitosteryl \u03b2-D-glucopyranoside", "Sitosteryl 3\u03b2-D-glucopyranoside", "WA 184", "AW 10", "EU 4906", "BSSG", "NSC 165962", "Stigmast-5-en-3-\u03b2-glucopyranoside", "Sitosterol 3-O-\u03b2-glucoside", "\u03b2-Sitosterol-3-glucoside", "\u03b2-Daucosterin", "\u03b2-Sitosterol 3-O-D-glucoside", "Sitosterol 3-O-\u03b2-glucopyranoside", "3-O-D-Glucopyranosyl-\u03b2-sitosterol", "Daucosterine", "Sitosterol glucopyranoside", "3\u03b2-Sitoster-3-yl \u03b2-D-glucopyranoside", "Strumaroside", "\u03b2-Sitosterol 3-O-\u03b2-glucoside", "3-(\u03b2-D-Glucopyranosyloxy)sitosterol", "Sitosteryl-O-D-glucopyranoside", "\u03b2-Sitosterol-D-glycoside"], "SMILES": "CC12C(C3C(C4(C)C(=CC3)CC(OC5OC(CO)C(O)C(O)C5O)CC4)CC1)CCC2C(CCC(C(C)C)CC)C", "physical_data": {"Molecular Weight": "576.85", "Molecular Formula": "C35H60O6", "Melting Point": "290-295 \u00b0C"}}