{"cas_no": "474-86-2", "cn_name": "\u9a6c\u7a00\u96cc\u753e\u916e", "en_name": ["Equilin", "Estra-1,3,5(10),7-tetraen-17-one, 3-hydroxy-", "Equilin", "3-Hydroxyestra-1,3,5(10),7-tetraen-17-one", "1,3,5,7-Estratetraen-3-ol-17-one", "7-Dehydroestrone", "NSC 10971", "MeSH ID: D004857"], "SMILES": "CC12C(C=3C(C=4C(CC3)=CC(O)=CC4)CC1)CCC2=O", "physical_data": {"Molecular Weight": "268.35", "Molecular Formula": "C18H20O2", "Melting Point": "239 \u00b0C"}}