{"cas_no": "474-60-2", "cn_name": "\u6cb9\u83dc\u753e\u9187", "en_name": ["Campestanol", "Ergostan-3-ol, (3\u03b2,5\u03b1,24R)-", "5\u03b1-Ergostan-3\u03b2-ol, (24R)-", "Campestanol", "(3\u03b2,5\u03b1,24R)-Ergostan-3-ol", "Chalinastanol", "Neospongosterol, dihydro-", "Dihydrocampesterin", "5\u03b1-Dihydrocampesterol", "24\u03b2-Ethylcholestanol", "24\u03b2-Methylcholestanol"], "SMILES": "CC12C(C3C(C4(C)C(CC3)CC(O)CC4)CC1)CCC2C(CCC(C(C)C)C)C", "physical_data": {"Molecular Weight": "402.70", "Molecular Formula": "C28H50O", "Melting Point": "146-147 \u00b0C"}}