{"cas_no": "474-73-7", "cn_name": "(3\u0392,24S) - \u80c6\u753e-5 - \u70ef-3,24-\u4e8c\u9187", "en_name": ["24(S)-Hydroxycholesterol", "Cholest-5-ene-3,24-diol, (3\u03b2,24S)-", "Cholest-5-ene-3\u03b2,24-diol", "(3\u03b2,24S)-Cholest-5-ene-3,24-diol", "Cerebrosterol", "24-Hydroxycholesterol", "Cholest-5-ene-3\u03b2,24\u03b2-diol", "Cerebrosterin", "24S-Cholest-5-ene-3\u03b2,24-diol", "(24S)-24-Hydroxycholesterol", "24(S)-Hydroxycholesterol"], "SMILES": "CC12C(C3C(C4(C)C(=CC3)CC(O)CC4)CC1)CCC2C(CCC(C(C)C)O)C", "physical_data": {"Molecular Weight": "402.65", "Molecular Formula": "C27H46O2", "Melting Point": "174-176 \u00b0C"}}