{"cas_no": "4740-78-7", "cn_name": "\u7518\u6cb9\u7f29\u7532\u919b", "en_name": ["1,3-Dioxan-5-ol", "1,3-Dioxan-5-ol", "m-Dioxan-5-ol", "5-Hydroxy-1,3-dioxane", "5-Hydroxy-m-dioxane", "1,3-Formalglycerol", "5-M-Dioxanol"], "SMILES": "OC1COCOC1", "physical_data": {"Molecular Weight": "104.10", "Molecular Formula": "C4H8O3", "Boiling Point": "193.8 \u00b0C @ Press: 760 Torr", "Melting Point": "190-195 \u00b0C", "Density": "1.2200 g/cm\u00b3 @ Temp: 25 \u00b0C"}}