{"cas_no": "4740-24-3", "cn_name": "4-(\u4e01\u6c28\u57fa)\u82ef\u7532\u9178", "en_name": ["4-(Butylamino)benzoic acid", "Benzoic acid, 4-(butylamino)-", "Benzoic acid, p-(butylamino)-", "4-(Butylamino)benzoic acid", "p-Butylaminobenzoic acid", "NSC 44300"], "SMILES": "N(CCCC)C1=CC=C(C(O)=O)C=C1", "physical_data": {"Molecular Weight": "193.24", "Molecular Formula": "C11H15NO2", "Melting Point": "156 \u00b0C"}}