{"cas_no": "4741-99-5", "cn_name": "N,N'-\u4e8c(2-\u6c28\u4e59\u57fa)-1,3-\u4e19\u4e8c\u80fa", "en_name": ["N,N\u2032-Bis(2-aminoethyl)-1,3-propanediamine", "1,3-Propanediamine, N1,N3-bis(2-aminoethyl)-", "1,3-Propanediamine, N,N\u2032-bis(2-aminoethyl)-", "N1,N3-Bis(2-aminoethyl)-1,3-propanediamine", "3,7-Diazanonane-1,9-diamine", "Ethylene(trimethylene)ethylenetetramine", "N,N\u2032-Bis(2-aminoethyl)propane-1,3-diamine", "1,9-Diamino-3,7-diazanonane", "1,4,8,11-Tetraazaundecane", "3,7-Diaza-1,9-diaminononane", "1,3-Bis[(2\u2032-aminoethyl)amino]propane", "2,3,2-Tet", "NSC 19173", "N,N\u2032-Bis(2-aminoethyl)-1,3-propanediamine", "1,3-Bis(2-aminoethylamino)propane", "Triethylene 2,3,2 tetramine", "2,3,2-Tetramine"], "SMILES": "C(CNCCN)CNCCN", "physical_data": {"Molecular Weight": "160.26", "Molecular Formula": "C7H20N4", "Boiling Point": "185-186 \u00b0C @ Press: 35 Torr", "Density": "0.9501 g/cm\u00b3 @ Temp: 20 \u00b0C"}}