{"cas_no": "4741-53-1", "cn_name": "\u56db\u82ef\u57fa\u90bb\u82ef\u4e8c\u7532\u9178\u9150", "en_name": ["Tetraphenylphthalic anhydride", "1,3-Isobenzofurandione, 4,5,6,7-tetraphenyl-", "[m-Terphenyl]-4\u2032,5\u2032-dicarboxylic anhydride, 2\u2032,6\u2032-diphenyl-", "Phthalic anhydride, tetraphenyl-", "4,5,6,7-Tetraphenyl-1,3-isobenzofurandione", "[1,1\u2032:4\u2032,1\u2032\u2032-Terphenyl]-2\u2032,3\u2032-dicarboxylic anhydride, 5\u2032,6\u2032-diphenyl-", "[1,1\u2032:2\u2032,1\u2032\u2032-Terphenyl]-3\u2032,4\u2032-dicarboxylic anhydride, 5\u2032,6\u2032-diphenyl-", "Tetraphenylphthalic anhydride", "3,4,5,6-Tetraphenylphthalic anhydride", "NSC 46729"], "SMILES": "O=C1C2=C(C(=C(C(=C2C(=O)O1)C3=CC=CC=C3)C4=CC=CC=C4)C5=CC=CC=C5)C6=CC=CC=C6", "physical_data": {"Molecular Weight": "452.50", "Molecular Formula": "C32H20O3", "Melting Point": "286 \u00b0C"}}