{"cas_no": "4743-58-2", "cn_name": "\u70ed\u5fc5\u65af-3-\u4e59\u9178", "en_name": ["1,3-Dihydro-3-oxo-1-isobenzofuranacetic acid", "1-Isobenzofuranacetic acid, 1,3-dihydro-3-oxo-", "1-Phthalanacetic acid, 3-oxo-", "1,3-Dihydro-3-oxo-1-isobenzofuranacetic acid", "3-Phthalideacetic acid", "Benzenepropanoic acid, 2-carboxy-\u03b2-hydroxy-, \u03b3-lactone", "(3-Oxo-1,3-dihydro-2-benzofuran-1-yl)acetic acid", "2-(3-Oxo-1H-2-benzofuran-1-yl)acetic acid", "2-(3-Oxo-1,3-dihydro-2-benzofuran-1-yl)acetic acid", "2-(3-Oxo-1,3-dihydroisobenzofuran-1-yl)acetic acid"], "SMILES": "C(C(O)=O)C1C=2C(C(=O)O1)=CC=CC2", "physical_data": {"Molecular Weight": "192.17", "Molecular Formula": "C10H8O4", "Melting Point": "151 \u00b0C"}}