{"cas_no": "4743-82-2", "cn_name": "3-\u4e59\u9170\u57fa\u4e19\u70ef\u9178", "en_name": ["4-Oxo-2-pentenoic acid", "2-Pentenoic acid, 4-oxo-", "4-Oxo-2-pentenoic acid", "\u03b2-Acetylacrylic acid", "Acetylacrylic acid", "3-Acetylacrylic acid", "\u03b2-Acetoacrylic acid", "4-Oxopentenoic acid"], "SMILES": "C(=CC(O)=O)C(C)=O", "physical_data": {"Molecular Weight": "114.10", "Molecular Formula": "C5H6O3", "Melting Point": "125-126 \u00b0C"}}