{"cas_no": "4743-17-3", "cn_name": "5-\u6c2f\u975b\u7ea2\u9178\u9150", "en_name": ["5-Chloroisatoic anhydride", "2H-3,1-Benzoxazine-2,4(1H)-dione, 6-chloro-", "Isatoic anhydride, 5-chloro-", "6-Chloro-2H-3,1-benzoxazine-2,4(1H)-dione", "5-Chloroisatoic anhydride", "6-Chloro-1,2-dihydro-4H-3,1-benzoxazine-2,4-dione", "6-Chloro-1H-benzo[d][1,3]oxazine-2,4-dione", "NSC 139890", "NSC 75847", "6-Chloro-2H-3,1-dihydrobenzoxazine-2,4-dione"], "SMILES": "O=C1C=2C(NC(=O)O1)=CC=C(Cl)C2", "physical_data": {"Molecular Weight": "197.58", "Molecular Formula": "C8H4ClNO3", "Melting Point": "278-281 \u00b0C"}}