{"cas_no": "4744-10-9", "cn_name": "1,1-\u4e8c\u7532\u6c27\u57fa\u4e19\u70f7", "en_name": ["1,1-Dimethoxypropane", "Propane, 1,1-dimethoxy-", "Propionaldehyde, dimethyl acetal", "1,1-Dimethoxypropane", "Propanal dimethyl acetal", "3-Ethyl-2,4-dioxapentane"], "SMILES": "C(CC)(OC)OC", "physical_data": {"Molecular Weight": "104.15", "Molecular Formula": "C5H12O2", "Boiling Point": "89 \u00b0C", "Density": "0.849 g/cm\u00b3 @ Temp: 21 \u00b0C"}}