{"cas_no": "4744-50-7", "cn_name": "2,3-\u5421\u55ea\u4e8c\u9178\u9150", "en_name": ["Furo[3,4-b]pyrazine-5,7-dione", "Furo[3,4-b]pyrazine-5,7-dione", "2,3-Pyrazinedicarboxylic anhydride", "2,3-Pyrazinedicarboxylic acid anhydride"], "SMILES": "O=C1C=2C(C(=O)O1)=NC=CN2", "physical_data": {"Molecular Weight": "150.09", "Molecular Formula": "C6H2N2O3", "Melting Point": "&gt;170 \u00b0C (decomp)"}}