{"cas_no": "4744-08-5", "cn_name": "\u4e19\u919b\u4e8c\u4e59\u57fa\u4e59\u7f29\u919b", "en_name": ["1,1-Diethoxypropane", "Propane, 1,1-diethoxy-", "Propionaldehyde, diethyl acetal", "1,1-Diethoxypropane", "Propanal diethylacetal", "Propionaldehyde ethyl acetal", "NSC 227930"], "SMILES": "C(OCC)(OCC)CC", "physical_data": {"Molecular Weight": "132.20", "Molecular Formula": "C7H16O2", "Boiling Point": "123 \u00b0C", "Density": "0.833 g/cm\u00b3 @ Temp: 25 \u00b0C"}}