{"cas_no": "474510-57-1", "cn_name": "\u5149\u5f15\u53d1\u5242127", "en_name": ["Irgacure 127", "1-Propanone, 1,1\u2032-(methylene-di-4,1-phenylene)bis[2-hydroxy-2-methyl-", "1,1\u2032-(Methylene-di-4,1-phenylene)bis[2-hydroxy-2-methyl-1-propanone]", "Bis[4-(2-hydroxy-2-methylpropionyl)phenyl]methane", "Irgacure 127", "2-Hydroxy-1-[4-[4-(2-hydroxy-2-methylpropionyl)benzyl]phenyl]-2-methylpropan-1-one", "BASF 127", "Photoinitiator 127", "2-Hydroxy-1-[4-[4-(2-hydroxy-2-methyl-propionyl)-benzyl]-phenyl]-2-methyl-1-propan-1-one", "Omnirad 127", "IGM 127"], "SMILES": "C(C(C)(C)O)(=O)C1=CC=C(CC2=CC=C(C(C(C)(C)O)=O)C=C2)C=C1", "physical_data": {"Molecular Weight": "340.41", "Molecular Formula": "C21H24O4", "Melting Point": "91.3-92.0 \u00b0C"}}