{"cas_no": "47458-32-2", "cn_name": "\u5341\u516b\u70f7\u57fa\u7425\u73c0\u9178\u9150", "en_name": ["Dihydro-3-octadecyl-2,5-furandione", "2,5-Furandione, dihydro-3-octadecyl-", "Dihydro-3-octadecyl-2,5-furandione", "Octadecylsuccinic anhydride", "n-Octadecylsuccinic anhydride", "Stearylsuccinic anhydride", "NSC 79894", "2-Octadecylsuccinic anhydride", "3-Octadecyloxolane-2,5-dione"], "SMILES": "C(CCCCCCCCCCCCCCCCC)C1C(=O)OC(=O)C1", "physical_data": {"Molecular Weight": "352.55", "Molecular Formula": "C22H40O3", "Melting Point": "80-81 \u00b0C"}}