{"cas_no": "4746-97-8", "cn_name": "1,4-\u73af\u5df1\u4e8c\u916e\u5355\u4e59\u4e8c\u9187\u7f29\u916e", "en_name": ["1,4-Dioxaspiro[4.5]decan-8-one", "1,4-Dioxaspiro[4.5]decan-8-one", "1,4-Cyclohexanedione, cyclic 1,2-ethanediyl acetal", "4,4-(Ethylenedioxy)cyclohexanone", "1,4-Cyclohexanedione cyclic ethylene monoketal", "8-Oxo-1,4-dioxaspiro[4.5]decane", "1,4-Cyclohexanedione monoethylene acetal", "Cyclohexane-1,4-dione mono(ethylene glycol ketal)", "1,4-Cyclohexanedione mono(ethylene ketal)", "4-(Ethylenedioxy)cyclohexanone", "1,4-Dioxaspiro[4.5]decane-8-one", "1,4-Cyclohexanedione ethylene monoketal", "Cyclohexan-1,4-dione monoethylene ketal"], "SMILES": "O=C1CCC2(CC1)OCCO2", "physical_data": {"Molecular Weight": "156.18", "Molecular Formula": "C8H12O3", "Boiling Point": "125-128 \u00b0C @ Press: 12 Torr", "Melting Point": "73.5-74.5 \u00b0C"}}