{"cas_no": "4747-21-1", "cn_name": "N-\u5f02\u4e19\u57fa\u7532\u80fa", "en_name": ["Methylisopropylamine", "2-Propanamine, N-methyl-", "Ethylamine, N,1-dimethyl-", "Isopropylamine, N-methyl-", "N-Methylisopropylamine", "2-(Methylamino)propane", "Methylisopropylamine", "Isopropylmethylamine", "N,1-Dimethylethylamine", "N-Methyl-N-isopropylamine", "N-Methyl-2-propanamine", "N-Isopropyl-N-methylamine", "N-Methyl-N-(1-methylethyl)amine", "N-Isopropylmethylamine", "NSC 1065", "Methyl(1-methylethyl)amine", "(Methyl)(propan-2-yl)amine", "Methyl(propan-2-yl)amine", "N-Methyl-2-propylamine"], "SMILES": "C(NC)(C)C", "physical_data": {"Molecular Weight": "73.14", "Molecular Formula": "C4H11N", "Boiling Point": "50.4 \u00b0C", "Density": "0.7026 g/cm\u00b3 @ Temp: 19 \u00b0C"}}