{"cas_no": "474709-28-9", "cn_name": "4-(\u4e09\u6c1f\u7532\u6c27\u57fa)\u82ef\u57fa\u787c\u9178\u9891\u90a3\u9187\u916f", "en_name": ["4,4,5,5-Tetramethyl-2-[4-(trifluoromethoxy)phenyl]-1,3,2-dioxaborolane", "1,3,2-Dioxaborolane, 4,4,5,5-tetramethyl-2-[4-(trifluoromethoxy)phenyl]-", "4,4,5,5-Tetramethyl-2-[4-(trifluoromethoxy)phenyl]-1,3,2-dioxaborolane"], "SMILES": "CC1(C)OB(OC1(C)C)C2=CC=C(OC(F)(F)F)C=C2", "physical_data": {"Molecular Weight": "288.07", "Molecular Formula": "C13H16BF3O3", "Melting Point": "58-60 \u00b0C"}}