{"cas_no": "4747-07-3", "cn_name": "1-\u7532\u6c27\u57fa-\u5df1\u70f7", "en_name": ["Hexyl methyl ether", "Hexane, 1-methoxy-", "Ether, hexyl methyl", "1-Methoxyhexane", "Hexyl methyl ether", "Methyl hexyl ether", "n-Hexyl methyl ether", "Diola (fragrance)", "Diola"], "SMILES": "C(CCOC)CCC", "physical_data": {"Molecular Weight": "116.20", "Molecular Formula": "C7H16O", "Boiling Point": "126.1 \u00b0C", "Density": "0.7997 g/cm\u00b3 @ Temp: 19 \u00b0C"}}