{"cas_no": "4747-71-1", "cn_name": "\u73af\u620a\u57fa\u5f02\u6c30\u9178\u916f", "en_name": ["Cyclopentyl isocyanate", "Cyclopentane, isocyanato-", "Isocyanic acid, cyclopentyl ester", "Isocyanatocyclopentane", "Cyclopentyl isocyanate", "1-Cyclopentyl isocyanate"], "SMILES": "N(=C=O)C1CCCC1", "physical_data": {"Molecular Weight": "111.14", "Molecular Formula": "C6H9NO", "Boiling Point": "145-147 \u00b0C @ Press: 750 Torr"}}