{"cas_no": "4747-61-9", "cn_name": "\u4e8c\u6c22\u5316\u8bfa\u535c\u9187", "en_name": ["6,6-Dimethylbicyclo[3.1.1]heptane-2-ethanol", "Bicyclo[3.1.1]heptane-2-ethanol, 6,6-dimethyl-", "2-Norpinaneethanol, 6,6-dimethyl-", "6,6-Dimethylbicyclo[3.1.1]heptane-2-ethanol", "Hydronopol", "Nopol (terpene), dihydro-", "Dihydrohomomyrtenol", "Dihydronopol", "NSC 1285", "2-[6,6-Dimethylbicyclo[3.1.1]heptan-2-yl]ethan-1-ol", "2-(6,6-Dimethylbicyclo[3.1.1]hept-2-yl)ethanol"], "SMILES": "C(CO)C1C2C(C)(C)C(C2)CC1", "physical_data": {"Molecular Weight": "168.28", "Molecular Formula": "C11H20O", "Boiling Point": "123-125 \u00b0C @ Press: 10 Torr", "Density": "0.961 g/cm\u00b3 @ Temp: 25 \u00b0C"}}