{"cas_no": "4748-78-1", "cn_name": "4-\u4e59\u57fa\u82ef\u7532\u919b", "en_name": ["4-Ethylbenzaldehyde", "Benzaldehyde, 4-ethyl-", "Benzaldehyde, p-ethyl-", "4-Ethylbenzaldehyde", "p-Ethylbenzaldehyde"], "SMILES": "C(C)C1=CC=C(C=O)C=C1", "physical_data": {"Molecular Weight": "134.18", "Molecular Formula": "C9H10O", "Boiling Point": "221 \u00b0C @ Press: 760 Torr"}}