{"cas_no": "475-38-7", "cn_name": "\u8418\u831c", "en_name": ["Naphthazarin", "1,4-Naphthalenedione, 5,8-dihydroxy-", "Naphthazarin", "1,4-Naphthoquinone, 5,8-dihydroxy-", "5,8-Dihydroxy-1,4-naphthalenedione", "5,8-Dihydroxy-1,4-naphthosemiquinone", "5,8-Dihydroxynaphthoquinone", "Naphthazarine", "Naphthazarone", "5,8-Dihydroxy-1,4-naphthoquinone", "NSC 26647", "NSC 344555"], "SMILES": "O=C1C=2C(=C(O)C=CC2O)C(=O)C=C1", "physical_data": {"Molecular Weight": "190.15", "Molecular Formula": "C10H6O4", "Melting Point": "232 \u00b0C"}}