{"cas_no": "475-25-2", "cn_name": "\u6c27\u5316\u82cf\u6728\u7cbe", "en_name": ["Hematein", "Benz[b]indeno[1,2-d]pyran-9(6H)-one, 6a,7-dihydro-3,4,6a,10-tetrahydroxy-", "Hematein", "6a,7-Dihydro-3,4,6a,10-tetrahydroxybenz[b]indeno[1,2-d]pyran-9(6H)-one", "Haematein", "Hematine", "NSC 7333"], "SMILES": "OC12C(=C3C(C1)=CC(=O)C(O)=C3)C=4C(OC2)=C(O)C(O)=CC4", "physical_data": {"Molecular Weight": "300.26", "Molecular Formula": "C16H12O6", "Melting Point": "250 \u00b0C (decomp)"}}