{"cas_no": "475-80-9", "cn_name": "\u9a6c\u515c\u94c3\u9178B", "en_name": ["Aristolochic acid II", "Phenanthro[3,4-d]-1,3-dioxole-5-carboxylic acid, 6-nitro-", "Aristolochic acid II", "6-Nitrophenanthro[3,4-d]-1,3-dioxole-5-carboxylic acid", "3,4-(Methylenedioxy)-10-nitrophenanthrene-1-carboxylic acid", "Aristolochic acid B"], "SMILES": "C(O)(=O)C1=C2C(=C3C(=C1)OCO3)C=4C(C=C2N(=O)=O)=CC=CC4", "physical_data": {"Molecular Weight": "311.25", "Molecular Formula": "C16H9NO6", "Melting Point": "269-271 \u00b0C (decomp)"}}