{"cas_no": "475-11-6", "cn_name": "N-\u7532\u57faL-\u812f\u6c28\u9178", "en_name": ["N-Methyl-L-proline", "L-Proline, 1-methyl-", "Proline, 1-methyl-, L-", "Hygric acid", "1-Methyl-L-proline", "Hygrinic acid", "N-Methyl-L-proline", "(-)-Hygrinic acid", "(-)-Hygric acid", "N-Methylproline", "(2S)-1-Methyl-2-pyrrolidinecarboxylic acid", "(S)-1-Methylpyrrolidine-2-carboxylic acid", "(2S)-1-Methylpyrrolidine-2-carboxylic acid"], "SMILES": "C(O)(=O)C1N(C)CCC1", "physical_data": {"Molecular Weight": "129.16", "Molecular Formula": "C6H11NO2", "Melting Point": "109-112 \u00b0C"}}