{"cas_no": "475-31-0", "cn_name": "\u7518\u6c28\u80c6\u9178", "en_name": ["Glycocholic acid", "Glycine, N-[(3\u03b1,5\u03b2,7\u03b1,12\u03b1)-3,7,12-trihydroxy-24-oxocholan-24-yl]-", "Glycine, N-choloyl-", "Glycoreductodehydrocholic acid", "5\u03b2-Cholan-24-amide, N-(carboxymethyl)-3\u03b1,7\u03b1,12\u03b1-trihydroxy-", "Cholane, glycine deriv.", "N-[(3\u03b1,5\u03b2,7\u03b1,12\u03b1)-3,7,12-Trihydroxy-24-oxocholan-24-yl]glycine", "N-Choloylglycine", "Glycocholic acid", "3\u03b1,7\u03b1,12\u03b1-Trihydroxy-5\u03b2-cholan-24-oylglycine", "Glycine cholate", "Cholylglycine", "3\u03b1,7\u03b1,12\u03b1-Trihydroxy-5\u03b2-cholanic acid-24-glycine", "3\u03b1,7\u03b1,12\u03b1-Trihydroxy-N-(carboxymethyl)-5\u03b2-cholan-24-amide", "Glycylcholic acid", "MeSH ID: D006000"], "SMILES": "OC1C2C3C(C)(C(C(CCC(NCC(O)=O)=O)C)CC3)C(O)CC2C4(C)C(C1)CC(O)CC4", "physical_data": {"Molecular Weight": "465.62", "Molecular Formula": "C26H43NO6", "Melting Point": "166.5 \u00b0C"}}