{"cas_no": "475-81-0", "cn_name": "\u6d77\u7f4c\u7c9f\u9e7c", "en_name": ["(+)-Glaucine", "4H-Dibenzo[de,g]quinoline, 5,6,6a,7-tetrahydro-1,2,9,10-tetramethoxy-6-methyl-, (6aS)-", "Glaucine", "6a\u03b1-Aporphine, 1,2,9,10-tetramethoxy-", "4H-Dibenzo[de,g]quinoline, 5,6,6a,7-tetrahydro-1,2,9,10-tetramethoxy-6-methyl-, (S)-", "(6aS)-5,6,6a,7-Tetrahydro-1,2,9,10-tetramethoxy-6-methyl-4H-dibenzo[de,g]quinoline", "d-Glaucine", "(+)-Glaucine", "Boldine dimethyl ether", "Bromcholitin", "Glauvent", "S-(+)-Glaucine", "O,O-Dimethylisoboldine", "(S)-Glaucine", "O,O-Dimethylboldine", "N,O,O\u2032-Trimethyllaurelliptine", "NSC 34396", "(6AS)-1,2,9,10-tetramethoxy-6-methyl-5,6,6a,7-tetrahydro-4H-dibenzo[de,g]quinoline"], "SMILES": "O(C)C1=C2C=3C(CC=4C2=CC(OC)=C(OC)C4)N(C)CCC3C=C1OC", "physical_data": {"Molecular Weight": "355.43", "Molecular Formula": "C21H25NO4", "Melting Point": "124-125 \u00b0C"}}