{"cas_no": "475-00-3", "cn_name": "\u85dc\u82a6\u6258\u7d20", "en_name": ["Veratrosine", "\u03b2-D-Glucopyranoside, (3\u03b2,23\u03b2)-14,15,16,17-tetradehydro-23-hydroxyveratraman-3-yl", "Veratrosine", "1H-Benzo[a]fluorene, \u03b2-D-glucopyranoside deriv.", "Veratraman, \u03b2-D-glucopyranoside deriv.", "(3\u03b2,23\u03b2)-14,15,16,17-Tetradehydro-23-hydroxyveratraman-3-yl \u03b2-D-glucopyranoside", "Veratramine 3-glucoside", "3-O-\u03b2-D-Glucopyranosylveratramine", "Veratramine 3-\u03b2-D-glucopyranoside", "Veratramine 3-O-glucoside"], "SMILES": "CC12C3C(C=4C(C3)=C(C)C(C(C)C5C(O)CC(C)CN5)=CC4)CC=C1CC(OC6OC(CO)C(O)C(O)C6O)CC2", "physical_data": {"Molecular Weight": "571.74", "Molecular Formula": "C33H49NO7", "Melting Point": "235-243 \u00b0C (decomp)"}}