{"cas_no": "475-83-2", "cn_name": "\u8377\u53f6\u78b1", "en_name": ["(-)-Nuciferine", "4H-Dibenzo[de,g]quinoline, 5,6,6a,7-tetrahydro-1,2-dimethoxy-6-methyl-, (6aR)-", "6a\u03b2-Aporphine, 1,2-dimethoxy-", "Nuciferine", "4H-Dibenzo[de,g]quinoline, 5,6,6a,7-tetrahydro-1,2-dimethoxy-6-methyl-, (R)-", "(6aR)-5,6,6a,7-Tetrahydro-1,2-dimethoxy-6-methyl-4H-dibenzo[de,g]quinoline", "l-Nuciferine", "(-)-Nuciferine", "(R)-1,2-Dimethoxyaporphine", "Nuciferin", "D-(-)-Nuciferine", "1,2-Dimethoxy-6a\u03b2-aporphine", "Sanjoinine E", "(R)-Nuciferine", "VLT 049", "(6AR)-1,2-dimethoxy-6-methyl-5,6,6a,7-tetrahydro-4H-dibenzo[de,g]quinoline"], "SMILES": "O(C)C1=C2C=3C(CC=4C2=CC=CC4)N(C)CCC3C=C1OC", "physical_data": {"Molecular Weight": "295.38", "Molecular Formula": "C19H21NO2", "Melting Point": "162.5-163.5 \u00b0C"}}