{"cas_no": "475-67-2", "cn_name": "\u5f02\u7d2b\u5807\u5b9a\u78b1", "en_name": ["(+)-Isocorydine", "4H-Dibenzo[de,g]quinolin-11-ol, 5,6,6a,7-tetrahydro-1,2,10-trimethoxy-6-methyl-, (6aS)-", "Isocorydine", "6a\u03b1-Aporphin-11-ol, 1,2,10-trimethoxy-", "4H-Dibenzo[de,g]quinolin-11-ol, 5,6,6a,7-tetrahydro-1,2,10-trimethoxy-6-methyl-, (S)-", "(6aS)-5,6,6a,7-Tetrahydro-1,2,10-trimethoxy-6-methyl-4H-dibenzo[de,g]quinolin-11-ol", "Luteanine", "d-Isocorydine", "L-(+)-Isocorydine", "(+)-(S)-Isocorydine", "Luteanin", "Luteanine (aporphine)", "(S)-(+)-Isocorydine", "(+)-Isocorydine", "NSC 32979"], "SMILES": "O(C)C1=C2C=3C(CC=4C2=C(O)C(OC)=CC4)N(C)CCC3C=C1OC", "physical_data": {"Molecular Weight": "341.40", "Molecular Formula": "C20H23NO4", "Melting Point": "185 \u00b0C"}}