{"cas_no": "475-20-7", "cn_name": "\u957f\u53f6\u70ef", "en_name": ["(+)-Longifolene", "1,4-Methanoazulene, decahydro-4,8,8-trimethyl-9-methylene-, (1S,3aR,4S,8aS)-", "1,4-Methanoazulene, decahydro-4,8,8-trimethyl-9-methylene-, (1S,3aR,4S,8aS)-(+)-", "1,4-Methanoazulene, decahydro-4,8,8-trimethyl-9-methylene-, [1S-(1\u03b1,3a\u03b2,4\u03b1,8a\u03b2)]-", "Longifolene", "(1S,3aR,4S,8aS)-Decahydro-4,8,8-trimethyl-9-methylene-1,4-methanoazulene", "Junipene", "(+)-Longifolene", "d-Longifolene", "Kuromatsuene", "Kuromatsuen", "Longifolen", "Junipen", "\u03b1-Longifolene", "NSC 150808", "[1S-(1\u03b1,3a\u03b2,4\u03b1,8a\u03b2)]Decahydro-4,8,8-trimethyl-9-methylene-1,4-methanoazulene"], "SMILES": "CC1(C)C2C3C(C)(C(=C)C2CC3)CCC1", "physical_data": {"Molecular Weight": "204.35", "Molecular Formula": "C15H24", "Boiling Point": "258 \u00b0C", "Density": "0.9284 g/cm\u00b3 @ Temp: 30 \u00b0C"}}