{"cas_no": "475-75-2", "cn_name": "\u9e45\u638c\u6978\u78b1", "en_name": ["Liriodenine", "8H-Benzo[g]-1,3-benzodioxolo[6,5,4-de]quinolin-8-one", "Liriodenine", "Noraporphin-7-one, 4,5,6,6a-tetradehydro-1,2-(methylenedioxy)-", "Spermatheridine", "Micheline B", "Oxoushinsunine", "Spermatheridin", "Oxoushinsunin", "NSC 215254", "NSC 93681", "VLT 045"], "SMILES": "O=C1C=2C3=C(C=4C1=CC=CC4)C5=C(C=C3C=CN2)OCO5", "physical_data": {"Molecular Weight": "275.26", "Molecular Formula": "C17H9NO3", "Melting Point": "272-274 \u00b0C (decomp)"}}