{"cas_no": "475085-57-5", "cn_name": "[4-[(5,6-\u4e8c\u82ef\u57fa\u5421\u55ea\u57fa)(1-\u7532\u57fa\u4e59\u57fa)\u6c28\u57fa]\u4e01\u6c27\u57fa]\u4e59\u9178", "en_name": ["2-[4-[(5,6-Diphenyl-2-pyrazinyl)(1-methylethyl)amino]butoxy]acetic acid", "Acetic acid, 2-[4-[(5,6-diphenyl-2-pyrazinyl)(1-methylethyl)amino]butoxy]-", "Acetic acid, [4-[(5,6-diphenylpyrazinyl)(1-methylethyl)amino]butoxy]-", "2-[4-[(5,6-Diphenyl-2-pyrazinyl)(1-methylethyl)amino]butoxy]acetic acid", "MRE 269", "ACT 333679", "[4-[(5,6-Diphenylpyrazin-2-yl)(isopropyl)amino]butoxy]acetic acid", "2-[4-[(5,6-Diphenylpyrazin-2-yl)(propan-2-yl)amino]butoxy]acetic acid", "2-(4-((5,6-Diphenylpyrazin-2-yl)(isopropyl)amino)butoxy)acetic acid"], "SMILES": "N(CCCCOCC(O)=O)(C(C)C)C=1N=C(C(=NC1)C2=CC=CC=C2)C3=CC=CC=C3", "physical_data": {"Molecular Weight": "419.52", "Molecular Formula": "C25H29N3O3", "Melting Point": "114-116 \u00b0C"}}