{"cas_no": "475102-15-9", "cn_name": "1-Boc-5-\u6c30\u57fa\u5432\u54da-2-\u787c\u9178", "en_name": ["1-(1,1-Dimethylethyl) 2-borono-5-cyano-1H-indole-1-carboxylate", "1H-Indole-1-carboxylic acid, 2-borono-5-cyano-, 1-(1,1-dimethylethyl) ester", "1-(1,1-Dimethylethyl) 2-borono-5-cyano-1H-indole-1-carboxylate", "[N-(tert-Butoxycarbonyl)-5-cyanoindol-2-yl]boronic acid", "[1-(tert-Butoxycarbonyl)-5-cyanoindol-2-yl]boronic acid", "(1-Boc-5-cyanoindol-2-yl)boronic acid", "[5-Cyano-1-[(2-methylpropan-2-yl)oxycarbonyl]indol-2-yl]boronic acid", "(1-(tert-Butoxycarbonyl)-5-cyano-1H-indol-2-yl)boronic acid"], "SMILES": "C(OC(C)(C)C)(=O)N1C=2C(C=C1B(O)O)=CC(C#N)=CC2", "physical_data": {"Molecular Weight": "286.09", "Molecular Formula": "C14H15BN2O4", "Melting Point": "245-248 \u00b0C"}}