{"cas_no": "475110-96-4", "cn_name": "2-(2-\u4e8c\u6c1f\u7532\u57fa\u82ef\u5e76\u54aa\u5511-1-\u57fa)-4,6-\u4e8c\u5417\u5549\u57fa-1,3,5-\u4e09\u55ea", "en_name": ["2-(Difluoromethyl)-1-(4,6-di-4-morpholinyl-1,3,5-triazin-2-yl)-1H-benzimidazole", "1H-Benzimidazole, 2-(difluoromethyl)-1-(4,6-di-4-morpholinyl-1,3,5-triazin-2-yl)-", "2-(Difluoromethyl)-1-(4,6-di-4-morpholinyl-1,3,5-triazin-2-yl)-1H-benzimidazole", "2-(2-Difluoromethylbenzimidazol-1-yl)-4,6-bis(morpholino)-1,3,5-triazine", "ZSTK 474", "4,4\u2032-(6-(2-(Difluoromethyl)-1H-benzo[d]imidazol-1-yl)-1,3,5-triazine-2,4-diyl)dimorpholine"], "SMILES": "C(F)(F)C=1N(C=2C(N1)=CC=CC2)C=3N=C(N=C(N3)N4CCOCC4)N5CCOCC5", "physical_data": {"Molecular Weight": "417.41", "Molecular Formula": "C19H21F2N7O2", "Melting Point": "217-219 \u00b0C"}}