{"cas_no": "475102-12-6", "cn_name": "1-BOC-5-\u6c2f\u5432\u54da-2-\u787c\u9178", "en_name": ["1-(1,1-Dimethylethyl) 2-borono-5-chloro-1H-indole-1-carboxylate", "1H-Indole-1-carboxylic acid, 2-borono-5-chloro-, 1-(1,1-dimethylethyl) ester", "1-(1,1-Dimethylethyl) 2-borono-5-chloro-1H-indole-1-carboxylate", "(1-(tert-Butoxycarbonyl)-5-chloro-1H-indol-2-yl)boronic acid"], "SMILES": "C(OC(C)(C)C)(=O)N1C=2C(C=C1B(O)O)=CC(Cl)=CC2", "physical_data": {"Molecular Weight": "295.53", "Molecular Formula": "C13H15BClNO4", "Melting Point": "98.2-99.9 \u00b0C"}}