{"cas_no": "475102-14-8", "cn_name": "1-BOC-5-\u7532\u57fa\u5432\u54da-2-\u787c\u9178", "en_name": ["1-(1,1-Dimethylethyl) 2-borono-5-methyl-1H-indole-1-carboxylate", "1H-Indole-1-carboxylic acid, 2-borono-5-methyl-, 1-(1,1-dimethylethyl) ester", "1-(1,1-Dimethylethyl) 2-borono-5-methyl-1H-indole-1-carboxylate", "(1-(tert-Butoxycarbonyl)-5-methyl-1H-indol-2-yl)boronic acid", "1-BOC-5-methylindole-2-boronic acid", "1-Boc-5-methyl-1H-indole-2-boronic acid"], "SMILES": "C(OC(C)(C)C)(=O)N1C=2C(C=C1B(O)O)=CC(C)=CC2", "physical_data": {"Molecular Weight": "275.11", "Molecular Formula": "C14H18BNO4", "Melting Point": "110-112 \u00b0C"}}