{"cas_no": "475231-21-1", "cn_name": "3'-\u7f9f\u57fa\u7d2b\u6a80\u830b", "en_name": ["3\u2032-Hydroxypterostilbene", "1,2-Benzenediol, 4-[(1E)-2-(3,5-dimethoxyphenyl)ethenyl]-", "4-[(1E)-2-(3,5-Dimethoxyphenyl)ethenyl]-1,2-benzenediol", "3\u2032-Hydroxypterostilbene"], "SMILES": "C(=CC1=CC(O)=C(O)C=C1)C2=CC(OC)=CC(OC)=C2", "physical_data": {"Molecular Weight": "272.30", "Molecular Formula": "C16H16O4", "Melting Point": "112-115 \u00b0C"}}