{"cas_no": "4752-10-7", "cn_name": "1,4-\u4e8c\u6c2f\u915e\u55ea", "en_name": ["1,4-Dichlorophthalazine", "Phthalazine, 1,4-dichloro-", "1,4-Dichlorophthalazine"], "SMILES": "ClC=1C2=C(C(Cl)=NN1)C=CC=C2", "physical_data": {"Molecular Weight": "199.04", "Molecular Formula": "C8H4Cl2N2", "Melting Point": "163 \u00b0C"}}