{"cas_no": "4753-75-7", "cn_name": "N-\u7532\u57fa-N-\u544b\u5583\u57fa\u80fa", "en_name": ["N-Methyl-2-furanmethanamine", "2-Furanmethanamine, N-methyl-", "Furfurylamine, N-methyl-", "N-Methyl-2-furanmethanamine", "N-Methylfurfurylamine", "N-Furfuryl-N-methylamine", "Methyl[(furan-2-yl)methyl]amine", "NSC 78427", "N-(Furan-2-ylmethyl)-N-methylamine", "N-[(2-Furyl)methyl](methyl)amine", "N-Methyl(furan-2-ylmethyl)amine", "(2-Furanylmethyl)methylamine", "1-(Furan-2-yl)-N-methylmethanamine", "N-Methyl-N-(furan-2-ylmethyl)amine", "2-((Methylamino)methyl)furan", "(Furylmethyl)-methylamine"], "SMILES": "C(NC)C1=CC=CO1", "physical_data": {"Molecular Weight": "111.14", "Molecular Formula": "C6H9NO", "Boiling Point": "149 \u00b0C"}}