{"cas_no": "4753-59-7", "cn_name": "4-\u6eb4\u4e01\u57fa\u4e59\u9178\u916f", "en_name": ["1-Butanol, 4-bromo-, 1-acetate", "1-Butanol, 4-bromo-, 1-acetate", "1-Butanol, 4-bromo-, acetate", "4-Bromobutyl acetate", "4-Acetoxybutyl bromide", "1-Acetoxy-4-bromobutane", "4-Acetoxy-1-bromobutane", "4-Bromo-1-butyl acetate", "4-Bromo-1-acetoxybutane", "4-Bromo-1-butanol acetate", "NSC 33919", "Acetic acid 4-bromobutyl ester"], "SMILES": "C(OC(C)=O)CCCBr", "physical_data": {"Molecular Weight": "195.05", "Molecular Formula": "C6H11BrO2", "Boiling Point": "95-96 \u00b0C @ Press: 14 Torr", "Density": "1.3771 g/cm\u00b3 @ Temp: 19.5 \u00b0C"}}