{"cas_no": "475489-16-8", "cn_name": "AVP-AEW541", "en_name": ["7-[cis-3-(1-Azetidinylmethyl)cyclobutyl]-5-[3-(phenylmethoxy)phenyl]-7H-pyrrolo[2,3-d]pyrimidin-4-amine", "7H-Pyrrolo[2,3-d]pyrimidin-4-amine, 7-[cis-3-(1-azetidinylmethyl)cyclobutyl]-5-[3-(phenylmethoxy)phenyl]-", "7-[cis-3-(1-Azetidinylmethyl)cyclobutyl]-5-[3-(phenylmethoxy)phenyl]-7H-pyrrolo[2,3-d]pyrimidin-4-amine", "[7-[cis-3-[(Azetidin-1-yl)methyl]cyclobutyl]-5-(3-benzyloxyphenyl)-7H-pyrrolo[2,3-d]pyrimidin-4-yl]amine"], "SMILES": "NC1=C2C(N(C=C2C3=CC(OCC4=CC=CC=C4)=CC=C3)C5CC(CN6CCC6)C5)=NC=N1", "physical_data": {"Molecular Weight": "439.55", "Molecular Formula": "C27H29N5O", "Melting Point": "145 \u00b0C"}}