{"cas_no": "4754-39-6", "cn_name": "\u8131\u6c27\u817a\u560c\u5464\u6838\u82f7", "en_name": ["5\u2032-Deoxyadenosine", "Adenosine, 5\u2032-deoxy-", "5\u2032-Deoxyadenosine"], "SMILES": "OC1C(N2C=3C(N=C2)=C(N)N=CN3)OC(C)C1O", "physical_data": {"Molecular Weight": "251.24", "Molecular Formula": "C10H13N5O3", "Melting Point": "205-207 \u00b0C"}}