{"cas_no": "4754-27-2", "cn_name": "3-(1-\u7f9f\u4e59\u57fa)\u5421\u5576", "en_name": ["\u03b1-Methyl-3-pyridinemethanol", "3-Pyridinemethanol, \u03b1-methyl-", "\u03b1-Methyl-3-pyridinemethanol", "Methyl-3-pyridylcarbinol", "1-(3-Pyridyl)ethanol", "(\u00b1)-1-(3-Pyridyl)ethanol", "1-(3-Pyridinyl)ethanol", "3-(1-Hydroxyethyl)pyridine", "NSC 526489", "1-(Pyridin-3-yl)ethan-1-ol"], "SMILES": "C(C)(O)C=1C=CC=NC1", "physical_data": {"Molecular Weight": "123.15", "Molecular Formula": "C7H9NO", "Boiling Point": "123-125 \u00b0C @ Press: 5 Torr"}}