{"cas_no": "475479-34-6", "cn_name": "(S)-2-\u7532\u6c27\u57fa-3-[4-[2-(5-\u7532\u57fa-2-\u82ef\u57fa\u6076\u5511-4-\u57fa)\u4e59\u6c27\u57fa]\u82ef\u5e76[B]\u567b\u5429-7-\u57fa]\u4e19\u9178", "en_name": ["Aleglitazar", "Benzo[b]thiophene-7-propanoic acid, \u03b1-methoxy-4-[2-(5-methyl-2-phenyl-4-oxazolyl)ethoxy]-, (\u03b1S)-", "(\u03b1S)-\u03b1-Methoxy-4-[2-(5-methyl-2-phenyl-4-oxazolyl)ethoxy]benzo[b]thiophene-7-propanoic acid", "(S)-2-Methoxy-3-[4-[2-(5-methyl-2-phenyloxazol-4-yl)ethoxy]benzo[b]thiophen-7-yl]propionic acid", "Aleglitazar", "RO 0728804", "R 1439"], "SMILES": "C(C(C(O)=O)OC)C1=C2C(=C(OCCC=3N=C(OC3C)C4=CC=CC=C4)C=C1)C=CS2", "physical_data": {"Molecular Weight": "437.51", "Molecular Formula": "C24H23NO5S", "Melting Point": "146-147 \u00b0C"}}