{"cas_no": "4755-72-0", "cn_name": "2-CHLORO-2-PHENYLACETIC ACID", "en_name": ["\u03b1-Chlorobenzeneacetic acid", "Benzeneacetic acid, \u03b1-chloro-", "Acetic acid, chlorophenyl-", "\u03b1-Chlorobenzeneacetic acid", "\u03b1-Chlorophenylacetic acid", "Chlorophenylacetic acid", "2-Chloro-2-phenylacetic acid", "Phenylchloroacetic acid", "(\u00b1)-Phenylchloroacetic acid", "NSC 152981", "NSC 175545"], "SMILES": "C(C(O)=O)(Cl)C1=CC=CC=C1", "physical_data": {"Molecular Weight": "170.59", "Molecular Formula": "C8H7ClO2", "Boiling Point": "125-140 \u00b0C @ Press: 3 Torr", "Melting Point": "60-61 \u00b0C"}}