{"cas_no": "4755-50-4", "cn_name": "4-\u4e8c\u7532\u6c28\u57fa\u82ef\u7532\u9170\u6c2f", "en_name": ["4-(Dimethylamino)benzoyl chloride", "Benzoyl chloride, 4-(dimethylamino)-", "Benzoyl chloride, p-(dimethylamino)-", "4-(Dimethylamino)benzoyl chloride", "p-(Dimethylamino)benzoyl chloride", "4-(Dimethylamino)benzoic acid chloride", "4-(N,N-Dimethylamino)benzoyl chloride", "4-[Dimethylamino]benzoic acid chloride", "p-(N,N-Dimethylamino)benzoyl chloride", "4\u2032-(Dimethylamino)[1,1\u2032-biphenyl]-4-carbonyl chloride"], "SMILES": "C(Cl)(=O)C1=CC=C(N(C)C)C=C1", "physical_data": {"Molecular Weight": "183.63", "Molecular Formula": "C9H10ClNO", "Boiling Point": "180 \u00b0C @ Press: 15 Torr", "Melting Point": "145.700078125 \u00b0C"}}