{"cas_no": "4755-77-5", "cn_name": "\u8349\u9170\u6c2f\u5355\u4e59\u916f", "en_name": ["Ethyl oxalyl chloride", "Acetic acid, 2-chloro-2-oxo-, ethyl ester", "Acetic acid, chlorooxo-, ethyl ester", "Glyoxylic acid, chloro-, ethyl ester", "Ethoxalyl chloride", "Ethyl 2-chloro-2-oxoacetate", "Oxalic acid monoethyl ester chloride", "Ethyl chloroglyoxylate", "Ethyl oxalyl chloride", "Ethyl chlorooxoacetate", "Monoethyl oxaloyl chloride", "Ethyl (chloroformyl)formate", "Monoethyl oxalate monochloride", "Oxalic acid monoethyl ester monochloride", "Monoethyl oxalate chloride", "Ethyl oxaloyl chloride", "Oxalic acid ethyl ester chloride", "Ethyl (chlorocarbonyl)carboxylate", "Ethyl 2-chloro-2-oxoethanoate", "Oxalic acid chloride ethyl ester", "Chloroglyoxylic acid ethyl ester", "NSC 80644", "Chlorooxoacetic acid ethyl ester", "1-(Chlorocarbonyl)formic acid ethyl ester", "Oxalyl chloride ethyl ester", "Ethoxyoxalyl chloride", "Ethyl chlorooxalate", "Ethyl oxalyl monochloride", "Ethyl clorooxoacetate", "Ethyl oxalochloridate", "Ethyl chloroglyoxalate", "Ethyl chlorooxacetate"], "SMILES": "C(OCC)(C(Cl)=O)=O", "physical_data": {"Molecular Weight": "136.53", "Molecular Formula": "C4H5ClO3", "Boiling Point": "137 \u00b0C"}}