{"cas_no": "4756-75-6", "cn_name": "\u4e09\u82ef\u57fa\u6c27\u5316\u9511", "en_name": ["Triphenylstibine oxide", "Stibine oxide, triphenyl-", "Triphenylstibine oxide", "Triphenylantimony oxide", "NSC 99161"], "SMILES": "[Sb](=O)(C1=CC=CC=C1)(C2=CC=CC=C2)C3=CC=CC=C3", "physical_data": {"Molecular Weight": "", "Molecular Formula": "C18H15OSb", "Melting Point": "209 \u00b0C"}}