{"cas_no": "4759-48-2", "cn_name": "\u5f02\u7ef4A\u9178", "en_name": ["Isotretinoin", "Retinoic acid, 13-cis-", "13-cis-Retinoic acid", "Neovitamin A acid", "13-cis-Vitamin A acid", "Ro 4-3780", "13-cis-\u03b2-Retinoic acid", "Isotretinoin", "(13Z)-Retinoic acid", "Accutane", "Roaccutane", "AGN 190013", "Roaccutan", "Accure", "13-RA", "Isotrex", "IsotrexGel", "cis-Retinoic acid", "Absorica", "Amnesteem", "Claravis", "Roacutan", "MeSH ID: D015474"], "SMILES": "C(=CC(=CC=CC(=CC(O)=O)C)C)C=1C(C)(C)CCCC1C", "physical_data": {"Molecular Weight": "300.44", "Molecular Formula": "C20H28O2", "Melting Point": "174-175 \u00b0C"}}