{"cas_no": "476-69-7", "cn_name": "\u7d2b\u83eb\u5b9a\u915a", "en_name": ["(+)-Corydine", "4H-Dibenzo[de,g]quinolin-1-ol, 5,6,6a,7-tetrahydro-2,10,11-trimethoxy-6-methyl-, (6aS)-", "Corydine", "6a\u03b1-Aporphin-1-ol, 2,10,11-trimethoxy-", "4H-Dibenzo[de,g]quinolin-1-ol, 5,6,6a,7-tetrahydro-2,10,11-trimethoxy-6-methyl-, (S)-", "(6aS)-5,6,6a,7-Tetrahydro-2,10,11-trimethoxy-6-methyl-4H-dibenzo[de,g]quinolin-1-ol", "O11-Methylcorytuberine", "d-Corydine", "(+)-Corydine", "1-Hydroxy-2,10,11-trimethoxy-6a\u03b1-aporphine", "2,10,11-Trimethoxy-6a\u03b1-aporphin-1-ol", "Glaucentrine", "Glaucentrin", "(S)-(+)-Corydine"], "SMILES": "OC1=C2C=3C(CC=4C2=C(OC)C(OC)=CC4)N(C)CCC3C=C1OC", "physical_data": {"Molecular Weight": "341.40", "Molecular Formula": "C20H23NO4", "Melting Point": "140 \u00b0C"}}