{"cas_no": "476-66-4", "cn_name": "\u97a3\u82b1\u9178", "en_name": ["Ellagic acid", "[1]Benzopyrano[5,4,3-cde][1]benzopyran-5,10-dione, 2,3,7,8-tetrahydroxy-", "2,3,7,8-Tetrahydroxy[1]benzopyrano[5,4,3-cde][1]benzopyran-5,10-dione", "C.I. 55005", "C.I. 75270", "Alizarine Yellow", "Benzoaric acid", "Ellagic acid", "Gallogen (astringent)", "[1,1\u2032-Biphenyl]-2,2\u2032-dicarboxylic acid, 4,4\u2032,5,5\u2032,6,6\u2032-hexahydroxy-, di-\u03b4-lactone", "Eleagic acid", "Gallogen", "Elagostasine", "Lagistase", "Alizarin yellow", "G 91006", "LDN 0097519", "Ellagic acid LT", "2,3,7,8-Tetrahydroxy-chromeno[5,4,3-cde]chromene-5,10-dione", "MeSH ID: D004610"], "SMILES": "OC=1C2=C3C4=C(OC(=O)C3=CC1O)C(O)=C(O)C=C4C(=O)O2", "physical_data": {"Molecular Weight": "302.19", "Molecular Formula": "C14H6O8", "Melting Point": "&gt;360 \u00b0C"}}