{"cas_no": "476-32-4", "cn_name": "\u767d\u5c48\u83dc\u78b1", "en_name": ["(+)-Chelidonine", "[1,3]Benzodioxolo[5,6-c]-1,3-dioxolo[4,5-i]phenanthridin-6-ol, 5b,6,7,12b,13,14-hexahydro-13-methyl-, (5bR,6S,12bS)-", "Chelidonine", "[1,3]Benzodioxolo[5,6-c]-1,3-dioxolo[4,5-i]phenanthridin-6-ol, 5b,6,7,12b,13,14-hexahydro-13-methyl-, [5bR-(5b\u03b1,6\u03b2,12b\u03b1)]-", "(5bR,6S,12bS)-5b,6,7,12b,13,14-Hexahydro-13-methyl[1,3]benzodioxolo[5,6-c]-1,3-dioxolo[4,5-i]phenanthridin-6-ol", "Stylophorine", "[5bR-(5b\u03b1,6\u03b2,12b\u03b1)]-5b,6,7,12b,13,14-Hexahydro-13-methyl[1,3]benzodioxolo[5,6-c]-1,3-dioxolo[4,5-i]phenanthridin-6-ol", "Chelidonin", "(+)-Chelidonine"], "SMILES": "CN1C2C(C=3C(C1)=C4C(=CC3)OCO4)C(O)CC=5C2=CC6=C(C5)OCO6", "physical_data": {"Molecular Weight": "353.37", "Molecular Formula": "C20H19NO5", "Melting Point": "135.5 \u00b0C"}}