{"cas_no": "476-28-8", "cn_name": "\u77f3\u849c\u78b1\u76d0\u9178\u76d0", "en_name": ["Lycorine", "1H-[1,3]Dioxolo[4,5-j]pyrrolo[3,2,1-de]phenanthridine-1,2-diol, 2,4,5,7,12b,12c-hexahydro-, (1S,2S,12bS,12cS)-", "Galanthidine", "Lycoran-1\u03b1,2\u03b2-diol, 3,3a-didehydro-", "Galanthan-1,2-diol, 3,12-didehydro-9,10-[methylenebis(oxy)]-, (1\u03b1,2\u03b2)-", "(1S,2S,12bS,12cS)-2,4,5,7,12b,12c-Hexahydro-1H-[1,3]dioxolo[4,5-j]pyrrolo[3,2,1-de]phenanthridine-1,2-diol", "Amarylline", "Lycorine", "3,4-Didehydro-11,12-[methylenebis(oxy)]galanthan-1\u03b1,2\u03b2-diol", "3,3a-Didehydrolycoran-1\u03b1,2\u03b2-diol", "Narcissine", "Narcissin", "(-)-Lycorine", "1H-[1,3]Dioxolo[4,5-j]pyrrolo[3,2,1-de]phenanthridine-1,2-diol, 2,4,5,7,12b,12c-hexahydro-, [1S-(1\u03b1,2\u03b2,12b\u03b2,12c\u03b1)]-", "NSC 401360", "NSC 683873"], "SMILES": "OC1C2C3N(CC=4C2=CC5=C(C4)OCO5)CCC3=CC1O", "physical_data": {"Molecular Weight": "287.31", "Molecular Formula": "C16H17NO4", "Melting Point": "280 \u00b0C"}}