{"cas_no": "476-70-0", "cn_name": "\u6ce2\u5c14\u5b9a\u78b1", "en_name": ["(+)-Boldine", "4H-Dibenzo[de,g]quinoline-2,9-diol, 5,6,6a,7-tetrahydro-1,10-dimethoxy-6-methyl-, (6aS)-", "6a\u03b1-Aporphine-2,9-diol, 1,10-dimethoxy-", "Boldine", "4H-Dibenzo[de,g]quinoline-2,9-diol, 5,6,6a,7-tetrahydro-1,10-dimethoxy-6-methyl-, (S)-", "(6aS)-5,6,6a,7-Tetrahydro-1,10-dimethoxy-6-methyl-4H-dibenzo[de,g]quinoline-2,9-diol", "(S)-Boldine", "1,10-Dimethoxy-6a\u03b1-aporphine-2,9-diol", "(+)-(S)-Boldine", "Boldin", "Boldina", "(+)-Boldine", "(+)-2,9-Dihydroxy-1,10-dimethoxyaporphine", "(S)-(+)-Boldine", "d-Boldine", "NSC 65689", "(6AS)-1,10-dimethoxy-6-methyl-5,6,6a,7-tetrahydro-4H-dibenzo[de,g]quinoline-2,9-diol"], "SMILES": "O(C)C1=C2C=3C(CC=4C2=CC(OC)=C(O)C4)N(C)CCC3C=C1O", "physical_data": {"Molecular Weight": "327.37", "Molecular Formula": "C19H21NO4", "Melting Point": "163 \u00b0C"}}