{"cas_no": "4760-35-4", "cn_name": "2-(\u6c2f\u7532\u57fa)-1-\u7532\u57fa-1H-\u82ef\u5e76\u54aa\u5511", "en_name": ["2-(Chloromethyl)-1-methylbenzimidazole", "1H-Benzimidazole, 2-(chloromethyl)-1-methyl-", "Benzimidazole, 2-(chloromethyl)-1-methyl-", "2-(Chloromethyl)-1-methyl-1H-benzimidazole", "2-(Chloromethyl)-1-methylbenzimidazole", "1-Methyl-2-(chloromethyl)benzimidazole", "2-Chloromethyl-N-methylbenzimidazole", "2-Chloromethyl-1-methyl-1H-benzimidazole", "NSC 64201", "2-(Chloromethyl)-1-methyl-1H-1,3-benzodiazole", "2-(Chloromethyl)-1-methyl-1H-benzo[d]imidazole"], "SMILES": "CN1C=2C(N=C1CCl)=CC=CC2", "physical_data": {"Molecular Weight": "180.63", "Molecular Formula": "C9H9ClN2", "Melting Point": "94 \u00b0C"}}