{"cas_no": "4760-34-3", "cn_name": "N-\u7532\u57fa-1,2-\u82ef\u4e8c\u80fa", "en_name": ["N-Methyl-1,2-phenylenediamine", "1,2-Benzenediamine, N1-methyl-", "o-Phenylenediamine, N-methyl-", "1,2-Benzenediamine, N-methyl-", "N1-Methyl-1,2-benzenediamine", "N-Methyl-1,2-phenylenediamine", "N-Methyl-1,2-benzenediamine", "N-Methyl-o-phenylenediamine", "2-Amino-N-methylaniline", "2-(Methylamino)aniline", "N-Methyl-o-diaminobenzene", "N-Methyl-1,2-diaminobenzene", "1-N-Methylbenzene-1,2-diamine", "2-N-Methylbenzene-1,2-diamine"], "SMILES": "N(C)C1=C(N)C=CC=C1", "physical_data": {"Molecular Weight": "122.17", "Molecular Formula": "C7H10N2", "Boiling Point": "118-120 \u00b0C @ Press: 8 Torr", "Melting Point": "180 \u00b0C"}}