{"cas_no": "4761-93-7", "cn_name": "\u7f29\u4e8c\u80cd\u76d0\u9178\u76d0", "en_name": ["Imidodicarbonimidic diamide, hydrochloride (1:1)", "Imidodicarbonimidic diamide, hydrochloride (1:1)", "Biguanide, monohydrochloride", "Imidodicarbonimidic diamide, monohydrochloride", "Guanylguanidinium chloride"], "SMILES": "N(C(=N)N)C(=N)N.Cl", "physical_data": {"Molecular Weight": "", "Molecular Formula": "C2H7N5.ClH", "Melting Point": "350 \u00b0C"}}