{"cas_no": "4762-26-9", "cn_name": "n-\u6eb4\u4ee3\u5df2\u57fa\u4e09\u82ef\u57fa\u81a6", "en_name": ["Phosphonium, hexyltriphenyl-, bromide (1:1)", "Phosphonium, hexyltriphenyl-, bromide (1:1)", "Phosphonium, hexyltriphenyl-, bromide", "Hexyltriphenylphosphonium bromide", "n-Hexyltriphenylphosphonium bromide", "1-Hexyltriphenylphosphonium bromide", "NSC 151420", "TP 6"], "SMILES": "[P+](CCCCCC)(C1=CC=CC=C1)(C2=CC=CC=C2)C3=CC=CC=C3.[Br-]", "physical_data": {"Molecular Weight": "", "Molecular Formula": "C24H28P.Br", "Melting Point": "195-198 \u00b0C"}}