{"cas_no": "4766-57-8", "cn_name": "\u6b63\u7845\u9178\u4e01\u916f", "en_name": ["Tetrabutoxysilane", "Silicic acid (H4SiO4), tetrabutyl ester", "Butyl silicate ((BuO)4Si)", "Silane, tetrabutoxy-", "Tetrabutoxysilane", "Tetra-n-butoxysilane", "Silicon tetrabutoxide", "Tetrabutyl orthosilicate", "Tetrabutyl silicate", "Silicon butoxide", "MKC Silicate BTS", "NSC 89762", "Butyl orthosilicate", "TBOS", "TBOS (silicate)", "Tetrabuthyl orthosilicate", "T 1126", "Tetra-n-butyl orthosilicate"], "SMILES": "[Si](OCCCC)(OCCCC)(OCCCC)OCCCC", "physical_data": {"Molecular Weight": "320.54", "Molecular Formula": "C16H36O4Si", "Boiling Point": "115 \u00b0C @ Press: 3 Torr", "Melting Point": "&lt;-80 \u00b0C", "Density": "0.899 g/cm\u00b3"}}