{"cas_no": "4767-03-7", "cn_name": "2,2-\u4e8c\u7f9f\u7532\u57fa\u4e19\u9178", "en_name": ["Dimethylolpropionic acid", "Propanoic acid, 3-hydroxy-2-(hydroxymethyl)-2-methyl-", "Propionic acid, 2,2-bis(hydroxymethyl)-", "3-Hydroxy-2-(hydroxymethyl)-2-methylpropanoic acid", "\u03b1,\u03b1-Dimethylolpropionic acid", "2,2-Dimethylolpropionic acid", "2,2-Bis(hydroxymethyl)propionic acid", "\u03b1,\u03b1-Bis(hydroxymethyl)propionic acid", "Dimethylolpropionic acid", "Propanoic acid, 2,2-bis(hydroxymethyl)-", "2,2-Bis(hydroxymethyl)propanoic acid", "2,2-Bis(methylol)propionic acid", "2,2-Dihydroxymethylpropanoic acid", "NSC 96616", "DMPA", "Nikkamer PA", "3-Hydroxy-2-hydroxymethyl-2-methylpropionic acid", "Bis-MPA", "Bis(hydroxymethyl)propionic acid", "A 05150", "LA 6G", "KPL 53253"], "SMILES": "C(C(O)=O)(CO)(CO)C", "physical_data": {"Molecular Weight": "134.13", "Molecular Formula": "C5H10O4", "Melting Point": "190 \u00b0C"}}