{"cas_no": "4769-96-4", "cn_name": "6-\u785d\u57fa\u5432\u54da", "en_name": ["6-Nitroindole", "1H-Indole, 6-nitro-", "Indole, 6-nitro-", "6-Nitro-1H-indole", "6-Nitroindole", "NSC 89285"], "SMILES": "N(=O)(=O)C=1C=C2C(=CC1)C=CN2", "physical_data": {"Molecular Weight": "162.15", "Molecular Formula": "C8H6N2O2", "Melting Point": "139-140.5 \u00b0C"}}