{"cas_no": "4769-97-5", "cn_name": "4-\u785d\u57fa\u5432\u54da", "en_name": ["4-Nitroindole", "1H-Indole, 4-nitro-", "Indole, 4-nitro-", "4-Nitro-1H-indole", "4-Nitroindole"], "SMILES": "N(=O)(=O)C1=C2C(NC=C2)=CC=C1", "physical_data": {"Molecular Weight": "162.15", "Molecular Formula": "C8H6N2O2", "Melting Point": "205-206 \u00b0C"}}