{"cas_no": "477-48-5", "cn_name": "\u82e6\u9b3c\u81fc\u8102\u6bd2\u916e", "en_name": ["(-)-Picropodophyllone", "Furo[3\u2032,4\u2032:6,7]naphtho[2,3-d]-1,3-dioxole-5,8-dione, 5a,6,8a,9-tetrahydro-9-(3,4,5-trimethoxyphenyl)-, (5aR,8aS,9R)-", "Picropodophyllone", "Furo[3\u2032,4\u2032:6,7]naphtho[2,3-d]-1,3-dioxole-5,8-dione, 5a,6,8a,9-tetrahydro-9-(3,4,5-trimethoxyphenyl)-, [5aR-(5a\u03b1,8a\u03b1,9\u03b1)]-", "(5aR,8aS,9R)-5a,6,8a,9-Tetrahydro-9-(3,4,5-trimethoxyphenyl)furo[3\u2032,4\u2032:6,7]naphtho[2,3-d]-1,3-dioxole-5,8-dione", "Picropodophyllotoxon", "Picropodophyllotoxone", "(-)-Picropodophyllone"], "SMILES": "O=C1C2C(C=3C(C(=O)C2CO1)=CC4=C(C3)OCO4)C5=CC(OC)=C(OC)C(OC)=C5", "physical_data": {"Molecular Weight": "412.39", "Molecular Formula": "C22H20O8", "Melting Point": "153-154 \u00b0C"}}