{"cas_no": "477-43-0", "cn_name": "\u53bb\u6c22\u6728\u9999\u5185\u916f", "en_name": ["(-)-Dehydrocostus lactone", "Azuleno[4,5-b]furan-2(3H)-one, decahydro-3,6,9-tris(methylene)-, (3aS,6aR,9aR,9bS)-", "Costus lactone, dehydro-", "Guaia-4(15),10(14),11(13)-trien-12-oic acid, 6\u03b1-hydroxy-, \u03b3-lactone", "Azuleno[4,5-b]furan-2(3H)-one, decahydro-3,6,9-tris(methylene)-, [3aS-(3a\u03b1,6a\u03b1,9a\u03b1,9b\u03b2)]-", "(3aS,6aR,9aR,9bS)-Decahydro-3,6,9-tris(methylene)azuleno[4,5-b]furan-2(3H)-one", "Dehydrocostus lactone", "Epiligulyl oxide", "(-)-Dehydrocostus lactone"], "SMILES": "C=C1C2C3C(C(=C)C(=O)O3)CCC(=C)C2CC1", "physical_data": {"Molecular Weight": "230.30", "Molecular Formula": "C15H18O2", "Boiling Point": "140-143 \u00b0C @ Press: 0.5 Torr", "Melting Point": "61 \u00b0C"}}