{"cas_no": "477-84-9", "cn_name": "DAMNACANTHAL", "en_name": ["Damnacanthal", "2-Anthracenecarboxaldehyde, 9,10-dihydro-3-hydroxy-1-methoxy-9,10-dioxo-", "2-Anthraldehyde, 9,10-dihydro-3-hydroxy-1-methoxy-9,10-dioxo-", "2-Anthraquinonecarboxaldehyde, 3-hydroxy-1-methoxy-", "9,10-Dihydro-3-hydroxy-1-methoxy-9,10-dioxo-2-anthracenecarboxaldehyde", "Damnacanthal"], "SMILES": "O(C)C1=C2C(C(=O)C=3C(C2=O)=CC=CC3)=CC(O)=C1C=O", "physical_data": {"Molecular Weight": "282.25", "Molecular Formula": "C16H10O5", "Melting Point": "208 \u00b0C"}}