{"cas_no": "477-30-5", "cn_name": "\u79cb\u6c34\u4ed9\u78b1", "en_name": ["Demecolcine", "Benzo[a]heptalen-9(5H)-one, 6,7-dihydro-1,2,3,10-tetramethoxy-7-(methylamino)-, (7S)-", "Colchamine", "Colchicine, N-deacetyl-N-methyl-", "Benzo[a]heptalen-9(5H)-one, 6,7-dihydro-1,2,3,10-tetramethoxy-7-(methylamino)-, (S)-", "Colchicine, N-deacetyl-N-methyl-, (-)-", "(7S)-6,7-Dihydro-1,2,3,10-tetramethoxy-7-(methylamino)benzo[a]heptalen-9(5H)-one", "Colcemid", "Deacetylmethylcolchicine", "N-Deacetyl-N-methylcolchicine", "Demecolcin", "Demecolcine", "Deacetyl-N-methylcolchicine", "N-Desacetyl-N-methylcolchicine", "Desmecolcine", "N-Methyl-N-desacetylcolchicine", "Santavy's substance F", "Substance F", "Omaine", "N-Methyl-N-deacetylcolchicine", "Alkaloid H 3, from Colchicumantumnale", "Desacetylmethylcolchicine", "Kolchamin", "Colchamin", "Ciba 12669A", "NSC 3096", "Omain", "N-Methyltri-O-methylcolchicinic acid", "(-)-Colchamine", "(-)-Demecolcine", "C 12669", "Reichstein's F", "(7S)-1,2,3,10-Tetramethoxy-7-(methylamino)-6,7-dihydro-5H-benzo[a]heptalen-9-one"], "SMILES": "O(C)C1=C2C=3C(C(NC)CCC2=CC(OC)=C1OC)=CC(=O)C(OC)=CC3", "physical_data": {"Molecular Weight": "371.43", "Molecular Formula": "C21H25NO5", "Melting Point": "186 \u00b0C"}}