{"cas_no": "477-32-7", "cn_name": "\u7ef4\u53f8\u90a3\u5b9a", "en_name": ["Visnadine", "Butanoic acid, 2-methyl-, (9R,10R)-10-(acetyloxy)-9,10-dihydro-8,8-dimethyl-2-oxo-2H,8H-benzo[1,2-b:3,4-b\u2032]dipyran-9-yl ester, (2R)-", "Visnadin", "Butanoic acid, 2-methyl-, 10-(acetyloxy)-9,10-dihydro-8,8-dimethyl-2-oxo-2H,8H-benzo[1,2-b:3,4-b\u2032]dipyran-9-yl ester, [9R-[9\u03b1(R*),10\u03b1]]-", "Butyric acid, 2-methyl-, 9-ester with 9,10-dihydro-9,10-dihydroxy-8,8-dimethyl-2H,8H-benzo[1,2-b:3,4-b\u2032]dipyran-2-one acetate", "2H,8H-Benzo[1,2-b:3,4-b\u2032]dipyran, butanoic acid deriv.", "3-(\u03b1-Methylbutyryloxy)-4-acetoxy-3,4-dihydroseseline", "3,4,5-Trihydroxy-2,2-dimethyl-6-chromanacrylic acid \u03b4-lactone 4-acetate 3-(2-methylbutyrate)", "Visnadine", "Carduben", "Cardine", "Provismine (A)", "Vibeline", "Visgan", "Visnacorin", "Visnamine"], "SMILES": "O(C(C)=O)C1C=2C3=C(C=CC2OC(C)(C)C1OC(C(CC)C)=O)C=CC(=O)O3", "physical_data": {"Molecular Weight": "388.41", "Molecular Formula": "C21H24O7", "Melting Point": "85-88 \u00b0C"}}