{"cas_no": "477-90-7", "cn_name": "\u5ca9\u767d\u83dc\u7d20", "en_name": ["(-)-Bergenin", "Pyrano[3,2-c][2]benzopyran-6(2H)-one, 3,4,4a,10b-tetrahydro-3,4,8,10-tetrahydroxy-2-(hydroxymethyl)-9-methoxy-, (2R,3S,4S,4aR,10bS)-", "Bergenin", "Pyrano[3,2-c][2]benzopyran-6(2H)-one, 3,4,4a,10b-tetrahydro-3,4,8,10-tetrahydroxy-2-(hydroxymethyl)-9-methoxy-, [2R-(2\u03b1,3\u03b2,4\u03b1,4a\u03b1,10b\u03b2)]-", "\u03b1-Resorcylic acid, 4-methoxy-2-[tetrahydro-3,4,5-trihydroxy-6-(hydroxymethyl)pyran-2-yl]-, \u03b4-lactone", "(2R,3S,4S,4aR,10bS)-3,4,4a,10b-Tetrahydro-3,4,8,10-tetrahydroxy-2-(hydroxymethyl)-9-methoxypyrano[3,2-c][2]benzopyran-6(2H)-one", "Ai Cha Su", "Corylopsin", "Vakerin", "Peltophorin", "Cuscutin", "Ardisic acid B", "Bergenit", "NSC 661749", "(-)-Bergenin", "Bergeninum", "Bengenin"], "SMILES": "OC1=C2C3C(OC(=O)C2=CC(O)=C1OC)C(O)C(O)C(CO)O3", "physical_data": {"Molecular Weight": "328.27", "Molecular Formula": "C14H16O9", "Melting Point": "238 \u00b0C"}}