{"cas_no": "477-19-0", "cn_name": "\u77f3\u849c\u88c2\u78b1", "en_name": ["(5aR,7S,11bS,11cS)-1,2,3,5,5a,7,11b,11c-Octahydro-9,10-dimethoxy-1-methyl[2]benzopyrano[3,4-g]indol-7-ol", "[2]Benzopyrano[3,4-g]indol-7-ol, 1,2,3,5,5a,7,11b,11c-octahydro-9,10-dimethoxy-1-methyl-, (5aR,7S,11bS,11cS)-", "Lycorenine", "Lycorenan-7-ol, 9,10-dimethoxy-1-methyl-, (7\u03b1)-", "(5aR,7S,11bS,11cS)-1,2,3,5,5a,7,11b,11c-Octahydro-9,10-dimethoxy-1-methyl[2]benzopyrano[3,4-g]indol-7-ol", "[2]Benzopyrano[3,4-g]indol-7-ol, 1,2,3,5,5a,7,11b,11c-octahydro-9,10-dimethoxy-1-methyl-, [5aR-(5a\u03b1,7\u03b1,11b\u03b1,11c\u03b2)]-"], "SMILES": "CN1C2C3C=4C(=CC(OC)=C(OC)C4)C(O)OC3CC=C2CC1", "physical_data": {"Molecular Weight": "317.38", "Molecular Formula": "C18H23NO4", "Melting Point": "202 \u00b0C"}}