{"cas_no": "477-75-8", "cn_name": "\u4e09\u8776\u70ef", "en_name": ["Triptycene", "9,10[1\u2032,2\u2032]-Benzenoanthracene, 9,10-dihydro-", "9,10-o-Benzenoanthracene, 9,10-dihydro-", "9,10-Benzenoanthracene, 9,10-dihydro-", "9,10-Dihydro-9,10[1\u2032,2\u2032]-benzenoanthracene", "Triptycene", "Tribenzobicyclo[2.2.2]octatriene", "Tryptycene", "9,10-Dihydro-9,10-o-benzenoanthracene", "NSC 122926"], "SMILES": "C12C=3C(C(C=4C1=CC=CC4)C=5C2=CC=CC5)=CC=CC3", "physical_data": {"Molecular Weight": "254.33", "Molecular Formula": "C20H14", "Melting Point": "253.5 \u00b0C"}}