{"cas_no": "477-27-0", "cn_name": "\u539f\u79cb\u6c34\u4ed9\u9e7c", "en_name": ["Colchiceine", "Acetamide, N-[(7S)-5,6,7,9-tetrahydro-10-hydroxy-1,2,3-trimethoxy-9-oxobenzo[a]heptalen-7-yl]-", "Colchiceine", "Acetamide, N-(5,6,7,9-tetrahydro-10-hydroxy-1,2,3-trimethoxy-9-oxobenzo[a]heptalen-7-yl)-, (S)-", "Benzo[a]heptalene, acetamide deriv.", "N-[(7S)-5,6,7,9-Tetrahydro-10-hydroxy-1,2,3-trimethoxy-9-oxobenzo[a]heptalen-7-yl]acetamide", "O10-Demethylcolchicine", "NSC 33411", "10-O-Demethylcolchicine"], "SMILES": "O(C)C1=C2C=3C(C(NC(C)=O)CCC2=CC(OC)=C1OC)=CC(=O)C(O)=CC3", "physical_data": {"Molecular Weight": "385.41", "Molecular Formula": "C21H23NO6", "Melting Point": "178.5 \u00b0C"}}