{"cas_no": "477-85-0", "cn_name": "\u7f8e\u51b3\u660e\u5b50\u7d20", "en_name": ["Obtusifolin", "9,10-Anthracenedione, 2,8-dihydroxy-1-methoxy-3-methyl-", "Anthraquinone, 2,8-dihydroxy-1-methoxy-3-methyl-", "2,8-Dihydroxy-1-methoxy-3-methyl-9,10-anthracenedione", "Obtusifolin (anthraquinone)", "Obtusifolin", "Obtusifoline"], "SMILES": "O(C)C1=C2C(C(=O)C=3C(C2=O)=C(O)C=CC3)=CC(C)=C1O", "physical_data": {"Molecular Weight": "284.26", "Molecular Formula": "C16H12O5", "Melting Point": "242-243 \u00b0C"}}