{"cas_no": "4770-39-2", "cn_name": "5-Methoxyindoline HCl", "en_name": ["1H-Indole, 2,3-dihydro-5-methoxy-, hydrochloride (1:1)", "1H-Indole, 2,3-dihydro-5-methoxy-, hydrochloride (1:1)", "Indoline, 5-methoxy-, hydrochloride", "1H-Indole, 2,3-dihydro-5-methoxy-, hydrochloride", "5-Methoxy-2,3-dihydroindole hydrochloride", "5-(Methyloxy)-2,3-dihydro-1H-indole hydrochloride"], "SMILES": "O(C)C=1C=C2C(=CC1)NCC2.Cl", "physical_data": {"Molecular Weight": "", "Molecular Formula": "C9H11NO.ClH", "Melting Point": "179-180 \u00b0C"}}