{"cas_no": "4771-47-5", "cn_name": "3-\u6c2f-2-\u785d\u57fa\u82ef\u7532\u9178", "en_name": ["3-Chloro-2-nitrobenzoic acid", "Benzoic acid, 3-chloro-2-nitro-", "3-Chloro-2-nitrobenzoic acid", "2-Nitro-3-chlorobenzoic acid"], "SMILES": "N(=O)(=O)C1=C(C(O)=O)C=CC=C1Cl", "physical_data": {"Molecular Weight": "201.56", "Molecular Formula": "C7H4ClNO4", "Melting Point": "238 \u00b0C"}}