{"cas_no": "4771-80-6", "cn_name": "3-\u73af\u5df1\u70ef-1-\u7532\u9178", "en_name": ["3-Cyclohexene-1-carboxylic acid", "3-Cyclohexene-1-carboxylic acid", "\u03943-Cyclohexenecarboxylic acid", "\u03943-Cyclohexenylcarboxylic acid", "3-Cyclohexenecarboxylic acid", "1-Cyclohexene-4-carboxylic acid", "3-Cyclohexenylcarboxylic acid", "(\u00b1)-3-Cyclohexene-1-carboxylic acid", "NSC 44712", "NSC 44883", "3-Cyclohexenyl-1-formic acid"], "SMILES": "C(O)(=O)C1CCC=CC1", "physical_data": {"Molecular Weight": "126.15", "Molecular Formula": "C7H10O2", "Boiling Point": "234.5 \u00b0C", "Melting Point": "17 \u00b0C", "Density": "1.081 g/cm\u00b3 @ Temp: 15 \u00b0C"}}