{"cas_no": "4773-96-0", "cn_name": "\u8292\u679c\u82f7", "en_name": ["Mangiferin", "9H-Xanthen-9-one, 2-\u03b2-D-glucopyranosyl-1,3,6,7-tetrahydroxy-", "Mangiferin", "2-\u03b2-D-Glucopyranosyl-1,3,6,7-tetrahydroxy-9H-xanthen-9-one", "Hedysarid", "Aphloiol", "1,3,6,7-Tetrahydroxyxanthone-C2-\u03b2-D-glucoside", "Chinomin", "2-C-\u03b2-D-Glucopyranosyl-1,3,6,7-tetrahydroxyxanthone", "Alpizarine", "Alpizarin", "Chinonin", "NSC 248870", "Shamimin"], "SMILES": "OC1=C2C(OC=3C(C2=O)=CC(O)=C(O)C3)=CC(O)=C1C4OC(CO)C(O)C(O)C4O", "physical_data": {"Molecular Weight": "422.34", "Molecular Formula": "C19H18O11", "Melting Point": "322 \u00b0C"}}