{"cas_no": "4773-33-5", "cn_name": "\u03b1-\u6c2f\u4ee3\u82ef\u4e59\u9178\u4e59\u916f", "en_name": ["Ethyl \u03b1-chlorobenzeneacetate", "Benzeneacetic acid, \u03b1-chloro-, ethyl ester", "Acetic acid, chlorophenyl-, ethyl ester", "Ethyl \u03b1-chlorobenzeneacetate", "Ethyl \u03b1-chlorophenylacetate", "Ethyl chlorophenylacetate", "Ethyl \u03b1-chloro-\u03b1-phenylacetate", "Ethyl 2-chloro-2-phenylacetate", "\u03b1-Chlorobenzeneacetic acid ethyl ester", "NSC 34191"], "SMILES": "C(C(OCC)=O)(Cl)C1=CC=CC=C1", "physical_data": {"Molecular Weight": "198.65", "Molecular Formula": "C10H11ClO2", "Boiling Point": "132-133 \u00b0C @ Press: 13 Torr", "Density": "1.162 g/cm\u00b3 @ Temp: 16.4 \u00b0C"}}