{"cas_no": "4774-14-5", "cn_name": "2,6-\u4e8c\u6c2f\u5421\u55ea", "en_name": ["2,6-Dichloropyrazine", "Pyrazine, 2,6-dichloro-", "2,6-Dichloropyrazine", "m-Dichloropyrazine"], "SMILES": "ClC1=NC(Cl)=CN=C1", "physical_data": {"Molecular Weight": "148.98", "Molecular Formula": "C4H2Cl2N2", "Boiling Point": "94-107 \u00b0C @ Press: 50 Torr", "Melting Point": "55-58 \u00b0C"}}