{"cas_no": "4774-34-9", "cn_name": "4-\u7f9f\u57fa-5-\u6c30\u57fa\u5627\u5576", "en_name": ["1,6-Dihydro-6-oxo-5-pyrimidinecarbonitrile", "5-Pyrimidinecarbonitrile, 1,6-dihydro-6-oxo-", "5-Pyrimidinecarbonitrile, 4-hydroxy-", "5-Pyrimidinecarbonitrile, 1,4-dihydro-4-oxo-", "1,6-Dihydro-6-oxo-5-pyrimidinecarbonitrile"], "SMILES": "C(#N)C=1C(=O)NC=NC1", "physical_data": {"Molecular Weight": "121.10", "Molecular Formula": "C5H3N3O", "Melting Point": "244-245 \u00b0C"}}