{"cas_no": "4774-35-0", "cn_name": "4-\u7f9f\u57fa-5-\u5627\u5576\u7532\u9178\u7532\u916f", "en_name": ["Methyl 1,6-dihydro-6-oxo-5-pyrimidinecarboxylate", "5-Pyrimidinecarboxylic acid, 1,6-dihydro-6-oxo-, methyl ester", "5-Pyrimidinecarboxylic acid, 4-hydroxy-, methyl ester", "5-Pyrimidinecarboxylic acid, 1,4-dihydro-4-oxo-, methyl ester", "Methyl 1,6-dihydro-6-oxo-5-pyrimidinecarboxylate", "Methyl 6-oxo-1,6-dihydropyrimidine-5-carboxylate", "Methyl 4-hydroxypyrimidine-5-carboxylate"], "SMILES": "C(OC)(=O)C=1C(=O)NC=NC1", "physical_data": {"Molecular Weight": "154.12", "Molecular Formula": "C6H6N2O3", "Melting Point": "209-210 \u00b0C"}}