{"cas_no": "4774-24-7", "cn_name": "\u55b9\u54cc\u55ea", "en_name": ["Quipazine", "Quinoline, 2-(1-piperazinyl)-", "2-(1-Piperazinyl)quinoline", "Quipazine", "1-(2-Quinolyl)piperazine", "1-(2-Quinolinyl)piperazine", "2-Piperazinoquinoline", "MeSH ID: D011814"], "SMILES": "C1(=NC2=C(C=C1)C=CC=C2)N3CCNCC3", "physical_data": {"Molecular Weight": "213.28", "Molecular Formula": "C13H15N3", "Melting Point": "81-83 \u00b0C"}}