{"cas_no": "4775-80-8", "cn_name": "S-\u82ef\u6c5e\u57fa\u9178", "en_name": ["Phenylmercapturic acid", "L-Cysteine, N-acetyl-S-phenyl-", "Alanine, N-acetyl-3-(phenylthio)-", "N-Acetyl-S-phenyl-L-cysteine", "Phenylmercapturic acid", "S-Phenylmercapturic acid", "NSC 17197", "(2R)-2-Acetamido-3-(phenylsulfanyl)propanoic acid", "(R)-2-Acetamido-3-(phenylthio)propanoic acid"], "SMILES": "C(CSC1=CC=CC=C1)(NC(C)=O)C(O)=O", "physical_data": {"Molecular Weight": "239.29", "Molecular Formula": "C11H13NO3S", "Melting Point": "142 \u00b0C"}}