{"cas_no": "47758-37-2", "cn_name": "9,9-\u4e8c[(2,3-\u73af\u6c27\u4e19\u6c27\u57fa)\u82ef\u57fa]\u82b4", "en_name": ["9,9-Bis(4-glycidyloxyphenyl)fluorene", "Oxirane, 2,2\u2032-[9H-fluoren-9-ylidenebis(4,1-phenyleneoxymethylene)]bis-", "2,2\u2032-[9H-Fluoren-9-ylidenebis(4,1-phenyleneoxymethylene)]bis[oxirane]", "9,9-Bis(4-glycidyloxyphenyl)fluorene", "Bisphenolfluorene diglycidyl ether", "Bisphenol FL diglycidyl ether", "9,9-Bis(4-glycidoxyphenyl)fluorene", "9,9\u2032-Bis(4-glycidyloxyphenyl)fluorene", "2-[[4-[9-[4-(Oxiran-2-ylmethoxy)phenyl]fluoren-9-yl]phenoxy]methyl]oxirane", "4,4\u2032-(9-Fluorenylidene)-diphenol diglycidyl ether"], "SMILES": "O(CC1CO1)C2=CC=C(C3(C=4C(C=5C3=CC=CC5)=CC=CC4)C6=CC=C(OCC7CO7)C=C6)C=C2", "physical_data": {"Molecular Weight": "462.54", "Molecular Formula": "C31H26O4", "Melting Point": "153 \u00b0C"}}