{"cas_no": "4775-98-8", "cn_name": "6-\u7532\u57fa\u54cc\u5576-2-\u916e", "en_name": ["6-Methyl-2-piperidone", "2-Piperidinone, 6-methyl-", "2-Piperidone, 6-methyl-", "2-Piperidinone, 6-methyl-, (\u00b1)-", "6-Methyl-2-piperidinone", "Hexanoic acid, 5-amino-, lactam", "2-Pipecolin-6-one", "6-Methyl-2-piperidone", "6-Methyl-\u03b4-valerolactam", "(\u00b1)-6-Methyl-2-piperidone", "(\u00b1)-6-Methyl-2-piperidinone"], "SMILES": "CC1NC(=O)CCC1", "physical_data": {"Molecular Weight": "113.16", "Molecular Formula": "C6H11NO", "Boiling Point": "140-148 \u00b0C", "Melting Point": "87.2-88 \u00b0C"}}