{"cas_no": "477600-74-1", "cn_name": "N-\u7532\u57fa-N-((3R,4R)-4-\u7532\u57fa\u54cc\u5576-3-\u57fa)-7H-\u5421\u54af\u5e76[2,3-D]\u5627\u5576-4-\u80fa", "en_name": ["N-Methyl-N-[(3R,4R)-4-methyl-3-piperidinyl]-7H-pyrrolo[2,3-d]pyrimidin-4-amine", "7H-Pyrrolo[2,3-d]pyrimidin-4-amine, N-methyl-N-[(3R,4R)-4-methyl-3-piperidinyl]-", "1H-Pyrrolo[2,3-d]pyrimidin-4-amine, N-methyl-N-[(3R,4R)-4-methyl-3-piperidinyl]-", "N-Methyl-N-[(3R,4R)-4-methyl-3-piperidinyl]-7H-pyrrolo[2,3-d]pyrimidin-4-amine", "(3R,4R)-Methyl{(4-methylpiperidin-3-yl)(7H-pyrrolo[2,3-d]pyrimidin-4-yl)}amine"], "SMILES": "N(C)(C1=C2C(NC=C2)=NC=N1)C3C(C)CCNC3", "physical_data": {"Molecular Weight": "245.32", "Molecular Formula": "C13H19N5", "Melting Point": "158.5-159.5 \u00b0C"}}