{"cas_no": "477600-73-0", "cn_name": "N-\u7532\u57fa-N-((3R,4R)-4-\u7532\u57fa-1-\u82c4\u57fa-3-\u54cc\u5576\u57fa)-7H-\u5421\u54af\u5e76[2,3-D]\u5627\u5576-4-\u80fa", "en_name": ["N-Methyl-N-[(3R,4R)-4-methyl-1-(phenylmethyl)-3-piperidinyl]-7H-pyrrolo[2,3-d]pyrimidin-4-amine", "7H-Pyrrolo[2,3-d]pyrimidin-4-amine, N-methyl-N-[(3R,4R)-4-methyl-1-(phenylmethyl)-3-piperidinyl]-", "1H-Pyrrolo[2,3-d]pyrimidin-4-amine, N-methyl-N-[(3R,4R)-4-methyl-1-(phenylmethyl)-3-piperidinyl]-", "N-Methyl-N-[(3R,4R)-4-methyl-1-(phenylmethyl)-3-piperidinyl]-7H-pyrrolo[2,3-d]pyrimidin-4-amine"], "SMILES": "N(C)(C1=C2C(=NC=N1)NC=C2)C3CN(CC4=CC=CC=C4)CCC3C", "physical_data": {"Molecular Weight": "335.45", "Molecular Formula": "C20H25N5", "Melting Point": "67-69 \u00b0C"}}