{"cas_no": "4779-94-6", "cn_name": "\u76d0\u9178\u53bb\u7532\u82ef\u798f\u6797", "en_name": ["Benzenemethanol, \u03b1-(aminomethyl)-3-hydroxy-, hydrochloride (1:1)", "Benzenemethanol, \u03b1-(aminomethyl)-3-hydroxy-, hydrochloride (1:1)", "Benzyl alcohol, \u03b1-(aminomethyl)-m-hydroxy-, hydrochloride", "Benzenemethanol, \u03b1-(aminomethyl)-3-hydroxy-, hydrochloride", "Norfenefrin", "Norphenephrine hydrochloride", "Norphenylephrine hydrochloride", "1-(m-Hydroxyphenyl)-2-aminoethanol hydrochloride", "2-Amino-1-(3-hydroxyphenyl)ethanol hydrochloride", "m-Octopamine hydrochloride", "\u03b1-(Aminomethyl)-m-hydroxybenzyl alcohol hydrochloride", "Norfenefrine hydrochloride", "Zondel", "(\u00b1)-Norphenylephrine hydrochloride", "Novadral", "DL-m-Octopamine hydrochloride", "(\u00b1)-m-Octopamine hydrochloride", "Stagural", "dl-Norfenefrine hydrochloride", "Energona", "Tonolift", "Coritat", "WV 569", "Depot-Novadral", "Vingsal", "Esbuphon", "Molycor R", "NSC 100733", "NSC 297582"], "SMILES": "C(CN)(O)C1=CC(O)=CC=C1.Cl", "physical_data": {"Molecular Weight": "", "Molecular Formula": "C8H11NO2.ClH", "Melting Point": "159-160 \u00b0C"}}