{"cas_no": "478-43-3", "cn_name": "\u5927\u9ec4\u9178", "en_name": ["Rhein", "2-Anthracenecarboxylic acid, 9,10-dihydro-4,5-dihydroxy-9,10-dioxo-", "2-Anthroic acid, 9,10-dihydro-4,5-dihydroxy-9,10-dioxo-", "2-Anthraquinonecarboxylic acid, 4,5-dihydroxy-", "9,10-Dihydro-4,5-dihydroxy-9,10-dioxo-2-anthracenecarboxylic acid", "Cassic acid", "Chrysazin-3-carboxylic acid", "1,8-Dihydroxyanthraquinone-3-carboxylic acid", "Monorhein", "Rheic acid", "Rhein", "Rhubarb yellow", "4,5-Dihydroxy-2-anthraquinonecarboxylic acid", "1,8-Dihydroxy-3-carboxyanthraquinone", "NSC 38629", "Rheinic acid"], "SMILES": "O=C1C=2C(C(=O)C=3C1=C(O)C=CC3)=CC(C(O)=O)=CC2O", "physical_data": {"Molecular Weight": "284.22", "Molecular Formula": "C15H8O6", "Melting Point": "321-321.5 \u00b0C (sublm)"}}