{"cas_no": "478-01-3", "cn_name": "\u5ddd\u9648\u76ae\u7d20", "en_name": ["Nobiletin", "4H-1-Benzopyran-4-one, 2-(3,4-dimethoxyphenyl)-5,6,7,8-tetramethoxy-", "Flavone, 3\u2032,4\u2032,5,6,7,8-hexamethoxy-", "Nobiletin", "2-(3,4-Dimethoxyphenyl)-5,6,7,8-tetramethoxy-4H-1-benzopyran-4-one", "5,6,7,8,3\u2032,4\u2032-Hexamethoxyflavone", "3\u2032,4\u2032,5,6,7,8-Hexamethoxyflavone", "NSC 618903", "NSC 76751", "PMF 90", "2-(3,4-Dimethoxyphenyl)-5,6,7,8-tetramethoxychromen-4-one"], "SMILES": "O(C)C1=C2C(=C(OC)C(OC)=C1OC)OC(=CC2=O)C3=CC(OC)=C(OC)C=C3", "physical_data": {"Molecular Weight": "402.39", "Molecular Formula": "C21H22O8", "Melting Point": "136.5-137.5 \u00b0C"}}