{"cas_no": "478-08-0", "cn_name": "LUCIDIN", "en_name": ["Lucidin", "9,10-Anthracenedione, 1,3-dihydroxy-2-(hydroxymethyl)-", "Anthraquinone, 1,3-dihydroxy-2-(hydroxymethyl)-", "1,3-Dihydroxy-2-(hydroxymethyl)-9,10-anthracenedione", "Henine", "Lucidin", "Lucidin (quinone)", "1,3-Dihydroxy-2-(hydroxymethyl)anthraquinone", "NSC 30546"], "SMILES": "O=C1C=2C(C(=O)C=3C1=CC=CC3)=CC(O)=C(CO)C2O", "physical_data": {"Molecular Weight": "270.24", "Molecular Formula": "C15H10O5", "Melting Point": "330 \u00b0C"}}