{"cas_no": "478-61-5", "cn_name": "\u5c0f\u6a97\u80fa", "en_name": ["(+)-Berbamine", "16H-1,24:6,9-Dietheno-11,15-metheno-2H-pyrido[2\u2032,3\u2032:17,18][1,11]dioxacycloeicosino[2,3,4-ij]isoquinolin-12-ol, 3,4,4a,5,16a,17,18,19-octahydro-21,22,26-trimethoxy-4,17-dimethyl-, (4aS,16aR)-", "Berbamine", "Berbaman-12-ol, 6,6\u2032,7-trimethoxy-2,2\u2032-dimethyl-", "(4aS,16aR)-3,4,4a,5,16a,17,18,19-Octahydro-21,22,26-trimethoxy-4,17-dimethyl-16H-1,24:6,9-dietheno-11,15-metheno-2H-pyrido[2\u2032,3\u2032:17,18][1,11]dioxacycloeicosino[2,3,4-ij]isoquinolin-12-ol", "Berbenine", "16H-1,24:6,9-Dietheno-11,15-metheno-2H-pyrido[2\u2032,3\u2032:17,18][1,11]dioxacycloeicosino[2,3,4-ij]isoquinolin-12-ol, 3,4,4a,5,16a,17,18,19-octahydro-21,22,26-trimethoxy-4,17-dimethyl-, [4aS-(4aR*,16aS*)]-", "d-Berbamine", "(+)-Berbamine", "NSC 121842"], "SMILES": "O(C)C1=C2C3=C(C=C1OC)CCN(C)C3CC=4C=C(OC=5C=CC(CC6C7=CC(O2)=C(OC)C=C7CCN6C)=CC5)C(O)=CC4", "physical_data": {"Molecular Weight": "608.72", "Molecular Formula": "C37H40N2O6", "Melting Point": "170 \u00b0C"}}