{"cas_no": "4780-14-7", "cn_name": "2-\u7532\u57fa-3-\u7532\u6c27\u57fa-4H-\u5421\u5583-4-\u916e", "en_name": ["3-Methoxy-2-methyl-4H-pyran-4-one", "4H-Pyran-4-one, 3-methoxy-2-methyl-", "3-Methoxy-2-methyl-4H-pyran-4-one", "Maltol methyl ether", "5-Methoxy-6-methyl-4-pyrone", "3-Methoxy-2-methyl-4-pyranone", "2-Methyl-3-methoxypyran-4(1H)-one"], "SMILES": "O(C)C=1C(=O)C=COC1C", "physical_data": {"Molecular Weight": "140.14", "Molecular Formula": "C7H8O3", "Boiling Point": "85-89 \u00b0C @ Press: 3.5 Torr"}}