{"cas_no": "4780-79-4", "cn_name": "1-\u8418\u7532\u9187", "en_name": ["1-Naphthalenemethanol", "1-Naphthalenemethanol", "1-(Hydroxymethyl)naphthalene", "\u03b1-Naphthylcarbinol", "1-Naphthylmethyl alcohol", "\u03b1-Naphthylmethanol", "1-Naphthylmethanol", "1-Naphthylenemethanol", "Naphthalen-1-ylmethanol", "NSC 5315", "1-Naphthylcarbinol"], "SMILES": "C(O)C=1C2=C(C=CC1)C=CC=C2", "physical_data": {"Molecular Weight": "158.20", "Molecular Formula": "C11H10O", "Boiling Point": "304 \u00b0C", "Melting Point": "64 \u00b0C"}}