{"cas_no": "4781-83-3", "cn_name": "2-\u4e9a\u6c28\u57fa\u786b\u70f7\u76d0\u9178\u76d0", "en_name": ["2-Iminothiolane hydrochloride", "2(3H)-Thiophenimine, dihydro-, hydrochloride (1:1)", "2(3H)-Thiophenimine, dihydro-, hydrochloride", "2-Iminothiolane hydrochloride", "Traut's reagent"], "SMILES": "N=C1CCCS1.Cl", "physical_data": {"Molecular Weight": "", "Molecular Formula": "C4H7NS.ClH", "Melting Point": "190-195 \u00b0C"}}