{"cas_no": "478296-72-9", "cn_name": "\u52a0\u5df4\u55b7\u4e01\u6069\u90a3\u5361\u6bd4", "en_name": ["Gabapentin enacarbil", "Cyclohexaneacetic acid, 1-[[[[1-(2-methyl-1-oxopropoxy)ethoxy]carbonyl]amino]methyl]-", "1-[[[[1-(2-Methyl-1-oxopropoxy)ethoxy]carbonyl]amino]methyl]cyclohexaneacetic acid", "XP 13512", "Gabapentin enacarbil", "Horizant", "Regnite", "1-[[(1-(Isobutanoyloxy)ethoxy)carbonyl]aminomethyl]cyclohex-1-ylacetic acid"], "SMILES": "C(NC(OC(OC(C(C)C)=O)C)=O)C1(CC(O)=O)CCCCC1", "physical_data": {"Molecular Weight": "329.39", "Molecular Formula": "C16H27NO6", "Melting Point": "65 \u00b0C"}}