{"cas_no": "4783-86-2", "cn_name": "4-\u82ef\u6c27\u57fa\u5421\u5576", "en_name": ["4-Phenoxypyridine", "Pyridine, 4-phenoxy-", "4-Phenoxypyridine", "NSC 68195"], "SMILES": "O(C1=CC=CC=C1)C=2C=CN=CC2", "physical_data": {"Molecular Weight": "171.20", "Molecular Formula": "C11H9NO", "Boiling Point": "141-142 \u00b0C @ Press: 14 Torr", "Melting Point": "45.5-46.5 \u00b0C"}}