{"cas_no": "4783-68-0", "cn_name": "2-\u82ef\u6c27\u57fa\u5421\u5576", "en_name": ["2-Phenoxypyridine", "Pyridine, 2-phenoxy-", "2-Phenoxypyridine", "NSC 85906"], "SMILES": "O(C1=CC=CC=C1)C2=CC=CC=N2", "physical_data": {"Molecular Weight": "171.20", "Molecular Formula": "C11H9NO", "Boiling Point": "277-277.5 \u00b0C", "Melting Point": "46-48 \u00b0C"}}