{"cas_no": "4784-77-4", "cn_name": "1-\u6eb4-2-\u4e01\u70ef", "en_name": ["1-Bromo-2-butene", "2-Butene, 1-bromo-", "1-Bromo-2-butene", "Crotyl bromide", "2-Butenyl bromide", "Crotonyl bromide", "4-Bromo-2-butene", "NSC 20942", "1-Bromomethylprop-1-ene"], "SMILES": "C(CBr)=CC", "physical_data": {"Molecular Weight": "135.00", "Molecular Formula": "C4H7Br", "Boiling Point": "104.5 \u00b0C", "Density": "1.3357 g/cm\u00b3 @ Temp: 25 \u00b0C"}}