{"cas_no": "478556-66-0", "cn_name": "1-[9-\u4e59\u57fa-6-(2-\u7532\u57fa\u82ef\u7532\u9170\u57fa)-9H-\u5494\u5511-3-\u57fa]\u4e59\u916e 1-(O-\u4e59\u9170\u809f)", "en_name": ["Irgacure OXE 02", "Ethanone, 1-[9-ethyl-6-(2-methylbenzoyl)-9H-carbazol-3-yl]-, 1-(O-acetyloxime)", "CGI 242", "1-(O-Acetyloxime)-1-[9-ethyl-6-(2-methylbenzoyl)-9H-carbazol-3-yl]ethanone", "Irgacure OXE 02", "OXE 02", "I-OXE 02", "O-Acetyl-1-[6-(2-methylbenzoyl)-9-ethyl-9H-carbazol-3-yl]ethanone oxime", "OXE 2", "1-[9-Ethyl-6-(2-methylbenzoyl)-9H-carbazol-3-yl]ethanone-1-(O-acetyloxime)"], "SMILES": "C(C)N1C=2C(C=3C1=CC=C(C(=NOC(C)=O)C)C3)=CC(C(=O)C4=C(C)C=CC=C4)=CC2", "physical_data": {"Molecular Weight": "412.48", "Molecular Formula": "C26H24N2O3", "Melting Point": "125.5-126.1 \u00b0C"}}