{"cas_no": "4786-20-3", "cn_name": "2-\u4e01\u70ef\u8148", "en_name": ["2-Butenenitrile", "2-Butenenitrile", "Crotononitrile", "1-Cyanopropene", "1-Propenyl cyanide", "Crotonic nitrile", "\u03b2-Methylacrylonitrile", "NSC 165574"], "SMILES": "C(=CC)C#N", "physical_data": {"Molecular Weight": "67.09", "Molecular Formula": "C4H5N", "Boiling Point": "120.5 \u00b0C"}}