{"cas_no": "4786-52-1", "cn_name": "4-\u7f9f\u57fa-5-\u5627\u5576\u7532\u9178\u4e59\u916f", "en_name": ["Ethyl 1,6-dihydro-6-oxo-5-pyrimidinecarboxylate", "5-Pyrimidinecarboxylic acid, 1,6-dihydro-6-oxo-, ethyl ester", "5-Pyrimidinecarboxylic acid, 4-hydroxy-, ethyl ester", "5-Pyrimidinecarboxylic acid, 1,4-dihydro-4-oxo-, ethyl ester", "Ethyl 1,6-dihydro-6-oxo-5-pyrimidinecarboxylate", "5-Ethoxycarbonyl-4-hydroxypyrimidine", "Ethyl 4-hydroxy-5-pyrimidinecarboxylate", "Ethyl 3,4-dihydro-4-oxopyrimidine-5-carboxylate", "NSC 69216", "4-Hydroxypyrimidine-5-carboxylic acid ethyl ester"], "SMILES": "C(OCC)(=O)C=1C(=O)NC=NC1", "physical_data": {"Molecular Weight": "168.15", "Molecular Formula": "C7H8N2O3", "Melting Point": "185-186 \u00b0C"}}