{"cas_no": "479-18-5", "cn_name": "\u4e8c\u7f9f\u4e19\u8336\u78b1", "en_name": ["Diprophylline", "1H-Purine-2,6-dione, 7-(2,3-dihydroxypropyl)-3,7-dihydro-1,3-dimethyl-", "Theophylline, 7-(2,3-dihydroxypropyl)-", "7-(2,3-Dihydroxypropyl)-3,7-dihydro-1,3-dimethyl-1H-purine-2,6-dione", "AFI-phyllin", "Astrophyllin", "Corphyllin", "7-(2,3-Dihydroxypropyl)theophylline", "Diprophylline", "Dyphylline", "Glyfyllin", "Glyphylline", "Hyphylline", "Neostenovasan", "Neothylline", "Neotilina", "Neutrafil", "Neutraphylline", "Solufilin", "Solufyllin", "Theal", "Thefylan", "Neo-Vasophylline", "Neophyllin", "Neophylline", "7-(2,3-Dihydroxypropyl)-1,3-dimethylxanthine", "Circain", "Coronarin", "Cor-Theophylline", "Hiphyllin", "Lufyllin", "Neo-Vasophylline", "Silbephylline", "Diprophyllin", "Diprofillin", "Aristophyllin", "Diphyllin", "Coronal", "Neutraphyllin", "Silbephyllin", "Soluphyllin", "Tefilan", "Teofen", "Hidroxiteofillina", "Propyphyllin", "Neufil", "Synthophylline", "Purifilin", "Neutrafillina", "Neutroxantina", "7-(\u03b2,\u03b3-Dihydroxypropyl)theophylline", "Glyphyllin", "Protheophylline", "Neophyllin M", "Diphylline", "Diphylline (pharmaceutical)", "Neothyllin", "Astmophysine", "Asthmolysin", "Isophyllen", "Prophyllen", "Athmolysin", "Theal ampules", "Astmamasit", "Thefulan", "Cor-Theophyllin", "Circair", "Neophyl", "Dilor", "NSC 14305", "NSC 40844", "(Rac)-diprophylline"], "SMILES": "C(C(CO)O)N1C2=C(N(C)C(=O)N(C)C2=O)N=C1", "physical_data": {"Molecular Weight": "254.24", "Molecular Formula": "C10H14N4O4", "Melting Point": "158 \u00b0C"}}