{"cas_no": "479-13-0", "cn_name": "\u8003\u8fc8\u65af\u6258\u9187", "en_name": ["Coumestrol", "6H-Benzofuro[3,2-c][1]benzopyran-6-one, 3,9-dihydroxy-", "3-Benzofurancarboxylic acid, 2-(2,4-dihydroxyphenyl)-6-hydroxy-, \u03b4-lactone", "3,9-Dihydroxy-6H-benzofuro[3,2-c][1]benzopyran-6-one", "Coumestrol", "2-(2,4-Dihydroxyphenyl)-6-hydroxy-3-benzofurancarboxylic acid \u03b4-lactone", "Cumostrol", "Cumoestrol", "Coumesterol", "NSC 22842", "3,9-Dihydroxy-[1]benzofuro[3,2-c]chromen-6-one", "MeSH ID: D003375"], "SMILES": "O=C1C2=C(C=3C(O1)=CC(O)=CC3)OC=4C2=CC=C(O)C4", "physical_data": {"Molecular Weight": "268.22", "Molecular Formula": "C15H8O5", "Melting Point": "385 \u00b0C (decomp)"}}