{"cas_no": "479-98-1", "cn_name": "\u6843\u53f6\u73ca\u745a\u82f7", "en_name": ["Aucubin", "\u03b2-D-Glucopyranoside, (1S,4aR,5S,7aS)-1,4a,5,7a-tetrahydro-5-hydroxy-7-(hydroxymethyl)cyclopenta[c]pyran-1-yl", "Aucubin", "\u03b2-D-Glucopyranoside, 1,4a,5,7a-tetrahydro-5-hydroxy-7-(hydroxymethyl)cyclopenta[c]pyran-1-yl, [1S-(1\u03b1,4a\u03b1,5\u03b1,7a\u03b1)]-", "(1S,4aR,5S,7aS)-1,4a,5,7a-Tetrahydro-5-hydroxy-7-(hydroxymethyl)cyclopenta[c]pyran-1-yl \u03b2-D-glucopyranoside", "Aucuboside", "Rhimantin", "Aucubine", "Aucubosid", "Acubin"], "SMILES": "O(C1C2C(C(O)C=C2CO)C=CO1)C3OC(CO)C(O)C(O)C3O", "physical_data": {"Molecular Weight": "346.33", "Molecular Formula": "C15H22O9", "Melting Point": "181 \u00b0C"}}