{"cas_no": "479-91-4", "cn_name": "\u8513\u8346\u5b50\u9ec4\u7d20", "en_name": ["Casticin", "4H-1-Benzopyran-4-one, 5-hydroxy-2-(3-hydroxy-4-methoxyphenyl)-3,6,7-trimethoxy-", "Flavone, 3\u2032,5-dihydroxy-3,4\u2032,6,7-tetramethoxy-", "Casticin", "5-Hydroxy-2-(3-hydroxy-4-methoxyphenyl)-3,6,7-trimethoxy-4H-1-benzopyran-4-one", "Vitexicarpin", "Casticine", "5,3\u2032-Dihydroxy-3,6,7,4\u2032-tetramethoxyflavone", "3,6,7,4\u2032-Tetra-O-methyl-5,3\u2032-dihydroxyflavone", "Quercetagetin 3,6,7,4\u2032-tetramethyl ether", "3,6,7,4\u2032-Tetra-O-methylquercetagetin", "5,12-Dihydroxy-2,6,7,13-tetramethoxyflavone", "Vitexcarpin"], "SMILES": "O=C1C=2C(OC(=C1OC)C3=CC(O)=C(OC)C=C3)=CC(OC)=C(OC)C2O", "physical_data": {"Molecular Weight": "374.34", "Molecular Formula": "C19H18O8", "Melting Point": "186-187 \u00b0C"}}