{"cas_no": "479-61-8", "cn_name": "\u53f6\u7eff\u7d20 A", "en_name": ["Chlorophyll a", "Magnesium, [(2E,7R,11R)-3,7,11,15-tetramethyl-2-hexadecenyl (3S,4S,21R)-9-ethenyl-14-ethyl-21-(methoxycarbonyl)-4,8,13,18-tetramethyl-20-oxo-3-phorbinepropanoato(2-)-\u03baN23,\u03baN24,\u03baN25,\u03baN26]-, (SP-4-2)-", "Magnesium, [dihydrogen 21-carboxy-14-ethyl-4,8,13,18-tetramethyl-20-oxo-9-vinyl-3-phorbinepropionato(2-)]-, 21-methyl 3-phytyl ester, (E)-", "Magnesium, [3,7,11,15-tetramethyl-2-hexadecenyl 9-ethenyl-14-ethyl-21-(methoxycarbonyl)-4,8,13,18-tetramethyl-20-oxo-3-phorbinepropanoato(2-)-\u03baN23,\u03baN24,\u03baN25,\u03baN26]-, [SP-4-2-[3S-[3\u03b1(2E,7S*,11S*),4\u03b2,21\u03b2]]]-", "3-Phorbinepropanoic acid, 9-ethenyl-14-ethyl-21-(methoxycarbonyl)-4,8,13,18-tetramethyl-20-oxo-, 3,7,11,15-tetramethyl-2-hexadecenyl ester, magnesium complex, [3S-[3\u03b1(2E,7S*,11S*),4\u03b2,21\u03b2]]-", "Phorbine, magnesium deriv.", "(SP-4-2)-[(2E,7R,11R)-3,7,11,15-Tetramethyl-2-hexadecenyl (3S,4S,21R)-9-ethenyl-14-ethyl-21-(methoxycarbonyl)-4,8,13,18-tetramethyl-20-oxo-3-phorbinepropanoato(2-)-\u03baN23,\u03baN24,\u03baN25,\u03baN26]magnesium", "Chlorophyll a", "\u03b1-Chlorophyll", "Magnesium, [3,7,11,15-tetramethyl-2-hexadecenyl 9-ethenyl-14-ethyl-21-(methoxycarbonyl)-4,8,13,18-tetramethyl-20-oxo-3-phorbinepropanoato(2-)-N23,N24,N25,N26]-, [SP-4-2-[3S-[3\u03b1(2E,7S*,11S*),4\u03b2,21\u03b2]]]-", "Magnesium pheophytin", "Chlorophyll-1", "Vegetable chlorophyll", "C 3000WS"], "SMILES": "CC1=C2[N-]3[Mg+2]45[N]=6C(=C7C3=C1C(=O)C7C(OC)=O)C(CCC(OCC=C(CCCC(CCCC(CCCC(C)C)C)C)C)=O)C(C)C6C=C8[N-]4C(=CC9=[N]5C(=C2)C(CC)=C9C)C(C=C)=C8C", "physical_data": {"Molecular Weight": "", "Molecular Formula": "C55H72MgN4O5", "Melting Point": "66-67 \u00b0C"}}