{"cas_no": "479-90-3", "cn_name": "\u827e\u9ec4\u7d20", "en_name": ["Artemetin", "4H-1-Benzopyran-4-one, 2-(3,4-dimethoxyphenyl)-5-hydroxy-3,6,7-trimethoxy-", "Artemetin", "Flavone, 5-hydroxy-3,3\u2032,4\u2032,6,7-pentamethoxy-", "2-(3,4-Dimethoxyphenyl)-5-hydroxy-3,6,7-trimethoxy-4H-1-benzopyran-4-one", "Artemisetin", "5-Hydroxy-3,6,7,3\u2032,4\u2032-pentamethoxyflavone", "Erianthin", "Quercetagetin 3,6,7,3\u2032,4\u2032-pentamethyl ether", "3,6,7,3\u2032,4\u2032-Pentamethylquercetagetin", "3,6,7,3\u2032,4\u2032-Pentamethoxy-5-hydroxyflavone", "Artemitin", "2-(3,4-Dimethoxyphenyl)-5-hydroxy-3,6,7-trimethoxychromen-4-one"], "SMILES": "O=C1C=2C(OC(=C1OC)C3=CC(OC)=C(OC)C=C3)=CC(OC)=C(OC)C2O", "physical_data": {"Molecular Weight": "388.37", "Molecular Formula": "C20H20O8", "Melting Point": "159-160 \u00b0C"}}