{"cas_no": "479-41-4", "cn_name": "\u975b\u7389\u7ea2", "en_name": ["Indirubin", "2H-Indol-2-one, 3-(1,3-dihydro-3-oxo-2H-indol-2-ylidene)-1,3-dihydro-", "[\u03942,3\u2032-Biindoline]-2\u2032,3-dione", "Indirubin", "3-(1,3-Dihydro-3-oxo-2H-indol-2-ylidene)-1,3-dihydro-2H-indol-2-one", "C.I. 73200", "Indigopurpurin", "Indigo red", "Couroupitine B", "NSC 105327"], "SMILES": "O=C1C(C=2C(N1)=CC=CC2)=C3NC=4C(C3=O)=CC=CC4", "physical_data": {"Molecular Weight": "262.26", "Molecular Formula": "C16H10N2O2", "Melting Point": "204-205 \u00b0C"}}