{"cas_no": "479-33-4", "cn_name": "\u56db\u82ef\u57fa\u73af\u620a\u4e8c\u70ef\u916e", "en_name": ["2,3,4,5-Tetraphenyl-2,4-cyclopentadien-1-one", "2,4-Cyclopentadien-1-one, 2,3,4,5-tetraphenyl-", "Cyclopentadienone, tetraphenyl-", "2,3,4,5-Tetraphenyl-2,4-cyclopentadien-1-one", "Tetracyclone", "Cyclone (compound)", "Tetraphenylcyclopentadienone", "Tetraphenyl-2,4-cyclopentadien-1-one", "2,3,4,5-Tetraphenylcyclopentadienone", "Cyclone", "Tetracyclon", "2,3,4,5-Tetraphenylcyclopenta-2,4-dienone", "NSC 2060", "NSC 220314", "NSC 243761"], "SMILES": "O=C1C(=C(C(=C1C2=CC=CC=C2)C3=CC=CC=C3)C4=CC=CC=C4)C5=CC=CC=C5", "physical_data": {"Molecular Weight": "384.47", "Molecular Formula": "C29H20O", "Melting Point": "217-218 \u00b0C"}}