{"cas_no": "479-20-9", "cn_name": "\u9ed1\u8336\u6e0d\u7d20", "en_name": ["Atranorin", "Benzoic acid, 3-formyl-2,4-dihydroxy-6-methyl-, 3-hydroxy-4-(methoxycarbonyl)-2,5-dimethylphenyl ester", "Atranoric acid", "Isophthalaldehydic acid, 2,4-dihydroxy-6-methyl-, 4-ester with methyl 3,6-dimethyl-\u03b2-resorcylate", "Atranorin", "Atranorine", "Parmelin", "Parmelin acid", "Usnarin", "Usnarin acid", "NSC 685591", "NSC 249980", "NSC 87512", "Antranorin"], "SMILES": "C(OC1=C(C)C(O)=C(C(OC)=O)C(C)=C1)(=O)C2=C(O)C(C=O)=C(O)C=C2C", "physical_data": {"Molecular Weight": "374.34", "Molecular Formula": "C19H18O8", "Melting Point": "195 \u00b0C"}}