{"cas_no": "479-45-8", "cn_name": "\u7279\u5c48\u513f", "en_name": ["Tetryl", "Benzenamine, N-methyl-N,2,4,6-tetranitro-", "Aniline, N-methyl-N,2,4,6-tetranitro-", "N-Methyl-N,2,4,6-tetranitrobenzenamine", "CE", "Picrylmethylnitramine", "Picrylnitromethylamine", "Tetralite", "Tetryl", "2,4,6-Tetryl", "2,4,6-Trinitrophenyl-N-methylnitramine", "2,4,6-Trinitrophenylmethylnitroamine", "N-Picryl-N-methylnitramine", "N-Methyl-N-picrylnitramine", "Nitramine", "Tetralit", "Tetril", "2,4,6,N-Tetranitro-N-methylaniline", "Nitramine (indicator)", "2,4,6-Trinitro-N-methyl-N-nitroaniline", "NSC 2166", "N-Methyl-N,2,4,6-tetranitroaniline", "1-(Methylnitramino)-2,4,6-trinitrobenzene"], "SMILES": "N(N(=O)=O)(C)C1=C(N(=O)=O)C=C(N(=O)=O)C=C1N(=O)=O", "physical_data": {"Molecular Weight": "287.14", "Molecular Formula": "C7H5N5O8", "Melting Point": "130-132 \u00b0C", "Density": "1.57 g/cm\u00b3"}}