{"cas_no": "479-43-6", "cn_name": "\u94c1\u5c4e\u7c73\u916e", "en_name": ["Canthin-6-one", "6H-Indolo[3,2,1-de][1,5]naphthyridin-6-one", "Canthin-6-one", "NSC 103003"], "SMILES": "O=C1N2C=3C(C=4C2=CC=CC4)=CC=NC3C=C1", "physical_data": {"Molecular Weight": "220.23", "Molecular Formula": "C14H8N2O", "Melting Point": "161-161.5 \u00b0C"}}