{"cas_no": "479-59-4", "cn_name": "\u4e45\u6d1b\u5c3c\u5b9a", "en_name": ["2,3,6,7-Tetrahydro-1H,5H-benzo[ij]quinolizine", "1H,5H-Benzo[ij]quinolizine, 2,3,6,7-tetrahydro-", "Julolidine", "2,3,6,7-Tetrahydro-1H,5H-benzo[ij]quinolizine", "NSC 82354"], "SMILES": "C1=2C=3CCCN1CCCC2C=CC3", "physical_data": {"Molecular Weight": "173.25", "Molecular Formula": "C12H15N", "Boiling Point": "155-156 \u00b0C @ Press: 17 Torr", "Melting Point": "40 \u00b0C"}}