{"cas_no": "479-66-3", "cn_name": "\u5bcc\u91cc\u9178", "en_name": ["4,10-Dihydro-3,7,8-trihydroxy-3-methyl-10-oxo-1H,3H-pyrano[4,3-b][1]benzopyran-9-carboxylic acid", "1H,3H-Pyrano[4,3-b][1]benzopyran-9-carboxylic acid, 4,10-dihydro-3,7,8-trihydroxy-3-methyl-10-oxo-", "1H,10H-Pyrano[4,3-b][1]benzopyran-9-carboxylic acid, 3,4-dihydro-3,7,8-trihydroxy-3-methyl-10-oxo-", "4,10-Dihydro-3,7,8-trihydroxy-3-methyl-10-oxo-1H,3H-pyrano[4,3-b][1]benzopyran-9-carboxylic acid", "3,7,8-Trihydroxy-3-methyl-10-oxo-1,4-dihydropyrano[4,3-b]chromene-9-carboxylic acid"], "SMILES": "C(O)(=O)C1=C2C(OC3=C(C2=O)COC(C)(O)C3)=CC(O)=C1O", "physical_data": {"Molecular Weight": "308.24", "Molecular Formula": "C14H12O8", "Melting Point": "246 \u00b0C (decomp)"}}