{"cas_no": "479-50-5", "cn_name": "\u786b\u574e\u916e", "en_name": ["Lucanthone", "9H-Thioxanthen-9-one, 1-[[2-(diethylamino)ethyl]amino]-4-methyl-", "Thioxanthen-9-one, 1-[[2-(diethylamino)ethyl]amino]-4-methyl-", "1-[[2-(Diethylamino)ethyl]amino]-4-methyl-9H-thioxanthen-9-one", "1-(2-Diethylaminoethylamino)-4-methylthiaxanthen-9-one", "Lucanthone", "NSC 20530", "MeSH ID: D008154"], "SMILES": "N(CCN(CC)CC)C1=C2C(SC=3C(C2=O)=CC=CC3)=C(C)C=C1", "physical_data": {"Molecular Weight": "340.48", "Molecular Formula": "C20H24N2OS", "Melting Point": "64-65 \u00b0C"}}