{"cas_no": "479-92-5", "cn_name": "\u5f02\u4e19\u5b89\u66ff\u6bd4\u6797", "en_name": ["Propyphenazone", "3H-Pyrazol-3-one, 1,2-dihydro-1,5-dimethyl-4-(1-methylethyl)-2-phenyl-", "Antipyrine, 4-isopropyl-", "1,2-Dihydro-1,5-dimethyl-4-(1-methylethyl)-2-phenyl-3H-pyrazol-3-one", "Isopropylantipyrine", "4-Isopropyl-2,3-dimethyl-1-phenyl-3-pyrazolin-5-one", "Isopropylphenazone", "Larodon", "1-Phenyl-2,3-dimethyl-4-isopropyl-3-pyrazolin-5-one", "1-Phenyl-2,3-dimethyl-4-isopropylpyrazol-5-one", "Propyphenazone", "4-Isopropylantipyrine", "1,2-Dihydro-1,5-dimethyl-2-phenyl-4-isopropyl-3H-pyrazol-3-one", "Isopropylantipyrin", "Isopropyrine", "Propyfenazone", "Arantil P", "Isopropchin", "4-Isopropylphenazone", "Budirol", "Eufibron", "Cibalgina", "Causyth", "1,5-Dimethyl-2-phenyl-4-propan-2-ylpyrazol-3-one"], "SMILES": "O=C1N(N(C)C(C)=C1C(C)C)C2=CC=CC=C2", "physical_data": {"Molecular Weight": "230.31", "Molecular Formula": "C14H18N2O", "Melting Point": "103 \u00b0C"}}