{"cas_no": "479-21-0", "cn_name": "\u53ef\u6258\u56e0", "en_name": ["(2,6-Dihydroxy-4-methoxyphenyl)phenylmethanone", "Methanone, (2,6-dihydroxy-4-methoxyphenyl)phenyl-", "Benzophenone, 2,6-dihydroxy-4-methoxy-", "(2,6-Dihydroxy-4-methoxyphenyl)phenylmethanone", "Cotoin", "2,6-Dihydroxy-4-methoxybenzophenone", "2-Benzoyl-5-methoxybenzene-1,3-diol"], "SMILES": "C(=O)(C1=C(O)C=C(OC)C=C1O)C2=CC=CC=C2", "physical_data": {"Molecular Weight": "244.24", "Molecular Formula": "C14H12O4", "Melting Point": "130.5 \u00b0C"}}