{"cas_no": "479-27-6", "cn_name": "1,8-\u4e8c\u6c28\u57fa\u8418", "en_name": ["1,8-Diaminonaphthalene", "1,8-Naphthalenediamine", "1,8-Diaminonaphthalene", "1,8-Naphthylenediamine", "NSC 6081", "1,8-Diamine naphthaline"], "SMILES": "NC=1C2=C(C=CC=C2N)C=CC1", "physical_data": {"Molecular Weight": "158.20", "Molecular Formula": "C10H10N2", "Boiling Point": "205 \u00b0C", "Melting Point": "66.5 \u00b0C"}}