{"cas_no": "479073-79-5", "cn_name": "\u5def\u57fa\u897f\u5730\u90a3\u975e", "en_name": ["Thiosildenafil", "7H-Pyrazolo[4,3-d]pyrimidine-7-thione, 5-[2-ethoxy-5-[(4-methyl-1-piperazinyl)sulfonyl]phenyl]-1,6-dihydro-1-methyl-3-propyl-", "Piperazine, 1-[[3-(4,7-dihydro-1-methyl-3-propyl-7-thioxo-1H-pyrazolo[4,3-d]pyrimidin-5-yl)-4-ethoxyphenyl]sulfonyl]-4-methyl-", "5-[2-Ethoxy-5-[(4-methyl-1-piperazinyl)sulfonyl]phenyl]-1,6-dihydro-1-methyl-3-propyl-7H-pyrazolo[4,3-d]pyrimidine-7-thione", "Thiosildenafil"], "SMILES": "O(CC)C1=C(C=C(S(=O)(=O)N2CCN(C)CC2)C=C1)C=3NC4=C(C(=S)N3)N(C)N=C4CCC", "physical_data": {"Molecular Weight": "490.64", "Molecular Formula": "C22H30N6O3S2", "Melting Point": "172-174 \u00b0C"}}