{"cas_no": "4790-19-6", "cn_name": "5,6-\u4e8c\u82c4\u6c27\u57fa\u5432\u54da", "en_name": ["5,6-Bis(phenylmethoxy)-1H-indole", "1H-Indole, 5,6-bis(phenylmethoxy)-", "Indole, 5,6-bis(benzyloxy)-", "5,6-Bis(phenylmethoxy)-1H-indole", "5,6-Bis(benzyloxy)indole", "5,6-Dibenzyloxyindole", "NSC 83220"], "SMILES": "O(CC1=CC=CC=C1)C2=C(OCC3=CC=CC=C3)C=C4C(=C2)C=CN4", "physical_data": {"Molecular Weight": "329.39", "Molecular Formula": "C22H19NO2", "Melting Point": "114 \u00b0C"}}