{"cas_no": "4790-81-2", "cn_name": "7-\u7f9f\u57fa\u82ef\u5e76\u544b\u5583", "en_name": ["7-Benzofuranol", "7-Benzofuranol", "7-Hydroxybenzofuran", "1-Benzofuran-7-ol"], "SMILES": "OC1=C2C(=CC=C1)C=CO2", "physical_data": {"Molecular Weight": "134.13", "Molecular Formula": "C8H6O2", "Boiling Point": "68 \u00b0C @ Press: 0.4 Torr", "Melting Point": "42 \u00b0C"}}