{"cas_no": "4790-08-3", "cn_name": "5,6-\u4e8c\u7f9f\u57fa-2-\u5432\u54da\u7532\u9178", "en_name": ["5,6-Dihydroxyindole-2-carboxylic acid", "1H-Indole-2-carboxylic acid, 5,6-dihydroxy-", "Indole-2-carboxylic acid, 5,6-dihydroxy-", "5,6-Dihydroxy-1H-indole-2-carboxylic acid", "5,6-Dihydroxyindole-2-carboxylic acid", "2-Carboxy-5,6-dihydroxyindole", "5,6-Dihydroxy-2-carboxyindole"], "SMILES": "C(O)(=O)C1=CC=2C(N1)=CC(O)=C(O)C2", "physical_data": {"Molecular Weight": "193.16", "Molecular Formula": "C9H7NO4", "Melting Point": "234 \u00b0C (decomp)"}}