{"cas_no": "4792-83-0", "cn_name": "4\uff0c4'-\u6c27\u5316\u5076\u6c2e\u82ef\u4e59\u919a", "en_name": ["Azoxyphenetole", "Diazene, bis(4-ethoxyphenyl)-, 1-oxide", "Azoxybenzene, 4,4\u2032-diethoxy-", "Phenetole, 4,4\u2032-azoxydi-", "p,p\u2032-Azoxyphenetole", "4,4\u2032-Azoxyphenetole", "4,4\u2032-Bis(ethoxy)azoxybenzene", "4,4\u2032-Diethoxyazoxybenzene", "4,4\u2032-Azoxydiphenetole", "p,p\u2032-Diethyloxyazoxybenzene", "Azoxyphenetole", "p,p\u2032-Diethoxyazoxybenzene", "PAP", "ADP", "NSC 142006"], "SMILES": "N(=N(=O)C1=CC=C(OCC)C=C1)C2=CC=C(OCC)C=C2", "physical_data": {"Molecular Weight": "286.33", "Molecular Formula": "C16H18N2O3", "Melting Point": "134.7 \u00b0C"}}