{"cas_no": "4792-67-0", "cn_name": "5-\u6c2f\u5432\u54da-2-\u7fa7\u9178\u4e59\u916f", "en_name": ["Ethyl 5-chloro-1H-indole-2-carboxylate", "1H-Indole-2-carboxylic acid, 5-chloro-, ethyl ester", "Indole-2-carboxylic acid, 5-chloro-, ethyl ester", "Ethyl 5-chloroindole-2-carboxylate", "5-Chloroindole-2-carboxylic acid ethyl ester", "5-Chloro-2-ethoxycarbonylindole", "5-Chloro-1H-indole-2-carboxylic acid ethyl ester", "NSC 94209", "Ethyl 5-chloro-1H-indole-2-carboxylate"], "SMILES": "C(OCC)(=O)C1=CC=2C(N1)=CC=C(Cl)C2", "physical_data": {"Molecular Weight": "223.66", "Molecular Formula": "C11H10ClNO2", "Melting Point": "167-168 \u00b0C"}}