{"cas_no": "4792-15-8", "cn_name": "\u4e94\u7518\u9187", "en_name": ["Pentaethylene glycol", "3,6,9,12-Tetraoxatetradecane-1,14-diol", "Pentaethylene glycol", "1,2-Bis[2-(2-hydroxyethoxy)ethoxy]ethane", "2-[2-[2-[2-(2-Hydroxyethoxy)ethoxy]ethoxy]ethoxy]ethanol"], "SMILES": "C(COCCOCCO)OCCOCCO", "physical_data": {"Molecular Weight": "238.28", "Molecular Formula": "C10H22O6", "Boiling Point": "174-176 \u00b0C @ Press: 0.14 Torr", "Melting Point": "187 \u00b0C"}}