{"cas_no": "4792-58-9", "cn_name": "5-\u7532\u6c27\u57fa\u5432\u54da-2-\u7532\u9178\u4e59\u916f", "en_name": ["Ethyl 5-methoxy-1H-indole-2-carboxylate", "1H-Indole-2-carboxylic acid, 5-methoxy-, ethyl ester", "Indole-2-carboxylic acid, 5-methoxy-, ethyl ester", "Ethyl 5-methoxy-1H-indole-2-carboxylate", "Ethyl 5-methoxyindole-2-carboxylate", "5-Methoxyindole-2-carboxylic acid ethyl ester", "2-Carbethoxy-5-methoxyindole", "5-Methoxy-2-carbethoxyindole", "2-Ethoxycarbonyl-5-methoxyindole", "NSC 30929", "Ethyl 5-methoxy-2,3-1H-indole-2-carboxylate"], "SMILES": "C(OCC)(=O)C1=CC=2C(N1)=CC=C(OC)C2", "physical_data": {"Molecular Weight": "219.24", "Molecular Formula": "C12H13NO3", "Melting Point": "156 \u00b0C"}}