{"cas_no": "4792-30-7", "cn_name": "3-\u7532\u57fa\u90bb\u82ef\u4e8c\u7532\u9178\u9150", "en_name": ["3-Methylphthalic anhydride", "1,3-Isobenzofurandione, 4-methyl-", "Phthalic anhydride, 3-methyl-", "4-Methyl-1,3-isobenzofurandione", "2,3-Toluenedicarboxylic anhydride", "3-Methylphthalic anhydride", "NSC 61875", "3-Methylphthalicacidanhydride"], "SMILES": "CC1=C2C(C(=O)OC2=O)=CC=C1", "physical_data": {"Molecular Weight": "162.14", "Molecular Formula": "C9H6O3", "Boiling Point": "125 \u00b0C @ Press: 0.4 Torr", "Melting Point": "114.5-117 \u00b0C"}}