{"cas_no": "4792-78-3", "cn_name": "2-(2-\u7f9f\u57fa\u4e59\u6c27\u57fa)\u82ef\u915a", "en_name": ["2-(2-Hydroxyethoxy)phenol", "Phenol, 2-(2-hydroxyethoxy)-", "Ethanol, 2-(o-hydroxyphenoxy)-", "2-(2-Hydroxyethoxy)phenol", "2-(2-Hydroxyphenoxy)ethanol", "2-(o-Hydroxyphenoxy)ethanol", "2-(2\u2032-Hydroxyethoxy)phenol", "2-[(2-Hydroxyphenyl)oxy]ethanol"], "SMILES": "O(CCO)C1=C(O)C=CC=C1", "physical_data": {"Molecular Weight": "154.16", "Molecular Formula": "C8H10O3", "Boiling Point": "128 \u00b0C @ Press: 0.7 Torr", "Melting Point": "96-97 \u00b0C"}}