{"cas_no": "4793-24-2", "cn_name": "2-\u6c2f-4-\u6c1f-5-\u6c28\u78fa\u9170\u57fa\u82ef\u7532\u9178", "en_name": ["5-(Aminosulfonyl)-2-chloro-4-fluorobenzoic acid", "Benzoic acid, 5-(aminosulfonyl)-2-chloro-4-fluoro-", "Benzoic acid, 2-chloro-4-fluoro-5-sulfamoyl-", "5-(Aminosulfonyl)-2-chloro-4-fluorobenzoic acid", "5-Aminosulfonyl-2-chloro-4-fluorobenzoic acid", "2-Chloro-4-fluoro-5-sulfamoylbenzoic acid"], "SMILES": "S(N)(=O)(=O)C1=CC(C(O)=O)=C(Cl)C=C1F", "physical_data": {"Molecular Weight": "253.64", "Molecular Formula": "C7H5ClFNO4S", "Melting Point": "246 \u00b0C"}}