{"cas_no": "479413-70-2", "cn_name": "AUDA", "en_name": ["12-(3-Adamantan-1-yl-ureido)dodecanoic acid", "Dodecanoic acid, 12-[[(tricyclo[3.3.1.13,7]dec-1-ylamino)carbonyl]amino]-", "12-[[(Tricyclo[3.3.1.13,7]dec-1-ylamino)carbonyl]amino]dodecanoic acid", "12-(3-Adamantan-1-yl-ureido)dodecanoic acid", "A 003564556", "AUDA", "A003564556"], "SMILES": "N(C(NCCCCCCCCCCCC(O)=O)=O)C12CC3CC(C1)CC(C2)C3", "physical_data": {"Molecular Weight": "392.58", "Molecular Formula": "C23H40N2O3", "Melting Point": "114 \u00b0C"}}