{"cas_no": "479500-35-1", "cn_name": "1-\u4e01\u57fa-1-\u7532\u57fa\u5421\u54af\u70f7\u6c2f\u5316\u7269", "en_name": ["1-Butyl-1-methylpyrrolidinium chloride", "Pyrrolidinium, 1-butyl-1-methyl-, chloride (1:1)", "Pyrrolidinium, 1-butyl-1-methyl-, chloride", "1-Butyl-1-methylpyrrolidinium chloride", "N-Butyl-N-methylpyrrolidinium chloride", "Butylmethylpyrrolidinium chloride", "[Bmpyr]Cl"], "SMILES": "C(CCC)[N+]1(C)CCCC1.[Cl-]", "physical_data": {"Molecular Weight": "", "Molecular Formula": "C9H20N.Cl", "Melting Point": "124 \u00b0C"}}