{"cas_no": "4795-29-3", "cn_name": "2-\u56db\u6c22\u7ce0\u80fa", "en_name": ["Tetrahydrofurfurylamine", "2-Furanmethanamine, tetrahydro-", "Furfurylamine, tetrahydro-", "Tetrahydro-2-furanmethanamine", "Tetrahydrofurfurylamine", "2-(Aminomethyl)tetrahydrofuran", "2-Tetrahydrofurfurylamine", "(Tetrahydrofuran-2-ylmethyl)amine", "(\u00b1)-Tetrahydrofurfurylamine", "2-Tetrahydrofuranmethanamine", "(RS)-(2-Tetrahydrofuryl)methylamine", "(RS)-2-Tetrahydrofurfurylamine", "C-(Tetrahydrofuran-2-yl)methylamine", "(2-Tetrahydrofurylmethyl)amine", "NSC 76037", "1-(Tetrahydrofuran-2-yl)methanamine", "(Tetrahydrofuran-2-yl)methanamine", "N-[(Oxolan-2-yl)methyl]amine", "Tetrahydrofuran-2-methylamine", "Oxolan-2-ylmethylamine", "(Oxolan-2-yl)methanamine"], "SMILES": "C(N)C1CCCO1", "physical_data": {"Molecular Weight": "101.15", "Molecular Formula": "C5H11NO", "Boiling Point": "153 \u00b0C", "Melting Point": "108-109 \u00b0C", "Density": "0.9792 g/cm\u00b3 @ Temp: 17 \u00b0C"}}