{"cas_no": "4798-44-1", "cn_name": "1-\u5df1\u70ef-3-\u9187", "en_name": ["1-Vinylbutanol", "1-Hexen-3-ol", "Propylvinylcarbinol", "3-Hydroxy-1-hexene", "1-Vinylbutanol", "(\u00b1)-1-Hexen-3-ol", "1-Propylallyl alcohol", "NSC 89701"], "SMILES": "C(CCC)(C=C)O", "physical_data": {"Molecular Weight": "100.16", "Molecular Formula": "C6H12O", "Boiling Point": "134 \u00b0C", "Density": "0.834 g/cm\u00b3 @ Temp: 22 \u00b0C"}}