{"cas_no": "4799-67-1", "cn_name": "(R)-(+)-1-\u82c4\u57fa\u4e19\u4e09\u9187", "en_name": ["3-(Benzyloxy)-1,2-propanediol", "1,2-Propanediol, 3-(phenylmethoxy)-", "1,2-Propanediol, 3-(benzyloxy)-", "3-(Phenylmethoxy)-1,2-propanediol", "1-O-Benzylglycerol", "3-(Benzyloxy)-1,2-propanediol", "Glycerol \u03b1-monobenzyl ether", "(RS)-3-(Benzyloxy)-1,2-propanediol", "(\u00b1)-1-O-Benzylglycerol", "DL-\u03b1-O-Benzylglycerol", "Glycerol 1-benzyl ether", "Glycerin 1-monobenzyl ether", "NSC 74241", "(\u00b1)-3-(Benzyloxy)-1,2-propanediol"], "SMILES": "C(OCC(CO)O)C1=CC=CC=C1", "physical_data": {"Molecular Weight": "182.22", "Molecular Formula": "C10H14O3", "Boiling Point": "164-166 \u00b0C @ Press: 2 Torr", "Melting Point": "62.7-63.4 \u00b0C", "Density": "1.130 g/cm\u00b3 @ Temp: 25 \u00b0C"}}