{"cas_no": "4799-68-2", "cn_name": "3-\u82c4\u6c27\u57fa-1-\u4e19\u9187", "en_name": ["3-(Benzyloxy)-1-propanol", "1-Propanol, 3-(phenylmethoxy)-", "1-Propanol, 3-(benzyloxy)-", "3-(Phenylmethoxy)-1-propanol", "1,3-Propanediol monobenzyl ether", "3-(Benzyloxy)-1-propanol", "1-(Benzyloxy)-3-propanol", "3-Benzyloxypropanol", "NSC 406922", "3-[(Phenylmethyl)oxy]propan-1-ol"], "SMILES": "C(OCCCO)C1=CC=CC=C1", "physical_data": {"Molecular Weight": "166.22", "Molecular Formula": "C10H14O2", "Boiling Point": "142 \u00b0C @ Press: 10 Torr", "Density": "1.0484 g/cm\u00b3 @ Temp: 18 \u00b0C"}}