{"cas_no": "480-49-9", "cn_name": "\u83f2\u5f8b\u5e73", "en_name": ["Filipin III", "Oxacyclooctacosa-17,19,21,23,25-pentaen-2-one, 4,6,8,10,12,14,16,27-octahydroxy-3-[(1R)-1-hydroxyhexyl]-17,28-dimethyl-, (3R,4S,6S,8S,10R,12R,14R,16S,17E,19E,21E,23E,25E,27S,28R)-", "Filipin", "Filipin III", "Oxacyclooctacosane, filipin III deriv.", "(3R,4S,6S,8S,10R,12R,14R,16S,17E,19E,21E,23E,25E,27S,28R)-4,6,8,10,12,14,16,27-Octahydroxy-3-[(1R)-1-hydroxyhexyl]-17,28-dimethyloxacyclooctacosa-17,19,21,23,25-pentaen-2-one", "14-Deoxylagosin", "Filimarisin", "[3R-[3R*(R*),4S*,6S*,8S*,10R*,12R*,14R*,16S*,17E,19E,21E,23E,25E,27S*,28R*]]-4,6,8,10,12,14,16,27-Octahydroxy-3-(1-hydroxyhexyl)-17,28-dimethyloxacyclooctacosa-17,19,21,23,25-pentaen-2-one", "15-Deoxylagosin", "NSC 3364", "NSC 38092", "1\u2032,26-Dihydroxyfilipin I", "1\u2032-Hydroxyfilipin II", "1\u2032-epi-Filipin IV", "MeSH ID: D005372"], "SMILES": "C(CCCCC)(O)C1C(O)CC(O)CC(O)CC(O)CC(O)CC(O)CC(O)C(C)=CC=CC=CC=CC=CC(O)C(C)OC1=O", "physical_data": {"Molecular Weight": "654.83", "Molecular Formula": "C35H58O11", "Melting Point": "163-180 \u00b0C"}}