{"cas_no": "480-64-8", "cn_name": "2,4-\u4e8c\u7f9f\u57fa-6-\u7532\u57fa\u82ef\u7532\u9178", "en_name": ["Orsellinic acid", "Benzoic acid, 2,4-dihydroxy-6-methyl-", "\u03b2-Resorcylic acid, 6-methyl-", "2,4-Dihydroxy-6-methylbenzoic acid", "2,4-Dihydroxy-6-methylbenzenecarboxylic acid", "4,6-Dihydroxy-o-toluic acid", "6-Methyl-\u03b2-resorcylic acid", "Orcinolcarboxylic acid", "Orsellic acid", "Orsellinic acid", "o-Orsellinic acid", "4,6-Dihydroxy-2-methylbenzoic acid"], "SMILES": "C(O)(=O)C1=C(C)C=C(O)C=C1O", "physical_data": {"Molecular Weight": "168.15", "Molecular Formula": "C8H8O4", "Melting Point": "176 \u00b0C (decomp)"}}