{"cas_no": "480-91-1", "cn_name": "\u5f02\u5432\u54da\u5549-1-\u916e", "en_name": ["Isoindolinone", "1H-Isoindol-1-one, 2,3-dihydro-", "Phthalimidine", "2,3-Dihydro-1H-isoindol-1-one", "1-Isoindolinone", "Isoindolinone", "1-Oxoisoindoline", "3,4-Benzopyrrolidone", "1-Oxodihydroisoindole", "NSC 3689", "2,3-Dihydroisoindol-1-one", "1,3-Dihydroisoindol-1-one"], "SMILES": "O=C1C=2C(=CC=CC2)CN1", "physical_data": {"Molecular Weight": "133.15", "Molecular Formula": "C8H7NO", "Boiling Point": "338 \u00b0C", "Melting Point": "151 \u00b0C"}}