{"cas_no": "480-94-4", "cn_name": "3-\u5def\u57fa\u5432\u54da", "en_name": ["1H-Indole-3-thiol", "1H-Indole-3-thiol", "Indole-3-thiol", "3-Mercaptoindole", "3-Sulfanylindole"], "SMILES": "SC=1C=2C(=CC=CC2)NC1", "physical_data": {"Molecular Weight": "149.21", "Molecular Formula": "C8H7NS", "Melting Point": "99-100 \u00b0C"}}