{"cas_no": "480-96-6", "cn_name": "\u82ef\u5e76\u544b\u54b1", "en_name": ["Benzofuroxan", "2,1,3-Benzoxadiazole, 1-oxide", "Benzofurazan, 1-oxide", "Benzofurazan oxide", "Benzofuroxan", "Benzofuroxane", "Benzofurazan N-oxide", "KIH 403", "NSC 19930", "2,1,3-Benzoxadiazol-1-ium-1-olate", "3-Oxido-2,1,3-benzoxadiazol-3-ium"], "SMILES": "O=N1=C2C(C=CC=C2)=NO1", "physical_data": {"Molecular Weight": "136.11", "Molecular Formula": "C6H4N2O2", "Melting Point": "70 \u00b0C", "Density": "1.44 g/cm\u00b3"}}