{"cas_no": "480-66-0", "cn_name": "2,4,6-\u4e09\u7f9f\u57fa\u82ef\u4e59\u916e", "en_name": ["2\u2032,4\u2032,6\u2032-Trihydroxyacetophenone", "Ethanone, 1-(2,4,6-trihydroxyphenyl)-", "Phloroacetophenone", "Acetophenone, 2\u2032,4\u2032,6\u2032-trihydroxy-", "1-(2,4,6-Trihydroxyphenyl)ethanone", "Phloracetophenone", "Acetophloroglucine", "2\u2032,4\u2032,6\u2032-Trihydroxyacetophenone", "Acetylphloroglucinol", "Phloracetophene", "2-Acetyl-1,3,5-trihydroxybenzene", "NSC 54927", "1-(2,4,6-Trihydroxyphenyl)ethan-1-one", "2-Acetyl-1,3,5-benzenetriol", "2-Acetylphloroglucinol"], "SMILES": "C(C)(=O)C1=C(O)C=C(O)C=C1O", "physical_data": {"Molecular Weight": "168.15", "Molecular Formula": "C8H8O4", "Melting Point": "218 \u00b0C"}}