{"cas_no": "480-15-9", "cn_name": "\u6a61\u7cbe", "en_name": ["Datiscetin", "4H-1-Benzopyran-4-one, 3,5,7-trihydroxy-2-(2-hydroxyphenyl)-", "Datiscetin", "Flavone, 2\u2032,3,5,7-tetrahydroxy-", "3,5,7-Trihydroxy-2-(2-hydroxyphenyl)-4H-1-benzopyran-4-one", "C.I. 75630", "Akalbir", "C.I. Natural Yellow 12", "2\u2032,3,5,7-Tetrahydroxyflavone", "2-(2-Hydroxyphenyl)-3,5,7-tris(oxidanyl)chromen-4-one"], "SMILES": "O=C1C=2C(OC(=C1O)C3=C(O)C=CC=C3)=CC(O)=CC2O", "physical_data": {"Molecular Weight": "286.24", "Molecular Formula": "C15H10O6", "Melting Point": "276 \u00b0C"}}