{"cas_no": "480-65-9", "cn_name": "4,6-\u4e8c\u7532\u57fa\u90bb\u5421\u5583\u916e", "en_name": ["Isodehydroacetic acid", "2H-Pyran-5-carboxylic acid, 4,6-dimethyl-2-oxo-", "Glutaconic acid, 4-(1-hydroxyethylidene)-3-methyl-, \u03b4-lactone", "Coumalic acid, 4,6-dimethyl-", "4,6-Dimethyl-2-oxo-2H-pyran-5-carboxylic acid", "Acetic acid, isodehydro-", "Isodehydracetic acid", "Isodehydroacetic acid", "2-Pentenedioic acid, 4-(1-hydroxyethylidene)-3-methyl-, \u03b4-lactone", "4,6-Dimethylcoumalic acid", "NSC 34551", "NSC 408066", "2,4-Dimethyl-6-oxo-6H-pyran-3-carboxylic acid", "2,4-Dimethyl-6-oxopyran-3-carboxylic acid"], "SMILES": "C(O)(=O)C=1C(C)=CC(=O)OC1C", "physical_data": {"Molecular Weight": "168.15", "Molecular Formula": "C8H8O4", "Melting Point": "155 \u00b0C"}}