{"cas_no": "480-34-2", "cn_name": "\u4e01\u9999\u5be7", "en_name": ["5-Hydroxy-7-methoxy-2-methylchromone", "4H-1-Benzopyran-4-one, 5-hydroxy-7-methoxy-2-methyl-", "Chromone, 5-hydroxy-7-methoxy-2-methyl-", "5-Hydroxy-7-methoxy-2-methyl-4H-1-benzopyran-4-one", "Eugenin", "2-Methyl-7-methoxy-5-hydroxychromone", "5-Hydroxy-7-methoxy-2-methylchromone"], "SMILES": "OC1=C2C(=CC(OC)=C1)OC(C)=CC2=O", "physical_data": {"Molecular Weight": "206.19", "Molecular Formula": "C11H10O4", "Melting Point": "118-119 \u00b0C"}}