{"cas_no": "480-39-7", "cn_name": "\u677e\u5c5e\u7d20", "en_name": ["(+)-Pinocembrin", "4H-1-Benzopyran-4-one, 2,3-dihydro-5,7-dihydroxy-2-phenyl-, (2S)-", "Pinocembrin", "4H-1-Benzopyran-4-one, 2,3-dihydro-5,7-dihydroxy-2-phenyl-, (S)-", "(2S)-2,3-Dihydro-5,7-dihydroxy-2-phenyl-4H-1-benzopyran-4-one", "Galangin flavanone", "Dihydrochrysin", "5,7-Dihydroxyflavanone", "NSC 279005", "(+)-Pinocembrin", "(+)-Pinocoembrin", "(2S)-Pinocembrin", "(2S)-5,7-Dihydroxy-2-phenyl-2,3-dihydrochromen-4-one", "(2S)-5,7-Dihydroxy-2-phenyl-2,3-dihydrochromen-4-one"], "SMILES": "O=C1C=2C(OC(C1)C3=CC=CC=C3)=CC(O)=CC2O", "physical_data": {"Molecular Weight": "256.25", "Molecular Formula": "C15H12O4", "Melting Point": "202 \u00b0C"}}