{"cas_no": "480-23-9", "cn_name": "3',4',5,7-\u56db\u7f9f\u57fa\u5f02\u9ec4\u916e", "en_name": ["Orobol", "4H-1-Benzopyran-4-one, 3-(3,4-dihydroxyphenyl)-5,7-dihydroxy-", "Isoflavone, 3\u2032,4\u2032,5,7-tetrahydroxy-", "3-(3,4-Dihydroxyphenyl)-5,7-dihydroxy-4H-1-benzopyran-4-one", "Orobol", "Isoluteolin", "5,7,3\u2032,4\u2032-Tetrahydroxyisoflavone", "3\u2032,4\u2032,5,7-Tetrahydroxyisoflavone", "NSC 678114", "3\u2032-Hydroxygenistein"], "SMILES": "O=C1C=2C(OC=C1C3=CC(O)=C(O)C=C3)=CC(O)=CC2O", "physical_data": {"Molecular Weight": "286.24", "Molecular Formula": "C15H10O6", "Melting Point": "270 \u00b0C"}}