{"cas_no": "480-10-4", "cn_name": "\u7d2b\u4e91\u82f1\u82f7", "en_name": ["Astragalin", "4H-1-Benzopyran-4-one, 3-(\u03b2-D-glucopyranosyloxy)-5,7-dihydroxy-2-(4-hydroxyphenyl)-", "Astragalin", "3-(\u03b2-D-Glucopyranosyloxy)-5,7-dihydroxy-2-(4-hydroxyphenyl)-4H-1-benzopyran-4-one", "Astragaline", "Kaempferol 3-glucoside", "3-Glucosylkaempferol", "Kaempferol 3-\u03b2-D-glucoside", "Kaempferol 3-\u03b2-D-glucopyranoside", "4\u2032,5,7-Trihydroxyflavone 3-\u03b2-D-glucopyranoside", "K 5", "Kaempferol 3-O-\u03b2-D-glucoside", "Kaempferol 3-O-\u03b2-D-glucopyranoside", "Kaempferol 3-O-glucopyranoside", "Kaempferol 3-O-\u03b2-glucoside", "Kaempferol 3-O-glucoside", "Kaemferol 3-O-glucopyranoside", "Kaempherol 3-O-\u03b2-D-glucopyranoside", "Kaemferol-3-O-\u03b2-D-glucopyranoside"], "SMILES": "O=C1C=2C(OC(=C1OC3OC(CO)C(O)C(O)C3O)C4=CC=C(O)C=C4)=CC(O)=CC2O", "physical_data": {"Molecular Weight": "448.38", "Molecular Formula": "C21H20O11", "Melting Point": "218-220 \u00b0C"}}