{"cas_no": "480-36-4", "cn_name": "\u8499\u82b1\u82f7", "en_name": ["Linarin", "4H-1-Benzopyran-4-one, 7-[[6-O-(6-deoxy-\u03b1-L-mannopyranosyl)-\u03b2-D-glucopyranosyl]oxy]-5-hydroxy-2-(4-methoxyphenyl)-", "Linarin", "7-[[6-O-(6-Deoxy-\u03b1-L-mannopyranosyl)-\u03b2-D-glucopyranosyl]oxy]-5-hydroxy-2-(4-methoxyphenyl)-4H-1-benzopyran-4-one", "Buddleoflavonoloside", "Linarigenin glycoside", "Acaciin", "Acacetin 7-O-rutinoside", "Buddleoside", "Acacetin-7-O-\u03b2-D-rutinoside", "Acacetin 7-O-\u03b1-L-rhamnopyranosyl-(1\u21926)-\u03b2-D-glucopyranoside", "5-Hydroxy-4\u2032-methoxyflavone-7-O-rutinoside", "Acacetin-7-O-(6\u2032\u2032-O-rhamnose)-\u03b2-D-glucoside", "Linarine"], "SMILES": "O=C1C=2C(OC(=C1)C3=CC=C(OC)C=C3)=CC(OC4OC(COC5C(O)C(O)C(O)C(C)O5)C(O)C(O)C4O)=CC2O", "physical_data": {"Molecular Weight": "592.55", "Molecular Formula": "C28H32O14", "Melting Point": "260 \u00b0C (decomp)"}}