{"cas_no": "480-30-8", "cn_name": "usp\u9650\u5236", "en_name": ["Dichloralphenazone", "3H-Pyrazol-3-one, 1,2-dihydro-1,5-dimethyl-2-phenyl-, compd. with 2,2,2-trichloro-1,1-ethanediol (1:2)", "Antipyrine, compd. with chloral hydrate (1:2)", "Chloral hydrate, compd. with antipyrine (2:1)", "1,1-Ethanediol, 2,2,2-trichloro-, compd. with 1,2-dihydro-1,5-dimethyl-2-phenyl-3H-pyrazol-3-one (2:1)", "Dichloralphenazone", "Dichloralantipyrine", "Sedor", "Sominat", "Welldorm", "Ibiodorm", "Kloralfenazon", "Dichloralantipyrin", "Dormuphar", "Bonadorm", "Bihypnal", "Dormwell"], "SMILES": "CN1N(C(=O)C=C1C)C2=CC=CC=C2.C(C(O)O)(Cl)(Cl)Cl", "physical_data": {"Molecular Weight": "", "Molecular Formula": "C11H12N2O.2C2H3Cl3O2", "Melting Point": "68 \u00b0C"}}