{"cas_no": "480-11-5", "cn_name": "\u5343\u5c42\u7eb8\u7d20A", "en_name": ["Oroxylin A", "4H-1-Benzopyran-4-one, 5,7-dihydroxy-6-methoxy-2-phenyl-", "Flavone, 5,7-dihydroxy-6-methoxy-", "Oroxylin", "5,7-Dihydroxy-6-methoxy-2-phenyl-4H-1-benzopyran-4-one", "Oroxylin A", "6-Methoxybaicalein", "5,7-Dihydroxy-6-methoxyflavone", "Baicalein 6-methyl ether"], "SMILES": "OC1=C2C(OC(=CC2=O)C3=CC=CC=C3)=CC(O)=C1OC", "physical_data": {"Molecular Weight": "284.26", "Molecular Formula": "C16H12O5", "Melting Point": "203-204 \u00b0C"}}