{"cas_no": "480-81-9", "cn_name": "\u5343\u91cc\u5149\u83f2\u7075\u78b1", "en_name": ["Seneciphylline", "[1,6]Dioxacyclododecino[2,3,4-gh]pyrrolizine-2,7-dione, 3-ethylidene-3,4,5,6,9,11,13,14,14a,14b-decahydro-6-hydroxy-6-methyl-5-methylene-, (3Z,6R,14aR,14bR)-", "Seneciphylline", "Senecionan-11,16-dione, 13,19-didehydro-12-hydroxy-", "(3Z,6R,14aR,14bR)-3-Ethylidene-3,4,5,6,9,11,13,14,14a,14b-decahydro-6-hydroxy-6-methyl-5-methylene[1,6]dioxacyclododecino[2,3,4-gh]pyrrolizine-2,7-dione", "Jacodine", "[1,6]Dioxacyclododecino[2,3,4-gh]pyrrolizine-2,7-dione, 3-ethylidene-3,4,5,6,9,11,13,14,14a,14b-decahydro-6-hydroxy-6-methyl-5-methylene-, [6R-(3Z,6R*,14aR*,14bR*)]-", "Seneciphyllin", "Seneciophylline", "\u03b1-Longilobine", "NSC 30622"], "SMILES": "O=C1OC2C3N(CC2)CC=C3COC(=O)C(C)(O)C(=C)CC1=CC", "physical_data": {"Molecular Weight": "333.38", "Molecular Formula": "C18H23NO5", "Melting Point": "-218-217 \u00b0C"}}