{"cas_no": "480-63-7", "cn_name": "2,4,6-\u4e09\u7532\u57fa\u82ef\u7532\u9178", "en_name": ["2,4,6-Trimethylbenzoic acid", "Benzoic acid, 2,4,6-trimethyl-", "2,4,6-Trimethylbenzoic acid", "\u03b2-Isodurylic acid", "Mesitoic acid", "Mesitylenecarboxylic acid", "NSC 1119", "NSC 203160", "NSC 407983"], "SMILES": "C(O)(=O)C1=C(C)C=C(C)C=C1C", "physical_data": {"Molecular Weight": "164.20", "Molecular Formula": "C10H12O2", "Melting Point": "154 \u00b0C", "Density": "1.16 g/cm\u00b3"}}