{"cas_no": "480-93-3", "cn_name": "3-\u7f9f\u57fa\u5432\u54da", "en_name": ["Indoxyl", "1H-Indol-3-ol", "Indol-3-ol", "Indoxyl", "3-Hydroxyindole"], "SMILES": "OC=1C=2C(=CC=CC2)NC1", "physical_data": {"Molecular Weight": "133.15", "Molecular Formula": "C8H7NO", "Melting Point": "85-87 \u00b0C"}}