{"cas_no": "480-47-7", "cn_name": "\u7ee3\u7403\u915a", "en_name": ["3,4-Dihydro-8-hydroxy-3-(4-hydroxyphenyl)-1H-2-benzopyran-1-one", "1H-2-Benzopyran-1-one, 3,4-dihydro-8-hydroxy-3-(4-hydroxyphenyl)-", "Isocoumarin, 3,4-dihydro-8-hydroxy-3-(p-hydroxyphenyl)-", "3,4-Dihydro-8-hydroxy-3-(4-hydroxyphenyl)-1H-2-benzopyran-1-one", "Hydrangenol", "(\u00b1)-Hydrangenol"], "SMILES": "O=C1C=2C(CC(O1)C3=CC=C(O)C=C3)=CC=CC2O", "physical_data": {"Molecular Weight": "256.25", "Molecular Formula": "C15H12O4", "Melting Point": "181-182 \u00b0C"}}