{"cas_no": "480-41-1", "cn_name": "(S)-\u67da\u76ae\u7d20", "en_name": ["Naringenin", "4H-1-Benzopyran-4-one, 2,3-dihydro-5,7-dihydroxy-2-(4-hydroxyphenyl)-, (2S)-", "Naringenin", "Flavanone, 4\u2032,5,7-trihydroxy-", "4H-1-Benzopyran-4-one, 2,3-dihydro-5,7-dihydroxy-2-(4-hydroxyphenyl)-, (S)-", "(2S)-2,3-Dihydro-5,7-dihydroxy-2-(4-hydroxyphenyl)-4H-1-benzopyran-4-one", "Naringetol", "Salipurol", "Salipurpol", "Naringenine", "(-)-Naringenin", "(S)-Naringenin", "(2S)-Naringenin", "(-)-(2S)-Naringenin", "NSC 11855", "NSC 34875", "(2S)-4\u2032,5,7-Trihydroxy-flavanone", "TCI-N 0072", "(2S)-5,7-Dihydroxy-2-(4-hydroxyphenyl)-3,4-dihydro-2H-1-benzopyran-4-one", "(S)-5,7-Dihydroxy-2-(4-hydroxyphenyl)chroman-4-one", "(2S)-5,7-Dihydroxy-2-(4-hydroxyphenyl)-2,3-dihydrochromen-4-one"], "SMILES": "O=C1C=2C(OC(C1)C3=CC=C(O)C=C3)=CC(O)=CC2O", "physical_data": {"Molecular Weight": "272.25", "Molecular Formula": "C15H12O5", "Melting Point": "251 \u00b0C"}}