{"cas_no": "480-19-3", "cn_name": "\u5f02\u9f20\u674e\u7d20", "en_name": ["Isorhamnetin", "4H-1-Benzopyran-4-one, 3,5,7-trihydroxy-2-(4-hydroxy-3-methoxyphenyl)-", "Flavone, 3,4\u2032,5,7-tetrahydroxy-3\u2032-methoxy-", "Isorhamnetin", "3,5,7-Trihydroxy-2-(4-hydroxy-3-methoxyphenyl)-4H-1-benzopyran-4-one", "C.I. 75680", "Isorhamnetol", "3\u2032-Methoxyquercetin", "3\u2032-O-Methylquercetin", "Quercetin 3\u2032-methyl ether", "3,4\u2032,5,7-Tetrahydroxy-3\u2032-methoxyflavone", "3\u2032-Methylquercetin", "3,5,7-Trihydroxy-2-(4-hydroxy-3-methoxyphenyl)chromen-4-one"], "SMILES": "O=C1C=2C(OC(=C1O)C3=CC(OC)=C(O)C=C3)=CC(O)=CC2O", "physical_data": {"Molecular Weight": "316.26", "Molecular Formula": "C16H12O7", "Melting Point": "305 \u00b0C (decomp)"}}