{"cas_no": "480-37-5", "cn_name": "\u7403\u677e\u7d20", "en_name": ["(-)-Pinostrobin", "4H-1-Benzopyran-4-one, 2,3-dihydro-5-hydroxy-7-methoxy-2-phenyl-, (2S)-", "Flavanone, 5-hydroxy-7-methoxy-", "Pinostrobin", "4H-1-Benzopyran-4-one, 2,3-dihydro-5-hydroxy-7-methoxy-2-phenyl-, (S)-", "(2S)-2,3-Dihydro-5-hydroxy-7-methoxy-2-phenyl-4H-1-benzopyran-4-one", "Dihydrotectochrysin", "5-Hydroxy-7-methoxyflavanone", "(-)-Pinostrobin", "Pinocembrin 7-methyl ether", "7-Methylpinocembrin", "Pinostrombin", "(-)-2S-Pinocembrin", "(2S)-Pinostrobin", "(2S)-5-Hydroxy-7-methoxy-2-phenyl-2,3-dihydrochromen-4-one"], "SMILES": "O=C1C=2C(OC(C1)C3=CC=CC=C3)=CC(OC)=CC2O", "physical_data": {"Molecular Weight": "270.28", "Molecular Formula": "C16H14O4", "Melting Point": "110-111 \u00b0C"}}