{"cas_no": "480-67-1", "cn_name": "2,6-\u4e8c\u7f9f\u57fa-4-\u7532\u57fa\u82ef\u7532\u9178", "en_name": ["2,6-Dihydroxy-4-methylbenzoic acid", "Benzoic acid, 2,6-dihydroxy-4-methyl-", "\u03b3-Resorcylic acid, 4-methyl-", "2,6-Dihydroxy-4-methylbenzoic acid", "4-Methyl-\u03b3-resorcylic acid", "p-Orsellinic acid", "2,6-Dihydroxy-4-methylbenzoate"], "SMILES": "C(O)(=O)C1=C(O)C=C(C)C=C1O", "physical_data": {"Molecular Weight": "168.15", "Molecular Formula": "C8H8O4", "Melting Point": "166-168 \u00b0C (decomp)"}}