{"cas_no": "480-20-6", "cn_name": "\u9999\u6a59\u7d20", "en_name": ["Dihydrokaempferol", "4H-1-Benzopyran-4-one, 2,3-dihydro-3,5,7-trihydroxy-2-(4-hydroxyphenyl)-, (2R,3R)-", "Flavanone, 3,4\u2032,5,7-tetrahydroxy-", "4H-1-Benzopyran-4-one, 2,3-dihydro-3,5,7-trihydroxy-2-(4-hydroxyphenyl)-, (2R-trans)-", "(2R,3R)-2,3-Dihydro-3,5,7-trihydroxy-2-(4-hydroxyphenyl)-4H-1-benzopyran-4-one", "Aromadendrin", "Aromadendrol", "Dihydrokaempferol", "Katuranin", "Aromadendrine", "(+)-Dihydrokaempferol", "3,4\u2032,5,7-Tetrahydroxyflavanone", "(+)-Aromadendrin", "(2R,3R)-Katuranin", "(2R,3R)-3,4\u2032,5,7-Tetrahydroxyflavanone", "(+)-(2R,3R)-Dihydrokaempferol"], "SMILES": "O=C1C=2C(OC(C1O)C3=CC=C(O)C=C3)=CC(O)=CC2O", "physical_data": {"Molecular Weight": "288.25", "Molecular Formula": "C15H12O6", "Boiling Point": "139-140 \u00b0C", "Melting Point": "224-225 \u00b0C (decomp)"}}