{"cas_no": "480-40-0", "cn_name": "\u767d\u6768\u7d20", "en_name": ["Chrysin", "4H-1-Benzopyran-4-one, 5,7-dihydroxy-2-phenyl-", "Chrysin", "Flavone, 5,7-dihydroxy-", "5,7-Dihydroxy-2-phenyl-4H-1-benzopyran-4-one", "5,7-Dihydroxyflavone", "NSC 407436", "Crysin", "5,7-Dihydroxy-2-phenylchromen-4-one", "5,7-Dihydroxy-2-phenyl-4H-chromen-4-one"], "SMILES": "O=C1C=2C(OC(=C1)C3=CC=CC=C3)=CC(O)=CC2O", "physical_data": {"Molecular Weight": "254.24", "Molecular Formula": "C15H10O4", "Melting Point": "285.5 \u00b0C"}}