{"cas_no": "480-68-2", "cn_name": "5-\u785d\u57fa\u5df4\u6bd4\u59a5\u9178", "en_name": ["5-Nitrobarbituric acid", "2,4,6(1H,3H,5H)-Pyrimidinetrione, 5-nitro-", "Barbituric acid, 5-nitro-", "Dilituric acid", "5-Nitro-2,4,6(1H,3H,5H)-pyrimidinetrione", "5-Nitrobarbituric acid", "5-Nitro-6-hydroxyuracil", "2,4,6-Trihydroxy-5-nitropyrimidine", "5-Nitro-2,4,6-pyrimidinetriol", "5-Nitro-2,4,6-trihydroxypyrimidine", "6-Hydroxy-5-nitro-2,4(1H,3H)-pyrimidinedione", "NSC 5071"], "SMILES": "N(=O)(=O)C1C(=O)NC(=O)NC1=O", "physical_data": {"Molecular Weight": "173.08", "Molecular Formula": "C4H3N3O5", "Melting Point": "180.5 \u00b0C"}}