{"cas_no": "480-56-8", "cn_name": "\u7d05\u7c89\u82d4\u9178", "en_name": ["Lecanoric acid", "Benzoic acid, 2,4-dihydroxy-6-methyl-, 4-carboxy-3-hydroxy-5-methylphenyl ester", "Lecanoric acid", "\u03b2-Resorcylic acid, 6-methyl-, 4-(6-methyl-\u03b2-resorcylate)", "NSC 249981"], "SMILES": "C(OC1=CC(C)=C(C(O)=O)C(O)=C1)(=O)C2=C(C)C=C(O)C=C2O", "physical_data": {"Molecular Weight": "318.28", "Molecular Formula": "C16H14O7", "Melting Point": "176 \u00b0C"}}