{"cas_no": "480-43-3", "cn_name": "\u5f02\u6a31\u82b1\u4ead", "en_name": ["Isosakuranetin", "4H-1-Benzopyran-4-one, 2,3-dihydro-5,7-dihydroxy-2-(4-methoxyphenyl)-, (2S)-", "Flavanone, 5,7-dihydroxy-4\u2032-methoxy-", "Isosakuranetin", "4H-1-Benzopyran-4-one, 2,3-dihydro-5,7-dihydroxy-2-(4-methoxyphenyl)-, (S)-", "(2S)-2,3-Dihydro-5,7-dihydroxy-2-(4-methoxyphenyl)-4H-1-benzopyran-4-one", "Citrifoliol", "Naringenin-4\u2032-methyl ether", "4\u2032-Methylnaringenin", "Ponciretin", "5,7-Dihydroxy-4\u2032-methoxyflavanone", "(S)-Isosakuranetin", "Isosakuranetine", "(2S)-5,7-Dihydroxy-2-(4-methoxyphenyl)-2,3-dihydrochromen-4-one"], "SMILES": "O=C1C=2C(OC(C1)C3=CC=C(OC)C=C3)=CC(O)=CC2O", "physical_data": {"Molecular Weight": "286.28", "Molecular Formula": "C16H14O5", "Melting Point": "192-193 \u00b0C"}}