{"cas_no": "480-16-0", "cn_name": "\u6851\u9ec4\u7d20", "en_name": ["Morin", "4H-1-Benzopyran-4-one, 2-(2,4-dihydroxyphenyl)-3,5,7-trihydroxy-", "Flavone, 2\u2032,3,4\u2032,5,7-pentahydroxy-", "2-(2,4-Dihydroxyphenyl)-3,5,7-trihydroxy-4H-1-benzopyran-4-one", "Morin", "2\u2032,3,4\u2032,5,7-Pentahydroxyflavone", "3,5,7,2\u2032,4\u2032-Pentahydroxyflavone", "2\u2032,4\u2032,3,5,7-Pentahydroxyflavone", "2\u2032-Hydroxypelargidenolon 1522", "C.I. Natural Yellow 11", "3,5,7,2\u2032,4\u2032-Pentahydroxyflavonol", "LY 002079", "C.I. 75660", "NSC 19801", "LDN 0058388", "Aluminum ionophore I", "2-(2,4-Dihydroxyphenyl)-3,5,7-trihydroxychromen-4-one"], "SMILES": "O=C1C=2C(OC(=C1O)C3=C(O)C=C(O)C=C3)=CC(O)=CC2O", "physical_data": {"Molecular Weight": "302.24", "Molecular Formula": "C15H10O7", "Melting Point": "303.5 \u00b0C"}}