{"cas_no": "480-44-4", "cn_name": "\u91d1\u5408\u6b22\u7d20", "en_name": ["Acacetin", "4H-1-Benzopyran-4-one, 5,7-dihydroxy-2-(4-methoxyphenyl)-", "Acacetin", "Flavone, 5,7-dihydroxy-4\u2032-methoxy-", "5,7-Dihydroxy-2-(4-methoxyphenyl)-4H-1-benzopyran-4-one", "Buddleoflavonol", "5,7-Dihydroxy-4\u2032-methoxyflavone", "Linarigenin", "Apigenin 4\u2032-methyl ether", "4\u2032-O-Methylapigenin", "4\u2032-Methylapigenin", "2-(4-Methoxyphenyl)-5,7-dihydroxy-4H-1-benzopyran-4-one", "LY 064233", "NSC 76061", "4\u2032-O-Methyl-5,7,4\u2032-trihydroxyflavone"], "SMILES": "O=C1C=2C(OC(=C1)C3=CC=C(OC)C=C3)=CC(O)=CC2O", "physical_data": {"Molecular Weight": "284.26", "Molecular Formula": "C16H12O5", "Melting Point": "263 \u00b0C"}}