{"cas_no": "480-18-2", "cn_name": "\u82b1\u65d7\u677e\u7d20", "en_name": ["Taxifolin", "4H-1-Benzopyran-4-one, 2-(3,4-dihydroxyphenyl)-2,3-dihydro-3,5,7-trihydroxy-, (2R,3R)-", "4H-1-Benzopyran-4-one, 2-(3,4-dihydroxyphenyl)-2,3-dihydro-3,5,7-trihydroxy-, (2R-trans)-", "Flavanone, 3,3\u2032,4\u2032,5,7-pentahydroxy-", "(2R,3R)-2-(3,4-Dihydroxyphenyl)-2,3-dihydro-3,5,7-trihydroxy-4H-1-benzopyran-4-one", "Distylin", "Taxifolin", "Taxifoliol", "Dihydroquercetin", "(+)-Taxifolin", "(+)-Dihydroquercetin", "(2R,3R)-Dihydroquercetin", "2,3-Dihydroquercetin", "3,5,7,3\u2032,4\u2032-Pentahydroxyflavanone", "Diquertin", "(2R,3R)-(+)-Taxifolin", "Lariksin", "Lavitol", "(+)-trans-Taxifolin", "(2R,3R)-3,3\u2032,4\u2032,5,7-Pentahydroxyflavanone", "Flamena D", "(+)-(2R,3R)-Dihydroquercetin", "Flamena", "Jikuberuchin", "Flavomix", "HSA 8432"], "SMILES": "O=C1C=2C(OC(C1O)C3=CC(O)=C(O)C=C3)=CC(O)=CC2O", "physical_data": {"Molecular Weight": "304.25", "Molecular Formula": "C15H12O7", "Melting Point": "~237 \u00b0C (approx)"}}