{"cas_no": "4801-80-3", "cn_name": "N-\u82c4\u6c27\u7fb0\u57fa-L-\u82ef\u4e19\u6c28\u9170\u80fa", "en_name": ["Phenylmethyl N-[(1S)-2-amino-2-oxo-1-(phenylmethyl)ethyl]carbamate", "Carbamic acid, N-[(1S)-2-amino-2-oxo-1-(phenylmethyl)ethyl]-, phenylmethyl ester", "Carbamic acid, (\u03b1-carbamoylphenethyl)-, benzyl ester, L-", "Carbamic acid, [2-amino-2-oxo-1-(phenylmethyl)ethyl]-, phenylmethyl ester, (S)-", "Carbamic acid, [(1S)-2-amino-2-oxo-1-(phenylmethyl)ethyl]-, phenylmethyl ester", "Phenylmethyl N-[(1S)-2-amino-2-oxo-1-(phenylmethyl)ethyl]carbamate", "Benzyloxycarbonyl-L-phenylalaninamide", "N-Benzyloxycarbonyl-L-phenylalanine amide", "N-Benzyloxycarbonylphenylalanine amide"], "SMILES": "C(CC1=CC=CC=C1)(NC(OCC2=CC=CC=C2)=O)C(N)=O", "physical_data": {"Molecular Weight": "298.34", "Molecular Formula": "C17H18N2O3", "Melting Point": "165-166 \u00b0C"}}