{"cas_no": "4801-58-5", "cn_name": "N-\u7f9f\u57fa\u54cc\u5576", "en_name": ["1-Hydroxypiperidine", "Piperidine, 1-hydroxy-", "1-Hydroxypiperidine", "N-Hydroxypiperidine", "1-Piperidinol"], "SMILES": "ON1CCCCC1", "physical_data": {"Molecular Weight": "101.15", "Molecular Formula": "C5H11NO", "Boiling Point": "146-148 \u00b0C @ Press: 1 Torr", "Melting Point": "39-40 \u00b0C"}}