{"cas_no": "480424-70-2", "cn_name": "4-\u4e59\u9170\u6c27\u57fa\u82ef\u787c\u9178\u9891\u54ea\u9187\u916f", "en_name": ["Phenol, 4-(4,4,5,5-tetramethyl-1,3,2-dioxaborolan-2-yl)-, 1-acetate", "Phenol, 4-(4,4,5,5-tetramethyl-1,3,2-dioxaborolan-2-yl)-, 1-acetate", "Phenol, 4-(4,4,5,5-tetramethyl-1,3,2-dioxaborolan-2-yl)-, acetate", "4-(4,4,5,5-Tetramethyl-1,3,2-dioxaborolan-2-yl)phenyl acetate", "4-(4,4,5,5-Tetramethyl-1,3-dioxaboran-2-yl)phenyl acetate"], "SMILES": "CC1(C)OB(OC1(C)C)C2=CC=C(OC(C)=O)C=C2", "physical_data": {"Molecular Weight": "262.11", "Molecular Formula": "C14H19BO4", "Melting Point": "63-64 \u00b0C"}}