{"cas_no": "4806-79-5", "cn_name": "2-(4-\u6c2f\u82ef\u57fa)\u4e19-1-\u80fa\u76d0\u9178\u76d0", "en_name": ["4-Chloro-\u03b2-methylbenzeneethanamine", "Benzeneethanamine, 4-chloro-\u03b2-methyl-", "Phenethylamine, p-chloro-\u03b2-methyl-", "4-Chloro-\u03b2-methylbenzeneethanamine", "2-(p-Chlorophenyl)propylamine", "p-Chloro-\u03b2-methylphenylethylamine", "2-(4-Chlorophenyl)-1-propylamine", "2-(4-Chlorophenyl)propan-1-amine", "2-(4-Chlorophenyl)propylamine"], "SMILES": "C(CN)(C)C1=CC=C(Cl)C=C1", "physical_data": {"Molecular Weight": "169.65", "Molecular Formula": "C9H12ClN", "Boiling Point": "99-101 \u00b0C @ Press: 5 Torr", "Density": "0.9639 g/cm\u00b3 @ Temp: 20 \u00b0C"}}