{"cas_no": "4807-55-0", "cn_name": "3-\u7532\u57fa-2-\u786b\u916e-1,3-\u567b\u5511\u5549-4-\u916e", "en_name": ["Methylrhodanine", "4-Thiazolidinone, 3-methyl-2-thioxo-", "Rhodanine, 3-methyl-", "3-Methyl-2-thioxo-4-thiazolidinone", "3-Methylrhodanine", "Methylrhodanine", "N-Methylrhodanine", "NSC 14787", "NSC 42903", "NSC 65351", "3-Methyl-2-thioxo-1,3-thiazolidin-4-one", "3-Methyl-2-sulfanylidene-1,3-thiazolidin-4-one", "3-Methyl-2-thioxo-thiazolidin-4-on"], "SMILES": "CN1C(=O)CSC1=S", "physical_data": {"Molecular Weight": "147.22", "Molecular Formula": "C4H5NOS2", "Melting Point": "195 \u00b0C (decomp)"}}