{"cas_no": "4808-70-2", "cn_name": "5-\u7532\u57fa\u5421\u5576-3-\u78fa\u9178", "en_name": ["5-Methyl-3-pyridinesulfonic acid", "3-Pyridinesulfonic acid, 5-methyl-", "5-Methyl-3-pyridinesulfonic acid"], "SMILES": "S(=O)(=O)(O)C=1C=C(C)C=NC1", "physical_data": {"Molecular Weight": "173.19", "Molecular Formula": "C6H7NO3S", "Melting Point": "310-312 \u00b0C"}}