{"cas_no": "4808-30-4", "cn_name": "\u53cc(\u4e09\u4e01\u57fa\u9521)\u786b\u919a", "en_name": ["Tributyltin sulfide", "Distannathiane, 1,1,1,3,3,3-hexabutyl-", "Distannathiane, hexabutyl-", "Distannthiane, hexabutyl-", "Bis(tributyltin) sulfide", "Tin, thiobis[tributyl-", "1,1,1,3,3,3-Hexabutyldistannathiane", "Tributyltin sulfide", "Bis(tri-n-butyltin) sulfide", "Bis(tributylstannyl) sulfide", "Harpp's reagent", "Reagents, Harpp's"], "SMILES": "[Sn](S[Sn](CCCC)(CCCC)CCCC)(CCCC)(CCCC)CCCC", "physical_data": {"Molecular Weight": "612.17", "Molecular Formula": "C24H54SSn2", "Boiling Point": "208 \u00b0C @ Press: 1 Torr", "Density": "1.197 g/cm\u00b3 @ Temp: 20 \u00b0C"}}