{"cas_no": "4808-48-4", "cn_name": "2,3-\u4e8c\u82ef\u57fa\u9a6c\u6765\u9178\u9150", "en_name": ["Diphenylmaleic anhydride", "2,5-Furandione, 3,4-diphenyl-", "Maleic anhydride, diphenyl-", "3,4-Diphenyl-2,5-furandione", "\u03b1,\u03b1\u2032-Diphenylmaleic anhydride", "\u03b1,\u03b1\u2032-Diphenylmaleic acid anhydride", "Diphenylmaleic anhydride", "2,3-Diphenylmaleic anhydride", "NSC 47959"], "SMILES": "O=C1C(=C(C(=O)O1)C2=CC=CC=C2)C3=CC=CC=C3", "physical_data": {"Molecular Weight": "250.25", "Molecular Formula": "C16H10O3", "Melting Point": "158-158.5 \u00b0C"}}