{"cas_no": "481-46-9", "cn_name": "\u94f6\u674f\u7d20", "en_name": ["Ginkgetin", "4H-1-Benzopyran-4-one, 5,7-dihydroxy-8-[5-(5-hydroxy-7-methoxy-4-oxo-4H-1-benzopyran-2-yl)-2-methoxyphenyl]-2-(4-hydroxyphenyl)-", "3\u2032\u2032\u2032,8-Biflavone, 4\u2032,5,5\u2032\u2032,7-tetrahydroxy-4\u2032\u2032\u2032,7\u2032\u2032-dimethoxy-", "5,7-Dihydroxy-8-[5-(5-hydroxy-7-methoxy-4-oxo-4H-1-benzopyran-2-yl)-2-methoxyphenyl]-2-(4-hydroxyphenyl)-4H-1-benzopyran-4-one", "Ginkgetin", "Amentoflavone 7\u2032\u2032,4\u2032\u2032\u2032-dimethyl ether", "7,4\u2032-Dimethylamentoflavone", "Ginkgotin", "5,7-Dihydroxy-8-(5-(5-hydroxy-7-methoxy-4-oxo-4H-chromen-2-yl)-2-methoxyphenyl)-2-(4-hydroxyphenyl)-4H-chromen-4-one"], "SMILES": "OC=1C(=C2C(C(=O)C=C(O2)C3=CC=C(O)C=C3)=C(O)C1)C4=CC(=CC=C4OC)C=5OC=6C(C(=O)C5)=C(O)C=C(OC)C6", "physical_data": {"Molecular Weight": "566.51", "Molecular Formula": "C32H22O10", "Melting Point": "297 \u00b0C"}}