{"cas_no": "481-06-1", "cn_name": "\u9a71\u86d4\u7d20", "en_name": ["(-)-Santonin", "Naphtho[1,2-b]furan-2,8(3H,4H)-dione, 3a,5,5a,9b-tetrahydro-3,5a,9-trimethyl-, (3S,3aS,5aS,9bS)-", "Eudesma-1,4-dien-12-oic acid, 6\u03b1-hydroxy-3-oxo-, \u03b3-lactone, (11S)-", "Naphtho[1,2-b]furan-2,8(3H,4H)-dione, 3a,5,5a,9b-tetrahydro-3,5a,9-trimethyl-, [3S-(3\u03b1,3a\u03b1,5a\u03b2,9b\u03b2)]-", "(3S,3aS,5aS,9bS)-3a,5,5a,9b-Tetrahydro-3,5a,9-trimethylnaphtho[1,2-b]furan-2,8(3H,4H)-dione", "\u03b1-Santonin", "Santonin", "(-)-\u03b1-Santonin", "1,2,3,4,4a,7-Hexahydro-1-hydroxy-\u03b1,4a,8-trimethyl-7-oxo-2-naphthaleneacetic acid \u03b3-lactone", "(-)-Santonin", "Semenen", "NSC 4900", "alpha-Santonin", "MeSH ID: D012500"], "SMILES": "CC12C(C3C(CC1)C(C)C(=O)O3)=C(C)C(=O)C=C2", "physical_data": {"Molecular Weight": "246.30", "Molecular Formula": "C15H18O3", "Melting Point": "175 \u00b0C"}}