{"cas_no": "481-53-8", "cn_name": "\u6854\u76ae\u7d20", "en_name": ["Tangeretin", "4H-1-Benzopyran-4-one, 5,6,7,8-tetramethoxy-2-(4-methoxyphenyl)-", "Flavone, 4\u2032,5,6,7,8-pentamethoxy-", "Tangeretin", "5,6,7,8-Tetramethoxy-2-(4-methoxyphenyl)-4H-1-benzopyran-4-one", "Ponkanetin", "5,6,7,8,4\u2032-Pentamethoxyflavone", "4\u2032,5,6,7,8-Pentamethoxyflavone", "Tangeritin", "NSC 53909", "NSC 618905"], "SMILES": "O(C)C1=C2C(=C(OC)C(OC)=C1OC)C(=O)C=C(O2)C3=CC=C(OC)C=C3", "physical_data": {"Molecular Weight": "372.37", "Molecular Formula": "C20H20O7", "Melting Point": "154 \u00b0C"}}