{"cas_no": "481-74-3", "cn_name": "\u5927\u9ec4\u915a", "en_name": ["Chrysophanol", "9,10-Anthracenedione, 1,8-dihydroxy-3-methyl-", "Anthraquinone, 1,8-dihydroxy-3-methyl-", "1,8-Dihydroxy-3-methyl-9,10-anthracenedione", "C.I. 75400", "Chrysophanic acid", "Chrysophanol", "C.I. Natural Yellow 23", "1,8-Dihydroxy-3-methylanthraquinone", "3-Methylchrysazin", "3-Methyl-1,8-dihydroxyanthraquinone", "Turkey Rhubarb", "2-Methyl-4,5-dihydroxyanthraquinone", "4,5-Dihydroxy-2-methylanthraquinone", "1,8-Dihydroxy-3-methyl-9,10-anthraquinone", "NSC 37132", "NSC 646567"], "SMILES": "O=C1C=2C(C(=O)C=3C1=CC=CC3O)=C(O)C=C(C)C2", "physical_data": {"Molecular Weight": "254.24", "Molecular Formula": "C15H10O4", "Boiling Point": "60-80 \u00b0C", "Melting Point": "196 \u00b0C"}}