{"cas_no": "481-85-6", "cn_name": "1,4-\u4e8c\u4e59\u9170\u6c27\u57fa-2-\u7532\u57fa\u8418", "en_name": ["2-Methyl-1,4-naphthalenediol", "1,4-Naphthalenediol, 2-methyl-", "2-Methyl-1,4-naphthalenediol", "Menadiol", "2-Methyl-1,4-naphthoquinol", "Vitamin K3H2", "Dihydrovitamin K3", "2-Methyl-1,4-naphthohydroquinone", "Reduced menadione", "2-Methylnaphthalene-1,4-diol", "2-Methyl-1,4-dihydroxynaphthalene", "2-Methylhydronaphthoquinone", "Reduced vitamin K3", "1,4-Dihydroxy-2-methylnaphthalene", "4-Hydroxy-3-methyl-\u03b1-naphthol"], "SMILES": "OC=1C2=C(C(O)=CC1C)C=CC=C2", "physical_data": {"Molecular Weight": "174.20", "Molecular Formula": "C11H10O2", "Melting Point": "169 \u00b0C"}}