{"cas_no": "481-73-2", "cn_name": "\u03a9-\u7f9f\u57fa\u5927\u9ec4\u7d20", "en_name": ["Citreorosein", "9,10-Anthracenedione, 1,3,8-trihydroxy-6-(hydroxymethyl)-", "Anthraquinone, 1,3,8-trihydroxy-6-(hydroxymethyl)-", "1,3,8-Trihydroxy-6-(hydroxymethyl)-9,10-anthracenedione", "Citreorosein", "Hydroxyemodin", "\u03c9-Hydroxyemodin", "NSC 624612", "(4R)-Regiolone"], "SMILES": "O=C1C=2C(C(=O)C=3C1=CC(O)=CC3O)=C(O)C=C(CO)C2", "physical_data": {"Molecular Weight": "286.24", "Molecular Formula": "C15H10O6", "Boiling Point": "60-80 \u00b0C", "Melting Point": "288 \u00b0C"}}