{"cas_no": "481-42-5", "cn_name": "\u5170\u96ea\u918c", "en_name": ["Plumbagin", "1,4-Naphthalenedione, 5-hydroxy-2-methyl-", "Plumbagin", "1,4-Naphthoquinone, 5-hydroxy-2-methyl-", "5-Hydroxy-2-methyl-1,4-naphthalenedione", "5-Hydroxy-2-methyl-1,4-naphthoquinone", "2-Methyl-5-hydroxy-1,4-naphthoquinone", "Plumbagine", "Plumbagone", "2-Methyljuglone", "NSC 236613", "NSC 688284", "2-Methyl-5-hydroxy-1,4-naphthalenedione"], "SMILES": "O=C1C=2C(C(=O)C=C1C)=C(O)C=CC2", "physical_data": {"Molecular Weight": "188.18", "Molecular Formula": "C11H8O3", "Boiling Point": "70-90 \u00b0C", "Melting Point": "78.5 \u00b0C", "Density": "1.380 g/cm\u00b3"}}