{"cas_no": "481-30-1", "cn_name": "\u8868\u777e\u916e", "en_name": ["Epitestosterone", "Androst-4-en-3-one, 17-hydroxy-, (17\u03b1)-", "Androst-4-en-3-one, 17\u03b1-hydroxy-", "(17\u03b1)-17-Hydroxyandrost-4-en-3-one", "Androst-4-en-17\u03b1-ol-3-one", "Epitestosterone", "epi-Testosterone", "17\u03b1-Testosterone", "cis-Testosterone", "Isotestosterone", "Testosterone, cis-", "17-Epitestosterone", "17\u03b1-Hydroxyandrost-4-ene-3-one", "4-Androstene-17\u03b1-ol-3-one", "17\u03b1-Hydroxyandrost-4-en-3-one", "17\u03b1-cis-Testosterone", "NSC 26499", "MeSH ID: D004845"], "SMILES": "CC12C3C(C4C(C)(CC3)C(O)CC4)CCC1=CC(=O)CC2", "physical_data": {"Molecular Weight": "288.42", "Molecular Formula": "C19H28O2", "Melting Point": "155 \u00b0C"}}