{"cas_no": "481-20-9", "cn_name": "\u7caa\u753e\u70f7", "en_name": ["5\u03b2-Cholestane", "Cholestane, (5\u03b2)-", "5\u03b2-Cholestane", "(5\u03b2)-Cholestane", "Coprostane", "Pseudocholestane", "\u03b2-Cholestane", "(20R)-5\u03b2(H),14\u03b1(H),17\u03b1(H)-Cholestane"], "SMILES": "CC12C(C3C(C4(C)C(CC3)CCCC4)CC1)CCC2C(CCCC(C)C)C", "physical_data": {"Molecular Weight": "372.67", "Molecular Formula": "C27H48", "Melting Point": "72 \u00b0C", "Density": "0.8949 g/cm\u00b3 @ Temp: 117.6 \u00b0C"}}