{"cas_no": "481-29-8", "cn_name": "\u8868\u96c4\u916e", "en_name": ["Epiandrosterone", "Androstan-17-one, 3-hydroxy-, (3\u03b2,5\u03b1)-", "5\u03b1-Androstan-17-one, 3\u03b2-hydroxy-", "(3\u03b2,5\u03b1)-3-Hydroxyandrostan-17-one", "epi-Androsterone", "trans-Androsterone", "3\u03b2-Androsterone", "Epiandrosterone", "d-Epiandrosterone", "3\u03b2-Hydroxy-5\u03b1-androstan-17-one", "3\u03b2-Hydroxyetioallocholan-17-one", "3\u03b2-Hydroxy-17-oxo-5\u03b1-androstane", "Isoandrosterone", "5\u03b1-Androstan-3\u03b2-ol-17-one", "3-Epiandrosterone", "3\u03b2-Hydroxy-5\u03b1-androstane-17-one", "Androsterone, trans-", "Androsterone, epi-", "iso-Androsterone", "3\u03b2-OH-5\u03b1-Androstane-17-one", "5\u03b1-Androstane-3\u03b2-ol-17-one", "3\u03b2-Hydroxyandrostan-17-one", "NSC 93996", "5\u03b1-Androstan-17-one-3\u03b2-ol"], "SMILES": "CC12C3C(C4C(C)(CC3)C(=O)CC4)CCC1CC(O)CC2", "physical_data": {"Molecular Weight": "290.44", "Molecular Formula": "C19H30O2", "Melting Point": "178 \u00b0C"}}