{"cas_no": "481-72-1", "cn_name": "\u82a6\u835f\u5927\u9ec4\u7d20", "en_name": ["Aloe emodin", "9,10-Anthracenedione, 1,8-dihydroxy-3-(hydroxymethyl)-", "Anthraquinone, 1,8-dihydroxy-3-(hydroxymethyl)-", "1,8-Dihydroxy-3-(hydroxymethyl)-9,10-anthracenedione", "1,8-Dihydroxy-3-hydroxymethylanthraquinone", "3-Hydroxymethylchrysazin", "Rhabarberone", "Aloe emodin", "Aloe-emodol", "3-Hydroxymethylchrysazine", "NSC 38628", "1,8-Dihydroxy-3-(hydroxymethyl)-9,10-anthraquinone"], "SMILES": "O=C1C=2C(C(=O)C=3C1=CC=CC3O)=C(O)C=C(CO)C2", "physical_data": {"Molecular Weight": "270.24", "Molecular Formula": "C15H10O5", "Boiling Point": "60-80 \u00b0C", "Melting Point": "223.5 \u00b0C"}}