{"cas_no": "481-49-2", "cn_name": "\u5343\u91d1\u85e4\u7d20", "en_name": ["(+)-Cepharanthine", "1H-4,6:16,19-Dietheno-21,25-metheno-12H-[1,3]dioxolo[4,5-g]pyrido[2\u2032,3\u2032:17,18][1,10]dioxacycloeicosino[2,3,4-ij]isoquinoline, 2,3,13,14,14a,15,26,26a-octahydro-22,30-dimethoxy-1,14-dimethyl-, (14aS,26aR)-", "Cepharanthine", "Oxyacanthan, 6\u2032,12\u2032-dimethoxy-2,2\u2032-dimethyl-6,7-[methylenebis(oxy)]-", "(14aS,26aR)-2,3,13,14,14a,15,26,26a-Octahydro-22,30-dimethoxy-1,14-dimethyl-1H-4,6:16,19-dietheno-21,25-metheno-12H-[1,3]dioxolo[4,5-g]pyrido[2\u2032,3\u2032:17,18][1,10]dioxacycloeicosino[2,3,4-ij]isoquinoline", "O-Methylcepharanoline", "Cepharanthin", "1H-4,6:16,19-Dietheno-21,25-metheno-12H-[1,3]dioxolo[4,5-g]pyrido[2\u2032,3\u2032:17,18][1,10]dioxacycloeicosino[2,3,4-ij]isoquinoline, 2,3,13,14,14a,15,26,26a-octahydro-22,30-dimethoxy-1,14-dimethyl-, [14aS-(14aR*,26aS*)]-", "Cepharantin", "(+)-Cepharanthine", "NSC 623442", "SML 1269", "SC 9 (alkaloid)"], "SMILES": "CN1C2C=3C(=C4C(=CC3CC1)OCO4)OC=5C=C6C(CC=7C=C(OC=8C=CC(C2)=CC8)C(OC)=CC7)N(C)CCC6=CC5OC", "physical_data": {"Molecular Weight": "606.71", "Molecular Formula": "C37H38N2O6", "Melting Point": "103 \u00b0C"}}