{"cas_no": "481-39-0", "cn_name": "5-\u7f9f\u57fa\u5bf9\u8418\u918c", "en_name": ["Juglone", "1,4-Naphthalenedione, 5-hydroxy-", "Juglone", "1,4-Naphthoquinone, 5-hydroxy-", "5-Hydroxy-1,4-naphthalenedione", "C.I. 75500", "Akhnot", "C.I. Natural Brown 7", "5-Hydroxy-1,4-naphthoquinone", "Juglon", "Nucin", "Regianin", "Walnut Extract", "5-Hydroxynaphthoquinone", "8-Hydroxy-1,4-naphthoquinone", "1,4-Dihydro-1,4-dioxo-5-hydroxynaphthalene", "NSC 153189", "NSC 34266", "NSC 622948", "Natural Brown 7"], "SMILES": "O=C1C=2C(C(=O)C=C1)=C(O)C=CC2", "physical_data": {"Molecular Weight": "174.15", "Molecular Formula": "C10H6O3", "Melting Point": "155 \u00b0C"}}