{"cas_no": "481-21-0", "cn_name": "5\u03b1-\u80c6\u753e\u70f7", "en_name": ["5\u03b1-Cholestane", "Cholestane, (5\u03b1)-", "5\u03b1-Cholestane", "(5\u03b1)-Cholestane", "28,29,30-Trinorlanostane", "Cholestane", "\u03b1-Cholestane", "(20R)-5\u03b1(H),14\u03b1(H),17\u03b1(H)-Cholestane", "(20R)-5\u03b1(H),14\u03b1(H),17\u03b1(H)-Cholestane", "NSC 224419", "(5R,8R,9S,10S,13R,14S,17R)-10,13-Dimethyl-17-((R)-6-methylheptan-2-yl)hexadecahydro-1H-cyclopenta[a]phenanthrene"], "SMILES": "CC12C(C3C(C4(C)C(CC3)CCCC4)CC1)CCC2C(CCCC(C)C)C", "physical_data": {"Molecular Weight": "372.67", "Molecular Formula": "C27H48", "Melting Point": "80 \u00b0C"}}