{"cas_no": "481-18-5", "cn_name": "\u0391-\u6ce2\u83dc\u753e\u9187", "en_name": ["\u03b1-Spinasterol", "Stigmasta-7,22-dien-3-ol, (3\u03b2,5\u03b1,22E)-", "5\u03b1-Stigmasta-7,22-dien-3\u03b2-ol, (E)-", "5\u03b1-Stigmasta-7,22-dien-3\u03b2-ol", "(3\u03b2,5\u03b1,22E)-Stigmasta-7,22-dien-3-ol", "Bessisterol", "Hitodesterol", "\u03b1-Spinasterin", "Spinasterol", "\u03b1-Spinasterol", "\u03947,22-Stigmastan-3\u03b2-ol", "Stigmasta-7,22-dien-3\u03b2-ol"], "SMILES": "CC12C(C=3C(C4(C)C(CC3)CC(O)CC4)CC1)CCC2C(C=CC(C(C)C)CC)C", "physical_data": {"Molecular Weight": "412.69", "Molecular Formula": "C29H48O", "Melting Point": "168-169 \u00b0C"}}