{"cas_no": "4812-45-7", "cn_name": "3-\u6c2f-5-\u785d\u57fa-1H-\u5432\u5511", "en_name": ["3-Chloro-5-nitro-1H-indazole", "1H-Indazole, 3-chloro-5-nitro-", "3-Chloro-5-nitro-1H-indazole", "3-Chloro-5-nitroindazole", "3-Chloro-5-nitro-2H-indazole"], "SMILES": "ClC=1C=2C(=CC=C(N(=O)=O)C2)NN1", "physical_data": {"Molecular Weight": "197.58", "Molecular Formula": "C7H4ClN3O2", "Melting Point": "210-211 \u00b0C"}}