{"cas_no": "4812-40-2", "cn_name": "\u7f9f\u57fa\u7532\u785d\u5511", "en_name": ["Hydroxymetronidazole", "1H-Imidazole-1-ethanol, 2-(hydroxymethyl)-5-nitro-", "Imidazole-1-ethanol, 2-(hydroxymethyl)-5-nitro-", "2-(Hydroxymethyl)-5-nitro-1H-imidazole-1-ethanol", "1-(2-Hydroxyethyl)-2-(hydroxymethyl)-5-nitroimidazole", "Hydroxymetronidazole", "2-[2-(Hydroxymethyl)-5-nitro-1H-imidazol-1-yl]ethan-1-ol"], "SMILES": "C(CO)N1C(N(=O)=O)=CN=C1CO", "physical_data": {"Molecular Weight": "187.15", "Molecular Formula": "C6H9N3O4", "Melting Point": "117-119 \u00b0C"}}