{"cas_no": "4812-20-8", "cn_name": "2-\u5f02\u4e19\u6c27\u57fa\u82ef\u915a", "en_name": ["2-Isopropoxyphenol", "Phenol, 2-(1-methylethoxy)-", "Phenol, o-isopropoxy-", "2-(1-Methylethoxy)phenol", "o-Isopropoxyphenol", "2-Isopropoxyphenol", "Catechol monoisopropyl ether", "2-Isopropyloxyphenol", "1-Hydroxy-2-isopropoxybenzene", "ortho-Isopropoxyphenol", "2-IPP", "2-(Propan-2-yloxy)phenol", "2-(2-Propoxy)phenol"], "SMILES": "O(C(C)C)C1=C(O)C=CC=C1", "physical_data": {"Molecular Weight": "152.19", "Molecular Formula": "C9H12O2", "Boiling Point": "100-102 \u00b0C"}}