{"cas_no": "4813-57-4", "cn_name": "\u4e19\u70ef\u9178\u5341\u516b\u916f", "en_name": ["Stearyl acrylate", "2-Propenoic acid, octadecyl ester", "Acrylic acid, octadecyl ester", "1-Octadecanol, acrylate", "Stearyl acrylate", "n-Octadecyl acrylate", "Octadecyl acrylate", "SR 257", "Light Acrylate S-A", "Blemmer SA", "Exceparl S", "Viscoat STA", "STA", "SR 257C", "SR 586", "EM 218", "SA 001", "TQ 10", "Sartomer SR 257", "Miramer M 180", "Miramer M 181", "SA 1618F", "A 1011", "M 180", "Komerate A 189"], "SMILES": "C(CCCCCCCCCCCCCCC)CCOC(C=C)=O", "physical_data": {"Molecular Weight": "324.54", "Molecular Formula": "C21H40O2", "Melting Point": "29.2-29.4 \u00b0C"}}