{"cas_no": "4814-74-8", "cn_name": "N-\u7f9f\u57fa\u9a6c\u6765\u9170\u4e9a\u80fa", "en_name": ["N-Hydroxymaleimide", "1H-Pyrrole-2,5-dione, 1-hydroxy-", "Maleimide, N-hydroxy-", "1-Hydroxy-1H-pyrrole-2,5-dione", "N-Hydroxymaleimide", "1-Hydroxy-2,5-dihydro-1H-pyrrole-2,5-dione", "1-Hydroxypyrrole-2,5-dione"], "SMILES": "ON1C(=O)C=CC1=O", "physical_data": {"Molecular Weight": "113.07", "Molecular Formula": "C4H3NO3", "Melting Point": "148-150 \u00b0C (decomp)"}}