{"cas_no": "48145-04-6", "cn_name": "2-\u82ef\u6c27\u57fa\u4e59\u57fa\u4e19\u70ef\u9178\u916f", "en_name": ["Phenoxyethyl acrylate", "2-Propenoic acid, 2-phenoxyethyl ester", "2-Phenoxyethyl acrylate", "Phenoxyethyl acrylate", "Phenyl Cellosolve acrylate", "Chemlink 160", "Kayarad R 561", "SR 339", "PO-A", "Light Ester PO-A", "Viscoat 192", "NK Ester AMP 10G", "GX 8079", "Newfrontier PHE", "Photomer 4035", "Sartomer SR 339", "Ageflex PEA", "Light Acrylate PO-A", "R 561", "IRR 169", "Ethylene glycol monophenyl ether monoacrylate", "Ethylene glycol phenyl ether acrylate", "AMP 10G", "Sartomer 339", "SR 339A", "SR 339C", "Ebecryl 114", "Laromer POEA", "EM 210", "M 8200", "M 8200 (ester)", "Eternal PEA", "Miramer M 140", "FA 310A", "PHA 011", "V 192", "D 192", "Viscoat 192D", "Sartomer SR 339C", "M 140", "Aronix M 600A", "SR 339EU", "Fancryl FA 310A", "Newfrontier PHA", "Ethylene glycol acrylate phenyl ether", "NK Ester AMO 10G", "Sartomer 339C", "Sartomer 399C", "SR 339NS", "Sartomer SR 339A", "Fancryl FA 310AH", "PHEA", "AgiSyn 2832", "2-Phenoxyethyl prop-2-enoate", "Etermer 2010"], "SMILES": "O(CCOC(C=C)=O)C1=CC=CC=C1", "physical_data": {"Molecular Weight": "192.21", "Molecular Formula": "C11H12O3", "Boiling Point": "103 \u00b0C @ Press: 0.6 Torr", "Density": "1.1035 g/cm\u00b3 @ Temp: 20 \u00b0C"}}