{"cas_no": "4815-36-5", "cn_name": "2-\u6c28\u57fa-4-\u82ef\u57fa\u567b\u5429-3-\u7fa7\u9178\u4e59\u916f", "en_name": ["2-Amino-3-(ethoxycarbonyl)-4-phenylthiophene", "3-Thiophenecarboxylic acid, 2-amino-4-phenyl-, ethyl ester", "Ethyl 2-amino-4-phenyl-3-thiophenecarboxylate", "2-Amino-3-(ethoxycarbonyl)-4-phenylthiophene", "2-Amino-3-carboethoxy-4-phenylthiophene", "NSC 149683", "NSC 171773", "2-Amino-4-phenyl-thiophene-3-carboxylic acid ethyl ester"], "SMILES": "C(OCC)(=O)C=1C(=CSC1N)C2=CC=CC=C2", "physical_data": {"Molecular Weight": "247.31", "Molecular Formula": "C13H13NO2S", "Melting Point": "98 \u00b0C"}}