{"cas_no": "4815-24-1", "cn_name": "2-\u6c28\u57fa-4\uff0c5-\u4e8c\u7532\u57fa\u567b\u915a-3-\u7fa7\u9178\u4e59\u916f", "en_name": ["Ethyl 2-amino-4,5-dimethylthiophene-3-carboxylate", "3-Thiophenecarboxylic acid, 2-amino-4,5-dimethyl-, ethyl ester", "Ethyl 2-amino-4,5-dimethylthiophene-3-carboxylate", "2-Amino-3-carbethoxy-4,5-dimethylthiophene", "2-Amino-4,5-dimethyl-3-thiophenecarboxylic acid ethyl ester", "NSC 86908", "2-Amino-3-(ethoxycarbonyl)-4,5-dimethylthiophene"], "SMILES": "C(OCC)(=O)C=1C(C)=C(C)SC1N", "physical_data": {"Molecular Weight": "199.27", "Molecular Formula": "C9H13NO2S", "Melting Point": "91-92 \u00b0C"}}