{"cas_no": "4815-25-2", "cn_name": "2-\u6c28\u57fa-4-\u4e59\u57fa-5-\u7532\u57fa\u567b\u5429-3-\u7fa7\u9178\u7532\u916f", "en_name": ["Methyl 2-amino-4-ethyl-5-methyl-3-thiophenecarboxylate", "3-Thiophenecarboxylic acid, 2-amino-4-ethyl-5-methyl-, methyl ester", "Methyl 2-amino-4-ethyl-5-methyl-3-thiophenecarboxylate"], "SMILES": "C(OC)(=O)C=1C(CC)=C(C)SC1N", "physical_data": {"Molecular Weight": "199.27", "Molecular Formula": "C9H13NO2S", "Boiling Point": "153-155 \u00b0C @ Press: 11 Torr"}}