{"cas_no": "4815-30-9", "cn_name": "5-\u6c28\u57fa-3-\u7532\u57fa-2\uff0c4-\u567b\u915a\u4e8c\u7fa7\u9178\u4e8c\u4e59\u916f", "en_name": ["Diethyl 5-amino-3-methylthiophene-2,4-dicarboxylate", "2,4-Thiophenedicarboxylic acid, 5-amino-3-methyl-, 2,4-diethyl ester", "2,4-Thiophenedicarboxylic acid, 5-amino-3-methyl-, diethyl ester", "2-Amino-3,5-bis(ethoxycarbonyl)-4-methylthiophene", "2-Amino-3,5-dicarbethoxy-4-methylthiophene", "Diethyl 5-amino-3-methylthiophene-2,4-dicarboxylate", "NSC 149763", "5-Amino-3-methyl-2,4-thiophenedicarboxylic acid diethyl ester", "Diethyl 2-amino-4-methylthiophene-3,5-dicarboxylate", "2,4-Diethyl 5-amino-3-methylthiophene-2,4-dicarboxylate"], "SMILES": "C(OCC)(=O)C1=C(C)C(C(OCC)=O)=C(N)S1", "physical_data": {"Molecular Weight": "257.31", "Molecular Formula": "C11H15NO4S", "Melting Point": "108-109 \u00b0C"}}