{"cas_no": "4815-32-1", "cn_name": "2-\u6c28\u57fa-5-\u7532\u57fa-\u567b\u5429-3-\u7532\u9178\u4e59\u916f", "en_name": ["Ethyl 2-amino-5-methylthiophene-3-carboxylate", "3-Thiophenecarboxylic acid, 2-amino-5-methyl-, ethyl ester", "Ethyl 2-amino-5-methylthiophene-3-carboxylate", "2-Amino-3-carboethoxy-5-methylthiophene", "2-Amino-5-methylthiophene-3-carboxylic acid ethyl ester", "2-Amino-5-methyl-3-ethoxycarbonylthiophene", "2-Amino-3-ethoxycarbonyl-5-methylthiophene"], "SMILES": "C(OCC)(=O)C1=C(N)SC(C)=C1", "physical_data": {"Molecular Weight": "185.24", "Molecular Formula": "C8H11NO2S", "Melting Point": "44-45 \u00b0C"}}