{"cas_no": "4815-34-3", "cn_name": "2-\u6c28\u57fa-5-\u82ef\u57fa\u567b\u5429-3-\u7532\u9178\u4e59\u916f", "en_name": ["Ethyl 2-amino-5-phenylthiophene-3-carboxylate", "3-Thiophenecarboxylic acid, 2-amino-5-phenyl-, ethyl ester", "Ethyl 2-amino-5-phenylthiophene-3-carboxylate", "2-Amino-5-phenyl-3-thiophenecarboxylic acid ethyl ester"], "SMILES": "C(OCC)(=O)C=1C=C(SC1N)C2=CC=CC=C2", "physical_data": {"Molecular Weight": "247.31", "Molecular Formula": "C13H13NO2S", "Melting Point": "123-124 \u00b0C"}}