{"cas_no": "4815-37-6", "cn_name": "2-\u6c28\u57fa-5-\u7532\u57fa-4-\u82ef\u567b\u5429-3-\u7532\u9178\u4e59\u916f", "en_name": ["2-Amino-3-carboethoxy-5-methyl-4-phenylthiophene", "3-Thiophenecarboxylic acid, 2-amino-5-methyl-4-phenyl-, ethyl ester", "Ethyl 2-amino-5-methyl-4-phenyl-3-thiophenecarboxylate", "2-Amino-3-carboethoxy-5-methyl-4-phenylthiophene"], "SMILES": "C(OCC)(=O)C=1C(=C(C)SC1N)C2=CC=CC=C2", "physical_data": {"Molecular Weight": "261.34", "Molecular Formula": "C14H15NO2S", "Melting Point": "93 \u00b0C"}}