{"cas_no": "4815-29-6", "cn_name": "2-\u6c28\u57fa\u73af\u620a\u5e76[B!\u567b\u5429-3-\u7532\u9178\u4e59\u916f", "en_name": ["4H-Cyclopenta[b]thiophene-3-carboxylic acid, 2-amino-5,6-dihydro-, ethyl ester", "4H-Cyclopenta[b]thiophene-3-carboxylic acid, 2-amino-5,6-dihydro-, ethyl ester", "NSC 99004", "Ethyl 2-amino-5,6-dihydro-4H-cyclopenta[b]thiophene-3-carboxylate"], "SMILES": "C(OCC)(=O)C=1C2=C(SC1N)CCC2", "physical_data": {"Molecular Weight": "211.28", "Molecular Formula": "C10H13NO2S", "Melting Point": "89-90 \u00b0C"}}