{"cas_no": "4816-80-2", "cn_name": "N-(4-\u7532\u57fa\u82ef\u78fa\u9170\u57fa)-L-\u8c37\u6c28\u9178", "en_name": ["N-[(4-Methylphenyl)sulfonyl]-L-glutamic acid", "L-Glutamic acid, N-[(4-methylphenyl)sulfonyl]-", "Glutamic acid, N-(p-tolylsulfonyl)-, L-", "Glutamic acid, N-(p-tolylsulfonyl)-", "N-[(4-Methylphenyl)sulfonyl]-L-glutamic acid", "p-Toluenesulfonyl-L-glutamic acid", "N-Tosyl-L-glutamic acid", "Tosylglutamic acid", "(+)-p-Toluenesulfonylglutamic acid", "N-p-Tolylsulfonyl-L-glutamic acid", "NSC 109186", "(+)-N-Tosyl-L-glutamic acid", "(S)-2-[[[4-Methylphenyl)sulfonyl]amino]pentanedioic acid", "(2S)-2-(4-Methylbenzenesulfonamido)pentanedioic acid"], "SMILES": "S(NC(CCC(O)=O)C(O)=O)(=O)(=O)C1=CC=C(C)C=C1", "physical_data": {"Molecular Weight": "301.32", "Molecular Formula": "C12H15NO6S", "Melting Point": "131 \u00b0C"}}