{"cas_no": "4818-59-1", "cn_name": "\u5f02\u544b\u585e\u7c73", "en_name": ["5-(Aminosulfonyl)-2-chloro-4-[(2-furanylmethyl)amino]benzoic acid", "Benzoic acid, 5-(aminosulfonyl)-2-chloro-4-[(2-furanylmethyl)amino]-", "Benzoic acid, 2-chloro-4-(furfurylamino)-5-sulfamoyl-", "5-(Aminosulfonyl)-2-chloro-4-[(2-furanylmethyl)amino]benzoic acid", "Isolasix", "Isofurosemide", "H 20", "2-Chloro-4-furfurylamino-5-sulfamoyl-benzoic acid", "2-Chloro-4-furfurylamino-5-sulfamoylbenzoic acid"], "SMILES": "N(CC1=CC=CO1)C2=C(S(N)(=O)=O)C=C(C(O)=O)C(Cl)=C2", "physical_data": {"Molecular Weight": "330.74", "Molecular Formula": "C12H11ClN2O5S", "Melting Point": "201-202 \u00b0C (decomp)"}}