{"cas_no": "4819-67-4", "cn_name": "2-\u620a\u57fa\u73af\u620a\u916e", "en_name": ["2-Pentylcyclopentanone", "Cyclopentanone, 2-pentyl-", "2-Pentylcyclopentanone", "2-n-Amylcyclopentanone", "2-n-Pentyl cyclopentanone", "Delphone", "2-Pentyl-1-cyclopentanone"], "SMILES": "C(CCCC)C1C(=O)CCC1", "physical_data": {"Molecular Weight": "154.25", "Molecular Formula": "C10H18O", "Boiling Point": "90 \u00b0C @ Press: 10 Torr"}}