{"cas_no": "4819-77-6", "cn_name": "\u4e59\u6c27\u57fa\u4e59\u919b\u4e8c\u4e59\u57fa\u4e59\u7f29\u919b", "en_name": ["1,1,2-Triethoxyethane", "Ethane, 1,1,2-triethoxy-", "Acetaldehyde, ethoxy-, diethyl acetal", "1,1,2-Triethoxyethane", "Ethoxyacetaldehyde diethyl acetal", "1,2,2-Triethoxyethane", "NSC 62041", "2-Ethoxyacetaldehyde diethylacetal"], "SMILES": "C(COCC)(OCC)OCC", "physical_data": {"Molecular Weight": "162.23", "Molecular Formula": "C8H18O3", "Boiling Point": "74 \u00b0C @ Press: 28 Torr", "Density": "0.885 g/cm\u00b3 @ Temp: 28 \u00b0C"}}