{"cas_no": "482-68-8", "cn_name": "SARPAGINE", "en_name": ["Sarpagine", "Sarpagan-10,17-diol", "Raupine", "Sarpagine", "(+)-Sarpagine", "Raupin"], "SMILES": "C(O)C1C2N3C(C4=C(C=5C(N4)=CC=C(O)C5)C2)CC1C(=CC)C3", "physical_data": {"Molecular Weight": "310.39", "Molecular Formula": "C19H22N2O2", "Melting Point": "325 \u00b0C (decomp)"}}