{"cas_no": "482-54-2", "cn_name": "1,2-\u73af\u5df1\u4e8c\u80fa\u56db\u4e59\u9178", "en_name": ["1,2-Diaminocyclohexane-N,N,N\u2032,N\u2032-tetraacetic acid", "Glycine, N,N\u2032-1,2-cyclohexanediylbis[N-(carboxymethyl)-", "Acetic acid, (1,2-cyclohexylenedinitrilo)tetra-", "N,N\u2032-1,2-Cyclohexanediylbis[N-(carboxymethyl)glycine]", "1,2-Cyclohexanediamine-N,N,N\u2032,N\u2032-tetraacetic acid", "1,2-Cyclohexylenediaminetetraacetic acid", "1,2-Diaminocyclohexanetetraacetic acid", "1,2-Cyclohexanediaminetetraacetic acid", "1,2-Diaminocyclohexane-N,N,N\u2032,N\u2032-tetraacetic acid", "o-Cyclohexanediaminetetraacetic acid", "1,2-Cyclohexylenedinitrilotetraacetic acid", "Cyclohexanediaminetetraacetic acid", "DCyTA", "NSC 529593", "NSC 7339", "2,2\u2032,2\u2032\u2032,2\u2032\u2032\u2032-(Cyclohexane-1,2-diylbis(azanetriyl))tetraacetic acid", "2-[[2-[Bis(carboxymethyl)amino]cyclohexyl]-(carboxymethyl)amino]acetic acid"], "SMILES": "N(CC(O)=O)(CC(O)=O)C1C(N(CC(O)=O)CC(O)=O)CCCC1", "physical_data": {"Molecular Weight": "346.33", "Molecular Formula": "C14H22N2O8", "Melting Point": "215 \u00b0C"}}