{"cas_no": "482-05-3", "cn_name": "2,2'-\u8054\u82ef\u4e8c\u7532\u9178", "en_name": ["Diphenic acid", "[1,1\u2032-Biphenyl]-2,2\u2032-dicarboxylic acid", "Diphenic acid", "o,o\u2032-Bibenzoic acid", "2,2\u2032-Biphenyldicarboxylic acid", "2,2\u2032-Bibenzoic acid", "o,o\u2032-Diphenic acid", "2,2\u2032-Dicarboxybiphenyl", "2,2\u2032-Diphenic acid", "Diphenyl-2,2\u2032-dicarboxylic acid", "2\u2032-Carboxybiphenyl-2-carboxylic acid", "NSC 1966", "2-(2-Carboxyphenyl)benzoic acid"], "SMILES": "C(O)(=O)C1=C(C=CC=C1)C2=C(C(O)=O)C=CC=C2", "physical_data": {"Molecular Weight": "242.23", "Molecular Formula": "C14H10O4", "Melting Point": "233.5 \u00b0C"}}