{"cas_no": "482-27-9", "cn_name": "\u5f02\u8334\u82b9\u7075", "en_name": ["Isopimpinellin", "7H-Furo[3,2-g][1]benzopyran-7-one, 4,9-dimethoxy-", "Isopimpinellin", "4,9-Dimethoxy-7H-furo[3,2-g][1]benzopyran-7-one", "5,8-Dimethoxypsoralen", "5,8-Dimethoxy-6,7-furanocoumarin", "NSC 217988", "NSC 401288", "Isoimpinellin", "8-Methoxybergapten", "5-Methoxyxanthotoxin", "4,9-Dimethoxy-7H-furo[3,2-g]chromen-7-one"], "SMILES": "O(C)C=1C2=C(C(OC)=C3C1OC=C3)C=CC(=O)O2", "physical_data": {"Molecular Weight": "246.22", "Molecular Formula": "C13H10O5", "Melting Point": "151 \u00b0C"}}