{"cas_no": "482-39-3", "cn_name": "\u963f\u798f\u8c46\u82f7", "en_name": ["Afzelin", "4H-1-Benzopyran-4-one, 3-[(6-deoxy-\u03b1-L-mannopyranosyl)oxy]-5,7-dihydroxy-2-(4-hydroxyphenyl)-", "Afzelin", "3-[(6-Deoxy-\u03b1-L-mannopyranosyl)oxy]-5,7-dihydroxy-2-(4-hydroxyphenyl)-4H-1-benzopyran-4-one", "Kaempferol 3-rhamnoside", "Kaempferol 3-L-rhamnoside", "Afzeloside", "Kaempferol 3-O-rhamnoside", "Kaempferol 3-O-\u03b1-L-rhamnopyranoside", "Kaempferol 3-\u03b1-L-rhamnopyranoside", "Kaempferol 3-O-\u03b1-L-rhamnoside", "Kaempferin", "Kaempherol 3-O-\u03b1-L-rhamnopyranoside", "Kaempferol rhamnoside", "Kaempferol 3-(6-deoxy-L-mannopyranoside)", "Kaempherol 3-O-\u03b1-rhamnoside", "3-O-\u03b1-L-Rhamnopyranosylkaempferol", "Kaempferol 3-O-rhamnopyranoside", "Kaempferol-3-\u03b1-L-rhamnose"], "SMILES": "O(C1=C(OC=2C(C1=O)=C(O)C=C(O)C2)C3=CC=C(O)C=C3)C4C(O)C(O)C(O)C(C)O4", "physical_data": {"Molecular Weight": "432.38", "Molecular Formula": "C21H20O10", "Melting Point": "172-174 \u00b0C (decomp)"}}