{"cas_no": "482-89-3", "cn_name": "\u975b\u84dd", "en_name": ["Indigo Blue", "3H-Indol-3-one, 2-(1,3-dihydro-3-oxo-2H-indol-2-ylidene)-1,2-dihydro-", "[\u03942,2\u2032-Biindoline]-3,3\u2032-dione", "Indigo Pure BASF", "2-(1,3-Dihydro-3-oxo-2H-indol-2-ylidene)-1,2-dihydro-3H-indol-3-one", "11669 Blue", "C.I. 73000", "[\u03942,2\u2032(3H,3\u2032H)-Biindole]-3,3\u2032-dione", "\u03942,2\u2032-Bipseudoindoxyl", "D+C Blue No. 6", "C.I. Vat Blue 1", "Diindogen", "Indigo J", "Indigo N", "Indigo P", "Indigo Ciba", "Indigo Ciba SL", "Indigo NAC", "Indigo NACCO", "Indigo PLN", "Indigo Powder W", "Indigo Pure BASF Powder K", "Indigo Synthetic", "Indigotin", "Indigo VS", "Lithosol Deep Blue B", "Mitsui Indigo Paste", "Mitsui Indigo Pure", "Monolite Fast Navy Blue BV", "Synthetic indigo", "Synthetic Indigo TS", "Vulcafix Blue R", "Vulcafor Blue A", "Vulcanosine Dark Blue L", "Vulcol Fast Blue GL", "Vynamon Blue A", "Vat Blue 1", "Indigo", "Blue No. 201", "Cystoceva", "Indigo Blue", "D and C Blue No. 6", "Indigotin (natural)", "Indigotine", "C.I. Pigment Blue 66", "Pigment Indigo", "Pigment Indigo V", "Pigment Blue 66", "C Blue 22", "Natural blue indigotin", "C.I. Natural Blue 1", "Natural Blue 1", "Mitsui Indigo Pure EXN", "Japan Blue 201", "Vat Dark Blue VB", "D&", "C Blue No. 6", "Reduced Dark Blue VB", "Dystar Indigo Gr", "2,2\u2032-Bis(2,3-dihydro-3-oxoindolylidene)", "Bezema Indigo AXX-FL", "AXX-FL", "2,2\u2032-Biindolylidene-3,3\u2032-dione", "2-(3-Oxo-1H-indol-2-ylidene)-1H-indol-3-one", "AT 01", "Dystar Indigo Gran", "Indigo P.B. 66"], "SMILES": "O=C1C(NC=2C1=CC=CC2)=C3C(=O)C=4C(N3)=CC=CC4", "physical_data": {"Molecular Weight": "262.26", "Molecular Formula": "C16H10N2O2", "Melting Point": "390 \u00b0C (decomp)", "Density": "1.35 g/cm\u00b3"}}