{"cas_no": "482-25-7", "cn_name": "\u767d\u5f53\u5f52\u7d20", "en_name": ["(+)-Byakangelicin", "7H-Furo[3,2-g][1]benzopyran-7-one, 9-[(2R)-2,3-dihydroxy-3-methylbutoxy]-4-methoxy-", "Biacangelicin", "7H-Furo[3,2-g][1]benzopyran-7-one, 9-(2,3-dihydroxy-3-methylbutoxy)-4-methoxy-, (R)-", "9-[(2R)-2,3-Dihydroxy-3-methylbutoxy]-4-methoxy-7H-furo[3,2-g][1]benzopyran-7-one", "Byakangelicin", "Byankagelicine", "5-Methoxy-8-(2,3-dihydroxy-3-methylbutoxy)psoralene", "(+)-Byakangelicin", "Bjakangelicin", "Bjacangelicin"], "SMILES": "O(CC(C(C)(C)O)O)C=1C2=C(C(OC)=C3C1OC=C3)C=CC(=O)O2", "physical_data": {"Molecular Weight": "334.32", "Molecular Formula": "C17H18O7", "Melting Point": "117-118 \u00b0C"}}