{"cas_no": "482-48-4", "cn_name": "\u5f02\u4f5b\u624b\u67d1\u5185\u916f", "en_name": ["Isobergapten", "2H-Furo[2,3-h]-1-benzopyran-2-one, 5-methoxy-", "Isobergapten", "5-Benzofuranacrylic acid, 4-hydroxy-6-methoxy-, \u03b4-lactone", "5-Methoxy-2H-furo[2,3-h]-1-benzopyran-2-one", "Isobergaptene", "5-Methoxyangelicin"], "SMILES": "O(C)C=1C2=C(C3=C(C1)OC=C3)OC(=O)C=C2", "physical_data": {"Molecular Weight": "216.19", "Molecular Formula": "C12H8O4", "Melting Point": "222 \u00b0C"}}