{"cas_no": "482-45-1", "cn_name": "\u5f02\u6b27\u524d\u80e1\u7d20", "en_name": ["Isoimperatorin", "7H-Furo[3,2-g][1]benzopyran-7-one, 4-[(3-methyl-2-buten-1-yl)oxy]-", "Isoimperatorin", "7H-Furo[3,2-g][1]benzopyran-7-one, 4-[(3-methyl-2-butenyl)oxy]-", "4-[(3-Methyl-2-buten-1-yl)oxy]-7H-furo[3,2-g][1]benzopyran-7-one"], "SMILES": "O(CC=C(C)C)C=1C2=C(C=C3C1C=CO3)OC(=O)C=C2", "physical_data": {"Molecular Weight": "270.28", "Molecular Formula": "C16H14O4", "Melting Point": "109 \u00b0C"}}