{"cas_no": "482-91-7", "cn_name": "\u963f\u7acb\u65b0\u9e7c", "en_name": ["(-)-Aricine", "Oxayohimban-16-carboxylic acid, 16,17-didehydro-10-methoxy-19-methyl-, methyl ester, (19\u03b1,20\u03b1)-", "Aricine", "Cinchovatine", "Heterophylline (Rauwolfia)", "Heterophylline", "(-)-Aricine", "Cinchovatin", "Aricin", "Alkaloid D from Cinchonaledgeriana", "10-Methoxytetrahydroalstonine", "4H-Indolo[2,3-a]pyrano[3,4-g]quinolizine-1-carboxylic acid, 4a,5,7,8,13,13b,14,14a-octahydro-10-methoxy-4-methyl-, methyl ester, (4S,4aS,13bS,14aS)-", "NSC 72136"], "SMILES": "C(OC)(=O)C=1C2CC3C4=C(C=5C(N4)=CC=C(OC)C5)CCN3CC2C(C)OC1", "physical_data": {"Molecular Weight": "382.45", "Molecular Formula": "C22H26N2O4", "Melting Point": "189-190 \u00b0C"}}