{"cas_no": "482-53-1", "cn_name": "OSAJIN", "en_name": ["Osajin", "4H,8H-Benzo[1,2-b:3,4-b\u2032]dipyran-4-one, 5-hydroxy-3-(4-hydroxyphenyl)-8,8-dimethyl-6-(3-methyl-2-buten-1-yl)-", "4H,8H-Benzo[1,2-b:3,4-b\u2032]dipyran-4-one, 5-hydroxy-3-(p-hydroxyphenyl)-8,8-dimethyl-6-(3-methyl-2-butenyl)-", "4H,8H-Benzo[1,2-b:3,4-b\u2032]dipyran-4-one, 5-hydroxy-3-(4-hydroxyphenyl)-8,8-dimethyl-6-(3-methyl-2-butenyl)-", "5-Hydroxy-3-(4-hydroxyphenyl)-8,8-dimethyl-6-(3-methyl-2-buten-1-yl)-4H,8H-benzo[1,2-b:3,4-b\u2032]dipyran-4-one", "Osajin", "NSC 21565", "3\u2032-Deoxypomiferin", "5\u2032-O-Demethylscandinone", "CID 95168"], "SMILES": "C(C=C(C)C)C=1C2=C(C3=C(C1O)C(=O)C(=CO3)C4=CC=C(O)C=C4)C=CC(C)(C)O2", "physical_data": {"Molecular Weight": "404.46", "Molecular Formula": "C25H24O5", "Melting Point": "189 \u00b0C"}}