{"cas_no": "482-74-6", "cn_name": "\u9690\u54c1\u78b1", "en_name": ["Cryptopine", "Benzo[g]-1,3-benzodioxolo[4,5-c]azecin-12(5H)-one, 4,6,7,13-tetrahydro-9,10-dimethoxy-5-methyl-", "Cryptopine", "Benzo[e]-1,3-dioxolo[4,5-l][2]benzazecin-12(5H)-one, 4,6,7,13-tetrahydro-9,10-dimethoxy-5-methyl-", "4,6,7,13-Tetrahydro-9,10-dimethoxy-5-methylbenzo[g]-1,3-benzodioxolo[4,5-c]azecin-12(5H)-one", "Kryptopine", "Cryptocavine", "Kryptocavin", "Cryptopin", "NSC 32984"], "SMILES": "CN1CC=2C3=C(C=CC2CC(=O)C=4C(CC1)=CC(OC)=C(OC)C4)OCO3", "physical_data": {"Molecular Weight": "369.41", "Molecular Formula": "C21H23NO5", "Melting Point": "218 \u00b0C"}}