{"cas_no": "482-36-0", "cn_name": "\u91d1\u4e1d\u6843\u82f7", "en_name": ["Hyperoside", "4H-1-Benzopyran-4-one, 2-(3,4-dihydroxyphenyl)-3-(\u03b2-D-galactopyranosyloxy)-5,7-dihydroxy-", "Hyperin", "2-(3,4-Dihydroxyphenyl)-3-(\u03b2-D-galactopyranosyloxy)-5,7-dihydroxy-4H-1-benzopyran-4-one", "Hyperoside", "Hyperosid", "Quercetin 3-galactoside", "Quercetin 3-O-galactoside", "Quercetin 3-O-\u03b2-D-galactopyranoside", "Quercetin 3-O-\u03b2-D-galactoside", "Quercetin 3-\u03b2-D-galactoside", "Quercetin 3-\u03b2-galactoside", "3,3\u2032,4\u2032,5,7-Pentahydroxyflavone 3-O-\u03b2-D-galactopyranoside", "3-O-\u03b2-D-galactopyranosylquercetin", "Quercetin 3-O-\u03b2-galactoside", "3-O-\u03b2-D-Galactopyranosyl quercetin", "Quercetin 3-O-\u03b2-galactopyranoside", "NSC 407304", "Quercetin 3-O-galactopyranoside", "3-D-Galactosylquercetin"], "SMILES": "O(C1=C(OC=2C(C1=O)=C(O)C=C(O)C2)C3=CC(O)=C(O)C=C3)C4OC(CO)C(O)C(O)C4O", "physical_data": {"Molecular Weight": "464.38", "Molecular Formula": "C21H20O12", "Melting Point": "236 \u00b0C"}}