{"cas_no": "482-38-2", "cn_name": "\u5c71\u5948\u82f7", "en_name": ["Kaempferitrin", "4H-1-Benzopyran-4-one, 3,7-bis[(6-deoxy-\u03b1-L-mannopyranosyl)oxy]-5-hydroxy-2-(4-hydroxyphenyl)-", "Kaempferitrin", "3,7-Bis[(6-deoxy-\u03b1-L-mannopyranosyl)oxy]-5-hydroxy-2-(4-hydroxyphenyl)-4H-1-benzopyran-4-one", "3,4\u2032,5,7-Tetrahydroxyflavone 3,7-dirhamnoside", "Kaempferol 3,7-dirhamnoside", "Kaempferol 3,7-di-\u03b1-L-rhamnoside", "Lespedin", "Kaempferol 3,7-bisrhamnoside", "Kaempferol 3,7-di-O-rhamnoside", "Lespenephryl", "Kaempferol 3,7-di-O-\u03b1-L-rhamnopyranoside", "Kaempferol 3-O-\u03b1-L-rhamnopyranoside 7-O-\u03b1-L-rhamnopyranoside", "Kaempferol 3-O-rhamnoside 7-O-rhamnoside", "Kaempferol 3,7-di-\u03b1-L-rhamnopyranoside", "Kaempferol 3,7-O-\u03b1-L-dirhamnoside", "Kaempferol 3,7-di-O-rhamnopyranoside", "Kaempferol-3,7-O-dirhamnose", "Grosvenorine II", "Kaempferol-3,7-O-bis-\u03b1-L-rhamnopyranoside", "Kaempferitin"], "SMILES": "O(C1=C(OC=2C(C1=O)=C(O)C=C(OC3C(O)C(O)C(O)C(C)O3)C2)C4=CC=C(O)C=C4)C5C(O)C(O)C(O)C(C)O5", "physical_data": {"Molecular Weight": "578.52", "Molecular Formula": "C27H30O14", "Melting Point": "190-195 \u00b0C"}}