{"cas_no": "482-15-5", "cn_name": "\u6c2e\u5f02\u4e19\u55ea", "en_name": ["Isothipendyl", "10H-Pyrido[3,2-b][1,4]benzothiazine-10-ethanamine, N,N,\u03b1-trimethyl-", "10H-Pyrido[3,2-b][1,4]benzothiazine, 10-[2-(dimethylamino)propyl]-", "N,N,\u03b1-Trimethyl-10H-pyrido[3,2-b][1,4]benzothiazine-10-ethanamine", "D 201", "AY 56012", "Dimethylaminoisopropylazaphenothiazine", "10-[2-(Dimethylamino)propyl]-10H-pyrido[3,2-b][1,4]benzothiazine", "10-(2-Dimethylaminopropyl)-9-thia-1,10-diazaanthracene", "10-(2-Dimethylaminopropyl)thiophenylpyridylamine", "Isothipendyl", "10-(2-Dimethylamino-2-methylethyl)-10H-pyrido[3,2-b][1,4]benzothiazine", "10-(2-Dimethylaminopropyl)-1-azaphenothiazine", "N-Dimethylaminoisopropylthiophenylpyridylamine", "Udantol", "Odantol", "(\u00b1)-Isothipendyl"], "SMILES": "C(C(N(C)C)C)N1C=2C(SC=3C1=NC=CC3)=CC=CC2", "physical_data": {"Molecular Weight": "285.41", "Molecular Formula": "C16H19N3S", "Boiling Point": "172.5 \u00b0C"}}