{"cas_no": "482-35-9", "cn_name": "\u5f02\u61c8\u76ae\u82f7", "en_name": ["Quercetin 3-glucoside", "4H-1-Benzopyran-4-one, 2-(3,4-dihydroxyphenyl)-3-(\u03b2-D-glucopyranosyloxy)-5,7-dihydroxy-", "Hirsutrin", "2-(3,4-Dihydroxyphenyl)-3-(\u03b2-D-glucopyranosyloxy)-5,7-dihydroxy-4H-1-benzopyran-4-one", "Quercetin 3-monoglucoside", "Quercetin 3-mono-D-glucoside", "Quercetin 3-\u03b2-D-glucoside", "Glucosyl-3-quercetin", "Quercetin 3-D-glucoside", "Quercetin 3-O-\u03b2-D-glucopyranoside", "Quercetin 3-\u03b2-D-glucopyranoside", "3\u2032,4\u2032,5,7-Tetrahydroxyflavone-3-\u03b2-D-glucopyranoside", "3-Glucosylquercetin", "Quercetin 3\u03b2-glucoside", "Quercetin 3\u03b2-O-glucoside", "Quercetol 3-monoglucoside", "Quercetol 3-glucoside", "Q 5", "Quercetin 3-O-\u03b2-D-glucoside", "Quercetin 3-glucoside", "Isoquercetin", "Quercetin 3-O-glucopyranoside", "Quercetin 3-O-\u03b2-glucoside", "3-O-\u03b2-D-Glucopyranosylquercetin", "Contigoside B", "Quercetin glucoside", "NSC 115918", "Quercetin-3-\u03b2-glucopyranoside", "Isoquercetrin", "Quercetin-3-glucose", "Isoquercitrin", "Isoquercitroside", "Sanmelin Powder C 10", "Quercetin 3-O-glucoside", "3-\u03b2-D-Glucosylquercetin", "Sanmelin C 10"], "SMILES": "O(C1=C(OC=2C(C1=O)=C(O)C=C(O)C2)C3=CC(O)=C(O)C=C3)C4OC(CO)C(O)C(O)C4O", "physical_data": {"Molecular Weight": "464.38", "Molecular Formula": "C21H20O12", "Melting Point": "230 \u00b0C"}}