{"cas_no": "482-01-9", "cn_name": "HOMOFERREIRIN", "en_name": ["(\u00b1)-Homoferreirin", "4H-1-Benzopyran-4-one, 3-(2,4-dimethoxyphenyl)-2,3-dihydro-5,7-dihydroxy-", "Isoflavanone, 5,7-dihydroxy-2\u2032,4\u2032-dimethoxy-", "3-(2,4-Dimethoxyphenyl)-2,3-dihydro-5,7-dihydroxy-4H-1-benzopyran-4-one", "Homoferreirin", "(\u00b1)-Homoferreirin", "5,7-Dihydroxy-2\u2032,4\u2032-dimethoxyisoflavonone"], "SMILES": "O=C1C(COC=2C1=C(O)C=C(O)C2)C3=C(OC)C=C(OC)C=C3", "physical_data": {"Molecular Weight": "316.31", "Molecular Formula": "C17H16O6", "Melting Point": "165.5-168.0 \u00b0C"}}