{"cas_no": "482-44-0", "cn_name": "\u6b27\u524d\u80e1\u7d20", "en_name": ["Imperatorin", "7H-Furo[3,2-g][1]benzopyran-7-one, 9-[(3-methyl-2-buten-1-yl)oxy]-", "Imperatorin", "7H-Furo[3,2-g][1]benzopyran-7-one, 9-[(3-methyl-2-butenyl)oxy]-", "9-[(3-Methyl-2-buten-1-yl)oxy]-7H-furo[3,2-g][1]benzopyran-7-one", "Ammidin", "Marmelosin", "8-Isopentenyloxypsoralene", "8-Isopent-2-enyloxy-6,7-furanocoumarin", "Marmelide", "NSC 402949"], "SMILES": "O(CC=C(C)C)C=1C2=C(C=C3C1OC=C3)C=CC(=O)O2", "physical_data": {"Molecular Weight": "270.28", "Molecular Formula": "C16H14O4", "Melting Point": "102 \u00b0C"}}