{"cas_no": "4822-44-0", "cn_name": "\u786b\u4ee3\u7f9f\u57fa\u4e59\u9178\u82ef\u80fa", "en_name": ["2-Mercapto-N-phenylacetamide", "Acetamide, 2-mercapto-N-phenyl-", "Acetanilide, 2-mercapto-", "2-Mercapto-N-phenylacetamide", "Thioglycolic acid anilide", "2-Mercaptoacetanilide", "\u03b1-Mercaptoacetanilide", "N-Phenyl-2-mercaptoacetamide", "Thioglycolanilide", "N-Phenylmercaptoacetamide", "NSC 2126"], "SMILES": "N(C(CS)=O)C1=CC=CC=C1", "physical_data": {"Molecular Weight": "167.23", "Molecular Formula": "C8H9NOS", "Melting Point": "156-160 \u00b0C"}}