{"cas_no": "482311-23-9", "cn_name": "3-\u7532\u57fa-5-\u785d\u57fa\u82ef\u7532\u9178\u7532\u916f", "en_name": ["Methyl 3-methyl-5-nitrobenzoate", "Benzoic acid, 3-methyl-5-nitro-, methyl ester", "Methyl 3-methyl-5-nitrobenzoate"], "SMILES": "C(OC)(=O)C1=CC(N(=O)=O)=CC(C)=C1", "physical_data": {"Molecular Weight": "195.17", "Molecular Formula": "C9H9NO4", "Melting Point": "84-85 \u00b0C"}}