{"cas_no": "4823-47-6", "cn_name": "2-\u6eb4\u4e59\u57fa\u4e19\u70ef\u9178\u916f", "en_name": ["2-Bromoethyl acrylate", "2-Propenoic acid, 2-bromoethyl ester", "Acrylic acid, 2-bromoethyl ester", "Ethanol, 2-bromo-, acrylate", "2-Bromoethyl acrylate", "NSC 18591", "2-Bromoethyl prop-2-enoate"], "SMILES": "C(OCCBr)(C=C)=O", "physical_data": {"Molecular Weight": "179.01", "Molecular Formula": "C5H7BrO2", "Boiling Point": "53 \u00b0C @ Press: 5.0 Torr", "Melting Point": "41-43 \u00b0C", "Density": "1.4774 g/cm\u00b3 @ Temp: 20 \u00b0C"}}