{"cas_no": "4824-78-6", "cn_name": "\u4e59\u57fa\u6eb4\u786b\u78f7", "en_name": ["Bromophos-ethyl", "Phosphorothioic acid, O-(4-bromo-2,5-dichlorophenyl) O,O-diethyl ester", "O-(4-Bromo-2,5-dichlorophenyl) O,O-diethyl phosphorothioate", "Bromophos-ethyl", "Ethyl bromophos", "OMS 659", "O,O-Diethyl O-(2,5-dichloro-4-bromophenyl) thiophosphate", "Nexagan G", "Filariol 60", "Filariol", "Nexagan", "Bromophos A"], "SMILES": "P(OC1=C(Cl)C=C(Br)C(Cl)=C1)(OCC)(OCC)=S", "physical_data": {"Molecular Weight": "394.05", "Molecular Formula": "C10H12BrCl2O3PS", "Boiling Point": "122-133 \u00b0C @ Press: 1 x 10<sup>-3</sup> Torr", "Density": "1.52-1.55 g/cm\u00b3 @ Temp: 20 \u00b0C"}}