{"cas_no": "4825-86-9", "cn_name": "\u8d6d\u66f2\u9709\u7d20", "en_name": ["Ochratoxin B", "L-Phenylalanine, N-[[(3R)-3,4-dihydro-8-hydroxy-3-methyl-1-oxo-1H-2-benzopyran-7-yl]carbonyl]-", "Ochratoxin B", "L-Phenylalanine, N-[(3,4-dihydro-8-hydroxy-3-methyl-1-oxo-1H-2-benzopyran-7-yl)carbonyl]-, (R)-", "Alanine, N-[(8-hydroxy-3-methyl-1-oxo-7-isochromanyl)carbonyl]-3-phenyl-, L-", "N-[[(3R)-3,4-Dihydro-8-hydroxy-3-methyl-1-oxo-1H-2-benzopyran-7-yl]carbonyl]-L-phenylalanine"], "SMILES": "OC1=C2C(=CC=C1C(NC(CC3=CC=CC=C3)C(O)=O)=O)CC(C)OC2=O", "physical_data": {"Molecular Weight": "369.37", "Molecular Formula": "C20H19NO6", "Melting Point": "221 \u00b0C"}}