{"cas_no": "482577-59-3", "cn_name": "N-[(2'-\u6c30\u57fa\u8054\u82ef-4-\u57fa)\u7532\u57fa]-L-\u7f2c\u6c28\u9178\u7532\u916f\u76d0\u9178\u76d0", "en_name": ["N-[(2\u2032-Cyano[1,1\u2032-biphenyl]-4-yl)methyl]-L-valine methyl ester hydrochloride (1:1)", "L-Valine, N-[(2\u2032-cyano[1,1\u2032-biphenyl]-4-yl)methyl]-, methyl ester, hydrochloride (1:1)", "L-Valine, N-[(2\u2032-cyano[1,1\u2032-biphenyl]-4-yl)methyl]-, methyl ester, monohydrochloride", "N-[(2\u2032-Cyano[1,1\u2032-biphenyl]-4-yl)methyl]-L-valine methyl ester hydrochloride (1:1)", "(S)-Methyl 2-(((2\u2032-cyano-[1,1\u2032-biphenyl]-4-yl)methyl)amino)-3-methylbutanoate hydrochloride", "N-[2\u2032-Cyanobiphenyl-4-yl-methyl](L)-valine methyl ester hydrochloride"], "SMILES": "C(#N)C1=C(C=CC=C1)C2=CC=C(CNC(C(OC)=O)C(C)C)C=C2.Cl", "physical_data": {"Molecular Weight": "", "Molecular Formula": "C20H22N2O2.ClH", "Melting Point": "186 \u00b0C"}}