{"cas_no": "4828-27-7", "cn_name": "\u6c2f\u53ef\u6258\u9f99", "en_name": ["Clocortolone", "Pregna-1,4-diene-3,20-dione, 9-chloro-6-fluoro-11,21-dihydroxy-16-methyl-, (6\u03b1,11\u03b2,16\u03b1)-", "Pregna-1,4-diene-3,20-dione, 9-chloro-6\u03b1-fluoro-11\u03b2,21-dihydroxy-16\u03b1-methyl-", "(6\u03b1,11\u03b2,16\u03b1)-9-Chloro-6-fluoro-11,21-dihydroxy-16-methylpregna-1,4-diene-3,20-dione", "9-Chloro-6\u03b1-fluoro-11\u03b2,21-dihydroxy-17\u03b1-methylpregna-1,4-diene-3,20-dione", "Clocortolone", "9-Chloro-6\u03b1-fluoro-11\u03b2,21-dihydroxy-16\u03b1-methylpregna-1,4-diene-3,20-dione", "9-Chloro-6\u03b1-fluoro-16\u03b1-methyl-1,4-pregnadiene-11\u03b2,21-diol-3,20-dione", "Clorcortelone"], "SMILES": "ClC12C(C3C(C)(CC1O)C(C(CO)=O)C(C)C3)CC(F)C=4C2(C)C=CC(=O)C4", "physical_data": {"Molecular Weight": "410.91", "Molecular Formula": "C22H28ClFO4", "Melting Point": "254 \u00b0C (decomp)"}}