{"cas_no": "4829-04-3", "cn_name": "1,3-\u4e8c\u786b\u4ee3\u574a", "en_name": ["1,3-Dithiolane", "1,3-Dithiolane", "1,3-Dithiacyclopentane", "Dithiolane", "NSC 193357"], "SMILES": "C1CSCS1", "physical_data": {"Molecular Weight": "106.21", "Molecular Formula": "C3H6S2", "Boiling Point": "175 \u00b0C", "Melting Point": "-50 \u00b0C", "Density": "1.259 g/cm\u00b3 @ Temp: 17 \u00b0C"}}