{"cas_no": "483-10-3", "cn_name": "\u67ef\u6960\u8d28", "en_name": ["Corynanthine", "Yohimban-16-carboxylic acid, 17-hydroxy-, methyl ester, (16\u03b2,17\u03b1)-", "Yohimban-16\u03b2-carboxylic acid, 17\u03b1-hydroxy-, methyl ester", "Corynanthine", "Benz[g]indolo[2,3-a]quinolizine, yohimban-16-carboxylic acid deriv.", "Rauhimbine", "Rauhimbin", "Corynanthin", "NSC 407306"], "SMILES": "C(OC)(=O)C1C2CC3C4=C(C=5C(N4)=CC=CC5)CCN3CC2CCC1O", "physical_data": {"Molecular Weight": "354.44", "Molecular Formula": "C21H26N2O3", "Melting Point": "231 \u00b0C"}}