{"cas_no": "483-65-8", "cn_name": "\u60f9\u70ef", "en_name": ["Retene", "Phenanthrene, 1-methyl-7-(1-methylethyl)-", "Retene", "Phenanthrene, 7-isopropyl-1-methyl-", "1-Methyl-7-(1-methylethyl)phenanthrene", "7-Isopropyl-1-methylphenanthrene", "1-Methyl-7-isopropylphenanthrene", "NSC 26317", "1-Methyl-7-propan-2-ylphenanthrene"], "SMILES": "CC=1C=2C(=C3C(C=C(C(C)C)C=C3)=CC2)C=CC1", "physical_data": {"Molecular Weight": "234.34", "Molecular Formula": "C18H18", "Boiling Point": "390 \u00b0C", "Melting Point": "101 \u00b0C", "Density": "1.1252 g/cm\u00b3 @ Temp: 20 \u00b0C"}}