{"cas_no": "483-63-6", "cn_name": "\u514b\u7f57\u7c73\u901a", "en_name": ["Crotamiton", "2-Butenamide, N-ethyl-N-(2-methylphenyl)-", "o-Crotonotoluidide, N-ethyl-", "N-Ethyl-N-(2-methylphenyl)-2-butenamide", "Crotamiton", "N-Ethyl-o-crotonotoluidide", "Eurax", "Euraxil", "N-Crotonyl-N-ethyl-o-toluidine", "Veteusan", "Crotalgin", "Crotonyl N-ethyl-o-toluidine", "Crotamitone", "Crotamitex"], "SMILES": "N(C(C=CC)=O)(CC)C1=C(C)C=CC=C1", "physical_data": {"Molecular Weight": "203.28", "Molecular Formula": "C13H17NO", "Boiling Point": "154 \u00b0C", "Melting Point": "&lt;25 \u00b0C"}}