{"cas_no": "483-84-1", "cn_name": "\u9ec4\u80fa\u9178", "en_name": ["Flavianic acid", "2-Naphthalenesulfonic acid, 8-hydroxy-5,7-dinitro-", "Flavianic acid", "8-Hydroxy-5,7-dinitro-2-naphthalenesulfonic acid", "2,4-Dinitro-1-naphthol-7-sulfonic acid", "DNNS", "NSC 243753", "NSC 244041"], "SMILES": "N(=O)(=O)C=1C2=C(C(O)=C(N(=O)=O)C1)C=C(S(=O)(=O)O)C=C2", "physical_data": {"Molecular Weight": "314.23", "Molecular Formula": "C10H6N2O8S", "Melting Point": "150 \u00b0C"}}