{"cas_no": "483-18-1", "cn_name": "\u4f9d\u7c73\u4e01", "en_name": ["(-)-Emetine", "2H-Benzo[a]quinolizine, 3-ethyl-1,3,4,6,7,11b-hexahydro-9,10-dimethoxy-2-[[(1R)-1,2,3,4-tetrahydro-6,7-dimethoxy-1-isoquinolinyl]methyl]-, (2S,3R,11bS)-", "Emetine", "Emetan, 6\u2032,7\u2032,10,11-tetramethoxy-", "(2S,3R,11bS)-3-Ethyl-1,3,4,6,7,11b-hexahydro-9,10-dimethoxy-2-[[(1R)-1,2,3,4-tetrahydro-6,7-dimethoxy-1-isoquinolinyl]methyl]-2H-benzo[a]quinolizine", "(-)-Emetine", "NSC 33669", "Emetin", "Cephaeline methyl ether", "MeSH ID: D004640"], "SMILES": "C(C1CC2C=3C(=CC(OC)=C(OC)C3)CCN2CC1CC)C4C=5C(=CC(OC)=C(OC)C5)CCN4", "physical_data": {"Molecular Weight": "480.64", "Molecular Formula": "C29H40N2O4", "Melting Point": "74 \u00b0C"}}