{"cas_no": "483-66-9", "cn_name": "SPHONDIN", "en_name": ["Sphondin", "2H-Furo[2,3-h]-1-benzopyran-2-one, 6-methoxy-", "Sphondin", "5-Benzofuranacrylic acid, 4-hydroxy-7-methoxy-, \u03b4-lactone", "6-Methoxy-2H-furo[2,3-h]-1-benzopyran-2-one", "Sfondin", "6-Methoxyangelicin", "6-Methoxy-7,8-furanocoumarin"], "SMILES": "O(C)C=1C2=C(C3=C(C1)C=CC(=O)O3)C=CO2", "physical_data": {"Molecular Weight": "216.19", "Molecular Formula": "C12H8O4", "Melting Point": "189-191 \u00b0C"}}