{"cas_no": "483-17-0", "cn_name": "\u5410\u6839\u9e7c", "en_name": ["(-)-Cephaeline", "6-Isoquinolinol, 1-[[(2S,3R,11bS)-3-ethyl-1,3,4,6,7,11b-hexahydro-9,10-dimethoxy-2H-benzo[a]quinolizin-2-yl]methyl]-1,2,3,4-tetrahydro-7-methoxy-, (1R)-", "Cephaeline", "Emetan-6\u2032-ol, 7\u2032,10,11-trimethoxy-", "(1R)-1-[[(2S,3R,11bS)-3-Ethyl-1,3,4,6,7,11b-hexahydro-9,10-dimethoxy-2H-benzo[a]quinolizin-2-yl]methyl]-1,2,3,4-tetrahydro-7-methoxy-6-isoquinolinol", "Desmethylemetine", "(-)-Cephaeline", "7\u2032,10,11-Trimethoxyemetan-6\u2032-ol", "Dihydropsychotrine", "Cepheline"], "SMILES": "C(C1CC2C=3C(=CC(OC)=C(OC)C3)CCN2CC1CC)C4C=5C(=CC(O)=C(OC)C5)CCN4", "physical_data": {"Molecular Weight": "466.61", "Molecular Formula": "C28H38N2O4", "Melting Point": "115.5 \u00b0C"}}