{"cas_no": "483-14-7", "cn_name": "\u7f57\u901a\u5b9a CP2000", "en_name": ["(-)-Tetrahydropalmatine", "6H-Dibenzo[a,g]quinolizine, 5,8,13,13a-tetrahydro-2,3,9,10-tetramethoxy-, (13aS)-", "13a\u03b1-Berbine, 2,3,9,10-tetramethoxy-", "Gindarine", "6H-Dibenzo[a,g]quinolizine, 5,8,13,13a-tetrahydro-2,3,9,10-tetramethoxy-, (S)-", "Cyclanoline, O,O-dimethyl-N-demethyl-", "(13aS)-5,8,13,13a-Tetrahydro-2,3,9,10-tetramethoxy-6H-dibenzo[a,g]quinolizine", "Caseanine", "(-)-Tetrahydropalmatine", "Hyndarine", "Palmatine, tetrahydro-, (-)-", "Rotundine", "(-)-S-Tetrahydropalmatine", "Rotundine (Stephania), (-)-", "(-)-2,3,9,10-Tetramethoxyberbine", "(-)-Rotundine", "(S)-Tetrahydropalmatine", "l-Tetrahydropalmatine", "(-)-Corydalis B", "N-Demethyl-O,O\u2032-dimethylcyclanoline", "N-Demethyl-O,O\u2032-dimethylsteponine", "(13AS)-2,3,9,10-tetramethoxy-6,8,13,13a-tetrahydro-5H-isoquinolino[2,1-b]isoquinoline"], "SMILES": "O(C)C=1C=C2C3N(CC=4C(C3)=CC=C(OC)C4OC)CCC2=CC1OC", "physical_data": {"Molecular Weight": "355.43", "Molecular Formula": "C21H25NO4", "Melting Point": "142 \u00b0C"}}