{"cas_no": "483-04-5", "cn_name": "\u841d\u5df4\u65b0", "en_name": ["Ajmalicine", "Oxayohimban-16-carboxylic acid, 16,17-didehydro-19-methyl-, methyl ester, (19\u03b1)-", "Raubasine", "Ajmalicine", "4H-Indolo[2,3-a]pyrano[3,4-g]quinolizine, oxayohimban-16-carboxylic acid deriv.", "Hydrosarpan", "Py-tetrahydroserpentine", "\u03b4-Yohimbine", "Lamuran", "Tetrahydroserpentine", "Ajmalicin", "Raubasin", "Vincain", "Vincein", "Vinceine", "Raumalina", "Rauvasan", "Sarpan", "Tensyl", "Ranitol", "Raubaserp", "Raubasil", "(-)-Ajmalicine", "Vincaine", "4H-Indolo[2,3-a]pyrano[3,4-g]quinolizine-1-carboxylic acid, 4a,5,7,8,13,13b,14,14a-octahydro-4-methyl-, methyl ester, (4S,4aR,13bS,14aS)-", "Circolene", "Isoarteril", "NSC 72133", "NSC 95087"], "SMILES": "C(OC)(=O)C=1C2CC3C4=C(C=5C(N4)=CC=CC5)CCN3CC2C(C)OC1", "physical_data": {"Molecular Weight": "352.43", "Molecular Formula": "C21H24N2O3", "Melting Point": "258 \u00b0C (decomp)"}}