{"cas_no": "483-34-1", "cn_name": "(-)-\u5f02\u5ef6\u80e1\u7d22\u5355\u915a\u78b1", "en_name": ["(-)-Tetrahydrocolumbamine", "6H-Dibenzo[a,g]quinolizin-2-ol, 5,8,13,13a-tetrahydro-3,9,10-trimethoxy-, (13aS)-", "13a\u03b1-Berbin-2-ol, 3,9,10-trimethoxy-", "6H-Dibenzo[a,g]quinolizin-2-ol, 5,8,13,13a-tetrahydro-3,9,10-trimethoxy-, (S)-", "Isocorypalmine", "Columbamine, tetrahydro-", "(13aS)-5,8,13,13a-Tetrahydro-3,9,10-trimethoxy-6H-dibenzo[a,g]quinolizin-2-ol", "Isocorypalmine, (-)-", "(-)-Isocorypalmine", "Columbamine, tetrahydro-, (-)-", "l-Isocorypalmine", "(-)-Tetrahydrocolumbamine", "l-Tetrahydrocolumbamine", "Alkaloid L, from Corydalis", "O10-Methylstepholidine", "Corydalis L", "Tetrahydrocolumbamine", "(S)-Tetrahydrocolumbamine", "2-O-Desmethyl-L-THP", "(13AS)-3,9,10-trimethoxy-6,8,13,13a-tetrahydro-5H-isoquinolino[2,1-b]isoquinolin-2-ol"], "SMILES": "OC=1C=C2C3N(CC=4C(C3)=CC=C(OC)C4OC)CCC2=CC1OC", "physical_data": {"Molecular Weight": "341.40", "Molecular Formula": "C20H23NO4", "Melting Point": "223-224 \u00b0C"}}