{"cas_no": "483-55-6", "cn_name": "2-\u7f9f\u57fa-3-\u7532\u57fa-1,4-\u8418\u918c", "en_name": ["Phthiocol", "1,4-Naphthalenedione, 2-hydroxy-3-methyl-", "1,4-Naphthoquinone, 2-hydroxy-3-methyl-", "Phthiocol", "2-Hydroxy-3-methyl-1,4-naphthalenedione", "2-Hydroxy-3-methyl-1,4-naphthoquinone", "2-Methyl-3-hydroxy-1,4-naphthoquinone", "3-Hydroxy-2-methyl-1,4-naphthoquinone", "Phthiokol", "2-Hydroxy-3-methylnaphthoquinone", "Q 121", "3-Methyl-2-hydroxy-1,4-naphthoquinone", "NSC 11897", "3-Hydroxy-2-methyl-1,4-naphthaquinone", "3-Methyl-2-hydroxy-1,4-naphthalenedione", "2-Hydroxy-3-methyl-1,4-dihydronaphthalene-1,4-dione"], "SMILES": "O=C1C=2C(C(=O)C(O)=C1C)=CC=CC2", "physical_data": {"Molecular Weight": "188.18", "Molecular Formula": "C11H8O3", "Melting Point": "173.5 \u00b0C"}}