{"cas_no": "483-15-8", "cn_name": "\u4e8c\u6c22\u5c0f\u6a97\u78b1", "en_name": ["Dihydroberberine", "6H-Benzo[g]-1,3-benzodioxolo[5,6-a]quinolizine, 5,8-dihydro-9,10-dimethoxy-", "Berbine, 13,13a-didehydro-9,10-dimethoxy-2,3-(methylenedioxy)-", "Berberine, dihydro-", "5,8-Dihydro-9,10-dimethoxy-6H-benzo[g]-1,3-benzodioxolo[5,6-a]quinolizine", "Dihydroberberine", "7,8-Dihydroberberine", "Dihydroumbellatine", "NSC 331264"], "SMILES": "O(C)C1=C2CN3C(C=4C(=CC5=C(C4)OCO5)CC3)=CC2=CC=C1OC", "physical_data": {"Molecular Weight": "337.37", "Molecular Formula": "C20H19NO4", "Melting Point": "223-224 \u00b0C (decomp)"}}