{"cas_no": "4830-93-7", "cn_name": "1-\u6c2f-4-\u82ef\u57fa\u4e01\u70f7", "en_name": ["1-Chloro-4-phenylbutane", "Benzene, (4-chlorobutyl)-", "(4-Chlorobutyl)benzene", "4-Phenylbutyl chloride", "4-Phenyl-1-chlorobutane", "\u03b4-Chlorobutylbenzene", "1-Chloro-4-phenylbutane", "1-(4-Chlorobutyl)benzene"], "SMILES": "C(CCCCl)C1=CC=CC=C1", "physical_data": {"Molecular Weight": "168.66", "Molecular Formula": "C10H13Cl", "Boiling Point": "122-123 \u00b0C @ Press: 17 Torr", "Melting Point": "53 \u00b0C", "Density": "1.0764 g/cm\u00b3 @ Temp: 20 \u00b0C"}}