{"cas_no": "4835-90-9", "cn_name": "2,2-\u4e8c\u7532\u57fa-3-\u7f9f\u57fa\u4e19\u9178", "en_name": ["Hydroxypivalic acid", "Propanoic acid, 3-hydroxy-2,2-dimethyl-", "Hydracrylic acid, 2,2-dimethyl-", "3-Hydroxy-2,2-dimethylpropanoic acid", "\u03b1,\u03b1-Dimethyl-\u03b2-hydroxypropionic acid", "Hydroxypivalic acid", "Oxypivalic acid", "2,2-Dimethylhydracrylic acid", "3-Hydroxy-2,2-dimethylpropionic acid", "2,2-Dimethyl-3-hydroxypropanoic acid", "2,2-Dimethyl-3-hydroxypropionic acid", "NSC 115936"], "SMILES": "C(C(O)=O)(CO)(C)C", "physical_data": {"Molecular Weight": "118.13", "Molecular Formula": "C5H10O3", "Boiling Point": "113-119 \u00b0C @ Press: 5 Torr", "Melting Point": "124-125 \u00b0C"}}