{"cas_no": "4835-39-6", "cn_name": "\u4e59\u9170\u4e59\u9170\u5bf9\u785d\u57fa\u82ef\u80fa", "en_name": ["N-(4-Nitrophenyl)-3-oxobutanamide", "Butanamide, N-(4-nitrophenyl)-3-oxo-", "Acetoacetanilide, 4\u2032-nitro-", "N-(4-Nitrophenyl)-3-oxobutanamide", "4\u2032-Nitroacetoacetanilide", "N-(4-Nitrophenyl)acetoacetamide", "p-Nitroacetoacetanilide", "NSC 25193"], "SMILES": "N(C(CC(C)=O)=O)C1=CC=C(N(=O)=O)C=C1", "physical_data": {"Molecular Weight": "222.20", "Molecular Formula": "C10H10N2O4", "Melting Point": "122-123 \u00b0C"}}