{"cas_no": "4836-13-9", "cn_name": "N-\u82ef\u7532\u9170-2'-\u8131\u6c27\u80de\u82f7", "en_name": ["N4-Benzoyl-2\u2032-deoxycytidine", "Cytidine, N-benzoyl-2\u2032-deoxy-", "Benzamide, N-[1-(2-deoxy-\u03b2-D-erythro-pentofuranosyl)-1,2-dihydro-2-oxo-4-pyrimidinyl]-", "N-Benzoyl-2\u2032-deoxycytidine", "N4-Benzoyl-2\u2032-deoxycytidine", "N4-Benzoyldeoxycytidine", "4-N-Benzoyldeoxycytidine", "N-Benzoyldeoxycytidine"], "SMILES": "O=C1N(C2OC(CO)C(O)C2)C=CC(NC(=O)C3=CC=CC=C3)=N1", "physical_data": {"Molecular Weight": "331.32", "Molecular Formula": "C16H17N3O5", "Melting Point": "230 \u00b0C (decomp)"}}