{"cas_no": "4837-20-1", "cn_name": "4-(\u4e8c\u6c1f\u7532\u6c27\u57fa)\u82ef\u7532\u9178", "en_name": ["4-(Difluoromethoxy)benzoic acid", "Benzoic acid, 4-(difluoromethoxy)-", "p-Anisic acid, \u03b1,\u03b1-difluoro-", "4-(Difluoromethoxy)benzoic acid", "4-Difluoromethoxybenzoic acid", "\u03b1,\u03b1-Difluoro-p-anisic acid", "p-(Difluoromethoxy)benzoic acid"], "SMILES": "O(C(F)F)C1=CC=C(C(O)=O)C=C1", "physical_data": {"Molecular Weight": "188.13", "Molecular Formula": "C8H6F2O3", "Melting Point": "170-171 \u00b0C"}}