{"cas_no": "4837-88-1", "cn_name": "2-\u7532\u57fa-3-\u785d\u57fa\u82ef\u7532\u919a", "en_name": ["1-Methoxy-2-methyl-3-nitrobenzene", "Benzene, 1-methoxy-2-methyl-3-nitro-", "Anisole, 2-methyl-3-nitro-", "1-Methoxy-2-methyl-3-nitrobenzene", "2-Methoxy-6-nitrotoluene", "2-Methyl-3-nitroanisole", "6-Methoxy-2-nitrotoluene", "3-Methoxy-2-methyl-1-nitrobenzene", "3-Methoxy-2-methylnitrobenzene", "3-Methoxyl-2-methyl-1-nitrobenzene"], "SMILES": "N(=O)(=O)C1=C(C)C(OC)=CC=C1", "physical_data": {"Molecular Weight": "167.16", "Molecular Formula": "C8H9NO3", "Melting Point": "54-56 \u00b0C"}}