{"cas_no": "4837-01-8", "cn_name": "\u82ef\u57fa\u6eb4\u4ee3\u4e59\u57fa\u786b\u919a", "en_name": ["[(2-Bromoethyl)thio]benzene", "Benzene, [(2-bromoethyl)thio]-", "Sulfide, 2-bromoethyl phenyl", "[(2-Bromoethyl)thio]benzene", "1-Bromo-2-(phenylthio)ethane", "\u03b2-Bromoethyl phenyl sulfide", "2-Bromoethyl phenyl sulfide", "Phenylthioethyl bromide", "2-(Phenylthio)ethyl bromide", "2-Bromoethyl phenyl thioether", "2-Phenylthio-1-bromoethane", "1-Phenylthio-2-bromoethane", "[(2-Bromoethyl)sulfanyl]benzene", "2-(Phenylsulfanyl)ethyl bromide", "2-[4-(Phenylthio)phenoxy]ethyl bromide"], "SMILES": "S(CCBr)C1=CC=CC=C1", "physical_data": {"Molecular Weight": "217.13", "Molecular Formula": "C8H9BrS", "Boiling Point": "135 \u00b0C @ Press: 11 Torr"}}