{"cas_no": "4838-65-7", "cn_name": "N-\u5df1\u57fa-2-\u5421\u54af\u70f7\u916e", "en_name": ["1-Hexyl-2-pyrrolidone", "2-Pyrrolidinone, 1-hexyl-", "1-Hexyl-2-pyrrolidinone", "N-Hexyl-2-pyrrolidinone", "1-n-Hexylazacyclopentan-2-one", "1-Hexyl-2-pyrrolidone", "N-Hexyl-2-pyrrolidone", "N-Hexylbutyrolactam"], "SMILES": "C(CCCCC)N1C(=O)CCC1", "physical_data": {"Molecular Weight": "169.26", "Molecular Formula": "C10H19NO", "Boiling Point": "87-88 \u00b0C @ Press: 0.8 Torr", "Melting Point": "4 \u00b0C", "Density": "0.9311 g/cm\u00b3 @ Temp: 20 \u00b0C"}}