{"cas_no": "4839-46-7", "cn_name": "3,3-\u4e8c\u7532\u57fa\u620a\u4e8c\u9178", "en_name": ["3,3-Dimethylglutaric acid", "Pentanedioic acid, 3,3-dimethyl-", "Glutaric acid, 3,3-dimethyl-", "Glutaric acid, \u03b2,\u03b2-dimethyl-", "3,3-Dimethylpentanedioic acid", "3,3-Dimethylglutaric acid", "\u03b2,\u03b2-Dimethylglutaric acid", "NSC 14987", "NSC 49114"], "SMILES": "C(C(CC(O)=O)(C)C)C(O)=O", "physical_data": {"Molecular Weight": "160.17", "Molecular Formula": "C7H12O4", "Boiling Point": "114-115 \u00b0C @ Press: 1 Torr", "Melting Point": "103.5 \u00b0C"}}