{"cas_no": "4839-60-5", "cn_name": "\u5927\u9ec4\u915a-1-\u8461\u8404\u7cd6\u82f7", "en_name": ["Chrysophanein", "9,10-Anthracenedione, 1-(\u03b2-D-glucopyranosyloxy)-8-hydroxy-3-methyl-", "Chrysophanein", "Glucopyranoside, 8-hydroxy-3-methyl-1-anthraquinonyl, \u03b2-D-", "1-(\u03b2-D-Glucopyranosyloxy)-8-hydroxy-3-methyl-9,10-anthracenedione", "Chrysophaneine", "Chrysophanol 1-O-\u03b2-D-glucopyranoside", "1-O-\u03b2-D-Glucopyranosylchrysophanol", "Chrysophanol 1-O-glucoside"], "SMILES": "O(C1=C2C(C(=O)C=3C(C2=O)=C(O)C=CC3)=CC(C)=C1)C4OC(CO)C(O)C(O)C4O", "physical_data": {"Molecular Weight": "416.38", "Molecular Formula": "C21H20O9", "Melting Point": "245-246 \u00b0C"}}