{"cas_no": "484-29-7", "cn_name": "\u767d\u9c9c\u78b1", "en_name": ["Dictamnine", "Furo[2,3-b]quinoline, 4-methoxy-", "Dictamnine", "4-Methoxyfuro[2,3-b]quinoline", "Dictamine", "Dectamine"], "SMILES": "O(C)C1=C2C(=NC=3C1=CC=CC3)OC=C2", "physical_data": {"Molecular Weight": "199.21", "Molecular Formula": "C12H9NO2", "Melting Point": "133.5 \u00b0C"}}