{"cas_no": "484-23-1", "cn_name": "\u53cc\u80bc\u915e\u55ea", "en_name": ["Dihydralazine", "Phthalazine, 1,4-dihydrazinyl-", "Phthalazine, 1,4-dihydrazino-", "1,4-Phthalazinedione, 2,3-dihydro-, dihydrazone", "1,4-Dihydrazinylphthalazine", "Dihydralazine", "1,4-Dihydrazinophthalazine", "Nepresol", "Nepresolin", "Nepressol", "Dihydrazinophthalazine", "Dihydralazin", "C 7441", "Cassella 532", "Ophthazin", "Tonolysin", "Hypopresol", "NSC 526654", "1,4-Bis(hydrazino)phthalazine", "(4-Hydrazinylphthalazin-1-yl)hydrazine", "MeSH ID: D004078"], "SMILES": "N(N)=C1C=2C(C(=NN)NN1)=CC=CC2", "physical_data": {"Molecular Weight": "190.21", "Molecular Formula": "C8H10N6", "Melting Point": "180 \u00b0C (decomp)"}}