{"cas_no": "484-78-6", "cn_name": "DL-3-\u7f9f\u57fa\u72ac\u5c3f\u7d20", "en_name": ["3-Hydroxykynurenine", "Benzenebutanoic acid, \u03b1,2-diamino-3-hydroxy-\u03b3-oxo-", "Alanine, 3-(3-hydroxyanthraniloyl)-", "\u03b1,2-Diamino-3-hydroxy-\u03b3-oxobenzenebutanoic acid", "Hydroxykynurenine", "3-Hydroxykynurenine", "3-Hydroxy-DL-kynurenine", "DL-3-Hydroxykynurenine", "2-Amino-4-(2-amino-3-hydroxyphenyl)-4-oxobutanoicacid"], "SMILES": "C(CC(C(O)=O)N)(=O)C1=C(N)C(O)=CC=C1", "physical_data": {"Molecular Weight": "224.21", "Molecular Formula": "C10H12N2O4", "Melting Point": "213 \u00b0C (decomp)"}}