{"cas_no": "484-76-4", "cn_name": "\u5965\u5361\u5b81", "en_name": ["Okanin", "2-Propen-1-one, 3-(3,4-dihydroxyphenyl)-1-(2,3,4-trihydroxyphenyl)-, (2E)-", "Chalcone, 2\u2032,3,3\u2032,4,4\u2032-pentahydroxy-, (E)-", "2-Propen-1-one, 3-(3,4-dihydroxyphenyl)-1-(2,3,4-trihydroxyphenyl)-, (E)-", "(2E)-3-(3,4-Dihydroxyphenyl)-1-(2,3,4-trihydroxyphenyl)-2-propen-1-one", "Okanin", "trans-3,4,2\u2032,3\u2032,4\u2032-Pentahydroxychalcone"], "SMILES": "C(C=CC1=CC(O)=C(O)C=C1)(=O)C2=C(O)C(O)=C(O)C=C2", "physical_data": {"Molecular Weight": "288.25", "Molecular Formula": "C15H12O6", "Melting Point": "235-242 \u00b0C"}}