{"cas_no": "484-33-3", "cn_name": "\u6c34\u9ec4\u76ae\u7c7d\u7d20", "en_name": ["Pongamol", "1,3-Propanedione, 1-(4-methoxy-5-benzofuranyl)-3-phenyl-", "1-(4-Methoxy-5-benzofuranyl)-3-phenyl-1,3-propanedione", "Pongamol", "Lanceolatin C"], "SMILES": "O(C)C1=C2C(=CC=C1C(CC(=O)C3=CC=CC=C3)=O)OC=C2", "physical_data": {"Molecular Weight": "294.30", "Molecular Formula": "C18H14O4", "Melting Point": "130-132 \u00b0C"}}