{"cas_no": "484-11-7", "cn_name": "\u65b0\u94dc\u8bd5\u5242", "en_name": ["2,9-Dimethyl-1,10-phenanthroline", "1,10-Phenanthroline, 2,9-dimethyl-", "2,9-Dimethyl-1,10-phenanthroline", "Neocuproine", "2,9-Dimethyl-o-phenanthroline", "Neocuproin", "DMPHEN", "VUF 7738", "2,9-Dimethylphenanthroline", "2,9-Neocuproine", "NSC 4280", "2,9-Dimethyl-1,10-phenanthrolin", "3,6-Dimethyl-4,5-diazaphenanthrene"], "SMILES": "CC1=NC2=C3C(=CC=C2C=C1)C=CC(C)=N3", "physical_data": {"Molecular Weight": "208.26", "Molecular Formula": "C14H12N2", "Boiling Point": "180-190 \u00b0C @ Press: 0.5 Torr", "Melting Point": "159.5 \u00b0C"}}