{"cas_no": "484-65-1", "cn_name": "\u4e94\u7532\u57fa\u82c4\u6c2f", "en_name": ["Pentamethylbenzyl chloride", "Benzene, 1-(chloromethyl)-2,3,4,5,6-pentamethyl-", "Benzene, (chloromethyl)pentamethyl-", "1-(Chloromethyl)-2,3,4,5,6-pentamethylbenzene", "(Chloromethyl)pentamethylbenzene", "Pentamethylbenzyl chloride", "2,3,4,5,6-Pentamethylbenzyl chloride", "NSC 98359", "Pentamethyl(chloromethyl)benzene"], "SMILES": "C(Cl)C1=C(C)C(C)=C(C)C(C)=C1C", "physical_data": {"Molecular Weight": "196.72", "Molecular Formula": "C12H17Cl", "Boiling Point": "148 \u00b0C @ Press: 14 Torr", "Melting Point": "82-84 \u00b0C"}}