{"cas_no": "484-17-3", "cn_name": "9-\u7f9f\u57fa\u83f2", "en_name": ["9-Phenanthrol", "9-Phenanthrenol", "9-Phenanthrol", "9-Hydroxyphenanthrene", "NSC 50554"], "SMILES": "OC1=C2C(=C3C(=C1)C=CC=C3)C=CC=C2", "physical_data": {"Molecular Weight": "194.23", "Molecular Formula": "C14H10O", "Boiling Point": "220-260 \u00b0C", "Melting Point": "150-151 \u00b0C"}}