{"cas_no": "484-14-0", "cn_name": "7-\u7f9f\u57fa-8-(3-\u7532\u57fa-2-\u4e01\u70ef)-\u4e8c\u6c22\u82ef\u5e76\u5421\u5583", "en_name": ["Osthenol", "2H-1-Benzopyran-2-one, 7-hydroxy-8-(3-methyl-2-buten-1-yl)-", "Coumarin, 7-hydroxy-8-(3-methyl-2-butenyl)-", "Osthenol", "2H-1-Benzopyran-2-one, 7-hydroxy-8-(3-methyl-2-butenyl)-", "7-Hydroxy-8-(3-methyl-2-buten-1-yl)-2H-1-benzopyran-2-one", "7-Hydroxy-8-isopent-2-enylcoumarin", "Ostenol", "7-Hydroxy-8-prenylcoumarin", "NSC 625328"], "SMILES": "C(C=C(C)C)C1=C2C(=CC=C1O)C=CC(=O)O2", "physical_data": {"Molecular Weight": "230.26", "Molecular Formula": "C14H14O3", "Melting Point": "89-91 \u00b0C"}}