{"cas_no": "484-12-8", "cn_name": "\u86c7\u5e8a\u5b50\u7d20", "en_name": ["Osthol", "2H-1-Benzopyran-2-one, 7-methoxy-8-(3-methyl-2-buten-1-yl)-", "Osthole", "Coumarin, 7-methoxy-8-(3-methyl-2-butenyl)-", "2H-1-Benzopyran-2-one, 7-methoxy-8-(3-methyl-2-butenyl)-", "7-Methoxy-8-(3-methyl-2-buten-1-yl)-2H-1-benzopyran-2-one", "7-Methoxy-8-isopentenylcoumarin", "Osthol", "Ostole", "Ostol", "7-Methoxy-8-(3-methyl-2-butenyl)coumarin", "8-(3-Methyl-2-butenyl)herniarin", "NSC 31868"], "SMILES": "C(C=C(C)C)C1=C2C(=CC=C1OC)C=CC(=O)O2", "physical_data": {"Molecular Weight": "244.29", "Molecular Formula": "C15H16O3", "Melting Point": "83.5 \u00b0C"}}