{"cas_no": "484-20-8", "cn_name": "\u4f5b\u624b\u82f7\u5185\u916f", "en_name": ["Bergapten", "7H-Furo[3,2-g][1]benzopyran-7-one, 4-methoxy-", "4-Methoxy-7H-furo[3,2-g][1]benzopyran-7-one", "Bergaptan", "Bergapten", "Bergaptene", "Majudin", "5-Methoxypsoralen", "Heraclin", "5-MOP", "5-Methoxy-6,7-furanocoumarin", "Psoraderm", "Geralen", "NSC 95437", "8-Demethoxyisoimpinellin", "4-Methoxy-7H-furo[3,2-g]chromen-7-one"], "SMILES": "O(C)C=1C2=C(C=C3C1C=CO3)OC(=O)C=C2", "physical_data": {"Molecular Weight": "216.19", "Molecular Formula": "C12H8O4", "Melting Point": "188 \u00b0C"}}