{"cas_no": "484-47-9", "cn_name": "2\uff0c4\uff0c5\uff0d\u4e09\u82ef\u57fa\u54aa\u5511", "en_name": ["2,4,5-Triphenylimidazole", "1H-Imidazole, 2,4,5-triphenyl-", "Lophine", "Imidazole, 2,4,5-triphenyl-", "2,4,5-Triphenyl-1H-imidazole", "2,4,5-Triphenylimidazole", "2,4,5-Triphenyl-1,3-imidazole", "Lophin", "Triphendazole", "NSC 62790", "NSC 95931", "T 0999", "TPIZ"], "SMILES": "C1(=C(N=C(N1)C2=CC=CC=C2)C3=CC=CC=C3)C4=CC=CC=C4", "physical_data": {"Molecular Weight": "296.37", "Molecular Formula": "C21H16N2", "Melting Point": "275 \u00b0C"}}