{"cas_no": "484-31-1", "cn_name": "\u83b3\u841d\u6cb9\u8111", "en_name": ["Dill apiole", "1,3-Benzodioxole, 4,5-dimethoxy-6-(2-propen-1-yl)-", "Dill apiole", "Benzene, 1-allyl-2,3-dimethoxy-4,5-(methylenedioxy)-", "1,3-Benzodioxole, 4,5-dimethoxy-6-(2-propenyl)-", "4,5-Dimethoxy-6-(2-propen-1-yl)-1,3-benzodioxole", "4-Allyl-5,6-dimethoxy-1,2-(methylenedioxy)benzene", "Dillapiol", "1-Allyl-2,3-dimethoxy-4,5-(methylenedioxy)benzene"], "SMILES": "O(C)C1=C2C(=CC(CC=C)=C1OC)OCO2", "physical_data": {"Molecular Weight": "222.24", "Molecular Formula": "C12H14O4", "Boiling Point": "285 \u00b0C", "Melting Point": "29.5 \u00b0C", "Density": "1.1753 g/cm\u00b3 @ Temp: 0 \u00b0C"}}