{"cas_no": "484-66-2", "cn_name": "2,3,4,5,6-\u4e94\u7532\u57fa\u82ef\u7532\u9187", "en_name": ["2,3,4,5,6-Pentamethylbenzenemethanol", "Benzenemethanol, 2,3,4,5,6-pentamethyl-", "Benzyl alcohol, 2,3,4,5,6-pentamethyl-", "2,3,4,5,6-Pentamethylbenzenemethanol", "2,3,4,5,6-Pentamethylbenzyl alcohol", "(Pentamethylphenyl)methanol", "Pentamethylbenzyl alcohol", "Pentamethylbenzenemethanol"], "SMILES": "C(O)C1=C(C)C(C)=C(C)C(C)=C1C", "physical_data": {"Molecular Weight": "178.27", "Molecular Formula": "C12H18O", "Melting Point": "136-137 \u00b0C"}}