{"cas_no": "4840-75-9", "cn_name": "\u82ef\u57fa\u4e09(\u4e8c\u7532\u6c28\u57fa)\u7845\u70f7", "en_name": ["N,N,N\u2032,N\u2032,N\u2032\u2032,N\u2032\u2032-Hexamethyl-1-phenylsilanetriamine", "Silanetriamine, N,N,N\u2032,N\u2032,N\u2032\u2032,N\u2032\u2032-hexamethyl-1-phenyl-", "N,N,N\u2032,N\u2032,N\u2032\u2032,N\u2032\u2032-Hexamethyl-1-phenylsilanetriamine", "Tris(dimethylamino)phenylsilane", "Phenyltri(dimethylamino)silane"], "SMILES": "[Si](N(C)C)(N(C)C)(N(C)C)C1=CC=CC=C1", "physical_data": {"Molecular Weight": "237.42", "Molecular Formula": "C12H23N3Si", "Boiling Point": "143-144 \u00b0C @ Press: 32 Torr", "Density": "0.965 g/cm\u00b3"}}