{"cas_no": "4840-63-5", "cn_name": "2-\u7532\u6c27\u57fa-5-\u4e59\u781c\u57fa\u82ef\u7532\u9178", "en_name": ["5-(Ethylsulfonyl)-2-methoxybenzoic acid", "Benzoic acid, 5-(ethylsulfonyl)-2-methoxy-", "o-Anisic acid, 5-(ethylsulfonyl)-", "5-(Ethylsulfonyl)-2-methoxybenzoic acid", "2-Methoxy-5-(ethylsulfonyl)benzoic acid", "3-Ethylsulfonyl-6-methoxybenzoic acid", "2-Methoxy-5-ethylsulphonyl benzoic acid"], "SMILES": "S(CC)(=O)(=O)C1=CC(C(O)=O)=C(OC)C=C1", "physical_data": {"Molecular Weight": "244.26", "Molecular Formula": "C10H12O5S", "Melting Point": "124.0-125.5 \u00b0C"}}