{"cas_no": "4845-50-5", "cn_name": "2,3-\u4e8c\u7f9f\u57fa-1,4-\u4e8c\u6c27\u6742\u73af\u5df1\u70f7", "en_name": ["1,4-Dioxane-2,3-diol", "1,4-Dioxane-2,3-diol", "p-Dioxane-2,3-diol", "2,3-Dihydroxy-1,4-dioxane", "NSC 57544"], "SMILES": "OC1C(O)OCCO1", "physical_data": {"Molecular Weight": "120.10", "Molecular Formula": "C4H8O4", "Melting Point": "100-130 \u00b0C"}}