{"cas_no": "4845-58-3", "cn_name": "2-\u5def\u57fa-6-\u785d\u57fa\u82ef\u5e76\u567b\u5511", "en_name": ["6-Nitro-2(3H)-benzothiazolethione", "2(3H)-Benzothiazolethione, 6-nitro-", "2-Benzothiazolinethione, 6-nitro-", "2-Benzothiazolethiol, 6-nitro-", "Benzothiazole, 2-mercapto-6-nitro-", "6-Nitro-2(3H)-benzothiazolethione", "2-Mercapto-6-nitrobenzothiazole", "6-Nitro-2-mercaptobenzothiazole", "6-Nitrobenzothiazole-2-thiol", "6-Nitro-2-benzothiazolinethione", "NSC 2630", "SKA 6", "6-Nitro-2-mercaptobenzo[d]thiazole", "6-Nitro-1,3-benzothiazole-2-thiol"], "SMILES": "N(=O)(=O)C=1C=C2C(=CC1)NC(=S)S2", "physical_data": {"Molecular Weight": "212.25", "Molecular Formula": "C7H4N2O2S2", "Melting Point": "226 \u00b0C"}}