{"cas_no": "4849-32-5", "cn_name": "\u7279\u5b89\u7075", "en_name": ["Karbutilate", "Carbamic acid, N-(1,1-dimethylethyl)-, 3-[[(dimethylamino)carbonyl]amino]phenyl ester", "Carbamic acid, tert-butyl-, ester with 3-(m-hydroxyphenyl)-1,1-dimethylurea", "Carbamic acid, (1,1-dimethylethyl)-, 3-[[(dimethylamino)carbonyl]amino]phenyl ester", "m-(3,3-Dimethylureido)phenyl tert-butylcarbamate", "Tandex", "NIA 11092", "1,1-Dimethyl-3-(m-tert-butylcarbamoyloxyphenyl)urea", "1,1-Dimethyl-3-[3-(N-tert-butylcarbamoyloxy)phenyl]urea", "Karbutilate", "3-(3,3-Dimethylureido)phenyl N-tert-butylcarbamate", "3-(3,3-Dimethylureido)phenyl tert-butylcarbamate", "Carbutilate", "NSC 222508", "Backup Flowable", "Karbutylate"], "SMILES": "N(C(N(C)C)=O)C1=CC(OC(NC(C)(C)C)=O)=CC=C1", "physical_data": {"Molecular Weight": "279.33", "Molecular Formula": "C14H21N3O3", "Melting Point": "169-169.5 \u00b0C"}}