{"cas_no": "485-35-8", "cn_name": "\u91d1\u96c0\u82b1\u78b1", "en_name": ["Cytisine", "1,5-Methano-8H-pyrido[1,2-a][1,5]diazocin-8-one, 1,2,3,4,5,6-hexahydro-, (1R,5S)-", "Cytisine", "1,5-Methano-8H-pyrido[1,2-a][1,5]diazocin-8-one, 1,2,3,4,5,6-hexahydro-, (1R)-", "(1R,5S)-1,2,3,4,5,6-Hexahydro-1,5-methano-8H-pyrido[1,2-a][1,5]diazocin-8-one", "Baptitoxin", "Baptitoxine", "Cytiton", "Cytitone", "Sophorine", "Ulexine", "Tabex", "Ulexin", "Laburnin", "Sophorin", "(-)-Cytisine", "Cytisin", "Tsitafat", "Cytisinicline"], "SMILES": "O=C1N2C(C3CC(C2)CNC3)=CC=C1", "physical_data": {"Molecular Weight": "190.24", "Molecular Formula": "C11H14N2O", "Boiling Point": "218 \u00b0C @ Press: 2 Torr", "Melting Point": "152-153 \u00b0C"}}