{"cas_no": "485-91-6", "cn_name": "\u0391-\u522b\u9690\u54c1\u78b1", "en_name": ["Allocryptopine", "[1,3]Benzodioxolo[5,6-e][2]benzazecin-14(6H)-one, 5,7,8,15-tetrahydro-3,4-dimethoxy-6-methyl-", "\u03b1-Fagarine", "5,7,8,15-Tetrahydro-3,4-dimethoxy-6-methyl[1,3]benzodioxolo[5,6-e][2]benzazecin-14(6H)-one", "\u03b2-Homochelidonine", "\u03b1-Allocryptopine", "Thalictrimine", "Allocryptopine", "Thalictrimine (C21 alkaloid)", "\u03b1-allo-Cryptopine"], "SMILES": "O(C)C1=C2C(CC(=O)C=3C(CCN(C)C2)=CC4=C(C3)OCO4)=CC=C1OC", "physical_data": {"Molecular Weight": "369.41", "Molecular Formula": "C21H23NO5", "Melting Point": "160.5 \u00b0C"}}