{"cas_no": "485-72-3", "cn_name": "\u523a\u8292\u67c4\u82b1\u7d20", "en_name": ["Formononetin", "4H-1-Benzopyran-4-one, 7-hydroxy-3-(4-methoxyphenyl)-", "Formononetin", "Isoflavone, 7-hydroxy-4\u2032-methoxy-", "7-Hydroxy-3-(4-methoxyphenyl)-4H-1-benzopyran-4-one", "7-Hydroxy-4\u2032-methoxyisoflavone", "Biochanin B", "Formononetol", "Daidzein 4\u2032-methyl ether", "NSC 93360", "Flavosil", "Formonetin", "7-Hydroxy-3-(4-methoxyphenyl)chromen-4-one", "Myconate", "Formonentin", "6-Demethoxyafromosin", "Mycotech", "Myconate HB", "Neochanin"], "SMILES": "O=C1C(=COC=2C1=CC=C(O)C2)C3=CC=C(OC)C=C3", "physical_data": {"Molecular Weight": "268.26", "Molecular Formula": "C16H12O4", "Melting Point": "256.5 \u00b0C"}}