{"cas_no": "485-71-2", "cn_name": "\u8f9b\u53ef\u5c3c\u4e01", "en_name": ["Cinchonidine", "Cinchonan-9-ol, (8\u03b1,9R)-", "Cinchonidine", "(8\u03b1,9R)-Cinchonan-9-ol", "\u03b1-Quinidine", "(-)-Cinchonidine", "(8S,9R)-Cinchonidine", "Cinchovatine", "NSC 5364"], "SMILES": "C(O)(C1N2CC(C=C)C(C1)CC2)C=3C4=C(N=CC3)C=CC=C4", "physical_data": {"Molecular Weight": "294.39", "Molecular Formula": "C19H22N2O", "Melting Point": "210.5 \u00b0C", "Density": "1.22 g/cm\u00b3"}}