{"cas_no": "485-47-2", "cn_name": "\u831a\u4e09\u916e", "en_name": ["Ninhydrin", "1H-Indene-1,3(2H)-dione, 2,2-dihydroxy-", "1,3-Indandione, 2,2-dihydroxy-", "2,2-Dihydroxy-1H-indene-1,3(2H)-dione", "2,2-Dihydroxy-1,3-indandione", "Ninhydrin", "Triketohydrindene hydrate", "1H-Indene-1,2,3-trione, 2-hydrate", "Indane-1,2,3-trione monohydrate", "2,3-Dihydro-2,2-dihydroxy-1,3-dioxo-1H-indene", "2,2-Dihydroxy-1,3-dioxoindan", "2,2-Dihydroxyindane-1,3-dione", "2,2-Dihydroxyindene-1,3-dione", "2,2-Dihydroxy-2,3-dihydro-1H-indene-1,3-dione", "MeSH ID: D009555"], "SMILES": "O=C1C=2C(C(=O)C1(O)O)=CC=CC2", "physical_data": {"Molecular Weight": "178.14", "Molecular Formula": "C9H6O4", "Melting Point": "242 \u00b0C (decomp)"}}