{"cas_no": "485-65-4", "cn_name": "\u6c22\u5316\u8f9b\u53ef\u5b81", "en_name": ["Hydrocinchonine", "Cinchonan-9-ol, 10,11-dihydro-, (9S)-", "Hydrocinchonine", "(9S)-10,11-Dihydrocinchonan-9-ol", "Cinchonifine", "Cinchotine", "Pseudocinchonine", "Dihydrocinchonine", "10,11-Dihydrocinchonine", "Cinchonifin", "Pseudocinchonin", "Hydrocinchonin", "Cinchotin", "(+)-Dihydrocinchonine", "(+)-Hydrocinchonine"], "SMILES": "C(O)(C1N2CC(CC)C(C1)CC2)C=3C4=C(N=CC3)C=CC=C4", "physical_data": {"Molecular Weight": "296.41", "Molecular Formula": "C19H24N2O", "Melting Point": "268.5 \u00b0C"}}