{"cas_no": "485-19-8", "cn_name": "\u725b\u5fc3\u679c\u9e7c", "en_name": ["(+)-Reticuline", "7-Isoquinolinol, 1,2,3,4-tetrahydro-1-[(3-hydroxy-4-methoxyphenyl)methyl]-6-methoxy-2-methyl-, (1S)-", "Reticuline", "7-Isoquinolinol, 1,2,3,4-tetrahydro-1-[(3-hydroxy-4-methoxyphenyl)methyl]-6-methoxy-2-methyl-, (S)-", "(1S)-1,2,3,4-Tetrahydro-1-[(3-hydroxy-4-methoxyphenyl)methyl]-6-methoxy-2-methyl-7-isoquinolinol", "(+)-Reticuline", "L-(+)-Reticuline", "(S)-Reticuline", "Reticulin", "S-(+)-Reticuline", "d-Reticuline", "(S)-Reticulene"], "SMILES": "C(C1C=2C(=CC(OC)=C(O)C2)CCN1C)C3=CC(O)=C(OC)C=C3", "physical_data": {"Molecular Weight": "329.39", "Molecular Formula": "C19H23NO4", "Melting Point": "88-94 \u00b0C"}}