{"cas_no": "485-49-4", "cn_name": "(+)-\u8377\u5305\u7261\u4e39\u78b1", "en_name": ["Bicuculline", "Furo[3,4-e]-1,3-benzodioxol-8(6H)-one, 6-[(5S)-5,6,7,8-tetrahydro-6-methyl-1,3-dioxolo[4,5-g]isoquinolin-5-yl]-, (6R)-", "Bicuculline", "Furo[3,4-e]-1,3-benzodioxol-8(6H)-one, 6-(5,6,7,8-tetrahydro-6-methyl-1,3-dioxolo[4,5-g]isoquinolin-5-yl)-, [R-(R*,S*)]-", "1,3-Dioxolo[4,5-g]isoquinoline, furo[3,4-e]-1,3-benzodioxol-8(6H)-one deriv.", "(6R)-6-[(5S)-5,6,7,8-Tetrahydro-6-methyl-1,3-dioxolo[4,5-g]isoquinolin-5-yl]furo[3,4-e]-1,3-benzodioxol-8(6H)-one", "Bicucullin", "d-Bicuculline", "(+)-Bicuculline", "Bucuculline", "NSC 32192", "MeSH ID: D001640"], "SMILES": "CN1C(C2C3=C(C(=O)O2)C4=C(C=C3)OCO4)C5=C(C=C6C(=C5)OCO6)CC1", "physical_data": {"Molecular Weight": "367.35", "Molecular Formula": "C20H17NO6", "Melting Point": "194 \u00b0C"}}