{"cas_no": "485-63-2", "cn_name": "3',4',7-\u4e09\u7f9f\u57fa\u5f02\u9ec4\u916e", "en_name": ["3\u2032,4\u2032,7-Trihydroxyisoflavone", "4H-1-Benzopyran-4-one, 3-(3,4-dihydroxyphenyl)-7-hydroxy-", "Isoflavone, 3\u2032,4\u2032,7-trihydroxy-", "3-(3,4-Dihydroxyphenyl)-7-hydroxy-4H-1-benzopyran-4-one", "3\u2032,4\u2032,7-Trihydroxyisoflavone", "3\u2032-Hydroxydaidzein", "7,3\u2032,4\u2032-Trihydroxyisoflavone"], "SMILES": "O=C1C(=COC=2C1=CC=C(O)C2)C3=CC(O)=C(O)C=C3", "physical_data": {"Molecular Weight": "270.24", "Molecular Formula": "C15H10O5", "Melting Point": "245-250 \u00b0C"}}