{"cas_no": "485-61-0", "cn_name": "1-\u7532\u57fa-2- [3' ,4' - (\u4e9a\u7532\u4e8c\u6c27\u57fa)\u82ef\u57fa] -4-\u55b9\u8bfa\u916e", "en_name": ["Graveoline", "4(1H)-Quinolinone, 2-(1,3-benzodioxol-5-yl)-1-methyl-", "4(1H)-Quinolone, 1-methyl-2-[3,4-(methylenedioxy)phenyl]-", "2-(1,3-Benzodioxol-5-yl)-1-methyl-4(1H)-quinolinone", "Graveoline", "Rutamine", "Graveolin", "NSC 603064", "2-(1,3-Benzodioxol-5-yl)-1-methylquinolin-4-one"], "SMILES": "CN1C(=CC(=O)C=2C1=CC=CC2)C=3C=C4C(=CC3)OCO4", "physical_data": {"Molecular Weight": "279.29", "Molecular Formula": "C17H13NO3", "Melting Point": "204-205 \u00b0C"}}