{"cas_no": "485-31-4", "cn_name": "\u4e50\u6740\u87a8", "en_name": ["Binapacryl", "2-Butenoic acid, 3-methyl-, 2-(1-methylpropyl)-4,6-dinitrophenyl ester", "Crotonic acid, 3-methyl-, 2-sec-butyl-4,6-dinitrophenyl ester", "HOE 2784", "NIA 9044", "Acricid", "Binapacryl", "2-sec-Butyl-4,6-dinitrophenyl 3-methyl-2-butenoate", "2-(1-Methylpropyl)-4,6-dinitrophenyl \u03b2,\u03b2-dimethacrylate", "Morocide", "Niagara 9044", "2-sec-Butyl-4,6-dinitrophenyl 3-methylcrotonate", "Endosan", "Dinapacryl"], "SMILES": "O(C(C=C(C)C)=O)C1=C(C(CC)C)C=C(N(=O)=O)C=C1N(=O)=O", "physical_data": {"Molecular Weight": "322.31", "Molecular Formula": "C15H18N2O6", "Melting Point": "66-67 \u00b0C", "Density": "1.2307 g/cm\u00b3 @ Temp: 20 \u00b0C"}}