{"cas_no": "4853-75-2", "cn_name": "\u4e59\u57fa\u5f02\u4e19\u57fa\u781c", "en_name": ["2-(Ethylsulfonyl)propane", "Propane, 2-(ethylsulfonyl)-", "Sulfone, ethyl isopropyl", "2-(Ethylsulfonyl)propane", "Ethyl isopropyl sulfone", "2-Ethanesulfonyl-propane", "2-(Ethanesulfonyl)propane"], "SMILES": "S(C(C)C)(CC)(=O)=O", "physical_data": {"Molecular Weight": "136.21", "Molecular Formula": "C5H12O2S", "Boiling Point": "90-91 \u00b0C @ Press: 2 Torr", "Melting Point": "-9--6 \u00b0C"}}