{"cas_no": "4854-84-6", "cn_name": "4'-\u6c28\u57fa-4-\u6c30\u57fa\u8054\u82ef", "en_name": ["4\u2032-Amino[1,1\u2032-biphenyl]-4-carbonitrile", "[1,1\u2032-Biphenyl]-4-carbonitrile, 4\u2032-amino-", "4-Biphenylcarbonitrile, 4\u2032-amino-", "4\u2032-Amino[1,1\u2032-biphenyl]-4-carbonitrile", "4\u2032-Amino-4-biphenylcarbonitrile", "p-Amino-p\u2032-cyanobiphenyl", "4-Amino-4\u2032-cyanobiphenyl", "NSC 105455", "(4\u2032-Cyanobiphenyl-4-yl)amine", "4\u2032-Amino-1,1\u2032-biphenyl-4-carbonitrile", "4-(4-Aminophenyl)benzonitrile"], "SMILES": "C(#N)C1=CC=C(C=C1)C2=CC=C(N)C=C2", "physical_data": {"Molecular Weight": "194.23", "Molecular Formula": "C13H10N2", "Boiling Point": "237-240 \u00b0C @ Press: 7 Torr", "Melting Point": "181.0-183.0 \u00b0C"}}