{"cas_no": "4856-95-5", "cn_name": "\u5417\u5549\u787c\u70f7", "en_name": ["(T-4)-Trihydro(morpholine-\u03baN4)boron", "Boron, trihydro(morpholine-\u03baN4)-, (T-4)-", "Morpholine, compd. with borane (1:1)", "Boron, trihydro(morpholine-N4)-, (T-4)-", "Morpholine, compd. with BH3", "Borane, compd. with morpholine (1:1)", "Morpholine, boron complex", "(T-4)-Trihydro(morpholine-\u03baN4)boron", "NSC 93813", "Borane, compd. with morpholine"], "SMILES": "[B+3]([H-])([H-])([H-])[NH]1CCOCC1", "physical_data": {"Molecular Weight": "", "Molecular Formula": "C4H12BNO", "Melting Point": "95 \u00b0C"}}