{"cas_no": "4856-97-7", "cn_name": "2-\u7f9f\u7532\u57fa\u82ef\u5e76\u54aa\u5511", "en_name": ["1H-Benzimidazole-2-methanol", "1H-Benzimidazole-2-methanol", "2-Benzimidazolemethanol", "2-(Hydroxymethyl)benzimidazole", "NSC 18284", "1H-Benzimidazol-2-ylmethanol", "1H-1,3-Benzodiazol-2-ylmethanol", "(1H-1,3-Benzodiazol-2-yl)methanol", "(1H-Benzo[d]imidazol-2-yl)methanol"], "SMILES": "C(O)C=1NC=2C(N1)=CC=CC2", "physical_data": {"Molecular Weight": "148.16", "Molecular Formula": "C8H8N2O", "Melting Point": "170.5-171.5 \u00b0C"}}