{"cas_no": "4856-87-5", "cn_name": "1,6-\u4e8c\u9a6c\u6765\u9170\u4e9a\u80fa\u57fa\u5df1\u70f7", "en_name": ["1,6-Bismaleimidohexane", "1H-Pyrrole-2,5-dione, 1,1\u2032-(1,6-hexanediyl)bis-", "Maleimide, N,N\u2032-hexamethylenedi-", "1,1\u2032-(1,6-Hexanediyl)bis[1H-pyrrole-2,5-dione]", "N,N\u2032-Hexamethylenedimaleimide", "1,6-Dimaleimidohexane", "N,N\u2032-Hexamethylenebis[maleimide]", "1,6-Hexamethylenebis[maleimide]", "1,6-Bismaleimidohexane", "NSC 12818", "1,6-Maleimidohexane", "GMBMI", "1,6-Hexanediylbismaleimide", "1,6-Bismaleimidehexane", "Hexamethylenediamine bismaleimide", "GP 207R", "BMH Crosslinker", "1,6-BMH", "1-[6-(2,5-Dioxopyrrol-1-yl)hexyl]pyrrole-2,5-dione", "1,1\u2032-hexane-1,6-diylbis(1H-pyrrole-2,5-dione)", "1,1\u2032-(Hexane-1,6-diyl)bis(1H-pyrrole-2,5-dione)", "Nexamit A 48"], "SMILES": "C(CCCCCN1C(=O)C=CC1=O)N2C(=O)C=CC2=O", "physical_data": {"Molecular Weight": "276.29", "Molecular Formula": "C14H16N2O4", "Melting Point": "136-141 \u00b0C"}}