{"cas_no": "4857-42-5", "cn_name": "3-\u7532\u57fa\u5f02\u6076\u5511-5-\u7532\u9178", "en_name": ["3-Methyl-5-isoxazolecarboxylic acid", "5-Isoxazolecarboxylic acid, 3-methyl-", "3-Methyl-5-isoxazolecarboxylic acid", "5-Carboxy-3-methylisoxazole", "U 10387", "3-Methyl-5-isoxazolylcarboxylic acid", "3-Methyl-1,2-oxazole-5-carboxylic acid"], "SMILES": "C(O)(=O)C1=CC(C)=NO1", "physical_data": {"Molecular Weight": "127.10", "Molecular Formula": "C5H5NO3", "Melting Point": "210-211 \u00b0C"}}