{"cas_no": "4857-06-1", "cn_name": "2-\u6c2f\u82ef\u5e76\u54aa\u5511", "en_name": ["2-Chlorobenzimidazole", "1H-Benzimidazole, 2-chloro-", "Benzimidazole, 2-chloro-", "2-Chloro-1H-benzimidazole", "2-Chlorobenzimidazole", "NSC 111358", "2-Chloro-1H-benzo[d]imidazole", "2-Chloro-1H-1,3-benzodiazole"], "SMILES": "ClC=1NC=2C(N1)=CC=CC2", "physical_data": {"Molecular Weight": "152.58", "Molecular Formula": "C7H5ClN2", "Melting Point": "212-215 \u00b0C"}}