{"cas_no": "4857-04-9", "cn_name": "2-\u6c2f\u7532\u57fa\u82ef\u5e76\u54aa\u5511", "en_name": ["2-(Chloromethyl)benzimidazole", "1H-Benzimidazole, 2-(chloromethyl)-", "Benzimidazole, 2-(chloromethyl)-", "2-(Chloromethyl)-1H-benzimidazole", "2-(Chloromethyl)benzimidazole", "NSC 103708", "NSC 15436", "2-(Chloromethyl)-1H-benzo[d]imidazole", "2-(Chloromethyl)-1H-1,3-benzodiazole"], "SMILES": "C(Cl)C=1NC=2C(N1)=CC=CC2", "physical_data": {"Molecular Weight": "166.61", "Molecular Formula": "C8H7ClN2", "Melting Point": "160-161 \u00b0C"}}