{"cas_no": "4858-85-9", "cn_name": "2,3-\u4e8c\u6c2f\u5421\u55ea", "en_name": ["2,3-Dichloropyrazine", "Pyrazine, 2,3-dichloro-", "2,3-Dichloropyrazine", "5,6-Dichloropyrazine"], "SMILES": "ClC=1C(Cl)=NC=CN1", "physical_data": {"Molecular Weight": "148.98", "Molecular Formula": "C4H2Cl2N2", "Boiling Point": "125-130 \u00b0C @ Press: 30 Torr", "Melting Point": "22-24 \u00b0C"}}