{"cas_no": "486-74-8", "cn_name": "\u55b9\u5549-4-\u7fa7\u9178", "en_name": ["4-Quinolinecarboxylic acid", "4-Quinolinecarboxylic acid", "Cinchoninic acid", "4-Carboxyquinoline", "NSC 13138", "4-Quinolinic acid", "N-Quinoline-4-carboxylic acid"], "SMILES": "C(O)(=O)C=1C2=C(N=CC1)C=CC=C2", "physical_data": {"Molecular Weight": "173.17", "Molecular Formula": "C10H7NO2", "Melting Point": "253 \u00b0C"}}