{"cas_no": "486-64-6", "cn_name": "\u9e2d\u5634\u82b1\u78b1\u916e", "en_name": ["(-)-Vasicinone", "Pyrrolo[2,1-b]quinazolin-9(1H)-one, 2,3-dihydro-3-hydroxy-, (3S)-", "Pyrrolo[2,1-b]quinazolin-9(1H)-one, 2,3-dihydro-3-hydroxy-, (S)-", "Vasicinone", "(3S)-2,3-Dihydro-3-hydroxypyrrolo[2,1-b]quinazolin-9(1H)-one", "(-)-Vasicinone", "l-Vasicinone", "(S)-Vasicinone", "(3S)-3-Hydroxy-2,3-dihydro-1H-pyrrolo[2,1-b]quinazolin-9-one", "(3S)-3-Hydroxy-1H,2H,3H,9H-pyrrolo[2,1-b]quinazolin-9-one", "2,3-Dihydro-3(S)-hydroxypyrrolo[2,1-b]quinazolin-9(1H)-one"], "SMILES": "O=C1N2C(=NC=3C1=CC=CC3)C(O)CC2", "physical_data": {"Molecular Weight": "202.21", "Molecular Formula": "C11H10N2O2", "Melting Point": "200-201 \u00b0C"}}