{"cas_no": "486-84-0", "cn_name": "\u54c8\u5c14\u6ee1\u78b1", "en_name": ["Harman", "9H-Pyrido[3,4-b]indole, 1-methyl-", "2,9-Pyridindole, 1-methyl-", "1-Methyl-9H-pyrido[3,4-b]indole", "Aribine", "Harman", "Harmane", "Locuturine", "1-Methyl-\u03b2-carboline", "Locuturin", "Aribin", "Zygofabagine", "Indoter", "NSC 54439", "1-Methyl-9H-\u03b2-carboline", "1-Methyl-9H-pyrido[2,3-b]indole"], "SMILES": "CC1=C2C(C=3C(N2)=CC=CC3)=CC=N1", "physical_data": {"Molecular Weight": "182.22", "Molecular Formula": "C12H10N2", "Boiling Point": "160-180 \u00b0C @ Press: 0.1 Torr", "Melting Point": "236.5 \u00b0C"}}