{"cas_no": "486-66-8", "cn_name": "\u5927\u8c46\u7519\u5143", "en_name": ["Daidzein", "4H-1-Benzopyran-4-one, 7-hydroxy-3-(4-hydroxyphenyl)-", "Daidzein", "Isoflavone, 4\u2032,7-dihydroxy-", "7-Hydroxy-3-(4-hydroxyphenyl)-4H-1-benzopyran-4-one", "4\u2032,7-Dihydroxyisoflavone", "7,4\u2032-Dihydroxyisoflavone", "Daidzeol", "K 251b", "NPI 031E", "Isoaurostatin", "FW 635I-1", "Daidzin aglycone", "BRD-K 42095107"], "SMILES": "O=C1C=2C(OC=C1C3=CC=C(O)C=C3)=CC(O)=CC2", "physical_data": {"Molecular Weight": "254.24", "Molecular Formula": "C15H10O4", "Melting Point": "323 \u00b0C (decomp)"}}