{"cas_no": "486-35-1", "cn_name": "\u745e\u9999\u7d20", "en_name": ["Daphnetin", "2H-1-Benzopyran-2-one, 7,8-dihydroxy-", "Daphnetin", "Coumarin, 7,8-dihydroxy-", "7,8-Dihydroxy-2H-1-benzopyran-2-one", "Daphnetol", "7,8-Dihydroxycoumarin", "Ruixiangsu", "NSC 633563", "7,8-Dihydroxy-2H-chromen-2-one"], "SMILES": "OC1=C2C(=CC=C1O)C=CC(=O)O2", "physical_data": {"Molecular Weight": "178.14", "Molecular Formula": "C9H6O4", "Melting Point": "262 \u00b0C"}}