{"cas_no": "486-60-2", "cn_name": "\u9999\u67d1\u9187", "en_name": ["Bergaptol", "7H-Furo[3,2-g][1]benzopyran-7-one, 4-hydroxy-", "Bergaptol", "4-Hydroxy-7H-furo[3,2-g][1]benzopyran-7-one", "5-Hydroxypsoralen", "5-Hydroxy-6,7-furanocoumarin", "4-Hydroxybergapten", "NSC 341958"], "SMILES": "OC=1C2=C(C=C3C1C=CO3)OC(=O)C=C2", "physical_data": {"Molecular Weight": "202.16", "Molecular Formula": "C11H6O4", "Melting Point": "275-278 \u00b0C"}}