{"cas_no": "486-28-2", "cn_name": "\u767d\u8721\u6811\u7cbe", "en_name": ["Fraxinol", "2H-1-Benzopyran-2-one, 6-hydroxy-5,7-dimethoxy-", "Coumarin, 6-hydroxy-5,7-dimethoxy-", "Fraxinol", "6-Hydroxy-5,7-dimethoxy-2H-1-benzopyran-2-one", "5,7-Dimethoxy-6-hydroxycoumarin", "6-Hydroxy-5,7-dimethoxycoumarin"], "SMILES": "O(C)C1=C2C(=CC(OC)=C1O)OC(=O)C=C2", "physical_data": {"Molecular Weight": "222.19", "Molecular Formula": "C11H10O5", "Melting Point": "171-172 \u00b0C"}}