{"cas_no": "486-56-6", "cn_name": "\u53ef\u66ff\u5b81", "en_name": ["Cotinine", "2-Pyrrolidinone, 1-methyl-5-(3-pyridinyl)-, (5S)-", "Cotinine", "2-Pyrrolidinone, 1-methyl-5-(3-pyridinyl)-, (S)-", "(5S)-1-Methyl-5-(3-pyridinyl)-2-pyrrolidinone", "(-)-Cotinine", "S-(-)-Cotinine", "(S)-Cotinine", "NIH 10498", "(5S)-1-Methyl-5-pyridin-3-ylpyrrolidin-2-one", "MeSH ID: D003367"], "SMILES": "CN1C(CCC1=O)C=2C=CC=NC2", "physical_data": {"Molecular Weight": "176.22", "Molecular Formula": "C10H12N2O", "Boiling Point": "250 \u00b0C", "Melting Point": "41 \u00b0C"}}