{"cas_no": "486-90-8", "cn_name": "\u9ec4\u534e\u78b1", "en_name": ["(-)-Thermopsine", "7,14-Methano-2H,11H-dipyrido[1,2-a:1\u2032,2\u2032-e][1,5]diazocin-11-one, 1,3,4,6,7,13,14,14a-octahydro-, (7R,14R,14aS)-", "Thermopsine", "7,14-Methano-2H,11H-dipyrido[1,2-a:1\u2032,2\u2032-e][1,5]diazocin-11-one, 1,3,4,6,7,13,14,14a-octahydro-, [7R-(7\u03b1,14\u03b1,14a\u03b1)]-", "(7R,14R,14aS)-1,3,4,6,7,13,14,14a-Octahydro-7,14-methano-2H,11H-dipyrido[1,2-a:1\u2032,2\u2032-e][1,5]diazocin-11-one", "l-Thermopsine", "(-)-Thermopsine", "NSC 21725"], "SMILES": "O=C1N2C(C3CC(C2)C4N(C3)CCCC4)=CC=C1", "physical_data": {"Molecular Weight": "244.33", "Molecular Formula": "C15H20N2O", "Melting Point": "205-205.5 \u00b0C"}}