{"cas_no": "486-21-5", "cn_name": "\u5f02\u55ea\u76ae\u5576", "en_name": ["Isofraxidin", "2H-1-Benzopyran-2-one, 7-hydroxy-6,8-dimethoxy-", "Coumarin, 7-hydroxy-6,8-dimethoxy-", "Umbelliferone, 6,8-dimethoxy-", "7-Hydroxy-6,8-dimethoxy-2H-1-benzopyran-2-one", "Isofraxidin", "6,8-Dimethoxy-7-hydroxycoumarin", "Phytodolor", "NSC 324637"], "SMILES": "O(C)C1=C2C(=CC(OC)=C1O)C=CC(=O)O2", "physical_data": {"Molecular Weight": "222.19", "Molecular Formula": "C11H10O5", "Melting Point": "148-149 \u00b0C"}}