{"cas_no": "486-70-4", "cn_name": "\u7fbd\u6247\u8c46\u78b1", "en_name": ["Lupinine", "2H-Quinolizine-1-methanol, octahydro-, (1R,9aR)-", "Lupinine", "2H-Quinolizine-1-methanol, octahydro-, (1R-trans)-", "(1R,9aR)-Octahydro-2H-quinolizine-1-methanol", "(-)-Lupinine", "(-)-Octahydro-1H-quinolizine-1-methanol", "NSC 21723", "(1R,9aR)-(Octahydroquinolizin-1-yl)methanol", "1-((1R,9aR)-Octahydroquinolizidin-1-yl)methanol", "(R,R)-1-(Hydroxymethyl)octahydroindolizine"], "SMILES": "C(O)C1C2N(CCC1)CCCC2", "physical_data": {"Molecular Weight": "169.26", "Molecular Formula": "C10H19NO", "Boiling Point": "270 \u00b0C", "Melting Point": "70 \u00b0C"}}