{"cas_no": "486-25-9", "cn_name": "9-\u82b4\u916e", "en_name": ["Fluorenone", "9H-Fluoren-9-one", "Fluoren-9-one", "Fluorenone", "NSC 5181", "9H-Fluorene-9-one"], "SMILES": "O=C1C=2C(C=3C1=CC=CC3)=CC=CC2", "physical_data": {"Molecular Weight": "180.20", "Molecular Formula": "C13H8O", "Boiling Point": "341.5 \u00b0C @ Press: 760 Torr", "Melting Point": "84 \u00b0C", "Density": "1.1300 g/cm\u00b3 @ Temp: 99 \u00b0C"}}