{"cas_no": "486-89-5", "cn_name": "\u5b89\u7eb3\u57fa\u6797", "en_name": ["(-)-Anagyrine", "7,14-Methano-2H,11H-dipyrido[1,2-a:1\u2032,2\u2032-e][1,5]diazocin-11-one, 1,3,4,6,7,13,14,14a-octahydro-, (7R,14R,14aR)-", "Anagyrine", "7,14-Methano-2H,11H-dipyrido[1,2-a:1\u2032,2\u2032-e][1,5]diazocin-11-one, 1,3,4,6,7,13,14,14a-octahydro-, [7R-(7\u03b1,14\u03b1,14a\u03b2)]-", "(7R,14R,14aR)-1,3,4,6,7,13,14,14a-Octahydro-7,14-methano-2H,11H-dipyrido[1,2-a:1\u2032,2\u2032-e][1,5]diazocin-11-one", "Monolupine", "Rhombinine", "Rhombinin", "Monolupin", "Anagyrin", "(-)-Anagyrine", "(-)-Rhombinine"], "SMILES": "O=C1N2C(C3CC(C2)C4N(C3)CCCC4)=CC=C1", "physical_data": {"Molecular Weight": "244.33", "Molecular Formula": "C15H20N2O", "Boiling Point": "265 \u00b0C"}}