{"cas_no": "486-73-7", "cn_name": "\u5f02\u55b9\u5549\u7fa7\u9178", "en_name": ["1-Isoquinolinecarboxylic acid", "1-Isoquinolinecarboxylic acid", "Isoquinaldic acid", "1-Carboxyisoquinoline", "NSC 218351"], "SMILES": "C(O)(=O)C=1C2=C(C=CN1)C=CC=C2", "physical_data": {"Molecular Weight": "173.17", "Molecular Formula": "C10H7NO2", "Melting Point": "246-248 \u00b0C"}}