{"cas_no": "486-12-4", "cn_name": "\u66f2\u666e\u7acb\u5b9a", "en_name": ["Triprolidine", "Pyridine, 2-[(1E)-1-(4-methylphenyl)-3-(1-pyrrolidinyl)-1-propen-1-yl]-", "Pyridine, 2-[3-(1-pyrrolidinyl)-1-p-tolylpropenyl]-, (E)-", "Pyridine, 2-[1-(4-methylphenyl)-3-(1-pyrrolidinyl)-1-propenyl]-, (E)-", "Pyridine, 2-[(1E)-1-(4-methylphenyl)-3-(1-pyrrolidinyl)-1-propenyl]-", "2-[(1E)-1-(4-Methylphenyl)-3-(1-pyrrolidinyl)-1-propen-1-yl]pyridine", "Tripyrolidine", "Triprolidine", "trans-2-[3-(1-Pyrrolidinyl)-1-p-tolypropenyl]pyridine", "trans-1-(2-Pyridyl)-3-pyrrolidino-1-p-tolylprop-1-ene", "trans-1-(4-Methylphenyl)-1-(2-pyridyl)-3-pyrrolidinoprop-1-ene", "Triprolidin", "MeSH ID: D014311"], "SMILES": "C(=CCN1CCCC1)(C2=CC=C(C)C=C2)C3=CC=CC=N3", "physical_data": {"Molecular Weight": "278.39", "Molecular Formula": "C19H22N2", "Melting Point": "59-61 \u00b0C"}}