{"cas_no": "486-62-4", "cn_name": "\u8292\u67c4\u82b1\u82f7", "en_name": ["Ononin", "4H-1-Benzopyran-4-one, 7-(\u03b2-D-glucopyranosyloxy)-3-(4-methoxyphenyl)-", "Ononin", "7-(\u03b2-D-Glucopyranosyloxy)-3-(4-methoxyphenyl)-4H-1-benzopyran-4-one", "Formononetin 7-O-glucoside", "Formononetin 7-O-\u03b2-D-glucopyranoside", "7-(\u03b2-Glucosyloxy)-3-(4-methoxyphenyl)isoflavone", "Formononetin 7-O-\u03b2-D-glucoside", "Ononoside", "Formononetin glucoside", "Formononetin 7-glucoside", "7-Hydroxy-4\u2032-methoxyisoflavone-7-O-\u03b2-D-glucoside", "Formononetin 7\u03b2-D-glucopyranoside", "Formononetin-7-O-\u03b2-D-glycoside"], "SMILES": "O=C1C=2C(=CC(OC3OC(CO)C(O)C(O)C3O)=CC2)OC=C1C4=CC=C(OC)C=C4", "physical_data": {"Molecular Weight": "430.40", "Molecular Formula": "C22H22O9", "Melting Point": "245 \u00b0C"}}