{"cas_no": "486-16-8", "cn_name": "\u6c2f\u82ef\u5421\u9187\u80fa", "en_name": ["(\u00b1)-Carbinoxamine", "Ethanamine, 2-[(4-chlorophenyl)-2-pyridinylmethoxy]-N,N-dimethyl-", "Pyridine, 2-[p-chloro-\u03b1-[2-(dimethylamino)ethoxy]benzyl]-", "2-[(4-Chlorophenyl)-2-pyridinylmethoxy]-N,N-dimethylethanamine", "McN-R 73Z", "2-[p-Chloro-\u03b1-[2-(dimethylamino)ethoxy]benzyl]pyridine", "Carbinoxamine", "Paracarbinoxamine", "(\u00b1)-Carbinoxamine", "Paracarinoxamine", "[2-[(4-Chlorophenyl)(pyridin-2-yl)methoxy]ethyl]dimethylamine"], "SMILES": "C(OCCN(C)C)(C1=CC=C(Cl)C=C1)C2=CC=CC=N2", "physical_data": {"Molecular Weight": "290.79", "Molecular Formula": "C16H19ClN2O", "Boiling Point": "160 \u00b0C", "Melting Point": "&lt;25 \u00b0C"}}