{"cas_no": "486-86-2", "cn_name": "N-\u7532\u57fa\u91ce\u975b\u78b1", "en_name": ["(-)-N-Methylcytisine", "1,5-Methano-8H-pyrido[1,2-a][1,5]diazocin-8-one, 1,2,3,4,5,6-hexahydro-3-methyl-, (1R,5S)-", "Cytisine, 12-methyl-", "1,5-Methano-8H-pyrido[1,2-a][1,5]diazocin-8-one, 1,2,3,4,5,6-hexahydro-3-methyl-, (1R)-", "Cytisine, methyl-", "Cytisine, N-methyl-", "(1R,5S)-1,2,3,4,5,6-Hexahydro-3-methyl-1,5-methano-8H-pyrido[1,2-a][1,5]diazocin-8-one", "N-Methylcytisine", "Caulophylline", "Caulophyllin", "(-)-N-Methylcytisine", "3-Methylcytisine", "N-Methylcytizin"], "SMILES": "O=C1N2C(C3CC(C2)CN(C)C3)=CC=C1", "physical_data": {"Molecular Weight": "204.27", "Molecular Formula": "C12H16N2O", "Boiling Point": "140-170 \u00b0C @ Press: 0.01 Torr", "Melting Point": "137 \u00b0C"}}