{"cas_no": "486-39-5", "cn_name": "\u8861\u5dde\u4e4c\u836f\u78b1", "en_name": ["Coclaurine", "7-Isoquinolinol, 1,2,3,4-tetrahydro-1-[(4-hydroxyphenyl)methyl]-6-methoxy-, (1S)-", "Coclaurine", "7-Isoquinolinol, 1,2,3,4-tetrahydro-1-[(4-hydroxyphenyl)methyl]-6-methoxy-, (S)-", "(1S)-1,2,3,4-Tetrahydro-1-[(4-hydroxyphenyl)methyl]-6-methoxy-7-isoquinolinol", "(S)-1-(p-Hydroxybenzyl)-6-methoxy-7-hydroxy-1,2,3,4-tetrahydroisoquinoline", "(S)-1,2,3,4-Tetrahydro-1-(p-hydroxybenzyl)-6-methoxy-7-isoquinolinol", "Machiline", "Coclaurin", "(S)-Coclaurine", "(-)-Coclaurine"], "SMILES": "C(C1C=2C(=CC(OC)=C(O)C2)CCN1)C3=CC=C(O)C=C3", "physical_data": {"Molecular Weight": "285.34", "Molecular Formula": "C17H19NO3", "Melting Point": "220 \u00b0C"}}