{"cas_no": "4860-03-1", "cn_name": "\u6c2f\u4ee3\u5341\u516d\u70f7", "en_name": ["1-Chlorohexadecane", "Hexadecane, 1-chloro-", "1-Chlorohexadecane", "Cetyl chloride", "Hexadecyl chloride", "Palmityl chloride", "1-Hexadecyl chloride", "NSC 43727", "NSC 57106", "n-Hexadecyl chloride"], "SMILES": "C(CCCCCCCC)CCCCCCCCl", "physical_data": {"Molecular Weight": "260.89", "Molecular Formula": "C16H33Cl", "Boiling Point": "322 \u00b0C", "Melting Point": "17.9 \u00b0C", "Density": "0.8384 g/cm\u00b3 @ Temp: 20 \u00b0C"}}