{"cas_no": "4860-93-9", "cn_name": "3-\u82ef\u57fa-2-\u5421\u5511\u5549-5-\u916e", "en_name": ["3-Phenyl-2-pyrazolin-5-one", "3H-Pyrazol-3-one, 2,4-dihydro-5-phenyl-", "2-Pyrazolin-5-one, 3-phenyl-", "2,4-Dihydro-5-phenyl-3H-pyrazol-3-one", "3-Phenyl-\u03942-pyrazolin-5-one", "3-Phenyl-2-pyrazolin-5-one", "3-Phenyl-1H-pyrazol-5(4H)-one", "3-Phenyl-4,5-dihydro-1H-pyrazol-5-one", "3-Phenyl-1,4-dihydropyrazol-5-one"], "SMILES": "O=C1CC(=NN1)C2=CC=CC=C2", "physical_data": {"Molecular Weight": "160.17", "Molecular Formula": "C9H8N2O", "Melting Point": "236 \u00b0C"}}