{"cas_no": "4861-58-9", "cn_name": "2-\u6b63\u620a\u57fa\u567b\u5429", "en_name": ["2-Pentylthiophene", "Thiophene, 2-pentyl-", "2-Pentylthiophene", "2-n-Pentylthiophene"], "SMILES": "C(CCCC)C1=CC=CS1", "physical_data": {"Molecular Weight": "154.27", "Molecular Formula": "C9H14S", "Boiling Point": "118-120 \u00b0C @ Press: 12 Torr", "Melting Point": "-59.0 \u00b0C", "Density": "0.947 g/cm\u00b3 @ Temp: 18.7 \u00b0C"}}