{"cas_no": "4861-85-2", "cn_name": "\u82ef\u4e59\u9178\u5f02\u4e19\u916f", "en_name": ["Isopropyl phenylacetate", "Benzeneacetic acid, 1-methylethyl ester", "Acetic acid, phenyl-, isopropyl ester", "Isopropyl phenylacetate", "Isopropyl benzeneacetate", "1-Methylethyl 2-phenylethanoate"], "SMILES": "C(C(OC(C)C)=O)C1=CC=CC=C1", "physical_data": {"Molecular Weight": "178.23", "Molecular Formula": "C11H14O2", "Boiling Point": "224 \u00b0C @ Press: 760 Torr", "Melting Point": "25-27 \u00b0C"}}