{"cas_no": "4861-19-2", "cn_name": "\u78f7\u9178\u8132", "en_name": ["Urea dihydrogen phosphate", "Urea, phosphate (1:1)", "Urea, compd. with H3PO4", "Carbamide phosphoric acid", "Urea monophosphate", "Urea phosphate", "Urea orthophosphate", "Urea dihydrogen phosphate", "Bepikor 1", "Urea compd. with phosphoric acid (1:1)"], "SMILES": "C(N)(N)=O.P(=O)(O)(O)O", "physical_data": {"Molecular Weight": "", "Molecular Formula": "CH4N2O.H3O4P", "Melting Point": "118-121 \u00b0C"}}