{"cas_no": "4863-91-6", "cn_name": "3-\u6c2f-5-\u6c1f\u82ef\u80fa", "en_name": ["3-Chloro-5-fluorobenzenamine", "Benzenamine, 3-chloro-5-fluoro-", "Aniline, 3-chloro-5-fluoro-", "3-Chloro-5-fluorobenzenamine", "3-Chloro-5-fluoroaniline"], "SMILES": "ClC1=CC(F)=CC(N)=C1", "physical_data": {"Molecular Weight": "145.56", "Molecular Formula": "C6H5ClFN", "Boiling Point": "98 \u00b0C @ Press: 19 Torr"}}