{"cas_no": "486460-32-6", "cn_name": "\u897f\u4ed6\u5217\u6c40", "en_name": ["Sitagliptin", "1-Butanone, 3-amino-1-[5,6-dihydro-3-(trifluoromethyl)-1,2,4-triazolo[4,3-a]pyrazin-7(8H)-yl]-4-(2,4,5-trifluorophenyl)-, (3R)-", "1,2,4-Triazolo[4,3-a]pyrazine, 7-[(3R)-3-amino-1-oxo-4-(2,4,5-trifluorophenyl)butyl]-5,6,7,8-tetrahydro-3-(trifluoromethyl)-", "(3R)-3-Amino-1-[5,6-dihydro-3-(trifluoromethyl)-1,2,4-triazolo[4,3-a]pyrazin-7(8H)-yl]-4-(2,4,5-trifluorophenyl)-1-butanone", "(2R)-4-Oxo-4-[3-(trifluoromethyl)-5,6-dihydro-[1,2,4]triazolo[4,3-a]pyrazin-7(8H)-yl]-1-(2,4,5-trifluorophenyl)butan-2-amine", "Sitagliptin", "3(R)-Amino-1-[3-(trifluoromethyl)-5,6,7,8-tetrahydro-[1,2,4]triazolo[4,3-a]pyrazin-7-yl]-4-(2,4,5-trifluorophenyl)butan-1-one", "7-[(3R)-3-Amino-1-oxo-4-(2,4,5-trifluorophenyl)butyl]-5,6,7,8-tetrahydro-3-(trifluoromethyl)-1,2,4-triazolo[4,3-a]pyrazine", "(3R)-3-Amino-1-[3-(trifluoromethyl)-5H,6H,7H,8H-[1,2,4]triazolo[4,3-a]pyrazin-7-yl]-4-(2,4,5-trifluorophenyl)butan-1-one", "(3R)-3-Amino-1-[3-(trifluoromethyl)-6,8-dihydro-5H-[1,2,4]triazolo[4,3-a]pyrazin-7-yl]-4-(2,4,5-trifluorophenyl)butan-1-one", "Xelevia", "Tesavel", "Ristaben", "Januvia FC"], "SMILES": "C(F)(F)(F)C=1N2C(CN(C(CC(CC3=C(F)C=C(F)C(F)=C3)N)=O)CC2)=NN1", "physical_data": {"Molecular Weight": "407.31", "Molecular Formula": "C16H15F6N5O", "Melting Point": "114.1-115.7 \u00b0C"}}