{"cas_no": "4864-61-3", "cn_name": "\u4e59\u9178-3-\u8f9b\u9187\u916f", "en_name": ["3-Octyl acetate", "3-Octanol, 3-acetate", "3-Octanol, acetate", "3-Octyl acetate", "Oct-3-yl ethanoate", "3-Acetoxyoctane", "(\u00b1)-3-Octyl acetate", "(\u00b1)-3-Acetoxyoctane"], "SMILES": "C(CCCCC)(OC(C)=O)CC", "physical_data": {"Molecular Weight": "172.26", "Molecular Formula": "C10H20O2", "Boiling Point": "90 \u00b0C @ Press: 10 Torr", "Density": "0.8646 g/cm\u00b3 @ Temp: 15 \u00b0C"}}