{"cas_no": "486424-37-7", "cn_name": "3-\u6c28\u57fa-6-\u6eb4\u5421\u55ea-2-\u7532\u9178", "en_name": ["3-Amino-6-bromo-2-pyrazinecarboxylic acid", "2-Pyrazinecarboxylic acid, 3-amino-6-bromo-", "Pyrazinecarboxylic acid, 3-amino-6-bromo-", "3-Amino-6-bromo-2-pyrazinecarboxylic acid", "3-Amino-6-bromopyrazine-2-carboxylic acid", "2-Amino-5-bromopyrazine-3-carboxylic acid"], "SMILES": "C(O)(=O)C=1C(N)=NC=C(Br)N1", "physical_data": {"Molecular Weight": "218.01", "Molecular Formula": "C5H4BrN3O2", "Melting Point": "185-186 \u00b0C (decomp)"}}