{"cas_no": "486460-23-5", "cn_name": "\u897f\u4ed6\u5217\u6c40N-BOC \u6742\u8d28", "en_name": ["1,1-Dimethylethyl N-[(1R)-3-[5,6-dihydro-3-(trifluoromethyl)-1,2,4-triazolo[4,3-a]pyrazin-7(8H)-yl]-3-oxo-1-[(2,4,5-trifluorophenyl)methyl]propyl]carbamate", "Carbamic acid, N-[(1R)-3-[5,6-dihydro-3-(trifluoromethyl)-1,2,4-triazolo[4,3-a]pyrazin-7(8H)-yl]-3-oxo-1-[(2,4,5-trifluorophenyl)methyl]propyl]-, 1,1-dimethylethyl ester", "Carbamic acid, [(1R)-3-[5,6-dihydro-3-(trifluoromethyl)-1,2,4-triazolo[4,3-a]pyrazin-7(8H)-yl]-3-oxo-1-[(2,4,5-trifluorophenyl)methyl]propyl]-, 1,1-dimethylethyl ester", "1,1-Dimethylethyl N-[(1R)-3-[5,6-dihydro-3-(trifluoromethyl)-1,2,4-triazolo[4,3-a]pyrazin-7(8H)-yl]-3-oxo-1-[(2,4,5-trifluorophenyl)methyl]propyl]carbamate", "N-BOC-Sitagliptin", "tert-Butyl [(R)-4-oxo-4-(3-trifluoromethyl-5,6-dihydro-[1,2,4]triazolo[4,3-a]pyrazin-7(8H)-yl)-1-(2,4,5-trifluorophenyl)butan-2-yl]carbamate", "tert-Butyl (R)-(4-oxo-4-(3-(trifluoromethyl)-5,6-dihydro-[1,2,4]triazolo[4,3-a]pyrazine-7(8H)-yl)-1-(2,4,5-trifluorophenyl)butan-2-yl)carbamate"], "SMILES": "C(F)(F)(F)C=1N2C(CN(C(CC(CC3=C(F)C=C(F)C(F)=C3)NC(OC(C)(C)C)=O)=O)CC2)=NN1", "physical_data": {"Molecular Weight": "507.43", "Molecular Formula": "C21H23F6N5O3", "Melting Point": "188-191 \u00b0C"}}