{"cas_no": "4865-84-3", "cn_name": "1,2-\u82ef\u5e76\u5f02\u5511-3-\u4e59\u9178", "en_name": ["1,2-Benzisoxazole-3-acetic acid", "1,2-Benzisoxazole-3-acetic acid", "1,2-Benzisoxazol-3-ylacetic acid", "NSC 179803", "(Benzo[d]isoxazol-3-yl)acetic acid", "2-(Benzisoxazol-3-yl)acetic acid", "Benzisoxazol-3-ylacetic acid", "2-(Benzo[d]isoxazol-3-yl)acetic acid", "(1,2-Benzoxazol-3-yl)acetic acid", "2-(1,2-Benzoxazol-3-yl)acetic acid", "2-(1,2-Benzisoxazol-3-yl)acetic acid"], "SMILES": "C(C(O)=O)C=1C=2C(ON1)=CC=CC2", "physical_data": {"Molecular Weight": "177.16", "Molecular Formula": "C9H7NO3", "Melting Point": "120-125 \u00b0C"}}