{"cas_no": "4867-37-2", "cn_name": "3-\u6c2f\u8334\u9999\u786b\u919a", "en_name": ["1-Chloro-3-(methylthio)benzene", "Benzene, 1-chloro-3-(methylthio)-", "Sulfide, m-chlorophenyl methyl", "1-Chloro-3-(methylthio)benzene", "m-Chlorophenyl methyl sulfide", "m-Chlorothioanisole", "Methyl m-chlorophenyl sulfide", "3-Chlorophenyl methyl sulfide", "Methyl 3-chlorophenyl sulfide", "NSC 133796", "3-(Methylthio)-1-chlorobenzene", "3-Chlorothioanisole", "1-Chloro-3-methylthiobenzene", "3-Methylthiophenyl chloride", "1-Chloro-3-(methylsulfanyl)benzene", "1-Chloro-3-methylsulfanylbenzene"], "SMILES": "S(C)C1=CC(Cl)=CC=C1", "physical_data": {"Molecular Weight": "158.65", "Molecular Formula": "C7H7ClS", "Boiling Point": "112 \u00b0C @ Press: 16 Torr"}}