{"cas_no": "4869-59-4", "cn_name": "3-\u5def\u57fa\u82ef\u7532\u9178", "en_name": ["3-Mercaptobenzoic acid", "Benzoic acid, 3-mercapto-", "Benzoic acid, m-mercapto-", "3-Mercaptobenzoic acid", "m-Mercaptobenzoic acid", "NSC 32021", "3-Sulfanylbenzoic acid"], "SMILES": "C(O)(=O)C1=CC(S)=CC=C1", "physical_data": {"Molecular Weight": "154.19", "Molecular Formula": "C7H6O2S", "Melting Point": "146-147 \u00b0C"}}