{"cas_no": "487-49-0", "cn_name": "1-(2,4-\u4e8c\u7f9f\u82ef\u57fa)-2-(4-\u7532\u6c27\u82ef\u57fa)\u4e59\u916e", "en_name": ["1-(2,4-Dihydroxyphenyl)-2-(4-methoxyphenyl)ethanone", "Ethanone, 1-(2,4-dihydroxyphenyl)-2-(4-methoxyphenyl)-", "Acetophenone, 2\u2032,4\u2032-dihydroxy-2-(p-methoxyphenyl)-", "1-(2,4-Dihydroxyphenyl)-2-(4-methoxyphenyl)ethanone", "Ononetin", "\u03b1-(4-Methoxyphenyl)-2,4-dihydroxyacetophenone", "2,4-Dihydroxyphenyl 4\u2032-methoxybenzyl ketone", "NSC 89759", "1-(2,4-Dihydroxyphenyl)-2-(4-methoxyphenyl)ethan-1-one"], "SMILES": "C(CC1=CC=C(OC)C=C1)(=O)C2=C(O)C=C(O)C=C2", "physical_data": {"Molecular Weight": "258.27", "Molecular Formula": "C15H14O4", "Melting Point": "157 \u00b0C"}}