{"cas_no": "487-90-1", "cn_name": "\u7d2b\u8cea\u81bd\u7d20\u539f", "en_name": ["Porphobilinogen", "1H-Pyrrole-3-propanoic acid, 5-(aminomethyl)-4-(carboxymethyl)-", "Pyrrole-3-propionic acid, 5-(aminomethyl)-4-(carboxymethyl)-", "5-(Aminomethyl)-4-(carboxymethyl)-1H-pyrrole-3-propanoic acid", "PBG", "Porphobilinogen", "3-[5-(Aminomethyl)-4-(carboxymethyl)-1H-pyrrol-3-yl]propanoic acid hydrate", "MeSH ID: D011162"], "SMILES": "C(C(O)=O)C=1C(CCC(O)=O)=CNC1CN", "physical_data": {"Molecular Weight": "226.23", "Molecular Formula": "C10H14N2O4", "Melting Point": "170-174 \u00b0C (decomp)"}}