{"cas_no": "487-11-6", "cn_name": "\u6984\u9999\u7d20", "en_name": ["Elemicin", "Benzene, 1,2,3-trimethoxy-5-(2-propen-1-yl)-", "Elemicin", "Benzene, 5-allyl-1,2,3-trimethoxy-", "Benzene, 1,2,3-trimethoxy-5-(2-propenyl)-", "1,2,3-Trimethoxy-5-(2-propen-1-yl)benzene", "3,4,5-Trimethoxyallylbenzene", "4-Allyl-1,2,6-trimethoxybenzene", "5-(Prop-2-enyl)-1,2,3-trimethoxybenzene", "1-Allyl-3,4,5-trimethoxybenzene", "1,2,3-Trimethoxy-5-(2-propenyl)benzene", "5-Allyl-1,2,3-trimethoxybenzene", "1-(3,4,5-Trimethoxyphenyl)-2-propene", "NSC 16704"], "SMILES": "O(C)C1=C(OC)C=C(CC=C)C=C1OC", "physical_data": {"Molecular Weight": "208.25", "Molecular Formula": "C12H16O3", "Boiling Point": "152-156 \u00b0C", "Density": "1.0630 g/cm\u00b3 @ Temp: 20 \u00b0C"}}