{"cas_no": "487-48-9", "cn_name": "\u918b\u6c34\u6768\u80fa", "en_name": ["Salacetamide", "Benzamide, N-acetyl-2-hydroxy-", "Salicylamide, N-acetyl-", "N-Acetyl-2-hydroxybenzamide", "N-Acetylsalicylamide", "Salacetamide", "Arthrisin", "Ethrisin", "Labazyl", "Nacemide", "Rixamone", "Salicyl", "Acetsalicylamide", "Actylamide", "2-Hydroxy-N-acetylbenzamide", "NSC 40153", "NSC 525079", "NSC 631657"], "SMILES": "C(NC(C)=O)(=O)C1=C(O)C=CC=C1", "physical_data": {"Molecular Weight": "179.17", "Molecular Formula": "C9H9NO3", "Melting Point": "148 \u00b0C", "Density": "1.39 g/cm\u00b3"}}