{"cas_no": "487-41-2", "cn_name": "\u8fde\u7fd8\u82f7", "en_name": ["Phillyrin", "\u03b2-D-Glucopyranoside, 4-[(1S,3aR,4R,6aR)-4-(3,4-dimethoxyphenyl)tetrahydro-1H,3H-furo[3,4-c]furan-1-yl]-2-methoxyphenyl", "Phillyrin", "Phyllyrin", "\u03b2-D-Glucopyranoside, 4-[4-(3,4-dimethoxyphenyl)tetrahydro-1H,3H-furo[3,4-c]furan-1-yl]-2-methoxyphenyl, [1S-(1\u03b1,3a\u03b1,4\u03b2,6a\u03b1)]-", "1H,3H-Furo[3,4-c]furan, \u03b2-D-glucopyranoside deriv.", "4-[(1S,3aR,4R,6aR)-4-(3,4-Dimethoxyphenyl)tetrahydro-1H,3H-furo[3,4-c]furan-1-yl]-2-methoxyphenyl \u03b2-D-glucopyranoside", "Phillyroside", "Phillygenin \u03b2-D-glucopyranoside"], "SMILES": "O(C)C=1C=C(C2C3C(C(OC3)C4=CC(OC)=C(OC)C=C4)CO2)C=CC1OC5OC(CO)C(O)C(O)C5O", "physical_data": {"Molecular Weight": "534.55", "Molecular Formula": "C27H34O11", "Melting Point": "166-168 \u00b0C"}}