{"cas_no": "487-54-7", "cn_name": "2-\u7f9f\u57fa\u9a6c\u5c3f\u9178", "en_name": ["Salicyluric acid", "Glycine, N-(2-hydroxybenzoyl)-", "Salicyluric acid", "Hippuric acid, o-hydroxy-", "N-(2-Hydroxybenzoyl)glycine", "o-Hydroxyhippuric acid", "(2-Hydroxybenzoyl)glycine", "N-Salicyloylglycine", "Salicyloylglycine", "N-(o-Hydroxybenzoyl)glycine", "2-Hydroxyhippuric acid", "NSC 524135", "2-[(2-Hydroxyphenyl)formamido]acetic acid", "2-(2-Hydroxybenzamido)acetic acid"], "SMILES": "C(NCC(O)=O)(=O)C1=C(O)C=CC=C1", "physical_data": {"Molecular Weight": "195.17", "Molecular Formula": "C9H9NO4", "Melting Point": "168 \u00b0C"}}