{"cas_no": "487-69-4", "cn_name": "2,4-\u4e8c\u7f9f\u57fa-6-\u7532\u57fa\u82ef\u7532\u919b", "en_name": ["Orcylaldehyde", "Benzaldehyde, 2,4-dihydroxy-6-methyl-", "\u03b2-Resorcylaldehyde, 6-methyl-", "2,4-Dihydroxy-6-methylbenzaldehyde", "Orcylaldehyde", "o-Orsellinaldehyde", "Orcinaldehyde", "4-Formyl-5-methylresorcinol", "2-Formyl-5-hydroxy-3-methylphenol", "NSC 72346", "4-Formyl-5-methylbenzene-1,3-diol"], "SMILES": "C(=O)C1=C(C)C=C(O)C=C1O", "physical_data": {"Molecular Weight": "152.15", "Molecular Formula": "C8H8O3", "Melting Point": "182-183 \u00b0C"}}