{"cas_no": "487-58-1", "cn_name": "\u523a\u6850\u78b1", "en_name": ["(+)-Hypaphorine", "1H-Indole-3-ethanaminium, \u03b1-carboxy-N,N,N-trimethyl-, inner salt, (\u03b1S)-", "Hypaphorine", "Ammonium, (1-carboxy-2-indol-3-ylethyl)trimethyl-, hydroxide, inner salt", "1H-Indole-3-ethanaminium, \u03b1-carboxy-N,N,N-trimethyl-, inner salt, (S)-", "(1-Carboxy-2-indol-3-ylethyl)trimethylammonium hydroxide, inner salt", "Tryptophan, trimethylbetaine", "Lenticin", "Lenticine", "Tryptophan betaine", "L-Hypaphorine", "Glyyunnanenine", "(+)-Hypaphorine"], "SMILES": "C(C([N+](C)(C)C)C([O-])=O)C=1C=2C(NC1)=CC=CC2", "physical_data": {"Molecular Weight": "", "Molecular Formula": "C14H18N2O2", "Melting Point": "255 \u00b0C (decomp)"}}