{"cas_no": "487-89-8", "cn_name": "3-\u5432\u54da\u7532\u919b", "en_name": ["Indole-3-carboxaldehyde", "1H-Indole-3-carboxaldehyde", "Indole-3-carboxaldehyde", "Indole-3-aldehyde", "Indole-3-carbaldehyde", "\u03b2-Indolylaldehyde", "3-Formylindole", "3-Formyl-1H-indole", "NSC 10118", "1H-Indole-3-aldehyde", "1H-Indole-3-carbaldehyde", "3-Indolylformaldehyde", "1H-Indole-3-methanal", "Indole-3-carboxylaldehyde", "Indole-3-formaldehyde", "1H-Indol-3-yl carboxaldehyde"], "SMILES": "C(=O)C=1C=2C(NC1)=CC=CC2", "physical_data": {"Molecular Weight": "145.16", "Molecular Formula": "C9H7NO", "Melting Point": "196.5 \u00b0C"}}