{"cas_no": "487-93-4", "cn_name": "N,N-\u4e8c\u7532\u8166\u6fc0\u80fa", "en_name": ["Bufotenine", "1H-Indol-5-ol, 3-[2-(dimethylamino)ethyl]-", "Bufotenine", "Indol-5-ol, 3-[2-(dimethylamino)ethyl]-", "3-[2-(Dimethylamino)ethyl]-1H-indol-5-ol", "Bufotenin", "Cinobufotenine", "3-(\u03b2-Dimethylaminoethyl)-5-hydroxyindole", "N,N-Dimethyl-5-hydroxytryptamine", "N,N-Dimethylserotonin", "Mappine", "5-Hydroxy-N,N-dimethyltryptamine", "Dimethylserotonin", "3-(2-Dimethylaminoethyl)indol-5-ol", "Mappin", "NSC 89593", "MeSH ID: D002027"], "SMILES": "C(CN(C)C)C=1C=2C(NC1)=CC=C(O)C2", "physical_data": {"Molecular Weight": "204.27", "Molecular Formula": "C12H16N2O", "Melting Point": "146.5 \u00b0C"}}