{"cas_no": "487-79-6", "cn_name": "\u7ea2\u85fb\u6c28\u9178, **", "en_name": ["\u03b1-Kainic acid", "3-Pyrrolidineacetic acid, 2-carboxy-4-(1-methylethenyl)-, (2S,3S,4S)-", "3-Pyrrolidineacetic acid, 2-carboxy-4-isopropenyl-", "3-Pyrrolidineacetic acid, 2-carboxy-4-(1-methylethenyl)-, [2S-(2\u03b1,3\u03b2,4\u03b2)]-", "(2S,3S,4S)-2-Carboxy-4-(1-methylethenyl)-3-pyrrolidineacetic acid", "Digenin", "Helminal", "\u03b1-Kainic acid", "Digenic acid", "L-\u03b1-Kainic acid", "(-)-\u03b1-Kainic acid", "(2S,3S,4S)-2-Carboxy-4-isopropenylpyrrolidine-3-acetic acid", "(-)-Kainic acid", "Kainic acid", "MeSH ID: D007608"], "SMILES": "C(C(O)=O)C1C(C(C)=C)CNC1C(O)=O", "physical_data": {"Molecular Weight": "213.23", "Molecular Formula": "C10H15NO4", "Melting Point": "251 \u00b0C (decomp)"}}