{"cas_no": "487-88-7", "cn_name": "\u6c2e\u8bd5\u5242", "en_name": ["Nitron", "4H-1,2,4-Triazolium, 1,4-diphenyl-3-(phenylamino)-, inner salt", "1H-1,2,4-Triazolium, 1,4-diphenyl-3-(phenylamino)-, hydroxide, inner salt", "Nitron", "1H-1,2,4-Triazolium, 1,4-diphenyl-3-(phenylamino)-, inner salt", "Nitron (analytical reagent)", "NSC 5038"], "SMILES": "[N-](C=1[N+](=CN(N1)C2=CC=CC=C2)C3=CC=CC=C3)C4=CC=CC=C4", "physical_data": {"Molecular Weight": "", "Molecular Formula": "C20H16N4", "Melting Point": "186-188 \u00b0C (decomp)"}}