{"cas_no": "487-27-4", "cn_name": "\u5f02\u4e1c\u83a8\u83ea\u9187", "en_name": ["Oscine", "2,5-Methano-2H-furo[3,2-b]pyrrol-6-ol, hexahydro-4-methyl-, (2R,3aS,5R,6R,6aR)-rel-", "1\u03b2H,5\u03b2H-Tropan-6\u03b1-ol, 3\u03b2,7\u03b2-epoxy-", "Scopoline", "2,5-Methano-2H-furo[3,2-b]pyrrol-6-ol, hexahydro-4-methyl-, (2\u03b1,3a\u03b2,5\u03b1,6\u03b2,6a\u03b2)-", "rel-(2R,3aS,5R,6R,6aR)-Hexahydro-4-methyl-2,5-methano-2H-furo[3,2-b]pyrrol-6-ol", "Oscine", "Oscin", "Scopolin", "(\u00b1)-Scopoline"], "SMILES": "OC1C2C3N(C)C1CC(O2)C3", "physical_data": {"Molecular Weight": "155.19", "Molecular Formula": "C8H13NO2", "Boiling Point": "248 \u00b0C", "Melting Point": "108.5 \u00b0C"}}