{"cas_no": "487-24-1", "cn_name": "\u8f66\u8f74\u8349\u9187", "en_name": ["Pratol", "4H-1-Benzopyran-4-one, 7-hydroxy-2-(4-methoxyphenyl)-", "Flavone, 7-hydroxy-4\u2032-methoxy-", "7-Hydroxy-2-(4-methoxyphenyl)-4H-1-benzopyran-4-one", "C.I. 75570", "7-Hydroxy-4\u2032-methoxyflavone", "Pratol", "NSC 123414"], "SMILES": "O=C1C=2C(OC(=C1)C3=CC=C(OC)C=C3)=CC(O)=CC2", "physical_data": {"Molecular Weight": "268.26", "Molecular Formula": "C16H12O4", "Melting Point": "263-263.5 \u00b0C"}}