{"cas_no": "487-19-4", "cn_name": "\u4e8c\u70ef\u70df\u78b1", "en_name": ["Nicotyrine", "Pyridine, 3-(1-methyl-1H-pyrrol-2-yl)-", "Pyridine, 3-(1-methylpyrrol-2-yl)-", "Nicotyrine", "3-(1-Methyl-1H-pyrrol-2-yl)pyridine", "\u03b2-Nicotyrine", "3-(1-Methyl-2-pyrrolyl)pyridine", "3,2\u2032-Nicotyrine", "1-Methyl-2-(3-pyridyl)pyrrole", "NSC 127943", "NSC 407276"], "SMILES": "CN1C(=CC=C1)C=2C=CC=NC2", "physical_data": {"Molecular Weight": "158.20", "Molecular Formula": "C10H10N2", "Boiling Point": "281 \u00b0C", "Melting Point": "168-169 \u00b0C"}}