{"cas_no": "487-51-4", "cn_name": "2-\u7532\u57fa-4-\u7fb0\u57fa-2-\u73af\u5df1\u70ef-1-\u7fa7\u9178\u4e59\u916f", "en_name": ["Ethyl 2-methyl-4-oxo-2-cyclohexene-1-carboxylate", "2-Cyclohexene-1-carboxylic acid, 2-methyl-4-oxo-, ethyl ester", "Ethyl 2-methyl-4-oxo-2-cyclohexene-1-carboxylate", "Hagemann's ester", "Ethyl 2-methyl-4-oxo-2-cyclohexenecarboxylate", "4-Carbethoxy-3-methyl-2-cyclohexen-1-one", "2-Methyl-4-oxo-2-cyclohexene-1-carboxylic acid ethyl ester", "4-Ethoxycarbonyl-3-methyl-2-cyclohexen-1-one", "Ethyl 4-oxo-2-methyl-2-cyclohexenecarboxylate", "NSC 60294"], "SMILES": "C(OCC)(=O)C1C(C)=CC(=O)CC1", "physical_data": {"Molecular Weight": "182.22", "Molecular Formula": "C10H14O3", "Boiling Point": "135-136 \u00b0C @ Press: 9 Torr", "Density": "1.0702 g/cm\u00b3 @ Temp: 20 \u00b0C"}}