{"cas_no": "487-21-8", "cn_name": "2,4-\u4e8c\u7f9f\u57fa\u8776\u5576", "en_name": ["Lumazine", "2,4(1H,3H)-Pteridinedione", "Lumazine", "2,4(3H,8H)-Pteridinedione", "2,4-Pteridinediol", "2,4-Dihydroxypteridine", "Pteridine-2,4-dione", "Lumazin", "NSC 225113", "NSC 41801", "1,2,3,4-Tetrahydropteridine-2,4-dione", "2,3,4,8-Tetrahydropteridine-2,4-dione", "1H-Pteridine-2,4-dione"], "SMILES": "O=C1C=2C(=NC(=O)N1)NC=CN2", "physical_data": {"Molecular Weight": "164.12", "Molecular Formula": "C6H4N4O2", "Melting Point": "348.5 \u00b0C"}}