{"cas_no": "487-26-3", "cn_name": "\u9ec4\u70f7\u916e", "en_name": ["(\u00b1)-Flavanone", "4H-1-Benzopyran-4-one, 2,3-dihydro-2-phenyl-", "Flavanone", "2,3-Dihydro-2-phenyl-4H-1-benzopyran-4-one", "2-Phenyl-4-chromanone", "4-Flavanone", "(\u00b1)-Flavanone", "dl-Flavanone", "NSC 50393", "2-Phenyl-3,4-dihydro-2H-benzopyran-4-one", "2-Phenyl-3,4-dihydrobenzopyran-4-one", "2-Phenyldihydrobenzopyran-4-one", "2-Phenyl-3,4-dihydro-2H-1-benzopyran-4-one", "2-Phenyl-2,3-dihydrochromen-4-one"], "SMILES": "O=C1C=2C(OC(C1)C3=CC=CC=C3)=CC=CC2", "physical_data": {"Molecular Weight": "224.25", "Molecular Formula": "C15H12O2", "Melting Point": "77 \u00b0C", "Density": "0.90 g/cm\u00b3"}}