{"cas_no": "487-52-5", "cn_name": "\u7d2b\u94c6\u56e0", "en_name": ["Butein", "2-Propen-1-one, 1-(2,4-dihydroxyphenyl)-3-(3,4-dihydroxyphenyl)-, (2E)-", "Chalcone, 2\u2032,3,4,4\u2032-tetrahydroxy-", "Butein", "2-Propen-1-one, 1-(2,4-dihydroxyphenyl)-3-(3,4-dihydroxyphenyl)-, (E)-", "(2E)-1-(2,4-Dihydroxyphenyl)-3-(3,4-dihydroxyphenyl)-2-propen-1-one", "(E)-1-(2,4-Dihydroxyphenyl)-3-(3,4-hydroxyphenyl)prop-2-en-1-one"], "SMILES": "C(C=CC1=CC(O)=C(O)C=C1)(=O)C2=C(O)C=C(O)C=C2", "physical_data": {"Molecular Weight": "272.25", "Molecular Formula": "C15H12O5", "Melting Point": "212-215 \u00b0C"}}