{"cas_no": "487-36-5", "cn_name": "\u677e\u8102\u7d20", "en_name": ["(+)-Pinoresinol", "Phenol, 4,4\u2032-[(1S,3aR,4S,6aR)-tetrahydro-1H,3H-furo[3,4-c]furan-1,4-diyl]bis[2-methoxy-", "Pinoresinol", "Phenol, 4,4\u2032-(tetrahydro-1H,3H-furo[3,4-c]furan-1,4-diyl)bis[2-methoxy-, [1S-(1\u03b1,3a\u03b1,4\u03b1,6a\u03b1)]-", "Phenol, 4,4\u2032-(tetrahydro-1H,3H-furo[3,4-c]furan-1,4-diyl)bis[2-methoxy-, stereoisomer", "1H,3H-Furo[3,4-c]furan, phenol deriv.", "4,4\u2032-[(1S,3aR,4S,6aR)-Tetrahydro-1H,3H-furo[3,4-c]furan-1,4-diyl]bis[2-methoxyphenol]", "(+)-Pinoresinol", "d-Pinoresinol", "NSC 35444"], "SMILES": "O(C)C=1C=C(C2C3C(C(OC3)C4=CC(OC)=C(O)C=C4)CO2)C=CC1O", "physical_data": {"Molecular Weight": "358.39", "Molecular Formula": "C20H22O6", "Melting Point": "112 \u00b0C", "Density": "1.385 g/cm\u00b3"}}