{"cas_no": "487-03-6", "cn_name": "\u54c8\u5c14\u915a", "en_name": ["Harmol", "9H-Pyrido[3,4-b]indol-7-ol, 1-methyl-", "Harmol", "1-Methyl-9H-pyrido[3,4-b]indol-7-ol", "NSC 72292"], "SMILES": "CC1=C2C(C=3C(N2)=CC(O)=CC3)=CC=N1", "physical_data": {"Molecular Weight": "198.22", "Molecular Formula": "C12H10N2O", "Melting Point": "304-307 \u00b0C"}}