{"cas_no": "487-06-9", "cn_name": "5,7-\u4e8c\u7532\u6c27\u57fa\u9999\u8c46\u7d20", "en_name": ["5,7-Dimethoxycoumarin", "2H-1-Benzopyran-2-one, 5,7-dimethoxy-", "Citropten", "Coumarin, 5,7-dimethoxy-", "5,7-Dimethoxy-2H-1-benzopyran-2-one", "Citroptene", "5,7-Dimethoxycoumarin", "Limetin", "Limettin", "Citraptene", "NSC 102793", "NSC 217987", "5,7-Dimethoxy-2H-chromen-2-one", "Ciproten", "5,7-Dimethoxy-2H-benzopyran-2-one"], "SMILES": "O(C)C1=C2C(=CC(OC)=C1)OC(=O)C=C2", "physical_data": {"Molecular Weight": "206.19", "Molecular Formula": "C11H10O4", "Boiling Point": "35-60 \u00b0C", "Melting Point": "149 \u00b0C"}}