{"cas_no": "487-68-3", "cn_name": "2,4,6-\u4e09\u7532\u57fa\u82ef\u7532\u919b", "en_name": ["2,4,6-Trimethylbenzaldehyde", "Benzaldehyde, 2,4,6-trimethyl-", "2,4,6-Trimethylbenzaldehyde", "Mesitylaldehyde", "2-Mesitylenecarboxaldehyde", "Mesitaldehyde", "Mesitylenecarboxaldehyde", "NSC 29094"], "SMILES": "C(=O)C1=C(C)C=C(C)C=C1C", "physical_data": {"Molecular Weight": "148.20", "Molecular Formula": "C10H12O", "Boiling Point": "238.5 \u00b0C", "Melting Point": "14 \u00b0C", "Density": "1.0987 g/cm\u00b3 @ Temp: 20 \u00b0C"}}