{"cas_no": "487-70-7", "cn_name": "\u95f4\u82ef\u4e09\u915a\u7532\u919b", "en_name": ["2,4,6-Trihydroxybenzaldehyde", "Benzaldehyde, 2,4,6-trihydroxy-", "2,4,6-Trihydroxybenzaldehyde", "Phloroglucinaldehyde", "Formylphloroglucinol", "NSC 38610", "WLH 113", "4,6-Dihydroxysalicylaldehyde"], "SMILES": "C(=O)C1=C(O)C=C(O)C=C1O", "physical_data": {"Molecular Weight": "154.12", "Molecular Formula": "C7H6O4", "Melting Point": "292-295 \u00b0C (decomp)"}}