{"cas_no": "4870-65-9", "cn_name": "alpha-\u6eb4\u82ef\u4e59\u9178", "en_name": ["Bromophenylacetic acid", "Benzeneacetic acid, \u03b1-bromo-", "Acetic acid, bromophenyl-", "\u03b1-Bromobenzeneacetic acid", "Bromophenylacetic acid", "\u03b1-Bromophenylacetic acid", "2-Bromo-2-phenylacetic acid", "\u03b1-Bromo-\u03b1-phenylacetic acid", "(\u00b1)-\u03b1-Bromobenzeneacetic acid", "DL-\u03b1-Bromophenylacetic acid", "(\u00b1)-\u03b1-Bromophenylacetic acid", "NSC 59241", "(RS)-2-Bromo-2-phenylacetic acid"], "SMILES": "C(C(O)=O)(Br)C1=CC=CC=C1", "physical_data": {"Molecular Weight": "215.04", "Molecular Formula": "C8H7BrO2", "Boiling Point": "120-121 \u00b0C @ Press: 0.02 Torr", "Melting Point": "87 \u00b0C"}}