{"cas_no": "4871-97-0", "cn_name": "\u83aa\u672f\u9187", "en_name": ["(-)-Curcumol", "6H-3a,6-Epoxyazulen-6-ol, octahydro-3-methyl-8-methylene-5-(1-methylethyl)-, (3S,3aS,5S,6R,8aS)-", "5\u03b2-Guai-10(14)-en-8-ol, 5,8-epoxy-, (-)-", "6H-3a,6-Epoxyazulen-6-ol, octahydro-3-methyl-8-methylene-5-(1-methylethyl)-, [3S-(3\u03b1,3a\u03b1,5\u03b2,6\u03b2,8a\u03b2)]-", "6H-3a,6-Epoxyazulen-6-ol, octahydro-5-isopropyl-3-methyl-8-methylene-", "(3S,3aS,5S,6R,8aS)-Octahydro-3-methyl-8-methylene-5-(1-methylethyl)-6H-3a,6-epoxyazulen-6-ol", "Curcumol", "(-)-Curcumol", "8\u03b1-Hydroxy-1\u03b1,4\u03b1,7\u03b2H-guai-10(15)-en-5\u03b2,8\u03b2-endoxide"], "SMILES": "CC1C23C(C(=C)CC(O)(O2)C(C(C)C)C3)CC1", "physical_data": {"Molecular Weight": "236.35", "Molecular Formula": "C15H24O2", "Melting Point": "141-142 \u00b0C"}}