{"cas_no": "4873-09-0", "cn_name": "\u5bf9\u7532\u82ef\u78fa\u9178\u70ef\u4e19\u916f", "en_name": ["2-Propen-1-yl 4-methylbenzenesulfonate", "Benzenesulfonic acid, 4-methyl-, 2-propen-1-yl ester", "p-Toluenesulfonic acid, allyl ester", "Benzenesulfonic acid, 4-methyl-, 2-propenyl ester", "Allyl alcohol, p-toluenesulfonate", "2-Propen-1-yl 4-methylbenzenesulfonate", "Allyl p-toluenesulfonate", "Allyl tosylate", "Allyl 4-methylbenzenesulfonate", "4-Methylbenzenesulfonic acid 2-propenyl ester"], "SMILES": "S(OCC=C)(=O)(=O)C1=CC=C(C)C=C1", "physical_data": {"Molecular Weight": "212.27", "Molecular Formula": "C10H12O3S", "Boiling Point": "135-140 \u00b0C @ Press: 0.5-1.0 Torr", "Density": "1.1788 g/cm\u00b3 @ Temp: 20 \u00b0C"}}