{"cas_no": "4875-10-9", "cn_name": "\u90bb\u785d\u57fa\u82ef\u786b\u915a", "en_name": ["2-Nitrobenzenethiol", "Benzenethiol, 2-nitro-", "Benzenethiol, o-nitro-", "2-Nitrobenzenethiol", "o-Nitrobenzenethiol", "2-Nitrothiophenol", "o-Nitrothiophenol", "o-Mercaptonitrobenzene", "2-Nitrobenzene-1-thiol"], "SMILES": "N(=O)(=O)C1=C(S)C=CC=C1", "physical_data": {"Molecular Weight": "155.17", "Molecular Formula": "C6H5NO2S", "Melting Point": "56 \u00b0C"}}