{"cas_no": "4876-59-9", "cn_name": "4-\u4e8c\u7532\u6c28\u57fa\u54cc\u5576\u4e8c\u76d0\u9178\u76d0", "en_name": ["4-Piperidinamine, N,N-dimethyl-, hydrochloride (1:2)", "4-Piperidinamine, N,N-dimethyl-, hydrochloride (1:2)", "4-Piperidinamine, N,N-dimethyl-, dihydrochloride", "Piperidine, 4-(dimethylamino)-, dihydrochloride", "4-(Dimethylamino)piperidine dihydrochloride", "Dimethyl(piperidin-4-yl)amine dihydrochloride", "N,N-Dimethylpiperidin-4-amine dihydrochloride"], "SMILES": "N(C)(C)C1CCNCC1.Cl", "physical_data": {"Molecular Weight": "", "Molecular Formula": "C7H16N2.2ClH", "Melting Point": "288-290 \u00b0C"}}