{"cas_no": "488-93-7", "cn_name": "3-\u7ce0\u9178", "en_name": ["3-Furancarboxylic acid", "3-Furancarboxylic acid", "3-Furoic acid", "3-Carboxyfuran", "3-Furanoic acid", "NSC 349941"], "SMILES": "C(O)(=O)C=1C=COC1", "physical_data": {"Molecular Weight": "112.08", "Molecular Formula": "C5H4O3", "Boiling Point": "290 \u00b0C", "Melting Point": "122.5 \u00b0C"}}