{"cas_no": "488-59-5", "cn_name": "\u9752\u87f9\u808c\u9187", "en_name": ["scyllo-Inositol", "scyllo-Inositol", "Inositol, scyllo-", "Scyllitol", "Cocositol", "Quercinitol", "scyllo-Cyclohexanehexol", "AZD 103", "ELND 005", "AZD103", "AZD-103"], "SMILES": "OC1C(O)C(O)C(O)C(O)C1O", "physical_data": {"Molecular Weight": "180.16", "Molecular Formula": "C6H12O6", "Melting Point": "353 \u00b0C (decomp)"}}