{"cas_no": "488-87-9", "cn_name": "2,5-\u4e8c\u7532\u57fa\u95f4\u82ef\u4e8c\u915a", "en_name": ["2,5-Dimethylresorcin", "1,3-Benzenediol, 2,5-dimethyl-", "Resorcinol, 2,5-dimethyl-", "2,5-Dimethyl-1,3-benzenediol", "\u03b2-Orcinol", "p-Xylorcinol", "2,5-Dimethylresorcinol", "2,5-Dimethylresorcin", "4-Methylorcinol", "2,5-Dimethyl-1,3-dihydroxybenzene"], "SMILES": "CC1=C(O)C=C(C)C=C1O", "physical_data": {"Molecular Weight": "138.16", "Molecular Formula": "C8H10O2", "Boiling Point": "278.5 \u00b0C", "Melting Point": "163 \u00b0C"}}