{"cas_no": "488-11-9", "cn_name": "\u7c98\u6eb4\u9178", "en_name": ["Mucobromic acid", "2-Butenoic acid, 2,3-dibromo-4-oxo-, (2Z)-", "Malealdehydic acid, dibromo-", "Mucobromic acid", "2-Butenoic acid, 2,3-dibromo-4-oxo-, (Z)-", "(2Z)-2,3-Dibromo-4-oxo-2-butenoic acid", "Bromomucic acid", "(Z)-2,3-Dibromo-4-oxobut-2-enoic acid"], "SMILES": "C(=C(C=O)Br)(C(O)=O)Br", "physical_data": {"Molecular Weight": "257.86", "Molecular Formula": "C4H2Br2O3", "Melting Point": "123-124 \u00b0C"}}