{"cas_no": "488-41-5", "cn_name": "\u4e8c\u6eb4\u7518\u9732\u9187", "en_name": ["Mitobronitol", "D-Mannitol, 1,6-dibromo-1,6-dideoxy-", "Mannitol, 1,6-dibromo-1,6-dideoxy-, D-", "1,6-Dibromo-1,6-dideoxy-D-mannitol", "DBM", "Myelobromol", "1,6-Dibromomannitol", "1,6-Dibromo-1,6-dideoxymannitol", "1,6-Dibromo-D-mannitol", "Mitobronitol", "1,6-Dideoxy-1,6-dibromo-D-mannitol", "Mielobromol", "Myebrol", "NSC 94110", "D-Dibromomannitol", "NCI C04762", "Dibromannit", "Dibromomannitol", "NSC 94100", "Dibromannitol", "R 54", "1,6-Dibromo-1,6-dideoxy-d-mannitol", "MeSH ID: D008927"], "SMILES": "C(C(C(CBr)O)O)(C(CBr)O)O", "physical_data": {"Molecular Weight": "307.97", "Molecular Formula": "C6H12Br2O4", "Melting Point": "176-178 \u00b0C", "Density": "2.03 g/cm\u00b3"}}