{"cas_no": "488-73-3", "cn_name": "\u539f\u680e\u9187", "en_name": ["(+)-Quercitol", "D-chiro-Inositol, 2-deoxy-", "Inositol, 2-deoxy-, D-chiro-", "2-Deoxy-D-chiro-inositol", "(+)-Quercitol", "Acorn Sugar", "Quercitol, (+)-proto-", "(+)-proto-Quercitol", "D-Quercitol", "1L-1,3,4/2,5-Cyclohexanepentol", "(+)-Protoquercitol", "d-Quercitol", "Quercitol", "Proto-quercitol"], "SMILES": "OC1C(O)C(O)C(O)CC1O", "physical_data": {"Molecular Weight": "164.16", "Molecular Formula": "C6H12O5", "Melting Point": "236 \u00b0C"}}