{"cas_no": "488-48-2", "cn_name": "\u56db\u6eb4\u5bf9\u82ef\u918c", "en_name": ["Bromanil", "2,5-Cyclohexadiene-1,4-dione, 2,3,5,6-tetrabromo-", "p-Benzoquinone, 2,3,5,6-tetrabromo-", "p-Benzoquinone, tetrabromo-", "Quinone, tetrabromo-", "2,3,5,6-Tetrabromo-2,5-cyclohexadiene-1,4-dione", "Bromanil", "p-Bromanil", "Tetrabromo-p-benzoquinone", "Tetrabromoquinone", "Tetrabromo-1,4-benzoquinone", "2,3,5,6-Tetrabromo-1,4-benzoquinone", "2,3,5,6-Tetrabromo-p-benzoquinone", "Tetrabromo-p-quinone", "Tetrabromobenzoquinone", "p-Bromoanil", "3,4,5,6-Tetrabromocyclohexadiene-1,2-dione", "NSC 36927"], "SMILES": "BrC1=C(Br)C(=O)C(Br)=C(Br)C1=O", "physical_data": {"Molecular Weight": "423.68", "Molecular Formula": "C6Br4O2", "Melting Point": "300 \u00b0C"}}