{"cas_no": "488-47-1", "cn_name": "\u56db\u6eb4\u513f\u8336\u915a", "en_name": ["3,4,5,6-Tetrabromo-1,2-benzenediol", "1,2-Benzenediol, 3,4,5,6-tetrabromo-", "Pyrocatechol, tetrabromo-", "3,4,5,6-Tetrabromo-1,2-benzenediol", "Tetrabromocatechol", "Tetrabromopyrocatechol", "3,4,5,6-Tetrabromocatechol", "Tetrabromo-1,2-dihydroxybenzene", "3,4,5,6-Tetrabromobenzenediol", "3,4,5,6-Tetrabromopyrocatechol", "NSC 36929", "NSC 66414"], "SMILES": "BrC1=C(Br)C(Br)=C(O)C(O)=C1Br", "physical_data": {"Molecular Weight": "425.69", "Molecular Formula": "C6H2Br4O2", "Melting Point": "190-191 \u00b0C"}}