{"cas_no": "488-76-6", "cn_name": "(-)-VIBO-\u680e\u9187", "en_name": ["(-)-vibo-Quercitol", "L-chiro-Inositol, 1-deoxy-", "Inositol, 1-deoxy-, L-chiro-", "Viburnitol", "1-Deoxy-L-chiro-inositol", "Quercitol, (-)-vibo-", "Viburnitol, (-)-", "L-Viburnitol", "(-)-Viburnitol", "(-)-Viboquercitol", "(-)-vibo-Quercitol"], "SMILES": "OC1C(O)C(O)C(O)CC1O", "physical_data": {"Molecular Weight": "164.16", "Molecular Formula": "C6H12O5", "Melting Point": "180-181 \u00b0C"}}