{"cas_no": "488-82-4", "cn_name": "D-\u963f\u62c9\u4f2f\u7cd6\u9187", "en_name": ["D-Arabitol", "D-Arabinitol", "Arabinitol, D-", "D-Arabitol", "D-(+)-Arabitol", "(+)-Arabitol", "NSC 25288", "D-Lyxitol", "D-arabino-Pentitol", "D-lyxo-Pentitol"], "SMILES": "C(C(CO)O)(C(CO)O)O", "physical_data": {"Molecular Weight": "152.15", "Molecular Formula": "C5H12O5", "Melting Point": "103 \u00b0C"}}