{"cas_no": "488-45-9", "cn_name": "L-\u827e\u675c\u7cd6\u9187", "en_name": ["L-Iditol", "L-Iditol", "Iditol, L-"], "SMILES": "C(C(C(CO)O)O)(C(CO)O)O", "physical_data": {"Molecular Weight": "182.17", "Molecular Formula": "C6H14O6", "Melting Point": "252-256 \u00b0C"}}