{"cas_no": "488-44-8", "cn_name": "\u849c\u7cd6\u9187", "en_name": ["Allitol", "Allitol", "Allodulcitol", "Allit", "Allodulcit"], "SMILES": "C(C(C(CO)O)O)(C(CO)O)O", "physical_data": {"Molecular Weight": "182.17", "Molecular Formula": "C6H14O6", "Melting Point": "144-146 \u00b0C"}}