{"cas_no": "488-86-8", "cn_name": "\u514b\u916e\u9178", "en_name": ["Croconic acid", "4-Cyclopentene-1,2,3-trione, 4,5-dihydroxy-", "Croconic acid", "4,5-Dihydroxy-4-cyclopentene-1,2,3-trione"], "SMILES": "O=C1C(=O)C(O)=C(O)C1=O", "physical_data": {"Molecular Weight": "142.07", "Molecular Formula": "C5H2O5", "Melting Point": "150 \u00b0C"}}