{"cas_no": "488-81-3", "cn_name": "\u963f\u4e1c\u7cd6\u9187", "en_name": ["Ribitol", "Ribitol", "Adonitol", "Adonite", "Adonit", "NSC 16868", "ribo-Pentitol", "MeSH ID: D012255"], "SMILES": "C(C(CO)O)(C(CO)O)O", "physical_data": {"Molecular Weight": "152.15", "Molecular Formula": "C5H12O5", "Melting Point": "104 \u00b0C"}}