{"cas_no": "488-17-5", "cn_name": "3-\u7532\u57fa\u82ef\u90bb\u4e8c\u915a", "en_name": ["3-Methylcatechol", "1,2-Benzenediol, 3-methyl-", "Pyrocatechol, 3-methyl-", "3-Methyl-1,2-benzenediol", "3-Methylcatechol", "3-Methylpyrocatechol", "3-Methyl-1,2-dihydroxybenzene", "2,3-Dihydroxytoluene", "1,2-Dihydroxy-3-methylbenzene", "2,3-Toluenediol", "2-Hydroxy-3-methylphenol", "2-Hydroxy-6-methylphenol", "NSC 66523"], "SMILES": "OC1=C(C)C=CC=C1O", "physical_data": {"Molecular Weight": "124.14", "Molecular Formula": "C7H8O2", "Boiling Point": "241 \u00b0C", "Melting Point": "68 \u00b0C"}}