{"cas_no": "488-10-8", "cn_name": "\u8309\u8389\u916e", "en_name": ["Jasmone", "2-Cyclopenten-1-one, 3-methyl-2-(2Z)-2-penten-1-yl-", "Jasmone", "2-Cyclopenten-1-one, 3-methyl-2-(2-pentenyl)-, (Z)-", "2-Cyclopenten-1-one, 3-methyl-2-(2Z)-2-pentenyl-", "3-Methyl-2-(2Z)-2-penten-1-yl-2-cyclopenten-1-one", "3-Methyl-2-n-penten-2\u2032-ylcyclopenten-2-one", "3-Methyl-2-(2-pentenyl)-2-cyclopenten-1-one", "cis-Jasmone", "(Z)-Jasmone", "3-Methyl-2-(2-cis-pentenyl)-2-cyclopenten-1-one", "3-Methyl-2-(cis-2-pentenyl)-2-cyclopenten-1-one", "(Z)-3-Methyl-2-(pent-2-en-1-yl)cyclopent-2-en-1-one", "SS-PD 41104-1", "(Z)-3-Methyl-2-(pent-2-en-1-yl)cyclopent-2-enone"], "SMILES": "C(C=CCC)C1=C(C)CCC1=O", "physical_data": {"Molecular Weight": "164.24", "Molecular Formula": "C11H16O", "Boiling Point": "258 \u00b0C", "Density": "0.9466 g/cm\u00b3 @ Temp: 15 \u00b0C"}}