{"cas_no": "488-58-4", "cn_name": "\u8868\u808c\u9187", "en_name": ["epi-Inositol", "epi-Inositol", "Inositol, epi-", "epi-Cyclohexanehexol"], "SMILES": "OC1C(O)C(O)C(O)C(O)C1O", "physical_data": {"Molecular Weight": "180.16", "Molecular Formula": "C6H12O6", "Melting Point": "285 \u00b0C (decomp)"}}