{"cas_no": "488-43-7", "cn_name": "D-\u8404\u7cd6\u80fa", "en_name": ["Glucamine", "D-Glucitol, 1-amino-1-deoxy-", "Glucitol, 1-amino-1-deoxy-, D-", "Glucitol, 1-amino-1-deoxy-", "Sorbitol, 1-amino-1-deoxy-", "1-Amino-1-deoxy-D-glucitol", "Glucamine", "D-Glucamine", "1-Amino-1-deoxysorbitol", "1-Amino-1-deoxyglucitol", "1-Deoxy-1-amino-D-sorbitol", "1-Amino-1-deoxy-D-sorbitol", "(2R,3R,4R,5S)-6-Aminohexane-1,2,3,4,5-pentol", "1-Deoxy-1-amino-D-glucitol", "(2R,3R,4R,5S)-6-Aminohexane-1,2,3,4,5-pentol"], "SMILES": "C(C(C(CO)O)O)(C(CN)O)O", "physical_data": {"Molecular Weight": "181.19", "Molecular Formula": "C6H15NO5", "Melting Point": "127 \u00b0C"}}