{"cas_no": "488-23-3", "cn_name": "1,2,3,4-\u56db\u7532\u57fa\u82ef", "en_name": ["1,2,3,4-Tetramethylbenzene", "Benzene, 1,2,3,4-tetramethyl-", "1,2,3,4-Tetramethylbenzene", "Prehnitene", "Prehnitol", "NSC 93932"], "SMILES": "CC1=C(C)C(C)=CC=C1C", "physical_data": {"Molecular Weight": "134.22", "Molecular Formula": "C10H14", "Boiling Point": "205 \u00b0C", "Melting Point": "-6.2 \u00b0C", "Density": "0.9044 g/cm\u00b3 @ Temp: 18 \u00b0C"}}