{"cas_no": "4880-88-0", "cn_name": "\u957f\u6625\u5e03\u5b81", "en_name": ["(-)-Eburnamonine", "Eburnamenin-14(15H)-one, (3\u03b1,16\u03b1)-", "Vincamone", "1H-Indolo[3,2,1-de]pyrido[3,2,1-ij][1,5]naphthyridine, eburnamenin-14(15H)-one deriv.", "(3\u03b1,16\u03b1)-Eburnamenin-14(15H)-one", "(3\u03b1,16\u03b1)-Eburnamonine", "(-)-Eburnamonine", "(-)-Vincamone", "l-Eburnamonine", "cis-Vincamone", "(-)-cis-Eburnamonine", "Eburnal Ritardo", "Vinburnine", "16-Oxoeburnane", "Cervoxan", "CH 846"], "SMILES": "C(C)C12C3C=4N(C=5C(C4CCN3CCC1)=CC=CC5)C(=O)C2", "physical_data": {"Molecular Weight": "294.39", "Molecular Formula": "C19H22N2O", "Melting Point": "168-170 \u00b0C"}}