{"cas_no": "4880-92-6", "cn_name": "\u963f\u6251\u957f\u6625\u80fa", "en_name": ["Apovincamine", "Eburnamenine-14-carboxylic acid, methyl ester, (3\u03b1,16\u03b1)-", "Apovincamine", "1H-Indolo[3,2,1-de]pyrido[3,2,1-ij][1,5]naphthyridine, eburnamenine-14-carboxylic acid deriv.", "(+)-cis-Apovincamine", "cis-Apovincamine", "(+)-Apovincamine", "Methyl (3\u03b1,16\u03b1)-eburnamenine-14-carboxylate", "Apovincanmine"], "SMILES": "C(C)C12C3C=4N(C=5C(C4CCN3CCC1)=CC=CC5)C(C(OC)=O)=C2", "physical_data": {"Molecular Weight": "336.43", "Molecular Formula": "C21H24N2O2", "Melting Point": "159-161 \u00b0C"}}