{"cas_no": "4883-60-7", "cn_name": "2-\u7f9f\u57fa-3,5,5-\u4e09\u7532\u57fa-2-\u73af\u5df1\u70ef-1-\u916e", "en_name": ["2-Hydroxy-3,5,5-trimethyl-2-cyclohexenone", "2-Cyclohexen-1-one, 2-hydroxy-3,5,5-trimethyl-", "2-Hydroxy-3,5,5-trimethyl-2-cyclohexen-1-one", "2-Hydroxy-3,5,5-trimethyl-2-cyclohexenone", "2-Hydroxyisophorone", "2-Hydroxy-3,5,5-trimethylcyclohex-2-ene-1-one"], "SMILES": "CC1(C)CC(C)=C(O)C(=O)C1", "physical_data": {"Molecular Weight": "154.21", "Molecular Formula": "C9H14O2", "Melting Point": "91-92 \u00b0C"}}