{"cas_no": "4884-24-6", "cn_name": "(1,1\u2019-\u8054\u73af\u620a\u57fa)-2-\u916e", "en_name": ["2-Cyclopentylcyclopentanone", "[1,1\u2032-Bicyclopentyl]-2-one", "[Bicyclopentyl]-2-one", "Cyclopentanone, 2-cyclopentyl-", "[1,1\u2032-Bicyclopentan]-2-one", "2-Cyclopentylcyclopentanone", "2-Cyclopentylcyclopentan-1-one"], "SMILES": "O=C1C(CCC1)C2CCCC2", "physical_data": {"Molecular Weight": "152.23", "Molecular Formula": "C10H16O", "Boiling Point": "232.5 \u00b0C", "Melting Point": "-13 \u00b0C", "Density": "0.985 g/cm\u00b3 @ Temp: 20 \u00b0C"}}