{"cas_no": "4885-02-3", "cn_name": "1,1-\u4e8c\u6c2f\u7532\u919a", "en_name": ["Dichloromethyl methyl ether", "Methane, dichloromethoxy-", "Ether, dichloromethyl methyl", "Dichloromethoxymethane", "Dichloromethyl methyl ether", "1,1-Dichlorodimethyl ether", "1,1-Dichloromethyl methyl ether", "\u03b1,\u03b1-Dichloromethyl methyl ether", "Methoxydichloromethane", "Methyl \u03b1,\u03b1-dichloromethyl ether", "Chloromyl", "NSC 91480"], "SMILES": "C(OC)(Cl)Cl", "physical_data": {"Molecular Weight": "114.96", "Molecular Formula": "C2H4Cl2O", "Boiling Point": "84-86.5 \u00b0C", "Density": "1.4299 g/cm\u00b3 @ Temp: 20 \u00b0C"}}