{"cas_no": "4886-30-0", "cn_name": "1-\u4e01\u57fa-1H-\u82ef\u5e76\u54aa\u5511", "en_name": ["1-Butyl-1H-benzimidazole", "1H-Benzimidazole, 1-butyl-", "Benzimidazole, 1-butyl-", "1-Butyl-1H-benzimidazole", "1-Butylbenzimidazole", "N-Butylbenzimidazole", "1-Butylbenzoimidazole", "1-Butyl-1H-1,3-benzodiazole"], "SMILES": "C(CCC)N1C=2C(N=C1)=CC=CC2", "physical_data": {"Molecular Weight": "174.24", "Molecular Formula": "C11H14N2", "Boiling Point": "171-173 \u00b0C @ Press: 5 Torr", "Melting Point": "171-173 \u00b0C"}}