{"cas_no": "4887-95-0", "cn_name": "2,5-\u4e8c\u6c2f\u82ef\u5e76\u54aa\u5511", "en_name": ["2,6-Dichloro-1H-benzimidazole", "1H-Benzimidazole, 2,6-dichloro-", "Benzimidazole, 2,5-dichloro-", "1H-Benzimidazole, 2,5-dichloro-", "Benzimidazole, 2,5(or 2,6)-dichloro-", "2,6-Dichloro-1H-benzimidazole", "2,5-Dichloro-1H-benzimidazole", "2,5-Dichloro-1H-1,3-benzodiazole", "2,6-Dichloro-1H-1,3-benzodiazole", "2,5-Dichloro-1H-benzo[d]imidazole"], "SMILES": "ClC=1NC=2C(N1)=CC(Cl)=CC2", "physical_data": {"Molecular Weight": "187.03", "Molecular Formula": "C7H4Cl2N2", "Melting Point": "207-208 \u00b0C (decomp)"}}