{"cas_no": "4887-81-4", "cn_name": "2-METHYL-5-METHOXYBENZIMIDAZOLE", "en_name": ["6-Methoxy-2-methyl-1H-benzimidazole", "1H-Benzimidazole, 6-methoxy-2-methyl-", "Benzimidazole, 5-methoxy-2-methyl-", "1H-Benzimidazole, 5-methoxy-2-methyl-", "Benzimidazole, 5(or 6)-methoxy-2-methyl-", "6-Methoxy-2-methyl-1H-benzimidazole", "2-Methyl-5-methoxybenzimidazole", "5-Methoxy-2-methylbenzimidazole", "2-Methyl-5-methoxy-1H-benzimidazole", "5-Methoxy-2-methyl-1H-benzimidazole"], "SMILES": "CC=1NC=2C(=CC(OC)=CC2)N1", "physical_data": {"Molecular Weight": "162.19", "Molecular Formula": "C9H10N2O", "Melting Point": "134-135 \u00b0C"}}