{"cas_no": "488798-37-4", "cn_name": "\u7532\u57fa-4-(4-\u6c1f\u82ef\u57fa)-2-\u7f9f\u57fa-6-\u5f02\u4e19\u57fa\u5627\u5576-5-\u7fa7\u9178", "en_name": ["Methyl 6-(4-fluorophenyl)-1,2-dihydro-4-(1-methylethyl)-2-oxo-5-pyrimidinecarboxylate", "5-Pyrimidinecarboxylic acid, 6-(4-fluorophenyl)-1,2-dihydro-4-(1-methylethyl)-2-oxo-, methyl ester", "5-Pyrimidinecarboxylic acid, 4-(4-fluorophenyl)-1,2-dihydro-6-(1-methylethyl)-2-oxo-, methyl ester", "Methyl 6-(4-fluorophenyl)-1,2-dihydro-4-(1-methylethyl)-2-oxo-5-pyrimidinecarboxylate", "Methyl 4-(4-fluorophenyl)-2-hydroxy-6-isopropylpyrimidine-5-carboxylate"], "SMILES": "C(OC)(=O)C1=C(NC(=O)N=C1C(C)C)C2=CC=C(F)C=C2", "physical_data": {"Molecular Weight": "290.29", "Molecular Formula": "C15H15FN2O3", "Melting Point": "186-190 \u00b0C"}}