{"cas_no": "4887-82-5", "cn_name": "5-\u6c2f\u82ef\u5e76\u54aa\u5511", "en_name": ["5-Chlorobenzimidazole", "1H-Benzimidazole, 6-chloro-", "Benzimidazole, 5-chloro-", "1H-Benzimidazole, 5-chloro-", "Benzimidazole, 5(or 6)-chloro-", "6-Chloro-1H-benzimidazole", "5-Chlorobenzimidazole", "5-Chloro-1H-benzimidazole", "NSC 3059"], "SMILES": "ClC=1C=C2C(=CC1)NC=N2", "physical_data": {"Molecular Weight": "152.58", "Molecular Formula": "C7H5ClN2", "Melting Point": "166-167 \u00b0C"}}