{"cas_no": "4887-42-7", "cn_name": "N-\u7f9f\u7532\u57fa-3,4,5,6-\u56db\u6c22\u90bb\u82ef\u4e8c\u7532\u9170\u4e9a\u80fa", "en_name": ["N-(Hydroxymethyl)-3,4,5,6-tetrahydrophthalimide", "1H-Isoindole-1,3(2H)-dione, 4,5,6,7-tetrahydro-2-(hydroxymethyl)-", "1-Cyclohexene-1,2-dicarboximide, N-(hydroxymethyl)-", "4,5,6,7-Tetrahydro-2-(hydroxymethyl)-1H-isoindole-1,3(2H)-dione", "N-(Hydroxymethyl)-3,4,5,6-tetrahydrophthalimide", "N-(Hydroxymethyl)-1-cyclohexene-1,2-dicarboximide", "(3,4,5,6-Tetrahydrophthalamido)methanol", "(3,4,5,6-Tetrahydrophthalimido)methanol", "3,4,5,6-Tetrahydrophthalimidomethyl alcohol", "2-(Hydroxymethyl)-4,5,6,7-tetrahydroisoindole-1,3-dione", "2-(Hydroxymethyl)-2,3,4,5,6,7-hexahydro-1H-isoindole-1,3-dione", "N-Hydroxymethyl-3,4,5,6-tetrahydrophthalamide"], "SMILES": "O=C1C2=C(C(=O)N1CO)CCCC2", "physical_data": {"Molecular Weight": "181.19", "Molecular Formula": "C9H11NO3", "Melting Point": "80-82 \u00b0C"}}