{"cas_no": "4887-80-3", "cn_name": "5-\u7532\u6c27\u57fa\u82ef\u5e76\u54aa\u5511", "en_name": ["5-Methoxybenzimidazole", "1H-Benzimidazole, 6-methoxy-", "Benzimidazole, 5-methoxy-", "1H-Benzimidazole, 5-methoxy-", "Benzimidazole, 5(or 6)-methoxy-", "6-Methoxy-1H-benzimidazole", "5-Methoxybenzimidazole", "5-Methoxy-1H-benzimidazole", "5[6]-Methoxybenzimidazole", "5-Methoxybenzoimidazole", "AC 39921"], "SMILES": "O(C)C=1C=C2C(=CC1)N=CN2", "physical_data": {"Molecular Weight": "148.16", "Molecular Formula": "C8H8N2O", "Boiling Point": "190-195 \u00b0C @ Press: 0.03 Torr", "Melting Point": "123 \u00b0C"}}