{"cas_no": "489-39-4", "cn_name": "(+)-\u9999\u6a59\u70ef", "en_name": ["Aromadendrene", "1H-Cycloprop[e]azulene, decahydro-1,1,7-trimethyl-4-methylene-, (1aR,4aR,7R,7aR,7bS)-", "Aromadendrene", "1H-Cycloprop[e]azulene, decahydro-1,1,7-trimethyl-4-methylene-, (1aR,4aR,7R,7aR,7bS)-(+)-", "1H-Cycloprop[e]azulene, decahydro-1,1,7-trimethyl-4-methylene-, [1aR-(1a\u03b1,4a\u03b1,7\u03b1,7a\u03b2,7b\u03b1)]-", "(1aR,4aR,7R,7aR,7bS)-Decahydro-1,1,7-trimethyl-4-methylene-1H-cycloprop[e]azulene", "Aromadendrene, (+)-", "(+)-Aromadendrene", "Aromadendr-7(15)-ene", "10(14)-Aromadendrene"], "SMILES": "CC1(C)C2C3C(C(=C)CCC21)CCC3C", "physical_data": {"Molecular Weight": "204.35", "Molecular Formula": "C15H24", "Boiling Point": "94 \u00b0C @ Press: 3 Torr", "Density": "0.9166 g/cm\u00b3 @ Temp: 204 \u00b0C"}}