{"cas_no": "489-33-8", "cn_name": "\u67e0\u6aac\u9ec4\u7d20", "en_name": ["Limocitrin", "4H-1-Benzopyran-4-one, 3,5,7-trihydroxy-2-(4-hydroxy-3-methoxyphenyl)-8-methoxy-", "Flavone, 3,4\u2032,5,7-tetrahydroxy-3\u2032,8-dimethoxy-", "Limocitrin", "3,5,7-Trihydroxy-2-(4-hydroxy-3-methoxyphenyl)-8-methoxy-4H-1-benzopyran-4-one", "8-Methoxyisorhamnetin", "Sedoflorigenin", "Gossypetin 8,3\u2032-dimethyl ether", "3,5,7-Trihydroxy-2-(4-hydroxy-3-methoxyphenyl)-8-methoxychromen-4-one"], "SMILES": "O(C)C1=C2C(C(=O)C(O)=C(O2)C3=CC(OC)=C(O)C=C3)=C(O)C=C1O", "physical_data": {"Molecular Weight": "346.29", "Molecular Formula": "C17H14O8", "Melting Point": "271-275 \u00b0C"}}