{"cas_no": "489-01-0", "cn_name": "2,6-\u4e8c\u53d4\u4e01\u57fa-4-\u7532\u6c27\u57fa\u82ef\u915a", "en_name": ["2,6-Di-tert-butyl-4-methoxyphenol", "Phenol, 2,6-bis(1,1-dimethylethyl)-4-methoxy-", "Phenol, 2,6-di-tert-butyl-4-methoxy-", "2,6-Bis(1,1-dimethylethyl)-4-methoxyphenol", "3,5-Di-tert-butyl-4-hydroxyanisole", "2,6-Di-tert-butyl-4-methoxyphenol", "4-Methoxy-2,6-di-tert-butylphenol", "Topanol 354", "4-Hydroxy-3,5-di-tert-butylanisole", "NSC 14451", "2,6-Bis(tert-butyl)-4-methoxyphenol"], "SMILES": "C(C)(C)(C)C1=C(O)C(C(C)(C)C)=CC(OC)=C1", "physical_data": {"Molecular Weight": "236.35", "Molecular Formula": "C15H24O2", "Melting Point": "105-106 \u00b0C"}}