{"cas_no": "489-32-7", "cn_name": "\u6deb\u7f8a\u85ff\u82f7", "en_name": ["Icariin", "4H-1-Benzopyran-4-one, 3-[(6-deoxy-\u03b1-L-mannopyranosyl)oxy]-7-(\u03b2-D-glucopyranosyloxy)-5-hydroxy-2-(4-methoxyphenyl)-8-(3-methyl-2-buten-1-yl)-", "Icariin", "4H-1-Benzopyran-4-one, 3-[(6-deoxy-\u03b1-L-mannopyranosyl)oxy]-7-(\u03b2-D-glucopyranosyloxy)-5-hydroxy-2-(4-methoxyphenyl)-8-(3-methyl-2-butenyl)-", "3-[(6-Deoxy-\u03b1-L-mannopyranosyl)oxy]-7-(\u03b2-D-glucopyranosyloxy)-5-hydroxy-2-(4-methoxyphenyl)-8-(3-methyl-2-buten-1-yl)-4H-1-benzopyran-4-one", "Ieariline", "Icariine", "Icariln", "Epimedium PE"], "SMILES": "C(C=C(C)C)C1=C2C(C(=O)C(OC3C(O)C(O)C(O)C(C)O3)=C(O2)C4=CC=C(OC)C=C4)=C(O)C=C1OC5OC(CO)C(O)C(O)C5O", "physical_data": {"Molecular Weight": "676.66", "Molecular Formula": "C33H40O15", "Melting Point": "231-235 \u00b0C"}}