{"cas_no": "489-84-9", "cn_name": "\u6108\u521b\u5965", "en_name": ["Guaiazulene", "Azulene, 1,4-dimethyl-7-(1-methylethyl)-", "Azulene, 7-isopropyl-1,4-dimethyl-", "1,4-Dimethyl-7-(1-methylethyl)azulene", "Guaiazulene", "Azulon", "1,4-Dimethyl-7-isopropylazulene", "Silazulon", "S-Guaiazulene", "3,8-Dimethyl-5-(2-propyl)azulene", "7-Isopropyl-1,4-dimethylazulene", "Eucazulen", "Kessazulen", "Purazulen", "Azulen-Beris", "Uroazulen", "Azunol", "Cuteazul", "Vetivazulen", "AZ 8", "Vaumigan", "AZ 8 Beris", "NSC 4714", "Guaiazulene blue", "1,4-Dimethyl-7-propan-2-ylazulene", "1,4-Dimethyl-7-(propan-2-yl)azulene"], "SMILES": "CC=1C=2C(C(C)=CC=C(C(C)C)C2)=CC1", "physical_data": {"Molecular Weight": "198.30", "Molecular Formula": "C15H18", "Boiling Point": "153 \u00b0C", "Melting Point": "31.5 \u00b0C", "Density": "0.974 g/cm\u00b3 @ Temp: 22 \u00b0C"}}