{"cas_no": "489-40-7", "cn_name": "[1AR-(1A\u03b1,4\u03b1,4A\u03b2,7B\u03b1)]-1A,2,3,4,4A,5,6,7B-\u516b\u6c22\u5316-1,1,4,7-\u56db\u7532\u57fa-1H-\u73af\u4e19\u70ef\u5e76[E]\u5965", "en_name": ["\u03b1-Gurjunene", "1H-Cycloprop[e]azulene, 1a,2,3,4,4a,5,6,7b-octahydro-1,1,4,7-tetramethyl-, (1aR,4R,4aR,7bS)-", "1H-Cycloprop[e]azulene, 1a,2,3,4,4a,5,6,7b-octahydro-1,1,4,7-tetramethyl-, [1aR-(1a\u03b1,4\u03b1,4a\u03b2,7b\u03b1)]-", "\u03b1-Gurjunene", "1H-Cycloprop[e]azulene, 1a\u03b2,2,3,4,4a\u03b1,5,6,7b\u03b2-octahydro-1,1,4\u03b2,7-tetramethyl-", "(1aR,4R,4aR,7bS)-1a,2,3,4,4a,5,6,7b-Octahydro-1,1,4,7-tetramethyl-1H-cycloprop[e]azulene", "\u03b1-Gurjunene, (-)-", "(-)-\u03b1-Gurjunene", "1a,2,3,4,4a,5,6,7b-Octahydro-1,1,4,7-tetramethyl-[1aR-(1a\u03b1,4\u03b1,4a\u03b2,7b\u03b1)]-1H-cycloprop[e]azulene"], "SMILES": "CC1(C)C2C=3C(C(C)CCC21)CCC3C", "physical_data": {"Molecular Weight": "204.35", "Molecular Formula": "C15H24", "Boiling Point": "76-77 \u00b0C @ Press: 3 Torr", "Density": "0.9176 g/cm\u00b3 @ Temp: 20 \u00b0C"}}