{"cas_no": "489-41-8", "cn_name": "\u84dd\u6849\u9187", "en_name": ["Globulol", "1H-Cycloprop[e]azulen-4-ol, decahydro-1,1,4,7-tetramethyl-, (1aR,4R,4aR,7R,7aS,7bS)-", "Globulol", "1H-Cycloprop[e]azulen-4-ol, decahydro-1,1,4,7-tetramethyl-, [1aR-(1a\u03b1,4\u03b1,4a\u03b1,7\u03b1,7a\u03b2,7b\u03b1)]-", "(1aR,4R,4aR,7R,7aS,7bS)-Decahydro-1,1,4,7-tetramethyl-1H-cycloprop[e]azulen-4-ol", "(-)-Globulol", "NSC 152470"], "SMILES": "CC1(C)C2C3C(C(C)(O)CCC21)CCC3C", "physical_data": {"Molecular Weight": "222.37", "Molecular Formula": "C15H26O", "Melting Point": "86-88 \u00b0C"}}