{"cas_no": "489-35-0", "cn_name": "\u68c9\u82b1\u7d20", "en_name": ["Gossypetin", "4H-1-Benzopyran-4-one, 2-(3,4-dihydroxyphenyl)-3,5,7,8-tetrahydroxy-", "Gossypetin", "Flavone, 3,3\u2032,4\u2032,5,7,8-hexahydroxy-", "2-(3,4-Dihydroxyphenyl)-3,5,7,8-tetrahydroxy-4H-1-benzopyran-4-one", "C.I. 75750", "Equisporol", "8-Hydroxyquercetin", "Articulatidin", "2-(3,4-Dihydroxyphenyl)-3,5,7,8-tetrahydroxychromen-4-one", "3,5,7,8,3\u2032,4\u2032-Hexahydroxyflavone"], "SMILES": "OC1=C2C(C(=O)C(O)=C(O2)C3=CC(O)=C(O)C=C3)=C(O)C=C1O", "physical_data": {"Molecular Weight": "318.24", "Molecular Formula": "C15H10O8", "Melting Point": "311-330 \u00b0C"}}