{"cas_no": "489-86-1", "cn_name": "\u6108\u521b\u9187", "en_name": ["(-)-Guaiol", "5-Azulenemethanol, 1,2,3,4,5,6,7,8-octahydro-\u03b1,\u03b1,3,8-tetramethyl-, (3S,5R,8S)-", "Guaiol", "Guai-1(5)-en-11-ol", "5-Azulenemethanol, 1,2,3,4,5,6,7,8-octahydro-\u03b1,\u03b1,3,8-tetramethyl-, [3S-(3\u03b1,5\u03b1,8\u03b1)]-", "5-Azulenemethanol, 1,2,3,4,5\u03b2,6,7,8-octahydro-\u03b1,\u03b1,3\u03b1,8\u03b1-tetramethyl-", "(3S,5R,8S)-1,2,3,4,5,6,7,8-Octahydro-\u03b1,\u03b1,3,8-tetramethyl-5-azulenemethanol", "Champaca camphor", "Champacol", "3,8-Dimethyl-5-\u03b1-hydroxyisopropyl-\u03949-octahydroazulene", "Guaiac alcohol", "(-)-Guaiol", "NSC 19941", "2-((3S,5R,8S)-3,8-Dimethyl-1,2,3,4,5,6,7,8-octahydroazulen-5-yl)propan-2-ol"], "SMILES": "CC1C2=C(C(C)CCC(C(C)(C)O)C2)CC1", "physical_data": {"Molecular Weight": "222.37", "Molecular Formula": "C15H26O", "Boiling Point": "132-136 \u00b0C @ Press: 10 Torr", "Melting Point": "91 \u00b0C", "Density": "0.9714 g/cm\u00b3 @ Temp: 20 \u00b0C"}}