{"cas_no": "489-98-5", "cn_name": "\u82e6\u57fa\u80fa", "en_name": ["Picramide", "Benzenamine, 2,4,6-trinitro-", "Picramide", "Aniline, 2,4,6-trinitro-", "2,4,6-Trinitrobenzenamine", "2,4,6-Trinitroaniline", "MATB (explosive)", "MATB", "1-Amino-2,4,6-trinitrobenzene", "TNA", "NSC 4860", "2,4,6-Trinitrophenylamine"], "SMILES": "N(=O)(=O)C1=C(N)C(N(=O)=O)=CC(N(=O)=O)=C1", "physical_data": {"Molecular Weight": "228.12", "Molecular Formula": "C6H4N4O6", "Melting Point": "193.5 \u00b0C"}}