{"cas_no": "4890-85-1", "cn_name": "2-\u82ef\u4e59\u57fa\u82ef\u7532\u9178", "en_name": ["2-(2-Phenylethyl)benzoic acid", "Benzoic acid, 2-(2-phenylethyl)-", "Benzoic acid, o-phenethyl-", "2-(2-Phenylethyl)benzoic acid", "o-Phenethylbenzoic acid", "2-(2-Phenethyl)benzoic acid", "2-(Phenethyl)benzoic acid", "2-Bibenzylcarboxylic acid"], "SMILES": "C(CC1=CC=CC=C1)C2=C(C(O)=O)C=CC=C2", "physical_data": {"Molecular Weight": "226.27", "Molecular Formula": "C15H14O2", "Melting Point": "130 \u00b0C"}}