{"cas_no": "4892-02-8", "cn_name": "\u786b\u4ee3\u6c34\u6768\u9178\u7532\u916f", "en_name": ["Methyl thiosalicylate", "Benzoic acid, 2-mercapto-, methyl ester", "Benzoic acid, o-mercapto-, methyl ester", "Methyl thiosalicylate", "Methyl 2-mercaptobenzoate", "Methyl o-mercaptobenzoate", "2-(Methoxycarbonyl)thiophenol", "2-Mercaptobenzoic acid methyl ester", "Methyl 2-thiosalicylate", "NSC 30156", "2-(Methoxycarbonyl)benzenethiol", "Thiosalicylic acid methyl ester", "Methyl 2-sulfanylbenzoate"], "SMILES": "C(OC)(=O)C1=C(S)C=CC=C1", "physical_data": {"Molecular Weight": "168.21", "Molecular Formula": "C8H8O2S", "Boiling Point": "115-119 \u00b0C @ Press: 1-2 Torr", "Melting Point": "164 \u00b0C"}}