{"cas_no": "4894-75-1", "cn_name": "4-\u82ef\u57fa\u73af\u5df1\u916e", "en_name": ["4-Phenylcyclohexanone", "Cyclohexanone, 4-phenyl-", "4-Phenylcyclohexanone", "NSC 28473", "4-Phenyl-1-cyclohexanone"], "SMILES": "O=C1CCC(CC1)C2=CC=CC=C2", "physical_data": {"Molecular Weight": "174.24", "Molecular Formula": "C12H14O", "Boiling Point": "158-160 \u00b0C @ Press: 12 Torr", "Melting Point": "78-81 \u00b0C"}}