{"cas_no": "4894-61-5", "cn_name": "(E)-\u5df4\u8c46\u6c2f", "en_name": ["(2E)-1-Chloro-2-butene", "2-Butene, 1-chloro-, (2E)-", "2-Butene, 1-chloro-, (E)-", "2-Butene, 1-chloro-, trans-", "(2E)-1-Chloro-2-butene", "trans-Crotyl chloride", "trans-\u03b3-Methallyl chloride", "trans-1-Chloro-2-butene", "(E)-1-Chloro-2-butene", "trans-But-2-enyl chloride", "(E)-Crotyl chloride", "(E)-2-Butenyl chloride", "trans-4-Chloro-2-butene", "(E)-1-Chlorobut-2-ene"], "SMILES": "C(=CC)CCl", "physical_data": {"Molecular Weight": "90.55", "Molecular Formula": "C4H7Cl", "Boiling Point": "85 \u00b0C", "Density": "0.9295 g/cm\u00b3 @ Temp: 20 \u00b0C"}}