{"cas_no": "4897-84-1", "cn_name": "4-\u6eb4\u4e01\u9178\u7532\u916f", "en_name": ["Methyl 4-bromobutyrate", "Butanoic acid, 4-bromo-, methyl ester", "Butyric acid, 4-bromo-, methyl ester", "Methyl \u03b3-bromobutyrate", "Methyl 4-bromobutyrate", "Methyl 4-bromobutanoate", "4-Bromobutyric acid methyl ester", "Methyl \u03c9-bromobutyrate", "4-Bromobutanoic acid methyl ester"], "SMILES": "C(CCCBr)(OC)=O", "physical_data": {"Molecular Weight": "181.03", "Molecular Formula": "C5H9BrO2", "Boiling Point": "186.5 \u00b0C", "Melting Point": "175-190 \u00b0C", "Density": "1.371 g/cm\u00b3 @ Temp: 25 \u00b0C"}}