{"cas_no": "4897-50-1", "cn_name": "4-\u54cc\u5576\u57fa\u54cc\u5576", "en_name": ["1,4\u2032-Bipiperidine", "1,4\u2032-Bipiperidine", "4-Piperidinopiperidine", "4-(1-Piperidinyl)piperidine", "[1,4\u2032]Bipiperidinyl", "4-(1-Piperidino)piperidine", "1-(Piperidin-4-yl)piperidine", "1-(4-Piperidyl)piperidine"], "SMILES": "C1(CCNCC1)N2CCCCC2", "physical_data": {"Molecular Weight": "168.28", "Molecular Formula": "C10H20N2", "Melting Point": "63-66 \u00b0C"}}