{"cas_no": "4897-25-0", "cn_name": "5-\u6c2f-1-\u7532\u57fa-4-\u785d\u57fa\u54aa\u5511", "en_name": ["5-Chloro-1-methyl-4-nitroimidazole", "1H-Imidazole, 5-chloro-1-methyl-4-nitro-", "Imidazole, 5-chloro-1-methyl-4-nitro-", "5-Chloro-1-methyl-4-nitro-1H-imidazole", "1-Methyl-4-nitro-5-chloroimidazole", "5-Chloro-1-methyl-4-nitroimidazole", "1-Methyl-5-chloro-4-nitroimidazole", "S 50154-9", "CMNI", "P14", "PCMNI", "NSC 7852"], "SMILES": "N(=O)(=O)C1=C(Cl)N(C)C=N1", "physical_data": {"Molecular Weight": "161.55", "Molecular Formula": "C4H4ClN3O2", "Melting Point": "147-148 \u00b0C", "Density": "1.682 g/cm\u00b3"}}