{"cas_no": "490-11-9", "cn_name": "3,4-\u5421\u5576\u4e8c\u7fa7\u9178", "en_name": ["Cinchomeronic acid", "3,4-Pyridinedicarboxylic acid", "Chinchomeronic acid", "Cinchomeronic acid", "NSC 178"], "SMILES": "C(O)(=O)C=1C(C(O)=O)=CN=CC1", "physical_data": {"Molecular Weight": "167.12", "Molecular Formula": "C7H5NO4", "Melting Point": "256 \u00b0C"}}