{"cas_no": "490-75-5", "cn_name": "\u9ad8\u594e\u5b81\u9178", "en_name": ["2-Carboxy-3-pyridineacetic acid", "3-Pyridineacetic acid, 2-carboxy-", "3-Picoline-\u03b1,2-dicarboxylic acid", "2-Carboxy-3-pyridineacetic acid", "Homoquinolinic acid"], "SMILES": "C(O)(=O)C1=C(CC(O)=O)C=CC=N1", "physical_data": {"Molecular Weight": "181.15", "Molecular Formula": "C8H7NO4", "Melting Point": "182-183 \u00b0C"}}