{"cas_no": "490-54-0", "cn_name": "\u9a6c\u91cc\u7519", "en_name": ["Maritimein", "3(2H)-Benzofuranone, 2-[(3,4-dihydroxyphenyl)methylene]-6-(\u03b2-D-glucopyranosyloxy)-7-hydroxy-, (2Z)-", "Maritimein", "3(2H)-Benzofuranone, 2-[(3,4-dihydroxyphenyl)methylene]-6-(\u03b2-D-glucopyranosyloxy)-7-hydroxy-, (Z)-", "3(2H)-Benzofuranone, 2-(3,4-dihydroxybenzylidene)-6-(\u03b2-D-glucopyranosyloxy)-7-hydroxy-", "(2Z)-2-[(3,4-Dihydroxyphenyl)methylene]-6-(\u03b2-D-glucopyranosyloxy)-7-hydroxy-3(2H)-benzofuranone", "(Z)-6-O-\u03b2-D-Glucopyranosyl-7,3\u2032,4\u2032-trihydroxyaurone"], "SMILES": "OC1=C2C(C(=O)C(=CC3=CC(O)=C(O)C=C3)O2)=CC=C1OC4OC(CO)C(O)C(O)C4O", "physical_data": {"Molecular Weight": "448.38", "Molecular Formula": "C21H20O11", "Melting Point": "208-214 \u00b0C"}}