{"cas_no": "490-64-2", "cn_name": "2,4,5-\u4e09\u7532\u6c27\u57fa\u82ef\u7532\u9178", "en_name": ["2,4,5-Trimethoxybenzoic acid", "Benzoic acid, 2,4,5-trimethoxy-", "2,4,5-Trimethoxybenzoic acid", "Asaronic acid", "Asarylic acid", "Calamonic acid", "3,4,6-Trimethoxybenzoic acid"], "SMILES": "C(O)(=O)C1=C(OC)C=C(OC)C(OC)=C1", "physical_data": {"Molecular Weight": "212.20", "Molecular Formula": "C10H12O5", "Boiling Point": "300 \u00b0C", "Melting Point": "145 \u00b0C"}}