{"cas_no": "490-23-3", "cn_name": "\u03b2-\u751f\u80b2\u4e09\u70ef\u915a", "en_name": ["\u03b2-Tocotrienol", "2H-1-Benzopyran-6-ol, 3,4-dihydro-2,5,8-trimethyl-2-[(3E,7E)-4,8,12-trimethyl-3,7,11-tridecatrien-1-yl]-, (2R)-", "6-Chromanol, 2,5,8-trimethyl-2-(4,8,12-trimethyl-3,7,11-tridecatrienyl)-", "2H-1-Benzopyran-6-ol, 3,4-dihydro-2,5,8-trimethyl-2-(4,8,12-trimethyl-3,7,11-tridecatrienyl)-, [R-(E,E)]-", "2H-1-Benzopyran-6-ol, 3,4-dihydro-2,5,8-trimethyl-2-[(3E,7E)-4,8,12-trimethyl-3,7,11-tridecatrienyl]-, (2R)-", "(2R)-3,4-Dihydro-2,5,8-trimethyl-2-[(3E,7E)-4,8,12-trimethyl-3,7,11-tridecatrien-1-yl]-2H-1-benzopyran-6-ol", "\u03b5-Tocopherol", "\u03b2-Tocotrienol", "\u03b5-Tokoferol", "D-\u03b2-Tocotrienol", "5,8-Dimethyltocotrienol"], "SMILES": "CC1=C2C(CCC(CCC=C(CCC=C(CCC=C(C)C)C)C)(C)O2)=C(C)C(O)=C1", "physical_data": {"Molecular Weight": "410.63", "Molecular Formula": "C28H42O2", "Melting Point": "&lt;25 \u00b0C"}}