{"cas_no": "490-98-2", "cn_name": "\u7f9f\u4e01\u5361\u56e0", "en_name": ["Hydroxytetracaine", "Benzoic acid, 4-(butylamino)-2-hydroxy-, 2-(dimethylamino)ethyl ester", "Salicylic acid, 4-(butylamino)-, 2-(dimethylamino)ethyl ester", "2-Dimethylaminoethyl 4-butylaminosalicylate", "Hydroxytetracaine", "Salicaine (anesthetic)", "Salicaine", "Salicain", "Oxypantocain", "Rhenocain", "Hydroxamethocaine", "2-(Dimethylamino)ethyl 4-(butylamino)-2-hydroxybenzoate"], "SMILES": "C(OCCN(C)C)(=O)C1=C(O)C=C(NCCCC)C=C1", "physical_data": {"Molecular Weight": "280.36", "Molecular Formula": "C15H24N2O3", "Melting Point": "156 \u00b0C"}}