{"cas_no": "490-91-5", "cn_name": "\u767e\u91cc\u918c", "en_name": ["Thymoquinone", "2,5-Cyclohexadiene-1,4-dione, 2-methyl-5-(1-methylethyl)-", "p-Mentha-3,6-diene-2,5-dione", "2-Methyl-5-(1-methylethyl)-2,5-cyclohexadiene-1,4-dione", "p-Cymene-2,5-dione", "2-Isopropyl-5-methylbenzoquinone", "2-Methyl-5-isopropyl-p-benzoquinone", "Thymoquinone", "2-Isopropyl-5-methyl-p-benzoquinone", "Thymoquinon", "5-Isopropyl-2-methyl-1,4-benzoquinone", "2-Methyl-5-isopropyl-1,4-benzoquinone", "2-Isopropyl-5-methyl-1,4-benzoquinone", "5-Isopropyl-2-methyl-p-benzoquinone", "NSC 2228", "2-Isopropyl-5-methyl-p-benzophenone", "2-Methyl-5-(propan-2-yl)cyclohexa-2,5-diene-1,4-dione", "2-Methyl-5-propan-2-ylcyclohexa-2,5-diene-1,4-dione", "5-Isopropyl-2-methylbenzo-quinone", "Thymoquin"], "SMILES": "C(C)(C)C=1C(=O)C=C(C)C(=O)C1", "physical_data": {"Molecular Weight": "164.20", "Molecular Formula": "C10H12O2", "Boiling Point": "232 \u00b0C", "Melting Point": "45.5 \u00b0C"}}