{"cas_no": "490-83-5", "cn_name": "\u53bb\u6c22\u6297\u574f\u8840\u9178", "en_name": ["Dehydroascorbic acid", "L-threo-2,3-Hexodiulosonic acid, \u03b3-lactone", "Dehydroascorbic acid, L-", "DHAA", "Oxidized ascorbic acid", "L-Ascorbic acid, dehydro-", "L-Dehydroascorbic acid", "Dehydroascorbic acid", "L-threo-Dehydroascorbic acid", "Dehydro-L-ascorbic acid", "L-Ascorbic acid, oxidized", "Oxidized vitamin C", "Dehydro-L-ascorbate"], "SMILES": "C(CO)(O)C1C(=O)C(=O)C(=O)O1", "physical_data": {"Molecular Weight": "174.11", "Molecular Formula": "C6H6O6", "Melting Point": "204-205 \u00b0C (decomp)"}}