{"cas_no": "490-79-9", "cn_name": "2,5-\u4e8c\u7f9f\u57fa\u82ef\u7532\u9178", "en_name": ["2,5-Dihydroxybenzoic acid", "Benzoic acid, 2,5-dihydroxy-", "Gentisic acid", "2,5-Dihydroxybenzoic acid", "Hydroquinonecarboxylic acid", "5-Hydroxysalicylic acid", "2,5-Dioxybenzoic acid", "Gensigen", "Gensigon", "Carboxyhydroquinone", "3,6-Dihydroxybenzoic acid", "Gentisinic acid", "NSC 27224", "NSC 49098", "NSC 78825", "2,5-DHBA", "2,5-DHB", "2,5-Dihydroxybenzenecarboxylic acid"], "SMILES": "C(O)(=O)C1=C(O)C=CC(O)=C1", "physical_data": {"Molecular Weight": "154.12", "Molecular Formula": "C7H6O4", "Boiling Point": "150 \u00b0C @ Press: 12 Torr", "Melting Point": "199.5 \u00b0C"}}