{"cas_no": "490-46-0", "cn_name": "\u8868\u513f\u8336\u7d20", "en_name": ["Epicatechin", "2H-1-Benzopyran-3,5,7-triol, 2-(3,4-dihydroxyphenyl)-3,4-dihydro-, (2R,3R)-", "Epicatechol, (-)-", "2H-1-Benzopyran-3,5,7-triol, 2-(3,4-dihydroxyphenyl)-3,4-dihydro-, (2R-cis)-", "(2R,3R)-2-(3,4-Dihydroxyphenyl)-3,4-dihydro-2H-1-benzopyran-3,5,7-triol", "(-)-Epicatechin", "(-)-Epicatechol", "(-)-(2R:3R)-5,7,3\u2032,4\u2032-Tetrahydroxyflavan-3-ol", "Epicatechin", "epi-Catechol", "l-Epicatechin", "l-Epicatechol", "Epicatechol", "(2R,3R)-(-)-Epicatechin", "epi-Catechin", "l-Acacatechin", "L-Epicatechin", "NSC 81161", "(-)-epi-Catechin"], "SMILES": "OC1C(OC=2C(C1)=C(O)C=C(O)C2)C3=CC(O)=C(O)C=C3", "physical_data": {"Molecular Weight": "290.27", "Molecular Formula": "C15H14O6", "Boiling Point": "629.2 \u00b0C", "Melting Point": "237 \u00b0C"}}