{"cas_no": "490-59-5", "cn_name": "\u54af\u80bc", "en_name": ["Alloxazine", "Benzo[g]pteridine-2,4(1H,3H)-dione", "Alloxazine", "Isoalloxazine", "Benzo[g]pteridine-2,4(3H,10H)-dione", "6,7-Benzolumazine", "Flavoquinone", "NSC 203056", "NSC 402746", "1H,2H,3H,4H-Benzo[g]pteridine-2,4-dione", "2,4-Dioxobenzo[g]pteridine", "1H-Benzo[g]pteridine-2,4-dione", "10H-Benzo[g]pteridine-2,4-dione"], "SMILES": "O=C1C=2C(NC=3C(N2)=CC=CC3)=NC(=O)N1", "physical_data": {"Molecular Weight": "214.18", "Molecular Formula": "C10H6N4O2", "Melting Point": "410 \u00b0C (decomp)"}}