{"cas_no": "490-82-4", "cn_name": "\u786b\u80fa\u7d20\u6742\u8d28D", "en_name": ["3-[(4-Amino-2-methyl-5-pyrimidinyl)methyl]-5-(2-hydroxyethyl)-4-methyl-2(3H)-thiazolone", "2(3H)-Thiazolone, 3-[(4-amino-2-methyl-5-pyrimidinyl)methyl]-5-(2-hydroxyethyl)-4-methyl-", "4-Thiazolin-2-one, 3-[(4-amino-2-methyl-5-pyrimidinyl)methyl]-5-(2-hydroxyethyl)-4-methyl-", "3-[(4-Amino-2-methyl-5-pyrimidinyl)methyl]-5-(2-hydroxyethyl)-4-methyl-2(3H)-thiazolone", "Thiamin thiazolone"], "SMILES": "C(N1C(C)=C(CCO)SC1=O)C=2C(N)=NC(C)=NC2", "physical_data": {"Molecular Weight": "280.35", "Molecular Formula": "C12H16N4O2S", "Melting Point": "237 \u00b0C"}}