{"cas_no": "490-78-8", "cn_name": "2,5-\u4e8c\u7f9f\u57fa\u82ef\u4e59\u916e", "en_name": ["2\u2032,5\u2032-Dihydroxyacetophenone", "Ethanone, 1-(2,5-dihydroxyphenyl)-", "Acetophenone, 2\u2032,5\u2032-dihydroxy-", "1-(2,5-Dihydroxyphenyl)ethanone", "Quinacetophenone", "2-Acetylhydroquinone", "2\u2032,5\u2032-Dihydroxyacetophenone", "1-Acetyl-2,5-dihydroxybenzene", "2,5-Dihydroxy-1-acetylbenzene", "2-Acetyl-1,4-benzenediol", "NSC 3759", "1-(2,5-Dihydroxyphenyl)ethan-1-one"], "SMILES": "C(C)(=O)C1=C(O)C=CC(O)=C1", "physical_data": {"Molecular Weight": "152.15", "Molecular Formula": "C8H8O3", "Boiling Point": "86 \u00b0C @ Press: 0.01 Torr", "Melting Point": "202 \u00b0C"}}