{"cas_no": "490-31-3", "cn_name": "\u6d0b\u69d0\u9ec4\u7d20", "en_name": ["Robinetin", "4H-1-Benzopyran-4-one, 3,7-dihydroxy-2-(3,4,5-trihydroxyphenyl)-", "Robinetin", "Flavone, 3,3\u2032,4\u2032,5\u2032,7-pentahydroxy-", "3,7-Dihydroxy-2-(3,4,5-trihydroxyphenyl)-4H-1-benzopyran-4-one", "Norkanugin", "3,3\u2032,4\u2032,5\u2032,7-Pentahydroxyflavone", "3,7,3\u2032,4\u2032,5\u2032-Pentahydroxyflavone", "NSC 407331", "NSC 656274", "3,7-Dihydroxy-2-(3,4,5-trihydroxyphenyl)-4H-chromen-4-one", "3,7-Dihydroxy-2-(3,4,5-trihydroxyphenyl)chromen-4-one"], "SMILES": "OC1=C(OC=2C(C1=O)=CC=C(O)C2)C3=CC(O)=C(O)C(O)=C3", "physical_data": {"Molecular Weight": "302.24", "Molecular Formula": "C15H10O7", "Melting Point": "310-312 \u00b0C (decomp)"}}