{"cas_no": "4900-30-5", "cn_name": "1,8-\u58ec\u4e8c\u70ef", "en_name": ["1,8-Nonadiene", "1,8-Nonadiene"], "SMILES": "C(CCC=C)CCC=C", "physical_data": {"Molecular Weight": "124.22", "Molecular Formula": "C9H16", "Boiling Point": "142.5 \u00b0C", "Melting Point": "-21 \u00b0C", "Density": "0.8159 g/cm\u00b3 @ Temp: 21 \u00b0C"}}