{"cas_no": "4900-63-4", "cn_name": "1-\u7532\u6c27\u57fa-4-\u785d\u57fa\u8418", "en_name": ["1-Methoxy-4-nitronaphthalene", "Naphthalene, 1-methoxy-4-nitro-", "1-Methoxy-4-nitronaphthalene", "1-Nitro-4-methoxynaphthalene", "Methyl 4-nitro-1-naphthyl ether", "4-Methoxy-1-nitronaphthalene", "NSC 65626"], "SMILES": "N(=O)(=O)C=1C2=C(C(OC)=CC1)C=CC=C2", "physical_data": {"Molecular Weight": "203.19", "Molecular Formula": "C11H9NO3", "Melting Point": "81 \u00b0C"}}