{"cas_no": "4901-51-3", "cn_name": "2,3,4,5-\u56db\u6c2f\u82ef\u915a", "en_name": ["2,3,4,5-Tetrachlorophenol", "Phenol, 2,3,4,5-tetrachloro-", "2,3,4,5-Tetrachlorophenol"], "SMILES": "ClC1=C(Cl)C(Cl)=C(O)C=C1Cl", "physical_data": {"Molecular Weight": "231.89", "Molecular Formula": "C6H2Cl4O", "Melting Point": "116.5 \u00b0C"}}