{"cas_no": "4903-09-7", "cn_name": "3-\u6c2f-4-\u7532\u6c27\u57fa\u82ef\u7532\u919b", "en_name": ["3-Chloro-4-methoxybenzaldehyde", "Benzaldehyde, 3-chloro-4-methoxy-", "p-Anisaldehyde, 3-chloro-", "3-Chloro-4-methoxybenzaldehyde", "4-Methoxy-3-chlorobenzaldehyde", "3-Chloro-p-anisaldehyde"], "SMILES": "C(=O)C1=CC(Cl)=C(OC)C=C1", "physical_data": {"Molecular Weight": "170.59", "Molecular Formula": "C8H7ClO2", "Boiling Point": "128 \u00b0C @ Press: 5 Torr", "Melting Point": "53 \u00b0C"}}