{"cas_no": "4904-61-4", "cn_name": "1,5,9-\u73af\u5341\u4e8c\u70f7\u4e09\u70ef", "en_name": ["1,5,9-Cyclododecatriene", "1,5,9-Cyclododecatriene", "CDT", "NSC 72433", "1,5,9-Cyclooctadecatriene"], "SMILES": "C1CC=CCCC=CCCC=C1", "physical_data": {"Molecular Weight": "162.27", "Molecular Formula": "C12H18", "Boiling Point": "240 \u00b0C", "Melting Point": "-18 \u00b0C", "Density": "0.8910 g/cm\u00b3 @ Temp: 20 \u00b0C"}}