{"cas_no": "4906-24-5", "cn_name": "3-\u4e59\u9170\u57fa-2-\u4e01\u916e", "en_name": ["Acetoin acetate", "2-Butanone, 3-(acetyloxy)-", "2-Butanone, 3-hydroxy-, acetate", "3-(Acetyloxy)-2-butanone", "3-Acetoxy-2-butanone", "Acetoin acetate", "3-Acetyloxy-2-butanone", "Acetic acid 1-methyl-2-oxopropyl ester", "2-Acetoxy-3-butanone", "3-Oxobutan-2-yl acetate"], "SMILES": "C(OC(C)=O)(C(C)=O)C", "physical_data": {"Molecular Weight": "130.14", "Molecular Formula": "C6H10O3", "Boiling Point": "56 \u00b0C @ Press: 10 Torr", "Density": "1.0258 g/cm\u00b3 @ Temp: 20 \u00b0C"}}