{"cas_no": "4906-25-6", "cn_name": "4-\u6b63\u4e01\u6c27\u82ef\u7532\u9178\u7532\u916f", "en_name": ["Benzoic acid, 4-butoxy-, methyl ester", "Benzoic acid, 4-butoxy-, methyl ester", "Benzoic acid, p-butoxy-, methyl ester", "Methyl 4-(butyloxy)benzoate", "Methyl 4-butoxybenzoate"], "SMILES": "C(OC)(=O)C1=CC=C(OCCCC)C=C1", "physical_data": {"Molecular Weight": "208.25", "Molecular Formula": "C12H16O3", "Boiling Point": "188-190 \u00b0C @ Press: 30 Torr"}}