{"cas_no": "4906-22-3", "cn_name": "3,3'5,5'-\u56db\u7532\u57fa-4,4'-\u8054\u82ef\u918c", "en_name": ["3,3\u2032,5,5\u2032-Tetramethyl-4,4\u2032-diphenoquinone", "2,5-Cyclohexadien-1-one, 4-(3,5-dimethyl-4-oxo-2,5-cyclohexadien-1-ylidene)-2,6-dimethyl-", "[Bi-2,5-cyclohexadien-1-ylidene]-4,4\u2032-dione, 3,3\u2032,5,5\u2032-tetramethyl-", "Diphenoquinone, 3,3\u2032,5,5\u2032-tetramethyl-", "4-(3,5-Dimethyl-4-oxo-2,5-cyclohexadien-1-ylidene)-2,6-dimethyl-2,5-cyclohexadien-1-one", "3,3\u2032,5,5\u2032-Tetramethyl-4,4\u2032-diphenoquinone", "3,3\u2032,5,5\u2032-Tetramethyldiphenoquinone", "2,2\u2032,6,6\u2032-Tetramethyldiphenylquinone", "3,3\u2032,5,5\u2032-Tetramethyl-4,4\u2032-biphenoquinone", "2,2\u2032,6,6\u2032-Tetramethyldiphenoquinone", "2,6,2\u2032,6\u2032-Tetramethyldiphenoquinone", "NSC 93973", "3,3\u2032,5,5\u2032-Tertramethyl-4,4\u2032-diphenoquinone"], "SMILES": "CC1=CC(C=C(C)C1=O)=C2C=C(C)C(=O)C(C)=C2", "physical_data": {"Molecular Weight": "240.30", "Molecular Formula": "C16H16O2", "Melting Point": "210-215 \u00b0C"}}