{"cas_no": "4909-78-8", "cn_name": "N,N-\u4e8c\u7532\u57fa\u7532\u9170\u80fa\u4e8c\u65b0\u620a\u57fa\u4e59\u7f29\u919b", "en_name": ["1,1-Bis(2,2-dimethylpropoxy)-N,N-dimethylmethanamine", "Methanamine, 1,1-bis(2,2-dimethylpropoxy)-N,N-dimethyl-", "Trimethylamine, 1,1-bis(neopentyloxy)-", "1,1-Bis(2,2-dimethylpropoxy)-N,N-dimethylmethanamine", "Dimethylformamide dineopentyl acetal", "N,N-Dimethylformamide dineopentyl acetal", "DMF dineopentyl acetal", "Dimethylformamide bis(2,2-dimethylpropyl) acetal"], "SMILES": "C(OCC(C)(C)C)(OCC(C)(C)C)N(C)C", "physical_data": {"Molecular Weight": "231.37", "Molecular Formula": "C13H29NO2", "Melting Point": "253.5 \u00b0C"}}