{"cas_no": "491-50-9", "cn_name": "\u69f2\u76ae\u7d20-7-O-BETA-D-\u5421\u5583\u8461\u8404\u7cd6\u82f7", "en_name": ["Quercetin 7-O-glucoside", "4H-1-Benzopyran-4-one, 2-(3,4-dihydroxyphenyl)-7-(\u03b2-D-glucopyranosyloxy)-3,5-dihydroxy-", "Quercimeritrin", "2-(3,4-Dihydroxyphenyl)-7-(\u03b2-D-glucopyranosyloxy)-3,5-dihydroxy-4H-1-benzopyran-4-one", "C.I. 75710", "Quercimeritroside", "Quercetin 7-O-\u03b2-D-glucopyranoside", "Quercetin 7-\u03b2-D-glucopyranoside", "Quercetin 7-O-glucoside", "Quercetin 7-O-\u03b2-D-glucoside", "NSC 115917", "Quercimetrin", "Quercetin 7-O-\u03b2-glucopyranoside"], "SMILES": "O=C1C=2C(OC(=C1O)C3=CC(O)=C(O)C=C3)=CC(OC4OC(CO)C(O)C(O)C4O)=CC2O", "physical_data": {"Molecular Weight": "464.38", "Molecular Formula": "C21H20O12", "Melting Point": "248 \u00b0C"}}