{"cas_no": "491-36-1", "cn_name": "4-\u7f9f\u57fa\u55b9\u5511\u5549", "en_name": ["4(1H)-Quinazolinone", "4(3H)-Quinazolinone", "4(1H)-Quinazolinone", "4-Quinazolone", "4-Quinazolinone", "4-Quinazolinol", "4-Hydroxyquinazoline", "4-Oxoquinazoline", "4(3H)-Quinazolone", "4-Oxo-3,4-dihydroquinazoline", "3,4-Dihydroquinazolin-4-one", "NSC 5863", "C 201-0583", "1H-Quinazolin-4-one"], "SMILES": "O=C1C=2C(NC=N1)=CC=CC2", "physical_data": {"Molecular Weight": "146.15", "Molecular Formula": "C8H6N2O", "Melting Point": "217.5 \u00b0C"}}