{"cas_no": "491-11-2", "cn_name": "3-\u6c2f-4-\u785d\u57fa\u82ef\u915a", "en_name": ["3-Chloro-4-nitrophenol", "Phenol, 3-chloro-4-nitro-", "3-Chloro-4-nitrophenol", "2-Chloro-4-hydroxynitrobenzene"], "SMILES": "N(=O)(=O)C1=C(Cl)C=C(O)C=C1", "physical_data": {"Molecular Weight": "173.55", "Molecular Formula": "C6H4ClNO3", "Melting Point": "120-121 \u00b0C"}}