{"cas_no": "491-78-1", "cn_name": "5-\u7f9f\u57fa\u9ec4\u916e", "en_name": ["5-Hydroxyflavone", "4H-1-Benzopyran-4-one, 5-hydroxy-2-phenyl-", "Flavone, 5-hydroxy-", "5-Hydroxy-2-phenyl-4H-1-benzopyran-4-one", "5-Hydroxyflavone", "5-Hydroxy-2-phenylchromone", "Primuletin", "NSC 26745", "5-Hydroxy-2-phenylchromen-4-one", "5-Hydroxy-2-phenyl-4H-chromen-4-one"], "SMILES": "O=C1C=2C(OC(=C1)C3=CC=CC=C3)=CC=CC2O", "physical_data": {"Molecular Weight": "238.24", "Molecular Formula": "C15H10O3", "Melting Point": "156-157 \u00b0C"}}