{"cas_no": "491-37-2", "cn_name": "2,3-\u4e8c\u6c22\u82ef\u5e76\u5421\u5583-4-\u916e", "en_name": ["Chromanone", "4H-1-Benzopyran-4-one, 2,3-dihydro-", "4-Chromanone", "2,3-Dihydro-4H-1-benzopyran-4-one", "Chromanone", "2,3-Dihydro-4-benzopyranone", "2,3-Dihydro-4H-chromen-4-one", "NSC 174058", "2,3-Dihydrochromen-4-one", "Dihydrobenzopyran-4-one", "3,4-Dihydro-2H-1-benzopyran-4-one", "2,3-Dihydro-1-benzopyran-4-one"], "SMILES": "O=C1C=2C(OCC1)=CC=CC2", "physical_data": {"Molecular Weight": "148.16", "Molecular Formula": "C9H8O2", "Boiling Point": "160 \u00b0C @ Press: 50 Torr", "Melting Point": "36.5 \u00b0C", "Density": "1.1291 g/cm\u00b3 @ Temp: 99.8 \u00b0C"}}