{"cas_no": "491-72-5", "cn_name": "2,4-\u4e8c\u7f9f\u57fa-6-\u620a\u57fa\u82ef\u7532\u9178", "en_name": ["Olivetolic acid", "Benzoic acid, 2,4-dihydroxy-6-pentyl-", "\u03b2-Resorcylic acid, 6-pentyl-", "2,4-Dihydroxy-6-pentylbenzoic acid", "Olivetolcarboxylic acid", "Allazetolcarboxylic acid", "Olivetolic acid"], "SMILES": "C(CCCC)C1=C(C(O)=O)C(O)=CC(O)=C1", "physical_data": {"Molecular Weight": "224.25", "Molecular Formula": "C12H16O4", "Melting Point": "143 \u00b0C"}}