{"cas_no": "491-38-3", "cn_name": "\u4e59\u8272\u5511", "en_name": ["Chromone", "4H-1-Benzopyran-4-one", "Chromone", "4H-Chromen-4-one", "Benzo-\u03b3-pyrone", "2,3-Benzo-4-pyrone"], "SMILES": "O=C1C=2C(OC=C1)=CC=CC2", "physical_data": {"Molecular Weight": "146.14", "Molecular Formula": "C9H6O2", "Melting Point": "59 \u00b0C"}}