{"cas_no": "491-70-3", "cn_name": "\u6728\u7280\u8349\u7d20", "en_name": ["Luteolin", "4H-1-Benzopyran-4-one, 2-(3,4-dihydroxyphenyl)-5,7-dihydroxy-", "Luteolin", "Flavone, 3\u2032,4\u2032,5,7-tetrahydroxy-", "2-(3,4-Dihydroxyphenyl)-5,7-dihydroxy-4H-1-benzopyran-4-one", "Luteoline", "Luteolol", "3\u2032,4\u2032,5,7-Tetrahydroxyflavone", "Yama Kariyasu", "Digitoflavone", "Cyanidenon 1470", "Flacitran", "5,7,3\u2032,4\u2032-Tetrahydroxyflavone", "Weld lake", "Cyanidenon", "2-(3,4-Dihydroxyphenyl)-5,7-dihydroxy-4H-benzopyran-4-one", "Salifazide", "ST 024703", "2-(3,4-Dihydroxyphenyl)-5,7-dihydroxy-4H-chromen-4-one", "2-(3,4-Dihydroxy-phenyl)-5,7-dihydroxy-chromen-4-one", "2-(3,4-Dihydroxyphenyl)-5,7-dihydroxychromen-4-one", "TCM 5280445", "MeSH ID: D047311"], "SMILES": "O=C1C=2C(OC(=C1)C3=CC(O)=C(O)C=C3)=CC(O)=CC2O", "physical_data": {"Molecular Weight": "286.24", "Molecular Formula": "C15H10O6", "Melting Point": "329.5 \u00b0C (decomp)"}}