{"cas_no": "491-60-1", "cn_name": "\u5927\u9ec4\u7d20\u84bd\u916e", "en_name": ["1,3,8-Trihydroxy-6-methyl-9(10H)-anthracenone", "9(10H)-Anthracenone, 1,3,8-trihydroxy-6-methyl-", "Anthrone, 1,3,8-trihydroxy-6-methyl-", "1,3,8-Trihydroxy-6-methyl-9(10H)-anthracenone", "Emodin anthrone", "Emodin-9-anthrone", "Frangula emodin anthrone"], "SMILES": "O=C1C=2C(CC=3C1=C(O)C=C(O)C3)=CC(C)=CC2O", "physical_data": {"Molecular Weight": "256.25", "Molecular Formula": "C15H12O4", "Melting Point": "254-258 \u00b0C (decomp)"}}