{"cas_no": "491-67-8", "cn_name": "\u9ec4\u82a9\u7d20", "en_name": ["Baicalein", "4H-1-Benzopyran-4-one, 5,6,7-trihydroxy-2-phenyl-", "Flavone, 5,6,7-trihydroxy-", "Baicalein", "5,6,7-Trihydroxy-2-phenyl-4H-1-benzopyran-4-one", "5,6,7-Trihydroxyflavone", "Noroxylin", "NSC 661431", "Baikalein"], "SMILES": "O=C1C=2C(OC(=C1)C3=CC=CC=C3)=CC(O)=C(O)C2O", "physical_data": {"Molecular Weight": "270.24", "Molecular Formula": "C15H10O5", "Melting Point": "264.5 \u00b0C (decomp)"}}