{"cas_no": "491-80-5", "cn_name": "\u9e70\u5634\u8c46\u7259\u7d20A", "en_name": ["Biochanin", "4H-1-Benzopyran-4-one, 5,7-dihydroxy-3-(4-methoxyphenyl)-", "Biochanin A", "Isoflavone, 5,7-dihydroxy-4\u2032-methoxy-", "5,7-Dihydroxy-3-(4-methoxyphenyl)-4H-1-benzopyran-4-one", "5,7-Dihydroxy-4\u2032-methoxyisoflavone", "Genistein 4-methyl ether", "4\u2032-Methylgenistein", "(-)-5,7-Dihydroxy-4\u2032-methoxyisoflavone", "Biochanin", "Olmelin", "Genistein 4\u2032-methyl ether", "NSC 123538"], "SMILES": "O=C1C=2C(OC=C1C3=CC=C(OC)C=C3)=CC(O)=CC2O", "physical_data": {"Molecular Weight": "284.26", "Molecular Formula": "C16H12O5", "Boiling Point": "340-355 \u00b0C @ Press: 0.5 Torr", "Melting Point": "215 \u00b0C"}}