{"cas_no": "491-34-9", "cn_name": "1-\u7532\u57fa-1,2,3,4-\u56db\u6c22\u55b9\u5549", "en_name": ["1-Methyl-1,2,3,4-tetrahydroquinoline", "Quinoline, 1,2,3,4-tetrahydro-1-methyl-", "Kairoline", "1,2,3,4-Tetrahydro-1-methylquinoline", "Kuzol A", "1-Methyl-1,2,3,4-tetrahydroquinoline", "N-Methyl-1,2,3,4-tetrahydroquinoline", "Kairolin", "1-Methyl-3,4-dihydro-2H-quinoline"], "SMILES": "CN1C=2C(CCC1)=CC=CC2", "physical_data": {"Molecular Weight": "147.22", "Molecular Formula": "C10H13N", "Boiling Point": "246 \u00b0C", "Melting Point": "114 \u00b0C"}}