{"cas_no": "491-54-3", "cn_name": "\u5c71\u5948\u7d20", "en_name": ["Kaempferide", "4H-1-Benzopyran-4-one, 3,5,7-trihydroxy-2-(4-methoxyphenyl)-", "Kaempferide", "Flavone, 3,5,7-trihydroxy-4\u2032-methoxy-", "3,5,7-Trihydroxy-2-(4-methoxyphenyl)-4H-1-benzopyran-4-one", "3,5,7-Trihydroxy-4\u2032-methoxyflavone", "Kaempferol 4\u2032-methyl ether", "Kaempferid", "4\u2032-O-Methylkaempferol", "4\u2032-Methylkaempferol", "4\u2032-Methoxykaempferol", "5,7-Dihydroxy-4\u2032-methoxyflavonol", "NSC 407294", "Kaempferol 4\u2032-O-methyl ether", "Kaempherol 4\u2032-O-methyl ether", "4\u2032-O-Methylkaempherol", "3,5,7-Trihydroxy-2-(4-methoxyphenyl)chromen-4-one", "3,5,7-Trihydroxy-2-(4-methoxyphenyl)-4H-chromen-4-one"], "SMILES": "O=C1C=2C(OC(=C1O)C3=CC=C(OC)C=C3)=CC(O)=CC2O", "physical_data": {"Molecular Weight": "300.26", "Molecular Formula": "C16H12O6", "Melting Point": "227-229 \u00b0C"}}