{"cas_no": "491-07-6", "cn_name": "\u987a-5-\u7532\u57fa-2-(1-\u7532\u57fa\u4e59\u57fa)\u73af\u5df1\u916e", "en_name": ["(\u00b1)-Isomenthone", "Cyclohexanone, 5-methyl-2-(1-methylethyl)-, (2R,5R)-rel-", "Cyclohexanone, 5-methyl-2-(1-methylethyl)-, cis-", "p-Menthan-3-one, cis-", "rel-(2R,5R)-5-Methyl-2-(1-methylethyl)cyclohexanone", "Isomenthone", "cis-p-Menthan-3-one", "cis-Menthone", "(\u00b1)-Isomenthone", "dl-Isomenthone", "\u03b1-Isomenthone", "cis-p-Menthone"], "SMILES": "C(C)(C)C1C(=O)CC(C)CC1", "physical_data": {"Molecular Weight": "154.25", "Molecular Formula": "C10H18O", "Boiling Point": "82-85 \u00b0C @ Press: 8 Torr", "Melting Point": "-35 \u00b0C", "Density": "0.9916 g/cm\u00b3 @ Temp: 25 \u00b0C"}}