{"cas_no": "491-74-7", "cn_name": "\u91ce\u9e22\u5c3e\u82f7", "en_name": ["Iridin", "4H-1-Benzopyran-4-one, 7-(\u03b2-D-glucopyranosyloxy)-5-hydroxy-3-(3-hydroxy-4,5-dimethoxyphenyl)-6-methoxy-", "Iridin", "7-(\u03b2-D-Glucopyranosyloxy)-5-hydroxy-3-(3-hydroxy-4,5-dimethoxyphenyl)-6-methoxy-4H-1-benzopyran-4-one", "Irigenin 7-\u03b2-D-glucopyranoside", "Irigenin 7-glucoside", "Irigenin 7-O-\u03b2-D-glucopyranoside"], "SMILES": "O=C1C=2C(=CC(OC3OC(CO)C(O)C(O)C3O)=C(OC)C2O)OC=C1C4=CC(OC)=C(OC)C(O)=C4", "physical_data": {"Molecular Weight": "522.46", "Molecular Formula": "C24H26O13", "Melting Point": "208 \u00b0C"}}