{"cas_no": "491-30-5", "cn_name": "1-\u7f9f\u57fa\u5f02\u55b9\u5549", "en_name": ["1(2H)-Isoquinolinone", "1(2H)-Isoquinolinone", "Isocarbostyril", "1(2H)-Isoquinolone", "1-Isoquinolinol", "1-Hydroxyisoquinoline", "1-Oxo-1,2-dihydroisoquinoline", "2(1H)-Isoquinolinone", "NSC 27273", "2H-Isoquinolin-1-one", "1,2-Dihydroisoquinolin-1-one"], "SMILES": "O=C1C=2C(C=CN1)=CC=CC2", "physical_data": {"Molecular Weight": "145.16", "Molecular Formula": "C9H7NO", "Melting Point": "212.5 \u00b0C"}}