{"cas_no": "491-69-0", "cn_name": "\u5f02\u6a31\u82b1\u82f7", "en_name": ["Isosakuranin", "4H-1-Benzopyran-4-one, 7-(\u03b2-D-glucopyranosyloxy)-2,3-dihydro-5-hydroxy-2-(4-methoxyphenyl)-, (2S)-", "p-Isosakuranin", "4H-1-Benzopyran-4-one, 7-(\u03b2-D-glucopyranosyloxy)-2,3-dihydro-5-hydroxy-2-(4-methoxyphenyl)-, (S)-", "(2S)-7-(\u03b2-D-Glucopyranosyloxy)-2,3-dihydro-5-hydroxy-2-(4-methoxyphenyl)-4H-1-benzopyran-4-one", "Isosakuranin", "Poncirenin"], "SMILES": "O=C1C=2C(OC(C1)C3=CC=C(OC)C=C3)=CC(OC4OC(CO)C(O)C(O)C4O)=CC2O", "physical_data": {"Molecular Weight": "448.42", "Molecular Formula": "C22H24O10", "Melting Point": "190 \u00b0C"}}