{"cas_no": "491-71-4", "cn_name": "\u91d1\u5723\u8349(\u9ec4)\u7d20", "en_name": ["Chrysoeriol", "4H-1-Benzopyran-4-one, 5,7-dihydroxy-2-(4-hydroxy-3-methoxyphenyl)-", "Flavone, 4\u2032,5,7-trihydroxy-3\u2032-methoxy-", "5,7-Dihydroxy-2-(4-hydroxy-3-methoxyphenyl)-4H-1-benzopyran-4-one", "Chrysoeriol", "3\u2032-Methoxyapigenin", "Luteolin 3\u2032-methyl ether", "5,7,4\u2032-Trihydroxy-3\u2032-methoxyflavone", "3\u2032-Methoxy-4\u2032,5,7-trihydroxyflavone", "Chrysoriol", "3\u2032-O-Methylluteolin", "Luteolin 3\u2032-O-methylether"], "SMILES": "O=C1C=2C(OC(=C1)C3=CC(OC)=C(O)C=C3)=CC(O)=CC2O", "physical_data": {"Molecular Weight": "300.26", "Molecular Formula": "C16H12O6", "Melting Point": "&gt;337 \u00b0C"}}