{"cas_no": "491-35-0", "cn_name": "4-\u7532\u57fa\u55b9\u5549", "en_name": ["4-Methylquinoline", "Quinoline, 4-methyl-", "Lepidine", "4-Methylquinoline", "Cincholepidine", "4-Lepidine", "Lepidin", "\u03b3-Methylquinoline", "NSC 3412"], "SMILES": "CC=1C2=C(N=CC1)C=CC=C2", "physical_data": {"Molecular Weight": "143.19", "Molecular Formula": "C10H9N", "Boiling Point": "261-263 \u00b0C", "Melting Point": "9.5 \u00b0C", "Density": "1.0826 g/cm\u00b3 @ Temp: 20 \u00b0C"}}