{"cas_no": "4910-46-7", "cn_name": "\u53f8\u8c37\u6c28\u9178", "en_name": ["Spaglumic acid", "L-Glutamic acid, N-acetyl-L-\u03b2-aspartyl-", "Glutamic acid, N-(N-acetyl-L-\u03b2-aspartyl)-, L-", "Glutamic acid, N-(N-acetyl-L-\u03b2-aspartyl)-", "L-Glutamic acid, N-(N-acetyl-L-\u03b2-aspartyl)-", "N-Acetyl-L-\u03b2-aspartyl-L-glutamic acid", "Spaglumic acid", "\u03b2-Spaglumic acid", "\u03b2-NAAG"], "SMILES": "C(CC(NC(CCC(O)=O)C(O)=O)=O)(NC(C)=O)C(O)=O", "physical_data": {"Molecular Weight": "304.25", "Molecular Formula": "C11H16N2O8", "Melting Point": "113-115 \u00b0C (decomp)"}}