{"cas_no": "4913-13-7", "cn_name": "N,N,3,5-\u56db\u7532\u57fa\u82ef\u80fa", "en_name": ["N,N,3,5-Tetramethylaniline", "Benzenamine, N,N,3,5-tetramethyl-", "3,5-Xylidine, N,N-dimethyl-", "N,N,3,5-Tetramethylbenzenamine", "N,N,3,5-Tetramethylaniline", "3,5-Dimethyl-N,N-dimethylaniline", "3,5,N,N-Tetramethylaniline", "(3,5-Dimethylphenyl)dimethylamine", "D 7924", "N,N-Dimethyl-3,5-xylidine"], "SMILES": "N(C)(C)C1=CC(C)=CC(C)=C1", "physical_data": {"Molecular Weight": "149.23", "Molecular Formula": "C10H15N", "Boiling Point": "101-103 \u00b0C @ Press: 18 Torr"}}