{"cas_no": "4916-57-8", "cn_name": "1,2-\u53cc(4-\u5421\u5576\u57fa)\u4e59\u70f7", "en_name": ["1,2-Bis(4-pyridyl)ethane", "Pyridine, 4,4\u2032-(1,2-ethanediyl)bis-", "Pyridine, 4,4\u2032-ethylenedi-", "4,4\u2032-(1,2-Ethanediyl)bis[pyridine]", "1,2-Bis(4-pyridyl)ethane", "1,2-Di-4-pyridylethane", "1,2-Di(4-pyridinyl)ethane", "1,2-Bis(4-pyridinyl)ethane", "NSC 11477", "1,2-Bi(4-pyridyl)ethane"], "SMILES": "C(CC=1C=CN=CC1)C=2C=CN=CC2", "physical_data": {"Molecular Weight": "184.24", "Molecular Formula": "C12H12N2", "Boiling Point": "95 \u00b0C @ Press: 0.6 Torr", "Melting Point": "110-111 \u00b0C"}}