{"cas_no": "4917-76-4", "cn_name": "\u786b\u4ee3\u4e01\u4e8c\u9178", "en_name": ["Thiodisuccinic acid", "Butanedioic acid, 2,2\u2032-thiobis-", "Succinic acid, 2,2\u2032-thiodi-", "2,2\u2032-Thiobis[butanedioic acid]", "Thiodisuccinic acid", "2,2\u2032-Thiobis(succinic acid)", "2,2\u2032-Thiodisuccinic acid", "2-(1,2-Dicarboxyethylsulfanyl)butanedioic acid"], "SMILES": "C(SC(CC(O)=O)C(O)=O)(CC(O)=O)C(O)=O", "physical_data": {"Molecular Weight": "266.23", "Molecular Formula": "C8H10O8S", "Melting Point": "212-213 \u00b0C"}}