{"cas_no": "491833-29-5", "cn_name": "\u4f9d\u5229\u683c\u9c81\u53f8\u7279", "en_name": ["N-[(1R,2R)-2-(2,3-Dihydro-1,4-benzodioxin-6-yl)-2-hydroxy-1-(1-pyrrolidinylmethyl)ethyl]octanamide", "Octanamide, N-[(1R,2R)-2-(2,3-dihydro-1,4-benzodioxin-6-yl)-2-hydroxy-1-(1-pyrrolidinylmethyl)ethyl]-", "N-[(1R,2R)-2-(2,3-Dihydro-1,4-benzodioxin-6-yl)-2-hydroxy-1-(1-pyrrolidinylmethyl)ethyl]octanamide", "Eliglustat", "Genz 99067", "Cerdelga"], "SMILES": "C(C(CN1CCCC1)NC(CCCCCCC)=O)(O)C=2C=C3C(=CC2)OCCO3", "physical_data": {"Molecular Weight": "404.54", "Molecular Formula": "C23H36N2O4", "Melting Point": "85-87 \u00b0C"}}