{"cas_no": "4919-34-0", "cn_name": "3-(4-\u4e59\u6c27\u57fa\u82ef\u57fa)\u4e19\u9178", "en_name": ["4-Ethoxybenzenepropanoic acid", "Benzenepropanoic acid, 4-ethoxy-", "Hydrocinnamic acid, p-ethoxy-", "4-Ethoxybenzenepropanoic acid", "p-Ethoxyhydrocinnamic acid", "3-(4-Ethoxyphenyl)propionic acid", "NSC 157580", "3-(4-Ethoxyphenyl)propanoic acid"], "SMILES": "C(CC(O)=O)C1=CC=C(OCC)C=C1", "physical_data": {"Molecular Weight": "194.23", "Molecular Formula": "C11H14O3", "Melting Point": "103-104 \u00b0C"}}