{"cas_no": "4919-37-3", "cn_name": "4-\u7f9f\u57fa-3,5-\u4e8c\u7532\u57fa\u82ef\u7532\u9178", "en_name": ["4-Hydroxy-3,5-dimethylbenzoic acid", "Benzoic acid, 4-hydroxy-3,5-dimethyl-", "4-Hydroxy-3,5-dimethylbenzoic acid", "3,5-Dimethyl-4-hydroxybenzoic acid", "2,6-Dimethyl-4-carboxyphenol", "NSC 68319"], "SMILES": "C(O)(=O)C1=CC(C)=C(O)C(C)=C1", "physical_data": {"Molecular Weight": "166.17", "Molecular Formula": "C9H10O3", "Melting Point": "221-224.5 \u00b0C"}}