{"cas_no": "4919-40-8", "cn_name": "4-\u6c28\u57fa-3,5-\u4e8c\u7532\u57fa-\u82ef\u7532\u9178", "en_name": ["4-Amino-3,5-dimethylbenzoic acid", "Benzoic acid, 4-amino-3,5-dimethyl-", "4-Amino-3,5-dimethylbenzoic acid", "3,5-Dimethyl-4-aminobenzoic acid", "NSC 38033"], "SMILES": "C(O)(=O)C1=CC(C)=C(N)C(C)=C1", "physical_data": {"Molecular Weight": "165.19", "Molecular Formula": "C9H11NO2", "Melting Point": "251-252 \u00b0C"}}