{"cas_no": "4919-33-9", "cn_name": "4-\u4e59\u57fa\u6c27\u4e19\u57fa\u4e59\u9178\u916f", "en_name": ["4-Ethoxybenzeneacetic acid", "Benzeneacetic acid, 4-ethoxy-", "Acetic acid, (p-ethoxyphenyl)-", "4-Ethoxybenzeneacetic acid", "(p-Ethoxyphenyl)acetic acid", "4-Ethoxyphenylacetic acid", "2-(4-Ethoxyphenyl)acetic acid"], "SMILES": "C(C(O)=O)C1=CC=C(OCC)C=C1", "physical_data": {"Molecular Weight": "180.20", "Molecular Formula": "C10H12O3", "Melting Point": "87-90 \u00b0C"}}