{"cas_no": "492-73-9", "cn_name": "\u4e8c(2-\u5421\u5576\u57fa)\u4e59\u4e8c\u916e", "en_name": ["2,2\u2032-Pyridil", "1,2-Ethanedione, 1,2-di-2-pyridinyl-", "Glyoxal, di-2-pyridyl-", "Ethanedione, di-2-pyridinyl-", "1,2-Di-2-pyridinyl-1,2-ethanedione", "Bipicolinoyl", "Di-2-pyridylglyoxal", "\u03b1-Pyridil", "2,2\u2032-Pyridil", "Bis(2-pyridyl)ethanedione", "2,2\u2032-Dipyridylglyoxal", "Di-2-pyridyldiketone", "1,2-Bis(2-pyridyl)-1,2-ethanedione", "NSC 16545", "1,2-Bis(2-pyridinyl)-1,2-ethanedione", "1,2-Di(pyridin-2-yl)ethane-1,2-dione"], "SMILES": "C(C(=O)C1=CC=CC=N1)(=O)C2=CC=CC=N2", "physical_data": {"Molecular Weight": "212.20", "Molecular Formula": "C12H8N2O2", "Melting Point": "155 \u00b0C"}}