{"cas_no": "492-98-8", "cn_name": "\u8054\u54aa\u5511", "en_name": ["2,2\u2032-Biimidazole", "2,2\u2032-Bi-1H-imidazole", "2,2\u2032-Biimidazole", "Glycosine of Debus", "2,2\u2032-Diimidazole", "2,2\u2032-Biimidazolyl", "2,2\u2032-Bisimidazole", "NSC 522950", "1H,1\u2032H-2,2\u2032-Biimidazole", "H2BIm", "1H,1\u2032H-[2,2\u2032]Biimidazolyl", "2-(1H-Imidazol-2-yl)-1H-imidazole"], "SMILES": "C=1(NC=CN1)C=2NC=CN2", "physical_data": {"Molecular Weight": "134.14", "Molecular Formula": "C6H6N4", "Melting Point": "&gt;300 \u00b0C"}}