{"cas_no": "492-14-8", "cn_name": "\u6f06\u9ec4\u7d20 ( \u7d2b\u94c6\u7d20)", "en_name": ["(-)-Butin", "4H-1-Benzopyran-4-one, 2-(3,4-dihydroxyphenyl)-2,3-dihydro-7-hydroxy-, (2S)-", "Flavanone, 3\u2032,4\u2032,7-trihydroxy-", "Butin", "4H-1-Benzopyran-4-one, 2-(3,4-dihydroxyphenyl)-2,3-dihydro-7-hydroxy-, (S)-", "(2S)-2-(3,4-Dihydroxyphenyl)-2,3-dihydro-7-hydroxy-4H-1-benzopyran-4-one", "(-)-Butin", "7,3\u2032,4\u2032-Trihydroxyflavanone", "(S)-7,3\u2032,4\u2032-Trihydroxyflavanone"], "SMILES": "O=C1C=2C(OC(C1)C3=CC(O)=C(O)C=C3)=CC(O)=CC2", "physical_data": {"Molecular Weight": "272.25", "Molecular Formula": "C15H12O5", "Melting Point": "224-226 \u00b0C"}}