{"cas_no": "492-27-3", "cn_name": "\u6c2f\u6c28\u916e", "en_name": ["Kynurenic acid", "2-Quinolinecarboxylic acid, 4-hydroxy-", "Quinaldic acid, 4-hydroxy-", "4-Hydroxy-2-quinolinecarboxylic acid", "4-Hydroxyquinaldic acid", "4-Hydroxyquinoline-2-carboxylic acid", "Kynurenic acid", "Quinurenic acid", "4-Hydroxyquinaldinic acid", "2-Carboxy-4-hydroxyquinoline", "NSC 58973", "MeSH ID: D007736"], "SMILES": "OC=1C2=C(N=C(C(O)=O)C1)C=CC=C2", "physical_data": {"Molecular Weight": "189.17", "Molecular Formula": "C10H7NO3", "Melting Point": "282.5 \u00b0C"}}