{"cas_no": "492-93-3", "cn_name": "1,5-\u8131\u6c34-D-\u7518\u9732\u9187", "en_name": ["1,5-Anhydro-D-mannitol", "D-Mannitol, 1,5-anhydro-", "Mannitol, 1,5-anhydro-, D-", "1,5-Anhydro-D-mannitol", "Styracitol", "1,5-Anhydromannitol", "2,6-Anhydro-D-mannitol", "Styracit", "1,5-Anhydro-d-mannitol"], "SMILES": "C(O)C1C(O)C(O)C(O)CO1", "physical_data": {"Molecular Weight": "164.16", "Molecular Formula": "C6H12O5", "Melting Point": "155 \u00b0C"}}