{"cas_no": "492-38-6", "cn_name": "2-\u82ef\u57fa\u4e19\u70ef\u9178", "en_name": ["\u03b1-Phenylacrylic acid", "Benzeneacetic acid, \u03b1-methylene-", "Atropic acid", "\u03b1-Methylenebenzeneacetic acid", "\u03b1-Phenylacrylic acid", "2-Propenoic acid, 2-phenyl-", "2-Phenylacrylic acid", "2-Phenylprop-2-enoic acid", "NSC 20987"], "SMILES": "C(C(O)=O)(=C)C1=CC=CC=C1", "physical_data": {"Molecular Weight": "148.16", "Molecular Formula": "C9H8O2", "Melting Point": "106.5 \u00b0C"}}