{"cas_no": "492-88-6", "cn_name": "3-\u4e59\u6c27\u57fa\u6c34\u6768\u919b", "en_name": ["3-Ethoxysalicylaldehyde", "Benzaldehyde, 3-ethoxy-2-hydroxy-", "Salicylaldehyde, 3-ethoxy-", "3-Ethoxy-2-hydroxybenzaldehyde", "Novovanillin", "o-Ethylvanillin", "3-Ethoxysalicylaldehyde", "2-Hydroxy-3-ethoxybenzaldehyde", "2-Ethoxy-6-formylphenol", "5-Ethoxy-6-hydroxybenzaldehyde", "NSC 133446", "6-Formylguethol"], "SMILES": "O(CC)C1=C(O)C(C=O)=CC=C1", "physical_data": {"Molecular Weight": "166.17", "Molecular Formula": "C9H10O3", "Boiling Point": "263-264 \u00b0C @ Press: 740 Torr", "Melting Point": "64-65 \u00b0C"}}