{"cas_no": "492-22-8", "cn_name": "9-\u567b\u5428\u916e", "en_name": ["Thioxanthone", "9H-Thioxanthen-9-one", "Thioxanthen-9-one", "Thiaxanthone", "Thioxanthone", "9H-Thioxanthene, 9-oxo-", "Thioxanthenone", "10-Thioxanthone", "Thiaxanthenone", "9-Thioxanthone", "Thiaxanthon", "9H-Thiaxanthen-9-one", "Thioxanthone TX", "NSC 15912", "NSC 54677", "NSC 658181", "9-Thianthracen-10-one", "Esacure ITX", "Dibenzo[b,e]thiopyran-10-one", "TX"], "SMILES": "O=C1C=2C(SC=3C1=CC=CC3)=CC=CC2", "physical_data": {"Molecular Weight": "212.27", "Molecular Formula": "C13H8OS", "Boiling Point": "373 \u00b0C", "Melting Point": "209 \u00b0C"}}