{"cas_no": "492-99-9", "cn_name": "1\uff0c2-\u73af\u5df2\u4e8c\u916e\u4e8c\u809f", "en_name": ["Nioxime", "1,2-Cyclohexanedione, 1,2-dioxime", "1,2-Cyclohexanedione, dioxime", "Nioxime", "1,2-Bis(hydroxyimino)cyclohexane", "Nioxim", "Nyoxime", "NSC 4076"], "SMILES": "N(O)=C1C(=NO)CCCC1", "physical_data": {"Molecular Weight": "142.16", "Molecular Formula": "C6H10N2O2", "Melting Point": "192 \u00b0C"}}