{"cas_no": "492-62-6", "cn_name": "a-\u65e0\u6c34\u8461\u8404\u7cd6\u916f", "en_name": ["\u03b1-D-Glucose", "\u03b1-D-Glucopyranose", "Glucopyranose, \u03b1-D-", "\u03b1-Dextrose", "\u03b1-Glucose", "\u03b1-D-Glucose"], "SMILES": "C(O)C1C(O)C(O)C(O)C(O)O1", "physical_data": {"Molecular Weight": "180.16", "Molecular Formula": "C6H12O6", "Melting Point": "146 \u00b0C", "Density": "1.06 g/cm\u00b3 @ Temp: 20 \u00b0C"}}