{"cas_no": "492-08-0", "cn_name": "(+)-\u9e70\u722a\u8c46\u78b1", "en_name": ["(+)-Sparteine", "7,14-Methano-2H,6H-dipyrido[1,2-a:1\u2032,2\u2032-e][1,5]diazocine, dodecahydro-, (7R,7aR,14R,14aS)-", "Pachycarpine", "7,14-Methano-2H,6H-dipyrido[1,2-a:1\u2032,2\u2032-e][1,5]diazocine, dodecahydro-, [7R-(7\u03b1,7a\u03b1,14\u03b1,14a\u03b2)]-", "(7R,7aR,14R,14aS)-Dodecahydro-7,14-methano-2H,6H-dipyrido[1,2-a:1\u2032,2\u2032-e][1,5]diazocine", "6\u03b1,7\u03b2,9\u03b2,11\u03b2-Sparteine", "(+)-Sparteine", "d-Sparteine", "D-Sparteine", "D-(+)-Sparteine"], "SMILES": "C12C3N(CC(C1)C4N(C2)CCCC4)CCCC3", "physical_data": {"Molecular Weight": "234.38", "Molecular Formula": "C15H26N2", "Boiling Point": "133-135 \u00b0C @ Press: 1 Torr", "Melting Point": "201 \u00b0C"}}