{"cas_no": "492-70-6", "cn_name": "\u6c22\u5316\u5b89\u606f\u9999", "en_name": ["Hydrobenzoin", "1,2-Ethanediol, 1,2-diphenyl-", "Hydrobenzoin", "1,2-Diphenyl-1,2-ethanediol", "\u03b1,\u03b1\u2032-Bi[benzyl alcohol]", "1,2-Diphenylethylene glycol", "Dihydrobenzoin", "1,2-Dihydroxy-1,2-diphenylethane", "NSC 10752", "NSC 14970", "(RS,RS)-1,2-Diphenyl-1,2-ethanediol", "(\u00b1)-Dihydrobenzoin"], "SMILES": "C(C(O)C1=CC=CC=C1)(O)C2=CC=CC=C2", "physical_data": {"Molecular Weight": "214.26", "Molecular Formula": "C14H14O2", "Melting Point": "139 \u00b0C"}}