{"cas_no": "492-86-4", "cn_name": "4-\u6c2f\u6241\u6843\u9178", "en_name": ["4-Chloromandelic acid", "Benzeneacetic acid, 4-chloro-\u03b1-hydroxy-", "Mandelic acid, p-chloro-", "4-Chloro-\u03b1-hydroxybenzeneacetic acid", "p-Chloromandelic acid", "4-Chloromandelic acid", "(p-Chlorophenyl)hydroxyacetic acid", "2-Hydroxy-2-(4-chlorophenyl)acetic acid", "4-Chloro-DL-mandelic acid", "DL-p-Chloromandelic acid", "(\u00b1)-p-Chloromandelic acid", "(\u00b1)-4-Chloromandelic acid", "NSC 31400", "NSC 8112", "2-(4-Chlorophenyl)-2-hydroxyacetic acid", "(4-Chlorophenyl)hydroxyacetic acid", "DL-4-Chloromandelic acid"], "SMILES": "C(C(O)=O)(O)C1=CC=C(Cl)C=C1", "physical_data": {"Molecular Weight": "186.59", "Molecular Formula": "C8H7ClO3", "Melting Point": "119-120 \u00b0C"}}