{"cas_no": "492-94-4", "cn_name": "\u7ce0\u5076\u9170", "en_name": ["Furil", "1,2-Ethanedione, 1,2-di-2-furanyl-", "Furil", "Ethanedione, di-2-furanyl-", "1,2-Di-2-furanyl-1,2-ethanedione", "Bipyromucyl", "\u03b1-Furil", "2,2\u2032-Furil", "Difuranylglyoxal", "1,2-Di(2-furyl)ethanedione", "NSC 5561", "1,2-Di(furan-2-yl)ethane-1,2-dione", "1,2-Di-2-furylethane-1,2-dione", "Di-2-furanylethanedione", "1,2-Di(2-furanyl)-1,2-ethanedione", "1,2-Bis(furan-2-yl)ethanedione", "1,2-Bis(2-furanyl)-1,2-ethanedione", "1,2-Bis(2-furyl)ethanedione", "1,2-Bis(2-furyl)-1,2-ethanedione"], "SMILES": "C(C(=O)C1=CC=CO1)(=O)C2=CC=CO2", "physical_data": {"Molecular Weight": "190.15", "Molecular Formula": "C10H6O4", "Melting Point": "164 \u00b0C"}}