{"cas_no": "492-37-5", "cn_name": "2-\u82ef\u57fa\u4e19\u9178", "en_name": ["2-Phenylpropionic acid", "Benzeneacetic acid, \u03b1-methyl-", "Hydratropic acid", "\u03b1-Methylbenzeneacetic acid", "2-Phenylpropionic acid", "\u03b1-Phenylpropionic acid", "2-Phenylpropanoic acid", "\u03b1-Methylphenylacetic acid", "(\u00b1)-Hydratropic acid", "(\u00b1)-2-Phenylpropionic acid", "(\u00b1)-\u03b1-Methylphenylacetic acid", "(\u00b1)-2-Phenylpropanoic acid", "(RS)-2-Phenylpropionic acid", "dl-PPA", "DL-2-Phenylpropionic acid", "(RS)-2-Phenylpropanoic acid", "NSC 245033", "NSC 42872", "\u03b1-Phenylpropanoic acid"], "SMILES": "C(C(O)=O)(C)C1=CC=CC=C1", "physical_data": {"Molecular Weight": "150.17", "Molecular Formula": "C9H10O2", "Boiling Point": "261 \u00b0C", "Melting Point": "46 \u00b0C"}}