{"cas_no": "492-41-1", "cn_name": "\u53bb\u7532\u9ebb\u9ec4\u78b1", "en_name": ["(-)-Phenylpropanolamine", "Benzenemethanol, \u03b1-[(1S)-1-aminoethyl]-, (\u03b1R)-", "Benzenemethanol, \u03b1-(1-aminoethyl)-, [R-(R*,S*)]-", "(\u03b1R)-\u03b1-[(1S)-1-Aminoethyl]benzenemethanol", "erythro-(1R,2S)-Norephedrine", "l-Norephedrine", "(-)-Norephedrine", "(1R,2S)-(-)-Norephedrine", "Norephedrine, (-)-", "(-)-erythro-2-Amino-2-methyl-1-phenylethanol", "l-Phenylpropanolamine", "(-)-Norephedrin", "(1R,2S)-Norephedrine", "(R,S)-(-)-Norephedrine", "(1R,2S)-2-Amino-1-phenyl-1-propanol", "(-)-Phenylpropanolamine", "(1R,2S)-2-Amino-1-phenyl-1-propanol", "NSC 17704", "L-Norephedrine", "(1S,2R)-2-Hydroxy-2-phenyl-1-methyl-1-aminoethane"], "SMILES": "C(C(C)N)(O)C1=CC=CC=C1", "physical_data": {"Molecular Weight": "151.21", "Molecular Formula": "C9H13NO", "Melting Point": "49-50 \u00b0C"}}