{"cas_no": "492-97-7", "cn_name": "\u8054\u4e8c\u567b\u5429", "en_name": ["2,2\u2032-Bithiophene", "2,2\u2032-Bithiophene", "2,2\u2032-Bithienyl", "2,2\u2032-Dithienyl", "2,2\u2032-Dithiophene", "2,2\u2032-Bisthiophene", "\u03b1-Bithiophene", "2-(2-Thienyl)thiophene", "2-(Thiophen-2-yl)thiophene", "2-Thiophen-2-ylthiophene"], "SMILES": "C1(=CC=CS1)C2=CC=CS2", "physical_data": {"Molecular Weight": "166.26", "Molecular Formula": "C8H6S2", "Boiling Point": "260 \u00b0C", "Melting Point": "33 \u00b0C"}}