{"cas_no": "492-80-8", "cn_name": "\u76d0\u57fa\u69d0\u9ec4", "en_name": ["Solvent Yellow 34", "Benzenamine, 4,4\u2032-carbonimidoylbis[N,N-dimethyl-", "C.I. Solvent Yellow 34", "4,4\u2032-Carbonimidoylbis[N,N-dimethylbenzenamine]", "C.I. 41000B", "Auramine N Base", "Auramine O Base", "Auramine SS", "Brilliant Oil Yellow", "4,4\u2032-Dimethylaminobenzophenonimide", "Waxoline Yellow O", "Auramine base", "Auramine OAF", "Baso Yellow 124", "Orient Oil Yellow 101", "4,4\u2032-(Imidocarbonyl)bis(N,N-dimethylaniline)", "Solvent Yellow 34", "Auramine S"], "SMILES": "C(=N)(C1=CC=C(N(C)C)C=C1)C2=CC=C(N(C)C)C=C2", "physical_data": {"Molecular Weight": "267.37", "Molecular Formula": "C17H21N3", "Boiling Point": "330.5 \u00b0C", "Melting Point": "136 \u00b0C"}}