{"cas_no": "492-30-8", "cn_name": "2-C-\u7532\u57fa-D-\u6838\u7cd6\u9178-1,4-\u5185\u916f", "en_name": ["2-C-Methyl-D-ribono-1,4-lactone", "D-Ribonic acid, 2-C-methyl-, \u03b3-lactone", "Ribonic acid, 2-C-methyl-, \u03b3-lactone, D-", "2-C-Methyl-D-ribo-pentonic acid \u03b3-lactone", "\u03b1-D-Glucosaccharinic acid \u03b3-lactone", "NSC 19768", "NSC 62382", "2-C-Methyl-D-ribono-1,4-lactone"], "SMILES": "C(O)C1C(O)C(C)(O)C(=O)O1", "physical_data": {"Molecular Weight": "162.14", "Molecular Formula": "C6H10O5", "Melting Point": "158-162 \u00b0C"}}