{"cas_no": "4920-95-0", "cn_name": "3,3',4,4'-\u56db\u7532\u57fa\u8054\u82ef", "en_name": ["3,3\u2032,4,4\u2032-Tetramethylbiphenyl", "1,1\u2032-Biphenyl, 3,3\u2032,4,4\u2032-tetramethyl-", "Biphenyl, 3,3\u2032,4,4\u2032-tetramethyl-", "3,3\u2032,4,4\u2032-Tetramethyl-1,1\u2032-biphenyl", "3,3\u2032,4,4\u2032-Tetramethylbiphenyl", "3,3\u2032,4,4\u2032-Tetramethyldiphenyl", "3,4,3\u2032,4\u2032-Tetramethylbiphenyl"], "SMILES": "CC=1C=C(C=CC1C)C2=CC(C)=C(C)C=C2", "physical_data": {"Molecular Weight": "210.31", "Molecular Formula": "C16H18", "Melting Point": "76-77 \u00b0C"}}