{"cas_no": "4920-77-8", "cn_name": "3-\u7532\u57fa-2-\u785d\u57fa\u82ef\u915a", "en_name": ["3-Methyl-2-nitrophenol", "Phenol, 3-methyl-2-nitro-", "m-Cresol, 2-nitro-", "3-Methyl-2-nitrophenol", "3-Hydroxy-2-nitrotoluene", "2-Nitro-3-methylphenol", "2-Nitro-m-cresol", "2-Hydroxy-6-methylnitrobenzene", "NSC 41206", "2-Nitro-3-hydroxytoluene", "2-Methyl-6-hydroxynitrobenzene"], "SMILES": "N(=O)(=O)C1=C(C)C=CC=C1O", "physical_data": {"Molecular Weight": "153.14", "Molecular Formula": "C7H7NO3", "Boiling Point": "106-108 \u00b0C", "Melting Point": "35-39 \u00b0C"}}