{"cas_no": "4920-80-3", "cn_name": "3-\u7532\u6c27\u57fa-2-\u785d\u57fa\u82ef\u7532\u9178", "en_name": ["3-Methoxy-2-nitrobenzoic acid", "Benzoic acid, 3-methoxy-2-nitro-", "m-Anisic acid, 2-nitro-", "3-Methoxy-2-nitrobenzoic acid", "2-Nitro-3-methoxybenzoic acid", "NSC 609"], "SMILES": "N(=O)(=O)C1=C(C(O)=O)C=CC=C1OC", "physical_data": {"Molecular Weight": "197.14", "Molecular Formula": "C8H7NO5", "Melting Point": "162-163 \u00b0C"}}