{"cas_no": "4920-81-4", "cn_name": "3-\u7f9f\u57fa\u90bb\u6c28\u57fa\u82ef\u7532\u9178\u76d0\u9178\u76d0", "en_name": ["Benzoic acid, 2-amino-3-hydroxy-, hydrochloride (1:1)", "Benzoic acid, 2-amino-3-hydroxy-, hydrochloride (1:1)", "Anthranilic acid, 3-hydroxy-, hydrochloride", "Benzoic acid, 2-amino-3-hydroxy-, hydrochloride", "3-Hydroxyanthranilic acid hydrochloride"], "SMILES": "C(O)(=O)C1=C(N)C(O)=CC=C1.Cl", "physical_data": {"Molecular Weight": "", "Molecular Formula": "C7H7NO3.ClH", "Melting Point": "204 \u00b0C"}}