{"cas_no": "4920-84-7", "cn_name": "2,4-\u4e8c\u7532\u6c27\u57fa-1-\u785d\u57fa\u82ef", "en_name": ["2,4-Dimethoxy-1-nitrobenzene", "Benzene, 2,4-dimethoxy-1-nitro-", "2,4-Dimethoxy-1-nitrobenzene", "1,3-Dimethoxy-4-nitrobenzene", "2,4-Dimethoxynitrobenzene", "NSC 62004"], "SMILES": "O(C)C1=C(N(=O)=O)C=CC(OC)=C1", "physical_data": {"Molecular Weight": "183.16", "Molecular Formula": "C8H9NO4", "Melting Point": "76.5 \u00b0C"}}