{"cas_no": "4920-79-0", "cn_name": "2-\u6c2f-4-\u785d\u57fa\u82ef\u7532\u919a", "en_name": ["2-Chloro-1-methoxy-4-nitrobenzene", "Benzene, 2-chloro-1-methoxy-4-nitro-", "Anisole, 2-chloro-4-nitro-", "2-Chloro-1-methoxy-4-nitrobenzene", "3-Chloro-4-methoxynitrobenzene", "2-Chloro-4-nitroanisole"], "SMILES": "N(=O)(=O)C1=CC(Cl)=C(OC)C=C1", "physical_data": {"Molecular Weight": "187.58", "Molecular Formula": "C7H6ClNO3", "Melting Point": "62 \u00b0C"}}