{"cas_no": "4921-82-8", "cn_name": "1-\u82ef\u9170\u57fa-3-\u82ef\u57fa\u786b\u8132", "en_name": ["N-[(Phenylamino)thioxomethyl]benzamide", "Benzamide, N-[(phenylamino)thioxomethyl]-", "Urea, 1-benzoyl-3-phenyl-2-thio-", "N-[(Phenylamino)thioxomethyl]benzamide", "1-Benzoyl-3-phenylthiourea", "N-Benzoyl-N\u2032-phenylthiourea", "1-Phenyl-3-benzoylthiocarbamide", "1-Benzoyl-3-phenylthiocarbamide", "N-Phenyl-N\u2032-benzoylthiourea", "N\u2032-Phenyl-N-benzoylthiourea", "NSC 5817", "TM 2-51", "1-Benzoyl-3-phenyl-2-thiourea", "3-Benzoyl-1-phenylthiourea"], "SMILES": "N(C(NC(=O)C1=CC=CC=C1)=S)C2=CC=CC=C2", "physical_data": {"Molecular Weight": "256.32", "Molecular Formula": "C14H12N2OS", "Melting Point": "147-149 \u00b0C"}}