{"cas_no": "4922-98-9", "cn_name": "3-\u6c28\u57fa-5-\u82ef\u57fa-1,2,4-\u4e09\u5511", "en_name": ["3-Phenyl-1H-1,2,4-triazol-5-amine", "1H-1,2,4-Triazol-5-amine, 3-phenyl-", "s-Triazole, 3-amino-5-phenyl-", "1H-1,2,4-Triazol-3-amine, 5-phenyl-", "3-Phenyl-1H-1,2,4-triazol-5-amine", "3-Amino-5-phenyl-1,2,4-triazole", "3-Amino-5-phenyl-1H-1,2,4-triazole", "NSC 34794", "NSC 96969", "5-Phenyl-4H-1,2,4-triazol-3-amine"], "SMILES": "NC=1NC(=NN1)C2=CC=CC=C2", "physical_data": {"Molecular Weight": "160.18", "Molecular Formula": "C8H8N4", "Melting Point": "187-188 \u00b0C"}}