{"cas_no": "4926-55-0", "cn_name": "N-(2-\u785d\u57fa\u82ef\u57fa)\u4e59\u9187\u80fa", "en_name": ["HC Yellow 2", "Ethanol, 2-[(2-nitrophenyl)amino]-", "Ethanol, 2-(o-nitroanilino)-", "2-[(2-Nitrophenyl)amino]ethanol", "N-(2-Hydroxyethyl)-o-nitroaniline", "N-(2\u2032-Hydroxyethyl)-2-nitroaniline", "HC Yellow No. 2", "N-(2-Hydroxyethyl)-2-nitroaniline", "HC Yellow 2", "o-Nitro-N-(2-hydroxyethyl)aniline", "NSC 33878", "NSC 68401", "Covarine Yellow W 1122", "Colorex HCY 2", "1-(2\u2032-Hydroxyethyl)amino-2-nitrobenzene", "2-(2-Nitroanilino)ethanol", "2-[(2-Nitrophenyl)amino]ethan-1-ol"], "SMILES": "N(CCO)C1=C(N(=O)=O)C=CC=C1", "physical_data": {"Molecular Weight": "182.18", "Molecular Formula": "C8H10N2O3", "Melting Point": "76 \u00b0C"}}