{"cas_no": "4928-88-5", "cn_name": "1,2,4-\u4e09\u6c2e\u5511-3-\u7fa7\u9178\u7532\u916f", "en_name": ["Methyl 1H-1,2,4-triazole-5-carboxylate", "1H-1,2,4-Triazole-5-carboxylic acid, methyl ester", "s-Triazole-3-carboxylic acid, methyl ester", "1H-1,2,4-Triazole-3-carboxylic acid, methyl ester", "Methyl 1H-1,2,4-triazole-5-carboxylate", "Methyl 1,2,4-triazole-3-carboxylate", "3-Methoxycarbonyl-1,2,4-triazole", "Methyl 1H-1,2,4-triazole-3-carboxylate", "Methyl 1-[1,2,4]triazole-3-carboxylate", "Methyl 4H-1,2,4-triazole-3-carboxylate"], "SMILES": "C(OC)(=O)C=1NC=NN1", "physical_data": {"Molecular Weight": "127.10", "Molecular Formula": "C4H5N3O2", "Melting Point": "198 \u00b0C (decomp)"}}