{"cas_no": "4928-87-4", "cn_name": "1H-1,2,4-\u4e09\u6c2e\u5511-3-\u7fa7\u9178", "en_name": ["1,2,4-Triazole-3-carboxylic acid", "1H-1,2,4-Triazole-5-carboxylic acid", "s-Triazole-3-carboxylic acid", "1H-1,2,4-Triazole-3-carboxylic acid", "1,2,4-Triazole-3-carboxylic acid", "NSC 165527", "NSC 202574", "4H-1,2,4-Triazole-3-carboxylic acid"], "SMILES": "C(O)(=O)C=1NC=NN1", "physical_data": {"Molecular Weight": "113.07", "Molecular Formula": "C3H3N3O2", "Melting Point": "135-137 \u00b0C"}}