{"cas_no": "493-08-3", "cn_name": "3,4-\u4e8c\u6c22-1H-\u82ef\u5e76\u5421\u5583", "en_name": ["3,4-Dihydro-2H-1-benzopyran", "2H-1-Benzopyran, 3,4-dihydro-", "Chroman", "3,4-Dihydro-2H-1-benzopyran", "Dihydrobenzopyran", "3,4-Dihydro-2H-chromene"], "SMILES": "C=12C(=CC=CC1)OCCC2", "physical_data": {"Molecular Weight": "134.18", "Molecular Formula": "C9H10O", "Boiling Point": "98-99 \u00b0C @ Press: 18 Torr", "Density": "1.0610 g/cm\u00b3 @ Temp: 20 \u00b0C"}}