{"cas_no": "493-95-8", "cn_name": "\u6d12\u7ef4\u5b81", "en_name": ["(-)-Savinin", "2(3H)-Furanone, 4-(1,3-benzodioxol-5-ylmethyl)-3-(1,3-benzodioxol-5-ylmethylene)dihydro-, (3E,4R)-", "Hibalactone", "2(3H)-Furanone, dihydro-4-piperonyl-3-piperonylidene-, (E)-(R)-(-)-", "2(3H)-Furanone, 4-(1,3-benzodioxol-5-ylmethyl)-3-(1,3-benzodioxol-5-ylmethylene)dihydro-, [R-(E)]-", "(3E,4R)-4-(1,3-Benzodioxol-5-ylmethyl)-3-(1,3-benzodioxol-5-ylmethylene)dihydro-2(3H)-furanone", "Savinin", "Savinine", "(-)-Savinin", "(-)-Hibalactone", "NSC 150442"], "SMILES": "C(C1C(=CC=2C=C3C(=CC2)OCO3)C(=O)OC1)C=4C=C5C(=CC4)OCO5", "physical_data": {"Molecular Weight": "352.34", "Molecular Formula": "C20H16O6", "Melting Point": "146.4-148.4 \u00b0C"}}