{"cas_no": "493-02-7", "cn_name": "\u53cd\u5f0f\u5341\u6c22\u5316\u8418", "en_name": ["trans-Decalin", "Naphthalene, decahydro-, trans-", "trans-Decahydronaphthalene", "trans-Decalin", "trans-Bicyclo[4.4.0]decane", "trans-Perhydronaphthalene", "t-decalin"], "SMILES": "C12C(CCCC1)CCCC2", "physical_data": {"Molecular Weight": "138.25", "Molecular Formula": "C10H18", "Boiling Point": "187.3 \u00b0C", "Melting Point": "-30.3 \u00b0C", "Density": "0.8952 g/cm\u00b3 @ Temp: 20 \u00b0C"}}