{"cas_no": "493-09-4", "cn_name": "1,4-\u82ef\u5e76\u4e8c\u6076\u70f7", "en_name": ["1,4-Benzodioxan", "1,4-Benzodioxin, 2,3-dihydro-", "1,4-Benzodioxan", "2,3-Dihydro-1,4-benzodioxin", "1,2-(Ethylenedioxy)benzene", "Ethylene o-phenylene dioxide", "Pyrocatechol ethylene ether", "Benzene, 1,2-[1,2-ethanediylbis(oxy)]-", "NSC 406705", "2,3-Dihydrobenzo[b][1,4]dioxin"], "SMILES": "C1=2C(OCCO1)=CC=CC2", "physical_data": {"Molecular Weight": "136.15", "Molecular Formula": "C8H8O2", "Boiling Point": "214 \u00b0C", "Density": "1.180 g/cm\u00b3 @ Temp: 20 \u00b0C"}}