{"cas_no": "493-77-6", "cn_name": "2,4,6-\u4e09\u82ef\u57fa\u4e09\u55ea", "en_name": ["2,4,6-Triphenyl-1,3,5-triazine", "1,3,5-Triazine, 2,4,6-triphenyl-", "s-Triazine, 2,4,6-triphenyl-", "2,4,6-Triphenyl-1,3,5-triazine", "Cyaphenine", "Triphenyl-s-triazine", "2,4,6-Triphenyl-s-triazine", "2,4,6-Triphenyltriazine", "Kyaphenine", "NSC 46521"], "SMILES": "C=1(N=C(N=C(N1)C2=CC=CC=C2)C3=CC=CC=C3)C4=CC=CC=C4", "physical_data": {"Molecular Weight": "309.36", "Molecular Formula": "C21H15N3", "Melting Point": "231 \u00b0C"}}