{"cas_no": "493-05-0", "cn_name": "\u5f02\u8272\u6ee1", "en_name": ["Isochroman", "1H-2-Benzopyran, 3,4-dihydro-", "Isochroman", "3,4-Dihydro-1H-2-benzopyran", "NSC 63362", "1,2,3,4-Tetrahydrobenzo[c]pyran", "3,4-Dihydro-1H-isochromene", "3,4-Dihydro-1H-benzo[c]pyran", "Isochromane"], "SMILES": "C=12C(=CC=CC1)COCC2", "physical_data": {"Molecular Weight": "134.18", "Molecular Formula": "C9H10O", "Boiling Point": "67-69 \u00b0C @ Press: 2 Torr", "Density": "1.068 g/cm\u00b3 @ Temp: 17.5 \u00b0C"}}