{"cas_no": "493-50-5", "cn_name": "1-\u7532\u57fa-1,2,3,4-\u56db\u6c22\u55b9\u5549-6-\u7532\u919b", "en_name": ["1-Methyl-1,2,3,4-tetrahydroquinoline-6-carboxaldehyde", "6-Quinolinecarboxaldehyde, 1,2,3,4-tetrahydro-1-methyl-", "1,2,3,4-Tetrahydro-1-methyl-6-quinolinecarboxaldehyde", "6-Formyl-1-methyl-1,2,3,4-tetrahydroquinoline", "1-Methyl-1,2,3,4-tetrahydroquinoline-6-carboxaldehyde", "1-Methyl-3,4-dihydro-2H-quinoline-6-carbaldehyde"], "SMILES": "CN1C=2C(=CC(C=O)=CC2)CCC1", "physical_data": {"Molecular Weight": "175.23", "Molecular Formula": "C11H13NO", "Boiling Point": "219-221 \u00b0C @ Press: 15 Torr", "Melting Point": "28-29 \u00b0C"}}