{"cas_no": "493-01-6", "cn_name": "\u987a\u5f0f\u5341\u6c22\u5316\u8418", "en_name": ["cis-Decalin", "Naphthalene, decahydro-, cis-", "cis-Decahydronaphthalene", "cis-Decalin", "cis-Bicyclo[4.4.0]decane", "cis-Perhydronaphthalene"], "SMILES": "C12C(CCCC1)CCCC2", "physical_data": {"Molecular Weight": "138.25", "Molecular Formula": "C10H18", "Boiling Point": "195.8 \u00b0C", "Melting Point": "-42.9 \u00b0C", "Density": "0.898 g/cm\u00b3 @ Temp: 20 \u00b0C"}}