{"cas_no": "493-52-7", "cn_name": "\u7532\u57fa\u7ea2", "en_name": ["Methyl red", "Benzoic acid, 2-[2-[4-(dimethylamino)phenyl]diazenyl]-", "C.I. Acid Red 2", "Benzoic acid, 2-[[4-(dimethylamino)phenyl]azo]-", "2-[2-[4-(Dimethylamino)phenyl]diazenyl]benzoic acid", "p-(Dimethylamino)azobenzene-o-carboxylic acid", "Methyl red", "2-Carboxy-4\u2032-(dimethylamino)azobenzene", "o-[[p-(Dimethylamino)phenyl]azo]benzoic acid", "o-Methyl red", "4\u2032-(Dimethylamino)azobenzene-2-carboxylic acid", "2-[(p-Dimethylamino)phenyl]azobenzoic acid", "C.I. 13020", "Acid Red 2", "4-(2-Carboxyphenylazo)-N,N-dimethylaniline", "Methyl red C.I. 13020", "2-[[4-(Dimethylamino)phenyl]azo]benzoic acid", "NSC 215212", "NSC 34729", "NSC 9597", "4-(Dimethylamino)azobenzene-2\u2032-carboxylic acid", "2-(N,N-Dimethyl-4-aminophenyl)azobenzenecarboxylic acid", "2-[[4-(Dimethylamino)phenyl]diazenyl]benzoic acid"], "SMILES": "N(=NC1=CC=C(N(C)C)C=C1)C2=C(C(O)=O)C=CC=C2", "physical_data": {"Molecular Weight": "269.30", "Molecular Formula": "C15H15N3O2", "Melting Point": "181-182 \u00b0C", "Density": "1.31 g/cm\u00b3"}}