{"cas_no": "4930-98-7", "cn_name": "2-\u80bc\u5421\u5576", "en_name": ["2-Hydrazinopyridine", "Pyridine, 2-hydrazinyl-", "Pyridine, 2-hydrazino-", "2(1H)-Pyridinone, hydrazone", "2-Hydrazinylpyridine", "2-Pyridylhydrazine", "2-Hydrazinopyridine", "Hydrazine, 2-pyridinyl-", "\u03b1-Pyridylhydrazine", "2-Pyridinylhydrazine", "NSC 76877", "(Pyridin-2-yl)hydrazine"], "SMILES": "N(N)=C1C=CC=CN1", "physical_data": {"Molecular Weight": "109.13", "Molecular Formula": "C5H7N3", "Boiling Point": "185 \u00b0C @ Press: 140 Torr", "Melting Point": "46.6 \u00b0C"}}