{"cas_no": "4931-66-2", "cn_name": "L-\u7126\u8c37\u6c28\u9178\u7532\u916f", "en_name": ["Methyl pyroglutamate", "L-Proline, 5-oxo-, methyl ester", "Pyroglutamic acid, methyl ester, L-", "Methyl pyroglutamate", "(S)-5-(Methoxycarbonyl)-2-pyrrolidone", "L-Pyroglutamic acid methyl ester", "Methyl (S)-pyroglutamate", "5-Oxo-L-proline methyl ester", "Methyl L-pyroglutamate", "Pyroglutamic acid methyl ester", "(S)-5-(Methoxycarbonyl)-2-pyrrolidinone", "Methyl N-BOC-(S)-pyroglutamate", "L-5-Oxoproline methyl ester", "Methyl (S)-(+)-2-oxopyrrolidine-5-carboxylate", "(2S)-5-Oxopyrrolidine-2-carboxylic acid methyl ester", "Methyl (S)-2-oxopyrrolidine-5-carboxylate", "(S)-Methyl 5-oxopyrrolidine-2-carboxylate", "Methyl 5-oxo-L-proline", "Methyl (2S)-5-oxopyrrolidine-2-carboxylate"], "SMILES": "C(OC)(=O)C1NC(=O)CC1", "physical_data": {"Molecular Weight": "143.14", "Molecular Formula": "C6H9NO3", "Boiling Point": "127-130 \u00b0C @ Press: 2 Torr"}}