{"cas_no": "4934-99-0", "cn_name": "3-\u7f9f\u57fa\u73af\u4e01\u70f7\u7fa7\u9178\u7532\u916f", "en_name": ["Cyclobutanecarboxylic acid, 3-hydroxy-, methyl ester", "Cyclobutanecarboxylic acid, 3-hydroxy-, methyl ester", "Methyl 3-hydroxycyclobutanecarboxylate", "3-Hydroxycyclobutanecarboxylic acid methyl ester", "Methyl 3-hydroxycyclobutane-1-carboxylate"], "SMILES": "C(OC)(=O)C1CC(O)C1", "physical_data": {"Molecular Weight": "130.14", "Molecular Formula": "C6H10O3", "Boiling Point": "87-93 \u00b0C @ Press: 2.45 Torr"}}