{"cas_no": "4936-47-4", "cn_name": "\u785d\u544b\u592a\u5c14", "en_name": ["Nifuratel", "2-Oxazolidinone, 5-[(methylthio)methyl]-3-[[(5-nitro-2-furanyl)methylene]amino]-", "2-Oxazolidinone, 5-[(methylthio)methyl]-3-[(5-nitrofurfurylidene)amino]-", "5-[(Methylthio)methyl]-3-[[(5-nitro-2-furanyl)methylene]amino]-2-oxazolidinone", "Macmiror", "Magmilor", "Methylmercadone", "5-[(Methylthio)methyl]-3-[(5-nitrofurfurylidene)amino]-2-oxazolidinone", "Nifuratel", "3-[(5-Nitro-2-furfurylidene)amino]-5-[(methylthio)methyl]-2-oxazolidinone", "Polmiror", "5-(Methylmercaptomethyl)-3-(5-nitro-2-furfurylidenamino)-2-oxazolidinone", "Omnes", "Tydantil", "5-(Methylthiomethyl)-3-(5-nitro-2-furfurylidenamino)oxazolidin-2-one", "NF 113", "SAP 113", "Inimur"], "SMILES": "N(=CC=1OC(N(=O)=O)=CC1)N2CC(CSC)OC2=O", "physical_data": {"Molecular Weight": "285.28", "Molecular Formula": "C10H11N3O5S", "Melting Point": "182 \u00b0C"}}