{"cas_no": "4937-62-6", "cn_name": "2-\u6c28\u57fa-4-\u7532\u57fa\u4e8c\u82ef\u7532\u916e", "en_name": ["2-Amino-4-methylbenzophenone", "Methanone, (2-amino-4-methylphenyl)phenyl-", "Benzophenone, 2-amino-4-methyl-", "(2-Amino-4-methylphenyl)phenylmethanone", "2-Amino-4-methylbenzophenone", "4-Methyl-2-aminobenzophenone", "2-Benzoyl-5-methylaniline"], "SMILES": "C(=O)(C1=C(N)C=C(C)C=C1)C2=CC=CC=C2", "physical_data": {"Molecular Weight": "211.26", "Molecular Formula": "C14H13NO", "Melting Point": "68-70 \u00b0C"}}