{"cas_no": "4938-52-7", "cn_name": "1-\u5e9a\u70ef-3-\u9187", "en_name": ["(\u00b1)-1-Hepten-3-ol", "1-Hepten-3-ol", "(\u00b1)-1-Hepten-3-ol", "NSC 93797", "1-Vinylpentanol"], "SMILES": "C(CCCC)(C=C)O", "physical_data": {"Molecular Weight": "114.19", "Molecular Formula": "C7H14O", "Boiling Point": "153.5-154 \u00b0C", "Density": "0.835 g/cm\u00b3 @ Temp: 22 \u00b0C"}}