{"cas_no": "494-99-5", "cn_name": "3,4-\u4e8c\u7532\u6c27\u57fa\u7532\u82ef", "en_name": ["3,4-Dimethoxytoluene", "Benzene, 1,2-dimethoxy-4-methyl-", "Toluene, 3,4-dimethoxy-", "Veratrole, 4-methyl-", "1,2-Dimethoxy-4-methylbenzene", "Homoveratrole", "4-Methylveratrole", "3,4-Dimethoxytoluene", "4-Methyl-1,2-dimethoxybenzene", "4-Methylveratrol", "4-Methylcatechol dimethyl ether", "NSC 7378", "2-Methoxy-5-methylanisole"], "SMILES": "O(C)C1=C(OC)C=C(C)C=C1", "physical_data": {"Molecular Weight": "152.19", "Molecular Formula": "C9H12O2", "Boiling Point": "220 \u00b0C", "Melting Point": "24 \u00b0C", "Density": "1.0509 g/cm\u00b3 @ Temp: 25 \u00b0C"}}