{"cas_no": "494-08-6", "cn_name": "4-(BETA-D-\u8461\u8404\u7cd6\u57fa)-3-\u7532\u6c27\u57fa\u82ef\u7532\u919b", "en_name": ["Glucovanillin", "Benzaldehyde, 4-(\u03b2-D-glucopyranosyloxy)-3-methoxy-", "Avenein", "4-(\u03b2-D-Glucopyranosyloxy)-3-methoxybenzaldehyde", "Glucovanillin", "Vanillin \u03b2-D-glucopyranoside", "Vanilloside", "Vanillin glucoside", "Vanillin-4-O-\u03b2-D-glucopyranoside", "Vanillin-O-\u03b2-D-glucopyranoside"], "SMILES": "O(C1=C(OC)C=C(C=O)C=C1)C2OC(CO)C(O)C(O)C2O", "physical_data": {"Molecular Weight": "314.29", "Molecular Formula": "C14H18O8", "Melting Point": "189 \u00b0C"}}