{"cas_no": "494-52-0", "cn_name": "(-)-\u6bd2\u85dc\u78b1", "en_name": ["Anabasine", "Pyridine, 3-(2S)-2-piperidinyl-", "Anabasine", "Pyridine, 3-(2-piperidinyl)-, (S)-", "3-(2S)-2-Piperidinylpyridine", "Neonicotine", "(-)-2-(3\u2032-Pyridyl)piperidine", "(-)-Anabasine", "Anabasin", "(S)-(-)-Anabasine", "Neonikotin", "(S)-Anabasine", "NSC 87504", "(2S)-2-(Pyridin-3-yl)piperidine", "(S)-3-(Piperidin-2-yl)pyridine", "3-[(2S)-2-Piperidyl]pyridine", "3-[(2S)-Piperidin-2-yl]pyridine", "MeSH ID: D000691"], "SMILES": "C=1(C=CC=NC1)C2CCCCN2", "physical_data": {"Molecular Weight": "162.23", "Molecular Formula": "C10H14N2", "Boiling Point": "270-272 \u00b0C", "Melting Point": "9 \u00b0C", "Density": "1.0455 g/cm\u00b3 @ Temp: 20 \u00b0C"}}