{"cas_no": "494-19-9", "cn_name": "\u4e9a\u6c28\u57fa\u4e8c\u82c4", "en_name": ["10,11-Dihydro-5H-dibenz[b,f]azepine", "5H-Dibenz[b,f]azepine, 10,11-dihydro-", "10,11-Dihydro-5H-dibenz[b,f]azepine", "10,11-Dihydrodibenz[b,f]azepine", "2,2\u2032-Iminobibenzyl", "2,2\u2032-Iminodibenzyl", "Iminobibenzyl", "Iminodibenzyl", "10,11-Dihydro-5H-dibenzo[b,f]azepine", "NSC 72110", "10,11-Dihydroiminostilbene", "10,11-Dihydro-5H-dibenz-(b,f)-azepine"], "SMILES": "C1=2C(CCC=3C(N1)=CC=CC3)=CC=CC2", "physical_data": {"Molecular Weight": "195.26", "Molecular Formula": "C14H13N", "Boiling Point": "128-135 \u00b0C @ Press: 0.08 Torr", "Melting Point": "108-109 \u00b0C"}}