{"cas_no": "494-90-6", "cn_name": "\u8584\u8377\u544b\u5583", "en_name": ["Menthofuran", "Benzofuran, 4,5,6,7-tetrahydro-3,6-dimethyl-", "p-Mentha-3,8-diene, 3,9-epoxy-", "4,5,6,7-Tetrahydro-3,6-dimethylbenzofuran", "Menthofuran", "Menthofurane", "NSC 315249", "3,6-Dimethyl-4,5,6,7-tetrahydrobenzofuran", "3,6-Dimethyl-4,5,6,7-tetrahydro-1-benzofuran"], "SMILES": "CC=1C2=C(OC1)CC(C)CC2", "physical_data": {"Molecular Weight": "150.22", "Molecular Formula": "C10H14O", "Boiling Point": "80 \u00b0C", "Melting Point": "86 \u00b0C", "Density": "0.972 g/cm\u00b3 @ Temp: 15 \u00b0C"}}