{"cas_no": "494-38-2", "cn_name": "\u5416\u5576\u6a59", "en_name": ["Acridine Orange base", "3,6-Acridinediamine, N3,N3,N6,N6-tetramethyl-", "Acridine, 3,6-bis(dimethylamino)-", "3,6-Acridinediamine, N,N,N\u2032,N\u2032-tetramethyl-", "N3,N3,N6,N6-Tetramethyl-3,6-acridinediamine", "C.I. 46005B", "Brilliant Acridine Orange E", "C.I. Solvent Orange 15", "3,6-Di(dimethylamino)acridine", "Waxoline Orange A", "3,6-Bis(dimethylamino)acridine", "Acridine Orange base", "Acridine orange free base", "NSC 194350", "Solvent Orange 15", "3-N,3-N,6-N,6-N-Tetramethylacridine-3,6-diamine"], "SMILES": "N(C)(C)C1=CC2=C(C=C3C(=N2)C=C(N(C)C)C=C3)C=C1", "physical_data": {"Molecular Weight": "265.35", "Molecular Formula": "C17H19N3", "Melting Point": "181-182 \u00b0C"}}