{"cas_no": "494-97-3", "cn_name": "3-(\u5421\u54af\u70f7-2-\u57fa)\u5421\u5576", "en_name": ["Nornicotine", "Pyridine, 3-(2S)-2-pyrrolidinyl-", "Nicotine, 1\u2032-demethyl-", "Pyridine, 3-(2-pyrrolidinyl)-, (S)-", "3-(2S)-2-Pyrrolidinylpyridine", "(S)-2-(3-Pyridyl)pyrrolidine", "Nornicotine", "(S)-(-)-Nornicotine", "(-)-Nornicotine", "Nornicotin", "(S)-Nornicotine", "1\u2032-Demethylnicotine", "l-Nornicotine", "(-)-(S)-Nornicotine", "(S)-3-(Pyrrolidin-2-yl)pyridine"], "SMILES": "C1(CCCN1)C=2C=CC=NC2", "physical_data": {"Molecular Weight": "148.21", "Molecular Formula": "C9H12N2", "Boiling Point": "270 \u00b0C", "Density": "1.044 g/cm\u00b3 @ Temp: 19 \u00b0C"}}