{"cas_no": "4940-11-8", "cn_name": "\u4e59\u57fa\u9ea6\u82bd\u915a", "en_name": ["Ethyl maltol", "4H-Pyran-4-one, 2-ethyl-3-hydroxy-", "2-Ethyl-3-hydroxy-4H-pyran-4-one", "2-Ethylpyromeconic acid", "3-Hydroxy-2-ethyl-1,4-pyrone", "3-Hydroxy-2-ethyl-4-pyrone", "3-Hydroxy-2-ethyl-\u03b3-pyrone", "2-Ethyl-3-hydroxy-4-pyrone", "Veltol plus", "Ethyl maltol", "NSC 638851", "2-Ethyl-3-hydroxypyran-4-one", "2-Ethyl-3-hydroxy-pyran-4-one"], "SMILES": "C(C)C1=C(O)C(=O)C=CO1", "physical_data": {"Molecular Weight": "140.14", "Molecular Formula": "C7H8O3", "Melting Point": "89-93 \u00b0C"}}