{"cas_no": "4940-39-0", "cn_name": "4-\u82ef\u5e76\u5421\u5583\u916e-2-\u7fa7\u9178", "en_name": ["4-Oxo-4H-1-benzopyran-2-carboxylic acid", "4H-1-Benzopyran-2-carboxylic acid, 4-oxo-", "4-Oxo-4H-1-benzopyran-2-carboxylic acid", "2-Chromonecarboxylic acid", "Chromocarb", "4-Oxochromene-2-carboxylic acid", "Atremon", "LP 1", "4-Oxo-4H-benzopyran-2-carboxylic acid", "4-Oxo-4H-chromene-2-carboxylic acid", "Campel"], "SMILES": "O=C1C=2C(OC(C(O)=O)=C1)=CC=CC2", "physical_data": {"Molecular Weight": "190.15", "Molecular Formula": "C10H6O4", "Melting Point": "260 \u00b0C (decomp)"}}