{"cas_no": "4942-47-6", "cn_name": "1-\u91d1\u521a\u70f7\u4e59\u9178", "en_name": ["1-Adamantaneacetic acid", "Tricyclo[3.3.1.13,7]decane-1-acetic acid", "1-Adamantaneacetic acid", "2-(1-Adamantyl)acetic acid", "\u03b1-(1-Adamantyl)acetic acid", "1-(Carboxymethyl)adamantane", "1-Adamantylacetic acid", "Adamantylacetic acid", "(Adamantan-1-yl)acetic acid", "NSC 310162", "(Tricyclo[3.3.1.13,7]dec-1-yl)acetic acid", "2-(Adamantan-1-yl)acetic acid"], "SMILES": "C(C(O)=O)C12CC3CC(C1)CC(C2)C3", "physical_data": {"Molecular Weight": "194.27", "Molecular Formula": "C12H18O2", "Melting Point": "133 \u00b0C"}}