{"cas_no": "4943-86-6", "cn_name": "2-\u6c28\u57fa-N-(4-\u6c2f\u82ef\u57fa)\u82ef\u7532\u9170\u80fa", "en_name": ["2-Amino-N-(4-chlorophenyl)benzamide", "Benzamide, 2-amino-N-(4-chlorophenyl)-", "Benzanilide, 2-amino-4\u2032-chloro-", "2-Amino-N-(4-chlorophenyl)benzamide", "4-Chloroanthranilanilide", "2-Amino-4\u2032-chlorobenzanilide"], "SMILES": "C(NC1=CC=C(Cl)C=C1)(=O)C2=C(N)C=CC=C2", "physical_data": {"Molecular Weight": "246.69", "Molecular Formula": "C13H11ClN2O", "Melting Point": "148-149 \u00b0C"}}