{"cas_no": "4946-13-8", "cn_name": "4-\u4e59\u57fa\u82ef\u786b\u915a", "en_name": ["4-Ethylbenzenethiol", "Benzenethiol, 4-ethyl-", "Benzenethiol, p-ethyl-", "4-Ethylbenzenethiol", "p-Ethylbenzenethiol", "p-Ethylthiophenol", "p-Ethylphenylmercaptan", "4-Ethylthiophenol"], "SMILES": "C(C)C1=CC=C(S)C=C1", "physical_data": {"Molecular Weight": "138.23", "Molecular Formula": "C8H10S", "Boiling Point": "207-209 \u00b0C @ Press: 730 Torr"}}