{"cas_no": "4946-22-9", "cn_name": "4-(\u4e8c\u7532\u6c28\u57fa)\u82ef-1-\u786b\u9187", "en_name": ["4-(Dimethylamino)benzenethiol", "Benzenethiol, 4-(dimethylamino)-", "Benzenethiol, p-(dimethylamino)-", "4-(Dimethylamino)benzenethiol", "p-(Dimethylamino)benzenethiol", "4-(Dimethylamino)thiophenol", "p-(Dimethylamino)thiophenol"], "SMILES": "N(C)(C)C1=CC=C(S)C=C1", "physical_data": {"Molecular Weight": "153.24", "Molecular Formula": "C8H11NS", "Boiling Point": "122 \u00b0C @ Press: 2 Torr", "Melting Point": "32 \u00b0C"}}