{"cas_no": "4947-89-1", "cn_name": "1-(3-\u6c2f\u82ef\u57fa)-2-\u786b\u8132", "en_name": ["N-(3-Chlorophenyl)thiourea", "Thiourea, N-(3-chlorophenyl)-", "Urea, 1-(m-chlorophenyl)-2-thio-", "Thiourea, (3-chlorophenyl)-", "N-(3-Chlorophenyl)thiourea", "(m-Chlorophenyl)thiourea", "1-(m-Chlorophenyl)thiourea", "3-Chlorophenylthiourea", "1-(3-Chlorophenyl)thiourea", "m-Chlorophenylthiourea", "NSC 164965"], "SMILES": "N(C(N)=S)C1=CC(Cl)=CC=C1", "physical_data": {"Molecular Weight": "186.66", "Molecular Formula": "C7H7ClN2S", "Melting Point": "138.5-139.0 \u00b0C"}}