{"cas_no": "4948-15-6", "cn_name": "\u989c\u6599\u7ea2 149", "en_name": ["Pigment Red 149", "Anthra[2,1,9-def:6,5,10-d'e'f\u2032]diisoquinoline-1,3,8,10(2H,9H)-tetrone, 2,9-bis(3,5-dimethylphenyl)-", "3,4,9,10-Perylenetetracarboxylic 3,4:9,10-diimide, N,N\u2032-di-3,5-xylyl-", "2,9-Bis(3,5-dimethylphenyl)anthra[2,1,9-def:6,5,10-d'e'f\u2032]diisoquinoline-1,3,8,10(2H,9H)-tetrone", "N,N\u2032-Bis(3\u2032,5\u2032-dimethylphenyl)perylene-3,4,9,10-dicarboimide", "Perylene-3,4,9,10-tetracarboxylic acid bis(3\u2032,5\u2032-dimethylanilide)", "N,N\u2032-Bis(3,5-dimethylphenyl)perylene-3,4,9,10-tetracarboxylic 3,4:9,10-diimide", "C.I. Pigment Red 149", "Permanent Red BC", "Permanent Red BL", "PV Fast Red B", "Pigment Red 149", "Novoperm Red BL", "Kayaset Red E-GR", "Perylene PV Fast Red B", "Paliogen Red K 3580", "PV Solid Red B", "C.I. 71137", "Lionogen Red H 103B", "N,N\u2032-Bis(3,5-dimethylphenyl)-3,4:9,10-perylenebis(dicarboximide)", "N,N\u2032-Di(3,5-xylyl)perylene-3,4:9,10-bis(dicarboximide)", "N,N\u2032-Bis(3,5-dimethylphenyl)-3,4:9,10-perylenebis(dicarboxyimide)", "N,N\u2032-Bis(3,5-xylyl)perylene-3,4:9,10-bis(dicarboximide)", "Dymic MBR 155", "MBR 155", "Red K 3580", "PR 149 Red", "PR 149", "C.I. PR 149", "Red 04", "Exalite 613", "Palamid Red 35-8005", "Dymic MBR 155 Red"], "SMILES": "O=C1C=2C3=C4C(C=5C=6C(C4=CC2)=CC=C7C6C(=CC5)C(=O)N(C7=O)C8=CC(C)=CC(C)=C8)=CC=C3C(=O)N1C9=CC(C)=CC(C)=C9", "physical_data": {"Molecular Weight": "598.65", "Molecular Formula": "C40H26N2O4", "Melting Point": "200-201 \u00b0C"}}