{"cas_no": "494844-07-4", "cn_name": "N-PIPERIDINYL-[8-CHLORO-1-(2,4-DICHLOROPHENYL)-1,4,5,6-TETRAHYDROBENZO-[6,7]CYCLOHEPTAL[1,2-C]PYRAZOLE-3-CARBOXAMIDE", "en_name": ["8-Chloro-1-(2,4-dichlorophenyl)-1,4,5,6-tetrahydro-N-1-piperidinylbenzo[6,7]cyclohepta[1,2-c]pyrazole-3-carboxamide", "Benzo[6,7]cyclohepta[1,2-c]pyrazole-3-carboxamide, 8-chloro-1-(2,4-dichlorophenyl)-1,4,5,6-tetrahydro-N-1-piperidinyl-", "8-Chloro-1-(2,4-dichlorophenyl)-1,4,5,6-tetrahydro-N-1-piperidinylbenzo[6,7]cyclohepta[1,2-c]pyrazole-3-carboxamide", "NESS 0327", "N-(Piperidin-1-yl)-8-chloro-1-(2\u2032,4\u2032-dichlorophenyl)-1,4,5,6-tetrahydrobenzo[6,7]cyclohepta[1,2-c]pyrazole-3-carboxamide"], "SMILES": "C(NN1CCCCC1)(=O)C=2C3=C(N(N2)C4=C(Cl)C=C(Cl)C=C4)C=5C(CCC3)=CC(Cl)=CC5", "physical_data": {"Molecular Weight": "489.82", "Molecular Formula": "C24H23Cl3N4O", "Melting Point": "205-206 \u00b0C"}}