{"cas_no": "4949-44-4", "cn_name": "\u4e19\u9170\u4e59\u9178\u4e59\u916f", "en_name": ["Ethyl 3-oxopentanoate", "Pentanoic acid, 3-oxo-, ethyl ester", "Valeric acid, 3-oxo-, ethyl ester", "Ethyl propionylacetate", "Ethyl 3-ketopentanoate", "Ethyl 3-oxovalerate", "Ethyl 3-oxopentanoate", "Ethyl propioacetate", "Propionylacetic acid ethyl ester", "Ethyl \u03b2-oxovalerate", "Ethyl propanoylacetate", "NSC 7251", "NSC 78662", "3-Oxopentanoic acid ethyl ester", "3-Oxovaleric acid ethyl ester", "Ethyl propionoylacetate"], "SMILES": "C(C(OCC)=O)C(CC)=O", "physical_data": {"Molecular Weight": "144.17", "Molecular Formula": "C7H12O3", "Boiling Point": "191 \u00b0C", "Melting Point": "98 \u00b0C", "Density": "1.0527 g/cm\u00b3 @ Temp: 20 \u00b0C"}}