{"cas_no": "4949-85-3", "cn_name": "2,5-\u4e8c\u6c2f\u82ef\u57fa\u786b\u8132", "en_name": ["N-(2,5-Dichlorophenyl)thiourea", "Thiourea, N-(2,5-dichlorophenyl)-", "Urea, 1-(2,5-dichlorophenyl)-2-thio-", "Thiourea, (2,5-dichlorophenyl)-", "N-(2,5-Dichlorophenyl)thiourea", "(2,5-Dichlorophenyl)thiourea", "NSC 635820", "1-(2,5-Dichlorophenyl)thiourea"], "SMILES": "N(C(N)=S)C1=C(Cl)C=CC(Cl)=C1", "physical_data": {"Molecular Weight": "221.11", "Molecular Formula": "C7H6Cl2N2S", "Melting Point": "320 \u00b0C"}}