{"cas_no": "495-32-9", "cn_name": "NODAKENETIN", "en_name": ["Nodakenetin", "7H-Furo[3,2-g][1]benzopyran-7-one, 2,3-dihydro-2-(1-hydroxy-1-methylethyl)-, (2R)-", "7H-Furo[3,2-g][1]benzopyran-7-one, 2,3-dihydro-2-(1-hydroxy-1-methylethyl)-, (R)-", "7H-Furo[3,2-g][1]benzopyran-7-one, 2,3-dihydro-2-(1-hydroxy-1-methylethyl)-, (-)-", "(2R)-2,3-Dihydro-2-(1-hydroxy-1-methylethyl)-7H-furo[3,2-g][1]benzopyran-7-one", "Nodakenetin", "(-)-Marmesin", "(-)-Nodakenetin", "Prangeferol", "(R)-(-)-Nodakenetin", "Nodakatin", "Nodakenitin", "NANI", "(2R)-2-(2-Hydroxypropan-2-yl)-2,3-dihydrofuro[3,2-g]chromen-7-one"], "SMILES": "C(C)(C)(O)C1CC=2C(=CC3=C(C2)C=CC(=O)O3)O1", "physical_data": {"Molecular Weight": "246.26", "Molecular Formula": "C14H14O4", "Melting Point": "186.5-187 \u00b0C"}}