{"cas_no": "495-40-9", "cn_name": "\u82ef\u4e01\u916e", "en_name": ["Butyrophenone", "1-Butanone, 1-phenyl-", "Butyrophenone", "1-Phenyl-1-butanone", "n-Butyrophenone", "Propyl phenyl ketone", "Phenyl propyl ketone", "1-Benzoylpropane", "Butanophenone", "n-Propyl phenyl ketone", "NSC 8463", "Phenyl n-propyl ketone"], "SMILES": "C(CCC)(=O)C1=CC=CC=C1", "physical_data": {"Molecular Weight": "148.20", "Molecular Formula": "C10H12O", "Boiling Point": "228.5 \u00b0C", "Melting Point": "12 \u00b0C", "Density": "1.001 g/cm\u00b3 @ Temp: 40 \u00b0C"}}