{"cas_no": "495-78-3", "cn_name": "3-(2-\u7f9f\u82ef\u57fa)\u4e19\u9178", "en_name": ["Melilotic acid", "Benzenepropanoic acid, 2-hydroxy-", "Hydrocinnamic acid, o-hydroxy-", "2-Hydroxybenzenepropanoic acid", "Melilotic acid", "o-Hydroxyphenylpropionic acid", "Hydro-o-coumaric acid", "Hydrocoumaric acid", "o-Hydroxyhydrocinnamic acid", "3-(2-Hydroxyphenyl)propanoic acid", "Salicylacetic acid"], "SMILES": "C(CC(O)=O)C1=C(O)C=CC=C1", "physical_data": {"Molecular Weight": "166.17", "Molecular Formula": "C9H10O3", "Melting Point": "82-83 \u00b0C"}}