{"cas_no": "495-30-7", "cn_name": "\u5370\u5ea6\u6985\u6872\u7519", "en_name": ["Marmesinin", "7H-Furo[3,2-g][1]benzopyran-7-one, 2-[1-(\u03b2-D-glucopyranosyloxy)-1-methylethyl]-2,3-dihydro-, (2S)-", "Marmesinin", "Ammajin", "7H-Furo[3,2-g][1]benzopyran-7-one, 2-[1-(\u03b2-D-glucopyranosyloxy)-1-methylethyl]-2,3-dihydro-, (S)-", "(2S)-2-[1-(\u03b2-D-Glucopyranosyloxy)-1-methylethyl]-2,3-dihydro-7H-furo[3,2-g][1]benzopyran-7-one", "Ammijin", "(-)-Marmesinin"], "SMILES": "C(OC1OC(CO)C(O)C(O)C1O)(C)(C)C2CC=3C(=CC4=C(C3)C=CC(=O)O4)O2", "physical_data": {"Molecular Weight": "408.40", "Molecular Formula": "C20H24O9", "Melting Point": "259-260 \u00b0C (decomp)"}}