{"cas_no": "495-31-8", "cn_name": "\u7d2b\u82b1\u524d\u80e1\u82f7", "en_name": ["Nodakenin", "7H-Furo[3,2-g][1]benzopyran-7-one, 2-[1-(\u03b2-D-glucopyranosyloxy)-1-methylethyl]-2,3-dihydro-, (2R)-", "Nodakenin", "7H-Furo[3,2-g][1]benzopyran-7-one, 2-[1-(\u03b2-D-glucopyranosyloxy)-1-methylethyl]-2,3-dihydro-, (R)-", "(2R)-2-[1-(\u03b2-D-Glucopyranosyloxy)-1-methylethyl]-2,3-dihydro-7H-furo[3,2-g][1]benzopyran-7-one", "Nodakenetin, \u03b2-D-glucopyranoside", "(+)-Marmesinin"], "SMILES": "C(OC1OC(CO)C(O)C(O)C1O)(C)(C)C2CC=3C(=CC4=C(C3)C=CC(=O)O4)O2", "physical_data": {"Molecular Weight": "408.40", "Molecular Formula": "C20H24O9", "Melting Point": "218 \u00b0C (decomp)"}}