{"cas_no": "495-48-7", "cn_name": "1-\u6c27\u5316\u4e8c\u82ef\u57fa\u4e8c\u6c2e\u70ef", "en_name": ["Azoxybenzene", "Diazene, 1,2-diphenyl-, 1-oxide", "Azoxybenzene", "Diazene, diphenyl-, 1-oxide", "Azobenzene, oxide", "Azoxybenzide", "Fenazox", "Fentoxan", "NSC 1796"], "SMILES": "N(=NC1=CC=CC=C1)(=O)C2=CC=CC=C2", "physical_data": {"Molecular Weight": "198.22", "Molecular Formula": "C12H10N2O", "Melting Point": "36 \u00b0C", "Density": "1.1590 g/cm\u00b3 @ Temp: 26 \u00b0C"}}