{"cas_no": "495-85-2", "cn_name": "\u9ebb\u9189\u6912\u82e6\u7d20", "en_name": ["(+)-Methysticin", "2H-Pyran-2-one, 6-[(1E)-2-(1,3-benzodioxol-5-yl)ethenyl]-5,6-dihydro-4-methoxy-, (6R)-", "2H-Pyran-2-one, 5,6-dihydro-4-methoxy-6-[3,4-(methylenedioxy)styryl]-, (R)-", "2H-Pyran-2-one, 6-[2-(1,3-benzodioxol-5-yl)ethenyl]-5,6-dihydro-4-methoxy-, [R-(E)]-", "(6R)-6-[(1E)-2-(1,3-Benzodioxol-5-yl)ethenyl]-5,6-dihydro-4-methoxy-2H-pyran-2-one", "Kavahin", "Kavatin", "Methysticin", "(+)-Methysticin", "d-Methysticin", "NSC 112158", "Methylsticin"], "SMILES": "C(=CC1CC(OC)=CC(=O)O1)C=2C=C3C(=CC2)OCO3", "physical_data": {"Molecular Weight": "274.27", "Molecular Formula": "C15H14O5", "Melting Point": "137 \u00b0C"}}