{"cas_no": "495-18-1", "cn_name": "\u82ef\u7532\u7f9f\u809f\u9178", "en_name": ["Benzohydroxamic acid", "Benzamide, N-hydroxy-", "Benzohydroxamic acid", "N-Hydroxybenzamide", "Hydroxylamine, N-benzoyl-", "Benzhydroxamic acid", "Benzohydroximic acid", "Phenylhydroxamic acid", "Benzoylhydroxylamine", "N-Benzohydroxamic acid", "Benzenehydroxamic acid", "BHAM", "NSC 147248", "NSC 3136", "N-Benzoylhydroxylamine", "BRD 3493"], "SMILES": "C(NO)(=O)C1=CC=CC=C1", "physical_data": {"Molecular Weight": "137.14", "Molecular Formula": "C7H7NO2", "Melting Point": "128 \u00b0C"}}