{"cas_no": "495-02-3", "cn_name": "\u6a59\u76ae\u6cb9\u5185\u916f", "en_name": ["Auraptene", "2H-1-Benzopyran-2-one, 7-[[(2E)-3,7-dimethyl-2,6-octadien-1-yl]oxy]-", "Coumarin, 7-[(3,7-dimethyl-2,6-octadienyl)oxy]-, (E)-", "2H-1-Benzopyran-2-one, 7-[(3,7-dimethyl-2,6-octadienyl)oxy]-, (E)-", "Coumarin, 7-(geranyloxy)-", "2H-1-Benzopyran-2-one, 7-[[(2E)-3,7-dimethyl-2,6-octadienyl]oxy]-", "7-[[(2E)-3,7-Dimethyl-2,6-octadien-1-yl]oxy]-2H-1-benzopyran-2-one", "Aurapten (C19H22O3)", "7-Geranyloxycoumarin", "Aurapten", "(E)-7-Geranoxycoumarin", "Auraptene", "Rapten"], "SMILES": "O(CC=C(CCC=C(C)C)C)C=1C=C2C(=CC1)C=CC(=O)O2", "physical_data": {"Molecular Weight": "298.38", "Molecular Formula": "C19H22O3", "Melting Point": "91 \u00b0C"}}