{"cas_no": "495-71-6", "cn_name": "1,2-\u8054\u82ef\u7532\u9170\u4e59\u70f7", "en_name": ["1,4-Diphenyl-1,4-butanedione", "1,4-Butanedione, 1,4-diphenyl-", "1,4-Diphenyl-1,4-butanedione", "Biphenacyl", "Ethane, 1,2-dibenzoyl-", "2,2\u2032\u2032-Biacetophenone", "1,2-Dibenzoylethane", "Dibenzoylethane", "1,4-Diphenyl-1,4-butadione", "1,4-Dioxo-1,4-diphenylbutane", "NSC 402168"], "SMILES": "C(CCC(=O)C1=CC=CC=C1)(=O)C2=CC=CC=C2", "physical_data": {"Molecular Weight": "238.28", "Molecular Formula": "C16H14O2", "Melting Point": "144-145 \u00b0C"}}