{"cas_no": "495-61-4", "cn_name": "\u03b2-\u7ea2\u6ca1\u836f\u70ef", "en_name": ["\u03b2-Bisabolene", "Cyclohexene, 1-methyl-4-(5-methyl-1-methylene-4-hexen-1-yl)-, (4S)-", "\u03b2-Bisabolene", "1,5-Heptadiene, 6-methyl-2-(4-methyl-3-cyclohexen-1-yl)-, (S)-(-)-", "Cyclohexene, 1-methyl-4-(5-methyl-1-methylene-4-hexenyl)-, (S)-", "Cyclohexene, 1-methyl-4-(5-methyl-1-methylene-4-hexenyl)-, (4S)-", "(4S)-1-Methyl-4-(5-methyl-1-methylene-4-hexen-1-yl)cyclohexene", "(-)-\u03b2-Bisabolene", "l-\u03b2-Bisabolene", "(S)-1-Methyl-4-(5-methyl-1-methylene-4-hexenyl)-1-cyclohexene", "(S)-1-Methyl-4-(5-methyl-1-methylene-4-hexenyl)cyclohexene", "(S)-\u03b2-Bisabolene"], "SMILES": "C(CCC=C(C)C)(=C)C1CCC(C)=CC1", "physical_data": {"Molecular Weight": "204.35", "Molecular Formula": "C15H24", "Boiling Point": "145 \u00b0C @ Press: 18 Torr", "Density": "0.8730 g/cm\u00b3 @ Temp: 20 \u00b0C"}}