{"cas_no": "495-27-2", "cn_name": "OPHTHALMIC ACID", "en_name": ["Ophthalmic acid", "Glycine, L-\u03b3-glutamyl-(2S)-2-aminobutanoyl-", "Ophthalmic acid", "Glutamine, N-[(S)-1-[(carboxymethyl)carbamoyl]propyl]-, L-", "Glycine, L-\u03b3-glutamyl-L-2-aminobutanoyl-", "L-\u03b3-Glutamyl-(2S)-2-aminobutanoylglycine", "\u03b3-Glutamyl-\u03b1-amino-n-butyrylglycine", "Ophthalmate"], "SMILES": "C(C(NCC(O)=O)=O)(NC(CCC(C(O)=O)N)=O)CC", "physical_data": {"Molecular Weight": "289.29", "Molecular Formula": "C11H19N3O6", "Melting Point": "177-179 \u00b0C (decomp)"}}