{"cas_no": "495-60-3", "cn_name": "[S-(R*,S*)]-5-(1,5-dimethylhexen-4-yl)-2-methyl-1,3-cyclohexa-1,3-diene", "en_name": ["(-)-Zingiberene", "1,3-Cyclohexadiene, 5-[(1S)-1,5-dimethyl-4-hexen-1-yl]-2-methyl-, (5R)-", "1,3-Cyclohexadiene, 5-(1,5-dimethyl-4-hexenyl)-2-methyl-, [S-(R*,S*)]-", "Zingiberene", "1,3-Cyclohexadiene, 5-[(1S)-1,5-dimethyl-4-hexenyl]-2-methyl-, (5R)-", "(5R)-5-[(1S)-1,5-Dimethyl-4-hexen-1-yl]-2-methyl-1,3-cyclohexadiene", "l-Zingiberene", "(-)-Zingiberene", "\u03b1-Zingiberene", "\u03b1-Sesquiphellandrene"], "SMILES": "C(CCC=C(C)C)(C)C1CC=C(C)C=C1", "physical_data": {"Molecular Weight": "", "Molecular Formula": "C15H24", "Boiling Point": "128-129 \u00b0C @ Press: 9 Torr", "Density": "0.8713 g/cm\u00b3 @ Temp: 20 \u00b0C"}}