{"cas_no": "495-41-0", "cn_name": "\u82ef\u57fa\u4e19\u70ef\u916e", "en_name": ["1-Phenyl-2-buten-1-one", "2-Buten-1-one, 1-phenyl-", "Crotonophenone", "1-Phenyl-2-buten-1-one", "Phenyl propenyl ketone", "Ethylideneacetophenone", "Phenyl 1-propenyl ketone", "2-Butenophenone", "1-Benzoylpropene", "1-Propenyl phenyl ketone", "NSC 518668"], "SMILES": "C(C=CC)(=O)C1=CC=CC=C1", "physical_data": {"Molecular Weight": "146.19", "Molecular Formula": "C10H10O", "Boiling Point": "135 \u00b0C @ Press: 20 Torr", "Melting Point": "20.5 \u00b0C", "Density": "1.0250 g/cm\u00b3 @ Temp: 15 \u00b0C"}}