{"cas_no": "495-69-2", "cn_name": "\u9a6c\u5c3f\u9178", "en_name": ["Hippuric acid", "Glycine, N-benzoyl-", "Hippuric acid", "N-Benzoylglycine", "Benzoylglycine", "Acetic acid, (benzoylamino)-", "Benzamidoacetic acid", "Phenylcarbonylaminoacetic acid", "2-Benzamidoacetic acid", "NSC 9982", "2-(Benzoylamino)acetic acid", "Benzoyl Glycocoll", "N-(Phenylcarbonyl)glycine", "2-(Phenylformamido)acetic acid"], "SMILES": "C(NCC(O)=O)(=O)C1=CC=CC=C1", "physical_data": {"Molecular Weight": "179.17", "Molecular Formula": "C9H9NO3", "Melting Point": "191.5 \u00b0C", "Density": "1.371 g/cm\u00b3"}}