{"cas_no": "495-62-5", "cn_name": "4-(1,5-\u4e8c\u7532\u57fa-4-\u5df1\u70ef\u4e9a\u57fa)-1-\u7532\u57fa\u73af\u5df1\u70ef", "en_name": ["\u03b3-Bisabolene", "Cyclohexene, 4-(1,5-dimethyl-4-hexen-1-ylidene)-1-methyl-", "2-Heptene, 2-methyl-6-(4-methyl-3-cyclohexen-1-ylidene)-", "Bisabolene", "Cyclohexene, 4-(1,5-dimethyl-4-hexenylidene)-1-methyl-", "4-(1,5-Dimethyl-4-hexen-1-ylidene)-1-methylcyclohexene", "\u03b3-Bisabolene"], "SMILES": "C(CCC=C(C)C)(C)=C1CCC(C)=CC1", "physical_data": {"Molecular Weight": "204.35", "Molecular Formula": "C15H24", "Boiling Point": "118-120 \u00b0C", "Density": "0.8717 g/cm\u00b3 @ Temp: 21 \u00b0C"}}