{"cas_no": "495-84-1", "cn_name": "2-\u5f02\u4e19\u57fa\u567b\u5428\u916e", "en_name": ["Salicylaldehyde isonicotinoylhydrazone", "4-Pyridinecarboxylic acid, 2-[(2-hydroxyphenyl)methylene]hydrazide", "Isonicotinic acid, salicylidenehydrazide", "4-Pyridinecarboxylic acid, [(2-hydroxyphenyl)methylene]hydrazide", "Hydrazine, 1-isonicotinoyl-2-salicylidene-", "o-Hydroxybenzal isonicotinylhydrazone", "N-Isonicotinoyl-N\u2032-(salicylidene)hydrazine", "1-Isonicotinoyl-2-salicylidenehydrazine", "Nupasal", "Nupasal 213", "SAH", "Salinazid", "Salizid", "Salicylaldehyde isonicotinoylhydrazone", "o-Hydroxybenzaldehyde isonicotinoylhydrazone", "Salicylaldehyde 4-pyridinecarboxylic acid hydrazone", "o-Oxyberon", "Phthisosan", "INSH", "Neobicina Salicilica", "Nilazid", "Salizide", "N-Isonicotinamidosalicylaldimine", "Salicylidene isonicotinoylhydrazone", "NSC 33760", "SIH", "(2-Hydroxybenzylidene)pyridine-4-carbohydrazide", "Salicylaldehyde isonicotinoylhydrazine"], "SMILES": "C(=NNC(=O)C=1C=CN=CC1)C2=C(O)C=CC=C2", "physical_data": {"Molecular Weight": "241.25", "Molecular Formula": "C13H11N3O2", "Melting Point": "232 \u00b0C"}}