{"cas_no": "495-76-1", "cn_name": "\u80e1\u6912\u9187", "en_name": ["Piperonyl alcohol", "1,3-Benzodioxole-5-methanol", "Piperonyl alcohol", "1-Hydroxymethyl-3,4-methylenedioxybenzene", "3,4-Methylenedioxybenzyl alcohol", "5-Hydroxymethyl-1,3-benzodioxole", "Piperonol", "3,4-(Methylenedioxy)benzenemethanol", "3,4-Methylenedioxyphenylmethanol", "Benzo[1,3]dioxol-5-ylmethanol", "NSC 26265", "(Benzodioxol-5-yl)methanol", "Benzo[d][1,3]dioxol-5-ylmethanol", "Heliotropyl alcohol", "Benzo[d][1,3]dioxol-5-ylmethyl alcohol", "(1,3-Dioxaindan-5-yl)methanol", "2H-1,3-Benzodioxol-5-ylmethanol"], "SMILES": "C(O)C=1C=C2C(=CC1)OCO2", "physical_data": {"Molecular Weight": "152.15", "Molecular Formula": "C8H8O3", "Boiling Point": "157 \u00b0C", "Melting Point": "58 \u00b0C"}}