{"cas_no": "49539-88-0", "cn_name": "\u4e09\u7532\u6c27\u57fa(2-\u82ef\u4e59\u57fa)\u7845\u70f7", "en_name": ["Phenethyltrimethoxysilane", "Benzene, [2-(trimethoxysilyl)ethyl]-", "Silane, trimethoxy(2-phenylethyl)-", "[2-(Trimethoxysilyl)ethyl]benzene", "\u03b2-(Trimethoxysilyl)ethylbenzene", "P 113 (silane derivative)", "P 113", "Trimethoxy(2-phenylethyl)silane", "(2-Phenylethyl)trimethoxysilane", "Phenethyltrimethoxysilane", "SIP 6722.6", "T 2869", "Phenylethyltrimethoxysilane"], "SMILES": "[Si](CCC1=CC=CC=C1)(OC)(OC)OC", "physical_data": {"Molecular Weight": "226.34", "Molecular Formula": "C11H18O3Si", "Boiling Point": "95-96 \u00b0C @ Press: 2 Torr", "Density": "1.037 g/cm\u00b3"}}