{"cas_no": "4956-37-0", "cn_name": "\u5e9a\u9178\u96cc\u4e8c\u9187", "en_name": ["Estradiol enanthate", "Estra-1,3,5(10)-triene-3,17-diol (17\u03b2)-, 17-heptanoate", "Estradiol, 17-heptanoate", "Heptanoic acid, 3-hydroxyestra-1,3,5(10)-trien-17\u03b2-yl ester", "SQ 16150", "Estradiol 17-enanthate", "Estradiol enanthate"], "SMILES": "CC12C(C3C(C=4C(CC3)=CC(O)=CC4)CC1)CCC2OC(CCCCCC)=O", "physical_data": {"Molecular Weight": "384.55", "Molecular Formula": "C25H36O3", "Melting Point": "94-96 \u00b0C"}}