{"cas_no": "49562-28-9", "cn_name": "\u975e\u8bfa\u8d1d\u7279", "en_name": ["Fenofibrate", "Propanoic acid, 2-[4-(4-chlorobenzoyl)phenoxy]-2-methyl-, 1-methylethyl ester", "Isopropyl 2-[p-(p-chlorobenzoyl)phenoxy]-2-methylpropionate", "LF 178", "Lipanthyl", "Procetofen", "Fenofibrate", "TriCor", "Lipantil", "Lipirex", "Fenogal", "Lipofene", "Lipoclar", "Lipidil", "Secalip", "Lipsin", "Elasterin", "Ankebin", "Protolipan", "Liposit", "Procetofene", "Nolipax", "Procetoken", "Fenobrate", "Fenotard", "NSC 281319", "Lipidil Supra", "Clorofibrate", "Antara", "MeltDose", "Lipicard", "Lipivim", "Fenorate", "Isopropyl 2-[4-(4-chlorobenzoyl)phenoxy]-2-methylpropanoate", "Lipanthylnano", "Triglide", "Lipanthyl supra", "Fenobrat", "Fenoglide", "Lipofen", "MeSH ID: D011345"], "SMILES": "C(=O)(C1=CC=C(OC(C(OC(C)C)=O)(C)C)C=C1)C2=CC=C(Cl)C=C2", "physical_data": {"Molecular Weight": "360.83", "Molecular Formula": "C20H21ClO4", "Melting Point": "80.5 \u00b0C"}}