{"cas_no": "4956-05-2", "cn_name": "5-\u6eb4-6-\u6c2e\u5c3f\u5627\u5576", "en_name": ["6-Bromo-1,2,4-triazine-3,5(2H,4H)-dione", "1,2,4-Triazine-3,5(2H,4H)-dione, 6-bromo-", "as-Triazine-3,5(2H,4H)-dione, 6-bromo-", "as-Triazine-3,5-diol, 6-bromo-", "6-Bromo-1,2,4-triazine-3,5(2H,4H)-dione", "5-Bromo-6-azauracil", "6-Bromo-3,5-dioxo-(2H,4H)-1,2,4-triazine", "6-Bromo-2,4-dihydro-1,2,4-triazine-3,5-dione"], "SMILES": "O=C1C(Br)=NNC(=O)N1", "physical_data": {"Molecular Weight": "191.97", "Molecular Formula": "C3H2BrN3O2", "Melting Point": "232-234 \u00b0C"}}