{"cas_no": "4957-14-6", "cn_name": "\u4e8c\u5bf9\u7532\u82ef\u57fa\u7532\u70f7", "en_name": ["4,4\u2032-Dimethyldiphenylmethane", "Benzene, 1-methyl-4-[(4-methylphenyl)methyl]-", "Methane, di-p-tolyl-", "Benzene, 1,1\u2032-methylenebis[4-methyl-", "1-Methyl-4-[(4-methylphenyl)methyl]benzene", "4,4\u2032-Dimethyldiphenylmethane", "Di-p-tolylmethane", "4,4\u2032-Ditolylmethane", "Bis(4-methylphenyl)methane", "Bis(4-tolyl)methane", "Bis(p-tolyl)methane", "Di(p-methylphenyl)methane", "p,p\u2032-Ditolylmethane", "NSC 93789", "p-(p-Methylbenzyl)toluene", "p-(4-Methylbenzyl)toluene"], "SMILES": "C(C1=CC=C(C)C=C1)C2=CC=C(C)C=C2", "physical_data": {"Molecular Weight": "196.29", "Molecular Formula": "C15H16", "Boiling Point": "286 \u00b0C", "Melting Point": "28 \u00b0C", "Density": "0.9767 g/cm\u00b3 @ Temp: 20 \u00b0C"}}