{"cas_no": "496-63-9", "cn_name": "3-\u7f9f\u57fa-4H-\u5421\u5583-4-\u916e", "en_name": ["3-Hydroxy-4-pyrone", "4H-Pyran-4-one, 3-hydroxy-", "3-Hydroxy-4H-pyran-4-one", "Pyromeconic acid", "3-Hydroxypyran-4-one", "Pyrocomenic acid", "3-Hydroxy-4-pyrone", "NSC 78608"], "SMILES": "O=C1C(O)=COC=C1", "physical_data": {"Molecular Weight": "112.08", "Molecular Formula": "C5H4O3", "Melting Point": "117-118 \u00b0C"}}