{"cas_no": "496-14-0", "cn_name": "1,3-\u4e8c\u6c22\u5f02\u82ef\u5e76\u544b\u5583", "en_name": ["1,3-Dihydroisobenzofuran", "Isobenzofuran, 1,3-dihydro-", "Phthalan", "1,3-Dihydroisobenzofuran", "Isocoumaran", "2-Oxaindan", "Dihydroisobenzofuran", "1,3-Dihydro-2-benzofuran"], "SMILES": "C1=2C(COC1)=CC=CC2", "physical_data": {"Molecular Weight": "120.15", "Molecular Formula": "C8H8O", "Boiling Point": "192 \u00b0C", "Density": "1.098 g/cm\u00b3 @ Temp: 0 \u00b0C"}}