{"cas_no": "496-78-6", "cn_name": "2,4,5-\u4e09\u7532\u915a", "en_name": ["Pseudocumenol", "Phenol, 2,4,5-trimethyl-", "2,4,5-Trimethylphenol", "Pseudocumenol", "1-Hydroxy-2,4,5-trimethylbenzene", "5-Hydroxypseudocumene", "NSC 38776"], "SMILES": "CC1=C(C)C=C(O)C(C)=C1", "physical_data": {"Molecular Weight": "136.19", "Molecular Formula": "C9H12O", "Boiling Point": "232 \u00b0C", "Melting Point": "72 \u00b0C"}}