{"cas_no": "496-46-8", "cn_name": "\u7518\u8132", "en_name": ["Glycoluril", "Imidazo[4,5-d]imidazole-2,5(1H,3H)-dione, tetrahydro-", "Glycoluril", "Tetrahydroimidazo[4,5-d]imidazole-2,5(1H,3H)-dione", "Acetylene carbamide", "Acetyleneurea", "Glyoxaldiureine", "Acetylenediurea", "Acetylenediureine", "Diurea glyoxalate", "Glyoxalbiuret", "NSC 2765", "Tetrahydroimidazo[4,5-d]imidazole-2,5-dione", "1,3,3a,4,6,6a-Hexahydroimidazo[4,5-d]imidazole-2,5-dione"], "SMILES": "O=C1NC2C(NC(=O)N2)N1", "physical_data": {"Molecular Weight": "142.12", "Molecular Formula": "C4H6N4O2", "Melting Point": "300 \u00b0C (decomp)"}}