{"cas_no": "496-31-1", "cn_name": "3H-1-\u82ef\u5e76\u567b\u5429-2-\u916e", "en_name": ["Benzo[b]thiophen-2(3H)-one", "Benzo[b]thiophen-2(3H)-one", "Benzeneacetic acid, 2-mercapto-, \u03b3-(thio lactone)", "Thianaphthen-2-one", "2-Oxo-1-thiaindan", "2-Oxo-2,3-dihydrobenzo[b]thiophene", "2,3-Dihydro-1-benzothiophen-2-one"], "SMILES": "O=C1CC=2C(S1)=CC=CC2", "physical_data": {"Molecular Weight": "150.20", "Molecular Formula": "C8H6OS", "Boiling Point": "260-264 \u00b0C @ Press: 723 Torr", "Melting Point": "43-44 \u00b0C"}}