{"cas_no": "496-15-1", "cn_name": "\u5432\u54da\u5549", "en_name": ["Indoline", "1H-Indole, 2,3-dihydro-", "Indoline", "2,3-Dihydro-1H-indole", "1-Azaindan", "2,3-Dihydroindole", "1H-Indoline"], "SMILES": "C1=2C(NCC1)=CC=CC2", "physical_data": {"Molecular Weight": "119.16", "Molecular Formula": "C8H9N", "Boiling Point": "229 \u00b0C", "Density": "1.0672 g/cm\u00b3 @ Temp: 20 \u00b0C"}}