{"cas_no": "496-64-0", "cn_name": "3-\u7f9f\u57fa-2-\u5421\u5583\u916e", "en_name": ["3-Hydroxy-2-pyrone", "2H-Pyran-2-one, 3-hydroxy-", "2,4-Pentadienoic acid, 2,5-dihydroxy-, \u03b4-lactone", "3-Hydroxy-2H-pyran-2-one", "3-Hydroxy-2-pyrone", "3-Hydroxypyran-2-one", "3-Hydroxy-\u03b1-pyrone"], "SMILES": "OC=1C(=O)OC=CC1", "physical_data": {"Molecular Weight": "112.08", "Molecular Formula": "C5H4O3", "Boiling Point": "99 \u00b0C @ Press: 14 Torr", "Melting Point": "93.8 \u00b0C"}}