{"cas_no": "496-11-7", "cn_name": "\u831a\u6ee1", "en_name": ["Indane", "1H-Indene, 2,3-dihydro-", "Indan", "2,3-Dihydro-1H-indene", "2,3-Dihydroindene", "Hydrindene", "1,2-Hydrindene", "Hydrindonaphthene", "Indane", "Benzocyclopentane", "NSC 5292"], "SMILES": "C1=2C(CCC1)=CC=CC2", "physical_data": {"Molecular Weight": "118.18", "Molecular Formula": "C9H10", "Boiling Point": "177.9 \u00b0C", "Melting Point": "-51.4 \u00b0C", "Density": "0.9645 g/cm\u00b3 @ Temp: 20 \u00b0C"}}