{"cas_no": "496-42-4", "cn_name": "2-(2-\u6c28\u57fa\u4e59\u57fa)\u5432\u54da", "en_name": ["1H-Indole-2-ethanamine", "1H-Indole-2-ethanamine", "Indole, 2-(2-aminoethyl)-", "Indole-2-ethylamine", "2-(Indol-2-yl)ethylamine", "2-(2-Aminoethyl)indole", "2-(Indol-2-yl)ethanamine", "2-(1H-Indol-2-yl)ethan-1-amine", "2-(1H-Indol-2-yl)ethanamine"], "SMILES": "C(CN)C1=CC=2C(N1)=CC=CC2", "physical_data": {"Molecular Weight": "160.22", "Molecular Formula": "C10H12N2", "Melting Point": "100-101 \u00b0C"}}