{"cas_no": "496-12-8", "cn_name": "\u5f02\u5432\u54da\u5549", "en_name": ["Isoindoline", "1H-Isoindole, 2,3-dihydro-", "Isoindoline", "2,3-Dihydro-1H-isoindole", "2-Azaindan", "1,3-Dihydroisoindole", "2,3-Dihydro-1H-isoindole", "1,3-Dihydro-2H-isoindole"], "SMILES": "C1=2C(CNC1)=CC=CC2", "physical_data": {"Molecular Weight": "119.16", "Molecular Formula": "C8H9N", "Boiling Point": "126-127 \u00b0C @ Press: 18 Torr", "Melting Point": "17 \u00b0C", "Density": "1.05 g/cm\u00b3"}}