{"cas_no": "496-41-3", "cn_name": "\u82ef\u5e76\u544b\u5583-2-\u7fa7\u9178", "en_name": ["2-Benzofurancarboxylic acid", "2-Benzofurancarboxylic acid", "Coumarilic acid", "2-Carboxybenzofuran", "Coumarone-2-carboxylic acid", "Benzo[b]furan-2-carboxylic acid", "1-Benzofuran-2-carboxylic acid", "NSC 6165", "2,3-Benzofuran-2-carboxylic acid", "Benzofuran-2-carboxylic acid"], "SMILES": "C(O)(=O)C1=CC=2C(O1)=CC=CC2", "physical_data": {"Molecular Weight": "162.14", "Molecular Formula": "C9H6O3", "Boiling Point": "312.5 \u00b0C", "Melting Point": "192.5 \u00b0C"}}