{"cas_no": "496-67-3", "cn_name": "\u6eb4\u7c73\u7d22\u4f10", "en_name": ["Bromovalerylurea", "Butanamide, N-(aminocarbonyl)-2-bromo-3-methyl-", "Urea, (2-bromo-3-methylbutyryl)-", "N-(Aminocarbonyl)-2-bromo-3-methylbutanamide", "Alluval", "Bromisoval", "Bromisovalum", "\u03b1-Bromo-\u03b2-dimethylpropanoylurea", "\u03b1-Bromoisovaleroylurea", "(\u03b1-Bromoisovaleryl)urea", "2-Bromo-3-methylbutyrylurea", "Bromovalerylurea", "Bromural", "Bromvalerylurea", "Bromvaletone", "Bromyl", "Brovalin", "Brovalurea", "Brovarin", "BVU", "Dormigene", "Isobromyl", "Pivadorm", "Pivadorn", "Uvaleral", "Bromovaleroylurea", "\u03b1-Bromoisovaleric acid ureide", "Bromaral", "Bromoisovalum", "Bromcarbamide", "Bromvalurea", "Bromoval", "Calmotin", "Bromocarbamide", "\u03b1-Bromisovalerylurea", "Bromizoval", "Abroval", "Dagrabromyl", "Bromoxil", "Dibroluur", "Upiol", "Alural", "Bromovalerocarbamide", "Bromisovalerylurea", "2-Bromoisovalerylurea", "(RS)-2-Bromoisovalerylurea", "(\u00b1)-Bromisoval", "Bromuvan", "Somnurol", "(2-Bromo-3-methylbutanoyl)urea", "2-Bromo-N-carbamoyl-3-methylbutanamide", "MeSH ID: D001968"], "SMILES": "C(C(C(C)C)Br)(NC(N)=O)=O", "physical_data": {"Molecular Weight": "223.07", "Molecular Formula": "C6H11BrN2O2", "Melting Point": "154 \u00b0C"}}