{"cas_no": "496-74-2", "cn_name": "\u7532\u82ef-3,4-\u4e8c\u786b\u915a", "en_name": ["Toluene-3,4-dithiol", "1,2-Benzenedithiol, 4-methyl-", "Toluene-3,4-dithiol", "4-Methyl-1,2-benzenedithiol", "1,2-Dimercapto-4-methylbenzene", "Dithiol", "4-Methyl-1,2-dimercaptobenzene", "3,4-Dimercaptotoluol", "3,4-Dimercaptotoluene", "3,4-Toluenedithiol", "1-Toluene-3,4-dithiol", "3,4-Dithiotoluene", "NSC 5391", "Dithiol (chelating agent)"], "SMILES": "SC1=C(S)C=CC(C)=C1", "physical_data": {"Molecular Weight": "156.27", "Molecular Formula": "C7H8S2", "Boiling Point": "185-187 \u00b0C @ Press: 84 Torr", "Melting Point": "29 \u00b0C"}}