{"cas_no": "496-69-5", "cn_name": "2-\u6eb4-4-\u6c1f\u82ef\u915a", "en_name": ["2-Bromo-4-fluorophenol", "Phenol, 2-bromo-4-fluoro-", "2-Bromo-4-fluorophenol"], "SMILES": "BrC1=C(O)C=CC(F)=C1", "physical_data": {"Molecular Weight": "191.00", "Molecular Formula": "C6H4BrFO", "Boiling Point": "89 \u00b0C @ Press: 1 Torr", "Melting Point": "43 \u00b0C"}}