{"cas_no": "496-73-1", "cn_name": "4-\u7532\u57fa\u95f4\u82ef\u4e8c\u915a", "en_name": ["4-Methylresorcinol", "1,3-Benzenediol, 4-methyl-", "Resorcinol, 4-methyl-", "4-Methyl-1,3-benzenediol", "Cresorcinol", "2,4-Dihydroxyphenylmethane", "4-Methylresorcinol", "2,4-Dihydroxytoluene", "2,4-Toluenediol", "1,3-Dihydroxy-4-methylbenzene", "NKO 10", "4-Methylresorcin", "4-Methyl-1,3-dihydroxybenzene"], "SMILES": "OC1=C(C)C=CC(O)=C1", "physical_data": {"Molecular Weight": "124.14", "Molecular Formula": "C7H8O2", "Boiling Point": "268.5 \u00b0C", "Melting Point": "106 \u00b0C"}}