{"cas_no": "496-30-0", "cn_name": "2-\u5432\u54da\u5549\u786b\u916e", "en_name": ["2-Indolinethione", "2H-Indole-2-thione, 1,3-dihydro-", "2-Indolinethione", "1,3-Dihydro-2H-indole-2-thione", "Indole-2(3H)-thione", "Benzazoline-2-thione", "2,3-Dihydro-1H-indole-2-thione", "1,3-Dihydroindole-2-thione"], "SMILES": "S=C1CC=2C(N1)=CC=CC2", "physical_data": {"Molecular Weight": "149.21", "Molecular Formula": "C8H7NS", "Melting Point": "33-34 \u00b0C"}}