{"cas_no": "496-77-5", "cn_name": "5-\u7f9f\u57fa-4-\u8f9b\u916e", "en_name": ["5-Hydroxy-4-octanone", "4-Octanone, 5-hydroxy-", "5-Hydroxy-4-octanone", "5-Octanol-4-one", "Butyroin", "Octan-4-ol-5-one", "4-Hydroxy-5-octanone", "(\u00b1)-Butyroin", "NSC 1479"], "SMILES": "C(C(CCC)=O)(CCC)O", "physical_data": {"Molecular Weight": "144.21", "Molecular Formula": "C8H16O2", "Boiling Point": "80-82 \u00b0C @ Press: 10 Torr", "Melting Point": "104-105 \u00b0C", "Density": "0.9160 g/cm\u00b3"}}