{"cas_no": "496-16-2", "cn_name": "2,3-\u4e8c\u6c22\u82ef\u5e76\u544b\u5583", "en_name": ["Dihydrobenzofuran", "Benzofuran, 2,3-dihydro-", "Benzofuran, 1,2-dihydro-", "2,3-Dihydrobenzofuran", "Coumaran", "Kumaran", "Dihydrobenzofuran", "2,3-Dihydrobenzo[b]furan", "Benzodihydrofuran", "2,3-Dihydro-1-benzofuran", "2,3-Dihydrobenzofurane"], "SMILES": "C1=2C(OCC1)=CC=CC2", "physical_data": {"Molecular Weight": "120.15", "Molecular Formula": "C8H8O", "Boiling Point": "188.5 \u00b0C", "Melting Point": "-21.5 \u00b0C", "Density": "1.083 g/cm\u00b3 @ Temp: 20 \u00b0C"}}