{"cas_no": "496-72-0", "cn_name": "3,4-\u4e8c\u6c28\u57fa\u7532\u82ef", "en_name": ["3,4-Diaminotoluene", "1,2-Benzenediamine, 4-methyl-", "Toluene-3,4-diamine", "4-Methyl-1,2-benzenediamine", "3,4-Diaminotoluene", "4-Methyl-1,2-diaminobenzene", "4-Methyl-o-phenylenediamine", "3,4-Diamino-1-methylbenzene", "3,4-Tolylenediamine", "4-Methyl-1,2-phenylenediamine", "1,2-Diamino-4-methylbenzene", "4-Methyl-2-aminoaniline", "2-Amino-5-methylaniline", "2-Amino-4-methylaniline", "NSC 1495", "5-Methylbenzene-1,2-diamine", "2-Amino-4-methylphenylamine"], "SMILES": "NC1=C(N)C=CC(C)=C1", "physical_data": {"Molecular Weight": "122.17", "Molecular Formula": "C7H10N2", "Boiling Point": "265 \u00b0C", "Melting Point": "80-90 \u00b0C"}}