{"cas_no": "49608-01-7", "cn_name": "6-\u6c2f\u70df\u9178\u4e59\u916f", "en_name": ["3-Pyridinecarboxylic acid, 6-chloro-, ethyl ester", "3-Pyridinecarboxylic acid, 6-chloro-, ethyl ester", "Ethyl 6-chloronicotinate", "Ethyl 2-chloro-5-pyridinecarboxylate", "6-Chloronicotinic acid ethyl ester", "Ethyl 6-chloro-3-pyridinecarboxylate", "2-Chloropyridine-5-carboxylic acid ethyl ester", "Ethyl 6-chloro-3-nicotinate"], "SMILES": "C(OCC)(=O)C=1C=CC(Cl)=NC1", "physical_data": {"Molecular Weight": "185.61", "Molecular Formula": "C8H8ClNO2", "Boiling Point": "150 \u00b0C @ Press: 18 Torr", "Melting Point": "195 \u00b0C (decomp)"}}