{"cas_no": "49609-84-9", "cn_name": "2-\u6c2f\u70df\u9170\u6c2f", "en_name": ["2-Chloronicotinoyl chloride", "3-Pyridinecarbonyl chloride, 2-chloro-", "2-Chloro-3-pyridinecarbonyl chloride", "2-Chloronicotinoyl chloride", "2-Chloronicotinic chloride", "2-Chloronicotinyl chloride", "2-Chloropyridine-3-carboxylic acid chloride", "2-Chloronictinoyl chloride"], "SMILES": "C(Cl)(=O)C1=C(Cl)N=CC=C1", "physical_data": {"Molecular Weight": "176.00", "Molecular Formula": "C6H3Cl2NO", "Boiling Point": "98-100 \u00b0C", "Melting Point": "56 \u00b0C"}}