{"cas_no": "49624-66-0", "cn_name": "\u53bb\u7532\u5347\u9ebb\u7d20", "en_name": ["Norcimifugin", "5H-Furo[3,2-g][1]benzopyran-5-one, 2,3-dihydro-4-hydroxy-7-(hydroxymethyl)-2-(1-hydroxy-1-methylethyl)-, (2S)-", "5H-Furo[3,2-g][1]benzopyran-5-one, 2,3-dihydro-4-hydroxy-7-(hydroxymethyl)-2-(1-hydroxy-1-methylethyl)-, (S)-", "Angelicain", "(2S)-2,3-Dihydro-4-hydroxy-7-(hydroxymethyl)-2-(1-hydroxy-1-methylethyl)-5H-furo[3,2-g][1]benzopyran-5-one", "Norcimifugin", "NSC 246120"], "SMILES": "OC1=C2C(=CC3=C1C(=O)C=C(CO)O3)OC(C(C)(C)O)C2", "physical_data": {"Molecular Weight": "292.28", "Molecular Formula": "C15H16O6", "Melting Point": "194 \u00b0C"}}