{"cas_no": "49623-71-4", "cn_name": "2\uff0c4\uff0c6-\u4e09\u5f02\u4e19\u57fa\u82ef\u7532\u9178", "en_name": ["2,4,6-Tris(1-methylethyl)benzoic acid", "Benzoic acid, 2,4,6-tris(1-methylethyl)-", "Benzoic acid, 2,4,6-triisopropyl-", "2,4,6-Tris(1-methylethyl)benzoic acid", "2,4,6-Triisopropylbenzoic acid", "2,4,6-Triisopropylphenylcarboxylic acid", "NSC 60075"], "SMILES": "C(O)(=O)C1=C(C(C)C)C=C(C(C)C)C=C1C(C)C", "physical_data": {"Molecular Weight": "248.36", "Molecular Formula": "C16H24O2", "Melting Point": "186-187 \u00b0C"}}