{"cas_no": "49625-89-0", "cn_name": "6-BETA-NALTREXOL HCL", "en_name": ["\u03b2-Naltrexol", "Morphinan-3,6,14-triol, 17-(cyclopropylmethyl)-4,5-epoxy-, (5\u03b1,6\u03b2)-", "(5\u03b1,6\u03b2)-17-(Cyclopropylmethyl)-4,5-epoxymorphinan-3,6,14-triol", "17-(Cyclopropylmethyl)-4,5\u03b1-epoxy-3,14-dihydroxymorphinan-6\u03b2-ol", "6\u03b2-Hydroxynaltrexone", "\u03b2-Naltrexol", "6\u03b2-Naltrexol"], "SMILES": "OC12C34C=5C(OC3C(O)CC1)=C(O)C=CC5CC2N(CC6CC6)CC4", "physical_data": {"Molecular Weight": "343.42", "Molecular Formula": "C20H25NO4", "Melting Point": "175-177 \u00b0C"}}