{"cas_no": "49627-27-2", "cn_name": "SULINDAC", "en_name": ["Sulindac sulfide", "1H-Indene-3-acetic acid, 5-fluoro-2-methyl-1-[[4-(methylthio)phenyl]methylene]-, (1Z)-", "1H-Indene-3-acetic acid, 5-fluoro-2-methyl-1-[[4-(methylthio)phenyl]methylene]-, (Z)-", "(1Z)-5-Fluoro-2-methyl-1-[[4-(methylthio)phenyl]methylene]-1H-indene-3-acetic acid", "Sulindac sulfide", "Z-Sulindac sulfide", "cis-Sulindac sulfide"], "SMILES": "C(=C1C=2C(C(CC(O)=O)=C1C)=CC(F)=CC2)C3=CC=C(SC)C=C3", "physical_data": {"Molecular Weight": "340.41", "Molecular Formula": "C20H17FO2S", "Melting Point": "186-190 \u00b0C"}}