{"cas_no": "49647-58-7", "cn_name": "2,4,5,6-\u56db\u6c28\u57fa\u5627\u5576\u786b\u9178\u76d0", "en_name": ["2,4,5,6-Pyrimidinetetramine, sulfate (1:?)", "2,4,5,6-Pyrimidinetetramine, sulfate (1:?)", "Pyrimidinetetramine, sulfate", "Pyrimidine, 2,4,5,6-tetraamino-, sulfate", "2,4,5,6-Tetraaminopyrimidine sulfate"], "SMILES": "NC=1C(N)=NC(N)=NC1N.S(=O)(=O)(O)O", "physical_data": {"Molecular Weight": "", "Molecular Formula": "C4H8N6.xH2O4S", "Melting Point": "&gt;360 \u00b0C"}}