{"cas_no": "49642-07-1", "cn_name": "STATINE", "en_name": ["Statine", "Heptanoic acid, 4-amino-3-hydroxy-6-methyl-, (3S,4S)-", "Heptanoic acid, 4-amino-3-hydroxy-6-methyl-, [S-(R*,R*)]-", "(3S,4S)-4-Amino-3-hydroxy-6-methylheptanoic acid", "(-)-(3S,4S)-4-Amino-3-hydroxy-6-methylheptanoic acid", "Statine", "(3S,4S)-Statine", "(S,S)-Statine"], "SMILES": "C(C(CC(O)=O)O)(CC(C)C)N", "physical_data": {"Molecular Weight": "175.23", "Molecular Formula": "C8H17NO3", "Melting Point": "211 \u00b0C (decomp)"}}