{"cas_no": "4964-76-5", "cn_name": "7-\u7532\u6c27\u57fa\u55b9\u5549", "en_name": ["7-Methoxyquinoline", "Quinoline, 7-methoxy-", "7-Methoxyquinoline"], "SMILES": "O(C)C1=CC2=C(C=C1)C=CC=N2", "physical_data": {"Molecular Weight": "159.18", "Molecular Formula": "C10H9NO", "Boiling Point": "143-145 \u00b0C @ Press: 11 Torr"}}