{"cas_no": "4965-33-7", "cn_name": "7-\u6c2f\u55b9\u54ea\u5576", "en_name": ["7-Chloroquinaldine", "Quinoline, 7-chloro-2-methyl-", "Quinaldine, 7-chloro-", "7-Chloro-2-methylquinoline", "7-Chloroquinaldine"], "SMILES": "ClC1=CC2=C(C=CC(C)=N2)C=C1", "physical_data": {"Molecular Weight": "177.63", "Molecular Formula": "C10H8ClN", "Boiling Point": "280-282 \u00b0C @ Press: 761 Torr", "Melting Point": "74.5-76 \u00b0C"}}