{"cas_no": "4965-34-8", "cn_name": "7-\u6eb4-2-\u7532\u57fa\u55b9\u5549", "en_name": ["7-Bromo-2-methylquinoline", "Quinoline, 7-bromo-2-methyl-", "Quinaldine, 7-bromo-", "7-Bromo-2-methylquinoline", "7-Bromoquinaldine", "2-Methyl-7-bromoquinoline"], "SMILES": "BrC1=CC2=C(C=CC(C)=N2)C=C1", "physical_data": {"Molecular Weight": "222.08", "Molecular Formula": "C10H8BrN", "Melting Point": "77-79 \u00b0C"}}