{"cas_no": "4965-36-0", "cn_name": "7-\u6eb4\u55b9\u5549", "en_name": ["7-Bromoquinoline", "Quinoline, 7-bromo-", "7-Bromoquinoline"], "SMILES": "BrC1=CC2=C(C=C1)C=CC=N2", "physical_data": {"Molecular Weight": "208.05", "Molecular Formula": "C9H6BrN", "Boiling Point": "290 \u00b0C", "Melting Point": "34 \u00b0C"}}