{"cas_no": "49669-14-9", "cn_name": "2-\u6eb4-6-\u4e59\u9170\u57fa\u5421\u5576\u4e59\u4e8c\u9187\u4fdd\u62a4", "en_name": ["2-Bromo-6-(2-methyl-1,3-dioxolan-2-yl)pyridine", "Pyridine, 2-bromo-6-(2-methyl-1,3-dioxolan-2-yl)-", "2-Bromo-6-(2-methyl-1,3-dioxolan-2-yl)pyridine"], "SMILES": "CC1(OCCO1)C=2N=C(Br)C=CC2", "physical_data": {"Molecular Weight": "244.09", "Molecular Formula": "C9H10BrNO2", "Melting Point": "40-42 \u00b0C"}}