{"cas_no": "49660-93-7", "cn_name": "1-(4-\u6eb4\u82ef\u57fa)-2-\u7532\u57fa\u4e19-1-\u916e", "en_name": ["1-(4-Bromophenyl)-2-methyl-1-propanone", "1-Propanone, 1-(4-bromophenyl)-2-methyl-", "Propiophenone, 4\u2032-bromo-2-methyl-", "1-(4-Bromophenyl)-2-methyl-1-propanone", "p-Bromophenyl isopropyl ketone", "4\u2032-Bromoisobutyrophenone", "4-(1-Oxo-2-methylpropyl)bromobenzene", "Isopropyl 4-bromophenyl ketone"], "SMILES": "C(C(C)C)(=O)C1=CC=C(Br)C=C1", "physical_data": {"Molecular Weight": "227.10", "Molecular Formula": "C10H11BrO", "Melting Point": "18 \u00b0C"}}