{"cas_no": "49667-22-3", "cn_name": "4-\u7532\u57fa\u6c34\u6768\u9170\u80fa", "en_name": ["2-Hydroxy-4-methylbenzamide", "Benzamide, 2-hydroxy-4-methyl-", "2-Hydroxy-4-methylbenzamide", "4-Methylsalicylamide"], "SMILES": "C(N)(=O)C1=C(O)C=C(C)C=C1", "physical_data": {"Molecular Weight": "151.16", "Molecular Formula": "C8H9NO2", "Melting Point": "176-177 \u00b0C"}}