{"cas_no": "49674-15-9", "cn_name": "3-\u6eb4-5-\u785d\u57fa\u82ef\u8148", "en_name": ["3-Bromo-5-nitrobenzonitrile", "Benzonitrile, 3-bromo-5-nitro-", "3-Bromo-5-nitrobenzonitrile", "3-Nitro-5-bromobenzonitrile"], "SMILES": "N(=O)(=O)C1=CC(C#N)=CC(Br)=C1", "physical_data": {"Molecular Weight": "227.01", "Molecular Formula": "C7H3BrN2O2", "Melting Point": "84-85 \u00b0C"}}