{"cas_no": "4968-09-6", "cn_name": "\u963f\u5b55\u5948\u5fb7", "en_name": ["Algestone acetonide", "Pregn-4-ene-3,20-dione, 16,17-[(1-methylethylidene)bis(oxy)]-, (16\u03b1)-", "Pregn-4-ene-3,20-dione, 16\u03b1,17-dihydroxy-, cyclic acetal with acetone", "Progesterone, 16\u03b1,17-dihydroxy-, cyclic acetal with acetone", "(16\u03b1)-16,17-[(1-Methylethylidene)bis(oxy)]pregn-4-ene-3,20-dione", "W 3395", "16\u03b1,17-Dihydroxypregn-4-ene-3,20-dione cyclic acetal with acetone", "16\u03b1,17\u03b1-Isopropylidenedioxyprogesterone", "Progesterone 16,17-acetonide", "Alphasone acetonide", "16\u03b1,17-(Isopropylidenedioxy)progesterone", "Algestone acetonide", "NSC 26104"], "SMILES": "C(C)(=O)C12C3(C)C(CC1OC(C)(C)O2)C4C(CC3)C5(C)C(CC4)=CC(=O)CC5", "physical_data": {"Molecular Weight": "386.52", "Molecular Formula": "C24H34O4", "Melting Point": "210 \u00b0C"}}