{"cas_no": "496864-16-5", "cn_name": "7-\u4e01\u57fa-6-(4-\u7f9f\u57fa\u82ef\u57fa)-5H-\u5421\u54af\u5e76[2,3-B]\u5421\u55ea", "en_name": ["Aloisine A", "Phenol, 4-(7-butyl-5H-pyrrolo[2,3-b]pyrazin-6-yl)-", "Phenol, 4-(7-butyl-4H-pyrrolo[2,3-b]pyrazin-6-yl)-", "4-(7-Butyl-5H-pyrrolo[2,3-b]pyrazin-6-yl)phenol", "7-butyl-6-(4-hydroxyphenyl)-5H-pyrrolo[2,3-b]pyrazine", "Aloisine A"], "SMILES": "C(CCC)C1=C(NC=2C1=NC=CN2)C3=CC=C(O)C=C3", "physical_data": {"Molecular Weight": "267.33", "Molecular Formula": "C16H17N3O", "Melting Point": "281.4 \u00b0C"}}