{"cas_no": "496868-77-0", "cn_name": "(2E)-3-(4'-\u7f9f\u57fa-3'-\u91d1\u521a\u70f7-1-\u57fa[1,1'-\u8054\u82ef]-4-\u57fa)-2-\u4e19\u70ef\u9178", "en_name": ["Adarotene", "2-Propenoic acid, 3-(4\u2032-hydroxy-3\u2032-tricyclo[3.3.1.13,7]dec-1-yl[1,1\u2032-biphenyl]-4-yl)-, (2E)-", "(2E)-3-(4\u2032-Hydroxy-3\u2032-tricyclo[3.3.1.13,7]dec-1-yl[1,1\u2032-biphenyl]-4-yl)-2-propenoic acid", "ST 1926", "Adarotene"], "SMILES": "OC=1C(C23CC4CC(C2)CC(C3)C4)=CC(=CC1)C5=CC=C(C=CC(O)=O)C=C5", "physical_data": {"Molecular Weight": "374.47", "Molecular Formula": "C25H26O3", "Melting Point": "&gt;240 \u00b0C"}}