{"cas_no": "49697-38-3", "cn_name": "\u745e\u7f8e\u677e\u9f99", "en_name": ["Rimexolone", "Androsta-1,4-dien-3-one, 11-hydroxy-16,17-dimethyl-17-(1-oxopropyl)-, (11\u03b2,16\u03b1,17\u03b2)-", "(11\u03b2,16\u03b1,17\u03b2)-11-Hydroxy-16,17-dimethyl-17-(1-oxopropyl)androsta-1,4-dien-3-one", "11\u03b2-Hydroxy-16\u03b1,17,21-trimethylpregna-1,4-diene-3,20-dione", "Org 6216", "Rimexolone", "11\u03b2-Hydroxy-16\u03b1,17\u03b1,21-trimethyl-5\u03b1-pregna-1,4-diene-3,20-dione", "Vexol", "Trimexolone", "Rimexel"], "SMILES": "CC12C(C3C(C(O)C1)C4(C)C(CC3)=CC(=O)C=C4)CC(C)C2(C(CC)=O)C", "physical_data": {"Molecular Weight": "370.52", "Molecular Formula": "C24H34O3", "Melting Point": "258-268 \u00b0C"}}