{"cas_no": "497-23-4", "cn_name": "2(5H)-\u544b\u5583\u916e", "en_name": ["2(5H)-Furanone", "2(5H)-Furanone", "Crotonic acid, 4-hydroxy-, \u03b3-lactone", "\u03b3-Hydroxycrotonic acid lactone", "Isocrotonolactone", "4-Hydroxy-2-butenoic acid \u03b3-lactone", "\u03b3-Crotonolactone", "2-Butenoic acid, 4-hydroxy-, \u03b3-lactone", "\u0394\u03b1,\u03b2-Butenolide", "4-Hydroxy-2-butenoic acid lactone", "2-Buten-4-olide", "2-Oxo-2,5-dihydrofuran", "\u03b1,\u03b2-Crotonolactone", "\u03b3-Crotolactone", "5H-Furan-2-one", "Cratone", "2,5-Dihydrofuranone", "5-Oxo-2,5-dihydrofuran-3-yl ester", "NSC 197009", "NSC 51296", "2H-Furan-5-one"], "SMILES": "O=C1C=CCO1", "physical_data": {"Molecular Weight": "84.07", "Molecular Formula": "C4H4O2", "Boiling Point": "86.5 \u00b0C", "Melting Point": "4.5 \u00b0C", "Density": "1.193 g/cm\u00b3 @ Temp: 20 \u00b0C"}}