{"cas_no": "497-04-1", "cn_name": "2-\u6c2f-1,3-\u4e19\u4e8c\u9187", "en_name": ["2-Chloro-1,3-propanediol", "1,3-Propanediol, 2-chloro-", "2-Chloro-1,3-propanediol", "Glycerol \u03b2-chlorohydrin", "2-Chloro-1,3-dihydroxypropane"], "SMILES": "C(CO)(CO)Cl", "physical_data": {"Molecular Weight": "110.54", "Molecular Formula": "C3H7ClO2", "Boiling Point": "122.5-123.5 \u00b0C @ Press: 13.5 Torr", "Density": "1.3241 g/cm\u00b3 @ Temp: 20 \u00b0C"}}