{"cas_no": "497-03-0", "cn_name": "\u987a-2-\u7532\u57fa-2-\u4e01\u919b", "en_name": ["Tiglaldehyde", "2-Butenal, 2-methyl-, (2E)-", "Crotonaldehyde, 2-methyl-, (E)-", "Tiglaldehyde", "2-Butenal, 2-methyl-, (E)-", "(2E)-2-Methyl-2-butenal", "trans-2-Methyl-2-butenal", "Tiglic aldehyde", "trans-Tiglaldehyde", "(E)-2-Methylbut-2-en-1-al", "(E)-2-Methyl-2-butenal", "NSC 2179", "(E)-2-Methyl-2-butenal"], "SMILES": "C(=CC)(C=O)C", "physical_data": {"Molecular Weight": "84.12", "Molecular Formula": "C5H8O", "Boiling Point": "117 \u00b0C", "Density": "0.886 g/cm\u00b3 @ Temp: 0 \u00b0C"}}