{"cas_no": "497-19-8", "cn_name": "\u78b3\u9178\u94a0", "en_name": ["Sodium carbonate", "Carbonic acid sodium salt (1:2)", "Carbonic acid disodium salt", "Sodium carbonate", "Sodium carbonate (2:1)", "Soda ash", "Soda", "Sodium carbonate (Na2(CO3))", "Disodium carbonate", "Disodium carbonate (Na2CO3)", "Bisodium carbonate", "Carbonic acid sodium salt", "Soda, calcined", "Calcined soda", "Sodium carbonate, anhydrous", "Carbonic acid, disodium salt", "Na-X", "Snowlite 1", "V Soda", "V 20N", "Soda Ash Light 4P", "Dynamar L 13890", "Suprapur 6395", "Light Ash", "Dense Ash", "Soda Ash Dense", "Dynamar RC 5251Q", "Soda Light", "Lime ash", "Soda Ash Light", "Dynamar 5251Q", "S 24152"], "SMILES": "C(=O)(O)O.[Na]", "physical_data": {"Molecular Weight": "", "Molecular Formula": "CH2O3.2Na", "Melting Point": "851 \u00b0C", "Density": "2.53 g/cm\u00b3"}}