{"cas_no": "497-26-7", "cn_name": "2-\u7532\u57fa-1,3-\u4e8c\u6c27\u620a\u73af", "en_name": ["2-Methyl-1,3-dioxolane", "1,3-Dioxolane, 2-methyl-", "2-Methyl-1,3-dioxolane", "2-Methyldioxolane", "2-Methyl-1,3-dioxacyclopentane", "Methyl dioxolane", "NSC 5209"], "SMILES": "CC1OCCO1", "physical_data": {"Molecular Weight": "88.11", "Molecular Formula": "C4H8O2", "Boiling Point": "81.5 \u00b0C", "Density": "0.9795 g/cm\u00b3 @ Temp: 20 \u00b0C"}}