{"cas_no": "497-37-0", "cn_name": "\u964d\u51b0\u7247", "en_name": ["exo-Norborneol", "Bicyclo[2.2.1]heptan-2-ol, (1R,2R,4S)-rel-", "2-Norbornanol, exo-", "Bicyclo[2.2.1]heptan-2-ol, exo-", "rel-(1R,2R,4S)-Bicyclo[2.2.1]heptan-2-ol", "exo-2-Norborneol", "exo-2-Norbornanol", "exo-Norbornanol", "exo-Norborneol", "exo-2-Norbornyl alcohol", "exo-Bicyclo[2.2.1]heptan-2-ol", "exo-Norbornyl alcohol", "2-exo-Norbornanol", "exo-2-Hydroxybicyclo[2.2.1]heptane", "d,l-exo-Norborneol", "(\u00b1)-exo-Norborneol", "exo-(\u00b1)-2-Norborneol", "NSC 167460", "exo-2-Bicyclo[2.2.1]heptanol"], "SMILES": "OC1C2CC(C1)CC2", "physical_data": {"Molecular Weight": "112.17", "Molecular Formula": "C7H12O", "Boiling Point": "176.5 \u00b0C", "Melting Point": "124 \u00b0C"}}