{"cas_no": "497-38-1", "cn_name": "\u964d\u51b0\u7247\u9187", "en_name": ["Bicyclo[2.2.1]heptan-2-one", "Bicyclo[2.2.1]heptan-2-one", "2-Norbornanone", "Norcamphor", "2-Oxonorbornane", "2,5-Methanocyclohexanone", "(\u00b1)-2-Norbornanone", "dl-Norcamphor", "(\u00b1)-Norcamphor", "Racemic norcamphor", "NSC 66537", "NSC 92359"], "SMILES": "O=C1C2CC(C1)CC2", "physical_data": {"Molecular Weight": "110.15", "Molecular Formula": "C7H10O", "Boiling Point": "68-72 \u00b0C @ Press: 12 Torr", "Melting Point": "93-94 \u00b0C"}}