{"cas_no": "497-76-7", "cn_name": "\u718a\u679c\u82f7", "en_name": ["Arbutin", "\u03b2-D-Glucopyranoside, 4-hydroxyphenyl", "Arbutin", "Glucopyranoside, p-hydroxyphenyl, \u03b2-D-", "4-Hydroxyphenyl \u03b2-D-glucopyranoside", "Ursin", "p-Hydroxyphenyl \u03b2-D-glucoside", "p-Hydroxyphenyl \u03b2-D-glucopyranoside", "Hydroquinone \u03b2-D-glucopyranoside", "Arbutine", "Uvasol", "\u03b2-Arbutin", "Hydroquinone glucose", "Arbutoside", "NSC 4036", "Arbutyne", "p-Arbutin", "MeSH ID: D001104"], "SMILES": "O(C1OC(CO)C(O)C(O)C1O)C2=CC=C(O)C=C2", "physical_data": {"Molecular Weight": "272.25", "Molecular Formula": "C12H16O7", "Melting Point": "199.5 \u00b0C"}}