{"cas_no": "497-30-3", "cn_name": "\u9ea6\u89d2\u786b\u56e0", "en_name": ["Ergothioneine", "1H-Imidazole-4-ethanaminium, \u03b1-carboxy-2,3-dihydro-N,N,N-trimethyl-2-thioxo-, inner salt, (\u03b1S)-", "1H-Imidazole-4-ethanaminium, \u03b1-carboxy-2,3-dihydro-N,N,N-trimethyl-2-thioxo-, hydroxide, inner salt, (S)-", "Ammonium, [1-carboxy-2-(2-mercaptoimidazol-4-yl)ethyl]trimethyl-, hydroxide, inner salt, L-(+)-", "Ergothioneine", "Sympectothion", "Thiasine", "Thioneine", "Histidine, 2-mercapto-, trimethylbetaine", "Histidine, 2-mercapto-N,N-dimethyl-, betaine", "L-Ergothioneine", "2-Mercapto-N,N-dimethylhistidine methyl ester betaine", "2-Mercaptohistidine trimethylbetaine", "Ergothionine", "1H-Imidazole-4-ethanaminium, \u03b1-carboxy-2,3-dihydro-N,N,N-trimethyl-2-thioxo-, inner salt, (S)-", "2-Mercaptohistidine betaine", "NSC 7175", "Thiotane", "thiotaine", "Phytothioneine", "(S)-5-(2-Carboxy-2-(trimethylammonio)ethyl)-1H-imidazole-2-thiolate", "(2S)-3-(2-Sulfanyl-1H-imidazol-4-yl)-2-(trimethylazaniumyl)propanoate", "ErgoActive", "L-(+)-Ergothionene", "MeSH ID: D004880"], "SMILES": "C(CC=1NC(=S)NC1)([N+](C)(C)C)C([O-])=O", "physical_data": {"Molecular Weight": "", "Molecular Formula": "C9H15N3O2S", "Melting Point": "280 \u00b0C (decomp)"}}