{"cas_no": "497-06-3", "cn_name": "\u4e01\u70ef\u4e8c\u9187", "en_name": ["3-Butene-1,2-diol", "3-Butene-1,2-diol", "Erythrol", "3,4-Dihydroxy-1-butene", "1,2-Dihydroxy-3-butene", "1-Butene-3,4-diol", "But-3-en-1,2-diol", "1-Buten-3,4-diol"], "SMILES": "C(C=C)(CO)O", "physical_data": {"Molecular Weight": "88.11", "Molecular Formula": "C4H8O2", "Boiling Point": "196.5 \u00b0C", "Density": "1.04703 g/cm\u00b3 @ Temp: 20 \u00b0C"}}