{"cas_no": "497-39-2", "cn_name": "2,4-\u53cc(1,1-\u4e8c\u7532\u4e59\u57fa)-5-\u7532\u57fa\u82ef\u915a", "en_name": ["Di-tert-Butyl-m-cresol", "Phenol, 2,4-bis(1,1-dimethylethyl)-5-methyl-", "m-Cresol, 4,6-di-tert-butyl-", "2,4-Bis(1,1-dimethylethyl)-5-methylphenol", "DBMC", "4,6-Di-tert-butyl-m-cresol", "2,4-Di-tert-butyl-5-methylphenol", "3-Methyl-4,6-di-tert-butylphenol", "Di-tert-Butyl-m-cresol", "4,6-Di-tert-butyl-3-methylphenol", "2,4-Ditert-butyl-5-methylphenol"], "SMILES": "C(C)(C)(C)C1=CC(C(C)(C)C)=C(O)C=C1C", "physical_data": {"Molecular Weight": "220.35", "Molecular Formula": "C15H24O", "Boiling Point": "211 \u00b0C @ Press: 100 Torr", "Melting Point": "62.1 \u00b0C", "Density": "0.912 g/cm\u00b3 @ Temp: 80 \u00b0C"}}