{"cas_no": "497-25-6", "cn_name": "2-\u5511\u70f7\u916e", "en_name": ["2-Oxazolidinone", "2-Oxazolidinone", "Carbamic acid, (2-hydroxyethyl)-, \u03b3-lactone", "2-Oxazolidone", "1,3-Oxazolidin-2-one", "2-Oxotetrahydro-1,3-oxazole", "NSC 35382", "NSC 38240", "2-Oxo-1,3-oxazolidine"], "SMILES": "O=C1NCCO1", "physical_data": {"Molecular Weight": "87.08", "Molecular Formula": "C3H5NO2", "Boiling Point": "152 \u00b0C @ Press: 0.4 Torr", "Melting Point": "87-89 \u00b0C", "Density": "1.50 g/cm\u00b3"}}