{"cas_no": "497-18-7", "cn_name": "\u78b3\u9170\u80bc", "en_name": ["Carbohydrazide", "Carbonic dihydrazide", "Carbohydrazide", "Carbazide", "Carbonic acid, dihydrazide", "Hydrazine, carbonylbis-", "Hydrazinecarboxylic acid, hydrazide", "Hydrazinecarboxamide, N-amino-", "Urea, N,N\u2032-diamino-", "Carbodihydrazide", "Carbonohydrazide", "NSC 1934", "1,3-Diaminourea", "N,N\u2032-Diaminourea"], "SMILES": "C(NN)(NN)=O", "physical_data": {"Molecular Weight": "90.08", "Molecular Formula": "CH6N4O", "Melting Point": "154 \u00b0C"}}