{"cas_no": "49705-98-8", "cn_name": "CBZ-L-\u82cf\u6c28\u9170\u80fa", "en_name": ["Phenylmethyl N-[(1S,2R)-1-(aminocarbonyl)-2-hydroxypropyl]carbamate", "Carbamic acid, N-[(1S,2R)-1-(aminocarbonyl)-2-hydroxypropyl]-, phenylmethyl ester", "Carbamic acid, [1-(aminocarbonyl)-2-hydroxypropyl]-, phenylmethyl ester, [R-(R*,S*)]-", "Carbamic acid, [(1S,2R)-1-(aminocarbonyl)-2-hydroxypropyl]-, phenylmethyl ester", "Phenylmethyl N-[(1S,2R)-1-(aminocarbonyl)-2-hydroxypropyl]carbamate", "N-(Benzyloxycarbonyl)-L-threonine amide", "N-Benzyloxycarbonylthreonine amide", "Cbz-L-threoninamide"], "SMILES": "C(NC(OCC1=CC=CC=C1)=O)(C(C)O)C(N)=O", "physical_data": {"Molecular Weight": "252.27", "Molecular Formula": "C12H16N2O4", "Melting Point": "82-83 \u00b0C"}}