{"cas_no": "49708-81-8", "cn_name": "4-(4-\u6c2f\u82ef\u57fa)\u73af\u5df1\u70f7\u7532\u9178", "en_name": ["trans-4-(4-Chlorophenyl)cyclohexanecarboxylic acid", "Cyclohexanecarboxylic acid, 4-(4-chlorophenyl)-, trans-", "trans-4-(4-Chlorophenyl)cyclohexanecarboxylic acid", "trans-4-(p-Chlorophenyl)cyclohexanecarboxylic acid"], "SMILES": "C(O)(=O)C1CCC(CC1)C2=CC=C(Cl)C=C2", "physical_data": {"Molecular Weight": "238.71", "Molecular Formula": "C13H15ClO2", "Melting Point": "235 \u00b0C"}}