{"cas_no": "4971-56-6", "cn_name": "4-\u7f9f\u4e59\u9170\u4e59\u9178\u5185\u916f", "en_name": ["Tetronic acid", "2,4(3H,5H)-Furandione", "Tetronic acid", "Acetoacetic acid, 4-hydroxy-, \u03b3-lactone", "Butanoic acid, 4-hydroxy-3-oxo-, \u03b3-lactone", "Tetrahydrofuran-3,5-dione", "Tetrahydrofuran-2,4-dione", "Oxolane-2,4-dione", "Dihydro-2,4-furandione"], "SMILES": "O=C1CC(=O)OC1", "physical_data": {"Molecular Weight": "100.07", "Molecular Formula": "C4H4O3", "Melting Point": "139-140 \u00b0C"}}