{"cas_no": "4971-18-0", "cn_name": "2-\u4e59\u57fa\u73af\u620a\u916e", "en_name": ["2-Ethylcyclopentanone", "Cyclopentanone, 2-ethyl-", "2-Ethylcyclopentanone", "NSC 105441", "2-Ethylcyclopentan-1-one"], "SMILES": "C(C)C1C(=O)CCC1", "physical_data": {"Molecular Weight": "112.17", "Molecular Formula": "C7H12O", "Boiling Point": "157-158 \u00b0C", "Density": "0.9132 g/cm\u00b3 @ Temp: 17 \u00b0C"}}