{"cas_no": "49713-58-8", "cn_name": "4-\u6c2f\u55b9\u5549-7-\u7532\u9178", "en_name": ["4-Chloro-7-quinolinecarboxylic acid", "7-Quinolinecarboxylic acid, 4-chloro-", "4-Chloro-7-quinolinecarboxylic acid", "7-Carboxy-4-chloroquinoline"], "SMILES": "ClC=1C2=C(C=C(C(O)=O)C=C2)N=CC1", "physical_data": {"Molecular Weight": "207.61", "Molecular Formula": "C10H6ClNO2", "Melting Point": "211 \u00b0C"}}