{"cas_no": "4971-55-5", "cn_name": "3-\u6c2f-2,4(3H,5H)-\u544b\u5583\u4e8c\u916e", "en_name": ["3-Chloro-2,4(3H,5H)-furandione", "2,4(3H,5H)-Furandione, 3-chloro-", "Acetoacetic acid, 2-chloro-4-hydroxy-, \u03b3-lactone", "3-Chloro-2,4(3H,5H)-furandione", "3-Chlorotetronic acid", "3-Chlorotetrahydrofuran-2,4-dione", "3-Chloro-furan-2,4-dione", "3-Chloro-(3H,5H)-furan-2,4-dione"], "SMILES": "ClC1C(=O)COC1=O", "physical_data": {"Molecular Weight": "134.52", "Molecular Formula": "C4H3ClO3", "Melting Point": "205 \u00b0C (decomp)"}}