{"cas_no": "49715-04-0", "cn_name": "\u6c2f\u7532\u57fa\u6c2f\u78fa\u9178\u916f", "en_name": ["Chloromethyl chlorosulfate", "Chlorosulfuric acid, chloromethyl ester", "Chloromethyl chlorosulfate", "Chloromethoxysulfonyl chloride", "Chloromethyl sulfurochloridate"], "SMILES": "O(S(Cl)(=O)=O)CCl", "physical_data": {"Molecular Weight": "165.00", "Molecular Formula": "CH2Cl2O3S", "Boiling Point": "153-155 \u00b0C @ Press: 750 Torr", "Density": "1.63 g/cm\u00b3"}}