{"cas_no": "4972-68-3", "cn_name": "1-\u7532\u57fa-4-\u82ef\u57fa-4-\u54cc\u5576\u9187", "en_name": ["1-Methyl-4-phenyl-4-piperidinol", "4-Piperidinol, 1-methyl-4-phenyl-", "1-Methyl-4-phenyl-4-piperidinol", "4-Phenyl-1-methyl-4-piperidinol", "IK 4"], "SMILES": "OC1(CCN(C)CC1)C2=CC=CC=C2", "physical_data": {"Molecular Weight": "191.27", "Molecular Formula": "C12H17NO", "Boiling Point": "173 \u00b0C @ Press: 13 Torr", "Melting Point": "114-115 \u00b0C"}}