{"cas_no": "4973-29-9", "cn_name": "\u5bf9\u82ef\u6c27\u57fa\u82ef\u4e59\u70ef", "en_name": ["4-Phenoxystyrene", "Benzene, 1-ethenyl-4-phenoxy-", "Ether, phenyl p-vinylphenyl", "1-Ethenyl-4-phenoxybenzene", "(4-Vinylphenoxy)benzene", "4-Vinyldiphenyl ether", "4-Phenoxystyrene", "p-Phenoxyphenylethylene", "p-Phenoxystyrene", "4-Phenoxyphenylethylene", "NSC 158435", "1-Phenoxy-4-vinylbenzene"], "SMILES": "O(C1=CC=C(C=C)C=C1)C2=CC=CC=C2", "physical_data": {"Molecular Weight": "196.24", "Molecular Formula": "C14H12O", "Boiling Point": "110-112 \u00b0C @ Press: 1 Torr", "Density": "1.060 g/cm\u00b3 @ Temp: 20 \u00b0C"}}