{"cas_no": "49742-56-5", "cn_name": "4'-\u7532\u57fa[1,1'-\u8054\u82ef]-4-\u7532\u9178\u7532\u916f", "en_name": ["[1,1\u2032-Biphenyl]-4-carboxylic acid, 4\u2032-methyl-, methyl ester", "[1,1\u2032-Biphenyl]-4-carboxylic acid, 4\u2032-methyl-, methyl ester", "Methyl 4\u2032-methylbiphenyl-4-carboxylate", "Methyl 4-(4-methylphenyl)benzoate", "Methyl 4-(p-tolyl)benzoate", "Methyl 4\u2032-methyl-1,1\u2032-biphenyl-4-carboxylate", "4\u2032-Methylbiphenyl-4-carboxylic acid methyl ester", "4-Methoxycarbonyl-4\u2032-methyl-1,1\u2032-biphenyl"], "SMILES": "C(OC)(=O)C1=CC=C(C=C1)C2=CC=C(C)C=C2", "physical_data": {"Molecular Weight": "226.27", "Molecular Formula": "C15H14O2", "Melting Point": "115-116 \u00b0C"}}