{"cas_no": "49745-95-1", "cn_name": "\u76d0\u9178\u591a\u5df4\u915a\u4e01\u80fa", "en_name": ["Dobutamine hydrochloride", "1,2-Benzenediol, 4-[2-[[3-(4-hydroxyphenyl)-1-methylpropyl]amino]ethyl]-, hydrochloride (1:1)", "1,2-Benzenediol, 4-[2-[[3-(4-hydroxyphenyl)-1-methylpropyl]amino]ethyl]-, hydrochloride", "Dobutamine hydrochloride", "dl-Dobutamine hydrochloride", "Dobutrex", "DL-Dobutamine hydrochloride", "Inotrex", "NSC 299583"], "SMILES": "C(CNC(CCC1=CC=C(O)C=C1)C)C2=CC(O)=C(O)C=C2.Cl", "physical_data": {"Molecular Weight": "", "Molecular Formula": "C18H23NO3.ClH", "Melting Point": "184-186 \u00b0C"}}