{"cas_no": "49761-82-2", "cn_name": "N-BOC-\u54aa\u5511", "en_name": ["1H-Imidazole-1-carboxylic acid, 1,1-dimethylethyl ester", "1H-Imidazole-1-carboxylic acid, 1,1-dimethylethyl ester", "Imidazole-1-carboxylic acid, tert-butyl ester", "1-(tert-Butoxycarbonyl)imidazole", "tert-Butyl imidazole-1-carboxylate", "tert-Butyl 1H-imidazole-1-carboxylate", "1-Boc-imidazole", "1,1-Dimethylethyl 1H-imidazole-1-carboxylate"], "SMILES": "C(OC(C)(C)C)(=O)N1C=CN=C1", "physical_data": {"Molecular Weight": "168.19", "Molecular Formula": "C8H12N2O2", "Melting Point": "45-47.5 \u00b0C"}}