{"cas_no": "49769-78-0", "cn_name": "\u82c4\u57fa\u4e19\u4e8c\u9178\u4e8c\u7532\u916f", "en_name": ["1,3-Dimethyl 2-(phenylmethyl)propanedioate", "Propanedioic acid, 2-(phenylmethyl)-, 1,3-dimethyl ester", "Propanedioic acid, (phenylmethyl)-, dimethyl ester", "Malonic acid, benzyl-, dimethyl ester", "1,3-Dimethyl 2-(phenylmethyl)propanedioate", "Dimethyl benzylmalonate", "Dimethyl \u03b1-benzylmalonate", "Dimethyl 2-benzylmalonate", "2-Benzyl-malonic acid dimethyl ester"], "SMILES": "C(CC1=CC=CC=C1)(C(OC)=O)C(OC)=O", "physical_data": {"Molecular Weight": "222.24", "Molecular Formula": "C12H14O4", "Boiling Point": "130 \u00b0C @ Press: 2 Torr"}}