{"cas_no": "49763-66-8", "cn_name": "4-\u8f9b\u57fa\u82ef\u7532\u919b", "en_name": ["4-Octylbenzaldehyde", "Benzaldehyde, 4-octyl-", "4-Octylbenzaldehyde", "p-Octylbenzaldehyde", "4-n-Octylbenzaldehyde"], "SMILES": "C(CCCCCCC)C1=CC=C(C=O)C=C1", "physical_data": {"Molecular Weight": "218.33", "Molecular Formula": "C15H22O", "Boiling Point": "131-132 \u00b0C @ Press: 3 Torr", "Melting Point": "-6 \u00b0C"}}