{"cas_no": "49763-65-7", "cn_name": "4-\u620a\u57fa\u82ef\u7532\u9170\u6c2f", "en_name": ["4-Pentylbenzoyl chloride", "Benzoyl chloride, 4-pentyl-", "4-Pentylbenzoyl chloride", "p-Pentylbenzoyl chloride", "p-(n-Amyl)benzoyl chloride", "4-n-Pentylbenzoyl chloride"], "SMILES": "C(CCCC)C1=CC=C(C(Cl)=O)C=C1", "physical_data": {"Molecular Weight": "210.70", "Molecular Formula": "C12H15ClO", "Boiling Point": "136 \u00b0C @ Press: 3.2 Torr"}}