{"cas_no": "4977-62-2", "cn_name": "N-\u4e59\u9170\u57fa-2-\u6c30\u57fa\u7518\u6c28\u9178\u4e59\u916f", "en_name": ["Ethyl 2-(acetylamino)-2-cyanoacetate", "Acetic acid, 2-(acetylamino)-2-cyano-, ethyl ester", "Glycine, N-acetyl-2-cyano-, ethyl ester", "Acetic acid, (acetylamino)cyano-, ethyl ester", "Ethyl 2-(acetylamino)-2-cyanoacetate", "Ethyl acetamidocyanoacetate", "Ethyl 2-acetamido-2-cyanoacetate", "NSC 49313", "NSC 8691", "2-(Acetylamino)-2-cyanoacetic acid ethyl ester", "2-Acetamido-2-cyanoacetic acid ethyl ester"], "SMILES": "C(C(OCC)=O)(NC(C)=O)C#N", "physical_data": {"Molecular Weight": "170.17", "Molecular Formula": "C7H10N2O3", "Melting Point": "129 \u00b0C"}}