{"cas_no": "49773-20-8", "cn_name": "2-(\u7532\u78fa\u9170\u57fa)\u4e59\u80fa", "en_name": ["2-(Methylsulfonyl)ethanamine", "Ethanamine, 2-(methylsulfonyl)-", "2-(Methylsulfonyl)ethanamine", "2-(Methylsulfonyl)ethylamine", "2-Aminoethyl methyl sulfone", "2-(Methylsulfonyl)ethan-1-amine", "2-(Methylsulfonyl)ethaneamine", "2-(Methanesulfonyl)ethanamine", "2-Methanesulfonylethan-1-amine"], "SMILES": "C(S(C)(=O)=O)CN", "physical_data": {"Molecular Weight": "123.17", "Molecular Formula": "C3H9NO2S", "Boiling Point": "160 \u00b0C @ Press: 0.02 Torr"}}