{"cas_no": "497833-04-2", "cn_name": "1-\u7532\u57fa-5-\u4e09\u6c1f\u7532\u57fa-1H-\u5421\u5511-4-\u7532\u919b", "en_name": ["1-Methyl-5-(trifluoromethyl)-1H-pyrazole-4-carboxaldehyde", "1H-Pyrazole-4-carboxaldehyde, 1-methyl-5-(trifluoromethyl)-", "1-Methyl-5-(trifluoromethyl)-1H-pyrazole-4-carboxaldehyde", "1-Methyl-5-trifluoromethyl-1H-pyrazole-4-carbaldehyde", "1-Methyl-5-(trifluoromethyl)-1H-pyrazole-4-carbaldehyde"], "SMILES": "C(F)(F)(F)C1=C(C=O)C=NN1C", "physical_data": {"Molecular Weight": "178.11", "Molecular Formula": "C6H5F3N2O", "Melting Point": "56-58 \u00b0C"}}