{"cas_no": "4979-32-2", "cn_name": "N,N-\u4e8c\u73af\u5df1\u57fa-2-\u82ef\u5e76\u567b\u5511\u6b21\u78fa\u9170\u80fa", "en_name": ["N,N-Dicyclohexyl-2-benzothiazolesulfenamide", "2-Benzothiazolesulfenamide, N,N-dicyclohexyl-", "N,N-Dicyclohexyl-2-benzothiazolesulfenamide", "Vulkacit DZ", "2-Benzothiazolyl-N,N-dicyclohexylsulfenamide", "Meramid DCH", "DTs", "Soxinol DZ", "Rhodifax 30", "N,N-Dicyclohexyl-2-benzothiazolylsulfenamide", "M 181", "Accelerator DZ", "SA-DTs", "Nocceler DZ", "Sanceler DZ", "Sanceler DZ-G", "Santocure DCBS", "Sulfenamide DTs", "Nocceler DZ-G", "DCBS", "Accel DZ-G", "N,N-Dicyclohexyl-2-mercaptobenzothiazole sulfenamide", "N,N-Dicyclohexyl-1,3-benzothiazole-2-sulfenamide", "Mercure DCBS"], "SMILES": "N(SC1=NC=2C(S1)=CC=CC2)(C3CCCCC3)C4CCCCC4", "physical_data": {"Molecular Weight": "346.55", "Molecular Formula": "C19H26N2S2", "Melting Point": "99 \u00b0C"}}