{"cas_no": "498-81-7", "cn_name": "\u4e8c\u6c22\u677e\u6cb9\u9187", "en_name": ["Dihydro-\u03b1-terpineol", "Cyclohexanemethanol, \u03b1,\u03b1,4-trimethyl-", "p-Menthan-8-ol", "\u03b1,\u03b1,4-Trimethylcyclohexanemethanol", "Dihydro-\u03b1-terpineol", "8-p-Menthanol", "2-(4-Methylcyclohexyl)propan-2-ol"], "SMILES": "C(C)(C)(O)C1CCC(C)CC1", "physical_data": {"Molecular Weight": "156.27", "Molecular Formula": "C10H20O", "Boiling Point": "115-117 \u00b0C @ Press: 0.4 Torr"}}