{"cas_no": "498-94-2", "cn_name": "4-\u54cc\u5576\u7532\u9178", "en_name": ["4-Piperidinecarboxylic acid", "4-Piperidinecarboxylic acid", "Isonipecotic acid", "Hexahydroisonicotinic acid", "4-Carboxypiperidine", "NSC 61049", "Isonipecotinic acid", "Piperidin-4-carboxylic acid"], "SMILES": "C(O)(=O)C1CCNCC1", "physical_data": {"Molecular Weight": "129.16", "Molecular Formula": "C6H11NO2", "Melting Point": "336 \u00b0C"}}