{"cas_no": "498-66-8", "cn_name": "\u964d\u51b0\u7247\u70ef", "en_name": ["Norbornene", "Bicyclo[2.2.1]hept-2-ene", "2-Norbornene", "Norcamphene", "Norbornylene", "Norfenchene", "3,6-Endomethylenecyclohexene", "Norbornene", "Bicyclo[2.2.1]heptene", "2-Norbornylene", "NSC 120425", "NSC 22453"], "SMILES": "C12CC(CC1)C=C2", "physical_data": {"Molecular Weight": "94.15", "Molecular Formula": "C7H10", "Boiling Point": "96 \u00b0C", "Melting Point": "45 \u00b0C", "Density": "0.8789 g/cm\u00b3 @ Temp: 13 \u00b0C"}}