{"cas_no": "498-07-7", "cn_name": "1,6-\u8131\u6c34-BETHA-D-\u8461\u8404\u7cd6", "en_name": ["Levoglucosan", "\u03b2-D-Glucopyranose, 1,6-anhydro-", "Levoglucosan", "D-Glucose, 1,6-anhydro-", "1,6-Anhydro-\u03b2-D-glucopyranose", "6,8-Dioxabicyclo[3.2.1]octane, \u03b2-D-glucopyranose deriv.", "Leucoglucosan", "1,6-Anhydro-\u03b2-D-glucose", "1,6-Anhydroglucose", "1,6-Anhydro-D-glucose", "NSC 46243", "1,6-Anhydro-D-glucopyranoside"], "SMILES": "OC1C2OC(OC2)C(O)C1O", "physical_data": {"Molecular Weight": "162.14", "Molecular Formula": "C6H10O5", "Melting Point": "183 \u00b0C"}}