{"cas_no": "498-02-2", "cn_name": "\u9999\u8349\u4e59\u916e", "en_name": ["Acetovanillone", "Ethanone, 1-(4-hydroxy-3-methoxyphenyl)-", "Acetophenone, 4\u2032-hydroxy-3\u2032-methoxy-", "1-(4-Hydroxy-3-methoxyphenyl)ethanone", "Acetoguaiacone", "Acetovanillone", "Apocynin", "Apocynine", "4-Acetyl-2-methoxyphenol", "3\u2032-Methoxy-4\u2032-hydroxyacetophenone", "4\u2032-Hydroxy-3\u2032-methoxyacetophenone", "Acetoguaiacon", "4-Hydroxy-3-methoxyphenyl methyl ketone", "2-Methoxy-4-acetylphenol", "4-Acetylguaiacol", "Acetoguaicone", "NSC 209524", "NSC 2146", "3-Methoxy-4-hydroxyphenylethanone", "Acetoguaiacol", "1-(4-Hydroxy-3-methoxyphenyl)ethan-1-one", "4-Acetyl-1-hydroxy-2-methoxybenzene", "4-Hydroxy-3-methoxy hypnone"], "SMILES": "O(C)C1=CC(C(C)=O)=CC=C1O", "physical_data": {"Molecular Weight": "166.17", "Molecular Formula": "C9H10O3", "Boiling Point": "297 \u00b0C", "Melting Point": "115 \u00b0C"}}