{"cas_no": "498-23-7", "cn_name": "\u67e0\u5eb7\u9178", "en_name": ["Citraconic acid", "2-Butenedioic acid, 2-methyl-, (2Z)-", "Citraconic acid", "2-Butenedioic acid, 2-methyl-, (Z)-", "(2Z)-2-Methyl-2-butenedioic acid", "Methylmaleic acid", "(Z)-2-Methyl-2-butenedioic acid", "2-Methylmaleic acid"], "SMILES": "C(=CC(O)=O)(C(O)=O)C", "physical_data": {"Molecular Weight": "130.10", "Molecular Formula": "C5H6O4", "Boiling Point": "170-175 \u00b0C", "Melting Point": "93.5 \u00b0C"}}