{"cas_no": "498-60-2", "cn_name": "3-\u7ce0\u919b", "en_name": ["3-Furancarboxaldehyde", "3-Furancarboxaldehyde", "3-Furaldehyde", "3-Formylfuran", "3-Furanaldehyde", "3-Furfural", "3-Furfuraldehyde", "3-Furylcarboxaldehyde", "3-Furylaldehyde", "3-Furancarbaldehyde"], "SMILES": "C(=O)C=1C=COC1", "physical_data": {"Molecular Weight": "96.08", "Molecular Formula": "C5H4O2", "Boiling Point": "145 \u00b0C", "Melting Point": "148-149.5 \u00b0C", "Density": "1.4945 g/cm\u00b3 @ Temp: 20 \u00b0C"}}