{"cas_no": "498-24-8", "cn_name": "\u4e2d\u5eb7\u9178", "en_name": ["Mesaconic acid", "2-Butenedioic acid, 2-methyl-, (2E)-", "Mesaconic acid", "2-Butenedioic acid, 2-methyl-, (E)-", "(2E)-2-Methyl-2-butenedioic acid", "trans-2-Methyl-2-butenedioic acid", "Methylfumaric acid", "trans-1-Propene-1,2-dicarboxylic acid", "2-Methylfumaric acid", "Citronic acid", "(E)-Citraconic acid", "NSC 65438"], "SMILES": "C(=CC(O)=O)(C(O)=O)C", "physical_data": {"Molecular Weight": "130.10", "Molecular Formula": "C5H6O4", "Melting Point": "204.5 \u00b0C"}}