{"cas_no": "498-36-2", "cn_name": "2-\u7f9f\u57fa-4-\u7532\u57fa\u620a\u9178", "en_name": ["(\u00b1)-2-Hydroxyisocaproic acid", "Pentanoic acid, 2-hydroxy-4-methyl-", "Valeric acid, 2-hydroxy-4-methyl-", "Leucic acid", "2-Hydroxy-4-methylpentanoic acid", "\u03b1-Hydroxyisocaproic acid", "\u03b1-Hydroxy-iso-caproic acid", "\u03b1-Hydroxyisocaproate", "2-Hydroxyisocaproic acid", "2-Hydroxy-4-methylvaleric acid", "2-Hydroxyisohexanoic acid", "(\u00b1)-\u03b1-Hydroxyisocaproic acid", "DL-\u03b1-Hydroxyisocaproic acid", "(\u00b1)-Leucinic acid", "(\u00b1)-2-Hydroxyisohexanoic acid", "DL-2-Hydroxy-4-methylpentanoic acid", "DL-2-Hydroxyisocaproic acid", "(\u00b1)-2-Hydroxyisocaproic acid", "DL-Leucic acid", "(\u00b1)-Leucic acid", "Leucinic acid"], "SMILES": "C(CC(C)C)(C(O)=O)O", "physical_data": {"Molecular Weight": "132.16", "Molecular Formula": "C6H12O3", "Melting Point": "76-77 \u00b0C"}}