{"cas_no": "498-62-4", "cn_name": "3-\u567b\u5429\u7532\u919b", "en_name": ["3-Thiophenecarboxaldehyde", "3-Thiophenecarboxaldehyde", "3-Formylthiophene", "3-Thiophenecarbaldehyde", "3-Thiophenealdehyde", "3-Thienylcarboxaldehyde", "3-Thienaldehyde", "Thiophen-3-aldehyde", "NSC 172858", "Thiofuran-3-carboxaldehyde"], "SMILES": "C(=O)C=1C=CSC1", "physical_data": {"Molecular Weight": "112.15", "Molecular Formula": "C5H4OS", "Boiling Point": "86.7 \u00b0C"}}