{"cas_no": "498-74-8", "cn_name": "\u5bf9\u785d\u57fa\u82ef\u78fa\u9170\u6c2f", "en_name": ["3-Amino-4-methoxybenzenesulfonyl fluoride", "Benzenesulfonyl fluoride, 3-amino-4-methoxy-", "Metanilyl fluoride, 4-methoxy-", "3-Amino-4-methoxybenzenesulfonyl fluoride", "5-Fluorosulfonyl-2-methoxyaniline", "4-Methoxymetanilyl fluoride", "NSC 95416", "3-Amino-4-methoxybenzene-1-sulfonyl fluoride"], "SMILES": "S(F)(=O)(=O)C1=CC(N)=C(OC)C=C1", "physical_data": {"Molecular Weight": "205.21", "Molecular Formula": "C7H8FNO3S", "Melting Point": "62 \u00b0C"}}