{"cas_no": "498-00-0", "cn_name": "\u9999\u8349\u9187", "en_name": ["Vanillyl alcohol", "Benzenemethanol, 4-hydroxy-3-methoxy-", "Vanillyl alcohol", "4-Hydroxy-3-methoxybenzenemethanol", "3-Methoxy-4-hydroxybenzyl alcohol", "Vanillic alcohol", "4-Hydroxy-3-methoxybenzyl alcohol", "Vanillin alcohol", "4-(Hydroxymethyl)-2-methoxyphenol", "V 0018", "V 0018 (alcohol)", "NSC 3993", "p-(Hydroxymethyl)guaiacol", "3-Methoxy-4-hydroxybenzenemethanol", "3-Methoxyl-4-hydroxybenzyl alcohol"], "SMILES": "O(C)C1=CC(CO)=CC=C1O", "physical_data": {"Molecular Weight": "154.16", "Molecular Formula": "C8H10O3", "Melting Point": "115 \u00b0C"}}