{"cas_no": "498-59-9", "cn_name": "3,3'-(\u4e9e\u7532\u4e8c\u786b)\u96d9\u4e19\u80fa\u9178", "en_name": ["Djenkolic acid", "L-Cysteine, S,S\u2032-methylenebis-", "Alanine, 3,3\u2032-(methylenedithio)di-, L-", "Djenkolic acid", "Alanine, 3,3\u2032-(methylenedithio)di-", "S,S\u2032-Methylenebis[L-cysteine]", "3,3\u2032-Methylenedithiobis(2-aminopropanoic acid)", "\u03b2,\u03b2\u2032-Methylenedithiodialanine", "L-Djenkolic acid", "NSC 76076"], "SMILES": "C(CSCSCC(C(O)=O)N)(C(O)=O)N", "physical_data": {"Molecular Weight": "254.33", "Molecular Formula": "C7H14N2O4S2", "Melting Point": "325 \u00b0C (decomp)"}}