{"cas_no": "498-63-5", "cn_name": "\u5421\u54af\u70f7-2-\u7532\u9187", "en_name": ["Prolinol", "2-Pyrrolidinemethanol", "Prolinol", "2-Hydroxymethylpyrrolidine", "DL-Prolinol", "NSC 367102", "Pyrrolidin-2-ylmethanol"], "SMILES": "C(O)C1CCCN1", "physical_data": {"Molecular Weight": "101.15", "Molecular Formula": "C5H11NO", "Boiling Point": "148-153 \u00b0C @ Press: 12 Torr"}}