{"cas_no": "498-21-5", "cn_name": "\u7532\u57fa\u4e01\u4e8c\u9178", "en_name": ["Methylsuccinic acid", "Butanedioic acid, 2-methyl-", "Succinic acid, methyl-", "Pyrotartaric acid", "Butanedioic acid, methyl-", "2-Methylbutanedioic acid", "1,2-Propanedicarboxylic acid", "Methylsuccinic acid", "2-Methylsuccinic acid", "Methylbutanedioic acid", "DL-\u03b1-Methylsuccinic acid", "DL-Methylsuccinic acid", "(\u00b1)-Methylsuccinic acid", "DL-Methylbutanedioic acid", "R,S-2-Methylbutanedioic acid", "(\u00b1)-\u03b1-Methylsuccinic acid", "(\u00b1)-2-Methylsuccinic acid", "2-Methylbutane-1,4-dioic acid", "NSC 5276"], "SMILES": "C(CC(O)=O)(C(O)=O)C", "physical_data": {"Molecular Weight": "132.11", "Molecular Formula": "C5H8O4", "Boiling Point": "102-106 \u00b0C @ Press: 12 Torr", "Melting Point": "117.5 \u00b0C"}}