{"cas_no": "498-15-7", "cn_name": "(1S)-(+)-3-\u8488\u70ef", "en_name": ["(+)-3-Carene", "Bicyclo[4.1.0]hept-3-ene, 3,7,7-trimethyl-, (1S,6R)-", "3-Carene, (1S,6R)-(+)-", "Bicyclo[4.1.0]hept-3-ene, 3,7,7-trimethyl-, (1S)-", "(1S,6R)-3,7,7-Trimethylbicyclo[4.1.0]hept-3-ene", "Isodiprene", "(+)-3-Carene", "(+)-Carene-3", "(1S,6R)-3-Carene", "(S)-(+)-3-Carene", "(+)-\u03943-Carene", "(1S)-(+)-3-Carene", "(1S)-3-Carene", "(1S,6R)-3,7,7-Trimethylbicyclo[4.1.0]hept-3-ene"], "SMILES": "CC1(C)C2C1CC(C)=CC2", "physical_data": {"Molecular Weight": "136.23", "Molecular Formula": "C10H16", "Boiling Point": "167-170 \u00b0C", "Melting Point": "71-72 \u00b0C", "Density": "0.8561 g/cm\u00b3 @ Temp: 20 \u00b0C"}}