{"cas_no": "498-96-4", "cn_name": "\u53bb\u7532\u69df\u6994\u6b21\u78b1", "en_name": ["Guvacine", "3-Pyridinecarboxylic acid, 1,2,5,6-tetrahydro-", "Nicotinic acid, 1,2,5,6-tetrahydro-", "1,2,5,6-Tetrahydro-3-pyridinecarboxylic acid", "1,2,5,6-Tetrahydronicotinic acid", "Guvacine", "1,2,5,6-Tetrahydropyridine-3-carboxylic acid"], "SMILES": "C(O)(=O)C1=CCCNC1", "physical_data": {"Molecular Weight": "127.14", "Molecular Formula": "C6H9NO2", "Melting Point": "295 \u00b0C (decomp)"}}