{"cas_no": "498-45-3", "cn_name": "\u4e1c\u83a8\u83ea\u9187", "en_name": ["Scopine", "3-Oxa-9-azatricyclo[3.3.1.02,4]nonan-7-ol, 9-methyl-, (1\u03b1,2\u03b2,4\u03b2,5\u03b1,7\u03b2)-", "Scopine", "1\u03b1H,5\u03b1H-Tropan-3\u03b1-ol, 6\u03b2,7\u03b2-epoxy-", "(1\u03b1,2\u03b2,4\u03b2,5\u03b1,7\u03b2)-9-Methyl-3-oxa-9-azatricyclo[3.3.1.02,4]nonan-7-ol", "Scopanol", "6,7-Epoxytropine", "Scopin"], "SMILES": "CN1C2C3C(O3)C1CC(O)C2", "physical_data": {"Molecular Weight": "155.19", "Molecular Formula": "C8H13NO2", "Melting Point": "75-76 \u00b0C"}}