{"cas_no": "498-40-8", "cn_name": "\u78fa\u57fa\u4e19\u6c28\u9178", "en_name": ["L-Cysteic acid", "L-Alanine, 3-sulfo-", "Alanine, 3-sulfo-, L-", "3-Sulfo-L-alanine", "L-Cysteic acid", "Cysteinesulfonic acid", "Cysteic acid", "Cysteinesulfonate", "NSC 254030", "(2R)-2-Amino-3-sulfopropanoic acid"], "SMILES": "C(CS(=O)(=O)O)(C(O)=O)N", "physical_data": {"Molecular Weight": "169.16", "Molecular Formula": "C3H7NO5S", "Melting Point": "245 \u00b0C (decomp)"}}