{"cas_no": "49805-30-3", "cn_name": "2-\u6c2e\u6742\u53cc\u73af[2.2.1]\u5e9a-5-\u70ef-3-\u916e", "en_name": ["(\u00b1)-2-Azabicyclo[2.2.1]hept-5-en-3-one", "2-Azabicyclo[2.2.1]hept-5-en-3-one", "(\u00b1)-2-Azabicyclo[2.2.1]hept-5-en-3-one", "(\u00b1)-Vince lactam", "Vince lactam", "Rac-Vince lactam", "3-Azabicyclo[2.2.1]hept-5-en-2-one"], "SMILES": "O=C1C2CC(N1)C=C2", "physical_data": {"Molecular Weight": "109.13", "Molecular Formula": "C6H7NO", "Melting Point": "50 \u00b0C"}}