{"cas_no": "4981-64-0", "cn_name": "4'-\u6eb4\u82ef\u4e01\u916e", "en_name": ["1-(4-Bromophenyl)-1-butanone", "1-Butanone, 1-(4-bromophenyl)-", "Butyrophenone, 4\u2032-bromo-", "1-(4-Bromophenyl)-1-butanone", "4\u2032-Bromobutyrophenone", "p-Bromobutyrophenone", "NSC 76558"], "SMILES": "C(CCC)(=O)C1=CC=C(Br)C=C1", "physical_data": {"Molecular Weight": "227.10", "Molecular Formula": "C10H11BrO", "Boiling Point": "149-151 \u00b0C @ Press: 13 Torr", "Melting Point": "38-39 \u00b0C"}}