{"cas_no": "4981-63-9", "cn_name": "4'-\u6c2f\u82ef\u4e01\u916e", "en_name": ["1-(4-Chlorophenyl)-1-butanone", "1-Butanone, 1-(4-chlorophenyl)-", "Butyrophenone, 4\u2032-chloro-", "1-(4-Chlorophenyl)-1-butanone", "p-Chlorobutyrophenone", "4\u2032-Chlorobutyrophenone", "4-Chlorophenyl propyl ketone", "p-Chlorophenyl propyl ketone", "Propyl 4-chlorophenyl ketone"], "SMILES": "C(CCC)(=O)C1=CC=C(Cl)C=C1", "physical_data": {"Molecular Weight": "182.65", "Molecular Formula": "C10H11ClO", "Boiling Point": "136-138 \u00b0C @ Press: 22 Torr", "Melting Point": "36 \u00b0C"}}