{"cas_no": "49830-37-7", "cn_name": "1 \u6c28\u57fa \u73af\u620a\u70f7 \u6c30\u57fa( 1-\u6c28\u57fa-1-\u6c30\u57fa \u73af\u620a\u70f7)( 1-\u6c28\u57fa-1-\u6c30\u57fa \u73af\u620a\u70f7)", "en_name": ["1-Aminocyclopentanecarbonitrile", "Cyclopentanecarbonitrile, 1-amino-", "1-Aminocyclopentanecarbonitrile", "1-Amino-1-cyclopentanecarbonitrile"], "SMILES": "C(#N)C1(N)CCCC1", "physical_data": {"Molecular Weight": "110.16", "Molecular Formula": "C6H10N2", "Boiling Point": "60 \u00b0C @ Press: 0.5 Torr"}}