{"cas_no": "4984-85-4", "cn_name": "4-\u7f9f\u57fa-3-\u5df1\u916e", "en_name": ["4-Hydroxy-3-hexanone", "3-Hexanone, 4-hydroxy-", "4-Hydroxy-3-hexanone", "Propionoin", "Propioin", "3-Hydroxy-4-hexanone", "Ethyl \u03b1-hydroxypropyl ketone", "(\u00b1)-4-Hydroxy-3-hexanone", "NSC 23087"], "SMILES": "C(C(CC)=O)(CC)O", "physical_data": {"Molecular Weight": "116.16", "Molecular Formula": "C6H12O2", "Boiling Point": "67-68 \u00b0C @ Press: 10 Torr", "Density": "0.056 g/cm\u00b3 @ Temp: 31 \u00b0C"}}