{"cas_no": "4984-82-1", "cn_name": "\u73af\u620a\u4e8c\u70ef\u57fa\u94a0", "en_name": ["Sodium, 2,4-cyclopentadien-1-yl-", "Sodium, 2,4-cyclopentadien-1-yl-", "Sodium, cyclopentadienyl-", "2,4-Cyclopentadien-1-yl sodium", "Sodium cyclopentadienide", "Sodium cyclopentadienylide", "Cyclopentadienylsodium", "1,3-Cyclopentadiene, sodium salt (1:1)"], "SMILES": "[Na]C1C=CC=C1", "physical_data": {"Molecular Weight": "", "Molecular Formula": "C5H5Na", "Melting Point": "172 \u00b0C"}}