{"cas_no": "49844-90-8", "cn_name": "2-\u7532\u786b\u57fa-4-\u6c2f\u5627\u5576", "en_name": ["4-Chloro-2-(methylthio)pyrimidine", "Pyrimidine, 4-chloro-2-(methylthio)-", "4-Chloro-2-(methylthio)pyrimidine", "4-Chloro-2-(methylsulfanyl)pyrimidine", "2-(Methylthio)-4-chloropyrimidine", "4-Chloro-2-(methylmercapto)pyrimidine", "NSC 100866", "6-Chloro-2-methylthiopyrimidine"], "SMILES": "S(C)C=1N=C(Cl)C=CN1", "physical_data": {"Molecular Weight": "160.62", "Molecular Formula": "C5H5ClN2S", "Boiling Point": "122 \u00b0C @ Press: 18 Torr"}}