{"cas_no": "4985-46-0", "cn_name": "L-\u916a\u6c28\u9170\u80fa", "en_name": ["L-Tyrosinamide", "Benzenepropanamide, \u03b1-amino-4-hydroxy-, (\u03b1S)-", "Tyrosinamide, L-", "Benzenepropanamide, \u03b1-amino-4-hydroxy-, (S)-", "Tyrosinamide", "(\u03b1S)-\u03b1-Amino-4-hydroxybenzenepropanamide", "L-Tyrosinamide", "L-Tyrosine amide", "(S)-2-Amino-3-(4-hydroxyphenyl)propanamide", "(2S)-2-Amino-3-(4-hydroxyphenyl)propanamide"], "SMILES": "C(C(C(N)=O)N)C1=CC=C(O)C=C1", "physical_data": {"Molecular Weight": "180.20", "Molecular Formula": "C9H12N2O2", "Melting Point": "153-154 \u00b0C"}}