{"cas_no": "4985-85-7", "cn_name": "N-(3-\u6c28\u57fa\u4e19\u57fa)\u4e8c\u4e59\u9187\u80fa", "en_name": ["(3-Aminopropyl)diethanolamine", "Ethanol, 2,2\u2032-[(3-aminopropyl)imino]bis-", "Ethanol, 2,2\u2032-[(3-aminopropyl)imino]di-", "2,2\u2032-[(3-Aminopropyl)imino]bis[ethanol]", "N-(3-Aminopropyl)diethanolamine", "N,N-Bis(2-hydroxyethyl)-1,3-propanediamine", "N,N-Di(2-hydroxyethyl)-1,3-propanediamine", "2,2\u2032-[(3-Aminopropyl)imino]diethanol", "(3-Aminopropyl)diethanolamine", "3-[Bis(2-hydroxyethyl)amino]propylamine", "N,N-Bis(2-hydroxyethyl)-1,3-diaminopropane", "N-(3-Aminopropyl)-N,N-bis(2-hydroxyethyl)amine", "N,N-Bis(2-hydroxyethyl)-3-aminopropylamine", "N-3-Aminopropyl-N,N-di(2-hydroxyethyl)amine", "NSC 8172", "2-[(3-Aminopropyl)(2-hydroxyethyl)amino]ethanol", "(3-Aminopropyl)bis(2-hydroxyethyl)amine", "[3-(Diethanolamino)propyl]amine", "N-(3-Aminopropyl)-N,N-diethanolamine.", "3-[N,N-(Diethanol)amino]propylamine", "N-(3-Aminopropyl)-3-azapentane-1,5-diol", "2-[(3-Aminopropyl)(2-hydroxyethyl)amino]ethan-1-ol", "2,2\u2032-[(3-aminopropyl)azanediyl]bis(ethanol)"], "SMILES": "N(CCCN)(CCO)CCO", "physical_data": {"Molecular Weight": "162.23", "Molecular Formula": "C7H18N2O2", "Boiling Point": "158 \u00b0C @ Press: 2 Torr"}}