{"cas_no": "499-75-2", "cn_name": "\u9999\u82b9\u915a", "en_name": ["Carvacrol", "Phenol, 2-methyl-5-(1-methylethyl)-", "Carvacrol", "2-Methyl-5-(1-methylethyl)phenol", "Antioxine", "p-Cymen-2-ol", "2-Hydroxy-p-cymene", "2-Methyl-5-isopropylphenol", "5-Isopropyl-2-methylphenol", "5-Isopropyl-o-cresol", "6-Methyl-3-isopropylphenol", "2-Hydroxy-1-methyl-4-(1-methylethyl)benzene", "3-Isopropyl-6-methylphenol", "Isopropyl o-cresol", "Isothymol", "NSC 6188", "Dentol", "2-Methyl-5-(propan-2-yl)phenol"], "SMILES": "C(C)(C)C1=CC(O)=C(C)C=C1", "physical_data": {"Molecular Weight": "150.22", "Molecular Formula": "C10H14O", "Boiling Point": "237-238 \u00b0C @ Press: 760 Torr", "Melting Point": "1 \u00b0C", "Density": "0.976 g/cm\u00b3 @ Temp: 20 \u00b0C"}}