{"cas_no": "499-12-7", "cn_name": "\u4e19\u70ef-1,2,3-\u4e09\u7fa7\u9178", "en_name": ["Aconitic acid", "1-Propene-1,2,3-tricarboxylic acid", "Achilleaic acid", "Achilleic acid", "Aconitic acid", "Citridic acid", "Citridinic acid", "Equisetic acid", "3-Carboxyglutaconic acid", "Pyrocitric acid", "2-Pentenedioic acid, 3-carboxy-", "NSC 7616", "MeSH ID: D000156"], "SMILES": "C(CC(O)=O)(=CC(O)=O)C(O)=O", "physical_data": {"Molecular Weight": "174.11", "Molecular Formula": "C6H6O6", "Melting Point": "194-195 \u00b0C (decomp)"}}