{"cas_no": "499-49-0", "cn_name": "5-\u7532\u57fa\u95f4\u82ef\u4e8c\u9178", "en_name": ["5-Methyl-1,3-benzenedicarboxylic acid", "1,3-Benzenedicarboxylic acid, 5-methyl-", "Isophthalic acid, 5-methyl-", "5-Methyl-1,3-benzenedicarboxylic acid", "Uvitic acid", "5-Methylisophthalic acid", "NSC 41436"], "SMILES": "C(O)(=O)C1=CC(C(O)=O)=CC(C)=C1", "physical_data": {"Molecular Weight": "180.16", "Molecular Formula": "C9H8O4", "Melting Point": "298 \u00b0C"}}