{"cas_no": "499-02-5", "cn_name": "3-\u4e9a\u7532\u57fa\u73af\u4e19\u70f7-\u53cd-1,2-\u4e8c\u7fa7\u9178", "en_name": ["rel-(1R,2R)-3-Methylene-1,2-cyclopropanedicarboxylic acid", "1,2-Cyclopropanedicarboxylic acid, 3-methylene-, (1R,2R)-rel-", "Feist's acid", "1,2-Cyclopropanedicarboxylic acid, 3-methylene-, trans-", "rel-(1R,2R)-3-Methylene-1,2-cyclopropanedicarboxylic acid", "3-Methylenecyclopropane-trans-1,2-dicarboxylic acid", "trans-3-Methylenecyclopropane-1,2-dicarboxylic acid"], "SMILES": "C(O)(=O)C1C(C(O)=O)C1=C", "physical_data": {"Molecular Weight": "142.11", "Molecular Formula": "C6H6O4", "Boiling Point": "90-100 \u00b0C @ Press: 0.03 Torr", "Melting Point": "200 \u00b0C", "Density": "1.45 g/cm\u00b3"}}