{"cas_no": "499-04-7", "cn_name": "\u69df\u6994\u6b21\u78b1", "en_name": ["Arecaidine", "3-Pyridinecarboxylic acid, 1,2,5,6-tetrahydro-1-methyl-", "Nicotinic acid, 1,2,5,6-tetrahydro-1-methyl-", "Arecaidine", "1,2,5,6-Tetrahydro-1-methyl-3-pyridinecarboxylic acid", "N-Methylguvacine", "NSC 76017", "Arecaine", "1-Methyl-1,2,5,6-tetrahydropyridine-3-carboxylic acid", "1-Methyl-1,2,5,6-tetrahydropyridine-3-carboxylicacid", "1-Methyl-1,2,5,6-tetrahydro-pyridine-3-carboxylic acid"], "SMILES": "C(O)(=O)C=1CN(C)CCC1", "physical_data": {"Molecular Weight": "141.17", "Molecular Formula": "C7H11NO2", "Boiling Point": "104-112 \u00b0C @ Press: 14-16 Torr", "Melting Point": "232 \u00b0C (decomp)"}}