{"cas_no": "499-76-3", "cn_name": "4-\u7f9f\u57fa-3-\u7532\u57fa\u82ef\u7532\u9178", "en_name": ["4-Hydroxy-3-methylbenzoic acid", "Benzoic acid, 4-hydroxy-3-methyl-", "4,3-Cresotic acid", "4-Hydroxy-3-methylbenzoic acid", "3-Methyl-4-hydroxybenzoic acid"], "SMILES": "C(O)(=O)C1=CC(C)=C(O)C=C1", "physical_data": {"Molecular Weight": "152.15", "Molecular Formula": "C8H8O3", "Boiling Point": "112 \u00b0C @ Press: 1 Torr", "Melting Point": "172-174 \u00b0C"}}