{"cas_no": "499-78-5", "cn_name": "5-\u7f9f\u57fa-4-\u6c27-4H-2-\u7fa7\u9178", "en_name": ["Comenic acid", "4H-Pyran-2-carboxylic acid, 5-hydroxy-4-oxo-", "5-Hydroxy-4-oxo-4H-pyran-2-carboxylic acid", "Comenic acid", "2-Carboxy-5-hydroxy-4-pyrone", "5-Hydroxy-4-pyrone-2-carboxylic acid"], "SMILES": "C(O)(=O)C1=CC(=O)C(O)=CO1", "physical_data": {"Molecular Weight": "156.09", "Molecular Formula": "C6H4O5", "Melting Point": "260-261 \u00b0C"}}