{"cas_no": "499-40-1", "cn_name": "\u5f02\u9ea6\u82bd\u7cd6", "en_name": ["Isomaltose", "D-Glucose, 6-O-\u03b1-D-glucopyranosyl-", "Isomaltose", "6-O-\u03b1-D-Glucopyranosyl-D-glucose", "D-Isomaltose", "MeSH ID: D007534"], "SMILES": "O(CC(C(C(C(C=O)O)O)O)O)C1OC(CO)C(O)C(O)C1O", "physical_data": {"Molecular Weight": "342.30", "Molecular Formula": "C12H22O11", "Melting Point": "120 \u00b0C"}}