{"cas_no": "499-44-5", "cn_name": "\u6867\u6728\u9187", "en_name": ["Hinokitiol", "2,4,6-Cycloheptatrien-1-one, 2-hydroxy-4-(1-methylethyl)-", "2,4,6-Cycloheptatrien-1-one, 2-hydroxy-4-isopropyl-", "2-Hydroxy-4-(1-methylethyl)-2,4,6-cycloheptatrien-1-one", "Hinokitiol", "2-Hydroxy-4-isopropyl-2,4,6-cycloheptatrien-1-one", "4-Isopropyltropolone", "\u03b2-Thujaplicin", "\u03b2-Thujaplicine", "\u03b2-Isopropyltropolon", "IPT", "6-Isopropyltropolone", "Hyka 1", "S-HT", "HT-SF", "NSC 18804", "Kisei Pro-Sol N", "Hinokitiol S-HT", "beta-Thujaplicin", "beta-Thujaplicine", "H 0142", "2-Hydroxy-6-propan-2-ylcyclohepta-2,4,6-trien-1-one", "2-Hydroxy-6-(propan-2-yl)cyclohepta-2,4,6-trien-1-one", "2-Hydroxy-4-(propan-2-yl)cyclohepta-2,4,6-trien-1-one"], "SMILES": "C(C)(C)C=1C=C(O)C(=O)C=CC1", "physical_data": {"Molecular Weight": "164.20", "Molecular Formula": "C10H12O2", "Melting Point": "52-52.5 \u00b0C", "Density": "1.21 g/cm\u00b3"}}