{"cas_no": "499-06-9", "cn_name": "3,5-\u4e8c\u7532\u57fa\u82ef\u7532\u9178", "en_name": ["3,5-Dimethylbenzoic acid", "Benzoic acid, 3,5-dimethyl-", "3,5-Dimethylbenzoic acid", "Mesitylenic acid", "NSC 37562"], "SMILES": "C(O)(=O)C1=CC(C)=CC(C)=C1", "physical_data": {"Molecular Weight": "150.17", "Molecular Formula": "C9H10O2", "Melting Point": "171.1 \u00b0C"}}