{"cas_no": "499-81-0", "cn_name": "3,5-\u5421\u5576\u4e8c\u7532\u9178", "en_name": ["3,5-Pyridinedicarboxylic acid", "3,5-Pyridinedicarboxylic acid", "Dinicotinic acid", "5-Carboxynicotinic acid", "3,5-Pyridinedicarboxylate", "NSC 6497"], "SMILES": "C(O)(=O)C=1C=C(C(O)=O)C=NC1", "physical_data": {"Molecular Weight": "167.12", "Molecular Formula": "C7H5NO4", "Melting Point": "324 \u00b0C"}}