{"cas_no": "499-61-6", "cn_name": "2-\u6c28\u57fa-1-(3,4-\u4e8c\u7f9f\u57fa\u82ef\u57fa)\u4e59\u70f7-1-\u916e", "en_name": ["2-Amino-1-(3,4-dihydroxyphenyl)ethanone", "Ethanone, 2-amino-1-(3,4-dihydroxyphenyl)-", "Acetophenone, 2-amino-3\u2032,4\u2032-dihydroxy-", "2-Amino-1-(3,4-dihydroxyphenyl)ethanone", "Arterenone", "Noradrenalone", "U 0603", "Arterenon", "2-Amino-3\u2032,4\u2032-dihydroxyacetophenone", "2-Amino-1-(3,4-dihydroxyphenyl)ethan-1-one"], "SMILES": "C(CN)(=O)C1=CC(O)=C(O)C=C1", "physical_data": {"Molecular Weight": "167.16", "Molecular Formula": "C8H9NO3", "Melting Point": "235 \u00b0C (decomp)"}}