{"cas_no": "499-83-2", "cn_name": "\u5421\u5576-2,6-\u4e8c\u7532\u9178", "en_name": ["2,6-Pyridinedicarboxylic acid", "2,6-Pyridinedicarboxylic acid", "Dipicolinic acid", "DPAc", "2,6-Dicarboxypyridine", "2,6-Dipicolinic acid", "DPA", "6-Carboxypicolinic acid", "NSC 176", "Pyridine-2,6-diformic acid", "Pyridine-2,6-dicarboxylic acid", "2,6-PDA"], "SMILES": "C(O)(=O)C=1N=C(C(O)=O)C=CC1", "physical_data": {"Molecular Weight": "167.12", "Molecular Formula": "C7H5NO4", "Melting Point": "249 \u00b0C (decomp)"}}