{"cas_no": "499-20-7", "cn_name": "\u8700\u9ecd\u82f7", "en_name": ["Dhurrin", "Benzeneacetonitrile, \u03b1-(\u03b2-D-glucopyranosyloxy)-4-hydroxy-, (\u03b1S)-", "Dhurrin", "Benzeneacetonitrile, \u03b1-(\u03b2-D-glucopyranosyloxy)-4-hydroxy-, (S)-", "Glucoside, \u03b1-cyano-p-hydroxybenzyl", "(\u03b1S)-\u03b1-(\u03b2-D-Glucopyranosyloxy)-4-hydroxybenzeneacetonitrile", "(S)-\u03b1-Cyano-p-hydroxybenzyl glucoside"], "SMILES": "O(C(C#N)C1=CC=C(O)C=C1)C2OC(CO)C(O)C(O)C2O", "physical_data": {"Molecular Weight": "311.29", "Molecular Formula": "C14H17NO7", "Melting Point": "200 \u00b0C (decomp)"}}