{"cas_no": "499-80-9", "cn_name": "2,4-\u5421\u5576\u4e8c\u7fa7\u9178", "en_name": ["2,4-Pyridinedicarboxylic acid", "2,4-Pyridinedicarboxylic acid", "Lutidinic acid", "2,4-Dicarboxylpyridine", "2,4-Lutidinic acid", "NSC 403248"], "SMILES": "C(O)(=O)C=1C=C(C(O)=O)N=CC1", "physical_data": {"Molecular Weight": "167.12", "Molecular Formula": "C7H5NO4", "Melting Point": "249 \u00b0C"}}