{"cas_no": "4991-65-5", "cn_name": "\u567b\u514b\u7d22\u916e", "en_name": ["6-Hydroxy-1,3-benzoxathiol-2-one", "1,3-Benzoxathiol-2-one, 6-hydroxy-", "6-Hydroxy-1,3-benzoxathiol-2-one", "6-Hydroxy-2-oxo-1,3-benzoxathiole", "6-Hydroxy-2-oxobenzoxathiole", "Acnosan", "Camyna", "OL 110", "Stepin", "Thidoxol", "Thioxolon", "Tioxolon", "Thioxolone", "Acnosan (antiseborrheic)", "Tioxolone", "6-Hydroxybenz[d]oxathiol-2-one", "6-(Hydroxy)benzo[d][1,3]oxathiol-2-one"], "SMILES": "O=C1SC=2C(O1)=CC(O)=CC2", "physical_data": {"Molecular Weight": "168.17", "Molecular Formula": "C7H4O3S", "Melting Point": "160 \u00b0C"}}