{"cas_no": "4991-47-3", "cn_name": "\u4e8c\u68d5\u6988\u9178\u950c\u916f", "en_name": ["Zinc palmitate", "Hexadecanoic acid, zinc salt (2:1)", "Palmitic acid, zinc salt", "Zinc palmitate", "Hexadecanoic acid, zinc salt", "Zinc hexadecanoate", "ZS 16"], "SMILES": "C(CCCCCCCCCC)CCCCC(O)=O.[Zn]", "physical_data": {"Molecular Weight": "", "Molecular Formula": "C16H32O2.<sup>1</sup>/2Zn", "Melting Point": "131.7 \u00b0C", "Density": "1.14 g/cm\u00b3"}}