{"cas_no": "4992-63-6", "cn_name": "3,4-\u4e8c\u4e59\u6c27\u57fa\u785d\u57fa\u82ef", "en_name": ["1,2-Diethoxy-4-nitrobenzene", "Benzene, 1,2-diethoxy-4-nitro-", "1,2-Diethoxy-4-nitrobenzene", "1,2-Ethoxy-4-nitrobenzene", "3,4-Diethoxynitrobenzene"], "SMILES": "O(CC)C1=C(OCC)C=CC(N(=O)=O)=C1", "physical_data": {"Molecular Weight": "211.21", "Molecular Formula": "C10H13NO4", "Melting Point": "75 \u00b0C"}}