{"cas_no": "4994-16-5", "cn_name": "4-\u82ef\u57fa-1-\u73af\u5df1\u70ef", "en_name": ["4-Phenylcyclohexene", "Benzene, 3-cyclohexen-1-yl-", "3-Cyclohexen-1-ylbenzene", "4-Phenylcyclohexene", "4-Phenyl-1-cyclohexene"], "SMILES": "C1(CCC=CC1)C2=CC=CC=C2", "physical_data": {"Molecular Weight": "158.24", "Molecular Formula": "C12H14", "Boiling Point": "98-105 \u00b0C @ Press: 11 Torr", "Density": "0.9715 g/cm\u00b3 @ Temp: 20 \u00b0C"}}