{"cas_no": "4996-22-9", "cn_name": "4-\u785d\u57fa\u82ef\u7532\u9170\u7532\u919b\u4e00\u6c34\u5408\u7269", "en_name": ["2,2-Dihydroxy-1-(4-nitrophenyl)ethanone", "Ethanone, 2,2-dihydroxy-1-(4-nitrophenyl)-", "Acetophenone, 2,2-dihydroxy-4\u2032-nitro-", "2,2-Dihydroxy-1-(4-nitrophenyl)ethanone", "NSC 131639", "(4-Nitrophenyl)glyoxal monohydrate", "(4-Nitrophenyl)glyoxal hydrate"], "SMILES": "C(C(O)O)(=O)C1=CC=C(N(=O)=O)C=C1", "physical_data": {"Molecular Weight": "197.14", "Molecular Formula": "C8H7NO5", "Melting Point": "90-91 \u00b0C"}}