{"cas_no": "499769-92-5", "cn_name": "3-\u6eb4\u567b\u5429-5-\u787c\u9178", "en_name": ["B-(4-Bromo-2-thienyl)boronic acid", "Boronic acid, B-(4-bromo-2-thienyl)-", "Boronic acid, (4-bromo-2-thienyl)-", "B-(4-Bromo-2-thienyl)boronic acid", "3-Bromothiophene-5-boronic acid", "4-Bromo-2-thienylboronic acid", "(4-Bromothiophen-2-yl)boronic acid"], "SMILES": "B(O)(O)C1=CC(Br)=CS1", "physical_data": {"Molecular Weight": "206.85", "Molecular Formula": "C4H4BBrO2S", "Melting Point": "136-138 \u00b0C"}}