{"cas_no": "4998-76-9", "cn_name": "\u76d0\u9178\u73af\u5df1\u80fa", "en_name": ["Cyclohexylamine, hydrochloride", "Cyclohexanamine, hydrochloride (1:1)", "Cyclohexylamine, hydrochloride", "Cyclohexanamine, hydrochloride", "Cyclohexylammonium chloride"], "SMILES": "NC1CCCCC1.Cl", "physical_data": {"Molecular Weight": "", "Molecular Formula": "C6H13N.ClH", "Melting Point": "204-205 \u00b0C"}}