{"cas_no": "4998-07-6", "cn_name": "6-\u785d\u57fa\u85dc\u82a6\u9178", "en_name": ["4,5-Dimethoxy-2-nitrobenzoic acid", "Benzoic acid, 4,5-dimethoxy-2-nitro-", "Veratric acid, 6-nitro-", "4,5-Dimethoxy-2-nitrobenzoic acid", "6-Nitroveratric acid", "2-Nitro-4,5-dimethoxybenzoic acid", "3,4-Dimethoxy-6-nitrobenzoic acid"], "SMILES": "C(O)(=O)C1=C(N(=O)=O)C=C(OC)C(OC)=C1", "physical_data": {"Molecular Weight": "227.17", "Molecular Formula": "C9H9NO6", "Melting Point": "187-188 \u00b0C"}}