{"cas_no": "4998-57-6", "cn_name": "DL-\u7ec4\u6c28\u9178", "en_name": ["DL-Histidine", "Histidine", "Histidine, DL-", "DL-Histidine", "(\u00b1)-Histidine", "1H-Imidazole-4-alanine", "2-Amino-3-(1H-imidazol-5-yl)propanoic acid", "2-Amino-3-(5-imidazolyl)propanoic acid", "2-Amino-3-(1H-imidazol-4-yl)propanoic acid"], "SMILES": "C(C(C(O)=O)N)C1=CN=CN1", "physical_data": {"Molecular Weight": "155.15", "Molecular Formula": "C6H9N3O2", "Melting Point": "287 \u00b0C (decomp)"}}