{"cas_no": "50-01-1", "cn_name": "\u76d0\u9178\u80cd", "en_name": ["Guanidine hydrochloride", "Guanidine, hydrochloride (1:1)", "Guanidine, monohydrochloride", "Guanidinium chloride", "Guanidine chloride", "Guanidinium hydrochloride", "Guanidine hydrochloride", "Buffer AL"], "SMILES": "C(=N)(N)N.Cl", "physical_data": {"Molecular Weight": "", "Molecular Formula": "CH5N3.ClH", "Melting Point": "178 \u00b0C", "Density": "1.3 g/cm\u00b3"}}