{"cas_no": "50-03-3", "cn_name": "\u918b\u9178\u6c22\u5316\u53ef\u7684\u677e", "en_name": ["Hydrocortisone acetate", "Pregn-4-ene-3,20-dione, 21-(acetyloxy)-11,17-dihydroxy-, (11\u03b2)-", "Cortisol acetate", "Cortisol, 21-acetate", "(11\u03b2)-21-(Acetyloxy)-11,17-dihydroxypregn-4-ene-3,20-dione", "21-Acetoxy-11\u03b2,17\u03b1-dihydroxypregn-4-ene-3,20-dione", "Cortef acetate", "Cortril acetate", "HA", "Hycortole acetate", "Hydrin 2", "Hydrocortisat", "Hydrocortisone 21-acetate", "Hydrocortisone acetate", "Hydrocortone acetate", "17-Hydroxycorticosterone 21-acetate", "Isopto-Hydrocortisone", "Pabracort", "11\u03b2,17\u03b1,21-Trihydroxypregn-4-ene-3,20-dione 21-acetate", "Hydroxycorticosterone acetate", "21-Acetoxy-11\u03b2,17-dihydroxypregn-4-ene-3,20-dione", "21-Acetoxy-11\u03b2,17-dihydroxypregn-4-en-3,20-dione", "Hydrocortistab", "17\u03b1-Hydroxycorticosterone acetate", "Abbocort", "Bambicort", "Berlison F", "Biocortar", "Chemysone", "Cortacream", "Cortell", "Wycort", "Proctocort", "Velopural", "Hc 45", "Lenirit", "Sigmacort", "Cortaid", "Sintotrat", "Colifoam", "Cortril acetate AS", "Colofoam", "Efcolin", "CaldeCort", "Hydrocal", "Anusol HC", "Cordes", "Cortifoam", "Lanacort", "NSC 741", "Corticaine", "Hydrocort acetate", "4-Pregnene-11\u03b2,17,21-triol-3,20-dione 21-acetate"], "SMILES": "CC12C(C3C(C(O)C1)C4(C)C(CC3)=CC(=O)CC4)CCC2(C(COC(C)=O)=O)O", "physical_data": {"Molecular Weight": "404.50", "Molecular Formula": "C23H32O6", "Melting Point": "223 \u00b0C (decomp)"}}