{"cas_no": "50-02-2", "cn_name": "\u5730\u585e\u7c73\u677e", "en_name": ["Dexamethasone", "Pregna-1,4-diene-3,20-dione, 9-fluoro-11,17,21-trihydroxy-16-methyl-, (11\u03b2,16\u03b1)-", "Pregna-1,4-diene-3,20-dione, 9-fluoro-11\u03b2,17,21-trihydroxy-16\u03b1-methyl-", "(11\u03b2,16\u03b1)-9-Fluoro-11,17,21-trihydroxy-16-methylpregna-1,4-diene-3,20-dione", "MK 125", "Corsone", "Decaderm", "Decadron", "Decasone", "1-Dehydro-16\u03b1-methyl-9\u03b1-fluorohydrocortisone", "Dergramin", "Deronil", "Desadrene", "Dexacort", "Dexa-Cortidelt", "Dexadeltone", "Dexameth", "Dexamethasone", "Dextelan", "9\u03b1-Fluoro-16\u03b1-methylprednisolone", "9\u03b1-Fluoro-16\u03b1-methyl-1,4-pregnadiene-11\u03b2,17\u03b1,21-triol-3,20-dione", "9\u03b1-Fluoro-16\u03b1-methyl-11\u03b2,17,21-trihydroxypregna-1,4-diene-3,20-dione", "9-Fluoro-11\u03b2,17,21-trihydroxy-16\u03b1-methylpregna-1,4-diene-3,20-dione", "9\u03b1-Fluoro-11\u03b2,17\u03b1,21-trihydroxy-16\u03b1-methyl-1,4-pregnadiene-3,20-dione", "Gammacorten", "Hexadecadrol", "Hexadrol", "16\u03b1-Methyl-9\u03b1-fluoro-\u03941-hydrocortisone", "16\u03b1-Methyl-9\u03b1-fluoroprednisolone", "16\u03b1-Methyl-9\u03b1-fluoro-1,4-pregnadiene-11\u03b2,17\u03b1,21-triol-3,20-dione", "16\u03b1-Methyl-9\u03b1-fluoro-11\u03b2,17\u03b1,21-trihydroxypregna-1,4-diene-3,20-dione", "Maxidex", "Millicorten", "Oradexon", "Superprednol", "Deltafluorene", "Dexamethasone alcohol", "Dexason", "Prednisolon F", "Dexa-Scheroson", "Dexalona", "Aphtasolon", "Desameton", "Calonat", "Dekacort", "Visumetazone", "Prednisolone F", "Dexapolcort", "Azium", "HL-Dex", "Fluorocort", "Dexaprol", "Dexaltin", "Aphthasolone", "Dexasone", "Dexonium", "Luxazone", "Decalix", "Lokalison F", "Dexa-sine", "Aeroseb-Dex", "Dinormon", "Pet-Derm III", "Deseronil", "Dexacortal", "Dexafarma", "Dexapos", "Dexacortin", "Cortisumman", "Loverine", "Dexinoral", "Fluormone", "Dexamonozon", "Isopto-Dex", "Dexa-Mamallet", "Decacort", "Adexone", "NSC 34521", "Decadron A", "Delipos", "Gentalipos", "Surodex", "Etacortilen", "Dexone", "Diodex", "Posurdex", "Dexmethsone", "Dekort", "Ozurdex", "Dexaratiopharm", "Dexaven", "Dexium", "Minidex", "Fluormethylprednisolone", "DEX", "Oftan", "Neofordex", "AVM 0703", "De-Sone LA", "Dxevo", "Dextenza", "24: PN: US20220380460 SEQID: 25 claimed sequence", "MeSH ID: D003907"], "SMILES": "FC12C(C3C(C)(CC1O)C(C(CO)=O)(O)C(C)C3)CCC=4C2(C)C=CC(=O)C4", "physical_data": {"Molecular Weight": "392.46", "Molecular Formula": "C22H29FO5", "Melting Point": "262-264 \u00b0C"}}