{"cas_no": "50-04-4", "cn_name": "\u918b\u9178\u53ef\u7684\u677e", "en_name": ["Cortisone, 21-acetate", "Pregn-4-ene-3,11,20-trione, 21-(acetyloxy)-17-hydroxy-", "Cortisone, 21-acetate", "Pregn-4-ene-3,11,20-trione, 17,21-dihydroxy-, 21-acetate", "21-Acetoxy-17\u03b1-hydroxypregn-4-ene-3,11,20-trione", "21-Acetoxy-17\u03b1-hydroxy-3,11,20-triketopregnene-4", "Artriona", "Biocort Acetate", "Compound E Acetate", "Cortelan", "Cortisone acetate", "Cortistab", "Cortisyl", "Cortone acetate", "17,21-Dihydroxypregn-4-ene-3,11,20-trione 21 acetate", "Irisone acetate", "4-Pregnene-17a,21-diol-3,11,20-trione 21-acetate", "Ricortex", "Adreson", "21-Acetoxy-17-hydroxypregn-4-ene-3,11,20-trione", "Incortin", "Scheroson", "Corlin", "Cortadren", "Cortisyl Artriona", "NSC 49420"], "SMILES": "CC12C(C3C(C(=O)C1)C4(C)C(CC3)=CC(=O)CC4)CCC2(C(COC(C)=O)=O)O", "physical_data": {"Molecular Weight": "402.48", "Molecular Formula": "C23H30O6", "Melting Point": "222 \u00b0C"}}