{"cas_no": "50-00-0", "cn_name": "\u7532\u919b", "en_name": ["Formaldehyde", "Formaldehyde", "BFV", "Fannoform", "Formalin", "Formalith", "Formic aldehyde", "Formol", "Fyde", "Methanal", "Methyl aldehyde", "Methylene oxide", "Oxomethane", "Oxymethylene", "Superlysoform", "Lysoform", "Morbicid", "Paraform", "Methaldehyde", "Floguard 1015", "FM 282", "F-gen", "Fordor", "NSC 298885", "Formalin LM", "Optilyse", "Formalin Taisei", "Formaldehyde-12C", "FS 850A", "Sigma-F 8775", "MeSH ID: D005557"], "SMILES": "C=O", "physical_data": {"Molecular Weight": "30.03", "Molecular Formula": "CH2O", "Boiling Point": "-19.5 \u00b0C", "Melting Point": "-92 \u00b0C", "Density": "0.8 g/cm\u00b3"}}