{"cas_no": "50-06-6", "cn_name": "\u82ef\u5df4\u6bd4\u59a5", "en_name": ["Phenobarbital", "2,4,6(1H,3H,5H)-Pyrimidinetrione, 5-ethyl-5-phenyl-", "Barbituric acid, 5-ethyl-5-phenyl-", "5-Ethyl-5-phenyl-2,4,6(1H,3H,5H)-pyrimidinetrione", "Adonal", "Agrypnal", "Amylofene", "Barbenyl", "Barbiphenyl", "Barbipil", "Barbita", "Barbivis", "Blu-phen", "Dormiral", "Doscalun", "Duneryl", "Eskabarb", "5-Ethyl-5-phenylbarbituric acid", "Etilfen", "Euneryl", "Fenemal", "Gardenal", "Gardepanyl", "Lepinal", "Liquital", "Lixophen", "Luminal", "Neurobarb", "Noptil", "Nunol", "Phenemal", "Phenobarbital", "Phenobarbitone", "Phenoluric", "Phenonyl", "Phenylethylbarbituric acid", "5-Phenyl-5-ethylbarbituric acid", "Phenylethylmalonylurea", "Phob", "Somonal", "Stental Extentabs", "Teolaxin", "Triphenatol", "Versomnal", "Sevenal", "Phenobarbituric acid", "Lepinaletten", "Lubergal", "Phenyral", "Cratecil", "Hysteps", "Phenaemal", "Sedonal", "Sedophen", "Phenobar", "Talpheno", "Solfoton", "NSC 128143", "NSC 9848", "Fenemal recip", "Luminalum", "5-Ethyl-5-phenyl-1,3-diazinane-2,4,6-trione", "MeSH ID: D010634"], "SMILES": "C(C)C1(C(=O)NC(=O)NC1=O)C2=CC=CC=C2", "physical_data": {"Molecular Weight": "232.24", "Molecular Formula": "C12H12N2O3", "Melting Point": "174-178 \u00b0C", "Density": "0.7 g/cm\u00b3"}}