{"cas_no": "50-07-7", "cn_name": "\u4e1d\u88c2\u9709\u7d20 C", "en_name": ["Mitomycin C", "Azirino[2\u2032,3\u2032:3,4]pyrrolo[1,2-a]indole-4,7-dione, 6-amino-8-[[(aminocarbonyl)oxy]methyl]-1,1a,2,8,8a,8b-hexahydro-8a-methoxy-5-methyl-, (1aS,8S,8aR,8bS)-", "Mitomycin C", "Azirino[2\u2032,3\u2032:3,4]pyrrolo[1,2-a]indole-4,7-dione, 6-amino-1,1a,2,8,8a,8b-hexahydro-8-(hydroxymethyl)-8a-methoxy-5-methyl-, carbamate (ester)", "Azirino[2\u2032,3\u2032:3,4]pyrrolo[1,2-a]indole-4,7-dione, 6-amino-8-[[(aminocarbonyl)oxy]methyl]-1,1a,2,8,8a,8b-hexahydro-8a-methoxy-5-methyl-, [1aS-(1a\u03b1,8\u03b2,8a\u03b1,8b\u03b1)]-", "(1aS,8S,8aR,8bS)-6-Amino-8-[[(aminocarbonyl)oxy]methyl]-1,1a,2,8,8a,8b-hexahydro-8a-methoxy-5-methylazirino[2\u2032,3\u2032:3,4]pyrrolo[1,2-a]indole-4,7-dione", "Ametycine", "NSC 26980", "Mitomycin", "MitoExtra", "Mitonco", "Mitoplus", "MMC", "Mitocin C", "Mutamycin", "Mytomycin Kyowa S", "Mitozytrex", "MeSH ID: D016685"], "SMILES": "O(C)C12N(C3=C(C1COC(N)=O)C(=O)C(N)=C(C)C3=O)CC4C2N4", "physical_data": {"Molecular Weight": "334.33", "Molecular Formula": "C15H18N4O5", "Boiling Point": "534 \u00b0C", "Melting Point": "&gt;360 \u00b0C"}}