{"cas_no": "50-18-0", "cn_name": "\u73af\u78f7\u9170\u80fa", "en_name": ["Cyclophosphamide", "2H-1,3,2-Oxazaphosphorin-2-amine, N,N-bis(2-chloroethyl)tetrahydro-, 2-oxide", "2H-1,3,2-Oxazaphosphorine, 2-[bis(2-chloroethyl)amino]tetrahydro-, 2-oxide", "B 518", "NSC 26271", "Bis(2-chloroethyl)phosphoramide cyclic propanolamide ester", "N,N-Bis(2-chloroethyl)-N\u2032,O-propylenephosphoric acid ester diamide", "N,N-Bis(\u03b2-chloroethyl)-N\u2032,O-trimethylenephosphoric acid ester diamide", "Cyclophosphamid", "Cyclophosphamide", "Cyclophosphan", "Cyclophosphane", "Cytoxan", "Endoxan", "Genoxal", "Clafen", "Cytophosphan", "Claphene", "Asta B 518", "2-[Bis(2-chloroethyl)amino]tetrahydro-2H-1,3,2-oxazaphosphorin 2-oxide", "Procytox", "Sendoxan", "(\u00b1)-Cyclophosphamide", "(RS)-Cyclophosphamide", "Cyclostin", "Cycloblastin", "Neosar", "Neosar (antineoplastic)", "Endoxanal", "CP", "Senduxan", "Zyklophosphamid", "NCI C04900", "Endoxan R", "Endoxan-Asta", "Endoxana", "Mitoxan", "Endoxane", "Enduxan", "CB 4564", "SK 20501", "CPA", "CY", "Hexadrin", "Cyclophosphamidum", "CTX", "Semdoxan", "Revimmune", "Ledoxan", "Cytophosphane", "Eldamide", "Neophos", "Cyphos", "Cydoxan", "Cycrame", "Oncomide", "Cyclocel", "Cycloxan", "MeSH ID: D003520"], "SMILES": "N(CCCl)(CCCl)P1(=O)NCCCO1", "physical_data": {"Molecular Weight": "261.09", "Molecular Formula": "C7H15Cl2N2O2P", "Melting Point": "49.5-53 \u00b0C"}}