{"cas_no": "50-14-6", "cn_name": "\u7ef4\u751f\u7d20D2", "en_name": ["(+)-Vitamin D2", "Cyclohexanol, 4-methylene-3-[(2E)-2-[(1R,3aS,7aR)-octahydro-7a-methyl-1-[(1R,2E,4R)-1,4,5-trimethyl-2-hexen-1-yl]-4H-inden-4-ylidene]ethylidene]-, (1S,3Z)-", "Ergocalciferol", "9,10-Secoergosta-5,7,10(19),22-tetraen-3-ol, (3\u03b2,5Z,7E,22E)-", "Cyclohexanol, 4-methylene-3-[2-[tetrahydro-7a-methyl-1-(1,4,5-trimethyl-2-hexenyl)-4(3aH)-indanylidene]ethylidene]-", "(1S,3Z)-4-Methylene-3-[(2E)-2-[(1R,3aS,7aR)-octahydro-7a-methyl-1-[(1R,2E,4R)-1,4,5-trimethyl-2-hexen-1-yl]-4H-inden-4-ylidene]ethylidene]cyclohexanol", "D-Arthin", "Calciferol", "Condocaps", "Condol", "Crystallina", "Davitamon D", "Davitin", "Decaps", "Dee-Osterol", "Dee-Ron", "Dee-Ronal", "Deratol", "Deltalin", "Detalup", "Diactol", "Divit urto", "Doral", "Drisdol", "Ergorone", "Ertron", "Fortodyl", "Geltabs", "Hi-Deratol", "Infron", "Mulsiferol", "Mykostin", "Oleovitamin D2", "Ostelin", "Metadee", "Radiostol", "Radsterin", "Shock-ferol", "Viosterol", "Vitavel-D", "Vitamin D2", "9,10-Secoergosta-5,7,10(19),22-tetraen-3\u03b2-ol", "Buco-D", "Rodine C", "(+)-Vitamin D2", "D-Tracetten", "Osteil", "De-Rat Concentrate", "Sterogyl", "Oleovitamin D", "Mina D2", "Uvesterol D", "Vio D", "NSC 62792", "Ercalciol"], "SMILES": "CC12C(C(=CC=C3C(=C)CCC(O)C3)CCC1)CCC2C(C=CC(C(C)C)C)C", "physical_data": {"Molecular Weight": "396.65", "Molecular Formula": "C28H44O", "Melting Point": "115-118 \u00b0C"}}