{"cas_no": "50-12-4", "cn_name": "\u7f8e\u82ac\u59a5\u56e0", "en_name": ["(\u00b1)-Mephenytoin", "2,4-Imidazolidinedione, 5-ethyl-3-methyl-5-phenyl-", "Hydantoin, 5-ethyl-3-methyl-5-phenyl-", "5-Ethyl-3-methyl-5-phenyl-2,4-imidazolidinedione", "5-Ethyl-3-methyl-5-phenylhydantoin", "5-Ethyl-3-methyl-5-phenyl-2,4(3H,5H)-imidazoledione", "5-Ethyl-3-methyl-5-phenylimidazolidin-2,4-dione", "Insulton", "Mephenytoin", "Mesantoin", "Mesontoin", "Methoin", "3-Methyl-5-ethyl-5-phenylhydantoin", "Phenantoin", "Phenylethylmethylhydantoin", "Triantoin", "Epilan", "Sacerno", "3-Methyl-5-ethyl-5-phenyl-2,4-imidazolidinedione", "Methylphenetoin", "Epiazin", "Metydan", "Sedantoin", "Fenantoin", "(\u00b1)-Mephenytoin", "(\u00b1)-5-Ethyl-3-methyl-5-phenylhydantoin", "(\u00b1)-Mesantoin", "DL-Mephenytoin", "Gerot-Epilan", "Sedantional", "Mesdontoin", "3-Ethylnirvanol", "NSC 34652", "MeSH ID: D008617"], "SMILES": "C(C)C1(C(=O)N(C)C(=O)N1)C2=CC=CC=C2", "physical_data": {"Molecular Weight": "218.25", "Molecular Formula": "C12H14N2O2", "Melting Point": "136-137 \u00b0C"}}