{"cas_no": "50-10-2", "cn_name": "\u5965\u82ac\u6eb4\u94f5", "en_name": ["Oxyphenonium bromide", "Ethanaminium, 2-[(2-cyclohexyl-2-hydroxy-2-phenylacetyl)oxy]-N,N-diethyl-N-methyl-, bromide (1:1)", "Diethyl(2-hydroxyethyl)methylammonium bromide \u03b1-phenylcyclohexaneglycolate", "Ammonium, diethyl(2-hydroxyethyl)methyl-, bromide, \u03b1-phenylcyclohexaneglycolate", "Ethanaminium, 2-[(cyclohexylhydroxyphenylacetyl)oxy]-N,N-diethyl-N-methyl-, bromide", "Cyclohexaneglycolic acid, \u03b1-phenyl-, ester with diethyl(2-hydroxyethyl)methylammonium bromide", "Oxyphenonium bromide", "Spasmophen", "Antrenyl", "Antrenil", "Ba-5473", "C 5473", "Oxifenon", "Oxyfenon", "Oxyphenon", "dl-Oxyphenonium bromide", "(\u00b1)-Oxyphenonium bromide", "Antrenyl Duplex", "Spasmodin", "[2-[(2-Cyclohexyl-2-hydroxy-2-phenylacetyl)oxy]ethyl]diethylmethylazanium bromide"], "SMILES": "C(C(OCC[N+](CC)(CC)C)=O)(O)(C1CCCCC1)C2=CC=CC=C2.[Br-]", "physical_data": {"Molecular Weight": "", "Molecular Formula": "C21H34NO3.Br", "Melting Point": "191.5 \u00b0C"}}