{"cas_no": "50-24-8", "cn_name": "\u6cfc\u5c3c\u677e\u9f99", "en_name": ["Prednisolone", "Pregna-1,4-diene-3,20-dione, 11,17,21-trihydroxy-, (11\u03b2)-", "Pregna-1,4-diene-3,20-dione, 11\u03b2,17,21-trihydroxy-", "(11\u03b2)-11,17,21-Trihydroxypregna-1,4-diene-3,20-dione", "Codelcortone", "Co-Hydeltra", "\u03941-Cortisol", "Decortin H", "\u03941-Dehydrocortisol", "\u03941-Dehydrohydrocortisone", "1-Dehydrohydrocortisone", "Delta F", "Delta-Cortef", "Deltacortenol", "Deltacortril", "Delta-stab", "Di-Adreson F", "Dicortol", "Fernisolone", "Hostacortin H", "Hydeltra", "Hydeltrone", "\u03941-Hydrocortisone", "Hydrodeltalone", "Hydrodeltisone", "Hydroretrocortin", "Metacortandralone", "Meticortelone", "Meti-Derm", "Paracortol", "Precortancyl", "Precortisyl", "Predne-Dome", "Prednisolone", "Predonin", "Predonine", "1,4-Pregnadiene-3,20-dione-11\u03b2,17\u03b1,21-triol", "1,4-Pregnadiene-11\u03b2,17\u03b1,21-triol-3,20-dione", "Prenolone", "Scherisolon", "Sterane", "Sterolone", "11\u03b2,17\u03b1,21-Trihydroxypregna-1,4-diene-3,20-dione", "11\u03b2,17,21-Trihydroxypregna-1,4-diene-3,20-dione", "Ulacort", "Ultracortene H", "Deltahydrocortisone", "Eazolin D", "Donisolone", "1,2-Dehydrohydrocortisone", "Ultracorten H", "Steran", "Delta-Ef-Cortelan", "Deltisilone", "Prednelan", "Supercortisol", "Precortalon", "Delcortol", "Panafcortelone", "Klismacort", "Decaprednil", "Cortalone", "Precortilon", "Deltacortril Enteric", "NSC 9120", "Predniretard", "Prednicen", "Predni-Dome", "Flamasone", "Hydroretrocortine", "Solone", "Deltasolone", "NSC 9900", "Preflam", "Prelone", "Aprednislon", "Vetsolone", "Prednicare", "Prednisolona Syntex", "Millipred", "Equisolon", "Decortin", "43: PN: US20220380460 SEQID: 44 claimed sequence", "MeSH ID: D011239"], "SMILES": "CC12C(C3C(C4(C)C(CC3)=CC(=O)C=C4)C(O)C1)CCC2(C(CO)=O)O", "physical_data": {"Molecular Weight": "360.44", "Molecular Formula": "C21H28O5", "Melting Point": "235 \u00b0C (decomp)"}}