{"cas_no": "50-27-1", "cn_name": "\u96cc\u4e09\u9187", "en_name": ["Estriol", "Estra-1,3,5(10)-triene-3,16,17-triol, (16\u03b1,17\u03b2)-", "Estriol", "(16\u03b1,17\u03b2)-Estra-1,3,5(10)-triene-3,16,17-triol", "Destriol", "Estra-1,3,5(10)-triene-3,16\u03b1,17\u03b2-triol", "Estratriol", "Follicular hormone hydrate", "OE3", "Ovestin", "Theelol", "Tridestrin", "3,16\u03b1,17\u03b2-Trihydroxyestra-1,3,5(10)-triene", "Trihydroxyestrin", "16\u03b1,17\u03b2-Estriol", "3,16\u03b1,17\u03b2-Estriol", "NSC 12169", "16\u03b1-Estriol", "16\u03b1-Hydroxyestradiol", "Holin V", "13\u03b2-Methyl-1,3,5(10)-gonatriene-3,16\u03b1,17\u03b2-triol", "Oestriol", "Colpogyn", "Ortho-Gynest", "Gynasan", "Aacifemine", "Oekolp", "Triovex", "Hormomed", "Klimoral", "Klimax E", "Ovesterin", "Ovo-Vinces", "Incurin", "Estriel", "Ovestrion", "MeSH ID: D004964"], "SMILES": "CC12C(C3C(C=4C(CC3)=CC(O)=CC4)CC1)CC(O)C2O", "physical_data": {"Molecular Weight": "288.38", "Molecular Formula": "C18H24O3", "Melting Point": "282 \u00b0C", "Density": "1.27 g/cm\u00b3"}}