{"cas_no": "50-23-7", "cn_name": "\u6c22\u5316\u53ef\u7684\u677e", "en_name": ["Cortisol", "Pregn-4-ene-3,20-dione, 11,17,21-trihydroxy-, (11\u03b2)-", "Cortisol", "(11\u03b2)-11,17,21-Trihydroxypregn-4-ene-3,20-dione", "NSC 10483", "Anti-inflammatory hormone", "Cobadex", "Cort-Dome", "Cortef", "Cortifan", "Cortispray", "Cortonema", "Cortril", "Efcorbin", "Ficortril", "Genacort", "HC", "Heb-Cort", "Hycort", "Hycortol", "Hycortole", "Hydro-Adreson", "Hidro-Colisona", "Hydrocortisone", "Hydrocortisyl", "Hydrocortone", "17-Hydroxycorticosterone", "11\u03b2-Hydroxycortisone", "Hytone lotion", "Incortin-H", "Kendall's compound F", "Optef", "Otosone-F", "Permicort", "4-Pregnene-11\u03b2,17\u03b1,21-triol-3,20-dione", "Reichstein's substance M", "Scheroson F", "Tarcortin", "Texacort lotion 25", "Topicort", "Traumaide", "11\u03b2,17\u03b1,21-Trihydroxypregn-4-ene-3,20-dione", "11\u03b2,17,21-Trihydroxypregn-4-ene-3,20-dione", "17\u03b1-Hydroxycorticosterone", "Domolene-HC", "Esiderm H", "Epiderm H", "Corticreme", "Cortiment", "Cortanal", "Hydrasson", "Cortenema", "Signef", "Hydrocorticosterone", "Dihydrocostisone", "Polcort H", "Efcortelan", "Hydrocortal", "11\u03b2,17,21-Trihydroxyprogesterone", "Dermolate", "Hytone", "U 1851", "Hydroskin", "CCN 90306A", "Acticort", "Nutracort", "Ala-Cort", "Lacticare HC", "Zenoxone", "Dermacort", "Medicort", "Synacort", "Dioderm", "Eldecort", "Evacort", "Hydracort", "Texacort", "Penecort", "Anflam", "CaldeCort Spray", "Dermocortal", "Timocort", "Cetacort", "Aeroseb HC", "Mildison", "Hydrocort", "Sanatison", "DuoCort", "Scalpicin", "Hydrocortin", "Infacort", "Plenadren", "Alkindi", "29: PN: US20220380460 SEQID: 30 claimed sequence", "MeSH ID: D006854"], "SMILES": "CC12C(C3C(C4(C)C(CC3)=CC(=O)CC4)C(O)C1)CCC2(C(CO)=O)O", "physical_data": {"Molecular Weight": "362.46", "Molecular Formula": "C21H30O5", "Melting Point": "217-220 \u00b0C (decomp)", "Density": "1.4 g/cm\u00b3"}}