{"cas_no": "50-21-5", "cn_name": "DL-\u4e73\u9178", "en_name": ["Lactic acid", "Propanoic acid, 2-hydroxy-", "Lactic acid", "2-Hydroxypropanoic acid", "\u03b1-Hydroxypropionic acid", "2-Hydroxypropionic acid", "Milk acid", "\u03b1-Hydroxypropanoic acid", "Chem-Cast", "Biolac", "DL-Lactic acid", "Tonsillosan", "(\u00b1)-Lactic acid", "dl-Lactic acid", "Purac FCC 88", "2-Hydroxy-2-methylacetic acid", "E 270", "NSC 367919", "Purac FCC 80", "HiPure 88", "Lurex", "Purac HS 88", "Purac HS 100", "(RS)-2-Hydroxypropanoic acid", "Kiwilustre", "Musashino lactate 50F", "Masashino Lactic acid 90F", "Purac 55", "Purac 60", "Purac HS 50", "Rac-lactic acid", "Lactate", "Purac UltraPure 90", "MeSH ID: D019344", "Purac PF 90"], "SMILES": "C(C(O)=O)(C)O", "physical_data": {"Molecular Weight": "90.08", "Molecular Formula": "C3H6O3", "Boiling Point": "122 \u00b0C @ Press: 14-15 Torr", "Melting Point": "16.8 \u00b0C", "Density": "1.249 g/cm\u00b3 @ Temp: 15 \u00b0C"}}