{"cas_no": "50-28-2", "cn_name": "\u96cc\u4e8c\u9187", "en_name": ["Estradiol", "Estra-1,3,5(10)-triene-3,17-diol (17\u03b2)-", "Estradiol", "(17\u03b2)-Estra-1,3,5(10)-triene-3,17-diol", "Altrad", "Bardiol", "Beta-estradiol", "Dihydrofollicular hormone", "Dihydrofolliculin", "Dihydromenformon", "Dihydrotheelin", "Dihydroxyestrin", "Diogyn", "Diogynets", "3,17-Epidihydroxyestratriene", "Estraldine", "Dimenformon", "Estrovite", "Femestral", "Femogen", "Gynergon", "Gynoestryl", "Lamdiol", "Macrodiol", "Nordicol", "Oestergon", "Oestradiol", "Oestroglandol", "Ovahormon", "Ovasterol", "Ovastevol", "Ovocyclin", "Primofol", "Profoliol", "Progynon", "Progynon DH", "Syndiol", "Theelin, dihydro-", "Estra-1,3,5(10)-triene-3,17\u03b2-diol", "Ginosedol", "Estra-1,3,5(10)-triene-3,17-diol, (17\u03b2)-", "\u03b2-Estradiol", "(+)-3,17\u03b2-Estradiol", "Oestra-1,3,5(10)-triene-3,17\u03b2-diol", "3,17\u03b2-Dihydroxyestra-1,3,5(10)-triene", "3,17\u03b2-Estradiol", "Perlatanol", "Aquadiol", "Follicyclin", "Corpagen", "17\u03b2-Oestradiol", "Estradiol-17\u03b2", "Estrace", "Compudose", "Estraderm", "Compudose 365", "E 2", "Compudose 200", "Estrogel", "Estraderm TTS", "Oestrogel", "Menorest", "Systen", "Evorel", "Climaderm", "13\u03b2-Methyl-1,3,5(10)-gonatriene-3,17\u03b2-ol", "Estraderm TTS 50", "Epiestriol 50", "Estroclim 50", "Dermestril", "Climara", "Oesclim", "17\u03b2-Estradiol", "Encore", "Aerodiol", "Divigel", "Sandrena 1", "Vagifem", "Gelestra", "Estraderm TTS 100", "Zumenon", "Vivelle", "NSC 9895", "Profoliol B", "Ovocylin", "Estring Vaginal Ring", "Estroclim", "Estradot", "Femanest", "Estrogel HBF", "Absorlent Matrix", "FemSeven", "Estrapatch", "Estraderm MX", "Alora", "Estasorb", "Estredox", "Estreva", "Bio-E Gel", "Benzogynestry", "Estropause", "Menostar", "Evamist", "Zesteem", "Compudose 400", "Compudose 100", "Vivelle-Dot", "Sprediol", "Elestrim", "Estring", "Fempatch", "Gynodiol", "Innofem", "Destradiol", "17\u03b2-Estradiol E2", "TX 004HR", "IMVEXXY", "(8R,9S,13S,14S,17S)-13-Methyl-7,8,9,11,12,13,14,15,16,17-decahydro-6H-cyclopenta[a]phenanthrene-3,17-diol", "E2", "MeSH ID: D004958"], "SMILES": "CC12C(C3C(C=4C(CC3)=CC(O)=CC4)CC1)CCC2O", "physical_data": {"Molecular Weight": "272.38", "Molecular Formula": "C18H24O2", "Melting Point": "173-179 \u00b0C"}}