{"cas_no": "50-22-6", "cn_name": "\u80be\u4e0a\u817a\u916e", "en_name": ["Corticosterone", "Pregn-4-ene-3,20-dione, 11,21-dihydroxy-, (11\u03b2)-", "Corticosterone", "(11\u03b2)-11,21-Dihydroxypregn-4-ene-3,20-dione", "11,21-Dihydroxyprogesterone", "Kendall's compound B", "4-Pregnene-11\u03b2,21-diol-3,20-dione", "Reichstein's substance H", "17-Deoxycortisol", "11\u03b2,21-Dihydroxypregn-4-ene-3,20-dione", "11-Hydroxycorticoaldosterone", "11\u03b2,21-Dihydroxyprogesterone", "Corticosteron", "NSC 9705", "MeSH ID: D003345"], "SMILES": "CC12C3C(C4C(C)(CC3O)C(C(CO)=O)CC4)CCC1=CC(=O)CC2", "physical_data": {"Molecular Weight": "346.46", "Molecular Formula": "C21H30O4", "Melting Point": "181 \u00b0C"}}