{"cas_no": "50-29-3", "cn_name": "2,2-\u53cc(\u5bf9\u6c2f\u82ef\u57fa)-1,1,1-\u4e09\u6c2f\u4e59\u70f7", "en_name": ["DDT", "Benzene, 1,1\u2032-(2,2,2-trichloroethylidene)bis[4-chloro-", "Ethane, 1,1,1-trichloro-2,2-bis(p-chlorophenyl)-", "1,1\u2032-(2,2,2-Trichloroethylidene)bis[4-chlorobenzene]", "Arkotine", "\u03b1,\u03b1-Bis(p-chlorophenyl)-\u03b2,\u03b2,\u03b2-trichlorethane", "2,2-Bis(p-chlorophenyl)-1,1,1-trichloroethane", "Chlorophenothane", "DDT", "p,p\u2032-DDT", "4,4\u2032-Dichlorodiphenyltrichloroethane", "Dicophane", "p,p\u2032-Dichlorodiphenyltrichloroethane", "Estonate", "Gesafid", "Gesarol", "Neocid", "Pentachlorin", "Trichlorobis(4\u2032-chlorophenyl)ethane", "1,1,1-Trichloro-2,2-bis(p-chlorophenyl)ethane", "Zerdane", "Agritan", "Azotox M 33", "Citox", "4,4\u2032-DDT", "Dykol", "Clofenotan", "ENT-1506", "Ethane, 1,1,1-trichloro-2,2-bis(4-chlorophenyl)-", "1,1-Bis(p-chlorophenyl)-2,2,2-trichloroethane", "Detoxan", "Clofenotane", "Aavero-extra", "Chlorphenothan", "Deoval", "Mutoxan", "PEB1", "Penticidum", "Dodat", "Bosan supra", "Bovidermol", "Ivoran", "Chlorphenotoxum", "Parachlorocidum", "Dibovin", "Neocidol (solid)", "Tafidex", "2,2,2-Trichloro-1,1-bis(4-chlorophenyl)ethane", "p,p\u2032-Dichlorodiphenyltrichloromethylmethane", "Neocidol", "1,1-Bis(4-chlorophenyl)-2,2,2-trichloroethane", "Hildit", "Benzochloryl", "1,1,1-Trichloro-2,2-di(p-chlorophenyl)ethane", "Detox (pesticide)", "Gesarex", "Gesapon", "Guesapon", "Dicophaner", "NSC 8939", "o,p\u2032-1,1,1-Trichloro-2-2,2-bis(p-chlorophenyl)ethane", "FWJ", "Dichlorodiphenyltrichloroethane", "1,1,1-Trichloro-2-2,2-bis(p-chlorophenyl)ethane", "2,2-Bis(4-chlorophenyl)-1,1,1-trichloroethane", "Detox", "Para-Para DDT"], "SMILES": "C(C(Cl)(Cl)Cl)(C1=CC=C(Cl)C=C1)C2=CC=C(Cl)C=C2", "physical_data": {"Molecular Weight": "354.49", "Molecular Formula": "C14H9Cl5", "Boiling Point": "260 \u00b0C", "Melting Point": "108.5 \u00b0C", "Density": "0.98-0.99 g/cm\u00b3"}}