{"cas_no": "50-34-0", "cn_name": "\u6eb4\u4e19\u80fa\u592a\u6797", "en_name": ["Propantheline bromide", "2-Propanaminium, N-methyl-N-(1-methylethyl)-N-[2-[(9H-xanthen-9-ylcarbonyl)oxy]ethyl]-, bromide (1:1)", "Ammonium, (2-hydroxyethyl)diisopropylmethyl-, bromide, xanthene-9-carboxylate", "(2-Hydroxyethyl)diisopropylmethylammonium bromide xanthene-9-carboxylate", "2-Propanaminium, N-methyl-N-(1-methylethyl)-N-[2-[(9H-xanthen-9-ylcarbonyl)oxy]ethyl]-, bromide", "Xanthene-9-carboxylic acid, ester with (2-hydroxyethyl)diisopropylmethylammonium bromide", "\u03b2-Diisopropylaminoethyl xanthene-9-carboxylate methobromide", "Neopepulsan", "Pro-Banthine", "Propantheline bromide", "Prodixamon", "Ketaman", "Pantheline", "Pervagal", "Pro-Gastron", "Ercorax", "Propantel", "Ercotina", "SC 3171", "Kivatin", "Pantas", "Corrigast", "Neo-Metantyl", "L 113", "L 113 (leveling agent)"], "SMILES": "C(OCC[N+](C(C)C)(C(C)C)C)(=O)C1C=2C(OC=3C1=CC=CC3)=CC=CC2.[Br-]", "physical_data": {"Molecular Weight": "", "Molecular Formula": "C23H30NO3.Br", "Melting Point": "159.5 \u00b0C"}}