{"cas_no": "50-36-2", "cn_name": "\u53ef\u5361\u56e0", "en_name": ["Cocaine", "8-Azabicyclo[3.2.1]octane-2-carboxylic acid, 3-(benzoyloxy)-8-methyl-, methyl ester, (1R,2R,3S,5S)-", "1\u03b1H,5\u03b1H-Tropane-2\u03b2-carboxylic acid, 3\u03b2-hydroxy-, methyl ester, benzoate (ester)", "8-Azabicyclo[3.2.1]octane-2-carboxylic acid, 3-(benzoyloxy)-8-methyl-, methyl ester, [1R-(exo,exo)]-", "Benzoylmethylecgonine", "2\u03b2-Carbomethoxy-3\u03b2-(benzoyloxy)tropane", "Cocaine", "l-Cocaine", "Ecgonine methyl ester benzoate (ester)", "3\u03b2-Hydroxy-2\u03b2-tropanecarboxylic acid methyl ester benzoate (ester)", "(-)-Cocaine", "Neurocaine", "Cocain", "L-Cocaine", "(R)-Cocaine", "(R)-(-)-Cocaine", "MeSH ID: D003042"], "SMILES": "C(OC)(=O)C1C2N(C)C(CC1OC(=O)C3=CC=CC=C3)CC2", "physical_data": {"Molecular Weight": "303.35", "Molecular Formula": "C17H21NO4", "Boiling Point": "187 \u00b0C @ Press: 0.1 Torr", "Melting Point": "98 \u00b0C"}}