{"cas_no": "50-35-1", "cn_name": "\u6c99\u5229\u5ea6\u80fa", "en_name": ["Thalidomide", "1H-Isoindole-1,3(2H)-dione, 2-(2,6-dioxo-3-piperidinyl)-", "Phthalimide, N-(2,6-dioxo-3-piperidyl)-", "2-(2,6-Dioxo-3-piperidinyl)-1H-isoindole-1,3(2H)-dione", "K 17", "Contergan", "N-(2,6-Dioxo-3-piperidyl)phthalimide", "Distaval", "Kevadon", "\u03b1-Phthalimidoglutarimide", "\u03b1-(N-Phthalimido)glutarimide", "3-Phthalimidoglutarimide", "N-Phthaloylglutamimide", "\u03b1-N-Phthalylglutaramide", "Softenon", "Thalidomide", "Sedoval", "Softenil", "Quetimid", "Talimol", "(\u00b1)-Thalidomide", "1,3-Dioxo-2-(2,6-dioxopiperidin-3-yl)isoindoline", "Thalomid", "Celgene", "Suaramide", "Talinol", "Neurosedyn", "NSC 66847", "Sedalis", "Pantosediv", "NSC 527179", "Myrin", "Sauramide", "Pharmion", "Thaled", "Synovir", "N-(2,6-Dioxo-3-piperidinyl)phthalimide", "Immunoprin", "2-(2,6-Dioxopiperidin-3-yl)isoindoline-1,3-dione", "2-(2,6-Dioxopiperidin-3-yl)isoindole-1,3-dione", "2-(2,6-Dioxo-piperidin-3-yl)-isoindole-1,3-dione", "2-(2,6-Dioxopiperidin-3-yl)-2,3-dihydro-1H-isoindole-1,3-dione", "MeSH ID: D013792"], "SMILES": "O=C1N(C(=O)C=2C1=CC=CC2)C3C(=O)NC(=O)CC3", "physical_data": {"Molecular Weight": "258.23", "Molecular Formula": "C13H10N2O4", "Melting Point": "270 \u00b0C"}}