{"cas_no": "50-33-9", "cn_name": "\u4fdd\u6cf0\u677e", "en_name": ["Phenylbutazone", "3,5-Pyrazolidinedione, 4-butyl-1,2-diphenyl-", "4-Butyl-1,2-diphenyl-3,5-pyrazolidinedione", "G 13,871", "Artrizin", "Butalidon", "Butapirazol", "Butazolidin", "Butazolidine", "Butidiona", "4-Butyl-1,2-diphenyl-3,5-dioxopyrazolidine", "4-Butyl-1,2-diphenylpyrazolidine-3,5-dione", "3,5-Dioxo-1,2-diphenyl-4-n-butylpyrazolidine", "Diphebuzol", "Diphenylbutazone", "1,2-Diphenyl-4-butyl-3,5-pyrazolidinedione", "Fenibutazona", "Phebuzine", "Phenylbutazone", "Pirarreumol B", "Reudo", "Reudox", "Reumuzol", "Shigrodin", "Ticinil", "Butadion", "Butadione", "VAC-10", "Pyrabutol", "1,2-Diphenyl-3,5-dioxo-4-n-butylpyrazolidine", "1,2-Diphenyl-3,5-dioxo-4-butylpyrazolidine", "Fenylbutazon", "Alindor", "Flexazone", "Ia-But", "Antadol", "Buzon", "R-3-ZON", "Anuspiramin", "Ecobutazone", "Fenotone", "Bunetzone", "Fenilbutina", "Zolaphen", "Azolid", "Betazed", "Benzone", "Butoz", "Butacote", "Tencodyne", "Fenibutal", "Robizone", "Mephabutazon", "Bizolin 200", "Uzone", "4-n-Butyl-1,2-diphenyl-3,5-pyrazolidinedione", "Butartrina", "Butazina", "Arthrizon", "Reumazin", "Todalgil", "Artropan", "Kadol", "Butapirazole", "Equipalazone", "Phenylbutazon", "Alkazone", "NSC 25134", "Tevcodyne", "Butatron", "Phen-Buta", "MeSH ID: D010653"], "SMILES": "O=C1N(N(C(=O)C1CCCC)C2=CC=CC=C2)C3=CC=CC=C3", "physical_data": {"Molecular Weight": "308.37", "Molecular Formula": "C19H20N2O2", "Melting Point": "105 \u00b0C", "Density": "1.19 g/cm\u00b3"}}