{"cas_no": "50-30-6", "cn_name": "2,6-\u4e8c\u6c2f\u82ef\u7532\u9178", "en_name": ["2,6-Dichlorobenzoic acid", "Benzoic acid, 2,6-dichloro-", "2,6-Dichlorobenzoic acid", "NSC 76599"], "SMILES": "C(O)(=O)C1=C(Cl)C=CC=C1Cl", "physical_data": {"Molecular Weight": "191.01", "Molecular Formula": "C7H4Cl2O2", "Melting Point": "144 \u00b0C"}}