{"cas_no": "50-31-7", "cn_name": "2\uff0c3\uff0c6-\u4e09\u6c2f\u82ef\u7532\u9178", "en_name": ["2,3,6-Trichlorobenzoic acid", "Benzoic acid, 2,3,6-trichloro-", "2,3,6-Trichlorobenzoic acid", "HC 1281", "TCB", "2,3,6-TCBA", "Trysben", "2,3,6-TBA", "TCBA"], "SMILES": "C(O)(=O)C1=C(Cl)C(Cl)=CC=C1Cl", "physical_data": {"Molecular Weight": "225.46", "Molecular Formula": "C7H3Cl3O2", "Melting Point": "124.5 \u00b0C"}}