{"cas_no": "50-44-2", "cn_name": "6-\u5def\u57fa\u560c\u5464", "en_name": ["6-Mercaptopurine", "6H-Purine-6-thione, 1,9-dihydro-", "Purine-6-thiol", "6H-Purine-6-thione, 1,7-dihydro-", "Purine-6(1H)-thione", "1,9-Dihydro-6H-purine-6-thione", "6-MP", "NSC 755", "Leukerin", "6-Mercaptopurine", "7-Mercapto-1,3,4,6-tetrazaindene", "Purinethol", "Hypoxanthine, thio-", "Mercaptopurine", "Purinethiol", "6-Mercaptopurin", "3H-Purine-6-thiol", "1H-Purine, 6-mercapto-", "Mercaleukin", "6-Thiopurine", "6-Thioxopurine", "Ismipur", "Leupurin", "Mercapurin", "Mern", "6-Thiohypoxanthine", "9H-Purine-6(1H)-thione", "Purine-6-thione", "1,7-Dihydro-6H-purine-6-thione", "Purimethol", "Thiohypoxanthine", "Mercaleukim", "U 4748", "NSC 55477", "NSC 68293", "Purixan", "1,9-Dihydro-purine-6-thione", "3,7-Dihydropurine-6-thione", "MeSH ID: D015122"], "SMILES": "S=C1C2=C(NC=N1)N=CN2", "physical_data": {"Molecular Weight": "152.18", "Molecular Formula": "C5H4N4S", "Melting Point": "&gt;308 \u00b0C (decomp)"}}