{"cas_no": "50-42-0", "cn_name": "\u76d0\u9178\u963f\u5730\u82ac\u5b81", "en_name": ["Adiphenine hydrochloride", "Benzeneacetic acid, \u03b1-phenyl-, 2-(diethylamino)ethyl ester, hydrochloride (1:1)", "Acetic acid, diphenyl-, 2-(diethylamino)ethyl ester hydrochloride", "Benzeneacetic acid, \u03b1-phenyl-, 2-(diethylamino)ethyl ester, hydrochloride", "Adiphenine hydrochloride", "2-Diethylaminoethyl diphenylacetate hydrochloride", "Difacil hydrochloride", "Diphacil hydrochloride", "Patrovina", "Sentiv", "Spasnil", "Trasentine hydrochloride", "Spasmolytin hydrochloride", "Adifenin hydrochloride", "Adiphen hydrochloride", "Spasmolytin", "Trasentin hydrochloride", "Vegantin", "\u03b2-Diethylaminoethyl diphenylacetate hydrochloride", "NSC 129224"], "SMILES": "C(C(OCCN(CC)CC)=O)(C1=CC=CC=C1)C2=CC=CC=C2.Cl", "physical_data": {"Molecular Weight": "", "Molecular Formula": "C20H25NO2.ClH", "Melting Point": "113.5 \u00b0C"}}