{"cas_no": "50-48-6", "cn_name": "\u963f\u7c73\u66ff\u6797", "en_name": ["Amitriptyline", "1-Propanamine, 3-(10,11-dihydro-5H-dibenzo[a,d]cyclohepten-5-ylidene)-N,N-dimethyl-", "5H-Dibenzo[a,d]cycloheptene-\u03945,\u03b3-propylamine, 10,11-dihydro-N,N-dimethyl-", "3-(10,11-Dihydro-5H-dibenzo[a,d]cyclohepten-5-ylidene)-N,N-dimethyl-1-propanamine", "Amitriptyline", "Damilen", "5-(3\u2032-Dimethylaminopropylidene)-dibenzo-[a,d][1,4]-cycloheptadiene", "5-(3-Dimethylaminopropylidene)-5H-dibenzo[a,d]-10,11-dihydrocycloheptene", "5-(\u03b3-Dimethylaminopropylidene)-10,11-dihydro-5H-dibenzo[a,d]cycloheptene", "Proheptadiene", "Flavyl", "5-(\u03b3-Dimethylaminopropylidene)-5H-dibenzo(a,d)(1,4)cycloheptadiene", "Amitriptylin", "Seroten", "Triptisol", "Damitriptyline", "Triptanol", "Adepress", "MK 230", "N 750", "Amitriprolidine", "MeSH ID: D000639"], "SMILES": "C(CCN(C)C)=C1C=2C(CCC=3C1=CC=CC3)=CC=CC2", "physical_data": {"Molecular Weight": "277.40", "Molecular Formula": "C20H23N", "Boiling Point": "195-205 \u00b0C", "Melting Point": "196.5 \u00b0C"}}