{"cas_no": "50-43-1", "cn_name": "2,4,6-\u4e09\u6c2f\u82ef\u7532\u9178", "en_name": ["2,4,6-Trichlorobenzoic acid", "Benzoic acid, 2,4,6-trichloro-", "2,4,6-Trichlorobenzoic acid"], "SMILES": "C(O)(=O)C1=C(Cl)C=C(Cl)C=C1Cl", "physical_data": {"Molecular Weight": "225.46", "Molecular Formula": "C7H3Cl3O2", "Melting Point": "162-165 \u00b0C"}}