{"cas_no": "50-47-5", "cn_name": "\u5730\u6614\u5e15\u660e", "en_name": ["Desipramine", "5H-Dibenz[b,f]azepine-5-propanamine, 10,11-dihydro-N-methyl-", "5H-Dibenz[b,f]azepine, 10,11-dihydro-5-[3-(methylamino)propyl]-", "10,11-Dihydro-N-methyl-5H-dibenz[b,f]azepine-5-propanamine", "Demethylimipramine", "Desimipramine", "Desipramin", "Imipramine, demethyl-", "Methylaminopropyliminodibenzyl", "Monodemethylimipramine", "Norimipramine", "Desipramine", "Desmethylimipramine", "10,11-Dihydro-5-[3-(methylamino)propyl]-5-H-dibenz[b,f]azepine", "N-Desmethylimipramine", "DMI", "DMI (pharmaceutical)", "[3-(10,11-Dihydro-dibenzo[b,f]azepin-5-yl)-propyl]-methyl-amine", "MeSH ID: D003891"], "SMILES": "C(CCNC)N1C=2C(CCC=3C1=CC=CC3)=CC=CC2", "physical_data": {"Molecular Weight": "266.38", "Molecular Formula": "C18H22N2", "Boiling Point": "172-174 \u00b0C @ Press: 0.02 Torr", "Melting Point": "25.0 \u00b0C"}}