{"cas_no": "50-41-9", "cn_name": "\u67b8\u6a7c\u9178\u6c2f\u7c73\u82ac", "en_name": ["Clostilbegit", "Ethanamine, 2-[4-(2-chloro-1,2-diphenylethenyl)phenoxy]-N,N-diethyl-, 2-hydroxy-1,2,3-propanetricarboxylate (1:1)", "Triethylamine, 2-[p-(2-chloro-1,2-diphenylvinyl)phenoxy]-, citrate (1:1)", "Triethylamine, 2-[p-(2-chloro-1,2-diphenylvinyl)phenoxy]-, citrate", "MRL 41", "Chloramiphene", "2-[p-(2-Chloro-1,2-diphenylvinyl)phenoxy]triethylamine dihydrogen citrate", "Clomid", "1-[p-(\u03b2-Diethylaminoethoxy)phenyl]-1,2-diphenyl-2-chloroethylene citrate", "Clomiphene citrate", "Clomiphene dihydrogen citrate", "Racemic clomiphene citrate", "Clomifene citrate", "Omifin", "Clomifeno", "Clomivid", "Clomphid", "Dyneric", "Genozym", "Ikaclomin", "Mer 41", "Fertyl", "Fertivet", "Clostilbegyt", "Ikaclomine", "Pergotime", "Serophene", "NSC 35770", "Clostilbegit", "Clomhexal", "Siphene", "Klomen", "2-(4-(2-Chloro-1,2-diphenylvinyl)phenoxy)-N,N-diethylethanamine 2-hydroxypropane-1,2,3-tricarboxylate"], "SMILES": "C(CC(O)=O)(CC(O)=O)(C(O)=O)O.C(=C(Cl)C1=CC=CC=C1)(C2=CC=C(OCCN(CC)CC)C=C2)C3=CC=CC=C3", "physical_data": {"Molecular Weight": "", "Molecular Formula": "C26H28ClNO.C6H8O7", "Melting Point": "116.5-118 \u00b0C"}}