{"cas_no": "50-49-7", "cn_name": "\u7c73\u5e15\u660e", "en_name": ["Imipramine", "5H-Dibenz[b,f]azepine-5-propanamine, 10,11-dihydro-N,N-dimethyl-", "5H-Dibenz[b,f]azepine, 5-[3-(dimethylamino)propyl]-10,11-dihydro-", "10,11-Dihydro-N,N-dimethyl-5H-dibenz[b,f]azepine-5-propanamine", "Antideprin", "5,6-Dihydro-N-[3-(dimethylamino)propyl]-11H-dibenz[b,e]azepine", "N-(3-Dimethylaminopropyl)-o-iminodibenzyl", "Imipramine", "Melipramine", "1-(3-Dimethylaminopropyl)-4,5-dihydro-2,3,6,7-dibenzazepine", "Prazepine", "N-(\u03b3-Dimethylaminopropyl)iminodibenzyl", "5-(3-Dimethylaminopropyl)-10,11-dihydro-5H-dibenz[b,f]azepine", "Berkomine", "Org 2463", "NSC 169866", "Cristalia", "Sermonil", "MeSH ID: D007099"], "SMILES": "C(CCN(C)C)N1C=2C(CCC=3C1=CC=CC3)=CC=CC2", "physical_data": {"Molecular Weight": "280.41", "Molecular Formula": "C19H24N2", "Boiling Point": "160 \u00b0C @ Press: 0.1 Torr", "Melting Point": "174.5 \u00b0C"}}