{"cas_no": "50-58-8", "cn_name": "\u82ef\u4e8c\u7532\u5417\u5549\u4e00\u6c22\u9152\u77f3\u9178\u76d0", "en_name": ["Metra", "Morpholine, 3,4-dimethyl-2-phenyl-, (2S,3S)-, (2R,3R)-2,3-dihydroxybutanedioate (1:1)", "Morpholine, 3,4-dimethyl-2-phenyl-, (2S-trans)-, [R-(R*,R*)]-2,3-dihydroxybutanedioate (1:1)", "Morpholine, 3,4-dimethyl-2-phenyl-, (+)-, tartrate (1:1)", "Phendimetrazine tartrate", "Phendimetrazine bitartrate", "Plegine", "Statobex", "Metra", "Prelu 2"], "SMILES": "C(C(C(O)=O)O)(C(O)=O)O.CC1C(OCCN1C)C2=CC=CC=C2", "physical_data": {"Molecular Weight": "", "Molecular Formula": "C12H17NO.C4H6O6", "Melting Point": "182 \u00b0C"}}