{"cas_no": "50-52-2", "cn_name": "\u786b\u5229\u8fbe\u55ea", "en_name": ["Thioridazine", "10H-Phenothiazine, 10-[2-(1-methyl-2-piperidinyl)ethyl]-2-(methylthio)-", "Phenothiazine, 10-[2-(1-methyl-2-piperidyl)ethyl]-2-(methylthio)-", "10-[2-(1-Methyl-2-piperidinyl)ethyl]-2-(methylthio)-10H-phenothiazine", "TP 21", "Mellerette", "Melleril", "2-Methylmercapto-10-[2-N-methyl-2-piperidyl)ethyl]phenothiazine", "10-[2-(1-Methyl-2-piperidyl)ethyl]-2-(methylthio)phenothiazine", "Thioridazin", "Thioridazine", "Thioridazine prolongatum", "Malloryl", "Meleril", "Mellerets", "Sonapax", "Melleril (liquid)", "dl-Thioridazine", "(\u00b1)-Thioridazine", "Mellaril S", "10-[2-(1-Methylpiperidin-2-yl)ethyl]-2-methylsulfanylphenothiazine", "10-[2-(1-Methylpiperidin-2-yl)ethyl]-2-(methylsulfanyl)-10H-phenothiazine", "MeSH ID: D013881"], "SMILES": "C(CC1N(C)CCCC1)N2C=3C(SC=4C2=CC=CC4)=CC=C(SC)C3", "physical_data": {"Molecular Weight": "370.57", "Molecular Formula": "C21H26N2S2", "Boiling Point": "230 \u00b0C @ Press: 0.02 Torr", "Melting Point": "72-74 \u00b0C"}}