{"cas_no": "50-50-0", "cn_name": "\u82ef\u7532\u9178\u96cc\u4e8c\u9187", "en_name": ["Estradiol benzoate", "Estra-1,3,5(10)-triene-3,17-diol (17\u03b2)-, 3-benzoate", "Estradiol, 3-benzoate", "Benovocylin", "Benzhormovarine", "Benzoestrofol", "Benzofoline", "Benzo-Gynoestryl", "De Graafina", "Diffollisterol", "Difolliculine", "Dimenformon benzoate", "Diogyn B", "Eston B", "1,3,5(10)-Estratriene-3,17\u03b2-diol 3-benzoate", "Femestrone", "Graafina", "Gynecormone", "Hidroestron", "Hormogynon", "Oestroform [BDH]", "Ovasterol B", "Ovocyclin M", "Ovocyclin Benzoate", "Ovocyclin MB", "Primogyn B", "Progynon B", "Progynon benzoate", "Recthormone Oestradiol", "Unistradiol", "Solestro", "17\u03b2-Estradiol 3-benzoate", "\u03b2-Estradiol 3-benzoate", "Estradiol benzoate", "Estradiol monobenzoate", "\u03b2-Estradiol benzoate", "3-Benzoyloxy-17\u03b2-hydroxyestra-1,3,5(10)-triene", "Gynformone", "Ovahormon benzoate", "Primogyn B oleosum", "17\u03b2-Estradiol benzoate", "Folone", "Agofollin Depot", "Agofollin", "Benztrone", "Pelanin benzoate", "NSC 9566", "Cidirol", "Estrogin", "Mesalin", "Ric-BE", "Gonadiol", "SY Esrone", "Difolliculin", "Oestradiol benzoate"], "SMILES": "CC12C(C3C(C=4C(CC3)=CC(OC(=O)C5=CC=CC=C5)=CC4)CC1)CCC2O", "physical_data": {"Molecular Weight": "376.49", "Molecular Formula": "C25H28O3", "Melting Point": "196 \u00b0C"}}