{"cas_no": "50-53-3", "cn_name": "\u6c2f\u4e19\u55ea", "en_name": ["Chlorpromazine", "10H-Phenothiazine-10-propanamine, 2-chloro-N,N-dimethyl-", "Phenothiazine, 2-chloro-10-[3-(dimethylamino)propyl]-", "2-Chloro-N,N-dimethyl-10H-phenothiazine-10-propanamine", "Aminazine", "Ampliactil", "2-Chloro-10-[3-(dimethylamino)propyl]phenothiazine", "Chlorpromazine", "CPZ", "Fenactil", "Fenaktyl", "Fraction AB", "Largactilothiazine", "Largactyl", "Megaphen", "Novomazina", "Phenactyl", "Promazil", "Propaphenin", "Thorazine", "Wintermin", "Aminazin", "Chlorderazin", "HL 5746", "Promactil", "Prozil", "Sanopron", "Amplictil", "Proma", "Chlor-Promanyl", "Elmarin", "Chlorpromados", "Esmind", "2-Chloropromazine", "Chlordelazin", "Thorazin", "BC 135", "RP 4560", "SKF 2601A", "Chlropromados", "2601A", "NSC 167745", "NSC 226514", "Sedatil", "Noiafren", "Relitil", "Largaltil", "[3-(2-Chloro-phenothiazin-10-yl)-propyl]-dimethyl-amine", "MeSH ID: D002746"], "SMILES": "C(CCN(C)C)N1C=2C(SC=3C1=CC=CC3)=CC=C(Cl)C2", "physical_data": {"Molecular Weight": "318.86", "Molecular Formula": "C17H19ClN2S", "Boiling Point": "200-205 \u00b0C @ Press: 0.8 Torr", "Melting Point": "&lt;25 \u00b0C"}}