{"cas_no": "50-55-5", "cn_name": "\u5229\u8840\u5e73", "en_name": ["(-)-Reserpine", "Yohimban-16-carboxylic acid, 11,17-dimethoxy-18-[(3,4,5-trimethoxybenzoyl)oxy]-, methyl ester, (3\u03b2,16\u03b2,17\u03b1,18\u03b2,20\u03b1)-", "3\u03b2,20\u03b1-Yohimban-16\u03b2-carboxylic acid, 18\u03b2-hydroxy-11,17\u03b1-dimethoxy- methyl ester 3,4,5-trimethoxybenzoate (ester)", "3\u03b2,20\u03b1-Yohimban-16\u03b2-carboxylic acid, 18\u03b2-hydroxy-11,17\u03b1-dimethoxy-, methyl ester, 3,4,5-trimethoxybenzoate", "Benz[g]indolo[2,3-a]quinolizine, yohimban-16-carboxylic acid deriv.", "Anquil", "Banasil", "Bioserpine", "Crystoserpine", "Elserpine", "Eserpine", "Eskaserp", "Kitine", "Lemiserp", "Loweserp", "Mayserpine", "Reserpic acid methyl ester 3,4,5-trimethoxybenzoate (ester)", "Methyl reserpate 3,4,5-trimethoxybenzoate (ester)", "Quiescin", "Raucap", "Raulen", "Raurine", "Rau-sed", "Rausedil", "Rausedyl", "Rausingle", "Resercen", "Reserpamed", "Reserpex", "Reserpine", "Reserpoid", "Resine", "Respital", "Restran", "Riserpa", "Rivasin", "Roxinoid", "Sandril", "Sedaraupin", "Serfin", "Serolfia", "T-Serp", "Serpaloid", "Serpanray", "Serpasil", "Serpate", "Serpen", "Serpentina", "Serpicon", "Serpiloid", "Sertabs", "Sertina", "3,4,5-Trimethoxybenzoyl methyl reserpate", "Vio-Serpine", "Raupasil", "Serpine (pharmaceutical)", "ENT 50146", "Serpasil premix", "Raunervil", "Reserlor", "Sedserp", "Serpipur", "Temposerpine", "Serp-AFD", "Resercaps", "Reserpil", "Triserpin", "Rauwasedin", "Apoplon", "Serpasol", "Serpine", "Carpacil", "Hiposerpil", "Deserpine", "11,17-Dimethoxy-18-[(3,4,5-trimethoxybenzoyl)oxy]yohimban-16-carboxylic acid methyl ester", "(-)-Reserpine", "Serpasil Serpasol", "NSC 237659", "NSC 59272", "Methyl (1S,2R,3R,4aS,13bR,14aS)-2,11-dimethoxy-3-[(3,4,5-trimethoxybenzoyl)oxy]-1,2,3,4,4a,5,7,8,13,13b,14,14a-dodecahydroindolo[2\u2032,3\u2032:3,4]pyrido[1,2-b]isoquinoline-1-carboxylate", "MeSH ID: D012110"], "SMILES": "C(OC)(=O)C1C2CC3C4=C(C=5C(N4)=CC(OC)=CC5)CCN3CC2CC(OC(=O)C6=CC(OC)=C(OC)C(OC)=C6)C1OC", "physical_data": {"Molecular Weight": "608.68", "Molecular Formula": "C33H40N2O9", "Melting Point": "264.5 \u00b0C"}}