{"cas_no": "50-65-7", "cn_name": "\u6c2f\u785d\u67f3\u80fa", "en_name": ["Niclosamide", "Benzamide, 5-chloro-N-(2-chloro-4-nitrophenyl)-2-hydroxy-", "Salicylanilide, 2\u2032,5-dichloro-4\u2032-nitro-", "5-Chloro-N-(2-chloro-4-nitrophenyl)-2-hydroxybenzamide", "Bayluscid", "5-Chloro-2\u2032-chloro-4\u2032-nitrosalicylanilide", "N-(2-Chloro-4-nitrophenyl)-5-chlorosalicylamide", "2\u2032,5-Dichloro-4\u2032-nitrosalicylanilide", "HL 2447", "2-Hydroxy-5-chloro-N-(2-chloro-4-nitrophenyl)benzamide", "Iomesan", "Niclosamide", "Phenasal", "Vermitin", "Yomesan", "2-Chloro-4-nitrophenylamide-6-chlorosalicylic acid", "Fenasal", "N-(2\u2032-Chloro-4\u2032-nitrophenyl)-5-chlorosalicylamide", "Mansonil", "Radeverm", "5-Chloro-N-(2\u2032-chloro-4\u2032-nitrophenyl)salicylamide", "Bayer 2353", "Lintex", "Nasemo", "Sulqui", "Tredemine", "Sagimid", "Devermin", "Devermine", "Cestocid", "Mato", "Vermitid", "Helmiantin", "Fedal-Telmin", "BAY 2353", "Zestocarp", "WR 46234", "Utosamide", "Niclocide", "Cestocide", "Ruby", "NSC 178296", "FW 1022", "DWRX 2003", "MeSH ID: D009534"], "SMILES": "C(NC1=C(Cl)C=C(N(=O)=O)C=C1)(=O)C2=C(O)C=CC(Cl)=C2", "physical_data": {"Molecular Weight": "327.12", "Molecular Formula": "C13H8Cl2N2O4", "Melting Point": "225-230 \u00b0C"}}