{"cas_no": "50-69-1", "cn_name": "D-\u6838\u7cd6", "en_name": ["Ribose", "D-Ribose", "Ribose, D-", "Ribose", "MeSH ID: D012266"], "SMILES": "C(C(CO)O)(C(C=O)O)O", "physical_data": {"Molecular Weight": "150.13", "Molecular Formula": "C5H10O5", "Melting Point": "95 \u00b0C"}}