{"cas_no": "50-63-5", "cn_name": "\u78f7\u9178\u6c2f\u55b9", "en_name": ["(\u00b1)-Chloroquine diphosphate", "1,4-Pentanediamine, N4-(7-chloro-4-quinolinyl)-N1,N1-diethyl-, phosphate (1:2)", "Quinoline, 7-chloro-4-[[4-(diethylamino)-1-methylbutyl]amino]-, phosphate (1:2)", "Quinoline, 7-chloro-4-[(4-diethylamino-1-methylbutyl)amino]-, diphosphate", "3377RP", "SN 7618", "Aralen diphosphate", "Aralen phosphate", "Avloclor", "Bemaphate", "7-Chloro-4-[(4\u2032-diethylamino-1-methylbutyl)amino]quinoline diphosphate", "Chloroquin diphosphate", "Chloroquine diphosphate", "Chloroquine phosphate", "Nivaquine B", "Resoquine", "Sanoquin", "Tanakan", "Arechin", "Resochin", "Delagil", "Quingamine", "Chingamin", "Chingamin phosphate", "Gontochin phosphate", "Khingamin", "Chlorochin diphosphate", "WR 1522", "Chloroquine dihydrogen phosphate (1:2)", "Tanakan (antimalarial)", "(\u00b1)-Chloroquine diphosphate", "dl-Chloroquine diphosphate", "NSC 14050", "Tresochin", "Imagon", "Malaquin", "Alexoquine", "Cidoquine", "Maladrin", "Quivaclor", "Aralen"], "SMILES": "N(C(CCCN(CC)CC)C)C=1C2=C(N=CC1)C=C(Cl)C=C2.P(=O)(O)(O)O", "physical_data": {"Molecular Weight": "", "Molecular Formula": "C18H26ClN3.2H3O4P", "Boiling Point": "189-193 \u00b0C @ Press: 0.2-0.3 Torr", "Melting Point": "193-195 \u00b0C"}}