{"cas_no": "50-67-9", "cn_name": "5-\u7f9f\u57fa\u8272\u80fa", "en_name": ["Serotonin", "1H-Indol-5-ol, 3-(2-aminoethyl)-", "Indol-5-ol, 3-(2-aminoethyl)-", "3-(2-Aminoethyl)-1H-indol-5-ol", "5-HT", "3-(\u03b2-Aminoethyl)-5-hydroxyindole", "3-(2-Aminoethyl)indol-5-ol", "DS substance", "Enteramine", "5-HTA", "5-Hydroxy-3-(\u03b2-aminoethyl)indole", "5-Hydroxytryptamine", "Serotonin", "Substance DS", "Thrombocytin", "Thrombotonin", "Tryptamine, 5-hydroxy-", "Enteramin", "5-Hydroxyltryptamine", "5-Hydroxytriptamine", "MeSH ID: D012701"], "SMILES": "C(CN)C=1C=2C(NC1)=CC=C(O)C2", "physical_data": {"Molecular Weight": "176.22", "Molecular Formula": "C10H12N2O", "Melting Point": "167.5 \u00b0C"}}