{"cas_no": "50-60-2", "cn_name": "\u915a\u59a5\u62c9\u660e", "en_name": ["Phentolamine", "Phenol, 3-[[(4,5-dihydro-1H-imidazol-2-yl)methyl](4-methylphenyl)amino]-", "Phenol, m-[N-(2-imidazolin-2-ylmethyl)-p-toluidino]-", "3-[[(4,5-Dihydro-1H-imidazol-2-yl)methyl](4-methylphenyl)amino]phenol", "C 7337 Ciba", "2-[[N-(m-Hydroxyphenyl)-p-toluidino]methyl]-2-imidazoline", "2-(m-Hydroxy-N-p-tolylanilinomethyl)-2-imidazoline", "Phentolamine", "Regitin", "Regitine", "2-(N\u2032-p-Tolyl-N\u2032-m-hydroxyphenylaminomethyl)-2-imidazoline", "Fentolamine", "C 7337", "Dibasin", "3-(((4,5-Dihydro-1H-imidazol-2-yl)methyl)(p-tolyl)amino)phenol", "3-[(4,5-Dihydro-1H-imidazol-2-ylmethyl)-p-tolyl-amino]-phenol", "3-[(4,5-Dihydro-1H-imidazol-3-ium-2-ylmethyl)(4-methylphenyl)amino]benzenolate", "MeSH ID: D010646"], "SMILES": "N(CC=1NCCN1)(C2=CC(O)=CC=C2)C3=CC=C(C)C=C3", "physical_data": {"Molecular Weight": "281.35", "Molecular Formula": "C17H19N3O", "Melting Point": "174-175 \u00b0C"}}