{"cas_no": "50-66-8", "cn_name": "6-\u7532\u5def\u57fa\u560c\u5464", "en_name": ["6-Methylmercaptopurine", "9H-Purine, 6-(methylthio)-", "Purine, 6-(methylthio)-", "1H-Purine, 6-(methylthio)-", "6-(Methylthio)-9H-purine", "6-Methylmercaptopurine", "6-(Methylthio)purine", "SQ 8343", "S-Methyl-6-mercaptopurine", "NSC 20105"], "SMILES": "S(C)C1=C2C(N=CN2)=NC=N1", "physical_data": {"Molecular Weight": "166.20", "Molecular Formula": "C6H6N4S", "Melting Point": "218-220 \u00b0C (decomp)"}}