{"cas_no": "50-71-5", "cn_name": "\u963f\u8132", "en_name": ["Alloxan", "2,4,5,6(1H,3H)-Pyrimidinetetrone", "Alloxan", "Mesoxalylcarbamide", "Mesoxalylurea", "2,4,5,6-Tetraoxohexahydropyrimidine", "Alloxane", "Pyrimidinetetrone", "2,4,5,6-Pyrimidinetetrone", "NSC 7169", "1,3-Diazinane-2,4,5,6-tetrone", "2-Hydroxy-1,4,5,6-tetrahydropyrimidine-4,5,6-trione", "MeSH ID: D000496"], "SMILES": "O=C1C(=O)NC(=O)NC1=O", "physical_data": {"Molecular Weight": "142.07", "Molecular Formula": "C4H2N2O4", "Melting Point": "256 \u00b0C (decomp)", "Density": "1.839 g/cm\u00b3 @ Temp: -5 \u00b0C"}}