{"cas_no": "50-73-7", "cn_name": "2,3,5-\u4e09\u6c2f\u82ef\u7532\u9178", "en_name": ["2,3,5-Trichlorobenzoic acid", "Benzoic acid, 2,3,5-trichloro-", "2,3,5-Trichlorobenzoic acid"], "SMILES": "C(O)(=O)C1=C(Cl)C(Cl)=CC(Cl)=C1", "physical_data": {"Molecular Weight": "225.46", "Molecular Formula": "C7H3Cl3O2", "Melting Point": "164 \u00b0C"}}