{"cas_no": "50-70-4", "cn_name": "\u5c71\u68a8\u9187", "en_name": ["Sorbitol", "D-Glucitol", "Glucitol, D-", "Sorbitol", "Diakarmon", "Sionon", "Sorbit", "Sorbol", "D-Sorbol", "D-Sorbitol", "L-Gulitol", "Neosorb", "Sorbex M", "Sorbex Rp", "Sorbex R", "Sorbex X", "Sorbitol syrup C", "Sorbex S", "Sorbo", "Sorbostyl", "Cholaxine", "Sionit", "Sorbilande", "Nivitin", "D-(-)-Sorbitol", "Sionite", "Siosan", "Esasorb", "Karion", "Neosorb 70/70", "Karion (carbohydrate)", "Glucitol", "Neosorb 20/60DC", "Karion instant", "Sorbit W 70", "(-)-Sorbitol", "Sorbit S", "Neosorb P 60", "Sionit K", "Sorbit D 70", "Sorbit L 70", "Sorbit WP", "Sorbite", "Foodol D 70", "Sorbitol FP", "Sorbitol F", "Glucarine (sorbitol syrup)", "Glucarine", "Neosorb P 20/60", "Sorbit W-Powder", "Neosorb 70/02", "C*Sorbidex", "Sorbidex P 16616", "Sorbit T 70", "Sorbit Kyowa Powder 50M", "Kyowa Powder 50M", "Cystosol", "Sorbitur", "Resulax", "Sorbilax", "E 420", "Neosorb P 60W", "Sorbit D-Powder", "Sorbogem 712", "Sorbit DP 50", "Sorbit W-Powder 50", "NSC 25944", "Sorbit DP", "Sorbitol S", "Sorbitol FK", "C*Sorbidex P 16616", "D-Sorbit 50M", "7B5697N", "Cerestar P 16616", "P 60W", "Sorbidex S 16601", "Neosorb 70/20", "LTS-P 20M", "Sorbit LTSP", "Sorbit D", "C*Sorbidex 16100", "CSorbidex 16100", "Sorbitol Kao", "Neosorb 70/02SB", "Sorbitol SP", "Sorbidex NC 16205", "Parteck SI 150", "Sorbitol 70W", "Sorpart", "Sorbierite", "Sorbidex 200", "Sorbidex S 16603", "LTS P 50M", "Neosorb 71/02SB", "Neosorb 70/02B", "Parteck SI 200", "Parteck SI 400", "Parteck SI 450", "Meritol 121", "Sorbitol FP 100M", "FP 100M", "Sorbit KK", "Meritol 128", "Merisorb 200", "Sorbit KK Powder 50M", "Foodol 70", "Brix 70", "LTS-P G 3", "Sorbitol Ueno 20M", "Sorbitol C", "A 5178", "D-SORB 88", "Plastilys", "Neosorb P 650", "MeSH ID: D013012"], "SMILES": "C(C(C(CO)O)O)(C(CO)O)O", "physical_data": {"Molecular Weight": "182.17", "Molecular Formula": "C6H14O6", "Boiling Point": "295 \u00b0C @ Press: 3.5 Torr", "Melting Point": "110-112 \u00b0C", "Density": "1.489 g/cm\u00b3 @ Temp: 20 \u00b0C"}}