{"cas_no": "50-79-3", "cn_name": "2,5-\u4e8c\u6c2f\u82ef\u7532\u9178", "en_name": ["2,5-Dichlorobenzoic acid", "Benzoic acid, 2,5-dichloro-", "2,5-Dichlorobenzoic acid", "NSC 41889"], "SMILES": "C(O)(=O)C1=C(Cl)C=CC(Cl)=C1", "physical_data": {"Molecular Weight": "191.01", "Molecular Formula": "C7H4Cl2O2", "Boiling Point": "301 \u00b0C", "Melting Point": "154.4 \u00b0C"}}