{"cas_no": "50-78-2", "cn_name": "\u4e59\u9170\u6c34\u6768\u9178", "en_name": ["Aspirin", "Benzoic acid, 2-(acetyloxy)-", "Rhodine", "Salicylic acid acetate", "2-(Acetyloxy)benzoic acid", "Aceticyl", "Acetilum acidulatum", "Acetophen", "Acetosal", "Acetosalic acid", "Acetosalin", "o-Acetoxybenzoic acid", "2-Acetoxybenzoic acid", "Acetylin", "Acetylsal", "Acidum acetylsalicylicum", "Acylpyrin", "Aspirin", "Aspirine", "Aspro", "Asteric", "A.S.A. Empirin", "Helicon", "Measurin", "Salacetin", "Salcetogen", "Saletin", "Xaxa", "Acetylsalicylic acid", "Asagran", "Rhonal", "Acenterine", "SP 189", "ASA", "Duramax", "Ecotrin", "Entrophen", "Enterosarine", "Neuronika", "Endydol", "Acetisal", "Colfarit", "Acisal", "Dolean pH 8", "AC 5230", "Acesal", "Polopiryna", "o-Carboxyphenyl acetate", "Triple-sal", "Rheumintabletten", "Idragin", "Yasta", "Benaspir", "Temperal", "Bialpirina", "2-Carboxyphenyl acetate", "Globentyl", "Novid", "Globoid", "O-Acetylsalicylic acid", "Micristin", "Acetysal", "Acetard", "Medisyl", "Caprin", "ECM", "Empirin", "Istopirin", "o-(Acetyloxy)benzoic acid", "Endosprin", "Aspro Clear", "Kapsazal", "Aspropharm", "Zorprin", "Aspirina 03", "Rhodine NC RP", "Acesan", "Miniasal", "Aspirin Protect 100", "Aspirin Protect 300", "Melhoral", "Claradin", "Coricidin", "Contrheuma Retard", "Aspalon", "Aspergum", "Bialpirinia", "Enterophen", "Solpyron", "Easprin", "Darvon Compound", "Extren", "Gelprin", "Nu-seals", "Supac", "Acetyonyl", "Persistin", "Acimetten", "Coricidin D", "Aspirdrops", "Salycylacetylsalicylic acid", "Ascriptin", "Crystar", "Ascoden 30", "Asatard", "Entericin", "Albyl E", "Adiro", "Cardioaspirina", "Ewin", "Dominal", "Toldex", "NSC 27223", "NSC 406186", "Ascolong", "Aspirin-Direkt", "Asaflow", "Trombyl", "Magnecyl", "Lysoprin (pharmaceutical)", "Salospir", "Rhodine 2312", "Astrix", "Mycropyrin", "Colsprin", "Ecosprin", "Cardioaspirin", "Anopyrin", "Ecopirin", "ThromboASS", "Coraspin", "Cardiomagnyl", "Angettes 75", "Bayaspirin", "IWN 11", "Rhodine 3118", "Rhodine 3220", "Zosprin", "Aspirina", "Rivo", "Durlaza", "Rodine 3220", "Rhodine 3040", "MeSH ID: D001241"], "SMILES": "C(O)(=O)C1=C(OC(C)=O)C=CC=C1", "physical_data": {"Molecular Weight": "180.16", "Molecular Formula": "C9H8O4", "Boiling Point": "197-200 \u00b0C @ Press: 7 Torr", "Melting Point": "135 \u00b0C", "Density": "1.40 g/cm\u00b3"}}