{"cas_no": "50-74-8", "cn_name": "2,3,4,5-\u56db\u6c2f\u82ef\u7532\u9178", "en_name": ["2,3,4,5-Tetrachlorobenzoic acid", "Benzoic acid, 2,3,4,5-tetrachloro-", "2,3,4,5-Tetrachlorobenzoic acid"], "SMILES": "C(O)(=O)C1=C(Cl)C(Cl)=C(Cl)C(Cl)=C1", "physical_data": {"Molecular Weight": "259.90", "Molecular Formula": "C7H2Cl4O2", "Melting Point": "190.5-191.5 \u00b0C"}}