{"cas_no": "50-81-7", "cn_name": "\u7ef4\u751f\u7d20 C", "en_name": ["L-Ascorbic acid", "L-Ascorbic acid", "Allercorb", "Antiscorbic vitamin", "Antiscorbutic vitamin", "Ascorbajen", "Ascorin", "Ascorteal", "Ascorvit", "Cantan", "Cantaxin", "Catavin C", "Cebicure", "Cebione", "Cecon", "Cegiolan", "Ceglion", "Celin", "Ce-Mi-Lin", "Cenetone", "Cereon", "Cergona", "Cescorbat", "Cetemican", "Cevalin", "Cevatine", "Cevex", "Cevimin", "Ce-Vi-Sol", "Cevitamic acid", "Cevitamin", "Cevitan", "Cevitex", "Ciamin", "Cipca", "Concemin", "Davitamon C", "3-keto-L-Gulofuranolactone", "L-3-Keto-threo-hexuronic acid lactone", "Laroscorbine", "Lemascorb", "Liqui-Cee", "3-Oxo-L-gulofuranolactone", "Planavit C", "Proscorbin", "C-Quin", "Ribena", "Secorbate", "Vicelat", "Vicin", "Vitacimin", "Vitacin", "Vitamin C", "Vitamisin", "Vitascorbol", "Redoxon", "Vitacee", "L-threo-Hex-2-enonic acid, \u03b3-lactone", "Ascorbic acid", "L-Lyxoascorbic acid", "Xyloascorbic acid, L-", "Cevital", "L-Xyloascorbic acid", "C-Vimin", "Testascorbic", "Adenex", "Hybrin", "Cetamid", "Colascor", "Scorbu C", "Xitix", "Celaskon", "Cebion", "Cemagyl", "Ascorbutina", "Viforcit", "Vitace", "IDO-C", "Viscorin", "Ascoltin", "Hicee", "Neo-Valdrin", "(+)-Ascorbic acid", "Citrovit", "Chewcee", "L-threo-Ascorbic acid", "Ronotec 100", "L-(+)-Ascorbic acid", "Rontex 100", "Juvamine", "Rovimix C", "Vasc", "P 1110", "VC 97", "Kangbingfeng", "Suncoat VC 40", "Viscorin 100M", "Cewin", "Ceklin", "Ascorbicap", "Cetane", "Cetane-Caps TC", "Cetebe", "E 300", "NSC 218455", "NSC 33832", "Cell C", "Ascorell", "C-L 6/PW", "VC 40", "100M", "Cinal", "Rovimix C-EC", "Vitashure 160", "Cevarol", "Tanvimil C", "Vaginorm-C", "Monovitan C", "Pascorbin", "Ascorbalox", "Energil C", "Bovi-C", "Emvit-C", "Novasol Cof", "5-(1,2-Dihydroxyethyl)-3,4-dihydroxy-5H-furan-2-one", "5-(1,2-Dihydroxyethyl)-3,4-dihydroxy-2(5H)-furanone", "5-(1,2-Dihydroxyethyl)-3,4-dihydroxyfuran-2(5H)-one", "Vitaminum C Aflofarm", "Vitamin C Type SS", "YKL 35678", "MeSH ID: D001205"], "SMILES": "C(CO)(O)C1C(O)=C(O)C(=O)O1", "physical_data": {"Molecular Weight": "176.12", "Molecular Formula": "C6H8O6", "Melting Point": "190-192 \u00b0C (decomp)", "Density": "1.65 g/cm\u00b3"}}