{"cas_no": "50-84-0", "cn_name": "2,4-\u4e8c\u6c2f\u82ef\u7532\u9178", "en_name": ["2,4-Dichlorobenzoic acid", "Benzoic acid, 2,4-dichloro-", "2,4-Dichlorobenzoic acid", "NSC 578"], "SMILES": "C(O)(=O)C1=C(Cl)C=C(Cl)C=C1", "physical_data": {"Molecular Weight": "191.01", "Molecular Formula": "C7H4Cl2O2", "Melting Point": "164.2 \u00b0C"}}