{"cas_no": "50-80-6", "cn_name": "5-\u6c28\u57fa-2-\u7f9f\u57fa\u82ef\u4e59\u916e", "en_name": ["2-Acetyl-4-aminophenol", "Ethanone, 1-(5-amino-2-hydroxyphenyl)-", "Acetophenone, 5\u2032-amino-2\u2032-hydroxy-", "1-(5-Amino-2-hydroxyphenyl)ethanone", "2-Acetyl-4-aminophenol", "3-Acetyl-4-hydroxyaniline", "5\u2032-Amino-2\u2032-hydroxyacetophenone", "RG 14381", "1-(5-Amino-2-hydroxyphenyl)ethan-1-one"], "SMILES": "C(C)(=O)C1=C(O)C=CC(N)=C1", "physical_data": {"Molecular Weight": "151.16", "Molecular Formula": "C8H9NO2", "Melting Point": "110 \u00b0C"}}