{"cas_no": "50-85-1", "cn_name": "4-\u7532\u57fa\u6c34\u6768\u9178", "en_name": ["4-Methylsalicylic acid", "Benzoic acid, 2-hydroxy-4-methyl-", "2,4-Cresotic acid", "2-Hydroxy-4-methylbenzoic acid", "\u03b3-Cresotic acid", "m-Cresotic acid", "m-Homosalicylic acid", "2-Hydroxy-p-toluic acid", "m-Cresotinic acid", "4-Methylsalicylic acid", "4-Methyl-2-hydroxybenzoic acid", "p-Methylsalicylic acid", "NSC 16634", "4-Methyl-2-hydroxybenzenecarboxylic acid"], "SMILES": "C(O)(=O)C1=C(O)C=C(C)C=C1", "physical_data": {"Molecular Weight": "152.15", "Molecular Formula": "C8H8O3", "Melting Point": "177 \u00b0C"}}