{"cas_no": "50-89-5", "cn_name": "beta-\u80f8\u82f7", "en_name": ["Thymidine", "Thymidine", "dT", "Thymine 2-desoxyriboside", "Uridine, 2\u2032-deoxy-5-methyl-", "5-Methyldeoxyuridine", "\u03b2-D-Ribofuranoside, thymine-1 2-deoxy-", "2,4(1H,3H)-Pyrimidinedione, 1-(2-deoxy-\u03b2-D-erythro-pentofuranosyl)-5-methyl-", "Deoxythymidine", "Thymine deoxyriboside", "2\u2032-Deoxythymidine", "Thymidin", "DThyd", "1-(2-Deoxy-\u03b2-D-erythro-pentofuranosyl)-5-methyl-2,4(1H,3H)-pyrimidinedione", "Deoxyribothymidine", "5-Methyl-2\u2032-deoxyuridine", "NSC 21548", "10: PN: CN101531718 PAGE: 4 claimed sequence", "5: PN: CN104513856 PAGE: 2 claimed sequence", "\u03b2-Thymidine", "31: PN: CN108866051 SEQID: 31 claimed sequence", "Doxribtimine", "20: PN: WO2022263569 PAGE: 208 claimed sequence", "MeSH ID: D013936"], "SMILES": "O=C1N(C2OC(CO)C(O)C2)C=C(C)C(=O)N1", "physical_data": {"Molecular Weight": "242.23", "Molecular Formula": "C10H14N2O5", "Melting Point": "186.5 \u00b0C"}}