{"cas_no": "50-86-2", "cn_name": "4-\u4e59\u9170\u6c28\u57fa\u6c34\u6768\u9178", "en_name": ["4-Acetamidosalicylic acid", "Benzoic acid, 4-(acetylamino)-2-hydroxy-", "Salicylic acid, 4-acetamido-", "4-(Acetylamino)-2-hydroxybenzoic acid", "N-Acetyl-4-aminosalicylic acid", "N-Acetyl-p-aminosalicylic acid", "p-Acetamidosalicylic acid", "4-Acetamidosalicylic acid", "3-Hydroxy-4-carboxyacetanilide", "2-Hydroxy-4-acetamidobenzoic acid", "NSC 54182", "4-Acetamido-2-hydroxybenzoic acid", "p-(Acetylamino)salicylic acid"], "SMILES": "C(O)(=O)C1=C(O)C=C(NC(C)=O)C=C1", "physical_data": {"Molecular Weight": "195.17", "Molecular Formula": "C9H9NO4", "Melting Point": "220-232 \u00b0C (decomp)"}}