{"cas_no": "50-90-8", "cn_name": "5-\u6c2f-2-\u8131\u6c27\u5c3f\u5627\u5576\u6838\u82f7", "en_name": ["5-Chloro-2\u2032-deoxyuridine", "Uridine, 5-chloro-2\u2032-deoxy-", "5-Chloro-2\u2032-deoxyuridine", "5-Chlorodeoxyuridine", "2\u2032-Deoxy-5-chlorouridine", "Chlorodeoxyuridine"], "SMILES": "O=C1N(C2OC(CO)C(O)C2)C=C(Cl)C(=O)N1", "physical_data": {"Molecular Weight": "262.65", "Molecular Formula": "C9H11ClN2O5", "Melting Point": "174-178 \u00b0C (decomp)"}}