{"cas_no": "50-91-9", "cn_name": "5-\u6c1f-2'-\u8131\u6c27\u8132\u6838\u82f7", "en_name": ["Floxuridine", "Uridine, 2\u2032-deoxy-5-fluoro-", "2\u2032-Deoxy-5-fluorouridine", "Floxuridine", "5-Fluorodeoxyuridine", "5-Fluoro-2\u2032-deoxyuridine", "5-Fluorouracil 2\u2032-deoxyriboside", "5-Fluorouracil deoxyriboside", "NSC 27640", "1-(2-Deoxy-\u03b2-D-ribofuranosyl)-5-fluorouracil", "5-Fluoro-2\u2032-deoxy-\u03b2-uridine", "FUDR", "Floxuridin", "FdUrd", "NSC 26740", "5-FudR", "MeSH ID: D005467"], "SMILES": "O=C1N(C2OC(CO)C(O)C2)C=C(F)C(=O)N1", "physical_data": {"Molecular Weight": "246.19", "Molecular Formula": "C9H11FN2O5", "Melting Point": "150-151 \u00b0C"}}