{"cas_no": "50-99-7", "cn_name": "D-\u65e0\u6c34\u8461\u8404\u7cd6", "en_name": ["Glucose", "D-Glucose", "Anhydrous dextrose", "Cartose", "Cerelose", "Corn sugar", "Dextropur", "Dextrose", "Dextrosol", "Glucolin", "Grape sugar", "Glucose", "D(+)-Glucose", "Sugar, grape", "Glucosteril", "Tabfine 097(HS)", "(+)-Glucose", "Staleydex 111", "Staleydex 333", "Vadex", "Cerelose 2001", "Goldsugar", "Maxim Energy Gel", "Roferose ST", "Glucose intolerance", "Clintose L", "Staleydex 130", "CPC hydrate", "Clearsweet 95", "Glucodin", "Meritose 200", "Meritose", "Staleydex 95M", "C*Dry GL 01934", "Hi-Mesh", "Impaired glucose tolerance", "Latent diabetes", "Malabsorption of glucose", "Tackidex 30L75", "Roclys C 30725", "D 50W", "TDA-S", "Toleran G", "FeedBead", "Glucopyranose", "NSC 287045", "Glucosoft", "Brake (pH-encapsulated glucose)", "TDA-C", "TDA-CJ", "Chemical diabetes", "Hi-Fructo M", "D-Glucose", "D-glucose", "MeSH ID: D005947"], "SMILES": "C(C(C(C=O)O)O)(C(CO)O)O", "physical_data": {"Molecular Weight": "180.16", "Molecular Formula": "C6H12O6", "Melting Point": "146 \u00b0C", "Density": "1.544 g/cm\u00b3"}}