{"cas_no": "50-98-6", "cn_name": "\u76d0\u9178\u9ebb\u9ec4\u78b1", "en_name": ["(-)-Ephedrine hydrochloride", "Benzenemethanol, \u03b1-[(1S)-1-(methylamino)ethyl]-, hydrochloride (1:1), (\u03b1R)-", "Ephedrine, hydrochloride, (-)-", "Benzenemethanol, \u03b1-[1-(methylamino)ethyl]-, hydrochloride, [R-(R*,S*)]-", "Benzenemethanol, \u03b1-[(1S)-1-(methylamino)ethyl]-, hydrochloride, (\u03b1R)-", "Ephedrine hydrochloride", "l-Ephedrine hydrochloride", "(-)-Ephedrine hydrochloride", "l-\u03b1-[1-(Methylamino)ethyl]benzyl alcohol hydrochloride", "Ephedrinium chloride", "(1R,2S)-(-)-Ephedrine hydrochloride", "L-erythro-Ephedrine hydrochloride", "l-Ephedrine hydrochloride", "Altusin", "L-Ephedrine hydrochloride", "(-)-Ephedrin hydrochloride", "Ephedronguent", "(1R,2S)-Ephedrine hydrochloride", "CPDD 0047", "Ephedral", "Sanedrine", "(1R,2S)-(-)-2-Ephedrinium hydrochloride", "Enurace"], "SMILES": "C(C(NC)C)(O)C1=CC=CC=C1.Cl", "physical_data": {"Molecular Weight": "", "Molecular Formula": "C10H15NO.ClH", "Melting Point": "218 \u00b0C"}}