{"cas_no": "500-38-9", "cn_name": "\u53bb\u7532\u4e8c\u6c22\u6108\u521b\u6728\u9178", "en_name": ["Nordihydroguaiaretic acid", "1,2-Benzenediol, 4,4\u2032-(2,3-dimethyl-1,4-butanediyl)bis-", "Pyrocatechol, 4,4\u2032-(2,3-dimethyltetramethylene)di-", "4,4\u2032-(2,3-Dimethyl-1,4-butanediyl)bis[1,2-benzenediol]", "Butane, 1,4-bis(3,4-dihydroxyphenyl)-2,3-dimethyl-", "Dihydronorguaiaretic acid", "\u03b2,\u03b3-Dimethyl-\u03b1,\u03b4-bis(3,4-dihydroxyphenyl)butane", "4,4\u2032-(2,3-Dimethyltetramethylene)dipyrocatechol", "Dinorguaiaretic acid, dihydro-", "NDGA", "Nordihydroguaiaretic acid", "Norguaiaretic acid, dihydro-", "4,4\u2032-(2,3-Dimethyl-1,4-butanediyl)bis(pyrocatechol)", "1,4-Bis(3,4-dihydroxyphenyl)-2,3-dimethylbutane", "NSC 4291", "4-[4-(3,4-Dihydroxyphenyl)-2,3-dimethylbutyl]benzene-1,2-diol"], "SMILES": "C(C(C(CC1=CC(O)=C(O)C=C1)C)C)C2=CC(O)=C(O)C=C2", "physical_data": {"Molecular Weight": "302.36", "Molecular Formula": "C18H22O4", "Melting Point": "185.5 \u00b0C"}}