{"cas_no": "500-85-6", "cn_name": "\u975b\u915a", "en_name": ["Phenolindophenol", "2,5-Cyclohexadien-1-one, 4-[(4-hydroxyphenyl)imino]-", "Indophenol", "4-[(4-Hydroxyphenyl)imino]-2,5-cyclohexadien-1-one", "Benzenoneindophenol", "Phenolindophenol", "MeSH ID: D007215"], "SMILES": "N(C1=CC=C(O)C=C1)=C2C=CC(=O)C=C2", "physical_data": {"Molecular Weight": "199.21", "Molecular Formula": "C12H9NO2", "Melting Point": "160 \u00b0C"}}