{"cas_no": "500-62-9", "cn_name": "\u7532\u6c27\u9189\u6912\u7d20", "en_name": ["Yangonin", "2H-Pyran-2-one, 4-methoxy-6-[(1E)-2-(4-methoxyphenyl)ethenyl]-", "2H-Pyran-2-one, 4-methoxy-6-(p-methoxystyryl)-", "Yangonin", "2H-Pyran-2-one, 4-methoxy-6-[2-(4-methoxyphenyl)ethenyl]-, (E)-", "4-Methoxy-6-[(1E)-2-(4-methoxyphenyl)ethenyl]-2H-pyran-2-one", "4-Methoxy-6-[\u03b2-(p-anisyl)vinyl]-\u03b1-pyrone", "6-(p-Methoxystyryl)-4-methoxy-\u03b1-pyrone"], "SMILES": "C(=CC1=CC=C(OC)C=C1)C2=CC(OC)=CC(=O)O2", "physical_data": {"Molecular Weight": "258.27", "Molecular Formula": "C15H14O4", "Melting Point": "156 \u00b0C", "Density": "1.325 g/cm\u00b3 @ Temp: 20 \u00b0C"}}