{"cas_no": "500-65-2", "cn_name": "\u4e39\u53f6\u5927\u9ec4\u7d20", "en_name": ["Rhapontigenin", "1,3-Benzenediol, 5-[(1E)-2-(3-hydroxy-4-methoxyphenyl)ethenyl]-", "3,3\u2032,5-Stilbenetriol, 4\u2032-methoxy-, (E)-", "1,3-Benzenediol, 5-[2-(3-hydroxy-4-methoxyphenyl)ethenyl]-, (E)-", "5-[(1E)-2-(3-Hydroxy-4-methoxyphenyl)ethenyl]-1,3-benzenediol", "Pontigenin", "Prontigenin", "Protigenin", "Rhapontigenin", "Rhapontin genin", "Rhapontin aglycone"], "SMILES": "C(=CC1=CC(O)=C(OC)C=C1)C2=CC(O)=CC(O)=C2", "physical_data": {"Molecular Weight": "258.27", "Molecular Formula": "C15H14O4", "Melting Point": "180-181 \u00b0C"}}