{"cas_no": "500-28-7", "cn_name": "\u6c2f\u786b\u78f7", "en_name": ["Chlorthion", "Phosphorothioic acid, O-(3-chloro-4-nitrophenyl) O,O-dimethyl ester", "Phosphorothioic acid, O-(3-chloro-4-nitrophenyl) O,O-di-Me ester", "OMS 217", "O-(3-Chloro-4-nitrophenyl) O,O-dimethyl phosphorothioate", "Chlorothion", "Chlorthion", "Compound 22/190", "O,O-Dimethyl O-3-chloro-4-nitrophenyl phosphorothioate", "O,O-Dimethyl O-(3-chloro-4-nitrophenyl) thiophosphate", "Methylchlorothion", "Chlorthion methyl", "O,O-Dimethyl O-(3-chloro-4-nitrophenyl)thionophosphate", "BAY 22190", "NSC 8927"], "SMILES": "O(P(OC)(OC)=S)C1=CC(Cl)=C(N(=O)=O)C=C1", "physical_data": {"Molecular Weight": "297.65", "Molecular Formula": "C8H9ClNO5PS", "Boiling Point": "136 \u00b0C @ Press: 0.23 Torr", "Melting Point": "21 \u00b0C", "Density": "1.437 g/cm\u00b3 @ Temp: 20 \u00b0C"}}