{"cas_no": "500-22-1", "cn_name": "3-\u5421\u5576\u7532\u919b", "en_name": ["3-Pyridinecarboxaldehyde", "3-Pyridinecarboxaldehyde", "Nicotinaldehyde", "3-Pyridinealdehyde", "\u03b2-Pyridinecarbonaldehyde", "Rowalind", "3-Pyridylcarboxaldehyde", "3-Pyridinaldehyde", "3-Formylpyridine", "3-Pyridylaldehyde", "Nicotinealdehyde", "Nicotinic aldehyde", "Pyridine-3-carbaldehyde", "\u03b2-Formylpyridine", "m-Formylpyridine", "NSC 8952", "Pyridine-5-carboxaldehyde", "3-Pyridylcarboxyaldehyde", "Pyridine-3-formaldehyde", "Pyridine-3-carboxaldehyde"], "SMILES": "C(=O)C=1C=CC=NC1", "physical_data": {"Molecular Weight": "107.11", "Molecular Formula": "C6H5NO", "Boiling Point": "89.5 \u00b0C", "Melting Point": "214 \u00b0C"}}