{"cas_no": "500-92-5", "cn_name": "\u6c2f\u80cd", "en_name": ["Proguanil", "Imidodicarbonimidic diamide, N-(4-chlorophenyl)-N\u2032-(1-methylethyl)-", "Biguanide, 1-(p-chlorophenyl)-5-isopropyl-", "N-(4-Chlorophenyl)-N\u2032-(1-methylethyl)imidodicarbonimidic diamide", "Chlorguanide", "Chloroguanide", "1-(p-Chlorophenyl)-5-isopropylbiguanide", "Proguanil", "Bigumal", "1-Isopropyl-5-(4-chlorophenyl)biguanide", "Paludrin", "Chlorguanid", "N1-p-Chlorophenyl-N5-isopropylbiguanide", "IPS 07004"], "SMILES": "N(C(NC(NC(C)C)=N)=N)C1=CC=C(Cl)C=C1", "physical_data": {"Molecular Weight": "253.73", "Molecular Formula": "C11H16ClN5", "Melting Point": "129 \u00b0C"}}