{"cas_no": "500-64-1", "cn_name": "\u9189\u6912\u7d20", "en_name": ["(+)-Kavain", "2H-Pyran-2-one, 5,6-dihydro-4-methoxy-6-[(1E)-2-phenylethenyl]-, (6R)-", "2H-Pyran-2-one, 5,6-dihydro-4-methoxy-6-styryl-, (R)-", "2H-Pyran-2-one, 5,6-dihydro-4-methoxy-6-(2-phenylethenyl)-, [R-(E)]-", "(6R)-5,6-Dihydro-4-methoxy-6-[(1E)-2-phenylethenyl]-2H-pyran-2-one", "Gonosan", "Kawain", "(+)-Kavain", "Kavain", "d-Kawain", "NSC 112162", "(R)-(+)-Kavain", "(+)-Kawain"], "SMILES": "C(=CC1=CC=CC=C1)C2CC(OC)=CC(=O)O2", "physical_data": {"Molecular Weight": "230.26", "Molecular Formula": "C14H14O3", "Boiling Point": "196 \u00b0C", "Melting Point": "105.5 \u00b0C"}}