{"cas_no": "500-05-0", "cn_name": "\u9999\u8c46\u9178", "en_name": ["Coumalic acid", "2H-Pyran-5-carboxylic acid, 2-oxo-", "Coumalic acid", "Glutaconic acid, 4-(hydroxymethylene)-, \u03b4-lactone", "2-Oxo-2H-pyran-5-carboxylic acid", "Cumalic acid", "2-Oxo-1(2H)-pyran-5-carboxylic acid", "\u03b1-Pyrone-5-carboxylic acid", "2-Pentenedioic acid, 4-(hydroxymethylene)-, \u03b4-lactone", "2-Oxopyran-5-carboxylic acid", "NSC 22978"], "SMILES": "C(O)(=O)C=1C=CC(=O)OC1", "physical_data": {"Molecular Weight": "140.09", "Molecular Formula": "C6H4O4", "Melting Point": "207.5 \u00b0C (decomp)"}}