{"cas_no": "500-67-4", "cn_name": "5-\u5e9a\u57fa\u82ef-1,3-\u4e8c\u9187", "en_name": ["Spherophorol", "1,3-Benzenediol, 5-heptyl-", "Resorcinol, 5-heptyl-", "Spherophorol", "5-Heptyl-1,3-benzenediol", "5-Heptylresorcinol", "Sphaeropherol", "3,5-Dihydroxy-1-heptylbenzene"], "SMILES": "C(CCCCCC)C1=CC(O)=CC(O)=C1", "physical_data": {"Molecular Weight": "208.30", "Molecular Formula": "C13H20O2", "Melting Point": "51 \u00b0C"}}