{"cas_no": "500-73-2", "cn_name": "\u4e09\u6c1f\u4e59\u9178\u82ef\u916f", "en_name": ["Acetic acid, 2,2,2-trifluoro-, phenyl ester", "Acetic acid, 2,2,2-trifluoro-, phenyl ester", "Acetic acid, trifluoro-, phenyl ester", "Phenyl trifluoroacetate", "Phenyl 2,2,2-trifluoroacetate"], "SMILES": "O(C(C(F)(F)F)=O)C1=CC=CC=C1", "physical_data": {"Molecular Weight": "190.12", "Molecular Formula": "C8H5F3O2", "Boiling Point": "146.5-147.0 \u00b0C", "Melting Point": "-8.5 \u00b0C", "Density": "1.276 g/cm\u00b3 @ Temp: 25 \u00b0C"}}