{"cas_no": "500-98-1", "cn_name": "\u82ef\u4e59\u9170\u7518\u6c28\u9178", "en_name": ["Phenylacetylglycine", "Glycine, N-(2-phenylacetyl)-", "Glycine, N-(phenylacetyl)-", "Phenaceturic acid", "N-(2-Phenylacetyl)glycine", "Phenylacetylglycine", "Phenacetylglycine", "N-Phenacetylglycine", "N-(Phenylacetyl)glycine", "NSC 408424", "NSC 92778", "2-(2-Phenylacetamido)acetic acid", "(2-Phenylacetyl)glycine", "2-[(2-Phenylacetyl)amino]acetic acid"], "SMILES": "C(C(NCC(O)=O)=O)C1=CC=CC=C1", "physical_data": {"Molecular Weight": "193.20", "Molecular Formula": "C10H11NO3", "Melting Point": "145 \u00b0C"}}