{"cas_no": "500-55-0", "cn_name": "\u963f\u6734\u963f\u6258\u54c1", "en_name": ["Apoatropine", "Benzeneacetic acid, \u03b1-methylene-, (3-endo)-8-methyl-8-azabicyclo[3.2.1]oct-3-yl ester", "Apoatropine", "1\u03b1H,5\u03b1H-Tropan-3\u03b1-ol, atropate (ester)", "Benzeneacetic acid, \u03b1-methylene-, 8-methyl-8-azabicyclo[3.2.1]oct-3-yl ester, endo-", "Atropamine", "Atropyltropeine", "Apoatropin", "Atropamin", "Apohyoscyamine", "Apohyoscyamin"], "SMILES": "O(C(C(=C)C1=CC=CC=C1)=O)C2CC3N(C)C(C2)CC3", "physical_data": {"Molecular Weight": "271.35", "Molecular Formula": "C17H21NO2", "Melting Point": "62 \u00b0C"}}