{"cas_no": "500-66-3", "cn_name": "3,5-\u4e8c\u7f9f\u57fa\u620a\u82ef", "en_name": ["Olivetol", "1,3-Benzenediol, 5-pentyl-", "Olivetol", "Resorcinol, 5-pentyl-", "5-Pentyl-1,3-benzenediol", "3,5-Dihydroxyamylbenzene", "5-Pentylresorcinol", "5-n-Amylresorcinol", "5-n-Pentylresorcinol", "1,3-Dihydroxy-5-pentylbenzene", "5-Pentylbenzene-1,3-diol", "3,5-Dihydroxy-1-pentylbenzene"], "SMILES": "C(CCCC)C1=CC(O)=CC(O)=C1", "physical_data": {"Molecular Weight": "180.24", "Molecular Formula": "C11H16O2", "Boiling Point": "164 \u00b0C", "Melting Point": "41 \u00b0C"}}