{"cas_no": "500-44-7", "cn_name": "\u542b\u7f9e\u8349\u7d20", "en_name": ["Mimosine", "1(4H)-Pyridinepropanoic acid, \u03b1-amino-3-hydroxy-4-oxo-, (\u03b1S)-", "Mimosine", "1(4H)-Pyridinepropanoic acid, \u03b1-amino-3-hydroxy-4-oxo-, (S)-", "(\u03b1S)-\u03b1-Amino-3-hydroxy-4-oxo-1(4H)-pyridinepropanoic acid", "Leucaenine", "Leucaenol", "Leucenol", "Leucenine", "L-Mimosine", "Mimosin", "NSC 69188", "MeSH ID: D008898"], "SMILES": "C(C(C(O)=O)N)N1C=C(O)C(=O)C=C1", "physical_data": {"Molecular Weight": "198.18", "Molecular Formula": "C8H10N2O4", "Melting Point": "225 \u00b0C"}}