{"cas_no": "500-99-2", "cn_name": "3,5-\u4e8c\u7532\u6c27\u57fa\u82ef\u915a", "en_name": ["3,5-Dimethoxyphenol", "Phenol, 3,5-dimethoxy-", "3,5-Dimethoxyphenol", "Phloroglucinol dimethyl ether", "Taxicatigenin", "1-Hydroxy-3,5-dimethoxybenzene", "NSC 70955"], "SMILES": "O(C)C1=CC(OC)=CC(O)=C1", "physical_data": {"Molecular Weight": "154.16", "Molecular Formula": "C8H10O3", "Boiling Point": "199 \u00b0C", "Melting Point": "37 \u00b0C"}}