{"cas_no": "5000-48-6", "cn_name": "(4-\u6c2f\u82ef\u78fa\u9170)\u4e19\u916e", "en_name": ["1-[(4-Chlorophenyl)sulfonyl]-2-propanone", "2-Propanone, 1-[(4-chlorophenyl)sulfonyl]-", "2-Propanone, 1-[(p-chlorophenyl)sulfonyl]-", "1-[(4-Chlorophenyl)sulfonyl]-2-propanone", "(p-Chlorophenylsulfonyl)acetone", "1-(4-Chlorophenylsulfonyl)propan-2-one", "1-(4-Chlorobenzenesulfonyl)propan-2-one", "1-[(4-Chlorophenyl)sulfonyl]acetone"], "SMILES": "S(CC(C)=O)(=O)(=O)C1=CC=C(Cl)C=C1", "physical_data": {"Molecular Weight": "232.68", "Molecular Formula": "C9H9ClO3S", "Melting Point": "83 \u00b0C"}}