{"cas_no": "500011-86-9", "cn_name": "3-\u6eb4-1-(3-\u6c2f\u5421\u5576-2-\u57fa)-1H-\u5421\u5511-5-\u7532\u9178", "en_name": ["3-Bromo-1-(3-chloro-2-pyridinyl)-1H-pyrazole-5-carboxylic acid", "1H-Pyrazole-5-carboxylic acid, 3-bromo-1-(3-chloro-2-pyridinyl)-", "3-Bromo-1-(3-chloro-2-pyridinyl)-1H-pyrazole-5-carboxylic acid"], "SMILES": "C(O)(=O)C=1N(N=C(Br)C1)C2=C(Cl)C=CC=N2", "physical_data": {"Molecular Weight": "302.51", "Molecular Formula": "C9H5BrClN3O2", "Melting Point": "197-200 \u00b0C"}}