{"cas_no": "500011-91-6", "cn_name": "3-\u6eb4-1-(3-\u6c2f\u5421\u5576-2-\u57fa)-4,5-\u4e8c\u6c22-1H-\u5421\u5511-5-\u7532\u9178\u4e59\u916f", "en_name": ["1H-Pyrazole-5-carboxylic acid, 3-bromo-1-(3-chloro-2-pyridinyl)-4,5-dihydro-, ethyl ester", "1H-Pyrazole-5-carboxylic acid, 3-bromo-1-(3-chloro-2-pyridinyl)-4,5-dihydro-, ethyl ester", "Ethyl 3-Bromo-1-(3-chloro-2-pyridinyl)-4,5-dihydro-1H-pyrazole-5-carboxylate"], "SMILES": "C(OCC)(=O)C1N(N=C(Br)C1)C2=C(Cl)C=CC=N2", "physical_data": {"Molecular Weight": "332.58", "Molecular Formula": "C11H11BrClN3O2", "Melting Point": "59-60 \u00b0C"}}