{"cas_no": "5000-46-4", "cn_name": "\u7532\u78fa\u9170\u4e59\u916e", "en_name": ["1-(Methylsulfonyl)-2-propanone", "2-Propanone, 1-(methylsulfonyl)-", "2-Propanone, (methylsulfonyl)-", "1-(Methylsulfonyl)-2-propanone", "(Methylsulfonyl)acetone", "Methanesulfonylacetone", "NSC 35395", "1-Methanesulfonylpropan-2-one"], "SMILES": "C(S(C)(=O)=O)C(C)=O", "physical_data": {"Molecular Weight": "136.17", "Molecular Formula": "C4H8O3S", "Melting Point": "54 \u00b0C"}}