{"cas_no": "5000-66-8", "cn_name": "2-\u6eb4-2'-\u6c2f\u82ef\u4e59\u916e", "en_name": ["2-Bromo-1-(2-chlorophenyl)ethanone", "Ethanone, 2-bromo-1-(2-chlorophenyl)-", "Acetophenone, 2-bromo-2\u2032-chloro-", "2-Bromo-1-(2-chlorophenyl)ethanone", "2-Bromo-2\u2032-chloroacetophenone", "o-Chlorophenacyl bromide", "2-Chlorophenacyl bromide", "2-Bromo-o-chloroacetophenone", "2-Bromo-1-(2\u2032-chlorophenyl)ethanone", "Bromomethyl 2-chlorophenyl ketone", "2-Bromo-1-(2-chlorophenyl)-1-ethanone"], "SMILES": "C(CBr)(=O)C1=C(Cl)C=CC=C1", "physical_data": {"Molecular Weight": "233.49", "Molecular Formula": "C8H6BrClO", "Boiling Point": "97.5-98 \u00b0C @ Press: 1 Torr", "Melting Point": "25-28 \u00b0C"}}