{"cas_no": "500011-88-1", "cn_name": "ETHYL 1-(3-CHLORO-2-PYRIDINYL)-3-PYRAZOLIDINONE-5-CARBOXYLATE", "en_name": ["Ethyl 2-(3-Chloro-2-pyridinyl)-5-oxo-3-pyrazolidinecarboxylate", "3-Pyrazolidinecarboxylic acid, 2-(3-chloro-2-pyridinyl)-5-oxo-, ethyl ester", "Ethyl 2-(3-Chloro-2-pyridinyl)-5-oxo-3-pyrazolidinecarboxylate", "Ethyl 1-(3-chloro-2-pyridinyl)-3-pyrazolidinone-5-carboxylate", "Ethyl 2-(3-chloro-2-pyridyl)-5-oxopyrazolidine-3-carboxylate"], "SMILES": "C(OCC)(=O)C1N(NC(=O)C1)C2=C(Cl)C=CC=N2", "physical_data": {"Molecular Weight": "269.68", "Molecular Formula": "C11H12ClN3O3", "Melting Point": "132-134 \u00b0C"}}