{"cas_no": "5000-65-7", "cn_name": "2-\u6eb4-3\u2018-\u7532\u6c27\u57fa\u82ef\u4e59\u916e", "en_name": ["2-Bromo-3\u2032-methoxyacetophenone", "Ethanone, 2-bromo-1-(3-methoxyphenyl)-", "Acetophenone, 2-bromo-3\u2032-methoxy-", "2-Bromo-1-(3-methoxyphenyl)ethanone", "\u03b1-Bromo-3\u2032-methoxyacetophenone", "m-Methoxyphenacyl bromide", "2-Bromo-3\u2032-methoxyacetophenone", "3-Methoxyphenacyl bromide", "\u03b1-Bromo-m-methoxyacetophenone", "2-Bromo-m-methoxyacetophenone", "m-(Bromoacetyl)anisole", "\u03c9-Bromo-3-methoxyacetophenone", "NSC 405833", "2-Bromo-1-[3-(methyloxy)phenyl]ethanone", "2-Bromo-1-(3-methoxyphenyl-1-yl)ethanone", "2-Bromo-1-(3-methoxyphenyl)ethan-1-one"], "SMILES": "C(CBr)(=O)C1=CC(OC)=CC=C1", "physical_data": {"Molecular Weight": "229.07", "Molecular Formula": "C9H9BrO2", "Melting Point": "63.0-64.3 \u00b0C"}}