{"cas_no": "5002-47-1", "cn_name": "\u7678\u6c1f\u594b\u4e43\u9759", "en_name": ["Fluphenazine decanoate", "Decanoic acid, 2-[4-[3-[2-(trifluoromethyl)-10H-phenothiazin-10-yl]propyl]-1-piperazinyl]ethyl ester", "Decanoic acid, 2-[4-[3-[2-(trifluoromethyl)phenothiazin-10-yl]propyl]-1-piperazinyl]ethyl ester", "1-Piperazineethanol, 4-[3-[2-(trifluoromethyl)phenothiazin-10-yl]propyl]-, decanoate (ester)", "SQ 10733", "Fluphenazine decanoate", "Fluorophenazine decanoate", "Dapotum D", "Lyogen", "Modecate", "Flufenazine decanoate", "Prolixin decanoate", "Moditen depot", "QD 10733", "Depot", "NSC 169510", "2-(4-(3-(2-(Trifluoromethyl)-10H-phenothiazin-10-yl)propyl)piperazin-1-yl)ethyl decanoate"], "SMILES": "C(CCN1CCN(CCOC(CCCCCCCCC)=O)CC1)N2C=3C(SC=4C2=CC=CC4)=CC=C(C(F)(F)F)C3", "physical_data": {"Molecular Weight": "591.77", "Molecular Formula": "C32H44F3N3O2S", "Melting Point": "30-32 \u00b0C"}}