{"cas_no": "500287-72-9", "cn_name": "\u5229\u5339\u97e6\u6797", "en_name": ["Rilpivirine", "Benzonitrile, 4-[[4-[[4-[(1E)-2-cyanoethenyl]-2,6-dimethylphenyl]amino]-2-pyrimidinyl]amino]-", "4-[[4-[[4-[(1E)-2-Cyanoethenyl]-2,6-dimethylphenyl]amino]-2-pyrimidinyl]amino]benzonitrile", "Rilpivirine", "R 278474", "TMC 278", "Rekambys"], "SMILES": "N(C1=C(C)C=C(C=CC#N)C=C1C)C2=NC(NC3=CC=C(C#N)C=C3)=NC=C2", "physical_data": {"Molecular Weight": "366.42", "Molecular Formula": "C22H18N6", "Melting Point": "245 \u00b0C"}}