{"cas_no": "5003-71-4", "cn_name": "3-\u6eb4\u4e19\u80fa\u6c22\u6eb4\u9178\u76d0", "en_name": ["3-Bromopropylamine hydrobromide", "1-Propanamine, 3-bromo-, hydrobromide (1:1)", "Propylamine, 3-bromo-, hydrobromide", "1-Propanamine, 3-bromo-, hydrobromide", "3-Bromopropylamine hydrobromide", "1-Amino-3-bromopropane hydrobromide", "3-Aminopropyl bromide hydrobromide", "3-Bromo-1-propanamine hydrobromide", "3-Bromopropanamine hydrobromide", "3-Bromopropylammonium bromide", "3-Bromopropylamine hydrobromide salt", "3-Bromo-1-aminopropane hydrobromide", "3-Bromo-1-propylamine hydrobromide"], "SMILES": "C(CBr)CN.Br", "physical_data": {"Molecular Weight": "", "Molecular Formula": "C3H8BrN.BrH", "Melting Point": "162 \u00b0C"}}