{"cas_no": "5003-48-5", "cn_name": "\u8d1d\u8bfa\u916f", "en_name": ["Benorylate", "Benzoic acid, 2-(acetyloxy)-, 4-(acetylamino)phenyl ester", "Salicylic acid acetate, ester with 4\u2032-hydroxyacetanilide", "Acetanilide, 4\u2032-hydroxy-, salicylate (ester) acetate (ester)", "p-Acetamidophenyl acetylsalicylate", "4-Acetamidophenyl 2-acetoxybenzoate", "4-Acetaminophenyl 2-acetoxybenzoate", "Benorylate", "Aspirin acetaminophen ester", "Fenasprate", "Benoral", "Acetylsalicylic acid paracetamol ester", "p-N-Acetylaminophenyl acetylsalicylate", "Benorilate", "Win 11450", "TO 125", "Benortan", "Quinexin", "Salipran"], "SMILES": "C(OC1=CC=C(NC(C)=O)C=C1)(=O)C2=C(OC(C)=O)C=CC=C2", "physical_data": {"Molecular Weight": "313.30", "Molecular Formula": "C17H15NO5", "Melting Point": "175 \u00b0C"}}