{"cas_no": "5004-07-9", "cn_name": "4-\u5421\u54af\u70f7-1-\u57fa-\u54cc\u5576", "en_name": ["4-(1-Pyrrolidinyl)piperidine", "Piperidine, 4-(1-pyrrolidinyl)-", "4-(1-Pyrrolidinyl)piperidine", "4-Pyrrolidinopiperidine", "4-(Pyrrolidinyl)piperidine", "4-(1-Pyrrolidino)piperidine", "1-(Piperidin-4-yl)pyrrolidine"], "SMILES": "N1(CCCC1)C2CCNCC2", "physical_data": {"Molecular Weight": "154.25", "Molecular Formula": "C9H18N2", "Melting Point": "57-59 \u00b0C"}}