{"cas_no": "5005-37-8", "cn_name": "2-(4-\u6c2f\u82ef\u57fa)-2-(\u5421\u5576-2-\u57fa)\u4e59\u8148", "en_name": ["\u03b1-(4-Chlorophenyl)-2-pyridineacetonitrile", "2-Pyridineacetonitrile, \u03b1-(4-chlorophenyl)-", "2-Pyridineacetonitrile, \u03b1-(p-chlorophenyl)-", "\u03b1-(4-Chlorophenyl)-2-pyridineacetonitrile", "p-Chlorophenyl-2-pyridylacetonitrile", "NSC 165824", "2-(4-Chlorophenyl)-2-(pyridin-2-yl)acetonitrile", "2-(4-Chlorophenyl)-2-pyridin-2-ylacetonitrile"], "SMILES": "C(C#N)(C1=CC=C(Cl)C=C1)C2=CC=CC=N2", "physical_data": {"Molecular Weight": "228.68", "Molecular Formula": "C13H9ClN2", "Boiling Point": "165 \u00b0C @ Press: 3 Torr", "Melting Point": "67.5-67.8 \u00b0C"}}