{"cas_no": "5005-36-7", "cn_name": "alpha-(2-\u5421\u5576\u57fa)-\u82ef\u4e59\u8148", "en_name": ["\u03b1-Phenyl-2-pyridineacetonitrile", "2-Pyridineacetonitrile, \u03b1-phenyl-", "\u03b1-Phenyl-2-pyridineacetonitrile", "\u03b1-Phenyl-\u03b1-(2-pyridyl)acetonitrile", "2-Phenyl-2-(2-pyridyl)acetonitrile", "2-Pyridylphenylacetonitrile", "Phenyl(pyridin-2-yl)acetonitrile", "NSC 16276", "2-Phenyl-2-(pyridin-2-yl)acetonitrile", "2-Phenyl-2-pyridin-2-ylacetonitrile"], "SMILES": "C(C#N)(C1=CC=CC=C1)C2=CC=CC=N2", "physical_data": {"Molecular Weight": "194.23", "Molecular Formula": "C13H10N2", "Boiling Point": "150-155 \u00b0C @ Press: 0.5 Torr", "Melting Point": "88-89 \u00b0C"}}