{"cas_no": "5006-62-2", "cn_name": "\u5471\u5576\u4e59\u916f", "en_name": ["Ethyl nipecotate", "3-Piperidinecarboxylic acid, ethyl ester", "Nipecotic acid, ethyl ester", "Ethyl nipecotate", "3-(Ethoxycarbonyl)piperidine", "Ethyl 3-piperidinecarboxylate", "(\u00b1)-3-Piperidinecarboxylic acid ethyl ester", "NSC 158451"], "SMILES": "C(OCC)(=O)C1CCCNC1", "physical_data": {"Molecular Weight": "157.21", "Molecular Formula": "C8H15NO2", "Boiling Point": "102-104 \u00b0C @ Press: 7 Torr", "Melting Point": "165-167 \u00b0C", "Density": "1.0121 g/cm\u00b3 @ Temp: 20 \u00b0C"}}