{"cas_no": "5006-22-4", "cn_name": "\u73af\u4e01\u57fa\u7532\u9170\u6c2f", "en_name": ["Cyclobutanecarbonyl chloride", "Cyclobutanecarbonyl chloride", "Cyclobutanecarboxylic acid chloride", "Cyclobutanoyl chloride", "Cyclobutylcarbonyl chloride", "Cyclobutylcarboxylic acid chloride", "NSC 93778", "Cyclobutanecarboxylic chloride"], "SMILES": "C(Cl)(=O)C1CCC1", "physical_data": {"Molecular Weight": "118.56", "Molecular Formula": "C5H7ClO", "Boiling Point": "137 \u00b0C @ Press: 750 Torr"}}