{"cas_no": "5006-66-6", "cn_name": "6-\u7f9f\u57fa\u70df\u9178", "en_name": ["6-Hydroxynicotinic acid", "3-Pyridinecarboxylic acid, 1,6-dihydro-6-oxo-", "Nicotinic acid, 1,6-dihydro-6-oxo-", "Nicotinic acid, 6-hydroxy-", "1,6-Dihydro-6-oxo-3-pyridinecarboxylic acid", "6-Hydroxynicotinic acid", "2-Pyridone-5-carboxylic acid", "6-Hydroxyniacin", "5-Carboxy-2-pyridone", "6-Hydroxypyridine-3-carboxylic acid", "2-Hydroxypyridine-5-carboxylic acid", "NSC 35054", "NSC 53377", "NSC 8620", "2-Hydroxy-5-carboxypyridine", "6-Oxo-1,6-dihydro-pyridine-3-carboxylic acid", "2-Oxopyridine-5-carboxylic acid"], "SMILES": "C(O)(=O)C=1C=CC(=O)NC1", "physical_data": {"Molecular Weight": "139.11", "Molecular Formula": "C6H5NO3", "Melting Point": "310 \u00b0C (decomp)"}}