{"cas_no": "5006-20-2", "cn_name": "5-\u4e59\u6c27\u57fa-4-\u7532\u57fa\u5511", "en_name": ["5-Ethoxy-4-methyloxazole", "Oxazole, 5-ethoxy-4-methyl-", "5-Ethoxy-4-methyloxazole", "4-Methyl-5-ethoxyoxazole"], "SMILES": "O(CC)C1=C(C)N=CO1", "physical_data": {"Molecular Weight": "127.14", "Molecular Formula": "C6H9NO2", "Boiling Point": "78-80 \u00b0C @ Press: 50 Torr"}}