{"cas_no": "5006-45-1", "cn_name": "6-\u6c2f\u8272\u916e-2-\u7532\u9178", "en_name": ["6-Chloro-4-oxo-4H-1-benzopyran-2-carboxylic acid", "4H-1-Benzopyran-2-carboxylic acid, 6-chloro-4-oxo-", "6-Chloro-4-oxo-4H-1-benzopyran-2-carboxylic acid", "6-Chlorochromone-2-carboxylic acid"], "SMILES": "O=C1C=2C(OC(C(O)=O)=C1)=CC=C(Cl)C2", "physical_data": {"Molecular Weight": "224.60", "Molecular Formula": "C10H5ClO4", "Melting Point": "261-262 \u00b0C"}}