{"cas_no": "5007-67-0", "cn_name": "3,3',4,4'-\u56db\u6c28\u57fa\u4e8c\u82ef\u7532\u916e", "en_name": ["3,3\u2032,4,4\u2032-Tetraaminobenzophenone", "Methanone, bis(3,4-diaminophenyl)-", "Benzophenone, 3,3\u2032,4,4\u2032-tetraamino-", "Bis(3,4-diaminophenyl)methanone", "3,3\u2032,4,4\u2032-Tetraaminobenzophenone"], "SMILES": "C(=O)(C1=CC(N)=C(N)C=C1)C2=CC(N)=C(N)C=C2", "physical_data": {"Molecular Weight": "242.28", "Molecular Formula": "C13H14N4O", "Melting Point": "217 \u00b0C"}}