{"cas_no": "500791-70-8", "cn_name": "(5-\u6c28\u57fa-2-\u4e01\u57fa-3-\u82ef\u5e76\u544b\u5583\u57fa)[4-[3-(\u4e8c\u4e01\u57fa\u6c28\u57fa)\u4e19\u6c27\u57fa]\u82ef\u57fa]\u7532\u916e\u4e8c\u8349\u9178\u76d0", "en_name": ["Methanone, (5-amino-2-butyl-3-benzofuranyl)[4-[3-(dibutylamino)propoxy]phenyl]-, ethanedioate (1:2)", "Methanone, (5-amino-2-butyl-3-benzofuranyl)[4-[3-(dibutylamino)propoxy]phenyl]-, ethanedioate (1:2)"], "SMILES": "C(C(O)=O)(O)=O.C(=O)(C=1C=2C(OC1CCCC)=CC=C(N)C2)C3=CC=C(OCCCN(CCCC)CCCC)C=C3", "physical_data": {"Molecular Weight": "", "Molecular Formula": "C30H42N2O3.2C2H2O4", "Melting Point": "170 \u00b0C"}}