{"cas_no": "5008-73-1", "cn_name": "\u5f02\u4e19\u57fa\u4e19\u57fa\u786b\u919a", "en_name": ["1-[(1-Methylethyl)thio]propane", "Propane, 1-[(1-methylethyl)thio]-", "Sulfide, isopropyl propyl", "1-[(1-Methylethyl)thio]propane", "n-Propyl isopropyl sulfide", "Isopropylpropyl sulfide", "Propyl isopropyl sulfide", "1-(Propan-2-ylsulfanyl)propane"], "SMILES": "S(C(C)C)CCC", "physical_data": {"Molecular Weight": "118.24", "Molecular Formula": "C6H14S", "Boiling Point": "132.1 \u00b0C"}}