{"cas_no": "500997-70-6", "cn_name": "N-\u4e8c[(R)-1-\u82ef\u4e59\u57fa]-[(S)-1,1'-\u87ba\u4e8c\u6c22\u831a-7,7'-\u4e8c\u57fa]\u4e9a\u78f7\u9170\u80fa", "en_name": ["(11aS)-10,11,12,13-Tetrahydro-N,N-bis[(1R)-1-phenylethyl]diindeno[7,1-de:1\u2032,7\u2032-fg][1,3,2]dioxaphosphocin-5-amine", "Diindeno[7,1-de:1\u2032,7\u2032-fg][1,3,2]dioxaphosphocin-5-amine, 10,11,12,13-tetrahydro-N,N-bis[(1R)-1-phenylethyl]-, (11aS)-", "(11aS)-10,11,12,13-Tetrahydro-N,N-bis[(1R)-1-phenylethyl]diindeno[7,1-de:1\u2032,7\u2032-fg][1,3,2]dioxaphosphocin-5-amine", "(S)-Siphos-PE"], "SMILES": "N(C(C)C1=CC=CC=C1)(C(C)C2=CC=CC=C2)P3OC4=C5C6(C7=C(O3)C=CC=C7CC6)CCC5=CC=C4", "physical_data": {"Molecular Weight": "505.59", "Molecular Formula": "C33H32NO2P", "Melting Point": "50-52 \u00b0C"}}