{"cas_no": "501-36-0", "cn_name": "\u767d\u85dc\u82a6\u9187", "en_name": ["Resveratrol", "1,3-Benzenediol, 5-[(1E)-2-(4-hydroxyphenyl)ethenyl]-", "3,4\u2032,5-Stilbenetriol", "Resveratrol", "1,3-Benzenediol, 5-[2-(4-hydroxyphenyl)ethenyl]-, (E)-", "5-[(1E)-2-(4-Hydroxyphenyl)ethenyl]-1,3-benzenediol", "trans-Resveratrol", "(E)-5-(p-Hydroxystyryl)resorcinol", "(E)-Resveratrol", "CA 1201", "3,4\u2032,5-Trihydroxy-trans-stilbene", "(E)-2-(3,5-Dihydroxyphenyl)-1-(4-hydroxyphenyl)ethene", "(E)-3,4\u2032,5-Trihydroxystilbene", "Resvida", "Vineatrol 20M", "Resveratrol P 5", "trans-3,5,4\u2032-Trihydroxystilbene", "SRT 501M", "SRT 501", "Melinjo Resveratrol 20", "Biofort", "Polygonin", "Cuspidatin", "3,4\u2032,5-Trihydroxystilbene", "Regu-Fade"], "SMILES": "C(=CC1=CC=C(O)C=C1)C2=CC(O)=CC(O)=C2", "physical_data": {"Molecular Weight": "228.24", "Molecular Formula": "C14H12O3", "Melting Point": "254 \u00b0C"}}