{"cas_no": "501-53-1", "cn_name": "\u6c2f\u7532\u9178\u82c4\u916f", "en_name": ["Benzyl chloroformate", "Carbonochloridic acid, phenylmethyl ester", "Formic acid, chloro-, benzyl ester", "Benzyl chloroformate", "(Benzyloxy)carbonyl chloride", "Carbobenzoxy chloride", "Carbobenzyloxy chloride", "Chloroformic acid benzyl ester", "Benzyl carbonochloridate", "Benzyl chlorocarbonate", "Phenylmethyl chloroformate", "NSC 83466", "Benzyl chloridocarbonate", "Benzyloxyformyl chloride"], "SMILES": "C(OC(Cl)=O)C1=CC=CC=C1", "physical_data": {"Molecular Weight": "170.59", "Molecular Formula": "C8H7ClO2", "Boiling Point": "152 \u00b0C @ Press: 760 Torr", "Density": "1.2166 g/cm\u00b3 @ Temp: 20 \u00b0C"}}