{"cas_no": "501-30-4", "cn_name": "\u66f2\u9178", "en_name": ["Kojic acid", "4H-Pyran-4-one, 5-hydroxy-2-(hydroxymethyl)-", "5-Hydroxy-2-(hydroxymethyl)-4H-pyran-4-one", "Kojic acid", "5-Hydroxy-2-hydroxymethyl-4-pyrone", "2-(Hydroxymethyl)-5-hydroxy-4H-pyran-4-one", "NSC 1942", "5-Hydroxy-2-(hydroxymethyl)-4H-pyranone", "5-Hydroxy-2-hydroxymethylpyran-4-one", "5-Hydroxy-2-hydroxymethyl-1,4-pyrone"], "SMILES": "C(O)C1=CC(=O)C(O)=CO1", "physical_data": {"Molecular Weight": "142.11", "Molecular Formula": "C6H6O4", "Melting Point": "153.5 \u00b0C"}}