{"cas_no": "501-98-4", "cn_name": "\u53cd\u5f0f-4-\u7f9f\u57fa\u8089\u6842\u9178", "en_name": ["trans-4-Hydroxycinnamic acid", "2-Propenoic acid, 3-(4-hydroxyphenyl)-, (2E)-", "Cinnamic acid, p-hydroxy-, (E)-", "2-Propenoic acid, 3-(4-hydroxyphenyl)-, (E)-", "(2E)-3-(4-Hydroxyphenyl)-2-propenoic acid", "Naringeninic acid", "trans-p-Coumaric acid", "(E)-p-Coumaric acid", "trans-p-Hydroxycinnamic acid", "(E)-p-Hydroxycinnamic acid", "trans-4-Hydroxycinnamic acid", "p-Hydroxy-trans-cinnamic acid", "(E)-3-(4-Hydroxyphenyl)-2-propenoic acid", "trans-4-Coumaric acid", "p-trans-Coumaric acid", "(E)-4-Hydroxycinnamic acid", "trans-3-(4-Hydroxyphenyl)-2-propenoic acid", "(E)-3-(4-Hydroxyphenyl)acrylic acid", "trans-p-Coumarinic acid", "(2E)-3-(4-Hydroxyphenyl)prop-2-enoic acid", "(E)-3-(4-Hydroxyphenyl)acrylic acid", "(E)-p-Coumaric acid"], "SMILES": "C(=CC(O)=O)C1=CC=C(O)C=C1", "physical_data": {"Molecular Weight": "164.16", "Molecular Formula": "C9H8O3", "Melting Point": "214 \u00b0C (decomp)"}}