{"cas_no": "501-81-5", "cn_name": "3-\u5421\u5576\u4e59\u9178", "en_name": ["3-Pyridineacetic acid", "3-Pyridineacetic acid", "3-Pyridylacetic acid", "Toneon", "Coletin", "Lessterol", "Lioxone", "Minedil", "Piridil", "Piristerol", "2-(3-Pyridyl)acetic acid", "\u03b1-(3-Pyridyl)acetic acid", "Pyridin-3-ylacetic acid", "2-(Pyridin-3-yl)acetic acid", "3-Carboxymethylpyridine", "NSC 70769"], "SMILES": "C(C(O)=O)C=1C=CC=NC1", "physical_data": {"Molecular Weight": "137.14", "Molecular Formula": "C7H7NO2", "Melting Point": "144 \u00b0C"}}