{"cas_no": "501-52-0", "cn_name": "\u6c22\u5316\u8089\u6842\u9178", "en_name": ["Benzenepropanoic acid", "Benzenepropanoic acid", "Hydrocinnamic acid", "Benzylacetic acid", "\u03b2-Phenylpropionic acid", "3-Phenylpropionic acid", "Dihydrocinnamic acid", "Benzenepropionic acid", "3-Phenylpropanoic acid", "3-Phenyl-n-propionic acid", "\u03c9-Phenylpropanoic acid", "NSC 9272", "\u03b2-Phenylpropanoic acid"], "SMILES": "C(CC(O)=O)C1=CC=CC=C1", "physical_data": {"Molecular Weight": "150.17", "Molecular Formula": "C9H10O2", "Boiling Point": "279.8 \u00b0C", "Melting Point": "63 \u00b0C"}}