{"cas_no": "501-65-5", "cn_name": "\u4e8c\u82ef\u57fa\u4e59\u7094", "en_name": ["Diphenylacetylene", "Benzene, 1,1\u2032-(1,2-ethynediyl)bis-", "Acetylene, diphenyl-", "1,1\u2032-(1,2-Ethynediyl)bis[benzene]", "Diphenylacetylene", "Diphenylethyne", "Tolan", "Tolane", "Ethyne, diphenyl-", "1,2-Diphenylacetylene", "1,2-Diphenylethyne", "NSC 5185", "(2-Phenylethynyl)benzene", "2-Phenylethynylbenzene"], "SMILES": "C(#CC1=CC=CC=C1)C2=CC=CC=C2", "physical_data": {"Molecular Weight": "178.23", "Molecular Formula": "C14H10", "Boiling Point": "300 \u00b0C", "Melting Point": "62.5 \u00b0C"}}