{"cas_no": "501-96-2", "cn_name": "\u675c\u9e43\u9187", "en_name": ["(\u03b1R)-4-Hydroxy-\u03b1-methylbenzenepropanol", "Benzenepropanol, 4-hydroxy-\u03b1-methyl-, (\u03b1R)-", "2-Butanol, 4-(p-hydroxyphenyl)-", "Benzenepropanol, 4-hydroxy-\u03b1-methyl-, (R)-", "(\u03b1R)-4-Hydroxy-\u03b1-methylbenzenepropanol", "Betuligenol", "Rhododendrol", "Betuligenol, (-)-", "(-)-Betuligenol", "Rhododendrol, (-)-", "(-)-Rhododendrol", "(R)-Frambinol", "(R)-(-)-Rhododendrol"], "SMILES": "C(CC(C)O)C1=CC=C(O)C=C1", "physical_data": {"Molecular Weight": "166.22", "Molecular Formula": "C10H14O2", "Melting Point": "81 \u00b0C"}}