{"cas_no": "501-00-8", "cn_name": "3-\u6c1f\u82ef\u4e59\u8148", "en_name": ["3-Fluorobenzeneacetonitrile", "Benzeneacetonitrile, 3-fluoro-", "Acetonitrile, (m-fluorophenyl)-", "3-Fluorobenzeneacetonitrile", "3-Fluorobenzyl cyanide", "(m-Fluorophenyl)acetonitrile", "(3-Fluorophenyl)acetonitrile", "m-Fluorobenzyl cyanide", "m-Fluorobenzyl nitrile", "NSC 88318", "2-(3-Fluorophenyl)acetonitrile"], "SMILES": "C(C#N)C1=CC(F)=CC=C1", "physical_data": {"Molecular Weight": "135.14", "Molecular Formula": "C8H6FN", "Boiling Point": "124-126 \u00b0C @ Press: 10 Torr"}}