{"cas_no": "501-16-6", "cn_name": "3,4-\u4e8c\u7f9f\u57fa\u8089\u6842\u9178(\u5496\u5561\u9178)", "en_name": ["trans-Caffeic acid", "2-Propenoic acid, 3-(3,4-dihydroxyphenyl)-, (2E)-", "Cinnamic acid, 3,4-dihydroxy-, (E)-", "2-Propenoic acid, 3-(3,4-dihydroxyphenyl)-, (E)-", "Cinnamic acid, 3,4-dihydroxy-, trans-", "(2E)-3-(3,4-Dihydroxyphenyl)-2-propenoic acid", "trans-Caffeic acid", "trans-3,4-Dihydroxycinnamic acid", "3,4-Dihydroxy-trans-cinnamic acid", "(E)-Caffeic acid", "(E)-3,4-Dihydroxycinnamic acid", "(E)-3-(3,4-Dihydroxyphenyl)-2-propenoic acid", "(2E)-(3,4-Dihydroxyphenyl)-2-propenoic acid", "(E)-3-(3,4-Dihydroxyphenyl)acrylic acid", "ZINC 00058172", "(E)-3-(3,4-Dihydroxyphenyl)acrylic acid"], "SMILES": "C(=CC(O)=O)C1=CC(O)=C(O)C=C1", "physical_data": {"Molecular Weight": "180.16", "Molecular Formula": "C9H8O4", "Melting Point": "196-198 \u00b0C"}}