{"cas_no": "501-89-3", "cn_name": "\u5347\u5c0d\u915e\u9178", "en_name": ["4-Carboxybenzeneacetic acid", "Benzeneacetic acid, 4-carboxy-", "p-Toluic acid, \u03b1-carboxy-", "4-Carboxybenzeneacetic acid", "(p-Carboxyphenyl)acetic acid", "Homoterephthalic acid", "p-Carboxy-\u03b1-toluic acid", "p-(Carboxymethyl)benzoic acid", "4-(Carboxymethyl)benzoic acid", "\u03b1-Carboxy-p-toluic acid", "4-Carboxyphenylacetic acid", "NSC 2109", "p-Carboxyphenoxyacetic acid"], "SMILES": "C(C(O)=O)C1=CC=C(C(O)=O)C=C1", "physical_data": {"Molecular Weight": "180.16", "Molecular Formula": "C9H8O4", "Melting Point": "234-236 \u00b0C"}}