{"cas_no": "501-24-6", "cn_name": "3-\u5341\u4e94\u70f7\u57fa\u82ef\u915a", "en_name": ["Hydrogenated cardanol", "Phenol, 3-pentadecyl-", "Phenol, m-pentadecyl-", "3-Pentadecylphenol", "Cyclogallipharaol", "Hydrocardanol", "Hydroginkgol", "3-n-Pentadecylphenol", "Tetrahydroanacardol", "m-Pentadecylphenol", "Cardolite NC 510", "NSC 9781", "Hydrogenated cardanol", "Cardanol C15:0", "NC 510"], "SMILES": "C(CCCCCCCCCCCCCC)C1=CC(O)=CC=C1", "physical_data": {"Molecular Weight": "304.51", "Molecular Formula": "C21H36O", "Melting Point": "53.5 \u00b0C"}}