{"cas_no": "501-26-8", "cn_name": "\u8170\u679c\u915a(C15:1)", "en_name": ["Ginkgol", "Phenol, 3-(8Z)-8-pentadecen-1-yl-", "Phenol, m-8-pentadecenyl-, (Z)-", "Phenol, 3-(8-pentadecenyl)-, (Z)-", "Phenol, 3-(8Z)-8-pentadecenyl-", "3-(8Z)-8-Pentadecen-1-ylphenol", "Ginkgol", "(Z)-3-(8-Pentadecenyl)phenol", "Cardanol monoene", "3-[8(Z)-Pentadecenyl]phenol", "Cardanol C15:1"], "SMILES": "C(CCCCCCC=CCCCCCC)C1=CC(O)=CC=C1", "physical_data": {"Molecular Weight": "302.49", "Molecular Formula": "C21H34O", "Boiling Point": "221-223 \u00b0C"}}