{"cas_no": "501-68-8", "cn_name": "\u6c2f\u4e19\u9170\u82c4\u80fa", "en_name": ["Beclamide", "Propanamide, 3-chloro-N-(phenylmethyl)-", "Propionamide, N-benzyl-3-chloro-", "3-Chloro-N-(phenylmethyl)propanamide", "Beclamide", "N-Benzyl-\u03b2-chloropropanamide", "N-Benzyl-\u03b2-chloropropionamide", "N-Benzyl-3-chloropropionamide", "Chloracon", "Chloroethylphenamide", "Hibicon", "Nydrane", "Posedrine", "N-(3-Chloropropionyl)benzylamine", "Nidrane", "Seclar", "Chlorakon", "Nydran", "Beklamid", "Beclamid", "Neuracen", "NSC 67062"], "SMILES": "C(NC(CCCl)=O)C1=CC=CC=C1", "physical_data": {"Molecular Weight": "197.66", "Molecular Formula": "C10H12ClNO", "Melting Point": "94 \u00b0C"}}