{"cas_no": "501-94-0", "cn_name": "\u5bf9\u7f9f\u57fa\u82ef\u4e59\u9187", "en_name": ["Tyrosol", "Benzeneethanol, 4-hydroxy-", "Tyrosol", "Phenethyl alcohol, p-hydroxy-", "4-Hydroxybenzeneethanol", "p-Hydroxyphenethyl alcohol", "\u03b2-(p-Hydroxyphenyl)ethanol", "p-Tyrosol", "\u03b2-(4-Hydroxyphenyl)ethanol", "2-(4-Hydroxyphenyl)ethanol", "2-(p-Hydroxyphenyl)ethanol", "4-(2-Hydroxyethyl)phenol", "4-Hydroxyphenethyl alcohol", "p-(2-Hydroxyethyl)phenol", "4-Hydroxyphenylethanol", "2-(4-Hydroxyphenyl)ethyl alcohol", "Tyrosol C", "NSC 59876", "p-HPEA"], "SMILES": "C(CO)C1=CC=C(O)C=C1", "physical_data": {"Molecular Weight": "138.16", "Molecular Formula": "C8H10O2", "Boiling Point": "310 \u00b0C", "Melting Point": "90 \u00b0C"}}