{"cas_no": "501-92-8", "cn_name": "4-\u70ef\u4e19\u57fa\u82ef\u915a", "en_name": ["Chavicol", "Phenol, 4-(2-propen-1-yl)-", "Phenol, p-allyl-", "Chavicol", "Phenol, 4-(2-propenyl)-", "4-(2-Propen-1-yl)phenol", "p-Allylphenol", "\u03b3-(p-Hydroxyphenyl)-\u03b1-propylene", "p-Hydroxyallylbenzene", "4-Allylphenol", "3-(p-Hydroxyphenyl)-1-propene", "NSC 290195", "4-(2-Propenyl)phenol", "(4-Hydroxyphenyl)-2-propene", "1-Allyl-4-hydroxybenzene"], "SMILES": "C(C=C)C1=CC=C(O)C=C1", "physical_data": {"Molecular Weight": "134.18", "Molecular Formula": "C9H10O", "Boiling Point": "238 \u00b0C", "Melting Point": "15.8 \u00b0C"}}