{"cas_no": "501-97-3", "cn_name": "\u5bf9\u7f9f\u57fa\u82ef\u4e19\u9178", "en_name": ["3-(4-Hydroxyphenyl)propionic acid", "Benzenepropanoic acid, 4-hydroxy-", "Hydrocinnamic acid, p-hydroxy-", "4-Hydroxybenzenepropanoic acid", "\u03b2-(p-Hydroxyphenyl)propionic acid", "Phloretic acid", "3-(p-Hydroxyphenyl)propionic acid", "Hydro-p-coumaric acid", "p-Hydroxyphenylpropionic acid", "p-Hydroxyhydrocinnamic acid", "3-(4-Hydroxyphenyl)propanoic acid", "3-(4-Hydroxyphenyl)propionic acid", "3-(4\u2032-Hydroxyphenyl)propionic acid", "Dihydro-p-coumaric acid", "\u03b2-(4-Hydroxyphenyl)propionic acid", "4-(2-Carboxyethyl)phenol", "2,3-Dihydro-p-coumaric acid", "4-Hydroxydihydrocinnamic acid", "NSC 40949", "NSC 65596", "QuantaBlu", "Desaminotyrosine", "3-(p-Hydroxyphenyl)propanoic acid", "Dihydrocoumaric acid", "4-(2-Carboxylethyl)phenol", "Phloretinic acid", "4-Hydroxybenzenepropionic acid", "p-Hydroxybenzene propanoic acid"], "SMILES": "C(CC(O)=O)C1=CC=C(O)C=C1", "physical_data": {"Molecular Weight": "166.17", "Molecular Formula": "C9H10O3", "Boiling Point": "208-210 \u00b0C", "Melting Point": "130.8 \u00b0C"}}