{"cas_no": "5011-34-7", "cn_name": "\u66f2\u7f8e\u4ed6\u55ea", "en_name": ["Trimetazidine", "Piperazine, 1-[(2,3,4-trimethoxyphenyl)methyl]-", "Piperazine, 1-(2,3,4-trimethoxybenzyl)-", "1-[(2,3,4-Trimethoxyphenyl)methyl]piperazine", "Trimetazidine", "1-(2,3,4-Trimethoxybenzyl)piperazine", "Preductal", "Vasorel", "4-(2,3,4-Trimethoxybenzyl)piperazine", "Preductal MB", "Trimetazidine (TMZ)", "TMZ", "MeSH ID: D014292"], "SMILES": "C(C1=C(OC)C(OC)=C(OC)C=C1)N2CCNCC2", "physical_data": {"Molecular Weight": "266.34", "Molecular Formula": "C14H22N2O3", "Boiling Point": "202.5 \u00b0C"}}