{"cas_no": "501433-06-3", "cn_name": "2,3-\u4e8c\u6c1f\u5bf9\u4e8c\u7898\u82ef", "en_name": ["2,3-Difluoro-1,4-diiodobenzene", "Benzene, 2,3-difluoro-1,4-diiodo-", "2,3-Difluoro-1,4-diiodobenzene"], "SMILES": "FC1=C(F)C(I)=CC=C1I", "physical_data": {"Molecular Weight": "365.89", "Molecular Formula": "C6H2F2I2", "Melting Point": "52-54 \u00b0C"}}