{"cas_no": "5018-38-2", "cn_name": "4,6-\u4e8c\u6c2f-5-\u7532\u6c27\u57fa\u5627\u5576", "en_name": ["4,6-Dichloro-5-methoxypyrimidine", "Pyrimidine, 4,6-dichloro-5-methoxy-", "4,6-Dichloro-5-methoxypyrimidine", "NSC 252184"], "SMILES": "O(C)C=1C(Cl)=NC=NC1Cl", "physical_data": {"Molecular Weight": "179.00", "Molecular Formula": "C5H4Cl2N2O", "Melting Point": "57-58 \u00b0C"}}