{"cas_no": "5018-45-1", "cn_name": "4-\u6c28\u57fa-5,6-\u4e8c\u7532\u6c27\u57fa\u5627\u5576", "en_name": ["4-Amino-5,6-dimethoxypyrimidine", "4-Pyrimidinamine, 5,6-dimethoxy-", "Pyrimidine, 4-amino-5,6-dimethoxy-", "5,6-Dimethoxy-4-pyrimidinamine", "4-Amino-5,6-dimethoxypyrimidine"], "SMILES": "O(C)C=1C(OC)=C(N)N=CN1", "physical_data": {"Molecular Weight": "155.15", "Molecular Formula": "C6H9N3O2", "Melting Point": "88-89 \u00b0C"}}