{"cas_no": "5018-30-4", "cn_name": "\u7532\u6c27\u57fa\u9a6c\u6765\u9178\u4e8c\u7532\u916f", "en_name": ["1,3-Dimethyl 2-methoxypropanedioate", "Propanedioic acid, 2-methoxy-, 1,3-dimethyl ester", "Malonic acid, methoxy-, dimethyl ester", "Propanedioic acid, methoxy-, dimethyl ester", "1,3-Dimethyl 2-methoxypropanedioate", "Dimethyl methoxymalonate", "Dimethyl 2-methoxymalonate", "2-Methoxy-malonic acid dimethyl ester"], "SMILES": "C(C(OC)=O)(C(OC)=O)OC", "physical_data": {"Molecular Weight": "162.14", "Molecular Formula": "C6H10O5", "Boiling Point": "103-104 \u00b0C @ Press: 11 Torr"}}