{"cas_no": "5018-41-7", "cn_name": "4-\u6c28\u57fa-6-\u6c2f-5-\u7532\u6c27\u57fa\u5627\u5576", "en_name": ["6-Chloro-5-methoxy-4-pyrimidinamine", "4-Pyrimidinamine, 6-chloro-5-methoxy-", "Pyrimidine, 4-amino-6-chloro-5-methoxy-", "6-Chloro-5-methoxy-4-pyrimidinamine", "4-Amino-5-methoxy-6-chloropyrimidine", "4-Amino-6-chloro-5-methoxypyrimidine", "6-Chloro-5-methoxypyrimidin-4-amine"], "SMILES": "O(C)C=1C(Cl)=NC=NC1N", "physical_data": {"Molecular Weight": "159.57", "Molecular Formula": "C5H6ClN3O", "Melting Point": "176-178 \u00b0C"}}