{"cas_no": "501945-71-7", "cn_name": "2-(1-\u82ef\u5e76\u567b\u5429-5-\u57fa)-4,4,5,5-\u56db\u7532\u57fa-1,3,2-\u4e8c\u6c27\u787c\u70f7", "en_name": ["2-(Benzo[b]thiophen-5-yl)-4,4,5,5-tetramethyl-[1,3,2]dioxaborolane", "Benzo[b]thiophene, 5-(4,4,5,5-tetramethyl-1,3,2-dioxaborolan-2-yl)-", "5-(4,4,5,5-Tetramethyl-1,3,2-dioxaborolan-2-yl)benzo[b]thiophene", "2-[Benzothiophen-5-yl]-4,4,5,5-tetramethyl-1,3,2-dioxaborolane", "2-(Benzo[b]thiophen-5-yl)-4,4,5,5-tetramethyl-[1,3,2]dioxaborolane", "2-(Benzo[b]thien-5-yl)-4,4,5,5-tetramethyl-1,3,2-dioxaborolane", "5-(4,4,5,5-Tetramethyl-1,3,2-dioxaborolan-2-yl)benzothiophene", "2-(1-Benzothiophen-5-yl)-4,4,5,5-tetramethyl-1,3,2-dioxaborolane"], "SMILES": "CC1(C)OB(OC1(C)C)C=2C=C3C(=CC2)SC=C3", "physical_data": {"Molecular Weight": "260.16", "Molecular Formula": "C14H17BO2S", "Melting Point": "73-75 \u00b0C"}}