{"cas_no": "502-42-1", "cn_name": "\u73af\u5e9a\u916e", "en_name": ["Cycloheptanone", "Cycloheptanone", "Ketocycloheptane", "Ketoheptamethylene", "Suberone", "Suberon", "NSC 9471"], "SMILES": "O=C1CCCCCC1", "physical_data": {"Molecular Weight": "112.17", "Molecular Formula": "C7H12O", "Boiling Point": "178.5 \u00b0C", "Melting Point": "&lt;25 \u00b0C", "Density": "0.9508 g/cm\u00b3 @ Temp: 20 \u00b0C"}}