{"cas_no": "502-61-4", "cn_name": "\u03b1\uff0d\u6cd5\u5462\u70ef", "en_name": ["Farnesene", "1,3,6,10-Dodecatetraene, 3,7,11-trimethyl-, (3E,6E)-", "Farnesene", "1,3,6,10-Dodecatetraene, 3,7,11-trimethyl-, (E,E)-", "(3E,6E)-3,7,11-Trimethyl-1,3,6,10-dodecatetraene", "\u03b1-Farnesene", "trans-2,6,10-Trimethyl-2,6,9,11-dodecatetraene", "trans-3,7,11-Trimethyl-1,3,6,10-dodecatetraene", "trans,trans-\u03b1-Farnesene", "trans-\u03b1-Farnesene", "(E,E)-\u03b1-Farnesene", "(3E,6E)-\u03b1-Farnesene", "alpha-Farnesene"], "SMILES": "C(=CCC=C(C=C)C)(CCC=C(C)C)C", "physical_data": {"Molecular Weight": "204.35", "Molecular Formula": "C15H24", "Boiling Point": "125 \u00b0C", "Melting Point": "&lt;25 \u00b0C", "Density": "0.877 g/cm\u00b3 @ Temp: 18 \u00b0C"}}