{"cas_no": "502-50-1", "cn_name": "4-\u916e\u5e9a\u4e8c\u9178", "en_name": ["4-Ketopimelic acid", "Heptanedioic acid, 4-oxo-", "4-Oxoheptanedioic acid", "4-Oxopimelic acid", "\u03b3-Ketopimelic acid", "4-Ketopimelic acid", "NSC 16642"], "SMILES": "C(CCC(O)=O)(CCC(O)=O)=O", "physical_data": {"Molecular Weight": "174.15", "Molecular Formula": "C7H10O5", "Melting Point": "141.5 \u00b0C"}}