{"cas_no": "502-52-3", "cn_name": "1,3-\u53cc\u68d5\u6988\u9178\u7518\u6cb9\u916f", "en_name": ["1,3-Dipalmitin", "Hexadecanoic acid, 1,1\u2032-(2-hydroxy-1,3-propanediyl) ester", "Palmitin, 1,3-di-", "Hexadecanoic acid, 2-hydroxy-1,3-propanediyl ester", "1,3-Dipalmitin", "1,3-Dipalmitoylglycerol", "1,3-Dipalmitoylglycerin", "Glycerol 1,3-dipalmitate", "Glycerol 1,3-dihexadecanoate", "(3-Hexadecanoyloxy-2-hydroxypropyl) hexadecanoate"], "SMILES": "C(COC(CCCCCCCCCCCCCCC)=O)(COC(CCCCCCCCCCCCCCC)=O)O", "physical_data": {"Molecular Weight": "568.91", "Molecular Formula": "C35H68O5", "Melting Point": "71.8-74.2 \u00b0C"}}