{"cas_no": "502-26-1", "cn_name": "\u0393-\u5341\u516b\u5185\u916f", "en_name": ["\u03b3-Stearolactone", "2(3H)-Furanone, dihydro-5-tetradecyl-", "Octadecanoic acid, 4-hydroxy-, \u03b3-lactone", "Dihydro-5-tetradecyl-2(3H)-furanone", "\u03b3-Stearolactone", "4-Octadecanolide", "\u03b3-Octadecalactone", "NSC 34907", "5-Tetradecyldihydro-2(3H)-furanone", "5-Tetradecyl-\u03b3-butyrolactone"], "SMILES": "C(CCCCCCCCCCCCC)C1CCC(=O)O1", "physical_data": {"Molecular Weight": "282.46", "Molecular Formula": "C18H34O2", "Boiling Point": "180-190 \u00b0C @ Press: 1 Torr", "Melting Point": "50.1-50.3 \u00b0C"}}