{"cas_no": "502-56-7", "cn_name": "5-\u58ec\u916e", "en_name": ["5-Nonanone", "5-Nonanone", "Butyl ketone", "Dibutyl ketone", "NSC 14761"], "SMILES": "C(CCCC)(CCCC)=O", "physical_data": {"Molecular Weight": "142.24", "Molecular Formula": "C9H18O", "Boiling Point": "188.4 \u00b0C", "Melting Point": "-5.9 \u00b0C", "Density": "0.8217 g/cm\u00b3 @ Temp: 20 \u00b0C"}}