{"cas_no": "502-72-7", "cn_name": "\u73af\u5341\u4e94\u70f7\u916e", "en_name": ["Cyclopentadecanone", "Cyclopentadecanone", "Normuscone", "Exaltone", "Normuscon", "NSC 63900", "CPE 218"], "SMILES": "O=C1CCCCCCCCCCCCCC1", "physical_data": {"Molecular Weight": "224.38", "Molecular Formula": "C15H28O", "Boiling Point": "120 \u00b0C", "Melting Point": "63 \u00b0C", "Density": "0.8973 g/cm\u00b3 @ Temp: 66 \u00b0C"}}