{"cas_no": "502-49-8", "cn_name": "\u73af\u8f9b\u916e", "en_name": ["Cyclooctanone", "Cyclooctanone", "NSC 9475"], "SMILES": "O=C1CCCCCCC1", "physical_data": {"Molecular Weight": "126.20", "Molecular Formula": "C8H14O", "Boiling Point": "196 \u00b0C", "Melting Point": "29 \u00b0C", "Density": "0.9584 g/cm\u00b3 @ Temp: 20 \u00b0C"}}