{"cas_no": "502-55-6", "cn_name": "\u56db\u786b\u53cc\u916f", "en_name": ["Dixanthogen", "Thioperoxydicarbonic acid ([(HO)C(S)]2S2), OC,OC\u2032-diethyl ester", "Formic acid, dithiobis[thio-, O,O-diethyl ester", "Thioperoxydicarbonic acid ([(HO)C(S)]2S2), diethyl ester", "Auligen", "Aulinogen", "Bisethylxanthogen", "Bisethylxanthogen disulfide", "Diethyl dixanthogen", "Diethylxanthogen disulfide", "Dithiobis(thioformic acid) O,O-diethyl ester", "Dixanthogen", "Herbisan", "Lenisarin", "K Preparation", "Bexide", "EXD", "Herbisan 5", "Thioperoxydicarbonic acid diethyl ester", "O,O-Diethyl dithiobis[thioformate]", "3,8-Dioxa-5,6-dithiadecane-4,7-dithione", "Antigal", "Aulin", "Scabicidol", "Xantoscabin", "Dixan", "Galasan", "NSC 402561", "Sulfasan", "Diexanthogen"], "SMILES": "C(SSC(OCC)=S)(OCC)=S", "physical_data": {"Molecular Weight": "242.40", "Molecular Formula": "C6H10O2S4", "Boiling Point": "125 \u00b0C @ Press: 0.5 Torr", "Melting Point": "30 \u00b0C"}}