{"cas_no": "502-41-0", "cn_name": "\u73af\u5e9a\u9187", "en_name": ["Cycloheptanol", "Cycloheptanol", "Cycloheptyl alcohol", "NSC 52221"], "SMILES": "OC1CCCCCC1", "physical_data": {"Molecular Weight": "114.19", "Molecular Formula": "C7H14O", "Boiling Point": "185 \u00b0C", "Melting Point": "2 \u00b0C", "Density": "0.9478 g/cm\u00b3"}}