{"cas_no": "502-47-6", "cn_name": "3,7-\u4e8c\u7532\u57fa-6-\u8f9b\u9178", "en_name": ["Citronellic acid", "6-Octenoic acid, 3,7-dimethyl-", "Citronellic acid", "3,7-Dimethyl-6-octenoic acid", "Rhodinic acid"], "SMILES": "C(CCC=C(C)C)(CC(O)=O)C", "physical_data": {"Molecular Weight": "170.25", "Molecular Formula": "C10H18O2", "Boiling Point": "258 \u00b0C", "Density": "0.9325 g/cm\u00b3 @ Temp: 15 \u00b0C"}}