{"cas_no": "502-69-2", "cn_name": "\u690d\u916e", "en_name": ["6,10,14-Trimethyl-2-pentadecanone", "2-Pentadecanone, 6,10,14-trimethyl-", "6,10,14-Trimethyl-2-pentadecanone", "Hexahydrofarnesyl acetone", "Perhydrofarnesyl acetone", "(\u00b1)-Phytone", "6,10,14-Trimethylpentadecan-2-one"], "SMILES": "C(CCCC(CCCC(C)=O)C)(CCCC(C)C)C", "physical_data": {"Molecular Weight": "268.48", "Molecular Formula": "C18H36O", "Boiling Point": "142-143 \u00b0C @ Press: 3 Torr", "Melting Point": "129-136 \u00b0C", "Density": "0.8403 g/cm\u00b3 @ Temp: 19 \u00b0C"}}