{"cas_no": "502-73-8", "cn_name": "16-\u4e09\u5341\u4e00\u916e", "en_name": ["16-Hentriacontanone", "16-Hentriacontanone", "Palmitone", "Pentadecyl ketone", "Dipentadecyl ketone", "NSC 953"], "SMILES": "C(CCCCCCCCCCCCCCC)(CCCCCCCCCCCCCCC)=O", "physical_data": {"Molecular Weight": "450.82", "Molecular Formula": "C31H62O", "Boiling Point": "200-207 \u00b0C @ Press: 5-7 Torr", "Melting Point": "82 \u00b0C"}}