{"cas_no": "502-44-3", "cn_name": "6-\u5df1\u5185\u916f", "en_name": ["\u03b5-Caprolactone", "2-Oxepanone", "Hexanoic acid, 6-hydroxy-, lactone", "Caprolactone", "\u03b5-Caprolactone", "Epsilon-caprolactone", "Hexanoic acid, 6-hydroxy-, \u03b5-lactone", "Hexamethylene oxide, 2-oxo-", "6-Hexanolactone", "6-Hydroxyhexanoic acid lactone", "1,6-Hexanolide", "Placcel M", "Caprolactone A", "2-Oxooxopane", "6-Hexanolide", "\u03b5-Hexanolactone", "Tone Monomer EC", "Tone ECEQ", "Nyrim 1 Additive 6", "C 0702"], "SMILES": "O=C1CCCCCO1", "physical_data": {"Molecular Weight": "114.14", "Molecular Formula": "C6H10O2", "Boiling Point": "215 \u00b0C", "Melting Point": "-18 \u00b0C", "Density": "1.029 g/cm\u00b3 @ Temp: 26 \u00b0C"}}