{"cas_no": "502-65-8", "cn_name": "\u756a\u8304\u7ea2\u7d20", "en_name": ["Lycopene", "\u03c8,\u03c8-Carotene", "Lycopene, all-trans-", "C.I. 75125", "Lycopene 7", "trans-Lycopene", "Lycopene", "all-trans-Lycopene", "(all-E)-2,6,10,14,19,23,27,31-Octamethyl-2,6,8,10,12,14,16,18,20,22,24,26,30-dotriacontatridecaene", "2,6,8,10,12,14,16,18,20,22,24,26,30-Dotriacontatridecaene, 2,6,10,14,19,23,27,31-octamethyl-, (6E,8E,10E,12E,14E,16E,18E,20E,22E,24E,26E)-", "(6E,8E,10E,12E,14E,16E,18E,20E,22E,24E,26E)-2,6,10,14,19,23,27,31-Octamethyl-2,6,8,10,12,14,16,18,20,22,24,26,30-dotriacontatridecaene", "Lyco Vit", "NSC 407322", "Lycored", "Redivivo", "E 160d", "Mexoryl SAQ", "Tomat-O-Red", "Lycopene Base", "Lyconat", "(all-E)-Lycopene", "Solanorubin", "Lycopene 18", "Lycovit D 10"], "SMILES": "C(=CC=CC(=CC=CC=C(C=CC=C(C=CC=C(CCC=C(C)C)C)C)C)C)(C=CC=C(CCC=C(C)C)C)C", "physical_data": {"Molecular Weight": "536.87", "Molecular Formula": "C40H56", "Melting Point": "175 \u00b0C"}}