{"cas_no": "502-32-9", "cn_name": "DL-\u4eae\u6c28\u9187", "en_name": ["Leucinol", "1-Pentanol, 2-amino-4-methyl-", "Leucinol", "2-Amino-4-methyl-1-pentanol", "dl-Leucinol", "DL-Leucinol", "(\u00b1)-Leucinol", "2-Aminoisohexyl alcohol", "(1-Hydroxymethyl-3-methylbutyl)amine", "1-Hydroxy-4-methylpentan-2-amine"], "SMILES": "C(CC(C)C)(CO)N", "physical_data": {"Molecular Weight": "117.19", "Molecular Formula": "C6H15NO", "Boiling Point": "194 \u00b0C"}}