{"cas_no": "502-97-6", "cn_name": "1,4-\u4e8c\u6c27\u6742\u73af-2,5-\u5df1\u4e8c\u916e", "en_name": ["Glycolide", "1,4-Dioxane-2,5-dione", "Glycolide", "p-Dioxane-2,5-dione", "Acetic acid, hydroxy-, bimol. cyclic ester", "Glycollide", "Diglycolide", "Glycolide S", "NSC 403079"], "SMILES": "O=C1COC(=O)CO1", "physical_data": {"Molecular Weight": "116.07", "Molecular Formula": "C4H4O4", "Melting Point": "82 \u00b0C"}}