{"cas_no": "5020-41-7", "cn_name": "2-(3-\u7532\u6c27\u57fa\u82ef\u57fa)\u4e59\u9187", "en_name": ["3-Methoxybenzeneethanol", "Benzeneethanol, 3-methoxy-", "Phenethyl alcohol, m-methoxy-", "3-Methoxybenzeneethanol", "2-(3-Methoxyphenyl)ethanol", "m-Methoxyphenethyl alcohol", "1-(2-Hydroxyethyl)-3-methoxybenzene", "3-Methoxyphenethyl alcohol", "2-(m-Methoxyphenyl)ethanol", "2-(3-Methoxyphenyl)-1-ethanol", "NSC 55877"], "SMILES": "C(CO)C1=CC(OC)=CC=C1", "physical_data": {"Molecular Weight": "152.19", "Molecular Formula": "C9H12O2", "Boiling Point": "135-137 \u00b0C @ Press: 12 Torr"}}