{"cas_no": "5021-93-2", "cn_name": "\u4e8c\u4e59\u57fa\u4e8c\u4e59\u6c27\u57fa\u7845\u70f7", "en_name": ["Diethyldiethoxysilane", "Silane, diethoxydiethyl-", "Diethoxydiethylsilane", "Diethyldiethoxysilane"], "SMILES": "[Si](OCC)(OCC)(CC)CC", "physical_data": {"Molecular Weight": "176.33", "Molecular Formula": "C8H20O2Si", "Boiling Point": "157 \u00b0C", "Density": "0.862 g/cm\u00b3"}}