{"cas_no": "5022-65-1", "cn_name": "L-\u8272\u6c28\u9170\u80fa\u76d0\u9178\u76d0", "en_name": ["1H-Indole-3-propanamide, \u03b1-amino-, hydrochloride (1:1), (\u03b1S)-", "1H-Indole-3-propanamide, \u03b1-amino-, hydrochloride (1:1), (\u03b1S)-", "Tryptophanamide, monohydrochloride, L-", "1H-Indole-3-propanamide, \u03b1-amino-, monohydrochloride, (\u03b1S)-", "L-Tryptophanamide hydrochloride"], "SMILES": "C(C(C(N)=O)N)C=1C=2C(NC1)=CC=CC2.Cl", "physical_data": {"Molecular Weight": "", "Molecular Formula": "C11H13N3O.ClH", "Melting Point": "257-260 \u00b0C (decomp)"}}