{"cas_no": "5022-29-7", "cn_name": "2-\u4e59\u57fa-1H-\u5f02\u5432\u54da-1,3(2H)-\u4e8c\u916e", "en_name": ["2-Ethyl-1H-isoindole-1,3(2H)-dione", "1H-Isoindole-1,3(2H)-dione, 2-ethyl-", "Phthalimide, N-ethyl-", "2-Ethyl-1H-isoindole-1,3(2H)-dione", "N-Ethylphthalimide", "NSC 2774", "2-Ethylisoindoline-1,3-dione", "2-Ethyl-2,3-dihydro-1H-isoindole-1,3-dione", "2-Ethylisoindole-1,3-dione"], "SMILES": "O=C1C=2C(C(=O)N1CC)=CC=CC2", "physical_data": {"Molecular Weight": "175.18", "Molecular Formula": "C10H9NO2", "Boiling Point": "285.5 \u00b0C", "Melting Point": "79 \u00b0C"}}