{"cas_no": "5024-21-5", "cn_name": "\u5341\u56db\u70ef\u4e8c\u9178\u4e8c\u7532\u916f", "en_name": ["1,14-Dimethyl tetradecanedioate", "Tetradecanedioic acid, 1,14-dimethyl ester", "Tetradecanedioic acid, dimethyl ester", "1,14-Dimethyl tetradecanedioate", "1,12-Dodecanedicarboxylic acid dimethyl ester", "Dimethyl tetradecanedioate", "NSC 9505"], "SMILES": "C(CCCCCCCCCCCCC(OC)=O)(OC)=O", "physical_data": {"Molecular Weight": "286.41", "Molecular Formula": "C16H30O4", "Boiling Point": "137-155 \u00b0C @ Press: 0.1 Torr", "Melting Point": "54-58 \u00b0C"}}