{"cas_no": "502487-67-4", "cn_name": "SQ 109", "en_name": ["N1-[(2E)-3,7-Dimethyl-2,6-octadien-1-yl]-N2-tricyclo[3.3.1.13,7]dec-2-yl-1,2-ethanediamine", "1,2-Ethanediamine, N1-[(2E)-3,7-dimethyl-2,6-octadien-1-yl]-N2-tricyclo[3.3.1.13,7]dec-2-yl-", "1,2-Ethanediamine, N-[(2E)-3,7-dimethyl-2,6-octadienyl]-N\u2032-tricyclo[3.3.1.13,7]dec-2-yl-", "N1-[(2E)-3,7-Dimethyl-2,6-octadien-1-yl]-N2-tricyclo[3.3.1.13,7]dec-2-yl-1,2-ethanediamine", "SQ 109", "NSC 722041"], "SMILES": "N(CCNCC=C(CCC=C(C)C)C)C1C2CC3CC1CC(C2)C3", "physical_data": {"Molecular Weight": "330.55", "Molecular Formula": "C22H38N2", "Melting Point": "180-184 \u00b0C"}}