{"cas_no": "5025-82-1", "cn_name": "\u534a\u53f6\u7d20", "en_name": ["N-Acetyl-4-thiazolidinecarboxylic acid", "4-Thiazolidinecarboxylic acid, 3-acetyl-", "3-Acetyl-4-thiazolidinecarboxylic acid", "N-Acetyl-4-thiazolidinecarboxylic acid", "Aminofol", "ATCA", "NSC 146111", "N-Acetyl-1,3-thiazolidine-4-carboxylic acid", "Fantac", "Fantac Plus", "3-Acetyl-1,3-thiazolidine-4-carboxylic acid"], "SMILES": "C(O)(=O)C1N(C(C)=O)CSC1", "physical_data": {"Molecular Weight": "175.21", "Molecular Formula": "C6H9NO3S", "Melting Point": "146-148 \u00b0C"}}