{"cas_no": "50257-40-4", "cn_name": "1-(2,4,6-\u4e09\u5f02\u4e19\u57fa\u82ef\u57fa\u78fa\u9170)\u54aa\u5511", "en_name": ["1-[[2,4,6-Tris(1-methylethyl)phenyl]sulfonyl]-1H-imidazole", "1H-Imidazole, 1-[[2,4,6-tris(1-methylethyl)phenyl]sulfonyl]-", "1-[[2,4,6-Tris(1-methylethyl)phenyl]sulfonyl]-1H-imidazole", "1-(2,4,6-Triisoprolylphenylsulfonyl)-1H-imidazole", "1-(2,4,6-Triisopropylphenylsulfonyl)-1H-imidazole", "1-(2,4,6-Triisopropylphenylsulfonyl)imidazole", "1-(2,4,6-Triisopropyl-benzenesulfonyl)-1H-imidazole", "1-[2,4,6-Tri(propan-2-yl)phenyl]sulfonylimidazole"], "SMILES": "S(=O)(=O)(C1=C(C(C)C)C=C(C(C)C)C=C1C(C)C)N2C=CN=C2", "physical_data": {"Molecular Weight": "334.48", "Molecular Formula": "C18H26N2O2S", "Melting Point": "118-119 \u00b0C"}}