{"cas_no": "50257-39-1", "cn_name": "\u95f4\u4e09\u7532\u57fa\u82ef\u78fa\u9170\u54aa\u5511", "en_name": ["1-[(2,4,6-Trimethylphenyl)sulfonyl]-1H-imidazole", "1H-Imidazole, 1-[(2,4,6-trimethylphenyl)sulfonyl]-", "1-[(2,4,6-Trimethylphenyl)sulfonyl]-1H-imidazole", "NSC 240873", "1-(2,4,6-Trimethylphenyl)sulfonylimidazole", "1-(Mesitylsulfonyl)-1H-imidazole"], "SMILES": "S(=O)(=O)(C1=C(C)C=C(C)C=C1C)N2C=CN=C2", "physical_data": {"Molecular Weight": "250.32", "Molecular Formula": "C12H14N2O2S", "Melting Point": "99-101 \u00b0C"}}