{"cas_no": "50262-48-1", "cn_name": "4-\u4e19\u70ef\u6c27\u57fa\u82ef\u7532\u919b", "en_name": ["4-(1-Oxopropoxy)benzaldehyde", "Benzaldehyde, 4-(1-oxopropoxy)-", "4-(1-Oxopropoxy)benzaldehyde", "p-(Propionyloxy)benzaldehyde", "4-Propionoxybenzaldehyde", "4-(Propionyloxy)benzaldehyde", "(4-Formylphenyl) propanoate"], "SMILES": "O(C(CC)=O)C1=CC=C(C=O)C=C1", "physical_data": {"Molecular Weight": "178.18", "Molecular Formula": "C10H10O3", "Boiling Point": "108 \u00b0C @ Press: 0.08 Torr"}}