{"cas_no": "5026-65-3", "cn_name": "3,4,5-\u4e09\u7f9f\u57fa\u82ef\u7532\u9178\u5341\u516d\u70f7\u57fa\u916f", "en_name": ["Cetyl gallate", "Benzoic acid, 3,4,5-trihydroxy-, hexadecyl ester", "Gallic acid, hexadecyl ester", "1-Hexadecanol, gallate", "Nipagallin CE", "Progallin CE", "Cetyl gallate", "Palmityl gallate", "Gallic acid, cetyl ester", "Hexadecyl gallate"], "SMILES": "C(OCCCCCCCCCCCCCCCC)(=O)C1=CC(O)=C(O)C(O)=C1", "physical_data": {"Molecular Weight": "394.54", "Molecular Formula": "C23H38O5", "Melting Point": "99.5-100 \u00b0C"}}