{"cas_no": "50264-69-2", "cn_name": "\u6c2f\u5c3c\u8fbe\u660e", "en_name": ["Lonidamine", "1H-Indazole-3-carboxylic acid, 1-[(2,4-dichlorophenyl)methyl]-", "1-[(2,4-Dichlorophenyl)methyl]-1H-indazole-3-carboxylic acid", "1-(2,4-Dichlorobenzyl)-1H-indazole-3-carboxylic acid", "Diclondazolic acid", "DICA", "AF 1890", "Lonidamine", "1-[(2,4-Dichlorophenyl)methyl]indazole-3-carboxylic acid"], "SMILES": "C(N1C=2C(C(C(O)=O)=N1)=CC=CC2)C3=C(Cl)C=C(Cl)C=C3", "physical_data": {"Molecular Weight": "321.16", "Molecular Formula": "C15H10Cl2N2O2", "Melting Point": "207 \u00b0C", "Density": "1.49 g/cm\u00b3"}}