{"cas_no": "5027-76-9", "cn_name": "OLEUROPEIC ACID", "en_name": ["Oleuropeic acid", "1-Cyclohexene-1-carboxylic acid, 4-(1-hydroxy-1-methylethyl)-, (4S)-", "1-Cyclohexene-1-carboxylic acid, 4-(1-hydroxy-1-methylethyl)-, (-)-", "Oleuropeic acid", "1-Cyclohexene-1-carboxylic acid, 4-(1-hydroxy-1-methylethyl)-, (S)-", "(4S)-4-(1-Hydroxy-1-methylethyl)-1-cyclohexene-1-carboxylic acid", "(-)-Oleuropeic acid", "(4S)-4-(2-Hydroxypropan-2-yl)cyclohex-1-ene-1-carboxylic acid"], "SMILES": "C(C)(C)(O)C1CCC(C(O)=O)=CC1", "physical_data": {"Molecular Weight": "184.23", "Molecular Formula": "C10H16O3", "Melting Point": "160 \u00b0C"}}