{"cas_no": "502764-53-6", "cn_name": "\u567b\u5429\u5e76[3,2-B]\u567b\u5429\u5e76[2,2-D]\u567b\u5429\u4e8c\u7fa7\u9178", "en_name": ["Dithieno[3,2-b:2\u2032,3\u2032-d]thiophene-2,6-dicarboxylic acid", "Dithieno[3,2-b:2\u2032,3\u2032-d]thiophene-2,6-dicarboxylic acid"], "SMILES": "C(O)(=O)C=1SC=2C3=C(SC2C1)C=C(C(O)=O)S3", "physical_data": {"Molecular Weight": "284.33", "Molecular Formula": "C10H4O4S3", "Melting Point": "&gt;300 \u00b0C"}}