{"cas_no": "5027-32-7", "cn_name": "3,4-\u4e8c\u4e59\u9170\u57fa-2,5-\u5df1\u4e8c\u916e", "en_name": ["3,4-Diacetyl-2,5-hexanedione", "2,5-Hexanedione, 3,4-diacetyl-", "3,4-Diacetyl-2,5-hexanedione", "Bis(acetylacetone)", "1,1,2,2-Tetraacetylethane", "Tetraacetylethane", "3,4-Diacetylhexane-2,5-dione", "NSC 35137", "3,4-Diacetyl-2,5-dioxohexane"], "SMILES": "C(C(C(C)=O)C(C)=O)(C(C)=O)C(C)=O", "physical_data": {"Molecular Weight": "198.22", "Molecular Formula": "C10H14O4", "Boiling Point": "130-132 \u00b0C @ Press: 1 Torr", "Melting Point": "188-191 \u00b0C"}}