{"cas_no": "5028-20-6", "cn_name": "N2-\u7532\u57fa-2,3-\u5421\u5576\u4e8c\u80fa", "en_name": ["N2-Methyl-2,3-pyridinediamine", "2,3-Pyridinediamine, N2-methyl-", "Pyridine, 3-amino-2-(methylamino)-", "N2-Methyl-2,3-pyridinediamine", "3-Amino-2-(methylamino)pyridine", "2-(Methylamino)-3-aminopyridine", "2,3-Pyridinediamine N2-methyl-", "2-N-Methylpyridine-2,3-diamine"], "SMILES": "N(C)C1=C(N)C=CC=N1", "physical_data": {"Molecular Weight": "123.16", "Molecular Formula": "C6H9N3", "Boiling Point": "145 \u00b0C", "Melting Point": "100-101 \u00b0C"}}