{"cas_no": "50298-90-3", "cn_name": "\u96ea\u80c6\u7d20\u4e59", "en_name": ["Dihydrocucurbitacin F", "19-Norlanost-5-ene-11,22-dione, 2,3,16,20,25-pentahydroxy-9-methyl-, (2\u03b2,3\u03b1,9\u03b2,10\u03b1,16\u03b1)-", "(2\u03b2,3\u03b1,9\u03b2,10\u03b1,16\u03b1)-2,3,16,20,25-Pentahydroxy-9-methyl-19-norlanost-5-ene-11,22-dione", "23,24-Dihydrocucurbitacin F", "Cucurbitacin IIb", "Dihydrocucurbitacin F", "Hemslecin B"], "SMILES": "CC12C(C)(C(C(C(CCC(C)(C)O)=O)(C)O)C(O)C1)CC(=O)C3(C)C2CC=C4C3CC(O)C(O)C4(C)C", "physical_data": {"Molecular Weight": "520.70", "Molecular Formula": "C30H48O7", "Melting Point": "155-156 \u00b0C"}}