{"cas_no": "5029-67-4", "cn_name": "2-\u7898\u5421\u5576", "en_name": ["2-Iodopyridine", "Pyridine, 2-iodo-", "2-Iodopyridine", "2-Pyridyl iodide", "NSC 5075"], "SMILES": "IC1=CC=CC=N1", "physical_data": {"Molecular Weight": "205.00", "Molecular Formula": "C5H4IN", "Boiling Point": "93 \u00b0C @ Press: 13 Torr", "Melting Point": "118-120 \u00b0C", "Density": "1.9735 g/cm\u00b3 @ Temp: 20 \u00b0C"}}