{"cas_no": "503-88-8", "cn_name": "3,5-\u4e8c\u6c28\u57fa-1,2,4-\u4e09\u6c2e\u5511", "en_name": ["3,5-Diamino-1,2,4-triazole", "1H-1,2,4-Triazole-3,5-diamine", "Guanazole", "3,5-Diamino-1,2,4-triazole", "3,5-Diamino-s-triazole", "NSC 1895", "3,5-Diamino-1H-1,2,4-triazole", "NSC 166592", "NSC 167391", "NSC 167392"], "SMILES": "NC=1NC(N)=NN1", "physical_data": {"Molecular Weight": "99.09", "Molecular Formula": "C2H5N5", "Melting Point": "205 \u00b0C (decomp)"}}