{"cas_no": "503-20-8", "cn_name": "\u6c1f\u4e59\u8148", "en_name": ["Acetonitrile, fluoro-", "Acetonitrile, fluoro-", "Fluoroacetonitrile", "Fluoromethyl cyanide", "Monofluoroacetonitrile", "2-Fluoroacetonitrile"], "SMILES": "C(C#N)F", "physical_data": {"Molecular Weight": "59.04", "Molecular Formula": "C2H2FN", "Boiling Point": "81.8-82 \u00b0C", "Density": "1.0730 g/cm\u00b3 @ Temp: 16 \u00b0C"}}