{"cas_no": "503-29-7", "cn_name": "\u6742\u6c2e\u73af\u4e01\u70f7", "en_name": ["Azetidine", "Azetidine", "Azacyclobutane", "Azete, tetrahydro-", "Trimethylenimine", "1,3-Propylenimine"], "SMILES": "C1CNC1", "physical_data": {"Molecular Weight": "57.09", "Molecular Formula": "C3H7N", "Boiling Point": "63 \u00b0C", "Melting Point": "-45.3 \u00b0C", "Density": "0.8412 g/cm\u00b3 @ Temp: 24 \u00b0C"}}