{"cas_no": "503-49-1", "cn_name": "3-\u7f9f\u57fa-3-\u7532\u57fa\u8c37\u6c28\u9178", "en_name": ["3-Hydroxy-3-methylglutaric acid", "Pentanedioic acid, 3-hydroxy-3-methyl-", "Glutaric acid, 3-hydroxy-3-methyl-", "3-Hydroxy-3-methylpentanedioic acid", "3-Hydroxy-3-methylglutaric acid", "\u03b2-Hydroxy-\u03b2-methylglutaric acid", "Meglutol", "3-Methyl-3-hydroxyglutaric acid", "Dicrotalic acid", "CB 337", "Mevalon", "HMGA", "Lipoglutaren", "Medroglutaric acid", "HMG", "NSC 361411", "3-Methyl-3-hydroxypentanedioic acid", "MeSH ID: D015093"], "SMILES": "C(C(CC(O)=O)(C)O)C(O)=O", "physical_data": {"Molecular Weight": "162.14", "Molecular Formula": "C6H10O5", "Melting Point": "108-109 \u00b0C"}}