{"cas_no": "503-66-2", "cn_name": "3-\u7f9f\u57fa\u4e19\u9178", "en_name": ["3-Hydroxypropionic acid", "Propanoic acid, 3-hydroxy-", "Hydracrylic acid", "3-Hydroxypropanoic acid", "\u03b2-Hydroxypropionic acid", "3-Hydroxypropionic acid", "\u03b2-Lactic acid", "Ethylenelactic acid", "2-Deoxyglyceric acid"], "SMILES": "C(C(O)=O)CO", "physical_data": {"Molecular Weight": "90.08", "Molecular Formula": "C3H6O3", "Boiling Point": "179-180.5 \u00b0C @ Press: 765 Torr", "Melting Point": "&lt;25 \u00b0C", "Density": "1.1989 g/cm\u00b3"}}