{"cas_no": "503-30-0", "cn_name": "\u4e09\u7532\u6c27\u57fa\u916f", "en_name": ["Oxetane", "Oxetane", "Trimethylene oxide", "Cyclooxabutane", "1,3-Epoxypropane", "Oxacyclobutane", "Propane, 1,3-epoxy-", "\u03b1,\u03b3-Propane oxide", "1,3-Propylene oxide", "Oxetan", "Oxytrimethylene", "NSC 30086", "Trimethylene ether"], "SMILES": "C1COC1", "physical_data": {"Molecular Weight": "58.08", "Molecular Formula": "C3H6O", "Boiling Point": "48 \u00b0C @ Press: 750 Torr", "Melting Point": "-97 \u00b0C", "Density": "0.8930 g/cm\u00b3 @ Temp: 25 \u00b0C"}}