{"cas_no": "503-87-7", "cn_name": "2-\u786b\u4ee3\u4e59\u5185\u9170\u8132", "en_name": ["Thiohydantoin", "4-Imidazolidinone, 2-thioxo-", "Hydantoin, 2-thio-", "2-Thioxo-4-imidazolidinone", "2-Thiohydantoin", "Thiohydantoin", "4-Oxo-2-thioxoimidazolidine", "NSC 11772", "Imidazolidin-4-one-2-thione", "2-Sulfanylideneimidazolidin-4-one"], "SMILES": "O=C1NC(=S)NC1", "physical_data": {"Molecular Weight": "116.14", "Molecular Formula": "C3H4N2OS", "Melting Point": "227 \u00b0C"}}