{"cas_no": "503-60-6", "cn_name": "1-\u6c2f-3-\u7532\u57fa-2-\u4e01\u70ef", "en_name": ["1-Chloro-3-methyl-2-butene", "2-Butene, 1-chloro-3-methyl-", "1-Chloro-3-methyl-2-butene", "Prenyl chloride", "2-Methyl-4-chloro-2-butene", "\u03b3,\u03b3-Dimethylallyl chloride", "3,3-Dimethylallyl chloride", "3-Methyl-2-butenyl chloride", "4-Chloro-2-methyl-2-butene", "3-Methylcrotyl chloride", "1,1-Dimethyl-3-chloro-1-propene", "Isoprenyl chloride", "3-Methyl-1-chloro-2-butene"], "SMILES": "C(=C(C)C)CCl", "physical_data": {"Molecular Weight": "104.58", "Molecular Formula": "C5H9Cl", "Boiling Point": "109 \u00b0C @ Press: 760 Torr", "Density": "0.9273 g/cm\u00b3 @ Temp: 20 \u00b0C"}}