{"cas_no": "503-38-8", "cn_name": "\u6c2f\u7532\u9178\u4e09\u6c2f\u7532\u916f", "en_name": ["Diphosgene", "Carbonochloridic acid, trichloromethyl ester", "Formic acid, chloro-, trichloromethyl ester", "Methanol, trichloro-, chloroformate", "Diphosgene", "Trichloromethyl chloroformate", "Diphosgen", "Trichloromethyl chlorocarbonate", "Trichloromethyl carbonochloridate", "Chloroformic acid trichloromethyl ester"], "SMILES": "O(C(Cl)(Cl)Cl)C(Cl)=O", "physical_data": {"Molecular Weight": "197.83", "Molecular Formula": "C2Cl4O2", "Boiling Point": "128 \u00b0C @ Press: 760 Torr", "Melting Point": "-57 \u00b0C", "Density": "1.6525 g/cm\u00b3 @ Temp: 14 \u00b0C"}}