{"cas_no": "503-09-3", "cn_name": "\u73af\u6c27\u6c1f\u4e19\u70f7", "en_name": ["Epifluorohydrin", "Oxirane, 2-(fluoromethyl)-", "Propane, 1,2-epoxy-3-fluoro-", "Epifluorohydrin", "Oxirane, (fluoromethyl)-", "2-(Fluoromethyl)oxirane", "3-Fluoropropene 1,2-oxide", "1,2-Epoxy-3-fluoropropane", "(Fluoromethyl)oxirane", "1-Fluoro-2,3-epoxypropane", "Oxirane, (fluoromethyl)-, (\u00b1)-", "3-Fluoro-1,2-epoxypropane", "NSC 21303", "NSC 88608", "(\u00b1)-2-(Fluoromethyl)oxirane"], "SMILES": "C(F)C1CO1", "physical_data": {"Molecular Weight": "76.07", "Molecular Formula": "C3H5FO", "Boiling Point": "85.5 \u00b0C", "Density": "1.090 g/cm\u00b3 @ Temp: 20 \u00b0C"}}