{"cas_no": "503-17-3", "cn_name": "2-\u4e01\u7094", "en_name": ["2-Butyne", "2-Butyne", "2-Butine", "Dimethylacetylene"], "SMILES": "C(#CC)C", "physical_data": {"Molecular Weight": "54.09", "Molecular Formula": "C4H6", "Boiling Point": "26.9 \u00b0C", "Melting Point": "-32.3 \u00b0C", "Density": "0.688 g/cm\u00b3 @ Temp: 25 \u00b0C"}}