{"cas_no": "503-74-2", "cn_name": "\u5f02\u620a\u9178", "en_name": ["Isovaleric acid", "Butanoic acid, 3-methyl-", "Isovaleric acid", "3-Methylbutanoic acid", "Acetic acid, isopropyl-", "Delphinic acid", "Isopropylacetic acid", "\u03b2-Methylbutyric acid", "Isopentanoic acid", "3-Methylbutyric acid", "3-Methylbutyrate", "3-Methyl-n-butyric acid", "Isovalerianic acid", "NSC 62783", "3-Methyl-1-butanoic acid"], "SMILES": "C(C(C)C)C(O)=O", "physical_data": {"Molecular Weight": "102.13", "Molecular Formula": "C5H10O2", "Boiling Point": "176.5 \u00b0C @ Press: 760 Torr", "Melting Point": "-29.3 \u00b0C", "Density": "0.931 g/cm\u00b3 @ Temp: 20 \u00b0C"}}