{"cas_no": "503-93-5", "cn_name": "\u4f18\u845b\u7f15\u916e", "en_name": ["Eucarvone", "2,4-Cycloheptadien-1-one, 2,6,6-trimethyl-", "2,6,6-Trimethyl-2,4-cycloheptadien-1-one", "Eucarvone", "NSC 127544"], "SMILES": "O=C1CC(C)(C)C=CC=C1C", "physical_data": {"Molecular Weight": "150.22", "Molecular Formula": "C10H14O", "Boiling Point": "87-89 \u00b0C @ Press: 7 Torr", "Density": "0.9700 g/cm\u00b3 @ Temp: 20 \u00b0C"}}