{"cas_no": "503-40-2", "cn_name": "\u7532\u57fa\u4e8c\u78fa\u9178", "en_name": ["Methanedisulfonic acid", "Methanedisulfonic acid", "Methylenedisulfonic acid", "Methionic acid"], "SMILES": "C(S(=O)(=O)O)S(=O)(=O)O", "physical_data": {"Molecular Weight": "176.17", "Molecular Formula": "CH4O6S2", "Melting Point": "98 \u00b0C"}}