{"cas_no": "503-11-7", "cn_name": "\u74b0\u6c27\u4e59\u57fa\u7532\u9178", "en_name": ["Glycidic acid", "2-Oxiranecarboxylic acid", "Glycidic acid", "Oxiranecarboxylic acid", "Epihydrinic acid", "Ethylene oxide-carboxylic acid", "Propanoic acid, 2,3-epoxy-", "2,3-Epoxypropionic acid", "2,3-Epoxypropanoic acid"], "SMILES": "C(O)(=O)C1CO1", "physical_data": {"Molecular Weight": "88.06", "Molecular Formula": "C3H4O3", "Boiling Point": "55-60 \u00b0C @ Press: 0.5 Torr", "Melting Point": "196 \u00b0C (decomp)"}}