{"cas_no": "503070-58-4", "cn_name": "\u7ef4\u5170\u7279\u7f57\u4e09\u82ef\u4e59\u9178\u76d0", "en_name": ["Vilanterol trifenatate", "Benzeneacetic acid, \u03b1,\u03b1-diphenyl-, compd. with (\u03b11R)-\u03b11-[[[6-[2-[(2,6-dichlorophenyl)methoxy]ethoxy]hexyl]amino]methyl]-4-hydroxy-1,3-benzenedimethanol (1:1)", "4-[(R)-2-[[6-[2-(2,6-Dichlorobenzyloxy)ethoxy]hexyl]amino]-1-hydroxyethyl]-2-(hydroxymethyl)phenol triphenylacetate", "Vilanterol trifenatate", "GW 642444M", "Vilanterol triphenylacetate"], "SMILES": "C(C(O)=O)(C1=CC=CC=C1)(C2=CC=CC=C2)C3=CC=CC=C3.C(CNCCCCCCOCCOCC1=C(Cl)C=CC=C1Cl)(O)C2=CC(CO)=C(O)C=C2", "physical_data": {"Molecular Weight": "", "Molecular Formula": "C24H33Cl2NO5.C20H16O2", "Melting Point": "131.9-134.2 \u00b0C"}}