{"cas_no": "5031-78-7", "cn_name": "4'-\u82ef\u6c27\u57fa\u82ef\u4e59\u916e", "en_name": ["1-(4-Phenoxyphenyl)ethanone", "Ethanone, 1-(4-phenoxyphenyl)-", "Acetophenone, 4\u2032-phenoxy-", "1-(4-Phenoxyphenyl)ethanone", "4-Acetyldiphenyl ether", "4-Acetylphenyl phenyl ether", "4\u2032-Phenoxyacetophenone", "p-Phenoxyacetophenone", "4-Acetyldiphenyl oxide", "1,2-(4-Acetylphenoxy)benzene", "NSC 39658", "1-(4-Phenoxyphenyl)ethan-1-one"], "SMILES": "O(C1=CC=C(C(C)=O)C=C1)C2=CC=CC=C2", "physical_data": {"Molecular Weight": "212.24", "Molecular Formula": "C14H12O2", "Boiling Point": "190-195 \u00b0C @ Press: 13 Torr", "Melting Point": "49 \u00b0C"}}