{"cas_no": "50329-91-4", "cn_name": "4-\u6c2f-3-\u7532\u9170\u57fa\u9999\u8c46\u7d20", "en_name": ["4-Chloro-3-formylcoumarin", "2H-1-Benzopyran-3-carboxaldehyde, 4-chloro-2-oxo-", "4-Chloro-2-oxo-2H-1-benzopyran-3-carboxaldehyde", "4-Chloro-3-formylcoumarin", "4-Chlorocoumarin-3-carboxaldehyde", "4-Chloro-2-oxo-2H-chromene-3-carbaldehyde", "3-Formyl-4-chlorocoumarin", "4-Chloro-2-oxo-2H-chromene-3-carboxaldehyde"], "SMILES": "ClC=1C=2C(OC(=O)C1C=O)=CC=CC2", "physical_data": {"Molecular Weight": "208.60", "Molecular Formula": "C10H5ClO3", "Melting Point": "115-120 \u00b0C"}}