{"cas_no": "50333-13-6", "cn_name": "N-\u7532\u57fa\u82b8\u9999\u78b1", "en_name": ["N-Methylflindersine", "5H-Pyrano[3,2-c]quinolin-5-one, 2,6-dihydro-2,2,6-trimethyl-", "2,6-Dihydro-2,2,6-trimethyl-5H-pyrano[3,2-c]quinolin-5-one", "N-Methylflindersine", "NSC 347659", "2,2,6-Trimethylpyrano[3,2-c]quinolin-5-one"], "SMILES": "CN1C=2C(C3=C(C1=O)C=CC(C)(C)O3)=CC=CC2", "physical_data": {"Molecular Weight": "241.29", "Molecular Formula": "C15H15NO2", "Melting Point": "81-82 \u00b0C"}}