{"cas_no": "503417-31-0", "cn_name": "1-(4-\u7532\u57fa\u82ef\u57fa)-\u73af\u4e19\u80fa", "en_name": ["1-(4-Methylphenyl)cyclopropanamine", "Cyclopropanamine, 1-(4-methylphenyl)-", "1-(4-Methylphenyl)cyclopropanamine", "1-p-Tolylcyclopropanamine", "1-(4-Methylphenyl)cyclopropan-1-amine"], "SMILES": "NC1(CC1)C2=CC=C(C)C=C2", "physical_data": {"Molecular Weight": "147.22", "Molecular Formula": "C10H13N", "Melting Point": "79 \u00b0C"}}