{"cas_no": "5034-06-0", "cn_name": "\u4e09\u7532\u57fa\u6c2f\u5316\u4e9a\u781c", "en_name": ["Sulfoxonium, trimethyl-, chloride", "Sulfoxonium, trimethyl-, chloride", "Trimethylsulfonium chloride, oxide", "Trimethyloxosulfonium chloride", "Trimethylsulfoxonium chloride", "NSC 221182"], "SMILES": "[S+](C)(C)(C)=O.[Cl-]", "physical_data": {"Molecular Weight": "", "Molecular Formula": "C3H9OS.Cl", "Melting Point": "215-216 \u00b0C"}}