{"cas_no": "503615-07-4", "cn_name": "\u963f\u54cc\u6c99\u73ed\u4e2d\u95f4\u4f53", "en_name": ["Ethyl 6-(4-aminophenyl)-4,5,6,7-tetrahydro-1-(4-methoxyphenyl)-7-oxo-1H-pyrazolo[3,4-c]pyridine-3-carboxylate", "1H-Pyrazolo[3,4-c]pyridine-3-carboxylic acid, 6-(4-aminophenyl)-4,5,6,7-tetrahydro-1-(4-methoxyphenyl)-7-oxo-, ethyl ester", "Ethyl 6-(4-aminophenyl)-4,5,6,7-tetrahydro-1-(4-methoxyphenyl)-7-oxo-1H-pyrazolo[3,4-c]pyridine-3-carboxylate", "6-(4-Aminophenyl)-1-(4-methoxyphenyl)-7-oxo-4,5,6,7-tetrahydro-1H-pyrazolo[3,4-c]pyridine-3-carboxylic acid ethyl ester"], "SMILES": "O=C1C=2N(N=C(C(OCC)=O)C2CCN1C3=CC=C(N)C=C3)C4=CC=C(OC)C=C4", "physical_data": {"Molecular Weight": "406.43", "Molecular Formula": "C22H22N4O4", "Melting Point": "150.6-152.3 \u00b0C"}}