{"cas_no": "503612-76-8", "cn_name": "1-(4-\u7f9f\u57fa\u82ef\u57fa)-7-\u6c27\u4ee3-6-[4-(2-\u6c27\u4ee3\u54cc\u5576-1-\u57fa)\u82ef\u57fa]-4,5,6,7-\u56db\u6c22-1H-\u5421\u5511\u5e76[3,4-C]\u5421\u5576-3-\u7532\u9170\u80fa", "en_name": ["4,5,6,7-Tetrahydro-1-(4-hydroxyphenyl)-7-oxo-6-[4-(2-oxo-1-piperidinyl)phenyl]-1H-pyrazolo[3,4-c]pyridine-3-carboxamide", "1H-Pyrazolo[3,4-c]pyridine-3-carboxamide, 4,5,6,7-tetrahydro-1-(4-hydroxyphenyl)-7-oxo-6-[4-(2-oxo-1-piperidinyl)phenyl]-", "4,5,6,7-Tetrahydro-1-(4-hydroxyphenyl)-7-oxo-6-[4-(2-oxo-1-piperidinyl)phenyl]-1H-pyrazolo[3,4-c]pyridine-3-carboxamide", "1-(4-Hydroxyphenyl)-7-oxo-6-[4-(2-oxopiperidin-1-yl)phenyl]-4,5,6,7-tetrahydro-1H-pyrazolo[3,4-c]pyridine-3-carboxamide", "1-(4-Hydroxyphenyl)-7-oxo-6-[4-(2-oxopiperidin-1-yl)phenyl]-4,5-dihydropyrazolo[3,4-c]pyridine-3-carboxamide"], "SMILES": "O=C1C=2N(N=C(C(N)=O)C2CCN1C3=CC=C(C=C3)N4C(=O)CCCC4)C5=CC=C(O)C=C5", "physical_data": {"Molecular Weight": "445.47", "Molecular Formula": "C24H23N5O4", "Melting Point": "160-165 \u00b0C"}}