{"cas_no": "5036-48-6", "cn_name": "1-(3-\u6c28\u57fa\u4e19\u57fa)\u54aa\u5511", "en_name": ["1H-Imidazole-1-propanamine", "1H-Imidazole-1-propanamine", "Imidazole, 1-(3-aminopropyl)-", "1-(3-Aminopropyl)imidazole", "3-(1-Imidazolyl)propylamine", "N-(3-Aminopropyl)imidazole", "3-(1H-Imidazol-1-yl)propylamine", "PC CAT API", "3-(1H-1-Imidazolyl)-1-propanamine", "1-(3-Aminopropyl)-1H-imidazole", "3-(Imidazol-1-yl)propylamine", "Lupragen API", "1-(3\u2032-Aminopropyl)imidazole", "N-[3-(1H-Imidazol-1-yl)propyl]amine", "3-(1H-Imidazol-1-yl)-1-propylamine", "3-Aminopropylimidazole", "3-(1H-Imidazol-1-yl)propan-1-amine", "3-(1H-Imidazol-1-yl)propanamine", "1-(3-Aminopropanyl)imidazole", "3-Imidazol-1-ylpropan-1-amine"], "SMILES": "C(CCN)N1C=CN=C1", "physical_data": {"Molecular Weight": "125.17", "Molecular Formula": "C6H11N3", "Boiling Point": "98-100 \u00b0C @ Press: 0.2 Torr"}}