{"cas_no": "5036-02-2", "cn_name": "\u56db\u7c73\u5511", "en_name": ["(\u00b1)-Tetramisole", "Imidazo[2,1-b]thiazole, 2,3,5,6-tetrahydro-6-phenyl-", "Imidazo[2,1-b]thiazole, 2,3,5,6-tetrahydro-6-phenyl-, (\u00b1)-", "2,3,5,6-Tetrahydro-6-phenylimidazo[2,1-b]thiazole", "(\u00b1)-2,3,5,6-Tetrahydro-6-phenylimidazo[2,1-b]thiazole", "dl-Tetramisole", "(\u00b1)-Tetramisole", "dl-Tetramisol", "Nilverm base", "Tetramisole", "Tetramisol", "dl-2,3,5,6-Tetrahydro-6-phenylimidazo(2,1-b)thiazole", "6-Phenyl-2,3,5,6-tetrahydroimidazo[2,1-b]thiazole", "Duxamintic", "Ashitetra"], "SMILES": "C1(CN2C(=N1)SCC2)C3=CC=CC=C3", "physical_data": {"Molecular Weight": "204.29", "Molecular Formula": "C11H12N2S", "Melting Point": "90-92 \u00b0C"}}