{"cas_no": "50370-56-4", "cn_name": "\u7532\u57fa(1R,2S,3S,5S)-3-(4-\u6c1f\u82ef\u57fa)-8-\u7532\u57fa-8-\u6c2e\u6742\u53cc\u73af[3.2.1]\u8f9b\u70f7-2-\u7532\u9178\u916f", "en_name": ["Win 35428", "8-Azabicyclo[3.2.1]octane-2-carboxylic acid, 3-(4-fluorophenyl)-8-methyl-, methyl ester, (1R,2S,3S,5S)-", "8-Azabicyclo[3.2.1]octane-2-carboxylic acid, 3-(4-fluorophenyl)-8-methyl-, methyl ester, [1R-(exo,exo)]-", "Win 35428", "(-)-Win 35,428", "O 381", "\u03b2-CFT", "CFT", "2\u03b2-Carbomethoxy-3\u03b2-(4\u2032-fluorophenyl)tropane", "Methyl (1R,2S,3S,5S)-3-(4-fluorophenyl)-8-methyl-8-azabicyclo[3.2.1]octane-2-carboxylate"], "SMILES": "C(OC)(=O)C1C(CC2N(C)C1CC2)C3=CC=C(F)C=C3", "physical_data": {"Molecular Weight": "277.33", "Molecular Formula": "C16H20FNO2", "Melting Point": "90.5-91.5 \u00b0C"}}