{"cas_no": "50375-10-5", "cn_name": "2,3,6-\u4e09\u6c2f\u8334\u9999\u919a", "en_name": ["2,3,6-Trichloroanisole", "Benzene, 1,2,4-trichloro-3-methoxy-", "1,2,4-Trichloro-3-methoxybenzene", "2,3,6-Trichloroanisole"], "SMILES": "O(C)C1=C(Cl)C(Cl)=CC=C1Cl", "physical_data": {"Molecular Weight": "211.47", "Molecular Formula": "C7H5Cl3O", "Boiling Point": "227 \u00b0C", "Melting Point": "45 \u00b0C"}}