{"cas_no": "50390-76-6", "cn_name": "2-\u7532\u6c27\u57fa-5-\u7532\u78fa\u9170\u57fa\u82ef\u7532\u9178", "en_name": ["2-Methoxy-5-(methylsulfonyl)benzoic acid", "Benzoic acid, 2-methoxy-5-(methylsulfonyl)-", "2-Methoxy-5-(methylsulfonyl)benzoic acid", "6-Methoxy-3-methylsulfonylbenzoic acid", "5-Methylsulfonyl-2-methoxybenzoic acid", "2-Methoxy-5-methylsulphonylbenzoic acid"], "SMILES": "C(O)(=O)C1=C(OC)C=CC(S(C)(=O)=O)=C1", "physical_data": {"Molecular Weight": "230.24", "Molecular Formula": "C9H10O5S", "Melting Point": "190 \u00b0C"}}