{"cas_no": "504-88-1", "cn_name": "3-\u785d\u57fa\u4e19\u9178", "en_name": ["3-Nitropropionic acid", "Propanoic acid, 3-nitro-", "Propionic acid, 3-nitro-", "3-Nitropropanoic acid", "BNP", "Bovinocidin", "Hiptagenic acid", "\u03b2-Nitropropionic acid", "3-Nitropropionic acid", "NSC 64266"], "SMILES": "C(CN(=O)=O)C(O)=O", "physical_data": {"Molecular Weight": "119.08", "Molecular Formula": "C3H5NO4", "Melting Point": "68-70 \u00b0C"}}