{"cas_no": "504-57-4", "cn_name": "10-\u5341\u4e5d\u70f7\u916e", "en_name": ["Nonyl ketone", "10-Nonadecanone", "Dinonyl ketone", "Caprinone", "Nonyl ketone", "10-Oxononadecane", "NSC 1773"], "SMILES": "C(C(CCCCCCCCC)=O)CCCCCCCC", "physical_data": {"Molecular Weight": "282.50", "Molecular Formula": "C19H38O", "Melting Point": "65.5 \u00b0C"}}