{"cas_no": "504-07-4", "cn_name": "\u4e8c\u6c22\u5c3f\u5627\u5576", "en_name": ["Dihydrouracil", "2,4(1H,3H)-Pyrimidinedione, dihydro-", "Hydrouracil", "Dihydro-2,4(1H,3H)-pyrimidinedione", "Dihydrouracil", "5,6-Dihydrouracil", "5,6-Dihydro-2,4-dihydroxypyrimidine", "5,6-Dihydro-2,4(1H,3H)-pyrimidinedione", "NSC 11867"], "SMILES": "O=C1NC(=O)NCC1", "physical_data": {"Molecular Weight": "114.10", "Molecular Formula": "C4H6N2O2", "Melting Point": "272-274 \u00b0C", "Density": "1.58 g/cm\u00b3"}}