{"cas_no": "504-15-4", "cn_name": "3,5-\u4e8c\u7f9f\u57fa\u7532\u82ef", "en_name": ["Orcinol", "1,3-Benzenediol, 5-methyl-", "Resorcinol, 5-methyl-", "5-Methyl-1,3-benzenediol", "1,3-Dihydroxy-5-methylbenzene", "3,5-Dihydroxytoluene", "5-Methylresorcinol", "Orcin", "Orcinol", "3-Hydroxy-5-methylphenol", "5-Methyl-1,3-dihydroxybenzene", "1,5-Dihydroxy-3-methylbenzene", "NSC 12441"], "SMILES": "CC1=CC(O)=CC(O)=C1", "physical_data": {"Molecular Weight": "124.14", "Molecular Formula": "C7H8O2", "Boiling Point": "289.5 \u00b0C", "Melting Point": "107.5 \u00b0C"}}