{"cas_no": "504-97-2", "cn_name": "\u82b1\u6912\u9ebb\u7d20", "en_name": ["Sanshool", "2,6,8,10-Dodecatetraenamide, N-(2-methylpropyl)-, (2E,6Z,8E,10E)-", "2,6,8,10-Dodecatetraenamide, N-isobutyl-, (E,E,Z,E)-", "2,6,8,10-Dodecatetraenamide, N-(2-methylpropyl)-, (E,E,Z,E)-", "(2E,6Z,8E,10E)-N-(2-Methylpropyl)-2,6,8,10-dodecatetraenamide", "Echinacein", "\u03b1-Sanshool", "\u03b1-Sanshooel", "Sanshool", "2E,6Z,8E,10E-Dodecatetraenoic acid N-(2-methylpropyl)amide", "Neoherculine", "Neoherculin", "N-(2-Methylpropyl)-2E,6Z,8E,10E-dodecatetraenamide", "N-Isobutyl-trans-2,cis-6,trans-8,trans-10-dodecatetraenamide", "Echinaceine"], "SMILES": "C(=CCCC=CC=CC=CC)C(NCC(C)C)=O", "physical_data": {"Molecular Weight": "247.38", "Molecular Formula": "C16H25NO", "Melting Point": "63-65 \u00b0C"}}