{"cas_no": "504-02-9", "cn_name": "1,3-\u73af\u5df1\u4e8c\u916e", "en_name": ["1,3-Cyclohexanedione", "1,3-Cyclohexanedione", "Dihydroresorcinol", "Hydroresorcinol", "Resorcinol, dihydro-", "1,3-Benzenediol, dihydro-", "1,3-Dioxocyclohexane", "NSC 57477", "Cyclohexane-1,3-dione"], "SMILES": "O=C1CC(=O)CCC1", "physical_data": {"Molecular Weight": "112.13", "Molecular Formula": "C6H8O2", "Melting Point": "105.5 \u00b0C", "Density": "1.0861 g/cm\u00b3 @ Temp: 91 \u00b0C"}}