{"cas_no": "504-01-8", "cn_name": "1,3-\u73af\u5df1\u4e8c\u9187", "en_name": ["1,3-Cyclohexanediol", "1,3-Cyclohexanediol", "Resorcitol", "1,3-Benzenediol, hexahydro-", "1,3-Dihydroxycyclohexane", "NSC 30235"], "SMILES": "OC1CC(O)CCC1", "physical_data": {"Molecular Weight": "116.16", "Molecular Formula": "C6H12O2", "Boiling Point": "138-141 \u00b0C @ Press: 11 Torr", "Melting Point": "45 \u00b0C", "Density": "1.0951 g/cm\u00b3 @ Temp: 25 \u00b0C"}}