{"cas_no": "504-17-6", "cn_name": "4,6-\u4e8c\u7f9f\u57fa-2-\u5def\u57fa\u5627\u5576", "en_name": ["Thiobarbituric acid", "4,6(1H,5H)-Pyrimidinedione, dihydro-2-thioxo-", "Barbituric acid, 2-thio-", "Dihydro-2-thioxo-4,6(1H,5H)-pyrimidinedione", "2-Thiobarbituric acid", "Thiobarbituric acid", "2-Mercapto-4,6-dihydroxypyrimidine", "2-Thio-4,6-dioxypyrimidine", "Bathyran", "2-Mercaptobarbituric acid", "Austranal", "2-Mercaptopyrimidine-4,6-diol", "4,6-Dihydroxy-2-mercaptopyrimidine", "Hexahydropyrimidine-4,6-dione-2-thione", "1,2,3,4,5,6-Hexahydro-4,6-dioxopyrimidine-2-thione", "NSC 4733", "2-Thiopyrimidine-4,6-diol", "2-Thioxodihydropyrimidine-4,6(1H,5H)-dione", "2-Thioxo-dihydro-pyrimidine-4,6-dione", "2-Thioxopyrimidine-4,6-dione", "2-Mercaptopyrimidine-4,6(1H,5H)-dione", "2-Sulfanyl-1,4,5,6-tetrahydropyrimidine-4,6-dione", "2-Sulfanylidene-1,3-diazinane-4,6-dione"], "SMILES": "O=C1CC(=O)NC(=S)N1", "physical_data": {"Molecular Weight": "144.15", "Molecular Formula": "C4H4N2O2S", "Melting Point": "245 \u00b0C", "Density": "1.661 g/cm\u00b3"}}