{"cas_no": "504-29-0", "cn_name": "2-\u6c28\u57fa\u5421\u5576", "en_name": ["2-Aminopyridine", "2-Pyridinamine", "Pyridine, 2-amino-", "o-Aminopyridine", "\u03b1-Aminopyridine", "2-Aminopyridine", "1,2-Dihydro-2-iminopyridine", "2-Pyridylamine", "\u03b1-Pyridinamine", "\u03b1-Pyridylamine", "2-Pyridinylamine", "NSC 431"], "SMILES": "NC1=CC=CC=N1", "physical_data": {"Molecular Weight": "94.11", "Molecular Formula": "C5H6N2", "Boiling Point": "210.6 \u00b0C", "Melting Point": "58.1 \u00b0C", "Density": "1.065 g/cm\u00b3 @ Temp: 20 \u00b0C"}}