{"cas_no": "504-60-9", "cn_name": "\u95f4\u620a\u4e8c\u70ef", "en_name": ["1,3-Pentadiene", "1,3-Pentadiene", "Piperylene", "1-Methylbutadiene", "1-Methyl-1,3-butadiene"], "SMILES": "C(C=C)=CC", "physical_data": {"Molecular Weight": "68.12", "Molecular Formula": "C5H8", "Boiling Point": "42 \u00b0C", "Melting Point": "41-43 \u00b0C", "Density": "0.6760 g/cm\u00b3 @ Temp: 20 \u00b0C"}}