{"cas_no": "504-08-5", "cn_name": "2,4-\u4e8c\u6c28\u57fa-1,3,5-\u4e09\u55ea", "en_name": ["1,3,5-Triazine-2,4-diamine", "1,3,5-Triazine-2,4-diamine", "s-Triazine, 2,4-diamino-", "Formoguanamine", "Guanamine", "2,6-Diamino-s-triazine", "2,4-Diamino-s-triazine", "4,6-Diamino-s-triazine", "Diamino-s-triazine", "2,4-Diamino-1,3,5-triazine", "2,6-Diamino-1,3,5-triazine", "NSC 251", "D 2227"], "SMILES": "NC=1N=C(N)N=CN1", "physical_data": {"Molecular Weight": "111.11", "Molecular Formula": "C3H5N5", "Melting Point": "&gt;300 \u00b0C"}}