{"cas_no": "504-74-5", "cn_name": "\u54aa\u5511\u5549", "en_name": ["Imidazolidine", "Imidazolidine", "Imidazole, tetrahydro-", "1,3-Diazacyclopentane"], "SMILES": "C1CNCN1", "physical_data": {"Molecular Weight": "72.11", "Molecular Formula": "C3H8N2", "Melting Point": "68.2-68.8 \u00b0C"}}