{"cas_no": "504-61-0", "cn_name": "\u5df4\u8c46\u9187(\u987a\u53cd\u6df7\u5408\u7269)", "en_name": ["trans-Crotyl alcohol", "2-Buten-1-ol, (2E)-", "2-Buten-1-ol, (E)-", "2-Buten-1-ol, trans-", "(2E)-2-Buten-1-ol", "trans-2-Buten-1-ol", "trans-Crotonyl alcohol", "trans-Crotyl alcohol", "trans-2-Butenol", "trans-2-Butenyl alcohol", "(E)-2-Buten-1-ol", "(E)-Crotyl alcohol", "(E)-2-Butene-1-ol", "2-Butene, ammoniate (1:1), (2E)-"], "SMILES": "C(=CC)CO", "physical_data": {"Molecular Weight": "72.11", "Molecular Formula": "C4H8O", "Boiling Point": "121.2 \u00b0C", "Melting Point": "&lt;-30 \u00b0C", "Density": "0.8454 g/cm\u00b3 @ Temp: 25 \u00b0C"}}