{"cas_no": "504-78-9", "cn_name": "\u56db\u6c22\u567b\u5511", "en_name": ["Thiazolidine", "Thiazolidine", "Thiazole, tetrahydro-", "1-Thia-3-azacyclopentane", "Tetrahydrothiazole", "1,3-Thiazolidine"], "SMILES": "C1CSCN1", "physical_data": {"Molecular Weight": "89.16", "Molecular Formula": "C3H7NS", "Boiling Point": "164-165 \u00b0C", "Density": "1.131 g/cm\u00b3 @ Temp: 25 \u00b0C"}}