{"cas_no": "504-85-8", "cn_name": "4-\u7532\u57fa-3-\u620a\u70ef\u9178", "en_name": ["4-Methyl-3-pentenoic acid", "3-Pentenoic acid, 4-methyl-", "4-Methyl-3-pentenoic acid", "Pyroterebic acid", "4,4-Dimethyl-3-butenoic acid", "4-Methyl-3-penten-1-oic acid"], "SMILES": "C(CC(O)=O)=C(C)C", "physical_data": {"Molecular Weight": "114.14", "Molecular Formula": "C6H10O2", "Boiling Point": "107-108 \u00b0C @ Press: 13.5 Torr", "Melting Point": "98 \u00b0C", "Density": "0.9726 g/cm\u00b3 @ Temp: 25 \u00b0C"}}