{"cas_no": "504-24-5", "cn_name": "4-\u6c28\u57fa\u5421\u5576", "en_name": ["4-Aminopyridine", "4-Pyridinamine", "Pyridine, 4-amino-", "4-Aminopyridine", "VMI 10-3", "Phillips 1861", "\u03b3-Aminopyridine", "p-Aminopyridine", "4-Pyridylamine", "Avitrol", "EL 970", "Fampridine", "4-Pyridinylamine", "4AP", "NSC 15041", "Neurelan", "Ampyra", "Dalfampridine", "Pymadin", "Fampyra", "MeSH ID: D015761"], "SMILES": "NC=1C=CN=CC1", "physical_data": {"Molecular Weight": "94.11", "Molecular Formula": "C5H6N2", "Boiling Point": "273 \u00b0C", "Melting Point": "158.5 \u00b0C"}}