{"cas_no": "504-03-0", "cn_name": "2,6-\u4e8c\u7532\u57fa\u54cc\u5576", "en_name": ["2,6-Dimethylpiperidine", "Piperidine, 2,6-dimethyl-", "2,6-Lupetidine", "2,6-Dimethylpiperidine", "Nanofin", "Nanophyn", "Nanophine", "Naniopinum", "Nanophin", "Lupetidin", "NSC 63890", "NSC 7513"], "SMILES": "CC1NC(C)CCC1", "physical_data": {"Molecular Weight": "113.20", "Molecular Formula": "C7H15N", "Boiling Point": "127 \u00b0C", "Melting Point": "14 \u00b0C", "Density": "0.8158 g/cm\u00b3 @ Temp: 25 \u00b0C"}}