{"cas_no": "504-30-3", "cn_name": "3-\u54d2\u55ea\u916e", "en_name": ["3(2H)-Pyridazinone", "3(2H)-Pyridazinone", "3-Pyridazinone", "3-Pyridazinol", "6-Pyridazinone", "3-Hydroxypyridazine", "2H-Pyridazin-3-one", "NSC 21411", "3-Oxo-2,3-dihydropyridazine", "2,3-Dihydropyridazin-3-one", "1H-Pyridazin-6-one"], "SMILES": "O=C1C=CC=NN1", "physical_data": {"Molecular Weight": "96.09", "Molecular Formula": "C4H4N2O", "Boiling Point": "143 \u00b0C @ Press: 19 Torr", "Melting Point": "103 \u00b0C", "Density": "1.478 g/cm\u00b3"}}