{"cas_no": "504-40-5", "cn_name": "1,3-\u786c\u8102\u9178\u7518\u6cb9\u916f", "en_name": ["1,3-Distearin", "Octadecanoic acid, 1,1\u2032-(2-hydroxy-1,3-propanediyl) ester", "Stearin, 1,3-di-", "Octadecanoic acid, 2-hydroxy-1,3-propanediyl ester", "1,3-Distearin", "Stearic acid diglycerin ester", "1,3-Di-O-stearoylglycerol", "1,3-Distearoylglycerol", "1,3-Distearoylglycerin", "Glyceryl 1,3-distearate", "Glycerin 1,3-distearate", "Glycerol 1,3-distearate", "sn-1,3-Distearoylglycerol", "NSC 404229", "2-Hydroxypropane-1,3-diyl distearate"], "SMILES": "C(C(COC(CCCCCCCCCCCCCCCCC)=O)O)OC(CCCCCCCCCCCCCCCCC)=O", "physical_data": {"Molecular Weight": "625.02", "Molecular Formula": "C39H76O5", "Melting Point": "78.5-79 \u00b0C"}}