{"cas_no": "504-20-1", "cn_name": "\u4f5b\u5c14\u916e(\u4e8c\u5f02\u4e9a\u4e19\u57fa\u4e19\u916e)", "en_name": ["Phorone", "2,5-Heptadien-4-one, 2,6-dimethyl-", "2,6-Dimethyl-2,5-heptadien-4-one", "Diisopropylidene acetone", "sym-Diisopropylidene acetone", "Phorone", "Diisobutenyl ketone", "Foron", "NSC 38718", "NSC 403517"], "SMILES": "C(C(C=C(C)C)=O)=C(C)C", "physical_data": {"Molecular Weight": "138.21", "Molecular Formula": "C9H14O", "Boiling Point": "198 \u00b0C", "Melting Point": "28 \u00b0C", "Density": "0.9 g/cm\u00b3"}}