{"cas_no": "504-63-2", "cn_name": "1,3-\u4e19\u4e8c\u9187", "en_name": ["1,3-Propanediol", "1,3-Propanediol", "PG", "\u03b2-Propylene glycol", "1,3-Propylene glycol", "Trimethylene glycol", "1,3-Dihydroxypropane", "2-Deoxyglycerol", "1,3-Propylenediol", "\u03c9-Propanediol", "NSC 65426", "Bio-PDO", "Zemea", "Susterra", "Zemea propanediol", "Propane-1,3-diol", "P 0486"], "SMILES": "C(CO)CO", "physical_data": {"Molecular Weight": "76.09", "Molecular Formula": "C3H8O2", "Boiling Point": "214.4 \u00b0C", "Melting Point": "-26.7 \u00b0C", "Density": "1.0573 g/cm\u00b3 @ Temp: 15 \u00b0C"}}