{"cas_no": "504-53-0", "cn_name": "18-\u4e09\u5341\u4e94\u70f7\u916e", "en_name": ["18-Pentatriacontanone", "18-Pentatriacontanone", "Stearone", "Di-n-heptadecyl ketone", "Heptadecyl ketone", "Diheptadecyl ketone", "EP 2036-18", "Wax KS", "NSC 83612"], "SMILES": "C(C(CCCCCCCCCCCCCCCCC)=O)CCCCCCCCCCCCCCCC", "physical_data": {"Molecular Weight": "506.93", "Molecular Formula": "C35H70O", "Melting Point": "89 \u00b0C"}}