{"cas_no": "504-33-6", "cn_name": "DL-\u9ad8\u78fa\u57fa\u4e19\u6c28\u9178", "en_name": ["(\u00b1)-Homocysteic acid", "Butanoic acid, 2-amino-4-sulfo-", "Butyric acid, 2-amino-4-sulfo-, DL-", "Butanoic acid, 2-amino-4-sulfo-, (\u00b1)-", "2-Amino-4-sulfobutanoic acid", "DL-Homocysteic acid", "(\u00b1)-Homocysteic acid", "dl-Homocysteic acid", "Homocysteic acid"], "SMILES": "C(C(C(O)=O)N)CS(=O)(=O)O", "physical_data": {"Molecular Weight": "183.18", "Molecular Formula": "C4H9NO5S", "Melting Point": "261-262 \u00b0C (decomp)", "Density": "1.709 g/cm\u00b3"}}