{"cas_no": "504-31-4", "cn_name": "2\u6c22-\u5421\u5583-2\u916e", "en_name": ["2H-Pyran-2-one", "2H-Pyran-2-one", "1,2-Pyrone", "Coumalin", "2,4-Pentadienoic acid, 5-hydroxy-, \u03b4-lactone", "\u03b1-Pyrone", "2-Pyrone", "2H-Pyran, 2-oxo-", "2-Pyranone"], "SMILES": "O=C1C=CC=CO1", "physical_data": {"Molecular Weight": "96.08", "Molecular Formula": "C5H4O2", "Boiling Point": "207.5 \u00b0C", "Melting Point": "8.5 \u00b0C", "Density": "1.198 g/cm\u00b3 @ Temp: 20 \u00b0C"}}