{"cas_no": "5041-81-6", "cn_name": "\u5f02\u7518\u8349\u7519", "en_name": ["Isoliquiritin", "2-Propen-1-one, 1-(2,4-dihydroxyphenyl)-3-[4-(\u03b2-D-glucopyranosyloxy)phenyl]-, (2E)-", "Chalcone, 2\u2032,4,4\u2032-trihydroxy-, 4-\u03b2-D-glucopyranoside", "2-Propen-1-one, 1-(2,4-dihydroxyphenyl)-3-[4-(\u03b2-D-glucopyranosyloxy)phenyl]-, (E)-", "(2E)-1-(2,4-Dihydroxyphenyl)-3-[4-(\u03b2-D-glucopyranosyloxy)phenyl]-2-propen-1-one", "Isoliquiritin", "Isoliquiritoside", "2\u2032,4,4\u2032-Trihydroxychalcone 4-(\u03b2-D-glucopyranoside)"], "SMILES": "O(C1OC(CO)C(O)C(O)C1O)C2=CC=C(C=CC(=O)C3=C(O)C=C(O)C=C3)C=C2", "physical_data": {"Molecular Weight": "418.39", "Molecular Formula": "C21H22O9", "Melting Point": "185-186 \u00b0C (decomp)"}}