{"cas_no": "50419-58-4", "cn_name": "2-\u6c28\u57fa-3,4-\u4e8c\u7532\u57fa\u82ef\u7532\u9178", "en_name": ["2-Amino-3,4-dimethylbenzoic acid", "Benzoic acid, 2-amino-3,4-dimethyl-", "2-Amino-3,4-dimethylbenzoic acid", "3,4-Dimethylanthranilic acid", "NSC 135928"], "SMILES": "C(O)(=O)C1=C(N)C(C)=C(C)C=C1", "physical_data": {"Molecular Weight": "165.19", "Molecular Formula": "C9H11NO2", "Melting Point": "184-186 \u00b0C (decomp)"}}