{"cas_no": "5041-82-7", "cn_name": "\u5f02\u9f20\u674e\u7d20-3-O-\u8461\u8404\u7cd6\u82f7", "en_name": ["Isorhamnetin 3-O-glucoside", "4H-1-Benzopyran-4-one, 3-(\u03b2-D-glucopyranosyloxy)-5,7-dihydroxy-2-(4-hydroxy-3-methoxyphenyl)-", "Isorhamnetin 3-glucoside", "Flavone, 3,4\u2032,5,7-tetrahydroxy-3\u2032-methoxy-, 3-\u03b2-D-glucopyranoside", "Glucopyranoside, isorhamnetin-3, \u03b2-D-", "3-(\u03b2-D-Glucopyranosyloxy)-5,7-dihydroxy-2-(4-hydroxy-3-methoxyphenyl)-4H-1-benzopyran-4-one", "Isorhamnetin 3-\u03b2-D-glucoside", "Isorhamnetin 3-\u03b2-D-glucopyranoside", "Isorhamnetin 3-O-\u03b2-D-glucopyranoside", "Isorhamnetin 3-O-\u03b2-D-glucoside", "Isorhamnetin 3-D-glucoside", "3,4\u2032,5,7-Tetrahydroxy-3\u2032-methoxyflavone 3-\u03b2-D-glucopyranoside", "3\u2032-O-Methylquercetin 3-glucoside", "3,5,7,4\u2032-Tetrahydroxy-3\u2032-methoxyflavone 3-\u03b2-D-glucoside", "Isorhamnetin 3-O-\u03b2-glucoside", "Isorhamnetin 3-O-glucoside", "5,7,4\u2032-Trihydroxy-3\u2032-methoxyflavone 3-O-\u03b2-glucopyranoside"], "SMILES": "O(C1=C(OC=2C(C1=O)=C(O)C=C(O)C2)C3=CC(OC)=C(O)C=C3)C4OC(CO)C(O)C(O)C4O", "physical_data": {"Molecular Weight": "478.40", "Molecular Formula": "C22H22O12", "Melting Point": "165-167 \u00b0C"}}