{"cas_no": "5041-67-8", "cn_name": "\u80e1\u6843\u5b81", "en_name": ["Juglanin", "4H-1-Benzopyran-4-one, 3-(\u03b1-L-arabinofuranosyloxy)-5,7-dihydroxy-2-(4-hydroxyphenyl)-", "Flavone, 3,4\u2032,5,7-tetrahydroxy-, 3-\u03b1-L-arabinofuranoside", "Juglanin", "Arabinofuranoside, kaempferol-3, \u03b1-L-", "Arabinofuranoside, 5,7-dihydroxy-2-(p-hydroxyphenyl)-4-oxo-4H-1-benzopyran-3-yl, \u03b1-L-", "3-(\u03b1-L-Arabinofuranosyloxy)-5,7-dihydroxy-2-(4-hydroxyphenyl)-4H-1-benzopyran-4-one", "5,7,4\u2032-Trihydroxyflavone 3-\u03b1-L-arabinofuranoside", "Euglanin", "Juglanin (Juglans)", "Kaempferol 3-arabinoside", "Kaempferol 3-O-arabinoside", "Kaempferol 3-O-\u03b1-L-arabinofuranoside"], "SMILES": "O(C1=C(OC=2C(C1=O)=C(O)C=C(O)C2)C3=CC=C(O)C=C3)C4OC(CO)C(O)C4O", "physical_data": {"Molecular Weight": "418.35", "Molecular Formula": "C20H18O10", "Melting Point": "224-225 \u00b0C"}}