{"cas_no": "50428-14-3", "cn_name": "\u53bb\u6c22\u4e9a\u785d\u57fa\u785d\u82ef\u5730\u5e73", "en_name": ["Dehydronitrosonifedipine", "3,5-Pyridinedicarboxylic acid, 2,6-dimethyl-4-(2-nitrosophenyl)-, 3,5-dimethyl ester", "3,5-Pyridinedicarboxylic acid, 2,6-dimethyl-4-(2-nitrosophenyl)-, dimethyl ester", "2,6-Dimethyl-3,5-dicarbomethoxy-4-(2-nitrosophenyl)pyridine", "4-(2-Nitrosophenyl)-2,6-dimethyl-3,5-dimethoxycarbonylpyridine", "Dehydronitrosonifedipine", "Nitrosonifedipine"], "SMILES": "C(OC)(=O)C=1C(=C(C(OC)=O)C(C)=NC1C)C2=C(N=O)C=CC=C2", "physical_data": {"Molecular Weight": "328.32", "Molecular Formula": "C17H16N2O5", "Melting Point": "93 \u00b0C"}}