{"cas_no": "5042-55-7", "cn_name": "1,3-\u82ef\u4e8c\u80fa,5-\u785d\u57fa-", "en_name": ["5-Nitro-1,3-benzenediamine", "1,3-Benzenediamine, 5-nitro-", "m-Phenylenediamine, 5-nitro-", "5-Nitro-1,3-benzenediamine", "1-Nitro-3,5-diaminobenzene", "3,5-Diaminonitrobenzene", "1,3-Diamino-5-nitrobenzene", "3-Amino-5-nitroaniline", "5-Nitro-m-phenylenediamine", "NSC 166388", "NSC 283"], "SMILES": "N(=O)(=O)C1=CC(N)=CC(N)=C1", "physical_data": {"Molecular Weight": "153.14", "Molecular Formula": "C6H7N3O2", "Melting Point": "159 \u00b0C"}}