{"cas_no": "5042-30-8", "cn_name": "2\uff0c2\uff0c2-\u4e09\u6c1f\u4e59\u57fa\u80bc", "en_name": ["(2,2,2-Trifluoroethyl)hydrazine", "Hydrazine, (2,2,2-trifluoroethyl)-", "(2,2,2-Trifluoroethyl)hydrazine", "Trifluoroethylhydrazine", "1-(2,2,2-Trifluoroethyl)hydrazine", "NSC 111156"], "SMILES": "C(C(F)(F)F)NN", "physical_data": {"Molecular Weight": "114.07", "Molecular Formula": "C2H5F3N2", "Boiling Point": "101-107 \u00b0C @ Press: 760 Torr"}}