{"cas_no": "50432-68-3", "cn_name": "4-\u6c2f-1-\u7532\u57fa-1H-\u54aa\u5511[4,5-C]\u5421\u5576", "en_name": ["4-Chloro-1-methyl-1H-imidazo[4,5-c]pyridine", "1H-Imidazo[4,5-c]pyridine, 4-chloro-1-methyl-", "4-Chloro-1-methyl-1H-imidazo[4,5-c]pyridine"], "SMILES": "ClC1=C2C(N(C)C=N2)=CC=N1", "physical_data": {"Molecular Weight": "167.60", "Molecular Formula": "C7H6ClN3", "Melting Point": "168-170 \u00b0C"}}