{"cas_no": "5044-24-6", "cn_name": "1-(4-\u6eb4\u82ef\u57fa)-2,5-\u4e8c\u7532\u57fa\u5421\u54af", "en_name": ["1-(4-Bromophenyl)-2,5-dimethyl-1H-pyrrole", "1H-Pyrrole, 1-(4-bromophenyl)-2,5-dimethyl-", "Pyrrole, 1-(p-bromophenyl)-2,5-dimethyl-", "1-(4-Bromophenyl)-2,5-dimethyl-1H-pyrrole", "1-(4-Bromophenyl)-2,5-dimethylpyrrole", "2,5-Dimethyl-1-(4-bromophenyl)pyrrole", "N-(p-Bromophenyl)-2,5-dimethylpyrrole"], "SMILES": "CC=1N(C(C)=CC1)C2=CC=C(Br)C=C2", "physical_data": {"Molecular Weight": "250.13", "Molecular Formula": "C12H12BrN", "Melting Point": "74-75 \u00b0C"}}