{"cas_no": "50440-82-9", "cn_name": "2-\u6c28\u57fa-6-\u7532\u57fa-4(3H)-\u55b9\u5511\u5549\u916e", "en_name": ["2-Amino-6-methyl-4(3H)-quinazolinone", "4(3H)-Quinazolinone, 2-amino-6-methyl-", "4(1H)-Quinazolinone, 2-amino-6-methyl-", "4-Quinazolinol, 2-amino-6-methyl-", "2-Amino-6-methyl-4(3H)-quinazolinone", "2-Amino-4-hydroxy-6-methylquinazoline", "2-Amino-6-methyl-1H-quinazolin-4-one", "2-Amino-6-methyl-3H-quinazolin-4-one", "2-Amino-6-methylquinazolin-4-ol", "2-Amino-6-methyl-3,4-dihydroquinazolin-4-one"], "SMILES": "O=C1C=2C(NC(N)=N1)=CC=C(C)C2", "physical_data": {"Molecular Weight": "175.19", "Molecular Formula": "C9H9N3O", "Melting Point": "&gt;250 \u00b0C"}}