{"cas_no": "5044-23-5", "cn_name": "1-(4-\u6c2f\u82ef\u57fa)-2,5-\u4e8c\u7532\u57fa\u5421\u54af", "en_name": ["1-(4-Chlorophenyl)-2,5-dimethyl-1H-pyrrole", "1H-Pyrrole, 1-(4-chlorophenyl)-2,5-dimethyl-", "Pyrrole, 1-(p-chlorophenyl)-2,5-dimethyl-", "1-(4-Chlorophenyl)-2,5-dimethyl-1H-pyrrole", "1-(4-Chlorophenyl)-2,5-dimethylpyrrole", "N-(p-Chlorophenyl)-2,5-dimethylpyrrole", "2,5-Dimethyl-1-(4-chlorophenyl)pyrrole"], "SMILES": "CC=1N(C(C)=CC1)C2=CC=C(Cl)C=C2", "physical_data": {"Molecular Weight": "205.68", "Molecular Formula": "C12H12ClN", "Melting Point": "56 \u00b0C"}}