{"cas_no": "5044-22-4", "cn_name": "2,5-\u4e8c\u7532\u57fa-1-(4-\u785d\u57fa\u82ef\u57fa)-1H-\u5421\u54af", "en_name": ["2,5-Dimethyl-1-(4-nitrophenyl)-1H-pyrrole", "1H-Pyrrole, 2,5-dimethyl-1-(4-nitrophenyl)-", "Pyrrole, 2,5-dimethyl-1-(p-nitrophenyl)-", "2,5-Dimethyl-1-(4-nitrophenyl)-1H-pyrrole", "2,5-Dimethyl-1-(4-nitrophenyl)pyrrole", "N-(p-Nitrophenyl)-2,5-dimethylpyrrole"], "SMILES": "CC=1N(C2=CC=C(N(=O)=O)C=C2)C(C)=CC1", "physical_data": {"Molecular Weight": "216.24", "Molecular Formula": "C12H12N2O2", "Melting Point": "145 \u00b0C"}}