{"cas_no": "50458-79-2", "cn_name": "3-\u5f02\u55b9\u5549\u7532\u9178\u4e59\u916f", "en_name": ["3-Isoquinolinecarboxylic acid, ethyl ester", "3-Isoquinolinecarboxylic acid, ethyl ester", "Ethyl 3-isoquinolinecarboxylate"], "SMILES": "C(OCC)(=O)C1=CC2=C(C=N1)C=CC=C2", "physical_data": {"Molecular Weight": "201.22", "Molecular Formula": "C12H11NO2", "Boiling Point": "165-170 \u00b0C @ Press: 2 Torr", "Melting Point": "40-46 \u00b0C"}}