{"cas_no": "50461-74-0", "cn_name": "2-\u6c27\u4ee3\u620a\u9178\u4e59\u916f", "en_name": ["Ethyl 2-oxopentanoate", "Pentanoic acid, 2-oxo-, ethyl ester", "Valeric acid, 2-oxo-, ethyl ester", "Ethyl 2-oxopentanoate", "2-Oxopentanoic acid ethyl ester"], "SMILES": "C(C(OCC)=O)(CCC)=O", "physical_data": {"Molecular Weight": "144.17", "Molecular Formula": "C7H12O3", "Boiling Point": "182.5 \u00b0C", "Density": "0.9965 g/cm\u00b3 @ Temp: 18 \u00b0C"}}