{"cas_no": "50471-44-8", "cn_name": "\u4e59\u70ef\u83cc\u6838\u5229", "en_name": ["Vinclozolin", "2,4-Oxazolidinedione, 3-(3,5-dichlorophenyl)-5-ethenyl-5-methyl-", "3-(3,5-Dichlorophenyl)-5-ethenyl-5-methyl-2,4-oxazolidinedione", "N-3,5-Dichlorophenyl-5-methyl-5-vinyloxazolidine-2,4-dione", "Vinclozolin", "Ronilan", "BAS 35202F", "BAS 35204", "BAS 352-04F", "Ranilan", "Ornalin", "Ronilan 50WP", "(\u00b1)-Vinclozolin"], "SMILES": "O=C1N(C(=O)OC1(C=C)C)C2=CC(Cl)=CC(Cl)=C2", "physical_data": {"Molecular Weight": "286.11", "Molecular Formula": "C12H9Cl2NO3", "Boiling Point": "131 \u00b0C @ Press: 0.05 Torr", "Melting Point": "108 \u00b0C", "Density": "1.51 g/cm\u00b3"}}