{"cas_no": "50472-20-3", "cn_name": "-2-\u80fa", "en_name": ["2-Azulenamine", "2-Azulenamine", "2-Aminoazulene"], "SMILES": "NC1=CC=2C(=C1)C=CC=CC2", "physical_data": {"Molecular Weight": "143.19", "Molecular Formula": "C10H9N", "Melting Point": "93-94 \u00b0C"}}