{"cas_no": "50479-11-3", "cn_name": "[3-(\u4e59\u6c27\u7fb0\u57fa)\u4e19\u57fa]\u4e09\u82ef\u93fb\u6eb4\u5316\u9502", "en_name": ["Phosphonium, (4-ethoxy-4-oxobutyl)triphenyl-, bromide (1:1)", "Phosphonium, (4-ethoxy-4-oxobutyl)triphenyl-, bromide (1:1)", "Phosphonium, (4-ethoxy-4-oxobutyl)triphenyl-, bromide", "[3-(Ethoxycarbonyl)propyl]triphenylphosphonium bromide", "3-Carboethoxypropyltriphenylphosphonium bromide", "NSC 269919", "(4-Ethoxy-4-oxobutyl)triphenylphosphonium bromide", "Triphenyl(3-(ethoxycarbonyl)propyl)phosphonium bromide"], "SMILES": "[P+](CCCC(OCC)=O)(C1=CC=CC=C1)(C2=CC=CC=C2)C3=CC=CC=C3.[Br-]", "physical_data": {"Molecular Weight": "", "Molecular Formula": "C24H26O2P.Br", "Melting Point": "172-174 \u00b0C"}}