{"cas_no": "50488-44-3", "cn_name": "4-\u6eb4-2-\u7532\u57fa\u55b9\u5549", "en_name": ["4-Bromo-2-methylquinoline", "Quinoline, 4-bromo-2-methyl-", "4-Bromo-2-methylquinoline", "4-Bromoquinaldine"], "SMILES": "BrC=1C2=C(N=C(C)C1)C=CC=C2", "physical_data": {"Molecular Weight": "222.08", "Molecular Formula": "C10H8BrN", "Boiling Point": "88-90 \u00b0C @ Press: 1 Torr"}}