{"cas_no": "5048-26-0", "cn_name": "5-\u70ef\u5df1\u916f", "en_name": ["5-Hexenyl acetate", "5-Hexen-1-ol, 1-acetate", "5-Hexen-1-ol, acetate", "5-Hexenyl acetate", "6-Acetoxy-1-hexene", "5-Hexen-1-yl acetate", "Acetic acid 5-hexenyl ester"], "SMILES": "C(CCCC=C)OC(C)=O", "physical_data": {"Molecular Weight": "142.20", "Molecular Formula": "C8H14O2", "Boiling Point": "169-170 \u00b0C @ Press: 704 Torr", "Density": "0.8992 g/cm\u00b3 @ Temp: 20 \u00b0C"}}