{"cas_no": "5048-82-8", "cn_name": "4-\u6c28\u57fa\u8089\u6842\u9178\u4e59\u916f", "en_name": ["Ethyl 3-(4-aminophenyl)-2-propenoate", "2-Propenoic acid, 3-(4-aminophenyl)-, ethyl ester", "Cinnamic acid, p-amino-, ethyl ester", "Ethyl 3-(4-aminophenyl)-2-propenoate", "Ethyl p-aminocinnamate", "Ethyl 4-aminocinnamate", "4-Aminocinnamic acid ethyl ester", "(4-(2-(Ethoxycarbonyl)ethenyl)phenyl)amine", "NSC 44439", "Ethyl 3-(4-aminophenyl)acrylate", "3-(4-Aminophenyl)acrylic acid ethyl ester"], "SMILES": "C(=CC(OCC)=O)C1=CC=C(N)C=C1", "physical_data": {"Molecular Weight": "191.23", "Molecular Formula": "C11H13NO2", "Melting Point": "73 \u00b0C"}}