{"cas_no": "50488-89-6", "cn_name": "\u82a6\u835f\u5927\u9ec4\u7d20-3-(\u7f9f\u7532\u57fa)-O-\u0392-D-\u8461\u8404\u7cd6\u82f7", "en_name": ["3-[(\u03b2-D-Glucopyranosyloxy)methyl]-1,8-dihydroxy-9,10-anthracenedione", "9,10-Anthracenedione, 3-[(\u03b2-D-glucopyranosyloxy)methyl]-1,8-dihydroxy-", "3-[(\u03b2-D-Glucopyranosyloxy)methyl]-1,8-dihydroxy-9,10-anthracenedione"], "SMILES": "O=C1C=2C(C(=O)C=3C1=CC=CC3O)=C(O)C=C(COC4OC(CO)C(O)C(O)C4O)C2", "physical_data": {"Molecular Weight": "432.38", "Molecular Formula": "C21H20O10", "Melting Point": "187-189 \u00b0C"}}