{"cas_no": "50487-71-3", "cn_name": "N-\u70ef\u4e19\u57fa-4-\u7532\u57fa\u82ef\u78fa\u9170\u80fa", "en_name": ["N-Allyl-p-toluenesulfonamide", "Benzenesulfonamide, 4-methyl-N-2-propen-1-yl-", "Benzenesulfonamide, 4-methyl-N-2-propenyl-", "p-Toluenesulfonamide, N-allyl-", "4-Methyl-N-2-propen-1-ylbenzenesulfonamide", "N-Allyl-p-toluenesulfonamide", "N-Allyl-4-methylbenzenesulfonamide", "N-Allyl-p-tolylsulfonamide", "N-Tosylallylamine", "4-Methyl-N-2-propenylbenzenesulfonamide", "NSC 169195", "N-Allyl-p-tosylamide"], "SMILES": "S(NCC=C)(=O)(=O)C1=CC=C(C)C=C1", "physical_data": {"Molecular Weight": "211.28", "Molecular Formula": "C10H13NO2S", "Melting Point": "64-65 \u00b0C"}}