{"cas_no": "5049-61-6", "cn_name": "\u6c28\u57fa\u5421\u55ea", "en_name": ["Aminopyrazine", "2-Pyrazinamine", "Pyrazinamine", "Pyrazine, 1,2-dihydro-2-imino-", "Pyrazine, amino-", "Aminopyrazine", "ENT 60202", "2-Aminopyrazine", "1,2-Dihydro-2-iminopyrazine", "Pyrazin-2-ylamine", "NSC 13147", "2-Amino-1,4-pyrazine", "3-Aminopyrazine"], "SMILES": "NC=1C=NC=CN1", "physical_data": {"Molecular Weight": "95.10", "Molecular Formula": "C4H5N3", "Melting Point": "117 \u00b0C"}}