{"cas_no": "505-48-6", "cn_name": "\u8f9b\u4e8c\u9178", "en_name": ["Suberic acid", "Octanedioic acid", "Suberic acid", "Hexamethylenedicarboxylic acid", "1,6-Hexanedicarboxylic acid", "1,8-Octanedioic acid", "1,6-Dicarboxyhexane", "Cork acid", "NSC 25952", "NSC 53777"], "SMILES": "C(CC(O)=O)CCCCC(O)=O", "physical_data": {"Molecular Weight": "174.19", "Molecular Formula": "C8H14O4", "Boiling Point": "345.5 \u00b0C", "Melting Point": "144 \u00b0C", "Density": "1.272 g/cm\u00b3"}}