{"cas_no": "505-22-6", "cn_name": "1,3-\u4e8c\u5641\u70f7", "en_name": ["1,3-Dioxane", "1,3-Dioxane", "m-Dioxane", "m-Dioxin, dihydro-", "1,3-Propanediol formal", "1,3-Dioxacyclohexane", "NSC 139436"], "SMILES": "C1COCOC1", "physical_data": {"Molecular Weight": "88.11", "Molecular Formula": "C4H8O2", "Boiling Point": "105 \u00b0C @ Press: 755 Torr", "Melting Point": "-42 \u00b0C", "Density": "1.0342 g/cm\u00b3 @ Temp: 20 \u00b0C"}}