{"cas_no": "505-66-8", "cn_name": "\u9ad8\u54cc\u55ea", "en_name": ["Homopiperazine", "1H-1,4-Diazepine, hexahydro-", "Hexahydro-1H-1,4-diazepine", "1,4-Diazacycloheptane", "Hexahydro-1,4-diazepine", "Homopiperazine", "Trimethyleneethylenediamine", "Perhydro-1,4-diazepine", "1,4-Diazepane"], "SMILES": "C1CNCCNC1", "physical_data": {"Molecular Weight": "100.16", "Molecular Formula": "C5H12N2", "Boiling Point": "168-170 \u00b0C", "Melting Point": "42 \u00b0C"}}