{"cas_no": "505-32-8", "cn_name": "\u5f02\u690d\u7269\u9187", "en_name": ["Isophytol", "1-Hexadecen-3-ol, 3,7,11,15-tetramethyl-", "3,7,11,15-Tetramethyl-1-hexadecen-3-ol", "Isophytol", "NSC 93744", "Isovegetable alcohol"], "SMILES": "C(CC(C=C)(C)O)CC(CCCC(CCCC(C)C)C)C", "physical_data": {"Molecular Weight": "296.53", "Molecular Formula": "C20H40O", "Boiling Point": "107-110 \u00b0C @ Press: 0.01 Torr", "Melting Point": "&lt;25 \u00b0C", "Density": "0.8519 g/cm\u00b3 @ Temp: 20 \u00b0C"}}