{"cas_no": "505-10-2", "cn_name": "3-\u7532\u786b\u57fa\u4e19\u9187", "en_name": ["3-(Methylthio)-1-propanol", "1-Propanol, 3-(methylthio)-", "3-(Methylthio)-1-propanol", "\u03b3-Methylmercaptopropyl alcohol", "Methionol", "3-Methylmercapto-1-propanol", "3-Hydroxypropyl methyl sulfide", "3-(Methylthio)propanol", "4-Thiapentan-1-ol", "3-(Methylsulfanyl)-1-propanol", "NSC 2859"], "SMILES": "C(CSC)CO", "physical_data": {"Molecular Weight": "106.19", "Molecular Formula": "C4H10OS", "Boiling Point": "102 \u00b0C @ Press: 14 Torr", "Density": "1.030 g/cm\u00b3 @ Temp: 20 \u00b0C"}}