{"cas_no": "505-34-0", "cn_name": "3-(\u7532\u57fa\u78fa\u9170\u57fa)\u5f02\u786b\u6c30\u9178\u4e19\u916f", "en_name": ["Cheirolin", "Propane, 1-isothiocyanato-3-(methylsulfonyl)-", "Isothiocyanic acid, 3-(methylsulfonyl)propyl ester", "Cheirolin", "1-Isothiocyanato-3-(methylsulfonyl)propane", "Methylpropylsulfone mustard oil", "Cheiroline", "1-Isothiocyanato-3-methanesulfonylpropane"], "SMILES": "C(CS(C)(=O)=O)CN=C=S", "physical_data": {"Molecular Weight": "179.26", "Molecular Formula": "C5H9NO2S2", "Melting Point": "47.5 \u00b0C"}}