{"cas_no": "505-60-2", "cn_name": "\u82a5\u5b50\u6c14", "en_name": ["Sulfur mustard", "Ethane, 1,1\u2032-thiobis[2-chloro-", "Sulfide, bis(2-chloroethyl)", "1,1\u2032-Thiobis[2-chloroethane]", "Bis(\u03b2-chloroethyl) sulfide", "Bis(2-chloroethyl) sulfide", "1-Chloro-2-(\u03b2-chloroethylthio)ethane", "2,2\u2032-Dichlorodiethyl sulfide", "Di-2-chloroethyl sulfide", "\u03b2,\u03b2\u2032-Dichloroethyl sulfide", "Kampstoff Lost", "Mustard gas", "Sulfur mustard", "Sulfur mustard gas", "Yellow cross liquid", "Yperite", "2,2\u2032-Dichloroethyl sulfide", "Senfgas", "Iprit", "S-Lost", "\u03b2,\u03b2\u2032-Dichlorodiethyl sulfide", "S-Yperite", "Agent HD", "HD (chemical warfare agent)", "HD", "Mustard", "\u03b2-Chloroethylisobutyl sulfide", "THD", "Agent THD", "THD (chemical warfare agent)"], "SMILES": "S(CCCl)CCCl", "physical_data": {"Molecular Weight": "159.08", "Molecular Formula": "C4H8Cl2S", "Boiling Point": "216 \u00b0C", "Melting Point": "13-14 \u00b0C", "Density": "1.27 g/cm\u00b3 @ Temp: 15 \u00b0C"}}