{"cas_no": "505-52-2", "cn_name": "\u5341\u4e09\u70f7\u4e8c\u9178", "en_name": ["Tridecanedioic acid", "Tridecanedioic acid", "Brassylic acid", "1,13-Tridecanedioic acid", "1,11-Undecanedicarboxylic acid", "\u03b1,\u03c9-Tridecanedioic acid", "NSC 9498", "\u03c9-Carboxylauric acid"], "SMILES": "C(CC(O)=O)CCCCCCCCCC(O)=O", "physical_data": {"Molecular Weight": "244.33", "Molecular Formula": "C13H24O4", "Boiling Point": "215-217 \u00b0C @ Press: 2 Torr", "Melting Point": "111 \u00b0C"}}