{"cas_no": "505-47-5", "cn_name": "3,3'-\u4e9a\u6c28\u57fa\u4e8c\u4e19\u9178", "en_name": ["N-(2-Carboxyethyl)-\u03b2-alanine", "\u03b2-Alanine, N-(2-carboxyethyl)-", "Propionic acid, 3,3\u2032-iminodi-", "N-(2-Carboxyethyl)-\u03b2-alanine", "Propanoic acid, 3,3\u2032-iminobis-", "Bis(carboxyethyl)amine", "3,3\u2032-Iminodipropanoic acid", "3,3\u2032-Iminodipropionic acid", "\u03b2,\u03b2\u2032-Aminodipropionic acid", "3,3\u2032-Iminobis(propionic acid)", "NSC 41820"], "SMILES": "C(CC(O)=O)NCCC(O)=O", "physical_data": {"Molecular Weight": "161.16", "Molecular Formula": "C6H11NO4", "Melting Point": "235-236 \u00b0C (decomp)"}}