{"cas_no": "505-73-7", "cn_name": "\u4e8c\u786b\u9187\u4e8c\u7f9f\u57fa\u4e59\u9178", "en_name": ["Dithiodiglycolic acid", "Acetic acid, 2,2\u2032-dithiobis-", "Acetic acid, dithiodi-", "2,2\u2032-Dithiobis[acetic acid]", "Dithiodiglycolic acid", "Bis(mercaptoacetic acid)", "Dithiodiacetic acid", "Dithioglycolic acid", "2,2\u2032-Dithiodiacetic acid", "Thioglycolate disulfide", "2,2\u2032-Dithiodiethanoic acid", "Mercaptoacetic acid disulfide", "NSC 54088", "Bis(carboxymethyl) disulfide", "2,2\u2032-Dithiobis(acetic acid)", "4-Dithiodiglycolic acid", "2,2\u2032-Disulfanediyldiacetic acid", "2-[(Carboxymethyl)disulfanyl]acetic acid", "2-(Carboxymethyldisulfanyl)acetic acid"], "SMILES": "S(SCC(O)=O)CC(O)=O", "physical_data": {"Molecular Weight": "182.22", "Molecular Formula": "C4H6O4S2", "Melting Point": "109 \u00b0C"}}