{"cas_no": "505-79-3", "cn_name": "3-(\u7532\u786b\u57fa)\u4e19\u57fa\u5f02\u786b\u6c30\u9178\u916f", "en_name": ["3-Methylthiopropyl isothiocyanate", "Propane, 1-isothiocyanato-3-(methylthio)-", "Isothiocyanic acid, 3-(methylthio)propyl ester", "1-Isothiocyanato-3-(methylthio)propane", "3-Methylthiopropyl isothiocyanate", "Iberverin", "3-Methylsulfanylpropylisothiocyanate", "1-Isothiocyanato-3-(methylsulfanyl)propane", "1-Isothiocyanato-3-methylsulfanylpropane"], "SMILES": "C(CN=C=S)CSC", "physical_data": {"Molecular Weight": "147.26", "Molecular Formula": "C5H9NS2", "Boiling Point": "116 \u00b0C @ Press: 9 Torr"}}