{"cas_no": "505-56-6", "cn_name": "\u4e8c\u5341\u4e8c\u70f7\u4e8c\u9178", "en_name": ["Docosanedioic acid", "Docosanedioic acid", "1,20-Eicosanedicarboxylic acid", "Phellogenic acid", "Felogenic acid", "1,22-Docosanedioic acid", "NSC 56159", "Docosan-1,22-dioic acid"], "SMILES": "C(CC(O)=O)CCCCCCCCCCCCCCCCCCC(O)=O", "physical_data": {"Molecular Weight": "370.57", "Molecular Formula": "C22H42O4", "Boiling Point": "176-177 \u00b0C @ Press: 3 Torr", "Melting Point": "120-122 \u00b0C"}}