{"cas_no": "505-23-7", "cn_name": "1,3-\u4e8c\u567b\u70f7", "en_name": ["1,3-Dithiane", "1,3-Dithiane", "m-Dithiane", "m-Dithiane", "1,3-Dithiacyclohexane", "NSC 157830"], "SMILES": "C1CSCSC1", "physical_data": {"Molecular Weight": "120.24", "Molecular Formula": "C4H8S2", "Melting Point": "54 \u00b0C"}}