{"cas_no": "505-95-3", "cn_name": "\u7aef\u7f9f\u57fa12\u9178", "en_name": ["12-Hydroxydodecanoic acid", "Dodecanoic acid, 12-hydroxy-", "12-Hydroxydodecanoic acid", "12-Hydroxylauric acid", "\u03c9-Hydroxydodecanoic acid", "\u03c9-Hydroxylauric acid", "NSC 159293", "NSC 664211"], "SMILES": "C(CCCCCCCCO)CCC(O)=O", "physical_data": {"Molecular Weight": "216.32", "Molecular Formula": "C12H24O3", "Boiling Point": "102-103 \u00b0C @ Press: 0.5 Torr", "Melting Point": "83-84 \u00b0C", "Density": "0.973 g/cm\u00b3 @ Temp: 20 \u00b0C"}}