{"cas_no": "505-54-4", "cn_name": "\u5341\u516d\u78b3\u4e8c\u9178", "en_name": ["Hexadecanedioic acid", "Hexadecanedioic acid", "1,14-Tetradecanedicarboxylic acid", "Thapsic acid", "n-Tetradecane-\u03c9,\u03c9\u2032-dicarboxylic acid", "1,16-Hexadecanedioic acid", "\u03b1,\u03c9-Tetradecanedicarboxylic acid", "NSC 15164"], "SMILES": "C(CC(O)=O)CCCCCCCCCCCCC(O)=O", "physical_data": {"Molecular Weight": "286.41", "Molecular Formula": "C16H30O4", "Boiling Point": "184-188 \u00b0C @ Press: 0.07 Torr", "Melting Point": "113 \u00b0C"}}