{"cas_no": "505-29-3", "cn_name": "1,4-\u4e8c\u567b\u70f7", "en_name": ["1,4-Dithiane", "1,4-Dithiane", "p-Dithiane", "1,4-Dithiin, tetrahydro-", "1,4-Dithiacyclohexane", "NSC 24178"], "SMILES": "C1CSCCS1", "physical_data": {"Molecular Weight": "120.24", "Molecular Formula": "C4H8S2", "Boiling Point": "199.5 \u00b0C", "Melting Point": "112.3 \u00b0C"}}