{"cas_no": "505-44-2", "cn_name": "3-\u7532\u57fa\u4e9a\u78fa\u9170\u4e19\u57fa\u5f02\u786b\u6c30\u9178\u916f", "en_name": ["Iberin", "Propane, 1-isothiocyanato-3-(methylsulfinyl)-", "Isothiocyanic acid, 3-(methylsulfinyl)propyl ester", "1-Isothiocyanato-3-(methylsulfinyl)propane", "Iberin", "3-Methylsulfinylpropyl isothiocyanate", "NSC 321801"], "SMILES": "C(CS(C)=O)CN=C=S", "physical_data": {"Molecular Weight": "163.26", "Molecular Formula": "C5H9NOS2", "Boiling Point": "149-156 \u00b0C @ Press: 0.06 Torr"}}