{"cas_no": "50509-09-6", "cn_name": "\u4e59\u66ff\u5511\u4f26\u4e2d\u95f4\u4f53", "en_name": ["2-Amino-N-[3-(2-chlorobenzoyl)-5-ethyl-2-thienyl]acetamide", "Acetamide, 2-amino-N-[3-(2-chlorobenzoyl)-5-ethyl-2-thienyl]-", "2-Amino-N-[3-(2-chlorobenzoyl)-5-ethyl-2-thienyl]acetamide", "2-(Aminoacetamido)-3-(o-chlorobenzoyl)-5-ethylthiophene", "2-Amino-N-[3-(2-chlorobenzoyl)-5-ethylthiophen-2-yl]acetamide"], "SMILES": "C(=O)(C1=C(NC(CN)=O)SC(CC)=C1)C2=C(Cl)C=CC=C2", "physical_data": {"Molecular Weight": "322.81", "Molecular Formula": "C15H15ClN2O2S", "Melting Point": "144-146 \u00b0C"}}