{"cas_no": "505084-56-0", "cn_name": "2-\u6c2f-3-\u7898-5-(\u4e09\u6c1f\u7532\u57fa)\u5421\u5576", "en_name": ["2-Chloro-3-iodo-5-(trifluoromethyl)pyridine", "Pyridine, 2-chloro-3-iodo-5-(trifluoromethyl)-", "2-Chloro-3-iodo-5-(trifluoromethyl)pyridine"], "SMILES": "C(F)(F)(F)C=1C=C(I)C(Cl)=NC1", "physical_data": {"Molecular Weight": "307.44", "Molecular Formula": "C6H2ClF3IN", "Boiling Point": "85-86 \u00b0C @ Press: 8 Torr", "Melting Point": "37-39 \u00b0C"}}