{"cas_no": "5051-62-7", "cn_name": "\u6c2f\u538b\u80cd", "en_name": ["Guanabenz", "Hydrazinecarboximidamide, 2-[(2,6-dichlorophenyl)methylene]-", "Guanidine, [(2,6-dichlorobenzylidene)amino]-", "2-[(2,6-Dichlorophenyl)methylene]hydrazinecarboximidamide", "N-(2,6-Dichlorobenzylidene)-N\u2032-amidinohydrazine", "Guanabenz", "[(2,6-Dichlorobenzylidene)amino]guanidine", "Wy 8678", "NSC 68982"], "SMILES": "C(=NNC(=N)N)C1=C(Cl)C=CC=C1Cl", "physical_data": {"Molecular Weight": "231.08", "Molecular Formula": "C8H8Cl2N4", "Melting Point": "228 \u00b0C (decomp)"}}