{"cas_no": "5051-22-9", "cn_name": "\u76d0\u9178\u666e\u8418\u6d1b\u5c14", "en_name": ["(+)-Propranolol", "2-Propanol, 1-[(1-methylethyl)amino]-3-(1-naphthalenyloxy)-, (2R)-", "2-Propanol, 1-(isopropylamino)-3-(1-naphthyloxy)-, (+)-", "2-Propanol, 1-[(1-methylethyl)amino]-3-(1-naphthalenyloxy)-, (R)-", "(2R)-1-[(1-Methylethyl)amino]-3-(1-naphthalenyloxy)-2-propanol", "(+)-Propranolol", "d-Propranolol", "Dexpropranolol", "Dextropropranolol", "(R)-Propranolol", "(2R)-Propranolol", "(+)-(R)-Propranolol", "(R)-(+)-Propranolol"], "SMILES": "O(CC(CNC(C)C)O)C=1C2=C(C=CC1)C=CC=C2", "physical_data": {"Molecular Weight": "259.34", "Molecular Formula": "C16H21NO2", "Melting Point": "96 \u00b0C"}}