{"cas_no": "50512-35-1", "cn_name": "\u7a3b\u761f\u7075", "en_name": ["Isoprothiolane", "Propanedioic acid, 2-(1,3-dithiolan-2-ylidene)-, 1,3-bis(1-methylethyl) ester", "Propanedioic acid, 1,3-dithiolan-2-ylidene-, bis(1-methylethyl) ester", "NNF 109", "Diisopropyl 1,3-dithiolan-2-ylidenemalonate", "IPT", "IPT (pesticide)", "Isoprothiolane", "Fuji-one", "NKK 100"], "SMILES": "C(C(OC(C)C)=O)(C(OC(C)C)=O)=C1SCCS1", "physical_data": {"Molecular Weight": "290.40", "Molecular Formula": "C12H18O4S2", "Boiling Point": "168 \u00b0C", "Melting Point": "54 \u00b0C"}}