{"cas_no": "50533-97-6", "cn_name": "4-\u4e8c\u7532\u6c28\u57fa\u54cc\u5576", "en_name": ["4-(Dimethylamino)piperidine", "4-Piperidinamine, N,N-dimethyl-", "Piperidine, 4-(dimethylamino)-", "N,N-Dimethyl-4-piperidinamine", "4-(Dimethylamino)piperidine", "4-(N,N-Dimethylamino)piperidine", "N,N-Dimethyl-N-(4-piperidinyl)amine", "Dimethyl(piperidin-4-yl)amine", "N,N-Dimethylpiperidin-4-amine"], "SMILES": "N(C)(C)C1CCNCC1", "physical_data": {"Molecular Weight": "128.22", "Molecular Formula": "C7H16N2", "Boiling Point": "182-187 \u00b0C"}}