{"cas_no": "5053-63-4", "cn_name": "3-\u6c28\u57fa-1-\u82ef\u57fa\u4e19\u70f7-1-\u9187", "en_name": ["\u03b1-(2-Aminoethyl)benzenemethanol", "Benzenemethanol, \u03b1-(2-aminoethyl)-", "Benzyl alcohol, \u03b1-(2-aminoethyl)-", "\u03b1-(2-Aminoethyl)benzenemethanol", "3-Amino-1-phenylpropanol", "3-Hydroxy-3-phenylpropylamine", "\u03b1-(2-Aminoethyl)benzyl alcohol", "1-Phenyl-1-hydroxy-3-aminopropane", "3-Amino-1-phenyl-1-propanol"], "SMILES": "C(CCN)(O)C1=CC=CC=C1", "physical_data": {"Molecular Weight": "151.21", "Molecular Formula": "C9H13NO", "Boiling Point": "126-130 \u00b0C @ Press: 1.5 Torr", "Melting Point": "63.5-64.5 \u00b0C"}}