{"cas_no": "50534-45-7", "cn_name": "4-\u6c28\u57fa-1-\u4e59\u57fa\u54cc\u5576", "en_name": ["1-Ethyl-4-piperidinamine", "4-Piperidinamine, 1-ethyl-", "1-Ethyl-4-piperidinamine", "4-Amino-1-ethylpiperidine", "(1-Ethylpiperidin-4-yl)amine"], "SMILES": "C(C)N1CCC(N)CC1", "physical_data": {"Molecular Weight": "128.22", "Molecular Formula": "C7H16N2", "Boiling Point": "73 \u00b0C @ Press: 16 Torr"}}