{"cas_no": "5053-06-5", "cn_name": "\u82ac\u53f8\u5339\u5229", "en_name": ["Fenspiride", "1-Oxa-3,8-diazaspiro[4.5]decan-2-one, 8-(2-phenylethyl)-", "1-Oxa-3,8-diazaspiro[4.5]decan-2-one, 8-phenethyl-", "8-(2-Phenylethyl)-1-oxa-3,8-diazaspiro[4.5]decan-2-one", "Fenspiride", "Respiride", "DESP"], "SMILES": "O=C1OC2(CCN(CCC3=CC=CC=C3)CC2)CN1", "physical_data": {"Molecular Weight": "260.33", "Molecular Formula": "C15H20N2O2", "Boiling Point": "126-127 \u00b0C @ Press: 2 Torr"}}