{"cas_no": "50548-40-8", "cn_name": "1-\u6c28\u57fa\u4e8c\u82ef\u5e76\u544b\u5583", "en_name": ["1-Dibenzofuranamine", "1-Dibenzofuranamine", "1-Aminodibenzofuran", "Dibenzo[b,d]furan-1-amine"], "SMILES": "NC1=C2C=3C(OC2=CC=C1)=CC=CC3", "physical_data": {"Molecular Weight": "183.21", "Molecular Formula": "C12H9NO", "Melting Point": "118-119 \u00b0C"}}