{"cas_no": "50541-93-0", "cn_name": "4-\u6c28\u57fa-1-\u82c4\u57fa\u54cc\u5576", "en_name": ["4-Amino-1-benzylpiperidine", "4-Piperidinamine, 1-(phenylmethyl)-", "1-(Phenylmethyl)-4-piperidinamine", "4-Amino-1-benzylpiperidine", "1-Benzyl-4-aminopiperidine", "4-Amino-1-(phenylmethyl)piperidine", "4-Amino-N-benzylpiperidine", "1-Benzyl-4-piperidinamine", "N-Benzyl-4-aminopiperidine", "1-Benzyl-4-piperidinylamine", "N-Benzyl-4-piperidinamine", "2-Amino-1-benzylpiperidine", "(1-Benzylpiperidin-4-yl)amine", "1-Benzylpiperidine-4-amine"], "SMILES": "C(N1CCC(N)CC1)C2=CC=CC=C2", "physical_data": {"Molecular Weight": "190.28", "Molecular Formula": "C12H18N2", "Melting Point": "121-122 \u00b0C", "Density": "1.008 g/cm\u00b3"}}