{"cas_no": "50548-45-3", "cn_name": "1-\u6eb4\u4e8c\u82ef\u5e76\u544b\u5583", "en_name": ["1-Bromodibenzofuran", "Dibenzofuran, 1-bromo-", "1-Bromodibenzofuran", "1-Bromodibenzo[b,d]furan", "1-Bromodibenzo[b,d]furan"], "SMILES": "BrC1=C2C=3C(OC2=CC=C1)=CC=CC3", "physical_data": {"Molecular Weight": "247.09", "Molecular Formula": "C12H7BrO", "Melting Point": "67 \u00b0C"}}