{"cas_no": "50548-43-1", "cn_name": "4-\u6c28\u57fa\u6c27\u82b4", "en_name": ["4-Dibenzofuranamine", "4-Dibenzofuranamine", "4-Aminodibenzofuran"], "SMILES": "NC1=C2C(C=3C(O2)=CC=CC3)=CC=C1", "physical_data": {"Molecular Weight": "183.21", "Molecular Formula": "C12H9NO", "Melting Point": "84.5-85.5 \u00b0C"}}