{"cas_no": "5055-72-1", "cn_name": "1-\u73af\u5df1\u57fa-2-\u786b\u8132", "en_name": ["N-Cyclohexylthiourea", "Thiourea, N-cyclohexyl-", "Urea, 1-cyclohexyl-2-thio-", "Thiourea, cyclohexyl-", "N-Cyclohexylthiourea", "Cyclohexylthiourea", "1-Cyclohexyl-2-thiourea", "NSC 34636", "1-Cyclohexylthiourea"], "SMILES": "N(C(N)=S)C1CCCCC1", "physical_data": {"Molecular Weight": "158.26", "Molecular Formula": "C7H14N2S", "Melting Point": "161-162 \u00b0C"}}