{"cas_no": "50551-56-9", "cn_name": "5-\u7532\u6c27\u57fa\u82ef\u5e76\u544b\u5583-2-\u7fa7\u9178 \u4e59\u916f", "en_name": ["2-Benzofurancarboxylic acid, 5-methoxy-, ethyl ester", "2-Benzofurancarboxylic acid, 5-methoxy-, ethyl ester", "Ethyl 5-methoxycoumarilate", "Ethyl 5-methoxybenzofuran-2-carboxylate", "Ethyl 5-methoxy-1-benzofuran-2-carboxylate", "5-Methoxybenzofuran-2-carboxylic acid ethyl ester"], "SMILES": "C(OCC)(=O)C1=CC=2C(O1)=CC=C(OC)C2", "physical_data": {"Molecular Weight": "220.22", "Molecular Formula": "C12H12O4", "Melting Point": "62 \u00b0C"}}