{"cas_no": "50563-36-5", "cn_name": "\u4e8c\u7532\u8349\u80fa", "en_name": ["Dimethachlor", "Acetamide, 2-chloro-N-(2,6-dimethylphenyl)-N-(2-methoxyethyl)-", "2-Chloro-N-(2,6-dimethylphenyl)-N-(2-methoxyethyl)acetamide", "N-(2-Methoxyethyl)-2,6-dimethyl-\u03b1-chloroacetanilide", "N-(2-Methoxyethyl)-2,6-dimethylchloroacetanilide", "CGA 17020", "A 4766", "A 5089", "Teridox", "Dimethachlor", "N-Methoxyethyl-N-chloroacetyl-2,6-dimethylaniline"], "SMILES": "N(CCOC)(C(CCl)=O)C1=C(C)C=CC=C1C", "physical_data": {"Molecular Weight": "255.74", "Molecular Formula": "C13H18ClNO2", "Boiling Point": "320 \u00b0C", "Melting Point": "46 \u00b0C"}}