{"cas_no": "5056-17-7", "cn_name": "2,7-\u4e8c\u7532\u57fa-2,4,6-\u8f9b\u4e09\u70ef\u4e8c\u919b", "en_name": ["(2E,4E,6E)-2,7-Dimethyl-2,4,6-octatrienedial", "2,4,6-Octatrienedial, 2,7-dimethyl-, (2E,4E,6E)-", "2,4,6-Octatrienedial, 2,7-dimethyl-, (E,E,E)-", "(2E,4E,6E)-2,7-Dimethyl-2,4,6-octatrienedial", "(all-E)-2,7-Dimethyl-2,4,6-octatrienedial", "all-trans-2,7-Dimethyl-2,4,6-octatrienedial", "12,12\u2032-Di-apo-carotenedial", "all-E-2,7-Dimethylocta-2,4,6-triene-1,8-dial", "(E,E,E)-2,7-Dimethyl-2,4,6-octatrien-1,8-dial", "(E,E,E)-2,7-Dimethylocta-2,4,6-trienedial", "all-E-2,7-Dimethyl-2,4,6-octatriene-1,8-dial", "(E,E,E)-2,7-Dimethylocta-2,4,6-trien-1,8-dialdehyde", "12,12\u2032-Diapocarotene-12,12\u2032-dial"], "SMILES": "C(C=CC=C(C=O)C)=C(C=O)C", "physical_data": {"Molecular Weight": "164.20", "Molecular Formula": "C10H12O2", "Boiling Point": "90-94 \u00b0C @ Press: 10 Torr", "Melting Point": "162-163.5 \u00b0C"}}