{"cas_no": "5057-99-8", "cn_name": "\u53cd1,2-\u74b0\u620a\u4e8c\u9187", "en_name": ["trans-1,2-Cyclopentanediol", "1,2-Cyclopentanediol, (1R,2R)-rel-", "1,2-Cyclopentanediol, trans-", "rel-(1R,2R)-1,2-Cyclopentanediol", "trans-1,2-Cyclopentanediol", "trans-(\u00b1)-1,2-Cyclopentanediol", "1,2-trans-Cyclopentanediol", "NSC 15389", "(1R,2R)-rel-1,2-Cyclopentanediol", "trans-1,2-Dihydroxycyclopentane"], "SMILES": "OC1C(O)CCC1", "physical_data": {"Molecular Weight": "102.13", "Molecular Formula": "C5H10O2", "Boiling Point": "136 \u00b0C @ Press: 21.5 Torr", "Melting Point": "54.5-55 \u00b0C"}}