{"cas_no": "5057-98-7", "cn_name": "\u987a\u5f0f-1\uff0c2-\u73af\u620a\u4e8c\u9187", "en_name": ["cis-1,2-Cyclopentanediol", "1,2-Cyclopentanediol, (1R,2S)-rel-", "1,2-Cyclopentanediol, cis-", "rel-(1R,2S)-1,2-Cyclopentanediol", "cis-1,2-Cyclopentanediol", "1,2-cis-Cyclopentanediol", "meso-1,2-Cyclopentanediol", "cis-1,2-Dihydroxycyclopentane", "(1R,2S)-1,2-Cyclopentanediol"], "SMILES": "OC1C(O)CCC1", "physical_data": {"Molecular Weight": "102.13", "Molecular Formula": "C5H10O2", "Boiling Point": "130 \u00b0C @ Press: 20 Torr", "Melting Point": "48 \u00b0C"}}