{"cas_no": "50573-74-5", "cn_name": "2-\u6c28\u57fa-6-\u785d\u57fa\u82ef\u7532\u9178", "en_name": ["2-Amino-6-nitrobenzoic acid", "Benzoic acid, 2-amino-6-nitro-", "Anthranilic acid, 6-nitro-", "2-Amino-6-nitrobenzoic acid", "6-Nitroanthranilic acid", "NSC 36953", "6-Nitro-2-aminobenzoic acid"], "SMILES": "C(O)(=O)C1=C(N(=O)=O)C=CC=C1N", "physical_data": {"Molecular Weight": "182.13", "Molecular Formula": "C7H6N2O4", "Melting Point": "189 \u00b0C (decomp)"}}