{"cas_no": "5058-19-5", "cn_name": "2-\u4e01\u57fa\u5421\u5576", "en_name": ["2-Butylpyridine", "Pyridine, 2-butyl-", "2-Butylpyridine", "NSC 969"], "SMILES": "C(CCC)C1=CC=CC=N1", "physical_data": {"Molecular Weight": "135.21", "Molecular Formula": "C9H13N", "Boiling Point": "192 \u00b0C", "Melting Point": "97 \u00b0C", "Density": "0.9135 g/cm\u00b3 @ Temp: 15 \u00b0C"}}