{"cas_no": "5058-13-9", "cn_name": "\u4e8c\u6c22\u6b27\u5c71\u82b9\u9187\u5f53\u5f52\u9178\u916f", "en_name": ["Columbianadin", "2-Butenoic acid, 2-methyl-, 1-[(8S)-8,9-dihydro-2-oxo-2H-furo[2,3-h]-1-benzopyran-8-yl]-1-methylethyl ester, (2Z)-", "Columbianadin", "Crotonic acid, 2-methyl-, ester with 8,9-dihydro-8-(1-hydroxy-1-methylethyl)-2H-furo[2,3-h]-1-benzopyran-2-one, (Z)-(S)-", "2-Butenoic acid, 2-methyl-, 1-(8,9-dihydro-2-oxo-2H-furo[2,3-h]-1-benzopyran-8-yl)-1-methylethyl ester, [S-(Z)]-", "2H-Furo[2,3-h]-1-benzopyran-2-one, 8,9-dihydro-8-(1-hydroxy-1-methylethyl)-, 2-methylcrotonate, (Z)-(S)-", "2H-Furo[2,3-h]-1-benzopyran, 2-butenoic acid deriv.", "Zosimin", "Columbianetin angelic ester", "Columbianetin angelate", "Columbianedin"], "SMILES": "C(OC(C(=CC)C)=O)(C)(C)C1CC=2C3=C(C=CC2O1)C=CC(=O)O3", "physical_data": {"Molecular Weight": "328.36", "Molecular Formula": "C19H20O5", "Melting Point": "118-119 \u00b0C"}}