{"cas_no": "50583-51-2", "cn_name": "L-(-)-\u4e8c\u5bf9\u7532\u6c27\u57fa\u82ef\u7532\u9170\u9152\u77f3\u9178", "en_name": ["(R,R)-Di-p-anisoyltartaric acid", "Butanedioic acid, 2,3-bis[(4-methoxybenzoyl)oxy]-, (2R,3R)-", "Butanedioic acid, 2,3-bis[(4-methoxybenzoyl)oxy]-, [R-(R*,R*)]-", "(2R,3R)-2,3-Bis[(4-methoxybenzoyl)oxy]butanedioic acid", "(R,R)-Di-p-anisoyltartaric acid", "(2R,3R)-(-)-Di(p-anisoyl)tartaric acid", "(-)-O,O' Di-p-anisoyl-L-tartaric acid"], "SMILES": "C(C(OC(=O)C1=CC=C(OC)C=C1)C(O)=O)(OC(=O)C2=CC=C(OC)C=C2)C(O)=O", "physical_data": {"Molecular Weight": "418.35", "Molecular Formula": "C20H18O10", "Melting Point": "186 \u00b0C"}}