{"cas_no": "50594-82-6", "cn_name": "3,4,5-\u4e09\u6c2f\u4e09\u6c1f\u7532\u82ef", "en_name": ["3,4,5-Trichlorobenzotrifluoride", "Benzene, 1,2,3-trichloro-5-(trifluoromethyl)-", "1,2,3-Trichloro-5-(trifluoromethyl)benzene", "3,4,5-Trichloro-\u03b1,\u03b1,\u03b1-trifluorotoluene", "3,4,5-Trichlorobenzotrifluoride"], "SMILES": "C(F)(F)(F)C1=CC(Cl)=C(Cl)C(Cl)=C1", "physical_data": {"Molecular Weight": "249.45", "Molecular Formula": "C7H2Cl3F3", "Boiling Point": "82-86 \u00b0C @ Press: 10 Torr"}}