{"cas_no": "50594-66-6", "cn_name": "\u4e09\u6c1f\u7fa7\u8349\u919a", "en_name": ["Acifluorfen", "Benzoic acid, 5-[2-chloro-4-(trifluoromethyl)phenoxy]-2-nitro-", "5-[2-Chloro-4-(trifluoromethyl)phenoxy]-2-nitrobenzoic acid", "Acifluorfen", "2-Nitro-5-(2-chloro-4-trifluoromethylphenoxy)benzoic acid", "3-Carboxy-2\u2032-chloro-4\u2032-trifluoromethyl-4-nitrodiphenyl ether", "PPG 847", "Acifluorfene", "Acifluorfen H"], "SMILES": "O(C1=CC(C(O)=O)=C(N(=O)=O)C=C1)C2=C(Cl)C=C(C(F)(F)F)C=C2", "physical_data": {"Molecular Weight": "361.66", "Molecular Formula": "C14H7ClF3NO5", "Melting Point": "150 \u00b0C"}}