{"cas_no": "50593-73-2", "cn_name": "4-\u6c2f-6-\u7532\u6c27\u57fa-2-\u7532\u57fa\u55b9\u5549", "en_name": ["4-Chloro-6-methoxy-2-methylquinoline", "Quinoline, 4-chloro-6-methoxy-2-methyl-", "Quinaldine, 4-chloro-6-methoxy-", "4-Chloro-6-methoxy-2-methylquinoline"], "SMILES": "ClC=1C2=C(N=C(C)C1)C=CC(OC)=C2", "physical_data": {"Molecular Weight": "207.66", "Molecular Formula": "C11H10ClNO", "Melting Point": "92-93 \u00b0C"}}