{"cas_no": "50593-68-5", "cn_name": "3-\u6c2f-6-\u785d\u57fa\u5432\u5511", "en_name": ["3-Chloro-6-nitro-1H-indazole", "1H-Indazole, 3-chloro-6-nitro-", "3-Chloro-6-nitro-1H-indazole", "3-Chloro-6-nitroindazole", "NSC 84179", "3-Chloro-6-nitro-2H-indazole"], "SMILES": "ClC=1C=2C(=CC(N(=O)=O)=CC2)NN1", "physical_data": {"Molecular Weight": "197.58", "Molecular Formula": "C7H4ClN3O2", "Melting Point": "201-203 \u00b0C"}}