{"cas_no": "506-78-5", "cn_name": "\u7898\u5316\u6c30", "en_name": ["Iodine cyanide", "Iodine cyanide (I(CN))", "Cyanogen iodide", "Iodine monocyanide (ICN)", "Iodine monocyanide", "Cyanogen monoiodide", "Iodocyanide (ICN)", "Iodine cyanide"], "SMILES": "C(I)#N", "physical_data": {"Molecular Weight": "152.92", "Molecular Formula": "CIN", "Melting Point": "148 \u00b0C", "Density": "2.84 g/cm\u00b3 @ Temp: 18 \u00b0C"}}