{"cas_no": "506-17-2", "cn_name": "\u5341\u516b\u70f7\u9178", "en_name": ["cis-Vaccenic acid", "11-Octadecenoic acid, (11Z)-", "11-Octadecenoic acid, (Z)-", "11-Octadecenoic acid, cis-", "(11Z)-11-Octadecenoic acid", "cis-\u039411-Octadecenoic acid", "cis-Vaccenic acid", "cis-11-Octadecenoic acid", "(Z)-11-Octadecenoic acid", "\u039411-cis-Octadecenoic acid", "11-cis-Vaccenic acid", "11-cis-Octadecenoic acid", "Asclepic acid", "cis-Vaccenic acid", "cis-11-Vaccenic acid", "(Z)-Octadec-11-enoic acid", "C18:1"], "SMILES": "C(CCCC=CCCCCCC)CCCCCC(O)=O", "physical_data": {"Molecular Weight": "282.46", "Molecular Formula": "C18H34O2", "Melting Point": "10.5-12 \u00b0C"}}