{"cas_no": "506-13-8", "cn_name": "16-\u7f9f\u57fa\u68d5\u6988\u9178", "en_name": ["16-Hydroxyhexadecanoic acid", "Hexadecanoic acid, 16-hydroxy-", "Juniperic acid", "16-Hydroxyhexadecanoic acid", "16-Hydroxypalmitic acid", "Palmitic acid, 16-hydroxy-", "\u03c9-Hydroxypalmitic acid", "\u03c9-Hydroxyhexadecanoic acid", "NSC 159292", "Lanopalmitic acid"], "SMILES": "C(CCCCCCCCCCO)CCCCC(O)=O", "physical_data": {"Molecular Weight": "272.42", "Molecular Formula": "C16H32O3", "Melting Point": "98 \u00b0C"}}