{"cas_no": "506-21-8", "cn_name": "\u4e9a\u9ebb\u9178 C18:2", "en_name": ["Linolelaidic acid", "9,12-Octadecadienoic acid, (9E,12E)-", "Linolelaidic acid", "9,12-Octadecadienoic acid, (E,E)-", "(9E,12E)-9,12-Octadecadienoic acid", "trans,trans-Linoleic acid", "Linelaidic acid", "trans-9-trans-12-Linoleic acid", "Linoelaidic acid", "trans,trans-9,12-Octadecadienoic acid", "9-trans-12-trans-Octadecadienoic acid", "trans-\u03949,12-Octadecadienoic acid", "9-trans-12-trans-Linoleic acid", "C18:2n-6(t9,t12)"], "SMILES": "C(CC=CCC=CCCCCC)CCCCCC(O)=O", "physical_data": {"Molecular Weight": "280.45", "Molecular Formula": "C18H32O2", "Melting Point": "28-29 \u00b0C"}}