{"cas_no": "506-68-3", "cn_name": "\u6eb4\u5316\u6c30", "en_name": ["Cyanogen bromide", "Cyanogen bromide ((CN)Br)", "Cyanogen bromide", "Bromine cyanide", "Bromocyanogen", "Bromocyanide (BrCN)", "Bromocyanide", "Bromocyan", "Cyanogen bromide (BrCN)", "Cyanogen monobromide", "Bromine cyanide (BrCN)", "Cyanobromide", "Campilit", "Bromine monocyanide", "NSC 89684", "Cyanic bromide", "Carbononitridic bromide", "MeSH ID: D003488"], "SMILES": "C(Br)#N", "physical_data": {"Molecular Weight": "105.92", "Molecular Formula": "CBrN", "Boiling Point": "61.4 \u00b0C @ Press: 760 Torr", "Melting Point": "52 \u00b0C", "Density": "2.015 g/cm\u00b3 @ Temp: 20 \u00b0C"}}