{"cas_no": "506-12-7", "cn_name": "\u5341\u4e03\u70f7\u9178", "en_name": ["Heptadecanoic acid", "Heptadecanoic acid", "n-Heptadecoic acid", "n-Heptadecylic acid", "Margaric acid", "Margarinic acid", "n-Heptadecanoic acid", "NSC 3743"], "SMILES": "C(CCCCCCCCCCC)CCCCC(O)=O", "physical_data": {"Molecular Weight": "270.45", "Molecular Formula": "C17H34O2", "Boiling Point": "363.8 \u00b0C", "Melting Point": "61.3 \u00b0C", "Density": "0.8532 g/cm\u00b3 @ Temp: 60 \u00b0C"}}