{"cas_no": "506-93-4", "cn_name": "\u785d\u9178\u80cd", "en_name": ["Guanidine nitrate", "Guanidine, nitrate (1:1)", "Guanidine, mononitrate", "Guanidine nitrate", "Guanidinium nitrate", "NSC 7295"], "SMILES": "C(=N)(N)N.N(=O)(=O)O", "physical_data": {"Molecular Weight": "", "Molecular Formula": "CH5N3.HNO3", "Melting Point": "214 \u00b0C"}}