{"cas_no": "506-52-5", "cn_name": "\u4e8c\u5341\u516d\u78b3\u9187", "en_name": ["1-Hexacosanol", "1-Hexacosanol", "Ceryl alcohol", "Cerylic alcohol", "n-Hexacosanol", "Hexacosyl alcohol", "Hexacosanol", "Cerotyl alcohol", "NSC 4058"], "SMILES": "C(CCCCCCCCCCCCC)CCCCCCCCCCCCO", "physical_data": {"Molecular Weight": "382.71", "Molecular Formula": "C26H54O", "Boiling Point": "175 \u00b0C @ Press: 0.02 Torr", "Melting Point": "80 \u00b0C"}}