{"cas_no": "506-37-6", "cn_name": "\u795e\u7ecf\u9178", "en_name": ["Nervonic acid", "15-Tetracosenoic acid, (15Z)-", "15-Tetracosenoic acid, (Z)-", "15-Tetracosenoic acid, cis-", "(15Z)-15-Tetracosenoic acid", "cis-15-Tetracosenoic acid", "Nervonic acid", "Nevonic acid", "Selacholeic acid", "(Z)-15-Tetracosenoic acid", "(15Z)-Tetracosenoic acid", "15Z-Tetracosenoic acid"], "SMILES": "C(CCCCCCC=CCCCCCCCC)CCCCCCC(O)=O", "physical_data": {"Molecular Weight": "366.62", "Molecular Formula": "C24H46O2", "Melting Point": "40-41 \u00b0C"}}