{"cas_no": "506-89-8", "cn_name": "\u5c3f\u7d20\u76d0\u9178\u76d0", "en_name": ["Urea hydrochloride", "Urea, hydrochloride (1:1)", "Urea, monohydrochloride", "Urea hydrochloride", "Carbamide chloride"], "SMILES": "C(N)(N)=O.Cl", "physical_data": {"Molecular Weight": "", "Molecular Formula": "CH4N2O.ClH", "Melting Point": "145 \u00b0C (decomp)", "Density": "1.336-1.341 g/cm\u00b3"}}