{"cas_no": "506-96-7", "cn_name": "\u4e59\u9170\u6eb4", "en_name": ["Acetyl bromide", "Acetyl bromide", "Acetic acid bromide"], "SMILES": "C(Br)(C)=O", "physical_data": {"Molecular Weight": "122.95", "Molecular Formula": "C2H3BrO", "Boiling Point": "76 \u00b0C", "Melting Point": "-96 \u00b0C", "Density": "1.52 g/cm\u00b3 @ Temp: 9 \u00b0C"}}