{"cas_no": "506-33-2", "cn_name": "13-\u4e8c\u5341\u4e8c\u70ef\u9178", "en_name": ["Brassidic acid", "13-Docosenoic acid, (13E)-", "13-Docosenoic acid, (E)-", "Brassidic acid", "(13E)-13-Docosenoic acid", "(E)-13-Docosenoic acid", "trans-13-Docosenoic acid", "NSC 59686"], "SMILES": "C(CCCCC=CCCCCCCCC)CCCCCCC(O)=O", "physical_data": {"Molecular Weight": "338.57", "Molecular Formula": "C22H42O2", "Melting Point": "60 \u00b0C"}}