{"cas_no": "506-64-9", "cn_name": "\u6c30\u5316\u94f6", "en_name": ["Silver cyanide (Ag(CN))", "Silver cyanide (Ag(CN))", "Silver(1+) cyanide", "Silver cyanide (Ag2(CN)2)", "Silver(I) cyanide", "Silver monocyanide", "Argentous cyanide"], "SMILES": "C([Ag])#N", "physical_data": {"Molecular Weight": "", "Molecular Formula": "CAgN", "Melting Point": "320 \u00b0C (decomp)"}}