{"cas_no": "506-32-1", "cn_name": "\u82b1\u751f\u56db\u70ef\u9178", "en_name": ["Arachidonic acid", "5,8,11,14-Eicosatetraenoic acid, (5Z,8Z,11Z,14Z)-", "5,8,11,14-Eicosatetraenoic acid, (all-Z)-", "(5Z,8Z,11Z,14Z)-5,8,11,14-Eicosatetraenoic acid", "Arachidonic acid", "(all-Z)-5,8,11,14-Eicosatetraenoic acid", "all-cis-5,8,11,14-Eicosatetraenoic acid", "cis-\u03945,8,11,14-Eicosatetraenoic acid", "5-cis,8-cis,11-cis,14-cis-Eicosatetraenoic acid", "5,8,11,14-all-cis-Eicosatetraenoic acid", "5Z,8Z,11Z,14Z-Eicosatetraenoic acid", "A 0871", "Immunocytophyte", "Immunocytophyt", "Vevodar", "20:4n-6", "cis-5-cis-8-cis-11-cis-14-Icosatetraenoic acid", "Fatty Acid (20:4)", "FA(20:4)", "MeSH ID: D016718"], "SMILES": "C(=CCC=CCC=CCCCCC)CC=CCCCC(O)=O", "physical_data": {"Molecular Weight": "304.47", "Molecular Formula": "C20H32O2", "Boiling Point": "170 \u00b0C", "Melting Point": "-49.5 \u00b0C", "Density": "0.9247 g/cm\u00b3 @ Temp: 20 \u00b0C"}}