{"cas_no": "506-24-1", "cn_name": "\u786c\u8102\u7094\u9178", "en_name": ["9-Octadecynoic acid", "9-Octadecynoic acid", "Stearolic acid", "9-Stearolic acid", "Octadecanoic acid-9-yne"], "SMILES": "C(CC#CCCCCCCCC)CCCCCC(O)=O", "physical_data": {"Molecular Weight": "280.45", "Molecular Formula": "C18H32O2", "Boiling Point": "189-190 \u00b0C @ Press: 1.8 Torr", "Melting Point": "48 \u00b0C"}}