{"cas_no": "506-46-7", "cn_name": "\u8721\u9178", "en_name": ["Hexacosanoic acid", "Hexacosanoic acid", "Cerotic acid", "Cerinic acid", "Ceratinic acid", "Ceric acid", "n-Hexacosanoic acid", "Cerylic acid", "NSC 4205"], "SMILES": "C(CCCCCCCCCCCCCCCCC)CCCCCCCC(O)=O", "physical_data": {"Molecular Weight": "396.69", "Molecular Formula": "C26H52O2", "Melting Point": "88.5 \u00b0C"}}