{"cas_no": "506-30-9", "cn_name": "\u4e8c\u5341\u9178", "en_name": ["Eicosanoic acid", "Eicosanoic acid", "Arachic acid", "Arachidic acid", "n-Eicosanoic acid", "Icosanoic acid", "NSC 93983", "n-Eicosanic acid", "C20 fatty acid", "C 20", "Peanut acid"], "SMILES": "C(CCCCCCCCCCCC)CCCCCCC(O)=O", "physical_data": {"Molecular Weight": "312.53", "Molecular Formula": "C20H40O2", "Boiling Point": "328 \u00b0C", "Melting Point": "75.4 \u00b0C"}}