{"cas_no": "506-43-4", "cn_name": "\u987a\u3001\u987a-9,12-\u5341\u516b\u78b3\u4e8c\u70ef\u9187", "en_name": ["Linoleyl alcohol", "9,12-Octadecadien-1-ol, (9Z,12Z)-", "9,12-Octadecadien-1-ol, (Z,Z)-", "Linoleyl alcohol", "(9Z,12Z)-9,12-Octadecadien-1-ol", "Linolyl alcohol", "cis, cis-9,12-Octadecadienyl alcohol", "cis,cis-9,12-Octadecadienol", "Octadeca-9-cis,12-cis-dien-1-ol", "9-cis,12-cis-Octadecadienol", "Linoleic alcohol", "HD-Ocenol 110/30", "(Z,Z)-9,12-Octadecadien-1-ol", "Linolic alcohol", "(9Z,12Z)-Octadeca-9,12-dien-1-ol", "cis-1-Hydroxy-9,12-octadecadiene"], "SMILES": "C(=CCC=CCCCCC)CCCCCCCCO", "physical_data": {"Molecular Weight": "266.46", "Molecular Formula": "C18H34O", "Boiling Point": "148-150 \u00b0C", "Melting Point": "-5--2 \u00b0C", "Density": "0.8612 g/cm\u00b3 @ Temp: 20 \u00b0C"}}