{"cas_no": "506-50-3", "cn_name": "\u4e09\u620a\u9178C30:0", "en_name": ["Triacontanoic acid", "Triacontanoic acid", "Melissic acid", "n-Triacontanoic acid", "Myricic acid", "NSC 53832"], "SMILES": "C(CCCCCCCCCCCCCCCCCCC)CCCCCCCCCC(O)=O", "physical_data": {"Molecular Weight": "452.80", "Molecular Formula": "C30H60O2", "Melting Point": "93.6 \u00b0C"}}