{"cas_no": "506-51-4", "cn_name": "\u4e8c\u5341\u56db\u70f7\u9187", "en_name": ["1-Tetracosanol", "1-Tetracosanol", "Lignoceryl alcohol", "Lignoceric alcohol", "Tetracosyl alcohol", "Lignocerol", "n-Tetracosanol", "Tetracosanol", "NSC 93768"], "SMILES": "C(CCCCCCCCCCCC)CCCCCCCCCCCO", "physical_data": {"Molecular Weight": "354.65", "Molecular Formula": "C24H50O", "Boiling Point": "230-235 \u00b0C @ Press: 12 Torr", "Melting Point": "76 \u00b0C"}}