{"cas_no": "506-31-0", "cn_name": "(E)-9-\u4e8c\u5341\u70ef\u9178", "en_name": ["9-Eicosenoic acid", "9-Eicosenoic acid"], "SMILES": "C(C=CCCCCCCCCCC)CCCCCCC(O)=O", "physical_data": {"Molecular Weight": "310.51", "Molecular Formula": "C20H38O2", "Boiling Point": "170-175 \u00b0C @ Press: 2 x 10<sup>-4</sup> Torr", "Melting Point": "23 \u00b0C"}}