{"cas_no": "506-42-3", "cn_name": "\u53cd9-\u5341\u516b\u70ef\u9187", "en_name": ["Elaidyl alcohol", "9-Octadecen-1-ol, (9E)-", "9-Octadecen-1-ol, (E)-", "9-Octadecen-1-ol, trans-", "(9E)-9-Octadecen-1-ol", "trans-9-Octadecen-1-ol", "Elaidyl alcohol", "Octadeca-9-trans-en-1-ol", "trans-\u03949-Octadecenol", "(E)-9-Octadecen-1-ol", "trans-6-Octadecenol", "NSC 72786", "Elaidic alcohol"], "SMILES": "C(=CCCCCCCCC)CCCCCCCCO", "physical_data": {"Molecular Weight": "268.48", "Molecular Formula": "C18H36O", "Melting Point": "36-37 \u00b0C"}}