{"cas_no": "506-38-7", "cn_name": "\u4e8c\u5341\u4e94\u70f7\u9178", "en_name": ["Pentacosanoic acid", "Pentacosanoic acid", "Hyenic acid", "n-Pentacosanoic acid", "NSC 89289", "Pentacosylic acid"], "SMILES": "C(CCCCCCCCCCCCCCCCC)CCCCCCC(O)=O", "physical_data": {"Molecular Weight": "382.66", "Molecular Formula": "C25H50O2", "Melting Point": "84-85 \u00b0C"}}