{"cas_no": "506-77-4", "cn_name": "\u6c2f\u5316\u6c30", "en_name": ["Cyanogen chloride", "Cyanogen chloride ((CN)Cl)", "Cyanogen chloride", "Chlorocyanogen", "Cyanogen chloride (ClCN)", "Chlorine cyanide (ClCN)", "Chlorine cyanide", "Chlorocyanide (ClCN)", "Chlorocyan", "Chlorocyanide", "Cyanochloride (CNCl)", "Chloronitrile"], "SMILES": "C(Cl)#N", "physical_data": {"Molecular Weight": "61.47", "Molecular Formula": "CClN", "Boiling Point": "12.7 \u00b0C @ Press: 760 Torr", "Melting Point": "-6 \u00b0C", "Density": "1.186 g/cm\u00b3 @ Temp: 20 \u00b0C"}}