{"cas_no": "506-48-9", "cn_name": "\u8910\u7164\u9178", "en_name": ["Octacosanoic acid", "Octacosanoic acid", "Montanic acid", "n-Octacosanoic acid", "Licowax S", "NSC 407311", "HW-SW", "Licowax SFL"], "SMILES": "C(CCCCCCCCCCCCCCCCCC)CCCCCCCCC(O)=O", "physical_data": {"Molecular Weight": "424.74", "Molecular Formula": "C28H56O2", "Melting Point": "90.9 \u00b0C"}}