{"cas_no": "506-03-6", "cn_name": "\u9c9b\u809d\u9187", "en_name": ["Chimyl alcohol", "1,2-Propanediol, 3-(hexadecyloxy)-, (2S)-", "1,2-Propanediol, 3-(hexadecyloxy)-, (S)-", "(2S)-3-(Hexadecyloxy)-1,2-propanediol", "Chimyl alcohol", "Testriol", "1-O-Hexadecyl-sn-glycerol", "\u03b1-Chimyl alcohol", "1-Hexadecyl-sn-glycerol", "(S)-(+)-Chimyl alcohol", "Nikkol Chimyl Alcohol 100", "(2S)-3-Hexadecoxypropane-1,2-diol", "1-O-Hexadecyl-sn-glycerol"], "SMILES": "C(CCCCCCCCCCCCCC)COCC(CO)O", "physical_data": {"Molecular Weight": "316.52", "Molecular Formula": "C19H40O3", "Melting Point": "64 \u00b0C"}}