{"cas_no": "506-59-2", "cn_name": "\u4e8c\u7532\u80fa\u76d0\u9178\u76d0", "en_name": ["Dimethylamine, hydrochloride", "Methanamine, N-methyl-, hydrochloride (1:1)", "Dimethylamine, hydrochloride", "Methanamine, N-methyl-, hydrochloride", "Dimethylammonium chloride", "N-Methylmethanamine hydrochloride", "N,N-Dimethylamine hydrochloride", "Dimethylamine hydrochloride"], "SMILES": "N(C)C.Cl", "physical_data": {"Molecular Weight": "", "Molecular Formula": "C2H7N.ClH", "Melting Point": "171.5 \u00b0C"}}