{"cas_no": "506-87-6", "cn_name": "\u78b3\u9178\u94f5", "en_name": ["Ammonium carbonate", "Carbonic acid, ammonium salt (1:2)", "Carbonic acid, diammonium salt", "Diammonium carbonate", "Ammonium carbonate ((NH4)2CO3)", "Ammonium carbonate", "Bis(ammonium) carbonate", "Baker's ammonia", "Salt of hartshorn", "Hartshorn"], "SMILES": "C(=O)(O)O.N", "physical_data": {"Molecular Weight": "", "Molecular Formula": "CH2O3.2H3N", "Melting Point": "58 \u00b0C (decomp)"}}