{"cas_no": "50606-96-7", "cn_name": "4-\u6b63\u5e9a\u57fa\u82ef\u7532\u9170\u6c2f", "en_name": ["4-Heptylbenzoyl chloride", "Benzoyl chloride, 4-heptyl-", "4-Heptylbenzoyl chloride", "p-Heptylbenzoyl chloride", "p-n-Heptylbenzoyl chloride"], "SMILES": "C(CCCCCC)C1=CC=C(C(Cl)=O)C=C1", "physical_data": {"Molecular Weight": "238.75", "Molecular Formula": "C14H19ClO", "Boiling Point": "160 \u00b0C @ Press: 5 Torr"}}