{"cas_no": "50606-58-1", "cn_name": "1-\u82c4\u57fa-3-\u54cc\u5576\u916e\u76d0\u9178\u76d0", "en_name": ["1-Benzyl-3-piperidone hydrochloride", "3-Piperidinone, 1-(phenylmethyl)-, hydrochloride (1:1)", "3-Piperidinone, 1-(phenylmethyl)-, hydrochloride", "1-Benzyl-3-piperidone hydrochloride", "1-Benzyl-3-piperidinone hydrochloride", "N-Benzyl-3-piperidinone hydrochloride", "N-Benzyl-3-piperidone hydrochloride", "N-Benzylpiperidine-3-one hydrochloride", "Monohydrochloride 1-benzylpiperidin-3-one", "1-Benzylpiperidin-3-one monohydrochloride"], "SMILES": "C(N1CC(=O)CCC1)C2=CC=CC=C2.Cl", "physical_data": {"Molecular Weight": "", "Molecular Formula": "C12H15NO.ClH", "Melting Point": "168-170 \u00b0C"}}