{"cas_no": "50606-95-6", "cn_name": "4-\u5df1\u57fa\u82ef\u7532\u9170\u6c2f", "en_name": ["4-Hexylbenzoyl chloride", "Benzoyl chloride, 4-hexyl-", "4-Hexylbenzoyl chloride", "p-Hexylbenzoyl chloride", "p-(n-Hexyl)benzoyl chloride"], "SMILES": "C(Cl)(=O)C1=CC=C(CCCCCC)C=C1", "physical_data": {"Molecular Weight": "224.73", "Molecular Formula": "C13H17ClO", "Boiling Point": "143 \u00b0C @ Press: 1.3 Torr"}}