{"cas_no": "5061-21-2", "cn_name": "\u03b1-\u6eb4-\u03b3-\u4e01\u5185\u916f", "en_name": ["2-Bromo-4-butyrolactone", "2(3H)-Furanone, 3-bromodihydro-", "Butyric acid, 2-bromo-4-hydroxy-, \u03b3-lactone", "2(3H)-Furanone, 3-bromodihydro-, (\u00b1)-", "Butyric acid, \u03b1-bromo-\u03b3-hydroxy-, \u03b3-lactone", "3-Bromodihydro-2(3H)-furanone", "\u03b1-Bromo-\u03b3-butyrolactone", "\u03b1-Bromobutyric acid \u03b3-lactone", "3-Bromo-4,5-dihydro-2(3H)-furanone", "2-Bromo-\u03b3-butyrolactone", "2-Bromo-4-butyrolactone", "3-Bromo-2-oxotetrahydrofuran", "(\u00b1)-3-Bromo-4,5-dihydro-2(3H)-furanone", "NSC 11726", "NSC 56959", "3-Bromotetrahydrofuran-2-one", "2-Bromo-4-butanolide", "3-Bromooxolan-2-one"], "SMILES": "BrC1C(=O)OCC1", "physical_data": {"Molecular Weight": "164.99", "Molecular Formula": "C4H5BrO2", "Boiling Point": "130-135 \u00b0C @ Press: 20 Torr", "Density": "1.825 g/cm\u00b3 @ Temp: 20 \u00b0C"}}