{"cas_no": "50615-66-2", "cn_name": "2,3,4,6-\u56db-O-\u4e59\u9170\u57fa-1-\u786b\u4ee3-BETA-D-\u5421\u5583\u534a\u4e73\u7cd6", "en_name": ["\u03b2-D-Galactopyranose, 1-thio-, 2,3,4,6-tetraacetate", "\u03b2-D-Galactopyranose, 1-thio-, 2,3,4,6-tetraacetate", "Galactopyranose, 1-thio-, 2,3,4,6-tetraacetate", "2,3,4,6-Tetra-O-acetyl-1-thio-\u03b2-D-galactopyranose", "2,3,4,6-Tetra-O-acetyl-\u03b2-D-1-thioglacatopyranoside"], "SMILES": "O(C(C)=O)C1C(OC(C)=O)C(COC(C)=O)OC(S)C1OC(C)=O", "physical_data": {"Molecular Weight": "364.37", "Molecular Formula": "C14H20O9S", "Melting Point": "83 \u00b0C"}}