{"cas_no": "50629-82-8", "cn_name": "\u5364\u7c73\u677e", "en_name": ["Halometasone", "Pregna-1,4-diene-3,20-dione, 2-chloro-6,9-difluoro-11,17,21-trihydroxy-16-methyl-, (6\u03b1,11\u03b2,16\u03b1)-", "(6\u03b1,11\u03b2,16\u03b1)-2-Chloro-6,9-difluoro-11,17,21-trihydroxy-16-methylpregna-1,4-diene-3,20-dione", "2-Chloro-6\u03b1,9-difluoro-11\u03b2,17,21-trihydroxy-16\u03b1-methylpregna-1,4-diene-3,20-dione", "2-Chloroflumethasone", "Halometasone", "Ba 48401", "Sicorten", "Halomethasone", "C 48401Ba"], "SMILES": "FC12C(C3C(C)(CC1O)C(C(CO)=O)(O)C(C)C3)CC(F)C=4C2(C)C=C(Cl)C(=O)C4", "physical_data": {"Molecular Weight": "444.90", "Molecular Formula": "C22H27ClF2O5", "Melting Point": "221 \u00b0C (decomp)"}}