{"cas_no": "50638-48-7", "cn_name": "4-\u6eb4-2,3-\u4e8c\u7532\u57fa\u82ef\u7532\u919a", "en_name": ["1-Bromo-4-methoxy-2,3-dimethylbenzene", "Benzene, 1-bromo-4-methoxy-2,3-dimethyl-", "Anisole, 4-bromo-2,3-dimethyl-", "1-Bromo-4-methoxy-2,3-dimethylbenzene", "4-Bromo-2,3-dimethylanisole", "1-Bromo-2,3-dimethyl-4-methoxybenzene"], "SMILES": "O(C)C1=C(C)C(C)=C(Br)C=C1", "physical_data": {"Molecular Weight": "215.09", "Molecular Formula": "C9H11BrO", "Boiling Point": "120-124 \u00b0C @ Press: 11 Torr"}}