{"cas_no": "5063-03-6", "cn_name": "2-\u4e59\u9170\u57fa-5-\u964d\u51b0\u7247\u70ef", "en_name": ["1-Bicyclo[2.2.1]hept-5-en-2-ylethanone", "Ethanone, 1-bicyclo[2.2.1]hept-5-en-2-yl-", "Ketone, methyl 5-norbornen-2-yl", "1-Bicyclo[2.2.1]hept-5-en-2-ylethanone", "5-Acetyl-2-norbornene", "6-Acetylbicyclo[2.2.1]hept-2-ene", "2-Acetyl-5-norbornene", "Methyl 5-norbornen-2-yl ketone", "2-Acetylbicyclo[2.2.1]hept-5-ene", "5-Acetylnorbornene", "1-(Bicyclo[2.2.1]hept-5-en-2-yl)ethanone", "1-(5-Bicyclo[2.2.1]hept-2-enyl)ethanone", "1-[Bicyclo[2.2.1]hept-5-en-2-yl]ethan-1-one"], "SMILES": "C(C)(=O)C1C2CC(C1)C=C2", "physical_data": {"Molecular Weight": "136.19", "Molecular Formula": "C9H12O", "Boiling Point": "84-86 \u00b0C @ Press: 18 Torr", "Density": "1.0090 g/cm\u00b3 @ Temp: 20 \u00b0C"}}