{"cas_no": "50638-47-6", "cn_name": "4-\u6eb4-2-\u6c2f\u82ef\u7532\u919a", "en_name": ["4-Bromo-2-chloroanisole", "Benzene, 4-bromo-2-chloro-1-methoxy-", "4-Bromo-2-chloro-1-methoxybenzene", "1-Bromo-3-chloro-4-methoxybenzene", "2-Chloro-4-bromoanisole", "4-Bromo-2-chloroanisole", "3-Chloro-4-methoxyphenyl bromide"], "SMILES": "O(C)C1=C(Cl)C=C(Br)C=C1", "physical_data": {"Molecular Weight": "221.48", "Molecular Formula": "C7H6BrClO", "Boiling Point": "241-248 \u00b0C @ Press: 748 Torr", "Melting Point": "70 \u00b0C"}}