{"cas_no": "50638-50-1", "cn_name": "4-\u6eb4-N,N,3-\u4e09\u7532\u57fa\u82ef\u80fa", "en_name": ["4-Bromo-N,N,3-trimethylbenzenamine", "Benzenamine, 4-bromo-N,N,3-trimethyl-", "m-Toluidine, 4-bromo-N,N-dimethyl-", "4-Bromo-N,N,3-trimethylbenzenamine", "N,N-Dimethyl-4-bromo-3-methylaniline", "4-Bromo-N,N-dimethyl-3-methylaniline", "4-Bromo-3-methyl-N,N-dimethylaniline", "4-Bromo-N,N,3-trimethylaniline", "1-Bromo-4-(dimethylamino)-2-methylbenzene"], "SMILES": "N(C)(C)C1=CC(C)=C(Br)C=C1", "physical_data": {"Molecular Weight": "214.10", "Molecular Formula": "C9H12BrN", "Boiling Point": "146-148 \u00b0C @ Press: 17 Torr", "Melting Point": "55 \u00b0C"}}