{"cas_no": "50647-08-0", "cn_name": "\u897f\u6d0b\u53c2\u63d0\u53d6\u7269", "en_name": ["Prosapogenin (Ginseng)", "Prosapogenin (Ginseng)", "Prosapogenin"], "SMILES": "", "physical_data": {"Molecular Weight": "", "Molecular Formula": "Unspecified", "Melting Point": "206-207 \u00b0C (decomp)"}}