{"cas_no": "506410-53-3", "cn_name": "\u6728\u7280\u8349\u7d20 7-\u82b9\u7cd6(1-2)-\u8461\u8404\u7cd6\u82f7", "en_name": ["Luteolin 7-O-[2-(\u03b2-D-apiofuranosyl)-\u03b2-D-glucopyranoside]", "4H-1-Benzopyran-4-one, 7-[(2-O-D-apio-\u03b2-D-furanosyl-\u03b2-D-glucopyranosyl)oxy]-2-(3,4-dihydroxyphenyl)-5-hydroxy-", "7-[(2-O-D-Apio-\u03b2-D-furanosyl-\u03b2-D-glucopyranosyl)oxy]-2-(3,4-dihydroxyphenyl)-5-hydroxy-4H-1-benzopyran-4-one", "Luteolin 7-O-[2-(\u03b2-D-apiofuranosyl)-\u03b2-D-glucopyranoside]", "Graveobioside A", "Luteolin 7-O-(2-apiosyl)glucoside"], "SMILES": "O=C1C=2C(OC(=C1)C3=CC(O)=C(O)C=C3)=CC(OC4C(OC5C(O)C(CO)(O)CO5)C(O)C(O)C(CO)O4)=CC2O", "physical_data": {"Molecular Weight": "580.49", "Molecular Formula": "C26H28O15", "Melting Point": "251-252 \u00b0C"}}