{"cas_no": "5066-78-4", "cn_name": "\u67e5\u65af\u9a6c\u5b81", "en_name": ["Chasmanine", "Aconitane-8,14-diol, 20-ethyl-1,6,16-trimethoxy-4-(methoxymethyl)-, (1\u03b1,6\u03b1,14\u03b1,16\u03b2)-", "Chasmanine", "(1\u03b1,6\u03b1,14\u03b1,16\u03b2)-20-Ethyl-1,6,16-trimethoxy-4-(methoxymethyl)aconitane-8,14-diol", "Toroko Base II", "Chasmanin", "Talitasamine"], "SMILES": "O(C)C1C23C4C(COC)(CN(CC)C2C(C4OC)C5(O)C6C3CC(C6O)C(OC)C5)CC1", "physical_data": {"Molecular Weight": "451.60", "Molecular Formula": "C25H41NO6", "Melting Point": "90-91 \u00b0C"}}