{"cas_no": "50667-69-1", "cn_name": "N-(\u7f9f\u7532\u57fa)\u4e09\u6c1f\u4e59\u9170\u80fa", "en_name": ["2,2,2-Trifluoro-N-(hydroxymethyl)acetamide", "Acetamide, 2,2,2-trifluoro-N-(hydroxymethyl)-", "2,2,2-Trifluoro-N-(hydroxymethyl)acetamide", "N-(Hydroxymethyl)trifluoroacetamide", "N-(Hydroxymethyl)-2,2,2-trifluoroacetamide"], "SMILES": "C(C(F)(F)F)(NCO)=O", "physical_data": {"Molecular Weight": "143.06", "Molecular Formula": "C3H4F3NO2", "Melting Point": "99 \u00b0C"}}