{"cas_no": "5066-94-4", "cn_name": "\u82ef\u57fa\u786b\u4ee3\u4e59\u5185\u9170\u8132-\u5f02\u4eae\u6c28\u9178(\u542b\u82ef\u57fa\u786b\u4ee3\u4e59\u5185\u9170\u8132-\u522b\u5f02\u4eae\u6c28\u9178)", "en_name": ["5-(1-Methylpropyl)-3-phenyl-2-thioxo-4-imidazolidinone", "4-Imidazolidinone, 5-(1-methylpropyl)-3-phenyl-2-thioxo-", "Hydantoin, 5-sec-butyl-3-phenyl-2-thio-", "5-(1-Methylpropyl)-3-phenyl-2-thioxo-4-imidazolidinone", "Isoleucine phenylthiohydantoin", "NSC 96423"], "SMILES": "O=C1N(C(=S)NC1C(CC)C)C2=CC=CC=C2", "physical_data": {"Molecular Weight": "248.34", "Molecular Formula": "C13H16N2OS", "Melting Point": "132 \u00b0C"}}