{"cas_no": "50675-18-8", "cn_name": "\u56db\u6c22\u5421\u5583-4-\u7532\u919b", "en_name": ["Tetrahydro-2H-pyran-4-carboxaldehyde", "2H-Pyran-4-carboxaldehyde, tetrahydro-", "Pyran-4-carboxaldehyde, tetrahydro-", "Tetrahydro-2H-pyran-4-carboxaldehyde", "Tetrahydropyran-4-carboxaldehyde", "4-Formyltetrahydropyran", "4-Tetrahydropyrancarbaldehyde", "Tetrahydropyranyl-4-carboxaldehyde", "Oxane-4-carboxaldehyde", "4-Oxanaldehyde"], "SMILES": "C(=O)C1CCOCC1", "physical_data": {"Molecular Weight": "114.14", "Molecular Formula": "C6H10O2", "Boiling Point": "74-77 \u00b0C @ Press: 11 Torr"}}