{"cas_no": "50675-21-3", "cn_name": "1-\u7532\u57fa-4-\u54cc\u5576\u7532\u919b", "en_name": ["1-Methyl-4-piperidinecarboxaldehyde", "4-Piperidinecarboxaldehyde, 1-methyl-", "1-Methyl-4-piperidinecarboxaldehyde", "1-Methylpiperidine-4-carbaldehyde"], "SMILES": "C(=O)C1CCN(C)CC1", "physical_data": {"Molecular Weight": "127.18", "Molecular Formula": "C7H13NO", "Boiling Point": "60-62 \u00b0C @ Press: 6 Torr", "Density": "0.9574 g/cm\u00b3 @ Temp: 20 \u00b0C"}}