{"cas_no": "50670-50-3", "cn_name": "4-\u6c30\u57fa-4'-\u7532\u57fa\u8054\u82ef", "en_name": ["4\u2032-Methyl[1,1\u2032-biphenyl]-4-carbonitrile", "[1,1\u2032-Biphenyl]-4-carbonitrile, 4\u2032-methyl-", "4\u2032-Methyl[1,1\u2032-biphenyl]-4-carbonitrile", "4-Cyano-4\u2032-methylbiphenyl", "CB 1 (liquid crystal)", "CB 1", "4\u2032-Cyano-4-methylbiphenyl", "4-Methyl-4\u2032-cyanobiphenyl", "4-(4-Methylphenyl)benzonitrile", "4-(p-Tolyl)benzonitrile", "4-(4-Tolyl)benzonitrile", "4\u2032-Methylbiphenyl-4-carbonitrile", "4-Cyano-4\u2032-methyl-1,1\u2032-biphenyl", "4\u2032-Methyl-1,1\u2032-biphenyl-4-ylcarbonitrile"], "SMILES": "C(#N)C1=CC=C(C=C1)C2=CC=C(C)C=C2", "physical_data": {"Molecular Weight": "193.24", "Molecular Formula": "C14H11N", "Melting Point": "110-112 \u00b0C"}}