{"cas_no": "50679-08-8", "cn_name": "\u7279\u975e\u90a3\u5b9a", "en_name": ["Terfenadine", "1-Piperidinebutanol, \u03b1-[4-(1,1-dimethylethyl)phenyl]-4-(hydroxydiphenylmethyl)-", "\u03b1-[4-(1,1-Dimethylethyl)phenyl]-4-(hydroxydiphenylmethyl)-1-piperidinebutanol", "\u03b1-(p-tert-Butylphenyl)-4-(\u03b1-hydroxy-\u03b1-phenylbenzyl)-1-piperidinebutanol", "Terfenadine", "Teldane", "Seldane", "dl-Terfenadine", "(\u00b1)-Terfenadine", "Racemic terfenadine", "Histadin", "Triludan", "NSC 665802", "MDL 9918", "Nebralin", "Cyater", "Allerplus", "Terdin", "Ternadin", "Terfex", "Teldanex", "Histafen", "Terfinax", "1-(4-tert-Butylphenyl)-4-[4-[hydroxy(diphenyl)methyl]piperidin-1-yl]butan-1-ol", "MeSH ID: D016593"], "SMILES": "C(O)(C1CCN(CCCC(O)C2=CC=C(C(C)(C)C)C=C2)CC1)(C3=CC=CC=C3)C4=CC=CC=C4", "physical_data": {"Molecular Weight": "471.67", "Molecular Formula": "C32H41NO2", "Melting Point": "146.5-148.5 \u00b0C"}}