{"cas_no": "50675-20-2", "cn_name": "\u54cc\u5576-4-\u7532\u919b", "en_name": ["4-Piperidinecarboxaldehyde", "4-Piperidinecarboxaldehyde", "4-Formylpiperidine"], "SMILES": "C(=O)C1CCNCC1", "physical_data": {"Molecular Weight": "113.16", "Molecular Formula": "C6H11NO", "Boiling Point": "216-217 \u00b0C @ Press: 760 Torr"}}