{"cas_no": "50670-58-1", "cn_name": "4'-\u6eb4-[1,1'-\u8054\u82ef]-4-\u7532\u919b", "en_name": ["4\u2032-Bromo[1,1\u2032-biphenyl]-4-carboxaldehyde", "[1,1\u2032-Biphenyl]-4-carboxaldehyde, 4\u2032-bromo-", "4\u2032-Bromo[1,1\u2032-biphenyl]-4-carboxaldehyde", "4\u2032-Bromo-4-biphenylcarboxaldehyde", "4-(4-Bromophenyl)benzaldehyde", "4-Bromo-4\u2032-formylbiphenyl", "4\u2032-Bromobiphenyl-4-carbaldehyde", "4\u2032-Bromo-[1,1\u2032-biphenyl]-4-carbaldehyde"], "SMILES": "C(=O)C1=CC=C(C=C1)C2=CC=C(Br)C=C2", "physical_data": {"Molecular Weight": "261.11", "Molecular Formula": "C13H9BrO", "Melting Point": "135-140 \u00b0C"}}