{"cas_no": "5068-28-0", "cn_name": "Boc-S-\u82c4\u57fa-L-\u534a\u5149\u6c28\u9178", "en_name": ["N-tert-Butoxycarbonyl-S-benzyl-L-cysteine", "L-Cysteine, N-[(1,1-dimethylethoxy)carbonyl]-S-(phenylmethyl)-", "Alanine, 3-(benzylthio)-N-carboxy-, N-tert-butyl ester, L-", "Alanine, 3-(benzylthio)-N-carboxy-, N-tert-butyl ester", "N-[(1,1-Dimethylethoxy)carbonyl]-S-(phenylmethyl)-L-cysteine", "N-tert-Butoxycarbonyl-S-benzyl-L-cysteine", "N-tert-Butyloxycarbonyl-S-benzyl-L-cysteine", "N-tert-Butoxycarbonyl-S-benzylcysteine", "NSC 164041", "(2R)-3-Benzylsulfanyl-2-[(2-methylpropan-2-yl)oxycarbonylamino]propanoic acid", "(R)-3-(Benzylthio)-2-((tert-butoxycarbonyl)amino)propanoic acid"], "SMILES": "C(SCC(NC(OC(C)(C)C)=O)C(O)=O)C1=CC=CC=C1", "physical_data": {"Molecular Weight": "311.40", "Molecular Formula": "C15H21NO4S", "Melting Point": "86-87 \u00b0C"}}