{"cas_no": "50681-26-0", "cn_name": "3-\u6c27\u4ee3-6-\u6c2f-2,3-\u4e8c\u6c22\u54d2\u55ea-4-\u7532\u9178", "en_name": ["6-Chloro-2,3-dihydro-3-oxo-4-pyridazinecarboxylic acid", "4-Pyridazinecarboxylic acid, 6-chloro-2,3-dihydro-3-oxo-", "6-Chloro-2,3-dihydro-3-oxo-4-pyridazinecarboxylic acid", "NSC 338205", "6-Chloro-3-oxo-2,3-dihydropyridazine-4-carboxylic acid", "6-Chloro-3-hydroxypyridazine-4-carboxylic acid"], "SMILES": "C(O)(=O)C=1C(=O)NN=C(Cl)C1", "physical_data": {"Molecular Weight": "174.54", "Molecular Formula": "C5H3ClN2O3", "Melting Point": "210 \u00b0C (decomp)"}}