{"cas_no": "50687-62-2", "cn_name": "4-\u7532\u6c27\u82ef\u57fa(4-\u7f9f\u57fa\u82ef\u7532\u9178)\u916f", "en_name": ["Benzoic acid, 4-hydroxy-, 4-methoxyphenyl ester", "Benzoic acid, 4-hydroxy-, 4-methoxyphenyl ester", "4-Methoxyphenyl 4-hydroxybenzoate"], "SMILES": "C(OC1=CC=C(OC)C=C1)(=O)C2=CC=C(O)C=C2", "physical_data": {"Molecular Weight": "244.24", "Molecular Formula": "C14H12O4", "Melting Point": "191-192 \u00b0C"}}