{"cas_no": "50681-25-9", "cn_name": "4-\u54d2\u55ea\u7fa7\u9178", "en_name": ["4-Pyridazinecarboxylic acid", "4-Pyridazinecarboxylic acid", "1(2H)-Pyrazinecarboxylic acid", "Pyrazine-4-carboxylic acid"], "SMILES": "C(O)(=O)C=1C=CN=NC1", "physical_data": {"Molecular Weight": "124.10", "Molecular Formula": "C5H4N2O2", "Melting Point": "239-240 \u00b0C"}}