{"cas_no": "50698-76-5", "cn_name": "S-\uff08\u7fa7\u7532\u57fa\uff09-D-\u534a\u80f1\u6c28\u9178", "en_name": ["S-(Carboxymethyl)-D-cysteine", "D-Cysteine, S-(carboxymethyl)-", "S-(Carboxymethyl)-D-cysteine", "S-Carboxymethyl-D-cysteine"], "SMILES": "C(C(C(O)=O)N)SCC(O)=O", "physical_data": {"Molecular Weight": "179.19", "Molecular Formula": "C5H9NO4S", "Melting Point": "197-203 \u00b0C (decomp)"}}