{"cas_no": "507-36-8", "cn_name": "2-\u6eb4 -2-\u7532\u57fa\u4e01\u70f7", "en_name": ["2-Bromo-2-methylbutane", "Butane, 2-bromo-2-methyl-", "2-Bromo-2-methylbutane", "tert-Amyl bromide", "tert-Pentyl bromide", "2-Methyl-2-bromobutane", "1,1-Dimethylpropyl bromide", "NSC 7897"], "SMILES": "C(CC)(Br)(C)C", "physical_data": {"Molecular Weight": "151.04", "Molecular Formula": "C5H11Br", "Boiling Point": "108 \u00b0C", "Density": "0.683 g/cm\u00b3 @ Temp: 17 \u00b0C"}}