{"cas_no": "507-52-8", "cn_name": "2-\u4e09\u6c1f\u7532\u57fa-2-\u4e19\u9187", "en_name": ["1,1,1-Trifluoro-2-methyl-2-propanol", "2-Propanol, 1,1,1-trifluoro-2-methyl-", "1,1,1-Trifluoro-2-methyl-2-propanol", "1-Trifluoromethylisopropanol", "2-(Trifluoromethyl)-2-propanol", "2,2,2-Trifluoro-1,1-dimethylethanol", "2-Hydroxy-2-trifluoromethylpropane", "Trifluoro-tert-butyl alcohol", "NSC 3633", "2-Methyl-1,1,1-trifluoropropan-2-ol"], "SMILES": "C(C(F)(F)F)(C)(C)O", "physical_data": {"Molecular Weight": "128.09", "Molecular Formula": "C4H7F3O", "Boiling Point": "81 \u00b0C", "Melting Point": "20.75 \u00b0C", "Density": "1.1903 g/cm\u00b3 @ Temp: 22.5 \u00b0C"}}