{"cas_no": "507-28-8", "cn_name": "\u56db\u82ef\u7837\u6c2f\u6c34\u5408\u7269", "en_name": ["Tetraphenylarsonium chloride", "Arsonium, tetraphenyl-, chloride (1:1)", "Arsonium, tetraphenyl-, chloride", "Tetraphenylarsonium chloride", "Phenylarsonium chloride (Ph4AsCl)", "Tetraphenylarsenic chloride", "NSC 18857"], "SMILES": "[As+](C1=CC=CC=C1)(C2=CC=CC=C2)(C3=CC=CC=C3)C4=CC=CC=C4.[Cl-]", "physical_data": {"Molecular Weight": "", "Molecular Formula": "C24H20As.Cl", "Melting Point": "259 \u00b0C"}}