{"cas_no": "507-63-1", "cn_name": "\u5168\u6c1f\u8f9b\u57fa\u7898\u70f7", "en_name": ["Perfluorooctyl iodide", "Octane, 1,1,1,2,2,3,3,4,4,5,5,6,6,7,7,8,8-heptadecafluoro-8-iodo-", "Octane, heptadecafluoro-1-iodo-", "1,1,1,2,2,3,3,4,4,5,5,6,6,7,7,8,8-Heptadecafluoro-8-iodooctane", "Heptadecafluoro-1-iodooctane", "1-Iodoperfluorooctane", "Perfluorooctyl iodide", "Perfluoro-1-iodooctane", "1-Iodoheptadecafluorooctane", "Perfluoro-n-octyl iodide", "1-Iodo-1,1,2,2,3,3,4,4,5,5,6,6,7,7,8,8,8-heptadecafluorooctane", "1,1,2,2,3,3,4,4,5,5,6,6,7,7,8,8,8-Heptadecafluoro-1-iodooctane", "Telomer AN", "Heptadecafluoro-n-octyl iodide", "1,1,2,2,3,3,4,4,5,5,6,6,7,7,8,8,8-Heptadecafluorooctyl iodide"], "SMILES": "C(C(C(C(C(F)(F)I)(F)F)(F)F)(F)F)(C(C(C(F)(F)F)(F)F)(F)F)(F)F", "physical_data": {"Molecular Weight": "545.96", "Molecular Formula": "C8F17I", "Boiling Point": "163 \u00b0C", "Melting Point": "20.8 \u00b0C"}}