{"cas_no": "507-40-4", "cn_name": "\u6b21\u6c2f\u9178\u53d4\u4e01\u916f", "en_name": ["tert-Butyl hypochlorite", "Hypochlorous acid, 1,1-dimethylethyl ester", "Hypochlorous acid, tert-butyl ester", "tert-Butyl hypochlorite", "1,1-Dimethylethyl hypochlorite"], "SMILES": "C(OCl)(C)(C)C", "physical_data": {"Molecular Weight": "108.57", "Molecular Formula": "C4H9ClO", "Boiling Point": "77.5 \u00b0C", "Density": "0.9583 g/cm\u00b3 @ Temp: 18 \u00b0C"}}