{"cas_no": "507-19-7", "cn_name": "\u6eb4\u4ee3\u53d4\u4e01\u70f7", "en_name": ["tert-Butyl bromide", "Propane, 2-bromo-2-methyl-", "2-Bromo-2-methylpropane", "2-Bromoisobutane", "tert-Butyl bromide", "Trimethylbromomethane", "Bromotrimethylmethane", "2-Methyl-2-bromopropane", "1,1-Dimethylethyl bromide", "NSC 8418"], "SMILES": "C(Br)(C)(C)C", "physical_data": {"Molecular Weight": "137.02", "Molecular Formula": "C4H9Br", "Boiling Point": "73.3 \u00b0C @ Press: 760 Torr", "Melting Point": "-16.2 \u00b0C", "Density": "1.2125 g/cm\u00b3 @ Temp: 25 \u00b0C"}}