{"cas_no": "507-25-5", "cn_name": "\u56db\u7898\u7532\u70f7", "en_name": ["Tetraiodomethane", "Methane, tetraiodo-", "Carbon tetraiodide", "Tetraiodomethane", "Carbon iodide (CI4)"], "SMILES": "C(I)(I)(I)I", "physical_data": {"Molecular Weight": "519.63", "Molecular Formula": "CI4", "Melting Point": "171 \u00b0C", "Density": "4.50 g/cm\u00b3 @ Temp: 0 \u00b0C"}}