{"cas_no": "507-16-4", "cn_name": "\u4e8c\u6eb4\u4e9a\u781c", "en_name": ["Thionyl bromide", "Thionyl bromide", "Sulfur bromide oxide (SOBr2)"], "SMILES": "S(Br)(Br)=O", "physical_data": {"Molecular Weight": "207.87", "Molecular Formula": "Br2OS", "Boiling Point": "30-33 \u00b0C @ Press: 13 Torr"}}