{"cas_no": "507-02-8", "cn_name": "\u4e59\u9170\u7898", "en_name": ["Acetyl iodide", "Acetyl iodide"], "SMILES": "C(C)(I)=O", "physical_data": {"Molecular Weight": "169.95", "Molecular Formula": "C2H3IO", "Boiling Point": "108 \u00b0C"}}