{"cas_no": "507-09-5", "cn_name": "\u786b\u4ee3\u4e59\u9178", "en_name": ["Thioacetic acid", "Ethanethioic acid", "Acetic acid, thio-", "Ethanethiolic acid", "Thiacetic acid", "Thioacetic acid", "Thiolacetic acid", "Methanecarbothiolic acid", "Thionoacetic acid", "Acetyl mercaptan", "Monothioacetic acid"], "SMILES": "C(C)(=O)S", "physical_data": {"Molecular Weight": "76.12", "Molecular Formula": "C2H4OS", "Boiling Point": "93 \u00b0C", "Melting Point": "&lt;-17 \u00b0C", "Density": "1.074 g/cm\u00b3"}}