{"cas_no": "507-20-0", "cn_name": "\u6c2f\u4ee3\u53d4\u4e01\u70f7", "en_name": ["tert-Butyl chloride", "Propane, 2-chloro-2-methyl-", "2-Chloro-2-methylpropane", "2-Chloroisobutane", "Trimethylchloromethane", "2-Methyl-2-propyl chloride", "2-Methyl-2-chloropropane", "Chlorotrimethylmethane", "1,1-Dimethylethyl chloride", "1-Chloro-1,1-dimethylethane", "tert-Butyl chloride", "NSC 6527"], "SMILES": "C(C)(C)(C)Cl", "physical_data": {"Molecular Weight": "92.57", "Molecular Formula": "C4H9Cl", "Boiling Point": "50.9 \u00b0C", "Melting Point": "-26 \u00b0C", "Density": "0.8511 g/cm\u00b3 @ Temp: 20 \u00b0C"}}