{"cas_no": "50709-33-6", "cn_name": "2-\u6eb4\u82ef\u80bc\u76d0\u9178\u76d0", "en_name": ["2-Bromophenylhydrazine hydrochloride", "Hydrazine, (2-bromophenyl)-, hydrochloride (1:1)", "Hydrazine, (2-bromophenyl)-, monohydrochloride", "Hydrazine, (o-bromophenyl)-, hydrochloride", "2-Bromophenylhydrazine hydrochloride"], "SMILES": "N(N)C1=C(Br)C=CC=C1.Cl", "physical_data": {"Molecular Weight": "", "Molecular Formula": "C6H7BrN2.ClH", "Melting Point": "196-198 \u00b0C (decomp)"}}