{"cas_no": "5070-13-3", "cn_name": "\u4e8c(\u5bf9\u785d\u57fa\u82ef)\u78b3\u9178\u916f", "en_name": ["Bis(4-nitrophenyl) carbonate", "Carbonic acid, bis(4-nitrophenyl) ester", "Carbonic acid, bis(p-nitrophenyl) ester", "Bis(4-nitrophenyl) carbonate", "p,p\u2032-Dinitrodiphenylcarbonate", "Bis(p-nitrophenyl) carbonate", "4,4\u2032-Dinitrodiphenyl carbonate", "Di-4-nitrophenyl carbonate", "Di-p-nitrophenyl carbonate", "NSC 1730", "Di(4-nitropropyl) carbonate"], "SMILES": "O(C(OC1=CC=C(N(=O)=O)C=C1)=O)C2=CC=C(N(=O)=O)C=C2", "physical_data": {"Molecular Weight": "304.21", "Molecular Formula": "C13H8N2O7", "Melting Point": "140 \u00b0C"}}