{"cas_no": "50709-36-9", "cn_name": "2,6-\u4e8c\u6c2f\u82ef\u80bc\u76d0\u9178\u76d0", "en_name": ["Hydrazine, (2,6-dichlorophenyl)-, hydrochloride (1:1)", "Hydrazine, (2,6-dichlorophenyl)-, hydrochloride (1:1)", "Hydrazine, (2,6-dichlorophenyl)-, monohydrochloride", "2,6-Dichlorophenylhydrazine hydrochloride"], "SMILES": "N(N)C1=C(Cl)C=CC=C1Cl.Cl", "physical_data": {"Molecular Weight": "", "Molecular Formula": "C6H6Cl2N2.ClH", "Melting Point": "218 \u00b0C (decomp)"}}