{"cas_no": "50700-49-7", "cn_name": "N-\u4e59\u9170\u57fa-4-\u82ef\u918c\u4e9a\u80fa", "en_name": ["N-Acetyl-p-benzoquinonimine", "Acetamide, N-(4-oxo-2,5-cyclohexadien-1-ylidene)-", "N-(4-Oxo-2,5-cyclohexadien-1-ylidene)acetamide", "N-Acetyl-p-benzoquinonimine", "Acetimidoquinone", "N-Acetyl-1,4-benzoquinonimine", "NAPQI", "N-Acetyl-p-benzoquinone imine"], "SMILES": "N(C(C)=O)=C1C=CC(=O)C=C1", "physical_data": {"Molecular Weight": "149.15", "Molecular Formula": "C8H7NO2", "Melting Point": "74.5 \u00b0C"}}