{"cas_no": "50700-72-6", "cn_name": "\u7ef4\u5e93\u6eb4\u94f5", "en_name": ["Vecuronium", "Piperidinium, 1-[(2\u03b2,3\u03b1,5\u03b1,16\u03b2,17\u03b2)-3,17-bis(acetyloxy)-2-(1-piperidinyl)androstan-16-yl]-1-methyl-, bromide (1:1)", "Piperidinium, 1-[(2\u03b2,3\u03b1,5\u03b1,16\u03b2,17\u03b2)-3,17-bis(acetyloxy)-2-(1-piperidinyl)androstan-16-yl]-1-methyl-, bromide", "Androstane, piperidinium deriv.", "Org-NC 45", "NC 45", "Vecuronium bromide", "Norcuron", "Vecuronium", "Musculax", "MeSH ID: D014673"], "SMILES": "CC12C(C3C(CC1)C4(C)C(CC3)CC(OC(C)=O)C(C4)N5CCCCC5)CC(C2OC(C)=O)[N+]6(C)CCCCC6.[Br-]", "physical_data": {"Molecular Weight": "", "Molecular Formula": "C34H57N2O4.Br", "Melting Point": "228 \u00b0C"}}