{"cas_no": "50715-28-1", "cn_name": "\u6c2f\u7532\u9178\u73af\u620a\u916f", "en_name": ["Cyclopentyl chloroformate", "Carbonochloridic acid, cyclopentyl ester", "Formic acid, chloro-, cyclopentyl ester", "Cyclopentyl chloroformate", "Cyclopentyloxycarbonyl chloride", "Cyclopentyl carbonochloridate"], "SMILES": "O(C(Cl)=O)C1CCCC1", "physical_data": {"Molecular Weight": "148.59", "Molecular Formula": "C6H9ClO2", "Boiling Point": "69.0-70.5 \u00b0C @ Press: 25 Torr"}}