{"cas_no": "50712-63-5", "cn_name": "2-(4-\u785d\u57fa\u82ef\u57fa)\u4e19\u8148", "en_name": ["\u03b1-Methyl-4-nitrobenzeneacetonitrile", "Benzeneacetonitrile, \u03b1-methyl-4-nitro-", "\u03b1-Methyl-4-nitrobenzeneacetonitrile", "2-(4-Nitrophenyl)propionitrile", "2-(4-Nitrophenyl)propiononitrile", "2-(4-Nitrophenyl)propanenitrile"], "SMILES": "C(C#N)(C)C1=CC=C(N(=O)=O)C=C1", "physical_data": {"Molecular Weight": "176.17", "Molecular Formula": "C9H8N2O2", "Melting Point": "73-75 \u00b0C"}}