{"cas_no": "5071-61-4", "cn_name": "5-\u82ef\u57fa-1H-\u5421\u5511-3-\u7fa7\u9178", "en_name": ["5-Phenyl-1H-pyrazole-3-carboxylic acid", "1H-Pyrazole-3-carboxylic acid, 5-phenyl-", "Pyrazole-3-carboxylic acid, 5-phenyl-", "Pyrazole-3(or 5)-carboxylic acid, 5(or 3)-phenyl-", "5-Phenyl-1H-pyrazole-3-carboxylic acid", "5-Phenylpyrazole-3-carboxylic acid", "3-Phenyl-5-carboxypyrazole", "3-Phenyl-1H-pyrazole-5-carboxylic acid", "3-Phenylpyrazole-5-carboxylic acid", "3-Phenyl-1H-pyrazol-2-ium-5-carboxylate"], "SMILES": "C(O)(=O)C=1C=C(NN1)C2=CC=CC=C2", "physical_data": {"Molecular Weight": "188.18", "Molecular Formula": "C10H8N2O2", "Melting Point": "234-235 \u00b0C"}}