{"cas_no": "5071-96-5", "cn_name": "3-\u7532\u6c27\u57fa\u82c4\u80fa", "en_name": ["3-Methoxybenzylamine", "Benzenemethanamine, 3-methoxy-", "Benzylamine, m-methoxy-", "3-Methoxybenzenemethanamine", "3-Methoxybenzylamine", "m-Methoxybenzylamine", "(3-Methoxyphenyl)methanamine", "[(3-Methoxyphenyl)methyl]amine", "NSC 162042", "[[3-(Methyloxy)phenyl]methyl]amine", "1-[3-(Methyloxy)phenyl]methanamine", "1-(3-Methoxyphenyl)methanamine"], "SMILES": "C(N)C1=CC(OC)=CC=C1", "physical_data": {"Molecular Weight": "137.18", "Molecular Formula": "C8H11NO", "Boiling Point": "131 \u00b0C @ Press: 26 Torr"}}