{"cas_no": "5072-26-4", "cn_name": "\u4e01\u57fa\u786b", "en_name": ["Buthionine sulfoximine", "Butanoic acid, 2-amino-4-(S-butylsulfonimidoyl)-", "Sulfoximine, S-(3-amino-3-carboxypropyl)-S-butyl-", "Sulfoximine, 3-amino-3-carboxypropyl butyl", "2-Amino-4-(S-butylsulfonimidoyl)butanoic acid", "Butionine sulfoximine", "Buthionine sulfoximine", "DL-Buthionine (S,R)-sulfoximine", "NSC 381100", "MeSH ID: D019328"], "SMILES": "S(CCC(C(O)=O)N)(CCCC)(=N)=O", "physical_data": {"Molecular Weight": "222.31", "Molecular Formula": "C8H18N2O3S", "Melting Point": "254-255 \u00b0C"}}