{"cas_no": "50735-34-7", "cn_name": "2-\u6c28\u57fa-5-\u6eb4\u70df\u9178\u7532\u916f", "en_name": ["Methyl 2-amino-5-bromonicotinate", "3-Pyridinecarboxylic acid, 2-amino-5-bromo-, methyl ester", "Methyl 2-amino-5-bromonicotinate", "Methyl 2-amino-5-bromopyridine-3-carboxylate"], "SMILES": "C(OC)(=O)C1=C(N)N=CC(Br)=C1", "physical_data": {"Molecular Weight": "231.05", "Molecular Formula": "C7H7BrN2O2", "Melting Point": "148-149 \u00b0C"}}