{"cas_no": "5074-71-5", "cn_name": "\u5341\u6c1f\u4e09\u82ef\u57fa\u78f7", "en_name": ["Bis(2,3,4,5,6-pentafluorophenyl)phenylphosphine", "Phosphine, bis(2,3,4,5,6-pentafluorophenyl)phenyl-", "Phosphine, bis(pentafluorophenyl)phenyl-", "Bis(2,3,4,5,6-pentafluorophenyl)phenylphosphine", "Bis(pentafluorophenyl)phenylphosphine", "(Decafluorodiphenyl)phenylphosphine", "Phenylbis(pentafluorophenyl)phosphine"], "SMILES": "P(C1=C(F)C(F)=C(F)C(F)=C1F)(C2=C(F)C(F)=C(F)C(F)=C2F)C3=CC=CC=C3", "physical_data": {"Molecular Weight": "442.19", "Molecular Formula": "C18H5F10P", "Melting Point": "69-70 \u00b0C"}}