{"cas_no": "50743-20-9", "cn_name": "6-\u6c2f\u8272\u916e-3-\u8148", "en_name": ["6-Chloro-4-oxo-4H-1-benzopyran-3-carbonitrile", "4H-1-Benzopyran-3-carbonitrile, 6-chloro-4-oxo-", "6-Chloro-4-oxo-4H-1-benzopyran-3-carbonitrile", "6-Chloro-3-cyanochromone"], "SMILES": "O=C1C=2C(OC=C1C#N)=CC=C(Cl)C2", "physical_data": {"Molecular Weight": "205.60", "Molecular Formula": "C10H4ClNO2", "Melting Point": "211-213 \u00b0C"}}