{"cas_no": "50741-92-9", "cn_name": "2-\u7532\u6c27\u57fa-5-\u785d\u57fa\u82ef\u7532\u919a", "en_name": ["1-Methoxy-2-methyl-4-nitrobenzene", "Benzene, 1-methoxy-2-methyl-4-nitro-", "Anisole, 2-methyl-4-nitro-", "1-Methoxy-2-methyl-4-nitrobenzene", "2-Methyl-4-nitroanisole", "2-Methoxy-5-nitrotoluene", "4-Methoxy-3-methylnitrobenzene", "3-Methyl-4-methoxynitrobenzene"], "SMILES": "N(=O)(=O)C1=CC(C)=C(OC)C=C1", "physical_data": {"Molecular Weight": "167.16", "Molecular Formula": "C8H9NO3", "Melting Point": "63 \u00b0C"}}