{"cas_no": "5075-92-3", "cn_name": "1,5-\u4e8c\u7532\u57fa-2-\u5421\u54af\u70f7\u916e", "en_name": ["1,5-Dimethyl-2-pyrrolidone", "2-Pyrrolidinone, 1,5-dimethyl-", "2-Pyrrolidinone, 1,5-dimethyl-, (\u00b1)-", "1,5-Dimethyl-2-pyrrolidinone", "(\u00b1)-1,5-Dimethyl-2-pyrrolidone", "5,N-Dimethyl-2-pyrrolidinone", "1,5-Dimethyl-2-pyrrolidone", "(\u00b1)-1,5-Dimethyl-2-pyrrolidinone", "NSC 527837", "5-Methyl-N-methylpyrrolidin-2-one", "N-Methyl-5-methyl-2-pyrrolidone", "1,5-Dimethyl-pyrrolidone"], "SMILES": "CN1C(C)CCC1=O", "physical_data": {"Molecular Weight": "113.16", "Molecular Formula": "C6H11NO", "Boiling Point": "217 \u00b0C"}}