{"cas_no": "50767-79-8", "cn_name": "(Z,E)-9,11-\u5341\u56db\u78b3\u4e8c\u70ef-1-\u9187\u4e59\u9178\u916f", "en_name": ["9Z,11E-Tetradecadienyl acetate", "9,11-Tetradecadien-1-ol, 1-acetate, (9Z,11E)-", "9,11-Tetradecadien-1-ol, acetate, (E,Z)-", "9,11-Tetradecadien-1-ol, acetate, (9Z,11E)-", "cis-9,trans-11-Tetradecadien-1-yl acetate", "cis-9,trans-11-Tetradecadien-1-ol acetate", "cis-9,trans-11-Tetradecadienyl acetate", "(Z,E)-9,11-Tetradecadien-1-ol acetate", "Litlure A", "Ferodin SL", "Prodlure", "(9Z,11E)-9,11-Tetradecadien-1-yl acetate", "9Z,11E-Tetradecadienyl acetate", "(9Z,11E)-9,11-Tetradecadien-1-ol acetate"], "SMILES": "C(CCCCC=CC=CCC)CCCOC(C)=O", "physical_data": {"Molecular Weight": "252.39", "Molecular Formula": "C16H28O2", "Boiling Point": "147.5 \u00b0C", "Melting Point": "&lt;25 \u00b0C"}}