{"cas_no": "5076-82-4", "cn_name": "\u808c\u6c28\u9178\u9150", "en_name": ["Sarcosine anhydride", "2,5-Piperazinedione, 1,4-dimethyl-", "Cyclo(sarcosylsarcosyl)", "1,4-Dimethyl-2,5-piperazinedione", "Sarcosine anhydride", "Sarcosine anhydride, bimol. cyclic", "N,N\u2032-Dimethyldiketopiperazine", "Sarcosine diketopiperazine", "1,4-Dimethyl-2,5-dioxopiperazine", "1,4-Dimethylpiperazine-2,5-dione", "NSC 67461", "Cyclo(Sar-Sar)"], "SMILES": "O=C1N(C)CC(=O)N(C)C1", "physical_data": {"Molecular Weight": "142.16", "Molecular Formula": "C6H10N2O2", "Boiling Point": "304-306 \u00b0C", "Melting Point": "149-150 \u00b0C"}}