{"cas_no": "50773-42-7", "cn_name": "\u91cd\u697c\u7682\u82f7B", "en_name": ["Asperin", "\u03b2-D-Glucopyranoside, (3\u03b2,25R)-spirost-5-en-3-yl O-6-deoxy-\u03b1-L-mannopyranosyl-(1\u21922)-O-[O-6-deoxy-\u03b1-L-mannopyranosyl-(1\u21924)-6-deoxy-\u03b1-L-mannopyranosyl-(1\u21924)]-", "(3\u03b2,25R)-Spirost-5-en-3-yl O-6-deoxy-\u03b1-L-mannopyranosyl-(1\u21922)-O-[O-6-deoxy-\u03b1-L-mannopyranosyl-(1\u21924)-6-deoxy-\u03b1-L-mannopyranosyl-(1\u21924)]-\u03b2-D-glucopyranoside", "Diosgenin 3-O-\u03b1-L-rhamnopyranosyl-(1\u21924)-\u03b1-L-rhamnopyranosyl-(1\u21924)-[\u03b1-L-rhamnopyranosyl-(1\u21922)]-\u03b2-D-glucopyranoside", "Asperin", "Pb", "Formosanin C", "Saponin P-d, from Alliumfistulosum", "NSC 306864", "Parissaponin Pb", "Parrisaponin", "Saponin Pb", "Diosgenin 3-O-\u03b1-L-rhamnopyranosyl-(1\u21922)-[\u03b1-L-rhamnopyranosyl-(1\u21924)-\u03b1-L-rhamnopyranosyl-(1\u21924)]-\u03b2-D-glucopyranoside", "(25R)-Spirost-5-en-3\u03b2-ol 3-O-\u03b1-L-rhamnopyranosyl-(1-2)-O-[[\u03b1-L-rhamnopyranosyl-(1-4)]-O-[\u03b1-L-rhamnopyranosyl-(1-4)]]-\u03b2-D-glucopyranoside", "Paris II", "17-Deoxyparis VII", "Paris saponin II", "Paridis saponin II"], "SMILES": "CC12C3C(CC1C4C(CC2)C5(C)C(=CC4)CC(OC6C(OC7C(O)C(O)C(O)C(C)O7)C(O)C(OC8C(O)C(O)C(OC9C(O)C(O)C(O)C(C)O9)C(C)O8)C(CO)O6)CC5)OC%10(C3C)CCC(C)CO%10", "physical_data": {"Molecular Weight": "1015.18", "Molecular Formula": "C51H82O20", "Melting Point": "231-241 \u00b0C"}}