{"cas_no": "5077-67-8", "cn_name": "1-\u7f9f\u57fa-2-\u4e01\u916e", "en_name": ["1-Hydroxy-2-butanone", "2-Butanone, 1-hydroxy-", "1-Hydroxy-2-butanone", "2-Oxobutanol", "2-Oxobutan-1-ol"], "SMILES": "C(CC)(CO)=O", "physical_data": {"Molecular Weight": "88.11", "Molecular Formula": "C4H8O2", "Boiling Point": "160 \u00b0C", "Density": "1.0272 g/cm\u00b3 @ Temp: 20 \u00b0C"}}