{"cas_no": "50777-76-9", "cn_name": "2-\u4e8c\u82ef\u57fa\u81a6\u82ef\u7532\u919b", "en_name": ["2-(Diphenylphosphino)benzaldehyde", "Benzaldehyde, 2-(diphenylphosphino)-", "2-(Diphenylphosphino)benzaldehyde", "o-(Diphenylphosphino)benzaldehyde", "(2-Formylphenyl)diphenylphosphine", "2-Diphenylphosphanylbenzaldehyde"], "SMILES": "P(C1=C(C=O)C=CC=C1)(C2=CC=CC=C2)C3=CC=CC=C3", "physical_data": {"Molecular Weight": "290.30", "Molecular Formula": "C19H15OP", "Melting Point": "114-117 \u00b0C"}}