{"cas_no": "50789-43-0", "cn_name": "METHYL 3-PHENOXYBENZOATE", "en_name": ["Methyl 3-phenoxybenzoate", "Benzoic acid, 3-phenoxy-, methyl ester", "3-Methoxycarbonyldiphenyl ether", "Methyl 3-phenoxybenzoate", "3-Phenoxybenzoic acid methyl ester"], "SMILES": "O(C1=CC(C(OC)=O)=CC=C1)C2=CC=CC=C2", "physical_data": {"Molecular Weight": "228.24", "Molecular Formula": "C14H12O3", "Boiling Point": "150-153 \u00b0C @ Press: 1.5 Torr"}}