{"cas_no": "508-04-3", "cn_name": "\u0391-\u9999\u6811\u7d20", "en_name": ["\u03b4-Amyrin", "Olean-13(18)-en-3-ol, (3\u03b2)-", "Olean-13(18)-en-3\u03b2-ol", "(3\u03b2)-Olean-13(18)-en-3-ol", "\u03b4-Amyrenol", "\u03b4-Amyrin", "(-)-\u03b4-Amyrin"], "SMILES": "CC12C3(C)C(=C4C(C)(CC3)CCC(C)(C)C4)CCC1C5(C)C(CC2)C(C)(C)C(O)CC5", "physical_data": {"Molecular Weight": "426.72", "Molecular Formula": "C30H50O", "Melting Point": "210-212 \u00b0C"}}