{"cas_no": "508-02-1", "cn_name": "\u9f50\u58a9\u679c\u9178", "en_name": ["Oleanolic acid", "Olean-12-en-28-oic acid, 3-hydroxy-, (3\u03b2)-", "Olean-12-en-28-oic acid, 3\u03b2-hydroxy-", "(3\u03b2)-3-Hydroxyolean-12-en-28-oic acid", "Caryophyllin", "Oleanolic acid", "Oleanic acid", "3\u03b2-Hydroxyolean-12-en-28-oic acid", "Giganteumgenin C", "Virgaureagenin B", "Astrantiagenin C", "(+)-Oleanolic acid", "Gledigenin 1", "NSC 114945", "Oleonolic acid", "MeSH ID: D009828"], "SMILES": "CC12C3(C)C(C4C(C(O)=O)(CC3)CCC(C)(C)C4)=CCC1C5(C)C(CC2)C(C)(C)C(O)CC5", "physical_data": {"Molecular Weight": "456.70", "Molecular Formula": "C30H48O3", "Melting Point": "310 \u00b0C (decomp)"}}