{"cas_no": "508-01-0", "cn_name": "\u5927\u8c46\u753e\u9187 A", "en_name": ["Soyasapogenol A", "Olean-12-ene-3,21,22,23-tetrol, (3\u03b2,4\u03b2,21\u03b2,22\u03b2)-", "Olean-12-ene-3\u03b2,21\u03b2,22\u03b2,24-tetrol", "Soyasapogenol A", "(3\u03b2,4\u03b2,21\u03b2,22\u03b2)-Olean-12-ene-3,21,22,23-tetrol"], "SMILES": "CC12C3(C)C(C4C(C)(CC3)C(O)C(O)C(C)(C)C4)=CCC1C5(C)C(CC2)C(CO)(C)C(O)CC5", "physical_data": {"Molecular Weight": "474.72", "Molecular Formula": "C30H50O4", "Melting Point": "307-310 \u00b0C"}}