{"cas_no": "508-09-8", "cn_name": "\u9ecf\u9ef4\u916e", "en_name": ["(8\u03b1,9\u03b2,10\u03b1,13\u03b1,14\u03b2)-9,13-Dimethyl-25,26-dinorolean-5-en-3-one", "25,26-Dinorolean-5-en-3-one, 9,13-dimethyl-, (8\u03b1,9\u03b2,10\u03b1,13\u03b1,14\u03b2)-", "D:B-Friedoolean-5-en-3-one", "Alnusenone", "(8\u03b1,9\u03b2,10\u03b1,13\u03b1,14\u03b2)-9,13-Dimethyl-25,26-dinorolean-5-en-3-one", "Glutinone", "Glut-5(6)-en-3-one", "Alnusenon", "Glutinon", "Glut-5-en-3-one", "Glutinone (triterpene)", "3(2H)-Picenone, 1,4,6,6a,6b,7,8,8a,9,10,11,12,12a,12b,13,14,14a,14b-octadecahydro-4,4,6b,8a,11,11,12b,14a-octamethyl-, [6aS-(6a\u03b1,6b\u03b2,8a\u03b2,12a\u03b2,12b\u03b1,14a\u03b2,14b\u03b1)]-", "3(2H)-Picenone, 1,4,6,6a,6b,7,8,8a,9,10,11,12,12a,12b,13,14,14a,14b-octadecahydro-4,4,6b,8a,11,11,12b,14a-octamethyl-, (6aS,6bR,8aR,12aR,12bS,14aR,14bS)-", "Gluteon"], "SMILES": "CC12C(C)(C3C(C)(CC1)CCC(C)(C)C3)CCC4(C)C2CC=C5C4CCC(=O)C5(C)C", "physical_data": {"Molecular Weight": "424.70", "Molecular Formula": "C30H48O", "Melting Point": "245-246 \u00b0C"}}