{"cas_no": "508-77-0", "cn_name": "\u6bd2\u6bdb\u65cb\u82b1\u82f7K", "en_name": ["Cymarin", "Card-20(22)-enolide, 3-[(2,6-dideoxy-3-O-methyl-\u03b2-D-ribo-hexopyranosyl)oxy]-5,14-dihydroxy-19-oxo-, (3\u03b2,5\u03b2)-", "Cymarin", "(3\u03b2,5\u03b2)-3-[(2,6-Dideoxy-3-O-methyl-\u03b2-D-ribo-hexopyranosyl)oxy]-5,14-dihydroxy-19-oxocard-20(22)-enolide", "k-Strophanthin-\u03b1", "Cymarine", "Alvonal MR", "WV 90043a", "Strophantin K", "K-Strophanthin-\u03b1", "NSC 7522", "MeSH ID: D003529"], "SMILES": "C(=O)C12C3C(C4(O)C(C)(CC3)C(CC4)C=5COC(=O)C5)CCC1(O)CC(OC6CC(OC)C(O)C(C)O6)CC2", "physical_data": {"Molecular Weight": "548.66", "Molecular Formula": "C30H44O9", "Melting Point": "148 \u00b0C"}}