{"cas_no": "508-75-8", "cn_name": "K-\u6bd2\u6bdb\u65cb\u82b1\u5b50\u914d\u8d28-3-L-\u9f20\u674e\u7cd6\u7519", "en_name": ["Convallatoxin", "Card-20(22)-enolide, 3-[(6-deoxy-\u03b1-L-mannopyranosyl)oxy]-5,14-dihydroxy-19-oxo-, (3\u03b2,5\u03b2)-", "Convallatoxin", "(3\u03b2,5\u03b2)-3-[(6-Deoxy-\u03b1-L-mannopyranosyl)oxy]-5,14-dihydroxy-19-oxocard-20(22)-enolide", "Convallaton", "Corglykon", "Korglykon", "Convallatoxoside", "Convallaotoxin", "Corglycone", "Convallotoxin", "Corglycon", "Convallatoxine", "Strophanthidin \u03b1-L-rhamnoside", "NSC 407808"], "SMILES": "C(=O)C12C3C(C4(O)C(C)(CC3)C(CC4)C5=CC(=O)OC5)CCC1(O)CC(OC6C(O)C(O)C(O)C(C)O6)CC2", "physical_data": {"Molecular Weight": "550.64", "Molecular Formula": "C29H42O10", "Melting Point": "235-242 \u00b0C"}}