{"cas_no": "5080-50-2", "cn_name": "\u4e59\u9170\u5de6\u65cb\u8089\u78b1", "en_name": ["Acetyl L-carnitine hydrochloride", "1-Propanaminium, 2-(acetyloxy)-3-carboxy-N,N,N-trimethyl-, chloride (1:1), (2R)-", "Ammonium, (3-carboxy-2-hydroxypropyl)trimethyl-, chloride, acetate, (-)-", "1-Propanaminium, 2-(acetyloxy)-3-carboxy-N,N,N-trimethyl-, chloride, (R)-", "1-Propanaminium, 2-(acetyloxy)-3-carboxy-N,N,N-trimethyl-, chloride, (2R)-", "O-Acetylcarnitine hydrochloride", "Acetylcarnitine chloride", "ST 200", "L-Acetylcarnitine chloride", "Acetyl L-carnitine hydrochloride", "Normobren", "Branigen", "Levacecarnine hydrochloride", "l-Acetylcarnitine hydrochloride", "Zibren"], "SMILES": "C(C(CC(O)=O)OC(C)=O)[N+](C)(C)C.[Cl-]", "physical_data": {"Molecular Weight": "", "Molecular Formula": "C9H18NO4.Cl", "Melting Point": "187 \u00b0C (decomp)"}}