{"cas_no": "5080-22-8", "cn_name": "N-\u5f02\u4e19\u57fa\u7f9f\u80fa", "en_name": ["Isopropylhydroxylamine", "2-Propanamine, N-hydroxy-", "Hydroxylamine, N-isopropyl-", "N-Hydroxy-2-propanamine", "N-Isopropylhydroxylamine", "Isopropylhydroxylamine", "Isopropyl hydroxyamine", "Hydroguard I 15"], "SMILES": "C(NO)(C)C", "physical_data": {"Molecular Weight": "75.11", "Molecular Formula": "C3H9NO", "Melting Point": "87 \u00b0C"}}