{"cas_no": "50816-18-7", "cn_name": "9-\u7678\u70ef-1-\u9187\u4e59\u9178\u916f", "en_name": ["9-Decenyl acetate", "9-Decen-1-ol, 1-acetate", "9-Decen-1-ol, acetate", "9-Decenyl acetate", "1-Acetoxy-9-decene", "9-Decen-1-yl acetate", "10-Acetoxy-1-decene"], "SMILES": "C(CCCCCCC=C)COC(C)=O", "physical_data": {"Molecular Weight": "198.30", "Molecular Formula": "C12H22O2", "Boiling Point": "50-51 \u00b0C @ Press: 0.01 Torr"}}