{"cas_no": "5081-36-7", "cn_name": "3-\u7532\u6c27\u57fa-4-\u785d\u57fa\u82ef\u7532\u9178", "en_name": ["3-Methoxy-4-nitrobenzoic acid", "Benzoic acid, 3-methoxy-4-nitro-", "m-Anisic acid, 4-nitro-", "3-Methoxy-4-nitrobenzoic acid", "NSC 148471", "4-Nitro-3-methoxybenzoic acid"], "SMILES": "O(C)C1=C(N(=O)=O)C=CC(C(O)=O)=C1", "physical_data": {"Molecular Weight": "197.14", "Molecular Formula": "C8H7NO5", "Melting Point": "229-230 \u00b0C"}}