{"cas_no": "5081-51-6", "cn_name": "VASICINOL", "en_name": ["(+)-Vasicinol", "Pyrrolo[2,1-b]quinazoline-3,7-diol, 1,2,3,9-tetrahydro-, (3S)-", "Vasicinol", "Pyrrolo[2,1-b]quinazoline-3,7-diol, 1,2,3,9-tetrahydro-, (S)-", "(3S)-1,2,3,9-Tetrahydropyrrolo[2,1-b]quinazoline-3,7-diol", "(+)-6-Hydroxypeganine", "(+)-Vasicinol", "6-Hydroxyvasicine", "6-Hydroxypeganine", "(3S)-1H,2H,3H,9H-Pyrrolo[2,1-b]quinazoline-3,7-diol"], "SMILES": "OC1C=2N(CC=3C(N2)=CC=C(O)C3)CC1", "physical_data": {"Molecular Weight": "204.23", "Molecular Formula": "C11H12N2O2", "Melting Point": "260 \u00b0C"}}