{"cas_no": "50816-20-1", "cn_name": "1-\u6eb4-8-(\u56db\u6c22\u5421\u5583\u6c27\u57fa)\u8f9b\u70f7, TECH", "en_name": ["2-[(8-Bromooctyl)oxy]tetrahydro-2H-pyran", "2H-Pyran, 2-[(8-bromooctyl)oxy]tetrahydro-", "2-[(8-Bromooctyl)oxy]tetrahydro-2H-pyran", "2-[(8-Bromooctyl)oxy]tetrahydropyran", "8-Bromo-1-[(tetrahydropyran-2-yl)oxy]octane", "8-(Tetrahydropyranyloxy)octyl bromide", "1-(2-Tetrahydropyranyloxy)-8-bromooctane", "1-Bromo-8-(tetrahydro-2-pyranyloxy)octane", "8-Bromo-1-octanol tetrahydropyranyl ether", "2-(8-Bromooctoxy)oxane"], "SMILES": "O(CCCCCCCCBr)C1CCCCO1", "physical_data": {"Molecular Weight": "293.24", "Molecular Formula": "C13H25BrO2", "Boiling Point": "105-107 \u00b0C @ Press: 0.1 Torr"}}