{"cas_no": "5081-42-5", "cn_name": "2-\u785d\u57fa-3,4,5-\u4e09\u7532\u6c27\u57fa\u82ef\u7532\u9178\u7532\u916f", "en_name": ["Benzoic acid, 3,4,5-trimethoxy-2-nitro-, methyl ester", "Benzoic acid, 3,4,5-trimethoxy-2-nitro-, methyl ester", "Methyl 3,4,5-trimethoxy-2-nitrobenzoate", "2-Nitro-3,4,5-trimethoxybenzoic acid methyl ester", "NSC 20282", "Methyl 2-nitro-3,4,5-trimethoxybenzoate", "3,4,5-Trimethoxy-2-nitrobenzoic acid methyl ester", "3,4,5-Trimethoxy-2-nitro-benzoic acid methyl ester"], "SMILES": "N(=O)(=O)C1=C(OC)C(OC)=C(OC)C=C1C(OC)=O", "physical_data": {"Molecular Weight": "271.22", "Molecular Formula": "C11H13NO7", "Melting Point": "67 \u00b0C"}}