{"cas_no": "5081-87-8", "cn_name": "3-(2-\u6c2f\u4e59\u57fa)-2,4(1H,3H)-\u55b9\u5511\u5549\u4e8c\u916e", "en_name": ["3-(2-Chloroethyl)-2,4(1H,3H)-quinazolinedione", "2,4(1H,3H)-Quinazolinedione, 3-(2-chloroethyl)-", "4(3H)-Quinazolinone, 3-(2-chloroethyl)-2-hydroxy-", "3-(2-Chloroethyl)-2,4(1H,3H)-quinazolinedione"], "SMILES": "O=C1C=2C(NC(=O)N1CCCl)=CC=CC2", "physical_data": {"Molecular Weight": "224.64", "Molecular Formula": "C10H9ClN2O2", "Melting Point": "195.5-196.0 \u00b0C"}}