{"cas_no": "50816-19-8", "cn_name": "8-\u6eb4-1-\u8f9b\u9187", "en_name": ["8-Bromo-1-octanol", "1-Octanol, 8-bromo-", "8-Bromo-1-octanol", "8-Bromooctanol", "8-Hydroxy-1-bromooctane"], "SMILES": "C(CCCCO)CCCBr", "physical_data": {"Molecular Weight": "209.12", "Molecular Formula": "C8H17BrO", "Boiling Point": "126-128 \u00b0C @ Press: 3.999 Torr", "Density": "1.1246 g/cm\u00b3 @ Temp: 25 \u00b0C"}}