{"cas_no": "508233-74-7", "cn_name": "\u6c83\u66ff\u897f\u6c40", "en_name": ["Vortioxetine", "Piperazine, 1-[2-[(2,4-dimethylphenyl)thio]phenyl]-", "1-[2-[(2,4-Dimethylphenyl)thio]phenyl]piperazine", "Vortioxetine", "Lu AA 21004", "1-[2-(2,4-Dimethylphenylsulfanyl)phenyl]piperazine", "Brintellix", "Trintellix"], "SMILES": "S(C1=C(C=CC=C1)N2CCNCC2)C3=C(C)C=C(C)C=C3", "physical_data": {"Molecular Weight": "298.45", "Molecular Formula": "C18H22N2S", "Melting Point": "100 \u00b0C"}}