{"cas_no": "50824-05-0", "cn_name": "4-\u4e09\u6c1f\u7532\u6c27\u57fa\u6eb4\u82c4", "en_name": ["4-Trifluoromethoxybenzyl bromide", "Benzene, 1-(bromomethyl)-4-(trifluoromethoxy)-", "1-(Bromomethyl)-4-(trifluoromethoxy)benzene", "4-Trifluoromethoxybenzyl bromide", "p-Trifluoromethoxybenzyl bromide", "4-(Bromomethyl)phenyl trifluoromethyl ether", "4-(Trifluoromethoxy)-1-(bromomethyl)-benzene", "2-(Bromomethyl)-5-(trifluoromethoxy)benzene"], "SMILES": "O(C(F)(F)F)C1=CC=C(CBr)C=C1", "physical_data": {"Molecular Weight": "255.03", "Molecular Formula": "C8H6BrF3O", "Boiling Point": "78-79 \u00b0C @ Press: 9 Torr", "Melting Point": "23-24 \u00b0C"}}