{"cas_no": "50820-65-0", "cn_name": "\u5432\u54da-6-\u7532\u9178\u7532\u916f", "en_name": ["Indole-6-carboxylic acid methyl ester", "1H-Indole-6-carboxylic acid, methyl ester", "Methyl 6-indolecarboxylate", "Methyl 1H-indole-6-carboxylate", "6-Methoxycarbonylindole", "Indole-6-carboxylic acid methyl ester"], "SMILES": "C(OC)(=O)C=1C=C2C(=CC1)C=CN2", "physical_data": {"Molecular Weight": "175.18", "Molecular Formula": "C10H9NO2", "Melting Point": "78-79 \u00b0C"}}