{"cas_no": "50847-11-5", "cn_name": "\u5f02\u4e01\u53f8\u7279", "en_name": ["Ibudilast", "1-Propanone, 2-methyl-1-[2-(1-methylethyl)pyrazolo[1,5-a]pyridin-3-yl]-", "Pyrazolo[1,5-a]pyridine, 1-propanone deriv.", "2-Methyl-1-[2-(1-methylethyl)pyrazolo[1,5-a]pyridin-3-yl]-1-propanone", "2-Isopropyl-3-isobutyrylpyrazolo[1,5-a]pyridine", "KC 404", "Ibudilast", "Ketas", "3-Isobutyryl-2-isopropylpyrazolo[1,5-a]pyridine", "1-(2-Isopropylpyrazolo[1,5-a]pyridin-3-yl)-2-methylpropan-1-one", "AV 411", "Pinatos", "2-Methyl-1-(2-propan-2-ylpyrazolo[1,5-a]pyridin-3-yl)propan-1-one", "MN-166", "MN 166"], "SMILES": "C(C(C)C)(=O)C1=C2N(N=C1C(C)C)C=CC=C2", "physical_data": {"Molecular Weight": "230.31", "Molecular Formula": "C14H18N2O", "Melting Point": "53.5-54 \u00b0C"}}