{"cas_no": "50850-93-6", "cn_name": "2-\u6c28\u57fa\u82ef\u5e76\u567b\u5511-6-\u7fa7\u9178\u4e59\u916f", "en_name": ["6-Benzothiazolecarboxylic acid, 2-amino-, ethyl ester", "6-Benzothiazolecarboxylic acid, 2-amino-, ethyl ester", "2-Amino-6-carbethoxybenzothiazole", "Ethyl 2-aminobenzothiazole-6-carboxylate", "2-Amino-1,3-benzothiazole-6-carboxylic acid ethyl ester", "2-Aminobenzothiazole-6-carboxylic acid ethyl ester", "Ethyl 2-aminobenzo[d]thiazole-6-carboxylate", "2-Amino-6-ethoxycarbonylbenzothiazole"], "SMILES": "C(OCC)(=O)C=1C=C2C(N=C(N)S2)=CC1", "physical_data": {"Molecular Weight": "222.26", "Molecular Formula": "C10H10N2O2S", "Melting Point": "241 \u00b0C"}}