{"cas_no": "5086-74-8", "cn_name": "\u76d0\u9178\u56db\u54aa\u5511", "en_name": ["Tetramisole hydrochloride", "Imidazo[2,1-b]thiazole, 2,3,5,6-tetrahydro-6-phenyl-, hydrochloride (1:1)", "Imidazo[2,1-b]thiazole, 2,3,5,6-tetrahydro-6-phenyl-, monohydrochloride, (\u00b1)-", "Imidazo[2,1-b]thiazole, 2,3,5,6-tetrahydro-6-phenyl-, monohydrochloride", "McN JR 8299", "R 8299", "Ripercol", "Tetramisole hydrochloride", "(\u00b1)-Tetramisole hydrochloride", "Nilverm", "(\u00b1)-6-Phenyl-2,3,5,6-tetrahydroimidazo[2,1-b]thiazole hydrochloride", "Nilverom", "DL-Tetramisole hydrochloride", "Anthelvet", "Citarin", "Concurat", "Verminject", "Curaminth", "Tetraamisol hydrochloride", "RP 16535", "2,3,5,6-Tetrahydro-6-phenylimidazo[2,1-b]thiazole hydrochloride", "NSC 170985", "NSC 215179"], "SMILES": "C1(CN2C(=N1)SCC2)C3=CC=CC=C3.Cl", "physical_data": {"Molecular Weight": "", "Molecular Formula": "C11H12N2S.ClH", "Melting Point": "264-266 \u00b0C"}}