{"cas_no": "50868-72-9", "cn_name": "5-\u7532\u6c27\u57fa-2-\u7532\u57fa\u82ef\u80fa", "en_name": ["5-Methoxy-2-methylaniline", "Benzenamine, 5-methoxy-2-methyl-", "5-Methoxy-2-methylbenzenamine", "5-Methoxy-2-methylaniline", "2-Methyl-5-methoxyaniline", "3-Amino-4-methylanisole", "3-Methoxy-6-methylaniline", "NSC 229308"], "SMILES": "O(C)C1=CC(N)=C(C)C=C1", "physical_data": {"Molecular Weight": "137.18", "Molecular Formula": "C8H11NO", "Boiling Point": "253 \u00b0C", "Melting Point": "47 \u00b0C"}}