{"cas_no": "50868-73-0", "cn_name": "2-\u7532\u6c27\u57fa-6-\u7532\u57fa\u82ef\u80fa", "en_name": ["2-Methoxy-6-methylaniline", "Benzenamine, 2-methoxy-6-methyl-", "o-Anisidine, 6-methyl-", "2-Methoxy-6-methylbenzenamine", "2-Methyl-6-methoxyaniline", "2-Methoxy-6-methylaniline", "2-Methoxy-6-methylphenylamine"], "SMILES": "O(C)C1=C(N)C(C)=CC=C1", "physical_data": {"Molecular Weight": "137.18", "Molecular Formula": "C8H11NO", "Boiling Point": "96 \u00b0C @ Press: 4 Torr"}}