{"cas_no": "50889-29-7", "cn_name": "5-\u7fa7\u57fa\u620a\u57fa-\u4e09\u82ef\u57fa\u6eb4\u5316\u78f7", "en_name": ["Phosphonium, (5-carboxypentyl)triphenyl-, bromide (1:1)", "Phosphonium, (5-carboxypentyl)triphenyl-, bromide (1:1)", "Phosphonium, (5-carboxypentyl)triphenyl-, bromide", "(5-Carboxypentyl)triphenylphosphonium bromide"], "SMILES": "[P+](CCCCCC(O)=O)(C1=CC=CC=C1)(C2=CC=CC=C2)C3=CC=CC=C3.[Br-]", "physical_data": {"Molecular Weight": "", "Molecular Formula": "C24H26O2P.Br", "Melting Point": "195-197 \u00b0C"}}