{"cas_no": "50887-69-9", "cn_name": "\u4e73\u6e05\u9178", "en_name": ["4-Pyrimidinecarboxylic acid, 1,2,3,6-tetrahydro-2,6-dioxo-, hydrate (1:1)", "4-Pyrimidinecarboxylic acid, 1,2,3,6-tetrahydro-2,6-dioxo-, hydrate (1:1)", "4-Pyrimidinecarboxylic acid, 1,2,3,6-tetrahydro-2,6-dioxo-, monohydrate", "Orotic acid monohydrate", "2,6-Dioxo-1,2,3,6-tetrahydropyrimidine-4-carboxylic acid hydrate", "2,6-Dioxo-1,2,3,6-tetrahydro-4-pyrimidinecarboxylic acid hydrate", "Lactoserum"], "SMILES": "C(O)(=O)C1=CC(=O)NC(=O)N1.O", "physical_data": {"Molecular Weight": "", "Molecular Formula": "C5H4N2O4.H2O", "Melting Point": "334 \u00b0C"}}