{"cas_no": "5089-70-3", "cn_name": "3-\u6c2f\u4e19\u57fa\u4e09\u4e59\u6c27\u57fa\u7845\u70f7", "en_name": ["(3-Chloropropyl)triethoxysilane", "Silane, (3-chloropropyl)triethoxy-", "(3-Chloropropyl)triethoxysilane", "Triethoxy(\u03b3-chloropropyl)silane", "(\u03b3-Chloropropyl)triethoxysilane", "Si 230", "3-(Triethoxysilyl)propyl chloride", "Si 223", "3-(Triethoxysilyl)-1-chloropropane", "NSC 252156", "KH 230", "Dynasylan CPTEO", "DB 230", "3-Chloropropropyltriethoxysilane", "Z 6376", "KBE 703"], "SMILES": "[Si](CCCCl)(OCC)(OCC)OCC", "physical_data": {"Molecular Weight": "240.80", "Molecular Formula": "C9H21ClO3Si", "Boiling Point": "100-102 \u00b0C @ Press: 10 Torr", "Density": "1.009 g/cm\u00b3"}}