{"cas_no": "50892-62-1", "cn_name": "8-\u6c2f-5,10-\u4e8c\u6c22-11H-\u4e8c\u82ef\u5e76[b,e][1,4]\u4e8c\u6c2e\u6742\u5353-11-\u916e", "en_name": ["8-Chloro-5,10-dihydro-11H-dibenzo[b,e][1,4]diazepin-11-one", "11H-Dibenzo[b,e][1,4]diazepin-11-one, 8-chloro-5,10-dihydro-", "8-Chloro-5,10-dihydro-11H-dibenzo[b,e][1,4]diazepin-11-one", "8-Chloro-5,10-dihydrodibenzo[b,e][1,4]diazepin-11-one", "8-Chloro-5H-dibenzo[b,e][1,4]diazepin-11(10H)-one"], "SMILES": "O=C1C=2C(NC=3C(N1)=CC(Cl)=CC3)=CC=CC2", "physical_data": {"Molecular Weight": "244.68", "Molecular Formula": "C13H9ClN2O", "Melting Point": "165 \u00b0C"}}