{"cas_no": "50892-23-4", "cn_name": "\u5339\u7acb\u5c3c\u9178", "en_name": ["Pirinixic acid", "Acetic acid, 2-[[4-chloro-6-[(2,3-dimethylphenyl)amino]-2-pyrimidinyl]thio]-", "Acetic acid, [[4-chloro-6-[(2,3-dimethylphenyl)amino]-2-pyrimidinyl]thio]-", "2-[[4-Chloro-6-[(2,3-dimethylphenyl)amino]-2-pyrimidinyl]thio]acetic acid", "Wy 14643", "[4-Chloro-6-(2,3-xylidino)-2-pyrimidinylthio]acetic acid", "Pirinixic acid", "Pirnixic acid", "NSC 310038", "2-[4-Chloro-6-(2,3-dimethylanilino)pyrimidin-2-yl]sulfanylacetic acid"], "SMILES": "N(C1=NC(SCC(O)=O)=NC(Cl)=C1)C2=C(C)C(C)=CC=C2", "physical_data": {"Molecular Weight": "323.80", "Molecular Formula": "C14H14ClN3O2S", "Melting Point": "151-153 \u00b0C"}}