{"cas_no": "5089-22-5", "cn_name": "\u8367\u5149\u589e\u767d\u5242 367", "en_name": ["1,4-Bis(2-benzoxazolyl)naphthalene", "Benzoxazole, 2,2\u2032-(1,4-naphthalenediyl)bis-", "Benzoxazole, 2,2\u2032-(1,4-naphthylene)bis-", "2,2\u2032-(1,4-Naphthalenediyl)bis[benzoxazole]", "1,4-Bis(2-benzoxazolyl)naphthalene", "1,4-Di(2-benzoxazolyl)naphthalene", "Hostalux KCB", "KCB", "Fluorescent brightener KCB", "2-[4-(1,3-Benzoxazol-2-yl)naphthalen-1-yl]-1,3-benzoxazole", "Fluorescent brightener 367"], "SMILES": "C=1(C2=C(C(=CC1)C3=NC=4C(O3)=CC=CC4)C=CC=C2)C5=NC=6C(O5)=CC=CC6", "physical_data": {"Molecular Weight": "362.38", "Molecular Formula": "C24H14N2O2", "Melting Point": "212-213 \u00b0C"}}