{"cas_no": "50890-96-5", "cn_name": "MOC-D-\u82ef\u7518\u80fa\u9178", "en_name": ["(\u03b1R)-\u03b1-[(Methoxycarbonyl)amino]benzeneacetic acid", "Benzeneacetic acid, \u03b1-[(methoxycarbonyl)amino]-, (\u03b1R)-", "Benzeneacetic acid, \u03b1-[(methoxycarbonyl)amino]-, (R)-", "(\u03b1R)-\u03b1-[(Methoxycarbonyl)amino]benzeneacetic acid", "N-Methoxycarbonyl-D-phenylglycine", "(R)-2-(Methoxycarbonylamino)-2-phenylacetic acid", "(R)-2-((Methoxycarbonyl)amino)-2-phenylacetic acid", "(R)-2-(Methoxycarbonylamino)-2-phenylethanoic acid", "(2R)-2-(Methoxycarbonylamino)-2-phenylacetic acid"], "SMILES": "C(NC(OC)=O)(C(O)=O)C1=CC=CC=C1", "physical_data": {"Molecular Weight": "209.20", "Molecular Formula": "C10H11NO4", "Melting Point": "190.1-192.3 \u00b0C"}}