{"cas_no": "5089-28-1", "cn_name": "1,8-\u4e8c(\u4e8c\u7532\u57fa\u6c2f\u7845\u70f7)\u8f9b\u70f7", "en_name": ["1,1\u2032-(1,8-Octanediyl)bis[1-chloro-1,1-dimethylsilane]", "Silane, 1,1\u2032-(1,8-octanediyl)bis[1-chloro-1,1-dimethyl-", "2,11-Disiladodecane, 2,11-dichloro-2,11-dimethyl-", "Silane, 1,8-octanediylbis[chlorodimethyl-", "1,1\u2032-(1,8-Octanediyl)bis[1-chloro-1,1-dimethylsilane]", "1,8-Di(chlorodimethylsilyl)octane", "1,8-Bis(chlorodimethylsilyl)octane"], "SMILES": "C([Si](C)(C)Cl)CCCCCCC[Si](C)(C)Cl", "physical_data": {"Molecular Weight": "299.43", "Molecular Formula": "C12H28Cl2Si2", "Boiling Point": "106-107 \u00b0C @ Press: 0.4 Torr", "Density": "0.946 g/cm\u00b3"}}