{"cas_no": "50893-53-3", "cn_name": "1-\u6c2f\u4e59\u57fa\u6c2f\u7532\u9178\u916f", "en_name": ["1-Chloroethyl chloroformate", "Carbonochloridic acid, 1-chloroethyl ester", "1-Chloroethyl chloroformate", "\u03b1-Chloroethyl chloroformate", "1-Chloroethyl carbonochloridate", "\u03b1-Chloroethoxycarbonyl chloride", "Chloroformic acid 1-chloroethyl ester", "1-Chlorocarbonyloxy-1-chloroethane", "Chloro(1-chloroethoxy)methanone"], "SMILES": "O(C(C)Cl)C(Cl)=O", "physical_data": {"Molecular Weight": "142.97", "Molecular Formula": "C3H4Cl2O2", "Boiling Point": "118-119 \u00b0C @ Press: 760 Torr", "Melting Point": "55-56 \u00b0C"}}