{"cas_no": "5089-72-5", "cn_name": "N-\u6c28\u4e59\u57fa-3-\u6c28\u4e19\u57fa\u4e09\u4e59\u6c27\u57fa\u7845\u70f7", "en_name": ["N-(\u03b2-Aminoethyl)-\u03b3-aminopropyltriethoxysilane", "1,2-Ethanediamine, N1-[3-(triethoxysilyl)propyl]-", "Ethylenediamine, N-[3-(triethoxysilyl)propyl]-", "1,2-Ethanediamine, N-[3-(triethoxysilyl)propyl]-", "N1-[3-(Triethoxysilyl)propyl]-1,2-ethanediamine", "N-(\u03b2-Aminoethyl)-\u03b3-aminopropyltriethoxysilane", "(\u03b3-Ethylenediaminepropyl)triethoxysilane", "N-[3-(Triethoxysilyl)propyl]ethylenediamine", "[3-[(2-Aminoethyl)amino]propyl]triethoxysilane", "GF 90", "N-(2-Aminoethyl)-3-aminopropyltriethoxysilane", "\u03b3-(2-Aminoethyl)aminopropyltriethoxysilane", "3-(Triethoxysilylpropyl)ethylenediamine", "3-(2-Aminoethylamine)propyltriethoxysilane", "KBE 603", "WD 52", "GF 90 (amine)", "Silquest Y 11763", "YDH 791", "N-(\u03b2-Aminoethyl)-3-aminopropyltriethoxysilane", "SH 6026", "TM 552", "Geniosil GF 94", "[\u03b3-(Aminoethylamino)propyl]triethoxysilane", "KH 793", "TPEDA", "N1-[3-(Triethoxysilyl)propyl]ethane-1,2-diamine", "\u03b3-(\u03b2-Aminoethyl)aminopropyltriethoxysilane", "SIA 0590.5", "DB 793", "N-(2-Aminoethyl)-\u03b3-aminopropyltriethoxysilane", "N-(\u03b2-Aminoethyl)aminopropyltriethoxysilane", "KH 791", "2-Aminoethyl-3-aminopropyl triethoxysilane", "N-Aminoethyl-\u03b3-aminopropyl triethoxysilane", "N-Aminoethyl-3-aminopropyl triethoxy silane", "(Ethylenediaminepropyl)triethoxysilane", "3-(Ethylenediamino)propyltriethoxysilane", "N-(2-Amionethyl)-3-aminopropyltriethoxysilane"], "SMILES": "[Si](CCCNCCN)(OCC)(OCC)OCC", "physical_data": {"Molecular Weight": "264.44", "Molecular Formula": "C11H28N2O3Si", "Boiling Point": "156 \u00b0C @ Press: 15 Torr", "Density": "0.994 g/cm\u00b3"}}