{"cas_no": "509-14-8", "cn_name": "\u56db\u785d\u57fa\u7532\u70f7", "en_name": ["Tetranitromethane", "Methane, tetranitro-", "Tetranitromethane", "TNM", "NSC 16146", "MeSH ID: D013774"], "SMILES": "C(N(=O)=O)(N(=O)=O)(N(=O)=O)N(=O)=O", "physical_data": {"Molecular Weight": "196.03", "Molecular Formula": "CN4O8", "Boiling Point": "0 \u00b0C @ Press: 1.9 Torr", "Melting Point": "13.8 \u00b0C", "Density": "1.6229 g/cm\u00b3 @ Temp: 20 \u00b0C"}}