{"cas_no": "509-80-8", "cn_name": "\u5e3d\u67f1\u6728\u83f2\u78b1", "en_name": ["Mitraphylline", "Spiro[3H-indole-3,6\u2032(4\u2032aH)-[1H]pyrano[3,4-f]indolizine]-4\u2032-carboxylic acid, 1,2,5\u2032,5\u2032a,7\u2032,8\u2032,10\u2032,10\u2032a-octahydro-1\u2032-methyl-2-oxo-, methyl ester, (1\u2032S,3R,4\u2032aS,5\u2032aS,10\u2032aR)-", "Mitraphylline", "Formosanan-16-carboxylic acid, 19-methyl-2-oxo-, methyl ester, (19\u03b1)-", "Rubradinine", "Rubradinin", "Mitraphyllin", "Ajmalicine oxindole B", "Spiro[3H-indole-3,6\u2032(4\u2032aH)-[1H]pyrano[3,4-f]indolizine]-4\u2032-carboxylic acid, 1,2,5\u2032,5\u2032a,7\u2032,8\u2032,10\u2032,10\u2032a-octahydro-1\u2032-methyl-2-oxo-, methyl ester, [1\u2032S-(1\u2032\u03b1,4\u2032a\u03b1,5\u2032a\u03b1,6\u2032\u03b2,10\u2032a\u03b2)]-"], "SMILES": "O=C1C2(C3N(CC2)CC4C(C3)C(C(OC)=O)=COC4C)C=5C(N1)=CC=CC5", "physical_data": {"Molecular Weight": "368.43", "Molecular Formula": "C21H24N2O4", "Melting Point": "258-267 \u00b0C"}}