{"cas_no": "509-20-6", "cn_name": "\u4e4c\u5934\u539f\u78b1", "en_name": ["Aconine", "Aconitane-3,8,13,14,15-pentol, 20-ethyl-1,6,16-trimethoxy-4-(methoxymethyl)-, (1\u03b1,3\u03b1,6\u03b1,14\u03b1,15\u03b1,16\u03b2)-", "Aconine", "11aH-12,3,6a-Ethanylylidene-7,9-methanonaphth[2,3-b]azocine, aconitane-3,8,13,14,15-pentol deriv.", "(1\u03b1,3\u03b1,6\u03b1,14\u03b1,15\u03b1,16\u03b2)-20-Ethyl-1,6,16-trimethoxy-4-(methoxymethyl)aconitane-3,8,13,14,15-pentol", "Jesaconine"], "SMILES": "O(C)C1C23C4C(COC)(CN(CC)C2C(C4OC)C5(O)C6C3CC(O)(C6O)C(OC)C5O)C(O)C1", "physical_data": {"Molecular Weight": "499.59", "Molecular Formula": "C25H41NO9", "Melting Point": "132 \u00b0C"}}