{"cas_no": "509-34-2", "cn_name": "\u6eb6\u5242\u7ea2 49", "en_name": ["Solvent Red 49", "Spiro[isobenzofuran-1(3H),9\u2032-[9H]xanthen]-3-one, 3\u2032,6\u2032-bis(diethylamino)-", "Fluoran, 3\u2032,6\u2032-bis(diethylamino)-", "C.I. Solvent Red 49", "3\u2032,6\u2032-Bis(diethylamino)spiro[isobenzofuran-1(3H),9\u2032-[9H]xanthen]-3-one", "Rhodamine B lactone", "Rhodamine B base", "Aizen Rhodamine B Base", "Certiqual Rhodamine", "Eljon Magenta Toner", "Fast Oil Pink B", "Lacquer Pink S", "Rhodamine B Extra Base", "Waxoline Rhodamine B", "Waxoline Rhodamine BS", "Rhodamine Base B Extra", "Solvent Red 49", "Rhodamine B Base Extra", "Rhodamine S lactone", "3\u2032,6\u2032-Bis(diethylamino)-3-oxospiro[isobenzofuran-1(3H),9\u2032-[9H]xanthene]", "Oil Pink 312", "Orient Oil Pink 312", "Rhodamine S (Russian), lactone", "Rhodamine Base FB", "Baso Red 546", "Neptune Red Base 543", "Baso Red NB 546", "Aizen SOT Pink 1", "Rhodamine Base B", "Oil Pink 330", "Orient Pink 312", "NSC 43944", "Neptune Red Base NB 543LD", "Oil Red 312", "Orient Oil Red 312", "Vali Fast Pink 2312", "3\u2032,6\u2032-Bis(diethylamino)spiro[2-benzofuran-3,9\u2032-xanthene]-1-one"], "SMILES": "O=C1OC2(C=3C(OC=4C2=CC=C(N(CC)CC)C4)=CC(N(CC)CC)=CC3)C=5C1=CC=CC5", "physical_data": {"Molecular Weight": "442.55", "Molecular Formula": "C28H30N2O3", "Melting Point": "73-75 \u00b0C"}}