{"cas_no": "509-18-2", "cn_name": "\u786c\u98de\u71d5\u8349\u78b1", "en_name": ["Delsoline", "Aconitane-1,7,8-triol, 20-ethyl-6,14,16-trimethoxy-4-(methoxymethyl)-, (1\u03b1,6\u03b2,14\u03b1,16\u03b2)-", "Delsoline", "2H-12,3,6a-Ethanylylidene-7,9-methanonaphth[2,3-b]azocine, aconitane-1,7,8-triol deriv.", "(1\u03b1,6\u03b2,14\u03b1,16\u03b2)-20-Ethyl-6,14,16-trimethoxy-4-(methoxymethyl)aconitane-1,7,8-triol", "Acomonine", "18-O-Methylgigactonine"], "SMILES": "OC1C23C4C(COC)(CN(CC)C2C(O)(C4OC)C5(O)C6C3CC(C6OC)C(OC)C5)CC1", "physical_data": {"Molecular Weight": "467.60", "Molecular Formula": "C25H41NO7", "Melting Point": "214 \u00b0C"}}