{"cas_no": "509-09-1", "cn_name": "\u4e94\u6c1f\u4e19\u9178\u94f6", "en_name": ["Silver pentafluoropropionate", "Propanoic acid, 2,2,3,3,3-pentafluoro-, silver(1+) salt (1:1)", "Propionic acid, pentafluoro-, silver(1+) salt", "Propanoic acid, pentafluoro-, silver(1+) salt", "Silver pentafluoropropionate", "Silver perfluoropropanoate", "Silver perfluoropropionate", "Silver(I) pentafluoropropanoate", "Silver(1+) pentafluoropropanoate", "Silver(I) pentafluoropropionate", "Silver(1+) perfluoropropionate", "Silver(I) perfluoropropanoate", "Silver pentafluoropropanoate"], "SMILES": "C(C(F)(F)F)(C(O)=O)(F)F.[Ag]", "physical_data": {"Molecular Weight": "", "Molecular Formula": "C3HF5O2.Ag", "Melting Point": "242-244 \u00b0C"}}