{"cas_no": "509-15-9", "cn_name": "\u94a9\u543b\u78b1", "en_name": ["(+)-Gelsemine", "Spiro[3,5,8-ethanylylidene-1H-pyrano[3,4-c]pyridine-10,3\u2032-[3H]indol]-2\u2032(1\u2032H)-one, 5-ethenyl-3,4,4a,5,6,7,8,8a-octahydro-7-methyl-, (3R,3\u2032S,4aR,5S,8S,8aS,9S)-", "Gelsemine", "(3R,3\u2032S,4aR,5S,8S,8aS,9S)-5-Ethenyl-3,4,4a,5,6,7,8,8a-octahydro-7-methylspiro[3,5,8-ethanylylidene-1H-pyrano[3,4-c]pyridine-10,3\u2032-[3H]indol]-2\u2032(1\u2032H)-one", "[3R-(3\u03b1,4a\u03b2,5\u03b1,8\u03b1,8a\u03b2,9S*,10S*)]-5-Ethenyl-3,4,4a,5,6,7,8,8a-octahydro-7-methylspiro[3,5,8-ethanylylidene-1H-pyrano[3,4-c]pyridine-10,3\u2032-[3H]indol]-2\u2032(1\u2032H)-one", "(+)-Gelsemine", "NSC 21729"], "SMILES": "O=C1C2(C3C4(C=C)C5CC2OCC5C3N(C)C4)C=6C(N1)=CC=CC6", "physical_data": {"Molecular Weight": "322.40", "Molecular Formula": "C20H22N2O2", "Melting Point": "178 \u00b0C"}}