{"cas_no": "50906-77-9", "cn_name": "3,3' - \u4e8c\u786b\u4ee3\u53cc(\u4e19\u9170\u80bc)", "en_name": ["3,3\u2032-Dithiobis[propanoic acid] 1,1\u2032-dihydrazide", "Propanoic acid, 3,3\u2032-dithiobis-, 1,1\u2032-dihydrazide", "Propanoic acid, 3,3\u2032-dithiobis-, dihydrazide", "3,3\u2032-Dithiobis[propanoic acid] 1,1\u2032-dihydrazide", "Dithiodipropionic acid dihydrazide", "3,3\u2032-Dithiobis(propanoic dihydrazide)", "3,3\u2032-Dithiobis(propionic hydrazide)", "3,3\u2032-Dithiodipropionic acid dihydrazide", "Dithiopropionate dihydrazide"], "SMILES": "C(CCSSCCC(NN)=O)(NN)=O", "physical_data": {"Molecular Weight": "238.33", "Molecular Formula": "C6H14N4O2S2", "Melting Point": "128 \u00b0C"}}