{"cas_no": "509088-69-1", "cn_name": "2-\u6c28\u57fa-2-[2-[2-\u6c2f-4-[[3-(\u82c4\u6c27\u57fa)\u82ef\u57fa]\u786b]\u82ef\u57fa]\u4e59\u57fa]-1,3-\u4e19\u4e8c\u9187\u76d0\u9178\u76d0", "en_name": ["1,3-Propanediol, 2-amino-2-[2-[2-chloro-4-[[3-(phenylmethoxy)phenyl]thio]phenyl]ethyl]-, hydrochloride (1:1)", "1,3-Propanediol, 2-amino-2-[2-[2-chloro-4-[[3-(phenylmethoxy)phenyl]thio]phenyl]ethyl]-, hydrochloride (1:1)", "1,3-Propanediol, 2-amino-2-[2-[2-chloro-4-[[3-(phenylmethoxy)phenyl]thio]phenyl]ethyl]-, hydrochloride", "KRP 203", "2-Amino-2-(4-((3-(benzyloxy)phenyl)thio)-2-chlorophenethyl)propane-1,3-diol hydrochloride", "2-Amino-2-(4-((3-(benzyloxy)phenyl)thio)-2-chloro-phenethyl)propane-1,3-diol hydrochloride", "Mocravimod hydrochloride"], "SMILES": "C(CC(CO)(CO)N)C1=C(Cl)C=C(SC2=CC(OCC3=CC=CC=C3)=CC=C2)C=C1.Cl", "physical_data": {"Molecular Weight": "", "Molecular Formula": "C24H26ClNO3S.ClH", "Melting Point": "199-200 \u00b0C (decomp)"}}