{"cas_no": "50907-23-8", "cn_name": "5-(4-\u6eb4\u82ef\u57fa)-1H-\u56db\u5511", "en_name": ["5-(4-Bromophenyl)-2H-tetrazole", "2H-Tetrazole, 5-(4-bromophenyl)-", "1H-Tetrazole, 5-(4-bromophenyl)-", "Tetrazole, 5-(p-bromophenyl)-", "5-(4-Bromophenyl)-2H-tetrazole", "5-(p-Bromophenyl)-1H-tetrazole", "5-(p-Bromophenyl)tetrazole", "5-(4-Bromophenyl)-1H-tetrazole", "5-(4-Bromophenyl)tetrazole", "5-Bromo-2-(tetrazol-5-yl)benzene", "5-(4\u2032-Bromophenyl)tetrazole", "5-(4\u2032-Bromophenyl)-1H-tetrazole", "5-(4-Bromophenyl)-1H-1,2,3,4-tetrazole"], "SMILES": "BrC1=CC=C(C=C1)C=2NN=NN2", "physical_data": {"Molecular Weight": "225.05", "Molecular Formula": "C7H5BrN4", "Melting Point": "260.6-261.0 \u00b0C"}}