{"cas_no": "50919-08-9", "cn_name": "1-(3,4-\u4e8c\u7532\u6c27\u57fa\u82ef)\u4e59\u80fa 1HCL", "en_name": ["3,4-Dimethoxy-\u03b1-methylbenzenemethanamine", "Benzenemethanamine, 3,4-dimethoxy-\u03b1-methyl-", "Veratrylamine, \u03b1-methyl-", "3,4-Dimethoxy-\u03b1-methylbenzenemethanamine", "1-Amino-1-(3,4-dimethoxyphenyl)ethane", "\u03b1-Methylveratrylamine", "(\u00b1)-1-(3,4-Dimethoxyphenyl)ethylamine", "1-(3,4-Dimethoxyphenyl)ethanamine", "1-(3,4-Dimethoxyphenyl)ethylamine", "1-(3,4-Dimethoxyphenyl)ethan-1-amine"], "SMILES": "O(C)C1=C(OC)C=CC(C(C)N)=C1", "physical_data": {"Molecular Weight": "181.23", "Molecular Formula": "C10H15NO2", "Boiling Point": "120-125 \u00b0C @ Press: 5 Torr"}}