{"cas_no": "50910-55-9", "cn_name": "2-\u6c28\u57fa-3,5-\u4e8c\u6eb4\u82ef\u7532\u919b", "en_name": ["2-Amino-3,5-dibromobenzaldehyde", "Benzaldehyde, 2-amino-3,5-dibromo-", "2-Amino-3,5-dibromobenzaldehyde", "3,5-Dibromo-2-aminobenzaldehyde"], "SMILES": "C(=O)C1=C(N)C(Br)=CC(Br)=C1", "physical_data": {"Molecular Weight": "278.93", "Molecular Formula": "C7H5Br2NO", "Melting Point": "110 \u00b0C"}}