{"cas_no": "50924-49-7", "cn_name": "\u54aa\u5511\u7acb\u5bbe", "en_name": ["Mizoribine", "1H-Imidazole-4-carboxamide, 5-hydroxy-1-\u03b2-D-ribofuranosyl-", "5-Hydroxy-1-\u03b2-D-ribofuranosyl-1H-imidazole-4-carboxamide", "Bredinin", "Mizoribine", "\u03b2-Bredinin", "HE 69", "NSC 289637"], "SMILES": "OC1C(OC(CO)C1O)N2C(O)=C(C(N)=O)N=C2", "physical_data": {"Molecular Weight": "259.22", "Molecular Formula": "C9H13N3O6", "Melting Point": "&gt;200 \u00b0C (decomp)"}}