{"cas_no": "50926-11-9", "cn_name": "\u6c27\u5316\u94df\u9521", "en_name": ["Indium tin oxide", "Indium tin oxide", "ITO", "UFP-HX", "Tin indium oxide", "SUFP-HX", "X 101 (oxide)", "X 101", "F-ITO", "New Pro Coat EC-L", "S 100", "S 100 (electrode)", "Microsolver LIT 41A", "ITO 3Mb", "VP AdNano ITO-DW", "D 01-9000", "VP AdNano ITO-TC 8", "L 2CC5", "ITO-R", "PFC100-D150", "ITO-P 001", "DK 444", "B-ITO 30N", "AM-ITO 042-1", "Indium tin oxide (InSnO)"], "SMILES": "[Sn].[In].[O]", "physical_data": {"Molecular Weight": "", "Molecular Formula": "In.O.Sn", "Melting Point": "287 \u00b0C", "Density": "7.05 g/cm\u00b3"}}