{"cas_no": "50930-79-5", "cn_name": "\u82ef\u80fa\u90bb\u82ef\u4e8c\u7532\u9178\u916f,\u68c0\u6d4b\u78b3\u6c34\u5316\u5408\u7269\u548c\u7cd6\u7c7b\u7528TLC\u9ad8\u6548\u55b7\u663e\u5242", "en_name": ["Aniline phthalate", "1,2-Benzenedicarboxylic acid, compd. with benzenamine (1:1)", "Phthalic acid, compd. with PhNH2", "Phthalic acid, aniline salt", "Benzenamine, 1,2-benzenedicarboxylate (1:1)", "Aniline hydrogen phthalate", "Aniline phthalate"], "SMILES": "NC1=CC=CC=C1.C(O)(=O)C1=C(C(O)=O)C=CC=C1", "physical_data": {"Molecular Weight": "", "Molecular Formula": "C8H6O4.C6H7N", "Melting Point": "158 \u00b0C (decomp)"}}