{"cas_no": "5093-70-9", "cn_name": "4-\u6eb4-2,6-\u4e8c\u7532\u57fa\u5421\u5576", "en_name": ["4-Bromo-2,6-dimethylpyridine", "Pyridine, 4-bromo-2,6-dimethyl-", "2,6-Lutidine, 4-bromo-", "4-Bromo-2,6-dimethylpyridine", "4-Bromo-2,6-lutidine"], "SMILES": "BrC=1C=C(C)N=C(C)C1", "physical_data": {"Molecular Weight": "186.05", "Molecular Formula": "C7H8BrN", "Boiling Point": "194 \u00b0C", "Melting Point": "34 \u00b0C"}}