{"cas_no": "5094-12-2", "cn_name": "2-METHYL-2,3,4,5-TETRAHYDRO-1H-PYRIDO[4,3-B]INDOLE", "en_name": ["2-Methyl-2,3,4,5-tetrahydro-1H-pyrido[4,3-b]indole", "1H-Pyrido[4,3-b]indole, 2,3,4,5-tetrahydro-2-methyl-", "2H-Pyrido[4,3-b]indole, 1,3,4,5-tetrahydro-2-methyl-", "2,3,4,5-Tetrahydro-2-methyl-1H-pyrido[4,3-b]indole", "NSC 122300", "2-Methyl-2,3,4,5-tetrahydro-1H-pyrido[4,3-b]indole", "2-Methyl-1,3,4,5-tetrahydropyrido[4,3-b]indole", "2-Methyl-1H,2H,3H,4H,5H-pyrido[4,3-b]indole"], "SMILES": "CN1CC=2C=3C(NC2CC1)=CC=CC3", "physical_data": {"Molecular Weight": "186.25", "Molecular Formula": "C12H14N2", "Melting Point": "169-170 \u00b0C"}}