{"cas_no": "5094-24-6", "cn_name": "2-\u7f9f\u57fa\u4e01\u9178\u94a0", "en_name": ["Butanoic acid, 2-hydroxy-, sodium salt (1:1)", "Butanoic acid, 2-hydroxy-, sodium salt (1:1)", "Butyric acid, 2-hydroxy-, monosodium salt", "Butanoic acid, 2-hydroxy-, monosodium salt", "Sodium \u03b1-hydroxybutyrate", "Sodium 2-hydroxybutyrate", "2-Hydroxybutyric acid sodium salt", "Sodium 2-hydroxybutanoate", "Butyric acid, 2-hydroxy-, monosodium salt, DL-", "DL-\u03b1-Hydroxybutyric acid sodium salt", "Butanoic acid, 2-hydroxy-, monosodium salt, (\u00b1)-", "Sodium (\u00b1)-2-hydroxybutyrate", "2-Hydroxybutanoic acid sodium salt", "Sodium (DL)-\u03b1-hydroxybutyrate"], "SMILES": "C(C(O)=O)(CC)O.[Na]", "physical_data": {"Molecular Weight": "", "Molecular Formula": "C4H8O3.Na", "Boiling Point": "108 \u00b0C"}}