{"cas_no": "5096-73-1", "cn_name": "6-\u6c2f\u54d2\u55ea-3-\u7fa7\u9178", "en_name": ["6-Chloro-3-pyridazinecarboxylic acid", "3-Pyridazinecarboxylic acid, 6-chloro-", "6-Chloro-3-pyridazinecarboxylic acid", "3-Chloropyridazine-6-carboxylic acid", "6-Chloropyridazine-3-formic acid"], "SMILES": "C(O)(=O)C1=CC=C(Cl)N=N1", "physical_data": {"Molecular Weight": "158.54", "Molecular Formula": "C5H3ClN2O2", "Melting Point": "146 \u00b0C"}}