{"cas_no": "5096-57-1", "cn_name": "\u56db\u6c22\u5c0f\u6a97\u78b1", "en_name": ["Canadine", "6H-Benzo[g]-1,3-benzodioxolo[5,6-a]quinolizine, 5,8,13,13a-tetrahydro-9,10-dimethoxy-, (13aS)-", "13a\u03b1-Berbine, 9,10-dimethoxy-2,3-(methylenedioxy)-", "6H-Benzo[g]-1,3-benzodioxolo[5,6-a]quinolizine, 5,8,13,13a-tetrahydro-9,10-dimethoxy-, (S)-", "Canadine", "(13aS)-5,8,13,13a-Tetrahydro-9,10-dimethoxy-6H-benzo[g]-1,3-benzodioxolo[5,6-a]quinolizine", "\u03b1-Canadine", "(-)-Tetrahydroberberine", "(-)-Canadine", "(-)-\u03b1-Canadine", "(S)-(-)-7,8,13,13a-Tetrahydroberberine", "(S)-Canadine", "(S)-(-)-Tetrahydroberberine", "l-Canadine", "(S)-(-)-Canadine", "9,10-Dimethoxy-2,3-(methylenedioxy)-13a\u03b1-berbine", "(S)-Tetrahydroberberine", "O-Methyl Nandinine", "(S)-9,10-Dimethoxy-6,8,13,13a-tetrahydro-5H-[1,3]dioxolo[4,5-g]isoquinolino[3,2-a]isoquinoline"], "SMILES": "O(C)C1=C2CN3C(C=4C(=CC5=C(C4)OCO5)CC3)CC2=CC=C1OC", "physical_data": {"Molecular Weight": "339.39", "Molecular Formula": "C20H21NO4", "Melting Point": "139 \u00b0C"}}