{"cas_no": "5098-11-3", "cn_name": "5-\u6c28\u57fa-1H-\u54aa\u5511-4-\u7532\u8148", "en_name": ["4-Amino-5-cyanoimidazole", "1H-Imidazole-4-carbonitrile, 5-amino-", "Imidazole-4-carbonitrile, 5-amino-", "Imidazole-4(or 5)-carbonitrile, 5(or 4)-amino-", "5-Amino-1H-imidazole-4-carbonitrile", "4-Aminoimidazole-5-carbonitrile", "4-Amino-1H-imidazole-5-carbonitrile", "4-Amino-5-cyanoimidazole", "5-Amino-4-cyanoimidazole", "5-Cyano-4-aminoimidazole", "5-Amino-4-imidazolecarbonitrile", "NSC 139091"], "SMILES": "C(#N)C1=C(N)N=CN1", "physical_data": {"Molecular Weight": "108.10", "Molecular Formula": "C4H4N4", "Melting Point": "128-129 \u00b0C (decomp)"}}