{"cas_no": "50984-88-8", "cn_name": "\u5bf9\u4e8c\u7532\u915a\u915e", "en_name": ["p-Xylenolphthalein", "1(3H)-Isobenzofuranone, 3,3-bis(4-hydroxy-2,5-dimethylphenyl)-", "p-Xylenolphthalein", "3,3-Bis(4-hydroxy-2,5-dimethylphenyl)-1(3H)-isobenzofuranone", "3,3-Bis(4-hydroxy-2,5-dimethylphenyl)-2-benzofuran-1-one"], "SMILES": "CC1=C(C2(C=3C(C(=O)O2)=CC=CC3)C4=C(C)C=C(O)C(C)=C4)C=C(C)C(O)=C1", "physical_data": {"Molecular Weight": "374.43", "Molecular Formula": "C24H22O4", "Melting Point": "286-289 \u00b0C"}}