{"cas_no": "5098-14-6", "cn_name": "\u5bf9\u82ef\u4e8c\u78fa\u9178\u6c28\u57fa\u4e19\u4e8c\u9170\u4e01\u6c30", "en_name": ["Propanedinitrile, 2-amino-, 4-methylbenzenesulfonate (1:1)", "Propanedinitrile, 2-amino-, 4-methylbenzenesulfonate (1:1)", "Malononitrile, amino-, p-toluenesulfonate", "Propanedinitrile, amino-, mono(4-methylbenzenesulfonate)", "Aminomalononitrile tosylate", "Aminomalonitrile tosylate", "Aminomalononitrile p-toluenesulfonate", "2-Aminomalononitrile tosylate", "2-Aminomalononitrile 4-methylbenzenesulfonate", "2-Aminopropanedinitrile 4-methylbenzenesulfonate"], "SMILES": "S(=O)(=O)(O)C1=CC=C(C)C=C1.C(C#N)(C#N)N", "physical_data": {"Molecular Weight": "", "Molecular Formula": "C7H8O3S.C3H3N3", "Melting Point": "180-181 \u00b0C"}}