{"cas_no": "50995-95-4", "cn_name": "2-\u4e19\u57fa\u54aa\u5511", "en_name": ["2-Propylimidazole", "1H-Imidazole, 2-propyl-", "Imidazole, 2-propyl-", "2-Propyl-1H-imidazole", "2-Propylimidazole", "2-n-Propylimidazole", "Actiron NXJ 60", "NXJ 60"], "SMILES": "C(CC)C=1NC=CN1", "physical_data": {"Molecular Weight": "110.16", "Molecular Formula": "C6H10N2", "Melting Point": "35 \u00b0C"}}