{"cas_no": "50990-93-7", "cn_name": "2,5-\u4e8c\u7532\u57fa-3-\u544b\u5583\u7532\u9170\u6c2f", "en_name": ["2,5-Dimethyl-3-furancarbonyl chloride", "3-Furancarbonyl chloride, 2,5-dimethyl-", "2,5-Dimethyl-3-furancarbonyl chloride", "2,5-Dimethyl-3-furoyl chloride"], "SMILES": "C(Cl)(=O)C=1C=C(C)OC1C", "physical_data": {"Molecular Weight": "158.58", "Molecular Formula": "C7H7ClO2", "Boiling Point": "87-89 \u00b0C", "Melting Point": "20 \u00b0C"}}