{"cas_no": "50998-18-0", "cn_name": "6-\u7898\u55b9\u5641\u5549", "en_name": ["6-Iodoquinoxaline", "Quinoxaline, 6-iodo-", "6-Iodoquinoxaline"], "SMILES": "IC1=CC2=C(C=C1)N=CC=N2", "physical_data": {"Molecular Weight": "256.04", "Molecular Formula": "C8H5IN2", "Melting Point": "114-115 \u00b0C"}}