{"cas_no": "51-03-6", "cn_name": "\u589e\u6548\u919a", "en_name": ["Piperonyl butoxide", "1,3-Benzodioxole, 5-[[2-(2-butoxyethoxy)ethoxy]methyl]-6-propyl-", "Toluene, \u03b1-[2-(2-butoxyethoxy)ethoxy]-4,5-(methylenedioxy)-2-propyl-", "5-[[2-(2-Butoxyethoxy)ethoxy]methyl]-6-propyl-1,3-benzodioxole", "ENT 14,250", "Butocide", "\u03b1-[2-(2-Butoxyethoxy)ethoxy]-4,5-methylenedioxy-2-propyltoluene", "\u03b1-[2-(2-n-Butoxyethoxy)-ethoxy]-4,5-methylenedioxy-2-propyltoluene", "Butyl carbitol 6-propylpiperonyl ether", "6-Propylpiperonyl butyl diethylene glycol ether", "Piperonyl butoxide", "Butacide", "Butoxide", "Butoxide (synergist)", "Incite", "PBO", "NSC 8401", "Buticide", "Piperonyl", "Zengxiaomi", "MeSH ID: D010882"], "SMILES": "C(OCCOCCOCCCC)C=1C=C2C(=CC1CCC)OCO2", "physical_data": {"Molecular Weight": "338.44", "Molecular Formula": "C19H30O5", "Boiling Point": "180 \u00b0C @ Press: 1 Torr", "Melting Point": "&lt;25 \u00b0C", "Density": "1.06 g/cm\u00b3 @ Temp: 20 \u00b0C"}}