{"cas_no": "51-06-9", "cn_name": "4-\u6c28\u57fa-N-[2-(\u4e8c\u4e59\u57fa\u6c28\u57fa)\u4e59\u57fa]\u82ef\u7532\u9170\u80fa", "en_name": ["Procainamide", "Benzamide, 4-amino-N-[2-(diethylamino)ethyl]-", "Benzamide, p-amino-N-[2-(diethylamino)ethyl]-", "4-Amino-N-[2-(diethylamino)ethyl]benzamide", "p-Aminobenzoic diethylaminoethylamide", "p-Amino-N-(2-diethylaminoethyl)benzamide", "Novocainamide", "Novocaine amide", "Novocamid", "Procainamide", "Procaine amide", "Novocainamid", "Procanbid", "4-Amino-N-(diethylaminoethyl)benzamide", "NSC 27461", "SP 100", "SP 100 (pharmaceutical)", "N-(2-(Diethylamino)ethyl)-4-aminobenzamide", "MeSH ID: D011342"], "SMILES": "C(NCCN(CC)CC)(=O)C1=CC=C(N)C=C1", "physical_data": {"Molecular Weight": "235.33", "Molecular Formula": "C13H21N3O", "Boiling Point": "210-215 \u00b0C"}}