{"cas_no": "51-05-8", "cn_name": "\u76d0\u9178\u666e\u9c81\u5361\u56e0", "en_name": ["Procaine hydrochloride", "Benzoic acid, 4-amino-, 2-(diethylamino)ethyl ester, hydrochloride (1:1)", "Benzoic acid, p-amino-, 2-(diethylamino)ethyl ester, monohydrochloride", "Benzoic acid, 4-amino-, 2-(diethylamino)ethyl ester, monohydrochloride", "Anadolor", "Anesthesol", "Anestil", "Atoxicocaine", "Cetain", "Chlorocaine", "Diethylaminoethanol 4-aminobenzoate hydrochloride", "2-Diethylaminoethyl p-aminobenzoate hydrochloride", "Ethocaine", "Irocaine", "Isocaine-Heisler", "Juvocaine", "Kerocaine", "Lactocaine", "Neocaine", "Novocaine hydrochloride", "Planocaine", "Procaine hydrochloride", "Naucaine", "Paracain", "Sevicaine", "Syncaine", "Topokain", "Westocaine", "Novocaine", "Procaine monohydrochloride", "Neotonocaine", "Novocain", "Polocaine", "Scurocaine", "Allocaine", "Bernacaine", "Aminocaine", "Eugerase", "Ethocain", "Herocaine", "Naucain", "Geriocaine", "Gerovital H3", "Isocaine", "Isocain", "Omnicain", "Medaject", "Gero", "Syntocain", "Enpro", "Rocain", "Jenacaine", "Gerovital", "2-(Diethylamino)ethyl 4-aminobenzoate hydrochloride"], "SMILES": "C(OCCN(CC)CC)(=O)C1=CC=C(N)C=C1.Cl", "physical_data": {"Molecular Weight": "", "Molecular Formula": "C13H20N2O2.ClH", "Melting Point": "155.5 \u00b0C", "Density": "1.235 g/cm\u00b3"}}