{"cas_no": "51-17-2", "cn_name": "\u82ef\u5e76\u54aa\u5511", "en_name": ["Benzimidazole", "1H-Benzimidazole", "Benzimidazole", "3-Azaindole", "Azindole", "o-Benzimidazole", "1,3-Benzodiazole", "Benzoglyoxaline", "1,3-Diazaindene", "N,N\u2032-Methenyl-o-phenylenediamine", "Benziminazole", "BZI", "NSC 759", "1H-Benzo[d]imidazole", "1H-1,3-Benzodiazole"], "SMILES": "C1=2C(N=CN1)=CC=CC2", "physical_data": {"Molecular Weight": "118.14", "Molecular Formula": "C7H6N2", "Boiling Point": "&gt;360 \u00b0C", "Melting Point": "170.5 \u00b0C", "Density": "1.227 g/cm\u00b3"}}