{"cas_no": "51-12-7", "cn_name": "\u70df\u80bc\u9170\u80fa", "en_name": ["Nialamide", "4-Pyridinecarboxylic acid, 2-[3-oxo-3-[(phenylmethyl)amino]propyl]hydrazide", "Isonicotinic acid, 2-[2-(benzylcarbamoyl)ethyl]hydrazide", "1-[2-(Benzylcarbamoyl)ethyl]-2-isonicotinoylhydrazine", "N1-Beta-Benzylcarbamoyl-ethyl-N2-isonicotinoyl-hydrazine", "Nialamide", "Niamid", "Niamidal", "Niamide", "Nuredal", "Nialamid", "Novazid", "Niazin", "Espril", "Niaquitil", "Nyezin", "NSC 124514", "MeSH ID: D009526"], "SMILES": "C(NNCCC(NCC1=CC=CC=C1)=O)(=O)C=2C=CN=CC2", "physical_data": {"Molecular Weight": "298.34", "Molecular Formula": "C16H18N4O2", "Melting Point": "151.6 \u00b0C"}}