{"cas_no": "51-15-0", "cn_name": "\u6c2f\u89e3\u78f7\u5b9a", "en_name": ["Pralidoxime chloride", "Pyridinium, 2-[(hydroxyimino)methyl]-1-methyl-, chloride (1:1)", "2-Formyl-1-methylpyridinium chloride oxime", "Pyridinium, 2-formyl-1-methyl-, chloride, oxime", "Pyridinium, 2-[(hydroxyimino)methyl]-1-methyl-, chloride", "1-Methyl-2-aldoximinopyridinium chloride", "Pralidoxime chloride", "Protopam chloride", "2-PAM chloride", "2-(Hydroxyiminomethyl)-1-methylpyridinium chloride", "2-Pyridinealdoxime methochloride", "N-Methylpyridinium-2-aldoxime chloride", "1-Methylpyridinium-2-aldoxime chloride", "2-Pralidoxime chloride", "2-[(Hydroxyimino)methyl]-1-methylpyridin-1-ium chloride"], "SMILES": "C(=NO)C=1[N+](C)=CC=CC1.[Cl-]", "physical_data": {"Molecular Weight": "", "Molecular Formula": "C7H9N2O.Cl", "Melting Point": "236.5 \u00b0C (decomp)"}}