{"cas_no": "51-19-4", "cn_name": "2-\u6c28\u57fa\u82ef\u915a\u76d0\u9178\u76d0", "en_name": ["Phenol, 2-amino-, hydrochloride (1:1)", "Phenol, 2-amino-, hydrochloride (1:1)", "Phenol, o-amino-, hydrochloride", "Phenol, 2-amino-, hydrochloride", "o-Aminophenol hydrochloride", "2-Aminophenol hydrochloride", "o-Hydroxyaniline hydrochloride"], "SMILES": "NC1=C(O)C=CC=C1.Cl", "physical_data": {"Molecular Weight": "", "Molecular Formula": "C6H7NO.ClH", "Melting Point": "207 \u00b0C"}}