{"cas_no": "51-18-3", "cn_name": "2\uff0c4\uff0c6-\u4e09\u4e9a\u4e59\u57fa\u4e9a\u80fa-1\uff0c3\uff0c5-\u4e09\u55ea", "en_name": ["Triethylenemelamine", "1,3,5-Triazine, 2,4,6-tris(1-aziridinyl)-", "s-Triazine, 2,4,6-tris(1-aziridinyl)-", "2,4,6-Tris(1-aziridinyl)-1,3,5-triazine", "ENT 25296", "Persistol Ho 1/193", "Tretamine", "Triaziridinyl triazine", "Triethylenemelamine", "2,4,6-Triethylenimino-s-triazine", "2,4,6-Tris(1-aziridinyl)-s-triazine", "2,4,6-Tris(ethylenimino)-s-triazine", "Tris(ethyleneimino)triazine", "2,4,6-Tris(ethyleneimino)-s-triazine", "Trisaziridinyltriazine", "TEM", "Tretamin", "Triamelin", "NSC 9706", "Persistol Hoe 1/193", "SK 1133", "Tem-Simes", "TEM (cytostatic)", "DRP 859025", "M 9500", "R 246", "TAT", "TET", "Triethanomelamine", "Persistol", "2,4,6-Tri(aziridin-1-yl)-1,3,5-triazine", "MeSH ID: D014265"], "SMILES": "C=1(N=C(N=C(N1)N2CC2)N3CC3)N4CC4", "physical_data": {"Molecular Weight": "204.23", "Molecular Formula": "C9H12N6", "Melting Point": "39 \u00b0C (decomp)"}}