{"cas_no": "51-21-8", "cn_name": "5-\u6c1f\u8132\u5627\u5576", "en_name": ["5-Fluorouracil", "2,4(1H,3H)-Pyrimidinedione, 5-fluoro-", "Uracil, 5-fluoro-", "5-Fluoro-2,4(1H,3H)-pyrimidinedione", "NSC 19893", "Ro 2-9757", "5-Fluorouracil", "Fluorouracil", "2,4-Dioxo-5-fluoropyrimidine", "Efudex", "5-FU", "Fluracil", "Fluril", "Fluoroplex", "5-Fluoro-2,4-pyrimidinedione", "Fluoroblastin", "Phtoruracil", "Phthoruracil", "Fluracilum", "Efurix", "Queroplex", "Arumel", "Kecimeton", "Adrucil", "Efudix", "Carzonal", "Ulup", "Ftoruracil", "U 8953", "Timazin", "FU", "Fluri", "5-Fluoracyl", "Carac", "2,4-Dihydroxy-5-fluoropyrimidine", "Fluracedyl", "5-Fluoropyrimidine-2,4-diol", "Flurablastin", "DBL", "5-Fluoro-1H-pyrimidine-2,4-dione", "Fluorouracile Accord", "5-Oncouracil", "Sigma 03738", "5-Fluoro-2,4-dihydroxypyrimidine", "MeSH ID: D005472"], "SMILES": "O=C1C(F)=CNC(=O)N1", "physical_data": {"Molecular Weight": "130.08", "Molecular Formula": "C4H3FN2O2", "Melting Point": "282 \u00b0C (decomp)"}}