{"cas_no": "51-28-5", "cn_name": "2,4-\u4e8c\u785d\u57fa\u915a", "en_name": ["2,4-Dinitrophenol", "Phenol, 2,4-dinitro-", "2,4-Dinitrophenol", "Aldifen", "\u03b1-Dinitrophenol", "DNP", "2,4-DNP", "Fenoxyl Carbon N", "Nitrophene", "Nitrophen", "Phenol, \u03b1-dinitro-", "1-Hydroxy-2,4-dinitrobenzene", "Dinitrophenol", "Dinofan", "NSC 1532", "1,3-Dinitro-4-hydroxybenzene", "2-Nitro-4-nitrophenol"], "SMILES": "N(=O)(=O)C1=CC(N(=O)=O)=CC=C1O", "physical_data": {"Molecular Weight": "184.11", "Molecular Formula": "C6H4N2O5", "Boiling Point": "158 \u00b0C", "Melting Point": "112-114 \u00b0C", "Density": "1.683 g/cm\u00b3 @ Temp: 24 \u00b0C"}}