{"cas_no": "51-24-1", "cn_name": "\u66ff\u62c9\u66f2\u53ef", "en_name": ["Triac", "Benzeneacetic acid, 4-(4-hydroxy-3-iodophenoxy)-3,5-diiodo-", "Thyroacetic acid, 3,3\u2032,5-triiodo-", "Acetic acid, [4-(4-hydroxy-3-iodophenoxy)-3,5-diiodophenyl]-", "4-(4-Hydroxy-3-iodophenoxy)-3,5-diiodobenzeneacetic acid", "3,3\u2032,5-Triiodothyroacetic acid", "Triac", "[(4-Hydroxy-3-iodo-4-phenoxy)-3,5-diiodophenyl]acetic acid", "T3A", "Triacana", "Tiratricol", "Nidolin", "2-[4-(4-Hydroxy-3-iodophenoxy)-3,5-diiodophenyl]acetic acid"], "SMILES": "O(C1=C(I)C=C(CC(O)=O)C=C1I)C2=CC(I)=C(O)C=C2", "physical_data": {"Molecular Weight": "621.93", "Molecular Formula": "C14H9I3O4", "Melting Point": "181.5 \u00b0C"}}