{"cas_no": "51-20-7", "cn_name": "5-\u6eb4\u5c3f\u5627\u5576", "en_name": ["5-Bromouracil", "2,4(1H,3H)-Pyrimidinedione, 5-bromo-", "Uracil, 5-bromo-", "5-Bromo-2,4(1H,3H)-pyrimidinedione", "Bromouracil", "5-Bromouracil", "5-Bromo-2,4-dihydroxypyrimidine", "5-Bromo-2,4-pyrimidinedione", "NSC 19940", "MeSH ID: D001976"], "SMILES": "O=C1C(Br)=CNC(=O)N1", "physical_data": {"Molecular Weight": "190.98", "Molecular Formula": "C4H3BrN2O2", "Melting Point": "310 \u00b0C"}}