{"cas_no": "51-26-3", "cn_name": "\u53bb\u6c28\u7532\u7898\u5b89", "en_name": ["Triprop", "Benzenepropanoic acid, 4-(4-hydroxy-3-iodophenoxy)-3,5-diiodo-", "Hydrocinnamic acid, 4-(4-hydroxy-3-iodophenoxy)-3,5-diiodo-", "4-(4-Hydroxy-3-iodophenoxy)-3,5-diiodobenzenepropanoic acid", "4-(4-Hydroxy-3-iodophenoxy)-3,5-diiodohydrocinnamic acid", "\u03b2-[4-(3\u2032-Iodo-4\u2032-hydroxyphenoxy)-3,5-diiodophenyl]propionic acid", "Triopron", "Triprop", "3,3\u2032,5-Triiodothyropropionic acid", "[(4-Hydroxy-3-iodo-4-phenoxy)-3,5-diiodophenyl]propionic acid", "Atralose", "Birodan", "Thyropropic acid"], "SMILES": "O(C1=C(I)C=C(CCC(O)=O)C=C1I)C2=CC(I)=C(O)C=C2", "physical_data": {"Molecular Weight": "635.96", "Molecular Formula": "C15H11I3O4", "Melting Point": "200 \u00b0C"}}