{"cas_no": "51-36-5", "cn_name": "3,5-\u4e8c\u6c2f\u82ef\u7532\u9178", "en_name": ["3,5-Dichlorobenzoic acid", "Benzoic acid, 3,5-dichloro-", "3,5-Dichlorobenzoic acid", "3,5-Dichlorobenzic acid"], "SMILES": "C(O)(=O)C1=CC(Cl)=CC(Cl)=C1", "physical_data": {"Molecular Weight": "191.01", "Molecular Formula": "C7H4Cl2O2", "Melting Point": "188 \u00b0C"}}