{"cas_no": "51-35-4", "cn_name": "L-\u7f9f\u57fa\u812f\u6c28\u9178", "en_name": ["L-Hydroxyproline", "L-Proline, 4-hydroxy-, (4R)-", "Proline, 4-hydroxy-, L-", "L-Proline, 4-hydroxy-, trans-", "(4R)-4-Hydroxy-L-proline", "Hydroxy-L-proline", "4-Hydroxyproline", "4(R)-Hydroxy-2(S)-pyrrolidinecarboxylic acid", "Hypro", "\u03b4-Hydroxyproline", "4-Hydroxy-L-proline", "trans-4-Hydroxyproline", "Hydroxyproline", "trans-4-Hydroxy-L-proline", "trans-L-Hydroxyproline", "4-trans-Hydroxy-L-proline", "L-4-Hydroxyproline", "Ls-Hydroxyproline", "(2S,4R)-(-)-4-Hydroxyproline", "L-Hydroxyproline", "L-trans-4-Hydroxyproline", "(R)-4-Hydroxy-(S)-proline", "(S)-Hydroxyproline", "L-Hypro", "(-)-4-Hydroxy-2-pyrrolidinecarboxylic acid", "trans-L-4-Hydroxyproline", "(R)-4-Hydroxy-L-proline", "Proline, 4-hydroxy-", "(2S,4R)-4-Hydroxyproline", "NSC 46704", "4-Hydroxy-(S)-proline", "4(R)-Hydroxyproline", "(2S,4R)-4-Hydroxypyrrolidine-2-carboxylic acid", "(2S,4R)-4-Hydroxypyrrolidine-2-carboxylic acid", "(4R,2S)-Hydroxyproline", "trans-(2S,4R)-4-Hydroxy-L-proline", "MeSH ID: D006909"], "SMILES": "C(O)(=O)C1CC(O)CN1", "physical_data": {"Molecular Weight": "131.13", "Molecular Formula": "C5H9NO3", "Melting Point": "274 \u00b0C"}}