{"cas_no": "51-39-8", "cn_name": "3,4,5-\u4e09\u6c2f\u82ef\u7532\u9178", "en_name": ["3,4,5-Trichlorobenzoic acid", "Benzoic acid, 3,4,5-trichloro-", "3,4,5-Trichlorobenzoic acid"], "SMILES": "C(O)(=O)C1=CC(Cl)=C(Cl)C(Cl)=C1", "physical_data": {"Molecular Weight": "225.46", "Molecular Formula": "C7H3Cl3O2", "Melting Point": "210-210.5 \u00b0C"}}