{"cas_no": "51-34-3", "cn_name": "\u4e1c\u83a8\u83ea\u78b1", "en_name": ["(-)-Scopolamine", "Benzeneacetic acid, \u03b1-(hydroxymethyl)-, (1\u03b1,2\u03b2,4\u03b2,5\u03b1,7\u03b2)-9-methyl-3-oxa-9-azatricyclo[3.3.1.02,4]non-7-yl ester, (\u03b1S)-", "1\u03b1H,5\u03b1H-Tropan-3\u03b1-ol, 6\u03b2,7\u03b2-epoxy-, (-)-tropate (ester)", "Benzeneacetic acid, \u03b1-(hydroxymethyl)-, 9-methyl-3-oxa-9-azatricyclo[3.3.1.02,4]non-7-yl ester, [7(S)-(1\u03b1,2\u03b2,4\u03b2,5\u03b1,7\u03b2)]-", "3-Oxa-9-azatricyclo[3.3.1.02,4]nonane, benzeneacetic acid deriv.", "Scopolamine", "Atrochin", "Atroquin", "(-)-Hyoscine", "Hyoscine", "9-Methyl-3-oxa-9-azatricyclo[3.3.1.02,4]nonan-7-ol (-)-tropate", "(-)-Scopolamine", "Scopine (-)-tropate", "6\u03b2,7\u03b2-Epoxy-3\u03b1-tropanyl S-(-)-tropate", "6,7-Epoxytropine tropate", "Scopine tropate", "SEE", "l-Scopolamine", "Transderm-Scop", "Scop", "Scopoderm TTS", "Tropic acid ester with scopine", "Transcop"], "SMILES": "CN1C2C3C(O3)C1CC(OC(C(CO)C4=CC=CC=C4)=O)C2", "physical_data": {"Molecular Weight": "303.35", "Molecular Formula": "C17H21NO4", "Melting Point": "55 \u00b0C"}}