{"cas_no": "51-43-4", "cn_name": "\u80be\u4e0a\u817a\u7d20", "en_name": ["(-)-Epinephrine", "1,2-Benzenediol, 4-[(1R)-1-hydroxy-2-(methylamino)ethyl]-", "Benzyl alcohol, 3,4-dihydroxy-\u03b1-[(methylamino)methyl]-, (-)-", "1,2-Benzenediol, 4-[1-hydroxy-2-(methylamino)ethyl]-, (R)-", "4-[(1R)-1-Hydroxy-2-(methylamino)ethyl]-1,2-benzenediol", "Adnephrine", "Adrenal", "Adrenalin", "(-)-Adrenaline", "Adrenaline", "l-Adrenaline", "Adrenine", "Chelafrin", "Adrin", "l-1-(3,4-Dihydroxyphenyl)-2-methylaminoethanol", "Epinefrina", "Epinephran", "(-)-Epinephrine", "Epinephrine", "l-Epirenamine", "Epirenan", "Exadrin", "Hemisine", "Hemostasin", "Hemostatin", "Hypernephrin", "Levorenin", "Levorenine", "Methylarterenol", "Mucidrina", "Nephridine", "Nieraline", "Paranephrin", "Renaglandin", "Renaleptine", "Renalina", "Renoform", "Renostypticin", "Renostyptin", "Scurenaline", "Styptirenal", "Supracapsulin", "Supranephrane", "Suprarenaline", "Suprarenin", "Surrenine", "Takamina", "Vasoconstrictine", "Vasotonin", "l-Epinephrine", "(-)-3,4-Dihydroxy-\u03b1-[2-(methylamino)ethyl]benzyl alcohol", "Sus-phrine", "(R)-Epinephrine", "R-(-)-Epinephrine", "Levoreninum", "L-Adrenaline", "Lyodrin", "Levoepinephrine", "Epifrin", "Bosmin", "(R)-Adrenaline", "(-)-(R)-Epinephrine", "Isoptoepinal", "Primatene Mist", "Epipen", "Ana-Kit", "L-Methylaminoethanolcatechol", "Bronkaid Mist", "Glauposine", "Levorenen", "Eppy", "Simplene", "Epiglaufrin", "NSC 62786", "N-[(2R)-2-(3,4-Dihydroxyphenyl)-2-hydroxyethyl]-N-methylamine", "(R)-4-[1-Hydroxy-2-(methylamino)ethyl]benzene-1,2-diol", "MeSH ID: D004837"], "SMILES": "C(CNC)(O)C1=CC(O)=C(O)C=C1", "physical_data": {"Molecular Weight": "183.20", "Molecular Formula": "C9H13NO3", "Melting Point": "211-212 \u00b0C"}}