{"cas_no": "51-45-6", "cn_name": "\u7ec4\u80fa", "en_name": ["Histamine", "1H-Imidazole-5-ethanamine", "Histamine", "1H-Imidazole-4-ethanamine", "Eramin", "Ergamine", "Ergotidine", "5-Imidazoleethylamine", "Imidazole-4-ethylamine", "\u03b2-Imidazolyl-4-ethylamine", "2-(4-Imidazolyl)ethylamine", "4-(2-Aminoethyl)imidazole", "2-(1H-Imidazol-4-yl)ethylamine", "2-(4-Imidazolyl)ethanamine", "2-(1H-Imidazol-5-yl)ethylamine", "2-(1H-Imidazol-4-yl)ethanamine", "NSC 33792", "2-(1H-Imidazol-5-yl)ethanamine", "2-(3H-Imidazol-4-yl)ethylamine", "2-(1H-Imidazol-5-yl)ethan-1-amine", "2-(1H-Imidazol-4-yl)ethan-1-amine", "4-Imidazoleethanamine", "MeSH ID: D006632"], "SMILES": "C(CN)C1=CN=CN1", "physical_data": {"Molecular Weight": "111.15", "Molecular Formula": "C5H9N3", "Boiling Point": "209-210 \u00b0C @ Press: 18 Torr", "Melting Point": "83-84 \u00b0C", "Density": "1.1933 g/cm\u00b3"}}