{"cas_no": "51-40-1", "cn_name": "L-\u53bb\u7532\u80be\u4e0a\u817a\u7d20\u9152\u77f3\u9178\u6c22\u76d0(\u916f)", "en_name": ["(-)-Norepinephrine (+)-bitartrate", "1,2-Benzenediol, 4-[(1R)-2-amino-1-hydroxyethyl]-, (2R,3R)-2,3-dihydroxybutanedioate (1:1)", "Benzyl alcohol, \u03b1-(aminomethyl)-3,4-dihydroxy-, (-)-, tartrate (1:1) (salt)", "1,2-Benzenediol, 4-(2-amino-1-hydroxyethyl)-, (R)-, [R-(R*,R*)]-2,3-dihydroxybutanedioate (1:1) (salt)", "Arterenol, tartrate", "1,2-Benzenediol, 4-[(1R)-2-amino-1-hydroxyethyl]-, (2R,3R)-2,3-dihydroxybutanedioate (1:1) (salt)", "Levarterenol bitartrate", "(-)-Noradrenaline acid tartrate", "(-)-Noradrenaline bitartrate", "Noradrenaline bitartrate", "Norepinephrine bitartrate", "(-)-Norepinephrine bitartrate", "l-Norepinephrine bitartrate", "Noradrenaline acid tartrate", "l-Noradrenaline bitartrate", "Norepinephrine tartrate", "Noradrenaline hydrogen tartrate", "(-)-Norepinephrine tartrate", "(-)-Noradrenaline tartrate", "Noradrenaline tartrate", "(-)-Noradrenaline hydrogen tartrate", "l-Noradrenaline tartrate", "L-Norepinephrine D-bitartrate", "(-)-Norepinephrine (+)-bitartrate", "l-Noradrenaline d-bitartrate", "(-)-Noradrenaline (+)-bitartrate", "l-Arterenol bitartrate", "Levophed bitartrate", "l-Arterenol d-bitartrate", "L-Noradrenaline bitartrate", "L-Arterenol bitartrate", "(-)-Noradrenaline hydrogen L-tartrate", "Norepinephrine hydrogen tartrate", "(-)-(R)-Norepinephrine bitartrate", "NSC 169106", "(R)-Noradrenaline bitartrate"], "SMILES": "C(CN)(O)C1=CC(O)=C(O)C=C1.C(C(C(O)=O)O)(C(O)=O)O", "physical_data": {"Molecular Weight": "", "Molecular Formula": "C8H11NO3.C4H6O6", "Melting Point": "102-104 \u00b0C"}}