{"cas_no": "51-41-2", "cn_name": "\u53bb\u7532\u80be\u4e0a\u817a\u7d20", "en_name": ["Noradrenaline", "1,2-Benzenediol, 4-[(1R)-2-amino-1-hydroxyethyl]-", "Benzyl alcohol, \u03b1-(aminomethyl)-3,4-dihydroxy-, (-)-", "1,2-Benzenediol, 4-(2-amino-1-hydroxyethyl)-, (R)-", "Arterenol, l-", "4-[(1R)-2-Amino-1-hydroxyethyl]-1,2-benzenediol", "Adrenor", "Aktamin", "l-2-Amino-1-(3,4-dihydroxyphenyl)ethanol", "l-\u03b1-(Aminomethyl)-3,4-dihydroxybenzyl alcohol", "(-)-\u03b1-(Aminomethyl)protocatechuyl alcohol", "Arterenol", "l-Arterenol", "l-1-(3,4-Dihydroxyphenyl)-2-aminoethanol", "l-3,4-Dihydroxyphenylethanolamine", "Levarterenol", "Levoarterenol", "Levonorepinephrine", "Noradrenaline", "l-Noradrenaline", "(-)-Noradrenaline", "(-)-Norepinephrine", "Norepirenamine", "Sympathin E", "l-Norepinephrine", "Norepinephrine", "Levophed", "Levonoradrenaline", "Noradrenalin", "Norartrinal", "(R)-(-)-Norepinephrine", "Nor-Epirenan", "Levonor", "L-Noradrenaline", "(-)-Arterenol", "(R)-Noradrenaline", "(R)-Norepinephrine", "(R)-4-(2-Amino-1-hydroxyethyl)-1,2-benzenediol", "MeSH ID: D009638"], "SMILES": "C(CN)(O)C1=CC(O)=C(O)C=C1", "physical_data": {"Molecular Weight": "169.18", "Molecular Formula": "C8H11NO3", "Melting Point": "217 \u00b0C (decomp)"}}