{"cas_no": "51-42-3", "cn_name": "\u9152\u77f3\u9178\u80be\u4e0a\u817a\u7d20", "en_name": ["(-)-Epinephrine (+)-bitartrate", "1,2-Benzenediol, 4-[(1R)-1-hydroxy-2-(methylamino)ethyl]-, (2R,3R)-2,3-dihydroxybutanedioate (1:1)", "Benzyl alcohol, 3,4-dihydroxy-\u03b1-[(methylamino)methyl]-, (-)-, (+)-tartrate (1:1) (salt)", "1,2-Benzenediol, 4-[1-hydroxy-2-(methylamino)ethyl]-, (R)-, [R-(R*,R*)]-2,3-dihydroxybutanedioate (1:1) (salt)", "Adrenaline, tartrate (1:1)", "1,2-Benzenediol, 4-[(1R)-1-hydroxy-2-(methylamino)ethyl]-, (2R,3R)-2,3-dihydroxybutanedioate (1:1) (salt)", "Tartaric acid, compd. with adrenaline", "l-Adrenaline d-bitartrate", "Epinephrine bitartrate", "l-Adrenaline tartrate", "l-Adrenaline bitartrate", "Adrenaline bitartrate", "Adrenaline hydrogen tartrate", "(-)-Epinephrine bitartrate", "Epinephrine d-bitartrate", "Epinephrine tartrate", "(-)-Adrenaline bitartrate", "(-)-Adrenaline tartrate", "l-Adrenaline hydrogen tartrate", "Adrenalin bitartrate", "(-)-Adrenaline acid tartrate", "(-)-Adrenaline hydrogen tartrate", "(-)-Epinephrine (+)-bitartrate", "l-Epinephrine d-bitartrate", "Epinephrine hydrogen tartrate", "Adrenaline acid tartrate", "R-(-)-Epinephrine bitartrate", "L-Adrenaline bitartrate", "l-Epinephrine bitartrate", "Asmatane Mist", "Bronitin Mist", "Bronkaid Mist Suspension", "Asthmahaler Epitrate", "Medihaler-Epi", "Primatene Mist Suspension", "Epitrate", "Adrenatab"], "SMILES": "C(CNC)(O)C1=CC(O)=C(O)C=C1.C(C(C(O)=O)O)(C(O)=O)O", "physical_data": {"Molecular Weight": "", "Molecular Formula": "C9H13NO3.C4H6O6", "Melting Point": "147-154 \u00b0C"}}