{"cas_no": "51-49-0", "cn_name": "D-\u7532\u72b6\u817a\u7d20", "en_name": ["D-Thyroxine", "D-Tyrosine, O-(4-hydroxy-3,5-diiodophenyl)-3,5-diiodo-", "Thyroxine, D-", "O-(4-Hydroxy-3,5-diiodophenyl)-3,5-diiodo-D-tyrosine", "Dextrothyroxine", "D-Thyroxine", "D-T4", "3,3\u2032,5,5\u2032-Tetraiodo-D-thyronine", "(R)-2-Amino-3-(4-(4-hydroxy-3,5-diiodophenoxy)-3,5-diiodophenyl)propanoicacid", "MeSH ID: D003918"], "SMILES": "O(C1=CC(I)=C(O)C(I)=C1)C2=C(I)C=C(CC(C(O)=O)N)C=C2I", "physical_data": {"Molecular Weight": "776.87", "Molecular Formula": "C15H11I4NO4", "Melting Point": "229-230 \u00b0C (decomp)"}}