{"cas_no": "51-48-9", "cn_name": "L-\u7532\u72b6\u817a\u7d20", "en_name": ["(-)-Thyroxine", "L-Tyrosine, O-(4-hydroxy-3,5-diiodophenyl)-3,5-diiodo-", "Thyroxine, L-", "O-(4-Hydroxy-3,5-diiodophenyl)-3,5-diiodo-L-tyrosine", "Thyroxine", "Tetraiodothyronine", "L-Thyroxine", "3,3\u2032,5,5\u2032-Tetraiodo-L-thyronine", "Levothyroxine", "Thyroxin", "(-)-Thyroxine", "THX", "T4", "T4 (hormone)", "Thyreoideum", "L-Thyroxin", "L-T4", "Thyroxinal", "Thyrax", "NSC 36397", "Henning", "Levotiron", "SK&", "F 1-6528", "MeSH ID: D013974"], "SMILES": "O(C1=CC(I)=C(O)C(I)=C1)C2=C(I)C=C(CC(C(O)=O)N)C=C2I", "physical_data": {"Molecular Weight": "776.87", "Molecular Formula": "C15H11I4NO4", "Melting Point": "235-236 \u00b0C (decomp)"}}