{"cas_no": "51-44-5", "cn_name": "3,4-\u4e8c\u6c2f\u82ef\u7532\u9178", "en_name": ["3,4-Dichlorobenzoic acid", "Benzoic acid, 3,4-dichloro-", "3,4-Dichlorobenzoic acid", "NSC 17583", "NSC 34414"], "SMILES": "C(O)(=O)C1=CC(Cl)=C(Cl)C=C1", "physical_data": {"Molecular Weight": "191.01", "Molecular Formula": "C7H4Cl2O2", "Melting Point": "208-209 \u00b0C"}}