{"cas_no": "51-56-9", "cn_name": "\u6c22\u6eb4\u9178\u540e\u9a6c\u6258\u54c1", "en_name": ["Homatropine hydrobromide", "Benzeneacetic acid, \u03b1-hydroxy-, (3-endo)-8-methyl-8-azabicyclo[3.2.1]oct-3-yl ester, hydrobromide (1:1)", "1\u03b1H,5\u03b1H-Tropan-3\u03b1-ol, mandelate (ester), hydrobromide", "Benzeneacetic acid, \u03b1-hydroxy-, 8-methyl-8-azabicyclo[3.2.1]oct-3-yl ester, hydrobromide, endo-", "Benzeneacetic acid, \u03b1-hydroxy-, (3-endo)-8-methyl-8-azabicyclo[3.2.1]oct-3-yl ester, hydrobromide", "Homatropine hydrobromide", "Mandelic acid tropine ester hydrobromide", "(\u00b1)-Homatropine bromide", "Homatropine bromide", "Isopto Homatropine"], "SMILES": "O(C(C(O)C1=CC=CC=C1)=O)C2CC3N(C)C(C2)CC3.Br", "physical_data": {"Molecular Weight": "", "Molecular Formula": "C16H21NO3.BrH", "Melting Point": "250 \u00b0C (decomp)"}}