{"cas_no": "51-59-2", "cn_name": "5-\u4e59\u9170\u6c28\u57fa\u6c34\u6768\u9178", "en_name": ["N-Acetyl-5-aminosalicylic acid", "Benzoic acid, 5-(acetylamino)-2-hydroxy-", "Salicylic acid, 5-acetamido-", "5-(Acetylamino)-2-hydroxybenzoic acid", "5-Acetamidosalicylic acid", "5-(Acetylamino)salicylic acid", "2-Hydroxy-5-(acetylamino)benzoic acid", "N-Acetyl-5-aminosalicylic acid", "CJ 46A", "2-Hydroxy-5-acetamidobenzoic acid", "5-Acetamido-2-hydroxybenzoic acid", "3-Carboxyparacetamol", "Acetylmesalazine", "NSC 54183"], "SMILES": "N(C(C)=O)C1=CC(C(O)=O)=C(O)C=C1", "physical_data": {"Molecular Weight": "195.17", "Molecular Formula": "C9H9NO4", "Melting Point": "218 \u00b0C"}}