{"cas_no": "51-55-8", "cn_name": "\u963f\u6258\u54c1", "en_name": ["(\u00b1)-Atropine", "Benzeneacetic acid, \u03b1-(hydroxymethyl)- (3-endo)-8-methyl-8-azabicyclo[3.2.1]oct-3-yl ester", "1\u03b1H,5\u03b1H-Tropan-3\u03b1-ol (\u00b1)-tropate (ester)", "Benzeneacetic acid, \u03b1-(hydroxymethyl)-, 8-methyl-8-azabicyclo[3.2.1]oct-3-yl ester, endo-", "(3-endo)-8-Methyl-8-azabicyclo[3.2.1]oct-3-yl \u03b1-(hydroxymethyl)benzeneacetate", "dl-Hyoscyamine", "Atropine", "dl-Tropyl tropate", "Tropine (\u00b1)-tropate", "Atropin", "(\u00b1)-Hyoscyamine", "(\u00b1)-Atropine", "DL-Hyoscyamine", "Tropine tropate", "Atropinum sulphuricum", "MeSH ID: D001285"], "SMILES": "O(C(C(CO)C1=CC=CC=C1)=O)C2CC3N(C)C(C2)CC3", "physical_data": {"Molecular Weight": "289.37", "Molecular Formula": "C17H23NO3", "Melting Point": "118.5 \u00b0C"}}