{"cas_no": "51-52-5", "cn_name": "\u4e19\u786b\u6c27\u5627\u5576", "en_name": ["Propylthiouracil", "4(1H)-Pyrimidinone, 2,3-dihydro-6-propyl-2-thioxo-", "Uracil, 6-propyl-2-thio-", "2,3-Dihydro-6-propyl-2-thioxo-4(1H)-pyrimidinone", "2-Mercapto-4-hydroxy-6-n-propylpyrimidine", "Procasil", "Propacil", "Propycil", "6-Propyl-2-thio-2,4(1H,3H)pyrimidinedione", "Propylthiouracil", "6-Propyl-2-thiouracil", "6-Propylthiouracil", "6-n-Propyl-2-thiouracil", "6-n-Propylthiouracil", "Prothyran", "PTU", "2-Thio-4-oxo-6-propyl-1,3-pyrimidine", "2-Thio-6-propyl-1,3-pyrimidin-4-one", "Thyreostat II", "Propyl-Thyracil", "2-Mercapto-4-hydroxy-6-propylpyrimidine", "Prothiurone", "Prothycil", "Protiural", "Propyl-Thiorist", "Propylthiorit", "Thiuragyl", "Prothiucil", "PTU (thyreostatic)", "NSC 6498", "NSC 70461", "2-Mercapto-6-propylpyrimidin-4-ol", "6-Propyl-2-thioxo-2,3-dihydro-1H-pyrimidin-4-one", "MeSH ID: D011441"], "SMILES": "C(CC)C1=CC(=O)NC(=S)N1", "physical_data": {"Molecular Weight": "170.23", "Molecular Formula": "C7H10N2OS", "Melting Point": "219-221 \u00b0C"}}