{"cas_no": "51-68-3", "cn_name": "\u7532\u6c2f\u82ac\u916f", "en_name": ["Meclofenoxate", "Acetic acid, 2-(4-chlorophenoxy)-, 2-(dimethylamino)ethyl ester", "Acetic acid, (p-chlorophenoxy)-, 2-(dimethylamino)ethyl ester", "Acetic acid, (4-chlorophenoxy)-, 2-(dimethylamino)ethyl ester", "EN 1627", "(p-Chlorophenoxy)acetic acid \u03b2-(dimethylamino)ethyl ester", "Dimethylaminoethyl p-chlorophenoxyacetate", "Meclofenoxate", "ANP 235", "Meclophenoxate", "2-(Dimethylamino)ethyl (p-chlorophenoxy)acetate", "(p-Chlorophenoxy)acetic acid 2-(dimethylamino)ethyl ester", "Meclofenoxane", "Proseryl", "Cerebon", "Analux", "Licidril", "Cetrexin", "Clocete", "CPH", "NSC 169411", "(2-Dimethylamino)ethyl(4-chlorophenoxy)acetate", "(4-Chloro-phenoxy)-acetic acid 2-dimethylamino-ethyl ester", "MeSH ID: D002504"], "SMILES": "O(CC(OCCN(C)C)=O)C1=CC=C(Cl)C=C1", "physical_data": {"Molecular Weight": "257.71", "Molecular Formula": "C12H16ClNO3", "Boiling Point": "180 \u00b0C @ Press: 9-10 Torr", "Melting Point": "138-140 \u00b0C"}}