{"cas_no": "51-67-2", "cn_name": "\u5bf9\u7f9f\u57fa\u82ef\u4e59\u80fa", "en_name": ["Tyramine", "Phenol, 4-(2-aminoethyl)-", "Phenol, p-(2-aminoethyl)-", "4-(2-Aminoethyl)phenol", "p-\u03b2-Aminoethylphenol", "p-Hydroxyphenethylamine", "4-Hydroxyphenethylamine", "\u03b1-(4-Hydroxyphenyl)-\u03b2-aminoethane", "2-(p-Hydroxyphenyl)ethylamine", "Systogene", "Tocosine", "Tyramine", "p-Tyramine", "Tyrosamine", "Uteramine", "4-Hydroxyphenylethylamine", "Benzeneethanamine, 4-hydroxy-", "p-(2-Aminoethyl)phenol", "2-(4-Hydroxyphenyl)ethylamine", "4-Hydroxy-\u03b2-phenylethylamine", "p-Hydroxyphenylethylamine", "Tyramin", "\u03b2-(4-Hydroxyphenyl)ethylamine", "2-(4\u2032-Hydroxyphenyl)ethylamine", "p-Hydroxy-\u03b2-phenylethylamine", "NSC 249188", "2-(4-Hydroxyphenyl)ethanamine", "MeSH ID: D014439"], "SMILES": "C(CN)C1=CC=C(O)C=C1", "physical_data": {"Molecular Weight": "137.18", "Molecular Formula": "C8H11NO", "Boiling Point": "166 \u00b0C @ Press: 2 Torr", "Melting Point": "164-165 \u00b0C"}}