{"cas_no": "51-66-1", "cn_name": "4'-\u7532\u6c27\u57fa\u4e59\u9170\u82ef\u80fa", "en_name": ["N-(4-Methoxyphenyl)acetamide", "Acetamide, N-(4-methoxyphenyl)-", "p-Acetanisidide", "p-Acetaniside", "N-(4-Methoxyphenyl)acetamide", "p-Acetanisidine", "Acetyl-p-anisidine", "Metacetin", "Methacetin", "p-Methoxyacetanilide", "Aceto-p-anisidide", "4-Methoxyacetanilide", "4\u2032-Methoxyacetanilide", "N-Acetyl-p-methoxyaniline", "N-Acetyl-p-anisidine", "N-(p-Methoxyphenyl)acetamide", "4-(Acetylamino)anisole", "4-Acetamidophenyl methyl ether", "NSC 4687", "4-Acetamidoanisole", "4-Methoxyanilino methyl ketone", "N-Acetyl-4-methoxyaniline"], "SMILES": "N(C(C)=O)C1=CC=C(OC)C=C1", "physical_data": {"Molecular Weight": "165.19", "Molecular Formula": "C9H11NO2", "Boiling Point": "335 \u00b0C", "Melting Point": "131 \u00b0C"}}