{"cas_no": "51-61-6", "cn_name": "2-(3,4-\u4e8c\u7f9f\u57fa\u82ef\u57fa)\u4e59\u80fa", "en_name": ["Dopamine", "1,2-Benzenediol, 4-(2-aminoethyl)-", "Pyrocatechol, 4-(2-aminoethyl)-", "4-(2-Aminoethyl)-1,2-benzenediol", "4-(2-Aminoethyl)pyrocatechol", "DA", "3,4-Dihydroxyphenethylamine", "3,4-Dihydroxyphenylethylamine", "Dopamine", "3-Hydroxytyramine", "Oxytyramine", "2-(3,4-Dihydroxyphenyl)ethylamine", "\u03b1-(3,4-Dihydroxyphenyl)-\u03b2-aminoethane", "Dopamin", "Hydroxytyramin", "4-(2-Aminoethyl)catechol", "Dophamine", "NSC 173182", "2-(3,4-Dihydroxyphenyl)-1-ethanamine", "Duobaan", "ZL 01310021", "MeSH ID: D004298"], "SMILES": "C(CN)C1=CC(O)=C(O)C=C1", "physical_data": {"Molecular Weight": "153.18", "Molecular Formula": "C8H11NO2", "Boiling Point": "227 \u00b0C", "Melting Point": "128 \u00b0C"}}