{"cas_no": "51-65-0", "cn_name": "DL-\u5bf9\u6c1f\u82ef\u4e19\u6c28\u9178", "en_name": ["p-Fluorophenylalanine", "Phenylalanine, 4-fluoro-", "Alanine, 3-(p-fluorophenyl)-, DL-", "DL-Phenylalanine, 4-fluoro-", "4-Fluorophenylalanine", "FPA", "p-Fluoro-DL-phenylalanine", "4-Fluoro-DL-phenylalanine", "DL-4-Fluorophenylalanine", "DL-p-Fluorophenylalanine", "DL-3-(p-Fluorophenyl)alanine", "Alnasid", "p-Fluorophenylalanine", "(\u00b1)-4-Fluorophenylalanine", "PFPA", "NSC 71433", "2-Amino-3-(4-fluorophenyl)propanoic acid", "\u03b1-Amino-4-fluorobenzenepropanoic acid"], "SMILES": "C(C(C(O)=O)N)C1=CC=C(F)C=C1", "physical_data": {"Molecular Weight": "183.18", "Molecular Formula": "C9H10FNO2", "Melting Point": "238-242 \u00b0C (decomp)"}}