{"cas_no": "51-60-5", "cn_name": "\u7532\u786b\u9178\u65b0\u65af\u7684\u660e", "en_name": ["Proserine", "Benzenaminium, 3-[[(dimethylamino)carbonyl]oxy]-N,N,N-trimethyl-, methyl sulfate (1:1)", "Ammonium, (m-hydroxyphenyl)trimethyl-, methyl sulfate, dimethylcarbamate", "Benzenaminium, 3-[[(dimethylamino)carbonyl]oxy]-N,N,N-trimethyl-, methyl sulfate", "3-(Dimethylcarbamoxy)phenyl trimethylammonium methyl sulfate", "Hodostin", "(m-Hydroxyphenyl)trimethylammonium methyl sulfate dimethylcarbamate", "(3-Hydroxyphenyl)trimethylammonium methyl sulfate dimethylcarbamic ester", "Kirkstigmine methyl sulfate", "Leostigmine methyl sulfate", "Neoeserine methyl sulfate", "Neostigmeth", "Neostigmine methosulfate", "Neostigmine methyl sulfate", "Normastigmin", "Philostigmin methyl sulfate", "Polstigmine", "Proserine methyl sulfate", "Stigmanol methyl sulfate", "Stigmosan methyl sulfate", "Vagostigmine methyl sulfate", "Neostigmine mono(methyl sulfate)", "Prostigmine methyl sulfate", "(3-Dimethylcarbamoyloxyphenyl)trimethylammonium methyl sulfate", "Eustigmin methyl sulfate", "Prostigmin methyl sulfate", "Synstigmine", "Syntostigmin", "Syntostigmin (injection)", "Vagostigmin", "Proserine", "GD 65", "Stiglyn", "Intrastigmina", "Metastigmin", "NSC 93753", "3-[(Dimethylcarbamoyl)oxy]-N,N,N-trimethylanilinium methyl sulfate", "Bloxiverz"], "SMILES": "O(C(N(C)C)=O)C1=CC([N+](C)(C)C)=CC=C1.S(OC)(=O)(=O)[O-]", "physical_data": {"Molecular Weight": "", "Molecular Formula": "C12H19N2O2.CH3O4S", "Melting Point": "142-145 \u00b0C"}}