{"cas_no": "51-79-6", "cn_name": "\u6c28\u57fa\u7532\u9178\u4e59\u916f", "en_name": ["Carbamic acid, ethyl ester", "Carbamic acid, ethyl ester", "NSC 746", "Ethyl carbamate", "Urethan", "Urethane", "Ethylurethane", "O-Ethylurethane", "Leucethane", "Pracarbamine", "Ethyl aminoformate", "MeSH ID: D014520"], "SMILES": "O(C(N)=O)CC", "physical_data": {"Molecular Weight": "89.09", "Molecular Formula": "C3H7NO2", "Boiling Point": "182-184 \u00b0C", "Melting Point": "48-50 \u00b0C", "Density": "0.9862 g/cm\u00b3 @ Temp: 21 \u00b0C"}}