{"cas_no": "51-74-1", "cn_name": "\u7ec4\u80fa\u78f7\u9178\u76d0", "en_name": ["Histamine diphosphate", "1H-Imidazole-4-ethanamine, phosphate (1:2)", "Histamine, phosphate (1:2)", "Histamine, diphosphate", "4-(2-Aminoethyl)imidazole bis(dihydrogen phosphate)", "4-(2-Aminoethyl)imidazole di-acid phosphate", "Histamine acid phosphate", "Histamine phosphate", "Histamine dihydrogen phosphate", "Histamine biphosphate", "Histapon", "Histamine diphosphate", "2-(1H-Imidazol-4-yl)ethanamine bis(phosphate)"], "SMILES": "C(CN)C1=CN=CN1.P(=O)(O)(O)O", "physical_data": {"Molecular Weight": "", "Molecular Formula": "C5H9N3.2H3O4P", "Melting Point": "140 \u00b0C"}}