{"cas_no": "51-75-2", "cn_name": "\u6c2e\u82a5", "en_name": ["Mechlorethamine", "Ethanamine, 2-chloro-N-(2-chloroethyl)-N-methyl-", "Diethylamine, 2,2\u2032-dichloro-N-methyl-", "2-Chloro-N-(2-chloroethyl)-N-methylethanamine", "N,N-Bis(2-chloroethyl)methylamine", "Bis(\u03b2-chloroethyl)methylamine", "Bis(2-chloroethyl)methylamine", "Chlormethine", "Di(2-chloroethyl)methylamine", "2,2\u2032-Dichloro-N-methyldiethylamine", "HN2 (amine)", "MBA", "Mechlorethamine", "Methylbis(\u03b2-chloroethyl)amine", "N-Methyl-2,2\u2032-dichlorodiethylamine", "Methyldi(2-chloroethyl)amine", "Mustargen", "Mustine", "N-Methylbis(2-chloroethyl)amine", "Methylbis(2-chloroethyl)amine", "N-Methylbis(\u03b2-chloroethyl)amine", "N,N-Di(chloroethyl)methylamine", "Cloramin", "Chlorethazine", "HN2", "Methyl-\u03b2,\u03b2-dichlorodiethylamine", "Mustine Note", "Nitrogen mustard (HN 2)", "NSC 128663", "Valchlor", "Ledaga", "MeSH ID: D008466"], "SMILES": "N(CCCl)(CCCl)C", "physical_data": {"Molecular Weight": "156.05", "Molecular Formula": "C5H11Cl2N", "Boiling Point": "87 \u00b0C @ Press: 18 Torr", "Melting Point": "-60 \u00b0C", "Density": "1.118 g/cm\u00b3 @ Temp: 25 \u00b0C"}}