{"cas_no": "51-71-8", "cn_name": "\u82ef\u4e59\u80bc", "en_name": ["Phenelzine", "Hydrazine, (2-phenylethyl)-", "Hydrazine, phenethyl-", "(2-Phenylethyl)hydrazine", "1-Hydrazino-2-phenylethane", "Phenelzine", "Phenethylhydrazine", "\u03b2-Phenylethylhydrazine", "Phenylethylhydrazine", "W 1544", "1-(2-Phenylethyl)hydrazine", "1-(2-Phenethyl)hydrazine", "Phenalzine", "N-Phenethylhydrazine", "Phenylzine", "MeSH ID: D010624"], "SMILES": "C(CNN)C1=CC=CC=C1", "physical_data": {"Molecular Weight": "136.19", "Molecular Formula": "C8H12N2", "Boiling Point": "74 \u00b0C", "Melting Point": "&lt;25 \u00b0C", "Density": "1.0161 g/cm\u00b3 @ Temp: 20 \u00b0C"}}