{"cas_no": "51-78-5", "cn_name": "4-\u6c28\u57fa\u82ef\u915a\u76d0\u9178\u76d0", "en_name": ["4-Aminophenol hydrochloride", "Phenol, 4-amino-, hydrochloride (1:1)", "Phenol, p-amino-, hydrochloride", "Phenol, 4-amino-, hydrochloride", "C.I. 76551", "p-Aminophenol hydrochloride", "C.I. Oxidation Base 6A", "Durafur Brown R", "Fouramine CP", "Fourrine P", "Fourrine 83", "Furro P", "Futramine P", "Pelagol CP", "Pelagol Grey CP", "Peltol P", "4-Aminophenol hydrochloride", "4-Hydroxyanilinium chloride", "p-Hydroxyaniline hydrochloride"], "SMILES": "NC1=CC=C(O)C=C1.Cl", "physical_data": {"Molecular Weight": "", "Molecular Formula": "C6H7NO.ClH", "Melting Point": "306 \u00b0C (decomp)"}}