{"cas_no": "51-77-4", "cn_name": "\u5409\u6cd5\u916f", "en_name": ["trans-3,7-Dimethyl-2,6-octadienyl 5,9,13-trimethyl-4,8,12-tetradecatrienoate", "4,8,12-Tetradecatrienoic acid, 5,9,13-trimethyl-, (2E)-3,7-dimethyl-2,6-octadien-1-yl ester, (4E,8E)-", "4,8,12-Tetradecatrienoic acid, 5,9,13-trimethyl-, 3,7-dimethyl-2,6-octadienyl ester, (E,E,E)-", "4,8,12-Tetradecatrienoic acid, 5,9,13-trimethyl-, (2E)-3,7-dimethyl-2,6-octadienyl ester, (4E,8E)-", "trans-3,7-Dimethyl-2,6-octadienyl 5,9,13-trimethyl-4,8,12-tetradecatrienoate", "Gefarnate", "5,9,13-Trimethyl-4,8,12-tetradecatrienoic acid 3,7-dimethyl-2,6-octadienyl ester", "Geranyl farnesylacetate", "DA 688", "Gefarnil", "Gefarnyl", "Gefanil", "Alsanate", "Dixnalate", "Salanil", "Gefulcer", "Arsanyl", "Zackal", "Osteol", "MeSH ID: D005778"], "SMILES": "C(=CCCC(OCC=C(CCC=C(C)C)C)=O)(CCC=C(CCC=C(C)C)C)C", "physical_data": {"Molecular Weight": "400.64", "Molecular Formula": "C27H44O2", "Boiling Point": "166.5 \u00b0C", "Melting Point": "&lt;25 \u00b0C", "Density": "0.91 g/cm\u00b3"}}