{"cas_no": "51-84-3", "cn_name": "\u4e59\u9170\u80c6\u78b1", "en_name": ["Acetylcholine", "Ethanaminium, 2-(acetyloxy)-N,N,N-trimethyl-", "Choline acetate (ester)", "Choline, acetate", "2-(Acetyloxy)-N,N,N-trimethylethanaminium", "Acetylcholine", "ACh", "Choline, acetyl-", "Acetyl choline ion", "Acetylcholine cation", "Acetylcholinium", "2-Acetyloxyethyl(trimethyl)azanium", "MeSH ID: D000109"], "SMILES": "C(COC(C)=O)[N+](C)(C)C", "physical_data": {"Molecular Weight": "", "Molecular Formula": "C7H16NO2", "Melting Point": "85-87 \u00b0C"}}