{"cas_no": "51-80-9", "cn_name": "\u56db\u7532\u57fa\u7532\u70f7\u4e8c\u80fa", "en_name": ["Bis(dimethylamino)methane", "Methanediamine, N,N,N\u2032,N\u2032-tetramethyl-", "N,N,N\u2032,N\u2032-Tetramethylmethanediamine", "N,N,N\u2032,N\u2032-Tetramethylmethylenediamine", "Bis(dimethylamino)methane", "Tetramethylmethylenediamine", "N,N,N\u2032,N\u2032-Tetramethyldiaminomethane", "Dimethyl[(dimethylamino)methyl]amine", "N,N\u2032-Tetramethyldiaminomethane", "Methylenebis(dimethylamine)", "2,4-Dimethyl-2,4-diazapentane", "Tetramethylmethanediamine", "Tetramethyldiaminomethane", "NSC 166169", "NSC 54796", "N,N\u2032-Tetramethylmethanediamine", "[(Dimethylamino)methyl]dimethylamine"], "SMILES": "C(N(C)C)N(C)C", "physical_data": {"Molecular Weight": "102.18", "Molecular Formula": "C5H14N2", "Boiling Point": "83 \u00b0C"}}