{"cas_no": "51-83-2", "cn_name": "\u5361\u5df4\u80c6\u78b1", "en_name": ["Carbachol", "Ethanaminium, 2-[(aminocarbonyl)oxy]-N,N,N-trimethyl-, chloride (1:1)", "Choline, chloride, carbamate", "Ethanaminium, 2-[(aminocarbonyl)oxy]-N,N,N-trimethyl-, chloride", "Carbachol", "Carbachol chloride", "Carbacholine", "Carbacholine chloride", "Carbaminoylcholine chloride", "Carbamoylcholine chloride", "Carbamylcholine chloride", "Carbochol", "Carbocholine", "Carcholin", "Choline carbamate chloride", "\u03b3-Carbamoyl choline chloride", "Doryl", "(2-Hydroxyethyl)trimethyl ammonium chloride carbamate", "Jestryl", "Lentin", "Moryl", "Carbaminocholine chloride", "Coletyl", "Vasoperif", "Doryl (pharmaceutical)", "Carbamiotin", "Carbocholin", "Carbyl", "Carbacholin", "Carbacolina", "(2-Carbamoyloxyethyl)trimethylammonium chloride", "Carbamoylcholine-hydrochloride", "Miostat", "Isopto Carbachol", "Carbastat Intraocular", "2-(Trimethylazaniumyl)ethyl carbamate chloride", "MeSH ID: D002217"], "SMILES": "C(COC(N)=O)[N+](C)(C)C.[Cl-]", "physical_data": {"Molecular Weight": "", "Molecular Formula": "C6H15N2O2.Cl", "Melting Point": "210 \u00b0C (decomp)"}}