{"cas_no": "51-81-0", "cn_name": "3-\u6c28\u57fa\u915a \u76d0\u9178\u76d0", "en_name": ["Phenol, 3-amino-, hydrochloride (1:1)", "Phenol, 3-amino-, hydrochloride (1:1)", "Phenol, 3-amino-, hydrochloride", "m-Aminophenol hydrochloride", "3-Aminophenol hydrochloride"], "SMILES": "NC1=CC(O)=CC=C1.Cl", "physical_data": {"Molecular Weight": "", "Molecular Formula": "C6H7NO.ClH", "Melting Point": "226-228 \u00b0C"}}