{"cas_no": "51-93-4", "cn_name": "\u4e59\u57fa\u4e09\u7532\u57fa\u7898\u5316\u94f5", "en_name": ["Ethanaminium, N,N,N-trimethyl-, iodide (1:1)", "Ethanaminium, N,N,N-trimethyl-, iodide (1:1)", "Ammonium, ethyltrimethyl-, iodide", "Ethyltrimethylammonium iodide", "Ethanaminium, N,N,N-trimethyl-, iodide", "Trimethylethylammonium iodide"], "SMILES": "[N+](CC)(C)(C)C.[I-]", "physical_data": {"Molecular Weight": "", "Molecular Formula": "C5H14N.I", "Melting Point": "245 \u00b0C (decomp)"}}