{"cas_no": "51-98-9", "cn_name": "\u7094\u8bfa\u916e\u918b\u9178\u916f", "en_name": ["Norethisterone acetate", "19-Norpregn-4-en-20-yn-3-one, 17-(acetyloxy)-, (17\u03b1)-", "19-Nor-17\u03b1-pregn-4-en-20-yn-3-one, 17-hydroxy-, acetate", "(17\u03b1)-17-(Acetyloxy)-19-norpregn-4-en-20-yn-3-one", "17-Acetoxy-19-nor-17\u03b1-pregn-4-en-20-yn-3-one", "17\u03b1-Ethinyl-19-nortestosterone acetate", "17\u03b2-Hydroxy-19-nor-17\u03b1-pregn-4-en-20-yn-3-one acetate", "Norethindrone acetate", "Norethisteron acetate", "Norethisterone acetate", "Norethynyltestosterone acetate", "Norethysterone acetate", "Norlutate", "Norlutin acetate", "17\u03b1-Ethynyl-19-nortestosterone acetate", "17\u03b1-Ethinyl-19-nortestosterone 17\u03b2-acetate", "17\u03b1-Ethinyl-4-estrene-17\u03b2-ol-acetate-3-one", "17\u03b2-Acetoxy-19-nor-17\u03b1-pregn-4-en-20-yn-3-one", "19-Norethynyltestosterone acetate", "Norethindrone 17-acetate", "19-Norethisterone acetate", "17\u03b2-Acetoxy-17\u03b1-ethinyl-4-estren-3-one", "Norlutin A", "Orlutate", "Primolut-Nor", "SH 420", "Norethisterone 17-acetate", "Milli-Anovlar", "Progylut", "Gynophase", "Gynovlane", "Miniphase", "Aygestin", "Milligynon", "NSC 22844", "Estalis"], "SMILES": "CC12C(OC(C)=O)(C#C)CCC1C3C(CC2)C4C(CC3)=CC(=O)CC4", "physical_data": {"Molecular Weight": "340.46", "Molecular Formula": "C22H28O3", "Melting Point": "161.5 \u00b0C"}}