{"cas_no": "510-64-5", "cn_name": "19-\u7f9f\u57fa\u96c4\u753e-4-\u70ef-3,17-\u4e8c\u916e", "en_name": ["19-Hydroxyandrostenedione", "Androst-4-ene-3,17-dione, 19-hydroxy-", "19-Hydroxyandrost-4-ene-3,17-dione", "19-Hydroxyandrostenedione", "Androst-4-ene-3,17-dione-19-ol", "Androst-4-en-19-ol-3,17-dione", "NSC 74233"], "SMILES": "C(O)C12C3C(C4C(C)(CC3)C(=O)CC4)CCC1=CC(=O)CC2", "physical_data": {"Molecular Weight": "302.41", "Molecular Formula": "C19H26O3", "Melting Point": "172-173 \u00b0C"}}