{"cas_no": "510-13-4", "cn_name": "\u5b54\u96c0\u77f3\u7eff", "en_name": ["Malachite green carbinol", "Benzenemethanol, 4-(dimethylamino)-\u03b1-[4-(dimethylamino)phenyl]-\u03b1-phenyl-", "Methanol, bis[p-(dimethylamino)phenyl]phenyl-", "4-(Dimethylamino)-\u03b1-[4-(dimethylamino)phenyl]-\u03b1-phenylbenzenemethanol", "Malachite green carbinol", "C.I. Basic Green 4, carbinol", "p,p\u2032-Bis(dimethylamino)triphenylcarbinol", "Bis(p-dimethylaminophenyl)phenylmethanol", "Bis(4-N,N-dimethylaminophenyl)phenylmethyl alcohol", "p,p\u2032-(N,N-Dimethylaminotriphenylmethanol", "1,1-Bis(4-dimethylaminophenyl)-1-phenylmethanol", "Malachite green carbinol base"], "SMILES": "C(O)(C1=CC=C(N(C)C)C=C1)(C2=CC=C(N(C)C)C=C2)C3=CC=CC=C3", "physical_data": {"Molecular Weight": "346.47", "Molecular Formula": "C23H26N2O", "Melting Point": "119 \u00b0C (polymorph)"}}