{"cas_no": "510-15-6", "cn_name": "\u4e01\u9170\u80bc", "en_name": ["Chlorobenzilate", "Benzeneacetic acid, 4-chloro-\u03b1-(4-chlorophenyl)-\u03b1-hydroxy-, ethyl ester", "Benzilic acid, 4,4\u2032-dichloro-, ethyl ester", "Akar 338", "G 338", "Geigy 338", "G 23992", "Chlorbenzilat", "Chlorobenzilate", "4,4\u2032-Dichlorobenzilic acid ethyl ester", "Ethyl 4,4\u2032-dichlorobenzilate", "Ethyl-2-hydroxy-2,2-bis(4-chlorophenyl)acetate", "Akar", "Acaraben", "Benzilan", "Chlorbenzylate", "Folbex", "Acar", "ECB", "NSC 404460"], "SMILES": "C(C(OCC)=O)(O)(C1=CC=C(Cl)C=C1)C2=CC=C(Cl)C=C2", "physical_data": {"Molecular Weight": "325.19", "Molecular Formula": "C16H14Cl2O3", "Boiling Point": "146-148 \u00b0C @ Press: 0.04 Torr", "Melting Point": "36-37.5 \u00b0C", "Density": "1.28 g/cm\u00b3"}}