{"cas_no": "510-18-9", "cn_name": "\u918b\u9709\u7d20", "en_name": ["(3S,4S,5R)-3-Acetyl-5-(acetyloxy)dihydro-3,4-dimethyl-2(3H)-furanone", "2(3H)-Furanone, 3-acetyl-5-(acetyloxy)dihydro-3,4-dimethyl-, (3S,4S,5R)-", "2(3H)-Furanone, 3-acetyl-5-(acetyloxy)dihydro-3,4-dimethyl-, [3S-(3\u03b1,4\u03b1,5\u03b1)]-", "Acetomycin", "(3S,4S,5R)-3-Acetyl-5-(acetyloxy)dihydro-3,4-dimethyl-2(3H)-furanone", "(-)-Acetomycin", "NSC 350598"], "SMILES": "C(C)(=O)C1(C)C(C)C(OC(C)=O)OC1=O", "physical_data": {"Molecular Weight": "214.22", "Molecular Formula": "C10H14O5", "Melting Point": "115-116 \u00b0C"}}