{"cas_no": "510-22-5", "cn_name": "\u4f0f\u5eb7\u4eac\u78b1", "en_name": ["Voacangine", "Ibogamine-18-carboxylic acid, 12-methoxy-, methyl ester", "Voacangine", "6,9-Methano-5H-pyrido[1\u2032,2\u2032:1,2]azepino[4,5-b]indole, ibogamine-18-carboxylic acid deriv.", "Carbomethoxyibogaine", "(-)-Voacangine", "10-Methoxycoronaridine"], "SMILES": "C(OC)(=O)C12C3N(CC(C1)CC3CC)CCC4=C2NC=5C4=CC(OC)=CC5", "physical_data": {"Molecular Weight": "368.47", "Molecular Formula": "C22H28N2O3", "Melting Point": "137-138 \u00b0C"}}