{"cas_no": "510-30-5", "cn_name": "\u523a\u56ca\u9178", "en_name": ["Echinocystic acid", "Olean-12-en-28-oic acid, 3,16-dihydroxy-, (3\u03b2,16\u03b1)-", "Echinocystic acid", "Olean-12-en-28-oic acid, 3\u03b2,16\u03b1-dihydroxy-", "(3\u03b2,16\u03b1)-3,16-Dihydroxyolean-12-en-28-oic acid"], "SMILES": "C(O)(=O)C12C(C=3C(C)(CC1O)C4(C)C(CC3)C5(C)C(CC4)C(C)(C)C(O)CC5)CC(C)(C)CC2", "physical_data": {"Molecular Weight": "472.70", "Molecular Formula": "C30H48O4", "Melting Point": "305-312 \u00b0C (decomp)"}}