{"cas_no": "510-20-3", "cn_name": "\u4e8c\u4e59\u57fa\u4e19\u4e8c\u9178", "en_name": ["Malonic acid, diethyl-", "Propanedioic acid, 2,2-diethyl-", "Malonic acid, diethyl-", "Propanedioic acid, diethyl-", "2,2-Diethylpropanedioic acid", "3,3-Pentanedicarboxylic acid", "Diethylmalonic acid", "2,2-Diethylmalonic acid", "NSC 1986"], "SMILES": "C(C(O)=O)(C(O)=O)(CC)CC", "physical_data": {"Molecular Weight": "160.17", "Molecular Formula": "C7H12O4", "Boiling Point": "115-120 \u00b0C", "Melting Point": "127 \u00b0C (decomp)"}}