{"cas_no": "510-77-0", "cn_name": "\u6c22\u6eb4\u9178\u52a0\u5170\u4ed6\u654f", "en_name": ["Narwedine", "6H-Benzofuro[3a,3,2-ef][2]benzazepin-6-one, 4a,5,9,10,11,12-hexahydro-3-methoxy-11-methyl-, (4aS,8aS)-", "Narwedine", "Galanthamine, 3-deoxy-3-oxo-", "(4aS,8aS)-4a,5,9,10,11,12-Hexahydro-3-methoxy-11-methyl-6H-benzofuro[3a,3,2-ef][2]benzazepin-6-one", "Galanthaminone", "(-)-Narwedine", "Narwedin"], "SMILES": "O(C)C1=C2C=3C4(C(O2)CC(=O)C=C4)CCN(C)CC3C=C1", "physical_data": {"Molecular Weight": "285.34", "Molecular Formula": "C17H19NO3", "Melting Point": "188-190 \u00b0C"}}