{"cas_no": "510-75-8", "cn_name": "\u8d64\u9709\u7d20 A7", "en_name": ["Gibberellin A7", "Gibb-3-ene-1,10-dicarboxylic acid, 2,4a-dihydroxy-1-methyl-8-methylene-, 1,4a-lactone, (1\u03b1,2\u03b2,4a\u03b1,4b\u03b2,10\u03b2)-", "Gibberellin A7", "4a\u03b1,4b\u03b2-Gibb-3-ene-1\u03b1,10\u03b2-dicarboxylic acid, 2\u03b2,4a-dihydroxy-1-methyl-8-methylene-, 1,4a-lactone", "1H-7,9a-Methanobenz[a]azulene-1,10-dicarboxylic acid, 2,4a,4b,5,6,7,8,9,10,10a-decahydro-2,4a-dihydroxy-1-methyl-8-methylene-, 1,4a-lactone", "4a,1-(Epoxymethano)-7,9a-methanobenz[a]azulene, gibb-3-ene-1,10-dicarboxylic acid deriv.", "GA7"], "SMILES": "C(O)(=O)C1C2C3(C4C15CC(CC4)C(=C)C5)OC(=O)C2(C)C(O)C=C3", "physical_data": {"Molecular Weight": "330.38", "Molecular Formula": "C19H22O5", "Melting Point": "227-230 \u00b0C"}}