{"cas_no": "5100-34-5", "cn_name": "\u4e59\u57fa3-\u4e19\u70ef\u9178\u916f", "en_name": ["Propanoic acid, 3-isocyanato-, ethyl ester", "Propanoic acid, 3-isocyanato-, ethyl ester", "Propionic acid, 3-isocyanato-, ethyl ester", "Ethyl 3-isocyanatopropanoate", "Ethyl 3-isocyanatopropionate", "3-Isocyanatopropanoic acid ethyl ester", "3-Isocyanato-propionic acid ethyl ester"], "SMILES": "C(C(OCC)=O)CN=C=O", "physical_data": {"Molecular Weight": "143.14", "Molecular Formula": "C6H9NO3", "Boiling Point": "94-95 \u00b0C @ Press: 20 Torr"}}