{"cas_no": "51004-61-6", "cn_name": "AF-2", "en_name": ["AF 2 (foaming agent)", "AF 2 (foaming agent)", "AF 2"], "SMILES": "", "physical_data": {"Molecular Weight": "", "Molecular Formula": "Unspecified", "Boiling Point": "&gt;170 \u00b0C"}}