{"cas_no": "51012-32-9", "cn_name": "\u6cf0\u5fc5\u5229", "en_name": ["Tiapride", "Benzamide, N-[2-(diethylamino)ethyl]-2-methoxy-5-(methylsulfonyl)-", "N-[2-(Diethylamino)ethyl]-2-methoxy-5-(methylsulfonyl)benzamide", "Tiapride", "Thiapride", "FLO 1347", "FLC 1374", "Tiaprizal"], "SMILES": "C(NCCN(CC)CC)(=O)C1=C(OC)C=CC(S(C)(=O)=O)=C1", "physical_data": {"Molecular Weight": "328.43", "Molecular Formula": "C15H24N2O4S", "Melting Point": "124 \u00b0C"}}