{"cas_no": "51015-29-3", "cn_name": "3,4-\u4e8c\u6c22\u5316-6-\u7532\u57fa-1(2H)-\u8418\u916e", "en_name": ["6-Methyl-1-tetralone", "1(2H)-Naphthalenone, 3,4-dihydro-6-methyl-", "3,4-Dihydro-6-methyl-1(2H)-naphthalenone", "6-Methyl-\u03b1-tetralone", "6-Methyl-1-tetralone", "6-Methyl-3,4-dihydronaphthalen-1(2H)-one"], "SMILES": "O=C1C=2C(=CC(C)=CC2)CCC1", "physical_data": {"Molecular Weight": "160.21", "Molecular Formula": "C11H12O", "Boiling Point": "129-132 \u00b0C"}}