{"cas_no": "51012-65-8", "cn_name": "2-\u6eb4-1-O-\u7532\u82ef\u57fa-\u4e59\u916e", "en_name": ["2-Bromo-1-(2-methylphenyl)ethanone", "Ethanone, 2-bromo-1-(2-methylphenyl)-", "2-Bromo-1-(2-methylphenyl)ethanone", "2-Bromo-2\u2032-methylacetophenone", "2-Methylphenacyl bromide", "2-Bromo-1-o-tolylethanone", "\u03b1-Bromo-2-methylacetophenone", "2-Bromo-1-(2-methylphenyl)ethan-1-one"], "SMILES": "C(CBr)(=O)C1=C(C)C=CC=C1", "physical_data": {"Molecular Weight": "213.07", "Molecular Formula": "C9H9BrO", "Boiling Point": "138-140 \u00b0C @ Press: 16 Torr"}}