{"cas_no": "51019-43-3", "cn_name": "(-)-O-\u4e59\u9170\u57fa-D-\u6241\u6843\u9178", "en_name": ["(-)-O-Acetylmandelic acid", "Benzeneacetic acid, \u03b1-(acetyloxy)-, (\u03b1R)-", "Benzeneacetic acid, \u03b1-(acetyloxy)-, (R)-", "(\u03b1R)-\u03b1-(Acetyloxy)benzeneacetic acid", "O-Acetyl-D-mandelic acid", "(R)-O-Acetylmandelic acid", "(R)-Mandelic acid O-acetate", "(R)-(-)-O-Acetylmandelic acid", "D-(-)-Acetylmandelic Acid", "O-Acetyl-(R)-mandelic acid", "(R)-Acetylmandelic acid", "(R)-2-Acetoxy-2-phenylacetic acid", "D-O-Acetylmandelic acid", "(-)-O-Acetylmandelic acid", "(2R)-2-Acetoxy-2-phenylacetic acid", "(2R)-2-Acetyloxy-2-phenylacetic acid", "(R)-(-)-\u03b1-Acetoxyphenylacetic Acid", "(2R)-2-(Acetyloxy)-2-phenylacetic acid"], "SMILES": "C(OC(C)=O)(C(O)=O)C1=CC=CC=C1", "physical_data": {"Molecular Weight": "194.18", "Molecular Formula": "C10H10O4", "Melting Point": "97 \u00b0C"}}