{"cas_no": "51022-70-9", "cn_name": "\u786b\u9178\u6c99\u4e01\u80fa\u9187", "en_name": ["Salbutamol sulfate", "1,3-Benzenedimethanol, \u03b11-[[(1,1-dimethylethyl)amino]methyl]-4-hydroxy-, sulfate (2:1)", "1,3-Benzenedimethanol, \u03b11-[[(1,1-dimethylethyl)amino]methyl]-4-hydroxy-, sulfate (2:1) (salt)", "Salbutamol hemisulfate", "Salbutamol sulfate", "Venetlin", "Albuterol sulfate", "Albuterol hemisulfate", "dl-Salbutamol sulfate", "(\u00b1)-Salbutamol sulfate", "Proventil", "Almotex", "Airet", "Asmalin", "Anebron", "Asmadil", "Asmatol", "Asmaven", "Asmavent", "Asmidon", "Asmol Uni-Dose", "Asthalin", "Broncho-Spray", "Broncovaleas", "Bronter", "Bugonol", "Butamol", "Buto-Asma", "Butotal", "Asmanil", "Asmasal", "Dilatamol", "Farcolin", "Grafalin", "Instavent", "Libretin", "Medolin", "Mozal", "Novosalmol", "Parasma", "Respax", "Salbetol", "Salbron", "Salbulin", "Salbusian", "Salbutalan", "Salbutan", "Salbutol", "Salbuven", "Salbuvent", "Salmaplon", "Salomol", "Sedalin", "Suprasma", "Theosal", "Tobybron", "Vencronyl", "Ventilan", "Ventimax", "Ventolin Rotacaps", "Buventol", "Cobutolin", "Aerolin", "Ecovent", "Ventelin", "Salbutard", "Volma", "Cetsim", "Salbutine", "Ventodiscks", "Loftan", "Salbumol", "Sch 13949W sulfate", "NSC 289928", "Ventorline CR", "Salbovent", "Ventorain", "Salorain", "AccuNeb"], "SMILES": "S(=O)(=O)(O)O.C(CNC(C)(C)C)(O)C1=CC(CO)=C(O)C=C1", "physical_data": {"Molecular Weight": "", "Molecular Formula": "C13H21NO3.<sup>1</sup>/2H2O4S", "Melting Point": "186.91 \u00b0C"}}