{"cas_no": "51030-47-8", "cn_name": "\u6b63\u4e01\u9187\u94cc", "en_name": ["1-Butanol, niobium(5+) salt (5:1)", "1-Butanol, niobium(5+) salt (5:1)", "1-Butanol, niobium(5+) salt", "Niobium butoxide (Nb(OBu)5)", "Niobium pentabutoxide", "Niobium(V) butoxide", "Pentakisbutoxyniobium", "Niobium butoxide"], "SMILES": "C(CC)CO.[Nb]", "physical_data": {"Molecular Weight": "", "Molecular Formula": "C4H10O.<sup>1</sup>/5Nb", "Boiling Point": "197 \u00b0C @ Press: 0.15 Torr", "Density": "1.090 g/cm\u00b3"}}