{"cas_no": "5103-74-2", "cn_name": "\u53cd\u5f0f\u6c2f\u4e39", "en_name": ["trans-Chlordane", "4,7-Methano-1H-indene, 1,2,4,5,6,7,8,8-octachloro-2,3,3a,4,7,7a-hexahydro-, (1R,2R,3aS,4S,7R,7aS)-rel-", "4,7-Methanoindan, 1\u03b2,2\u03b1,4\u03b1,5,6,7\u03b1,8,8-octachloro-3a\u03b2,4,7,7a\u03b2-tetrahydro-", "4,7-Methano-1H-indene, 1,2,4,5,6,7,8,8-octachloro-2,3,3a,4,7,7a-hexahydro-, (1\u03b1,2\u03b2,3a\u03b1,4\u03b2,7\u03b2,7a\u03b1)-", "rel-(1R,2R,3aS,4S,7R,7aS)-1,2,4,5,6,7,8,8-Octachloro-2,3,3a,4,7,7a-hexahydro-4,7-methano-1H-indene", "Chlordan, trans-", "trans-Chlordane", "trans-Chlordan", "\u03b2-Chlordan", "trans-1,2,4,5,6,7,8,8-Octachloro-3a,4,7,7a-tetrahydro-4,7-endo-methanoindan", "\u03b2-Chlordane", "(\u00b1)-trans-Chlordane", "\u03b3-Chlordan", "\u03b3-Chlordane", "trans-\u03b3-Chlordane"], "SMILES": "ClC12C3C(C(Cl)(C1(Cl)Cl)C(Cl)=C2Cl)C(Cl)C(Cl)C3", "physical_data": {"Molecular Weight": "409.78", "Molecular Formula": "C10H6Cl8", "Melting Point": "133 \u00b0C"}}