{"cas_no": "5103-42-4", "cn_name": "\u8fd8\u539f\u831a\u6ee1\u4e09\u916e", "en_name": ["Hydrindantin", "[2,2\u2032-Bi-1H-indene]-1,1\u2032,3,3\u2032(2H,2\u2032H)-tetrone, 2,2\u2032-dihydroxy-", "[2,2\u2032-Biindan]-1,1\u2032,3,3\u2032-tetrone, 2,2\u2032-dihydroxy-", "2,2\u2032-Dihydroxy[2,2\u2032-bi-1H-indene]-1,1\u2032,3,3\u2032(2H,2\u2032H)-tetrone", "Hydrindantin", "NSC 83617", "2,2\u2032-Dihydroxy-1H,1\u2032H-[2,2\u2032-biindene]-1,1\u2032,3,3\u2032(2H,2\u2032H)-tetraone", "2-Hydroxy-2-(2-hydroxy-1,3-dioxo-2,3-dihydro-1H-inden-2-yl)-2,3-dihydro-1H-indene-1,3-dione", "2-Hydroxy-2-(2-hydroxy-1,3-dioxoinden-2-yl)indene-1,3-dione"], "SMILES": "OC1(C(=O)C=2C(C1=O)=CC=CC2)C3(O)C(=O)C=4C(C3=O)=CC=CC4", "physical_data": {"Molecular Weight": "322.27", "Molecular Formula": "C18H10O6", "Melting Point": "250 \u00b0C (decomp)"}}