{"cas_no": "5103-71-9", "cn_name": "\u987a\u5f0fA-\u6c2f\u4e39", "en_name": ["cis-Chlordane", "4,7-Methano-1H-indene, 1,2,4,5,6,7,8,8-octachloro-2,3,3a,4,7,7a-hexahydro-, (1R,2S,3aS,4S,7R,7aS)-rel-", "4,7-Methanoindan, 1\u03b1,2\u03b1,4\u03b2,5,6,7\u03b2,8,8-octachloro-3a\u03b1,4,7,7a\u03b1-tetrahydro-", "4,7-Methano-1H-indene, 1,2,4,5,6,7,8,8-octachloro-2,3,3a,4,7,7a-hexahydro-, (1\u03b1,2\u03b1,3a\u03b1,4\u03b2,7\u03b2,7a\u03b1)-", "rel-(1R,2S,3aS,4S,7R,7aS)-1,2,4,5,6,7,8,8-Octachloro-2,3,3a,4,7,7a-hexahydro-4,7-methano-1H-indene", "Chlordan, cis-", "cis-Chlordane", "\u03b1-Chlordan", "\u03b1-Chlordane", "cis-1,2,4,5,6,7,8,8-Octachloro-3a,4,7,7a-tetrahydro-4,7-endo-methanoindan", "cis-Chlordan", "(\u00b1)-cis-Chlordane", "cis-\u03b1-Chlordane"], "SMILES": "ClC12C3C(C(Cl)(C1(Cl)Cl)C(Cl)=C2Cl)C(Cl)C(Cl)C3", "physical_data": {"Molecular Weight": "409.78", "Molecular Formula": "C10H6Cl8", "Melting Point": "133 \u00b0C"}}