{"cas_no": "5103-73-1", "cn_name": "\u4e94\u6eb4\u8054\u82ef\u919a", "en_name": ["cis-Nonachlor", "4,7-Methano-1H-indene, 1,2,3,4,5,6,7,8,8-nonachloro-2,3,3a,4,7,7a-hexahydro-, (1R,3S,3aR,4S,7R,7aS)-rel-", "4,7-Methanoindan, 1\u03b1,2\u03b1,3\u03b1,4\u03b2,5,6,7\u03b2,8,8-nonachloro-3a\u03b1,4,7,7a\u03b1-tetrahydro-", "4,7-Methano-1H-indene, 1,2,3,4,5,6,7,8,8-nonachloro-2,3,3a,4,7,7a-hexahydro-, (1\u03b1,2\u03b1,3\u03b1,3a\u03b1,4\u03b2,7\u03b2,7a\u03b1)-", "rel-(1R,3S,3aR,4S,7R,7aS)-1,2,3,4,5,6,7,8,8-Nonachloro-2,3,3a,4,7,7a-hexahydro-4,7-methano-1H-indene", "Nonachlor, cis-", "cis-Nonachlor", "cis-Nonachlordane"], "SMILES": "ClC12C3C(C(Cl)(C1(Cl)Cl)C(Cl)=C2Cl)C(Cl)C(Cl)C3Cl", "physical_data": {"Molecular Weight": "444.22", "Molecular Formula": "C10H5Cl9", "Melting Point": "214-215 \u00b0C"}}