{"cas_no": "5104-49-4", "cn_name": "\u6c1f\u6bd4\u6d1b\u82ac", "en_name": ["Flurbiprofen", "[1,1\u2032-Biphenyl]-4-acetic acid, 2-fluoro-\u03b1-methyl-", "4-Biphenylacetic acid, 2-fluoro-\u03b1-methyl-", "Hydratropic acid, 3-fluoro-4-phenyl-", "2-Fluoro-\u03b1-methyl[1,1\u2032-biphenyl]-4-acetic acid", "3-Fluoro-4-phenylhydratropic acid", "2-(2-Fluoro-4-biphenylyl)propionic acid", "Flurbiprofen", "FP 70", "2-(2-Fluoro-4-biphenyl)propionic acid", "Froben", "FP-A", "Ansaid", "Flugalin", "U 27182", "2-(2-Fluoro-4-biphenylyl)propanoic acid", "2-Fluoro-\u03b1-methyl-4-diphenylacetic acid", "2-Fluoro-\u03b1-methyl-4-biphenylacetic acid", "dl-2-(2-Fluoro-4-biphenylyl)propionic acid", "(\u00b1)-Flurbiprofen", "Racemic flurbiprofen", "dl-Flurbiprofen", "rac-Flurbiprofen", "Stayban", "Adfeed", "Antadys", "Cebutid", "Zepolas", "Flurofen", "BTS 18322", "2-(2-Fluoro-1,1\u2032-biphenyl-4-yl)propanoic acid", "Fluribiprofen", "Fluroben", "Synalgo", "Flurbifen", "2-(3-Fluoro-4-phenylphenyl)propanoic acid", "MeSH ID: D005480"], "SMILES": "FC1=C(C=CC(C(C(O)=O)C)=C1)C2=CC=CC=C2", "physical_data": {"Molecular Weight": "244.26", "Molecular Formula": "C15H13FO2", "Melting Point": "110-111 \u00b0C", "Density": "0.32 g/cm\u00b3"}}