{"cas_no": "51059-44-0", "cn_name": "\u6c49\u9ec4\u82a9\u82f7", "en_name": ["Wogonoside", "\u03b2-D-Glucopyranosiduronic acid, 5-hydroxy-8-methoxy-4-oxo-2-phenyl-4H-1-benzopyran-7-yl", "5-Hydroxy-8-methoxy-4-oxo-2-phenyl-4H-1-benzopyran-7-yl \u03b2-D-glucopyranosiduronic acid", "Wogonoside", "Wogonin 7-\u03b2-D-glucuronide", "Wogonin 7-glucuronide", "Oroxindin", "Wogonin 7-O-glucuronide", "Wogonin 7-O-\u03b2-D-glucuronide", "Wogonin 7-O-\u03b2-D-glucuronopyranoside", "Glychionide B"], "SMILES": "O(C)C1=C2C(=C(O)C=C1OC3OC(C(O)=O)C(O)C(O)C3O)C(=O)C=C(O2)C4=CC=CC=C4", "physical_data": {"Molecular Weight": "460.39", "Molecular Formula": "C22H20O11", "Melting Point": "228-229 \u00b0C"}}