{"cas_no": "51052-62-1", "cn_name": "\u76d0\u9178\u7f8e\u91d1\u521a", "en_name": ["Memantine", "Tricyclo[3.3.1.13,7]decan-1-amine, 3,5-dimethyl-", "1-Adamantanamine, 3,5-dimethyl-", "3,5-Dimethyltricyclo[3.3.1.13,7]decan-1-amine", "1,3-Dimethyl-5-aminoadamantane", "3,5-Dimethyl-1-adamantylamine", "D 145", "1-Amino-3,5-dimethyladamantane", "1,3-Dimethyl-5-adamantanamine", "Memantine", "D 145 (sympathomimetic)", "DMAA", "DRG 0267", "Memantina", "Alzantin", "3,5-Dimethyl-1-adamantanamine", "3,5-Dimethyl-adamantan-1-ylamine", "Nemdatine", "TGN-S 13", "MeSH ID: D008559"], "SMILES": "CC12CC3(C)CC(N)(C1)CC(C2)C3", "physical_data": {"Molecular Weight": "179.30", "Molecular Formula": "C12H21N", "Melting Point": "258 \u00b0C"}}