{"cas_no": "5105-78-2", "cn_name": "N-\u82c4\u6c27\u7fb0\u57fa-4-\u6c28\u57fa\u4e01\u9178", "en_name": ["4-(Benzyloxycarbonylamino)butyric acid", "Butanoic acid, 4-[[(phenylmethoxy)carbonyl]amino]-", "Butyric acid, 4-(carboxyamino)-, N-benzyl ester", "Butyric acid, 4-(carboxyamino)-, 4-benzyl ester", "4-[[(Phenylmethoxy)carbonyl]amino]butanoic acid", "Carbobenzoxy-4-aminobutyric acid", "N-Carbobenzyloxy-\u03b3-aminobutyric acid", "4-(Benzyloxycarbonylamino)butyric acid", "4-(Benzyloxycarbonylamino)butanoic acid", "N-Benzyloxycarbonyl-\u03b3-aminobutyric acid", "4-[(N-Carbobenzoxy)amino]butyric acid", "4-((N-Benzyloxycarbonyl)amino)butyric acid", "NSC 120007", "Benzyl (3-carboxypropyl)carbamate", "4-(Cbz-amino)butyric acid"], "SMILES": "C(OC(NCCCC(O)=O)=O)C1=CC=CC=C1", "physical_data": {"Molecular Weight": "237.25", "Molecular Formula": "C12H15NO4", "Melting Point": "64.5 \u00b0C"}}