{"cas_no": "51066-74-1", "cn_name": "\u4e8c\u7532\u80fa\u6c22\u7898\u9178\u76d0", "en_name": ["Methanamine, N-methyl-, hydriodide", "Methanamine, N-methyl-, hydriodide", "Dimethylamine hydriodide", "Dimethylammonium iodide", "Methanaminium, N-methyl-, iodide (1:1)"], "SMILES": "N(C)C.I", "physical_data": {"Molecular Weight": "", "Molecular Formula": "C2H7N.HI", "Melting Point": "147 \u00b0C"}}