{"cas_no": "51064-65-4", "cn_name": "1,4-\u7532\u82ef\u78fa\u9170\u57fa-2,3-\u5f02\u4e9a\u4e19\u57fa\u82cf\u7cd6\u9187", "en_name": ["1,3-Dioxolane-4,5-dimethanol, 2,2-dimethyl-, 4,5-bis(4-methylbenzenesulfonate), (4R,5R)-", "1,3-Dioxolane-4,5-dimethanol, 2,2-dimethyl-, 4,5-bis(4-methylbenzenesulfonate), (4R,5R)-", "1,3-Dioxolane-4,5-dimethanol, 2,2-dimethyl-, bis(4-methylbenzenesulfonate), (4R-trans)-", "1,3-Dioxolane-4,5-dimethanol, 2,2-dimethyl-, bis(4-methylbenzenesulfonate), (4R,5R)-", "2,3-Isopropylidene-D-threitol-1,4-ditosylate", "(+)-1,4-Di-O-p-toluenesulfonyl-2,3-O-isopropylidene-D-threitol", "1,4-Di-O-p-toluenesulfonyl-2,3-O-isopropylidene-D-threitol", "1,4-Ditosyl-2,3-O-isopropylidene-D-threitol", "1,4-Di-O-tosyl-2,3-O-isopropylidene-D-threitol", "(4R,5R)-4,5-Bis[[[(4-methylphenyl)sulfonyl]oxy]methyl]-2,2-dimethyl-[1,3]dioxolane", "((4R,5R)-2,2-Dimethyl-1,3-dioxolane-4,5-diyl)bis(methylene) bis(4-methylbenzenesulfonate)"], "SMILES": "C(OS(=O)(=O)C1=CC=C(C)C=C1)C2C(COS(=O)(=O)C3=CC=C(C)C=C3)OC(C)(C)O2", "physical_data": {"Molecular Weight": "470.56", "Molecular Formula": "C21H26O8S2", "Melting Point": "91-92 \u00b0C"}}