{"cas_no": "5106-98-9", "cn_name": "4-\u6c2f\u6c34\u6768\u9178", "en_name": ["4-Chlorosalicylic acid", "Benzoic acid, 4-chloro-2-hydroxy-", "Salicylic acid, 4-chloro-", "4-Chloro-2-hydroxybenzoic acid", "4-Chlorosalicylic acid", "2-Hydroxy-4-chlorobenzoic acid", "p-Chlorosalicylic acid", "NSC 15816"], "SMILES": "C(O)(=O)C1=C(O)C=C(Cl)C=C1", "physical_data": {"Molecular Weight": "172.57", "Molecular Formula": "C7H5ClO3", "Melting Point": "211 \u00b0C"}}