{"cas_no": "51072-36-7", "cn_name": "1,2,3,4,5,6,7,8-\u516b\u6c22-1-(\u7532\u6c27\u82ef\u57fa)\u7532\u57fa\u5f02\u55b9\u5549", "en_name": ["1,2,3,4,5,6,7,8-Octahydro-1-[(4-methoxyphenyl)methyl]isoquinoline", "Isoquinoline, 1,2,3,4,5,6,7,8-octahydro-1-[(4-methoxyphenyl)methyl]-", "Isoquinoline, 1,2,3,4,5,6,7,8-octahydro-1-(p-methoxybenzyl)-", "1,2,3,4,5,6,7,8-Octahydro-1-[(4-methoxyphenyl)methyl]isoquinoline", "1-(p-Methoxybenzyl)-1,2,3,4,5,6,7,8-octahydroisoquinoline", "(\u00b1)-1-(4-Methoxybenzyl)-1,2,3,4,5,6,7,8-octahydroisoquinoline", "1-(4-Methoxybenzyl)-1,2,3,4,5,6,7,8-octahydroisoquinoline", "1-[(4-Methoxyphenyl)methyl]-1,2,3,4,5,6,7,8-octahydroisoquinoline"], "SMILES": "C(C1C2=C(CCN1)CCCC2)C3=CC=C(OC)C=C3", "physical_data": {"Molecular Weight": "257.37", "Molecular Formula": "C17H23NO", "Melting Point": "199 \u00b0C"}}