{"cas_no": "51076-95-0", "cn_name": "2-\u6c2f-1,1,1-\u4e09\u4e59\u6c27\u57fa\u4e59\u70f7", "en_name": ["2-Chloro-1,1,1-triethoxyethane", "Ethane, 2-chloro-1,1,1-triethoxy-", "Orthoacetic acid, chloro-, triethyl ester", "2-Chloro-1,1,1-triethoxyethane", "Ethyl orthochloroacetate", "1-Chloro-2,2,2-triethoxyethane", "NSC 203073", "Triethyl orthochloroacetate"], "SMILES": "C(OCC)(OCC)(OCC)CCl", "physical_data": {"Molecular Weight": "196.67", "Molecular Formula": "C8H17ClO3", "Boiling Point": "74-75 \u00b0C @ Press: 13 Torr", "Melting Point": "60-68 \u00b0C", "Density": "1.0349 g/cm\u00b3 @ Temp: 25 \u00b0C"}}