{"cas_no": "51072-34-5", "cn_name": "N-[2-(1,1-\u73af\u5df1\u70ef\u57fa)-\u4e59\u57fa]-4-\u7532\u6c27\u57fa\u82ef\u57fa\u4e59\u9170\u80fa", "en_name": ["N-[2-(1-Cyclohexen-1-yl)ethyl]-4-methoxybenzeneacetamide", "Benzeneacetamide, N-[2-(1-cyclohexen-1-yl)ethyl]-4-methoxy-", "Acetamide, N-[2-(1-cyclohexen-1-yl)ethyl]-2-(p-methoxyphenyl)-", "N-[2-(1-Cyclohexen-1-yl)ethyl]-4-methoxybenzeneacetamide"], "SMILES": "C(C(NCCC=1CCCCC1)=O)C2=CC=C(OC)C=C2", "physical_data": {"Molecular Weight": "273.37", "Molecular Formula": "C17H23NO2", "Melting Point": "88-90 \u00b0C"}}