{"cas_no": "51079-10-8", "cn_name": "2-(3-\u5432\u54da)-2-\u6c27\u4ee3\u4e59\u9178\u4e59\u916f", "en_name": ["Ethyl \u03b1-oxo-1H-indole-3-acetate", "1H-Indole-3-acetic acid, \u03b1-oxo-, ethyl ester", "Indole-3-glyoxylic acid, ethyl ester", "Ethyl \u03b1-oxo-1H-indole-3-acetate", "Ethyl indole-3-glyoxylate", "NSC 402543", "Ethyl 2-(1H-indol-3-yl)-2-oxoacetate", "Ethyl 3-indolylglyoxylate"], "SMILES": "C(C(OCC)=O)(=O)C=1C=2C(NC1)=CC=CC2", "physical_data": {"Molecular Weight": "217.22", "Molecular Formula": "C12H11NO3", "Melting Point": "185-186 \u00b0C"}}