{"cas_no": "510758-28-8", "cn_name": "\u4e09[(1-\u82c4\u57fa-1H-1,2,3-\u4e09\u5511-4-\u57fa)\u7532\u57fa]\u80fa", "en_name": ["Tris[(1-benzyl-1H-1,2,3-triazol-4-yl)methyl]amine", "1H-1,2,3-Triazole-4-methanamine, 1-(phenylmethyl)-N,N-bis[[1-(phenylmethyl)-1H-1,2,3-triazol-4-yl]methyl]-", "1-(Phenylmethyl)-N,N-bis[[1-(phenylmethyl)-1H-1,2,3-triazol-4-yl]methyl]-1H-1,2,3-triazole-4-methanamine", "N,N,N-Tris[(1-benzyl-1H-1,2,3-triazol-4-yl)methyl]amine", "Tris[(1-benzyl-1H-1,2,3-triazol-4-yl)methyl]amine", "TBTA", "1-(1-Benzyltriazol-4-yl)-N,N-bis[(1-benzyltriazol-4-yl)methyl]methanamine", "Tris[(1-benzyl-1H-1,2,3-triazol-4-yl)methyl]amine", "Tris-(benzyltriazolylmethyl)amine", "1-(1-Benzyl-1H-1,2,3-triazol-4-yl)-N,N-bis[(1-benzyl-1H-1,2,3-triazol-4-yl)methyl]methanamine"], "SMILES": "N(CC1=CN(CC2=CC=CC=C2)N=N1)(CC3=CN(CC4=CC=CC=C4)N=N3)CC5=CN(CC6=CC=CC=C6)N=N5", "physical_data": {"Molecular Weight": "530.63", "Molecular Formula": "C30H30N10", "Melting Point": "146-148 \u00b0C"}}