{"cas_no": "51072-66-3", "cn_name": "4-\u6eb4-5-\u785d\u57fa\u90bb\u82ef\u4e8c\u7532\u919a", "en_name": ["1-Bromo-4,5-dimethoxy-2-nitrobenzene", "Benzene, 1-bromo-4,5-dimethoxy-2-nitro-", "Veratrole, 4-bromo-5-nitro-", "1-Bromo-4,5-dimethoxy-2-nitrobenzene", "4-Bromo-5-nitroveratrole", "2-Bromo-4,5-dimethoxynitrobenzene", "1-Bromo-3,4-dimethoxy-6-nitrobenzene", "4,5-Dimethoxy-1-bromo-2-nitrobenzene"], "SMILES": "N(=O)(=O)C1=C(Br)C=C(OC)C(OC)=C1", "physical_data": {"Molecular Weight": "262.06", "Molecular Formula": "C8H8BrNO4", "Melting Point": "121 \u00b0C"}}