{"cas_no": "5108-96-3", "cn_name": "\u5421\u54af\u70f7\u4e8c\u786b\u4ee3\u7532\u9178\u94f5\u76d0", "en_name": ["Ammonium 1-pyrrolidinedithiocarboxylate", "1-Pyrrolidinecarbodithioic acid, ammonium salt (1:1)", "1-Pyrrolidinecarbodithioic acid, ammonium salt", "Ammonium 1-pyrrolidinecarbodithioate", "Ammonium 1-pyrrolidinedithiocarboxylate", "Ammonium pyrrolidinecarbodithioate", "Ammonium N,N-tetramethylenedithiocarbamate", "Ammonium pyrrolidinedithiocarboxylate", "APDC", "Ammonium pyrrolidine-1-dithiocarbamate", "Ammonium pyrrolidine-N-dithiocarbamate", "1-Pyrrolidinedithiocarboxylic acid ammonium salt"], "SMILES": "C(=S)(S)N1CCCC1.N", "physical_data": {"Molecular Weight": "", "Molecular Formula": "C5H9NS2.H3N", "Melting Point": "142-143 \u00b0C"}}