{"cas_no": "51094-78-1", "cn_name": "\u4e01\u9187\u94bd", "en_name": ["1-Butanol, tantalum(5+) salt (5:1)", "1-Butanol, tantalum(5+) salt (5:1)", "1-Butanol, tantalum(5+) salt", "Tantalum butoxide", "Tantalum pentabutoxide", "Pentabutoxytantalum", "(Penta-n-butoxy)tantalum", "Tantalum(5+) butoxide", "Tantalum(V) butoxide"], "SMILES": "C(CC)CO.[Ta]", "physical_data": {"Molecular Weight": "", "Molecular Formula": "C4H10O.<sup>1</sup>/5Ta", "Boiling Point": "217 \u00b0C @ Press: 0.15 Torr", "Density": "1.310 g/cm\u00b3"}}