{"cas_no": "511-05-7", "cn_name": "\u67f3\u6749\u915a", "en_name": ["Sugiol", "9(1H)-Phenanthrenone, 2,3,4,4a,10,10a-hexahydro-6-hydroxy-1,1,4a-trimethyl-7-(1-methylethyl)-, (4aS,10aS)-", "Podocarpa-8,11,13-trien-7-one, 12-hydroxy-13-isopropyl-", "Sugiol", "9(1H)-Phenanthrenone, 2,3,4,4a,10,10a-hexahydro-6-hydroxy-1,1,4a-trimethyl-7-(1-methylethyl)-, (4aS-trans)-", "(4aS,10aS)-2,3,4,4a,10,10a-Hexahydro-6-hydroxy-1,1,4a-trimethyl-7-(1-methylethyl)-9(1H)-phenanthrenone", "(+)-Sugiol", "10-Deoxoxanthoperol"], "SMILES": "CC12C=3C(=CC(C(C)C)=C(O)C3)C(=O)CC1C(C)(C)CCC2", "physical_data": {"Molecular Weight": "300.44", "Molecular Formula": "C20H28O2", "Boiling Point": "185-205 \u00b0C @ Press: 0.1 Torr", "Melting Point": "290-292 \u00b0C (decomp)"}}