{"cas_no": "511-13-7", "cn_name": "\u76d0\u9178\u6c2f\u82ef\u8fbe\u8bfa", "en_name": ["Chlophedianol hydrochloride", "Benzenemethanol, 2-chloro-\u03b1-[2-(dimethylamino)ethyl]-\u03b1-phenyl-, hydrochloride (1:1)", "Benzhydrol, 2-chloro-\u03b1-[2-(dimethylamino)ethyl]-, hydrochloride", "Benzenemethanol, 2-chloro-\u03b1-[2-(dimethylamino)ethyl]-\u03b1-phenyl-, hydrochloride", "SL 501", "Chlophedianol hydrochloride", "2-Chloro-\u03b1-[2-(dimethylamino)ethyl]benzhydrol hydrochloride", "1-o-Chlorophenyl-1-phenyl-3-dimethylamino-1-propanol hydrochloride", "\u03b1-(2-Dimethylaminoethyl)-o-chlorobenzhydrol hydrochloride", "ULO", "SK 74", "Clofedanol hydrochloride", "Detigon", "Ulone", "Refugal", "Pectolitan", "Coldrin", "1-(2-Chlorophenyl)-3-(dimethylamino)-1-phenylpropan-1-ol hydrochloride"], "SMILES": "C(CCN(C)C)(O)(C1=C(Cl)C=CC=C1)C2=CC=CC=C2.Cl", "physical_data": {"Molecular Weight": "", "Molecular Formula": "C17H20ClNO.ClH", "Melting Point": "190-191 \u00b0C"}}