{"cas_no": "511-28-4", "cn_name": "\u7ef4\u751f\u7d20D4", "en_name": ["Vitamin D4", "Cyclohexanol, 4-methylene-3-[(2E)-2-[(1R,3aS,7aR)-octahydro-7a-methyl-1-[(1R,4S)-1,4,5-trimethylhexyl]-4H-inden-4-ylidene]ethylidene]-, (1S,3Z)-", "Vitamin D4", "9,10-Secoergosta-5,7,10(19)-trien-3-ol, (3\u03b2,5Z,7E)-", "Ergocalciferol, 22,23-dihydro-", "(1S,3Z)-4-Methylene-3-[(2E)-2-[(1R,3aS,7aR)-octahydro-7a-methyl-1-[(1R,4S)-1,4,5-trimethylhexyl]-4H-inden-4-ylidene]ethylidene]cyclohexanol", "22,23-Dihydrovitamin D2", "22,23-Dihydroergocalciferol", "24S-Methylcalciol", "22,23-Dihydroercalciol"], "SMILES": "CC12C(C(=CC=C3C(=C)CCC(O)C3)CCC1)CCC2C(CCC(C(C)C)C)C", "physical_data": {"Molecular Weight": "398.66", "Molecular Formula": "C28H46O", "Melting Point": "97 \u00b0C"}}