{"cas_no": "511-67-1", "cn_name": "\u4e8c\u6eb4\u5df4\u6bd4\u59a5\u9178", "en_name": ["5,5-Dibromo-2,4,6(1H,3H,5H)-pyrimidinetrione", "2,4,6(1H,3H,5H)-Pyrimidinetrione, 5,5-dibromo-", "Barbituric acid, 5,5-dibromo-", "5,5-Dibromo-2,4,6(1H,3H,5H)-pyrimidinetrione", "5,5-Dibromobarbituric acid", "Dibromin", "DBBA", "NSC 6206", "5,5-Dibromopyrimidine-2,4,6-trione"], "SMILES": "BrC1(Br)C(=O)NC(=O)NC1=O", "physical_data": {"Molecular Weight": "285.88", "Molecular Formula": "C4H2Br2N2O3", "Melting Point": "234 \u00b0C"}}