{"cas_no": "511-89-7", "cn_name": "PLUMIERIDE", "en_name": ["Plumieride", "Spiro[cyclopenta[c]pyran-7(1H),2\u2032(5\u2032H)-furan]-4-carboxylic acid, 1-(\u03b2-D-glucopyranosyloxy)-4a,7a-dihydro-4\u2032-[(1S)-1-hydroxyethyl]-5\u2032-oxo-, methyl ester, (1S,2\u2032R,4aS,7aS)-", "Plumieride", "Spiro[cyclopenta[c]pyran-7(1H),2\u2032(5\u2032H)-furan]-4-carboxylic acid, 1-(\u03b2-D-glucopyranosyloxy)-4a,7a-dihydro-4\u2032-(1-hydroxyethyl)-5\u2032-oxo-, methyl ester, [1S-[1\u03b1,4a\u03b1,7\u03b1(R*),7a\u03b1]]-", "Agoniadin", "NSC 609065"], "SMILES": "O(C1C2C3(C=C(C(C)O)C(=O)O3)C=CC2C(C(OC)=O)=CO1)C4OC(CO)C(O)C(O)C4O", "physical_data": {"Molecular Weight": "470.42", "Molecular Formula": "C21H26O12", "Melting Point": "224-225 \u00b0C"}}