{"cas_no": "511-08-0", "cn_name": "\u9ea6\u89d2\u751f\u7269\u78b1", "en_name": ["Ergocristine", "Ergotaman-3\u2032,6\u2032,18-trione, 12\u2032-hydroxy-2\u2032-(1-methylethyl)-5\u2032-(phenylmethyl)-, (5\u2032\u03b1)-", "Ergocristine", "Indolo[4,3-fg]quinoline, ergotaman-3\u2032,6\u2032,18-trione deriv.", "8H-Oxazolo[3,2-a]pyrrolo[2,1-c]pyrazine, ergotaman-3\u2032,6\u2032,18-trione deriv.", "(5\u2032\u03b1)-12\u2032-Hydroxy-2\u2032-(1-methylethyl)-5\u2032-(phenylmethyl)ergotaman-3\u2032,6\u2032,18-trione", "Ergocrystine", "NSC 93743"], "SMILES": "OC12N(C(CC3=CC=CC=C3)C(=O)N4C1CCC4)C(=O)C(NC(=O)C5C=C6C=7C=8C(CC6N(C)C5)=CNC8C=CC7)(C(C)C)O2", "physical_data": {"Molecular Weight": "609.71", "Molecular Formula": "C35H39N5O5", "Melting Point": "155-157 \u00b0C (decomp)"}}