{"cas_no": "511-96-6", "cn_name": "\u652f\u8131\u7682\u82f7\u5143", "en_name": ["Gitogenin", "Spirostan-2,3-diol, (2\u03b1,3\u03b2,5\u03b1,25R)-", "Gitogenin", "5\u03b1-Spirostan-2\u03b1,3\u03b2-diol, (25R)-", "(2\u03b1,3\u03b2,5\u03b1,25R)-Spirostan-2,3-diol", "(25R)-5\u03b1-Spirostan-2\u03b1,3\u03b2-diol", "Digin", "5\u03b1,25D-Spirostan-2\u03b1,3\u03b2-diol", "2\u03b1-Hydroxytigogenin", "NSC 147752", "(2a,3b,5a,25R)-Spirostan-2,3-diol"], "SMILES": "CC1C2(OC3C1C4(C)C(C3)C5C(CC4)C6(C)C(CC5)CC(O)C(O)C6)CCC(C)CO2", "physical_data": {"Molecular Weight": "432.64", "Molecular Formula": "C27H44O4", "Melting Point": "266-268 \u00b0C"}}