{"cas_no": "511-09-1", "cn_name": "\u9ea6\u89d2\u514b\u78b1", "en_name": ["Ergocryptine", "Ergotaman-3\u2032,6\u2032,18-trione, 12\u2032-hydroxy-2\u2032-(1-methylethyl)-5\u2032-(2-methylpropyl)-, (5\u2032\u03b1)-", "Ergocryptine", "Indolo[4,3-fg]quinoline, ergotaman-3\u2032,6\u2032,18-trione deriv.", "8H-Oxazolo[3,2-a]pyrrolo[2,1-c]pyrazine, ergotaman-3\u2032,6\u2032,18-trione deriv.", "(5\u2032\u03b1)-12\u2032-Hydroxy-2\u2032-(1-methylethyl)-5\u2032-(2-methylpropyl)ergotaman-3\u2032,6\u2032,18-trione", "\u03b1-Ergocryptine", "Ergokryptine", "\u03b1-Ergokryptine", "NSC 169479", "NSC 407319"], "SMILES": "OC12N(C(CC(C)C)C(=O)N3C1CCC3)C(=O)C(NC(=O)C4C=C5C=6C=7C(CC5N(C)C4)=CNC7C=CC6)(C(C)C)O2", "physical_data": {"Molecular Weight": "575.70", "Molecular Formula": "C32H41N5O5", "Melting Point": "212 \u00b0C (decomp)"}}