{"cas_no": "511-15-9", "cn_name": "\u6843\u67c1\u915a", "en_name": ["(+)-Totarol", "2-Phenanthrenol, 4b,5,6,7,8,8a,9,10-octahydro-4b,8,8-trimethyl-1-(1-methylethyl)-, (4bS,8aS)-", "Podocarpa-8,11,13-trien-13-ol, 14-isopropyl-", "Totarol", "2-Phenanthrenol, 4b,5,6,7,8,8a,9,10-octahydro-4b,8,8-trimethyl-1-(1-methylethyl)-, (4bS-trans)-", "(4bS,8aS)-4b,5,6,7,8,8a,9,10-Octahydro-4b,8,8-trimethyl-1-(1-methylethyl)-2-phenanthrenol", "(+)-Totarol", "NSC 299936", "trans-Totarol", "(4AS,10aS)-7-Hydroxy-8-isopropyl-1,1,4a-trimethyl-1,2,3,4,4a,9,10,10a-octahydrophenanthrene", "(4bS-trans)-4b,5,6,7,8,8a,9,10-Octahydro-4b,8,8-trimethyl-1-(1-isopropyl)-2-phenanthrenol"], "SMILES": "CC12C=3C(=C(C(C)C)C(O)=CC3)CCC1C(C)(C)CCC2", "physical_data": {"Molecular Weight": "286.45", "Molecular Formula": "C20H30O", "Melting Point": "128-129 \u00b0C"}}