{"cas_no": "511-01-3", "cn_name": "\u0391-\u8292\u67c4\u82b1\u841c\u9187", "en_name": ["(+)-Onocerin", "2-Naphthalenol, 5,5\u2032-(1,2-ethanediyl)bis[decahydro-1,1,4a-trimethyl-6-methylene-, (2S,2\u2032S,4aR,4\u2032aR,5S,5\u2032S,8aR,8\u2032aR)-", "Onocera-8(26),14(27)-diene-3\u03b2,21\u03b1-diol", "8,14-Secogammacera-8(26),14(27)-diene-3,21-diol, (3\u03b2,21\u03b1)-", "(2S,2\u2032S,4aR,4\u2032aR,5S,5\u2032S,8aR,8\u2032aR)-5,5\u2032-(1,2-Ethanediyl)bis[decahydro-1,1,4a-trimethyl-6-methylene-2-naphthalenol]", "\u03b1-Onocerin", "Onocerin", "(+)-Onocerin"], "SMILES": "CC12C(C(C)(C)C(O)CC1)CCC(=C)C2CCC3C4(C)C(C(C)(C)C(O)CC4)CCC3=C", "physical_data": {"Molecular Weight": "442.72", "Molecular Formula": "C30H50O2", "Melting Point": "202-203 \u00b0C"}}