{"cas_no": "51100-54-0", "cn_name": "1-\u7678\u70ef-3-\u9187", "en_name": ["1-Decen-3-ol", "1-Decen-3-ol", "3-Hydroxy-1-decene"], "SMILES": "C(CC(C=C)O)CCCCC", "physical_data": {"Molecular Weight": "156.27", "Molecular Formula": "C10H20O", "Boiling Point": "78-79 \u00b0C @ Press: 1 Torr"}}