{"cas_no": "5111-65-9", "cn_name": "2-\u6eb4-6-\u7532\u6c27\u57fa\u8418", "en_name": ["2-Bromo-6-methoxynaphthalene", "Naphthalene, 2-bromo-6-methoxy-", "2-Bromo-6-methoxynaphthalene", "6-Methoxy-2-bromonaphthalene", "6-Bromo-2-methoxynaphthalene", "2-Methoxy-6-bromonaphthalene", "NSC 3236", "6-Methoxynaphth-2-yl bromide"], "SMILES": "O(C)C1=CC2=C(C=C(Br)C=C2)C=C1", "physical_data": {"Molecular Weight": "237.09", "Molecular Formula": "C11H9BrO", "Boiling Point": "180-182 \u00b0C @ Press: 14 Torr", "Melting Point": "106-107 \u00b0C"}}