{"cas_no": "5111-70-6", "cn_name": "5-\u7532\u6c27\u57fa-1-\u831a\u916e", "en_name": ["5-Methoxy-1-indanone", "1H-Inden-1-one, 2,3-dihydro-5-methoxy-", "1-Indanone, 5-methoxy-", "2,3-Dihydro-5-methoxy-1H-inden-1-one", "5-Methoxy-1-indanone", "5-Methoxyhydrindone", "5-Methoxyindanone", "NSC 82964", "5-Methoxy-2,3-dihydro-1H-inden-1-one", "2,3-Dihydro-5-methoxyinden-1-one"], "SMILES": "O=C1C=2C(=CC(OC)=CC2)CC1", "physical_data": {"Molecular Weight": "162.19", "Molecular Formula": "C10H10O2", "Boiling Point": "145-150 \u00b0C @ Press: 0.2 Torr", "Melting Point": "110 \u00b0C"}}