{"cas_no": "51114-94-4", "cn_name": "2-\u7fa7\u4e59\u57fa\u4e09\u82ef\u57fa\u6eb4\u5316\u78f7", "en_name": ["Phosphonium, (2-carboxyethyl)triphenyl-, bromide (1:1)", "Phosphonium, (2-carboxyethyl)triphenyl-, bromide (1:1)", "Phosphonium, (2-carboxyethyl)triphenyl-, bromide", "(2-Carboxyethyl)triphenylphosphonium bromide", "(\u03b2-Carboxyethyl)triphenylphosphonium bromide", "3-(Triphenylphosphonium)propionic acid bromide", "NSC 84145"], "SMILES": "[P+](CCC(O)=O)(C1=CC=CC=C1)(C2=CC=CC=C2)C3=CC=CC=C3.[Br-]", "physical_data": {"Molecular Weight": "", "Molecular Formula": "C21H20O2P.Br", "Melting Point": "186 \u00b0C"}}