{"cas_no": "51115-67-4", "cn_name": "N,2,3-\u4e09\u7532\u57fa-2-\u5f02\u4e19\u57fa\u4e01\u9170\u80fa", "en_name": ["N,2,3-Trimethyl-2-isopropylbutanamide", "Butanamide, N,2,3-trimethyl-2-(1-methylethyl)-", "N,2,3-Trimethyl-2-(1-methylethyl)butanamide", "2-Isopropyl-N,2,3-trimethylbutanamide", "WS 23", "WS 23 (cooling agent)", "Cooling Sensate WS 23", "N,2,3-Trimethyl-2-isopropylbutanamide", "2-Isopropyl-N,2,3-trimethylbutyramide", "N-2,3-Trimethyl-2-isopropylbutane amide", "N-Methyl-2,3-dimethyl-2-isopropylbutanamide", "FEMA 3804", "N,2,3-Trimethyl-2-propan-2-ylbutanamide"], "SMILES": "C(C(NC)=O)(C(C)C)(C(C)C)C", "physical_data": {"Molecular Weight": "171.28", "Molecular Formula": "C10H21NO", "Boiling Point": "84 \u00b0C", "Melting Point": "60 \u00b0C"}}