{"cas_no": "51123-09-2", "cn_name": "2-\u7532\u57fa-5-\u6c28\u57fa-N-\u4e59\u57fa\u82ef\u78fa\u9170\u82ef\u80fa", "en_name": ["5-Amino-N-ethyl-2-methyl-N-phenylbenzenesulfonamide", "Benzenesulfonamide, 5-amino-N-ethyl-2-methyl-N-phenyl-", "5-Amino-N-ethyl-2-methyl-N-phenylbenzenesulfonamide", "5-Amino-N-ethyl-2-toluenesulfonanilide", "NSC 84161"], "SMILES": "S(N(CC)C1=CC=CC=C1)(=O)(=O)C2=C(C)C=CC(N)=C2", "physical_data": {"Molecular Weight": "290.38", "Molecular Formula": "C15H18N2O2S", "Melting Point": "108 \u00b0C"}}