{"cas_no": "5112-95-8", "cn_name": "\u53cc(\u4e8c\u82ef\u57fa\u78f7)\u4e59\u7094", "en_name": ["Bis(diphenylphosphino)acetylene", "Phosphine, 1,1\u2032-(1,2-ethynediyl)bis[1,1-diphenyl-", "Phosphine, ethynylenebis[diphenyl-", "Phosphine, 1,2-ethynediylbis[diphenyl-", "1,1\u2032-(1,2-Ethynediyl)bis[1,1-diphenylphosphine]", "Bis(diphenylphosphino)acetylene", "Bis(diphenylphosphino)ethyne", "1,2-Bis(diphenylphosphino)acetylene", "1,2-Bis(diphenylphosphino)ethyne", "((Diphenylphosphino)ethynyl)diphenylphosphine", "NSC 164872", "2-Diphenylphosphanylethynyl(diphenyl)phosphane"], "SMILES": "P(C#CP(C1=CC=CC=C1)C2=CC=CC=C2)(C3=CC=CC=C3)C4=CC=CC=C4", "physical_data": {"Molecular Weight": "394.38", "Molecular Formula": "C26H20P2", "Melting Point": "86 \u00b0C (decomp)"}}