{"cas_no": "51146-57-7", "cn_name": "R-\u5e03\u6d1b\u82ac", "en_name": ["(-)-Ibuprofen", "Benzeneacetic acid, \u03b1-methyl-4-(2-methylpropyl)-, (\u03b1R)-", "Benzeneacetic acid, \u03b1-methyl-4-(2-methylpropyl)-, (R)-", "(\u03b1R)-\u03b1-Methyl-4-(2-methylpropyl)benzeneacetic acid", "(-)-Ibuprofen", "R-(-)-p-Isobutylhydratropic acid", "l-Ibuprofen", "(R)-(-)-Ibuprofen", "(R)-Ibuprofen", "(-)-Ibuprophen", "(R)-2-(4-Isobutylphenyl)propanoic acid", "(-)-\u03b1-Methyl-4-(2-methylpropyl)benzeneacetic acid", "(R)-2-(4-Isobutylphenyl)propanoic acid", "(2R)-2-[4-(2-Methylpropyl)phenyl]propanoic acid"], "SMILES": "C(C(O)=O)(C)C1=CC=C(CC(C)C)C=C1", "physical_data": {"Molecular Weight": "206.28", "Molecular Formula": "C13H18O2", "Melting Point": "48-49 \u00b0C"}}