{"cas_no": "51146-56-6", "cn_name": "S-\u5e03\u6d1b\u82ac", "en_name": ["(+)-Ibuprofen", "Benzeneacetic acid, \u03b1-methyl-4-(2-methylpropyl)-, (\u03b1S)-", "Benzeneacetic acid, \u03b1-methyl-4-(2-methylpropyl)-, (S)-", "(\u03b1S)-\u03b1-Methyl-4-(2-methylpropyl)benzeneacetic acid", "(+)-Ibuprofen", "d-Ibuprofen", "(S)-(+)-Ibuprofen", "(S)-Ibuprofen", "Dexibuprofen", "(+)-(S)-Ibuprofen", "(+)-Ibuprophen", "(S)-2-(4-Isobutylphenyl)propionic acid", "(S)-2-(4-Isobutylphenyl)propanoic acid", "(+)-(S)-p-Isobutylhydratropic acid", "(S)-2-(p-Isobutylphenyl)propionic acid", "(+)-\u03b1-Methyl-4-(2-methylpropyl)benzeneacetic acid", "(S)-(+)-4-Isobutyl-\u03b1-methylphenylacetic acid", "(S)-(+)-2-(4-Isobutylphenyl)propionic acid", "Seractil", "(S)-(+)-p-Isobutylhydratropic acid", "Nyfen", "Ultraprofen", "S-Optifen"], "SMILES": "C(C(O)=O)(C)C1=CC=C(CC(C)C)C=C1", "physical_data": {"Molecular Weight": "206.28", "Molecular Formula": "C13H18O2", "Boiling Point": "110 \u00b0C @ Press: 0.1 Torr", "Melting Point": "54 \u00b0C"}}