{"cas_no": "51146-55-5", "cn_name": "2-\u7f9f\u57fa\u5e03\u6d1b\u82ac", "en_name": ["Hydroxyibuprofen", "Benzeneacetic acid, 4-(2-hydroxy-2-methylpropyl)-\u03b1-methyl-", "4-(2-Hydroxy-2-methylpropyl)-\u03b1-methylbenzeneacetic acid", "2-[4-(2-Hydroxy-2-methylpropyl)phenyl]propionic acid", "2,4\u2032-(2-Hydroxy-2-methylpropyl)phenylpropionic acid", "Hydroxyibuprofen", "Ibuprofen OH", "2-[4-(2-Hydroxy-2-methylpropyl)phenyl]propanoic acid", "2-Hydroxyibuprofen"], "SMILES": "C(C(C)(C)O)C1=CC=C(C(C(O)=O)C)C=C1", "physical_data": {"Molecular Weight": "222.28", "Molecular Formula": "C13H18O3", "Melting Point": "120-122 \u00b0C"}}