{"cas_no": "511545-94-1", "cn_name": "9-[(4,4,5,5,5-\u4e94\u6c1f\u620a\u57fa)\u786b\u4ee3]-1-\u58ec\u9187", "en_name": ["9-[(4,4,5,5,5-Pentafluoropentyl)thio]-1-nonanol", "1-Nonanol, 9-[(4,4,5,5,5-pentafluoropentyl)thio]-", "9-[(4,4,5,5,5-Pentafluoropentyl)thio]-1-nonanol"], "SMILES": "C(CCCSCCCCCCCCCO)(C(F)(F)F)(F)F", "physical_data": {"Molecular Weight": "336.40", "Molecular Formula": "C14H25F5OS", "Melting Point": "40-42 \u00b0C"}}