{"cas_no": "51154-96-2", "cn_name": "5-\u7f9f\u57fa-2-\u7678\u70ef\u9178-\u0394-\u5185\u916f", "en_name": ["Massoia lactone", "2H-Pyran-2-one, 5,6-dihydro-6-pentyl-, (6R)-", "2H-Pyran-2-one, 5,6-dihydro-6-pentyl-, (R)-", "(6R)-5,6-Dihydro-6-pentyl-2H-pyran-2-one", "Massoia lactone", "(R)-(-)-Massoialactone", "Massoilactone", "(-)-Massoialactone", "(-)-(6R)-Massoialactone", "(6R)-(-)-Massoialactone", "(-)-Massoja decalactone", "(-)-Massoilactone", "Massoya lactone", "(R)-6-Pentyl-5,6-dihydro-2H-pyran-2-one"], "SMILES": "C(CCCC)C1OC(=O)C=CC1", "physical_data": {"Molecular Weight": "168.23", "Molecular Formula": "C10H16O2", "Boiling Point": "103-104 \u00b0C @ Press: 0.5 Torr", "Density": "0.9800 g/cm\u00b3 @ Temp: 21 \u00b0C"}}