{"cas_no": "5116-24-5", "cn_name": "5-\u7f9f\u7532\u57fa\u8131\u6c27\u5c3f\u82f7", "en_name": ["5-Hydroxymethyl-2\u2032-deoxyuridine", "Thymidine, \u03b1-hydroxy-", "Uridine, 2\u2032-deoxy-5-(hydroxymethyl)-", "\u03b1-Hydroxythymidine", "5-Hydroxymethyldeoxyuridine", "5-Hydroxymethyl-2\u2032-deoxyuridine", "2\u2032-Desoxy-5-hydroxymethyluridine", "2\u2032-Deoxy-5-(hydroxymethyl)uridine", "5-(Hydroxymethyl)-2\u2032-desoxyuridine"], "SMILES": "O=C1N(C2OC(CO)C(O)C2)C=C(CO)C(=O)N1", "physical_data": {"Molecular Weight": "258.23", "Molecular Formula": "C10H14N2O6", "Melting Point": "176-179 \u00b0C"}}