{"cas_no": "51163-29-2", "cn_name": "2,4-\u4e8c\u7532\u57fa\u5f02\u6c30\u9178\u82ef\u916f", "en_name": ["2,4-Dimethylphenyl isocyanate", "Benzene, 1-isocyanato-2,4-dimethyl-", "Isocyanic acid, 2,4-xylyl ester", "1-Isocyanato-2,4-dimethylbenzene", "2,4-Dimethylphenyl isocyanate"], "SMILES": "N(=C=O)C1=C(C)C=C(C)C=C1", "physical_data": {"Molecular Weight": "147.17", "Molecular Formula": "C9H9NO", "Boiling Point": "211.2-212.0 \u00b0C", "Melting Point": "53-55 \u00b0C"}}