{"cas_no": "51166-71-3", "cn_name": "\u4e8c\u7532\u57fa\u73af\u7cca\u7cbe", "en_name": ["Di-O-methyl-\u03b2-cyclodextrin", "\u03b2-Cyclodextrin, 2A,2B,2C,2D,2E,2F,2G,6A,6B,6C,6D,6E,6F,6G-tetradeca-O-methyl-", "2,4,7,9,12,14,17,19,22,24,27,29,32,34-Tetradecaoxaoctacyclo[31.2.2.23,6.28,11.213,16.218,21.223,26.228,31]nonatetracontane, \u03b2-cyclodextrin deriv.", "2A,2B,2C,2D,2E,2F,2G,6A,6B,6C,6D,6E,6F,6G-Tetradeca-O-methyl-\u03b2-cyclodextrin", "Tetradecakis-2,6-O-methylcycloheptaamylose", "Dimethyl-\u03b2-cyclodextrin", "2A,6A-Di-O-methyl-\u03b2-cyclodextrin", "Tetradeca-O-methyl-\u03b2-cyclodextrin", "Di-O-methyl-\u03b2-cyclodextrin", "Heptakis(2,6-di-O-methyl)-\u03b2-cyclodextrin", "2,6-Di-O-methyl-\u03b2-cyclodextrin", "Dimeb", "Heptakis(2,6-di-O-methyl)-\u03b2-cyclodextrin", "2,6-Dimethyl-\u03b2-cyclodextrin", "Dimeb 50", "Beta W 7M1.8", "Hepta-(2,6-di-oxy-methyl)-\u03b2-cyclodextrin"], "SMILES": "C(OC)C1C2C(O)C(OC)C(O1)OC3C(COC)OC(C(OC)C3O)OC4C(COC)OC(C(OC)C4O)OC5C(COC)OC(OC6C(O)C(OC)C(OC7C(O)C(OC)C(OC8C(O)C(OC)C(O2)OC8COC)OC7COC)OC6COC)C(OC)C5O", "physical_data": {"Molecular Weight": "1331.36", "Molecular Formula": "C56H98O35", "Melting Point": "299-305 \u00b0C (decomp)"}}