{"cas_no": "51169-17-6", "cn_name": "5-(4-\u7532\u57fa\u82ef\u57fa)5-\u82ef\u57fa\u4e59\u5185\u9170\u8132", "en_name": ["5-(4\u2032-Methylphenyl)-5-phenylhydantoin", "2,4-Imidazolidinedione, 5-(4-methylphenyl)-5-phenyl-", "Hydantoin, 5-phenyl-5-p-tolyl-", "5-(4-Methylphenyl)-5-phenyl-2,4-imidazolidinedione", "5-(p-Methylphenyl)-5-phenylhydantoin", "5-Phenyl-5-(4-tolyl)hydantoin", "5-p-Tolyl-5-phenylhydantoin", "5-(4\u2032-Methylphenyl)-5-phenylhydantoin", "5-(4-Methylphenyl)-5-phenylhydantoin", "(\u00b1)-5-(4-Methylphenyl)-5-phenyl hydantoin", "NSC 32105", "5-Phenyl-5-(p-tolyl)imidazolidine-2,4-dione", "5-(4-Methylphenyl)-,5-phenylimidazolidine-2,4-dione"], "SMILES": "O=C1C(NC(=O)N1)(C2=CC=C(C)C=C2)C3=CC=CC=C3", "physical_data": {"Molecular Weight": "266.29", "Molecular Formula": "C16H14N2O2", "Melting Point": "229-230 \u00b0C"}}