{"cas_no": "5117-07-7", "cn_name": "5,5-\u4e8c\u786b-1,1-\u53cc\u82ef\u57fa\u56db\u6c2e\u5511", "en_name": ["5,5\u2032-Dithiobis[1-phenyl-1H-tetrazole]", "1H-Tetrazole, 5,5\u2032-dithiobis[1-phenyl-", "1H-Tetrazole, 5,5-dithiobis[1-phenyl-", "5,5\u2032-Dithiobis[1-phenyl-1H-tetrazole]", "Bis(1-phenyl-1H-tetrazol-5-yl) disulfide", "5,5\u2032-Dithiobis(1-phenyl-1H-tetrazole)", "Bis(1-phenyl-5-tetrazolyl) disulfide", "5,5\u2032-Dithiobis(1-phenyl-1H-tetrazole)", "1-Phenyl-5-[(1-phenyl-1H-1,2,3,4-tetrazol-5-yl)disulfanyl]-1H-1,2,3,4-tetrazole", "1-Phenyl-5-[(1-phenyltetrazol-5-yl)disulfanyl]tetrazole"], "SMILES": "S(SC=1N(N=NN1)C2=CC=CC=C2)C=3N(N=NN3)C4=CC=CC=C4", "physical_data": {"Molecular Weight": "354.41", "Molecular Formula": "C14H10N8S2", "Melting Point": "58-60 \u00b0C"}}