{"cas_no": "5117-12-4", "cn_name": "N-\u4e19\u70ef\u9170\u5417\u5549", "en_name": ["Acryloylmorpholine", "2-Propen-1-one, 1-(4-morpholinyl)-", "Morpholine, 4-acryloyl-", "Morpholine, 4-(1-oxo-2-propenyl)-", "1-(4-Morpholinyl)-2-propen-1-one", "N-Acryloylmorpholine", "Acryloylmorpholine", "ACMO", "4-Acryloylmorpholine", "NK Ester A-MO", "MA 1 (amide)", "MA 1", "Kayarad RM 1001", "1-(Morpholin-4-yl)propenone", "NSC 162221", "A-MO", "Photomer 9301", "Omnimer ACMO", "4-(1-Oxo-2-propenyl)morpholine", "1-Morpholinoprop-2-en-1-one", "LuCure 248", "RBL-ACMO", "JRMer 5102", "ACMO-LI"], "SMILES": "C(C=C)(=O)N1CCOCC1", "physical_data": {"Molecular Weight": "141.17", "Molecular Formula": "C7H11NO2", "Boiling Point": "114-116 \u00b0C @ Press: 8 Torr", "Melting Point": "&lt;-8 \u00b0C", "Density": "1.114 g/cm\u00b3 @ Temp: 20 \u00b0C"}}