{"cas_no": "5117-19-1", "cn_name": "\u516b\u7518\u9187", "en_name": ["Octaethylene glycol", "3,6,9,12,15,18,21-Heptaoxatricosane-1,23-diol", "Octaethylene glycol", "2-[2-[2-[2-[2-[2-[2-(2-Hydroxyethoxy)ethoxy]ethoxy]ethoxy]ethoxy]ethoxy]ethoxy]ethanol"], "SMILES": "O(CCOCCOCCOCCO)CCOCCOCCOCCO", "physical_data": {"Molecular Weight": "370.44", "Molecular Formula": "C16H34O9", "Boiling Point": "175 \u00b0C @ Press: 0.01 Torr"}}