{"cas_no": "51173-06-9", "cn_name": "5-\u6c1f-N-\u7532\u57fa-2-\u5421\u5576\u916e", "en_name": ["5-Fluoro-1-methyl-2(1H)-pyridinone", "2(1H)-Pyridinone, 5-fluoro-1-methyl-", "5-Fluoro-1-methyl-2(1H)-pyridinone", "5-Fluoro-1-methyl-2-pyridone"], "SMILES": "CN1C(=O)C=CC(F)=C1", "physical_data": {"Molecular Weight": "127.12", "Molecular Formula": "C6H6FNO", "Boiling Point": "112-116 \u00b0C @ Press: 6 Torr"}}