{"cas_no": "51178-68-8", "cn_name": "\u0391,\u03a9-DIPROPIONIC ACID DODECAETHYLENE GLYCOL", "en_name": ["Poly(oxy-1,2-ethanediyl), \u03b1-(2-carboxyethyl)-\u03c9-(2-carboxyethoxy)-", "Poly(oxy-1,2-ethanediyl), \u03b1-(2-carboxyethyl)-\u03c9-(2-carboxyethoxy)-", "Polyethylene glycol bis(2-carboxyethyl) ether"], "SMILES": "C(CC(O)=O)OCCOCCC(O)=O", "physical_data": {"Molecular Weight": "", "Molecular Formula": "(C2H4O)nC6H10O5", "Melting Point": "42-45 \u00b0C"}}