{"cas_no": "5117-16-8", "cn_name": "\u4e8c\u7532\u57fa\u7852\u8132", "en_name": ["N,N-Dimethylselenourea", "Selenourea, N,N-dimethyl-", "Urea, 1,1-dimethyl-2-seleno-", "N,N-Dimethylselenourea", "1,1-Dimethyl-2-selenourea", "1,1-Dimethylselenourea", "NSC 174190"], "SMILES": "C(N(C)C)(N)=[Se]", "physical_data": {"Molecular Weight": "151.07", "Molecular Formula": "C3H8N2Se", "Melting Point": "100-101 \u00b0C"}}