{"cas_no": "5118-13-8", "cn_name": "4-\u6eb4\u82ef\u5e76[B]\u567b\u5429", "en_name": ["4-Bromobenzo[b]thiophene", "Benzo[b]thiophene, 4-bromo-", "4-Bromobenzo[b]thiophene", "4-Bromo-1-benzothiophene"], "SMILES": "BrC1=C2C(=CC=C1)SC=C2", "physical_data": {"Molecular Weight": "213.09", "Molecular Formula": "C8H5BrS", "Boiling Point": "144 \u00b0C @ Press: 20 Torr"}}