{"cas_no": "51186-83-5", "cn_name": "\u683c\u9686\u6eb4\u94f5", "en_name": ["erythro-Glycopyrronium bromide", "Pyrrolidinium, 3-[[(2R)-2-cyclopentyl-2-hydroxy-2-phenylacetyl]oxy]-1,1-dimethyl-, bromide (1:1), (3S)-rel-", "Pyrrolidinium, 3-[(cyclopentylhydroxyphenylacetyl)oxy]-1,1-dimethyl-, bromide, (R*,S*)-(\u00b1)-", "Pyrrolidinium, 3-[[(2R)-cyclopentylhydroxyphenylacetyl]oxy]-1,1-dimethyl-, bromide, (3S)-rel-", "erythro-Glycopyrronium bromide", "Ritropirronium bromide", "erythro-3-Hydroxy-1,1-dimethylpyrrolidinium bromide \u03b1-cyclopentylmandelate"], "SMILES": "C(C(OC1C[N+](C)(C)CC1)=O)(O)(C2CCCC2)C3=CC=CC=C3.[Br-]", "physical_data": {"Molecular Weight": "", "Molecular Formula": "C19H28NO3.Br", "Melting Point": "175 \u00b0C"}}