{"cas_no": "5119-48-2", "cn_name": "\u9189\u8304\u7d20 A", "en_name": ["Withaferin A", "Ergosta-2,24-dien-26-oic acid, 5,6-epoxy-4,22,27-trihydroxy-1-oxo-, \u03b4-lactone, (4\u03b2,5\u03b2,6\u03b2,22R)-", "Withaferin A", "5\u03b2-Ergosta-2,24-dien-26-oic acid, 5,6\u03b2-epoxy-4\u03b2,22,27-trihydroxy-1-oxo-, \u03b4-lactone, (20S,22R)-", "5,6-Epoxy-5H-cyclopenta[a]phenanthrene, ergosta-2,24-dien-26-oic acid deriv.", "Withaferine", "Withaferine A", "NSC 101088", "NSC 273757"], "SMILES": "CC12C3(C(O3)CC4C1CCC5(C)C4CCC5C(C)C6CC(C)=C(CO)C(=O)O6)C(O)C=CC2=O", "physical_data": {"Molecular Weight": "470.60", "Molecular Formula": "C28H38O6", "Melting Point": "230-232 \u00b0C"}}