{"cas_no": "512-69-6", "cn_name": "\u68c9\u5b50\u7cd6", "en_name": ["Raffinose", "\u03b1-D-Glucopyranoside, \u03b2-D-fructofuranosyl O-\u03b1-D-galactopyranosyl-(1\u21926)-", "Raffinose", "\u03b2-D-Fructofuranosyl O-\u03b1-D-galactopyranosyl-(1\u21926)-\u03b1-D-glucopyranoside", "Gossypose", "Melitose", "Melitriose", "D-Raffinose", "D-(+)-Raffinose", "NSC 170228", "NSC 2025", "Nittenraffinose", "Oligo GGF", "Meiji Beet Oligo FP", "MeSH ID: D011887"], "SMILES": "O(C1(CO)OC(CO)C(O)C1O)C2OC(COC3OC(CO)C(O)C(O)C3O)C(O)C(O)C2O", "physical_data": {"Molecular Weight": "504.44", "Molecular Formula": "C18H32O16", "Melting Point": "80 \u00b0C"}}