{"cas_no": "512-04-9", "cn_name": "\u85af\u84e3\u7682\u7d20", "en_name": ["Diosgenin", "Spirost-5-en-3-ol, (3\u03b2,25R)-", "Spirost-5-en-3\u03b2-ol, (25R)-", "25D-Spirost-5-en-3\u03b2-ol", "Spiro[8H-naphth[2\u2032,1\u2032:4,5]indeno[2,1-b]furan-8,2\u2032-[2H]pyran], spirost-5-en-3-ol deriv.", "(3\u03b2,25R)-Spirost-5-en-3-ol", "Diosgenin", "Nitogenin", "(25R)-Spirost-5-en-3\u03b2-ol", "25\u03b1-Spirost-5-en-3\u03b2-ol", "NSC 33396", "MeSH ID: D004144"], "SMILES": "CC1C2(OC3C1C4(C)C(C3)C5C(CC4)C6(C)C(=CC5)CC(O)CC6)CCC(C)CO2", "physical_data": {"Molecular Weight": "414.62", "Molecular Formula": "C27H42O3", "Melting Point": "205.5 \u00b0C"}}