{"cas_no": "512-63-0", "cn_name": "\u516d\u82ef\u57fa\u73af\u4e09\u7845\u6c27\u70f7", "en_name": ["2,2,4,4,6,6-Hexaphenylcyclotrisiloxane", "Cyclotrisiloxane, 2,2,4,4,6,6-hexaphenyl-", "Cyclotrisiloxane, hexaphenyl-", "2,2,4,4,6,6-Hexaphenylcyclotrisiloxane", "Diphenylsiloxane cyclic trimer", "Hexaphenylcyclotrisiloxane", "NSC 127080", "2,2,4,4,6,6-Hexakis-phenyl-1,3,5,2,4,6-trioxatrisilinane"], "SMILES": "[Si]1(O[Si](O[Si](O1)(C2=CC=CC=C2)C3=CC=CC=C3)(C4=CC=CC=C4)C5=CC=CC=C5)(C6=CC=CC=C6)C7=CC=CC=C7", "physical_data": {"Molecular Weight": "594.88", "Molecular Formula": "C36H30O3Si3", "Boiling Point": "300 \u00b0C @ Press: 1 Torr", "Melting Point": "188 \u00b0C", "Density": "1.230 g/cm\u00b3"}}