{"cas_no": "512-85-6", "cn_name": "\u963f\u65af\u5229\u591a", "en_name": ["Ascaridole", "2,3-Dioxabicyclo[2.2.2]oct-5-ene, 1-methyl-4-(1-methylethyl)-", "p-Menth-2-ene, 1,4-epidioxy-", "1-Methyl-4-(1-methylethyl)-2,3-dioxabicyclo[2.2.2]oct-5-ene", "Ascaridole", "Ascarisin", "1,4-Peroxido-p-menthene-2", "Ascaridol", "1,4-Peroxy-p-menth-2-ene", "Askaridol", "Ascaricum", "NSC 406266", "NSC 406924", "Boldo ascaridole"], "SMILES": "C(C)(C)C12CCC(C)(C=C1)OO2", "physical_data": {"Molecular Weight": "168.23", "Molecular Formula": "C10H16O2", "Boiling Point": "39-40 \u00b0C @ Press: 0.2 Torr", "Melting Point": "3.3 \u00b0C", "Density": "0.9985 g/cm\u00b3 @ Temp: 20 \u00b0C"}}