{"cas_no": "512-51-6", "cn_name": "1,1,2,2-\u56db\u6c1f\u4e59\u57fa\u4e59\u57fa\u919a", "en_name": ["1-Ethoxy-1,1,2,2-tetrafluoroethane", "Ethane, 1-ethoxy-1,1,2,2-tetrafluoro-", "Ether, ethyl 1,1,2,2-tetrafluoroethyl", "1-Ethoxy-1,1,2,2-tetrafluoroethane", "374pcE\u03b2\u03b3", "Ethyl 1,1,2,2-tetrafluoroethyl ether", "1,1,2,2-Tetrafluoroethyl ethyl ether", "HFE 374pc-f", "T 5202", "HFE 374"], "SMILES": "C(OCC)(C(F)F)(F)F", "physical_data": {"Molecular Weight": "146.08", "Molecular Formula": "C4H6F4O", "Boiling Point": "57.5 \u00b0C", "Density": "1.1978 g/cm\u00b3 @ Temp: 2 \u00b0C"}}