{"cas_no": "512-56-1", "cn_name": "\u78f7\u9178\u4e09\u7532\u916f", "en_name": ["Trimethyl phosphate", "Phosphoric acid, trimethyl ester", "Methyl phosphate, (MeO)3PO", "Trimethyl phosphate", "Trimethoxyphosphine oxide", "Trimethyl orthophosphate", "TMPA", "TMPO", "TMP", "NSC 58985"], "SMILES": "P(OC)(OC)(OC)=O", "physical_data": {"Molecular Weight": "140.07", "Molecular Formula": "C3H9O4P", "Boiling Point": "85 \u00b0C @ Press: 26 Torr", "Melting Point": "-46 \u00b0C", "Density": "1.2144 g/cm\u00b3 @ Temp: 20 \u00b0C"}}