{"cas_no": "512-06-1", "cn_name": "\u85af\u84e3\u7682\u82f7\u5143", "en_name": ["Yamogenin", "Spirost-5-en-3-ol, (3\u03b2,25S)-", "Spirost-5-en-3\u03b2-ol, (25S)-", "Neodiosgenin", "(3\u03b2,25S)-Spirost-5-en-3-ol", "Yamogenin", "Jamogenin", "NSC 226132", "(22R,25S)-(20\u03b1)-Spirost-5-en-3\u03b2-ol", "25-epi-Diosgenin"], "SMILES": "CC1C2(OC3C1C4(C)C(C3)C5C(CC4)C6(C)C(=CC5)CC(O)CC6)CCC(C)CO2", "physical_data": {"Molecular Weight": "414.62", "Molecular Formula": "C27H42O3", "Melting Point": "200-201 \u00b0C"}}