{"cas_no": "51207-86-4", "cn_name": "4-\u6c28\u57fa\u82ef\u57fa\u5417\u5549-4-\u57fa\u7532\u916e", "en_name": ["(4-Aminophenyl)(morpholino)methanone", "Methanone, (4-aminophenyl)-4-morpholinyl-", "Morpholine, 4-(4-aminobenzoyl)-", "(4-Aminophenyl)-4-morpholinylmethanone", "p-Aminobenzoylmorpholine", "4-(p-Aminobenzoyl)morpholine", "N-(p-Aminobenzoyl)morpholine", "N-(4-Aminobenzoyl)morpholine", "4-(4-Aminobenzoyl)morpholine", "1-(4-Aminophenyl)-1-morpholin-4-ylmethanone", "(4-Aminophenyl)morpholin-4-ylmethanone", "4-(4-Morpholinylcarbonyl)aniline", "(4-Aminophenyl)(morpholino)methanone", "N-[4-[(Morpholin-4-yl)carbonyl]phenyl]amine"], "SMILES": "C(=O)(C1=CC=C(N)C=C1)N2CCOCC2", "physical_data": {"Molecular Weight": "206.24", "Molecular Formula": "C11H14N2O2", "Melting Point": "132-133 \u00b0C"}}