{"cas_no": "51200-87-4", "cn_name": "4,4-\u4e8c\u7532\u57fa\u6076\u5511\u5549", "en_name": ["4,4-Dimethyloxazolidine", "Oxazolidine, 4,4-dimethyl-", "4,4-Dimethyloxazolidine", "4,4-Dimethyl-1,3-oxazolidine", "Oxazolidine A", "Oxadine A", "Zoldine ZA", "Oxaban A", "Nuosept 101", "Nuospet 101", "4,4-Dimethyl-1-oxa-3-azacyclopentane", "Truptan OX-I", "Nuosept 166", "Mergal 186", "Mergal 192"], "SMILES": "CC1(C)COCN1", "physical_data": {"Molecular Weight": "101.15", "Molecular Formula": "C5H11NO", "Boiling Point": "126-130 \u00b0C"}}