{"cas_no": "51218-45-2", "cn_name": "\u5f02\u4e19\u7532\u8349\u80fa", "en_name": ["Metolachlor", "Acetamide, 2-chloro-N-(2-ethyl-6-methylphenyl)-N-(2-methoxy-1-methylethyl)-", "2-Chloro-N-(2-ethyl-6-methylphenyl)-N-(2-methoxy-1-methylethyl)acetamide", "CGA 24705", "Dual", "Metetilachlor", "Metolachlor", "Codal", "N-(1-Methyl-2-methoxyethyl)-N-chloroacetyl-2-ethyl-6-methylaniline", "Dual Triple", "Pennant", "Dual 720EC", "Yibingjiacaoan", "Dual II", "Dual Magnum", "Dual 960 EC", "Jindual", "Metoken", "2-Chloro-N-(2-ethyl-6-methylphenyl)-N-(1-methoxypropan-2-yl)acetamide"], "SMILES": "N(C(COC)C)(C(CCl)=O)C1=C(CC)C=CC=C1C", "physical_data": {"Molecular Weight": "283.79", "Molecular Formula": "C15H22ClNO2", "Boiling Point": "100 \u00b0C @ Press: 1 x 10<sup>-3</sup> Torr", "Melting Point": "-62.1 \u00b0C", "Density": "1.12 g/cm\u00b3 @ Temp: 20 \u00b0C"}}