{"cas_no": "51218-49-6", "cn_name": "\u4e19\u8349\u80fa", "en_name": ["Pretilachlor", "Acetamide, 2-chloro-N-(2,6-diethylphenyl)-N-(2-propoxyethyl)-", "2-Chloro-N-(2,6-diethylphenyl)-N-(2-propoxyethyl)acetamide", "Pretilachlor", "CG 113", "N-Propoxyethyl-N-chloroacetyl-2,6-diethylaniline", "Rifit", "Rifit 500", "Solnet", "Erijan"], "SMILES": "N(CCOCCC)(C(CCl)=O)C1=C(CC)C=CC=C1CC", "physical_data": {"Molecular Weight": "311.85", "Molecular Formula": "C17H26ClNO2", "Boiling Point": "135 \u00b0C", "Melting Point": "&lt;25 \u00b0C"}}