{"cas_no": "51225-28-6", "cn_name": "6,8-\u4e8c\u5f02\u620a\u70ef\u57fa\u67d3\u6599\u6728\u7d20", "en_name": ["6,8-Diprenylgenistein", "4H-1-Benzopyran-4-one, 5,7-dihydroxy-3-(4-hydroxyphenyl)-6,8-bis(3-methyl-2-buten-1-yl)-", "4H-1-Benzopyran-4-one, 5,7-dihydroxy-3-(4-hydroxyphenyl)-6,8-bis(3-methyl-2-butenyl)-", "5,7-Dihydroxy-3-(4-hydroxyphenyl)-6,8-bis(3-methyl-2-buten-1-yl)-4H-1-benzopyran-4-one", "5,7,4\u2032-Trihydroxy-6,8-diprenylisoflavone", "6,8-Diprenylgenistein", "8-(\u03b3,\u03b3-Dimethylallyl)wighteone", "6,8-Di-(3,3-dimethylallyl)genistein", "5,7-Dihydroxy-3-(4-hydroxyphenyl)-6,8-bis(3-methylbut-2-en-1-yl)-4H-chromen-4-one"], "SMILES": "O=C1C=2C(=C(CC=C(C)C)C(O)=C(CC=C(C)C)C2O)OC=C1C3=CC=C(O)C=C3", "physical_data": {"Molecular Weight": "406.47", "Molecular Formula": "C25H26O5", "Melting Point": "140-142 \u00b0C"}}