{"cas_no": "5122-82-7", "cn_name": "1-\u91d1\u521a\u70f7\u57fa\u6eb4\u7532\u916e", "en_name": ["Adamantyl bromomethyl ketone", "Ethanone, 2-bromo-1-tricyclo[3.3.1.13,7]dec-1-yl-", "Ketone, 1-adamantyl bromomethyl", "2-Bromo-1-tricyclo[3.3.1.13,7]dec-1-ylethanone", "1-Adamantyl bromomethyl ketone", "1-(Bromoacetyl)adamantane", "1-(1-Adamantyl)-2-bromoethanone", "Adamantyl bromomethyl ketone", "2-Bromo-(1-tricyclo[3.3.1.13,7]dec-1-yl)ethanone", "1-(Adamantan-1-yl)-2-bromoethanone", "1-(1-Adamantyl)-2-bromoethan-1-one", "1-Bromo-2-(1-adamantyl)ethan-2-one", "1-(Adamantan-1-yl)-2-bromoethan-1-one"], "SMILES": "C(CBr)(=O)C12CC3CC(C1)CC(C2)C3", "physical_data": {"Molecular Weight": "257.17", "Molecular Formula": "C12H17BrO", "Melting Point": "78-79 \u00b0C"}}