{"cas_no": "51225-30-0", "cn_name": "WIGHTEONE", "en_name": ["Wighteone", "4H-1-Benzopyran-4-one, 5,7-dihydroxy-3-(4-hydroxyphenyl)-6-(3-methyl-2-buten-1-yl)-", "4H-1-Benzopyran-4-one, 5,7-dihydroxy-3-(4-hydroxyphenyl)-6-(3-methyl-2-butenyl)-", "5,7-Dihydroxy-3-(4-hydroxyphenyl)-6-(3-methyl-2-buten-1-yl)-4H-1-benzopyran-4-one", "Erythrinin B", "Wighteone", "5,7,4\u2032-Trihydroxy-6-prenylisoflavone", "6-Prenylgenistein", "5,7-Dihydroxy-3-(4-hydroxyphenyl)-6-(3-methylbut-2-en-1-yl)-4H-chromen-4-one"], "SMILES": "O=C1C=2C(=CC(O)=C(CC=C(C)C)C2O)OC=C1C3=CC=C(O)C=C3", "physical_data": {"Molecular Weight": "338.35", "Molecular Formula": "C20H18O5", "Melting Point": "227 \u00b0C"}}