{"cas_no": "5122-36-1", "cn_name": "4,6-\u4e8c\u6c28\u57fa-5-\u7532\u9170\u80fa\u57fa\u5627\u5576", "en_name": ["4,6-Diamino-5-formamidopyrimidine", "Formamide, N-(4,6-diamino-5-pyrimidinyl)-", "N-(4,6-Diamino-5-pyrimidinyl)formamide", "4,6-Diamino-5-formamidopyrimidine", "FAPy-adenine", "4,6-Diamino-5-(formylamino)pyrimidine"], "SMILES": "N(C=O)C=1C(N)=NC=NC1N", "physical_data": {"Molecular Weight": "153.14", "Molecular Formula": "C5H7N5O", "Melting Point": "224-226 \u00b0C"}}