{"cas_no": "5123-55-7", "cn_name": "N-\u90bb\u82ef\u4e8c\u7532\u9170\u57fa-L-\u82ef\u4e19\u6c28\u9178", "en_name": ["N-Phthaloyl-(S)-phenylalanine", "2H-Isoindole-2-acetic acid, 1,3-dihydro-1,3-dioxo-\u03b1-(phenylmethyl)-, (\u03b1S)-", "2H-Isoindole-2-acetic acid, 1,3-dihydro-1,3-dioxo-\u03b1-(phenylmethyl)-, (S)-", "2-Isoindolineacetic acid, \u03b1-benzyl-1,3-dioxo-, (S)-(-)-", "(\u03b1S)-1,3-Dihydro-1,3-dioxo-\u03b1-(phenylmethyl)-2H-isoindole-2-acetic acid", "(S)-N-Phthaloylphenylalanine", "N-Phthaloyl-L-phenylalanine", "Phthaloyl-L-phenylalanine", "N-Phthaloyl-(S)-phenylalanine", "(S)-2-(1,3-Dihydro-1,3-dioxo-2H-isoindol-2-yl)-3-phenylpropanoic acid", "L-N-Phthaloylphenylalanine", "(2S)-2-(1,3-Dioxo-2,3-dihydro-1H-isoindol-2-yl)-3-phenylpropanoic acid", "(2S)-2-(1,3-Dioxoisoindol-2-yl)-3-phenylpropanoic acid"], "SMILES": "C(CC1=CC=CC=C1)(C(O)=O)N2C(=O)C=3C(C2=O)=CC=CC3", "physical_data": {"Molecular Weight": "295.29", "Molecular Formula": "C17H13NO4", "Melting Point": "183-184 \u00b0C", "Density": "1.358 g/cm\u00b3"}}