{"cas_no": "51234-28-7", "cn_name": "\u6c27\u82ef\u6076\u5511\u4e19\u9178", "en_name": ["Benoxaprofen", "5-Benzoxazoleacetic acid, 2-(4-chlorophenyl)-\u03b1-methyl-", "2-(4-Chlorophenyl)-\u03b1-methyl-5-benzoxazoleacetic acid", "Benoxaprofen", "LRCL 3794", "Lilly 90459", "Oraflex", "Opren", "(\u00b1)-Benoxaprofen", "(RS)-Benoxaprofen", "dl-Benoxaprofen", "(\u00b1)-2-(4-Chlorophenyl)-\u03b1-methyl-5-benzoxazoleacetic acid", "Coxigon", "Compound 90459", "Uniprofen", "NSC 299582", "2-[2-(4-Chlorophenyl)benzoxazol-5-yl]-propanoic acid", "299582Q1", "2-(2-(4-Chlorophenyl)benzo[d]oxazol-5-yl)propanoic acid"], "SMILES": "C(C(O)=O)(C)C=1C=C2C(OC(=N2)C3=CC=C(Cl)C=C3)=CC1", "physical_data": {"Molecular Weight": "301.72", "Molecular Formula": "C16H12ClNO3", "Melting Point": "189-190 \u00b0C"}}