{"cas_no": "51235-04-2", "cn_name": "\u73af\u55ea\u916e", "en_name": ["Hexazinone", "1,3,5-Triazine-2,4(1H,3H)-dione, 3-cyclohexyl-6-(dimethylamino)-1-methyl-", "3-Cyclohexyl-6-(dimethylamino)-1-methyl-1,3,5-triazine-2,4(1H,3H)-dione", "Velpar", "DPX 3674", "3-Cyclohexyl-6-(dimethylamino)-1-methyl-s-triazine-2,4(1H,3H)-dione", "Hexazinone", "Velpar L", "Pronone", "Pronone 10G", "Hexaxinon"], "SMILES": "O=C1N(C(=O)N=C(N(C)C)N1C)C2CCCCC2", "physical_data": {"Molecular Weight": "252.31", "Molecular Formula": "C12H20N4O2", "Melting Point": "115-117 \u00b0C", "Density": "1.25 g/cm\u00b3"}}