{"cas_no": "5124-25-4", "cn_name": "\u5206\u6563\u9ec4M-FL", "en_name": ["Disperse Yellow 42", "Benzenesulfonamide, 3-nitro-N-phenyl-4-(phenylamino)-", "Sulfanilanilide, 3-nitro-N4-phenyl-", "3-Nitro-N-phenyl-4-(phenylamino)benzenesulfonamide", "C.I. 10338", "Amacel Yellow CW", "Amacron Yellow LS", "Artisil Yellow FL", "Belacyl Fast Yellow W", "Bellechem Estracyl Yellow W", "Celliton Fast Yellow GGLL-CF", "Cibacet Yellow GWL", "Cibacet Yellow GWN", "C.I. Disperse Yellow 42", "Diacelliton Fast Yellow YLP", "Dianix Yellow YL", "Dispersol Fast Yellow T", "Esteroquinone Light Yellow 3JLL", "Foron Yellow SE-FL", "Interchem Acetate Yellow GSF (HDLF-40)", "Interchem Polydye Yellow GSFD", "Interchem Yellow GSF (HDLF)", "Kayalon Fast Yellow YL", "Kayalon Polyester Yellow YLF", "Latyl Yellow YL", "Lenra Yellow CW", "Miketon Fast Yellow YL", "Miketon Polyester Yellow YL", "Polydye Disperse Yellow GSFM", "Polydye Yellow GSFD", "Polynal Yellow G", "Setacyl Yellow FL", "Setacyl Yellow P-FL", "Terasil Yellow GWL", "Tertranese Yellow P-GL", "Kayalon Polyester Yellow YL-SE", "4-Anilino-3-nitrobenzenesulfonanilide", "Dispersol Yellow C-T", "Tersetile Yellow GL", "C.I. Disperse Yellow 37", "Palanil Yellow GE", "Tulasteron Fast Yellow G-C", "Disperse Yellow GWL", "Ostacet Yellow SE-LG", "Resolin Yellow I-GGLS", "Foron Yellow SE-FLI", "Viosperse Yellow GL-FS", "Teratop Yellow GWL", "NSC 93815", "Disperse Yellow 42", "Resolin Yellow GGLS", "Disperse Yellow MFL", "Kiwalon Polyester Yellow YLSE Powder", "Kiwalon Polyester Yellow YLSE"], "SMILES": "N(C1=C(N(=O)=O)C=C(S(NC2=CC=CC=C2)(=O)=O)C=C1)C3=CC=CC=C3", "physical_data": {"Molecular Weight": "369.39", "Molecular Formula": "C18H15N3O4S", "Melting Point": "156 \u00b0C"}}