{"cas_no": "51248-35-2", "cn_name": "4-\u5f02\u4e01\u57fa\u5641\u5511\u70f7-2,5-\u4e8c\u916e", "en_name": ["DL-Leucine N-carboxy anhydride", "2,5-Oxazolidinedione, 4-(2-methylpropyl)-", "2,5-Oxazolidinedione, 4-isobutyl-", "4-(2-Methylpropyl)-2,5-oxazolidinedione", "Leucine, N-carboxy-, cyclic anhydride", "DL-Leucine N-carboxy anhydride", "N-Carboxy-DL-leucine anhydride"], "SMILES": "C(C(C)C)C1NC(=O)OC1=O", "physical_data": {"Molecular Weight": "157.17", "Molecular Formula": "C7H11NO3", "Melting Point": "47-48 \u00b0C"}}