{"cas_no": "5124-30-1", "cn_name": "4,4-\u4e8c\u5f02\u6c30\u9178\u916f\u4e8c\u73af\u5df1\u57fa\u7532\u70f7", "en_name": ["Hydrogenated MDI", "Cyclohexane, 1,1\u2032-methylenebis[4-isocyanato-", "Isocyanic acid, methylenedi-4,1-cyclohexylene ester", "Isocyanic acid, methylenedi-1,4-cyclohexylene ester", "Methane, bis(4-isocyanatocyclohexyl)-", "1,1\u2032-Methylenebis[4-isocyanatocyclohexane]", "Dicyclohexylmethane 4,4\u2032-diisocyanate", "Bis(4-isocyanatocyclohexyl)methane", "Methylenebis(4-cyclohexyl isocyanate)", "4,4\u2032-Diisocyanatodicyclohexylmethane", "Methylenedi-4-cyclohexylene diisocyanate", "Methylenedi-1,4-cyclohexylene isocyanate", "Methylenedi-4,1-cyclohexylene isocyanate", "Methylenebis(1,4-cyclohexylene) diisocyanate", "Methylenebis(4-isocyanatocyclohexane)", "4,4\u2032-Methylenebis(cyclohexyl isocyanate)", "Hydrogenated MDI", "4,4\u2032-Methylenedicyclohexyl diisocyanate", "1,1-Methylene bis(4-isocyanatocyclohexane)", "4,4\u2032-Dicyclohexylmethylene diisocyanate", "Methylenedicyclohexylene-4,4\u2032-diisocyanate", "4,4\u2032-Methylenedicyclohexylene diisocyanate", "H12MDI", "Perhydrodiphenylmethane-4,4\u2032-diisocyanate", "4,4\u2032-Di(isocyanatocyclohexyl)methane", "Methylene bis(p-cyclohexyl isocyanate)", "4,4\u2032-Cyclohexylmethanediisocyanate", "Hydrogenated diphenylmethane diisocyanate", "Hydrogenated 4,4\u2032-diphenylmethane diisocyanate", "HMDI", "4,4\u2032-Methylenebis(4-cyclohexylisocyanate)", "1-Isocyanato-4-[(4-isocyanatocyclohexyl)methyl]cyclohexane", "Hydrogenated 4,4\u2032-MDI", "4,4\u2032-(Methylene)di(isocyanatocyclohexane)", "Methylenedicyclohexane-4,4\u2032-diisocyanate"], "SMILES": "C(C1CCC(N=C=O)CC1)C2CCC(N=C=O)CC2", "physical_data": {"Molecular Weight": "262.35", "Molecular Formula": "C15H22N2O2", "Boiling Point": "156-158 \u00b0C @ Press: 0.1 Torr", "Density": "1.07 g/cm\u00b3"}}