{"cas_no": "51255-18-6", "cn_name": "\u7532\u57fa-2-\u8131\u6c27-beta-D-\u544b\u5583\u6838\u7cd6\u82f7", "en_name": ["Methyl 2-deoxy-\u03b2-D-erythro-pentofuranoside", "\u03b2-D-erythro-Pentofuranoside, methyl 2-deoxy-", "Methyl 2-deoxy-\u03b2-D-erythro-pentofuranoside", "Methyl \u03b2-D-2-deoxyribofuranoside", "Methyl 2-deoxy-\u03b2-D-ribofuranoside", "NSC 68139"], "SMILES": "C(O)C1C(O)CC(OC)O1", "physical_data": {"Molecular Weight": "148.16", "Molecular Formula": "C6H12O4", "Boiling Point": "115-125 \u00b0C @ Press: 0.45 Torr"}}