{"cas_no": "51264-14-3", "cn_name": "\u5b89\u5416\u5576", "en_name": ["Amsacrine", "Methanesulfonamide, N-[4-(9-acridinylamino)-3-methoxyphenyl]-", "N-[4-(9-Acridinylamino)-3-methoxyphenyl]methanesulfonamide", "4\u2032-(9-Acridinylamino)methanesulfon-m-anisidide", "NSC 249992", "AMSA", "Amsacrine", "Acridinylanisidide", "NSC 156303", "Amsidine", "m-Amsacrine", "m-AMSA", "m-AMSA", "SN 21429", "Amsidil", "Amsidyl", "CI 880", "SN 11841", "Lamasine", "Amekrin", "Amsalyo", "PH 006888", "MeSH ID: D000677"], "SMILES": "N(C=1C2=C(N=C3C1C=CC=C3)C=CC=C2)C4=C(OC)C=C(NS(C)(=O)=O)C=C4", "physical_data": {"Molecular Weight": "393.46", "Molecular Formula": "C21H19N3O3S", "Melting Point": "230-240 \u00b0C"}}