{"cas_no": "51276-47-2", "cn_name": "\u8349\u80fa\u81a6", "en_name": ["Glufosinate", "Butanoic acid, 2-amino-4-(hydroxymethylphosphinyl)-", "2-Amino-4-(hydroxymethylphosphinyl)butanoic acid", "3-Amino-3-carboxypropylmethylphosphinic acid", "Glufosinate", "HOE 35956", "DL-2-Amino-4-(methylphosphino)butanoic acid", "DL-Phosphinothricin", "(\u00b1)-Phosphinothricin", "2-Amino-4-[hydroxy(methyl)phosphoryl]butanoic acid"], "SMILES": "C(C(C(O)=O)N)CP(C)(=O)O", "physical_data": {"Molecular Weight": "181.13", "Molecular Formula": "C5H12NO4P", "Melting Point": "230 \u00b0C (decomp)"}}