{"cas_no": "5128-44-9", "cn_name": "\u82b9\u83dc\u7d20\u4e8c\u7532\u919a", "en_name": ["5-Hydroxy-7,4\u2032-dimethoxyflavone", "4H-1-Benzopyran-4-one, 5-hydroxy-7-methoxy-2-(4-methoxyphenyl)-", "Flavone, 5-hydroxy-4\u2032,7-dimethoxy-", "5-Hydroxy-7-methoxy-2-(4-methoxyphenyl)-4H-1-benzopyran-4-one", "5-Hydroxy-7,4\u2032-dimethoxyflavone", "Apigenin 4\u2032,7-dimethyl ether", "Genkwanin 4\u2032-methyl ether", "5-Hydroxy-4\u2032,7-dimethoxyflavone", "4\u2032,7-Dimethylapigenin", "Apigenin dimethyl ether", "4\u2032,7-Di-O-methylapigenin", "Acacetin 7-methyl ether", "7,4\u2032-Dimethylapigenin", "7,4\u2032-Di-O-methylapigenin", "7-O-Methylacacetin", "Apigenin 7,4\u2032-dimethyl ether", "4\u2032-Methoxytectochrysin", "NSC 94547", "7-Methylacacetin", "5-Hydroxy-7-methoxy-2-(4-methoxyphenyl)-4H-chromen-4-one", "Apigenin-7,4-dimethyl ether", "5-OH-7,4\u2032-dimethoxyflavone"], "SMILES": "O=C1C=2C(OC(=C1)C3=CC=C(OC)C=C3)=CC(OC)=CC2O", "physical_data": {"Molecular Weight": "298.29", "Molecular Formula": "C17H14O5", "Melting Point": "171-172 \u00b0C"}}