{"cas_no": "51282-49-6", "cn_name": "5-\u6c2f-2-\u785d\u57fa\u82ef\u7532\u9178\u7532\u916f", "en_name": ["Benzoic acid, 5-chloro-2-nitro-, methyl ester", "Benzoic acid, 5-chloro-2-nitro-, methyl ester", "Methyl 5-chloro-2-nitrobenzoate", "4-Chloro-2-methoxycarbonylnitrobenzene", "5-Chloro-2-nitrobenzoic acid methyl ester"], "SMILES": "C(OC)(=O)C1=C(N(=O)=O)C=CC(Cl)=C1", "physical_data": {"Molecular Weight": "215.59", "Molecular Formula": "C8H6ClNO4", "Melting Point": "48.5 \u00b0C"}}