{"cas_no": "513-86-0", "cn_name": "3-\u7f9f\u57fa-2-\u4e01\u916e", "en_name": ["Acetoin", "2-Butanone, 3-hydroxy-", "3-Hydroxy-2-butanone", "Acetoin", "2,3-Butanolone", "Dimethylketol", "\u03b3-Hydroxy-\u03b2-oxobutane", "Methanol, acetylmethyl-", "Acetyl methyl carbinol", "2-Hydroxy-3-butanone", "1-Hydroxyethyl methyl ketone", "3-Hydroxybutanone", "3-Oxo-2-butanol", "(\u00b1)-3-Hydroxybutan-2-one", "(\u00b1)-Acetoin", "DL-Acetoin", "NSC 7609", "3-Hydroxyl-2-butanone", "Acetoine", "MeSH ID: D000093"], "SMILES": "C(C(C)=O)(C)O", "physical_data": {"Molecular Weight": "88.11", "Molecular Formula": "C4H8O2", "Boiling Point": "148 \u00b0C @ Press: 760 Torr", "Melting Point": "15 \u00b0C", "Density": "0.9972 g/cm\u00b3 @ Temp: 17 \u00b0C"}}