{"cas_no": "513-77-9", "cn_name": "\u78b3\u9178\u94a1", "en_name": ["Barium carbonate", "Carbonic acid, barium salt (1:1)", "Barium carbonate", "C.I. 77099", "C.I. Pigment White 10", "Barium carbonate (BaCO3)", "Barium carbonate (1:1)", "Barium monocarbonate", "Pigment White 10", "BW-P", "BW-C3", "FO3", "LC 1", "LC 1 (carbonate)", "LSR", "BW-KH30", "BW-KH 30"], "SMILES": "C(=O)(O)O.[Ba]", "physical_data": {"Molecular Weight": "", "Molecular Formula": "CH2O3.Ba", "Melting Point": "811 \u00b0C", "Density": "4.43 g/cm\u00b3"}}