{"cas_no": "513-53-1", "cn_name": "2-\u4e01\u786b\u9187", "en_name": ["2-Butanethiol", "2-Butanethiol", "sec-Butyl mercaptan", "sec-Butyl thioalcohol", "sec-Butanethiol", "sec-Butylthiol", "2-Butyl mercaptan", "2-Mercaptobutane", "1-Methyl-1-propanethiol", "3-Methyl-2-propanethiol", "s-Butyl mercaptan", "(\u00b1)-2-Butanethiol", "NSC 78417", "2-Butylthiol"], "SMILES": "C(CC)(C)S", "physical_data": {"Molecular Weight": "90.19", "Molecular Formula": "C4H10S", "Boiling Point": "84-85 \u00b0C", "Melting Point": "-165 \u00b0C", "Density": "0.8299 g/cm\u00b3 @ Temp: 17 \u00b0C"}}