{"cas_no": "513-31-5", "cn_name": "2,3-\u4e8c\u6eb4-1-\u4e19\u70ef", "en_name": ["2,3-Dibromopropene", "1-Propene, 2,3-dibromo-", "Propene, 2,3-dibromo-", "2,3-Dibromo-1-propene", "2-Bromoallyl bromide", "2,3-Dibromopropene", "2,3-Dibromopropylene", "\u03b1-Epidibromohydrin", "1,2-Dibromo-2-propene", "NSC 6200", "(2-Bromo-2-propenyl) bromide"], "SMILES": "C(CBr)(Br)=C", "physical_data": {"Molecular Weight": "199.87", "Molecular Formula": "C3H4Br2", "Boiling Point": "141 \u00b0C", "Density": "1.9702 g/cm\u00b3 @ Temp: 20 \u00b0C"}}