{"cas_no": "513-48-4", "cn_name": "2-\u7898\u4e01\u70f7", "en_name": ["2-Iodobutane", "Butane, 2-iodo-", "2-Iodobutane", "sec-Butyl iodide", "sec-Iodobutane", "2-Butyl iodide", "(\u00b1)-2-Iodobutane", "NSC 8422"], "SMILES": "C(CC)(C)I", "physical_data": {"Molecular Weight": "184.02", "Molecular Formula": "C4H9I", "Boiling Point": "120 \u00b0C", "Melting Point": "-104 \u00b0C", "Density": "1.585 g/cm\u00b3 @ Temp: 20 \u00b0C"}}