{"cas_no": "513-38-2", "cn_name": "\u7898\u4ee3\u5f02\u4e01\u70f7", "en_name": ["Isobutyl iodide", "Propane, 1-iodo-2-methyl-", "1-Iodo-2-methylpropane", "Isobutyl iodide", "2-Methylpropyl iodide", "3-Iodo-2-methylpropane", "NSC 8421", "2-Methyl-1-iodopropane", "1-Iodoisobutane", "2-Methylpropan-1-yl iodide"], "SMILES": "C(CI)(C)C", "physical_data": {"Molecular Weight": "184.02", "Molecular Formula": "C4H9I", "Boiling Point": "121.1 \u00b0C", "Melting Point": "-93 \u00b0C", "Density": "1.58693 g/cm\u00b3 @ Temp: 30 \u00b0C"}}