{"cas_no": "513-37-1", "cn_name": "1-\u6c2f-2-\u7532\u57fa-1-\u4e19\u70ef", "en_name": ["1-Propene, 1-chloro-2-methyl-", "1-Propene, 1-chloro-2-methyl-", "Propene, 1-chloro-2-methyl-", "\u03b1-Chloroisobutylene", "1-Chloro-2-methyl-1-propene", "\u03b2,\u03b2-Dimethylvinyl chloride", "Isocrotyl chloride", "1-Chloro-2-methylpropene", "2-Methyl-1-propenyl chloride", "2-Methyl-1-chloropropene", "2,2-Dimethylvinyl chloride", "Dimethylvinyl chloride"], "SMILES": "C(=CCl)(C)C", "physical_data": {"Molecular Weight": "90.55", "Molecular Formula": "C4H7Cl", "Boiling Point": "68 \u00b0C @ Press: 754 Torr", "Density": "0.9186 g/cm\u00b3 @ Temp: 20 \u00b0C"}}