{"cas_no": "513-08-6", "cn_name": "\u78f7\u9178\u4e09\u4e19\u916f", "en_name": ["Tripropyl phosphate", "Phosphoric acid, tripropyl ester", "Propyl phosphate ((PrO)3PO)", "Tripropyl phosphate", "Tri-n-propyl phosphate"], "SMILES": "P(OCCC)(OCCC)(OCCC)=O", "physical_data": {"Molecular Weight": "224.23", "Molecular Formula": "C9H21O4P", "Boiling Point": "252 \u00b0C", "Density": "0.9884 g/cm\u00b3 @ Temp: 40 \u00b0C"}}