{"cas_no": "513-92-8", "cn_name": "\u7532\u7898\u4e59\u70ef", "en_name": ["Tetraiodoethylene", "Ethene, 1,1,2,2-tetraiodo-", "Ethylene, tetraiodo-", "Ethene, tetraiodo-", "1,1,2,2-Tetraiodoethene", "Diiodoform", "Ethylene periodide", "Ethylene tetraiodide", "Periodoethene", "Tetraiodoethylene", "Tetraiodoethene", "NSC 66408"], "SMILES": "C(=C(I)I)(I)I", "physical_data": {"Molecular Weight": "531.64", "Molecular Formula": "C2I4", "Melting Point": "187 \u00b0C", "Density": "2.983 g/cm\u00b3 @ Temp: 20 \u00b0C"}}