{"cas_no": "513-36-0", "cn_name": "\u6c2f\u4ee3\u5f02\u4e01\u70f7", "en_name": ["Isobutyl chloride", "Propane, 1-chloro-2-methyl-", "1-Chloro-2-methylpropane", "Isobutyl chloride", "2-Methylpropyl chloride", "2-Methyl-1-chloropropane", "2-Chloromethylpropane"], "SMILES": "C(CCl)(C)C", "physical_data": {"Molecular Weight": "92.57", "Molecular Formula": "C4H9Cl", "Boiling Point": "69 \u00b0C", "Melting Point": "-131 \u00b0C", "Density": "0.9 g/cm\u00b3"}}