{"cas_no": "513-78-0", "cn_name": "\u78b3\u9178\u9549", "en_name": ["Cadmium carbonate (CdCO3)", "Carbonic acid, cadmium salt (1:1)", "Cadmium carbonate", "Carbonic acid, cadmium salt", "Chemcarb (CdCO3)", "Cadmium carbonate (CdCO3)", "Cadmium monocarbonate", "Supermikrokalcit", "Mikrokalcit", "Kalcit"], "SMILES": "C(=O)(O)O.[Cd]", "physical_data": {"Molecular Weight": "", "Molecular Formula": "CH2O3.Cd", "Melting Point": "375 \u00b0C (decomp)", "Density": "4.26 g/cm\u00b3"}}