{"cas_no": "513-49-5", "cn_name": "(S)-2-\u6c28\u57fa\u4e01\u70f7", "en_name": ["(S)-sec-Butylamine", "2-Butanamine, (2S)-", "sec-Butylamine, (S)-", "2-Butanamine, (S)-", "(2S)-2-Butanamine", "(+)-sec-Butylamine", "(S)-sec-Butylamine", "(+)-2-Butylamine", "(+)-(S)-sec-Butylamine", "(S)-(+)-2-Aminobutane", "(S)-2-Butanamine", "(S)-2-Aminobutane", "(+)-2-Aminobutane", "(S)-(+)-sec-Butylamine", "(S)-1-Methylpropylamine", "(S)-2-Butylamine", "(S)-(+)-2-Butylamine", "(S)-N-sec-Butylamine", "[(1S)-1-Methylpropyl]amine", "(2S)-Butan-2-amine", "(2S)-Butan-2-amine"], "SMILES": "C(CC)(C)N", "physical_data": {"Molecular Weight": "73.14", "Molecular Formula": "C4H11N", "Boiling Point": "62.5 \u00b0C"}}