{"cas_no": "513-85-9", "cn_name": "2,3-\u4e01\u4e8c\u9187", "en_name": ["2,3-Butanediol", "2,3-Butanediol", "2,3-Dihydroxybutane", "Dimethylethylene glycol", "2,3-Butylene glycol", "1,2-Dimethyl-1,2-ethanediol"], "SMILES": "C(C(C)O)(C)O", "physical_data": {"Molecular Weight": "90.12", "Molecular Formula": "C4H10O2", "Boiling Point": "182 \u00b0C", "Melting Point": "7.6 \u00b0C", "Density": "1.0033 g/cm\u00b3 @ Temp: 20 \u00b0C"}}