{"cas_no": "513-42-8", "cn_name": "2-\u7532\u57fa\u70ef\u4e19\u9187", "en_name": ["Methallyl alcohol", "2-Propen-1-ol, 2-methyl-", "2-Methyl-2-propen-1-ol", "Isopropenyl carbinol", "Methallyl alcohol", "2-Methylallyl alcohol", "3-Hydroxy-2-methylpropene", "Isobutenol", "Methacryl alcohol", "\u03b2-Methylallyl alcohol", "2-Methylprop-1-en-3-ol", "2-Methyl-2-propenol", "2-Methallyl alcohol", "\u03b2-Methallyl alcohol", "2-Methyl-3-hydroxy-1-propene", "NSC 30674", "NSC 404204"], "SMILES": "C(CO)(C)=C", "physical_data": {"Molecular Weight": "72.11", "Molecular Formula": "C4H8O", "Boiling Point": "112-114 \u00b0C", "Density": "0.8524 g/cm\u00b3 @ Temp: 20 \u00b0C"}}