{"cas_no": "513-81-5", "cn_name": "2,3-\u4e8c\u7532\u57fa-1,3-\u4e01\u4e8c\u70ef", "en_name": ["2,3-Dimethyl-1,3-butadiene", "1,3-Butadiene, 2,3-dimethyl-", "2,3-Dimethyl-1,3-butadiene", "Biisopropenyl", "Diisopropenyl", "2,3-Dimethylbutadiene", "2,3-Dimethylenebutane", "NSC 8656", "2,3-Dimethylbuta-1,2-diene", "2,3-Dimethyl-1,3-butdiene"], "SMILES": "C(C(C)=C)(C)=C", "physical_data": {"Molecular Weight": "82.14", "Molecular Formula": "C6H10", "Boiling Point": "68.8 \u00b0C", "Melting Point": "-76 \u00b0C", "Density": "0.7304 g/cm\u00b3 @ Temp: 16.5 \u00b0C"}}