{"cas_no": "513-02-0", "cn_name": "\u78f7\u9178\u4e09\u5f02\u4e19\u57fa\u916f", "en_name": ["Triisopropyl phosphate", "Phosphoric acid, tris(1-methylethyl) ester", "Phosphoric acid, triisopropyl ester", "Isopropyl phosphate ((C3H7O)3PO)", "Triisopropyl phosphate", "Triisopropoxyphosphine oxide", "NSC 46370", "NSC 62275"], "SMILES": "P(OC(C)C)(OC(C)C)(OC(C)C)=O", "physical_data": {"Molecular Weight": "224.23", "Molecular Formula": "C9H21O4P", "Boiling Point": "219 \u00b0C", "Density": "0.985 g/cm\u00b3 @ Temp: 25 \u00b0C"}}