{"cas_no": "513-44-0", "cn_name": "\u5f02\u4e01\u786b\u9187", "en_name": ["2-Methyl-1-propanethiol", "1-Propanethiol, 2-methyl-", "2-Methyl-1-propanethiol", "Isobutyl mercaptan", "1-Isobutanethiol", "Isobutyl thiol", "NSC 203271", "2-Methylpropyl mercaptan"], "SMILES": "C(CS)(C)C", "physical_data": {"Molecular Weight": "90.19", "Molecular Formula": "C4H10S", "Boiling Point": "88.5 \u00b0C", "Melting Point": "&lt;-70 \u00b0C", "Density": "0.8338 g/cm\u00b3 @ Temp: 20 \u00b0C"}}