{"cas_no": "513-88-2", "cn_name": "1\uff0c1-\u4e8c\u6c2f\u4e19\u916e", "en_name": ["1,1-Dichloroacetone", "2-Propanone, 1,1-dichloro-", "1,1-Dichloro-2-propanone", "\u03b1,\u03b1-Dichloroacetone", "1,1-Dichloroacetone", "Dichloromethyl methyl ketone", "1,1-Dichloropropanone", "NSC 42725"], "SMILES": "C(C(Cl)Cl)(C)=O", "physical_data": {"Molecular Weight": "126.97", "Molecular Formula": "C3H4Cl2O", "Boiling Point": "120 \u00b0C", "Density": "1.2985 g/cm\u00b3 @ Temp: 20 \u00b0C"}}