{"cas_no": "513-35-9", "cn_name": "2-\u7532\u57fa-2-\u4e01\u70ef", "en_name": ["2-Methyl-2-butene", "2-Butene, 2-methyl-", "2-Methyl-2-butene", "Amylene", "Trimethylethylene", "\u03b2-Isoamylene", "3-Methyl-2-butene", "1,1,2-Trimethylethylene", "Trimethylethene", "NSC 74118", "2-Methyl-2-butylene"], "SMILES": "C(=CC)(C)C", "physical_data": {"Molecular Weight": "70.13", "Molecular Formula": "C5H10", "Boiling Point": "37.5-38.5 \u00b0C", "Melting Point": "-133.61 \u00b0C", "Density": "0.66 g/cm\u00b3 @ Temp: 15 \u00b0C"}}