{"cas_no": "513-74-6", "cn_name": "\u4e8c\u786b\u4ee3\u6c28\u57fa\u7532\u9178\u94f5", "en_name": ["Ammonium dithiocarbamate", "Carbamodithioic acid, ammonium salt (1:1)", "Carbamic acid, dithio-, monoammonium salt", "Ammonium dithiocarbamate", "Carbamodithioic acid, monoammonium salt"], "SMILES": "C(N)(=S)S.N", "physical_data": {"Molecular Weight": "", "Molecular Formula": "CH3NS2.H3N", "Boiling Point": "40-60 \u00b0C", "Melting Point": "99 \u00b0C", "Density": "1.451 g/cm\u00b3 @ Temp: 20 \u00b0C"}}