{"cas_no": "513-12-2", "cn_name": "2-(\u4e59\u70f7\u78fa\u9170)\u4e59\u9187", "en_name": ["2-(Ethylsulfonyl)ethanol", "Ethanol, 2-(ethylsulfonyl)-", "2-(Ethylsulfonyl)ethanol", "Ethylsulfonylethyl alcohol", "NSC 60543", "2-Hydroxyethyl ethyl sulfone", "2-(Ethanesulfonyl)ethan-1-ol"], "SMILES": "S(CCO)(CC)(=O)=O", "physical_data": {"Molecular Weight": "138.19", "Molecular Formula": "C4H10O3S", "Boiling Point": "153 \u00b0C", "Melting Point": "46 \u00b0C"}}