{"cas_no": "51308-99-7", "cn_name": "9-\u6c2f-1-\u58ec\u9187", "en_name": ["9-Chloro-1-nonanol", "1-Nonanol, 9-chloro-", "9-Chloro-1-nonanol", "9-Chlorononan-1-ol", "9-Chlorononanol"], "SMILES": "C(CCCCCl)CCCCO", "physical_data": {"Molecular Weight": "178.70", "Molecular Formula": "C9H19ClO", "Boiling Point": "146.5 \u00b0C", "Melting Point": "28 \u00b0C"}}