{"cas_no": "51309-10-5", "cn_name": "10-\u6c2f-1-\u7678\u9187", "en_name": ["10-Chloro-1-decanol", "1-Decanol, 10-chloro-", "10-Chloro-1-decanol", "10-Chlorodecanol", "\u03c9-Chlorodecanol"], "SMILES": "C(CCCCCO)CCCCCl", "physical_data": {"Molecular Weight": "192.73", "Molecular Formula": "C10H21ClO", "Boiling Point": "164-166 \u00b0C @ Press: 24 Torr", "Melting Point": "12.5 \u00b0C", "Density": "0.9630 g/cm\u00b3 @ Temp: 25 \u00b0C"}}