{"cas_no": "5130-24-5", "cn_name": "\u6c2f\u7532\u9178\u4e59\u70ef\u916f", "en_name": ["Ethenyl carbonochloridate", "Carbonochloridic acid, ethenyl ester", "Formic acid, chloro-, vinyl ester", "Ethenyl carbonochloridate", "Vinyl chloroformate", "Vinyl chlorocarbonate", "Vinyloxycarbonyl chloride"], "SMILES": "O(C(Cl)=O)C=C", "physical_data": {"Molecular Weight": "106.51", "Molecular Formula": "C3H3ClO2", "Boiling Point": "92-94 \u00b0C @ Press: 752 Torr"}}