{"cas_no": "5130-29-0", "cn_name": "\u80c6\u9178\u6742\u8d289", "en_name": ["12-Ketolithocholic acid", "Cholan-24-oic acid, 3-hydroxy-12-oxo-, (3\u03b1,5\u03b2)-", "5\u03b2-Cholan-24-oic acid, 3\u03b1-hydroxy-12-oxo-", "5\u03b2-Cholanic acid, 3\u03b1-hydroxy-12-oxo-", "(3\u03b1,5\u03b2)-3-Hydroxy-12-oxocholan-24-oic acid", "12-Ketolithocholic acid", "3\u03b1-Hydroxy-12-oxo-5\u03b2-cholan-24-oic acid", "3\u03b1-Hydroxy-12-oxo-5\u03b2-cholanoic acid", "12-Oxolithocholic acid", "12-Ketodeoxycholic acid", "12-Oxo-3\u03b1-hydroxy-5\u03b2-cholanic acid", "12-Dehydrodeoxycholic acid", "3\u03b1-Hydroxy-12-oxo-5\u03b2-cholanic acid", "BAA 485"], "SMILES": "CC12C(C3C(C4(C)C(CC3)CC(O)CC4)CC1=O)CCC2C(CCC(O)=O)C", "physical_data": {"Molecular Weight": "390.56", "Molecular Formula": "C24H38O4", "Melting Point": "165-167 \u00b0C"}}