{"cas_no": "51301-87-2", "cn_name": "4-\u4e01\u6c27\u57fa-3-\u7532\u6c27\u57fa\u82ef\u7532\u919b", "en_name": ["4-Butoxy-3-methoxybenzaldehyde", "Benzaldehyde, 4-butoxy-3-methoxy-", "4-Butoxy-3-methoxybenzaldehyde", "O-Butylvanillin", "3-Methoxy-4-butoxybenzaldehyde", "3-Methoxy-4-(n-butyloxy)benzaldehyde", "3-Methoxy-4-n-butoxy-benzaldehyde"], "SMILES": "O(CCCC)C1=C(OC)C=C(C=O)C=C1", "physical_data": {"Molecular Weight": "208.25", "Molecular Formula": "C12H16O3", "Boiling Point": "140.5-141 \u00b0C @ Press: 2 Torr", "Melting Point": "29.5-30.5 \u00b0C"}}