{"cas_no": "5131-60-2", "cn_name": "4-\u6c2f-1,3-\u82ef\u4e8c\u80fa", "en_name": ["4-Chloro-m-phenylenediamine", "1,3-Benzenediamine, 4-chloro-", "m-Phenylenediamine, 4-chloro-", "4-Chloro-1,3-benzenediamine", "C.I. 76027", "4-Chloro-m-phenylenediamine", "4-Chloro-1,3-phenylenediamine", "1-Chloro-2,4-diaminobenzene", "4-Chloro-1,3-diaminobenzene", "4-Chloro-3-aminoaniline", "3-Amino-4-chloroaniline", "2,4-Diaminochlorobenzene", "NSC 6074", "2-Chloro-1,5-phenylenediamine", "2,4-Diamino-1-chlorobenzene"], "SMILES": "NC1=C(Cl)C=CC(N)=C1", "physical_data": {"Molecular Weight": "142.59", "Molecular Formula": "C6H7ClN2", "Melting Point": "91 \u00b0C"}}