{"cas_no": "5131-24-8", "cn_name": "\u706d\u83cc\u78f7", "en_name": ["Ditalimfos", "Phosphonothioic acid, P-(1,3-dihydro-1,3-dioxo-2H-isoindol-2-yl)-, O,O-diethyl ester", "Phosphonothioic acid, phthalimido-, O,O-diethyl ester", "Phosphonothioic acid, (1,3-dihydro-1,3-dioxo-2H-isoindol-2-yl)-, O,O-diethyl ester", "O,O-Diethyl phthalimidophosphonothionate", "O 199", "Millie", "Ortho 199", "Dowco 199", "M 2452", "O,O-Diethyl phthalimidophosphonothioate", "Plondrel", "Ditalimfos", "RE 199", "Ditalimphos", "SF 101"], "SMILES": "P(OCC)(OCC)(=S)N1C(=O)C=2C(C1=O)=CC=CC2", "physical_data": {"Molecular Weight": "299.28", "Molecular Formula": "C12H14NO4PS", "Melting Point": "82.5-84.0 \u00b0C"}}