{"cas_no": "5131-58-8", "cn_name": "\u5bf9\u785d\u57fa\u95f4\u82ef\u4e8c\u80fa", "en_name": ["4-Nitro-m-phenylenediamine", "1,3-Benzenediamine, 4-nitro-", "m-Phenylenediamine, 4-nitro-", "4-Nitro-1,3-benzenediamine", "C.I. 76030", "1,3-Diamino-4-nitrobenzene", "4-Nitro-m-phenylenediamine", "2,4-Diaminonitrobenzene", "4-Nitro-1,3-diaminobenzene", "NSC 9575"], "SMILES": "N(=O)(=O)C1=C(N)C=C(N)C=C1", "physical_data": {"Molecular Weight": "153.14", "Molecular Formula": "C6H7N3O2", "Melting Point": "161 \u00b0C"}}