{"cas_no": "51310-55-5", "cn_name": "3-\u4e09\u6c1f\u7532\u57fa\u5432\u54da", "en_name": ["3-(Trifluoromethyl)-1H-indole", "1H-Indole, 3-(trifluoromethyl)-", "3-(Trifluoromethyl)-1H-indole"], "SMILES": "C(F)(F)(F)C=1C=2C(NC1)=CC=CC2", "physical_data": {"Molecular Weight": "185.15", "Molecular Formula": "C9H6F3N", "Melting Point": "109-110 \u00b0C"}}