{"cas_no": "5131-66-8", "cn_name": "1-\u4e01\u6c27\u57fa-2-\u4e19\u9187", "en_name": ["1-Butoxy-2-propanol", "2-Propanol, 1-butoxy-", "1-Butoxy-2-propanol", "1-Methyl-3-oxa-1-heptanol", "1,2-Propylene glycol 1-monobutyl ether", "2-Hydroxy-3-butoxypropane", "NSC 2211", "Solvenon PnB", "3-Butoxy-2-propanol", "1-(n-Butoxy)propan-2-ol"], "SMILES": "O(CC(C)O)CCCC", "physical_data": {"Molecular Weight": "132.20", "Molecular Formula": "C7H16O2", "Boiling Point": "171.5 \u00b0C", "Density": "0.880 g/cm\u00b3 @ Temp: 20 \u00b0C"}}