{"cas_no": "51325-91-8", "cn_name": "4-\uff08\u4e8c\u5def\u57fa\u4e9a\u7532\u57fa\uff09-2-\u7532\u57fa-6-\uff08\u5bf9\u4e8c\u7532\u6c28\u57fa\u82ef\u4e59\u70ef\u57fa\uff09-4H-\u5421\u5583", "en_name": ["4-(Dicyanomethylene)-2-methyl-6-(p-dimethylaminostyryl)-4H-pyran", "Propanedinitrile, 2-[2-[2-[4-(dimethylamino)phenyl]ethenyl]-6-methyl-4H-pyran-4-ylidene]-", "Propanedinitrile, [2-[2-[4-(dimethylamino)phenyl]ethenyl]-6-methyl-4H-pyran-4-ylidene]-", "4H-Pyran-\u03944,\u03b1-malononitrile, 2-(p-dimethylaminostyryl)-6-methyl-", "2-[2-[2-[4-(Dimethylamino)phenyl]ethenyl]-6-methyl-4H-pyran-4-ylidene]propanedinitrile", "DCM (dye)", "4-Dicyanomethylene-6-(p-dimethylaminostyryl)-2-methyl-4H-pyran", "DCM 1", "4-(Dicyanomethylene)-2-methyl-6-(p-dimethylaminostyryl)-4H-pyran", "4-(Dicyanomethylene)-2-methyl-6-(4-dimethylaminostyryl)-4H-pyran", "NK 3502", "DCM-LC 6500", "DCM 650", "(4-(Dicyanomethylene)-2-methyl-6-(4-dimethylaminostyryl)-4H-pyran)"], "SMILES": "C(C#N)(C#N)=C1C=C(C=CC2=CC=C(N(C)C)C=C2)OC(C)=C1", "physical_data": {"Molecular Weight": "303.36", "Molecular Formula": "C19H17N3O", "Melting Point": "227 \u00b0C"}}