{"cas_no": "51323-43-4", "cn_name": "3-\u6eb4\u7532\u57fa\u82ef\u787c\u9178", "en_name": ["3-(Bromomethyl)phenylboronic acid", "Boronic acid, B-[3-(bromomethyl)phenyl]-", "Boronic acid, [3-(bromomethyl)phenyl]-", "m-Tolueneboronic acid, \u03b1-bromo-", "B-[3-(Bromomethyl)phenyl]boronic acid", "m-Bromomethylphenylboric acid", "m-Boronobenzyl bromide", "3-(Bromomethyl)phenylboronic acid"], "SMILES": "B(O)(O)C1=CC(CBr)=CC=C1", "physical_data": {"Molecular Weight": "214.85", "Molecular Formula": "C7H8BBrO2", "Melting Point": "214-216 \u00b0C"}}