{"cas_no": "51329-15-8", "cn_name": "3,5--\u4e8c\u6eb4\u82ef\u7532\u9178\u7532\u916f", "en_name": ["Methyl 3,5-dibromobenzoate", "Benzoic acid, 3,5-dibromo-, methyl ester", "Methyl 3,5-dibromobenzoate", "3,5-Dibromobenzoic acid methyl ester"], "SMILES": "C(OC)(=O)C1=CC(Br)=CC(Br)=C1", "physical_data": {"Molecular Weight": "293.94", "Molecular Formula": "C8H6Br2O2", "Melting Point": "62-63 \u00b0C"}}