{"cas_no": "51322-75-9", "cn_name": "\u66ff\u624e\u5c3c\u5b9a", "en_name": ["Tizanidine", "2,1,3-Benzothiadiazol-4-amine, 5-chloro-N-(4,5-dihydro-1H-imidazol-2-yl)-", "5-Chloro-N-(4,5-dihydro-1H-imidazol-2-yl)-2,1,3-benzothiadiazol-4-amine", "Tizanidine", "Tizalud", "(5-Chloro-benzo[1,2,5]thiadiazol-4-yl)-(4,5-dihydro-1H-imidazol-2-yl)-amine"], "SMILES": "N(C=1C=2C(C=CC1Cl)=NSN2)C=3NCCN3", "physical_data": {"Molecular Weight": "253.71", "Molecular Formula": "C9H8ClN5S", "Melting Point": "221-223 \u00b0C"}}