{"cas_no": "51338-27-3", "cn_name": "\u79be\u8349\u7075", "en_name": ["Diclofop-methyl", "Propanoic acid, 2-[4-(2,4-dichlorophenoxy)phenoxy]-, methyl ester", "HOE 23408", "Dichlorfop-methyl", "Dichlofop-methyl", "Diclofop-methyl", "Illoxan", "Hoelon", "Hoegrass", "Methyl 2[4-(2,4-dichlorophenoxy)phenoxy]propionate", "Diclofop methyl ester", "Methyl diclofop", "(\u00b1)-Diclofop-methyl", "Methyldichlofop", "Avenoxan", "Iloxan"], "SMILES": "O(C1=C(Cl)C=C(Cl)C=C1)C2=CC=C(OC(C(OC)=O)C)C=C2", "physical_data": {"Molecular Weight": "341.19", "Molecular Formula": "C16H14Cl2O4", "Boiling Point": "175-177 \u00b0C @ Press: 0.1 Torr", "Melting Point": "39-41 \u00b0C"}}