{"cas_no": "51330-27-9", "cn_name": "\u5927\u8c46\u7682\u82f7Bb", "en_name": ["Soyasaponin I", "\u03b2-D-Glucopyranosiduronic acid, (3\u03b2,4\u03b2,22\u03b2)-22,23-dihydroxyolean-12-en-3-yl O-6-deoxy-\u03b1-L-mannopyranosyl-(1\u21922)-O-\u03b2-D-galactopyranosyl-(1\u21922)-", "(3\u03b2,4\u03b2,22\u03b2)-22,23-Dihydroxyolean-12-en-3-yl O-6-deoxy-\u03b1-L-mannopyranosyl-(1\u21922)-O-\u03b2-D-galactopyranosyl-(1\u21922)-\u03b2-D-glucopyranosiduronic acid", "Soyasaponin I", "SCM 3B", "Soyasaponin Bb", "Soyasaponin B-I", "Soysaponin I"], "SMILES": "CC12C(C3(C)C(CC1)C(CO)(C)C(OC4C(OC5C(OC6C(O)C(O)C(O)C(C)O6)C(O)C(O)C(CO)O5)C(O)C(O)C(C(O)=O)O4)CC3)CC=C7C2(C)CCC8(C)C7CC(C)(C)CC8O", "physical_data": {"Molecular Weight": "943.12", "Molecular Formula": "C48H78O18", "Melting Point": "220-222 \u00b0C"}}