{"cas_no": "51333-22-3", "cn_name": "\u5e03\u5730\u5948\u5fb7", "en_name": ["Budesonide", "Pregna-1,4-diene-3,20-dione, 16,17-[butylidenebis(oxy)]-11,21-dihydroxy-, (11\u03b2,16\u03b1)-", "2H-Naphth[2\u2032,1\u2032:4,5]indeno[1,2-d][1,3]dioxole, pregna-1,4-diene-3,20-dione deriv.", "(11\u03b2,16\u03b1)-16,17-[Butylidenebis(oxy)]-11,21-dihydroxypregna-1,4-diene-3,20-dione", "Budesonide", "Pulmicort", "Preferid", "Rhinocort", "Rhinocort Aqua", "16\u03b1,17\u03b1-(Butylidenedioxy)-11\u03b2,21-dihydroxypregna-1,4-diene-3,20-dione", "Entocort", "Respules", "S 1320", "Bidien", "Budeson", "Cortivent", "Micronyl", "Spirocort", "Nebuampul", "Budenofalk", "Turbuhaler", "Budesomide", "Budes", "Budecort Aqua", "Barazone", "Rhinocort respules", "Novopulmon", "Budesonide MMX", "Uceris MMX", "Uceris", "Bunesonide", "Jorveza", "Budesonid", "Budesonida", "Tarpeyo", "Nefecon", "TAK 721", "TAK-721", "Eohilia", "MeSH ID: D019819"], "SMILES": "C(CO)(=O)C12C3(C)C(CC1OC(CCC)O2)C4C(C(O)C3)C5(C)C(CC4)=CC(=O)C=C5", "physical_data": {"Molecular Weight": "430.53", "Molecular Formula": "C25H34O6", "Melting Point": "226 \u00b0C (decomp)"}}