{"cas_no": "51336-95-9", "cn_name": "2-\u6c2f-1-(3,4-\u4e8c\u6c1f\u82ef\u57fa)\u4e59\u916e", "en_name": ["2-Chloro-1-(3,4-difluorophenyl)ethanone", "Ethanone, 2-chloro-1-(3,4-difluorophenyl)-", "2-Chloro-1-(3,4-difluorophenyl)ethanone", "2-Chloro-3\u2032,4\u2032-difluoroacetophenone", "2-Chloro-1-(3,4-difluorophenyl)ethan-1-one"], "SMILES": "C(CCl)(=O)C1=CC(F)=C(F)C=C1", "physical_data": {"Molecular Weight": "190.57", "Molecular Formula": "C8H5ClF2O", "Melting Point": "31-32 \u00b0C"}}