{"cas_no": "51336-94-8", "cn_name": "2'-\u6c2f-2,4-\u4e8c\u6c1f\u82ef\u4e59\u916e", "en_name": ["2-Chloro-1-(2,4-difluorophenyl)ethanone", "Ethanone, 2-chloro-1-(2,4-difluorophenyl)-", "2-Chloro-1-(2,4-difluorophenyl)ethanone", "2-Chloro-2\u2032,4\u2032-difluoroacetophenone", "Chloromethyl 2,4-difluorophenyl ketone", "\u03b1-Chloro-2,4-difluoroacetophenone", "2-Chloro-1-(2,4-difluorophenyl)ethan-1-one", "1-(2,4-Difluorophenyl)-2-chloroethan-1-one"], "SMILES": "C(CCl)(=O)C1=C(F)C=C(F)C=C1", "physical_data": {"Molecular Weight": "190.57", "Molecular Formula": "C8H5ClF2O", "Melting Point": "46-47 \u00b0C"}}