{"cas_no": "5135-30-8", "cn_name": "5'-\u5bf9\u7532\u82ef\u78fa\u9178\u817a\u82f7", "en_name": ["Adenosine, 5\u2032-(4-methylbenzenesulfonate)", "Adenosine, 5\u2032-(4-methylbenzenesulfonate)", "Adenosine, 5\u2032-p-toluenesulfonate", "5\u2032-Tosyladenosine", "5\u2032-O-Tosyladenosine", "5\u2032-O-Toluenesulfonyladenosine"], "SMILES": "OC1C(N2C=3C(N=C2)=C(N)N=CN3)OC(COS(=O)(=O)C4=CC=C(C)C=C4)C1O", "physical_data": {"Molecular Weight": "421.43", "Molecular Formula": "C17H19N5O6S", "Melting Point": "152 \u00b0C"}}