{"cas_no": "51364-51-3", "cn_name": "\u4e09(\u4e8c\u4e9a\u82c4\u57fa\u4e19\u916e)\u4e8c\u94af", "en_name": ["Tris(dibenzylideneacetone)dipalladium", "Palladium, tris[\u03bc-[(1,2-\u03b7:4,5-\u03b7)-(1E,4E)-1,5-diphenyl-1,4-pentadien-3-one]]di-", "Palladium, tris[\u03bc-[(1,2-\u03b7:4,5-\u03b7)-1,5-diphenyl-1,4-pentadien-3-one]]di-, (all-E)-", "1,4-Pentadien-3-one, 1,5-diphenyl-, palladium complex, (E,E)-", "Tris[\u03bc-[(1,2-\u03b7:4,5-\u03b7)-(1E,4E)-1,5-diphenyl-1,4-pentadien-3-one]]dipalladium", "Tris(dibenzylideneacetone)dipalladium", "Pd2(DBA)3", "tris[\u03bc-[(1,2-\u03b7:4,5-\u03b7)-(1E,4E)-1,5-diphenyl-1,4-pentadien-3-one]]dipalladium [Pd2(dba)3]", "Tris(dibenzylideneacetonyl)bis-palladium", "Tris[(1E,4E)-1,5-diphenyl-1,4-pentadien-3-one]dipalladium", "Tris[dibenzylideneacetone]dipalladium (DBA palladium)"], "SMILES": "O=C1[CH]=2[Pd]345([CH](=[CH]3C6=CC=CC=C6)C(=O)[CH]=7[Pd]89([CH]1=[CH]8C%10=CC=CC=C%10)([CH](C(=O)[CH]4=[CH]5C%11=CC=CC=C%11)=[CH]9C%12=CC=CC=C%12)[CH]7C%13=CC=CC=C%13)[CH]2C%14=CC=CC=C%14", "physical_data": {"Molecular Weight": "", "Molecular Formula": "C51H42O3Pd2", "Melting Point": "120-122 \u00b0C"}}