{"cas_no": "51361-60-5", "cn_name": "DELTA-AMYRIN ACETATE", "en_name": ["Olean-13(18)-en-3-ol, 3-acetate, (3\u03b2)-", "Olean-13(18)-en-3-ol, 3-acetate, (3\u03b2)-", "Olean-13(18)-en-3-ol, acetate, (3\u03b2)-", "Olean-13(18)-en-3\u03b2-ol, acetate", "\u03b4-Amyrin acetate", "Calotropoleanyl ester"], "SMILES": "CC12C(C3(C)C(CC1)C(C)(C)C(OC(C)=O)CC3)CCC=4C2(C)CCC5(C)C4CC(C)(C)CC5", "physical_data": {"Molecular Weight": "468.75", "Molecular Formula": "C32H52O2", "Melting Point": "213-213.5 \u00b0C"}}