{"cas_no": "5137-52-0", "cn_name": "\u82ef\u4e59\u9178\u620a\u916f", "en_name": ["Pentyl benzeneacetate", "Benzeneacetic acid, pentyl ester", "Acetic acid, phenyl-, pentyl ester", "Pentyl benzeneacetate", "Pentyl phenylacetate", "Amyl phenylacetate", "NSC 46135", "Pentyl 2-phenylacetate"], "SMILES": "C(C(OCCCCC)=O)C1=CC=CC=C1", "physical_data": {"Molecular Weight": "206.28", "Molecular Formula": "C13H18O2", "Melting Point": "31-32 \u00b0C"}}