{"cas_no": "5137-70-2", "cn_name": "\u6b63\u5341\u4e8c\u70f7\u57fa\u78f7\u9178", "en_name": ["Dodecylphosphonic acid", "Phosphonic acid, P-dodecyl-", "Phosphonic acid, dodecyl-", "P-Dodecylphosphonic acid", "n-Dodecanephosphonic acid", "1-Dodecanephosphonic acid", "n-Dodecylphosphonic acid", "Dodecylphosphonic acid", "Dodecanephosphonic acid", "NSC 407872", "Rhodafac LPA", "1-Dodecylphosphonic acid"], "SMILES": "C(CCCCCCCCC)CCP(=O)(O)O", "physical_data": {"Molecular Weight": "250.31", "Molecular Formula": "C12H27O3P", "Boiling Point": "99-100 \u00b0C", "Melting Point": "100.5-101.5 \u00b0C"}}