{"cas_no": "51388-20-6", "cn_name": "4-\u82ef\u7532\u6c27\u57fa\u82ef\u80fa\u76d0\u9178\u76d0", "en_name": ["Benzenamine, 4-(phenylmethoxy)-, hydrochloride (1:1)", "Benzenamine, 4-(phenylmethoxy)-, hydrochloride (1:1)", "Benzenamine, 4-(phenylmethoxy)-, hydrochloride", "p-(Benzyloxy)aniline hydrochloride", "4-(Benzyloxy)aniline hydrochloride", "4-Benzyloxyaniline hydrochloric acid salt", "4-Benzyloxyphenylamine hydrochloride", "4-(Phenylmethoxy)aniline hydrochloride", "4-[(Phenylmethyl)oxy]aniline hydrochloride", "4-(Benzyloxy)aniline monohydrochloride"], "SMILES": "O(CC1=CC=CC=C1)C2=CC=C(N)C=C2.Cl", "physical_data": {"Molecular Weight": "", "Molecular Formula": "C13H13NO.ClH", "Melting Point": "222-223 \u00b0C"}}