{"cas_no": "514-78-3", "cn_name": "\u6591\u8765\u9ec4", "en_name": ["Canthaxanthin", "\u03b2,\u03b2-Carotene-4,4\u2032-dione", "\u03b2-Carotene-4,4\u2032-dione, all-trans-", "\u03b2-Carotene-4,4\u2032-dione", "Carophyll red", "all-trans-Canthaxanthin", "Canthaxanthin", "4,4\u2032-Diketo-\u03b2-carotene", "Canthaxanthine", "4,4\u2032-Dioxo-\u03b2-carotene", "Roxanthin Red 10", "C.I. Food Orange 8", "Food Orange 8", "E 161g", "C.I. 40850", "NSC 374110", "Lucantin Red", "MeSH ID: D016644"], "SMILES": "C(=CC(=CC=CC(=CC=CC=C(C=CC=C(C=CC=1C(C)(C)CCC(=O)C1C)C)C)C)C)C=2C(C)(C)CCC(=O)C2C", "physical_data": {"Molecular Weight": "564.84", "Molecular Formula": "C40H52O2", "Melting Point": "211-212 \u00b0C"}}