{"cas_no": "514-39-6", "cn_name": "\u6760\u67f3\u7519\u5143", "en_name": ["Periplogenin", "Card-20(22)-enolide, 3,5,14-trihydroxy-, (3\u03b2,5\u03b2)-", "5\u03b2-Card-20(22)-enolide, 3\u03b2,5,14-trihydroxy-", "(3\u03b2,5\u03b2)-3,5,14-Trihydroxycard-20(22)-enolide", "Desoxostrophanthidin", "5\u03b2-Hydroxydigitoxigenin", "Periplogenin", "3\u03b2,5\u03b2,14\u03b2-Trihydroxy-20(22)-cardenolide", "3\u03b2,5\u03b2,14\u03b2-Trihydroxy-8\u03b2H-card-20(22)-enolide"], "SMILES": "OC12C3C(C4(C)C(O)(CC3)CC(O)CC4)CCC1(C)C(CC2)C5=CC(=O)OC5", "physical_data": {"Molecular Weight": "390.51", "Molecular Formula": "C23H34O5", "Melting Point": "135-140 \u00b0C"}}