{"cas_no": "514-65-8", "cn_name": "\u6bd4\u54cc\u7acb\u767b", "en_name": ["Biperiden", "1-Piperidinepropanol, \u03b1-bicyclo[2.2.1]hept-5-en-2-yl-\u03b1-phenyl-", "1-Piperidinepropanol, \u03b1-5-norbornen-2-yl-\u03b1-phenyl-", "\u03b1-Bicyclo[2.2.1]hept-5-en-2-yl-\u03b1-phenyl-1-piperidinepropanol", "\u03b1-(Bicyclo[2.2.1]hept-5-en-2-yl)-\u03b1-phenyl-1-piperidinopropanol", "Biperiden", "\u03b1-5-Norbornen-2-yl-\u03b1-phenyl-1-piperidinepropanol", "KL 373", "Akineton", "1-(5-Bicyclo[2.2.1]hept-2-enyl)-1-phenyl-3-piperidin-1-ylpropan-1-ol", "MeSH ID: D001712"], "SMILES": "C(CCN1CCCCC1)(O)(C2C3CC(C2)C=C3)C4=CC=CC=C4", "physical_data": {"Molecular Weight": "311.46", "Molecular Formula": "C21H29NO", "Melting Point": "114 \u00b0C"}}