{"cas_no": "514-62-5", "cn_name": "\u94c1\u9508\u9187", "en_name": ["trans-Ferruginol", "3-Phenanthrenol, 4b,5,6,7,8,8a,9,10-octahydro-4b,8,8-trimethyl-2-(1-methylethyl)-, (4bS,8aS)-", "Podocarpa-8,11,13-trien-12-ol, 13-isopropyl-", "3-Phenanthrenol, 4b,5,6,7,8,8a,9,10-octahydro-4b,8,8-trimethyl-2-(1-methylethyl)-, (4bS-trans)-", "Ferruginol", "(4bS,8aS)-4b,5,6,7,8,8a,9,10-Octahydro-4b,8,8-trimethyl-2-(1-methylethyl)-3-phenanthrenol", "Ferruginol (Podocarpus)", "(+)-Ferruginol", "trans-Ferruginol"], "SMILES": "CC12C=3C(=CC(C(C)C)=C(O)C3)CCC1C(C)(C)CCC2", "physical_data": {"Molecular Weight": "286.45", "Molecular Formula": "C20H30O", "Melting Point": "56-57 \u00b0C"}}