{"cas_no": "514-73-8", "cn_name": "3,3'-\u4e8c\u4e59\u57fa\u786b\u4e8c\u78b3\u7898\u5316\u6c30", "en_name": ["Dithiazine", "Benzothiazolium, 3-ethyl-2-[5-(3-ethyl-2(3H)-benzothiazolylidene)-1,3-pentadien-1-yl]-, iodide (1:1)", "3-Ethyl-2-[5-(3-ethyl-2-benzothiazolinylidene)-1,3-pentadienyl]benzothiazolium iodide", "Benzothiazolium, 3-ethyl-2-[5-(3-ethyl-2(3H)-benzothiazolylidene)-1,3-pentadienyl]-, iodide", "Benzothiazolium, 3-ethyl-2-[5-(3-ethyl-2-benzothiazolinylidene)-1,3-pentadienyl]-, iodide", "Abminthic", "Anelmid", "[2-Bis(3-ethylbenzothiazolyl)]pentamethine cyanine iodide", "Compound 01748", "Delvex", "3,3\u2032-Diethylthiadicarbocyanine iodide", "Dilombrin", "Dilombrine", "Dithiazanine iodide", "Netocyd", "Partel", "Telmid", "Telmide", "Dithiazanin iodide", "3,3\u2032-Diethyl-2,2\u2032-thiadicarbocyanine iodide", "3,3\u2032-Diethyldithiacarbodicyanine iodide", "NK 136", "Dithiazine", "Anguifugan", "Telmicid", "Dejo", "Omni-Passin", "Diethylthiadicarbocyanine iodide", "Eastman 7663", "Dithiazine (dye)", "DTDC", "Di-S-C2(5)", "DTDCI", "3-Ethyl-2-[5-[3-ethyl-2(3H)-benzothiazolylidene]-1,3-pentadienyl]benzothiazolium iodide", "SI 1964", "3,3\u2032-Diethylthiadicarbocyanine iodine"], "SMILES": "C(C)N1C=2C(SC1=CC=CC=CC3=[N+](CC)C=4C(S3)=CC=CC4)=CC=CC2.[I-]", "physical_data": {"Molecular Weight": "", "Molecular Formula": "C23H23N2S2.I", "Melting Point": "248 \u00b0C (decomp)"}}