{"cas_no": "514-36-3", "cn_name": "\u918b\u9178\u6c1f\u6c22\u53ef\u7684\u677e", "en_name": ["Fludrocortisone acetate", "Pregn-4-ene-3,20-dione, 21-(acetyloxy)-9-fluoro-11,17-dihydroxy-, (11\u03b2)-", "Pregn-4-ene-3,20-dione, 9-fluoro-11\u03b2,17,21-trihydroxy-, 21-acetate", "Corticosterone, 9-fluoro-17-hydroxy-, 21-acetate", "(11\u03b2)-21-(Acetyloxy)-9-fluoro-11,17-dihydroxypregn-4-ene-3,20-dione", "Alflorone acetate", "Fludrocortisone 21-acetate", "9\u03b1-Fluorohydrocortisone 21-acetate", "9\u03b1-Fluoro-11\u03b2,17\u03b1,21-trihydroxypregn-4-ene-3,20-dione 21-acetate", "U 4845", "9\u03b1-Fluorocortisol acetate", "9\u03b1-Fluorohydrocortisone acetate", "Fluorocortisol acetate", "Fludrocortisone acetate", "Cortineff", "Scherofluron", "9-Fluorohydrocortisone acetate", "Fluorohydrocortisone acetate", "9\u03b1-Fluorocortisol 21-acetate", "NSC 15186", "Fluorhydrocortisone acetate"], "SMILES": "FC12C(C3C(C)(CC1O)C(C(COC(C)=O)=O)(O)CC3)CCC=4C2(C)CCC(=O)C4", "physical_data": {"Molecular Weight": "422.49", "Molecular Formula": "C23H31FO6", "Melting Point": "233-234 \u00b0C"}}