{"cas_no": "514-47-6", "cn_name": "\u5927\u621f\u4e8c\u70ef\u9187", "en_name": ["(+)-Euphol", "Lanosta-8,24-dien-3-ol, (3\u03b2,13\u03b1,14\u03b2,17\u03b1)-", "13\u03b1,14\u03b2,17\u03b2H-Lanosta-8,24-dien-3\u03b2-ol", "Euphol", "(3\u03b2,13\u03b1,14\u03b2,17\u03b1)-Lanosta-8,24-dien-3-ol", "Euphadienol", "Eupha-8,24-dienol", "5\u03b1-Eupha-8,24-dien-3\u03b2-ol", "(+)-Euphol", "Eupha-8,24-dien-3\u03b2-ol", "(+)-Eupha-8,24-dien-3\u03b2-ol", "NSC 36571", "\u03b1-Euphol"], "SMILES": "CC12C3=C(C4(C)C(CC3)C(C)(C)C(O)CC4)CCC1(C)C(C(CCC=C(C)C)C)CC2", "physical_data": {"Molecular Weight": "426.72", "Molecular Formula": "C30H50O", "Melting Point": "116 \u00b0C"}}