{"cas_no": "514-46-5", "cn_name": "\u8868\u5927\u621f\u4e8c\u70ef\u9187", "en_name": ["(+)-Tirucallol", "Lanosta-8,24-dien-3-ol, (3\u03b2,13\u03b1,14\u03b2,17\u03b1,20S)-", "Tirucallol", "13\u03b1,14\u03b2,17\u03b2H-Lanosta-8,24-dien-3\u03b2-ol, (20S)-", "(3\u03b2,13\u03b1,14\u03b2,17\u03b1,20S)-Lanosta-8,24-dien-3-ol", "Tirucalladienol", "20\u03b1H-\u03948-Tirucallol", "(+)-Tirucallol", "NSC 403164"], "SMILES": "CC12C3=C(C4(C)C(CC3)C(C)(C)C(O)CC4)CCC1(C)C(C(CCC=C(C)C)C)CC2", "physical_data": {"Molecular Weight": "426.72", "Molecular Formula": "C30H50O", "Melting Point": "133.0-134.5 \u00b0C"}}