{"cas_no": "514-07-8", "cn_name": "\u84b2\u516c\u82f1\u841c\u916e", "en_name": ["Taraxerone", "27-Norolean-14-en-3-one, 13-methyl-, (13\u03b1)-", "Taraxerone", "D-Friedoolean-14-en-3-one", "(13\u03b1)-13-Methyl-27-norolean-14-en-3-one", "Skimmione", "Taraxer-14-en-3-one", "\u039414-Taraxen-3-one", "Taraxeron", "3(2H)-Picenone, 1,4,4a,5,6,6a,8,8a,9,10,11,12,12a,12b,13,14,14a,14b-octadecahydro-4,4,6a,8a,11,11,12b,14b-octamethyl-, [4aR-(4a\u03b1,6a\u03b2,8a\u03b2,12a\u03b2,12b\u03b1,14a\u03b1,14b\u03b2)]-", "3(2H)-Picenone, 1,4,4a,5,6,6a,8,8a,9,10,11,12,12a,12b,13,14,14a,14b-octadecahydro-4,4,6a,8a,11,11,12b,14b-octamethyl-, (4aR,6aR,8aR,12aR,12bS,14aR,14bR)-", "Taraxer-3-one"], "SMILES": "CC12C=3C(C)(C4C(C)(CC3)CCC(C)(C)C4)CCC1C5(C)C(CC2)C(C)(C)C(=O)CC5", "physical_data": {"Molecular Weight": "424.70", "Molecular Formula": "C30H48O", "Melting Point": "241-243 \u00b0C"}}