{"cas_no": "514-61-4", "cn_name": "\u7532\u57fa\u8bfa\u9f99", "en_name": ["Methylnortestosterone", "Estr-4-en-3-one, 17-hydroxy-17-methyl-, (17\u03b2)-", "Estr-4-en-3-one, 17\u03b2-hydroxy-17-methyl-", "(17\u03b2)-17-Hydroxy-17-methylestr-4-en-3-one", "13\u03b2,17\u03b1-Dimethyl-17-hydroxygon-4-en-3-one", "17\u03b2-Hydroxy-17-methylestr-4-en-3-one", "Methalutin", "17\u03b1-Methylestra-4-en-17-ol-3-one", "17\u03b1-Methyl-17\u03b2-hydroxy-\u03944-estren-3-one", "17\u03b1-Methyl-19-nortestosterone", "17\u03b1-Methyl-4-estren-17\u03b2-ol-3-one", "Normethandrolone", "Normethandrone", "Normethanedrolone", "Orgasteron", "17\u03b1-Methylestrenolone", "17\u03b2-Hydroxy-17\u03b1-methylestr-4-en-3-one", "Methylestrenolone", "17\u03b1-Methyl-17\u03b2-hydroxy-4-estrene-3-one", "17-Methyl-19-nortestosterone", "Lutenin", "Matronal", "Metalutin", "17\u03b1-Methyl-3-oxo-4-estren-17\u03b2-ol", "RU 598", "19-Normethisterone", "Normethisterone", "Normetandrone", "Methylnortestosterone", "NSC 10039"], "SMILES": "CC12C(C3C(CC1)C4C(CC3)=CC(=O)CC4)CCC2(C)O", "physical_data": {"Molecular Weight": "288.42", "Molecular Formula": "C19H28O2", "Melting Point": "156-158 \u00b0C"}}