{"cas_no": "514-10-3", "cn_name": "\u677e\u9999\u9178", "en_name": ["Abietic acid", "1-Phenanthrenecarboxylic acid, 1,2,3,4,4a,4b,5,6,10,10a-decahydro-1,4a-dimethyl-7-(1-methylethyl)-, (1R,4aR,4bR,10aR)-", "Podocarpa-7,13-dien-15-oic acid, 13-isopropyl-", "1-Phenanthrenecarboxylic acid, 1,2,3,4,4a,4b,5,6,10,10a-decahydro-1,4a-dimethyl-7-(1-methylethyl)-, [1R-(1\u03b1,4a\u03b2,4b\u03b1,10a\u03b1)]-", "Abietic acid, (-)-", "(1R,4aR,4bR,10aR)-1,2,3,4,4a,4b,5,6,10,10a-Decahydro-1,4a-dimethyl-7-(1-methylethyl)-1-phenanthrenecarboxylic acid", "Sylvic acid", "Abietic acid", "(-)-Abietic acid", "7,13-Abietadien-18-oic acid", "l-Abietic acid", "NSC 25149", "Odomit B 10", "ZAO", "ZAO (natural product)", "Abieta-7,13-diene-18-oic acid"], "SMILES": "CC12C(C(C(O)=O)(C)CCC1)CC=C3C2CCC(C(C)C)=C3", "physical_data": {"Molecular Weight": "302.45", "Molecular Formula": "C20H30O2", "Boiling Point": "315-385 \u00b0C", "Melting Point": "173.5 \u00b0C"}}