{"cas_no": "5140-72-7", "cn_name": "2-\u6eb4-6-\u6c2f\u5421\u5576", "en_name": ["2-Bromo-6-chloropyridine", "Pyridine, 2-bromo-6-chloro-", "2-Bromo-6-chloropyridine", "6-Bromo-2-chloropyridine"], "SMILES": "BrC=1N=C(Cl)C=CC1", "physical_data": {"Molecular Weight": "192.44", "Molecular Formula": "C5H3BrClN", "Melting Point": "87-88 \u00b0C"}}