{"cas_no": "51415-02-2", "cn_name": "\u7af9\u8282\u4eba\u53c2\u7682\u82f7 IVA", "en_name": ["Chikusetsusaponin IVa", "\u03b2-D-Glucopyranosiduronic acid, (3\u03b2)-28-(\u03b2-D-glucopyranosyloxy)-28-oxoolean-12-en-3-yl", "Oleanane, \u03b2-D-glucopyranosiduronic acid deriv.", "(3\u03b2)-28-(\u03b2-D-Glucopyranosyloxy)-28-oxoolean-12-en-3-yl \u03b2-D-glucopyranosiduronic acid", "Calenduloside F", "Chikusetsusaponin IVa", "Silphioside G", "Momordin IIb", "Oleanolic acid 3-O-[\u03b2-D-glucuronopyranosyl]-28-O-\u03b2-D-glucopyranoside", "3-O-\u03b2-D-Glucuronopyranosyl)oleanolic acid 28-O-\u03b2-D-glucopyranoside", "Chikusetsusaponin", "3-O-\u03b2-D-Glucuronopyranosyloleanolic acid 28-O-\u03b2-D-glucopyranoside"], "SMILES": "C(OC1OC(CO)C(O)C(O)C1O)(=O)C23C(C=4C(C)(CC2)C5(C)C(CC4)C6(C)C(CC5)C(C)(C)C(OC7OC(C(O)=O)C(O)C(O)C7O)CC6)CC(C)(C)CC3", "physical_data": {"Molecular Weight": "794.97", "Molecular Formula": "C42H66O14", "Melting Point": "197-199 \u00b0C (decomp)"}}