{"cas_no": "51411-04-2", "cn_name": "\u963f\u745e\u53f8\u4ed6\u4e01", "en_name": ["Alrestatin", "1H-Benz[de]isoquinoline-2(3H)-acetic acid, 1,3-dioxo-", "1,3-Dioxo-1H-benz[de]isoquinoline-2(3H)-acetic acid", "AY 22284", "Alrestatin", "HIC 016G", "[1,3-Dioxo-1H,3H-benz[de]isoquinolin-2-yl]acetic acid", "NSC 299132", "(1,3-Dioxo-1H-benzo[de]isoquinolin-2(3H)-yl)acetic acid", "2-(1,3-Dioxobenzo[de]isoquinolin-2-yl)acetic acid"], "SMILES": "O=C1C=2C=3C(C(=O)N1CC(O)=O)=CC=CC3C=CC2", "physical_data": {"Molecular Weight": "255.23", "Molecular Formula": "C14H9NO4", "Melting Point": "266-267 \u00b0C"}}