{"cas_no": "51422-54-9", "cn_name": "1-\u4e01\u6c27\u57fa-2-\u4e59\u6c27\u57fa\u4e59\u70f7", "en_name": ["2-(2-Ethoxyethoxy)-2-methylpropane", "Propane, 2-(2-ethoxyethoxy)-2-methyl-", "2-(2-Ethoxyethoxy)-2-methylpropane", "Ethylene glycol tert-butyl ethyl ether", "Ethyl tert-butyl ethyl diether", "1-tert-Butoxy-2-ethoxyethane", "1-Ethoxy-2-tert-butoxyethane", "Additive CMX", "CMX", "Ethylene glycol ethyl tert-butyl ether"], "SMILES": "C(OC(C)(C)C)COCC", "physical_data": {"Molecular Weight": "146.23", "Molecular Formula": "C8H18O2", "Boiling Point": "148 \u00b0C", "Density": "0.8311 g/cm\u00b3 @ Temp: 20 \u00b0C"}}