{"cas_no": "5142-22-3", "cn_name": "1-\u7532\u57fa\u817a\u560c\u5464", "en_name": ["N1-Methyladenine", "1H-Purin-6-amine, 1-methyl-", "Adenine, 1-methyl-", "1-Methyl-1H-purin-6-amine", "1-Methyladenine", "N1-Methyladenine", "1-Methyl-6-aminopurine", "6-Amino-1-methylpurine", "NSC 70896", "1-Methylpurin-6-amine"], "SMILES": "NC1=C2C(N=CN1C)=NC=N2", "physical_data": {"Molecular Weight": "149.15", "Molecular Formula": "C6H7N5", "Melting Point": "&gt;300 \u00b0C"}}