{"cas_no": "5142-23-4", "cn_name": "6-\u6c28\u57fa-3-\u7532\u57fa\u560c\u5464", "en_name": ["3-Methyladenine", "3H-Purin-6-amine, 3-methyl-", "Adenine, 3-methyl-", "3-Methyl-3H-purin-6-amine", "3-Methyladenine", "N3-Methyladenine", "6-Amino-3-methylpurine", "3-Methyl-6-aminopurine", "NSC 66389", "3-Methyl-3H-purin-6-ylamine", "3-Methylpurin-6-amine"], "SMILES": "NC1=C2C(N(C)C=N1)=NC=N2", "physical_data": {"Molecular Weight": "149.15", "Molecular Formula": "C6H7N5", "Melting Point": "300 \u00b0C"}}