{"cas_no": "5144-89-8", "cn_name": "\u90bb\u83f2\u7f57\u5549", "en_name": ["1,10-Phenanthroline, monohydrate", "1,10-Phenanthroline, hydrate (1:1)", "1,10-Phenanthroline, monohydrate", "4,5-Phenanthroline monohydrate", "o-Phenanthroline monohydrate"], "SMILES": "C12=C3C(=CC=C1C=CC=N2)C=CC=N3.O", "physical_data": {"Molecular Weight": "", "Molecular Formula": "C12H8N2.H2O", "Melting Point": "103 \u00b0C"}}