{"cas_no": "5144-52-5", "cn_name": "\u785d\u9178\u8418\u7532\u5511\u5549", "en_name": ["Naphazoline nitrate", "1H-Imidazole, 4,5-dihydro-2-(1-naphthalenylmethyl)-, nitrate (1:1)", "2-Imidazoline, 2-(1-naphthylmethyl)-, mononitrate", "1H-Imidazole, 4,5-dihydro-2-(1-naphthalenylmethyl)-, mononitrate", "Naphtyzin", "Naphazoline nitrate", "Naphthylmethyl-2-imidazoline nitrate", "Naphthisin", "Naftizin", "Rinazin", "Naphthizin", "Privine nitrate", "Privine", "Privine (British)", "Sanorin", "Privina", "Privin", "2-(1-Naphthylmethyl)-4,5-dihydro-1H-imidazole nitrate"], "SMILES": "C(C=1C2=C(C=CC1)C=CC=C2)C=3NCCN3.N(=O)(=O)O", "physical_data": {"Molecular Weight": "", "Molecular Formula": "C14H14N2.HNO3", "Melting Point": "167-168 \u00b0C"}}