{"cas_no": "5145-99-3", "cn_name": "\u4e59\u57fa\u5f02\u4e19\u57fa\u786b\u919a", "en_name": ["2-(Ethylthio)propane", "Propane, 2-(ethylthio)-", "Sulfide, ethyl isopropyl", "2-(Ethylthio)propane", "Ethyl isopropyl sulfide", "Isopropyl ethyl sulfide", "NSC 163314", "2-Ethylsulfanylpropane"], "SMILES": "S(C(C)C)CC", "physical_data": {"Molecular Weight": "104.21", "Molecular Formula": "C5H12S", "Boiling Point": "107.5 \u00b0C", "Melting Point": "-122.2 \u00b0C"}}