{"cas_no": "51460-26-5", "cn_name": "\u5361\u7edc\u78fa\u94a0", "en_name": ["Carbazochrome sodium sulfonate", "1H-Indole-2-sulfonic acid, 5-[2-(aminocarbonyl)hydrazinylidene]-2,3,5,6-tetrahydro-1-methyl-6-oxo-, sodium salt (1:1)", "1H-Indole-2-sulfonic acid, 5-[(aminocarbonyl)hydrazono]-2,3,5,6-tetrahydro-1-methyl-6-oxo-, monosodium salt", "2-Indolinesulfonic acid, 5,6-dihydro-1-methyl-5,6-dioxo-, 5-semicarbazone, sodium salt", "Adrenochrome sulfonate Ac 17", "Carbazochrome sodium sulfonate", "Adona", "AC 17", "Carbazon", "Adenaron", "Donaseven", "Tazin", "Odanon", "Emex"], "SMILES": "CN1C=2C(CC1S(=O)(=O)O)=CC(=NNC(N)=O)C(=O)C2.[Na]", "physical_data": {"Molecular Weight": "", "Molecular Formula": "C10H12N4O5S.Na", "Melting Point": "227-228 \u00b0C (decomp)"}}