{"cas_no": "5146-66-7", "cn_name": "3,7-\u4e8c\u7532\u57fa-2,6-\u8f9b\u4e8c\u70ef\u8148", "en_name": ["Geranyl nitrile", "2,6-Octadienenitrile, 3,7-dimethyl-", "3,7-Dimethyl-2,6-octadienenitrile", "Citralva", "Geranyl nitrile", "Citronitrile", "(E/Z)-Geranonitrile"], "SMILES": "C(CCC=C(C)C)(=CC#N)C", "physical_data": {"Molecular Weight": "149.23", "Molecular Formula": "C10H15N", "Boiling Point": "78-78.5 \u00b0C @ Press: 2 Torr", "Density": "0.8737 g/cm\u00b3 @ Temp: 20 \u00b0C"}}