{"cas_no": "51473-74-6", "cn_name": "7-(\u4e8c\u4e59\u6c28\u57fa)\u9999\u8c46\u7d20-3-\u7532\u8148", "en_name": ["7-(Diethylamino)-2-oxo-2H-1-benzopyran-3-carbonitrile", "2H-1-Benzopyran-3-carbonitrile, 7-(diethylamino)-2-oxo-", "7-(Diethylamino)-2-oxo-2H-1-benzopyran-3-carbonitrile", "3-Cyano-7-(diethylamino)coumarin"], "SMILES": "C(#N)C1=CC=2C(=CC(N(CC)CC)=CC2)OC1=O", "physical_data": {"Molecular Weight": "242.27", "Molecular Formula": "C14H14N2O2", "Melting Point": "228-229 \u00b0C"}}