{"cas_no": "5147-00-2", "cn_name": "O-\u4e59\u91af\u7d72\u80fa\u9178", "en_name": ["O-Acetyl-L-serine", "L-Serine, O-acetyl-", "Serine, acetate (ester), L-", "L-Serine, acetate (ester)", "O-Acetyl-L-serine", "O-Acetylserine", "NSC 226230", "(S)-3-Acetoxy-2-aminopropanoic acid"], "SMILES": "C(COC(C)=O)(C(O)=O)N", "physical_data": {"Molecular Weight": "147.13", "Molecular Formula": "C5H9NO4", "Melting Point": "151.5-151.8 \u00b0C"}}