{"cas_no": "51481-10-8", "cn_name": "\u8131\u6c27\u96ea\u8150\u9570\u5200\u83cc\u70ef\u9187", "en_name": ["Deoxynivalenol", "Trichothec-9-en-8-one, 12,13-epoxy-3,7,15-trihydroxy-, (3\u03b1,7\u03b1)-", "Spiro[2,5-methano-1-benzoxepin-10,2\u2032-oxirane], trichothec-9-en-8-one deriv.", "(3\u03b1,7\u03b1)-12,13-Epoxy-3,7,15-trihydroxytrichothec-9-en-8-one", "Vomitoxin", "Dehydronivalenol", "Deoxynivalenol", "4-Deoxynivalenol", "4-Desoxynivalenol", "DON", "NSC 269144"], "SMILES": "CC12C3(C(OC4C1(CO)C(O)C(=O)C(C)=C4)C(O)C2)CO3", "physical_data": {"Molecular Weight": "296.32", "Molecular Formula": "C15H20O6", "Melting Point": "151-153 \u00b0C"}}