{"cas_no": "51498-38-5", "cn_name": "4-\u6c2f\u5421\u5576-3-\u78fa\u9170\u9178", "en_name": ["4-Chloro-3-pyridinesulfonic acid", "3-Pyridinesulfonic acid, 4-chloro-", "4-Chloro-3-pyridinesulfonic acid"], "SMILES": "S(=O)(=O)(O)C=1C(Cl)=CC=NC1", "physical_data": {"Molecular Weight": "193.61", "Molecular Formula": "C5H4ClNO3S", "Melting Point": "318-321 \u00b0C"}}