{"cas_no": "51498-37-4", "cn_name": "4-\u7f9f\u57fa\u5421\u5576-3-\u78fa\u9178", "en_name": ["4-Hydroxy-3-pyridinesulfonic acid", "3-Pyridinesulfonic acid, 4-hydroxy-", "4-Hydroxy-3-pyridinesulfonic acid"], "SMILES": "S(=O)(=O)(O)C=1C(O)=CC=NC1", "physical_data": {"Molecular Weight": "175.16", "Molecular Formula": "C5H5NO4S", "Melting Point": "265 \u00b0C"}}