{"cas_no": "515-98-0", "cn_name": "\u4e73\u9178\u94f5", "en_name": ["Ammonium lactate", "Propanoic acid, 2-hydroxy-, ammonium salt (1:1)", "Ammonium lactate", "Lactic acid, monoammonium salt", "Propanoic acid, 2-hydroxy-, monoammonium salt", "Ammonium 2-hydroxypropionate", "W 1001-10", "Lac-Hydrin", "BMS 186091", "(\u00b1)-Ammonium lactate"], "SMILES": "C(C(O)=O)(C)O.N", "physical_data": {"Molecular Weight": "", "Molecular Formula": "C3H6O3.H3N", "Boiling Point": "74 \u00b0C @ Press: 0.14 Torr", "Melting Point": "91-94 \u00b0C"}}