{"cas_no": "515-03-7", "cn_name": "\u9999\u7d2b\u82cf\u9187", "en_name": ["Sclareol", "1-Naphthalenepropanol, \u03b1-ethenyldecahydro-2-hydroxy-\u03b1,2,5,5,8a-pentamethyl-, (\u03b1R,1R,2R,4aS,8aS)-", "Sclareol", "Labd-14-ene-8,13-diol, (13R)-", "1-Naphthalenepropanol, \u03b1-ethenyldecahydro-2-hydroxy-\u03b1,2,5,5,8a-pentamethyl-, [1R-[1\u03b1(R*),2\u03b2,4a\u03b2,8a\u03b1]]-", "(\u03b1R,1R,2R,4aS,8aS)-\u03b1-Ethenyldecahydro-2-hydroxy-\u03b1,2,5,5,8a-pentamethyl-1-naphthalenepropanol", "(-)-Sclareol"], "SMILES": "CC12C(CCC(C)(O)C1CCC(C=C)(C)O)C(C)(C)CCC2", "physical_data": {"Molecular Weight": "308.50", "Molecular Formula": "C20H36O2", "Boiling Point": "182 \u00b0C @ Press: 1.15 Torr", "Melting Point": "104-105 \u00b0C"}}