{"cas_no": "515-94-6", "cn_name": "2,3-\u4e8c\u6c28\u57fa\u4e19\u9178", "en_name": ["2,3-Diaminopropionic acid", "Alanine, 3-amino-", "Propionic acid, 2,3-diamino-", "3-Aminoalanine", "2,3-Diaminopropanoic acid", "\u03b1,\u03b2-Diaminopropionic acid", "2,3-Diaminopropionic acid", "\u03b2-Alanine, 2-amino-", "\u03b2-Aminoalanine", "Propanoic acid, 2,3-diamino-", "2-Amino-\u03b2-alanine", "DL-\u03b1,\u03b2-Diaminopropionic acid", "DL-2,3-Diaminopropanoic acid", "DL-3-Aminoalanine", "(RS)-2,3-Diaminopropionic acid", "(\u00b1)-2,3-Diaminopropionic acid", "DL-2,3-Diaminopropionic acid", "3-Amino-DL-alanine"], "SMILES": "C(C(O)=O)(CN)N", "physical_data": {"Molecular Weight": "104.11", "Molecular Formula": "C3H8N2O2", "Melting Point": "243-245 \u00b0C (decomp)"}}