{"cas_no": "515-84-4", "cn_name": "\u4e09\u6c2f\u4e59\u9178\u4e59\u916f", "en_name": ["Ethyl trichloroacetate", "Acetic acid, 2,2,2-trichloro-, ethyl ester", "Acetic acid, trichloro-, ethyl ester", "Ethyl trichloroacetate", "NSC 8829"], "SMILES": "C(C(Cl)(Cl)Cl)(OCC)=O", "physical_data": {"Molecular Weight": "191.44", "Molecular Formula": "C4H5Cl3O2", "Boiling Point": "167.5 \u00b0C", "Density": "1.3886 g/cm\u00b3 @ Temp: 20 \u00b0C"}}