{"cas_no": "515-69-5", "cn_name": "\u7ea2\u6ca1\u836f\u9187", "en_name": ["Bisabolol", "3-Cyclohexene-1-methanol, \u03b1,4-dimethyl-\u03b1-(4-methyl-3-penten-1-yl)-, (\u03b1R,1R)-rel-", "5-Hepten-2-ol, 6-methyl-2-(4-methyl-3-cyclohexen-1-yl)-", "3-Cyclohexene-1-methanol, \u03b1,4-dimethyl-\u03b1-(4-methyl-3-pentenyl)-, (R*,R*)-", "3-Cyclohexene-1-methanol, \u03b1,4-dimethyl-\u03b1-(4-methyl-3-pentenyl)-, (\u03b1R,1R)-rel-", "rel-(\u03b1R,1R)-\u03b1,4-Dimethyl-\u03b1-(4-methyl-3-penten-1-yl)-3-cyclohexene-1-methanol", "\u03b1-Bisabolol", "Bisabolol", "dl-\u03b1-Bisabolol", "Dragosantol", "(\u00b1)-\u03b1-Bisabolol", "Hydagen B", "Camilol", "Dragosantol 100"], "SMILES": "C(CCC=C(C)C)(C)(O)C1CCC(C)=CC1", "physical_data": {"Molecular Weight": "222.37", "Molecular Formula": "C15H26O", "Boiling Point": "156 \u00b0C", "Melting Point": "&lt;25 \u00b0C", "Density": "0.9216 g/cm\u00b3 @ Temp: 18 \u00b0C"}}