{"cas_no": "515-64-0", "cn_name": "\u78fa\u80fa\u4e8c\u7532\u57fa\u5f02\u5627\u5576", "en_name": ["Sulfisomidine", "Benzenesulfonamide, 4-amino-N-(2,6-dimethyl-4-pyrimidinyl)-", "Sulfanilamide, N1-(2,6-dimethyl-4-pyrimidinyl)-", "4-Amino-N-(2,6-dimethyl-4-pyrimidinyl)benzenesulfonamide", "6-(p-Aminobenzenesulfonamido)-2,4-dimethylpyrimidine", "6-(4-Aminobenzenesulfonamido)-2,4-dimethylpyrimidine", "6-[(p-Aminobenzenesulfonyl)amino]-2,4-dimethylpyrimidine", "6-(p-Aminophenylsulfonamido)-2,4-dimethylpyrimidine", "Aristamid", "N1-(2,6-Dimethyl-4-pyrimidinyl)sulfanilamide", "2,4-Dimethyl-6-sulfanilamidopyrimidine", "2,6-Dimethyl-4-sulfanilamidopyrimidine", "Domian", "Elcosine", "Elkosil", "Elkosin", "Sulfadimetine", "Sulfaisodimerazine", "Sulfamethine", "6-(Sulfanilamido)-2,4-dimethyl-1,3-diazine", "6-Sulfanilamido-2,4-dimethylpyrimidine", "Sulfasomidine", "Sulfisomidine", "Sulphasomidine", "4-Sulfanilamido-2,6-dimethylpyrimidine", "Sulfisomidin", "Sulfasomidin", "Mefenal", "Aristogyn", "Elkosine", "Erycon", "Sulphisomidine", "Elkozin", "Domain", "Elcosin", "4-[[(2,6-Dimethylpyrimidin-4-yl)amino]sulfonyl]aniline", "MeSH ID: D013443"], "SMILES": "S(NC=1C=C(C)N=C(C)N1)(=O)(=O)C2=CC=C(N)C=C2", "physical_data": {"Molecular Weight": "278.33", "Molecular Formula": "C12H14N4O2S", "Melting Point": "243 \u00b0C", "Density": "1.378 g/cm\u00b3"}}