{"cas_no": "515-25-3", "cn_name": "\u5de6\u65cb\u6c34\u82cf\u78b1", "en_name": ["Betonicine", "Pyrrolidinium, 2-carboxy-4-hydroxy-1,1-dimethyl-, inner salt, (2S,4R)-", "Betonicine", "Pyrrolidinium, 2-carboxy-4-hydroxy-1,1-dimethyl-, hydroxide, inner salt, (2S-trans)-", "2-Carboxy-4-hydroxy-1,1-dimethylpyrrolidinium hydroxide, inner salt, L-trans-", "Achilleine", "Betonicin", "Achillein", "trans-4-Hydroxyproline betaine", "Pyrrolidinium, 2-carboxy-4-hydroxy-1,1-dimethyl-, inner salt, (2S-trans)-"], "SMILES": "C([O-])(=O)C1[N+](C)(C)CC(O)C1", "physical_data": {"Molecular Weight": "", "Molecular Formula": "C7H13NO3", "Melting Point": "243-244 \u00b0C (decomp)"}}