{"cas_no": "515-00-4", "cn_name": "\u6843\u91d1\u5a18\u70ef\u9187", "en_name": ["(\u00b1)-Myrtenol", "Bicyclo[3.1.1]hept-2-ene-2-methanol, 6,6-dimethyl-", "2-Pinen-10-ol", "6,6-Dimethylbicyclo[3.1.1]hept-2-ene-2-methanol", "Myrtenol", "6,6-Dimethyl-2-(hydroxymethyl)bicyclo[3.1.1]hept-2-ene", "(\u00b1)-Myrtenol", "\u03b1-Pinene-10-ol", "NSC 408846", "(6,6-Dimethylbicyclo[3.1.1]hept-2-en-2-yl)methanol"], "SMILES": "CC1(C)C2C(CO)=CCC1C2", "physical_data": {"Molecular Weight": "152.23", "Molecular Formula": "C10H16O", "Boiling Point": "221.5 \u00b0C", "Density": "0.9763 g/cm\u00b3 @ Temp: 20 \u00b0C"}}