{"cas_no": "515-46-8", "cn_name": "\u82ef\u78fa\u9178\u4e59\u916f", "en_name": ["Ethyl benzenesulfonate", "Benzenesulfonic acid, ethyl ester", "Ethyl benzenesulfonate", "Ethyl phenylsulfonate", "NSC 3217"], "SMILES": "S(OCC)(=O)(=O)C1=CC=CC=C1", "physical_data": {"Molecular Weight": "186.23", "Molecular Formula": "C8H10O3S", "Boiling Point": "156 \u00b0C"}}