{"cas_no": "515-83-3", "cn_name": "2,2,2-\u4e09\u6c2f-1-\u4e59\u6c27\u57fa\u4e59\u9187", "en_name": ["2,2,2-Trichloro-1-ethoxyethanol", "Ethanol, 2,2,2-trichloro-1-ethoxy-", "2,2,2-Trichloro-1-ethoxyethanol", "Trichloroacetaldehyde monoethylacetal", "Chloral alcoholate", "Chloral, ethyl hemiacetal", "Ethanol chloral hemiacetal", "Chloral semiacetal", "NSC 8411", "2,2,2-Trichloro-1-ethoxyethan-1-ol"], "SMILES": "C(C(Cl)(Cl)Cl)(OCC)O", "physical_data": {"Molecular Weight": "193.46", "Molecular Formula": "C4H7Cl3O2", "Boiling Point": "115.5 \u00b0C", "Melting Point": "56.5 \u00b0C"}}