{"cas_no": "515-13-9", "cn_name": "Beta-\u6984\u9999\u70ef", "en_name": ["(-)-\u03b2-Elemene", "Cyclohexane, 1-ethenyl-1-methyl-2,4-bis(1-methylethenyl)-, (1S,2S,4R)-", "\u03b2-Elemene", "Cyclohexane, 2,4-diisopropenyl-1-methyl-1-vinyl-, (1S,2S,4R)-(-)-", "Cyclohexane, 1-ethenyl-1-methyl-2,4-bis(1-methylethenyl)-, [1S-(1\u03b1,2\u03b2,4\u03b2)]-", "(1S,2S,4R)-1-Ethenyl-1-methyl-2,4-bis(1-methylethenyl)cyclohexane", "(-)-\u03b2-Elemene", "Levo-\u03b2-elemene", "\u03b2-Elemene, (-)-", "\u03b2-Elemen"], "SMILES": "C(C)(=C)C1C(C=C)(C)CCC(C(C)=C)C1", "physical_data": {"Molecular Weight": "204.35", "Molecular Formula": "C15H24", "Boiling Point": "119 \u00b0C @ Press: 15 Torr", "Density": "0.8881 g/cm\u00b3 @ Temp: 20 \u00b0C"}}