{"cas_no": "515-40-2", "cn_name": "1-\u6c2f-2-\u7532\u57fa-2-\u82ef\u57fa\u4e19\u70f7", "en_name": ["Neophyl chloride", "Benzene, (2-chloro-1,1-dimethylethyl)-", "(2-Chloro-1,1-dimethylethyl)benzene", "(\u03b2-Chloro-tert-butyl)benzene", "(\u03b2-Chloro-\u03b1,\u03b1-dimethyl)ethylbenzene", "1-Chloro-2-methyl-2-phenylpropane", "Neophyl chloride", "\u03b2,\u03b2-Dimethylphenethyl chloride", "2-Methyl-2-phenylpropyl chloride", "NSC 54159", "NSC 923", "(1,1-Dimethyl-2-chloroethyl)benzene", "(1-Chloro-2-methylpropan-2-yl)benzene"], "SMILES": "C(CCl)(C)(C)C1=CC=CC=C1", "physical_data": {"Molecular Weight": "168.66", "Molecular Formula": "C10H13Cl", "Boiling Point": "223 \u00b0C", "Melting Point": "54.5-55 \u00b0C", "Density": "1.047 g/cm\u00b3 @ Temp: 20 \u00b0C"}}