{"cas_no": "515-96-8", "cn_name": "\u5965\u80bc", "en_name": ["2-Amino-2-oxoacetic acid hydrazide", "Acetic acid, 2-amino-2-oxo-, hydrazide", "Semioxamazide", "Acetic acid, aminooxo-, hydrazide", "2-Amino-2-oxoacetic acid hydrazide", "Aminooxamide", "Oxamic acid hydrazide", "Semioxamazid", "Oxamic hydrazide", "N-Aminooxamide", "Carbamoylformic acid hydrazide", "NSC 45889", "2-Hydrazinyl-2-oxoacetamide", "1-(Hydrazinecarbonyl)formamide"], "SMILES": "C(C(N)=O)(NN)=O", "physical_data": {"Molecular Weight": "103.08", "Molecular Formula": "C2H5N3O2", "Melting Point": "221 \u00b0C (decomp)"}}