{"cas_no": "515-30-0", "cn_name": "DL-\u963f\u5353\u4e73\u9178\u534a\u6c34\u7269", "en_name": ["Atrolactic acid", "Benzeneacetic acid, \u03b1-hydroxy-\u03b1-methyl-", "Atrolactic acid", "Mandelic acid, \u03b1-methyl-", "\u03b1-Hydroxy-\u03b1-methylbenzeneacetic acid", "\u03b1-Hydroxy-\u03b1-phenylpropionic acid", "2-Hydroxy-2-phenylpropionic acid", "2-Phenyl-2-hydroxypropionic acid", "\u03b1-Phenyllactic acid", "2-Phenyllactic acid", "Atrolactinic acid", "\u03b1-Methylmandelic acid", "\u03b1-Hydroxy-2-phenylpropionic acid", "DL-Atrolactic acid", "DL-\u03b1-Methylmandelic acid", "(\u00b1)-\u03b1-Hydroxy-\u03b1-methylbenzeneacetic acid", "DL-\u03b1-Phenyllactic acid", "dl-Atrolactic acid", "(\u00b1)-2-Hydroxy-2-phenylpropionic acid", "(\u00b1)-Atrolactic acid", "DL-2-Phenyllactic acid", "(\u00b1)-2-Phenyllactic acid", "2-Hydroxy-2-phenylpropanoic acid", "(RS)-2-Phenyllactic acid", "2-Hydroxy-2-phenyl-2-methylacetic acid", "NSC 128998", "NSC 401846"], "SMILES": "C(C(O)=O)(C)(O)C1=CC=CC=C1", "physical_data": {"Molecular Weight": "166.17", "Molecular Formula": "C9H10O3", "Boiling Point": "127 \u00b0C @ Press: 12 Torr", "Melting Point": "116.5 \u00b0C"}}