{"cas_no": "51503-08-3", "cn_name": "2-\u7532\u57fa-6-\u82ef\u57fa\u5421\u5576-3-\u7532\u9178\u4e59\u916f", "en_name": ["4-(1,1-Dimethylethoxy)benzenemethanol", "Benzenemethanol, 4-(1,1-dimethylethoxy)-", "Benzyl alcohol, p-tert-butoxy-", "4-(1,1-Dimethylethoxy)benzenemethanol", "p-tert-Butoxybenzyl alcohol", "4-tert-Butoxybenzyl alcohol", "(4-tert-Butoxyphenyl)methanol", "[4-[(2-Methylpropan-2-yl)oxy]phenyl]methanol"], "SMILES": "O(C(C)(C)C)C1=CC=C(CO)C=C1", "physical_data": {"Molecular Weight": "180.24", "Molecular Formula": "C11H16O2", "Boiling Point": "154-155 \u00b0C @ Press: 16 Torr"}}