{"cas_no": "5150-42-5", "cn_name": "2,3-\u4e8c\u7532\u6c27\u57fa\u82ef\u915a", "en_name": ["2,3-Dimethoxyphenol", "Phenol, 2,3-dimethoxy-", "2,3-Dimethoxyphenol", "1-Hydroxy-2,3-dimethoxybenzene", "NSC 80659"], "SMILES": "O(C)C1=C(OC)C(O)=CC=C1", "physical_data": {"Molecular Weight": "154.16", "Molecular Formula": "C8H10O3", "Boiling Point": "124-157 \u00b0C @ Press: 17 Torr", "Melting Point": "97-98 \u00b0C"}}