{"cas_no": "51516-68-8", "cn_name": "5-\u6c28\u57fa-1-(3-\u6c2f\u82ef\u57fa)-1H-\u5421\u5511-4-\u7532\u8148", "en_name": ["5-Amino-1-(3-chlorophenyl)-1H-pyrazole-4-carbonitrile", "1H-Pyrazole-4-carbonitrile, 5-amino-1-(3-chlorophenyl)-", "5-Amino-1-(3-chlorophenyl)-1H-pyrazole-4-carbonitrile"], "SMILES": "NC=1N(N=CC1C#N)C2=CC(Cl)=CC=C2", "physical_data": {"Molecular Weight": "218.64", "Molecular Formula": "C10H7ClN4", "Melting Point": "188-189 \u00b0C"}}