{"cas_no": "51529-97-6", "cn_name": "5,6,7,8-\u56db\u6c22\u8418-2-\u7532\u919b", "en_name": ["5,6,7,8-Tetrahydro-2-naphthaldehyde", "2-Naphthalenecarboxaldehyde, 5,6,7,8-tetrahydro-", "2-Naphthaldehyde, 5,6,7,8-tetrahydro-", "5,6,7,8-Tetrahydro-2-naphthalenecarboxaldehyde", "5,6,7,8-Tetrahydro-2-naphthaldehyde", "3,4-Tetramethylenebenzaldehyde", "1,2,3,4-Tetrahydro-6-naphthaldehyde", "5,6,7,8-Tetrahydronaphthalene-2-carboxaldehyde"], "SMILES": "C(=O)C=1C=C2C(=CC1)CCCC2", "physical_data": {"Molecular Weight": "160.21", "Molecular Formula": "C11H12O", "Boiling Point": "117-120 \u00b0C @ Press: 4 Torr"}}