{"cas_no": "5152-84-1", "cn_name": "4-\u6c2f\u564c\u5549", "en_name": ["4-Chlorocinnoline", "Cinnoline, 4-chloro-", "4-Chlorocinnoline"], "SMILES": "ClC=1C2=C(N=NC1)C=CC=C2", "physical_data": {"Molecular Weight": "164.59", "Molecular Formula": "C8H5ClN2", "Melting Point": "76-77 \u00b0C"}}