{"cas_no": "5153-67-3", "cn_name": "\u53cd\u5f0f\u785d\u57fa\u82ef\u4e59\u70ef", "en_name": ["trans-\u03b2-Nitrostyrene", "Benzene, [(1E)-2-nitroethenyl]-", "Styrene, \u03b2-nitro-, (E)-", "Benzene, (2-nitroethenyl)-, (E)-", "[(1E)-2-Nitroethenyl]benzene", "trans-\u03b2-Nitrostyrene", "(E)-\u03b2-Nitrostyrene", "trans-1-Nitro-2-phenylethylene", "(E)-1-Nitro-2-phenylethene", "(E)-1-Nitro-2-phenylethylene", "(E)-(2-Nitroethenyl)benzene", "(E)-(2-Nitrovinyl)benzene", "(E)-1-Phenyl-2-nitroethene", "(E)-2-Phenyl-1-nitroethene", "(E)-\u03b2-Nitrostyrene", "trans-\u03b2-Nitrosytrene"], "SMILES": "C(=CN(=O)=O)C1=CC=CC=C1", "physical_data": {"Molecular Weight": "149.15", "Molecular Formula": "C8H7NO2", "Melting Point": "57 \u00b0C"}}