{"cas_no": "5153-71-9", "cn_name": "\u53cd-4-\u6eb4-\u03b2-\u785d\u57fa\u82ef\u4e59\u70ef", "en_name": ["trans-4-Bromo-\u03b2-nitrostyrene", "Benzene, 1-bromo-4-[(1E)-2-nitroethenyl]-", "Styrene, p-bromo-\u03b2-nitro-, (E)-", "Benzene, 1-bromo-4-(2-nitroethenyl)-, (E)-", "1-Bromo-4-[(1E)-2-nitroethenyl]benzene", "trans-p-Bromo-\u03b2-nitrostyrene", "(E)-1-Bromo-4-(2-nitroethenyl)benzene", "1-Bromo-4-((E)-2-nitroethenyl)benzene", "(E)-1-(4-Bromophenyl)-2-nitroethene", "(E)-2-(4-Bromophenyl)-1-nitroethene", "trans-p-Bromonitrostyrene", "E-4-Bromo-\u03b2-nitrostyrene", "trans-4-Bromo-\u03b2-nitrostyrene", "(E)-1-Bromo-4-(2-nitroethenyl)benzene", "(E)-\u03b2-Nitro-4-bromostyrene", "(E)-4-Bromo-(2-nitrovinyl)benzene", "(E)-1-Bromo-4-(2-nitrovinyl)benzene"], "SMILES": "C(=CN(=O)=O)C1=CC=C(Br)C=C1", "physical_data": {"Molecular Weight": "228.04", "Molecular Formula": "C8H6BrNO2", "Boiling Point": "-148-150 \u00b0C", "Melting Point": "147 \u00b0C"}}