{"cas_no": "51535-00-3", "cn_name": "1-\u82c4\u57fa-5-\u6c27-3-\u5421\u54af\u70f7\u7fa7\u9178\u7532\u916f", "en_name": ["Methyl 1-benzyl-5-oxo-3-pyrrolidinecarboxylate", "3-Pyrrolidinecarboxylic acid, 5-oxo-1-(phenylmethyl)-, methyl ester", "3-Pyrrolidinecarboxylic acid, 1-benzyl-5-oxo-, methyl ester", "Methyl 1-benzyl-5-oxo-3-pyrrolidinecarboxylate", "Methyl 5-oxo-1-(phenylmethyl)-3-pyrrolidinecarboxylate", "1-Benzyl-5-oxopyrrolidine-3-carboxylate methyl ester", "NSC 176916", "1-Benzyl-5-oxopyrrolidine-3-carboxylic acid methyl ester"], "SMILES": "C(N1CC(C(OC)=O)CC1=O)C2=CC=CC=C2", "physical_data": {"Molecular Weight": "233.26", "Molecular Formula": "C13H15NO3", "Boiling Point": "150 \u00b0C @ Press: 2 Torr", "Melting Point": "64-65 \u00b0C"}}