{"cas_no": "5153-40-2", "cn_name": "\u6eb4\u4e94\u7532\u57fa\u82ef", "en_name": ["1-Bromo-2,3,4,5,6-pentamethylbenzene", "Benzene, 1-bromo-2,3,4,5,6-pentamethyl-", "Benzene, bromopentamethyl-", "1-Bromo-2,3,4,5,6-pentamethylbenzene", "Bromopentamethylbenzene", "2,3,4,5,6-Pentamethylbromobenzene", "NSC 340", "Pentamethylbromobenzene"], "SMILES": "BrC1=C(C)C(C)=C(C)C(C)=C1C", "physical_data": {"Molecular Weight": "227.14", "Molecular Formula": "C11H15Br", "Melting Point": "160.5 \u00b0C"}}