{"cas_no": "51543-40-9", "cn_name": "(R)-\u6c1f\u6bd4\u6d1b\u82ac", "en_name": ["(-)-Flurbiprofen", "[1,1\u2032-Biphenyl]-4-acetic acid, 2-fluoro-\u03b1-methyl-, (\u03b1R)-", "[1,1\u2032-Biphenyl]-4-acetic acid, 2-fluoro-\u03b1-methyl-, (R)-", "(\u03b1R)-2-Fluoro-\u03b1-methyl[1,1\u2032-biphenyl]-4-acetic acid", "(-)-Flurbiprofen", "l-Flurbiprofen", "R-(-)-Flurbiprofen", "(-)-(R)-Flurbiprofen", "(R)-Flurbiprofen", "E 7869", "MPC 7869", "Tarenflurbil", "Flurizan", "(R)-(-)-2-(2-Fluorobiphenyl-4-yl)propionic acid", "(R)-Flurbiprofen", "(2R)-2-(3-Fluoro-4-phenylphenyl)propanoic acid"], "SMILES": "FC1=C(C=CC(C(C(O)=O)C)=C1)C2=CC=CC=C2", "physical_data": {"Molecular Weight": "244.26", "Molecular Formula": "C15H13FO2", "Melting Point": "104-106 \u00b0C"}}