{"cas_no": "5154-02-9", "cn_name": "1,5-\u4e8c\u7f9f\u57fa\u5f02\u55b9\u5549", "en_name": ["1,5-Isoquinolinediol", "1(2H)-Isoquinolinone, 5-hydroxy-", "1,5-Isoquinolinediol", "5-Hydroxy-1(2H)-isoquinolinone", "1,5-Dihydroxyisoquinoline", "NSC 65585", "1,5-IQD"], "SMILES": "OC1=C2C(C(=O)NC=C2)=CC=C1", "physical_data": {"Molecular Weight": "161.16", "Molecular Formula": "C9H7NO2", "Melting Point": "282 \u00b0C"}}