{"cas_no": "5154-01-8", "cn_name": "2,5-\u4e8c\u7f9f\u57fa\u5421\u5576", "en_name": ["5-Hydroxy-2(1H)-pyridinone", "2(1H)-Pyridinone, 5-hydroxy-", "2,5-Pyridinediol", "2(1H)-Pyridone, 5-hydroxy-", "5-Hydroxy-2(1H)-pyridinone", "2,5-Dihydroxypyridine", "5-Hydroxy-2-pyridone", "6-Hydroxy-3-pyridinol", "NSC 224189"], "SMILES": "OC=1C=CC(=O)NC1", "physical_data": {"Molecular Weight": "111.10", "Molecular Formula": "C5H5NO2", "Melting Point": "240-250 \u00b0C (decomp)"}}