{"cas_no": "51543-39-6", "cn_name": "(S)-\u6c1f\u6bd4\u6d1b\u82ac", "en_name": ["(+)-Flurbiprofen", "[1,1\u2032-Biphenyl]-4-acetic acid, 2-fluoro-\u03b1-methyl-, (\u03b1S)-", "[1,1\u2032-Biphenyl]-4-acetic acid, 2-fluoro-\u03b1-methyl-, (S)-", "(\u03b1S)-2-Fluoro-\u03b1-methyl[1,1\u2032-biphenyl]-4-acetic acid", "d-Flurbiprofen", "(+)-Flurbiprofen", "S-(+)-Flurbiprofen", "(S)-Flurbiprofen", "(+)-(S)-Flurbiprofen", "Esflurbiprofen", "(2S)-2-(2-Fluoro-1,1\u2032-biphenyl-4-yl)propanoic acid", "(2S)-2-(2-Fluoro-4-biphenyl)propanoic acid", "Dexflurbiprofen", "(S)-2-(2-Fluorobiphenyl-4-yl)propanoic acid", "(S)-2-(2-Fluoro-[1,1\u2032-biphenyl]-4-yl)propanoic acid", "(2S)-2-(2-Fluoro-1,1\u2032-biphenyl-4-yl)propanoic acid", "(S)-2-(2-Fluoro-[1,1\u2032-biphenyl]-4-yl)propanoicacid"], "SMILES": "FC1=C(C=CC(C(C(O)=O)C)=C1)C2=CC=CC=C2", "physical_data": {"Molecular Weight": "244.26", "Molecular Formula": "C15H13FO2", "Melting Point": "115-117 \u00b0C"}}