{"cas_no": "51554-95-1", "cn_name": "\u5bf9\u620a\u57fa\u6eb4\u82ef", "en_name": ["1-Bromo-4-pentylbenzene", "Benzene, 1-bromo-4-pentyl-", "1-Bromo-4-pentylbenzene", "p-Pentylbromobenzene", "4-Pentylbromobenzene", "p-Pentylphenyl bromide", "4-n-Pentylbromobenzene"], "SMILES": "C(CCCC)C1=CC=C(Br)C=C1", "physical_data": {"Molecular Weight": "227.14", "Molecular Formula": "C11H15Br", "Boiling Point": "109-110 \u00b0C @ Press: 4 Torr", "Density": "1.2038 g/cm\u00b3 @ Temp: 20 \u00b0C"}}