{"cas_no": "51554-94-0", "cn_name": "1-\u6eb4-4-\u6b63-\u58ec\u57fa\u82ef", "en_name": ["1-Bromo-4-nonylbenzene", "Benzene, 1-bromo-4-nonyl-", "1-Bromo-4-nonylbenzene", "4-Bromophenylnonane", "4-n-Nonylbromobenzene", "1-Bromo-4-n-nonylbenzene"], "SMILES": "C(CCCCCCCC)C1=CC=C(Br)C=C1", "physical_data": {"Molecular Weight": "283.25", "Molecular Formula": "C15H23Br", "Boiling Point": "107 \u00b0C @ Press: 0.20 Torr"}}