{"cas_no": "51550-40-4", "cn_name": "N-(2,4-\u4e8c\u7532\u82ef\u57fa)-N'-\u7532\u57fa\u7532\u8112\u76d0\u9178\u76d0", "en_name": ["Semiamitraz chloride", "Methanimidamide, N-(2,4-dimethylphenyl)-N\u2032-methyl-, hydrochloride (1:1)", "Methanimidamide, N-(2,4-dimethylphenyl)-N\u2032-methyl-, monohydrochloride", "U 40481A", "N-Methyl-N\u2032-(2,4-xylyl)formamidine hydrochloride", "N-(2,4-Dimethylphenyl)-N\u2032-methylmethanimidamide hydrochloride", "Danjiami", "N\u2032-(2,4-Xylyl)-N-methylformamidine hydrochloride", "Monocarboxoldehyde", "Semiamitraz chloride"], "SMILES": "N(=CNC)C1=C(C)C=C(C)C=C1.Cl", "physical_data": {"Molecular Weight": "", "Molecular Formula": "C10H14N2.ClH", "Melting Point": "161-163 \u00b0C"}}