{"cas_no": "51566-22-4", "cn_name": "3-\u7532\u57fa\u5421\u5576-2,6-\u4e8c\u80fa", "en_name": ["3-Methyl-2,6-pyridinediamine", "2,6-Pyridinediamine, 3-methyl-", "3-Picoline, 2,6-diamino-", "3-Methyl-2,6-pyridinediamine"], "SMILES": "NC1=C(C)C=CC(N)=N1", "physical_data": {"Molecular Weight": "123.16", "Molecular Formula": "C6H9N3", "Melting Point": "149-150 \u00b0C"}}