{"cas_no": "51566-62-2", "cn_name": "\u9999\u8305\u8148", "en_name": ["Citronellyl nitrile", "6-Octenenitrile, 3,7-dimethyl-", "3,7-Dimethyl-6-octenenitrile", "Citronellyl nitrile", "3,7-Dimethyl-6-octenonitrile", "Agrunitrile", "Agrunitril", "Citranellyl nitrile"], "SMILES": "C(CCC=C(C)C)(CC#N)C", "physical_data": {"Molecular Weight": "151.25", "Molecular Formula": "C10H17N", "Boiling Point": "91.5-92 \u00b0C @ Press: 11 Torr", "Density": "0.7887 g/cm\u00b3 @ Temp: 78 \u00b0C"}}