{"cas_no": "5157-75-5", "cn_name": "\u7532\u57fa\u5341\u516b\u70f7\u57fa\u4e8c\u6c2f\u5316\u7845\u70f7", "en_name": ["Octadecylmethyldichlorosilane", "Silane, dichloromethyloctadecyl-", "Dichloromethyloctadecylsilane", "Stearylmethyldichlorosilane", "Methyloctadecyldichlorosilane", "Octadecyldichloromethylsilane", "Octadecylmethyldichlorosilane", "NSC 96645", "Dichloromethylstearylsilane"], "SMILES": "C(CCCCCCCCCCCCCCC)CC[Si](C)(Cl)Cl", "physical_data": {"Molecular Weight": "367.51", "Molecular Formula": "C19H40Cl2Si", "Boiling Point": "185 \u00b0C @ Press: 2.5 Torr", "Melting Point": "24-26 \u00b0C", "Density": "0.930 g/cm\u00b3"}}