{"cas_no": "51572-89-5", "cn_name": "O-[(4-\u6c1f\u82ef\u57fa)\u7532\u57fa]\u7f9f\u80fa\u76d0\u9178\u76d0", "en_name": ["Hydroxylamine, O-[(4-fluorophenyl)methyl]-, hydrochloride (1:1)", "Hydroxylamine, O-[(4-fluorophenyl)methyl]-, hydrochloride (1:1)", "Hydroxylamine, O-[(4-fluorophenyl)methyl]-, hydrochloride", "O-(4-Fluorobenzyl)hydroxylamine hydrochloride", "1-[(Aminooxy)methyl]-4-fluorobenzene hydrochloride", "4-Fluorobenzyloxyamine hydrochloride", "p-Fluorobenzyloxyamine hydrochloride"], "SMILES": "C(ON)C1=CC=C(F)C=C1.Cl", "physical_data": {"Molecular Weight": "", "Molecular Formula": "C7H8FNO.ClH", "Melting Point": "219-220 \u00b0C"}}