{"cas_no": "5157-89-1", "cn_name": "(1S)-(+)-\u4e59\u9178\u8584\u8377\u916f", "en_name": ["(+)-Menthyl acetate", "Cyclohexanol, 5-methyl-2-(1-methylethyl)-, 1-acetate, (1S,2R,5S)-", "Menthol, acetate, (+)-", "Cyclohexanol, 5-methyl-2-(1-methylethyl)-, acetate, [1S-(1\u03b1,2\u03b2,5\u03b1)]-", "Cyclohexanol, 5-methyl-2-(1-methylethyl)-, acetate, (1S,2R,5S)-", "(+)-Menthyl acetate", "d-Menthyl acetate"], "SMILES": "C(C)(C)C1C(OC(C)=O)CC(C)CC1", "physical_data": {"Molecular Weight": "198.30", "Molecular Formula": "C12H22O2", "Boiling Point": "229.5 \u00b0C", "Melting Point": "&lt;25 \u00b0C"}}