{"cas_no": "5157-15-3", "cn_name": "3A,6A-\u4e8c\u82ef\u57fa\u516b\u6c22\u54aa\u5511\u5e76[4,5-D]\u54aa\u5511-2,5-\u4e8c\u916e", "en_name": ["Tetrahydro-3a,6a-diphenylimidazo[4,5-d]imidazole-2,5(1H,3H)-dione", "Imidazo[4,5-d]imidazole-2,5(1H,3H)-dione, tetrahydro-3a,6a-diphenyl-", "Glycoluril, 3a,6a-diphenyl-", "Tetrahydro-3a,6a-diphenylimidazo[4,5-d]imidazole-2,5(1H,3H)-dione", "Diphenylglycoluril", "NSC 144422", "NSC 87602"], "SMILES": "O=C1NC2(C(NC(=O)N2)(N1)C3=CC=CC=C3)C4=CC=CC=C4", "physical_data": {"Molecular Weight": "294.31", "Molecular Formula": "C16H14N4O2", "Melting Point": "390-394 \u00b0C"}}