{"cas_no": "5157-08-4", "cn_name": "4,5-\u4e8c\u6c22-6-\u7532\u57fa\u54d2\u55ea-3(2H)-\u916e", "en_name": ["4,5-Dihydro-6-methyl-3(2H)-pyridazinone", "3(2H)-Pyridazinone, 4,5-dihydro-6-methyl-", "4,5-Dihydro-6-methyl-3(2H)-pyridazinone", "6-Methyl-4,5-dihydro-3(2H)-pyridazinone", "NSC 14585", "NSC 48103", "3-Methyl-4,5-dihydro-1H-pyridazin-6-one"], "SMILES": "CC=1CCC(=O)NN1", "physical_data": {"Molecular Weight": "112.13", "Molecular Formula": "C5H8N2O", "Boiling Point": "265-270 \u00b0C", "Melting Point": "105 \u00b0C"}}