{"cas_no": "51586-24-4", "cn_name": "1-\u82ef\u57fa-2,2,2-\u4e09\u6c1f\u4e59\u80fa", "en_name": ["\u03b1-(Trifluoromethyl)benzenemethanamine", "Benzenemethanamine, \u03b1-(trifluoromethyl)-", "\u03b1-(Trifluoromethyl)benzenemethanamine", "\u03b1-Trifluoromethylbenzylamine", "2,2,2-Trifluoro-1-phenylethylamine", "1-Phenyl-2,2,2-trifluoroethylamine", "2,2,2-Trifluoro-1-phenylethanamine", "2,2,2-Trifluoro-1-phenylethan-1-amine", "1-Phenyl-2,2,2-trifluoroethanamine"], "SMILES": "C(C(F)(F)F)(N)C1=CC=CC=C1", "physical_data": {"Molecular Weight": "175.15", "Molecular Formula": "C8H8F3N", "Boiling Point": "110-111 \u00b0C @ Press: 40 Torr"}}