{"cas_no": "51581-54-5", "cn_name": "1-(4-CHLOROPHENYL)IMIDAZOLE", "en_name": ["1-(4-Chlorophenyl)-1H-imidazole", "1H-Imidazole, 1-(4-chlorophenyl)-", "1-(4-Chlorophenyl)-1H-imidazole", "1-(p-Chlorophenyl)imidazole", "1-(4-Chlorophenyl)imidazole", "N-(4-Chlorophenyl)imidazole"], "SMILES": "ClC1=CC=C(C=C1)N2C=CN=C2", "physical_data": {"Molecular Weight": "178.62", "Molecular Formula": "C9H7ClN2", "Melting Point": "84-86 \u00b0C"}}