{"cas_no": "51581-32-9", "cn_name": "3-(N,N-\u4e8c\u7532\u6c28\u57fa\u7532\u9170\u6c27\u57fa)\u5421\u5576", "en_name": ["Norpyridostigmine", "Carbamic acid, N,N-dimethyl-, 3-pyridinyl ester", "Carbamic acid, dimethyl-, 3-pyridinyl ester", "Carbamic acid, dimethyl-, 3-pyridyl ester", "Ro 1-5142", "Norpyridostigmine", "3-(Dimethylcarbamoyloxy)pyridine", "NSC 168373", "Pyridin-3-yl dimethylcarbamate"], "SMILES": "O(C(N(C)C)=O)C=1C=CC=NC1", "physical_data": {"Molecular Weight": "166.18", "Molecular Formula": "C8H10N2O2", "Boiling Point": "149 \u00b0C @ Press: 15 Torr"}}