{"cas_no": "51591-75-4", "cn_name": "\u987a1,3-\u4e8c\u82c4\u57fa\u54aa\u5511-2-\u916e-4,5-\u4e8c\u7fa7\u9178", "en_name": ["cis-1,3-Dibenzyl-2-imidazolidone-4,5-dicarboxylic acid", "4,5-Imidazolidinedicarboxylic acid, 2-oxo-1,3-bis(phenylmethyl)-, (4R,5S)-rel-", "4,5-Imidazolidinedicarboxylic acid, 2-oxo-1,3-bis(phenylmethyl)-, cis-", "4,5-Imidazolidinedicarboxylic acid, 1,3-dibenzyl-2-oxo-, cis-", "rel-(4R,5S)-2-Oxo-1,3-bis(phenylmethyl)-4,5-imidazolidinedicarboxylic acid", "(4R,5S)-rel-2-Oxo-1,3-bis(phenylmethyl)-4,5-imidazolidinedicarboxylic acid", "cis-1,3-Dibenzyl-2-imidazolidone-4,5-dicarboxylic acid", "cis-1,3-Dibenzyl-2-oxo-4,5-imidazolidinedicarboxylic acid"], "SMILES": "C(O)(=O)C1C(C(O)=O)N(CC2=CC=CC=C2)C(=O)N1CC3=CC=CC=C3", "physical_data": {"Molecular Weight": "354.36", "Molecular Formula": "C19H18N2O5", "Melting Point": "236 \u00b0C"}}