{"cas_no": "51591-38-9", "cn_name": "L-(-)-\u4e8c\u4e59\u9170\u57fa\u9152\u77f3\u9178", "en_name": ["Diacetyltartaric acid", "Butanedioic acid, 2,3-bis(acetyloxy)-, (2R,3R)-", "Butanedioic acid, 2,3-bis(acetyloxy)-, [R-(R*,R*)]-", "(2R,3R)-2,3-Bis(acetyloxy)butanedioic acid", "Tartaric acid diacetate", "DAWE", "Diacetyltartaric acid", "(R,R)-2,3-Diacetoxy-1,4-butanedioic acid", "L-Diacetyltartaric acid"], "SMILES": "C(C(OC(C)=O)C(O)=O)(OC(C)=O)C(O)=O", "physical_data": {"Molecular Weight": "234.16", "Molecular Formula": "C8H10O8", "Melting Point": "118 \u00b0C"}}