{"cas_no": "51594-55-9", "cn_name": "\u5de6\u65cb\u73af\u6c27\u6c2f\u4e19\u70f7", "en_name": ["(-)-Epichlorohydrin", "Oxirane, 2-(chloromethyl)-, (2R)-", "Oxirane, (chloromethyl)-, (R)-", "Oxirane, (chloromethyl)-, (2R)-", "(2R)-2-(Chloromethyl)oxirane", "(-)-Epichlorohydrin", "(R)-Epichlorohydrin", "(R)-1-Chloro-2,3-epoxypropane", "(R)-(Chloromethyl)oxirane", "(R)-(-)-Epichlorohydrin", "(R)-Epichlorohydrin", "(R)-(-)-Epichlorohydrin", "(R)-2-(Chloromethyl)oxirane", "(-)-2-(Chloromethyl)oxirane", "(R)-3-Chloro-1,2-epoxypropane", "(R)-(-)-2-(Chloromethyl)oxirane", "(2R)-2-(Chloromethyl)oxirane"], "SMILES": "C(Cl)C1CO1", "physical_data": {"Molecular Weight": "92.52", "Molecular Formula": "C3H5ClO", "Boiling Point": "118 \u00b0C @ Press: 760 Torr"}}