{"cas_no": "5159-41-1", "cn_name": "2-\u7898\u82c4\u9187", "en_name": ["2-Iodobenzyl alcohol", "Benzenemethanol, 2-iodo-", "Benzyl alcohol, o-iodo-", "2-Iodobenzenemethanol", "o-Iodobenzyl alcohol", "2-Iodobenzyl alcohol", "2-(Hydroxymethyl)iodobenzene", "1-Hydroxymethyl-2-iodobenzene", "2-Iodophenylmethanol", "2-(Hydroxymethyl)-1-iodobenzene"], "SMILES": "C(O)C1=C(I)C=CC=C1", "physical_data": {"Molecular Weight": "234.03", "Molecular Formula": "C7H7IO", "Melting Point": "92 \u00b0C"}}