{"cas_no": "51596-10-2", "cn_name": "\u5bc6\u706d\u6c40A3", "en_name": ["(6R,25R)-5-O-Demethyl-28-deoxy-6,28-epoxy-25-methylmilbemycin B", "Milbemycin B, 5-O-demethyl-28-deoxy-6,28-epoxy-25-methyl-, (6R,25R)-", "Spiro[11,15-methano-2H,7H,13H-furo[4,3,2-pq][2,6]benzodioxacyclooctadecin-13,2\u2032-[2H]pyran], milbemycin B deriv.", "(6R,25R)-5-O-Demethyl-28-deoxy-6,28-epoxy-25-methylmilbemycin B", "Antibiotic B 41A3", "Milbemycin \u03b11", "Milbemycin A3", "(+)-Milbemycin \u03b11", "Milbeknock", "GWN 1725", "Gowan 1725", "Matsuguard", "Koromite", "Mesa", "Emamectin A3", "Mesa (acaricide)", "Ultiflora", "Milbemectin"], "SMILES": "CC1OC2(CC3CC(O2)CC=C(C)CC(C)C=CC=C4C5(O)C(C(=O)O3)C=C(C)C(O)C5OC4)CCC1C", "physical_data": {"Molecular Weight": "528.68", "Molecular Formula": "C31H44O7", "Melting Point": "213.5 \u00b0C"}}