{"cas_no": "51593-69-2", "cn_name": "2H-\u8272\u916e-3-\u7532\u919b", "en_name": ["2H-1-Benzopyran-3-carboxaldehyde", "2H-1-Benzopyran-3-carboxaldehyde", "2H-Chromene-3-carboxaldehyde", "2H-Chromene-3-carbaldehyde"], "SMILES": "C(=O)C1=CC=2C(OC1)=CC=CC2", "physical_data": {"Molecular Weight": "160.17", "Molecular Formula": "C10H8O2", "Melting Point": "70 \u00b0C"}}