{"cas_no": "51598-60-8", "cn_name": "\u897f\u6258\u6eb4\u94f5", "en_name": ["Cimetropium bromide", "3-Oxa-9-azoniatricyclo[3.3.1.02,4]nonane, 9-(cyclopropylmethyl)-7-[(2S)-3-hydroxy-1-oxo-2-phenylpropoxy]-9-methyl-, bromide (1:1), (1\u03b1,2\u03b2,4\u03b2,5\u03b1,7\u03b2)-", "3-Oxa-9-azoniatricyclo[3.3.1.02,4]nonane, 9-(cyclopropylmethyl)-7-(3-hydroxy-1-oxo-2-phenylpropoxy)-9-methyl-, bromide, [7(S)-(1\u03b1,2\u03b2,4\u03b2,5\u03b1,7\u03b2)]-", "3-Oxa-9-azoniatricyclo[3.3.1.02,4]nonane, 9-(cyclopropylmethyl)-7-[(2S)-3-hydroxy-1-oxo-2-phenylpropoxy]-9-methyl-, bromide, (1\u03b1,2\u03b2,4\u03b2,5\u03b1,7\u03b2)-", "3-Oxa-9-azatricyclo[3.3.1.02,4]nonane, 3-oxa-9-azoniatricyclo[3.3.1.02,4]nonane deriv.", "DA 3177", "Cimetropium bromide", "Alginor", "N-Cyclopropylmethylscopolamine bromide"], "SMILES": "C([N+]1(C)C2C3C(O3)C1CC(OC(C(CO)C4=CC=CC=C4)=O)C2)C5CC5.[Br-]", "physical_data": {"Molecular Weight": "", "Molecular Formula": "C21H28NO4.Br", "Melting Point": "174 \u00b0C"}}