{"cas_no": "51596-11-3", "cn_name": "\u5bc6\u706d\u6c40A4", "en_name": ["Milbemycin A4", "Milbemycin B, 5-O-demethyl-28-deoxy-6,28-epoxy-25-ethyl-, (6R,25R)-", "Spiro[11,15-methano-2H,7H,13H-furo[4,3,2-pq][2,6]benzodioxacyclooctadecin-13,2\u2032-[2H]pyran], milbemycin B deriv.", "(6R,25R)-5-O-Demethyl-28-deoxy-6,28-epoxy-25-ethylmilbemycin B", "Antibiotic B 41A4", "Milbemycin \u03b13", "Milbemycin A4", "Emamectin A4"], "SMILES": "C(C)C1OC2(CC3CC(O2)CC=C(C)CC(C)C=CC=C4C5(O)C(C(=O)O3)C=C(C)C(O)C5OC4)CCC1C", "physical_data": {"Molecular Weight": "542.70", "Molecular Formula": "C32H46O7", "Melting Point": "213.5 \u00b0C"}}