{"cas_no": "51592-06-4", "cn_name": "1,3,4,6-\u56db\u6c2f-3A,6A-\u4e8c\u82ef\u57fa\u516b\u6c22\u54aa\u5511\u5e76[4,5-D]\u54aa\u5511-2,5-\u4e8c\u916e", "en_name": ["Iodogen", "Imidazo[4,5-d]imidazole-2,5(1H,3H)-dione, 1,3,4,6-tetrachlorotetrahydro-3a,6a-diphenyl-", "Glycoluril, 1,3,4,6-tetrachloro-3a,6a-diphenyl-", "1,3,4,6-Tetrachlorotetrahydro-3a,6a-diphenylimidazo[4,5-d]imidazole-2,5(1H,3H)-dione", "Iodogen", "1,3,4,6-Tetrachloro-3a,6a-diphenylglycoluril", "Simiod", "NSC 4462", "1,3,4,6-Tetrachloro-3a,6a-diphenylimidazo[4,5-d]imidazole-2,5-dione"], "SMILES": "ClN1C2(C(N(Cl)C(=O)N2Cl)(N(Cl)C1=O)C3=CC=CC=C3)C4=CC=CC=C4", "physical_data": {"Molecular Weight": "432.09", "Molecular Formula": "C16H10Cl4N4O2", "Melting Point": "249-252 \u00b0C"}}