{"cas_no": "516-06-3", "cn_name": "DL-\u7f2c\u6c28\u9178", "en_name": ["DL-Valine", "Valine", "Valine, DL-", "DL-Valine", "DL-\u03b1-Aminoisovaleric acid", "(\u00b1)-Valine", "DL-Val", "(RS)-Valine", "NSC 9755", "(\u00b1)-2-Amino-3-methylbutyric acid"], "SMILES": "C(C(C)C)(C(O)=O)N", "physical_data": {"Molecular Weight": "117.15", "Molecular Formula": "C5H11NO2", "Melting Point": "298 \u00b0C (decomp)"}}