{"cas_no": "516-12-1", "cn_name": "N-\u7898\u4ee3\u4e01\u4e8c\u9170\u4e9a\u80fa", "en_name": ["N-Iodosuccinimide", "2,5-Pyrrolidinedione, 1-iodo-", "Succinimide, N-iodo-", "1-Iodo-2,5-pyrrolidinedione", "N-Iodosuccinimide", "NIS", "Succiniodimide"], "SMILES": "IN1C(=O)CCC1=O", "physical_data": {"Molecular Weight": "224.98", "Molecular Formula": "C4H4INO2", "Melting Point": "200-201 \u00b0C"}}