{"cas_no": "516-91-6", "cn_name": "\u80c6\u753e\u9187\u6eb4", "en_name": ["Cholesteryl bromide", "Cholest-5-ene, 3-bromo-, (3\u03b2)-", "Cholest-5-ene, 3\u03b2-bromo-", "(3\u03b2)-3-Bromocholest-5-ene", "3\u03b2-Bromocholest-5-ene", "Cholesteryl bromide"], "SMILES": "CC12C(C3C(C4(C)C(=CC3)CC(Br)CC4)CC1)CCC2C(CCCC(C)C)C", "physical_data": {"Molecular Weight": "449.55", "Molecular Formula": "C27H45Br", "Melting Point": "98 \u00b0C"}}