{"cas_no": "516-15-4", "cn_name": "4-\u5b55\u70ef-3,11,20-\u4e09\u916e", "en_name": ["Pregn-4-ene-3,11,20-trione", "Pregn-4-ene-3,11,20-trione", "U 1258", "Ketogestin", "11-Ketoprogesterone", "11-Oxoprogesterone", "\u03944-Pregnene-3,11,20-trione", "11-Oxopregn-4-ene-3,20-dione", "Ketoprogesterone", "DG 322A", "STX 124"], "SMILES": "CC12C3C(C4C(C)(CC3=O)C(C(C)=O)CC4)CCC1=CC(=O)CC2", "physical_data": {"Molecular Weight": "328.45", "Molecular Formula": "C21H28O3", "Melting Point": "172 \u00b0C"}}