{"cas_no": "516-05-2", "cn_name": "\u7532\u57fa\u4e19\u4e8c\u9178", "en_name": ["Methylmalonic acid", "Propanedioic acid, 2-methyl-", "Malonic acid, methyl-", "Propanedioic acid, methyl-", "2-Methylpropanedioic acid", "1,1-Ethanedicarboxylic acid", "Methylmalonic acid", "Isosuccinic acid", "2-Methylmalonic acid", "Methylpropanedioic acid", "NSC 25201", "MeSH ID: D008764"], "SMILES": "C(C(O)=O)(C(O)=O)C", "physical_data": {"Molecular Weight": "118.09", "Molecular Formula": "C4H6O4", "Boiling Point": "120 \u00b0C @ Press: 15 Torr", "Melting Point": "135 \u00b0C (decomp)"}}