{"cas_no": "516-92-7", "cn_name": "\u80c6\u753e\u70f7\u9187", "en_name": ["Epicoprostanol", "Cholestan-3-ol, (3\u03b1,5\u03b2)-", "5\u03b2-Cholestan-3\u03b1-ol", "(3\u03b1,5\u03b2)-Cholestan-3-ol", "epi-Coprostanol", "epi-Coprosterol", "Epicoprostanol", "Epicoprosterol", "\u03b1-Coprostanol", "Epikoprosterin", "NSC 18182", "5\u03b2-Epicholestanol"], "SMILES": "CC12C(C3C(C4(C)C(CC3)CC(O)CC4)CC1)CCC2C(CCCC(C)C)C", "physical_data": {"Molecular Weight": "388.67", "Molecular Formula": "C27H48O", "Melting Point": "110.5-111.5 \u00b0C"}}