{"cas_no": "516-55-2", "cn_name": "\u522b\u5b55\u70ef\u9187\u916e", "en_name": ["3\u03b2-Hydroxy-5\u03b1-pregnan-20-one", "Pregnan-20-one, 3-hydroxy-, (3\u03b2,5\u03b1)-", "5\u03b1-Pregnan-20-one, 3\u03b2-hydroxy-", "(3\u03b2,5\u03b1)-3-Hydroxypregnan-20-one", "Allopregnan-3\u03b2-ol-20-one", "3\u03b2,5\u03b1-Pregnanolone", "3\u03b2-Hydroxy-5\u03b1-tetrahydroprogesterone", "Allopregnanolone", "3\u03b2-Hydroxy-5\u03b1,17\u03b2-pregnan-20-one", "3\u03b2-Hydroxy-5\u03b1-pregnan-20-one", "5\u03b1-Pregnane-3\u03b2-ol-20-one", "Isopregnanolone", "5\u03b1-Dihydropregnenolone", "U 0949", "3\u03b2-Allopregnanolone", "3\u03b2-Hydroxy-5\u03b1-dihydroprogesterone", "3-Deoxo-3\u03b2-hydroxy-5\u03b1-dihydroprogesterone", "NSC 97078", "Epiallopregnanolone", "Isoallopregnanolone", "Sepranolone", "UC 1010"], "SMILES": "CC12C3C(C4C(C)(CC3)C(C(C)=O)CC4)CCC1CC(O)CC2", "physical_data": {"Molecular Weight": "318.49", "Molecular Formula": "C21H34O2", "Melting Point": "194.5 \u00b0C", "Density": "1.1 g/cm\u00b3"}}