{"cas_no": "516-54-1", "cn_name": "\u56db\u6c22\u5b55\u916e", "en_name": ["3\u03b1-Hydroxy-5\u03b1-pregnan-20-one", "Pregnan-20-one, 3-hydroxy-, (3\u03b1,5\u03b1)-", "5\u03b1-Pregnan-20-one, 3\u03b1-hydroxy-", "(3\u03b1,5\u03b1)-3-Hydroxypregnan-20-one", "Allopregnan-3\u03b1-ol-20-one", "3\u03b1-Hydroxy-5\u03b1-pregnan-20-one", "3\u03b1-Hydroxy-5\u03b1-pregnane-20-one", "3\u03b1,5\u03b1-Pregnanolone", "3\u03b1-Hydroxy-5\u03b1-dihydroprogesterone", "3\u03b1,5\u03b1-Tetrahydroprogesterone", "Allotetrahydroprogesterone", "5\u03b1-Pregnane-3\u03b1-ol-20-one", "(3\u03b1)-Allopregnanolone", "(+)-3\u03b1-Hydroxy-5\u03b1-pregnan-20-one", "Allopregnanolone", "3\u03b1,5\u03b1-THP", "5\u03b1-Pregnan-3\u03b1-ol-20-one", "SAGE 547", "Allopregnanolone (SAGE-547)", "Brexanolone", "Zulresso"], "SMILES": "CC12C3C(C4C(C)(CC3)C(C(C)=O)CC4)CCC1CC(O)CC2", "physical_data": {"Molecular Weight": "318.49", "Molecular Formula": "C21H34O2", "Melting Point": "177 \u00b0C"}}