{"cas_no": "516-37-0", "cn_name": "\u5564\u9152\u753e\u9187", "en_name": ["Cerevisterol", "Ergosta-7,22-diene-3,5,6-triol, (3\u03b2,5\u03b1,6\u03b2,22E)-", "5\u03b1-Ergosta-7,22-diene-3\u03b2,5,6\u03b2-triol", "5\u03b1-Ergosta-7,22-diene-3\u03b2,5,6-triol", "(3\u03b2,5\u03b1,6\u03b2,22E)-Ergosta-7,22-diene-3,5,6-triol", "Cerevisterol", "Cerevisterin", "(22E,24R)-Ergosta-7,22-diene-3\u03b2,5\u03b1,6\u03b2-triol", "(22E)-Ergosta-7,22-diene-3\u03b2,5\u03b1,6\u03b2-triol", "(22E,24R)-Ergosta-7,22-dien-3\u03b2,5\u03b1,6\u03b2-triol", "Ergosta-7,22-diene-3\u03b2,5\u03b1,6\u03b2-triol", "(20S,22E,24R)-Ergosta-7,22-dien-3\u03b2,5\u03b1,6\u03b2-triol", "(3\u03b2,5\u03b1,6\u03b2)-3,5,6-Trihydroxyergosta-7,22-diene", "24-Methylcholesta-7,22E-diene-3\u03b2,5\u03b1,6\u03b2-triol"], "SMILES": "CC12C3C(C4C(C)(CC3)C(C(C=CC(C(C)C)C)C)CC4)=CC(O)C1(O)CC(O)CC2", "physical_data": {"Molecular Weight": "430.66", "Molecular Formula": "C28H46O3", "Melting Point": "&gt;240 \u00b0C"}}