{"cas_no": "51605-32-4", "cn_name": "4-\u7532\u57fa-5-\u54aa\u5511\u7532\u9178\u4e59\u916f", "en_name": ["1H-Imidazole-5-carboxylic acid, 4-methyl-, ethyl ester", "1H-Imidazole-5-carboxylic acid, 4-methyl-, ethyl ester", "1H-Imidazole-4-carboxylic acid, 5-methyl-, ethyl ester", "Imidazole-4(or 5)-carboxylic acid, 5(or 4)-methyl-, ethyl ester", "4-Carbethoxy-5-methylimidazole", "Ethyl 5-methyl-4-imidazolecarboxylate", "Ethyl 5-methyl-1H-imidazole-4-carboxylate", "Ethyl 4-methylimidazole-5-carboxylate", "5-Ethoxycarbonyl-4-methylimidazole", "5-Methyl-4-ethoxycarbonylimidazole", "Ethyl 4-methyl-5-imidazolcarboxylate", "NSC 195976", "Ethyl 4-methyl-1H-imidazole-5-carboxylate", "5-Methyl-3H-imidazole-4-carboxylic acid ethyl ester", "4-Methyl-1H-imidazole-5-carboxylic acid ethyl ester", "5-Methyl-1H-imidazole-4-carboxylic acid ethyl ester"], "SMILES": "C(OCC)(=O)C1=C(C)N=CN1", "physical_data": {"Molecular Weight": "154.17", "Molecular Formula": "C7H10N2O2", "Melting Point": "204-205 \u00b0C"}}