{"cas_no": "5160-02-1", "cn_name": "\u989c\u6599\u7ea2 53:1", "en_name": ["C.I. Pigment Red 53:1", "Benzenesulfonic acid, 5-chloro-2-[2-(2-hydroxy-1-naphthalenyl)diazenyl]-4-methyl-, barium salt (2:1)", "C.I. Pigment Red 53, barium salt (2:1)", "Benzenesulfonic acid, 5-chloro-2-[(2-hydroxy-1-naphthalenyl)azo]-4-methyl-, barium salt (2:1)", "C.I. Pigment Red 53, Ba salt", "1860 Red", "Bronze Scarlet CA", "Bronze Scarlet CBA", "Bronze Scarlet CTA", "Eljon Lake Red C", "Lake Red C 18287", "Lake Red C 21245", "Lake Red C 27200", "Lake Red C 27217", "Lake Red C 27218", "Latexol Scarlet R", "Pigment Lake Red BFC", "D and C Red No. 9", "Lake Red CBA", "Lake Red C-RLC 232", "Pigment Lake Red LC", "Lake Red Toner LCLL", "Lake Red ZhB", "Pigment Red 53:1", "Astro Orange", "Atomic Red", "Red No. 204", "Carnation Red", "Desert Red", "C.I. Pigment Red 53:1", "Red ZhB", "Lake Red GB", "Red Lake C", "Segnale Red LCG", "Segnale Red LCL", "Japan Red 204", "Japan Red No. 204", "Symuler Lake Red C", "Sumikaprint Red C-O", "Lake Red C", "Permanent Lake Red LC", "C.I. 15585:1", "Permanent Lake Red LCLL", "D&", "C Red No. 9", "Irgalite Red LCB", "Lionol Red C-FG 3100", "PR 53:1", "C.I. PR 53:1", "Red 6011", "Irgalite Red CBNL", "Scarlet LC", "Jinguanghong", "Jinguanghong C", "Graphtol Red LC"], "SMILES": "N(=NC1=C(S(=O)(=O)O)C=C(Cl)C(C)=C1)C=2C3=C(C=CC2O)C=CC=C3.[Ba]", "physical_data": {"Molecular Weight": "", "Molecular Formula": "C17H13ClN2O4S.<sup>1</sup>/2Ba", "Melting Point": "343-345 \u00b0C (decomp)", "Density": "1.66 g/cm\u00b3"}}