{"cas_no": "51618-29-2", "cn_name": "6-\u6c2f-2-\u5def\u57fa\u82ef\u5e76\u567b\u5511", "en_name": ["6-Chloro-2(3H)-benzothiazolethione", "2(3H)-Benzothiazolethione, 6-chloro-", "Benzothiazole, 6-chloro-2-mercapto-", "6-Chloro-2(3H)-benzothiazolethione", "6-Chloro-2-mercaptobenzothiazole", "NSC 503425"], "SMILES": "S=C1NC=2C(S1)=CC(Cl)=CC2", "physical_data": {"Molecular Weight": "201.70", "Molecular Formula": "C7H4ClNS2", "Melting Point": "244-245 \u00b0C"}}