{"cas_no": "5162-63-0", "cn_name": "1,3,5,7-\u56db\u7532\u57fa-1,3,5,7-\u56db\u4e59\u70ef\u57fa\u73af\u56db\u7845\u6c2e\u70f7", "en_name": ["2,4,6,8-Tetraethenyl-2,4,6,8-tetramethylcyclotetrasilazane", "Cyclotetrasilazane, 2,4,6,8-tetraethenyl-2,4,6,8-tetramethyl-", "Cyclotetrasilazane, 2,4,6,8-tetramethyl-2,4,6,8-tetravinyl-", "2,4,6,8-Tetraethenyl-2,4,6,8-tetramethylcyclotetrasilazane", "1,3,5,7-Tetravinyl-1,3,5,7-tetramethylcyclotetrasilazane", "Tetravinyltetramethylcyclotetrasilazane", "2,4,6,8-Tetrakis(ethenyl)-2,4,6,8-tetramethyl-1,3,5,7,2,4,6,8-tetrazatetrasilocane"], "SMILES": "C(=C)[Si]1(C)N[Si](C=C)(C)N[Si](C=C)(C)N[Si](C=C)(C)N1", "physical_data": {"Molecular Weight": "340.72", "Molecular Formula": "C12H28N4Si4", "Boiling Point": "104-107 \u00b0C @ Press: 4 Torr", "Density": "0.992 g/cm\u00b3 @ Temp: 24 \u00b0C"}}