{"cas_no": "5162-03-8", "cn_name": "2-\u6c2f\u4e8c\u82ef\u7532\u916e", "en_name": ["2-Chlorobenzophenone", "Methanone, (2-chlorophenyl)phenyl-", "Benzophenone, 2-chloro-", "(2-Chlorophenyl)phenylmethanone", "2-Chlorobenzophenone", "o-Chlorobenzophenone", "2-Chlorophenyl phenyl ketone", "NSC 62529", "2-Benzoylphenyl chloride", "(2-Chlorophenyl)(phenyl)methanone", "2-CBP"], "SMILES": "C(=O)(C1=C(Cl)C=CC=C1)C2=CC=CC=C2", "physical_data": {"Molecular Weight": "216.66", "Molecular Formula": "C13H9ClO", "Boiling Point": "185-188 \u00b0C @ Press: 13 Torr", "Melting Point": "52-56 \u00b0C"}}