{"cas_no": "5162-82-3", "cn_name": "3-\u6c2f-4-\u7532\u57fa\u82ef\u7532\u9178", "en_name": ["3-Chloro-4-methylbenzoic acid", "Benzoic acid, 3-chloro-4-methyl-", "p-Toluic acid, 3-chloro-", "3-Chloro-4-methylbenzoic acid", "3-Chloro-p-toluic acid"], "SMILES": "C(O)(=O)C1=CC(Cl)=C(C)C=C1", "physical_data": {"Molecular Weight": "170.59", "Molecular Formula": "C8H7ClO2", "Boiling Point": "105-107 \u00b0C @ Press: 6.5 Torr", "Melting Point": "196 \u00b0C"}}