{"cas_no": "5162-44-7", "cn_name": "4-\u6eb4-1-\u4e01\u70ef", "en_name": ["4-Bromo-1-butene", "1-Butene, 4-bromo-", "4-Bromo-1-butene", "1-Bromo-3-butene", "3-Butenyl bromide", "Homoallyl bromide", "4-Bromobutene-1", "Allylcarbinyl bromide", "But-3-en-1-yl bromide", "4-Bromobut-1-ene"], "SMILES": "C(CBr)C=C", "physical_data": {"Molecular Weight": "135.00", "Molecular Formula": "C4H7Br", "Boiling Point": "98.5 \u00b0C", "Density": "1.3230 g/cm\u00b3 @ Temp: 20 \u00b0C"}}