{"cas_no": "51632-16-7", "cn_name": "1-\u6eb4\u7532\u57fa-3-\u82ef\u6c27\u57fa\u82ef", "en_name": ["3-Phenoxybenzyl bromide", "Benzene, 1-(bromomethyl)-3-phenoxy-", "1-(Bromomethyl)-3-phenoxybenzene", "3-Phenoxybenzyl bromide", "m-Phenoxybenzyl bromide", "\u03b1-Bromo-m-tolyl phenyl ether", "m-(Bromomethyl)phenyl phenyl ether", "3-Phenoxy-\u03b1-bromotoluene"], "SMILES": "O(C1=CC(CBr)=CC=C1)C2=CC=CC=C2", "physical_data": {"Molecular Weight": "263.13", "Molecular Formula": "C13H11BrO", "Boiling Point": "52 \u00b0C @ Press: 0.4 Torr"}}