{"cas_no": "51632-29-2", "cn_name": "3-\u82ef\u6c27\u57fa\u82ef\u4e59\u8148", "en_name": ["(3-Phenoxyphenyl)acetonitrile", "Benzeneacetonitrile, 3-phenoxy-", "3-Phenoxybenzeneacetonitrile", "(3-Phenoxyphenyl)acetonitrile", "m-Phenoxybenzyl cyanide", "3-Phenoxybenzyl cyanide", "m-Phenoxyphenyl-acetonitrile", "2-(3-Phenoxyphenyl)acetonitrile"], "SMILES": "O(C1=CC(CC#N)=CC=C1)C2=CC=CC=C2", "physical_data": {"Molecular Weight": "209.24", "Molecular Formula": "C14H11NO", "Boiling Point": "161-163 \u00b0C @ Press: 1 Torr"}}