{"cas_no": "51630-58-1", "cn_name": "\u6c30\u620a\u83ca\u916f", "en_name": ["Fenvalerate", "Benzeneacetic acid, 4-chloro-\u03b1-(1-methylethyl)-, cyano(3-phenoxyphenyl)methyl ester", "SD 43775", "WL 43775", "S 5602", "Sumicidin", "Fenvalerate", "Pydrin", "Phenvalerate", "Cyano(3-phenoxyphenyl)methyl 4-chloro-\u03b1-(1-methylethyl)benzeneacetate", "Belmark", "\u03b1-Cyano-3-phenoxybenzyl 2-(4-chlorophenyl)isovalerate", "Aqmatrine", "Fenval", "Ectrin", "Evercide 2362", "Agrofen", "Fenkill", "SCS", "Insectral", "Furitrothion", "Fenkem", "Tribute", "Sanmarton", "Phenaxin", "Phenoxin", "Fenaxin", "Fenoxin", "Vapcocidin", "Tatafen", "Valour", "Hafen", "Tribute (insecticide)"], "SMILES": "C(C(OC(C#N)C1=CC(OC2=CC=CC=C2)=CC=C1)=O)(C(C)C)C3=CC=C(Cl)C=C3", "physical_data": {"Molecular Weight": "419.90", "Molecular Formula": "C25H22ClNO3", "Boiling Point": "300 \u00b0C @ Press: 37 Torr", "Melting Point": "45 \u00b0C", "Density": "1.17 g/cm\u00b3 @ Temp: 23 \u00b0C"}}