{"cas_no": "51639-48-6", "cn_name": "\u5bf9\u5471\u55ea\u82ef\u4e59\u9170", "en_name": ["1-(4-Acetylphenyl)piperazine", "Ethanone, 1-[4-(1-piperazinyl)phenyl]-", "1-[4-(1-Piperazinyl)phenyl]ethanone", "N-(4-Acetylphenyl)piperazine", "1-[4-(1-Piperazinyl)phenyl]-1-ethanone", "4\u2032-Piperazinoacetophenone", "1-(p-Acetylphenyl)piperazine", "4-(4-Acetylphenyl)piperazine", "1-(4-Piperazin-1-ylphenyl)ethanone", "NSC 109890", "4-(Piperazin-1-yl)acetophenone", "1-(4-Acetylphenyl)piperazine"], "SMILES": "C(C)(=O)C1=CC=C(C=C1)N2CCNCC2", "physical_data": {"Molecular Weight": "204.27", "Molecular Formula": "C12H16N2O", "Melting Point": "95 \u00b0C"}}