{"cas_no": "51644-96-3", "cn_name": "N-(5-\u6c28\u57fa\u620a\u57fa)\u6c28\u57fa\u7532\u9178\u53d4\u4e01\u916f", "en_name": ["N-(tert-Butoxycarbonyl)-1,5-diaminopentane", "Carbamic acid, N-(5-aminopentyl)-, 1,1-dimethylethyl ester", "Carbamic acid, (5-aminopentyl)-, 1,1-dimethylethyl ester", "5-(N-tert-Butoxycarbonyl)amino-1-aminopentane", "N-(tert-Butoxycarbonyl)-1,5-pentanediamine", "N-(tert-Butoxycarbonyl)-1,5-diaminopentane", "5-[(tert-Butoxycarbonyl)amino]-1-pentylamine", "5-(tert-Butoxycarbonylamino)pentanamine", "tert-Butyl 5-aminopentylcarbamate", "5-(tert-Butoxycarbonylamino)-1-aminopentane", "5-Aminopentylcarbamic acid tert-butyl ester", "N-Boc-cadaverine", "1,1-Dimethylethyl N-(5-aminopentyl)carbamate", "Mono-N-[(tert-Butoxy)carbonyl]cadaverine", "N-Boc-1,5-diaminopentane", "Mono-N-Boc-1,5-pentanediamine", "N-Boc-1,5-pentanediamine", "N-Boc-1,5-pentylenediamine", "tert-Butyl N-(5-aminopentyl)carbamate", "N-(5-Aminopentyl)carbamic acid tert-butyl ester"], "SMILES": "C(NCCCCCN)(OC(C)(C)C)=O", "physical_data": {"Molecular Weight": "202.29", "Molecular Formula": "C10H22N2O2", "Boiling Point": "97 \u00b0C"}}