{"cas_no": "5164-76-1", "cn_name": "\u620a\u70ef\u4e8c\u9178\u4e8c\u7532\u916f", "en_name": ["1,5-Dimethyl 2-pentenedioate", "2-Pentenedioic acid, 1,5-dimethyl ester", "Glutaconic acid, dimethyl ester", "2-Pentenedioic acid, dimethyl ester", "1,5-Dimethyl 2-pentenedioate", "Dimethyl glutaconate", "Dimethyl 2-pentenedioate", "Dimethyl 2-pentene-1,5-dioate", "NSC 30046"], "SMILES": "C(C=CC(OC)=O)C(OC)=O", "physical_data": {"Molecular Weight": "158.15", "Molecular Formula": "C7H10O4", "Boiling Point": "89 \u00b0C"}}