{"cas_no": "51652-47-2", "cn_name": "(Z)-5-\u7678\u70ef-1-\u9187", "en_name": ["(5Z)-5-Decen-1-ol", "5-Decen-1-ol, (5Z)-", "5-Decen-1-ol, (Z)-", "(5Z)-5-Decen-1-ol", "(Z)-5-Decen-1-ol", "cis-5-Decen-1-ol", "cis-5-Decenol"], "SMILES": "C(=CCCCC)CCCCO", "physical_data": {"Molecular Weight": "156.27", "Molecular Formula": "C10H20O", "Boiling Point": "100-105 \u00b0C @ Press: 0.2 Torr"}}