{"cas_no": "5166-53-0", "cn_name": "5-\u7532\u57fa-3-\u5df1\u70ef-2-\u916e", "en_name": ["5-Methyl-3-hexen-2-one", "3-Hexen-2-one, 5-methyl-", "5-Methyl-3-hexen-2-one", "2-Oxo-5-methylhex-3-ene", "5-Methyl-3-hexene-2-one"], "SMILES": "C(=CC(C)=O)C(C)C", "physical_data": {"Molecular Weight": "112.17", "Molecular Formula": "C7H12O", "Boiling Point": "156 \u00b0C @ Press: 757 Torr", "Density": "0.8484 g/cm\u00b3 @ Temp: 18.5 \u00b0C"}}