{"cas_no": "5166-67-6", "cn_name": "1-\u7532\u57fa-3-\u54cc\u5576\u7532\u9178\u4e59\u916f", "en_name": ["Ethyl 1-methyl-3-piperidinecarboxylate", "3-Piperidinecarboxylic acid, 1-methyl-, ethyl ester", "Nipecotic acid, 1-methyl-, ethyl ester", "Ethyl 1-methyl-3-piperidinecarboxylate", "Ethyl 1-methylnipecotate", "Ethyl N-methylnipecotate", "NSC 64739"], "SMILES": "C(OCC)(=O)C1CN(C)CCC1", "physical_data": {"Molecular Weight": "171.24", "Molecular Formula": "C9H17NO2", "Boiling Point": "105-107 \u00b0C @ Press: 2.5 Torr", "Density": "0.981 g/cm\u00b3 @ Temp: 20 \u00b0C"}}