{"cas_no": "51661-19-9", "cn_name": "1,2-\u53cc(2-\u785d\u57fa\u82ef\u6c27\u57fa)\u4e59\u70f7", "en_name": ["1,1\u2032-[1,2-Ethanediylbis(oxy)]bis[2-nitrobenzene]", "Benzene, 1,1\u2032-[1,2-ethanediylbis(oxy)]bis[2-nitro-", "Ethane, 1,2-bis(o-nitrophenoxy)-", "1,1\u2032-[1,2-Ethanediylbis(oxy)]bis[2-nitrobenzene]", "Ethylene glycol bis(2-nitrophenyl) ether", "1,2-Bis(2-nitrophenoxy)ethane", "1,2-Bis(o-nitrophenoxy)ethane", "1-Nitro-2-[2-(2-nitrophenoxy)ethoxy]benzene"], "SMILES": "O(CCOC1=C(N(=O)=O)C=CC=C1)C2=C(N(=O)=O)C=CC=C2", "physical_data": {"Molecular Weight": "304.25", "Molecular Formula": "C14H12N2O6", "Melting Point": "167-168 \u00b0C"}}