{"cas_no": "51673-84-8", "cn_name": "\u4e59\u4e8c\u919b-1,1-\u4e8c\u7532\u57fa\u4e59\u7f29\u919b\u6eb6\u6db2", "en_name": ["2,2-Dimethoxyacetaldehyde", "Acetaldehyde, 2,2-dimethoxy-", "Acetaldehyde, dimethoxy-", "Glyoxal, dimethyl acetal", "2,2-Dimethoxyacetaldehyde", "Dimethoxyacetaldehyde", "2,2-Dimethoxyethanal", "Dimethoxyethanal", "Highlink DM", "Glyoxal 1,1-dimethyl acetal", "Dimethoxyacetaldehdye"], "SMILES": "C(C=O)(OC)OC", "physical_data": {"Molecular Weight": "104.10", "Molecular Formula": "C4H8O3", "Boiling Point": "58-61 \u00b0C @ Press: 39 Torr"}}