{"cas_no": "51694-22-5", "cn_name": "2-\u785d\u57fa\u82ef\u57fa\u4e1d\u6c30\u9178\u916f", "en_name": ["2-Nitrophenyl selenocyanate", "Selenocyanic acid, 2-nitrophenyl ester", "o-Nitrophenyl selenocyanate", "o-Nitrophenyl selenocyanide", "2-Nitrophenyl selenocyanate", "o-Nitrophenylselenyl cyanide", "1-Nitro-2-selenocyanatobenzene"], "SMILES": "N(=O)(=O)C1=C([Se]C#N)C=CC=C1", "physical_data": {"Molecular Weight": "227.08", "Molecular Formula": "C7H4N2O2Se", "Melting Point": "142 \u00b0C"}}