{"cas_no": "517-51-1", "cn_name": "\u7ea2\u8367\u70ef", "en_name": ["Rubrene", "Naphthacene, 5,6,11,12-tetraphenyl-", "5,6,11,12-Tetraphenylnaphthacene", "Rubrene", "5,6,11,12-Tetraphenyltetracene", "Rubren", "NSC 16080", "NSC 614322"], "SMILES": "C12=C(C(=C3C(=C1C4=CC=CC=C4)C=CC=C3)C5=CC=CC=C5)C(=C6C(=C2C7=CC=CC=C7)C=CC=C6)C8=CC=CC=C8", "physical_data": {"Molecular Weight": "532.67", "Molecular Formula": "C42H28", "Melting Point": "331 \u00b0C"}}