{"cas_no": "517-60-2", "cn_name": "\u82ef\u516d\u7532\u9178", "en_name": ["Mellitic acid", "1,2,3,4,5,6-Benzenehexacarboxylic acid", "Benzenehexacarboxylic acid", "Mellitic acid", "Mellic acid", "Hexacarboxybenzene", "NSC 229358"], "SMILES": "C(O)(=O)C1=C(C(O)=O)C(C(O)=O)=C(C(O)=O)C(C(O)=O)=C1C(O)=O", "physical_data": {"Molecular Weight": "342.17", "Molecular Formula": "C12H6O12", "Melting Point": "287 \u00b0C (decomp)"}}