{"cas_no": "517-66-8", "cn_name": "\u8377\u5305\u7261\u4e39\u78b1", "en_name": ["(+)-Dicentrine", "5H-Benzo[g]-1,3-benzodioxolo[6,5,4-de]quinoline, 6,7,7a,8-tetrahydro-10,11-dimethoxy-7-methyl-, (7aS)-", "6a\u03b1-Aporphine, 9,10-dimethoxy-1,2-(methylenedioxy)-", "Dicentrine", "5H-Benzo[g]-1,3-benzodioxolo[6,5,4-de]quinoline, 6,7,7a,8-tetrahydro-10,11-dimethoxy-7-methyl-, (S)-", "(7aS)-6,7,7a,8-Tetrahydro-10,11-dimethoxy-7-methyl-5H-benzo[g]-1,3-benzodioxolo[6,5,4-de]quinoline", "Eximine", "9,10-Dimethoxy-1,2-(methylenedioxy)-6a\u03b1-aporphine", "1,2-(Methylenedioxy)-9,10-dimethoxy-6a\u03b1-aporphine", "O,N-Dimethyllitseferine", "(+)-Dicentrine", "d-Dicentrine", "S-(+)-Dicentrine"], "SMILES": "CN1C2C=3C(C=4C(C2)=CC(OC)=C(OC)C4)=C5C(=CC3CC1)OCO5", "physical_data": {"Molecular Weight": "339.39", "Molecular Formula": "C20H21NO4", "Melting Point": "168-169 \u00b0C"}}