{"cas_no": "517-16-8", "cn_name": "\u78fa\u80fa\u4e59\u6c5e", "en_name": ["N-(Ethylmercury)-p-toluenesulphonanilide", "Mercury, ethyl(4-methyl-N-phenylbenzenesulfonamidato-\u03baN)-", "Mercury, ethyl(p-toluenesulfonanilidato)-", "Mercury, ethyl(4-methyl-N-phenylbenzenesulfonamidato-N)-", "Benzenesulfono-p-toluidide, N-(ethylmercuri)-", "Benzenesulfonamide, 4-methyl-N-phenyl-, mercury complex", "Ethyl(4-methyl-N-phenylbenzenesulfonamidato-\u03baN)mercury", "Ceresan M", "Ceresan M-DB", "N-(Ethylmercuri)-p-toluenesulfonanilide", "N-(Ethylmercuri)-p-toluenesulphonanilide", "Ethylmercury p-toluenesulfonanilide", "(N-Phenyl-p-toluenesulfonamido)ethylmercury", "Mergon", "Ethylmercuric-p-toluensulfonanilide", "N-(Ethylmercury)-p-toluenesulfonanilide", "Granosan MDB", "Seed Dressing Universal", "Zaprawa Nasienna Universal R", "Mergon D", "Zaprawa Nasienna Uniwersalna", "Zaprawa Nasienna Universal", "EMTS", "N-(Ethylmercury)-p-toluenesulphonanilide"], "SMILES": "N(S(=O)(=O)C1=CC=C(C)C=C1)([Hg]CC)C2=CC=CC=C2", "physical_data": {"Molecular Weight": "", "Molecular Formula": "C15H17HgNO2S", "Melting Point": "153-154 \u00b0C"}}