{"cas_no": "517-63-5", "cn_name": "\u5343\u91d1\u85e4\u78b1", "en_name": ["Stephanine", "5H-Benzo[g]-1,3-benzodioxolo[6,5,4-de]quinoline, 6,7,7a,8-tetrahydro-9-methoxy-7-methyl-, (7aR)-", "6a\u03b2-Aporphine, 8-methoxy-1,2-(methylenedioxy)-", "Stephanine", "5H-Benzo[g]-1,3-benzodioxolo[6,5,4-de]quinoline, 6,7,7a,8-tetrahydro-9-methoxy-7-methyl-, (R)-", "(7aR)-6,7,7a,8-Tetrahydro-9-methoxy-7-methyl-5H-benzo[g]-1,3-benzodioxolo[6,5,4-de]quinoline", "Stephanin", "l-Stephanine", "(-)-Stephanine", "(R)-(-)-Stephanine", "8-Methoxy-1,2-(methylenedioxy)-6a\u03b2-aporphine"], "SMILES": "CN1C2C=3C(C=4C(C2)=C(OC)C=CC4)=C5C(=CC3CC1)OCO5", "physical_data": {"Molecular Weight": "309.36", "Molecular Formula": "C19H19NO3", "Melting Point": "155 \u00b0C"}}