{"cas_no": "517-23-7", "cn_name": "alpa-\u4e59\u9170\u57fa-gama-\u4e01\u916f", "en_name": ["2-Acetylbutyrolactone", "2(3H)-Furanone, 3-acetyldihydro-", "Acetoacetic acid, 2-(2-hydroxyethyl)-, \u03b3-lactone", "3-Acetyldihydro-2(3H)-furanone", "\u03b1-Acetobutyrolactone", "\u03b1-Acetylbutyrolactone", "3-Acetyl-4,5-dihydro-2(3H)-furanone", "\u03b1-Acetyl-\u03b3-hydroxybutyric acid \u03b3-lactone", "\u03b1-(2-Hydroxyethyl)acetoacetic acid \u03b3-lactone", "2-Acetylbutyrolactone", "3-Acetyltetrahydro-2-furanone", "\u03b1-Acetyl-\u03b3-butyrolactone", "2-Oxo-3-acetyltetrahydrofuran", "2-Acetyl-\u03b3-butyrolactone", "2-Acetylbutanolide", "Dihydro-3-acetyl-2(3H)-furanone", "NSC 2019", "3-Acetyldihydrofuran-2-one", "3-Acetyl-4,5-dihydrofuran-2-one", "3-Acetyl-4,5-dihydro-3H-2-furanone", "3-Acetyloxolan-2-one"], "SMILES": "C(C)(=O)C1C(=O)OCC1", "physical_data": {"Molecular Weight": "128.13", "Molecular Formula": "C6H8O3", "Boiling Point": "142 \u00b0C", "Melting Point": "&lt;25 \u00b0C", "Density": "1.1846 g/cm\u00b3 @ Temp: 20 \u00b0C"}}