{"cas_no": "517-09-9", "cn_name": "\u9a6c\u8418\u96cc\u753e\u916e", "en_name": ["(+)-Equilenin", "Estra-1,3,5,7,9-pentaen-17-one, 3-hydroxy-", "Equilenin", "3-Hydroxyestra-1,3,5,7,9-pentaen-17-one", "3-Hydroxyestra-1,3,5(10),6,8-pentaen-17-one", "Equilenine", "d-Equilenin", "(+)-Equilenin", "NSC 9901", "E 400", "MeSH ID: D004855"], "SMILES": "CC12C(C=3C(=C4C(=CC3)C=C(O)C=C4)CC1)CCC2=O", "physical_data": {"Molecular Weight": "266.33", "Molecular Formula": "C18H18O2", "Melting Point": "258.5 \u00b0C"}}