{"cas_no": "517-89-5", "cn_name": "\u7d2b\u8349\u7d20", "en_name": ["Shikonin", "1,4-Naphthalenedione, 5,8-dihydroxy-2-[(1R)-1-hydroxy-4-methyl-3-penten-1-yl]-", "Shikonin", "1,4-Naphthoquinone, 5,8-dihydroxy-2-(1-hydroxy-4-methyl-3-pentenyl)-, (+)-", "1,4-Naphthalenedione, 5,8-dihydroxy-2-(1-hydroxy-4-methyl-3-pentenyl)-, (R)-", "1,4-Naphthalenedione, 5,8-dihydroxy-2-[(1R)-1-hydroxy-4-methyl-3-pentenyl]-", "5,8-Dihydroxy-2-[(1R)-1-hydroxy-4-methyl-3-penten-1-yl]-1,4-naphthalenedione", "C.I. 75535", "Tokyo Violet", "(+)-Shikonin", "Isoarnebin 4", "NSC 252844", "Shikonin S", "Shikonine", "(R)-(+)-Shikonin", "1,4-Naphthalenedione 5,8-dihydroxy-2-[(1R)-1-hydroxy-4-methyl-3-penten-1-yl]-"], "SMILES": "O=C1C=2C(C(=O)C=C1C(CC=C(C)C)O)=C(O)C=CC2O", "physical_data": {"Molecular Weight": "288.30", "Molecular Formula": "C16H16O5", "Melting Point": "147 \u00b0C"}}