{"cas_no": "517-88-4", "cn_name": "\u5de6\u65cb\u7d2b\u8349\u7d20", "en_name": ["(-)-Alkannin", "1,4-Naphthalenedione, 5,8-dihydroxy-2-[(1S)-1-hydroxy-4-methyl-3-penten-1-yl]-", "1,4-Naphthoquinone, 5,8-dihydroxy-2-(1-hydroxy-4-methyl-3-pentenyl)-, (-)-", "Alkannin", "1,4-Naphthalenedione, 5,8-dihydroxy-2-(1-hydroxy-4-methyl-3-pentenyl)-, (S)-", "1,4-Naphthalenedione, 5,8-dihydroxy-2-[(1S)-1-hydroxy-4-methyl-3-pentenyl]-", "5,8-Dihydroxy-2-[(1S)-1-hydroxy-4-methyl-3-penten-1-yl]-1,4-naphthalenedione", "C.I. 75530", "Anchusin", "C.I. Natural Red 20", "Alkanet extract", "Anchusa acid", "Alkanna red", "(-)-Alkannin", "NSC 94524"], "SMILES": "O=C1C=2C(C(=O)C=C1C(CC=C(C)C)O)=C(O)C=CC2O", "physical_data": {"Molecular Weight": "288.30", "Molecular Formula": "C16H16O5", "Melting Point": "149 \u00b0C"}}