{"cas_no": "517-22-6", "cn_name": "2,4-\u4e8c\u7532\u57fa-3-\u4e59\u57fa\u5421\u54af", "en_name": ["2,4-Dimethyl-3-ethylpyrrole", "1H-Pyrrole, 3-ethyl-2,4-dimethyl-", "Pyrrole, 3-ethyl-2,4-dimethyl-", "3-Ethyl-2,4-dimethyl-1H-pyrrole", "Cryptopyrrole", "2,4-Dimethyl-3-ethylpyrrole", "Kryptopyrrole", "3-Ethyl-2,4-dimethylpyrrole", "Kryptopyrrol", "NSC 62025", "2,4-Dimethyl-3-ethyl-1H-pyrrole"], "SMILES": "C(C)C=1C(C)=CNC1C", "physical_data": {"Molecular Weight": "123.20", "Molecular Formula": "C8H13N", "Boiling Point": "199 \u00b0C", "Melting Point": "0 \u00b0C"}}