{"cas_no": "517-56-6", "cn_name": "\u7d2b\u5807\u5757\u830e\u78b1", "en_name": ["(+)-Corytuberine", "4H-Dibenzo[de,g]quinoline-1,11-diol, 5,6,6a,7-tetrahydro-2,10-dimethoxy-6-methyl-, (6aS)-", "6a\u03b1-Aporphine-1,11-diol, 2,10-dimethoxy-", "Corytuberine", "4H-Dibenzo[de,g]quinoline-1,11-diol, 5,6,6a,7-tetrahydro-2,10-dimethoxy-6-methyl-, (S)-", "(6aS)-5,6,6a,7-Tetrahydro-2,10-dimethoxy-6-methyl-4H-dibenzo[de,g]quinoline-1,11-diol", "1,11-Dihydroxy-2,10-dimethoxy-6a\u03b1-aporphine", "2,10-Dimethoxy-6a\u03b1-aporphine-1,11-diol", "(+)-Corytuberine", "(S)-Corytuberine", "(6AS)-2,10-dimethoxy-6-methyl-5,6,6a,7-tetrahydro-4H-dibenzo[de,g]quinoline-1,11-diol"], "SMILES": "OC1=C2C=3C(CC=4C2=C(O)C(OC)=CC4)N(C)CCC3C=C1OC", "physical_data": {"Molecular Weight": "327.37", "Molecular Formula": "C19H21NO4", "Melting Point": "245 \u00b0C"}}