{"cas_no": "51707-55-2", "cn_name": "\u567b\u82ef\u9686", "en_name": ["Thidiazuron", "Urea, N-phenyl-N\u2032-1,2,3-thiadiazol-5-yl-", "1,2,3-Thiadiazole, urea deriv.", "N-Phenyl-N\u2032-1,2,3-thiadiazol-5-ylurea", "Thidiazuron", "SN 49537", "Dropp", "1-Phenyl-3-(1,2,3-thiadiazol-5-yl)urea", "TAG (plant growth regulator)", "TAG", "TDZ", "Lift", "Dropp SC", "Avguron", "CCG-24904", "Gross", "1-Phenyl-3-(1,2,3-thiadiazole-5-yl)-urea"], "SMILES": "N(C(NC1=CN=NS1)=O)C2=CC=CC=C2", "physical_data": {"Molecular Weight": "220.25", "Molecular Formula": "C9H8N4OS", "Melting Point": "211 \u00b0C (decomp)"}}