{"cas_no": "5171-37-9", "cn_name": "\u94a9\u85e4\u78b1E", "en_name": ["Isopteropodine", "Spiro[3H-indole-3,6\u2032(4\u2032aH)-[1H]pyrano[3,4-f]indolizine]-4\u2032-carboxylic acid, 1,2,5\u2032,5\u2032a,7\u2032,8\u2032,10\u2032,10\u2032a-octahydro-1\u2032-methyl-2-oxo-, methyl ester, (1\u2032S,3S,4\u2032aS,5\u2032aS,10\u2032aS)-", "7-Isopteropodine", "Formosanan-16-carboxylic acid, 19-methyl-2-oxo-, methyl ester, (7\u03b1,19\u03b1,20\u03b1)-", "Isopteropodine", "Uncarine E", "Isopteropodin", "allo-Isopteropodine", "Spiro[3H-indole-3,6\u2032(4\u2032aH)-[1H]pyrano[3,4-f]indolizine]-4\u2032-carboxylic acid, 1,2,5\u2032,5\u2032a,7\u2032,8\u2032,10\u2032,10\u2032a-octahydro-1\u2032-methyl-2-oxo-, methyl ester, [1\u2032S-(1\u2032\u03b1,4\u2032a\u03b1,5\u2032a\u03b1,6\u2032\u03b1,10\u2032a\u03b1)]-"], "SMILES": "O=C1C2(C3N(CC2)CC4C(C3)C(C(OC)=O)=COC4C)C=5C(N1)=CC=CC5", "physical_data": {"Molecular Weight": "368.43", "Molecular Formula": "C21H24N2O4", "Melting Point": "209-211 \u00b0C"}}