{"cas_no": "51719-65-4", "cn_name": "3,5-\u4e8c\u6c2f\u82ef\u4e59\u9178", "en_name": ["3,5-Dichlorobenzeneacetic acid", "Benzeneacetic acid, 3,5-dichloro-", "Acetic acid, (3,5-dichlorophenyl)-", "3,5-Dichlorobenzeneacetic acid", "3,5-Dichlorophenylacetic acid", "2-(3,5-Dichlorophenyl)acetic acid"], "SMILES": "C(C(O)=O)C1=CC(Cl)=CC(Cl)=C1", "physical_data": {"Molecular Weight": "205.04", "Molecular Formula": "C8H6Cl2O2", "Melting Point": "112-115 \u00b0C"}}