{"cas_no": "51716-63-3", "cn_name": "\u987a-\u4e8c\u73af[3.3.0]\u8f9b\u70f7-3,7-\u4e8c\u916e", "en_name": ["cis-Tetrahydro-2,5(1H,3H)-pentalenedione", "2,5(1H,3H)-Pentalenedione, tetrahydro-, cis-", "cis-Tetrahydro-2,5(1H,3H)-pentalenedione", "cis-Bicyclo[3.3.0]octane-3,7-dione", "rel-(3aR,6aS)-Tetrahydropentalene-2,5(1H,3H)-dione"], "SMILES": "O=C1CC2C(CC(=O)C2)C1", "physical_data": {"Molecular Weight": "138.16", "Molecular Formula": "C8H10O2", "Melting Point": "82-84 \u00b0C"}}