{"cas_no": "51725-82-7", "cn_name": "3-\u90bb\u7532\u82ef\u57fa-3-\u6c27\u4ee3\u4e19\u9178\u4e59\u916f", "en_name": ["Ethyl 2-methyl-\u03b2-oxobenzenepropanoate", "Benzenepropanoic acid, 2-methyl-\u03b2-oxo-, ethyl ester", "Ethyl 2-methyl-\u03b2-oxobenzenepropanoate", "Ethyl 2-methylbenzoylacetate", "Ethyl o-methylbenzoylacetate", "Ethyl o-toluoylacetate", "Ethyl 3-(2-methylphenyl)-3-oxopropanoate", "Ethyl 2-(2-methylbenzoyl)acetate", "Ethyl 3-oxo-3-(o-tolyl)propanoate", "3-(2-Methylphenyl)-3-oxopropanoic acid ethyl ester", "3-Oxo-3-o-tolyl-propionic acid ethyl ester"], "SMILES": "C(CC(OCC)=O)(=O)C1=C(C)C=CC=C1", "physical_data": {"Molecular Weight": "206.24", "Molecular Formula": "C12H14O3", "Boiling Point": "103-105 \u00b0C @ Press: 0.4 Torr"}}