{"cas_no": "5173-46-6", "cn_name": "\u96cc\u753e-4,9-\u4e8c\u70ef-3,17-\u4e8c\u916e", "en_name": ["Estra-4,9-diene-3,17-dione", "Estra-4,9-diene-3,17-dione", "19-Norandrosta-4,9-diene-3,17-dione", "Trena"], "SMILES": "CC12C(C3C(=C4C(CC3)=CC(=O)CC4)CC1)CCC2=O", "physical_data": {"Molecular Weight": "270.37", "Molecular Formula": "C18H22O2", "Melting Point": "130-131 \u00b0C"}}