{"cas_no": "51731-17-0", "cn_name": "\u53cd\u5f0f-4-\u7532\u6c27\u57fa-3-\u4e01\u70ef-2-\u916e", "en_name": ["(3E)-4-Methoxy-3-buten-2-one", "3-Buten-2-one, 4-methoxy-, (3E)-", "3-Buten-2-one, 4-methoxy-, (E)-", "(3E)-4-Methoxy-3-buten-2-one", "trans-4-Methoxy-3-buten-2-one", "(E)-4-Methoxy-3-buten-2-one", "(3E)-4-Methoxybut-3-en-2-one"], "SMILES": "C(C(C)=O)=COC", "physical_data": {"Molecular Weight": "100.12", "Molecular Formula": "C5H8O2", "Boiling Point": "52 \u00b0C @ Press: 2 Torr", "Melting Point": "0 \u00b0C"}}