{"cas_no": "5174-90-3", "cn_name": "2-\u6c27-1,2-\u4e8c\u6c22-[1,8]\u8418\u5576-3-\u7532\u9178\u4e59\u916f", "en_name": ["Ethyl 2-hydroxy-1,8-naphthyridine-3-carboxylate", "1,8-Naphthyridine-3-carboxylic acid, 1,2-dihydro-2-oxo-, ethyl ester", "1,8-Naphthyridine-3-carboxylic acid, 2-hydroxy-, ethyl ester", "1,2-Dihydro-2-oxo-1,8-Naphthyridine-3-carboxylic acid ethyl ester", "Ethyl 2-hydroxy-1,8-naphthyridine-3-carboxylate", "Ethyl 2-oxo-1,2-dihydro-1,8-naphthyridine-3-carboxylate", "2-Oxo-1,2-dihydro-[1,8]naphthyridine-3-carboxylic acid ethyl ester", "Ethyl 2-oxo-1H-1,8-naphthyridine-3-carboxylate"], "SMILES": "C(OCC)(=O)C1=CC=2C(=NC1=O)NC=CC2", "physical_data": {"Molecular Weight": "218.21", "Molecular Formula": "C11H10N2O3", "Melting Point": "205-207 \u00b0C"}}