{"cas_no": "51746-85-1", "cn_name": "3-(1H-\u54aa\u5511-4-\u57fa)\u5421\u5576", "en_name": ["3-(1H-Imidazol-5-yl)pyridine", "Pyridine, 3-(1H-imidazol-5-yl)-", "Pyridine, 3-(1H-imidazol-4-yl)-", "3-(1H-Imidazol-5-yl)pyridine", "4-(3-Pyridyl)imidazole", "3-(4-Imidazolyl)pyridine", "3-(1H-Imidazol-4-yl)pyridine", "5-[Pyridin-3-yl]imidazole"], "SMILES": "C1(=CN=CN1)C=2C=CC=NC2", "physical_data": {"Molecular Weight": "145.16", "Molecular Formula": "C8H7N3", "Melting Point": "108 \u00b0C"}}