{"cas_no": "51756-08-2", "cn_name": "2-\u4e59\u57fa\u4e59\u9170\u4e59\u9178\u7532\u916f", "en_name": ["Butanoic acid, 2-ethyl-3-oxo-, methyl ester", "Butanoic acid, 2-ethyl-3-oxo-, methyl ester", "Methyl 2-ethyl-3-oxobutyrate", "Methyl 2-ethyl-3-oxobutanoate", "Methyl \u03b1-ethylacetoacetate", "Methyl 2-ethylacetoacetate"], "SMILES": "C(C(OC)=O)(C(C)=O)CC", "physical_data": {"Molecular Weight": "144.17", "Molecular Formula": "C7H12O3", "Boiling Point": "182 \u00b0C"}}