{"cas_no": "51753-57-2", "cn_name": "7-\u6eb4-5-(2-\u6c2f\u82ef\u57fa)-1,3-\u4e8c\u6c22-2H-1,4-\u82ef\u5e76\u4e8c\u6c2e\u6742\u5353-2-\u916e", "en_name": ["Phenazepam", "2H-1,4-Benzodiazepin-2-one, 7-bromo-5-(2-chlorophenyl)-1,3-dihydro-", "7-Bromo-5-(2-chlorophenyl)-1,3-dihydro-2H-1,4-benzodiazepin-2-one", "Phenazepam", "Fenazepam", "BD 98", "7-Bromo-5-(2-chlorophenyl)-1,3-dihydrobenzo[e]-1,4-diazepin-2-one"], "SMILES": "BrC=1C=C2C(=NCC(=O)NC2=CC1)C3=C(Cl)C=CC=C3", "physical_data": {"Molecular Weight": "349.61", "Molecular Formula": "C15H10BrClN2O", "Melting Point": "220-222 \u00b0C"}}