{"cas_no": "51762-67-5", "cn_name": "3-\u785d\u57fa\u90bb\u82ef\u4e8c\u8148", "en_name": ["3-Nitrophthalonitrile", "1,2-Benzenedicarbonitrile, 3-nitro-", "3-Nitro-1,2-benzenedicarbonitrile", "2,3-Dicyanonitrobenzene", "3-Nitrophthalonitrile", "1,2-Dicyano-3-nitrobenzene", "3-Nitrophthalodinitrile", "3-Nitro-1,2-dicyanobenzene", "3-Nitro-o-benzene dinitrile"], "SMILES": "C(#N)C1=C(N(=O)=O)C=CC=C1C#N", "physical_data": {"Molecular Weight": "173.13", "Molecular Formula": "C8H3N3O2", "Melting Point": "142-143 \u00b0C"}}