{"cas_no": "51760-23-7", "cn_name": "5-\u6eb4-\u95f4\u82ef\u4e8c\u6eb4\u82c4", "en_name": ["1-Bromo-3,5-bis(bromomethyl)benzene", "Benzene, 1-bromo-3,5-bis(bromomethyl)-", "1-Bromo-3,5-bis(bromomethyl)benzene", "3,5-Bis(bromomethyl)bromobenzene", "5,\u03b1,\u03b1\u2032-Tribromo-m-xylene", "5-Bromo-1,3-bis(bromomethyl)benzene", "3,5-Bis(bromomethyl)phenyl bromide"], "SMILES": "C(Br)C1=CC(CBr)=CC(Br)=C1", "physical_data": {"Molecular Weight": "342.85", "Molecular Formula": "C8H7Br3", "Melting Point": "97.5-99.0 \u00b0C"}}