{"cas_no": "51762-05-1", "cn_name": "\u5934\u5b62\u6c99\u5b9a", "en_name": ["Cefroxadine", "5-Thia-1-azabicyclo[4.2.0]oct-2-ene-2-carboxylic acid, 7-[[(2R)-2-amino-2-(1,4-cyclohexadien-1-yl)acetyl]amino]-3-methoxy-8-oxo-, (6R,7R)-", "5-Thia-1-azabicyclo[4.2.0]oct-2-ene-2-carboxylic acid, 7-[(amino-1,4-cyclohexadien-1-ylacetyl)amino]-3-methoxy-8-oxo-, [6R-[6\u03b1,7\u03b2(R*)]]-", "5-Thia-1-azabicyclo[4.2.0]oct-2-ene-2-carboxylic acid, 7-[[(2R)-amino-1,4-cyclohexadien-1-ylacetyl]amino]-3-methoxy-8-oxo-, (6R,7R)-", "(6R,7R)-7-[[(2R)-2-Amino-2-(1,4-cyclohexadien-1-yl)acetyl]amino]-3-methoxy-8-oxo-5-thia-1-azabicyclo[4.2.0]oct-2-ene-2-carboxylic acid", "CGP 9000", "Cefroxadine", "Oraspor"], "SMILES": "C(O)(=O)C=1N2C(C(NC(C(N)C=3CC=CCC3)=O)C2=O)SCC1OC", "physical_data": {"Molecular Weight": "365.40", "Molecular Formula": "C16H19N3O5S", "Melting Point": "170 \u00b0C (decomp)"}}