{"cas_no": "51765-51-6", "cn_name": "2-\u82ef\u6c27\u57fa\u7532\u70f7\u78fa\u9170\u82ef\u80fa", "en_name": ["2\u2032-Phenoxymethanesulfonanilide", "Methanesulfonamide, N-(2-phenoxyphenyl)-", "N-(2-Phenoxyphenyl)methanesulfonamide", "2\u2032-Phenoxymethanesulfonanilide"], "SMILES": "O(C1=C(NS(C)(=O)=O)C=CC=C1)C2=CC=CC=C2", "physical_data": {"Molecular Weight": "263.31", "Molecular Formula": "C13H13NO3S", "Melting Point": "126 \u00b0C"}}