{"cas_no": "51760-22-6", "cn_name": "5-\u6eb4-\u95f4\u82ef\u4e8c\u7532\u9187", "en_name": ["5-Bromo-1,3-benzenedimethanol", "1,3-Benzenedimethanol, 5-bromo-", "5-Bromo-1,3-benzenedimethanol", "3,5-Bis(hydroxymethyl)bromobenzene", "1-Bromo-3,5-bis(hydroxymethyl)benzene", "3-Bromo-5-(hydroxymethyl)benzyl alcohol", "5-Bromo-3-(hydroxymethyl)benzyl alcohol", "[3-Bromo-5-(hydroxymethyl)phenyl]methanol", "3,5-Bis(hydroxymethyl)phenyl bromide", "5-Bromo-1,3-phenylenedimethanol", "1,3-Bis(hydroxymethyl)-5-bromobenzene"], "SMILES": "C(O)C1=CC(CO)=CC(Br)=C1", "physical_data": {"Molecular Weight": "217.06", "Molecular Formula": "C8H9BrO2", "Melting Point": "90-91 \u00b0C"}}