{"cas_no": "51772-30-6", "cn_name": "3'-\u7532\u57fa\u82ef\u4e19\u916e", "en_name": ["1-(3-Methylphenyl)-1-propanone", "1-Propanone, 1-(3-methylphenyl)-", "Propiophenone, 3\u2032-methyl-", "1-(3-Methylphenyl)-1-propanone", "m-Methylpropiophenone", "3\u2032-Methylpropiophenone", "1-(3-Methylphenyl)propan-1-one", "3-Methylpropiophenone"], "SMILES": "C(CC)(=O)C1=CC(C)=CC=C1", "physical_data": {"Molecular Weight": "148.20", "Molecular Formula": "C10H12O", "Boiling Point": "235 \u00b0C", "Melting Point": "-4.4 \u00b0C"}}