{"cas_no": "51773-92-3", "cn_name": "\u76d0\u9178\u7532\u6c1f\u55b9", "en_name": ["Mefloquine hydrochloride", "4-Quinolinemethanol, \u03b1-(2R)-2-piperidinyl-2,8-bis(trifluoromethyl)-, hydrochloride (1:1), (\u03b1S)-rel-", "4-Quinolinemethanol, \u03b1-2-piperidinyl-2,8-bis(trifluoromethyl)-, monohydrochloride, (R*,S*)-(\u00b1)-", "4-Quinolinemethanol, \u03b1-(2R)-2-piperidinyl-2,8-bis(trifluoromethyl)-, monohydrochloride, (\u03b1S)-rel-", "Mefloquine hydrochloride", "WR 142490", "4-Quinolinemethanol, \u03b1-2-piperidinyl-2,8-bis(trifluoromethyl)-, monohydrochloride, (R*,S*)-", "Loriam", "Ro 21-5998/001", "NSC 157387", "Mefloquin hydrochloride", "(\u00b1)-Mefloquine hydrochloride"], "SMILES": "C(F)(F)(F)C=1C2=C(C(C(O)C3CCCCN3)=CC(C(F)(F)F)=N2)C=CC1.Cl", "physical_data": {"Molecular Weight": "", "Molecular Formula": "C17H16F6N2O.ClH", "Melting Point": "259-260 \u00b0C (decomp)"}}