{"cas_no": "51779-32-9", "cn_name": "\u53cc(\u53d4\u4e01\u6c27\u7fb0\u57fa)\u80fa", "en_name": ["1,3-Bis(1,1-dimethylethyl) imidodicarbonate", "Imidodicarbonic acid, 1,3-bis(1,1-dimethylethyl) ester", "Imidodicarbonic acid, bis(1,1-dimethylethyl) ester", "Imidodicarboxylic acid, di-tert-butyl ester", "1,3-Bis(1,1-dimethylethyl) imidodicarbonate", "Di-tert-butyl imidodicarbonate", "Di-tert-butyl imidodicarboxylate", "Bis(tert-butoxycarbonyl)amine", "Di-tert-butyl iminodicarboxylate", "NSC 131088", "Bis(Boc)amine", "Iminodicarboxylic acid di(tert-butyl) ester", "tert-Butyl N-(tert-butoxycarbonyl)carbamate", "Di-tert-butyl iminodicarbonate"], "SMILES": "O(C(C)(C)C)C(NC(OC(C)(C)C)=O)=O", "physical_data": {"Molecular Weight": "217.26", "Molecular Formula": "C10H19NO4", "Melting Point": "118-120 \u00b0C"}}