{"cas_no": "51788-80-8", "cn_name": "4-\u6c1f-2-\u7532\u6c27\u57fa\u82ef\u4e59\u916e", "en_name": ["1-(4-Fluoro-2-methoxyphenyl)ethanone", "Ethanone, 1-(4-fluoro-2-methoxyphenyl)-", "1-(4-Fluoro-2-methoxyphenyl)ethanone", "4\u2032-Fluoro-2\u2032-methoxyacetophenone"], "SMILES": "O(C)C1=C(C(C)=O)C=CC(F)=C1", "physical_data": {"Molecular Weight": "168.16", "Molecular Formula": "C9H9FO2", "Melting Point": "50-51.5 \u00b0C"}}