{"cas_no": "51781-21-6", "cn_name": "\u76d0\u9178\u5361\u66ff\u6d1b\u5c14", "en_name": ["Carteolol hydrochloride", "2(1H)-Quinolinone, 5-[3-[(1,1-dimethylethyl)amino]-2-hydroxypropoxy]-3,4-dihydro-, hydrochloride (1:1)", "2(1H)-Quinolinone, 5-[3-[(1,1-dimethylethyl)amino]-2-hydroxypropoxy]-3,4-dihydro-, monohydrochloride", "5-(3-tert-Butylamino-2-hydroxy)propoxy-3,4-dihydrocarbostyril hydrochloride", "OPC 1085", "OC 1085", "Carteolol hydrochloride", "Mikelan", "dl-Carteolol hydrochloride", "Cartrol", "Tenalin", "Teoptic", "Tenalet", "Carteol", "Arteoptic", "Caltidren", "Optipress", "Endak", "NSC 300906", "Ocupress"], "SMILES": "O(CC(CNC(C)(C)C)O)C1=C2C(=CC=C1)NC(=O)CC2.Cl", "physical_data": {"Molecular Weight": "", "Molecular Formula": "C16H24N2O3.ClH", "Melting Point": "278 \u00b0C"}}