{"cas_no": "518-44-5", "cn_name": "\u8367\u5149\u751f", "en_name": ["Fluorescin", "Benzoic acid, 2-(3,6-dihydroxy-9H-xanthen-9-yl)-", "Fluorescin", "Benzoic acid, o-(3,6-dihydroxyxanthen-9-yl)-", "2-(3,6-Dihydroxy-9H-xanthen-9-yl)benzoic acid", "Resorcinolphthalin", "Leucofluorescein"], "SMILES": "C(O)(=O)C1=C(C2C=3C(OC=4C2=CC=C(O)C4)=CC(O)=CC3)C=CC=C1", "physical_data": {"Molecular Weight": "334.32", "Molecular Formula": "C20H14O5", "Melting Point": "126 \u00b0C"}}