{"cas_no": "518-83-2", "cn_name": "1,3-\u4e8c\u7fa5\u84bd\u918c", "en_name": ["Xanthopurpurin", "9,10-Anthracenedione, 1,3-dihydroxy-", "Anthraquinone, 1,3-dihydroxy-", "Xanthopurpurin", "1,3-Dihydroxy-9,10-anthracenedione", "C.I. 75340", "1,3-Dihydroxyanthraquinone", "Purpuroxanthin", "Purpuroxanthine", "Xanthopurpurine", "1,3-Dihydroxy-9,10-anthraquinone", "1,3-Dihydroxy-9,10-dihydroanthracene-9,10-dione"], "SMILES": "O=C1C=2C(C(=O)C=3C1=CC=CC3)=CC(O)=CC2O", "physical_data": {"Molecular Weight": "240.21", "Molecular Formula": "C14H8O4", "Melting Point": "262 \u00b0C"}}