{"cas_no": "518-82-1", "cn_name": "\u5927\u9ec4\u7d20", "en_name": ["Emodin", "9,10-Anthracenedione, 1,3,8-trihydroxy-6-methyl-", "Anthraquinone, 1,3,8-trihydroxy-6-methyl-", "1,3,8-Trihydroxy-6-methyl-9,10-anthracenedione", "Emodin", "3-Methyl-1,6,8-trihydroxyanthraquinone", "Rheum emodin", "Schuttgelb", "4,5,7-Trihydroxy-2-methylanthraquinone", "1,3,8-Trihydroxy-6-methylanthraquinone", "Frangula emodin", "Emodol", "1,3,8-Trihydroxy-6-methyl-9,10-anthraquinone", "1,6,8-Trihydroxy-3-methylanthraquinone", "Frangulic acid", "Archin", "NSC 408120", "NSC 622947", "Emodine", "1,3,8-Trihydroxy-6-methyl-9,10-dihydroanthracene-9,10-dione", "1,8-Dihydroxy-3-(methoxymethyl)-6-methylanthracene-9,10-dione", "MeSH ID: D004642"], "SMILES": "O=C1C=2C(C(=O)C=3C1=C(O)C=C(O)C3)=CC(C)=CC2O", "physical_data": {"Molecular Weight": "270.24", "Molecular Formula": "C15H10O5", "Boiling Point": "60-80 \u00b0C", "Melting Point": "256-257 \u00b0C"}}