{"cas_no": "518-34-3", "cn_name": "\u6c49\u9632\u5df1\u7532\u7d20", "en_name": ["Tetrandrine", "16H-1,24:6,9-Dietheno-11,15-metheno-2H-pyrido[2\u2032,3\u2032:17,18][1,11]dioxacycloeicosino[2,3,4-ij]isoquinoline, 3,4,4a,5,16a,17,18,19-octahydro-12,21,22,26-tetramethoxy-4,17-dimethyl-, (4aS,16aS)-", "Tetrandrine", "Berbaman, 6,6\u2032,7,12-tetramethoxy-2,2\u2032-dimethyl-, (1\u03b2)-", "(4aS,16aS)-3,4,4a,5,16a,17,18,19-Octahydro-12,21,22,26-tetramethoxy-4,17-dimethyl-16H-1,24:6,9-dietheno-11,15-metheno-2H-pyrido[2\u2032,3\u2032:17,18][1,11]dioxacycloeicosino[2,3,4-ij]isoquinoline", "d-Tetrandrine", "NSC 77037", "(+)-Tetrandrine", "Tetrandrin", "(S,S)-Tetrandrine", "Sinomenine A", "Fanchinine", "16H-1,24:6,9-Dietheno-11,15-metheno-2H-pyrido[2\u2032,3\u2032:17,18][1,11]dioxacycloeicosino[2,3,4-ij]isoquinoline, 3,4,4a,5,16a,17,18,19-octahydro-12,21,22,26-tetramethoxy-4,17-dimethyl-, [4aS-(4aR*,16aR*)]-", "TTD", "S,S-(+)-Tetrandrine", "Hanfangchin A", "SC 182"], "SMILES": "O(C)C1=C2C=3C(CC=4C=C(C(OC)=CC4)OC=5C=CC(CC6C7=CC(O2)=C(OC)C=C7CCN6C)=CC5)N(C)CCC3C=C1OC", "physical_data": {"Molecular Weight": "622.75", "Molecular Formula": "C38H42N2O6", "Melting Point": "217.5 \u00b0C"}}