{"cas_no": "518-67-2", "cn_name": "3,8-\u4e8c\u6c28\u57fa-5-\u7532\u57fa-6-\u82ef\u57fa\u6eb4\u5316\u83f2\u5576\u76d0", "en_name": ["Phenanthridinium, 3,8-diamino-5-methyl-6-phenyl-, bromide (1:1)", "Phenanthridinium, 3,8-diamino-5-methyl-6-phenyl-, bromide (1:1)", "Phenanthridinium, 3,8-diamino-5-methyl-6-phenyl-, bromide", "3,8-Diamino-5-methyl-6-phenylphenanthridinium bromide", "Dimidium bromide", "Phenanthridinium compound 1553", "Phenanthridium 1553", "Trypadine"], "SMILES": "C[N+]=1C(=C2C(=C3C1C=C(N)C=C3)C=CC(N)=C2)C4=CC=CC=C4.[Br-]", "physical_data": {"Molecular Weight": "", "Molecular Formula": "C20H18N3.Br", "Melting Point": "240 \u00b0C (decomp)"}}