{"cas_no": "518-05-8", "cn_name": "1,8-\u8418\u4e8c\u7532\u9178", "en_name": ["Naphthalic acid", "1,8-Naphthalenedicarboxylic acid", "Naphthalic acid", "1,8-Naphthalic acid", "NSC 37065"], "SMILES": "C(O)(=O)C=1C=2C(C(O)=O)=CC=CC2C=CC1", "physical_data": {"Molecular Weight": "216.19", "Molecular Formula": "C12H8O4", "Melting Point": "260 \u00b0C"}}