{"cas_no": "518-94-5", "cn_name": "\u8f6e\u73af\u85e4\u78b1", "en_name": ["(12aR,24aR)-2,3,12a,13,14,15,24,24a-Octahydro-5,6,17,18-tetramethoxy-1,13-dimethyl-8,11:20,23-dietheno-1H,12H-[1,10]dioxacyclooctadecino[2,3,4-ij:11,12,13-i'j\u2032]diisoquinoline", "8,11:20,23-Dietheno-1H,12H-[1,10]dioxacyclooctadecino[2,3,4-ij:11,12,13-i'j\u2032]diisoquinoline, 2,3,12a,13,14,15,24,24a-octahydro-5,6,17,18-tetramethoxy-1,13-dimethyl-, (12aR,24aR)-", "Cycleanine", "(12aR,24aR)-2,3,12a,13,14,15,24,24a-Octahydro-5,6,17,18-tetramethoxy-1,13-dimethyl-8,11:20,23-dietheno-1H,12H-[1,10]dioxacyclooctadecino[2,3,4-ij:11,12,13-i'j\u2032]diisoquinoline", "8,11:20,23-Dietheno-1H,12H-[1,10]dioxacyclooctadecino[2,3,4-ij:11,12,13-i'j\u2032]diisoquinoline, 2,3,12a,13,14,15,24,24a-octahydro-5,6,17,18-tetramethoxy-1,13-dimethyl-, [12aR-(12aR*,24aR*)]-", "Dimethylisochondodendrine", "O,O-Dimethylisochondodendrin", "O,O-Dimethylisochondrodendrine", "[12aR-(12aR*,24aR*)]-2,3,12a,13,14,15,24,24a-Octahydro-5,6,17,18-tetramethoxy-1,13-dimethyl-8,11:20,23-dietheno-1H,12H-[1,10]dioxacyclooctadecino[2,3,4-ij:11,12,13-i'j\u2032]diisoquinoline", "O,O\u2032-Dimethylisochondrodendrine", "Alkaloid B, from Cissampelospareira", "O-Methylnorcycleanine", "(-)-Cycleanine"], "SMILES": "O(C)C1=C2C=3C(CC=4C=CC(=CC4)OC=5C=6C(CC=7C=CC(O2)=CC7)N(C)CCC6C=C(OC)C5OC)N(C)CCC3C=C1OC", "physical_data": {"Molecular Weight": "622.75", "Molecular Formula": "C38H42N2O6", "Melting Point": "272-273 \u00b0C"}}