{"cas_no": "518-69-4", "cn_name": "\u5ef6\u80e1\u7d22\u78b1\u7532", "en_name": ["(+)-Corydaline", "6H-Dibenzo[a,g]quinolizine, 5,8,13,13a-tetrahydro-2,3,9,10-tetramethoxy-13-methyl-, (13S,13aR)-", "Corydaline", "13a\u03b2-Berbine, 2,3,9,10-tetramethoxy-13\u03b1-methyl-", "6H-Dibenzo[a,g]quinolizine, 5,8,13,13a-tetrahydro-2,3,9,10-tetramethoxy-13-methyl-, (13S-trans)-", "(13S,13aR)-5,8,13,13a-Tetrahydro-2,3,9,10-tetramethoxy-13-methyl-6H-dibenzo[a,g]quinolizine", "Corydaline, (+)-", "Corydalin", "d-Corydaline", "(+)-Corydaline", "7,8,13,13\u03b1-Tetrahydrocorydaline", "NSC 406036", "(13S,13AR)-2,3,9,10-tetramethoxy-13-methyl-6,8,13,13a-tetrahydro-5H-isoquinolino[2,1-b]isoquinoline"], "SMILES": "CC1C2C=3C(=CC(OC)=C(OC)C3)CCN2CC=4C1=CC=C(OC)C4OC", "physical_data": {"Molecular Weight": "369.45", "Molecular Formula": "C22H27NO4", "Melting Point": "135-136 \u00b0C"}}