{"cas_no": "518-75-2", "cn_name": "\u6854\u9709\u7d20", "en_name": ["Citrinin", "3H-2-Benzopyran-7-carboxylic acid, 4,6-dihydro-8-hydroxy-3,4,5-trimethyl-6-oxo-, (3R,4S)-", "Citrinin", "3H-2-Benzopyran-7-carboxylic acid, 4,6-dihydro-8-hydroxy-3,4,5-trimethyl-6-oxo-, (3R-trans)-", "(3R,4S)-4,6-Dihydro-8-hydroxy-3,4,5-trimethyl-6-oxo-3H-2-benzopyran-7-carboxylic acid", "4,6-Dihydro-8-hydroxy-3,4,5-trimethyl-6-oxo-3H-2-benzopyran-7-carboxylic acid", "(-)-Citrinin", "NSC 186", "MeSH ID: D002953"], "SMILES": "CC1=C2C(C(O)=C(C(O)=O)C1=O)=COC(C)C2C", "physical_data": {"Molecular Weight": "250.25", "Molecular Formula": "C13H14O5", "Melting Point": "178.5 \u00b0C (decomp)"}}