{"cas_no": "518-17-2", "cn_name": "\u5434\u8331\u8438\u78b1", "en_name": ["(+)-Evodiamine", "Indolo[2\u2032,3\u2032:3,4]pyrido[2,1-b]quinazolin-5(7H)-one, 8,13,13b,14-tetrahydro-14-methyl-, (13bS)-", "Evodiamine", "Indolo[2\u2032,3\u2032:3,4]pyrido[2,1-b]quinazolin-5(7H)-one, 8,13,13b,14-tetrahydro-14-methyl-, (S)-", "(13bS)-8,13,13b,14-Tetrahydro-14-methylindolo[2\u2032,3\u2032:3,4]pyrido[2,1-b]quinazolin-5(7H)-one", "Evodiamine, (+)-", "(+)-Evodiamine", "d-Evodiamine"], "SMILES": "CN1C2C3=C(C=4C(N3)=CC=CC4)CCN2C(=O)C=5C1=CC=CC5", "physical_data": {"Molecular Weight": "303.36", "Molecular Formula": "C19H17N3O", "Melting Point": "278 \u00b0C"}}