{"cas_no": "51803-78-2", "cn_name": "\u5c3c\u7f8e\u8212\u5229", "en_name": ["Nimesulide", "Methanesulfonamide, N-(4-nitro-2-phenoxyphenyl)-", "N-(4-Nitro-2-phenoxyphenyl)methanesulfonamide", "4\u2032-Nitro-2\u2032-phenoxymethanesulfonanilide", "R 805", "2-Phenoxy-4-nitromethanesulfonanilide", "4-Nitro-2-phenoxymethanesulfonanilide", "Nimesulide", "Nisulid", "Nimepast", "R 805 (pharmaceutical)", "Mesulid", "Aulin", "Nimulid", "Orthobid", "Nise*Gel", "Flogovital", "Nimed", "Sulidene", "Nizer", "Lizepat", "Nimsulid", "Sulide", "Mesulide", "Nimalox", "Sulidan", "Nise", "Nicip", "Methosulide"], "SMILES": "O(C1=C(NS(C)(=O)=O)C=CC(N(=O)=O)=C1)C2=CC=CC=C2", "physical_data": {"Molecular Weight": "308.31", "Molecular Formula": "C13H12N2O5S", "Melting Point": "143-144.5 \u00b0C"}}