{"cas_no": "518047-40-0", "cn_name": "4-BOC-3-\u6c30\u57fa\u5417\u5549", "en_name": ["1,1-Dimethylethyl 3-cyano-4-morpholinecarboxylate", "4-Morpholinecarboxylic acid, 3-cyano-, 1,1-dimethylethyl ester", "1,1-Dimethylethyl 3-cyano-4-morpholinecarboxylate", "3-Cyano-4-morpholinecarboxylic acid tert-butyl ester"], "SMILES": "C(OC(C)(C)C)(=O)N1C(C#N)COCC1", "physical_data": {"Molecular Weight": "212.25", "Molecular Formula": "C10H16N2O3", "Melting Point": "99.7-101.3 \u00b0C"}}