{"cas_no": "518048-05-0", "cn_name": "\u96f7\u7279\u683c\u97e6", "en_name": ["Raltegravir", "4-Pyrimidinecarboxamide, N-[(4-fluorophenyl)methyl]-1,6-dihydro-5-hydroxy-1-methyl-2-[1-methyl-1-[[(5-methyl-1,3,4-oxadiazol-2-yl)carbonyl]amino]ethyl]-6-oxo-", "N-[(4-Fluorophenyl)methyl]-1,6-dihydro-5-hydroxy-1-methyl-2-[1-methyl-1-[[(5-methyl-1,3,4-oxadiazol-2-yl)carbonyl]amino]ethyl]-6-oxo-4-pyrimidinecarboxamide", "N-(4-Fluorobenzyl)-5-hydroxy-1-methyl-2-[1-methyl-1-[[(5-methyl-1,3,4-oxadiazol-2-yl)carbonyl]amino]ethyl]-6-oxo-1,6-dihydropyrimidine-4-carboxamide", "Raltegravir", "5-Hydroxy-2-[1-[[(5-Methyl-1,3,4-oxadiazol-2-yl)carbonyl]amino]-1-methylethyl]-N-(4-fluorobenzyl)-1-methyl-6-oxo-1,6-dihydropyrimidine-4-carboxamide", "RAL"], "SMILES": "C(NC(=O)C1=NN=C(C)O1)(C)(C)C2=NC(C(NCC3=CC=C(F)C=C3)=O)=C(O)C(=O)N2C", "physical_data": {"Molecular Weight": "444.42", "Molecular Formula": "C20H21FN6O5", "Melting Point": "216 \u00b0C"}}