{"cas_no": "518048-03-8", "cn_name": "2-(1-\u6c28\u57fa-1-\u7532\u57fa\u4e59\u57fa)-N-[(4-\u6c1f\u82ef\u57fa)\u7532\u57fa]-5-\u7f9f\u57fa-1-\u7532\u57fa-6-\u6c27\u4ee3-1,6-\u4e8c\u6c22\u5627\u5576-4-\u7532\u9170\u80fa", "en_name": ["2-(1-Amino-1-methylethyl)-N-(4-fluorobenzyl)-5-hydroxy-1-methyl-6-oxo-1,6-dihydropyrimidine-4-carboxamide", "4-Pyrimidinecarboxamide, 2-(1-amino-1-methylethyl)-N-[(4-fluorophenyl)methyl]-1,6-dihydro-5-hydroxy-1-methyl-6-oxo-", "2-(1-Amino-1-methylethyl)-N-[(4-fluorophenyl)methyl]-1,6-dihydro-5-hydroxy-1-methyl-6-oxo-4-pyrimidinecarboxamide", "2-(1-Amino-1-methylethyl)-N-(4-fluorobenzyl)-5-hydroxy-1-methyl-6-oxo-1,6-dihydropyrimidine-4-carboxamide", "2-(1-Amino-1-methylethyl)-5-hydroxy-1-methyl-6-oxo-1,6-dihydropyrimidine-4-carboxylic acid 4-fluorobenzylamide", "2-(2-Aminopropan-2-yl)-N-(4-fluorobenzyl)-5-hydroxy-1-methyl-6-oxo-1,6-dihydropyrimidine-4-carboxamide", "2-(2-Aminopropan-2-yl)-N-[(4-fluorophenyl)methyl]-5-hydroxy-1-methyl-6-oxopyrimidine-4-carboxamide"], "SMILES": "C(NCC1=CC=C(F)C=C1)(=O)C=2N=C(C(C)(C)N)N(C)C(=O)C2O", "physical_data": {"Molecular Weight": "334.35", "Molecular Formula": "C16H19FN4O3", "Melting Point": "188-189.3 \u00b0C"}}