{"cas_no": "518048-02-7", "cn_name": "[1-[4-[[(4-\u6c1f\u82c4\u57fa)\u6c28\u57fa]\u7fb0\u57fa]-5-\u7f9f\u57fa-1-\u7532\u57fa-6-\u6c27\u4ee3-1,6-\u4e8c\u6c22\u5627\u5576-2-\u57fa]-1-\u7532\u57fa\u4e59\u57fa]\u6c28\u57fa\u7532\u9178\u82c4\u916f", "en_name": ["Phenylmethyl N-[1-[4-[[[(4-fluorophenyl)methyl]amino]carbonyl]-1,6-dihydro-5-hydroxy-1-methyl-6-oxo-2-pyrimidinyl]-1-methylethyl]carbamate", "Carbamic acid, N-[1-[4-[[[(4-fluorophenyl)methyl]amino]carbonyl]-1,6-dihydro-5-hydroxy-1-methyl-6-oxo-2-pyrimidinyl]-1-methylethyl]-, phenylmethyl ester", "Carbamic acid, [1-[4-[[[(4-fluorophenyl)methyl]amino]carbonyl]-1,6-dihydro-5-hydroxy-1-methyl-6-oxo-2-pyrimidinyl]-1-methylethyl]-, phenylmethyl ester", "Phenylmethyl N-[1-[4-[[[(4-fluorophenyl)methyl]amino]carbonyl]-1,6-dihydro-5-hydroxy-1-methyl-6-oxo-2-pyrimidinyl]-1-methylethyl]carbamate", "Benzyl [1-[4-[[(4-fluorobenzyl)amino]carbonyl]-5-hydroxy-1-methyl-6-oxo-1,6-dihydropyrimidin-2-yl]-1-methylethyl]carbamate", "[1-[4-(4-Fluorobenzylcarbamoyl)-5-hydroxy-1-methyl-6-oxo-1,6-dihydropyrimidin-2-yl]-1-methylethyl]carbamic acid benzyl ester"], "SMILES": "C(NC(OCC1=CC=CC=C1)=O)(C)(C)C2=NC(C(NCC3=CC=C(F)C=C3)=O)=C(O)C(=O)N2C", "physical_data": {"Molecular Weight": "468.48", "Molecular Formula": "C24H25FN4O5", "Melting Point": "182.0-182.8 \u00b0C"}}