{"cas_no": "518057-64-2", "cn_name": "2-\u6c2f-5-\u4e09\u6c1f\u7532\u57fa-6-\u7898\u5421\u5576", "en_name": ["6-Chloro-2-iodo-3-(trifluoromethyl)pyridine", "Pyridine, 6-chloro-2-iodo-3-(trifluoromethyl)-", "6-Chloro-2-iodo-3-(trifluoromethyl)pyridine"], "SMILES": "C(F)(F)(F)C1=C(I)N=C(Cl)C=C1", "physical_data": {"Molecular Weight": "307.44", "Molecular Formula": "C6H2ClF3IN", "Boiling Point": "65-66 \u00b0C @ Press: 1.5 Torr", "Melting Point": "-5--4 \u00b0C"}}