{"cas_no": "518047-98-8", "cn_name": "[2-\u6c28\u57fa-2-(\u7f9f\u57fa\u4e9a\u6c28\u57fa)-1,1-\u4e8c\u7532\u57fa\u4e59\u57fa]\u6c28\u57fa\u7532\u9178\u82c4\u916f", "en_name": ["Phenylmethyl N-[2-(hydroxyamino)-2-imino-1,1-dimethylethyl]carbamate", "Carbamic acid, N-[2-(hydroxyamino)-2-imino-1,1-dimethylethyl]-, phenylmethyl ester", "Carbamic acid, [2-(hydroxyamino)-2-imino-1,1-dimethylethyl]-, phenylmethyl ester", "Phenylmethyl N-[2-(hydroxyamino)-2-imino-1,1-dimethylethyl]carbamate", "Benzyl [2-amino-2-(hydroxyimino)-1,1-dimethylethyl]carbamate", "[1-(N-Hydroxycarbamimidoyl)-1-methylethyl]carbamic Acid Benzyl Ester"], "SMILES": "C(C(NO)=N)(NC(OCC1=CC=CC=C1)=O)(C)C", "physical_data": {"Molecular Weight": "251.28", "Molecular Formula": "C12H17N3O3", "Melting Point": "160.0-160.5 \u00b0C"}}