{"cas_no": "51800-98-7", "cn_name": "3-\u4e09\u6c1f\u4e59\u9170\u57fa-D-\u6a1f\u8111", "en_name": ["(+)-3-(Trifluoroacetyl)camphor", "Bicyclo[2.2.1]heptan-2-one, 1,7,7-trimethyl-3-(2,2,2-trifluoroacetyl)-, (1R,4R)-", "Bicyclo[2.2.1]heptan-2-one, 1,7,7-trimethyl-3-(trifluoroacetyl)-, (1R)-", "Bicyclo[2.2.1]heptan-2-one, 1,7,7-trimethyl-3-(trifluoroacetyl)-, (1R,4R)-", "(1R,4R)-1,7,7-Trimethyl-3-(2,2,2-trifluoroacetyl)bicyclo[2.2.1]heptan-2-one", "3-(Trifluoroacetyl)-d-camphor", "(+)-3-(Trifluoroacetyl)camphor"], "SMILES": "C(C(F)(F)F)(=O)C1C2C(C)(C)C(C)(C1=O)CC2", "physical_data": {"Molecular Weight": "248.24", "Molecular Formula": "C12H15F3O2", "Boiling Point": "62 \u00b0C @ Press: 0.19 Torr"}}