{"cas_no": "5181-10-2", "cn_name": "4,4'-\u4e8c\u6c2f\u4e8c\u82ef\u786b\u919a", "en_name": ["1,1\u2032-Thiobis[4-chlorobenzene]", "Benzene, 1,1\u2032-thiobis[4-chloro-", "Sulfide, bis(p-chlorophenyl)", "1,1\u2032-Thiobis[4-chlorobenzene]", "4,4\u2032-Dichlorodiphenyl sulfide", "p-Chlorophenyl sulfide", "Bis(p-chlorophenyl) sulfide", "Di-p-chlorophenyl sulfide", "Bis(4-chlorophenyl) sulfide", "4-Chlorophenyl sulfide", "Di(4-chlorophenyl) sulfide", "1,1\u2032-Thiobis(4-chlorobenzene)", "NSC 40470"], "SMILES": "S(C1=CC=C(Cl)C=C1)C2=CC=C(Cl)C=C2", "physical_data": {"Molecular Weight": "255.16", "Molecular Formula": "C12H8Cl2S", "Melting Point": "88-89 \u00b0C"}}