{"cas_no": "5182-44-5", "cn_name": "3-\u6c2f\u82ef\u4e59\u9187", "en_name": ["2-(3-Chlorophenyl)ethanol", "Benzeneethanol, 3-chloro-", "Phenethyl alcohol, m-chloro-", "3-Chlorobenzeneethanol", "2-(3-Chlorophenyl)ethanol", "3-Chlorophenethyl alcohol", "m-Chlorophenethyl alcohol", "2-(3-Chlorophenyl)ethyl alcohol", "3-Chlorophenethanol", "2-(3-Chlorophenyl)ethan-1-ol"], "SMILES": "C(CO)C1=CC(Cl)=CC=C1", "physical_data": {"Molecular Weight": "156.61", "Molecular Formula": "C8H9ClO", "Boiling Point": "100.5 \u00b0C @ Press: 3 Torr"}}