{"cas_no": "51826-90-5", "cn_name": "3-\u6eb4\u4e19\u57fa\u4e09\u7532\u6c27\u57fa\u7845\u70f7", "en_name": ["(3-Bromopropyl)trimethoxysilane", "Silane, (3-bromopropyl)trimethoxy-", "(3-Bromopropyl)trimethoxysilane", "1-Bromo-3-trimethoxysilylpropane", "\u03b3-Bromopropyltrimethoxysilane", "SIB 1906.0"], "SMILES": "[Si](CCCBr)(OC)(OC)OC", "physical_data": {"Molecular Weight": "243.17", "Molecular Formula": "C6H15BrO3Si", "Boiling Point": "130 \u00b0C @ Press: 45 Torr", "Density": "1.293 g/cm\u00b3"}}