{"cas_no": "5183-78-8", "cn_name": "N-\u7532\u57fa\u82ef\u78fa\u9170\u80fa", "en_name": ["N-Methylbenzenesulfonamide", "Benzenesulfonamide, N-methyl-", "N-Methylbenzenesulfonamide", "Dellatol MMA", "NSC 15404", "N-Methylphenylsulfonamide", "N-Benzenesulfonyl-N-methylamine"], "SMILES": "S(NC)(=O)(=O)C1=CC=CC=C1", "physical_data": {"Molecular Weight": "171.22", "Molecular Formula": "C7H9NO2S", "Boiling Point": "165-170 \u00b0C @ Press: 30 Torr", "Melting Point": "31 \u00b0C"}}