{"cas_no": "51847-92-8", "cn_name": "\u7518\u8349\u5229\u916e", "en_name": ["Licoricone", "4H-1-Benzopyran-4-one, 7-hydroxy-3-[6-hydroxy-2,4-dimethoxy-3-(3-methyl-2-buten-1-yl)phenyl]-", "4H-1-Benzopyran-4-one, 7-hydroxy-3-[6-hydroxy-2,4-dimethoxy-3-(3-methyl-2-butenyl)phenyl]-", "7-Hydroxy-3-[6-hydroxy-2,4-dimethoxy-3-(3-methyl-2-buten-1-yl)phenyl]-4H-1-benzopyran-4-one", "Licoricone"], "SMILES": "O(C)C1=C(C(O)=CC(OC)=C1CC=C(C)C)C=2C(=O)C=3C(OC2)=CC(O)=CC3", "physical_data": {"Molecular Weight": "382.41", "Molecular Formula": "C22H22O6", "Melting Point": "250-251 \u00b0C"}}