{"cas_no": "51857-17-1", "cn_name": "N-(6-\u6c28\u57fa\u5df1\u57fa)\u6c28\u57fa\u7532\u9178\u53d4\u4e01\u916f", "en_name": ["N-BOC-1,6-diaminohexane", "Carbamic acid, N-(6-aminohexyl)-, 1,1-dimethylethyl ester", "Carbamic acid, (6-aminohexyl)-, 1,1-dimethylethyl ester", "6-[(tert-Butyloxycarbonyl)amino]hexylamine", "N-(tert-Butoxycarbonyl)hexamethylenediamine", "N-(tert-Butoxycarbonyl)-1,6-hexanediamine", "N-BOC-1,6-diaminohexane", "1-((tert-Butoxycarbonyl)amino)-6-aminohexane", "(6-Aminohexyl)carbamic acid tert-butyl ester", "6-Aminohexylcarbamic acid tert-butyl ester", "tert-Butyl N-(6-aminohexyl)carbamate", "tert-Butyl (6-aminohexyl)carbamate", "6-(tert-Butoxycarbonylamino)-1-hexanamine", "6-((tert-Butoxycarbonyl)amino)-1-hexylamine", "N-(tert-Butoxycarbonyl)-1,6-diaminohexane", "6-(tert-Butoxycarbonylamino)hexylamine", "N-BOC-1,6-diaminohexane", "Mono-BOC-hexamethylenediamine", "tert-Butyloxycarbonyl-1,6-hexamethylenediamine", "Boc-1,6-hexanediamine", "N-Boc-1,6-hexanediamine", "6-(tert-Butoxycarbonyl)amino-1-aminohexane"], "SMILES": "C(NCCCCCCN)(OC(C)(C)C)=O", "physical_data": {"Molecular Weight": "216.32", "Molecular Formula": "C11H24N2O2", "Melting Point": "67-69 \u00b0C"}}