{"cas_no": "51857-11-5", "cn_name": "7-O-METHYLERIODICTYOL", "en_name": ["Sternbin", "4H-1-Benzopyran-4-one, 2-(3,4-dihydroxyphenyl)-2,3-dihydro-5-hydroxy-7-methoxy-, (2S)-", "4H-1-Benzopyran-4-one, 2-(3,4-dihydroxyphenyl)-2,3-dihydro-5-hydroxy-7-methoxy-, (S)-", "(2S)-2-(3,4-Dihydroxyphenyl)-2,3-dihydro-5-hydroxy-7-methoxy-4H-1-benzopyran-4-one", "7-O-Methyleriodictyol", "Eriodictyol 7-methyl ether", "7-Methyleriodictyol", "Sternbin", "Sterubin"], "SMILES": "O=C1C=2C(OC(C1)C3=CC(O)=C(O)C=C3)=CC(OC)=CC2O", "physical_data": {"Molecular Weight": "302.28", "Molecular Formula": "C16H14O6", "Melting Point": "215 \u00b0C"}}