{"cas_no": "51851-37-7", "cn_name": "\u5341\u4e09\u6c1f\u8f9b\u57fa\u4e09\u4e59\u6c27\u57fa\u7845\u70f7", "en_name": ["1H,1H,2H,2H-Perfluorooctyltriethoxysilane", "Silane, triethoxy(3,3,4,4,5,5,6,6,7,7,8,8,8-tridecafluorooctyl)-", "Triethoxy(3,3,4,4,5,5,6,6,7,7,8,8,8-tridecafluorooctyl)silane", "1,1,2,2-Tetrahydroperfluorooctyltriethoxysilane", "2-Perfluorohexylethyltriethoxysilane", "1H,1H,2H,2H-Perfluorooctyltriethoxysilane", "VPS 8261", "Dynasylan F 8261", "T 2494", "Tridecafluoro-1,1,2,2-tetrahydrooctyltriethoxysilane", "Dynasylan F 8262", "SIT 8175", "13F (fluorosilane)", "13F", "Dynasylan DSF 8261", "DSF 8261", "F 8261", "3,3,4,4,5,5,6,6,7,7,8,8,8-Tridecafluorooctyltriethoxysilane", "SIT 8175.0", "Repell 2111", "T 1770", "Triethoxy-1H,1H,2H,2H-tridecafluorooctylsilane", "Tridecafluorooctyltriethoxysilane", "Dynasylan 8261", "FAS 13", "Actyflon G 617", "Triethoxy-1H,1H,2H,2H-tridecafluoro-n-octylsilane", "(3,3,4,4,5,5,6,6,7,7,8,8,8-Tridecafluoroctyl)triethoxysilane", "FAS 14", "FAS 13E", "G 617", "FAS 1313", "Triethoxy-1H,1H,2H,2H-tridecafluoro-n-octylsilane", "Sylan F 8263", "Dynasylan F 8263", "F 8263", "Triethoxy(1H,1H,2H,2H-perfluoro-1-octyl)silane", "Fluowet FS 600", "Tridecafluoro-1,1,2,2,-tetrahydrooc-tyl)-triethoxy silane"], "SMILES": "[Si](CCC(C(C(C(C(C(F)(F)F)(F)F)(F)F)(F)F)(F)F)(F)F)(OCC)(OCC)OCC", "physical_data": {"Molecular Weight": "510.36", "Molecular Formula": "C14H19F13O3Si", "Boiling Point": "86 \u00b0C @ Press: 1.5 Torr", "Melting Point": "&lt;-38 \u00b0C", "Density": "1.351 g/cm\u00b3"}}