{"cas_no": "51867-83-5", "cn_name": "3-\u6c28\u57fa-4-\u6c2f\u4e59\u9170\u82ef\u80fa", "en_name": ["N-(3-Amino-4-chlorophenyl)acetamide", "Acetamide, N-(3-amino-4-chlorophenyl)-", "N-(3-Amino-4-chlorophenyl)acetamide", "5-Acetamido-2-chloroaniline", "1-Amino-3-acetylamino-6-chloro-benzene"], "SMILES": "N(C(C)=O)C1=CC(N)=C(Cl)C=C1", "physical_data": {"Molecular Weight": "184.62", "Molecular Formula": "C8H9ClN2O", "Melting Point": "170 \u00b0C"}}