{"cas_no": "51868-96-3", "cn_name": "1-\u5421\u54af\u70f7\u57fa\u7532\u57fa\u78f7\u9178\u4e8c\u4e59\u916f", "en_name": ["Diethyl P-(1-pyrrolidinylmethyl)phosphonate", "Phosphonic acid, P-(1-pyrrolidinylmethyl)-, diethyl ester", "Phosphonic acid, (1-pyrrolidinylmethyl)-, diethyl ester", "Diethyl P-(1-pyrrolidinylmethyl)phosphonate", "(1-pyrrolidinylmethyl)phosphonic acid diethyl ester", "1-(Diethoxyphosphorylmethyl)pyrrolidine"], "SMILES": "C(P(OCC)(OCC)=O)N1CCCC1", "physical_data": {"Molecular Weight": "221.23", "Molecular Formula": "C9H20NO3P", "Boiling Point": "110 \u00b0C @ Press: 0.1 Torr"}}