{"cas_no": "51865-84-0", "cn_name": "4-(N-\u7532\u9170\u57fa-N-\u7532\u57fa\u6c28\u57fa)\u82ef\u7532\u9178", "en_name": ["4-(Formylmethylamino)benzoic acid", "Benzoic acid, 4-(formylmethylamino)-", "4-(Formylmethylamino)benzoic acid", "p-(N-Methylformamido)benzoic acid", "NSC 114013", "4-(N-Formyl-N-methylamino)benzoic acid"], "SMILES": "N(C=O)(C)C1=CC=C(C(O)=O)C=C1", "physical_data": {"Molecular Weight": "179.17", "Molecular Formula": "C9H9NO3", "Melting Point": "214-215 \u00b0C"}}