{"cas_no": "51863-60-6", "cn_name": "3,5-\u4e8c\u7f9f\u57fa\u82ef\u4e59\u916e", "en_name": ["3,5-Dihydroxyacetophenone", "Ethanone, 1-(3,5-dihydroxyphenyl)-", "Acetophenone, 3\u2032,5\u2032-dihydroxy-", "1-(3,5-Dihydroxyphenyl)ethanone", "3,5-Dihydroxyacetophenone", "3\u2032,5\u2032-Dihydroxyacetophenone", "3\u2032,5\u2032-Dihydroxyphenyl methyl ketone", "1-(3,5-Dihydroxyphenyl)ethan-1-one"], "SMILES": "C(C)(=O)C1=CC(O)=CC(O)=C1", "physical_data": {"Molecular Weight": "152.15", "Molecular Formula": "C8H8O3", "Melting Point": "147-148 \u00b0C"}}