{"cas_no": "5187-23-5", "cn_name": "5-\u4e59\u57fa-1,3-\u4e8c\u6076\u70f7-5-\u7532\u9187", "en_name": ["5-Ethyl-1,3-dioxane-5-methanol", "1,3-Dioxane-5-methanol, 5-ethyl-", "m-Dioxane-5-methanol, 5-ethyl-", "5-Ethyl-1,3-dioxane-5-methanol", "5-Ethyl-m-dioxane-5-methanol", "5-Ethyl-1,3-dioxan-5-methanol", "Formaldehyde mono(1,1,1-trimethylolpropane) acetal", "5-Ethyl-5-(hydroxymethyl)-1,3-dioxane", "5-(Hydroxymethyl)-5-ethyl-1,3-dioxane", "(5-Ethyl[1,3]dioxan-5-yl)methanol"], "SMILES": "C(C)C1(CO)COCOC1", "physical_data": {"Molecular Weight": "146.18", "Molecular Formula": "C7H14O3", "Boiling Point": "85 \u00b0C @ Press: 4 mmHg"}}