{"cas_no": "5187-82-6", "cn_name": "(\u4e59\u6c27\u57fa\u7fb0\u57fa\u7532\u57fa)\u4e8c\u7532\u57fa\u6eb4\u5316\u786b\u9393", "en_name": ["Sulfonium, (2-ethoxy-2-oxoethyl)dimethyl-, bromide (1:1)", "Sulfonium, (2-ethoxy-2-oxoethyl)dimethyl-, bromide (1:1)", "Sulfonium, (carboxymethyl)dimethyl-, bromide, ethyl ester", "Sulfonium, (2-ethoxy-2-oxoethyl)dimethyl-, bromide", "(Carboxymethyl)dimethylsulfonium bromide, ethyl ester", "(Carbethoxymethyl)dimethylsulfonium bromide", "(Ethoxycarbonylmethyl)dimethylsulfonium bromide", "(2-Ethoxy-2-oxoethyl)(dimethyl)sulfonium bromide", "(2-Ethoxy-2-oxoethyl)dimethylsulfanium bromide"], "SMILES": "C(C(OCC)=O)[S+](C)C.[Br-]", "physical_data": {"Molecular Weight": "", "Molecular Formula": "C6H13O2S.Br", "Melting Point": "112-113 \u00b0C"}}