{"cas_no": "5189-11-7", "cn_name": "\u82ef\u567b\u5576\u82f9\u679c\u9178\u76d0", "en_name": ["Pizotifen malate", "Butanedioic acid, 2-hydroxy-, compd. with 4-(9,10-dihydro-4H-benzo[4,5]cyclohepta[1,2-b]thien-4-ylidene)-1-methylpiperidine (1:1)", "Malic acid, compd. with 4-(9,10-dihydro-4H-benzo[4,5]cyclohepta[1,2-b]thien-4-ylidene)-1-methylpiperidine (1:1)", "Butanedioic acid, hydroxy-, compd. with 4-(9,10-dihydro-4H-benzo[4,5]cyclohepta[1,2-b]thien-4-ylidene)-1-methylpiperidine (1:1)", "Malic acid, compd. with 4-(9,10-dihydro-4H-benzo[4,5]cyclohepta[1,2-b]thien-4-ylidene)-1-methylpiperidine", "4H-Benzo[4,5]cyclohepta[1,2-b]thiophene, 9,10-dihydro-4-(1-methyl-4-piperidylidene)-, malate (1:1)", "Piperidine, 4-(9,10-dihydro-4H-benzo[4,5]cyclohepta[1,2-b]thien-4-ylidene)-1-methyl-, malate (1:1)", "4H-Benzo[4,5]cyclohepta[1,2-b]thiophene, piperidine deriv.", "Piperidine, 4-(9,10-dihydro-4H-benzo[4,5]cyclohepta[1,2-b]thien-4-ylidene)-1-methyl-, hydroxybutanedioate (1:1)", "Pizotifen malate", "Pizotifen hydrogen malate", "4-(9,10-Dihydro-4H-benzo[4,5]cyclohepta[1,2-b]thien-4-ylidene)-1-methylpiperidinium hydrogen malate", "Mosegor", "Sanomigran", "Sanmigran", "Pizotyline malate"], "SMILES": "C(CC(O)=O)(C(O)=O)O.CN1CCC(=C2C3=C(CCC=4C2=CC=CC4)SC=C3)CC1", "physical_data": {"Molecular Weight": "", "Molecular Formula": "C19H21NS.C4H6O5", "Melting Point": "185-186 \u00b0C (decomp)"}}