{"cas_no": "519-87-9", "cn_name": "\u4e59\u9170\u4e8c\u82ef\u80fa", "en_name": ["N,N-Diphenylacetamide", "Acetamide, N,N-diphenyl-", "N,N-Diphenylacetamide", "N-Acetyldiphenylamine", "Diphenylacetamide", "N-Phenylacetanilide", "Acetyldiphenylamine", "NSC 3133"], "SMILES": "N(C(C)=O)(C1=CC=CC=C1)C2=CC=CC=C2", "physical_data": {"Molecular Weight": "211.26", "Molecular Formula": "C14H13NO", "Boiling Point": "160-162 \u00b0C @ Press: 6 Torr", "Melting Point": "103 \u00b0C"}}