{"cas_no": "519-98-2", "cn_name": "4-(\u7532\u6c28\u57fa)\u5b89\u66ff\u6bd4\u6797", "en_name": ["Methylaminoantipyrine", "3H-Pyrazol-3-one, 1,2-dihydro-1,5-dimethyl-4-(methylamino)-2-phenyl-", "Antipyrine, 4-(methylamino)-", "1,2-Dihydro-1,5-dimethyl-4-(methylamino)-2-phenyl-3H-pyrazol-3-one", "Noraminopyrine", "4-Monomethylaminoantipyrine", "4-(Methylamino)antipyrine", "4-Monomethylaminophenazone", "N-Methyl-4-aminoantipyrine", "Monomethylaminoantipyrine", "Noramidopyrine", "N-Methylaminoantipyrine", "Methylaminoantipyrine", "4-Methylaminophenazone", "N-Methylaminophenazone", "Methylaminophenazone", "N-Methyl-4-aminophenazone", "1,5-Dimethyl-4-methylamino-2-phenyl-1,2-dihydro-pyrazol-3-one", "1,5-Dimethyl-4-(methylamino)-2-phenyl-2,3-dihydro-1H-pyrazol-3-one"], "SMILES": "O=C1N(N(C)C(C)=C1NC)C2=CC=CC=C2", "physical_data": {"Molecular Weight": "217.27", "Molecular Formula": "C12H15N3O", "Melting Point": "63 \u00b0C"}}