{"cas_no": "519-37-9", "cn_name": "BETA-\u7f9f\u57fa\u4e59\u57fa\u8336\u78b1", "en_name": ["Etofylline", "1H-Purine-2,6-dione, 3,7-dihydro-7-(2-hydroxyethyl)-1,3-dimethyl-", "Theophylline, 7-(2-hydroxyethyl)-", "3,7-Dihydro-7-(2-hydroxyethyl)-1,3-dimethyl-1H-purine-2,6-dione", "Cordalin", "Etofylline", "7-(\u03b2-Hydroxyethyl)theophylline", "7-(2-Hydroxyethyl)theophylline", "Oxyethyltheophylline", "Oxyphylline", "Phyllocormin N", "7-(Hydroxyethyl)theophylline", "Hydroxyethyltheophylline", "7-(2-Hydroxyethyl)-1,3-dimethylxanthine", "Oxytheonyl", "Oxphylline", "Aethophyllinum", "Ascorphylline", "Bio-phylline", "Corophyllin-N", "Dilaphyllin", "Soluphylline", "Frekaphyllin", "7-Theophyllineethanol", "Oxyphyllin", "KT 200G", "Etophyllin", "Oxyethophylline", "Etophylline", "NSC 113373", "1,3-Dimethyl-7-(2-hydroxyethyl)xanthine"], "SMILES": "C(CO)N1C2=C(N(C)C(=O)N(C)C2=O)N=C1", "physical_data": {"Molecular Weight": "224.22", "Molecular Formula": "C9H12N4O3", "Melting Point": "158 \u00b0C"}}