{"cas_no": "519-95-9", "cn_name": "\u592b\u6d1b\u68af\u9686", "en_name": ["\u03b3-Oxo-8-fluoranthenebutanoic acid", "8-Fluoranthenebutanoic acid, \u03b3-oxo-", "8-Fluoranthenebutyric acid, \u03b3-oxo-", "\u03b3-Oxo-8-fluoranthenebutanoic acid", "SC 1674", "Anchol", "\u03b2-(8-Fluoranthoyl)propionic acid", "\u03b2-(8-Fluoranthyloyl)propionic acid", "Fluorantyrone", "Gamma-Fluoranthen-8-yl-gamma-oxybutyric acid", "\u03b3-Oxo-8-fluoranthenebutyric acid", "Zanchol", "Florantyrone", "Florantyron", "Bilyn", "Cistoplex", "Fluochol", "Idrobil", "Idroepar", "Kanchol"], "SMILES": "C(CCC(O)=O)(=O)C=1C=C2C3=C4C(C2=CC1)=CC=CC4=CC=C3", "physical_data": {"Molecular Weight": "302.32", "Molecular Formula": "C20H14O3", "Melting Point": "195 \u00b0C"}}