{"cas_no": "519-05-1", "cn_name": "2-\u7fa7\u57fa-3,4-\u4e8c\u7532\u6c27\u57fa\u82ef\u7532\u919b", "en_name": ["6-Formyl-2,3-dimethoxybenzoic acid", "Benzoic acid, 6-formyl-2,3-dimethoxy-", "Phthalaldehydic acid, 5,6-dimethoxy-", "6-Formyl-2,3-dimethoxybenzoic acid", "5,6-Dimethoxy-2-formylbenzoic acid", "Opianic acid", "5,6-Dimethoxyphthalaldehydic acid", "2,3-Dimethoxy-6-formylbenzoic acid", "NSC 35546"], "SMILES": "C(O)(=O)C1=C(OC)C(OC)=CC=C1C=O", "physical_data": {"Molecular Weight": "210.18", "Molecular Formula": "C10H10O5", "Melting Point": "150 \u00b0C"}}