{"cas_no": "519-23-3", "cn_name": "\u692d\u5706\u73ab\u7470\u6811\u78b1", "en_name": ["Ellipticine", "6H-Pyrido[4,3-b]carbazole, 5,11-dimethyl-", "Ellipticine", "5,11-Dimethyl-6H-pyrido[4,3-b]carbazole", "NSC 71795", "CP 5"], "SMILES": "CC1=C2C(=C(C)C=3C1=CN=CC3)NC=4C2=CC=CC4", "physical_data": {"Molecular Weight": "246.31", "Molecular Formula": "C17H14N2", "Melting Point": "313 \u00b0C"}}