{"cas_no": "519-44-8", "cn_name": "2\uff0c4-\u4e8c\u785d\u57fa\u95f4\u82ef\u4e8c\u915a", "en_name": ["2,4-Dinitroresorcinol", "1,3-Benzenediol, 2,4-dinitro-", "Resorcinol, 2,4-dinitro-", "2,4-Dinitro-1,3-benzenediol", "2,4-Dinitroresorcinol", "Dinitroresorcinol", "3-Hydroxy-2,4-dinitrophenol", "2,4-Dinitroresorcin", "NSC 243680"], "SMILES": "N(=O)(=O)C1=C(O)C(N(=O)=O)=CC=C1O", "physical_data": {"Molecular Weight": "200.11", "Molecular Formula": "C6H4N2O6", "Melting Point": "147.5 \u00b0C"}}