{"cas_no": "519-73-3", "cn_name": "\u4e09\u82ef\u57fa\u7532\u70f7", "en_name": ["Triphenylmethane", "Benzene, 1,1\u2032,1\u2032\u2032-methylidynetris-", "Methane, triphenyl-", "1,1\u2032,1\u2032\u2032-Methylidynetris[benzene]", "Triphenylmethane", "Tritane", "NSC 4049"], "SMILES": "C(C1=CC=CC=C1)(C2=CC=CC=C2)C3=CC=CC=C3", "physical_data": {"Molecular Weight": "244.33", "Molecular Formula": "C19H16", "Boiling Point": "359 \u00b0C", "Melting Point": "94 \u00b0C", "Density": "1.142 g/cm\u00b3"}}