{"cas_no": "519-02-8", "cn_name": "\u82e6\u53c2\u78b1", "en_name": ["Matrine", "1H,5H,10H-Dipyrido[2,1-f:3\u2032,2\u2032,1\u2032-ij][1,6]naphthyridin-10-one, dodecahydro-, (7aS,13aR,13bR,13cS)-", "Matrine", "Matridin-15-one", "(7aS,13aR,13bR,13cS)-Dodecahydro-1H,5H,10H-dipyrido[2,1-f:3\u2032,2\u2032,1\u2032-ij][1,6]naphthyridin-10-one", "(+)-Matrine", "\u03b1-Matrine", "NSC 146051", "NSC 318810", "Vegard", "Bioca", "Matrine-fluensulfone mixt."], "SMILES": "O=C1N2C(C3C4C(C2)CCCN4CCC3)CCC1", "physical_data": {"Molecular Weight": "248.36", "Molecular Formula": "C15H24N2O", "Boiling Point": "233 \u00b0C @ Press: 6 Torr", "Melting Point": "76 \u00b0C", "Density": "1.0888 g/cm\u00b3 @ Temp: 85 \u00b0C"}}