{"cas_no": "519-34-6", "cn_name": "2,3',4,4',6-\u4e94\u7f9f\u57fa\u4e8c\u82ef\u7532\u916e", "en_name": ["Maclurin", "Methanone, (3,4-dihydroxyphenyl)(2,4,6-trihydroxyphenyl)-", "Benzophenone, 2,3\u2032,4,4\u2032,6-pentahydroxy-", "Maclurin", "(3,4-Dihydroxyphenyl)(2,4,6-trihydroxyphenyl)methanone", "C.I. 75240", "C.I. Natural Yellow 11", "Morintannic acid", "Moritannic acid", "Patent Fustin", "2,3\u2032,4,4\u2032,6-Pentahydroxybenzophenone", "Laguncurin", "Kino-yellow", "Macurin", "NSC 83240"], "SMILES": "C(=O)(C1=C(O)C=C(O)C=C1O)C2=CC(O)=C(O)C=C2", "physical_data": {"Molecular Weight": "262.21", "Molecular Formula": "C13H10O6", "Melting Point": "222.5 \u00b0C"}}