{"cas_no": "519-09-5", "cn_name": "\u82ef\u7532\u91af\u827e\u514b\u5be7", "en_name": ["Benzoylecgonine", "8-Azabicyclo[3.2.1]octane-2-carboxylic acid, 3-(benzoyloxy)-8-methyl-, (1R,2R,3S,5S)-", "1\u03b1H,5\u03b1H-Tropane-2\u03b2-carboxylic acid, 3\u03b2-hydroxy-, benzoate (ester)", "8-Azabicyclo[3.2.1]octane-2-carboxylic acid, 3-(benzoyloxy)-8-methyl-, [1R-(exo,exo)]-", "Ecgonine, benzoate", "(1R,2R,3S,5S)-3-(Benzoyloxy)-8-methyl-8-azabicyclo[3.2.1]octane-2-carboxylic acid", "Benzoylecgonine", "O-Benzoylecgonine", "O-Benzoyl-(-)-ecgonine", "(-)-Benzoylecgonine"], "SMILES": "C(O)(=O)C1C2N(C)C(CC1OC(=O)C3=CC=CC=C3)CC2", "physical_data": {"Molecular Weight": "289.33", "Molecular Formula": "C16H19NO4", "Melting Point": "195 \u00b0C"}}