{"cas_no": "519-74-4", "cn_name": "2-\u4e8c\u82ef\u7532\u57fa\u54cc\u5576", "en_name": ["(\u00b1)-Desoxypipradrol", "Piperidine, 2-(diphenylmethyl)-", "2-(Diphenylmethyl)piperidine", "Ciba 14469", "Desoxypipradrol", "Deoxypipradrol", "(\u00b1)-Desoxypipradrol", "2-Benzhydrylpiperidine"], "SMILES": "C(C1=CC=CC=C1)(C2=CC=CC=C2)C3CCCCN3", "physical_data": {"Molecular Weight": "251.37", "Molecular Formula": "C18H21N", "Boiling Point": "150-151 \u00b0C @ Press: 0.03 Torr", "Melting Point": "65-66 \u00b0C"}}