{"cas_no": "519-32-4", "cn_name": "1,3,9-\u4e09\u7532\u57fa\u9ec4\u560c\u5464", "en_name": ["Isocaffeine", "1H-Purine-2,6-dione, 3,9-dihydro-1,3,9-trimethyl-", "Isocaffeine", "3,9-Dihydro-1,3,9-trimethyl-1H-purine-2,6-dione", "1,3,9-Trimethylxanthine", "9-Methyltheophylline", "NSC 28332", "1,3,9-Trimethyl-2,3,6,9-tetrahydro-1H-purine-2,6-dione", "1,3,9-Trimethyl-3,9-dihydro-1H-purine-2,6-dione", "1,3,9-Trimethylpurine-2,6-dione", "1,3,9-Trimethyl-1H-purine-2,6(3H,9H)-dione"], "SMILES": "CN1C2=C(C(=O)N(C)C1=O)N=CN2C", "physical_data": {"Molecular Weight": "194.19", "Molecular Formula": "C8H10N4O2", "Melting Point": "285-287 \u00b0C (sublm)"}}