{"cas_no": "519054-55-8", "cn_name": "5-(4,4,5,5-TETRAMETHYL-1,3,2-DIOXABOROLAN-2-YL)-1-BENZOFURAN", "en_name": ["5-(4,4,5,5-Tetramethyl-1,3,2-dioxaborolan-2-yl)benzofuran", "Benzofuran, 5-(4,4,5,5-tetramethyl-1,3,2-dioxaborolan-2-yl)-", "5-(4,4,5,5-Tetramethyl-1,3,2-dioxaborolan-2-yl)benzofuran", "5-(4,4,5,5-Tetramethyl-[1,3,2]dioxaborolan-2-yl)benzofuran", "2-(Benzofuran-5-yl)-4,4,5,5-tetramethyl-[1,3,2]dioxaborolane", "5-(4,4,5,5-Tetramethyl-1,3,2-dioxaborolan-2-yl)-1-benzofuran", "2-(1-Benzofuran-5-yl)-4,4,5,5-tetramethyl-1,3,2-dioxaborolane"], "SMILES": "CC1(C)OB(OC1(C)C)C=2C=C3C(=CC2)OC=C3", "physical_data": {"Molecular Weight": "244.09", "Molecular Formula": "C14H17BO3", "Melting Point": "64-66 \u00b0C"}}