{"cas_no": "51908-29-3", "cn_name": "4-\u5f02\u786b\u6c30\u57fa\u82ef\u78fa\u9170\u80fa", "en_name": ["4-Isothiocyanatobenzenesulfonamide", "Benzenesulfonamide, 4-isothiocyanato-", "Isothiocyanic acid, p-sulfamoylphenyl ester", "4-Isothiocyanatobenzenesulfonamide", "p-Sulfamoylphenyl isothiocyanate", "4-(Aminosulfonyl)phenyl isothiocyanate"], "SMILES": "S(N)(=O)(=O)C1=CC=C(N=C=S)C=C1", "physical_data": {"Molecular Weight": "214.26", "Molecular Formula": "C7H6N2O2S2", "Melting Point": "212-214 \u00b0C (decomp)"}}