{"cas_no": "519032-08-7", "cn_name": "2-(2-(\u82c4\u6c27\u57fa\u7fb0\u57fa\u6c28\u57fa)\u4e19-2-\u57fa)-5-\u7f9f\u57fa-6-\u6c27\u4ee3-1,6-\u4e8c\u6c22\u5627\u5576-4-\u7532\u9178\u7532\u916f", "en_name": ["Methyl 1,6-dihydro-5-hydroxy-2-[1-methyl-1-[[(phenylmethoxy)carbonyl]amino]ethyl]-6-oxo-4-pyrimidinecarboxylate", "4-Pyrimidinecarboxylic acid, 1,6-dihydro-5-hydroxy-2-[1-methyl-1-[[(phenylmethoxy)carbonyl]amino]ethyl]-6-oxo-, methyl ester", "Methyl 1,6-dihydro-5-hydroxy-2-[1-methyl-1-[[(phenylmethoxy)carbonyl]amino]ethyl]-6-oxo-4-pyrimidinecarboxylate", "methyl 2-[1-[[(benzyloxy)carbonyl]amino]-1-methylethyl]-5,6-dihydroxypyrimidine-4-carboxylate", "2-(1-Benzyloxycarbonylamino-1-methylethyl)-5,6-dihydroxypyrimidine-4-carboxylic acid methyl ester", "Methyl 2-[1-[(benzyloxy)carbonyl]amino]-1-(1-methylethyl)-5,6-dihydroxypyrimidine-4-carboxylate"], "SMILES": "C(NC(OCC1=CC=CC=C1)=O)(C)(C)C=2NC(C(OC)=O)=C(O)C(=O)N2", "physical_data": {"Molecular Weight": "361.35", "Molecular Formula": "C17H19N3O6", "Melting Point": "186.3-187.0 \u00b0C"}}