{"cas_no": "5191-80-0", "cn_name": "S-\u4e8c\u82ef\u7532\u57fa-L-\u534a\u80f1\u6c28\u9178", "en_name": ["S-(Diphenylmethyl)-L-cysteine", "L-Cysteine, S-(diphenylmethyl)-", "Alanine, 3-[(diphenylmethyl)thio]-, L-", "S-(Diphenylmethyl)-L-cysteine", "S-Benzhydryl-L-cysteine", "NSC 86162", "(2R)-2-Azaniumyl-3-benzhydrylsulfanylpropanoate"], "SMILES": "C(SCC(C(O)=O)N)(C1=CC=CC=C1)C2=CC=CC=C2", "physical_data": {"Molecular Weight": "287.38", "Molecular Formula": "C16H17NO2S", "Melting Point": "202-203 \u00b0C"}}