{"cas_no": "51926-51-3", "cn_name": "H-PRO-ILE-OH", "en_name": ["L-Prolyl-L-isoleucine", "L-Isoleucine, L-prolyl-", "L-Isoleucine, N-L-prolyl-", "L-Prolyl-L-isoleucine", "452: PN: WO2005081628 SEQID: 454 claimed protein", "2003: PN: EP2071334 SEQID: 2112 claimed protein", "2003: PN: WO2009077864 SEQID: 2112 claimed protein", "377: PN: EP2161028 PAGE: 14 claimed protein", "19: PN: WO2010099019 SEQID: 6 unclaimed sequence", "168: PN: WO2011146121 PAGE: 117 claimed sequence", "53: PN: WO2021211467 SEQID: 206 claimed sequence", "472: PN: WO2022125673 SEQID: 472 claimed protein", "480: PN: WO2022215055 SEQID: 480 claimed protein"], "SMILES": "C(NC(=O)C1CCCN1)(C(CC)C)C(O)=O", "physical_data": {"Molecular Weight": "228.29", "Molecular Formula": "C11H20N2O3", "Melting Point": "231-232 \u00b0C"}}