{"cas_no": "5192-03-0", "cn_name": "5-\u6c28\u57fa\u5432\u54da", "en_name": ["5-Aminoindole", "1H-Indol-5-amine", "Indole, 5-amino-", "5-Aminoindole", "5-Indolamine", "5-Amino-1H-indole", "1H-Indol-5-ylamine", "(Indol-5-yl)amine", "NSC 61452"], "SMILES": "NC=1C=C2C(=CC1)NC=C2", "physical_data": {"Molecular Weight": "132.16", "Molecular Formula": "C8H8N2", "Boiling Point": "190 \u00b0C @ Press: 6 Torr", "Melting Point": "131-133 \u00b0C"}}