{"cas_no": "5193-88-4", "cn_name": "4-\u6c2f-5,6-\u4e8c\u7532\u6c27\u57fa\u5627\u5576", "en_name": ["4-Chloro-5,6-dimethoxypyrimidine", "Pyrimidine, 4-chloro-5,6-dimethoxy-", "4-Chloro-5,6-dimethoxypyrimidine"], "SMILES": "O(C)C=1C(OC)=C(Cl)N=CN1", "physical_data": {"Molecular Weight": "174.59", "Molecular Formula": "C6H7ClN2O2", "Melting Point": "53-55 \u00b0C"}}