{"cas_no": "51934-38-4", "cn_name": "6-\u6eb4\u8418-1-\u7532\u9178", "en_name": ["6-Bromo-1-naphthalenecarboxylic acid", "1-Naphthalenecarboxylic acid, 6-bromo-", "1-Naphthoic acid, 6-bromo-", "6-Bromo-1-naphthalenecarboxylic acid", "6-Bromo-1-naphthoic acid"], "SMILES": "C(O)(=O)C=1C2=C(C=C(Br)C=C2)C=CC1", "physical_data": {"Molecular Weight": "251.08", "Molecular Formula": "C11H7BrO2", "Melting Point": "230-231 \u00b0C"}}