{"cas_no": "51938-32-0", "cn_name": "\u590f\u4f5b\u5854\u82f7", "en_name": ["Schaftoside", "4H-1-Benzopyran-4-one, 8-\u03b1-L-arabinopyranosyl-6-\u03b2-D-glucopyranosyl-5,7-dihydroxy-2-(4-hydroxyphenyl)-", "8-\u03b1-L-Arabinopyranosyl-6-\u03b2-D-glucopyranosyl-5,7-dihydroxy-2-(4-hydroxyphenyl)-4H-1-benzopyran-4-one", "Schaftoside", "6-C-\u03b2-D-Glucosyl-8-C-\u03b1-L-arabinosylapigenin", "Apigenin 8-C-\u03b1-L-arabinoside 6-C-\u03b2-D-glucoside", "Shaftoside", "Apigenin 6-C-\u03b2-D-glucoside 8-C-\u03b1-L-arabinoside", "Apigenin (8-C-\u03b1-L-arabinosyl) 6-C-\u03b2-D-glucopyranoside", "Apigenin 6-C-glucoside-8-C-arabinoside"], "SMILES": "OC=1C(=C2C(=C(O)C1C3OC(CO)C(O)C(O)C3O)C(=O)C=C(O2)C4=CC=C(O)C=C4)C5C(O)C(O)C(O)CO5", "physical_data": {"Molecular Weight": "564.49", "Molecular Formula": "C26H28O14", "Melting Point": "228 \u00b0C"}}