{"cas_no": "51934-41-9", "cn_name": "\u5bf9\u7898\u82ef\u7532\u9178\u4e59\u916f", "en_name": ["Ethyl 4-iodobenzoate", "Benzoic acid, 4-iodo-, ethyl ester", "Benzoic acid, p-iodo-, ethyl ester", "Ethyl 4-iodobenzoate", "Ethyl p-iodobenzoate", "4-(Ethoxycarbonyl)phenyl iodide", "p-(Ethoxycarbonyl)iodobenzene", "4-Iodobenzoic acid ethyl ester", "4-Carbethoxyphenyl iodide", "4-Ethoxycarbonyl-1-iodobenzene", "1-Iodo-4-(ethoxycarbonyl)benzene", "4-Ethoxycarbonyliodobenzene", "1-Ethyl-4-iodobenzoate"], "SMILES": "C(OCC)(=O)C1=CC=C(I)C=C1", "physical_data": {"Molecular Weight": "276.07", "Molecular Formula": "C9H9IO2", "Boiling Point": "126.5 \u00b0C @ Press: 4 Torr", "Melting Point": "267 \u00b0C"}}