{"cas_no": "5194-51-4", "cn_name": "2,4-\u5df2\u4e8c\u70ef", "en_name": ["trans,trans-2,4-Hexadiene", "2,4-Hexadiene, (2E,4E)-", "2,4-Hexadiene, (E,E)-", "(2E,4E)-2,4-Hexadiene", "trans,trans-2,4-Hexadiene", "(2E,4E)-Hexadiene", "(E,E)-2,4-Hexadiene", "trans,trans-1,4-Dimethyl-1,3-butadiene"], "SMILES": "C(C=CC)=CC", "physical_data": {"Molecular Weight": "82.14", "Molecular Formula": "C6H10", "Boiling Point": "82.2 \u00b0C", "Melting Point": "-44.9 \u00b0C"}}