{"cas_no": "51940-44-4", "cn_name": "\u5421\u54cc\u9178", "en_name": ["Pipemidic acid", "Pyrido[2,3-d]pyrimidine-6-carboxylic acid, 8-ethyl-5,8-dihydro-5-oxo-2-(1-piperazinyl)-", "8-Ethyl-5,8-dihydro-5-oxo-2-(1-piperazinyl)pyrido[2,3-d]pyrimidine-6-carboxylic acid", "Pipemidic acid", "Deblaston", "Uromidin", "Palin", "Dolcol", "Uroval", "Pi-Coli", "Urosten", "Pipedac", "Memento 400", "Pipurin", "Tractur", "1489RB", "Pipeacid", "Uropimid", "Pipemid", "Filtrax", "8-Ethyl-2-(piperazin-1-yl)-5-oxo-5,8-dihydropyrido[2,3-d]pyrimidine-6-carboxylic acid", "MeSH ID: D010876"], "SMILES": "C(C)N1C=2C(C(=O)C(C(O)=O)=C1)=CN=C(N2)N3CCNCC3", "physical_data": {"Molecular Weight": "303.32", "Molecular Formula": "C14H17N5O3", "Melting Point": "253-255 \u00b0C"}}