{"cas_no": "51940-64-8", "cn_name": "2,4-\u4e8c\u6c2f-5-\u5627\u5576\u7532\u9178\u4e59\u916f", "en_name": ["5-Pyrimidinecarboxylic acid, 2,4-dichloro-, ethyl ester", "5-Pyrimidinecarboxylic acid, 2,4-dichloro-, ethyl ester", "Ethyl 2,4-dichloro-5-pyrimidinecarboxylate", "2,4-Dichloro-5-carbethoxypyrimidine", "5-Carbethoxy-2,4-dichloropyrimidine", "2,4-Dichloro-5-ethoxycarbonylpyrimidine", "2,4-Dichloro-5-carboethoxypyrimidine", "2,4-Dichloropyrimidine-5-carboxylic acid ethyl ester"], "SMILES": "C(OCC)(=O)C=1C(Cl)=NC(Cl)=NC1", "physical_data": {"Molecular Weight": "221.04", "Molecular Formula": "C7H6Cl2N2O2", "Boiling Point": "148-150 \u00b0C @ Press: 19-20 Torr", "Melting Point": "36-37 \u00b0C"}}