{"cas_no": "5195-29-9", "cn_name": "\u4e8c\u4e59\u4e8c\u919b\u5bf9\u6eb4\u82ef", "en_name": ["4-Bromophenylglyoxal", "Benzeneacetaldehyde, 4-bromo-\u03b1-oxo-", "Glyoxal, (p-bromophenyl)-", "4-Bromo-\u03b1-oxobenzeneacetaldehyde", "4-Bromophenylglyoxal", "(p-Bromophenyl)glyoxal", "NSC 32251", "2-(4-Bromophenyl)-2-oxoacetaldehyde", "(4-Bromophenyl)(oxo)acetaldehyde", "(4-Bromo-phenyl)-oxo-acetaldehyde"], "SMILES": "C(C=O)(=O)C1=CC=C(Br)C=C1", "physical_data": {"Molecular Weight": "213.03", "Molecular Formula": "C8H5BrO2", "Boiling Point": "135-142 \u00b0C @ Press: 17 Torr", "Melting Point": "51-53 \u00b0C"}}