{"cas_no": "5197-66-0", "cn_name": "2-[2-[2-(2-\u6c2f\u4e59\u6c27\u57fa)\u4e59\u6c27\u57fa]\u4e59\u6c27\u57fa]\u4e59\u9187", "en_name": ["2-[2-[2-(2-Chloroethoxy)ethoxy]ethoxy]ethanol", "Ethanol, 2-[2-[2-(2-chloroethoxy)ethoxy]ethoxy]-", "2-[2-[2-(2-Chloroethoxy)ethoxy]ethoxy]ethanol", "11-Chloro-3,6,9-trioxa-1-undecanol", "Triethylene glycol mono(2-chloroethyl)ether", "11-Chloro-3,6,9-trioxaundecanol", "2-(2-(2-(2-Chloroethoxy)ethoxy)ethoxyethanol"], "SMILES": "O(CCOCCCl)CCOCCO", "physical_data": {"Molecular Weight": "212.67", "Molecular Formula": "C8H17ClO4", "Boiling Point": "281.54 \u00b0C"}}