{"cas_no": "5197-28-4", "cn_name": "2-\u6eb4-4-\u785d\u57fa\u82ef\u7532\u919a", "en_name": ["2-Bromo-1-methoxy-4-nitrobenzene", "Benzene, 2-bromo-1-methoxy-4-nitro-", "Anisole, 2-bromo-4-nitro-", "2-Bromo-1-methoxy-4-nitrobenzene", "2-Bromo-4-nitroanisole", "3-Bromo-4-methoxynitrobenzene", "4-Nitro-2-bromoanisole", "1-Bromo-2-methoxy-5-nitrobenzene", "NSC 143545", "2-Methoxy-5-nitrobromobenzene", "3-Bromo-4-methoxy-1-nitrobenzene"], "SMILES": "N(=O)(=O)C1=CC(Br)=C(OC)C=C1", "physical_data": {"Molecular Weight": "232.03", "Molecular Formula": "C7H6BrNO3", "Melting Point": "108 \u00b0C"}}