{"cas_no": "5197-62-6", "cn_name": "2-\u6c2f\u4e59\u6c27\u57fa-2-\u4e59\u6c27\u57fa\u4e8c\u4e59\u9187", "en_name": ["2-[(2-Chloroethoxy)ethoxy]ethanol", "Ethanol, 2-[2-(2-chloroethoxy)ethoxy]-", "2-[2-(2-Chloroethoxy)ethoxy]ethanol", "Triethylene glycol monochloride", "8-Chloro-3,6-dioxa-1-octanol", "Diethylene glycol mono(2-chloroethyl) ether", "Triethylene glycol monochlorohydrin", "8-Chloro-3,6-dioxaoctanol", "2-[(2-Chloroethoxy)ethoxy]ethanol", "NSC 2636", "2-[2-(2-Hydroxyethoxy)ethoxy]ethyl chloride", "2-(2-(2-Chloroethoxy)ethoxy)ethan-1-ol", "2-(2-(2-Chlorethoxy)ethoxy)ethanol", "PEG 168"], "SMILES": "C(COCCO)OCCCl", "physical_data": {"Molecular Weight": "168.62", "Molecular Formula": "C6H13ClO3", "Boiling Point": "113-114 \u00b0C @ Press: 2 Torr"}}