{"cas_no": "5197-95-5", "cn_name": "\u82c4\u57fa\u4e09\u4e59\u57fa\u6eb4\u5316\u94f5", "en_name": ["Benzyltriethylammonium bromide", "Benzenemethanaminium, N,N,N-triethyl-, bromide (1:1)", "Ammonium, benzyltriethyl-, bromide", "Benzenemethanaminium, N,N,N-triethyl-, bromide", "Benzyltriethylammonium bromide", "Triethylbenzylammonium bromide"], "SMILES": "[N+](CC1=CC=CC=C1)(CC)(CC)CC.[Br-]", "physical_data": {"Molecular Weight": "", "Molecular Formula": "C13H22N.Br", "Melting Point": "195 \u00b0C (decomp)"}}