{"cas_no": "51980-54-2", "cn_name": "4-(1-\u5421\u54af\u5549\u57fa)\u82ef\u7532\u919b", "en_name": ["4-(1-Pyrrolidinyl)benzaldehyde", "Benzaldehyde, 4-(1-pyrrolidinyl)-", "Benzaldehyde, p-1-pyrrolidinyl-", "4-(1-Pyrrolidinyl)benzaldehyde", "4-Pyrrolidinobenzaldehyde", "p-Pyrrolidinobenzaldehyde", "1-(4-Formylphenyl)pyrrolidine", "4-(1-Pyrrolidino)benzaldehyde"], "SMILES": "C(=O)C1=CC=C(C=C1)N2CCCC2", "physical_data": {"Molecular Weight": "175.23", "Molecular Formula": "C11H13NO", "Melting Point": "84.5-85.5 \u00b0C"}}