{"cas_no": "5198-80-1", "cn_name": "2-\u6eb4-4-\u919b\u57fa\u567b\u5511", "en_name": ["2-Bromo-4-thiazolecarboxaldehyde", "4-Thiazolecarboxaldehyde, 2-bromo-", "2-Bromo-4-thiazolecarboxaldehyde", "2-Bromothiazole-4-carbaldehyde", "2-Bromo-1,3-thiazole-4-carboxaldehyde", "2-Bromo-1,3-thiazole-4-carbaldehyde", "2-Bromo-4-formylthiazole"], "SMILES": "C(=O)C=1N=C(Br)SC1", "physical_data": {"Molecular Weight": "192.03", "Molecular Formula": "C4H2BrNOS", "Melting Point": "147-148 \u00b0C"}}