{"cas_no": "51997-51-4", "cn_name": "4-\u73af\u6c27\u4e19\u70f7\u6c27\u57fa\u5494\u5511", "en_name": ["4-(2,3-Epoxypropoxy)carbazole", "9H-Carbazole, 4-(2-oxiranylmethoxy)-", "9H-Carbazole, 4-(oxiranylmethoxy)-", "4-(2-Oxiranylmethoxy)-9H-carbazole", "4-(2,3-Epoxypropoxy)carbazole", "4-Oxiranylmethoxy-9H-carbazole", "4-(Glycidyloxy)carbazole"], "SMILES": "O(CC1CO1)C2=C3C=4C(NC3=CC=C2)=CC=CC4", "physical_data": {"Molecular Weight": "239.27", "Molecular Formula": "C15H13NO2", "Melting Point": "121-126 \u00b0C"}}