{"cas_no": "52-01-7", "cn_name": "\u87ba\u5185\u916f", "en_name": ["Spironolactone", "Pregn-4-ene-21-carboxylic acid, 7-(acetylthio)-17-hydroxy-3-oxo-, \u03b3-lactone, (7\u03b1,17\u03b1)-", "17\u03b1-Pregn-4-ene-21-carboxylic acid, 17-hydroxy-7\u03b1-mercapto-3-oxo-, \u03b3-lactone, acetate", "Spiro[17H-cyclopenta[a]phenanthrene-17,2\u2032(5\u2032H)-furan], pregn-4-ene-21-carboxylic acid deriv.", "SC 9420", "3-(3-keto-7\u03b1-Acetylthio-17\u03b2-hydroxy-4-androsten-17\u03b1-yl)propionic acid lactone", "Aldactone", "Aldactone A", "17-Hydroxy-7\u03b1-mercapto-3-oxo-17\u03b1-pregn-4-ene-21-carboxylic acid \u03b3-lactone 7-acetate", "3-(3-Oxo-7\u03b1-acetylthio-17\u03b2-hydroxy-4-androsten-17\u03b1-yl)propionic acid-\u03b3-lactone", "Spironolactone", "Spironolactone A", "3\u2032-(3-Oxo-7\u03b1-acetylthio-17\u03b2-hydroxyandrost-4-en-17\u03b1-yl)-propionic acid lactone", "7\u03b1-Acetylthio-3-oxo-17\u03b1-pregn-4-ene-21,17\u03b2-carbolactone", "Verospiron", "7\u03b1-(Acetylthio)-17-hydroxy-3-oxo-17\u03b1-pregn-4-ene-21-carboxylic acid \u03b3-lactone", "Verospirone", "Spiresis", "Spiridon", "Spirolang", "Spirone", "Uractone", "Spirolactone", "Duraspiron", "Spiretic", "Spiroderm", "Altex", "Urusonin", "Osyrol", "Dira", "Supra-Puren", "Almatol", "Spiro-Tablinen", "Aquareduct", "Aldace", "Sagisal", "Xenalon", "Aldopur", "Laractone", "Sincomen", "Osiren", "Suracton", "Nefurofan", "Lacalmin", "Abbolactone", "Lacdene", "Spirolone", "Diatensec", "Deverol", "Euteberol", "Spiroctan", "NSC 150399", "Quimolactona", "Berlactone", "Novo-Spiroton", "Spironol", "MeSH ID: D013148"], "SMILES": "CC12C3(CCC1C4C(CC2)C5(C)C(CC4SC(C)=O)=CC(=O)CC5)OC(=O)CC3", "physical_data": {"Molecular Weight": "416.57", "Molecular Formula": "C24H32O4S", "Melting Point": "134-135 \u00b0C"}}