{"cas_no": "52-21-1", "cn_name": "\u918b\u9178\u6cfc\u5c3c\u677e\u9f99", "en_name": ["Prednisolone acetate", "Pregna-1,4-diene-3,20-dione, 21-(acetyloxy)-11,17-dihydroxy-, (11\u03b2)-", "Pregna-1,4-diene-3,20-dione, 11\u03b2,17,21-trihydroxy-, 21-acetate", "(11\u03b2)-21-(Acetyloxy)-11,17-dihydroxypregna-1,4-diene-3,20-dione", "Meticortelone acetate", "Nisolone", "Prednisolone 21-acetate", "Supercortyl", "11\u03b2,17\u03b1,21-Trihydroxypregna-1,4-diene-3,20-dione 21-acetate", "Prednisolone acetate", "21-Acetoxy-11\u03b2,17-dihydroxypregna-1,4-diene-3,20-dione", "Prenema", "Cormalone", "Cortipred", "Deltilen", "Prediacortin", "Predicort", "Prednelan N", "Prednidoren", "Inflanefran Forte", "Hydroprednisone acetate", "Pred-Forte", "21-(Acetoxy)-11\u03b2,17\u03b1-dihydroxypregna-1,4-diene-3,20-dione", "Econopred", "Predalone 50", "Ak-Tate", "Meticotelone acetate", "Inflanefran", "Pred Mild", "NSC 10966", "Falcon", "Falcon (steroid)", "EconoPred Plus", "Omnipred", "SPECTRUM_000826"], "SMILES": "CC12C(C3C(C(O)C1)C4(C)C(CC3)=CC(=O)C=C4)CCC2(C(COC(C)=O)=O)O", "physical_data": {"Molecular Weight": "402.48", "Molecular Formula": "C23H30O6", "Melting Point": "238 \u00b0C (decomp)"}}