{"cas_no": "52-24-4", "cn_name": "\u4e09\u4e9a\u4e59\u57fa\u786b\u4ee3\u78f7\u9170\u80fa", "en_name": ["Thiotepa", "Aziridine, 1,1\u2032,1\u2032\u2032-phosphinothioylidynetris-", "Phosphine sulfide, tris(1-aziridinyl)-", "1,1\u2032,1\u2032\u2032-Phosphinothioylidynetris[aziridine]", "NSC 6396", "Tespamin", "Tespamine", "Thiotriethylenephosphoramide", "Triaziridinylphosphine sulfide", "N,N\u2032,N\u2032\u2032-Triethylenethiophosphoramide", "Triethylenethiophosphorotriamide", "Tris(1-aziridinyl)phosphine sulfide", "Triethylenethiophosphoramide", "Tri(ethyleneimino)thiophosphoramide", "Thiophosphoramide, N,N\u2032,N\u2032\u2032-tri-1,2-ethanediyl-", "Phosphorothioic triamide, N,N\u2032,N\u2032\u2032-tri-1,2-ethanediyl-", "Thiophosphamide", "Thiotepa", "Oncotiotepa", "Phosphorothioic acid triethylenetriamide", "Thiotef", "Tiofosfamid", "Thiofozil", "Tiofozil", "Tiofosyl", "TSPA", "Tio-TEF", "Girostan", "N,N\u2032,N\u2032\u2032-Triethylenethiophosphortriamide", "Tris(aziridinyl)phosphine sulfide", "AI 3-24916", "Tri-1-aziridinylphosphine sulfide", "Thioplex", "STEPA", "CBC 806495", "Oncothio-tepa", "TESPA", "Oncotepa", "Thio-Tepa S", "NCI C01649", "SK 6882", "Thio-Tep", "Tris(aziridinyl)phosphine-thioxide", "Tepadina", "MeSH ID: D013852"], "SMILES": "P(=S)(N1CC1)(N2CC2)N3CC3", "physical_data": {"Molecular Weight": "189.22", "Molecular Formula": "C6H12N3PS", "Melting Point": "51.5 \u00b0C"}}