{"cas_no": "52-39-1", "cn_name": "\u919b\u56fa\u916e", "en_name": ["(+)-Aldosterone", "Pregn-4-en-18-al, 11,21-dihydroxy-3,20-dioxo-, (11\u03b2)-", "Aldosterone", "(11\u03b2)-11,21-Dihydroxy-3,20-dioxopregn-4-en-18-al", "Aldocorten", "Aldocortene", "(+)-Aldosterone", "d-Aldosterone", "11\u03b2,21-Dihydroxy-3,20-diketo-4-pregnen-18-al", "11\u03b2,21-Dihydroxy-3,20-diketopregn-4-ene-18-al", "11\u03b2,21-Dihydroxypregn-4-ene-3,18,20-trione", "Electrocortin", "Elektrocortin", "18-Formyl-11\u03b2,21-dihydroxy-4-pregnene-3,20-dione", "18-Oxocorticosterone", "Aldocortin", "Reichstein X", "NSC 73856", "MeSH ID: D000450"], "SMILES": "C(=O)C12C(C3C(C(O)C1)C4(C)C(CC3)=CC(=O)CC4)CCC2C(CO)=O", "physical_data": {"Molecular Weight": "360.44", "Molecular Formula": "C21H28O5", "Melting Point": "166.5 \u00b0C"}}