{"cas_no": "52-53-9", "cn_name": "\u7ef4\u62c9\u5e15\u7c73", "en_name": ["Verapamil", "Benzeneacetonitrile, \u03b1-[3-[[2-(3,4-dimethoxyphenyl)ethyl]methylamino]propyl]-3,4-dimethoxy-\u03b1-(1-methylethyl)-", "Valeronitrile, 5-[(3,4-dimethoxyphenethyl)methylamino]-2-(3,4-dimethoxyphenyl)-2-isopropyl-", "\u03b1-[3-[[2-(3,4-Dimethoxyphenyl)ethyl]methylamino]propyl]-3,4-dimethoxy-\u03b1-(1-methylethyl)benzeneacetonitrile", "D 365", "CP 16533-1", "5-[(3,4-Dimethoxyphenethyl)methylamino]-2-(3,4-dimethoxy phenyl)-2-isopropylvaleronitrile", "Iproveratril", "Verapamil", "NSC 272306NA", "(\u00b1)-Verapamil", "dl-Verapamil", "R,S-Verapamil", "VPL", "Lekoptin", "2-(3,4-Dimethoxyphenyl)-5-[[2-(3,4-dimethoxyphenyl)ethyl](methyl)amino]-2-isopropylpentanenitrile", "2-(3,4-Dimethoxyphenyl)-5-[2-(3,4-dimethoxyphenyl)ethyl-methylamino]-2-propan-2-ylpentanenitrile", "2-(3,4-Dimethoxyphenyl)-5-[[2-(3,4-dimethoxyphenyl)ethyl](methyl)amino]-2-(propan-2-yl)pentanenitrile", "MeSH ID: D014700"], "SMILES": "C(CCCN(CCC1=CC(OC)=C(OC)C=C1)C)(C(C)C)(C#N)C2=CC(OC)=C(OC)C=C2", "physical_data": {"Molecular Weight": "454.60", "Molecular Formula": "C27H38N2O4", "Boiling Point": "243-246 \u00b0C", "Melting Point": "&lt;25 \u00b0C"}}