{"cas_no": "52-52-8", "cn_name": "\u73af\u4eae\u6c28\u9178", "en_name": ["1-Aminocyclopentanecarboxylic acid", "Cyclopentanecarboxylic acid, 1-amino-", "1-Aminocyclopentanecarboxylic acid", "NSC 1026", "1-Aminocyclopentane-1-carboxylic acid", "Cycloleucine", "ACPC", "WR 14997", "Cycloleucin", "1-Amino-1-carboxycyclopentane", "NSC 112194", "NSC 112195", "NSC 112197", "1-Azaniumylcyclopentane-1-carboxylate"], "SMILES": "C(O)(=O)C1(N)CCCC1", "physical_data": {"Molecular Weight": "129.16", "Molecular Formula": "C6H11NO2", "Melting Point": "330 \u00b0C (decomp)"}}