{"cas_no": "52-51-7", "cn_name": "\u5e03\u7f57\u6ce2\u5c14", "en_name": ["Bronopol", "1,3-Propanediol, 2-bromo-2-nitro-", "2-Bromo-2-nitro-1,3-propanediol", "Bronopol", "2-Bromo-2-nitropropan-1,3-diol", "Onyxide 500", "Bronocot", "2-Nitro-2-bromo-1,3-propanediol", "Bronidiol", "Myacide AS", "Nalco 92RU093", "Canguard 409", "BNPK", "N 25", "N 25 (antimicrobial)", "Myacide BT", "Bactrinol 100", "Bioban", "Myacide Pharma BP", "Ultra-Fresh SAB", "NSC 141021", "BNPD", "Pyceze", "BE 6", "BE 6 (bactericide)", "Topcide 2520", "2-Bromo-2-nitropropane-1,3-diol", "Bronotak", "Acticide L 30", "Myacide AS Plus", "Bioban BP Plus", "Protectol BN 98", "Protectol BN 99", "Preventol P 100", "Bactronol", "Busan 1144", "Bactrinashak", "Bioban BP 40", "Bioban BP 10", "Protectol BN", "Bactinash 200"], "SMILES": "C(N(=O)=O)(CO)(CO)Br", "physical_data": {"Molecular Weight": "199.99", "Molecular Formula": "C3H6BrNO4", "Melting Point": "131.5 \u00b0C", "Density": "1.1 g/cm\u00b3"}}