{"cas_no": "52-67-5", "cn_name": "D-\u9752\u9709\u80fa", "en_name": ["(-)-Penicillamine", "D-Valine, 3-mercapto-", "Valine, 3-mercapto-, D-", "3-Mercapto-D-valine", "Cuprimine", "D-3-Mercaptovaline", "D-Penicillamine", "Penicillamine", "Metalcaptase", "Cuprenil", "Trolovol", "D-Mercaptovaline", "D-(-)-Penicillamine", "Penicillamin", "D-Penamine", "Reduced D-penicillamine", "Reduced penicillamine", "DPA", "Kuprenil", "Cupripen", "(S)-3,3-Dimethylcysteine", "(-)-Penicillamine", "2-Amino-3-mercapto-3-methylbutanoic acid", "(2S)-2-Amino-3-methyl-3-sulfanylbutanoic acid", "(S)-Penicillamine", "Perdolat", "Mercaptyl", "Pendramine", "Depen", "Sufirtan", "\u03b2-Thiovaline", "Depamine", "NSC 81549", "Artamin", "Dimethylcysteine", "(2S)-2-Azaniumyl-3-methyl-3-sulfanylbutanoate", "(2S)-2-Amino-3-methyl-3-sulfanylbutanoic acid", "MeSH ID: D010396"], "SMILES": "C(C(C)(C)S)(C(O)=O)N", "physical_data": {"Molecular Weight": "149.21", "Molecular Formula": "C5H11NO2S", "Melting Point": "202-206 \u00b0C"}}