{"cas_no": "52-66-4", "cn_name": "DL-\u9752\u9709\u80fa", "en_name": ["(\u00b1)-Penicillamine", "Valine, 3-mercapto-", "Valine, 3-mercapto-, DL-", "DL-Valine, 3-mercapto-", "3-Mercaptovaline", "dl-DMC", "DL-Penicillamine", "DL-\u03b2-Mercaptovaline", "(\u00b1)-Penicillamine", "DL-3-Mercaptovaline", "\u03b2,\u03b2-Dimethylcysteine", "DMC", "\u03b2-Mercaptovaline", "Cysteine, 3,3-dimethyl-", "\u03b2-Thiovaline", "2-Amino-3-mercapto-3-methylbutyric acid", "NSC 22880", "NSC 44656", "2-Azaniumyl-3-methyl-3-sulfanylbutanoate", "2-Amino-3-methyl-3-sulfanylbutanoic acid", "2-Amino-3-mercapto-3-methylbutanoic acid"], "SMILES": "C(C(C)(C)S)(C(O)=O)N", "physical_data": {"Molecular Weight": "149.21", "Molecular Formula": "C5H11NO2S", "Melting Point": "201 \u00b0C (decomp)"}}