{"cas_no": "52-68-6", "cn_name": "\u654c\u767e\u866b", "en_name": ["Chlorofos", "Phosphonic acid, P-(2,2,2-trichloro-1-hydroxyethyl)-, dimethyl ester", "Phosphonic acid, (2,2,2-trichloro-1-hydroxyethyl)-, dimethyl ester", "ENT 19,763", "Agroforotox", "Chlorophos", "O,O-Dimethyl (1-hydroxy-2,2,2-trichloroethyl)phosphonate", "O,O-Dimethyl-1-oxy-2,2,2-trichloroethyl phosphonate", "Dipterex", "Dylox", "Dyrex", "Dyvon", "Forotox", "Methyl chlorophos", "Metrifonate", "Metriphonate", "Neguvon", "Phoschlor", "Soldep", "Trichlorfon", "Trichlorphon", "Tugon", "Wotexit", "Chlorofos", "Ditrifon", "Foschlor", "DEP", "Foschlor R", "Foschlor R 50", "WEC 50", "O,O-Dimethyl (2,2,2-trichloro-1-hydroxyethyl)phosphonate", "Polfoschlor", "Flibol E", "Dimethyl (2,2,2-trichloro-1-hydroxyethyl)phosphonate", "Chloroxyphos", "Votexit", "Chlorophthalm", "Ritsifon", "Anthon", "Combot", "Fliegenteller", "Trichlorphon FN", "Sotipox", "Chloroftalm", "Dipterex 50", "DETF", "Loisol", "Dimethyl 1-hydroxy-2,2,2-trichloroethylphosphonate", "Mazoten", "Volfartol", "Masoten", "Diptevur", "Ricifon", "DEP (pesticide)", "Hypodermacid", "Dimetox", "Aerol 1 (pesticide)", "Depthon", "Satox 20WSC", "Chlorak", "Danex", "Dioxaphos", "Proxol", "Dipterex SL", "Onefon", "Ditriphon 50", "BAY-L 1359", "(\u00b1)-Trichlorfon", "Dipterex WP 80", "BAY-a 9826", "1-Hydroxy-2,2,2-trichloroethylphosphonate-O,O-dimethyl ester", "Dipterex 500", "NSC 8923", "Promem", "O,O-Dimethyl O-(1-hydroxy-2,2,2-trichloroethyl) phosphonate", "Dibaichong", "Bayer Advanced 24hr Grub control", "Vulcano 420", "MeSH ID: D014236"], "SMILES": "C(P(OC)(OC)=O)(C(Cl)(Cl)Cl)O", "physical_data": {"Molecular Weight": "257.44", "Molecular Formula": "C4H8Cl3O4P", "Boiling Point": "100 \u00b0C @ Press: 1 Torr", "Melting Point": "83-84 \u00b0C", "Density": "1.73 g/cm\u00b3 @ Temp: 20 \u00b0C"}}