{"cas_no": "52-62-0", "cn_name": "\u9152\u77f3\u9178\u55b7\u6258\u94f5", "en_name": ["Pentolinium bitartrate", "Pyrrolidinium, 1,1\u2032-(1,5-pentanediyl)bis[1-methyl-, (2R,3R)-2,3-dihydroxybutanedioate (1:2)", "Pyrrolidinium, 1,1\u2032-pentamethylenebis[1-methyl-, tartrate (1:2)", "1,1\u2032-Pentamethylenebis[1-methylpyrrolidinium hydrogen tartrate]", "Pyrrolidinium, 1,1\u2032-(1,5-pentanediyl)bis[1-methyl-, salt with [R-(R*,R*)]-2,3-dihydroxybutanedioic acid (1:2)", "Pyrrolidinium, 1,1\u2032-(1,5-pentanediyl)bis[1-methyl-, salt with (2R,3R)-2,3-dihydroxybutanedioic acid (1:2)", "Tartaric acid, ion(1-), 1,1\u2032-pentamethylenebis[1-methylpyrrolidinium] (2:1)", "Butanedioic acid, 2,3-dihydroxy-[R-(R*,R*)]-, ion(1-), 1,1\u2032-(1,5-pentanediyl)bis[1-methylpyrrolidinium] (2:1)", "Butanedioic acid, 2,3-dihydroxy- (2R,3R)-, ion(1-), 1,1\u2032-(1,5-pentanediyl)bis[1-methylpyrrolidinium] (2:1)", "Ansolysen", "Ansolysen bitartrate", "Ansolysen tartrate", "1,1\u2032-Pentamethylenebis(1-methylpyrrolidinium tartrate)", "Pentapyrrolidium bitartrate", "Pentilium", "Pentolinium bitartrate", "Pentolinium tartrate", "Recuryl", "Tensilest", "Pendine", "Pentolonium tartrate", "Pentapyrrolidinium bitartrate", "M and B 2050A", "MeSH ID: D010425"], "SMILES": "C(CCCC[N+]1(C)CCCC1)[N+]2(C)CCCC2.C(C(C(O)=O)O)(C([O-])=O)O", "physical_data": {"Molecular Weight": "", "Molecular Formula": "C15H32N2.2C4H5O6", "Melting Point": "203 \u00b0C (decomp)"}}