{"cas_no": "52-78-8", "cn_name": "\u4e59\u8bfa\u916e", "en_name": ["Norethandrolone", "19-Norpregn-4-en-3-one, 17-hydroxy-, (17\u03b1)-", "19-Nor-17\u03b1-pregn-4-en-3-one, 17-hydroxy-", "19-Norandrost-4-en-3-one, 17\u03b1-ethyl-17-hydroxy-", "(17\u03b1)-17-Hydroxy-19-norpregn-4-en-3-one", "17\u03b1-Ethyl-17\u03b2-hydroxyestr-4-en-3-one", "17\u03b1-Ethyl-17-hydroxy-13\u03b2-methylgon-4-en-3-one", "17-Ethyl-19-nortestosterone", "17\u03b1-Ethylnortestosterone", "17\u03b1-Ethyl-19-nortestosterone", "Nilevar", "Norethandrolone", "19-Nortestosterone, 17-ethyl-", "17\u03b1-Ethyl-17-hydroxy-4-norandrosten-3-one", "17\u03b1-Ethyl-17-hydroxy-19-nor-4-androsten-3-one", "Nileva", "17\u03b1-Ethyl-17-hydroxy-4-estren-3-one", "17\u03b2-Hydroxy-17\u03b1-ethylestr-4-en-3-one", "17\u03b1-Ethyl-17\u03b2-hydroxy-19-norandrost-4-en-3-one", "CB 8022", "17-ENT", "Pronabol", "SC 5914", "U 6817", "Solevar", "NSC 70581", "NSC 9893", "MeSH ID: D009639"], "SMILES": "CC12C(C3C(CC1)C4C(CC3)=CC(=O)CC4)CCC2(CC)O", "physical_data": {"Molecular Weight": "302.45", "Molecular Formula": "C20H30O2", "Melting Point": "140.5 \u00b0C"}}