{"cas_no": "52-76-6", "cn_name": "\u5229\u5948\u5b55\u9187", "en_name": ["Lynestrenol", "19-Norpregn-4-en-20-yn-17-ol, (17\u03b1)-", "19-Nor-17\u03b1-pregn-4-en-20-yn-17-ol", "(17\u03b1)-19-Norpregn-4-en-20-yn-17-ol", "3-Desoxy-17\u03b1-ethinyl-19-nortestosterone", "17\u03b1-Ethinyl-17\u03b2-hydroxy-\u03944-estrene", "17\u03b1-Ethynyl-19-nor-4-androsten-17\u03b2-ol", "Linestrenol", "Lynestrenol", "Orgametril", "17\u03b1-Ethynylestrenol", "\u03944-17\u03b1-Ethinylestren-17\u03b2-ol", "Ethynylestrenol", "17\u03b1-Ethynylestr-4-en-17\u03b2-ol", "17-Ethynylestr-4-en-17\u03b2-ol", "17\u03b1-Ethynyl-17\u03b2-hydroxyestr-4-ene", "3-Desoxynorlutin", "Orgametil", "Exlutona", "Exluton", "Orgametrol", "Org 485-50", "17\u03b1-Ethynyl-17\u03b2-hydroxy-\u03944-estrene", "Ovoresta M", "Physiostat", "Ovamezzo", "Fysionorm", "Exlutena", "NSC 37725", "Ovoresta", "NSC 73879", "MeSH ID: D008234"], "SMILES": "CC12C(C3C(CC1)C4C(CC3)=CCCC4)CCC2(C#C)O", "physical_data": {"Molecular Weight": "284.44", "Molecular Formula": "C20H28O", "Melting Point": "159 \u00b0C"}}