{"cas_no": "52-88-0", "cn_name": "\u7532\u785d\u963f\u6258\u54c1", "en_name": ["Atropine methyl nitrate", "8-Azoniabicyclo[3.2.1]octane, 3-(3-hydroxy-1-oxo-2-phenylpropoxy)-8,8-dimethyl-, (3-endo)-, nitrate (1:1)", "8-Methylatropinium nitrate", "8-Azoniabicyclo[3.2.1]octane, 3-(3-hydroxy-1-oxo-2-phenylpropoxy)-8,8-dimethyl-, endo-(\u00b1)-, nitrate (salt)", "1\u03b1H,5\u03b1H-Tropanium, 3\u03b1-hydroxy-8-methyl-, nitrate, (\u00b1)-tropate (ester)", "8-Azoniabicyclo[3.2.1]octane, 3-(3-hydroxy-1-oxo-2-phenylpropoxy)-8,8-dimethyl-, (3-endo)-, nitrate (salt)", "Atropine methonitrate", "Atropine methyl nitrate", "Ekomine", "Eumydrin", "Eumydrine", "Harvatrate", "dl-Hyoscyamine methylnitrate", "Metanite", "Metropine", "Methylatropine nitrate", "N-Methylatropine nitrate", "Eumidrina", "Europen", "Pylostropin", "N-Methylatropinium nitrate", "8-Azoniabicyclo[3.2.1]octane, 3-(3-hydroxy-1-oxo-2-phenylpropoxy)-8,8-dimethyl-, endo-, nitrate (salt)"], "SMILES": "N(=O)(=O)[O-].C[N+]1(C)C2CC(OC(C(CO)C3=CC=CC=C3)=O)CC1CC2", "physical_data": {"Molecular Weight": "", "Molecular Formula": "C18H26NO3.NO3", "Melting Point": "163 \u00b0C"}}