{"cas_no": "52-86-8", "cn_name": "\u6c1f\u54cc\u5576\u9187", "en_name": ["Haloperidol", "1-Butanone, 4-[4-(4-chlorophenyl)-4-hydroxy-1-piperidinyl]-1-(4-fluorophenyl)-", "Butyrophenone, 4-[4-(p-chlorophenyl)-4-hydroxypiperidino]-4\u2032-fluoro-", "4-(4-(4-Chlorophenyl)-4-hydroxy-1-piperidinyl)-1-(4-fluorophenyl)-1-butanone", "R 1625", "4-[4-(p-Chlorophenyl)-4-hydroxypiperidino]-4\u2032-fluorobutyrophenone", "\u03b3-[4-(p-Chlorphenyl)-4-hydroxypiperidino]-p-fluorbutyrophenone", "1-(3-p-Fluorobenzoylpropyl)-4-p-chlorophenyl-4-hydroxypiperidine", "Haldol", "Haloperidol", "4-(4-Hydroxy-4\u2032-chloro-4-phenylpiperidino)-4\u2032-fluorobutyrophenone", "Serenase", "Serenace", "Aloperidin", "Serenelfi", "Haloperin", "Neurodol", "Eukystol", "Dozic", "Peluces", "Einalon S", "Keselan", "Sigaperidol", "Brotopon", "Halosten", "Linton", "Bioperidolo", "McN-JR 1625", "NSC 170973", "NSC 615296", "MeSH ID: D006220"], "SMILES": "OC1(C2=CC=C(Cl)C=C2)CCN(CCCC(=O)C3=CC=C(F)C=C3)CC1", "physical_data": {"Molecular Weight": "375.86", "Molecular Formula": "C21H23ClFNO2", "Melting Point": "151.5 \u00b0C"}}