{"cas_no": "52-85-7", "cn_name": "\u4f10\u706d\u78f7", "en_name": ["Famphur", "Phosphorothioic acid, O-[4-[(dimethylamino)sulfonyl]phenyl] O,O-dimethyl ester", "Phosphorothioic acid, O,O-dimethyl ester, O-ester with p-hydroxy-N,N-dimethylbenzenesulfonamide", "Phosphorothioic acid, O-[p-(dimethylsulfamoyl)phenyl] O,O-dimethyl ester", "ENT 25,644", "CL 38023", "O,O-Dimethyl O-[p-(dimethylsulfamoyl)phenyl] phosphorothioate", "O,O-Dimethyl phosphorothioate O-ester with p-hydroxy-N,N-dimethylbenzenesulfonamide", "Famophos", "Famphur", "Warbex", "Famfur", "Benzenesulfonamide, p-hydroxy-N,N-dimethyl-, O-ester with O,O-dimethyl phosphorothioate", "Famphos", "Dovip"], "SMILES": "P(OC1=CC=C(S(N(C)C)(=O)=O)C=C1)(OC)(OC)=S", "physical_data": {"Molecular Weight": "325.34", "Molecular Formula": "C10H16NO5PS2", "Melting Point": "52.5-53.5 \u00b0C"}}