{"cas_no": "52-89-1", "cn_name": "L-\u534a\u80f1\u6c28\u9178\u76d0\u9178\u76d0(\u65e0\u6c34\u7269)", "en_name": ["L-(+)-Cysteine hydrochloride", "L-Cysteine, hydrochloride (1:1)", "Cysteine, hydrochloride, L-", "L-Cysteine, hydrochloride", "Cysteine chlorohydrate", "Cysteine hydrochloride", "Cystein chloride", "L-(+)-Cysteine hydrochloride", "(R)-Cysteine hydrochloride", "WR 348", "(R)-1-Carboxy-2-mercaptoethanaminium chloride", "CSKE 200", "(2R)-2-Amino-3-sulfanylpropanoic acid hydrochloride"], "SMILES": "C(C(O)=O)(CS)N.Cl", "physical_data": {"Molecular Weight": "", "Molecular Formula": "C3H7NO2S.ClH", "Melting Point": "170-178 \u00b0C (decomp)"}}