{"cas_no": "52-90-4", "cn_name": "L-\u534a\u80f1\u6c28\u9178", "en_name": ["L-(+)-Cysteine", "L-Cysteine", "Cysteine, L-", "Half-cystine", "\u03b2-Mercaptoalanine", "Thioserine", "L-(+)-Cysteine", "Cysteine", "Propanoic acid, 2-amino-3-mercapto-, (R)-", "Cystein", "L-Alanine, 3-mercapto-", "NSC 8746", "(R)-2-Amino-3-mercaptopropanoic acid", "(R)-Cysteine", "2-Amino-3-mercaptopropionic acid", "L-Cys", "E 920", "(R)-2-Amino-3-mercaptopropanoic acid", "(R)-2-Amino-3-sulfanylpropanoic acid", "(2R)-2-Amino-3-sulfanylpropanoic acid", "2-Amino-3-mercaptopropanoic acid", "11: PN: WO2021055880 SEQID: 12 claimed protein", "518: PN: WO2022056313 SEQID: 534 claimed protein", "1: PN: WO2022258499 SEQID: 1 claimed sequence", "MeSH ID: D003545"], "SMILES": "C(C(O)=O)(CS)N", "physical_data": {"Molecular Weight": "121.16", "Molecular Formula": "C3H7NO2S", "Melting Point": "240 \u00b0C (decomp)", "Density": "1.6666 g/cm\u00b3 @ Temp: 45.00 \u00b0C"}}