{"cas_no": "520-18-3", "cn_name": "\u5c71\u5948\u915a", "en_name": ["Kaempferol", "4H-1-Benzopyran-4-one, 3,5,7-trihydroxy-2-(4-hydroxyphenyl)-", "Flavone, 3,4\u2032,5,7-tetrahydroxy-", "3,5,7-Trihydroxy-2-(4-hydroxyphenyl)-4H-1-benzopyran-4-one", "C.I. 75640", "Indigo Yellow", "Kaempferol", "Kempferol", "Rhamnolutin", "Robigenin", "Swartziol", "3,5,7,4\u2032-Tetrahydroxyflavone", "Trifolitin", "5,7,4\u2032-Trihydroxyflavonol", "Kaempherol", "Kaemferol", "3,4\u2032,5,7-Tetrahydroxyflavone", "Nimbecetin", "Populnetin", "Rhamnolutein", "Pelargidenolon", "Kampcetin", "Pelargidenon", "NSC 407289", "NSC 656277", "3\u2032-Deoxyquercetin", "CSU-2056", "CSU 2056", "3,5,7-Trihydroxy-2-(4-hydroxyphenyl)chromen-4-one", "ST 030560", "TCM 5280863"], "SMILES": "O=C1C=2C(OC(=C1O)C3=CC=C(O)C=C3)=CC(O)=CC2O", "physical_data": {"Molecular Weight": "286.24", "Molecular Formula": "C15H10O6", "Melting Point": "277 \u00b0C"}}