{"cas_no": "520-28-5", "cn_name": "\u67da\u6728\u67ef\u56e0", "en_name": ["Tectochrysin", "4H-1-Benzopyran-4-one, 5-hydroxy-7-methoxy-2-phenyl-", "Flavone, 5-hydroxy-7-methoxy-", "5-Hydroxy-7-methoxy-2-phenyl-4H-1-benzopyran-4-one", "5-Hydroxy-7-methoxyflavone", "Tectochrysin", "2-Phenyl-5-hydroxy-7-methoxychromone", "7-Methoxy-5-hydroxyflavone", "Techtochrysine", "Techtochrysin", "NSC 80687", "7-O-Methylchrysin", "5-Hydroxy-7-methoxy-2-phenyl-4H-chromen-4-one", "7-O-Methoxy Chrysin", "5-OH-7-methoxyflavone"], "SMILES": "O=C1C=2C(OC(=C1)C3=CC=CC=C3)=CC(OC)=CC2O", "physical_data": {"Molecular Weight": "268.26", "Molecular Formula": "C16H12O4", "Melting Point": "165 \u00b0C"}}