{"cas_no": "520-26-3", "cn_name": "\u6a59\u76ae\u7519", "en_name": ["Hesperidin", "4H-1-Benzopyran-4-one, 7-[[6-O-(6-deoxy-\u03b1-L-mannopyranosyl)-\u03b2-D-glucopyranosyl]oxy]-2,3-dihydro-5-hydroxy-2-(3-hydroxy-4-methoxyphenyl)-, (2S)-", "Hesperidin", "4H-1-Benzopyran-4-one, 7-[[6-O-(6-deoxy-\u03b1-L-mannopyranosyl)-\u03b2-D-glucopyranosyl]oxy]-2,3-dihydro-5-hydroxy-2-(3-hydroxy-4-methoxyphenyl)-, (S)-", "Flavanone, 3\u2032,5,7-trihydroxy-4\u2032-methoxy-, 7-(6-O-\u03b1-L-rhamnosyl-D-glucoside)", "(2S)-7-[[6-O-(6-Deoxy-\u03b1-L-mannopyranosyl)-\u03b2-D-glucopyranosyl]oxy]-2,3-dihydro-5-hydroxy-2-(3-hydroxy-4-methoxyphenyl)-4H-1-benzopyran-4-one", "Cirantin", "Hesperidoside", "Hesperetin 7-rutinoside", "Hesperidine", "Hesperetin 7-rhamnoglucoside", "NSC 44184", "(2S)-Hesperidin", "Atripliside B", "Hesperetin 7-O-rutinoside", "Hesperitin 7-O-rutinoside", "NP-000088", "MeSH ID: D006569"], "SMILES": "O=C1C=2C(OC(C1)C3=CC(O)=C(OC)C=C3)=CC(OC4OC(COC5C(O)C(O)C(O)C(C)O5)C(O)C(O)C4O)=CC2O", "physical_data": {"Molecular Weight": "610.56", "Molecular Formula": "C28H34O15", "Melting Point": "262 \u00b0C"}}