{"cas_no": "520-36-5", "cn_name": "\u82b9\u83dc\u7d20", "en_name": ["Apigenin", "4H-1-Benzopyran-4-one, 5,7-dihydroxy-2-(4-hydroxyphenyl)-", "Flavone, 4\u2032,5,7-trihydroxy-", "5,7-Dihydroxy-2-(4-hydroxyphenyl)-4H-1-benzopyran-4-one", "Apigenin", "Chamomile", "C.I. Natural Yellow 1", "4\u2032,5,7-Trihydroxyflavone", "Apigenine", "Apigenol", "5,7,4\u2032-Trihydroxyflavone", "LY 080400", "UCCF 031", "Pelargidenon 1449", "Apegenin", "Versulin", "NSC 83244", "5,7-Dihydroxy-2-(4-hydroxyphenyl)chromen-4-one", "5,7-Dihydroxy-2-p-hydroxyphenyl-4-chromenone", "ST 056301", "MeSH ID: D047310"], "SMILES": "O=C1C=2C(OC(=C1)C3=CC=C(O)C=C3)=CC(O)=CC2O", "physical_data": {"Molecular Weight": "270.24", "Molecular Formula": "C15H10O5", "Melting Point": "347.5 \u00b0C"}}