{"cas_no": "520-11-6", "cn_name": "6-\u7532\u6c27\u57fa\u85e4\u9ec4\u83cc\u7d20", "en_name": ["Nepetin", "4H-1-Benzopyran-4-one, 2-(3,4-dihydroxyphenyl)-5,7-dihydroxy-6-methoxy-", "Flavone, 3\u2032,4\u2032,5,7-tetrahydroxy-6-methoxy-", "2-(3,4-Dihydroxyphenyl)-5,7-dihydroxy-6-methoxy-4H-1-benzopyran-4-one", "Eupafolin", "Nepetin", "6-Methoxyluteolin", "3\u2032,4\u2032,5,7-Tetrahydroxy-6-methoxyflavone", "NSC 122416", "2-(3,4-Dihydroxyphenyl)-5,7-dihydroxy-6-methoxychromen-4-one", "2-(3,4-Dihydroxyphenyl)-5,7-dihydroxy-6-methoxy-4H-chromen-4-one"], "SMILES": "OC1=C2C(OC(=CC2=O)C3=CC(O)=C(O)C=C3)=CC(O)=C1OC", "physical_data": {"Molecular Weight": "316.26", "Molecular Formula": "C16H12O7", "Melting Point": "262-264 \u00b0C"}}