{"cas_no": "520-85-4", "cn_name": "\u7532\u5b55\u916e", "en_name": ["Medroxyprogesterone", "Pregn-4-ene-3,20-dione, 17-hydroxy-6-methyl-, (6\u03b1)-", "Pregn-4-ene-3,20-dione, 17-hydroxy-6\u03b1-methyl-", "Progesterone, 17-hydroxy-6\u03b1-methyl-", "(6\u03b1)-17-Hydroxy-6-methylpregn-4-ene-3,20-dione", "17-Hydroxy-6\u03b1-methylpregn-4-ene-3,20-dione", "17\u03b1-Hydroxy-6\u03b1-methylprogesterone", "Medroxyprogesteron", "Medroxyprogesterone", "6\u03b1-Methyl-17\u03b1-hydroxyprogesterone", "U 8840", "6\u03b1-Methyl-4-pregnen-17\u03b1-ol-3,20-dione", "17-Hydroxy-6\u03b1-methylprogesterone", "6\u03b1-Methyl-17-hydroxyprogesterone", "6\u03b1-Methyl-17\u03b1-hydroxypregn-4-ene-3,20-dione", "NSC 27408", "6\u03b1-Methyl-17R-hydroxyprogesterone", "Medoxyprogesterone", "MeSH ID: D008525"], "SMILES": "CC12C(C3C(C4(C)C(C(C)C3)=CC(=O)CC4)CC1)CCC2(C(C)=O)O", "physical_data": {"Molecular Weight": "344.49", "Molecular Formula": "C22H32O3", "Melting Point": "220-223.5 \u00b0C"}}