{"cas_no": "520-27-4", "cn_name": "\u5730\u5965\u53f8\u660e", "en_name": ["Diosmin", "4H-1-Benzopyran-4-one, 7-[[6-O-(6-deoxy-\u03b1-L-mannopyranosyl)-\u03b2-D-glucopyranosyl]oxy]-5-hydroxy-2-(3-hydroxy-4-methoxyphenyl)-", "Diosmin", "7-[[6-O-(6-Deoxy-\u03b1-L-mannopyranosyl)-\u03b2-D-glucopyranosyl]oxy]-5-hydroxy-2-(3-hydroxy-4-methoxyphenyl)-4H-1-benzopyran-4-one", "Diosmetin 7-\u03b2-rutinoside", "3\u2032,5,7-Trihydroxy-4\u2032-methoxyflavone 7-O-rutinoside", "Diosmine", "Diosmetin 7-rutinoside", "Venosmine", "Diosmetin 7-O-rhamnosyl(1\u21926)-glucoside", "Insuven", "Diosmil", "Diovenor", "Ven-Detrex", "Litosmil", "Buchu resin", "Hemerven", "Flebosten", "Barosmin", "Varinon", "Diosven", "Flebosmil", "Tovene", "Dioven", "Venex 500", "3\u2032,5-Dihydroxyl-4\u2032-methoxylflavanone-7-O-\u03b1-L-rhamnosyl (1\u21926)-\u03b2-D-glucopyranoside", "Diosmetin 7-O-\u03b1-L-rhamnopyranosyl-(1\u21926)-\u03b2-D-glucopyranoside", "Diosmetin 7-O-rutinoside", "Phlebodia", "Flebodia", "Vasoket", "MeSH ID: D004145"], "SMILES": "O=C1C=2C(OC(=C1)C3=CC(O)=C(OC)C=C3)=CC(OC4OC(COC5C(O)C(O)C(O)C(C)O5)C(O)C(O)C4O)=CC2O", "physical_data": {"Molecular Weight": "608.54", "Molecular Formula": "C28H32O15", "Melting Point": "274 \u00b0C (decomp)"}}