{"cas_no": "520-31-0", "cn_name": "TRICETIN", "en_name": ["Tricetin", "4H-1-Benzopyran-4-one, 5,7-dihydroxy-2-(3,4,5-trihydroxyphenyl)-", "Flavone, 3\u2032,4\u2032,5,5\u2032,7-pentahydroxy-", "5,7-Dihydroxy-2-(3,4,5-trihydroxyphenyl)-4H-1-benzopyran-4-one", "5,7,3\u2032,4\u2032,5\u2032-Pentahydroxyflavone", "Tricetin"], "SMILES": "O=C1C=2C(OC(=C1)C3=CC(O)=C(O)C(O)=C3)=CC(O)=CC2O", "physical_data": {"Molecular Weight": "302.24", "Molecular Formula": "C15H10O7", "Melting Point": "&gt;330 \u00b0C (decomp)"}}