{"cas_no": "520-33-2", "cn_name": "\u6a59\u76ae\u7d20", "en_name": ["Hesperetin", "4H-1-Benzopyran-4-one, 2,3-dihydro-5,7-dihydroxy-2-(3-hydroxy-4-methoxyphenyl)-, (2S)-", "Flavanone, 3\u2032,5,7-trihydroxy-4\u2032-methoxy-", "4H-1-Benzopyran-4-one, 2,3-dihydro-5,7-dihydroxy-2-(3-hydroxy-4-methoxyphenyl)-, (S)-", "Hesperetin", "(2S)-2,3-Dihydro-5,7-dihydroxy-2-(3-hydroxy-4-methoxyphenyl)-4H-1-benzopyran-4-one", "5,7,3\u2032-Trihydroxy-4\u2032-methoxyflavanone", "3\u2032,5,7-Trihydroxy-4\u2032-methoxyflavanone", "(S)-2,3-Dihydro-5,7-dihydroxy-2-(3-hydroxy-4-methoxyphenyl)-4H-1-benzopyran-4-one", "Hesperitin", "Eriodictyol 4\u2032-monomethyl ether", "NSC 57654", "(-)-Hesperetin", "(2S)-5,7-Dihydroxy-2-(3-hydroxy-4-methoxyphenyl)-2,3-dihydrochromen-4-one", "TCI-CA 05"], "SMILES": "O=C1C=2C(OC(C1)C3=CC(O)=C(OC)C=C3)=CC(O)=CC2O", "physical_data": {"Molecular Weight": "302.28", "Molecular Formula": "C16H14O6", "Melting Point": "227.5 \u00b0C"}}