{"cas_no": "520-32-1", "cn_name": "\u82dc\u84ff\u7d20", "en_name": ["Tricin", "4H-1-Benzopyran-4-one, 5,7-dihydroxy-2-(4-hydroxy-3,5-dimethoxyphenyl)-", "Flavone, 4\u2032,5,7-trihydroxy-3\u2032,5\u2032-dimethoxy-", "Tricin", "5,7-Dihydroxy-2-(4-hydroxy-3,5-dimethoxyphenyl)-4H-1-benzopyran-4-one", "4\u2032,5,7-Trihydroxy-3\u2032,5\u2032-dimethoxyflavone", "5,7,4\u2032-Trihydroxy-3\u2032,5\u2032-dimethoxyflavone", "NSC 294579", "3\u2032,5\u2032-O-Dimethyltricetin"], "SMILES": "O=C1C=2C(OC(=C1)C3=CC(OC)=C(O)C(OC)=C3)=CC(O)=CC2O", "physical_data": {"Molecular Weight": "330.29", "Molecular Formula": "C17H14O7", "Melting Point": "288 \u00b0C"}}