{"cas_no": "520-45-6", "cn_name": "\u8131\u6c22\u4e59\u9178", "en_name": ["3-Acetyl-6-methyl-2H-pyran-2,4(3H)-dione", "2H-Pyran-2,4(3H)-dione, 3-acetyl-6-methyl-", "3-Acetyl-6-methyl-2H-pyran-2,4(3H)-dione", "Acetic acid, dehydro-", "Dehydroacetic acid", "DHAA", "DHS", "4-Hexenoic acid, 2-acetyl-5-hydroxy-3-oxo-, \u03b4-lactone", "3-Acetyl-6-methyldihydropyrandione-2,4", "Dehydracetic acid", "3-Acetyl-6-methylpyran-2,4(3H)-dione", "3-Acetyl-6-methyl-1-oxacyclohex-5-ene-2,4-dione", "Biocide 470F", "NSC 8770", "Geogard 111A", "3-Acetyl-6-methyl-3,4-dihydro-2H-pyran-2,4-dione", "3-Acetyl-6-methyl-pyran-2,4-dione", "3-Acetyl-6-methylpyran-2,4-dione", "Unisept DHA"], "SMILES": "C(C)(=O)C1C(=O)C=C(C)OC1=O", "physical_data": {"Molecular Weight": "168.15", "Molecular Formula": "C8H8O4", "Boiling Point": "269.9 \u00b0C @ Press: 760 Torr", "Melting Point": "109 \u00b0C"}}