{"cas_no": "520-34-3", "cn_name": "\u9999\u53f6\u6728\u7d20", "en_name": ["Diosmetin", "4H-1-Benzopyran-4-one, 5,7-dihydroxy-2-(3-hydroxy-4-methoxyphenyl)-", "Diosmetin", "Flavone, 3\u2032,5,7-trihydroxy-4\u2032-methoxy-", "5,7-Dihydroxy-2-(3-hydroxy-4-methoxyphenyl)-4H-1-benzopyran-4-one", "Diosmetol", "Diosmetine", "3\u2032,5,7-Trihydroxy-4\u2032-methoxyflavone", "Luteolin 4\u2032-methyl ether", "5,7,3\u2032-Trihydroxy-4\u2032-methoxyflavone", "4\u2032-Methylluteolin", "Pillon"], "SMILES": "O=C1C=2C(OC(=C1)C3=CC(O)=C(OC)C=C3)=CC(O)=CC2O", "physical_data": {"Molecular Weight": "300.26", "Molecular Formula": "C16H12O6", "Melting Point": "253.5 \u00b0C"}}