{"cas_no": "520-12-7", "cn_name": "\u756a\u8304\u7ea2\u7d20", "en_name": ["Pectolinarigenin", "4H-1-Benzopyran-4-one, 5,7-dihydroxy-6-methoxy-2-(4-methoxyphenyl)-", "Flavone, 5,7-dihydroxy-4\u2032,6-dimethoxy-", "Pectolinarigenin", "5,7-Dihydroxy-6-methoxy-2-(4-methoxyphenyl)-4H-1-benzopyran-4-one", "5,7-Dihydroxy-6,4\u2032-dimethoxyflavone", "5,7-Dihydroxy-4\u2032,6-dimethoxyflavone", "Pectolinaringenin", "6-Methoxy-4\u2032-O-methylapigenin", "Scutellarein 6,4\u2032-dimethyl ether", "4\u2032-O-Methylcapillarisin", "6-Methoxyacacetin", "6-Methoxyapigenin 4\u2032-methyl ether", "Hortensin", "Pectolinariogenin", "Pectolarigenin", "Pectolinargenin", "NSC 106403", "Scutellarein 4\u2032,6-dimethyl ether", "Capillarisin 4\u2032-methyl ether", "6,4\u2032-Di-O-methylscutellarein", "Pectolinangenin"], "SMILES": "OC1=C2C(OC(=CC2=O)C3=CC=C(OC)C=C3)=CC(O)=C1OC", "physical_data": {"Molecular Weight": "314.29", "Molecular Formula": "C17H14O6", "Melting Point": "221 \u00b0C"}}