{"cas_no": "520-03-6", "cn_name": "N-\u82ef\u57fa\u90bb\u82ef\u4e8c\u7532\u9170\u4e9a\u80fa", "en_name": ["N-Phenylphthalimide", "1H-Isoindole-1,3(2H)-dione, 2-phenyl-", "Phthalimide, N-phenyl-", "2-Phenyl-1H-isoindole-1,3(2H)-dione", "N-Phenylphthalimide", "Phthalanil", "2-Phenyl-1H-isoindole-1,3(2H)dione", "2-Phenyl-1,3-isoindolinedione", "NSC 2769", "2-Phenyl-isoindole-1,3-dione", "2-Phenyl-2,3-dihydro-1H-isoindole-1,3-dione", "2-Phenylisoindole-1,3-dione"], "SMILES": "O=C1N(C(=O)C=2C1=CC=CC2)C3=CC=CC=C3", "physical_data": {"Molecular Weight": "223.23", "Molecular Formula": "C14H9NO2", "Melting Point": "210 \u00b0C"}}