{"cas_no": "52009-64-0", "cn_name": "3,8-\u4e8c\u6c28\u57fa-6-\u82ef\u57fa\u83f2\u5576", "en_name": ["3,8-Diamino-6-phenylphenanthridine", "3,8-Phenanthridinediamine, 6-phenyl-", "6-Phenyl-3,8-phenanthridinediamine", "3,8-Diamino-6-phenylphenanthridine"], "SMILES": "NC1=CC=2C(=C3C(=NC2C4=CC=CC=C4)C=C(N)C=C3)C=C1", "physical_data": {"Molecular Weight": "285.34", "Molecular Formula": "C19H15N3", "Melting Point": "192-194 \u00b0C (decomp)"}}