{"cas_no": "52010-22-7", "cn_name": "4-\u6c2f-3H-1-\u5f02\u82ef\u5e76\u544b\u5583\u916e", "en_name": ["4-Chlorophthalide", "1(3H)-Isobenzofuranone, 4-chloro-", "Phthalide, 4-chloro-", "4-Chloro-1(3H)-isobenzofuranone", "4-Chlorophthalide", "4-Chloroisobenzofuran-1(3H)-one"], "SMILES": "ClC1=C2C(C(=O)OC2)=CC=C1", "physical_data": {"Molecular Weight": "168.58", "Molecular Formula": "C8H5ClO2", "Melting Point": "86-87 \u00b0C"}}