{"cas_no": "52010-98-7", "cn_name": "3-(\u7f9f\u7532\u57fa)\u82ef\u7532\u919b", "en_name": ["3-(Hydroxymethyl)benzaldehyde", "Benzaldehyde, 3-(hydroxymethyl)-", "m-Tolualdehyde, \u03b1-hydroxy-", "3-(Hydroxymethyl)benzaldehyde", "m-(Hydroxymethyl)benzaldehyde"], "SMILES": "C(O)C1=CC(C=O)=CC=C1", "physical_data": {"Molecular Weight": "136.15", "Molecular Formula": "C8H8O2", "Melting Point": "119.5 \u00b0C"}}