{"cas_no": "52022-77-2", "cn_name": "3-\u785d\u57fa\u82ef\u4e59\u9187", "en_name": ["2-(3-Nitrophenyl)ethanol", "Benzeneethanol, 3-nitro-", "Phenethyl alcohol, m-nitro-", "3-Nitrobenzeneethanol", "\u03b2-(m-Nitrophenyl)ethanol", "2-(3-Nitrophenyl)ethanol", "m-Nitrophenethyl alcohol", "3-Nitrophenylethyl alcohol", "3-Nitrophenethyl alcohol", "2-(3-Nitrophenyl)ethan-1-ol"], "SMILES": "C(CO)C1=CC(N(=O)=O)=CC=C1", "physical_data": {"Molecular Weight": "167.16", "Molecular Formula": "C8H9NO3", "Boiling Point": "141-146 \u00b0C @ Press: 4 Torr", "Melting Point": "50-51 \u00b0C"}}