{"cas_no": "5202-86-8", "cn_name": "2,2'-\u4e8c\u7f9f\u57fa-1,1'-\u8054\u8418", "en_name": ["N-(4-Chloro-2-methylphenyl)acetamide", "Acetamide, N-(4-chloro-2-methylphenyl)-", "o-Acetotoluidide, 4\u2032-chloro-", "N-(4-Chloro-2-methylphenyl)acetamide", "4-Chloro-2-methylacetanilide", "N-Acetyl-4-chloro-2-methylaniline"], "SMILES": "N(C(C)=O)C1=C(C)C=C(Cl)C=C1", "physical_data": {"Molecular Weight": "183.63", "Molecular Formula": "C9H10ClNO", "Melting Point": "139 \u00b0C"}}