{"cas_no": "52025-34-0", "cn_name": "5-\u6c28\u57fa-2-\u4e59\u6c27\u57fa\u5421\u5576", "en_name": ["6-Ethoxypyridin-3-amine", "3-Pyridinamine, 6-ethoxy-", "Pyridine, 5-amino-2-ethoxy-", "6-Ethoxy-3-pyridinamine", "5-Amino-2-ethoxypyridine", "2-Ethoxy-5-aminopyridine", "6-Ethoxypyridin-3-ylamine", "6-Ethoxypyridin-3-amine"], "SMILES": "O(CC)C1=CC=C(N)C=N1", "physical_data": {"Molecular Weight": "138.17", "Molecular Formula": "C7H10N2O", "Melting Point": "67.5-68.5 \u00b0C"}}