{"cas_no": "5202-78-8", "cn_name": "N-\u4e59\u70ef\u57fa\u4e59\u9170\u80fa", "en_name": ["N-Vinylacetamide", "Acetamide, N-ethenyl-", "Acetamide, N-vinyl-", "N-Ethenylacetamide", "N-Vinylacetamide", "Vinylacetamide", "NVA"], "SMILES": "N(C(C)=O)C=C", "physical_data": {"Molecular Weight": "85.10", "Molecular Formula": "C4H7NO", "Boiling Point": "107-109 \u00b0C", "Melting Point": "53 \u00b0C"}}