{"cas_no": "5202-85-7", "cn_name": "2-\u6c28\u57fa-5-\u6c2f\u82ef\u7532\u9170\u80fa", "en_name": ["2-Amino-5-chlorobenzamide", "Benzamide, 2-amino-5-chloro-", "2-Amino-5-chlorobenzamide", "5-Chloroanthranilamide", "NSC 142032", "5-Chloro-2-aminobenzamide"], "SMILES": "C(N)(=O)C1=C(N)C=CC(Cl)=C1", "physical_data": {"Molecular Weight": "170.60", "Molecular Formula": "C7H7ClN2O", "Melting Point": "172-173 \u00b0C"}}