{"cas_no": "5202-89-1", "cn_name": "2-\u6c28\u57fa-5-\u6c2f\u82ef\u7532\u9178\u7532\u916f", "en_name": ["Methyl 2-amino-5-chlorobenzoate", "Benzoic acid, 2-amino-5-chloro-, methyl ester", "Anthranilic acid, 5-chloro-, methyl ester", "Methyl 5-chloroanthranilate", "Methyl 2-amino-5-chlorobenzoate", "5-Chloroanthranilic acid methyl ester", "2-Amino-5-chlorobenzoic acid methyl ester", "4-Chloro-2-carbomethoxyaniline", "5-Chloro anthranilate methyl"], "SMILES": "C(OC)(=O)C1=C(N)C=CC(Cl)=C1", "physical_data": {"Molecular Weight": "185.61", "Molecular Formula": "C8H8ClNO2", "Boiling Point": "168-170 \u00b0C", "Melting Point": "66-68 \u00b0C"}}