{"cas_no": "52031-05-7", "cn_name": "DL-4-\u6c2f\u82ef\u4e19\u6c28\u9178\u4e59\u916f\u76d0\u9178\u76d0", "en_name": ["Phenylalanine, 4-chloro-, ethyl ester, hydrochloride (1:1)", "Phenylalanine, 4-chloro-, ethyl ester, hydrochloride (1:1)", "DL-Phenylalanine, 4-chloro-, ethyl ester, hydrochloride", "Phenylalanine, 4-chloro-, ethyl ester, hydrochloride", "DL-p-Chlorophenylalanine ethyl ester hydrochloride", "p-Chlorophenylalanine ethyl ester hydrochloride"], "SMILES": "C(C(C(OCC)=O)N)C1=CC=C(Cl)C=C1.Cl", "physical_data": {"Molecular Weight": "", "Molecular Formula": "C11H14ClNO2.ClH", "Melting Point": "158 \u00b0C"}}