{"cas_no": "5203-14-5", "cn_name": "4-N-\u4e01\u6c27\u57fa\u82ef\u7532\u8148", "en_name": ["4-Butoxybenzonitrile", "Benzonitrile, 4-butoxy-", "Benzonitrile, p-butoxy-", "4-Butoxybenzonitrile"], "SMILES": "O(CCCC)C1=CC=C(C#N)C=C1", "physical_data": {"Molecular Weight": "175.23", "Molecular Formula": "C11H13NO", "Boiling Point": "146-148 \u00b0C @ Press: 3 Torr", "Melting Point": "35 \u00b0C"}}