{"cas_no": "5204-74-0", "cn_name": "\u4e09\u4e59\u57fa\u4e59\u9178\u94f5\u7f13\u51b2\u6db2", "en_name": ["Triethylammonium acetate", "Acetic acid, compd. with N,N-diethylethanamine (1:1)", "Triethylamine, acetate", "Ethanamine, N,N-diethyl-, acetate", "Triethylammonium acetate", "Triethylamine monoacetate", "Acetic acid compound with triethylamine (1:1)", "Acetic acid triethylamine salt"], "SMILES": "C(C)(O)=O.N(CC)(CC)CC", "physical_data": {"Molecular Weight": "", "Molecular Formula": "C6H15N.C2H4O2", "Melting Point": "-18 \u00b0C", "Density": "0.96 g/cm\u00b3"}}