{"cas_no": "5205-34-5", "cn_name": "5-\u6b63\u7678\u9187", "en_name": ["5-Decanol", "5-Decanol", "dl-Decan-5-ol", "(\u00b1)-5-Decanol", "NSC 244888"], "SMILES": "C(C(CCCC)O)CCCC", "physical_data": {"Molecular Weight": "158.28", "Molecular Formula": "C10H22O", "Boiling Point": "95-97 \u00b0C @ Press: 3 Torr", "Melting Point": "8.7 \u00b0C", "Density": "0.82766 g/cm\u00b3 @ Temp: 20 \u00b0C"}}