{"cas_no": "5205-93-6", "cn_name": "N-(3-\u4e8c\u7532\u6c28\u57fa\u4e19\u57fa)\u7532\u57fa\u4e19\u70ef\u9170\u80fa", "en_name": ["N-[3-(Dimethylamino)propyl]methacrylamide", "2-Propenamide, N-[3-(dimethylamino)propyl]-2-methyl-", "Acrylamide, N-[3-(dimethylamino)propyl]-2-methyl-", "N-[3-(Dimethylamino)propyl]-2-methyl-2-propenamide", "N-[3-(Dimethylamino)propyl]methacrylamide", "N-[3-(N,N-Dimethylamino)propyl]methacrylamide", "Mhoromer BM 611", "Dimethyl[3-(methacryloylamino)propyl]amine", "N,N-Dimethylaminopropyl methacrylamide", "DMAPMA"], "SMILES": "N(CCCN(C)C)C(C(C)=C)=O", "physical_data": {"Molecular Weight": "170.25", "Molecular Formula": "C9H18N2O", "Boiling Point": "71-80 \u00b0C @ Press: 5 x 10<sup>-3</sup> Torr", "Melting Point": "62.0-63.0 \u00b0C"}}