{"cas_no": "5205-11-8", "cn_name": "\u82ef\u7532\u91783-\u7532\u57fa-2-\u4e01\u70ef\u916f", "en_name": ["Prenyl benzoate", "2-Buten-1-ol, 3-methyl-, 1-benzoate", "2-Buten-1-ol, 3-methyl-, benzoate", "3-Methyl-2-butenyl benzoate", "Prenyl benzoate", "2-Methyl-4-benzoyloxy-2-butene", "3-Methylbut-2-en-1-yl benzoate"], "SMILES": "C(OCC=C(C)C)(=O)C1=CC=CC=C1", "physical_data": {"Molecular Weight": "190.24", "Molecular Formula": "C12H14O2", "Boiling Point": "60 \u00b0C @ Press: 0.1 Torr"}}