{"cas_no": "52055-23-9", "cn_name": "5-\u82c4\u6c27\u57fa\u8272\u80fa\u76d0\u9178\u76d0", "en_name": ["1H-Indole-3-ethanamine, 5-(phenylmethoxy)-, hydrochloride (1:1)", "1H-Indole-3-ethanamine, 5-(phenylmethoxy)-, hydrochloride (1:1)", "1H-Indole-3-ethanamine, 5-(phenylmethoxy)-, monohydrochloride", "5-(Benzyloxy)tryptamine monohydrochloride", "5-Benzyloxytryptamine hydrochloride", "2-[5-(Benzyloxy)-1H-indol-3-yl]ethan-1-amine hydrochloride"], "SMILES": "C(CN)C=1C=2C(NC1)=CC=C(OCC3=CC=CC=C3)C2.Cl", "physical_data": {"Molecular Weight": "", "Molecular Formula": "C17H18N2O.ClH", "Melting Point": "265 \u00b0C"}}