{"cas_no": "5205-39-0", "cn_name": "\u620a\u4e8c\u9178\u5355\u4e59\u916f\u9170\u6c2f", "en_name": ["Pentanoic acid, 5-chloro-5-oxo-, ethyl ester", "Pentanoic acid, 5-chloro-5-oxo-, ethyl ester", "Butyric acid, 4-(chloroformyl)-, ethyl ester", "\u03b3-Carbethoxybutyryl chloride", "Ethyl 4-(chloroformyl)butyrate", "Ethyl 4-(chloroformyl)butanoate", "Glutaric acid ethyl ester chloride", "Ethyl glutaroyl chloride", "Ethyl glutaric acid chloride", "NSC 249814", "Ethyl 5-chloro-5-oxopentanoate", "Ethyl glutaryl chloride", "5-Chloro-5-oxopentanoic acid ethyl ester", "4-Chlorocarbonylbutyric acid ethyl ester"], "SMILES": "C(CCCC(Cl)=O)(OCC)=O", "physical_data": {"Molecular Weight": "178.61", "Molecular Formula": "C7H11ClO3", "Boiling Point": "110 \u00b0C @ Press: 20 Torr"}}