{"cas_no": "52057-98-4", "cn_name": "6-(4-METHOXYPHENYL)-3-PYRIDINAMINE", "en_name": ["6-(4-Methoxyphenyl)-3-pyridinamine", "3-Pyridinamine, 6-(4-methoxyphenyl)-", "6-(4-Methoxyphenyl)-3-pyridinamine", "3-Amino-6-(4-methoxyphenyl)pyridine", "[6-(4-Methoxyphenyl)pyridin-3-yl]amine"], "SMILES": "O(C)C1=CC=C(C=C1)C2=CC=C(N)C=N2", "physical_data": {"Molecular Weight": "200.24", "Molecular Formula": "C12H12N2O", "Melting Point": "109-110 \u00b0C"}}