{"cas_no": "52061-73-1", "cn_name": "\u4e8c\u4e19\u620a\u9170\u80fa", "en_name": ["2,2-Dipropylpentanamide", "Pentanamide, 2,2-dipropyl-", "Valeramide, 2,2-dipropyl-", "2,2-Dipropylpentanamide", "2,2-Dipropylvaleramide", "Tripropylacetamide", "Tri-n-propylacetamide", "Valdipromide", "2,2-Di-n-propyl-valeramide"], "SMILES": "C(CCC)(CCC)(CCC)C(N)=O", "physical_data": {"Molecular Weight": "185.31", "Molecular Formula": "C11H23NO", "Boiling Point": "161 \u00b0C @ Press: 11 Torr", "Melting Point": "68-69 \u00b0C"}}