{"cas_no": "52068-30-1", "cn_name": "4-\u82c4\u6c27\u57fa\u82ef\u80bc\u76d0\u9178\u76d0", "en_name": ["Hydrazine, [4-(phenylmethoxy)phenyl]-, hydrochloride (1:1)", "Hydrazine, [4-(phenylmethoxy)phenyl]-, hydrochloride (1:1)", "Hydrazine, [4-(phenylmethoxy)phenyl]-, monohydrochloride", "Hydrazine, [p-(benzyloxy)phenyl]-, hydrochloride", "(p-Benzyloxyphenyl)hydrazine hydrochloride", "(4-Phenylmethoxyphenyl)hydrazine hydrochloride", "(4-Benzyloxyphenyl)hydrazine hydrochloride", "(4-Benzyloxyphenyl)hydrazine hydrochloride salt"], "SMILES": "O(CC1=CC=CC=C1)C2=CC=C(NN)C=C2.Cl", "physical_data": {"Molecular Weight": "", "Molecular Formula": "C13H14N2O.ClH", "Melting Point": "185-189 \u00b0C"}}