{"cas_no": "52061-75-3", "cn_name": "\u4e19\u620a\u9178\u94a0\u6742\u8d28D", "en_name": ["2,2-Dipropylpentanoic acid", "Pentanoic acid, 2,2-dipropyl-", "Valeric acid, 2,2-dipropyl-", "2,2-Dipropylpentanoic acid", "Tripropylacetic acid", "2,2-Dipropyl-valeric acid"], "SMILES": "C(CCC)(CCC)(CCC)C(O)=O", "physical_data": {"Molecular Weight": "186.29", "Molecular Formula": "C11H22O2", "Boiling Point": "114-117 \u00b0C @ Press: 5 Torr", "Melting Point": "65.5-67.5 \u00b0C"}}