{"cas_no": "52062-92-7", "cn_name": "4-(2-\u6eb4\u4e59\u57fa)\u82ef\u7532\u9178", "en_name": ["4-(2-Bromoethyl)benzoic acid", "Benzoic acid, 4-(2-bromoethyl)-", "Benzoic acid, p-(2-bromoethyl)-", "4-(2-Bromoethyl)benzoic acid", "p-(2-Bromoethyl)benzoic acid", "2-[4-Carboxyphenyl]ethyl bromide"], "SMILES": "C(O)(=O)C1=CC=C(CCBr)C=C1", "physical_data": {"Molecular Weight": "229.07", "Molecular Formula": "C9H9BrO2", "Melting Point": "209-210 \u00b0C"}}