{"cas_no": "52089-55-1", "cn_name": "DL-2-\u5df1\u9178\u4e59\u916f", "en_name": ["Ethyl 2-hydroxyhexanoate", "Hexanoic acid, 2-hydroxy-, ethyl ester", "Ethyl \u03b1-hydroxycaproate", "Ethyl 2-hydroxycaproate", "Ethyl 2-hydroxyhexanoate", "(\u00b1)-Ethyl 2-hydroxyhexanoate", "2-Hydroxyhexanoic acid ethyl ester", "Ethyl DL-2-hydroxycaproate"], "SMILES": "C(C(OCC)=O)(CCCC)O", "physical_data": {"Molecular Weight": "160.21", "Molecular Formula": "C8H16O3", "Boiling Point": "180-185 \u00b0C @ Press: 760 Torr", "Density": "0.9659 g/cm\u00b3 @ Temp: 23 \u00b0C"}}