{"cas_no": "52085-14-0", "cn_name": "4-\u82ef\u7532\u6c27\u57fa-2-\u7f9f\u57fa\u82ef\u7532\u919b", "en_name": ["2-Hydroxy-4-(phenylmethoxy)benzaldehyde", "Benzaldehyde, 2-hydroxy-4-(phenylmethoxy)-", "Salicylaldehyde, 4-(benzyloxy)-", "2-Hydroxy-4-(phenylmethoxy)benzaldehyde", "2-Hydroxy-4-(benzyloxy)benzaldehyde", "4-(Benzyloxy)-2-hydroxybenzaldehyde", "4-(Benzyloxy)salicylaldehyde"], "SMILES": "O(CC1=CC=CC=C1)C2=CC(O)=C(C=O)C=C2", "physical_data": {"Molecular Weight": "228.24", "Molecular Formula": "C14H12O3", "Boiling Point": "165-175 \u00b0C @ Press: 1 Torr", "Melting Point": "77-80 \u00b0C"}}