{"cas_no": "5208-93-5", "cn_name": "3-\u7532\u57fa-1-(2,6,6-\u4e09\u7532\u57fa\u73af\u5df1\u70ef-1-\u57fa)-1,4-\u620a\u4e8c\u70ef-3-\u9187", "en_name": ["3-Methyl-1-(2,6,6-trimethyl-1-cyclohexen-1-yl)-1,4-pentadien-3-ol", "1,4-Pentadien-3-ol, 3-methyl-1-(2,6,6-trimethyl-1-cyclohexen-1-yl)-", "3-Methyl-1-(2,6,6-trimethyl-1-cyclohexen-1-yl)-1,4-pentadien-3-ol", "Vinylionol", "3-Methyl-5-(2,6,6-trimethyl-1-cyclohexenyl)-1,4-pentadien-3-ol", "Vinyl-\u03b2-ionol", "3-Methyl-3-hydroxy-5-(2,6,6-trimethyl-1-cyclohexen-1-yl)-1,4-pentadiene", "3-Methyl-1-(2,6,6-trimethyl-1-cyclohexen-1-yl)penta-1,4-dien-3-ol", "3-Methyl-1-(2,6,6-trimethylcyclohexen-1-yl)penta-1,4-dien-3-ol"], "SMILES": "C(=CC(C=C)(C)O)C=1C(C)(C)CCCC1C", "physical_data": {"Molecular Weight": "220.35", "Molecular Formula": "C15H24O", "Boiling Point": "113-115 \u00b0C @ Press: 2 Torr"}}