{"cas_no": "52089-54-0", "cn_name": "2-\u7f9f\u57fa\u6b63\u4e01\u9178\u4e59\u916f", "en_name": ["Ethyl 2-hydroxybutanoate", "Butanoic acid, 2-hydroxy-, ethyl ester", "Butyric acid, 2-hydroxy-, ethyl ester", "Ethyl \u03b1-hydroxybutyrate", "Ethyl 2-hydroxybutanoate", "Ethyl 2-hydroxybutyrate", "2-Hydroxybutyric acid ethyl ester", "2-Hydroxybutanoic acid ethyl ester"], "SMILES": "C(C(CC)O)(OCC)=O", "physical_data": {"Molecular Weight": "132.16", "Molecular Formula": "C6H12O3", "Boiling Point": "74.5 \u00b0C @ Press: 25 Torr", "Density": "1.0069 g/cm\u00b3 @ Temp: 20 \u00b0C"}}