{"cas_no": "52093-28-4", "cn_name": "\u4e09\u6c1f\u7532\u78fa\u9178\u9490", "en_name": ["Methanesulfonic acid, 1,1,1-trifluoro-, samarium(3+) salt (3:1)", "Methanesulfonic acid, 1,1,1-trifluoro-, samarium(3+) salt (3:1)", "Methanesulfonic acid, trifluoro-, samarium(3+) salt", "Samarium(3+) trifluoromethanesulfonate", "Samarium tris(trifluoromethanesulfonate)", "Samarium(III) trifluoromethanesulfonate", "Samarium triflate", "Samarium(3+) triflate", "Samarium tris(triflate)", "Samarium(III) triflate", "Trifluoromethanesulfonic acid samarium(3+) salt", "Samarium trifluoromethanesulfonate"], "SMILES": "C(S(=O)(=O)O)(F)(F)F.[Sm]", "physical_data": {"Molecular Weight": "", "Molecular Formula": "CHF3O3S.<sup>1</sup>/3Sm", "Melting Point": "6 \u00b0C"}}