{"cas_no": "52093-21-7", "cn_name": "\u5c0f\u8bfa\u9709\u7d20", "en_name": ["Micronomicin", "D-Streptamine, O-2-amino-2,3,4,6-tetradeoxy-6-(methylamino)-\u03b1-D-erythro-hexopyranosyl-(1\u21924)-O-[3-deoxy-4-C-methyl-3-(methylamino)-\u03b2-L-arabinopyranosyl-(1\u21926)]-2-deoxy-", "O-2-Amino-2,3,4,6-tetradeoxy-6-(methylamino)-\u03b1-D-erythro-hexopyranosyl-(1\u21924)-O-[3-deoxy-4-C-methyl-3-(methylamino)-\u03b2-L-arabinopyranosyl-(1\u21926)]-2-deoxy-D-streptamine", "Sagamicin", "Antibiotic XK 62-2", "Gentamicin C2b", "Antibiotic KW 1062", "KW 1062", "DE 020", "Micronomicin", "XK 62-2", "Santemycin"], "SMILES": "O(C1C(O)C(OC2OC(CNC)CCC2N)C(N)CC1N)C3C(O)C(NC)C(C)(O)CO3", "physical_data": {"Molecular Weight": "463.57", "Molecular Formula": "C20H41N5O7", "Melting Point": "260 \u00b0C (decomp)"}}