{"cas_no": "52092-14-5", "cn_name": "\u500d\u6c2f\u7c73\u677e\u6742\u8d28D", "en_name": ["(11\u03b2,16\u03b2)-9-Bromo-11-hydroxy-16-methyl-17,21-bis(1-oxopropoxy)pregna-1,4-diene-3,20-dione", "Pregna-1,4-diene-3,20-dione, 9-bromo-11-hydroxy-16-methyl-17,21-bis(1-oxopropoxy)-, (11\u03b2,16\u03b2)-", "(11\u03b2,16\u03b2)-9-Bromo-11-hydroxy-16-methyl-17,21-bis(1-oxopropoxy)pregna-1,4-diene-3,20-dione"], "SMILES": "C(COC(CC)=O)(=O)C1(OC(CC)=O)C2(C)C(CC1C)C3C(Br)(C(O)C2)C4(C)C(CC3)=CC(=O)C=C4", "physical_data": {"Molecular Weight": "565.49", "Molecular Formula": "C28H37BrO7", "Melting Point": "180-182 \u00b0C"}}