{"cas_no": "52099-72-6", "cn_name": "1,3-\u4e8c\u6c22-1-(1-\u7532\u57fa\u4e59\u7094\u57fa)-2H-\u82ef\u5e76\u54aa\u5511-2-\u916e", "en_name": ["1,3-Dihydro-1-(1-methylethenyl)-2H-benzimidazol-2-one", "2H-Benzimidazol-2-one, 1,3-dihydro-1-(1-methylethenyl)-", "2-Benzimidazolinone, 1-isopropenyl-", "1,3-Dihydro-1-(1-methylethenyl)-2H-benzimidazol-2-one", "N-Isopropenyl-2-benzimidazolone", "1-Isopropenyl-2-benzimidazolidinone", "1-Isopropenyl-2-benzimidazolone", "NSC 280600", "1-Isopropenyl-1,3-dihydro-2H-benzimidazol-2-one", "1-Isopropenyl-1H-benzoimidazol-2-ol", "1-(Prop-1-en-2-yl)-2,3-dihydro-1H-1,3-benzodiazol-2-one", "1-(Prop-1-en-2-yl)-1H-benzo[d]imidazol-2(3H)-one", "1-(Prop-1-en-2-yl)-1H-1,3-benzodiazol-2-ol", "3-Prop-1-en-2-yl-1H-benzimidazol-2-one"], "SMILES": "C(C)(=C)N1C=2C(NC1=O)=CC=CC2", "physical_data": {"Molecular Weight": "174.20", "Molecular Formula": "C10H10N2O", "Melting Point": "121-122 \u00b0C"}}