{"cas_no": "521-18-6", "cn_name": "\u96c4\u8bfa\u9f99", "en_name": ["Dihydrotestosterone", "Androstan-3-one, 17-hydroxy-, (5\u03b1,17\u03b2)-", "5\u03b1-Androstan-3-one, 17\u03b2-hydroxy-", "(5\u03b1,17\u03b2)-17-Hydroxyandrostan-3-one", "Anaboleen", "Androlone", "Cristerona MB", "4-Dihydrotestosterone", "Dihydrotestosterone", "17\u03b2-Hydroxy-3-androstanone", "Neodrol", "Stanaprol", "Stanolone", "Testosterone, dihydro-", "5\u03b1-Dihydrotestosterone", "5\u03b1-Androstan-17\u03b2-ol-3-one", "17\u03b2-Hydroxy-5\u03b1-androstan-3-one", "4,5\u03b1-Dihydrotestosterone", "Androstanolone", "17\u03b2-Hydroxy-5\u03b1-androstane-3-one", "5\u03b1,17\u03b2-Hydroxyandrostan-3-one", "(+)-Androstan-17\u03b2-ol-3-one", "Androstan-17\u03b2-ol-3-one", "Anabolex", "5\u03b1-Androstanolone", "LG 152", "DHT", "Andractim", "NSC 10972", "5-DHT", "(5S,8R,9S,10S,13S,14S,17S)-17-Hydroxy-10,13-dimethyltetradecahydro-1H-cyclopenta[a]phenanthren-3(2H)-one", "MeSH ID: D013196"], "SMILES": "CC12C3C(C4C(C)(CC3)C(O)CC4)CCC1CC(=O)CC2", "physical_data": {"Molecular Weight": "290.44", "Molecular Formula": "C19H30O2", "Melting Point": "181 \u00b0C"}}