{"cas_no": "521-12-0", "cn_name": "\u5c48\u4ed6\u96c4\u916e\u4e19\u9178\u916f", "en_name": ["Dromostanolone propionate", "Androstan-3-one, 2-methyl-17-(1-oxopropoxy)-, (2\u03b1,5\u03b1,17\u03b2)-", "5\u03b1-Androstan-3-one, 17\u03b2-hydroxy-2\u03b1-methyl-, propionate", "(2\u03b1,5\u03b1,17\u03b2)-2-Methyl-17-(1-oxopropoxy)androstan-3-one", "2MDTP", "32379", "Dromostanolone propionate", "17\u03b2-Hydroxy-2\u03b1-methyl-5\u03b1-androstan-3-one propionate", "Masterone", "MDHT", "2\u03b1-Methyldihydrotestosterone propionate", "2\u03b1-Methyl-4,5-dihydrotestosterone propionate", "2\u03b1-Methyl-17\u03b2-propionoxy-5\u03b1-androstan-3-one", "Drostanolone propionate", "17\u03b2-Hydroxy-2\u03b1-methylandrostan-3-one propionate", "Drolban", "Emdisterone", "Masterid", "Masteril", "Permastril", "2\u03b1-Methylandrostan-17\u03b2-ol-3-one propionate", "Medrotestron propionate", "Medrotestrone propionate", "Medrotestrone propanoate", "2\u03b1-Methyl-17\u03b2-hydroxy-5\u03b1-androstan-3-one 17-propionate", "Masteron", "Prometholone"], "SMILES": "CC12C3C(C4C(C)(CC3)C(OC(CC)=O)CC4)CCC1CC(=O)C(C)C2", "physical_data": {"Molecular Weight": "360.53", "Molecular Formula": "C23H36O3", "Melting Point": "128 \u00b0C"}}