{"cas_no": "521-78-8", "cn_name": "\u9a6c\u6765\u9178\u4e09\u7532\u4e19\u54aa\u55ea", "en_name": ["Trimipramine maleate", "5H-Dibenz[b,f]azepine-5-propanamine, 10,11-dihydro-N,N,\u03b2-trimethyl-, (2Z)-2-butenedioate (1:1)", "5H-Dibenz[b,f]azepine, 5-[3-(dimethylamino)-2-methylpropyl]-10,11-dihydro-, maleate (1:1)", "5H-Dibenz[b,f]azepine-5-propanamine, 10,11-dihydro-N,N,\u03b2-trimethyl-, (Z)-2-butenedioate (1:1)", "Surmontil maleate", "Trimeprimine maleate", "Trimipramine acid maleate", "Trimipramine maleate", "Trimeprimine monomaleate", "3-(10,11-Dihydro-5H-dibenzo[b,f]azepin-5-yl)-N,N,2-trimethylpropan-1-aminium acid maleate"], "SMILES": "C(=CC(O)=O)C(O)=O.C(C(CN(C)C)C)N1C=2C(CCC=3C1=CC=CC3)=CC=CC2", "physical_data": {"Molecular Weight": "", "Molecular Formula": "C20H26N2.C4H4O4", "Melting Point": "142 \u00b0C"}}