{"cas_no": "521-31-3", "cn_name": "\u9c81\u7c73\u8bfa", "en_name": ["Luminol", "1,4-Phthalazinedione, 5-amino-2,3-dihydro-", "5-Amino-2,3-dihydro-1,4-phthalazinedione", "3-Aminophthalhydrazide", "3-Aminophthalic acid hydrazide", "3-Aminophthalic hydrazide", "Luminol", "5-Amino-1,4-dihydroxyphthalazine", "NSC 5064", "Diogenes reagent", "MeSH ID: D008165"], "SMILES": "O=C1C=2C(C(=O)NN1)=C(N)C=CC2", "physical_data": {"Molecular Weight": "177.16", "Molecular Formula": "C8H7N3O2", "Melting Point": "330.5 \u00b0C", "Density": "1.61 g/cm\u00b3"}}