{"cas_no": "521-62-0", "cn_name": "\u6cfb\u9f20\u674e\u76ae\u82f7A", "en_name": ["Frangulin A", "9,10-Anthracenedione, 3-[(6-deoxy-\u03b1-L-mannopyranosyl)oxy]-1,8-dihydroxy-6-methyl-", "Frangulin A", "3-[(6-Deoxy-\u03b1-L-mannopyranosyl)oxy]-1,8-dihydroxy-6-methyl-9,10-anthracenedione", "Franguloside", "Emodin-L-rhamnoside", "Rhamnoxanthin"], "SMILES": "O=C1C=2C(C(=O)C=3C1=CC(C)=CC3O)=C(O)C=C(OC4C(O)C(O)C(O)C(C)O4)C2", "physical_data": {"Molecular Weight": "416.38", "Molecular Formula": "C21H20O9", "Melting Point": "228 \u00b0C"}}