{"cas_no": "521-32-4", "cn_name": "7-\u53bb\u7532\u57fa\u94f6\u674f\u53cc\u9ec4\u916e", "en_name": ["Bilobetin", "4H-1-Benzopyran-4-one, 8-[5-(5,7-dihydroxy-4-oxo-4H-1-benzopyran-2-yl)-2-methoxyphenyl]-5,7-dihydroxy-2-(4-hydroxyphenyl)-", "3\u2032\u2032\u2032,8-Biflavone, 4\u2032,5,5\u2032\u2032,7,7\u2032\u2032-pentahydroxy-4\u2032\u2032\u2032-methoxy-", "8-[5-(5,7-Dihydroxy-4-oxo-4H-1-benzopyran-2-yl)-2-methoxyphenyl]-5,7-dihydroxy-2-(4-hydroxyphenyl)-4H-1-benzopyran-4-one", "Bilobetin", "4\u2032-Monomethylamentoflavone", "4\u2032-O-Methylamentoflavone", "Amentoflavone 4\u2032-methyl ether", "8-(5-(5,7-Dihydroxy-4-oxo-4H-chromen-2-yl)-2-methoxyphenyl)-5,7-di hydroxy-2-(4-hydroxyphenyl)-4H-chromen-4-one"], "SMILES": "OC=1C(=C2C(C(=O)C=C(O2)C3=CC=C(O)C=C3)=C(O)C1)C4=C(OC)C=CC(=C4)C=5OC=6C(C(=O)C5)=C(O)C=C(O)C6", "physical_data": {"Molecular Weight": "552.48", "Molecular Formula": "C31H20O10", "Melting Point": "225 \u00b0C"}}