{"cas_no": "521-11-9", "cn_name": "\u7f8e\u96c4\u8bfa\u9f99", "en_name": ["Mestanolone", "Androstan-3-one, 17-hydroxy-17-methyl-, (5\u03b1,17\u03b2)-", "5\u03b1-Androstan-3-one, 17\u03b2-hydroxy-17-methyl-", "(5\u03b1,17\u03b2)-17-Hydroxy-17-methylandrostan-3-one", "Androstalone", "17\u03b2-Hydroxy-17\u03b1-methyl-3-androstanone", "17\u03b2-Hydroxy-17\u03b1-methyl-5\u03b1-androstan-3-one", "Mestanolone", "17\u03b1-Methylandrostan-3-on-17\u03b2-ol", "17\u03b1-Methyl-17\u03b2-hydroxy-5\u03b1-androstan-3-one", "17\u03b1-Methyldihydrotestosterone", "17\u03b1-Methylandrostan-17\u03b2-ol-3-one", "17\u03b2-Hydroxy-17-methyl-5\u03b1-androstan-3-one", "17\u03b1-Methyl-5\u03b1-dihydrotestosterone", "5\u03b1-Androstan-17\u03b1-methyl-17\u03b2-ol-3-one", "Assimil", "Ermalone", "Tantarone", "Mestanolon", "Mestalone", "Methylantalon", "Methybol", "Preroide", "RU 143", "17\u03b1-Methyl-5\u03b1-androstan-17\u03b2-ol-3-one", "17\u03b1-Methylandrostanolone", "Methylandrostanolone", "NSC 18219"], "SMILES": "CC12C3C(C4C(C)(CC3)C(C)(O)CC4)CCC1CC(=O)CC2", "physical_data": {"Molecular Weight": "304.47", "Molecular Formula": "C20H32O2", "Melting Point": "192.5 \u00b0C"}}