{"cas_no": "521-34-6", "cn_name": "\u91d1\u677e\u53cc\u9ec4\u916e", "en_name": ["Sciadopitysin", "4H-1-Benzopyran-4-one, 5,7-dihydroxy-8-[5-(5-hydroxy-7-methoxy-4-oxo-4H-1-benzopyran-2-yl)-2-methoxyphenyl]-2-(4-methoxyphenyl)-", "3\u2032\u2032\u2032,8-Biflavone, 5,5\u2032\u2032,7-trihydroxy-4\u2032,4\u2032\u2032\u2032,7\u2032\u2032-trimethoxy-", "Sciadopitysin", "5,7-Dihydroxy-8-[5-(5-hydroxy-7-methoxy-4-oxo-4H-1-benzopyran-2-yl)-2-methoxyphenyl]-2-(4-methoxyphenyl)-4H-1-benzopyran-4-one", "7,4\u2032,4\u2032\u2032\u2032-Trimethylamentoflavone", "NSC 45108"], "SMILES": "OC=1C(=C2C(C(=O)C=C(O2)C3=CC=C(OC)C=C3)=C(O)C1)C4=CC(=CC=C4OC)C=5OC=6C(C(=O)C5)=C(O)C=C(OC)C6", "physical_data": {"Molecular Weight": "580.54", "Molecular Formula": "C33H24O10", "Melting Point": "286-287 \u00b0C (decomp)"}}