{"cas_no": "521-13-1", "cn_name": "\u80c6\u56fa\u9187\u4e01\u9178\u916f", "en_name": ["Cholesteryl butyrate", "Cholest-5-en-3-ol (3\u03b2)-, 3-butanoate", "Cholesterol, butyrate", "Cholest-5-en-3-ol (3\u03b2)-, butanoate", "Butyric acid, cholesteryl ester", "Cholesteryl butyrate", "Cholesterol butanoate", "Cholesterol n-butyrate", "Cholesteryl n-butyrate", "Cholesteryl butanoate", "Cholesterol 3-butyrate", "3\u03b2-(Butyryloxy)cholest-5-ene", "Cholest-5-en-3\u03b2-ol butyrate", "5-Cholesten-3\u03b2-ol butyrate"], "SMILES": "CC12C3C(C4C(C)(CC3)C(C(CCCC(C)C)C)CC4)CC=C1CC(OC(CCC)=O)CC2", "physical_data": {"Molecular Weight": "456.74", "Molecular Formula": "C31H52O2", "Melting Point": "102 \u00b0C"}}