{"cas_no": "521-24-4", "cn_name": "1,2-\u8418\u918c-4-\u78fa\u9178\u94a0", "en_name": ["Sodium 1,2-naphthoquinone-4-sulfonate", "1-Naphthalenesulfonic acid, 3,4-dihydro-3,4-dioxo-, sodium salt (1:1)", "1-Naphthalenesulfonic acid, 3,4-dihydro-3,4-dioxo-, sodium salt", "\u03b2-Naphthoquinone-4-sulfonate sodium salt", "Sodium 3,4-dihydro-3,4-dioxo-1-naphthalenesulfonate", "Sodium \u03b2-naphthoquinone-4-sulfonate", "Sodium 1,2-naphthoquinone-4-sulfonate", "1,2-Naphthoquinone-4-sulfonic acid sodium salt", "Sodium \u03b2-naphthoquinonesulfonate", "1,2-Naphthoquinone-4-sodium sulfonate", "Sodium 3,4-dioxo-1-naphthalenesulfonate", "Folin reagent"], "SMILES": "S(=O)(=O)(O)C=1C=2C(C(=O)C(=O)C1)=CC=CC2.[Na]", "physical_data": {"Molecular Weight": "", "Molecular Formula": "C10H6O5S.Na", "Melting Point": "287 \u00b0C (decomp)"}}