{"cas_no": "521-74-4", "cn_name": "5,7-\u4e8c\u6eb4-8-\u7f9f\u57fa\u55b9\u5549", "en_name": ["5,7-Dibromo-8-hydroxyquinoline", "8-Quinolinol, 5,7-dibromo-", "5,7-Dibromo-8-quinolinol", "Broxyquinoline", "5,7-Dibromo-8-hydroxyquinoline", "5,7-Dibromooxine", "Dibromoxine", "Dibromoxyquinoline", "Paramiba", "Brodiar", "Colepur", "Colipar", "Fenilor", "Paramibe", "Broxyquinolin", "Dibromoxin", "Dibromoksin", "Dibromoquin", "Intensopan", "NSC 1810", "NSC 74937", "Dibromohydroxyquinoline"], "SMILES": "OC=1C2=C(C(Br)=CC1Br)C=CC=N2", "physical_data": {"Molecular Weight": "302.95", "Molecular Formula": "C9H5Br2NO", "Melting Point": "196 \u00b0C", "Density": "2.189 g/cm\u00b3"}}