{"cas_no": "521-52-8", "cn_name": "\u5434\u8033\u9178", "en_name": ["Vulpinic acid", "Benzeneacetic acid, \u03b1-(3-hydroxy-5-oxo-4-phenyl-2(5H)-furanylidene)-, methyl ester, (\u03b1E)-", "\u03942(5H),\u03b1-Furanacetic acid, 3-hydroxy-5-oxo-\u03b1,4-diphenyl-, methyl ester", "Benzeneacetic acid, \u03b1-(3-hydroxy-5-oxo-4-phenyl-2(5H)-furanylidene)-, methyl ester, (E)-", "Vulpinic acid", "NSC 5897"], "SMILES": "C(C(OC)=O)(=C1C(O)=C(C(=O)O1)C2=CC=CC=C2)C3=CC=CC=C3", "physical_data": {"Molecular Weight": "322.31", "Molecular Formula": "C19H14O5", "Melting Point": "122-157 \u00b0C"}}