{"cas_no": "521-61-9", "cn_name": "\u5927\u9ec4\u7d20\u7532\u919a", "en_name": ["Physcion", "9,10-Anthracenedione, 1,8-dihydroxy-3-methoxy-6-methyl-", "Anthraquinone, 1,8-dihydroxy-3-methoxy-6-methyl-", "Chrysophanic acid, 6-methoxy-", "1,8-Dihydroxy-3-methoxy-6-methyl-9,10-anthracenedione", "Emodin 3-methyl ether", "Parietin", "Physcion", "Rheochrysidin", "1,8-Dihydroxy-3-methyl-6-methoxyanthraquinone", "6-O-Methylemodin", "NSC 251670", "1,8-Dihydroxy-3-methoxy-6-methylanthraquinone", "1,8-Dihydroxy-6-methoxy-3-methyl anthraquinone", "Physcione", "1,8-Dihydroxy-3-methoxy-6-methyl-9,10-anthraquinone"], "SMILES": "O=C1C=2C(C(=O)C=3C1=CC(C)=CC3O)=C(O)C=C(OC)C2", "physical_data": {"Molecular Weight": "284.26", "Molecular Formula": "C16H12O5", "Melting Point": "207-208 \u00b0C"}}