{"cas_no": "521-10-8", "cn_name": "\u7f8e\u96c4\u9187", "en_name": ["Methandriol", "Androst-5-ene-3,17-diol, 17-methyl-, (3\u03b2,17\u03b2)-", "Androst-5-ene-3\u03b2,17\u03b2-diol, 17-methyl-", "(3\u03b2,17\u03b2)-17-Methylandrost-5-ene-3,17-diol", "Androdiol", "Androteston-M", "Diolandrone", "Diolostene", "Esjaydiol", "MAD", "Masdiol", "Mestenediol", "Metandiol", "Metendiol", "Methanabol", "Methandriol", "Methandrolan", "Methostan", "17\u03b1-Methyl-5-androstene-3\u03b2,17\u03b2-diol", "Metidione", "Metildiolo", "Metocryst", "Nabadial", "Neosteron", "Neutrormone", "Neutrosteron", "Notandron", "Notandron-depot", "Protandren", "Stenediol", "Stenibell", "Madiol", "17-Methylandrost-5-ene-3\u03b2,17\u03b2-diol", "Methylandrostenediol", "Neostene", "Methandiol", "Megabion", "Androtestone-M", "17\u03b1-Methyl-17\u03b2-hydroxy-5-androsten-3\u03b2-ol", "3\u03b2,17\u03b2-Dihydroxy-17-methylandrost-5-ene", "Metandriol", "Crestabolic", "Stenosterone", "Testodiol", "Troformone", "17\u03b1-Methylandrost-5-ene-3\u03b2,17-diol", "NSC 22366", "17\u03b1-Androstenediol", "MeSH ID: D008695"], "SMILES": "CC12C3C(C4C(C)(CC3)C(C)(O)CC4)CC=C1CC(O)CC2", "physical_data": {"Molecular Weight": "304.47", "Molecular Formula": "C20H32O2", "Melting Point": "206 \u00b0C"}}