{"cas_no": "521-88-0", "cn_name": "\u5e72\u534e\u8c46\u6676 4", "en_name": ["Karanjin", "4H-Furo[2,3-h]-1-benzopyran-4-one, 3-methoxy-2-phenyl-", "Karanjin", "3-Methoxy-2-phenyl-4H-furo[2,3-h]-1-benzopyran-4-one", "NSC 335755", "Derisom", "3-Methoxy-2-phenylfuro[2,3-h]chromen-4-one"], "SMILES": "O=C1C2=C(C3=C(C=C2)OC=C3)OC(=C1OC)C4=CC=CC=C4", "physical_data": {"Molecular Weight": "292.29", "Molecular Formula": "C18H12O4", "Melting Point": "158 \u00b0C"}}