{"cas_no": "5211-62-1", "cn_name": "\u90bb\u7532\u6c27\u57fa\u82ef\u4e19\u916e", "en_name": ["1-(2-Methoxyphenyl)-2-propanone", "2-Propanone, 1-(2-methoxyphenyl)-", "2-Propanone, 1-(o-methoxyphenyl)-", "2-Propanone, (o-methoxyphenyl)-", "1-(2-Methoxyphenyl)-2-propanone", "1-(o-Methoxyphenyl)-2-propanone", "o-Methoxyphenyl-2-propanone", "(2-Methoxyphenyl)acetone", "1-(2-Anisyl)-2-propanone", "2\u2032-Methoxyphenyl-2-propanone", "(o-Methoxyphenyl)acetone"], "SMILES": "C(C(C)=O)C1=C(OC)C=CC=C1", "physical_data": {"Molecular Weight": "164.20", "Molecular Formula": "C10H12O2", "Boiling Point": "127-130 \u00b0C @ Press: 10 Torr"}}