{"cas_no": "52119-38-7", "cn_name": "3-\u785d\u57fa\u82ef\u7532\u9170\u4e59\u9178\u4e59\u916f", "en_name": ["Ethyl 3-nitro-\u03b2-oxobenzenepropanoate", "Benzenepropanoic acid, 3-nitro-\u03b2-oxo-, ethyl ester", "Acetic acid, (m-nitrobenzoyl)-, ethyl ester", "Ethyl 3-nitro-\u03b2-oxobenzenepropanoate", "Ethyl(m-nitrobenzoyl)acetate", "Ethyl (3-nitrobenzoyl)acetate", "Ethyl 3-(3-nitrophenyl)-3-oxopropanoate"], "SMILES": "C(CC(OCC)=O)(=O)C1=CC(N(=O)=O)=CC=C1", "physical_data": {"Molecular Weight": "237.21", "Molecular Formula": "C11H11NO5", "Melting Point": "75-77 \u00b0C"}}