{"cas_no": "52112-68-2", "cn_name": "2-\u6c28\u57fa-6-\u6c2f\u82ef\u5e76\u5641\u5511", "en_name": ["2-Amino-6-chlorobenzoxazole", "2-Benzoxazolamine, 6-chloro-", "Benzoxazole, 2-amino-6-chloro-", "6-Chloro-2-benzoxazolamine", "2-Amino-6-chlorobenzoxazole", "NSC 24991"], "SMILES": "NC1=NC=2C(O1)=CC(Cl)=CC2", "physical_data": {"Molecular Weight": "168.58", "Molecular Formula": "C7H5ClN2O", "Melting Point": "184 \u00b0C"}}