{"cas_no": "52117-69-8", "cn_name": "3-O-ACETYLPINOBANKSIN", "en_name": ["Pinobanksin 3-acetate", "4H-1-Benzopyran-4-one, 3-(acetyloxy)-2,3-dihydro-5,7-dihydroxy-2-phenyl-, (2R,3R)-", "4H-1-Benzopyran-4-one, 3-(acetyloxy)-2,3-dihydro-5,7-dihydroxy-2-phenyl-, (2R-trans)-", "(2R,3R)-3-(Acetyloxy)-2,3-dihydro-5,7-dihydroxy-2-phenyl-4H-1-benzopyran-4-one", "Pinobanksin acetate", "Pinobanksin 3-O-acetate", "3-O-Acetylpinobanksin", "(2R,3R)-Pinobanksin 3-acetate", "Pinobanksin 3-acetate"], "SMILES": "O(C(C)=O)C1C(OC=2C(C1=O)=C(O)C=C(O)C2)C3=CC=CC=C3", "physical_data": {"Molecular Weight": "314.29", "Molecular Formula": "C17H14O6", "Melting Point": "173-175 \u00b0C"}}