{"cas_no": "52119-39-8", "cn_name": "3-(2-\u785d\u57fa\u82ef\u57fa)-3-\u6c27\u4ee3\u4e19\u9178\u4e59\u916f", "en_name": ["Ethyl 2-nitro-\u03b2-oxobenzenepropanoate", "Benzenepropanoic acid, 2-nitro-\u03b2-oxo-, ethyl ester", "Acetic acid, (o-nitrobenzoyl)-, ethyl ester", "Ethyl 2-nitro-\u03b2-oxobenzenepropanoate", "(o-Nitrobenzoyl)acetic acid ethyl ester", "Ethyl (2-nitrobenzoyl)acetate", "Ethyl (o-nitrobenzoyl)acetate", "Ethyl 2-(2-nitrobenzoyl)acetate", "2-Nitro-\u03b2-oxobenzenepropanoic acid ethyl ester", "Ethyl 3-(2-nitrophenyl)-3-oxopropanoate"], "SMILES": "C(CC(OCC)=O)(=O)C1=C(N(=O)=O)C=CC=C1", "physical_data": {"Molecular Weight": "237.21", "Molecular Formula": "C11H11NO5", "Boiling Point": "170 \u00b0C @ Press: 0.1 Torr", "Melting Point": "35-36 \u00b0C"}}