{"cas_no": "52128-35-5", "cn_name": "\u4e09\u7532\u66f2\u6c99", "en_name": ["Trimetrexate", "2,4-Quinazolinediamine, 5-methyl-6-[[(3,4,5-trimethoxyphenyl)amino]methyl]-", "5-Methyl-6-[[(3,4,5-trimethoxyphenyl)amino]methyl]-2,4-quinazolinediamine", "TMQ", "NSC 249008", "JB 11", "Trimetrexate", "2,4-Diamino-5-methyl-6-[(3\u2032,4\u2032,5\u2032-trimethoxyanilino)methyl]quinazoline", "NSC 352122", "CI 898"], "SMILES": "CC=1C2=C(C=CC1CNC3=CC(OC)=C(OC)C(OC)=C3)N=C(N)N=C2N", "physical_data": {"Molecular Weight": "369.42", "Molecular Formula": "C19H23N5O3", "Melting Point": "215-217 \u00b0C"}}