{"cas_no": "52130-87-7", "cn_name": "2-\u6eb4\u4e59\u9170\u6c28\u57fa-5-\u785d\u57fa-2'-\u6c2f\u4e8c\u82ef\u7532\u916e", "en_name": ["2-Bromo-N-[2-(2-chlorobenzoyl)-4-nitrophenyl]acetamide", "Acetamide, 2-bromo-N-[2-(2-chlorobenzoyl)-4-nitrophenyl]-", "2-Bromo-N-[2-(2-chlorobenzoyl)-4-nitrophenyl]acetamide"], "SMILES": "C(=O)(C1=C(NC(CBr)=O)C=CC(N(=O)=O)=C1)C2=C(Cl)C=CC=C2", "physical_data": {"Molecular Weight": "397.61", "Molecular Formula": "C15H10BrClN2O4", "Melting Point": "146-148 \u00b0C"}}