{"cas_no": "52130-17-3", "cn_name": "2-\u7532\u57fa-3-\u6c28\u57fa\u82ef\u7532\u9178", "en_name": ["3-Amino-2-methylbenzoic acid", "Benzoic acid, 3-amino-2-methyl-", "o-Toluic acid, 3-amino-", "3-Amino-2-methylbenzoic acid", "2-Methyl-3-aminobenzoic acid", "3-Amino-o-toluic acid"], "SMILES": "C(O)(=O)C1=C(C)C(N)=CC=C1", "physical_data": {"Molecular Weight": "151.16", "Molecular Formula": "C8H9NO2", "Melting Point": "128 \u00b0C"}}