{"cas_no": "5213-49-0", "cn_name": "2,4-\u4e8c\u785d\u57fa\u54aa\u5511", "en_name": ["2,4-Dinitroimidazole", "1H-Imidazole, 2,5-dinitro-", "Imidazole, 2,4-dinitro-", "1H-Imidazole, 2,4-dinitro-", "Imidazole, 2,4(or 2,5)-dinitro-", "2,5-Dinitro-1H-imidazole", "2,4-Dinitroimidazole", "KA 121", "2,5-Dinitroimidazole", "2,4(5)-Dinitroimidazole", "NSC 342704", "2,4-Dinitro-1H-imidazole", "2,4-Dinitro-3H-imidazole"], "SMILES": "N(=O)(=O)C=1NC(N(=O)=O)=NC1", "physical_data": {"Molecular Weight": "158.07", "Molecular Formula": "C3H2N4O4", "Melting Point": "271-271.5 \u00b0C", "Density": "1.6385 g/cm\u00b3"}}