{"cas_no": "52146-35-7", "cn_name": "1-(3,4,5-\u4e09\u7532\u6c27\u57fa\u82c4\u57fa)\u54cc\u55ea \u76d0\u9178\u76d0", "en_name": ["1-[(3,4,5-Trimethoxyphenyl)methyl]piperazine", "Piperazine, 1-[(3,4,5-trimethoxyphenyl)methyl]-", "Piperazine, 1-(3,4,5-trimethoxybenzyl)-", "1-[(3,4,5-Trimethoxyphenyl)methyl]piperazine", "1-(3,4,5-Trimethoxybenzyl)piperazine", "N-(3,4,5-Trimethoxybenzyl)piperazine"], "SMILES": "C(C1=CC(OC)=C(OC)C(OC)=C1)N2CCNCC2", "physical_data": {"Molecular Weight": "266.34", "Molecular Formula": "C14H22N2O3", "Boiling Point": "165-170 \u00b0C @ Press: 1 x 10<sup>-3</sup> Torr", "Melting Point": "102-105 \u00b0C"}}