{"cas_no": "52152-93-9", "cn_name": "\u5934\u5b62\u78fa\u5576\u94a0", "en_name": ["Cefsulodin sodium", "Pyridinium, 4-(aminocarbonyl)-1-[[(6R,7R)-2-carboxy-8-oxo-7-[[(2R)-2-phenyl-2-sulfoacetyl]amino]-5-thia-1-azabicyclo[4.2.0]oct-2-en-3-yl]methyl]-, inner salt, sodium salt (1:1)", "Pyridinium, 4-(aminocarbonyl)-1-[[2-carboxy-8-oxo-7-[(phenylsulfoacetyl)amino]-5-thia-1-azabicyclo[4.2.0]oct-2-en-3-yl]methyl]-, hydroxide, inner salt, monosodium salt, [6R-[6\u03b1,7\u03b2(R*)]]-", "Pyridinium, 4-(aminocarbonyl)-1-[[(6R,7R)-2-carboxy-8-oxo-7-[[(2R)-phenylsulfoacetyl]amino]-5-thia-1-azabicyclo[4.2.0]oct-2-en-3-yl]methyl]-, inner salt, monosodium salt", "7-(D-\u03b1-Sulfophenylacetamido)ceph-3-em-3-(4\u2032-carbamoylpyridinium)methyl-4-carboxylate sodium salt", "SCE 129", "Cefsulodin", "Cefsulodin sodium", "CGP 7174E", "Monosodium cefsulodin", "D-(-)-SCE-129", "Takesulin", "Tilmapor", "Sodium cefsulodin", "Pyridinium, 4-(aminocarbonyl)-1-[[2-carboxy-8-oxo-7-[(phenylsulfoacetyl)amino]-5-thia-1-azabicyclo[4.2.0]oct-2-en-3-yl]methyl]-, inner salt, monosodium salt, [6R-[6\u03b1,7\u03b2(R*)]]-", "Pseudomonil", "Sulcephalosporin", "Abbot 46811", "Cefomonil", "Monaspor", "Pyocefal", "Ulfar", "Pseudocef", "MeSH ID: D002441"], "SMILES": "C([O-])(=O)C=1N2C(C(NC(C(S(=O)(=O)O)C3=CC=CC=C3)=O)C2=O)SCC1C[N+]=4C=CC(C(N)=O)=CC4.[Na]", "physical_data": {"Molecular Weight": "", "Molecular Formula": "C22H20N4O8S2.Na", "Melting Point": "175 \u00b0C (decomp)"}}