{"cas_no": "52159-67-8", "cn_name": "METHYL-3-CHLORO-2-HYDROXYBENZOATE", "en_name": ["Methyl 3-chloro-2-hydroxybenzoate", "Benzoic acid, 3-chloro-2-hydroxy-, methyl ester", "Methyl 3-chloro-2-hydroxybenzoate", "Methyl 3-chlorosalicylate", "Methyl m-chlorosalicylate", "3-Chloro-2-hydroxybenzoic acid methyl ester"], "SMILES": "C(OC)(=O)C1=C(O)C(Cl)=CC=C1", "physical_data": {"Molecular Weight": "186.59", "Molecular Formula": "C8H7ClO3", "Melting Point": "29-32 \u00b0C"}}