{"cas_no": "5216-25-1", "cn_name": "4-\u6c2f\u4e09\u6c2f\u7532\u82ef", "en_name": ["4-Chlorobenzotrichloride", "Benzene, 1-chloro-4-(trichloromethyl)-", "Toluene, p,\u03b1,\u03b1,\u03b1-tetrachloro-", "1-Chloro-4-(trichloromethyl)benzene", "p-Chlorobenzotrichloride", "p-Chlorophenyltrichloromethane", "4-Chlorobenzotrichloride", "4,\u03b1,\u03b1,\u03b1-Tetrachlorotoluene", "p,\u03b1,\u03b1,\u03b1-Tetrachlorotoluene", "\u03b1,\u03b1,\u03b1,4-Tetrachlorotoluene", "p-(Trichloromethyl)chlorobenzene", "\u03b1,\u03b1,\u03b1,p-Tetrachlorotoluene", "\u03b1,\u03b1,\u03b1-Trichloro-4-chlorotoluene", "p-Chloro-\u03b1,\u03b1,\u03b1-trichlorotoluene"], "SMILES": "C(Cl)(Cl)(Cl)C1=CC=C(Cl)C=C1", "physical_data": {"Molecular Weight": "229.92", "Molecular Formula": "C7H4Cl4", "Boiling Point": "245 \u00b0C"}}