{"cas_no": "5216-36-4", "cn_name": "\u53d4-\u4e01\u57fa 6-\u7f9f\u57fa-3,4-\u4e8c\u6c22\u5f02\u55b9\u5549-2(1H)-\u7532\u9178", "en_name": ["4,4\u2032-(1,2-Ethynediyl)bis[benzonitrile]", "Benzonitrile, 4,4\u2032-(1,2-ethynediyl)bis-", "Benzonitrile, 4,4\u2032-ethynylenedi-", "4,4\u2032-(1,2-Ethynediyl)bis[benzonitrile]", "p,p\u2032-Dicyanotolan", "4,4\u2032-Dicyanodiphenylacetylene", "Bis(4-cyanophenyl)acetylene", "1,2-Bis(4-cyanophenyl)ethyne", "4,4\u2032-(Ethyne-1,2-diyl)dibenzonitrile"], "SMILES": "C(#CC1=CC=C(C#N)C=C1)C2=CC=C(C#N)C=C2", "physical_data": {"Molecular Weight": "228.25", "Molecular Formula": "C16H8N2", "Melting Point": "252-255 \u00b0C"}}