{"cas_no": "5217-47-0", "cn_name": "1,3-\u4e8c\u4e59\u57fa-2-\u786b\u4ee3\u5df4\u6bd4\u59a5\u9178", "en_name": ["1,3-Diethyl-2-thiobarbituric acid", "4,6(1H,5H)-Pyrimidinedione, 1,3-diethyldihydro-2-thioxo-", "Barbituric acid, 1,3-diethyl-2-thio-", "1,3-Diethyldihydro-2-thioxo-4,6(1H,5H)-pyrimidinedione", "N,N\u2032-Diethyl-2-thiobarbituric acid", "1,3-Diethyl-2-thiobarbituric acid", "N,N\u2032-Diethylthiobarbituric acid", "1,3-Diethylthiobarbituric acid", "NSC 158284", "1,3-Diethyl-2-sulfanylidene-1,3-diazinane-4,6-dione"], "SMILES": "C(C)N1C(=S)N(CC)C(=O)CC1=O", "physical_data": {"Molecular Weight": "200.26", "Molecular Formula": "C8H12N2O2S", "Melting Point": "101-103 \u00b0C"}}