{"cas_no": "52182-15-7", "cn_name": "1,1-\u4e8c\u82ef\u57fa-1-\u7f9f\u57fa\u4e59\u9178\u4e59\u916f", "en_name": ["Ethyl benzilate", "Benzeneacetic acid, \u03b1-hydroxy-\u03b1-phenyl-, ethyl ester", "Benzilic acid, ethyl ester", "Ethyl diphenylglycolate", "Ethyl benzilate", "Ethyl \u03b1-phenylmandelate", "NSC 62707", "Ethyl 2-hydroxy-2,2-diphenylacetate"], "SMILES": "C(C(OCC)=O)(O)(C1=CC=CC=C1)C2=CC=CC=C2", "physical_data": {"Molecular Weight": "256.30", "Molecular Formula": "C16H16O3", "Boiling Point": "105 \u00b0C @ Press: 0.02 Torr", "Melting Point": "34 \u00b0C"}}