{"cas_no": "52189-63-6", "cn_name": "1,3-\u4e8c\u7532\u6c27\u57fa-5-\u6c1f\u82ef", "en_name": ["1-Fluoro-3,5-dimethoxybenzene", "Benzene, 1-fluoro-3,5-dimethoxy-", "1-Fluoro-3,5-dimethoxybenzene", "3,5-Dimethoxyfluorobenzene", "1,3-Dimethoxy-5-fluorobenzene", "3,5-Dimethoxy-1-fluorobenzene"], "SMILES": "O(C)C1=CC(OC)=CC(F)=C1", "physical_data": {"Molecular Weight": "156.15", "Molecular Formula": "C8H9FO2", "Boiling Point": "88 \u00b0C @ Press: 6 Torr"}}