{"cas_no": "5219-61-4", "cn_name": "\u82ef\u57fa\u8148\u4e59\u57fa\u786b\u919a", "en_name": ["2-(Phenylthio)acetonitrile", "Acetonitrile, 2-(phenylthio)-", "Acetonitrile, (phenylthio)-", "2-(Phenylthio)acetonitrile", "(Phenylthio)acetonitrile", "Cyanomethyl phenyl sulfide", "2-(Phenylsulfanyl)acetonitrile"], "SMILES": "S(CC#N)C1=CC=CC=C1", "physical_data": {"Molecular Weight": "149.21", "Molecular Formula": "C8H7NS", "Boiling Point": "146-147 \u00b0C @ Press: 14 Torr", "Melting Point": "99.2-103.4 \u00b0C"}}