{"cas_no": "5219-65-8", "cn_name": "3-\u82ef\u786b\u57fa\u4e19\u9178", "en_name": ["3-(Phenylthio)propanoic acid", "Propanoic acid, 3-(phenylthio)-", "Propionic acid, 3-(phenylthio)-", "3-(Phenylthio)propanoic acid", "3-(Phenylthio)propionic acid", "4-Phenyl-4-thiabutanoic acid", "NSC 14777", "NSC 8542", "3-(Phenylsulfanyl)propanoic acid"], "SMILES": "S(CCC(O)=O)C1=CC=CC=C1", "physical_data": {"Molecular Weight": "182.24", "Molecular Formula": "C9H10O2S", "Boiling Point": "184 \u00b0C @ Press: 10 Torr", "Melting Point": "58 \u00b0C"}}