{"cas_no": "52196-74-4", "cn_name": "2,5-\u4e8c\u4e59\u6c27\u57fa\u6c2f\u82ef", "en_name": ["2-Chloro-1,4-diethoxybenzene", "Benzene, 2-chloro-1,4-diethoxy-", "2-Chloro-1,4-diethoxybenzene", "2,5-Diethoxy-1-chlorobenzene", "2,5-Diethoxychlorobenzene", "NSC 89737"], "SMILES": "O(CC)C1=C(Cl)C=C(OCC)C=C1", "physical_data": {"Molecular Weight": "200.66", "Molecular Formula": "C10H13ClO2", "Boiling Point": "128-129 \u00b0C @ Press: 9 Torr", "Melting Point": "15 \u00b0C"}}