{"cas_no": "522-51-0", "cn_name": "\u5730\u55b9\u6c2f\u94f5", "en_name": ["Dequalinium chloride", "Quinolinium, 1,1\u2032-(1,10-decanediyl)bis[4-amino-2-methyl-, chloride (1:2)", "Quinaldinium, 1,1\u2032-decamethylenebis[4-amino-, dichloride", "Quinolinium, 1,1\u2032-(1,10-decanediyl)bis[4-amino-2-methyl-, dichloride", "1,1\u2032-Decamethylenebis[4-aminoquinaldinium chloride]", "BAQD 10", "Decamethylenebis[4-aminoquinaldinium chloride]", "Dequadin chloride", "Dequalinium chloride", "Sorot", "Decamine", "Efisol", "Dekamin", "Evazol", "Dekadin", "Dequavagyn", "Grocreme", "Dequavet", "Polycidine", "Decamine (pharmaceutical)", "Ivazil", "Sanoral", "Sentril", "Oralgol", "Rumilet", "Dequadin", "Labosept", "Dequacets", "Fluomycin N", "BADQ 10", "Dekamiln", "Eriosept", "Decatylen", "Phylletten", "Optipect", "Dequafungen", "LDN 0096422", "NSC 166454", "Fluomizin"], "SMILES": "C(CCCCCCCCC[N+]=1C2=C(C(N)=CC1C)C=CC=C2)[N+]=3C4=C(C(N)=CC3C)C=CC=C4.[Cl-]", "physical_data": {"Molecular Weight": "", "Molecular Formula": "C30H40N4.2Cl", "Melting Point": "326 \u00b0C (decomp)"}}