{"cas_no": "522-87-2", "cn_name": "\u80b2\u4ea8\u9178", "en_name": ["Yohimbic acid", "Yohimban-16-carboxylic acid, 17-hydroxy-, (16\u03b1,17\u03b1)-", "Yohimbic acid", "Benz[g]indolo[2,3-a]quinolizine, yohimban-16-carboxylic acid deriv.", "(16\u03b1,17\u03b1)-17-Hydroxyyohimban-16-carboxylic acid", "Yohimbinic acid", "Yohimbolcarboxylic acid", "NSC 95096", "Yohimbine acid"], "SMILES": "C(O)(=O)C1C2CC3C4=C(C=5C(N4)=CC=CC5)CCN3CC2CCC1O", "physical_data": {"Molecular Weight": "340.42", "Molecular Formula": "C20H24N2O3", "Melting Point": "280-300 \u00b0C"}}