{"cas_no": "522-11-2", "cn_name": "EVOXINE", "en_name": ["Evoxine", "2,3-Butanediol, 1-[(4,8-dimethoxyfuro[2,3-b]quinolin-7-yl)oxy]-3-methyl-, (2R)-", "Evoxine", "Haploperine", "(2R)-1-[(4,8-Dimethoxyfuro[2,3-b]quinolin-7-yl)oxy]-3-methyl-2,3-butanediol", "Evoxin", "Haploperin", "Haplophytine B", "Haplophytin B", "NSC 94653", "(2R)-1-(4,8-Dimethoxyfuro[2,3-b]quinolin-7-yl)oxy-3-methylbutane-2,3-diol"], "SMILES": "O(C)C1=C2C(C(OC)=C3C(=N2)OC=C3)=CC=C1OCC(C(C)(C)O)O", "physical_data": {"Molecular Weight": "347.36", "Molecular Formula": "C18H21NO6", "Melting Point": "154-155 \u00b0C"}}