{"cas_no": "522-66-7", "cn_name": "\u6c22\u5316\u594e\u5b81", "en_name": ["(-)-Dihydroquinine", "Cinchonan-9-ol, 10,11-dihydro-6\u2032-methoxy-, (8\u03b1,9R)-", "Hydroquinine", "(8\u03b1,9R)-10,11-Dihydro-6\u2032-methoxycinchonan-9-ol", "Dihydroquinine", "10,11-Dihydroquinine", "(-)-Dihydroquinine", "(-)-10,11-Dihydroquinine", "NSC 41799", "(-)-Hydroquinine"], "SMILES": "C(O)(C=1C2=C(C=CC(OC)=C2)N=CC1)C3N4CC(CC)C(C3)CC4", "physical_data": {"Molecular Weight": "326.43", "Molecular Formula": "C20H26N2O2", "Melting Point": "172.5 \u00b0C"}}