{"cas_no": "522-97-4", "cn_name": "\u56db\u6c22\u5c0f\u6a97\u78b1", "en_name": ["(\u00b1)-Tetrahydroberberine", "6H-Benzo[g]-1,3-benzodioxolo[5,6-a]quinolizine, 5,8,13,13a-tetrahydro-9,10-dimethoxy-", "Berbine, 9,10-dimethoxy-2,3-(methylenedioxy)-", "Berberine, 9-deoxy-16,17-dihydro-", "5,8,13,13a-Tetrahydro-9,10-dimethoxy-6H-benzo[g]-1,3-benzodioxolo[5,6-a]quinolizine", "Berberine, tetrahydro-", "Tetrahydroberberine", "Xanthopuccine", "Canadine", "Tetrahydroumbellatine", "(\u00b1)-Canadine", "(\u00b1)-Tetrahydroberberine", "dl-Tetrahydroberberine", "dl-Canadine", "NSC 36351", "NSC 94918", "Tetrahydroberineper"], "SMILES": "O(C)C1=C2CN3C(C=4C(=CC5=C(C4)OCO5)CC3)CC2=CC=C1OC", "physical_data": {"Molecular Weight": "339.39", "Molecular Formula": "C20H21NO4", "Melting Point": "166.5 \u00b0C"}}