{"cas_no": "522-17-8", "cn_name": "\u9b5a\u85e4\u7d20", "en_name": ["Deguelin", "3H-Bis[1]benzopyrano[3,4-b:6\u2032,5\u2032-e]pyran-7(7aH)-one, 13,13a-dihydro-9,10-dimethoxy-3,3-dimethyl-, (7aS,13aS)-", "Deguelin", "3H-Bis[1]benzopyrano[3,4-b:6\u2032,5\u2032-e]pyran-7(7aH)-one, 13,13a-dihydro-9,10-dimethoxy-3,3-dimethyl-", "3H-Bis[1]benzopyrano[3,4-b:6\u2032,5\u2032-e]pyran-7(7aH)-one, 13,13a-dihydro-9,10-dimethoxy-3,3-dimethyl-, (7aS-cis)-", "(7aS,13aS)-13,13a-Dihydro-9,10-dimethoxy-3,3-dimethyl-3H-bis[1]benzopyrano[3,4-b:6\u2032,5\u2032-e]pyran-7(7aH)-one", "(-)-cis-Deguelin", "(-)-Deguelin"], "SMILES": "O=C1C=2C(=C3C(=CC2)OC(C)(C)C=C3)OC4C1C=5C(OC4)=CC(OC)=C(OC)C5", "physical_data": {"Molecular Weight": "394.42", "Molecular Formula": "C23H22O6", "Melting Point": "171 \u00b0C"}}