{"cas_no": "522-47-4", "cn_name": "LOCHNERINE", "en_name": ["Lochnerine", "Sarpagan-17-ol, 10-methoxy-", "Lochnerine", "10-Methoxysarpagan-17-ol", "(+)-Lochnerine", "10-O-Methylsarpagine", "10-Methoxynormacusine B"], "SMILES": "C(O)C1C2N3C(C4=C(C=5C(N4)=CC=C(OC)C5)C2)CC1C(=CC)C3", "physical_data": {"Molecular Weight": "324.42", "Molecular Formula": "C20H24N2O2", "Melting Point": "200-201 \u00b0C"}}