{"cas_no": "522-48-5", "cn_name": "\u76d0\u9178\u56db\u6c22\u5511\u5549", "en_name": ["Tetrahydrozoline hydrochloride", "1H-Imidazole, 4,5-dihydro-2-(1,2,3,4-tetrahydro-1-naphthalenyl)-, hydrochloride (1:1)", "2-Imidazoline, 2-(1,2,3,4-tetrahydro-1-naphthyl)-, monohydrochloride", "1H-Imidazole, 4,5-dihydro-2-(1,2,3,4-tetrahydro-1-naphthalenyl)-, monohydrochloride", "2-(1,2,3,4-Tetrahydro-1-naphthyl)-2-imidazoline hydrochloride", "Tyzanol hydrochloride", "Tyzine hydrochloride", "Visine hydrochloride", "Tetrahydrozoline hydrochloride", "Tyzine", "Tetryzoline hydrochloride", "Visine", "Tizine", "Yxin", "Soothe", "Tinarhinin", "Murine Plus", "Tyzanol", "Vislin", "2-(1,2,3,4-Tetrahydronaphthalen-1-yl)-4,5-dihydro-1H-imidazole hydrochloride"], "SMILES": "C1(C=2C(CCC1)=CC=CC2)C=3NCCN3.Cl", "physical_data": {"Molecular Weight": "", "Molecular Formula": "C13H16N2.ClH", "Melting Point": "256-257 \u00b0C (decomp)"}}