{"cas_no": "522-27-0", "cn_name": "\u03b1-\u7ce0\u5076\u9170\u4e8c\u809f", "en_name": ["Furil, dioxime", "1,2-Ethanedione, 1,2-di-2-furanyl-, 1,2-dioxime", "Furil, dioxime", "Ethanedione, di-2-furanyl-, dioxime", "Di-2-furylglyoxime", "\u03b1-Furil dioxime", "Bis(2-furyl)glyoxime", "NSC 5055"], "SMILES": "C(C(=NO)C1=CC=CO1)(=NO)C2=CC=CO2", "physical_data": {"Molecular Weight": "220.18", "Molecular Formula": "C10H8N2O4", "Melting Point": "167 \u00b0C"}}