{"cas_no": "522-12-3", "cn_name": "\u69f2\u76ae\u7519", "en_name": ["Quercitrin", "4H-1-Benzopyran-4-one, 3-[(6-deoxy-\u03b1-L-mannopyranosyl)oxy]-2-(3,4-dihydroxyphenyl)-5,7-dihydroxy-", "Quercitrin", "3-[(6-Deoxy-\u03b1-L-mannopyranosyl)oxy]-2-(3,4-dihydroxyphenyl)-5,7-dihydroxy-4H-1-benzopyran-4-one", "C.I. 75720", "3,3\u2032,4\u2032,5,7-Pentahydroxyflavone 3-\u03b1-L-rhamnoside", "Quercetin 3-\u03b1-L-rhamnoside", "Quercimelin", "Quercitroside", "Quercetin 3-rhamnoside", "Quercetin 3-O-\u03b1-L-rhamnoside", "Quercetin 3-O-\u03b1-L-rhamnopyranoside", "NSC 9221", "WA 17779", "3-O-\u03b1-L-Rhamnopyranosylquercetin", "Quercetin rhamnoside", "5,7,3\u2032,4\u2032-Tetrahydroxyflavone 3-O-\u03b1-L-rhamnoside", "Quercetin 3-\u03b1-rhamnoside", "Quercetin 3-O-rhamnoside", "Quercetin 3-O-\u03b1-rhamnopyranoside", "Quercetin 3-O-\u03b1-rhamnoside", "Quercetin 3-rhamnopyranoside"], "SMILES": "O(C1=C(OC=2C(C1=O)=C(O)C=C(O)C2)C3=CC(O)=C(O)C=C3)C4C(O)C(O)C(O)C(C)O4", "physical_data": {"Molecular Weight": "448.38", "Molecular Formula": "C21H20O11", "Melting Point": "170 \u00b0C"}}