{"cas_no": "522-00-9", "cn_name": "\u4e59\u4e19\u55ea", "en_name": ["(\u00b1)-Ethopropazine", "10H-Phenothiazine-10-ethanamine, N,N-diethyl-\u03b1-methyl-", "Phenothiazine, 10-[2-(diethylamino)propyl]-", "Prophenamine", "N,N-Diethyl-\u03b1-methyl-10H-phenothiazine-10-ethanamine", "SC 2538", "RP 3356", "2-Diethylamino-1-propyl-N-dibenzoparathiazine", "10-(2-Diethylaminopropyl)phenothiazine", "Ethopropazine", "Phenopropazine", "Profenamine", "Ethopromazine", "Isothazine", "Parsidol", "10-(2-Diethylamino-1-propyl)phenothiazine", "10-(2-Diethylamino-2-methylethyl)phenothiazine", "Parkin", "Isothiazine", "W 483", "Ethapropazine", "(\u00b1)-Ethopropazine", "(\u00b1)-Profenamine", "Isopthazine", "N,N-Diethyl-1-(10H-phenothiazin-10-yl)-2-propanamine", "Parkin (pharmaceutical)"], "SMILES": "C(C(N(CC)CC)C)N1C=2C(SC=3C1=CC=CC3)=CC=CC2", "physical_data": {"Molecular Weight": "312.47", "Molecular Formula": "C19H24N2S", "Boiling Point": "190-193 \u00b0C @ Press: 0.5 Torr", "Melting Point": "64.5 \u00b0C"}}