{"cas_no": "522-30-5", "cn_name": "\u53bb\u7532\u8840\u6839\u78b1", "en_name": ["Norsanguinarine", "[1,3]Benzodioxolo[5,6-c]-1,3-dioxolo[4,5-i]phenanthridine", "13-Demethylsanguinarine", "1,3-Dioxolo[i][1,3]dioxolo[4,5]benzo[1,2-c]phenanthridine", "Norsanguinarine", "N-Norsanguinarine", "NSC 143762", "Demethylsanguinarine"], "SMILES": "C12=C(C=3C(C=C1)=CC4=C(C3)OCO4)N=CC=5C2=CC=C6C5OCO6", "physical_data": {"Molecular Weight": "317.29", "Molecular Formula": "C19H11NO4", "Melting Point": "279-280 \u00b0C"}}