{"cas_no": "52200-22-3", "cn_name": "3-(\u4e8c\u7532\u57fa\u6c28\u57fa)-2-(2-\u567b\u5429\u7532\u9170\u57fa)\u4e19\u70ef\u8148", "en_name": ["\u03b1-[(Dimethylamino)methylene]-\u03b2-oxo-2-thiophenepropanenitrile", "2-Thiophenepropanenitrile, \u03b1-[(dimethylamino)methylene]-\u03b2-oxo-", "\u03b1-[(Dimethylamino)methylene]-\u03b2-oxo-2-thiophenepropanenitrile", "3-(Dimethylamino)-2-(2-thenoyl)acrylonitrile"], "SMILES": "C(C(=CN(C)C)C#N)(=O)C1=CC=CS1", "physical_data": {"Molecular Weight": "206.26", "Molecular Formula": "C10H10N2OS", "Melting Point": "153-154 \u00b0C"}}