{"cas_no": "52200-48-3", "cn_name": "3-\u6eb4-2-\u6c2f\u5421\u5576", "en_name": ["3-Bromo-2-chloropyridine", "Pyridine, 3-bromo-2-chloro-", "3-Bromo-2-chloropyridine", "2-Chloro-3-bromopyridine"], "SMILES": "BrC1=C(Cl)N=CC=C1", "physical_data": {"Molecular Weight": "192.44", "Molecular Formula": "C5H3BrClN", "Boiling Point": "95-97 \u00b0C @ Press: 10 Torr", "Melting Point": "53-56 \u00b0C"}}