{"cas_no": "5220-02-0", "cn_name": "\u5730\u897f\u6cee\u6742\u8d28B", "en_name": ["3-Amino-6-chloro-1-methyl-4-phenyl-2(1H)-quinolinone", "2(1H)-Quinolinone, 3-amino-6-chloro-1-methyl-4-phenyl-", "Carbostyril, 3-amino-6-chloro-1-methyl-4-phenyl-", "3-Amino-6-chloro-1-methyl-4-phenyl-2(1H)-quinolinone", "3-Amino-1,2-dihydro-6-chloro-1-methyl-4-phenylquinolin-2(1H)-one", "2(1H)-Quinolone, 3-amino-6-chloro-1-methyl-4-phenyl-", "3-Amino-6-chloro-1-methyl-4-phenylcarbostyril", "3-Amino-6-chloro-1-methyl-4-phenylquinolin-2-one"], "SMILES": "NC1=C(C=2C(N(C)C1=O)=CC=C(Cl)C2)C3=CC=CC=C3", "physical_data": {"Molecular Weight": "284.74", "Molecular Formula": "C16H13ClN2O", "Melting Point": "130-133 \u00b0C"}}