{"cas_no": "52200-49-4", "cn_name": "2-\u82c4\u6c27\u57fa-3-\u6eb4\u5421\u5576", "en_name": ["3-Bromo-2-(phenylmethoxy)pyridine", "Pyridine, 3-bromo-2-(phenylmethoxy)-", "3-Bromo-2-(phenylmethoxy)pyridine", "2-(Benzyloxy)-3-bromopyridine"], "SMILES": "O(CC1=CC=CC=C1)C2=C(Br)C=CC=N2", "physical_data": {"Molecular Weight": "264.12", "Molecular Formula": "C12H10BrNO", "Boiling Point": "175-178 \u00b0C @ Press: 6 Torr"}}