{"cas_no": "52208-56-7", "cn_name": "2,6-\u4e8c\u6c1f-3-\u6c2f\u5421\u5576", "en_name": ["3-Chloro-2,6-difluoropyridine", "Pyridine, 3-chloro-2,6-difluoro-", "3-Chloro-2,6-difluoropyridine", "2,6-Difluoro-3-chloropyridine"], "SMILES": "FC1=C(Cl)C=CC(F)=N1", "physical_data": {"Molecular Weight": "149.53", "Molecular Formula": "C5H2ClF2N", "Boiling Point": "151 \u00b0C @ Press: 760 Torr"}}