{"cas_no": "5220-49-5", "cn_name": "3-\u6c28\u57fa-2-\u73af\u5df1\u70ef-1-\u916e", "en_name": ["3-Amino-2-cyclohexen-1-one", "2-Cyclohexen-1-one, 3-amino-", "3-Amino-2-cyclohexen-1-one", "3-Amino-2-cyclohexene-1-one", "NSC 106700", "3-Aminocyclohex-2-en-1-one", "1-Amino-3-oxo-1-cyclohexene"], "SMILES": "NC1=CC(=O)CCC1", "physical_data": {"Molecular Weight": "111.14", "Molecular Formula": "C6H9NO", "Melting Point": "126-131 \u00b0C"}}