{"cas_no": "52200-90-5", "cn_name": "4-\u6c28\u57fa-2-\u7532\u6c27\u57fa\u82ef\u915a", "en_name": ["4-Amino-2-methoxyphenol", "Phenol, 4-amino-2-methoxy-", "Guaiacol, 4-amino-", "4-Amino-2-methoxyphenol", "4-Aminoguaiacol", "2-Methoxy-4-aminophenol", "4-Hydroxy-3-methoxyaniline", "NSC 405988", "3-Methoxy-4-hydroxyaniline"], "SMILES": "O(C)C1=C(O)C=CC(N)=C1", "physical_data": {"Molecular Weight": "139.15", "Molecular Formula": "C7H9NO2", "Melting Point": "177-178 \u00b0C"}}