{"cas_no": "52217-57-9", "cn_name": "7-\u8f9b\u70ef\u57fa\u4e09\u7532\u6c27\u57fa\u7845\u70f7", "en_name": ["(7-Octen-1-yl)trimethoxysilane", "Silane, trimethoxy-7-octen-1-yl-", "Silane, trimethoxy-7-octenyl-", "Trimethoxy-7-octen-1-ylsilane", "8-(Trimethoxysilyl)-1-octene", "Oct-7-enyltrimethoxysilane", "(7-Octen-1-yl)trimethoxysilane", "TM 7O1S", "KBM 1083", "M 61776"], "SMILES": "[Si](CCCCCCC=C)(OC)(OC)OC", "physical_data": {"Molecular Weight": "232.39", "Molecular Formula": "C11H24O3Si", "Boiling Point": "48-49 \u00b0C @ Press: 0.1 Torr", "Density": "0.94 g/cm\u00b3"}}