{"cas_no": "52212-02-9", "cn_name": "\u54cc\u5e93\u6eb4\u94f5", "en_name": ["Pipecuronium bromide", "Piperazinium, 4,4\u2032-[(2\u03b2,3\u03b1,5\u03b1,16\u03b2,17\u03b2)-3,17-bis(acetyloxy)androstane-2,16-diyl]bis[1,1-dimethyl-, bromide (1:2)", "Piperazinium, 4,4\u2032-[(2\u03b2,3\u03b1,5\u03b1,16\u03b2,17\u03b2)-3,17-bis(acetyloxy)androstane-2,16-diyl]bis[1,1-dimethyl-, dibromide", "Pipecuronium bromide", "RGH 1106", "Arduan", "Pipecurium bromide"], "SMILES": "CC12C(C3C(C4(C)C(CC3)CC(OC(C)=O)C(C4)N5CC[N+](C)(C)CC5)CC1)CC(C2OC(C)=O)N6CC[N+](C)(C)CC6.[Br-]", "physical_data": {"Molecular Weight": "", "Molecular Formula": "C35H62N4O4.2Br", "Melting Point": "262-264 \u00b0C (decomp)"}}