{"cas_no": "52217-52-4", "cn_name": "7-\u8f9b\u57fa-1-\u7094\u4e09\u6c2f\u7845\u70f7", "en_name": ["7-Octenyltrichlorosilane", "Silane, trichloro-7-octen-1-yl-", "Silane, trichloro-7-octenyl-", "Trichloro-7-octen-1-ylsilane", "Trichloro-7-octenylsilane", "7-Octenyltrichlorosilane", "Trichloro-7-oct-1-enylsilane", "7-Oct-1-enyltrichlorosilane"], "SMILES": "C(CCCCCC=C)[Si](Cl)(Cl)Cl", "physical_data": {"Molecular Weight": "245.65", "Molecular Formula": "C8H15Cl3Si", "Boiling Point": "223-224 \u00b0C", "Density": "1.070 g/cm\u00b3"}}