{"cas_no": "5221-42-1", "cn_name": "4-\u4e59\u9178\u80fa\u57fa\u5627\u5576", "en_name": ["N-4-Pyridinylacetamide", "Acetamide, N-4-pyridinyl-", "Acetamide, N-4-pyridyl-", "Pyridine, 4-acetamido-", "N-4-Pyridinylacetamide", "4-Acetamidopyridine", "Phillips 2038", "4-(Acetylamino)pyridine", "N-Acetyl-4-pyridinamine", "N-(4-Pyridyl)acetamide", "N-(Pyridin-4-yl)acetamide"], "SMILES": "N(C(C)=O)C=1C=CN=CC1", "physical_data": {"Molecular Weight": "136.15", "Molecular Formula": "C7H8N2O", "Melting Point": "148 \u00b0C"}}