{"cas_no": "5221-17-0", "cn_name": "2,3-\u4e8c\u6eb4\u4e19\u919b", "en_name": ["2,3-Dibromopropanal", "Propanal, 2,3-dibromo-", "Propionaldehyde, 2,3-dibromo-", "2,3-Dibromopropanal", "2,3-Dibromopropionaldehyde", "Acrolein dibromide", "2,3-Dibromopropional", "NSC 6737"], "SMILES": "C(CBr)(C=O)Br", "physical_data": {"Molecular Weight": "215.87", "Molecular Formula": "C3H4Br2O", "Boiling Point": "79-80 \u00b0C @ Press: 14 Torr", "Density": "2.192 g/cm\u00b3 @ Temp: 20 \u00b0C"}}