{"cas_no": "52217-53-5", "cn_name": "1,8-\u53cc(\u4e09\u6c2f\u7532\u7845\u70f7\u57fa)\u8f9b\u70f7", "en_name": ["1,1\u2032-(1,8-Octanediyl)bis[1,1,1-trichlorosilane]", "Silane, 1,1\u2032-(1,8-octanediyl)bis[1,1,1-trichloro-", "Silane, 1,8-octanediylbis[trichloro-", "1,1\u2032-(1,8-Octanediyl)bis[1,1,1-trichlorosilane]", "1,8-Bis(trichlorosilyl)octane"], "SMILES": "C([Si](Cl)(Cl)Cl)CCCCCCC[Si](Cl)(Cl)Cl", "physical_data": {"Molecular Weight": "381.10", "Molecular Formula": "C8H16Cl6Si2", "Boiling Point": "140 \u00b0C @ Press: 1 Torr", "Density": "1.220 g/cm\u00b3"}}