{"cas_no": "52217-60-4", "cn_name": "1,8-\u4e8c(\u4e09\u4e59\u6c27\u57fa\u7845\u70f7\u57fa)\u8f9b\u70f7", "en_name": ["1,8-Bis(triethoxysilyl)octane", "3,14-Dioxa-4,13-disilahexadecane, 4,4,13,13-tetraethoxy-", "4,4,13,13-Tetraethoxy-3,14-dioxa-4,13-disilahexadecane", "1,8-Bis(triethoxysilyl)octane", "SIB 1824", "SIB 1824,0", "BTESO"], "SMILES": "[Si](CCCCCCCC[Si](OCC)(OCC)OCC)(OCC)(OCC)OCC", "physical_data": {"Molecular Weight": "438.75", "Molecular Formula": "C20H46O6Si2", "Boiling Point": "172-175 \u00b0C @ Press: 0.75 Torr", "Density": "0.926 g/cm\u00b3"}}