{"cas_no": "52214-84-3", "cn_name": "\u73af\u4e19\u8d1d\u7279", "en_name": ["Ciprofibrate", "Propanoic acid, 2-[4-(2,2-dichlorocyclopropyl)phenoxy]-2-methyl-", "2-[4-(2,2-Dichlorocyclopropyl)phenoxy]-2-methylpropanoic acid", "2-[p-(2,2-Dichlorocyclopropyl)phenoxy]-2-methylpropionic acid", "Ciprofibrate", "Win 35833", "(\u00b1)-Ciprofibrate", "Lipanor", "Ciprol", "Modalim", "2-[4-(2,2-Dichloro-cyclopropyl)-phenoxy]-2-methyl-propionic acid"], "SMILES": "ClC1(Cl)C(C1)C2=CC=C(OC(C(O)=O)(C)C)C=C2", "physical_data": {"Molecular Weight": "289.15", "Molecular Formula": "C13H14Cl2O3", "Melting Point": "115 \u00b0C"}}