{"cas_no": "52222-74-9", "cn_name": "\u5c71\u5948\u915a-4'-O-\u0392-D-\u8461\u8404\u7cd6\u82f7", "en_name": ["Kaempferol 4\u2032-O-glucoside", "4H-1-Benzopyran-4-one, 2-[4-(\u03b2-D-glucopyranosyloxy)phenyl]-3,5,7-trihydroxy-", "2-[4-(\u03b2-D-Glucopyranosyloxy)phenyl]-3,5,7-trihydroxy-4H-1-benzopyran-4-one", "Kaempferol 4\u2032-O-glucoside", "Kaempferol 4\u2032-\u03b2-glucoside", "Kaempferol 4\u2032-glucoside", "Kaempferol 4\u2032-O-\u03b2-D-glucopyranoside"], "SMILES": "O=C1C=2C(OC(=C1O)C3=CC=C(OC4OC(CO)C(O)C(O)C4O)C=C3)=CC(O)=CC2O", "physical_data": {"Molecular Weight": "448.38", "Molecular Formula": "C21H20O11", "Melting Point": "223-225 \u00b0C"}}