{"cas_no": "52225-20-4", "cn_name": "VE \u7ef4\u751f\u7d20E-\u918b\u9178\u916f", "en_name": ["DL-\u03b1-Tocopherol acetate", "2H-1-Benzopyran-6-ol, 3,4-dihydro-2,5,7,8-tetramethyl-2-[(4R,8R)-4,8,12-trimethyltridecyl]-, 6-acetate, (2R)-rel-", "2H-1-Benzopyran-6-ol, 3,4-dihydro-2,5,7,8-tetramethyl-2-(4,8,12-trimethyltridecyl)-, acetate, [2R*(4R*,8R*)]-(\u00b1)-", "2H-1-Benzopyran-6-ol, 3,4-dihydro-2,5,7,8-tetramethyl-2-[(4R,8R)-4,8,12-trimethyltridecyl]-, acetate, (2R)-rel-", "DL-\u03b1-Tocopherol acetate", "DL-\u03b1-Tocopheryl acetate", "Ephynal", "Syntopherol acetate", "dl-\u03b1-Tocopherol acetate", "dl-\u03b1-Tocopheryl acetate", "(\u00b1)-\u03b1-Tocopherol acetate", "all-rac-\u03b1-Tocopheryl acetate", "Rovimix E 50SD", "Toco500", "E-Vimin", "OptoVit E", "dl-Vitamin E acetate", "Vitagutt", "Eusovit", "Detulin", "Rovimix E 50AS", "SynAC", "Rovimix E 50Ads", "Evigen", "Alfacol", "Fertilvit", "Gevex", "\u03b1-Tocopherol acetate", "\u03b1-Tocopheryl acetate", "Tocopherol acetate", "Diluvac Forte", "Rovimix E 50", "Rovimix E", "Dry Vitamin E 50% CWS/A", "Riken E Acetate 960", "[2,5,7,8-Tetramethyl-2-(4,8,12-trimethyltridecyl)-3,4-dihydrochromen-6-yl] acetate"], "SMILES": "CC1=C2C(=C(C)C(OC(C)=O)=C1C)CCC(CCCC(CCCC(CCCC(C)C)C)C)(C)O2", "physical_data": {"Molecular Weight": "472.74", "Molecular Formula": "C31H52O3", "Boiling Point": "184 \u00b0C @ Press: 0.01 Torr", "Melting Point": "-27.5 \u00b0C"}}