{"cas_no": "5223-06-3", "cn_name": "5-\u4e59\u57fa-2-\u5421\u5576\u4e59\u9187", "en_name": ["5-Ethyl-2-pyridineethanol", "2-Pyridineethanol, 5-ethyl-", "5-Ethyl-2-pyridineethanol", "5-Ethyl-2-(\u03b2-hydroxyethyl)pyridine", "2-(5-Ethyl-2-pyridinyl)ethanol", "2-(5-Ethyl-2-pyridyl)ethanol", "2-(5-Ethylpyridin-2-yl)ethanol", "5-Ethyl-2-(2-hydroxyethyl)pyridine", "2-(5-Ethylpyridin-2-yl)ethan-1-ol"], "SMILES": "C(CO)C1=CC=C(CC)C=N1", "physical_data": {"Molecular Weight": "151.21", "Molecular Formula": "C9H13NO", "Boiling Point": "125 \u00b0C @ Press: 3 Torr", "Density": "0.042 g/cm\u00b3 @ Temp: 42 \u00b0C"}}