{"cas_no": "52244-70-9", "cn_name": "4-(4-\u7532\u6c27\u57fa\u82ef\u57fa)-1-\u4e01\u9187", "en_name": ["4-Methoxybenzenebutanol", "Benzenebutanol, 4-methoxy-", "1-Butanol, 4-(p-methoxyphenyl)-", "4-Methoxybenzenebutanol", "4-(p-Methoxyphenyl)-1-butanol", "4-(4-Methoxyphenyl)butanol", "4-(4-Methoxyphenyl)-1-butanol", "4-(4-Hydroxybutyl)anisole", "NSC 141198"], "SMILES": "C(CCCO)C1=CC=C(OC)C=C1", "physical_data": {"Molecular Weight": "180.24", "Molecular Formula": "C11H16O2", "Boiling Point": "118-119 \u00b0C @ Press: 1.5 Torr", "Melting Point": "3.5 \u00b0C"}}