{"cas_no": "5227-53-2", "cn_name": "\u6c2e\u6742\u73af\u5e9a\u70f7-2-\u7532\u9178", "en_name": ["Azepan-2-carboxylic acid", "1H-Azepine-2-carboxylic acid, hexahydro-", "Azepine-2-carboxylic acid, hexahydro-", "Hexahydro-1H-azepine-2-carboxylic acid", "Hexahydroazepine-2-carboxylic acid", "NSC 86359", "Azepan-2-carboxylic acid", "Azepane-2-carboxylic acid"], "SMILES": "C(O)(=O)C1CCCCCN1", "physical_data": {"Molecular Weight": "143.18", "Molecular Formula": "C7H13NO2", "Melting Point": "208.0-208.5 \u00b0C"}}