{"cas_no": "5228-49-9", "cn_name": "1-\u7532\u57fa-5-\u785d\u57fa-1H-\u5432\u5511", "en_name": ["1-Methyl-5-nitroindazole", "1H-Indazole, 1-methyl-5-nitro-", "1-Methyl-5-nitro-1H-indazole", "1-Methyl-5-nitroindazole", "5-Nitro-1-methylindazole", "NSC 131656", "1-Methyl-5-nitro-1H-benzopyrazole"], "SMILES": "CN1C=2C(=CC(N(=O)=O)=CC2)C=N1", "physical_data": {"Molecular Weight": "177.16", "Molecular Formula": "C8H7N3O2", "Melting Point": "109 \u00b0C"}}