{"cas_no": "52287-51-1", "cn_name": "6-\u6eb4-1,4-\u82ef\u5e76\u6076\u70f7", "en_name": ["6-Bromo-1,4-benzodioxane", "1,4-Benzodioxin, 6-bromo-2,3-dihydro-", "6-Bromo-2,3-dihydro-1,4-benzodioxin", "6-Bromo-1,4-benzodioxan", "6-Bromo-1,4-benzodioxane", "3,4-Ethylenedioxybromobenzene", "4-Bromo-1,2-ethylenedioxybenzene", "6-Bromo-2,3-dihydrobenzo[b][1,4]dioxine"], "SMILES": "BrC=1C=C2C(=CC1)OCCO2", "physical_data": {"Molecular Weight": "215.04", "Molecular Formula": "C8H7BrO2", "Boiling Point": "153-154 \u00b0C @ Press: 23 Torr"}}