{"cas_no": "52286-74-5", "cn_name": "\u4eba\u53c2\u7682\u82f7 Rg2", "en_name": ["Ginsenoside Rg2", "\u03b2-D-Glucopyranoside, (3\u03b2,6\u03b1,12\u03b2)-3,12,20-trihydroxydammar-24-en-6-yl 2-O-(6-deoxy-\u03b1-L-mannopyranosyl)-", "Dammarane, \u03b2-D-glucopyranoside deriv.", "(3\u03b2,6\u03b1,12\u03b2)-3,12,20-Trihydroxydammar-24-en-6-yl 2-O-(6-deoxy-\u03b1-L-mannopyranosyl)-\u03b2-D-glucopyranoside", "Ginsenoside Rg2", "Chikusetsusaponin I", "Prosapogenin C2", "Panaxoside Rg2", "GF VI", "20(S)-Ginsenoside Rg2", "Ginsenoside 20-Rg2", "S-Ginsenoside Rg2", "Ginsenoside Rg2s", "Rg2 ginsenoside", "Rg2 ginsenoside"], "SMILES": "CC12C3(C)C(C(C(CCC=C(C)C)(C)O)CC3)C(O)CC1C4(C)C(C(OC5C(OC6C(O)C(O)C(O)C(C)O6)C(O)C(O)C(CO)O5)C2)C(C)(C)C(O)CC4", "physical_data": {"Molecular Weight": "785.01", "Molecular Formula": "C42H72O13", "Melting Point": "187-189 \u00b0C"}}