{"cas_no": "52286-59-6", "cn_name": "\u4eba\u53c2\u7682\u7519 Re", "en_name": ["Ginsenoside Re", "\u03b2-D-Glucopyranoside, (3\u03b2,6\u03b1,12\u03b2)-20-(\u03b2-D-glucopyranosyloxy)-3,12-dihydroxydammar-24-en-6-yl 2-O-(6-deoxy-\u03b1-L-mannopyranosyl)-", "(3\u03b2,6\u03b1,12\u03b2)-20-(\u03b2-D-Glucopyranosyloxy)-3,12-dihydroxydammar-24-en-6-yl 2-O-(6-deoxy-\u03b1-L-mannopyranosyl)-\u03b2-D-glucopyranoside", "Ginsenoside Re", "Chikusetsusaponin IVc", "Ginsenoside B2", "Panaxoside Re", "Sanchinoside Re", "NSC 308877", "Notoginsenoside Re", "Re ginsenoside"], "SMILES": "CC12C(C3(C)C(C(OC4C(OC5C(O)C(O)C(O)C(C)O5)C(O)C(O)C(CO)O4)C1)C(C)(C)C(O)CC3)CC(O)C6C2(C)CCC6C(OC7OC(CO)C(O)C(O)C7O)(CCC=C(C)C)C", "physical_data": {"Molecular Weight": "947.15", "Molecular Formula": "C48H82O18", "Melting Point": "200-203 \u00b0C"}}