{"cas_no": "523-27-3", "cn_name": "9,10-\u4e8c\u6eb4\u84bd", "en_name": ["9,10-Dibromoanthracene", "Anthracene, 9,10-dibromo-", "9,10-Dibromoanthracene", "NSC 6263"], "SMILES": "BrC=1C2=C(C(Br)=C3C1C=CC=C3)C=CC=C2", "physical_data": {"Molecular Weight": "336.02", "Molecular Formula": "C14H8Br2", "Melting Point": "226 \u00b0C", "Density": "1.983 g/cm\u00b3"}}