{"cas_no": "523-59-1", "cn_name": "\u90aa\u84bf\u7d20", "en_name": ["Seselin", "2H,8H-Benzo[1,2-b:3,4-b\u2032]dipyran-2-one, 8,8-dimethyl-", "Seselin", "2H-1-Benzopyran-6-acrylic acid, 5-hydroxy-2,2-dimethyl-, \u03b4-lactone", "8,8-Dimethyl-2H,8H-benzo[1,2-b:3,4-b\u2032]dipyran-2-one", "Amyrolin", "Seseline"], "SMILES": "O=C1OC=2C3=C(C=CC2C=C1)OC(C)(C)C=C3", "physical_data": {"Molecular Weight": "228.24", "Molecular Formula": "C14H12O3", "Melting Point": "119-124 \u00b0C", "Density": "1.351 g/cm\u00b3 @ Temp: 18 \u00b0C"}}