{"cas_no": "523-31-9", "cn_name": "\u90bb\u82ef\u4e8c\u7532\u9178\u4e8c\u82c4\u916f", "en_name": ["Benzyl phthalate", "1,2-Benzenedicarboxylic acid, 1,2-bis(phenylmethyl) ester", "Phthalic acid, dibenzyl ester", "1,2-Benzenedicarboxylic acid, bis(phenylmethyl) ester", "Benzyl phthalate", "Dibenzyl phthalate", "NSC 4057"], "SMILES": "C(OCC1=CC=CC=C1)(=O)C2=C(C(OCC3=CC=CC=C3)=O)C=CC=C2", "physical_data": {"Molecular Weight": "346.38", "Molecular Formula": "C22H18O4", "Boiling Point": "280 \u00b0C @ Press: 12 Torr", "Melting Point": "44 \u00b0C"}}