{"cas_no": "523-66-0", "cn_name": "\u5434\u8331\u8438\u6625\u78b1", "en_name": ["Evolitrine", "Furo[2,3-b]quinoline, 4,7-dimethoxy-", "Evolitrine", "4,7-Dimethoxyfuro[2,3-b]quinoline", "Evolitrin", "7-Methoxydictamnine"], "SMILES": "O(C)C=1C=2C(N=C3C1C=CO3)=CC(OC)=CC2", "physical_data": {"Molecular Weight": "229.23", "Molecular Formula": "C13H11NO3", "Melting Point": "114-115 \u00b0C"}}