{"cas_no": "523-39-7", "cn_name": "\u7ef4\u751f\u7d20 K2(45)", "en_name": ["Menaquinone 9", "1,4-Naphthalenedione, 2-methyl-3-[(2E,6E,10E,14E,18E,22E,26E,30E)-3,7,11,15,19,23,27,31,35-nonamethyl-2,6,10,14,18,22,26,30,34-hexatriacontanonaen-1-yl]-", "1,4-Naphthoquinone, 2-methyl-3-(3,7,11,15,19,23,27,31,35-nonamethyl-2,6,10,14,18,22,26,30,34-hexatriacontanonaenyl)-", "Vitamin K2(45)", "1,4-Naphthalenedione, 2-methyl-3-(3,7,11,15,19,23,27,31,35-nonamethyl-2,6,10,14,18,22,26,30,34-hexatriacontanonaenyl)-, (all-E)-", "1,4-Naphthalenedione, 2-methyl-3-[(2E,6E,10E,14E,18E,22E,26E,30E)-3,7,11,15,19,23,27,31,35-nonamethyl-2,6,10,14,18,22,26,30,34-hexatriacontanonaenyl]-", "2-Methyl-3-[(2E,6E,10E,14E,18E,22E,26E,30E)-3,7,11,15,19,23,27,31,35-nonamethyl-2,6,10,14,18,22,26,30,34-hexatriacontanonaen-1-yl]-1,4-naphthalenedione", "Menaquinone 9", "Vitamin MK 9", "MK9", "Menaquinone MK 9", "Vitamin K2-9"], "SMILES": "O=C1C=2C(C(=O)C(C)=C1CC=C(CCC=C(CCC=C(CCC=C(CCC=C(CCC=C(CCC=C(CCC=C(CCC=C(C)C)C)C)C)C)C)C)C)C)=CC=CC2", "physical_data": {"Molecular Weight": "785.23", "Molecular Formula": "C56H80O2", "Melting Point": "60-61 \u00b0C"}}