{"cas_no": "523-80-8", "cn_name": "\u6d0b\u82b9\u8166", "en_name": ["Apiole", "1,3-Benzodioxole, 4,7-dimethoxy-5-(2-propen-1-yl)-", "Apiole", "Benzene, 1-allyl-2,5-dimethoxy-3,4-(methylenedioxy)-", "1,3-Benzodioxole, 4,7-dimethoxy-5-(2-propenyl)-", "4,7-Dimethoxy-5-(2-propen-1-yl)-1,3-benzodioxole", "1-Allyl-2,5-dimethoxy-3,4-methylenedioxybenzene", "Parsley camphor", "Apiol", "Parsley apiole", "1,2-Methylenedioxy-3,6-dimethoxy-4-allylbenzene", "Apioline", "5-Allyl-4,7-dimethoxy-1,3-benzodioxole", "Petersilienapiol", "NSC 9070", "4,7-Dimethoxy-5-(2-propenyl)-1,3-benzodioxole"], "SMILES": "O(C)C1=C2C(=C(OC)C=C1CC=C)OCO2", "physical_data": {"Molecular Weight": "222.24", "Molecular Formula": "C12H14O4", "Boiling Point": "294 \u00b0C", "Melting Point": "29.5 \u00b0C", "Density": "1.176 g/cm\u00b3 @ Temp: 14 \u00b0C"}}