{"cas_no": "523-50-2", "cn_name": "\u5f02\u8865\u9aa8\u8102\u7d20", "en_name": ["Isopsoralen", "2H-Furo[2,3-h]-1-benzopyran-2-one", "Isopsoralen", "Angelicin (coumarin derivative)", "2-Propenoic acid, 3-(4-hydroxy-5-benzofuranyl)-, \u03b4-lactone", "Angelicin", "Furo[5\u2032,4\u2032:7,8]coumarin", "Angecin", "Furo[2,3-h]coumarin", "NSC 404563", "2H-Furo[2,3-h]chromen-2-one"], "SMILES": "O=C1OC=2C3=C(C=CC2C=C1)OC=C3", "physical_data": {"Molecular Weight": "186.16", "Molecular Formula": "C11H6O3", "Melting Point": "142 \u00b0C"}}