{"cas_no": "523-44-4", "cn_name": "\u6a59\u9ec4\u2160", "en_name": ["Orange I", "Benzenesulfonic acid, 4-[2-(4-hydroxy-1-naphthalenyl)diazenyl]-, sodium salt (1:1)", "C.I. Acid Orange 20, monosodium salt", "Benzenesulfonic acid, 4-[(4-hydroxy-1-naphthalenyl)azo]-, monosodium salt", "C.I. Acid Orange 20", "C.I. 14600", "Acid Leather Orange I", "Acid Orange I", "Aizen Orange I", "Certiqual Orange I", "Dye orange No. 1", "Eniacid Orange I", "Ext D and C Orange No. 3", "Hispacid Orange 1", "Java Orange I", "Naphthalene Orange I", "Neklacid Orange 1", "Orange I", "1333 Orange", "Orange I Extra Conc. A Export", "Orange IM", "A.F. Orange No. 1", "4-p-Sulfophenylazo-1-naphthol monosodium salt", "Tertracid Orange I", "\u03b1-Naphthol Orange", "External D and C Orange Number 3", "FD and C Orange No. 1", "Orange 1 sodium salt", "Tropaeolin 1", "Acid Orange 20", "Naphthol Orange", "Tropaeolin OOO 1", "Yellow 404", "Japan Orange 402", "Japan Orange No. 402", "Japan Orange 1", "FD and C Orange 1", "Ext D &", "C Orange 3", "Orange 402", "Orange No. 402"], "SMILES": "N(=NC1=CC=C(S(=O)(=O)O)C=C1)C=2C3=C(C(O)=CC2)C=CC=C3.[Na]", "physical_data": {"Molecular Weight": "", "Molecular Formula": "C16H12N2O4S.Na", "Melting Point": "260 \u00b0C (decomp)"}}