{"cas_no": "523-92-2", "cn_name": "\u7ea2\u6749\u9187", "en_name": ["Sequoyitol", "myo-Inositol, 5-O-methyl-", "Sequoyitol", "Inositol, 5-O-methyl-, myo-", "5-O-Methyl-myo-inositol", "Sequoyit"], "SMILES": "O(C)C1C(O)C(O)C(O)C(O)C1O", "physical_data": {"Molecular Weight": "194.18", "Molecular Formula": "C7H14O6", "Melting Point": "238-241 \u00b0C"}}