{"cas_no": "523-87-5", "cn_name": "\u8336\u82ef\u6d77\u660e", "en_name": ["Dimenhydrinate", "1H-Purine-2,6-dione, 8-chloro-3,7-dihydro-1,3-dimethyl-, compd. with 2-(diphenylmethoxy)-N,N-dimethylethanamine (1:1)", "Dimenhydrinate", "Theophylline, 8-chloro-, compd. with 2-(diphenylmethoxy)-N,N-dimethylethylamine (1:1)", "Ethylamine, 2-(diphenylmethoxy)-N,N-dimethyl-, compd. with 8-chlorotheophylline (1:1)", "Ethanamine, 2-(diphenylmethoxy)-N,N-dimethyl-, compd. with 8-chloro-3,7-dihydro-1,3-dimethyl-1H-purine-2,6-dione (1:1)", "Amosyt", "Anautine", "Andramine", "Chloranautine", "Diamarin", "2-(Diphenylmethoxy)-N,N-dimethylethylamine 8-chlorotheophyllinate", "Dramamine", "Dramarin", "Dramyl", "Gravol", "Menhydrinate", "Novamin", "Novamine", "Supremal", "Travelin", "Travelmin", "Vomex A", "Xamamina", "Aviomarin", "Diphenhydrinate", "Gravinol", "Dramamin", "Reise-Engletten", "Neo-Navigan", "Dromyl", "Teodramin", "Permital", "Diphenhydramine 8-chlorotheophyllinate", "Gravinol (antiemetic)", "Emedyl", "Dramocen", "Removine", "Reidamine", "Dommanate", "Faston", "Epha", "Emes", "Antemin", "Dimate", "Travel-Gum", "NSC 117855", "Theohydramine", "Dimigal", "Dramina", "Dramin", "MeSH ID: D004111"], "SMILES": "C(OCCN(C)C)(C1=CC=CC=C1)C2=CC=CC=C2.O=C1C2=C(N(C)C(=O)N1C)N=C(Cl)N2", "physical_data": {"Molecular Weight": "", "Molecular Formula": "C17H21NO.C7H7ClN4O2", "Melting Point": "102-107 \u00b0C"}}