{"cas_no": "52301-88-9", "cn_name": "(2-\u6c2f-4\u785d\u57fa\u82c4\u9187)\u7532\u9187", "en_name": ["2-Chloro-4-nitrobenzenemethanol", "Benzenemethanol, 2-chloro-4-nitro-", "Benzyl alcohol, 2-chloro-4-nitro-", "2-Chloro-4-nitrobenzenemethanol", "p-Nitro-6-chlorobenzyl alcohol", "2-Chloro-4-nitrobenzyl alcohol", "(2-Chloro-4-nitrophenyl)methanol"], "SMILES": "N(=O)(=O)C1=CC(Cl)=C(CO)C=C1", "physical_data": {"Molecular Weight": "187.58", "Molecular Formula": "C7H6ClNO3", "Melting Point": "83 \u00b0C"}}