{"cas_no": "5230-78-4", "cn_name": "2,3,5,6-\u56db\u6c1f\u7532\u82ef", "en_name": ["1,2,4,5-Tetrafluoro-3-methylbenzene", "Benzene, 1,2,4,5-tetrafluoro-3-methyl-", "Toluene, 2,3,5,6-tetrafluoro-", "1,2,4,5-Tetrafluoro-3-methylbenzene", "2,3,5,6-Tetrafluorotoluene", "NSC 97004"], "SMILES": "FC1=C(C)C(F)=C(F)C=C1F", "physical_data": {"Molecular Weight": "164.10", "Molecular Formula": "C7H4F4", "Boiling Point": "125.5 \u00b0C"}}