{"cas_no": "52315-07-8", "cn_name": "\u6c2f\u6c30\u83ca\u916f", "en_name": ["Cypermethrin", "Cyclopropanecarboxylic acid, 3-(2,2-dichloroethenyl)-2,2-dimethyl-, cyano(3-phenoxyphenyl)methyl ester", "NRDC 149", "Cypermethrin", "WL 43467", "\u03b1-Cyano-m-phenoxybenzyl 3-(2,2-dichlorovinyl)-2,2-dimethylcyclopropanecarboxylate", "NRDC 166", "Ripcord", "Ardap", "CCN 52", "FMC 30980", "JF 5705F", "Cymbush", "FMC 45497", "NRDC 160", "FMC 45806", "WL 8517", "Ammo (pesticide)", "Ammo", "EXP 5598", "Antiborer 3767", "Nurele", "RU 27998", "Cyperkill", "Agrothrin", "Cyperil", "Sherpa", "SF 06646", "Ambush CY", "Ectomin", "Cypor", "Polytrin", "Colt", "Ambush C", "Basathrin", "Barricade 10EC", "YT 305", "Barricade", "Cymperator", "Supercypermethrin", "Vucht 424", "Kordon", "Ectopor", "Hilcyperin", "Barricade (insecticide)", "Demon", "Prevail", "Demon TC", "PYR-VU-TO 2", "Supermethrin", "Asymmethrin", "Supercypermethrin forte", "Prevail FT", "Cympa-Ti", "Neramethrin EC 50", "Neramethrin", "Ripcord 10", "Peststop B", "Peststop B 5SC", "Cyperco", "Fenom (pesticide)", "Summerin", "Ralothrin", "Supersect", "Nurse Green", "Robust", "Arrivo", "Drago", "Ustaad", "Kreokhin", "Creokhin", "Fenom", "Excis", "Trofy", "Prevail (pesticide)", "Ecofleece Sheep Dip (Non-OP)", "Ronatak", "Luseweilei", "Leptocide", "LW 1", "Cybil", "Cymet", "Kral", "Almetrin", "Agrometrin", "Cilcord", "Dimcyp", "Barrage", "Flytick", "Battery (insecticide)", "FMC 6113", "Kinmix", "Bandit", "Toppel", "Taran", "Holster", "Colt (pyrethrinoid insecticide)", "Assist 25CS", "Cymtop", "Cynoff EC", "Cynoff WP", "Cipkord", "Sniper", "Sniper (pyrethroid insecticide)", "Cyperfor S", "Auzar 25 EC", "Cypermethrin 25EC", "Challenger 25EC", "Challenger", "Dudu Cyper", "Cyper Lacer", "Cyper Lacer 5EC", "Tsifoks", "Tianlongbao", "CYPER PLUS", "Green Weilei", "Nortox 250EC"], "SMILES": "C(OC(C#N)C1=CC(OC2=CC=CC=C2)=CC=C1)(=O)C3C(C=C(Cl)Cl)C3(C)C", "physical_data": {"Molecular Weight": "416.30", "Molecular Formula": "C22H19Cl2NO3", "Melting Point": "80.5 \u00b0C", "Density": "1.25 g/cm\u00b3 @ Temp: 20 \u00b0C"}}