{"cas_no": "52313-87-8", "cn_name": "3-\u7532\u57fa\u620a-2-\u70ef\u4e8c\u9178\u4e8c\u7532\u916f", "en_name": ["1,5-Dimethyl 3-methyl-2-pentenedioate", "2-Pentenedioic acid, 3-methyl-, 1,5-dimethyl ester", "2-Pentenedioic acid, 3-methyl-, dimethyl ester", "Glutaconic acid, 3-methyl-, dimethyl ester", "1,5-Dimethyl 3-methyl-2-pentenedioate", "Dimethyl \u03b2-methylglutaconate", "Dimethyl 3-methylglutaconate"], "SMILES": "C(CC(OC)=O)(=CC(OC)=O)C", "physical_data": {"Molecular Weight": "172.18", "Molecular Formula": "C8H12O4", "Boiling Point": "109-110 \u00b0C @ Press: 12 Torr"}}