{"cas_no": "52311-43-0", "cn_name": "[4,4-\u8054\u5421\u5576]-3-\u80fa", "en_name": ["[4,4\u2032-Bipyridin]-3-amine", "[4,4\u2032-Bipyridin]-3-amine", "3-Amino-4-(4-pyridyl)pyridine", "3-Amino-4,4\u2032-bipyridine"], "SMILES": "NC=1C(C=2C=CN=CC2)=CC=NC1", "physical_data": {"Molecular Weight": "171.20", "Molecular Formula": "C10H9N3", "Melting Point": "166-168 \u00b0C"}}