{"cas_no": "52315-06-7", "cn_name": "\u4e09\u82ef\u6c27\u57fa\u82ef\u7532\u919b", "en_name": ["\u03b1-Cyano-3-phenoxybenzyl alcohol", "Benzeneacetonitrile, \u03b1-hydroxy-3-phenoxy-", "\u03b1-Hydroxy-3-phenoxybenzeneacetonitrile", "3-Phenoxy-\u03b1-cyanobenzyl alcohol", "\u03b1-Cyano-m-phenoxybenzyl alcohol", "3-Phenoxybenzaldehyde cyanohydrin", "(m-Phenoxyphenyl)glycolonitrile", "m-Phenoxymandelonitrile", "\u03b1-Cyano-3-phenoxybenzyl alcohol", "3-Phenoxymandelonitrile", "m-Phenoxybenzaldehyde cyanohydrin", "(\u00b1)-\u03b1-Cyano-3-phenoxybenzyl alcohol", "(RS)-\u03b1-Cyano-3-phenoxybenzyl alcohol", "2-Hydroxy-2-(3-phenoxyphenyl)acetonitrile"], "SMILES": "O(C1=CC(C(C#N)O)=CC=C1)C2=CC=CC=C2", "physical_data": {"Molecular Weight": "225.24", "Molecular Formula": "C14H11NO2", "Melting Point": "79 \u00b0C"}}