{"cas_no": "5231-60-7", "cn_name": "VINDOROSINE", "en_name": ["Vindorosine", "Aspidospermidine-3-carboxylic acid, 4-(acetyloxy)-6,7-didehydro-3-hydroxy-1-methyl-, methyl ester, (2\u03b2,3\u03b2,4\u03b2,5\u03b1,12R,19\u03b1)-", "Vindorosine", "Aspidospermidine-3-carboxylic acid, 4-(acetyloxy)-6,7-didehydro-3-hydroxy-1-methyl-, methyl ester, (2\u03b2,3\u03b2,4\u03b2,5\u03b1,12\u03b2,19\u03b1)-", "1H-Indolizino[8,1-cd]carbazole, aspidospermidine-3-carboxylic acid deriv.", "Vindolidine", "Demethoxyvindoline", "Vindorosin", "Vindolidin", "(+)-Vindorosine", "NSC 94038"], "SMILES": "C(C)C12C3C4(C(C(C(OC)=O)(O)C1OC(C)=O)N(C)C=5C4=CC=CC5)CCN3CC=C2", "physical_data": {"Molecular Weight": "426.51", "Molecular Formula": "C24H30N2O5", "Melting Point": "167 \u00b0C"}}