{"cas_no": "5231-96-9", "cn_name": "2-\u4e59\u9170\u6c28\u57fa\u5421\u5576", "en_name": ["N-2-Pyridinylacetamide", "Acetamide, N-2-pyridinyl-", "Acetamide, N-2-pyridyl-", "Pyridine, 2-acetamido-", "N-2-Pyridinylacetamide", "2-Acetamidopyridine", "2-Acetylaminopyridine", "N-2-Pyridylacetamide", "N-(2-Pyridinyl)acetamide", "NSC 28291"], "SMILES": "N(C(C)=O)C1=CC=CC=N1", "physical_data": {"Molecular Weight": "136.15", "Molecular Formula": "C7H8N2O", "Melting Point": "69-71 \u00b0C"}}