{"cas_no": "5231-87-8", "cn_name": "\u65b9\u9178\u4e8c\u4e59\u916f", "en_name": ["Diethyl squarate", "3-Cyclobutene-1,2-dione, 3,4-diethoxy-", "Cyclobutenedione, diethoxy-", "3,4-Diethoxy-3-cyclobutene-1,2-dione", "Diethoxycyclobutenedione", "Diethyl squarate", "1,2-Diethoxy-1-cyclobutene-3,4-dione", "3,4-Diethoxycyclobutene-1,2-dione", "Diethyl quadratate", "1,2-Diethoxy-3,4-dioxocyclobut-1-ene", "1,2-Diethoxycyclobutenedione", "Diethoxycyclobut-3-ene-1,2-dione"], "SMILES": "O(CC)C1=C(OCC)C(=O)C1=O", "physical_data": {"Molecular Weight": "170.16", "Molecular Formula": "C8H10O4", "Boiling Point": "245 \u00b0C", "Melting Point": "13-18 \u00b0C"}}