{"cas_no": "52328-05-9", "cn_name": "O-\u7532\u57fa\u5f02\u8132\u786b\u9178\u76d0", "en_name": ["O-Methylisourea hydrogen sulfate", "Carbamimidic acid, methyl ester, sulfate (2:1)", "O-Methylpseudourea sulfate (2:1)", "Methoxyformamidine sulfate (2:1)", "O-Methylisouronium sulfate", "O-Methylisourea hydrogen sulfate", "O-Methylisourea hemisulfate", "2-Methylisouronium sulfate"], "SMILES": "C(OC)(=N)N.S(=O)(=O)(O)O", "physical_data": {"Molecular Weight": "", "Molecular Formula": "C2H6N2O.<sup>1</sup>/2H2O4S", "Melting Point": "118-119 \u00b0C"}}