{"cas_no": "52329-60-9", "cn_name": "\u7532\u82ef\u54aa\u5511\u6742\u8d28A", "en_name": ["Aminomebendazole", "Methanone, (2-amino-1H-benzimidazol-6-yl)phenyl-", "Methanone, (2-amino-1H-benzimidazol-5-yl)phenyl-", "(2-Amino-1H-benzimidazol-6-yl)phenylmethanone", "R 18986", "(2-Amino-1H-benzimidazol-5-yl)phenylmethanone", "2-Amino-5-benzoylbenzimidazole", "G 1029", "2-Amino-5-benzoyl-1H-benzimidazole", "Aminomebendazole", "(2-Amino-3H-benzimidazol-5-yl)-phenylmethanone"], "SMILES": "C(=O)(C=1C=C2C(=CC1)N=C(N)N2)C3=CC=CC=C3", "physical_data": {"Molecular Weight": "237.26", "Molecular Formula": "C14H11N3O", "Melting Point": "192 \u00b0C"}}