{"cas_no": "52328-98-0", "cn_name": "\u4e8c\u7532\u57fa\u59dc\u9ec4\u7d20", "en_name": ["Dimethylcurcumin", "1,4,6-Heptatrien-3-one, 1,7-bis(3,4-dimethoxyphenyl)-5-hydroxy-, (1E,4Z,6E)-", "1,4,6-Heptatrien-3-one, 1,7-bis(3,4-dimethoxyphenyl)-5-hydroxy-, (Z,E,E)-", "(1E,4Z,6E)-1,7-Bis(3,4-dimethoxyphenyl)-5-hydroxy-1,4,6-heptatrien-3-one", "Dimethylcurcumin", "ASCJ 9", "GO-Y 025", "ASC-J 9"], "SMILES": "O(C)C1=C(OC)C=CC(C=CC(C=C(C=CC2=CC(OC)=C(OC)C=C2)O)=O)=C1", "physical_data": {"Molecular Weight": "396.43", "Molecular Formula": "C23H24O6", "Melting Point": "129-130 \u00b0C"}}