{"cas_no": "5232-99-5", "cn_name": "\u4f9d\u6258\u7acb\u6797", "en_name": ["Ethyl 2-cyano-3,3-diphenylacrylate", "2-Propenoic acid, 2-cyano-3,3-diphenyl-, ethyl ester", "Acrylic acid, 2-cyano-3,3-diphenyl-, ethyl ester", "Ethyl 2-cyano-3,3-diphenylacrylate", "Uvinul N 35", "Ethyl \u03b1-cyano-\u03b2,\u03b2-diphenylacrylate", "CE 2", "UV Absorber 2", "Etocrylene", "Ethyl \u03b1-cyano-\u03b2-phenylcinnamate", "CE 2 (ultraviolet absorber)", "Ethyl 2-cyano-3,3-diphenyl-2-propenoate", "Etocrilene", "Viosorb 910", "2-Cyano-3-phenylcinnamic acid ethyl ester", "Uvinul 3035", "Seesorb 501", "Ethyl 2-cyano-3,3-diphenylpropenoate", "NSC 52678", "2-Cyano-3,3-diphenyl-2-propenoic acid ethyl ester", "N 35", "UV 335", "UV 3035"], "SMILES": "C(=C(C(OCC)=O)C#N)(C1=CC=CC=C1)C2=CC=CC=C2", "physical_data": {"Molecular Weight": "277.32", "Molecular Formula": "C18H15NO2", "Boiling Point": "175-182 \u00b0C @ Press: 1 Torr", "Melting Point": "95-97 \u00b0C"}}