{"cas_no": "52334-81-3", "cn_name": "2-\u6c2f-5-\u4e09\u6c1f\u7532\u57fa\u5421\u5576", "en_name": ["2-Chloro-5-(trifluoromethyl)pyridine", "Pyridine, 2-chloro-5-(trifluoromethyl)-", "2-Chloro-5-(trifluoromethyl)pyridine", "5-Trifluoromethyl-2-chloropyridine"], "SMILES": "C(F)(F)(F)C=1C=CC(Cl)=NC1", "physical_data": {"Molecular Weight": "181.54", "Molecular Formula": "C6H3ClF3N", "Boiling Point": "153 \u00b0C", "Melting Point": "33 \u00b0C"}}