{"cas_no": "52334-53-9", "cn_name": "3-\u7f9f\u57fa-4-\u6c28\u57fa\u5421\u5576", "en_name": ["4-Amino-3-hydroxypyridine", "3-Pyridinol, 4-amino-", "4-Amino-3-pyridinol", "3-Hydroxy-4-aminopyridine", "4-Amino-3-hydroxypyridine"], "SMILES": "NC=1C(O)=CN=CC1", "physical_data": {"Molecular Weight": "110.11", "Molecular Formula": "C5H6N2O", "Melting Point": "240-242 \u00b0C"}}