{"cas_no": "5234-26-4", "cn_name": "N-(2-\u4e59\u9170\u82ef\u57fa)\u4e59\u9170\u80fa", "en_name": ["N-(2-Acetylphenyl)acetamide", "Acetamide, N-(2-acetylphenyl)-", "Acetanilide, 2\u2032-acetyl-", "N-(2-Acetylphenyl)acetamide", "o-Acetamidoacetophenone", "2\u2032-Acetylacetanilide", "2\u2032-Acetamidoacetophenone", "2\u2032-(Acetylamino)acetophenone", "NSC 12469", "N-(o-Acetylphenyl)acetamide", "2\u2032-(N-Acetylamino)acetophenone"], "SMILES": "C(C)(=O)C1=C(NC(C)=O)C=CC=C1", "physical_data": {"Molecular Weight": "177.20", "Molecular Formula": "C10H11NO2", "Melting Point": "77 \u00b0C"}}