{"cas_no": "5234-68-4", "cn_name": "\u840e\u9508\u7075", "en_name": ["Carboxin", "1,4-Oxathiin-3-carboxamide, 5,6-dihydro-2-methyl-N-phenyl-", "1,4-Oxathiin-3-carboxanilide, 5,6-dihydro-2-methyl-", "5,6-Dihydro-2-methyl-N-phenyl-1,4-oxathiin-3-carboxamide", "D 735", "DCMO", "2,3-Dihydro-5-carboxanilido-6-methyl-1,4-oxathiin", "Vitavax", "Carboxine", "F 735", "Carboxin", "5,6-Dihydro-2-methyl-1,4-oxathiin-3-carboxanilide", "2,3-Dihydro-6-methyl-1,4-oxathiin-5-carboxanilide", "DMOC", "1-Oxa-2-methyl-3-(anilidocarbonyl)-4-thiacyclohex-2-ene", "Vitavax 735D", "Vitavax 75W", "Vitavax 100", "Carbathiin", "V 4X", "2,3-Dihydro-6-methyl-1,4-oxathiine-5-carboxylic acid anilide", "Vitaflo 250", "Karboxyn", "Fenoxan", "N-Phenyl-2-methyl-5,6-dihydrooxathiin-3-carboxamide", "Vitavax EC 200", "NSC 263492", "2,3-Dihydro-6-methyloxathiin-5-carboxanilide", "Vitavax 34", "2-Methyl-5,6-dihydro-[1,4]oxathiine-3-carboxylic acid phenylamide", "2-Methyl-N-phenyl-5,6-dihydro-1,4-oxathiine-3-carboxamide", "VitavaxThiran", "MeSH ID: D002261"], "SMILES": "C(NC1=CC=CC=C1)(=O)C2=C(C)OCCS2", "physical_data": {"Molecular Weight": "235.30", "Molecular Formula": "C12H13NO2S", "Melting Point": "93-95 \u00b0C"}}