{"cas_no": "52340-78-0", "cn_name": "\u6c22\u80fa", "en_name": ["(R,R)-Hydrobenzoin", "1,2-Ethanediol, 1,2-diphenyl-, (1R,2R)-", "1,2-Ethanediol, 1,2-diphenyl-, [R-(R*,R*)]-", "(1R,2R)-1,2-Diphenyl-1,2-ethanediol", "(R,R)-(+)-1,2-Diphenyl-1,2-ethanediol", "Isohydrobenzoin, (+)-", "Hydrobenzoin, (+)-", "(+)-1,2-Diphenyl-1,2-ethanediol", "(R,R)-Hydrobenzoin", "(R,R)-Stilbenediol", "(R,R)-1,2-Diphenyl-1,2-ethanediol", "(+)-Hydrobenzoin", "(R,R)-(+)-Stilbenediol", "(+)-(R,R)-Hydrobenzoin", "(R,R)-(+)-Hydrobenzoin", "(1R,2R)-1,2-Diphenylethanediol", "(+)-Dihydrobenzoin", "(R,R)-Hydrobenzoin"], "SMILES": "C(C(O)C1=CC=CC=C1)(O)C2=CC=CC=C2", "physical_data": {"Molecular Weight": "214.26", "Molecular Formula": "C14H14O2", "Melting Point": "146 \u00b0C"}}