{"cas_no": "52356-01-1", "cn_name": "2-\u80bc\u57fa\u82ef\u7532\u9178\u76d0\u9178\u76d0", "en_name": ["2-Carboxyphenylhydrazine hydrochloride", "Benzoic acid, 2-hydrazinyl-, hydrochloride (1:1)", "Benzoic acid, 2-hydrazino-, monohydrochloride", "o-Hydrazinobenzoic acid hydrochloride", "o-Hydrazinobenzoic acid monohydrochloride", "2-Carboxyphenylhydrazine hydrochloride", "2-Hydrazinobenzoic acid monohydrochloride", "2-Hydrazinylbenzoic acid hydrochloride"], "SMILES": "N(N)C1=C(C(O)=O)C=CC=C1.Cl", "physical_data": {"Molecular Weight": "", "Molecular Formula": "C7H8N2O2.ClH", "Melting Point": "189-190 \u00b0C"}}