{"cas_no": "52378-40-2", "cn_name": "\u897f\u54aa\u66ff\u4e01\u4e8c\u7f29\u7269", "en_name": ["Methyl N-cyano-N\u2032-[2-[[(4-methyl-1H-imidazol-5-yl)methyl]thio]ethyl]carbamimidothioate", "Carbamimidothioic acid, N-cyano-N\u2032-[2-[[(4-methyl-1H-imidazol-5-yl)methyl]thio]ethyl]-, methyl ester", "Carbamimidothioic acid, N-cyano-N\u2032-[2-[[(5-methyl-1H-imidazol-4-yl)methyl]thio]ethyl]-, methyl ester", "Methyl N-cyano-N\u2032-[2-[[(4-methyl-1H-imidazol-5-yl)methyl]thio]ethyl]carbamimidothioate", "N-Cyano-N\u2032-[2-[(4-methyl-5-imidazolyl)methylthio]ethyl]-S-methylisothiourea", "N-Cyano-N\u2032-[2-[[(5-methyl-4-imidazolyl)methyl]thio]ethyl]-S-methylisothiourea"], "SMILES": "C(SCCN=C(NC#N)SC)C1=C(C)N=CN1", "physical_data": {"Molecular Weight": "269.39", "Molecular Formula": "C10H15N5S2", "Melting Point": "148-150 \u00b0C"}}