{"cas_no": "5238-27-7", "cn_name": "2-\u7532\u57fa\u620a\u9170\u6c2f", "en_name": ["2-Methylpentanoyl chloride", "Pentanoyl chloride, 2-methyl-", "Valeryl chloride, 2-methyl-", "2-Methylpentanoyl chloride", "2-Methylvaleryl chloride", "\u03b1-Methylpentanoyl chloride", "\u03b1-Methylvaleryl chloride", "2-Methyl pentanoic acid chloride"], "SMILES": "C(CCC)(C(Cl)=O)C", "physical_data": {"Molecular Weight": "134.60", "Molecular Formula": "C6H11ClO", "Boiling Point": "137-139 \u00b0C"}}