{"cas_no": "524-63-0", "cn_name": "O-\u53bb\u7532\u57fa\u594e\u5b81", "en_name": ["(8\u03b1,9R)-Cinchonan-6\u2032,9-diol", "Cinchonan-6\u2032,9-diol, (8\u03b1,9R)-", "Cupreine", "(8\u03b1,9R)-Cinchonan-6\u2032,9-diol", "O6\u2032-Demethylquinine", "Ultraquinine", "O-Demethylquinine", "Desmethylquinine", "6-Hydroxycinchonidine"], "SMILES": "C(O)(C1N2CC(C=C)C(C1)CC2)C=3C4=C(N=CC3)C=CC(O)=C4", "physical_data": {"Molecular Weight": "310.39", "Molecular Formula": "C19H22N2O2", "Melting Point": "202 \u00b0C"}}