{"cas_no": "524-36-7", "cn_name": "\u76d0\u9178\u5421\u591a\u80fa", "en_name": ["Pyridoxamine, dihydrochloride", "3-Pyridinemethanol, 4-(aminomethyl)-5-hydroxy-6-methyl-, hydrochloride (1:2)", "Pyridoxamine, dihydrochloride", "3-Pyridinemethanol, 4-(aminomethyl)-5-hydroxy-6-methyl-, dihydrochloride", "4-(Aminomethyl)-5-hydroxy-6-methyl-3-pyridinemethanol dihydrochloride", "2-Methyl-3-hydroxy-4-aminomethyl-5-hydroxymethylpyridine dihydrochloride", "Pyridoxamine dichlorohydrate", "Pyridoxylamine dihydrochloride", "Pyridorin", "4-(Aminomethyl)-5-(hydroxymethyl)-2-methylpyridin-3-ol dihydrochloride"], "SMILES": "C(N)C=1C(CO)=CN=C(C)C1O.Cl", "physical_data": {"Molecular Weight": "", "Molecular Formula": "C8H12N2O2.2ClH", "Melting Point": "226.5 \u00b0C (decomp)"}}