{"cas_no": "524-20-9", "cn_name": "\u4e9a\u7f8e\u7f42\u7c9f\u78b1", "en_name": ["Armepavine", "Phenol, 4-[[(1R)-1,2,3,4-tetrahydro-6,7-dimethoxy-2-methyl-1-isoquinolinyl]methyl]-", "Armepavine", "Phenol, 4-[(1,2,3,4-tetrahydro-6,7-dimethoxy-2-methyl-1-isoquinolinyl)methyl]-, (R)-", "4-[[(1R)-1,2,3,4-Tetrahydro-6,7-dimethoxy-2-methyl-1-isoquinolinyl]methyl]phenol", "Alkaloid D, from Evonymuseuropaea", "Evoeuropine", "(-)-Armepavine", "(R)-(-)-Armepavine", "NSC 110381"], "SMILES": "C(C1C=2C(=CC(OC)=C(OC)C2)CCN1C)C3=CC=C(O)C=C3", "physical_data": {"Molecular Weight": "313.39", "Molecular Formula": "C19H23NO3", "Melting Point": "166 \u00b0C"}}