{"cas_no": "524-95-8", "cn_name": "\u4e8c\u82ef\u57fa\u787c\u9178-2-\u6c28\u57fa\u4e59\u916f", "en_name": ["2-Aminoethoxydiphenyl borate", "Borinic acid, B,B-diphenyl-, 2-aminoethyl ester", "Borinic acid, diphenyl-, 2-aminoethyl ester", "Ethanol, 2-amino-, diphenylborinate (ester)", "B-(2-Aminoethoxy)diphenylborane", "2-Aminoethoxydiphenylborane", "(2-Aminoethyloxy)diphenylborane", "2-Aminoethyl diphenylborinate", "Naturstoffreagenz A", "NSC 17107", "2-APB", "2-Aminoethoxydiphenyl borate", "2-Diphenylboranyloxyethanamine"], "SMILES": "B(OCCN)(C1=CC=CC=C1)C2=CC=CC=C2", "physical_data": {"Molecular Weight": "225.09", "Molecular Formula": "C14H16BNO", "Melting Point": "188-190 \u00b0C (decomp)"}}