{"cas_no": "524-30-1", "cn_name": "\u79e6\u76ae\u7519", "en_name": ["Fraxin", "2H-1-Benzopyran-2-one, 8-(\u03b2-D-glucopyranosyloxy)-7-hydroxy-6-methoxy-", "Fraxin", "8-(\u03b2-D-Glucopyranosyloxy)-7-hydroxy-6-methoxy-2H-1-benzopyran-2-one", "Fraxetol 8-glucoside", "Fraxetin 8-\u03b2-D-glucopyranoside", "Fraxoside", "7,8-Dihydroxy-6-methoxycoumarin 8-\u03b2-D-glucopyranoside"], "SMILES": "O(C1=C2C(=CC(OC)=C1O)C=CC(=O)O2)C3OC(CO)C(O)C(O)C3O", "physical_data": {"Molecular Weight": "370.31", "Molecular Formula": "C16H18O10", "Melting Point": "200 \u00b0C"}}