{"cas_no": "524-17-4", "cn_name": "\u8759\u8760\u845b\u78b1", "en_name": ["Dauricine", "Phenol, 4-[[(1R)-1,2,3,4-tetrahydro-6,7-dimethoxy-2-methyl-1-isoquinolinyl]methyl]-2-[4-[[(1R)-1,2,3,4-tetrahydro-6,7-dimethoxy-2-methyl-1-isoquinolinyl]methyl]phenoxy]-", "Dauricine", "Phenol, 4-[(1,2,3,4-tetrahydro-6,7-dimethoxy-2-methyl-1-isoquinolinyl)methyl]-2-[4-[(1,2,3,4-tetrahydro-6,7-dimethoxy-2-methyl-1-isoquinolinyl)methyl]phenoxy]-, [R-(R*,R*)]-", "4-[[(1R)-1,2,3,4-Tetrahydro-6,7-dimethoxy-2-methyl-1-isoquinolinyl]methyl]-2-[4-[[(1R)-1,2,3,4-tetrahydro-6,7-dimethoxy-2-methyl-1-isoquinolinyl]methyl]phenoxy]phenol", "NSC 36413"], "SMILES": "C(C1C=2C(=CC(OC)=C(OC)C2)CCN1C)C3=CC(OC4=CC=C(CC5C=6C(=CC(OC)=C(OC)C6)CCN5C)C=C4)=C(O)C=C3", "physical_data": {"Molecular Weight": "624.77", "Molecular Formula": "C38H44N2O6", "Melting Point": "115 \u00b0C"}}