{"cas_no": "524-42-5", "cn_name": "1,2-\u8418\u918c", "en_name": ["1,2-Naphthoquinone", "1,2-Naphthalenedione", "1,2-Naphthoquinone", "\u03b2-Naphthoquinone", "o-Naphthoquinone", "NSC 9831", "SID 8139964", "1,2-Dihydronaphthalene-1,2-dione"], "SMILES": "O=C1C=2C(C=CC1=O)=CC=CC2", "physical_data": {"Molecular Weight": "158.15", "Molecular Formula": "C10H6O2", "Melting Point": "7-145 \u00b0C (decomp)", "Density": "1.450 g/cm\u00b3 @ Temp: 25 \u00b0C"}}