{"cas_no": "524-15-2", "cn_name": "\u5d16\u6912\u78b1", "en_name": ["\u03b3-Fagarine", "Furo[2,3-b]quinoline, 4,8-dimethoxy-", "\u03b3-Fagarine", "4,8-Dimethoxyfuro[2,3-b]quinoline", "Fagarine", "8-Methoxydictamnine"], "SMILES": "O(C)C=1C=2C(N=C3C1C=CO3)=C(OC)C=CC2", "physical_data": {"Molecular Weight": "229.23", "Molecular Formula": "C13H11NO3", "Melting Point": "142 \u00b0C"}}