{"cas_no": "524-40-3", "cn_name": "\u84d6\u9ebb\u9e7c", "en_name": ["Ricinine", "3-Pyridinecarbonitrile, 1,2-dihydro-4-methoxy-1-methyl-2-oxo-", "Ricinine", "Nicotinonitrile, 1,2-dihydro-4-methoxy-1-methyl-2-oxo-", "1,2-Dihydro-4-methoxy-1-methyl-2-oxo-3-pyridinecarbonitrile", "1,2-Dihydro-4-methoxy-1-methyl-2-oxonicotinonitrile", "Recinine", "Ricinin", "NSC 409913", "NSC 642604", "4-Methoxy-1-methyl-2-oxo-1,2-dihydropyridine-3-carbonitrile"], "SMILES": "C(#N)C1=C(OC)C=CN(C)C1=O", "physical_data": {"Molecular Weight": "164.16", "Molecular Formula": "C8H8N2O2", "Melting Point": "201.5 \u00b0C"}}