{"cas_no": "524-96-9", "cn_name": "N-[\u53cc(4-\u7532\u6c27\u57fa\u82ef\u57fa)\u4e9a\u7532\u57fa]\u82c4\u80fa", "en_name": ["N-[Bis(4-methoxyphenyl)methylene]benzenemethanamine", "Benzenemethanamine, N-[bis(4-methoxyphenyl)methylene]-", "Benzylamine, N-[bis(p-methoxyphenyl)methylene]-", "N-[Bis(4-methoxyphenyl)methylene]benzenemethanamine", "Benzylimidobis(p-methoxyphenyl)methane", "Benzylimidodi(4-methoxyphenyl)methane", "Schoenberg's reagent", "Schonberg's reagent", "NSC 32182"], "SMILES": "C(=NCC1=CC=CC=C1)(C2=CC=C(OC)C=C2)C3=CC=C(OC)C=C3", "physical_data": {"Molecular Weight": "331.41", "Molecular Formula": "C22H21NO2", "Melting Point": "90 \u00b0C"}}