{"cas_no": "524-12-9", "cn_name": "\u87db\u871e\u83ca\u5185\u916f", "en_name": ["Wedelolactone", "6H-Benzofuro[3,2-c][1]benzopyran-6-one, 1,8,9-trihydroxy-3-methoxy-", "1,8,9-Trihydroxy-3-methoxy-6H-benzofuro[3,2-c][1]benzopyran-6-one", "Wedelolactone", "1,8,9-Trihydroxy-3-methoxy-[1]benzofuro[3,2-c]chromen-6-one"], "SMILES": "O=C1C2=C(C=3C(O1)=CC(OC)=CC3O)OC=4C2=CC(O)=C(O)C4", "physical_data": {"Molecular Weight": "314.25", "Molecular Formula": "C16H10O7", "Melting Point": "327-329 \u00b0C (decomp)"}}