{"cas_no": "524-38-9", "cn_name": "N-\u7f9f\u57fa\u90bb\u82ef\u4e8c\u7532\u9170\u4e9a\u80fa", "en_name": ["N-Hydroxyphthalimide", "1H-Isoindole-1,3(2H)-dione, 2-hydroxy-", "Phthalimide, N-hydroxy-", "2-Hydroxy-1H-isoindole-1,3(2H)-dione", "N-Hydroxyphthalimide", "F 802", "2-Hydroxyphthalimide", "2-Hydroxyisoindole-1,3-dione", "N-Hydroxyphthalamide", "NSC 770", "2-Hydroxyisoindoline-1,3-dione", "2-Hydroxy-2,3-dihydro-1H-isoindole-1,3-dione", "N-Hydroxyphthalimide ester"], "SMILES": "O=C1C=2C(C(=O)N1O)=CC=CC2", "physical_data": {"Molecular Weight": "163.13", "Molecular Formula": "C8H5NO3", "Melting Point": "233 \u00b0C (decomp)", "Density": "1.570 g/cm\u00b3 @ Temp: 22.4 \u00b0C"}}