{"cas_no": "524-81-2", "cn_name": "\u7532\u82ef\u5494\u5549", "en_name": ["Mebhydrolin", "1H-Pyrido[4,3-b]indole, 2,3,4,5-tetrahydro-2-methyl-5-(phenylmethyl)-", "1H-Pyrido[4,3-b]indole, 5-benzyl-2,3,4,5-tetrahydro-2-methyl-", "2H-Pyrido[4,3-b]indole, 5-benzyl-1,3,4,5-tetrahydro-2-methyl-", "2,3,4,5-Tetrahydro-2-methyl-5-(phenylmethyl)-1H-pyrido[4,3-b]indole", "5-Benzyl-1,2,3,4-tetrahydro-2-methyl-\u03b3-carboline", "5-Benzyl-1,3,4,5-tetrahydro-2-methyl-2H-pyrido[4,3-b]indole", "Mebhydrolin", "3-Methyl-9-benzyl-1,2,3,4-tetrahydro-\u03b3-carboline", "N-Methyl-9-benzyltetrahydro-\u03b3-carboline"], "SMILES": "C(N1C2=C(C=3C1=CC=CC3)CN(C)CC2)C4=CC=CC=C4", "physical_data": {"Molecular Weight": "276.38", "Molecular Formula": "C19H20N2", "Boiling Point": "211 \u00b0C", "Melting Point": "95 \u00b0C"}}