{"cas_no": "5240-72-2", "cn_name": "2-\u964d\u83b0\u70f7\u7532\u9187", "en_name": ["Bicyclo[2.2.1]heptane-2-methanol", "Bicyclo[2.2.1]heptane-2-methanol", "2-Norbornanemethanol", "CPC 1207", "Experimental chemotherapeutant 1,207", "2-(Hydroxymethyl)bicyclo[2.2.1]heptane", "2-(Hydroxymethyl)norcamphane", "2-Norcamphanemethanol", "2-Norbornylmethanol", "2-(Hydroxymethyl)norbornane", "NSC 53599", "NSC 55693", "(Bicyclo[2.2.1]hept-2-yl)methanol", "Bicyclo[2.2.1]heptan-2-ylmethanol", "3-Bicyclo[2.2.1]heptanylmethanol"], "SMILES": "C(O)C1C2CC(C1)CC2", "physical_data": {"Molecular Weight": "126.20", "Molecular Formula": "C8H14O", "Boiling Point": "94 \u00b0C", "Density": "1.005 g/cm\u00b3 @ Temp: 20 \u00b0C"}}