{"cas_no": "5241-59-8", "cn_name": "D-\u82ef\u4e19\u6c28\u9170\u80fa", "en_name": ["(\u03b1R)-\u03b1-Aminobenzenepropanamide", "Benzenepropanamide, \u03b1-amino-, (\u03b1R)-", "Hydrocinnamamide, \u03b1-amino-, (R)-", "Benzenepropanamide, \u03b1-amino-, (R)-", "(\u03b1R)-\u03b1-Aminobenzenepropanamide", "D-Phenylalaninamide", "(R)-Phenylalaninamide", "(R)-2-Amino-3-phenylpropionamide", "(2R)-2-Amino-3-phenylpropanamide", "(R)-2-Amino-3-phenylpropanamide"], "SMILES": "C(C(C(N)=O)N)C1=CC=CC=C1", "physical_data": {"Molecular Weight": "164.20", "Molecular Formula": "C9H12N2O", "Melting Point": "234-237 \u00b0C (decomp)"}}