{"cas_no": "52415-29-9", "cn_name": "6-\u6eb4\u5432\u54da", "en_name": ["6-Bromoindole", "1H-Indole, 6-bromo-", "Indole, 6-bromo-", "6-Bromo-1H-indole", "6-Bromoindole"], "SMILES": "BrC=1C=C2C(=CC1)C=CN2", "physical_data": {"Molecular Weight": "196.04", "Molecular Formula": "C8H6BrN", "Melting Point": "94 \u00b0C"}}