{"cas_no": "52411-34-4", "cn_name": "2,2'-\u4e8c\u6c28\u57fa\u4e8c\u82ef\u6c27\u57fa\u4e59\u70f7", "en_name": ["2,2\u2032-[1,2-Ethanediylbis(oxy)]bis[benzenamine]", "Benzenamine, 2,2\u2032-[1,2-ethanediylbis(oxy)]bis-", "Aniline, 2,2\u2032-(ethylenedioxy)di-", "2,2\u2032-[1,2-Ethanediylbis(oxy)]bis[benzenamine]", "1,2-Bis[2-aminophenoxy]ethane", "2,2\u2032-(Ethylenedioxy)dianiline", "1,2-Bis(o-aminophenoxy)ethane", "1,2,7,8-Dibenzo-1,8-diamino-3,6-dioxaoctane", "1,2-Di(o-aminophenoxy)ethane", "2-[2-(2-Aminophenoxy)ethoxy]aniline"], "SMILES": "O(CCOC1=C(N)C=CC=C1)C2=C(N)C=CC=C2", "physical_data": {"Molecular Weight": "244.29", "Molecular Formula": "C14H16N2O2", "Melting Point": "131-132 \u00b0C"}}