{"cas_no": "5241-58-7", "cn_name": "L-\u82ef\u4e19\u9170\u80fa", "en_name": ["Phenylalaninamide", "Benzenepropanamide, \u03b1-amino-, (\u03b1S)-", "Hydrocinnamamide, \u03b1-amino-, L-", "Benzenepropanamide, \u03b1-amino-, (S)-", "(\u03b1S)-\u03b1-Aminobenzenepropanamide", "L-Phenylalaninamide", "Phenylalaninamide", "Phenylalanylamide", "L-Phenylalanine amide", "(S)-Phenylalaninamide", "(S)-2-Amino-3-phenylpropionamide", "(S)-2-Amino-3-phenylpropanamide", "(2S)-2-Amino-3-phenylpropanamide", "(2S)-2-Amino-3-phenylpropanamide"], "SMILES": "C(C(C(N)=O)N)C1=CC=CC=C1", "physical_data": {"Molecular Weight": "164.20", "Molecular Formula": "C9H12N2O", "Melting Point": "138-139 \u00b0C"}}