{"cas_no": "52411-35-5", "cn_name": "5\u4e59\u57fa-2-\u7f9f\u57fa\u82ef\u7532\u919b", "en_name": ["5-Ethyl-2-hydroxybenzaldehyde", "Benzaldehyde, 5-ethyl-2-hydroxy-", "Salicylaldehyde, 5-ethyl-", "5-Ethyl-2-hydroxybenzaldehyde", "3-Ethyl-6-hydroxybenzaldehyde", "5-Ethylsalicylaldehyde"], "SMILES": "C(=O)C1=CC(CC)=CC=C1O", "physical_data": {"Molecular Weight": "150.17", "Molecular Formula": "C9H10O2", "Boiling Point": "115-116 \u00b0C @ Press: 16 Torr", "Melting Point": "55-57 \u00b0C", "Density": "1.0861 g/cm\u00b3 @ Temp: 20 \u00b0C"}}