{"cas_no": "52438-21-8", "cn_name": "1-\u8089\u6842\u9170\u5421\u54af\u70f7", "en_name": ["(E)-3-Phenyl-1-(pyrrolidino)-2-propen-1-one", "2-Propen-1-one, 3-phenyl-1-(1-pyrrolidinyl)-, (2E)-", "Pyrrolidine, 1-(1-oxo-3-phenyl-2-propenyl)-, (E)-", "Pyrrolidine, 1-[(2E)-1-oxo-3-phenyl-2-propenyl]-", "(2E)-3-Phenyl-1-(1-pyrrolidinyl)-2-propen-1-one", "Cinnamopyrrolidide", "1-[(2E)-1-Oxo-3-phenyl-2-propenyl]pyrrolidine", "(E)-3-Phenyl-1-(pyrrolidino)-2-propen-1-one"], "SMILES": "C(C=CC1=CC=CC=C1)(=O)N2CCCC2", "physical_data": {"Molecular Weight": "201.26", "Molecular Formula": "C13H15NO", "Melting Point": "93-94 \u00b0C"}}