{"cas_no": "52432-72-1", "cn_name": "\u67b8\u6a7c\u9178\u6c83\u514b\u62c9\u4e01", "en_name": ["Oxeladin citrate", "Benzeneacetic acid, \u03b1,\u03b1-diethyl-, 2-[2-(diethylamino)ethoxy]ethyl ester, 2-hydroxy-1,2,3-propanetricarboxylate (1:1)", "Butyric acid, 2-ethyl-2-phenyl-, 2-(2-diethylaminoethoxy)ethyl ester, citrate", "Oxeladin citrate", "Oxeladine citrate", "Pectamol", "Paxeladine", "Silopentol", "Petcamon", "2-(2-(Diethylamino)ethoxy)ethyl 2-ethyl-2-phenylbutanoate 2-hydroxypropane-1,2,3-tricarboxylate", "2-(2-Diethylaminoethoxy)-ethyl 2-ethyl-2-phenylbutyrate citrate"], "SMILES": "C(CC(O)=O)(CC(O)=O)(C(O)=O)O.C(C(OCCOCCN(CC)CC)=O)(CC)(CC)C1=CC=CC=C1", "physical_data": {"Molecular Weight": "", "Molecular Formula": "C20H33NO3.C6H8O7", "Melting Point": "90-91 \u00b0C"}}