{"cas_no": "52431-78-4", "cn_name": "1-(4-\u7f9f\u57fa\u82ef\u57fa)-5-\u5def\u57fa-\u56db\u6c2e\u5511", "en_name": ["1,2-Dihydro-1-(4-hydroxyphenyl)-5H-tetrazole-5-thione", "5H-Tetrazole-5-thione, 1,2-dihydro-1-(4-hydroxyphenyl)-", "1,2-Dihydro-1-(4-hydroxyphenyl)-5H-tetrazole-5-thione", "ORWO-OB 1209", "1-(4-Hydroxyphenyl)-1H-tetrazole-5-thiol", "4-(5-Mercaptotetrazol-1-yl)phenol", "1-(4-Hydroxyphenyl)-5-mercaptotetrazole", "4-Hydroxy-PMT", "1-(4-Hydroxyphenyl)-2H-tetrazole-5-thione", "1-(4-Hydroxyphenyl)-4,5-dihydro-1H-1,2,3,4-tetrazole-5-thione", "4-(5-Sulfanyl-1H-1,2,3,4-tetrazol-1-yl)phenol", "4-(5-Mercapto-1H-tetrazol-1-yl)phenol"], "SMILES": "S=C1N(N=NN1)C2=CC=C(O)C=C2", "physical_data": {"Molecular Weight": "194.21", "Molecular Formula": "C7H6N4OS", "Melting Point": "160 \u00b0C"}}