{"cas_no": "52448-17-6", "cn_name": "L-6-\u6eb4\u8272\u6c28\u9178", "en_name": ["6-Bromo-L-tryptophan", "L-Tryptophan, 6-bromo-", "6-Bromo-L-tryptophan", "L-6-Bromotryptophan", "6-Bromotryptophan", "(S)-2-Amino-3-(6-bromo-1H-indol-3-yl)propanoicacid", "(2S)-2-Amino-3-(6-bromo-1H-indol-3-yl)propanoic acid", "(S)-2-Amino-3-(6-bromo-1H-indol-3-yl)propanoic acid"], "SMILES": "C(C(C(O)=O)N)C=1C=2C(NC1)=CC(Br)=CC2", "physical_data": {"Molecular Weight": "283.12", "Molecular Formula": "C11H11BrN2O2", "Melting Point": "120-122 \u00b0C"}}