{"cas_no": "52449-43-1", "cn_name": "4-\u6c2f\u82ef\u4e59\u9178\u7532\u916f", "en_name": ["Benzeneacetic acid, 4-chloro-, methyl ester", "Benzeneacetic acid, 4-chloro-, methyl ester", "Acetic acid, (p-chlorophenyl)-, methyl ester", "Methyl 4-chlorobenzeneacetate", "Methyl (4-chlorophenyl)acetate", "Methyl (p-chlorophenyl)acetate", "(4-Chlorophenyl)acetic acid methyl ester", "Methyl 2-(4-chlorophenyl)acetate"], "SMILES": "C(C(OC)=O)C1=CC=C(Cl)C=C1", "physical_data": {"Molecular Weight": "184.62", "Molecular Formula": "C9H9ClO2", "Boiling Point": "102-103 \u00b0C @ Press: 1.2-1.3 Torr"}}