{"cas_no": "52448-15-4", "cn_name": "L-5-\u6c2f\u8272\u6c28\u9178", "en_name": ["5-Chloro-L-tryptophan", "L-Tryptophan, 5-chloro-", "5-Chloro-L-tryptophan", "(S)-2-Amino-3-(5-chloro-1H-indol-3-yl)propanoic acid"], "SMILES": "C(C(C(O)=O)N)C=1C=2C(NC1)=CC=C(Cl)C2", "physical_data": {"Molecular Weight": "238.67", "Molecular Formula": "C11H11ClN2O2", "Melting Point": "272-275 \u00b0C"}}