{"cas_no": "5244-34-8", "cn_name": "3,6-\u4e8c\u786b\u6742-1,8-\u8f9b\u4e8c\u9187", "en_name": ["3,6-Dithia-1,8-octanediol", "Ethanol, 2,2\u2032-[1,2-ethanediylbis(thio)]bis-", "Ethanol, 2,2\u2032-(ethylenedithio)di-", "2,2\u2032-[1,2-Ethanediylbis(thio)]bis[ethanol]", "1,8-Dihydroxy-3,6-dithiaoctane", "3,6-Dithia-1,8-octanediol", "1,2-Bis(2-hydroxyethylthio)ethane", "1,10-Dioxa-4,7-dithiadecane", "1,2-Bis(\u03b2-hydroxyethylthio)ethane", "Di(\u03b2-hydroxyethyl)ethylene disulfide", "3,6-Dithiaoctan-1,8-diol", "1,8-Dihydroxy-3,6-dithiooctane", "2,2\u2032-(Ethylenedithio)diethanol", "SZ 3", "Dithiotriethylene glycol", "1,2-Bis(2-hydroxyethylsulfanyl)ethane", "2,2\u2032-Ethylenedithiobis(ethanol)", "2,2\u2032-(Ethane-1,2-diylbis(sulfanediyl))diethanol", "2-[2-(2-Hydroxyethylsulfanyl)ethylsulfanyl]ethanol"], "SMILES": "C(CSCCO)SCCO", "physical_data": {"Molecular Weight": "182.30", "Molecular Formula": "C6H14O2S2", "Melting Point": "56 \u00b0C"}}