{"cas_no": "524684-52-4", "cn_name": "\u666e\u6797\u8d1d\u745e", "en_name": ["2-(3-Fluoro-4-hydroxyphenyl)-7-vinyl-1,3-benzoxazol-5-ol", "5-Benzoxazolol, 7-ethenyl-2-(3-fluoro-4-hydroxyphenyl)-", "7-Ethenyl-2-(3-fluoro-4-hydroxyphenyl)-5-benzoxazolol", "2-(3-Fluoro-4-hydroxyphenyl)-7-vinyl-1,3-benzoxazol-5-ol", "ERB 041", "Prinaberel", "2-(3-Fluoro-4-hydroxyphenyl)-7-vinylbenzoxazol-5-ol", "2-(3-Fluoro-4-hydroxyphenyl)-7-vinylbenzo[d]oxazol-5-ol"], "SMILES": "C(=C)C1=C2C(N=C(O2)C3=CC(F)=C(O)C=C3)=CC(O)=C1", "physical_data": {"Molecular Weight": "271.24", "Molecular Formula": "C15H10FNO3", "Melting Point": "250-252 \u00b0C"}}