{"cas_no": "5246-57-1", "cn_name": "\u95f4-\u03b2-\u7f9f\u4e59\u57fa\u781c\u82ef\u80fa", "en_name": ["3-(2-Hydroxyethylsulfonyl)aniline", "Ethanol, 2-[(3-aminophenyl)sulfonyl]-", "Ethanol, 2-[(m-aminophenyl)sulfonyl]-", "2-[(3-Aminophenyl)sulfonyl]ethanol", "m-Aminophenyl \u03b2-hydroxyethyl sulfone", "3-Aminophenyl \u03b2-hydroxyethyl sulfone", "3-(2-Hydroxyethylsulfonyl)aniline", "3-(\u03b2-Hydroxyethylsulfonyl)aniline", "1-Amino-3-(\u03b2-hydroxyethylsulfonyl)benzene", "3-Aminophenyl 2-hydroxyethyl sulfone", "m-Aminophenyl 2-hydroxyethyl sulfone", "2-(3-Aminobenzenesulfonyl)ethanol", "3-(2-Hydroxyethanesulfonyl)aniline", "2-[(3-Aminophenyl)sulfonyl]ethan-1-ol", "2-(3-Aminobenzenesulfonyl)ethan-1-ol"], "SMILES": "S(CCO)(=O)(=O)C1=CC(N)=CC=C1", "physical_data": {"Molecular Weight": "201.24", "Molecular Formula": "C8H11NO3S", "Melting Point": "74-75 \u00b0C"}}