{"cas_no": "52462-29-0", "cn_name": "\u4e8c\u6c2f\u53cc(4-\u7532\u57fa\u5f02\u4e19\u57fa\u82ef\u57fa)\u948c(II)", "en_name": ["Bis(dichloro(\u03b76-p-cymene)ruthenium)", "Ruthenium, di-\u03bc-chlorodichlorobis[(1,2,3,4,5,6-\u03b7)-1-methyl-4-(1-methylethyl)benzene]di-", "Benzene, 1-methyl-4-(1-methylethyl)-, ruthenium complex", "Di-\u03bc-chlorodichlorobis[(1,2,3,4,5,6-\u03b7)-1-methyl-4-(1-methylethyl)benzene]diruthenium", "Bis(4-isopropyltoluene)tetrachlorodiruthenium", "Tetrachlorobis(p-cymene)diruthenium", "Bis(dichloro(\u03b76-4-isopropyltoluene)ruthenium)", "(p-Cymene)ruthenium dichloride dimer", "Bis(dichloro(p-\u03b76-isopropyltoluene)ruthenium)", "Bis(dichloro(\u03b76-p-cymene)ruthenium)", "(p-Cymene)ruthenium(II) chloride dimer", "Bis((\u03bc-chloro)chloro(\u03b76-1-isopropyl-4-methylbenzene)ruthenium)", "Bis((\u03bc-chloro)chloro(\u03b76-4-isopropyltoluene)ruthenium)", "Bis(chloro(\u03bc-chloro)(\u03b76-p-isopropyl(methyl)benzene)ruthenium)", "Bis(dichloro(\u03b76-p-isopropyltoluene)ruthenium)", "Bis(chloro(\u03bc-chloro)(\u03b76-p-isopropyltoluene)ruthenium)", "Bis(chloro(\u03bc-chloro)(\u03b76-p-cymene)ruthenium)", "Tetrachlorobis(4-isopropyltoluene)diruthenium", "Bis((dichloro(\u03b76-p-isopropyl(methyl)benzene)ruthenium))", "Dichloro(p-cymene)ruthenium dimer", "Bis(((\u03b76-4-isopropyltoluene)(chloro)(\u03bc-chloro)ruthenium))", "Dichlorodi-\u03bc-chlorobis(\u03b76-4-isopropyltoluene)diruthenium", "Bis(\u03b76-p-Cymene)tetrachlorodiruthenium", "Di-\u03bc-chlorobis(chloro(\u03b76-4-isopropyltoluene)ruthenium)", "Bis[(\u03b76-p-isopropyltoluene)dichlororuthenium]", "Di-\u03bc-chlorobis[(p-cymene)chlororuthenium]", "Di-\u03bc-chlorobis(chloro(\u03b76-4-cymene)ruthenium)", "Bis(\u03bc-chlorochloro(\u03b76-4-cymene)ruthenium)", "Bis((\u03b76-p-cymene)dichlororuthenium)", "Bis[dichloro(1-isopropyl-4-methylbenzene)ruthenium]", "Di-\u03bc-chlorobis(chloro(\u03b76-p-cymene)ruthenium)", "Tetrachlorobis(\u03b76-p-cymene)diruthenium", "Bis[dichloro(p-cymene)ruthenium]", "Bis[dichloro(\u03b76-1-isopropyl-4-methylbenzene)ruthenium]", "Tetrachlorobis(\u03b76-cymene)diruthenium", "Tetrachlorobis(4-cymene)diruthenium", "Dichloro(p-cymene)ruthenium(II) dimer", "Bis[(\u03b76-1-isopropyl-4-methylbenzene)dichlororuthenium]", "Di-\u03bc-chlorodichlorobis(\u03b76-p-cymene)diruthenium", "Di-\u03bc-chlorodichlorobis(\u03b76-p-cymene)diruthenium", "Di-\u03bc-chlorodichlorobis(\u03b75-1-isopropyl-4-methylbenzene)diruthenium", "[Ru(p-cymene)Cl2]2", "Bis[dichlorido(cym) ruthenium(II)]", "[RuCl2(\u03b72-p-cymene)]2", "(Cymene)ruthenium dichloride dimer", "Bis(dichloro(\u03b76-p-cymene)ruthenium)"], "SMILES": "[Cl-][Ru+2]123456(C=7(C(C)C)[CH]1=[CH]2C3(C)=[CH]4[CH]57)[Cl-][Ru+2]89%10%11%12([Cl-])([Cl-]6)C=%13(C(C)C)[CH]8=[CH]9C%10(C)=[CH]%11[CH]%12%13", "physical_data": {"Molecular Weight": "", "Molecular Formula": "C20H28Cl4Ru2", "Boiling Point": "125 \u00b0C", "Melting Point": "&gt;100 \u00b0C (decomp)"}}