{"cas_no": "52479-85-3", "cn_name": "\u4f9d\u6614\u82ef\u916e", "en_name": ["Exifone", "Methanone, (2,3,4-trihydroxyphenyl)(3,4,5-trihydroxyphenyl)-", "(2,3,4-Trihydroxyphenyl)(3,4,5-trihydroxyphenyl)methanone", "4-Galloylpyrogallol", "2,3,3\u2032,4,4\u2032,5\u2032-Hexahydroxybenzophenone", "3,4,5,2\u2032,3\u2032,4\u2032-Hexahydroxybenzophenone", "Exifone", "Adlone", "2,3,4,3\u2032,4\u2032,5\u2032-Hexahydroxybenzophenone", "NSC 680919"], "SMILES": "C(=O)(C1=CC(O)=C(O)C(O)=C1)C2=C(O)C(O)=C(O)C=C2", "physical_data": {"Molecular Weight": "278.21", "Molecular Formula": "C13H10O7", "Melting Point": "270 \u00b0C"}}