{"cas_no": "5247-86-9", "cn_name": "8-\u7f9f\u57fa-1\u8418\u7532\u9178\u7532\u916f", "en_name": ["1-Naphthalenecarboxylic acid, 8-hydroxy-, methyl ester", "1-Naphthalenecarboxylic acid, 8-hydroxy-, methyl ester", "1-Naphthoic acid, 8-hydroxy-, methyl ester", "Methyl 8-hydroxy-1-naphthoate", "Methyl 8-hydroxy-1-naphthalenecarboxylate"], "SMILES": "C(OC)(=O)C=1C2=C(C=CC=C2O)C=CC1", "physical_data": {"Molecular Weight": "202.21", "Molecular Formula": "C12H10O3", "Melting Point": "59-62 \u00b0C"}}