{"cas_no": "52488-36-5", "cn_name": "4-\u6eb4\u5432\u54da", "en_name": ["4-Bromoindole", "1H-Indole, 4-bromo-", "Indole, 4-bromo-", "4-Bromo-1H-indole", "4-Bromoindole"], "SMILES": "BrC1=C2C(=CC=C1)NC=C2", "physical_data": {"Molecular Weight": "196.04", "Molecular Formula": "C8H6BrN", "Boiling Point": "96 \u00b0C @ Press: 1 Torr", "Melting Point": "15 \u00b0C"}}