{"cas_no": "52488-28-5", "cn_name": "3-\u6eb4-5-\u785d\u57fa\u7532\u82ef", "en_name": ["1-Bromo-3-methyl-5-nitrobenzene", "Benzene, 1-bromo-3-methyl-5-nitro-", "Toluene, 3-bromo-5-nitro-", "1-Bromo-3-methyl-5-nitrobenzene", "3-Bromo-5-nitrotoluene"], "SMILES": "N(=O)(=O)C1=CC(Br)=CC(C)=C1", "physical_data": {"Molecular Weight": "216.03", "Molecular Formula": "C7H6BrNO2", "Boiling Point": "269.5 \u00b0C", "Melting Point": "83 \u00b0C"}}