{"cas_no": "5248-39-5", "cn_name": "2-\u7532\u57fa-4-\u7532\u80fa\u57fa-6-\u7532\u6c27\u57fa\u5747\u4e09\u55ea", "en_name": ["4-Methoxy-N,6-dimethyl-1,3,5-triazin-2-amine", "1,3,5-Triazin-2-amine, 4-methoxy-N,6-dimethyl-", "s-Triazine, 2-methoxy-4-methyl-6-(methylamino)-", "4-Methoxy-N,6-dimethyl-1,3,5-triazin-2-amine", "2-Methyl-4-(methylamino)-6-methoxy-1,3,5-triazine", "2-Methoxy-4-methyl-6-methylamino-1,3,5-triazine"], "SMILES": "N(C)C=1N=C(OC)N=C(C)N1", "physical_data": {"Molecular Weight": "154.17", "Molecular Formula": "C6H10N4O", "Melting Point": "155-157 \u00b0C"}}