{"cas_no": "52499-14-6", "cn_name": "\u5bf9\u5341\u4e8c\u70f7\u57fa\u82ef\u78fa\u9170\u6c2f", "en_name": ["4-Dodecylbenzenesulfonyl chloride", "Benzenesulfonyl chloride, 4-dodecyl-", "4-Dodecylbenzenesulfonyl chloride", "p-Dodecylbenzenesulfonyl chloride"], "SMILES": "S(Cl)(=O)(=O)C1=CC=C(CCCCCCCCCCCC)C=C1", "physical_data": {"Molecular Weight": "344.94", "Molecular Formula": "C18H29ClO2S", "Boiling Point": "205 \u00b0C @ Press: 0.2 Torr", "Melting Point": "33 \u00b0C"}}