{"cas_no": "52497-36-6", "cn_name": "2-\u7fa7\u57fa-4-\u5f02\u4e19\u57fa-3-\u5421\u54af\u70f7\u4e59\u9178", "en_name": ["Dihydrokainic acid", "3-Pyrrolidineacetic acid, 2-carboxy-4-(1-methylethyl)-, (2S,3S,4R)-", "3-Pyrrolidineacetic acid, 2-carboxy-4-(1-methylethyl)-, [2S-(2\u03b1,3\u03b2,4\u03b2)]-", "(2S,3S,4R)-2-Carboxy-4-(1-methylethyl)-3-pyrrolidineacetic acid", "Dihydrokainic acid", "\u03b1-Dihydrokainic acid"], "SMILES": "C(C(O)=O)C1C(C(C)C)CNC1C(O)=O", "physical_data": {"Molecular Weight": "215.25", "Molecular Formula": "C10H17NO4", "Melting Point": "285 \u00b0C (decomp)"}}