{"cas_no": "525-76-8", "cn_name": "\u9130\u4e59\u91af\u80fa\u82ef\u7532\u9178\u5167\u916f", "en_name": ["2-Methyl-4H-3,1-benzoxazin-4-one", "4H-3,1-Benzoxazin-4-one, 2-methyl-", "2-Methyl-4H-3,1-benzoxazin-4-one", "2-Methyl-3,1-benzoxazin-4-one", "2-Methyl-3,1-benzoxaza-4-one", "Acetanthranil", "Acetylanthranyl", "2-Methyl-4-oxo-4H-3,1-benzoxazine", "Acetylanthranil", "2-Methyl-3,1-benzoxazine-4-one", "2-Methyl-4-oxo-3,1-benzoxazine", "NSC 10119", "NSC 521353", "2-Methylbenzo[1,3]oxazin-4-one", "2-Methyl-4H-benzo[d][1,3]oxazin-4-one"], "SMILES": "O=C1C=2C(N=C(C)O1)=CC=CC2", "physical_data": {"Molecular Weight": "161.16", "Molecular Formula": "C9H7NO2", "Boiling Point": "144-145 \u00b0C @ Press: 12 Torr", "Melting Point": "77-80 \u00b0C"}}