{"cas_no": "525-82-6", "cn_name": "\u9ec4\u916e", "en_name": ["Flavone", "4H-1-Benzopyran-4-one, 2-phenyl-", "Flavone", "2-Phenyl-4H-1-benzopyran-4-one", "2-Phenyl-\u03b3-benzopyrone", "2-Phenylchromone", "Asmacoril", "Chromocor", "Cromaril", "2-Phenyl-4-chromone", "2-Phenyl-4H-benzopyran-4-one", "NSC 19028", "94166III", "2-Phenyl-4H-chromen-4-one", "2-Phenylchromen-4-one"], "SMILES": "O=C1C=2C(OC(=C1)C3=CC=CC=C3)=CC=CC2", "physical_data": {"Molecular Weight": "222.24", "Molecular Formula": "C15H10O2", "Melting Point": "100 \u00b0C", "Density": "0.90 g/cm\u00b3"}}