{"cas_no": "525-37-1", "cn_name": "1,6-\u8418\u4e8c\u78fa\u9178", "en_name": ["1,6-Naphthalenedisulfonic acid", "1,6-Naphthalenedisulfonic acid", "Eiver-pick acid", "2,5-Naphthalenedisulfonic acid", "1,6-Disulfonaphthalene"], "SMILES": "S(=O)(=O)(O)C=1C2=C(C=C(S(=O)(=O)O)C=C2)C=CC1", "physical_data": {"Molecular Weight": "288.30", "Molecular Formula": "C10H8O6S2", "Melting Point": "125 \u00b0C (decomp)"}}