{"cas_no": "525-64-4", "cn_name": "2,7-\u4e8c\u6c28\u57fa\u82b4", "en_name": ["2,7-Diaminofluorene", "9H-Fluorene-2,7-diamine", "Fluorene-2,7-diamine", "2,7-Diaminofluorene", "NSC 12277", "2,7-Diamino-9H-fluorene", "2,7-Aminofluorene"], "SMILES": "NC=1C=C2C(C=3C(C2)=CC(N)=CC3)=CC1", "physical_data": {"Molecular Weight": "196.25", "Molecular Formula": "C13H12N2", "Boiling Point": "161 \u00b0C @ Press: 5 Torr", "Melting Point": "166 \u00b0C"}}