{"cas_no": "525-79-1", "cn_name": "6-\u7ce0\u6c28\u57fa\u560c\u5464", "en_name": ["Kinetin", "9H-Purin-6-amine, N-(2-furanylmethyl)-", "Adenine, N-furfuryl-", "1H-Purin-6-amine, N-(2-furanylmethyl)-", "Adenine, N6-furfuryl-", "N-(2-Furanylmethyl)-9H-purin-6-amine", "FAP", "N-Furfuryladenine", "Kinetin", "2-Furanmethanamine, N-1H-purin-6-yl-", "Kinetin (plant hormone)", "6-(Furfurylamino)purine", "6-Furfuryladenine", "N6-(Furfurylamino)purine", "N6-Furfuryladenine", "KT", "NSC 23119", "MB 905", "MeSH ID: D007701"], "SMILES": "N(CC1=CC=CO1)C2=C3C(N=CN3)=NC=N2", "physical_data": {"Molecular Weight": "215.21", "Molecular Formula": "C10H9N5O", "Melting Point": "266.5 \u00b0C", "Density": "1.49 g/cm\u00b3"}}