{"cas_no": "525-66-6", "cn_name": "\u666e\u8418\u6d1b\u5c14", "en_name": ["Propranolol", "2-Propanol, 1-[(1-methylethyl)amino]-3-(1-naphthalenyloxy)-", "2-Propanol, 1-(isopropylamino)-3-(1-naphthyloxy)-", "1-[(1-Methylethyl)amino]-3-(1-naphthalenyloxy)-2-propanol", "1-(Isopropylamino)-3-(1-naphthyloxy)-2-propanol", "Propranolol", "\u03b2-Propranolol", "1-(1-Naphthyloxy)-3-(isopropylamino)-2-propanol", "Proprasylyt", "Reducor", "Betalong", "dl-Propranolol", "(\u00b1)-Propranolol", "Racemic propranolol", "DL-Propranolol", "AY 64043", "Euprovasin", "Innopran XL", "3-(Naphth-1-yloxy)-1-(isopropylamino)propan-2-ol", "1-Isopropylamino-3-naphthalen-1-yloxypropan-2-ol", "[2-Hydroxy-3-(naphthalen-1-yloxy)propyl](propan-2-yl)amine", "1-(Naphthalen-1-yloxy)-3-[(propan-2-yl)amino]propan-2-ol", "MeSH ID: D011433"], "SMILES": "O(CC(CNC(C)C)O)C=1C2=C(C=CC1)C=CC=C2", "physical_data": {"Molecular Weight": "259.34", "Molecular Formula": "C16H21NO2", "Melting Point": "96 \u00b0C"}}