{"cas_no": "525-52-0", "cn_name": "1,2,3-\u4e09\u4e59\u9170\u57fa\u82ef", "en_name": ["1,2,3-Benzenetriol, 1,2,3-triacetate", "1,2,3-Benzenetriol, 1,2,3-triacetate", "Pyrogallol, triacetate", "1,2,3-Benzenetriol, triacetate", "Acetpyrogall", "Lenigallol", "Pyracetol", "Triacetylpyrogallol", "1,2,3-Triacetoxybenzene", "NSC 24068"], "SMILES": "O(C(C)=O)C1=C(OC(C)=O)C=CC=C1OC(C)=O", "physical_data": {"Molecular Weight": "252.22", "Molecular Formula": "C12H12O6", "Melting Point": "165 \u00b0C"}}