{"cas_no": "525-57-5", "cn_name": "\u53bb\u7532\u9a86\u9a7c\u84ec\u78b1,\u9a86\u9a7c\u84ec\u915a", "en_name": ["Harmalol", "3H-Pyrido[3,4-b]indol-7-ol, 4,9-dihydro-1-methyl-", "Harmalol", "Harmidol", "4,9-Dihydro-1-methyl-3H-pyrido[3,4-b]indol-7-ol", "11-Hydroxyharmalan", "NSC 72293", "1-Methyl-3H,4H,9H-pyrido[3,4-b]indol-7-ol", "1-Methyl-4,9-dihydro-3H-pyrido[3,4-b]indol-7-ol"], "SMILES": "CC=1C2=C(C=3C(N2)=CC(O)=CC3)CCN1", "physical_data": {"Molecular Weight": "200.24", "Molecular Formula": "C12H12N2O", "Melting Point": "211-219 \u00b0C (decomp)"}}