{"cas_no": "525-21-3", "cn_name": "\u55ea\u76ae\u5576", "en_name": ["Fraxidin", "2H-1-Benzopyran-2-one, 8-hydroxy-6,7-dimethoxy-", "Coumarin, 8-hydroxy-6,7-dimethoxy-", "Fraxidin", "8-Hydroxy-6,7-dimethoxy-2H-1-benzopyran-2-one"], "SMILES": "OC1=C2C(=CC(OC)=C1OC)C=CC(=O)O2", "physical_data": {"Molecular Weight": "222.19", "Molecular Formula": "C11H10O5", "Melting Point": "195 \u00b0C"}}