{"cas_no": "525-03-1", "cn_name": "9-\u6c28\u57fa\u82b4", "en_name": ["Fluoren-9-amine", "9H-Fluoren-9-amine", "Fluoren-9-amine", "9-Aminofluorene", "Fluoren-9-ylamine", "9-Amino-9H-fluorene", "IEM 2117"], "SMILES": "NC1C=2C(C=3C1=CC=CC3)=CC=CC2", "physical_data": {"Molecular Weight": "181.23", "Molecular Formula": "C13H11N", "Boiling Point": "136 \u00b0C @ Press: 2 Torr", "Melting Point": "64 \u00b0C"}}