{"cas_no": "52505-46-1", "cn_name": "3-\u6c28\u57fa\u567b\u5429\u5e76[2,3-B]\u5421\u5576-2-\u7532\u9178\u4e59\u916f", "en_name": ["Thieno[2,3-b]pyridine-2-carboxylic acid, 3-amino-, ethyl ester", "Thieno[2,3-b]pyridine-2-carboxylic acid, 3-amino-, ethyl ester", "3-Aminothieno[2,3-b]pyridine-2-carboxylic acid ethyl ester", "Ethyl 3-aminothieno[2,3-b]pyridine-2-carboxylate", "Ethyl 3-amino-4H-thieno[2,3-b]pyridine-2-carboxylate"], "SMILES": "NC=1C=2C(SC1C(OCC)=O)=NC=CC2", "physical_data": {"Molecular Weight": "222.26", "Molecular Formula": "C10H10N2O2S", "Melting Point": "181-182.5 \u00b0C"}}