{"cas_no": "52516-37-7", "cn_name": "3,5-\u4e8c\u6c2f\u82ef\u4e59\u8148", "en_name": ["3,5-Dichlorobenzeneacetonitrile", "Benzeneacetonitrile, 3,5-dichloro-", "Acetonitrile, (3,5-dichlorophenyl)-", "3,5-Dichlorobenzeneacetonitrile", "3,5-Dichlorobenzyl cyanide", "(3,5-Dichlorophenyl)acetonitrile", "2-(3,5-Dichlorophenyl)acetonitrile"], "SMILES": "C(C#N)C1=CC(Cl)=CC(Cl)=C1", "physical_data": {"Molecular Weight": "186.04", "Molecular Formula": "C8H5Cl2N", "Boiling Point": "165-168 \u00b0C @ Press: 17 Torr"}}