{"cas_no": "52549-17-4", "cn_name": "\u666e\u62c9\u6d1b\u82ac", "en_name": ["(\u00b1)-Pranoprofen", "5H-[1]Benzopyrano[2,3-b]pyridine-7-acetic acid, \u03b1-methyl-", "\u03b1-Methyl-5H-[1]benzopyrano[2,3-b]pyridine-7-acetic acid", "Y 8004", "2-(5H-[1]-Benzopyrano[2,3-b]pyridin-7-yl)propionic acid", "Pranoprofen", "Niflan", "\u03b1-Methyl-5H-[1]benzopyrano[2,3-b]pyridine-7-ylacetic acid", "(\u00b1)-Pranoprofen", "(RS)-Pranoprofen", "dl-Pranoprofen", "Oftalar", "2-(5H-Chromeno[2,3-b]pyridin-7-yl)propanoic acid"], "SMILES": "C(C(O)=O)(C)C=1C=C2C(OC=3C(C2)=CC=CN3)=CC1", "physical_data": {"Molecular Weight": "255.27", "Molecular Formula": "C15H13NO3", "Melting Point": "182-183 \u00b0C"}}