{"cas_no": "52547-00-9", "cn_name": "5-\u6c28\u57fa-3-\u7532\u57fa\u5f02\u567b\u5511", "en_name": ["5-Isothiazolamine, 3-methyl-, hydrochloride (1:1)", "5-Isothiazolamine, 3-methyl-, hydrochloride (1:1)", "5-Isothiazolamine, 3-methyl-, monohydrochloride", "5-Amino-3-methylisothiazole monohydrochloride", "3-Methylisothiazol-5-amine hydrochloride", "5-Amino-3-methylisothiazole hydrochloride", "3-Methyl-1,2-thiazol-5-amine hydrochloride", "3-Methyl-5-aminoisothiazole hydrochloride"], "SMILES": "CC=1C=C(N)SN1.Cl", "physical_data": {"Molecular Weight": "", "Molecular Formula": "C4H6N2S.ClH", "Melting Point": "240 \u00b0C (decomp)"}}