{"cas_no": "52548-14-8", "cn_name": "2-\u7898-5-\u7532\u57fa\u82ef\u7532\u9178", "en_name": ["2-Iodo-5-methylbenzoic acid", "Benzoic acid, 2-iodo-5-methyl-", "2-Iodo-5-methylbenzoic acid", "5-Methyl-2-iodobenzoic acid"], "SMILES": "C(O)(=O)C1=C(I)C=CC(C)=C1", "physical_data": {"Molecular Weight": "262.04", "Molecular Formula": "C8H7IO2", "Melting Point": "118 \u00b0C"}}