{"cas_no": "5255-75-4", "cn_name": "1,2-\u73af\u6c27-3-(\u5bf9\u785d\u57fa\u82ef\u6c27\u57fa)\u4e19\u70f7", "en_name": ["2-[(4-Nitrophenoxy)methyl]oxirane", "Oxirane, 2-[(4-nitrophenoxy)methyl]-", "Propane, 1,2-epoxy-3-(p-nitrophenoxy)-", "Oxirane, [(4-nitrophenoxy)methyl]-", "2-[(4-Nitrophenoxy)methyl]oxirane", "p-Nitrophenyl glycidyl ether", "Glycidyl 4-nitrophenyl ether", "1-(p-Nitrophenoxy)-2,3-epoxypropane", "2,3-Epoxy-1-(p-nitrophenoxy)propane", "Glycidyl p-nitrophenyl ether", "1-(4-Nitrophenoxy)-2,3-propylene oxide", "4-Nitrophenyl glycidyl ether", "1,2-Epoxy-3-(4\u2032-nitrophenoxy)propane", "1,2-Epoxy-3-(p-nitrophenoxy)propane", "1-(Glycidyloxy)-4-nitrobenzene", "[(4-Nitrophenoxy)methyl]oxirane", "1-(4-Nitrophenoxy)-2,3-epoxypropane", "4-(2,3-Epoxypropoxy)nitrobenzene", "NSC 1733", "1,2-Epoxy-3-(4-nitrophenoxy)propane"], "SMILES": "N(=O)(=O)C1=CC=C(OCC2CO2)C=C1", "physical_data": {"Molecular Weight": "195.17", "Molecular Formula": "C9H9NO4", "Boiling Point": "148-150 \u00b0C @ Press: 1.5 Torr", "Melting Point": "69 \u00b0C"}}