{"cas_no": "5255-17-4", "cn_name": "3B-\u7f9f\u57fa-D5-\u80c6\u70ef\u9178", "en_name": ["Cholenic acid", "Chol-5-en-24-oic acid, 3-hydroxy-, (3\u03b2)-", "Chol-5-en-24-oic acid, 3\u03b2-hydroxy-", "Chol-5-enic acid, 3\u03b2-hydroxy-", "(3\u03b2)-3-Hydroxychol-5-en-24-oic acid", "3\u03b2-Hydroxychol-5-enoic acid", "3\u03b2-Hydroxychol-5-en-24-ic acid", "\u03945-Cholenic acid", "3\u03b2-Hydroxychol-5-en-24-oic acid", "3\u03b2-Hydroxy-5-cholenic acid", "3\u03b2-Hydroxycholenoic acid", "Cholenic acid", "\u03945-3\u03b2-Hydroxycholenic acid", "3\u03b2-Hydroxy-\u03945-cholenic acid", "ZINC 04831336"], "SMILES": "CC12C(C3C(C4(C)C(=CC3)CC(O)CC4)CC1)CCC2C(CCC(O)=O)C", "physical_data": {"Molecular Weight": "374.56", "Molecular Formula": "C24H38O3", "Melting Point": "169-170 \u00b0C"}}