{"cas_no": "52562-19-3", "cn_name": "2-\u5f02\u4e19\u70ef\u82ef\u57fa\u82ef\u80fa", "en_name": ["2-Isopropenylaniline", "Benzenamine, 2-(1-methylethenyl)-", "2-(1-Methylethenyl)benzenamine", "2-Isopropenylaniline", "o-Isopropenylaniline", "2-(1-Methylethenyl)aniline", "NSC 76548", "2-(Prop-1-en-2-yl)benzenamine", "2-(Prop-1-en-2-yl)aniline"], "SMILES": "C(C)(=C)C1=C(N)C=CC=C1", "physical_data": {"Molecular Weight": "133.19", "Molecular Formula": "C9H11N", "Boiling Point": "83.5-87.5 \u00b0C @ Press: 1-2 Torr", "Density": "0.9781 g/cm\u00b3 @ Temp: 25 \u00b0C"}}