{"cas_no": "52577-09-0", "cn_name": "3-\u6c2f\u7532\u57fa-4-\u7532\u6c27\u57fa-\u82ef\u7532\u919b", "en_name": ["3-(Chloromethyl)-4-methoxybenzaldehyde", "Benzaldehyde, 3-(chloromethyl)-4-methoxy-", "3-(Chloromethyl)-4-methoxybenzaldehyde", "3-Chloromethyl-4-methoxybenzaldehyde"], "SMILES": "C(Cl)C1=C(OC)C=CC(C=O)=C1", "physical_data": {"Molecular Weight": "184.62", "Molecular Formula": "C9H9ClO2", "Boiling Point": "150-155 \u00b0C @ Press: 5 Torr", "Melting Point": "60 \u00b0C"}}