{"cas_no": "52589-12-5", "cn_name": "\u53cc\u7f9f\u57fa\u6bdb\u5730\u9ec4\u6bd2\u82f7", "en_name": ["(3\u03b2,5\u03b2,12\u03b2,16\u03b2)-3-[(O-2,6-Dideoxy-\u03b2-D-ribo-hexopyranosyl-(1\u21924)-O-2,6-dideoxy-\u03b2-D-ribo-hexopyranosyl-(1\u21924)-2,6-dideoxy-\u03b2-D-ribo-hexopyranosyl)oxy]-12,14,16-trihydroxycard-20(22)-enolide", "Card-20(22)-enolide, 3-[(O-2,6-dideoxy-\u03b2-D-ribo-hexopyranosyl-(1\u21924)-O-2,6-dideoxy-\u03b2-D-ribo-hexopyranosyl-(1\u21924)-2,6-dideoxy-\u03b2-D-ribo-hexopyranosyl)oxy]-12,14,16-trihydroxy-, (3\u03b2,5\u03b2,12\u03b2,16\u03b2)-", "Diginatin", "(3\u03b2,5\u03b2,12\u03b2,16\u03b2)-3-[(O-2,6-Dideoxy-\u03b2-D-ribo-hexopyranosyl-(1\u21924)-O-2,6-dideoxy-\u03b2-D-ribo-hexopyranosyl-(1\u21924)-2,6-dideoxy-\u03b2-D-ribo-hexopyranosyl)oxy]-12,14,16-trihydroxycard-20(22)-enolide"], "SMILES": "OC12C(C)(C(C(O)C1)C=3COC(=O)C3)C(O)CC4C2CCC5C4(C)CCC(OC6CC(O)C(OC7CC(O)C(OC8CC(O)C(O)C(C)O8)C(C)O7)C(C)O6)C5", "physical_data": {"Molecular Weight": "796.94", "Molecular Formula": "C41H64O15", "Melting Point": "182-195 \u00b0C"}}