{"cas_no": "52589-39-6", "cn_name": "4-\u7532\u57fa\u90bb\u82ef\u4e8c\u915a\u4e8c\u4e59\u9178\u4e8c\u7532\u916f", "en_name": ["1,1\u2032-Dimethyl 2,2\u2032-[(4-methyl-1,2-phenylene)bis(oxy)]bis[acetate]", "Acetic acid, 2,2\u2032-[(4-methyl-1,2-phenylene)bis(oxy)]bis-, 1,1\u2032-dimethyl ester", "Acetic acid, 2,2\u2032-[(4-methyl-1,2-phenylene)bis(oxy)]bis-, dimethyl ester", "1,1\u2032-Dimethyl 2,2\u2032-[(4-methyl-1,2-phenylene)bis(oxy)]bis[acetate]"], "SMILES": "O(CC(OC)=O)C1=C(OCC(OC)=O)C=CC(C)=C1", "physical_data": {"Molecular Weight": "268.26", "Molecular Formula": "C13H16O6", "Boiling Point": "120 \u00b0C @ Press: 98 Torr", "Melting Point": "39-41 \u00b0C"}}