{"cas_no": "5259-98-3", "cn_name": "5-\u6c2f-1-\u620a\u9187", "en_name": ["5-Chloro-1-pentanol", "1-Pentanol, 5-chloro-", "5-Chloro-1-pentanol", "Pentamethylene chlorohydrin", "5-Chloropentanol", "\u03c9-Chloropentanol", "NSC 1107", "1-Chloro-5-pentanol"], "SMILES": "C(CCCl)CCO", "physical_data": {"Molecular Weight": "122.59", "Molecular Formula": "C5H11ClO", "Boiling Point": "112 \u00b0C @ Press: 12 Torr", "Density": "1.0436 g/cm\u00b3 @ Temp: 20 \u00b0C"}}