{"cas_no": "5259-88-1", "cn_name": "\u6c27\u5316\u840e\u9508\u7075", "en_name": ["Oxycarboxine", "1,4-Oxathiin-3-carboxamide, 5,6-dihydro-2-methyl-N-phenyl-, 4,4-dioxide", "1,4-Oxathiin-3-carboxanilide, 5,6-dihydro-2-methyl-, 4,4-dioxide", "F 461", "DCMOD", "Plantvax", "5,6-Dihydro-2-methyl-1,4-oxathiin-3-carboxanilide 4,4-dioxide", "Oxycarboxin", "Oxycarboxine", "Carboxin sulfone", "Vitavax sulfone", "Oxicarboxin", "F 461 (pesticide)", "Plantvax 20", "Rendor", "NSC 232673"], "SMILES": "C(NC1=CC=CC=C1)(=O)C=2S(=O)(=O)CCOC2C", "physical_data": {"Molecular Weight": "267.30", "Molecular Formula": "C12H13NO4S", "Melting Point": "127.5-130 \u00b0C"}}