{"cas_no": "526-07-8", "cn_name": "\u829d\u9ebb\u6797\u7d20", "en_name": ["Sesamolin", "1,3-Benzodioxole, 5-[(1S,3aR,4R,6aR)-4-(1,3-benzodioxol-5-yloxy)tetrahydro-1H,3H-furo[3,4-c]furan-1-yl]-", "Sesamolin", "1H,3H-Furo[3,4-c]furan, tetrahydro-1-[3,4-(methylenedioxy)phenoxy]-4-[3,4-(methylenedioxy)phenyl]-, (1R,3aR,4S,6aR)-", "1,3-Benzodioxole, 5-[4-(1,3-benzodioxol-5-yloxy)tetrahydro-1H,3H-furo[3,4-c]furan-1-yl]-, [1S-(1\u03b1,3a\u03b1,4\u03b1,6a\u03b1)]-", "1,3-Benzodioxole, 5-[4-(1,3-benzodioxol-5-yloxy)tetrahydro-1H,3H-furo[3,4-c]furan-1-yl]-, (1S,3aR,4R,6aR)-", "1H,3H-Furo[3,4-c]furan, 1,3-benzodioxole deriv.", "5-[(1S,3aR,4R,6aR)-4-(1,3-Benzodioxol-5-yloxy)tetrahydro-1H,3H-furo[3,4-c]furan-1-yl]-1,3-benzodioxole", "2-(3,4-Methylenedioxyphenoxy)-6-(3,4-methylenedioxyphenyl)-cis-3,7-dioxabicyclo[3.3.0]octane", "Tetrahydro-1-[3,4-(methylenedioxy)phenoxy]-4-[3,4-(methylenedioxy)phenyl]-1H,3H-furo[3,4-c]furan", "(+)-Sesamolin"], "SMILES": "O(C1C2C(C(OC2)C=3C=C4C(=CC3)OCO4)CO1)C=5C=C6C(=CC5)OCO6", "physical_data": {"Molecular Weight": "370.35", "Molecular Formula": "C20H18O7", "Melting Point": "93.5 \u00b0C"}}