{"cas_no": "526-08-9", "cn_name": "\u78fa\u80fa\u82ef\u5421\u5511", "en_name": ["Sulfaphenazole", "Benzenesulfonamide, 4-amino-N-(1-phenyl-1H-pyrazol-5-yl)-", "Sulfanilamide, N1-(1-phenylpyrazol-5-yl)-", "4-Amino-N-(1-phenyl-1H-pyrazol-5-yl)benzenesulfonamide", "3-(p-Aminobenzenesulfonamido)-2-phenylpyrazole", "Depocid", "Merian", "Orisul", "N1-(1-Phenylpyrazol-5-yl)sulfanilamide", "1-Phenyl-5-sulfanilamidopyrazole", "Sulfabid", "5-Sulfanilamido-1-phenylpyrazole", "Sulfaphenazol", "Sulfaphenazole", "Sulfaphenylpyrazole", "Eftolon", "2-Phenyl-3-sulfanilamidopyrazole", "Depotsulfonamide", "Sulfaphenazon", "Sulphaphenazole", "Inamil", "Isarol", "Paidazolo", "Raziosulfa", "Microtan pirazolo", "Firmazolo", "Plisulfan", "Orisulf", "Isarol V", "MeSH ID: D013426"], "SMILES": "N(S(=O)(=O)C1=CC=C(N)C=C1)C=2N(N=CC2)C3=CC=CC=C3", "physical_data": {"Molecular Weight": "314.36", "Molecular Formula": "C15H14N4O2S", "Melting Point": "181 \u00b0C", "Density": "1.397 g/cm\u00b3"}}