{"cas_no": "526-98-7", "cn_name": "2-\u916e-L-\u53e4\u6d1b\u7cd6\u9178", "en_name": ["2-keto-L-Gulonic acid", "L-xylo-2-Hexulosonic acid", "L-xylo-Hexulosonic acid", "Gulonic acid, 2-keto-, L-", "Idonic acid, 2-keto-, L-", "2-keto-L-Gulonic acid", "2-Keto-L-gulonic acid", "L-Xylohexulosonic acid", "2-Keto-L-idonic acid"], "SMILES": "C(C(C(CO)O)O)(C(C(O)=O)=O)O", "physical_data": {"Molecular Weight": "194.14", "Molecular Formula": "C6H10O7", "Melting Point": "171 \u00b0C"}}