{"cas_no": "526-99-8", "cn_name": "\u9ecf\u9178", "en_name": ["Mucic acid", "Galactaric acid", "Mucic acid", "Galactosaccharic acid", "Saccharolactic acid", "NSC 8127", "galacto-Hexaric acid"], "SMILES": "C(C(C(C(O)=O)O)O)(C(C(O)=O)O)O", "physical_data": {"Molecular Weight": "210.14", "Molecular Formula": "C6H10O8", "Melting Point": "200-210 \u00b0C"}}