{"cas_no": "526-78-3", "cn_name": "2,3-\u4e8c\u6eb4\u4e01\u4e8c\u9178", "en_name": ["2,3-Dibromosuccinic acid", "Butanedioic acid, 2,3-dibromo-", "Succinic acid, 2,3-dibromo-", "Succinic acid, \u03b1,\u03b2-dibromo-", "2,3-Dibromobutanedioic acid", "\u03b1,\u03b2-Dibromosuccinic acid", "2,3-Dibromosuccinic acid", "NSC 119053", "NSC 1904"], "SMILES": "C(C(C(O)=O)Br)(C(O)=O)Br", "physical_data": {"Molecular Weight": "275.88", "Molecular Formula": "C4H4Br2O4", "Melting Point": "167 \u00b0C"}}