{"cas_no": "526-86-3", "cn_name": "2,3-\u4e8c\u7532\u57fa-1,4-\u82ef\u918c", "en_name": ["2,3-Dimethyl-2,5-cyclohexadiene-1,4-dione", "2,5-Cyclohexadiene-1,4-dione, 2,3-dimethyl-", "p-Benzoquinone, 2,3-dimethyl-", "2,3-Dimethyl-2,5-cyclohexadiene-1,4-dione", "o-Xyloquinone", "2,3-Dimethylbenzoquinone", "2,3-Dimethyl-1,4-benzoquinone", "2,3-Dimethyl-p-benzoquinone", "2,3-Dimethyl-p-quinone", "2,3-Dimethylquinone", "NSC 402192"], "SMILES": "CC1=C(C)C(=O)C=CC1=O", "physical_data": {"Molecular Weight": "136.15", "Molecular Formula": "C8H8O2", "Melting Point": "55 \u00b0C"}}