{"cas_no": "526-06-7", "cn_name": "\u6849\u8102\u7d20", "en_name": ["(-)-Eudesmin", "1H,3H-Furo[3,4-c]furan, 1,4-bis(3,4-dimethoxyphenyl)tetrahydro-, (1R,3aS,4R,6aS)-", "1H,3H-Furo[3,4-c]furan, 1\u03b1,4\u03b1-bis(3,4-dimethoxyphenyl)-3a\u03b1,4,6,6a\u03b1-tetrahydro-, (-)-", "1H,3H-Furo[3,4-c]furan, 1,4-bis(3,4-dimethoxyphenyl)tetrahydro-, [1R-(1\u03b1,3a\u03b1,4\u03b1,6a\u03b1)]-", "Eudesamin", "(1R,3aS,4R,6aS)-1,4-Bis(3,4-dimethoxyphenyl)tetrahydro-1H,3H-furo[3,4-c]furan", "Eudesmin", "(-)-Eudesmin", "NSC 35476"], "SMILES": "O(C)C=1C=C(C2C3C(C(OC3)C4=CC(OC)=C(OC)C=C4)CO2)C=CC1OC", "physical_data": {"Molecular Weight": "386.44", "Molecular Formula": "C22H26O6", "Melting Point": "107 \u00b0C"}}