{"cas_no": "526-55-6", "cn_name": "\u8272\u9187", "en_name": ["Tryptophol", "1H-Indole-3-ethanol", "Indole-3-ethanol", "Tryptophol", "3-(2-Hydroxyethyl)indole", "IEA", "\u03b2-(3-Indole)ethanol", "2-(3-Indolyl)ethanol", "3-(\u03b2-Hydroxyethyl)indole", "3-(2-Hydroxyethyl)-1H-indole", "NSC 3884", "2-(1H-Indol-3-yl)ethanol", "2-(1H-Indol-3-yl)ethan-1-ol"], "SMILES": "C(CO)C=1C=2C(NC1)=CC=CC2", "physical_data": {"Molecular Weight": "161.20", "Molecular Formula": "C10H11NO", "Boiling Point": "174 \u00b0C @ Press: 2 Torr", "Melting Point": "59 \u00b0C"}}