{"cas_no": "526-31-8", "cn_name": "\u76f8\u601d\u8c46\u6bd2\u7d20", "en_name": ["N-Methyl-L-tryptophan", "L-Tryptophan, N-methyl-", "Tryptophan, N-methyl-, L-", "N-Methyl-L-tryptophan", "L-Abrine", "N-Methyltryptophan", "Abrine", "Abrine (amino acid)", "L-N-Methyltryptophan", "N-\u03b1-Methyl-L-tryptophan", "L-(+)-Abrine", "(S)-3-(1H-Indol-3-yl)-2-methylaminopropionic acid", "NPLC 0233", "(2S)-3-(1H-Indol-3-yl)-2-(methylazaniumyl)propanoate"], "SMILES": "C(C(C(O)=O)NC)C=1C=2C(NC1)=CC=CC2", "physical_data": {"Molecular Weight": "218.25", "Molecular Formula": "C12H14N2O2", "Melting Point": "289 \u00b0C (decomp)"}}