{"cas_no": "526-87-4", "cn_name": "CONDURITOL A", "en_name": ["Conduritol", "5-Cyclohexene-1,2,3,4-tetrol, (1R,2S,3R,4S)-rel-", "Conduritol", "5-Cyclohexene-1,2,3,4-tetrol, (1\u03b1,2\u03b2,3\u03b2,4\u03b1)-", "rel-(1R,2S,3R,4S)-5-Cyclohexene-1,2,3,4-tetrol", "Kondurite", "Conduritol A"], "SMILES": "OC1C(O)C(O)C=CC1O", "physical_data": {"Molecular Weight": "146.14", "Molecular Formula": "C6H10O4", "Melting Point": "145 \u00b0C"}}