{"cas_no": "526-36-3", "cn_name": "\u8d5b\u6d1b\u5511\u5549", "en_name": ["Xylometazoline", "1H-Imidazole, 2-[[4-(1,1-dimethylethyl)-2,6-dimethylphenyl]methyl]-4,5-dihydro-", "2-Imidazoline, 2-(4-tert-butyl-2,6-dimethylbenzyl)-", "2-[[4-(1,1-Dimethylethyl)-2,6-dimethylphenyl]methyl]-4,5-dihydro-1H-imidazole", "2-(4-tert-Butyl-2,6-dimethylbenzyl)-2-imidazoline", "Otrivine", "Xylometazoline", "Otrivin", "2-(4\u2032-tert-Butyl-2\u2032,6\u2032-dimethylphenylmethyl)imidazoline", "2-(4\u2032-tert-Butyl-2\u2032,6\u2032-dimethylbenzyl)imidazoline", "Otriven", "Otrix", "Ba 11391", "Rhinoxilin", "2-(4-tert-Butyl-2,6-dimethyl-benzyl)-4,5-dihydro-1H-imidazole", "2-[(4-tert-Butyl-2,6-dimethylphenyl)methyl]-4,5-dihydro-1H-imidazole"], "SMILES": "C(C1=C(C)C=C(C(C)(C)C)C=C1C)C=2NCCN2", "physical_data": {"Molecular Weight": "244.38", "Molecular Formula": "C16H24N2", "Melting Point": "132 \u00b0C"}}