{"cas_no": "526-73-8", "cn_name": "\u8054\u4e09\u7532\u82ef", "en_name": ["1,2,3-Trimethylbenzene", "Benzene, 1,2,3-trimethyl-", "1,2,3-Trimethylbenzene", "Hemimellitene", "Hemimellitol", "NSC 5167", "NSC 65599"], "SMILES": "CC1=C(C)C=CC=C1C", "physical_data": {"Molecular Weight": "120.19", "Molecular Formula": "C9H12", "Boiling Point": "176 \u00b0C", "Melting Point": "-25 \u00b0C", "Density": "0.89 g/cm\u00b3"}}