{"cas_no": "526-18-1", "cn_name": "\u67f3\u80fa\u915a", "en_name": ["Osalmid", "Benzamide, 2-hydroxy-N-(4-hydroxyphenyl)-", "Salicylanilide, 4\u2032-hydroxy-", "2-Hydroxy-N-(4-hydroxyphenyl)benzamide", "Driol", "Driol-Labaz", "Enidran", "N-(p-Hydroxyphenyl)salicylamide", "4\u2032-Hydroxysalicylanilide", "Oxaphenamide", "Salmidochol", "p-Hydroxyphenylsalicylamide", "PHPS", "p\u2032-Hydroxysalicylanilide", "N\u2032-Salicyloyl-p-aminophenol", "N-(4-Hydroxyphenyl)salicylamide", "Osalmid", "Osalmide", "Auxobil", "Bilene", "Oxaphenamid", "Dribazil", "L 1718", "Bilocol", "Li Dan Feng", "WR 17456", "Fumispore", "Oksafenamide", "Saryuurin", "Jestmin", "Kanochol", "Yoshicol", "NSC 93960"], "SMILES": "C(NC1=CC=C(O)C=C1)(=O)C2=C(O)C=CC=C2", "physical_data": {"Molecular Weight": "229.23", "Molecular Formula": "C13H11NO3", "Melting Point": "179 \u00b0C"}}