{"cas_no": "526-95-4", "cn_name": "\u8461\u8404\u7cd6\u9178", "en_name": ["Gluconic acid", "D-Gluconic acid", "Gluconic acid, D-", "Gluconic acid", "Maltonic acid", "Dextronic acid", "Glyconic acid", "Glycogenic acid", "Pentahydroxycaproic acid", "NSC 77381", "Gluconal GA-50", "Sour Oligo"], "SMILES": "C(C(C(CO)O)O)(C(C(O)=O)O)O", "physical_data": {"Molecular Weight": "196.16", "Molecular Formula": "C6H12O7", "Melting Point": "131 \u00b0C", "Density": "1.24 g/cm\u00b3 @ Temp: 25 \u00b0C"}}