{"cas_no": "526-75-0", "cn_name": "2,3-\u4e8c\u7532\u915a", "en_name": ["2,3-Dimethylphenol", "Phenol, 2,3-dimethyl-", "2,3-Xylenol", "2,3-Dimethylphenol", "o-Xylenol", "1-Hydroxy-2,3-dimethylbenzene", "1,2-Dimethyl-3-hydroxybenzene", "NSC 62011", "2,3-DMP"], "SMILES": "CC1=C(C)C=CC=C1O", "physical_data": {"Molecular Weight": "122.16", "Molecular Formula": "C8H10O", "Boiling Point": "218 \u00b0C", "Melting Point": "72.8 \u00b0C"}}