{"cas_no": "52605-96-6", "cn_name": "2-\u6c2f-3-\u7532\u6c27\u57fa\u5421\u5576", "en_name": ["2-Chloro-3-methoxypyridine", "Pyridine, 2-chloro-3-methoxy-", "2-Chloro-3-methoxypyridine"], "SMILES": "O(C)C1=C(Cl)N=CC=C1", "physical_data": {"Molecular Weight": "143.57", "Molecular Formula": "C6H6ClNO", "Melting Point": "46-47 \u00b0C"}}