{"cas_no": "52602-39-8", "cn_name": "4-\u7f9f\u57fa\u5494\u5511", "en_name": ["4-Hydroxycarbazole", "9H-Carbazol-4-ol", "4-Carbazolol", "4-Hydroxycarbazole", "SKF 106023", "4-Hydroxy-9H-carbazole"], "SMILES": "OC1=C2C=3C(NC2=CC=C1)=CC=CC3", "physical_data": {"Molecular Weight": "183.21", "Molecular Formula": "C12H9NO", "Melting Point": "169-170 \u00b0C"}}