{"cas_no": "5260-37-7", "cn_name": "3-\u4e59\u57fa-2-\u7532\u57fa-\u82ef\u5e76\u6076\u5511\u7fc1\u7898\u5316\u7269", "en_name": ["Benzoxazolium, 3-ethyl-2-methyl-, iodide (1:1)", "Benzoxazolium, 3-ethyl-2-methyl-, iodide (1:1)", "Benzoxazolium, 3-ethyl-2-methyl-, iodide", "3-Ethyl-2-methylbenzoxazolium iodide", "2-Methylbenzoxazole ethiodide", "3-Ethyl-2-methylbenzooxazolium iodide", "3-Ethyl-2-methylbenzo[d]oxazol-3-ium iodide"], "SMILES": "C(C)[N+]=1C=2C(OC1C)=CC=CC2.[I-]", "physical_data": {"Molecular Weight": "", "Molecular Formula": "C10H12NO.I", "Melting Point": "195-197 \u00b0C"}}