{"cas_no": "52605-98-8", "cn_name": "2,3-\u4e8c\u7532\u6c27\u57fa-5-\u6eb4\u5421\u5576", "en_name": ["5-Bromo-2,3-dimethoxypyridine", "Pyridine, 5-bromo-2,3-dimethoxy-", "5-Bromo-2,3-dimethoxypyridine", "2,3-Dimethoxy 5-bromo pyridine"], "SMILES": "O(C)C1=C(OC)C=C(Br)C=N1", "physical_data": {"Molecular Weight": "218.05", "Molecular Formula": "C7H8BrNO2", "Melting Point": "172-175 \u00b0C"}}