{"cas_no": "52601-70-4", "cn_name": "8-\u7532\u57fa-1,2,3,4-\u56db\u6c22\u55b9\u5549", "en_name": ["8-Methyl-1,2,3,4-tetrahydroquinoline", "Quinoline, 1,2,3,4-tetrahydro-8-methyl-", "1,2,3,4-Tetrahydro-8-methylquinoline", "8-Methyl-1,2,3,4-tetrahydroquinoline"], "SMILES": "CC1=C2C(=CC=C1)CCCN2", "physical_data": {"Molecular Weight": "147.22", "Molecular Formula": "C10H13N", "Boiling Point": "97-98 \u00b0C @ Press: 3 Torr"}}