{"cas_no": "52617-37-5", "cn_name": "\u51ac\u51cc\u8349\u4e59\u7d20", "en_name": ["Ponicidin", "Kaur-16-en-15-one, 7,20:14,20-diepoxy-1,6,7-trihydroxy-, (1\u03b1,6\u03b2,7\u03b1,14S,20S)-", "Ponicidin", "4,1,5,8-[1]Propanyl[3]ylidyne-1H,6aH,8H-oxocino[3,2-j][2]benzopyran, kaur-16-en-15-one deriv.", "(1\u03b1,6\u03b2,7\u03b1,14S,20S)-7,20:14,20-Diepoxy-1,6,7-trihydroxykaur-16-en-15-one", "Rubescensin B", "Rubescensine B"], "SMILES": "OC12C34C5C6(C(O1)OC3C(C(=C)C4=O)CC5)C(C2O)C(C)(C)CCC6O", "physical_data": {"Molecular Weight": "362.42", "Molecular Formula": "C20H26O6", "Melting Point": "239-242 \u00b0C"}}