{"cas_no": "52629-46-6", "cn_name": "2,4,6-\u4e09\u7532\u57fa\u82ef\u4e59\u9178", "en_name": ["2,4,6-Trimethylbenzeneacetyl chloride", "Benzeneacetyl chloride, 2,4,6-trimethyl-", "Acetyl chloride, mesityl-", "2,4,6-Trimethylbenzeneacetyl chloride", "(2,4,6-Trimethylphenyl)acetyl chloride", "Mesityleneacetyl chloride", "Mesitylacetyl chloride", "\u03b1-Mesitylacetyl chloride", "Mesitylacetic acid chloride", "2,4,6-Trimethylphenylacetic acid chloride", "2-Mesitylacetylchloride", "2-Mesitylacetyl chloride"], "SMILES": "C(C(Cl)=O)C1=C(C)C=C(C)C=C1C", "physical_data": {"Molecular Weight": "196.67", "Molecular Formula": "C11H13ClO", "Boiling Point": "130 \u00b0C @ Press: 10 Torr"}}