{"cas_no": "5263-87-6", "cn_name": "6-\u7532\u6c27\u57fa\u55b9\u5549", "en_name": ["6-Methoxyquinoline", "Quinoline, 6-methoxy-", "6-Methoxyquinoline", "NSC 1954"], "SMILES": "O(C)C1=CC2=C(C=C1)N=CC=C2", "physical_data": {"Molecular Weight": "159.18", "Molecular Formula": "C10H9NO", "Boiling Point": "306 \u00b0C", "Melting Point": "26.5 \u00b0C", "Density": "1.000 g/cm\u00b3 @ Temp: 20 \u00b0C"}}