{"cas_no": "52645-53-1", "cn_name": "\u6c2f\u83ca\u916f", "en_name": ["Permethrin", "Cyclopropanecarboxylic acid, 3-(2,2-dichloroethenyl)-2,2-dimethyl-, (3-phenoxyphenyl)methyl ester", "NRDC 143", "NIA 33297", "m-Methoxybenzyl 3-(2,2-dichlorovinyl)-2,2-dimethylcyclopropanecarboxylate", "FMC 33297", "Permethrin", "SBP 1513", "3-Phenoxybenzyl 2,2-dimethyl-3-(2,2-dichlorovinyl)cyclopropanecarboxylate", "m-Phenoxybenzyl 3-(2,2-dichlorovinyl)-2,2-dimethylcyclopropanecarboxylate", "S 3151", "Exmin", "WL 43479", "ICI-PP 557", "FMC 41655", "Ectiban", "Ambush", "PP 557", "Kestrel (pesticide)", "Kestrel", "Pounce", "SBP 15131TEC", "Coopex", "Perigen W", "Chinetrin", "Permasect", "3-Phenoxybenzyl 3-(2,2-dichlorovinyl)-2,2-dimethylcyclopropanecarboxylate", "Perigen", "MP 79", "Ecsumin", "Antiborer 3768", "Ipitox", "Efmethrin", "Corsair", "Diffusil H", "Stomoxin", "Anomethrin N", "Kavil", "Spartan", "Stomozan", "Mitin BC", "Permanone", "Damminix", "JF 7065", "Imperator", "Dragon", "Cooper", "Kaleait", "Kudos", "Dragnet", "Dragnet FT", "Insorbcid MP", "Riapan A", "Spartan (pesticide)", "Adion", "Permanone 80", "Pertrin E", "Bematin 987", "(3-Phenoxyphenyl)methyl 2,2-dimethyl-3-(2,2-dichlorovinyl)cyclopropanecarboxylate", "Lyclear", "Sharkesuper", "Permethrine", "Acticin", "Elimite", "Piredam", "MP 79 (ester)", "Eulan SPA", "Pulvex", "Ridect Pour-On", "Pynosect", "Nix", "BioKill", "Smite EC 10", "Last Call", "Permectin II", "Permitrine", "Aninsen Per-30", "Repel Permanone", "Butox 50", "Nix (insecticide)", "Eliminator Ant, Flea &", "Tick Killer", "Permanone 90", "Skintex MR-III", "Dancide PS 150", "Dichlorophenothrin", "Astro", "Bansect", "Insectal Plus", "InfectoPedicul", "Everwood PC 30W", "Nedax", "Permanone 40", "Timbertreat ICP 5", "Aqua-Kontrol", "Preventol HS 75", "Perm-UP", "Tanalith T", "Perigen Defense", "Perigen 500", "Permethrin I", "Permethrin II", "Top Spot on Stronger", "Torpedo", "AM 23-24", "Sanitized AM 23-24", "MeSH ID: D026023"], "SMILES": "C(=C(Cl)Cl)C1C(C(OCC2=CC(OC3=CC=CC=C3)=CC=C2)=O)C1(C)C", "physical_data": {"Molecular Weight": "391.29", "Molecular Formula": "C21H20Cl2O3", "Boiling Point": "&gt;290 \u00b0C @ Press: 760 Torr", "Melting Point": "34-35 \u00b0C", "Density": "1.19-1.27 g/cm\u00b3 @ Temp: 20 \u00b0C"}}