{"cas_no": "5264-65-3", "cn_name": "4-\u6c2f-3,5-\u4e8c\u785d\u57fa\u7532\u82ef", "en_name": ["2-Chloro-5-methyl-1,3-dinitrobenzene", "Benzene, 2-chloro-5-methyl-1,3-dinitro-", "Toluene, 4-chloro-3,5-dinitro-", "2-Chloro-5-methyl-1,3-dinitrobenzene", "3,5-Dinitro-4-chlorotoluene", "2,6-Dinitro-4-methylchlorobenzene", "4-Chloro-3,5-dinitrotoluene", "4-Methyl-2,6-dinitrochlorobenzene", "1-Chloro-4-methyl-2,6-dinitrobenzene", "1-Chloro-2,6-dinitro-4-methylbenzene", "NSC 105591"], "SMILES": "N(=O)(=O)C1=C(Cl)C(N(=O)=O)=CC(C)=C1", "physical_data": {"Molecular Weight": "216.58", "Molecular Formula": "C7H5ClN2O4", "Melting Point": "115-116 \u00b0C"}}