{"cas_no": "52659-56-0", "cn_name": "\u5947\u58ec\u9187", "en_name": ["Kirenol", "1,7-Phenanthrenedimethanol, 1,2,3,4,4a,4b,5,6,7,9,10,10a-dodecahydro-3-hydroxy-\u03b17-(hydroxymethyl)-1,4a,7-trimethyl-, (\u03b17R,1R,3S,4aS,4bR,7S,10aS)-", "1,7-Phenanthrenedimethanol, 1,2,3,4,4a,4b,5,6,7,9,10,10a-dodecahydro-3-hydroxy-\u03b17-(hydroxymethyl)-1,4a,7-trimethyl-, [1R-[1\u03b1,3\u03b2,4a\u03b1,4b\u03b2,7\u03b1(R*),10a\u03b2]]-", "(\u03b17R,1R,3S,4aS,4bR,7S,10aS)-1,2,3,4,4a,4b,5,6,7,9,10,10a-Dodecahydro-3-hydroxy-\u03b17-(hydroxymethyl)-1,4a,7-trimethyl-1,7-phenanthrenedimethanol", "Kirenol"], "SMILES": "CC12C3C(=CC(C(CO)O)(C)CC3)CCC1C(CO)(C)CC(O)C2", "physical_data": {"Molecular Weight": "338.48", "Molecular Formula": "C20H34O4", "Melting Point": "201-202 \u00b0C"}}