{"cas_no": "52665-69-7", "cn_name": "\u79bb\u5b50\u8f7d\u4f53(\u9499\u9541\u76d0\u6df7\u5408\u7269)", "en_name": ["Calcimycin", "4-Benzoxazolecarboxylic acid, 5-(methylamino)-2-[[(2R,3R,6S,8S,9R,11R)-3,9,11-trimethyl-8-[(1S)-1-methyl-2-oxo-2-(1H-pyrrol-2-yl)ethyl]-1,7-dioxaspiro[5.5]undec-2-yl]methyl]-", "4-Benzoxazolecarboxylic acid, 5-(methylamino)-2-[[3,9,11-trimethyl-8-[1-methyl-2-oxo-2-(1H-pyrrol-2-yl)ethyl]-1,7-dioxaspiro[5.5]undec-2-yl]methyl]-, [6S-[6\u03b1(2S*,3S*),8\u03b2(R*),9\u03b2,11\u03b1]]-", "1,7-Dioxaspiro[5.5]undecane, 4-benzoxazolecarboxylic acid deriv.", "5-(Methylamino)-2-[[(2R,3R,6S,8S,9R,11R)-3,9,11-trimethyl-8-[(1S)-1-methyl-2-oxo-2-(1H-pyrrol-2-yl)ethyl]-1,7-dioxaspiro[5.5]undec-2-yl]methyl]-4-benzoxazolecarboxylic acid", "Antibiotic A 23187", "A 23187", "Calcimycin", "[6S-[6\u03b1(2S*,3S*),8\u03b2(R*),9\u03b2,11\u03b1]]-5-(Methylamino)-2-[[3,9,11-trimethyl-8-[1-methyl-2-oxo-2-(1H-pyrrol-2-yl)ethyl]-1,7-dioxaspiro[5,5]undec-2-yl]methyl]-4-benzoxazolecarboxylic acid", "Ionophore A 23187", "Calimycin", "Calcium ionophore A 23187", "Calcium ionophore III", "MeSH ID: D000001"], "SMILES": "CC1C2(OC(C(C(=O)C3=CC=CN3)C)C(C)C1)OC(CC4=NC=5C(O4)=CC=C(NC)C5C(O)=O)C(C)CC2", "physical_data": {"Molecular Weight": "523.62", "Molecular Formula": "C29H37N3O6", "Melting Point": "181.5 \u00b0C"}}