{"cas_no": "52667-89-7", "cn_name": "1,4,7-\u4e09\u5bf9\u7532\u82ef\u78fa\u9170\u57fa-1,4,7-\u4e09\u6c2e\u6742\u73af\u58ec\u70f7", "en_name": ["Octahydro-1,4,7-tris[(4-methylphenyl)sulfonyl]-1H-1,4,7-triazonine", "1H-1,4,7-Triazonine, octahydro-1,4,7-tris[(4-methylphenyl)sulfonyl]-", "Octahydro-1,4,7-tris[(4-methylphenyl)sulfonyl]-1H-1,4,7-triazonine", "1,4,7-Tris(p-tolylsulfonyl)-1,4,7-triazacyclononane", "1,4,7-Tritosyl-1,4,7-triazacyclononane", "1,4,7-Tris(4-toluenesulfonyl)-1,4,7-triazacyclononane", "1,4,7-Tri(p-tolylsulfonyl)-1,4,7-triazacyclononane", "1,4,7-Tris(p-toluenesulfonyl)-1,4,7-triazacyclononane", "1,4,7-Tritosyl-1,4,7-triazonane", "1,4,7-Tris-(4-methylphenyl)sulfonyl-1,4,7-triazonane"], "SMILES": "S(=O)(=O)(N1CCN(S(=O)(=O)C2=CC=C(C)C=C2)CCN(S(=O)(=O)C3=CC=C(C)C=C3)CC1)C4=CC=C(C)C=C4", "physical_data": {"Molecular Weight": "591.76", "Molecular Formula": "C27H33N3O6S3", "Melting Point": "222 \u00b0C"}}