{"cas_no": "52664-35-4", "cn_name": "4-\u6c28\u57fa\u82ef\u915a\u78f7\u9178\u786b\u4ee3\u786b\u9178\u916f(3:1)", "en_name": ["Phenol, 4-amino-, 1,1\u2032,1\u2032\u2032-phosphorothioate", "Phenol, 4-amino-, 1,1\u2032,1\u2032\u2032-phosphorothioate", "Phenol, 4-amino-, phosphorothioate (3:1) (ester)", "Phosphorothioic acid, O,O,O-tris(p-aminophenyl) ester", "Phenol, p-amino-, O,O,O-triester with phosphorothioic acid", "Tris(4-aminophenyl) phosphorothioate", "Tris(4-aminophenyl) thiophosphate"], "SMILES": "P(OC1=CC=C(N)C=C1)(OC2=CC=C(N)C=C2)(OC3=CC=C(N)C=C3)=S", "physical_data": {"Molecular Weight": "387.39", "Molecular Formula": "C18H18N3O3PS", "Melting Point": "156 \u00b0C"}}