{"cas_no": "52667-88-6", "cn_name": "1,4,7,10-\u56db\u7532\u82ef\u78fa\u9170-1,4,7,10-\u56db\u6c2e\u6742\u73af\u5341\u4e8c\u70f7", "en_name": ["1,4,7,10-Tetrakis[(4-methylphenyl)sulfonyl]-1,4,7,10-tetraazacyclododecane", "1,4,7,10-Tetraazacyclododecane, 1,4,7,10-tetrakis[(4-methylphenyl)sulfonyl]-", "1,4,7,10-Tetraazacyclododecane, 1,4,7,10-tetrakis(p-tolylsulfonyl)-", "1,4,7,10-Tetrakis[(4-methylphenyl)sulfonyl]-1,4,7,10-tetraazacyclododecane", "1,4,7,10-Tetrakis(p-tolylsulfonyl)-1,4,7,10-tetraazacyclododecane", "1,4,7,10-Tetra(p-tosyl)-1,4,7,10-tetraazacyclododecane", "1,4,7,10-Tetratosyl-1,4,7,10-tetraazacyclodecane", "1,4,7,10-Tetra(toluene-4-sulfonyl)-1,4,7,10-tetraazacyclododecane", "1,4,7,10-Tetrakis-(4-methylphenyl)sulfonyl-1,4,7,10-tetrazacyclododecane"], "SMILES": "S(=O)(=O)(N1CCN(S(=O)(=O)C2=CC=C(C)C=C2)CCN(S(=O)(=O)C3=CC=C(C)C=C3)CCN(S(=O)(=O)C4=CC=C(C)C=C4)CC1)C5=CC=C(C)C=C5", "physical_data": {"Molecular Weight": "789.02", "Molecular Formula": "C36H44N4O8S4", "Melting Point": "296 \u00b0C"}}