{"cas_no": "52661-56-0", "cn_name": "(E)-3-(5-\u785d\u57fa\u544b\u5583-2-\u57fa)\u4e19\u70ef\u919b", "en_name": ["trans-3-(5-Nitro-2-furyl)acrolein", "2-Propenal, 3-(5-nitro-2-furanyl)-, (2E)-", "2-Propenal, 3-(5-nitro-2-furanyl)-, (E)-", "(2E)-3-(5-Nitro-2-furanyl)-2-propenal", "(E)-3-(5-Nitro-2-furyl)acrolein", "trans-3-(5-Nitro-2-furyl)acrolein", "(2E)-3-(5-nitro-2-furanyl)-2-propenal"], "SMILES": "N(=O)(=O)C=1OC(C=CC=O)=CC1", "physical_data": {"Molecular Weight": "167.12", "Molecular Formula": "C7H5NO4", "Melting Point": "284-285 \u00b0C"}}