{"cas_no": "5267-34-5", "cn_name": "\u4e8c\u82ef\u7532\u80fa\u76d0\u9178\u76d0", "en_name": ["Benzenemethanamine, \u03b1-phenyl-, hydrochloride (1:1)", "Benzenemethanamine, \u03b1-phenyl-, hydrochloride (1:1)", "Methylamine, 1,1-diphenyl-, hydrochloride", "Benzenemethanamine, \u03b1-phenyl-, hydrochloride", "Benzhydrylamine hydrochloride", "1,1-Diphenylmethylamine hydrochloride"], "SMILES": "C(N)(C1=CC=CC=C1)C2=CC=CC=C2.Cl", "physical_data": {"Molecular Weight": "", "Molecular Formula": "C13H13N.ClH", "Boiling Point": "205-207 \u00b0C @ Press: 4 Torr", "Melting Point": "287 \u00b0C"}}