{"cas_no": "5267-39-0", "cn_name": "4-\u6c2f\u4e8c\u82ef\u7532\u80fa\u76d0\u9178\u76d0", "en_name": ["4-Chlorobenzhydrylamine hydrochloride", "Benzenemethanamine, 4-chloro-\u03b1-phenyl-, hydrochloride (1:1)", "Benzylamine, p-chloro-\u03b1-phenyl-, hydrochloride", "Benzenemethanamine, 4-chloro-\u03b1-phenyl-, hydrochloride", "4-Chlorobenzhydrylamine hydrochloride", "p-Chloro-\u03b1-phenylbenzylamine hydrochloride", "NSC 23816", "(4-Chlorophenyl)(phenyl)methanamine hydrochloride"], "SMILES": "C(N)(C1=CC=C(Cl)C=C1)C2=CC=CC=C2.Cl", "physical_data": {"Molecular Weight": "", "Molecular Formula": "C13H12ClN.ClH", "Melting Point": "304-305 \u00b0C (decomp)"}}