{"cas_no": "5267-64-1", "cn_name": "D-\u82ef\u4e19\u6c28\u9187", "en_name": ["D-Phenylalaninol", "Benzenepropanol, \u03b2-amino-, (\u03b2R)-", "1-Propanol, 2-amino-3-phenyl-, (R)-(+)-", "Benzenepropanol, \u03b2-amino-, (R)-", "(\u03b2R)-\u03b2-Aminobenzenepropanol", "D-Phenylalaninol", "(+)-2-Amino-3-phenylpropanol", "(R)-Phenylalaninol", "(R)-2-Amino-3-phenylpropanol", "(R)-(+)-2-Amino-3-phenyl-1-propanol", "(R)-(+)-Phenylalaninol", "(R)-Benzylglycinol", "(R)-(+)-2-Amino-3-phenyl-1-glycinol", "(R)-2-Amino-3-phenyl-1-propanol", "(R)-(+)-2-Amino-3-phenylpropanol", "(R)-1-(Hydroxymethyl)-2-phenylethylamine", "(2R)-3-Phenyl-2-amino-1-propanol", "(R)-3-Phenyl-2-amino-1-propanol", "((1R)-1-Hydroxymethyl-2-phenylethyl)amine", "(2R)-2-Amino-3-phenylpropan-1-ol", "(R)-2-Amino-3-phenylpropan-1-ol", "(2R)-2-Amino-3-phenylpropanol", "(2R)-2-Amino-3-phenylpropan-1-ol", "(R)-Phenylalaninol"], "SMILES": "C(C(CO)N)C1=CC=CC=C1", "physical_data": {"Molecular Weight": "151.21", "Molecular Formula": "C9H13NO", "Melting Point": "91.5 \u00b0C"}}