{"cas_no": "52671-64-4", "cn_name": "4-\u6c28\u57fa-3-\u6c2f\u82ef\u915a\u76d0\u9178\u76d0", "en_name": ["4-Amino-3-chlorophenol hydrochloride", "Phenol, 4-amino-3-chloro-, hydrochloride (1:1)", "Phenol, 4-amino-3-chloro-, hydrochloride", "3-Chloro-4-aminophenol hydrochloride", "2-Chloro-4-hydroxyaniline hydrochloride", "4-Amino-3-chlorophenol hydrochloride"], "SMILES": "ClC1=C(N)C=CC(O)=C1.Cl", "physical_data": {"Molecular Weight": "", "Molecular Formula": "C6H6ClNO.ClH", "Melting Point": "234 \u00b0C"}}