{"cas_no": "52688-11-6", "cn_name": "\u6c30\u4e59\u9178\u73af\u5df1\u916f", "en_name": ["Cyclohexyl 2-cyanoacetate", "Acetic acid, 2-cyano-, cyclohexyl ester", "Acetic acid, cyano-, cyclohexyl ester", "Cyclohexyl 2-cyanoacetate", "Cyclohexyl cyanoacetate", "NSC 69952", "2-Cyano-acetic acid cyclohexyl ester"], "SMILES": "O(C(CC#N)=O)C1CCCCC1", "physical_data": {"Molecular Weight": "167.21", "Molecular Formula": "C9H13NO2", "Boiling Point": "103-108 \u00b0C @ Press: 0.5 Torr"}}