{"cas_no": "52698-46-1", "cn_name": "\u539f\u5f02\u4e01\u9178\u4e09\u7532\u916f", "en_name": ["1,1,1-Trimethoxy-2-methylpropane", "Propane, 1,1,1-trimethoxy-2-methyl-", "1,1,1-Trimethoxy-2-methylpropane", "Trimethyl orthoisobutyrate"], "SMILES": "C(C(C)C)(OC)(OC)OC", "physical_data": {"Molecular Weight": "148.20", "Molecular Formula": "C7H16O3", "Boiling Point": "130-135 \u00b0C @ Press: 760 Torr"}}