{"cas_no": "52697-38-8", "cn_name": "N-[2-[(2-\u6eb4-4,6-\u4e8c\u785d\u57fa\u82ef\u57fa)\u5076\u6c2e]-5-(\u4e8c\u4e59\u6c28\u57fa)\u82ef\u57fa]\u4e59\u9170\u80fa", "en_name": ["N-[2-[2-(2-Bromo-4,6-dinitrophenyl)diazenyl]-5-(diethylamino)phenyl]acetamide", "Acetamide, N-[2-[2-(2-bromo-4,6-dinitrophenyl)diazenyl]-5-(diethylamino)phenyl]-", "Acetamide, N-[2-[(2-bromo-4,6-dinitrophenyl)azo]-5-(diethylamino)phenyl]-", "N-[2-[2-(2-Bromo-4,6-dinitrophenyl)diazenyl]-5-(diethylamino)phenyl]acetamide", "Disperse Violet CW"], "SMILES": "N(=NC1=C(NC(C)=O)C=C(N(CC)CC)C=C1)C2=C(N(=O)=O)C=C(N(=O)=O)C=C2Br", "physical_data": {"Molecular Weight": "479.28", "Molecular Formula": "C18H19BrN6O5", "Melting Point": "184-186 \u00b0C"}}