{"cas_no": "52691-62-0", "cn_name": "1-O-\u5341\u516d\u70f7\u57fa-SN-\u7518\u6cb9\u57fa-3-\u80c6\u78b1\u78f7\u9178", "en_name": ["1-O-Hexadecyl-sn-glycero-3-phosphocholine", "3,5,9-Trioxa-4-phosphapentacosan-1-aminium, 4,7-dihydroxy-N,N,N-trimethyl-, inner salt, 4-oxide, (7R)-", "3,5,9-Trioxa-4-phosphapentacosan-1-aminium, 4,7-dihydroxy-N,N,N-trimethyl-, inner salt, 4-oxide, (R)-", "1-Hexadecyl-2-lyso-sn-glycero-3-phosphocholine", "1-O-Hexadecyl-2-lyso-sn-glycero-3-phosphocholine", "Lyso-platelet-activating factor", "1-O-Hexadecyl-sn-glycero-3-phosphatidylcholine", "1-O-Hexadecyl-sn-glycero-3-phosphocholine", "1-O-Hexadecyl-sn-glyceryl-3-phosphorylcholine", "58: PN: WO2017201317 SEQID: 131 claimed RNA", "LPC O-16:0", "(R)-3-(Hexadecyloxy)-2-hydroxypropyl (2-(trimethylammonio)ethyl) phosphate"], "SMILES": "O(CC(COCCCCCCCCCCCCCCCC)O)P(OCC[N+](C)(C)C)(=O)[O-]", "physical_data": {"Molecular Weight": "", "Molecular Formula": "C24H52NO6P", "Melting Point": "&gt;240 \u00b0C"}}