{"cas_no": "527-18-4", "cn_name": "\u56db\u7532\u57fa\u6c22\u918c", "en_name": ["Tetramethylhydroquinone", "1,4-Benzenediol, 2,3,5,6-tetramethyl-", "Hydroquinone, tetramethyl-", "2,3,5,6-Tetramethyl-1,4-benzenediol", "Dihydroxydurene", "Durohydroquinone", "Tetramethylhydroquinone", "Duro-p-hydroquinone", "2,3,5,6-Tetramethylhydroquinone", "Tetramethyl-p-hydroquinone", "Duroquinol", "2,3,5,6-Tetramethyl-1,4-dihydroquinone", "TMQ(H)", "NSC 401619"], "SMILES": "CC1=C(C)C(O)=C(C)C(C)=C1O", "physical_data": {"Molecular Weight": "166.22", "Molecular Formula": "C10H14O2", "Melting Point": "233 \u00b0C"}}