{"cas_no": "527-53-7", "cn_name": "3,4,5-\u4e09\u7532\u57fa\u7532\u82ef", "en_name": ["1,2,3,5-Tetramethylbenzene", "Benzene, 1,2,3,5-tetramethyl-", "1,2,3,5-Tetramethylbenzene", "Isodurene", "1,3,4,5-Tetramethylbenzene", "NSC 8091"], "SMILES": "CC1=C(C)C=C(C)C=C1C", "physical_data": {"Molecular Weight": "134.22", "Molecular Formula": "C10H14", "Boiling Point": "198 \u00b0C", "Melting Point": "-23.7 \u00b0C", "Density": "0.8906 g/cm\u00b3 @ Temp: 20 \u00b0C"}}