{"cas_no": "527-62-8", "cn_name": "4,6-\u4e8c\u6c2f-2-\u6c28\u57fa\u82ef\u915a", "en_name": ["2-Amino-4,6-dichlorophenol", "Phenol, 2-amino-4,6-dichloro-", "2-Amino-4,6-dichlorophenol", "2,4-Dichloro-6-aminophenol", "4,6-Dichloro-o-aminophenol", "4,6-Dichloro-2-aminophenol", "6-Amino-2,4-dichlorophenol", "NSC 658464", "2-Amino-4,6-dichloro-1-hydroxybenzene"], "SMILES": "OC1=C(Cl)C=C(Cl)C=C1N", "physical_data": {"Molecular Weight": "178.02", "Molecular Formula": "C6H5Cl2NO", "Melting Point": "95.5 \u00b0C"}}