{"cas_no": "527-72-0", "cn_name": "\u567b\u5429-2-\u7532\u9178", "en_name": ["2-Thiophenecarboxylic acid", "2-Thiophenecarboxylic acid", "\u03b1-Thiophenecarboxylic acid", "2-Thenoic acid", "2-Thiophenic acid", "2-Carboxythiophene", "2-Thienylcarboxylic acid", "NSC 2188", "Thienoic acid", "Thiophene-2-carboxylic acid"], "SMILES": "C(O)(=O)C1=CC=CS1", "physical_data": {"Molecular Weight": "128.15", "Molecular Formula": "C5H4O2S", "Melting Point": "129.5 \u00b0C"}}