{"cas_no": "527-84-4", "cn_name": "\u90bb-\u5f02\u4e19\u57fa\u82ef", "en_name": ["o-Cymene", "Benzene, 1-methyl-2-(1-methylethyl)-", "o-Cymene", "1-Methyl-2-(1-methylethyl)benzene", "o-Cymol", "o-Isopropyltoluene", "1-Methyl-2-isopropylbenzene", "1-Isopropyl-2-methylbenzene", "2-Isopropyltoluene", "NSC 73976", "1-Methyl-2-cumene", "\u03b1-Cymene", "1-Methyl-2-propan-2-ylbenzene", "1-Methyl-2-(propan-2-yl)benzene"], "SMILES": "C(C)(C)C1=C(C)C=CC=C1", "physical_data": {"Molecular Weight": "134.22", "Molecular Formula": "C10H14", "Boiling Point": "178.1 \u00b0C", "Melting Point": "-71.5 \u00b0C", "Density": "0.8766 g/cm\u00b3 @ Temp: 20 \u00b0C"}}