{"cas_no": "527-54-8", "cn_name": "3,4,5-\u6df7\u6740\u5a01", "en_name": ["3,4,5-Trimethylphenol", "Phenol, 3,4,5-trimethyl-", "3,4,5-Trimethylphenol", "3,4,5-Hemimellitenol", "1-Hydroxy-3,4,5-trimethylbenzene", "5-Hydroxy-1,2,3-trimethylbenzene", "NSC 65648"], "SMILES": "CC1=C(C)C=C(O)C=C1C", "physical_data": {"Molecular Weight": "136.19", "Molecular Formula": "C9H12O", "Boiling Point": "248 \u00b0C @ Press: 758 Torr", "Melting Point": "106 \u00b0C"}}