{"cas_no": "527-31-1", "cn_name": "\u73af\u5df1\u516d\u916e\u516b\u6c34\u5408\u7269", "en_name": ["Triquinoyl", "1,2,3,4,5,6-Cyclohexanehexone", "Cyclohexanehexone", "Triquinoyl", "Hexaketocyclohexane", "Trichinoyl", "NSC 65879"], "SMILES": "O=C1C(=O)C(=O)C(=O)C(=O)C1=O", "physical_data": {"Molecular Weight": "168.06", "Molecular Formula": "C6O6", "Melting Point": "100 \u00b0C (decomp)"}}