{"cas_no": "527-21-9", "cn_name": "\u56db\u6c1f\u5bf9\u82ef\u918c", "en_name": ["Fluoranil", "2,5-Cyclohexadiene-1,4-dione, 2,3,5,6-tetrafluoro-", "p-Benzoquinone, 2,3,5,6-tetrafluoro-", "p-Benzoquinone, tetrafluoro-", "2,3,5,6-Tetrafluoro-2,5-cyclohexadiene-1,4-dione", "Fluoranil", "Tetrafluoro-p-benzoquinone", "Fluoroanil", "p-Fluoranil", "2,3,5,6-Tetrafluoro-p-benzoquinone", "Tetrafluoro-1,4-benzoquinone", "Perfluoro-p-benzoquinone", "2,3,5,6-Tetrafluoro-1,4-benzoquinone", "Tetrafluorobenzoquinone", "NSC 264881", "Tetrafluoro-p-quinone", "2,3,5,6-Tetrafluoroquinone"], "SMILES": "FC1=C(F)C(=O)C(F)=C(F)C1=O", "physical_data": {"Molecular Weight": "180.06", "Molecular Formula": "C6F4O2", "Melting Point": "184 \u00b0C"}}