{"cas_no": "527-73-1", "cn_name": "2-\u785d\u57fa\u54aa\u5511", "en_name": ["2-Nitroimidazole", "1H-Imidazole, 2-nitro-", "Imidazole, 2-nitro-", "2-Nitro-1H-imidazole", "2-Nitroimidazole", "Azomycin", "Amicin", "Ro 05-9129", "Azomycin (antiprotozoal)"], "SMILES": "N(=O)(=O)C=1NC=CN1", "physical_data": {"Molecular Weight": "113.07", "Molecular Formula": "C3H3N3O2", "Melting Point": "287 \u00b0C (decomp)"}}