{"cas_no": "527-95-7", "cn_name": "\u8349\u8d28\u7d20", "en_name": ["Herbacetin", "4H-1-Benzopyran-4-one, 3,5,7,8-tetrahydroxy-2-(4-hydroxyphenyl)-", "Flavone, 3,4\u2032,5,7,8-pentahydroxy-", "3,5,7,8-Tetrahydroxy-2-(4-hydroxyphenyl)-4H-1-benzopyran-4-one", "Herbacetin", "3,5,7,8,4\u2032-Pentahydroxyflavone", "Isoarticulatidin", "8-Hydroxykaempferol", "2-(4-Hydroxyphenyl)-3,5,7,8-tetrakis(oxidanyl)chromen-4-one", "3,5,7,8-Tetrahydroxy-2-(4-hydroxyphenyl)chromen-4-one"], "SMILES": "OC1=C2C(C(=O)C(O)=C(O2)C3=CC=C(O)C=C3)=C(O)C=C1O", "physical_data": {"Molecular Weight": "302.24", "Molecular Formula": "C15H10O7", "Melting Point": "266 \u00b0C"}}