{"cas_no": "527-85-5", "cn_name": "2-\u7532\u57fa\u82ef\u7532\u9170\u80fa", "en_name": ["2-Methylbenzamide", "Benzamide, 2-methyl-", "o-Toluamide", "2-Methylbenzamide", "o-Toluic amide", "o-Methylbenzamide", "2-Toluamide", "NSC 2169"], "SMILES": "C(N)(=O)C1=C(C)C=CC=C1", "physical_data": {"Molecular Weight": "135.16", "Molecular Formula": "C8H9NO", "Melting Point": "147 \u00b0C"}}