{"cas_no": "527-61-7", "cn_name": "2,6-\u4e8c\u7532\u57fa-2,5-\u73af\u5df1\u4e8c\u70ef-1,4-\u4e8c\u916e", "en_name": ["2,6-Dimethyl-1,4-benzoquinone", "2,5-Cyclohexadiene-1,4-dione, 2,6-dimethyl-", "p-Benzoquinone, 2,6-dimethyl-", "2,6-Dimethyl-2,5-cyclohexadiene-1,4-dione", "m-Xyloquinone", "2,6-Dimethyl-p-benzoquinone", "2,6-Dimethylbenzoquinone", "2,6-Dimethyl-1,4-benzoquinone", "2,6-Xyloquinone", "3,5-Dimethylbenzoquinone", "3,5-Dimethyl-1,4-benzoquinone", "NSC 17549", "3,5-Dimethyl-p-benzoquinone"], "SMILES": "O=C1C(C)=CC(=O)C=C1C", "physical_data": {"Molecular Weight": "136.15", "Molecular Formula": "C8H8O2", "Boiling Point": "20-40 \u00b0C @ Press: 0.04 Torr", "Melting Point": "72.5 \u00b0C"}}