{"cas_no": "527-75-3", "cn_name": "\u7ea2\u9709\u7d20B", "en_name": ["Erythromycin B", "Erythromycin, 12-deoxy-", "Erythromycin B", "12-Deoxyerythromycin", "Oxacyclotetradecane, erythromycin deriv.", "Berythromycin", "Abbott 24091"], "SMILES": "O(C1C(C)C(OC2CC(OC)(C)C(O)C(C)O2)C(C)C(=O)OC(CC)C(C)C(O)C(C)C(=O)C(C)CC1(C)O)C3C(O)C(N(C)C)CC(C)O3", "physical_data": {"Molecular Weight": "717.93", "Molecular Formula": "C37H67NO12", "Melting Point": "191-195 \u00b0C"}}