{"cas_no": "527-60-6", "cn_name": "2,4,6-\u4e09\u7532\u915a", "en_name": ["2,4,6-Trimethylphenol", "Phenol, 2,4,6-trimethyl-", "Mesitol", "2,4,6-Trimethylphenol", "Mesityl alcohol", "2-Hydroxymesitylene", "1-Hydroxy-2,4,6-trimethylbenzene", "Hydroxymesitylene", "1,3,5-Trimethylphenol", "NSC 231851", "NSC 5353", "NSC 68321"], "SMILES": "OC1=C(C)C=C(C)C=C1C", "physical_data": {"Molecular Weight": "136.19", "Molecular Formula": "C9H12O", "Boiling Point": "220 \u00b0C", "Melting Point": "73 \u00b0C"}}