{"cas_no": "527-20-8", "cn_name": "\u4e94\u6c2f\u82ef\u80fa", "en_name": ["Pentachloroaniline", "Benzenamine, 2,3,4,5,6-pentachloro-", "Aniline, 2,3,4,5,6-pentachloro-", "Aniline, pentachloro-", "2,3,4,5,6-Pentachlorobenzenamine", "Pentachloroaniline", "2,3,4,5,6-Pentachloroaniline", "PCA", "Pentachloroaminobenzene", "NSC 49579"], "SMILES": "ClC1=C(Cl)C(Cl)=C(N)C(Cl)=C1Cl", "physical_data": {"Molecular Weight": "265.35", "Molecular Formula": "C6H2Cl5N", "Melting Point": "235 \u00b0C"}}