{"cas_no": "527-52-6", "cn_name": "D(+)-\u6d0b\u5730\u9ec4\u6bd2\u7cd6", "en_name": ["Digitoxose", "D-ribo-Hexose, 2,6-dideoxy-", "Digitoxose", "2,6-Dideoxy-D-ribo-hexose", "D-Digitoxose", "2,6-Dideoxy-D-altrose", "(+)-Digitoxose", "NSC 87513"], "SMILES": "C(C(CC=O)O)(C(C)O)O", "physical_data": {"Molecular Weight": "148.16", "Molecular Formula": "C6H12O4", "Melting Point": "112 \u00b0C"}}