{"cas_no": "527-17-3", "cn_name": "2,3,5,6-\u56db\u7532\u57fa1,4-\u82ef\u918c", "en_name": ["Duroquinone", "2,5-Cyclohexadiene-1,4-dione, 2,3,5,6-tetramethyl-", "p-Benzoquinone, 2,3,5,6-tetramethyl-", "p-Benzoquinone, tetramethyl-, semiquinone", "p-Benzoquinone, tetramethyl-", "2,3,5,6-Tetramethyl-2,5-cyclohexadiene-1,4-dione", "Duroquinone", "Tetramethyl-p-benzoquinone", "2,3,5,6-Tetramethyl-1,4-benzoquinone", "2,3,5,6-Tetramethylbenzoquinone", "2,3,5,6-Tetramethyl-p-benzoquinone", "Tetramethylquinone", "Tetramethyl-1,4-benzoquinone", "Tetramethyl-p-quinone", "TMQ", "Tetramethylbenzoquinone", "NSC 2068"], "SMILES": "CC1=C(C)C(=O)C(C)=C(C)C1=O", "physical_data": {"Molecular Weight": "164.20", "Molecular Formula": "C10H12O2", "Melting Point": "111.5 \u00b0C"}}