{"cas_no": "527-09-3", "cn_name": "\u8461\u8404\u7cd6\u9178\u94dc", "en_name": ["Bis(D-gluconato-\u03baO1,\u03baO2)copper", "Copper, bis(D-gluconato-\u03baO1,\u03baO2)-", "Gluconic acid, copper(2+) salt (2:1), D-", "Copper, bis(D-gluconato-O1,O2)-", "D-Gluconic acid, copper complex", "Bis(D-gluconato-\u03baO1,\u03baO2)copper", "Cupric gluconate", "Gluconic acid, copper(2+) salt", "D-Gluconic acid, copper(2+) salt", "Copper(II) gluconate", "Helshas Cu", "Labicuper"], "SMILES": "C(C(C(CO)O)O)(O)C1[OH][Cu+2]2([OH]C(C(C(C(CO)O)O)O)C(=O)[O-]2)[O-]C1=O", "physical_data": {"Molecular Weight": "", "Molecular Formula": "C12H22CuO14", "Melting Point": "155-157 \u00b0C"}}