{"cas_no": "527-69-5", "cn_name": "\u544b\u5583\u7532\u9170\u6c2f", "en_name": ["2-Furancarbonyl chloride", "2-Furancarbonyl chloride", "2-Furoyl chloride", "\u03b1-Furoic chloride", "Pyromucyl chloride", "2-(Chlorocarbonyl)furan", "2-Furancarboxylic acid chloride", "2-(Chloroformyl)furan", "2-Furoic acid chloride", "Furan-2-carboxylic chloride", "2-Furanoyl chloride", "2-Furylcarbonyl chloride", "2-Furoic chloride", "2-Furanylcarbonyl chloride", "2-Furanoic acid chloride", "Furan-2-carbonyl chloride"], "SMILES": "C(Cl)(=O)C1=CC=CO1", "physical_data": {"Molecular Weight": "130.53", "Molecular Formula": "C5H3ClO2", "Boiling Point": "173 \u00b0C", "Melting Point": "-2 \u00b0C", "Density": "1.3227 g/cm\u00b3 @ Temp: 20 \u00b0C"}}