{"cas_no": "52709-83-8", "cn_name": "4'-\u6b63\u4e01\u57fa-4-\u6c30\u57fa\u8054\u82ef", "en_name": ["4\u2032-Butyl-4-cyanobiphenyl", "[1,1\u2032-Biphenyl]-4-carbonitrile, 4\u2032-butyl-", "4\u2032-Butyl[1,1\u2032-biphenyl]-4-carbonitrile", "4\u2032-Butyl-4-biphenylcarbonitrile", "4\u2032-n-Butyl-4-cyanobiphenyl", "4\u2032-Butyl-4-cyanobiphenyl", "CB 4 (liquid crystal)", "4-Butyl-4\u2032-cyanobiphenyl", "4-Cyano-4\u2032-n-butylbiphenyl", "CB 4", "4-Butyl-4\u2032-cyano-1,1\u2032-biphenyl", "4CB", "4-Cyano-4\u2032-butylbiphenyl", "4-Cyano-4\u2032-butyl-1,1\u2032-biphenyl"], "SMILES": "C(CCC)C1=CC=C(C=C1)C2=CC=C(C#N)C=C2", "physical_data": {"Molecular Weight": "235.32", "Molecular Formula": "C17H17N", "Boiling Point": "190-195 \u00b0C @ Press: 2 Torr"}}