{"cas_no": "52709-87-2", "cn_name": "4-\u4e01\u6c27\u57fa-4'-\u6c30\u57fa\u8054\u82ef", "en_name": ["4\u2032-Butoxy[1,1\u2032-biphenyl]-4-carbonitrile", "[1,1\u2032-Biphenyl]-4-carbonitrile, 4\u2032-butoxy-", "4\u2032-Butoxy[1,1\u2032-biphenyl]-4-carbonitrile", "4\u2032-Butoxy-4-biphenylcarbonitrile", "4\u2032-n-Butyloxy-4-cyanobiphenyl", "4-Cyano-4\u2032-n-butoxybiphenyl", "4OCB", "4-(n-Butoxy)-4\u2032-cyano-1,1\u2032-biphenyl", "4\u2032-Butoxy-4-cyanobiphenyl", "4\u2032-Butoxy-1,1\u2032-biphenyl-4-carbonitrile"], "SMILES": "O(CCCC)C1=CC=C(C=C1)C2=CC=C(C#N)C=C2", "physical_data": {"Molecular Weight": "251.32", "Molecular Formula": "C17H17NO", "Melting Point": "78 \u00b0C"}}