{"cas_no": "52705-93-8", "cn_name": "\u4eba\u53c2\u7682\u7519 Rd", "en_name": ["Ginsenoside Rd", "\u03b2-D-Glucopyranoside, (3\u03b2,12\u03b2)-20-(\u03b2-D-glucopyranosyloxy)-12-hydroxydammar-24-en-3-yl 2-O-\u03b2-D-glucopyranosyl-", "Dammarane, \u03b2-D-glucopyranoside deriv.", "(3\u03b2,12\u03b2)-20-(\u03b2-D-Glucopyranosyloxy)-12-hydroxydammar-24-en-3-yl 2-O-\u03b2-D-glucopyranosyl-\u03b2-D-glucopyranoside", "Ginsenoside Rd", "Gypenoside VIII", "3-O-\u03b2-D-Glucopyranosyl-(1\u21922)-\u03b2-D-glucopyranosyl-20-O-\u03b2-D-glucopyranosyldammar-24-ene-3\u03b2,12\u03b2,20S-triol", "Chikusetsusaponin FK7", "Ginsenoside Rd1"], "SMILES": "CC12C(C3(C)C(CC1)C(C)(C)C(OC4C(OC5OC(CO)C(O)C(O)C5O)C(O)C(O)C(CO)O4)CC3)CC(O)C6C2(C)CCC6C(OC7OC(CO)C(O)C(O)C7O)(CCC=C(C)C)C", "physical_data": {"Molecular Weight": "947.15", "Molecular Formula": "C48H82O18", "Melting Point": "204-206 \u00b0C"}}