{"cas_no": "52709-84-9", "cn_name": "4'-\u6b63\u8f9b\u57fa-4-\u6c30\u57fa\u8054\u82ef", "en_name": ["8CB", "[1,1\u2032-Biphenyl]-4-carbonitrile, 4\u2032-octyl-", "4\u2032-Octyl[1,1\u2032-biphenyl]-4-carbonitrile", "4-Cyano-4\u2032-octyl-1,1\u2032-biphenyl", "4-Cyano-4\u2032-octylbiphenyl", "p-Cyano-p\u2032-octylbiphenyl", "4\u2032-n-Octyl-4-cyanobiphenyl", "4\u2032-Octyl-4-biphenylcarbonitrile", "4-Octyl-4\u2032-cyanobiphenyl", "4-Cyano-4\u2032-n-octylbiphenyl", "4\u2032-Octyl-4-cyanobiphenyl", "4-n-Octyl-4\u2032-cyanobiphenyl", "p-Octyl-p\u2032-cyanobiphenyl", "CB 8 (liquid crystal)", "K 24 (liquid crystal)", "K 24", "80BF", "8CB", "p-n-Octyl-p\u2032-cyanobiphenyl", "OCBP", "8TsB", "CB 8", "FR 2221", "8CB (liq. crystal)"], "SMILES": "C(CCCCCCC)C1=CC=C(C=C1)C2=CC=C(C#N)C=C2", "physical_data": {"Molecular Weight": "291.43", "Molecular Formula": "C21H25N", "Boiling Point": "215-218 \u00b0C @ Press: 2 Torr"}}