{"cas_no": "5271-27-2", "cn_name": "1-\u7532\u57fa-3-\u82ef\u57fa\u54cc\u55ea", "en_name": ["1-Methyl-3-phenylpiperazine", "Piperazine, 1-methyl-3-phenyl-", "1-Methyl-3-phenylpiperazine", "(\u00b1)-3-Phenyl-1-methylpiperazine"], "SMILES": "CN1CC(NCC1)C2=CC=CC=C2", "physical_data": {"Molecular Weight": "176.26", "Molecular Formula": "C11H16N2", "Melting Point": "58-60 \u00b0C"}}