{"cas_no": "52711-30-5", "cn_name": "1-\u6eb4-2-(\u7532\u6c27\u57fa\u7532\u57fa)\u82ef", "en_name": ["1-Bromo-2-(methoxymethyl)benzene", "Benzene, 1-bromo-2-(methoxymethyl)-", "Ether, o-bromobenzyl methyl", "1-Bromo-2-(methoxymethyl)benzene", "o-Bromobenzyl methyl ether", "2-Bromobenzyl methyl ether", "2-(Methoxymethyl)bromobenzene", "2-(Methoxymethyl)phenyl bromide", "o-Bromo(methoxymethyl)benzene"], "SMILES": "C(OC)C1=C(Br)C=CC=C1", "physical_data": {"Molecular Weight": "201.06", "Molecular Formula": "C8H9BrO", "Boiling Point": "225 \u00b0C @ Press: 745 Torr"}}