{"cas_no": "52712-76-2", "cn_name": "\u76d0\u9178\u5e03\u90a3\u5511\u55ea", "en_name": ["Bunazosin hydrochloride", "1-Butanone, 1-[4-(4-amino-6,7-dimethoxy-2-quinazolinyl)hexahydro-1H-1,4-diazepin-1-yl]-, hydrochloride (1:1)", "1H-1,4-Diazepine, 1-(4-amino-6,7-dimethoxy-2-quinazolinyl)hexahydro-4-(1-oxobutyl)-, monohydrochloride", "E 643", "DDQ", "DDQ (pharmaceutical)", "Bunazosin hydrochloride", "Detantol", "1-(4-(4-Imino-6,7-dimethoxy-3,4-dihydroquinazolin-2-yl)-1,4-diazepan-1-yl)butan-1-one hydrochloride", "1-(4-(4-Amino-6,7-dimethoxyquinazolin-2-yl)-1,4-diazepan-1-yl)butan-1-one hydrochloride"], "SMILES": "NC=1C2=C(N=C(N1)N3CCN(C(CCC)=O)CCC3)C=C(OC)C(OC)=C2.Cl", "physical_data": {"Molecular Weight": "", "Molecular Formula": "C19H27N5O3.ClH", "Melting Point": "280-282 \u00b0C"}}