{"cas_no": "52710-27-7", "cn_name": "4-\u4e19\u57fa\u82ef\u7532\u9170\u6c2f", "en_name": ["4-Propylbenzoyl chloride", "Benzoyl chloride, 4-propyl-", "4-Propylbenzoyl chloride", "p-Propylbenzoyl chloride", "4-n-Propylbenzoyl chloride"], "SMILES": "C(Cl)(=O)C1=CC=C(CCC)C=C1", "physical_data": {"Molecular Weight": "182.65", "Molecular Formula": "C10H11ClO", "Boiling Point": "135-136 \u00b0C @ Press: 20 Torr", "Melting Point": "197-198 \u00b0C"}}