{"cas_no": "5271-38-5", "cn_name": "2-\u7532\u786b\u57fa\u4e59\u9187", "en_name": ["2-(Methylthio)ethanol", "Ethanol, 2-(methylthio)-", "2-(Methylthio)ethanol", "2-Hydroxyethyl methyl sulfide", "2-Methylmercaptoethanol", "Hydroxyethyl methyl sulfide", "S-Methylmercaptoethanol", "\u03b2-Methylmercaptoethanol", "\u03b2-(Methylthio)ethanol", "\u03b2-Hydroxyethyl methyl sulfide", "Methyl 2-hydroxyethyl sulfide", "2-Methanesulfanylethanol", "2-(Methylsulfanyl)ethanol", "NSC 1902", "2-(Methylthio)ethyl alcohol", "2-Methylsulfanyl-1-ethanol", "2-(Methylthio)ethan-1-ol"], "SMILES": "C(CO)SC", "physical_data": {"Molecular Weight": "92.16", "Molecular Formula": "C3H8OS", "Boiling Point": "80.5-81 \u00b0C @ Press: 30 Torr", "Density": "1.6040 g/cm\u00b3 @ Temp: 20 \u00b0C"}}