{"cas_no": "5271-67-0", "cn_name": "2-\u567b\u5429\u7532\u9170\u6c2f", "en_name": ["2-Thiophenecarbonyl chloride", "2-Thiophenecarbonyl chloride", "2-Thenoyl chloride", "Thenoyl chloride", "2-Thiophenecarboxylic chloride", "2-Thienylcarbonyl chloride", "2-(Chloroformyl)thiophene", "\u03b1-Thenoyl chloride", "2-Thiophenecarboxylic acid chloride", "2-(Chlorocarbonyl)thiophene", "2-Thiopheneformyl chloride", "Thiophen-2-ylcarbonyl chloride", "2-Thiophencarbonyl chloride"], "SMILES": "C(Cl)(=O)C1=CC=CS1", "physical_data": {"Molecular Weight": "146.59", "Molecular Formula": "C5H3ClOS", "Boiling Point": "205-210 \u00b0C"}}