{"cas_no": "5272-18-4", "cn_name": "\u4e8c\u7532\u57fa\u82ef\u57fa\u7845\u9187", "en_name": ["1,1-Dimethyl-1-phenylsilanol", "Silanol, 1,1-dimethyl-1-phenyl-", "Silanol, dimethylphenyl-", "1,1-Dimethyl-1-phenylsilanol", "Dimethylphenylsilanol", "Phenyldimethylsilanol", "Hydroxydimethylphenylsilane"], "SMILES": "[Si](C)(C)(O)C1=CC=CC=C1", "physical_data": {"Molecular Weight": "152.27", "Molecular Formula": "C8H12OSi", "Boiling Point": "101-101.5 \u00b0C @ Press: 14 Torr", "Density": "0.990 g/cm\u00b3 @ Temp: 25 \u00b0C"}}