{"cas_no": "52729-03-0", "cn_name": "2,4-\u4e8c\u6c2f-3,5-\u4e8c\u785d\u57fa\u82ef\u7532\u9178", "en_name": ["2,4-Dichloro-3,5-dinitrobenzoic acid", "Benzoic acid, 2,4-dichloro-3,5-dinitro-", "2,4-Dichloro-3,5-dinitrobenzoic acid", "NSC 76602"], "SMILES": "N(=O)(=O)C1=C(Cl)C(C(O)=O)=CC(N(=O)=O)=C1Cl", "physical_data": {"Molecular Weight": "281.01", "Molecular Formula": "C7H2Cl2N2O6", "Melting Point": "210-211 \u00b0C"}}