{"cas_no": "5272-36-6", "cn_name": "\u4e09\u7532\u7845\u57fa\u4e19\u7094\u9187", "en_name": ["3-(Trimethylsilyl)-2-propyn-1-ol", "2-Propyn-1-ol, 3-(trimethylsilyl)-", "3-(Trimethylsilyl)-2-propyn-1-ol", "(3-Hydroxy-1-propynyl)trimethylsilane", "3-(Trimethylsilyl)propargyl alcohol", "1-(Trimethylsilyl)-1-propyn-3-ol", "Hydroxymethyl(trimethylsilyl)acetylene", "NSC 617397", "Trimethylsilylpropargyl alcohol", "3-Trimethylsilylyprop-2-ynol"], "SMILES": "C([Si](C)(C)C)#CCO", "physical_data": {"Molecular Weight": "128.24", "Molecular Formula": "C6H12OSi", "Boiling Point": "170-172 \u00b0C", "Melting Point": "63.5-65.0 \u00b0C", "Density": "0.875 g/cm\u00b3"}}