{"cas_no": "52727-57-8", "cn_name": "5-\u6eb4\u6c28\u57fa\u82ef\u7532\u9178\u7532\u916f", "en_name": ["Methyl 2-amino-5-bromobenzoate", "Benzoic acid, 2-amino-5-bromo-, methyl ester", "Anthranilic acid, 5-bromo-, methyl ester", "Methyl 2-amino-5-bromobenzoate", "5-Bromoanthranilic acid methyl ester", "Methyl 5-bromoanthranilate", "2-Amino-5-bromobenzoic acid methyl ester", "5-Bromo-2-aminobenzoic acid methyl ester", "Methyl 5-bromo-2-aminobenzoate", "5-Bromo anthranilate methyl"], "SMILES": "C(OC)(=O)C1=C(N)C=CC(Br)=C1", "physical_data": {"Molecular Weight": "230.06", "Molecular Formula": "C8H8BrNO2", "Melting Point": "74 \u00b0C"}}