{"cas_no": "5272-86-6", "cn_name": "3,5-\u4e8c\u7532\u57fa-1H-\u5421\u5511-4-\u80fa", "en_name": ["3,5-Dimethyl-1H-pyrazol-4-amine", "1H-Pyrazol-4-amine, 3,5-dimethyl-", "Pyrazole, 4-amino-3,5-dimethyl-", "3,5-Dimethyl-1H-pyrazol-4-amine", "4-Amino-3,5-dimethylpyrazole", "3,5-Dimethyl-4-aminopyrazole", "3,5-Dimethyl-4-pyrazolamine", "4-Amino-3,5-dimethyl-1H-pyrazole", "3,5-Dimethyl-1H-pyrazol-4-ylamine"], "SMILES": "NC=1C(C)=NNC1C", "physical_data": {"Molecular Weight": "111.15", "Molecular Formula": "C5H9N3", "Melting Point": "204-205 \u00b0C"}}