{"cas_no": "5273-85-8", "cn_name": "\u5f02\u6984\u9999\u8102\u7d20", "en_name": ["Isoelemicin", "Benzene, 1,2,3-trimethoxy-5-(1E)-1-propen-1-yl-", "Benzene, 1,2,3-trimethoxy-5-propenyl-, (E)-", "Isoelemicin", "Benzene, 1,2,3-trimethoxy-5-(1-propenyl)-, (E)-", "Benzene, 1,2,3-trimethoxy-5-(1E)-1-propenyl-", "1,2,3-Trimethoxy-5-(1E)-1-propen-1-ylbenzene", "(E)-Isoelemicin", "1,2,3-Trimethoxy-5-[(1E)-1-propenyl]benzene", "1,2,3-Trimethoxy-5-((E)-prop-1-enyl)benzene"], "SMILES": "O(C)C1=C(OC)C=C(C=CC)C=C1OC", "physical_data": {"Molecular Weight": "208.25", "Molecular Formula": "C12H16O3", "Boiling Point": "153-156 \u00b0C @ Press: 20 Torr", "Density": "1.073 g/cm\u00b3 @ Temp: 20 \u00b0C"}}