{"cas_no": "5274-61-3", "cn_name": "\u4e8c\u4e59\u4e8c\u9187\u5355\u5341\u516d\u919a", "en_name": ["Diethylene glycol monohexadecyl ether", "Ethanol, 2-[2-(hexadecyloxy)ethoxy]-", "2-[2-(Hexadecyloxy)ethoxy]ethanol", "Diethylene glycol monohexadecyl ether", "Diethylene glycol hexadecyl ether", "Polyoxyethylene(2) cetyl ether"], "SMILES": "C(CCCCCCCCCCC)CCCCOCCOCCO", "physical_data": {"Molecular Weight": "330.55", "Molecular Formula": "C20H42O3", "Boiling Point": "154 \u00b0C @ Press: 0.02 Torr"}}