{"cas_no": "5274-70-4", "cn_name": "3-\u785d\u57fa\u6c34\u6768\u919b", "en_name": ["2-Hydroxy-3-nitrobenzaldehyde", "Benzaldehyde, 2-hydroxy-3-nitro-", "Salicylaldehyde, 3-nitro-", "2-Hydroxy-3-nitrobenzaldehyde", "3-Nitro-2-hydroxybenzaldehyde", "3-Nitrosalicylaldehyde", "NSC 38026"], "SMILES": "N(=O)(=O)C1=C(O)C(C=O)=CC=C1", "physical_data": {"Molecular Weight": "167.12", "Molecular Formula": "C7H5NO4", "Melting Point": "108-109 \u00b0C"}}