{"cas_no": "5274-99-7", "cn_name": "1-\u82ef\u7532\u9170\u54cc\u5576-4-\u7fa7\u9178", "en_name": ["1-Benzoyl-4-piperidinecarboxylic acid", "4-Piperidinecarboxylic acid, 1-benzoyl-", "Isonipecotic acid, 1-benzoyl-", "1-Benzoyl-4-piperidinecarboxylic acid", "N-Benzoylisonipecotic acid", "NSC 15149", "N-Benzoyl-4-piperidinecarboxylic acid"], "SMILES": "C(=O)(N1CCC(C(O)=O)CC1)C2=CC=CC=C2", "physical_data": {"Molecular Weight": "233.26", "Molecular Formula": "C13H15NO3", "Melting Point": "132-135 \u00b0C"}}