{"cas_no": "5274-68-0", "cn_name": "\u56db\u805a\u4e59\u4e8c\u9187\u5355\u6708\u6842\u919a", "en_name": ["3,6,9,12-Tetraoxatetracosan-1-ol", "3,6,9,12-Tetraoxatetracosan-1-ol", "Ethanol, 2[[2-(dodecyloxy)ethoxy]ethoxyethoxy]-", "Ethanol, 2-[2-[2-[2-(dodecyloxy)ethoxy]ethoxy]ethoxy]-", "Tetraoxyethylene glycol monododecyl ether", "Tetra(oxyethylene) dodecyl ether", "Tetraethylene glycol monolauryl ether", "Tetraethylene glycol dodecyl ether", "Polyoxyethylene(4) lauryl ether", "Tetraethylene glycol monododecyl ether", "n-Dodecyl tetraethylene glycol ether", "Dodecyl tetraethylene glycol ether", "Tetraoxyethylene monododecyl ether", "\u03b1-Dodecyl-\u03c9-hydroxytetrakis(oxyethylene)", "Tetraoxyethylene glycol dodecyl ether", "Tetraethylene glycol lauryl ether", "NSC 190605", "2-[2-[2-(2-Dodecyloxyethoxy)ethoxy]ethoxy]ethanol", "2-[2-[2-(2-Dodecoxyethoxy)ethoxy]ethoxy]ethanol"], "SMILES": "O(CCCCCCCCCCCC)CCOCCOCCOCCO", "physical_data": {"Molecular Weight": "362.54", "Molecular Formula": "C20H42O5", "Boiling Point": "166 \u00b0C @ Press: 0.02 Torr", "Melting Point": "18.6-19.0 \u00b0C", "Density": "0.989 g/cm\u00b3 @ Temp: 40 \u00b0C"}}