{"cas_no": "52756-25-9", "cn_name": "\u9ea6\u8349\u6c1f\u7532\u916f", "en_name": ["Alanine, N-benzoyl-N-(3-chloro-4-fluorophenyl)-, methyl ester", "Alanine, N-benzoyl-N-(3-chloro-4-fluorophenyl)-, methyl ester", "DL-Alanine, N-benzoyl-N-(3-chloro-4-fluorophenyl)-, methyl ester", "Methyl 2-[benzoyl(3-chloro-4-fluorophenyl)amino]propionate", "Flamprop-methyl", "WL 29761", "Mataven", "Flufenprop-methyl", "DL-N-Benzoyl-N-(3-chloro-4-fluorophenyl)alanine methyl ester", "Super-Suffix"], "SMILES": "N(C(=O)C1=CC=CC=C1)(C(C(OC)=O)C)C2=CC(Cl)=C(F)C=C2", "physical_data": {"Molecular Weight": "335.76", "Molecular Formula": "C17H15ClFNO3", "Melting Point": "84-86 \u00b0C"}}