{"cas_no": "52768-23-7", "cn_name": "\u56db\u6c22-6,7-\u5f02\u55b9\u5549\u4e8c\u9187", "en_name": ["6,7-Isoquinolinediol, 1,2,3,4-tetrahydro-, hydrobromide (1:1)", "6,7-Isoquinolinediol, 1,2,3,4-tetrahydro-, hydrobromide (1:1)", "6,7-Isoquinolinediol, 1,2,3,4-tetrahydro-, hydrobromide", "6,7-Dihydroxytetrahydroisoquinoline hydrobromide", "6,7-Dihydroxy-1,2,3,4-tetrahydroisoquinoline hydrobromide", "1,2,3,4-Tetrahydro-6,7-isoquinolinediol hydrobromide"], "SMILES": "OC=1C=C2C(=CC1O)CNCC2.Br", "physical_data": {"Molecular Weight": "", "Molecular Formula": "C9H11NO2.BrH", "Melting Point": "256-257 \u00b0C"}}