{"cas_no": "52763-21-0", "cn_name": "N-\u82c4\u57fa-3-\u6c27\u4ee3\u54cc\u5576-4-\u7fa7\u9178\u4e59\u916f\u76d0\u9178\u76d0", "en_name": ["Ethyl 1-benzyl-3-oxopiperidine-4-carboxylate hydrochloride", "4-Piperidinecarboxylic acid, 3-oxo-1-(phenylmethyl)-, ethyl ester, hydrochloride (1:1)", "4-Piperidinecarboxylic acid, 3-oxo-1-(phenylmethyl)-, ethyl ester, hydrochloride", "1-Benzyl-4-carbethoxy-3-oxopiperidine hydrochloride", "Ethyl N-benzyl-3-oxo-4-piperidinecarboxylate hydrochloride", "N-Benzyl-4-carbethoxy-3-piperidone hydrochloride", "Ethyl 1-benzyl-3-oxopiperidine-4-carboxylate hydrochloride", "NSC 117336", "Ethyl 3-oxo-N-benzylpiperidine-4-carboxylate hydrochloride", "1-Benzyl-3-oxopiperidine-4-carboxylic acid ethyl ester hydrochloride", "1-Benzyl-3-oxopiperidine-4-carboxylic acid ethyl ester monohydrochloride", "Ethyl N-benzyl-3-oxo-4-piperidincarboxylate hydrochloride", "1-Benzyl-4-(ethoxycarbonyl)-3-oxopiperidin-1-ium chloride"], "SMILES": "C(OCC)(=O)C1C(=O)CN(CC2=CC=CC=C2)CC1.Cl", "physical_data": {"Molecular Weight": "", "Molecular Formula": "C15H19NO3.ClH", "Melting Point": "162-165 \u00b0C"}}