{"cas_no": "52784-32-4", "cn_name": "2-\u6c27\u4ee3-1-\u73af\u5e9a\u70f7\u7532\u9178\u7532\u916f", "en_name": ["Cycloheptanecarboxylic acid, 2-oxo-, methyl ester", "Cycloheptanecarboxylic acid, 2-oxo-, methyl ester", "Methyl 2-oxocycloheptanecarboxylate", "2-(Methoxycarbonyl)cycloheptanone", "2-Oxocycloheptanecarboxylic acid methyl ester", "NSC 148967", "Methyl 2-oxo-1-cycloheptanecarboxylate"], "SMILES": "C(OC)(=O)C1C(=O)CCCCC1", "physical_data": {"Molecular Weight": "170.21", "Molecular Formula": "C9H14O3", "Boiling Point": "112-114 \u00b0C @ Press: 10 Torr"}}