{"cas_no": "52780-14-0", "cn_name": "3-\u6eb4\u82ef\u57fa\u7532\u57fa\u7532\u9187", "en_name": ["1-(3-Bromophenyl)ethanol", "Benzenemethanol, 3-bromo-\u03b1-methyl-", "Benzyl alcohol, m-bromo-\u03b1-methyl-", "3-Bromo-\u03b1-methylbenzenemethanol", "1-(3-Bromophenyl)ethanol", "3-Bromophenylmethylcarbinol", "NSC 143363", "m-Bromo-\u03b1-methylbenzyl alcohol", "1-(3-Bromophenyl)ethan-1-ol"], "SMILES": "C(C)(O)C1=CC(Br)=CC=C1", "physical_data": {"Molecular Weight": "201.06", "Molecular Formula": "C8H9BrO", "Boiling Point": "136-140 \u00b0C @ Press: 20 Torr", "Density": "1.4697 g/cm\u00b3 @ Temp: 20 \u00b0C"}}