{"cas_no": "52793-11-0", "cn_name": "\u4e59\u9170\u4e59\u9170-2-\u7532\u6c27\u57fa-5-\u6c2f\u82ef\u80fa", "en_name": ["N-(5-Chloro-2-methoxyphenyl)-3-oxobutanamide", "Butanamide, N-(5-chloro-2-methoxyphenyl)-3-oxo-", "o-Acetoacetanisidide, 5\u2032-chloro-", "N-(5-Chloro-2-methoxyphenyl)-3-oxobutanamide", "2-Methoxy-5-chloroacetoacetanilide", "NSC 165882", "5-Chloro-2-methoxyacetoacetanilide"], "SMILES": "N(C(CC(C)=O)=O)C1=C(OC)C=CC(Cl)=C1", "physical_data": {"Molecular Weight": "241.67", "Molecular Formula": "C11H12ClNO3", "Melting Point": "92 \u00b0C"}}