{"cas_no": "528-45-0", "cn_name": "3,4-\u4e8c\u785d\u57fa\u82ef\u7532\u9178", "en_name": ["3,4-Dinitrobenzoic acid", "Benzoic acid, 3,4-dinitro-", "3,4-Dinitrobenzoic acid", "NSC 60713"], "SMILES": "N(=O)(=O)C1=C(N(=O)=O)C=CC(C(O)=O)=C1", "physical_data": {"Molecular Weight": "212.12", "Molecular Formula": "C7H4N2O6", "Melting Point": "166 \u00b0C"}}