{"cas_no": "528-90-5", "cn_name": "2,4,5-\u4e09\u7532\u57fa\u82ef\u7532\u9178", "en_name": ["2,4,5-Trimethylbenzoic acid", "Benzoic acid, 2,4,5-trimethyl-", "2,4,5-Trimethylbenzoic acid", "Durylic acid", "NSC 147400"], "SMILES": "C(O)(=O)C1=C(C)C=C(C)C(C)=C1", "physical_data": {"Molecular Weight": "164.20", "Molecular Formula": "C10H12O2", "Boiling Point": "193-206 \u00b0C @ Press: 33 Torr", "Melting Point": "148-149 \u00b0C", "Density": "1.21 g/cm\u00b3"}}