{"cas_no": "528-48-3", "cn_name": "3,3',4',7-\u56db\u7f9f\u57fa\u9ec4\u916e", "en_name": ["Fisetin", "4H-1-Benzopyran-4-one, 2-(3,4-dihydroxyphenyl)-3,7-dihydroxy-", "Fisetin", "Flavone, 3,3\u2032,4\u2032,7-tetrahydroxy-", "2-(3,4-Dihydroxyphenyl)-3,7-dihydroxy-4H-1-benzopyran-4-one", "C.I. 75620", "Bois Bleu de Honqrie", "C.I. Natural Brown 1", "Cotinin", "5-Desoxyquercetin", "Fietin", "Fisetholz", "Fustel", "Fustet", "Junger Fustik", "Superfustel", "Superfustel K", "3,3\u2032,4\u2032,7-Tetrahydroxyflavone", "Ungarisches Gelbholz", "Ventin Sumach", "Viset", "Young Fustic", "Young Fustic Crystals", "Zante Fustic", "Fiestin", "NSC 407010", "NSC 656275", "2-(3,4-Dihydroxyphenyl)-3,7-dihydroxy-4H-benzopyran-4-one", "Fisitin", "LDN 0058389", "2-(3,4-Dihydroxyphenyl)-3,7-dihydroxychromen-4-one"], "SMILES": "OC1=C(OC=2C(C1=O)=CC=C(O)C2)C3=CC(O)=C(O)C=C3", "physical_data": {"Molecular Weight": "286.24", "Molecular Formula": "C15H10O6", "Melting Point": "330 \u00b0C"}}