{"cas_no": "528-21-2", "cn_name": "2,3,4-\u4e09\u7f9f\u57fa\u82ef\u4e59\u916e", "en_name": ["Gallacetophenone", "Ethanone, 1-(2,3,4-trihydroxyphenyl)-", "Acetophenone, 2\u2032,3\u2032,4\u2032-trihydroxy-", "Gallacetophenone", "1-(2,3,4-Trihydroxyphenyl)ethanone", "C.I. 57000", "Alizarine Yellow C", "Alizarin Yellow C", "2\u2032,3\u2032,4\u2032-Trihydroxyacetophenone", "4-Acetylpyrogallol", "NSC 66553", "1-(2,3,4-Trihydroxyphenyl)ethan-1-one"], "SMILES": "C(C)(=O)C1=C(O)C(O)=C(O)C=C1", "physical_data": {"Molecular Weight": "168.15", "Molecular Formula": "C8H8O4", "Melting Point": "173 \u00b0C"}}