{"cas_no": "528-76-7", "cn_name": "2,4\u4e00\u4e8c\u785d\u57fa\u82ef\u786b\u6c2f", "en_name": ["2,4-Dinitrobenzenesulfenyl chloride", "Benzenesulfenyl chloride, 2,4-dinitro-", "2,4-Dinitrobenzenesulfenyl chloride", "2,4-Dinitrophenylsulfenyl chloride", "NSC 97092", "1-(Chlorosulfanyl)-2,4-dinitrobenzene", "(2,4-Dinitrophenyl) thiohypochlorite", "[(2,4-Dinitrophenyl)sulfanyl]chlorane"], "SMILES": "N(=O)(=O)C1=C(SCl)C=CC(N(=O)=O)=C1", "physical_data": {"Molecular Weight": "234.62", "Molecular Formula": "C6H3ClN2O4S", "Melting Point": "99 \u00b0C"}}