{"cas_no": "528-50-7", "cn_name": "D-\u7ea4\u7ef4\u4e8c\u7cd6", "en_name": ["Cellobiose", "D-Glucose, 4-O-\u03b2-D-glucopyranosyl-", "Cellobiose", "4-O-\u03b2-D-Glucopyranosyl-D-glucose", "4-\u03b2-D-Glucopyranosyl-D-glucopyranose", "Cellose", "D-Cellobiose", "D-(+)-Cellobiose", "Cellobiose 90", "Sun Cellobio K", "MeSH ID: D002475"], "SMILES": "O(C(C(C(C=O)O)O)C(CO)O)C1OC(CO)C(O)C(O)C1O", "physical_data": {"Molecular Weight": "342.30", "Molecular Formula": "C12H22O11", "Melting Point": "240 \u00b0C"}}