{"cas_no": "528-44-9", "cn_name": "1,2,4-\u82ef\u4e09\u7532\u9178", "en_name": ["Trimellitic acid", "1,2,4-Benzenetricarboxylic acid", "1,2,4-Tricarboxybenzene", "Trimellitic acid", "1,4,5-Benzenetricarboxylic acid", "1,3,4-Benzenetricarboxylic acid", "4-Carboxyphthalic acid", "NSC 72986", "F-TMA", "ETM", "Trimellic acid", "Benzene-1,2,5-tricarboxylic acid"], "SMILES": "C(O)(=O)C1=C(C(O)=O)C=CC(C(O)=O)=C1", "physical_data": {"Molecular Weight": "210.14", "Molecular Formula": "C9H6O6", "Boiling Point": "200-220 \u00b0C @ Press: 12 Torr", "Melting Point": "219 \u00b0C", "Density": "0.317 g/cm\u00b3"}}