{"cas_no": "528-63-2", "cn_name": "\u52a0\u5c14\u52a0\u62c9\u6587", "en_name": ["Galgravin", "Furan, 2,5-bis(3,4-dimethoxyphenyl)tetrahydro-3,4-dimethyl-, (2R,3R,4S,5S)-rel-", "Galgravin", "Furan, 2,5-bis(3,4-dimethoxyphenyl)tetrahydro-3,4-dimethyl-, (2R,3R,4S,5S)-", "Furan, 2,5-bis(3,4-dimethoxyphenyl)tetrahydro-3,4-dimethyl-, (2\u03b1,3\u03b2,4\u03b2,5\u03b1)-", "rel-(2R,3R,4S,5S)-2,5-Bis(3,4-dimethoxyphenyl)tetrahydro-3,4-dimethylfuran", "(\u00b1)-Galgravin"], "SMILES": "CC1C(OC(C1C)C2=CC(OC)=C(OC)C=C2)C3=CC(OC)=C(OC)C=C3", "physical_data": {"Molecular Weight": "372.45", "Molecular Formula": "C22H28O5", "Melting Point": "139-140 \u00b0C"}}