{"cas_no": "528-58-5", "cn_name": "\u6c2f\u5316\u82b1\u9752\u7d20", "en_name": ["Cyanidin chloride", "1-Benzopyrylium, 2-(3,4-dihydroxyphenyl)-3,5,7-trihydroxy-, chloride (1:1)", "Flavylium, 3,3\u2032,4\u2032,5,7-pentahydroxy-, chloride", "1-Benzopyrylium, 2-(3,4-dihydroxyphenyl)-3,5,7-trihydroxy-, chloride", "Cyanidol", "Cyanidin", "Cyanidin chloride", "3,3\u2032,4\u2032,5,7-Pentahydroxyflavylium chloride", "3,3\u2032,4\u2032,5,7-Pentahydroxy-2-phenylbenzopyrylium chloride", "2-(3,4-Dihydroxyphenyl)-3,5,7-trihydroxy-1-benzopyrylium chloride", "Cyanidol chloride", "IdB 1027", "Cyanidine"], "SMILES": "OC=1C(=[O+]C2=C(C1)C(O)=CC(O)=C2)C3=CC(O)=C(O)C=C3.[Cl-]", "physical_data": {"Molecular Weight": "", "Molecular Formula": "C15H11O6.Cl", "Melting Point": "&gt;300 \u00b0C"}}