{"cas_no": "528-92-7", "cn_name": "\u70ef\u4e19\u57fa\u7570\u4e19\u57fa\u4e59\u91af\u8132", "en_name": ["Allylisopropylacetylurea", "4-Pentenamide, N-(aminocarbonyl)-2-(1-methylethyl)-", "Urea, (2-isopropyl-4-pentenoyl)-", "N-(Aminocarbonyl)-2-(1-methylethyl)-4-pentenamide", "Allylisopropylacetylcarbamide", "Allylisopropylacetylurea", "Apronal", "(2-Isopropyl-4-pentenoyl)urea", "Sedormid", "Apronalide", "2-Allyl-2-isopropylacetylurea", "Isodormid", "Alipronal", "[2-(Propan-2-yl)pent-4-enoyl]urea"], "SMILES": "C(C(NC(N)=O)=O)(CC=C)C(C)C", "physical_data": {"Molecular Weight": "184.24", "Molecular Formula": "C9H16N2O2", "Melting Point": "194 \u00b0C"}}