{"cas_no": "528-29-0", "cn_name": "1,2-\u4e8c\u785d\u57fa\u82ef", "en_name": ["1,2-Dinitrobenzene", "Benzene, 1,2-dinitro-", "Benzene, o-dinitro-", "1,2-Dinitrobenzene", "o-Dinitrobenzene", "Ortho-dinitrobenzene", "NSC 60682"], "SMILES": "N(=O)(=O)C1=C(N(=O)=O)C=CC=C1", "physical_data": {"Molecular Weight": "168.11", "Molecular Formula": "C6H4N2O4", "Boiling Point": "319 \u00b0C @ Press: 773 Torr", "Melting Point": "117-118.5 \u00b0C", "Density": "1.3119 g/cm\u00b3"}}