{"cas_no": "528-43-8", "cn_name": "\u539a\u6734\u915a", "en_name": ["Magnolol", "[1,1\u2032-Biphenyl]-2,2\u2032-diol, 5,5\u2032-di-2-propen-1-yl-", "2,2\u2032-Bichavicol", "2,2\u2032-Biphenyldiol, 5,5\u2032-diallyl-", "[1,1\u2032-Biphenyl]-2,2\u2032-diol, 5,5\u2032-di-2-propenyl-", "5,5\u2032-Di-2-propen-1-yl[1,1\u2032-biphenyl]-2,2\u2032-diol", "Magnolol", "5,5\u2032-Diallyl-2,2\u2032-biphenyldiol", "NSC 293099", "2-(2-Hydroxy-5-prop-2-enylphenyl)-4-prop-2-enylphenol", "E 100338"], "SMILES": "OC=1C(=CC(CC=C)=CC1)C2=CC(CC=C)=CC=C2O", "physical_data": {"Molecular Weight": "266.33", "Molecular Formula": "C18H18O2", "Boiling Point": "178-180 \u00b0C @ Press: 1 Torr", "Melting Point": "103 \u00b0C"}}