{"cas_no": "528-75-6", "cn_name": "2,4-\u4e8c\u785d\u57fa\u82ef\u7532\u919b", "en_name": ["2,4-Dinitrobenzaldehyde", "Benzaldehyde, 2,4-dinitro-", "2,4-Dinitrobenzaldehyde", "NSC 36948"], "SMILES": "N(=O)(=O)C1=C(C=O)C=CC(N(=O)=O)=C1", "physical_data": {"Molecular Weight": "196.12", "Molecular Formula": "C7H4N2O5", "Melting Point": "72 \u00b0C"}}