{"cas_no": "528-71-2", "cn_name": "1-\u7f9f\u57fa\u5429\u55ea", "en_name": ["1-Phenazinol", "1-Phenazinol", "Hemipyocyanine", "\u03b1-Hydroxyphenazine", "Pyoxanthose", "1-Hydroxyphenazine", "1-Hydroxy-9,10-diazaanthracene", "Hemipyocyanin", "NSC 88882"], "SMILES": "OC=1C2=C(N=C3C(=N2)C=CC=C3)C=CC1", "physical_data": {"Molecular Weight": "196.20", "Molecular Formula": "C12H8N2O", "Melting Point": "158 \u00b0C"}}