{"cas_no": "528-53-0", "cn_name": "\u6c2f\u5316\u82b1\u7fe0\u7d20", "en_name": ["Delphinidin chloride", "1-Benzopyrylium, 3,5,7-trihydroxy-2-(3,4,5-trihydroxyphenyl)-, chloride (1:1)", "Flavylium, 3,3\u2032,4\u2032,5,5\u2032,7-hexahydroxy-, chloride", "1-Benzopyrylium, 3,5,7-trihydroxy-2-(3,4,5-trihydroxyphenyl)-, chloride", "Delphinidin", "Delphinidin chloride", "Ephdine", "3,3\u2032,4\u2032,5,5\u2032,7-Hexahydroxyflavylium chloride", "3,3\u2032,4\u2032,5,5\u2032,7-Hexahydroxy-2-phenylbenzopyrylium chloride", "Delphinidine", "Delphinidol", "Delfinidol chloride", "IdB 1056"], "SMILES": "OC=1C(=[O+]C2=C(C1)C(O)=CC(O)=C2)C3=CC(O)=C(O)C(O)=C3.[Cl-]", "physical_data": {"Molecular Weight": "", "Molecular Formula": "C15H11O7.Cl", "Melting Point": "&gt;350 \u00b0C"}}