{"cas_no": "52808-36-3", "cn_name": "1-(2-\u6c2f\u4e59\u6c27\u57fa)-2-\u7532\u6c27\u57fa\u4e59\u70f7", "en_name": ["1-(2-Chloroethoxy)-2-methoxyethane", "Ethane, 1-(2-chloroethoxy)-2-methoxy-", "1-(2-Chloroethoxy)-2-methoxyethane", "2-(2-Methoxyethoxy)ethyl chloride", "2-Chloroethyl 2-methoxyethyl ether", "1-Chloro-3,6-dioxaheptane", "2-(2-Chloroethoxy)ethyl methyl ether", "3,6-Dioxaheptyl chloride", "1-Chloro-2-(2-methoxyethoxy)ethane", "NSC 9056", "Ethylene glycol 2-chloroethyl ether methyl ether"], "SMILES": "C(OCCCl)COC", "physical_data": {"Molecular Weight": "138.59", "Molecular Formula": "C5H11ClO2", "Boiling Point": "169 \u00b0C @ Press: 744 Torr", "Density": "1.0562 g/cm\u00b3 @ Temp: 16 \u00b0C"}}