{"cas_no": "52806-53-8", "cn_name": "\u7f9f\u57fa\u6c1f\u4ed6\u80fa", "en_name": ["Hydroxyflutamide", "Propanamide, 2-hydroxy-2-methyl-N-[4-nitro-3-(trifluoromethyl)phenyl]-", "2-Hydroxy-2-methyl-N-[4-nitro-3-(trifluoromethyl)phenyl]propanamide", "\u03b1,\u03b1,\u03b1-Trifluoro-2-methyl-4\u2032-nitro-m-lactotoluidide", "Sch 16423", "Hydroxyniphtholide", "Hydroxyflutamide", "2-Hydroxyflutamide"], "SMILES": "C(F)(F)(F)C1=C(N(=O)=O)C=CC(NC(C(C)(C)O)=O)=C1", "physical_data": {"Molecular Weight": "292.21", "Molecular Formula": "C11H11F3N2O4", "Melting Point": "149-151 \u00b0C"}}