{"cas_no": "52809-07-1", "cn_name": "(+)\u4f7f\u541b\u5b50\u6c28\u9178", "en_name": ["Quisqualic acid", "1,2,4-Oxadiazolidine-2-propanoic acid, \u03b1-amino-3,5-dioxo-, (\u03b1S)-", "Quisqualic acid", "1,2,4-Oxadiazolidine-2-propanoic acid, \u03b1-amino-3,5-dioxo-, (S)-", "(\u03b1S)-\u03b1-Amino-3,5-dioxo-1,2,4-oxadiazolidine-2-propanoic acid", "L-Quisqualic acid", "S-Quisqualic acid", "Quisqualinic acid", "(2S)-2-Amino-3-(3-hydroxy-5-oxo-2,5-dihydro-1,2,4-oxadiazol-2-yl)propanoic acid", "(2S)-2-Amino-3-(3,5-dioxo-1,2,4-oxadiazolidin-2-yl)propanoic acid", "(2S)-2-Amino-3-(5-hydroxy-3-oxo-2,3-dihydro-1,2,4-oxadiazol-2-yl)propanoic acid", "MeSH ID: D016318"], "SMILES": "C(C(C(O)=O)N)N1C(=O)NC(=O)O1", "physical_data": {"Molecular Weight": "189.13", "Molecular Formula": "C5H7N3O5", "Melting Point": "199-202 \u00b0C"}}