{"cas_no": "52805-46-6", "cn_name": "3-\u7f9f\u57fa-4-\u7532\u6c27\u57fa\u82ef\u8148", "en_name": ["3-Hydroxy-4-methoxybenzonitrile", "Benzonitrile, 3-hydroxy-4-methoxy-", "3-Hydroxy-4-methoxybenzonitrile", "2-Methoxy-5-cyanophenol", "5-Cyano-2-methoxyphenol"], "SMILES": "C(#N)C1=CC(O)=C(OC)C=C1", "physical_data": {"Molecular Weight": "149.15", "Molecular Formula": "C8H7NO2", "Melting Point": "124 \u00b0C"}}