{"cas_no": "5281-18-5", "cn_name": "\u4e9e\u82c4\u80bc", "en_name": ["Benzaldehyde, hydrazone", "Benzaldehyde, hydrazone", "Benzylidene hydrazine", "Benzalhydrazone", "NSC 32341", "(Phenylmethylidene)hydrazine"], "SMILES": "C(=NN)C1=CC=CC=C1", "physical_data": {"Molecular Weight": "120.15", "Molecular Formula": "C7H8N2", "Boiling Point": "115-120 \u00b0C @ Press: 8 Torr", "Melting Point": "198 \u00b0C"}}