{"cas_no": "52813-63-5", "cn_name": "(R)-5-\u7f9f\u7532\u57fa\u4e8c\u6c22\u544b\u5583-2-\u916e", "en_name": ["(5R)-Dihydro-5-(hydroxymethyl)-2(3H)-furanone", "2(3H)-Furanone, dihydro-5-(hydroxymethyl)-, (5R)-", "2(3H)-Furanone, dihydro-5-(hydroxymethyl)-, (R)-", "(5R)-Dihydro-5-(hydroxymethyl)-2(3H)-furanone", "(R)-\u03b3-(Hydroxymethyl)-\u03b3-butyrolactone", "(R)-Dihydro-5-(hydroxymethyl)-2(3H)-furanone", "(R)-5-(Hydroxymethyl)dihydrofuran-2-one", "(R)-(-)-Dihydro-5-(hydroxymethyl)-2(3H)-furanone", "(-)-(R)-5-(Hydroxymethyl)tetrahydrofuran-2-one", "(R)-5-(Hydroxymethyl)dihydrofuran-2(3H)-one", "(R)-5-(hydroxymethyl)dihydrofuran-2(3H)-one", "(5R)-5-(Hydroxymethyl)dihydro-furan-2(3H)-one", "(5R)-5-(Hydroxymethyl)oxolan-2-one", "2(3H)-Furanone dihydro-5-(hydroxymethyl)-, (5R)-"], "SMILES": "C(O)C1OC(=O)CC1", "physical_data": {"Molecular Weight": "116.12", "Molecular Formula": "C5H8O3", "Boiling Point": "132-136 \u00b0C @ Press: 1 Torr"}}