{"cas_no": "52818-63-0", "cn_name": "\u7532\u6c27\u57fa\u82c4\u80fa\u57fa\u5421\u5576", "en_name": ["N-[(4-Methoxyphenyl)methyl]-2-pyridinamine", "2-Pyridinamine, N-[(4-methoxyphenyl)methyl]-", "Pyridine, 2-(p-methoxybenzylamino)-", "N-[(4-Methoxyphenyl)methyl]-2-pyridinamine", "2-(p-Methoxybenzylamino)pyridine", "SKF 47437", "NSC 124138", "N-(4-Methoxybenzyl)pyridin-2-amine", "2-(4-Methoxybenzylamino)pyridine"], "SMILES": "C(NC1=CC=CC=N1)C2=CC=C(OC)C=C2", "physical_data": {"Molecular Weight": "214.26", "Molecular Formula": "C13H14N2O", "Melting Point": "128 \u00b0C"}}