{"cas_no": "52829-07-9", "cn_name": "\u5149\u7a33\u5b9a\u5242770", "en_name": ["Bis(2,2,6,6-tetramethyl-4-piperidyl) sebacate", "Decanedioic acid, 1,10-bis(2,2,6,6-tetramethyl-4-piperidinyl) ester", "Decanedioic acid, bis(2,2,6,6-tetramethyl-4-piperidinyl) ester", "Bis(2,2,6,6-tetramethyl-4-piperidyl) sebacate", "Bis(2,2,6,6-tetramethyl-4-piperidinyl) sebacate", "Tinuvin 770", "Sanol", "Sanol LS 770", "LS 770", "Sanol 770", "Mark LA 77", "HALS 770", "T 770", "Sanol LS 700", "Tinuvin 770LS", "TIN 770", "ADK Stab LA 77", "Tinuvin 770DF", "Bis(2,2,6,6-tetramethyl-4-piperidyl) decanedioate", "Sumisorb 577", "Adeka LA 77", "NF 90", "Viosorb 04", "Bis(2,2,6,6-tetramethylpiperidin-4-yl) sebecate", "Lowilite 77", "JF 90", "770DF", "LA 77Y", "LA 77", "BLS 1770", "TN 770", "Uvinul 4077", "ADK Stab LA 77Y", "Tinuvin 770DF1", "HS 770", "HA 7OG", "Uvinul 4077H", "Sanol LS 770P", "Hillite 77", "Hisorb 770", "UV 770", "Eversorb 90", "GW 480", "Antioxidant 770", "Sanol LS 107", "LA 77G", "Bis(2,2,6,6-Tetramethyl-4-piperidone) sebacate", "UV 770DF", "Songlight 7700", "Light Stabilizer 770", "ZX 70", "Chisorb 770", "SB-UVA 677", "Kemistab 77", "Bis-(2,2,6,6-tetramethylpiperidin-4-yl) 1,10-decanedioate", "HA 10", "Adekastab LA 77", "Tinuvin DF 770", "MA 90", "Riasorb UV 770", "Adeka Stab LA 77Y", "Tinuvin T 770", "Sabostab UV 70", "Chiguard 770", "HALS 480"], "SMILES": "O(C(CCCCCCCCC(OC1CC(C)(C)NC(C)(C)C1)=O)=O)C2CC(C)(C)NC(C)(C)C2", "physical_data": {"Molecular Weight": "480.72", "Molecular Formula": "C28H52N2O4", "Melting Point": "82-84 \u00b0C"}}