{"cas_no": "52829-98-8", "cn_name": "2-\u73af\u620a\u70f7\u4e59\u9187", "en_name": ["1-Cyclopentylethanol", "Cyclopentanemethanol, \u03b1-methyl-", "\u03b1-Methylcyclopentanemethanol", "1-Cyclopentylethanol", "NSC 9473", "1-Cyclopentylethan-1-ol"], "SMILES": "C(C)(O)C1CCCC1", "physical_data": {"Molecular Weight": "114.19", "Molecular Formula": "C7H14O", "Boiling Point": "96.5-97 \u00b0C @ Press: 24 Torr", "Density": "0.9180 g/cm\u00b3 @ Temp: 20 \u00b0C"}}