{"cas_no": "5283-66-9", "cn_name": "\u8f9b\u57fa\u4e09\u6c2f\u7845\u70f7", "en_name": ["Octyltrichlorosilane", "Silane, trichlorooctyl-", "Trichlorooctylsilane", "Octyltrichlorosilane", "P 09830", "LS 2190", "n-Octyltrichlorosilane", "OTS 8"], "SMILES": "C(CCCCCCC)[Si](Cl)(Cl)Cl", "physical_data": {"Molecular Weight": "247.67", "Molecular Formula": "C8H17Cl3Si", "Boiling Point": "232 \u00b0C", "Density": "1.074 g/cm\u00b3"}}