{"cas_no": "5283-67-0", "cn_name": "\u58ec\u57fa\u4e09\u6c2f\u7845\u70f7", "en_name": ["Trichlorononylsilane", "Silane, trichlorononyl-", "Trichlorononylsilane", "Nonyltrichlorosilane"], "SMILES": "C(CCCCCCCC)[Si](Cl)(Cl)Cl", "physical_data": {"Molecular Weight": "261.69", "Molecular Formula": "C9H19Cl3Si", "Boiling Point": "116.2 \u00b0C @ Press: 10 Torr", "Density": "1.072 g/cm\u00b3 @ Temp: 25 \u00b0C"}}