{"cas_no": "5284-66-2", "cn_name": "1-\u4e19\u78fa\u9178", "en_name": ["1-Propanesulfonic acid", "1-Propanesulfonic acid", "NSC 87882"], "SMILES": "C(S(=O)(=O)O)CC", "physical_data": {"Molecular Weight": "124.16", "Molecular Formula": "C3H8O3S", "Boiling Point": "136 \u00b0C", "Melting Point": "7.5 \u00b0C", "Density": "1.2516 g/cm\u00b3 @ Temp: 25 \u00b0C"}}