{"cas_no": "5284-79-7", "cn_name": "2,6-\u4e8c(4-\u53e0\u6c2e\u82ef\u4e9a\u7532\u57fa)-4\u7532\u57fa\u73af\u5df1\u916e", "en_name": ["2,6-Bis(4\u2032-azidobenzylidene)-4-methylcyclohexanone", "Cyclohexanone, 2,6-bis[(4-azidophenyl)methylene]-4-methyl-", "Cyclohexanone, 2,6-bis(p-azidobenzylidene)-4-methyl-", "2,6-Bis[(4-azidophenyl)methylene]-4-methylcyclohexanone", "1,3-Bis(p-azidobenzylidene)-5-methylcyclohexan-2-one", "2,6-Bis(4-azidobenzylidene)-4-methylcyclohexanone", "2,6-Bis(4\u2032-azidobenzal)-4-methylcyclohexanone", "2,6-Bis(p-azidobenzylidene)-4-methylcyclohexanone", "2,6-Bis(4-azidobenzal)-4-methylcyclohexanone", "2,6-Bis(p-azidobenzal)-4-methylcyclohexanone", "2,6-Di(4-azidobenzylidene)-4-methylcyclohexanone", "2,6-Bis(4\u2032-azidobenzylidene)-4-methylcyclohexanone", "4-Methyl-2,6-bis(4\u2032-azidobenzylidene)cyclohexan-1-one", "A 016", "BAC-M (light absorber)", "2,6-Bis(4-azidobenzylidene)-4-methylcyclohexan-1-one"], "SMILES": "C(=C1C(=O)C(=CC2=CC=C(N=[N+]=[N-])C=C2)CC(C)C1)C3=CC=C(N=[N+]=[N-])C=C3", "physical_data": {"Molecular Weight": "", "Molecular Formula": "C21H18N6O", "Melting Point": "121 \u00b0C"}}