{"cas_no": "528560-93-2", "cn_name": "\u66ff\u7c73\u6c99\u5766\u7532\u916f", "en_name": ["Methyl 4\u2032-[[2-propyl-4-methyl-6-(1-methylbenzimidazol-2-yl)benzimidazol-1-yl]methyl]biphenyl-2-carboxylate", "[1,1\u2032-Biphenyl]-2-carboxylic acid, 4\u2032-[(1,4\u2032-dimethyl-2\u2032-propyl[2,6\u2032-bi-1H-benzimidazol]-1\u2032-yl)methyl]-, methyl ester", "Methyl 4\u2032-[[2-propyl-4-methyl-6-(1-methylbenzimidazol-2-yl)benzimidazol-1-yl]methyl]biphenyl-2-carboxylate"], "SMILES": "C(N1C=2C(N=C1CCC)=C(C)C=C(C2)C3=NC=4C(N3C)=CC=CC4)C5=CC=C(C=C5)C6=C(C(OC)=O)C=CC=C6", "physical_data": {"Molecular Weight": "528.64", "Molecular Formula": "C34H32N4O2", "Melting Point": "170-175 \u00b0C"}}