{"cas_no": "5285-60-9", "cn_name": "4,4'-\u4e9a\u7532\u57fa\u53cc[N-\u4ef2\u4e01\u57fa\u82ef\u80fa]", "en_name": ["4,4\u2032-Bis(sec-butylamino)diphenylmethane", "Benzenamine, 4,4\u2032-methylenebis[N-(1-methylpropyl)-", "Aniline, 4,4\u2032-methylenebis[N-sec-butyl-", "4,4\u2032-Methylenebis[N-(1-methylpropyl)benzenamine]", "4,4\u2032-Bis(sec-butylamino)diphenylmethane", "4,4\u2032-Methylenebis[N-sec-butylaniline]", "Bis(N-sec-butyl-p-aminophenyl)methane", "N,N\u2032-Di(2-butyl)-4,4\u2032-methylenedianiline", "N,N\u2032-Di-sec-butyl-4,4\u2032-methylenedianiline", "UOP 225", "Unilink 4200", "DBMDA", "4,4\u2032-Di(sec-butylamino)diphenylmethane", "Ethacure 420", "Polylink 4100", "Polylink 4200", "W 6200", "Wanalink 6200", "Wanda link 6200", "4,4\u2032-Methylene bis[N-(1-methylpropyl)benzenamine]", "Dinlink 4200", "WK 6200", "Polylink 4000"], "SMILES": "C(C1=CC=C(NC(CC)C)C=C1)C2=CC=C(NC(CC)C)C=C2", "physical_data": {"Molecular Weight": "310.48", "Molecular Formula": "C21H30N2", "Boiling Point": "240-250 \u00b0C @ Press: 2-3 Torr"}}