{"cas_no": "52867-42-2", "cn_name": "2,5-\u4e8c\u6c22-2-\u7532\u57fa-5-\u6c27\u4ee3-1H-\u5421\u5511-3-\u7fa7\u9178\u7532\u916f", "en_name": ["Methyl 2,5-dihydro-2-methyl-5-oxo-1H-pyrazole-3-carboxylate", "1H-Pyrazole-3-carboxylic acid, 2,5-dihydro-2-methyl-5-oxo-, methyl ester", "Methyl 2,5-dihydro-2-methyl-5-oxo-1H-pyrazole-3-carboxylate", "Methyl 3-hydroxy-1-methylpyrazole-5-carboxylate", "NSC 196605"], "SMILES": "C(OC)(=O)C1=CC(=O)NN1C", "physical_data": {"Molecular Weight": "156.14", "Molecular Formula": "C6H8N2O3", "Melting Point": "197 \u00b0C"}}