{"cas_no": "5287-45-6", "cn_name": "\u5f02\u620a\u70ef\u57fa\u786b\u9187", "en_name": ["3-Methyl-2-butene-1-thiol", "2-Butene-1-thiol, 3-methyl-", "3-Methyl-2-butene-1-thiol", "Prenyl mercaptan", "Prenylthiol", "MBT", "3-Methyl-1-mercapto-2-butene", "3-Methyl-2-buten-1-thiol"], "SMILES": "C(=C(C)C)CS", "physical_data": {"Molecular Weight": "102.20", "Molecular Formula": "C5H10S", "Boiling Point": "125-127 \u00b0C", "Density": "0.8987 g/cm\u00b3 @ Temp: 100 \u00b0C"}}