{"cas_no": "52888-80-9", "cn_name": "\u82c4\u8349\u4e39", "en_name": ["Prosulfocarb", "Carbamothioic acid, N,N-dipropyl-, S-(phenylmethyl) ester", "Carbamothioic acid, dipropyl-, S-(phenylmethyl) ester", "Carbamic acid, dipropylthio-, S-benzyl ester", "S-Benzyl dipropylthiocarbamate", "Benzyl dipropylthiolcarbamate", "S-Benzyl N,N-dipropylthiocarbamate", "R 15574", "S-Benzyl dipropylthiolcarbamate", "SC 0574", "Prosulfocarb", "Boxer", "Boxer (ICI Agrochemicals)", "Arkade", "Defi", "Boxer EC", "Boxer 800EC"], "SMILES": "N(C(SCC1=CC=CC=C1)=O)(CCC)CCC", "physical_data": {"Molecular Weight": "251.39", "Molecular Formula": "C14H21NOS", "Boiling Point": "129 \u00b0C", "Melting Point": "&lt;25 \u00b0C"}}