{"cas_no": "5289-74-7", "cn_name": "\u8715\u76ae\u6fc0\u7d20", "en_name": ["20-Hydroxyecdysone", "Cholest-7-en-6-one, 2,3,14,20,22,25-hexahydroxy-, (2\u03b2,3\u03b2,5\u03b2,22R)-", "5\u03b2-Cholest-7-en-6-one, 2\u03b2,3\u03b2,14,20,22,25-hexahydroxy-, (22R)-", "5\u03b2-Cholest-7-en-6-one, 2\u03b2,3\u03b2,14,20,22\u03b2,25-hexahydroxy-", "(2\u03b2,3\u03b2,5\u03b2,22R)-2,3,14,20,22,25-Hexahydroxycholest-7-en-6-one", "Ecdysterone", "Crustecdysone", "Isoinokosterone", "20-Hydroxyecdysone", "\u03b2-Ecdysone", "Polypodine A", "20-Hydroxy-\u03b1-ecdysone", "Commisterone", "THE 7", "Ecdysteron", "Crustecdyson", "Viticosterone", "\u03b2-Ecdysterone", "Ecdysone", "Polypodine C", "Polypodin C", "Polypodin A", "20R-Hydroxyecdysone", "Ekdisten", "(+)-Ecdysterone", "Ecdysten", "2\u03b2,3\u03b2,14\u03b1,20\u03b2,22\u03b1,25-Hexahydroxycholest-7-en-6-one", "\u03b2-Ecydisone", "(+)-20-Hydroxyecdysone", "Sarconeos", "BIO 101", "MeSH ID: D004441"], "SMILES": "OC12C=3C(C4(C)C(C(=O)C3)CC(O)C(O)C4)CCC1(C)C(C(C(CCC(C)(C)O)O)(C)O)CC2", "physical_data": {"Molecular Weight": "480.63", "Molecular Formula": "C27H44O7", "Melting Point": "242 \u00b0C (decomp)"}}