{"cas_no": "52899-09-9", "cn_name": "H-PRO-VAL-OH", "en_name": ["L-Prolyl-L-valine", "L-Valine, L-prolyl-", "L-Valine, N-L-prolyl-", "Valine, N-L-prolyl-", "L-Prolyl-L-valine", "Prolyl-valine", "NSC 319054", "107: PN: WO2006024694 SEQID: 107 claimed protein", "147: PN: EP2161028 PAGE: 10 claimed protein", "34: PN: WO2014102104 SEQID: 133 claimed protein", "34: PN: WO2014102101 SEQID: 334 claimed protein", "74: PN: WO2014102103 TABLE: 1 claimed protein", "53: PN: WO2014102100 TABLE: 1 claimed protein", "805: PN: WO2022215055 SEQID: 805 claimed protein"], "SMILES": "C(NC(=O)C1CCCN1)(C(C)C)C(O)=O", "physical_data": {"Molecular Weight": "214.26", "Molecular Formula": "C10H18N2O3", "Melting Point": "221 \u00b0C"}}