{"cas_no": "52899-07-7", "cn_name": "H-PRO-LEU-OH", "en_name": ["L-Prolyl-L-leucine", "L-Leucine, L-prolyl-", "L-Leucine, N-L-prolyl-", "Leucine, N-L-prolyl-", "L-Prolyl-L-leucine", "Prolylleucine", "56: PN: WO03052099 PAAA: 85 claimed protein", "435: PN: WO2005081628 SEQID: 437 claimed protein", "1: PN: US20130295106 PAGE: 130 claimed sequence", "31: PN: WO2020097235 SEQID: 260 claimed protein", "126: PN: WO2022170619 SEQID: 479 claimed protein", "130: PN: WO2022171192 SEQID: 479 claimed protein", "651: PN: WO2022215055 SEQID: 651 claimed protein"], "SMILES": "C(NC(CC(C)C)C(O)=O)(=O)C1CCCN1", "physical_data": {"Molecular Weight": "228.29", "Molecular Formula": "C11H20N2O3", "Melting Point": "231-232 \u00b0C"}}