{"cas_no": "529-40-8", "cn_name": "\u5546\u9646\u7d20", "en_name": ["Ombuin", "4H-1-Benzopyran-4-one, 3,5-dihydroxy-2-(3-hydroxy-4-methoxyphenyl)-7-methoxy-", "Flavone, 3,3\u2032,5-trihydroxy-4\u2032,7-dimethoxy-", "Ombuin", "3,5-Dihydroxy-2-(3-hydroxy-4-methoxyphenyl)-7-methoxy-4H-1-benzopyran-4-one", "Quercetin 7,4\u2032-dimethyl ether", "4\u2032,7-Dimethylquercetin", "Ombuine", "3,5,3\u2032-Trihydroxy-7,4\u2032-dimethoxyflavone", "NSC 675952", "Quercetin 4\u2032,7-dimethyl ether"], "SMILES": "O=C1C=2C(OC(=C1O)C3=CC(O)=C(OC)C=C3)=CC(OC)=CC2O", "physical_data": {"Molecular Weight": "330.29", "Molecular Formula": "C17H14O7", "Melting Point": "229-230 \u00b0C"}}