{"cas_no": "529-84-0", "cn_name": "4-\u7532\u57fa\u4e03\u53f6\u4ead", "en_name": ["4-Methylesculetin", "2H-1-Benzopyran-2-one, 6,7-dihydroxy-4-methyl-", "Coumarin, 6,7-dihydroxy-4-methyl-", "Esculetin, 4-methyl-", "6,7-Dihydroxy-4-methyl-2H-1-benzopyran-2-one", "4-Methylesculetin", "4-Methyl-6,7-dihydroxycoumarin", "4-Methylaesculetin", "6,7-Dihydroxy-4-methylcoumarin", "Methylesculetin", "4-Methylesculetol", "NSC 11828", "NSC 688807"], "SMILES": "CC=1C=2C(=CC(O)=C(O)C2)OC(=O)C1", "physical_data": {"Molecular Weight": "192.17", "Molecular Formula": "C10H8O4", "Melting Point": "199 \u00b0C"}}