{"cas_no": "529-55-5", "cn_name": "\u67da\u76ae\u7d20-7-O-\u8461\u8404\u7cd6\u82f7", "en_name": ["Prunin", "4H-1-Benzopyran-4-one, 7-(\u03b2-D-glucopyranosyloxy)-2,3-dihydro-5-hydroxy-2-(4-hydroxyphenyl)-, (2S)-", "Prunin", "4H-1-Benzopyran-4-one, 7-(\u03b2-D-glucopyranosyloxy)-2,3-dihydro-5-hydroxy-2-(4-hydroxyphenyl)-, (S)-", "(2S)-7-(\u03b2-D-Glucopyranosyloxy)-2,3-dihydro-5-hydroxy-2-(4-hydroxyphenyl)-4H-1-benzopyran-4-one", "Naringenin 7-glucoside", "(-)-Naringenin 7-\u03b2-D-glucoside", "Naringenin 7-O-glucoside", "Naringenin 7-O-\u03b2-D-glucoside", "Naringenin 7-O-\u03b2-D-glucopyranoside", "4\u2032,5,7-Trihydroxyflavanone 7-O-\u03b2-D-glucopyranoside", "NSC 135064", "(2S)-Naringenin 7-O-\u03b2-D-glucopyranoside"], "SMILES": "O=C1C=2C(OC(C1)C3=CC=C(O)C=C3)=CC(OC4OC(CO)C(O)C(O)C4O)=CC2O", "physical_data": {"Molecular Weight": "434.39", "Molecular Formula": "C21H22O10", "Melting Point": "225 \u00b0C"}}