{"cas_no": "529-61-3", "cn_name": "\u5370\u5ea6\u9ec4\u916e", "en_name": ["Euxanthone", "9H-Xanthen-9-one, 1,7-dihydroxy-", "Euxanthone", "Xanthen-9-one, 1,7-dihydroxy-", "1,7-Dihydroxy-9H-xanthen-9-one", "1,7-Dihydroxyxanthone", "DX 1"], "SMILES": "O=C1C=2C(OC=3C1=CC(O)=CC3)=CC=CC2O", "physical_data": {"Molecular Weight": "228.20", "Molecular Formula": "C13H8O4", "Melting Point": "240 \u00b0C"}}