{"cas_no": "529-23-7", "cn_name": "2-\u6c28\u57fa\u82ef\u7532\u919b", "en_name": ["2-Aminobenzaldehyde", "Benzaldehyde, 2-amino-", "Anthranilaldehyde", "2-Aminobenzaldehyde", "o-Aminobenzaldehyde", "2-Formylaniline"], "SMILES": "C(=O)C1=C(N)C=CC=C1", "physical_data": {"Molecular Weight": "121.14", "Molecular Formula": "C7H7NO", "Boiling Point": "82.5 \u00b0C", "Melting Point": "39 \u00b0C"}}