{"cas_no": "529-20-4", "cn_name": "2-\u7532\u57fa\u82ef\u7532\u919b", "en_name": ["2-Methylbenzaldehyde", "Benzaldehyde, 2-methyl-", "o-Tolualdehyde", "2-Methylbenzaldehyde", "o-Methylbenzaldehyde", "o-Toluic aldehyde", "o-Tolylaldehyde", "2-Tolualdehyde", "2-Formyltoluene", "NSC 103152"], "SMILES": "C(=O)C1=C(C)C=CC=C1", "physical_data": {"Molecular Weight": "120.15", "Molecular Formula": "C8H8O", "Boiling Point": "200 \u00b0C", "Melting Point": "&lt;25 \u00b0C", "Density": "1.0342 g/cm\u00b3 @ Temp: 20 \u00b0C"}}