{"cas_no": "529-35-1", "cn_name": "\u56db\u6c22\u8418\u915a", "en_name": ["5,6,7,8-Tetrahydro-1-naphthol", "1-Naphthalenol, 5,6,7,8-tetrahydro-", "1-Naphthol, 5,6,7,8-tetrahydro-", "5,6,7,8-Tetrahydro-1-naphthalenol", "5-Hydroxytetralin", "5,6,7,8-Tetrahydro-1-naphthol", "Tetrahydro-\u03b1-naphthol", "5,6,7,8-Tetrahydro-\u03b1-naphthol", "5,6,7,8-Tetrahydronaphthalen-1-ol", "5,6,7,8-Tetrahydro-1-hydroxynaphthalene", "1-Hydroxy-5,6,7,8-tetrahydronaphthalene", "1,2,3,4-Tetrahydro-5-hydroxynaphthalene", "NSC 28822", "1,2,3,4-Tetrahydro-5-naphthol", "Tetralin-5-ol", "5,6,7,8-Tetrahydronaphthol", "1,2,3,4-Tetrahydronaphthalen-5-ol"], "SMILES": "OC1=C2C(=CC=C1)CCCC2", "physical_data": {"Molecular Weight": "148.20", "Molecular Formula": "C10H12O", "Boiling Point": "266 \u00b0C", "Melting Point": "70 \u00b0C"}}