{"cas_no": "529-44-2", "cn_name": "\u6768\u6885\u7d20", "en_name": ["Myricetin", "4H-1-Benzopyran-4-one, 3,5,7-trihydroxy-2-(3,4,5-trihydroxyphenyl)-", "Flavone, 3,3\u2032,4\u2032,5,5\u2032,7-hexahydroxy-", "3,5,7-Trihydroxy-2-(3,4,5-trihydroxyphenyl)-4H-1-benzopyran-4-one", "Cannabiscetin", "3,5,7,3\u2032,4\u2032,5\u2032-Hexahydroxyflavone", "Myricetin", "Myricetol", "3,3\u2032,4\u2032,5,5\u2032,7-Hexahydroxyflavone", "NSC 407290", "LDN 0014058", "NCBI 5281672", "3,5,7-Trihydroxy-2-(3,4,5-trihydroxyphenyl)chromen-4-one", "3,5,7-Trihydroxy-2-(3,4,5-trihydroxyphenyl)-4H-chromen-4-one", "Miricetol"], "SMILES": "O=C1C=2C(OC(=C1O)C3=CC(O)=C(O)C(O)=C3)=CC(O)=CC2O", "physical_data": {"Molecular Weight": "318.24", "Molecular Formula": "C15H10O8", "Melting Point": "357 \u00b0C"}}