{"cas_no": "529-34-0", "cn_name": "1-\u56db\u6c22\u8418\u916e", "en_name": ["1-Tetralone", "1(2H)-Naphthalenone, 3,4-dihydro-", "3,4-Dihydro-1(2H)-naphthalenone", "\u03b1-Tetralone", "1-Tetralone", "1,2,3,4-Tetrahydronaphthalen-1-one", "3,4-Dihydro-2H-naphthalen-1-one", "1-Oxotetralin", "1,2,3,4-Tetrahydro-1-oxonaphthalene", "1-Oxo-1,2,3,4-tetrahydronaphthalene", "NSC 5171", "3,4-Dihydronaphthalen-1(2H)-one", "Benzocyclohexan-1-one", "3,4-Dihydronaphthalen-1-one"], "SMILES": "O=C1C=2C(CCC1)=CC=CC2", "physical_data": {"Molecular Weight": "146.19", "Molecular Formula": "C10H10O", "Boiling Point": "255-257 \u00b0C @ Press: 760 Torr", "Melting Point": "8 \u00b0C", "Density": "1.0988 g/cm\u00b3 @ Temp: 16 \u00b0C"}}