{"cas_no": "529-53-3", "cn_name": "\u91ce\u9ec4\u82a9\u7d20", "en_name": ["Scutellarein", "4H-1-Benzopyran-4-one, 5,6,7-trihydroxy-2-(4-hydroxyphenyl)-", "Flavone, 4\u2032,5,6,7-tetrahydroxy-", "Scutellarein", "5,6,7-Trihydroxy-2-(4-hydroxyphenyl)-4H-1-benzopyran-4-one", "4\u2032,5,6,7-Tetrahydroxyflavone", "6-Hydroxyapigenin", "5,6,7,4\u2032-Tetrahydroxyflavone", "5,6,7-Trihydroxy-2-(4-hydroxyphenyl)-4H-chromen-4-one", "2-(4-Hydroxyphenyl)-5,6,7-tris(oxidanyl)chromen-4-one"], "SMILES": "O=C1C=2C(OC(=C1)C3=CC=C(O)C=C3)=CC(O)=C(O)C2O", "physical_data": {"Molecular Weight": "286.24", "Molecular Formula": "C15H10O6", "Melting Point": "340 \u00b0C (decomp)"}}