{"cas_no": "529-51-1", "cn_name": "2-(3,4-\u4e8c\u7f9f\u57fa\u82ef\u57fa)-3,7-\u4e8c\u7f9f\u57fa-5-\u7532\u6c27\u57fa\u82ef\u5e76\u5421\u5583-4-\u916e", "en_name": ["Azaleatin", "4H-1-Benzopyran-4-one, 2-(3,4-dihydroxyphenyl)-3,7-dihydroxy-5-methoxy-", "Flavone, 3,3\u2032,4\u2032,7-tetrahydroxy-5-methoxy-", "2-(3,4-Dihydroxyphenyl)-3,7-dihydroxy-5-methoxy-4H-1-benzopyran-4-one", "Azaleatin", "Quercetin 5-methyl ether", "5-O-Methylquercetin", "3,3\u2032,4\u2032,7-Tetrahydroxy-5-methoxyflavone"], "SMILES": "O(C)C1=C2C(OC(=C(O)C2=O)C3=CC(O)=C(O)C=C3)=CC(O)=C1", "physical_data": {"Molecular Weight": "316.26", "Molecular Formula": "C16H12O7", "Melting Point": "305-308 \u00b0C"}}