{"cas_no": "529-49-7", "cn_name": "1,3,7-\u4e09\u7f9f\u57fa-9H-\u6c27\u6742\u84bd-9-\u916e", "en_name": ["1,3,7-Trihydroxyxanthone", "9H-Xanthen-9-one, 1,3,7-trihydroxy-", "Xanthen-9-one, 1,3,7-trihydroxy-", "Gentisein", "1,3,7-Trihydroxy-9H-xanthen-9-one", "1,3,7-Trihydroxyxanthone", "NSC 329491", "1,3,7-Trihydroxyxanthen-9-one"], "SMILES": "O=C1C=2C(OC=3C1=CC(O)=CC3)=CC(O)=CC2O", "physical_data": {"Molecular Weight": "244.20", "Molecular Formula": "C13H8O5", "Melting Point": "314-315 \u00b0C"}}