{"cas_no": "529-69-1", "cn_name": "\u7570\u9ec3\u558b\u5464", "en_name": ["Isoxanthopterin", "4,7(3H,8H)-Pteridinedione, 2-amino-", "Isoxanthopterin", "4,7(1H,8H)-Pteridinedione, 2-amino-", "2-Amino-4,7(3H,8H)-pteridinedione", "Ranachrome 4", "2-Amino-4,7-dihydroxypteridine", "NSC 118090", "NSC 614991", "2-Aminopteridine-4,7(1H,8H)-dione", "2-Amino-1,8-dihydropteridine-4,7-dione"], "SMILES": "O=C1C2=C(NC(N)=N1)NC(=O)C=N2", "physical_data": {"Molecular Weight": "179.14", "Molecular Formula": "C6H5N5O2", "Melting Point": "&gt;300 \u00b0C"}}