{"cas_no": "529-68-0", "cn_name": "\u4e59\u9170\u6c34\u6768\u9178\u4e59\u916f", "en_name": ["Ethyl 2-acetoxybenzoate", "Benzoic acid, 2-(acetyloxy)-, ethyl ester", "Salicylic acid, ethyl ester, acetate", "Acetylsalicylic acid, ethyl ester", "Ethyl acetylsalicylate", "2-Carbethoxyphenyl acetate", "Ethyl o-acetoxybenzoate", "Ethyl 2-acetoxybenzoate", "2-(Acetyloxy)benzoic acid ethyl ester"], "SMILES": "O(C(C)=O)C1=C(C(OCC)=O)C=CC=C1", "physical_data": {"Molecular Weight": "208.21", "Molecular Formula": "C11H12O4", "Melting Point": "70-71 \u00b0C"}}