{"cas_no": "529-38-4", "cn_name": "\u53ef\u53ef\u4e59\u70ef", "en_name": ["Cocaethylene", "8-Azabicyclo[3.2.1]octane-2-carboxylic acid, 3-(benzoyloxy)-8-methyl-, ethyl ester, (1R,2R,3S,5S)-", "8-Azabicyclo[3.2.1]octane-2-carboxylic acid, 3-(benzoyloxy)-8-methyl-, ethyl ester, [1R-(exo,exo)]-", "Cocaethylene", "Ethyl benzoylecgonine", "Homocaine", "Ecgonine ethyl ester benzoate (ester)", "O-Benzoyl-l-ecgonine ethyl ester", "Cocaethyline", "Homococaine", "Cocaethylin", "Benzoylethylecgonin", "Ethylcocaine"], "SMILES": "O(C(=O)C1=CC=CC=C1)C2C(C(OCC)=O)C3N(C)C(C2)CC3", "physical_data": {"Molecular Weight": "317.38", "Molecular Formula": "C18H23NO4", "Melting Point": "109 \u00b0C"}}