{"cas_no": "529-36-2", "cn_name": "1-\u5948\u786b\u915a", "en_name": ["1-Naphthalenethiol", "1-Naphthalenethiol", "1-Mercaptonaphthalene", "\u03b1-Naphthyl mercaptan", "1-Naphthyl mercaptan", "\u03b1-Thionaphthol", "1-Thionaphthol", "\u03b1-Naphthalenethiol", "\u03b1-Mercaptonaphthalene"], "SMILES": "SC=1C2=C(C=CC1)C=CC=C2", "physical_data": {"Molecular Weight": "160.24", "Molecular Formula": "C10H8S", "Boiling Point": "285 \u00b0C", "Melting Point": "15 \u00b0C", "Density": "1.1607 g/cm\u00b3 @ Temp: 420 \u00b0C"}}