{"cas_no": "529-28-2", "cn_name": "2-\u7898\u82ef\u7532\u919a", "en_name": ["2-Iodoanisole", "Benzene, 1-iodo-2-methoxy-", "Anisole, o-iodo-", "1-Iodo-2-methoxybenzene", "o-Iodoanisole", "2-Iodoanisole", "o-Anisyl iodide", "o-Methoxyiodobenzene", "2-Methoxyphenyl iodide", "2-Methoxyiodobenzene", "o-Iodomethoxybenzene", "o-Methoxyphenyl iodide", "2-Iodophenyl methyl ether", "NSC 9259", "2-Methoxy-1-iodobenzene"], "SMILES": "O(C)C1=C(I)C=CC=C1", "physical_data": {"Molecular Weight": "234.03", "Molecular Formula": "C7H7IO", "Boiling Point": "241 \u00b0C"}}