{"cas_no": "529-59-9", "cn_name": "\u67d3\u6599\u6728\u82f7", "en_name": ["Genistin", "4H-1-Benzopyran-4-one, 7-(\u03b2-D-glucopyranosyloxy)-5-hydroxy-3-(4-hydroxyphenyl)-", "Genistin", "7-(\u03b2-D-Glucopyranosyloxy)-5-hydroxy-3-(4-hydroxyphenyl)-4H-1-benzopyran-4-one", "Genistein, 7-\u03b2-D-glucopyranoside", "Genistoside", "Genistein 7-O-\u03b2-D-glucoside", "Genisteol 7-monoglucoside", "Genistein 7-O-glucoside", "Genistine", "4\u2032,5,7-Trihydroxyisoflavone 7-\u03b2-D-glucopyranoside", "Genistein 7-O-\u03b2-D-glucopyranoside", "Genistein 7-O-\u03b2-glucoside", "NSC 5112", "5,4\u2032-Di-hydroxyisoflavone-7-O-\u03b2-D-glucopyranoside"], "SMILES": "O=C1C=2C(=CC(OC3OC(CO)C(O)C(O)C3O)=CC2O)OC=C1C4=CC=C(O)C=C4", "physical_data": {"Molecular Weight": "432.38", "Molecular Formula": "C21H20O10", "Melting Point": "259 \u00b0C (decomp)"}}