{"cas_no": "529-19-1", "cn_name": "\u90bb\u7532\u57fa\u82ef\u8148", "en_name": ["2-Methylbenzonitrile", "Benzonitrile, 2-methyl-", "o-Tolunitrile", "2-Methylbenzonitrile", "2-Methylbenzenecarbonitrile", "o-Methylbenzonitrile", "o-Cyanotoluene", "2-Cyanotoluene", "o-Toluenecarbonitrile", "2-Tolunitrile", "1-Cyano-2-methylbenzene", "2-Tolyl cyanide", "o-Tolyl cyanide", "NSC 66549"], "SMILES": "C(#N)C1=C(C)C=CC=C1", "physical_data": {"Molecular Weight": "117.15", "Molecular Formula": "C8H7N", "Boiling Point": "205 \u00b0C", "Melting Point": "-13.5 \u00b0C"}}