{"cas_no": "529-33-9", "cn_name": "alpha-\u56db\u6c22\u8418\u915a", "en_name": ["1-Tetralol", "1-Naphthalenol, 1,2,3,4-tetrahydro-", "1-Naphthol, 1,2,3,4-tetrahydro-", "1,2,3,4-Tetrahydro-1-naphthalenol", "1-Tetralol", "\u03b1-Tetralol", "1,2,3,4-Tetrahydro-1-naphthol", "1-Hydroxytetralin", "1-Hydroxy-1,2,3,4-tetrahydronaphthalene", "(\u00b1)-1-Tetralol", "(\u00b1)-1,2,3,4-Tetrahydro-1-naphthol", "(\u00b1)-\u03b1-Tetralol", "(RS)-1-Hydroxytetralin", "NSC 5172"], "SMILES": "OC1C=2C(CCC1)=CC=CC2", "physical_data": {"Molecular Weight": "148.20", "Molecular Formula": "C10H12O", "Boiling Point": "139-140 \u00b0C @ Press: 17 Torr", "Melting Point": "211 \u00b0C", "Density": "1.0896 g/cm\u00b3 @ Temp: 17 \u00b0C"}}