{"cas_no": "529-37-3", "cn_name": "4-\u7f9f\u57fa\u55b9\u5549", "en_name": ["4(1H)-Quinolinone", "4(1H)-Quinolinone", "4(1H)-Quinolone", "\u03b3-Quinolone", "4-Quinolone", "1,4-Dihydro-4-quinolinone", "1H-4-Oxoquinoline", "NSC 263800", "1H-Quinolin-4-one"], "SMILES": "O=C1C=2C(NC=C1)=CC=CC2", "physical_data": {"Molecular Weight": "145.16", "Molecular Formula": "C9H7NO", "Boiling Point": "80-83 \u00b0C @ Press: 1 Torr", "Melting Point": "208-210 \u00b0C"}}