{"cas_no": "529-05-5", "cn_name": "\u6bcd\u83ca\u8581", "en_name": ["Chamazulene", "Azulene, 7-ethyl-1,4-dimethyl-", "7-Ethyl-1,4-dimethylazulene", "Chamazulene", "Dimethulene", "Camazulene", "Chamazulen", "Ba 2784", "1,4-Dimethyl-7-ethylazulene", "Dimethulen"], "SMILES": "CC=1C=2C(=CC1)C(C)=CC=C(CC)C2", "physical_data": {"Molecular Weight": "184.28", "Molecular Formula": "C14H16", "Boiling Point": "135-190 \u00b0C @ Press: 11 Torr", "Melting Point": "&lt;25 \u00b0C"}}