{"cas_no": "529-21-5", "cn_name": "3-\u4e59\u57fa-4-\u7532\u57fa\u5421\u5576", "en_name": ["3-Ethyl-4-methylpyridine", "Pyridine, 3-ethyl-4-methyl-", "4-Picoline, 3-ethyl-", "3-Ethyl-4-methylpyridine", "\u03b2-Collidine", "\u03b2-Ethyl-\u03b3-methylpyridine", "3-Ethyl-\u03b3-picoline", "3-Ethyl-4-picoline", "4-Methyl-3-ethylpyridine", "NSC 62016"], "SMILES": "C(C)C=1C(C)=CC=NC1", "physical_data": {"Molecular Weight": "121.18", "Molecular Formula": "C8H11N", "Boiling Point": "198 \u00b0C", "Density": "0.9458 g/cm\u00b3 @ Temp: 20 \u00b0C"}}