{"cas_no": "529-64-6", "cn_name": "\u6258\u54c1\u9178", "en_name": ["(\u00b1)-Tropic acid", "Benzeneacetic acid, \u03b1-(hydroxymethyl)-", "Tropic acid, (\u00b1)-", "Benzeneacetic acid, \u03b1-(hydroxymethyl)-, (\u00b1)-", "\u03b1-(Hydroxymethyl)benzeneacetic acid", "(\u00b1)-Tropic acid", "dl-Tropic acid", "DL-Tropic acid", "Tropic acid", "2-Phenylhydracrylic acid", "3-Hydroxy-2-phenylpropionic acid", "(\u00b1)-2-Phenyl-3-hydroxypropionic acid", "2-Phenyl-3-hydroxypropionic acid", "(\u00b1)-3-Hydroxy-2-phenylpropionic acid", "2-Phenyl-3-hydroxypropanoic acid", "NSC 20990", "3-Hydroxy-2-phenylpropanoicacid"], "SMILES": "C(C(O)=O)(CO)C1=CC=CC=C1", "physical_data": {"Molecular Weight": "166.17", "Molecular Formula": "C9H10O3", "Melting Point": "118 \u00b0C"}}