{"cas_no": "5290-62-0", "cn_name": "4-(4-\u6c28\u82ef\u915a)-1-\u8418\u915a", "en_name": ["4-[2-(4-Nitrophenyl)diazenyl]-1-naphthalenol", "1-Naphthalenol, 4-[2-(4-nitrophenyl)diazenyl]-", "1-Naphthol, 4-[(p-nitrophenyl)azo]-", "1-Naphthalenol, 4-[(4-nitrophenyl)azo]-", "4-[2-(4-Nitrophenyl)diazenyl]-1-naphthalenol", "Magneson II", "4-[(p-Nitrophenyl)azo]-1-naphthol", "4-[(4-Nitrophenyl)azo]-1-naphthol", "p-(4-Hydroxy-1-naphthylazo)nitrobenzene", "1-(4-Nitrophenylazo)-4-naphthol", "NSC 5048"], "SMILES": "N(=NC1=CC=C(N(=O)=O)C=C1)C=2C3=C(C(O)=CC2)C=CC=C3", "physical_data": {"Molecular Weight": "293.28", "Molecular Formula": "C16H11N3O3", "Melting Point": "275-278 \u00b0C"}}