{"cas_no": "5290-29-9", "cn_name": "\u4e09\u4e59\u57fa\u4e59\u9170\u6c27\u57fa\u7845\u70f7", "en_name": ["Silanol, 1,1,1-triethyl-, 1-acetate", "Silanol, 1,1,1-triethyl-, 1-acetate", "Silanol, triethyl-, acetate", "Triethylacetoxysilane", "Triethylsilyl acetate", "Acetic acid triethylsilyl ester", "Acetoxytriethylsilane", "Triethyl-1-acetoxysilane"], "SMILES": "[Si](OC(C)=O)(CC)(CC)CC", "physical_data": {"Molecular Weight": "174.31", "Molecular Formula": "C8H18O2Si", "Boiling Point": "173-174 \u00b0C", "Density": "0.893 g/cm\u00b3"}}