{"cas_no": "5290-24-4", "cn_name": "3-\u4e59\u9170\u6c27\u57fa\u4e19\u57fa\u7532\u57fa\u4e8c\u6c2f\u7845\u70f7", "en_name": ["1-Propanol, 3-(dichloromethylsilyl)-, 1-acetate", "1-Propanol, 3-(dichloromethylsilyl)-, 1-acetate", "1-Propanol, 3-(dichloromethylsilyl)-, acetate", "\u03b3-Acetoxypropylmethyldichlorosilane", "(3-Acetoxypropyl)dichloromethylsilane", "3-Acetoxypropyl methyl dichlorosilane"], "SMILES": "C(COC(C)=O)C[Si](C)(Cl)Cl", "physical_data": {"Molecular Weight": "215.15", "Molecular Formula": "C6H12Cl2O2Si", "Boiling Point": "142 \u00b0C @ Press: 73 Torr", "Density": "1.151 g/cm\u00b3 @ Temp: 25 \u00b0C"}}