{"cas_no": "52918-63-5", "cn_name": "\u6eb4\u6c30\u83ca\u916f", "en_name": ["Deltamethrin", "Cyclopropanecarboxylic acid, 3-(2,2-dibromoethenyl)-2,2-dimethyl-, (S)-cyano(3-phenoxyphenyl)methyl ester, (1R,3R)-", "Cyclopropanecarboxylic acid, 3-(2,2-dibromoethenyl)-2,2-dimethyl-, cyano(3-phenoxyphenyl)methyl ester, [1R-[1\u03b1(S*),3\u03b1]]-", "NRDC 161", "Decamethrin", "RU 22974", "FMC 45498", "Decis", "Decamethrine", "K-Othrin", "Deltamethrin", "Cislin", "K-Othrine", "Butox", "RUP 987", "Decis 1.5ULV", "Decis 2.5ULV", "Decis 0.5ULV", "Deltagran", "Crackdown", "Glossinex 200", "K-Obiol", "Phagase 1", "IPO 8831", "New Musigie", "Suspend", "DeltaGard", "Zorcis", "Deltadust", "Decistab", "Decistab TB", "Ezeetab", "Decis Extra", "Ultratec", "Timbertreat DM 5", "Battalion", "Decis Super", "Delta Gold", "Alpha Max", "K-Obiol 2P", "Deltacid", "Decis flow 2.5", "(S)-Cyano(3-phenoxyphenyl)methyl (1R,3R)-3-(2,2-dibromoethenyl)-2,2-dimethylcyclopropanecarboxylate", "AquaK'othrine", "Scalibor", "Pendelta", "K-O Tab", "Vectocid", "Decis Flow", "K-Othrine Flow 25", "Decis 2.5EC", "Spritex antiwasp powder", "Decis Expert", "Delta Gold (insecticide)", "Decis Jet", "K-Othrine Polyzone", "Lamtox", "Harris Scorpion Killer", "Spritex"], "SMILES": "C(OC(C#N)C1=CC(OC2=CC=CC=C2)=CC=C1)(=O)C3C(C=C(Br)Br)C3(C)C", "physical_data": {"Molecular Weight": "505.20", "Molecular Formula": "C22H19Br2NO3", "Melting Point": "101-102 \u00b0C", "Density": "0.5 g/cm\u00b3"}}