{"cas_no": "52914-23-5", "cn_name": "4-\u7898\u82ef\u4e59\u9187", "en_name": ["4-Iodobenzeneethanol", "Benzeneethanol, 4-iodo-", "Phenethyl alcohol, p-iodo-", "4-Iodobenzeneethanol", "p-Iodophenethyl alcohol", "4-Iodophenethyl alcohol", "4-Iodophenylethyl alcohol", "2-(4-Iodophenyl)ethanol", "2-(4-Iodophenyl)ethan-1-ol"], "SMILES": "C(CO)C1=CC=C(I)C=C1", "physical_data": {"Molecular Weight": "248.06", "Molecular Formula": "C8H9IO", "Boiling Point": "110-120 \u00b0C @ Press: 0.5 Torr", "Melting Point": "46-47 \u00b0C"}}