{"cas_no": "5291-32-7", "cn_name": "APR-246", "en_name": ["2-(Hydroxymethyl)-2-(methoxymethyl)-1-azabicyclo[2.2.2]octan-3-one", "1-Azabicyclo[2.2.2]octan-3-one, 2-(hydroxymethyl)-2-(methoxymethyl)-", "3-Quinuclidinone, 2-(hydroxymethyl)-2-(methoxymethyl)-", "2-(Hydroxymethyl)-2-(methoxymethyl)-1-azabicyclo[2.2.2]octan-3-one", "APR 246", "PRIMA 1Met", "Eprenetapopt", "2-(hydroxymethyl)-2-(methoxymethyl)quinuclidin-3-one"], "SMILES": "C(OC)C1(CO)N2CCC(C1=O)CC2", "physical_data": {"Molecular Weight": "199.25", "Molecular Formula": "C10H17NO3", "Melting Point": "115-116 \u00b0C"}}