{"cas_no": "5291-77-0", "cn_name": "N-\u82c4\u57fa\u5421\u54af\u70f7\u916e", "en_name": ["1-Benzyl-2-pyrrolidinone", "2-Pyrrolidinone, 1-(phenylmethyl)-", "2-Pyrrolidinone, 1-benzyl-", "1-(Phenylmethyl)-2-pyrrolidinone", "1-Benzyl-2-pyrrolidinone", "N-Benzylpyrrolidin-2-one", "N-Benzylpyrrolidone", "1-Benzyl-2-pyrrolidone", "N-Benzyl-2-pyrrolidone", "1-Benzylazacyclopentan-2-one", "1-Benzyl-2-oxopyrrolidine", "N-Benzylbutyrolactam", "NSC 30184"], "SMILES": "C(N1C(=O)CCC1)C2=CC=CC=C2", "physical_data": {"Molecular Weight": "175.23", "Molecular Formula": "C11H13NO", "Boiling Point": "122.5-123 \u00b0C @ Press: 2 Torr", "Melting Point": "89 \u00b0C", "Density": "1.0983 g/cm\u00b3 @ Temp: 20 \u00b0C"}}