{"cas_no": "5292-21-7", "cn_name": "\u73af\u5df1\u57fa\u4e59\u9178", "en_name": ["Cyclohexaneacetic acid", "Cyclohexaneacetic acid", "Cyclohexylacetic acid", "NCI 204816", "2-Cyclohexylacetic acid", "NSC 2159"], "SMILES": "C(C(O)=O)C1CCCCC1", "physical_data": {"Molecular Weight": "142.20", "Molecular Formula": "C8H14O2", "Boiling Point": "245 \u00b0C", "Melting Point": "33 \u00b0C", "Density": "0.985 g/cm\u00b3 @ Temp: 22 \u00b0C"}}