{"cas_no": "5292-45-5", "cn_name": "2-\u785d\u57fa\u5bf9\u82ef\u4e8c\u7532\u9178\u4e8c\u7532\u916f", "en_name": ["1,4-Benzenedicarboxylic acid, 2-nitro-, 1,4-dimethyl ester", "1,4-Benzenedicarboxylic acid, 2-nitro-, 1,4-dimethyl ester", "Terephthalic acid, nitro-, dimethyl ester", "1,4-Benzenedicarboxylic acid, 2-nitro-, dimethyl ester", "Dimethyl nitroterephthalate", "Dimethyl 2-nitroterephthalate", "Dimethyl 2-nitro-1,4-benzenedicarboxylate", "Dimethyl o-nitroterephthalate", "NSC 5056", "1,4-Dimethyl 2-nitrobenzene-1,4-dicarboxylate", "1-Nitrobenzene-2,5-dicarboxylic acid dimethyl ester"], "SMILES": "C(OC)(=O)C1=C(N(=O)=O)C=C(C(OC)=O)C=C1", "physical_data": {"Molecular Weight": "239.18", "Molecular Formula": "C10H9NO6", "Melting Point": "142 \u00b0C"}}