{"cas_no": "5292-43-3", "cn_name": "\u6eb4\u4e59\u9178\u53d4\u4e01\u916f", "en_name": ["tert-Butyl bromoacetate", "Acetic acid, 2-bromo-, 1,1-dimethylethyl ester", "Acetic acid, bromo-, tert-butyl ester", "Acetic acid, bromo-, 1,1-dimethylethyl ester", "tert-Butyl bromoacetate", "tert-Butyl \u03b1-bromoacetate", "1,1-Dimethylethyl bromoacetate", "1,1-Dimethylethyl monobromoacetate", "Bromoacetic acid tert-butyl ester", "tert-Butyl 2-bromoacetate", "1,1-Dimethylethyl 2-bromoacetate", "NSC 82470", "Bromoacetic acid 1,1-dimethylethyl ester", "2-Bromoacetic acid tert-butyl ester", "t-Butyl bromoacetate", "tert-Butyl 2-bromoethanoate"], "SMILES": "O(C(C)(C)C)C(CBr)=O", "physical_data": {"Molecular Weight": "195.05", "Molecular Formula": "C6H11BrO2", "Boiling Point": "50 \u00b0C @ Press: 10 Torr", "Melting Point": "44-47 \u00b0C"}}