{"cas_no": "5292-53-5", "cn_name": "\u4e9a\u82ef\u7532\u57fa\u4e19\u4e8c\u9178\u4e8c\u4e59\u916f", "en_name": ["Diethyl benzylidenemalonate", "Propanedioic acid, 2-(phenylmethylene)-, 1,3-diethyl ester", "Malonic acid, benzylidene-, diethyl ester", "Propanedioic acid, (phenylmethylene)-, diethyl ester", "Diethyl benzylidenemalonate", "Diethyl benzalmalonate", "Benzylidenemalonic acid diethyl ester", "Ethyl benzylidenemalonate", "Diethyl (phenylmethylene)malonate", "\u03b2,\u03b2-Diethoxycarbonylstyrene", "(Phenylmethylene)propanedioic acid diethyl ester", "NSC 1272", "Diethyl 2-benzylidenemalonate", "Diethyl benzylidenepropanedioate", "1,3-Diethyl 2-(phenylmethylidene)propanedioate"], "SMILES": "C(C(OCC)=O)(C(OCC)=O)=CC1=CC=CC=C1", "physical_data": {"Molecular Weight": "248.27", "Molecular Formula": "C14H16O4", "Boiling Point": "216 \u00b0C", "Melting Point": "32 \u00b0C", "Density": "1.0528 g/cm\u00b3 @ Temp: 84 \u00b0C"}}