{"cas_no": "5292-47-7", "cn_name": "\u4e8c\u6c1f-\u5bf9\u82ef\u4e8c\u9178\u4e8c\u7532\u916f", "en_name": ["1,4-Benzenedicarboxylic acid, 2-fluoro-, 1,4-dimethyl ester", "1,4-Benzenedicarboxylic acid, 2-fluoro-, 1,4-dimethyl ester", "Terephthalic acid, fluoro-, dimethyl ester", "1,4-Benzenedicarboxylic acid, 2-fluoro-, dimethyl ester", "Dimethyl 2-fluoroterephthalate", "1,4-Dimethyl 2-fluorobenzene-1,4-dicarboxylate"], "SMILES": "C(OC)(=O)C1=C(F)C=C(C(OC)=O)C=C1", "physical_data": {"Molecular Weight": "212.17", "Molecular Formula": "C10H9FO4", "Melting Point": "82-83 \u00b0C"}}