{"cas_no": "52927-23-8", "cn_name": "5-\u6eb4-1-\u8418\u915a", "en_name": ["5-Bromo-1-naphthalenol", "1-Naphthalenol, 5-bromo-", "5-Bromo-1-naphthalenol", "5-Bromo-1-naphthol", "1-Bromo-5-hydroxynaphthalene"], "SMILES": "BrC=1C2=C(C(O)=CC=C2)C=CC1", "physical_data": {"Molecular Weight": "223.07", "Molecular Formula": "C10H7BrO", "Melting Point": "137 \u00b0C"}}