{"cas_no": "52938-99-5", "cn_name": "5-(4-\u7532\u6c27\u82ef\u57fa)-2-\u7ce0\u9178", "en_name": ["5-(4-Methoxyphenyl)-2-furancarboxylic acid", "2-Furancarboxylic acid, 5-(4-methoxyphenyl)-", "5-(4-Methoxyphenyl)-2-furancarboxylic acid", "5-(p-Methoxyphenyl)-2-furancarboxylic acid", "5-(4-Methoxyphenyl)furan-2-carboxylic acid"], "SMILES": "C(O)(=O)C=1OC(=CC1)C2=CC=C(OC)C=C2", "physical_data": {"Molecular Weight": "218.21", "Molecular Formula": "C12H10O4", "Melting Point": "187-188 \u00b0C"}}