{"cas_no": "5293-84-5", "cn_name": "(\u6c2f\u7532\u57fa)\u4e09\u82ef\u57fa\u6c2f\u5316\u78f7", "en_name": ["Phosphonium, (chloromethyl)triphenyl-, chloride (1:1)", "Phosphonium, (chloromethyl)triphenyl-, chloride (1:1)", "Phosphonium, (chloromethyl)triphenyl-, chloride", "(Chloromethyl)triphenylphosphonium chloride", "NSC 93980"], "SMILES": "[P+](CCl)(C1=CC=CC=C1)(C2=CC=CC=C2)C3=CC=CC=C3.[Cl-]", "physical_data": {"Molecular Weight": "", "Molecular Formula": "C19H17ClP.Cl", "Melting Point": "256-258 \u00b0C"}}