{"cas_no": "52939-06-7", "cn_name": "5-(4-\u6c28\u57fa\u82ef\u57fa)\u544b\u5583-2-\u7fa7\u9178\u7532\u916f", "en_name": ["Methyl 5-(4-aminophenyl)-2-furancarboxylate", "2-Furancarboxylic acid, 5-(4-aminophenyl)-, methyl ester", "Methyl 5-(4-aminophenyl)-2-furancarboxylate", "Methyl 5-(4-aminophenyl)furan-2-carboxylate"], "SMILES": "C(OC)(=O)C=1OC(=CC1)C2=CC=C(N)C=C2", "physical_data": {"Molecular Weight": "217.22", "Molecular Formula": "C12H11NO3", "Melting Point": "125-126 \u00b0C"}}