{"cas_no": "5293-83-4", "cn_name": "(\u7f9f\u57fa\u7532\u57fa)\u4e09\u82ef\u57fa\u6c2f\u5316\u93fb", "en_name": ["Phosphonium, (hydroxymethyl)triphenyl-, chloride (1:1)", "Phosphonium, (hydroxymethyl)triphenyl-, chloride (1:1)", "Phosphonium, (hydroxymethyl)triphenyl-, chloride", "(Hydroxymethyl)triphenylphosphonium chloride", "NSC 221281"], "SMILES": "[P+](CO)(C1=CC=CC=C1)(C2=CC=CC=C2)C3=CC=CC=C3.[Cl-]", "physical_data": {"Molecular Weight": "", "Molecular Formula": "C19H18OP.Cl", "Melting Point": "190-192 \u00b0C"}}