{"cas_no": "52943-21-2", "cn_name": "2-\u6c2f-N,N-\u4e8c\u7532\u57fa-3-\u5421\u5576\u7532\u9170\u80fa", "en_name": ["2-Chloro-N,N-dimethyl-3-pyridinecarboxamide", "3-Pyridinecarboxamide, 2-chloro-N,N-dimethyl-", "2-Chloro-N,N-dimethyl-3-pyridinecarboxamide", "2-Chloro-N,N-dimethylnicotinamide", "N,N-Dimethyl-2-chloronicotinamide"], "SMILES": "C(N(C)C)(=O)C1=C(Cl)N=CC=C1", "physical_data": {"Molecular Weight": "184.62", "Molecular Formula": "C8H9ClN2O", "Melting Point": "69.10 \u00b0C"}}