{"cas_no": "5294-61-1", "cn_name": "N-(2,6-\u4e8c\u7532\u57fa\u82ef\u57fa)-1-\u54cc\u55ea\u4e59\u9170\u80fa", "en_name": ["4-[(2,6-Dimethylphenyl)aminocarbonylmethyl]piperazine", "1-Piperazineacetamide, N-(2,6-dimethylphenyl)-", "1-Piperazineaceto-2\u2032,6\u2032-xylidide", "N-(2,6-Dimethylphenyl)-1-piperazineacetamide", "RS 94287", "N-(2,6-Dimethylphenyl)-2-piperazinylacetamide", "4-[(2,6-Dimethylphenyl)aminocarbonylmethyl]piperazine", "N-(2,6-Dimethylphenyl)-2-(1-piperazinyl)acetamide"], "SMILES": "N(C(CN1CCNCC1)=O)C2=C(C)C=CC=C2C", "physical_data": {"Molecular Weight": "247.34", "Molecular Formula": "C14H21N3O", "Melting Point": "110-114 \u00b0C"}}