{"cas_no": "52962-25-1", "cn_name": "2-\u7fa7\u7532\u57fa-5-\u7532\u6c27\u57fa\u82ef\u7532\u9178", "en_name": ["2-Carboxy-4-methoxybenzeneacetic acid", "Benzeneacetic acid, 2-carboxy-4-methoxy-", "m-Anisic acid, 6-(carboxymethyl)-", "2-Carboxy-4-methoxybenzeneacetic acid", "4-Methoxyhomophthalic acid", "2-Carboxymethyl-5-methoxybenzoic acid"], "SMILES": "C(C(O)=O)C1=C(C(O)=O)C=C(OC)C=C1", "physical_data": {"Molecular Weight": "210.18", "Molecular Formula": "C10H10O5", "Melting Point": "188 \u00b0C"}}