{"cas_no": "5296-64-0", "cn_name": "\u70ef\u4e19\u6c27\u57fa\u82ef\u786b\u915a", "en_name": ["(2-Propen-1-ylthio)benzene", "Benzene, (2-propen-1-ylthio)-", "Sulfide, allyl phenyl", "Benzene, (2-propenylthio)-", "(2-Propen-1-ylthio)benzene", "Allyl phenyl sulfide", "Allyl phenyl thioether", "Phenyl allyl thioether", "Phenyl allyl sulfide", "(2-Propenylthio)benzene", "Allyl(phenyl)sulfane", "3-(Phenylthio)-1-propene", "Phenyl 2-propenyl sulfide", "Prop-2-enylthiobenzene", "(Prop-2-en-1-ylsulfanyl)benzene", "Allylthiobenzene"], "SMILES": "S(CC=C)C1=CC=CC=C1", "physical_data": {"Molecular Weight": "150.24", "Molecular Formula": "C9H10S", "Boiling Point": "48-49 \u00b0C @ Press: 0.43 Torr", "Melting Point": "-48--46.5 \u00b0C", "Density": "1.0220 g/cm\u00b3 @ Temp: 25 \u00b0C"}}