{"cas_no": "52980-20-8", "cn_name": "4,4'-(1,3-\u4e19\u4e8c\u6c27\u57fa)\u4e8c\u82ef\u80fa", "en_name": ["1,3-Bis(4-aminophenoxy)propane", "Benzenamine, 4,4\u2032-[1,3-propanediylbis(oxy)]bis-", "Aniline, 4,4\u2032-(trimethylenedioxy)di-", "4,4\u2032-[1,3-Propanediylbis(oxy)]bis[benzenamine]", "1,3-Bis(4-aminophenoxy)propane", "4-[3-(4-Aminophenoxy)propoxy]aniline"], "SMILES": "O(CCCOC1=CC=C(N)C=C1)C2=CC=C(N)C=C2", "physical_data": {"Molecular Weight": "258.32", "Molecular Formula": "C15H18N2O2", "Melting Point": "108-109 \u00b0C"}}