{"cas_no": "52980-28-6", "cn_name": "4-\u6c27\u4ee3-1H-\u55b9\u5549-3-\u7532\u9178\u4e59\u916f", "en_name": ["Ethyl 4-oxo-1,4-dihydroquinoline-3-carboxylate", "3-Quinolinecarboxylic acid, 1,4-dihydro-4-oxo-, ethyl ester", "3-Ethoxycarbonyl-4(1H)-quinolone", "4-Oxo-1,4-dihydroquinoline-3-carboxylic acid ethyl ester", "Ethyl 1,4-dihydro-4-oxoquinoline-3-carboxylate", "Ethyl 4-oxo-1,4-dihydroquinoline-3-carboxylate", "1,4-Dihydro-4-oxo-3-quinolinecarboxylic Acid Ethyl Ester"], "SMILES": "O=C1C=2C(NC=C1C(OCC)=O)=CC=CC2", "physical_data": {"Molecular Weight": "217.22", "Molecular Formula": "C12H11NO3", "Melting Point": "&gt;250 \u00b0C"}}