{"cas_no": "5299-60-5", "cn_name": "6-\u7f9f\u57fa\u5df1\u9178\u4e59\u916f", "en_name": ["Ethyl 6-hydroxyhexanoate", "Hexanoic acid, 6-hydroxy-, ethyl ester", "Ethyl 6-hydroxycaproate", "Ethyl \u03b5-hydroxycaproate", "Ethyl 6-hydroxyhexanoate", "5-Ethoxycarbonylpentan-1-ol", "6-Hydroxyhexanoic acid ethyl ester", "NSC 617304"], "SMILES": "C(CCCCCO)(OCC)=O", "physical_data": {"Molecular Weight": "160.21", "Molecular Formula": "C8H16O3", "Boiling Point": "134 \u00b0C @ Press: 15 Torr"}}