{"cas_no": "52997-43-0", "cn_name": "1-\u6eb4-2-\u5df1\u57fa\u7678\u70f7", "en_name": ["7-(Bromomethyl)pentadecane", "Pentadecane, 7-(bromomethyl)-", "7-(Bromomethyl)pentadecane", "2-Hexyldecyl bromide", "1-Bromo-2-hexyl-decane", "2-Hexyl-1-bromodecane"], "SMILES": "C(CCCCCCCC)(CCCCCC)CBr", "physical_data": {"Molecular Weight": "305.34", "Molecular Formula": "C16H33Br", "Boiling Point": "114-118 \u00b0C @ Press: 0.5 Torr"}}