{"cas_no": "53-00-9", "cn_name": "7-\u7f9f\u57fa\u53bb\u6c22\u8868\u96c4\u916e", "en_name": ["7\u03b1-Hydroxy-DHEA", "Androst-5-en-17-one, 3,7-dihydroxy-, (3\u03b2,7\u03b1)-", "Androst-5-en-17-one, 3\u03b2,7\u03b1-dihydroxy-", "(3\u03b2,7\u03b1)-3,7-Dihydroxyandrost-5-en-17-one", "7\u03b1-Hydroxydehydroepiandrosterone", "3\u03b2,7\u03b1-Dihydroxy-5-androsten-17-one", "3\u03b2,7\u03b1-Dihydroxy-5-androstene-17-one", "7\u03b1-Hydroxydehydroisoandrosterone", "(-)-7\u03b1-Hydroxydehydroepiandrosterone", "7-\u03b1-OH-DHEA", "7\u03b1-Hydroxy-DHEA"], "SMILES": "CC12C3C(C4C(C)(CC3)C(=O)CC4)C(O)C=C1CC(O)CC2", "physical_data": {"Molecular Weight": "304.42", "Molecular Formula": "C19H28O3", "Melting Point": "181.5-183.5 \u00b0C"}}