{"cas_no": "53-06-5", "cn_name": "\u53ef\u7684\u677e", "en_name": ["Cortisone", "Pregn-4-ene-3,11,20-trione, 17,21-dihydroxy-", "Cortisone", "17,21-Dihydroxypregn-4-ene-3,11,20-trione", "Adrenalex", "Compound E (cortisone)", "Cortisate", "Cortivite", "Cortogen", "Cortone", "11-Dehydro-17-hydroxycorticosterone", "17\u03b1,21-Dihydroxy-4-pregnene-3,11,20-trione", "17-Hydroxy-11-dehydrocorticosterone", "17\u03b1-Hydroxy-11-dehydrocorticosterone", "KE", "Kendall's compound E", "Pregn-4-en-17\u03b1,21-diol-3,11,20-trione", "\u03944-Pregnene-17\u03b1,21-diol-3,11,20-trione", "Reichstein's substance Fa", "Wintersteiner's compound F", "17\u03b1,21\u03b2-Dihydroxy-4-pregnene-3,11,20-trione", "NSC 9703", "14: PN: US20220380460 SEQID: 15 claimed sequence", "MeSH ID: D003348"], "SMILES": "CC12C(C3C(C4(C)C(CC3)=CC(=O)CC4)C(=O)C1)CCC2(C(CO)=O)O", "physical_data": {"Molecular Weight": "360.44", "Molecular Formula": "C21H28O5", "Melting Point": "222 \u00b0C"}}