{"cas_no": "53-02-1", "cn_name": "\u6c27\u620a\u73af", "en_name": ["Tetrahydrocortisol", "Pregnan-20-one, 3,11,17,21-tetrahydroxy-, (3\u03b1,5\u03b2,11\u03b2)-", "5\u03b2-Pregnan-20-one, 3\u03b1,11\u03b2,17,21-tetrahydroxy-", "(3\u03b1,5\u03b2,11\u03b2)-3,11,17,21-Tetrahydroxypregnan-20-one", "Cortisol, tetrahydro-", "5\u03b2-Pregnane-3\u03b1,11\u03b2,17\u03b1,21-tetrol-20-one", "Tetrahydrocompound F", "Tetrahydrocortisol", "5\u03b2-Tetrahydrocortisol", "Urocortisol", "Ba 2682", "3\u03b1,11\u03b2,17,21-Tetrahydroxy-5\u03b2-pregnan-20-one", "3\u03b1,11\u03b2,17\u03b1,21-Tetrahydroxy-5\u03b2-pregnan-20-one", "Tetrahydrohydrocortisone", "Tetrahydro F", "3\u03b1,11\u03b2,17,21-Tetrol-5\u03b2-pregnan-20-one", "NSC 57431", "THF (hormone)", "MeSH ID: D013760"], "SMILES": "CC12C(C3C(C4(C)C(CC3)CC(O)CC4)C(O)C1)CCC2(C(CO)=O)O", "physical_data": {"Molecular Weight": "366.49", "Molecular Formula": "C21H34O5", "Melting Point": "215-217 \u00b0C"}}