{"cas_no": "53-03-2", "cn_name": "\u6cfc\u5c3c\u677e", "en_name": ["Prednisone", "Pregna-1,4-diene-3,11,20-trione, 17,21-dihydroxy-", "17,21-Dihydroxypregna-1,4-diene-3,11,20-trione", "Ancortone", "Bicortone", "Colisone", "\u03941-Cortisone", "Dacortin", "Decortancyl", "Decortisyl", "\u03941-Dehydrocortisone", "1-Dehydrocortisone", "Dekortin", "Delta E", "Delta-Cortelan", "Deltacortisone", "Deltacortone", "Deltasone", "Deltisone", "Deltra", "Di-Adreson", "17\u03b1,21-Dihydroxy-1,4-pregnadiene-3,11,20-trione", "Encortone", "Enkorton", "Hostacortin", "Metacortandracin", "Meticorten", "Paracort", "Prednisone", "1,4-Pregnadiene-17\u03b1,21-diol-3,11,20-trione", "Supercortil", "Ultracorten", "Ultracortene", "Encorton", "1,2-Dehydrocortisone", "Dehydrocortisone", "\u0394-Cortisone", "17,21-Dihydroxypregn-1,4-diene-3,11,20-trione", "NSC 10023", "Cortidelt", "Prednison", "Deltison", "Rectodelt", "Prednitone", "Me-Korti", "Prednicorm", "Cartancyl", "Uniplen", "Prednicort", "Liquid Pred", "Pehacort", "Adasone", "Drazone", "Apo-Prednisone", "Winpred", "Econosone", "Fernisone", "Delta-Dome", "Nisona", "Deltisona", "Panafcort", "Prednicot", "Deltacortene", "Dacorten", "Prednidib", "Sterapred", "Cordrol", "Prednicen M", "Panasol", "Predniment", "Cortan", "Dellacort", "Dellacort A", "Sone", "Orasone", "Delcortin", "Decortin", "Parmenison", "Pulmison", "Nurison", "Retrocortine", "Pronison", "Prednilonga", "17\u03b1,21-Dihydroxypregn-1,4-dien-3,11,20-trione", "Prednidone", "MeSH ID: D011241"], "SMILES": "CC12C(C3C(C4(C)C(CC3)=CC(=O)C=C4)C(=O)C1)CCC2(C(CO)=O)O", "physical_data": {"Molecular Weight": "358.43", "Molecular Formula": "C21H26O5", "Melting Point": "234 \u00b0C (decomp)"}}