{"cas_no": "53-16-7", "cn_name": "\u96cc\u915a\u916e", "en_name": ["Estrone", "Estra-1,3,5(10)-trien-17-one, 3-hydroxy-", "Estrone", "3-Hydroxyestra-1,3,5(10)-trien-17-one", "Aquacrine", "Crinovaryl", "Cristallovar", "Crystogen", "Destrone", "Disynformon", "Endofolliculina", "1,3,5(10)-Estratrien-3-ol-17-one", "Estrugenone", "Estrusol", "Femestrone injection", "Femidyn", "Folikrin", "Folipex", "Folisan", "Follestrine", "Follicular hormone", "Folliculin", "Follicunodis", "Follidrin", "Glandubolin", "Hiestrone", "Hormofollin", "Hormovarine", "3-Hydroxy-17-keto-estra-1,3,5-triene", "Kestrone", "Ketodestrin", "Ketohydroxyestrin", "Kolpon", "Menagen", "Menformon", "Oestrin", "Oestroform", "Oestrone", "Oestroperos", "Ovifollin", "Perlatan", "Solliculin", "Theelin", "Thelykinin", "Thynestron", "Wynestron", "Unden", "3-Hydroxyoestra-1,3,5(10)-trien-17-one", "3-Hydroxyestra-1,3,5(10)-triene-17-one", "Estrovarin", "Estron", "Tokokin", "Follestrol", "\u03941,3,5(10)-Estratrien-3-ol-17-one", "(+)-Estrone", "Femestrone Inj.", "Thelestrin", "Fermidyn", "NSC 9699", "Folliculin (steroid)", "WAY 164397", "Folliculinum", "(8R,9S,13S,14S)-3-Hydroxy-13-methyl-6,7,8,9,11,12,13,14,15,16-decahydro-17H-cyclopenta[a]phenanthren-17-one", "MeSH ID: D004970"], "SMILES": "CC12C(C3C(C=4C(CC3)=CC(O)=CC4)CC1)CCC2=O", "physical_data": {"Molecular Weight": "270.37", "Molecular Formula": "C18H22O2", "Boiling Point": "154 \u00b0C", "Melting Point": "260.2 \u00b0C", "Density": "1.236 g/cm\u00b3 @ Temp: 25 \u00b0C"}}