{"cas_no": "53-19-0", "cn_name": "\u7c73\u6258\u5766", "en_name": ["Mitotane", "Benzene, 1-chloro-2-[2,2-dichloro-1-(4-chlorophenyl)ethyl]-", "Ethane, 1,1-dichloro-2-(o-chlorophenyl)-2-(p-chlorophenyl)-", "1-Chloro-2-[2,2-dichloro-1-(4-chlorophenyl)ethyl]benzene", "1-(2-Chlorophenyl)-1-(4-chlorophenyl)-2,2-dichloroethane", "o,p\u2032-DDD", "Mitotane", "o,p\u2032-TDE", "1,1-Dichloro-2-(o-chlorophenyl)-2-(p-chlorophenyl)ethane", "Chlodithane", "1-(o-Chlorophenyl)-1-(p-chlorophenyl)-2,2-dichloroethane", "2-(p-Chlorophenyl)-2-(o-chlorophenyl)-1,1-dichloroethane", "o,p\u2032-Dichlorodiphenyldichloroethane", "Chloditan", "2,4\u2032-Dichlorodiphenyldichloroethane", "Lysodren", "Mitotan", "CB 313", "NSC 38721", "2-(2-Chlorophenyl)-2-(4-chlorophenyl)-1,1-dichloroethane", "Opeprim", "1-(2\u2032-Chlorophenyl)-1-(4\u2032-chlorophenyl)-2,2-dichloroethane", "1-Chloro-4-[2,2-dichloro-1-(2-chlorophenyl)ethyl]benzene", "MeSH ID: D008939"], "SMILES": "C(C(Cl)Cl)(C1=C(Cl)C=CC=C1)C2=CC=C(Cl)C=C2", "physical_data": {"Molecular Weight": "320.04", "Molecular Formula": "C14H10Cl4", "Melting Point": "76-78 \u00b0C"}}