{"cas_no": "53-35-0", "cn_name": "6\u0392-\u7f9f\u57fa\u53ef\u7684\u677e", "en_name": ["6\u03b2-Hydroxycortisol", "Pregn-4-ene-3,20-dione, 6,11,17,21-tetrahydroxy-, (6\u03b2,11\u03b2)-", "Pregn-4-ene-3,20-dione, 6\u03b2,11\u03b2,17,21-tetrahydroxy-", "Corticosterone, 6\u03b2,17-dihydroxy-", "(6\u03b2,11\u03b2)-6,11,17,21-Tetrahydroxypregn-4-ene-3,20-dione", "6\u03b2-Hydroxycortisol", "6\u03b2,11\u03b2,17\u03b1,21-Tetrahydroxypregn-4-ene-3,20-dione", "6\u03b2,11\u03b2,17\u03b1,21-Tetrahydroxy-4-pregen-3,20-dione", "6\u03b2,11\u03b2,17\u03b1,21-Tetrahydroxypregn-4-en-3,20-dione", "6\u03b2,17-Dihydroxycorticosterone", "NSC 76163"], "SMILES": "CC12C(C3C(C4(C)C(C(O)C3)=CC(=O)CC4)C(O)C1)CCC2(C(CO)=O)O", "physical_data": {"Molecular Weight": "378.46", "Molecular Formula": "C21H30O6", "Melting Point": "239-241 \u00b0C"}}