{"cas_no": "53-34-9", "cn_name": "\u6c1f\u6cfc\u5c3c\u9f99", "en_name": ["Fluprednisolone", "Pregna-1,4-diene-3,20-dione, 6-fluoro-11,17,21-trihydroxy-, (6\u03b1,11\u03b2)-", "Pregna-1,4-diene-3,20-dione, 6\u03b1-fluoro-11\u03b2,17,21-trihydroxy-", "(6\u03b1,11\u03b2)-6-Fluoro-11,17,21-trihydroxypregna-1,4-diene-3,20-dione", "U 7800", "Alphadrol", "Etadrol", "6\u03b1-Fluoro-11\u03b2,17,21-trihydroxypregna-1,4-diene-3,20-dione", "Fluprednisolone", "6\u03b1-Fluoroprednisolone", "6\u03b1-Fluoro-11\u03b2,17\u03b1,21-trihydroxypregna-1,4-diene-3,20-dione", "F. I. 6150", "Vladicort", "NSC 47439", "Fuprednisolone", "MeSH ID: D005477"], "SMILES": "CC12C(C3C(C4(C)C(C(F)C3)=CC(=O)C=C4)C(O)C1)CCC2(C(CO)=O)O", "physical_data": {"Molecular Weight": "378.43", "Molecular Formula": "C21H27FO5", "Melting Point": "208-213 \u00b0C"}}