{"cas_no": "53-39-4", "cn_name": "\u6c27\u7532\u6c22\u9f99", "en_name": ["17\u03b2-Hydroxy-17-methyl-2-oxa-5\u03b1-androstan-3-one", "Cyclopenta[5,6]naphtho[1,2-c]pyran-2(1H)-one, tetradecahydro-7-hydroxy-4a,6a,7-trimethyl-, (4aS,4bS,6aS,7S,9aS,9bR,11aS)-", "2-Oxa-5\u03b1-androstan-3-one, 17\u03b2-hydroxy-17-methyl-", "2-Oxaandrostan-3-one, 17-hydroxy-17-methyl-, (5\u03b1,17\u03b2)-", "(4aS,4bS,6aS,7S,9aS,9bR,11aS)-Tetradecahydro-7-hydroxy-4a,6a,7-trimethylcyclopenta[5,6]naphtho[1,2-c]pyran-2(1H)-one", "SC 11585", "Anavar", "17-Methyl-2-oxa-5\u03b1-androstan-17\u03b2-ol-3-one", "Oxandrolone", "17\u03b2-Hydroxy-17-methyl-2-oxa-5\u03b1-androstan-3-one", "17\u03b2-Hydroxy-17\u03b1-methyl-2-oxa-5\u03b1-androstan-3-one", "Vasorome", "8075CB", "Protivar", "Oxandrin", "Oxandren", "Lonavar", "NSC 67068", "Provitar", "(17\u03b2)-Oxandrolone", "MeSH ID: D010074"], "SMILES": "CC12C3C(C4C(C)(CC3)C(C)(O)CC4)CCC1CC(=O)OC2", "physical_data": {"Molecular Weight": "306.44", "Molecular Formula": "C19H30O3", "Melting Point": "235-238 \u00b0C"}}