{"cas_no": "53-36-1", "cn_name": "\u7532\u57fa\u6cfc\u5c3c\u677e\u9f99\u918b\u9178\u916f", "en_name": ["Methylprednisolone acetate", "Pregna-1,4-diene-3,20-dione, 21-(acetyloxy)-11,17-dihydroxy-6-methyl-, (6\u03b1,11\u03b2)-", "Pregna-1,4-diene-3,20-dione, 11\u03b2,17,21-trihydroxy-6\u03b1-methyl-, 21-acetate", "(6\u03b1,11\u03b2)-21-(Acetyloxy)-11,17-dihydroxy-6-methylpregna-1,4-diene-3,20-dione", "Depo-Medrol", "Medrol acetate", "6\u03b1-Methylprednisolone acetate", "Urbason Crystal Suspension", "MPA", "Methylprednisolone acetate", "U 8210", "Methylprednisolone 21-acetate", "6\u03b1-Methylprednisolone 21-acetate", "21-Acetoxy-11\u03b2,17-dihydroxy-6\u03b1-methylpregna-1,4-diene-3,20-dione", "Depo-methylprednisolone", "6-Methylprednisolone acetate", "Depo-Medrate", "Depo-Medrone", "DepMedalone 40", "Vetacortyl", "DepMedalone 80", "Mepred", "NSC 48985", "11\u03b2,17\u03b1,21-Trihydroxy-6\u03b1-methylpregna-1,4-diene-3,20-dione 21-acetate"], "SMILES": "CC12C(C3C(C4(C)C(C(C)C3)=CC(=O)C=C4)C(O)C1)CCC2(C(COC(C)=O)=O)O", "physical_data": {"Molecular Weight": "416.51", "Molecular Formula": "C24H32O6", "Melting Point": "205-208 \u00b0C"}}