{"cas_no": "53-41-8", "cn_name": "\u96c4\u916e", "en_name": ["Androsterone", "Androstan-17-one, 3-hydroxy-, (3\u03b1,5\u03b1)-", "Androsterone", "(3\u03b1,5\u03b1)-3-Hydroxyandrostan-17-one", "5\u03b1-Androsterone", "3-Epihydroxyetioallocholan-17-one", "3\u03b1-Hydroxy-5\u03b1-androstan-17-one", "3\u03b1-Hydroxy-17-androstanone", "3\u03b1-Hydroxyetioallocholan-17-one", "Atromide ICI", "3\u03b1-Hydroxy-5\u03b1-androstane-17-one", "5\u03b1-Androstane-3\u03b1-ol-17-one", "5\u03b1-Androstan-3\u03b1-ol-17-one", "Androkinin", "Androtin", "U 60366", "NSC 9898", "5\u03b1-Androstan-17-one-3\u03b1-ol", "MeSH ID: D000738"], "SMILES": "CC12C3C(C4C(C)(CC3)C(=O)CC4)CCC1CC(O)CC2", "physical_data": {"Molecular Weight": "290.44", "Molecular Formula": "C19H30O2", "Melting Point": "185 \u00b0C", "Density": "1.164 g/cm\u00b3"}}