{"cas_no": "53-43-0", "cn_name": "\u53bb\u6c22\u8868\u96c4\u916e", "en_name": ["Dehydroepiandrosterone", "Androst-5-en-17-one, 3-hydroxy-, (3\u03b2)-", "Androst-5-en-17-one, 3\u03b2-hydroxy-", "(3\u03b2)-3-Hydroxyandrost-5-en-17-one", "17-Chetovis", "trans-Dehydroandrosterone", "Dehydroepiandrosterone", "Dehydroisoandrosterone", "DHA", "DHEA", "17-Hormoforin", "3\u03b2-Hydroxyandrost-5-ene-17-one", "3\u03b2-Hydroxy-\u03945-androsten-17-one", "3\u03b2-Hydroxyandrost-5-en-17-one", "Androstenolone", "Androst-5-ene-3\u03b2-ol-17-one", "5-Androsten-3\u03b2-ol-17-one", "5-Dehydroepiandrosterone", "5,6-Dehydroisoandrosterone", "5,6-Didehydroisoandrosterone", "Prasterone", "Psicosterone", "Diandron", "Diandrone", "Dehydro-epi-androsterone", "\u03945-Androsten-3\u03b2-ol-17-one", "IM 28", "GL 701", "Astenile", "Deandros", "Siscelar plus", "NSC 9896", "Androst-5-ene-17-one-3\u03b2-ol", "Immunor", "Intrarosa", "EM 760", "MeSH ID: D003687"], "SMILES": "CC12C3C(C4C(C)(CC3)C(=O)CC4)CC=C1CC(O)CC2", "physical_data": {"Molecular Weight": "288.42", "Molecular Formula": "C19H28O2", "Melting Point": "140-141 \u00b0C"}}