{"cas_no": "53-42-9", "cn_name": "3a-\u7f9f\u57fa-5b-\u96c4\u753e\u70f7-17-\u916e", "en_name": ["Etiocholanolone", "Androstan-17-one, 3-hydroxy-, (3\u03b1,5\u03b2)-", "5\u03b2-Androstan-17-one, 3\u03b1-hydroxy-", "(3\u03b1,5\u03b2)-3-Hydroxyandrostan-17-one", "5\u03b2-Androstan-3\u03b1-ol-17-one", "5\u03b2-Androsterone", "Etiocholanolone", "3\u03b1-Hydroxy-5\u03b2-androstane-17-one", "3\u03b1-Hydroxy-5\u03b2-androstan-17-one", "5-Isoandrosterone", "Etiocholan-3\u03b1-ol-17-one", "Aetiocholanolone", "3\u03b1-Etiocholanolone", "5\u03b2-Androstane-3\u03b1-ol-17-one", "NSC 50908", "\u03b1-Etiocholanolone", "MeSH ID: D005043"], "SMILES": "CC12C3C(C4C(C)(CC3)C(=O)CC4)CCC1CC(O)CC2", "physical_data": {"Molecular Weight": "290.44", "Molecular Formula": "C19H30O2", "Melting Point": "138.5-139.5 \u00b0C"}}