{"cas_no": "53-60-1", "cn_name": "\u76d0\u9178\u4e19\u55ea", "en_name": ["Promazine hydrochloride", "10H-Phenothiazine-10-propanamine, N,N-dimethyl-, hydrochloride (1:1)", "Phenothiazine, 10-[3-(dimethylamino)propyl]-, monohydrochloride", "10H-Phenothiazine-10-propanamine, N,N-dimethyl-, monohydrochloride", "10-(\u03b3-Dimethylamino-n-propyl)phenothiazine hydrochloride", "Promazine hydrochloride", "Esparinal", "Sparine", "Promazine monohydrochloride", "Propazin (pharmaceutical)", "Propazine", "Propazin", "Promwill", "Talofen", "Liranol", "Prolactyl", "Prozine"], "SMILES": "C(CCN(C)C)N1C=2C(SC=3C1=CC=CC3)=CC=CC2.Cl", "physical_data": {"Molecular Weight": "", "Molecular Formula": "C17H20N2S.ClH", "Melting Point": "181 \u00b0C (decomp)"}}