{"cas_no": "53-79-2", "cn_name": "\u560c\u5464\u9709\u7d20\u4e8c\u76d0\u9178\u76d0\u6c34\u5408\u7269", "en_name": ["Puromycin", "Adenosine, 3\u2032-[[(2S)-2-amino-3-(4-methoxyphenyl)-1-oxopropyl]amino]-3\u2032-deoxy-N,N-dimethyl-", "Adenosine, 3\u2032-(\u03b1-amino-p-methoxyhydrocinnamamido)-3\u2032-deoxy-N,N-dimethyl-, L-", "Adenosine, 3\u2032-[[2-amino-3-(4-methoxyphenyl)-1-oxopropyl]amino]-3\u2032-deoxy-N,N-dimethyl-, (S)-", "3\u2032-[[(2S)-2-Amino-3-(4-methoxyphenyl)-1-oxopropyl]amino]-3\u2032-deoxy-N,N-dimethyladenosine", "1-MM", "P 638", "3123L", "Puromycin", "Stylomycin", "Achromycin (purine derivative)", "\u03b2-D-Ribofuranoside, 6-(dimethylamino)-9H-purine-9 3-deoxy-3-[(4-methoxy-L-phenylalanyl)amino]-", "Stillomycin", "Achromycin", "CL 13900", "MeSH ID: D011691"], "SMILES": "OC1C(N2C=3C(N=C2)=C(N(C)C)N=CN3)OC(CO)C1NC(C(CC4=CC=C(OC)C=C4)N)=O", "physical_data": {"Molecular Weight": "471.51", "Molecular Formula": "C22H29N7O5", "Melting Point": "175.5-177 \u00b0C"}}