{"cas_no": "53-70-3", "cn_name": "\u4e8c\u82ef\u5e76[a,h]\u84bd", "en_name": ["Dibenz[a,h]anthracene", "Dibenz[a,h]anthracene", "DBA", "1,2:5,6-Dibenzanthracene", "Dibenzo[a,h]anthracene", "1,2:5,6-Dibenz[a]anthracene", "1,2:5,6-Benzanthracene", "1,2:5,6-Dibenzoanthracene", "1,2:5,6-Dibenzanthracen", "NSC 22433"], "SMILES": "C12=C3C(=CC=C1C=C4C(=C2)C=CC=5C4=CC=CC5)C=CC=C3", "physical_data": {"Molecular Weight": "278.35", "Molecular Formula": "C22H14", "Boiling Point": "524 \u00b0C", "Melting Point": "266 \u00b0C", "Density": "1.282 g/cm\u00b3"}}