{"cas_no": "53-85-0", "cn_name": "\u4e8c\u6c2f\u82ef\u5e76\u54aa\u5511\u544b\u5583\u578b\u6838\u7cd6\u82f7", "en_name": ["5,6-Dichloro-1-(\u03b2-D-ribofuranosyl)benzimidazole", "1H-Benzimidazole, 5,6-dichloro-1-\u03b2-D-ribofuranosyl-", "Benzimidazole, 5,6-dichloro-1-\u03b2-D-ribofuranosyl-", "Benzimidazole, 5,6-dichloro-1-D-ribofuranosyl-", "5,6-Dichloro-1-\u03b2-D-ribofuranosyl-1H-benzimidazole", "5,6-Dichloro-1-(\u03b2-D-ribofuranosyl)benzimidazole", "1-\u03b2-D-Ribofuranosyl-5,6-dichlorobenzimidazole", "DRB", "NSC 401575", "5,6-Dichlorobenzimidazole 1-\u03b2-D-ribofuranoside", "5,6-Dichlororibofuranosylbenzimidazole", "NQZ-002"], "SMILES": "OC1C(N2C=3C(N=C2)=CC(Cl)=C(Cl)C3)OC(CO)C1O", "physical_data": {"Molecular Weight": "319.14", "Molecular Formula": "C12H12Cl2N2O4", "Melting Point": "215-216 \u00b0C"}}