{"cas_no": "53-84-9", "cn_name": "\u70df\u9170\u80fa\u817a\u560c\u5464\u53cc\u6838\u82f7\u9178", "en_name": ["NAD", "Adenosine 5\u2032-(trihydrogen diphosphate), P\u2032\u21925\u2032-ester with 3-(aminocarbonyl)-1-\u03b2-D-ribofuranosylpyridinium, inner salt", "Pyridinium, 3-carbamoyl-1-\u03b2-D-ribofuranosyl-, hydroxide, 5\u2032\u21925\u2032-ester with adenosine 5\u2032-(trihydrogen pyrophosphate), inner salt", "Adenosine 5\u2032-(trihydrogen diphosphate), P\u2032\u21925\u2032-ester with 3-(aminocarbonyl)-1-\u03b2-D-ribofuranosylpyridinium hydroxide, inner salt", "Codehydrase I", "Codehydrogenase I", "Coenzyme I", "Diphosphopyridine nucleotide", "DPN", "Cozymase I", "NAD", "Nadide", "Nicotinamide-adenine dinucleotide", "Oxidized diphosphopyridine nucleotide", "Adenine-nicotinamide dinucleotide", "NAD+", "Enzopride", "\u03b2-NAD", "\u03b2-Diphosphopyridine nucleotide", "\u03b2-Nicotinamide adenine dinucleotide", "\u03b2-NAD+", "NSC 20272", "CO-I", "\u03b2-Nicotinamide adenine dinucleotide hydrate", "MeSH ID: D009243"], "SMILES": "OC1C(N2C=3C(N=C2)=C(N)N=CN3)OC(COP(OP(OCC4OC(C(O)C4O)[N+]=5C=C(C(N)=O)C=CC5)(=O)[O-])(=O)O)C1O", "physical_data": {"Molecular Weight": "", "Molecular Formula": "C21H27N7O14P2", "Melting Point": "140-142 \u00b0C (decomp)"}}