{"cas_no": "53-86-1", "cn_name": "\u5432\u54da\u7f8e\u8f9b", "en_name": ["Indomethacin", "1H-Indole-3-acetic acid, 1-(4-chlorobenzoyl)-5-methoxy-2-methyl-", "Indole-3-acetic acid, 1-(p-chlorobenzoyl)-5-methoxy-2-methyl-", "1-(4-Chlorobenzoyl)-5-methoxy-2-methyl-1H-indole-3-acetic acid", "Amuno", "1-(p-Chlorobenzoyl)-5-methoxy-2-methylindole-3-acetic acid", "1-(p-Chlorobenzoyl)-2-methyl-5-methoxyindole-3-acetic acid", "\u03b1-[1-(p-Chlorobenzoyl)-2-methyl-5-methoxy-3-indolyl]acetic acid", "Indocid", "Indocin", "Indometacin", "Indomethacin", "Indomethacine", "Metindol", "N-(p-Chlorobenzoyl)-2-methyl-5-methoxy-3-indolylacetic acid", "1-(p-Chlorobenzoyl)-5-methoxy-2-methyl-3-indolylacetic acid", "Artrinovo", "Artrivia", "Confortid", "Idomethine", "Inacid", "Indomed", "Indomee", "Infrocin", "Mezolin", "Methazine", "Indacin", "1-(4-Chlorobenzoyl)-5-methoxy-2-methylindole-3-acetic acid", "Indomecol", "Metacen", "Metartril", "Dolovin", "Indo-Rectolmin", "Reumacide", "Sadoreum", "1-(4-Chlorobenzoyl)-2-methyl-5-methoxyindole-3-acetic acid", "Indometacine", "1-(p-Chlorobenzoyl)-2-methyl-5-methoxy-3-indolylacetic acid", "Indren", "Inteban", "Chrono-Indocid 75", "Dolcidium PL", "Bonidon Gel", "Imbrilon", "Indomod", "Indo-Phlogont", "Indo-Tablinen", "Dolcidium", "Bonidin", "Mobilan", "Indomethine", "Inflazon", "Elmetacin", "Indoxen", "Vonum", "Tannex", "Durametacin", "Indoptic", "Argun", "Mikametan", "Catlep", "Indoptol", "Chrono-Indicid", "Lausit", "Rheumacin LA", "Inteban SP", "Chibro-Amuno", "Artracin", "Indorektal", "Indocid (pharmaceutical)", "Innamit", "Indonol", "[1-(4-Chlorobenzoyl)-5-methoxy-2-methyl-1H-indol-3-yl]acetic acid", "Vital Vitacid", "IndoRich", "Flam", "Globa", "NSC 77541", "Indocollyre", "Endol", "Microcid", "Indocine", "Aconip", "2-[1-(4-Chlorobenzoyl)-5-methoxy-2-methylindol-3-yl]acetic acid", "2-[1-(4-Chlorobenzoyl)-5-methoxy-2-methyl-1H-indol-3-yl]acetic acid", "IMC", "Indocin IV", "MeSH ID: D007213"], "SMILES": "C(=O)(N1C=2C(C(CC(O)=O)=C1C)=CC(OC)=CC2)C3=CC=C(Cl)C=C3", "physical_data": {"Molecular Weight": "357.79", "Molecular Formula": "C19H16ClNO4", "Melting Point": "158 \u00b0C", "Density": "1.38 g/cm\u00b3"}}