{"cas_no": "53-96-3", "cn_name": "2-\u4e59\u9170\u6c28\u57fa\u6c1f", "en_name": ["AAF", "Acetamide, N-9H-fluoren-2-yl-", "Acetamide, N-fluoren-2-yl-", "N-9H-Fluoren-2-ylacetamide", "2-AAF", "AAF", "2-Acetamidofluorene", "FAA", "N-2-Fluorenylacetamide", "2-FAA", "2-(Acetylamino)fluorene", "NSC 12279", "MeSH ID: D015073"], "SMILES": "N(C(C)=O)C=1C=C2C(C=3C(C2)=CC=CC3)=CC1", "physical_data": {"Molecular Weight": "223.27", "Molecular Formula": "C15H13NO", "Boiling Point": "303 \u00b0C", "Melting Point": "194 \u00b0C"}}