{"cas_no": "530-91-6", "cn_name": "1,2,3,4-\u56db\u6c22-2-\u8418\u915a", "en_name": ["1,2,3,4-Tetrahydro-2-naphthalenol", "2-Naphthalenol, 1,2,3,4-tetrahydro-", "2-Naphthol, 1,2,3,4-tetrahydro-", "1,2,3,4-Tetrahydro-2-naphthalenol", "1,2,3,4-Tetrahydro-2-naphthol", "\u03b2-Tetralol", "2-Hydroxytetralin", "2-Tetralinol", "2-Tetralol", "2-Hydroxy-1,2,3,4-tetrahydronaphthalene", "(\u00b1)-1,2,3,4-Tetrahydro-2-naphthol", "NSC 44875", "NSC 5669", "1,2,3,4-Tetrahydronaphthalen-2-ol"], "SMILES": "OC1CC=2C(CC1)=CC=CC2", "physical_data": {"Molecular Weight": "148.20", "Molecular Formula": "C10H12O", "Boiling Point": "140 \u00b0C @ Press: 12 Torr", "Melting Point": "15.5 \u00b0C", "Density": "1.0715 g/cm\u00b3 @ Temp: 17 \u00b0C"}}