{"cas_no": "530-53-0", "cn_name": "DEOXYVASICINONE", "en_name": ["Deoxyvasicinone", "Pyrrolo[2,1-b]quinazolin-9(1H)-one, 2,3-dihydro-", "2,3-Dihydropyrrolo[2,1-b]quinazolin-9(1H)-one", "Pegenone", "Deoxyvasicinone", "9-Oxodeoxypeganine", "1,2,3,9-Tetrahydropyrrolo[2,1-b]quinazolin-9-one", "2,3-Trimethylene-4-quinazolone", "NSC 159478", "2,3-Dihydro-1H-pyrrolo[2,1-b]quinazolin-9-one"], "SMILES": "O=C1N2C(=NC=3C1=CC=CC3)CCC2", "physical_data": {"Molecular Weight": "186.21", "Molecular Formula": "C11H10N2O", "Melting Point": "110-110.5 \u00b0C"}}