{"cas_no": "530-59-6", "cn_name": "\u82a5\u5b50\u9178", "en_name": ["Sinapic acid", "2-Propenoic acid, 3-(4-hydroxy-3,5-dimethoxyphenyl)-", "Cinnamic acid, 4-hydroxy-3,5-dimethoxy-", "3-(4-Hydroxy-3,5-dimethoxyphenyl)-2-propenoic acid", "Sinapic acid", "4-Hydroxy-3,5-dimethoxycinnamic acid", "3,5-Dimethoxy-4-hydroxycinnamic acid", "Sinapinic acid", "Synapitic acid", "NSC 59261", "3-(4-Hydroxy-3,5-dimethoxyphenyl) acrylic acid"], "SMILES": "O(C)C1=C(O)C(OC)=CC(C=CC(O)=O)=C1", "physical_data": {"Molecular Weight": "224.21", "Molecular Formula": "C11H12O5", "Melting Point": "193.6-195.6 \u00b0C (decomp)"}}