{"cas_no": "530-55-2", "cn_name": "2,6-\u4e8c\u7532\u6c27\u57fa-1,4-\u82ef\u918c", "en_name": ["2,6-Dimethoxy-1,4-benzoquinone", "2,5-Cyclohexadiene-1,4-dione, 2,6-dimethoxy-", "p-Benzoquinone, 2,6-dimethoxy-", "Quinone, 2,6-dimethoxy-", "2,6-Dimethoxy-2,5-cyclohexadiene-1,4-dione", "2,6-Dimethoxy-p-benzoquinone", "2,6-Dimethoxyquinone", "2,6-Dimethoxy-1,4-benzoquinone", "2,6-Dimethoxy-p-quinone", "3,5-Dimethoxy-1,4-benzoquinone", "3,5-Dimethoxybenzoquinone", "NSC 24500", "NSC 56336"], "SMILES": "O(C)C=1C(=O)C(OC)=CC(=O)C1", "physical_data": {"Molecular Weight": "168.15", "Molecular Formula": "C8H8O4", "Melting Point": "256 \u00b0C"}}