{"cas_no": "530-40-5", "cn_name": "N,N-\u4e8c\u4e59\u57fa\u5f02\u70df\u9170\u80fa", "en_name": ["N,N-Diethylisonicotinamide", "4-Pyridinecarboxamide, N,N-diethyl-", "Isonicotinamide, N,N-diethyl-", "N,N-Diethyl-4-pyridinecarboxamide", "Isonicotinic acid diethylamide", "N,N-Diethylisonicotinamide", "NSC 165783"], "SMILES": "C(N(CC)CC)(=O)C=1C=CN=CC1", "physical_data": {"Molecular Weight": "178.23", "Molecular Formula": "C10H14N2O", "Boiling Point": "162-164 \u00b0C @ Press: 15 Torr", "Melting Point": "23-25 \u00b0C"}}