{"cas_no": "530-56-3", "cn_name": "2,6-\u4e8c\u7532\u6c27\u57fa\u915a", "en_name": ["Syringyl alcohol", "Benzenemethanol, 4-hydroxy-3,5-dimethoxy-", "Benzyl alcohol, 4-hydroxy-3,5-dimethoxy-", "4-Hydroxy-3,5-dimethoxybenzenemethanol", "Syringyl alcohol", "4-Hydroxy-3,5-dimethoxybenzyl alcohol", "3,5-Dimethoxy-4-hydroxybenzyl alcohol", "2,6-Dimethoxy-4-(hydroxymethyl)phenol", "Syringic alcohol"], "SMILES": "O(C)C1=C(O)C(OC)=CC(CO)=C1", "physical_data": {"Molecular Weight": "184.19", "Molecular Formula": "C9H12O4", "Melting Point": "136 \u00b0C"}}