{"cas_no": "530-43-8", "cn_name": "\u6c2f\u9709\u7d20\u68d5\u6988\u9178\u916f", "en_name": ["Chloramphenicol palmitate", "Hexadecanoic acid, (2R,3R)-2-[(2,2-dichloroacetyl)amino]-3-hydroxy-3-(4-nitrophenyl)propyl ester", "Palmitic acid, \u03b1-ester with D-threo-(-)-2,2-dichloro-N-[\u03b2-hydroxy-\u03b1-(hydroxymethyl)-p-nitrophenethyl]acetamide", "Hexadecanoic acid, 2-[(dichloroacetyl)amino]-3-hydroxy-3-(4-nitrophenyl)propyl ester, [R-(R*,R*)]-", "Palmitic acid, ester with chloramphenicol", "Hexadecanoic acid, (2R,3R)-2-[(dichloroacetyl)amino]-3-hydroxy-3-(4-nitrophenyl)propyl ester", "Acetamide, 2,2-dichloro-N-[\u03b2-hydroxy-\u03b1-(hydroxymethyl)-p-nitrophenethyl]-, \u03b1-palmitate, D-threo-", "Chloramphenicol palmitate", "Chloramphenicol palmitate (ester)", "D-(-)-Chloramphenicol palmitate", "Detreopal", "Chloramphenicol monopalmitate (ester)", "Chloramphenicol monopalmitate", "Chloromycetin palmitate", "Chloramphenicol \u03b1-palmitate", "Clorolifarina", "Chlorambon", "Chloropal"], "SMILES": "C(C(COC(CCCCCCCCCCCCCCC)=O)NC(C(Cl)Cl)=O)(O)C1=CC=C(N(=O)=O)C=C1", "physical_data": {"Molecular Weight": "561.54", "Molecular Formula": "C27H42Cl2N2O6", "Melting Point": "90 \u00b0C"}}