{"cas_no": "530-14-3", "cn_name": "\u4e91\u6749\u82f7", "en_name": ["Picein", "Ethanone, 1-[4-(\u03b2-D-glucopyranosyloxy)phenyl]-", "Picein", "1-[4-(\u03b2-D-Glucopyranosyloxy)phenyl]ethanone", "Piceoside", "Ameliaroside", "p-Hydroxyacetophenone-D-glucoside", "Salicinerein", "Salinigrin", "4-Acetylphenyl \u03b2-D-glucopyranoside", "p-Hydroxyacetophenone glucoside"], "SMILES": "O(C1C(O)C(O)C(O)C(CO)O1)C2=CC=C(C(C)=O)C=C2", "physical_data": {"Molecular Weight": "298.29", "Molecular Formula": "C14H18O7", "Melting Point": "195.5 \u00b0C"}}