{"cas_no": "530-62-1", "cn_name": "N,N'-\u7fb0\u57fa\u4e8c\u54aa\u5511", "en_name": ["1,1\u2032-Carbonyldiimidazole", "Methanone, di-1H-imidazol-1-yl-", "Imidazole, 1,1\u2032-carbonyldi-", "1H-Imidazole, 1,1\u2032-carbonylbis-", "Di-1H-imidazol-1-ylmethanone", "N,N\u2032-Carbonyldiimidazole", "N,N\u2032-Carbonylbis(imidazole)", "Diimidazol-1-yl ketone", "1,1\u2032-Carbonylbisimidazole", "1,1\u2032-Carbonylbis-1H-imidazole", "1,1\u2032-Carbonyldiimidazole", "N,N-Carbonyldiimidazole", "1-(1H-Imidazol-1-ylcarbonyl)-1H-imidazole", "NSC 67203", "Bis(imidazol-1-yl)methanone", "Bis(imidazol-1-yl) ketone", "Bis(1H-imidazol-1-yl)methanone", "1,1-Carbonyldiimidazole", "1-(1H-Imidazole-1-carbonyl)-1H-imidazole", "Di(imidazol-1-yl)methanone"], "SMILES": "C(=O)(N1C=CN=C1)N2C=CN=C2", "physical_data": {"Molecular Weight": "162.15", "Molecular Formula": "C7H6N4O", "Melting Point": "119 \u00b0C"}}