{"cas_no": "530-50-7", "cn_name": "N,N-\u4e8c\u82ef\u57fa\u80bc", "en_name": ["N,N-Diphenylhydrazine", "Hydrazine, 1,1-diphenyl-", "1,1-Diphenylhydrazine", "\u03b1,\u03b1-Diphenylhydrazine", "N,N-Diphenylhydrazine"], "SMILES": "N(N)(C1=CC=CC=C1)C2=CC=CC=C2", "physical_data": {"Molecular Weight": "184.24", "Molecular Formula": "C12H12N2", "Boiling Point": "220 \u00b0C @ Press: 40 Torr", "Melting Point": "50.5 \u00b0C", "Density": "1.190 g/cm\u00b3 @ Temp: 16 \u00b0C"}}