{"cas_no": "530-57-4", "cn_name": "\u4e01\u9999\u9178", "en_name": ["Syringic acid", "Benzoic acid, 4-hydroxy-3,5-dimethoxy-", "Syringic acid", "4-Hydroxy-3,5-dimethoxybenzoic acid", "3,5-Dimethoxy-4-hydroxybenzoic acid", "Cedar acid", "2,6-Dimethoxy-4-carboxyphenol", "Gallic acid 3,5-dimethyl ether", "NSC 2129"], "SMILES": "O(C)C1=C(O)C(OC)=CC(C(O)=O)=C1", "physical_data": {"Molecular Weight": "198.17", "Molecular Formula": "C9H10O5", "Melting Point": "206-209 \u00b0C"}}