{"cas_no": "530-44-9", "cn_name": "\u5bf9\u4e8c\u7532\u6c28\u57fa\u4e8c\u82ef\u7532\u916e", "en_name": ["4-(Dimethylamino)benzophenone", "Methanone, [4-(dimethylamino)phenyl]phenyl-", "Benzophenone, 4-(dimethylamino)-", "[4-(Dimethylamino)phenyl]phenylmethanone", "4-(Dimethylamino)benzophenone", "p-Benzoyl-N,N-dimethylaniline", "N,N-Dimethyl-p-aminobenzophenone", "4-Benzoyl-N,N-dimethylaniline", "NSC 15962", "NSC 28935", "4-(Dimethylamino)phenyl phenyl ketone"], "SMILES": "C(=O)(C1=CC=C(N(C)C)C=C1)C2=CC=CC=C2", "physical_data": {"Molecular Weight": "225.29", "Molecular Formula": "C15H15NO", "Melting Point": "92.5 \u00b0C"}}