{"cas_no": "530-78-9", "cn_name": "\u6c1f\u706d\u9178", "en_name": ["Flufenamic acid", "Benzoic acid, 2-[[3-(trifluoromethyl)phenyl]amino]-", "Anthranilic acid, N-(\u03b1,\u03b1,\u03b1-trifluoro-m-tolyl)-", "2-[[3-(Trifluoromethyl)phenyl]amino]benzoic acid", "INF 1837", "Arlef", "Flufenamic acid", "Fluphenamic acid", "N-(m-Trifluoromethylphenyl)-2-aminobenzoic acid", "N-(\u03b1,\u03b1,\u03b1-Trifluoro-m-tolyl)anthranilic acid", "N-[3-(Trifluoromethyl)phenyl]anthranilic acid", "3\u2032-Trifluoromethyldiphenylamine-2-carboxylic acid", "Achless", "Fullsafe", "Paraflu", "Parlef", "Surika", "Tecramine", "ANT-1", "Parlif", "Plostene", "3\u2032-Trifluoromethyl-N-phenylanthranilic acid", "Pinox", "Movilizin", "2-[3-(Trifluoromethyl)anilino]benzoic acid", "Ristogen", "NSC 82699", "Ansatin", "Meralen", "CI 440", "CN 27544", "Sastridex", "NSC 219007", "MeSH ID: D005439"], "SMILES": "N(C1=C(C(O)=O)C=CC=C1)C2=CC(C(F)(F)F)=CC=C2", "physical_data": {"Molecular Weight": "281.23", "Molecular Formula": "C14H10F3NO2", "Melting Point": "133.5 \u00b0C"}}