{"cas_no": "530-75-6", "cn_name": "\u4e59\u9170\u6c34\u6768\u9170\u6c34\u6768\u9178", "en_name": ["Acetylsalicylsalicylic acid", "Benzoic acid, 2-(acetyloxy)-, 2-carboxyphenyl ester", "Salicylic acid, salicylate, acetate", "Salicylacetylsalicylic acid", "Acetylsalicylsalicylic acid", "Diplosal acetate", "Acesalum", "Diplosalacetat", "2-[(2-Acetoxybenzoyl)oxy]benzoic acid", "2-[[2-(Acetyloxy)benzoyl]oxy]benzoic acid", "Diplosalsalate"], "SMILES": "O(C(=O)C1=C(OC(C)=O)C=CC=C1)C2=C(C(O)=O)C=CC=C2", "physical_data": {"Molecular Weight": "300.26", "Molecular Formula": "C16H12O6", "Melting Point": "159 \u00b0C"}}