{"cas_no": "530-64-3", "cn_name": "\u76d0\u9178\u55b9\u5549", "en_name": ["Quinoline, hydrochloride", "Quinoline, hydrochloride (1:1)", "Quinoline, hydrochloride", "Quinolinium chloride", "Quinoline monohydrochloride"], "SMILES": "C12=C(C=CC=C1)N=CC=C2.Cl", "physical_data": {"Molecular Weight": "", "Molecular Formula": "C9H7N.ClH", "Melting Point": "217-218 \u00b0C"}}