{"cas_no": "530-48-3", "cn_name": "1,1-\u4e8c\u82ef\u4e59\u70ef", "en_name": ["1,1-Diphenylethylene", "Benzene, 1,1\u2032-ethenylidenebis-", "Ethylene, 1,1-diphenyl-", "1,1\u2032-Ethenylidenebis[benzene]", "1,1-Diphenylethene", "unsym-Diphenylethylene", "\u03b1,\u03b1-Diphenylethylene", "\u03b1-Methylenediphenylmethane", "\u03b1-Phenylstyrene", "1,1-Diphenylethylene", "NSC 57645", "Ethene-1,1-diyldibenzene", "1-Phenylethenylbenzene"], "SMILES": "C(=C)(C1=CC=CC=C1)C2=CC=CC=C2", "physical_data": {"Molecular Weight": "180.25", "Molecular Formula": "C14H12", "Boiling Point": "277 \u00b0C", "Melting Point": "8.2 \u00b0C", "Density": "1.0243 g/cm\u00b3 @ Temp: 20 \u00b0C"}}