{"cas_no": "530-93-8", "cn_name": "beta-\u56db\u6c22\u8418\u916e", "en_name": ["2-Tetralone", "2(1H)-Naphthalenone, 3,4-dihydro-", "3,4-Dihydro-2(1H)-naphthalenone", "\u03b2-Tetralone", "2-Tetralone", "2-Oxotetralin", "1,2,3,4-Tetrahydro-2-naphthalenone", "NSC 87083", "1,2,3,4-Tetrahydro-2-oxonaphthalene", "3,4-Dihydro-1H-naphthalen-2-one"], "SMILES": "O=C1CC=2C(CC1)=CC=CC2", "physical_data": {"Molecular Weight": "146.19", "Molecular Formula": "C10H10O", "Boiling Point": "237 \u00b0C", "Melting Point": "18 \u00b0C"}}