{"cas_no": "530-66-5", "cn_name": "\u786b\u9178\u55b9\u5549", "en_name": ["Quinoline, sulfate (1:1)", "Quinoline, sulfate (1:1)", "Quinoline bisulfate", "Quinoline hydrogen sulfate"], "SMILES": "C12=C(C=CC=C1)N=CC=C2.S(=O)(=O)(O)O", "physical_data": {"Molecular Weight": "", "Molecular Formula": "C9H7N.H2O4S", "Melting Point": "162-164 \u00b0C"}}