{"cas_no": "53008-65-4", "cn_name": "\u7532\u57fa-2,3,4-\u4e09-O-\u82c4\u57fa-alpha-D-\u5421\u5583\u8461\u8404\u7cd6\u82f7", "en_name": ["Methyl 2,3,4-tri-O-benzyl-\u03b1-D-glucopyranoside", "\u03b1-D-Glucopyranoside, methyl 2,3,4-tris-O-(phenylmethyl)-", "Methyl 2,3,4-tris-O-(phenylmethyl)-\u03b1-D-glucopyranoside", "Methyl 2,3,4-tri-O-benzyl-\u03b1-D-glucopyranoside"], "SMILES": "O(CC1=CC=CC=C1)C2C(OCC3=CC=CC=C3)C(CO)OC(OC)C2OCC4=CC=CC=C4", "physical_data": {"Molecular Weight": "464.55", "Molecular Formula": "C28H32O6", "Melting Point": "68-69.5 \u00b0C"}}