{"cas_no": "53003-10-4", "cn_name": "\u76d0\u9709\u7d20", "en_name": ["Salinomycin", "Salinomycin", "1,6,8-Trioxadispiro[4.1.5.3]pentadecane, salinomycin deriv.", "Coxistac", "Stereoisomer of \u03b1-ethyl-6-[5-[2-(5-ethyltetrahydro-5-hydroxy-6-methyl-2H-pyran-2-yl)-15-hydroxy-2,10,12-trimethyl-1,6,8-trioxadispiro[4.1.5.3]pentadec-13-en-9-yl]-2-hydroxy-1,3-dimethyl-4-oxoheptyl]tetrahydro-5-methyl-2H-pyran-2-acetic acid", "Antibiotic 61477"], "SMILES": "OC1C2(OC3(OC(C(C(C(C(C(C)C4OC(C(C(O)=O)CC)CCC4C)O)C)=O)CC)C(C)CC3C)C=C1)OC(C)(CC2)C5OC(C)C(CC)(O)CC5", "physical_data": {"Molecular Weight": "751.00", "Molecular Formula": "C42H70O11", "Melting Point": "112.5-113.5 \u00b0C"}}