{"cas_no": "5300-03-8", "cn_name": "9-\u987a\u5f0f\u7ef4\u7532\u9178", "en_name": ["9-cis-Retinoic acid", "Retinoic acid, 9-cis-", "Retinoic acid, cis-9,trans-13-", "9-cis-Retinoic acid", "9-cis-Tretinoin", "9(Z)-Retinoic acid", "ALRT 1057", "AGN 192013", "Alitretinoin", "Panrexin", "NSC 659772", "LGD 1057", "Panretyn", "LGD 100057", "Panretin", "LG 100057", "Toctino"], "SMILES": "C(=CC(=CC=CC(=CC(O)=O)C)C)C=1C(C)(C)CCCC1C", "physical_data": {"Molecular Weight": "300.44", "Molecular Formula": "C20H28O2", "Melting Point": "190-191 \u00b0C"}}