{"cas_no": "5301-78-0", "cn_name": "2,6,7-\u4e09\u6c27\u6742-1-\u78f7\u6742\u53cc\u73af(2.2.2)\u8f9b\u70f7-4-\u7532\u9187-1-\u6c27\u5316\u7269", "en_name": ["1-Oxo-4-hydroxymethyl-2,6,7-trioxa-1-phosphabicyclo[2.2.2]octane", "2,6,7-Trioxa-1-phosphabicyclo[2.2.2]octane-4-methanol, 1-oxide", "Pentaerythritol, cyclic phosphate (1:1)", "Pentaerythritol, cyclic phosphate", "4-(Hydroxymethyl)-1-oxido-2,6,7-trioxa-1-phosphabicyclo[2.2.2]octane", "Pentaerythritol phosphate alcohol", "CN 1137", "2,6,7-Trioxaphosphobicyclo[2.2.2]octane-4-methanol 1-oxide", "NH 1197", "PEPA", "1-Oxo-4-hydroxymethyl-2,6,7-trioxa-1-phosphabicyclo[2.2.2]octane", "4-Hydroxymethyl-2,6,7-trioxa-1-phosphabicyclo[2.2.2]octane 1-oxide"], "SMILES": "C(O)C12COP(=O)(OC1)OC2", "physical_data": {"Molecular Weight": "180.10", "Molecular Formula": "C5H9O5P", "Melting Point": "207.4-214.0 \u00b0C"}}