{"cas_no": "53012-41-2", "cn_name": "1-(2,6-\u4e8c\u7532\u57fa\u82ef\u6c27\u57fa)\u4e59\u916e", "en_name": ["1-(2,6-Dimethylphenoxy)-2-propanone", "2-Propanone, 1-(2,6-dimethylphenoxy)-", "1-(2,6-Dimethylphenoxy)-2-propanone", "1-(2,6-Dimethylphenoxy)acetone", "(2,6-Dimethylphenoxy)-2-propanone"], "SMILES": "O(CC(C)=O)C1=C(C)C=CC=C1C", "physical_data": {"Molecular Weight": "178.23", "Molecular Formula": "C11H14O2", "Boiling Point": "110-113 \u00b0C @ Press: 4 Torr"}}