{"cas_no": "53016-31-2", "cn_name": "\u7532\u57fa\u5b55\u916e", "en_name": ["Norelgestromin", "18,19-Dinorpregn-4-en-20-yn-3-one, 13-ethyl-17-hydroxy-, oxime, (17\u03b1)-", "D-Norgestrel 3-oxime", "18-Methylnorethindrone oxime", "17-Deacetylnorgestimate", "Levonorgestrel 3-oxime", "Norplant 3-oxime", "Norelgestromin", "RWJ 10553", "BRN 4202099", "Levonorgestrel oxime", "d-(17\u03b1)-13-Ethyl-17-hydroxy-18,19-dinorpregn-4-en-20-yn-3-one oxime", "17-Deacylnorgestimate"], "SMILES": "C(C)C12C(C3C(CC1)C4C(CC3)=CC(=NO)CC4)CCC2(C#C)O", "physical_data": {"Molecular Weight": "327.46", "Molecular Formula": "C21H29NO2", "Melting Point": "110-130 \u00b0C"}}