{"cas_no": "5302-79-4", "cn_name": "7-\u7532\u6c27\u57fa-1-\u8418\u80fa", "en_name": ["7-Methoxy-1-naphthalenamine", "1-Naphthalenamine, 7-methoxy-", "1-Naphthylamine, 7-methoxy-", "7-Methoxy-1-naphthalenamine", "7-Methoxy-1-naphthylamine", "1-Amino-7-methoxynaphthalene", "NSC 37570"], "SMILES": "NC=1C2=C(C=CC(OC)=C2)C=CC1", "physical_data": {"Molecular Weight": "173.21", "Molecular Formula": "C11H11NO", "Boiling Point": "151-153 \u00b0C @ Press: 5 Torr", "Melting Point": "75-77 \u00b0C"}}