{"cas_no": "5303-65-1", "cn_name": "3-\u6c28\u57fa\u4e01\u9178\u4e59\u916f", "en_name": ["Ethyl 3-aminobutyrate", "Butanoic acid, 3-amino-, ethyl ester", "Butyric acid, 3-amino-, ethyl ester", "Ethyl \u03b2-aminobutyrate", "Ethyl 3-aminobutyrate", "3-Methyl-\u03b2-alanine ethyl ester", "\u03b2-Aminobutyric acid ethyl ester", "Ethyl 3-aminobutanoate", "3-Aminobutanoic acid ethyl ester", "[2-(Ethoxycarbonyl)-1-methylethyl]amine", "NSC 77084", "3-Aminobutyric acid ethyl ester"], "SMILES": "C(C(OCC)=O)C(C)N", "physical_data": {"Molecular Weight": "131.17", "Molecular Formula": "C6H13NO2", "Boiling Point": "82 \u00b0C @ Press: 20 Torr"}}