{"cas_no": "53055-05-3", "cn_name": "3-\u7532\u6c27\u57fa-2-\u785d\u57fa\u82ef\u7532\u919b", "en_name": ["3-Methoxy-2-nitrobenzaldehyde", "Benzaldehyde, 3-methoxy-2-nitro-", "m-Anisaldehyde, 2-nitro-", "3-Methoxy-2-nitrobenzaldehyde", "2-Nitro-3-methoxybenzaldehyde", "NSC 172558"], "SMILES": "N(=O)(=O)C1=C(C=O)C=CC=C1OC", "physical_data": {"Molecular Weight": "181.15", "Molecular Formula": "C8H7NO4", "Melting Point": "102 \u00b0C"}}