{"cas_no": "5306-98-9", "cn_name": "5-\u6c2f-2-\u7532\u57fa\u82ef\u915a", "en_name": ["5-Chloro-2-methylphenol", "Phenol, 5-chloro-2-methyl-", "o-Cresol, 5-chloro-", "5-Chloro-2-methylphenol", "5-Chloro-o-cresol", "2-Methyl-5-chlorophenol", "3-Chloro-6-methylphenol", "4-Chloro-2-hydroxytoluene", "NSC 157349"], "SMILES": "OC1=C(C)C=CC(Cl)=C1", "physical_data": {"Molecular Weight": "142.58", "Molecular Formula": "C7H7ClO", "Boiling Point": "225 \u00b0C", "Melting Point": "73-74 \u00b0C"}}