{"cas_no": "53066-19-6", "cn_name": "1-(2,6-\u4e8c\u6c2f\u82ef\u57fa)\u4e59\u9187", "en_name": ["2,6-Dichloro-\u03b1-methylbenzenemethanol", "Benzenemethanol, 2,6-dichloro-\u03b1-methyl-", "Benzyl alcohol, 2,6-dichloro-\u03b1-methyl-", "2,6-Dichloro-\u03b1-methylbenzenemethanol", "2,6-Dichloro-\u03b1-methylbenzyl alcohol", "1-(2,6-Dichlorophenyl)ethanol", "1-(2,6-Dichlorophenyl)ethan-1-ol"], "SMILES": "C(C)(O)C1=C(Cl)C=CC=C1Cl", "physical_data": {"Molecular Weight": "191.05", "Molecular Formula": "C8H8Cl2O", "Boiling Point": "134-136 \u00b0C @ Press: 13 Torr", "Melting Point": "34-35 \u00b0C"}}