{"cas_no": "5306-85-4", "cn_name": "\u5f02\u5c71\u68a8\u9187\u4e8c\u7532\u57fa\u919a", "en_name": ["Dimethyl isosorbide", "D-Glucitol, 1,4:3,6-dianhydro-2,5-di-O-methyl-", "Glucitol, 1,4:3,6-dianhydro-2,5-di-O-methyl-, D-", "Sorbitol, 1,4:3,6-dianhydro-2,5-di-O-methyl-", "Furo[3,2-b]furan, D-glucitol deriv.", "1,4:3,6-Dianhydro-2,5-di-O-methyl-D-glucitol", "Dimethyl isosorbide", "Isosorbide dimethyl ether", "Arlasolve DMI", "2,5-Di-O-methyl-1,4:3,6-dianhydro-D-glucitol", "NSC 40727", "NSC 44695", "Gransolve DMI", "Solvall BDE 1"], "SMILES": "O(C)C1C2C(C(OC)CO2)OC1", "physical_data": {"Molecular Weight": "174.19", "Molecular Formula": "C8H14O4", "Boiling Point": "234 \u00b0C", "Melting Point": "&lt;-50 \u00b0C", "Density": "1.1635 g/cm\u00b3 @ Temp: 20 \u00b0C"}}