{"cas_no": "5307-03-9", "cn_name": "2-\u6c2f-5-\u7532\u57fa-1,4-\u82ef\u4e8c\u80fa", "en_name": ["2-Chloro-5-methyl-1,4-benzenediamine", "1,4-Benzenediamine, 2-chloro-5-methyl-", "Toluene-2,5-diamine, 4-chloro-", "2-Chloro-5-methyl-1,4-benzenediamine", "2,5-Diamino-4-chlorotoluene", "5-Chloro-2-methyl-1,4-phenylenediamine", "1,4-Diamino-2-methyl-5-chlorobenzene", "2-Chloro-5-methyl-p-phenylenediamine", "2-Methyl-5-chloro-1,4-diaminobenzene", "2-Chloro-5-methyl-1,4-phenylenediamine"], "SMILES": "CC1=C(N)C=C(Cl)C(N)=C1", "physical_data": {"Molecular Weight": "156.61", "Molecular Formula": "C7H9ClN2", "Melting Point": "145-146 \u00b0C"}}