{"cas_no": "53072-18-7", "cn_name": "2,3,4,5-\u56db\u6c1f\u82ef\u7532\u9187", "en_name": ["2,3,4,5-Tetrafluorobenzenemethanol", "Benzenemethanol, 2,3,4,5-tetrafluoro-", "2,3,4,5-Tetrafluorobenzenemethanol", "2,3,4,5-Tetrafluorobenzyl alcohol", "(2,3,4,5-Tetrafluorophenyl)methanol"], "SMILES": "C(O)C1=C(F)C(F)=C(F)C(F)=C1", "physical_data": {"Molecular Weight": "180.10", "Molecular Formula": "C7H4F4O", "Boiling Point": "107-109 \u00b0C @ Press: 22 Torr"}}