{"cas_no": "5307-99-3", "cn_name": "7,7-\u4e8c\u6c2f\u4e8c\u73af[3.2.0]\u5e9a-2-\u70ef-6-\u916e", "en_name": ["7,7-Dichlorobicyclo[3.2.0]hept-2-en-6-one", "Bicyclo[3.2.0]hept-2-en-6-one, 7,7-dichloro-", "7,7-Dichlorobicyclo[3.2.0]hept-2-en-6-one", "NSC 116987"], "SMILES": "O=C1C2C(C1(Cl)Cl)C=CC2", "physical_data": {"Molecular Weight": "177.03", "Molecular Formula": "C7H6Cl2O", "Boiling Point": "59-60 \u00b0C @ Press: 0.5 Torr"}}