{"cas_no": "5307-14-2", "cn_name": "2-\u785d\u57fa-1,4-\u82ef\u4e8c\u80fa", "en_name": ["Nitro-p-phenylenediamine", "1,4-Benzenediamine, 2-nitro-", "p-Phenylenediamine, 2-nitro-", "2-Nitro-1,4-benzenediamine", "C.I. 76070", "C.I. Oxidation Base 22", "Durafur Brown 2R", "Fouramine 2R", "Fourrine 36", "Fourrine Brown 2R", "o-Nitro-p-phenylenediamine", "Ursol Brown RR", "Zoba Brown RR", "Nitro-p-phenylenediamine", "2-Nitro-p-phenylenediamine", "1,4-Diamino-2-nitrobenzene", "2,5-Diaminonitrobenzene", "2-Nitro-4-aminoaniline", "2-Nitro-1,4-diaminobenzene", "4-Amino-2-nitroaniline", "NPD", "2-Nitro-1,4-phenylenediamine", "p-Phenylenediamine, nitro-", "1,4-Benzenediamine, nitro-", "NSC 5377", "1,4-Diamino-3-nitrobenzene"], "SMILES": "N(=O)(=O)C1=C(N)C=CC(N)=C1", "physical_data": {"Molecular Weight": "153.14", "Molecular Formula": "C6H7N3O2", "Melting Point": "137 \u00b0C"}}