{"cas_no": "53087-13-1", "cn_name": "3-\u82c4\u6c27\u57fa\u6eb4\u82ef", "en_name": ["1-Benzyloxy-3-bromobenzene", "Benzene, 1-bromo-3-(phenylmethoxy)-", "Ether, benzyl m-bromophenyl", "1-Bromo-3-(phenylmethoxy)benzene", "3-Benzyloxybromobenzene", "3-Bromophenyl benzyl ether", "1-Benzyloxy-3-bromobenzene", "Benzyl 3-bromophenyl ether", "3-(Benzyloxy)-1-bromobenzene", "1-Bromo-3-benzyloxybenzene", "1-Bromo-3-[(phenylmethyl)oxy]benzene", "3-Bromophenyl phenylmethyl ether", "m-Bromophenyl benzyl ether"], "SMILES": "O(CC1=CC=CC=C1)C2=CC(Br)=CC=C2", "physical_data": {"Molecular Weight": "263.13", "Molecular Formula": "C13H11BrO", "Melting Point": "59-63 \u00b0C"}}