{"cas_no": "5308-63-4", "cn_name": "1-(5-\u7532\u57fa\u5421\u5576-2-\u57fa)\u4e59\u916e", "en_name": ["1-(5-Methyl-2-pyridinyl)ethanone", "Ethanone, 1-(5-methyl-2-pyridinyl)-", "Ketone, methyl 5-methyl-2-pyridyl", "1-(5-Methyl-2-pyridinyl)ethanone", "2-Acetyl-5-methylpyridine", "2-Acetyl-5-picoline", "1-(5-Methyl-2-pyridyl)-1-ethanone", "5-Methyl-2-acetylpyridine", "1-(5-Methylpyridin-2-yl)ethanone", "1-(5-Methylpyridin-2-yl)ethan-1-one"], "SMILES": "C(C)(=O)C1=CC=C(C)C=N1", "physical_data": {"Molecular Weight": "135.16", "Molecular Formula": "C8H9NO", "Boiling Point": "105 \u00b0C @ Press: 13 Torr"}}