{"cas_no": "5308-25-8", "cn_name": "N-\u4e59\u57fa\u54cc\u55ea", "en_name": ["1-Ethylpiperazine", "Piperazine, 1-ethyl-", "1-Ethylpiperazine", "N-Ethylpiperazine", "NSC 60707"], "SMILES": "C(C)N1CCNCC1", "physical_data": {"Molecular Weight": "114.19", "Molecular Formula": "C6H14N2", "Boiling Point": "155-158 \u00b0C"}}