{"cas_no": "5309-16-0", "cn_name": "4-(4-\u7532\u6c27\u57fa\u82ef\u57fa)\u73af\u5df1\u916e", "en_name": ["4-(4-Methoxyphenyl)cyclohexanone", "Cyclohexanone, 4-(4-methoxyphenyl)-", "Cyclohexanone, 4-(p-methoxyphenyl)-", "4-(4-Methoxyphenyl)cyclohexanone", "4-(p-Methoxyphenyl)cyclohexanone", "4-(4-Methoxyphenyl)cyclohexan-1-one"], "SMILES": "O(C)C1=CC=C(C=C1)C2CCC(=O)CC2", "physical_data": {"Molecular Weight": "204.26", "Molecular Formula": "C13H16O2", "Melting Point": "74 \u00b0C"}}