{"cas_no": "531-95-3", "cn_name": "\u96cc\u9a6c\u915a", "en_name": ["Equol", "2H-1-Benzopyran-7-ol, 3,4-dihydro-3-(4-hydroxyphenyl)-, (3S)-", "4\u2032,7-Isoflavandiol", "2H-1-Benzopyran-7-ol, 3,4-dihydro-3-(4-hydroxyphenyl)-, (S)-", "(3S)-3,4-Dihydro-3-(4-hydroxyphenyl)-2H-1-benzopyran-7-ol", "4\u2032,7-Dihydroxyisoflavan", "Equol", "(S)-(-)-4\u2032,7-Isoflavandiol", "Equol, (-)-", "(-)-Equol", "(-)-(S)-Equol", "(S)-Equol", "(3S)-Equol", "SE 5OH", "S-equol", "AUS 131", "(S)-(-)-Equol", "(3S)-3-(4-Hydroxyphenyl)-3,4-dihydro-2H-chromen-7-ol", "(S)-3-(4-Hydroxyphenyl)chroman-7-ol", "MeSH ID: D060754"], "SMILES": "OC=1C=C2C(CC(CO2)C3=CC=C(O)C=C3)=CC1", "physical_data": {"Molecular Weight": "242.27", "Molecular Formula": "C15H14O3", "Melting Point": "189.5 \u00b0C"}}