{"cas_no": "531-67-9", "cn_name": "2,2-\u53cc\u54cc\u5576", "en_name": ["2,2\u2032-Bipiperidine", "2,2\u2032-Bipiperidine", "2,2\u2032-Bipiperidyl", "\u03b1,\u03b1\u2032-Dipiperidyl", "2-(Piperidin-2-yl)piperidine", "2-Piperidin-2-ylpiperidine"], "SMILES": "C1(CCCCN1)C2CCCCN2", "physical_data": {"Molecular Weight": "168.28", "Molecular Formula": "C10H20N2", "Boiling Point": "100-105 \u00b0C @ Press: 6 Torr"}}