{"cas_no": "531-18-0", "cn_name": "\u516d\u7532\u9187\u57fa\u4e09\u805a\u6c30\u80fa", "en_name": ["1,1\u2032,1\u2032\u2032,1\u2032\u2032\u2032,1\u2032\u2032\u2032\u2032,1\u2032\u2032\u2032\u2032\u2032-(1,3,5-Triazine-2,4,6-triyltrinitrilo)hexakis[methanol]", "Methanol, 1,1\u2032,1\u2032\u2032,1\u2032\u2032\u2032,1\u2032\u2032\u2032\u2032,1\u2032\u2032\u2032\u2032\u2032-(1,3,5-triazine-2,4,6-triyltrinitrilo)hexakis-", "Methanol, (s-triazine-2,4,6-triyltrinitrilo)hexa-", "Methanol, (1,3,5-triazine-2,4,6-triyltrinitrilo)hexakis-", "1,1\u2032,1\u2032\u2032,1\u2032\u2032\u2032,1\u2032\u2032\u2032\u2032,1\u2032\u2032\u2032\u2032\u2032-(1,3,5-Triazine-2,4,6-triyltrinitrilo)hexakis[methanol]", "Cilag 61", "Hexamethylolmelamine", "2,4,6-Tris[di(hydroxymethyl)amino]-1,3,5-triazine", "Resloom M 75", "1,3,5-Triazine-2,4,6-triamine, hexakis(hydroxymethyl)-", "Hexa(hydroxymethyl)melamine", "Hexakis(hydroxymethyl)melamine", "NSC 118741", "Madurit MW 840/75WA", "Binder A", "[[4,6-Bis[bis(hydroxymethyl)amino]-1,3,5-triazin-2-yl]-(hydroxymethyl)amino]methanol", "[[4,6-Bis-(bis-hydroxymethyl-amino)-[1,3,5]triazin-2-yl]-hydroxymethyl-amino]-methanol"], "SMILES": "N(CO)(CO)C=1N=C(N(CO)CO)N=C(N(CO)CO)N1", "physical_data": {"Molecular Weight": "306.28", "Molecular Formula": "C9H18N6O6", "Melting Point": "137 \u00b0C"}}