{"cas_no": "531-52-2", "cn_name": "1,3,5-\u4e09\u82ef\u7532", "en_name": ["1,3,5-Triphenylformazan", "Methanone, phenyl(2-phenyldiazenyl)-, 2-phenylhydrazone", "Formazan, 1,3,5-triphenyl-", "Toluene, \u03b1-(phenylazo)-\u03b1-(phenylhydrazono)-", "Diazene, phenyl[phenyl(phenylhydrazono)methyl]-", "1,3,5-Triphenylformazan", "NSC 2931", "NSC 56467", "TTC Formazan"], "SMILES": "C(N=NC1=CC=CC=C1)(=NNC2=CC=CC=C2)C3=CC=CC=C3", "physical_data": {"Molecular Weight": "300.36", "Molecular Formula": "C19H16N4", "Melting Point": "169-170 \u00b0C"}}