{"cas_no": "531-59-9", "cn_name": "7-\u7532\u6c27\u57fa\u9999\u8c46\u7d20", "en_name": ["Methylumbelliferone", "2H-1-Benzopyran-2-one, 7-methoxy-", "Herniarin", "Coumarin, 7-methoxy-", "Umbelliferone, methyl ether", "7-Methoxy-2H-1-benzopyran-2-one", "Ayapanin", "7-Methoxycoumarin", "Methylumbelliferone", "NSC 404559", "7-Methoxychromen-2-one", "Gerniarin", "7-Methoxy-2H-chromen-2-one"], "SMILES": "O(C)C=1C=C2C(=CC1)C=CC(=O)O2", "physical_data": {"Molecular Weight": "176.17", "Molecular Formula": "C10H8O3", "Boiling Point": "130 \u00b0C @ Press: 0.02 Torr", "Melting Point": "117-118 \u00b0C"}}