{"cas_no": "531-44-2", "cn_name": "\u4e1c\u83a8\u83ea\u7519", "en_name": ["Scopolin", "2H-1-Benzopyran-2-one, 7-(\u03b2-D-glucopyranosyloxy)-6-methoxy-", "Scopolin", "7-(\u03b2-D-Glucopyranosyloxy)-6-methoxy-2H-1-benzopyran-2-one", "Scopoletin 7-glucoside", "6-Methoxy-7-(\u03b2-D-glucopyranosyloxy)coumarin", "Scopoloside", "Scopoline", "Scopoletin 7-O-\u03b2-D-glucopyranoside", "Scopoletin 7-O-glucoside", "NSC 404560", "7-O-\u03b2-Glucopyranosylscopoletin", "7-(\u03b2-D-Glucopyranosyloxy)-6-methoxycoumarin", "6-Methoxycoumarin 7-O-\u03b2-D-glucoside"], "SMILES": "O(C1=C(OC)C=C2C(=C1)OC(=O)C=C2)C3OC(CO)C(O)C(O)C3O", "physical_data": {"Molecular Weight": "354.31", "Molecular Formula": "C16H18O9", "Melting Point": "221-223 \u00b0C"}}