{"cas_no": "531-81-7", "cn_name": "\u9999\u8c46\u7d20-3-\u7fa7\u9178", "en_name": ["Coumarin-3-carboxylic acid", "2H-1-Benzopyran-3-carboxylic acid, 2-oxo-", "1,2-Benzopyran-3-carboxylic acid, 2-keto-", "2-Oxo-2H-1-benzopyran-3-carboxylic acid", "Coumarin-3-carboxylic acid", "G 1 (rodenticide)", "3-Carboxycoumarin", "G 1", "3-Carboxylcoumarin", "NSC 14797", "NSC 44926", "NSC 53239", "2H-1-Benzopyran-2-one-3-carboxylic acid", "2-Oxo-2H-chromene-3-carboxylic acid", "2-Oxochromene-3-carboxylic acid", "2-Oxo-2H-1-benzopyran-3-carboxylic acid"], "SMILES": "C(O)(=O)C1=CC=2C(OC1=O)=CC=CC2", "physical_data": {"Molecular Weight": "190.15", "Molecular Formula": "C10H6O4", "Melting Point": "190 \u00b0C (decomp)"}}