{"cas_no": "531-91-9", "cn_name": "N,N'-\u4e8c\u82ef\u57fa\u8054\u82ef\u4e8c\u80fa", "en_name": ["Diphenylbenzidine", "[1,1\u2032-Biphenyl]-4,4\u2032-diamine, N4,N4\u2032-diphenyl-", "Benzidine, N,N\u2032-diphenyl-", "[1,1\u2032-Biphenyl]-4,4\u2032-diamine, N,N\u2032-diphenyl-", "N,N\u2032-Diphenylbenzidine", "Diphenylbenzidine", "N,N\u2032-Diphenyl-[1,1\u2032-biphenyl]-4,4\u2032-diamine", "N,N\u2032-Diphenyl-p,p\u2032-biphenylenediamine", "NSC 4310", "4,4\u2032-Bis(phenylamino)-1,1\u2032-biphenyl", "4,4\u2032-Bis(phenylamino)biphenyl", "N4,N4\u2032-Diphenyl-[1,1\u2032-biphenyl]-4,4\u2032-diamine"], "SMILES": "N(C1=CC=C(C=C1)C2=CC=C(NC3=CC=CC=C3)C=C2)C4=CC=CC=C4", "physical_data": {"Molecular Weight": "336.43", "Molecular Formula": "C24H20N2", "Melting Point": "247 \u00b0C"}}