{"cas_no": "531-28-2", "cn_name": "\u8461\u7cd6\u4e59\u9170\u9999\u8349\u82f7", "en_name": ["Androsin", "Ethanone, 1-[4-(\u03b2-D-glucopyranosyloxy)-3-methoxyphenyl]-", "Androsin", "Glucopyranoside, 4-acetyl-2-methoxyphenyl", "1-[4-(\u03b2-D-Glucopyranosyloxy)-3-methoxyphenyl]ethanone", "4-Acetyl-2-methoxyphenyl glucoside", "4-Hydroxy-3-methoxyacetophenone 4-O-\u03b2-D-glucopyranoside"], "SMILES": "O(C1=C(OC)C=C(C(C)=O)C=C1)C2OC(CO)C(O)C(O)C2O", "physical_data": {"Molecular Weight": "328.31", "Molecular Formula": "C15H20O8", "Melting Point": "218-220 \u00b0C"}}