{"cas_no": "531-75-9", "cn_name": "\u79e6\u76ae\u7532\u7d20", "en_name": ["Esculin", "2H-1-Benzopyran-2-one, 6-(\u03b2-D-glucopyranosyloxy)-7-hydroxy-", "Esculin", "6-(\u03b2-D-Glucopyranosyloxy)-7-hydroxy-2H-1-benzopyran-2-one", "Crataegin", "6,7-Dihydroxycoumarin 6-glucoside", "Enallachrome", "Escosyl", "Esculetin 6-\u03b2-D-glucoside", "Esculoside", "Polychrome", "Vitamin C2", "Aesculin", "Esculine", "Polychrom", "(-)-Esculin", "Esculetin 6-O-glucoside", "6-(\u03b2-D-Glucopyranosyloxy)-7-hydroxycoumarin", "MeSH ID: D004929"], "SMILES": "O(C=1C=C2C(=CC1O)OC(=O)C=C2)C3OC(CO)C(O)C(O)C3O", "physical_data": {"Molecular Weight": "340.28", "Molecular Formula": "C15H16O9", "Melting Point": "205 \u00b0C (decomp)"}}