{"cas_no": "531-37-3", "cn_name": "2-\u7532\u6c27\u57fa\u82ef\u57fa\u82ef\u7532\u9178\u916f", "en_name": ["Phenol, 2-methoxy-, 1-benzoate", "Phenol, 2-methoxy-, 1-benzoate", "Phenol, o-methoxy-, benzoate", "Guaiacol benzoate", "Phenol, 2-methoxy-, benzoate", "o-Anisyl benzoate", "Benzosol", "Benzoylguaiacol", "o-Methoxyphenyl benzoate", "2-Methoxyphenyl benzoate", "Benzcaine", "Guaiacyl benzoate", "Benzoguaiacol", "NSC 3795"], "SMILES": "O(C(=O)C1=CC=CC=C1)C2=C(OC)C=CC=C2", "physical_data": {"Molecular Weight": "228.24", "Molecular Formula": "C14H12O3", "Boiling Point": "205 \u00b0C @ Press: 15 Torr", "Melting Point": "57.5 \u00b0C"}}