{"cas_no": "53109-32-3", "cn_name": "\u73af(\u7ec4\u6c28\u9170-\u812f\u6c28\u9170)", "en_name": ["Histidylproline diketopiperazine", "Pyrrolo[1,2-a]pyrazine-1,4-dione, hexahydro-3-(1H-imidazol-4-ylmethyl)-, (3S,8aS)-", "Pyrrolo[1,2-a]pyrazine-1,4-dione, hexahydro-3-(1H-imidazol-4-ylmethyl)-, (3S-trans)-", "(3S,8aS)-Hexahydro-3-(1H-imidazol-4-ylmethyl)pyrrolo[1,2-a]pyrazine-1,4-dione", "Histidylproline diketopiperazine", "Cyclo(histidyl-proline)", "Histidylproline dioxopiperazine", "Cyclo(L-histidyl-L-proline)", "Cyclo(prolylhistidine)"], "SMILES": "O=C1N2C(C(=O)NC1CC3=CN=CN3)CCC2", "physical_data": {"Molecular Weight": "234.25", "Molecular Formula": "C11H14N4O2", "Melting Point": "162-164 \u00b0C"}}