{"cas_no": "53100-44-0", "cn_name": "BOC-L-\u7126\u8c37\u6c28\u9178", "en_name": ["1-(1,1-Dimethylethyl) (2S)-5-oxo-1,2-pyrrolidinedicarboxylate", "1,2-Pyrrolidinedicarboxylic acid, 5-oxo-, 1-(1,1-dimethylethyl) ester, (2S)-", "1,2-Pyrrolidinedicarboxylic acid, 5-oxo-, 1-(1,1-dimethylethyl) ester, (S)-", "1-(1,1-Dimethylethyl) (2S)-5-oxo-1,2-pyrrolidinedicarboxylate", "N-tert-Butoxycarbonyl-L-pyroglutamic acid", "N-Boc-L-pyroglutamic acid", "(S)-1-(tert-Butoxycarbonyl)-5-oxopyrrolidine-2-carboxylic acid", "(2S)-1-[(tert-Butoxy)carbonyl]-5-oxopyrrolidine-2-carboxylic acid", "(2S)-1-[(2-Methylpropan-2-yl)oxycarbonyl]-5-oxopyrrolidine-2-carboxylic acid"], "SMILES": "C(OC(C)(C)C)(=O)N1C(C(O)=O)CCC1=O", "physical_data": {"Molecular Weight": "229.23", "Molecular Formula": "C10H15NO5", "Melting Point": "65-67 \u00b0C"}}