{"cas_no": "53112-28-0", "cn_name": "\u5627\u9709\u80fa", "en_name": ["Pyrimethanil", "2-Pyrimidinamine, 4,6-dimethyl-N-phenyl-", "4,6-Dimethyl-N-phenyl-2-pyrimidinamine", "2-Anilino-4,6-dimethylpyrimidine", "Pyrimethanil", "Scala", "Mythos", "N-(4,6-Dimethylpyrimidin-2-yl)aniline", "Penbotec", "Siganex", "Xedathane 20", "Mythos 300SC"], "SMILES": "N(C=1N=C(C)C=C(C)N1)C2=CC=CC=C2", "physical_data": {"Molecular Weight": "199.25", "Molecular Formula": "C12H13N3", "Melting Point": "96.3 \u00b0C", "Density": "1.15 g/cm\u00b3 @ Temp: 20 \u00b0C"}}