{"cas_no": "53111-20-9", "cn_name": "\u5bf9\u8334\u9999\u57fa\u4e8c\u82ef\u57fa\u81a6", "en_name": ["(2-Methoxyphenyl)diphenylphosphine", "Phosphine, (2-methoxyphenyl)diphenyl-", "(2-Methoxyphenyl)diphenylphosphine", "o-Anisyldiphenylphosphine", "(o-Methoxyphenyl)diphenylphosphine", "Diphenyl(o-anisyl)phosphine", "Diphenyl-2-methoxyphenylphosphine", "Diphenyl(o-methoxyphenyl)phosphine", "2-(Diphenylphosphino)anisole"], "SMILES": "P(C1=C(OC)C=CC=C1)(C2=CC=CC=C2)C3=CC=CC=C3", "physical_data": {"Molecular Weight": "292.31", "Molecular Formula": "C19H17OP", "Melting Point": "123 \u00b0C"}}