{"cas_no": "53123-88-9", "cn_name": "\u96f7\u5e15\u9709\u7d20", "en_name": ["Rapamycin", "Rapamycin", "23,27-Epoxy-3H-pyrido[2,1-c][1,4]oxaazacyclohentriacontine, rapamycin deriv.", "Antibiotic AY 22989", "[3S-[3R*[S*(1R*,3S*,4S*)],6S*,7E,9S*,10S*,12S*,14R*,15E,17E,19E,21R*,23R*,26S*,27S*,34aR*]]-9,10,12,13,14,21,22,23,24,25,26,27,32,33,34,34a-Hexadecahydro-9,27-dihydroxy-3-[2-(4-hydroxy-3-methoxycyclohexyl)-1-methylethyl]-10,21-dimethoxy-6,8,12,14,20,26-hexamethyl-23,27-epoxy-3H-pyrido[2,1-c][1,4]oxaazacyclohentriacontine-1,5,11,28,29(4H,6H,31H)-pentone", "23,27-Epoxy-3H-pyrido[2,1-c][1,4]oxaazacyclohentriacontine-1,5,11,28,29(4H,6H,31H)-pentone, 9,10,12,13,14,21,22,23,24,25,26,27,32,33,34,34a-hexadecahydro-9,27-dihydroxy-3-[2-(4-hydroxy-3-methoxycyclohexyl)-1-methylethyl]-10,21-dimethoxy-6,8,12,14,20,26-hexamethyl-, [3S-[3R*[S*(1R*,3S*,4S*)],6S*,7E,9S*,10S*,12S*,14R*,15E,17E,19E,21R*,23R*,26S*,27S*,34aR*]]-", "(3S,6R,7E,9R,10R,12R,14S,15E,17E,19E,21S,23S,26R,27R,34aS)-9,10,12,13,14,21,22,23,24,25,26,27,32,33,34,34a-Hexadecahydro-9,27-dihydroxy-3-[(1R)-2-[(1S,3R,4R)-4-hydroxy-3-methoxycyclohexyl]-1-methylethyl]-10,21-dimethoxy-6,8,12,14,20,26-hexamethyl-23,27-epoxy-3H-pyrido[2,1-c][1,4]oxaazacyclohentriacontine-1,5,11,28,29(4H,6H,31H)-pentone", "AY 22989", "(-)-Rapamycin", "Sirolimus", "SIIA 9268A", "Rapamune", "Rapammune", "RPM", "NSC 226080", "RAPA", "Wy 090217", "Cypher", "Nab rapamycin", "Supralimus", "14S-Rapamycin", "Cypher Bx Velocity", "PNP-sirolimus", "DE 109", "MS-RO01", "MS-RO02", "MS-RO03", "Perceiva", "Rapamysin", "SVP-R", "PTX 367"], "SMILES": "O=C1N2C(C(=O)OC(C(CC3CC(OC)C(O)CC3)C)CC(=O)C(C)C=C(C)C(O)C(OC)C(=O)C(C)CC(C)C=CC=CC=C(C)C(OC)CC4OC(O)(C1=O)C(C)CC4)CCCC2", "physical_data": {"Molecular Weight": "914.17", "Molecular Formula": "C51H79NO13", "Melting Point": "183-185 \u00b0C"}}