{"cas_no": "5312-97-0", "cn_name": "2,5-\u4e8c\u7532\u6c27\u57fa\u82ef\u7532\u8148", "en_name": ["2,5-Dimethoxybenzonitrile", "Benzonitrile, 2,5-dimethoxy-", "2,5-Dimethoxybenzonitrile", "2-Cyano-4-methoxyanisole", "NSC 27019", "2,5-Dimethoxyphenyl cyanide"], "SMILES": "C(#N)C1=C(OC)C=CC(OC)=C1", "physical_data": {"Molecular Weight": "163.17", "Molecular Formula": "C9H9NO2", "Melting Point": "64-65 \u00b0C"}}