{"cas_no": "5314-55-6", "cn_name": "\u4e59\u57fa\u4e09\u7532\u6c27\u57fa\u7845\u70f7", "en_name": ["Ethyltrimethoxysilane", "Silane, ethyltrimethoxy-", "Ethyltrimethoxysilane", "LS 890", "SIE 4901.4", "Z 6321", "Trimethoxyethylsilane"], "SMILES": "[Si](CC)(OC)(OC)OC", "physical_data": {"Molecular Weight": "150.25", "Molecular Formula": "C5H14O3Si", "Boiling Point": "124.3 \u00b0C", "Density": "0.948 g/cm\u00b3"}}