{"cas_no": "5314-37-4", "cn_name": "4,4'-\u8054\u82ef\u4e8c\u78fa\u9178", "en_name": ["[1,1\u2032-Biphenyl]-4,4\u2032-disulfonic acid", "[1,1\u2032-Biphenyl]-4,4\u2032-disulfonic acid", "4,4\u2032-Biphenyldisulfonic acid", "NSC 6781"], "SMILES": "S(=O)(=O)(O)C1=CC=C(C=C1)C2=CC=C(S(=O)(=O)O)C=C2", "physical_data": {"Molecular Weight": "314.33", "Molecular Formula": "C12H10O6S2", "Melting Point": "72.5 \u00b0C"}}