{"cas_no": "53155-25-2", "cn_name": "\u91ce\u9e26\u693f\u9178", "en_name": ["Euscaphic acid", "Urs-12-en-28-oic acid, 2,3,19-trihydroxy-, (2\u03b1,3\u03b1)-", "(2\u03b1,3\u03b1)-2,3,19-Trihydroxyurs-12-en-28-oic acid", "Euscaphic acid", "Acuminatic acid", "Jacarandic acid", "2\u03b1,3\u03b1,19\u03b1-Trihydroxyurs-12-en-28-oic acid", "Euscapic acid", "Euscophic acid", "2\u03b1,3\u03b1,19-Trihydroxy-12-en-28-ursolic acid"], "SMILES": "C(O)(=O)C12C(C=3C(C)(CC1)C4(C)C(CC3)C5(C)C(CC4)C(C)(C)C(O)C(O)C5)C(C)(O)C(C)CC2", "physical_data": {"Molecular Weight": "488.70", "Molecular Formula": "C30H48O5", "Melting Point": "262-264 \u00b0C"}}