{"cas_no": "5315-25-3", "cn_name": "2-\u6eb4-6-\u7532\u57fa\u5421\u5576", "en_name": ["2-Bromo-6-methylpyridine", "Pyridine, 2-bromo-6-methyl-", "2-Picoline, 6-bromo-", "2-Bromo-6-methylpyridine", "6-Methyl-2-bromopyridine", "6-Bromo-2-picoline", "2-Bromo-6-picoline", "6-Bromo-2-methylpyridine", "2-Methyl-6-bromopyridine"], "SMILES": "BrC=1N=C(C)C=CC1", "physical_data": {"Molecular Weight": "172.02", "Molecular Formula": "C6H6BrN", "Boiling Point": "205.5-207 \u00b0C"}}