{"cas_no": "5315-79-7", "cn_name": "1-\u7f9f\u57fa\u8298", "en_name": ["1-Hydroxypyrene", "1-Pyrenol", "1-Hydroxypyrene", "3-Hydroxypyrene", "3-Pyrenol", "NSC 30968"], "SMILES": "OC1=C2C3=C4C(C=C2)=CC=CC4=CC=C3C=C1", "physical_data": {"Molecular Weight": "218.25", "Molecular Formula": "C16H10O", "Melting Point": "180 \u00b0C"}}