{"cas_no": "53164-05-9", "cn_name": "\u963f\u897f\u7f8e\u8f9b", "en_name": ["Acemetacin", "1H-Indole-3-acetic acid, 1-(4-chlorobenzoyl)-5-methoxy-2-methyl-, carboxymethyl ester", "Acemetacin", "TVX 1322", "Rantudil", "K 708", "Acemethacin", "1-(p-Chlorobenzoyl)-5-methoxy-2-methylindole-3-acetic acid carboxymethyl ester", "Acemet", "Rheumibis", "Solart", "TV 1322", "Emflex", "Acemix", "2-[2-[1-[(4-Chlorophenyl)carbonyl]-5-methoxy-2-methylindol-3-yl]acetyloxy]acetic acid", "Rheutrop", "1-(4-Chlorobenzoyl)-5-methoxy-2-methyl-1H-indole-3-acetic acid carboxymethyl ester", "Acemethazine", "2-[2-[1-(4-Chlorobenzoyl)-5-methoxy-2-methylindol-3-yl]acetyl]oxyacetic acid"], "SMILES": "C(=O)(N1C=2C(C(CC(OCC(O)=O)=O)=C1C)=CC(OC)=CC2)C3=CC=C(Cl)C=C3", "physical_data": {"Molecular Weight": "415.82", "Molecular Formula": "C21H18ClNO6", "Melting Point": "151.5 \u00b0C", "Density": "1.428 g/cm\u00b3"}}