{"cas_no": "5317-33-9", "cn_name": "1-(3-\u7f9f\u4e19\u57fa)-4-\u7532\u57fa\u54cc\u55ea", "en_name": ["1-(3-Hydroxypropyl)-4-methylpiperazine", "1-Piperazinepropanol, 4-methyl-", "4-Methyl-1-piperazinepropanol", "3-(4-Methyl-1-piperazinyl)propanol", "1-Methyl-4-(3-hydroxypropyl)piperazine", "1-(3-Hydroxypropyl)-4-methylpiperazine", "3-(4-Methyl-1-piperazinyl)-1-propanol", "NSC 351986", "NSC 79874"], "SMILES": "C(CCO)N1CCN(C)CC1", "physical_data": {"Molecular Weight": "158.24", "Molecular Formula": "C8H18N2O", "Boiling Point": "108-110 \u00b0C @ Press: 3 Torr", "Melting Point": "30 \u00b0C"}}