{"cas_no": "5317-66-8", "cn_name": "2,3-\u4e8c\u6c2f\u82ef\u57fa\u4e59\u9178\u4e59\u916f", "en_name": ["Ethyl \u03b1,\u03b1-dichlorobenzeneacetate", "Benzeneacetic acid, \u03b1,\u03b1-dichloro-, ethyl ester", "Acetic acid, dichlorophenyl-, ethyl ester", "Ethyl \u03b1,\u03b1-dichlorobenzeneacetate", "Ethyl 2,2-dichloro-2-phenylacetate"], "SMILES": "C(C(OCC)=O)(Cl)(Cl)C1=CC=CC=C1", "physical_data": {"Molecular Weight": "233.09", "Molecular Formula": "C10H10Cl2O2", "Boiling Point": "156 \u00b0C @ Press: 24 Torr"}}