{"cas_no": "5317-32-8", "cn_name": "1-\u54cc\u55ea\u57fa\u4e19\u9187", "en_name": ["1-Piperazinepropanol", "1-Piperazinepropanol", "3-(1-Piperazinyl)-1-propanol", "N-(3-Hydroxypropyl)piperazine", "1-(3-Hydroxypropyl)piperazine", "1-(3-Hydroxy-1-propyl)piperazine", "3-(1-Piperazinyl)propanol", "4-(3-Hydroxypropyl)piperazine", "1-(3-Hydroxypropyl)-4-piperazine", "3-(Piperazin-1-yl)propan-1-ol"], "SMILES": "C(CCO)N1CCNCC1", "physical_data": {"Molecular Weight": "144.21", "Molecular Formula": "C7H16N2O", "Boiling Point": "115-120 \u00b0C @ Press: 0.7 Torr", "Melting Point": "200-215 \u00b0C"}}