{"cas_no": "53170-93-7", "cn_name": "3',4-\u4e8c\u7f9f\u57fa\u82ef\u4e19\u916e", "en_name": ["3-Hydroxy-1-(4-hydroxyphenyl)-1-propanone", "1-Propanone, 3-hydroxy-1-(4-hydroxyphenyl)-", "3-Hydroxy-1-(4-hydroxyphenyl)-1-propanone", "3,4\u2032-Dihydroxypropiophenone", "4-Hydroxy-(3-hydroxypropionyl)benzene"], "SMILES": "C(CCO)(=O)C1=CC=C(O)C=C1", "physical_data": {"Molecular Weight": "166.17", "Molecular Formula": "C9H10O3", "Melting Point": "141 \u00b0C"}}