{"cas_no": "5318-76-3", "cn_name": "1,3-\u53cc[3-(4,5-\u4e8c\u6c22-1H-\u54aa\u5511-2-\u57fa)\u82ef\u57fa]\u8132\u4e8c\u76d0\u9178\u76d0", "en_name": ["Imidocarb hydrochloride", "Urea, N,N\u2032-bis[3-(4,5-dihydro-1H-imidazol-2-yl)phenyl]-, hydrochloride (1:2)", "Carbanilide, 3,3\u2032-di-2-imidazolin-2-yl-, dihydrochloride", "Urea, N,N\u2032-bis[3-(4,5-dihydro-1H-imidazol-2-yl)phenyl]-, dihydrochloride", "Imidocarb hydrochloride", "Imizocarb", "4A65", "Imidocarb dihydrochloride", "3,3\u2032-Bis(2-imidazolin-2-yl)carbanilide dihydrochloride", "Diamidine", "Diamidine (babesicide)"], "SMILES": "N(C(NC1=CC(=CC=C1)C=2NCCN2)=O)C=3C=C(C=CC3)C=4NCCN4.Cl", "physical_data": {"Molecular Weight": "", "Molecular Formula": "C19H20N6O.2ClH", "Melting Point": "350 \u00b0C (decomp)"}}