{"cas_no": "53185-12-9", "cn_name": "(2R,3R,4R)-2-\u7f9f\u7532\u57fa\u54cc\u5576-3,4-\u4e8c\u9187", "en_name": ["Fagomine", "3,4-Piperidinediol, 2-(hydroxymethyl)-, (2R,3R,4R)-", "3,4-Piperidinediol, 2-(hydroxymethyl)-, [2R-(2\u03b1,3\u03b2,4\u03b1)]-", "(2R,3R,4R)-2-(Hydroxymethyl)-3,4-piperidinediol", "Fagomine", "1,2,5-Trideoxy-1,5-imino-D-arabino-hexitol", "D-Fagomine"], "SMILES": "C(O)C1C(O)C(O)CCN1", "physical_data": {"Molecular Weight": "147.17", "Molecular Formula": "C6H13NO3", "Melting Point": "185 \u00b0C"}}