{"cas_no": "5319-77-7", "cn_name": "2-\u6c28\u57fa-5-\u7532\u57fa\u786b\u4ee3-1,3,4-\u567b\u4e8c\u5511", "en_name": ["5-(Methylthio)-1,3,4-thiadiazol-2-amine", "1,3,4-Thiadiazol-2-amine, 5-(methylthio)-", "1,3,4-Thiadiazole, 2-amino-5-(methylthio)-", "5-(Methylthio)-1,3,4-thiadiazol-2-amine", "2-Amino-5-(methylthio)-1,3,4-thiadiazole", "2-Amino-5-methylthio-1,2,4-thiadiazol", "2-Amino-5-methylmercapto-1,3,4-thiadiazole", "5-(Methylthio)-2-amino-1,3,4-thiadiazole", "5-Amino-2-(methylthio)-1,3,4-thiadiazole", "NSC 67524", "5-(Methylthio)-[1,3,4]thiadiazol-2-amine", "2-Amino-5-(methylthio)thiadiazole", "2-Amino-5-methylthio-1,3,4-thiadiazol"], "SMILES": "S(C)C=1SC(N)=NN1", "physical_data": {"Molecular Weight": "147.22", "Molecular Formula": "C3H5N3S2", "Melting Point": "177-178 \u00b0C"}}