{"cas_no": "532-54-7", "cn_name": "2-\u5f02\u4e9a\u785d\u57fa\u82ef\u4e59\u916e", "en_name": ["Isonitrosoacetophenone", "Benzeneacetaldehyde, \u03b1-oxo-, aldoxime", "Glyoxal, phenyl-, 2-oxime", "Glyoxal, phenyl-, aldoxime", "Benzoylformaldoxime", "Isonitrosoacetophenone", "Phenylglyoxal aldoxime", "Phenylglyoxal 2-oxime", "2-(Hydroxyimino)acetophenone", "2-Isonitrosoacetophenone", "Phenylglyoxal monoxime", "RA 54", "\u03b1-(Hydroximino)acetophenone", "\u03b1-(Hydroxyimino)acetophenone", "NSC 1330", "NSC 25388"], "SMILES": "C(C=NO)(=O)C1=CC=CC=C1", "physical_data": {"Molecular Weight": "149.15", "Molecular Formula": "C8H7NO2", "Melting Point": "129 \u00b0C"}}