{"cas_no": "532-02-5", "cn_name": "2-\u8418\u78fa\u9178\u94a0", "en_name": ["Sodium 2-naphthalenesulfonate", "2-Naphthalenesulfonic acid, sodium salt (1:1)", "2-Naphthalenesulfonic acid, sodium salt", "\u03b2-Naphthalenesulfonic acid sodium salt", "Sodium \u03b2-naphthalenesulfonate", "Sodium naphthalene-6-sulfonate", "Sodium naphthalene-2-sulphonate", "Sodium 2-naphthalenesulfonate"], "SMILES": "S(=O)(=O)(O)C1=CC2=C(C=C1)C=CC=C2.[Na]", "physical_data": {"Molecular Weight": "", "Molecular Formula": "C10H8O3S.Na", "Melting Point": "172-173 \u00b0C"}}