{"cas_no": "532-55-8", "cn_name": "\u82ef\u7532\u9170\u57fa\u5f02\u786b\u6c30\u9178\u916f", "en_name": ["Benzoyl isothiocyanate", "Benzoyl isothiocyanate", "Benzoic acid, anhydride with isothiocyanic acid", "Isothiocyanic acid, anhydride with benzoic acid", "Benzoylthiocarbimide", "N-Benzoyl isothiocyanate", "NSC 29259"], "SMILES": "C(N=C=S)(=O)C1=CC=CC=C1", "physical_data": {"Molecular Weight": "163.20", "Molecular Formula": "C8H5NOS", "Boiling Point": "135 \u00b0C", "Melting Point": "&lt;25 \u00b0C"}}