{"cas_no": "532-31-0", "cn_name": "\u82ef\u7532\u9178\u94f6", "en_name": ["Silver benzoate", "Benzoic acid, silver(1+) salt (1:1)", "Benzoic acid, silver(1+) salt", "Silver benzoate", "Silver benzoate (AgOBz)", "Silver(1+) benzoate", "Silver(I) benzoate"], "SMILES": "C(O)(=O)C1=CC=CC=C1.[Ag]", "physical_data": {"Molecular Weight": "", "Molecular Formula": "C7H6O2.Ag", "Melting Point": "280 \u00b0C"}}