{"cas_no": "532-18-3", "cn_name": "2,2-\u4e8c\u8418\u80fa", "en_name": ["N-2-Naphthalenyl-2-naphthalenamine", "2-Naphthalenamine, N-2-naphthalenyl-", "Di-2-naphthylamine", "N-2-Naphthalenyl-2-naphthalenamine", "\u03b2,\u03b2\u2032-Dinaphthylamine", "2,2\u2032-Dinaphthylamine", "Di-\u03b2-naphthylamine", "N,N-Di(2-naphthyl)amine", "NSC 26664", "N,N-Bis(2-naphthyl)amine", "Bis(naphthalen-2-yl)amine", "Di(naphthalen-2-yl)amine", "Bis(2-naphthalenyl)amine"], "SMILES": "N(C1=CC2=C(C=C1)C=CC=C2)C3=CC4=C(C=C3)C=CC=C4", "physical_data": {"Molecular Weight": "269.34", "Molecular Formula": "C20H15N", "Boiling Point": "471 \u00b0C", "Melting Point": "172.2 \u00b0C"}}