{"cas_no": "532-48-9", "cn_name": "\u6cfd\u5170\u7d20", "en_name": ["Euparin", "Ethanone, 1-[6-hydroxy-2-(1-methylethenyl)-5-benzofuranyl]-", "Ketone, 6-hydroxy-2-isopropenyl-5-benzofuranyl methyl", "1-[6-Hydroxy-2-(1-methylethenyl)-5-benzofuranyl]ethanone", "Euparin", "Euparine", "1-[6-Hydroxy-2-(prop-1-en-2-yl)-1-benzofuran-5-yl]ethan-1-one"], "SMILES": "C(C)(=C)C=1OC=2C(=CC(C(C)=O)=C(O)C2)C1", "physical_data": {"Molecular Weight": "216.23", "Molecular Formula": "C13H12O3", "Melting Point": "118.5 \u00b0C"}}