{"cas_no": "532-91-2", "cn_name": "6-\u7532\u6c27\u57fa-2-\u82ef\u5511\u5549\u916e", "en_name": ["Coixol", "2(3H)-Benzoxazolone, 6-methoxy-", "2-Benzoxazolinone, 6-methoxy-", "6-Methoxy-2(3H)-benzoxazolone", "Coixol", "6-Methoxy-2-benzoxazolinone", "6-Methoxybenzoxazolinone", "MBOA", "6-MBOA", "6-Methoxy-3H-benzoxazol-2-one", "6-Methoxybenzoxazolin-2(3H)-one", "6-Methoxybenzo[d]oxazol-2(3H)-one"], "SMILES": "O=C1NC=2C(=CC(OC)=CC2)O1", "physical_data": {"Molecular Weight": "165.15", "Molecular Formula": "C8H7NO3", "Melting Point": "151.5-152.5 \u00b0C"}}