{"cas_no": "532-12-7", "cn_name": "\u9ea6\u53f8\u660e", "en_name": ["Myosmine", "Pyridine, 3-(3,4-dihydro-2H-pyrrol-5-yl)-", "Pyridine, 3-(1-pyrrolin-2-yl)-", "3-(3,4-Dihydro-2H-pyrrol-5-yl)pyridine", "Myosmine", "2-(3-Pyridyl)-1-pyrroline"], "SMILES": "C=1(CCCN1)C=2C=CC=NC2", "physical_data": {"Molecular Weight": "146.19", "Molecular Formula": "C9H10N2", "Boiling Point": "125 \u00b0C @ Press: 8 Torr", "Melting Point": "42-43 \u00b0C"}}