{"cas_no": "532-28-5", "cn_name": "\u6241\u6843\u8148", "en_name": ["Mandelonitrile", "Benzeneacetonitrile, \u03b1-hydroxy-", "Mandelonitrile", "\u03b1-Hydroxybenzeneacetonitrile", "Phenylglycolonitrile", "Mandelic acid nitrile", "\u03b1-Cyanobenzyl alcohol", "Benzaldehyde, cyanohydrin", "\u03b1-Hydroxyphenylacetonitrile", "2-Hydroxy-2-phenylacetonitrile", "dl-Mandelonitrile", "(\u00b1)-Mandelonitrile", "(\u00b1)-\u03b1-Mandelonitrile", "NSC 77668", "\u03b1-Hydroxybenzyl cyanide", "Alpha-hydroxy phenylacetonitrile"], "SMILES": "C(C#N)(O)C1=CC=CC=C1", "physical_data": {"Molecular Weight": "133.15", "Molecular Formula": "C8H7NO", "Boiling Point": "98-102 \u00b0C @ Press: 12-14 Torr", "Melting Point": "-10 \u00b0C"}}