{"cas_no": "532-65-0", "cn_name": "(6S)-2-\u7532\u57fa-6-(4-\u7532\u57fa\u82ef\u57fa)-2-\u5e9a\u70ef-4-\u916e", "en_name": ["(+)-Turmerone", "2-Hepten-4-one, 2-methyl-6-(4-methylphenyl)-, (6S)-", "2-Hepten-4-one, 2-methyl-6-p-tolyl-", "ar-Turmerone", "2-Hepten-4-one, 2-methyl-6-(4-methylphenyl)-, (S)-", "(6S)-2-Methyl-6-(4-methylphenyl)-2-hepten-4-one", "(S)-ar-Turmerone", "(+)-ar-Turmerone", "ar-(+)-Turmerone", "ar-Tumerone", "(+)-(S)-ar-Turmerone", "(+)-Turmerone", "(S)-(+)-ar-Turmerone", "(+)-(S)-ar-turmerone", "ar-Turmerone", "(6S)-2-Methyl-6-(4-methylphenyl)hept-2-en-4-one"], "SMILES": "C(CC(C=C(C)C)=O)(C)C1=CC=C(C)C=C1", "physical_data": {"Molecular Weight": "216.32", "Molecular Formula": "C15H20O", "Boiling Point": "159-160 \u00b0C @ Press: 10 Torr", "Density": "0.9634 g/cm\u00b3 @ Temp: 20 \u00b0C"}}