{"cas_no": "532-32-1", "cn_name": "\u82ef\u7532\u9178\u94a0", "en_name": ["Sodium benzoate", "Benzoic acid, sodium salt (1:1)", "Sodium benzoate", "Benzoic acid, sodium salt", "Antimol", "Benzoate of soda", "Sobenate", "E 211", "Fuminaru", "Purox S", "E 221", "E 221 (nucleating agent)", "Microcare SB", "Probenz", "FZ 001", "NB 3010C", "NAR 6", "Kalagard SB", "SF Inhibitor 6843", "MeSH ID: D020160"], "SMILES": "C(O)(=O)C1=CC=CC=C1.[Na]", "physical_data": {"Molecular Weight": "", "Molecular Formula": "C7H6O2.Na", "Melting Point": "&gt;300 \u00b0C"}}