{"cas_no": "532-27-4", "cn_name": "alpha-\u6c2f\u4e59\u9170\u82ef", "en_name": ["2-Chloroacetophenone", "Ethanone, 2-chloro-1-phenyl-", "Acetophenone, 2-chloro-", "Acetophenone, \u03b1-chloro-", "2-Chloro-1-phenylethanone", "CAF", "2-Chloroacetophenone", "\u03b1-Chloroacetophenone", "\u03c9-Chloroacetophenone", "Phenacyl chloride", "CN", "Phenyl chloromethyl ketone", "Chloracetophenone", "Mace (lacrimator)", "1-Phenyl-2-chloro-1-ethanone", "Chloromethyl phenyl ketone", "Mace", "Chloroacetophenone", "CN (lacrimator)", "(2-Chloro-1-oxoethyl)benzene", "Benzoylmethyl chloride", "CAP", "2-Chloro-1-phenyl-1-ethanone", "NSC 41666", "CNB", "CNC", "Agent CNB", "Agent CNC", "CNB (chemical warfare agent)", "(Chloroacetyl)benzene"], "SMILES": "C(CCl)(=O)C1=CC=CC=C1", "physical_data": {"Molecular Weight": "154.59", "Molecular Formula": "C8H7ClO", "Boiling Point": "244-245 \u00b0C", "Melting Point": "54-59 \u00b0C", "Density": "1.324 g/cm\u00b3 @ Temp: 15 \u00b0C"}}