{"cas_no": "532-43-4", "cn_name": "\u785d\u9178\u786b\u80fa", "en_name": ["Thiamine nitrate", "Thiazolium, 3-[(4-amino-2-methyl-5-pyrimidinyl)methyl]-5-(2-hydroxyethyl)-4-methyl-, nitrate (1:1)", "Thiamine nitrate (salt)", "Thiamine nitrate", "Thiazolium, 3-[(4-amino-2-methyl-5-pyrimidinyl)methyl]-5-(2-hydroxyethyl)-4-methyl-, nitrate (salt)", "3-(4-Amino-2-methylpyrimidyl-5-methyl)-4-methyl-5,\u03b2-hydroxyethylthiazolium nitrate", "Aneurine mononitrate", "Betabion mononitrate", "Thiamine mononitrate", "Vitamin B1 mononitrate", "Vitamin B1 nitrate", "Aneurine-nitrate"], "SMILES": "C([N+]=1C(C)=C(CCO)SC1)C=2C(N)=NC(C)=NC2.N(=O)(=O)[O-]", "physical_data": {"Molecular Weight": "", "Molecular Formula": "C12H17N4OS.NO3", "Melting Point": "196-200 \u00b0C (decomp)"}}