{"cas_no": "532-11-6", "cn_name": "\u8334\u4e09\u786b", "en_name": ["5-(4-Methoxyphenyl)-3H-1,2-dithiole-3-thione", "3H-1,2-Dithiole-3-thione, 5-(4-methoxyphenyl)-", "3H-1,2-Dithiole-3-thione, 5-(p-methoxyphenyl)-", "1,2-Dithiole-3-thione, 5-(p-methoxyphenyl)-", "5-(4-Methoxyphenyl)-3H-1,2-dithiole-3-thione", "Anethole trithione", "5-(p-Methoxyphenyl)-1,2-dithiole-3-thione", "Sulfarlem", "Trithio-(p-methoxyphenyl)propene", "Sulfogal", "5-(p-Methoxyphenyl)-3H-1,2-dithiole-3-thione", "3-(p-Methoxyphenyl)trithione", "SKF 1717", "ADT", "Felviten", "Tiopropen", "Tiotrifar", "Trithio", "Anethole dithiolthione", "Secrebil", "Mucinol", "Trithioanethole", "Sulfralem", "Heporal", "5-(4-Methoxyphenyl)-3H-1,2-dithiol-3-thione", "MeSH ID: D000781"], "SMILES": "S=C1C=C(SS1)C2=CC=C(OC)C=C2", "physical_data": {"Molecular Weight": "240.36", "Molecular Formula": "C10H8OS3", "Melting Point": "111 \u00b0C"}}