{"cas_no": "532-03-6", "cn_name": "\u7f8e\u7d22\u5df4\u83ab", "en_name": ["Methocarbamol", "1,2-Propanediol, 3-(2-methoxyphenoxy)-, 1-carbamate", "1,2-Propanediol, 3-(o-methoxyphenoxy)-, 1-carbamate", "Carbamic acid, 2-hydroxy-3-(o-methoxyphenoxy)propyl ester", "AHR 85", "Glycerylguaiacolate carbamate", "Guaiacol glyceryl ether carbamate", "2-Hydroxy-3-(o-methoxyphenoxy)propyl carbamate", "Lumirelax", "Methocarbamol", "3-(2-Methoxyphenoxy)-1-glyceryl carbamate", "3-(o-Methoxyphenoxy)-2-hydroxypropyl carbamate", "3-(o-Methoxyphenoxy)-1,2-propanediol 1-carbamate", "Neuraxin", "Robaxin", "Robinax", "Guaiphenesin carbamate", "Miolaxene", "Avetil", "Surquetil", "Etroflex", "Reflexyn", "racemic-Methocarbamol", "guaiamar carbamate", "Traumacut", "Robamol", "Delaxin", "Tresortil", "Relestrid", "NSC 170960", "1-Carbamoyloxy-3-(2\u2032-methoxyphenoxy)-2-propanol", "[2-Hydroxy-3-(2-methoxyphenoxy)propyl] carbamate", "2-Hydroxy-3-(2-methoxyphenoxy)propyl carbamate", "MeSH ID: D008721"], "SMILES": "O(CC(COC(N)=O)O)C1=C(OC)C=CC=C1", "physical_data": {"Molecular Weight": "241.24", "Molecular Formula": "C11H15NO5", "Melting Point": "92-94 \u00b0C"}}