{"cas_no": "532-24-1", "cn_name": "\u6258\u54c1\u916e", "en_name": ["Tropinone", "8-Azabicyclo[3.2.1]octan-3-one, 8-methyl-", "1\u03b1H,5\u03b1H-Tropan-3-one", "Tropinone", "Tropanone", "8-Methyl-8-azabicyclo[3.2.1]octan-3-one", "3-Tropanone", "3-Tropinone", "Tropanon", "Tropinon", "N-Methyl-8-azabicyclo[3.2.1]octan-3-one", "NSC 118012"], "SMILES": "CN1C2CC(=O)CC1CC2", "physical_data": {"Molecular Weight": "139.19", "Molecular Formula": "C8H13NO", "Boiling Point": "227 \u00b0C", "Melting Point": "43 \u00b0C"}}