{"cas_no": "532-34-3", "cn_name": "\u907f\u866b\u916e", "en_name": ["Butopyronoxyl", "2H-Pyran-6-carboxylic acid, 3,4-dihydro-2,2-dimethyl-4-oxo-, butyl ester", "Butopyronoxyl", "Butyl 3,4-dihydro-2,2-dimethyl-4-oxo-2H-pyran-6-carboxylate", "n-Butyl ester of 3,4-dihydro-2,2-dimethyl-4-oxo-2H-pyran-6-carboxylic acid", "2-Carbo-n-butoxy-6,6-dimethyl-5,6-dihydro-1,4-pyrone", "2,2-Dimethyl-6-carbobutoxy-2,3-dihydro-4-pyrone", "\u03b1,\u03b1-Dimethyl-\u03b1\u2032-carbobutoxy-dihydro-\u03b3-pyrone", "Indalone", "BMOO", "Butyl mesityl oxide oxalate", "NSC 404420", "NSC 5750"], "SMILES": "C(OCCCC)(=O)C=1OC(C)(C)CC(=O)C1", "physical_data": {"Molecular Weight": "226.27", "Molecular Formula": "C12H18O4", "Boiling Point": "256-270 \u00b0C @ Press: 760 Torr", "Melting Point": "&lt;25 \u00b0C", "Density": "1.052-1.060 g/cm\u00b3 @ Temp: 25 \u00b0C"}}