{"cas_no": "532-82-1", "cn_name": "\u78b1\u6027\u6a59 2", "en_name": ["Chrysoidine", "1,3-Benzenediamine, 4-(2-phenyldiazenyl)-, hydrochloride (1:1)", "C.I. Basic Orange 2, monohydrochloride", "C.I. Basic Orange 2", "1,3-Benzenediamine, 4-(phenylazo)-, monohydrochloride", "C.I. 11270", "Astra Chrysoidine R", "Brasilazina Orange Y", "Calcozine Orange YS", "Chrysoidine", "Chrysoidine A", "Chrysoidine G", "Chrysoidine J", "Chrysoidine Y", "Chrysoidine Y Crystals", "Chrysoidine C", "Chrysoidine B", "Chrysoidine M", "Chrysoidine GN", "Chrysoidine GS", "Chrysoidine HR", "Chrysoidine orange", "Chrysoidine PRL", "Chrysoidine PRR", "Chrysoidine SL", "Chrysoidine Y Special", "Chrysoidine SS", "Chrysoidine YL", "Chrysoidine YN", "Chrysoidin FB", "2,4-Diaminoazobenzene hydrochloride", "Diazocard Chrysoidine G", "Leather Orange HR", "Nippon Kagaku Chrysoidine", "Pure Chrysoidine YBH", "Sugai Chrysoidine", "Tertrophene Brown CG", "Chrysoidin", "Chrysoidine II", "Chrysoidine hydrochloride", "Atlantic Chrysoidine Y", "Verona Chrysoidine GN", "Basic Orange 2", "Basonyl Orange 200", "Chrysodine"], "SMILES": "N(=NC1=CC=CC=C1)C2=C(N)C=C(N)C=C2.Cl", "physical_data": {"Molecular Weight": "", "Molecular Formula": "C12H12N4.ClH", "Boiling Point": "2262 \u00b0C", "Melting Point": "118-118.5 \u00b0C"}}