{"cas_no": "53207-00-4", "cn_name": "2-\u6eb4-4,5-\u4e8c\u7532\u6c27\u57fa\u6eb4\u82c4", "en_name": ["2-Bromo-4,5-dimethoxybenzyl bromide", "Benzene, 1-bromo-2-(bromomethyl)-4,5-dimethoxy-", "Veratrole, 4-bromo-5-(bromomethyl)-", "1-Bromo-2-(bromomethyl)-4,5-dimethoxybenzene", "1-Bromo-2-bromomethyl-4,5-dimethoxybenzene", "2-Bromo-4,5-dimethoxybenzyl bromide"], "SMILES": "O(C)C1=C(OC)C=C(Br)C(CBr)=C1", "physical_data": {"Molecular Weight": "309.98", "Molecular Formula": "C9H10Br2O2", "Melting Point": "84.0-85.5 \u00b0C"}}