{"cas_no": "53219-21-9", "cn_name": "\u4e8c\u6c22\u6708\u6842\u70ef\u9187", "en_name": ["Dihydromyrcenol", "7-Octen-2-ol, 2-methyl-6-methylene-, dihydro deriv.", "Myrcenol, dihydro-", "Dihydromyrcenol"], "SMILES": "", "physical_data": {"Molecular Weight": "", "Molecular Formula": "C10H20O", "Boiling Point": "91 \u00b0C @ Press: 10 Torr"}}