{"cas_no": "5321-49-3", "cn_name": "1-(1-\u82ef\u57fa\u4e59\u57fa)\u54cc\u55ea", "en_name": ["1-(2-Phenylethyl)piperazine", "Piperazine, 1-(2-phenylethyl)-", "Piperazine, 1-phenethyl-", "1-(2-Phenylethyl)piperazine", "1-Phenethylpiperazine", "N-(\u03b2-Phenylethyl)piperazine", "N-Phenethylpiperazine", "4-Phenethylpiperazine", "N-(2-Phenylethyl)piperazine"], "SMILES": "C(CN1CCNCC1)C2=CC=CC=C2", "physical_data": {"Molecular Weight": "190.28", "Molecular Formula": "C12H18N2", "Boiling Point": "156-158 \u00b0C @ Press: 10 Torr", "Melting Point": "156 \u00b0C"}}