{"cas_no": "5321-63-1", "cn_name": "N-\u82c4\u57fa\u54cc\u55ea\u4e8c\u76d0\u9178\u76d0", "en_name": ["Piperazine, 1-(phenylmethyl)-, hydrochloride (1:2)", "Piperazine, 1-(phenylmethyl)-, hydrochloride (1:2)", "Piperazine, 1-benzyl-, dihydrochloride", "Piperazine, 1-(phenylmethyl)-, dihydrochloride", "Benzylpiperazine dihydrochloride", "1-Benzylpiperazine dihydrochloride", "N-Benzylpiperazine dihydrochloride"], "SMILES": "C(C1=CC=CC=C1)N2CCNCC2.Cl", "physical_data": {"Molecular Weight": "", "Molecular Formula": "C11H16N2.2ClH", "Melting Point": "253 \u00b0C"}}