{"cas_no": "5321-47-1", "cn_name": "1-(2-\u7532\u57fa\u82ef\u57fa)\u54cc\u55ea", "en_name": ["1-[(2-Methylphenyl)methyl]piperazine", "Piperazine, 1-[(2-methylphenyl)methyl]-", "Piperazine, 1-(o-methylbenzyl)-", "1-[(2-Methylphenyl)methyl]piperazine", "1-(2-Methylbenzyl)piperazine", "N-(o-Methylbenzyl)piperazine", "1-(o-Methylbenzyl)piperazine"], "SMILES": "C(C1=C(C)C=CC=C1)N2CCNCC2", "physical_data": {"Molecular Weight": "190.28", "Molecular Formula": "C12H18N2", "Boiling Point": "88 \u00b0C @ Press: 0.1 Torr"}}