{"cas_no": "5321-48-2", "cn_name": "1-(3-\u7532\u57fa\u82ef\u57fa)\u54cc\u55ea", "en_name": ["1-(3-Methylbenzyl)piperazine", "Piperazine, 1-[(3-methylphenyl)methyl]-", "Piperazine, 1-(m-methylbenzyl)-", "1-[(3-Methylphenyl)methyl]piperazine", "1-(3-Methylbenzyl)piperazine", "N-(m-Methylbenzyl)piperazine", "1-(m-Methylbenzyl)piperazine", "NSC 30681"], "SMILES": "C(C1=CC(C)=CC=C1)N2CCNCC2", "physical_data": {"Molecular Weight": "190.28", "Molecular Formula": "C12H18N2", "Boiling Point": "120-121 \u00b0C @ Press: 2 Torr", "Melting Point": "110 \u00b0C"}}