{"cas_no": "53222-92-7", "cn_name": "2-\u7532\u57fa-3-\u6c28\u57fa\u82ef\u915a", "en_name": ["3-Amino-2-methylphenol", "Phenol, 3-amino-2-methyl-", "o-Cresol, 3-amino-", "3-Amino-2-methylphenol", "2-Methyl-3-aminophenol", "3-Amino-o-cresol", "2-Amino-6-hydroxytoluene", "3-Hydroxy-2-methylaniline", "3-Amino-2-cresol"], "SMILES": "CC1=C(N)C=CC=C1O", "physical_data": {"Molecular Weight": "123.15", "Molecular Formula": "C7H9NO", "Melting Point": "124-129 \u00b0C"}}