{"cas_no": "5323-87-5", "cn_name": "3-\u4e59\u6c27\u57fa-2-\u73af\u5df1\u70ef-1-\u916e", "en_name": ["3-Ethoxy-2-cyclohexen-1-one", "2-Cyclohexen-1-one, 3-ethoxy-", "3-Ethoxy-2-cyclohexen-1-one", "3-Ethoxy-2-cyclohexenone", "3-Ethoxy-2-cyclohexene-1-one", "NSC 2826", "1-Ethoxy-2-cyclohexen-3-one"], "SMILES": "O(CC)C1=CC(=O)CCC1", "physical_data": {"Molecular Weight": "140.18", "Molecular Formula": "C8H12O2", "Boiling Point": "104-106 \u00b0C @ Press: 6 Torr"}}