{"cas_no": "53234-55-2", "cn_name": "5-\u6c30\u57fa\u5421\u5576-2-\u7fa7\u9178\u30015-\u6c30\u57fa-2-\u5421\u5576\u7532\u9178", "en_name": ["5-Cyanopicolinic acid", "2-Pyridinecarboxylic acid, 5-cyano-", "5-Cyano-2-pyridinecarboxylic acid", "5-Cyanopicolinic acid", "5-Cyanopicoliniic acid"], "SMILES": "C(O)(=O)C1=CC=C(C#N)C=N1", "physical_data": {"Molecular Weight": "148.12", "Molecular Formula": "C7H4N2O2", "Melting Point": "220 \u00b0C"}}