{"cas_no": "5323-27-3", "cn_name": "5alpha-\u96c4\u753e-1-\u70ef-3beta,17beta-\u4e8c\u9187", "en_name": ["5\u03b1-Androst-1-ene-3\u03b2,17\u03b2-diol", "Androst-1-ene-3,17-diol, (3\u03b2,5\u03b1,17\u03b2)-", "5\u03b1-Androst-1-ene-3\u03b2,17\u03b2-diol", "(3\u03b2,5\u03b1,17\u03b2)-Androst-1-ene-3,17-diol"], "SMILES": "CC12C3C(C4C(C)(CC3)C(O)CC4)CCC1CC(O)C=C2", "physical_data": {"Molecular Weight": "290.44", "Molecular Formula": "C19H30O2", "Melting Point": "154-156 \u00b0C"}}