{"cas_no": "53233-89-9", "cn_name": "5-\u6c2f-2,3-\u4e8c\u7f9f\u57fa\u5421\u5576", "en_name": ["5-Chloro-2,3-dihydroxypyridine", "2(1H)-Pyridinone, 5-chloro-3-hydroxy-", "5-Chloro-3-hydroxy-2(1H)-pyridinone", "5-Chloro-2,3-dihydroxypyridine", "5-Chloro-2,3-pyridinediol", "NSC 137836"], "SMILES": "OC=1C(=O)NC=C(Cl)C1", "physical_data": {"Molecular Weight": "145.54", "Molecular Formula": "C5H4ClNO2", "Melting Point": "290-295 \u00b0C"}}