{"cas_no": "5324-30-1", "cn_name": "2-\u6eb4\u4e59\u57fa\u81a6\u9178\u4e8c\u4e59\u916f", "en_name": ["Diethyl P-(2-bromoethyl)phosphonate", "Phosphonic acid, P-(2-bromoethyl)-, diethyl ester", "Phosphonic acid, (2-bromoethyl)-, diethyl ester", "Diethyl P-(2-bromoethyl)phosphonate", "(2-Bromoethyl)phosphonic acid diethyl ester", "Diethyl (2-bromoethyl)phosphonate", "O,O-Diethyl (2-bromoethyl)phosphonate", "NSC 119421", "NSC 2672", "Diethyl bromoethylphosphonate", "1-Bromo-2-diethoxyphosphoryl-ethane", "1-Bromo-2-diethoxyphosphorylethane"], "SMILES": "P(CCBr)(OCC)(OCC)=O", "physical_data": {"Molecular Weight": "245.05", "Molecular Formula": "C6H14BrO3P", "Boiling Point": "101 \u00b0C @ Press: 0.8 Torr", "Density": "1.0154 g/cm\u00b3 @ Temp: 20 \u00b0C"}}