{"cas_no": "53242-88-9", "cn_name": "4-(4-\u6c2f\u82c4\u57fa)-1-(2H)-\u915e\u55ea\u916e", "en_name": ["4-[(4-Chlorophenyl)methyl]-1(2H)-phthalazinone", "1(2H)-Phthalazinone, 4-[(4-chlorophenyl)methyl]-", "1(2H)-Phthalazinone, 4-p-chlorobenzyl-", "4-[(4-Chlorophenyl)methyl]-1(2H)-phthalazinone", "4-(4-Chlorobenzyl)-1(2H)-phthalazinone"], "SMILES": "C(C=1C=2C(C(=O)NN1)=CC=CC2)C3=CC=C(Cl)C=C3", "physical_data": {"Molecular Weight": "270.71", "Molecular Formula": "C15H11ClN2O", "Melting Point": "206-207 \u00b0C"}}