{"cas_no": "5325-97-3", "cn_name": "1,2,3,4,5,6,7,8-\u516b\u6c22\u83f2", "en_name": ["1,2,3,4,5,6,7,8-Octahydrophenanthrene", "Phenanthrene, 1,2,3,4,5,6,7,8-octahydro-", "1,2,3,4,5,6,7,8-Octahydrophenanthrene", "sym-Octahydrophenanthrene", "NSC 240"], "SMILES": "C=12C3=C(C=CC1CCCC2)CCCC3", "physical_data": {"Molecular Weight": "186.29", "Molecular Formula": "C14H18", "Boiling Point": "295 \u00b0C", "Melting Point": "16.7 \u00b0C", "Density": "1.026 g/cm\u00b3 @ Temp: 20 \u00b0C"}}