{"cas_no": "53251-94-8", "cn_name": "\u5339\u7ef4\u6eb4\u94f5", "en_name": ["Pinaverium bromide", "Morpholinium, 4-[(2-bromo-4,5-dimethoxyphenyl)methyl]-4-[2-[2-(6,6-dimethylbicyclo[3.1.1]hept-2-yl)ethoxy]ethyl]-, bromide (1:1)", "Morpholinium, 4-[(2-bromo-4,5-dimethoxyphenyl)methyl]-4-[2-[2-(6,6-dimethylbicyclo[3.1.1]hept-2-yl)ethoxy]ethyl]-, bromide", "Pinaverium bromide", "Dicetel", "LAT 1717", "L-Pinaverium bromide", "Eldicet"], "SMILES": "C([N+]1(CCOCCC2C3C(C)(C)C(C3)CC2)CCOCC1)C4=CC(OC)=C(OC)C=C4Br.[Br-]", "physical_data": {"Molecular Weight": "", "Molecular Formula": "C26H41BrNO4.Br", "Melting Point": "181 \u00b0C"}}