{"cas_no": "5325-94-0", "cn_name": "1-\u54cc\u5576\u7fa7\u9178\u4e59\u916f", "en_name": ["1-Piperidinecarboxylic acid, ethyl ester", "1-Piperidinecarboxylic acid, ethyl ester", "N-Carbethoxypiperidine", "Ethyl 1-piperidinecarboxylate", "N-(Ethoxycarbonyl)piperidine", "NSC 100911", "NSC 236", "1-Ethoxycarbonylpiperidine", "N-Carboethoxypiperidine"], "SMILES": "C(OCC)(=O)N1CCCCC1", "physical_data": {"Molecular Weight": "157.21", "Molecular Formula": "C8H15NO2", "Boiling Point": "213-215 \u00b0C @ Press: 780 Torr"}}