{"cas_no": "5325-20-2", "cn_name": "(2H)1,4-\u82ef\u5e76\u567b\u55ea-3(4H)-\u916e", "en_name": ["2H-1,4-Benzothiazin-3(4H)-one", "2H-1,4-Benzothiazin-3(4H)-one", "3,4-Dihydro-3-oxo-2H-1,4-benzothiazine", "1,4-Benzothiazin-3-one", "2,3-Dihydro-3-oxo-4H-1,4-benzothiazine", "4H-Benzo[1,4]thiazin-3-one", "NSC 130", "4H-Benzothiazin-3-one", "3-Oxo-3,4-dihydro-2H-1,4-benzothiazine", "2H-Benzo[b][1,4]thiazin-3(4H)-one", "3-Oxo-1,4-benzothiazine", "3,4-Dihydro-2H-1,4-benzothiazin-3-one"], "SMILES": "O=C1NC=2C(SC1)=CC=CC2", "physical_data": {"Molecular Weight": "165.21", "Molecular Formula": "C8H7NOS", "Melting Point": "179 \u00b0C"}}