{"cas_no": "53250-83-2", "cn_name": "2-\u6c2f-4-\u7532\u781c\u57fa\u82ef\u7532\u9178", "en_name": ["2-Chloro-4-(methylsulfonyl)benzoic acid", "Benzoic acid, 2-chloro-4-(methylsulfonyl)-", "2-Chloro-4-(methylsulfonyl)benzoic acid"], "SMILES": "S(C)(=O)(=O)C1=CC(Cl)=C(C(O)=O)C=C1", "physical_data": {"Molecular Weight": "234.66", "Molecular Formula": "C8H7ClO4S", "Melting Point": "193-195 \u00b0C"}}