{"cas_no": "5326-38-5", "cn_name": "2-\u7898-5-\u785d\u57fa\u7532\u82ef", "en_name": ["1-Iodo-2-methyl-4-nitrobenzene", "Benzene, 1-iodo-2-methyl-4-nitro-", "1-Iodo-2-methyl-4-nitrobenzene", "2-Iodo-5-nitrotoluene", "NSC 293", "6-Iodo-3-nitrotoluene", "2-Methyl-4-nitrophenyl iodide", "2-Methyl-4-nitro-1-iodobenzene"], "SMILES": "N(=O)(=O)C1=CC(C)=C(I)C=C1", "physical_data": {"Molecular Weight": "263.03", "Molecular Formula": "C7H6INO2", "Melting Point": "100-103 \u00b0C"}}