{"cas_no": "5326-34-1", "cn_name": "4-\u6eb4-3-\u785d\u57fa\u7532\u82ef", "en_name": ["1-Bromo-4-methyl-2-nitrobenzene", "Benzene, 1-bromo-4-methyl-2-nitro-", "Toluene, 4-bromo-3-nitro-", "1-Bromo-4-methyl-2-nitrobenzene", "2-Bromo-5-methylnitrobenzene", "4-Bromo-3-nitrotoluene", "NSC 289"], "SMILES": "N(=O)(=O)C1=C(Br)C=CC(C)=C1", "physical_data": {"Molecular Weight": "216.03", "Molecular Formula": "C7H6BrNO2", "Boiling Point": "147-148 \u00b0C @ Press: 13 Torr", "Melting Point": "30.2-31.2 \u00b0C"}}