{"cas_no": "53267-01-9", "cn_name": "\u897f\u82ef\u5511\u5549", "en_name": ["Cibenzoline", "1H-Imidazole, 2-(2,2-diphenylcyclopropyl)-4,5-dihydro-", "2-(2,2-Diphenylcyclopropyl)-4,5-dihydro-1H-imidazole", "Cibenzoline", "Cifenline", "(RS)-Cibenzoline", "(\u00b1)-Cibenzoline", "UP 33-901", "Ro 22-7796"], "SMILES": "C1(C(C1)C=2NCCN2)(C3=CC=CC=C3)C4=CC=CC=C4", "physical_data": {"Molecular Weight": "262.35", "Molecular Formula": "C18H18N2", "Melting Point": "103.5 \u00b0C"}}