{"cas_no": "5326-23-8", "cn_name": "6-\u6c2f\u70df\u9178", "en_name": ["6-Chloronicotinic acid", "3-Pyridinecarboxylic acid, 6-chloro-", "Nicotinic acid, 6-chloro-", "6-Chloro-3-pyridinecarboxylic acid", "6-Chloronicotinic acid", "2-Chloro-5-pyridinecarboxylic acid", "3-Carboxy-6-chloropyridine", "NSC 277", "6-Chloropyridin-3-carboxylic acid"], "SMILES": "C(O)(=O)C=1C=CC(Cl)=NC1", "physical_data": {"Molecular Weight": "157.55", "Molecular Formula": "C6H4ClNO2", "Melting Point": "199 \u00b0C"}}