{"cas_no": "53266-94-7", "cn_name": "2-\u6c28\u57fa-4-\u567b\u5511\u4e59\u9178\u4e59\u916f", "en_name": ["Ethyl 2-amino-4-thiazoleacetate", "4-Thiazoleacetic acid, 2-amino-, ethyl ester", "Ethyl 2-amino-4-thiazoleacetate", "Ethyl 2-aminothiazol-4-ylacetate", "2-Amino-4-(carbethoxymethyl)thiazole", "2-Amino-4-thiazoleacetic acid ethyl ester", "(2-Amino-1,3-thiazol-4-yl)acetic acid ethyl ester", "Ethyl 2-(2-aminothiazol-4-yl)acetate", "(2-Amino-4-thiazolyl)acetic acid ethyl ester", "2-(2-Aminothiazol-4-yl)acetic acid ethyl ester", "2-Amino-4-[(ethoxycarbonyl)methyl]thiazole", "2-Amino-4-(ethoxycarbonylmethyl)-1,3-thiazole", "Ethyl (2-amino-1,3-thiazol-4-yl)acetate", "(2-Amino-thiazole-4-yl)acetic acid ethyl ester", "Ethyl 2-(2-amino-1,3-thiazol-4-yl)acetate"], "SMILES": "C(C(OCC)=O)C=1N=C(N)SC1", "physical_data": {"Molecular Weight": "186.23", "Molecular Formula": "C7H10N2O2S", "Melting Point": "94-95 \u00b0C"}}