{"cas_no": "5326-47-6", "cn_name": "2-\u6c28\u57fa-5-\u7898\u82ef\u7532\u9178", "en_name": ["2-Amino-5-iodobenzoic acid", "Benzoic acid, 2-amino-5-iodo-", "Anthranilic acid, 5-iodo-", "2-Amino-5-iodobenzoic acid", "5-Iodoanthranilic acid", "NSC 302", "5-Iodo-2-aminobenzoic acid"], "SMILES": "C(O)(=O)C1=C(N)C=CC(I)=C1", "physical_data": {"Molecular Weight": "263.03", "Molecular Formula": "C7H6INO2", "Melting Point": "220 \u00b0C (decomp)"}}