{"cas_no": "53266-92-5", "cn_name": "2-\u6c28\u57fa-4-\u82ef\u57fa-5-\u567b\u5511\u7532\u9178\u4e59\u916f", "en_name": ["5-Thiazolecarboxylic acid, 2-amino-4-methyl-, ethyl ester, hydrochloride (1:1)", "5-Thiazolecarboxylic acid, 2-amino-4-methyl-, ethyl ester, hydrochloride (1:1)", "5-Thiazolecarboxylic acid, 2-amino-4-methyl-, ethyl ester, monohydrochloride", "5-Thiazolecarboxylic acid, 2-amino-4-methyl-, ethyl ester, hydrochloride", "Ethyl 2-amino-4-methylthiazole-5-carboxylate hydrochloride", "2-Amino-4-methyl-thiazole-5-carboxylic acid ethyl ester hydrochloride"], "SMILES": "C(OCC)(=O)C1=C(C)N=C(N)S1.Cl", "physical_data": {"Molecular Weight": "", "Molecular Formula": "C7H10N2O2S.ClH", "Melting Point": "216-217 \u00b0C (decomp)"}}