{"cas_no": "5327-45-7", "cn_name": "N-\u82c4\u57fa\u786c\u8102\u9170\u80fa", "en_name": ["N-(Phenylmethyl)octadecanamide", "Octadecanamide, N-(phenylmethyl)-", "Octadecanamide, N-benzyl-", "Stearamide, N-benzyl-", "N-(Phenylmethyl)octadecanamide", "N-Benzylstearamide", "NSC 3333", "N-Benzyloctadecanamide"], "SMILES": "C(NC(CCCCCCCCCCCCCCCCC)=O)C1=CC=CC=C1", "physical_data": {"Molecular Weight": "373.61", "Molecular Formula": "C25H43NO", "Melting Point": "86-88 \u00b0C"}}