{"cas_no": "5327-32-2", "cn_name": "2-(\u4e59\u9170\u6c28\u57fa)-4-\u7532\u57fa\u5421\u5576", "en_name": ["N-(4-Methyl-2-pyridinyl)acetamide", "Acetamide, N-(4-methyl-2-pyridinyl)-", "Acetamide, N-(4-methyl-2-pyridyl)-", "4-Picoline, 2-acetamido-", "N-(4-Methyl-2-pyridinyl)acetamide", "2-Acetamido-4-methylpyridine", "2-(Acetylamino)-4-methylpyridine", "N-[4-Methylpyridyl]acetamide", "N-(4-Methylpyridin-2-yl)acetamide", "NSC 3314", "2-Acetamido-4-picoline"], "SMILES": "N(C(C)=O)C1=CC(C)=CC=N1", "physical_data": {"Molecular Weight": "150.18", "Molecular Formula": "C8H10N2O", "Melting Point": "102-103 \u00b0C"}}