{"cas_no": "5327-44-6", "cn_name": "3,5-\u4e8c\u785d\u57fa\u82ef\u7532\u919a", "en_name": ["1-Methoxy-3,5-dinitrobenzene", "Benzene, 1-methoxy-3,5-dinitro-", "Anisole, 3,5-dinitro-", "1-Methoxy-3,5-dinitrobenzene", "3,5-Dinitroanisole", "NSC 3331"], "SMILES": "N(=O)(=O)C1=CC(N(=O)=O)=CC(OC)=C1", "physical_data": {"Molecular Weight": "198.13", "Molecular Formula": "C7H6N2O5", "Melting Point": "105.3 \u00b0C"}}