{"cas_no": "53279-72-4", "cn_name": "3-\u7f9f\u57fa-2,4,6-\u4e09\u7898\u82ef\u7532\u9178", "en_name": ["3-Hydroxy-2,4,6-triiodobenzoic acid", "Benzoic acid, 3-hydroxy-2,4,6-triiodo-", "3-Hydroxy-2,4,6-triiodobenzoic acid", "2,4,6-Triiodo-3-hydroxybenzoic acid", "NSC 82352"], "SMILES": "C(O)(=O)C1=C(I)C(O)=C(I)C=C1I", "physical_data": {"Molecular Weight": "515.81", "Molecular Formula": "C7H3I3O3", "Melting Point": "206-208 \u00b0C"}}