{"cas_no": "5328-63-2", "cn_name": "\u7532\u57fa-\u0392-D-\u963f\u62c9\u4f2f\u5421\u5583\u7cd6\u82f7", "en_name": ["Methyl \u03b2-D-arabinopyranoside", "\u03b2-D-Arabinopyranoside, methyl", "Arabinopyranoside, methyl, \u03b2-D-", "Methyl \u03b2-D-arabinopyranoside", "NSC 1975"], "SMILES": "O(C)C1C(O)C(O)C(O)CO1", "physical_data": {"Molecular Weight": "164.16", "Molecular Formula": "C6H12O5", "Melting Point": "84-86 \u00b0C"}}