{"cas_no": "5328-01-8", "cn_name": "1-\u4e59\u6c27\u57fa\u8418", "en_name": ["1-Ethoxynaphthalene", "Naphthalene, 1-ethoxy-", "1-Ethoxynaphthalene", "Ethyl \u03b1-naphthyl ether", "Ethyl 1-naphthyl ether", "\u03b1-Ethoxynaphthalene", "NSC 4174"], "SMILES": "O(CC)C=1C2=C(C=CC1)C=CC=C2", "physical_data": {"Molecular Weight": "172.22", "Molecular Formula": "C12H12O", "Boiling Point": "280.5 \u00b0C", "Melting Point": "5.5 \u00b0C"}}