{"cas_no": "5328-37-0", "cn_name": "L-\u963f\u62c9\u4f2f\u7cd6", "en_name": ["L-Arabinose", "L-Arabinose", "Arabinose, L-", "L-(+)-Arabinose", "(+)-Arabinose", "NSC 1941"], "SMILES": "C(C(CO)O)(C(C=O)O)O", "physical_data": {"Molecular Weight": "150.13", "Molecular Formula": "C5H10O5", "Melting Point": "166 \u00b0C"}}