{"cas_no": "53297-68-0", "cn_name": "4-\u6c28\u57fa-3-\u6c2f\u82ef\u78fa\u9170\u80fa", "en_name": ["4-Amino-3-chlorobenzenesulfonamide", "Benzenesulfonamide, 4-amino-3-chloro-", "Sulfanilamide, 3-chloro-", "4-Amino-3-chlorobenzenesulfonamide", "2-Chloro-4-sulfamoylaniline"], "SMILES": "S(N)(=O)(=O)C1=CC(Cl)=C(N)C=C1", "physical_data": {"Molecular Weight": "206.65", "Molecular Formula": "C6H7ClN2O2S", "Melting Point": "161 \u00b0C"}}