{"cas_no": "5329-29-3", "cn_name": "\u4e09\u6c28\u57fa\u80cd\u76d0\u9178\u76d0", "en_name": ["Carbonohydrazonic dihydrazide, hydrochloride (1:1)", "Carbonohydrazonic dihydrazide, hydrochloride (1:1)", "Guanidine, 1,2,3-triamino-, monohydrochloride", "Carbonohydrazonic dihydrazide, monohydrochloride", "Triaminoguanidine hydrochloride", "1,2,3-Triaminoguanidinium chloride", "Triaminoguanidinium chloride", "Triaminoguanidine monohydrochloride", "1,2,3-Triaminoguanidine hydrochloride"], "SMILES": "C(=NN)(NN)NN.Cl", "physical_data": {"Molecular Weight": "", "Molecular Formula": "CH8N6.ClH", "Melting Point": "234-236 \u00b0C"}}