{"cas_no": "53297-70-4", "cn_name": "3-\u7532\u57fa-4-\u6c28\u57fa\u82ef\u78fa\u9170\u80fa", "en_name": ["4-Amino-3-methylbenzenesulfonamide", "Benzenesulfonamide, 4-amino-3-methyl-", "4-Amino-3-methylbenzenesulfonamide", "2-Methyl-4-sulfamoylaniline"], "SMILES": "S(N)(=O)(=O)C1=CC(C)=C(N)C=C1", "physical_data": {"Molecular Weight": "186.23", "Molecular Formula": "C7H10N2O2S", "Melting Point": "174 \u00b0C"}}