{"cas_no": "53292-89-0", "cn_name": "N-BOC-\u6c28\u57fa\u73af\u5df1\u80fa\u7fa7\u9178", "en_name": ["trans-4-[(tert-Butoxycarbonyl)amino]cyclohexanecarboxylic acid", "Cyclohexanecarboxylic acid, 4-[[(1,1-dimethylethoxy)carbonyl]amino]-, trans-", "trans-4-[[(1,1-Dimethylethoxy)carbonyl]amino]cyclohexanecarboxylic acid", "trans-4-[[[(1,1-Dimethylethyl)oxy]carbonyl]amino]cyclohexanecarboxylic acid", "trans-4-(tert-Butoxycarbonylamino)cyclohexane-1-carboxylic acid", "trans-4-[(tert-Butoxycarbonyl)amino]cyclohexanecarboxylic acid", "trans-4-[(tert-Butyloxycarbonyl)amino]cyclohexanecarboxylic acid", "trans-4-[(tert-Butoxycarbonyl)amino]cyclohexane-1-carboxylic acid"], "SMILES": "C(O)(=O)C1CCC(NC(OC(C)(C)C)=O)CC1", "physical_data": {"Molecular Weight": "243.30", "Molecular Formula": "C12H21NO4", "Melting Point": "181-182 \u00b0C"}}