{"cas_no": "53293-00-8", "cn_name": "5-\u4e59\u7094\u9178", "en_name": ["5-Hexynoic acid", "5-Hexynoic acid", "5-Hexyn-1-oic acid", "4-Ethynylbutyric acid", "EC2-103"], "SMILES": "C(CCC#C)C(O)=O", "physical_data": {"Molecular Weight": "112.13", "Molecular Formula": "C6H8O2", "Boiling Point": "135 \u00b0C @ Press: 14 Torr", "Density": "1.0372 g/cm\u00b3 @ Temp: 20 \u00b0C"}}