{"cas_no": "5329-12-4", "cn_name": "2,4,6-\u4e09\u6c2f\u82ef\u80bc", "en_name": ["(2,4,6-Trichlorophenyl)hydrazine", "Hydrazine, (2,4,6-trichlorophenyl)-", "(2,4,6-Trichlorophenyl)hydrazine", "NSC 1869", "N-(2,4,6-Trichlorophenyl)hydrazine"], "SMILES": "N(N)C1=C(Cl)C=C(Cl)C=C1Cl", "physical_data": {"Molecular Weight": "211.48", "Molecular Formula": "C6H5Cl3N2", "Melting Point": "138 \u00b0C"}}