{"cas_no": "5329-33-9", "cn_name": "O-\u7532\u57fa\u5f02\u8132\u76d0\u9178\u76d0", "en_name": ["Carbamimidic acid, methyl ester, hydrochloride (1:1)", "Carbamimidic acid, methyl ester, hydrochloride (1:1)", "Pseudourea, 2-methyl-, monohydrochloride", "Carbamimidic acid, methyl ester, monohydrochloride", "Pseudourea, 2-methyl-, hydrochloride", "O-Methylisourea hydrochloride", "2-Methylpseudourea hydrochloride", "O-Methyluronium chloride", "Methyl carbamimidate hydrochloride"], "SMILES": "C(OC)(=N)N.Cl", "physical_data": {"Molecular Weight": "", "Molecular Formula": "C2H6N2O.ClH", "Melting Point": "122-124 \u00b0C (decomp)"}}