{"cas_no": "5329-14-6", "cn_name": "\u6c28\u57fa\u78fa\u9178", "en_name": ["Sulfamic acid", "Sulfamic acid", "Amidosulfuric acid", "Aminosulfonic acid", "Sulfamidic acid", "Sulphamic acid", "Amidosulfonic acid", "Aminosulfuric acid", "Jumbo", "Aminesulfonic acid", "Sulfaminic acid", "Scale Cleen", "Alprojet W", "NSC 1871", "Steradent Active Plus"], "SMILES": "S(N)(=O)(=O)O", "physical_data": {"Molecular Weight": "97.09", "Molecular Formula": "H3NO3S", "Melting Point": "205 \u00b0C", "Density": "2.15 g/cm\u00b3"}}