{"cas_no": "533-73-3", "cn_name": "1,2,4-\u82ef\u4e09\u915a", "en_name": ["1,2,4-Benzenetriol", "1,2,4-Benzenetriol", "Hydroxyhydroquinone", "1,2,4-Trihydroxybenzene", "2,5-Dihydroxyphenol", "1,3,4-Trihydroxybenzene", "1,3,4-Benzenetriol", "2-Hydroxy-1,4-hydroquinone", "2-Hydroxy-p-benzohydroquinone", "4-Hydroxycatechol", "HHQ", "NSC 2818", "2-Hydroxyhydroquinone", "1,2,5-Benzenetriol"], "SMILES": "OC1=C(O)C=CC(O)=C1", "physical_data": {"Molecular Weight": "126.11", "Molecular Formula": "C6H6O3", "Boiling Point": "165 \u00b0C @ Press: 4 Torr", "Melting Point": "140.5 \u00b0C"}}