{"cas_no": "533-48-2", "cn_name": "D-\u8131\u786b\u751f\u7269\u7d20", "en_name": ["Desthiobiotin", "4-Imidazolidinehexanoic acid, 5-methyl-2-oxo-, (4R,5S)-", "4-Imidazolidinehexanoic acid, 5-methyl-2-oxo-, (4R-cis)-", "(4R,5S)-5-Methyl-2-oxo-4-imidazolidinehexanoic acid", "Biotin, dethio-", "Desthiobiotin", "Dethiobiotin", "d-Dethiobiotin", "5-Methyl-2-oxo-4-imidazolidinecaproic acid", "\u03b5-(4-Methyl-5-imidazolidone-2)caproic acid", "4-Methyl-5-(\u03c9-carboxyamyl)imidazolidone-2", "(+)-Dethiobiotin"], "SMILES": "C(CCCCC(O)=O)C1C(C)NC(=O)N1", "physical_data": {"Molecular Weight": "214.26", "Molecular Formula": "C10H18N2O3", "Melting Point": "157 \u00b0C"}}