{"cas_no": "533-18-6", "cn_name": "\u4e59\u9178\u90bb\u7532\u82ef\u916f", "en_name": ["2-Methylphenyl acetate", "Acetic acid, 2-methylphenyl ester", "Acetic acid, o-tolyl ester", "Acetyl-o-cresol", "o-Cresol acetate", "o-Cresylic acetate", "o-Tolyl acetate", "o-Cresyl acetate", "2-Methylphenyl acetate", "o-Methylphenyl acetate", "o-Acetoxytoluene", "2-Acetoxytoluene", "NSC 58961", "NSC 6257"], "SMILES": "O(C(C)=O)C1=C(C)C=CC=C1", "physical_data": {"Molecular Weight": "150.17", "Molecular Formula": "C9H10O2", "Boiling Point": "208 \u00b0C", "Density": "1.0578 g/cm\u00b3 @ Temp: 20 \u00b0C"}}