{"cas_no": "533-98-2", "cn_name": "1,2-\u4e8c\u6eb4\u4e01\u70f7", "en_name": ["1,2-Dibromobutane", "Butane, 1,2-dibromo-", "1,2-Dibromobutane", "\u03b1-Butylene dibromide", "(\u00b1)-1,2-Dibromobutane", "NSC 6181"], "SMILES": "C(CBr)(CC)Br", "physical_data": {"Molecular Weight": "215.91", "Molecular Formula": "C4H8Br2", "Boiling Point": "166.3 \u00b0C", "Melting Point": "-65.4 \u00b0C", "Density": "2.0174 g/cm\u00b3 @ Temp: 19 \u00b0C"}}