{"cas_no": "533-68-6", "cn_name": "2-\u6eb4\u4e01\u9178\u4e59\u916f", "en_name": ["Butanoic acid, 2-bromo-, ethyl ester", "Butanoic acid, 2-bromo-, ethyl ester", "Butyric acid, 2-bromo-, ethyl ester", "Butyric acid, \u03b1-bromo-, ethyl ester", "Ethyl \u03b1-bromobutyrate", "Ethyl 2-bromobutyrate", "Ethyl 2-bromobutanoate", "2-Bromobutanoic acid ethyl ester", "2-Bromobutyric acid ethyl ester", "NSC 8855", "Ethyl bromobutanoate"], "SMILES": "C(C(CC)Br)(OCC)=O", "physical_data": {"Molecular Weight": "195.05", "Molecular Formula": "C6H11BrO2", "Boiling Point": "177 \u00b0C", "Melting Point": "142-144 \u00b0C", "Density": "1.3263 g/cm\u00b3 @ Temp: 11.5 \u00b0C"}}