{"cas_no": "533-49-3", "cn_name": "L-\u8d64\u85d3\u7cd6", "en_name": ["L-Erythrose", "Butanal, 2,3,4-trihydroxy-, (2S,3S)-", "Erythrose, L-", "Butanal, 2,3,4-trihydroxy-, [S-(R*,R*)]-", "(2S,3S)-2,3,4-Trihydroxybutanal", "L-Erythrose", "(+)-Erythrose", "L-(+)-Erythrose"], "SMILES": "C(C(C=O)O)(CO)O", "physical_data": {"Molecular Weight": "120.10", "Molecular Formula": "C4H8O4", "Melting Point": "&lt;25 \u00b0C"}}