{"cas_no": "533-87-9", "cn_name": "\u7d2b\u80f6\u6850\u9178", "en_name": ["rel-(9R,10S)-9,10,16-Trihydroxyhexadecanoic acid", "Hexadecanoic acid, 9,10,16-trihydroxy-, (9R,10S)-rel-", "Hexadecanoic acid, 9,10,16-trihydroxy-, (R*,S*)-(\u00b1)-", "rel-(9R,10S)-9,10,16-Trihydroxyhexadecanoic acid", "(\u00b1)-erythro-Aleuritic acid", "DL-erythro-Aleuritic acid", "\u03b1-Aleuritic acid", "erythro-Aleuritic acid", "NSC 7668"], "SMILES": "C(C(CCCCCCO)O)(CCCCCCCC(O)=O)O", "physical_data": {"Molecular Weight": "304.42", "Molecular Formula": "C16H32O5", "Melting Point": "100.5 \u00b0C"}}