{"cas_no": "533-70-0", "cn_name": "2,4-\u4e8c\u7898\u82ef\u80fa", "en_name": ["2,4-Diiodobenzenamine", "Benzenamine, 2,4-diiodo-", "Aniline, 2,4-diiodo-", "2,4-Diiodobenzenamine", "2,4-Diiodoaniline", "NSC 508880"], "SMILES": "IC1=C(N)C=CC(I)=C1", "physical_data": {"Molecular Weight": "344.92", "Molecular Formula": "C6H5I2N", "Melting Point": "95 \u00b0C"}}