{"cas_no": "533-17-5", "cn_name": "N-(2-\u6c2f\u82ef\u57fa)\u4e59\u9170\u80fa", "en_name": ["N-(2-Chlorophenyl)acetamide", "Acetamide, N-(2-chlorophenyl)-", "Acetanilide, 2\u2032-chloro-", "Acetanilide, o-chloro-", "N-(2-Chlorophenyl)acetamide", "o-Chloroacetanilide", "2\u2032-Chloroacetanilide", "NSC 40562", "NSC 8455"], "SMILES": "N(C(C)=O)C1=C(Cl)C=CC=C1", "physical_data": {"Molecular Weight": "169.61", "Molecular Formula": "C8H8ClNO", "Boiling Point": "279.5-280 \u00b0C @ Press: 760 Torr", "Melting Point": "88 \u00b0C"}}