{"cas_no": "533-45-9", "cn_name": "\u6c2f\u7f8e\u567b\u5511", "en_name": ["Clomethiazole", "Thiazole, 5-(2-chloroethyl)-4-methyl-", "5-(2-Chloroethyl)-4-methylthiazole", "Chlorethiazol", "Chlormethiazole", "Clomethiazole", "Distraneurin", "4-Methyl-5-(\u03b2-chloroethyl)thiazole", "Chlormethiazol", "Chlorethiazole", "Clomethiazolum", "Emineurina", "Somnevrin", "5-(\u03b2-Chloroethyl)-4-methylthiazole", "MeSH ID: D002719"], "SMILES": "C(CCl)C1=C(C)N=CS1", "physical_data": {"Molecular Weight": "161.65", "Molecular Formula": "C6H8ClNS", "Boiling Point": "92 \u00b0C", "Melting Point": "127-128 \u00b0C", "Density": "1.233 g/cm\u00b3 @ Temp: 25 \u00b0C"}}