{"cas_no": "533-37-9", "cn_name": "2,3-\u73af\u620a\u70ef\u5e76\u5421\u5576", "en_name": ["6,7-Dihydro-5H-cyclopenta[b]pyridine", "5H-Cyclopenta[b]pyridine, 6,7-dihydro-", "5H-1-Pyrindine, 6,7-dihydro-", "6,7-Dihydro-5H-cyclopenta[b]pyridine", "Pyrindan", "2,3-Cyclopentenopyridine", "6,7-Dihydro-5H-pyrindine", "6,7-Dihydro-5H-[1]pyrindine"], "SMILES": "C1=2C(CCC1)=NC=CC2", "physical_data": {"Molecular Weight": "119.16", "Molecular Formula": "C8H9N", "Boiling Point": "90 \u00b0C @ Press: 11 Torr", "Melting Point": "117 \u00b0C", "Density": "1.0359 g/cm\u00b3 @ Temp: 20 \u00b0C"}}