{"cas_no": "533-15-3", "cn_name": "N-\u7532\u57fa-\u54cc\u5576\u4e59\u9187", "en_name": ["1-Methyl-2-piperidineethanol", "2-Piperidineethanol, 1-methyl-", "1-Methyl-2-piperidineethanol", "2-(2-Hydroxyethyl)-1-methylpiperidine", "NSC 75616", "2-(1-Methylpiperidin-2-yl)ethanol", "2-(1-Methyl-2-piperidyl)ethanol", "2-(1-Methylpiperidin-2-yl)ethan-1-ol"], "SMILES": "C(CO)C1N(C)CCCC1", "physical_data": {"Molecular Weight": "143.23", "Molecular Formula": "C8H17NO", "Boiling Point": "82-84 \u00b0C @ Press: 19 Torr", "Density": "0.9922 g/cm\u00b3"}}