{"cas_no": "533-75-5", "cn_name": "\u73af\u5e9a\u4e09\u70ef\u915a\u916e", "en_name": ["Tropolone", "2,4,6-Cycloheptatrien-1-one, 2-hydroxy-", "Tropolone", "2-Hydroxy-2,4,6-cycloheptatrien-1-one", "Purpurocatechol", "2-Hydroxytropone", "\u03b1-Tropolone", "NSC 89303", "2-Hydroxycyclohepta-2,4,6-trienone", "MeSH ID: D014334"], "SMILES": "O=C1C(O)=CC=CC=C1", "physical_data": {"Molecular Weight": "122.12", "Molecular Formula": "C7H6O2", "Boiling Point": "67-73 \u00b0C @ Press: 0.2-0.3 Torr", "Melting Point": "50.8 \u00b0C"}}