{"cas_no": "533-74-4", "cn_name": "\u68c9\u9686", "en_name": ["Dimethylformocarbothialdine", "2H-1,3,5-Thiadiazine-2-thione, tetrahydro-3,5-dimethyl-", "Tetrahydro-3,5-dimethyl-2H-1,3,5-thiadiazine-2-thione", "Crag 85W", "N 521", "Crag 974", "UCC 974", "Dazomet", "Dimethylformocarbothialdine", "3,5-Dimethyltetrahydro-2H-1,3,5-thiadiazine-2-thione", "3,5-Dimethyltetrahydro-1,3,5-2H-thiadiazine-2-thione", "3,5-Dimethyltetrahydro-1,3,5-thiadiazine-2-thione", "3,5-Dimethyl-2-thionotetrahydro-1,3,5-thiadiazine", "DMTT", "Mylone", "Nalcon 243", "Stauffer N 521", "Tetrahydro-2H-3,5-dimethyl-1,3,5-thiadiazine-2-thione", "Thiazon", "Thiazone", "2-Thio-3,5-dimethyltetrahydro-1,3,5-thiadiazine", "Mylone 85", "Basamid P", "Basamid G", "Nefusan", "Basamid", "Basamid-Puder", "Tetrahydro-3,5-dimethyl-2H-1,3,5-thiodiazin-2-thione", "Fennosan B 100", "D 35", "Tetrahydro-3,5-dimethyl-1,3,5-thiadiazin-2-thione", "Busan", "Nalco 5787", "Busan 1058", "Nuosept S", "NSC 4737", "Metasol D 3TA", "AMA 424", "Basamid Granular", "3,5-Dimethyl-1,3,5-thiadiazinane-2-thione"], "SMILES": "CN1C(=S)SCN(C)C1", "physical_data": {"Molecular Weight": "162.28", "Molecular Formula": "C5H10N2S2", "Melting Point": "106-107 \u00b0C", "Density": "1.30 g/cm\u00b3 @ Temp: 20 \u00b0C"}}