{"cas_no": "533-67-5", "cn_name": "2-\u8131\u6c27-D-\u6838\u7cd6", "en_name": ["Deoxyribose", "D-erythro-Pentose, 2-deoxy-", "2-Deoxy-D-erythro-pentose", "Thyminose", "2-Deoxy-D-ribose", "Deoxyribose", "D-Ribose, 2-deoxy-", "2-Deoxy-D-arabinose", "D-(-)-2-Deoxyribose", "(3S,4R)-3,4,5-Trihydroxypentanal", "MeSH ID: D003855"], "SMILES": "C(C(CO)O)(CC=O)O", "physical_data": {"Molecular Weight": "134.13", "Molecular Formula": "C5H10O4", "Melting Point": "91 \u00b0C"}}