{"cas_no": "533-23-3", "cn_name": "2,4-\u6ef4\u9178\u4e59\u916f", "en_name": ["Ethyl 2,4-dichlorophenoxyacetate", "Acetic acid, 2-(2,4-dichlorophenoxy)-, ethyl ester", "Acetic acid, (2,4-dichlorophenoxy)-, ethyl ester", "Ethyl 2,4-dichlorophenoxyacetate", "Weedone 40", "2,4-D ethyl ester", "Dicotox", "Weedone Concentrate 48", "Ethyl 2-(2,4-dichlorophenoxy)acetate", "2,4-DEE", "Knochweed", "Estone 80", "Knock Weed", "Knock Weed 4G", "Bladex C", "2,4-PA-ethyl", "2,4-Dichlorophenoxyacetic acid ethyl ester"], "SMILES": "O(CC(OCC)=O)C1=C(Cl)C=C(Cl)C=C1", "physical_data": {"Molecular Weight": "249.09", "Molecular Formula": "C10H10Cl2O3", "Boiling Point": "136 \u00b0C", "Melting Point": "175-177 \u00b0C", "Density": "1.3262 g/cm\u00b3 @ Temp: 20 \u00b0C"}}