{"cas_no": "533-58-4", "cn_name": "2-\u7898\u82ef\u915a", "en_name": ["2-Iodophenol", "Phenol, 2-iodo-", "Phenol, o-iodo-", "2-Iodophenol", "o-Iodophenol", "NSC 9245", "2-Hydroxyiodobenzene", "1-Iodo-2-hydroxybenzene"], "SMILES": "IC1=C(O)C=CC=C1", "physical_data": {"Molecular Weight": "220.01", "Molecular Formula": "C6H5IO", "Boiling Point": "186-187 \u00b0C", "Melting Point": "43 \u00b0C", "Density": "1.8757 g/cm\u00b3 @ Temp: 30 \u00b0C"}}