{"cas_no": "533-31-3", "cn_name": "\u829d\u9ebb\u915a", "en_name": ["Sesamol", "1,3-Benzodioxol-5-ol", "Phenol, 3,4-(methylenedioxy)-", "Sesamol", "5-Hydroxy-1,3-benzodioxole", "3,4-(Methylenedioxy)phenol", "4-Hydroxy-1,2-methylenedioxybenzene", "NSC 59256", "1,3-Dioxaindan-5-ol", "2H-1,3-Benzodioxol-5-ol"], "SMILES": "OC=1C=C2C(=CC1)OCO2", "physical_data": {"Molecular Weight": "138.12", "Molecular Formula": "C7H6O3", "Boiling Point": "135-140 \u00b0C @ Press: 13 Torr", "Melting Point": "65.8 \u00b0C"}}