{"cas_no": "533-60-8", "cn_name": "2-\u7f9f\u57fa\u73af\u5df1\u916e", "en_name": ["2-Hydroxycyclohexanone", "Cyclohexanone, 2-hydroxy-", "Cyclohexanone, 2-hydroxy-, (\u00b1)-", "2-Hydroxycyclohexanone", "Adipoin", "2-Hydroxy-1-cyclohexanone", "\u03b1-Hydroxycyclohexanone", "(\u00b1)-2-Hydroxycyclohexanone", "NSC 298536", "NSC 60697"], "SMILES": "OC1C(=O)CCCC1", "physical_data": {"Molecular Weight": "114.14", "Molecular Formula": "C6H10O2", "Boiling Point": "83-86 \u00b0C @ Press: 13 Torr", "Melting Point": "92-92.5 \u00b0C"}}