{"cas_no": "533-30-2", "cn_name": "6-\u6c28\u57fa\u82ef\u5e76\u567b\u5511", "en_name": ["6-Benzothiazolamine", "6-Benzothiazolamine", "Benzothiazole, 6-amino-", "6-Aminobenzothiazole", "(Benzothiazol-6-yl)amine", "NSC 170647", "1,3-Benzothiazol-6-amine", "Benzo[d]thiazol-6-amine", "6-Amino-1,3-benzothiazole", "(Benzo[d]thiazol-6-yl)amine"], "SMILES": "NC=1C=C2C(=CC1)N=CS2", "physical_data": {"Molecular Weight": "150.20", "Molecular Formula": "C7H6N2S", "Melting Point": "87 \u00b0C"}}