{"cas_no": "5330-38-1", "cn_name": "5-\u6c2f-2-\u7f9f\u57fa\u82ef\u7532\u9187", "en_name": ["5-Chloro-2-hydroxybenzenemethanol", "Benzenemethanol, 5-chloro-2-hydroxy-", "Benzyl alcohol, 5-chloro-2-hydroxy-", "Saligenin, 5-chloro-", "5-Chloro-2-hydroxybenzenemethanol", "5-Chloro-2-hydroxybenzyl alcohol", "5-Chlorosalicyl alcohol", "4-Chloro-2-(hydroxymethyl)phenol", "5-Chlorosaligenin", "NSC 2468"], "SMILES": "C(O)C1=C(O)C=CC(Cl)=C1", "physical_data": {"Molecular Weight": "158.58", "Molecular Formula": "C7H7ClO2", "Melting Point": "93 \u00b0C"}}