{"cas_no": "5331-37-3", "cn_name": "2-\u6b63\u4e01\u786b\u57fa\u4e59\u9187", "en_name": ["2-(Butylthio)ethanol", "Ethanol, 2-(butylthio)-", "2-(Butylthio)ethanol", "Butyl 2-hydroxyethyl sulfide", "Butylthioethanol", "2-Hydroxyethyl butyl sulfide", "Kretol", "NSC 2279", "2-Butylsulfanylethanol", "2-(Butylsulfanyl)ethan-1-ol", "2-Butylsulfanyl-ethanol"], "SMILES": "C(SCCO)CCC", "physical_data": {"Molecular Weight": "134.24", "Molecular Formula": "C6H14OS", "Boiling Point": "92-93 \u00b0C @ Press: 3 Torr", "Density": "0.9693 g/cm\u00b3 @ Temp: 25 \u00b0C"}}