{"cas_no": "53312-77-9", "cn_name": "2-\u6c28\u57fa-3-\u6c2f\u82ef\u7532\u8148", "en_name": ["2-Amino-3-chlorobenzonitrile", "Benzonitrile, 2-amino-3-chloro-", "2-Amino-3-chlorobenzonitrile", "2-Chloro-6-cyanoaniline", "3-Chloro-2-aminobenzonitrile", "2-Cyano-6-chloroaniline"], "SMILES": "C(#N)C1=C(N)C(Cl)=CC=C1", "physical_data": {"Molecular Weight": "152.58", "Molecular Formula": "C7H5ClN2", "Melting Point": "94-96 \u00b0C"}}