{"cas_no": "53312-79-1", "cn_name": "3-\u6c28\u57fa-4-\u6c2f\u82ef\u7532\u8148", "en_name": ["3-Amino-4-chlorobenzonitrile", "Benzonitrile, 3-amino-4-chloro-", "3-Amino-4-chlorobenzonitrile", "2-Chloro-5-cyanoaniline"], "SMILES": "C(#N)C1=CC(N)=C(Cl)C=C1", "physical_data": {"Molecular Weight": "152.58", "Molecular Formula": "C7H5ClN2", "Melting Point": "92 \u00b0C"}}