{"cas_no": "5331-43-1", "cn_name": "\u80bc\u57fa\u7532\u9178\u82c4\u916f", "en_name": ["Phenylmethyl hydrazinecarboxylate", "Hydrazinecarboxylic acid, phenylmethyl ester", "Carbazic acid, benzyl ester", "Phenylmethyl hydrazinecarboxylate", "Benzyloxycarbonyl hydrazide", "Benzyl carbazate", "[(Benzyloxy)carbonyl]hydrazine", "Carbobenzoxyhydrazide", "Benzyl hydrazinocarboxylate", "Carbobenzyloxyhydrazine", "NSC 2287", "Benzyl hydrazinecarboxylate", "Hydrazincarboxylic acid benzyl ester", "Hydrazinecarboxylic acid benzyl ester", "N-(Benzyloxycarbonyl)hydrazine", "Cbz-hydrazine"], "SMILES": "C(OC(NN)=O)C1=CC=CC=C1", "physical_data": {"Molecular Weight": "166.18", "Molecular Formula": "C8H10N2O2", "Melting Point": "69-70 \u00b0C"}}