{"cas_no": "5331-91-9", "cn_name": "2-\u5def\u57fa-5-\u6c2f\u82ef\u5e76\u567b\u5511", "en_name": ["5-Chloro-2-mercaptobenzothiazole", "2(3H)-Benzothiazolethione, 5-chloro-", "2-Benzothiazolethiol, 5-chloro-", "5-Chloro-2(3H)-benzothiazolethione", "5-Chloro-2-mercaptobenzothiazole", "SH-Benzothiazole", "5-Chloro-2-benzothiazolethiol", "2-Mercapto-5-chlorobenzothiazole", "5-Chlorobenzothiazoline-2-thione", "5-Chloro-1,3-benzothiazole-2-thiol", "NSC 3934", "5-Chloro-2-mercaptobenzo[d]thiazole"], "SMILES": "S=C1SC=2C(N1)=CC(Cl)=CC2", "physical_data": {"Molecular Weight": "201.70", "Molecular Formula": "C7H4ClNS2", "Melting Point": "201-202 \u00b0C"}}