{"cas_no": "5332-06-9", "cn_name": "4-\u6eb4\u4e01\u8148\u4e19\u70ef\u9178\u916f", "en_name": ["4-Bromobutyronitrile", "Butanenitrile, 4-bromo-", "Butyronitrile, 4-bromo-", "4-Bromobutanenitrile", "3-Bromopropyl cyanide", "4-Bromobutyronitrile", "3-Cyanopropyl bromide", "1-Bromo-3-cyanopropane", "NSC 3972"], "SMILES": "C(CC#N)CBr", "physical_data": {"Molecular Weight": "148.00", "Molecular Formula": "C4H6BrN", "Boiling Point": "206 \u00b0C", "Melting Point": "104-105 \u00b0C", "Density": "1.4967 g/cm\u00b3 @ Temp: 20 \u00b0C"}}