{"cas_no": "5332-25-2", "cn_name": "6-\u6eb4\u55b9\u5549", "en_name": ["6-Bromoquinoline", "Quinoline, 6-bromo-", "6-Bromoquinoline", "NSC 3996"], "SMILES": "BrC1=CC2=C(C=C1)N=CC=C2", "physical_data": {"Molecular Weight": "208.05", "Molecular Formula": "C9H6BrN", "Boiling Point": "281 \u00b0C", "Melting Point": "24 \u00b0C"}}