{"cas_no": "5332-24-1", "cn_name": "3-\u6eb4\u55b9\u5549", "en_name": ["3-Bromoquinoline", "Quinoline, 3-bromo-", "3-Bromoquinoline", "NSC 3995", "Quinolin-3-yl bromide"], "SMILES": "BrC1=CC2=C(N=C1)C=CC=C2", "physical_data": {"Molecular Weight": "208.05", "Molecular Formula": "C9H6BrN", "Boiling Point": "275 \u00b0C", "Melting Point": "13.3 \u00b0C"}}