{"cas_no": "5332-52-5", "cn_name": "1-\u5341\u4e00\u786b\u9187", "en_name": ["1-Undecanethiol", "1-Undecanethiol", "Undecyl mercaptan", "1-Mercaptoundecane", "NSC 4031"], "SMILES": "C(CCCCCS)CCCCC", "physical_data": {"Molecular Weight": "188.37", "Molecular Formula": "C11H24S", "Boiling Point": "257.4 \u00b0C", "Melting Point": "-3 \u00b0C", "Density": "0.8432 g/cm\u00b3"}}