{"cas_no": "53324-38-2", "cn_name": "4-\u6eb4-3-\u785d\u57fa\u82ef\u80fa", "en_name": ["4-Bromo-3-nitrobenzenamine", "Benzenamine, 4-bromo-3-nitro-", "Aniline, 4-bromo-3-nitro-", "4-Bromo-3-nitrobenzenamine", "4-Bromo-3-nitroaniline", "5-Amino-2-bromonitrobenzene"], "SMILES": "N(=O)(=O)C1=C(Br)C=CC(N)=C1", "physical_data": {"Molecular Weight": "217.02", "Molecular Formula": "C6H5BrN2O2", "Melting Point": "125-126 \u00b0C"}}