{"cas_no": "5332-73-0", "cn_name": "3-\u7532\u6c27\u57fa\u4e19\u80fa", "en_name": ["3-Methoxypropylamine", "1-Propanamine, 3-methoxy-", "Propylamine, 3-methoxy-", "3-Methoxy-1-propanamine", "\u03b3-Methoxypropylamine", "3-Methoxypropylamine", "1-Amino-3-methoxypropane", "3-Aminopropyl methyl ether", "3-Methoxy-n-propylamine", "Propanolamine methyl ether", "NSC 552", "3-Methoxy-1-aminopropane", "1-Methoxy-3-aminopropane", "(3-Methoxypropan-1-yl)amine", "[3-(Methyloxy)propyl]amine", "3-Amino-1-methoxypropane", "3-(Methyloxy)-1-propanamine"], "SMILES": "C(COC)CN", "physical_data": {"Molecular Weight": "89.14", "Molecular Formula": "C4H11NO", "Boiling Point": "117.5 \u00b0C", "Density": "0.8737 g/cm\u00b3 @ Temp: 20 \u00b0C"}}