{"cas_no": "5332-26-3", "cn_name": "N-\u6eb4\u7532\u57fa\u90bb\u82ef\u4e8c\u7532\u9170\u4e9a\u80fa", "en_name": ["N-(Bromomethyl)phthalimide", "1H-Isoindole-1,3(2H)-dione, 2-(bromomethyl)-", "Phthalimide, N-(bromomethyl)-", "2-(Bromomethyl)-1H-isoindole-1,3(2H)-dione", "N-(Bromomethyl)phthalimide", "Phthalimidomethyl bromide", "2-(Bromomethyl)phthalimide", "NSC 3997", "Bromomethylphthalimide", "2-(Bromomethyl)isoindoline-1,3-dione", "2-Bromomethylisoindole-1,3-dione", "2-(Bromomethyl)-2,3-dihydro-1H-isoindole-1,3-dione"], "SMILES": "O=C1C=2C(C(=O)N1CBr)=CC=CC2", "physical_data": {"Molecular Weight": "240.05", "Molecular Formula": "C9H6BrNO2", "Melting Point": "151.5 \u00b0C"}}