{"cas_no": "5333-86-8", "cn_name": "\u82ef\u7532\u4e9a\u80fa\u9178\u4e59\u916f\u76d0\u9178\u76d0", "en_name": ["Benzenecarboximidic acid, ethyl ester, hydrochloride (1:1)", "Benzenecarboximidic acid, ethyl ester, hydrochloride (1:1)", "Benzimidic acid, ethyl ester, hydrochloride", "Benzenecarboximidic acid, ethyl ester, hydrochloride", "Ethyl benzimidate hydrochloride", "Benzimidoyl ethyl ether hydrochloride", "Ethyl iminobenzoate hydrochloride", "Ethyl benzenecarboximidate hydrochloride"], "SMILES": "C(OCC)(=N)C1=CC=CC=C1.Cl", "physical_data": {"Molecular Weight": "", "Molecular Formula": "C9H11NO.ClH", "Melting Point": "119-120 \u00b0C"}}