{"cas_no": "53330-94-2", "cn_name": "5-\u4e59\u9170\u5432\u54da", "en_name": ["1-(1H-Indol-5-yl)ethanone", "Ethanone, 1-(1H-indol-5-yl)-", "Ketone, indol-5-yl methyl", "1-(1H-Indol-5-yl)ethanone", "5-Acetylindole", "5-Acetyl-1H-indole", "1-(1H-Indol-5-yl)ethan-1-one"], "SMILES": "C(C)(=O)C=1C=C2C(=CC1)NC=C2", "physical_data": {"Molecular Weight": "159.18", "Molecular Formula": "C10H9NO", "Melting Point": "94-95 \u00b0C"}}