{"cas_no": "5333-42-6", "cn_name": "2-\u8f9b\u57fa\u5341\u4e8c\u9187", "en_name": ["2-Octyldodecanol", "1-Dodecanol, 2-octyl-", "2-Octyl-1-dodecanol", "2-Octyldodecanol", "Eutanol G", "2-Octyldodecyl alcohol", "Exxal 20", "Rilanit G 20", "Isofol 20", "Kalcohl 200GD", "Kalcohl 200G", "NSC 2405", "Guerbet C20", "Risonol 20SP", "Fine Oxocol 2000", "OHV 180", "Jarcol I 20", "NJCOL 200A", "Eutanol G-PH", "Kollicream OD", "Tegosoft G 20", "Octyldodecanol", "Octyldodecyl alcohol", "Eutanol G-JP", "Polymol G", "2-Decyl-1-decanol", "Eutanol GJ-P"], "SMILES": "C(CCCCCCCCCC)(CCCCCCCC)CO", "physical_data": {"Molecular Weight": "298.55", "Molecular Formula": "C20H42O", "Boiling Point": "230 \u00b0C @ Press: 17 Torr", "Density": "0.8463 g/cm\u00b3 @ Temp: 19 \u00b0C"}}