{"cas_no": "5333-88-0", "cn_name": "2-\u6eb4\u5e9a\u9178\u4e59\u916f", "en_name": ["Heptanoic acid, 2-bromo-, ethyl ester", "Heptanoic acid, 2-bromo-, ethyl ester", "Enanthic acid, \u03b1-bromo-, ethyl ester", "Ethyl 2-bromoheptanoate", "NSC 2356"], "SMILES": "C(C(OCC)=O)(CCCCC)Br", "physical_data": {"Molecular Weight": "237.13", "Molecular Formula": "C9H17BrO2", "Boiling Point": "50 \u00b0C @ Press: 0.4 Torr"}}