{"cas_no": "5333-83-5", "cn_name": "2-\u6b63\u4e01\u9170\u567b\u5429", "en_name": ["1-(2-Thienyl)-1-butanone", "1-Butanone, 1-(2-thienyl)-", "Ketone, propyl 2-thienyl", "1-(2-Thienyl)-1-butanone", "2-Butyrylthiophene", "2-Butanoylthiophene", "1-(2-Thienyl)butan-1-one", "NSC 2350", "1-(Thien-2-yl)butanone", "1-(Thiophen-2-yl)butan-1-one"], "SMILES": "C(CCC)(=O)C1=CC=CS1", "physical_data": {"Molecular Weight": "154.23", "Molecular Formula": "C8H10OS", "Boiling Point": "123-124 \u00b0C @ Press: 25 Torr", "Density": "1.0730 g/cm\u00b3 @ Temp: 20 \u00b0C"}}