{"cas_no": "5333-84-6", "cn_name": "3-\u7532\u57fa\u56db\u6c22\u82ef\u9150", "en_name": ["3-Methyltetrahydrophthalic anhydride", "1,3-Isobenzofurandione, 3a,4,7,7a-tetrahydro-4-methyl-", "4-Cyclohexene-1,2-dicarboxylic anhydride, 3-methyl-", "3a,4,7,7a-Tetrahydro-4-methyl-1,3-isobenzofurandione", "3-Methyltetrahydrophthalic anhydride", "3-Methyl-1,2,3,6-tetrahydrophthalic anhydride", "3-Methyl-4-cyclohexene-1,2-dicarboxylic anhydride", "3-Methyl-\u03944-tetrahydrophthalic anhydride", "3-Methyl-4-cyclohexene-1,2-dicarboxylic acid anhydride", "1,2,3,6-Tetrahydro-3-methylphthalic anhydride", "I-MTHFA", "NSC 2352", "ECH 202", "Dicure 319"], "SMILES": "CC1C2C(C(=O)OC2=O)CC=C1", "physical_data": {"Molecular Weight": "166.17", "Molecular Formula": "C9H10O3", "Melting Point": "61 \u00b0C"}}