{"cas_no": "5333-27-7", "cn_name": "3-\u785d\u57fa-4-\u7532\u57fa\u82ef\u4e59\u916e", "en_name": ["1-(4-Methyl-3-nitrophenyl)ethanone", "Ethanone, 1-(4-methyl-3-nitrophenyl)-", "Acetophenone, 4\u2032-methyl-3\u2032-nitro-", "Acetophenone, 4-methyl-3-nitro-", "1-(4-Methyl-3-nitrophenyl)ethanone", "4\u2032-Methyl-3\u2032-nitroacetophenone", "3\u2032-Nitro-4\u2032-methylacetophenone", "NSC 617", "1-(4-Methyl-3-nitrophenyl)ethan-1-one"], "SMILES": "N(=O)(=O)C1=CC(C(C)=O)=CC=C1C", "physical_data": {"Molecular Weight": "179.17", "Molecular Formula": "C9H9NO3", "Melting Point": "62 \u00b0C"}}