{"cas_no": "5334-23-6", "cn_name": "\u5def\u5f02\u560c\u5464", "en_name": ["Tisopurine", "4H-Pyrazolo[3,4-d]pyrimidine-4-thione, 1,5-dihydro-", "1H-Pyrazolo[3,4-d]pyrimidine-4(5H)-thione", "1,5-Dihydro-4H-pyrazolo[3,4-d]pyrimidine-4-thione", "4-Mercaptopyrazolo[3,4-d]pyrimidine", "Thiopurinol", "MPP (pharmaceutical)", "Allopurinol, thio-", "1H-Pyrazolo[3,4-d]pyrimidine-4-thiol", "5H-Pyrazolo[3,4-d]pyrimidine-4-thione", "4-Mercapto-1H-pyrazolo[3,4-d]pyrimidine", "Tisopurine", "MPP", "8-Aza-7-deaza-6-thiopurine", "NSC 1392", "1H,4H,5H-Pyrazolo[3,4-d]pyrimidine-4-thione", "1H,4H,7H-Pyrazolo[3,4-d]pyrimidine-4-thione", "1,2-Dihydropyrazolo[3,4-d]pyrimidine-4-thione"], "SMILES": "S=C1C2=C(NC=N1)NN=C2", "physical_data": {"Molecular Weight": "152.18", "Molecular Formula": "C5H4N4S", "Melting Point": "&gt;360 \u00b0C"}}