{"cas_no": "53348-05-3", "cn_name": "3,6-\u4e8c\u6eb4\u83f2\u918c", "en_name": ["3,6-Dibromo-9,10-phenanthrenedione", "9,10-Phenanthrenedione, 3,6-dibromo-", "Phenanthrenequinone, 3,6-dibromo-", "3,6-Dibromo-9,10-phenanthrenedione", "3,6-Dibromo-9,10-phenanthrenequinone", "NSC 87364", "3,6-Dibromophenanthrene-9,10-dione", "3,6-Dibromophenanthraquinone", "3,6-Dibromo-9,10-dihydrophenanthrene-9,10-dione", "3,6-Dibromophenantrene-9,10-dione"], "SMILES": "O=C1C=2C(C=3C(C1=O)=CC=C(Br)C3)=CC(Br)=CC2", "physical_data": {"Molecular Weight": "366.00", "Molecular Formula": "C14H6Br2O2", "Melting Point": "286-287 \u00b0C"}}