{"cas_no": "5334-31-6", "cn_name": "3-\u6c28\u57fa-1H-\u5421\u5511-4-\u7532\u9170\u80fa", "en_name": ["3-Amino-1H-pyrazole-4-carboxamide", "1H-Pyrazole-4-carboxamide, 3-amino-", "3-Amino-1H-pyrazole-4-carboxamide", "5-Amino-4-pyrazolecarboxamide", "3-Amino-4-pyrazolecarboxamide", "NSC 1402", "3-Amino-4-carbamoylpyrazole"], "SMILES": "C(N)(=O)C=1C(N)=NNC1", "physical_data": {"Molecular Weight": "126.12", "Molecular Formula": "C4H6N4O", "Melting Point": "187-189 \u00b0C"}}