{"cas_no": "5334-41-8", "cn_name": "1-\u7532\u57fa-4-\u6c30\u57fa-5-\u6c28\u57fa-1,2-\u5421\u5511", "en_name": ["5-Amino-1-methyl-1H-pyrazole-4-carbonitrile", "1H-Pyrazole-4-carbonitrile, 5-amino-1-methyl-", "Pyrazole-4-carbonitrile, 5-amino-1-methyl-", "5-Amino-1-methyl-1H-pyrazole-4-carbonitrile", "5-Amino-1-methyl-4-cyanopyrazole", "5-Amino-4-cyano-1-methylpyrazole", "1-Methyl-4-cyano-5-aminopyrazole", "5-Amino-4-cyano-1-methyl-1H-pyrazole", "NSC 102022", "NSC 1412", "5-Amino-1-methylpyrazole-4-carbonitrile", "1-Methyl-5-amino-4-cyanopyrazole"], "SMILES": "C(#N)C1=C(N)N(C)N=C1", "physical_data": {"Molecular Weight": "122.13", "Molecular Formula": "C5H6N4", "Melting Point": "222-223 \u00b0C"}}