{"cas_no": "5334-39-4", "cn_name": "3-\u7532\u57fa-4-\u785d\u57fa\u5421\u5511", "en_name": ["3-Methyl-4-nitro-1H-pyrazole", "1H-Pyrazole, 3-methyl-4-nitro-", "Pyrazole, 3-methyl-4-nitro-", "Pyrazole, 3(or 5)-methyl-4-nitro-", "3-Methyl-4-nitro-1H-pyrazole", "3-Methyl-4-nitropyrazole", "4-Nitro-3-methylpyrazole", "NSC 1410"], "SMILES": "N(=O)(=O)C=1C(C)=NNC1", "physical_data": {"Molecular Weight": "127.10", "Molecular Formula": "C4H5N3O2", "Melting Point": "133-134 \u00b0C"}}