{"cas_no": "5334-99-6", "cn_name": "1-\u7532\u57fa-4-\u6c28\u57fa-1H-\u5421\u5511\u5e76[3,4-D]\u5627\u5576", "en_name": ["1-Methyl-1H-pyrazolo[3,4-d]pyrimidin-4-amine", "1H-Pyrazolo[3,4-d]pyrimidin-4-amine, 1-methyl-", "1H-Pyrazolo[3,4-d]pyrimidine, 4-amino-1-methyl-", "1-Methyl-1H-pyrazolo[3,4-d]pyrimidin-4-amine", "NSC 1399", "1-Methylpyrazolo[3,4-d]pyrimidin-4-amine"], "SMILES": "NC1=C2C(N(C)N=C2)=NC=N1", "physical_data": {"Molecular Weight": "149.15", "Molecular Formula": "C6H7N5", "Melting Point": "267-268 \u00b0C"}}