{"cas_no": "5334-56-5", "cn_name": "1-\u7532\u57fa-1,5-\u4e8c\u6c22\u5421\u5511\u5e76[3,4-D]\u5627\u5576-4-\u916e", "en_name": ["1-Methyl-1,5-dihydropyrazolo[3,4-d]pyrimidin-4-one", "4H-Pyrazolo[3,4-d]pyrimidin-4-one, 1,5-dihydro-1-methyl-", "1H-Pyrazolo[3,4-d]pyrimidin-4-ol, 1-methyl-", "1,5-Dihydro-1-methyl-4H-pyrazolo[3,4-d]pyrimidin-4-one", "4-Hydroxy-1-methylpyrazolo[3,4-d]pyrimidine", "9-Methylallopurinol", "NSC 1439", "NSC 635171", "1-Methyl-1,5-dihydropyrazolo[3,4-d]pyrimidin-4-one", "1-Methyl-1H-pyrazolo[3,4-d]pyrimidin-4-ol", "1-Methyl-1H-pyrazolo[3,4-d]pyrimidin-4(5H)-one", "1-Methyl-1H,4H,5H-pyrazolo[3,4-d]pyrimidin-4-one", "1-Methyl-1,5-dihydro-4H-pyrazolo[3,4-d]pyrimidin-4-one"], "SMILES": "O=C1C2=C(N(C)N=C2)NC=N1", "physical_data": {"Molecular Weight": "150.14", "Molecular Formula": "C6H6N4O", "Melting Point": "&gt;300 \u00b0C"}}