{"cas_no": "53348-04-2", "cn_name": "9,10-\u4e8c\u6c28\u57fa\u83f2", "en_name": ["9,10-Diaminophenanthrene", "9,10-Phenanthrenediamine", "9,10-Diaminophenanthrene", "NSC 80191"], "SMILES": "NC1=C2C(=C3C(=C1N)C=CC=C3)C=CC=C2", "physical_data": {"Molecular Weight": "208.26", "Molecular Formula": "C14H12N2", "Melting Point": "160 \u00b0C"}}