{"cas_no": "5334-43-0", "cn_name": "5-\u6c28\u57fa-1-\u82ef\u57fa\u5421\u5511-4-\u8148", "en_name": ["5-Amino-1-phenyl-1H-pyrazole-4-carbonitrile", "1H-Pyrazole-4-carbonitrile, 5-amino-1-phenyl-", "Pyrazole-4-carbonitrile, 5-amino-1-phenyl-", "5-Amino-1-phenyl-1H-pyrazole-4-carbonitrile", "5-Amino-4-cyano-1-phenylpyrazole", "5-Amino-1-phenyl-4-pyrazolecarbonitrile", "MB 3670", "M and B 36701", "NSC 1414", "1-Phenyl-4-cyano-5-aminopyrazole", "5-Amino-4-cyano-1-phenyl-1H-pyrazole"], "SMILES": "NC=1N(N=CC1C#N)C2=CC=CC=C2", "physical_data": {"Molecular Weight": "184.20", "Molecular Formula": "C10H8N4", "Melting Point": "140 \u00b0C"}}