{"cas_no": "5335-05-7", "cn_name": "\u82ef\u7532\u9178\u6c2f\u7532\u57fa", "en_name": ["Methanol, 1-chloro-, 1-benzoate", "Methanol, 1-chloro-, 1-benzoate", "Methanol, chloro-, benzoate", "Benzoic acid chloromethyl ester", "Chloromethyl benzoate", "Benzoyloxymethyl chloride", "(Benzoyloxy)chloromethane", "NSC 2876"], "SMILES": "C(OCCl)(=O)C1=CC=CC=C1", "physical_data": {"Molecular Weight": "170.59", "Molecular Formula": "C8H7ClO2", "Boiling Point": "114-115 \u00b0C @ Press: 8 Torr"}}