{"cas_no": "53350-26-8", "cn_name": "3',4',5',5,7-\u4e94\u7532\u6c27\u57fa\u9ec4\u916e", "en_name": ["3\u2032,4\u2032,5,5\u2032,7-Pentamethoxyflavone", "4H-1-Benzopyran-4-one, 5,7-dimethoxy-2-(3,4,5-trimethoxyphenyl)-", "Flavone, 3\u2032,4\u2032,5,5\u2032,7-pentamethoxy-", "5,7-Dimethoxy-2-(3,4,5-trimethoxyphenyl)-4H-1-benzopyran-4-one", "3\u2032,4\u2032,5,5\u2032,7-Pentamethoxyflavone", "Tricetin pentamethyl ether", "3\u2032,4\u2032,5\u2032,5,7-Pentamethoxyflavone", "5,7,3\u2032,4\u2032,5\u2032-Pentamethoxyflavone"], "SMILES": "O(C)C1=C2C(OC(=CC2=O)C3=CC(OC)=C(OC)C(OC)=C3)=CC(OC)=C1", "physical_data": {"Molecular Weight": "372.37", "Molecular Formula": "C20H20O7", "Melting Point": "192-193 \u00b0C"}}