{"cas_no": "53369-17-8", "cn_name": "\u6843\u91d1\u5a18\u70f7\u9187", "en_name": ["(-)-Myrtanol", "Bicyclo[3.1.1]heptane-2-methanol, 6,6-dimethyl-, (1S,2S,5S)-", "Bicyclo[3.1.1]heptane-2-methanol, 6,6-dimethyl-, [1S-(1\u03b1,2\u03b1,5\u03b1)]-", "(1S,2S,5S)-6,6-Dimethylbicyclo[3.1.1]heptane-2-methanol", "(-)-Myrtanol", "(1S,2S,5S)-Myrtanol", "(-)-trans-Myrtanol", "(1S)-Myrtanol", "((1S,2S,5S)-6,6-Dimethylbicyclo[3.1.1]hept-2-yl)methanol", "[(2S)-trans]-(1S,5S)-6,6-Dimethylbicyclo[3,1,1]heptan-2-yl-methanol", "((1S,2S,5S)-6,6-Dimethylbicyclo[3.1.1]-heptan-2-yl)methanol", "((1S,2S,5S)-6,6-Dimethylbicyclo[3.1.1]heptan-2-yl)methanol"], "SMILES": "CC1(C)C2C(CO)CCC1C2", "physical_data": {"Molecular Weight": "154.25", "Molecular Formula": "C10H18O", "Boiling Point": "118 \u00b0C"}}