{"cas_no": "53369-71-4", "cn_name": "N,N,2,2-\u56db\u7532\u57fa-1,3-\u4e19\u4e8c\u80fa", "en_name": ["N,N,2,2-Tetramethyl-1,3-propanediamine", "1,3-Propanediamine, N1,N1,2,2-tetramethyl-", "1,3-Propanediamine, N,N,2,2-tetramethyl-", "N1,N1,2,2-Tetramethyl-1,3-propanediamine", "N,N,2,2-Tetramethyl-1,3-propanediamine", "1-Amino-3-dimethylamino-2,2-dimethylpropane", "3-Dimethylamino-2,2-dimethyl-1-propanamine", "N,N-Dimethyl-2,2-dimethyl-1,3-propanediamine", "N,N-Dimethylneopentanediamine", "3-(N,N-Dimethylamino)-2,2-dimethylpropylamine", "2,2-Dimethyl-3-dimethylaminopropylamine", "(3-Dimethylamino-2,2-dimethylpropyl)amine", "N,N,2,2-Tetramethyl-1,3-diaminopropane"], "SMILES": "C(C(CN)(C)C)N(C)C", "physical_data": {"Molecular Weight": "130.23", "Molecular Formula": "C7H18N2", "Boiling Point": "155-158 \u00b0C"}}