{"cas_no": "5336-08-3", "cn_name": "D-(+)-\u6838\u7cd6\u9178-1,4-\u5185\u916f", "en_name": ["(+)-Ribonolactone", "D-Ribonic acid, \u03b3-lactone", "Ribonic acid, \u03b3-lactone, D-", "D-Ribono-1,4-lactone", "D-Ribonolactone", "D-Ribono-\u03b3-lactone", "D-Ribopentono-1,4-lactone", "D-(+)-Ribonic acid lactone", "Ribonic acid 1,4-lactone", "D-(+)-Ribonolactone", "(+)-Ribonolactone", "D-(+)-Ribonic acid \u03b3-lactone", "NSC 1031"], "SMILES": "C(O)C1C(O)C(O)C(=O)O1", "physical_data": {"Molecular Weight": "148.11", "Molecular Formula": "C5H8O5", "Melting Point": "77 \u00b0C"}}