{"cas_no": "5337-09-7", "cn_name": "2-\u6eb4-3-\u785d\u57fa\u82ef\u7532\u9178\u7532\u916f", "en_name": ["Methyl 2-bromo-3-nitrobenzoate", "Benzoic acid, 2-bromo-3-nitro-, methyl ester", "Methyl 2-bromo-3-nitrobenzoate", "2-Bromo-3-nitrobenzoic acid methyl ester", "NSC 10344", "NSC 409"], "SMILES": "C(OC)(=O)C1=C(Br)C(N(=O)=O)=CC=C1", "physical_data": {"Molecular Weight": "260.04", "Molecular Formula": "C8H6BrNO4", "Melting Point": "77 \u00b0C"}}