{"cas_no": "5337-36-0", "cn_name": "\u787c\u9178\u4e09\u6b63\u5df1\u916f", "en_name": ["Trihexyl borate", "Boric acid (H3BO3), trihexyl ester", "Trihexyl borate", "Hexyl orthoborate", "NSC 781"], "SMILES": "B(OCCCCCC)(OCCCCCC)OCCCCCC", "physical_data": {"Molecular Weight": "314.31", "Molecular Formula": "C18H39BO3", "Boiling Point": "195 \u00b0C @ Press: 25 Torr"}}