{"cas_no": "53370-90-4", "cn_name": "\u4f9d\u6c99\u9170\u80fa", "en_name": ["Exalamide", "Benzamide, 2-(hexyloxy)-", "Benzamide, o-(hexyloxy)-", "2-(Hexyloxy)benzamide", "o-(Hexyloxy)benzamide", "2-n-Hexyloxybenzamide", "Exalamide", "Hyperan", "HBA", "2-Hexoxybenzamide"], "SMILES": "O(CCCCCC)C1=C(C(N)=O)C=CC=C1", "physical_data": {"Molecular Weight": "221.30", "Molecular Formula": "C13H19NO2", "Melting Point": "71 \u00b0C"}}