{"cas_no": "5337-41-7", "cn_name": "\u787c\u9178\u4e09(\u5341\u516b\u70f7\u57fa)\u916f", "en_name": ["Trioctadecyl borate", "Boric acid, trioctadecyl ester", "Boric acid (H3BO3), trioctadecyl ester", "Octadecyl borate", "Trioctadecyl borate", "Borester 13", "Tristearyl borate", "Tris(octadecyloxy)boron", "NSC 786"], "SMILES": "B(OCCCCCCCCCCCCCCCCCC)(OCCCCCCCCCCCCCCCCCC)OCCCCCCCCCCCCCCCCCC", "physical_data": {"Molecular Weight": "819.27", "Molecular Formula": "C54H111BO3", "Boiling Point": "339-343 \u00b0C @ Press: 0.4 Torr", "Melting Point": "41-44 \u00b0C"}}