{"cas_no": "5337-93-9", "cn_name": "\u5bf9\u7532\u57fa\u82ef\u4e19\u916e", "en_name": ["4\u2032-Methylpropiophenone", "1-Propanone, 1-(4-methylphenyl)-", "Propiophenone, 4\u2032-methyl-", "1-(4-Methylphenyl)-1-propanone", "4\u2032-Methylpropiophenone", "p-Methylpropiophenone", "Ethyl p-tolyl ketone", "Ethyl 4-methylphenyl ketone", "1-(4-Tolyl)-1-propanone", "NSC 852", "1-p-Tolylpropan-1-one"], "SMILES": "C(CC)(=O)C1=CC=C(C)C=C1", "physical_data": {"Molecular Weight": "148.20", "Molecular Formula": "C10H12O", "Boiling Point": "236 \u00b0C", "Melting Point": "7.2 \u00b0C", "Density": "0.9883 g/cm\u00b3 @ Temp: 21.7 \u00b0C"}}