{"cas_no": "53370-51-7", "cn_name": "\u567b\u5429-2-\u80fa\u809f", "en_name": ["N-Hydroxy-2-thiophenecarboximidamide", "2-Thiophenecarboximidamide, N-hydroxy-", "2-Thiophenecarboxamidoxime", "N-Hydroxy-2-thiophenecarboximidamide", "2-Thiopheneamidoxime", "2-Thiophenecarboxamide oxime", "2-Thienylamidoxime", "N-Hydroxythiophene-2-carboximidamide", "2-(N-Hydroxycarbamimidoyl)thiophene", "N\u2032-Hydroxythiophene-2-carboximidamide"], "SMILES": "C(NO)(=N)C1=CC=CS1", "physical_data": {"Molecular Weight": "142.18", "Molecular Formula": "C5H6N2OS", "Melting Point": "90 \u00b0C"}}