{"cas_no": "5337-79-1", "cn_name": "\u5421\u5576-4-\u4e19\u70ef\u9178", "en_name": ["3-(4-Pyridinyl)-2-propenoic acid", "2-Propenoic acid, 3-(4-pyridinyl)-", "4-Pyridineacrylic acid", "3-(4-Pyridinyl)-2-propenoic acid", "3-(4-Pyridyl)acrylic acid", "4-Pyridylacrylic acid", "3-(4-Pyridyl)-2-propenoic acid", "3-(Pyridin-4-yl)-2-propenoic acid", "3-(4-Pyridinyl)acrylic acid", "NSC 830"], "SMILES": "C(=CC(O)=O)C=1C=CN=CC1", "physical_data": {"Molecular Weight": "149.15", "Molecular Formula": "C8H7NO2", "Melting Point": "293-295 \u00b0C"}}