{"cas_no": "5337-17-7", "cn_name": "(4-\u6c28\u57fa\u82ef\u57fa)\u81a6\u9178", "en_name": ["P-(4-Aminophenyl)phosphonic acid", "Phosphonic acid, P-(4-aminophenyl)-", "Phosphonic acid, (p-aminophenyl)-", "Phosphonic acid, (4-aminophenyl)-", "P-(4-Aminophenyl)phosphonic acid", "Phosphanilic acid", "(p-Aminophenyl)phosphonic acid", "p-Phosphonoaniline", "(4-Aminophenyl)phosphonic acid", "4-Phosphonoaniline", "p-Aminobenzenephosphonic acid", "4-Aminobenzenephosphonic acid", "NSC 417", "NSC 55744"], "SMILES": "P(=O)(O)(O)C1=CC=C(N)C=C1", "physical_data": {"Molecular Weight": "173.11", "Molecular Formula": "C6H8NO3P", "Boiling Point": "205-208 \u00b0C @ Press: 1 Torr", "Melting Point": "285 \u00b0C"}}