{"cas_no": "5337-72-4", "cn_name": "2.6-\u4e8c\u7532\u57fa\u73af\u5df1\u9187", "en_name": ["2,6-Dimethylcyclohexanol", "Cyclohexanol, 2,6-dimethyl-", "2,6-Dimethylcyclohexanol", "2,6-Dimethyl-1-cyclohexanol", "NSC 821", "2,6-Dimethylcyclohexyl alcohol"], "SMILES": "OC1C(C)CCCC1C", "physical_data": {"Molecular Weight": "128.21", "Molecular Formula": "C8H16O", "Boiling Point": "176 \u00b0C", "Melting Point": "32.5 \u00b0C", "Density": "0.9231 g/cm\u00b3 @ Temp: 20 \u00b0C"}}