{"cas_no": "533884-09-2", "cn_name": "\u82ac\u514b\u7f57\u916e", "en_name": ["(3aS,4R,9bR)-1,2,3,3a,4,9b-Hexahydro-4-(4-hydroxyphenyl)cyclopenta[c][1]benzopyran-8-ol", "Cyclopenta[c][1]benzopyran-8-ol, 1,2,3,3a,4,9b-hexahydro-4-(4-hydroxyphenyl)-, (3aS,4R,9bR)-", "(3aS,4R,9bR)-1,2,3,3a,4,9b-Hexahydro-4-(4-hydroxyphenyl)cyclopenta[c][1]benzopyran-8-ol", "LY 500307", "Erteberel"], "SMILES": "OC=1C=C2C3C(C(OC2=CC1)C4=CC=C(O)C=C4)CCC3", "physical_data": {"Molecular Weight": "282.33", "Molecular Formula": "C18H18O3", "Melting Point": "204.1 \u00b0C"}}