{"cas_no": "53399-81-8", "cn_name": "2-\u7532\u57fa-4-\u620a\u70ef\u9178\u4e59\u916f", "en_name": ["Ethyl 2-methyl-4-pentenoate", "4-Pentenoic acid, 2-methyl-, ethyl ester", "Ethyl 2-methyl-4-pentenoate", "2-Methyl-4-pentenoic acid ethyl ester"], "SMILES": "C(C(OCC)=O)(CC=C)C", "physical_data": {"Molecular Weight": "142.20", "Molecular Formula": "C8H14O2", "Boiling Point": "153-155 \u00b0C @ Press: 760 Torr"}}