{"cas_no": "5339-26-4", "cn_name": "4-\u785d\u57fa\u82ef\u4e59\u57fa\u6eb4", "en_name": ["4-Nitrophenethyl bromide", "Benzene, 1-(2-bromoethyl)-4-nitro-", "1-(2-Bromoethyl)-4-nitrobenzene", "p-Nitrophenethyl bromide", "2-(4-Nitrophenyl)ethyl bromide", "\u03b2-(p-Nitrophenyl)ethyl bromide", "4-(2-Bromoethyl)nitrobenzene", "4-Nitrophenethyl bromide", "2-(p-Nitrophenyl)ethyl bromide", "1-Bromo-2-(4-nitrophenyl)ethane", "2-(4-Nitrophenyl)-1-bromoethane", "NSC 100730", "NSC 3493", "4-(2-Bromoethyl)-1-nitrobenzene"], "SMILES": "N(=O)(=O)C1=CC=C(CCBr)C=C1", "physical_data": {"Molecular Weight": "230.06", "Molecular Formula": "C8H8BrNO2", "Boiling Point": "112-120 \u00b0C @ Press: 0.2 Torr", "Melting Point": "68 \u00b0C"}}