{"cas_no": "53398-80-4", "cn_name": "\u4e19\u9178(\u53cd-2-\u5df1\u70ef\u57fa)\u916f", "en_name": ["trans-2-Hexenyl propionate", "2-Hexen-1-ol, 1-propanoate, (2E)-", "2-Hexen-1-ol, propanoate, (E)-", "2-Hexen-1-ol, propanoate, (2E)-", "trans-2-Hexenyl propionate", "(E)-2-Hexenyl propanoate", "(E)-2-Hexenyl propionate"], "SMILES": "C(OC(CC)=O)C=CCCC", "physical_data": {"Molecular Weight": "156.22", "Molecular Formula": "C9H16O2", "Boiling Point": "90 \u00b0C @ Press: 15 Torr"}}