{"cas_no": "5339-85-5", "cn_name": "2-\u6c28\u57fa\u82ef\u4e59\u9187", "en_name": ["2-Aminobenzeneethanol", "Benzeneethanol, 2-amino-", "Phenethyl alcohol, o-amino-", "2-Aminobenzeneethanol", "2-(o-Aminophenyl)ethanol", "2-Aminophenylethyl alcohol", "o-Aminophenethyl alcohol", "2-(2-Hydroxyethyl)aniline", "2-Aminophenethyl alcohol", "[2-(2-Hydroxyethyl)phenyl]amine", "NSC 3572", "2-(2-Aminophenyl)ethanol", "2-(2-Aminophenyl)ethyl alcohol", "o-(2-Hydroxyethyl)aniline", "2-(2-Aminophenyl)ethan-1-ol"], "SMILES": "C(CO)C1=C(N)C=CC=C1", "physical_data": {"Molecular Weight": "137.18", "Molecular Formula": "C8H11NO", "Boiling Point": "147-148 \u00b0C @ Press: 3.5 Torr", "Melting Point": "140-145 \u00b0C"}}