{"cas_no": "53398-83-7", "cn_name": "N-\u4e01\u9178(\u53cd-2-\u5df1\u70ef\u57fa)\u916f", "en_name": ["trans-2-Hexenyl butyrate", "Butanoic acid, (2E)-2-hexen-1-yl ester", "Butanoic acid, 2-hexenyl ester, (E)-", "Butanoic acid, (2E)-2-hexenyl ester", "trans-2-Hexenyl butyrate", "trans-2-Hexenyl butanoate", "(E)-2-Hexenyl butanoate", "(E)-2-Hexenyl butyrate", "(E)-Hex-2-en-1-yl butyrate"], "SMILES": "C(OCC=CCCC)(CCC)=O", "physical_data": {"Molecular Weight": "170.25", "Molecular Formula": "C10H18O2", "Boiling Point": "120 \u00b0C @ Press: 10 Torr"}}