{"cas_no": "534-00-9", "cn_name": "(S)-1-\u6eb4-2-\u7532\u57fa\u4e01\u70f7", "en_name": ["(2S)-1-Bromo-2-methylbutane", "Butane, 1-bromo-2-methyl-, (2S)-", "Butane, 1-bromo-2-methyl-, (S)-(+)-", "Butane, 1-bromo-2-methyl-, (S)-", "(2S)-1-Bromo-2-methylbutane", "(+)-1-Bromo-2-methylbutane", "d-Amyl bromide", "(+)-(S)-1-Bromo-2-methylbutane", "(S)-(+)-1-Bromo-2-methylbutane", "(+)-2-Methylbutyl bromide", "(+)-2-Methyl-1-bromobutane", "(S)-2-Methyl-1-bromobutane", "(S)-1-Bromo-2-methylbutane", "(S)-(+)-2-Methyl-1-bromobutane", "(S)-2-Methylbutyl bromide", "S(+)-1-Bromo-2-methylbutane", "1-Bromo-2-(S)-methylbutane", "(2S)-1-Bromo-2-methylbutane"], "SMILES": "C(CBr)(CC)C", "physical_data": {"Molecular Weight": "151.04", "Molecular Formula": "C5H11Br", "Boiling Point": "121.6 \u00b0C", "Density": "1.217 g/cm\u00b3 @ Temp: 32 \u00b0C"}}