{"cas_no": "534-07-6", "cn_name": "1,3-\u4e8c\u6c2f\u4e19\u916e", "en_name": ["1,3-Dichloroacetone", "2-Propanone, 1,3-dichloro-", "1,3-Dichloro-2-propanone", "1,3-Dichloroacetone", "\u03b1,\u03b3-Dichloroacetone", "Bis(chloromethyl) ketone", "sym-Dichloroacetone", "\u03b1,\u03b1\u2032-Dichloroacetone", "NSC 8745"], "SMILES": "C(CCl)(CCl)=O", "physical_data": {"Molecular Weight": "126.97", "Molecular Formula": "C3H4Cl2O", "Boiling Point": "173.4 \u00b0C", "Melting Point": "45 \u00b0C", "Density": "1.3826 g/cm\u00b3 @ Temp: 46 \u00b0C"}}