{"cas_no": "534-13-4", "cn_name": "N,N'-\u4e8c\u7532\u57fa\u786b\u8132", "en_name": ["N,N\u2032-Dimethylthiourea", "Thiourea, N,N\u2032-dimethyl-", "Urea, 1,3-dimethyl-2-thio-", "N,N\u2032-Dimethylthiourea", "Dimethylthiocarbamide", "sym-Dimethylthiourea", "1,3-Dimethylthiourea", "1,3-Dimethyl-2-thiourea", "1,3-Dimethylisothiourea", "NSC 8727"], "SMILES": "C(NC)(NC)=S", "physical_data": {"Molecular Weight": "104.17", "Molecular Formula": "C3H8N2S", "Boiling Point": "155 \u00b0C @ Press: 0.9 Torr", "Melting Point": "62 \u00b0C"}}