{"cas_no": "534-64-5", "cn_name": "\u6297\u786b\u80fa\u6c22\u6eb4\u9178", "en_name": ["Pyridinium, 1-[(4-amino-2-methyl-5-pyrimidinyl)methyl]-3-(2-hydroxyethyl)-2-methyl-, bromide, hydrobromide (1:1:1)", "Pyridinium, 1-[(4-amino-2-methyl-5-pyrimidinyl)methyl]-3-(2-hydroxyethyl)-2-methyl-, bromide, hydrobromide (1:1:1)", "2-Picolinium, 1-[(4-amino-2-methyl-5-pyrimidinyl)methyl]-3-(2-hydroxyethyl)-, bromide, monohydrobromide", "Pyridinium, 1-[(4-amino-2-methyl-5-pyrimidinyl)methyl]-3-(2-hydroxyethyl)-2-methyl-, bromide, monohydrobromide", "Neopyrithiamine", "Pyrithiamine", "Pyrithiamine hydrobromide", "Pyrithiamine bromide hydrobromide", "Pyrithiamin", "Pyrithiamin hydrobromide", "MeSH ID: D011745"], "SMILES": "C([N+]=1C(C)=C(CCO)C=CC1)C=2C(N)=NC(C)=NC2.[Br-].Br", "physical_data": {"Molecular Weight": "", "Molecular Formula": "C14H19N4O.BrH.Br", "Melting Point": "247 \u00b0C"}}