{"cas_no": "534-17-8", "cn_name": "\u78b3\u9178\u94ef", "en_name": ["Cesium carbonate", "Carbonic acid, cesium salt (1:2)", "Carbonic acid, dicesium salt", "Cesium carbonate (Cs2CO3)", "Dicesium carbonate", "Cesium carbonate", "Caesium carbonate"], "SMILES": "C(=O)(O)O.[Cs]", "physical_data": {"Molecular Weight": "", "Molecular Formula": "CH2O3.2Cs", "Melting Point": "794 \u00b0C"}}