{"cas_no": "534-85-0", "cn_name": "\u90bb\u6c28\u57fa\u4e8c\u82ef\u80fa", "en_name": ["N-Phenyl-o-phenylenediamine", "1,2-Benzenediamine, N1-phenyl-", "o-Phenylenediamine, N-phenyl-", "1,2-Benzenediamine, N-phenyl-", "N1-Phenyl-1,2-benzenediamine", "C.I. 50005", "N-Phenyl-o-phenylenediamine", "o-Semidine", "o-Aminodiphenylamine", "2-Aminodiphenylamine", "N-Phenyl-1,2-benzenediamine", "2-Anilinoaniline", "N-Phenyl-1,2-phenylenediamine", "N-Phenyl-1,2-diaminobenzene", "NSC 18731", "NSC 33960", "N-Phenyl-N-(2-aminophenyl)amine", "2-(N-Phenylamino)aniline", "2-(Phenylamino)aniline", "N-Phenyl-ortho-phenylenediamine", "2-Amino-N-phenylaniline", "N\u2032-Phenylbenzene-1,2-diamine", "N1-Phenylbenzene-1,2-diamine", "1-N-Phenylbenzene-1,2-diamine", "2-N-Phenylbenzene-1,2-diamine"], "SMILES": "N(C1=C(N)C=CC=C1)C2=CC=CC=C2", "physical_data": {"Molecular Weight": "184.24", "Molecular Formula": "C12H12N2", "Boiling Point": "313 \u00b0C", "Melting Point": "79.5 \u00b0C"}}