{"cas_no": "534-03-2", "cn_name": "\u4e1d\u6c28\u9187", "en_name": ["Serinol", "1,3-Propanediol, 2-amino-", "2-Amino-1,3-propanediol", "Serinol", "1,3-Dihydroxyisopropylamine", "2-Aminoglycerol", "1,3-Dihydroxy-2-propylamine", "2-Amino-1,3-dihydroxypropane", "2-Hydroxy-1-(hydroxymethyl)ethylamine", "NSC 93746", "2-Aminopropane-1,3-diol", "1,3-Dihydroxypropan-2-amine"], "SMILES": "C(CO)(CO)N", "physical_data": {"Molecular Weight": "91.11", "Molecular Formula": "C3H9NO2", "Boiling Point": "115-120 \u00b0C @ Press: 0.06 Torr", "Melting Point": "128 \u00b0C"}}