{"cas_no": "534-15-6", "cn_name": "\u4e8c\u7532\u6c27\u57fa\u4e59\u70f7", "en_name": ["Dimethyl acetal", "Ethane, 1,1-dimethoxy-", "Acetaldehyde, dimethyl acetal", "1,1-Dimethoxyethane", "Dimethyl acetal", "Ethylidene dimethyl ether", "Acetaldehyde methyl acetal", "3-Methyl-2,4-dioxapentane"], "SMILES": "C(OC)(OC)C", "physical_data": {"Molecular Weight": "90.12", "Molecular Formula": "C4H10O2", "Boiling Point": "64.5 \u00b0C", "Melting Point": "-113.2 \u00b0C", "Density": "0.85015 g/cm\u00b3 @ Temp: 20 \u00b0C"}}