{"cas_no": "534-26-9", "cn_name": "2-\u7532\u57fa\u54aa\u5511\u5549", "en_name": ["2-Methylimidazoline", "1H-Imidazole, 4,5-dihydro-2-methyl-", "2-Imidazoline, 2-methyl-", "4,5-Dihydro-2-methyl-1H-imidazole", "Lysidine", "Methylglyoxalidine", "2-Methyl-\u03942-imidazoline", "2-Methyl-2-imidazoline", "2-Methylimidazoline", "2-Methyl-4,5-dihydroimidazole", "2-Methyl-4,5-dihydro-1H-imidazole"], "SMILES": "CC=1NCCN1", "physical_data": {"Molecular Weight": "84.12", "Molecular Formula": "C4H8N2", "Boiling Point": "196.5 \u00b0C", "Melting Point": "107 \u00b0C"}}