{"cas_no": "534-59-8", "cn_name": "\u4e01\u57fa\u4e19\u4e8c\u9178", "en_name": ["Butylmalonic acid", "Propanedioic acid, 2-butyl-", "Malonic acid, butyl-", "Propanedioic acid, butyl-", "2-Butylpropanedioic acid", "n-Butylmalonic acid", "1,1-Pentanedicarboxylic acid", "2-n-Butylmalonic acid", "Butylmalonic acid", "2-Butylmalonic acid", "\u03b1-Carboxycaproic acid", "NSC 791"], "SMILES": "C(CCCC)(C(O)=O)C(O)=O", "physical_data": {"Molecular Weight": "160.17", "Molecular Formula": "C7H12O4", "Boiling Point": "237.5 \u00b0C", "Melting Point": "104.5 \u00b0C"}}