{"cas_no": "534-22-5", "cn_name": "2-\u7532\u57fa\u544b\u5583", "en_name": ["2-Methylfuran", "Furan, 2-methyl-", "2-Methylfuran", "\u03b1-Methylfuran", "Silvan", "Sylvan", "5-Methylfuran", "NSC 3707", "NSC 5211"], "SMILES": "CC1=CC=CO1", "physical_data": {"Molecular Weight": "82.10", "Molecular Formula": "C5H6O", "Boiling Point": "65 \u00b0C", "Melting Point": "-87.5 \u00b0C", "Density": "0.9159 g/cm\u00b3 @ Temp: 20 \u00b0C"}}