{"cas_no": "534-73-6", "cn_name": "\u5f02\u9ea6\u82bd\u7cd6\u9187", "en_name": ["Isomaltitol", "D-Glucitol, 6-O-\u03b1-D-glucopyranosyl-", "Glucitol, 6-O-\u03b1-D-glucopyranosyl-, D-", "Isomaltitol", "6-O-\u03b1-D-Glucopyranosyl-D-glucitol", "6-O-\u03b1-D-Glucopyranosyl-D-sorbitol", "1,6-GPS"], "SMILES": "O(CC(C(C(C(CO)O)O)O)O)C1OC(CO)C(O)C(O)C1O", "physical_data": {"Molecular Weight": "344.31", "Molecular Formula": "C12H24O11", "Melting Point": "165.5-167 \u00b0C"}}