{"cas_no": "534-52-1", "cn_name": "4,6-\u4e8c\u785d\u57fa\u90bb\u7532\u915a", "en_name": ["2-Methyl-4,6-dinitrophenol", "Phenol, 2-methyl-4,6-dinitro-", "o-Cresol, 4,6-dinitro-", "2-Methyl-4,6-dinitrophenol", "Dekrysil", "Detal", "4,6-Dinitro-o-cresol", "3,5-Dinitro-2-hydroxytoluene", "Dinitrol", "2,4-Dinitro-6-methylphenol", "Ditrosol", "DNOC", "Effusan", "Effusan 3436", "Hedolite", "K III", "K IV", "Elgetol 30", "Lipan", "Prokarbol", "Sandolin A", "Sinox", "Dinoc", "Hedolit", "Selinon", "Elgetol", "Winterwash", "Rafex 35", "Rafex", "6-Methyl-2,4-dinitrophenol", "Krezotol 50", "Sandolin", "Dinitrocresol", "Dillex", "Dinurania", "Extrar", "Flavin-Sandoz", "Dinitro-o-cresol", "Neudorff DN 50", "Raphatox", "Arborol", "Degrassan", "Elipol", "Nitrofan", "Dinitro", "Dinitrodendtroxal", "Kreozan", "4,6-Dinitro-2-methylphenol", "NSC 2082"], "SMILES": "N(=O)(=O)C1=CC(N(=O)=O)=CC(C)=C1O", "physical_data": {"Molecular Weight": "198.13", "Molecular Formula": "C7H6N2O5", "Boiling Point": "220 \u00b0C", "Melting Point": "86.5 \u00b0C", "Density": "1.58 g/cm\u00b3 @ Temp: 20 \u00b0C"}}