{"cas_no": "5340-48-7", "cn_name": "\u4e19\u620a\u9178\u94a0\u6742\u8d28J", "en_name": ["2,2-Dipropylpentanenitrile", "Pentanenitrile, 2,2-dipropyl-", "Valeronitrile, 2,2-dipropyl-", "2,2-Dipropylpentanenitrile", "Tripropylacetonitrile", "2,2-Dipropylvaleronitrile", "4-Cyano-4-propylheptane", "NSC 915"], "SMILES": "C(CCC)(CCC)(CCC)C#N", "physical_data": {"Molecular Weight": "167.29", "Molecular Formula": "C11H21N", "Boiling Point": "70 \u00b0C @ Press: 2 Torr"}}