{"cas_no": "53408-94-9", "cn_name": "\u7532\u57fa\u78fa\u9178\u9521", "en_name": ["Stannous methanesulfonate", "Methanesulfonic acid, tin(2+) salt (2:1)", "Methanesulfonic acid, tin(2+) salt", "Tin(II) methanesulfonate", "Stannous methanesulfonate", "Stannous methylsulfonate"], "SMILES": "S(C)(=O)(=O)O.[Sn]", "physical_data": {"Molecular Weight": "", "Molecular Formula": "CH4O3S.<sup>1</sup>/2Sn", "Melting Point": "-27 \u00b0C", "Density": "1.55 g/cm\u00b3"}}