{"cas_no": "5340-78-3", "cn_name": "\u53d4\u4e01\u57fa\u4e59\u9178\u4e59\u916f", "en_name": ["Butanoic acid, 3,3-dimethyl-, ethyl ester", "Butanoic acid, 3,3-dimethyl-, ethyl ester", "Butyric acid, 3,3-dimethyl-, ethyl ester", "Butyric acid, \u03b2,\u03b2-dimethyl-, ethyl ester", "Ethyl 3,3-dimethylbutyrate", "Ethyl 3,3-dimethylbutanoate", "NSC 949", "tert-Butylacetic acid ethyl ester", "3,3-Dimethylbutanoic acid ethyl ester"], "SMILES": "C(CC(C)(C)C)(OCC)=O", "physical_data": {"Molecular Weight": "144.21", "Molecular Formula": "C8H16O2", "Boiling Point": "102 \u00b0C @ Press: 740 Torr"}}