{"cas_no": "5340-36-3", "cn_name": "3-\u7532\u57fa-3-\u8f9b\u9187", "en_name": ["3-Methyl-3-octanol", "3-Octanol, 3-methyl-", "3-Methyl-3-octanol", "Amylethylmethylcarbinol", "NSC 903"], "SMILES": "C(CCCCC)(CC)(C)O", "physical_data": {"Molecular Weight": "144.25", "Molecular Formula": "C9H20O", "Boiling Point": "97.5 \u00b0C @ Press: 50 Torr", "Density": "0.8108 g/cm\u00b3 @ Temp: 25 \u00b0C"}}