{"cas_no": "5341-61-7", "cn_name": "\u4e8c\u76d0\u9178\u80bc", "en_name": ["Hydrazine, dihydrochloride", "Hydrazine, hydrochloride (1:2)", "Hydrazine, dihydrochloride"], "SMILES": "NN.Cl", "physical_data": {"Molecular Weight": "", "Molecular Formula": "ClH.<sup>1</sup>/2H4N2", "Melting Point": "197 \u00b0C"}}