{"cas_no": "53411-33-9", "cn_name": "\u6210\u8272\u5242\u54c1-264\u6c28\u57fa\u7269", "en_name": ["1-(2,4,6-Trichlorophenyl)-3-(2-chloro-5-aminoanilino)-5-pyrazolinone", "3H-Pyrazol-3-one, 5-[(5-amino-2-chlorophenyl)amino]-2,4-dihydro-2-(2,4,6-trichlorophenyl)-", "5-[(5-Amino-2-chlorophenyl)amino]-2,4-dihydro-2-(2,4,6-trichlorophenyl)-3H-pyrazol-3-one", "1-(2,4,6-Trichlorophenyl)-3-(2-chloro-5-aminoanilino)-5-pyrazolone", "1-(2,4,6-Trichlorophenyl)-3-(2-chloro-5-aminoanilino)-5-pyrazolinone", "3-(5-Amino-2-chloroanilino)-1-(2,4,6-trichlorophenyl)-5-pyrazolone", "1-(2,4,6-Trichlorophenyl)-3-(5-amino-2-chloroanilino)-5-pyrazolone"], "SMILES": "O=C1N(N=C(NC2=C(Cl)C=CC(N)=C2)C1)C3=C(Cl)C=C(Cl)C=C3Cl", "physical_data": {"Molecular Weight": "404.08", "Molecular Formula": "C15H10Cl4N4O", "Melting Point": "237-238 \u00b0C"}}