{"cas_no": "5342-95-0", "cn_name": "1-(\u54cc\u5576-1-\u7532\u57fa)-2-\u8418\u915a", "en_name": ["1-(1-Piperidinylmethyl)-2-naphthalenol", "2-Naphthalenol, 1-(1-piperidinylmethyl)-", "2-Naphthol, 1-(piperidinomethyl)-", "1-(1-Piperidinylmethyl)-2-naphthalenol", "1-(Piperidinomethyl)-2-naphthol", "1-Piperidinylmethyl-2-naphthol", "NSC 3684"], "SMILES": "C(C=1C2=C(C=CC1O)C=CC=C2)N3CCCCC3", "physical_data": {"Molecular Weight": "241.33", "Molecular Formula": "C16H19NO", "Melting Point": "96 \u00b0C"}}