{"cas_no": "5343-92-0", "cn_name": "1,2-\u620a\u4e8c\u9187", "en_name": ["1,2-Pentanediol", "1,2-Pentanediol", "1,2-Dihydroxypentane", "(\u00b1)-Pentane-1,2-diol", "NSC 513", "1,2-Pentylene glycol", "Hydrolite 5", "Diol PD", "4-Methyl-1,2-butanediol", "A-Leen 5", "Pentiol Green+"], "SMILES": "C(CCC)(CO)O", "physical_data": {"Molecular Weight": "104.15", "Molecular Formula": "C5H12O2", "Boiling Point": "210-211 \u00b0C", "Density": "0.9691 g/cm\u00b3 @ Temp: 24 \u00b0C"}}