{"cas_no": "5343-52-2", "cn_name": "\u4e19\u620a\u9178\u6742\u8d28K", "en_name": ["2-Ethyl-2-methylpentanoic acid", "Pentanoic acid, 2-ethyl-2-methyl-", "Valeric acid, 2-ethyl-2-methyl-", "2-Ethyl-2-methylpentanoic acid", "\u03b1-Ethyl-\u03b1-methylvaleric acid", "\u03b1-Methyl-\u03b1-ethylvaleric acid", "NSC 466", "2-Methyl-2-ethylpentanoic acid"], "SMILES": "C(CCC)(C(O)=O)(CC)C", "physical_data": {"Molecular Weight": "144.21", "Molecular Formula": "C8H16O2", "Boiling Point": "215-220 \u00b0C", "Density": "0.9187 g/cm\u00b3 @ Temp: 17 \u00b0C"}}