{"cas_no": "5343-99-7", "cn_name": "1,2-\u8418\u4e8c\u9178\u9150", "en_name": ["1,2-Naphthalenedicarboxylic anhydride", "Naphtho[1,2-c]furan-1,3-dione", "1,2-Naphthalenedicarboxylic anhydride", "1,3-\u03b1\u03b2-Isonaphthofurandione", "1,2-Naphthalic anhydride", "Naphthalene-3,4-dicarboxylic anhydride", "Naphthalene-1,2-dicarboxylic anhydride", "NSC 521"], "SMILES": "O=C1C=2C=3C(C=CC2C(=O)O1)=CC=CC3", "physical_data": {"Molecular Weight": "198.17", "Molecular Formula": "C12H6O3", "Boiling Point": "180-195 \u00b0C @ Press: 12 Torr", "Melting Point": "165 \u00b0C"}}