{"cas_no": "5344-49-0", "cn_name": "2-\u6c2f-6-\u785d\u57fa\u82ef\u7532\u9178", "en_name": ["2-Chloro-6-nitrobenzoic acid", "Benzoic acid, 2-chloro-6-nitro-", "2-Chloro-6-nitrobenzoic acid", "1-Chloro-2-carboxy-3-nitrobenzene", "NSC 1123"], "SMILES": "C(O)(=O)C1=C(N(=O)=O)C=CC=C1Cl", "physical_data": {"Molecular Weight": "201.56", "Molecular Formula": "C7H4ClNO4", "Melting Point": "184-185 \u00b0C"}}