{"cas_no": "5344-82-1", "cn_name": "\u90bb\u6c2f\u82ef\u57fa\u786b\u8132", "en_name": ["N-(2-Chlorophenyl)thiourea", "Thiourea, N-(2-chlorophenyl)-", "Urea, 1-(o-chlorophenyl)-2-thio-", "Thiourea, (2-chlorophenyl)-", "N-(2-Chlorophenyl)thiourea", "(o-Chlorophenyl)thiourea", "1-(2-Chlorophenyl)-2-thiourea", "1-(2-Chlorophenyl)thiourea", "1-(o-Chlorophenyl)thiourea", "2-Chlorophenylthiourea", "NSC 1165"], "SMILES": "N(C(N)=S)C1=C(Cl)C=CC=C1", "physical_data": {"Molecular Weight": "186.66", "Molecular Formula": "C7H7ClN2S", "Melting Point": "146 \u00b0C"}}