{"cas_no": "5344-88-7", "cn_name": "\u82ef\u5076\u9170\u8159", "en_name": ["1,2-Diphenyl-1,2-ethanedione 1-hydrazone", "1,2-Ethanedione, 1,2-diphenyl-, 1-hydrazone", "Benzil, monohydrazone", "Ethanedione, diphenyl-, monohydrazone", "Benzil, hydrazone", "1,2-Diphenyl-1,2-ethanedione 1-hydrazone", "NSC 1171", "NSC 5323", "2-Hydrazinylidene-1,2-diphenylethanone"], "SMILES": "C(C(=O)C1=CC=CC=C1)(=NN)C2=CC=CC=C2", "physical_data": {"Molecular Weight": "224.26", "Molecular Formula": "C14H12N2O", "Melting Point": "151 \u00b0C"}}