{"cas_no": "5344-90-1", "cn_name": "\u90bb\u6c28\u57fa\u82ef\u7532\u9187", "en_name": ["2-Aminobenzyl alcohol", "Benzenemethanol, 2-amino-", "Benzyl alcohol, o-amino-", "2-Aminobenzenemethanol", "o-Aminobenzylic alcohol", "o-Aminobenzyl alcohol", "2-Aminobenzyl alcohol", "o-(Hydroxymethyl)aniline", "2-(Hydroxymethyl)aniline", "(2-Aminophenyl)methanol", "[2-(Hydroxymethyl)phenyl]amine", "NSC 1173", "(o-Aminophenyl)methanol"], "SMILES": "C(O)C1=C(N)C=CC=C1", "physical_data": {"Molecular Weight": "123.15", "Molecular Formula": "C7H9NO", "Boiling Point": "273 \u00b0C", "Melting Point": "83.5 \u00b0C"}}