{"cas_no": "5344-78-5", "cn_name": "4-\u6eb4-3-\u785d\u57fa\u82ef\u7532\u919a", "en_name": ["1-Bromo-4-methoxy-2-nitrobenzene", "Benzene, 1-bromo-4-methoxy-2-nitro-", "Anisole, 4-bromo-3-nitro-", "1-Bromo-4-methoxy-2-nitrobenzene", "4-Methoxy-2-nitrobromobenzene", "4-Bromo-3-nitroanisole", "2-Bromo-5-methoxynitrobenzene", "2-Bromo-5-methoxy-1-nitrobenzene", "NSC 1161", "1-Bromo-2-nitro-4-methoxybenzene"], "SMILES": "N(=O)(=O)C1=CC(OC)=CC=C1Br", "physical_data": {"Molecular Weight": "232.03", "Molecular Formula": "C7H6BrNO3", "Boiling Point": "153-154 \u00b0C @ Press: 13 Torr", "Melting Point": "32 \u00b0C"}}