{"cas_no": "53440-12-3", "cn_name": "1,2,3,4-\u56db\u6c22-2-\u8418\u7532\u9178", "en_name": ["1,2,3,4-Tetrahydro-2-naphthoic acid", "2-Naphthalenecarboxylic acid, 1,2,3,4-tetrahydro-", "2-Naphthoic acid, 1,2,3,4-tetrahydro-", "1,2,3,4-Tetrahydro-2-naphthalenecarboxylic acid", "1,2,3,4-Tetrahydro-2-naphthoic acid", "(RS)-1,2,3,4-Tetrahydronaphthalene-2-carboxylic acid", "2-Carboxy-1,2,3,4-tetrahydronaphthalene", "NSC 408608", "Tetraline-2-carboxylic acid"], "SMILES": "C(O)(=O)C1CC=2C(CC1)=CC=CC2", "physical_data": {"Molecular Weight": "176.21", "Molecular Formula": "C11H12O2", "Melting Point": "97.7 \u00b0C"}}