{"cas_no": "5344-27-4", "cn_name": "4-\u4e59\u9187\u57fa\u5421\u5576", "en_name": ["4-Pyridineethanol", "4-Pyridineethanol", "4-(2-Hydroxyethyl)pyridine", "4-(\u03b2-Hydroxyethyl)pyridine", "2-(4-Pyridyl)ethanol", "2-(\u03b3-Pyridyl)ethanol", "2-(4-Pyridyl)-1-ethanol", "NSC 1096", "2-(4-Pyridinyl)ethanol", "2-(Pyridin-4-yl)ethan-1-ol"], "SMILES": "C(CO)C=1C=CN=CC1", "physical_data": {"Molecular Weight": "123.15", "Molecular Formula": "C7H9NO", "Boiling Point": "146-147 \u00b0C @ Press: 8 Torr", "Melting Point": "13.1-13.3 \u00b0C"}}