{"cas_no": "5345-01-7", "cn_name": "3-\u4e59\u57fa-3-\u7532\u57fa\u620a\u4e8c\u9178", "en_name": ["3-Ethyl-3-methylpentanedioic acid", "Pentanedioic acid, 3-ethyl-3-methyl-", "Glutaric acid, 3-ethyl-3-methyl-", "3-Ethyl-3-methylpentanedioic acid", "3-Ethyl-3-methylglutaric acid", "NSC 2989"], "SMILES": "C(CC(O)=O)(CC(O)=O)(CC)C", "physical_data": {"Molecular Weight": "174.19", "Molecular Formula": "C8H14O4", "Boiling Point": "261 \u00b0C", "Melting Point": "87 \u00b0C"}}