{"cas_no": "5345-47-1", "cn_name": "2-\u6c28\u57fa\u70df\u9178", "en_name": ["2-Aminonicotinic acid", "3-Pyridinecarboxylic acid, 2-amino-", "Nicotinic acid, 2-amino-", "2-Amino-3-pyridinecarboxylic acid", "2-Aminonicotinic acid", "NSC 3049", "2-Amino-3-carboxypyridine"], "SMILES": "C(O)(=O)C1=C(N)N=CC=C1", "physical_data": {"Molecular Weight": "138.12", "Molecular Formula": "C6H6N2O2", "Melting Point": "308 \u00b0C (decomp)"}}