{"cas_no": "5345-54-0", "cn_name": "3-\u6c2f-4-\u7532\u6c27\u57fa\u82ef\u80fa", "en_name": ["3-Chloro-4-methoxyaniline", "Benzenamine, 3-chloro-4-methoxy-", "p-Anisidine, 3-chloro-", "3-Chloro-4-methoxybenzenamine", "2-Chloro-4-aminoanisole", "3-Chloro-4-methoxyaniline", "3-Chloro-p-anisidine", "4-Methoxy-3-chloroaniline", "3-Chloro-4-methoxyphenylamine", "3-Chloro-4-anisidine", "NSC 1706", "3-Chloro-4-(methyloxy)aniline"], "SMILES": "O(C)C1=C(Cl)C=C(N)C=C1", "physical_data": {"Molecular Weight": "157.60", "Molecular Formula": "C7H8ClNO", "Melting Point": "50-55 \u00b0C"}}