{"cas_no": "5345-42-6", "cn_name": "3-\u7532\u57fa-2-\u785d\u57fa\u82ef\u7532\u919a", "en_name": ["1-Methoxy-3-methyl-2-nitrobenzene", "Benzene, 1-methoxy-3-methyl-2-nitro-", "Anisole, 3-methyl-2-nitro-", "1-Methoxy-3-methyl-2-nitrobenzene", "3-Methyl-2-nitroanisole", "3-Methoxy-2-nitrotoluene", "NSC 3040"], "SMILES": "N(=O)(=O)C1=C(OC)C=CC=C1C", "physical_data": {"Molecular Weight": "167.16", "Molecular Formula": "C8H9NO3", "Melting Point": "54 \u00b0C"}}