{"cas_no": "5345-89-1", "cn_name": "2,6-\u4e8c\u6c2f\u8089\u6842\u9178", "en_name": ["3-(2,6-Dichlorophenyl)-2-propenoic acid", "2-Propenoic acid, 3-(2,6-dichlorophenyl)-", "Cinnamic acid, 2,6-dichloro-", "3-(2,6-Dichlorophenyl)-2-propenoic acid", "2,6-Dichlorocinnamic acid", "NSC 1762"], "SMILES": "C(=CC(O)=O)C1=C(Cl)C=CC=C1Cl", "physical_data": {"Molecular Weight": "217.05", "Molecular Formula": "C9H6Cl2O2", "Melting Point": "192-193 \u00b0C"}}