{"cas_no": "5346-90-7", "cn_name": "D-(+)-\u7ea4\u7ef4\u4e8c\u7cd6\u516b\u4e59\u9178\u916f", "en_name": ["\u03b1-D-Cellobiose octaacetate", "\u03b1-D-Glucopyranose, 4-O-(2,3,4,6-tetra-O-acetyl-\u03b2-D-glucopyranosyl)-, 1,2,3,6-tetraacetate", "Cellobiose, octaacetate, \u03b1-D-", "\u03b1-D-Glucopyranose, 4-O-(2,3,4,6-tetra-O-acetyl-\u03b2-D-glucopyranosyl)-, tetraacetate", "Octaacetyl-\u03b1-cellobiose", "Octa-O-acetyl-\u03b1-D-cellobiose", "\u03b1-Cellobiose octaacetate", "\u03b1-Cellobiopyranose octaacetate", "\u03b1-D-Cellobiose octaacetate", "NSC 1221", "NSC 1696"], "SMILES": "O(C1C(OC(C)=O)C(OC(C)=O)C(OC(C)=O)OC1COC(C)=O)C2C(OC(C)=O)C(OC(C)=O)C(OC(C)=O)C(COC(C)=O)O2", "physical_data": {"Molecular Weight": "678.59", "Molecular Formula": "C28H38O19", "Melting Point": "226 \u00b0C"}}