{"cas_no": "53463-68-6", "cn_name": "10-\u6eb4-1-\u7678\u9187", "en_name": ["10-Bromo-1-decanol", "1-Decanol, 10-bromo-", "10-Bromo-1-decanol", "10-Bromodecanol"], "SMILES": "C(CCCCCO)CCCCBr", "physical_data": {"Molecular Weight": "237.18", "Molecular Formula": "C10H21BrO", "Boiling Point": "166-169 \u00b0C @ Press: 10 Torr"}}