{"cas_no": "5346-53-2", "cn_name": "1-\u7f9f\u4e59\u57fa-4-\u6c30\u57fa-5-\u6c28\u57fa\u5421\u5511", "en_name": ["5-Amino-1-(2-hydroxyethyl)-1H-pyrazole-4-carbonitrile", "1H-Pyrazole-4-carbonitrile, 5-amino-1-(2-hydroxyethyl)-", "Pyrazole-4-carbonitrile, 5-amino-1-(2-hydroxyethyl)-", "5-Amino-1-(2-hydroxyethyl)-1H-pyrazole-4-carbonitrile", "NSC 114117", "NSC 1632"], "SMILES": "C(CO)N1C(N)=C(C#N)C=N1", "physical_data": {"Molecular Weight": "152.15", "Molecular Formula": "C6H8N4O", "Melting Point": "158-160 \u00b0C"}}