{"cas_no": "5346-38-3", "cn_name": "\u5421\u5576-2-\u7fa7\u786b\u9178\u80fa", "en_name": ["2-Pyridinecarbothioamide", "2-Pyridinecarbothioamide", "Picolinamide, thio-", "Picolinic acid thioamide", "Picolinothioamide", "Thiopicolinamide", "Thio-2-pyridinecarboxamide", "2-Thiocarbamoylpyridine", "2-Thiopicolinamide", "Pyridine-2-thioamide", "NSC 1606", "Pyridine-2-thiocarboxamide", "Pyridine-2-carbothioic acid amide"], "SMILES": "C(N)(=S)C1=CC=CC=N1", "physical_data": {"Molecular Weight": "138.19", "Molecular Formula": "C6H6N2S", "Melting Point": "137 \u00b0C"}}