{"cas_no": "53475-15-3", "cn_name": "3-\u7532\u5def\u57fa-2-\u4e01\u916e", "en_name": ["3-(Methylthio)-2-butanone", "2-Butanone, 3-(methylthio)-", "3-(Methylthio)-2-butanone"], "SMILES": "C(C(C)=O)(SC)C", "physical_data": {"Molecular Weight": "118.20", "Molecular Formula": "C5H10OS", "Boiling Point": "45-47 \u00b0C @ Press: 15 Torr"}}