{"cas_no": "53472-18-7", "cn_name": "3H-[1,2,3]\u4e09\u5511\u5e76[4,5-D]\u5627\u5576-7-\u9187", "en_name": ["5-Bromo-8-quinolinamine", "8-Quinolinamine, 5-bromo-", "5-Bromo-8-quinolinamine", "8-Amino-5-bromoquinoline"], "SMILES": "BrC=1C2=C(C(N)=CC1)N=CC=C2", "physical_data": {"Molecular Weight": "223.07", "Molecular Formula": "C9H7BrN2", "Melting Point": "109-110 \u00b0C"}}