{"cas_no": "5348-42-5", "cn_name": "4,5-\u4e8c\u6c2f-1,2-\u82ef\u4e8c\u80fa", "en_name": ["4,5-Dichloro-1,2-phenylenediamine", "1,2-Benzenediamine, 4,5-dichloro-", "o-Phenylenediamine, 4,5-dichloro-", "4,5-Dichloro-1,2-benzenediamine", "1,2-Dichloro-4,5-diaminobenzene", "1,2-Diamino-4,5-dichlorobenzene", "4,5-Dichloro-1,2-phenylenediamine", "4,5-Dichloro-1,2-diaminobenzene", "4,5-Dichloro-o-phenylenediamine", "2-Amino-4,5-dichloroaniline", "1,2-Dichloro-4,5-phenylenediamine", "NSC 1577", "4,5-Dichlorophenyldiamine", "4,5-Dichloro-1,2-diamine"], "SMILES": "ClC1=C(Cl)C=C(N)C(N)=C1", "physical_data": {"Molecular Weight": "177.03", "Molecular Formula": "C6H6Cl2N2", "Melting Point": "159-162 \u00b0C"}}