{"cas_no": "53484-17-6", "cn_name": "1-\u7532\u57fa-1H-\u82ef\u5e76\u54aa\u5511-5-\u7fa7\u9178", "en_name": ["1-Methyl-1H-benzimidazole-5-carboxylic acid", "1H-Benzimidazole-5-carboxylic acid, 1-methyl-", "5-Benzimidazolecarboxylic acid, 1-methyl-", "1-Methyl-1H-benzimidazole-5-carboxylic acid", "1-Methyl-1H-benzoimidazole-5-carboxylic acid", "1-Methylbenzimidazole-5-carboxylic acid", "1-Methyl-1H-1,3-benzodiazole-5-carboxylic acid"], "SMILES": "CN1C=2C(=CC(C(O)=O)=CC2)N=C1", "physical_data": {"Molecular Weight": "176.17", "Molecular Formula": "C9H8N2O2", "Melting Point": "308-310 \u00b0C"}}