{"cas_no": "5348-51-6", "cn_name": "2-\u7f9f\u57fa-4-\u7532\u57fa\u5627\u5576\u76d0\u9178\u76d0", "en_name": ["2(1H)-Pyrimidinone, 6-methyl-, hydrochloride (1:1)", "2(1H)-Pyrimidinone, 6-methyl-, hydrochloride (1:1)", "2(1H)-Pyrimidinone, 4-methyl-, monohydrochloride", "4-Methyl-2-pyrimidinol monohydrochloride", "2-Hydroxy-4-methylpyrimidine hydrochloride", "4-Methyl-2(1H)-pyrimidinone hydrochloride", "4-Methyl-1H-pyrimidin-2-one hydrochloride", "4-Methylpyrimidin-2-ol hydrochloride"], "SMILES": "CC=1NC(=O)N=CC1.Cl", "physical_data": {"Molecular Weight": "", "Molecular Formula": "C5H6N2O.ClH", "Melting Point": "246 \u00b0C (decomp)"}}