{"cas_no": "53491-30-8", "cn_name": "\u03b2-\u6c2f\u4e19\u6c27\u57fa\u82ef", "en_name": ["(2-Chloropropoxy)benzene", "Benzene, (2-chloropropoxy)-", "Ether, 2-chloropropyl phenyl", "(2-Chloropropoxy)benzene", "2-Chloro-3-phenoxypropane", "2-Chloro-1-phenoxypropane", "Phenoxy 2-chloropropane", "1-Phenoxy-2-chloropropane"], "SMILES": "O(CC(C)Cl)C1=CC=CC=C1", "physical_data": {"Molecular Weight": "170.64", "Molecular Formula": "C9H11ClO", "Boiling Point": "93-94 \u00b0C @ Press: 5 Torr"}}