{"cas_no": "5349-62-2", "cn_name": "4-\u7532\u57fa-1-\u82ef\u57fa-2-\u620a\u916e", "en_name": ["4-Methyl-1-phenyl-2-pentanone", "2-Pentanone, 4-methyl-1-phenyl-", "4-Methyl-1-phenyl-2-pentanone", "Benzyl isobutyl ketone", "Isobutyl benzyl ketone", "NSC 1268"], "SMILES": "C(C(CC(C)C)=O)C1=CC=CC=C1", "physical_data": {"Molecular Weight": "176.25", "Molecular Formula": "C12H16O", "Boiling Point": "250.5 \u00b0C @ Press: 760 Torr", "Density": "0.969 g/cm\u00b3 @ Temp: 40 \u00b0C"}}