{"cas_no": "5349-51-9", "cn_name": "4-\u53d4\u620a\u57fa\u73af\u5df1\u9187", "en_name": ["4-(1,1-Dimethylpropyl)cyclohexanol", "Cyclohexanol, 4-(1,1-dimethylpropyl)-", "Cyclohexanol, 4-tert-pentyl-", "4-(1,1-Dimethylpropyl)cyclohexanol", "NSC 1246", "NSC 21165", "4-tert-Amylcyclohexanol", "4-(tert-Pentyl)cyclohexan-1-ol"], "SMILES": "C(CC)(C)(C)C1CCC(O)CC1", "physical_data": {"Molecular Weight": "170.29", "Molecular Formula": "C11H22O", "Boiling Point": "154-155 \u00b0C @ Press: 10 Torr", "Melting Point": "24-25 \u00b0C", "Density": "0.9034 g/cm\u00b3 @ Temp: 20 \u00b0C"}}