{"cas_no": "535-77-3", "cn_name": "P-\u4f1e\u82b1\u70c3", "en_name": ["m-Cymene", "Benzene, 1-methyl-3-(1-methylethyl)-", "m-Cymene", "1-Methyl-3-(1-methylethyl)benzene", "m-Isopropyltoluene", "\u03b2-Cymene", "1-Methyl-3-isopropylbenzene", "m-Cymol", "1-Isopropyl-3-methylbenzene", "m-Methylisopropylbenzene", "Meta-cymene", "3-Isopropyltoluene", "NSC 73975", "1-Methyl-3-(propan-2-yl)benzene"], "SMILES": "C(C)(C)C1=CC(C)=CC=C1", "physical_data": {"Molecular Weight": "134.22", "Molecular Formula": "C10H14", "Boiling Point": "175.1 \u00b0C", "Melting Point": "-63.7 \u00b0C", "Density": "0.8610 g/cm\u00b3 @ Temp: 20 \u00b0C"}}