{"cas_no": "535-80-8", "cn_name": "3-\u6c2f\u82ef\u7532\u9178", "en_name": ["3-Chlorobenzoic acid", "Benzoic acid, 3-chloro-", "Benzoic acid, m-chloro-", "3-Chlorobenzoic acid", "m-Chlorobenzoic acid", "NSC 8443"], "SMILES": "C(O)(=O)C1=CC(Cl)=CC=C1", "physical_data": {"Molecular Weight": "156.57", "Molecular Formula": "C7H5ClO2", "Melting Point": "158 \u00b0C", "Density": "1.496 g/cm\u00b3 @ Temp: 25 \u00b0C"}}