{"cas_no": "535-83-1", "cn_name": "\u846b\u82a6\u5df4\u78b1", "en_name": ["Trigonelline", "Pyridinium, 3-carboxy-1-methyl-, inner salt", "Pyridinium, 3-carboxy-1-methyl-, hydroxide, inner salt", "Betaine nicotinate", "Caffearine", "Coffearine", "Gynesine", "Trigenolline", "Trigonelline", "Coffearin", "N-Methylnicotinic acid", "N-Methylnicotinate", "1-Methylpyridin-1-ium-3-carboxylate"], "SMILES": "C([O-])(=O)C1=C[N+](C)=CC=C1", "physical_data": {"Molecular Weight": "", "Molecular Formula": "C7H7NO2", "Melting Point": "234-236 \u00b0C"}}