{"cas_no": "535-96-6", "cn_name": "\u9a6c\u91cc\u82f7", "en_name": ["Marein", "2-Propen-1-one, 3-(3,4-dihydroxyphenyl)-1-[4-(\u03b2-D-glucopyranosyloxy)-2,3-dihydroxyphenyl]-, (2E)-", "2-Propen-1-one, 3-(3,4-dihydroxyphenyl)-1-[4-(\u03b2-D-glucopyranosyloxy)-2,3-dihydroxyphenyl]-, (E)-", "Marein", "Chalcone, 2\u2032,3,3\u2032,4,4\u2032-pentahydroxy-, 4\u2032-\u03b2-D-glucopyranoside", "(2E)-3-(3,4-Dihydroxyphenyl)-1-[4-(\u03b2-D-glucopyranosyloxy)-2,3-dihydroxyphenyl]-2-propen-1-one", "Glucopyranoside, okanin-4\u2032, \u03b2-D-", "Okanin 4\u2032-O-\u03b2-D-Glucopyranoside"], "SMILES": "O(C1OC(CO)C(O)C(O)C1O)C2=C(O)C(O)=C(C(C=CC3=CC(O)=C(O)C=C3)=O)C=C2", "physical_data": {"Molecular Weight": "450.39", "Molecular Formula": "C21H22O11", "Melting Point": "130-132 \u00b0C"}}