{"cas_no": "535-26-2", "cn_name": "\u4e1c\u831b\u83ea\u78b1", "en_name": ["Aposcopolamine", "Benzeneacetic acid, \u03b1-methylene-, (1\u03b1,2\u03b2,4\u03b2,5\u03b1,7\u03b2)-9-methyl-3-oxa-9-azatricyclo[3.3.1.02,4]non-7-yl ester", "Aposcopolamine", "1\u03b1H,5\u03b1H-Tropan-3\u03b1-ol, 6\u03b2,7\u03b2-epoxy-, atropate (ester)", "Benzeneacetic acid, \u03b1-methylene-, 9-methyl-3-oxa-9-azatricyclo[3.3.1.02,4]non-7-yl ester, (1\u03b1,2\u03b2,4\u03b2,5\u03b1,7\u03b2)-", "3-Oxa-9-azatricyclo[3.3.1.02,4]nonane, benzeneacetic acid deriv.", "Apohyoscine", "Aposcopolamin"], "SMILES": "CN1C2C3C(O3)C1CC(OC(C(=C)C4=CC=CC=C4)=O)C2", "physical_data": {"Molecular Weight": "285.34", "Molecular Formula": "C17H19NO3", "Melting Point": "97 \u00b0C"}}