{"cas_no": "535-87-5", "cn_name": "3,5-\u4e8c\u6c28\u57fa\u82ef\u7532\u9178", "en_name": ["3,5-Diaminobenzoic acid", "Benzoic acid, 3,5-diamino-", "3,5-Diaminobenzoic acid", "DABA", "D 0294", "5-Carboxy-1,3-phenylenediamine", "3,5-DABA"], "SMILES": "C(O)(=O)C1=CC(N)=CC(N)=C1", "physical_data": {"Molecular Weight": "152.15", "Molecular Formula": "C7H8N2O2", "Melting Point": "228 \u00b0C"}}