{"cas_no": "535-11-5", "cn_name": "2-\u6eb4\u4e19\u9178\u4e59\u916f", "en_name": ["Ethyl 2-bromopropionate", "Propanoic acid, 2-bromo-, ethyl ester", "Propionic acid, 2-bromo-, ethyl ester", "Propionic acid, \u03b1-bromo-, ethyl ester", "Ethyl \u03b1-bromopropionate", "Ethyl 2-bromopropionate", "2-Bromopropionic acid ethyl ester", "\u03b1-Bromopropionic acid ethyl ester", "Ethyl 2-bromopropanoate", "Ethyl \u03b1-bromopropanoate", "2-Bromopropanoic acid ethyl ester", "(\u00b1)-2-Bromopropanoic acid ethyl ester", "Ethyl dl-\u03b1-bromopropionate", "Ethyl (\u00b1)-2-bromopropionate", "Ethyl DL-2-bromopropionate", "(\u00b1)-2-Bromopropionic acid ethyl ester", "(\u00b1)-Ethyl \u03b1-bromopropionate", "NSC 6753"], "SMILES": "C(OCC)(C(Br)C)=O", "physical_data": {"Molecular Weight": "181.03", "Molecular Formula": "C5H9BrO2", "Boiling Point": "160 \u00b0C", "Melting Point": "&lt;25 \u00b0C", "Density": "1.38226 g/cm\u00b3 @ Temp: 25.00 \u00b0C"}}