{"cas_no": "535-13-7", "cn_name": "2-\u6c2f\u4e19\u9178\u4e59\u916f", "en_name": ["Ethyl 2-chloropropionate", "Propanoic acid, 2-chloro-, ethyl ester", "Propionic acid, 2-chloro-, ethyl ester", "Ethyl \u03b1-chloropropionate", "Ethyl 2-chloropropionate", "Ethyl 2-chloropropanoate", "(2RS)-2-Chloropropionic acid ethyl ester", "2-Chloropropanoic acid ethyl ester", "NSC 522671"], "SMILES": "C(OCC)(C(C)Cl)=O", "physical_data": {"Molecular Weight": "136.58", "Molecular Formula": "C5H9ClO2", "Boiling Point": "147 \u00b0C"}}