{"cas_no": "535-17-1", "cn_name": "(\u00b1)-2-\u4e59\u9178\u57fa\u4e19\u9178", "en_name": ["2-Acetoxypropionic acid", "Propanoic acid, 2-(acetyloxy)-", "Lactic acid, acetate", "2-(Acetyloxy)propanoic acid", "2-Acetoxypropanoic acid", "Acetyllactic acid", "\u03b1-Acetoxypropionic acid", "O-Acetyllactic acid", "2-Acetoxypropionic acid", "(\u00b1)-\u03b1-Acetoxypropionic acid", "DL-O-Acetyllactic acid", "NSC 402126"], "SMILES": "C(OC(C)=O)(C(O)=O)C", "physical_data": {"Molecular Weight": "132.11", "Molecular Formula": "C5H8O4", "Boiling Point": "136-137 \u00b0C @ Press: 16 Torr", "Melting Point": "57 \u00b0C", "Density": "1.175 g/cm\u00b3 @ Temp: 25 \u00b0C"}}