{"cas_no": "535-32-0", "cn_name": "D-\u4e59\u786b\u6c28\u57fa\u916a\u9178", "en_name": ["D-Ethionine", "D-Homocysteine, S-ethyl-", "Butyric acid, 2-amino-4-(ethylthio)-, D-", "S-Ethyl-D-homocysteine", "D-Ethionine", "NSC 97927", "(R)-2-Amino-4-(ethylthio)butanoic acid", "(2R)-2-Amino-4-(ethylsulfanyl)butanoic acid"], "SMILES": "C(CCSCC)(C(O)=O)N", "physical_data": {"Molecular Weight": "163.24", "Molecular Formula": "C6H13NO2S", "Melting Point": "278 \u00b0C (decomp)"}}