{"cas_no": "535-15-9", "cn_name": "\u4e8c\u6c2f\u4e59\u9178\u4e59\u916f", "en_name": ["Ethyl dichloroacetate", "Acetic acid, 2,2-dichloro-, ethyl ester", "Acetic acid, dichloro-, ethyl ester", "Ethyl dichloroacetate", "Dichloroacetic acid ethyl ester", "Ethyl 2,2-dichloroacetate", "NSC 27788", "NSC 6748"], "SMILES": "C(OCC)(C(Cl)Cl)=O", "physical_data": {"Molecular Weight": "157.00", "Molecular Formula": "C4H6Cl2O2", "Boiling Point": "155 \u00b0C", "Density": "1.238 g/cm\u00b3 @ Temp: 21 \u00b0C"}}