{"cas_no": "535-75-1", "cn_name": "DL-\u9ad8\u812f\u6c28\u9178", "en_name": ["Pipecolic acid", "2-Piperidinecarboxylic acid", "Pipecolic acid", "Dihydrobaikiane", "Hexahydro-2-picolinic acid", "Homoproline", "Pipecolinic acid", "\u03b1-Pipecolinic acid", "Piperolinic acid", "2-Carboxypiperidine", "DL-Pipecolic acid", "(\u00b1)-2-Piperidinecarboxylic acid", "DL-2-Piperidinecarboxylic acid", "(\u00b1)-Pipecolinic acid", "(\u00b1)-Pipecolic acid", "(RS)-2-Piperidinecarboxylic acid", "DL-Pipecolinic acid", "NSC 17125", "2-Pipecolinic acid", "2-Piperidinylcarboxylic acid", "Piperidine-6-carboxylic acid"], "SMILES": "C(O)(=O)C1CCCCN1", "physical_data": {"Molecular Weight": "129.16", "Molecular Formula": "C6H11NO2", "Melting Point": "264 \u00b0C"}}