{"cas_no": "5350-57-2", "cn_name": "\u4e8c\u82ef\u7532\u916e\u8159", "en_name": ["Benzophenone hydrazone", "Methanone, diphenyl-, hydrazone", "Benzophenone, hydrazone", "Diphenyl ketone hydrazone", "NSC 43", "Diphenylmethanone hydrazone", "N-(Diphenylmethylene)hydrazine", "Benzophenone hydrazone", "Diphenylmethylidenehydrazine", "Benzophenonhydrazone", "(Diphenylmethylene)hydrazine"], "SMILES": "C(=NN)(C1=CC=CC=C1)C2=CC=CC=C2", "physical_data": {"Molecular Weight": "196.25", "Molecular Formula": "C13H12N2", "Melting Point": "95-98 \u00b0C"}}