{"cas_no": "5350-41-4", "cn_name": "\u82c4\u57fa\u4e09\u7532\u57fa\u6eb4\u5316\u94f5", "en_name": ["Benzyltrimethylammonium bromide", "Benzenemethanaminium, N,N,N-trimethyl-, bromide (1:1)", "Ammonium, benzyltrimethyl-, bromide", "Benzyltrimethylammonium bromide", "Benzenemethanaminium, N,N,N-trimethyl-, bromide", "Trimethylbenzylammonium bromide", "N-Benzyl-N,N,N-trimethylammonium bromide", "N,N,N-Trimethyl-N-benzylammonium bromide"], "SMILES": "C([N+](C)(C)C)C1=CC=CC=C1.[Br-]", "physical_data": {"Molecular Weight": "", "Molecular Formula": "C10H16N.Br", "Melting Point": "230-232 \u00b0C"}}