{"cas_no": "5350-03-8", "cn_name": "\u6708\u6842\u9178\u620a\u916f", "en_name": ["Pentyl laurate", "Dodecanoic acid, pentyl ester", "Lauric acid, pentyl ester", "Amyl laurate", "Pentyl laurate", "n-Amyl laurate", "NSC 3891", "Pentyl dodecanoate"], "SMILES": "C(CCCCCCCCCCC)(OCCCCC)=O", "physical_data": {"Molecular Weight": "270.45", "Molecular Formula": "C17H34O2", "Boiling Point": "245-248 \u00b0C"}}