{"cas_no": "5350-93-6", "cn_name": "2-\u6c2f-5-\u6c28\u57fa\u5421\u5576", "en_name": ["5-Amino-2-chloropyridine", "3-Pyridinamine, 6-chloro-", "Pyridine, 5-amino-2-chloro-", "6-Chloro-3-pyridinamine", "2-Chloro-5-aminopyridine", "5-Amino-2-chloropyridine", "6-Chloropyridin-3-ylamine", "6-Chloro-3-aminopyridine", "NSC 81", "2-Chloropyridin-5-amine"], "SMILES": "NC=1C=CC(Cl)=NC1", "physical_data": {"Molecular Weight": "128.56", "Molecular Formula": "C5H5ClN2", "Melting Point": "82-83.5 \u00b0C"}}