{"cas_no": "5351-04-2", "cn_name": "3-\u4e8c\u4e59\u6c28\u57fa\u4e19\u8148", "en_name": ["3-(Diethylamino)propanenitrile", "Propanenitrile, 3-(diethylamino)-", "Propionitrile, 3-(diethylamino)-", "3-(Diethylamino)propanenitrile", "3-(Diethylamino)propionitrile", "N-(2-Cyanoethyl)diethylamine", "N,N-Diethylaminopropionitrile", "IPKhAN 110", "NSC 56550", "NSC 95"], "SMILES": "N(CCC#N)(CC)CC", "physical_data": {"Molecular Weight": "126.20", "Molecular Formula": "C7H14N2", "Boiling Point": "83.5-84.5 \u00b0C @ Press: 13 Torr", "Density": "0.8761 g/cm\u00b3 @ Temp: 25 \u00b0C"}}