{"cas_no": "5351-23-5", "cn_name": "4-\u7f9f\u57fa\u82ef\u7532\u9170\u80bc", "en_name": ["4-Hydroxybenzoic acid hydrazide", "Benzoic acid, 4-hydroxy-, hydrazide", "Benzoic acid, p-hydroxy-, hydrazide", "(4-Hydroxybenzoyl)hydrazine", "p-Hydroxybenzoic acid hydrazide", "4-Hydroxybenzoic acid hydrazide", "p-Hydroxybenzoic hydrazide", "p-Hydroxybenzhydrazide", "(p-Hydroxybenzoyl)hydrazine", "4-Hydroxybenzohydrazide", "p-Hydroxybenzoyl hydrazide", "4-Hydroxybenzhydrazide", "4-Hydroxybenzoyl hydrazide", "NSC 647", "INHd 25", "p-Hydroxybenzohydrazide", "Benzoic acid, 4-hydroxy-, hydrazinyl ester"], "SMILES": "C(NN)(=O)C1=CC=C(O)C=C1", "physical_data": {"Molecular Weight": "152.15", "Molecular Formula": "C7H8N2O2", "Melting Point": "264-266 \u00b0C"}}