{"cas_no": "5351-17-7", "cn_name": "4-\u6c28\u57fa\u82ef\u7532\u9170\u80bc", "en_name": ["4-Aminobenzoic acid hydrazide", "Benzoic acid, 4-amino-, hydrazide", "Benzoic acid, p-amino-, hydrazide", "p-Aminobenzoic acid hydrazide", "p-Aminobenzhydrazide", "Amben hydrazide", "p-Aminobenzoic hydrazide", "4-Aminobenzhydrazide", "4-Aminobenzoic acid hydrazide", "4-Aminobenzoylhydrazine", "p-Aminobenzoylhydrazine", "Aminostimil", "4-Aminobenzoyl hydrazide", "NSC 640", "p-Aminobenzohydrazide"], "SMILES": "C(NN)(=O)C1=CC=C(N)C=C1", "physical_data": {"Molecular Weight": "151.17", "Molecular Formula": "C7H9N3O", "Melting Point": "225-227 \u00b0C"}}