{"cas_no": "53518-15-3", "cn_name": "\u9999\u8c46\u7d20 151", "en_name": ["7-Amino-4-(trifluoromethyl)coumarin", "2H-1-Benzopyran-2-one, 7-amino-4-(trifluoromethyl)-", "7-Amino-4-(trifluoromethyl)-2H-1-benzopyran-2-one", "Coumarin 151", "7-Amino-4-(trifluoromethyl)coumarin", "Coumarin 490", "4-(Trifluoromethyl)-7-aminocoumarin", "NSC 337981"], "SMILES": "C(F)(F)(F)C=1C=2C(OC(=O)C1)=CC(N)=CC2", "physical_data": {"Molecular Weight": "229.16", "Molecular Formula": "C10H6F3NO2", "Melting Point": "218.8 \u00b0C", "Density": "1.59 g/cm\u00b3"}}