{"cas_no": "5351-51-9", "cn_name": "4,5-\u4e8c\u7532\u57fa-2-\u5def\u57fa\u567b\u5511", "en_name": ["4,5-Dimethyl-2(3H)-thiazolethione", "2(3H)-Thiazolethione, 4,5-dimethyl-", "4-Thiazoline-2-thione, 4,5-dimethyl-", "2-Thiazolethiol, 4,5-dimethyl-", "4,5-Dimethyl-2(3H)-thiazolethione", "2-Mercapto-4,5-dimethylthiazole", "4,5-Dimethyl-\u03944-thiazoline-2-thione", "4,5-Dimethyl-2-thiazolethiol", "4,5-Dimethyl-2-mercaptothiazole", "NSC 681", "4,5-Dimethyl-1,3-thiazol-2(3H)-thione"], "SMILES": "CC1=C(C)SC(=S)N1", "physical_data": {"Molecular Weight": "145.25", "Molecular Formula": "C5H7NS2", "Boiling Point": "190-200 \u00b0C @ Press: 2 Torr", "Melting Point": "41-41.2 \u00b0C"}}