{"cas_no": "5351-69-9", "cn_name": "4-\u82ef\u57fa-3-\u6c28\u57fa\u786b\u8132", "en_name": ["4-Phenylthiosemicarbazide", "Hydrazinecarbothioamide, N-phenyl-", "Semicarbazide, 4-phenyl-3-thio-", "N-Phenylhydrazinecarbothioamide", "4-Phenyl-3-thiosemicarbazide", "4-Phenylthiosemicarbazide", "Phenylthiosemicarbazide", "N-Phenylthiosemicarbazide", "N1-Phenylthiosemicarbazide", "NSC 58946", "NSC 704", "4-Phenylhydrazinethiocarbamide", "1-Amino-3-phenylthiourea", "3-Amino-1-phenylthiourea"], "SMILES": "N(C(NN)=S)C1=CC=CC=C1", "physical_data": {"Molecular Weight": "167.23", "Molecular Formula": "C7H9N3S", "Melting Point": "150-151 \u00b0C", "Density": "1.321 g/cm\u00b3"}}