{"cas_no": "53524-27-9", "cn_name": "2-\u6c28\u57fa-4-\u6c2f-5-\u7532\u57fa\u82ef\u915a", "en_name": ["2-Amino-4-chloro-5-methylphenol", "Phenol, 2-amino-4-chloro-5-methyl-", "2-Amino-4-chloro-5-methylphenol", "2-Hydroxy-5-chloro-4-methylaniline"], "SMILES": "CC1=C(Cl)C=C(N)C(O)=C1", "physical_data": {"Molecular Weight": "157.60", "Molecular Formula": "C7H8ClNO", "Melting Point": "139-139.5 \u00b0C"}}