{"cas_no": "5352-63-6", "cn_name": "\u5730\u9ad8\u8f9b\u6742\u8d28D", "en_name": ["Digoxigenin monodigitoxoside", "Card-20(22)-enolide, 3-[(2,6-dideoxy-\u03b2-D-ribo-hexopyranosyl)oxy]-12,14-dihydroxy-, (3\u03b2,5\u03b2,12\u03b2)-", "5\u03b2-Card-20(22)-enolide, 3\u03b2-[(2,6-dideoxy-\u03b2-D-ribo-hexopyranosyl)oxy]-12\u03b2,14-dihydroxy-", "Digoxigenin digitoxoside", "5\u03b2-Card-20(22)-enolide, 3\u03b2-(digitoxosyloxy)-12\u03b2,14-dihydroxy-", "D-ribo-Hexopyranoside, digoxigenin-3 2,6-dideoxy-, \u03b2-", "(3\u03b2,5\u03b2,12\u03b2)-3-[(2,6-Dideoxy-\u03b2-D-ribo-hexopyranosyl)oxy]-12,14-dihydroxycard-20(22)-enolide", "Digoxigenin monodigitoxoside", "Digoxigenin 3-monodigitoxide", "Digoxigenin monodigitoxide"], "SMILES": "OC12C(C)(C(CC1)C3=CC(=O)OC3)C(O)CC4C2CCC5C4(C)CCC(OC6CC(O)C(O)C(C)O6)C5", "physical_data": {"Molecular Weight": "520.65", "Molecular Formula": "C29H44O8", "Melting Point": "212-215 \u00b0C"}}