{"cas_no": "5353-15-1", "cn_name": "\u0393-\u7ec6\u8f9b\u919a", "en_name": ["\u03b3-Asarone", "Benzene, 1,2,4-trimethoxy-5-(2-propen-1-yl)-", "Benzene, 1-allyl-2,4,5-trimethoxy-", "Benzene, 1,2,4-trimethoxy-5-(2-propenyl)-", "1,2,4-Trimethoxy-5-(2-propen-1-yl)benzene", "2,4,5-Trimethoxy-1-allylbenzene", "Sekishone", "1-Allyl-2,4,5-trimethoxybenzene", "2,4,5-Trimethoxyallylbenzene", "Sekishon", "\u03b3-Asarone", "Euasarone", "Isoasarone", "2-Allyl-1,4,5-trimethoxybenzene", "1,2,4-Trimethoxy-5-prop-2-enylbenzene"], "SMILES": "C(C=C)C1=C(OC)C=C(OC)C(OC)=C1", "physical_data": {"Molecular Weight": "208.25", "Molecular Formula": "C12H16O3", "Boiling Point": "120 \u00b0C @ Press: 5 Torr", "Melting Point": "25 \u00b0C"}}