{"cas_no": "53531-31-0", "cn_name": "9-(\u4e09\u6c1f\u4e59\u9170)\u84bd", "en_name": ["1-(9-Anthracenyl)-2,2,2-trifluoroethanone", "Ethanone, 1-(9-anthracenyl)-2,2,2-trifluoro-", "1-(9-Anthracenyl)-2,2,2-trifluoroethanone", "9-Anthryl trifluoromethyl ketone", "9-(Trifluoroacetyl)anthracene"], "SMILES": "C(C(F)(F)F)(=O)C=1C2=C(C=C3C1C=CC=C3)C=CC=C2", "physical_data": {"Molecular Weight": "274.24", "Molecular Formula": "C16H9F3O", "Melting Point": "84-85 \u00b0C"}}