{"cas_no": "5354-94-9", "cn_name": "N\u0391-\u82ef\u7532\u9170-L-\u7ec4\u6c28\u9178", "en_name": ["N-Benzoyl-L-histidine", "L-Histidine, N-benzoyl-", "Histidine, N-benzoyl-, L-", "N-Benzoyl-L-histidine", "N-Benzoylhistidine", "\u03b1-N-Benzoyl-L-histidine", "N\u03b1-Benzoyl-L-histidine", "N\u03b1-Benzoylhistidine", "NSC 306118", "(S)-2-Benzoylamino-3-(1H-imidazol-4-yl)propanoic acid", "(2S)-3-(1H-Imidazol-4-yl)-2-(phenylformamido)propanoic acid", "(2S)-2-Benzamido-3-(1H-imidazol-3-ium-5-yl)propanoate"], "SMILES": "C(NC(=O)C1=CC=CC=C1)(CC2=CN=CN2)C(O)=O", "physical_data": {"Molecular Weight": "259.26", "Molecular Formula": "C13H13N3O3", "Melting Point": "249 \u00b0C"}}