{"cas_no": "5355-48-6", "cn_name": "\u5730\u9ad8\u8f9b\u6742\u8d28J", "en_name": ["\u03b2-Acetyldigoxin", "Card-20(22)-enolide, 3-[(O-4-O-acetyl-2,6-dideoxy-\u03b2-D-ribo-hexopyranosyl-(1\u21924)-O-2,6-dideoxy-\u03b2-D-ribo-hexopyranosyl-(1\u21924)-2,6-dideoxy-\u03b2-D-ribo-hexopyranosyl)oxy]-12,14-dihydroxy-, (3\u03b2,5\u03b2,12\u03b2)-", "Digoxin, 4\u2032\u2032\u2032-acetate", "(3\u03b2,5\u03b2,12\u03b2)-3-[(O-4-O-Acetyl-2,6-dideoxy-\u03b2-D-ribo-hexopyranosyl-(1\u21924)-O-2,6-dideoxy-\u03b2-D-ribo-hexopyranosyl-(1\u21924)-2,6-dideoxy-\u03b2-D-ribo-hexopyranosyl)oxy]-12,14-dihydroxycard-20(22)-enolide", "\u03b2-Acetyldigoxin", "Novodigal", "16\u2032-Acetyldigoxin", "\u03b2-Acetodigoxin", "4\u2032\u2032\u2032-Acetyldigoxin", "Digoxigenin tridigitoxoside-\u03b2-acetate"], "SMILES": "OC12C3C(C4(C)C(CC3)CC(OC5CC(O)C(OC6CC(O)C(OC7CC(O)C(OC(C)=O)C(C)O7)C(C)O6)C(C)O5)CC4)CC(O)C1(C)C(CC2)C=8COC(=O)C8", "physical_data": {"Molecular Weight": "822.98", "Molecular Formula": "C43H66O15", "Melting Point": "170 \u00b0C"}}