{"cas_no": "5355-16-8", "cn_name": "\u654c\u83cc\u51c0", "en_name": ["Diaveridine", "2,4-Pyrimidinediamine, 5-[(3,4-dimethoxyphenyl)methyl]-", "Pyrimidine, 2,4-diamino-5-veratryl-", "5-[(3,4-Dimethoxyphenyl)methyl]-2,4-pyrimidinediamine", "2,4-Diamino-5-(3,4-dimethoxybenzyl)pyrimidine", "2,4-Diamino-5-veratrylpyrimidine", "Diaveridine", "Diaveridin", "EGIS 5645", "NSC 408735", "BW 49-210"], "SMILES": "C(C1=CC(OC)=C(OC)C=C1)C=2C(N)=NC(N)=NC2", "physical_data": {"Molecular Weight": "260.29", "Molecular Formula": "C13H16N4O2", "Melting Point": "233 \u00b0C"}}