{"cas_no": "5355-17-9", "cn_name": "4-\u7532\u6c27\u7532\u57fa\u82ef\u915a", "en_name": ["4-(Methoxymethyl)phenol", "Phenol, 4-(methoxymethyl)-", "p-Cresol, \u03b1-methoxy-", "4-(Methoxymethyl)phenol", "p-Hydroxybenzyl methyl ether", "p-(Methoxymethyl)phenol", "\u03b1-Methoxy-p-cresol"], "SMILES": "C(OC)C1=CC=C(O)C=C1", "physical_data": {"Molecular Weight": "138.16", "Molecular Formula": "C8H10O2", "Boiling Point": "147-153 \u00b0C @ Press: 11 Torr", "Melting Point": "82.5-83.5 \u00b0C", "Density": "1.5319 g/cm\u00b3 @ Temp: 24 \u00b0C"}}