{"cas_no": "53554-29-3", "cn_name": "1,4-\u4e8c\u6c22-2-\u7532\u5def\u57fa-4-\u6c27\u4ee3-5-\u5627\u5576\u7532\u9178\u4e59\u916f", "en_name": ["Ethyl 1,6-dihydro-2-(methylthio)-6-oxo-5-pyrimidinecarboxylate", "5-Pyrimidinecarboxylic acid, 1,6-dihydro-2-(methylthio)-6-oxo-, ethyl ester", "5-Pyrimidinecarboxylic acid, 1,4-dihydro-2-(methylthio)-4-oxo-, ethyl ester", "5-Pyrimidinecarboxylic acid, 4-hydroxy-2-(methylthio)-, ethyl ester", "Ethyl 1,6-dihydro-2-(methylthio)-6-oxo-5-pyrimidinecarboxylate", "Ethyl 2S-methyl-4-hydroxypyrimidine-5-carboxylate", "2-Methylmercapto-4-hydroxy-5-carbethoxypyrimidine", "NSC 104155", "NSC 43816", "4-Hydroxy-2-(methylsulfanyl)pyrimidine-5-carboxylic acid ethyl ester", "4-Hydroxy-2-methylthiopyrimidine-5-carboxylic acid ethyl ester", "1,4-Dihydro-2-(methylthio)-4-oxo-5-pyrimidinecarboxylic acid ethyl ester"], "SMILES": "C(OCC)(=O)C=1C(=O)NC(SC)=NC1", "physical_data": {"Molecular Weight": "214.24", "Molecular Formula": "C8H10N2O3S", "Melting Point": "132-133 \u00b0C"}}