{"cas_no": "53558-93-3", "cn_name": "(R)-(-)-5-\u6c27\u4ee3-2-\u56db\u6c22\u544b\u5583\u7fa7\u9178", "en_name": ["(2R)-Tetrahydro-5-oxo-2-furancarboxylic acid", "2-Furancarboxylic acid, tetrahydro-5-oxo-, (2R)-", "2-Furancarboxylic acid, tetrahydro-5-oxo-, (R)-", "(2R)-Tetrahydro-5-oxo-2-furancarboxylic acid", "(R)-Tetrahydro-5-oxo-2-furancarboxylic acid", "(R)-(-)-5-Oxo-2-tetrahydrofurancarboxylic acid", "(R)-5-Oxo-2-tetrahydrofurancarboxylic acid", "(2R)-Tetrahydro-5-oxofuran-2-carboxylic acid", "(R)-5-Oxotetrahydrofuran-2-carboxylic acid", "(2R)-5-Oxotetrahydro-2-furancarboxylic acid", "(2R)-5-Oxooxolane-2-carboxylic acid", "2-Furancarboxylic acid tetrahydro-5-oxo-, (2R)-"], "SMILES": "C(O)(=O)C1OC(=O)CC1", "physical_data": {"Molecular Weight": "130.10", "Molecular Formula": "C5H6O4", "Melting Point": "67-70 \u00b0C"}}