{"cas_no": "5355-68-0", "cn_name": "1-\u5f02\u4e19\u57fa-4-\u54cc\u5576\u916e", "en_name": ["1-Isopropyl-4-piperidinone", "4-Piperidinone, 1-(1-methylethyl)-", "4-Piperidone, 1-isopropyl-", "1-(1-Methylethyl)-4-piperidinone", "1-Isopropyl-4-piperidinone", "1-Isopropyl-4-piperidone", "N-Isopropyl-4-piperidinone", "N-Isopropyl-4-piperidone", "1-(Propan-2-yl)piperidin-4-one", "1-Propan-2-ylpiperidin-4-one"], "SMILES": "C(C)(C)N1CCC(=O)CC1", "physical_data": {"Molecular Weight": "141.21", "Molecular Formula": "C8H15NO", "Boiling Point": "103 \u00b0C @ Press: 25 Torr", "Melting Point": "105-105.5 \u00b0C", "Density": "0.9495 g/cm\u00b3 @ Temp: 254 \u00b0C"}}