{"cas_no": "5356-71-8", "cn_name": "5-\u6c28\u57fa-1,3-\u4e8c\u82ef\u57fa\u5421\u5511", "en_name": ["1,3-Diphenyl-1H-pyrazol-5-amine", "1H-Pyrazol-5-amine, 1,3-diphenyl-", "Pyrazole, 5-amino-1,3-diphenyl-", "1,3-Diphenyl-1H-pyrazol-5-amine", "5-Amino-1,3-diphenylpyrazole", "1,3-Diphenyl-5-aminopyrazole", "2,5-Diphenylpyrazol-3-amine", "5-Amino-1-phenyl-3-phenylpyrazole", "1,3-Diphenyl-1H-pyrazole-5-amine"], "SMILES": "NC=1N(N=C(C1)C2=CC=CC=C2)C3=CC=CC=C3", "physical_data": {"Molecular Weight": "235.28", "Molecular Formula": "C15H13N3", "Melting Point": "129-130 \u00b0C"}}