{"cas_no": "53562-51-9", "cn_name": "2-\u7532\u57fa-3-\u567b\u5429\u7532\u9178\u7532\u916f", "en_name": ["3-Thiophenecarboxylic acid, 2-methyl-, methyl ester", "3-Thiophenecarboxylic acid, 2-methyl-, methyl ester", "Methyl 2-methyl-3-thiophenecarboxylate"], "SMILES": "C(OC)(=O)C1=C(C)SC=C1", "physical_data": {"Molecular Weight": "156.20", "Molecular Formula": "C7H8O2S", "Boiling Point": "90-91 \u00b0C @ Press: 17 Torr"}}