{"cas_no": "53562-86-0", "cn_name": "(S)-3-\u7f9f\u57fa\u4e01\u9178\u7532\u916f", "en_name": ["Methyl (+)-3-hydroxybutanoate", "Butanoic acid, 3-hydroxy-, methyl ester, (3S)-", "Butanoic acid, 3-hydroxy-, methyl ester, (S)-", "Methyl (S)-3-hydroxybutyrate", "(S)-Methyl 3-hydroxybutanoate", "(S)-3-Hydroxybutanoic acid methyl ester", "Methyl (+)-3-hydroxybutanoate", "(+)-(3S)-3-Hydroxybutanoic acid methyl ester", "(3S)-3-Hydroxybutanoic acid methyl ester", "(S)-3-Hydroxybutyric acid methyl ester"], "SMILES": "C(CC(C)O)(OC)=O", "physical_data": {"Molecular Weight": "118.13", "Molecular Formula": "C5H10O3", "Boiling Point": "70-72 \u00b0C @ Press: 17 Torr", "Density": "1.0524 g/cm\u00b3 @ Temp: 25.00 \u00b0C"}}