{"cas_no": "5356-88-7", "cn_name": "\u4e09\u53d4\u4e01\u6c27\u57fa\u4e59\u70ef\u57fa\u7845\u70f7", "en_name": ["Tris(1,1-dimethylethoxy)ethenylsilane", "Silane, tris(1,1-dimethylethoxy)ethenyl-", "Silane, tri-tert-butoxyvinyl-", "Tris(1,1-dimethylethoxy)ethenylsilane", "Tris(tert-butoxy)vinylsilane", "Y 5712", "Tri-tert-butoxyvinylsilane", "Vinyltri(tert-butoxy)silane", "Vinyl tris(tert-butoxy)silane"], "SMILES": "[Si](OC(C)(C)C)(OC(C)(C)C)(OC(C)(C)C)C=C", "physical_data": {"Molecular Weight": "274.47", "Molecular Formula": "C14H30O3Si", "Boiling Point": "54 \u00b0C @ Press: 2 Torr", "Density": "0.869 g/cm\u00b3"}}