{"cas_no": "5356-84-3", "cn_name": "\u4e59\u70ef\u57fa\u4e09(\u4e09\u7532\u57fa\u7845\u6c27\u70f7\u57fa)\u7845\u70f7", "en_name": ["Tris(trimethylsilyloxy)vinylsilane", "Trisiloxane, 3-ethenyl-1,1,1,5,5,5-hexamethyl-3-[(trimethylsilyl)oxy]-", "Trisiloxane, 1,1,1,5,5,5-hexamethyl-3-(trimethylsiloxy)-3-vinyl-", "3-Ethenyl-1,1,1,5,5,5-hexamethyl-3-[(trimethylsilyl)oxy]trisiloxane", "Vinyl[tris(trimethylsiloxy)]silane", "Tris(trimethylsilyloxy)vinylsilane", "Tris(trimethylsiloxy)(vinyl)silane", "1,1,1,5,5,5-Hexamethyl-3-((trimethylsilyl)oxy)-3-vinyltrisiloxane"], "SMILES": "[Si](O[Si](C)(C)C)(O[Si](C)(C)C)(O[Si](C)(C)C)C=C", "physical_data": {"Molecular Weight": "322.70", "Molecular Formula": "C11H30O3Si4", "Boiling Point": "78 \u00b0C @ Press: 15 Torr", "Density": "0.865 g/cm\u00b3"}}