{"cas_no": "5356-83-2", "cn_name": "\u4e59\u70ef\u57fa\u4e8c\u7532\u57fa\u4e59\u6c27\u57fa\u7845\u70f7", "en_name": ["Vinyldimethylethoxysilane", "Silane, ethenylethoxydimethyl-", "Silane, ethoxydimethylvinyl-", "Ethenylethoxydimethylsilane", "Ethoxydimethylvinylsilane", "Ethenyl(ethoxy)dimethylsilane", "Dimethylvinylethoxysilane", "NSC 8963", "Vinyldimethylethoxysilane", "Dimethylethoxyvinylsilane", "V 0046", "Ethoxyvinyldimethylsilane"], "SMILES": "[Si](OCC)(C=C)(C)C", "physical_data": {"Molecular Weight": "130.26", "Molecular Formula": "C6H14OSi", "Boiling Point": "99 \u00b0C", "Density": "0.790 g/cm\u00b3 @ Temp: 20 \u00b0C"}}