{"cas_no": "5356-85-4", "cn_name": "\u4e59\u70ef\u57fa\u7532\u57fa\u53cc(\u4e09\u7532\u57fa\u7845\u6c27\u57fa)\u7845\u70f7", "en_name": ["Vinylmethylbis(trimethylsiloxy)silane", "Trisiloxane, 3-ethenyl-1,1,1,3,5,5,5-heptamethyl-", "Trisiloxane, 1,1,1,3,5,5,5-heptamethyl-3-vinyl-", "3-Ethenyl-1,1,1,3,5,5,5-heptamethyltrisiloxane", "Methylbis(trimethylsiloxy)vinylsilane", "Bis(trimethylsiloxy)methylvinylsilane", "Vinylmethylbis(trimethylsiloxy)silane", "Methylbis[(trimethylsilyl)oxy](vinyl)silane", "SIV 9082", "1,1,1,3,5,5,5-Heptamethyl-3-vinyltrisiloxane", "3-Vinylheptamethyltrisiloxane", "(Ethenyl)(methyl)bis(trimethylsiloxy)silane"], "SMILES": "[Si](O[Si](C)(C)C)(O[Si](C)(C)C)(C=C)C", "physical_data": {"Molecular Weight": "248.54", "Molecular Formula": "C9H24O2Si3", "Boiling Point": "49 \u00b0C @ Press: 8 Torr", "Density": "0.836 g/cm\u00b3"}}