{"cas_no": "53575-08-9", "cn_name": "1-\u8418\u57fa\u7532\u57fa\u81a6\u9178\u4e8c\u4e59\u916f", "en_name": ["Diethyl P-(1-naphthalenylmethyl)phosphonate", "Phosphonic acid, P-(1-naphthalenylmethyl)-, diethyl ester", "Phosphonic acid, (1-naphthalenylmethyl)-, diethyl ester", "Phosphonic acid, 1-naphthylmethyl-, diethyl ester", "Diethyl P-(1-naphthalenylmethyl)phosphonate", "Diethyl (1-naphthylmethyl)phosphonate", "NSC 404293", "1-(Diethoxyphosphorylmethyl)naphthalene"], "SMILES": "C(P(OCC)(OCC)=O)C=1C2=C(C=CC1)C=CC=C2", "physical_data": {"Molecular Weight": "278.28", "Molecular Formula": "C15H19O3P", "Boiling Point": "205-206 \u00b0C @ Press: 5 Torr"}}