{"cas_no": "53583-79-2", "cn_name": "\u8212\u6258\u5fc5\u5229", "en_name": ["(\u00b1)-Sultopride", "Benzamide, N-[(1-ethyl-2-pyrrolidinyl)methyl]-5-(ethylsulfonyl)-2-methoxy-", "N-[(1-Ethyl-2-pyrrolidinyl)methyl]-5-(ethylsulfonyl)-2-methoxybenzamide", "Sultopride", "LIN 1418", "Barnetil", "(\u00b1)-Sultopride"], "SMILES": "C(NCC1N(CC)CCC1)(=O)C2=C(OC)C=CC(S(CC)(=O)=O)=C2", "physical_data": {"Molecular Weight": "354.46", "Molecular Formula": "C17H26N2O4S", "Melting Point": "181-182 \u00b0C"}}