{"cas_no": "53587-11-4", "cn_name": "L-\u916a\u6c28\u9178\u82c4\u916f\u5bf9\u7532\u82ef\u78fa\u9178\u76d0", "en_name": ["L-Tyrosine, phenylmethyl ester, 4-methylbenzenesulfonate (1:1)", "L-Tyrosine, phenylmethyl ester, 4-methylbenzenesulfonate (1:1)", "L-Tyrosine, phenylmethyl ester, 4-methylbenzenesulfonate (salt)", "Tyrosine benzyl ester tosylate (salt)", "Tyrosine benzyl ester tosylate", "(S)-Tyrosine benzyl ester tosylate", "L-Tyrosine benzyl ester 4-methylbenzenesulfonate", "L-Tyrosine benzyl ester p-toluenesulfonate", "Benzyl L-tyrosinate tosylate"], "SMILES": "S(=O)(=O)(O)C1=CC=C(C)C=C1.C(C(C(OCC1=CC=CC=C1)=O)N)C2=CC=C(O)C=C2", "physical_data": {"Molecular Weight": "", "Molecular Formula": "C16H17NO3.C7H8O3S", "Melting Point": "179-180.5 \u00b0C"}}