{"cas_no": "53595-66-7", "cn_name": "2-\u6c2f\u567b\u5429-5-\u78fa\u9170\u80fa", "en_name": ["5-Chloro-2-thiophenesulfonamide", "2-Thiophenesulfonamide, 5-chloro-", "5-Chloro-2-thiophenesulfonamide"], "SMILES": "S(N)(=O)(=O)C=1SC(Cl)=CC1", "physical_data": {"Molecular Weight": "197.66", "Molecular Formula": "C4H4ClNO2S2", "Melting Point": "113.5 \u00b0C"}}