{"cas_no": "53590-49-1", "cn_name": "5-\u6c2f\u5432\u54da-2-\u7532\u919b", "en_name": ["5-Chloro-1H-indole-2-carboxaldehyde", "1H-Indole-2-carboxaldehyde, 5-chloro-", "5-Chloro-1H-indole-2-carboxaldehyde", "5-Chloro-2-indolecarboxaldehyde"], "SMILES": "C(=O)C=1NC=2C(C1)=CC(Cl)=CC2", "physical_data": {"Molecular Weight": "179.60", "Molecular Formula": "C9H6ClNO", "Melting Point": "204-206 \u00b0C"}}