{"cas_no": "53597-27-6", "cn_name": "\u82ac\u5ea6\u67f3", "en_name": ["Fendosal", "Benzoic acid, 5-(4,5-dihydro-2-phenyl-3H-benz[e]indol-3-yl)-2-hydroxy-", "3H-Benz[e]indole, benzoic acid deriv.", "5-(4,5-Dihydro-2-phenyl-3H-benz[e]indol-3-yl)-2-hydroxybenzoic acid", "3-(3-Carboxy-4-hydroxyphenyl)-4,5-dihydro-2-phenylbenz[e]indole", "3-(3-Carboxy-4-hydroxyphenyl)-2-phenyl-4,5-dihydro-3H-benz[e]indole", "Fendosal", "Alnovin", "P 71-0129", "HP 129", "NSC 351522", "5-(4,5-Dihydro-2-phenyl-3H-benz[e]indol-3-yl)salicylic acid"], "SMILES": "C(O)(=O)C=1C=C(N2C3=C(C=C2C4=CC=CC=C4)C=5C(CC3)=CC=CC5)C=CC1O", "physical_data": {"Molecular Weight": "381.42", "Molecular Formula": "C25H19NO3", "Melting Point": "223-225 \u00b0C (decomp)"}}