{"cas_no": "53590-59-3", "cn_name": "6-\u6c2f-1H-\u5432\u54da-2-\u7532\u919b", "en_name": ["6-Chloro-1H-indole-2-carboxaldehyde", "1H-Indole-2-carboxaldehyde, 6-chloro-", "6-Chloro-1H-indole-2-carboxaldehyde", "6-Chloro-2-indolecarboxaldehyde"], "SMILES": "C(=O)C1=CC=2C(N1)=CC(Cl)=CC2", "physical_data": {"Molecular Weight": "179.60", "Molecular Formula": "C9H6ClNO", "Melting Point": "144-147 \u00b0C"}}