{"cas_no": "536-17-4", "cn_name": "\u8bd5\u94f6\u7075", "en_name": ["5-(4-Dimethylaminobenzylidene)rhodanine", "4-Thiazolidinone, 5-[[4-(dimethylamino)phenyl]methylene]-2-thioxo-", "Rhodanine, 5-[p-(dimethylamino)benzylidene]-", "5-[[4-(Dimethylamino)phenyl]methylene]-2-thioxo-4-thiazolidinone", "p-(Dimethylamino)benzalrhodanine", "p-(Dimethylamino)benzal-5-rhodanine", "5-[p-(Dimethylamino)benzylidene]rhodanine", "5-[4-(Dimethylamino)benzylidene]-2-thioxo-4-thiazolidone", "p-(Dimethylamino)benzylidenerhodanine", "5-(4-Dimethylaminobenzylidene)rhodanine", "5-(4\u2032-Dimethylaminobenzylidene)rhodanine", "4\u2032-(Dimethylamino)benzalrhodanine", "NSC 5042", "5-(4-(Dimethylamino)benzylidene)-2-thioxothiazolidin-4-one"], "SMILES": "C(=C1SC(=S)NC1=O)C2=CC=C(N(C)C)C=C2", "physical_data": {"Molecular Weight": "264.37", "Molecular Formula": "C12H12N2OS2", "Melting Point": "270 \u00b0C (decomp)"}}