{"cas_no": "536-60-7", "cn_name": "4-\u5f02\u4e19\u57fa\u82ef\u7532\u9187", "en_name": ["p-Cymen-7-ol", "Benzenemethanol, 4-(1-methylethyl)-", "p-Cymen-7-ol", "4-(1-Methylethyl)benzenemethanol", "Cumic alcohol", "Cuminic alcohol", "Cuminol", "Cuminyl alcohol", "Cumyl alcohol", "p-Isopropylbenzyl alcohol", "4-Isopropylbenzyl alcohol", "Cumin alcohol", "NSC 15672", "(4-Isopropylphenyl)methanol", "4-Isopropylbenzenemethanol", "p-Cumic alcohol", "[4-(Propan-2-yl)phenyl]methanol"], "SMILES": "C(C)(C)C1=CC=C(CO)C=C1", "physical_data": {"Molecular Weight": "150.22", "Molecular Formula": "C10H14O", "Boiling Point": "249 \u00b0C", "Melting Point": "28 \u00b0C", "Density": "0.9818 g/cm\u00b3 @ Temp: 18.5 \u00b0C"}}