{"cas_no": "536-59-4", "cn_name": "\u7d2b\u82cf\u9187", "en_name": ["Perillyl alcohol", "1-Cyclohexene-1-methanol, 4-(1-methylethenyl)-", "p-Mentha-1,8-dien-7-ol", "4-(1-Methylethenyl)-1-cyclohexene-1-methanol", "Perillic alcohol", "Perillyl alcohol", "Perilla alcohol", "Perillol", "dl-Perillyl alcohol", "NSC 641066", "(\u00b1)-Perillyl alcohol", "4-Isopropenyl-1-cyclohexene-methanol", "4-Isopropenyl-1-cyclohexenylmethanol", "(4-(Prop-1-en-2-yl)cyclohex-1-en-1-yl)methanol", "[4-(Prop-1-en-2-yl)cyclohex-1-en-1-yl]methanol", "(4-Prop-1-en-2-ylcyclohexen-1-yl)methanol", "NEO 100"], "SMILES": "C(C)(=C)C1CCC(CO)=CC1", "physical_data": {"Molecular Weight": "152.23", "Molecular Formula": "C10H16O", "Boiling Point": "244 \u00b0C", "Density": "0.9640 g/cm\u00b3 @ Temp: 29 \u00b0C"}}