{"cas_no": "536-89-0", "cn_name": "3-\u7532\u82ef\u80bc", "en_name": ["(3-Methylphenyl)hydrazine", "Hydrazine, (3-methylphenyl)-", "Hydrazine, m-tolyl-", "(3-Methylphenyl)hydrazine", "m-Tolylhydrazine", "(m-Methylphenyl)hydrazine", "N-(m-Tolyl)hydrazine"], "SMILES": "N(N)C1=CC(C)=CC=C1", "physical_data": {"Molecular Weight": "122.17", "Molecular Formula": "C7H10N2", "Boiling Point": "135-137 \u00b0C @ Press: 20 Torr", "Melting Point": "192-193 \u00b0C (decomp)"}}