{"cas_no": "536-50-5", "cn_name": "1-(4-\u7532\u57fa\u82ef\u57fa)-1-\u4e59\u9187", "en_name": ["1-(4-Methylphenyl)ethanol", "Benzenemethanol, \u03b1,4-dimethyl-", "Benzyl alcohol, p,\u03b1-dimethyl-", "\u03b1,4-Dimethylbenzenemethanol", "p,\u03b1-Dimethylbenzyl alcohol", "Galinex", "4-(\u03b1-Hydroxyethyl)toluene", "4-Methyl-\u03b1-phenethyl alcohol", "Methyl-p-tolylcarbinol", "p-Tolylmethylcarbinol", "1-p-Tolylethanol", "1-(p-Methylphenyl)ethanol", "Bilagen", "Norbilan", "Tomobil", "(4-Methylphenyl)methylcarbinol", "\u03b1,4-Dimethylbenzyl alcohol", "1-(4-Methylphenyl)ethanol", "Methyl p-methylphenyl carbinol", "(\u00b1)-p,\u03b1-Dimethylbenzyl alcohol", "dl-p,\u03b1-Dimethylbenzyl alcohol", "(\u00b1)-\u03b1,4-Dimethylbenzenemethanol", "(\u00b1)-1-(4-Methylphenyl)ethanol", "NSC 41714", "(\u00b1)-1-(p-Methylphenyl)ethanol", "\u03b1-Methyl-4-methylbenzyl alcohol"], "SMILES": "C(C)(O)C1=CC=C(C)C=C1", "physical_data": {"Molecular Weight": "136.19", "Molecular Formula": "C9H12O", "Boiling Point": "219 \u00b0C", "Melting Point": "219-220 \u00b0C", "Density": "0.9832 g/cm\u00b3 @ Temp: 14 \u00b0C"}}