{"cas_no": "536-40-3", "cn_name": "4-\u6c2f\u82ef\u7532\u9170\u80bc", "en_name": ["4-Chlorobenzoic acid hydrazide", "Benzoic acid, 4-chloro-, hydrazide", "Benzoic acid, p-chloro-, hydrazide", "p-Chlorobenzhydrazide", "p-Chlorobenzoic acid hydrazide", "p-Chlorobenzoylhydrazine", "p-Chlorobenzoyl hydrazide", "4-Chlorobenzhydrazide", "p-Chlorobenzoic hydrazide", "p-Chlorobenzohydrazide", "4-Chlorobenzohydrazide", "4-Chlorobenzoic acid hydrazide", "4-Chlorobenzoylhydrazide", "(4-Chlorobenzoyl)hydrazine", "4-Chlorobenzenecarboxylic acid hydrazide", "4-Chlorobenzoic hydrazide", "NSC 54990", "INHd 15"], "SMILES": "C(NN)(=O)C1=CC=C(Cl)C=C1", "physical_data": {"Molecular Weight": "170.60", "Molecular Formula": "C7H7ClN2O", "Melting Point": "164 \u00b0C"}}