{"cas_no": "536-74-3", "cn_name": "\u82ef\u4e59\u7094", "en_name": ["Phenylacetylene", "Benzene, ethynyl-", "Ethynylbenzene", "Phenylacetylene", "Phenylethyne", "Ethyne, phenyl-", "1-Phenylethyne", "NSC 4957", "1-Ethynylbenzene"], "SMILES": "C(#C)C1=CC=CC=C1", "physical_data": {"Molecular Weight": "102.13", "Molecular Formula": "C8H6", "Boiling Point": "143 \u00b0C", "Melting Point": "-44.8 \u00b0C", "Density": "0.9303 g/cm\u00b3 @ Temp: 20 \u00b0C"}}