{"cas_no": "536-38-9", "cn_name": "alpha-\u6eb4\u4ee3-4-\u6c2f\u82ef\u4e59\u916e", "en_name": ["2\u2032-Bromo-4-chloroacetophenone", "Ethanone, 2-bromo-1-(4-chlorophenyl)-", "Acetophenone, 2-bromo-4\u2032-chloro-", "2-Bromo-1-(4-chlorophenyl)ethanone", "\u03b1-Bromo-p-chloroacetophenone", "2-Bromo-4\u2032-chloroacetophenone", "4-Chloro-\u03c9-bromoacetophenone", "p-Chlorophenacyl bromide", "\u03c9-Bromo-p-chloroacetophenone", "4-Chlorophenacyl bromide", "2-Bromo-p-chloroacetophenone", "1-(4-Chlorophenyl)-2-bromo-1-ethanone", "p-Chloro-\u03c9-bromoacetophenone", "4\u2032-Chlorophenacyl bromide", "\u03b1-Bromo-4\u2032-chloroacetophenone", "Bromomethyl p-chlorophenyl ketone", "4-Chloro-\u03b1-bromoacetophenone", "4\u2032-Chloro-2-bromoacetophenone", "p-(Bromoacetyl)chlorobenzene", "Bromomethyl 4-chlorophenyl ketone", "2-Bromo-1-(4\u2032-chlorophenyl)ethanone", "\u03b1-Bromo-4-chloroacetophenone", "2-Bromo-1-(4-chlorophenyl)-1-ethanone", "NSC 8452", "2\u2032-Bromo-4-chloroacetophenone", "1-(Bromoacetyl)-4-chlorobenzene"], "SMILES": "C(CBr)(=O)C1=CC=C(Cl)C=C1", "physical_data": {"Molecular Weight": "233.49", "Molecular Formula": "C8H6BrClO", "Melting Point": "96.5 \u00b0C"}}