{"cas_no": "536-75-4", "cn_name": "4-\u4e59\u57fa\u5421\u5576", "en_name": ["4-Ethylpyridine", "Pyridine, 4-ethyl-", "4-Ethylpyridine", "\u03b3-Ethylpyridine", "NSC 822", "NSC 965"], "SMILES": "C(C)C=1C=CN=CC1", "physical_data": {"Molecular Weight": "107.15", "Molecular Formula": "C7H9N", "Boiling Point": "168.3 \u00b0C", "Melting Point": "-90.5 \u00b0C", "Density": "0.9404 g/cm\u00b3 @ Temp: 22 \u00b0C"}}