{"cas_no": "536-69-6", "cn_name": "\u840e\u852b\u9178", "en_name": ["Fusaric acid", "2-Pyridinecarboxylic acid, 5-butyl-", "Fusaric acid", "Picolinic acid, 5-butyl-", "5-Butyl-2-pyridinecarboxylic acid", "5-Butylpicolinic acid", "5-n-Butylpyridine-2-carboxylic acid", "5-Butyl-2-picolinic acid", "NSC 135043", "NSC 19870", "MeSH ID: D005669"], "SMILES": "C(O)(=O)C1=CC=C(CCCC)C=N1", "physical_data": {"Molecular Weight": "179.22", "Molecular Formula": "C10H13NO2", "Melting Point": "96-98 \u00b0C"}}