{"cas_no": "536-90-3", "cn_name": "\u95f4\u6c28\u57fa\u82ef\u7532\u919a", "en_name": ["3-Methoxyaniline", "Benzenamine, 3-methoxy-", "m-Anisidine", "3-Methoxybenzenamine", "3-Aminoanisole", "m-Anisylamine", "3-Methoxyaniline", "m-Aminoanisole", "1-Amino-3-methoxybenzene", "m-Aminomethoxybenzene", "3-Methoxyphenylamine", "m-Methoxyaniline", "NSC 7631", "1-Methoxy-3-aminobenzene", "3-(Methyloxy)aniline"], "SMILES": "O(C)C1=CC(N)=CC=C1", "physical_data": {"Molecular Weight": "123.15", "Molecular Formula": "C7H9NO", "Boiling Point": "251 \u00b0C", "Melting Point": "&lt;0 \u00b0C", "Density": "1.1 g/cm\u00b3"}}