{"cas_no": "536-20-9", "cn_name": "\u5421\u5576-2,4,6-\u4e09\u7fa7\u9178", "en_name": ["2,4,6-Pyridinetricarboxylic acid", "2,4,6-Pyridinetricarboxylic acid", "Trimesitic acid", "2,4,6-Tricarboxypyridine", "NSC 403251"], "SMILES": "C(O)(=O)C=1C=C(C(O)=O)N=C(C(O)=O)C1", "physical_data": {"Molecular Weight": "211.13", "Molecular Formula": "C8H5NO6", "Melting Point": "227 \u00b0C (decomp)"}}