{"cas_no": "536-78-7", "cn_name": "3-\u4e59\u57fa\u5421\u5576", "en_name": ["3-Ethylpyridine", "Pyridine, 3-ethyl-", "3-Ethylpyridine", "\u03b2-Lutidine", "\u03b2-Ethylpyridine"], "SMILES": "C(C)C=1C=CC=NC1", "physical_data": {"Molecular Weight": "107.15", "Molecular Formula": "C7H9N", "Boiling Point": "165 \u00b0C", "Melting Point": "-76.9 \u00b0C", "Density": "0.9403 g/cm\u00b3 @ Temp: 20 \u00b0C"}}