{"cas_no": "536-33-4", "cn_name": "\u4e59\u786b\u5f02\u70df\u80fa", "en_name": ["Ethionamide", "4-Pyridinecarbothioamide, 2-ethyl-", "Isonicotinamide, 2-ethylthio-", "Isonicotinimidic acid, 2-ethylthio-", "2-Ethyl-4-pyridinecarbothioamide", "1314TH", "Bayer 5312", "F.I. 58-30", "Amidazine", "Ethina", "Ethionamide", "Ethioniamide", "2-Ethylisonicotinic acid thioamide", "Ethylisothiamide", "\u03b1-Ethylisothionicotinamide", "2-Ethyl-4-thiocarbamoylpyridine", "2-Ethylthioisonicotinamide", "Ethyonomide", "Etionizine", "Iridozin", "Thianid", "Thianide", "Trecator", "Trescatyl", "2-Ethylisothionicotinamide", "\u03b1-Ethylthioisonicotinamide", "Iridocin", "Iridocin Bayer", "Etionamid", "Trekator", "Etioniamid", "Etionizin", "Tianid", "2-Ethylisonicotinothioamide", "Etimid", "Etionid", "Nizotin", "Tiomid", "Sertinon", "Teberus", "Thiodine", "Trecator SC", "NSC 255115", "2-Ethylpyridine-4-thiocarboxamide", "MeSH ID: D005000"], "SMILES": "C(N)(=S)C=1C=C(CC)N=CC1", "physical_data": {"Molecular Weight": "166.24", "Molecular Formula": "C8H10N2S", "Melting Point": "163 \u00b0C"}}