{"cas_no": "536-80-1", "cn_name": "\u4e9a\u7898\u9170\u82ef", "en_name": ["Iodosylbenzene", "Benzene, iodosyl-", "Benzene, iodoso-", "Iodosylbenzene", "Iodosobenzene", "NSC 406477"], "SMILES": "I(=O)C1=CC=CC=C1", "physical_data": {"Molecular Weight": "220.01", "Molecular Formula": "C6H5IO", "Melting Point": "210 \u00b0C (decomp)"}}