{"cas_no": "536-57-2", "cn_name": "\u5bf9\u7532\u82ef\u4e9a\u78fa\u9178", "en_name": ["p-Toluenesulfinic acid", "Benzenesulfinic acid, 4-methyl-", "p-Toluenesulfinic acid", "4-Methylbenzenesulfinic acid", "p-Tolylsulfinic acid", "4-Toluenesulfinic acid", "p-Methylbenzenesulfinic acid", "p-Methylphenylsulfinic acid", "1-Methyl-4-sulfonylbenzene"], "SMILES": "S(=O)(O)C1=CC=C(C)C=C1", "physical_data": {"Molecular Weight": "156.20", "Molecular Formula": "C7H8O2S", "Boiling Point": "88-88.5 \u00b0C @ Press: 16 Torr", "Melting Point": "86.5 \u00b0C", "Density": "1.058 g/cm\u00b3 @ Temp: 13 \u00b0C"}}