{"cas_no": "536-43-6", "cn_name": "\u76d0\u9178\u8fbe\u514b\u7f57\u5b81", "en_name": ["Dyclonine", "1-Propanone, 1-(4-butoxyphenyl)-3-(1-piperidinyl)-, hydrochloride (1:1)", "Propiophenone, 4\u2032-butoxy-3-piperidino-, hydrochloride", "1-Propanone, 1-(4-butoxyphenyl)-3-(1-piperidinyl)-, hydrochloride", "4\u2032-Butoxy-3-piperidinopropiophenone hydrochloride", "Dyclone", "Dyclonine hydrochloride", "Dyclonine", "Diclonina", "Dyclothane", "Tanaclone", "Dyclocaine hydrochloride", "Diclonine", "1-(4-Butoxyphenyl)-3-(piperidin-1-yl)propan-1-one hydrochloride"], "SMILES": "C(CCN1CCCCC1)(=O)C2=CC=C(OCCCC)C=C2.Cl", "physical_data": {"Molecular Weight": "", "Molecular Formula": "C18H27NO2.ClH", "Melting Point": "175-176 \u00b0C"}}