{"cas_no": "536-25-4", "cn_name": "3-\u6c28\u57fa-4-\u7f9f\u57fa\u82ef\u7532\u9178\u7532\u916f", "en_name": ["Methyl 3-amino-4-hydroxybenzoate", "Benzoic acid, 3-amino-4-hydroxy-, methyl ester", "Orthoform", "Orthocaine", "Methyl 4-hydroxy-3-aminobenzoate", "1-Hydroxy-2-amino-4-carbomethoxybenzene", "Methyl 3-amino-4-hydroxybenzoate", "Methyl m-amino-p-hydroxybenzoate", "Aminobenz", "Orthoderm", "3-Amino-4-hydroxybenzoic acid methyl ester", "Orthoform New", "NSC 9813"], "SMILES": "C(OC)(=O)C1=CC(N)=C(O)C=C1", "physical_data": {"Molecular Weight": "167.16", "Molecular Formula": "C8H9NO3", "Melting Point": "143 \u00b0C"}}