{"cas_no": "536-66-3", "cn_name": "4-\u5f02\u4e19\u57fa\u82ef\u7532\u9178", "en_name": ["4-Isopropylbenzoic acid", "Benzoic acid, 4-(1-methylethyl)-", "Benzoic acid, p-isopropyl-", "4-(1-Methylethyl)benzoic acid", "Cumic acid", "Cuminic acid", "4-Isopropylbenzoic acid", "p-Isopropylbenzoic acid", "NSC 1907", "NSC 20083", "4-(Propan-2-yl)benzoic acid", "Cumate"], "SMILES": "C(C)(C)C1=CC=C(C(O)=O)C=C1", "physical_data": {"Molecular Weight": "164.20", "Molecular Formula": "C10H12O2", "Melting Point": "117.5 \u00b0C"}}