{"cas_no": "5360-82-7", "cn_name": "2,3,4,6-\u56db\u6c1f\u4e09\u6c1f\u7532\u82ef", "en_name": ["1,2,3,5-Tetrafluoro-4-(trifluoromethyl)benzene", "Benzene, 1,2,3,5-tetrafluoro-4-(trifluoromethyl)-", "Toluene, \u03b1,\u03b1,\u03b1,2,3,4,6-heptafluoro-", "1,2,3,5-Tetrafluoro-4-(trifluoromethyl)benzene", "1,2,3,5-Tetrafluoro-4-trifluoromethylbenzene", "2,3,4,6-Tetrafluorobenzotrifluoride"], "SMILES": "C(F)(F)(F)C1=C(F)C(F)=C(F)C=C1F", "physical_data": {"Molecular Weight": "218.07", "Molecular Formula": "C7HF7", "Boiling Point": "109.5 \u00b0C"}}