{"cas_no": "5361-54-6", "cn_name": "4-\u82ef\u78fa\u9170\u82ef\u7532\u9178", "en_name": ["4-(Phenylsulfonyl)benzoic acid", "Benzoic acid, 4-(phenylsulfonyl)-", "Benzoic acid, p-(phenylsulfonyl)-", "4-(Phenylsulfonyl)benzoic acid", "p-(Phenylsulfonyl)benzoic acid", "p-Carboxyphenyl phenyl sulfone", "4-Carboxydiphenyl sulfone", "NSC 3667", "NSC 91053"], "SMILES": "S(=O)(=O)(C1=CC=C(C(O)=O)C=C1)C2=CC=CC=C2", "physical_data": {"Molecular Weight": "262.28", "Molecular Formula": "C13H10O4S", "Melting Point": "266-268 \u00b0C"}}