{"cas_no": "5362-56-1", "cn_name": "4-\u7532\u57fa-2-\u620a\u9187", "en_name": ["4-Methyl-2-pentenal", "2-Pentenal, 4-methyl-", "4-Methyl-2-pentenal", "4-Methylpent-2-enal", "NSC 23382"], "SMILES": "C(C(C)C)=CC=O", "physical_data": {"Molecular Weight": "98.14", "Molecular Formula": "C6H10O", "Boiling Point": "100-120 \u00b0C"}}