{"cas_no": "53636-71-8", "cn_name": "3-\u6c28\u57fa-6-\u7532\u57fa\u5421\u5576-2-\u7fa7\u9178", "en_name": ["3-Amino-6-methyl-2-pyridinecarboxylic acid", "2-Pyridinecarboxylic acid, 3-amino-6-methyl-", "Picolinic acid, 3-amino-6-methyl-", "3-Amino-6-methyl-2-pyridinecarboxylic acid", "3-Amino-6-methylpicolinic acid"], "SMILES": "C(O)(=O)C1=C(N)C=CC(C)=N1", "physical_data": {"Molecular Weight": "152.15", "Molecular Formula": "C7H8N2O2", "Melting Point": "205 \u00b0C"}}