{"cas_no": "5363-54-2", "cn_name": "4-\u7532\u9170\u57fa\u82ef\u78fa\u9178", "en_name": ["4-Formylbenzenesulfonic acid", "Benzenesulfonic acid, 4-formyl-", "Benzenesulfonic acid, p-formyl-", "4-Formylbenzenesulfonic acid", "Benzaldehyde-4-sulfonic acid", "p-Formylbenzenesulfonic acid"], "SMILES": "S(=O)(=O)(O)C1=CC=C(C=O)C=C1", "physical_data": {"Molecular Weight": "186.19", "Molecular Formula": "C7H6O4S", "Melting Point": "121.5-123.0 \u00b0C"}}