{"cas_no": "53641-60-4", "cn_name": "2-\u82ef\u57fa\u7518\u6cb9\u8148\u76d0\u9178\u76d0", "en_name": ["Benzeneacetonitrile, \u03b1-amino-, hydrochloride (1:1)", "Benzeneacetonitrile, \u03b1-amino-, hydrochloride (1:1)", "Benzeneacetonitrile, \u03b1-amino-, monohydrochloride", "Glycinonitrile, 2-phenyl-, monohydrochloride", "1-Phenylglycinonitrile hydrochloride", "\u03b1-Aminophenylacetonitrile hydrochloride", "2-Amino-2-phenylacetonitrile hydrochloride", "[(Cyano)(phenyl)methyl]amine hydrochloride", "2-Amino-2-phenylethanenitrile hydrochloride"], "SMILES": "C(C#N)(N)C1=CC=CC=C1.Cl", "physical_data": {"Molecular Weight": "", "Molecular Formula": "C8H8N2.ClH", "Melting Point": "175-176 \u00b0C"}}