{"cas_no": "536693-96-6", "cn_name": "2-\u6c2f-5-\u4e09\u6c1f\u7532\u57fa\u5421\u5576-3-\u787c\u9178", "en_name": ["Boronic acid, [2-chloro-5-(trifluoromethyl)-3-pyridinyl]-", "Boronic acid, [2-chloro-5-(trifluoromethyl)-3-pyridinyl]-", "Dihydroxy(2-chloro-5-trifluoromethyl-3-pyridyl)borane", "[2-Chloro-5-(trifluoromethyl)pyridin-3-yl]boronic acid", "2-Chloro-5-(trifluoromethyl)pyridine-3-boronic acid"], "SMILES": "B(O)(O)C=1C=C(C(F)(F)F)C=NC1Cl", "physical_data": {"Molecular Weight": "225.36", "Molecular Formula": "C6H4BClF3NO2", "Melting Point": "138.9-141.1 \u00b0C"}}