{"cas_no": "53663-39-1", "cn_name": "2-\u6eb4-3-\u7532\u57fa\u82ef\u7532\u9178", "en_name": ["2-Bromo-3-methylbenzoic acid", "Benzoic acid, 2-bromo-3-methyl-", "m-Toluic acid, 2-bromo-", "2-Bromo-3-methylbenzoic acid", "2-Bromo-m-toluic acid", "3-Methyl-2-bromobenzoic acid"], "SMILES": "C(O)(=O)C1=C(Br)C(C)=CC=C1", "physical_data": {"Molecular Weight": "215.04", "Molecular Formula": "C8H7BrO2", "Melting Point": "135-137 \u00b0C"}}