{"cas_no": "53669-33-3", "cn_name": "4-\u4e59\u9170\u6c27\u57fa-3,5-\u4e8c\u7532\u6c27\u57fa\u82ef\u7532\u919b", "en_name": ["4-Acetoxy-3,5-dimethoxybenzaldehyde", "Benzaldehyde, 4-(acetyloxy)-3,5-dimethoxy-", "4-(Acetyloxy)-3,5-dimethoxybenzaldehyde", "Syringaldehyde acetate", "4-Formyl-2,6-dimethoxyphenol acetate", "4-Acetoxy-3,5-dimethoxybenzaldehyde", "Acetic acid 4-formyl-2,6-dimethoxyphenyl ester", "4-Formyl-2,6-dimethoxyphenyl acetate"], "SMILES": "O(C(C)=O)C1=C(OC)C=C(C=O)C=C1OC", "physical_data": {"Molecular Weight": "224.21", "Molecular Formula": "C11H12O5", "Melting Point": "114 \u00b0C"}}