{"cas_no": "5366-49-4", "cn_name": "\u5bf9\u7532\u82ef\u78fa\u9170\u4e19\u916e", "en_name": ["1-[(4-Methylphenyl)sulfonyl]-2-propanone", "2-Propanone, 1-[(4-methylphenyl)sulfonyl]-", "2-Propanone, 1-(p-tolylsulfonyl)-", "2-Propanone, p-tolylsulfonyl-", "1-[(4-Methylphenyl)sulfonyl]-2-propanone", "(p-Tolylsulfonyl)acetone", "1-Tosyl-2-propanone", "1-(4-Toluenesulfonyl)-2-propanone", "Tosylacetone", "1-(4-Tolylsulfonyl)propan-2-one", "1-[(4-Methylphenyl)sulfonyl]acetone", "1-(p-Tolylsulfonyl)propan-2-one", "1-(4-Methylphenyl)sulfonyl-2-propanone", "1-(4-Methylbenzenesulfonyl)propan-2-one"], "SMILES": "S(CC(C)=O)(=O)(=O)C1=CC=C(C)C=C1", "physical_data": {"Molecular Weight": "212.27", "Molecular Formula": "C10H12O3S", "Boiling Point": "167 \u00b0C @ Press: 0.1 Torr", "Melting Point": "51 \u00b0C"}}