{"cas_no": "536760-32-4", "cn_name": "1-\u82c4\u57fa-4-\u7898\u54aa\u5511", "en_name": ["4-Iodo-1-(phenylmethyl)-1H-imidazole", "1H-Imidazole, 4-iodo-1-(phenylmethyl)-", "4-Iodo-1-(phenylmethyl)-1H-imidazole", "1-Benzyl-4-iodo-1H-imidazole", "1-Benzyl-4-iodoimidazole"], "SMILES": "C(N1C=NC(I)=C1)C2=CC=CC=C2", "physical_data": {"Molecular Weight": "284.10", "Molecular Formula": "C10H9IN2", "Melting Point": "99-100 \u00b0C"}}