{"cas_no": "536759-91-8", "cn_name": "4,5,6,7-\u56db\u6c22-1-(4-\u7532\u6c27\u57fa\u82ef\u57fa)-6-(4-\u785d\u57fa\u82ef\u57fa)-7-\u6c27\u4ee3-1H-\u5421\u5511\u5e76[3,4-C]\u5421\u5576-3-\u7fa7\u9178\u4e59\u916f", "en_name": ["Ethyl 4,5,6,7-tetrahydro-1-(4-methoxyphenyl)-6-(4-nitrophenyl)-7-oxo-1H-pyrazolo[3,4-c]pyridine-3-carboxylate", "1H-Pyrazolo[3,4-c]pyridine-3-carboxylic acid, 4,5,6,7-tetrahydro-1-(4-methoxyphenyl)-6-(4-nitrophenyl)-7-oxo-, ethyl ester", "Ethyl 4,5,6,7-tetrahydro-1-(4-methoxyphenyl)-6-(4-nitrophenyl)-7-oxo-1H-pyrazolo[3,4-c]pyridine-3-carboxylate"], "SMILES": "O=C1C=2N(N=C(C(OCC)=O)C2CCN1C3=CC=C(N(=O)=O)C=C3)C4=CC=C(OC)C=C4", "physical_data": {"Molecular Weight": "436.42", "Molecular Formula": "C22H20N4O6", "Melting Point": "159.6-161.3 \u00b0C"}}