{"cas_no": "5367-28-2", "cn_name": "5-\u6c2f-2-\u785d\u57fa\u7532\u82ef", "en_name": ["4-Chloro-2-methyl-1-nitrobenzene", "Benzene, 4-chloro-2-methyl-1-nitro-", "Toluene, 5-chloro-2-nitro-", "4-Chloro-2-methyl-1-nitrobenzene", "5-Chloro-2-nitrotoluene", "2-Nitro-5-chlorotoluene", "3-Chloro-6-nitrotoluene", "3-Methyl-4-nitrochlorobenzene", "1-Chloro-3-methyl-4-nitrobenzene", "4-Chloro-2-methylnitrobenzene"], "SMILES": "N(=O)(=O)C1=C(C)C=C(Cl)C=C1", "physical_data": {"Molecular Weight": "171.58", "Molecular Formula": "C7H6ClNO2", "Melting Point": "25.5 \u00b0C"}}