{"cas_no": "5367-26-0", "cn_name": "2-\u785d\u57fa-3-\u6c2f\u7532\u82ef", "en_name": ["1-Chloro-3-methyl-2-nitrobenzene", "Benzene, 1-chloro-3-methyl-2-nitro-", "Toluene, 3-chloro-2-nitro-", "1-Chloro-3-methyl-2-nitrobenzene", "2-Nitro-3-chlorotoluene", "3-Chloro-2-nitrotoluene", "2-Chloro-6-methyl-1-nitrobenzene", "6-Methyl-2-chloro-1-nitrobenzene"], "SMILES": "N(=O)(=O)C1=C(C)C=CC=C1Cl", "physical_data": {"Molecular Weight": "171.58", "Molecular Formula": "C7H6ClNO2", "Boiling Point": "107-108 \u00b0C @ Press: 9.5 Torr", "Melting Point": "22-23 \u00b0C"}}