{"cas_no": "5367-32-8", "cn_name": "3-\u7532\u57fa-4-\u785d\u57fa\u82ef\u7532\u919a", "en_name": ["3-Methyl-4-nitroanisole", "Benzene, 4-methoxy-2-methyl-1-nitro-", "Anisole, 3-methyl-4-nitro-", "4-Methoxy-2-methyl-1-nitrobenzene", "3-Methyl-4-nitroanisole", "5-Methoxy-2-nitrotoluene", "3-Methyl-4-nitrophenol methyl ether", "2-Nitro-5-methoxytoluene", "2-Methyl-4-methoxynitrobenzene", "NSC 37985"], "SMILES": "N(=O)(=O)C1=C(C)C=C(OC)C=C1", "physical_data": {"Molecular Weight": "167.16", "Molecular Formula": "C8H9NO3", "Boiling Point": "16-20 \u00b0C @ Press: 4 Torr", "Melting Point": "55 \u00b0C"}}