{"cas_no": "53688-18-9", "cn_name": "2-\u6c2f-5'-\u6c1f\u82ef\u4e59\u916e", "en_name": ["2-Chloro-1-(3-fluorophenyl)ethanone", "Ethanone, 2-chloro-1-(3-fluorophenyl)-", "2-Chloro-1-(3-fluorophenyl)ethanone", "m-Fluorophenacyl chloride", "\u03b1-Chloro-3\u2032-fluoroacetophenone", "2-Chloro-1-(3-fluorophenyl)ethan-1-one"], "SMILES": "C(CCl)(=O)C1=CC(F)=CC=C1", "physical_data": {"Molecular Weight": "172.58", "Molecular Formula": "C8H6ClFO", "Melting Point": "149-150 \u00b0C"}}