{"cas_no": "5368-81-0", "cn_name": "3-\u7532\u6c27\u57fa\u82ef\u7532\u9178\u7532\u916f", "en_name": ["Benzoic acid, 3-methoxy-, methyl ester", "Benzoic acid, 3-methoxy-, methyl ester", "m-Anisic acid, methyl ester", "Benzoic acid, m-methoxy-, methyl ester", "Methyl m-methoxybenzoate", "Methyl 3-methoxybenzoate", "m-Methoxybenzoic acid methyl ester", "Methyl m-anisate", "3-Methoxybenzoic acid methyl ester", "NSC 100922"], "SMILES": "C(OC)(=O)C1=CC(OC)=CC=C1", "physical_data": {"Molecular Weight": "166.17", "Molecular Formula": "C9H10O3", "Boiling Point": "248 \u00b0C", "Melting Point": "45-46 \u00b0C"}}