{"cas_no": "5369-16-4", "cn_name": "3-\u5f02\u4e19\u57fa\u82ef\u80fa", "en_name": ["3-(1-Methylethyl)benzenamine", "Benzenamine, 3-(1-methylethyl)-", "Aniline, m-isopropyl-", "3-(1-Methylethyl)benzenamine", "m-Cumidine", "m-Isopropylaniline", "3-Isopropylaniline", "3-Cumidine", "m-Aminocumene", "3-Isopropylphenylamine", "3-(1-Methylethyl)aniline", "3-Isopropylbenzenamine", "3-(Propan-2-yl)aniline"], "SMILES": "C(C)(C)C1=CC(N)=CC=C1", "physical_data": {"Molecular Weight": "135.21", "Molecular Formula": "C9H13N", "Boiling Point": "79-80 \u00b0C @ Press: 3 Torr", "Density": "0.9534 g/cm\u00b3 @ Temp: 25 \u00b0C"}}