{"cas_no": "53696-74-5", "cn_name": "\u4eae\u83cc\u7532\u7d20", "en_name": ["Armillarisin A", "2H-1-Benzopyran-2-one, 3-acetyl-7-hydroxy-5-(hydroxymethyl)-", "3-Acetyl-7-hydroxy-5-(hydroxymethyl)-2H-1-benzopyran-2-one", "Armillarisin A", "3-Acetyl-7-hydroxy-5-(hydroxymethyl)-2H-chromen-2-one", "3-Acetyl-7-hydroxy-5-(hydroxymethyl)chromen-2-one"], "SMILES": "C(O)C1=C2C(OC(=O)C(C(C)=O)=C2)=CC(O)=C1", "physical_data": {"Molecular Weight": "234.20", "Molecular Formula": "C12H10O5", "Melting Point": "245 \u00b0C"}}