{"cas_no": "5369-19-7", "cn_name": "3-\u53d4\u4e01\u57fa\u82ef\u80fa", "en_name": ["3-(1,1-Dimethylethyl)benzenamine", "Benzenamine, 3-(1,1-dimethylethyl)-", "Aniline, m-tert-butyl-", "3-(1,1-Dimethylethyl)benzenamine", "3-tert-Butylaniline", "m-tert-Butylaniline", "3-tert-Butylphenylamine", "3-(1,1-Dimethylethyl)aniline"], "SMILES": "C(C)(C)(C)C1=CC(N)=CC=C1", "physical_data": {"Molecular Weight": "149.23", "Molecular Formula": "C10H15N", "Boiling Point": "83-84 \u00b0C @ Press: 2 Torr"}}