{"cas_no": "537-55-3", "cn_name": "N-\u4e59\u9170-L-\u916a\u6c28\u9178", "en_name": ["N-Acetyl-L-tyrosine", "L-Tyrosine, N-acetyl-", "Tyrosine, N-acetyl-, L-", "N-Acetyl-L-tyrosine", "N-Acetyltyrosine", "L-N-Acetyltyrosine", "(2S)-2-Acetylamino-3-(4-hydroxyphenyl)propanoic acid", "NSC 10853", "(+)-(2S)-2-(Acetylamino)-3-(4-hydroxyphenyl)propanoic acid", "Tyr-Excel", "(2S)-2-Acetamido-3-(4-hydroxyphenyl)propanoic acid"], "SMILES": "C(C(NC(C)=O)C(O)=O)C1=CC=C(O)C=C1", "physical_data": {"Molecular Weight": "223.23", "Molecular Formula": "C11H13NO4", "Melting Point": "151-153 \u00b0C"}}