{"cas_no": "537-40-6", "cn_name": "\u7518\u6cb9\u4e09\u4e9a\u6cb9\u9178\u916f", "en_name": ["Trilinolein", "9,12-Octadecadienoic acid (9Z,12Z)-, 1,1\u2032,1\u2032\u2032-(1,2,3-propanetriyl) ester", "Linolein, tri-", "9,12-Octadecadienoic acid (Z,Z)-, 1,2,3-propanetriyl ester", "9,12-Octadecadienoic acid (9Z,12Z)-, 1,2,3-propanetriyl ester", "Trilinolein", "Glyceryl trilinoleate", "Linoleic triglyceride", "Trilinoleoylglycerol", "Glycerol trilinoleate", "Trilinoleyl glyceride", "Triglyceride LLL", "Glycerin trilinoleate", "Efaderma F", "LLL", "LLL triacylglycerol", "Linoleic acid triglyceride"], "SMILES": "C(OC(CCCCCCCC=CCC=CCCCCC)=O)(COC(CCCCCCCC=CCC=CCCCCC)=O)COC(CCCCCCCC=CCC=CCCCCC)=O", "physical_data": {"Molecular Weight": "879.38", "Molecular Formula": "C57H98O6", "Melting Point": "-5--4 \u00b0C", "Density": "0.9184 g/cm\u00b3 @ Temp: 40 \u00b0C"}}