{"cas_no": "537-42-8", "cn_name": "\u7d2b\u6a80\u82aa", "en_name": ["Pterostilbene", "Phenol, 4-[(1E)-2-(3,5-dimethoxyphenyl)ethenyl]-", "4-Stilbenol, 3\u2032,5\u2032-dimethoxy-, (E)-", "Phenol, 4-[2-(3,5-dimethoxyphenyl)ethenyl]-, (E)-", "4-[(1E)-2-(3,5-Dimethoxyphenyl)ethenyl]phenol", "Pterostilbene", "3,5-Dimethoxy-4\u2032-hydroxy-trans-stilbene", "trans-3,5-Dimethoxy-4\u2032-hydroxystilbene", "trans-Pterostilbene", "(E)-2-(3,5-Dimethoxyphenyl)-1-(4-hydroxyphenyl)ethene", "(E)-4-Hydroxy-3\u2032,5\u2032-dimethoxystilbene", "(E)-4-(3,5-Dimethoxystyryl)phenol", "E-Pterostilbene", "P 1499"], "SMILES": "C(=CC1=CC=C(O)C=C1)C2=CC(OC)=CC(OC)=C2", "physical_data": {"Molecular Weight": "256.30", "Molecular Formula": "C16H16O3", "Melting Point": "88-89 \u00b0C"}}