{"cas_no": "537-73-5", "cn_name": "3-\u7f9f\u57fa-4-\u7532\u6c27\u57fa\u8089\u6842\u9178", "en_name": ["Isoferulic acid", "2-Propenoic acid, 3-(3-hydroxy-4-methoxyphenyl)-", "Cinnamic acid, 3-hydroxy-4-methoxy-", "3-(3-Hydroxy-4-methoxyphenyl)-2-propenoic acid", "Hesperetic acid", "Isoferulic acid", "3-Hydroxy-4-methoxycinnamic acid", "NSC 51987", "4-Methoxycaffeic acid", "4-O-Methylcaffeic acid"], "SMILES": "C(=CC(O)=O)C1=CC(O)=C(OC)C=C1", "physical_data": {"Molecular Weight": "194.18", "Molecular Formula": "C10H10O4", "Melting Point": "228 \u00b0C"}}