{"cas_no": "537-49-5", "cn_name": "N-\u7532\u57faL-\u916a\u6c28\u9178", "en_name": ["N-Methyl-L-tyrosine", "L-Tyrosine, N-methyl-", "Tyrosine, N-methyl-, L-", "Surinamine", "N-Methyl-L-tyrosine", "Andirine", "Andrine", "Ratanhine", "Ratanhin", "Surinamin", "N-Methyltyrosine", "(+)-N-Methyltyrosine", "L-(+)-N-Methyltyrosine", "L-N-Methyltyrosine", "(2S)-3-(4-Hydroxyphenyl)-2-(methylazaniumyl)propanoate", "(2S)-3-(4-Hydroxyphenyl)-2-(methylamino)propanoic acid"], "SMILES": "C(C(C(O)=O)NC)C1=CC=C(O)C=C1", "physical_data": {"Molecular Weight": "195.22", "Molecular Formula": "C10H13NO3", "Melting Point": "293 \u00b0C"}}