{"cas_no": "537-09-7", "cn_name": "\u6241\u679d\u8863\u4e8c\u9178", "en_name": ["Evernic acid", "Benzoic acid, 2-hydroxy-4-[(2-hydroxy-4-methoxy-6-methylbenzoyl)oxy]-6-methyl-", "Evernic acid", "2,6-Cresotic acid, 4-methoxy-, 4-ester with 6-methyl-\u03b2-resorcylic acid", "2-Hydroxy-4-[(2-hydroxy-4-methoxy-6-methylbenzoyl)oxy]-6-methylbenzoic acid", "NSC 81164"], "SMILES": "O(C(=O)C1=C(C)C=C(OC)C=C1O)C2=CC(C)=C(C(O)=O)C(O)=C2", "physical_data": {"Molecular Weight": "332.30", "Molecular Formula": "C17H16O7", "Melting Point": "170 \u00b0C"}}