{"cas_no": "537-45-1", "cn_name": "2\uff0c6-\u4e8c\u6eb4\u55b9\u67c4-4-\u6c2f\u4e9a\u80fa", "en_name": ["2,6-Dibromoquinone-4-chloroimide", "2,5-Cyclohexadien-1-one, 2,6-dibromo-4-(chloroimino)-", "p-Benzoquinone imine, 2,6-dibromo-N-chloro-", "2,6-Dibromo-4-(chloroimino)-2,5-cyclohexadien-1-one", "BQC reagent", "4-(Chloroimino)-2,6-dibromo-2,5-cyclohexadien-1-one", "2,6-Dibromo-1,4-benzoquinone-4-chlorimide", "2,6-Dibromo-N-chloro-p-benzoquinoneimine", "2,6-Dibromoquinone chloroimine", "N-Chloro-2,6-dibromoquinoneimine", "2,6-Dibromoquinone chlorimide", "2,6-Dibromoquinone-4-chlorimide", "2,6-Dibromoquinone chloroimide", "2,6-Dibromoquinone-4-chloroimide", "2,6-Dibromoquinone-4-chloroimine", "NSC 528", "2,6-Dibromo-4-(chloroimino)cyclohexa-2,5-dienone"], "SMILES": "N(Cl)=C1C=C(Br)C(=O)C(Br)=C1", "physical_data": {"Molecular Weight": "299.35", "Molecular Formula": "C6H2Br2ClNO", "Melting Point": "83 \u00b0C"}}