{"cas_no": "537-91-7", "cn_name": "3,3'-\u4e8c\u785d\u57fa\u4e8c\u82ef\u4e8c\u786b\u919a", "en_name": ["Bis(3-nitrophenyl) disulfide", "Disulfide, bis(3-nitrophenyl)", "Disulfide, bis(m-nitrophenyl)", "Bis(3-nitrophenyl) disulfide", "m,m\u2032-Dinitrodiphenyl disulfide", "Megasul", "Nitrophenide", "NP", "Bis(m-nitrophenyl) disulfide", "Hinagen", "3,3\u2032-Dinitrodiphenyl disulfide", "NSC 677441", "NSC 42172", "NSC 655043", "NSC 66160", "1-Nitro-3-[(3-nitrophenyl)disulfanyl]benzene"], "SMILES": "S(SC1=CC(N(=O)=O)=CC=C1)C2=CC(N(=O)=O)=CC=C2", "physical_data": {"Molecular Weight": "308.33", "Molecular Formula": "C12H8N2O4S2", "Melting Point": "84 \u00b0C"}}