{"cas_no": "537-47-3", "cn_name": "4-\u82ef\u57fa\u6c28\u57fa\u8132", "en_name": ["4-Phenylsemicarbazide", "Hydrazinecarboxamide, N-phenyl-", "Semicarbazide, 4-phenyl-", "N-Phenylhydrazinecarboxamide", "Anilinoformylhydrazine", "4-Phenylsemicarbazide", "1-Amino-3-phenylurea", "Hydrazinecarboxanilide", "Phenylsemicarbazide", "Anilinocarbonylhydrazine", "Phenylaminocarbonylhydrazine", "NSC 231527", "N-Phenylsemicarbazide", "3-Amino-1-phenylurea"], "SMILES": "N(C(NN)=O)C1=CC=CC=C1", "physical_data": {"Molecular Weight": "151.17", "Molecular Formula": "C7H9N3O", "Melting Point": "128 \u00b0C"}}