{"cas_no": "537-65-5", "cn_name": "4,4'-\u4e8c\u6c28\u57fa\u4e8c\u82ef\u80fa", "en_name": ["4,4\u2032-Diaminodiphenylamine", "1,4-Benzenediamine, N1-(4-aminophenyl)-", "Diphenylamine, 4,4\u2032-diamino-", "1,4-Benzenediamine, N-(4-aminophenyl)-", "N1-(4-Aminophenyl)-1,4-benzenediamine", "C.I. 76120", "p,p\u2032-Diaminodiphenylamine", "4,4\u2032-Diaminodiphenylamine", "Di(p-aminophenyl)amine", "Diazol Black C", "Benzenamine, 4,4\u2032-iminobis-", "Indamine", "Bis(p-aminophenyl)amine", "4,4\u2032-Iminodianiline", "p,p\u2032-Iminodianiline", "Bis(4-aminophenyl)amine", "N-(4-Aminophenyl)-p-phenylenediamine", "NSC 33417", "N-(4-Aminophenyl)-1,4-benzenediamine", "1-N-(4-Aminophenyl)benzene-1,4-diamine"], "SMILES": "N(C1=CC=C(N)C=C1)C2=CC=C(N)C=C2", "physical_data": {"Molecular Weight": "199.25", "Molecular Formula": "C12H13N3", "Melting Point": "158 \u00b0C"}}