{"cas_no": "537-92-8", "cn_name": "N-\u4e59\u9170\u57fa-3-\u7532\u82ef\u80fa", "en_name": ["N-(3-Methylphenyl)acetamide", "Acetamide, N-(3-methylphenyl)-", "m-Acetotoluidide", "N-(3-Methylphenyl)acetamide", "m-Acetotoluide", "3-Methylacetanilide", "N-m-Tolylacetamide", "3-Acetamidotoluene", "N-Acetyl-m-toluidine", "m-Tolylacetamide", "Aceto-m-aminotoluene", "m-Methylacetanilide", "3\u2032-Methylacetanilide", "1-Acetamido-3-methylbenzene", "N-Acetyl-3-methylaniline", "m-N-Acetyltoluidine", "NSC 3103", "N-(m-Tolyl)acetamide"], "SMILES": "N(C(C)=O)C1=CC(C)=CC=C1", "physical_data": {"Molecular Weight": "149.19", "Molecular Formula": "C9H11NO", "Boiling Point": "303 \u00b0C", "Melting Point": "65.5 \u00b0C", "Density": "1.141 g/cm\u00b3 @ Temp: 15 \u00b0C"}}