{"cas_no": "537-98-4", "cn_name": "\u53cd\u5f0f\u963f\u9b4f\u9178", "en_name": ["trans-Ferulic acid", "2-Propenoic acid, 3-(4-hydroxy-3-methoxyphenyl)-, (2E)-", "Cinnamic acid, 4-hydroxy-3-methoxy-, (E)-", "2-Propenoic acid, 3-(4-hydroxy-3-methoxyphenyl)-, (E)-", "(2E)-3-(4-Hydroxy-3-methoxyphenyl)-2-propenoic acid", "trans-Ferulic acid", "(E)-4-Hydroxy-3-methoxycinnamic acid", "trans-4-Hydroxy-3-methoxycinnamic acid", "(E)-3-(4-Hydroxy-3-methoxyphenyl)-2-propenoic acid", "(E)-Ferulic acid", "(2E)-3-(4-Hydroxy-3-methoxyphenyl)-2-propenoic acid", "(2E)-3-(4-Hydroxy-3-methoxyphenyl)-2-acrylic acid", "(2E)-3-(4-Hydroxy-3-methoxyphenyl)prop-2-enoic acid", "Fumalic acid", "(E)-3-(4-Hydroxy-3-methoxyphenyl)acrylic acid", "(E)-3-(4-Hydroxy-3-methoxyphenyl)acrylic acid", "TCI-CA 01"], "SMILES": "C(=CC(O)=O)C1=CC(OC)=C(O)C=C1", "physical_data": {"Molecular Weight": "194.18", "Molecular Formula": "C10H10O4", "Melting Point": "169-170 \u00b0C"}}