{"cas_no": "537-39-3", "cn_name": "\u4e09\u53cd\u6cb9\u9178\u7518\u6cb9\u916f 9C 18:1\u53cd", "en_name": ["Trielaidin", "9-Octadecenoic acid, 1,1\u2032,1\u2032\u2032-(1,2,3-propanetriyl) ester, (9E,9\u2032E,9\u2032\u2032E)-", "Elaidin, tri-", "9-Octadecenoic acid, 1,2,3-propanetriyl ester, (E,E,E)-", "9-Octadecenoic acid, 1,2,3-propanetriyl ester, (9E,9\u2032E,9\u2032\u2032E)-", "Trielaidin", "Glycerol trielaidate", "Trielaidoylglycerol", "Glyceryl trielaidate"], "SMILES": "C(OC(CCCCCCCC=CCCCCCCCC)=O)(COC(CCCCCCCC=CCCCCCCCC)=O)COC(CCCCCCCC=CCCCCCCCC)=O", "physical_data": {"Molecular Weight": "885.43", "Molecular Formula": "C57H104O6", "Melting Point": "40.7 \u00b0C"}}