{"cas_no": "537-33-7", "cn_name": "\u82a5\u5b50\u9187", "en_name": ["Sinapyl alcohol", "Phenol, 4-(3-hydroxy-1-propen-1-yl)-2,6-dimethoxy-", "2-Propen-1-ol, 3-(4-hydroxy-3,5-dimethoxyphenyl)-", "Sinapyl alcohol", "Phenol, 4-(3-hydroxy-1-propenyl)-2,6-dimethoxy-", "4-(3-Hydroxy-1-propen-1-yl)-2,6-dimethoxyphenol", "p-Hydroxy-m,m\u2032-dimethoxycinnamyl alcohol", "Sinapic alcohol", "3-(4-Hydroxy-3,5-dimethoxyphenyl)-2-propen-1-ol"], "SMILES": "C(=CCO)C1=CC(OC)=C(O)C(OC)=C1", "physical_data": {"Molecular Weight": "210.23", "Molecular Formula": "C11H14O4", "Melting Point": "63-64 \u00b0C"}}