{"cas_no": "5370-01-4", "cn_name": "\u76d0\u9178\u7f8e\u897f\u5f8b", "en_name": ["Mexiletine hydrochloride", "2-Propanamine, 1-(2,6-dimethylphenoxy)-, hydrochloride (1:1)", "Ethylamine, 1-methyl-2-(2,6-xylyloxy)-, hydrochloride", "2-Propanamine, 1-(2,6-dimethylphenoxy)-, hydrochloride", "Mexiletine hydrochloride", "Ko 1173", "Mexitil", "Mexilitene", "Ko 1173Cl", "Katen", "Ritalmex", "(\u00b1)-Mexiletine hydrochloride", "1-(2,6-Dimethylphenoxy)-propan-2-amine hydrochloride", "2-(2-Aminopropoxy)-1,3-dimethylbenzene hydrochloride", "Namuscla"], "SMILES": "O(CC(C)N)C1=C(C)C=CC=C1C.Cl", "physical_data": {"Molecular Weight": "", "Molecular Formula": "C11H17NO.ClH", "Melting Point": "203-205 \u00b0C", "Density": "1.12 g/cm\u00b3"}}