{"cas_no": "5370-25-2", "cn_name": "2-\u4e59\u9170\u57fa-5-\u6eb4\u567b\u5429", "en_name": ["2-Acetyl-5-bromothiophene", "Ethanone, 1-(5-bromo-2-thienyl)-", "Ketone, 5-bromo-2-thienyl methyl", "1-(5-Bromo-2-thienyl)ethanone", "5-Bromo-2-acetylthiophene", "2-Acetyl-5-bromothiophene", "5-Acetyl-2-bromothiophene", "2-Bromo-5-acetylthiophene", "NSC 80366", "1-(5-Bromothiophen-2-yl)ethanone", "1-(5-Bromothiophen-2-yl)ethan-1-one"], "SMILES": "C(C)(=O)C=1SC(Br)=CC1", "physical_data": {"Molecular Weight": "205.07", "Molecular Formula": "C6H5BrOS", "Boiling Point": "105-107 \u00b0C @ Press: 4.5 Torr", "Melting Point": "94.5 \u00b0C"}}