{"cas_no": "5371-52-8", "cn_name": "2-\u7f9f\u57fa\u56db\u6c22\u544b\u5583", "en_name": ["2-Hydroxytetrahydrofuran", "2-Furanol, tetrahydro-", "Tetrahydro-2-furanol", "\u03b1-Hydroxytetrahydrofuran", "2-Hydroxytetrahydrofuran", "Tetrahydro-2-hydroxyfuran"], "SMILES": "OC1CCCO1", "physical_data": {"Molecular Weight": "88.11", "Molecular Formula": "C4H8O2", "Boiling Point": "69-70 \u00b0C @ Press: 12 Torr", "Density": "1.084 g/cm\u00b3"}}