{"cas_no": "53716-50-0", "cn_name": "\u5965\u5429\u8fbe\u5511", "en_name": ["Oxfendazole", "Carbamic acid, N-[6-(phenylsulfinyl)-1H-benzimidazol-2-yl]-, methyl ester", "Carbamic acid, [5-(phenylsulfinyl)-1H-benzimidazol-2-yl]-, methyl ester", "Oxfendazole", "HOE 8105", "Systamex", "Methyl (5-benzenesulfinyl-2-benzimidazolyl)carbamate", "Fenbendazole sulfoxide", "(\u00b1)-Fenbendazole sulfoxide", "Oxphendazole", "Oxfenbendazole", "Synanthic", "Methyl [5-(phenylsulfinyl)-1H-benzimidazol-2-yl]carbamate", "(5-Phenylsulfinyl-1H-benzimidazol-2-yl)carbamic acid methyl ester"], "SMILES": "S(=O)(C=1C=C2C(N=C(NC(OC)=O)N2)=CC1)C3=CC=CC=C3", "physical_data": {"Molecular Weight": "315.35", "Molecular Formula": "C15H13N3O3S", "Melting Point": "253 \u00b0C (decomp)"}}