{"cas_no": "53716-49-7", "cn_name": "\u5361\u6d1b\u82ac", "en_name": ["Carprofen", "9H-Carbazole-2-acetic acid, 6-chloro-\u03b1-methyl-", "9H-Carbazole-2-acetic acid, 6-chloro-\u03b1-methyl-, (\u00b1)-", "6-Chloro-\u03b1-methyl-9H-carbazole-2-acetic acid", "C 5720", "(dl)-6-Chloro-\u03b1-methylcarbazole-2-acetic acid", "Carprofen", "Ro 20-5720", "2-(6-Chlorocarbazol-2-yl)propionic acid", "Ro 20-5720/000", "Imadyl", "Rimadyl", "NSC 297935", "6-Chloro-\u03b1-methylcarbazole-2-acetic acid", "Carprodyl", "2-(6-Chloro-9H-carbazol-2-yl)propanoic acid", "Vetprofen"], "SMILES": "ClC=1C=C2C=3C(NC2=CC1)=CC(C(C(O)=O)C)=CC3", "physical_data": {"Molecular Weight": "273.71", "Molecular Formula": "C15H12ClNO2", "Melting Point": "197.5 \u00b0C"}}