{"cas_no": "5372-81-6", "cn_name": "2-\u6c28\u57fa\u5bf9\u82ef\u4e8c\u7532\u9178\u4e8c\u7532\u916f", "en_name": ["1,4-Benzenedicarboxylic acid, 2-amino-, 1,4-dimethyl ester", "1,4-Benzenedicarboxylic acid, 2-amino-, 1,4-dimethyl ester", "Terephthalic acid, amino-, dimethyl ester", "1,4-Benzenedicarboxylic acid, 2-amino-, dimethyl ester", "Dimethyl 3-aminoterephthalate", "Dimethyl 2-aminoterephthalate", "2-Aminoterephthalic acid dimethyl ester", "Dimethyl aminoterephthalate", "Dimethyl 2-aminobenzene-1,4-dicarboxylate", "Dimethyl o-aminoterephthalate", "NSC 20561", "Dimethyl 2-aminobenzene-1,4-dioate", "Methyl 2-amino-4-carbomethoxybenzoate", "1,4-Dimethyl 2-aminobenzene-1,4-dicarboxylate"], "SMILES": "C(OC)(=O)C1=C(N)C=C(C(OC)=O)C=C1", "physical_data": {"Molecular Weight": "209.20", "Molecular Formula": "C10H11NO4", "Melting Point": "279-280 \u00b0C"}}