{"cas_no": "53723-88-9", "cn_name": "(5-\u5def\u57fa-1,3,4-\u567b\u4e8c\u5511-2-\u57fa\u786b\u4ee3)\u4e59\u9178", "en_name": ["2-[(4,5-Dihydro-5-thioxo-1,3,4-thiadiazol-2-yl)thio]acetic acid", "Acetic acid, 2-[(4,5-dihydro-5-thioxo-1,3,4-thiadiazol-2-yl)thio]-", "Acetic acid, [(4,5-dihydro-5-thioxo-1,3,4-thiadiazol-2-yl)thio]-", "Acetic acid, (5-mercapto-1,3,4-thiadiazol-2-ylthio)-", "2-[(4,5-Dihydro-5-thioxo-1,3,4-thiadiazol-2-yl)thio]acetic acid", "[(5-Mercapto-1,3,4-thiadiazol-2-yl)thio]acetic acid", "2-Carboxymethylthio-5-mercapto-1,3,4-thiadiazole", "2-Carboxymethylmercapto-5-mercapto-1,3,4-thiadiazole", "NSC 12586", "2-Carboxythio-5-mercapto-1,3,4-thiadiazole", "(5-Mercapto-1,3,4-thiadiazole-2-ylthio)aceticacid", "2-[(5-Sulfanyl-1,3,4-thiadiazol-2-yl)sulfanyl]acetic acid", "2-[(2-Sulfanylidene-3H-1,3,4-thiadiazol-5-yl)sulfanyl]acetic acid", "2-[(5-Mercapto-1,3,4-thiadiazol-2-yl)thio]acetic acid"], "SMILES": "S(CC(O)=O)C=1SC(=S)NN1", "physical_data": {"Molecular Weight": "208.28", "Molecular Formula": "C4H4N2O2S3", "Melting Point": "168-169 \u00b0C"}}