{"cas_no": "5373-11-5", "cn_name": "\u6728\u7280\u8349\u82f7", "en_name": ["Luteolin 7-O-glucoside", "4H-1-Benzopyran-4-one, 2-(3,4-dihydroxyphenyl)-7-(\u03b2-D-glucopyranosyloxy)-5-hydroxy-", "Cynaroside", "Luteolin, 7-\u03b2-D-glucopyranoside", "2-(3,4-Dihydroxyphenyl)-7-(\u03b2-D-glucopyranosyloxy)-5-hydroxy-4H-1-benzopyran-4-one", "Glucoluteolin", "Luteoloside", "Luteolin 7-\u03b2-D-glucoside", "7-Glucoluteolin", "Luteolin 7-O-\u03b2-D-glucoside", "Luteolin 7-glucoside", "Cinaroside", "7-O-\u03b2-D-Glucosylluteolin", "3\u2032,4\u2032,5,7-Tetrahydroxyflavone 7-\u03b2-D-glucopyranoside", "Luteolin 7-O-\u03b2-D-glucopyranoside", "Nephrocizine", "Nephrocizin", "7-(\u03b2-D-Glucosyloxy)-3\u2032,4\u2032,5-trihydroxyflavone", "3\u2032,4\u2032,5-Trihydroxyflavone 7-O-\u03b2-D-glucopyranoside", "Luteolin 7-O-glucoside", "Luteolin 7-O-\u03b2-glucopyranoside", "Luteolin 7-O-\u03b2-glucoside", "Luteolin-7-O-4C1-\u03b2-D-glucoside", "Luteolin 7-O-glucopyranoside", "Luteoline-7-glucoside"], "SMILES": "O=C1C=2C(OC(=C1)C3=CC(O)=C(O)C=C3)=CC(OC4OC(CO)C(O)C(O)C4O)=CC2O", "physical_data": {"Molecular Weight": "448.38", "Molecular Formula": "C21H20O11", "Melting Point": "258 \u00b0C"}}