{"cas_no": "53733-94-1", "cn_name": "N,N-\u4e8c\u7532\u6c27\u57fa\u7fb0\u57fa\u4e59\u57fa\u82ef\u80fa", "en_name": ["N-(3-Methoxy-3-oxopropyl)-N-phenyl-\u03b2-alanine methyl ester", "\u03b2-Alanine, N-(3-methoxy-3-oxopropyl)-N-phenyl-, methyl ester", "Propionic acid, 3,3\u2032-(phenylimino)di-, dimethyl ester", "N-(3-Methoxy-3-oxopropyl)-N-phenyl-\u03b2-alanine methyl ester", "N,N-Bis[2-(methoxycarbonyl)ethyl]aniline", "N,N-Di(\u03b2-methoxycarbonylethyl)aniline", "N,N-Bis(2-methoxycarboxyethyl)aniline"], "SMILES": "N(CCC(OC)=O)(CCC(OC)=O)C1=CC=CC=C1", "physical_data": {"Molecular Weight": "265.30", "Molecular Formula": "C14H19NO4", "Melting Point": "52-54 \u00b0C"}}