{"cas_no": "5373-87-5", "cn_name": "N-\u7f9f\u57fa-4-\u7532\u6c27\u57fa\u82ef\u7fa7\u9170\u4e9a\u80fa", "en_name": ["4-Methoxybenzamidoxime", "Benzenecarboximidamide, N-hydroxy-4-methoxy-", "p-Anisamidoxime", "N-Hydroxy-4-methoxybenzenecarboximidamide", "p-Anisamide, oxime", "p-Methoxybenzamide oxime", "p-Methoxybenzamidoxime", "4-Methoxybenzamidoxime", "p-Anisylamidoxime", "N-Hydroxy-4-methoxybenzamidine", "N\u2032-Hydroxy-4-methoxybenzamidine", "N\u2032-Hydroxy-4-methoxybenzenecarboximidamide", "N\u2032-Hydroxy-4-methoxybenzimidamide", "N-Hydroxy-p-methoxybenzamidine", "N-Hydroxy-4-methoxybenzimidamide"], "SMILES": "C(NO)(=N)C1=CC=C(OC)C=C1", "physical_data": {"Molecular Weight": "166.18", "Molecular Formula": "C8H10N2O2", "Melting Point": "121 \u00b0C"}}