{"cas_no": "5374-06-1", "cn_name": "4,6-\u4e8c\u53d4\u4e01\u57fa\u95f4\u82ef\u4e8c\u915a", "en_name": ["4,6-Di-tert-butylresorcinol", "1,3-Benzenediol, 4,6-bis(1,1-dimethylethyl)-", "Resorcinol, 4,6-di-tert-butyl-", "4,6-Bis(1,1-dimethylethyl)-1,3-benzenediol", "4,6-Di-tert-butylresorcinol", "4,6-Di-tert-butyl-1,3-benzenediol"], "SMILES": "C(C)(C)(C)C1=CC(C(C)(C)C)=C(O)C=C1O", "physical_data": {"Molecular Weight": "222.32", "Molecular Formula": "C14H22O2", "Melting Point": "121-123 \u00b0C"}}