{"cas_no": "53749-38-5", "cn_name": "10-\u7532\u916f\u57fa\u7678\u57fa\u4e8c\u7532\u57fa\u6c2f\u7845\u70f7", "en_name": ["10-(Carbomethoxy)decyldimethylchlorosilane", "Undecanoic acid, 11-(chlorodimethylsilyl)-, methyl ester", "Methyl 11-(chlorodimethylsilyl)undecanoate", "10-(Carbomethoxy)decyldimethylchlorosilane"], "SMILES": "C(CCCCCCCCC(OC)=O)C[Si](C)(C)Cl", "physical_data": {"Molecular Weight": "292.92", "Molecular Formula": "C14H29ClO2Si", "Boiling Point": "133 \u00b0C @ Press: 0.3 Torr", "Density": "0.950 g/cm\u00b3"}}