{"cas_no": "53755-77-4", "cn_name": "\u5782\u77f3\u677e\u9178 A", "en_name": ["(3S,4R,4aR,6aS,9aR,11R,13aR,13bS,15aS,15bR)-2,3,4,4a,5,6,6a,7,9,9a,10,11,12,13,13a,13b,14,15,15a,15b-Eicosahydro-3,11-dihydroxy-4,6a,10,10,13a,15b-hexamethyl-1H-cyclohepta[1,2-a:5,4-a\u2032]dinaphthalene-4-carboxylic acid", "1H-Cyclohepta[1,2-a:5,4-a\u2032]dinaphthalene-4-carboxylic acid, 2,3,4,4a,5,6,6a,7,9,9a,10,11,12,13,13a,13b,14,15,15a,15b-eicosahydro-3,11-dihydroxy-4,6a,10,10,13a,15b-hexamethyl-, (3S,4R,4aR,6aS,9aR,11R,13aR,13bS,15aS,15bR)-", "C(14a)-Homo-27-norgammacer-14-en-23-oic acid, 3,21-dihydroxy-, (3\u03b2,4\u03b2,21\u03b2)-", "(3S,4R,4aR,6aS,9aR,11R,13aR,13bS,15aS,15bR)-2,3,4,4a,5,6,6a,7,9,9a,10,11,12,13,13a,13b,14,15,15a,15b-Eicosahydro-3,11-dihydroxy-4,6a,10,10,13a,15b-hexamethyl-1H-cyclohepta[1,2-a:5,4-a\u2032]dinaphthalene-4-carboxylic acid", "Lycernuic acid A", "1H-Cyclohepta[1,2-a:5,4-a\u2032]dinaphthalene-4-carboxylic acid, 2,3,4,4a,5,6,6a,7,9,9a,10,11,12,13,13a,13b,14,15,15a,15b-eicosahydro-3,11-dihydroxy-4,6a,10,10,13a,15b-hexamethyl-, [3S-(3\u03b1,4\u03b1,4a\u03b2,6a\u03b1,9a\u03b1,11\u03b1,13a\u03b2,13b\u03b1,15a\u03b2,15b\u03b1)]-", "Lycornuic acid A"], "SMILES": "CC12C3C(C)(CC=4C(CC3)C5(C)C(CC4)C(C)(C)C(O)CC5)CCC1C(C(O)=O)(C)C(O)CC2", "physical_data": {"Molecular Weight": "472.70", "Molecular Formula": "C30H48O4", "Melting Point": "322-324 \u00b0C"}}