{"cas_no": "53760-19-3", "cn_name": "\u7ec6\u80de\u677e\u9a70\u7d20 H", "en_name": ["Cytochalasin H", "1H-Cycloundec[d]isoindol-1-one, 15-(acetyloxy)-2,3,3a,4,5,6,6a,9,10,11,12,15-dodecahydro-6,12-dihydroxy-4,10,12-trimethyl-5-methylene-3-(phenylmethyl)-, (3S,3aR,4S,6S,6aR,7E,10S,12R,13E,15R,15aR)-", "[11]Cytochalasa-6(12),13,19-trien-1-one, 21-(acetyloxy)-7,18-dihydroxy-16,18-dimethyl-10-phenyl-, (7S,13E,16S,18R,19E,21R)-", "(3S,3aR,4S,6S,6aR,7E,10S,12R,13E,15R,15aR)-15-(Acetyloxy)-2,3,3a,4,5,6,6a,9,10,11,12,15-dodecahydro-6,12-dihydroxy-4,10,12-trimethyl-5-methylene-3-(phenylmethyl)-1H-cycloundec[d]isoindol-1-one", "Kodocytochalasin 1", "Cytochalasin H", "Paspalin P I", "1H-Cycloundec[d]isoindol-1-one, 15-(acetyloxy)-2,3,3a,4,5,6,6a,9,10,11,12,15-dodecahydro-6,12-dihydroxy-4,10,12-trimethyl-5-methylene-3-(phenylmethyl)-, [3S-(3R*,3aS*,4R*,6R*,6aS*,7E,10R*,12S*,13E,15S*,15aS*)]-", "Cytochalasin O"], "SMILES": "O(C(C)=O)C1C23C(C(CC4=CC=CC=C4)NC2=O)C(C)C(=C)C(O)C3C=CCC(C)CC(C)(O)C=C1", "physical_data": {"Molecular Weight": "493.63", "Molecular Formula": "C30H39NO5", "Melting Point": "250-251 \u00b0C"}}