{"cas_no": "53778-73-7", "cn_name": "1-\u7532\u6c27\u57fa-2-\u4e01\u9187", "en_name": ["1-Methoxy-2-butanol", "2-Butanol, 1-methoxy-", "1-Methoxy-2-butanol", "1,2-Butylene glycol 1-methyl ether", "1-Methoxy-2-hydroxybutane", "1-(Methoxymethyl)-1-propanol"], "SMILES": "C(COC)(CC)O", "physical_data": {"Molecular Weight": "104.15", "Molecular Formula": "C5H12O2", "Boiling Point": "73-75 \u00b0C @ Press: 85 Torr"}}