{"cas_no": "537705-08-1", "cn_name": "2-\u7532\u6c27\u57fa-N-[3-[4-[[3-\u7532\u57fa-4-[(6-\u7532\u57fa-3-\u5421\u5576\u57fa)\u6c27\u57fa]\u82ef\u57fa]\u6c28\u57fa]-6-\u55b9\u5511\u5549\u57fa]-2-\u4e19\u70ef-1-\u57fa]\u4e59\u9170\u80fa", "en_name": ["2-Methoxy-N-[3-[4-[[3-methyl-4-[(6-methyl-3-pyridinyl)oxy]phenyl]amino]-6-quinazolinyl]-2-propen-1-yl]acetamide", "Acetamide, 2-methoxy-N-[3-[4-[[3-methyl-4-[(6-methyl-3-pyridinyl)oxy]phenyl]amino]-6-quinazolinyl]-2-propen-1-yl]-", "Acetamide, 2-methoxy-N-[3-[4-[[3-methyl-4-[(6-methyl-3-pyridinyl)oxy]phenyl]amino]-6-quinazolinyl]-2-propenyl]-", "2-Methoxy-N-[3-[4-[[3-methyl-4-[(6-methyl-3-pyridinyl)oxy]phenyl]amino]-6-quinazolinyl]-2-propen-1-yl]acetamide", "2-Methoxy-N-[3-[4-[[3-methyl-4-[(6-methylpyridin-3-yl)oxy]phenyl]amino]quinazolin-6-yl]allyl]acetamide"], "SMILES": "N(C=1C2=C(C=CC(C=CCNC(COC)=O)=C2)N=CN1)C3=CC(C)=C(OC=4C=CC(C)=NC4)C=C3", "physical_data": {"Molecular Weight": "469.54", "Molecular Formula": "C27H27N5O3", "Melting Point": "75-95 \u00b0C"}}