{"cas_no": "53780-34-0", "cn_name": "\u6c1f\u78fa\u9170\u8349\u80fa", "en_name": ["Mefluidide", "Acetamide, N-[2,4-dimethyl-5-[[(trifluoromethyl)sulfonyl]amino]phenyl]-", "N-[2,4-Dimethyl-5-[[(trifluoromethyl)sulfonyl]amino]phenyl]acetamide", "5-Acetamido-2,4-dimethyltrifluoromethanesulfonanilide", "MBR 12325", "Mefluidide", "Embark", "VEL 3973", "Embark 2S", "Vistar", "Trim-Cut"], "SMILES": "N(S(C(F)(F)F)(=O)=O)C1=CC(NC(C)=O)=C(C)C=C1C", "physical_data": {"Molecular Weight": "310.29", "Molecular Formula": "C11H13F3N2O3S", "Melting Point": "184 \u00b0C"}}