{"cas_no": "5378-35-8", "cn_name": "3-[1,3,4]\u5641\u4e8c\u5511-2-\u82ef\u80fa", "en_name": ["3-(1,3,4-Oxadiazol-2-yl)benzenamine", "Benzenamine, 3-(1,3,4-oxadiazol-2-yl)-", "1,3,4-Oxadiazole, 2-(m-aminophenyl)-", "3-(1,3,4-Oxadiazol-2-yl)benzenamine", "[3-(1,3,4-Oxadiazol-2-yl)phenyl]amine", "3-(1,3,4-Oxadiazol-2-yl)aniline"], "SMILES": "NC=1C=C(C=CC1)C2=NN=CO2", "physical_data": {"Molecular Weight": "161.16", "Molecular Formula": "C8H7N3O", "Melting Point": "72-73 \u00b0C"}}