{"cas_no": "53786-28-0", "cn_name": "5-\u6c2f-1,3-\u4e8c\u6c22-1-(4-\u54cc\u5576\u57fa)-2H-\u82ef\u5e76\u54aa\u5511-2-\u916e", "en_name": ["5-Chloro-1-(piperidin-4-yl)-1H-benzimidazol-2(3H)-one", "2H-Benzimidazol-2-one, 5-chloro-1,3-dihydro-1-(4-piperidinyl)-", "5-Chloro-1,3-dihydro-1-(4-piperidinyl)-2H-benzimidazol-2-one", "R 29676", "5-Chloro-1-piperidin-4-yl-1,3-dihydrobenzimidazol-2-one", "5-Chloro-1-(4-piperidinyl)-1,3-dihydro-2H-benzimidazol-2-one", "4-(6-Chloro-1,2-dihydro-2-oxobenzo[d]imidazol-3-yl)piperidine", "5-Chloro-1-(piperidin-4-yl)-1H-benzimidazol-2(3H)-one", "5-Chloro-1-(piperidin-4-yl)-1H-benzo[d]imidazol-2(3H)-one", "5-Chloro-1-(piperidin-4-yl)-2,3-dihydro-1H-1,3-benzodiazol-2-one"], "SMILES": "O=C1N(C=2C(N1)=CC(Cl)=CC2)C3CCNCC3", "physical_data": {"Molecular Weight": "251.71", "Molecular Formula": "C12H14ClN3O", "Melting Point": "220 \u00b0C"}}