{"cas_no": "53784-84-2", "cn_name": "6-\u5168\u8131\u6c27-6-\u5168\u6eb4\u4ee3-\u0393-\u73af\u7cca\u7cbe", "en_name": ["6A,6B,6C,6D,6E,6F,6G,6H-Octabromo-6A,6B,6C,6D,6E,6F,6G,6H-octadeoxy-\u03b3-cyclodextrin", "\u03b3-Cyclodextrin, 6A,6B,6C,6D,6E,6F,6G,6H-octabromo-6A,6B,6C,6D,6E,6F,6G,6H-octadeoxy-", "2,4,7,9,12,14,17,19,22,24,27,29,32,34,37,39-Hexadecaoxanonacyclo[36.2.2.23,6.28,11.213,16.218,21.223,26.228,31.233,36]hexapentacontane, \u03b3-cyclodextrin deriv.", "6A,6B,6C,6D,6E,6F,6G,6H-Octabromo-6A,6B,6C,6D,6E,6F,6G,6H-octadeoxy-\u03b3-cyclodextrin", "6-Bromo-6-deoxy-\u03b3-cyclodextrin", "Octakis-(6-bromo-6-deoxy)-\u03b3-cyclodextrin", "6-Per-deoxy-6-per-bromo-\u03b3-cyclodextrin"], "SMILES": "C(Br)C1C2C(O)C(O)C(O1)OC3C(CBr)OC(C(O)C3O)OC4C(CBr)OC(C(O)C4O)OC5C(CBr)OC(C(O)C5O)OC6C(O)C(O)C(OC7C(O)C(O)C(OC8C(O)C(O)C(OC9C(O)C(O)C(O2)OC9CBr)OC8CBr)OC7CBr)OC6CBr", "physical_data": {"Molecular Weight": "1800.30", "Molecular Formula": "C48H72Br8O32", "Melting Point": "231 \u00b0C"}}