{"cas_no": "538-68-1", "cn_name": "\u620a\u57fa\u82ef", "en_name": ["Pentylbenzene", "Benzene, pentyl-", "Pentylbenzene", "Amylbenzene", "n-Amylbenzene", "Pentane, 1-phenyl-", "n-Pentylbenzene", "1-Phenylpentane", "1-Phenyl-n-pentane", "NSC 73982", "1-Pentylbenzene"], "SMILES": "C(CCCC)C1=CC=CC=C1", "physical_data": {"Molecular Weight": "148.24", "Molecular Formula": "C11H16", "Boiling Point": "205.4 \u00b0C", "Melting Point": "-75 \u00b0C", "Density": "0.8624 g/cm\u00b3 @ Temp: 22 \u00b0C"}}