{"cas_no": "538-28-3", "cn_name": "S-\u82c4\u57fa\u786b\u8132\u76d0\u9178\u76d0", "en_name": ["Benzylisothiourea hydrochloride", "Carbamimidothioic acid, phenylmethyl ester, hydrochloride (1:1)", "Pseudourea, 2-benzyl-2-thio-, monohydrochloride", "Carbamimidothioic acid, phenylmethyl ester, monohydrochloride", "Pseudourea, 2-benzyl-2-thio-, hydrochloride", "Benzylisothiourea hydrochloride", "Benzylisothiuronium chloride", "S-Benzylthiuronium chloride", "BTKh", "Benzylisothiouronium chloride", "S-Benzylthiouronium chloride", "S-Benzylisothiuronium chloride", "S-Benzylisothiourea hydrochloride", "S-Benzylthiopseudourea hydrochloride", "S-Benzylthioformamidine hydrochloride", "S-Benzylthiourea hydrochloride", "S-Benzylisothiouronium hydrochloride", "S-Benzylisothiouronium chloride", "U 19451A", "2-Benzyl-2-thiopseudourea hydrochloride", "Benzituron", "Benzyl carbamimidothioate hydrochloride", "(Benzylsulfanyl)methanimidamide hydrochloride", "(Benzylsulfanyl)(imino)methanaminium chloride"], "SMILES": "C(SC(=N)N)C1=CC=CC=C1.Cl", "physical_data": {"Molecular Weight": "", "Molecular Formula": "C8H10N2S.ClH", "Melting Point": "173 \u00b0C"}}