{"cas_no": "538-86-3", "cn_name": "\u82c4\u7532\u919a", "en_name": ["Benzyl methyl ether", "Benzene, (methoxymethyl)-", "Ether, benzyl methyl", "(Methoxymethyl)benzene", "Benzyl methyl ether", "Methyl benzyl ether", "\u03b1-Methoxytoluene", "NSC 8058", "1-(Methoxymethyl)benzene"], "SMILES": "C(OC)C1=CC=CC=C1", "physical_data": {"Molecular Weight": "122.16", "Molecular Formula": "C8H10O", "Boiling Point": "170 \u00b0C", "Melting Point": "-52.6 \u00b0C", "Density": "0.9634 g/cm\u00b3"}}