{"cas_no": "538-24-9", "cn_name": "\u7518\u6cb9\u4e09\u916f", "en_name": ["Trilaurin", "Dodecanoic acid, 1,1\u2032,1\u2032\u2032-(1,2,3-propanetriyl) ester", "Laurin, tri-", "Dodecanoic acid, 1,2,3-propanetriyl ester", "Glyceryl trilaurate", "Trilaurin", "Glycerol trilaurate", "Lauric acid triglyceride", "Lauric acid triglycerin ester", "Glyceryl tridodecanoate", "Glycerin trilaurate", "Glyceryl laurate", "Lauric triglyceride", "Dynasan 112", "Trilauroylglycerol", "Tridodecanoin", "Triglyceride LaLaLa", "Glycerin tridodecanoate", "Tridodecanoyl glycerol", "NSC 4061", "LaLaLa triacylglycerol", "Glycerine trilaurate", "2,3-Di(dodecanoyloxy)propyl dodecanoate"], "SMILES": "C(COC(CCCCCCCCCCC)=O)(COC(CCCCCCCCCCC)=O)OC(CCCCCCCCCCC)=O", "physical_data": {"Molecular Weight": "639.00", "Molecular Formula": "C39H74O6", "Melting Point": "45 \u00b0C"}}