{"cas_no": "538-71-6", "cn_name": "\u5ea6\u7c73\u82ac", "en_name": ["Domiphen bromide", "1-Dodecanaminium, N,N-dimethyl-N-(2-phenoxyethyl)-, bromide (1:1)", "Ammonium, dodecyldimethyl(2-phenoxyethyl)-, bromide", "1-Dodecanaminium, N,N-dimethyl-N-(2-phenoxyethyl)-, bromide", "Dodecyldimethyl(2-phenoxyethyl)ammonium bromide", "Bradosol", "Bradosol bromide", "Domiphen bromide", "PDDB", "Phenododecinium bromide", "(\u03b2-Phenoxyethyl)dimethyldodecylammonium bromide", "N-Dodecyl-N-(2-phenoxyethyl)dimethylammonium bromide", "Bradonit", "Bradoral", "Oradol", "Fungitex R", "Fungitex", "Modicare", "NSC 39415", "Neo-Bradoral"], "SMILES": "O(CC[N+](CCCCCCCCCCCC)(C)C)C1=CC=CC=C1.[Br-]", "physical_data": {"Molecular Weight": "", "Molecular Formula": "C22H40NO.Br", "Melting Point": "112-113 \u00b0C"}}