{"cas_no": "538-32-9", "cn_name": "\u82c4\u8132", "en_name": ["Benzylurea", "Urea, N-(phenylmethyl)-", "Urea, benzyl-", "Urea, (phenylmethyl)-", "N-(Phenylmethyl)urea", "Benzylcarbamide", "Benzylurea", "1-Benzylurea", "N-Benzylurea", "NSC 109103"], "SMILES": "C(NC(N)=O)C1=CC=CC=C1", "physical_data": {"Molecular Weight": "150.18", "Molecular Formula": "C8H10N2O", "Melting Point": "148 \u00b0C"}}