{"cas_no": "538-65-8", "cn_name": "\u8089\u6842\u9178\u4e01\u916f", "en_name": ["Butyl cinnamate", "2-Propenoic acid, 3-phenyl-, butyl ester", "Cinnamic acid, butyl ester", "Butyl cinnamate", "n-Butyl cinnamate", "Cinnamic acid n-butyl ester", "Eliminoxy", "3-Phenyl-2-propenoic acid butyl ester", "NSC 71966", "Butyl 3-phenyl-2-propenoate", "Butyl 3-phenylacrylate"], "SMILES": "C(=CC(OCCCC)=O)C1=CC=CC=C1", "physical_data": {"Molecular Weight": "204.26", "Molecular Formula": "C13H16O2", "Boiling Point": "177-178 \u00b0C @ Press: 13 Torr", "Density": "1.0270 g/cm\u00b3 @ Temp: 20 \u00b0C"}}