{"cas_no": "538-58-9", "cn_name": "\u4e8c\u4e9a\u82c4\u53c9\u4e19\u916eDBA", "en_name": ["Dibenzylideneacetone", "1,4-Pentadien-3-one, 1,5-diphenyl-", "3-Pentadienone, 1,5-diphenyl-", "1,5-Diphenyl-1,4-pentadien-3-one", "Dibenzalacetone", "Dibenzylideneacetone", "Distyryl ketone", "Styrol ketone", "1,5-Diphenyl-3-pentadienone", "Bis(2-phenylvinyl) ketone", "Bis(2-phenylethenyl) ketone", "1,5-Diphenyl-1,4-pentadienone", "NSC 117234", "NSC 623642", "NSC 8103"], "SMILES": "C(=CC(C=CC1=CC=CC=C1)=O)C2=CC=CC=C2", "physical_data": {"Molecular Weight": "234.29", "Molecular Formula": "C17H14O", "Melting Point": "113 \u00b0C (decomp)"}}