{"cas_no": "538-23-8", "cn_name": "\u4e09\u8f9b\u9178\u7518\u6cb9\u916f", "en_name": ["Tricaprylin", "Octanoic acid, 1,1\u2032,1\u2032\u2032-(1,2,3-propanetriyl) ester", "Octanoin, tri-", "Octanoic acid, 1,2,3-propanetriyl ester", "Tricaprylin", "Trioctanoin", "RATO", "Tricaprylic glyceride", "Glyceryl trioctanoate", "Glycerol tricaprylate", "Glycerol trioctanoate", "Octanoic acid triglyceride", "Trioctanoylglycerol", "Caprylic acid triglyceride", "Glycerin tricaprylate", "Tricaprylyl glycerin", "Tricapryloylglycerol", "Panacet 800", "Glyceryl tricaprylate", "Glycerin trioctanoate", "Sefsol 810", "Trioctanoylglyceride", "Captex 8000", "NI 01", "Coconad RK", "Rilanit GTC", "Trivent OCG", "NSC 4059", "Paester 9306", "Hexalan", "Poem M 2", "Hest TC", "Tricaprilin", "Emalex KTG", "Delios 888", "Caprylic triglyceride", "Myritol 888", "Miglyol 808", "Stelliesters 55/45", "Stelliesters MCT 55/45", "2,3-Di(octanoyloxy)propyl octanoate", "CER 0001", "Propane-1,2,3-triyl trioctanoate"], "SMILES": "C(COC(CCCCCCC)=O)(COC(CCCCCCC)=O)OC(CCCCCCC)=O", "physical_data": {"Molecular Weight": "470.68", "Molecular Formula": "C27H50O6", "Boiling Point": "233 \u00b0C", "Melting Point": "10 \u00b0C", "Density": "0.954 g/cm\u00b3"}}