{"cas_no": "538-08-9", "cn_name": "\u4e8c\u70ef\u4e19\u57fa\u4ee3\u6c30\u6c28", "en_name": ["N,N-Di-2-propen-1-ylcyanamide", "Cyanamide, N,N-di-2-propen-1-yl-", "Cyanamide, diallyl-", "Cyanamide, di-2-propenyl-", "N,N-Di-2-propen-1-ylcyanamide", "Diallylcyanamide", "N,N-Diallylcyanamide", "NSC 3513"], "SMILES": "N(CC=C)(CC=C)C#N", "physical_data": {"Molecular Weight": "122.17", "Molecular Formula": "C7H10N2", "Boiling Point": "140-145 \u00b0C @ Press: 90 Torr", "Melting Point": "&lt;-70 \u00b0C", "Density": "0.9021 g/cm\u00b3"}}