{"cas_no": "538-41-0", "cn_name": "\u5bf9\u4e8c\u6c28\u57fa\u5076\u6c2e\u82ef", "en_name": ["4,4\u2032-Diaminoazobenzene", "Benzenamine, 4,4\u2032-(1,2-diazenediyl)bis-", "Aniline, 4,4\u2032-azodi-", "Benzenamine, 4,4\u2032-azobis-", "4,4\u2032-(1,2-Diazenediyl)bis[benzenamine]", "p-Azoaniline", "4,4\u2032-Azodianiline", "p-Diaminoazobenzene", "4,4\u2032-Diaminoazobenzene", "p\u2032-Amino-p-aminoazobenzene", "p,p\u2032-Diaminoazobenzene", "NSC 17103", "4-(4-Aminophenyl)azoaniline"], "SMILES": "N(=NC1=CC=C(N)C=C1)C2=CC=C(N)C=C2", "physical_data": {"Molecular Weight": "212.25", "Molecular Formula": "C12H12N4", "Melting Point": "250.5 \u00b0C"}}