{"cas_no": "538-74-9", "cn_name": "\u4e8c\u82c4\u57fa\u786b\u919a", "en_name": ["Dibenzyl sulfide", "Benzene, 1,1\u2032-[thiobis(methylene)]bis-", "Benzyl sulfide", "1,1\u2032-[Thiobis(methylene)]bis[benzene]", "Dibenzyl monosulfide", "Dibenzyl sulfide", "Benzyl thioether", "Benzyl monosulfide", "Dibenzyl thioether", "((Benzylthio)methyl)benzene", "NSC 212544", "NSC 6648", "Benzyl phenylmethyl sulfide"], "SMILES": "C(SCC1=CC=CC=C1)C2=CC=CC=C2", "physical_data": {"Molecular Weight": "214.33", "Molecular Formula": "C14H14S", "Boiling Point": "111-115 \u00b0C @ Press: 0.3 Torr", "Melting Point": "49.5 \u00b0C", "Density": "1.0583 g/cm\u00b3 @ Temp: 50 \u00b0C"}}