{"cas_no": "538-62-5", "cn_name": "\u82ef\u57fa\u5bcc\u9a6c\u9178", "en_name": ["Diphenylcarbazone", "Diazenecarboxylic acid, 2-phenyl-, 2-phenylhydrazide", "Formic acid, (phenylazo)-, 2-phenylhydrazide", "Diazenecarboxylic acid, phenyl-, 2-phenylhydrazide", "Diphenylcarbazone", "s-Diphenylcarbazone", "Hydrazinecarboxamide, 2-phenyl-N-(phenylimino)-", "1,5-Diphenylcarbazone", "Diazenecarbohydrazonic acid, N,2-diphenyl-", "3-Hydroxy-1,5-diphenylformazan", "1-Anilino-3-phenyliminourea"], "SMILES": "N(NC(N=NC1=CC=CC=C1)=O)C2=CC=CC=C2", "physical_data": {"Molecular Weight": "240.26", "Molecular Formula": "C13H12N4O", "Melting Point": "157 \u00b0C (decomp)"}}