{"cas_no": "538-44-3", "cn_name": "\u4e9a\u82c4\u57fa\u56ac\u54ea\u916e", "en_name": ["4,4-Dimethyl-1-phenyl-1-penten-3-one", "1-Penten-3-one, 4,4-dimethyl-1-phenyl-", "4,4-Dimethyl-1-phenyl-1-penten-3-one", "Benzalpinacolone", "Benzylidenepinacolone", "tert-Butyl styryl ketone", "2,2-Dimethyl-5-phenyl-4-penten-3-one", "1,1-Dimethylethyl styryl ketone", "NSC 15299"], "SMILES": "C(=CC(C(C)(C)C)=O)C1=CC=CC=C1", "physical_data": {"Molecular Weight": "188.27", "Molecular Formula": "C13H16O", "Boiling Point": "152 \u00b0C @ Press: 17 Torr", "Melting Point": "43 \u00b0C"}}