{"cas_no": "538-43-2", "cn_name": "3-\u82ef\u6c27\u57fa-1,2-\u4e19\u4e8c\u9187", "en_name": ["3-Phenoxy-1,2-propanediol", "1,2-Propanediol, 3-phenoxy-", "3-Phenoxy-1,2-propanediol", "Antodyne", "Glycerol \u03b1-monophenyl ether", "Phenol glyceryl ether", "Glycerol \u03b1-phenyl ether", "Phenylglyceryl ether", "1-Phenoxy-2,3-propanediol", "\u03b1-Phenyl monoglyceryl ether", "2,3-Dihydroxypropyl phenyl ether", "1,2-Dihydroxy-3-phenoxypropane", "1-Phenoxymethyl-1,2-ethanediol", "NSC 406489", "3-Phenoxy-1,2-propoanediol"], "SMILES": "O(CC(CO)O)C1=CC=CC=C1", "physical_data": {"Molecular Weight": "168.19", "Molecular Formula": "C9H12O3", "Boiling Point": "213 \u00b0C @ Press: 30 Torr", "Melting Point": "67.5 \u00b0C", "Density": "1.225 g/cm\u00b3 @ Temp: 30 \u00b0C"}}