{"cas_no": "538-51-2", "cn_name": "N-\u82c4\u53c9\u82ef\u80fa", "en_name": ["N-Benzylideneaniline", "Benzenamine, N-(phenylmethylene)-", "Aniline, N-benzylidene-", "N-(Phenylmethylene)benzenamine", "Benzaldehyde anil", "N-Benzylideneaniline", "N-Benzalaniline", "M4 (amine)", "N-Phenylbenzenemethanimine", "N-Phenylbenzylideneimine", "M4", "Benzaldehyde N-phenylimine", "N-Phenylbenzaldimine", "Phenyl(benzylidene)amine", "Benzylideneaniline", "(Benzylidene)phenylamine", "N-(Phenylmethylidene)benzenamine", "NSC 736", "Diphenylimine", "N-Benzylidenebenzenamine", "N-Phenylbenzylimine", "N-Benzylidenenaniline"], "SMILES": "C(=NC1=CC=CC=C1)C2=CC=CC=C2", "physical_data": {"Molecular Weight": "181.23", "Molecular Formula": "C13H11N", "Boiling Point": "310 \u00b0C", "Melting Point": "54 \u00b0C"}}