{"cas_no": "538-75-0", "cn_name": "N,N'-\u4e8c\u73af\u5df1\u57fa\u78b3\u4e8c\u4e9a\u80fa", "en_name": ["Dicyclohexylcarbodiimide", "Cyclohexanamine, N,N\u2032-methanetetraylbis-", "Carbodiimide, dicyclohexyl-", "N,N\u2032-Methanetetraylbis[cyclohexanamine]", "DCCD", "1,3-Dicyclohexylcarbodiimide", "N,N\u2032-Dicyclohexylcarbodiimide", "Dicyclohexylcarbodiimide", "DCCI", "DCC", "Bis(cyclohexyl)carbodiimide", "NSC 30022", "NSC 53373", "NSC 57182", "DN-TE 9", "MeSH ID: D004024"], "SMILES": "N(=C=NC1CCCCC1)C2CCCCC2", "physical_data": {"Molecular Weight": "206.33", "Molecular Formula": "C13H22N2", "Boiling Point": "154-156 \u00b0C @ Press: 11 Torr", "Melting Point": "34.5 \u00b0C"}}