{"cas_no": "538-39-6", "cn_name": "1,2-\u4e8c\u5bf9\u7532\u82ef\u57fa\u4e59\u70f7", "en_name": ["1,2-Bis(4-methylphenyl)ethane", "Benzene, 1,1\u2032-(1,2-ethanediyl)bis[4-methyl-", "Bibenzyl, 4,4\u2032-dimethyl-", "1,1\u2032-(1,2-Ethanediyl)bis[4-methylbenzene]", "p,p\u2032-Dimethylbibenzyl", "4,4\u2032-Dimethylbibenzyl", "4,4\u2032-Dimethyldibenzyl", "sym-Di-p-tolylethane", "\u03b1,\u03b2-Di-p-tolylethane", "1,2-Di-p-tolylethane", "1,2-Di(p-methylphenyl)ethane", "1,2-Bis(p-methylphenyl)ethane", "1,2-Bis(4-methylphenyl)ethane", "1-Methyl-4-[2-(4-methylphenyl)ethyl]benzene"], "SMILES": "C(CC1=CC=C(C)C=C1)C2=CC=C(C)C=C2", "physical_data": {"Molecular Weight": "210.31", "Molecular Formula": "C16H18", "Boiling Point": "170-180 \u00b0C @ Press: 15 Torr", "Melting Point": "85 \u00b0C"}}