{"cas_no": "538-09-0", "cn_name": "\u53bb\u7532\u6258\u54c1\u9187", "en_name": ["Nortropine", "8-Azabicyclo[3.2.1]octan-3-ol, (3-endo)-", "Nortropine", "1\u03b1H,5\u03b1H-Nortropan-3\u03b1-ol", "8-Azabicyclo[3.2.1]octan-3-ol, endo-", "(3-endo)-8-Azabicyclo[3.2.1]octan-3-ol", "Tropigenine", "Tropigenin", "Nortropin", "Nortropenol", "NSC 72850", "N-Demethyltropine", "endo-8-Azabicyclo[3.2.1]octan-3-ol", "3\u03b1-Nortropanol"], "SMILES": "OC1CC2NC(CC2)C1", "physical_data": {"Molecular Weight": "127.18", "Molecular Formula": "C7H13NO", "Melting Point": "161 \u00b0C"}}