{"cas_no": "538-93-2", "cn_name": "\u5f02\u4e01\u57fa\u82ef", "en_name": ["Isobutylbenzene", "Benzene, (2-methylpropyl)-", "Benzene, isobutyl-", "(2-Methylpropyl)benzene", "Isobutylbenzene", "2-Methyl-1-phenylpropane", "iso-Butylbenzene", "NSC 24848", "i-Butylbenzene"], "SMILES": "C(C(C)C)C1=CC=CC=C1", "physical_data": {"Molecular Weight": "134.22", "Molecular Formula": "C10H14", "Boiling Point": "172.7 \u00b0C", "Melting Point": "-51.4 \u00b0C", "Density": "0.8540 g/cm\u00b3 @ Temp: 20 \u00b0C"}}