{"cas_no": "5380-42-7", "cn_name": "\u567b\u5429-2-\u7fa7\u9178\u7532\u916f", "en_name": ["Methyl 2-thiophenecarboxylate", "2-Thiophenecarboxylic acid, methyl ester", "Methyl 2-thiophenecarboxylate", "2-(Methoxycarbonyl)thiophene", "2-(Carbomethoxy)thiophene", "Methyl 2-thienylcarboxylate", "NSC 19879"], "SMILES": "C(OC)(=O)C1=CC=CS1", "physical_data": {"Molecular Weight": "142.18", "Molecular Formula": "C6H6O2S", "Boiling Point": "82-83 \u00b0C @ Press: 8 Torr"}}