{"cas_no": "5380-87-0", "cn_name": "\u7f29\u6c34\u7518\u6cb9\u7ce0\u919a", "en_name": ["2-[(2-Oxiranylmethoxy)methyl]furan", "Furan, 2-[(2-oxiranylmethoxy)methyl]-", "Furan, 2-[(2,3-epoxypropoxy)methyl]-", "Furan, 2-[(oxiranylmethoxy)methyl]-", "2-[(2-Oxiranylmethoxy)methyl]furan", "Furfuryl glycidyl ether", "2-[(2,3-Epoxypropoxy)methyl]furan", "2-((Furan-2-ylmethyl)oxymethyl)oxirane", "Glycidyl furfuryl ether", "2-(Glycidyloxymethyl)furan", "2-Furylmethyl glycidyl ether", "2-Oxiranylmethoxymethyl-furan"], "SMILES": "C(OCC1=CC=CO1)C2CO2", "physical_data": {"Molecular Weight": "154.16", "Molecular Formula": "C8H10O3", "Boiling Point": "85.5-87 \u00b0C @ Press: 1.5 Torr", "Density": "1.1452 g/cm\u00b3 @ Temp: 20 \u00b0C"}}