{"cas_no": "5381-20-4", "cn_name": "3-\u7532\u919b\u82ef\u5e76\u567b\u5429", "en_name": ["Benzo[b]thiophene-3-carboxaldehyde", "Benzo[b]thiophene-3-carboxaldehyde", "3-Formylbenzo[b]thiophene", "3-Thianaphthenecarboxaldehyde", "3-Benzothiophenecarboxaldehyde", "Benzo[b]thiophene-3-aldehyde", "1-Benzothiophene-3-carboxaldehyde", "NSC 18872", "Thianaphtene-3-carboxaldehyde", "3-Formylbenzothiophene", "1-Benzothiophene-3-carbaldehyde"], "SMILES": "C(=O)C=1C=2C(SC1)=CC=CC2", "physical_data": {"Molecular Weight": "162.21", "Molecular Formula": "C9H6OS", "Boiling Point": "149-150 \u00b0C @ Press: 10 Torr", "Melting Point": "58 \u00b0C"}}