{"cas_no": "5381-24-8", "cn_name": "3-\u7f9f\u7532\u57fa\u82ef\u5e76\u567b\u5429", "en_name": ["Benzo[b]thiophene-3-methanol", "Benzo[b]thiophene-3-methanol", "3-(Hydroxymethyl)benzothiophene", "[Benzo[b]thien-3-yl]methanol", "3-Benzothiophenemethanol", "1-Benzothiophen-3-ylmethanol", "(1-Benzothiophen-3-yl)methanol"], "SMILES": "C(O)C=1C=2C(SC1)=CC=CC2", "physical_data": {"Molecular Weight": "164.22", "Molecular Formula": "C9H8OS", "Boiling Point": "124-125 \u00b0C @ Press: 1.5 Torr"}}