{"cas_no": "5382-18-3", "cn_name": "4-\u6c2f\u54cc\u5576", "en_name": ["4-Chloropiperidine", "Piperidine, 4-chloro-", "4-Chloropiperidine"], "SMILES": "ClC1CCNCC1", "physical_data": {"Molecular Weight": "119.59", "Molecular Formula": "C5H10ClN", "Boiling Point": "60 \u00b0C @ Press: 11 Torr"}}