{"cas_no": "5382-23-0", "cn_name": "1-\u7532\u57fa-4-\u6c2f\u54cc\u5576\u76d0\u9178\u76d0", "en_name": ["Piperidine, 4-chloro-1-methyl-, hydrochloride (1:1)", "Piperidine, 4-chloro-1-methyl-, hydrochloride (1:1)", "Piperidine, 4-chloro-1-methyl-, hydrochloride", "N-Methyl-4-chloropiperidine hydrochloride", "4-Chloro-N-methylpiperidine hydrochloride", "4-Chloro-1-methylpiperidine hydrochloride", "1-Methyl-4-chloropiperidine hydrochloride"], "SMILES": "ClC1CCN(C)CC1.Cl", "physical_data": {"Molecular Weight": "", "Molecular Formula": "C6H12ClN.ClH", "Boiling Point": "47-48 \u00b0C @ Press: 10 Torr", "Melting Point": "163-165 \u00b0C"}}