{"cas_no": "53827-53-5", "cn_name": "6-\u7532\u57fa-2(3H)\u82ef\u5e76\u567b\u5511\u916e", "en_name": ["6-Methyl-2(3H)-benzothiazolone", "2(3H)-Benzothiazolone, 6-methyl-", "6-Methyl-2(3H)-benzothiazolone", "6-Methylbenzothiazolone", "6-Methyl-2-oxobenzothiazoline", "6-Methyl-1,3-benzothiazol-2(3H)-one"], "SMILES": "O=C1NC=2C(S1)=CC(C)=CC2", "physical_data": {"Molecular Weight": "165.21", "Molecular Formula": "C8H7NOS", "Melting Point": "169-170 \u00b0C"}}