{"cas_no": "5382-17-2", "cn_name": "4-\u7f9f\u57fa\u54cc\u5576\u76d0\u9178\u76d0", "en_name": ["4-Hydroxypiperidine hydrochloride", "4-Piperidinol, hydrochloride (1:1)", "4-Piperidinol, hydrochloride", "4-Hydroxypiperidine hydrochloride"], "SMILES": "OC1CCNCC1.Cl", "physical_data": {"Molecular Weight": "", "Molecular Formula": "C5H11NO.ClH", "Melting Point": "147-149 \u00b0C"}}