{"cas_no": "5382-16-1", "cn_name": "4-\u7f9f\u57fa\u54cc\u5576", "en_name": ["4-Hydroxypiperidine", "4-Piperidinol", "4-Hydroxypiperidine", "4-Hydroxyhexahydropyridine", "4-Piperidinol, (\u00b1)-", "NSC 62083"], "SMILES": "OC1CCNCC1", "physical_data": {"Molecular Weight": "101.15", "Molecular Formula": "C5H11NO", "Boiling Point": "211-212 \u00b0C @ Press: 745 Torr", "Melting Point": "86 \u00b0C"}}