{"cas_no": "5384-21-4", "cn_name": "4,4'-\u4e9a\u7532\u57fa\u53cc(2,6-\u4e8c\u7532\u57fa)\u82ef\u915a", "en_name": ["Bis(3,5-dimethyl-4-hydroxyphenyl)methane", "Phenol, 4,4\u2032-methylenebis[2,6-dimethyl-", "2,6-Xylenol, 4,4\u2032-methylenedi-", "4,4\u2032-Methylenebis[2,6-dimethylphenol]", "3,3\u2032,5,5\u2032-Tetramethyl-4,4\u2032-dihydroxydiphenylmethane", "4,4\u2032-Methylenedi-2,6-xylenol", "4,4\u2032-Dihydroxy-3,3\u2032,5,5\u2032-tetramethyldiphenylmethane", "Bis(4-hydroxy-3,5-dimethylphenyl)methane", "4,4\u2032-Methylenebis[2,6-xylenol]", "Bis(3,5-dimethyl-4-hydroxyphenyl)methane", "4,4\u2032-Methylenebis(2,6-dimethylphenol)", "Desoxon M", "TMBPF", "NSC 128403", "3,3\u2032,5,5\u2032-Tetramethyl-4,4\u2032-bisphenol F"], "SMILES": "C(C1=CC(C)=C(O)C(C)=C1)C2=CC(C)=C(O)C(C)=C2", "physical_data": {"Molecular Weight": "256.34", "Molecular Formula": "C17H20O2", "Melting Point": "175 \u00b0C"}}