{"cas_no": "53846-50-7", "cn_name": "8-\u5f02\u620a\u70ef\u57fa\u67da\u76ae\u7d20", "en_name": ["(-)-8-Prenylnaringenin", "4H-1-Benzopyran-4-one, 2,3-dihydro-5,7-dihydroxy-2-(4-hydroxyphenyl)-8-(3-methyl-2-buten-1-yl)-, (2S)-", "4H-1-Benzopyran-4-one, 2,3-dihydro-5,7-dihydroxy-2-(4-hydroxyphenyl)-8-(3-methyl-2-butenyl)-, (S)-", "4H-1-Benzopyran-4-one, 2,3-dihydro-5,7-dihydroxy-2-(4-hydroxyphenyl)-8-(3-methyl-2-butenyl)-, (2S)-", "(2S)-2,3-Dihydro-5,7-dihydroxy-2-(4-hydroxyphenyl)-8-(3-methyl-2-buten-1-yl)-4H-1-benzopyran-4-one", "Flavaprenin", "Sophoraflavanone B", "8-C-Prenylnaringenin", "8-Prenylnaringenin", "(-)-8-Prenylnaringenin", "8-Prenylnarangenin"], "SMILES": "O=C1C=2C(=C(CC=C(C)C)C(O)=CC2O)OC(C1)C3=CC=C(O)C=C3", "physical_data": {"Molecular Weight": "340.37", "Molecular Formula": "C20H20O5", "Melting Point": "20-32 \u00b0C"}}