{"cas_no": "53857-59-3", "cn_name": "2,5-\u4e8c\u6eb4-1-\u7532\u57fa-1H-\u54aa\u5511", "en_name": ["2,5-Dibromo-1-methyl-1H-imidazole", "1H-Imidazole, 2,5-dibromo-1-methyl-", "2,5-Dibromo-1-methyl-1H-imidazole", "2,5-Dibromo-1-methylimidazole"], "SMILES": "CN1C(Br)=CN=C1Br", "physical_data": {"Molecular Weight": "239.90", "Molecular Formula": "C4H4Br2N2", "Melting Point": "82 \u00b0C"}}