{"cas_no": "53874-66-1", "cn_name": "3-\u82ef\u6c27\u57fa\u82c4\u6c2f", "en_name": ["3-Phenoxybenzyl chloride", "Benzene, 1-(chloromethyl)-3-phenoxy-", "1-(Chloromethyl)-3-phenoxybenzene", "m-Phenoxybenzyl chloride", "3-Phenoxybenzyl chloride", "\u03b1-Chloro-m-tolyl phenyl ether", "3-Phenoxy-\u03b1-chlorotoluene", "3-Phenoxyphenylmethyl chloride", "1-Chloromethyl-3-phenoxybenzene"], "SMILES": "O(C1=CC(CCl)=CC=C1)C2=CC=CC=C2", "physical_data": {"Molecular Weight": "218.68", "Molecular Formula": "C13H11ClO", "Boiling Point": "135-137 \u00b0C @ Press: 3 Torr"}}