{"cas_no": "53882-81-8", "cn_name": "3-\u7532\u57fa\u82ef\u7532\u9170\u4e59\u8148", "en_name": ["3-Methyl-\u03b2-oxobenzenepropanenitrile", "Benzenepropanenitrile, 3-methyl-\u03b2-oxo-", "3-Methyl-\u03b2-oxobenzenepropanenitrile", "m-Toluoylacetonitrile", "(3-Methylbenzoyl)acetonitrile", "3-Oxo-3-m-tolylpropionitrile", "3-Oxo-3-(3-methylphenyl)propanenitrile", "3-Oxo-3-m-tolylpropanenitrile", "\u03b1-Cyano-3-methylacetophenone", "3-(3-Methylphenyl)-3-oxopropanenitrile"], "SMILES": "C(CC#N)(=O)C1=CC(C)=CC=C1", "physical_data": {"Molecular Weight": "159.18", "Molecular Formula": "C10H9NO", "Melting Point": "74-75 \u00b0C"}}