{"cas_no": "5388-42-1", "cn_name": "2-\u82ef\u57fa-1-\u6c27\u4ee3\u4e8c\u6c22\u6c2e\u6742\u831a", "en_name": ["2,3-Dihydro-2-phenyl-1H-isoindol-1-one", "1H-Isoindol-1-one, 2,3-dihydro-2-phenyl-", "Phthalimidine, 2-phenyl-", "2,3-Dihydro-2-phenyl-1H-isoindol-1-one", "N-Phenylphthalimidine", "NSC 97577", "2-Phenylisoindolin-1-one", "N-Phenylisoindolin-1-one", "N-Phenylisoindolinone", "2-Phenyl-3H-isoindol-1-one"], "SMILES": "O=C1N(CC=2C1=CC=CC2)C3=CC=CC=C3", "physical_data": {"Molecular Weight": "209.24", "Molecular Formula": "C14H11NO", "Melting Point": "160 \u00b0C"}}