{"cas_no": "53885-35-1", "cn_name": "\u76d0\u9178\u567b\u6c2f\u5339\u5b9a", "en_name": ["Ticlopidine hydrochloride", "Thieno[3,2-c]pyridine, 5-[(2-chlorophenyl)methyl]-4,5,6,7-tetrahydro-, hydrochloride (1:1)", "Thieno[3,2-c]pyridine, 5-[(2-chlorophenyl)methyl]-4,5,6,7-tetrahydro-, hydrochloride", "Ticlopidine hydrochloride", "53-32C", "Panaldine", "Ticlodone", "Ticlosin", "Tiklid", "Anagregal", "Ticlodox", "Caudaline", "4C32", "Panapidin", "Nichistate", "Clid"], "SMILES": "C(N1CC2=C(CC1)SC=C2)C3=C(Cl)C=CC=C3.Cl", "physical_data": {"Molecular Weight": "", "Molecular Formula": "C14H14ClNS.ClH", "Melting Point": "190 \u00b0C", "Density": "1.37 g/cm\u00b3"}}