{"cas_no": "53882-12-5", "cn_name": "\u6d1b\u5ea6\u6c99\u80fa", "en_name": ["Lodoxamide", "Acetic acid, 2,2\u2032-[(2-chloro-5-cyano-1,3-phenylene)diimino]bis[2-oxo-", "2,2\u2032-[(2-Chloro-5-cyano-1,3-phenylene)diimino]bis[2-oxoacetic acid]", "Lodoxamide", "Thilomide", "2,2\u2032-((2-chloro-5-cyano-1,3-phenylene)bis(azanediyl))bis(2-oxoacetic acid)", "2-[2-Chloro-5-cyano-3-(oxaloamino)anilino]-2-oxoacetic acid"], "SMILES": "N(C(C(O)=O)=O)C1=C(Cl)C(NC(C(O)=O)=O)=CC(C#N)=C1", "physical_data": {"Molecular Weight": "311.63", "Molecular Formula": "C11H6ClN3O6", "Melting Point": "212 \u00b0C (decomp)"}}