{"cas_no": "5388-21-6", "cn_name": "2-\u7532\u57fa\u6c28\u57fa\u5627\u5576-5-\u7fa7\u9178", "en_name": ["2-(Methylamino)-5-pyrimidinecarboxylic acid", "5-Pyrimidinecarboxylic acid, 2-(methylamino)-", "2-(Methylamino)-5-pyrimidinecarboxylic acid"], "SMILES": "C(O)(=O)C=1C=NC(NC)=NC1", "physical_data": {"Molecular Weight": "153.14", "Molecular Formula": "C6H7N3O2", "Melting Point": "308-309 \u00b0C"}}