{"cas_no": "5389-87-7", "cn_name": "\u9999\u53f6\u57fa\u6c2f", "en_name": ["Geranyl chloride", "2,6-Octadiene, 1-chloro-3,7-dimethyl-, (2E)-", "2,6-Octadiene, 1-chloro-3,7-dimethyl-, (E)-", "(2E)-1-Chloro-3,7-dimethyl-2,6-octadiene", "Geranyl chloride", "trans-1-Chloro-3,7-dimethyl-2,6-octadiene", "(E)-1-Chloro-3,7-dimethyl-2,6-octadiene", "(E)-8-Chloro-2,6-dimethyl-2,6-octadiene", "NSC 177220", "(2E)-3,7-Dimethylocta-2,6-dien-1-yl chloride"], "SMILES": "C(CCC=C(C)C)(=CCCl)C", "physical_data": {"Molecular Weight": "172.70", "Molecular Formula": "C10H17Cl", "Boiling Point": "103 \u00b0C @ Press: 14 Torr", "Density": "0.9435 g/cm\u00b3 @ Temp: 16 \u00b0C"}}