{"cas_no": "539-32-2", "cn_name": "3-\u4e01\u57fa\u5421\u5576", "en_name": ["3-Butylpyridine", "Pyridine, 3-butyl-", "3-Butylpyridine", "3-n-Butylpyridine", "1-(3-Pyridyl)butane"], "SMILES": "C(CCC)C=1C=CC=NC1", "physical_data": {"Molecular Weight": "135.21", "Molecular Formula": "C9H13N", "Boiling Point": "205-208 \u00b0C", "Density": "0.9797 g/cm\u00b3 @ Temp: 20 \u00b0C"}}