{"cas_no": "539-44-6", "cn_name": "\u5bf9\u7532\u57fa\u82ef\u80bc", "en_name": ["(4-Methylphenyl)hydrazine", "Hydrazine, (4-methylphenyl)-", "Hydrazine, p-tolyl-", "(4-Methylphenyl)hydrazine", "p-Tolylhydrazine", "p-Methylphenylhydrazine", "N-p-Methylphenylhydrazine", "1-(4-Methylphenyl)hydrazine"], "SMILES": "N(N)C1=CC=C(C)C=C1", "physical_data": {"Molecular Weight": "122.17", "Molecular Formula": "C7H10N2", "Melting Point": "61-65 \u00b0C"}}