{"cas_no": "539-03-7", "cn_name": "\u5bf9\u6c2f\u4e59\u9170\u82ef\u80fa", "en_name": ["N-(4-Chlorophenyl)acetamide", "Acetamide, N-(4-chlorophenyl)-", "Acetanilide, 4\u2032-chloro-", "N-(4-Chlorophenyl)acetamide", "p-Chloroacetanilide", "4\u2032-Chloroacetanilide", "N-Acetyl-p-chloroaniline", "N-(p-Chlorophenyl)acetamide", "N-Acetyl-4-chloroaniline", "NSC 40563", "NSC 444", "N-(4-Chlorophenyl)ethaneamide"], "SMILES": "N(C(C)=O)C1=CC=C(Cl)C=C1", "physical_data": {"Molecular Weight": "169.61", "Molecular Formula": "C8H8ClNO", "Boiling Point": "333 \u00b0C", "Melting Point": "178-179 \u00b0C", "Density": "1.385 g/cm\u00b3 @ Temp: 22 \u00b0C"}}