{"cas_no": "539-93-5", "cn_name": "1,3-\u4e8c\u6708\u6842\u9178\u7518\u6cb9\u916f", "en_name": ["1,3-Dilaurin", "Dodecanoic acid, 1,1\u2032-(2-hydroxy-1,3-propanediyl) ester", "Laurin, 1,3-di-", "Dodecanoic acid, 2-hydroxy-1,3-propanediyl ester", "1,3-Dilaurin", "\u03b1,\u03b1\u2032-Dilaurin", "Glycerol 1,3-dilaurate", "1,3-Dilauroylglycerol", "Glycerol 1,3-didodecanoate", "(3-Dodecanoyloxy-2-hydroxypropyl) dodecanoate"], "SMILES": "C(COC(CCCCCCCCCCC)=O)(COC(CCCCCCCCCCC)=O)O", "physical_data": {"Molecular Weight": "456.70", "Molecular Formula": "C27H52O5", "Melting Point": "40 \u00b0C"}}