{"cas_no": "539-82-2", "cn_name": "\u620a\u9178\u4e59\u916f", "en_name": ["Ethyl valerate", "Pentanoic acid, ethyl ester", "Valeric acid, ethyl ester", "Ethyl valerate", "Ethyl n-valerate", "Ethyl pentanoate", "Ethyl n-pentanoate", "NSC 8868"], "SMILES": "C(CCCC)(OCC)=O", "physical_data": {"Molecular Weight": "130.18", "Molecular Formula": "C7H14O2", "Boiling Point": "146.1 \u00b0C", "Melting Point": "-91.2 \u00b0C", "Density": "0.87433 g/cm\u00b3 @ Temp: 20 \u00b0C"}}