{"cas_no": "539-88-8", "cn_name": "\u4e59\u9170\u4e19\u9178\u4e59\u916f", "en_name": ["Ethyl levulinate", "Pentanoic acid, 4-oxo-, ethyl ester", "Levulinic acid, ethyl ester", "Ethyl laevulinate", "Ethyl 4-oxopentanoate", "Ethyl 4-oxovalerate", "Ethyl 3-acetylpropionate", "Ethyl 4-ketovalerate", "Ethyl levulinate", "4-Oxopentanoic acid ethyl ester", "NSC 24876", "NSC 8863"], "SMILES": "C(CCC(C)=O)(OCC)=O", "physical_data": {"Molecular Weight": "144.17", "Molecular Formula": "C7H12O3", "Boiling Point": "205.8 \u00b0C", "Melting Point": "&lt;25 \u00b0C", "Density": "1.0168 g/cm\u00b3 @ Temp: 16.200009765625 \u00b0C"}}