{"cas_no": "539-47-9", "cn_name": "2-\u544b\u5583\u4e19\u70ef\u9178", "en_name": ["Furylacrylic acid", "2-Propenoic acid, 3-(2-furanyl)-", "2-Furanacrylic acid", "3-(2-Furanyl)-2-propenoic acid", "Furacrylic acid", "2-Furalacetic acid", "Furfurylideneacetic acid", "3-(2-Furyl)acrylic acid", "Furanacrylic acid", "Furylacrylic acid", "\u03b2-(2-Furyl)acrylic acid", "FAA", "3-(Furan-2-yl)acrylic acid", "3-(2-Furyl)propenoic acid", "3-(Furan-2-yl)propenoic acid", "NSC 32626", "NSC 4671", "3-(2-Furyl)propenoate"], "SMILES": "C(=CC(O)=O)C1=CC=CO1", "physical_data": {"Molecular Weight": "138.12", "Molecular Formula": "C7H6O3", "Melting Point": "143 \u00b0C"}}