{"cas_no": "539-17-3", "cn_name": "N,N-\u4e8c\u7532\u57fa-4,4-\u5076\u6c2e\u4e8c\u82ef\u80fa", "en_name": ["4-[2-(4-Aminophenyl)diazenyl]-N,N-dimethylbenzenamine", "Benzenamine, 4-[2-(4-aminophenyl)diazenyl]-N,N-dimethyl-", "C.I. Disperse Black 3", "Benzenamine, 4-[(4-aminophenyl)azo]-N,N-dimethyl-", "Aniline, N,N-dimethyl-4,4\u2032-azodi-", "4-[2-(4-Aminophenyl)diazenyl]-N,N-dimethylbenzenamine", "C.I. 11025", "Acetile Diazo Black N", "Acetile Diazo Black R", "p-Aminobenzeneazodimethylaniline", "Diazo Nero Microsetile G", "Interchem Acetate Developed Black", "Meisei Acemyl Diazo Black B", "Meisei Teryl Diazo Black CR", "Microsetile Diazo Black G", "Supracet Diazo Black A", "4-Amino-4\u2032-(dimethylamino)azobenzene", "ADAB", "4\u2032-Amino-N,N-dimethyl-4-aminoazobenzene", "4-(Dimethylamino)-4\u2032-aminoazobenzene", "p\u2032-Amino-p-(dimethylamino)azobenzene", "4\u2032-Amino-4-(dimethylamino)azobenzene"], "SMILES": "N(=NC1=CC=C(N)C=C1)C2=CC=C(N(C)C)C=C2", "physical_data": {"Molecular Weight": "240.30", "Molecular Formula": "C14H16N4", "Melting Point": "190 \u00b0C (decomp)"}}