{"cas_no": "539-90-2", "cn_name": "\u4e01\u9178\u5f02\u4e01\u916f", "en_name": ["Isobutyl butyrate", "Butanoic acid, 2-methylpropyl ester", "Butyric acid, isobutyl ester", "Isobutyl butyrate", "2-Methylpropyl butyrate", "Isobutyl n-butyrate", "Isobutyl butanoate", "2-Methylpropyl butanoate", "NSC 406938"], "SMILES": "C(OCC(C)C)(CCC)=O", "physical_data": {"Molecular Weight": "144.21", "Molecular Formula": "C8H16O2", "Boiling Point": "156.9 \u00b0C"}}