{"cas_no": "539-92-4", "cn_name": "\u78b3\u9178\u4e8c\u5f02\u4e01\u916f", "en_name": ["Diisobutyl carbonate", "Carbonic acid, bis(2-methylpropyl) ester", "Carbonic acid, diisobutyl ester", "Isobutyl carbonate", "Diisobutyl carbonate", "NSC 4009"], "SMILES": "C(OCC(C)C)(OCC(C)C)=O", "physical_data": {"Molecular Weight": "174.24", "Molecular Formula": "C9H18O3", "Boiling Point": "190 \u00b0C", "Density": "0.9130 g/cm\u00b3 @ Temp: 20 \u00b0C"}}