{"cas_no": "539-15-1", "cn_name": "\u5927\u9ea6\u82bd\u78b1", "en_name": ["Hordenine", "Phenol, 4-[2-(dimethylamino)ethyl]-", "Eremursine", "Hordenine", "Phenol, p-[2-(dimethylamino)ethyl]-", "4-[2-(Dimethylamino)ethyl]phenol", "Anhaline", "p-Hydroxy-N,N-dimethylphenethylamine", "Peyocactine", "N,N-Dimethyl-p-hydroxyphenethylamine", "p-[2-(Dimethylamino)ethyl]phenol", "N,N-Dimethyltyramine", "Anhalin", "Ordenina", "Hordenin", "Cactine", "N,N-Dimethyl-4-hydroxy-\u03b2-phenethylamine"], "SMILES": "C(CN(C)C)C1=CC=C(O)C=C1", "physical_data": {"Molecular Weight": "165.23", "Molecular Formula": "C10H15NO", "Boiling Point": "136-137 \u00b0C @ Press: 13 Torr", "Melting Point": "117.5 \u00b0C", "Density": "1.12 g/cm\u00b3"}}