{"cas_no": "539-30-0", "cn_name": "\u82c4\u57fa\u4e59\u919a", "en_name": ["Benzyl ethyl ether", "Benzene, (ethoxymethyl)-", "Ether, benzyl ethyl", "(Ethoxymethyl)benzene", "Benzyl ethyl ether", "Benzyl ethyl oxide", "Ethyl benzyl ether", "NSC 8066"], "SMILES": "C(OCC)C1=CC=CC=C1", "physical_data": {"Molecular Weight": "136.19", "Molecular Formula": "C9H12O", "Boiling Point": "186 \u00b0C", "Density": "0.9433 g/cm\u00b3 @ Temp: 19 \u00b0C"}}