{"cas_no": "539-52-6", "cn_name": "\u7d2b\u82cf\u70ef", "en_name": ["Perillene", "Furan, 3-(4-methyl-3-penten-1-yl)-", "Furan, 3-(4-methyl-3-pentenyl)-", "3-(4-Methyl-3-penten-1-yl)furan", "Perillene", "Perillen", "3-(4-Methyl-3-pentenyl)furan"], "SMILES": "C(CC=C(C)C)C=1C=COC1", "physical_data": {"Molecular Weight": "150.22", "Molecular Formula": "C10H14O", "Boiling Point": "185.5 \u00b0C", "Density": "0.9017 g/cm\u00b3 @ Temp: 20 \u00b0C"}}