{"cas_no": "539-86-6", "cn_name": "\u5927\u849c\u7d20", "en_name": ["Allicin", "2-Propene-1-sulfinothioic acid, S-2-propen-1-yl ester", "2-Propene-1-sulfinic acid, thio-, S-allyl ester", "Allicin", "2-Propene-1-sulfinothioic acid, S-2-propenyl ester", "Diallyl thiosulfinate", "Thio-2-propene-1-sulfinic acid S-allyl ester", "Alliosan", "Allisure Liquid", "Allimed", "Dianyctrsnlgide", "3-[(Prop-2-ene-1-sulfinyl)sulfanyl]prop-1-ene", "3-Prop-2-enylsulfinylsulfanylprop-1-ene"], "SMILES": "S(SCC=C)(CC=C)=O", "physical_data": {"Molecular Weight": "162.27", "Molecular Formula": "C6H10OS2", "Melting Point": "37 \u00b0C (decomp)", "Density": "1.112 g/cm\u00b3 @ Temp: 20 \u00b0C"}}