{"cas_no": "539-64-0", "cn_name": "\u5409\u62c9\u5c14\u7279\u8bd5\u5242", "en_name": ["Glycine, N,N-dimethyl-, hydrazide, hydrochloride (1:1)", "Glycine, N,N-dimethyl-, hydrazide, hydrochloride (1:1)", "Glycine, N,N-dimethyl-, hydrazide, monohydrochloride", "N,N-Dimethylglycine hydrazide hydrochloride", "Girard's D reagent", "Girard's reagent D", "Reagents, Girard's D", "Girard reagent D", "2-(Dimethylamino)acetohydrazide hydrochloride"], "SMILES": "C(CN(C)C)(NN)=O.Cl", "physical_data": {"Molecular Weight": "", "Molecular Formula": "C4H11N3O.ClH", "Melting Point": "181-183 \u00b0C"}}