{"cas_no": "539-80-0", "cn_name": "\u73af\u5e9a\u4e09\u70ef\u916e", "en_name": ["Tropone", "2,4,6-Cycloheptatrien-1-one", "Tropone", "Cycloheptatrienone", "Tropon", "2,4,6-Cycloheptatrienone"], "SMILES": "O=C1C=CC=CC=C1", "physical_data": {"Molecular Weight": "106.12", "Molecular Formula": "C7H6O", "Boiling Point": "104-105.5 \u00b0C @ Press: 10 Torr", "Melting Point": "-7 \u00b0C", "Density": "1.0825 g/cm\u00b3 @ Temp: 25 \u00b0C"}}