{"cas_no": "539-21-9", "cn_name": "\u5b89\u5df4\u8159", "en_name": ["Ambazon", "Hydrazinecarbothioamide, 2-[4-[2-(aminoiminomethyl)hydrazinylidene]-2,5-cyclohexadien-1-ylidene]-", "Guanidine, [(4-oxo-2,5-cyclohexadien-1-ylidene)amino]-, thiosemicarbazone", "Hydrazinecarbothioamide, 2-[4-[(aminoiminomethyl)hydrazono]-2,5-cyclohexadien-1-ylidene]-", "2-[4-[2-(Aminoiminomethyl)hydrazinylidene]-2,5-cyclohexadien-1-ylidene]hydrazinecarbothioamide", "p-Benzoquinone amidinohydrazone thiosemicarbazone", "Benzoquinone guanylhydrazone thiosemicarbazone", "Faringosept", "(4-Oxo-2,5-cyclohexadien-1-ylideneamino)guanidine thiosemicarbazone", "Ambazone", "Iversal", "Primal", "Ambazon", "1,4-Benzoquinone amidinohydrazone thiosemicarbazone", "Anginon", "DC 0572", "Guanothiazon", "Inversal", "Ivertol", "N-Guanidino-N\u2032-thioureido-p-benzoquinonediimide", "[(4-[[(Diaminomethylidene)amino]imino]cyclohexa-2,5-dien-1-ylidene)amino]thiourea", "2-(4-(2-Carbamimidoylhydrazono)cyclohexa-2,5-dien-1-ylidene)hydrazinecarbothioamide"], "SMILES": "N(NC(=N)N)=C1C=CC(=NNC(N)=S)C=C1", "physical_data": {"Molecular Weight": "237.28", "Molecular Formula": "C8H11N7S", "Melting Point": "192-194 \u00b0C (decomp)"}}