{"cas_no": "539-74-2", "cn_name": "3-\u6eb4\u4e19\u9178\u4e59\u916f", "en_name": ["Ethyl 3-bromopropionate", "Propanoic acid, 3-bromo-, ethyl ester", "Propionic acid, 3-bromo-, ethyl ester", "Ethyl 3-bromopropanoate", "Ethyl \u03b2-bromopropionate", "Ethyl 3-bromopropionate", "3-Bromopropionic acid ethyl ester", "2-Ethoxycarbonylethyl bromide", "\u03b2-Bromopropionic acid ethyl ester", "3-Bromopropanoic acid ethyl ester", "NSC 21812"], "SMILES": "C(CCBr)(OCC)=O", "physical_data": {"Molecular Weight": "181.03", "Molecular Formula": "C5H9BrO2", "Boiling Point": "179 \u00b0C", "Melting Point": "184-186 \u00b0C", "Density": "1.4123 g/cm\u00b3 @ Temp: 18 \u00b0C"}}