{"cas_no": "539-48-0", "cn_name": "1,4-\u82ef\u4e8c\u7532\u80fa", "en_name": ["p-Xylylenediamine", "1,4-Benzenedimethanamine", "p-Xylene-\u03b1,\u03b1\u2032-diamine", "p-Xylylenediamine", "4-Aminomethylbenzylamine", "1,4-Xylylenediamine", "p-Bis(aminomethyl)benzene", "1,4-Bis(aminomethyl)benzene", "p-Phenylenedi(methylamine)", "\u03b1,\u03b1\u2032-Diamino-p-xylene", "Euredur 14", "p-Aminomethylbenzylamine", "Shoamine P", "PXDA", "1,4-Phenylenedimethanamine", "p-Xylene diamine", "[4-(Aminomethyl)phenyl]methanamine"], "SMILES": "C(N)C1=CC=C(CN)C=C1", "physical_data": {"Molecular Weight": "136.19", "Molecular Formula": "C8H12N2", "Boiling Point": "111 \u00b0C @ Press: 2 Torr", "Melting Point": "63 \u00b0C"}}