{"cas_no": "53907-46-3", "cn_name": "2-\u5def\u57fa\u4e19\u9178\u7532\u916f", "en_name": ["Propanoic acid, 2-mercapto-, methyl ester", "Propanoic acid, 2-mercapto-, methyl ester", "Propionic acid, 2-mercapto-, methyl ester", "Methyl 2-mercaptopropionate", "2-Mercaptopropanoic acid methyl ester", "2-Mercaptopropionic acid methyl ester", "Methyl 2-mercaptopropanoate", "\u03b1-Mercaptopropionic acid methyl ester"], "SMILES": "C(C(C)S)(OC)=O", "physical_data": {"Molecular Weight": "120.17", "Molecular Formula": "C4H8O2S", "Boiling Point": "44-46 \u00b0C @ Press: 15 Torr"}}