{"cas_no": "53905-13-8", "cn_name": "N-\u963f\u9b4f\u9170\u57fa\u8272\u80fa", "en_name": ["3-(4-Hydroxy-3-methoxyphenyl)-N-[2-(1H-indol-3-yl)ethyl]-2-propenamide", "2-Propenamide, 3-(4-hydroxy-3-methoxyphenyl)-N-[2-(1H-indol-3-yl)ethyl]-", "3-(4-Hydroxy-3-methoxyphenyl)-N-[2-(1H-indol-3-yl)ethyl]-2-propenamide", "N-Ferulyltryptamine"], "SMILES": "C(CNC(C=CC1=CC(OC)=C(O)C=C1)=O)C=2C=3C(NC2)=CC=CC3", "physical_data": {"Molecular Weight": "336.38", "Molecular Formula": "C20H20N2O3", "Melting Point": "163-165 \u00b0C"}}