{"cas_no": "5390-04-5", "cn_name": "4-\u620a\u7094-1-\u9187", "en_name": ["4-Pentyn-1-ol", "4-Pentyn-1-ol", "1-Pentyn-5-ol", "1-Hydroxy-4-pentyne", "5-Hydroxy-1-pentyne", "Pent-4-yne-1-ol", "NSC 5274", "(3-Hydroxypropyl)acetylene", "Pent-4-yn-1-ol", "Pentyne alcohol"], "SMILES": "C(CCO)C#C", "physical_data": {"Molecular Weight": "84.12", "Molecular Formula": "C5H8O", "Boiling Point": "154 \u00b0C", "Density": "0.909 g/cm\u00b3 @ Temp: 19 \u00b0C"}}