{"cas_no": "53902-12-8", "cn_name": "\u66f2\u5c3c\u53f8\u7279", "en_name": ["Tranilast", "Benzoic acid, 2-[[3-(3,4-dimethoxyphenyl)-1-oxo-2-propen-1-yl]amino]-", "Benzoic acid, 2-[[3-(3,4-dimethoxyphenyl)-1-oxo-2-propenyl]amino]-", "2-[[3-(3,4-Dimethoxyphenyl)-1-oxo-2-propen-1-yl]amino]benzoic acid", "N 5\u2032", "N-(3\u2032,4\u2032-Dimethoxycinnamoyl)anthranilic acid", "N-(3,4-Dimethoxycinnamoyl)anthranilic acid", "Tranilast", "Rizaben", "2-(3,4-Dimethoxycinnamoylamino)benzoic acid", "MK 341", "Tranpro", "3,4-DAA", "2-[3-(3,4-Dimethoxyphenyl)prop-2-enoylamino]benzoic acid"], "SMILES": "N(C(C=CC1=CC(OC)=C(OC)C=C1)=O)C2=C(C(O)=O)C=CC=C2", "physical_data": {"Molecular Weight": "327.33", "Molecular Formula": "C18H17NO5", "Melting Point": "212 \u00b0C", "Density": "1.305 g/cm\u00b3"}}