{"cas_no": "5391-88-8", "cn_name": "1-(4-\u6eb4\u82ef\u57fa)-1-\u4e59\u9187", "en_name": ["1-(4-Bromophenyl)ethanol", "Benzenemethanol, 4-bromo-\u03b1-methyl-", "Benzyl alcohol, p-bromo-\u03b1-methyl-", "4-Bromo-\u03b1-methylbenzenemethanol", "p-Bromo-\u03b1-methylbenzyl alcohol", "(4-Bromophenyl)methylcarbinol", "1-(p-Bromophenyl)ethanol", "1-(4-Bromophenyl)ethanol", "4-(1-Hydroxyethyl)bromobenzene", "p-Bromophenyl methyl carbinol", "4-Bromo-\u03b1-methylbenzyl alcohol", "(\u00b1)-1-(4-Bromophenyl)ethanol", "NSC 3223", "(\u00b1)-1-(p-Bromophenyl)ethanol", "1-(4-Bromophenyl)ethan-1-ol"], "SMILES": "C(C)(O)C1=CC=C(Br)C=C1", "physical_data": {"Molecular Weight": "201.06", "Molecular Formula": "C8H9BrO", "Boiling Point": "127-128 \u00b0C @ Press: 11 Torr", "Melting Point": "20-30 \u00b0C", "Density": "1.463 g/cm\u00b3 @ Temp: 20 \u00b0C"}}