{"cas_no": "53911-68-5", "cn_name": "3-(4-\u6c2f\u82ef\u57fa)\u620a\u4e8c\u9178\u9150", "en_name": ["4-(4-Chlorophenyl)dihydro-2H-pyran-2,6(3H)-dione", "2H-Pyran-2,6(3H)-dione, 4-(4-chlorophenyl)dihydro-", "Glutaric anhydride, 3-(p-chlorophenyl)-", "4-(4-Chlorophenyl)dihydro-2H-pyran-2,6(3H)-dione", "3-(p-Chlorophenyl)glutaric anhydride", "3-(4-Chlorophenyl)glutaric anhydride"], "SMILES": "O=C1CC(CC(=O)O1)C2=CC=C(Cl)C=C2", "physical_data": {"Molecular Weight": "224.64", "Molecular Formula": "C11H9ClO3", "Melting Point": "131-133 \u00b0C"}}