{"cas_no": "53915-69-8", "cn_name": "1,2-\u4e19\u4e8c\u70ef\u4e09\u6b63\u4e01\u57fa\u9521", "en_name": ["Tributyl-1,2-propadien-1-ylstannane", "Stannane, tributyl-1,2-propadien-1-yl-", "Stannane, tributyl-1,2-propadienyl-", "Tributyl-1,2-propadien-1-ylstannane", "Allenyltributyltin", "Allenyltributylstannane", "Allenyltri-n-butylstannane", "Tributyl(1,2-propadienyl)stannane", "1-(Tributylstannyl)propa-1,2-diene"], "SMILES": "[Sn](CCCC)(CCCC)(CCCC)C=C=C", "physical_data": {"Molecular Weight": "329.11", "Molecular Formula": "C15H30Sn", "Boiling Point": "90-92 \u00b0C @ Press: 0.1 Torr"}}