{"cas_no": "5391-39-9", "cn_name": "N-\u4e59\u9170\u57fa-2-\u54aa\u5511\u70f7\u916e", "en_name": ["1-Acetyl-2-imidazolidinone", "2-Imidazolidinone, 1-acetyl-", "1-Acetyl-2-imidazolidinone", "N-Acetyl-2-imidazolidinone", "N-Acetylimidazolidinone"], "SMILES": "C(C)(=O)N1C(=O)NCC1", "physical_data": {"Molecular Weight": "128.13", "Molecular Formula": "C5H8N2O2", "Melting Point": "171.5-173 \u00b0C"}}