{"cas_no": "5391-52-6", "cn_name": "\u66ff\u624e\u5c3c\u5b9a\u76f8\u5173\u7269\u8d28C", "en_name": ["1-(2-Thioxo-1-imidazolidinyl)ethanone", "Ethanone, 1-(2-thioxo-1-imidazolidinyl)-", "2-Imidazolidinethione, 1-acetyl-", "1-(2-Thioxo-1-imidazolidinyl)ethanone", "1-Acetylimidazolidinethione", "1-(2-Sulfanylideneimidazolidin-1-yl)ethanone", "1-(2-Sulfanylideneimidazolidin-1-yl)ethan-1-one"], "SMILES": "C(C)(=O)N1C(=S)NCC1", "physical_data": {"Molecular Weight": "144.19", "Molecular Formula": "C5H8N2OS", "Melting Point": "161-163 \u00b0C"}}