{"cas_no": "53910-25-1", "cn_name": "\u8131\u6c27\u52a9\u95f4\u578b\u9709\u7d20", "en_name": ["Pentostatin", "Imidazo[4,5-d][1,3]diazepin-8-ol, 3-(2-deoxy-\u03b2-D-erythro-pentofuranosyl)-3,4,7,8-tetrahydro-, (8R)-", "Imidazo[4,5-d][1,3]diazepin-8-ol, 3-(2-deoxy-\u03b2-D-erythro-pentofuranosyl)-3,4,7,8-tetrahydro-, (R)-", "(8R)-3-(2-Deoxy-\u03b2-D-erythro-pentofuranosyl)-3,4,7,8-tetrahydroimidazo[4,5-d][1,3]diazepin-8-ol", "CL 67310465", "2\u2032-Deoxycoformycin", "NSC 218321", "Co-Vidarabine", "Pentostatin", "Deoxycoformycin", "Cl 825", "Nipent", "Deaminase inhibitor", "2\u2032-DCF", "Vira A deaminase inhibitor", "CI 825", "PD-ADI", "Co-V", "2\u2032-Dexoycoformycin", "NSC 247520", "Coforin", "MeSH ID: D015649"], "SMILES": "OC1C2=C(N(C=N2)C3OC(CO)C(O)C3)NC=NC1", "physical_data": {"Molecular Weight": "268.27", "Molecular Formula": "C11H16N4O4", "Melting Point": "220-225 \u00b0C"}}