{"cas_no": "5392-10-9", "cn_name": "6-\u6eb4\u85dc\u82a6\u919b", "en_name": ["6-Bromoveratraldehyde", "Benzaldehyde, 2-bromo-4,5-dimethoxy-", "Veratraldehyde, 6-bromo-", "2-Bromo-4,5-dimethoxybenzaldehyde", "6-Bromoveratraldehyde", "6-Bromo-3,4-dimethoxybenzaldehyde", "6-Bromoveratral", "3,4-Dimethoxy-6-bromobenzaldehyde", "NSC 3254", "4,5-Dimethoxy-2-bromobenzaldehyde"], "SMILES": "O(C)C1=C(OC)C=C(Br)C(C=O)=C1", "physical_data": {"Molecular Weight": "245.07", "Molecular Formula": "C9H9BrO3", "Melting Point": "147 \u00b0C"}}