{"cas_no": "5392-67-6", "cn_name": "\u5bf9\u785d\u57fa\u82ef\u91cd\u6c2e\u6c28\u57fa\u5076\u6c2e\u82ef", "en_name": ["Cadion", "1-Triazene, 1-(4-nitrophenyl)-3-[4-(2-phenyldiazenyl)phenyl]-", "1-Triazene, 1-(4-nitrophenyl)-3-[4-(phenylazo)phenyl]-", "Triazene, 1-(p-nitrophenyl)-3-[p-(phenylazo)phenyl]-", "1-(4-Nitrophenyl)-3-[4-(2-phenyldiazenyl)phenyl]-1-triazene", "3-(p-Nitrophenyl)-1-[p-(phenylazo)phenyl]triazene", "Cadion", "Cadion A", "1-(p-Nitrophenyl)-3-(p\u2032-azobenzene)triazene", "1-(4-Nitrophenyl)-3-(4-phenylazophenyl)triazene", "NSC 6282", "NSC 66456", "p-Nitrophenyldiazoaminoazobenzene", "1-(4-Nitrophenyl)-3-(4-(phenyldiazenyl)phenyl)triaz-1-ene"], "SMILES": "N(=NNC1=CC=C(N=NC2=CC=CC=C2)C=C1)C3=CC=C(N(=O)=O)C=C3", "physical_data": {"Molecular Weight": "346.34", "Molecular Formula": "C18H14N6O2", "Melting Point": "197 \u00b0C"}}