{"cas_no": "53924-05-3", "cn_name": "7-\u6c2f-1H-\u5432\u54da", "en_name": ["7-Chloroindole", "1H-Indole, 7-chloro-", "Indole, 7-chloro-", "7-Chloro-1H-indole", "7-Chloroindole"], "SMILES": "ClC1=C2C(=CC=C1)C=CN2", "physical_data": {"Molecular Weight": "151.59", "Molecular Formula": "C8H6ClN", "Melting Point": "56-57 \u00b0C"}}