{"cas_no": "53925-27-2", "cn_name": "2-\u7532\u57fa-5-\u785d\u57fa-4,6-\u5627\u5576\u4e8c\u9187", "en_name": ["6-Hydroxy-2-methyl-5-nitro-4(1H)-pyrimidinone", "4(1H)-Pyrimidinone, 6-hydroxy-2-methyl-5-nitro-", "6-Hydroxy-2-methyl-5-nitro-4(1H)-pyrimidinone", "2-Methyl-5-nitro-4,6-pyrimidinediol", "NSC 74447", "4,6-Dihydroxy-2-methyl-5-nitropyrimidine", "2-Methyl-5-nitro-4,6-dihydroxypyrimidine", "2-Methyl-4,6-dihydroxy-5-nitropyrimidine"], "SMILES": "N(=O)(=O)C=1C(=O)NC(C)=NC1O", "physical_data": {"Molecular Weight": "171.11", "Molecular Formula": "C5H5N3O4", "Melting Point": "270-280 \u00b0C (decomp)"}}