{"cas_no": "5392-40-5", "cn_name": "\u67e0\u6aac\u919b", "en_name": ["Citral", "2,6-Octadienal, 3,7-dimethyl-", "3,7-Dimethyl-2,6-octadienal", "Citral", "Lemsyn GB", "3,7-Dimethyl-2,6-octadien-1-al", "Lemarome N", "NSC 6170", "Citral PQ Extra"], "SMILES": "C(CCC=C(C)C)(=CC=O)C", "physical_data": {"Molecular Weight": "152.23", "Molecular Formula": "C10H16O", "Boiling Point": "227 \u00b0C", "Melting Point": "&lt;-10 \u00b0C", "Density": "0.891-0.897 g/cm\u00b3 @ Temp: 15 \u00b0C"}}