{"cas_no": "5392-12-1", "cn_name": "2-\u7532\u6c27\u57fa-1-\u8418\u919b", "en_name": ["2-Methoxy-1-naphthaldehyde", "1-Naphthalenecarboxaldehyde, 2-methoxy-", "1-Naphthaldehyde, 2-methoxy-", "2-Methoxy-1-naphthalenecarboxaldehyde", "2-Methoxy-1-naphthaldehyde", "2-Methoxy-1-naphthylaldehyde", "2-Methoxynaphthalene-1-aldehyde", "NSC 28471", "NSC 3256", "2-Methoxynaphthalene-1-carbaldehyde"], "SMILES": "C(=O)C=1C2=C(C=CC1OC)C=CC=C2", "physical_data": {"Molecular Weight": "186.21", "Molecular Formula": "C12H10O2", "Boiling Point": "205 \u00b0C @ Press: 18 Torr", "Melting Point": "82 \u00b0C"}}