{"cas_no": "5393-81-7", "cn_name": "\u7f9f\u57fa\u7678\u9178", "en_name": ["2-Hydroxydecanoic acid", "Decanoic acid, 2-hydroxy-", "2-Hydroxydecanoic acid", "\u03b1-Hydroxydecanoic acid", "2-Hydroxycapric acid", "(\u00b1)-\u03b1-Hydroxycapric acid", "DL-2-Hydroxycapric acid", "(\u00b1)-2-Hydroxydecanoic acid", "(\u00b1)-\u03b1-Hydroxydecanoic acid", "NSC 4801", "\u03b1-Hydroxycapric acid"], "SMILES": "C(C(C(O)=O)O)CCCCCCC", "physical_data": {"Molecular Weight": "188.26", "Molecular Formula": "C10H20O3", "Boiling Point": "90-91 \u00b0C @ Press: 20 Torr", "Melting Point": "70.5 \u00b0C"}}