{"cas_no": "53939-28-9", "cn_name": "\u987a-11-\u5341\u516d\u70f7\u70ef\u919b", "en_name": ["(Z)-11-Hexadecenal", "11-Hexadecenal, (11Z)-", "11-Hexadecenal, (Z)-", "(11Z)-11-Hexadecenal", "cis-11-Hexadecenal", "(Z)-11-Hexadecenal", "(Z)-11-Hexadecenyl aldehyde", "cis-11-Hexadecen-1-al", "(Z)-11-Hexadecen-1-al", "11(Z)-Hexadecenal"], "SMILES": "C(CCC=CCCCC)CCCCCCC=O", "physical_data": {"Molecular Weight": "238.41", "Molecular Formula": "C16H30O", "Boiling Point": "130-135 \u00b0C @ Press: 0.2 Torr"}}