{"cas_no": "53934-76-2", "cn_name": "(2-\u6c27\u4ee3-\u5421\u54af\u70f7-1-\u57fa)-\u4e59\u9178", "en_name": ["2-Oxo-1-pyrrolidineacetic acid", "1-Pyrrolidineacetic acid, 2-oxo-", "2-Oxo-1-pyrrolidineacetic acid", "2-Pyrrolidinoneacetic acid", "(2-Oxopyrrolidin-1-yl)acetic acid", "2-Pyrrolidinon-1-ylacetic acid"], "SMILES": "C(C(O)=O)N1C(=O)CCC1", "physical_data": {"Molecular Weight": "143.14", "Molecular Formula": "C6H9NO3", "Melting Point": "143 \u00b0C"}}