{"cas_no": "5393-55-5", "cn_name": "\u4e59\u9170\u5511\u80fa\u6742\u8d28", "en_name": ["N-1,3,4-Thiadiazol-2-ylacetamide", "Acetamide, N-1,3,4-thiadiazol-2-yl-", "1,3,4-Thiadiazole, 2-acetamido-", "N-1,3,4-Thiadiazol-2-ylacetamide", "2-Acetylamino-1,3,4-thiadiazole", "2-Acetamido-1,3,4-thiadiazole", "NSC 4729"], "SMILES": "N(C(C)=O)C1=NN=CS1", "physical_data": {"Molecular Weight": "143.17", "Molecular Formula": "C4H5N3OS", "Melting Point": "267-280 \u00b0C"}}