{"cas_no": "5394-50-3", "cn_name": "\u5229\u5948\u5511\u80fa\u6742\u8d2874", "en_name": ["1,2-Bis(phenylmethyl) 1,2-hydrazinedicarboxylate", "1,2-Hydrazinedicarboxylic acid, 1,2-bis(phenylmethyl) ester", "Bicarbamic acid, dibenzyl ester", "1,2-Hydrazinedicarboxylic acid, bis(phenylmethyl) ester", "1,2-Bis(phenylmethyl) 1,2-hydrazinedicarboxylate", "Dibenzyl hydrazodicarboxylate", "N,N\u2032-Bis(benzyloxycarbonyl)hydrazine", "Dibenzyl 1,2-hydrazinedicarboxylate", "NSC 3457", "N\u2032-(Benzyloxycarbonyl)hydrazinecarboxylic acid benzyl ester"], "SMILES": "C(OC(NNC(OCC1=CC=CC=C1)=O)=O)C2=CC=CC=C2", "physical_data": {"Molecular Weight": "300.31", "Molecular Formula": "C16H16N2O4", "Melting Point": "104-105.5 \u00b0C"}}