{"cas_no": "53947-92-5", "cn_name": "\u8865\u9aa8\u8102\u5f02\u9ec4\u916e", "en_name": ["3-(2,2-Dimethyl-2H-1-benzopyran-6-yl)-7-hydroxy-4H-1-benzopyran-4-one", "4H-1-Benzopyran-4-one, 3-(2,2-dimethyl-2H-1-benzopyran-6-yl)-7-hydroxy-", "3-(2,2-Dimethyl-2H-1-benzopyran-6-yl)-7-hydroxy-4H-1-benzopyran-4-one", "Corylin"], "SMILES": "O=C1C(=COC=2C1=CC=C(O)C2)C=3C=C4C(=CC3)OC(C)(C)C=C4", "physical_data": {"Molecular Weight": "320.34", "Molecular Formula": "C20H16O4", "Melting Point": "238-239 \u00b0C"}}