{"cas_no": "53943-88-7", "cn_name": "\u6765\u6258\u53f8\u5766", "en_name": ["Letosteine", "4-Thiazolidinecarboxylic acid, 2-[2-[(2-ethoxy-2-oxoethyl)thio]ethyl]-", "2-[2-[(2-Ethoxy-2-oxoethyl)thio]ethyl]-4-thiazolidinecarboxylic acid", "Viscotiol", "Letosteine", "Visoctiol"], "SMILES": "C(CSCC(OCC)=O)C1NC(C(O)=O)CS1", "physical_data": {"Molecular Weight": "279.38", "Molecular Formula": "C10H17NO4S2", "Melting Point": "142 \u00b0C"}}