{"cas_no": "5394-63-8", "cn_name": "2,2,6-\u4e09\u7532\u57fa-4H-1,3-\u4e8c\u82f1-4-\u916e", "en_name": ["2,2,6-Trimethyl-4H-1,3-dioxin-4-one", "4H-1,3-Dioxin-4-one, 2,2,6-trimethyl-", "m-Dioxin-4-one, 2,2,6-trimethyl-", "Crotonic acid, 3-(1-hydroxy-1-methylethoxy)-, \u03b4-lactone", "2,2,6-Trimethyl-4H-1,3-dioxin-4-one", "2,2,6-Trimethyl-1,3-dioxin-4-one", "NSC 2391", "2,2,6-Trimethyl-2,4-dihydro-1,3-dioxin-4-one"], "SMILES": "CC1(C)OC(C)=CC(=O)O1", "physical_data": {"Molecular Weight": "142.15", "Molecular Formula": "C7H10O3", "Boiling Point": "65-67 \u00b0C @ Press: 2 Torr", "Melting Point": "12-13 \u00b0C", "Density": "1.0879 g/cm\u00b3 @ Temp: 20 \u00b0C"}}