{"cas_no": "5394-18-3", "cn_name": "N-(4-\u6eb4\u4e01\u57fa)\u90bb\u82ef\u4e8c\u7532\u9170\u4e9a\u80fa", "en_name": ["2-(4-Bromobutyl)-1H-isoindole-1,3(2H)-dione", "1H-Isoindole-1,3(2H)-dione, 2-(4-bromobutyl)-", "Phthalimide, N-(4-bromobutyl)-", "2-(4-Bromobutyl)-1H-isoindole-1,3(2H)-dione", "N-(4-Bromobutyl)phthalimide", "1-Phthalimido-4-bromobutane", "4-Bromobutylphthalimide", "2-(4-Bromobutyl)phthalimide", "2-(4-Bromobutyl)isoindole-1,3-dione", "NSC 575", "2-(4-Bromobutyl)isoindoline-1,3-dione", "2-(4-Bromobutyl)-2,3-dihydro-1H-isoindole-1,3-dione"], "SMILES": "O=C1C=2C(C(=O)N1CCCCBr)=CC=CC2", "physical_data": {"Molecular Weight": "282.13", "Molecular Formula": "C12H12BrNO2", "Melting Point": "80-81 \u00b0C"}}