{"cas_no": "5394-23-0", "cn_name": "4,7-\u4e8c\u6c2f-1,10-\u83f2\u54af\u5549", "en_name": ["4,7-Dichloro-1,10-phenanthroline", "1,10-Phenanthroline, 4,7-dichloro-", "4,7-Dichloro-1,10-phenanthroline", "4,7-Dichloro-o-phenanthroline", "NSC 626"], "SMILES": "ClC=1C=2C(=C3C(=CC2)C(Cl)=CC=N3)N=CC1", "physical_data": {"Molecular Weight": "249.10", "Molecular Formula": "C12H6Cl2N2", "Melting Point": "249-250 \u00b0C"}}