{"cas_no": "53948-09-7", "cn_name": "\u9a6c\u515c\u94c3\u5185\u9170\u80fa BII", "en_name": ["Cepharanone B", "Dibenz[cd,f]indol-4(5H)-one, 1,2-dimethoxy-", "1,2-Dimethoxydibenz[cd,f]indol-4(5H)-one", "Cepharanone B", "Aristololactam B II", "Alkaloid Y, from Schefferomitrasubaequalis", "Aristolactam B II", "2-O-Methylaristolactam AII", "3-Demethoxypiperolactam C", "Aristolactam B11"], "SMILES": "O(C)C=1C2=C3C(=CC1OC)C(=O)NC3=CC=4C2=CC=CC4", "physical_data": {"Molecular Weight": "279.29", "Molecular Formula": "C17H13NO3", "Melting Point": "264-265 \u00b0C"}}