{"cas_no": "5394-36-5", "cn_name": "5-\u7532\u57fa-5-\u4e59\u57fa\u6d77\u56e0", "en_name": ["5-Ethyl-5-methylhydantoin", "2,4-Imidazolidinedione, 5-ethyl-5-methyl-", "Hydantoin, 5-ethyl-5-methyl-", "5-Ethyl-5-methyl-2,4-imidazolidinedione", "Methylethylhydantoin", "5-Ethyl-5-methylhydantoin", "5-Methyl-5-ethylhydantoin", "NSC 1020"], "SMILES": "C(C)C1(C)C(=O)NC(=O)N1", "physical_data": {"Molecular Weight": "142.16", "Molecular Formula": "C6H10N2O2", "Melting Point": "149 \u00b0C"}}