{"cas_no": "5395-04-0", "cn_name": "\u53cc\u4e94\u4e9a\u7532\u57fa\u5c3f\u7d20", "en_name": ["Bis(pentamethylene)urea", "Methanone, di-1-piperidinyl-", "Piperidine, 1,1\u2032-carbonyldi-", "Piperidine, 1,1\u2032-carbonylbis-", "Di-1-piperidinylmethanone", "N,N\u2032-Carbonylbis(piperidine)", "1,1\u2032-Carbonyldipiperidine", "N,N,N\u2032,N\u2032-Bispentamethyleneurea", "N,N,N\u2032,N\u2032-Bis(cyclopentamethylene)urea", "Bis(pentamethylene)urea", "NSC 3145", "Dipiperidin-1-ylmethanone", "Bis(1-piperidyl) ketone", "4,4\u2032-Carbonyldipiperidine"], "SMILES": "C(=O)(N1CCCCC1)N2CCCCC2", "physical_data": {"Molecular Weight": "196.29", "Molecular Formula": "C11H20N2O", "Boiling Point": "102-103 \u00b0C @ Press: 1.5 Torr", "Melting Point": "42 \u00b0C"}}