{"cas_no": "53957-33-8", "cn_name": "2,5-\u4e8c\u7532\u57fa\u82ef\u7532\u9187", "en_name": ["2,5-Dimethylbenzyl alcohol", "Benzenemethanol, 2,5-dimethyl-", "Benzyl alcohol, 2,5-dimethyl-", "2,5-Dimethylbenzenemethanol", "2,5-Dimethylbenzyl alcohol", "(2,5-Dimethylphenyl)methanol"], "SMILES": "C(O)C1=C(C)C=CC(C)=C1", "physical_data": {"Molecular Weight": "136.19", "Molecular Formula": "C9H12O", "Boiling Point": "140-144 \u00b0C @ Press: 37 Torr"}}