{"cas_no": "5395-79-9", "cn_name": "4-\u6c2f-4'-\u7532\u57fa\u4e8c\u82ef\u7532\u916e", "en_name": ["4-Chloro-4\u2032-methylbenzophenone", "Methanone, (4-chlorophenyl)(4-methylphenyl)-", "Benzophenone, 4-chloro-4\u2032-methyl-", "(4-Chlorophenyl)(4-methylphenyl)methanone", "4-Chloro-4\u2032-methylbenzophenone", "4-Chlorophenyl 4-methylphenyl ketone", "NSC 29", "(4-Chlorophenyl)(p-tolyl)methanone"], "SMILES": "C(=O)(C1=CC=C(C)C=C1)C2=CC=C(Cl)C=C2", "physical_data": {"Molecular Weight": "230.69", "Molecular Formula": "C14H11ClO", "Melting Point": "128.5-129 \u00b0C"}}