{"cas_no": "5395-50-6", "cn_name": "\u56db\u7f9f\u7532\u57fa\u7518\u8132", "en_name": ["Tetramethylolacetylenediurea", "Imidazo[4,5-d]imidazole-2,5(1H,3H)-dione, tetrahydro-1,3,4,6-tetrakis(hydroxymethyl)-", "Glycoluril, 1,3,4,6-tetrakis(hydroxymethyl)-", "Tetrahydro-1,3,4,6-tetrakis(hydroxymethyl)imidazo[4,5-d]imidazole-2,5(1H,3H)-dione", "2,5-Dioxo-1,3,4,6-tetrakis(hydroxymethyl)hexahydroimidazo[4,5-d]imidazole", "Fixapret 140", "Tetramethylolacetylenediurea", "Tetramethylolglycoluril", "N,N\u2032,N\u2032\u2032,N\u2032\u2032\u2032-Tetrakis(hydroxymethyl)glycoluril", "Tetrakis(hydroxymethyl)glycoluril", "Tetrakis(hydroxymethyl)acetyleneurea", "Cymel 1172", "NSC 3319", "NSC 67452", "Tetrakis(hydroxymethyl)acetylenediurea", "Protectol TD", "2,4,6,8-Tetrakis(hydroxymethyl)glycoluril", "Tetrahydro-1,3,4,6-tetrakis(hydroxymethyl)imidazo[4,5-d]imidazol-2,5(1H,3H)-dione", "Tetramethylol acetylene carbamide", "1,3,4,6-Tetrakis(hydroxymethyl)glycoluril", "Q 172", "1,3,4,6-Tetrakis(hydroxymethyl)tetrahydroimidazo[4,5-d]imidazole-2,5(1H,3H)-dione", "1,3,4,6-Tetrakis(hydroxymethyl)-3a,6a-dihydroimidazo[4,5-d]imidazole-2,5-dione"], "SMILES": "C(O)N1C2C(N(CO)C(=O)N2CO)N(CO)C1=O", "physical_data": {"Molecular Weight": "262.22", "Molecular Formula": "C8H14N4O6", "Melting Point": "137-138 \u00b0C"}}