{"cas_no": "53967-73-0", "cn_name": "2-\u7532\u6c27\u57fa-6-\u785d\u57fa\u82ef\u7532\u9178", "en_name": ["2-Methoxy-6-nitrobenzoic acid", "Benzoic acid, 2-methoxy-6-nitro-", "o-Anisic acid, 6-nitro-", "2-Methoxy-6-nitrobenzoic acid", "2-Nitro-6-methoxybenzoic acid"], "SMILES": "C(O)(=O)C1=C(N(=O)=O)C=CC=C1OC", "physical_data": {"Molecular Weight": "197.14", "Molecular Formula": "C8H7NO5", "Melting Point": "179-180 \u00b0C"}}