{"cas_no": "5396-24-7", "cn_name": "\u6c2f\u4e59\u9178\u6b63\u4e19\u916f", "en_name": ["Propyl chloroacetate", "Acetic acid, 2-chloro-, propyl ester", "Acetic acid, chloro-, propyl ester", "Propyl chloroacetate", "NSC 1205", "Chloroacetic acid propyl ester"], "SMILES": "C(OCCC)(CCl)=O", "physical_data": {"Molecular Weight": "136.58", "Molecular Formula": "C5H9ClO2", "Boiling Point": "161 \u00b0C"}}