{"cas_no": "5396-61-2", "cn_name": "3-\u4e59\u57fa-1-\u5e9a\u7094-3-\u9187", "en_name": ["3-Ethyl-1-heptyn-3-ol", "1-Heptyn-3-ol, 3-ethyl-", "3-Ethyl-1-heptyn-3-ol", "NSC 4328"], "SMILES": "C(CCCC)(CC)(C#C)O", "physical_data": {"Molecular Weight": "140.22", "Molecular Formula": "C9H16O", "Boiling Point": "87-94 \u00b0C @ Press: 30 Torr"}}