{"cas_no": "5396-38-3", "cn_name": "4-\u53d4\u4e01\u57fa\u8334\u9999\u919a", "en_name": ["4-tert-Butylanisole", "Benzene, 1-(1,1-dimethylethyl)-4-methoxy-", "Anisole, p-tert-butyl-", "1-(1,1-Dimethylethyl)-4-methoxybenzene", "4-tert-Butylanisole", "p-Methoxy-tert-butylbenzene", "p-tert-Butylanisole", "4-tert-Butylphenyl methyl ether", "4-(1,1-Dimethylethyl)anisole", "p-tert-Butylphenyl methyl ether", "1-tert-Butyl-4-methoxybenzene", "Methyl 4-tert-butylphenyl ether", "4-tert-Butylmethoxybenzene", "NSC 1266"], "SMILES": "C(C)(C)(C)C1=CC=C(OC)C=C1", "physical_data": {"Molecular Weight": "164.24", "Molecular Formula": "C11H16O", "Boiling Point": "238 \u00b0C", "Melting Point": "19 \u00b0C", "Density": "0.9435 g/cm\u00b3 @ Temp: 20 \u00b0C"}}