{"cas_no": "53963-10-3", "cn_name": "2-(6-\u6eb4\u5df1\u6c27\u57fa)\u56db\u6c22\u5421\u5583", "en_name": ["2-(6-Bromohexyloxy)tetrahydropyran", "2H-Pyran, 2-[(6-bromohexyl)oxy]tetrahydro-", "2-[(6-Bromohexyl)oxy]tetrahydro-2H-pyran", "2-(6-Bromohexyloxy)tetrahydro-2H-pyran", "6-Bromo-1-hexyl 2-tetrahydropyranyl ether", "2-(6-Bromohexyloxy)tetrahydropyran", "6-Bromo-1-(tetrahydropyranyloxy)hexane", "1-Bromo-6-[(tetrahydropyran-2-yl)oxy]hexane", "6-(Tetrahydropyran-2-yloxy)hexyl bromide", "6-Bromohexyl 2-tetrahydropyranyl ether", "2-(6-Bromhexyloxy)tetrahydro-2H-pyran", "2-(6-Bromohexoxy)oxane"], "SMILES": "O(CCCCCCBr)C1CCCCO1", "physical_data": {"Molecular Weight": "265.19", "Molecular Formula": "C11H21BrO2", "Boiling Point": "130-132 \u00b0C @ Press: 6 Torr", "Melting Point": "90-91 \u00b0C", "Density": "1.2082 g/cm\u00b3 @ Temp: 20 \u00b0C"}}