{"cas_no": "5396-71-4", "cn_name": "3-\u785d\u57fa\u8089\u6842\u9178\u4e59\u916f", "en_name": ["2-Propenoic acid, 3-(3-nitrophenyl)-, ethyl ester", "2-Propenoic acid, 3-(3-nitrophenyl)-, ethyl ester", "Cinnamic acid, m-nitro-, ethyl ester", "Ethyl m-nitrocinnamate", "Ethyl 3-nitrocinnamate", "3-(3-Nitrophenyl)-2-propenoic acid ethyl ester", "NSC 4346", "3-(3-Nitrophenyl)acrylic acid ethyl ester"], "SMILES": "C(=CC(OCC)=O)C1=CC(N(=O)=O)=CC=C1", "physical_data": {"Molecular Weight": "221.21", "Molecular Formula": "C11H11NO4", "Melting Point": "110 \u00b0C"}}