{"cas_no": "5396-89-4", "cn_name": "\u4e59\u9170\u4e19\u916e\u82c4\u916f", "en_name": ["Benzyl acetoacetate", "Butanoic acid, 3-oxo-, phenylmethyl ester", "Acetoacetic acid, benzyl ester", "Benzyl acetoacetate", "Benzyl acetylacetate", "Benzyl 3-oxobutanoate", "Phenylmethyl 3-oxobutanoate", "3-Oxobutanoic acid phenylmethyl ester", "NSC 4391", "3-Oxobutanoic acid benzyl ester", "Benzyl 3-oxobutyrate", "3-Oxobutyric acid benzyl ester"], "SMILES": "C(OC(CC(C)=O)=O)C1=CC=CC=C1", "physical_data": {"Molecular Weight": "192.21", "Molecular Formula": "C11H12O3", "Boiling Point": "97 \u00b0C @ Press: 12 Torr"}}