{"cas_no": "5396-30-5", "cn_name": "9-\u6c2f-5,6,7,8-\u56db\u6c22\u5416\u5576", "en_name": ["9-Chloro-1,2,3,4-tetrahydroacridine", "Acridine, 9-chloro-1,2,3,4-tetrahydro-", "9-Chloro-1,2,3,4-tetrahydroacridine", "NSC 1235"], "SMILES": "ClC1=C2C(=NC=3C1=CC=CC3)CCCC2", "physical_data": {"Molecular Weight": "217.69", "Molecular Formula": "C13H12ClN", "Boiling Point": "220 \u00b0C @ Press: 20 Torr", "Melting Point": "66-68 \u00b0C"}}