{"cas_no": "5397-34-2", "cn_name": "2,4\u2019-\u4e8c\u7f9f\u57fa\u4e8c\u82ef\u781c", "en_name": ["2-[(4-Hydroxyphenyl)sulfonyl]phenol", "Phenol, 2-[(4-hydroxyphenyl)sulfonyl]-", "Phenol, 2,4\u2032-sulfonyldi-", "2-[(4-Hydroxyphenyl)sulfonyl]phenol", "4,2\u2032-Dihydroxydiphenyl sulfone", "2,4\u2032-Sulfonyldiphenol", "2,4\u2032-Dihydroxydiphenyl sulfone", "NSC 2432", "24BS", "2,4\u2032-Bisphenol sulfone", "BPS 24", "BPS 24C", "24 Bisphenol S", "2-(4-Hydroxyphenylsulfonyl)phenol", "2-(4-Hydroxybenzenesulfonyl)phenol"], "SMILES": "S(=O)(=O)(C1=C(O)C=CC=C1)C2=CC=C(O)C=C2", "physical_data": {"Molecular Weight": "250.27", "Molecular Formula": "C12H10O4S", "Melting Point": "184-185 \u00b0C"}}