{"cas_no": "5397-31-9", "cn_name": "3-\u5f02\u8f9b\u6c27\u57fa\u4e19\u80fa", "en_name": ["3-[(2-Ethylhexyl)oxy]-1-propanamine", "1-Propanamine, 3-[(2-ethylhexyl)oxy]-", "Propylamine, 3-[(2-ethylhexyl)oxy]-", "3-[(2-Ethylhexyl)oxy]-1-propanamine", "2-Ethylhexyl 3-aminopropyl ether", "3-(2-Ethylhexoxy)propylamine", "3-(2-Ethylhexyloxy)propylamine", "3-(2-Ethylhexyloxy)-1-propanamine", "3-Aminopropyl 2-ethylhexyl ether", "PA 12EH", "NSC 1078", "Tomamine PA 12EH", "2-Ethylhexyloxypropylamine"], "SMILES": "C(COCCCN)(CCCC)CC", "physical_data": {"Molecular Weight": "187.32", "Molecular Formula": "C11H25NO", "Boiling Point": "74-77 \u00b0C @ Press: 0.5 Torr"}}