{"cas_no": "5397-64-8", "cn_name": "3,6-\u4e8c\u7f9f\u57fa-4-\u6c2f\u54d2\u55ea", "en_name": ["4-Chloro-6-hydroxy-3(2H)-pyridazinone", "3(2H)-Pyridazinone, 4-chloro-6-hydroxy-", "3,6-Pyridazinedione, 4-chloro-1,2-dihydro-", "3(2H)-Pyridazinone, 5-chloro-6-hydroxy-", "4-Chloro-6-hydroxy-3(2H)-pyridazinone", "4-Chloropyridazine-3,6-diol", "Chloromaleic hydrazide", "NSC 114056", "NSC 163128", "NSC 4243", "4-Chloro-1,2-dihydropyridazine-3,6-dione", "3,6-Dihydroxy-4-chloropyridazine"], "SMILES": "ClC=1C(=O)NNC(=O)C1", "physical_data": {"Molecular Weight": "146.53", "Molecular Formula": "C4H3ClN2O2", "Melting Point": "285-288 \u00b0C (decomp)"}}