{"cas_no": "5398-11-8", "cn_name": "3-\u82ef\u57fa\u82ef\u915e", "en_name": ["3-Phenylphthalide", "1(3H)-Isobenzofuranone, 3-phenyl-", "Phthalide, 3-phenyl-", "3-Phenyl-1(3H)-isobenzofuranone", "3-Phenylphthalide", "(\u00b1)-3-Phenylphthalide", "NSC 4572", "3-Phenylisobenzofuran-1-one", "3-Phenyl-3H-2-benzofuran-1-one", "3-Phenyl-1,3-dihydro-2-benzofuran-1-one"], "SMILES": "O=C1OC(C=2C1=CC=CC2)C3=CC=CC=C3", "physical_data": {"Molecular Weight": "210.23", "Molecular Formula": "C14H10O2", "Melting Point": "115 \u00b0C"}}