{"cas_no": "5398-27-6", "cn_name": "2,6-\u4e8c\u7898-4-\u785d\u57fa\u82ef\u80fa", "en_name": ["2,6-Diiodo-4-nitrobenzenamine", "Benzenamine, 2,6-diiodo-4-nitro-", "Aniline, 2,6-diiodo-4-nitro-", "2,6-Diiodo-4-nitrobenzenamine", "2,6-Diiodo-4-nitroaniline", "4-Nitro-2,6-diiodoaniline", "2,6-Diiodo-p-nitroaniline", "NSC 4606", "2,6-Diiodo-4-nitro-phenylamine"], "SMILES": "N(=O)(=O)C1=CC(I)=C(N)C(I)=C1", "physical_data": {"Molecular Weight": "389.92", "Molecular Formula": "C6H4I2N2O2", "Melting Point": "245 \u00b0C"}}