{"cas_no": "5398-29-8", "cn_name": "3-[(\u6c28\u57fa\u4e9a\u6c28\u57fa\u7532\u57fa)\u786b\u57fa]\u4e19\u9178", "en_name": ["3-[(Aminoiminomethyl)thio]propanoic acid", "Propanoic acid, 3-[(aminoiminomethyl)thio]-", "Propionic acid, 3-(amidinothio)-", "3-[(Aminoiminomethyl)thio]propanoic acid", "\u03b2-Isothiureidopropionic acid", "3-(Amidinothio)propionic acid", "NSC 4453", "ATPN"], "SMILES": "C(CC(O)=O)SC(=N)N", "physical_data": {"Molecular Weight": "148.18", "Molecular Formula": "C4H8N2O2S", "Melting Point": "183-184 \u00b0C"}}