{"cas_no": "5398-08-3", "cn_name": "\u5f02\u620a\u57fa\u4e19\u4e8c\u9178\u4e8c\u4e59\u916f", "en_name": ["Propanedioic acid, 2-(3-methylbutyl)-, 1,3-diethyl ester", "Propanedioic acid, 2-(3-methylbutyl)-, 1,3-diethyl ester", "Malonic acid, isopentyl-, diethyl ester", "Propanedioic acid, (3-methylbutyl)-, diethyl ester", "Diethyl isoamylmalonate", "Diethyl 3-methylbutylmalonate", "Diethyl isopentylmalonate", "Diethyl 2-isopentylmalonate", "(3-Methylbutyl)propanedioic acid diethyl ester", "NSC 4569", "1,3-Diethyl 2-(3-methylbutyl)propanedioate"], "SMILES": "C(C(OCC)=O)(C(OCC)=O)CCC(C)C", "physical_data": {"Molecular Weight": "230.30", "Molecular Formula": "C12H22O4", "Boiling Point": "241 \u00b0C"}}