{"cas_no": "5398-79-8", "cn_name": "2,5-\u4e8c\u6c2f\u82ef\u4e59\u9178", "en_name": ["2,5-Dichlorobenzeneacetic acid", "Benzeneacetic acid, 2,5-dichloro-", "Acetic acid, (2,5-dichlorophenyl)-", "2,5-Dichlorobenzeneacetic acid", "2,5-Dichlorophenylacetic acid", "NSC 3045", "2-(2,5-Dichlorophenyl)ethanoic acid", "2-(2,5-Dichlorophenyl)acetic acid"], "SMILES": "C(C(O)=O)C1=C(Cl)C=CC(Cl)=C1", "physical_data": {"Molecular Weight": "205.04", "Molecular Formula": "C8H6Cl2O2", "Melting Point": "106.5-107 \u00b0C"}}