{"cas_no": "53981-24-1", "cn_name": "2-\u6c28\u57fa-5-\u6c1f\u82ef\u915a", "en_name": ["2-Amino-5-fluorophenol", "Phenol, 2-amino-5-fluoro-", "2-Amino-5-fluorophenol", "4-Fluoro-2-hydroxyaniline", "5-Fluoro-2-aminophenol", "(4-Fluoro-2-hydroxyphenyl)amine"], "SMILES": "OC1=C(N)C=CC(F)=C1", "physical_data": {"Molecular Weight": "127.12", "Molecular Formula": "C6H6FNO", "Melting Point": "40.0 \u00b0C"}}