{"cas_no": "5398-36-7", "cn_name": "2-\u6c28\u57fa\u567b\u5511-4-\u7532\u9178\u4e59\u916f", "en_name": ["Ethyl 2-amino-4-thiazolecarboxylate", "4-Thiazolecarboxylic acid, 2-amino-, ethyl ester", "Ethyl 2-amino-4-thiazolecarboxylate", "2-Amino-4-(ethoxycarbonyl)-1,3-thiazole", "2-Amino-4-thiazolecarboxylic acid ethyl ester", "2-Amino-4-ethoxycarbonylthiazole", "2-Aminothiazol-4-carboxylic acid ethyl ester", "NSC 43547", "NSC 4464", "Ethyl 2-amino-1,3-thiazole-4-carboxylate", "2-Amino-1,3-thiazole-4-carboxylic acid ethyl ester", "2-Imino-2,3-dihydro-thiazole-4-carboxylic acid ethyl ester"], "SMILES": "C(OCC)(=O)C1=CSC(N)=N1", "physical_data": {"Molecular Weight": "172.20", "Molecular Formula": "C6H8N2O2S", "Melting Point": "172 \u00b0C"}}