{"cas_no": "5398-44-7", "cn_name": "2,6-\u4e8c\u6c2f\u5f02\u70df\u9178", "en_name": ["2,6-Dichloroisonicotinic acid", "4-Pyridinecarboxylic acid, 2,6-dichloro-", "Isonicotinic acid, 2,6-dichloro-", "2,6-Dichloro-4-pyridinecarboxylic acid", "2,6-Dichloroisonicotinic acid", "NSC 4466", "CGA 41396"], "SMILES": "C(O)(=O)C=1C=C(Cl)N=C(Cl)C1", "physical_data": {"Molecular Weight": "192.00", "Molecular Formula": "C6H3Cl2NO2", "Melting Point": "208-209 \u00b0C"}}