{"cas_no": "5399-68-8", "cn_name": "2,4-\u4e8c\u7f9f\u57fa\u82ef\u7532\u919b\u809f", "en_name": ["Benzaldehyde, 2,4-dihydroxy-, oxime", "Benzaldehyde, 2,4-dihydroxy-, oxime", "\u03b2-Resorcylaldehyde, oxime", "\u03b2-Resorcylaldoxime", "2,4-Dihydroxybenzaldoxime", "2,4-Dihydroxybenzaldehyde oxime", "NSC 4870"], "SMILES": "C(=NO)C1=C(O)C=C(O)C=C1", "physical_data": {"Molecular Weight": "153.14", "Molecular Formula": "C7H7NO3", "Melting Point": "126-128 \u00b0C"}}