{"cas_no": "5399-87-1", "cn_name": "6-\u6c2f\u560c\u5464\u6838\u82f7", "en_name": ["6-Chloropurine riboside", "9H-Purine, 6-chloro-9-\u03b2-D-ribofuranosyl-", "6-Chloro-9-\u03b2-D-ribofuranosyl-9H-purine", "NSC 4910", "6-Chloro-9-\u03b2-D-ribofuranosylpurine", "6-Chloropurine riboside", "6-Chloronebularine", "6-Chloropurinosine", "6-Chloropurine 9-\u03b2-D-ribofuranoside", "6-Chloro-6-deaminoadenosine", "9-(\u03b2-D-Ribofuranosyl)-6-chloropurine", "6-Chloropurine-D-riboside"], "SMILES": "OC1C(N2C=3C(N=C2)=C(Cl)N=CN3)OC(CO)C1O", "physical_data": {"Molecular Weight": "286.67", "Molecular Formula": "C10H11ClN4O4", "Melting Point": "180-182 \u00b0C"}}