{"cas_no": "5399-22-4", "cn_name": "\u6708\u6842\u9178\u9170\u80bc", "en_name": ["Lauric hydrazide", "Dodecanoic acid, hydrazide", "Lauric acid, hydrazide", "Dodecanohydrazide", "Lauroylhydrazine", "Dodecanoic hydrazide", "Lauroyl hydrazide", "NSC 1136", "Lauric hydrazide"], "SMILES": "C(CCC(NN)=O)CCCCCCCC", "physical_data": {"Molecular Weight": "214.35", "Molecular Formula": "C12H26N2O", "Boiling Point": "270-275 \u00b0C", "Melting Point": "104.5 \u00b0C"}}