{"cas_no": "5399-02-0", "cn_name": "\u5341\u4e03\u8148", "en_name": ["Heptadecanenitrile", "Heptadecanenitrile", "Hexadecyl cyanide", "Heptadecanonitrile", "n-Heptadecanonitrile", "NSC 3704"], "SMILES": "C(CCCCCCCC#N)CCCCCCCC", "physical_data": {"Molecular Weight": "251.45", "Molecular Formula": "C17H33N", "Boiling Point": "349 \u00b0C", "Melting Point": "34 \u00b0C"}}