{"cas_no": "5399-92-8", "cn_name": "4-\u6c2f-1H-\u5421\u5511\u5e76[3,4-d]\u5627\u5576", "en_name": ["4-Chloro-1H-pyrazolo[3,4-d]pyrimidine", "1H-Pyrazolo[3,4-d]pyrimidine, 4-chloro-", "4-Chloro-1H-pyrazolo[3,4-d]pyrimidine", "4-Chloropyrazolo[3,4-d]pyrimidine", "NSC 4937"], "SMILES": "ClC1=C2C(=NC=N1)NN=C2", "physical_data": {"Molecular Weight": "154.56", "Molecular Formula": "C5H3ClN4", "Melting Point": "150-155 \u00b0C (decomp)"}}