{"cas_no": "5399-03-1", "cn_name": "2-\u7898-4-\u785d\u57fa\u82ef\u7532\u919a", "en_name": ["2-Iodo-1-methoxy-4-nitrobenzene", "Benzene, 2-iodo-1-methoxy-4-nitro-", "Anisole, 2-iodo-4-nitro-", "2-Iodo-1-methoxy-4-nitrobenzene", "2-Iodo-4-nitroanisole", "1-Iodo-2-methoxy-5-nitrobenzene", "NSC 3739", "3-Iodo-4-methoxy-1-nitrobenzene", "3-Iodo-4-(methoxy)nitrobenzene"], "SMILES": "N(=O)(=O)C1=CC(I)=C(OC)C=C1", "physical_data": {"Molecular Weight": "279.03", "Molecular Formula": "C7H6INO3", "Melting Point": "94 \u00b0C"}}