{"cas_no": "54-05-7", "cn_name": "\u6c2f\u55b9", "en_name": ["Chloroquine", "1,4-Pentanediamine, N4-(7-chloro-4-quinolinyl)-N1,N1-diethyl-", "Quinoline, 7-chloro-4-[[4-(diethylamino)-1-methylbutyl]amino]-", "N4-(7-Chloro-4-quinolinyl)-N1,N1-diethyl-1,4-pentanediamine", "Chloraquine", "7-Chloro-4-[[4-(diethylamino)-1-methylbutyl]amino]quinoline", "Chloroquine", "Artrichin", "Bipiquin", "Reumachlor", "Chlorochin", "Ronaquine", "ST 121", "ST 121 (pharmaceutical)", "(\u00b1)-Chloroquine", "RP 3377", "Capquin", "NSC 187208", "Cloquin", "Nivaquinp", "E-Vivax", "Hcqs", "Premoquine", "Maliago", "Chlorolex", "Rosq", "1,4-Pentanediamine N4-(7-chloro-4-quinolinyl)-N1,N1-diethyl-", "N4-(7-Chloroquinolin-4-yl)-N1,N1-diethylpentane-1,4-diamine", "MeSH ID: D002738"], "SMILES": "N(C(CCCN(CC)CC)C)C=1C2=C(N=CC1)C=C(Cl)C=C2", "physical_data": {"Molecular Weight": "319.87", "Molecular Formula": "C18H26ClN3", "Boiling Point": "212-214 \u00b0C @ Press: 0.2 Torr", "Melting Point": "87-92 \u00b0C"}}