{"cas_no": "54-06-8", "cn_name": "D,L-\u80be\u4e0a\u817a\u7d20\u7ea2", "en_name": ["Adrenochrome", "1H-Indole-5,6-dione, 2,3-dihydro-3-hydroxy-1-methyl-", "5,6-Indolinedione, 3-hydroxy-1-methyl-", "2,3-Dihydro-3-hydroxy-1-methyl-1H-indole-5,6-dione", "Adrenochrome", "2,3-Dihydro-3-hydroxy-N-methylindole-5,6-quinone", "Adraxone", "1-Methyl-3-hydroxy-5,6-dioxo-2,3,5,6-tetrahydroindole", "3-Hydroxy-1-methyl-5,6-indolinedione", "3-Hydroxy-1-methyl-2,3-dihydroindole-5,6-dione", "3-Hydroxy-1-methyl-2,3,5,6-tetrahydro-1H-indole-5,6-dione", "3-Hydroxy-1-methyl-2,3-dihydro-1H-indole-5,6-dione", "MeSH ID: D000323"], "SMILES": "OC1C=2C(N(C)C1)=CC(=O)C(=O)C2", "physical_data": {"Molecular Weight": "179.17", "Molecular Formula": "C9H9NO3", "Melting Point": "125 \u00b0C (decomp)"}}