{"cas_no": "54-11-5", "cn_name": "\u70df\u78b1", "en_name": ["(-)-Nicotine", "Pyridine, 3-[(2S)-1-methyl-2-pyrrolidinyl]-", "Nicotine", "Pyridine, 3-(1-methyl-2-pyrrolidinyl)-, (S)-", "3-[(2S)-1-Methyl-2-pyrrolidinyl]pyridine", "(-)-3-(1-Methyl-2-pyrrolidyl)pyridine", "l-Nicotine", "(-)-Nicotine", "Nicotin", "(S)-(-)-Nicotine", "(-)-\u03b2-Pyridyl-\u03b1-N-methylpyrrolidine", "Flux Maag", "XL All Insecticide", "L-Nicotine", "Nicotinell", "Nicoderm", "Niconil", "(S)-3-(1-Methyl-2-pyrrolidinyl)pyridine", "Nicorette", "(S)-Nicotine", "Nicopatch", "Nicotell TTS", "Habitrol", "Nicabate", "Nicolan", "Tabazur", "NSC 5065", "Nicotrol", "(-)-(S)-Nicotine", "Exodus", "Nikofrenon", "Niquitin", "3-[(2S)-1-Methylpyrrolidin-2-yl]pyridine", "MeSH ID: D009538"], "SMILES": "CN1C(CCC1)C=2C=CC=NC2", "physical_data": {"Molecular Weight": "162.23", "Molecular Formula": "C10H14N2", "Boiling Point": "247 \u00b0C", "Melting Point": "-79 \u00b0C", "Density": "1.0097 g/cm\u00b3 @ Temp: 20 \u00b0C"}}