{"cas_no": "54-16-0", "cn_name": "5-\u7fa7\u57fa\u5432\u54da-3-\u4e59\u9178", "en_name": ["5-Hydroxyindoleacetic acid", "1H-Indole-3-acetic acid, 5-hydroxy-", "Indole-3-acetic acid, 5-hydroxy-", "5-Hydroxy-1H-indole-3-acetic acid", "5-Hydroxyindoleacetic acid", "5-Hydroxyindole-3-acetic acid", "5-HIAA", "5-Hydroxyindol-3-ylacetic acid", "5-Oxyindoleacetic acid", "5-Hydroxy-3-indolylacetate", "5-Hydroxyheteroauxin", "5-Hydroxy-IAA", "NSC 90432", "(5-Hydroxy-1H-indol-3-yl)acetic acid", "2-(5-Hydroxy-1H-indol-3-yl)acetic acid", "MeSH ID: D006897"], "SMILES": "C(C(O)=O)C=1C=2C(NC1)=CC=C(O)C2", "physical_data": {"Molecular Weight": "191.18", "Molecular Formula": "C10H9NO3", "Melting Point": "162 \u00b0C (decomp)"}}