{"cas_no": "54-12-6", "cn_name": "DL-\u8272\u6c28\u9178", "en_name": ["(\u00b1)-Tryptophan", "Tryptophan", "Tryptophan, DL-", "DL-Tryptophan", "DL-\u03b1-Amino-3-indolepropionic acid", "(\u00b1)-Tryptophan", "(RS)-Tryptophan", "1H-Indole-3-alanine", "NSC 13118", "DL-Tryptophan", "2-Amino-3-(1H-indol-3-yl)propanoic acid", "2-Amino-3-(1H-indol-3-yl)-propionic acid"], "SMILES": "C(C(C(O)=O)N)C=1C=2C(NC1)=CC=CC2", "physical_data": {"Molecular Weight": "204.23", "Molecular Formula": "C11H12N2O2", "Melting Point": "230 \u00b0C (decomp)"}}