{"cas_no": "54-20-6", "cn_name": "5-\u4e09\u6c1f\u7532\u57fa\u5c3f\u5627\u5576", "en_name": ["5-(Trifluoromethyl)uracil", "2,4(1H,3H)-Pyrimidinedione, 5-(trifluoromethyl)-", "Uracil, 5-(trifluoromethyl)-", "5-(Trifluoromethyl)-2,4(1H,3H)-pyrimidinedione", "Trifluorothymine", "5-(Trifluoromethyl)uracil", "NSC 73757", "5-Trifluoromethyl-1H-pyrimidine-2,4-dione", "5-(Trifluoromethyl)pyrimidine-2,4-diol"], "SMILES": "C(F)(F)(F)C=1C(=O)NC(=O)NC1", "physical_data": {"Molecular Weight": "180.08", "Molecular Formula": "C5H3F3N2O2", "Melting Point": "239-241 \u00b0C (decomp)"}}