{"cas_no": "54-25-1", "cn_name": "\u6c2e\u6742\u5c3f\u82f7", "en_name": ["6-Azauridine", "1,2,4-Triazine-3,5(2H,4H)-dione, 2-\u03b2-D-ribofuranosyl-", "as-Triazine-3,5(2H,4H)-dione, 2-\u03b2-D-ribofuranosyl-", "2-\u03b2-D-Ribofuranosyl-1,2,4-triazine-3,5(2H,4H)-dione", "6-AzUr", "NSC 32074", "6-Azauracil-\u03b2-D-riboside", "6-Azauridine", "2-\u03b2-D-Ribofuranosyl-as-triazine-3,5(2H,4H)-dione", "6-Azauracil 1-riboside", "Riboazauracil", "6-Azuridine", "Rib-Azauracil", "FSL 0296"], "SMILES": "OC1C(OC(CO)C1O)N2C(=O)NC(=O)C=N2", "physical_data": {"Molecular Weight": "245.19", "Molecular Formula": "C8H11N3O6", "Melting Point": "158 \u00b0C"}}