{"cas_no": "54-21-7", "cn_name": "\u6c34\u6768\u9178\u94a0", "en_name": ["Sodium salicylate", "Benzoic acid, 2-hydroxy-, sodium salt (1:1)", "Sodium salicylate", "Salicylic acid, monosodium salt", "Benzoic acid, 2-hydroxy-, monosodium salt", "Aroall", "Clin", "Enterosalil", "Magsalyl", "Salicylic acid sodium salt", "Sodium salicylate (NaO3C7H5)", "Monosodium salicylate", "Sodium o-hydroxybenzoate", "Entrosalyl", "Salisod", "Glutosalyl", "Salsonin", "Kerasalicyl", "Kerosal", "Nadisal", "Neo-Salicyl", "Sodium 2-hydroxybenzoate", "Camporisin", "o-Hydroxybenzoic acid monosodium salt", "Enterosalicyl", "Alysine", "Idocyl", "Saliject", "NaSal 31821-45", "MeSH ID: D012980"], "SMILES": "C(O)(=O)C1=C(O)C=CC=C1.[Na]", "physical_data": {"Molecular Weight": "", "Molecular Formula": "C7H6O3.Na", "Melting Point": "213 \u00b0C (decomp)"}}