{"cas_no": "54-31-9", "cn_name": "\u544b\u585e\u7c73", "en_name": ["Furosemide", "Benzoic acid, 5-(aminosulfonyl)-4-chloro-2-[(2-furanylmethyl)amino]-", "Anthranilic acid, 4-chloro-N-furfuryl-5-sulfamoyl-", "5-(Aminosulfonyl)-4-chloro-2-[(2-furanylmethyl)amino]benzoic acid", "LB 502", "4-Chloro-N-furfuryl-5-sulfamoylanthranilic acid", "4-Chloro-N-(2-furylmethyl)-5-sulfamoylanthranilic acid", "Furosemid", "Furosemide", "Lasix", "Frusemide", "Furanthryl", "Trofurit", "5-(Aminosulfamyl)-4-chloro-2-[(2-furanylmethyl)amino]benzoic acid", "Aisemide", "Beronald", "Desdemin", "Errolon", "Frusemin", "Fulsix", "Fuluvamide", "Katlex", "Lasilix", "Lowpstron", "Macasirool", "Prefemin", "Nicorol", "Rosemide", "Transit", "Urex", "Furantril", "Seguril", "Salix", "Fusid", "Lasex", "Furanthril", "Furesis", "Radonna", "2-Furfurylamino-4-chloro-5-sulfamoylbenzoic acid", "Aluzine", "Anfuramaide", "Apo-Frusemide", "Apo-Furosemide", "Aquarid", "Naclex", "Aldic", "Arasemide", "Bioretic", "Cetasix", "Dirine", "Disemide", "Diural", "Diuresal", "Diurin", "Diurolasa", "Diusemide", "Diusil", "Dranex", "Dryptal", "Aquamide", "Aquasin", "Eutensin", "Fluidrol", "Franyl", "Frumex", "Furmid", "Frusedan", "Frusema", "Frusetic", "Frusid", "Furanturil", "Furetic", "Furex", "Furix", "Frumide", "Furo-Basan", "Furocot", "Furodiurol", "Furomen", "Furomex", "Furomide M.D.", "Furo-Puren", "Furorese", "Furosan", "Furosix", "Furoter", "Furovite", "Golan", "Hissuflux", "Hydrex", "Hydro", "Impugan", "Kofuzon", "Kutrix", "Lasemid", "Lasiletten", "Lasix Retard", "Laxur", "Liside", "Marsemide", "Urenil", "Nadis", "Nelsix", "Nephron", "Odemase", "Odemex", "Oedemex", "Promedes", "Promide", "Radisemide", "Retep", "Salinex", "Salurid", "Selectofur", "Uremide", "Durafurid", "Uresix", "Urex M", "Urian", "Uridon", "Yidoli", "Zafurida", "Hydro-rapid", "Disal", "Diuretic salt", "Mirfat", "Discoid", "Profemin", "Lowpston", "Rusyde", "Furosedon", "NSC 269420", "Desal", "Frusenex", "Furosem", "Teuto", "Furosemide-Darnitsa", "Neosemid", "Pharlab", "Fuluobi", "4-Chloro-2-(furan-2-ylmethylamino)-5-sulfamoylbenzoic acid", "MeSH ID: D005665"], "SMILES": "C(O)(=O)C1=C(NCC2=CC=CO2)C=C(Cl)C(S(N)(=O)=O)=C1", "physical_data": {"Molecular Weight": "330.74", "Molecular Formula": "C12H11ClN2O5S", "Melting Point": "206 \u00b0C"}}