{"cas_no": "54-36-4", "cn_name": "\u7532\u5421\u916e", "en_name": ["Metyrapone", "1-Propanone, 2-methyl-1,2-di-3-pyridinyl-", "1-Propanone, 2-methyl-1,2-di-3-pyridyl-", "2-Methyl-1,2-di-3-pyridinyl-1-propanone", "1,2-Bis(3-pyridyl)-2-methyl-1-propanone", "Mepyrapone", "Methapyrapone", "Methopirapone", "Methopyrapone", "Methopyrinine", "2-Methyl-1,2-bis(3-pyridyl)-1-propanone", "2-Methyl-1,2-di(\u03b2-pyridyl)-1-propanone", "2-Methyl-1,2-di-3-pyridyl-1-propanone", "Metopirone", "Metopyrone", "Metyrapone", "Su 4885", "Metopiron", "Metyrapon", "Methopyrone", "Methbipyranone", "Metroprione", "NSC 25265", "MeSH ID: D008797"], "SMILES": "C(C(C)(C)C=1C=CC=NC1)(=O)C=2C=CC=NC2", "physical_data": {"Molecular Weight": "226.27", "Molecular Formula": "C14H14N2O", "Melting Point": "50-51 \u00b0C"}}