{"cas_no": "54-35-3", "cn_name": "\u666e\u9c81\u5361\u56e0\u9752\u9709\u7d20", "en_name": ["Penicillin G procaine", "4-Thia-1-azabicyclo[3.2.0]heptane-2-carboxylic acid, 3,3-dimethyl-7-oxo-6-[(2-phenylacetyl)amino]- (2S,5R,6R)-, compd. with 2-(diethylamino)ethyl 4-aminobenzoate (1:1)", "4-Thia-1-azabicyclo[3.2.0]heptane-2-carboxylic acid, 3,3-dimethyl-7-oxo-6-(2-phenylacetamido)-, compd. with 2-(diethylamino)ethyl p-aminobenzoate (1:1)", "4-Thia-1-azabicyclo[3.2.0]heptane-2-carboxylic acid, 3,3-dimethyl-7-oxo-6-[(phenylacetyl)amino]-[2S-(2\u03b1,5\u03b1,6\u03b2)]-, compd. with 2-(diethylamino)ethyl 4-aminobenzoate (1:1)", "4-Thia-1-azabicyclo[3.2.0]heptane-2-carboxylic acid, 3,3-dimethyl-7-oxo-6-[(phenylacetyl)amino]- (2S,5R,6R)-, compd. with 2-(diethylamino)ethyl 4-aminobenzoate (1:1)", "Benzoic acid, 4-amino-, 2-(diethylamino)ethyl ester, mono[[2S-(2\u03b1,5\u03b1,6\u03b2)]-3,3-dimethyl-7-oxo-6-[(phenylacetyl)amino]-4-thia-1-azabicyclo[3.2.0]heptane-2-carboxylate]", "Benzoic acid, 4-amino-, 2-(diethylamino)ethyl ester, mono[(2S,5R,6R)-3,3-dimethyl-7-oxo-6-[(phenylacetyl)amino]-4-thia-1-azabicyclo[3.2.0]heptane-2-carboxylate]", "Penicillin G procaine", "Hydracillin", "Jenacillin O", "Benzylpenicillin novocaine salt", "Nopcaine", "Micro-Pen", "Procaine benzylpenicillinate", "Procaine penicillin G", "Penzal N 300", "Hostacillin", "Vitablend", "Vetspen", "Retardillin", "Depocillin", "Duphapen", "Procaine benzylpenicillin", "Procaine benzylpenicillin salt", "Benzylpenicillin procaine salt", "Benzylpenicillin procaine", "Afsillin", "Ampin-penicillin", "Aquacillin", "Aquasuspen", "Aquacilina", "Abbocillin DC", "Cilicaine", "Crysticillin", "Despacilina", "Distaquaine", "Duracillin", "Flo-Cillin Aqueous", "Kabipenin", "Ledercillin", "Millicillin", "Mylipen", "Neoproc", "Novocaine penicillin", "Penaquacaine G", "Pen-Fifty", "Premocillin", "Dorsallin AR", "Procanodia", "Pro-Pen", "Prostabillin", "Sharcillin", "Wycillin", "Ilcocillin P", "Lenticillin", "Mammacillin", "Megapen", "Pen 50", "Pentaquacaine G", "Avloprocil", "Carepen", "Penovet", "Ethacilin", "Geepenil", "Masticillin", "Penicillin procaine", "MeSH ID: D010402"], "SMILES": "C(OCCN(CC)CC)(=O)C1=CC=C(N)C=C1.C(O)(=O)C1N2C(C(NC(CC3=CC=CC=C3)=O)C2=O)SC1(C)C", "physical_data": {"Molecular Weight": "", "Molecular Formula": "C16H18N2O4S.C13H20N2O2", "Melting Point": "129-130 \u00b0C"}}