{"cas_no": "54-30-8", "cn_name": "\u5361\u7c73\u7f57\u82ac", "en_name": ["Camylofin", "Benzeneacetic acid, \u03b1-[[2-(diethylamino)ethyl]amino]-, 3-methylbutyl ester", "Glycine, N-[2-(diethylamino)ethyl]-2-phenyl-, isopentyl ester", "Acamylophenine", "Adopon", "Avacan", "Avocan", "Belosin", "Camylofin", "N-(2-Diethylaminoethyl)-2-phenylglycine isopentyl ester", "Isoamyl N-(\u03b2-diethylaminoethyl)-\u03b1-aminophenylacetate", "Novospasmin", "Sintespasmil", "Camylofine", "Isoamyl \u03b1-[(\u03b2-diethylaminoethyl)amino]phenylacetate", "\u03b1-[(\u03b2-Diethylaminoethyl)amino]phenylacetic acid isoamyl ester", "Avadyl", "Navadyl", "Spasmocan"], "SMILES": "C(NCCN(CC)CC)(C(OCCC(C)C)=O)C1=CC=CC=C1", "physical_data": {"Molecular Weight": "320.47", "Molecular Formula": "C19H32N2O2", "Boiling Point": "176 \u00b0C", "Melting Point": "&lt;25 \u00b0C"}}