{"cas_no": "54-47-7", "cn_name": "\u78f7\u9178\u5421\u54c6\u919b", "en_name": ["Pyridoxal 5\u2032-phosphate", "4-Pyridinecarboxaldehyde, 3-hydroxy-2-methyl-5-[(phosphonooxy)methyl]-", "Pyridoxal, 5-(dihydrogen phosphate)", "Pyridoxal phosphate", "3-Hydroxy-2-methyl-5-[(phosphonooxy)methyl]-4-pyridinecarboxaldehyde", "Codecarboxylase", "2-Methyl-3-hydroxy-4-formyl-5-pyridylmethylphosphoric acid", "Phosphopyridoxal", "Phosphopyridoxal coenzyme", "PLP", "Pyridoxal 5-phosphate", "Pyridoxal 5\u2032-phosphate", "Vitamin B6 phosphate (ester)", "Pyridoxaldehyde phosphate", "Pyridoxal P", "PAL-P", "Pyridoxal monophosphate", "Pyridoxal 5-monophosphoric acid ester", "3-Hydroxy-5-(hydroxymethyl)-2-methylisonicotinaldehyde 5-phosphate", "Pyromijin", "Sechvitan", "Vitazechs", "Pyridoxyl phosphate", "Apolon B6", "Hairoxal", "Hiadelon", "Biosechs", "Hi-Pyridoxin", "Vitahexin P", "Piodel", "Pydoxal", "Hexermin P", "Coenzyme B6", "Vitamin B6 phosphate", "NSC 82388", "[(4-Formyl-5-hydroxy-6-methylpyridin-3-yl)methoxy]phosphonic acid", "(4-Formyl-5-hydroxy-6-methylpyridin-3-yl)methyl dihydrogen phosphate", "MeSH ID: D011732"], "SMILES": "C(OP(=O)(O)O)C=1C(C=O)=C(O)C(C)=NC1", "physical_data": {"Molecular Weight": "247.14", "Molecular Formula": "C8H10NO6P", "Melting Point": "255 \u00b0C"}}