{"cas_no": "54-42-2", "cn_name": "\u7898\u82f7", "en_name": ["5-Iodo-2\u2032-deoxyuridine", "Uridine, 2\u2032-deoxy-5-iodo-", "2\u2032-Deoxy-5-iodouridine", "NSC 39661", "Dendrid", "Emanil", "Herplex", "Idoxuridine", "IDU", "5-Iodouracil deoxyriboside", "Stoxil", "5-Iododeoxyuridine", "Synmiol", "IUDR", "Iododeoxyuridine", "1-(2-Deoxy-\u03b2-D-ribofuranosyl)-5-iodouracil", "IDUR", "Idexur", "Idulea", "Idu Oculos", "Ophthalmadine", "Iduridin", "Kerecid", "Idoxuridin", "Iducher", "Herpesil", "Herpidu", "Joddeoxiuridin", "5-Iodo-2\u2032-desoxyuridine", "5-Iodo-2\u2032-deoxyuridine", "Virudox", "SKF 14287", "Herpe-Gel", "Allergan 211", "Idoxene", "5IUDR", "Stoxip", "(+)-5-Iodo-2\u2032-deoxyuridine", "Iododeozyuridine", "MeSH ID: D007065"], "SMILES": "O=C1N(C2OC(CO)C(O)C2)C=C(I)C(=O)N1", "physical_data": {"Molecular Weight": "354.10", "Molecular Formula": "C9H11IN2O5", "Melting Point": "263 \u00b0C"}}