{"cas_no": "54-60-4", "cn_name": "N-(4-\u6c1f\u82ef\u57fa)\u90bb\u6c28\u57fa\u82ef\u7532\u9178", "en_name": ["2-[(4-Fluorophenyl)amino]benzoic acid", "Benzoic acid, 2-[(4-fluorophenyl)amino]-", "Anthranilic acid, N-(p-fluorophenyl)-", "2-[(4-Fluorophenyl)amino]benzoic acid", "N-(p-Fluorophenyl)anthranilic acid", "N-(4-Fluorophenyl)anthranilic acid", "2-(4-Fluorophenylamino)benzoic acid", "2-(4-Fluoroanilino)benzoic acid"], "SMILES": "N(C1=C(C(O)=O)C=CC=C1)C2=CC=C(F)C=C2", "physical_data": {"Molecular Weight": "231.22", "Molecular Formula": "C13H10FNO2", "Melting Point": "200 \u00b0C"}}