{"cas_no": "54-71-7", "cn_name": "\u76d0\u9178\u6bdb\u679c\u82b8\u9999\u78b1", "en_name": ["Pilocarpine hydrochloride", "2(3H)-Furanone, 3-ethyldihydro-4-[(1-methyl-1H-imidazol-5-yl)methyl]-, hydrochloride (1:1), (3S,4R)-", "Pilocarpine, monohydrochloride", "2(3H)-Furanone, 3-ethyldihydro-4-[(1-methyl-1H-imidazol-5-yl)methyl]-, monohydrochloride, (3S-cis)-", "2(3H)-Furanone, 3-ethyldihydro-4-[(1-methyl-1H-imidazol-5-yl)methyl]-, monohydrochloride, (3S,4R)-", "Pilocarpine hydrochloride", "Pilocarpine muriate", "Pilocar SMP", "Pilocel", "Pilovisc", "Pilocarpine chloride", "Almocarpine", "Pilocarpal", "Pilocarpinium chloride", "(+)-Pilocarpine hydrochloride", "Salagen", "Isopto Carpine", "Adsorbocarpine", "NSC 5746", "Vistacarpin N", "Pilocar", "Sanpilo", "Pilogel", "Vuity"], "SMILES": "C(C1C(CC)C(=O)OC1)C=2N(C)C=NC2.Cl", "physical_data": {"Molecular Weight": "", "Molecular Formula": "C11H16N2O2.ClH", "Melting Point": "204-205 \u00b0C"}}