{"cas_no": "54-85-3", "cn_name": "\u5f02\u70df\u80bc", "en_name": ["Isoniazid", "4-Pyridinecarboxylic acid, hydrazide", "Isonicotinic acid hydrazide", "FSR 3", "5015 R.P.", "Armazide", "Cotinazin", "Ditubin", "Dinacrin", "Ertuban", "Eutizon", "HIA", "Hidrasonil", "Hycozid", "Hydrazid", "Isidrina", "Isobicina", "Isocotin", "Isolyn", "Isonex", "Isoniazid", "Isoniazide", "Isonicid", "Isonico", "Isonicotan", "Isonicotinoylhydrazine", "Isonidrin", "Isonilex", "Isonindon", "Isonizide", "Isotebezid", "Isozide", "Isozyd", "Laniazid", "Mybasan", "Neoteben", "Neumandin", "Nevin", "Niadrin", "Nicetal", "Nicizina", "Niconyl", "Nicotibina", "Nicozide", "Nidaton", "Nikozid", "Niplen", "Nydrazid", "Nyscozid", "Pelazid", "Preparation 6424", "Pycazide", "Pyricidin", "Pyrizidin", "Raumanon", "Retozide", "Rimifon", "Robisellin", "RU-EF-Tb", "Sauterazid", "TB-Vis", "Tebecid", "Teebaconin", "Tekazin", "Tibinide", "Tibizide", "Tisin", "Tisiodrazida", "Tizide", "Tubazid", "Tubazide", "Tubicon", "Tubomel", "Tyvid", "Unicozyde", "Vazadrine", "Vederon", "Zinadon", "Zonazide", "Isonicotinic hydrazide", "Isonicotinoyl hydrazide", "Rimiphone", "Isoniazid SA", "Isocid", "Cedin", "Neoxin", "Rimitsid", "Hyzyd", "Nitadon", "Tubilysin", "Tubeco", "Atcotibine", "NSC 9659", "Nidrazid", "Armazid", "Zidafimia", "Hidranizil", "T.B. Razide", "Eralon", "Nicotisan", "Rimicid", "4-Pyridylcarbonylhydrazide", "Isonicotinohydrazide", "4-Pyridinecarbonylhydrazine", "4-Pyridinecarboxylic hydrazide", "Isozin", "4-(Hydrazinocarbonyl)pyridine", "[(4-Pyridinylcarbonyl)oxy]hydrazine", "Dianicotyl", "GINK", "Pyridine-4-carbohydrazide", "Mayambutol", "Lafepe", "Isonicotinic acid hydrazyde", "Isocaldin", "Isokin", "Solonex", "Ipcazide", "MeSH ID: D007538"], "SMILES": "C(NN)(=O)C=1C=CN=CC1", "physical_data": {"Molecular Weight": "137.14", "Molecular Formula": "C6H7N3O", "Boiling Point": "170-171 \u00b0C", "Melting Point": "171.4 \u00b0C", "Density": "1.420 g/cm\u00b3"}}