{"cas_no": "54-95-5", "cn_name": "\u620a\u56db\u5511", "en_name": ["Pentylenetetrazole", "5H-Tetrazolo[1,5-a]azepine, 6,7,8,9-tetrahydro-", "6,7,8,9-Tetrahydro-5H-tetrazolo[1,5-a]azepine", "Cardiazol", "Cardiazole", "Cenazol", "Cerebro-nicin", "Coranormol", "Corasol", "Corazol", "Corazole", "Cortis", "Delzol W", "Deumacard", "Gewazol", "Leptazol", "Metrazol", "Metrazole", "Pentamethylenetetrazole", "1,5-Pentamethylenetetrazole", "Pentetrazol", "Pentetrazole", "Pentrazol", "Pentrolone", "Pentylenetetrazol", "Pentylenetetrazole", "Phrenazol", "PTZ", "Tetracor", "6,7,8,9-Tetrahydro-5H-tetrazoloazepine", "7,8,9,10-Tetrazabicyclo[5.3.0]-8,10-decadiene", "1,2,3,3a-Tetrazacyclohepta-8a,2-cyclopentadiene", "Ventrazol", "Corazole (analeptic)", "Tetrazole, (1,5-pentanediyl)-", "\u03b1,\u03b2-Cyclopentamethylenetetrazole", "Cenalene M", "Corvasol", "Korazole", "Corsedrol", "Korazol", "Leptazole", "Tetrazol", "Angiazol", "Pentazol", "Cardiol", "Yetrazol", "Corisan", "Pentrozol", "Coranormal", "NSC 5729", "NSC 66489", "Pentavet", "MeSH ID: D010433"], "SMILES": "C=12N(N=NN1)CCCCC2", "physical_data": {"Molecular Weight": "138.17", "Molecular Formula": "C6H10N4", "Boiling Point": "140 \u00b0C @ Press: 6 Torr", "Melting Point": "59.5 \u00b0C"}}