{"cas_no": "54-92-2", "cn_name": "\u5f02\u4e19\u70df\u80bc", "en_name": ["Iproniazid", "4-Pyridinecarboxylic acid, 2-(1-methylethyl)hydrazide", "Isonicotinic acid, 2-isopropylhydrazide", "IPN", "Iprazid", "Iproniazid", "Marsilid", "Iprazide", "Iproniazide", "Isonicotinic acid N\u2032-isopropyl hydrazide", "N\u2032-Isopropylisonicotinoylhydrazide", "Euphozid", "Marsalid", "1-Isonicotinoyl-2-isopropylhydrazine", "MeSH ID: D007490"], "SMILES": "C(NNC(C)C)(=O)C=1C=CN=CC1", "physical_data": {"Molecular Weight": "179.22", "Molecular Formula": "C9H13N3O", "Melting Point": "150 \u00b0C (decomp)"}}