{"cas_no": "54-91-1", "cn_name": "\u54cc\u6cca\u6eb4\u70f7", "en_name": ["Pipobroman", "1-Propanone, 1,1\u2032-(1,4-piperazinediyl)bis[3-bromo-", "Piperazine, 1,4-bis(3-bromopropionyl)-", "Piperazine, 1,4-bis(3-bromo-1-oxopropyl)-", "1,1\u2032-(1,4-Piperazinediyl)bis[3-bromo-1-propanone]", "NSC-25154", "1,4-Bis(3-bromopropionyl)piperazine", "N,N\u2032-Bis(3-bromopropionyl)piperazine", "Pipobroman", "Vercyte", "A 1803", "Amedel", "1,1\u2032-(Piperazine-1,4-diyl)bis(3-bromopropan-1-one)", "1,4-Di(3-bromopropionyl)piperazine", "3-Bromo-1-[4-(3-bromopropanoyl)piperazin-1-yl]propan-1-one", "MeSH ID: D010885"], "SMILES": "C(CCBr)(=O)N1CCN(C(CCBr)=O)CC1", "physical_data": {"Molecular Weight": "356.05", "Molecular Formula": "C10H16Br2N2O2", "Melting Point": "106-107 \u00b0C"}}