{"cas_no": "54-96-6", "cn_name": "3,4-\u4e8c\u6c28\u57fa\u5421\u5576", "en_name": ["3,4-Diaminopyridine", "3,4-Pyridinediamine", "Pyridine, 3,4-diamino-", "3,4-Diaminopyridine", "4,5-Diaminopyridine", "NSC 521760", "Amifampridine", "Pyridine-4,5-diamine", "DAP", "3,4-DAP", "Ruzurgi"], "SMILES": "NC=1C(N)=CN=CC1", "physical_data": {"Molecular Weight": "109.13", "Molecular Formula": "C5H7N3", "Melting Point": "220 \u00b0C"}}