{"cas_no": "540-23-8", "cn_name": "4-\u7532\u57fa\u82ef\u80fa\u76d0\u9178\u76d0", "en_name": ["Benzenamine, 4-methyl-, hydrochloride (1:1)", "Benzenamine, 4-methyl-, hydrochloride (1:1)", "p-Toluidine, hydrochloride", "Benzenamine, 4-methyl-, hydrochloride", "4-Methylaniline hydrochloride", "p-Toluidinium chloride", "4-Aminotoluene hydrochloride", "p-Methylanilinium chloride", "4-Methylanilinium chloride", "p-Methylaniline hydrochloride", "4-Methylphenylammonium chloride", "4-Methylbenzenamine hydrochloride"], "SMILES": "CC1=CC=C(N)C=C1.Cl", "physical_data": {"Molecular Weight": "", "Molecular Formula": "C7H9N.ClH", "Melting Point": "243 \u00b0C", "Density": "1.193 g/cm\u00b3"}}