{"cas_no": "540-42-1", "cn_name": "\u4e19\u9178\u5f02\u4e01\u916f", "en_name": ["Isobutyl propionate", "Propanoic acid, 2-methylpropyl ester", "Propionic acid, isobutyl ester", "Isobutyl propionate", "2-Methylpropyl propionate", "Isobutyl propanoate", "2-Methylpropyl propanoate", "NSC 8450"], "SMILES": "C(OCC(C)C)(CC)=O", "physical_data": {"Molecular Weight": "130.18", "Molecular Formula": "C7H14O2", "Boiling Point": "137 \u00b0C", "Melting Point": "-71.4 \u00b0C"}}