{"cas_no": "540-73-8", "cn_name": "1\uff0c2-\u4e8c\u7532\u57fa\u80bc", "en_name": ["1,2-Dimethylhydrazine", "Hydrazine, 1,2-dimethyl-", "N,N\u2032-Dimethylhydrazine", "sym-Dimethylhydrazine", "Hydrazomethane", "SDMH", "1,2-Dimethylhydrazine", "DMH", "MeSH ID: D019813"], "SMILES": "N(NC)C", "physical_data": {"Molecular Weight": "60.10", "Molecular Formula": "C2H8N2", "Boiling Point": "81 \u00b0C @ Press: 753 Torr", "Melting Point": "-9 \u00b0C", "Density": "0.8274 g/cm\u00b3 @ Temp: 20 \u00b0C"}}