{"cas_no": "540-51-2", "cn_name": "2-\u6eb4\u4e59\u9187", "en_name": ["2-Bromoethanol", "Ethanol, 2-bromo-", "2-Bromoethanol", "Glycol bromohydrin", "Ethylene bromohydrin", "2-Hydroxyethyl bromide", "1-Bromo-2-ethanol", "\u03b2-Bromoethanol", "1-Bromo-2-hydroxyethane", "2-Bromoethyl alcohol", "NSC 2869"], "SMILES": "C(CO)Br", "physical_data": {"Molecular Weight": "124.96", "Molecular Formula": "C2H5BrO", "Boiling Point": "150 \u00b0C", "Density": "1.7902 g/cm\u00b3 @ Temp: 40 \u00b0C"}}