{"cas_no": "540-18-1", "cn_name": "\u4e01\u9178\u620a\u916f", "en_name": ["Amyl butyrate", "Butanoic acid, pentyl ester", "Butyric acid, pentyl ester", "Amyl butyrate", "n-Amyl butyrate", "Pentyl butyrate", "n-Pentyl n-butyrate", "Pentyl butanoate", "1-Pentyl butyrate", "n-Pentyl butyrate", "NSC 7935", "n-Pentyl butanoate"], "SMILES": "C(OCCCCC)(CCC)=O", "physical_data": {"Molecular Weight": "158.24", "Molecular Formula": "C9H18O2", "Boiling Point": "186.4 \u00b0C", "Melting Point": "-73.2 \u00b0C", "Density": "0.8823 g/cm\u00b3 @ Temp: 0 \u00b0C"}}