{"cas_no": "540-38-5", "cn_name": "4-\u7898\u82ef\u915a", "en_name": ["4-Iodophenol", "Phenol, 4-iodo-", "Phenol, p-iodo-", "4-Iodophenol", "p-Iodophenol", "4-Hydroxyiodobenzene", "4-Hydroxyphenyl iodide", "p-Hydroxyiodobenzene", "NSC 91464", "1-Iodo-4-hydroxybenzene"], "SMILES": "IC1=CC=C(O)C=C1", "physical_data": {"Molecular Weight": "220.01", "Molecular Formula": "C6H5IO", "Melting Point": "93.5 \u00b0C"}}