{"cas_no": "540-36-3", "cn_name": "1,4-\u4e8c\u6c1f\u82ef", "en_name": ["1,4-Difluorobenzene", "Benzene, 1,4-difluoro-", "Benzene, p-difluoro-", "1,4-Difluorobenzene", "p-Difluorobenzene", "NSC 10286", "2,5-Difluorobenzene"], "SMILES": "FC1=CC=C(F)C=C1", "physical_data": {"Molecular Weight": "114.09", "Molecular Formula": "C6H4F2", "Boiling Point": "89 \u00b0C", "Melting Point": "-13 \u00b0C", "Density": "1.1725 g/cm\u00b3 @ Temp: 18.5 \u00b0C"}}