{"cas_no": "540-09-0", "cn_name": "12-\u4e8c\u5341\u4e09\u916e", "en_name": ["12-Tricosanone", "12-Tricosanone", "Laurone", "Undecyl ketone", "Diundecyl ketone", "Lauron", "NSC 2200"], "SMILES": "C(CCCCCCCCCCC)(CCCCCCCCCCC)=O", "physical_data": {"Molecular Weight": "338.61", "Molecular Formula": "C23H46O", "Melting Point": "70.2 \u00b0C", "Density": "0.866 g/cm\u00b3 @ Temp: 12 \u00b0C"}}