{"cas_no": "540-08-9", "cn_name": "9-\u5341\u4e03\u916e", "en_name": ["9-Heptadecanone", "9-Heptadecanone", "Dioctyl ketone", "Octyl ketone", "Pelargone", "Di-n-octyl ketone", "9-Oxoheptadecane", "NSC 7336"], "SMILES": "C(CCCCCCCC)(CCCCCCCC)=O", "physical_data": {"Molecular Weight": "254.45", "Molecular Formula": "C17H34O", "Boiling Point": "251.5 \u00b0C", "Melting Point": "53 \u00b0C", "Density": "0.986 g/cm\u00b3 @ Temp: 20 \u00b0C"}}