{"cas_no": "540-10-3", "cn_name": "\u5341\u516d\u9178\u5341\u516d\u916f", "en_name": ["Cetyl palmitate", "Hexadecanoic acid, hexadecyl ester", "Palmitic acid, hexadecyl ester", "Palmitic acid, cetyl ester", "1-Hexadecanol, palmitate", "Cetin", "Cetyl palmitate", "Hexadecyl palmitate", "n-Hexadecyl hexadecanoate", "Palmityl palmitate", "Hexadecyl hexadecanoate", "Standamul 1616", "Starfol Wax CG", "n-Hexadecyl n-hexadecanoate", "Precifac", "Cutina CP", "Stepan 653", "Stepantex 653", "N-SP", "Kessco 653", "Palmitic acid palmityl ester", "Cutina CPA", "Estol 3694", "Nikkol N-SP", "Precifac ATO", "S 653", "Radia 7500", "Nikkol N-SPV", "Cutina CP-PH", "Kollicream CP 15", "Amleps PC", "Monecol PC", "Amreps PC", "Crodamol CP"], "SMILES": "C(OCCCCCCCCCCCCCCCC)(CCCCCCCCCCCCCCC)=O", "physical_data": {"Molecular Weight": "480.85", "Molecular Formula": "C32H64O2", "Boiling Point": "451 \u00b0C @ Press: 760 Torr", "Melting Point": "54 \u00b0C"}}