{"cas_no": "540-54-5", "cn_name": "1-\u6c2f\u4e19\u70f7", "en_name": ["1-Chloropropane", "Propane, 1-chloro-", "1-Chloropropane", "Propyl chloride", "n-Propyl chloride"], "SMILES": "C(CCl)C", "physical_data": {"Molecular Weight": "78.54", "Molecular Formula": "C3H7Cl", "Boiling Point": "46.60 \u00b0C @ Press: 760 Torr", "Melting Point": "-122.8 \u00b0C", "Density": "0.8899 g/cm\u00b3 @ Temp: 20 \u00b0C"}}