{"cas_no": "540-84-1", "cn_name": "\u5f02\u8f9b\u70f7", "en_name": ["2,2,4-Trimethylpentane", "Pentane, 2,2,4-trimethyl-", "2,2,4-Trimethylpentane", "Isobutyltrimethylmethane", "Isooctane", "iso-Octane", "2,4,4-Trimethylpentane", "NSC 39117", "Kyowasol C 800"], "SMILES": "C(C(C)(C)C)C(C)C", "physical_data": {"Molecular Weight": "114.23", "Molecular Formula": "C8H18", "Boiling Point": "99.238 \u00b0C", "Melting Point": "-107.45 \u00b0C", "Density": "0.69194 g/cm\u00b3 @ Temp: 20 \u00b0C"}}