{"cas_no": "540-80-7", "cn_name": "\u4e9a\u785d\u9178\u53d4\u4e01\u916f", "en_name": ["tert-Butyl nitrite", "Nitrous acid, 1,1-dimethylethyl ester", "Nitrous acid, tert-butyl ester", "tert-Butyl nitrite", "\u03b1,\u03b1-Dimethylethyl nitrite", "1,1-Dimethylethyl nitrite"], "SMILES": "O(C(C)(C)C)N=O", "physical_data": {"Molecular Weight": "103.12", "Molecular Formula": "C4H9NO2", "Boiling Point": "63 \u00b0C"}}