{"cas_no": "540-88-5", "cn_name": "\u918b\u9178\u53d4\u4e01\u916f", "en_name": ["tert-Butyl acetate", "Acetic acid, 1,1-dimethylethyl ester", "Acetic acid, tert-butyl ester", "tert-Butyl alcohol, acetate", "tert-Butyl acetate", "Texaco lead appreciator", "1,1-Dimethylethyl acetate", "TBAc", "NSC 59719", "Acetic acid tert-butyl ester", "2-Acetoxy-2-methylpropane", "tert-Butyl ethanoate"], "SMILES": "O(C(C)(C)C)C(C)=O", "physical_data": {"Molecular Weight": "116.16", "Molecular Formula": "C6H12O2", "Boiling Point": "97.8 \u00b0C", "Melting Point": "&lt;25 \u00b0C", "Density": "0.8593 g/cm\u00b3 @ Temp: 25 \u00b0C"}}