{"cas_no": "540-61-4", "cn_name": "\u6c28\u57fa\u4e59\u8148", "en_name": ["Aminoacetonitrile", "Acetonitrile, amino-", "AAN", "Aminoacetonitrile", "Cyanomethylamine", "Glycinonitrile", "Glycinenitrile", "\u03b1-Aminoacetonitrile", "2-Aminoacetonitrile", "1-Cyanomethylamine", "Cyanoaminomethane", "MeSH ID: D000607"], "SMILES": "C(C#N)N", "physical_data": {"Molecular Weight": "56.07", "Molecular Formula": "C2H4N2", "Boiling Point": "65 \u00b0C @ Press: 8 Torr", "Melting Point": "101 \u00b0C"}}