{"cas_no": "540-72-7", "cn_name": "\u786b\u6c30\u9178\u94a0", "en_name": ["Sodium thiocyanate", "Thiocyanic acid, sodium salt (1:1)", "Thiocyanic acid, sodium salt", "Sodium isothiocyanate", "Haimased", "Sodium rhodanide", "Sodium sulfocyanate", "Sodium sulfocyanide", "Sodium thiocyanate", "Sodium thiocyanide", "Sodium rhodanate", "Scyan", "Thiocyanic acid, sodium salt, ion(1-) (1:1)"], "SMILES": "C(#N)S.[Na]", "physical_data": {"Molecular Weight": "", "Molecular Formula": "CHNS.Na", "Melting Point": "300 \u00b0C", "Density": "1.7 g/cm\u00b3"}}