{"cas_no": "540-37-4", "cn_name": "\u5bf9\u7898\u82ef\u80fa", "en_name": ["4-Iodoaniline", "Benzenamine, 4-iodo-", "Aniline, p-iodo-", "4-Iodobenzenamine", "p-Iodoaniline", "4-Iodoaniline", "p-Aminophenyl iodide", "4-Iodophenylamine", "1-Iodo-4-aminobenzene", "p-Aminoiodobenzene", "NSC 9246", "4-Iodobenzeneamine", "1-Amino-4-iodobenzene", "4-Aminoiodobenzene", "Iodo-4-aminobenzene"], "SMILES": "IC1=CC=C(N)C=C1", "physical_data": {"Molecular Weight": "219.02", "Molecular Formula": "C6H6IN", "Melting Point": "67.5 \u00b0C"}}