{"cas_no": "540-69-2", "cn_name": "\u7532\u9178\u94f5", "en_name": ["Ammonium formate", "Formic acid, ammonium salt (1:1)", "Formic acid, ammonium salt", "Ammonium formate"], "SMILES": "C(O)=O.N", "physical_data": {"Molecular Weight": "", "Molecular Formula": "CH2O2.H3N", "Melting Point": "116 \u00b0C", "Density": "1.280 g/cm\u00b3"}}