{"cas_no": "540-59-0", "cn_name": "\u4e8c\u6c2f\u4e59\u70ef", "en_name": ["1,2-Dichloroethylene", "Ethene, 1,2-dichloro-", "Ethylene, 1,2-dichloro-", "1,2-Dichloroethene", "1,2-Dichloroethylene", "Dioform", "Acetylene dichloride", "sym-Dichloroethylene"], "SMILES": "C(=CCl)Cl", "physical_data": {"Molecular Weight": "96.94", "Molecular Formula": "C2H2Cl2", "Boiling Point": "~55 \u00b0C (approx)", "Melting Point": "-50 \u00b0C", "Density": "~1.28 g/cm\u00b3 (approx)"}}