{"cas_no": "540-49-8", "cn_name": "1,2-\u4e8c\u6eb4\u4e59\u70ef", "en_name": ["1,2-Dibromoethene", "Ethene, 1,2-dibromo-", "Ethylene, 1,2-dibromo-", "1,2-Dibromoethene", "1,2-Dibromoethylene", "Acetylene dibromide", "sym-Dibromoethylene", "2-Bromovinyl bromide", "NSC 8744"], "SMILES": "C(=CBr)Br", "physical_data": {"Molecular Weight": "185.85", "Molecular Formula": "C2H2Br2", "Boiling Point": "110 \u00b0C @ Press: 754 Torr", "Melting Point": "-53 \u00b0C", "Density": "2.21 g/cm\u00b3 @ Temp: 17 \u00b0C"}}