{"cas_no": "540-97-6", "cn_name": "\u5341\u4e8c\u7532\u57fa\u73af\u516d\u7845\u6c27\u70f7", "en_name": ["Dodecamethylcyclohexasiloxane", "Cyclohexasiloxane, 2,2,4,4,6,6,8,8,10,10,12,12-dodecamethyl-", "Cyclohexasiloxane, dodecamethyl-", "2,2,4,4,6,6,8,8,10,10,12,12-Dodecamethylcyclohexasiloxane", "Dodecamethylcyclohexasiloxane", "Dodecamethylhexacyclosiloxane", "DC 246", "Dow Corning 246", "Dow Corning 246 Fluid", "DC 246 Fluid", "SH 246", "SH 246 Fluid", "Xiameter PMX 0246", "SF 1258", "Cyclohexadimethylsiloxane", "Hexadecamethylcyclohexasiloxane", "2,2,4,4,6,6,8,8,10,10,12,12-Dodecamethyl-1,3,5,7,9,11-hexaoxa-2,4,6,8,10,12-hexasilacyclododecane", "MYD 6"], "SMILES": "C[Si]1(C)O[Si](C)(C)O[Si](C)(C)O[Si](C)(C)O[Si](C)(C)O[Si](C)(C)O1", "physical_data": {"Molecular Weight": "444.92", "Molecular Formula": "C12H36O6Si6", "Boiling Point": "245 \u00b0C", "Melting Point": "-3 \u00b0C", "Density": "0.9672 g/cm\u00b3 @ Temp: 20 \u00b0C"}}