{"cas_no": "540-63-6", "cn_name": "1,2-\u4e59\u4e8c\u786b\u9187", "en_name": ["1,2-Ethanedithiol", "1,2-Ethanedithiol", "Dithioethylene glycol", "Ethylene dimercaptan", "s-Ethylene dimercaptan", "Ethylene glycol, dithio-", "a-Ethylene dimercaptan", "Dithioglycol", "1,2-Dimercaptoethane", "Ethylenedithiol", "Ethylene dithioglycol", "1,2-Ethylenedithiol", "2-Mercaptoethanethiol", "NSC 60481", "1,2-Dithiolethane", "EDT", "1,2-Dithioethane", "Ethan-1,2-dithiol"], "SMILES": "C(CS)S", "physical_data": {"Molecular Weight": "94.20", "Molecular Formula": "C2H6S2", "Boiling Point": "146 \u00b0C @ Press: 760 Torr", "Melting Point": "-41.2 \u00b0C", "Density": "1.123 g/cm\u00b3 @ Temp: 23.5 \u00b0C"}}