{"cas_no": "540-07-8", "cn_name": "\u5df1\u9178\u620a\u916f", "en_name": ["Pentyl hexanoate", "Hexanoic acid, pentyl ester", "Amyl caproate", "n-Amyl caproate", "Amyl hexanoate", "Pentyl hexanoate", "Amyl capronate", "Pentyl caproate", "n-Pentyl hexanoate", "NSC 46119", "NSC 53794"], "SMILES": "C(OCCCCC)(CCCCC)=O", "physical_data": {"Molecular Weight": "186.29", "Molecular Formula": "C11H22O2", "Boiling Point": "226 \u00b0C", "Melting Point": "-47 \u00b0C", "Density": "0.8801 g/cm\u00b3 @ Temp: 0 \u00b0C"}}