{"cas_no": "540-67-0", "cn_name": "\u7532\u4e59\u919a", "en_name": ["Methoxyethane", "Ethane, methoxy-", "Ether, ethyl methyl", "Ethyl methyl ether", "Methane, ethoxy-", "Methyl ethyl ether", "Methoxyethane", "R-E 263Fb"], "SMILES": "C(OC)C", "physical_data": {"Molecular Weight": "60.10", "Molecular Formula": "C3H8O", "Boiling Point": "7.4 \u00b0C", "Melting Point": "-113 \u00b0C", "Density": "0.7251 g/cm\u00b3 @ Temp: 0 \u00b0C"}}