{"cas_no": "5400-94-2", "cn_name": "\u82c4\u57fa\u4e09\u4e59\u57fa\u7898\u5316\u94f5", "en_name": ["Benzenemethanaminium, N,N,N-triethyl-, iodide (1:1)", "Benzenemethanaminium, N,N,N-triethyl-, iodide (1:1)", "Ammonium, benzyltriethyl-, iodide", "Benzyltriethylammonium iodide", "Benzenemethanaminium, N,N,N-triethyl-, iodide", "Triethyl(benzyl)ammonium iodide"], "SMILES": "[N+](CC1=CC=CC=C1)(CC)(CC)CC.[I-]", "physical_data": {"Molecular Weight": "", "Molecular Formula": "C13H22N.I", "Melting Point": "168.5 \u00b0C"}}