{"cas_no": "54004-38-5", "cn_name": "7-\u7532\u57fa\u5f02\u55b9\u5549", "en_name": ["7-Methylisoquinoline", "Isoquinoline, 7-methyl-", "7-Methylisoquinoline"], "SMILES": "CC1=CC2=C(C=C1)C=CN=C2", "physical_data": {"Molecular Weight": "143.19", "Molecular Formula": "C10H9N", "Melting Point": "67-68 \u00b0C"}}