{"cas_no": "5400-78-2", "cn_name": "1-(3-\u785d\u57fa\u82ef\u57fa)\u4e59\u9187", "en_name": ["\u03b1-Methyl-3-nitrobenzenemethanol", "Benzenemethanol, \u03b1-methyl-3-nitro-", "Benzyl alcohol, \u03b1-methyl-m-nitro-", "\u03b1-Methyl-3-nitrobenzenemethanol", "\u03b1-Methyl-m-nitrobenzyl alcohol", "Methyl(m-nitrophenyl)carbinol", "Methyl(3-nitrophenyl)carbinol", "1-(m-Nitrophenyl)ethanol", "1-(3-Nitrophenyl)ethanol", "NSC 10385", "1-(3-Nitrophenyl)-1-ethanol"], "SMILES": "C(C)(O)C1=CC(N(=O)=O)=CC=C1", "physical_data": {"Molecular Weight": "167.16", "Molecular Formula": "C8H9NO3", "Boiling Point": "154-155 \u00b0C @ Press: 9 Torr", "Melting Point": "62.5 \u00b0C", "Density": "1.2049 g/cm\u00b3 @ Temp: 31 \u00b0C"}}