{"cas_no": "5400-80-6", "cn_name": "2-\u6eb4-1-\u831a\u9187", "en_name": ["2-Bromo-1-indanol", "1H-Inden-1-ol, 2-bromo-2,3-dihydro-", "1-Indanol, 2-bromo-", "2-Bromo-2,3-dihydro-1H-inden-1-ol", "2-Bromo-1-indanol", "NSC 10389"], "SMILES": "OC1C=2C(CC1Br)=CC=CC2", "physical_data": {"Molecular Weight": "213.07", "Molecular Formula": "C9H9BrO", "Melting Point": "128-129 \u00b0C"}}