{"cas_no": "54013-06-8", "cn_name": "5-\u6c28\u57fa\u5421\u55ea-2-\u7fa7\u9178\u4e59\u916f", "en_name": ["2-Pyrazinecarboxylic acid, 5-amino-, ethyl ester", "2-Pyrazinecarboxylic acid, 5-amino-, ethyl ester", "Pyrazinecarboxylic acid, 5-amino-, ethyl ester", "5-Aminopyrazine-2-carboxylic acid ethyl ester", "Ethyl 5-aminopyrazine-2-carboxylate", "2-Amino-5-ethoxycarbonylpyrazine"], "SMILES": "C(OCC)(=O)C=1C=NC(N)=CN1", "physical_data": {"Molecular Weight": "167.17", "Molecular Formula": "C7H9N3O2", "Melting Point": "174-175 \u00b0C"}}