{"cas_no": "54013-55-7", "cn_name": "4,4-\u4e8c\u7532\u57fa\u5511\u70f7-2-\u786b\u916e", "en_name": ["4,4-Dimethyloxazolidine-2-thione", "2-Oxazolidinethione, 4,4-dimethyl-", "2-Oxazoline-2-thiol, 4,4-dimethyl-", "4,4-Dimethyl-2-oxazolidinethione", "NSC 17296", "NSC 68392", "4,4-Dimethyloxazolidine-2-thione"], "SMILES": "CC1(C)NC(=S)OC1", "physical_data": {"Molecular Weight": "131.20", "Molecular Formula": "C5H9NOS", "Melting Point": "123-124.5 \u00b0C"}}