{"cas_no": "5401-62-7", "cn_name": "1,2-\u4e8c\u6eb4\u73af\u5df1\u70f7", "en_name": ["1,2-Dibromocyclohexane", "Cyclohexane, 1,2-dibromo-", "1,2-Dibromocyclohexane", "NSC 1239"], "SMILES": "BrC1C(Br)CCCC1", "physical_data": {"Molecular Weight": "241.95", "Molecular Formula": "C6H10Br2", "Boiling Point": "101-102 \u00b0C @ Press: 13 Torr", "Melting Point": "163.5-164 \u00b0C (decomp)", "Density": "1.7601 g/cm\u00b3 @ Temp: 22.25 \u00b0C"}}