{"cas_no": "54010-75-2", "cn_name": "\u4e09\u6c1f\u7532\u70f7\u78fa\u9178\u950c", "en_name": ["Zinc triflate", "Methanesulfonic acid, 1,1,1-trifluoro-, zinc salt (2:1)", "Methanesulfonic acid, trifluoro-, zinc salt", "Zinc trifluoromethylsulfonate", "Zinc bis(trifluoromethanesulfonate)", "Zinc triflate", "Zinc trifluoromethanesulfonate", "Bis(trifluoromethanesulfonato)zinc", "Trifluoromethanesulfonic acid zinc salt (2:1)", "Zinc(II) triflate", "Trifluoromethanesulfonic acid zinc salt", "Zinc trifluoromethanesulfonate [Zn(CF3SO3)2]", "Zinc ditriflate", "A 218", "Zinc(II) trifluoromethanesulfonate"], "SMILES": "C(S(=O)(=O)O)(F)(F)F.[Zn]", "physical_data": {"Molecular Weight": "", "Molecular Formula": "CHF3O3S.<sup>1</sup>/2Zn", "Melting Point": "&gt;600 \u00b0C (decomp)"}}