{"cas_no": "5401-94-5", "cn_name": "5-\u785d\u57fa\u5432\u5511", "en_name": ["5-Nitroindazole", "1H-Indazole, 5-nitro-", "Indazole, 5-nitro-", "5-Nitro-1H-indazole", "5-Nitroindazole", "NSC 5032", "5-Nitro-1H-benzopyrazole"], "SMILES": "N(=O)(=O)C=1C=C2C(=CC1)NN=C2", "physical_data": {"Molecular Weight": "163.13", "Molecular Formula": "C7H5N3O2", "Melting Point": "208 \u00b0C"}}