{"cas_no": "54016-70-5", "cn_name": "3-\u4e59\u57fa-5-(2-\u7f9f\u4e59\u57fa)-4-\u7532\u57fa\u567b\u5511\u6eb4\u5316\u7269", "en_name": ["3-Ethyl-5-(2-hydroxyethyl)-4-methylthiazolium bromide", "Thiazolium, 3-ethyl-5-(2-hydroxyethyl)-4-methyl-, bromide (1:1)", "Thiazolium, 3-ethyl-5-(2-hydroxyethyl)-4-methyl-, bromide", "3-Ethyl-5-(2-hydroxyethyl)-4-methylthiazolium bromide", "3-Ethyl-5-(2-hydroxyethyl)-4-methyl-1,3-thiazol-3-ium bromide"], "SMILES": "C(CO)C1=C(C)[N+](CC)=CS1.[Br-]", "physical_data": {"Molecular Weight": "", "Molecular Formula": "C8H14NOS.Br", "Melting Point": "85.0-86.5 \u00b0C"}}