{"cas_no": "5402-55-1", "cn_name": "2-\u567b\u5429\u4e59\u9187", "en_name": ["2-Thiopheneethanol", "2-Thiopheneethanol", "2-(2-Thienyl)ethanol", "2-(2-Hydroxyethyl)thiophene", "2-(2-Thienyl)-1-ethanol", "2-(2-Hydroxyethyl)thiofuran", "NSC 5136", "2-(Thiophen-2-yl)ethanol", "2-(Thiophen-2-yl)ethan-1-ol", "2-Thiophenylethanol"], "SMILES": "C(CO)C1=CC=CS1", "physical_data": {"Molecular Weight": "128.19", "Molecular Formula": "C6H8OS", "Boiling Point": "90.5 \u00b0C @ Press: 11 Torr", "Density": "1.0926 g/cm\u00b3 @ Temp: 20 \u00b0C"}}