{"cas_no": "54024-22-5", "cn_name": "\u53bb\u6c27\u5b55\u70ef", "en_name": ["Desogestrel", "18,19-Dinorpregn-4-en-20-yn-17-ol, 13-ethyl-11-methylene-, (17\u03b1)-", "(17\u03b1)-13-Ethyl-11-methylene-18,19-dinorpregn-4-en-20-yn-17-ol", "17-Ethynyl-18-methyl-11-methyleneestr-4-en-17\u03b2-ol", "Org 2969", "13-Ethyl-11-methylene-18,19-dinor-17\u03b1-4-pregnen-20-yn-17-ol", "Desogestrel", "Cerazette", "Dicromil", "Cyclosa", "Marvelon 150/320", "(+)-Desogestrel", "(+)-13\u03b2-Ethyl-17\u03b1-ethynyl-11-methylenegon-4-en-17\u03b2-ol", "MeSH ID: D017135"], "SMILES": "C(C)C12C(C3C(C(=C)C1)C4C(CC3)=CCCC4)CCC2(C#C)O", "physical_data": {"Molecular Weight": "310.47", "Molecular Formula": "C22H30O", "Melting Point": "109-110 \u00b0C"}}