{"cas_no": "5402-73-3", "cn_name": "2\uff0c5-\u4e8c\u6c2f\u82c4\u78fa\u9178\u6c2f", "en_name": ["2,5-Dichlorobenzenesulfonyl chloride", "Benzenesulfonyl chloride, 2,5-dichloro-", "2,5-Dichlorobenzenesulfonyl chloride", "2,5-Dichlorophenylsulfonyl chloride", "NSC 8545", "2,5-Dichlorobenzene-1-sulfonyl chloride"], "SMILES": "S(Cl)(=O)(=O)C1=C(Cl)C=CC(Cl)=C1", "physical_data": {"Molecular Weight": "245.51", "Molecular Formula": "C6H3Cl3O2S", "Melting Point": "39 \u00b0C"}}