{"cas_no": "54029-12-8", "cn_name": "\u963f\u82ef\u8fbe\u5511\u4e9a\u781c", "en_name": ["(\u00b1)-Albendazole sulfoxide", "Carbamic acid, N-[6-(propylsulfinyl)-1H-benzimidazol-2-yl]-, methyl ester", "Carbamic acid, [5-(propylsulfinyl)-1H-benzimidazol-2-yl]-, methyl ester", "Albendazole sulfoxide", "RS 8852", "Albendazole oxide", "Ricobendazole", "Rycobendazole", "(\u00b1)-Albendazole sulfoxide", "Methyl [5-(propylsulfinyl)-1H-benzimidazol-2-yl]carbamate"], "SMILES": "S(CCC)(=O)C=1C=C2C(N=C(NC(OC)=O)N2)=CC1", "physical_data": {"Molecular Weight": "281.33", "Molecular Formula": "C12H15N3O3S", "Melting Point": "218-220 \u00b0C"}}