{"cas_no": "54029-45-7", "cn_name": "2-\u785d\u57fa-4-\u786b\u6c30\u57fa\u82ef\u80fa", "en_name": ["4-Amino-3-nitrophenyl thiocyanate", "Thiocyanic acid, 4-amino-3-nitrophenyl ester", "Aniline, 2-nitro-4-thiocyanato-", "4-Amino-3-nitrophenyl thiocyanate", "1-Amino-2-nitro-4-thiocyanatobenzene", "2-Nitro-4-thiocyanatoaniline", "4-Thiocyano-2-nitroaniline", "2-Nitro-4-thiocyanoaniline", "2-Nitro-4-thiocyanatobenzenamine", "4-Thiocyanato-2-nitroaniline", "[(4-Amino-3-nitrophenyl)sulfanyl]formonitrile", "2-Nitro-4-thiocyanato-phenylamine"], "SMILES": "N(=O)(=O)C1=CC(SC#N)=CC=C1N", "physical_data": {"Molecular Weight": "195.20", "Molecular Formula": "C7H5N3O2S", "Melting Point": "113 \u00b0C"}}