{"cas_no": "54030-32-9", "cn_name": "4-\u7f9f\u57fa-3-\u7f9f\u57fa\u7532\u57fa\u82ef\u7532\u919b", "en_name": ["4-Hydroxy-3-(hydroxymethyl)benzaldehyde", "Benzaldehyde, 4-hydroxy-3-(hydroxymethyl)-", "4-Hydroxy-3-(hydroxymethyl)benzaldehyde", "3-(Hydroxymethyl)-4-hydroxybenzaldehyde"], "SMILES": "C(O)C1=CC(C=O)=CC=C1O", "physical_data": {"Molecular Weight": "152.15", "Molecular Formula": "C8H8O3", "Melting Point": "142-145 \u00b0C"}}