{"cas_no": "54039-38-2", "cn_name": "\u53cc(\u4e94\u7532\u57fa\u73af\u620a\u4e8c\u70ef)\u4e8c\u6c2f\u5316\u9506", "en_name": ["Bis(pentamethylcyclopentadienyl)zirconium dichloride", "Zirconium, dichlorobis[(1,2,3,4,5-\u03b7)-1,2,3,4,5-pentamethyl-2,4-cyclopentadien-1-yl]-", "Dichlorobis[(1,2,3,4,5-\u03b7)-1,2,3,4,5-pentamethyl-2,4-cyclopentadien-1-yl]zirconium", "Bis(pentamethylcyclopentadienyl)zirconium dichloride", "Dichlorobis(\u03b75-pentamethylcyclopentadienyl)zirconium", "Decamethylzirconocene dichloride", "Dichlorobis(pentamethylcyclopentadienyl)zirconium", "Bis(1,2,3,4,5-pentamethylcyclopentadienyl)zirconium dichloride", "Bis(\u03b75-pentamethylcyclopentadienyl)zirconium dichloride"], "SMILES": "[Cl-][Zr+4]12345678([Cl-])(C=9(C)C1(C)=C2(C)[C-]3(C)C49C)[C-]%10(C)C5(C)=C6(C)C7(C)=C8%10C", "physical_data": {"Molecular Weight": "", "Molecular Formula": "C20H30Cl2Zr", "Melting Point": "&gt;300 \u00b0C"}}