{"cas_no": "5404-86-4", "cn_name": "6-\u80bc\u57fa\u560c\u5464", "en_name": ["6-Hydrazinyl-9H-purine", "9H-Purine, 6-hydrazinyl-", "Purine, 6-hydrazino-", "6H-Purin-6-one, 1,7-dihydro-, hydrazone", "6-Hydrazinyl-9H-purine", "6-Hydrazino-1H-purine", "6-Hydrazinopurine", "NSC 7354", "6-Hydrazinyl-7H-purine", "(9H-Purin-6-yl)-hydrazine"], "SMILES": "N(N)=C1C2=C(N=CN2)NC=N1", "physical_data": {"Molecular Weight": "150.14", "Molecular Formula": "C5H6N6", "Melting Point": "230 \u00b0C"}}