{"cas_no": "5405-79-8", "cn_name": "2,2-\u4e8c\u7532\u57fa\u5df1\u916e", "en_name": ["2,2-Dimethyl-3-hexanone", "3-Hexanone, 2,2-dimethyl-", "2,2-Dimethyl-3-hexanone", "tert-Butyl propyl ketone", "NSC 5229"], "SMILES": "C(C(C)(C)C)(CCC)=O", "physical_data": {"Molecular Weight": "128.21", "Molecular Formula": "C8H16O", "Boiling Point": "147 \u00b0C", "Density": "0.825 g/cm\u00b3 @ Temp: 15 \u00b0C"}}