{"cas_no": "5405-41-4", "cn_name": "3-\u7f9f\u57fa\u4e01\u9178\u4e59\u916f", "en_name": ["Ethyl 3-hydroxybutyrate", "Butanoic acid, 3-hydroxy-, ethyl ester", "Butyric acid, 3-hydroxy-, ethyl ester", "Butyric acid, \u03b2-hydroxy-, ethyl ester", "Ethyl 3-hydroxybutyrate", "Ethyl 3-hydroxybutanoate", "Ethyl \u03b2-hydroxybutyrate", "3-Hydroxybutanoic acid ethyl ester", "3-Hydroxybutyric acid ethyl ester", "Ethyl DL-3-hydroxybutyrate", "(\u00b1)-3-Hydroxybutanoic acid ethyl ester", "(\u00b1)-Ethyl 3-hydroxybutyrate", "Ethyl (\u00b1)-3-hydroxybutanoate", "NSC 42916", "NSC 8115", "DL-3-Hydroxy-n-butyrate ethyl ester"], "SMILES": "C(C(OCC)=O)C(C)O", "physical_data": {"Molecular Weight": "132.16", "Molecular Formula": "C6H12O3", "Boiling Point": "185 \u00b0C", "Density": "1.017 g/cm\u00b3 @ Temp: 20 \u00b0C"}}