{"cas_no": "5405-40-3", "cn_name": "S-\u6cdb\u89e3\u9178\u5185\u916f", "en_name": ["(+)-Pantolactone", "2(3H)-Furanone, dihydro-3-hydroxy-4,4-dimethyl-, (3S)-", "2(3H)-Furanone, dihydro-3-hydroxy-4,4-dimethyl-, L-(+)-", "2(3H)-Furanone, dihydro-3-hydroxy-4,4-dimethyl-, (S)-", "(3S)-Dihydro-3-hydroxy-4,4-dimethyl-2(3H)-furanone", "L-(+)-\u03b1-Hydroxy-\u03b2,\u03b2-dimethyl-\u03b3-butyrolactone", "L-Pantoyl lactone", "L-Pantolactone", "L-(+)-Pantoyl lactone", "L-(+)-Pantolactone", "(S)-Pantolactone", "(+)-Pantoyl lactone", "(+)-Pantolactone", "(+)-2-Hydroxy-3,3-dimethyl-\u03b3-butyrolactone", "(S)-(+)-Pantolactone", "(3S)-3-Hydroxy-4,4-dimethyloxolan-2-one"], "SMILES": "OC1C(C)(C)COC1=O", "physical_data": {"Molecular Weight": "130.14", "Molecular Formula": "C6H10O3", "Melting Point": "86.6-90 \u00b0C"}}