{"cas_no": "5405-53-8", "cn_name": "2,7-\u785d\u57fa\u82b4", "en_name": ["2,7-Dinitrofluorene", "9H-Fluorene, 2,7-dinitro-", "Fluorene, 2,7-dinitro-", "2,7-Dinitro-9H-fluorene", "2,7-Dinitrofluorene", "NSC 5180"], "SMILES": "N(=O)(=O)C=1C=C2C(C=3C(C2)=CC(N(=O)=O)=CC3)=CC1", "physical_data": {"Molecular Weight": "256.21", "Molecular Formula": "C13H8N2O4", "Melting Point": "334 \u00b0C"}}