{"cas_no": "54057-95-3", "cn_name": "4-\u6c28\u57fa\u8089\u6842\u9178\u76d0\u9178\u76d0", "en_name": ["2-Propenoic acid, 3-(4-aminophenyl)-, hydrochloride (1:1)", "2-Propenoic acid, 3-(4-aminophenyl)-, hydrochloride (1:1)", "2-Propenoic acid, 3-(4-aminophenyl)-, hydrochloride", "p-Aminocinnamic acid hydrochloride", "4-Aminocinnamic acid hydrochloride", "3-(4-Aminophenyl)acrylic acid hydrochloride"], "SMILES": "C(=CC(O)=O)C1=CC=C(N)C=C1.Cl", "physical_data": {"Molecular Weight": "", "Molecular Formula": "C9H9NO2.ClH", "Melting Point": "265-268 \u00b0C"}}