{"cas_no": "54060-30-9", "cn_name": "\u95f4\u6c28\u57fa\u82ef\u4e59\u7094", "en_name": ["3-Ethynylaniline", "Benzenamine, 3-ethynyl-", "3-Ethynylbenzenamine", "(3-Aminophenyl)acetylene", "m-Ethynylaniline", "3-Ethynylaniline", "1-Amino-3-ethynylbenzene", "(m-Aminophenyl)acetylene", "(3-Ethynylphenyl)amine", "3-Acetylenylaniline", "3-Amino-1-ethynylbenzene"], "SMILES": "C(#C)C1=CC(N)=CC=C1", "physical_data": {"Molecular Weight": "117.15", "Molecular Formula": "C8H7N", "Boiling Point": "78-80 \u00b0C @ Press: 0.2 Torr"}}