{"cas_no": "5406-18-8", "cn_name": "3-(4-\u7532\u6c27\u57fa\u82ef)-1-\u4e19\u9187", "en_name": ["3-(4-Methoxyphenyl)-1-propanol", "Benzenepropanol, 4-methoxy-", "1-Propanol, 3-(p-methoxyphenyl)-", "4-Methoxybenzenepropanol", "1-(4-Methoxyphenyl)-3-propanol", "3-(p-Methoxyphenyl)-1-propanol", "3-p-Methoxyphenylpropanol", "3-(4-Methoxyphenyl)-1-propanol", "NSC 5311", "3-(4-Methoxyphenyl)propanol"], "SMILES": "C(CCO)C1=CC=C(OC)C=C1", "physical_data": {"Molecular Weight": "166.22", "Molecular Formula": "C10H14O2", "Boiling Point": "162 \u00b0C", "Melting Point": "26 \u00b0C"}}