{"cas_no": "5406-86-0", "cn_name": "4-\u53d4\u4e01\u57fa\u82ef\u4e59\u9187", "en_name": ["4-(1,1-Dimethylethyl)benzeneethanol", "Benzeneethanol, 4-(1,1-dimethylethyl)-", "Phenethyl alcohol, p-tert-butyl-", "4-(1,1-Dimethylethyl)benzeneethanol", "p-tert-Butylphenethyl alcohol", "2-(4-tert-Butylphenyl)ethanol", "NSC 5319", "4-tert-Butylphenethanol", "2-(4-tert-Butylphenyl)ethan-1-ol"], "SMILES": "C(C)(C)(C)C1=CC=C(CCO)C=C1", "physical_data": {"Molecular Weight": "178.27", "Molecular Formula": "C12H18O", "Boiling Point": "150-160 \u00b0C @ Press: 15 Torr"}}