{"cas_no": "5406-57-5", "cn_name": "4-\u53d4\u4e01\u57fa\u82ef\u7532\u9178\u4e59\u916f", "en_name": ["Ethyl 4-(1,1-dimethylethyl)benzoate", "Benzoic acid, 4-(1,1-dimethylethyl)-, ethyl ester", "Benzoic acid, p-tert-butyl-, ethyl ester", "Ethyl 4-(1,1-dimethylethyl)benzoate", "Ethyl 4-tert-butylbenzoate", "Ethyl p-tert-butylbenzoate", "NSC 7038", "4-t-Butylbenzoic acid ethyl ester"], "SMILES": "C(OCC)(=O)C1=CC=C(C(C)(C)C)C=C1", "physical_data": {"Molecular Weight": "206.28", "Molecular Formula": "C13H18O2", "Boiling Point": "120.0-120.5 \u00b0C @ Press: 4 Torr"}}