{"cas_no": "540737-29-9", "cn_name": "\u67b8\u6a7c\u9178\u6258\u6cd5\u66ff\u5c3c", "en_name": ["Tofacitinib citrate", "1-Piperidinepropanenitrile, 4-methyl-3-(methyl-7H-pyrrolo[2,3-d]pyrimidin-4-ylamino)-\u03b2-oxo-, (3R,4R)-, 2-hydroxy-1,2,3-propanetricarboxylate (1:1)", "3-Piperidinamine, 1-(cyanoacetyl)-4-methyl-N-methyl-N-1H-pyrrolo[2,3-d]pyrimidin-4-yl-, (3R,4R)-, 2-hydroxy-1,2,3-propanetricarboxylate (1:1)", "Tasocitinib citrate", "CP 690500-10", "Tofacitinib citrate", "CP 690550-10", "Xeljanz", "Xeljanz XR"], "SMILES": "C(CC(O)=O)(CC(O)=O)(C(O)=O)O.N(C)(C1=C2C(NC=C2)=NC=N1)C3CN(C(CC#N)=O)CCC3C", "physical_data": {"Molecular Weight": "", "Molecular Formula": "C16H20N6O.C6H8O7", "Melting Point": "201 \u00b0C (decomp)"}}