{"cas_no": "5407-91-0", "cn_name": "1,4-\u8054\u82ef\u57fa-1-\u4e01\u916e", "en_name": ["1,4-Diphenyl-1-butanone", "1-Butanone, 1,4-diphenyl-", "Butyrophenone, 4-phenyl-", "1,4-Diphenyl-1-butanone", "\u03b3-Phenylbutyrophenone", "1-Phenyl-3-benzoylpropane", "4-Phenylbutyrophenone", "Phenyl 3-phenylpropyl ketone", "NSC 10735"], "SMILES": "C(CCCC1=CC=CC=C1)(=O)C2=CC=CC=C2", "physical_data": {"Molecular Weight": "224.30", "Molecular Formula": "C16H16O", "Boiling Point": "200 \u00b0C @ Press: 18 Torr", "Melting Point": "53-55 \u00b0C"}}