{"cas_no": "5407-04-5", "cn_name": "N,N-\u4e8c\u7532\u6c28\u57fa\u6c2f\u4e19\u70f7\u76d0\u9178\u76d0", "en_name": ["3-(Dimethylamino)propyl chloride hydrochloride", "1-Propanamine, 3-chloro-N,N-dimethyl-, hydrochloride (1:1)", "1-Propanamine, 3-chloro-N,N-dimethyl-, hydrochloride", "Propylamine, 3-chloro-N,N-dimethyl-, hydrochloride", "N,N-Dimethyl-3-chloropropylamine hydrochloride", "3-(Dimethylamino)-1-propyl chloride hydrochloride", "3-Chloro-N,N-dimethylpropylamine hydrochloride", "3-Chloro-1-(N,N-dimethylamino)propane hydrochloride", "1-Chloro-3-(dimethylamino)propane hydrochloride", "3-(Dimethylamino)propyl chloride hydrochloride", "3-Chloro-N,N-dimethyl-1-propanamine hydrochloride", "(3-Chloropropyl)dimethylamine hydrochloride", "(3-Chloropropyl)dimethylammonium chloride", "3-(Dimethylamino)-1-chloropropane hydrochloride", "N-(3-Chloropropyl)dimethylamine hydrochloride", "1-Dimethylamino-3-chloropropane hydrochloride", "N,N-Dimethyl-N-(3-chloropropyl)amine hydrochloride", "3-Chloro-N,N-dimethylpropane-1-amine hydrochloride", "N,N-Dimethyl-3-chloropropan-1-amine hydrochloride", "3-Chloro-N,N-dimethylpropanamine hydrochloride"], "SMILES": "C(N(C)C)CCCl.Cl", "physical_data": {"Molecular Weight": "", "Molecular Formula": "C5H12ClN.ClH", "Boiling Point": "50 \u00b0C @ Press: 40 Torr"}}