{"cas_no": "54078-29-4", "cn_name": "1,8-\u4e8c\u6c2e\u6742-9-\u82b4\u916e", "en_name": ["9H-Cyclopenta[1,2-b:4,3-b\u2032]dipyridin-9-one", "9H-Cyclopenta[1,2-b:4,3-b\u2032]dipyridin-9-one", "1,8-Diaza-9-fluorenone", "1,8-Diazafluorenone", "9H-1,8-Diazafluoren-9-one", "DFO"], "SMILES": "O=C1C=2C(C=3C1=NC=CC3)=CC=CN2", "physical_data": {"Molecular Weight": "182.18", "Molecular Formula": "C11H6N2O", "Melting Point": "205 \u00b0C"}}