{"cas_no": "5407-87-4", "cn_name": "2-\u6c28\u57fa-4,6-\u4e8c\u7532\u57fa\u5421\u5576", "en_name": ["2-Amino-4,6-dimethylpyridine", "2-Pyridinamine, 4,6-dimethyl-", "2,4-Lutidine, 6-amino-", "4,6-Dimethyl-2-pyridinamine", "6-Amino-2,4-lutidine", "2-Amino-4,6-dimethylpyridine", "4,6-Dimethyl-2-aminopyridine", "(4,6-Dimethylpyridin-2-yl)amine", "NSC 10731", "NSC 176164", "BYK 205516"], "SMILES": "CC=1C=C(C)N=C(N)C1", "physical_data": {"Molecular Weight": "122.17", "Molecular Formula": "C7H10N2", "Melting Point": "60-62 \u00b0C"}}