{"cas_no": "5407-51-2", "cn_name": "2,6-\u82ef\u5e76\u567b\u5511\u4e8c\u80fa", "en_name": ["2,6-Benzothiazolediamine", "2,6-Benzothiazolediamine", "Benzothiazole, 2,6-diamino-", "2,6-Diaminobenzothiazole", "NSC 5436", "1,3-Benzothiazole-2,6-diamine"], "SMILES": "NC1=NC=2C(S1)=CC(N)=CC2", "physical_data": {"Molecular Weight": "165.22", "Molecular Formula": "C7H7N3S", "Melting Point": "207 \u00b0C"}}