{"cas_no": "5407-98-7", "cn_name": "\u73af\u4e01\u57fa\u82ef\u57fa\u7532\u916e", "en_name": ["Cyclobutyl phenyl ketone", "Methanone, cyclobutylphenyl-", "Ketone, cyclobutyl phenyl", "Cyclobutylphenylmethanone", "Cyclobutane, benzoyl-", "Cyclobutyl phenyl ketone", "Benzoylcyclobutane", "Phenyl cyclobutyl ketone", "NSC 10744", "1-Cyclobutyl-1-phenylmethanone"], "SMILES": "C(=O)(C1CCC1)C2=CC=CC=C2", "physical_data": {"Molecular Weight": "160.21", "Molecular Formula": "C11H12O", "Boiling Point": "260 \u00b0C", "Density": "1.0440 g/cm\u00b3 @ Temp: 420 \u00b0C"}}