{"cas_no": "5408-86-6", "cn_name": "2,3-\u4e8c\u6eb4\u4e01\u70f7", "en_name": ["2,3-Dibromobutane", "Butane, 2,3-dibromo-", "2,3-Dibromobutane", "NSC 8414"], "SMILES": "C(C(Br)C)(Br)C", "physical_data": {"Molecular Weight": "215.91", "Molecular Formula": "C4H8Br2", "Boiling Point": "161 \u00b0C", "Melting Point": "-24 \u00b0C", "Density": "1.7892 g/cm\u00b3 @ Temp: 20 \u00b0C"}}