{"cas_no": "5408-04-8", "cn_name": "2-(\u7f9f\u4e9a\u6c28\u57fa)\u4e59\u9170\u4e59\u9178\u4e59\u916f", "en_name": ["Butanoic acid, 2-(hydroxyimino)-3-oxo-, ethyl ester", "Butanoic acid, 2-(hydroxyimino)-3-oxo-, ethyl ester", "Butyric acid, 2,3-dioxo-, ethyl ester, 2-oxime", "Butyric acid, \u03b1,\u03b2-dioxo-, ethyl ester \u03b1-oxime", "Ethyl \u03b1-isonitrosoacetoacetate", "Ethyl 2-(hydroxyimino)acetoacetate", "Ethyl 2-oximinoacetoacetate", "Ethyl \u03b1-(hydroxyimino)acetoacetate", "2-(Hydroxyimino)-3-oxobutyric acid ethyl ester", "Ethyl \u03b1-oximinoacetoacetate", "Ethyl 2-(hydroxyimino)-3-ketobutyrate", "Ethyl 2-(hydroxyimino)-3-oxobutanoate", "2-Hydroxyimino-3-oxobutanoic acid ethyl ester", "NSC 10758"], "SMILES": "C(C(OCC)=O)(C(C)=O)=NO", "physical_data": {"Molecular Weight": "159.14", "Molecular Formula": "C6H9NO4", "Boiling Point": "136-137 \u00b0C @ Press: 5 Torr", "Melting Point": "45-47 \u00b0C"}}