{"cas_no": "54081-47-9", "cn_name": "\u65b0\u843d\u65b0\u5987\u82f7", "en_name": ["Neoastilbin", "4H-1-Benzopyran-4-one, 3-[(6-deoxy-\u03b1-L-mannopyranosyl)oxy]-2-(3,4-dihydroxyphenyl)-2,3-dihydro-5,7-dihydroxy-, (2S,3S)-", "4H-1-Benzopyran-4-one, 3-[(6-deoxy-\u03b1-L-mannopyranosyl)oxy]-2-(3,4-dihydroxyphenyl)-2,3-dihydro-5,7-dihydroxy-, (2S-trans)-", "(2S,3S)-3-[(6-Deoxy-\u03b1-L-mannopyranosyl)oxy]-2-(3,4-dihydroxyphenyl)-2,3-dihydro-5,7-dihydroxy-4H-1-benzopyran-4-one", "Neoastilbin", "Neosmitilbin", "(-)-(2S,3S)-Dihydroquercetin 3-O-\u03b1-L-rhamnoside", "(2S,3S)-Astilbin"], "SMILES": "O(C1C(OC=2C(C1=O)=C(O)C=C(O)C2)C3=CC(O)=C(O)C=C3)C4C(O)C(O)C(O)C(C)O4", "physical_data": {"Molecular Weight": "450.39", "Molecular Formula": "C21H22O11", "Melting Point": "176-177 \u00b0C"}}