{"cas_no": "54081-48-0", "cn_name": "\u5f02\u843d\u65b0\u5987\u82f7", "en_name": ["Isoastilbin", "4H-1-Benzopyran-4-one, 3-[(6-deoxy-\u03b1-L-mannopyranosyl)oxy]-2-(3,4-dihydroxyphenyl)-2,3-dihydro-5,7-dihydroxy-, (2R,3S)-", "4H-1-Benzopyran-4-one, 3-[(6-deoxy-\u03b1-L-mannopyranosyl)oxy]-2-(3,4-dihydroxyphenyl)-2,3-dihydro-5,7-dihydroxy-, (2R-cis)-", "(2R,3S)-3-[(6-Deoxy-\u03b1-L-mannopyranosyl)oxy]-2-(3,4-dihydroxyphenyl)-2,3-dihydro-5,7-dihydroxy-4H-1-benzopyran-4-one", "Isoastilbin", "(2R,3S)-Astilbin", "Smitilbin"], "SMILES": "O(C1C(OC=2C(C1=O)=C(O)C=C(O)C2)C3=CC(O)=C(O)C=C3)C4C(O)C(O)C(O)C(C)O4", "physical_data": {"Molecular Weight": "450.39", "Molecular Formula": "C21H22O11", "Melting Point": "278-280 \u00b0C (decomp)"}}