{"cas_no": "5408-74-2", "cn_name": "5-\u4e59\u57fa-2-\u4e59\u70ef\u57fa\u5421\u5576", "en_name": ["2-Ethenyl-5-ethylpyridine", "Pyridine, 2-ethenyl-5-ethyl-", "Pyridine, 5-ethyl-2-vinyl-", "2-Ethenyl-5-ethylpyridine", "5-Ethyl-2-vinylpyridine", "NSC 8395", "2-Vinyl-5-ethylpyridine"], "SMILES": "C(C)C=1C=CC(C=C)=NC1", "physical_data": {"Molecular Weight": "133.19", "Molecular Formula": "C9H11N", "Boiling Point": "64-65 \u00b0C @ Press: 3 Torr"}}