{"cas_no": "5409-45-0", "cn_name": "2-\u4e59\u9170\u6c28\u57fa-5-\u785d\u57fa\u82ef\u7532\u9178\u7532\u916f", "en_name": ["Methyl 2-(acetylamino)-5-nitrobenzoate", "Benzoic acid, 2-(acetylamino)-5-nitro-, methyl ester", "Anthranilic acid, N-acetyl-5-nitro-, methyl ester", "Methyl 2-(acetylamino)-5-nitrobenzoate", "NSC 12468", "2-Acetylamino-5-nitrobenzoic acid methyl ester"], "SMILES": "N(C(C)=O)C1=C(C(OC)=O)C=C(N(=O)=O)C=C1", "physical_data": {"Molecular Weight": "238.20", "Molecular Formula": "C10H10N2O5", "Melting Point": "174-176 \u00b0C"}}