{"cas_no": "5409-58-5", "cn_name": "3-(\u4e8c\u7532\u57fa\u6c28\u57fa)-1-(\u8418-1-\u57fa)-1-\u4e19\u916e\u76d0\u9178\u76d0", "en_name": ["1-Propanone, 3-(dimethylamino)-1-(1-naphthalenyl)-, hydrochloride (1:1)", "1-Propanone, 3-(dimethylamino)-1-(1-naphthalenyl)-, hydrochloride (1:1)", "1\u2032-Propionaphthone, 3-(dimethylamino)-, hydrochloride", "1-Propanone, 3-(dimethylamino)-1-(1-naphthalenyl)-, hydrochloride", "3-Dimethylamino-1-(naphthalen-1-yl)propan-1-one hydrochloride"], "SMILES": "C(CCN(C)C)(=O)C=1C2=C(C=CC1)C=CC=C2.Cl", "physical_data": {"Molecular Weight": "", "Molecular Formula": "C15H17NO.ClH", "Melting Point": "165 \u00b0C"}}