{"cas_no": "5409-31-4", "cn_name": "3,4-\u4e8c\u4e59\u6c27\u57fa\u82ef\u7532\u9178", "en_name": ["3,4-Diethoxybenzoic acid", "Benzoic acid, 3,4-diethoxy-", "3,4-Diethoxybenzoic acid", "NSC 10903", "NSC 8515", "3,4-Bis(ethyloxy)benzoic acid"], "SMILES": "O(CC)C1=C(OCC)C=CC(C(O)=O)=C1", "physical_data": {"Molecular Weight": "210.23", "Molecular Formula": "C11H14O4", "Melting Point": "166-167 \u00b0C"}}