{"cas_no": "5409-60-9", "cn_name": "4,4'-\u4e8c\u82ef\u57fa-2-\u4e01\u916e", "en_name": ["4,4-Diphenyl-2-butanone", "2-Butanone, 4,4-diphenyl-", "4,4-Diphenyl-2-butanone", "1,1-Diphenyl-3-butanone", "NSC 12496"], "SMILES": "C(CC(C)=O)(C1=CC=CC=C1)C2=CC=CC=C2", "physical_data": {"Molecular Weight": "224.30", "Molecular Formula": "C16H16O", "Boiling Point": "164.5-168 \u00b0C @ Press: 4-5 Torr", "Melting Point": "170-171 \u00b0C"}}