{"cas_no": "54093-92-4", "cn_name": "\u53cc\u5627\u8fbe\u83ab\u6742\u8d28C", "en_name": ["2,2\u2032-[(6-Chloro-4,8-di-1-piperidinylpyrimido[5,4-d]pyrimidin-2-yl)imino]bis[ethanol]", "Ethanol, 2,2\u2032-[(6-chloro-4,8-di-1-piperidinylpyrimido[5,4-d]pyrimidin-2-yl)imino]bis-", "Ethanol, 2,2\u2032-[(6-chloro-4,8-dipiperidinopyrimido[5,4-d]pyrimidin-2-yl)imino]di-", "Pyrimido[5,4-d]pyrimidine, ethanol deriv.", "2,2\u2032-[(6-Chloro-4,8-di-1-piperidinylpyrimido[5,4-d]pyrimidin-2-yl)imino]bis[ethanol]", "2-Diethanolamino-6-chloro-4,8-dipiperidinopyrimido[5,4-d]pyrimidine", "2-[[2-Chloro-4,8-di(piperidin-1-yl)pyrimido[5,4-d]pyrimidin-6-yl]-(2-hydroxyethyl)amino]ethanol"], "SMILES": "N(CCO)(CCO)C1=NC2=C(C(=N1)N3CCCCC3)N=C(Cl)N=C2N4CCCCC4", "physical_data": {"Molecular Weight": "435.95", "Molecular Formula": "C20H30ClN7O2", "Melting Point": "155-157 \u00b0C"}}