{"cas_no": "541-01-5", "cn_name": "\u5341\u516d\u70f7\u57fa\u4e03\u7845\u6c27\u70f7", "en_name": ["Hexadecamethylheptasiloxane", "Heptasiloxane, 1,1,1,3,3,5,5,7,7,9,9,11,11,13,13,13-hexadecamethyl-", "Heptasiloxane, hexadecamethyl-", "1,1,1,3,3,5,5,7,7,9,9,11,11,13,13,13-Hexadecamethylheptasiloxane", "Hexadecamethylheptasiloxane"], "SMILES": "O([Si](O[Si](O[Si](O[Si](C)(C)C)(C)C)(C)C)(C)C)[Si](O[Si](O[Si](C)(C)C)(C)C)(C)C", "physical_data": {"Molecular Weight": "533.15", "Molecular Formula": "C16H48O6Si7", "Boiling Point": "270 \u00b0C", "Melting Point": "-78 \u00b0C", "Density": "0.9004 g/cm\u00b3 @ Temp: 25 \u00b0C"}}