{"cas_no": "541-15-1", "cn_name": "\u5de6\u65cb\u8089\u78b1", "en_name": ["(-)-Carnitine", "1-Propanaminium, 3-carboxy-2-hydroxy-N,N,N-trimethyl-, inner salt, (2R)-", "Ammonium, (3-carboxy-2-hydroxypropyl)trimethyl-, hydroxide, inner salt, L-", "1-Propanaminium, 3-carboxy-2-hydroxy-N,N,N-trimethyl-, hydroxide, inner salt, (R)-", "(-)-Carnitine", "Carnitine, (-)-", "l-Carnitine", "Vitamin BT", "L-(-)-Carnitine", "Carnitine", "L-Carnitine", "(-)-L-Carnitine", "Levocarnitine", "(R)-Carnitine", "1-Propanaminium, 3-carboxy-2-hydroxy-N,N,N-trimethyl-, inner salt, (R)-", "ST 198", "Carniking 50", "Carnitene", "Carniking", "Carnitor", "Carnilean", "Coaxel", "Carnipass", "Carnipass 20", "L-Carnipure", "Natrulon RC", "Carnivit", "Carnil", "Aminocarnifarm", "(3R)-3-Hydroxy-4-(trimethylazaniumyl)butanoate", "MeSH ID: D002331"], "SMILES": "C([N+](C)(C)C)C(CC([O-])=O)O", "physical_data": {"Molecular Weight": "", "Molecular Formula": "C7H15NO3", "Melting Point": "196-198 \u00b0C"}}