{"cas_no": "541-91-3", "cn_name": "\u9e9d\u9999\u916e", "en_name": ["(\u00b1)-Muscone", "Cyclopentadecanone, 3-methyl-", "Muscone", "3-Methylcyclopentadecanone", "Muskone", "Moschus ketone", "(\u00b1)-Muscone", "dl-Muscone", "3-Methylcyclopentadecan-1-one"], "SMILES": "CC1CC(=O)CCCCCCCCCCCC1", "physical_data": {"Molecular Weight": "238.41", "Molecular Formula": "C16H30O", "Boiling Point": "130 \u00b0C @ Press: 0.5 Torr", "Density": "0.9921 g/cm\u00b3 @ Temp: 17 \u00b0C"}}