{"cas_no": "541-42-4", "cn_name": "\u4e9a\u785d\u9178\u5f02\u4e19\u916f", "en_name": ["Isopropyl nitrite", "Nitrous acid, 1-methylethyl ester", "Nitrous acid, isopropyl ester", "Isopropyl nitrite"], "SMILES": "O(C(C)C)N=O", "physical_data": {"Molecular Weight": "89.09", "Molecular Formula": "C3H7NO2", "Boiling Point": "40 \u00b0C", "Density": "0.8684 g/cm\u00b3 @ Temp: 15 \u00b0C"}}