{"cas_no": "541-41-3", "cn_name": "\u6c2f\u7532\u9178\u4e59\u916f", "en_name": ["Ethyl chloroformate", "Carbonochloridic acid, ethyl ester", "Formic acid, chloro-, ethyl ester", "Chloroformic acid ethyl ester", "Ethyl chlorocarbonate", "Ethyl chloroformate", "Chlorocarbonic acid ethyl ester", "Ethoxycarbonyl chloride", "Cathyl chloride", "Ethyl carbonochloridate", "Ethyl chloridocarbonate", "Chloro ethyl formate"], "SMILES": "O(C(Cl)=O)CC", "physical_data": {"Molecular Weight": "108.52", "Molecular Formula": "C3H5ClO2", "Boiling Point": "95 \u00b0C @ Press: 760 Torr", "Melting Point": "-80.6 \u00b0C", "Density": "1.1403 g/cm\u00b3 @ Temp: 20 \u00b0C"}}