{"cas_no": "541-22-0", "cn_name": "\u6eb4\u5316\u5341\u70c3\u5b63\u80fa", "en_name": ["Decamethonium bromide", "1,10-Decanediaminium, N1,N1,N1,N10,N10,N10-hexamethyl-, bromide (1:2)", "Ammonium, decamethylenebis[trimethyl-, dibromide", "1,10-Decanediaminium, N,N,N,N\u2032,N\u2032,N\u2032-hexamethyl-, dibromide", "Ammonium, decamethylenebis[trimethyl- bromide]", "C 10 (onium compound)", "Decamethonium dibromide", "Decamethylenebis[trimethylammonium bromide]", "Decamethylene-1,10-bistrimethylammonium dibromide", "Syncurine", "Decamethonium bromide", "Decacuran", "C 10"], "SMILES": "C([N+](C)(C)C)CCCCCCCCC[N+](C)(C)C.[Br-]", "physical_data": {"Molecular Weight": "", "Molecular Formula": "C16H38N2.2Br", "Melting Point": "268-270 \u00b0C (decomp)"}}