{"cas_no": "541-69-5", "cn_name": "1,3-\u82ef\u4e8c\u80fa\u76d0\u9178\u76d0", "en_name": ["m-Phenylenediamine hydrochloride", "1,3-Benzenediamine, hydrochloride (1:2)", "m-Phenylenediamine, dihydrochloride", "1,3-Benzenediamine, dihydrochloride", "1,3-Diaminobenzene dihydrochloride", "m-Phenylenediamine hydrochloride", "m-Phenylenediammonium dichloride", "1,3-Phenylenediamine dihydrochloride"], "SMILES": "NC1=CC(N)=CC=C1.Cl", "physical_data": {"Molecular Weight": "", "Molecular Formula": "C6H8N2.2ClH", "Melting Point": "171 \u00b0C (decomp)"}}