{"cas_no": "541-88-8", "cn_name": "\u6c2f\u4e59\u9178\u9150", "en_name": ["Chloroacetic anhydride", "Acetic acid, 2-chloro-, 1,1\u2032-anhydride", "Acetic acid, chloro-, anhydride", "Chloroacetic acid anhydride", "Chloroacetic anhydride", "Chloracetic anhydride", "Chloroacetyl anhydride", "2-Chloroacetic anhydride", "\u03b1,\u03b1\u2032-Dichloroacetic anhydride", "NSC 71207", "Bis(chloroacetic acid) anhydride", "2-Chloroacetyl 2-chloroacetate"], "SMILES": "O(C(CCl)=O)C(CCl)=O", "physical_data": {"Molecular Weight": "170.98", "Molecular Formula": "C4H4Cl2O3", "Boiling Point": "203 \u00b0C @ Press: 760 Torr", "Melting Point": "46 \u00b0C", "Density": "1.5494 g/cm\u00b3 @ Temp: 20 \u00b0C"}}