{"cas_no": "541-53-7", "cn_name": "2,4-\u4e8c\u786b\u4ee3\u7f29\u4e8c\u8132", "en_name": ["Dithiobiuret", "Thioimidodicarbonic diamide ([(H2N)C(S)]2NH)", "Biuret, dithio-", "Biuret, 2,4-dithio-", "Allophanimidic acid, dithio-", "2,4-Dithiobiuret", "Imidodicarbonimidothioic diamide", "Dithiobiuret", "Imidodicarbonodithioic diamide", "NSC 7761", "Dicarbonodithioimidic diamide", "(Carbamothioylamino)methanethioamide"], "SMILES": "N(C(N)=S)C(N)=S", "physical_data": {"Molecular Weight": "135.21", "Molecular Formula": "C2H5N3S2", "Melting Point": "181 \u00b0C (decomp)"}}