{"cas_no": "541-58-2", "cn_name": "2,4-\u4e8c\u7532\u57fa\u567b\u5511", "en_name": ["2,4-Dimethylthiazole", "Thiazole, 2,4-dimethyl-", "2,4-Dimethylthiazole", "2,4-Methylthiazole", "2,4-Dimethyl-1,3-thiazole", "NSC 7510"], "SMILES": "CC=1N=C(C)SC1", "physical_data": {"Molecular Weight": "113.18", "Molecular Formula": "C5H7NS", "Boiling Point": "146 \u00b0C", "Melting Point": "272 \u00b0C", "Density": "1.0513 g/cm\u00b3 @ Temp: 20 \u00b0C"}}