{"cas_no": "541-28-6", "cn_name": "\u5f02\u620a\u57fa\u7898", "en_name": ["1-Iodo-3-methylbutane", "Butane, 1-iodo-3-methyl-", "1-Iodo-3-methylbutane", "Iso-Amyliodide", "4-Iodo-2-methylbutane", "Isopentyl iodide", "Isoamyl iodide", "3-Methylbutyliodide", "3-Methyl-1-iodobutane"], "SMILES": "C(C(C)C)CI", "physical_data": {"Molecular Weight": "198.05", "Molecular Formula": "C5H11I", "Boiling Point": "147 \u00b0C", "Melting Point": "143-144 \u00b0C", "Density": "1.5028 g/cm\u00b3 @ Temp: 20 \u00b0C"}}