{"cas_no": "541-85-5", "cn_name": "5-\u7532\u57fa-3-\u5e9a\u916e", "en_name": ["5-Methyl-3-heptanone", "3-Heptanone, 5-methyl-", "5-Methyl-3-heptanone", "3-Methyl-5-heptanone", "Ethyl 2-methylbutyl ketone", "2-Methylbutyl ethyl ketone", "(\u00b1)-5-Methyl-3-heptanone", "NSC 100734"], "SMILES": "C(C(CC)C)C(CC)=O", "physical_data": {"Molecular Weight": "128.21", "Molecular Formula": "C8H16O", "Boiling Point": "157-162 \u00b0C", "Melting Point": "-56.7 \u00b0C", "Density": "0.82 g/cm\u00b3"}}