{"cas_no": "541-59-3", "cn_name": "\u9a6c\u6765\u9170\u4e9a\u80fa", "en_name": ["Maleimide", "1H-Pyrrole-2,5-dione", "Maleimide", "Pyrrole-2,5-dione", "3-Pyrroline-2,5-dione", "Maleic imide", "NSC 13684", "2,5-Dioxo-2,5-dihydropyrrole", "2,5-Dihydro-1H-pyrrole-2,5-dione"], "SMILES": "O=C1NC(=O)C=C1", "physical_data": {"Molecular Weight": "97.07", "Molecular Formula": "C4H3NO2", "Boiling Point": "120-125 \u00b0C @ Press: 10 Torr", "Melting Point": "94 \u00b0C"}}