{"cas_no": "541-73-1", "cn_name": "1,3-\u4e8c\u6c2f\u82ef", "en_name": ["1,3-Dichlorobenzene", "Benzene, 1,3-dichloro-", "Benzene, m-dichloro-", "1,3-Dichlorobenzene", "m-Dichlorobenzene", "m-Phenylene dichloride", "m-Dichlorobenzol", "2,6-Dichlorobenzene", "NSC 8754", "2,4-Dichlorobenzene"], "SMILES": "ClC1=CC(Cl)=CC=C1", "physical_data": {"Molecular Weight": "147.00", "Molecular Formula": "C6H4Cl2", "Boiling Point": "173 \u00b0C", "Melting Point": "-24.8 \u00b0C", "Density": "1.2884 g/cm\u00b3 @ Temp: 20 \u00b0C"}}