{"cas_no": "541-16-2", "cn_name": "\u4e19\u4e8c\u9178\u4e8c\u53d4\u4e01\u916f", "en_name": ["1,3-Bis(1,1-dimethylethyl) propanedioate", "Propanedioic acid, 1,3-bis(1,1-dimethylethyl) ester", "Malonic acid, di-tert-butyl ester", "Propanedioic acid, bis(1,1-dimethylethyl) ester", "1,3-Bis(1,1-dimethylethyl) propanedioate", "Di-tert-butyl malonate", "tert-Butyl malonate", "Bis(1,1-dimethylethyl) malonate", "di-tert-butyl propanedioate", "1,3-Di-tert-butyl propanedioate"], "SMILES": "O(C(C)(C)C)C(CC(OC(C)(C)C)=O)=O", "physical_data": {"Molecular Weight": "216.27", "Molecular Formula": "C11H20O4", "Boiling Point": "101.5-102 \u00b0C @ Press: 15 Torr", "Melting Point": "-6 \u00b0C"}}