{"cas_no": "541-35-5", "cn_name": "\u4e01\u9170\u80fa", "en_name": ["Butyramide", "Butanamide", "Butyramide", "n-Butylamide", "n-Butyramide", "Butanimidic acid", "NSC 8424"], "SMILES": "C(C(N)=O)CC", "physical_data": {"Molecular Weight": "87.12", "Molecular Formula": "C4H9NO", "Boiling Point": "216 \u00b0C", "Melting Point": "115-116 \u00b0C", "Density": "0.8850 g/cm\u00b3 @ Temp: 120 \u00b0C"}}