{"cas_no": "541-57-1", "cn_name": "4-\u7f9f\u57fa-2(5H)-\u544b\u5583\u916e", "en_name": ["4-Hydroxy-2(5H)-furanone", "2(5H)-Furanone, 4-hydroxy-", "4-Hydroxy-2(5H)-furanone", "4-Hydroxy-5H-furan-2-one", "\u03b2-Tetronic acid", "3-Hydroxy-2H-furan-5-one"], "SMILES": "OC1=CC(=O)OC1", "physical_data": {"Molecular Weight": "100.07", "Molecular Formula": "C4H4O3", "Melting Point": "140-141 \u00b0C"}}