{"cas_no": "541-47-9", "cn_name": "3,3-\u4e8c\u7532\u57fa\u4e19\u70ef\u9178", "en_name": ["3-Methyl-2-butenoic acid", "2-Butenoic acid, 3-methyl-", "Crotonic acid, 3-methyl-", "3-Methyl-2-butenoic acid", "\u03b2,\u03b2-Dimethylacrylic acid", "Senecioic acid", "\u03b2-Methylcrotonic acid", "3,3-Dimethylacrylic acid", "3-Methylcrotonic acid", "NSC 2549", "NSC 97179"], "SMILES": "C(=C(C)C)C(O)=O", "physical_data": {"Molecular Weight": "100.12", "Molecular Formula": "C5H8O2", "Boiling Point": "197 \u00b0C", "Melting Point": "69.5 \u00b0C", "Density": "0.9272 g/cm\u00b3 @ Temp: 25 \u00b0C"}}