{"cas_no": "541-31-1", "cn_name": "\u5f02\u620a\u786b\u9187", "en_name": ["3-Methyl-1-butanethiol", "1-Butanethiol, 3-methyl-", "3-Methyl-1-butanethiol", "iso-Amyl mercaptan", "Isoamyl sulfhydrate", "2-Methyl-4-butanethiol", "Isoamyl mercaptan", "Isopentyl mercaptan", "3-Methylbutanethiol", "3-Methylbutyl mercaptan", "Isopentylthiol", "Isopentanethiol", "3-Methylbutan-1-thiol"], "SMILES": "C(C(C)C)CS", "physical_data": {"Molecular Weight": "104.21", "Molecular Formula": "C5H12S", "Boiling Point": "120 \u00b0C", "Density": "0.8322 g/cm\u00b3 @ Temp: 20 \u00b0C"}}