{"cas_no": "541-46-8", "cn_name": "\u5f02\u620a\u9170\u80fa", "en_name": ["3-Methylbutanamide", "Butanamide, 3-methyl-", "Isovaleramide", "3-Methylbutanamide", "Isovaleric acid amide", "3-Methylbutyramide", "\u03b2-Methylbutyramide", "Isopentanamide", "NSC 402555", "NPS 1776"], "SMILES": "C(C(C)C)C(N)=O", "physical_data": {"Molecular Weight": "101.15", "Molecular Formula": "C5H11NO", "Boiling Point": "226 \u00b0C", "Melting Point": "137 \u00b0C"}}