{"cas_no": "541-05-9", "cn_name": "\u516d\u7532\u57fa\u73af\u4e09\u7845\u6c27\u70f7", "en_name": ["Hexamethylcyclotrisiloxane", "Cyclotrisiloxane, 2,2,4,4,6,6-hexamethyl-", "Cyclotrisiloxane, hexamethyl-", "2,2,4,4,6,6-Hexamethylcyclotrisiloxane", "Dimethylsiloxane cyclic trimer", "Hexamethylcyclotrisiloxane", "SDK 10", "LS 8120", "D 3", "A 13455", "SIH 6105.1"], "SMILES": "C[Si]1(C)O[Si](C)(C)O[Si](C)(C)O1", "physical_data": {"Molecular Weight": "222.46", "Molecular Formula": "C6H18O3Si3", "Boiling Point": "134 \u00b0C", "Melting Point": "64.5 \u00b0C", "Density": "1.020 g/cm\u00b3"}}