{"cas_no": "541-02-6", "cn_name": "\u5341\u7532\u57fa\u73af\u4e94\u7845\u6c27\u70f7", "en_name": ["Decamethylcyclopentasiloxane", "Cyclopentasiloxane, 2,2,4,4,6,6,8,8,10,10-decamethyl-", "Cyclopentasiloxane, decamethyl-", "2,2,4,4,6,6,8,8,10,10-Decamethylcyclopentasiloxane", "Decamethylcyclopentasiloxane", "Dimethylsiloxane pentamer", "Union Carbide 7158 Silicone Fluid", "Dow Corning 345", "NUC Silicone VS 7158", "Dow Corning 345 Fluid", "Cyclic dimethylsiloxane pentamer", "SF 1202", "Silicone SF 1202", "VS 7158", "KF 995", "Dow Corning 245", "DC 245", "Silbione V 5", "Volasil 245", "DC 345", "TSF 465", "LS 9000", "Cyclo-decamethylpentasiloxane", "Execol D 5", "TSF 405", "Pentacyclomethicone", "SH 245", "TFS 405", "Silbione 70045V5", "Mirasil CM 5", "Dow Corning 345EU", "DC 2-5252C", "Dow Corning 2-5252C", "DC 345 Fluid", "Dow Corning 245 Fluid", "Silicon Plus \u03b1", "Botanisil CP 33", "Cyclopentasiloxane", "Cyclopentadimethylsiloxane", "D5", "Volatile Silicone Fluid 345", "Cyclomethicone pentamer 245", "Xiameter PMX", "Xiameter PMX 0245", "Tego Polish Additive 5", "SH 245 Fluid", "Decamethylpentacyclosiloxane", "KF 7312T", "TSF 405A", "KF 955", "D 5 (siloxane)", "Siloxane D 5", "PMX 345", "D 5", "D 1890", "Dowsil 245", "Dowsil SH 245 Fluid", "Dowsil SH 245"], "SMILES": "C[Si]1(C)O[Si](C)(C)O[Si](C)(C)O[Si](C)(C)O[Si](C)(C)O1", "physical_data": {"Molecular Weight": "370.77", "Molecular Formula": "C10H30O5Si5", "Boiling Point": "210 \u00b0C", "Melting Point": "-38 \u00b0C", "Density": "0.9593 g/cm\u00b3 @ Temp: 20 \u00b0C"}}