{"cas_no": "541-50-4", "cn_name": "3-\u6c27\u4e01\u9178", "en_name": ["Acetoacetic acid", "Butanoic acid, 3-oxo-", "Acetoacetic acid", "3-Oxobutanoic acid", "Acetic acid, acetyl-", "Acetonecarboxylic acid", "Acetylacetic acid", "Diacetic acid", "3-Oxobutyric acid", "3-Ketobutyric acid", "3-Acetonedicarboxylic acid"], "SMILES": "C(C(C)=O)C(O)=O", "physical_data": {"Molecular Weight": "102.09", "Molecular Formula": "C4H6O3", "Boiling Point": "80 \u00b0C @ Press: 20 Torr", "Melting Point": "36.5 \u00b0C"}}