{"cas_no": "5410-97-9", "cn_name": "3-\u785d\u57fa\u4e8c\u82ef\u5e76\u544b\u5583", "en_name": ["3-Nitrodibenzofuran", "Dibenzofuran, 3-nitro-", "3-Nitrodibenzofuran", "NSC 10862", "3-Nitrodibenzo[b,d]furan"], "SMILES": "N(=O)(=O)C=1C=C2C(C=3C(O2)=CC=CC3)=CC1", "physical_data": {"Molecular Weight": "213.19", "Molecular Formula": "C12H7NO3", "Melting Point": "181.5 \u00b0C"}}