{"cas_no": "5410-29-7", "cn_name": "(2-\u785d\u57fa\u82ef\u57fa)\u80c2\u9178", "en_name": ["As-(2-Nitrophenyl)arsonic acid", "Arsonic acid, As-(2-nitrophenyl)-", "Benzenearsonic acid, o-nitro-", "Arsonic acid, (2-nitrophenyl)-", "As-(2-Nitrophenyl)arsonic acid", "(o-Nitrophenyl)arsonic acid", "2-Nitrobenzenearsonic acid", "2-Nitrophenylarsonic acid", "o-Nitrobenzenearsonic acid", "NSC 12609"], "SMILES": "[As](=O)(O)(O)C1=C(N(=O)=O)C=CC=C1", "physical_data": {"Molecular Weight": "247.04", "Molecular Formula": "C6H6AsNO5", "Melting Point": "233 \u00b0C"}}