{"cas_no": "5411-12-1", "cn_name": "\u67e5\u8033\u916eALPHA\u73af\u6c27\u5316\u7269", "en_name": ["Chalcone epoxide", "Methanone, phenyl(3-phenyl-2-oxiranyl)-", "Propiophenone, 2,3-epoxy-3-phenyl-", "Methanone, phenyl(3-phenyloxiranyl)-", "Phenyl(3-phenyl-2-oxiranyl)methanone", "2,3-Epoxy-3-phenylpropiophenone", "Chalcone epoxide", "1,3-Diphenyl-2,3-epoxy-1-propanone", "2,3-Epoxy-1,3-diphenyl-1-propanone", "Epoxybenzalacetophenone", "Chalcone oxide", "1-Benzoyl-2-phenyloxirane", "NSC 10919", "Phenyl(3-phenyloxiran-2-yl)methanone", "2-Benzoyl-3-phenyloxirane"], "SMILES": "C(=O)(C1C(O1)C2=CC=CC=C2)C3=CC=CC=C3", "physical_data": {"Molecular Weight": "224.25", "Molecular Formula": "C15H12O2", "Melting Point": "86.5-87.5 \u00b0C"}}