{"cas_no": "54110-25-7", "cn_name": "\u5421\u624e\u5730\u5c14", "en_name": ["Pirozadil", "Benzoic acid, 3,4,5-trimethoxy-, 1,1\u2032-[2,6-pyridinediylbis(methylene)] ester", "Benzoic acid, 3,4,5-trimethoxy-, 2,6-pyridinediylbis(methylene) ester", "Pirozadil", "Pemix", "722D"], "SMILES": "O(C)C1=C(OC)C=C(C(OCC=2N=C(COC(=O)C3=CC(OC)=C(OC)C(OC)=C3)C=CC2)=O)C=C1OC", "physical_data": {"Molecular Weight": "527.52", "Molecular Formula": "C27H29NO10", "Melting Point": "119-126 \u00b0C"}}