{"cas_no": "5411-14-3", "cn_name": "1,2-\u4e9a\u82ef\u57fa\u4e8c\u6c27\u4e8c\u4e59\u9178", "en_name": ["1,2-Phenylenedioxydiacetic acid", "Acetic acid, 2,2\u2032-[1,2-phenylenebis(oxy)]bis-", "Acetic acid, (o-phenylenedioxy)di-", "2,2\u2032-[1,2-Phenylenebis(oxy)]bis[acetic acid]", "1,2-Phenylenedioxydiacetic acid", "Benzene-1,2-dioxyacetic acid", "NSC 10926", "2-[2-(2-Hydroxy-2-oxoethoxy)phenoxy]acetic Acid", "2-[2-(Carboxymethoxy)phenoxy]acetic acid"], "SMILES": "O(CC(O)=O)C1=C(OCC(O)=O)C=CC=C1", "physical_data": {"Molecular Weight": "226.18", "Molecular Formula": "C10H10O6", "Melting Point": "173-174 \u00b0C"}}