{"cas_no": "5411-56-3", "cn_name": "1-(2-\u6eb4\u82ef\u57fa)\u4e59\u9187", "en_name": ["1-(2-Bromophenyl)ethanol", "Benzenemethanol, 2-bromo-\u03b1-methyl-", "Benzyl alcohol, o-bromo-\u03b1-methyl-", "2-Bromo-\u03b1-methylbenzenemethanol", "1-(2-Bromophenyl)ethanol", "2-Bromo-\u03b1-methylbenzyl alcohol", "NSC 10988", "(\u00b1)-1-(o-Bromophenyl)ethanol", "o-Bromo-\u03b1-methylbenzyl alcohol", "1-(2-Bromophenyl)ethan-1-ol"], "SMILES": "C(C)(O)C1=C(Br)C=CC=C1", "physical_data": {"Molecular Weight": "201.06", "Molecular Formula": "C8H9BrO", "Boiling Point": "128 \u00b0C @ Press: 15 Torr", "Density": "1.406 g/cm\u00b3 @ Temp: 17 \u00b0C"}}