{"cas_no": "54125-02-9", "cn_name": "\u53cd-1-\u7532\u6c27\u57fa-3-(\u4e09\u7532\u57fa\u7845\u6c27\u57fa)-1,3-\u4e01\u4e8c\u70ef", "en_name": ["[[(2E)-3-Methoxy-1-methylene-2-propen-1-yl]oxy]trimethylsilane", "Silane, [[(2E)-3-methoxy-1-methylene-2-propen-1-yl]oxy]trimethyl-", "Silane, [(3-methoxy-1-methylene-2-propenyl)oxy]trimethyl-, (E)-", "Silane, [[(2E)-3-methoxy-1-methylene-2-propenyl]oxy]trimethyl-", "[[(2E)-3-Methoxy-1-methylene-2-propen-1-yl]oxy]trimethylsilane", "trans-1-Methoxy-3-(trimethylsiloxy)-1,3-butadiene", "(E)-1-Methoxy-3-(trimethylsilyloxy)-1,3-butadiene", "trans-1-Methoxy-3-[(trimethylsilyl)oxy]-1,3-butadiene", "(E)-(3-Methoxy-1-methylene-2-propenyloxy)trimethylsilane", "Danishefsky-Kitahara diene", "(E)-((3-Methoxy-1-(methylene)allyl)oxy)trimethylsilane", "(E)-1-Methoxy-3-trimethylsiloxy-1,3-butadiene", "[[(2E)-3-Methoxy-1-methylene-2-propenyl]oxy]trimethylsilane", "E-1-Methoxy-3-[(trimethylsilyl)oxy]buta-1,3-diene", "[((2E)-3-Methoxy-1-methyleneprop-2-en-1-yl)oxy]trimethylsilane", "(E)-(4-Methoxybuta-1,3-dien-2-yloxy)trimethylsilane", "(E)-(4-Methoxybuta-1,3-dien-2-yloxy)trimethylsilane", "[[(3E)-4-Methoxybuta-1,3-dien-2-yl]oxy](trimethyl)silane"], "SMILES": "O(C(C=COC)=C)[Si](C)(C)C", "physical_data": {"Molecular Weight": "172.30", "Molecular Formula": "C8H16O2Si", "Boiling Point": "68-69 \u00b0C @ Press: 14 Torr", "Density": "0.885 g/cm\u00b3"}}