{"cas_no": "54123-21-6", "cn_name": "3-\u6c27\u4ee3-3-(2-\u5421\u5576\u57fa)\u4e19\u8148", "en_name": ["\u03b2-Oxo-2-pyridinepropanenitrile", "2-Pyridinepropanenitrile, \u03b2-oxo-", "2-Pyridinepropionitrile, \u03b2-oxo-", "\u03b2-Oxo-2-pyridinepropanenitrile", "3-Oxo-3-(2-pyridinyl)propanenitrile", "3-Oxo-3-(pyridin-2-yl)propionitrile", "3-Oxo-3-(2-pyridyl)propanenitrile", "2-(Pyridin-2-carbonyl)acetonitrile"], "SMILES": "C(CC#N)(=O)C1=CC=CC=N1", "physical_data": {"Molecular Weight": "146.15", "Molecular Formula": "C8H6N2O", "Melting Point": "93-94 \u00b0C"}}