{"cas_no": "5412-98-6", "cn_name": "\u4e8c\u8089\u8c46\u853b\u919a", "en_name": ["Tetradecyl ether", "Tetradecane, 1-(tetradecyloxy)-", "Tetradecane, 1,1\u2032-oxybis-", "Tetradecyl ether", "1-(Tetradecyloxy)tetradecane", "Ditetradecyl ether", "Bis(tetradecyl) ether", "Dimyristyl ether", "NSC 6360", "NSC 78491", "Di-n-tetradecyl ether"], "SMILES": "O(CCCCCCCCCCCCCC)CCCCCCCCCCCCCC", "physical_data": {"Molecular Weight": "410.76", "Molecular Formula": "C28H58O", "Melting Point": "36-37 \u00b0C", "Density": "0.8117 g/cm\u00b3 @ Temp: 43 \u00b0C"}}