{"cas_no": "5413-05-8", "cn_name": "2-\u82ef\u57fa\u4e59\u9170\u4e59\u9178\u4e59\u916f", "en_name": ["Ethyl \u03b1-acetylbenzeneacetate", "Benzeneacetic acid, \u03b1-acetyl-, ethyl ester", "Acetoacetic acid, 2-phenyl-, ethyl ester", "Acetoacetic acid, phenyl-, ethyl ester", "Ethyl \u03b1-acetylbenzeneacetate", "Ethyl 2-phenylacetoacetate", "Ethyl \u03b1-phenylacetoacetate", "NSC 6389", "Ethyl 3-oxo-2-phenylbutanoate", "3-Oxo-2-phenylbutyric acid ethyl ester"], "SMILES": "C(C(OCC)=O)(C(C)=O)C1=CC=CC=C1", "physical_data": {"Molecular Weight": "206.24", "Molecular Formula": "C12H14O3", "Boiling Point": "144.5-145.5 \u00b0C @ Press: 5 Torr", "Density": "1.096 g/cm\u00b3 @ Temp: 21 \u00b0C"}}