{"cas_no": "5413-85-4", "cn_name": "4,6-\u4e8c\u6c2f-5-\u6c28\u57fa\u5627\u5576", "en_name": ["5-Amino-4,6-dichloropyrimidine", "5-Pyrimidinamine, 4,6-dichloro-", "Pyrimidine, 5-amino-4,6-dichloro-", "4,6-Dichloro-5-pyrimidinamine", "5-Amino-4,6-dichloropyrimidine", "4,6-Dichloro-5-aminopyrimidine", "4,6-Dichloropyrimidin-5-ylamine", "NSC 7851"], "SMILES": "NC=1C(Cl)=NC=NC1Cl", "physical_data": {"Molecular Weight": "163.99", "Molecular Formula": "C4H3Cl2N3", "Melting Point": "145 \u00b0C"}}