{"cas_no": "54135-80-7", "cn_name": "2,3,4-\u4e09\u6c2f\u82ef\u7532\u919a", "en_name": ["2,3,4-Trichloroanisole", "Benzene, 1,2,3-trichloro-4-methoxy-", "1,2,3-Trichloro-4-methoxybenzene", "2,3,4-Trichloroanisole", "1-Methoxy-2,3,4-trichlorobenzene", "2,3,4-Trichloroanisol"], "SMILES": "O(C)C1=C(Cl)C(Cl)=C(Cl)C=C1", "physical_data": {"Molecular Weight": "211.47", "Molecular Formula": "C7H5Cl3O", "Melting Point": "69-70 \u00b0C"}}