{"cas_no": "54143-56-5", "cn_name": "\u918b\u9178\u6d17\u5fc5\u592a", "en_name": ["Flecainide acetate", "Benzamide, N-(2-piperidinylmethyl)-2,5-bis(2,2,2-trifluoroethoxy)-, acetate (1:1)", "Benzamide, N-(2-piperidinylmethyl)-2,5-bis(2,2,2-trifluoroethoxy)-, monoacetate", "R 818", "Flecainide acetate", "(\u00b1)-Flecainide acetate", "Tambocor", "2,5-Bis(2,2,2-trifluoroethoxy)-N-(2-piperidylmethyl)benzamide acetate", "Apocard", "Ecrinal", "Almarytm", "R 818 (pharmaceutical)"], "SMILES": "C(C)(O)=O.C(NCC1CCCCN1)(=O)C2=C(OCC(F)(F)F)C=CC(OCC(F)(F)F)=C2", "physical_data": {"Molecular Weight": "", "Molecular Formula": "C17H20F6N2O3.C2H4O2", "Melting Point": "145-147 \u00b0C"}}