{"cas_no": "5414-21-1", "cn_name": "5-\u6eb4\u620a\u8148", "en_name": ["5-Bromovaleronitrile", "Pentanenitrile, 5-bromo-", "Valeronitrile, 5-bromo-", "5-Bromopentanenitrile", "5-Bromovaleronitrile", "1-Cyano-4-bromobutane", "\u03b4-Bromovaleronitrile", "1-Bromo-4-cyanobutane", "NSC 8032", "4-Cyanobutyl bromide"], "SMILES": "C(CCBr)CC#N", "physical_data": {"Molecular Weight": "162.03", "Molecular Formula": "C5H8BrN", "Boiling Point": "110-111 \u00b0C @ Press: 11 Torr", "Density": "1.3989 g/cm\u00b3 @ Temp: 20 \u00b0C"}}