{"cas_no": "54149-17-6", "cn_name": "1-\u6eb4-2-(2-\u7532\u6c27\u57fa\u4e59\u6c27\u57fa)\u4e59\u70f7", "en_name": ["1-Bromo-2-(2-methoxyethoxy)ethane", "Ethane, 1-(2-bromoethoxy)-2-methoxy-", "1-(2-Bromoethoxy)-2-methoxyethane", "2-(2-Methoxyethoxy)ethyl bromide", "2-Bromoethyl 2-methoxyethyl ether", "1-Bromo-3,6-dioxaheptane", "1-Bromo-2-(2-methoxyethoxy)ethane", "7-Bromo-2,5-dioxaheptane", "1-Bromo-2-[1-[2-(methyloxy)ethyl]oxy]ethane", "1-Bromo-2-[[2-(methyloxy)ethyl]oxy]ethane", "2-(2\u2032-Methoxyethoxy)ethyl bromide"], "SMILES": "C(OCCBr)COC", "physical_data": {"Molecular Weight": "183.04", "Molecular Formula": "C5H11BrO2", "Boiling Point": "90-95 \u00b0C @ Press: 27 Torr"}}