{"cas_no": "54143-55-4", "cn_name": "\u6c1f\u5361\u5c3c", "en_name": ["Flecainide", "Benzamide, N-(2-piperidinylmethyl)-2,5-bis(2,2,2-trifluoroethoxy)-", "N-(2-Piperidinylmethyl)-2,5-bis(2,2,2-trifluoroethoxy)benzamide", "Flecainide", "(\u00b1)-Flecainide", "Flecaine", "MeSH ID: D005424"], "SMILES": "C(NCC1CCCCN1)(=O)C2=C(OCC(F)(F)F)C=CC(OCC(F)(F)F)=C2", "physical_data": {"Molecular Weight": "414.34", "Molecular Formula": "C17H20F6N2O3", "Melting Point": "145-147 \u00b0C"}}