{"cas_no": "5414-19-7", "cn_name": "2,2'-\u4e8c\u6eb4\u4e8c\u4e59\u919a", "en_name": ["2-Bromoethyl ether", "Ethane, 1,1\u2032-oxybis[2-bromo-", "Ether, bis(2-bromoethyl)", "1,1\u2032-Oxybis[2-bromoethane]", "\u03b2,\u03b2\u2032-Dibromodiethyl ether", "Bis(2-bromoethyl) ether", "2,2\u2032-Dibromodiethyl ether", "1,5-Dibromo-3-oxapentane", "Bromex", "3-Oxa-1,5-dibromopentane", "Bis(\u03b2-bromoethyl) ether", "2-(2-Bromoethoxy)ethyl bromide", "Di(2-bromoethyl) ether", "2-Bromoethyl ether", "NSC 8025", "1-(2-Bromoethoxy)-2-bromoethane", "1-Bromo-2-(2-bromoethoxy)ethane", "L 11510"], "SMILES": "O(CCBr)CCBr", "physical_data": {"Molecular Weight": "231.91", "Molecular Formula": "C4H8Br2O", "Boiling Point": "115 \u00b0C", "Density": "1.8222 g/cm\u00b3 @ Temp: 27 \u00b0C"}}