{"cas_no": "54151-74-5", "cn_name": "2-\u6eb4-4-\u82ef\u57fa\u5421\u5576", "en_name": ["2-Bromo-4-phenylpyridine", "Pyridine, 2-bromo-4-phenyl-", "2-Bromo-4-phenylpyridine", "4-Phenyl-2-bromopyridine"], "SMILES": "BrC1=CC(=CC=N1)C2=CC=CC=C2", "physical_data": {"Molecular Weight": "234.09", "Molecular Formula": "C11H8BrN", "Melting Point": "65-66 \u00b0C"}}