{"cas_no": "5415-44-1", "cn_name": "1,3,7-\u4e09\u7532\u57fa\u5c3f\u9178", "en_name": ["1,3,7-Trimethyluric acid", "1H-Purine-2,6,8(3H)-trione, 7,9-dihydro-1,3,7-trimethyl-", "Uric acid, 1,3,7-trimethyl-", "7,9-Dihydro-1,3,7-trimethyl-1H-purine-2,6,8(3H)-trione", "1,3,7-Trimethyluric acid", "Ba 2753", "NSC 11259", "NSC 95858", "1,3,7-Trimethyl-9H-purine-2,6,8-trione", "1,3,7-Trimethyl-1H-purine-2,6,8(3H,7H,9H)-trione"], "SMILES": "CN1C2=C(C(=O)N(C)C1=O)N(C)C(=O)N2", "physical_data": {"Molecular Weight": "210.19", "Molecular Formula": "C8H10N4O3", "Melting Point": "258-260 \u00b0C"}}