{"cas_no": "541508-27-4", "cn_name": "1-(5-\u6c2f-2-\u6c1f\u82ef)\u4e59\u916e", "en_name": ["1-(5-Chloro-2-fluorophenyl)ethanone", "Ethanone, 1-(5-chloro-2-fluorophenyl)-", "1-(5-Chloro-2-fluorophenyl)ethanone"], "SMILES": "C(C)(=O)C1=C(F)C=CC(Cl)=C1", "physical_data": {"Molecular Weight": "172.58", "Molecular Formula": "C8H6ClFO", "Boiling Point": "100-105 \u00b0C @ Press: 8 Torr"}}