{"cas_no": "5416-93-3", "cn_name": "\u5bf9\u7532\u6c27\u57fa\u82ef\u5f02\u6c30\u9178\u916f", "en_name": ["4-Methoxyphenyl isocyanate", "Benzene, 1-isocyanato-4-methoxy-", "Isocyanic acid, p-methoxyphenyl ester", "1-Isocyanato-4-methoxybenzene", "Anisole, p-isocyanato-", "p-Methoxyphenyl isocyanate", "p-Anisyl isocyanate", "4-Methoxyphenyl isocyanate", "4-Anisyl isocyanate", "4-Isocyanatoanisole", "NSC 7321"], "SMILES": "N(=C=O)C1=CC=C(OC)C=C1", "physical_data": {"Molecular Weight": "149.15", "Molecular Formula": "C8H7NO2", "Boiling Point": "47.6-47.8 \u00b0C @ Press: 9.5 Torr", "Melting Point": "101 \u00b0C"}}