{"cas_no": "5416-71-7", "cn_name": "3,4-DIMETHOXYCHALCONE", "en_name": ["3-(3,4-Dimethoxyphenyl)-1-phenyl-2-propen-1-one", "2-Propen-1-one, 3-(3,4-dimethoxyphenyl)-1-phenyl-", "Chalcone, 3,4-dimethoxy-", "3-(3,4-Dimethoxyphenyl)-1-phenyl-2-propen-1-one", "3,4-Dimethoxychalcone", "3,4-Dimethoxystyryl phenyl ketone", "1-Phenyl-3-(3,4-dimethoxyphenyl)-2-propen-1-one", "NSC 11868", "NSC 204995", "NSC 643172", "3-(3,4-Dimethoxyphenyl)-1-phenylprop-2-en-1-one"], "SMILES": "C(=CC(=O)C1=CC=CC=C1)C2=CC(OC)=C(OC)C=C2", "physical_data": {"Molecular Weight": "268.31", "Molecular Formula": "C17H16O3", "Melting Point": "88 \u00b0C"}}