{"cas_no": "5416-80-8", "cn_name": "2-\u7532\u57fa\u5432\u54da-3-\u7532\u919b", "en_name": ["2-Methylindole-3-carboxaldehyde", "1H-Indole-3-carboxaldehyde, 2-methyl-", "Indole-3-carboxaldehyde, 2-methyl-", "2-Methyl-1H-indole-3-carboxaldehyde", "2-Methylindole-3-carboxaldehyde", "3-Formyl-2-methylindole", "2-Methyl-3-formylindole", "NSC 11895", "2-Methyl-1H-indole-3-carbaldehyde"], "SMILES": "C(=O)C=1C=2C(NC1C)=CC=CC2", "physical_data": {"Molecular Weight": "159.18", "Molecular Formula": "C10H9NO", "Melting Point": "196 \u00b0C"}}