{"cas_no": "5417-82-3", "cn_name": "1-\u6c27\u57fa\u9a6c\u6765\u8148", "en_name": ["2-(1-Ethoxyethylidene)propanedinitrile", "Propanedinitrile, 2-(1-ethoxyethylidene)-", "Propanedinitrile, (1-ethoxyethylidene)-", "Malononitrile, (1-ethoxyethylidene)-", "2-(1-Ethoxyethylidene)propanedinitrile", "1-Ethoxyethylidenemalononitrile", "2-Cyano-3-ethoxy-3-methylacrylonitrile", "\u03b1-Cyano-\u03b2-methyl-\u03b2-ethoxyacrylonitrile", "NSC 11585", "2-(1-Ethoxyethylidene)malononitrile", "(1-Ethoxyethylidene)malonitrile"], "SMILES": "C(=C(OCC)C)(C#N)C#N", "physical_data": {"Molecular Weight": "136.15", "Molecular Formula": "C7H8N2O", "Boiling Point": "120 \u00b0C @ Press: 2 Torr", "Melting Point": "91 \u00b0C"}}