{"cas_no": "5417-63-0", "cn_name": "3-\u6c28\u57fa-2-\u8418\u915a", "en_name": ["3-Amino-2-naphthol", "2-Naphthalenol, 3-amino-", "2-Naphthol, 3-amino-", "3-Amino-2-naphthalenol", "3-Amino-2-naphthol", "2-Amino-3-naphthol", "2-Amino-3-hydroxynaphthalene", "3-Hydroxy-2-naphthylamine", "3-Amino-\u03b2-naphthol", "3-Hydroxy-2-aminonaphthalene", "3-Amino-2-hydroxynaphthalene", "NSC 7941"], "SMILES": "NC1=CC2=C(C=C1O)C=CC=C2", "physical_data": {"Molecular Weight": "159.18", "Molecular Formula": "C10H9NO", "Melting Point": "205 \u00b0C"}}