{"cas_no": "5417-17-4", "cn_name": "2-\u6c2f-3,4-\u4e8c\u7532\u6c27\u57fa\u82ef\u7532\u919b", "en_name": ["2-Chloro-3,4-dimethoxybenzaldehyde", "Benzaldehyde, 2-chloro-3,4-dimethoxy-", "Veratraldehyde, 2-chloro-", "2-Chloro-3,4-dimethoxybenzaldehyde", "2-Chloroveratraldehyde", "NSC 7375"], "SMILES": "O(C)C1=C(OC)C=CC(C=O)=C1Cl", "physical_data": {"Molecular Weight": "200.62", "Molecular Formula": "C9H9ClO3", "Melting Point": "69-70 \u00b0C"}}