{"cas_no": "5418-63-3", "cn_name": "1,2,3,3-\u56db\u7532\u57fa-3H-\u5432\u54da\u7898\u5316\u7269", "en_name": ["1,2,3,3-Tetramethyl-3H-indolium iodide", "3H-Indolium, 1,2,3,3-tetramethyl-, iodide (1:1)", "3H-Indolium, 1,2,3,3-tetramethyl-, iodide", "1,2,3,3-Tetramethyl-3H-indolium iodide", "2,3,3-Trimethyl-3H-indole methiodide", "1,2,3,3-Tetramethylindolium iodide", "1,2,3,3-Tetramethyl-3H-indol-1-ium iodide", "1-Methyl-2,3,3-trimethyl-3H-indolium", "1,2,3,3-Tetramethyl-3H-indolinium iodide"], "SMILES": "C[N+]=1C=2C(C(C)(C)C1C)=CC=CC2.[I-]", "physical_data": {"Molecular Weight": "", "Molecular Formula": "C12H16N.I", "Melting Point": "260 \u00b0C"}}