{"cas_no": "5418-51-9", "cn_name": "2-\u7f9f\u57fa-5-\u785d\u57fa\u5421\u5576", "en_name": ["5-Nitro-2(1H)-pyridinone", "2(1H)-Pyridinone, 5-nitro-", "2-Pyridinol, 5-nitro-", "2-Pyridol, 5-nitro-", "5-Nitro-2(1H)-pyridinone", "5-Nitro-2-pyridinol", "2-Hydroxy-5-nitropyridine", "5-Nitro-2-hydroxypyridine", "5-Nitro-2-pyridone", "5-Nitro-2-pyridinone", "5-Nitro-2(1H)-pyridone", "NSC 10478", "NSC 165495", "NSC 165496", "NSC 9454"], "SMILES": "N(=O)(=O)C=1C=CC(=O)NC1", "physical_data": {"Molecular Weight": "140.10", "Molecular Formula": "C5H4N2O3", "Melting Point": "184 \u00b0C"}}