{"cas_no": "5418-93-9", "cn_name": "5-\u6c2f-1H-\u82ef\u5e76\u54aa\u5511-2-\u80fa", "en_name": ["2-Amino-5-chlorobenzimidazole", "1H-Benzimidazol-2-amine, 6-chloro-", "Benzimidazole, 2-amino-5-chloro-", "1H-Benzimidazol-2-amine, 5-chloro-", "Benzimidazole, 2-amino-5(or 6)-chloro-", "6-Chloro-1H-benzimidazol-2-amine", "2-Amino-5-chlorobenzimidazole", "2-Amino-6-chlorobenzimidazole", "5-Chloro-2-benzimidazolamine", "5-Chloro-2-aminobenzimidazole", "2-Amino-5-chloro-1H-benzimidazole", "NSC 10545", "5-Chlorobenzoimidazol-2-ylamine", "5-Chloro-1H-benzimidazol-2-amine", "6-Chloro-1H-benzo[d]imidazol-2-amine"], "SMILES": "NC=1NC=2C(N1)=CC(Cl)=CC2", "physical_data": {"Molecular Weight": "167.60", "Molecular Formula": "C7H6ClN3", "Melting Point": "167-168 \u00b0C"}}