{"cas_no": "54189-82-1", "cn_name": "6-\u6c2f-N-\u7532\u57fa-\u70df\u9170\u80fa", "en_name": ["6-Chloro-N-methylnicotinamide", "3-Pyridinecarboxamide, 6-chloro-N-methyl-", "6-Chloro-N-methyl-3-pyridinecarboxamide", "6-Chloro-N-methylnicotinamide", "2-Chloro-5-N-methylcarbamoylpyridine", "2-Chloro-N-methyl-5-pyridinecarboxamide"], "SMILES": "C(NC)(=O)C=1C=CC(Cl)=NC1", "physical_data": {"Molecular Weight": "170.60", "Molecular Formula": "C7H7ClN2O", "Melting Point": "152.8-153.4 \u00b0C"}}