{"cas_no": "5418-95-1", "cn_name": "2-\u80cd\u5576\u82ef\u5e76\u54aa\u5511", "en_name": ["2-Guanidinobenzimidazole", "Guanidine, N-1H-benzimidazol-2-yl-", "Guanidine, (2-benzimidazolyl)-", "Guanidine, 1H-benzimidazol-2-yl-", "N-1H-Benzimidazol-2-ylguanidine", "2-Guanidinobenzimidazole", "2-Benzimidazolylguanidine", "NSC 10548", "(1H-Benzimidazol-2-yl)guanidine", "1-(1H-1,3-Benzimidazol-2-yl)guanidine", "1-(1H-1,3-Benzodiazol-2-yl)guanidine", "1-(1H-Benzo[d]imidazol-2-yl)guanidine", "1-(1H-Benzimidazol-2-yl)guanidine", "2-(1H-Benzimidazol-2-yl)guanidine"], "SMILES": "N(C(=N)N)C=1NC=2C(N1)=CC=CC2", "physical_data": {"Molecular Weight": "175.19", "Molecular Formula": "C8H9N5", "Melting Point": "245 \u00b0C (decomp)"}}