{"cas_no": "54187-04-1", "cn_name": "\u5229\u7f8e\u5c3c\u5576", "en_name": ["Rilmenidine", "2-Oxazolamine, N-(dicyclopropylmethyl)-4,5-dihydro-", "N-(Dicyclopropylmethyl)-4,5-dihydro-2-oxazolamine", "S 3341", "Rilmenidine", "Oxaminozoline", "Rilmenidene", "NSC 664312"], "SMILES": "C(NC1=NCCO1)(C2CC2)C3CC3", "physical_data": {"Molecular Weight": "180.25", "Molecular Formula": "C10H16N2O", "Melting Point": "106-107 \u00b0C"}}