{"cas_no": "54198-71-9", "cn_name": "2-\u7f9f\u57fa\u4e59\u8112\u76d0\u9178\u76d0", "en_name": ["Ethanimidamide, 2-hydroxy-, hydrochloride (1:1)", "Ethanimidamide, 2-hydroxy-, hydrochloride (1:1)", "Ethanimidamide, 2-hydroxy-, monohydrochloride", "Glycolamidine, hydrochloride", "2-Hydroxyacetamidine hydrochloride", "Hydroxyacetamidine hydrochloride", "2-Hydroxyacetimidamide hydrochloride"], "SMILES": "C(CO)(=N)N.Cl", "physical_data": {"Molecular Weight": "", "Molecular Formula": "C2H6N2O.ClH", "Melting Point": "150-151 \u00b0C"}}