{"cas_no": "5419-55-6", "cn_name": "\u787c\u9178\u4e09\u5f02\u4e19\u916f", "en_name": ["Triisopropyl borate", "Boric acid (H3BO3), tris(1-methylethyl) ester", "Boric acid (H3BO3), triisopropyl ester", "Isopropyl borate", "Isopropyl borate ((C3H7O)3B)", "Triisopropyl borate", "Boron isopropoxide", "Triisopropoxyboron", "Boron triisopropoxide", "Triisopropyl orthoborate", "Triisopropoxyborane", "Trisisopropoxyborane", "Boric acid triisopropyl ester", "NSC 9779", "Tris(1-methylethyl) borate", "Tris(propan-2-yl)borate", "T 819120"], "SMILES": "B(OC(C)C)(OC(C)C)OC(C)C", "physical_data": {"Molecular Weight": "188.07", "Molecular Formula": "C9H21BO3", "Boiling Point": "140 \u00b0C", "Density": "0.815 g/cm\u00b3"}}