{"cas_no": "54197-66-9", "cn_name": "6-\u7f9f\u57fa-3,4-\u4e8c\u6c22-2(1H)-\u55b9\u8bfa\u916e", "en_name": ["6-Hydroxy-3,4-dihydro-2(1H)-quinolinone", "2(1H)-Quinolinone, 3,4-dihydro-6-hydroxy-", "Carbostyril, 3,4-dihydro-6-hydroxy-", "Hydrocarbostyril, 6-hydroxy-", "3,4-Dihydro-6-hydroxy-2(1H)-quinolinone", "6-Hydroxy-3,4-dihydrocarbostyril", "6-Hydroxy-1,2,3,4-tetrahydro-2-quinolinone", "3,4-Dihydro-6-hydroxycarbostyril", "6-Hydroxy-2-oxo-1,2,3,4-tetrahydroquinoline", "6-Hydroxy-3,4-dihydro-2(1H)-quinolinone", "6-Hydroxy-3,4-dihydro-1H-quinolin-2-one", "2-Oxo-1,2,3,4-tetrahydroquinolin-6-ol", "3,4-Dihydroquinoline-2,6-diol"], "SMILES": "OC=1C=C2C(NC(=O)CC2)=CC1", "physical_data": {"Molecular Weight": "163.17", "Molecular Formula": "C9H9NO2", "Melting Point": "230 \u00b0C"}}