{"cas_no": "542-02-9", "cn_name": "\u7532\u57fa\u80cd\u80fa", "en_name": ["Acetoguanamine", "1,3,5-Triazine-2,4-diamine, 6-methyl-", "s-Triazine, 2,4-diamino-6-methyl-", "6-Methyl-1,3,5-triazine-2,4-diamine", "Acetoguanamine", "2,4-Diamino-6-methyl-s-triazine", "ENT 50715", "2,4-Diamino-6-methyl-1,3,5-triazine", "2-Methyl-4,6-diamino-s-triazine", "2,6-Diamino-4-methyl-s-triazine", "NSC 257", "6-Methylguanamine", "6-Methyl-2,4-diamino-1,3,5-triazine", "2-Methyl-4,6-diamino-1,3,5-triazine"], "SMILES": "CC=1N=C(N)N=C(N)N1", "physical_data": {"Molecular Weight": "125.13", "Molecular Formula": "C4H7N5", "Melting Point": "263 \u00b0C"}}