{"cas_no": "542-18-7", "cn_name": "\u6c2f\u4ee3\u73af\u5df1\u70f7", "en_name": ["Chlorocyclohexane", "Cyclohexane, chloro-", "Chlorocyclohexane", "Cyclohexyl chloride", "Monochlorocyclohexane", "NSC 8434"], "SMILES": "ClC1CCCCC1", "physical_data": {"Molecular Weight": "118.60", "Molecular Formula": "C6H11Cl", "Boiling Point": "142 \u00b0C", "Melting Point": "-44.0 \u00b0C", "Density": "1.000 g/cm\u00b3 @ Temp: 20 \u00b0C"}}