{"cas_no": "542-59-6", "cn_name": "1,2-\u4e59\u4e8c\u9187\u5355\u4e59\u9178\u916f", "en_name": ["Glycol monoacetate", "1,2-Ethanediol, 1-acetate", "Ethylene glycol, monoacetate", "1,2-Ethanediol, monoacetate", "Glycol monoacetate", "2-Hydroxyethyl acetate", "2-Acetoxyethanol", "\u03b2-Hydroxyethyl acetate", "Ethylenediol monoacetate", "Monoacetyl ethylene glycol", "NSC 9234", "Ethylene glycol monoacetate", "1-O-Acetyl Ethylene Glycol"], "SMILES": "O(C(C)=O)CCO", "physical_data": {"Molecular Weight": "104.10", "Molecular Formula": "C4H8O3", "Boiling Point": "188 \u00b0C", "Density": "1.1186 g/cm\u00b3 @ Temp: 10.01 \u00b0C"}}