{"cas_no": "542-11-0", "cn_name": "\u82ef\u80fa\u6c22\u6eb4\u9178\u76d0", "en_name": ["Benzenamine, hydrobromide (1:1)", "Benzenamine, hydrobromide (1:1)", "Aniline, hydrobromide", "Benzenamine, hydrobromide", "Aniline bromide", "Anilinium bromide", "Phenylammonium bromide"], "SMILES": "NC1=CC=CC=C1.Br", "physical_data": {"Molecular Weight": "", "Molecular Formula": "C6H7N.BrH", "Melting Point": "283 \u00b0C (decomp)"}}