{"cas_no": "542-85-8", "cn_name": "\u5f02\u786b\u6c30\u9178\u4e59\u916f", "en_name": ["Ethyl isothiocyanate", "Ethane, isothiocyanato-", "Isothiocyanic acid, ethyl ester", "Isothiocyanatoethane", "Ethyl isothiocyanate", "Ethyl mustard oil", "NSC 84212", "Ethyl thioisocyanate", "1-Isothiocyanatoethane"], "SMILES": "N(CC)=C=S", "physical_data": {"Molecular Weight": "87.14", "Molecular Formula": "C3H5NS", "Boiling Point": "131.5 \u00b0C", "Melting Point": "-5.9 \u00b0C"}}