{"cas_no": "542-28-9", "cn_name": "delta-\u620a\u5185\u916f", "en_name": ["\u03b4-Valerolactone", "2H-Pyran-2-one, tetrahydro-", "Valeric acid, 5-hydroxy-, \u03b4-lactone", "Tetrahydro-2H-pyran-2-one", "\u03b4-Valerolactone", "Pentanoic acid, 5-hydroxy-, \u03b4-lactone", "Tetrahydro-2-pyranone", "5-Valerolactone", "5-Hydroxypentanoic acid \u03b4-lactone", "\u03b4-Valeryllactone", "1-Oxacyclohexan-2-one", "2-Oxotetrahydropyran", "5-Hydroxypentanoic acid lactone", "NSC 6247", "Pentan-5-olide", "Oxan-2-one"], "SMILES": "O=C1CCCCO1", "physical_data": {"Molecular Weight": "100.12", "Molecular Formula": "C5H8O2", "Boiling Point": "219 \u00b0C", "Melting Point": "-12.5 \u00b0C", "Density": "1.1130 g/cm\u00b3 @ Temp: 20 \u00b0C"}}