{"cas_no": "542-76-7", "cn_name": "3-\u6c2f\u4e19\u8148", "en_name": ["3-Chloropropanenitrile", "Propanenitrile, 3-chloro-", "Propionitrile, 3-chloro-", "3-Chloropropanenitrile", "3-Chloropropanonitrile", "\u03b2-Chloropropionitrile", "3-Chloropropionitrile", "1-Chloro-2-cyanoethane", "2-Cyanoethyl chloride", "NSC 2588"], "SMILES": "C(CCl)C#N", "physical_data": {"Molecular Weight": "89.52", "Molecular Formula": "C3H4ClN", "Boiling Point": "175-176 \u00b0C", "Melting Point": "-51 \u00b0C", "Density": "1.1573 g/cm\u00b3 @ Temp: 20 \u00b0C"}}