{"cas_no": "542-46-1", "cn_name": "\u7075\u732b\u916e", "en_name": ["Civetone", "9-Cycloheptadecen-1-one, (9Z)-", "9-Cycloheptadecen-1-one, (Z)-", "Civetone", "(9Z)-9-Cycloheptadecen-1-one", "cis-Civetone", "(Z)-Cycloheptadec-9-enone", "(Z)-Civetone"], "SMILES": "O=C1CCCCCCCC=CCCCCCCC1", "physical_data": {"Molecular Weight": "250.42", "Molecular Formula": "C17H30O", "Boiling Point": "343 \u00b0C", "Melting Point": "32.5 \u00b0C", "Density": "0.917 g/cm\u00b3 @ Temp: 334 \u00b0C"}}