{"cas_no": "542-32-5", "cn_name": "2-\u6c28\u57fa\u5df1\u4e8c\u9178\u6c34\u5408\u7269", "en_name": ["\u03b1-Aminoadipic acid", "Hexanedioic acid, 2-amino-", "2-Aminohexanedioic acid", "\u03b1-Aminoadipic acid", "2-Aminoadipic acid", "2-Aminoadipate", "DL-\u03b1-Aminoadipic acid", "DL-2-Aminohexanedioic acid", "DL-2-Aminoadipic acid", "(\u00b1)-2-Aminoadipic acid", "NSC 46994", "(\u00b1)-\u03b1-Aminoadipic acid"], "SMILES": "C(C(C(O)=O)N)CCC(O)=O", "physical_data": {"Molecular Weight": "161.16", "Molecular Formula": "C6H11NO4", "Melting Point": "185-189 \u00b0C (decomp)"}}