{"cas_no": "542-54-1", "cn_name": "4-\u7532\u57fa\u620a\u8148", "en_name": ["4-Methylpentanenitrile", "Pentanenitrile, 4-methyl-", "Valeronitrile, 4-methyl-", "4-Methylpentanenitrile", "Isoamyl cyanide", "Isocapronitrile", "4-Methylvaleronitrile", "4-Methylpentanonitrile", "Isohexanonitrile", "Isopentyl cyanide", "NSC 6109", "Isopentylnitrile", "4-Methylpentenenitrile"], "SMILES": "C(C(C)C)CC#N", "physical_data": {"Molecular Weight": "97.16", "Molecular Formula": "C6H11N", "Boiling Point": "156.5 \u00b0C", "Melting Point": "-51 \u00b0C", "Density": "0.8009 g/cm\u00b3 @ Temp: 20 \u00b0C"}}