{"cas_no": "542-88-1", "cn_name": "\u4e8c\u6c2f\u7532\u57fa\u919a", "en_name": ["Chloromethyl ether", "Methane, 1,1\u2032-oxybis[1-chloro-", "Ether, bis(chloromethyl)", "Methane, oxybis[chloro-", "1,1\u2032-Oxybis[1-chloromethane]", "Bis(chloromethyl) ether", "Chloromethyl ether", "sym-Dichloromethyl ether", "Dichlorodimethyl ether", "\u03b1,\u03b1\u2032-Dichlorodimethyl ether", "Monochloromethyl ether", "Oxybis[chloromethane]", "BCME", "MeSH ID: D001725"], "SMILES": "O(CCl)CCl", "physical_data": {"Molecular Weight": "114.96", "Molecular Formula": "C2H4Cl2O", "Boiling Point": "106 \u00b0C", "Melting Point": "-41.5 \u00b0C", "Density": "1.323 g/cm\u00b3 @ Temp: 15 \u00b0C"}}