{"cas_no": "542-92-7", "cn_name": "\u73af\u620a\u4e8c\u70ef", "en_name": ["Cyclopentadiene", "1,3-Cyclopentadiene", "R-Pentine", "Pentole", "Pyropentylene", "Cyclopentadiene"], "SMILES": "C1C=CC=C1", "physical_data": {"Molecular Weight": "66.10", "Molecular Formula": "C5H6", "Boiling Point": "41.5-42.1 \u00b0C @ Press: 760 Torr", "Melting Point": "-85 \u00b0C", "Density": "0.8021 g/cm\u00b3 @ Temp: 20 \u00b0C"}}