{"cas_no": "542-08-5", "cn_name": "\u4e59\u9170\u4e59\u9178\u5f02\u4e19\u916f", "en_name": ["Isopropyl acetoacetate", "Butanoic acid, 3-oxo-, 1-methylethyl ester", "Acetoacetic acid, isopropyl ester", "Isopropyl acetoacetate", "Isopropyl 3-oxobutanoate", "Isopropyl 3-oxobutyrate", "3-Oxobutanoic acid 1-methylethyl ester", "3-Oxobutanoic acid isopropyl ester"], "SMILES": "C(C(OC(C)C)=O)C(C)=O", "physical_data": {"Molecular Weight": "144.17", "Molecular Formula": "C7H12O3", "Boiling Point": "186 \u00b0C", "Melting Point": "-27.3 \u00b0C", "Density": "0.9835 g/cm\u00b3 @ Temp: 25 \u00b0C"}}