{"cas_no": "542-05-2", "cn_name": "1,3-\u4e19\u916e\u4e8c\u7fa7\u9178", "en_name": ["3-Oxopentanedioic acid", "Pentanedioic acid, 3-oxo-", "Glutaric acid, 3-oxo-", "Glutaric acid, \u03b2-oxo-", "3-Oxopentanedioic acid", "s-Acetonedicarboxylic acid", "\u03b2-Ketoglutaric acid", "3-Oxoglutaric acid", "Acetone-1,3-dicarboxylic acid", "1,3-Dicarboxyacetone", "\u03b2-Oxoglutaric acid", "3-Ketoglutaric acid"], "SMILES": "C(C(CC(O)=O)=O)C(O)=O", "physical_data": {"Molecular Weight": "146.10", "Molecular Formula": "C5H6O5", "Melting Point": "138 \u00b0C (decomp)"}}