{"cas_no": "542-75-6", "cn_name": "1,3-\u4e8c\u6c2f\u4e19\u70ef", "en_name": ["1,3-Dichloropropene", "1-Propene, 1,3-dichloro-", "Propene, 1,3-dichloro-", "1,3-Dichloro-1-propene", "1,3-Dichloropropene", "\u03b1,\u03b3-Dichloropropylene", "1,3-Dichloropropylene", "\u03b3-Chloroallyl chloride", "Telone", "1,3-D", "1,3-Dichloro-2-propene", "3-Chloropropenyl chloride", "3-Chloroallyl chloride", "Telone II", "Telone II-B", "DD 95", "D-D 92", "Telone 92", "NSC 6202", "Dorlane II", "Telone EC"], "SMILES": "C(CCl)=CCl", "physical_data": {"Molecular Weight": "110.97", "Molecular Formula": "C3H4Cl2", "Boiling Point": "108 \u00b0C", "Melting Point": "&lt;-50 \u00b0C", "Density": "1.220 g/cm\u00b3 @ Temp: 25 \u00b0C"}}