{"cas_no": "542-55-2", "cn_name": "\u7532\u9178\u5f02\u4e01\u916f", "en_name": ["Isobutyl formate", "Formic acid, 2-methylpropyl ester", "Formic acid, isobutyl ester", "Tetryl formate", "2-Methylpropyl formate", "Isobutyl formate", "NSC 6968", "Iso-butyl methanoate"], "SMILES": "C(C(C)C)OC=O", "physical_data": {"Molecular Weight": "102.13", "Molecular Formula": "C5H10O2", "Boiling Point": "98.2 \u00b0C", "Melting Point": "-95.8 \u00b0C", "Density": "0.90660 g/cm\u00b3 @ Temp: 0 \u00b0C"}}