{"cas_no": "542-81-4", "cn_name": "2-\u6c2f\u4e59\u57fa\u7532\u57fa\u786b\u919a", "en_name": ["2-Chloroethyl methyl sulfide", "Ethane, 1-chloro-2-(methylthio)-", "Sulfide, 2-chloroethyl methyl", "2-Chloroethyl methyl sulfide", "2-Chloroethyl methyl thioether", "Methyl \u03b2-chloroethyl sulfide", "2-(Methylthio)ethyl chloride", "1-Chloro-2-(methylthio)ethane", "\u03b2-(Methylthio)ethyl chloride", "Methyl 2-chloroethyl sulfide", "\u03b2-Chloroethyl methylsulfide", "4-Chloro-2-thiabutane", "NSC 91724", "1-Chloro-2-methylsulfanylethane", "2-(Methylsulfanyl)ethyl chloride", "(2-Chloroethyl)(methyl)sulfane"], "SMILES": "C(CCl)SC", "physical_data": {"Molecular Weight": "110.61", "Molecular Formula": "C3H7ClS", "Boiling Point": "55-57 \u00b0C @ Press: 30 Torr"}}