{"cas_no": "542-69-8", "cn_name": "1-\u7898\u4e01\u70f7", "en_name": ["Butyl iodide", "Butane, 1-iodo-", "1-Iodobutane", "Butyl iodide", "n-Butyl iodide", "NSC 8420", "1-Iodo-n-butane", "4-Iodobutane", "Butyl iodo"], "SMILES": "C(CC)CI", "physical_data": {"Molecular Weight": "184.02", "Molecular Formula": "C4H9I", "Boiling Point": "130.6 \u00b0C", "Melting Point": "-103 \u00b0C", "Density": "1.6171 g/cm\u00b3 @ Temp: 20 \u00b0C"}}