{"cas_no": "542-10-9", "cn_name": "\u4e59\u70ef\u4e8c\u4e59\u916f", "en_name": ["Ethylidene diacetate", "1,1-Ethanediol, 1,1-diacetate", "1,1-Ethanediol, diacetate", "1,1-Diacetoxyethane", "Ethylidene diacetate", "Ethylidene acetate", "NSC 8852", "1-(Acetyloxy)ethyl acetate", "1-Acetyloxyethyl acetate"], "SMILES": "O(C(OC(C)=O)C)C(C)=O", "physical_data": {"Molecular Weight": "146.14", "Molecular Formula": "C6H10O4", "Boiling Point": "169 \u00b0C", "Melting Point": "18.9 \u00b0C"}}