{"cas_no": "542-90-5", "cn_name": "\u786b\u6c30\u9178\u4e59\u916f", "en_name": ["Ethyl thiocyanate", "Thiocyanic acid, ethyl ester", "Ethyl sulfocyanate", "Ethyl thiocyanate", "NSC 8827"], "SMILES": "S(CC)C#N", "physical_data": {"Molecular Weight": "87.14", "Molecular Formula": "C3H5NS", "Boiling Point": "146 \u00b0C", "Melting Point": "-85.5 \u00b0C", "Density": "1.0071 g/cm\u00b3 @ Temp: 23 \u00b0C"}}