{"cas_no": "542-58-5", "cn_name": "2-\u6c2f\u4e59\u9178\u4e59\u916f", "en_name": ["2-Chloroethyl acetate", "Ethanol, 2-chloro-, 1-acetate", "Ethanol, 2-chloro-, acetate", "2-Chloroethyl acetate", "\u03b2-Chloroethyl acetate", "2-Acetoxy-1-chloroethane", "2-Acetoxyethyl chloride", "1-Acetoxy-2-chloroethane", "Acetic acid 2-chloroethyl ester", "2-Chloroethanol acetate", "NSC 77374"], "SMILES": "O(C(C)=O)CCCl", "physical_data": {"Molecular Weight": "122.55", "Molecular Formula": "C4H7ClO2", "Boiling Point": "145 \u00b0C", "Density": "1.178 g/cm\u00b3"}}