{"cas_no": "542-56-3", "cn_name": "\u4e9a\u785d\u9178\u5f02\u4e01\u916f", "en_name": ["Isobutyl nitrite", "Nitrous acid, 2-methylpropyl ester", "Nitrous acid, isobutyl ester", "Isobutyl nitrite", "iso-Butyl nitrite", "Blackjack", "2-Methylpropyl nitrite"], "SMILES": "C(C(C)C)ON=O", "physical_data": {"Molecular Weight": "103.12", "Molecular Formula": "C4H9NO2", "Boiling Point": "67 \u00b0C", "Density": "0.870 g/cm\u00b3 @ Temp: 22 \u00b0C"}}