{"cas_no": "542-91-6", "cn_name": "\u4e8c\u4e59\u57fa\u7845\u70f7", "en_name": ["Diethylsilane", "Silane, diethyl-", "Diethylsilane", "3-Silapentane"], "SMILES": "[SiH2](CC)CC", "physical_data": {"Molecular Weight": "88.22", "Molecular Formula": "C4H12Si", "Boiling Point": "57 \u00b0C", "Melting Point": "-134.3 \u00b0C", "Density": "0.683 g/cm\u00b3"}}