{"cas_no": "542-52-9", "cn_name": "\u78b3\u9178\u4e8c\u6b63\u4e01\u916f", "en_name": ["Dibutyl carbonate", "Carbonic acid, dibutyl ester", "n-Butyl carbonate", "Dibutyl carbonate", "Di-n-butyl carbonate", "NSC 8462", "Jeffsol AG 1560"], "SMILES": "O(C(OCCCC)=O)CCCC", "physical_data": {"Molecular Weight": "174.24", "Molecular Formula": "C9H18O3", "Boiling Point": "170 \u00b0C", "Melting Point": "&lt;25 \u00b0C", "Density": "0.9237 g/cm\u00b3 @ Temp: 20 \u00b0C"}}