{"cas_no": "542-50-7", "cn_name": "14-\u4e8c\u5341\u4e03\u916e", "en_name": ["14-Heptacosanone", "14-Heptacosanone", "Ditridecyl ketone", "Myristone", "Myriston", "Tridecyl ketone", "NSC 15184"], "SMILES": "C(C(CCCCCCCCCCCCC)=O)CCCCCCCCCCCC", "physical_data": {"Molecular Weight": "394.72", "Molecular Formula": "C27H54O", "Melting Point": "77.5 \u00b0C"}}