{"cas_no": "5421-92-1", "cn_name": "1-(4-\u5421\u5576\u57fa)\u5421\u5576\u6c2f\u76d0\u9178\u76d0", "en_name": ["1,4\u2032-Bipyridinium, chloride, hydrochloride (1:1:1)", "1,4\u2032-Bipyridinium, chloride, hydrochloride (1:1:1)", "1,4\u2032-Bipyridinium, chloride, hydrochloride", "1-(4-Pyridyl)pyridinium chloride, hydrochloride", "1-(4-Pyridinyl)pyridinium chloride hydrochloride", "N-(4-Pyridyl)pyridinium chloride hydrochloride", "4-Pyridylpyridinium chloride hydrochloride"], "SMILES": "C=1(C=CN=CC1)[N+]=2C=CC=CC2.[Cl-].Cl", "physical_data": {"Molecular Weight": "", "Molecular Formula": "C10H9N2.ClH.Cl", "Melting Point": "172-174 \u00b0C"}}