{"cas_no": "5421-46-5", "cn_name": "\u5def\u57fa\u4e59\u9178\u94f5", "en_name": ["Ammonium thioglycolate", "Acetic acid, 2-mercapto-, ammonium salt (1:1)", "Acetic acid, mercapto-, monoammonium salt", "Ammonium thioglycolate", "Ammonium mercaptoacetate", "Ammonium thioglycollate", "Thioglycolic acid ammonium salt", "Thiofaco A-50"], "SMILES": "C(CS)(O)=O.N", "physical_data": {"Molecular Weight": "", "Molecular Formula": "C2H4O2S.H3N", "Melting Point": "139-139.5 \u00b0C", "Density": "1.205 g/cm\u00b3 @ Temp: 20 \u00b0C"}}