{"cas_no": "5422-88-8", "cn_name": "\u82ef\u57fa\u916e\u73af\u620a\u916f", "en_name": ["Cyclopentyl phenyl ketone", "Methanone, cyclopentylphenyl-", "Ketone, cyclopentyl phenyl", "Cyclopentylphenylmethanone", "Cyclopentyl phenyl ketone", "Phenyl cyclopentyl ketone", "Benzoylcyclopentane", "NSC 10749", "NSC 401765"], "SMILES": "C(=O)(C1CCCC1)C2=CC=CC=C2", "physical_data": {"Molecular Weight": "174.24", "Molecular Formula": "C12H14O", "Boiling Point": "136-140 \u00b0C @ Press: 16 Torr", "Melting Point": "140-141 \u00b0C"}}