{"cas_no": "54221-96-4", "cn_name": "6-\u7532\u6c27\u57fa\u5421\u5576-2-\u7532\u919b", "en_name": ["6-Methoxy-2-pyridinecarboxaldehyde", "2-Pyridinecarboxaldehyde, 6-methoxy-", "6-Methoxy-2-pyridinecarboxaldehyde", "6-Methoxypyridine-2-carbaldehyde", "2-Formyl-6-methoxypyridine", "6-Methoxypyridine-2-carboxaldehyde", "6-Methoxypyridin-2-carboxaldehyde", "2-Methoxy-6-pyridinecarboxaldehyde", "6-Methoxypicolinaldehyde"], "SMILES": "C(=O)C=1N=C(OC)C=CC1", "physical_data": {"Molecular Weight": "137.14", "Molecular Formula": "C7H7NO2", "Boiling Point": "103-104 \u00b0C @ Press: 20 Torr"}}