{"cas_no": "5422-44-6", "cn_name": "1-\u7532\u57fa-5-\u6c28\u57fa\u56db\u6c2e\u5511", "en_name": ["1-Methyl-1H-tetrazol-5-amine", "1H-Tetrazol-5-amine, 1-methyl-", "1H-Tetrazole, 5-amino-1-methyl-", "1,2,3,4-Tetrazole, 5-amino-1-methyl-", "1-Methyl-1H-tetrazol-5-amine", "5-Amino-1-methyltetrazole", "5-Amino-1-methyl-1H-tetrazole", "1-Methyl-5-tetrazolamine", "1-Methyl-5-aminotetrazole", "NSC 11104", "(1-Methyl-1H-tetrazol-5-yl)amine", "1-Methyl-1H-1,2,3,4-tetrazol-5-amine", "1-Methyl-1H-tetraazol-5-amine"], "SMILES": "NC=1N(C)N=NN1", "physical_data": {"Molecular Weight": "99.09", "Molecular Formula": "C2H5N5", "Melting Point": "222 \u00b0C"}}