{"cas_no": "5423-22-3", "cn_name": "\u78f7\u9178\u80cd", "en_name": ["Guanidine, phosphate (1:1)", "Guanidine, phosphate (1:1)", "Monoguanidine phosphate", "Monoguanidium phosphate", "Guanidinium dihydrogen phosphate", "NSC 8140"], "SMILES": "C(=N)(N)N.P(=O)(O)(O)O", "physical_data": {"Molecular Weight": "", "Molecular Formula": "CH5N3.H3O4P", "Melting Point": "107 \u00b0C"}}