{"cas_no": "54231-35-5", "cn_name": "3-\u6c1f-2-\u785d\u57fa\u5421\u5576", "en_name": ["3-Fluoro-2-nitropyridine", "Pyridine, 3-fluoro-2-nitro-", "3-Fluoro-2-nitropyridine", "2-Nitro-3-fluoropyridine"], "SMILES": "N(=O)(=O)C1=C(F)C=CC=N1", "physical_data": {"Molecular Weight": "142.09", "Molecular Formula": "C5H3FN2O2", "Melting Point": "35 \u00b0C"}}