{"cas_no": "54239-37-1", "cn_name": "\u897f\u9a6c\u7279\u7f57", "en_name": ["Cimaterol", "Benzonitrile, 2-amino-5-[1-hydroxy-2-[(1-methylethyl)amino]ethyl]-", "2-Amino-5-[1-hydroxy-2-[(1-methylethyl)amino]ethyl]benzonitrile", "Cimaterol", "CL 263780", "2-Amino-5-[1-hydroxy-2-(propan-2-ylamino)ethyl]benzonitrile", "2-Amino-5-[1-hydroxy-2-[(propan-2-yl)amino]ethyl]benzonitrile"], "SMILES": "C(CNC(C)C)(O)C1=CC(C#N)=C(N)C=C1", "physical_data": {"Molecular Weight": "219.28", "Molecular Formula": "C12H17N3O", "Melting Point": "160-165 \u00b0C"}}