{"cas_no": "5423-67-6", "cn_name": "3-\u7f9f\u57fa-1,2,3,4-\u56db\u6c22\u82ef\u5e76[h]\u55b9\u5549", "en_name": ["3-Hydroxy-1,2,3,4-tetrahydrobenzo[h]quinoline", "Benzo[h]quinolin-3-ol, 1,2,3,4-tetrahydro-", "1,2,3,4-Tetrahydrobenzo[h]quinolin-3-ol", "3-Hydroxy-1,2,3,4-tetrahydrobenzo[h]quinoline", "NSC 13233", "1H,2H,3H,4H-Benzo[h]quinolin-3-ol", "3-Hydroxy-1,2,3,4-tetrahydrobenz(h)quinoline"], "SMILES": "OC1CC=2C(=C3C(=CC2)C=CC=C3)NC1", "physical_data": {"Molecular Weight": "199.25", "Molecular Formula": "C13H13NO", "Melting Point": "148-150 \u00b0C"}}