{"cas_no": "54231-34-4", "cn_name": "3-\u7898-2-\u785d\u57fa\u5421\u5576", "en_name": ["3-Iodo-2-nitropyridine", "Pyridine, 3-iodo-2-nitro-", "3-Iodo-2-nitropyridine"], "SMILES": "N(=O)(=O)C1=C(I)C=CC=N1", "physical_data": {"Molecular Weight": "249.99", "Molecular Formula": "C5H3IN2O2", "Melting Point": "100-101 \u00b0C"}}