{"cas_no": "54232-59-6", "cn_name": "9-KODE", "en_name": ["9-Oxo-10E,12Z-octadecadienoic acid", "10,12-Octadecadienoic acid, 9-oxo-, (10E,12Z)-", "10,12-Octadecadienoic acid, 9-oxo-, (E,Z)-", "(10E,12Z)-9-Oxo-10,12-octadecadienoic acid", "9-Oxo-10E,12Z-octadecadienoic acid", "9-Oxo-ODE", "(E,Z)-9-Oxo-10,12-octadecadienoic acid"], "SMILES": "C(C(C=CC=CCCCCC)=O)CCCCCCC(O)=O", "physical_data": {"Molecular Weight": "294.43", "Molecular Formula": "C18H30O3", "Melting Point": "49.5-51.5 \u00b0C"}}