{"cas_no": "5424-21-5", "cn_name": "2,4-\u4e8c\u6c2f-6-\u7532\u57fa\u5627\u5576", "en_name": ["2,4-Dichloro-6-methylpyrimidine", "Pyrimidine, 2,4-dichloro-6-methyl-", "2,4-Dichloro-6-methylpyrimidine", "2,6-Dichloro-4-methylpyrimidine", "NSC 13199", "6-Methyl-2,4-dichloropyrimidine"], "SMILES": "CC=1C=C(Cl)N=C(Cl)N1", "physical_data": {"Molecular Weight": "163.00", "Molecular Formula": "C5H4Cl2N2", "Boiling Point": "219 \u00b0C", "Melting Point": "46.5 \u00b0C"}}