{"cas_no": "5424-47-5", "cn_name": "3-\u4e8c\u7532\u57fa\u6c28\u57fa-1-(\u567b\u5429\u57fa)-1-\u4e19\u916e\u76d0\u9178\u76d0", "en_name": ["1-Propanone, 3-(dimethylamino)-1-(2-thienyl)-, hydrochloride (1:1)", "1-Propanone, 3-(dimethylamino)-1-(2-thienyl)-, hydrochloride (1:1)", "1-Propanone, 3-(dimethylamino)-1-(2-thienyl)-, hydrochloride", "3-Dimethylamino-1-(2-thienyl)-1-propanone hydrochloride", "2-Thienyl 2-dimethylaminoethyl ketone hydrochloride"], "SMILES": "C(CCN(C)C)(=O)C1=CC=CS1.Cl", "physical_data": {"Molecular Weight": "", "Molecular Formula": "C9H13NOS.ClH", "Melting Point": "172 \u00b0C"}}