{"cas_no": "5424-19-1", "cn_name": "3-\u82ef\u7532\u9170\u57fa\u5421\u5576", "en_name": ["Phenyl-3-pyridinylmethanone", "Methanone, phenyl-3-pyridinyl-", "Ketone, phenyl 3-pyridyl", "Phenyl-3-pyridinylmethanone", "3-Benzoylpyridine", "Phenyl 3-pyridyl ketone", "3-Pyridyl phenyl ketone", "NSC 13190", "Phenyl(3-pyridinyl)methanone"], "SMILES": "C(=O)(C1=CC=CC=C1)C=2C=CC=NC2", "physical_data": {"Molecular Weight": "183.21", "Molecular Formula": "C12H9NO", "Boiling Point": "307 \u00b0C", "Melting Point": "36-40 \u00b0C"}}