{"cas_no": "5424-29-3", "cn_name": "2-\u7532\u57fa-DL-\u4e1d\u6c28\u9178\u6c34\u5408\u7269", "en_name": ["2-Methylserine", "Serine, 2-methyl-", "Serine, 2-methyl-, DL-", "DL-Serine, 2-methyl-", "2-Methylserine", "DL-2-Methylserine", "DL-\u03b1-Methylserine", "\u03b1-Methyl-DL-serine", "2-Methyl-DL-serine", "DL-\u03b1-(Hydroxymethyl)alanine", "\u03b1-Methylserine", "NSC 11203", "NSC 12135", "NSC 163492", "2-Amino-3-hydroxy-2-methylpropionic acid", "2-Amino-3-hydroxy-2-methylpropanoic acid"], "SMILES": "C(C(O)=O)(CO)(C)N", "physical_data": {"Molecular Weight": "119.12", "Molecular Formula": "C4H9NO3", "Melting Point": "243 \u00b0C (decomp)"}}