{"cas_no": "54245-33-9", "cn_name": "2-\u6c28\u57fa-3-\u6eb4\u8418", "en_name": ["3-Bromo-2-naphthalenamine", "2-Naphthalenamine, 3-bromo-", "2-Naphthylamine, 3-bromo-", "3-Bromo-2-naphthalenamine", "3-Bromo-2-naphthylamine", "2-Amino-3-bromonaphthalene", "NSC 97229", "3-Bromo-2-aminonaphthalene"], "SMILES": "BrC1=CC2=C(C=C1N)C=CC=C2", "physical_data": {"Molecular Weight": "222.08", "Molecular Formula": "C10H8BrN", "Melting Point": "168 \u00b0C"}}