{"cas_no": "54240-36-7", "cn_name": "\u76d0\u9178\u9a6c\u5e03\u7279\u7f57", "en_name": ["Benzenemethanol, 4-amino-3-chloro-\u03b1-[[(1,1-dimethylethyl)amino]methyl]-5-(trifluoromethyl)-, hydrochloride (1:1)", "Benzenemethanol, 4-amino-3-chloro-\u03b1-[[(1,1-dimethylethyl)amino]methyl]-5-(trifluoromethyl)-, hydrochloride (1:1)", "Benzenemethanol, 4-amino-3-chloro-\u03b1-[[(1,1-dimethylethyl)amino]methyl]-5-(trifluoromethyl)-, monohydrochloride", "KF 868 (pharmaceutical)", "KF 868", "dl-Mabuterol hydrochloride", "Broncholin"], "SMILES": "C(F)(F)(F)C1=CC(C(CNC(C)(C)C)O)=CC(Cl)=C1N.Cl", "physical_data": {"Molecular Weight": "", "Molecular Formula": "C13H18ClF3N2O.ClH", "Melting Point": "205-206 \u00b0C"}}