{"cas_no": "5424-01-1", "cn_name": "3-\u6c28\u57fa\u5421\u55ea-2-\u7fa7\u9178", "en_name": ["3-Amino-2-pyrazinecarboxylic acid", "2-Pyrazinecarboxylic acid, 3-amino-", "Pyrazinecarboxylic acid, 3-amino-", "Pyrazinoic acid, 3-amino-", "3-Amino-2-pyrazinecarboxylic acid", "3-Aminopyrazinecarboxylic acid", "3-Aminopyrazine-2-carboxylic acid", "2-Amino-3-carboxypyrazine", "3-Amino-2-pyrazinoic acid", "2-Aminopyrazine-3-carboxylic acid", "NSC 13148", "NSC 225114"], "SMILES": "C(O)(=O)C=1C(N)=NC=CN1", "physical_data": {"Molecular Weight": "139.11", "Molecular Formula": "C5H5N3O2", "Melting Point": "209-210 \u00b0C (decomp)"}}