{"cas_no": "5425-81-0", "cn_name": "2-\u6c28\u57fa-1-(4-\u785d\u57fa-\u82ef)-\u4e59\u916e\u76d0\u9178\u76d0", "en_name": ["Ethanone, 2-amino-1-(4-nitrophenyl)-, hydrochloride (1:1)", "Ethanone, 2-amino-1-(4-nitrophenyl)-, hydrochloride (1:1)", "Acetophenone, 2-amino-4\u2032-nitro-, monohydrochloride", "Ethanone, 2-amino-1-(4-nitrophenyl)-, monohydrochloride", "Acetophenone, 2-amino-4\u2032-nitro-, hydrochloride", "\u03b1-Amino-p-nitroacetophenone hydrochloride", "\u03b1-Amino-4\u2032-nitroacetophenone hydrochloride", "2-Amino-4\u2032-nitroacetophenone hydrochloride", "4\u2032-Nitro-2-aminoacetophenone hydrochloride", "2-Amino-1-(4-nitrophenyl)ethanone hydrochloride", "2-Amino-1-(4-nitrophenyl)ethan-1-one hydrochloride"], "SMILES": "C(CN)(=O)C1=CC=C(N(=O)=O)C=C1.Cl", "physical_data": {"Molecular Weight": "", "Molecular Formula": "C8H8N2O3.ClH", "Melting Point": "250 \u00b0C (decomp)"}}