{"cas_no": "5425-44-5", "cn_name": "2-\u82ef\u57fa-1,3-\u4e8c\u567b\u70f7", "en_name": ["2-Phenyl-1,3-dithiane", "1,3-Dithiane, 2-phenyl-", "m-Dithiane, 2-phenyl-", "2-Phenyl-1,3-dithiane", "2-Phenyl-1,3-dithiacyclohexane", "NSC 12763"], "SMILES": "C1(=CC=CC=C1)C2SCCCS2", "physical_data": {"Molecular Weight": "196.33", "Molecular Formula": "C10H12S2", "Boiling Point": "150 \u00b0C @ Press: 0.3 Torr", "Melting Point": "71 \u00b0C"}}