{"cas_no": "54256-43-8", "cn_name": "4-\u6b63\u7678\u57fa\u82ef\u7532\u9170\u6c2f", "en_name": ["4-Decylbenzoyl chloride", "Benzoyl chloride, 4-decyl-", "4-Decylbenzoyl chloride", "p-Decylbenzoyl chloride"], "SMILES": "C(CCCCCCCCC)C1=CC=C(C(Cl)=O)C=C1", "physical_data": {"Molecular Weight": "280.83", "Molecular Formula": "C17H25ClO", "Boiling Point": "169 \u00b0C @ Press: 0.6 Torr"}}