{"cas_no": "5426-09-5", "cn_name": "4,10-\u4e8c\u6c27\u6742\u4e09\u73af[5.2.1.02,6]\u7678-8-\u70ef-3,5-\u4e8c\u916e", "en_name": ["3a,4,7,7a-Tetrahydro-4,7-epoxyisobenzofuran-1,3-dione", "4,7-Epoxyisobenzofuran-1,3-dione, 3a,4,7,7a-tetrahydro-", "7-Oxabicyclo[2.2.1]hept-5-ene-2,3-dicarboxylic anhydride", "3a,4,7,7a-Tetrahydro-4,7-epoxyisobenzofuran-1,3-dione", "3,6-Epoxy-1,2,3,6-tetrahydrophthalic anhydride", "Furan-maleic anhydride adduct", "1,4-Epoxycyclohex-5-ene-2,3-dicarboxylic anhydride", "7-Oxabicyclo[2.2.1]hept-5-ene-2,3-dicarboxylic acid anhydride", "NSC 14002", "NSC 231495", "NSC 61997", "4,10-Dioxatricyclo[5.2.1.02,6]dec-8-ene-3,5-dione", "4,10-Dioxatricyclo[5.2.1.02,6]dec-8-ene-3,5-dion", "3,6-Oxo-1,2,3,6-tetrahydrophtalic anhydride"], "SMILES": "O=C1C2C(C3OC2C=C3)C(=O)O1", "physical_data": {"Molecular Weight": "166.13", "Molecular Formula": "C8H6O4", "Melting Point": "118 \u00b0C"}}