{"cas_no": "5426-47-1", "cn_name": "8-(\u4e8c\u7532\u6c28\u57fa)-1,3-\u4e8c\u7532\u57fa-3,7-\u4e8c\u6c22-1H-\u560c\u5464-2,6-\u4e8c\u916e", "en_name": ["8-(Dimethylamino)-3,9-dihydro-1,3-dimethyl-1H-purine-2,6-dione", "1H-Purine-2,6-dione, 8-(dimethylamino)-3,9-dihydro-1,3-dimethyl-", "Theophylline, 8-(dimethylamino)-", "1H-Purine-2,6-dione, 8-(dimethylamino)-3,7-dihydro-1,3-dimethyl-", "8-(Dimethylamino)-3,9-dihydro-1,3-dimethyl-1H-purine-2,6-dione", "8-(Dimethylamino)theophylline", "8-(Dimethylamino)-1,3-dimethylxanthine", "NSC 14107"], "SMILES": "O=C1C2=C(N=C(N(C)C)N2)N(C)C(=O)N1C", "physical_data": {"Molecular Weight": "223.23", "Molecular Formula": "C9H13N5O2", "Melting Point": "337-338 \u00b0C"}}