{"cas_no": "5427-26-9", "cn_name": "5-\u6d77\u56e0\u4e59\u9178", "en_name": ["5-Hydantoinacetic acid", "4-Imidazolidineacetic acid, 2,5-dioxo-", "2,5-Dioxo-4-imidazolidineacetic acid", "5-Hydantoinacetic acid", "5-(Carboxymethyl)hydantoin", "2,4-Dioxoimidazolidine-5-acetic acid", "DL-5-(Carboxymethyl)hydantoin", "NSC 14985", "NSC 49347", "(2,5-Dioxoimidazolidin-4-yl)acetic acid", "2-(2,5-Dioxoimidazolidin-4-yl)acetic acid"], "SMILES": "C(C(O)=O)C1NC(=O)NC1=O", "physical_data": {"Molecular Weight": "158.11", "Molecular Formula": "C5H6N2O4", "Melting Point": "220-225 \u00b0C"}}