{"cas_no": "54278-10-3", "cn_name": "5-\u4e59\u6c27\u7fb0\u57fa-2,4-\u4e8c\u7532\u57fa-1-\u6c22-\u5421\u54af-3-\u4e19\u9178\u4e59\u916f", "en_name": ["Ethyl 5-(ethoxycarbonyl)-2,4-dimethyl-1H-pyrrole-3-propanoate", "1H-Pyrrole-3-propanoic acid, 5-(ethoxycarbonyl)-2,4-dimethyl-, ethyl ester", "Pyrrole-3-propionic acid, 5-carboxy-2,4-dimethyl-, diethyl ester", "Ethyl 5-(ethoxycarbonyl)-2,4-dimethyl-1H-pyrrole-3-propanoate", "2-Ethoxycarbonyl-4-(2-ethoxycarbonylethyl)-3,5-dimethylpyrrole", "NSC 157290"], "SMILES": "C(OCC)(=O)C1=C(C)C(CCC(OCC)=O)=C(C)N1", "physical_data": {"Molecular Weight": "267.32", "Molecular Formula": "C14H21NO4", "Boiling Point": "165-170 \u00b0C @ Press: 0.02 Torr", "Melting Point": "73 \u00b0C"}}