{"cas_no": "5427-96-3", "cn_name": "3-\u6c28\u57fa\u5df1\u4e8c\u9178", "en_name": ["3-Aminohexanedioic acid", "Hexanedioic acid, 3-amino-", "3-Aminohexanedioic acid", "\u03b2-Aminoadipic acid", "DL-3-Aminoadipic acid", "(\u00b1)-3-Aminoadipic acid", "NSC 12783", "3-Aminoadipic acid"], "SMILES": "C(CCC(O)=O)(CC(O)=O)N", "physical_data": {"Molecular Weight": "161.16", "Molecular Formula": "C6H11NO4", "Melting Point": "189-190.5 \u00b0C"}}