{"cas_no": "5428-89-7", "cn_name": "2-\u6c28\u57fa-5-\u6c2f\u5627\u5576", "en_name": ["5-Chloro-2-pyrimidinamine", "2-Pyrimidinamine, 5-chloro-", "Pyrimidine, 2-amino-5-chloro-", "5-Chloro-2-pyrimidinamine", "2-Amino-5-chloropyrimidine", "NSC 13326", "5-Chloropyrimidin-2-amine"], "SMILES": "ClC=1C=NC(N)=NC1", "physical_data": {"Molecular Weight": "129.55", "Molecular Formula": "C4H4ClN3", "Melting Point": "234-236 \u00b0C"}}