{"cas_no": "5428-54-6", "cn_name": "5-\u785d\u57fa-2-\u7532\u57fa\u82ef\u915a", "en_name": ["2-Methyl-5-nitrophenol", "Phenol, 2-methyl-5-nitro-", "o-Cresol, 5-nitro-", "2-Methyl-5-nitrophenol", "5-Nitro-2-cresol", "2-Hydroxy-4-nitrotoluene", "5-Nitro-2-methylphenol", "5-Nitro-o-cresol", "NSC 12987", "NSC 41203", "NSC 50664", "5-Nitro-o-methylphenol"], "SMILES": "N(=O)(=O)C1=CC(O)=C(C)C=C1", "physical_data": {"Molecular Weight": "153.14", "Molecular Formula": "C7H7NO3", "Melting Point": "86 \u00b0C"}}