{"cas_no": "54288-70-9", "cn_name": "4-\u6eb4\u54cc\u5576\u6c22\u6eb4\u9178\u76d0", "en_name": ["Piperidine, 4-bromo-, hydrobromide (1:1)", "Piperidine, 4-bromo-, hydrobromide (1:1)", "Piperidine, 4-bromo-, hydrobromide", "4-Bromopiperidine hydrobromide"], "SMILES": "BrC1CCNCC1.Br", "physical_data": {"Molecular Weight": "", "Molecular Formula": "C5H10BrN.BrH", "Melting Point": "192-193 \u00b0C"}}