{"cas_no": "54280-71-6", "cn_name": "1,4-Dihydro-2,6-dimethyl-4-(pentafluorophenyl)-3,5-pyridinedicarboxylic  acid  diethyl  ester", "en_name": ["3,5-Diethyl 1,4-dihydro-2,6-dimethyl-4-(2,3,4,5,6-pentafluorophenyl)-3,5-pyridinedicarboxylate", "3,5-Pyridinedicarboxylic acid, 1,4-dihydro-2,6-dimethyl-4-(2,3,4,5,6-pentafluorophenyl)-, 3,5-diethyl ester", "3,5-Pyridinedicarboxylic acid, 1,4-dihydro-2,6-dimethyl-4-(pentafluorophenyl)-, diethyl ester", "3,5-Diethyl 1,4-dihydro-2,6-dimethyl-4-(2,3,4,5,6-pentafluorophenyl)-3,5-pyridinedicarboxylate", "3,5-Bis(ethoxycarbonyl)-1,4-dihydro-2,6-dimethyl-4-(pentafluorophenyl)pyridine", "Nemadipine A"], "SMILES": "C(OCC)(=O)C=1C(C(C(OCC)=O)=C(C)NC1C)C2=C(F)C(F)=C(F)C(F)=C2F", "physical_data": {"Molecular Weight": "419.34", "Molecular Formula": "C19H18F5NO4", "Melting Point": "129-131 \u00b0C"}}