{"cas_no": "5429-56-1", "cn_name": "2-\u4e59\u9170\u6c28\u57fa\u4e19\u70ef\u9178", "en_name": ["2-Acetamidoacrylic acid", "2-Propenoic acid, 2-(acetylamino)-", "Acrylic acid, 2-acetamido-", "2-(Acetylamino)-2-propenoic acid", "2-Acetamidoacrylic acid", "N-Acetyldehydroalanine", "Acetyldehydroalanine", "\u03b1-Acetamidoacrylic acid", "2-(Acetylamino)acrylic acid", "N-Acetyl-\u03b1-aminoacrylic acid", "N-Acetyl-\u03b1,\u03b2-dehydroalanine", "\u03b1-(Acetylamino)acrylic acid", "NSC 14171", "2-Acetamidoprop-2-enoic acid"], "SMILES": "C(NC(C)=O)(C(O)=O)=C", "physical_data": {"Molecular Weight": "129.11", "Molecular Formula": "C5H7NO3", "Melting Point": "198-200 \u00b0C (decomp)"}}