{"cas_no": "5429-85-6", "cn_name": "N-PHENYL-9Z-OCTADECENAMIDE", "en_name": ["Oleic acid anilide", "9-Octadecenamide, N-phenyl-, (9Z)-", "9-Octadecenamide, N-phenyl-, (Z)-", "Oleanilide", "(9Z)-N-Phenyl-9-octadecenamide", "Oleic acid anilide", "Oleoylanilide", "Oleyl anilide", "N-Phenyloleamide"], "SMILES": "N(C(CCCCCCCC=CCCCCCCCC)=O)C1=CC=CC=C1", "physical_data": {"Molecular Weight": "357.57", "Molecular Formula": "C24H39NO", "Melting Point": "41 \u00b0C"}}