{"cas_no": "5429-28-7", "cn_name": "4-(N,N-\u4e8c\u4e59\u6c28\u57fa)-\u82ef\u7532\u9178", "en_name": ["4-(Diethylamino)benzoic acid", "Benzoic acid, 4-(diethylamino)-", "Benzoic acid, p-(diethylamino)-", "4-(Diethylamino)benzoic acid", "p-(Diethylamino)benzoic acid", "p-N,N-Diethylaminobenzoic acid", "4-N,N-Diethylaminobenzoic acid", "NSC 14115"], "SMILES": "N(CC)(CC)C1=CC=C(C(O)=O)C=C1", "physical_data": {"Molecular Weight": "193.24", "Molecular Formula": "C11H15NO2", "Melting Point": "193 \u00b0C"}}