{"cas_no": "543-15-7", "cn_name": "6-\u6c28\u57fa-2-\u7532\u57fa-2-\u5e9a\u9187\u76d0\u9178\u76d0", "en_name": ["Heptaminol hydrochloride", "2-Heptanol, 6-amino-2-methyl-, hydrochloride (1:1)", "2-Heptanol, 6-amino-2-methyl-, hydrochloride", "RP 2831", "6-Amino-2-methyl-2-heptanol hydrochloride", "Cardiosintol", "Cortensor", "Heptaminol hydrochloride", "Heptamyl hydrochloride", "2-Methyl-6-amino-2-heptanol hydrochloride", "6-Methyl-2-amino-6-heptanol hydrochloride", "Izoktamil", "Heptamyl", "Heptylon", "2831RP", "Isoktamil", "Eoden", "Corasor", "Respirin"], "SMILES": "C(CCC(C)N)C(C)(C)O.Cl", "physical_data": {"Molecular Weight": "", "Molecular Formula": "C8H19NO.ClH", "Melting Point": "150 \u00b0C"}}