{"cas_no": "543-27-1", "cn_name": "\u6c2f\u7532\u9178\u5f02\u4e01\u916f", "en_name": ["Isobutyl chloroformate", "Carbonochloridic acid, 2-methylpropyl ester", "Formic acid, chloro-, isobutyl ester", "Isobutyl chlorocarbonate", "Isobutyl chloroformate", "2-Methylpropyl chloroformate", "2-Methylpropyl carbonochloridate", "Chloroformic acid isobutyl ester", "Chlorocarbonic acid isobutyl ester", "Isobutoxycarbonyl chloride", "Isobutyloxycarbonyl chloride", "Isobutyl chloridocarbonate", "IBCF", "NSC 8429", "Isobutyl carbonochloridate", "2-Methylpropan-1-yl chloroformate"], "SMILES": "C(OC(Cl)=O)C(C)C", "physical_data": {"Molecular Weight": "136.58", "Molecular Formula": "C5H9ClO2", "Boiling Point": "128.8 \u00b0C"}}