{"cas_no": "543-21-5", "cn_name": "\u4e59\u7094\u4e8c\u7fb0\u9170\u80fa", "en_name": ["Cellocidin", "2-Butynediamide", "Acetylenedicarboxamide", "Acetylenedicarboxylic acid diamide", "Aquamycin", "Cellocidin", "Lenamycin", "Acetylene diamide", "NSC 38643", "NSC 65381"], "SMILES": "C(#CC(N)=O)C(N)=O", "physical_data": {"Molecular Weight": "112.09", "Molecular Formula": "C4H4N2O2", "Melting Point": "217 \u00b0C (decomp)"}}