{"cas_no": "543-49-7", "cn_name": "2-\u5e9a\u9187", "en_name": ["2-Heptanol", "2-Heptanol", "Amyl methyl carbinol", "s-Heptyl alcohol", "2-Hydroxyheptane", "Methyl amyl carbinol", "2-Heptyl alcohol", "1-Methylhexanol", "(\u00b1)-2-Heptanol", "DL-Heptan-2-ol", "NSC 2220"], "SMILES": "C(CCCC)C(C)O", "physical_data": {"Molecular Weight": "116.20", "Molecular Formula": "C7H16O", "Boiling Point": "158-160 \u00b0C", "Melting Point": "80-81 \u00b0C", "Density": "0.82 g/cm\u00b3"}}