{"cas_no": "543-18-0", "cn_name": "\u8112\u57fa\u725b\u78fa\u9178", "en_name": ["2-[(Aminoiminomethyl)amino]ethanesulfonic acid", "Ethanesulfonic acid, 2-[(aminoiminomethyl)amino]-", "Taurine, N-amidino-", "Taurocyamine", "2-[(Aminoiminomethyl)amino]ethanesulfonic acid", "Guanidinoethanesulfonic acid", "N-Guanyltaurine", "2-Guanidinoethanesulfonic acid", "\u03b2-Guanidinoethanesulfonic acid", "Amidinotaurine", "Taurocyamin", "2-Guanylaminoethanesulfonic acid", "\u03b2-Guanidinoethylsulfonic acid", "N-Amidinotaurine", "NSC 667063", "2-[[Amino(imino)methyl]amino]ethane-1-sulfonic acid"], "SMILES": "C(CNC(=N)N)S(=O)(=O)O", "physical_data": {"Molecular Weight": "167.19", "Molecular Formula": "C3H9N3O3S", "Melting Point": "230 \u00b0C"}}