{"cas_no": "543-24-8", "cn_name": "N-\u4e59\u9170\u7518\u6c28\u9178", "en_name": ["Acetylglycine", "Glycine, N-acetyl-", "Aceturic acid", "N-Acetylglycine", "Acetamidoacetic acid", "Acetylaminoacetic acid", "Acetylglycine", "Acetylglycocoll", "Ethanoylaminoethanoic acid", "2-Acetamidoacetic acid", "2-(Acetylamino)acetic acid", "NSC 7605", "86: PN: WO2006125227 FIGURE: 1 claimed protein"], "SMILES": "C(NC(C)=O)C(O)=O", "physical_data": {"Molecular Weight": "117.10", "Molecular Formula": "C4H7NO3", "Melting Point": "206 \u00b0C"}}