{"cas_no": "543-20-4", "cn_name": "\u4e01\u4e8c\u9170\u6c2f", "en_name": ["Succinyl chloride", "Butanedioyl dichloride", "Succinyl chloride", "Succinic acid dichloride", "Succinic chloride", "Succinoyl chloride", "Succinyl dichloride", "Succinoyl dichloride", "1,2-Bis(chlorocarbonyl)ethane", "Succinic acid chloride", "1,2-Ethanediylbis(chloroformate)", "Succinic dichloride", "NSC 87873"], "SMILES": "C(CC(Cl)=O)C(Cl)=O", "physical_data": {"Molecular Weight": "154.98", "Molecular Formula": "C4H4Cl2O2", "Boiling Point": "193.3 \u00b0C", "Melting Point": "20 \u00b0C"}}