{"cas_no": "543-75-9", "cn_name": "1,4-\u4e8c\u6c27\u6742-2-\u5df1\u70ef", "en_name": ["Dioxene", "1,4-Dioxin, 2,3-dihydro-", "p-Dioxin, 2,3-dihydro-", "2,3-Dihydro-1,4-dioxin", "1,4-Dioxene", "1,4-Diox-2-ene", "p-Dioxene", "2,3-Dihydro-p-dioxin", "Dioxene", "Dihydro-1,4-dioxin", "NSC 2295", "2,3-Dihydro-1,4-dioxine"], "SMILES": "C1COC=CO1", "physical_data": {"Molecular Weight": "86.09", "Molecular Formula": "C4H6O2", "Boiling Point": "94.1 \u00b0C", "Density": "1.083 g/cm\u00b3 @ Temp: 20 \u00b0C"}}