{"cas_no": "543-67-9", "cn_name": "\u4e9a\u785d\u9178\u6b63\u4e19\u916f", "en_name": ["Propyl nitrite", "Nitrous acid, propyl ester", "Propyl nitrite", "Nitrous acid n-propyl ester", "n-Propyl nitrite", "Propanol nitrite"], "SMILES": "C(ON=O)CC", "physical_data": {"Molecular Weight": "89.09", "Molecular Formula": "C3H7NO2", "Boiling Point": "48 \u00b0C"}}