{"cas_no": "543-38-4", "cn_name": "L-\u5200\u8c46\u6c28\u9178", "en_name": ["Canavanine", "L-Homoserine, O-[(aminoiminomethyl)amino]-", "Butyric acid, 2-amino-4-(guanidinooxy)-, L-", "Canavanine", "O-[(Aminoiminomethyl)amino]-L-homoserine", "L-Canavanine", "Canavanin", "Cav", "L-Cav", "LDN 21810", "MeSH ID: D002172"], "SMILES": "C(CONC(=N)N)C(C(O)=O)N", "physical_data": {"Molecular Weight": "176.17", "Molecular Formula": "C5H12N4O3", "Melting Point": "184 \u00b0C"}}