{"cas_no": "543-82-8", "cn_name": "1,5-\u4e8c\u7532\u57fa\u5df1\u80fa", "en_name": ["(\u00b1)-1,5-Dimethylhexylamine", "2-Heptanamine, 6-methyl-", "Hexylamine, 1,5-dimethyl-", "6-Methyl-2-heptanamine", "SKF 51", "Amidrine", "2-Amino-6-methylheptane", "\u03b1,\u03b5-Dimethylhexylamine", "1,5-Dimethylhexylamine", "2-Methyl-6-aminoheptane", "6-Methyl-2-heptylamine", "6-Amino-2-methylheptane", "Octodrine", "Vaporpac", "2-Isooctylamine", "Octodrin", "Isoctaminum", "(\u00b1)-1,5-Dimethylhexylamine", "dl-2-Isooctylamine", "(\u00b1)-6-Methyl-2-heptanamine", "dl-2-Amino-6-methylheptane", "(\u00b1)-2-Amino-6-methylheptane", "1,5-Dimethylhexanamine", "DMHA", "Dimethylhexylamine"], "SMILES": "C(CC(C)C)CC(C)N", "physical_data": {"Molecular Weight": "129.24", "Molecular Formula": "C8H19N", "Boiling Point": "155 \u00b0C", "Melting Point": "&lt;25 \u00b0C"}}