{"cas_no": "543-90-8", "cn_name": "\u4e59\u9178\u9549", "en_name": ["Cadmium acetate", "Acetic acid, cadmium salt (2:1)", "Cadmium acetate", "Acetic acid, cadmium salt", "C.I. 77185", "Bis(acetoxy)cadmium", "Cadmium diacetate", "Cadmium ethanoate", "Cadmium(II) acetate"], "SMILES": "C(C)(O)=O.[Cd]", "physical_data": {"Molecular Weight": "", "Molecular Formula": "C2H4O2.<sup>1</sup>/2Cd", "Melting Point": "255 \u00b0C", "Density": "2.341 g/cm\u00b3"}}