{"cas_no": "543-29-3", "cn_name": "\u785d\u9178\u5f02\u4e01\u916f", "en_name": ["Isobutyl nitrate", "Nitric acid, 2-methylpropyl ester", "Nitric acid, isobutyl ester", "Isobutyl nitrate", "2-Methyl-1-propyl nitrate", "2-Methylpropyl nitrate"], "SMILES": "C(ON(=O)=O)C(C)C", "physical_data": {"Molecular Weight": "119.12", "Molecular Formula": "C4H9NO3", "Boiling Point": "123.4 \u00b0C", "Melting Point": "&lt;0 \u00b0C"}}