{"cas_no": "543-59-9", "cn_name": "1-\u6c2f\u620a\u70f7", "en_name": ["1-Chloropentane", "Pentane, 1-chloro-", "1-Chloropentane", "Amyl chloride", "Pentyl chloride", "n-Pentyl chloride", "n-Amyl chloride", "NSC 7898"], "SMILES": "C(CCCl)CC", "physical_data": {"Molecular Weight": "106.59", "Molecular Formula": "C5H11Cl", "Boiling Point": "107.8 \u00b0C @ Press: 760 Torr", "Melting Point": "-99 \u00b0C", "Density": "0.8818 g/cm\u00b3 @ Temp: 20 \u00b0C"}}