{"cas_no": "543-87-3", "cn_name": "\u785d\u9178\u5f02\u620a\u916f", "en_name": ["Isoamyl nitrate", "1-Butanol, 3-methyl-, 1-nitrate", "Isopentyl alcohol, nitrate", "Isopentyl nitrate", "1-Butanol, 3-methyl-, nitrate", "Iso-Amylnitrate", "Isoamyl nitrate", "3-Methylbutyl nitrate"], "SMILES": "C(CC(C)C)ON(=O)=O", "physical_data": {"Molecular Weight": "133.15", "Molecular Formula": "C5H11NO3", "Boiling Point": "148 \u00b0C", "Melting Point": "&lt;0 \u00b0C"}}