{"cas_no": "54300-32-2", "cn_name": "\u53cc(4-\u6c1f\u82ef\u57fa)\u82ef\u57fa\u6c27\u5316\u81a6", "en_name": ["Bis(4-fluorophenyl)phenylphosphine oxide", "Phosphine oxide, bis(4-fluorophenyl)phenyl-", "Bis(4-fluorophenyl)phenylphosphine oxide", "4,4\u2032-Difluorotriphenylphosphine oxide", "4,4\u2032-Difluorodiphenyl phenylphosphine oxide"], "SMILES": "P(=O)(C1=CC=C(F)C=C1)(C2=CC=C(F)C=C2)C3=CC=CC=C3", "physical_data": {"Molecular Weight": "314.27", "Molecular Formula": "C18H13F2OP", "Melting Point": "0.1 \u00b0C"}}