{"cas_no": "54300-08-2", "cn_name": "2-\u4e59\u9170\u57fa-3-5-\u4e8c\u7532\u57fa\u5421\u55ea", "en_name": ["2-Acetyl-3,5-dimethylpyrazine", "Ethanone, 1-(3,5-dimethyl-2-pyrazinyl)-", "Ethanone, 1-(3,5-dimethylpyrazinyl)-", "1-(3,5-Dimethyl-2-pyrazinyl)ethanone", "2-Acetyl-3,5-dimethylpyrazine", "1-(3,5-Dimethylpyrazin-2-yl)ethan-1-one"], "SMILES": "C(C)(=O)C=1C(C)=NC(C)=CN1", "physical_data": {"Molecular Weight": "150.18", "Molecular Formula": "C8H10N2O", "Boiling Point": "70 \u00b0C @ Press: 7 Torr"}}