{"cas_no": "54301-15-4", "cn_name": "\u76d0\u9178\u80fa\u82ef\u5416\u5576", "en_name": ["Amsacrine hydrochloride", "Methanesulfonamide, N-[4-(9-acridinylamino)-3-methoxyphenyl]-, hydrochloride (1:1)", "Methanesulfonamide, N-[4-(9-acridinylamino)-3-methoxyphenyl]-, monohydrochloride", "NSC 141549", "4\u2032-(Acridin-9-ylamino)-3\u2032-methoxymethanesulfonanilide hydrochloride", "N-[4-(9-Acridinylamino)-3-methoxyphenyl]methanesulfonamide hydrochloride", "AMSA hydrochloride", "m-AMSA hydrochloride", "Amsacrine hydrochloride"], "SMILES": "N(C=1C2=C(N=C3C1C=CC=C3)C=CC=C2)C4=C(OC)C=C(NS(C)(=O)=O)C=C4.Cl", "physical_data": {"Molecular Weight": "", "Molecular Formula": "C21H19N3O3S.ClH", "Melting Point": "197-199 \u00b0C"}}