{"cas_no": "54303-31-0", "cn_name": "3-(2-\u7532\u6c27\u57fa\u4e59\u6c27\u57fa)\u4e19\u80fa", "en_name": ["3-(2-Methoxyethoxy)propylamine", "1-Propanamine, 3-(2-methoxyethoxy)-", "Propylamine, 3-(2-methoxyethoxy)-", "3-(2-Methoxyethoxy)-1-propanamine", "3-(2-Methoxyethoxy)propylamine", "3-2-Methoxyethoxy-1-propanamine", "1-(3-Aminopropoxy)-2-methoxyethane"], "SMILES": "O(CCCN)CCOC", "physical_data": {"Molecular Weight": "133.19", "Molecular Formula": "C6H15NO2", "Boiling Point": "79 \u00b0C @ Press: 12 Torr"}}