{"cas_no": "54303-30-9", "cn_name": "2-(\u4e59\u6c27\u5def\u57fa)\u4e59\u80fa\u76d0\u9178\u76d0", "en_name": ["Ethanamine, 2-(ethylthio)-, hydrochloride (1:1)", "Ethanamine, 2-(ethylthio)-, hydrochloride (1:1)", "Ethanamine, 2-(ethylthio)-, hydrochloride", "Ethylamine, 2-(ethylthio)-, hydrochloride", "2-Ethylthioethylamine hydrochloride", "[2-(Ethylsulfanyl)ethyl]amine hydrochloride", "2-(Ethylmercapto)ethylamine hydrochloride", "2-Ethylthio-2-ethylamine hydrochloride", "2-(Ethylthio)ethanamine hydrochloride", "2-(Ethylsulfanyl)ethan-1-amine hydrochloride"], "SMILES": "C(SCC)CN.Cl", "physical_data": {"Molecular Weight": "", "Molecular Formula": "C4H11NS.ClH", "Melting Point": "147 \u00b0C"}}