{"cas_no": "5431-44-7", "cn_name": "\u5421\u5576-2,6-\u4e8c\u7532\u919b", "en_name": ["2,6-Pyridinedicarboxaldehyde", "2,6-Pyridinedicarboxaldehyde", "2,6-Diformylpyridine", "Pyridine-2,6-dicarbaldehyde", "2,6-Pyridinedialdehyde", "NSC 13393", "2,6-Bis(formyl)pyridine"], "SMILES": "C(=O)C=1N=C(C=O)C=CC1", "physical_data": {"Molecular Weight": "135.12", "Molecular Formula": "C7H5NO2", "Boiling Point": "152-154 \u00b0C @ Press: 103 Torr", "Melting Point": "124 \u00b0C"}}