{"cas_no": "54314-84-0", "cn_name": "3-\u82c4\u6c27\u57fa\u6eb4\u4e19\u70f7", "en_name": ["Benzyl 3-bromopropyl ether", "Benzene, [(3-bromopropoxy)methyl]-", "Ether, benzyl 3-bromopropyl", "[(3-Bromopropoxy)methyl]benzene", "Benzyl 3-bromopropyl ether", "3-Benzyloxypropyl bromide", "3-Bromopropyl benzyl ether", "1-Benzyloxy-3-bromopropane", "3-(Benzyloxy)-1-bromopropane", "3-Bromo-1-benzyloxypropane", "3-Bromopropanol benzylic ether", "3-Bromopropyl phenylmethyl ether", "[(3-Bromopropyloxy)methyl]benzene", "1-Bromo-3-(benzyloxy)propane"], "SMILES": "C(OCCCBr)C1=CC=CC=C1", "physical_data": {"Molecular Weight": "229.11", "Molecular Formula": "C10H13BrO", "Boiling Point": "130-132 \u00b0C @ Press: 8 Torr"}}