{"cas_no": "54321-80-1", "cn_name": "3-\u6eb4-5-\u785d\u57fa\u82ef\u7532\u9170\u80fa", "en_name": ["3-Bromo-5-nitrobenzamide", "Benzamide, 3-bromo-5-nitro-", "3-Bromo-5-nitrobenzamide"], "SMILES": "C(N)(=O)C1=CC(N(=O)=O)=CC(Br)=C1", "physical_data": {"Molecular Weight": "245.03", "Molecular Formula": "C7H5BrN2O3", "Melting Point": "189-191 \u00b0C"}}