{"cas_no": "54321-79-8", "cn_name": "4-\u6c28\u57fa-3,5-\u4e8c\u785d\u57fa\u82ef\u7532\u9170\u80fa", "en_name": ["4-Amino-3,5-dinitrobenzamide", "Benzamide, 4-amino-3,5-dinitro-", "4-Amino-3,5-dinitrobenzamide", "NSC 155951"], "SMILES": "N(=O)(=O)C1=C(N)C(N(=O)=O)=CC(C(N)=O)=C1", "physical_data": {"Molecular Weight": "226.15", "Molecular Formula": "C7H6N4O5", "Melting Point": "252 \u00b0C"}}