{"cas_no": "5432-85-9", "cn_name": "4-\u5f02\u4e19\u57fa\u73af\u5df1\u916e", "en_name": ["4-Isopropylcyclohexanone", "Cyclohexanone, 4-(1-methylethyl)-", "Cyclohexanone, 4-isopropyl-", "4-(1-Methylethyl)cyclohexanone", "4-Isopropylcyclohexanone", "NSC 21125", "4-Isopropylcyclohexan-1-one"], "SMILES": "C(C)(C)C1CCC(=O)CC1", "physical_data": {"Molecular Weight": "140.22", "Molecular Formula": "C9H16O", "Boiling Point": "214-214.5 \u00b0C", "Density": "0.9175 g/cm\u00b3 @ Temp: 18 \u00b0C"}}