{"cas_no": "54326-16-8", "cn_name": "2-\u7f9f\u57fa-5-\u6c2f\u5627\u5576", "en_name": ["5-Chloro-2(1H)-pyrimidinone", "2(1H)-Pyrimidinone, 5-chloro-", "2-Pyrimidinol, 5-chloro-", "5-Chloro-2(1H)-pyrimidinone", "5-Chloropyrimidin-2-one", "NY 3000", "5-Chloro-2-hydroxypyrimidine", "2-Oxo-5-chloropyrimidine", "5-Chloro-2-pyrimidone"], "SMILES": "ClC1=CNC(=O)N=C1", "physical_data": {"Molecular Weight": "130.53", "Molecular Formula": "C4H3ClN2O", "Melting Point": "237-238 \u00b0C (decomp)"}}