{"cas_no": "54337-90-5", "cn_name": "3,4-\u4e8c\u7f9f\u57fa\u82ef\u8148", "en_name": ["3,4-Dihydroxybenzamide", "Benzamide, 3,4-dihydroxy-", "3,4-Dihydroxybenzamide", "4-Carbamoyl-1,2-benzenediol"], "SMILES": "C(N)(=O)C1=CC(O)=C(O)C=C1", "physical_data": {"Molecular Weight": "153.14", "Molecular Formula": "C7H7NO3", "Melting Point": "216-218 \u00b0C"}}