{"cas_no": "54346-87-1", "cn_name": "2-\u6c28\u57fa-5-\u7532\u6c27\u57fa\u82ef\u5e76\u567b\u5511", "en_name": ["5-Methoxy-2-benzothiazolamine", "2-Benzothiazolamine, 5-methoxy-", "Benzothiazole, 2-amino-5-methoxy-", "5-Methoxy-2-benzothiazolamine", "2-Amino-5-methoxybenzothiazole", "(5-Methoxybenzothiazol-2-yl)amine", "5-Methoxybenzo[d]thiazol-2-amine"], "SMILES": "NC=1SC=2C(=CC(OC)=CC2)N1", "physical_data": {"Molecular Weight": "180.23", "Molecular Formula": "C8H8N2OS", "Melting Point": "154 \u00b0C"}}