{"cas_no": "5434-29-7", "cn_name": "2,4-\u4e8c\u7532\u57fa\u5421\u54af-3,5-\u4e8c\u7fa7\u9178", "en_name": ["3,5-Dimethyl-1H-pyrrole-2,4-dicarboxylic acid", "1H-Pyrrole-2,4-dicarboxylic acid, 3,5-dimethyl-", "Pyrrole-2,4-dicarboxylic acid, 3,5-dimethyl-", "3,5-Dimethyl-1H-pyrrole-2,4-dicarboxylic acid", "NSC 15758"], "SMILES": "C(O)(=O)C=1C(C)=C(C(O)=O)NC1C", "physical_data": {"Molecular Weight": "183.16", "Molecular Formula": "C8H9NO4", "Melting Point": "260 \u00b0C (decomp)"}}