{"cas_no": "5434-30-0", "cn_name": "5'-\u6c28\u57fa-2'-\u7532\u57fa\u4e59\u9170\u82ef\u80fa", "en_name": ["2-Acetylamino-4-aminotoluene", "Acetamide, N-(5-amino-2-methylphenyl)-", "N-(5-Amino-2-methylphenyl)acetamide", "2-Acetylamino-4-aminotoluene", "NSC 15762"], "SMILES": "N(C(C)=O)C1=C(C)C=CC(N)=C1", "physical_data": {"Molecular Weight": "164.20", "Molecular Formula": "C9H12N2O", "Melting Point": "139-140 \u00b0C"}}