{"cas_no": "5434-21-9", "cn_name": "4-\u6c28\u57fa\u90bb\u82ef\u4e8c\u7532\u9178", "en_name": ["4-Aminophthalic acid", "1,2-Benzenedicarboxylic acid, 4-amino-", "4-Amino-1,2-benzenedicarboxylic acid", "4-Aminophthalic acid", "4-Aminophthalate", "Aniline-3,4-dicarboxylic acid", "NSC 15742", "1-Amino-3,4-dicarboxy-benzene"], "SMILES": "C(O)(=O)C1=C(C(O)=O)C=C(N)C=C1", "physical_data": {"Molecular Weight": "181.15", "Molecular Formula": "C8H7NO4", "Melting Point": "&gt;300 \u00b0C"}}