{"cas_no": "54344-92-2", "cn_name": "4-\u7532\u6c27\u57fa-2,3,6-\u4e09\u7532\u57fa\u82ef\u7532\u919b", "en_name": ["4-Methoxy-2,3,6-trimethylbenzaldehyde", "Benzaldehyde, 4-methoxy-2,3,6-trimethyl-", "p-Anisaldehyde, 2,3,6-trimethyl-", "4-Methoxy-2,3,6-trimethylbenzaldehyde", "2,3,6-Trimethyl-4-methoxy-benzaldehyde"], "SMILES": "O(C)C1=C(C)C(C)=C(C=O)C(C)=C1", "physical_data": {"Molecular Weight": "178.23", "Molecular Formula": "C11H14O2", "Melting Point": "50 \u00b0C"}}