{"cas_no": "5434-27-5", "cn_name": "\u4e8c\u6eb4\u65b0\u620a\u70f7", "en_name": ["1,3-Dibromo-2,2-dimethylpropane", "Propane, 1,3-dibromo-2,2-dimethyl-", "1,3-Dibromo-2,2-dimethylpropane", "2,2-Dimethyl-1,3-dibromopropane", "1,3-Dibromoneopentane", "2,2-Bis(bromomethyl)propane", "NSC 15754", "Neopentyl dibromide", "1-Bromo-2-bromomethyl-2-methylpropane"], "SMILES": "C(CBr)(CBr)(C)C", "physical_data": {"Molecular Weight": "229.94", "Molecular Formula": "C5H10Br2", "Boiling Point": "64-69 \u00b0C @ Press: 11 Torr", "Density": "1.6775 g/cm\u00b3 @ Temp: 20 \u00b0C"}}