{"cas_no": "54340-58-8", "cn_name": "\u7f8e\u666e\u4ed6\u915a", "en_name": ["Meptazinol", "Phenol, 3-(3-ethylhexahydro-1-methyl-1H-azepin-3-yl)-", "3-(3-Ethylhexahydro-1-methyl-1H-azepin-3-yl)phenol", "Meptazinol", "Meptamizol", "(\u00b1)-Meptazinol"], "SMILES": "C(C)C1(CN(C)CCCC1)C2=CC(O)=CC=C2", "physical_data": {"Molecular Weight": "233.35", "Molecular Formula": "C15H23NO", "Melting Point": "127-133 \u00b0C"}}