{"cas_no": "5434-20-8", "cn_name": "3-\u6c28\u57fa\u82ef\u4e8c\u7532\u9178", "en_name": ["3-Aminophthalic acid", "1,2-Benzenedicarboxylic acid, 3-amino-", "Phthalic acid, 3-amino-", "3-Amino-1,2-benzenedicarboxylic acid", "3-Aminophthalic acid", "o-Aminophthalic acid", "NSC 15741"], "SMILES": "C(O)(=O)C1=C(C(O)=O)C=CC=C1N", "physical_data": {"Molecular Weight": "181.15", "Molecular Formula": "C8H7NO4", "Melting Point": "185-186 \u00b0C"}}