{"cas_no": "5435-54-1", "cn_name": "4-\u7f9f\u57fa-3-\u785d\u57fa\u5421\u5576", "en_name": ["3-Nitro-4-pyridinol", "4-Pyridinol, 3-nitro-", "3-Nitro-4-pyridinol", "4-Hydroxy-3-nitropyridine", "3-Nitro-4-hydroxypyridine", "NSC 21465", "3-Nitro-1H-pyridin-4-one"], "SMILES": "N(=O)(=O)C=1C(O)=CC=NC1", "physical_data": {"Molecular Weight": "140.10", "Molecular Formula": "C5H4N2O3", "Melting Point": "284 \u00b0C (decomp)"}}