{"cas_no": "54350-48-0", "cn_name": "\u4f9d\u66f2\u66ff\u916f", "en_name": ["Etretinate", "2,4,6,8-Nonatetraenoic acid, 9-(4-methoxy-2,3,6-trimethylphenyl)-3,7-dimethyl-, ethyl ester, (2E,4E,6E,8E)-", "2,4,6,8-Nonatetraenoic acid, 9-(4-methoxy-2,3,6-trimethylphenyl)-3,7-dimethyl-, ethyl ester, (all-E)-", "Ethyl all-trans-9-(4-methoxy-2,3,6-trimethylphenyl)-3,7-dimethyl-2,4,6,8-nonatetraenoate", "Ro 10-9359", "Etretinate", "Tigason", "Ethyl etrinoate", "Tigasone", "Tegison", "MeSH ID: D005050"], "SMILES": "C(=CC(=CC=CC(=CC(OCC)=O)C)C)C1=C(C)C(C)=C(OC)C=C1C", "physical_data": {"Molecular Weight": "354.48", "Molecular Formula": "C23H30O3", "Melting Point": "104-105 \u00b0C"}}