{"cas_no": "54354-62-0", "cn_name": "\u5fb7\u5361\u6797\u78b1", "en_name": ["1-Methoxy[1,3]benzodioxolo[5,6-c]phenanthridin-2-ol", "[1,3]Benzodioxolo[5,6-c]phenanthridin-2-ol, 1-methoxy-", "1-Methoxy[1,3]benzodioxolo[5,6-c]phenanthridin-2-ol", "Decarine", "Rutaceline", "Zanthoxyline", "Zanthoxylin"], "SMILES": "O(C)C1=C2C(C=3C(=C4C(=CC3)C=C5C(=C4)OCO5)N=C2)=CC=C1O", "physical_data": {"Molecular Weight": "319.31", "Molecular Formula": "C19H13NO4", "Melting Point": "243-244.5 \u00b0C"}}