{"cas_no": "5435-64-3", "cn_name": "3,5,5-\u4e09\u7532\u57fa\u5df1\u919b", "en_name": ["3,5,5-Trimethylhexanal", "Hexanal, 3,5,5-trimethyl-", "3,5,5-Trimethylhexanal", "3,5,5-Trimethylcapronaldehyde", "NSC 21482"], "SMILES": "C(CC(C)(C)C)(CC=O)C", "physical_data": {"Molecular Weight": "142.24", "Molecular Formula": "C9H18O", "Boiling Point": "82-83 \u00b0C @ Press: 35 Torr"}}