{"cas_no": "5436-01-1", "cn_name": "1-\u7532\u57fa-3,6-\u5421\u55ea\u4e8c\u916e", "en_name": ["1,2-Dihydro-1-methyl-3,6-pyridazinedione", "3,6-Pyridazinedione, 1,2-dihydro-1-methyl-", "3(2H)-Pyridazinone, 6-hydroxy-2-methyl-", "1,2-Dihydro-1-methyl-3,6-pyridazinedione", "N-Methylmaleic hydrazide", "1-Methyl-3,6-pyridazinedione", "N-Methyl-3,6-pyridazinedione", "6-Hydroxy-2-methyl-3(2H)-pyridazinone", "1-Methyl-1,2-dihydro-3,6-pyridazinedione", "NSC 21412", "6-Hydroxy-2-methyl-2H-pyridazin-3-one", "1,6-Dihydro-3-hydroxy-1-methyl-6-oxo-pyridazine", "1-Methyl-1,2,3,6-tetrahydropyridazine-3,6-dione", "2-Methyl-1H-pyridazine-3,6-dione"], "SMILES": "CN1C(=O)C=CC(=O)N1", "physical_data": {"Molecular Weight": "126.11", "Molecular Formula": "C5H6N2O2", "Melting Point": "210-211 \u00b0C"}}