{"cas_no": "5436-21-5", "cn_name": "4,4-\u4e8c\u7532\u6c27\u57fa-2-\u4e01\u916e", "en_name": ["4,4-Dimethoxy-2-butanone", "2-Butanone, 4,4-dimethoxy-", "Acetoacetaldehyde, 1-(dimethyl acetal)", "4,4-Dimethoxy-2-butanone", "Acetoacetaldehyde dimethyl acetal", "1,1-Dimethoxy-3-butanone", "3-Oxobutyraldehyde dimethyl acetal", "\u03b2-Oxobutyraldehyde dimethyl acetal", "Formylacetone dimethyl acetal", "Acetylacetaldehyde dimethyl acetal", "3-Oxobutyraldehyde 1-(dimethyl acetal)", "NSC 21538", "NSC 59721", "4,4-Dimethoxybutane-2-one"], "SMILES": "C(CC(C)=O)(OC)OC", "physical_data": {"Molecular Weight": "132.16", "Molecular Formula": "C6H12O3", "Boiling Point": "76-78 \u00b0C @ Press: 25 Torr", "Melting Point": "0 \u00b0C", "Density": "0.9895 g/cm\u00b3 @ Temp: 25 \u00b0C"}}