{"cas_no": "5436-43-1", "cn_name": "2,2',4,4'-\u56db\u6eb4\u8054\u82ef\u919a", "en_name": ["BDE 47", "Benzene, 2,4-dibromo-1-(2,4-dibromophenoxy)-", "Benzene, 1,1\u2032-oxybis[2,4-dibromo-", "2,4-Dibromo-1-(2,4-dibromophenoxy)benzene", "2,2\u2032,4,4\u2032-Tetrabromodiphenyl ether", "2,4,2\u2032,4\u2032-Tetrabromodiphenyl ether", "BDE 47", "PBDE 47", "NSC 21724", "2,2\u2032,4,4\u2032-Tetrabromodiphenyl oxide"], "SMILES": "O(C1=C(Br)C=C(Br)C=C1)C2=C(Br)C=C(Br)C=C2", "physical_data": {"Molecular Weight": "485.79", "Molecular Formula": "C12H6Br4O", "Boiling Point": "396 \u00b0C", "Melting Point": "82.6-83.0 \u00b0C"}}