{"cas_no": "5437-33-2", "cn_name": "3,5-\u4e8c\u6c2f-2-\u7f9f\u57fa\u5421\u5576", "en_name": ["3,5-Dichloro-2(1H)-pyridinone", "2(1H)-Pyridinone, 3,5-dichloro-", "2(1H)-Pyridone, 3,5-dichloro-", "3,5-Dichloro-2(1H)-pyridinone", "3,5-Dichloro-2-pyridinol", "3,5-Dichloro-2-pyridinone", "3,5-Dichloro-2-pyridone", "NSC 16021", "3,5-Dichloro-1H-pyridin-2-one", "3,5-Dichloro-1,2-dihydropyridin-2-one", "3,5-Dichloro-2-hydroxypyridine"], "SMILES": "ClC=1C(=O)NC=C(Cl)C1", "physical_data": {"Molecular Weight": "163.99", "Molecular Formula": "C5H3Cl2NO", "Melting Point": "177-178 \u00b0C"}}