{"cas_no": "54373-15-8", "cn_name": "4-(2-\u6c2f\u4e59\u6c27\u57fa)\u82ef\u7532\u919b", "en_name": ["4-(2-Chloroethoxy)benzaldehyde", "Benzaldehyde, 4-(2-chloroethoxy)-", "Benzaldehyde, p-(2-chloroethoxy)-", "4-(2-Chloroethoxy)benzaldehyde", "p-(2-Chloroethoxy)benzaldehyde"], "SMILES": "O(CCCl)C1=CC=C(C=O)C=C1", "physical_data": {"Molecular Weight": "184.62", "Molecular Formula": "C9H9ClO2", "Boiling Point": "138-142 \u00b0C @ Press: 2 Torr", "Melting Point": "31 \u00b0C", "Density": "1.2246 g/cm\u00b3 @ Temp: 25 \u00b0C"}}