{"cas_no": "5437-46-7", "cn_name": "4-\u82ef\u57fa\u73af\u5df1\u9187", "en_name": ["4-Phenylcyclohexanol", "Cyclohexanol, 4-phenyl-", "4-Phenylcyclohexanol", "4-Phenyl-1-cyclohexanol", "NSC 16118", "NSC 17139"], "SMILES": "OC1CCC(CC1)C2=CC=CC=C2", "physical_data": {"Molecular Weight": "176.25", "Molecular Formula": "C12H16O", "Melting Point": "100.5-114.1 \u00b0C"}}