{"cas_no": "5437-98-9", "cn_name": "\u4e59\u9170\u57fa\u4e59\u9170\u5bf9\u7532\u6c27\u57fa\u82ef\u80fa", "en_name": ["N-(4-Methoxyphenyl)-3-oxobutanamide", "Butanamide, N-(4-methoxyphenyl)-3-oxo-", "p-Acetoacetanisidide", "N-(4-Methoxyphenyl)-3-oxobutanamide", "4\u2032-Methoxyacetoacetanilide", "N-(4-Methoxyphenyl)acetoacetamide", "p-Methoxyacetoacetanilide", "Acetoacetic acid p-anisidide", "NSC 116392", "NSC 16508", "NSC 216130", "N-(4-Methoxyphenyl)acetylacetamide"], "SMILES": "N(C(CC(C)=O)=O)C1=CC=C(OC)C=C1", "physical_data": {"Molecular Weight": "207.23", "Molecular Formula": "C11H13NO3", "Melting Point": "117-118 \u00b0C"}}