{"cas_no": "5437-38-7", "cn_name": "3-\u7532\u57fa-2-\u785d\u57fa\u82ef\u7532\u9178", "en_name": ["3-Methyl-2-nitrobenzoic acid", "Benzoic acid, 3-methyl-2-nitro-", "m-Toluic acid, 2-nitro-", "3-Methyl-2-nitrobenzoic acid", "2-Nitro-m-toluic acid", "NSC 16048"], "SMILES": "N(=O)(=O)C1=C(C(O)=O)C=CC=C1C", "physical_data": {"Molecular Weight": "181.15", "Molecular Formula": "C8H7NO4", "Melting Point": "219-220 \u00b0C"}}