{"cas_no": "543739-84-0", "cn_name": "5-\u4e09\u6c1f\u7532\u57fa-1H-\u5421\u5511-4-\u7fa7\u9178", "en_name": ["3-(Trifluoromethyl)-1H-pyrazole-4-carboxylic acid", "1H-Pyrazole-4-carboxylic acid, 3-(trifluoromethyl)-", "3-(Trifluoromethyl)-1H-pyrazole-4-carboxylic acid", "3-(Trifluoromethyl)pyrazole-4-carboxylic acid"], "SMILES": "C(F)(F)(F)C=1C(C(O)=O)=CNN1", "physical_data": {"Molecular Weight": "180.08", "Molecular Formula": "C5H3F3N2O2", "Melting Point": "249-250 \u00b0C"}}