{"cas_no": "5437-45-6", "cn_name": "2-\u6eb4\u4e59\u9178\u82c4\u916f", "en_name": ["Benzyl bromoacetate", "Acetic acid, 2-bromo-, phenylmethyl ester", "Acetic acid, bromo-, benzyl ester", "Acetic acid, bromo-, phenylmethyl ester", "Benzyl bromoacetate", "Merbac 35", "Benzyl 2-bromoacetate", "Bromoacetic acid benzyl ester", "Phenylmethyl bromoacetate", "NSC 16114", "NSC 23980", "2-Bromoacetic acid benzyl ester"], "SMILES": "C(OC(CBr)=O)C1=CC=CC=C1", "physical_data": {"Molecular Weight": "229.07", "Molecular Formula": "C9H9BrO2", "Boiling Point": "143 \u00b0C @ Press: 10 Torr"}}