{"cas_no": "54384-06-4", "cn_name": "SAR-OBZL\u00b7TOSOH;N-METHYLGLYCINE BENZYL ESTER 4-TOLUENESULFONATE SALT", "en_name": ["Glycine, N-methyl-, phenylmethyl ester 4-methylbenzenesulfonate (1:1)", "Glycine, N-methyl-, phenylmethyl ester 4-methylbenzenesulfonate (1:1)", "Glycine, N-methyl-, phenylmethyl ester, 4-methylbenzenesulfonate", "Sarcosine benzyl ester tosylate"], "SMILES": "S(=O)(=O)(O)C1=CC=C(C)C=C1.C(OC(CNC)=O)C1=CC=CC=C1", "physical_data": {"Molecular Weight": "", "Molecular Formula": "C10H13NO2.C7H8O3S", "Melting Point": "99-102 \u00b0C"}}