{"cas_no": "5438-68-6", "cn_name": "2-\u4e59\u9170\u6c27\u57fa-2-\u82ef\u57fa\u4e59\u9178", "en_name": ["O-Acetylmandelic acid", "Benzeneacetic acid, \u03b1-(acetyloxy)-", "Mandelic acid, acetate", "\u03b1-(Acetyloxy)benzeneacetic acid", "O-Acetylmandelic acid", "Acetoxyphenylacetic acid", "2-Acetoxy-2-phenylacetic acid", "Phenyl-\u03b1-acetoxyacetic acid", "\u03b1-Acetoxyphenylacetic acid", "DL-O-Acetylmandelic acid", "NSC 14369", "(\u00b1)-O-Acetylmandelic acid", "2-(Acetyloxy)-2-phenylacetic acid"], "SMILES": "C(OC(C)=O)(C(O)=O)C1=CC=CC=C1", "physical_data": {"Molecular Weight": "194.18", "Molecular Formula": "C10H10O4", "Melting Point": "80 \u00b0C"}}