{"cas_no": "5438-07-3", "cn_name": "2-\u6c28\u57fa-2-\u82ef\u57fa\u4e01\u9178", "en_name": ["2-Amino-2-phenylbutyric acid", "Benzeneacetic acid, \u03b1-amino-\u03b1-ethyl-", "Butyric acid, 2-amino-2-phenyl-", "\u03b1-Amino-\u03b1-ethylbenzeneacetic acid", "2-Ethyl-2-phenylglycine", "NSC 16593", "2-Amino-2-phenylbutyric acid", "2-Amino-2-phenylbutanoic acid", "(\u00b1)-2-Amino-2-phenylbutyric acid", "DL-2-Amino-2-phenylbutyric acid", "2-Azaniumyl-2-phenylbutanoate"], "SMILES": "C(C(O)=O)(CC)(N)C1=CC=CC=C1", "physical_data": {"Molecular Weight": "179.22", "Molecular Formula": "C10H13NO2", "Melting Point": "275 \u00b0C"}}