{"cas_no": "5438-36-8", "cn_name": "5-\u7898\u9999\u5170\u7d20", "en_name": ["4-Hydroxy-3-iodo-5-methoxybenzaldehyde", "Benzaldehyde, 4-hydroxy-3-iodo-5-methoxy-", "Vanillin, 5-iodo-", "4-Hydroxy-3-iodo-5-methoxybenzaldehyde", "5-Iodovanillin", "4-Hydroxy-5-iodo-3-methoxybenzaldehyde", "5-Iodo-3-methoxy-4-hydroxybenzaldehyde", "3-Iodo-5-methoxy-4-hydroxybenzaldehyde", "NSC 16678", "3-Iodo-4-hydroxy-5-methoxybenzaldehyde"], "SMILES": "O(C)C1=C(O)C(I)=CC(C=O)=C1", "physical_data": {"Molecular Weight": "278.04", "Molecular Formula": "C8H7IO3", "Melting Point": "180 \u00b0C"}}