{"cas_no": "5438-19-7", "cn_name": "4-\u4e19\u6c27\u57fa\u82ef\u7532\u9178", "en_name": ["4-Propoxybenzoic acid", "Benzoic acid, 4-propoxy-", "Benzoic acid, p-propoxy-", "4-Propoxybenzoic acid", "p-Propoxybenzoic acid", "p-(n-Propoxy)benzoic acid", "NSC 16632", "4-Propyloxybenzoic acid"], "SMILES": "C(O)(=O)C1=CC=C(OCCC)C=C1", "physical_data": {"Molecular Weight": "180.20", "Molecular Formula": "C10H12O3", "Melting Point": "144-146 \u00b0C"}}