{"cas_no": "5438-41-5", "cn_name": "3,4-\u4e9a\u7532\u4e8c\u6c27\u57fa-1-\u82ef\u57fa-2-\u785d\u57fa\u4e19\u70ef", "en_name": ["5-(2-Nitro-1-propen-1-yl)-1,3-benzodioxole", "1,3-Benzodioxole, 5-(2-nitro-1-propen-1-yl)-", "Benzene, 1,2-(methylenedioxy)-4-(2-nitropropenyl)-", "1,3-Benzodioxole, 5-(2-nitro-1-propenyl)-", "5-(2-Nitro-1-propen-1-yl)-1,3-benzodioxole", "1-(2-Nitro-1-propenyl)-3,4-methylenedioxybenzene", "1,2-Methylenedioxy-4-(2-nitropropenyl)benzene", "3,4-Methylenedioxy-1-(2-nitropropenyl)benzene", "\u03b2-Methyl-\u03b2-nitro-3,4-methylenedioxystyrene", "2-Nitro-1-(3,4-methylenedioxyphenyl)-1-propene", "NSC 16685", "NSC 65667", "Iksin"], "SMILES": "C(=C(N(=O)=O)C)C=1C=C2C(=CC1)OCO2", "physical_data": {"Molecular Weight": "207.18", "Molecular Formula": "C10H9NO4", "Melting Point": "98 \u00b0C"}}