{"cas_no": "543906-09-8", "cn_name": "(3AR,4S,7AR)-\u516b\u6c22-4-\u7f9f\u57fa-4-[2-(3-\u7532\u57fa\u82ef\u57fa)\u4e59\u7094\u57fa]-1H-\u5432\u54da-1-\u7fa7\u9178\u7532\u916f", "en_name": ["Mavoglurant", "1H-Indole-1-carboxylic acid, octahydro-4-hydroxy-4-[2-(3-methylphenyl)ethynyl]-, methyl ester, (3aR,4S,7aR)-", "1H-Indole-1-carboxylic acid, octahydro-4-hydroxy-4-[(3-methylphenyl)ethynyl]-, methyl ester, (3aR,4S,7aR)-", "Mavoglurant", "AFQ 056"], "SMILES": "C(#CC1=CC(C)=CC=C1)C2(O)C3C(N(C(OC)=O)CC3)CCC2", "physical_data": {"Molecular Weight": "313.39", "Molecular Formula": "C19H23NO3", "Melting Point": "110-112 \u00b0C"}}