{"cas_no": "54393-89-4", "cn_name": "4-\u4e19\u786b\u57fa-2-\u785d\u57fa\u82ef\u80fa", "en_name": ["4-Propylthio-2-nitroaniline", "Benzenamine, 2-nitro-4-(propylthio)-", "2-Nitro-4-(propylthio)benzenamine", "2-Nitro-4-(propylthio)aniline", "[2-Nitro-4-(propylthio)phenyl]amine", "4-Propylthio-2-nitroaniline", "1-Amino-2-nitro-4-n-propylthiobenzene", "2-Nitro-4-propylsulfanylaniline", "2-Nitro-4-(propylsulfanyl)aniline", "2-Nitro-4-propylsulfanyl-phenylamine"], "SMILES": "N(=O)(=O)C1=CC(SCCC)=CC=C1N", "physical_data": {"Molecular Weight": "212.27", "Molecular Formula": "C9H12N2O2S", "Melting Point": "42-43 \u00b0C"}}