{"cas_no": "5439-14-5", "cn_name": "3,4-\u4e8c\u6c22-2H-\u5421\u5576\u5e76[1,2-D]\u5627\u5576-2-\u916e", "en_name": ["3,4-Dihydro-2H-pyrido[1,2-a]pyrimidin-2-one", "2H-Pyrido[1,2-a]pyrimidin-2-one, 3,4-dihydro-", "3,4-Dihydro-2H-pyrido[1,2-a]pyrimidin-2-one", "NSC 15063", "2H,3H,4H-Pyrido[1,2-a]pyrimidin-2-one"], "SMILES": "O=C1N=C2N(CC1)C=CC=C2", "physical_data": {"Molecular Weight": "148.16", "Molecular Formula": "C8H8N2O", "Melting Point": "188-190 \u00b0C"}}