{"cas_no": "54395-52-7", "cn_name": "2,2-\u53cc[4-(N-\u7532\u57fa\u915e\u9170\u4e9a\u80fa-4-\u6c27)\u82ef\u57fa]\u4e19\u70f7", "en_name": ["5,5\u2032-[(1-Methylethylidene)bis(4,1-phenyleneoxy)]bis[2-methyl-1H-isoindole-1,3(2H)-dione]", "1H-Isoindole-1,3(2H)-dione, 5,5\u2032-[(1-methylethylidene)bis(4,1-phenyleneoxy)]bis[2-methyl-", "5,5\u2032-[(1-Methylethylidene)bis(4,1-phenyleneoxy)]bis[2-methyl-1H-isoindole-1,3(2H)-dione]", "2,2-Bis[4-(3,4-dicarboxyphenoxy)phenyl]propane N,N\u2032-bismethylimide", "4,4\u2032-Bisphenol A-bis-N-methylphthalimide", "4,4\u2032-Bisphenol A-bis-(N-methylphthalimide)"], "SMILES": "O=C1C=2C(C(=O)N1C)=CC=C(OC3=CC=C(C(C)(C)C4=CC=C(OC=5C=C6C(=CC5)C(=O)N(C)C6=O)C=C4)C=C3)C2", "physical_data": {"Molecular Weight": "546.57", "Molecular Formula": "C33H26N2O6", "Melting Point": "146-148 \u00b0C"}}