{"cas_no": "544-10-5", "cn_name": "1-\u6c2f\u5df1\u70f7", "en_name": ["1-Chlorohexane", "Hexane, 1-chloro-", "1-Chlorohexane", "Hexyl chloride", "n-Hexyl chloride", "1-Hexyl chloride"], "SMILES": "C(CCC)CCCl", "physical_data": {"Molecular Weight": "120.62", "Molecular Formula": "C6H13Cl", "Boiling Point": "135 \u00b0C", "Melting Point": "-94 \u00b0C", "Density": "0.8759 g/cm\u00b3 @ Temp: 20 \u00b0C"}}