{"cas_no": "544-85-4", "cn_name": "\u6b63\u4e09\u5341\u4e8c\u70f7", "en_name": ["Dotriacontane", "Dotriacontane", "Bicetyl", "n-Dotriacontane", "NSC 6361"], "SMILES": "C(CCCCCCCCCCCCCCCC)CCCCCCCCCCCCCCC", "physical_data": {"Molecular Weight": "450.87", "Molecular Formula": "C32H66", "Boiling Point": "467 \u00b0C", "Melting Point": "69.7 \u00b0C", "Density": "0.9162 g/cm\u00b3 @ Temp: 60 \u00b0C"}}