{"cas_no": "544-00-3", "cn_name": "\u4e8c\u5f02\u620a\u80fa", "en_name": ["Diisoamylamine", "1-Butanamine, 3-methyl-N-(3-methylbutyl)-", "Diisopentylamine", "3-Methyl-N-(3-methylbutyl)-1-butanamine", "Diisoamylamine", "NSC 6261", "N,N-Bis(3-methylbutyl)amine", "Bis(3-methylbutyl)amine"], "SMILES": "C(CC(C)C)NCCC(C)C", "physical_data": {"Molecular Weight": "157.30", "Molecular Formula": "C10H23N", "Boiling Point": "188 \u00b0C", "Melting Point": "-44 \u00b0C", "Density": "0.768 g/cm\u00b3 @ Temp: 20 \u00b0C"}}