{"cas_no": "544-17-2", "cn_name": "\u7532\u9178\u9499", "en_name": ["Calcium formate", "Formic acid, calcium salt (2:1)", "Calcium formate", "Formic acid, calcium salt", "Calcium diformate", "Calcium formate (Ca(HCO2)2)", "Calcoform", "Selbest Accelerator", "E 328", "Ronasil CF", "Mebofix 50", "Hanming HW", "Diformyloxycalcium"], "SMILES": "C(O)=O.[Ca]", "physical_data": {"Molecular Weight": "", "Molecular Formula": "CH2O2.<sup>1</sup>/2Ca", "Melting Point": "&gt;300 \u00b0C", "Density": "2.015 g/cm\u00b3"}}