{"cas_no": "544-97-8", "cn_name": "\u4e8c\u7532\u57fa\u950c", "en_name": ["Dimethylzinc", "Zinc, dimethyl-", "Dimethylzinc"], "SMILES": "[Zn](C)C", "physical_data": {"Molecular Weight": "", "Molecular Formula": "C2H6Zn", "Boiling Point": "46 \u00b0C", "Melting Point": "-40 \u00b0C", "Density": "1.386 g/cm\u00b3 @ Temp: 10.5 \u00b0C"}}