{"cas_no": "544-63-8", "cn_name": "\u8089\u8c46\u853b\u9178", "en_name": ["Myristic acid", "Tetradecanoic acid", "Myristic acid", "Neo-Fat 14", "Univol U 316S", "n-Tetradecoic acid", "1-Tridecanecarboxylic acid", "n-Tetradecanoic acid", "n-Tetradecan-1-oic acid", "Prifac 2942", "NAA 142", "NAA 104", "Emery 655", "Hystrene 9014", "Edenor C 14", "Kortacid 1499", "Philacid 1400", "NSC 5028", "Lunac MY 98", "Prifrac 2942", "Edenor C 14/98-100", "1-Tetradecanoic acid", "MY 98", "Imex C 1499", "Palmac 98-14", "Lunac M 98", "Edenor C14-99 (C)", "Sinar FA 1499", "Myristates", "Edenor C14-99", "POFAC 1498", "MA 1499", "MA 1499 (acid)", "MeSH ID: D019814"], "SMILES": "C(CCCCCCCC)CCCCC(O)=O", "physical_data": {"Molecular Weight": "228.37", "Molecular Formula": "C14H28O2", "Boiling Point": "326.2 \u00b0C", "Melting Point": "58.5 \u00b0C", "Density": "0.8622 g/cm\u00b3 @ Temp: 54 \u00b0C"}}