{"cas_no": "544-92-3", "cn_name": "\u6c30\u5316\u4e9a\u94dc", "en_name": ["Cuprous cyanide", "Copper cyanide (Cu(CN))", "Cupricin", "Cuprous cyanide", "Copper cyanide", "Copper(I) cyanide", "Copper monocyanide", "Copper(1+) cyanide"], "SMILES": "C([Cu])#N", "physical_data": {"Molecular Weight": "", "Molecular Formula": "CCuN", "Melting Point": "474 \u00b0C", "Density": "2.9 g/cm\u00b3"}}