{"cas_no": "544-60-5", "cn_name": "\u6cb9\u9178\u94f5", "en_name": ["Ammonium oleate", "9-Octadecenoic acid (9Z)-, ammonium salt (1:1)", "Oleic acid, ammonium salt", "9-Octadecenoic acid (Z)-, ammonium salt", "9-Octadecenoic acid (9Z)-, ammonium salt", "Ammonia soap", "Ammonium oleate", "DEF 115", "DEF 116T", "DEF 116"], "SMILES": "C(CC=CCCCCCCCC)CCCCCC(O)=O.N", "physical_data": {"Molecular Weight": "", "Molecular Formula": "C18H34O2.H3N", "Melting Point": "71 \u00b0C"}}