{"cas_no": "544-62-7", "cn_name": "\u9ca8\u809d\u9187", "en_name": ["Batyl alcohol", "1,2-Propanediol, 3-(octadecyloxy)-", "3-(Octadecyloxy)-1,2-propanediol", "Batilol", "Batyl alcohol", "Glycerol monooctadecyl ether", "1-O-Octadecylglycerol", "Glyceryl-1-octadecyl ether", "Stearyl monoglyceride", "1-Octadecyloxy-2,3-dihydroxypropane", "Glycerol 1-octadecyl ether", "1-Octadecylglycerol", "\u03b1-Monostearyl glyceryl ether", "rac-1-O-Octadecylglycerol", "(\u00b1)-1-Octadecylglycerol", "(\u00b1)-Batyl alcohol", "(RS)-Batyl alcohol", "(\u00b1)-3-(Octadecyloxy)-1,2-propanediol", "2,3-Dihydroxypropyl octadecyl ether", "3-Stearyloxy-1,2-propylene glycol", "Nikkol Batyl Alcohol EX", "Octadecyl-\u03b1-glycerol ether", "NSC 284200", "NSC 8716", "Nikkol Batyl Alcohol 100", "Batil alcohol", "Glycerol octadecyl ether", "1-Octadecyloxy-2,3-propanediol", "3-Octadecoxypropane-1,2-diol"], "SMILES": "C(CCCCCCCCCCCCCCC)CCOCC(CO)O", "physical_data": {"Molecular Weight": "344.57", "Molecular Formula": "C21H44O3", "Boiling Point": "215-220 \u00b0C @ Press: 2 Torr", "Melting Point": "70.5 \u00b0C"}}