{"cas_no": "544-16-1", "cn_name": "\u4e9a\u785d\u9178\u4e01\u916f", "en_name": ["Butyl nitrite", "Nitrous acid, butyl ester", "Butyl nitrite", "n-Butyl nitrite", "NSC 8426"], "SMILES": "C(CCC)ON=O", "physical_data": {"Molecular Weight": "103.12", "Molecular Formula": "C4H9NO2", "Boiling Point": "78 \u00b0C"}}