{"cas_no": "544-76-3", "cn_name": "\u6b63\u5341\u516d\u70f7", "en_name": ["Hexadecane", "Hexadecane", "Cetane", "n-Hexadecane", "n-Cetane", "NSC 7334", "S 6 (alkane)", "TS Paraffin TS 6", "TS 6", "MPCM 18D"], "SMILES": "C(CCCCCCCC)CCCCCCC", "physical_data": {"Molecular Weight": "226.44", "Molecular Formula": "C16H34", "Boiling Point": "286.5 \u00b0C", "Melting Point": "18.14 \u00b0C", "Density": "0.77335 g/cm\u00b3 @ Temp: 20 \u00b0C"}}