{"cas_no": "544-35-4", "cn_name": "\u4e9a\u6cb9\u9178\u4e59\u916f", "en_name": ["Ethyl linoleate", "9,12-Octadecadienoic acid (9Z,12Z)-, ethyl ester", "Linoleic acid, ethyl ester", "9,12-Octadecadienoic acid (Z,Z)-, ethyl ester", "Ethyl linoleate", "Ethyl cis,cis-9,12-octadecadienoate", "Mandenol", "Ethyl linolate", "Ethyl (Z,Z)-9,12-octadecadienoate", "Nikkol VF-E"], "SMILES": "C(CCCCCC=CCC=CCCCCC)CC(OCC)=O", "physical_data": {"Molecular Weight": "308.50", "Molecular Formula": "C20H36O2", "Boiling Point": "122-124.5 \u00b0C @ Press: 0.02-0.03 Torr", "Melting Point": "&lt;25 \u00b0C"}}