{"cas_no": "544-31-0", "cn_name": "\u5341\u516d\u9170\u80fa\u4e59\u9187", "en_name": ["Palmitoylethanolamide", "Hexadecanamide, N-(2-hydroxyethyl)-", "N-(2-Hydroxyethyl)hexadecanamide", "N-(2-Hydroxyethyl)palmitamide", "Palmidrol", "Palmitoylethanolamide", "Palmitic acid monoethanolamide", "(Hydroxyethyl)palmitamide", "Impulsin", "Palmitic monoethanolamide", "Loramine P 256", "2-Palmitamidoethanol", "N-Palmitoylethanolamine", "2-(Palmitoylamino)ethanol", "N-Hexadecanoylethanolamine", "AM 3112", "NSC 23320", "Mackpeart DR 14V", "PEA-um", "Palmitic acid ethanolamide", "FSD 201"], "SMILES": "C(CCCCCCCCCCCCC)CC(NCCO)=O", "physical_data": {"Molecular Weight": "299.49", "Molecular Formula": "C18H37NO2", "Melting Point": "98.5 \u00b0C"}}