{"cas_no": "544-13-8", "cn_name": "\u620a\u4e8c\u8148", "en_name": ["Glutaronitrile", "Pentanedinitrile", "Glutaronitrile", "Glutaric acid dinitrile", "1,3-Dicyanopropane", "Glutarodinitrile", "Glutaric dinitrile", "1,5-Pentanedinitrile", "NSC 3807"], "SMILES": "C(CC#N)CC#N", "physical_data": {"Molecular Weight": "94.11", "Molecular Formula": "C5H6N2", "Boiling Point": "286 \u00b0C", "Melting Point": "-29 \u00b0C", "Density": "0.97930 g/cm\u00b3 @ Temp: 30 \u00b0C"}}