{"cas_no": "544-64-9", "cn_name": "\u8089\u8c46\u853b\u6cb9\u9178", "en_name": ["Myristoleic acid", "9-Tetradecenoic acid, (9Z)-", "9-Tetradecenoic acid, (Z)-", "(9Z)-9-Tetradecenoic acid", "Myristoleic acid", "cis-\u03949-Tetradecenoic acid", "cis-9-Tetradecenoic acid", "Myristolenic acid", "(Z)-9-Tetradecenoic acid", "9-cis-Tetradecenoic acid", "9(Z)-Tetradecenoic acid", "9(Z)-Tetradecenoic acid", "Oleomyristic acid", "(9Z)-Tetradeca-9-enoic acid"], "SMILES": "C(CCC=CCCCC)CCCCC(O)=O", "physical_data": {"Molecular Weight": "226.35", "Molecular Formula": "C14H26O2", "Boiling Point": "144 \u00b0C @ Press: 0.6 Torr", "Melting Point": "-4.5-4 \u00b0C"}}