{"cas_no": "544-40-1", "cn_name": "\u4e8c\u4e01\u57fa\u786b\u919a", "en_name": ["Dibutyl sulfide", "Butane, 1,1\u2032-thiobis-", "Butyl sulfide", "1,1\u2032-Thiobis[butane]", "n-Butyl sulfide", "Butylthiobutane", "Dibutyl sulfide", "5-Thianonane", "Thiononane-5", "n-Dibutyl sulfide", "Butyl monosulfide", "Dibutyl thioether", "Di-n-butyl sulfide", "Di-n-butyl thioether", "NSC 8460", "1-Butylsulfanylbutane", "Dibutylsulfane"], "SMILES": "S(CCCC)CCCC", "physical_data": {"Molecular Weight": "146.29", "Molecular Formula": "C8H18S", "Boiling Point": "185 \u00b0C", "Melting Point": "-79.7 \u00b0C", "Density": "0.8334 g/cm\u00b3 @ Temp: 20 \u00b0C"}}