{"cas_no": "544-25-2", "cn_name": "\u73af\u5e9a\u4e09\u70ef", "en_name": ["Cycloheptatriene", "1,3,5-Cycloheptatriene", "Tropilidene", "Tropiliden", "Cycloheptatriene"], "SMILES": "C1C=CC=CC=C1", "physical_data": {"Molecular Weight": "92.14", "Molecular Formula": "C7H8", "Boiling Point": "117 \u00b0C", "Melting Point": "-79.5 \u00b0C", "Density": "0.8876 g/cm\u00b3 @ Temp: 20 \u00b0C"}}