{"cas_no": "544-12-7", "cn_name": "\u53cd\u5f0f-3-\u5df1\u70ef-1-\u9187", "en_name": ["3-Hexen-1-ol", "3-Hexen-1-ol", "1-Hydroxy-3-hexene", "\u03b2-\u03b3-Hexenol"], "SMILES": "C(=CCC)CCO", "physical_data": {"Molecular Weight": "100.16", "Molecular Formula": "C6H12O", "Boiling Point": "156.5 \u00b0C", "Melting Point": "129-130 \u00b0C", "Density": "0.8442 g/cm\u00b3 @ Temp: 24 \u00b0C"}}