{"cas_no": "544-77-4", "cn_name": "\u7898\u5341\u516d\u70f7", "en_name": ["1-Iodohexadecane", "Hexadecane, 1-iodo-", "1-Iodohexadecane", "Cetyl iodide", "Hexadecyl iodide"], "SMILES": "C(CCCCCCCC)CCCCCCCI", "physical_data": {"Molecular Weight": "352.34", "Molecular Formula": "C16H33I", "Boiling Point": "208 \u00b0C @ Press: 10 Torr", "Melting Point": "22 \u00b0C", "Density": "1.12639 g/cm\u00b3 @ Temp: 20 \u00b0C"}}