{"cas_no": "544-01-4", "cn_name": "\u5f02\u620a\u919a", "en_name": ["Diisoamyl ether", "Butane, 1,1\u2032-oxybis[3-methyl-", "Isopentyl ether", "1,1\u2032-Oxybis[3-methylbutane]", "Diisoamyl ether", "Isoamyl ether", "Isoamyl oxide", "Diisopentyl ether", "Di-3-methylbutyl ether", "NSC 9281", "3-Methyl-1-(3-methylbutoxy)butane"], "SMILES": "C(CC(C)C)OCCC(C)C", "physical_data": {"Molecular Weight": "158.28", "Molecular Formula": "C10H22O", "Boiling Point": "172.5 \u00b0C", "Density": "0.7777 g/cm\u00b3 @ Temp: 12 \u00b0C"}}