{"cas_no": "544-02-5", "cn_name": "\u4e8c\u5f02\u620a\u57fa\u786b\u919a", "en_name": ["1,1\u2032-Thiobis[3-methylbutane]", "Butane, 1,1\u2032-thiobis[3-methyl-", "Isopentyl sulfide", "1,1\u2032-Thiobis[3-methylbutane]", "Diisoamyl sulfide", "2,8-Dimethyl-5-thianonane", "Isoamyl sulfide", "Diisopentyl sulfide", "Di(3-methylbutyl) sulfide", "Diisoamyl thioether", "3-Methyl-1-(3-methylbutylsulfanyl)butane"], "SMILES": "C(CC(C)C)SCCC(C)C", "physical_data": {"Molecular Weight": "174.35", "Molecular Formula": "C10H22S", "Boiling Point": "211 \u00b0C", "Melting Point": "-74.6 \u00b0C", "Density": "0.8476 g/cm\u00b3 @ Temp: 0 \u00b0C"}}