{"cas_no": "544-47-8", "cn_name": "S-(4-\u6c2f\u82c4\u57fa)\u6c2f\u5316\u5f02\u786b\u8132", "en_name": ["Carbamimidothioic acid, (4-chlorophenyl)methyl ester, hydrochloride (1:1)", "Carbamimidothioic acid, (4-chlorophenyl)methyl ester, hydrochloride (1:1)", "Pseudourea, 2-(p-chlorobenzyl)-2-thio-, monohydrochloride", "Carbamimidothioic acid, (4-chlorophenyl)methyl ester, monohydrochloride", "Pseudourea, 2-(p-chlorobenzyl)-2-thio-, hydrochloride", "p-Chlorobenzylpseudothiuronium chloride", "2-(p-Chlorobenzyl)-2-thiopseudourea hydrochloride", "S-(p-Chlorobenzyl)thiouronium chloride", "p-Chlorobenzylisothiuronium chloride", "2-(4-Chlorobenzyl)isothiouronium chloride"], "SMILES": "C(SC(=N)N)C1=CC=C(Cl)C=C1.Cl", "physical_data": {"Molecular Weight": "", "Molecular Formula": "C8H9ClN2S.ClH", "Melting Point": "197 \u00b0C"}}