{"cas_no": "5440-00-6", "cn_name": "5,6-\u4e8c\u6c28\u57fa-1,3-\u4e8c\u7532\u57fa\u8132\u5627\u5576", "en_name": ["5,6-Diamino-1,3-dimethyluracil", "2,4(1H,3H)-Pyrimidinedione, 5,6-diamino-1,3-dimethyl-", "Uracil, 5,6-diamino-1,3-dimethyl-", "5,6-Diamino-1,3-dimethyl-2,4(1H,3H)-pyrimidinedione", "5,6-Diamino-1,3-dimethyluracil", "4,5-Diamino-1,3-dimethyluracil", "4,5-Diamino-1,3-dimethylpyrimidine-2,6-dione", "1,3-Dimethyl-5,6-diaminouracil", "4,5-Diamino-1,3-dimethyl-2,6-dioxotetrahydropyrimidine", "5,6-Diamino-1,3-dimethyl-2,4-pyrimidinedione", "NSC 15493"], "SMILES": "NC1=C(N)N(C)C(=O)N(C)C1=O", "physical_data": {"Molecular Weight": "170.17", "Molecular Formula": "C6H10N4O2", "Melting Point": "278-281 \u00b0C"}}