{"cas_no": "54401-85-3", "cn_name": "4-\u5421\u5576\u4e59\u9178\u4e59\u916f", "en_name": ["Ethyl 4-pyridineacetate", "4-Pyridineacetic acid, ethyl ester", "Ethyl 4-pyridineacetate", "Ethyl 4-pyridylacetate", "Ethyl 4-pyridinylacetate", "2-(Pyridin-4-yl)ethanoic acid ethyl ester", "Ethyl 2-(4-pyridinyl)acetate", "2-(4-Pyridyl)acetic acid ethyl ester", "Ethyl 2-(4-pyridyl)acetate", "(Pyridin-4-yl)acetic acid ethyl ester", "(4-Pyridyl)acetic acid ethyl ester"], "SMILES": "C(C(OCC)=O)C=1C=CN=CC1", "physical_data": {"Molecular Weight": "165.19", "Molecular Formula": "C9H11NO2", "Boiling Point": "107-108 \u00b0C @ Press: 3 Torr", "Melting Point": "18-19 \u00b0C"}}