{"cas_no": "54406-48-3", "cn_name": "\u53f3\u65cb\u53cd\u5f0f\u7094\u620a\u83ca\u916f", "en_name": ["Empenthrin", "Cyclopropanecarboxylic acid, 2,2-dimethyl-3-(2-methyl-1-propen-1-yl)-, 1-ethynyl-2-methyl-2-penten-1-yl ester", "Cyclopropanecarboxylic acid, 2,2-dimethyl-3-(2-methyl-1-propenyl)-, 1-ethynyl-2-methyl-2-pentenyl ester", "S 2852", "MA 108", "d-Empenthrin", "Vaporthrin", "S 2852F", "S 2852 Forte", "Empenthrin", "Bunganon VA Plate"], "SMILES": "C(OC(C(=CCC)C)C#C)(=O)C1C(C=C(C)C)C1(C)C", "physical_data": {"Molecular Weight": "274.40", "Molecular Formula": "C18H26O2", "Boiling Point": "295.5 \u00b0C", "Melting Point": "&lt;25 \u00b0C"}}