{"cas_no": "54419-93-1", "cn_name": "H-GLN-GLN-OH", "en_name": ["L-Glutaminyl-L-glutamine", "L-Glutamine, L-glutaminyl-", "L-Glutamine, N2-L-glutaminyl-", "Glutamine, N2-glutaminyl-", "L-Glutaminyl-L-glutamine", "34: PN: WO2005094423 PAGE: 42 claimed protein", "62: PN: US20070191366 TABLE: 5 claimed protein", "43: PN: EP2301956 PAGE: 31 claimed sequence", "109: PN: WO2011146121 PAGE: 115 claimed sequence", "4: PN: WO2014102104 SEQID: 103 claimed protein", "4: PN: WO2014102101 SEQID: 304 claimed protein", "44: PN: WO2014102103 TABLE: 1 claimed protein", "23: PN: WO2014102100 TABLE: 1 claimed protein"], "SMILES": "C(NC(C(CCC(N)=O)N)=O)(CCC(N)=O)C(O)=O", "physical_data": {"Molecular Weight": "274.27", "Molecular Formula": "C10H18N4O5", "Melting Point": "209 \u00b0C (decomp)"}}