{"cas_no": "5441-51-0", "cn_name": "4-\u4e59\u57fa\u73af\u5df1\u916e", "en_name": ["4-Ethylcyclohexanone", "Cyclohexanone, 4-ethyl-", "4-Ethylcyclohexanone", "NSC 21120", "4-Ethyl-1-cyclohexanone"], "SMILES": "C(C)C1CCC(=O)CC1", "physical_data": {"Molecular Weight": "126.20", "Molecular Formula": "C8H14O", "Boiling Point": "193 \u00b0C", "Melting Point": "87-88 \u00b0C", "Density": "0.913 g/cm\u00b3 @ Temp: 20 \u00b0C"}}