{"cas_no": "5441-52-1", "cn_name": "3,5-\u4e8c\u7532\u57fa\u73af\u5df1\u9187(\u5f02\u6784\u4f53\u7684\u6df7\u5408\u7269)", "en_name": ["3,5-Dimethylcyclohexanol", "Cyclohexanol, 3,5-dimethyl-", "3,5-Dimethylcyclohexanol", "NSC 21130"], "SMILES": "CC1CC(C)CC(O)C1", "physical_data": {"Molecular Weight": "128.21", "Molecular Formula": "C8H16O", "Boiling Point": "187 \u00b0C", "Melting Point": "11.6 \u00b0C", "Density": "0.8806 g/cm\u00b3 @ Temp: 38.90001953125 \u00b0C"}}