{"cas_no": "54410-90-1", "cn_name": "4-\u620a\u57fa\u73af\u5df1\u9187(\u987a\u53cd\u5f02\u6784\u4f53\u6df7\u5408\u7269)", "en_name": ["4-Pentylcyclohexanol", "Cyclohexanol, 4-pentyl-", "4-Pentylcyclohexanol", "NSC 168970"], "SMILES": "C(CCCC)C1CCC(O)CC1", "physical_data": {"Molecular Weight": "170.29", "Molecular Formula": "C11H22O", "Boiling Point": "88 \u00b0C"}}