{"cas_no": "5441-14-5", "cn_name": "4-\u82ef\u57fa\u6c28\u57fa\u8132\u76d0\u9178\u76d0", "en_name": ["Hydrazinecarboxamide, N-phenyl-, hydrochloride (1:1)", "Hydrazinecarboxamide, N-phenyl-, hydrochloride (1:1)", "Semicarbazide, 4-phenyl-, hydrochloride", "Hydrazinecarboxamide, N-phenyl-, monohydrochloride", "4-Phenylsemicarbazide hydrochloride", "4-(Phenyl)-3-semicarbazide hydrochloride", "3-Amino-1-phenylurea hydrochloride"], "SMILES": "N(C(NN)=O)C1=CC=CC=C1.Cl", "physical_data": {"Molecular Weight": "", "Molecular Formula": "C7H9N3O.ClH", "Melting Point": "150 \u00b0C"}}