{"cas_no": "5442-00-2", "cn_name": "2-\u73af\u5df2\u57fa-1-\u4e19\u9187", "en_name": ["2-Cyclohexyl-1-propanol", "Cyclohexaneethanol, \u03b2-methyl-", "\u03b2-Methylcyclohexaneethanol", "2-Cyclohexyl-1-propanol", "2-Cyclohexylpropanol", "NSC 20786"], "SMILES": "C(CO)(C)C1CCCCC1", "physical_data": {"Molecular Weight": "142.24", "Molecular Formula": "C9H18O", "Boiling Point": "97-98 \u00b0C @ Press: 13 Torr", "Density": "0.9130 g/cm\u00b3 @ Temp: 20 \u00b0C"}}