{"cas_no": "54429-56-0", "cn_name": "2-\u6eb4\u4e59\u57fa\u78fa\u9170\u6c2f", "en_name": ["2-Bromoethanesulfonyl chloride", "Ethanesulfonyl chloride, 2-bromo-", "2-Bromoethanesulfonyl chloride", "2-Bromoethane-1-sulfonyl chloride"], "SMILES": "C(S(Cl)(=O)=O)CBr", "physical_data": {"Molecular Weight": "207.47", "Molecular Formula": "C2H4BrClO2S", "Boiling Point": "119-121 \u00b0C @ Press: 21 Torr", "Density": "1.921 g/cm\u00b3 @ Temp: 20 \u00b0C"}}