{"cas_no": "5442-24-0", "cn_name": "4-\u6c28\u57fa-2,6-\u4e8c\u7f9f\u57fa-5-\u4e9a\u785d\u57fa\u5627\u5576", "en_name": ["6-Amino-5-nitroso-2,4(1H,3H)-pyrimidinedione", "2,4(1H,3H)-Pyrimidinedione, 6-amino-5-nitroso-", "Uracil, 6-amino-5-nitroso-", "6-Amino-5-nitroso-2,4(1H,3H)-pyrimidinedione", "6-Amino-5-nitrosouracil", "4-Amino-5-nitroso-2,6-pyrimidinediol", "5-Nitroso-6-aminouracil", "6-Amino-5-nitroso-2,4-pyrimidinediol", "NSC 11446", "NSC 14287", "NSC 3101", "NSC 677501", "NSC 94946", "6-Amino-5-nitroso-22,4(1H,3H)-pyrimidinedione"], "SMILES": "N(=O)C1=C(N)NC(=O)NC1=O", "physical_data": {"Molecular Weight": "156.10", "Molecular Formula": "C4H4N4O3", "Melting Point": "&gt;300 \u00b0C"}}