{"cas_no": "5442-12-6", "cn_name": "\u53bb\u7532\u6591\u8765\u7d20", "en_name": ["Hexahydro-4,7-epoxyisobenzofuran-1,3-dione", "4,7-Epoxyisobenzofuran-1,3-dione, hexahydro-", "7-Oxabicyclo[2.2.1]heptane-2,3-dicarboxylic anhydride", "Hexahydro-4,7-epoxyisobenzofuran-1,3-dione", "NSC 14003", "4,10-Dioxatricyclo[5.2.1.02,6]decane-3,5-dione"], "SMILES": "O=C1C2C(C3OC2CC3)C(=O)O1", "physical_data": {"Molecular Weight": "168.15", "Molecular Formula": "C8H8O4", "Melting Point": "110 \u00b0C"}}