{"cas_no": "5443-49-2", "cn_name": "\u03b1-\u6eb4\u4ee3\u8089\u6842\u919b", "en_name": ["\u03b1-Bromocinnamaldehyde", "2-Propenal, 2-bromo-3-phenyl-", "Cinnamaldehyde, \u03b1-bromo-", "2-Bromo-3-phenyl-2-propenal", "B 37", "Alphabrocine", "\u03b1-Bromocinnamaldehyde", "\u03b1-Bromocinnamic aldehyde", "2-Bromocinnamaldehyde", "B 36", "NSC 19806", "2-Bromo-3-phenylacrolein", "\u03b1-Bromocinnamal", "2-Bromo-3-phenylacrylaldehyde"], "SMILES": "C(=C(C=O)Br)C1=CC=CC=C1", "physical_data": {"Molecular Weight": "211.06", "Molecular Formula": "C9H7BrO", "Melting Point": "70.5 \u00b0C"}}