{"cas_no": "5444-75-7", "cn_name": "\u82ef\u7532\u9178\u4e59\u57fa\u5df1\u916f", "en_name": ["Ethylhexyl benzoate", "Benzoic acid, 2-ethylhexyl ester", "1-Hexanol, 2-ethyl-, benzoate", "Ethylhexyl benzoate", "2-Ethyl-1-hexanol benzoate", "2-Ethylhexyl benzoate", "Velate 368", "NSC 19155", "Hi-Ester B 508", "Finsolv EB", "SDX 3652", "Benzoflex 181"], "SMILES": "C(OCC(CCCC)CC)(=O)C1=CC=CC=C1", "physical_data": {"Molecular Weight": "234.33", "Molecular Formula": "C15H22O2", "Boiling Point": "169-170 \u00b0C @ Press: 20 Torr", "Density": "0.9654 g/cm\u00b3 @ Temp: 20 \u00b0C"}}