{"cas_no": "5444-02-0", "cn_name": "2,6-\u4e8c\u7f9f\u57fa-3-\u6c30\u57fa-4-\u7532\u57fa\u5421\u5576", "en_name": ["1,2-Dihydro-6-hydroxy-4-methyl-2-oxo-3-pyridinecarbonitrile", "3-Pyridinecarbonitrile, 1,2-dihydro-6-hydroxy-4-methyl-2-oxo-", "Nicotinonitrile, 2,6-dihydroxy-4-methyl-", "1,2-Dihydro-6-hydroxy-4-methyl-2-oxo-3-pyridinecarbonitrile", "2,6-Dihydroxy-3-cyano-4-methylpyridine", "3-Cyano-2,6-dihydroxy-4-methylpyridine", "3-Cyano-4-methyl-6-hydroxy-2-pyridone", "3-Cyano-6-hydroxy-4-methyl-2-pyridone", "2,6-Dihydroxy-4-methyl-3-pyridinecarbonitrile", "3-Cyano-4-methyl-6-hydroxy-2-pyridinone", "2,6-Dihydroxy-4-methylnicotinonitrile", "NSC 19883", "3-Cyano-6-hydroxy-4-methylpyridin-2(1H)-one", "2-Hydroxy-4-methyl-6-oxo-1,6-dihydropyridine-3-carbonitrile", "2-Hydroxy-4-methyl-6-oxo-1H-pyridine-3-carbonitrile"], "SMILES": "C(#N)C1=C(C)C=C(O)NC1=O", "physical_data": {"Molecular Weight": "150.13", "Molecular Formula": "C7H6N2O2", "Melting Point": "304 \u00b0C (decomp)"}}