{"cas_no": "5444-01-9", "cn_name": "3-\u6c30\u57fa-4-\u7532\u57fa\u5421\u5576", "en_name": ["4-Methyl-3-pyridinecarbonitrile", "3-Pyridinecarbonitrile, 4-methyl-", "Nicotinonitrile, 4-methyl-", "4-Methyl-3-pyridinecarbonitrile", "4-Picoline-3-carbonitrile", "3-Cyano-4-picoline", "3-Cyano-4-methylpyridine", "4-Methylnicotinonitrile", "4-Methyl-3-cyanopyridine", "NSC 19882"], "SMILES": "C(#N)C=1C(C)=CC=NC1", "physical_data": {"Molecular Weight": "118.14", "Molecular Formula": "C7H6N2", "Boiling Point": "64 \u00b0C @ Press: 1-2 Torr", "Melting Point": "45-46 \u00b0C"}}