{"cas_no": "5445-73-8", "cn_name": "\u5627\u5576\u55e1,1,4,5,6-\u56db\u6c22-2-\u7532\u5def\u57fa-,\u7898\u5316\u7269", "en_name": ["Pyrimidine, 1,4,5,6-tetrahydro-2-(methylthio)-, hydriodide (1:1)", "Pyrimidine, 1,4,5,6-tetrahydro-2-(methylthio)-, hydriodide (1:1)", "Pyrimidine, 1,4,5,6-tetrahydro-2-(methylthio)-, monohydriodide", "2-(Methylthio)-1,4,5,6-tetrahydropyrimidine hydroiodide", "1,4,5,6-Tetrahydro-2-(methylthio)pyrimidine hydriodide", "2-Methylthio-3,4,5,6-tetrahydropyrimidine hydroiodide", "2-(Methylsulfanyl)-3,4,5,6-tetrahydropyrimidinium iodide", "2-(Methylsulfanyl)-1,4,5,6-tetrahydropyrimidine hydroiodide"], "SMILES": "S(C)C=1NCCCN1.I", "physical_data": {"Molecular Weight": "", "Molecular Formula": "C5H10N2S.HI", "Melting Point": "149-149.5 \u00b0C"}}