{"cas_no": "5445-51-2", "cn_name": "1,1-\u73af\u4e01\u57fa\u4e8c\u7532\u9178", "en_name": ["1,1-Cyclobutanedicarboxylic acid", "1,1-Cyclobutanedicarboxylic acid", "1,1-Dicarboxycyclobutane", "1-Carboxycyclobutanecarboxylic acid", "NSC 22073"], "SMILES": "C(O)(=O)C1(C(O)=O)CCC1", "physical_data": {"Molecular Weight": "144.13", "Molecular Formula": "C6H8O4", "Melting Point": "1457.0-1458.5 \u00b0C (decomp)"}}