{"cas_no": "5445-22-7", "cn_name": "2-\u6eb4\u8f9b\u9178\u7532\u916f", "en_name": ["Octanoic acid, 2-bromo-, methyl ester", "Octanoic acid, 2-bromo-, methyl ester", "Methyl 2-bromooctanoate", "NSC 21981"], "SMILES": "C(CCCCCC)(C(OC)=O)Br", "physical_data": {"Molecular Weight": "237.13", "Molecular Formula": "C9H17BrO2", "Boiling Point": "15 \u00b0C @ Press: 0.6 Torr"}}