{"cas_no": "5445-29-4", "cn_name": "\u0391-\u6eb4\u8f9b\u9178\u4e59\u916f", "en_name": ["Octanoic acid, 2-bromo-, ethyl ester", "Octanoic acid, 2-bromo-, ethyl ester", "Ethyl 2-bromooctanoate", "Ethyl \u03b1-bromocaprylate", "\u03b1-Bromocaprylic acid ethyl ester", "NSC 21989", "2-Bromo-octanoic acid ethyl ester"], "SMILES": "C(C(OCC)=O)(CCCCCC)Br", "physical_data": {"Molecular Weight": "251.16", "Molecular Formula": "C10H19BrO2", "Boiling Point": "137-140 \u00b0C @ Press: 25 Torr"}}