{"cas_no": "54458-61-6", "cn_name": "2,3,4,5-\u56db\u7532\u57fa-2-\u73af\u620a\u70ef\u916e", "en_name": ["2,3,4,5-Tetramethyl-2-cyclopentenone", "2-Cyclopenten-1-one, 2,3,4,5-tetramethyl-", "2,3,4,5-Tetramethyl-2-cyclopenten-1-one", "2,3,4,5-Tetramethyl-2-cyclopentenone", "Tetramethylcyclopent-2-enone", "2,3,4,5-Tetramethylcyclopenten-1-one", "2,3,4,5-Tetramethylcyclopentenone"], "SMILES": "CC1C(C)=C(C)C(=O)C1C", "physical_data": {"Molecular Weight": "138.21", "Molecular Formula": "C9H14O", "Boiling Point": "59.8 \u00b0C @ Press: 3.3 Torr"}}