{"cas_no": "5445-26-1", "cn_name": "4-\u785d\u57fa\u82ef\u4e59\u9178\u4e59\u916f", "en_name": ["Benzeneacetic acid, 4-nitro-, ethyl ester", "Benzeneacetic acid, 4-nitro-, ethyl ester", "Acetic acid, (p-nitrophenyl)-, ethyl ester", "Ethyl p-nitrophenylacetate", "Ethyl 4-nitrobenzeneacetate", "Ethyl (4-nitrophenyl)acetate", "4-Nitrobenzeneacetic acid ethyl ester", "(4-Nitrophenyl)acetic acid ethyl ester", "NSC 21986", "Ethyl 2-(4-nitrophenyl)acetate"], "SMILES": "C(C(OCC)=O)C1=CC=C(N(=O)=O)C=C1", "physical_data": {"Molecular Weight": "209.20", "Molecular Formula": "C10H11NO4", "Boiling Point": "125-150 \u00b0C @ Press: 0.1 Torr", "Melting Point": "69 \u00b0C"}}