{"cas_no": "5445-44-3", "cn_name": "O-\u82c4\u57fa-DL-\u4e1d\u6c28\u9178", "en_name": ["O-(Phenylmethyl)serine", "Serine, O-(phenylmethyl)-", "Alanine, 3-(benzyloxy)-, DL-", "DL-Serine, O-(phenylmethyl)-", "O-(Phenylmethyl)serine", "Benzyl-DL-serine", "Alanine, 3-(phenylmethoxy)-", "NSC 22028", "2-Amino-3-(benzyloxy)propanoic acid", "2-Amino-3-benzyloxy-propionic acid", "3-Benzyloxy-DL-alanine", "2-Amino-3-phenylmethoxypropanoic acid"], "SMILES": "C(OCC(C(O)=O)N)C1=CC=CC=C1", "physical_data": {"Molecular Weight": "195.22", "Molecular Formula": "C10H13NO3", "Melting Point": "213 \u00b0C (decomp)"}}