{"cas_no": "54454-10-3", "cn_name": "5-\u6c2f-1,3-\u4e8c\u7532\u57fa\u5421\u5511", "en_name": ["5-Chloro-1,3-dimethyl-1H-pyrazole", "1H-Pyrazole, 5-chloro-1,3-dimethyl-", "5-Chloro-1,3-dimethyl-1H-pyrazole", "5-Chloro-1,3-dimethylpyrazole"], "SMILES": "ClC=1N(C)N=C(C)C1", "physical_data": {"Molecular Weight": "130.58", "Molecular Formula": "C5H7ClN2", "Boiling Point": "157.5 \u00b0C", "Density": "1.1400 g/cm\u00b3 @ Temp: 20 \u00b0C"}}