{"cas_no": "5445-19-2", "cn_name": "2-\u6eb4\u5df1\u9178\u7532\u916f", "en_name": ["Hexanoic acid, 2-bromo-, methyl ester", "Hexanoic acid, 2-bromo-, methyl ester", "Methyl 2-bromohexanoate", "Methyl 2-bromocaproate", "Methyl (\u00b1)-2-bromocaproate", "(\u00b1)-Methyl 2-bromohexanoate", "Methyl \u03b1-bromocaproate", "NSC 21976", "2-Bromohexanoic acid methyl ester"], "SMILES": "C(C(OC)=O)(CCCC)Br", "physical_data": {"Molecular Weight": "209.08", "Molecular Formula": "C7H13BrO2", "Boiling Point": "86 \u00b0C @ Press: 12 Torr", "Density": "1.2734 g/cm\u00b3 @ Temp: 25 \u00b0C"}}