{"cas_no": "5445-17-0", "cn_name": "2-\u6eb4\u4e19\u9178\u7532\u916f", "en_name": ["Methyl 2-bromopropanoate", "Propanoic acid, 2-bromo-, methyl ester", "Propionic acid, 2-bromo-, methyl ester", "Methyl 2-bromopropanoate", "Methyl \u03b1-bromopropionate", "Methyl 2-bromopropionate", "2-Bromopropanoic acid methyl ester", "2-Bromopropionic acid methyl ester", "DL-\u03b1-Bromopropionic acid methyl ester", "Methyl DL-2-bromopropanoate", "(\u00b1)-2-Bromopropionic acid methyl ester", "(\u00b1)-Methyl 2-bromopropionate", "Methyl DL-\u03b1-bromopropionate", "Methyl (\u00b1)-\u03b1-bromopropionate", "NSC 21973", "Methyl \u03b1-bromopropanoate"], "SMILES": "C(C(Br)C)(OC)=O", "physical_data": {"Molecular Weight": "167.00", "Molecular Formula": "C4H7BrO2", "Boiling Point": "37 \u00b0C @ Press: 10 Torr"}}