{"cas_no": "5446-18-4", "cn_name": "2,4-\u4e8c\u6c2f\u82ef\u80bc\u76d0\u9178\u76d0", "en_name": ["Hydrazine, (2,4-dichlorophenyl)-, hydrochloride (1:1)", "Hydrazine, (2,4-dichlorophenyl)-, hydrochloride (1:1)", "Hydrazine, (2,4-dichlorophenyl)-, monohydrochloride", "2,4-Dichlorophenylhydrazine hydrochloride"], "SMILES": "N(N)C1=C(Cl)C=C(Cl)C=C1.Cl", "physical_data": {"Molecular Weight": "", "Molecular Formula": "C6H6Cl2N2.ClH", "Melting Point": "191-193 \u00b0C"}}