{"cas_no": "5446-05-9", "cn_name": "4-\u6c2f-1-\u7898-2-\u785d\u57fa\u82ef", "en_name": ["4-Chloro-1-iodo-2-nitrobenzene", "Benzene, 4-chloro-1-iodo-2-nitro-", "4-Chloro-1-iodo-2-nitrobenzene", "1-Iodo-2-nitro-4-chlorobenzene", "NSC 17163", "4-Chloro-2-nitrophenyl iodide", "1-Chloro-4-iodo-3-nitrobenzene"], "SMILES": "N(=O)(=O)C1=C(I)C=CC(Cl)=C1", "physical_data": {"Molecular Weight": "283.45", "Molecular Formula": "C6H3ClINO2", "Melting Point": "59 \u00b0C"}}