{"cas_no": "5446-02-6", "cn_name": "4-\u7532\u6c27\u57fa\u6c34\u6768\u9178\u7532\u916f", "en_name": ["Methyl 4-methoxysalicylate", "Benzoic acid, 2-hydroxy-4-methoxy-, methyl ester", "p-Anisic acid, 2-hydroxy-, methyl ester", "Methyl 2-hydroxy-4-methoxybenzoate", "Methyl 4-methoxysalicylate", "2-Hydroxy-4-methoxybenzoic acid methyl ester", "NSC 17154", "Methyl 4-methoxy-2-hydroxybenzoate"], "SMILES": "C(OC)(=O)C1=C(O)C=C(OC)C=C1", "physical_data": {"Molecular Weight": "182.17", "Molecular Formula": "C9H10O4", "Melting Point": "49 \u00b0C"}}