{"cas_no": "5446-92-4", "cn_name": "5-\u785d\u57fa-2-\u7532\u6c27\u57fa\u5421\u5576", "en_name": ["6-Methoxy-3-nitropyridine", "Pyridine, 2-methoxy-5-nitro-", "2-Methoxy-5-nitropyridine", "6-Methoxy-3-nitropyridine", "NSC 5555"], "SMILES": "N(=O)(=O)C=1C=CC(OC)=NC1", "physical_data": {"Molecular Weight": "154.12", "Molecular Formula": "C6H6N2O3", "Melting Point": "108-109 \u00b0C"}}