{"cas_no": "5447-97-2", "cn_name": "2-\u6eb42-\u785d\u57fa\u4e19\u70f7", "en_name": ["2-Bromo-2-nitropropane", "Propane, 2-bromo-2-nitro-", "2-Bromo-2-nitropropane", "NSC 17672"], "SMILES": "C(N(=O)=O)(Br)(C)C", "physical_data": {"Molecular Weight": "167.99", "Molecular Formula": "C3H6BrNO2", "Boiling Point": "153 \u00b0C", "Melting Point": "33-35 \u00b0C"}}