{"cas_no": "54474-50-9", "cn_name": "2,4-\u4e8c\u7532\u57fa3-\u5421\u54af\u4e19 \u9178", "en_name": ["2,4-Dimethyl-1H-pyrrole-3-propanoic acid", "1H-Pyrrole-3-propanoic acid, 2,4-dimethyl-", "Pyrrole-3-propionic acid, 2,4-dimethyl-", "2,4-Dimethyl-1H-pyrrole-3-propanoic acid", "3-(2,4-Dimethyl-1H-pyrrol-3-yl)propionic acid"], "SMILES": "C(CC(O)=O)C=1C(C)=CNC1C", "physical_data": {"Molecular Weight": "167.21", "Molecular Formula": "C9H13NO2", "Melting Point": "140-141 \u00b0C"}}