{"cas_no": "5447-86-9", "cn_name": "10,10-\u4e8c\u7532\u57fa\u84bd\u916e", "en_name": ["10,10-Dimethyl-9(10H)-anthracenone", "9(10H)-Anthracenone, 10,10-dimethyl-", "Anthrone, 10,10-dimethyl-", "10,10-Dimethyl-9(10H)-anthracenone", "10,10-Dimethylanthrone", "10,10-Dimethyl-9-anthrone", "NSC 17539", "10,10-Dimethyl-10H-anthracen-9-one", "10,10-Dimethyl-9,10-dihydroanthracen-9-one", "10,10-Dimethylanthracen-9-one"], "SMILES": "O=C1C=2C(C(C)(C)C=3C1=CC=CC3)=CC=CC2", "physical_data": {"Molecular Weight": "222.28", "Molecular Formula": "C16H14O", "Melting Point": "99.5-100.5 \u00b0C"}}