{"cas_no": "5447-02-9", "cn_name": "3,4-\u4e8c\u82c4\u6c27\u57fa\u82ef\u7532\u919b", "en_name": ["3,4-Bis(benzyloxy)benzaldehyde", "Benzaldehyde, 3,4-bis(phenylmethoxy)-", "Benzaldehyde, 3,4-bis(benzyloxy)-", "3,4-Bis(phenylmethoxy)benzaldehyde", "3,4-Di(benzyloxy)benzaldehyde", "3,4-Bis(benzyloxy)benzaldehyde", "Protocatechualdehyde dibenzyl ether", "\u03b1,\u03b1\u2032-Diphenylveratraldehyde", "NSC 16747"], "SMILES": "O(CC1=CC=CC=C1)C2=C(OCC3=CC=CC=C3)C=CC(C=O)=C2", "physical_data": {"Molecular Weight": "318.37", "Molecular Formula": "C21H18O3", "Melting Point": "93 \u00b0C"}}