{"cas_no": "5448-47-5", "cn_name": "\u5432\u54da-3-\u4e59\u9170\u80bc", "en_name": ["Indole-3-acetic acid, hydrazide", "1H-Indole-3-acetic acid, hydrazide", "Indole-3-acetic acid, hydrazide", "3-Indolylacetic acid hydrazide", "NSC 17812", "NSC 63799", "Indole-3-acetylhydrazine", "Indole-3-acetic hydrazide", "(1H-Indol-3-yl)acetic acid hydrazide", "Indole-3-acetohydrazide", "2-(1H-Indol-3-yl)acetohydrazide"], "SMILES": "C(C(NN)=O)C=1C=2C(NC1)=CC=CC2", "physical_data": {"Molecular Weight": "189.21", "Molecular Formula": "C10H11N3O", "Melting Point": "143-144 \u00b0C"}}