{"cas_no": "545-46-0", "cn_name": "\u4e4c\u53d1\u9187", "en_name": ["Uvaol", "Urs-12-ene-3,28-diol, (3\u03b2)-", "Urs-12-ene-3\u03b2,28-diol", "(3\u03b2)-Urs-12-ene-3,28-diol", "Uvaol", "Uvalol", "3\u03b2,28-Dihydroxyurs-12-ene", "3,28-Dihydroxyurs-12-ene", "Urs-12-en-3\u03b2,28-diol", "NSC 159627"], "SMILES": "CC12C(C3C(CO)(CC1)CCC(C)C3C)=CCC4C2(C)CCC5C4(C)CCC(O)C5(C)C", "physical_data": {"Molecular Weight": "442.72", "Molecular Formula": "C30H50O2", "Melting Point": "233 \u00b0C"}}