{"cas_no": "545-48-2", "cn_name": "\u9ad8\u6839\u4e8c\u9187", "en_name": ["(+)-Erythrodiol", "Olean-12-ene-3,28-diol, (3\u03b2)-", "Olean-12-ene-3\u03b2,28-diol", "Erythrodiol", "(3\u03b2)-Olean-12-ene-3,28-diol", "(+)-Erythrodiol", "3\u03b2,28-Dihydroxyolean-12-ene", "3\u03b2-Erythrodiol", "Oleanolic alcohol"], "SMILES": "CC12C(C3C(CO)(CC1)CCC(C)(C)C3)=CCC4C2(C)CCC5C4(C)CCC(O)C5(C)C", "physical_data": {"Molecular Weight": "442.72", "Molecular Formula": "C30H50O2", "Melting Point": "231 \u00b0C"}}