{"cas_no": "545-06-2", "cn_name": "\u4e09\u6c2f\u4e59\u8148", "en_name": ["Trichloroacetonitrile", "Acetonitrile, 2,2,2-trichloro-", "Acetonitrile, trichloro-", "2,2,2-Trichloroacetonitrile", "Trichloroacetonitrile", "Trichloromethyl cyanide", "Tritox", "Cyanotrichloromethane", "Trichlorocyanomethane", "NSC 66405", "Cl3CCN"], "SMILES": "C(C#N)(Cl)(Cl)Cl", "physical_data": {"Molecular Weight": "144.39", "Molecular Formula": "C2Cl3N", "Boiling Point": "85.7 \u00b0C", "Melting Point": "-42 \u00b0C", "Density": "1.44 g/cm\u00b3 @ Temp: 25 \u00b0C"}}