{"cas_no": "545-47-1", "cn_name": "\u7fbd\u6247\u8c46\u9187", "en_name": ["Lupeol", "Lup-20(29)-en-3-ol, (3\u03b2)-", "Lup-20(29)-en-3\u03b2-ol", "Monogynol B", "1H-Cyclopenta[a]chrysene, lup-20(29)-en-3-ol deriv.", "(3\u03b2)-Lup-20(29)-en-3-ol", "Fagarasterol", "Lupenol", "Lupeol", "Clerodol", "\u03b2-Viscol", "Fagarsterol", "3\u03b2-Hydroxylup-20(29)-ene", "(+)-Lupeol", "NSC 90487"], "SMILES": "CC12C(C3C(C)(CC1)CCC3C(C)=C)CCC4C2(C)CCC5C4(C)CCC(O)C5(C)C", "physical_data": {"Molecular Weight": "426.72", "Molecular Formula": "C30H50O", "Melting Point": "216 \u00b0C", "Density": "0.9457 g/cm\u00b3 @ Temp: 18 \u00b0C"}}