{"cas_no": "54504-70-0", "cn_name": "\u76ca\u591a\u916f", "en_name": ["Theofibrate", "Propanoic acid, 2-(4-chlorophenoxy)-2-methyl-, 2-(1,2,3,6-tetrahydro-1,3-dimethyl-2,6-dioxo-7H-purin-7-yl)ethyl ester", "ML 1024", "Etofylline clofibrate", "Duolip", "Theofibrate", "Etophylline clofibrate", "Ethophylline clofibrate", "NSC 234348", "2-(1,3-Dimethyl-2,6-dioxo-2,3,6,7-tetrahydro-1H-purin-7-yl)ethyl 2-(4-chlorophenoxy)-2-methylpropanoate"], "SMILES": "C(COC(C(OC1=CC=C(Cl)C=C1)(C)C)=O)N2C3=C(N=C2)N(C)C(=O)N(C)C3=O", "physical_data": {"Molecular Weight": "420.85", "Molecular Formula": "C19H21ClN4O5", "Melting Point": "133-135 \u00b0C"}}