{"cas_no": "5450-26-0", "cn_name": "1,2:5,6-\u4e8c\u5f02\u4e9a\u4e19\u57fa-3-O-(\u7532\u78fa\u9170\u57fa)-alpha-D-\u544b\u5583\u8461\u8404\u7cd6", "en_name": ["\u03b1-D-Glucofuranose, 1,2:5,6-bis-O-(1-methylethylidene)-, 3-methanesulfonate", "\u03b1-D-Glucofuranose, 1,2:5,6-bis-O-(1-methylethylidene)-, 3-methanesulfonate", "Glucofuranose, 1,2:5,6-di-O-isopropylidene-, methanesulfonate, \u03b1-D-", "\u03b1-D-Glucofuranose, 1,2:5,6-bis-O-(1-methylethylidene)-, methanesulfonate", "\u03b1-D-Glucofuranose, 1,2:5,6-di-O-isopropylidene-, 3-methanesulfonate", "Furo[2,3-d]-1,3-dioxole, \u03b1-D-glucofuranose deriv.", "3-O-(Methylsulfonyl)-1,2", "5,6-di-O-isopropylidene-\u03b1-D-glucofuranose", "1,2:5,6-Di-O-isopropylidene-3-O-mesyl-\u03b1-D-glucofuranose"], "SMILES": "O(S(C)(=O)=O)C1C(OC2C1OC(C)(C)O2)C3COC(C)(C)O3", "physical_data": {"Molecular Weight": "338.37", "Molecular Formula": "C13H22O8S", "Melting Point": "83-84 \u00b0C"}}