{"cas_no": "54512-75-3", "cn_name": "1-\u6eb4-5-\u6c2f\u620a\u70f7", "en_name": ["1-Bromo-5-chloropentane", "Pentane, 1-bromo-5-chloro-", "1-Bromo-5-chloropentane", "5-Chloropentyl bromide", "5-Bromo-1-chloropentane", "NSC 50474"], "SMILES": "C(CCBr)CCCl", "physical_data": {"Molecular Weight": "185.49", "Molecular Formula": "C5H10BrCl", "Boiling Point": "210-212 \u00b0C", "Density": "1.488 g/cm\u00b3 @ Temp: 15 \u00b0C"}}