{"cas_no": "5451-09-2", "cn_name": "5-\u6c28\u57fa\u4e59\u9170\u4e19\u9178\u76d0\u9178\u76d0", "en_name": ["Aminolevulinic acid hydrochloride", "Pentanoic acid, 5-amino-4-oxo-, hydrochloride (1:1)", "Levulinic acid, 5-amino-, hydrochloride", "Pentanoic acid, 5-amino-4-oxo-, hydrochloride", "\u03b4-Aminolevulinic acid hydrochloride", "5-Aminolevulinic acid hydrochloride", "Aminolevulinic acid hydrochloride", "5-Amino-4-oxopentanoic acid hydrochloride", "5-Aminolaevulinic acid hydrochloride", "Levulan Kerastick", "Ameluz", "Gliolan"], "SMILES": "C(CCC(O)=O)(CN)=O.Cl", "physical_data": {"Molecular Weight": "", "Molecular Formula": "C5H9NO3.ClH", "Melting Point": "145 \u00b0C"}}