{"cas_no": "5451-40-1", "cn_name": "2,6-\u4e8c\u6c2f\u560c\u5464", "en_name": ["2,6-Dichloropurine", "9H-Purine, 2,6-dichloro-", "Purine, 2,6-dichloro-", "1H-Purine, 2,6-dichloro-", "2,6-Dichloro-9H-purine", "2,6-Dichloropurine", "2,6-Dichloro-1H-purine", "NSC 18395", "2,6-Dichloro-9H-purin", "2,6-Dichloro-7H-purine"], "SMILES": "ClC1=C2C(=NC(Cl)=N1)N=CN2", "physical_data": {"Molecular Weight": "189.00", "Molecular Formula": "C5H2Cl2N4", "Melting Point": "177 \u00b0C"}}