{"cas_no": "54527-84-3", "cn_name": "\u76d0\u9178\u5c3c\u5361\u5730\u5e73", "en_name": ["Nicardipine hydrochloride", "3,5-Pyridinedicarboxylic acid, 1,4-dihydro-2,6-dimethyl-4-(3-nitrophenyl)-, 3-methyl 5-[2-[methyl(phenylmethyl)amino]ethyl] ester, hydrochloride (1:1)", "3,5-Pyridinedicarboxylic acid, 1,4-dihydro-2,6-dimethyl-4-(3-nitrophenyl)-, methyl 2-[methyl(phenylmethyl)amino]ethyl ester, monohydrochloride", "2,6-Dimethyl-4-(3-nitrophenyl)-1,4-dihydropyridine-3,5-dicarboxylic acid 3-[2-(N-benzyl-N-methylamino)]-ethyl ester 5-methyl ester hydrochloride", "YC 93", "Nicardipine hydrochloride", "Perdipine", "Cardene", "Cardene (pharmaceutical)", "Vasonase", "Ridene", "Vasodin", "Nicardal", "Nicapress", "Lescodil", "RS 69216", "Rycarden", "Nerdipina", "Lecibral", "Nicant", "RS 69216XX07-0", "Bionicard", "Dacarel", "Barizin", "Nicodel", "Perdipina", "Ranvil", "Loxen", "Nimicor", "Rydene", "Nicarpin", "Cardepine", "Cardene SR"], "SMILES": "C(OCCN(CC1=CC=CC=C1)C)(=O)C=2C(C(C(OC)=O)=C(C)NC2C)C3=CC(N(=O)=O)=CC=C3.Cl", "physical_data": {"Molecular Weight": "", "Molecular Formula": "C26H29N3O6.ClH", "Melting Point": "168-170 \u00b0C"}}