{"cas_no": "5452-37-9", "cn_name": "\u73af\u8f9b\u80fa", "en_name": ["Cyclooctylamine", "Cyclooctanamine", "Cyclooctylamine", "Aminocyclooctane", "NSC 18965", "SKF 23880A"], "SMILES": "NC1CCCCCCC1", "physical_data": {"Molecular Weight": "127.23", "Molecular Formula": "C8H17N", "Boiling Point": "190 \u00b0C", "Melting Point": "-48 \u00b0C"}}