{"cas_no": "54522-52-0", "cn_name": "\u7532\u57fa\u539f\u85af\u84e3\u7682\u7519", "en_name": ["Methylprotodioscin", "\u03b2-D-Glucopyranoside, (3\u03b2,22\u03b1,25R)-26-(\u03b2-D-glucopyranosyloxy)-22-methoxyfurost-5-en-3-yl O-6-deoxy-\u03b1-L-mannopyranosyl-(1\u21922)-O-[6-deoxy-\u03b1-L-mannopyranosyl-(1\u21924)]-", "(3\u03b2,22\u03b1,25R)-26-(\u03b2-D-Glucopyranosyloxy)-22-methoxyfurost-5-en-3-yl O-6-deoxy-\u03b1-L-mannopyranosyl-(1\u21922)-O-[6-deoxy-\u03b1-L-mannopyranosyl-(1\u21924)]-\u03b2-D-glucopyranoside", "Methylprotodioscin", "Smilax saponin B", "3\u03b2,26-Dihydroxy-22\u03b1-methoxyfurost-5-ene 3-O-\u03b2-chacotrioside 26-O-\u03b2-D-glucopyranoside", "NSC 698790", "22-Methoxylprotodioscin", "22-O-Methylprotodioscin"], "SMILES": "CC12C(C3C(CC1)C4(C)C(=CC3)CC(OC5C(OC6C(O)C(O)C(O)C(C)O6)C(O)C(OC7C(O)C(O)C(O)C(C)O7)C(CO)O5)CC4)CC8C2C(C)C(CCC(COC9OC(CO)C(O)C(O)C9O)C)(OC)O8", "physical_data": {"Molecular Weight": "1063.23", "Molecular Formula": "C52H86O22", "Melting Point": "175-177 \u00b0C"}}