{"cas_no": "5452-35-7", "cn_name": "\u73af\u5e9a\u80fa", "en_name": ["Cycloheptylamine", "Cycloheptanamine", "Cycloheptylamine", "Aminocycloheptane", "NSC 18962", "(2-Cycloheptyl)amine"], "SMILES": "NC1CCCCCC1", "physical_data": {"Molecular Weight": "113.20", "Molecular Formula": "C7H15N", "Boiling Point": "165-169 \u00b0C"}}