{"cas_no": "5452-75-5", "cn_name": "\u73af\u5df1\u57fa\u4e59\u9178\u4e59\u916f", "en_name": ["Ethyl cyclohexylacetate", "Cyclohexaneacetic acid, ethyl ester", "Ethyl cyclohexylacetate", "Ethyl cyclohexaneacetate", "Ethyl \u03b1-cyclohexylacetate", "NSC 18985", "Ethyl 2-cyclohexylacetate"], "SMILES": "C(C(OCC)=O)C1CCCCC1", "physical_data": {"Molecular Weight": "170.25", "Molecular Formula": "C10H18O2", "Boiling Point": "211 \u00b0C"}}