{"cas_no": "5453-67-8", "cn_name": "\u5421\u5576-2.6-\u4e8c\u7fa7\u9178\u4e8c\u7532\u916f", "en_name": ["Dimethyl 2,6-pyridinedicarboxylate", "2,6-Pyridinedicarboxylic acid, 2,6-dimethyl ester", "2,6-Pyridinedicarboxylic acid, dimethyl ester", "Dimethyl 2,6-pyridinedicarboxylate", "2,6-Dipicolinic acid dimethyl ester", "Dipicolinic acid dimethyl ester", "2,6-Bismethoxycarbonylpyridine", "2,6-Dicarbomethoxypyridine", "NSC 18855", "2,6-Dimethyl pyridine-2,6-dicarboxylate"], "SMILES": "C(OC)(=O)C=1N=C(C(OC)=O)C=CC1", "physical_data": {"Molecular Weight": "195.17", "Molecular Formula": "C9H9NO4", "Boiling Point": "100 \u00b0C @ Press: 5 x 10<sup>-3</sup> Torr", "Melting Point": "122-124 \u00b0C"}}