{"cas_no": "54533-85-6", "cn_name": "\u785d\u5511\u82ac\u916e", "en_name": ["Nizofenone", "Methanone, (2-chlorophenyl)[2-[2-[(diethylamino)methyl]-1H-imidazol-1-yl]-5-nitrophenyl]-", "(2-Chlorophenyl)[2-[2-[(diethylamino)methyl]-1H-imidazol-1-yl]-5-nitrophenyl]methanone", "1-[2-(2-Chlorobenzoyl)-4-nitrophenyl]-2-[(diethylamino)methyl]imidazole", "Nizofenone"], "SMILES": "C(=O)(C1=C(C=CC(N(=O)=O)=C1)N2C(CN(CC)CC)=NC=C2)C3=C(Cl)C=CC=C3", "physical_data": {"Molecular Weight": "412.87", "Molecular Formula": "C21H21ClN4O3", "Melting Point": "75-76 \u00b0C"}}