{"cas_no": "5453-80-5", "cn_name": "5-\u964d\u51b0\u7247\u70ef-2-\u7532\u919b", "en_name": ["Bicyclo[2.2.1]hept-5-ene-2-carboxaldehyde", "Bicyclo[2.2.1]hept-5-ene-2-carboxaldehyde", "5-Norbornene-2-carboxaldehyde", "2,5-Endomethylene-1,2,5,6-tetrahydrobenzaldehyde", "Bicyclo[2.2.1]hept-2-ene-5-carboxaldehyde", "Bicyclo[2.2.1]hept-2-enyl-5-carboxaldehyde", "2-Norbornene-5-carboxaldehyde", "5-Formyl-2-norbornene", "5-Norbornene-2-carbaldehyde", "2-Formylbicyclo[2.2.1]hept-5-ene", "NSC 18897"], "SMILES": "C(=O)C1C2CC(C1)C=C2", "physical_data": {"Molecular Weight": "122.16", "Molecular Formula": "C8H10O", "Boiling Point": "70-72 \u00b0C @ Press: 620 Torr"}}