{"cas_no": "5454-28-4", "cn_name": "\u5e9a\u9178\u4e01\u916f", "en_name": ["Butyl heptanoate", "Heptanoic acid, butyl ester", "Butyl heptanoate", "Butyl enanthate", "NSC 23048"], "SMILES": "C(CCCCCC)(OCCCC)=O", "physical_data": {"Molecular Weight": "186.29", "Molecular Formula": "C11H22O2", "Boiling Point": "226.2 \u00b0C", "Melting Point": "-67.5 \u00b0C", "Density": "0.8799 g/cm\u00b3 @ Temp: 0 \u00b0C"}}