{"cas_no": "5454-83-1", "cn_name": "5-\u6eb4\u620a\u9178\u7532\u916f", "en_name": ["Methyl 5-bromopentanoate", "Pentanoic acid, 5-bromo-, methyl ester", "Valeric acid, 5-bromo-, methyl ester", "Methyl 5-bromopentanoate", "Methyl 5-bromovalerate", "Methyl \u03c9-bromopentanoate", "5-Bromovaleric acid methyl ester", "Methyl \u03b4-bromovalerate", "NSC 23228", "5-Bromopentanoic acid methyl ester", "Methyl 5-bromobutanoate"], "SMILES": "C(CCCCBr)(OC)=O", "physical_data": {"Molecular Weight": "195.05", "Molecular Formula": "C6H11BrO2", "Boiling Point": "101.5 \u00b0C @ Press: 14 Torr"}}