{"cas_no": "5455-98-1", "cn_name": "N-(2,3-\u73af\u6c27\u4e19\u57fa)\u90bb\u82ef\u4e8c\u7532\u9170\u80fa", "en_name": ["N-(2,3-Epoxypropyl)phthalimide", "1H-Isoindole-1,3(2H)-dione, 2-(2-oxiranylmethyl)-", "1H-Isoindole-1,3(2H)-dione, 2-(oxiranylmethyl)-", "Phthalimide, N-(2,3-epoxypropyl)-", "2-(2-Oxiranylmethyl)-1H-isoindole-1,3(2H)-dione", "N-(2,3-Epoxypropyl)phthalimide", "2,3-Epoxypropylphthalimide", "N-Glycidylphthalimide", "Denacol EX 731", "(Phthalimidomethyl)oxirane", "2-(Phthalimidomethyl)oxirane", "N-Oxiranylmethylphthalimide", "NSC 7244", "N-(2,3-Epoxypropan-1-yl)phthalimide", "2-[(Oxiranyl)methyl]isoindole-1,3-dione", "N-(2,3-Epoxypropyl)-2-phthalimide", "2-(Oxiran-2-ylmethyl)-2,3-dihydro-1H-isoindole-1,3-dione", "2-(Oxiran-2-ylmethyl)isoindoline-1,3-dione", "2-(Oxiran-2-ylmethyl)isoindole-1,3-dione", "2-(Oxiranylmethyl)-1H-isoindole-1,3(2H)-dione"], "SMILES": "O=C1C=2C(C(=O)N1CC3CO3)=CC=CC2", "physical_data": {"Molecular Weight": "203.19", "Molecular Formula": "C11H9NO3", "Melting Point": "93-94 \u00b0C"}}