{"cas_no": "54556-98-8", "cn_name": "\u76d0\u9178\u4e19\u54cc\u7ef4\u6797", "en_name": ["Propiverine hydrochloride", "Benzeneacetic acid, \u03b1-phenyl-\u03b1-propoxy-, 1-methyl-4-piperidinyl ester, hydrochloride (1:1)", "Benzeneacetic acid, \u03b1-phenyl-\u03b1-propoxy-, 1-methyl-4-piperidinyl ester, hydrochloride", "Acetic acid, diphenylpropoxy-, 1-methyl-4-piperidyl ester, hydrochloride", "Propiverine hydrochloride", "Mictonorm", "P 4", "P 4 (anticholinergic)", "Mictonetten", "Pollarine", "1-Methylpiperidin-4-yl 2,2-diphenyl-2-propoxyacetate hydrochloride"], "SMILES": "C(C(OC1CCN(C)CC1)=O)(OCCC)(C2=CC=CC=C2)C3=CC=CC=C3.Cl", "physical_data": {"Molecular Weight": "", "Molecular Formula": "C23H29NO3.ClH", "Melting Point": "216-218 \u00b0C"}}