{"cas_no": "54551-83-6", "cn_name": "2,6-\u4e8c\u6c2f\u82ef\u57fa\u4e59\u9178\u7532\u916f", "en_name": ["Methyl 2,6-dichlorobenzeneacetate", "Benzeneacetic acid, 2,6-dichloro-, methyl ester", "Methyl 2,6-dichlorobenzeneacetate", "Methyl (2,6-dichlorophenyl)acetate", "2,6-Dichlorophenylacetic acid methyl ester", "Methyl 2-(2,6-dichlorophenyl)acetate"], "SMILES": "C(C(OC)=O)C1=C(Cl)C=CC=C1Cl", "physical_data": {"Molecular Weight": "219.06", "Molecular Formula": "C9H8Cl2O2", "Boiling Point": "151-153 \u00b0C @ Press: 21 Torr"}}