{"cas_no": "5457-44-3", "cn_name": "3-\u6c27\u5df1\u4e8c\u9178\u4e8c\u7532\u916f", "en_name": ["Hexanedioic acid, 3-oxo-, 1,6-dimethyl ester", "Hexanedioic acid, 3-oxo-, 1,6-dimethyl ester", "Hexanedioic acid, 3-oxo-, dimethyl ester", "Dimethyl 3-oxohexanedioate", "Dimethyl 3-oxoadipate", "Dimethyl \u03b2-ketoadipate", "NSC 24878", "3-Oxoadipic acid dimethyl ester", "1,6-Dimethyl 3-oxohexanedioate", "3-Ketohexanedioic acid dimethyl ester"], "SMILES": "C(C(CCC(OC)=O)=O)C(OC)=O", "physical_data": {"Molecular Weight": "188.18", "Molecular Formula": "C8H12O5", "Boiling Point": "122 \u00b0C @ Press: 0.5 Torr"}}