{"cas_no": "54571-66-3", "cn_name": "\u7532\u57fa5-\u6c27\u4ee3\u5421\u54af\u70f7-2-\u7532\u9178\u916f", "en_name": ["Methyl 5-oxopyrrolidine-2-carboxylate", "Proline, 5-oxo-, methyl ester", "DL-Proline, 5-oxo-, methyl ester", "Methyl DL-pyroglutamate", "(\u00b1)-Methyl 5-oxo-2-pyrrolidinecarboxylate", "Methyl 5-oxopyrrolidine-2-carboxylate", "Methyl 5-oxopyrrolidin-2-carboxylate"], "SMILES": "C(OC)(=O)C1NC(=O)CC1", "physical_data": {"Molecular Weight": "143.14", "Molecular Formula": "C6H9NO3", "Boiling Point": "131-133 \u00b0C @ Press: 0.8 Torr"}}