{"cas_no": "5458-59-3", "cn_name": "\u8f9b\u9178\u5f02\u4e19\u916f", "en_name": ["Isopropyl octanoate", "Octanoic acid, 1-methylethyl ester", "Octanoic acid, isopropyl ester", "Isopropyl octanoate", "Isopropyl caprylate", "NSC 23737", "n-Octanoic acid isopropyl ester", "1-Methylethyl octanoate"], "SMILES": "C(C(OC(C)C)=O)CCCCCC", "physical_data": {"Molecular Weight": "186.29", "Molecular Formula": "C11H22O2", "Boiling Point": "242 \u00b0C"}}