{"cas_no": "54582-35-3", "cn_name": "N-(4-\u7532\u6c27\u57fa\u82c4\u57fa)\u8132", "en_name": ["N-[(4-Methoxyphenyl)methyl]urea", "Urea, N-[(4-methoxyphenyl)methyl]-", "Urea, [(4-methoxyphenyl)methyl]-", "N-[(4-Methoxyphenyl)methyl]urea", "(p-Methoxybenzyl)urea", "N-(4-Methoxybenzyl)urea", "4-Methoxybenzylurea", "1-(4-Methoxybenzyl)urea", "[(4-Methoxyphenyl)methyl]urea", "(4-Methoxyphenyl)methylurea"], "SMILES": "C(NC(N)=O)C1=CC=C(OC)C=C1", "physical_data": {"Molecular Weight": "180.20", "Molecular Formula": "C9H12N2O2", "Melting Point": "110-112 \u00b0C"}}