{"cas_no": "54589-54-7", "cn_name": "3-\u6c2f\u7532\u57fa\u82ef\u7532\u9178\u4e59\u916f", "en_name": ["Benzoic acid, 3-(chloromethyl)-, ethyl ester", "Benzoic acid, 3-(chloromethyl)-, ethyl ester", "Ethyl m-(chloromethyl)benzoate", "Ethyl 3-chloromethylbenzoate"], "SMILES": "C(OCC)(=O)C1=CC(CCl)=CC=C1", "physical_data": {"Molecular Weight": "198.65", "Molecular Formula": "C10H11ClO2", "Boiling Point": "168-169 \u00b0C @ Press: 25 Torr"}}