{"cas_no": "54586-78-6", "cn_name": "\u7532\u57fa\u4e19\u70ef\u9170\u6c27\u7532\u57fa\u4e09\u7532\u6c27\u57fa\u7845\u70f7", "en_name": ["(Methacryloxymethyl)trimethoxysilane", "2-Propenoic acid, 2-methyl-, (trimethoxysilyl)methyl ester", "(Methacryloxymethyl)trimethoxysilane", "Geniosil XL 33", "Methacryloxy methylene trimethoxysilane", "(Methacryloyloxymethyl)trimethoxysilane", "Geniosil XL33", "(Trimethoxysilyl)methyl 2-methylacrylate", "\u03b1-570", "Trimethoxysilylmethyl methacrylate", "(Trimethoxysilyl)methyl 2-methacrylate", "X 12-1303MS"], "SMILES": "[Si](COC(C(C)=C)=O)(OC)(OC)OC", "physical_data": {"Molecular Weight": "220.30", "Molecular Formula": "C8H16O5Si", "Boiling Point": "48-50 \u00b0C @ Press: 2 Torr", "Density": "1.07 g/cm\u00b3"}}