{"cas_no": "5458-06-0", "cn_name": "5-(4-\u7f9f\u57fa\u4e01\u57fa)\u54aa\u5511\u70f7-2,4-\u4e8c\u916e", "en_name": ["5-(4-Hydroxybutyl)-2,4-imidazolidinedione", "2,4-Imidazolidinedione, 5-(4-hydroxybutyl)-", "Hydantoin, 5-(4-hydroxybutyl)-", "5-(4-Hydroxybutyl)-2,4-imidazolidinedione", "5-(\u03c9-Hydroxybutyl)hydantoin", "5-(4-Hydroxybutyl)hydantoin", "NSC 16534", "NSC 23788"], "SMILES": "C(CCCO)C1NC(=O)NC1=O", "physical_data": {"Molecular Weight": "172.18", "Molecular Formula": "C7H12N2O3", "Melting Point": "152-155 \u00b0C"}}