{"cas_no": "54585-47-6", "cn_name": "3-\u6c30\u57fa-4,6-\u4e8c\u7532\u57fa-2-\u786b\u57fa\u5421\u5576", "en_name": ["2-Mercapto-4,6-dimethylnicotinonitrile", "3-Pyridinecarbonitrile, 1,2-dihydro-4,6-dimethyl-2-thioxo-", "Nicotinonitrile, 1,2-dihydro-4,6-dimethyl-2-thioxo-", "1,2-Dihydro-4,6-dimethyl-2-thioxo-3-pyridinecarbonitrile", "3-Cyano-2-mercapto-4,6-dimethylpyridine", "2-Mercapto-4,6-dimethyl-3-pyridinecarbonitrile", "2-Mercapto-4,6-dimethylnicotinonitrile", "3-Cyano-4,6-dimethylpyridine-2-thiol", "4,6-Dimethyl-2-mercaptonicotinonitrile", "4,6-Dimethyl-2-thioxo-1,2-dihydropyridine-3-carbonitrile", "4,6-Dimethyl-3-cyanopyridine-2(1H)-thione", "3-Cyano-4,6-dimethyl-2-mercaptopyridine", "4,6-Methyl-3-cyano-2(1H)-pyridinethione", "3-Cyano-4,6-dimethyl-1H-pyridine-2-thione"], "SMILES": "C(#N)C1=C(C)C=C(C)NC1=S", "physical_data": {"Molecular Weight": "164.23", "Molecular Formula": "C8H8N2S", "Melting Point": "264 \u00b0C (decomp)"}}