{"cas_no": "5458-48-0", "cn_name": "4-\u73af\u5df1\u57fa-1-\u785d\u57fa\u82ef", "en_name": ["1-Cyclohexyl-4-nitrobenzene", "Benzene, 1-cyclohexyl-4-nitro-", "1-Cyclohexyl-4-nitrobenzene", "1-Nitro-4-cyclohexylbenzene", "(4-Nitrophenyl)cyclohexane", "p-Cyclohexylnitrobenzene", "4-Cyclohexylnitrobenzene", "NSC 23569"], "SMILES": "N(=O)(=O)C1=CC=C(C=C1)C2CCCCC2", "physical_data": {"Molecular Weight": "205.25", "Molecular Formula": "C12H15NO2", "Boiling Point": "142 \u00b0C", "Melting Point": "58.5 \u00b0C"}}