{"cas_no": "5459-93-8", "cn_name": "N-\u4e59\u57fa\u73af\u5df1\u80fa", "en_name": ["Cyclohexylethylamine", "Cyclohexanamine, N-ethyl-", "Cyclohexylamine, N-ethyl-", "N-Ethylcyclohexanamine", "Accelerator HX", "Cyclohexylethylamine", "N-Ethylcyclohexylamine", "N-Cyclohexylethylamine", "Vulkacit HX", "(Ethylamino)cyclohexane", "N-Cyclohexyl-N-ethylamine", "NSC 6272", "N-Ethyl-N-cyclohexylamine"], "SMILES": "N(CC)C1CCCCC1", "physical_data": {"Molecular Weight": "127.23", "Molecular Formula": "C8H17N", "Boiling Point": "164 \u00b0C @ Press: 760 Torr", "Melting Point": "163-166 \u00b0C", "Density": "0.868 g/cm\u00b3 @ Temp: 0 \u00b0C"}}