{"cas_no": "5459-58-5", "cn_name": "\u6c30\u4e59\u9178\u6b63\u4e01\u916f", "en_name": ["Butyl cyanoacetate", "Acetic acid, 2-cyano-, butyl ester", "Acetic acid, cyano-, butyl ester", "Butyl cyanoacetate", "n-Butyl \u03b1-cyanoacetate", "n-Butyl cyanoacetate", "Cyanoacetic acid butyl ester", "NSC 24260"], "SMILES": "O(C(CC#N)=O)CCCC", "physical_data": {"Molecular Weight": "141.17", "Molecular Formula": "C7H11NO2", "Boiling Point": "231 \u00b0C", "Density": "1.0010 g/cm\u00b3 @ Temp: 20 \u00b0C"}}