{"cas_no": "5459-63-2", "cn_name": "2,2'-\u4e8c\u786b\u4e8c\u82ef\u7532\u9178\u4e8c\u7532\u916f", "en_name": ["1,1\u2032-Dimethyl 2,2\u2032-dithiobis[benzoate]", "Benzoic acid, 2,2\u2032-dithiobis-, 1,1\u2032-dimethyl ester", "Benzoic acid, 2,2\u2032-dithiobis-, dimethyl ester", "Benzoic acid, 2,2\u2032-dithiodi-, dimethyl ester", "1,1\u2032-Dimethyl 2,2\u2032-dithiobis[benzoate]", "2,2\u2032-Dimethoxycarbonyl diphenyl disulfide", "Dimethyl 2,2\u2032-dithiodibenzoate", "Bis(o-methoxycarbonylphenyl) disulfide", "Bis(2-carbomethoxyphenyl) disulfide", "NSC 5343", "Bis[2-(methoxycarbonyl)phenyl] disulfide"], "SMILES": "S(SC1=C(C(OC)=O)C=CC=C1)C2=C(C(OC)=O)C=CC=C2", "physical_data": {"Molecular Weight": "334.41", "Molecular Formula": "C16H14O4S2", "Melting Point": "131-134 \u00b0C"}}