{"cas_no": "5459-40-5", "cn_name": "4-\u4e59\u6c27\u57fa\u82ef\u4e59\u70ef", "en_name": ["1-Ethenyl-4-ethoxybenzene", "Benzene, 1-ethenyl-4-ethoxy-", "Phenetole, p-vinyl-", "1-Ethenyl-4-ethoxybenzene", "4-Ethoxystyrene", "p-Vinylphenetol", "p-Ethoxystyrene", "NSC 24179", "1-Ethoxy-4-vinylbenzene"], "SMILES": "O(CC)C1=CC=C(C=C)C=C1", "physical_data": {"Molecular Weight": "148.20", "Molecular Formula": "C10H12O", "Boiling Point": "99-100 \u00b0C @ Press: 11 Torr", "Density": "0.994 g/cm\u00b3 @ Temp: 20 \u00b0C"}}