{"cas_no": "546-43-0", "cn_name": "\u571f\u6728\u9999\u5185\u916f", "en_name": ["(+)-Alantolactone", "Naphtho[2,3-b]furan-2(3H)-one, 3a,5,6,7,8,8a,9,9a-octahydro-5,8a-dimethyl-3-methylene-, (3aR,5S,8aR,9aR)-", "Alantolactone", "Helenin", "4\u03b1H-Eudesma-5,11(13)-dien-12-oic acid, 8\u03b2-hydroxy-, \u03b3-lactone", "Naphtho[2,3-b]furan-2(3H)-one, 3a,5,6,7,8,8a,9,9a-octahydro-5,8a-dimethyl-3-methylene-, [3aR-(3a\u03b1,5\u03b2,8a\u03b2,9a\u03b1)]-", "(3aR,5S,8aR,9aR)-3a,5,6,7,8,8a,9,9a-Octahydro-5,8a-dimethyl-3-methylenenaphtho[2,3-b]furan-2(3H)-one", "Alant camphor", "Elecampane camphor", "Eupatal", "Inula camphor", "(+)-Alantolactone", "NSC 93131", "NSC 333843"], "SMILES": "CC12C(=CC3C(C1)OC(=O)C3=C)C(C)CCC2", "physical_data": {"Molecular Weight": "232.32", "Molecular Formula": "C15H20O2", "Boiling Point": "275 \u00b0C", "Melting Point": "76 \u00b0C"}}