{"cas_no": "546-45-2", "cn_name": "2,4,6-\u4e09\u7532\u57fa-2,4,6-\u4e09\u82ef\u57fa\u73af\u4e09\u7845\u6c27\u70f7", "en_name": ["Trimethyltriphenylcyclotrisiloxane", "Cyclotrisiloxane, 2,4,6-trimethyl-2,4,6-triphenyl-", "2,4,6-Trimethyl-2,4,6-triphenylcyclotrisiloxane", "Phenylmethylsiloxane cyclic trimer", "Trimethyltriphenylcyclotrisiloxane", "LS 8490", "Trimethyltriphenylcyclotrisiloane", "Triphenyltrimethylcyclotrisiloxane", "2,4,6-Trimethyl-2,4,6-triphenyl-1,3,5,2,4,6-trioxatrisilinane"], "SMILES": "C[Si]1(O[Si](C)(O[Si](C)(O1)C2=CC=CC=C2)C3=CC=CC=C3)C4=CC=CC=C4", "physical_data": {"Molecular Weight": "408.67", "Molecular Formula": "C21H24O3Si3", "Boiling Point": "190 \u00b0C @ Press: 1.5 Torr", "Melting Point": "100 \u00b0C", "Density": "1.192 g/cm\u00b3"}}