{"cas_no": "546-97-4", "cn_name": "\u53e4\u4f26\u5bbe", "en_name": ["Columbin", "1,4-Etheno-3H,7H-benzo[1,2-c:3,4-c\u2032]dipyran-3,7-dione, 9-(3-furanyl)-1,4,4a,5,6,6a,9,10,10a,10b-decahydro-4-hydroxy-4a,10a-dimethyl-, (1R,4R,4aR,6aR,9S,10aS,10bS)-", "17,18-Dinor-8\u03b2H,9\u03b2H,10\u03b1-labda-2,13(16),14-triene-19,20-dioic acid, 15,16-epoxy-1\u03b2,4,12-trihydroxy-5,9-dimethyl-, 19,1:20,12-dilactone", "1,4-Etheno-3H,7H-benzo[1,2-c:3,4-c\u2032]dipyran-3,7-dione, 9-(3-furanyl)-1,4,4a,5,6,6a,9,10,10a,10b-decahydro-4-hydroxy-4a,10a-dimethyl-, [1R-(1\u03b1,4\u03b2,4a\u03b1,6a\u03b2,9\u03b2,10a\u03b2,10b\u03b1)]-", "Columbin", "(1R,4R,4aR,6aR,9S,10aS,10bS)-9-(3-Furanyl)-1,4,4a,5,6,6a,9,10,10a,10b-decahydro-4-hydroxy-4a,10a-dimethyl-1,4-etheno-3H,7H-benzo[1,2-c:3,4-c\u2032]dipyran-3,7-dione"], "SMILES": "CC12C(C3(C)C(CC1)C(=O)OC(C3)C=4C=COC4)C5OC(=O)C2(O)C=C5", "physical_data": {"Molecular Weight": "358.39", "Molecular Formula": "C20H22O6", "Melting Point": "182 \u00b0C (decomp)"}}