{"cas_no": "546-68-9", "cn_name": "\u949b\u9178\u56db\u5f02\u4e19\u916f", "en_name": ["Titanium isopropoxide", "2-Propanol, titanium(4+) salt (4:1)", "Isopropyl alcohol, titanium(4+) salt", "Titanium isopropoxide (Ti(OC3H7)4)", "2-Propanol, titanium(4+) salt", "Tetraisopropyl titanate", "Isopropyl titanate(IV) ((C3H7O)4Ti)", "Tetrakis(isopropoxy)titanium", "Titanium, tetrakis(1-methylethoxy)-", "Titanium tetraisopropylate", "Tetraisopropyl orthotitanate", "Titanium(4+) isopropoxide", "Tetraisopropoxytitanium", "Titanium isopropylate", "Isopropyl orthotitanate", "Titanium tetraisopropoxide", "Titanium tetrakis(isopropoxide)", "Titanium(IV) isopropoxide", "Tyzor TPT", "Tetrakis(isopropyloxy)titanium", "TPT", "Titanium isopropoxide", "A 1 (titanate)", "A 1", "Orgatix TA 10", "Titanium tetrakis(iso-propoxide)", "Tetraisopropanolatotitanium", "Tetrakis(isopropylato)titanium(IV)", "Tilcom TIPT", "Tetrakis(isopropanolato)titanium", "TA 10", "Tetraisopropoxytitanium(IV)", "5N (titanate)", "5N", "Vertec TIPT", "AKT 872", "TPTA 1", "Bistrater H-NDH 510C", "NDH 510C", "TIPT", "Vertec XL 110", "Vertec RJCE", "Vertec XI 900", "Titanium(IV) isoproproxide", "Orgatix TA 8", "Tetrakis(isopropoxide)titanium", "JTW-TPT", "HY 1802", "Tytan Tipt"], "SMILES": "C(C)(C)O.[Ti]", "physical_data": {"Molecular Weight": "", "Molecular Formula": "C3H8O.<sup>1</sup>/4Ti", "Boiling Point": "220 \u00b0C @ Press: 760 Torr", "Melting Point": "~20 \u00b0C (approx)", "Density": "0.9711 g/cm\u00b3 @ Temp: 20 \u00b0C"}}