{"cas_no": "546-80-5", "cn_name": "(-)-\u03b1-\u4fa7\u67cf\u916e", "en_name": ["Thujone", "Bicyclo[3.1.0]hexan-3-one, 4-methyl-1-(1-methylethyl)-, (1S,4R,5R)-", "3-Thujanone, (1S,4R,5R)-(-)-", "Bicyclo[3.1.0]hexan-3-one, 4-methyl-1-(1-methylethyl)-, [1S-(1\u03b1,4\u03b1,5\u03b1)]-", "(1S,4R,5R)-4-Methyl-1-(1-methylethyl)bicyclo[3.1.0]hexan-3-one", "\u03b1-Thujone", "Thujone", "(-)-Thujone", "Thujon", "(-)-\u03b1-Thujone", "NSC 93742", "Absinthol", "(1S,4R,5R)-1-Isopropyl-4-methylbicyclo[3.1.0]hexan-3-one"], "SMILES": "C(C)(C)C12C(C1)C(C)C(=O)C2", "physical_data": {"Molecular Weight": "152.23", "Molecular Formula": "C10H16O", "Boiling Point": "203 \u00b0C", "Melting Point": "&lt;25 \u00b0C", "Density": "0.919 g/cm\u00b3 @ Temp: 15 \u00b0C"}}