{"cas_no": "546-88-3", "cn_name": "\u4e59\u9170\u6c27\u809f\u9178", "en_name": ["Acetohydroxamic acid", "Acetamide, N-hydroxy-", "Acetohydroxamic acid", "AHA", "Acetohydroximic acid", "Acetic acid, oxime", "Hydroxylamine, N-acetyl-", "Acetylhydroxamic acid", "Methylhydroxamic acid", "N-Hydroxyacetamide", "N-Acetylhydroxylamine", "Acetylhydroxylamine", "NSC 176136", "NSC 408425", "NSC 5073", "AHA (urease inhibitor)", "Ethyl hydroxamic acid"], "SMILES": "C(NO)(C)=O", "physical_data": {"Molecular Weight": "75.07", "Molecular Formula": "C2H5NO2", "Melting Point": "89-92 \u00b0C"}}