{"cas_no": "546-56-5", "cn_name": "\u516b\u82ef\u57fa\u73af\u56db\u7845\u6c27\u70f7", "en_name": ["Octaphenylcyclotetrasiloxane", "Cyclotetrasiloxane, 2,2,4,4,6,6,8,8-octaphenyl-", "Cyclotetrasiloxane, octaphenyl-", "2,2,4,4,6,6,8,8-Octaphenylcyclotetrasiloxane", "Octaphenylcyclotetrasiloxane", "1,1,3,3,5,5,7,7-Octaphenylcyclotetrasiloxane", "Octaphenyltetracyclosiloxane", "NSC 293057", "LS 8980", "SX 12B", "2,2,4,4,6,6,8,8-Octakis-phenyl-1,3,5,7,2,4,6,8-tetraoxatetrasilocane", "2,2,4,4,6,6,8,8-Octaphenyl-1,3,5,7,2,4,6,8-tetraoxatetrasilocane", "F 491", "SR 476", "P 4"], "SMILES": "[Si]1(O[Si](O[Si](O[Si](O1)(C2=CC=CC=C2)C3=CC=CC=C3)(C4=CC=CC=C4)C5=CC=CC=C5)(C6=CC=CC=C6)C7=CC=CC=C7)(C8=CC=CC=C8)C9=CC=CC=C9", "physical_data": {"Molecular Weight": "793.17", "Molecular Formula": "C48H40O4Si4", "Boiling Point": "332 \u00b0C @ Press: 1 Torr", "Melting Point": "200.5 \u00b0C", "Density": "1.185 g/cm\u00b3"}}