{"cas_no": "546-67-8", "cn_name": "\u56db\u4e59\u9178\u94c5", "en_name": ["Lead tetraacetate", "Acetic acid, lead(4+) salt (4:1)", "Acetic acid, lead(4+) salt", "Lead tetraacetate", "Lead acetate (Pb(O2C2H3)4)", "Lead acetate [Pb(OAc)4]", "Lead(IV) acetate", "Plumbic acetate", "LTA", "Lead(IV) tetraacetate", "Lead(4+) acetate"], "SMILES": "C(C)(O)=O.[Pb]", "physical_data": {"Molecular Weight": "", "Molecular Formula": "C2H4O2.<sup>1</sup>/4Pb", "Melting Point": "175 \u00b0C", "Density": "2.228 g/cm\u00b3 @ Temp: 17 \u00b0C"}}