{"cas_no": "546-28-1", "cn_name": "B-\u67cf\u6728\u70ef", "en_name": ["(+)-\u03b2-Cedrene", "1H-3a,7-Methanoazulene, octahydro-3,8,8-trimethyl-6-methylene-, (3R,3aS,7S,8aS)-", "Cedr-8(15)-ene", "\u03b2-Cedrene", "1H-3a,7-Methanoazulene, octahydro-3,8,8-trimethyl-6-methylene-, [3R-(3\u03b1,3a\u03b2,7\u03b2,8a\u03b1)]-", "(3R,3aS,7S,8aS)-Octahydro-3,8,8-trimethyl-6-methylene-1H-3a,7-methanoazulene", "(+)-\u03b2-Cedrene", "(+)-\u03b2-Funebrene"], "SMILES": "CC1C23C(C(C)(C)C(C2)C(=C)CC3)CC1", "physical_data": {"Molecular Weight": "204.35", "Molecular Formula": "C15H24", "Boiling Point": "89 \u00b0C @ Press: 0.2 Torr", "Density": "0.935 g/cm\u00b3 @ Temp: 20 \u00b0C"}}