{"cas_no": "546-06-5", "cn_name": "\u5730\u9ebb\u7d20", "en_name": ["(+)-Conessine", "Con-5-enin-3-amine, N,N-dimethyl-, (3\u03b2)-", "Conessine", "Con-5-enine, 3\u03b2-(dimethylamino)-", "Conkurchine, N,18-dihydrotrimethyl-", "1H-Naphth[2\u2032,1\u2032:4,5]indeno[1,7a-c]pyrrole, con-5-enin-3-amine deriv.", "(3\u03b2)-N,N-Dimethylcon-5-enin-3-amine", "Neriine", "Roquessine", "Wrightine", "Conessin", "N\u2032,18-Dihydro-N,N,N\u2032-trimethylconkurchine", "(+)-Conessine", "NSC 119994"], "SMILES": "CC1C2C3(C(C4C(CC3)C5(C)C(=CC4)CC(N(C)C)CC5)CC2)CN1C", "physical_data": {"Molecular Weight": "356.59", "Molecular Formula": "C24H40N2", "Melting Point": "125.5 \u00b0C"}}