{"cas_no": "546-89-4", "cn_name": "\u4e59\u9178\u9502", "en_name": ["Lithium acetate", "Acetic acid, lithium salt (1:1)", "Acetic acid, lithium salt", "Lithium acetate", "Quilone", "Lithium ethanoate", "Quilonorm", "Quilonum"], "SMILES": "C(C)(O)=O.[Li]", "physical_data": {"Molecular Weight": "", "Molecular Formula": "C2H4O2.Li", "Melting Point": "286 \u00b0C"}}