{"cas_no": "546-44-1", "cn_name": "1,1,1,3,5,5,5-\u4e03\u7532\u57fa-3-\u82ef\u57fa\u4e09\u7845\u6c27\u70f7", "en_name": ["1,1,1,3,5,5,5-Heptamethyl-3-phenyltrisiloxane", "Trisiloxane, 1,1,1,3,5,5,5-heptamethyl-3-phenyl-", "1,1,1,3,5,5,5-Heptamethyl-3-phenyltrisiloxane", "Methylphenylbis(trimethylsiloxy)silane", "Bis(trimethylsiloxy)(methyl)phenylsilane", "3-Phenylheptamethyltrisiloxane"], "SMILES": "[Si](O[Si](C)(C)C)(O[Si](C)(C)C)(C)C1=CC=CC=C1", "physical_data": {"Molecular Weight": "298.60", "Molecular Formula": "C13H26O2Si3", "Boiling Point": "95 \u00b0C @ Press: 5 Torr", "Melting Point": "-56 \u00b0C", "Density": "0.909 g/cm\u00b3"}}