{"cas_no": "546-93-0", "cn_name": "\u78b3\u9178\u9541", "en_name": ["Magnesium carbonate", "Carbonic acid, magnesium salt (1:1)", "Magnesium carbonate", "C.I. 77713", "Carbonate magnesium", "DCI Light Magnesium Carbonate", "Stan-Mag Magnesium Carbonate", "Magnesium carbonate (MgCO3)", "Magnesium carbonate (1:1)", "Apolda", "Kimboshi", "GP 20 (carbonate)", "GP 20", "Destab", "MA 70 (carbonate)", "Gold Star", "Gold Star (carbonate)", "Magfy", "Magnesite 33", "CSC Book Saver", "CSC Book Saver Spray", "TT", "TT (carbonate)", "Magnesium Carbonate Gold Star", "MSL", "MSHP", "PMK 75", "Frimiz MZ 1", "MSPS", "Magnesite MSS", "SG-MGC 01", "MSS", "MSL-AM", "Upsalite", "GP 30N", "A 106", "A 106 (carbonate)", "CH 01", "CH 01 (carbonate)", "CH 02", "CH 02 (carbonate)", "Zehui ZH 4", "ZH 4", "Magthermo MS-L", "Magthermo MS-PS", "Magthermo MS-S", "ZH 2L", "M 1128", "HM 800A"], "SMILES": "C(=O)(O)O.[Mg]", "physical_data": {"Molecular Weight": "", "Molecular Formula": "CH2O3.Mg", "Melting Point": "990 \u00b0C", "Density": "3.0 g/cm\u00b3"}}