{"cas_no": "546-18-9", "cn_name": "5\u0392-\u80c6\u70f7\u9178", "en_name": ["5\u03b2-Cholanic acid", "Cholan-24-oic acid, (5\u03b2)-", "5\u03b2-Cholan-24-oic acid", "5\u03b2-Cholanic acid", "(5\u03b2)-Cholan-24-oic acid", "5\u03b2-Cholanoic acid", "Ursocholanic acid", "L 596205-0", "Androstane-17-butanoic acid, \u03b3-methyl-, (5\u03b2,17\u03b2)-", "Cholanoic acid", "NSC 18161"], "SMILES": "CC12C(C3C(CC1)C4(C)C(CC3)CCCC4)CCC2C(CCC(O)=O)C", "physical_data": {"Molecular Weight": "360.57", "Molecular Formula": "C24H40O2", "Melting Point": "150 \u00b0C"}}