{"cas_no": "5460-31-1", "cn_name": "2-\u7532\u57fa-3-\u785d\u57fa\u82ef\u915a", "en_name": ["2-Methyl-3-nitrophenol", "Phenol, 2-methyl-3-nitro-", "o-Cresol, 3-nitro-", "2-Methyl-3-nitrophenol", "6-Hydroxy-2-nitrotoluene", "3-Nitro-2-methylphenol", "3-Nitro-o-cresol", "NSC 25009", "2-Hydroxy-6-nitrotoluene"], "SMILES": "N(=O)(=O)C1=C(C)C(O)=CC=C1", "physical_data": {"Molecular Weight": "153.14", "Molecular Formula": "C7H7NO3", "Melting Point": "69 \u00b0C"}}