{"cas_no": "5460-79-7", "cn_name": "4-\u6c30\u57fa-4-( 3-\u7532\u6c27\u82ef\u57fa)-1-\u7532\u57fa\u54cc\u5576", "en_name": ["4-(3-Methoxyphenyl)-1-methyl-4-piperidinecarbonitrile", "4-Piperidinecarbonitrile, 4-(3-methoxyphenyl)-1-methyl-", "Isonipecotonitrile, 4-(m-methoxyphenyl)-1-methyl-", "4-(3-Methoxyphenyl)-1-methyl-4-piperidinecarbonitrile", "4-Cyano-4-m-methoxyphenyl-1-methylpiperidine", "NSC 21330", "1-Methyl-4-cyano-4-(3-methoxyphenyl)piperidine"], "SMILES": "C(#N)C1(CCN(C)CC1)C2=CC(OC)=CC=C2", "physical_data": {"Molecular Weight": "230.31", "Molecular Formula": "C14H18N2O", "Boiling Point": "196-197 \u00b0C @ Press: 12 Torr", "Melting Point": "40 \u00b0C"}}