{"cas_no": "5460-29-7", "cn_name": "N-(3-\u6eb4\u4e19\u57fa)\u82ef\u4e8c\u80fa", "en_name": ["N-(3-Bromopropyl)phthalimide", "1H-Isoindole-1,3(2H)-dione, 2-(3-bromopropyl)-", "Phthalimide, N-(3-bromopropyl)-", "2-(3-Bromopropyl)-1H-isoindole-1,3(2H)-dione", "(\u03b3-Bromopropyl)phthalimide", "(3-Bromopropyl)phthalimide", "N-(3-Bromopropyl)phthalimide", "1-Phthalimido-3-bromopropane", "3-Bromo-N-phthaloylpropylamine", "2-(3-Bromopropyl)isoindole-1,3-dione", "NSC 24937", "NSC 25170", "2-(3-Bromopropyl)isoindoline-1,3-dione", "3-(Phthalimido)propyl bromide", "2-(3-Bromopropyl)-1H-isoindol-1,3(2H)-dione", "2-(3-Bromopropyl)-2,3-dihydro-1H-isoindol-1,3-dione", "2-(3-Bromopropyl)-2,3-dihydro-1H-isoindole-1,3-dione", "N-(Bromopropyl)phthalimide"], "SMILES": "O=C1C=2C(C(=O)N1CCCBr)=CC=CC2", "physical_data": {"Molecular Weight": "268.11", "Molecular Formula": "C11H10BrNO2", "Melting Point": "74-76 \u00b0C"}}