{"cas_no": "5460-32-2", "cn_name": "3,4-\u4e8c\u7532\u6c27\u57fa\u7898\u4ee3\u82ef", "en_name": ["4-Iodoveratrole", "Benzene, 4-iodo-1,2-dimethoxy-", "Veratrole, 4-iodo-", "4-Iodo-1,2-dimethoxybenzene", "4-Iodoveratrole", "3,4-Dimethoxyphenyl iodide", "3,4-Dimethoxyiodobenzene", "1-Iodo-3,4-dimethoxybenzene", "1,2-Dimethoxy-4-iodobenzene", "NSC 25012"], "SMILES": "O(C)C1=C(OC)C=C(I)C=C1", "physical_data": {"Molecular Weight": "264.06", "Molecular Formula": "C8H9IO2", "Boiling Point": "163-164 \u00b0C @ Press: 26 Torr", "Melting Point": "34.5 \u00b0C"}}