{"cas_no": "5461-06-3", "cn_name": "\u8f9b\u9178\u5f02\u4e01\u916f", "en_name": ["Isobutyl octanoate", "Octanoic acid, 2-methylpropyl ester", "Octanoic acid, isobutyl ester", "Isobutyl caprylate", "Isobutyl octanoate", "NSC 23943", "2-Methylpropyl octanoate"], "SMILES": "C(OCC(C)C)(CCCCCCC)=O", "physical_data": {"Molecular Weight": "200.32", "Molecular Formula": "C12H24O2", "Melting Point": "94-96 \u00b0C"}}