{"cas_no": "5461-32-5", "cn_name": "2-\u785d\u57fa\u82ef\u57fa\u4e19\u916e\u9178", "en_name": ["3-(2-Nitrophenyl)-2-oxopropanoic acid", "Benzenepropanoic acid, 2-nitro-\u03b1-oxo-", "Pyruvic acid, (o-nitrophenyl)-", "2-Nitro-\u03b1-oxobenzenepropanoic acid", "(o-Nitrophenyl)pyruvic acid", "(2-Nitrophenyl)pyruvic acid", "3-(2-Nitrophenyl)-2-oxopropanoic acid", "NSC 5598"], "SMILES": "N(=O)(=O)C1=C(CC(C(O)=O)=O)C=CC=C1", "physical_data": {"Molecular Weight": "209.16", "Molecular Formula": "C9H7NO5", "Melting Point": "119-120 \u00b0C"}}