{"cas_no": "5462-06-6", "cn_name": "\u5eb7\u8f9b\u919b", "en_name": ["Canthoxal", "Benzenepropanal, 4-methoxy-\u03b1-methyl-", "Hydrocinnamaldehyde, p-methoxy-\u03b1-methyl-", "4-Methoxy-\u03b1-methylbenzenepropanal", "2-Methyl-3-(p-methoxyphenyl)propionaldehyde", "3-(4-Methoxyphenyl)-2-methylpropanal", "Canthoxal", "NSC 22280", "Fennaldehyde", "Foliaver", "2-Methyl-3-(4-methoxyphenyl)propionaldehyde", "2-Methyl-3-(4-methoxyphenyl)propanal", "2-Methyl-3-(p-methoxyphenyl)propanal"], "SMILES": "C(C(C=O)C)C1=CC=C(OC)C=C1", "physical_data": {"Molecular Weight": "178.23", "Molecular Formula": "C11H14O2", "Boiling Point": "114 \u00b0C @ Press: 2.5 Torr", "Density": "1.0470 g/cm\u00b3 @ Temp: 20 \u00b0C"}}