{"cas_no": "5462-71-5", "cn_name": "4-\u6c30\u57fa-\u82ef\u4e59\u9178", "en_name": ["4-Cyanophenylacetic acid", "Benzeneacetic acid, 4-cyano-", "Acetic acid, (p-cyanophenyl)-", "4-Cyanobenzeneacetic acid", "(p-Cyanophenyl)acetic acid", "4-Cyanophenylacetic acid", "NSC 14104", "2-(4-Cyanophenyl)acetic acid"], "SMILES": "C(C(O)=O)C1=CC=C(C#N)C=C1", "physical_data": {"Molecular Weight": "161.16", "Molecular Formula": "C9H7NO2", "Melting Point": "152-154 \u00b0C"}}