{"cas_no": "54648-79-2", "cn_name": "N,N\u2032-\u4e8c\u5f02\u4e19\u57fa-O-\u7532\u57fa\u5f02\u8132", "en_name": ["Methyl N,N\u2032-bis(1-methylethyl)carbamimidate", "Carbamimidic acid, N,N\u2032-bis(1-methylethyl)-, methyl ester", "Pseudourea, 1,3-diisopropyl-2-methyl-", "Methyl N,N\u2032-bis(1-methylethyl)carbamimidate", "NSC 672441", "N,N\u2032-Diisopropyl-O-methylisourea", "O-Methyl-N,N\u2032-diisopropylisourea", "1,3-Diisopropyl-2-methylisourea"], "SMILES": "C(=NC(C)C)(NC(C)C)OC", "physical_data": {"Molecular Weight": "158.24", "Molecular Formula": "C8H18N2O", "Boiling Point": "54 \u00b0C @ Press: 10 Torr"}}