{"cas_no": "5464-28-8", "cn_name": "\u7518\u6cb9\u7f29\u7532\u919b", "en_name": ["1,3-Dioxolane-4-methanol", "1,3-Dioxolane-4-methanol", "Glycerol \u03b1-formal", "4-(Hydroxymethyl)-1,3-dioxolane", "1,2-(Methylidene)glycerol", "Glycerol formal", "1,3-Dioxolane-5-methanol", "Glycerin formal", "(1,3-Dioxolan-4-yl)methanol", "NSC 15827"], "SMILES": "C(O)C1COCO1", "physical_data": {"Molecular Weight": "104.10", "Molecular Formula": "C4H8O3", "Boiling Point": "84-85 \u00b0C @ Press: 11 Torr", "Melting Point": "190-195 \u00b0C", "Density": "1.2113 g/cm\u00b3 @ Temp: 20 \u00b0C"}}