{"cas_no": "5464-78-8", "cn_name": "1-(2-\u7532\u6c27\u57fa\u82ef\u57fa)\u54cc\u55ea\u76d0\u9178\u76d0", "en_name": ["Piperazine, 1-(2-methoxyphenyl)-, hydrochloride (1:1)", "Piperazine, 1-(2-methoxyphenyl)-, hydrochloride (1:1)", "Piperazine, 1-(2-methoxyphenyl)-, monohydrochloride", "1-(2-Methoxyphenyl)piperazine hydrochloride", "1-(2-Methoxyphenyl)piperazine monohydrochloride", "4-(2-Methoxyphenyl)piperazine hydrochloride", "1-(2-Methoxyphenyl)piperazin-1-ium chloride"], "SMILES": "O(C)C1=C(C=CC=C1)N2CCNCC2.Cl", "physical_data": {"Molecular Weight": "", "Molecular Formula": "C11H16N2O.ClH", "Melting Point": "236-238 \u00b0C"}}