{"cas_no": "5464-11-9", "cn_name": "2-\u7532\u786b\u57fa-2-\u54aa\u5511\u5549", "en_name": ["1H-Imidazole, 4,5-dihydro-2-(methylthio)-, hydriodide (1:1)", "1H-Imidazole, 4,5-dihydro-2-(methylthio)-, hydriodide (1:1)", "2-Imidazoline, 2-(methylthio)-, monohydriodide", "1H-Imidazole, 4,5-dihydro-2-(methylthio)-, monohydriodide", "2-(Methylthio)imidazolinium iodide", "2-(Methylthio)-2-imidazoline hydriodide", "3-Methylthio-4,5-dihydroimidazole hydroiodide", "2-Methylmercapto-4,5-dihydroimidazole hydroiodide", "2-Methylsulfanyl-4,5-dihydro-1H-imidazole hydrogen iodide", "2-Methylthio-2-imidazoline monohydroiodide", "2-Methylsulfanyl-4,5-dihydro-1H-imidazole hydroiodide", "2-(Methylthio)-4,5-dihydro-1H-imidazole hydroiodide", "2-Methylthio-2-imidazoline hydroiodide", "2-Methylthio-4,5-dihydroimidazole hydroiodide"], "SMILES": "S(C)C=1NCCN1.I", "physical_data": {"Molecular Weight": "", "Molecular Formula": "C4H8N2S.HI", "Melting Point": "140-141 \u00b0C"}}