{"cas_no": "5464-12-0", "cn_name": "1-\u7f9f\u4e59\u57fa-4-\u7532\u57fa\u54cc\u55ea", "en_name": ["4-Methyl-1-piperazineethanol", "1-Piperazineethanol, 4-methyl-", "4-Methyl-1-piperazineethanol", "1-(2-Hydroxyethyl)-4-methylpiperazine", "2-(4-Methyl-1-piperazinyl)ethanol", "1-Methyl-4-(2-hydroxyethyl)piperazine", "1-(Hydroxyethyl)-4-methylpiperazine", "N-(2-Hydroxyethyl)-N\u2032-methylpiperazine", "Toyocat HP", "HP", "4-(2-Hydroxyethyl)-1-methylpiperazine", "NSC 26888", "N-Methyl-N\u2032-(2-hydroxyethyl)piperazine", "HPW", "Toyocat HPW", "2-(4-Methylpiperazin-1-yl)ethan-1-ol"], "SMILES": "C(CO)N1CCN(C)CC1", "physical_data": {"Molecular Weight": "144.21", "Molecular Formula": "C7H16N2O", "Boiling Point": "73-75 \u00b0C @ Press: 3 Torr"}}