{"cas_no": "5464-79-9", "cn_name": "2-\u6c28\u57fa-4-\u7532\u6c27\u57fa\u82ef\u5e76\u567b\u5511", "en_name": ["4-Methoxy-2-benzothiazolamine", "2-Benzothiazolamine, 4-methoxy-", "Benzothiazole, 2-amino-4-methoxy-", "Benzothiazole, 1-amino-3-methoxy-", "4-Methoxy-2-benzothiazolamine", "2-Amino-4-methoxybenzothiazole", "4-Methoxy-1,3-benzothiazol-2-ylamine", "NSC 28740", "4-Methoxy-1,3-benzothiazol-2-amine", "(4-Methoxybenzothiazol-2-yl)amine", "2-Amino-4-methoxy-1,3-benzothiazole", "4-Methoxy-2-aminobenzothiazole", "4-Methoxybenzo[d]thiazol-2-amine"], "SMILES": "O(C)C1=C2C(SC(N)=N2)=CC=C1", "physical_data": {"Molecular Weight": "180.23", "Molecular Formula": "C8H8N2OS", "Melting Point": "146 \u00b0C"}}