{"cas_no": "5465-28-1", "cn_name": "2-\u82ef\u57fa-2-\u4e59\u57fa\u4e01\u9178", "en_name": ["2-Ethyl-2-phenylbutyric acid", "Benzeneacetic acid, \u03b1,\u03b1-diethyl-", "Butyric acid, 2-ethyl-2-phenyl-", "\u03b1,\u03b1-Diethylbenzeneacetic acid", "2-Phenyl-2-ethylbutyric acid", "2-Ethyl-2-phenylbutyric acid", "NSC 28953", "2-Ethyl-2-phenylbutanoic acid"], "SMILES": "C(C(O)=O)(CC)(CC)C1=CC=CC=C1", "physical_data": {"Molecular Weight": "192.25", "Molecular Formula": "C12H16O2", "Melting Point": "93 \u00b0C"}}