{"cas_no": "5465-65-6", "cn_name": "4-\u6c2f-3-\u785d\u57fa\u82ef\u4e59\u916e", "en_name": ["1-(4-Chloro-3-nitrophenyl)ethanone", "Ethanone, 1-(4-chloro-3-nitrophenyl)-", "Acetophenone, 4\u2032-chloro-3\u2032-nitro-", "1-(4-Chloro-3-nitrophenyl)ethanone", "4\u2032-Chloro-3\u2032-nitroacetophenone", "4-Acetyl-1-chloro-2-nitrobenzene", "2-Chloro-5-acetylnitrobenzene", "3\u2032-Nitro-4\u2032-chloroacetophenone", "NSC 25820", "1-Acetyl-4-chloro-3-nitrobenzene"], "SMILES": "N(=O)(=O)C1=CC(C(C)=O)=CC=C1Cl", "physical_data": {"Molecular Weight": "199.59", "Molecular Formula": "C8H6ClNO3", "Melting Point": "104 \u00b0C"}}