{"cas_no": "5465-13-4", "cn_name": "\u4e8c\u785d\u57fa\u5747\u56db\u7532\u82ef(\u4e8c\u785d\u57fa\u675c\u70ef)", "en_name": ["1,2,4,5-Tetramethyl-3,6-dinitrobenzene", "Benzene, 1,2,4,5-tetramethyl-3,6-dinitro-", "1,2,4,5-Tetramethyl-3,6-dinitrobenzene", "3,6-Dinitro-1,2,4,5-tetramethylbenzene", "1,4-Dinitrodurene", "1,4-Dinitro-2,3,5,6-tetramethylbenzene", "Tetramethyl-1,4-dinitrobenzene", "2,3,5,6-Tetramethyl-1,4-dinitrobenzene", "NSC 28984"], "SMILES": "N(=O)(=O)C1=C(C)C(C)=C(N(=O)=O)C(C)=C1C", "physical_data": {"Molecular Weight": "224.21", "Molecular Formula": "C10H12N2O4", "Melting Point": "211.5 \u00b0C", "Density": "1.330 g/cm\u00b3"}}