{"cas_no": "5465-96-3", "cn_name": "2-\u785d\u57fa\u4e9a\u6c28\u57fa\u54aa\u5511\u70f7", "en_name": ["4,5-Dihydro-N-nitro-1H-imidazol-2-amine", "1H-Imidazol-2-amine, 4,5-dihydro-N-nitro-", "Imidazolidine, 2-(nitroimino)-", "4,5-Dihydro-N-nitro-1H-imidazol-2-amine", "2-Nitroaminoimidazoline", "2-(Nitroamino)-2-imidazoline", "2-Nitramino-2-imidazoline", "2-Nitriminoimidazolidine", "2-(Nitroimino)imidazolidine", "NSC 25961", "NSC 65424", "NSC 91792", "2-Nitroiminoimidazole"], "SMILES": "N(N(=O)=O)C=1NCCN1", "physical_data": {"Molecular Weight": "130.11", "Molecular Formula": "C3H6N4O2", "Melting Point": "220-221 \u00b0C (decomp)"}}