{"cas_no": "5465-86-1", "cn_name": "4-METHYL-2-(1-PIPERIDINYL)-QUINOLINE", "en_name": ["4-Methyl-2-(1-piperidinyl)quinoline", "Quinoline, 4-methyl-2-(1-piperidinyl)-", "Lepidine, 2-piperidino-", "4-Methyl-2-(1-piperidinyl)quinoline", "NSC 25850", "ML 204"], "SMILES": "CC=1C2=C(N=C(C1)N3CCCCC3)C=CC=C2", "physical_data": {"Molecular Weight": "226.32", "Molecular Formula": "C15H18N2", "Boiling Point": "177-180 \u00b0C @ Press: 4.5 Torr", "Melting Point": "72-73 \u00b0C"}}