{"cas_no": "5465-29-2", "cn_name": "2-\u4e19\u57fa\u82ef\u5e76\u54aa\u5511", "en_name": ["2-Propyl-1H-benzimidazole", "1H-Benzimidazole, 2-propyl-", "Benzimidazole, 2-propyl-", "2-Propyl-1H-benzimidazole", "2-Propylbenzimidazole", "NSC 28962", "NSC 40172", "2-Propyl-1H-1,3-benzodiazole"], "SMILES": "C(CC)C=1NC=2C(N1)=CC=CC2", "physical_data": {"Molecular Weight": "160.22", "Molecular Formula": "C10H12N2", "Boiling Point": "220 \u00b0C", "Melting Point": "152-153 \u00b0C"}}