{"cas_no": "5465-63-4", "cn_name": "2-\u6eb4\u82c4\u80fa\u76d0\u9178\u76d0", "en_name": ["Benzenemethanamine, 2-bromo-, hydrochloride (1:1)", "Benzenemethanamine, 2-bromo-, hydrochloride (1:1)", "Benzenemethanamine, 2-bromo-, hydrochloride", "Benzylamine, o-bromo-, hydrochloride", "2-Bromobenzylamine hydrochloride", "o-Bromobenzylamine hydrochloride", "1-(2-Bromophenyl)methanamine hydrochloride", "o-Bromobenzylamine hydrochloride", "(2-Bromophenyl)methanamine hydrochloride"], "SMILES": "C(N)C1=C(Br)C=CC=C1.Cl", "physical_data": {"Molecular Weight": "", "Molecular Formula": "C7H8BrN.ClH", "Melting Point": "214-220 \u00b0C"}}