{"cas_no": "5465-67-8", "cn_name": "\u5bf9\u7532\u82ef\u78fa\u9170\u57fa\u7518\u6c28\u9178\u4e59\u916f", "en_name": ["N-[(4-Methylphenyl)sulfonyl]glycine ethyl ester", "Glycine, N-[(4-methylphenyl)sulfonyl]-, ethyl ester", "Glycine, N-p-tolylsulfonyl-, ethyl ester", "N-[(4-Methylphenyl)sulfonyl]glycine ethyl ester", "Ethyl N-tosylglycinate", "NSC 25824", "Ethyl N-[(4-methylphenyl)sulfonyl]glycinate", "Ts-Gly-OEt", "(Toluene-4-sulfonylamino)-acetic acid ethyl ester", "Ethyl 2-[(p-tolylsulfonyl)amino]acetate"], "SMILES": "S(NCC(OCC)=O)(=O)(=O)C1=CC=C(C)C=C1", "physical_data": {"Molecular Weight": "257.31", "Molecular Formula": "C11H15NO4S", "Melting Point": "64-66 \u00b0C"}}