{"cas_no": "5466-77-3", "cn_name": "\u5bf9\u7532\u6c27\u57fa\u8089\u6842\u9178\u8f9b\u916f", "en_name": ["2-Ethylhexyl 4-methoxycinnamate", "2-Propenoic acid, 3-(4-methoxyphenyl)-, 2-ethylhexyl ester", "Parsol MCX", "2-Ethylhexyl p-methoxycinnamate", "Neo Heliopan AV", "Sunscreen AV", "2-Ethylhexyl 4-methoxycinnamate", "Ethylhexyl p-methoxycinnamate", "Octyl 4-methoxycinnamate", "Octyl p-methoxycinnamate", "Parsol MCX-SA", "Escalol 557", "p-Methoxycinnamic acid 2-ethylhexyl ester", "Uvinul 3088", "Eusolex 2292", "Uvinul MC 80", "Octinoxate", "Uvinul MC 80N", "Octyl methoxycinnamate", "4-Methoxycinnamic acid 2-ethylhexyl ester", "Parsol MOX", "Tinosorb OMC", "Escalol 557T", "NSC 26466", "Escalol 557NB", "Uvinul MC 90", "Jeescreen OMC", "Sun Caps 664", "Solarom OMC", "Ethylhexyl methoxycinnamate", "2-Ethylhexyl methoxycinnamate", "3-(4-Methoxyphenyl)-2-propenoic acid 2-ethylhexyl ester", "Nomcort TAB-R", "Nomcort TAB", "Uvinal MC 80", "2-Ethylhexyl3-(4-methoxyphenyl)acrylate"], "SMILES": "C(=CC(OCC(CCCC)CC)=O)C1=CC=C(OC)C=C1", "physical_data": {"Molecular Weight": "290.40", "Molecular Formula": "C18H26O3", "Boiling Point": "140-150 \u00b0C @ Press: 0.076 Torr"}}