{"cas_no": "5466-88-6", "cn_name": "2H-1,4-\u82ef\u5e76\u6076\u55ea-3(4H)-\u916e", "en_name": ["2H-1,4-Benzoxazin-3(4H)-one", "2H-1,4-Benzoxazin-3(4H)-one", "2H-1,4-Benzoxazin-3-one", "2,3-Dihydro-3-oxo-4H-1,4-benzoxazine", "4H-Benzo[1,4]oxazin-3-one", "3-Oxo-3,4-dihydro-2H-benzo[b][1,4]oxazine", "NSC 26354", "2H-Benzo[b][1,4]oxazin-3(4H)-one", "3,4-Dihydro-1H-benzo[b][1,4]oxazine-3-one", "4H-1,4-Benzoxazin-3-one", "3,4-Dihydro-2H-1,4-benzoxazin-3-one", "2H-1,4-Benzoxazin-3-ol"], "SMILES": "O=C1NC=2C(OC1)=CC=CC2", "physical_data": {"Molecular Weight": "149.15", "Molecular Formula": "C8H7NO2", "Melting Point": "172-173 \u00b0C"}}