{"cas_no": "5466-90-0", "cn_name": "\u4e59\u9170\u53ef\u5f85\u56e0", "en_name": ["2-[2-(Acetyloxy)ethyl]-1H-isoindole-1,3(2H)-dione", "1H-Isoindole-1,3(2H)-dione, 2-[2-(acetyloxy)ethyl]-", "Phthalimide, N-(2-hydroxyethyl)-, acetate (ester)", "Phthalimide, N-(2-hydroxyethyl)-, acetate", "2-[2-(Acetyloxy)ethyl]-1H-isoindole-1,3(2H)-dione", "N-Acetoxyethylphthalimide", "N-(2-Acetoxyethyl)phthalimide", "NSC 28603", "2-(1,3-Dioxoisoindol-2-yl)ethyl acetate", "2-(1,3-Dioxo-2,3-dihydro-1H-isoindol-2-yl)ethyl acetate"], "SMILES": "O=C1C=2C(C(=O)N1CCOC(C)=O)=CC=CC2", "physical_data": {"Molecular Weight": "233.22", "Molecular Formula": "C12H11NO4", "Boiling Point": "194-196 \u00b0C @ Press: 3 Torr", "Melting Point": "85.5-86 \u00b0C"}}