{"cas_no": "5466-06-8", "cn_name": "3-\u5def\u57fa\u4e19\u9178\u4e59\u916f", "en_name": ["Ethyl 3-mercaptopropionate", "Propanoic acid, 3-mercapto-, ethyl ester", "Propionic acid, 3-mercapto-, ethyl ester", "Ethyl 3-mercaptopropionate", "Ethyl \u03b2-mercaptopropionate", "3-Mercaptopropanoic acid ethyl ester", "Ethyl 3-mercaptopropanoate", "3-Mercaptopropionic acid ethyl ester", "NSC 25754", "\u03b2-Mercaptopropionic acid ethyl ester", "EPM (thiol)", "EPM"], "SMILES": "C(CCS)(OCC)=O", "physical_data": {"Molecular Weight": "134.20", "Molecular Formula": "C5H10O2S", "Boiling Point": "77.5 \u00b0C @ Press: 20 Torr", "Density": "1.0550 g/cm\u00b3 @ Temp: 20 \u00b0C"}}