{"cas_no": "5466-84-2", "cn_name": "4-\u785d\u57fa\u90bb\u82ef\u4e8c\u7532\u9178\u9150", "en_name": ["4-Nitrophthalic anhydride", "1,3-Isobenzofurandione, 5-nitro-", "Phthalic anhydride, 4-nitro-", "5-Nitro-1,3-isobenzofurandione", "4-Nitrophthalic anhydride", "4-Nitrophthalic acid anhydride", "5-Nitrophthalic anhydride", "5-Nitroisobenzofuran-1,3-dione", "NSC 26424"], "SMILES": "O=C1C=2C(C(=O)O1)=CC=C(N(=O)=O)C2", "physical_data": {"Molecular Weight": "193.11", "Molecular Formula": "C8H3NO5", "Melting Point": "114 \u00b0C", "Density": "1.441 g/cm\u00b3 @ Temp: 25.00 \u00b0C"}}