{"cas_no": "54660-00-3", "cn_name": "2,5-\u4e8c\u6c22-3,6-\u4e8c\u82ef\u57fa\u5421\u54af\u5e76[3,4-C]\u5421\u54af-1,4-\u4e8c\u916e", "en_name": ["Pigment Red 255", "Pyrrolo[3,4-c]pyrrole-1,4-dione, 2,5-dihydro-3,6-diphenyl-", "2,5-Dihydro-3,6-diphenylpyrrolo[3,4-c]pyrrole-1,4-dione", "3,6-Diphenyl-1,4-pyrrolo[3,4-c]pyrroledione", "1,4-Diketo-3,6-diphenylpyrrolo[3,4-c]pyrrole", "3,6-Diphenyl-1,4-diketopyrrolo[3,4-c]pyrrole", "2,5-Dihydro-3,6-diphenyl-1,4-diketopyrrolo[3,4-c]pyrrole", "3,6-Diphenyl-2,5-dihydropyrrolo[3,4-c]pyrrole-1,4-dione", "1,4-Dioxo-3,6-diphenylpyrrolo[3,4-c]pyrrole", "Irgazin DPP Scarlet EK", "Irgazin DPP Red 5G", "C.I. Pigment Red 255", "C.I. 561050", "Pigment Red 255", "Cromophtal Coral Red C", "1,4-Diketo-3,6-diphenyl-pyrrolo-[3,4-c]-pyrrole", "Irgazin Scarlet EK", "PR 255", "Cromophtal DPP Coral Red C", "C.I. PR 255", "Irgazin Scarlet L 3550HD", "Irgazin Red L 3551HD", "1,4-Diphenyl-2,5-dihydropyrrolo[3,4-c]pyrrole-3,6-dione", "3,6-Diphenylpyrrolo[3,4-c]pyrrole-1,4(2H,5H)-dione", "DPP Scarlet 5G"], "SMILES": "O=C1C=2C(=C(N1)C3=CC=CC=C3)C(=O)NC2C4=CC=CC=C4", "physical_data": {"Molecular Weight": "288.30", "Molecular Formula": "C18H12N2O2", "Melting Point": "372 \u00b0C"}}