{"cas_no": "54678-23-8", "cn_name": "\u6eb4\u5316\u4e9a\u94dc\u4e8c\u7532\u786b\u919a", "en_name": ["Bromo[1,1\u2032-thiobis[methane]]copper", "Copper, bromo[1,1\u2032-thiobis[methane]]-", "Copper, bromo[thiobis[methane]]-", "Bromo[1,1\u2032-thiobis[methane]]copper", "Bromo(dimethyl sulfide)copper", "(Dimethyl sulfide)cuprous bromide", "Copper bromide dimethyl sulfide adduct", "bromo[thiobis[methane]]copper", "Copper(I) bromide dimethyl sulfide complex", "Copper(I) bromide-dimethyl sulfide"], "SMILES": "[S]([Cu+][Br-])(C)C", "physical_data": {"Molecular Weight": "", "Molecular Formula": "C2H6BrCuS", "Melting Point": "127-129 \u00b0C (decomp)"}}