{"cas_no": "5467-57-2", "cn_name": "2-\u6c2f\u55b9\u6797-4-\u7fa7\u9178", "en_name": ["2-Chloro-4-quinolinecarboxylic acid", "4-Quinolinecarboxylic acid, 2-chloro-", "Cinchoninic acid, 2-chloro-", "2-Chloro-4-quinolinecarboxylic acid", "2-Chloroquinoline-4-carboxylic acid", "NSC 25654"], "SMILES": "C(O)(=O)C=1C2=C(N=C(Cl)C1)C=CC=C2", "physical_data": {"Molecular Weight": "207.61", "Molecular Formula": "C10H6ClNO2", "Melting Point": "244 \u00b0C"}}