{"cas_no": "5467-72-1", "cn_name": "2-\u6c28\u57fa-4-\u6eb4\u82ef\u4e59\u916e \u76d0\u9178\u76d0", "en_name": ["Ethanone, 2-amino-1-(4-bromophenyl)-, hydrochloride (1:1)", "Ethanone, 2-amino-1-(4-bromophenyl)-, hydrochloride (1:1)", "Acetophenone, 2-amino-4\u2032-bromo-, hydrochloride", "Ethanone, 2-amino-1-(4-bromophenyl)-, hydrochloride", "\u03b1-Amino-p-bromoacetophenone hydrochloride", "2-Amino-4\u2032-bromoacetophenone hydrochloride", "N-p-Bromophenacylamine hydrochloride", "2-Amino-1-(4-bromophenyl)ethanone hydrochloride", "2-Amino-1-(4-bromophenyl)ethan-1-one hydrochloride", "2-(4-Bromophenyl)-2-oxoethan-1-aminium chloride"], "SMILES": "C(CN)(=O)C1=CC=C(Br)C=C1.Cl", "physical_data": {"Molecular Weight": "", "Molecular Formula": "C8H8BrNO.ClH", "Melting Point": "258-259 \u00b0C (decomp)"}}