{"cas_no": "5467-71-0", "cn_name": "2-\u6c28\u57fa-4'-\u6c2f\u82ef\u4e59\u916e\u76d0\u9178\u76d0", "en_name": ["Ethanone, 2-amino-1-(4-chlorophenyl)-, hydrochloride (1:1)", "Ethanone, 2-amino-1-(4-chlorophenyl)-, hydrochloride (1:1)", "Acetophenone, 2-amino-4\u2032-chloro-, hydrochloride", "Ethanone, 2-amino-1-(4-chlorophenyl)-, hydrochloride", "\u03b1-Amino-p-chloroacetophenone hydrochloride", "2-Amino-1-(4-chlorophenyl)-1-ethanone hydrochloride", "\u03b1-Amino-4\u2032-chloroacetophenone hydrochloride", "2-Amino-1-(4-chlorophenyl)ethanone hydrochloride", "2-Amino-4\u2032-chloroacetophenone hydrochloride", "\u03b1-Amino-4-chloroacetophenone hydrochloride", "p-Chlorophenacylamine hydrochloride"], "SMILES": "C(CN)(=O)C1=CC=C(Cl)C=C1.Cl", "physical_data": {"Molecular Weight": "", "Molecular Formula": "C8H8ClNO.ClH", "Melting Point": "290 \u00b0C"}}