{"cas_no": "54673-07-3", "cn_name": "\u0391-\u6c30\u57fa-3-\u7f9f\u57fa\u8089\u6842\u9178", "en_name": ["2-Cyano-3-(3-hydroxyphenyl)-2-propenoic acid", "2-Propenoic acid, 2-cyano-3-(3-hydroxyphenyl)-", "Cinnamic acid, \u03b1-cyano-m-hydroxy-", "2-Cyano-3-(3-hydroxyphenyl)-2-propenoic acid", "\u03b1-Cyano-m-hydroxycinnamic acid", "\u03b1-Cyano-3-hydroxycinnamic acid", "Ethyl \u03b1-cyano-3\u2032-hydroxycinnamate", "2-Cyano-3-(3-hydroxyphenyl)acrylic acid"], "SMILES": "C(=C(C(O)=O)C#N)C1=CC(O)=CC=C1", "physical_data": {"Molecular Weight": "189.17", "Molecular Formula": "C10H7NO3", "Melting Point": "229 \u00b0C"}}