{"cas_no": "5467-74-3", "cn_name": "4-\u6eb4\u82ef\u787c\u9178", "en_name": ["(4-Bromophenyl)boronic acid", "Boronic acid, B-(4-bromophenyl)-", "Benzeneboronic acid, p-bromo-", "Boronic acid, (4-bromophenyl)-", "B-(4-Bromophenyl)boronic acid", "p-Bromobenzeneboronic acid", "4-Bromophenylboric acid", "p-Bromophenylboric acid", "(p-Bromophenyl)boronic acid", "4-Bromobenzeneboronic acid", "(4-Bromophenyl)boronic acid", "NSC 25407"], "SMILES": "B(O)(O)C1=CC=C(Br)C=C1", "physical_data": {"Molecular Weight": "200.83", "Molecular Formula": "C6H6BBrO2", "Melting Point": "266 \u00b0C"}}