{"cas_no": "5467-58-3", "cn_name": "1-\u6eb4-4-\u7532\u6c27\u57fa\u8418\u915a", "en_name": ["1-Bromo-4-methoxynaphthalene", "Naphthalene, 1-bromo-4-methoxy-", "1-Bromo-4-methoxynaphthalene", "4-Bromo-1-methoxynaphthalene", "1-Methoxy-4-bromonaphthalene", "4-Methoxy-1-bromonaphthalene", "NSC 25655"], "SMILES": "O(C)C=1C2=C(C(Br)=CC1)C=CC=C2", "physical_data": {"Molecular Weight": "237.09", "Molecular Formula": "C11H9BrO", "Boiling Point": "181 \u00b0C @ Press: 18 Torr", "Melting Point": "195-196 \u00b0C"}}