{"cas_no": "5468-37-1", "cn_name": "2-\u6c28\u57fa\u82ef\u4e59\u916e\u76d0\u9178\u76d0", "en_name": ["2-Aminoacetophenone hydrochloride", "Ethanone, 2-amino-1-phenyl-, hydrochloride (1:1)", "Ethanone, 2-amino-1-phenyl-, hydrochloride", "Acetophenone, 2-amino-, hydrochloride", "Phenacylamine hydrochloride", "\u03b1-Aminoacetophenone hydrochloride", "2-Aminoacetophenone hydrochloride", "2-Amino-1-phenyl-1-ethanone hydrochloride", "2-Amino-1-phenylethanone hydrochloride"], "SMILES": "C(CN)(=O)C1=CC=CC=C1.Cl", "physical_data": {"Molecular Weight": "", "Molecular Formula": "C8H9NO.ClH", "Melting Point": "183-184 \u00b0C"}}