{"cas_no": "5468-97-3", "cn_name": "1-(4-\u6c2f\u82ef\u57fa)-2-\u7532\u57fa-2-\u4e19\u9187", "en_name": ["4-Chloro-\u03b1,\u03b1-dimethylbenzeneethanol", "Benzeneethanol, 4-chloro-\u03b1,\u03b1-dimethyl-", "Phenethyl alcohol, p-chloro-\u03b1,\u03b1-dimethyl-", "4-Chloro-\u03b1,\u03b1-dimethylbenzeneethanol", "1-(p-Chlorophenyl)-2-methyl-2-propanol", "1-(4-Chlorophenyl)-2-methyl-2-propanol", "2-(4-Chlorophenyl)-1,1-dimethylethanol", "NSC 15669"], "SMILES": "C(C(C)(C)O)C1=CC=C(Cl)C=C1", "physical_data": {"Molecular Weight": "184.66", "Molecular Formula": "C10H13ClO", "Boiling Point": "129 \u00b0C @ Press: 11 Torr", "Melting Point": "34 \u00b0C"}}