{"cas_no": "54696-05-8", "cn_name": "4-\u82ef\u7532\u6c27\u57fa\u82ef\u4e59\u916e", "en_name": ["4-Benzyloxyacetophenone", "Ethanone, 1-[4-(phenylmethoxy)phenyl]-", "Acetophenone, 4\u2032-(benzyloxy)-", "1-[4-(Phenylmethoxy)phenyl]ethanone", "4-Benzyloxyacetophenone", "p-(Benzyloxy)acetophenone", "p-(Phenylmethoxy)acetophenone", "4-Acetylphenyl benzyl ether", "4\u2032-Benzyloxyacetophenone", "NSC 56945", "1-(4-Benzyloxyphenyl)ethanone", "1-(4-(Benzyloxy)phenyl)ethan-1-one"], "SMILES": "O(CC1=CC=CC=C1)C2=CC=C(C(C)=O)C=C2", "physical_data": {"Molecular Weight": "226.27", "Molecular Formula": "C15H14O2", "Melting Point": "93 \u00b0C"}}