{"cas_no": "5469-45-4", "cn_name": "DL-N-\u4e59\u9170\u6c28\u57fa\u8089\u6842\u9178", "en_name": ["2-(Acetylamino)-3-phenyl-2-propenoic acid", "2-Propenoic acid, 2-(acetylamino)-3-phenyl-", "Cinnamic acid, \u03b1-acetamido-", "2-(Acetylamino)-3-phenyl-2-propenoic acid", "2-Acetamidocinnamic acid", "\u03b1-Acetylaminocinnamic acid", "\u03b1-Acetamidocinnamic acid", "N-Acetyldehydrophenylalanine", "2-Acetylamino-3-phenylacrylic acid", "NSC 25333", "2-Acetylamino-3-phenylprop-2-enoic acid", "2-Acetamido-3-phenylprop-2-enoic acid"], "SMILES": "C(=CC1=CC=CC=C1)(NC(C)=O)C(O)=O", "physical_data": {"Molecular Weight": "205.21", "Molecular Formula": "C11H11NO3", "Melting Point": "193-194 \u00b0C", "Density": "1.32 g/cm\u00b3"}}