{"cas_no": "5469-26-1", "cn_name": "1-\u6eb4\u9891\u54ea\u916e", "en_name": ["Bromopinacolone", "2-Butanone, 1-bromo-3,3-dimethyl-", "1-Bromo-3,3-dimethyl-2-butanone", "Bromomethyl tert-butyl ketone", "Bromopinacolone", "tert-Butyl bromomethyl ketone", "\u03b1-Bromopinacolone", "1-Bromopinacolone", "1-Bromopinacolin", "Pivaloylmethyl bromide", "3,3-Dimethyl-2-oxobutyl bromide", "NSC 25307", "1-Bromo-3,3\u2032-dimethyl-2-butanone", "Bromomethyl tert-butyl ketone", "2-Bromo-1-(tert-butyl)ethanone"], "SMILES": "C(C(C)(C)C)(CBr)=O", "physical_data": {"Molecular Weight": "179.05", "Molecular Formula": "C6H11BrO", "Boiling Point": "184-188 \u00b0C", "Density": "1.330 g/cm\u00b3 @ Temp: 17 \u00b0C"}}