{"cas_no": "5469-19-2", "cn_name": "5-\u6eb4-1,2,4-\u4e09\u7532\u57fa\u82ef", "en_name": ["1-Bromo-2,4,5-trimethylbenzene", "Benzene, 1-bromo-2,4,5-trimethyl-", "1-Bromo-2,4,5-trimethylbenzene", "2,4,5-Trimethylbromobenzene", "5-Bromopseudocumene", "5-Bromo-1,2,4-trimethylbenzene", "NSC 26913"], "SMILES": "BrC1=C(C)C=C(C)C(C)=C1", "physical_data": {"Molecular Weight": "199.09", "Molecular Formula": "C9H11Br", "Boiling Point": "234 \u00b0C", "Melting Point": "73 \u00b0C"}}