{"cas_no": "5469-66-9", "cn_name": "1,3-\u4e19\u4e8c\u9187-\u4e8c-\u95f4-\u7532\u82ef\u78fa\u9178\u76d0", "en_name": ["1,3-Propanediol ditosylate", "1,3-Propanediol, 1,3-bis(4-methylbenzenesulfonate)", "1,3-Propanediol, bis(4-methylbenzenesulfonate)", "1,3-Propanediol, di-p-toluenesulfonate", "Propylene glycol 1,3-ditosylate", "1,3-Di(tosyloxy)propane", "1,3-Propanediol ditosylate", "1,3-Bis(tosyloxy)propane", "1,3-Bis(4-toluenesulfonyloxy)propane", "1,3-Propanediol di-p-tosylate", "Trimethylenebis(p-toluenesulfonate)", "1,3-Bis(toluenesulfonyloxy)propane", "1,3-(Di-p-tosyl)propane", "Propane-1,3-diyl di-p-tosylate", "NSC 25205", "1,3-Propanediyl di-p-toluenesulfonate", "Propane-1,3-diyl bis(4-methylbenzenesulfonate)", "1,3-Propanediyl ditosylate", "Propan-1,3-diyl ditosylate"], "SMILES": "S(OCCCOS(=O)(=O)C1=CC=C(C)C=C1)(=O)(=O)C2=CC=C(C)C=C2", "physical_data": {"Molecular Weight": "384.47", "Molecular Formula": "C17H20O6S2", "Melting Point": "93-94 \u00b0C"}}