{"cas_no": "5469-70-5", "cn_name": "\u54d2\u55ea-3-\u80fa", "en_name": ["3-Pyridazinamine", "3-Pyridazinamine", "Pyridazine, 3-amino-", "3-Aminopyridazine", "2,3-Dihydro-3-iminopyridazine", "NSC 25228", "(Pyridazin-3-yl)amine", "Pyridazin-3-amine"], "SMILES": "NC1=CC=CN=N1", "physical_data": {"Molecular Weight": "95.10", "Molecular Formula": "C4H5N3", "Melting Point": "168-170 \u00b0C"}}