{"cas_no": "5469-69-2", "cn_name": "3-\u6c28\u57fa-6-\u6c2f\u54d2\u55ea", "en_name": ["3-Amino-6-chloropyridazine", "3-Pyridazinamine, 6-chloro-", "Pyridazine, 3-amino-6-chloro-", "6-Chloro-3-pyridazinamine", "3-Amino-6-chloropyridazine", "6-Amino-3-chloropyridazine", "6-Chloropyridazin-3-amine", "NSC 25227", "(6-Chloropyridazin-3-yl)amine", "6-Chloro-3-aminopyridazine", "2-Amino-6-chloro-Pyridazine"], "SMILES": "ClC1=CC=C(N)N=N1", "physical_data": {"Molecular Weight": "129.55", "Molecular Formula": "C4H4ClN3", "Melting Point": "213-214 \u00b0C (decomp)"}}