{"cas_no": "547-75-1", "cn_name": "\u732a\u80c6\u9178", "en_name": ["Hyocholic acid", "Cholan-24-oic acid, 3,6,7-trihydroxy-, (3\u03b1,5\u03b2,6\u03b1,7\u03b1)-", "5\u03b2-Cholan-24-oic acid, 3\u03b1,6\u03b1,7\u03b1-trihydroxy-", "5\u03b2-Cholanic acid, 3\u03b1,6\u03b1,7\u03b1-trihydroxy-", "(3\u03b1,5\u03b2,6\u03b1,7\u03b1)-3,6,7-Trihydroxycholan-24-oic acid", "Hyocholic acid", "3\u03b1,6\u03b1,7\u03b1-Trihydroxy-5\u03b2-cholan-24-oic acid", "3\u03b1,6\u03b1,7\u03b1-Trihydroxy-5\u03b2-cholanoic acid", "\u03b3-Muricholic acid", "3\u03b1,6\u03b1,7\u03b1-Trihydroxy-5\u03b2-cholanic acid", "Iocholic acid", "6\u03b1-Hydroxychenodeoxycholic acid", "\u03b1-Hyocholic acid", "5\u03b2-Cholanic acid-3\u03b1,6\u03b1,7\u03b1-triol"], "SMILES": "CC12C3C(C4C(C)(CC3)C(C(CCC(O)=O)C)CC4)C(O)C(O)C1CC(O)CC2", "physical_data": {"Molecular Weight": "408.57", "Molecular Formula": "C24H40O5", "Melting Point": "162 \u00b0C"}}