{"cas_no": "547-58-0", "cn_name": "\u7532\u57fa\u6a59", "en_name": ["Methyl orange", "Benzenesulfonic acid, 4-[2-[4-(dimethylamino)phenyl]diazenyl]-, sodium salt (1:1)", "Orange III", "Benzenesulfonic acid, p-[[p-(dimethylamino)phenyl]azo]-, sodium salt", "Benzenesulfonic acid, 4-[[4-(dimethylamino)phenyl]azo]-, sodium salt", "C.I. 13025", "Eniamethyl Orange", "Gold orange", "Helianthine B", "KCA Methyl Orange", "Methyl Orange B", "Sodium p-dimethylaminoazobenzenesulfonate", "Tropaeolin D", "C.I. Acid Orange 52", "Methyl orange", "Helianthine", "Diazoben", "Sodium 4\u2032-(dimethylamino)azobenzene-4-sulfonate", "Orange 3", "Sodium 4-(dimethylamino)azobenzene-4\u2032-sulfonate", "4-Dimethylaminoazobenzene-4\u2032-sulfonic acid sodium salt", "Sodium 4-[4-(dimethylamino)phenylazo]benzenesulfonate", "Sodium p-[[p-(dimethylamino)phenyl]azo]benzenesulfonate", "Acid Orange 52", "Albion Methyl Orange", "Sodium 4-[(4-dimethylamino)phenyldiazenyl]benzenesulfonate"], "SMILES": "N(=NC1=CC=C(N(C)C)C=C1)C2=CC=C(S(=O)(=O)O)C=C2.[Na]", "physical_data": {"Molecular Weight": "", "Molecular Formula": "C14H15N3O3S.Na", "Melting Point": "&gt;300 \u00b0C", "Density": "1.468 g/cm\u00b3"}}