{"cas_no": "547-91-1", "cn_name": "\u55b9\u7898\u65b9", "en_name": ["Ferron", "5-Quinolinesulfonic acid, 8-hydroxy-7-iodo-", "8-Hydroxy-7-iodo-5-quinolinesulfonic acid", "Ferron", "Loretin", "Meditrene", "Quiniophen", "Yellon", "7-Iodo-8-hydroxylquinoline-5-sulfonic acid", "Ferron (analytical reagent)", "7-Iodo-5-sulfonic acid-8-hydroxyquinoline", "7-Iodo-8-hydroxyquinoline-5-sulfonic acid", "8-Hydroxy-7-iodoquinoline-5-sulfonic acid", "7-Iodo-8-quinolinol-5-sulfonic acid", "5-Sulfo-7-iodo-8-hydroxyquinoline", "7-Iodooxine-5-sulfonic acid", "5-Sulfo-7-iodo-8-quinolinol", "NSC 3784"], "SMILES": "S(=O)(=O)(O)C=1C2=C(C(O)=C(I)C1)N=CC=C2", "physical_data": {"Molecular Weight": "351.12", "Molecular Formula": "C9H6INO4S", "Melting Point": "260 \u00b0C (decomp)"}}