{"cas_no": "547-81-9", "cn_name": "\u5f02\u96cc\u4e09\u9187", "en_name": ["16-Epiestriol", "Estra-1,3,5(10)-triene-3,16,17-triol, (16\u03b2,17\u03b2)-", "Estra-1,3,5(10)-triene-3,16\u03b2,17\u03b2-triol", "Estra-1,3,5(10)-triene-3,16\u03b2,17-triol", "(16\u03b2,17\u03b2)-Estra-1,3,5(10)-triene-3,16,17-triol", "16-Epiestriol", "16-epi-Estriol", "16\u03b2,17\u03b2-Estriol", "16-Epiestratriol", "Epiestriol", "Actriol", "16\u03b2-Hydroxyestradiol", "NSC 26646", "Epioestriol"], "SMILES": "CC12C(C3C(C=4C(CC3)=CC(O)=CC4)CC1)CC(O)C2O", "physical_data": {"Molecular Weight": "288.38", "Molecular Formula": "C18H24O3", "Melting Point": "290 \u00b0C"}}