{"cas_no": "547-17-1", "cn_name": "\u5806\u5fc3\u83ca\u7d20", "en_name": ["Lutein dipalmitate", "\u03b2,\u03b5-Carotene-3,3\u2032-diol, 3,3\u2032-dihexadecanoate, (3R,3\u2032R,6\u2032R)-", "Xanthophyll, dipalmitate", "Helenien", "\u03b2,\u03b5-Carotene-3,3\u2032-diol, dihexadecanoate, (3R,3\u2032R,6\u2032R)-", "Adaptinol", "Lutein dipalmitate", "Xantophyll palmitate", "Lutein palmitate", "Xantofyl palmitate", "Dipalmitoyllutein", "Lutein bispalmitate", "all-trans-Lutein dipalmitate"], "SMILES": "C(=CC(=CC=CC(=CC=CC=C(C=CC=C(C=CC=1C(C)(C)CC(OC(CCCCCCCCCCCCCCC)=O)CC1C)C)C)C)C)C2C(C)(C)CC(OC(CCCCCCCCCCCCCCC)=O)C=C2C", "physical_data": {"Molecular Weight": "1045.69", "Molecular Formula": "C72H116O4", "Melting Point": "82 \u00b0C"}}