{"cas_no": "547-65-9", "cn_name": "2-\u7532\u70ef\u57fa\u4e01\u5185\u916f", "en_name": ["Tulipalin A", "2(3H)-Furanone, dihydro-3-methylene-", "Butyric acid, 4-hydroxy-2-methylene-, \u03b3-lactone", "Dihydro-3-methylene-2(3H)-furanone", "4,5-Dihydro-3-methylene-2(3H)-furanone", "\u03b1-Methylenebutyrolactone", "Tulipalin A", "\u03b1-Methylene-\u03b3-butyrolactone", "Tetrahydro-3-methylene-2-furanone", "2-Methylene-4-butanolide", "2-Methylene-\u03b3-butyrolactone", "3-Methylenedihydrofuran-2-one", "NSC 205367", "Securolide", "LMSV 6", "3-Methylenedihydrofuran-2(3H)-one", "Tulipaline", "2-Methylenebutyrolactone", "3-Methylideneoxolan-2-one", "3-Methylenetetrahydrofuran-2-one"], "SMILES": "C=C1C(=O)OCC1", "physical_data": {"Molecular Weight": "98.10", "Molecular Formula": "C5H6O2", "Boiling Point": "58.5 \u00b0C", "Melting Point": "&lt;25 \u00b0C", "Density": "1.1206 g/cm\u00b3 @ Temp: 20 \u00b0C"}}