{"cas_no": "547-25-1", "cn_name": "D-\u677e\u4e8c\u7cd6", "en_name": ["Turanose", "D-Fructose, 3-O-\u03b1-D-glucopyranosyl-", "Turanose", "3-O-\u03b1-D-Glucopyranosyl-D-fructose", "3-(\u03b1-D-Glucosido)-D-fructose", "D-Turanose", "D-(+)-Turanose", "NSC 1222"], "SMILES": "O(C(C(C(CO)O)O)C(CO)=O)C1OC(CO)C(O)C(O)C1O", "physical_data": {"Molecular Weight": "342.30", "Molecular Formula": "C12H22O11", "Melting Point": "168 \u00b0C"}}