{"cas_no": "547-64-8", "cn_name": "\u4e73\u9178\u7532\u916f", "en_name": ["Methyl lactate", "Propanoic acid, 2-hydroxy-, methyl ester", "Lactic acid, methyl ester", "Methyl 2-hydroxypropionate", "Methyl lactate", "Methyl \u03b1-hydroxypropionate", "Methyl 2-hydroxypropanoate", "(\u00b1)-Methyl lactate", "(\u00b1)-Methyl 2-hydroxypropanoate", "DL-Methyl lactate", "(\u00b1)-Methyl 2-hydroxypropionate", "NSC 406248"], "SMILES": "C(C(C)O)(OC)=O", "physical_data": {"Molecular Weight": "104.10", "Molecular Formula": "C4H8O3", "Boiling Point": "144-145 \u00b0C", "Melting Point": "-66 \u00b0C", "Density": "1.09 g/cm\u00b3 @ Temp: 19 \u00b0C"}}