{"cas_no": "547-63-7", "cn_name": "\u5f02\u4e01\u9178\u7532\u916f", "en_name": ["Methyl isobutyrate", "Propanoic acid, 2-methyl-, methyl ester", "Isobutyric acid, methyl ester", "Methyl isobutyrate", "Methyl 2-methylpropionate", "Methyl 2-methylpropanoate", "2-Methylpropanoic acid methyl ester", "Methyl 2,2-dimethylacetate", "NSC 126780", "2-Methylpropionic acid methyl ester"], "SMILES": "C(C(C)C)(OC)=O", "physical_data": {"Molecular Weight": "102.13", "Molecular Formula": "C5H10O2", "Boiling Point": "92.5 \u00b0C", "Melting Point": "-84.7 \u00b0C", "Density": "0.91131 g/cm\u00b3 @ Temp: 40 \u00b0C"}}