{"cas_no": "547-44-4", "cn_name": "\u78fa\u80fa\u8132", "en_name": ["Sulfacarbamide", "Benzenesulfonamide, 4-amino-N-(aminocarbonyl)-", "Urea, sulfanilyl-", "4-Amino-N-(aminocarbonyl)benzenesulfonamide", "1-(4-Aminobenzenesulfonyl)urea", "Euvernil", "Sulfanilcarbamid", "N-Sulfanilcarbamide", "Sulfanilylurea", "Urosulfan", "Sulfacarbamide", "Sulfaurea", "Uramid", "Urosulfane", "A 435", "Urenil", "p-Aminobenzenesulfonylurea", "Uractyl", "Sulphaurea", "[(p-Aminophenyl)sulfonyl]urea", "Sulphacarbamide", "NSC 78438Q", "NSC 78438", "A 435 (amide)", "(4-Aminophenyl)sulfonylurea", "(4-Aminobenzenesulfonyl)urea"], "SMILES": "S(NC(N)=O)(=O)(=O)C1=CC=C(N)C=C1", "physical_data": {"Molecular Weight": "215.23", "Molecular Formula": "C7H9N3O3S", "Melting Point": "147 \u00b0C (decomp)"}}