{"cas_no": "5470-82-6", "cn_name": "8-\u6c28\u57fa-7-\u7532\u57fa\u55b9\u5549", "en_name": ["8-Amino-7-methylquinoline", "8-Quinolinamine, 7-methyl-", "7-Methyl-8-quinolinamine", "8-Amino-7-methylquinoline", "NSC 27989", "7-Methyl-8-aminoquinoline"], "SMILES": "NC=1C2=C(C=CC1C)C=CC=N2", "physical_data": {"Molecular Weight": "158.20", "Molecular Formula": "C10H10N2", "Melting Point": "41-43 \u00b0C"}}