{"cas_no": "5470-70-2", "cn_name": "6-\u7532\u57fa\u70df\u9178\u7532\u916f", "en_name": ["Methyl 6-methylnicotinate", "3-Pyridinecarboxylic acid, 6-methyl-, methyl ester", "Nicotinic acid, 6-methyl-, methyl ester", "Methyl 6-methylnicotinate", "Methyl 6-methyl-3-pyridinecarboxylate", "6-Methylnicotinic acid methyl ester", "3-(Methoxycarbonyl)-6-methylpyridine", "5-Methoxycarbonyl-2-methylpyridine", "Methyl 6-methylaminonicotinate", "6-Methyl-3-pyridinecarboxylic acid methyl ester", "NSC 27973"], "SMILES": "C(OC)(=O)C=1C=CC(C)=NC1", "physical_data": {"Molecular Weight": "151.16", "Molecular Formula": "C8H9NO2", "Boiling Point": "106-108 \u00b0C @ Press: 18 Torr", "Melting Point": "32 \u00b0C"}}