{"cas_no": "5470-66-6", "cn_name": "2-\u7532\u57fa-4-\u785d\u57fa\u5421\u5576-N-\u6c27\u5316\u7269", "en_name": ["Pyridine, 2-methyl-4-nitro-, 1-oxide", "Pyridine, 2-methyl-4-nitro-, 1-oxide", "2-Picoline, 4-nitro-, 1-oxide", "4-Nitro-2-methylpyridine N-oxide", "4-Nitro-\u03b1-picoline N-oxide", "2-Methyl-4-nitropyridine 1-oxide", "4-Nitro-2-picoline N-oxide", "2-Methyl-4-nitropyridine N-oxide", "4-Nitro-2-methylpyridine 1-oxide", "NSC 27962", "2-Methyl-4-nitropyridin-1-ium-1-olate", "2-Methyl-4-nitro-1-oxidopyridin-1-ium"], "SMILES": "N(=O)(=O)C=1C=C(C)N(=O)=CC1", "physical_data": {"Molecular Weight": "154.12", "Molecular Formula": "C6H6N2O3", "Melting Point": "156-156.5 \u00b0C"}}