{"cas_no": "5470-75-7", "cn_name": "6-\u6c2f-8-\u6c28\u57fa\u55b9\u5549", "en_name": ["6-Chloro-8-aminoquinoline", "8-Quinolinamine, 6-chloro-", "Quinoline, 8-amino-6-chloro-", "6-Chloro-8-quinolinamine", "6-Chloro-8-aminoquinoline", "8-Amino-6-chloroquinoline", "NSC 27981", "(6-Chloroquinolin-8-yl)amine"], "SMILES": "NC=1C2=C(C=C(Cl)C1)C=CC=N2", "physical_data": {"Molecular Weight": "178.62", "Molecular Formula": "C9H7ClN2", "Melting Point": "72-74 \u00b0C"}}