{"cas_no": "5470-17-7", "cn_name": "2-\u6c2f-3-\u6eb4-5-\u785d\u57fa\u5421\u5576", "en_name": ["3-Bromo-2-chloro-5-nitropyridine", "Pyridine, 3-bromo-2-chloro-5-nitro-", "3-Bromo-2-chloro-5-nitropyridine", "NSC 26278"], "SMILES": "N(=O)(=O)C=1C=C(Br)C(Cl)=NC1", "physical_data": {"Molecular Weight": "237.44", "Molecular Formula": "C5H2BrClN2O2", "Melting Point": "69.5 \u00b0C"}}