{"cas_no": "5470-11-1", "cn_name": "\u76d0\u9178\u7f9f\u80fa", "en_name": ["Hydroxyamine hydrochloride", "Hydroxylamine, hydrochloride (1:1)", "Hydroxylamine, hydrochloride", "Oxammonium hydrochloride", "Hydroxylammonium chloride", "Hydroxylamine chloride", "Hydroxyamine hydrochloride", "Hydroxyammonium chloride", "Hydroxylamine chlorohydrate"], "SMILES": "NO.Cl", "physical_data": {"Molecular Weight": "", "Molecular Formula": "ClH.H3NO", "Melting Point": "151 \u00b0C (decomp)", "Density": "1.7 g/cm\u00b3"}}