{"cas_no": "5470-49-5", "cn_name": "4-\u7532\u78fa\u9170\u57fa\u82ef\u80fa", "en_name": ["4-(Methylsulfonyl)aniline", "Benzenamine, 4-(methylsulfonyl)-", "Aniline, p-(methylsulfonyl)-", "4-(Methylsulfonyl)benzenamine", "p-Aminophenyl methyl sulfone", "p-(Methylsulfonyl)aniline", "4-(Methylsulfonyl)aniline", "4-Aminophenyl methyl sulfone", "p-Mesylaniline", "[(4-Aminophenyl)sulfonyl]methane", "Methyl 4-aminophenyl sulfone", "4-(Methanesulfonyl)aniline", "4-Methylsulfonylphenylamine", "NSC 229035", "NSC 27552", "4-Methanesulfonylphenylamine", "p-[Methylsulfonyl]phenylamine"], "SMILES": "S(C)(=O)(=O)C1=CC=C(N)C=C1", "physical_data": {"Molecular Weight": "171.22", "Molecular Formula": "C7H9NO2S", "Melting Point": "133 \u00b0C"}}