{"cas_no": "5470-34-8", "cn_name": "4'-\u7532\u6c27\u57fa\u7532\u9170\u82ef\u80fa", "en_name": ["N-(4-Methoxyphenyl)formamide", "Formamide, N-(4-methoxyphenyl)-", "p-Formanisidide", "N-(4-Methoxyphenyl)formamide", "N-(p-Methoxyphenyl)formamide", "4\u2032-Methoxyformanilide", "N-Formyl-p-anisidine", "4-Methoxy-1-formanilide", "NSC 26220", "p-Methoxyformanilide", "N-Formyl-4-methoxyaniline"], "SMILES": "N(C=O)C1=CC=C(OC)C=C1", "physical_data": {"Molecular Weight": "151.16", "Molecular Formula": "C8H9NO2", "Melting Point": "80-81 \u00b0C"}}