{"cas_no": "54708-14-4", "cn_name": "2,6-\u4e8c\u7532\u57fa\u82ef\u4e59\u8148", "en_name": ["2,6-Dimethylbenzeneacetonitrile", "Benzeneacetonitrile, 2,6-dimethyl-", "Acetonitrile, (2,6-xylyl)-", "2,6-Dimethylbenzeneacetonitrile", "2,6-Dimethylphenylacetonitrile", "2,6-Dimethylbenzyl cyanide", "2-(2,6-Dimethylphenyl)acetonitrile"], "SMILES": "C(C#N)C1=C(C)C=CC=C1C", "physical_data": {"Molecular Weight": "145.20", "Molecular Formula": "C10H11N", "Boiling Point": "44-58 \u00b0C @ Press: 0.5 Torr", "Melting Point": "39.5-40.5 \u00b0C"}}