{"cas_no": "5470-18-8", "cn_name": "2-\u6c2f-3-\u785d\u57fa\u5421\u5576", "en_name": ["2-Chloro-3-nitropyridine", "Pyridine, 2-chloro-3-nitro-", "2-Chloro-3-nitropyridine", "3-Nitro-2-chloropyridine", "NSC 26279"], "SMILES": "N(=O)(=O)C1=C(Cl)N=CC=C1", "physical_data": {"Molecular Weight": "158.54", "Molecular Formula": "C5H3ClN2O2", "Melting Point": "108-109 \u00b0C"}}