{"cas_no": "5470-96-2", "cn_name": "\u55b9\u5549-2-\u7532\u919b", "en_name": ["2-Quinolinecarboxaldehyde", "2-Quinolinecarboxaldehyde", "Quinaldaldehyde", "2-Formylquinoline", "2-Quinolinecarbaldehyde", "NSC 27026", "2-Quinolylcarbaldehyde", "2-Quinolylaldehyde"], "SMILES": "C(=O)C1=NC2=C(C=C1)C=CC=C2", "physical_data": {"Molecular Weight": "157.17", "Molecular Formula": "C10H7NO", "Melting Point": "70-72 \u00b0C"}}