{"cas_no": "5470-95-1", "cn_name": "2,3-\u4e8c\u7532\u6c27\u57fa\u82ef\u7532\u919b\u809f", "en_name": ["Benzaldehyde, 2,3-dimethoxy-, oxime", "Benzaldehyde, 2,3-dimethoxy-, oxime", "2,3-Dimethoxybenzaldoxime", "2,3-Dimethoxybenzaldehyde oxime", "NSC 27024"], "SMILES": "O(C)C1=C(C=NO)C=CC=C1OC", "physical_data": {"Molecular Weight": "181.19", "Molecular Formula": "C9H11NO3", "Melting Point": "96.5 \u00b0C"}}