{"cas_no": "5470-37-1", "cn_name": "1 - \u7532\u57fa-2,3,4,9 - \u56db\u6c22-1H-\u0392-\u5494\u5549-3 - \u7fa7\u9178\u76d0DATA", "en_name": ["1-Methyl-1,2,3,4-tetrahydro-\u03b2-carboline-3-carboxylic acid", "1H-Pyrido[3,4-b]indole-3-carboxylic acid, 2,3,4,9-tetrahydro-1-methyl-", "2,3,4,9-Tetrahydro-1-methyl-1H-pyrido[3,4-b]indole-3-carboxylic acid", "1-Methyl-1,2,3,4-tetrahydro-\u03b2-carboline-3-carboxylic acid", "Tetrahydroharman-3-carboxylic acid", "NSC 26225", "1,2,3,4-Tetrahydro-3-carboxyharmane", "1-Methyl-1,2,3,4-Tetrahydropyrido[3,4-b]indole-3-carboxylic acid", "1,2,3,4-Tetrahydroharman-3-carboxylic acid", "1-Methyl-2,3,4,9-tetrahydro-1H-\u03b2-carboline-3-carboxylic acid", "1-Methyl-2,3,4,9-tetrahydro-1H-pyrido[3,4-b]indole-3-carboxylic acid", "1-Methyl-1H,2H,3H,4H,9H-pyrido[3,4-b]indole-3-carboxylic acid"], "SMILES": "CC1C2=C(C=3C(N2)=CC=CC3)CC(C(O)=O)N1", "physical_data": {"Molecular Weight": "230.26", "Molecular Formula": "C13H14N2O2", "Melting Point": "242-243 \u00b0C (decomp)"}}