{"cas_no": "54711-21-6", "cn_name": "5-\u6c28\u57fa-4-\u6c30\u57fa-3-\u6c30\u57fa\u7532\u57fa\u5421\u5511", "en_name": ["5-Amino-4-cyano-1H-pyrazole-3-acetonitrile", "1H-Pyrazole-3-acetonitrile, 5-amino-4-cyano-", "Pyrazole-3-acetonitrile, 5-amino-4-cyano-", "5-Amino-4-cyano-1H-pyrazole-3-acetonitrile", "5-Amino-4-cyano-3-(cyanomethyl)pyrazole", "3-Amino-4-cyano-5-cyanomethylpyrazole", "NSC 22478", "5-Amino-3-cyanomethyl-1H-pyrazole-4-carbonitrile", "3-Cyanomethyl-4-cyano-5-amino-1H-pyrazole", "3-Amino-5-(cyanomethyl)-1H-pyrazole-4-carbonitrile"], "SMILES": "C(C#N)C=1C(C#N)=C(N)NN1", "physical_data": {"Molecular Weight": "147.14", "Molecular Formula": "C6H5N5", "Melting Point": "197-198 \u00b0C"}}