{"cas_no": "5471-90-9", "cn_name": "N-(4-\u7f9f\u82ef\u57fa)\u82ef\u78fa\u9170\u80fa", "en_name": ["N-(4-Hydroxyphenyl)benzenesulfonamide", "Benzenesulfonamide, N-(4-hydroxyphenyl)-", "Benzenesulfonanilide, 4\u2032-hydroxy-", "N-(4-Hydroxyphenyl)benzenesulfonamide", "p-Benzenesulfonamido phenol", "4-Benzenesulfonamido phenol", "NSC 28472"], "SMILES": "S(NC1=CC=C(O)C=C1)(=O)(=O)C2=CC=CC=C2", "physical_data": {"Molecular Weight": "249.29", "Molecular Formula": "C12H11NO3S", "Melting Point": "156 \u00b0C"}}