{"cas_no": "5471-55-6", "cn_name": "2-\u73af\u5df1\u57fa\u4e59\u80fa\u76d0\u9178\u76d0", "en_name": ["Cyclohexaneethanamine, hydrochloride (1:1)", "Cyclohexaneethanamine, hydrochloride (1:1)", "Cyclohexaneethanamine, hydrochloride", "Cyclohexaneethylamine, hydrochloride", "(2-Aminoethyl)cyclohexane hydrochloride", "2-(Cyclohexyl)ethylamine hydrochloride", "2-Cyclohexylethanamine hydrochloride", "2-Cyclohexylethan-1-amine hydrochloride"], "SMILES": "C(CN)C1CCCCC1.Cl", "physical_data": {"Molecular Weight": "", "Molecular Formula": "C8H17N.ClH", "Melting Point": "230 \u00b0C"}}