{"cas_no": "5471-63-6", "cn_name": "1,3-\u4e8c\u82ef\u57fa\u5f02\u82ef\u5e76\u544b\u5583", "en_name": ["1,3-Diphenylisobenzofuran", "Isobenzofuran, 1,3-diphenyl-", "1,3-Diphenylisobenzofuran", "1,3-Diphenylbenzo[c]furan", "Diphenylisobenzofuran", "NSC 28407", "1,3-Isobenzofurandiol", "DPBF"], "SMILES": "C1(=C2C(=C(O1)C3=CC=CC=C3)C=CC=C2)C4=CC=CC=C4", "physical_data": {"Molecular Weight": "270.32", "Molecular Formula": "C20H14O", "Melting Point": "125 \u00b0C"}}