{"cas_no": "5471-51-2", "cn_name": "\u8986\u76c6\u5b50\u916e", "en_name": ["4-(4\u2032-Hydroxyphenyl)-2-butanone", "2-Butanone, 4-(4-hydroxyphenyl)-", "2-Butanone, 4-(p-hydroxyphenyl)-", "4-(4-Hydroxyphenyl)-2-butanone", "(p-Hydroxybenzyl)acetone", "4-(p-Hydroxyphenyl)-2-butanone", "1-(p-Hydroxyphenyl)-3-butanone", "Rheosmin", "Raspberry ketone", "Frambinone", "1-(4-Hydroxyphenyl)-3-butanone", "4-(4\u2032-Hydroxyphenyl)-2-butanone", "4-(3-Oxobutyl)phenol", "Oxyphenylon", "(4-Hydroxybenzyl)acetone", "NSC 26515", "4-(4-Hydroxy-1-phenyl)-2-butanone"], "SMILES": "C(CC(C)=O)C1=CC=C(O)C=C1", "physical_data": {"Molecular Weight": "164.20", "Molecular Formula": "C10H12O2", "Boiling Point": "190-210 \u00b0C @ Press: 18 Torr", "Melting Point": "83.5-84.5 \u00b0C"}}