{"cas_no": "5471-82-9", "cn_name": "3-\u7532\u57fa-2-\u785d\u57fa\u82ef\u7532\u9178\u7532\u916f", "en_name": ["Benzoic acid, 3-methyl-2-nitro-, methyl ester", "Benzoic acid, 3-methyl-2-nitro-, methyl ester", "m-Toluic acid, 2-nitro-, methyl ester", "Methyl 3-methyl-2-nitrobenzoate", "NSC 28461", "2-Nitro-3-methylbenzoic acid methyl ester", "3-Methyl-2-nitrobenzoic acid methyl ester"], "SMILES": "C(OC)(=O)C1=C(N(=O)=O)C(C)=CC=C1", "physical_data": {"Molecular Weight": "195.17", "Molecular Formula": "C9H9NO4", "Melting Point": "74 \u00b0C"}}