{"cas_no": "54716-02-8", "cn_name": "(E)-3-(1-\u5421\u54af\u70f7\u916e)\u5df4\u8c46\u9178\u4e59\u916f", "en_name": ["Ethyl (2E)-3-(1-pyrrolidinyl)-2-butenoate", "2-Butenoic acid, 3-(1-pyrrolidinyl)-, ethyl ester, (2E)-", "2-Butenoic acid, 3-(1-pyrrolidinyl)-, ethyl ester, (E)-", "Ethyl (2E)-3-(1-pyrrolidinyl)-2-butenoate", "Ethyl acetoacetate pyrrolidinyl enamine", "Ethyl (E)-3-(pyrrolidino)-2-butenoate", "(E)-Ethyl 3-(pyrrolidin-1-yl)but-2-enoate"], "SMILES": "C(=CC(OCC)=O)(C)N1CCCC1", "physical_data": {"Molecular Weight": "183.25", "Molecular Formula": "C10H17NO2", "Boiling Point": "110 \u00b0C @ Press: 0.02 Torr", "Melting Point": "25-26 \u00b0C"}}