{"cas_no": "5472-49-1", "cn_name": "N-(3-\u6c2f\u4e19\u57fa)\u54cc\u5576\u76d0\u9178\u76d0", "en_name": ["Piperidine, 1-(3-chloropropyl)-, hydrochloride (1:1)", "Piperidine, 1-(3-chloropropyl)-, hydrochloride (1:1)", "Piperidine, 1-(3-chloropropyl)-, hydrochloride", "3-Piperidinopropyl chloride hydrochloride", "1-(3-Chloropropyl)piperidine hydrochloride", "N-(3-Chloropropyl)piperidine hydrochloride", "3-(1-Piperidinyl)propyl chloride hydrochloride", "1-Chloro-3-piperidinopropane hydrochloride", "1-(3-Chloropropyl)piperidine monohydrochloride"], "SMILES": "C(CCCl)N1CCCCC1.Cl", "physical_data": {"Molecular Weight": "", "Molecular Formula": "C8H16ClN.ClH", "Melting Point": "213-214 \u00b0C"}}