{"cas_no": "5472-70-8", "cn_name": "DL-3-\u7532\u57fa\u82ef\u4e19\u6c28\u9178", "en_name": ["3-Methylphenylalanine", "Phenylalanine, 3-methyl-", "Alanine, 3-m-tolyl-, DL-", "DL-Phenylalanine, 3-methyl-", "3-Methylphenylalanine", "DL-3-Methylphenylalanine", "NSC 14793", "NSC 29447", "2-Amino-3-(3-methylphenyl)propanoic acid", "2-Amino-3-m-tolyl-propionic acid"], "SMILES": "C(C(C(O)=O)N)C1=CC(C)=CC=C1", "physical_data": {"Molecular Weight": "179.22", "Molecular Formula": "C10H13NO2", "Melting Point": "245 \u00b0C"}}