{"cas_no": "5472-13-9", "cn_name": "2-\u7532\u57fa\u4e8c\u82ef\u7532\u9187", "en_name": ["2-Methylbenzhydrol", "Benzenemethanol, 2-methyl-\u03b1-phenyl-", "Benzhydrol, 2-methyl-", "2-Methyl-\u03b1-phenylbenzenemethanol", "o-Methylbenzhydrol", "2-Methylbenzhydrol", "(2-Methylphenyl)phenylmethanol", "\u03b1-(2-Methylphenyl)benzenemethanol", "Phenyl(2-tolyl)methanol", "NSC 27910", "\u03b1-(2-Methylphenyl)benzyl alcohol", "Phenyl(o-tolyl)methanol"], "SMILES": "C(O)(C1=C(C)C=CC=C1)C2=CC=CC=C2", "physical_data": {"Molecular Weight": "198.26", "Molecular Formula": "C14H14O", "Boiling Point": "143-144 \u00b0C @ Press: 1.5 Torr", "Melting Point": "95 \u00b0C"}}