{"cas_no": "5472-41-3", "cn_name": "4-\u6c28\u57fa-6-\u7f9f\u57fa\u5421\u5511-(3,4-d)\u5627\u5576", "en_name": ["4-Amino-6-hydroxypyrazolo[3,4-d]pyrimidine", "6H-Pyrazolo[3,4-d]pyrimidin-6-one, 4-amino-1,7-dihydro-", "1H-Pyrazolo[3,4-d]pyrimidin-6-ol, 4-amino-", "6H-Pyrazolo[3,4-d]pyrimidin-6-one, 4-amino-1,5-dihydro-", "1H-Pyrazolo[3,4-d]pyrimidine, 4-amino-, 6-oxide", "4-Amino-1,7-dihydro-6H-pyrazolo[3,4-d]pyrimidin-6-one", "4-Amino-6-hydroxypyrazolo[3,4-d]pyrimidine", "4-Amino-6-oxopyrazolo[3,4-d]pyrimidine", "NSC 28415"], "SMILES": "NC=1C2=C(NC(=O)N1)NN=C2", "physical_data": {"Molecular Weight": "151.13", "Molecular Formula": "C5H5N5O", "Melting Point": "264-266 \u00b0C"}}