{"cas_no": "5472-68-4", "cn_name": "DL-2,4-\u4e8c\u6c2f\u82ef\u4e19\u6c28\u9178", "en_name": ["2,4-Dichlorophenylalanine", "Phenylalanine, 2,4-dichloro-", "DL-Phenylalanine, 2,4-dichloro-", "Alanine, 3-(2,4-dichlorophenyl)-, DL-", "2,4-Dichlorophenylalanine", "2,4-Dichloro-DL-phenylalanine", "DL-2,4-Dichlorophenylalanine", "NSC 29445", "2-Amino-3-(2,4-dichlorophenyl)propanoicacid"], "SMILES": "C(C(C(O)=O)N)C1=C(Cl)C=C(Cl)C=C1", "physical_data": {"Molecular Weight": "234.08", "Molecular Formula": "C9H9Cl2NO2", "Melting Point": "239-241 \u00b0C"}}