{"cas_no": "54731-72-5", "cn_name": "2-\u7f9f\u4e59\u57fa\u81a6\u9178\u4e8c\u7532\u916f", "en_name": ["Dimethyl P-(2-hydroxyethyl)phosphonate", "Phosphonic acid, P-(2-hydroxyethyl)-, dimethyl ester", "Phosphonic acid, (2-hydroxyethyl)-, dimethyl ester", "Dimethyl P-(2-hydroxyethyl)phosphonate", "Dimethyl (2-hydroxyethyl)phosphonate", "Dimethyl (\u03b2-hydroxyethyl)phosphonate", "(2-Hydroxyethyl)phosphonic acid dimethyl ester", "Dimethyl 2-phosphonoethanol", "2-Dimethoxyphosphorylethanol"], "SMILES": "P(CCO)(OC)(OC)=O", "physical_data": {"Molecular Weight": "154.10", "Molecular Formula": "C4H11O4P", "Boiling Point": "95-97 \u00b0C @ Press: 6 Torr", "Density": "1.1711 g/cm\u00b3 @ Temp: 20 \u00b0C"}}