{"cas_no": "54738-73-7", "cn_name": "3-\u6eb4-1,5-\u4e8c\u6c22-4H-\u5421\u5511\u5e76[3,4-D]\u5627\u5576-4-\u916e", "en_name": ["3-Bromo-1,5-dihydro-4H-pyrazolo[3,4-d]pyrimidin-4-one", "4H-Pyrazolo[3,4-d]pyrimidin-4-one, 3-bromo-1,5-dihydro-", "3-Bromo-1,5-dihydro-4H-pyrazolo[3,4-d]pyrimidin-4-one", "3-Bromo-4-hydroxypyrazolo[3,4-d]pyrimidine", "3-Bromoallopurinol", "NSC 344532", "3-Bromo-1H-pyrazolo[3,4-d]pyrimidin-4(5H)-one", "3-Bromo-1H,4H,7H-pyrazolo[3,4-d]pyrimidin-4-one", "3-Bromo-1H-pyrazolo[3,4-d]pyrimidin-4-ol", "3-Bromo-1H,2H,4H-pyrazolo[3,4-d]pyrimidin-4-one", "3-Bromo-1H,4H,5H-pyrazolo[3,4-d]pyrimidin-4-one", "3-Bromo-2H-pyrazolo[3,4-d]pyrimidin-4-ol", "3-Bromo-1,2-dihydropyrazolo[3,4-d]pyrimidin-4-one", "3-Bromo-2H,4H,5H-pyrazolo[3,4-d]pyrimidin-4-one"], "SMILES": "O=C1C2=C(NC=N1)NN=C2Br", "physical_data": {"Molecular Weight": "215.01", "Molecular Formula": "C5H3BrN4O", "Melting Point": "&gt;300 \u00b0C"}}