{"cas_no": "54767-75-8", "cn_name": "\u8212\u6d1b\u5730\u5c14", "en_name": ["Suloctidil", "Benzenemethanol, 4-[(1-methylethyl)thio]-\u03b1-[(1R)-1-(octylamino)ethyl]-, (\u03b1S)-", "Benzenemethanol, 4-[(1-methylethyl)thio]-\u03b1-[1-(octylamino)ethyl]-, (R*,S*)-", "(\u03b1S)-4-[(1-Methylethyl)thio]-\u03b1-[(1R)-1-(octylamino)ethyl]benzenemethanol", "Suloctidil", "Sulocton", "CP 556S", "Suloctidyl", "(\u00b1)-Suloctidil", "Dulasi", "Sudil", "Sulodene", "Iangene", "Bemperil", "Cerebro", "Fluvisco", "Fluversin", "Loctidon", "Dulcotil", "MJF 12637", "Euvasal", "Circleton", "Locton", "Hemoantin", "Octamet", "Polivasal", "MeSH ID: D013468"], "SMILES": "C(C(NCCCCCCCC)C)(O)C1=CC=C(SC(C)C)C=C1", "physical_data": {"Molecular Weight": "337.56", "Molecular Formula": "C20H35NOS", "Melting Point": "62-63 \u00b0C"}}