{"cas_no": "54777-65-0", "cn_name": "4-\u4e59\u9178\u80fa\u57fa\u82c4\u57fa \u6c2f", "en_name": ["N-[4-(Chloromethyl)phenyl]acetamide", "Acetamide, N-[4-(chloromethyl)phenyl]-", "p-Acetotoluidide, \u03b1-chloro-", "N-[4-(Chloromethyl)phenyl]acetamide", "4\u2032-(Chloromethyl)acetanilide", "4-Acetylaminobenzyl chloride", "N-[p-(Chloromethyl)phenyl]acetamide", "4-Acetamidobenzyl chloride"], "SMILES": "N(C(C)=O)C1=CC=C(CCl)C=C1", "physical_data": {"Molecular Weight": "183.63", "Molecular Formula": "C9H10ClNO", "Melting Point": "153 \u00b0C"}}