{"cas_no": "54799-03-0", "cn_name": "4-\u6c28\u57fa\u82c4\u80fa\u4e8c\u76d0\u9178\u76d0", "en_name": ["Benzenemethanamine, 4-amino-, hydrochloride (1:2)", "Benzenemethanamine, 4-amino-, hydrochloride (1:2)", "Benzenemethanamine, 4-amino-, dihydrochloride", "Toluene-\u03b1,4-diamine, dihydrochloride", "p-Aminobenzylaminedihydrochloride", "4-(Aminomethyl)aniline dihydrochloride"], "SMILES": "C(N)C1=CC=C(N)C=C1.Cl", "physical_data": {"Molecular Weight": "", "Molecular Formula": "C7H10N2.2ClH", "Melting Point": "360 \u00b0C"}}