{"cas_no": "548-61-8", "cn_name": "4,4\u2019,4\"-\u4e09\u6c28\u57fa\u4e09\u82ef\u7532\u70f7", "en_name": ["4,4\u2032,4\u2032\u2032-Methylidynetris[benzenamine]", "Benzenamine, 4,4\u2032,4\u2032\u2032-methylidynetris-", "Aniline, 4,4\u2032,4\u2032\u2032-methylidynetri-", "4,4\u2032,4\u2032\u2032-Methylidynetris[benzenamine]", "Leucoparafuchsine", "C.I. Basic Red 9, leuco-", "Leucoparafuchsin", "Tris(4-aminophenyl)methane", "4,4\u2032,4\u2032\u2032-Methylidynetrianiline", "p,p\u2032,p\u2032\u2032-Triaminotriphenylmethane", "4,4\u2032,4\u2032\u2032-Triaminotriphenylmethane", "Leucopararosaniline", "Pararosaniline, leuco base", "Tris(p-aminophenyl)methane", "Pararosaniline base", "4,4\u2032,4\u2032\u2032-Methylidenetris(benzenamine)"], "SMILES": "C(C1=CC=C(N)C=C1)(C2=CC=C(N)C=C2)C3=CC=C(N)C=C3", "physical_data": {"Molecular Weight": "289.37", "Molecular Formula": "C19H19N3", "Melting Point": "207-208.5 \u00b0C"}}