{"cas_no": "548-73-2", "cn_name": "\u6c1f\u54cc\u5229\u591a", "en_name": ["Droperidol", "2H-Benzimidazol-2-one, 1-[1-[4-(4-fluorophenyl)-4-oxobutyl]-1,2,3,6-tetrahydro-4-pyridinyl]-1,3-dihydro-", "2-Benzimidazolinone, 1-[1-[3-(p-fluorobenzoyl)propyl]-1,2,3,6-tetrahydro-4-pyridyl]-", "1-[1-[4-(4-Fluorophenyl)-4-oxobutyl]-1,2,3,6-tetrahydro-4-pyridinyl]-1,3-dihydro-2H-benzimidazol-2-one", "McN-JR 4749", "R 4749", "Dehydrobenzperidol", "Droperidol", "1-[1-[3-(p-Fluorobenzoyl)propyl]-1,2,3,6-tetrahydro-4-pyridyl]-2-benzimidazolinone", "1-(1-[4-(p-Fluorophenyl)-4-oxobutyl]-1,2,3,6-tetrahydro-4-pyridyl)-2-benzimidazolinone", "Inapsine", "Droleptan", "Inapsin", "Dridol", "Inopsin", "Sintodril", "Neurolidol", "NSC 169874", "1-[1-[4-(4-Fluorophenyl)-4-oxobutyl]-1,2,3,6-tetrahydropyridin-4-yl]-2,3-dihydro-1H-1,3-benzodiazol-2-one", "MeSH ID: D004329"], "SMILES": "O=C1N(C=2C(N1)=CC=CC2)C=3CCN(CCCC(=O)C4=CC=C(F)C=C4)CC3", "physical_data": {"Molecular Weight": "379.43", "Molecular Formula": "C22H22FN3O2", "Melting Point": "145-146 \u00b0C"}}