{"cas_no": "548-37-8", "cn_name": "\u9a6c\u97ad\u8349\u82f7", "en_name": ["Verbenalin", "Cyclopenta[c]pyran-4-carboxylic acid, 1-(\u03b2-D-glucopyranosyloxy)-1,4a,5,6,7,7a-hexahydro-7-methyl-5-oxo-, methyl ester, (1S,4aS,7S,7aR)-", "Verbenalin", "Cyclopenta[c]pyran-4-carboxylic acid, 1-(\u03b2-D-glucopyranosyloxy)-1,4a,5,6,7,7a-hexahydro-7-methyl-5-oxo-, methyl ester, [1S-(1\u03b1,4a\u03b1,7\u03b1,7a\u03b1)]-", "Verbenaloside", "Cornin (glycoside)", "Cornin", "NSC 118055", "5-Deoxyhastatoside"], "SMILES": "O(C1C2C(C(C(OC)=O)=CO1)C(=O)CC2C)C3OC(CO)C(O)C(O)C3O", "physical_data": {"Molecular Weight": "388.37", "Molecular Formula": "C17H24O10", "Melting Point": "183 \u00b0C"}}