{"cas_no": "548-66-3", "cn_name": "\u76d0\u9178\u516d\u6c22\u82ac\u5b81", "en_name": ["Drofenine hydrochloride", "Benzeneacetic acid, \u03b1-cyclohexyl-, 2-(diethylamino)ethyl ester, hydrochloride (1:1)", "Cyclohexaneacetic acid, \u03b1-phenyl-, 2-(diethylamino)ethyl ester hydrochloride", "Benzeneacetic acid, \u03b1-cyclohexyl-, 2-(diethylamino)ethyl ester, hydrochloride", "IT 19", "Cycloadiphenine hydrochloride", "Cyclospasmol [Tempelhof]", "Cycloadiphenine", "2-(Diethylamino)ethyl \u03b1-cyclohexylbenzeneacetate hydrochloride", "Cyclovegantine", "Hexahydroadiphenine hydrochloride", "Adiphenine H hydrochloride", "Trasentine A", "Trasentin H", "Drofenine hydrochloride", "NSC 42559", "2-(Diethylamino)ethyl 2-cyclohexyl-2-phenylacetate hydrochloride"], "SMILES": "C(C(OCCN(CC)CC)=O)(C1CCCCC1)C2=CC=CC=C2.Cl", "physical_data": {"Molecular Weight": "", "Molecular Formula": "C20H31NO2.ClH", "Melting Point": "145-147 \u00b0C"}}