{"cas_no": "548-82-3", "cn_name": "\u77ed\u53f6\u677e\u7d20", "en_name": ["Pinobanksin", "4H-1-Benzopyran-4-one, 2,3-dihydro-3,5,7-trihydroxy-2-phenyl-, (2R,3R)-", "Flavanone, 3,5,7-trihydroxy-", "Pinobanksin", "4H-1-Benzopyran-4-one, 2,3-dihydro-3,5,7-trihydroxy-2-phenyl-, (2R-trans)-", "(2R,3R)-2,3-Dihydro-3,5,7-trihydroxy-2-phenyl-4H-1-benzopyran-4-one", "Dihydrogalangin", "3,5,7-Trihydroxyflavanone", "(2R,3R)-Pinobanksin"], "SMILES": "O=C1C=2C(OC(C1O)C3=CC=CC=C3)=CC(O)=CC2O", "physical_data": {"Molecular Weight": "272.25", "Molecular Formula": "C15H12O5", "Melting Point": "173-175 \u00b0C"}}