{"cas_no": "548-39-0", "cn_name": "\u8418\u5d4c\u82ef\u916e", "en_name": ["Phenalenone", "1H-Phenalen-1-one", "Phenalen-1-one", "Perinaphthenone", "Phenalenone", "7-Perinaphthenone", "Phenalone", "1H-Benzonaphthen-1-one", "NSC 150161"], "SMILES": "O=C1C2=C3C(C=C1)=CC=CC3=CC=C2", "physical_data": {"Molecular Weight": "180.20", "Molecular Formula": "C13H8O", "Melting Point": "154 \u00b0C"}}