{"cas_no": "548-62-9", "cn_name": "\u9f99\u80c6\u7d2b", "en_name": ["Crystal violet", "Methanaminium, N-[4-[bis[4-(dimethylamino)phenyl]methylene]-2,5-cyclohexadien-1-ylidene]-N-methyl-, chloride (1:1)", "C.I. Basic Violet 3", "Methanaminium, N-[4-[bis[4-(dimethylamino)phenyl]methylene]-2,5-cyclohexadien-1-ylidene]-N-methyl-, chloride", "C.I. 42555", "Adergon", "Aizen Crystal Violet", "Aizen Crystal Violet Extra Pure", "Aniline violet pyoktanine", "Axuris", "Badil", "Basic Violet BN", "Calcozine Violet C", "Calcozine Violet 6BN", "Crystal Violet 5BO", "Crystal Violet 6BO", "Crystal Violet AO", "Crystal Violet AON", "Crystal Violet BPC", "Crystal Violet chloride", "Crystal Violet Extra Pure", "Crystal Violet Extra Pure APN", "Crystal Violet Extra Pure APNX", "Crystal Violet FN", "Crystal Violet HL 2", "Crystal Violet Pure DSC", "Crystal Violet Pure DSC Brilliant", "Crystal Violet SS", "Crystal Violet Technical", "Crystal Violet USP", "Crystal Violet O", "Crystal Violet 6B", "Crystal Violet 10B", "Gentersal", "Gentiaverm", "Hectograph Violet SR", "Hecto Violet R", "Hexamethylpararosaniline chloride", "Hexamethyl-p-rosaniline chloride", "Hidaco Brilliant Crystal Violet", "Methylrosaniline chloride", "Methyl Violet 5BNO", "Methyl Violet 5BO", "Methyl Violet 10BO", "Methyl Violet 10BD", "Methyl Violet 10BK", "Methyl Violet 10B", "Methyl Violet 10BN", "Mitsui Crystal Violet", "Paper Blue R", "Pararosaniline, N,N,N\u2032,N\u2032,N\u2032\u2032,N\u2032\u2032-hexamethyl-, chloride", "Plastoresin Violet 5BO", "Pyoktanin", "Viocid", "Violet 5BO", "12416 Violet", "Violet CP", "Violet 6BN", "Crystal Violet BP", "Gentian violet", "Crystal violet", "Violet XXIII", "Aniline violet", "Meroxylan-Wander", "Meroxyl-Wander", "Vianin", "Methyl Violet 10BNS", "Basic Violet 3", "Vermicid", "Atmonil", "Avermin", "Genticid", "Gentioletten", "Oxiuran", "Oxycolor", "Oxyozyl", "Hexamethyl violet", "Methyl Violet 6B", "Methyl Violet 6B (biological stain)", "Sanyo Fanal Violet R", "Gentian Violet B", "Basonyl Violet 610", "Methylrosanilinium chloride", "Meroxylan", "Meroxyl", "Aizen Crystal Violet Powder", "Violet 612", "Chlorohexamethylene-p-fuchsin", "Keyazine Crystal Violet 6B"], "SMILES": "C(C1=CC=C(N(C)C)C=C1)(C2=CC=C(N(C)C)C=C2)=C3C=CC(=[N+](C)C)C=C3.[Cl-]", "physical_data": {"Molecular Weight": "", "Molecular Formula": "C25H30N3.Cl", "Melting Point": "205-215 \u00b0C (decomp)"}}