{"cas_no": "548-75-4", "cn_name": "\u69f2\u76ae\u4e07\u5bff\u83ca\u7d20-7-O-\u0392-\u5421\u5583\u8461\u8404\u7cd6\u82f7", "en_name": ["Quercetagitrin", "4H-1-Benzopyran-4-one, 2-(3,4-dihydroxyphenyl)-7-(\u03b2-D-glucopyranosyloxy)-3,5,6-trihydroxy-", "Quercetagitrin", "Quercetagetin 7-glucoside", "2-(3,4-Dihydroxyphenyl)-7-(\u03b2-D-glucopyranosyloxy)-3,5,6-trihydroxy-4H-1-benzopyran-4-one", "Quercetagetin, 7-\u03b2-D-glucopyranoside", "Quercetagetin 7-D-glucoside", "Quercetagetin 7-\u03b2-D-glucoside", "Quercetagetin 7-O-glucoside", "Quercetagetin 7-O-\u03b2-D-glucoside"], "SMILES": "O=C1C=2C(OC(=C1O)C3=CC(O)=C(O)C=C3)=CC(OC4OC(CO)C(O)C(O)C4O)=C(O)C2O", "physical_data": {"Molecular Weight": "480.38", "Molecular Formula": "C21H20O13", "Melting Point": "236-238 \u00b0C (decomp)"}}