{"cas_no": "548-19-6", "cn_name": "\u5f02\u94f6\u674f\u53cc\u9ec4\u916e", "en_name": ["Isoginkgetin", "4H-1-Benzopyran-4-one, 8-[5-(5,7-dihydroxy-4-oxo-4H-1-benzopyran-2-yl)-2-methoxyphenyl]-5,7-dihydroxy-2-(4-methoxyphenyl)-", "3\u2032\u2032\u2032,8-Biflavone, 5,5\u2032\u2032,7,7\u2032\u2032-tetrahydroxy-4\u2032,4\u2032\u2032\u2032-dimethoxy-", "Isoginkgetin", "8-[5-(5,7-Dihydroxy-4-oxo-4H-1-benzopyran-2-yl)-2-methoxyphenyl]-5,7-dihydroxy-2-(4-methoxyphenyl)-4H-1-benzopyran-4-one", "4\u2032,4\u2032\u2032\u2032-Dimethylamentoflavone"], "SMILES": "OC=1C(=C2C(C(=O)C=C(O2)C3=CC=C(OC)C=C3)=C(O)C1)C4=CC(=CC=C4OC)C=5OC=6C(C(=O)C5)=C(O)C=C(O)C6", "physical_data": {"Molecular Weight": "566.51", "Molecular Formula": "C32H22O10", "Melting Point": "355 \u00b0C"}}