{"cas_no": "548-35-6", "cn_name": "\u4e09\u805a\u831a", "en_name": ["Truxene", "5H-Tribenzo[a,f,k]trindene, 10,15-dihydro-", "5H-Diindeno[1,2-a:1\u2032,2\u2032-c]fluorene, 10,15-dihydro-", "10,15-Dihydro-5H-tribenzo[a,f,k]trindene", "Benzene, tribenzylene-", "Truxene", "\u03b1-Truxene", "10,15-Dihydro-5H-diindeno[1,2-a", "1\u2032,2\u2032-c]fluorene", "Truxen", "Tribenzylenebenzene", "NSC 5559"], "SMILES": "C=12C3=C(C4=C(C1CC=5C2=CC=CC5)C=6C(C4)=CC=CC6)C=7C(C3)=CC=CC7", "physical_data": {"Molecular Weight": "342.43", "Molecular Formula": "C27H18", "Melting Point": "364-365 \u00b0C"}}