{"cas_no": "548-77-6", "cn_name": "\u9e22\u5c3e\u82f7", "en_name": ["Tectorigenin", "4H-1-Benzopyran-4-one, 5,7-dihydroxy-3-(4-hydroxyphenyl)-6-methoxy-", "Isoflavone, 4\u2032,5,7-trihydroxy-6-methoxy-", "Tectorigenin", "5,7-Dihydroxy-3-(4-hydroxyphenyl)-6-methoxy-4H-1-benzopyran-4-one", "K 251T", "Tectrigenin", "5,7,4\u2032-Trihydroxy-6-methoxyisoflavone"], "SMILES": "O=C1C=2C(=CC(O)=C(OC)C2O)OC=C1C3=CC=C(O)C=C3", "physical_data": {"Molecular Weight": "300.26", "Molecular Formula": "C16H12O6", "Melting Point": "227 \u00b0C"}}