{"cas_no": "548-29-8", "cn_name": "\u5f02\u843d\u53f6\u677e\u8102\u7d20", "en_name": ["(+)-Isolariciresinol", "2,3-Naphthalenedimethanol, 1,2,3,4-tetrahydro-7-hydroxy-1-(4-hydroxy-3-methoxyphenyl)-6-methoxy-, (1S,2R,3R)-", "Isolariciresinol", "2,3-Naphthalenedimethanol, 1,2,3,4-tetrahydro-7-hydroxy-1-(4-hydroxy-3-methoxyphenyl)-6-methoxy-, [1S-(1\u03b1,2\u03b2,3\u03b1)]-", "(1S,2R,3R)-1,2,3,4-Tetrahydro-7-hydroxy-1-(4-hydroxy-3-methoxyphenyl)-6-methoxy-2,3-naphthalenedimethanol", "(+)-Isolariciresinol", "Isolariciresinol, (+)-", "\u03b1-Conidendryl alcohol", "Cyclolariciresinol", "(+)-Cyclolariciresinol"], "SMILES": "C(O)C1C(C=2C(CC1CO)=CC(OC)=C(O)C2)C3=CC(OC)=C(O)C=C3", "physical_data": {"Molecular Weight": "360.40", "Molecular Formula": "C20H24O6", "Melting Point": "112 \u00b0C"}}