{"cas_no": "548-83-4", "cn_name": "\u9ad8\u826f\u59dc\u7d20", "en_name": ["Galangin", "4H-1-Benzopyran-4-one, 3,5,7-trihydroxy-2-phenyl-", "Galangin", "Flavone, 3,5,7-trihydroxy-", "3,5,7-Trihydroxy-2-phenyl-4H-1-benzopyran-4-one", "Norizalpinin", "3,5,7-Trihydroxyflavone", "NSC 407229", "3,5,7-Trihydroxy-2-phenylchromen-4-one", "3,5,7-Trihydroxy-2-phenyl-4H-chromen-4-one"], "SMILES": "O=C1C=2C(OC(=C1O)C3=CC=CC=C3)=CC(O)=CC2O", "physical_data": {"Molecular Weight": "270.24", "Molecular Formula": "C15H10O5", "Melting Point": "214.5 \u00b0C"}}