{"cas_no": "548-93-6", "cn_name": "3-\u7f9f\u57fa-2-\u6c28\u57fa\u82ef\u7532\u9178", "en_name": ["3-Hydroxyanthranilic acid", "Benzoic acid, 2-amino-3-hydroxy-", "Anthranilic acid, 3-hydroxy-", "2-Amino-3-hydroxybenzoic acid", "3-Hydroxyanthranilic acid", "NSC 522891", "MeSH ID: D015095"], "SMILES": "C(O)(=O)C1=C(N)C(O)=CC=C1", "physical_data": {"Molecular Weight": "153.14", "Molecular Formula": "C7H7NO3", "Melting Point": "164 \u00b0C"}}