{"cas_no": "548-08-3", "cn_name": "\u83b2\u78b1", "en_name": ["(-)-Roemerine", "5H-Benzo[g]-1,3-benzodioxolo[6,5,4-de]quinoline, 6,7,7a,8-tetrahydro-7-methyl-, (7aR)-", "6a\u03b2-Aporphine, 1,2-(methylenedioxy)-", "5H-Benzo[g]-1,3-benzodioxolo[6,5,4-de]quinoline, 6,7,7a,8-tetrahydro-7-methyl-, (R)-", "Remerine", "(7aR)-6,7,7a,8-Tetrahydro-7-methyl-5H-benzo[g]-1,3-benzodioxolo[6,5,4-de]quinoline", "(-)-Roemerine", "(-)-Remerine", "Roemerine", "Remerin", "Roemerin", "Remerine (alkaloid)", "l-Roemerine", "1,2-(Methylenedioxy)-6a\u03b2-aporphine", "(-)-Aporheine", "Dehydroxyushinsunine", "(-)-Roemarine", "(R)-Roemerine", "l-Romerine"], "SMILES": "CN1C2C=3C(=C4C(=CC3CC1)OCO4)C=5C(C2)=CC=CC5", "physical_data": {"Molecular Weight": "279.33", "Molecular Formula": "C18H17NO2", "Melting Point": "102-103 \u00b0C"}}