{"cas_no": "548-89-0", "cn_name": "\u77f3\u8033\u9178", "en_name": ["4-Carboxy-3-hydroxy-5-methylphenyl 4-[(2,4-dihydroxy-6-methylbenzoyl)oxy]-2-hydroxy-6-methylbenzoate", "Benzoic acid, 4-[(2,4-dihydroxy-6-methylbenzoyl)oxy]-2-hydroxy-6-methyl-, 4-carboxy-3-hydroxy-5-methylphenyl ester", "\u03b2-Resorcylic acid, 6-methyl-, 4-(6-methyl-\u03b2-resorcylate) 4-(6-methyl-\u03b2-resorcylate)", "\u03b2-Resorcylic acid, 6-methyl-, 4-ester with 6-methyl-\u03b2-resorcylic acid, 4-(6-methyl-\u03b2-resorcylate)", "4-Carboxy-3-hydroxy-5-methylphenyl 4-[(2,4-dihydroxy-6-methylbenzoyl)oxy]-2-hydroxy-6-methylbenzoate", "Gyrophoric acid", "NSC 646006"], "SMILES": "C(OC1=CC(C)=C(C(O)=O)C(O)=C1)(=O)C2=C(C)C=C(OC(=O)C3=C(C)C=C(O)C=C3O)C=C2O", "physical_data": {"Molecular Weight": "468.41", "Molecular Formula": "C24H20O10", "Melting Point": "230 \u00b0C (decomp)"}}