{"cas_no": "548-76-5", "cn_name": "\u91ce\u9e22\u5c3e\u9ec4\u7d20", "en_name": ["Irigenin", "4H-1-Benzopyran-4-one, 5,7-dihydroxy-3-(3-hydroxy-4,5-dimethoxyphenyl)-6-methoxy-", "Isoflavone, 3\u2032,5,7-trihydroxy-4\u2032,5\u2032,6-trimethoxy-", "Irigenin", "5,7-Dihydroxy-3-(3-hydroxy-4,5-dimethoxyphenyl)-6-methoxy-4H-1-benzopyran-4-one"], "SMILES": "O=C1C=2C(=CC(O)=C(OC)C2O)OC=C1C3=CC(OC)=C(OC)C(O)=C3", "physical_data": {"Molecular Weight": "360.31", "Molecular Formula": "C18H16O8", "Melting Point": "185 \u00b0C"}}