{"cas_no": "54812-56-5", "cn_name": "3-\u6c2f-4-\u7532\u57fa\u82ef\u80bc\u76d0\u9178\u76d0", "en_name": ["Hydrazine, (3-chloro-4-methylphenyl)-, hydrochloride (1:1)", "Hydrazine, (3-chloro-4-methylphenyl)-, hydrochloride (1:1)", "Hydrazine, (3-chloro-4-methylphenyl)-, monohydrochloride", "Hydrazine, (3-chloro-p-tolyl)-, hydrochloride", "(3-Chloro-4-methylphenyl)hydrazine hydrochloride", "1-(3-Chloro-4-methylphenyl)hydrazine hydrochloride"], "SMILES": "N(N)C1=CC(Cl)=C(C)C=C1.Cl", "physical_data": {"Molecular Weight": "", "Molecular Formula": "C7H9ClN2.ClH", "Melting Point": "230.5-231 \u00b0C (decomp)"}}