{"cas_no": "54815-13-3", "cn_name": "1,1-\u4e8c\u4e59\u6c27\u57fa\u58ec\u70f7", "en_name": ["1,1-Diethoxynonane", "Nonane, 1,1-diethoxy-", "Nonanal, diethyl acetal", "1,1-Diethoxynonane"], "SMILES": "C(CCCCCCCC)(OCC)OCC", "physical_data": {"Molecular Weight": "216.36", "Molecular Formula": "C13H28O2", "Boiling Point": "130 \u00b0C @ Press: 20 Torr"}}