{"cas_no": "54814-64-1", "cn_name": "5,6-\u4e8c\u6c22-6-\u620a\u57fa-2H-\u5421\u5583-2-\u916e", "en_name": ["(\u00b1)-Massoia lactone", "2H-Pyran-2-one, 5,6-dihydro-6-pentyl-", "2-Decenoic acid, 5-hydroxy-, \u03b4-lactone", "5,6-Dihydro-6-pentyl-2H-pyran-2-one", "(\u00b1)-Massoia lactone", "(\u00b1)-Massoilactone", "(\u00b1)-Massoja decalactone", "2-Decen-5-olide", "6-Pentyl-5,6-dihydropyran-2-one"], "SMILES": "C(CCCC)C1OC(=O)C=CC1", "physical_data": {"Molecular Weight": "168.23", "Molecular Formula": "C10H16O2", "Boiling Point": "85-86 \u00b0C @ Press: 0.07 Torr", "Density": "0.9785 g/cm\u00b3 @ Temp: 21 \u00b0C"}}