{"cas_no": "54827-17-7", "cn_name": "3,3',5,5'-\u56db\u7532\u57fa\u8054\u82ef\u80fa", "en_name": ["3,3\u2032,5,5\u2032-Tetramethylbenzidine", "[1,1\u2032-Biphenyl]-4,4\u2032-diamine, 3,3\u2032,5,5\u2032-tetramethyl-", "Benzidine, 3,3\u2032,5,5\u2032-tetramethyl-", "3,3\u2032,5,5\u2032-Tetramethyl[1,1\u2032-biphenyl]-4,4\u2032-diamine", "3,3\u2032,5,5\u2032-Tetramethylbenzidine", "3,5,3\u2032,5\u2032-Tetramethylbenzidine", "TMB", "BM blue", "TMB substrate", "3,3\u2032,5,5\u2032-Tetramethylbiphenyl-4,4\u2032-diamine", "K-Blue Max", "ColorBurst Blue", "TMB Blotting Plus", "Enhanced K-Blue", "Sure Blue TMB", "K-Blue", "3,3\u2032,5,5\u2032-Tetramethyl-4,4\u2032-diaminobiphenyl", "3,3\u2032,5,5\u2032-Tetramehylbenzidine"], "SMILES": "CC=1C=C(C=C(C)C1N)C2=CC(C)=C(N)C(C)=C2", "physical_data": {"Molecular Weight": "240.34", "Molecular Formula": "C16H20N2", "Melting Point": "168.5 \u00b0C"}}