{"cas_no": "54832-24-5", "cn_name": "5-(4-\u7f9f\u57fa\u82ef\u57fa)\u6d77\u56e0", "en_name": ["5-(4-Hydroxyphenyl)-2,4-imidazolidinedione", "2,4-Imidazolidinedione, 5-(4-hydroxyphenyl)-", "Hydantoin, 5-(p-hydroxyphenyl)-", "5-(4-Hydroxyphenyl)-2,4-imidazolidinedione", "5-(p-Hydroxyphenyl)hydantoin", "5-(4-Hydroxyphenyl)hydantoin", "p-Hydroxyphenylhydantoin", "DL-5-(4-Hydroxyphenyl)hydantoin", "DL-5-p-Hydroxyphenylhydantoin", "(\u00b1)-5-(4-Hydroxyphenyl)hydantoin", "NSC 101474"], "SMILES": "O=C1C(NC(=O)N1)C2=CC=C(O)C=C2", "physical_data": {"Molecular Weight": "192.17", "Molecular Formula": "C9H8N2O3", "Melting Point": "262 \u00b0C"}}