{"cas_no": "54839-24-6", "cn_name": "\u4e59\u9178-1-\u4e59\u6c27\u57fa-2-\u4e19\u9187\u916f", "en_name": ["2-Propanol, 1-ethoxy-, 2-acetate", "2-Propanol, 1-ethoxy-, 2-acetate", "2-Propanol, 1-ethoxy-, acetate", "2-Acetoxy-1-ethoxypropane", "1-Ethoxypropan-2-yl acetate"], "SMILES": "O(C(COCC)C)C(C)=O", "physical_data": {"Molecular Weight": "146.18", "Molecular Formula": "C7H14O3", "Boiling Point": "158-160 \u00b0C", "Density": "0.9461 g/cm\u00b3 @ Temp: 20 \u00b0C"}}