{"cas_no": "54840-15-2", "cn_name": "\u6c27\u7fb0\u9170-4-\u7f9f\u57fa\u82ef\u80fa", "en_name": ["(4-Hydroxyphenyl)carbamic acid tert-butyl ester", "Carbamic acid, N-(4-hydroxyphenyl)-, 1,1-dimethylethyl ester", "Carbamic acid, (4-hydroxyphenyl)-, 1,1-dimethylethyl ester", "4-[(tert-Butoxycarbonyl)amino]phenol", "tert-Butyl p-hydroxycarbanilate", "tert-Butyl 4-hydroxyphenylcarbamate", "tert-Butyl N-(4-hydroxyphenyl)carbamate", "N-(4-Hydroxyphenyl)carbamic acid tert-butyl ester", "(4-Hydroxyphenyl)carbamic acid tert-butyl ester", "N-(tert-Butoxycarbonyl)-4-hydroxyaniline", "4-(N-t-Butoxycarbonylamino)phenol", "1,1-Dimethylethyl (4-hydroxyphenyl)carbamate", "4-Hydroxy-N-(tert-butoxycarbonyl)aniline", "N-Boc-4-hydroxyaniline", "N-Boc-4-aminophenol"], "SMILES": "N(C(OC(C)(C)C)=O)C1=CC=C(O)C=C1", "physical_data": {"Molecular Weight": "209.24", "Molecular Formula": "C11H15NO3", "Melting Point": "146 \u00b0C"}}