{"cas_no": "54857-86-2", "cn_name": "5-(\u5341\u56db\u70f7\u57fa\u6c27)-2-\u7ce0\u9178", "en_name": ["5-(Tetradecyloxy)-2-furoic acid", "2-Furancarboxylic acid, 5-(tetradecyloxy)-", "5-(Tetradecyloxy)-2-furancarboxylic acid", "RMI 14514", "5-(Tetradecyloxy)-2-furoic acid", "RMI 14,514", "MDL 14514"], "SMILES": "O(CCCCCCCCCCCCCC)C=1OC(C(O)=O)=CC1", "physical_data": {"Molecular Weight": "324.45", "Molecular Formula": "C19H32O4", "Melting Point": "117-120 \u00b0C (decomp)"}}