{"cas_no": "5486-55-5", "cn_name": "2,6-\u4e8c\u7532\u6c27\u57fa\u8418", "en_name": ["2,6-Dimethoxynaphthalene", "Naphthalene, 2,6-dimethoxy-", "2,6-Dimethoxynaphthalene", "NSC 93947"], "SMILES": "O(C)C1=CC2=C(C=C(OC)C=C2)C=C1", "physical_data": {"Molecular Weight": "188.22", "Molecular Formula": "C12H12O2", "Melting Point": "153-154 \u00b0C"}}