{"cas_no": "54879-20-8", "cn_name": "2-\u6eb4-3-\u7532\u57fa\u82ef\u80fa", "en_name": ["2-Bromo-3-methylbenzenamine", "Benzenamine, 2-bromo-3-methyl-", "2-Bromo-3-methylbenzenamine", "2-Bromo-m-toluidine", "2-Bromo-3-methylaniline", "2-Bromo-3-methylphenylamine"], "SMILES": "BrC1=C(C)C=CC=C1N", "physical_data": {"Molecular Weight": "186.05", "Molecular Formula": "C7H8BrN", "Boiling Point": "145-148 \u00b0C @ Press: 45 Torr"}}