{"cas_no": "54881-13-9", "cn_name": "1-\u82c4\u57fa-3-\u7f9f\u57fa\u6c2e\u6742\u73af\u4e01\u70f7", "en_name": ["N-Benzyl-3-hydroxyazetidine", "3-Azetidinol, 1-(phenylmethyl)-", "1-(Phenylmethyl)-3-azetidinol", "1-Benzyl-3-azetidinol", "N-Benzyl-3-hydroxyazetidine", "1-Benzyl-3-hydroxyazetidine"], "SMILES": "C(N1CC(O)C1)C2=CC=CC=C2", "physical_data": {"Molecular Weight": "163.22", "Molecular Formula": "C10H13NO", "Melting Point": "64-65 \u00b0C"}}