{"cas_no": "54889-48-4", "cn_name": "1,1-\u4e8c\u4e59\u6c27\u57fa\u8f9b\u70f7", "en_name": ["1,1-Diethoxyoctane", "Octane, 1,1-diethoxy-", "Octanal, diethyl acetal", "1,1-Diethoxyoctane", "NSC 408319"], "SMILES": "C(CCCCCCC)(OCC)OCC", "physical_data": {"Molecular Weight": "202.33", "Molecular Formula": "C12H26O2", "Boiling Point": "202-205 \u00b0C", "Density": "0.832 g/cm\u00b3 @ Temp: 19 \u00b0C"}}