{"cas_no": "5488-16-4", "cn_name": "2,5-\u4e8c\u7f9f\u57fa-1,4-\u82ef\u4e8c\u4e59\u9178", "en_name": ["2,5-Dihydroxy-1,4-benzenediacetic acid", "1,4-Benzenediacetic acid, 2,5-dihydroxy-", "p-Benzenediacetic acid, 2,5-dihydroxy-", "2,5-Dihydroxy-1,4-benzenediacetic acid", "NSC 30144", "2-2\u2032-(2,5-Dihydroxy-1,4-phenylene)diacetic acid", "2-[4-(Carboxymethyl)-2,5-dihydroxyphenyl]acetic acid"], "SMILES": "C(C(O)=O)C1=C(O)C=C(CC(O)=O)C(O)=C1", "physical_data": {"Molecular Weight": "226.18", "Molecular Formula": "C10H10O6", "Melting Point": "233 \u00b0C"}}