{"cas_no": "54897-62-0", "cn_name": "N-\u4e59\u57fa-N-(4-\u7f9f\u4e01\u57fa)\u4e9a\u785d\u80fa", "en_name": ["4-(Ethylnitrosoamino)-1-butanol", "1-Butanol, 4-(ethylnitrosoamino)-", "4-(Ethylnitrosoamino)-1-butanol", "N-Ethyl-N-(4-hydroxybutyl)nitrosoamine", "N-Ethyl-N-(4-hydroxybutyl)nitrosamine", "4-(N-Ethyl-N-nitrosoamino)-1-butanol"], "SMILES": "N(CCCCO)(CC)N=O", "physical_data": {"Molecular Weight": "146.19", "Molecular Formula": "C6H14N2O2", "Boiling Point": "139-140 \u00b0C @ Press: 4 Torr"}}