{"cas_no": "549-18-8", "cn_name": "\u76d0\u9178\u963f\u7c73\u66ff\u6797", "en_name": ["Amitriptyline hydrochloride", "1-Propanamine, 3-(10,11-dihydro-5H-dibenzo[a,d]cyclohepten-5-ylidene)-N,N-dimethyl-, hydrochloride (1:1)", "5H-Dibenzo[a,d]cycloheptene-\u03945,\u03b3-propylamine, 10,11-dihydro-N,N-dimethyl-, hydrochloride", "1-Propanamine, 3-(10,11-dihydro-5H-dibenzo[a,d]cyclohepten-5-ylidene)-N,N-dimethyl-, hydrochloride", "Amitriptyline hydrochloride", "10,11-Dihydro-N,N-dimethyl-5H-dibenzo[a,d]cycloheptene-\u03945,\u03b3-propylamine hydrochloride", "5-(3-Dimethylaminopropylidene)dibenzo[a,d][1,4]cycloheptadiene hydrochloride", "Tryptizol", "Saroten", "Damilen hydrochloride", "Amitriptyline chloride", "Lentizol", "Laroxyl", "Sarotex", "NIH 10794", "Elavil", "Amineurin", "Uxen", "Noriline", "Triptizol", "Domical", "Miketorin", "Amilent", "Endep", "Amiprin", "Apo-Amitriptyline", "Larozyl", "Amicen", "Saroten Retard", "Pinsaun", "Amitrip", "Tryptine", "Etravil", "Amyline", "Anapsique", "Tryptal", "Trynol", "Tridep", "Amilit", "Amiplin", "Novoprotect", "Elatrol", "Tripta", "Trepiline", "Redomex", "Elatrolet", "Vanatrip", "Syneudon", "Trytomer", "Pinsanu", "Teperin", "Enafon", "Adepril", "Tryptanol", "Lantron", "Amyzol", "Sarotena", "Euplit", "Amitril", "Ro 4-1575", "Deprex", "Sylvemid", "Amitid", "Amil 25", "ADT", "[3-(10,11-Dihydro-dibenzo[a,d]cyclohepten-5-ylidene)-propyl]-dimethyl-amine", "hydrochloride"], "SMILES": "C(CCN(C)C)=C1C=2C(CCC=3C1=CC=CC3)=CC=CC2.Cl", "physical_data": {"Molecular Weight": "", "Molecular Formula": "C20H23N.ClH", "Melting Point": "196-197 \u00b0C"}}