{"cas_no": "549-23-5", "cn_name": "\u6838\u4e1b\u9752\u9709\u7d20", "en_name": ["Sclerotiorin", "6H-2-Benzopyran-6,8(7H)-dione, 7-(acetyloxy)-5-chloro-3-[(1E,3E,5S)-3,5-dimethyl-1,3-heptadien-1-yl]-7-methyl-, (7R)-", "6H-2-Benzopyran-6,8(7H)-dione, 5-chloro-3-(3,5-dimethyl-1,3-heptadienyl)-7-hydroxy-7-methyl-, acetate", "Sclerotiorin", "6H-2-Benzopyran-6,8(7H)-dione, 7-(acetyloxy)-5-chloro-3-(3,5-dimethyl-1,3-heptadienyl)-7-methyl-, [R-[R*,S*-(E,E)]]-", "6H-2-Benzopyran-6,8(7H)-dione, 7-(acetyloxy)-5-chloro-3-[(1E,3E,5S)-3,5-dimethyl-1,3-heptadienyl]-7-methyl-, (7R)-", "(7R)-7-(Acetyloxy)-5-chloro-3-[(1E,3E,5S)-3,5-dimethyl-1,3-heptadien-1-yl]-7-methyl-6H-2-benzopyran-6,8(7H)-dione", "(+)-Sclerotiorin"], "SMILES": "O=C1C=2C(=C(Cl)C(=O)C1(OC(C)=O)C)C=C(C=CC(=CC(CC)C)C)OC2", "physical_data": {"Molecular Weight": "390.86", "Molecular Formula": "C21H23ClO5", "Melting Point": "206-207 \u00b0C"}}