{"cas_no": "549-84-8", "cn_name": "\u0392-\u80b2\u4ea8\u5bbe", "en_name": ["\u03b2-Yohimbine", "Yohimban-16-carboxylic acid, 17-hydroxy-, methyl ester, (16\u03b1,17\u03b2)-", "\u03b2-Yohimbine", "Yohimban-16\u03b1-carboxylic acid, 17\u03b2-hydroxy-, methyl ester", "Benz[g]indolo[2,3-a]quinolizine, yohimban-16-carboxylic acid deriv.", "Amsonine", "Amsonin", "\u03b2-Yohimbin", "(-)-\u03b2-Yohimbine", "NSC 93133"], "SMILES": "C(OC)(=O)C1C2CC3C4=C(C=5C(N4)=CC=CC5)CCN3CC2CCC1O", "physical_data": {"Molecular Weight": "354.44", "Molecular Formula": "C21H26N2O3", "Melting Point": "236-237 \u00b0C"}}