{"cas_no": "549-32-6", "cn_name": "\u69f2\u76ae\u7d20-3-D-\u6728\u7cd6\u7519", "en_name": ["Reynoutrin", "4H-1-Benzopyran-4-one, 2-(3,4-dihydroxyphenyl)-5,7-dihydroxy-3-(\u03b2-D-xylopyranosyloxy)-", "Reynoutrin", "2-(3,4-Dihydroxyphenyl)-5,7-dihydroxy-3-(\u03b2-D-xylopyranosyloxy)-4H-1-benzopyran-4-one", "Reinutrin", "3,3\u2032,4\u2032,5,7-Pentahydroxyflavone 3\u03b2-D-xylopyranoside", "Quercetin 3-\u03b2-D-xylopyranoside", "Quercetin-3-O-\u03b2-D-xylopyranoside", "Quercetin 3-O-\u03b2-xyloside", "Quercetin 3-O-\u03b2-D-xyloside", "Quercetin 3-O-\u03b2-xylopyranoside"], "SMILES": "O(C1=C(OC=2C(C1=O)=C(O)C=C(O)C2)C3=CC(O)=C(O)C=C3)C4C(O)C(O)C(O)CO4", "physical_data": {"Molecular Weight": "434.35", "Molecular Formula": "C20H18O11", "Melting Point": "201-203 \u00b0C"}}