{"cas_no": "549-21-3", "cn_name": "\u6c27\u5316\u5c0f\u6a97\u78b1", "en_name": ["Oxyberberine", "8H-Benzo[g]-1,3-benzodioxolo[5,6-a]quinolizin-8-one, 5,6-dihydro-9,10-dimethoxy-", "Berbin-8-one, 13,13a-didehydro-9,10-dimethoxy-2,3-(methylenedioxy)-", "Oxyberberine", "5,6-Dihydro-9,10-dimethoxy-8H-benzo[g]-1,3-benzodioxolo[5,6-a]quinolizin-8-one", "Berlambine", "8-Oxyberberine", "8-Oxoberberine", "JKL 1073A", "NSC 93138", "Berberin-8-one"], "SMILES": "O=C1N2C(C=3C(=CC4=C(C3)OCO4)CC2)=CC=5C1=C(OC)C(OC)=CC5", "physical_data": {"Molecular Weight": "351.35", "Molecular Formula": "C20H17NO5", "Melting Point": "200-200.5 \u00b0C"}}