{"cas_no": "54903-86-5", "cn_name": "2,6-\u4e8c\u6c28\u57fa-3-\u6eb4\u5421\u5576", "en_name": ["3-Bromo-2,6-pyridinediamine", "2,6-Pyridinediamine, 3-bromo-", "3-Bromo-2,6-pyridinediamine", "3-Bromo-2,6-diaminopyridine", "2,6-Diamino-3-bromopyridine", "3-Bromopyridine-2,6-diamine"], "SMILES": "NC1=C(Br)C=CC(N)=N1", "physical_data": {"Molecular Weight": "188.03", "Molecular Formula": "C5H6BrN3", "Melting Point": "171-172 \u00b0C"}}