{"cas_no": "54903-09-2", "cn_name": "6-\u4e59\u9170\u57fa-2(3H)-\u82ef\u5511\u916e", "en_name": ["6-Acetyl-2(3H)-benzoxazolone", "2(3H)-Benzoxazolone, 6-acetyl-", "6-Acetyl-2(3H)-benzoxazolone", "6-Acetyl-2-benzoxazolinone", "6-Acetyl-3H-benzoxazol-2-one", "6-Acetylbenzo[d]oxazol-2(3H)-one", "1-(2-Hydroxy-1,3-benzoxazol-6-yl)ethan-1-one"], "SMILES": "C(C)(=O)C=1C=C2C(=CC1)NC(=O)O2", "physical_data": {"Molecular Weight": "177.16", "Molecular Formula": "C9H7NO3", "Melting Point": "227-228 \u00b0C"}}