{"cas_no": "54914-85-1", "cn_name": "1,2-\u53cc(3-\u7532\u57fa\u82ef\u6c27\u57fa)\u4e59\u70f7", "en_name": ["1,2-Bis(3\u2032-methylphenoxy)ethane", "Benzene, 1,1\u2032-[1,2-ethanediylbis(oxy)]bis[3-methyl-", "1,1\u2032-[1,2-Ethanediylbis(oxy)]bis[3-methylbenzene]", "1,2-Di(3-methylphenoxy)ethane", "1,2-Bis(3-methylphenoxy)ethane", "1,2-Bis(m-tolyloxy)ethane", "1,2-Di(m-tolyloxy)ethane", "1,2-Bis(3\u2032-methylphenoxy)ethane", "Ethylene glycol bis(m-tolyl ether)", "NSC 117525", "KS 232", "1-Methyl-3-[2-(3-methylphenoxy)ethoxy]benzene", "1,1\u2032-[ethane-1,2-diylbis(oxy)]bis(3-methylbenzene)"], "SMILES": "O(CCOC1=CC(C)=CC=C1)C2=CC(C)=CC=C2", "physical_data": {"Molecular Weight": "242.31", "Molecular Formula": "C16H18O2", "Melting Point": "98 \u00b0C"}}