{"cas_no": "54910-89-3", "cn_name": "\u6c1f\u897f\u6c40", "en_name": ["Fluoxetine", "Benzenepropanamine, N-methyl-\u03b3-[4-(trifluoromethyl)phenoxy]-", "Benzenepropanamine, N-methyl-\u03b3-[4-(trifluoromethyl)phenoxy]-, (\u00b1)-", "N-Methyl-\u03b3-[4-(trifluoromethyl)phenoxy]benzenepropanamine", "Fluoxetine", "dl-3-(p-Trifluoromethylphenoxy)-N-methyl-3-phenylpropylamine", "(\u00b1)-Fluoxetine", "(\u00b1)-N-Methyl-3-phenyl-3-[4-(trifluoromethyl)phenoxy]propylamine", "3-(p-Trifluoromethylphenoxy)-N-methyl-3-phenylpropylamine", "Deprex", "Fluval", "NSC 283480", "N-Methyl-3-(p-trifluoromethylphenoxy)-3-phenylpropylamine", "Nikomed", "Fluoxin", "Fluoxetin Ratiopharm", "Symbiax", "Seronil", "N-Methyl-3-[4-(trifluoromethyl)phenoxy]-3-phenylpropanamine", "Daforin", "MeSH ID: D005473"], "SMILES": "C(OC1=CC=C(C(F)(F)F)C=C1)(CCNC)C2=CC=CC=C2", "physical_data": {"Molecular Weight": "309.33", "Molecular Formula": "C17H18F3NO", "Melting Point": "158 \u00b0C"}}