{"cas_no": "54928-05-1", "cn_name": "\u7f8e\u5546\u9646\u9178", "en_name": ["Phytolaccagenic acid", "Olean-12-ene-28,29-dioic acid, 3,23-dihydroxy-, 29-methyl ester, (3\u03b2,4\u03b1,20\u03b2)-", "Phytolaccinic acid", "Phytolaccagenic acid"], "SMILES": "C(O)(=O)C12C(C=3C(C)(C4(C)C(CC3)C5(C)C(CC4)C(CO)(C)C(O)CC5)CC1)CC(C(OC)=O)(C)CC2", "physical_data": {"Molecular Weight": "516.71", "Molecular Formula": "C31H48O6", "Melting Point": "143-146 \u00b0C"}}