{"cas_no": "54925-64-3", "cn_name": "\u53d4\u4e01\u57fa\u4e8c\u7532\u57fa\u54c7\u70f7\u57fa\u54aa\u5511", "en_name": ["1-[(1,1-Dimethylethyl)dimethylsilyl]-1H-imidazole", "1H-Imidazole, 1-[(1,1-dimethylethyl)dimethylsilyl]-", "1-[(1,1-Dimethylethyl)dimethylsilyl]-1H-imidazole", "N-(tert-Butyldimethylsilyl)imidazole", "1-(tert-Butyldimethylsilyl)imidazole", "tert-Butyldimethylsilylimidazole", "1-tert-Butyldimethylsilyl-1H-imidazole"], "SMILES": "[Si](C(C)(C)C)(C)(C)N1C=CN=C1", "physical_data": {"Molecular Weight": "182.34", "Molecular Formula": "C9H18N2Si", "Boiling Point": "53 \u00b0C @ Press: 0.2 Torr", "Density": "0.939 g/cm\u00b3"}}