{"cas_no": "54932-72-8", "cn_name": "5-\u6eb4-2-\u6c2f\u7532\u82ef", "en_name": ["5-Bromo-2-chlorotoluene", "Benzene, 4-bromo-1-chloro-2-methyl-", "Toluene, 5-bromo-2-chloro-", "4-Bromo-1-chloro-2-methylbenzene", "4-Chloro-3-methylbromobenzene", "5-Bromo-2-chlorotoluene", "2-Chloro-5-bromotoluene", "5-Bromo-2-chloro-1-methylbenzene"], "SMILES": "CC1=C(Cl)C=CC(Br)=C1", "physical_data": {"Molecular Weight": "205.48", "Molecular Formula": "C7H6BrCl", "Boiling Point": "90-93 \u00b0C"}}