{"cas_no": "54947-74-9", "cn_name": "4-\u7532\u57fa\u8f9b\u9178", "en_name": ["4-Methyloctanoic acid", "Octanoic acid, 4-methyl-", "4-Methyloctanoic acid", "4-Methylcaprylic acid", "Hircinoic acid"], "SMILES": "C(CCC(O)=O)(CCCC)C", "physical_data": {"Molecular Weight": "158.24", "Molecular Formula": "C9H18O2", "Boiling Point": "140-142 \u00b0C @ Press: 10 Torr", "Melting Point": "110.5-111.5 \u00b0C", "Density": "0.091518 g/cm\u00b3 @ Temp: 20 \u00b0C"}}