{"cas_no": "54944-38-6", "cn_name": "\u5927\u9ec4\u915a-1-O-\u0392-\u9f99\u80c6\u4e8c\u7cd6\u82f7", "en_name": ["1-[(6-O-\u03b2-D-Glucopyranosyl-\u03b2-D-glucopyranosyl)oxy]-8-hydroxy-3-methyl-9,10-anthracenedione", "9,10-Anthracenedione, 1-[(6-O-\u03b2-D-glucopyranosyl-\u03b2-D-glucopyranosyl)oxy]-8-hydroxy-3-methyl-", "1-[(6-O-\u03b2-D-Glucopyranosyl-\u03b2-D-glucopyranosyl)oxy]-8-hydroxy-3-methyl-9,10-anthracenedione", "Chrysophanol 1-O-\u03b2-gentiobioside"], "SMILES": "O(C1=C2C(C(=O)C=3C(C2=O)=C(O)C=CC3)=CC(C)=C1)C4OC(COC5OC(CO)C(O)C(O)C5O)C(O)C(O)C4O", "physical_data": {"Molecular Weight": "578.52", "Molecular Formula": "C27H30O14", "Melting Point": "275-277 \u00b0C"}}