{"cas_no": "54950-20-8", "cn_name": "\u70df\u9170\u4e59\u9178\u7532\u916f", "en_name": ["Methyl \u03b2-oxo-3-pyridinepropanoate", "3-Pyridinepropanoic acid, \u03b2-oxo-, methyl ester", "3-Pyridinepropionic acid, \u03b2-oxo-, methyl ester", "Methyl \u03b2-oxo-3-pyridinepropanoate", "Methyl nicotinoylacetate", "3-Oxo-3-pyridin-3-ylpropionic acid methyl ester", "Methyl 3-oxo-3-(3-pyridinyl)propanoate", "3-Oxo-3-(pyridin-3-yl)propanoic acid methyl ester", "Methyl 3-oxo-3-(3-pyridyl)propanoate"], "SMILES": "C(CC(OC)=O)(=O)C=1C=CC=NC1", "physical_data": {"Molecular Weight": "179.17", "Molecular Formula": "C9H9NO3", "Boiling Point": "128-129 \u00b0C @ Press: 1 Torr", "Melting Point": "42 \u00b0C"}}