{"cas_no": "5495-84-1", "cn_name": "2-\u5f02\u4e19\u57fa\u786b\u6742\u84bd\u916e", "en_name": ["2-Isopropylthioxanthone", "9H-Thioxanthen-9-one, 2-(1-methylethyl)-", "Thioxanthen-9-one, 2-isopropyl-", "2-(1-Methylethyl)-9H-thioxanthen-9-one", "2-Isopropylthioxanthone", "Quantacure 597", "Quantacure 659", "Quantacure ITX", "2-Isopropylthioxanthen-9-one", "2-ITX", "Speedcure ITX", "Photocure ITX-P", "ITX", "Omnirad ITX", "JRCure ITX", "2-Isopropyl-9H-thioxanthen-9-one", "2-Isopropylthioxanthenone", "GR-ITX", "PI-ITX", "Speedcure 2ITX", "Gencure ITX", "2-Propan-2-ylthioxanthen-9-one", "Lunacure 2ITX"], "SMILES": "O=C1C=2C(SC=3C1=CC=CC3)=CC=C(C(C)C)C2", "physical_data": {"Molecular Weight": "254.35", "Molecular Formula": "C16H14OS", "Melting Point": "77.5 \u00b0C"}}