{"cas_no": "5496-10-6", "cn_name": "1-\u6c28\u57fa\u73af\u5df1\u70f7-1-\u6c30\u57fa", "en_name": ["1-Aminocyclohexanecarbonitrile", "Cyclohexanecarbonitrile, 1-amino-", "1-Aminocyclohexanecarbonitrile", "1-Amino-1-cyanocyclohexane", "1-Cyanocyclohexylamine", "1-Cyano-1-aminocyclohexane", "1-Aminocyclohexane-1-carbonitrile"], "SMILES": "C(#N)C1(N)CCCCC1", "physical_data": {"Molecular Weight": "124.18", "Molecular Formula": "C7H12N2", "Boiling Point": "81-83 \u00b0C @ Press: 10 Torr", "Melting Point": "32 \u00b0C"}}