{"cas_no": "54965-24-1", "cn_name": "\u67b8\u6a7c\u9178\u4ed6\u83ab\u6614\u82ac", "en_name": ["Tamoxifen citrate", "Ethanamine, 2-[4-[(1Z)-1,2-diphenyl-1-buten-1-yl]phenoxy]-N,N-dimethyl-, 2-hydroxy-1,2,3-propanetricarboxylate (1:1)", "Ethanamine, 2-[4-(1,2-diphenyl-1-butenyl)phenoxy]-N,N-dimethyl-, (Z)-, 2-hydroxy-1,2,3-propanetricarboxylate (1:1)", "Ethanamine, 2-[4-[(1Z)-1,2-diphenyl-1-butenyl]phenoxy]-N,N-dimethyl-, 2-hydroxy-1,2,3-propanetricarboxylate (1:1)", "Tamoxifen citrate", "Nolvadex", "ICI 46474", "Tamoplex", "Z-Tamoxifen citrate", "Tamox-Puren", "Zemide", "Kessar", "Tamofen", "TMX", "Tomaxasta", "Noltam", "Nourytam", "I.C.I.46474 citrate", "Istubal", "Valodex", "Soltamox", "Genox"], "SMILES": "C(CC(O)=O)(CC(O)=O)(C(O)=O)O.C(=C(CC)C1=CC=CC=C1)(C2=CC=C(OCCN(C)C)C=C2)C3=CC=CC=C3", "physical_data": {"Molecular Weight": "", "Molecular Formula": "C26H29NO.C6H8O7", "Melting Point": "140-142 \u00b0C"}}