{"cas_no": "54965-21-8", "cn_name": "\u963f\u82ef\u8fbe\u5511", "en_name": ["Albendazole", "Carbamic acid, N-[6-(propylthio)-1H-benzimidazol-2-yl]-, methyl ester", "Carbamic acid, [5-(propylthio)-1H-benzimidazol-2-yl]-, methyl ester", "Methyl 5-propylthio-2-benzimidazolecarbamate", "Albendazole", "SKF 62979", "Valbazen", "Vermitan", "Alzental", "Albamelin", "Zentel", "NSC 220008", "Albenza", "Haojing", "Eskazole", "Exiptol", "Albendol", "Alminth", "Tobend", "Atasol", "Andazol", "Vermizole", "Bruzol", "Helminsols", "Loveral", "Albenzil", "Lurdex", "Vermisen", "Ashialben", "Vetalben", "Baxen", "Aldifal", "Alben", "Alvet", "(6-Propylsulfanyl-1H-benzoimidazol-2-yl)-carbamic acid methyl ester", "(5-Propylsulfanyl-1,3-dihydro-benzoimidazol-2-ylidene)-carbamic acid methyl ester", "MeSH ID: D015766"], "SMILES": "N(C(OC)=O)C=1NC=2C(N1)=CC(SCCC)=CC2", "physical_data": {"Molecular Weight": "265.33", "Molecular Formula": "C12H15N3O2S", "Melting Point": "209 \u00b0C"}}