{"cas_no": "5497-76-7", "cn_name": "L-\u812f\u6c28\u9178\u53d4\u4e01\u916f\u76d0\u9178\u76d0", "en_name": ["L-Proline, 1,1-dimethylethyl ester, hydrochloride (1:1)", "L-Proline, 1,1-dimethylethyl ester, hydrochloride (1:1)", "Proline, tert-butyl ester, hydrochloride, L-", "L-Proline, 1,1-dimethylethyl ester, hydrochloride", "Proline, tert-butyl ester, hydrochloride", "tert-Butyl L-prolinate hydrochloride", "(S)-Proline tert-butyl ester hydrochloride", "L-Proline tert-butyl ester hydrochloride", "tert-Butyl (S)-pyrrolidine-2-carboxylate hydrochloride"], "SMILES": "C(OC(C)(C)C)(=O)C1CCCN1.Cl", "physical_data": {"Molecular Weight": "", "Molecular Formula": "C9H17NO2.ClH", "Melting Point": "109-111 \u00b0C"}}