{"cas_no": "5497-67-6", "cn_name": "2,2-\u4e8c\u7532\u57fa-4-\u620a\u70ef\u919b", "en_name": ["2,2-Dimethyl-4-pentenal", "4-Pentenal, 2,2-dimethyl-", "2,2-Dimethyl-4-pentenal", "2,2-Dimethyl-4-penten-1-al", "NSC 14676"], "SMILES": "C(CC=C)(C=O)(C)C", "physical_data": {"Molecular Weight": "112.17", "Molecular Formula": "C7H12O", "Boiling Point": "124-126 \u00b0C"}}