{"cas_no": "54982-83-1", "cn_name": "1,4-\u4e8c\u6c27\u6742\u73af\u5341\u516d\u70f7-5,16-\u4e8c\u916e", "en_name": ["Ethylene dodecanedioate", "1,4-Dioxacyclohexadecane-5,16-dione", "Ethylene dodecanedioate", "Cyclic ethylene dodecanedioate", "Musk C-14", "Musk 144", "Zenolide", "Arova N"], "SMILES": "O=C1OCCOC(=O)CCCCCCCCCC1", "physical_data": {"Molecular Weight": "256.34", "Molecular Formula": "C14H24O4", "Boiling Point": "135 \u00b0C @ Press: 0.1 Torr"}}