{"cas_no": "54998-00-4", "cn_name": "4-(3-\u6c28\u57fa-4-\u785d\u57fa\u82ef\u57fa)\u5417\u5549", "en_name": ["5-Morpholino-2-nitroaniline", "Benzenamine, 5-(4-morpholinyl)-2-nitro-", "5-(4-Morpholinyl)-2-nitrobenzenamine", "5-Morpholino-2-nitroaniline", "N-(3-Amino-4-nitrophenyl)morpholine", "5-(Morpholin-4-yl)-2-nitrophenylamine", "AMA 30", "5-(4-Morpholinyl)-2-nitroaniline", "4-(3-Amino-4-nitrophenyl)morpholine", "5-Morpholino-2-nitrobenzenamine"], "SMILES": "NC=1C=C(C=CC1N(=O)=O)N2CCOCC2", "physical_data": {"Molecular Weight": "223.23", "Molecular Formula": "C10H13N3O3", "Melting Point": "187.5 \u00b0C"}}