{"cas_no": "55-16-3", "cn_name": "\u83a8\u83ea\u78b1", "en_name": ["Scopolamine hydrochloride", "Benzeneacetic acid, \u03b1-(hydroxymethyl)-, (1\u03b1,2\u03b2,4\u03b2,5\u03b1,7\u03b2)-9-methyl-3-oxa-9-azatricyclo[3.3.1.02,4]non-7-yl ester, hydrochloride (1:1), (\u03b1S)-", "1\u03b1H,5\u03b1H-Tropan-3\u03b1-ol, 6\u03b2,7\u03b2-epoxy-, (-)-tropate (ester), hydrochloride", "Benzeneacetic acid, \u03b1-(hydroxymethyl)-, 9-methyl-3-oxa-9-azatricyclo[3.3.1.02,4]non-7-yl ester, hydrochloride, [7(S)-(1\u03b1,2\u03b2,4\u03b2,5\u03b1,7\u03b2)]-", "Benzeneacetic acid, \u03b1-(hydroxymethyl)-, (1\u03b1,2\u03b2,4\u03b2,5\u03b1,7\u03b2)-9-methyl-3-oxa-9-azatricyclo[3.3.1.02,4]non-7-yl ester, hydrochloride, (\u03b1S)-", "3-Oxa-9-azatricyclo[3.3.1.02,4]nonane, benzeneacetic acid deriv.", "Hyoscine hydrochloride", "Scopolamine hydrochloride", "(-)-Scopolamine hydrochloride"], "SMILES": "CN1C2C3C(O3)C1CC(OC(C(CO)C4=CC=CC=C4)=O)C2.Cl", "physical_data": {"Molecular Weight": "", "Molecular Formula": "C17H21NO4.ClH", "Melting Point": "190-192 \u00b0C"}}