{"cas_no": "55-10-7", "cn_name": "4\uff0d\u7f9f\u57fa\uff0d3\uff0d\u7532\u6c27\u57fa\u82e6\u674f\u4ec1\u9178", "en_name": ["Vanillylmandelic acid", "Benzeneacetic acid, \u03b1,4-dihydroxy-3-methoxy-", "Mandelic acid, 4-hydroxy-3-methoxy-", "\u03b1,4-Dihydroxy-3-methoxybenzeneacetic acid", "HMMA", "4-Hydroxy-3-methoxymandelic acid", "Vanillomandelic acid", "Vanillylmandelic acid", "Vanilmandelic acid", "VMA", "Vanillinmandelic acid", "(4-Hydroxy-3-methoxyphenyl)glycolic acid", "3-Methoxy-4-hydroxyphenylhydroxyacetic acid", "4\u2032-Hydroxy-3\u2032-methoxymandelic acid", "DL-3-Methoxy-4-hydroxymandelic acid", "DL-Vanillylmandelic acid", "4-Hydroxy-3-methoxy-DL-mandelic acid", "(\u00b1)-3-Methoxy-4-hydroxymandelic acid", "DL-4-Hydroxy-3-methoxymandelic acid", "dl-4-Hydroxy-3-methoxymandelic acid (dl-vanillylmandelic acid)", "(\u00b1)-4-Hydroxy-3-methoxymandelic acid", "DL-Vanillomandelic acid", "dl-Vanillomandelic acid", "(\u00b1)-Vanilmandelic acid", "Vanillyl-dl-mandelic acid", "2-Hydroxy-2-(4-hydroxy-3-methoxyphenyl)acetic acid", "2-(4\u2032-Hydroxy-3\u2032-methoxyphenyl)-2-hydroxyethanoic acid", "MeSH ID: D014642"], "SMILES": "C(C(O)=O)(O)C1=CC(OC)=C(O)C=C1", "physical_data": {"Molecular Weight": "198.17", "Molecular Formula": "C9H10O5", "Melting Point": "132 \u00b0C (decomp)"}}