{"cas_no": "55-18-5", "cn_name": "N-\u4e9a\u785d\u57fa\u4e8c\u4e59\u80fa", "en_name": ["Diethylnitrosamine", "Ethanamine, N-ethyl-N-nitroso-", "Diethylamine, N-nitroso-", "N-Ethyl-N-nitrosoethanamine", "DENA", "Diethylnitrosamine", "Diethylnitrosoamine", "Nitrosodiethylamine", "N-Nitrosodiethylamine", "Diethylnitrosamide", "N,N-Diethylnitrosoamine", "N-Nitroso-N,N-diethylamine", "DEN", "DEN (mutagen)", "NDEA", "NSC 132", "MeSH ID: D004052"], "SMILES": "N(CC)(CC)N=O", "physical_data": {"Molecular Weight": "102.14", "Molecular Formula": "C4H10N2O", "Boiling Point": "175-177 \u00b0C", "Melting Point": "&lt;25 \u00b0C", "Density": "0.9422 g/cm\u00b3 @ Temp: 20 \u00b0C"}}