{"cas_no": "55-21-0", "cn_name": "\u82ef\u7532\u9170\u80fa", "en_name": ["Benzamide", "Benzamide", "Benzoic acid amide", "Phenylcarboxamide", "Benzenecarboxamide", "Phenylamide", "Benzoylamine", "NSC 3114"], "SMILES": "C(N)(=O)C1=CC=CC=C1", "physical_data": {"Molecular Weight": "121.14", "Molecular Formula": "C7H7NO", "Boiling Point": "288 \u00b0C", "Melting Point": "130 \u00b0C", "Density": "1.341 g/cm\u00b3"}}