{"cas_no": "55-22-1", "cn_name": "\u5f02\u70df\u9178", "en_name": ["4-Pyridinecarboxylic acid", "4-Pyridinecarboxylic acid", "Isonicotinic acid", "\u03b3-Picolinic acid", "4-Carboxypyridine", "4-Picolinic acid", "p-Pyridinecarboxylic acid", "\u03b3-Pyridinecarboxylic acid", "4-Pyridylcarboxylic acid", "NSC 1483"], "SMILES": "C(O)(=O)C=1C=CN=CC1", "physical_data": {"Molecular Weight": "123.11", "Molecular Formula": "C6H5NO2", "Boiling Point": "119-120 \u00b0C @ Press: 1 Torr", "Melting Point": "315 \u00b0C", "Density": "1.47 g/cm\u00b3"}}