{"cas_no": "55-27-6", "cn_name": "\u53bb\u7532\u80be\u4e0a\u817a\u7d20\u76d0\u9178\u76d0", "en_name": ["(\u00b1)-Norepinephrine hydrochloride", "1,2-Benzenediol, 4-(2-amino-1-hydroxyethyl)-, hydrochloride (1:1)", "Benzyl alcohol, \u03b1-(aminomethyl)-3,4-dihydroxy-, hydrochloride, (\u00b1)-", "1,2-Benzenediol, 4-(2-amino-1-hydroxyethyl)-, hydrochloride, (\u00b1)-", "1,2-Benzenediol, 4-(2-amino-1-hydroxyethyl)-, hydrochloride", "(\u00b1)-Noradrenaline hydrochloride", "dl-Norepinephrine hydrochloride", "dl-Noradrenaline hydrochloride", "DL-Arterenol hydrochloride", "(\u00b1)-Norepinephrine hydrochloride", "DL-Norepinephrine hydrochloride", "NSC 7930"], "SMILES": "C(CN)(O)C1=CC(O)=C(O)C=C1.Cl", "physical_data": {"Molecular Weight": "", "Molecular Formula": "C8H11NO3.ClH", "Melting Point": "292 \u00b0C (decomp)"}}