{"cas_no": "55-38-9", "cn_name": "\u500d\u786b\u78f7", "en_name": ["Fenthion", "Phosphorothioic acid, O,O-dimethyl O-[3-methyl-4-(methylthio)phenyl] ester", "Phosphorothioic acid, O,O-dimethyl O-[4-(methylthio)-m-tolyl] ester", "Phosphorothioic acid, dimethyl [4-(methylthio)-m-tolyl] ester", "Phosphorothioic acid (H3PO3S), O,O-dimethyl O-4-(methylthio)-m-tolyl ester", "m-Cresol, 4-(methylthio)-, O-ester with O,O-di-Me phosphorothioate", "OMS 2", "S 1752", "Bayer 9007", "B 29493", "Baytex", "O,O-Dimethyl O-4-(methylmercapto)-3-methylphenyl phosphorothioate", "O,O-Dimethyl O-4-(methylmercapto)-3-methylphenyl thiophosphate", "O,O-Dimethyl O-(3-methyl-4-methylmercaptophenyl) phosphorothioate", "O,O-Dimethyl O-(4-methylthio-3-methylphenyl) phosphorothioate", "Entex", "Fenthion", "Mercaptophos", "Queletox", "BAY 29493", "O,O-Dimethyl O-(3-methyl-4-methylthiophenyl) thiophosphate", "Tiguvon", "Lebaycid", "O,O-Dimethyl O-[4-(methylthio)-m-tolyl] phosphorothioate", "Phenthion", "O,O-Dimethyl O-[4-(methylthio)-m-tolyl] thiophosphate", "ENT 25540", "MPP", "Talodex", "Baycid", "MPP (pesticide)", "Sulfidophos", "Dimethyl 4-methylthio-m-tolyl phosphorothioate", "Mercaptofos", "Spotton", "Fenthion-methyl", "O,O-Dimethyl O-[3-methyl-4-(methylthio)phenyl] phosphorothioate", "MeSH ID: D005284"], "SMILES": "O(P(OC)(OC)=S)C1=CC(C)=C(SC)C=C1", "physical_data": {"Molecular Weight": "278.33", "Molecular Formula": "C10H15O3PS2", "Boiling Point": "87 \u00b0C @ Press: 0.01 Torr", "Melting Point": "7 \u00b0C", "Density": "1.250 g/cm\u00b3 @ Temp: 20 \u00b0C"}}