{"cas_no": "55-48-1", "cn_name": "\u786b\u9178\u963f\u6258\u54c1", "en_name": ["Atropine sulfate", "Benzeneacetic acid, \u03b1-(hydroxymethyl)- (3-endo)-8-methyl-8-azabicyclo[3.2.1]oct-3-yl ester, sulfate (2:1)", "1\u03b1H,5\u03b1H-Tropan-3\u03b1-ol (\u00b1)-tropate (ester), sulfate (2:1) (salt)", "Benzeneacetic acid, \u03b1-(hydroxymethyl)- 8-methyl-8-azabicyclo[3.2.1]oct-3-yl ester endo-(\u00b1)-, sulfate (2:1) (salt)", "Benzeneacetic acid, \u03b1-(hydroxymethyl)- (3-endo)-8-methyl-8-azabicyclo[3.2.1]oct-3-yl ester, sulfate (2:1) (salt)", "Atropine sulfate", "Atropine sulphate", "Atropisol", "Atropinium sulfate", "Atropisal", "MBK", "Ichtho-Bellol", "Atropette", "Atropinsal", "Sulfatropinol", "Tropintran", "Corbella", "Davurtrop", "Eyesule", "Lio-Atropin", "Benzeneacetic acid, \u03b1-(hydroxymethyl)-8-methyl-8-azabicyclo[3.2.1]oct-3-yl ester endo-, sulfate (2:1) (salt)", "Atropisol Ophthalmic Solution", "NSC 26671", "Atropine Minims", "Isopto Atropine"], "SMILES": "O(C(C(CO)C1=CC=CC=C1)=O)C2CC3N(C)C(C2)CC3.S(=O)(=O)(O)O", "physical_data": {"Molecular Weight": "", "Molecular Formula": "C17H23NO3.<sup>1</sup>/2H2O4S", "Boiling Point": "135 \u00b0C", "Melting Point": "50.5 \u00b0C"}}