{"cas_no": "55-43-6", "cn_name": "N-(2-\u6c2f\u4e59\u57fa)\u4e8c\u82c4\u80fa\u76d0\u9178\u76d0", "en_name": ["Benzenemethanamine, N-(2-chloroethyl)-N-(phenylmethyl)-, hydrochloride (1:1)", "Benzenemethanamine, N-(2-chloroethyl)-N-(phenylmethyl)-, hydrochloride (1:1)", "Dibenzylamine, N-(2-chloroethyl)-, hydrochloride", "Benzenemethanamine, N-(2-chloroethyl)-N-(phenylmethyl)-, hydrochloride", "N-(2-Chloroethyl)dibenzylamine hydrochloride", "Dibenamine hydrochloride", "(N,N-Dibenzylamino)ethyl chloride hydrochloride", "N,N-Dibenzyl-\u03b2-chloroethylamine hydrochloride", "(\u03b2-Chloroethyl)dibenzylamine hydrochloride", "Sympatholytin", "2-(Dibenzylamino)ethyl chloride hydrochloride", "(2-Chloroethyl)dibenzylamine hydrochloride", "N,N-Dibenzyl-2-chloroethanamine hydrochloride"], "SMILES": "N(CC1=CC=CC=C1)(CC2=CC=CC=C2)CCCl.Cl", "physical_data": {"Molecular Weight": "", "Molecular Formula": "C16H18ClN.ClH", "Melting Point": "192 \u00b0C"}}