{"cas_no": "55-40-3", "cn_name": "DL-\u7532\u57fa\u591a\u5df4", "en_name": ["(\u00b1)-Methyldopa", "Tyrosine, 3-hydroxy-\u03b1-methyl-", "Alanine, 3-(3,4-dihydroxyphenyl)-2-methyl-", "3-Hydroxy-\u03b1-methyltyrosine", "(\u00b1)-Methyldopa", "Racemic \u03b1-methyldopa", "DL-\u03b1-Methyl DOPA", "(\u00b1)-\u03b1-Methyldopa", "DL-Methyldopa", "Metholes", "Mulfasin", "DL-2-Methyl-3-(3,4-dihydroxyphenyl)alanine", "DL-\u03b1-Methyl-3-(3,4-dihydroxyphenyl)alanine", "2-(3,4-Dihydroxybenzyl)-2-aminopropanoic acid", "3-Hydroxy-\u03b1-methyl-DL-tyrosine", "2-Amino-3-(3,4-dihydroxyphenyl)-2-methylpropanoic acid", "2-Azaniumyl-3-(3,4-dihydroxyphenyl)-2-methylpropanoate"], "SMILES": "C(C(C(O)=O)(C)N)C1=CC(O)=C(O)C=C1", "physical_data": {"Molecular Weight": "211.21", "Molecular Formula": "C10H13NO4", "Melting Point": "299-300.5 \u00b0C (decomp)"}}