{"cas_no": "55-51-6", "cn_name": "N,N-\u53cc(2-\u6c2f\u4e59\u57fa)\u82ef\u7532\u80fa", "en_name": ["N,N-Bis(2-chloroethyl)benzenemethanamine", "Benzenemethanamine, N,N-bis(2-chloroethyl)-", "Benzylamine, N,N-bis(2-chloroethyl)-", "N,N-Bis(2-chloroethyl)benzenemethanamine", "Bis(2-chloroethyl)benzylamine", "N-Benzyl-N,N-bis(2-chloroethyl)amine", "N,N-Bis(2-chloroethyl)benzylamine", "N-Benzylnormechlorethamine", "Benzylbis(2-chloroethyl)amine", "N-Benzyl-2-chloro-N-(2-chloroethyl)ethanamine", "N-Benzyl-2-chloro-N-(2-chloroethyl)ethan-1-amine"], "SMILES": "N(CC1=CC=CC=C1)(CCCl)CCCl", "physical_data": {"Molecular Weight": "232.15", "Molecular Formula": "C11H15Cl2N", "Boiling Point": "148-150 \u00b0C @ Press: 4 Torr", "Melting Point": "148-150 \u00b0C"}}