{"cas_no": "55-56-1", "cn_name": "\u6c2f\u5df1\u5b9a", "en_name": ["Chlorhexidine", "2,4,11,13-Tetraazatetradecanediimidamide, N1,N14-bis(4-chlorophenyl)-3,12-diimino-", "Biguanide, 1,1\u2032-hexamethylenebis[5-(p-chlorophenyl)-", "2,4,11,13-Tetraazatetradecanediimidamide, N,N\u2032\u2032-bis(4-chlorophenyl)-3,12-diimino-", "N1,N14-Bis(4-chlorophenyl)-3,12-diimino-2,4,11,13-tetraazatetradecanediimidamide", "1,6-Bis[5-(p-chlorophenyl)biguanidino]hexane", "Chlorhexidine", "Nolvasan", "1,1\u2032-Hexamethylenebis[5-(p-chlorophenyl)biguanide]", "Soretol", "Chlorohex", "Fimeil", "Hexadol", "Chlorohexidine", "Tubulicid", "1,6-Di(N-p-chlorophenylbiguanidino)hexane", "Promax", "Eburos", "Hexident", "Chlorhexamed forte", "Consepsis", "Dezin", "Periogard", "Dentosan", "Chlorohexidene", "Prevora", "MeSH ID: D002710"], "SMILES": "N(C(NC(NCCCCCCNC(NC(NC1=CC=C(Cl)C=C1)=N)=N)=N)=N)C2=CC=C(Cl)C=C2", "physical_data": {"Molecular Weight": "505.45", "Molecular Formula": "C22H30Cl2N10", "Melting Point": "134 \u00b0C"}}