{"cas_no": "55-57-2", "cn_name": "1-\u82ef\u57fa\u53cc\u80cd\u76d0\u9178\u76d0", "en_name": ["Imidodicarbonimidic diamide, N-phenyl-, hydrochloride (1:1)", "Imidodicarbonimidic diamide, N-phenyl-, hydrochloride (1:1)", "Biguanide, 1-phenyl-, monohydrochloride", "Imidodicarbonimidic diamide, N-phenyl-, monohydrochloride", "N\u2032-Phenylbiguanide monohydrochloride", "1-Phenylbiguanide monohydrochloride", "Phenylbiguanide monohydrochloride", "N-Phenylimidodicarbonimidic diamide monohydrochloride", "N-Phenylimidodicarbonimidic diamide hydrochloride", "1-Phenylbiguanide hydrochloride", "1-Carbamimidamido-N-phenylmethanimidamide hydrochloride"], "SMILES": "N(C(NC(=N)N)=N)C1=CC=CC=C1.Cl", "physical_data": {"Molecular Weight": "", "Molecular Formula": "C8H11N5.ClH", "Melting Point": "237 \u00b0C"}}