{"cas_no": "55-55-0", "cn_name": "4-\u7532\u6c28\u57fa\u82ef\u915a\u786b\u9178\u76d0", "en_name": ["Metol", "Phenol, 4-(methylamino)-, sulfate (2:1)", "Phenol, p-(methylamino)-, sulfate (2:1) (salt)", "Phenol, 4-(methylamino)-, sulfate (2:1) (salt)", "Armol", "Elon", "Genol", "Graphol", "p-Methylaminophenol sulphate (2:1)", "Metol", "Photol", "Pictol", "Planetol", "Rhodol", "Metatyl", "N-Methyl-p-aminophenol sulfate", "p-Methylaminophenol sulfate", "4-(Methylamino)phenol sulfate (2:1) salt", "N-Methyl-4-hydroxyaniline hemisulfate", "Elon (developer)", "N-Methyl-p-aminophenol sulfuric acid salt (2:1)", "N-Methyl-p-aminophenol sulfuric acid hemisalt", "4-(Methylamino)phenol hemisulfate"], "SMILES": "N(C)C1=CC=C(O)C=C1.S(=O)(=O)(O)O", "physical_data": {"Molecular Weight": "", "Molecular Formula": "C7H9NO.<sup>1</sup>/2H2O4S", "Melting Point": "260 \u00b0C (decomp)"}}