{"cas_no": "55-68-5", "cn_name": "\u785d\u9178\u82ef\u6c5e", "en_name": ["(Nitrato-\u03baO)phenylmercury", "Mercury, (nitrato-\u03baO)phenyl-", "Mercury, nitratophenyl-", "Mercury, (nitrato-O)phenyl-", "Phenylmercury nitrate", "(Nitrato-\u03baO)phenylmercury", "Merphenyl nitrate", "Mersolite 7", "Phe-Mer-Nite", "Phenalco", "Phenitol", "Phenmerzyl nitrate", "Phenylmercuric nitrate", "Phenylmercurinitrate", "Nitratophenylmercury", "Phenylmercury (II) nitrate", "NSC 4772"], "SMILES": "[Hg](ON(=O)=O)C1=CC=CC=C1", "physical_data": {"Molecular Weight": "", "Molecular Formula": "C6H5HgNO3", "Melting Point": "176-186 \u00b0C"}}