{"cas_no": "55-63-0", "cn_name": "\u785d\u5316\u7518\u6cb9", "en_name": ["Nitroglycerin", "1,2,3-Propanetriol, 1,2,3-trinitrate", "Nitroglycerin", "1,2,3-Propanetriol, trinitrate", "Anginine", "Blasting oil", "Glonoin", "Glyceryl nitrate", "Glyceryl trinitrate", "GTN", "NG", "Niglycon", "Nitrine-TDC", "Nitroglycerine", "Nitroglycerol", "Nitroglyn", "Nitrolingual", "Nitrolowe", "Nitro-Span", "NTG", "Perglottal", "1,2,3-Propanetriyl nitrate", "Trinitrin", "Trinitroglycerin", "Trinitroglycerol", "Glycerol trinitrate", "Propanetriol trinitrate", "Angibid", "Angiolingual", "Angorin", "Cardamist", "Lenitral", "Myoglycerin", "Nitromel", "Nitrong", "Nitrorectal", "Nitroretard", "Nitrolan", "Nitro-lent", "Nitrozell retard", "Nitrostat", "Trinalgon", "Klavikordal", "Nysconitrine", "Vasoglyn", "Glycerin trinitrate", "S.N.G.", "Gilucor nitro", "Nitora", "Trinitrol", "Nitrostabilin", "Temponitrin", "Nitroletten", "Niglin", "Nitrol", "Nitrol (pharmaceutical)", "Nitrin", "Nitrine", "NK 843", "Nitro-Dur", "Nitroderm", "Chitamite", "Nitropercuten", "Penobel 2", "Perlinganit", "Epinitril", "Deponit", "Nitro-Bid", "Transderm-Nitro", "Nitrocardin", "Triniplas", "Minitran", "Minitran (nitroglycerin)", "Tridil", "SDM 71", "SDM 75", "Nitrogard", "SDM 77", "Millisrol", "Nitronal", "Nitrolar", "SDM 78", "SDM 79", "Nitrodisc", "Transderm-Nitro TTS", "Trinitrosan", "Nitrolande", "Aquo-Trinitrosan", "Diafusor", "SDM 74", "Glycerol nitric acid triester", "Nitroglin", "Nitro Mack", "Adesitrin", "Nitro-PRN", "Sustac", "Sutonit", "Niong", "Nitrosigma", "SDM 7", "Nitrofortin", "Coro-Nitro", "Percutol", "Corditrine", "Suscard", "Transiderm-Nitro", "Reminitrol", "Nitro-Gesani", "Nitrol Ointment", "Lentonitrina", "Cordipatch", "SDM 17", "SDM 20", "SDM 26", "SDM 27", "Discotrine", "SDM 36", "SDM 47", "Susadrin", "Gilucor", "Nitroderm TTS", "GTN (explosive)", "Myovin", "Solinitrina", "Nitropohl", "MQX 503", "Vasolator", "Deponit 10", "Dorocontin", "Nitromist", "Nitro-Time", "Trinitrine", "MeSH ID: D005996"], "SMILES": "C(CON(=O)=O)(CON(=O)=O)ON(=O)=O", "physical_data": {"Molecular Weight": "227.09", "Molecular Formula": "C3H5N3O9", "Boiling Point": "250 \u00b0C", "Melting Point": "13 \u00b0C", "Density": "1.6009 g/cm\u00b3 @ Temp: 15 \u00b0C"}}