{"cas_no": "55-80-1", "cn_name": "3'-\u7532\u57fa-4-\u4e8c\u7532\u6c28\u57fa\u5076\u6c2e\u82ef", "en_name": ["N,N-Dimethyl-4-[2-(3-methylphenyl)diazenyl]benzenamine", "Benzenamine, N,N-dimethyl-4-[2-(3-methylphenyl)diazenyl]-", "Aniline, N,N-dimethyl-p-(m-tolylazo)-", "Benzenamine, N,N-dimethyl-4-[(3-methylphenyl)azo]-", "N,N-Dimethyl-4-[2-(3-methylphenyl)diazenyl]benzenamine", "4-(Dimethylamino)-3\u2032-methylazobenzene", "N,N-Dimethyl-p-(m-tolylazo)aniline", "MDAB", "3\u2032-MDAB", "3\u2032-Methyl-4-(dimethylamino)azobenzene", "3-Methyl-4\u2032-(dimethylamino)azobenzene", "N,N,3\u2032-Trimethyl-4-aminoazobenzene", "3\u2032-Methyl-N,N-dimethyl-4-aminoazobenzene", "N,N-Dimethyl-4-(3-methylphenylazo)aniline", "NSC 59783"], "SMILES": "N(=NC1=CC(C)=CC=C1)C2=CC=C(N(C)C)C=C2", "physical_data": {"Molecular Weight": "239.32", "Molecular Formula": "C15H17N3", "Melting Point": "138-139 \u00b0C"}}