{"cas_no": "55-86-7", "cn_name": "\u6069\u6bd4\u5174", "en_name": ["Nitrogen mustard", "Ethanamine, 2-chloro-N-(2-chloroethyl)-N-methyl-, hydrochloride (1:1)", "Diethylamine, 2,2\u2032-dichloro-N-methyl-, hydrochloride", "Ethanamine, 2-chloro-N-(2-chloroethyl)-N-methyl-, hydrochloride", "Bis(2-chloroethyl)methylamine hydrochloride", "Caryolysine", "Dichloren", "2,2\u2032-Dichloro-N-methyldiethylamine hydrochloride", "Erasol", "HN2 hydrochloride", "MBA hydrochloride", "Mechlorethamine hydrochloride", "Methylbis(\u03b2-chloroethyl)amine hydrochloride", "Methylbis(2-chloroethyl)amine hydrochloride", "Mustargen hydrochloride", "Mustine hydrochloride", "Nitrogen mustard hydrochloride", "NSC 762 hydrochloride", "Chloramin", "Nitrogranulogen", "Chloramine", "Dimitan", "Kloramin", "Embichin", "Chlormethinum", "1,5-Dichloro-3-methyl-3-azapentane hydrochloride", "NSC 762", "Nitrogen mustard", "Antimit", "N-Lost", "N,N-Bis(2-chloroethyl)methanamine hydrochloride", "Embiquine", "Bis(2-chloroethyl)-N-methylamine hydrochloride", "N-Methylbis(2-chloroethyl)amine hydrochloride", "Erasol hydrochloride", "Dichloren hydrochloride", "Nitol", "Chlorethamine", "SK 101", "Chlormethine hydrochloride", "NM", "NCI C56382", "Embikhine", "Nitol takeda", "Azotoyperite", "Caryolysine hydrochloride", "Dema", "Erasol-Ido", "Mitoxine", "Chloramin hydrochloride", "Dichloromethyldiethylamine hydrochloride", "Nitrogranulogen hydrochloride", "Embechine", "C 6866", "Embichin hydrochloride", "Nitrogen mustard (HN 2) hydrochloride", "N-Methyl-N,N-bis(2-chloroethyl)amine hydrochloride", "2-Chloro-N-(2-chloroethyl)-N-methylethanamine hydrochloride", "Mechlorothamine"], "SMILES": "N(CCCl)(CCCl)C.Cl", "physical_data": {"Molecular Weight": "", "Molecular Formula": "C5H11Cl2N.ClH", "Melting Point": "109-111 \u00b0C"}}