{"cas_no": "55-81-2", "cn_name": "4-\u7532\u6c27\u57fa\u82ef\u4e59\u80fa", "en_name": ["2-(4-Methoxyphenyl)ethylamine", "Benzeneethanamine, 4-methoxy-", "Phenethylamine, p-methoxy-", "4-Methoxybenzeneethanamine", "Homoanisylamine", "p-Methoxyphenethylamine", "Tyramine, O-methyl-", "4-Methoxyphenethylamine", "4-Methoxyphenylethylamine", "2-(p-Methoxyphenyl)ethylamine", "4-Methoxy-\u03b2-phenethylamine", "2-(4-Methoxyphenyl)ethylamine", "4-Methoxy-\u03b2-phenylethylamine", "O-Methyltyramine", "2-(4-Methoxyphenyl)ethanamine", "NSC 43687", "[2-[4-(Methyloxy)phenyl]ethyl]amine", "Tyramine methyl ether", "2-(4-Methoxyphenyl)ethan-1-amine", "1-(4-Methoxybenzyl)-N-methylamine"], "SMILES": "C(CN)C1=CC=C(OC)C=C1", "physical_data": {"Molecular Weight": "151.21", "Molecular Formula": "C9H13NO", "Boiling Point": "138-140 \u00b0C @ Press: 20 Torr", "Melting Point": "217 \u00b0C", "Density": "1.0365 g/cm\u00b3 @ Temp: 20 \u00b0C"}}