{"cas_no": "55-91-4", "cn_name": "\u6c1f\u78f7\u9178\u4e8c\u5f02\u4e19\u916f(\u7981\u8fd0)", "en_name": ["Diisopropyl fluorophosphate", "Phosphorofluoridic acid, bis(1-methylethyl) ester", "Phosphorofluoridic acid, diisopropyl ester", "Diflupyl", "Diisopropoxyphosphoryl fluoride", "Diisopropyl phosphofluoridate", "Diisopropyl phosphorofluoridate", "Dyflos", "Floropryl", "Fluorodiisopropyl phosphate", "Isoflurophate", "Diisopropyl fluorophosphate", "Isopropyl fluophosphate ((C3H7O)2FPO)", "Isopropyl phosphorofluoridate ((C3H7O)2FPO)", "Fluostigmine", "DFP (pesticide)", "Difluorophate", "DFP", "Neoglaucit", "DFF", "O,O-Diisopropyl phosphorofluoridate", "MeSH ID: D007531"], "SMILES": "O(P(OC(C)C)(F)=O)C(C)C", "physical_data": {"Molecular Weight": "184.15", "Molecular Formula": "C6H14FO3P", "Boiling Point": "183 \u00b0C", "Melting Point": "-82 \u00b0C", "Density": "1.055 g/cm\u00b3"}}