{"cas_no": "55-98-1", "cn_name": "\u767d\u6d88\u5b89", "en_name": ["Busulfan", "1,4-Butanediol, 1,4-dimethanesulfonate", "1,4-Butanediol, dimethanesulfonate", "Methanesulfonic acid, tetramethylene ester", "GT 41", "NSC 750", "CB 2041", "1,4-Bis(methanesulfonoxy)butane", "Busulphan", "1,4-Dimethanesulfonoxybutane", "1,4-Dimethylsulfonyloxybutane", "Mablin", "Mitostan", "Myelosan", "Myleran", "Tetramethylene bis[methanesulfonate]", "Busulfan", "Misulban", "Mielosan", "Mileran", "Milecitan", "Sulfabutin", "1,4-Bis(methanesulfonyloxy)butane", "Leucosulfan", "Mylecytan", "Mielucin", "1,4-Butanediol dimesylate", "Glyzophrol", "Butane-1,4-diyl bis(methanesulfonate)", "1,4-Dibutanediol dimethanesulfonate", "Busulfex", "GT 2041", "Myeloleukon", "X 149", "Sulphabutin", "2041CB", "AN 33501", "Mielevcin", "NCI C01592", "Citosulfan", "Busilvex", "Myran", "4-Methylsulfonyloxybutyl methanesulfonate", "MeSH ID: D002066"], "SMILES": "O(S(C)(=O)=O)CCCCOS(C)(=O)=O", "physical_data": {"Molecular Weight": "246.30", "Molecular Formula": "C6H14O6S2", "Melting Point": "114-118 \u00b0C", "Density": "1.56 g/cm\u00b3"}}