{"cas_no": "55-97-0", "cn_name": "\u6eb4\u5316\u516d\u7532\u94f5", "en_name": ["Hexamethonium bromide", "1,6-Hexanediaminium, N1,N1,N1,N6,N6,N6-hexamethyl-, bromide (1:2)", "Ammonium, hexamethylenebis[trimethyl-, dibromide", "1,6-Hexanediaminium, N,N,N,N\u2032,N\u2032,N\u2032-hexamethyl-, dibromide", "Hexamethylenebis[trimethylammonium bromide]", "C 6", "Esametina", "Gangliostat", "Hexamethonium bromide", "Hexamethonium dibromide", "Hexameton", "Hexonium dibromide", "Simpatoblock", "Vegolysen", "Vegolysin", "Methobromine", "N,N,N,N\u2032,N\u2032,N\u2032-Hexamethyl(hexamethylene)diammonium bromide", "Hexamethylenebis(trimethylammonium) dibromide", "1,6-Hexanebis(trimethylammonium) dibromide", "Methobromin", "Hexameton bromide", "Bistrium bromide", "Hexanium bromide", "1,6-Bis(trimethylammonium)hexane dibromide", "Hexane-1,6-bis(trimethylammonium bromide)", "Hexamethone bromide"], "SMILES": "C([N+](C)(C)C)CCCCC[N+](C)(C)C.[Br-]", "physical_data": {"Molecular Weight": "", "Molecular Formula": "C12H30N2.2Br", "Melting Point": "274-276 \u00b0C"}}