{"cas_no": "550-33-4", "cn_name": "9 - (\u0392-D -\u544b\u5583\u6838\u7cd6)\u560c\u5464", "en_name": ["Nebularine", "9H-Purine, 9-\u03b2-D-ribofuranosyl-", "Purine riboside", "9-\u03b2-D-Ribofuranosyl-9H-purine", "Nebularine", "Ribosylpurine", "9-\u03b2-D-Ribofuranosylpurine", "NSC 65423", "Isopurine, ribosyl-", "Purinosine", "Purine-9-\u03b2-D-ribofuranoside", "9-\u03b2-D-Ribosyl-9H-purine", "Desaminoadenosine"], "SMILES": "OC1C(N2C=3C(N=C2)=CN=CN3)OC(CO)C1O", "physical_data": {"Molecular Weight": "252.23", "Molecular Formula": "C10H12N4O4", "Melting Point": "181 \u00b0C"}}