{"cas_no": "550-70-9", "cn_name": "2-(1-(4-\u7532\u57fa\u82ef\u57fa)-3-(1-\u5421\u54af\u70f7\u57fa)-1-\u4e19\u70ef\u57fa)\u5421\u5576\u76d0\u9178\u76d0", "en_name": ["Triprolidine hydrochloride", "Pyridine, 2-[(1E)-1-(4-methylphenyl)-3-(1-pyrrolidinyl)-1-propen-1-yl]-, hydrochloride (1:1)", "Pyridine, 2-[3-(1-pyrrolidinyl)-1-p-tolylpropenyl]-, monohydrochloride, (E)-", "Pyridine, 2-[1-(4-methylphenyl)-3-(1-pyrrolidinyl)-1-propenyl]-, monohydrochloride, (E)-", "Pyridine, 2-[(1E)-1-(4-methylphenyl)-3-(1-pyrrolidinyl)-1-propenyl]-, monohydrochloride", "Actidilat", "trans-1-(4-Methylphenyl)-1-(2-pyridyl)-3-pyrrolidinoprop-1-ene hydrochloride", "Triprolidine hydrochloride", "trans-2-[3-(1-Pyrrolidinyl)-1-(p-tolyl)propenyl]pyridine hydrochloride", "Actidil", "295C51", "Pro-Actidil", "Entra", "Pro-Entra", "Venen", "Actidilon", "trans-Triprolidine hydrochloride"], "SMILES": "C(=CCN1CCCC1)(C2=CC=C(C)C=C2)C3=CC=CC=N3.Cl", "physical_data": {"Molecular Weight": "", "Molecular Formula": "C19H22N2.ClH", "Melting Point": "116-118 \u00b0C"}}