{"cas_no": "550-99-2", "cn_name": "\u76d0\u9178\u8418\u7532\u5511\u5549", "en_name": ["Naphazoline hydrochloride", "1H-Imidazole, 4,5-dihydro-2-(1-naphthalenylmethyl)-, hydrochloride (1:1)", "2-Imidazoline, 2-(1-naphthylmethyl)-, monohydrochloride", "Naphazoline hydrochloride", "1H-Imidazole, 4,5-dihydro-2-(1-naphthalenylmethyl)-, monohydrochloride", "2-(1-Naphthylmethyl)-2-imidazoline hydrochloride", "Niazol", "Privine hydrochloride", "Prizole hydrochloride", "Rhinantin", "Rhinoperd", "Stricylon", "Naphazoline chloride", "Privine (American)", "Naphthasolium chloride", "2-(\u03b1-Naphthylmethyl)-2-imidazoline hydrochloride", "2-(1-Naphthylmethyl)imidazoline hydrochloride", "Ocumethyl", "Vasocon", "Coldan", "Rhinatin", "Strictylon", "Degest 2", "Opcon", "Iridina Due", "Sanorin-Spofa", "Naphcon", "Vasoclear", "Albalon", "Ak-Con", "Allerest Eye Drops", "Comfort Eye Drops", "Clera", "Neozoline", "Naprisol"], "SMILES": "C(C=1C2=C(C=CC1)C=CC=C2)C=3NCCN3.Cl", "physical_data": {"Molecular Weight": "", "Molecular Formula": "C14H14N2.ClH", "Melting Point": "255-260 \u00b0C"}}