{"cas_no": "550-90-3", "cn_name": "\u7fbd\u6247\u8c46\u9e7c", "en_name": ["(+)-Lupanine", "7,14-Methano-2H,11H-dipyrido[1,2-a:1\u2032,2\u2032-e][1,5]diazocin-11-one, dodecahydro-, (7S,7aR,14S,14aS)-", "Lupanine", "7,14-Methano-2H,11H-dipyrido[1,2-a:1\u2032,2\u2032-e][1,5]diazocin-11-one, dodecahydro-, [7S-(7\u03b1,7a\u03b1,14\u03b1,14a\u03b2)]-", "Lupanine, d-", "(7S,7aR,14S,14aS)-Dodecahydro-7,14-methano-2H,11H-dipyrido[1,2-a:1\u2032,2\u2032-e][1,5]diazocin-11-one", "Lupanin", "2-Oxosparteine", "(+)-Lupanine", "7,14-Methano-4H,6H-dipyrido[1,2-a:1\u2032,2\u2032-e][1,5]diazocin-4-one, dodecahydro-, [7S-(7\u03b1,7a\u03b2,14\u03b1,14a\u03b1)]-", "d-Lupanine", "(+)-2-Oxosparteine", "D-(+)-Lupanine", "D-Lupanine"], "SMILES": "O=C1N2C(C3CC(C2)C4N(C3)CCCC4)CCC1", "physical_data": {"Molecular Weight": "248.36", "Molecular Formula": "C15H24N2O", "Boiling Point": "186-188 \u00b0C @ Press: 1 Torr", "Melting Point": "99 \u00b0C"}}