{"cas_no": "550-89-0", "cn_name": "\u5429\u55ea-1-\u7532\u9170\u80fa", "en_name": ["1-Phenazinecarboxamide", "1-Phenazinecarboxamide", "Oxychloraphin", "Oxychlororaphine", "Phenazine-1-carboxyamide"], "SMILES": "C(N)(=O)C=1C2=C(N=C3C(=N2)C=CC=C3)C=CC1", "physical_data": {"Molecular Weight": "223.23", "Molecular Formula": "C13H9N3O", "Melting Point": "241 \u00b0C"}}