{"cas_no": "550-44-7", "cn_name": "N-\u7532\u57fa\u90bb\u82ef\u4e8c\u7532\u9170\u4e9a\u80fa", "en_name": ["N-Methylphthalimide", "1H-Isoindole-1,3(2H)-dione, 2-methyl-", "Phthalimide, N-methyl-", "2-Methyl-1H-isoindole-1,3(2H)-dione", "N-Methylphthalimide", "NSC 44059", "2-Methylisoindole-1,3-dione", "2-Methylisoindoline-1,3-dione", "2,2\u2032-Bis(N-methylphthalimide)", "2-Methyl-2,3-dihydro-1H-isoindole-1,3-dione"], "SMILES": "O=C1C=2C(C(=O)N1C)=CC=CC2", "physical_data": {"Molecular Weight": "161.16", "Molecular Formula": "C9H7NO2", "Boiling Point": "286 \u00b0C", "Melting Point": "134 \u00b0C"}}