{"cas_no": "550-74-3", "cn_name": "\u82e6\u916e\u9178", "en_name": ["Picrolonic acid", "3H-Pyrazol-3-one, 2,4-dihydro-5-methyl-4-nitro-2-(4-nitrophenyl)-", "Picrolonic acid", "2,4-Dihydro-5-methyl-4-nitro-2-(4-nitrophenyl)-3H-pyrazol-3-one", "NSC 5049", "3-Methyl-4-nitro-1-(4-nitrophenyl)-1H-pyrazol-5(4H)-one"], "SMILES": "O=C1N(N=C(C)C1N(=O)=O)C2=CC=C(N(=O)=O)C=C2", "physical_data": {"Molecular Weight": "264.19", "Molecular Formula": "C10H8N4O5", "Melting Point": "116 \u00b0C"}}