{"cas_no": "550-83-4", "cn_name": "\u76d0\u9178\u4e19\u6c27\u5361\u56e0", "en_name": ["Propoxycaine hydrochloride", "Benzoic acid, 4-amino-2-propoxy-, 2-(diethylamino)ethyl ester, hydrochloride (1:1)", "Benzoic acid, 4-amino-2-propoxy-, 2-(diethylamino)ethyl ester, monohydrochloride", "4-Amino-2-propoxybenzoic acid 2-diethylaminoethyl ester hydrochloride", "Blockaine hydrochloride", "Blockain hydrochloride", "2-Diethylaminoethyl 4-amino-2-propoxybenzoate hydrochloride", "2\u2032-Diethylaminoethyl 2-propoxy-4-aminobenzoate hydrochloride", "Pravocaine hydrochloride", "Propoxycaine hydrochloride", "Ravocaine hydrochloride", "Rovocaine hydrochloride"], "SMILES": "C(OCCN(CC)CC)(=O)C1=C(OCCC)C=C(N)C=C1.Cl", "physical_data": {"Molecular Weight": "", "Molecular Formula": "C16H26N2O3.ClH", "Melting Point": "149 \u00b0C"}}