{"cas_no": "550-24-3", "cn_name": "\u6069\u8d1d\u9178", "en_name": ["Embelin", "2,5-Cyclohexadiene-1,4-dione, 2,5-dihydroxy-3-undecyl-", "p-Benzoquinone, 2,5-dihydroxy-3-undecyl-", "Embelin", "2,5-Dihydroxy-3-undecyl-2,5-cyclohexadiene-1,4-dione", "Embelic acid", "Emberine", "NSC 91874", "2,5-Dihydroxy-3-undecyl-1,4-benzoquinone", "2,5-Dihydroxy-3-undecylcyclohexa-2,5-dien-1,4-dione"], "SMILES": "C(CCCCCCCCCC)C=1C(=O)C(O)=CC(=O)C1O", "physical_data": {"Molecular Weight": "294.39", "Molecular Formula": "C17H26O4", "Melting Point": "142.5 \u00b0C", "Density": "0.27 g/cm\u00b3"}}