{"cas_no": "550-60-7", "cn_name": "1-\u785d\u57fa-2-\u8418\u915a", "en_name": ["1-Nitro-2-naphthol", "2-Naphthalenol, 1-nitro-", "2-Naphthol, 1-nitro-", "1-Nitro-2-naphthalenol", "1-Nitro-2-hydroxynaphthalene", "\u03b1-Nitro-\u03b2-naphthol", "1-Nitro-\u03b2-naphthol", "1-Nitro-2-naphthol", "2-Hydroxy-1-nitronaphthalene", "NSC 37027"], "SMILES": "N(=O)(=O)C=1C2=C(C=CC1O)C=CC=C2", "physical_data": {"Molecular Weight": "189.17", "Molecular Formula": "C10H7NO3", "Boiling Point": "115 \u00b0C", "Melting Point": "104 \u00b0C"}}