{"cas_no": "5500-21-0", "cn_name": "\u73af\u4e19\u57fa\u8148", "en_name": ["Cyclopropanecarbonitrile", "Cyclopropanecarbonitrile", "Cyclopropanenitrile", "Cyclopropylnitrile", "Cyanocyclopropane", "Cyclopropyl cyanide", "Cyclopropylcarbonitrile", "NSC 60191"], "SMILES": "C(#N)C1CC1", "physical_data": {"Molecular Weight": "67.09", "Molecular Formula": "C4H5N", "Boiling Point": "135.1 \u00b0C", "Density": "0.89401 g/cm\u00b3 @ Temp: 20 \u00b0C"}}