{"cas_no": "55011-89-7", "cn_name": "\u897f\u915e\u666e\u5170USP\u76f8\u5173\u7269\u8d28F", "en_name": ["3-Buten-2-amine, N,N-dimethyl-4,4-diphenyl-, hydrochloride", "3-Buten-2-amine, N,N-dimethyl-4,4-diphenyl-, hydrochloride", "Allylamine, N,N,1-trimethyl-3,3-diphenyl-, hydrochloride", "A 29 (pharmaceutical)", "A 29"], "SMILES": "C(=CC(N(C)C)C)(C1=CC=CC=C1)C2=CC=CC=C2.Cl", "physical_data": {"Molecular Weight": "", "Molecular Formula": "C18H21N.ClH", "Melting Point": "160-161 \u00b0C"}}