{"cas_no": "55035-43-3", "cn_name": "1,4-\u4e8c[2-[4-[N,N-\u4e8c\u5bf9\u7532\u82ef\u57fa)\u6c28\u57fa]\u82ef\u57fa]\u4e59\u70ef\u57fa]\u82ef", "en_name": ["1,4-Bis[2-[4-[N,N-di(p-tolyl)amino]phenyl]vinyl]benzene", "Benzenamine, 4,4\u2032-(1,4-phenylenedi-2,1-ethenediyl)bis[N,N-bis(4-methylphenyl)-", "4,4\u2032-(1,4-Phenylenedi-2,1-ethenediyl)bis[N,N-bis(4-methylphenyl)benzenamine]", "4-(Di-p-Tolylamino)-4\u2032-[(di-p-tolylamino)styryl]stilbene", "1,4-Bis[2-[4-[N,N-di(p-tolyl)amino]phenyl]vinyl]benzene", "Blue-green 2", "B 2080", "OP 31"], "SMILES": "N(C1=CC=C(C=CC2=CC=C(C=CC3=CC=C(N(C4=CC=C(C)C=C4)C5=CC=C(C)C=C5)C=C3)C=C2)C=C1)(C6=CC=C(C)C=C6)C7=CC=C(C)C=C7", "physical_data": {"Molecular Weight": "672.90", "Molecular Formula": "C50H44N2", "Melting Point": "223-224 \u00b0C"}}