{"cas_no": "55038-01-2", "cn_name": "1-\u82ef\u5e76\u544b\u5583-2-\u7532\u9187", "en_name": ["2-Benzofuranmethanol", "2-Benzofuranmethanol", "2-(Hydroxymethyl)benzofuran", "Benzofuran-2-ylmethanol", "1-(Benzofuran-2-yl)methanol"], "SMILES": "C(O)C1=CC=2C(O1)=CC=CC2", "physical_data": {"Molecular Weight": "148.16", "Molecular Formula": "C9H8O2", "Boiling Point": "112-113 \u00b0C @ Press: 1.1 Torr", "Density": "1.203 g/cm\u00b3 @ Temp: 20 \u00b0C"}}