{"cas_no": "5503-74-2", "cn_name": "3-BORONO-2-THIOPHENECARBOXYLIC ACID", "en_name": ["3-Borono-2-thiophenecarboxylic acid", "2-Thiophenecarboxylic acid, 3-borono-", "3-Borono-2-thiophenecarboxylic acid", "2-Carboxythiophene-3-boronic acid"], "SMILES": "B(O)(O)C1=C(C(O)=O)SC=C1", "physical_data": {"Molecular Weight": "171.97", "Molecular Formula": "C5H5BO4S", "Melting Point": "159.5-162.5 \u00b0C"}}