{"cas_no": "55048-24-3", "cn_name": "3-\u6c2f-4-\u5417\u5549\u82ef\u80fa", "en_name": ["3-Chloro-4-morpholinoaniline", "Benzenamine, 3-chloro-4-(4-morpholinyl)-", "3-Chloro-4-(4-morpholinyl)benzenamine", "4-(4-Amino-2-chlorophenyl)morpholine", "3-Chloro-(4-morpholin-4-yl)phenylamine", "3-Chloro-4-(4-morpholinyl)aniline", "N-(4-Amino-2-chlorophenyl)morpholine", "3-Chloro-4-morpholinoaniline"], "SMILES": "ClC1=C(N2CCOCC2)C=CC(N)=C1", "physical_data": {"Molecular Weight": "212.68", "Molecular Formula": "C10H13ClN2O", "Melting Point": "97-100 \u00b0C"}}