{"cas_no": "5504-92-7", "cn_name": "2-\u6eb4-N-[4-\u6c2f-2-(2-\u6c2f\u82ef\u7532\u9170)\u82ef\u57fa]\u4e59\u9170\u80fa", "en_name": ["2-Bromo-N-[4-chloro-2-(2-chlorobenzoyl)phenyl]acetamide", "Acetamide, 2-bromo-N-[4-chloro-2-(2-chlorobenzoyl)phenyl]-", "Acetanilide, 2-bromo-4\u2032-chloro-2\u2032-(o-chlorobenzoyl)-", "2-Bromo-N-[4-chloro-2-(2-chlorobenzoyl)phenyl]acetamide"], "SMILES": "C(=O)(C1=C(NC(CBr)=O)C=CC(Cl)=C1)C2=C(Cl)C=CC=C2", "physical_data": {"Molecular Weight": "387.06", "Molecular Formula": "C15H10BrCl2NO2", "Melting Point": "136 \u00b0C"}}