{"cas_no": "5505-72-6", "cn_name": "\u4e09\u4e59\u70ef\u57fa\u4e09\u7532\u57fa\u73af\u4e09\u7845\u6c2e\u70f7", "en_name": ["2,4,6-Triethenyl-2,4,6-trimethylcyclotrisilazane", "Cyclotrisilazane, 2,4,6-triethenyl-2,4,6-trimethyl-", "Cyclotrisilazane, 2,4,6-trimethyl-2,4,6-trivinyl-", "2,4,6-Triethenyl-2,4,6-trimethylcyclotrisilazane", "2,4,6-Trimethyl-2,4,6-trivinylcyclotrisilazane", "2,4,6-Triethenyl-2,4,6-trimethyl-1,3,5,2,4,6-triazatrisilinane", "2,4,6-Tris(ethenyl)-2,4,6-trimethyl-1,3,5,2,4,6-triazatrisilinane", "1,3,5-Trimethyl-1,3,5-trivinylcyclotrisilazane", "1,3,5-Trivinyl-1,3,5-trimethylcyclotrisilazane"], "SMILES": "C(=C)[Si]1(C)N[Si](C=C)(C)N[Si](C=C)(C)N1", "physical_data": {"Molecular Weight": "255.54", "Molecular Formula": "C9H21N3Si3", "Boiling Point": "106-109 \u00b0C @ Press: 11 Torr", "Density": "0.939 g/cm\u00b3"}}