{"cas_no": "55052-26-1", "cn_name": "6-\u7f9f\u57fa-7-\u6c2e\u6742\u5432\u54da", "en_name": ["1,7-Dihydro-6H-pyrrolo[2,3-b]pyridin-6-one", "6H-Pyrrolo[2,3-b]pyridin-6-one, 1,7-dihydro-", "1,7-Dihydro-6H-pyrrolo[2,3-b]pyridin-6-one", "1H-Pyrrolo[2,3-b]pyridin-6-ol", "1,7-Dihydropyrrolo[2,3-b]pyridin-6-one"], "SMILES": "O=C1NC2=C(C=C1)C=CN2", "physical_data": {"Molecular Weight": "134.14", "Molecular Formula": "C7H6N2O", "Melting Point": "226-226.5 \u00b0C (decomp)"}}