{"cas_no": "5505-63-5", "cn_name": "\u76d0\u9178 D-\u7518\u9732\u7cd6\u80fa", "en_name": ["D-Mannosamine hydrochloride", "D-Mannose, 2-amino-2-deoxy-, hydrochloride (1:1)", "Mannose, 2-amino-2-deoxy-, hydrochloride, D-", "D-Mannose, 2-amino-2-deoxy-, hydrochloride", "2-Amino-2-deoxy-D-mannose hydrochloride", "D-Mannosamine hydrochloride", "D-(+)-Mannosamine hydrochloride"], "SMILES": "C(C(C(CO)O)O)(C(C=O)N)O.Cl", "physical_data": {"Molecular Weight": "", "Molecular Formula": "C6H13NO5.ClH", "Melting Point": "178-180 \u00b0C (decomp)"}}