{"cas_no": "55066-53-0", "cn_name": "\u84d6\u9ebb\u6cb9\u9178\u4e59\u916f", "en_name": ["Ethyl (9Z,12R)-12-hydroxy-9-octadecenoate", "9-Octadecenoic acid, 12-hydroxy-, ethyl ester, (9Z,12R)-", "9-Octadecenoic acid, 12-hydroxy-, ethyl ester, [R-(Z)]-", "Ricinoleic acid, ethyl ester", "Ethyl (9Z,12R)-12-hydroxy-9-octadecenoate", "Ethyl ricinoleate", "Neoricin", "(+)-Ethyl ricinoleate"], "SMILES": "C(CC=CCCCCCCCC(OCC)=O)(CCCCCC)O", "physical_data": {"Molecular Weight": "326.51", "Molecular Formula": "C20H38O3", "Boiling Point": "227-230 \u00b0C @ Press: 10 Torr", "Density": "0.9182 g/cm\u00b3 @ Temp: 20 \u00b0C"}}