{"cas_no": "55066-56-3", "cn_name": "3-\u7532\u57fa\u4e01\u9178-4-\u7532\u82ef\u916f", "en_name": ["p-Cresyl isovalerate", "Butanoic acid, 3-methyl-, 4-methylphenyl ester", "Isovaleric acid, p-tolyl ester", "p-Cresyl isovalerate", "3-Methylbutanoic acid 4-methylphenyl ester", "NSC 32511", "(4-Methylphenyl) 3-methylbutanoate"], "SMILES": "O(C(CC(C)C)=O)C1=CC=C(C)C=C1", "physical_data": {"Molecular Weight": "192.25", "Molecular Formula": "C12H16O2", "Boiling Point": "255-257 \u00b0C", "Density": "0.9884 g/cm\u00b3 @ Temp: 15 \u00b0C"}}