{"cas_no": "55066-48-3", "cn_name": "\u03b3-\u7532\u57fa\u82ef\u620a\u9187", "en_name": ["3-Methyl-5-phenyl-1-pentanol", "Benzenepentanol, \u03b3-methyl-", "\u03b3-Methylbenzenepentanol", "3-Methyl-5-phenylpentanol", "3-Methyl-5-phenyl-1-pentanol", "Phenoxanol", "Mefrosol", "5-Phenyl-3-methylpentanol"], "SMILES": "C(CC(CCO)C)C1=CC=CC=C1", "physical_data": {"Molecular Weight": "178.27", "Molecular Formula": "C12H18O", "Boiling Point": "141-143 \u00b0C @ Press: 11 Torr"}}