{"cas_no": "55077-30-0", "cn_name": "\u8418\u4e8c\u78fa\u9178\u4e59\u4e73\u80c6\u94f5", "en_name": ["Ethanaminium, 2-[2-(acetyloxy)-1-oxopropoxy]-N,N,N-trimethyl-, 1,5-naphthalenedisulfonate (2:1)", "Ethanaminium, 2-[2-(acetyloxy)-1-oxopropoxy]-N,N,N-trimethyl-, 1,5-naphthalenedisulfonate (2:1)", "1,5-Naphthalenedisulfonic acid, ion(2-), bis[2-[2-(acetyloxy)-1-oxopropoxy]-N,N,N-trimethylethanaminium]", "TM 723", "Aclatonium napadisilate", "Abovis", "Aclatonium napadisylate"], "SMILES": "S(=O)(=O)([O-])C=1C2=C(C(S(=O)(=O)[O-])=CC=C2)C=CC1.C(C(OCC[N+](C)(C)C)=O)(OC(C)=O)C", "physical_data": {"Molecular Weight": "", "Molecular Formula": "C10H20NO4.<sup>1</sup>/2C10H6O6S2", "Melting Point": "189-191 \u00b0C"}}