{"cas_no": "55079-83-9", "cn_name": "\u963f\u7ef4A\u9178", "en_name": ["Acitretin", "2,4,6,8-Nonatetraenoic acid, 9-(4-methoxy-2,3,6-trimethylphenyl)-3,7-dimethyl-, (2E,4E,6E,8E)-", "2,4,6,8-Nonatetraenoic acid, 9-(4-methoxy-2,3,6-trimethylphenyl)-3,7-dimethyl-, (all-E)-", "(2E,4E,6E,8E)-9-(4-Methoxy-2,3,6-trimethylphenyl)-3,7-dimethyl-2,4,6,8-nonatetraenoic acid", "Ro 10-1670", "Etretin", "Acitretin", "Neotigason", "all-trans-Acitretin", "TMMP", "Soriatane", "Ro 10-1670/000", "Acitretinoin", "MeSH ID: D017255"], "SMILES": "C(=CC(=CC=CC(=CC(O)=O)C)C)C1=C(C)C(C)=C(OC)C=C1C", "physical_data": {"Molecular Weight": "326.43", "Molecular Formula": "C21H26O3", "Melting Point": "228-230 \u00b0C"}}