{"cas_no": "5507-44-8", "cn_name": "\u4e8c\u4e59\u6c27\u57fa\u7532\u57fa\u4e59\u70ef\u57fa\u7845\u70f7", "en_name": ["Vinylmethyldiethoxysilane", "Silane, ethenyldiethoxymethyl-", "Silane, diethoxymethylvinyl-", "Ethenyldiethoxymethylsilane", "Diethoxymethylvinylsilane", "Vinyldiethoxymethylsilane", "Vinylmethyldiethoxysilane", "Methylvinyldiethoxysilane", "NSC 83930", "Ethenyldiethoxy(methyl)silane", "LMD 24", "DB 175", "Methyldiethoxyvinylsilane", "PC 6320"], "SMILES": "[Si](OCC)(OCC)(C=C)C", "physical_data": {"Molecular Weight": "160.29", "Molecular Formula": "C7H16O2Si", "Boiling Point": "133 \u00b0C", "Density": "0.858 g/cm\u00b3"}}