{"cas_no": "5508-58-7", "cn_name": "\u7a7f\u5fc3\u83b2\u5185\u916f", "en_name": ["Andrographolide", "2(3H)-Furanone, 3-[2-[(1R,4aS,5R,6R,8aS)-decahydro-6-hydroxy-5-(hydroxymethyl)-5,8a-dimethyl-2-methylene-1-naphthalenyl]ethylidene]dihydro-4-hydroxy-, (3E,4S)-", "5\u03b2,9\u03b2H,10\u03b1-Labda-8(20),12-dien-16-oic acid, 3\u03b1,14,15,18-tetrahydroxy-, \u03b3-lactone", "2(3H)-Furanone, 3-[2-[decahydro-6-hydroxy-5-(hydroxymethyl)-5,8a-dimethyl-2-methylene-1-naphthalenyl]ethylidene]dihydro-4-hydroxy-, [1R-[1\u03b1[E(S*)],4a\u03b2,5\u03b1,6\u03b1,8a\u03b1]]-", "Andrographis", "(3E,4S)-3-[2-[(1R,4aS,5R,6R,8aS)-Decahydro-6-hydroxy-5-(hydroxymethyl)-5,8a-dimethyl-2-methylene-1-naphthalenyl]ethylidene]dihydro-4-hydroxy-2(3H)-furanone", "Andrographolide", "Andrographolid", "3-dehydroandrographolide or 19-dehydroandrographolide? p. 1388", "Andrographiside aglycon"], "SMILES": "CC12C(C(CO)(C)C(O)CC1)CCC(=C)C2CC=C3C(O)COC3=O", "physical_data": {"Molecular Weight": "350.45", "Molecular Formula": "C20H30O5", "Melting Point": "218 \u00b0C (decomp)", "Density": "1.2317 g/cm\u00b3 @ Temp: 21 \u00b0C"}}