{"cas_no": "5509-65-9", "cn_name": "2,6-\u4e8c\u6c1f\u82ef\u80fa", "en_name": ["2,6-Difluoroaniline", "Benzenamine, 2,6-difluoro-", "Aniline, 2,6-difluoro-", "2,6-Difluorobenzenamine", "2,6-Difluoroaniline", "NSC 127234", "2,6-Difluorobenzeneamine", "2,6-Difluorophenylamine"], "SMILES": "NC1=C(F)C=CC=C1F", "physical_data": {"Molecular Weight": "129.11", "Molecular Formula": "C6H5F2N", "Boiling Point": "51-52 \u00b0C @ Press: 15 Torr"}}