{"cas_no": "55096-26-9", "cn_name": "\u7eb3\u7f8e\u82ac", "en_name": ["Nalmefene", "Morphinan-3,14-diol, 17-(cyclopropylmethyl)-4,5-epoxy-6-methylene-, (5\u03b1)-", "(5\u03b1)-17-(Cyclopropylmethyl)-4,5-epoxy-6-methylenemorphinan-3,14-diol", "6-Desoxy-6-methylenenaltrexone", "ORF 11676", "Nalmetrene", "Nalmefene", "6-Deoxo-6-methylenenaltrexone", "(-)-Nalmefene", "JF 1", "SRD 174", "Incystene", "Cervene", "Arthene", "Fenarc", "Alcofene", "Soberal", "Cessal", "Nocarex", "JKB 121"], "SMILES": "OC12C34C=5C(OC3C(=C)CC1)=C(O)C=CC5CC2N(CC6CC6)CC4", "physical_data": {"Molecular Weight": "339.43", "Molecular Formula": "C21H25NO3", "Melting Point": "188-190 \u00b0C"}}