{"cas_no": "550998-58-8", "cn_name": "6-\u7532\u6c27\u57fa\u82ef\u5e76[B]\u567b\u5429-2-\u7532\u9178\u7532\u916f", "en_name": ["Methyl 6-methoxybenzo[b]thiophene-2-carboxylate", "Benzo[b]thiophene-2-carboxylic acid, 6-methoxy-, methyl ester", "Methyl 6-methoxybenzo[b]thiophene-2-carboxylate", "6-Methoxybenzothiophene-2-carboxylic acid methyl ester", "6-Methoxybenzo[b]thiophene-2-carboxylic acid methyl ester"], "SMILES": "C(OC)(=O)C=1SC=2C(C1)=CC=C(OC)C2", "physical_data": {"Molecular Weight": "222.26", "Molecular Formula": "C11H10O3S", "Melting Point": "119-120 \u00b0C"}}