{"cas_no": "551-92-8", "cn_name": "\u4e8c\u7532\u785d\u54aa\u5511", "en_name": ["Dimetridazole", "1H-Imidazole, 1,2-dimethyl-5-nitro-", "Imidazole, 1,2-dimethyl-5-nitro-", "1,2-Dimethyl-5-nitro-1H-imidazole", "1,2-Dimethyl-5-nitroimidazole", "Dimetridazole", "Emtryl", "5-Nitro-1,2-dimethylimidazole", "Emtrylvet", "Emtrymix", "Dimetridazol", "8595RP", "Dimetronidazole", "NSC 226253", "Dimetrizadole", "MeSH ID: D004131"], "SMILES": "N(=O)(=O)C=1N(C)C(C)=NC1", "physical_data": {"Molecular Weight": "141.13", "Molecular Formula": "C5H7N3O2", "Melting Point": "138.5 \u00b0C"}}