{"cas_no": "551-08-6", "cn_name": "3-\u6b63\u4e01\u70ef\u57fa\u82ef\u915e", "en_name": ["Butylidenephthalide", "1(3H)-Isobenzofuranone, 3-butylidene-", "Phthalide, 3-butylidene-", "3-Butylidene-1(3H)-isobenzofuranone", "Butylidenephthalide", "3-Butylidenephthalide", "Ligusticum lactone", "NSC 325307"], "SMILES": "C(CCC)=C1C=2C(C(=O)O1)=CC=CC2", "physical_data": {"Molecular Weight": "188.22", "Molecular Formula": "C12H12O2", "Boiling Point": "140 \u00b0C", "Melting Point": "82-83 \u00b0C", "Density": "1.0930 g/cm\u00b3 @ Temp: 20 \u00b0C"}}