{"cas_no": "551-62-2", "cn_name": "1,2,3,4-\u56db\u6c1f\u82ef", "en_name": ["1,2,3,4-Tetrafluorobenzene", "Benzene, 1,2,3,4-tetrafluoro-", "1,2,3,4-Tetrafluorobenzene", "2,3,4,5-Tetrafluorobenzene", "o-Tetrafluorobenzene", "NSC 21635"], "SMILES": "FC1=C(F)C(F)=CC=C1F", "physical_data": {"Molecular Weight": "150.07", "Molecular Formula": "C6H2F4", "Boiling Point": "94.3 \u00b0C", "Melting Point": "-42 \u00b0C", "Density": "1.4010 g/cm\u00b3 @ Temp: 25.5 \u00b0C"}}