{"cas_no": "551-15-5", "cn_name": "\u7518\u8349\u82f7", "en_name": ["Liquiritin", "4H-1-Benzopyran-4-one, 2-[4-(\u03b2-D-glucopyranosyloxy)phenyl]-2,3-dihydro-7-hydroxy-, (2S)-", "Liquiritin", "4H-1-Benzopyran-4-one, 2-[4-(\u03b2-D-glucopyranosyloxy)phenyl]-2,3-dihydro-7-hydroxy-, (S)-", "(2S)-2-[4-(\u03b2-D-Glucopyranosyloxy)phenyl]-2,3-dihydro-7-hydroxy-4H-1-benzopyran-4-one", "7-Hydroxyflavanone 4\u2032-O-glucoside", "Liquiritoside", "4\u2032,7-Dihydroxyflavanone 4\u2032-\u03b2-D-glucoside", "Likviritin", "4\u2032,7-Dihydroxyflavanone 4\u2032-\u03b2-D-glucopyranoside", "Liquiritigenin 4\u2032-\u03b2-D-glucopyranoside"], "SMILES": "O=C1C=2C(OC(C1)C3=CC=C(OC4OC(CO)C(O)C(O)C4O)C=C3)=CC(O)=CC2", "physical_data": {"Molecular Weight": "418.39", "Molecular Formula": "C21H22O9", "Melting Point": "208 \u00b0C"}}