{"cas_no": "551-16-6", "cn_name": "6-\u6c28\u57fa\u9752\u9709\u70f7\u9178", "en_name": ["6-Aminopenicillanic acid", "4-Thia-1-azabicyclo[3.2.0]heptane-2-carboxylic acid, 6-amino-3,3-dimethyl-7-oxo-, (2S,5R,6R)-", "4-Thia-1-azabicyclo[3.2.0]heptane-2-carboxylic acid, 6-amino-3,3-dimethyl-7-oxo-", "4-Thia-1-azabicyclo[3.2.0]heptane-2-carboxylic acid, 6-amino-3,3-dimethyl-7-oxo-, [2S-(2\u03b1,5\u03b1,6\u03b2)]-", "(2S,5R,6R)-6-Amino-3,3-dimethyl-7-oxo-4-thia-1-azabicyclo[3.2.0]heptane-2-carboxylic acid", "6-APA", "6-Aminopenicillanic acid", "6-APS", "6\u03b2-Aminopenicillanic acid", "NSC 50071", "(+)-6-Aminopenicillanic acid"], "SMILES": "C(O)(=O)C1N2C(C(N)C2=O)SC1(C)C", "physical_data": {"Molecular Weight": "216.26", "Molecular Formula": "C8H12N2O3S", "Melting Point": "208-209 \u00b0C (decomp)"}}