{"cas_no": "551-68-8", "cn_name": "D-\u963f\u6d1b\u916e\u7cd6", "en_name": ["D-Psicose", "D-Psicose", "Psicose, D-", "D-Allulose", "D-ribo-2-Hexulose"], "SMILES": "C(C(C(CO)=O)O)(C(CO)O)O", "physical_data": {"Molecular Weight": "180.16", "Molecular Formula": "C6H12O6", "Melting Point": "&lt;25 \u00b0C"}}