{"cas_no": "551-93-9", "cn_name": "\u90bb\u6c28\u57fa\u82ef\u4e59\u916e", "en_name": ["2\u2032-Aminoacetophenone", "Ethanone, 1-(2-aminophenyl)-", "Acetophenone, 2\u2032-amino-", "Acetophenone, o-amino-", "1-(2-Aminophenyl)ethanone", "o-Aminoacetophenone", "2\u2032-Aminoacetophenone", "o-Aminoacetylbenzene", "2-Acetylaniline", "o-Aminophenyl methyl ketone", "1-Acetyl-2-aminobenzene", "o-Acetylaniline", "2-Aminophenyl methyl ketone", "2-Acetylphenylamine", "Methyl 2-aminophenyl ketone", "2-(Methylcarbonyl)benzenamine", "NSC 8820", "1-(2-Aminophenyl)ethan-1-one"], "SMILES": "C(C)(=O)C1=C(N)C=CC=C1", "physical_data": {"Molecular Weight": "135.16", "Molecular Formula": "C8H9NO", "Boiling Point": "85-90 \u00b0C", "Melting Point": "20 \u00b0C"}}