{"cas_no": "551-06-4", "cn_name": "1-\u8418\u5f02\u786b\u6c30\u9178\u916f", "en_name": ["1-Naphthyl isothiocyanate", "Naphthalene, 1-isothiocyanato-", "Isothiocyanic acid, 1-naphthyl ester", "1-Isothiocyanatonaphthalene", "\u03b1-Naphthyl isothiocyanate", "ANI", "ANIT", "1-Naphthyl isothiocyanate", "NSC 89741", "Naphthalen-1-yl isothiocyanate", "MeSH ID: D015058"], "SMILES": "N(=C=S)C=1C2=C(C=CC1)C=CC=C2", "physical_data": {"Molecular Weight": "185.24", "Molecular Formula": "C11H7NS", "Boiling Point": "190 \u00b0C @ Press: 20 Torr", "Melting Point": "58 \u00b0C"}}