{"cas_no": "551-11-1", "cn_name": "\u5730\u8bfa\u524d\u5217\u7d20", "en_name": ["Prostaglandin F2", "Prosta-5,13-dien-1-oic acid, 9,11,15-trihydroxy-, (5Z,9\u03b1,11\u03b1,13E,15S)-", "5-Heptenoic acid, 7-[3,5-dihydroxy-2-(3-hydroxy-1-octenyl)cyclopentyl]-", "(5Z,9\u03b1,11\u03b1,13E,15S)-9,11,15-Trihydroxyprosta-5,13-dien-1-oic acid", "PGF2\u03b1", "Prostaglandin F2\u03b1", "Prostaglandin F2a", "Dinoprost", "7-[3,5-Dihydroxy-2-(3-hydroxy-1-octenyl)cyclopentyl]-5-heptenoic acid", "U 14583", "9\u03b1,11\u03b1,15(S)-Trihydroxy-5-cis-13-trans-prostadienoic acid", "(+)-Prostaglandin F2\u03b1", "Prostin F 2 alpha", "PGF2a", "Enzaprost", "Amoglandin", "Enzaprost F", "Prostaglandin F2", "Panacelan", "Cyclosin", "Prostarmon F", "9\u03b1,11\u03b1-PGF2", "Protamodin", "Cyclosin (pharmaceutical)", "Glandin N", "9\u03b1,11\u03b1-PGF2\u03b1", "Dinifertin", "Prostamate", "Croniben", "Glandin"], "SMILES": "C(C=CCCCC(O)=O)C1C(C=CC(CCCCC)O)C(O)CC1O", "physical_data": {"Molecular Weight": "354.48", "Molecular Formula": "C20H34O5", "Melting Point": "25-35 \u00b0C"}}