{"cas_no": "5510-99-6", "cn_name": "1,6-\u4e8c\u4ef2\u4e01\u57fa\u82ef\u915a", "en_name": ["2,6-Di-sec-butylphenol", "Phenol, 2,6-bis(1-methylpropyl)-", "Phenol, 2,6-di-sec-butyl-", "2,6-Bis(1-methylpropyl)phenol", "2,6-Di-sec-butylphenol", "2,6-Bis(sec-butyl)phenol", "2,6-Di(butan-2-yl)phenol", "2,6-Bis(butan-2-yl)phenol"], "SMILES": "C(CC)(C)C1=C(O)C(C(CC)C)=CC=C1", "physical_data": {"Molecular Weight": "206.32", "Molecular Formula": "C14H22O", "Boiling Point": "257.5 \u00b0C", "Melting Point": "-42 \u00b0C", "Density": "0.9386 g/cm\u00b3 @ Temp: 20 \u00b0C"}}