{"cas_no": "55107-14-7", "cn_name": "\u65b0\u620a\u9170\u57fa\u4e59\u9178\u7532\u916f", "en_name": ["Methyl 4,4-dimethyl-3-oxopentanoate", "Pentanoic acid, 4,4-dimethyl-3-oxo-, methyl ester", "Methyl pivaloylacetate", "Methyl 3-oxo-4,4-dimethylpentanoate", "Methyl 4,4-dimethyl-3-oxopentanoate", "Methyl 4,4-dimethyl-3-oxovalerate", "4,4-Dimethyl-3-oxovaleric acid methyl ester", "Pivaloylacetic acid methyl ester", "Methyl tert-butylcarbonylacetate", "NSC 246205", "4,4-Dimethyl-3-oxopentanoic acid methyl ester", "1-Methoxy-4,4-dimethyl-1,3-dioxopentane"], "SMILES": "C(CC(OC)=O)(C(C)(C)C)=O", "physical_data": {"Molecular Weight": "158.20", "Molecular Formula": "C8H14O3", "Boiling Point": "67-70 \u00b0C @ Press: 13 Torr"}}