{"cas_no": "55117-15-2", "cn_name": "2-\u6c2f-6-\u6c1f\u6c2f\u82c4", "en_name": ["2-Chloro-6-fluorobenzyl chloride", "Benzene, 1-chloro-2-(chloromethyl)-3-fluoro-", "1-Chloro-2-(chloromethyl)-3-fluorobenzene", "2-Chloro-6-fluorobenzyl chloride", "\u03b1,2-Dichloro-6-fluorotoluene", "1-Chloro-2-chloromethyl-3-fluorobenzene"], "SMILES": "C(Cl)C1=C(Cl)C=CC=C1F", "physical_data": {"Molecular Weight": "179.02", "Molecular Formula": "C7H5Cl2F", "Melting Point": "41-43 \u00b0C"}}