{"cas_no": "55112-42-0", "cn_name": "4-\u7532\u57fa\u54cc\u55ea-1-\u7532\u9170\u6c2f\u76d0\u9178\u76d0", "en_name": ["1-Piperazinecarbonyl chloride, 4-methyl-, hydrochloride (1:1)", "1-Piperazinecarbonyl chloride, 4-methyl-, hydrochloride (1:1)", "1-Piperazinecarbonyl chloride, 4-methyl-, monohydrochloride", "1-Piperazinecarbonyl chloride, 4-methyl-, hydrochloride", "4-Methyl-1-piperazinecarbonyl chloride hydrochloride", "1-Chlorocarbonyl-4-methylpiperazine hydrochloride", "4-Methylpiperazinecarbonyl chloride hydrochloride", "1-Methylpiperazine-4-carbonyl chloride hydrochloride"], "SMILES": "C(Cl)(=O)N1CCN(C)CC1.Cl", "physical_data": {"Molecular Weight": "", "Molecular Formula": "C6H11ClN2O.ClH", "Boiling Point": "94-96 \u00b0C @ Press: 10 Torr", "Melting Point": "218-225 \u00b0C (decomp)"}}