{"cas_no": "5511-18-2", "cn_name": "1-\u91d1\u521a\u70f7\u7532\u9170\u80fa", "en_name": ["Tricyclo[3.3.1.13,7]decane-1-carboxamide", "Tricyclo[3.3.1.13,7]decane-1-carboxamide", "1-Adamantanecarboxamide", "Adamantan-1-carboxamide"], "SMILES": "C(N)(=O)C12CC3CC(C1)CC(C2)C3", "physical_data": {"Molecular Weight": "179.26", "Molecular Formula": "C11H17NO", "Melting Point": "119-120 \u00b0C"}}