{"cas_no": "55120-75-7", "cn_name": "\u4e09\u6c1f\u4ee3\u7532\u78fa\u9178\u9499\u76d0", "en_name": ["Methanesulfonic acid, 1,1,1-trifluoro-, calcium salt (2:1)", "Methanesulfonic acid, 1,1,1-trifluoro-, calcium salt (2:1)", "Methanesulfonic acid, trifluoro-, calcium salt", "Calcium bis(trifluoromethanesulfonate)", "Calcium trifluoromethanesulfonate", "Calcium triflate", "Calcium trifluoromethanesulfonate (1:2)", "Calcium ditriflate"], "SMILES": "C(S(=O)(=O)O)(F)(F)F.[Ca]", "physical_data": {"Molecular Weight": "", "Molecular Formula": "CHF3O3S.<sup>1</sup>/2Ca", "Melting Point": "350 \u00b0C"}}