{"cas_no": "55134-13-9", "cn_name": "\u7532\u57fa\u76d0\u9709\u7d20", "en_name": ["Narasin", "Salinomycin, 4-methyl-, (4S)-", "1,6,8-Trioxadispiro[4.1.5.3]pentadecane, salinomycin deriv.", "(4S)-4-Methylsalinomycin", "Antibiotic A 28086A", "A 28086A", "Narasin", "Antibiotic C 7819B", "C 7819B", "Narasin A", "Narasul", "Monteban"], "SMILES": "OC1C2(OC3(OC(C(C(C(C(C(C)C4OC(C(C(O)=O)CC)C(C)CC4C)O)C)=O)CC)C(C)CC3C)C=C1)OC(C)(CC2)C5OC(C)C(CC)(O)CC5", "physical_data": {"Molecular Weight": "765.03", "Molecular Formula": "C43H72O11", "Melting Point": "98-100 \u00b0C"}}