{"cas_no": "55142-85-3", "cn_name": "\u567b\u6c2f\u5339\u5b9a", "en_name": ["Ticlopidine", "Thieno[3,2-c]pyridine, 5-[(2-chlorophenyl)methyl]-4,5,6,7-tetrahydro-", "5-[(2-Chlorophenyl)methyl]-4,5,6,7-tetrahydrothieno[3,2-c]pyridine", "Ticlopidine", "PCR 5332", "Tiklyd", "Ticlid", "Ticlop", "MeSH ID: D013988"], "SMILES": "C(N1CC2=C(CC1)SC=C2)C3=C(Cl)C=CC=C3", "physical_data": {"Molecular Weight": "263.79", "Molecular Formula": "C14H14ClNS", "Boiling Point": "117-120 \u00b0C @ Press: 0.5 Torr", "Melting Point": "210-212 \u00b0C"}}