{"cas_no": "55145-14-7", "cn_name": "N-(\u4e8c\u7532\u80fa\u57fa-4-\u7532\u57fa\u9999\u8c46\u7d20\u57fa)\u987a\u4e01\u70ef\u4e8c\u9170\u4e9a\u80fa\u3014DACM\u3015", "en_name": ["N-(7-Dimethylamino-4-methyl-3-coumarinyl)maleimide", "1H-Pyrrole-2,5-dione, 1-[7-(dimethylamino)-4-methyl-2-oxo-2H-1-benzopyran-3-yl]-", "1-[7-(Dimethylamino)-4-methyl-2-oxo-2H-1-benzopyran-3-yl]-1H-pyrrole-2,5-dione", "N-(7-Dimethylamino-4-methyl-3-coumarinyl)maleimide", "DACM 3", "1-[7-(Dimethylamino)-4-methyl-2-oxochromen-3-yl]pyrrole-2,5-dione"], "SMILES": "CC1=C(C(=O)OC=2C1=CC=C(N(C)C)C2)N3C(=O)C=CC3=O", "physical_data": {"Molecular Weight": "298.29", "Molecular Formula": "C16H14N2O4", "Melting Point": "218.0-219.5 \u00b0C"}}