{"cas_no": "55149-83-2", "cn_name": "2-\u4e59\u6c27\u57fa-2-\u4e9a\u80fa\u4e59\u9178\u4e59\u916f\u76d0\u9178\u76d0", "en_name": ["Ethanediimidic acid, 1,2-diethyl ester, hydrochloride (1:1)", "Ethanediimidic acid, 1,2-diethyl ester, hydrochloride (1:1)", "Acetic acid, ethoxyimino-, ethyl ester, hydrochloride"], "SMILES": "C(C(OCC)=O)(OCC)=N.Cl", "physical_data": {"Molecular Weight": "", "Molecular Formula": "C6H11NO3.ClH", "Melting Point": "104 \u00b0C"}}