{"cas_no": "55179-31-2", "cn_name": "\u8054\u82ef\u4e09\u5511\u9187", "en_name": ["Bitertanol", "1H-1,2,4-Triazole-1-ethanol, \u03b2-([1,1\u2032-biphenyl]-4-yloxy)-\u03b1-(1,1-dimethylethyl)-", "\u03b2-([1,1\u2032-Biphenyl]-4-yloxy)-\u03b1-(1,1-dimethylethyl)-1H-1,2,4-triazole-1-ethanol", "KWG 0599", "Baycor", "Biloxazol", "Bitertanol", "Baycor 25WP", "Baycor DC 300"], "SMILES": "C(OC1=CC=C(C=C1)C2=CC=CC=C2)(C(C(C)(C)C)O)N3C=NC=N3", "physical_data": {"Molecular Weight": "337.42", "Molecular Formula": "C20H23N3O2", "Melting Point": "127 \u00b0C"}}