{"cas_no": "5519-23-3", "cn_name": "4-\u7678\u6c27\u57fa\u82ef\u7532\u9178", "en_name": ["4-(Decyloxy)benzoic acid", "Benzoic acid, 4-(decyloxy)-", "Benzoic acid, p-(decyloxy)-", "4-(Decyloxy)benzoic acid", "p-(n-Decyloxy)benzoic acid", "p-(Decyloxy)benzoic acid", "4-(n-Decyloxy)benzoic acid"], "SMILES": "O(CCCCCCCCCC)C1=CC=C(C(O)=O)C=C1", "physical_data": {"Molecular Weight": "278.39", "Molecular Formula": "C17H26O3", "Melting Point": "94-133 \u00b0C"}}