{"cas_no": "552-58-9", "cn_name": "\u5723\u8349\u915a", "en_name": ["(+)-Eriodictyol", "4H-1-Benzopyran-4-one, 2-(3,4-dihydroxyphenyl)-2,3-dihydro-5,7-dihydroxy-, (2S)-", "Eriodictyol", "Flavanone, 3\u2032,4\u2032,5,7-tetrahydroxy-", "4H-1-Benzopyran-4-one, 2-(3,4-dihydroxyphenyl)-2,3-dihydro-5,7-dihydroxy-, (S)-", "(2S)-2-(3,4-Dihydroxyphenyl)-2,3-dihydro-5,7-dihydroxy-4H-1-benzopyran-4-one", "(S)-3\u2032,4\u2032,5,7-Tetrahydroxyflavanone", "(2S)-Eriodictyol", "Huazhongilexone", "(+)-Eriodictyol", "3\u2032,4\u2032,5,7-Tetrahydroxyflavanone", "(S)-2,3-Dihydroluteolin", "(2S)-2-(3,4-Dihydroxyphenyl)-5,7-dihydroxy-2,3-dihydrochromen-4-one"], "SMILES": "O=C1C=2C(OC(C1)C3=CC(O)=C(O)C=C3)=CC(O)=CC2O", "physical_data": {"Molecular Weight": "288.25", "Molecular Formula": "C15H12O6", "Melting Point": "267 \u00b0C (decomp)"}}