{"cas_no": "552-79-4", "cn_name": "\u7532\u57fa\u9ebb\u9ec4\u78b1", "en_name": ["Methylephedrine", "Benzenemethanol, \u03b1-[(1S)-1-(dimethylamino)ethyl]-, (\u03b1R)-", "Benzyl alcohol, \u03b1-[1-(dimethylamino)ethyl]-, (-)-", "Benzenemethanol, \u03b1-[1-(dimethylamino)ethyl]-, [R-(R*,S*)]-", "Ephedrine, N-methyl-, L-", "(\u03b1R)-\u03b1-[(1S)-1-(Dimethylamino)ethyl]benzenemethanol", "(-)-N-Methylephedrine", "N-Methyl-L-ephedrine", "(1R,2S)-(-)-N-Methylephedrine", "N-Methylephedrine", "Methylephedrine", "(1R,2S)-N-Methylephedrine", "L-N-Methylephedrine", "(1R,2S)-2-Dimethylamino-1-phenylpropanol", "(1R,2S)-3-Dimethylamino-1-phenyl-1-propanol", "(1R,2S)-2-Dimethylamino-1-phenyl-1-propanol", "(-)-Methylephedrine", "(1R,2S)-Methylephedrine", "(1R,2S)-N-Methylephedrin"], "SMILES": "C(C(N(C)C)C)(O)C1=CC=CC=C1", "physical_data": {"Molecular Weight": "179.26", "Molecular Formula": "C11H17NO", "Melting Point": "87.5 \u00b0C"}}