{"cas_no": "552-41-0", "cn_name": "\u4e39\u76ae\u915a", "en_name": ["Paeonol", "Ethanone, 1-(2-hydroxy-4-methoxyphenyl)-", "Peonol", "Acetophenone, 2\u2032-hydroxy-4\u2032-methoxy-", "1-(2-Hydroxy-4-methoxyphenyl)ethanone", "4-O-Methylresacetophenone", "Paeonol", "2\u2032-Hydroxy-4\u2032-methoxyacetophenone", "Resacetophenone 4-O-methyl ether", "2-Acetyl-5-methoxyphenol", "4\u2032-Methoxy-2\u2032-hydroxyacetophenone", "2-Hydroxy-4-methoxyphenyl methyl ketone", "NSC 401442", "1-(4-Methoxy-2-hydroxyphenyl)ethanone", "1-(2-Hydroxy-4-methoxyphenyl)ethan-1-one", "Paeonolum", "Paconol", "4-Methoxy-2-hydroxyacetophenone"], "SMILES": "C(C)(=O)C1=C(O)C=C(OC)C=C1", "physical_data": {"Molecular Weight": "166.17", "Molecular Formula": "C9H10O3", "Boiling Point": "145-147 \u00b0C @ Press: 5 Torr", "Melting Point": "52.5 \u00b0C"}}