{"cas_no": "552-46-5", "cn_name": "1-\u8418\u80fa\u76d0\u9178\u76d0", "en_name": ["1-Naphthylamine, hydrochloride", "1-Naphthalenamine, hydrochloride (1:1)", "1-Naphthylamine, hydrochloride", "1-Naphthalenamine, hydrochloride", "\u03b1-Naphthylamine hydrochloride", "1-Naphthylammonium chloride", "1-Aminonaphthalene hydrochloride"], "SMILES": "NC=1C2=C(C=CC1)C=CC=C2.Cl", "physical_data": {"Molecular Weight": "", "Molecular Formula": "C10H9N.ClH", "Melting Point": "270-271 \u00b0C"}}