{"cas_no": "552-86-3", "cn_name": "\u7ce0\u5076\u59fb", "en_name": ["Furoin", "Ethanone, 1,2-di-2-furanyl-2-hydroxy-", "Furoin", "1,2-Di-2-furanyl-2-hydroxyethanone", "\u03b1-Furoin", "1,2-Bis(2-furyl)-2-hydroxyethanone", "2-Furyl(hydroxy)methyl 2-furyl ketone", "NSC 18522", "NSC 6105", "(\u00b1)-Furoin", "2-Hydroxy-1,2-di-2-furanyl-ethanone", "1,2-Di(2-furyl)-2-hydroxyethanone", "1,2-Bis(furan-2-yl)-2-hydroxyethanone", "1,2-Bis(furan-2-yl)-2-hydroxyethan-1-one", "1,2-Di(2-furyl)-2-hydroxyethan-1-one"], "SMILES": "C(C(=O)C1=CC=CO1)(O)C2=CC=CO2", "physical_data": {"Molecular Weight": "192.17", "Molecular Formula": "C10H8O4", "Melting Point": "39-138 \u00b0C"}}