{"cas_no": "552-32-9", "cn_name": "2-\u785d\u57fa\u4e59\u9170\u82ef\u80fa", "en_name": ["N-(2-Nitrophenyl)acetamide", "Acetamide, N-(2-nitrophenyl)-", "Acetanilide, 2\u2032-nitro-", "N-(2-Nitrophenyl)acetamide", "o-Nitroacetanilide", "2\u2032-Nitroacetanilide", "N-Acetyl-o-nitroaniline", "NSC 1313"], "SMILES": "N(=O)(=O)C1=C(NC(C)=O)C=CC=C1", "physical_data": {"Molecular Weight": "180.16", "Molecular Formula": "C8H8N2O3", "Boiling Point": "100 \u00b0C", "Melting Point": "94 \u00b0C", "Density": "1.419 g/cm\u00b3 @ Temp: 15 \u00b0C"}}