{"cas_no": "552-89-6", "cn_name": "\u90bb\u785d\u57fa\u82ef\u7532\u919b", "en_name": ["2-Nitrobenzaldehyde", "Benzaldehyde, 2-nitro-", "Benzaldehyde, o-nitro-", "o-Nitrobenzaldehyde", "2-Nitrobenzaldehyde", "1-Formyl-2-nitrobenzene", "2-Formyl-3-nitrobenzene", "NSC 5713", "2-Nitrobenzenecarboxaldehyde", "2-Formyl-1-nitrobenzene"], "SMILES": "C(=O)C1=C(N(=O)=O)C=CC=C1", "physical_data": {"Molecular Weight": "151.12", "Molecular Formula": "C7H5NO3", "Boiling Point": "153 \u00b0C @ Press: 23 Torr", "Melting Point": "43.5 \u00b0C"}}