{"cas_no": "552-16-9", "cn_name": "\u90bb\u785d\u57fa\u82ef\u7532\u9178", "en_name": ["2-Nitrobenzoic acid", "Benzoic acid, 2-nitro-", "Benzoic acid, o-nitro-", "2-Nitrobenzoic acid", "o-Nitrobenzoic acid", "o-Carboxynitrobenzene", "NSC 9576"], "SMILES": "C(O)(=O)C1=C(N(=O)=O)C=CC=C1", "physical_data": {"Molecular Weight": "167.12", "Molecular Formula": "C7H5NO4", "Melting Point": "147.5 \u00b0C"}}