{"cas_no": "552-82-9", "cn_name": "N-\u7532\u57fa\u4e8c\u82ef\u80fa", "en_name": ["N-Methyl-N-phenylbenzenamine", "Benzenamine, N-methyl-N-phenyl-", "Diphenylamine, N-methyl-", "N-Methyl-N-phenylbenzenamine", "Diphenylmethylamine", "Methyldiphenylamine", "N,N-Diphenylmethylamine", "N-Methyldiphenylamine", "N-Methyl-N-phenylaniline", "Diphenylaminomethane", "NSC 3790", "N-Methyl-N,N-diphenylamine"], "SMILES": "N(C)(C1=CC=CC=C1)C2=CC=CC=C2", "physical_data": {"Molecular Weight": "183.25", "Molecular Formula": "C13H13N", "Boiling Point": "293.5 \u00b0C", "Melting Point": "-7.5 \u00b0C", "Density": "1.056 g/cm\u00b3 @ Temp: 15 \u00b0C"}}