{"cas_no": "552-70-5", "cn_name": "9-\u7532\u57fa-9-\u6c2e\u6742\u53cc\u73af[3.3.1]\u58ec-3-\u916e", "en_name": ["Pseudopelletierine", "9-Azabicyclo[3.3.1]nonan-3-one, 9-methyl-", "Pseudopelletierine", "9-Methyl-9-azabicyclo[3.3.1]nonan-3-one", "9-Methyl-3-granataninone", "\u03c8-Pelletierine", "Granatan-3-one", "9-Methyl-3-granatanone", "Pseudopunicine", "Pseudopelletierin", "NSC 116056"], "SMILES": "CN1C2CC(=O)CC1CCC2", "physical_data": {"Molecular Weight": "153.22", "Molecular Formula": "C9H15NO", "Boiling Point": "246 \u00b0C", "Melting Point": "54 \u00b0C"}}