{"cas_no": "552-30-7", "cn_name": "\u504f\u82ef\u4e09\u9178\u9150", "en_name": ["Trimellitic anhydride", "5-Isobenzofurancarboxylic acid, 1,3-dihydro-1,3-dioxo-", "1,2,4-Benzenetricarboxylic acid, cyclic 1,2-anhydride", "Trimellitic acid anhydride", "1,2,4-Benzenetricarboxylic acid, anhydride", "1,3-Dihydro-1,3-dioxo-5-isobenzofurancarboxylic acid", "Anhydrotrimellitic acid", "1,3-Dioxo-5-phthalancarboxylic acid", "Trimellitic acid 1,2-anhydride", "Trimellitic anhydride", "1,2,4-Benzenetricarboxylic anhydride", "Trimellitic acid cyclic 1,2-anhydride", "4-Carboxyphthalic anhydride", "Epon 9150", "1,2,4-Benzenetricarboxylic acid 1,2-anhydride", "NSC 60252", "Benzene-1,3,4-tricarboxylic anhydride", "TMA (anhydride)", "TMA", "CE-X 23 Medium", "Aradur 3380-1", "1,3-Dioxo-1,3-dihydroisobenzofuran-5-carboxylic acid", "1,3-Dioxo-1,3-dihydro-2-benzofuran-5-carboxylic acid"], "SMILES": "O=C1C=2C(C(=O)O1)=CC=C(C(O)=O)C2", "physical_data": {"Molecular Weight": "192.13", "Molecular Formula": "C9H4O5", "Boiling Point": "390 \u00b0C", "Melting Point": "161-163.5 \u00b0C"}}