{"cas_no": "552-54-5", "cn_name": "3,7-\u4e8c-O-\u7532\u57fa\u69f2\u76ae\u7d20", "en_name": ["Rhamnazin", "4H-1-Benzopyran-4-one, 3,5-dihydroxy-2-(4-hydroxy-3-methoxyphenyl)-7-methoxy-", "Flavone, 3,4\u2032,5-trihydroxy-3\u2032,7-dimethoxy-", "Rhamnazin", "3,5-Dihydroxy-2-(4-hydroxy-3-methoxyphenyl)-7-methoxy-4H-1-benzopyran-4-one", "C.I. 75700", "Rhamnacine", "7,3\u2032-Dimethylquercetin", "Quercetin 3\u2032,7-dimethyl ether", "Quercetin 7,3\u2032-dimethyl ether", "3\u2032,7-Dimethylquercetin", "7,3\u2032-Di-O-methylquercetin", "3,4\u2032,5-Trihydroxy-3\u2032,7-dimethoxyflavone", "NSC 678106", "3\u2032,7-Di-O-methylquercetin", "3,5-Dihydroxy-2-(4-hydroxy-3-methoxyphenyl)-7-methoxychromen-4-one"], "SMILES": "O=C1C=2C(OC(=C1O)C3=CC(OC)=C(O)C=C3)=CC(OC)=CC2O", "physical_data": {"Molecular Weight": "330.29", "Molecular Formula": "C17H14O7", "Melting Point": "214-215 \u00b0C"}}