{"cas_no": "552-45-4", "cn_name": "\u90bb\u7532\u57fa\u6c2f\u5316\u82c4", "en_name": ["2-Methylbenzyl chloride", "Benzene, 1-(chloromethyl)-2-methyl-", "o-Xylene, \u03b1-chloro-", "1-(Chloromethyl)-2-methylbenzene", "\u03c9-Chloro-o-xylene", "o-Xylyl chloride", "o-Xylyl-\u03b1-chloride", "o-Methylbenzyl chloride", "\u03b1-Chloro-o-xylene", "2-Methylbenzyl chloride", "2-(Chloromethyl)toluene", "o-Chloromethyltoluene", "1-Methyl-2-chloromethylbenzene"], "SMILES": "C(Cl)C1=C(C)C=CC=C1", "physical_data": {"Molecular Weight": "140.61", "Molecular Formula": "C8H9Cl", "Boiling Point": "195-203 \u00b0C", "Melting Point": "96.7 \u00b0C", "Density": "1.083 g/cm\u00b3 @ Temp: 21 \u00b0C"}}