{"cas_no": "552-66-9", "cn_name": "\u8c46\u82f7", "en_name": ["Daidzin", "4H-1-Benzopyran-4-one, 7-(\u03b2-D-glucopyranosyloxy)-3-(4-hydroxyphenyl)-", "Daidzin", "7-(\u03b2-D-Glucopyranosyloxy)-3-(4-hydroxyphenyl)-4H-1-benzopyran-4-one", "Daidzein 7-glucoside", "7,4\u2032-Dihydroxyisoflavone 7-glucoside", "Daidzoside", "Daidzein 7-O-glucoside", "NPI 031D", "Daidzine"], "SMILES": "O=C1C=2C(=CC(OC3OC(CO)C(O)C(O)C3O)=CC2)OC=C1C4=CC=C(O)C=C4", "physical_data": {"Molecular Weight": "416.38", "Molecular Formula": "C21H20O9", "Melting Point": "215-217 \u00b0C (decomp)"}}