{"cas_no": "552-94-3", "cn_name": "\u53cc\u6c34\u6768\u9178\u916f", "en_name": ["Salicylsalicylic acid", "Benzoic acid, 2-hydroxy-, 2-carboxyphenyl ester", "Salicylic acid, bimol. ester", "Salicylic acid, salicylate", "Diplosal", "Disalicylic acid", "Salysal", "o-Salicylsalicylic acid", "Salsalate", "Salicyloylsalicylic acid", "Salicylsalicylic acid", "Diacesal", "Sasapirin", "Sasapyrinum", "Disalyl", "Nobacid", "Salical", "Salina", "Disalcid", "Sasapyrine", "Salicyl salicylate", "Salicyloxysalicylic acid", "Mono-Gesic", "NSC 49171", "Salflex", "Disalgesic", "2-Hydroxybenzoic acid 2-carboxyphenyl ester", "2-(2-Hydroxybenzoyl)oxybenzoic acid", "2-(2-Hydroxybenzoyloxy)benzoic acid", "2-((2-Hydroxybenzoyl)oxy)benzoicacid"], "SMILES": "O(C(=O)C1=C(O)C=CC=C1)C2=C(C(O)=O)C=CC=C2", "physical_data": {"Molecular Weight": "258.23", "Molecular Formula": "C14H10O5", "Melting Point": "147 \u00b0C"}}