{"cas_no": "552-57-8", "cn_name": "\u5f02\u91ce\u6f06\u6811\u82f7", "en_name": ["Apigenin 7-O-rutinoside", "4H-1-Benzopyran-4-one, 7-[[6-O-(6-deoxy-\u03b1-L-mannopyranosyl)-\u03b2-D-glucopyranosyl]oxy]-5-hydroxy-2-(4-hydroxyphenyl)-", "Isorhoifolin", "Flavone, 4\u2032,5,7-trihydroxy-, 7-\u03b2-rutinoside", "7-[[6-O-(6-Deoxy-\u03b1-L-mannopyranosyl)-\u03b2-D-glucopyranosyl]oxy]-5-hydroxy-2-(4-hydroxyphenyl)-4H-1-benzopyran-4-one", "Apigenin 7-rutinoside", "Apigenin 7-\u03b2-rutinoside", "Apigenin 7-O-\u03b2-D-glucopyranosyl-(6\u21921)-\u03b1-L-rhamnopyranoside", "5,7,4\u2032-Trihydroxyflavone 7-O-rutinoside", "Apigenin 7-O-rutinoside", "Apigenin 7-O-\u03b1-L-rhamnosyl-(1\u21926)-\u03b2-D-glucopyranoside", "Apigenin-7-O-\u03b2-D-rutinoside", "Apigenin-7-O-gluco(6\u2032-1\u2032\u2032\u2032) rhamnoside", "Apigenin 7-O-\u03b1-L-rhamnopyranosyl-(1\u21926)-\u03b2-D-glucopyranoside"], "SMILES": "O=C1C=2C(OC(=C1)C3=CC=C(O)C=C3)=CC(OC4OC(COC5C(O)C(O)C(O)C(C)O5)C(O)C(O)C4O)=CC2O", "physical_data": {"Molecular Weight": "578.52", "Molecular Formula": "C27H30O14", "Melting Point": "262-264 \u00b0C"}}