{"cas_no": "552-62-5", "cn_name": "7-\u7532\u57fa\u9ec4\u560c\u5464", "en_name": ["7-Methylxanthine", "1H-Purine-2,6-dione, 3,7-dihydro-7-methyl-", "Heteroxanthine", "3,7-Dihydro-7-methyl-1H-purine-2,6-dione", "7-Methylxanthine", "NSC 7861"], "SMILES": "O=C1C2=C(NC(=O)N1)N=CN2C", "physical_data": {"Molecular Weight": "166.14", "Molecular Formula": "C6H6N4O2", "Melting Point": "&gt;300 \u00b0C"}}