{"cas_no": "552-59-0", "cn_name": "\u6a31\u9ec4\u7d20", "en_name": ["Prunetin", "4H-1-Benzopyran-4-one, 5-hydroxy-3-(4-hydroxyphenyl)-7-methoxy-", "Isoflavone, 4\u2032,5-dihydroxy-7-methoxy-", "Prunetin", "5-Hydroxy-3-(4-hydroxyphenyl)-7-methoxy-4H-1-benzopyran-4-one", "5,4\u2032-Dihydroxy-7-methoxyisoflavone", "7-O-Methylgenistein"], "SMILES": "O=C1C=2C(=CC(OC)=CC2O)OC=C1C3=CC=C(O)C=C3", "physical_data": {"Molecular Weight": "284.26", "Molecular Formula": "C16H12O5", "Melting Point": "239.5 \u00b0C"}}