{"cas_no": "55203-24-2", "cn_name": "\u5730\u585e\u7c73\u677e\u78f7\u9178\u94a0", "en_name": ["Dexamethasone sodium phosphate", "Pregna-1,4-diene-3,20-dione, 9-fluoro-11,17-dihydroxy-16-methyl-21-(phosphonooxy)-, sodium salt (1:2), (11\u03b2,16\u03b1)-", "Pregna-1,4-diene-3,20-dione, 9-fluoro-11\u03b2,17,21-trihydroxy-16\u03b1-methyl-, 21-(dihydrogen phosphate) disodium salt", "Pregna-1,4-diene-3,20-dione, 9-fluoro-11,17-dihydroxy-16-methyl-21-(phosphonooxy)-, disodium salt, (11\u03b2,16\u03b1)-", "Pregna-1,4-diene-3,20-dione, 9-fluoro-11\u03b2,17,21-trihydroxy-16\u03b1-methyl-, 21-phosphate disodium salt", "Dexamethasone disodium phosphate", "Dexamethasone 21-(disodium phosphate)", "Dexamethasone phosphate disodium salt", "Disodium dexamethasone 21-monophosphate", "Disodium dexamethasone phosphate", "Dexamethasone sodium phosphate", "Dexamethasone 21-phosphate disodium salt", "Dexamethasone phosphate sodium salt", "Solu-Decadron", "Disodium dexamethasone 21-phosphate", "Dexamethazone sodium phosphate", "Decadron phosphate", "Dexadreson", "Dexagro", "Megacort", "Soldesam", "Spersadex", "Turbinaire", "Sodium dexamethasone phosphate", "Dexacort", "Corson", "Decdan", "Dexagel", "Corson (pharmaceutical)", "Solu-Deca", "Dezone", "Dexabene", "Baldex", "Orgadrone", "Ak-Dex", "Colvasone", "Maxidex Ointment", "Dalalone", "Onadron", "Desashock"], "SMILES": "CC12C(C3C(F)(C4(C)C(CC3)=CC(=O)C=C4)C(O)C1)CC(C)C2(C(COP(=O)(O)O)=O)O.[Na]", "physical_data": {"Molecular Weight": "", "Molecular Formula": "C22H30FO8P.2Na", "Melting Point": "233-235 \u00b0C"}}