{"cas_no": "5521-60-8", "cn_name": "5-\u7532\u57fa\u5421\u55ea-2,3-\u4e8c\u7fa7\u9178", "en_name": ["5-Methyl-2,3-pyrazinedicarboxylic acid", "2,3-Pyrazinedicarboxylic acid, 5-methyl-", "5-Methyl-2,3-pyrazinedicarboxylic acid", "6-Methylpyrazine-2,3-dicarboxylic acid", "NSC 89408", "5-Methylpyrazine-2,3-dicarboxylic acid"], "SMILES": "C(O)(=O)C=1C(C(O)=O)=NC(C)=CN1", "physical_data": {"Molecular Weight": "182.13", "Molecular Formula": "C7H6N2O4", "Melting Point": "174-175 \u00b0C"}}