{"cas_no": "5521-56-2", "cn_name": "2-\u6c28\u57fa-6-\u7532\u57fa\u5421\u55ea", "en_name": ["6-Methyl-2-pyrazinamine", "2-Pyrazinamine, 6-methyl-", "Pyrazine, 2-amino-6-methyl-", "Pyrazinamine, 6-methyl-", "6-Methyl-2-pyrazinamine", "2-Amino-6-methylpyrazine", "6-Methylpyrazin-2-ylamine"], "SMILES": "CC1=NC(N)=CN=C1", "physical_data": {"Molecular Weight": "109.13", "Molecular Formula": "C5H7N3", "Melting Point": "124-125 \u00b0C"}}