{"cas_no": "5521-31-3", "cn_name": "\u989c\u6599\u7ea2 179", "en_name": ["Pigment Red 179", "Anthra[2,1,9-def:6,5,10-d'e'f\u2032]diisoquinoline-1,3,8,10(2H,9H)-tetrone, 2,9-dimethyl-", "3,4,9,10-Perylenetetracarboxylic 3,4:9,10-diimide, N,N\u2032-dimethyl-", "2,9-Dimethylanthra[2,1,9-def:6,5,10-d'e'f\u2032]diisoquinoline-1,3,8,10(2H,9H)-tetrone", "C.I. 71130", "Caledon Red 2GN", "Caledon Red 2G", "C.I. Vat Red 23", "Indanthren Red GG", "Palanthrene Red GG", "Ponsol Red YF", "Perylene 3,4,9,10-tetracarboxylic acid bis(methylimide)", "3,4,9,10-Perylenetetracarboxylic 3,4:9,10-bis(N-methylimide)", "N,N\u2032-Dimethyl-3,4,9,10-perylenetetracarboxylic diimide", "N,N\u2032-Dimethylperylene-3,4,9,10-tetracarboxylic 3,4:9,10-diimide", "N,N\u2032-Dimethylperylene-3,4,9,10-tetracarboxylic acid diimide", "Paliogen Maroon 3920", "C.I. Pigment Red 179", "Pigment Perylene Bordeaux", "Pigment Bordeaux Perylene", "Perylene Bordeaux", "Variogen Maroon 3920", "Paliogen Maroon L 4020", "Paliogen Red 4120", "Perylene maroon", "N,N\u2032-Dimethylperylene-3,4:9,10-bis(dicarboximide)", "Paliogen Maroon L 3920", "Hostaperm Red P 2GL", "Indanthrene Red", "Perrindo Maroon R 6436", "Variogen Maroon L 4020", "Paliogen Maroon L 3820", "N-Methyl-3,4,9,10-perylenetetracarboxyldiimide", "Fastogen Super Maroon PSK", "Poliagen Maroon 3920", "Pigment Red 179", "Paliogen Maroon L 3980", "Perrindo Maroon R 6424", "Perrindo Maroon 6424", "Hostaperm Red P 2GL-WD", "2,9-Dimethylantra[2,1,9-def:6,5,10-d'e'f\u2032]diisoquinoline-1,3,8,10-tetrone", "Maroon R 6436", "Paliogen Red L 4120", "Paliogen Red L 3885", "N,N\u2032-Dimethylperylenetetracarboxylic bisimide", "Sunfast Red 179-229-2179", "N,N\u2032-Dimethylperylene-3,4,9,10-dicarboximide", "Perylene Maroon R 6436", "N,N\u2032-Dimethyl-3,4,9,10-perylenetetracarboximide", "Indanthren Red FGL", "Hostafine Red P 2GL", "Me-PTCDI", "Irgazin Red 2273", "Irgazin Maroon 3379", "Paliogen Red L 3875", "Perylene-3,4,9,10-tetracarboxylic acid N,N\u2032-bismethylimide", "Paliogenrot 3885", "Perrindo Maroon 179R6436-229-6436", "Irgazin Red 179", "PR 179", "Irgazin Red 379", "Lumogen Black FK 4280", "Perrindo Maroon 179-229-6438", "Perrind Maroon 179-229-6440", "C.I. PR 179", "Lumogen FK 4280", "Black FK 4280", "L 3920", "Perrind Maroon 179-229-6438", "Perrindo Maroon 179-229-8801", "Hostatint Red A-P 2Y", "Maroon 179 229-6438", "Perrindo Maroon 179", "DTXSID9029273", "Lumogen Black Presentation 2J"], "SMILES": "O=C1C=2C3=C4C(C=5C=6C(C4=CC2)=CC=C7C6C(=CC5)C(=O)N(C)C7=O)=CC=C3C(=O)N1C", "physical_data": {"Molecular Weight": "418.40", "Molecular Formula": "C26H14N2O4", "Melting Point": "207-208 \u00b0C"}}