{"cas_no": "5521-55-1", "cn_name": "5-\u7532\u57fa\u5421\u55ea-2-\u7fa7\u9178", "en_name": ["5-Methyl-2-pyrazinecarboxylic acid", "2-Pyrazinecarboxylic acid, 5-methyl-", "Pyrazinecarboxylic acid, 5-methyl-", "5-Methyl-2-pyrazinecarboxylic acid", "2-Methylpyrazine-5-carboxylic acid", "5-Methyl-2-pyrazinoic acid", "5-Methylpyrazine carboxylic acid"], "SMILES": "C(O)(=O)C=1C=NC(C)=CN1", "physical_data": {"Molecular Weight": "138.12", "Molecular Formula": "C6H6N2O2", "Melting Point": "164-165 \u00b0C"}}