{"cas_no": "5521-58-4", "cn_name": "2-\u6c28\u57fa-5-\u7532\u57fa\u5421\u55ea", "en_name": ["5-Methyl-2-pyrazinamine", "2-Pyrazinamine, 5-methyl-", "Pyrazine, 2-amino-5-methyl-", "Pyrazinamine, 5-methyl-", "5-Methyl-2-pyrazinamine", "2-Amino-5-methylpyrazine"], "SMILES": "CC=1C=NC(N)=CN1", "physical_data": {"Molecular Weight": "109.13", "Molecular Formula": "C5H7N3", "Boiling Point": "110 \u00b0C @ Press: 2 Torr", "Melting Point": "116-117 \u00b0C"}}