{"cas_no": "5521-57-3", "cn_name": "5-\u7532\u57fa\u5421\u55ea-2-\u7fa7\u9170\u80fa", "en_name": ["5-Methyl-2-pyrazinecarboxamide", "2-Pyrazinecarboxamide, 5-methyl-", "Pyrazinecarboxamide, 5-methyl-", "5-Methyl-2-pyrazinecarboxamide", "2-Methylpyrazine-5-carboxamide", "5-Methylpyrazine-2-carboxamide"], "SMILES": "C(N)(=O)C=1C=NC(C)=CN1", "physical_data": {"Molecular Weight": "137.14", "Molecular Formula": "C6H7N3O", "Melting Point": "210-211 \u00b0C"}}