{"cas_no": "55219-65-3", "cn_name": "\u4e09\u5511\u9187", "en_name": ["Triadimenol", "1H-1,2,4-Triazole-1-ethanol, \u03b2-(4-chlorophenoxy)-\u03b1-(1,1-dimethylethyl)-", "\u03b2-(4-Chlorophenoxy)-\u03b1-(1,1-dimethylethyl)-1H-1,2,4-triazole-1-ethanol", "Triadimenol", "Baytan", "Bayfidan", "Baytan TF 3479B", "Bayfidan EW", "Baytan 15", "UK 199", "Spinnaker", "KWG 0519", "Shavit", "Photon 60GR", "Vydine", "Baytan N", "Tribute", "Tribute (fungicide)"], "SMILES": "C(OC1=CC=C(Cl)C=C1)(C(C(C)(C)C)O)N2C=NC=N2", "physical_data": {"Molecular Weight": "295.76", "Molecular Formula": "C14H18ClN3O2", "Melting Point": "124 \u00b0C"}}