{"cas_no": "5522-66-7", "cn_name": "\u539f\u535f\u5549 IX \u4e8c\u7532\u916f", "en_name": ["2,18-Dimethyl 7,12-diethenyl-3,8,13,17-tetramethyl-21H,23H-porphine-2,18-dipropanoate", "21H,23H-Porphine-2,18-dipropanoic acid, 7,12-diethenyl-3,8,13,17-tetramethyl-, 2,18-dimethyl ester", "2,18-Porphinedipropionic acid, 3,7,12,17-tetramethyl-8,13-divinyl-, dimethyl ester", "21H,23H-Porphine-2,18-dipropanoic acid, 7,12-diethenyl-3,8,13,17-tetramethyl-, dimethyl ester", "Protoporphyrin IX di-Me ester", "Protoporphyrin dimethyl ester", "2,18-Dimethyl 7,12-diethenyl-3,8,13,17-tetramethyl-21H,23H-porphine-2,18-dipropanoate", "Protoporphyrin IX dimethyl ester", "Protoporphyrin IX methyl ester", "NSC 19666"], "SMILES": "C(CC(OC)=O)C1=C2C=C3C(CCC(OC)=O)=C(C)C(=N3)C=C4NC(=CC5=NC(=CC(N2)=C1C)C(C=C)=C5C)C(C=C)=C4C", "physical_data": {"Molecular Weight": "590.71", "Molecular Formula": "C36H38N4O4", "Melting Point": "228-230 \u00b0C"}}