{"cas_no": "5522-43-0", "cn_name": "1-\u785d\u57fa\u8298", "en_name": ["1-Nitropyrene", "Pyrene, 1-nitro-", "1-Nitropyrene", "3-Nitropyrene", "NSC 81340"], "SMILES": "N(=O)(=O)C1=C2C3=C4C(C=C2)=CC=CC4=CC=C3C=C1", "physical_data": {"Molecular Weight": "247.25", "Molecular Formula": "C16H9NO2", "Melting Point": "155 \u00b0C"}}