{"cas_no": "55234-58-7", "cn_name": "3-\u6c28\u57fa\u5421\u5576-2-\u919b", "en_name": ["3-Amino-2-pyridinecarboxaldehyde", "2-Pyridinecarboxaldehyde, 3-amino-", "Picolinaldehyde, 3-amino-", "3-Amino-2-pyridinecarboxaldehyde", "3-Aminopicolinaldehyde", "3-Aminopyridine-2-carbaldehyde", "3-Amino-pyridine-2-carbaldehyde"], "SMILES": "C(=O)C1=C(N)C=CC=N1", "physical_data": {"Molecular Weight": "122.12", "Molecular Formula": "C6H6N2O", "Melting Point": "134 \u00b0C"}}