{"cas_no": "552331-00-7", "cn_name": "4-\u7898\u5421\u5576-2-\u80fa", "en_name": ["4-Iodo-2-pyridinamine", "2-Pyridinamine, 4-iodo-", "4-Iodo-2-pyridinamine", "(4-Iodopyridin-2-yl)amine", "4-Iodopyridin-2-amine", "2-Amino-4-iodopyridine", "4-Iodo-2-aminopyridine"], "SMILES": "IC=1C=C(N)N=CC1", "physical_data": {"Molecular Weight": "220.01", "Molecular Formula": "C5H5IN2", "Melting Point": "163-164 \u00b0C"}}