{"cas_no": "5524-05-0", "cn_name": "\u4e8c\u6c22\u9999\u82b9\u916e", "en_name": ["(+)-Dihydrocarvone", "Cyclohexanone, 2-methyl-5-(1-methylethenyl)-, (2R,5R)-", "p-Menth-8-en-2-one, (+)-", "Cyclohexanone, 2-methyl-5-(1-methylethenyl)-, (2R-trans)-", "(2R,5R)-2-Methyl-5-(1-methylethenyl)cyclohexanone", "(+)-Dihydrocarvone", "(1R,4R)-(+)-Dihydrocarvone", "(1R,4R)-Dihydrocarvone", "(2R,5R)-5-Isopropenyl-2-methylcyclohexanone", "d-Dihydrocarvone", "(+)-trans-Dihydrocarvone", "(2R,5R)-(+)-Dihydrocarvone", "(2R,5R)-2-Methyl-5-(prop-1-en-2-yl)cyclohexan-1-one", "trans-(+)-Dihydrocarvone"], "SMILES": "C(C)(=C)C1CC(=O)C(C)CC1", "physical_data": {"Molecular Weight": "152.23", "Molecular Formula": "C10H16O", "Boiling Point": "98-99 \u00b0C @ Press: 16 Torr"}}