{"cas_no": "55242-64-3", "cn_name": "3-\u7532\u57fa-7-\u4e19\u57fa\u9ec4\u560c\u5464", "en_name": ["3,7-Dihydro-3-methyl-7-propyl-1H-purine-2,6-dione", "1H-Purine-2,6-dione, 3,7-dihydro-3-methyl-7-propyl-", "3,7-Dihydro-3-methyl-7-propyl-1H-purine-2,6-dione", "3-Methyl-7-propylxanthine", "3-Methyl-7-n-propylxanthine", "3-Methyl-7-propylpurine-2,6-dione", "3-Methyl-7-propyl-2,3,6,7-tetrahydro-1H-purine-2,6-dione"], "SMILES": "C(CC)N1C2=C(N(C)C(=O)NC2=O)N=C1", "physical_data": {"Molecular Weight": "208.22", "Molecular Formula": "C9H12N4O2", "Melting Point": "250-252 \u00b0C"}}