{"cas_no": "55242-55-2", "cn_name": "\u666e\u7f57\u6f58\u975e\u6797", "en_name": ["Propentofylline", "1H-Purine-2,6-dione, 3,7-dihydro-3-methyl-1-(5-oxohexyl)-7-propyl-", "3,7-Dihydro-3-methyl-1-(5-oxohexyl)-7-propyl-1H-purine-2,6-dione", "3-Methyl-1-(5-oxohexyl)-7-propylxanthine", "HWA 285", "Propentofylline", "1-(5-Oxohexyl)-3-methyl-7-propylxanthine", "Propentophylline", "HOE 285", "Hextol", "Karsivan", "Albert 285", "Propenlotylina"], "SMILES": "C(CC)N1C2=C(N(C)C(=O)N(CCCCC(C)=O)C2=O)N=C1", "physical_data": {"Molecular Weight": "306.36", "Molecular Formula": "C15H22N4O3", "Melting Point": "69 \u00b0C"}}