{"cas_no": "55268-75-2", "cn_name": "\u5934\u5b62\u544b\u8f9b", "en_name": ["Cefuroxime", "5-Thia-1-azabicyclo[4.2.0]oct-2-ene-2-carboxylic acid, 3-[[(aminocarbonyl)oxy]methyl]-7-[[(2Z)-2-(2-furanyl)-2-(methoxyimino)acetyl]amino]-8-oxo-, (6R,7R)-", "5-Thia-1-azabicyclo[4.2.0]oct-2-ene-2-carboxylic acid, 3-[[(aminocarbonyl)oxy]methyl]-7-[[2-furanyl(methoxyimino)acetyl]amino]-8-oxo-, [6R-[6\u03b1,7\u03b2(Z)]]-", "5-Thia-1-azabicyclo[4.2.0]oct-2-ene-2-carboxylic acid, 3-[[(aminocarbonyl)oxy]methyl]-7-[[(2Z)-2-furanyl(methoxyimino)acetyl]amino]-8-oxo-, (6R,7R)-", "(6R,7R)-3-[[(Aminocarbonyl)oxy]methyl]-7-[[(2Z)-2-(2-furanyl)-2-(methoxyimino)acetyl]amino]-8-oxo-5-thia-1-azabicyclo[4.2.0]oct-2-ene-2-carboxylic acid", "Cefuroxime", "Cefuroxim", "Cephuroxime", "Cefaloxime", "Biofuroksym", "Cefuroxime acid", "Ketocef", "Cefasyn", "Biofuroxim", "Multisef", "Maxalac", "Zefu", "MeSH ID: D002444"], "SMILES": "C(O)(=O)C=1N2C(C(NC(C(=NOC)C3=CC=CO3)=O)C2=O)SCC1COC(N)=O", "physical_data": {"Molecular Weight": "424.39", "Molecular Formula": "C16H16N4O8S", "Melting Point": "171.5-173 \u00b0C (decomp)"}}