{"cas_no": "55268-74-1", "cn_name": "\u5421\u55b9\u916e", "en_name": ["Praziquantel", "4H-Pyrazino[2,1-a]isoquinolin-4-one, 2-(cyclohexylcarbonyl)-1,2,3,6,7,11b-hexahydro-", "2-(Cyclohexylcarbonyl)-1,2,3,6,7,11b-hexahydro-4H-pyrazino[2,1-a]isoquinolin-4-one", "Praziquantel", "Droncit", "Embay 8440", "Pyquiton", "Biltricide", "(\u00b1)-Praziquantel", "Azinox", "Distocide", "Prazinon", "Cesol", "Cysticide", "Warmnil", "Saniquantrel", "Hada Clean", "Benesal", "(\u00b1)-Praziquatel", "Epiquantel", "2-(Cyclohexanecarbonyl)-3,6,7,11b-tetrahydro-1H-pyrazino[2,1-a]isoquinolin-4-one", "2-Cyclohexanecarbonyl-1,2,3,6,7,11b-hexahydro-pyrazino[2,1-a]isoquinolin-4-one", "2-(Cyclohexanecarbonyl)-2,3,6,7-tetrahydro-1H-pyrazino[2,1-a]isoquinolin-4(11bH)-one", "MeSH ID: D011223"], "SMILES": "O=C1N2C(C=3C(CC2)=CC=CC3)CN(C(=O)C4CCCCC4)C1", "physical_data": {"Molecular Weight": "312.41", "Molecular Formula": "C19H24N2O2", "Melting Point": "136 \u00b0C"}}