{"cas_no": "5527-95-7", "cn_name": "4-\u6c2f-3-\u6c1f\u82ef\u7532\u919b", "en_name": ["4-Chloro-3-fluorobenzaldehyde", "Benzaldehyde, 4-chloro-3-fluoro-", "4-Chloro-3-fluorobenzaldehyde", "3-Fluoro-4-chlorobenzaldehyde", "4-Chloro-5-fluorobenzaldehyde"], "SMILES": "C(=O)C1=CC(F)=C(Cl)C=C1", "physical_data": {"Molecular Weight": "158.56", "Molecular Formula": "C7H4ClFO", "Melting Point": "44-46 \u00b0C"}}