{"cas_no": "55271-46-0", "cn_name": "4-\u6c28\u57fa-3(2H)-\u54d2\u55ea", "en_name": ["4-Amino-3(2H)-pyridazinone", "3(2H)-Pyridazinone, 4-amino-", "4-Amino-3(2H)-pyridazinone", "5-Aminopyridazin-6(1H)-one"], "SMILES": "NC=1C(=O)NN=CC1", "physical_data": {"Molecular Weight": "111.10", "Molecular Formula": "C4H5N3O", "Melting Point": "228-229 \u00b0C"}}