{"cas_no": "5527-94-6", "cn_name": "3-\u6c1f-4-\u6c2f\u7532\u82ef", "en_name": ["1-Chloro-2-fluoro-4-methylbenzene", "Benzene, 1-chloro-2-fluoro-4-methyl-", "Toluene, 4-chloro-3-fluoro-", "1-Chloro-2-fluoro-4-methylbenzene", "4-Chloro-3-fluoromethylbenzene", "3-Fluoro-4-chlorotoluene"], "SMILES": "FC1=C(Cl)C=CC(C)=C1", "physical_data": {"Molecular Weight": "144.57", "Molecular Formula": "C7H6ClF", "Boiling Point": "157-158 \u00b0C"}}