{"cas_no": "55289-36-6", "cn_name": "3-\u6eb4-2-\u7532\u57fa\u82ef\u80fa", "en_name": ["3-Bromo-2-methylaniline", "Benzenamine, 3-bromo-2-methyl-", "3-Bromo-2-methylbenzenamine", "2-Amino-6-bromotoluene", "3-Bromo-2-methylaniline", "(3-Bromo-2-methylphenyl)amine", "2-Methyl-3-bromoaniline", "1-Bromo-2-methyl-3-aminobenzene"], "SMILES": "CC1=C(Br)C=CC=C1N", "physical_data": {"Molecular Weight": "186.05", "Molecular Formula": "C7H8BrN", "Boiling Point": "130 \u00b0C @ Press: 16 Torr"}}