{"cas_no": "55289-35-5", "cn_name": "2-\u6eb4-6-\u785d\u57fa\u7532\u82ef", "en_name": ["2-Bromo-6-nitrotoluene", "Benzene, 1-bromo-2-methyl-3-nitro-", "Toluene, 2-bromo-6-nitro-", "1-Bromo-2-methyl-3-nitrobenzene", "2-Bromo-6-nitrotoluene", "6-Bromo-2-nitrotoluene", "2-Methyl-1-bromo-3-nitrobenzene", "2-Nitro-6-bromotoluene"], "SMILES": "N(=O)(=O)C1=C(C)C(Br)=CC=C1", "physical_data": {"Molecular Weight": "216.03", "Molecular Formula": "C7H6BrNO2", "Boiling Point": "142-147 \u00b0C @ Press: 30 Torr", "Melting Point": "38 \u00b0C"}}