{"cas_no": "55283-68-6", "cn_name": "\u4e01\u6c1f\u6d88\u8349", "en_name": ["Ethalfluralin", "Benzenamine, N-ethyl-N-(2-methyl-2-propen-1-yl)-2,6-dinitro-4-(trifluoromethyl)-", "Benzenamine, N-ethyl-N-(2-methyl-2-propenyl)-2,6-dinitro-4-(trifluoromethyl)-", "N-Ethyl-N-(2-methyl-2-propen-1-yl)-2,6-dinitro-4-(trifluoromethyl)benzenamine", "Ethalfluralin", "EL 161", "Sonalan", "Buvilan", "Edge"], "SMILES": "N(CC(C)=C)(CC)C1=C(N(=O)=O)C=C(C(F)(F)F)C=C1N(=O)=O", "physical_data": {"Molecular Weight": "333.26", "Molecular Formula": "C13H14F3N3O4", "Melting Point": "56 \u00b0C"}}