{"cas_no": "55285-14-8", "cn_name": "\u4e01\u786b\u514b\u767e\u5a01", "en_name": ["Carbosulfan", "Carbamic acid, N-[(dibutylamino)thio]-N-methyl-, 2,3-dihydro-2,2-dimethyl-7-benzofuranyl ester", "Carbamic acid, [(dibutylamino)thio]methyl-, 2,3-dihydro-2,2-dimethyl-7-benzofuranyl ester", "DBSC", "FMC 35001", "Posse", "Carbosulfan", "Advantage", "Marshal", "Marshal 25ST", "Marshal 25EC", "Versal", "Zaprawa Marshal", "Dingliukebaiwei"], "SMILES": "O(C(N(SN(CCCC)CCCC)C)=O)C1=C2C(CC(C)(C)O2)=CC=C1", "physical_data": {"Molecular Weight": "380.54", "Molecular Formula": "C20H32N2O3S", "Melting Point": "&lt;25 \u00b0C"}}