{"cas_no": "55290-64-7", "cn_name": "\u567b\u8282\u56e0", "en_name": ["Dimethipin", "1,4-Dithiin, 2,3-dihydro-5,6-dimethyl-, 1,1,4,4-tetraoxide", "N 252", "2,3-Dihydro-5,6-dimethyl-1,4-dithiine 1,1,4,4-tetroxide", "UBI-N 252", "Harvade", "2,3-Dihydro-5,6-dimethyl-1,4-dithiin 1,1,4,4-tetroxide", "Tetrathiin (desiccant)", "Oxidimethiin", "Tetrathiin", "Dimethipin", "Harvade 25F", "Harveyd F-25", "Harvade F 25"], "SMILES": "CC1=C(C)S(=O)(=O)CCS1(=O)=O", "physical_data": {"Molecular Weight": "210.27", "Molecular Formula": "C6H10O4S2", "Melting Point": "167-169 \u00b0C", "Density": "1.59 g/cm\u00b3 @ Temp: 23 \u00b0C"}}