{"cas_no": "55290-63-6", "cn_name": "\u82cd\u672f\u7d20", "en_name": ["Atractylodin", "Furan, 2-(1E,7E)-1,7-nonadiene-3,5-diyn-1-yl-", "Atractylodin", "Furan, 2-(1,7-nonadiene-3,5-diynyl)-, (E,E)-", "Furan, 2-(1E,7E)-1,7-nonadiene-3,5-diynyl-", "2-(1E,7E)-1,7-Nonadiene-3,5-diyn-1-ylfuran", "Atractydin"], "SMILES": "C(=CC#CC#CC=CC)C1=CC=CO1", "physical_data": {"Molecular Weight": "182.22", "Molecular Formula": "C13H10O", "Melting Point": "52 \u00b0C"}}