{"cas_no": "553-19-5", "cn_name": "\u7f8e\u6d32\u82b1\u6912\u7d20", "en_name": ["Xanthyletin", "2H,8H-Benzo[1,2-b:5,4-b\u2032]dipyran-2-one, 8,8-dimethyl-", "Xanthyletin", "2H-1-Benzopyran-6-acrylic acid, 7-hydroxy-2,2-dimethyl-, \u03b4-lactone", "8,8-Dimethyl-2H,8H-benzo[1,2-b:5,4-b\u2032]dipyran-2-one", "7-Hydroxy-2,2-dimethyl-2H-1-benzopyran-6-acrylic acid \u03b4-lactone", "2,2-Dimethylchromenocoumarin", "2,2-Dimethylpyrano[3,2-g]chromen-8-one"], "SMILES": "CC1(C)OC=2C(=CC3=C(C2)OC(=O)C=C3)C=C1", "physical_data": {"Molecular Weight": "228.24", "Molecular Formula": "C14H12O3", "Boiling Point": "140-145 \u00b0C @ Press: 0.1 Torr", "Melting Point": "130-131 \u00b0C"}}