{"cas_no": "553-53-7", "cn_name": "3-\u5421\u5576\u7532\u9170\u80bc", "en_name": ["Nicotinic acid, hydrazide", "3-Pyridinecarboxylic acid, hydrazide", "Nicotinic acid, hydrazide", "Nicotinoylhydrazine", "3-Pyridoylhydrazine", "Nicotinyl hydrazide", "Nicotinic hydrazide", "Nicotinoyl hydrazide", "NSC 36088", "(3-Pyridylcarbonyl)hydrazine", "3-Pyridinecarboxylic hydrazide", "Nicotinylhydrazine", "Niazid", "Nicotinohydrazide", "NSC 18775", "NSC 41703", "INHd 37", "3-Pyridinecarbohydrazide", "N-Aminopyridine-3-carboxamide", "Pyridine-3-carbonylhydrazine", "3-Nicotinohydrazide"], "SMILES": "C(NN)(=O)C=1C=CC=NC1", "physical_data": {"Molecular Weight": "137.14", "Molecular Formula": "C6H7N3O", "Melting Point": "161.5 \u00b0C", "Density": "1.454 g/cm\u00b3"}}