{"cas_no": "553-72-0", "cn_name": "\u82ef\u7532\u9178\u950c\u76d0", "en_name": ["Zinc benzoate", "Benzoic acid, zinc salt (2:1)", "Benzoic acid, zinc salt", "Zinc benzoate", "Zinc dibenzoate", "Z 00160"], "SMILES": "C(O)(=O)C1=CC=CC=C1.[Zn]", "physical_data": {"Molecular Weight": "", "Molecular Formula": "C7H6O2.<sup>1</sup>/2Zn", "Melting Point": "313.9-316.2 \u00b0C"}}