{"cas_no": "553-94-6", "cn_name": "2,5-\u4e8c\u7532\u57fa\u6eb4\u82ef", "en_name": ["Bromo-p-xylene", "Benzene, 2-bromo-1,4-dimethyl-", "p-Xylene, 2-bromo-", "2-Bromo-1,4-dimethylbenzene", "2-Bromo-p-xylene", "2-Bromo-1,4-xylene", "1-Bromo-2,5-dimethylbenzene", "2,5-Dimethylbromobenzene", "2,5-Dimethylphenyl bromide", "2,5-Xylyl bromide", "Bromo-p-xylene", "NSC 8051"], "SMILES": "BrC1=C(C)C=CC(C)=C1", "physical_data": {"Molecular Weight": "185.06", "Molecular Formula": "C8H9Br", "Boiling Point": "199 \u00b0C", "Melting Point": "9 \u00b0C", "Density": "1.339 g/cm\u00b3 @ Temp: 32 \u00b0C"}}