{"cas_no": "553-21-9", "cn_name": "\u6728\u9999\u70c3\u5185\u916f", "en_name": ["(+)-Costunolide", "Cyclodeca[b]furan-2(3H)-one, 3a,4,5,8,9,11a-hexahydro-6,10-dimethyl-3-methylene-, (3aS,6E,10E,11aR)-", "Germacra-1(10),4,11(13)-trien-12-oic acid, 6\u03b1-hydroxy-, \u03b3-lactone, (E,E)-", "Costunolide", "Cyclodeca[b]furan-2(3H)-one, 3a,4,5,8,9,11a-hexahydro-6,10-dimethyl-3-methylene-, [3aS-(3aR*,6E,10E,11aS*)]-", "(3aS,6E,10E,11aR)-3a,4,5,8,9,11a-Hexahydro-6,10-dimethyl-3-methylenecyclodeca[b]furan-2(3H)-one", "Costus lactone", "Costunolid", "(+)-Costunolide", "NSC 106404"], "SMILES": "C=C1C2C(OC1=O)C=C(C)CCC=C(C)CC2", "physical_data": {"Molecular Weight": "232.32", "Molecular Formula": "C15H20O2", "Melting Point": "106-107 \u00b0C"}}