{"cas_no": "553-08-2", "cn_name": "\u5627\u82ef\u5341\u516d\u94f5", "en_name": ["Thonzonium bromide", "1-Hexadecanaminium, N-[2-[[(4-methoxyphenyl)methyl]-2-pyrimidinylamino]ethyl]-N,N-dimethyl-, bromide (1:1)", "Ammonium, hexadecyl[2-[(p-methoxybenzyl)-2-pyrimidinylamino]ethyl]dimethyl-, bromide", "Hexadecyl[2-[(p-methoxybenzyl)-2-pyrimidinylamino]ethyl]dimethylammonium bromide", "1-Hexadecanaminium, N-[2-[[(4-methoxyphenyl)methyl]-2-pyrimidinylamino]ethyl]-N,N-dimethyl-, bromide", "NC 1264", "Cetyl[2-[(p-methoxybenzyl)-2-pyrimidinylamino]ethyl]dimethylammonium bromide", "N-(2-Pyrimidyl)-N-(p-methoxybenzyl)-N\u2032,N\u2032-dimethyl-N\u2032-cetyl-N\u2032-bromoethylenediamine", "Thonzide", "Thonzonium bromide", "Tonzonium bromide"], "SMILES": "N(CC1=CC=C(OC)C=C1)(CC[N+](CCCCCCCCCCCCCCCC)(C)C)C=2N=CC=CN2.[Br-]", "physical_data": {"Molecular Weight": "", "Molecular Formula": "C32H55N4O.Br", "Melting Point": "91.5 \u00b0C"}}