{"cas_no": "553-27-5", "cn_name": "N,N-\u53cc(2-\u6c2f\u4e59\u57fa)\u82ef\u80fa", "en_name": ["Aniline mustard", "Benzenamine, N,N-bis(2-chloroethyl)-", "Aniline, N,N-bis(2-chloroethyl)-", "N,N-Bis(2-chloroethyl)benzenamine", "\u03b2,\u03b2\u2032-Dichlorodiethylaniline", "N,N-Di(2-chloroethyl)aniline", "Lymphochin", "Lymphocin", "Lymphoquin", "N,N-Bis(2-chloroethyl)aniline", "NCS-18429", "Aniline mustard", "N,N-Bis(2\u2032-chloroethyl)aniline", "NSC 18429", "MeSH ID: D000816"], "SMILES": "N(CCCl)(CCCl)C1=CC=CC=C1", "physical_data": {"Molecular Weight": "218.12", "Molecular Formula": "C10H13Cl2N", "Boiling Point": "164 \u00b0C", "Melting Point": "45 \u00b0C"}}