{"cas_no": "553-12-8", "cn_name": "\u539f\u535f\u5549", "en_name": ["Protoporphyrin IX", "21H,23H-Porphine-2,18-dipropanoic acid, 7,12-diethenyl-3,8,13,17-tetramethyl-", "Protoporphyrin IX", "2,18-Porphinedipropionic acid, 3,8,13,17-tetramethyl-7,12-divinyl-", "7,12-Diethenyl-3,8,13,17-tetramethyl-21H,23H-porphine-2,18-dipropanoic acid", "Ooporphyrin", "NSC 2632", "NSC 177389", "Protoporphyrin", "Kammerer's porphyrin", "Levulan"], "SMILES": "C(CC(O)=O)C1=C2C=C3C(CCC(O)=O)=C(C)C(=N3)C=C4NC(=CC5=NC(=CC(N2)=C1C)C(C=C)=C5C)C(C=C)=C4C", "physical_data": {"Molecular Weight": "562.66", "Molecular Formula": "C34H34N4O4", "Melting Point": "&gt;300 \u00b0C"}}