{"cas_no": "553-17-3", "cn_name": "\u6108\u521b\u6728\u915a\u78b3\u9178\u916f", "en_name": ["Phenol, 2-methoxy-, carbonate (2:1)", "Phenol, 2-methoxy-, carbonate (2:1)", "Carbonic acid, bis(o-methoxyphenyl) ester", "Guaiacol carbonate", "Phenol, o-methoxy-, carbonate", "Bis-o-methoxyphenyl carbonate", "Carbonic acid bis(2-methoxyphenyl) ester", "Duotal", "Guaiacol carbonic acid neutral ester", "Di-o-methoxyphenyl carbonate", "Tussophob", "Bis(2-methoxyphenyl) carbonate", "Carbonic acid guiacol ether", "Diguaiacyl carbonate", "NSC 37138", "NSC 3798"], "SMILES": "O(C(OC1=C(OC)C=CC=C1)=O)C2=C(OC)C=CC=C2", "physical_data": {"Molecular Weight": "274.27", "Molecular Formula": "C15H14O5", "Melting Point": "89 \u00b0C"}}