{"cas_no": "553-86-6", "cn_name": "\u82ef\u5e76\u544b\u5583\u916e", "en_name": ["2(3H)-Benzofuranone", "2(3H)-Benzofuranone", "Acetic acid, (o-hydroxyphenyl)-, \u03b3-lactone", "Isophthalide", "Benzeneacetic acid, 2-hydroxy-, \u03b3-lactone", "o-Hydroxyphenylacetic acid \u03b3-lactone", "\u03b1-Coumaranone", "Benzo[b]furan-2(3H)-one", "2,3-Dihydrobenzofuran-2-one", "Cumaranone", "2-Coumarone", "2-Coumaranone", "3H-Benzofuran-2-one", "NSC 227414", "2-Benzofuranone"], "SMILES": "O=C1CC=2C(O1)=CC=CC2", "physical_data": {"Molecular Weight": "134.13", "Molecular Formula": "C8H6O2", "Boiling Point": "249 \u00b0C", "Melting Point": "50 \u00b0C"}}