{"cas_no": "553-90-2", "cn_name": "\u8349\u9178\u4e8c\u7532\u916f", "en_name": ["Dimethyl oxalate", "Ethanedioic acid, 1,2-dimethyl ester", "Ethanedioic acid, dimethyl ester", "Oxalic acid, dimethyl ester", "Dimethyl oxalate", "Methyl oxalate", "NSC 9374"], "SMILES": "C(C(OC)=O)(OC)=O", "physical_data": {"Molecular Weight": "118.09", "Molecular Formula": "C4H6O4", "Boiling Point": "163.5 \u00b0C", "Melting Point": "54.3 \u00b0C"}}