{"cas_no": "553-97-9", "cn_name": "\u7532\u57fa\u82ef\u918c", "en_name": ["Methyl-1,4-benzoquinone", "2,5-Cyclohexadiene-1,4-dione, 2-methyl-", "p-Benzoquinone, 2-methyl-", "p-Benzoquinone, methyl-", "2-Methyl-2,5-cyclohexadiene-1,4-dione", "Methyl-p-benzoquinone", "2-Methyl-p-benzoquinone", "p-Toluquinone", "2-Methylbenzoquinone", "2-Methyl-1,4-benzoquinone", "2-Methylquinone", "Methyl-1,4-benzoquinone", "Monomethyl-p-benzoquinone", "Methyl-p-benzoquinone", "NSC 405002", "Methyl-p-quinone", "Cresoquinone", "2-Methyl-2,5-cyclohexadien-1,4-dione"], "SMILES": "CC=1C(=O)C=CC(=O)C1", "physical_data": {"Molecular Weight": "122.12", "Molecular Formula": "C7H6O2", "Melting Point": "69 \u00b0C", "Density": "1.08 g/cm\u00b3 @ Temp: 75.5 \u00b0C"}}