{"cas_no": "553-82-2", "cn_name": "2,4-\u4e8c\u6c2f\u82ef\u7532\u919a", "en_name": ["2,4-Dichloroanisole", "Benzene, 2,4-dichloro-1-methoxy-", "Anisole, 2,4-dichloro-", "2,4-Dichloro-1-methoxybenzene", "2,4-Dichloroanisole", "1,5-Dichloro-2-methoxybenzene", "1-Methoxy-2,4-dichlorobenzene", "NSC 6077", "1,3-Dichloro-4-methoxybenzene"], "SMILES": "O(C)C1=C(Cl)C=C(Cl)C=C1", "physical_data": {"Molecular Weight": "177.03", "Molecular Formula": "C7H6Cl2O", "Boiling Point": "232 \u00b0C", "Melting Point": "28.5 \u00b0C"}}