{"cas_no": "553-26-4", "cn_name": "4,4'-\u8054\u5421\u5576", "en_name": ["4,4\u2032-Bipyridine", "4,4\u2032-Bipyridine", "\u03b3,\u03b3\u2032-Bipyridyl", "4,4\u2032-Dipyridyl", "4,4\u2032-Bipyridyl", "4,4\u2032-Dipyridine", "4-(4-Pyridyl)pyridine", "IK 12", "\u03b3,\u03b3\u2032-Dipyridyl", "NSC 404423", "SERS 420", "[4,4\u2032]Bipyridinyl"], "SMILES": "C=1(C=CN=CC1)C=2C=CN=CC2", "physical_data": {"Molecular Weight": "156.18", "Molecular Formula": "C10H8N2", "Boiling Point": "305 \u00b0C", "Melting Point": "111 \u00b0C"}}