{"cas_no": "55304-80-8", "cn_name": "2,6-\u4e8c\u6eb4-3-\u785d\u57fa\u5421\u5576", "en_name": ["2,6-Dibromo-3-nitropyridine", "Pyridine, 2,6-dibromo-3-nitro-", "2,6-Dibromo-3-nitropyridine"], "SMILES": "N(=O)(=O)C1=C(Br)N=C(Br)C=C1", "physical_data": {"Molecular Weight": "281.89", "Molecular Formula": "C5H2Br2N2O2", "Melting Point": "78 \u00b0C"}}