{"cas_no": "55304-73-9", "cn_name": "2,6-\u4e8c\u6c2f-3-\u5421\u5576\u7532\u919b", "en_name": ["2,6-Dichloro-3-pyridinecarboxaldehyde", "3-Pyridinecarboxaldehyde, 2,6-dichloro-", "2,6-Dichloro-3-pyridinecarboxaldehyde", "2,6-Dichloro-3-formylpyridine", "2,6-Dichloropyridyl-3-carboxaldehyde", "2,6-Dichloronicotinaldehyde", "2,6-Dichloropyridine-3-carbaldehyde"], "SMILES": "C(=O)C1=C(Cl)N=C(Cl)C=C1", "physical_data": {"Molecular Weight": "176.00", "Molecular Formula": "C6H3Cl2NO", "Boiling Point": "95 \u00b0C @ Press: 3 Torr", "Melting Point": "80-83 \u00b0C"}}