{"cas_no": "55314-16-4", "cn_name": "1-(3-\u5421\u5576\u57fa)-3-(\u4e8c\u7532\u6c28\u57fa)-2-\u4e19\u70ef-1-\u916e", "en_name": ["3-Dimethylamino-1-(3-pyridyl)-2-propen-1-one", "2-Propen-1-one, 3-(dimethylamino)-1-(3-pyridinyl)-", "3-(Dimethylamino)-1-(3-pyridinyl)-2-propen-1-one", "1-(3-Pyridyl)-3-(dimethylamino)-2-propen-1-one", "3-Dimethylamino-1-(3-pyridyl)-2-propen-1-one", "3-Dimethylamino-1-(pyridin-3-yl)propenone"], "SMILES": "C(C=CN(C)C)(=O)C=1C=CC=NC1", "physical_data": {"Molecular Weight": "176.22", "Molecular Formula": "C10H12N2O", "Melting Point": "&gt;300 \u00b0C"}}