{"cas_no": "5531-65-7", "cn_name": "\u5341\u516b\u9178\u82ef\u7532\u916f", "en_name": ["Benzyl stearate", "Octadecanoic acid, phenylmethyl ester", "Stearic acid, benzyl ester", "Benzyl stearate", "Benzyl octadecanoate"], "SMILES": "C(OC(CCCCCCCCCCCCCCCCC)=O)C1=CC=CC=C1", "physical_data": {"Molecular Weight": "374.60", "Molecular Formula": "C25H42O2", "Melting Point": "45.8 \u00b0C", "Density": "0.9075 g/cm\u00b3 @ Temp: 50 \u00b0C"}}