{"cas_no": "55314-57-3", "cn_name": "2-\u620a\u7094\u9178\u4e59\u916f", "en_name": ["Ethyl 2-pentynoate", "2-Pentynoic acid, ethyl ester", "Ethyl 2-pentynoate", "NSC 190964", "Ethyl 3-ethyl-2-propynoate"], "SMILES": "C(C#CCC)(OCC)=O", "physical_data": {"Molecular Weight": "126.15", "Molecular Formula": "C7H10O2", "Boiling Point": "64-66 \u00b0C @ Press: 9 Torr", "Density": "0.9540 g/cm\u00b3 @ Temp: 20 \u00b0C"}}