{"cas_no": "55324-97-5", "cn_name": "6-\u6c28\u57fa\u8131\u6c27\u8461\u8404\u7cd6 \u76d0\u9178\u76d0", "en_name": ["D-Glucose, 6-amino-6-deoxy-, hydrochloride (1:1)", "D-Glucose, 6-amino-6-deoxy-, hydrochloride (1:1)", "D-Glucose, 6-amino-6-deoxy-, hydrochloride", "6-Amino-6-deoxy-D-glucose hydrochloride"], "SMILES": "C(C(C(C=O)O)O)(C(CN)O)O.Cl", "physical_data": {"Molecular Weight": "", "Molecular Formula": "C6H13NO5.ClH", "Melting Point": "158 \u00b0C"}}