{"cas_no": "55332-38-2", "cn_name": "S-2-(4-\u6c2f\u82ef\u57fa)-3-\u7532\u57fa\u4e01\u9178", "en_name": ["(\u03b1S)-4-Chloro-\u03b1-(1-methylethyl)benzeneacetic acid", "Benzeneacetic acid, 4-chloro-\u03b1-(1-methylethyl)-, (\u03b1S)-", "Benzeneacetic acid, 4-chloro-\u03b1-(1-methylethyl)-, (S)-", "(\u03b1S)-4-Chloro-\u03b1-(1-methylethyl)benzeneacetic acid", "(S)-2-(4-Chlorophenyl)isovaleric acid", "(+)-\u03b1-(p-Chlorophenyl)isovaleric acid", "(+)-2-(4-Chlorophenyl)-3-methylbutyric acid", "(S)-2-(4-Chlorophenyl)-3-methylbutyric acid", "(+)-2-(4-Chlorophenyl)isovaleric acid", "2-S-(+)-(4-Chlorophenyl)-3-methylbutanoic Acid", "(S)-Fenvaleric acid", "(+)-(S)-2-(4-Chlorophenyl)-3-methylbutanoic acid", "(2S)-2-(4-Chlorophenyl)-3-methylbutanoic acid", "(S)-2-(4-Chlorophenyl)-3-methylbutanoic acid", "(2S)-2-(4-Chlorophenyl)-3-methylbutanoic acid", "(S)-2-(4-Chlorophenyl)-3-methylbutanoicacid"], "SMILES": "C(C(C)C)(C(O)=O)C1=CC=C(Cl)C=C1", "physical_data": {"Molecular Weight": "212.67", "Molecular Formula": "C11H13ClO2", "Melting Point": "89-91 \u00b0C"}}