{"cas_no": "55335-06-3", "cn_name": "\u7eff\u8349\u5b9a", "en_name": ["Triclopyr", "Acetic acid, 2-[(3,5,6-trichloro-2-pyridinyl)oxy]-", "Acetic acid, [(3,5,6-trichloro-2-pyridinyl)oxy]-", "Acetic acid, [(3,5,6-trichloro-2-pyridyl)oxy]-", "2-[(3,5,6-Trichloro-2-pyridinyl)oxy]acetic acid", "3,5,6-Trichloro-2-pyridyloxyacetic acid", "Dowco 233", "Triclopyr", "3,5,6-Trichloro-2-pyridinyloxyacetic acid", "Garlon", "Garlon 250", "Garlon 2", "Redeem", "Release", "3,5,6-TPA", "NSC 190671", "Remedy", "Maxim (auxin)", "Maxim", "2-[(3,5,6-Trichloropyridinyl)oxy]acetic acid", "3,5,6-Trichloro-2-pyridinyloxyethanoic acid", "Grandstsnd"], "SMILES": "O(CC(O)=O)C1=C(Cl)C=C(Cl)C(Cl)=N1", "physical_data": {"Molecular Weight": "256.47", "Molecular Formula": "C7H4Cl3NO3", "Melting Point": "150.5 \u00b0C", "Density": "1.85 g/cm\u00b3"}}