{"cas_no": "55341-87-2", "cn_name": "3-\u6c28\u57fa-2-\u567b\u5429\u7532\u9178", "en_name": ["3-Amino-2-thiophenecarboxylic acid", "2-Thiophenecarboxylic acid, 3-amino-", "3-Amino-2-thiophenecarboxylic acid"], "SMILES": "C(O)(=O)C1=C(N)C=CS1", "physical_data": {"Molecular Weight": "143.16", "Molecular Formula": "C5H5NO2S", "Melting Point": "82 \u00b0C (decomp)"}}