{"cas_no": "5534-13-4", "cn_name": "\u4e8c\u4e19\u9178\u500d\u4ed6\u7c73\u677eEP\u6742\u8d28B", "en_name": ["Betamethasone 17-propionate", "Pregna-1,4-diene-3,20-dione, 9-fluoro-11,21-dihydroxy-16-methyl-17-(1-oxopropoxy)-, (11\u03b2,16\u03b2)-", "Pregna-1,4-diene-3,20-dione, 9-fluoro-11\u03b2,17,21-trihydroxy-16\u03b2-methyl-, 17-propionate", "(11\u03b2,16\u03b2)-9-Fluoro-11,21-dihydroxy-16-methyl-17-(1-oxopropoxy)pregna-1,4-diene-3,20-dione", "Betamethasone 17-propionate", "Betamethasone 17\u03b1-propionate"], "SMILES": "O(C(CC)=O)C1(C(CO)=O)C2(C)C(CC1C)C3C(F)(C(O)C2)C4(C)C(CC3)=CC(=O)C=C4", "physical_data": {"Molecular Weight": "448.52", "Molecular Formula": "C25H33FO6", "Melting Point": "230-235 \u00b0C"}}