{"cas_no": "5534-18-9", "cn_name": "9\u0391-\u6c2f-16\u0392-\u7532\u57fa\u5b55\u753e-1,4-\u4e8c\u70ef-11\u0392,17\u0391,21-\u4e09\u9187-3,20-\u4e8c\u916e-17-\u4e19\u9178\u916f", "en_name": ["Beclomethasone 17-monopropionate", "Pregna-1,4-diene-3,20-dione, 9-chloro-11,21-dihydroxy-16-methyl-17-(1-oxopropoxy)-, (11\u03b2,16\u03b2)-", "Pregna-1,4-diene-3,20-dione, 9-chloro-11\u03b2,17,21-trihydroxy-16\u03b2-methyl-, 17-propionate", "Pregna-1,4-diene-3,2O-dione, 9-chloro-11\u03b2,17,21-trihydroxy-16\u03b2-methyl-, 17-propionate", "(11\u03b2,16\u03b2)-9-Chloro-11,21-dihydroxy-16-methyl-17-(1-oxopropoxy)pregna-1,4-diene-3,20-dione", "Beclomethasone 17-propionate", "Beclomethasone 17-monopropionate"], "SMILES": "O(C(CC)=O)C1(C(CO)=O)C2(C)C(CC1C)C3C(Cl)(C(O)C2)C4(C)C(CC3)=CC(=O)C=C4", "physical_data": {"Molecular Weight": "464.98", "Molecular Formula": "C25H33ClO6", "Melting Point": "100-102 \u00b0C"}}