{"cas_no": "5534-09-8", "cn_name": "\u4e19\u9178\u500d\u6c2f\u7c73\u677e", "en_name": ["Beclomethasone dipropionate", "Pregna-1,4-diene-3,20-dione, 9-chloro-11-hydroxy-16-methyl-17,21-bis(1-oxopropoxy)-, (11\u03b2,16\u03b2)-", "Pregna-1,4-diene-3,20-dione, 9-chloro-11\u03b2,17,21-trihydroxy-16\u03b2-methyl-, 17,21-dipropionate", "(11\u03b2,16\u03b2)-9-Chloro-11-hydroxy-16-methyl-17,21-bis(1-oxopropoxy)pregna-1,4-diene-3,20-dione", "Beclometasone dipropionate", "9\u03b1-Chloro-16\u03b2-methylprednisolone 17,21-dipropionate", "Propaderm", "Beclomethasone 17,21-dipropionate", "Sanasthmyl", "Becotide", "Vanceril", "Beclometasone 17,21-dipropionate", "Propaderm Forte", "Beclomethasone 17\u03b1,21-dipropionate", "Beclomet", "Beclovent", "Vancenase", "Beconase", "Beclazone 50", "Beclazone 250", "Beclazone", "Beclotide", "Beclotide 100", "Vanceril DS", "Beconase AQ", "Vancenase AQ", "Aerobec", "QVAR", "Beclomethasone dipropionate", "Beclate", "Aldecin AQ nasal", "Belchlorhinol", "Anceron", "Viarex", "Beclacin", "Andion", "Sch 8020W", "Sanasthmax", "Sanasthymyl", "Aldecin", "Becodisks", "Viarox", "Inalone O", "Inalone R", "Entyderma", "Clenil A", "Belcoforte", "Becloval", "Korbutone", "Rino-Clenil", "Beclovent Inhaler", "Belcomet", "Ventolair", "Qvar 50", "orBec", "Topster", "Nasobec", "Clenil", "Becloneb"], "SMILES": "C(COC(CC)=O)(=O)C1(OC(CC)=O)C2(C)C(CC1C)C3C(Cl)(C(O)C2)C4(C)C(CC3)=CC(=O)C=C4", "physical_data": {"Molecular Weight": "521.04", "Molecular Formula": "C28H37ClO7", "Melting Point": "117-120 \u00b0C"}}