{"cas_no": "5535-49-9", "cn_name": "2-\u6c2f\u4e59\u57fa\u82ef\u57fa\u786b\u919a", "en_name": ["2-Chloroethyl phenyl sulfide", "Benzene, [(2-chloroethyl)thio]-", "Sulfide, 2-chloroethyl phenyl", "[(2-Chloroethyl)thio]benzene", "2-Chloroethyl phenyl sulfide", "2-(Phenylthio)ethyl chloride", "1-Chloro-2-(phenylthio)ethane", "Phenyl half-mustard", "NSC 45458", "[(2-Chloroethyl)sulfanyl]benzene", "2-Chloroethylsulfanylbenzene", "2-Chloroethyl-phenylsulfane"], "SMILES": "S(CCCl)C1=CC=CC=C1", "physical_data": {"Molecular Weight": "172.68", "Molecular Formula": "C8H9ClS", "Boiling Point": "144.5 \u00b0C @ Press: 26 Torr", "Melting Point": "5 \u00b0C", "Density": "1.182 g/cm\u00b3 @ Temp: 23.5 \u00b0C"}}