{"cas_no": "5535-48-8", "cn_name": "\u82ef\u57fa\u4e59\u70ef\u57fa\u781c", "en_name": ["Phenyl vinyl sulfone", "Benzene, (ethenylsulfonyl)-", "Sulfone, phenyl vinyl", "(Ethenylsulfonyl)benzene", "Phenyl vinyl sulfone", "URI 744", "NSC 35394", "Ethenyl phenyl sulfone", "Vinylsulfonylbenzene", "(Ethenesulfonyl)benzene"], "SMILES": "S(C=C)(=O)(=O)C1=CC=CC=C1", "physical_data": {"Molecular Weight": "168.21", "Molecular Formula": "C8H8O2S", "Melting Point": "68 \u00b0C"}}