{"cas_no": "55357-38-5", "cn_name": "\u80c6\u78b1\u5bf9\u7532\u82ef\u78fa\u9178\u76d0", "en_name": ["Ethanaminium, 2-hydroxy-N,N,N-trimethyl-, 4-methylbenzenesulfonate (1:1)", "Ethanaminium, 2-hydroxy-N,N,N-trimethyl-, 4-methylbenzenesulfonate (1:1)", "Ethanaminium, 2-hydroxy-N,N,N-trimethyl-, salt with 4-methylbenzenesulfonic acid (1:1)", "Choline p-toluenesulfonate", "Choline toluenesulfonate", "Choline tosylate"], "SMILES": "C([N+](C)(C)C)CO.S(=O)(=O)([O-])C1=CC=C(C)C=C1", "physical_data": {"Molecular Weight": "", "Molecular Formula": "C7H7O3S.C5H14NO", "Melting Point": "107-108 \u00b0C"}}