{"cas_no": "5536-17-4", "cn_name": "\u963f\u7cd6\u817a\u82f7", "en_name": ["Vidarabine", "9H-Purin-6-amine, 9-\u03b2-D-arabinofuranosyl-", "Adenine, 9-\u03b2-D-arabinofuranosyl-", "9-\u03b2-D-Arabinofuranosyl-9H-purin-6-amine", "Arabinosyladenine", "9-\u03b2-D-Arabinofuranosyladenine", "Adenine arabinoside", "\u03b2-D-Arabinosyladenine", "9-Arabinosyladenine", "Vidarabine", "Ara-A", "CI-673", "Vidarabin", "Adenine \u03b2-D-arabinofuranoside", "NSC 404241", "Araadenosine", "Spongoadenosine", "9-\u03b2-D-Arabinoadenosine", "6-Amino-9-\u03b2-D-arabinofuranosylpurine", "9-\u03b2-D-Arabinosyladenine", "Adenine 9-\u03b2-D-arabinofuranoside", "\u03b2-D-Arabinofuranosyladenine", "\u03b2-Ara-A", "Vira-A", "Arasena-A", "Vidarabine anhydrous", "NSC 247519", "NQZ-071", "MeSH ID: D014740"], "SMILES": "OC1C(N2C=3C(N=C2)=C(N)N=CN3)OC(CO)C1O", "physical_data": {"Molecular Weight": "267.24", "Molecular Formula": "C10H13N5O4", "Melting Point": "257-257.5 \u00b0C"}}