{"cas_no": "55362-80-6", "cn_name": "9-\u6eb4-1-\u58ec\u9187", "en_name": ["9-Bromononanol", "1-Nonanol, 9-bromo-", "9-Bromo-1-nonanol", "9-Bromononanol", "1-Hydroxy-9-bromononane"], "SMILES": "C(CCCCBr)CCCCO", "physical_data": {"Molecular Weight": "223.15", "Molecular Formula": "C9H19BrO", "Boiling Point": "125-126 \u00b0C @ Press: 2 Torr", "Melting Point": "33.5 \u00b0C"}}