{"cas_no": "5536-61-8", "cn_name": "\u7532\u57fa\u4e19\u70ef\u9178\u94a0", "en_name": ["Sodium methacrylate", "2-Propenoic acid, 2-methyl-, sodium salt (1:1)", "Methacrylic acid, sodium salt", "2-Propenoic acid, 2-methyl-, sodium salt", "Sodium methacrylate", "S-MA"], "SMILES": "C(C(O)=O)(C)=C.[Na]", "physical_data": {"Molecular Weight": "", "Molecular Formula": "C4H6O2.Na", "Melting Point": "310 \u00b0C", "Density": "2.703 g/cm\u00b3"}}