{"cas_no": "55373-89-2", "cn_name": "\u4e8c\u5341\u4e94\u70f7\u9178\u7532\u916f", "en_name": ["Methyl pentacosanoate", "Pentacosanoic acid, methyl ester", "Methyl pentacosanoate"], "SMILES": "C(CCCCCCCCCCCCCCCCCC)CCCCCC(OC)=O", "physical_data": {"Molecular Weight": "396.69", "Molecular Formula": "C26H52O2", "Melting Point": "58-59 \u00b0C"}}