{"cas_no": "5537-71-3", "cn_name": "3-(1-\u6c30\u4e59\u57fa)\u82ef\u7532\u9178", "en_name": ["3-(1-Cyanoethyl)benzoic acid", "Benzoic acid, 3-(1-cyanoethyl)-", "Benzoic acid, m-(1-cyanoethyl)-", "3-(1-Cyanoethyl)benzoic acid", "2-(3-Carboxyphenyl)propionitrile", "m-(1-Cyanoethyl)benzoic acid", "NSC 113992", "DF 2107Y"], "SMILES": "C(C#N)(C)C1=CC(C(O)=O)=CC=C1", "physical_data": {"Molecular Weight": "175.18", "Molecular Formula": "C10H9NO2", "Melting Point": "140-141 \u00b0C"}}