{"cas_no": "55377-26-9", "cn_name": "6-\u6eb4\u55b9\u5549\u76d0\u9178\u76d0", "en_name": ["Quinoline, 6-bromo-, hydrochloride (1:1)", "Quinoline, 6-bromo-, hydrochloride (1:1)", "Quinoline, 6-bromo-, hydrochloride"], "SMILES": "BrC1=CC2=C(C=C1)N=CC=C2.Cl", "physical_data": {"Molecular Weight": "", "Molecular Formula": "C9H6BrN.ClH", "Melting Point": "213-214 \u00b0C"}}