{"cas_no": "5538-51-2", "cn_name": "\u90bb\u4e59\u9170\u6c34\u6768\u9170\u6c2f", "en_name": ["Acetylsalicyloyl chloride", "Benzoyl chloride, 2-(acetyloxy)-", "Salicyloyl chloride, acetate", "2-(Acetyloxy)benzoyl chloride", "Acetylsalicyloyl chloride", "Aspiryl chloride", "Acetylsalicylic acid chloride", "o-Acetoxybenzoyl chloride", "2-Acetoxybenzoyl chloride", "O-Acetylsalicyloyl chloride", "Acetylsalicyl chloride", "O-Acetylsalicylic acid chloride", "2-Acetylsalicyloyl chloride", "o-(Acetyloxy)benzoyl chloride", "NSC 97216", "2-(Chlorocarbonyl)phenyl acetate", "Acetic acid 2-chlorocarbonylphenyl ester", "Acetoxybenzoic acid chloride", "Aspirin acyl chloride", "Aspirinyl chloride", "2-(Carbonochloridoyl)phenyl acetate"], "SMILES": "C(Cl)(=O)C1=C(OC(C)=O)C=CC=C1", "physical_data": {"Molecular Weight": "198.60", "Molecular Formula": "C9H7ClO3", "Boiling Point": "135 \u00b0C @ Press: 12 Torr", "Melting Point": "43 \u00b0C"}}