{"cas_no": "5538-94-3", "cn_name": "\u53cc\u8f9b\u70f7\u57fa\u4e8c\u7532\u57fa\u6c2f\u5316\u94f5", "en_name": ["Dioctyldimethylammonium chloride", "1-Octanaminium, N,N-dimethyl-N-octyl-, chloride (1:1)", "Ammonium, dimethyldioctyl-, chloride", "1-Octanaminium, N,N-dimethyl-N-octyl-, chloride", "Dimethyldioctylammonium chloride", "RC 5626", "Dioctyldimethylammonium chloride", "Bardac LF", "HOE-S 2617", "Dodigen 2617", "Swanol CA 3080", "Querton 28CL", "Pentonium DO 50", "Querton 28CL50", "Bardac LF 80", "LF 80", "AQ 208", "Bardac LF 18", "KP 20 (quaternary compound)", "KP 20"], "SMILES": "[N+](CCCCCCCC)(CCCCCCCC)(C)C.[Cl-]", "physical_data": {"Molecular Weight": "", "Molecular Formula": "C18H40N.Cl", "Melting Point": "75 \u00b0C"}}