{"cas_no": "5538-41-0", "cn_name": "2-\u6c2f-3,5-\u4e8c\u7532\u57fa\u82ef\u915a", "en_name": ["2-Chloro-3,5-dimethylphenol", "Phenol, 2-chloro-3,5-dimethyl-", "3,5-Xylenol, 2-chloro-", "2-Chloro-3,5-dimethylphenol", "2-Chloro-3,5-xylenol"], "SMILES": "ClC1=C(C)C=C(C)C=C1O", "physical_data": {"Molecular Weight": "156.61", "Molecular Formula": "C8H9ClO", "Melting Point": "115-116 \u00b0C"}}