{"cas_no": "5538-95-4", "cn_name": "N-\u5341\u4e8c\u70f7\u57fa-1,3-\u4e19\u4e8c\u80fa", "en_name": ["N-Dodecyl-1,3-propanediamine", "1,3-Propanediamine, N1-dodecyl-", "1,3-Propanediamine, N-dodecyl-", "N1-Dodecyl-1,3-propanediamine", "RC 5635", "N-Lauryltrimethylenediamine", "N-Dodecyl-1,3-propanediamine", "N-Dodecyl-1,3-trimethylenediamine", "N-Dodecyltrimethylenediamine", "N-(3-Aminopropyl)dodecylamine", "Diam 21", "Laurylaminopropylamine", "3-(Dodecylamino)-1-propanamine", "Dicrodamine 1.12", "3-(Dodecylamino)propylamine", "N-Lauryl-1,3-diaminopropane", "N-Dodecyl-1,3-diaminopropane", "3-(Laurylamino)propylamine", "Genamin LAP 100D", "Genamin LAP 100", "NSC 28753", "NSC 40165", "N-Dodecyl-1,3-propylenediamine"], "SMILES": "C(CCCCCCCC)CCCNCCCN", "physical_data": {"Molecular Weight": "242.44", "Molecular Formula": "C15H34N2", "Boiling Point": "137-141 \u00b0C @ Press: 1 Torr", "Melting Point": "24.5-25.5 \u00b0C"}}