{"cas_no": "55399-93-4", "cn_name": "4-\u7f9f\u57fa\u5f02\u4eae\u6c28\u9178", "en_name": ["(2S,3R,4S)-4-Hydroxyisoleucine", "L-Ribonic acid, 2-amino-2,3,5-trideoxy-3-methyl-", "2-Amino-2,3,5-trideoxy-3-methyl-L-ribonic acid", "(2S,3R,4S)-4-Hydroxyisoleucine", "(4S)-4-Hydroxy-L-isoleucine", "(4S)-4-Hydroxy-L-isoleucine"], "SMILES": "C(C(C(O)=O)N)(C(C)O)C", "physical_data": {"Molecular Weight": "147.17", "Molecular Formula": "C6H13NO3", "Melting Point": "220-225 \u00b0C"}}