{"cas_no": "554-92-7", "cn_name": "\u76d0\u9178\u4e09\u7532\u6c27\u82ef\u9170\u80fa", "en_name": ["Trimethobenzamide hydrochloride", "Benzamide, N-[[4-[2-(dimethylamino)ethoxy]phenyl]methyl]-3,4,5-trimethoxy-, hydrochloride (1:1)", "Benzamide, N-[p-[2-(dimethylamino)ethoxy]benzyl]-3,4,5-trimethoxy-, monohydrochloride", "Benzamide, N-[[4-[2-(dimethylamino)ethoxy]phenyl]methyl]-3,4,5-trimethoxy-, monohydrochloride", "Benzamide, N-[p-[2-(dimethylamino)ethoxy]benzyl]-3,4,5-trimethoxy-, hydrochloride", "N-[p-[2-(Dimethylamino)ethoxy]benzyl]-3,4,5-trimethoxybenzamide hydrochloride", "4-(2-Dimethylaminoethoxy)-N-(3,4,5-trimethoxybenzoyl)benzylamine hydrochloride", "Tigan hydrochloride", "Trimethobenzamide hydrochloride", "Tigan", "Ro 2-9578", "Xametina", "Anaus"], "SMILES": "C(NCC1=CC=C(OCCN(C)C)C=C1)(=O)C2=CC(OC)=C(OC)C(OC)=C2.Cl", "physical_data": {"Molecular Weight": "", "Molecular Formula": "C21H28N2O5.ClH", "Melting Point": "187.5-190 \u00b0C"}}