{"cas_no": "554-84-7", "cn_name": "3-\u785d\u57fa\u82ef\u915a", "en_name": ["3-Nitrophenol", "Phenol, 3-nitro-", "Phenol, m-nitro-", "3-Nitrophenol", "m-Nitrophenol", "m-Hydroxynitrobenzene", "3-Hydroxynitrobenzene", "1-Hydroxy-3-nitrobenzene", "NSC 1551"], "SMILES": "N(=O)(=O)C1=CC(O)=CC=C1", "physical_data": {"Molecular Weight": "139.11", "Molecular Formula": "C6H5NO3", "Boiling Point": "194 \u00b0C @ Press: 70 Torr", "Melting Point": "97 \u00b0C", "Density": "1.2797 g/cm\u00b3 @ Temp: 100 \u00b0C"}}