{"cas_no": "554-00-7", "cn_name": "2,4-\u4e8c\u6c2f\u82ef\u80fa", "en_name": ["2,4-Dichloroaniline", "Benzenamine, 2,4-dichloro-", "Aniline, 2,4-dichloro-", "2,4-Dichlorobenzenamine", "2,4-Dichloroaniline", "o,p-Dichloroaniline", "2,4-Dichlorophenylamine", "NSC 8756", "4-Chloro-2-chloroaniline"], "SMILES": "ClC1=C(N)C=CC(Cl)=C1", "physical_data": {"Molecular Weight": "162.02", "Molecular Formula": "C6H5Cl2N", "Boiling Point": "245 \u00b0C @ Press: 760 Torr", "Melting Point": "63-64 \u00b0C", "Density": "1.567 g/cm\u00b3 @ Temp: 20 \u00b0C"}}