{"cas_no": "554-62-1", "cn_name": "\u690d\u7269\u9798\u6c28\u9187", "en_name": ["Phytosphingosine", "1,3,4-Octadecanetriol, 2-amino-, (2S,3S,4R)-", "Phytosphingosine", "1,3,4-Octadecanetriol, 2-amino-, D-ribo-", "1,3,4-Octadecanetriol, 2-amino-, [2S-(2R*,3R*,4S*)]-", "(2S,3S,4R)-2-Amino-1,3,4-octadecanetriol", "C18-Phytosphingosine", "Sphinganine, 4-D-hydroxy-", "4-D-Hydroxysphinganine", "D-ribo-1,3,4-Trihydroxy-2-aminooctadecane", "(+)-D-ribo-Phytosphingosine", "D-ribo-Phytosphingosine", "(2S,3S,4R)-2-Amino-1,3,4-trihydroxyoctadecane"], "SMILES": "C(CCCCCCCCCCCCCC)(C(C(CO)N)O)O", "physical_data": {"Molecular Weight": "317.51", "Molecular Formula": "C18H39NO3", "Melting Point": "110-112.5 \u00b0C"}}