{"cas_no": "554-57-4", "cn_name": "\u918b\u7532\u5511\u80fa", "en_name": ["Methazolamide", "Acetamide, N-[5-(aminosulfonyl)-3-methyl-1,3,4-thiadiazol-2(3H)-ylidene]-", "Acetamide, N-(4-methyl-2-sulfamoyl-\u03942-1,3,4-thiadiazolin-5-ylidene)-", "N-[5-(Aminosulfonyl)-3-methyl-1,3,4-thiadiazol-2(3H)-ylidene]acetamide", "5-Acetylimino-4-methyl-\u03942-1,3,4-thiadiazoline-2-sulfonamide", "Methazolamide", "Methenamide", "N-(4-Methyl-2-sulfamoyl-\u03942-1,3,4-thiadiazolin-5-ylidene)acetamide", "Neptazane", "Neptazaneat", "L 584601", "MeSH ID: D008704"], "SMILES": "N(C(C)=O)=C1SC(S(N)(=O)=O)=NN1C", "physical_data": {"Molecular Weight": "236.27", "Molecular Formula": "C5H8N4O3S2", "Melting Point": "213-214 \u00b0C"}}