{"cas_no": "554-35-8", "cn_name": "\u4e9e\u9ebb\u82f7", "en_name": ["Linamarin", "Propanenitrile, 2-(\u03b2-D-glucopyranosyloxy)-2-methyl-", "Linamarin", "2-(\u03b2-D-Glucopyranosyloxy)-2-methylpropanenitrile", "\u03b1-Hydroxyisobutyronitrile \u03b2-D-glucose", "Phaseolunatin", "2-(\u03b2-D-Glucosyloxy)-2-methylpropionitrile"], "SMILES": "O(C(C#N)(C)C)C1OC(CO)C(O)C(O)C1O", "physical_data": {"Molecular Weight": "247.25", "Molecular Formula": "C10H17NO6", "Melting Point": "142-143 \u00b0C"}}