{"cas_no": "554-01-8", "cn_name": "5-\u7532\u57fa\u80de\u5627\u5576", "en_name": ["5-Methylcytosine", "2(1H)-Pyrimidinone, 6-amino-5-methyl-", "Cytosine, 5-methyl-", "2(1H)-Pyrimidinone, 4-amino-5-methyl-", "6-Amino-5-methyl-2(1H)-pyrimidinone", "5-Methylcytosine", "4-Amino-5-methyl-2(1H)-pyrimidinone", "4-Amino-2-hydroxy-5-methylpyrimidine", "NSC 137776", "MeSH ID: D044503"], "SMILES": "NC1=C(C)C=NC(=O)N1", "physical_data": {"Molecular Weight": "125.13", "Molecular Formula": "C5H7N3O", "Melting Point": "270 \u00b0C (decomp)"}}