{"cas_no": "554-95-0", "cn_name": "\u5747\u82ef\u4e09\u7532\u9178", "en_name": ["1,3,5-Benzenetricarboxylic acid", "1,3,5-Benzenetricarboxylic acid", "Trimesic acid", "Trimesinic acid", "Trimesitinic acid", "5-Carboxyisophthalic acid", "1,3,5-Tricarboxybenzene", "NSC 3998", "B 0043", "Benzene-1,3,5-tricarboxylic acid"], "SMILES": "C(O)(=O)C1=CC(C(O)=O)=CC(C(O)=O)=C1", "physical_data": {"Molecular Weight": "210.14", "Molecular Formula": "C9H6O6", "Boiling Point": "180-181 \u00b0C @ Press: 16 Torr", "Melting Point": "&gt;300 \u00b0C"}}