{"cas_no": "554-68-7", "cn_name": "\u4e09\u4e59\u80fa\u76d0\u9178\u76d0", "en_name": ["Triethylamine, hydrochloride", "Ethanamine, N,N-diethyl-, hydrochloride (1:1)", "Triethylamine, hydrochloride", "Ethanamine, N,N-diethyl-, hydrochloride", "Triethylamine monohydrochloride", "Triethylammonium chloride", "N,N-Diethylethanamine hydrochloride"], "SMILES": "N(CC)(CC)CC.Cl", "physical_data": {"Molecular Weight": "", "Molecular Formula": "C6H15N.ClH", "Boiling Point": "&lt;245 \u00b0C", "Melting Point": "260 \u00b0C (decomp)", "Density": "1.0689 g/cm\u00b3 @ Temp: 21 \u00b0C"}}