{"cas_no": "554-70-1", "cn_name": "\u4e09\u4e59\u57fa\u81a6", "en_name": ["Triethylphosphine", "Phosphine, triethyl-", "Triethylphosphine", "Triethylphosphorus", "Hishicolin P 2"], "SMILES": "P(CC)(CC)CC", "physical_data": {"Molecular Weight": "118.16", "Molecular Formula": "C6H15P", "Boiling Point": "129 \u00b0C", "Melting Point": "-88 \u00b0C"}}