{"cas_no": "554-14-3", "cn_name": "2-\u7532\u57fa\u567b\u5429", "en_name": ["2-Methylthiophene", "Thiophene, 2-methyl-", "2-Methylthiophene", "\u03b1-Methylthiophene", "2-Thienylmethane"], "SMILES": "CC1=CC=CS1", "physical_data": {"Molecular Weight": "98.17", "Molecular Formula": "C5H6S", "Boiling Point": "112.6 \u00b0C", "Melting Point": "-63.4 \u00b0C", "Density": "1.0168 g/cm\u00b3 @ Temp: 20 \u00b0C"}}