{"cas_no": "554-91-6", "cn_name": "\u9f99\u80c6\u4e8c\u7cd6", "en_name": ["Gentiobiose", "D-Glucose, 6-O-\u03b2-D-glucopyranosyl-", "Gentiobiose", "6-O-\u03b2-D-Glucopyranosyl-D-glucose", "Amygdalose", "6-(\u03b2-D-Glucosido)-D-glucose", "D-Gentiobiose"], "SMILES": "O(CC(C(C(C(C=O)O)O)O)O)C1OC(CO)C(O)C(O)C1O", "physical_data": {"Molecular Weight": "342.30", "Molecular Formula": "C12H22O11", "Melting Point": "86 \u00b0C"}}