{"cas_no": "554-94-9", "cn_name": "H-GLY-MET-OH", "en_name": ["Glycyl-L-methionine", "L-Methionine, glycyl-", "Methionine, N-glycyl-, L-", "L-Methionine, N-glycyl-", "Glycyl-L-methionine", "Glycylmethionine", "N-Glycylmethionine", "NSC 88866", "202: PN: EP2161028 PAGE: 11 claimed protein", "6: PN: WO2017095140 PAGE: 4 claimed sequence", "(2S)-2-[(2-Azaniumylacetyl)amino]-4-methylsulfanylbutanoate", "(2S)-2-(2-Aminoacetamido)-4-(methylsulfanyl)butanoic acid", "43: PN: WO2020097235 SEQID: 272 claimed protein", "6: PN: WO2022093718 PAGE: 104 claimed sequence", "469: PN: WO2022125673 SEQID: 469 claimed protein"], "SMILES": "C(NC(CN)=O)(CCSC)C(O)=O", "physical_data": {"Molecular Weight": "206.26", "Molecular Formula": "C7H14N2O3S", "Melting Point": "140-145 \u00b0C"}}