{"cas_no": "554-13-2", "cn_name": "\u78b3\u9178\u9502", "en_name": ["Lithium carbonate (Li2CO3)", "Carbonic acid, lithium salt (1:2)", "Carbonic acid, dilithium salt", "Lithium carbonate (Li2CO3)", "Candamide", "Dilithium carbonate", "Eskalith", "Carbonic acid lithium salt (Li2CO3)", "Camcolit", "Carbolith", "Hypnorex", "Lithane", "Lithonate", "Lithotabs", "Plenur", "Priadel", "Quilonum retard", "CP 15467-61", "Micalith", "Lithocarb", "Phasal", "Lithobid", "Teralithe", "Quilonorm-retard", "Liskonum", "Ceglution", "NSC 16895", "Lithicarb", "Limas", "Carbolithium", "Lithium carbonate", "Lithuril", "Li2CO3", "QJ 0005", "Lithmax", "JC 0035"], "SMILES": "C(=O)(O)O.[Li]", "physical_data": {"Molecular Weight": "", "Molecular Formula": "CH2O3.2Li", "Melting Point": "723 \u00b0C", "Density": "2.11 g/cm\u00b3"}}