{"cas_no": "554-52-9", "cn_name": "4-(2-\u6c28\u57fa\u4e59\u57fa)-2-\u7532\u6c27\u57fa\u82ef\u915a", "en_name": ["3-Methoxytyramine", "Phenol, 4-(2-aminoethyl)-2-methoxy-", "Guaiacol, 4-(2-aminoethyl)-", "4-(2-Aminoethyl)-2-methoxyphenol", "Dopamine, 3-methoxy-", "Homovanillylamine", "3-Methoxy-4-hydroxyphenethylamine", "3-Methoxy-4-hydroxyphenylethylamine", "4-Hydroxy-3-methoxyphenethylamine", "Homovanillinamine", "3-Methoxydopamine", "3-Methoxytyramine", "4-Hydroxy-3-methoxy-\u03b2-phenethylamine", "4-Hydroxy-3-methoxyphenylethylamine", "3-O-Methyldopamine", "4-Hydroxy-3-methoxy-2-phenethylamine", "\u03b2-(4-Hydroxy-3-methoxyphenyl)ethylamine", "3-MT", "2-(4-Hydroxy-3-methoxyphenyl)ethylamine", "3-Methoxy-p-tyramine", "2-Methoxy-4-(2-aminoethyl)phenol"], "SMILES": "O(C)C1=CC(CCN)=CC=C1O", "physical_data": {"Molecular Weight": "167.21", "Molecular Formula": "C9H13NO2", "Melting Point": "89 \u00b0C"}}