{"cas_no": "554-12-1", "cn_name": "\u4e19\u9178\u7532\u916f", "en_name": ["Methyl propionate", "Propanoic acid, methyl ester", "Propionic acid, methyl ester", "Methyl propionate", "Methyl propanoate", "Methyl propylate", "NSC 9375"], "SMILES": "C(CC)(OC)=O", "physical_data": {"Molecular Weight": "88.11", "Molecular Formula": "C4H8O2", "Boiling Point": "79.8 \u00b0C", "Melting Point": "-87.5 \u00b0C", "Density": "0.915 g/cm\u00b3 @ Temp: 20 \u00b0C"}}