{"cas_no": "5540-60-3", "cn_name": "N-(4-\u6c2f-3-\u785d\u57fa\u82ef\u57fa)\u4e59\u9170\u80fa", "en_name": ["N-(4-Chloro-3-nitrophenyl)acetamide", "Acetamide, N-(4-chloro-3-nitrophenyl)-", "Acetanilide, 4\u2032-chloro-3\u2032-nitro-", "N-(4-Chloro-3-nitrophenyl)acetamide", "1-Acetylamino-4-chloro-3-nitrobenzene", "4\u2032-Chloro-3\u2032-nitroacetanilide"], "SMILES": "N(C(C)=O)C1=CC(N(=O)=O)=C(Cl)C=C1", "physical_data": {"Molecular Weight": "214.61", "Molecular Formula": "C8H7ClN2O3", "Melting Point": "147-148 \u00b0C"}}