{"cas_no": "55404-29-0", "cn_name": "4-\u785d\u57fa\u5f02\u55b9\u5549-1-\u9187", "en_name": ["4-Nitro-1(2H)-isoquinolinone", "1(2H)-Isoquinolinone, 4-nitro-", "Isocarbostyril, 4-nitro-", "4-Nitro-1(2H)-isoquinolinone", "4-Nitro-1-isoquinolinol", "4-Nitro-1-hydroxyisoquinoline", "1-Hydroxy-4-nitroisoquinoline"], "SMILES": "N(=O)(=O)C=1C=2C(C(=O)NC1)=CC=CC2", "physical_data": {"Molecular Weight": "190.16", "Molecular Formula": "C9H6N2O3", "Melting Point": "236-237 \u00b0C"}}