{"cas_no": "55418-52-5", "cn_name": "\u80e1\u6912\u57fa\u4e19\u916e", "en_name": ["Dulcinyl", "2-Butanone, 4-(1,3-benzodioxol-5-yl)-", "2-Butanone, 4-[3,4-(methylenedioxy)phenyl]-", "4-(1,3-Benzodioxol-5-yl)-2-butanone", "4-(3,4-Methylenedioxyphenyl)-2-butanone", "5-(3-Oxobutyl)-1,3-benzodioxole", "Dulcinyl", "NSC 405365", "Cassione", "Piperonyl acetone", "4-(Benzo[d][1,3]dioxol-5-yl)butan-2-one"], "SMILES": "C(CC(C)=O)C=1C=C2C(=CC1)OCO2", "physical_data": {"Molecular Weight": "192.21", "Molecular Formula": "C11H12O3", "Boiling Point": "163 \u00b0C @ Press: 16 Torr", "Melting Point": "55 \u00b0C"}}