{"cas_no": "5541-67-3", "cn_name": "8-\u7f9f\u57fa-5-\u7532\u57fa\u55b9\u5549", "en_name": ["5-Methyl-8-hydroxyquinoline", "8-Quinolinol, 5-methyl-", "5-Methyl-8-quinolinol", "5-Methyloxine", "8-Hydroxy-5-methylquinoline", "Tiliquinol", "5-Methyl-8-hydroxyquinoline", "NSC 130828"], "SMILES": "CC=1C2=C(C(O)=CC1)N=CC=C2", "physical_data": {"Molecular Weight": "159.18", "Molecular Formula": "C10H9NO", "Melting Point": "121-122 \u00b0C"}}