{"cas_no": "5543-57-7", "cn_name": "S-\u6587\u62c9\u6cd5\u8f9b", "en_name": ["(-)-Warfarin", "2H-1-Benzopyran-2-one, 4-hydroxy-3-[(1S)-3-oxo-1-phenylbutyl]-", "Coumarin, 3-(\u03b1-acetonylbenzyl)-4-hydroxy-, (S)-(-)-", "2H-1-Benzopyran-2-one, 4-hydroxy-3-(3-oxo-1-phenylbutyl)-, (S)-", "4-Hydroxy-3-[(1S)-3-oxo-1-phenylbutyl]-2H-1-benzopyran-2-one", "(-)-Warfarin", "(S)-Warfarin", "(S)-4-Hydroxy-3-(3-oxo-1-phenylbutyl)-2H-chromen-2-one"], "SMILES": "C(CC(C)=O)(C1=C(O)C=2C(OC1=O)=CC=CC2)C3=CC=CC=C3", "physical_data": {"Molecular Weight": "", "Molecular Formula": "C19H16O4", "Melting Point": "172-173 \u00b0C"}}