{"cas_no": "55435-71-7", "cn_name": "4-(2-\u6c2f-4-\u785d\u57fa\u82ef\u57fa)\u5417\u5549", "en_name": ["4-(2-Chloro-4-nitrophenyl)morpholine", "Morpholine, 4-(2-chloro-4-nitrophenyl)-", "4-(2-Chloro-4-nitrophenyl)morpholine", "3-Chloro-4-morpholino-1-nitrobenzene"], "SMILES": "ClC1=C(C=CC(N(=O)=O)=C1)N2CCOCC2", "physical_data": {"Molecular Weight": "242.66", "Molecular Formula": "C10H11ClN2O3", "Melting Point": "130 \u00b0C"}}