{"cas_no": "55441-95-7", "cn_name": "2,2'-BIS(2-HYDROXYETHOXY)-1,1'-BINAPHTHYL", "en_name": ["2,2\u2032-[[1,1\u2032-Binaphthalene]-2,2\u2032-diylbis(oxy)]bis[ethanol]", "Ethanol, 2,2\u2032-[[1,1\u2032-binaphthalene]-2,2\u2032-diylbis(oxy)]bis-", "Ethanol, 2,2\u2032-[[1,1\u2032-binaphthalene]-2,2\u2032-diylbis(oxy)]bis-, (\u00b1)-", "2,2\u2032-[[1,1\u2032-Binaphthalene]-2,2\u2032-diylbis(oxy)]bis[ethanol]", "2,2\u2032-Bis(2-hydroxyethoxy)-1,1\u2032-binaphthalene", "NSC 245024", "TBIS-BNE", "1,1\u2032-Bi[2-(2-hydroxyethoxy)naphthalene]", "2,2\u2032-Bis(2-hydroxyethoxy)-1,1\u2032-binaphthyl"], "SMILES": "O(CCO)C1=C(C2=C(C=C1)C=CC=C2)C=3C4=C(C=CC3OCCO)C=CC=C4", "physical_data": {"Molecular Weight": "374.43", "Molecular Formula": "C24H22O4", "Melting Point": "203-205.5 \u00b0C"}}