{"cas_no": "55444-68-3", "cn_name": "2H-\u73af\u620a\u5e76[B]\u544b\u5583-2-\u916e,5-(\u82ef\u7532\u9170\u6c27\u57fa)\u516d\u6c22-4-[(1E,3S)-3-\u7f9f\u57fa-5\u82ef\u57fa-1-\u620a\u70ef-1-\u57fa]-,(3AR,4R,5R,6AS)-(...)", "en_name": ["(3aR,4R,5R,6aS)-5-(Benzoyloxy)hexahydro-4-[(1E,3S)-3-hydroxy-5-phenyl-1-penten-1-yl]-2H-cyclopenta[b]furan-2-one", "2H-Cyclopenta[b]furan-2-one, 5-(benzoyloxy)hexahydro-4-[(1E,3S)-3-hydroxy-5-phenyl-1-penten-1-yl]-, (3aR,4R,5R,6aS)-", "2H-Cyclopenta[b]furan-2-one, 5-(benzoyloxy)hexahydro-4-(3-hydroxy-5-phenyl-1-pentenyl)-, [3aR-[3a\u03b1,4a(1E,3S*),5\u03b2,6a\u03b1]]-", "2H-Cyclopenta[b]furan-2-one, 5-(benzoyloxy)hexahydro-4-[(1E,3S)-3-hydroxy-5-phenyl-1-pentenyl]-, (3aR,4R,5R,6aS)-", "(3aR,4R,5R,6aS)-5-(Benzoyloxy)hexahydro-4-[(1E,3S)-3-hydroxy-5-phenyl-1-penten-1-yl]-2H-cyclopenta[b]furan-2-one", "PGX 7", "(3aR,4R,5R,6aS)-4-((3S,E)-3-Hydroxy-5-phenyl-1-penten-1-yl)-2-oxohexahydro-2H-cyclopenta[b]furan-5-yl benzoate"], "SMILES": "C(=CC(CCC1=CC=CC=C1)O)C2C3C(CC2OC(=O)C4=CC=CC=C4)OC(=O)C3", "physical_data": {"Molecular Weight": "406.47", "Molecular Formula": "C25H26O5", "Melting Point": "78-81 \u00b0C"}}