{"cas_no": "554403-49-5", "cn_name": "WAY 181187", "en_name": ["1-[(6-Chloroimidazo[2,1-b]thiazol-5-yl)sulfonyl]-1H-indole-3-ethanamine", "1H-Indole-3-ethanamine, 1-[(6-chloroimidazo[2,1-b]thiazol-5-yl)sulfonyl]-", "1-[(6-Chloroimidazo[2,1-b]thiazol-5-yl)sulfonyl]-1H-indole-3-ethanamine", "2-[1-[(6-Chloroimidazo[2,1-b][1,3]thiazol-5-yl)sulfonyl]-1H-indol-3-yl]ethylamine", "WAY 181187", "2-[1-(6-Chloroimidazo[2,1-b][1,3]thiazol-5-yl)sulfonylindol-3-yl]ethanamine", "SAX 187"], "SMILES": "S(=O)(=O)(N1C=2C(C(CCN)=C1)=CC=CC2)C=3N4C(=NC3Cl)SC=C4", "physical_data": {"Molecular Weight": "380.87", "Molecular Formula": "C15H13ClN4O2S2", "Melting Point": "243-244 \u00b0C"}}