{"cas_no": "5545-54-0", "cn_name": "O-(\u53d4\u4e01\u57fa)-N-[(\u82ef\u7532\u6c27\u57fa)\u7fb0\u57fa]-L-\u916a\u6c28\u9178", "en_name": ["O-(1,1-Dimethylethyl)-N-[(phenylmethoxy)carbonyl]-L-tyrosine", "L-Tyrosine, O-(1,1-dimethylethyl)-N-[(phenylmethoxy)carbonyl]-", "Alanine, 3-(p-tert-butoxyphenyl)-N-carboxy-, N-benzyl ester, L-", "Alanine, 3-(p-tert-butoxyphenyl)-N-carboxy-, N-benzyl ester", "O-(1,1-Dimethylethyl)-N-[(phenylmethoxy)carbonyl]-L-tyrosine", "N\u03b1-(Benzyloxycarbonyl)-O-tert-butyl-L-tyrosine", "N-(Benzyloxycarbonyl)-O-tert-butyltyrosine", "N-(Benzyloxycarbonyl)-O-tert-butyl-L-tyrosine", "(S)-2-(((Benzyloxy)carbonyl)amino)-3-(4-(tert-butoxy)phenyl)propanoic acid"], "SMILES": "C(C(NC(OCC1=CC=CC=C1)=O)C(O)=O)C2=CC=C(OC(C)(C)C)C=C2", "physical_data": {"Molecular Weight": "371.43", "Molecular Formula": "C21H25NO5", "Melting Point": "76-78 \u00b0C"}}