{"cas_no": "5545-17-5", "cn_name": "N,N'-\u4e8c\u4e59\u9170-L-\u80f1\u6c28\u9178", "en_name": ["N,N\u2032-Diacetyl-L-cystine", "L-Cystine, N,N\u2032-diacetyl-", "Cystine, N,N\u2032-diacetyl-, L-", "Cystine, N,N\u2032-diacetyl-", "N,N\u2032-Diacetyl-L-cystine", "N,N\u2032-Diacetylcystine", "NSC 203780"], "SMILES": "C(NC(C)=O)(C(O)=O)CSSCC(NC(C)=O)C(O)=O", "physical_data": {"Molecular Weight": "", "Molecular Formula": "C10H16N2O6S2", "Melting Point": "273-275 \u00b0C"}}