{"cas_no": "55453-87-7", "cn_name": "\u4f0a\u7d22\u514b\u9178", "en_name": ["Isoxepac", "Dibenz[b,e]oxepin-2-acetic acid, 6,11-dihydro-11-oxo-", "6,11-Dihydro-11-oxodibenz[b,e]oxepin-2-acetic acid", "Isoxepac", "HP 549", "11-Oxo-6,11-dihydrodibenz[b,e]oxepin-2-acetic acid", "Artil", "P 720549", "NSC 300907", "11-Oxo-6,11-dihydrodibenzo[b,e]oxepin-2-acetic acid", "2-(11-Oxo-6H-benzo[c][1]benzoxepin-2-yl)acetic acid"], "SMILES": "O=C1C=2C(OCC=3C1=CC=CC3)=CC=C(CC(O)=O)C2", "physical_data": {"Molecular Weight": "268.26", "Molecular Formula": "C16H12O4", "Melting Point": "131-132.5 \u00b0C", "Density": "1.39 g/cm\u00b3"}}