{"cas_no": "55453-24-2", "cn_name": "3-\u6c30\u57fa\u4e19\u57fa\u4e09\u7532\u6c27\u57fa\u7845\u70f7", "en_name": ["Cyanopropyltrimethoxysilane", "Butanenitrile, 4-(trimethoxysilyl)-", "4-(Trimethoxysilyl)butanenitrile", "\u03b3-Cyanopropyltrimethoxysilane", "Cyanopropyltrimethoxysilane", "3-Cyanopropyltrimethoxysilane"], "SMILES": "[Si](CCCC#N)(OC)(OC)OC", "physical_data": {"Molecular Weight": "189.28", "Molecular Formula": "C7H15NO3Si", "Boiling Point": "90-92 \u00b0C @ Press: 7 Torr", "Density": "1.026 g/cm\u00b3 @ Temp: 25 \u00b0C"}}