{"cas_no": "5545-89-1", "cn_name": "\u881f\u6885\u9e7c", "en_name": ["(3aS,3\u2032aS,8aS,8\u2032aS)-2,2\u2032,3,3\u2032,8,8\u2032,8a,8\u2032a-Octahydro-1,1\u2032-dimethyl-3a,3\u2032a(1H,1\u2032H)-bipyrrolo[2,3-b]indole", "3a,3\u2032a(1H,1\u2032H)-Bipyrrolo[2,3-b]indole, 2,2\u2032,3,3\u2032,8,8\u2032,8a,8\u2032a-octahydro-1,1\u2032-dimethyl-, (3aS,3\u2032aS,8aS,8\u2032aS)-", "Chimonanthine", "Calycanthidine, 1-demethyl-", "Pyrrolo[2,3-b]indole, calycanthidine deriv.", "(3aS,3\u2032aS,8aS,8\u2032aS)-2,2\u2032,3,3\u2032,8,8\u2032,8a,8\u2032a-Octahydro-1,1\u2032-dimethyl-3a,3\u2032a(1H,1\u2032H)-bipyrrolo[2,3-b]indole", "(-)-Chimonanthine", "Chimonanthin", "l-Chimonanthine"], "SMILES": "CN1C2C(C=3C(N2)=CC=CC3)(CC1)C45C=6C(NC4N(C)CC5)=CC=CC6", "physical_data": {"Molecular Weight": "346.47", "Molecular Formula": "C22H26N4", "Melting Point": "188-189 \u00b0C"}}