{"cas_no": "55482-89-8", "cn_name": "\u5471\u897f\u66ff\u67f3", "en_name": ["Guacetisal", "Benzoic acid, 2-(acetyloxy)-, 2-methoxyphenyl ester", "Acetylsalicylic acid guaiacol ester", "Broncaspin", "Guacetisal", "Guacetisalum", "2-Methoxyphenyl O-acetylsalicylate", "Guaiaspir", "2-Methoxyphenyl 2-acetoxybenzoate"], "SMILES": "C(OC1=C(OC)C=CC=C1)(=O)C2=C(OC(C)=O)C=CC=C2", "physical_data": {"Molecular Weight": "286.28", "Molecular Formula": "C16H14O5", "Melting Point": "71-73 \u00b0C"}}