{"cas_no": "55481-88-4", "cn_name": "\u5927\u53f6\u831c\u8349\u7d20", "en_name": ["Mollugin", "2H-Naphtho[1,2-b]pyran-5-carboxylic acid, 6-hydroxy-2,2-dimethyl-, methyl ester", "Mollugin", "Rubimaillin", "SMB 00431"], "SMILES": "C(OC)(=O)C1=C2C(=C3C(=C1O)C=CC=C3)OC(C)(C)C=C2", "physical_data": {"Molecular Weight": "284.31", "Molecular Formula": "C17H16O4", "Melting Point": "129.5-131 \u00b0C"}}