{"cas_no": "55488-51-2", "cn_name": "\u6c2f\u7532\u9178(N-\u7678\u57fa)\u916f", "en_name": ["Carbonochloridic acid, decyl ester", "Carbonochloridic acid, decyl ester", "Formic acid, chloro-, decyl ester", "n-Decyl chloroformate", "Decyl chloroformate", "Decyloxycarbonyl chloride", "Decyl carbonochloridate"], "SMILES": "C(CCCCCCCC)COC(Cl)=O", "physical_data": {"Molecular Weight": "220.74", "Molecular Formula": "C11H21ClO2", "Boiling Point": "220 \u00b0C"}}