{"cas_no": "55489-15-1", "cn_name": "5-\u4e59\u6c27\u57fa-2-\u5def\u57fa\u82ef\u5e76\u54aa\u5511", "en_name": ["5-Ethoxy-2-mercaptobenzimidazole", "2H-Benzimidazole-2-thione, 5-ethoxy-1,3-dihydro-", "5-Ethoxy-1,3-dihydro-2H-benzimidazole-2-thione", "5-Ethoxy-2-mercaptobenzimidazole", "5-Ethoxy-1H-benzimidazole-2-thiol", "5-Ethoxybenzimidazole-2-thiol", "2-Mercapto-5-ethoxybenzimidazole"], "SMILES": "S=C1NC=2C(=CC(OCC)=CC2)N1", "physical_data": {"Molecular Weight": "194.25", "Molecular Formula": "C9H10N2OS", "Melting Point": "244 \u00b0C"}}