{"cas_no": "55499-44-0", "cn_name": "2,4-\u4e8c\u7532\u57fa\u82ef\u787c\u9178", "en_name": ["B-(2,4-Dimethylphenyl)boronic acid", "Boronic acid, B-(2,4-dimethylphenyl)-", "Boronic acid, (2,4-dimethylphenyl)-", "B-(2,4-Dimethylphenyl)boronic acid", "(2,4-Dimethylphenyl)boronic acid", "2,4-Dimethylbenzeneboronic acid"], "SMILES": "B(O)(O)C1=C(C)C=C(C)C=C1", "physical_data": {"Molecular Weight": "149.98", "Molecular Formula": "C8H11BO2", "Melting Point": "197-198 \u00b0C"}}