{"cas_no": "555-44-2", "cn_name": "(\u4e09)\u68d5\u6988\u9178\u7518\u6cb9\u916f", "en_name": ["Tripalmitin", "Hexadecanoic acid, 1,1\u2032,1\u2032\u2032-(1,2,3-propanetriyl) ester", "Palmitin, tri-", "Hexadecanoic acid, 1,2,3-propanetriyl ester", "Glycerol tripalmitate", "Glyceryl tripalmitate", "Tripalmitin", "Palmitic triglyceride", "Triglyceryl palmitate", "Tripalmitoylglycerol", "Spezialfett 116", "Barolub LCD", "Dynasan 116", "Tripalmitate", "Glycerin tripalmitate", "Triglyceride PPP", "Glyceryl trihexadecanoate", "Dynosan 114", "Palmitic acid triglyceride", "2,3-Di(hexadecanoyloxy)propyl hexadecanoate", "Sterotex GTP"], "SMILES": "C(OC(CCCCCCCCCCCCCCC)=O)(COC(CCCCCCCCCCCCCCC)=O)COC(CCCCCCCCCCCCCCC)=O", "physical_data": {"Molecular Weight": "807.32", "Molecular Formula": "C51H98O6", "Boiling Point": "315 \u00b0C", "Melting Point": "66.5 \u00b0C", "Density": "0.866 g/cm\u00b3 @ Temp: 80 \u00b0C"}}