{"cas_no": "555-31-7", "cn_name": "\u5f02\u4e19\u9187\u94dd", "en_name": ["Aluminum isopropoxide", "2-Propanol, aluminum salt (3:1)", "2-Propanol, aluminum salt", "Isopropyl alcohol, aluminum salt", "Aluminum isopropoxide", "Aluminum isopropylate", "Aluminum triisopropoxide", "Triisopropoxyaluminum", "Aluminum triisopropylate", "Aliso", "Aluminum isopropanolate", "Aluminium isopropoxide", "Aluminum sec-propanolate", "Isopropanol aluminum salt", "Aluminum tris(sec-propoxide)", "Triisopropyloxyaluminum", "Tris(isopropoxy)aluminum", "Aluminum 2-propoxide", "Aluminum isopropoxide (1:3)", "Aluminum tris(isopropoxide)", "Aluminum isopropylate (Al(OC3H7)3)", "AIPD", "Aluminum(3+) isopropoxide", "Aluminum tris(iso-propoxide)", "Manalox 130", "Triisopropyl aluminate", "PADM", "Aluminum tris(isopropylate)", "Aluminum isopropioate", "Tris(isopropanolato)aluminum", "SYM-AL 04", "A 1010", "Aluminium trisopropoxide", "Aluminum, tris(2-propanolato)-", "Manalox 360"], "SMILES": "C(C)(C)O.[Al]", "physical_data": {"Molecular Weight": "", "Molecular Formula": "C3H8O.<sup>1</sup>/3Al", "Boiling Point": "94 \u00b0C @ Press: 0.5 Torr", "Melting Point": "119 \u00b0C", "Density": "1.025 g/cm\u00b3 @ Temp: 20 \u00b0C"}}