{"cas_no": "555-60-2", "cn_name": "\u7fb0\u57fa\u6c30\u5316\u6c2f\u82ef\u8159", "en_name": ["Carbonyl cyanide (m-chlorophenyl)hydrazone", "Propanedinitrile, 2-[2-(3-chlorophenyl)hydrazinylidene]-", "Propanedinitrile, [(3-chlorophenyl)hydrazono]-", "Mesoxalonitrile, (m-chlorophenyl)hydrazone", "2-[2-(3-Chlorophenyl)hydrazinylidene]propanedinitrile", "Carbonyl cyanide (3-chlorophenyl)hydrazone", "CCP", "CCCP", "Carbonyl cyanide (m-chlorophenyl)hydrazone", "[(3-Chlorophenyl)hydrazono]malononitrile", "3-Chlorophenylhydrazonopropanedinitrile", "NSC 88124", "2-[(3-Chlorophenyl)hydrazinylidene]propanedinitrile", "2-[(3-Chlorophenyl)-hydrazono]malononitrile"], "SMILES": "N(N=C(C#N)C#N)C1=CC(Cl)=CC=C1", "physical_data": {"Molecular Weight": "204.62", "Molecular Formula": "C9H5ClN4", "Melting Point": "176 \u00b0C (decomp)"}}