{"cas_no": "555-75-9", "cn_name": "\u4e09\u4e59\u9187\u94dd", "en_name": ["Aluminum ethoxide", "Ethanol, aluminum salt (3:1)", "Aluminum ethoxide", "Ethyl alcohol, aluminum salt", "Ethanol, aluminum salt", "Aluminum ethylate", "Triethoxyaluminum", "Aluminum triethoxide", "Aluminum triethylate", "Tris(ethanolato)aluminum", "Aluminum ethanolate", "Aluminum, triethoxy-"], "SMILES": "C(C)O.[Al]", "physical_data": {"Molecular Weight": "", "Molecular Formula": "C2H6O.<sup>1</sup>/3Al", "Boiling Point": "175-180 \u00b0C @ Press: 3 Torr", "Melting Point": "157-159 \u00b0C", "Density": "1.142 g/cm\u00b3 @ Temp: 20 \u00b0C"}}