{"cas_no": "555-30-6", "cn_name": "\u7532\u57fa\u591a\u5df4", "en_name": ["Methyldopa", "L-Tyrosine, 3-hydroxy-\u03b1-methyl-", "Alanine, 3-(3,4-dihydroxyphenyl)-2-methyl-, L-", "3-Hydroxy-\u03b1-methyl-L-tyrosine", "MK 351", "Nr.C 2294", "Aldomet", "Levo-3-(3,4-Dihydroxyphenyl)-2-methylalanine", "L-(-)-\u03b2-(3,4-Dihydroxyphenyl)-\u03b1-methylalanine", "L-\u03b1-Methyl-3,4-dihydroxyphenylalanine", "L-(-)-\u03b1-Methyl-\u03b2-(3,4-dihydroxyphenyl)alanine", "Methyldopa", "\u03b1-Methyl-L-3,4-dihydroxyphenylalanine", "Presinol", "(-)-\u03b1-Methyl-3,4-dihydroxyphenylalanine", "l-3-(3,4-Dihydroxyphenyl)-2-methylalanine", "Dopegyt", "\u03b1-Methyldopa", "(-)-Methyldopa", "l-\u03b1-Methyldopa", "\u03b1-Methyl-L-dopa", "(S)-(-)-\u03b1-Methyldopa", "L-2-Amino-2-methyl-3-(3,4-dihydroxyphenyl)propionic acid", "AMD", "Aldometil", "Aldomin", "Dopamet", "Sembrina", "Dopatec", "Medomet", "Medopren", "Methoplain", "Alpha medopa", "Bayer 1440L", "Baypresol", "Presolisin", "Alphamethyldopa", "2-Methyl-3-(3,4-dihydroxyphenyl)alanine", "(-)-\u03b1-Methyldopa", "L-3,4-Dihydroxyphenyl-2-methylalanine", "(S)-\u03b1-Methyldopa", "Methyl-L-dopa", "L-\u03b1-Methyldopa", "L-3,4-Dihydroxy-\u03b1-methylphenylalanine", "L-Methyldopa", "L-\u03b1-Methyl-3-(3,4)-dihydroxyphenylalanine", "Equibar", "Aldomine", "Medopa", "Lederdopa", "Elanpres", "NSC 169916", "Aldochlor", "(2S)-2-Amino-3-(3,4-dihydroxyphenyl)-2-methylpropanoic acid", "MeSH ID: D008750"], "SMILES": "C(C(C(O)=O)(C)N)C1=CC(O)=C(O)C=C1", "physical_data": {"Molecular Weight": "211.21", "Molecular Formula": "C10H13NO4", "Melting Point": "300 \u00b0C (decomp)"}}