{"cas_no": "555-89-5", "cn_name": "\u6740\u87a8\u919a", "en_name": ["Bis(p-chlorophenoxy)methane", "Benzene, 1,1\u2032-[methylenebis(oxy)]bis[4-chloro-", "Methane, bis(p-chlorophenoxy)-", "1,1\u2032-[Methylenebis(oxy)]bis[4-chlorobenzene]", "K 1875", "Bis(p-chlorophenoxy)methane", "DCPM", "Oxythane", "Neotran", "Bis(4-chlorophenoxy)methane", "NSC 6172", "Mikazine"], "SMILES": "O(COC1=CC=C(Cl)C=C1)C2=CC=C(Cl)C=C2", "physical_data": {"Molecular Weight": "269.12", "Molecular Formula": "C13H10Cl2O2", "Boiling Point": "189-194 \u00b0C", "Melting Point": "70.5 \u00b0C"}}