{"cas_no": "555-55-5", "cn_name": "6-[(1E)-2-(3,4-\u4e8c\u7f9f\u57fa\u82ef\u57fa)\u4e59\u70ef\u57fa]-4-\u7f9f\u57fa-2H-\u5421\u5583-2-\u916e", "en_name": ["Hispidin", "2H-Pyran-2-one, 6-[(1E)-2-(3,4-dihydroxyphenyl)ethenyl]-4-hydroxy-", "2H-Pyran-2-one, 6-(3,4-dihydroxystyryl)-4-hydroxy-", "2H-Pyran-2-one, 6-[2-(3,4-dihydroxyphenyl)ethenyl]-4-hydroxy-, (E)-", "Hispidin", "6-[(1E)-2-(3,4-Dihydroxyphenyl)ethenyl]-4-hydroxy-2H-pyran-2-one", "6-(3,4-Dihydroxystyryl)-4-hydroxy-2-pyrone", "Hispidine"], "SMILES": "C(=CC1=CC(O)=CC(=O)O1)C2=CC(O)=C(O)C=C2", "physical_data": {"Molecular Weight": "246.22", "Molecular Formula": "C13H10O5", "Melting Point": "259 \u00b0C (decomp)"}}