{"cas_no": "555-37-3", "cn_name": "\u8349\u4e0d\u9686", "en_name": ["Neburon", "Urea, N-butyl-N\u2032-(3,4-dichlorophenyl)-N-methyl-", "Urea, 1-butyl-3-(3,4-dichlorophenyl)-1-methyl-", "N-Butyl-N\u2032-(3,4-dichlorophenyl)-N-methylurea", "1-n-Butyl-3-(3,4-dichlorophenyl)-1-methylurea", "1-Butyl-3-(3,4-dichlorophenyl)-1-methylurea", "3-(3,4-Dichlorophenyl)-1-n-butyl-1-methylurea", "3-(3,4-Dichlorophenyl)-1-methyl-1-n-butylurea", "Kloben", "Kloben neburon", "Neburon", "N-(3,4-Dichlorophenyl)-N\u2032-methyl-N\u2032-butylurea", "3-(3,4-Dichlorophenyl)-1-methyl-1-butylurea", "Neburea"], "SMILES": "N(C(N(CCCC)C)=O)C1=CC(Cl)=C(Cl)C=C1", "physical_data": {"Molecular Weight": "275.17", "Molecular Formula": "C12H16Cl2N2O", "Melting Point": "102 \u00b0C"}}