{"cas_no": "555-59-9", "cn_name": "4-\u6c27\u57fa-\u82ef\u6c28\u57fa-2-\u5df4\u8c46\u9178", "en_name": ["N-Phenylmaleamic acid", "2-Butenoic acid, 4-oxo-4-(phenylamino)-, (2Z)-", "Maleanilic acid", "2-Butenoic acid, 4-oxo-4-(phenylamino)-, (Z)-", "(2Z)-4-Oxo-4-(phenylamino)-2-butenoic acid", "N-Phenylmaleamic acid", "Maleic acid monoanilide", "Maleanilinic acid", "N-Phenylmaleinamic acid", "Maleic acid monophenyl amide", "(Z)-4-Oxo-4-(phenylamino)-2-butenoic acid"], "SMILES": "N(C(C=CC(O)=O)=O)C1=CC=CC=C1", "physical_data": {"Molecular Weight": "191.18", "Molecular Formula": "C10H9NO3", "Melting Point": "192 \u00b0C (decomp)"}}