{"cas_no": "555-96-4", "cn_name": "\u82c4\u57fa\u80bc", "en_name": ["(Phenylmethyl)hydrazine", "Hydrazine, (phenylmethyl)-", "Hydrazine, benzyl-", "(Phenylmethyl)hydrazine", "Benzylhydrazine", "Benzyl hydrazide", "N-Benzylhydrazine", "1-Benzylhydrazine"], "SMILES": "C(NN)C1=CC=CC=C1", "physical_data": {"Molecular Weight": "122.17", "Molecular Formula": "C7H10N2", "Boiling Point": "110-115 \u00b0C @ Press: 0.3 Torr", "Melting Point": "112 \u00b0C"}}