{"cas_no": "555-21-5", "cn_name": "\u5bf9\u785d\u57fa\u82ef\u4e59\u8148", "en_name": ["4-Nitrophenylacetonitrile", "Benzeneacetonitrile, 4-nitro-", "Acetonitrile, (p-nitrophenyl)-", "4-Nitrobenzeneacetonitrile", "p-Nitrobenzyl cyanide", "p-Nitro-\u03b1-tolunitrile", "(p-Nitrophenyl)acetonitrile", "p-Nitrobenzeneacetonitrile", "4-Nitrobenzyl cyanide", "4-Nitrophenylacetonitrile", "NSC 5396", "4-Nitrobenzyl nitrile", "1-(4-Nitrophenyl)acetonitrile", "2-(4-Nitrophenyl)acetonitrile"], "SMILES": "N(=O)(=O)C1=CC=C(CC#N)C=C1", "physical_data": {"Molecular Weight": "162.15", "Molecular Formula": "C8H6N2O2", "Melting Point": "117 \u00b0C"}}