{"cas_no": "555-43-1", "cn_name": "\u4e09\u786c\u8102\u9178\u7518\u6cb9\u916f", "en_name": ["Tristearin", "Octadecanoic acid, 1,1\u2032,1\u2032\u2032-(1,2,3-propanetriyl) ester", "Stearin, tri-", "Octadecanoic acid, 1,2,3-propanetriyl ester", "Glyceryl tristearate", "Tristearin", "Glycerol tristearate", "Stearic acid triglyceride", "Stearic acid triglycerin ester", "Trioctadecanoin", "Stearic triglyceride", "Glycerol trioctadecanoate", "Stearoyl triglyceride", "Spezialfett 118", "Dynasan 118", "Glycowax S 932", "Hardened Oil", "Tristearoylglycerol", "Edenor NHTl", "Glycerine tristearate", "Rikemal VT", "Glycerin tristearate", "SSS", "Triglyceride StStSt", "Prisorine 2041", "Loxiol EP 218", "Edenor NHTi", "Glyceryl trioctadecanoate", "Daiwax STG", "Glycolube TS", "Coatex 21", "Rikemal VT 50", "Triglyceride SSS", "Tegin BL 150V", "Pationic 919", "Ligalub GT", "Radia 7512", "A 3D", "Esteride G-S", "PPM 17000", "Dynasan D118", "1,2,3-Propanetriyltris(octadecanoate)", "2,3-Di(octadecanoyloxy)propyl octadecanoate", "Softenol 3168"], "SMILES": "C(OC(CCCCCCCCCCCCCCCCC)=O)(COC(CCCCCCCCCCCCCCCCC)=O)COC(CCCCCCCCCCCCCCCCC)=O", "physical_data": {"Molecular Weight": "891.48", "Molecular Formula": "C57H110O6", "Melting Point": "55 \u00b0C", "Density": "0.8559 g/cm\u00b3 @ Temp: 90 \u00b0C"}}