{"cas_no": "555-68-0", "cn_name": "\u95f4\u785d\u57fa\u8089\u6842\u9178", "en_name": ["3-(3-Nitrophenyl)-2-propenoic acid", "2-Propenoic acid, 3-(3-nitrophenyl)-", "Cinnamic acid, m-nitro-", "3-(3-Nitrophenyl)-2-propenoic acid", "m-Nitrocinnamic acid", "3-Nitrocinnamic acid", "3-Nitrobenzenepropenoic acid", "3-(3-Nitrophenyl)acrylic acid", "3\u2032-Nitrocinnamic acid", "Ethyl 3-(3-nitrophenyl)-2-propenoate", "NSC 5408"], "SMILES": "C(=CC(O)=O)C1=CC(N(=O)=O)=CC=C1", "physical_data": {"Molecular Weight": "193.16", "Molecular Formula": "C9H7NO4", "Melting Point": "179 \u00b0C"}}