{"cas_no": "555-45-3", "cn_name": "\u7518\u6cb9\u4e09\u8089\u8c46\u853b\u9178\u916f", "en_name": ["Trimyristin", "Tetradecanoic acid, 1,1\u2032,1\u2032\u2032-(1,2,3-propanetriyl) ester", "Myristin, tri-", "Tetradecanoic acid, 1,2,3-propanetriyl ester", "Glycerol trimyristate", "Glyceryl trimyristate", "Trimyristin", "VP 114", "Myristic acid triglyceride", "Dynasan 114", "Myristic triglyceride", "Trimyristoylglycerol", "Glycerin trimyristate", "Triglyceride MMM", "Glyceryl tritetradecanoate", "Tritetradecanoin", "NSC 4062", "Esteride G-M", "2,3-Di(tetradecanoyloxy)propyl tetradecanoate"], "SMILES": "C(OC(CCCCCCCCCCCCC)=O)(COC(CCCCCCCCCCCCC)=O)COC(CCCCCCCCCCCCC)=O", "physical_data": {"Molecular Weight": "723.16", "Molecular Formula": "C45H86O6", "Boiling Point": "311 \u00b0C", "Melting Point": "56.5 \u00b0C"}}