{"cas_no": "555-10-2", "cn_name": "3-\u5f02\u4e19\u57fa-6-\u4e9a\u7532\u57fa-1-\u73af\u5df1\u70ef", "en_name": ["\u03b2-Phellandrene", "Cyclohexene, 3-methylene-6-(1-methylethyl)-", "p-Mentha-1(7),2-diene", "3-Methylene-6-(1-methylethyl)cyclohexene", "3-Isopropyl-6-methylene-1-cyclohexene", "4-Isopropyl-1-methylene-2-cyclohexene", "\u03b2-Phellandrene", "(\u00b1)-\u03b2-Phellandrene", "NSC 53044", "beta-Phellandrene"], "SMILES": "C(C)(C)C1CCC(=C)C=C1", "physical_data": {"Molecular Weight": "136.23", "Molecular Formula": "C10H16", "Boiling Point": "171.5 \u00b0C", "Density": "0.8517 g/cm\u00b3"}}