{"cas_no": "555-03-3", "cn_name": "3-\u785d\u57fa\u82ef\u7532\u919a", "en_name": ["3-Nitroanisole", "Benzene, 1-methoxy-3-nitro-", "Anisole, m-nitro-", "1-Methoxy-3-nitrobenzene", "m-Methoxynitrobenzene", "m-Nitroanisole", "3-Nitroanisole", "3-Methoxynitrobenzene", "Methyl m-nitrophenyl ether", "3-Methoxy-1-nitrobenzene", "3-Nitromethoxybenzene", "m-Nitroanisole", "NSC 4956", "1-Nitro-3-methoxybenzene"], "SMILES": "N(=O)(=O)C1=CC(OC)=CC=C1", "physical_data": {"Molecular Weight": "153.14", "Molecular Formula": "C7H7NO3", "Boiling Point": "258 \u00b0C", "Melting Point": "38.5 \u00b0C"}}