{"cas_no": "555-16-8", "cn_name": "\u5bf9\u785d\u57fa\u82ef\u7532\u919b", "en_name": ["4-Nitrobenzaldehyde", "Benzaldehyde, 4-nitro-", "Benzaldehyde, p-nitro-", "4-Nitrobenzaldehyde", "p-Nitrobenzaldehyde", "p-Formylnitrobenzene", "4-Formylnitrobenzene", "NSC 6103", "4-Nitrobenzenecarboxaldehyde"], "SMILES": "N(=O)(=O)C1=CC=C(C=O)C=C1", "physical_data": {"Molecular Weight": "151.12", "Molecular Formula": "C7H5NO3", "Boiling Point": "50 \u00b0C @ Press: 0.2 Torr", "Melting Point": "107 \u00b0C"}}