{"cas_no": "555-57-7", "cn_name": "\u4f18\u964d\u5b81", "en_name": ["Pargyline", "Benzenemethanamine, N-methyl-N-2-propyn-1-yl-", "Benzylamine, N-methyl-N-2-propynyl-", "Benzenemethanamine, N-methyl-N-2-propynyl-", "N-Methyl-N-2-propyn-1-ylbenzenemethanamine", "N-Benzyl-N-methyl-2-propynylamine", "N-Methyl-N-benzylpropynylamine", "N-Methyl-N-2-propynylbenzylamine", "Pargylamine", "Pargylin", "Pargyline", "N-Methyl-N-propargylbenzylamine", "Supirdyl", "Eudatin", "Benzylmethylpropargylamine", "N-Benzyl-N-methylpropargylamine", "N-Methyl-N-2-propynylbenzenemethanamine", "MeSH ID: D010293"], "SMILES": "C(N(CC#C)C)C1=CC=CC=C1", "physical_data": {"Molecular Weight": "159.23", "Molecular Formula": "C11H13N", "Boiling Point": "96.5 \u00b0C", "Melting Point": "15-20 \u00b0C", "Density": "1.0291 g/cm\u00b3 @ Temp: 20 \u00b0C"}}