{"cas_no": "55505-28-7", "cn_name": "9-\u7532\u57fa\u6b63\u7678\u9187", "en_name": ["9-Methyl-1-decanol", "1-Decanol, 9-methyl-", "9-Methyl-1-decanol"], "SMILES": "C(CCCCCO)CCC(C)C", "physical_data": {"Molecular Weight": "172.31", "Molecular Formula": "C11H24O", "Boiling Point": "119-120 \u00b0C @ Press: 10 Torr"}}