{"cas_no": "55512-33-9", "cn_name": "\u54d2\u8349\u7279", "en_name": ["Pyridate", "Carbonothioic acid, O-(6-chloro-3-phenyl-4-pyridazinyl) S-octyl ester", "CL 11344", "Fenpyrate", "Lentagran", "Pyridate", "Pl 3419", "O-(3-Phenyl-6-chloropyridazin-4-yl) octylthiocarbonate", "Tough", "Lentagran WP", "Pyridate 600EC", "Dacaote"], "SMILES": "O(C(SCCCCCCCC)=O)C1=C(N=NC(Cl)=C1)C2=CC=CC=C2", "physical_data": {"Molecular Weight": "378.92", "Molecular Formula": "C19H23ClN2O2S", "Boiling Point": "220 \u00b0C", "Melting Point": "27 \u00b0C"}}