{"cas_no": "5551-11-1", "cn_name": "4-\u6c2f-2-\u785d\u57fa\u82ef\u7532\u919b", "en_name": ["4-Chloro-2-nitrobenzaldehyde", "Benzaldehyde, 4-chloro-2-nitro-", "4-Chloro-2-nitrobenzaldehyde", "2-Nitro-4-chlorobenzaldehyde"], "SMILES": "N(=O)(=O)C1=C(C=O)C=CC(Cl)=C1", "physical_data": {"Molecular Weight": "185.56", "Molecular Formula": "C7H4ClNO3", "Melting Point": "67-68 \u00b0C"}}