{"cas_no": "5552-83-0", "cn_name": "6-\u7532\u57fa\u5421\u5576-2-\u4e59\u9178\u4e59\u916f", "en_name": ["2-Pyridineacetic acid, 6-methyl-, ethyl ester", "2-Pyridineacetic acid, 6-methyl-, ethyl ester", "Ethyl 6-methyl-2-pyridineacetate", "Ethyl 6-methyl-2-pyridylacetate", "NSC 149621", "(6-Methylpyridin-2-yl)acetic acid ethyl ester"], "SMILES": "C(C(OCC)=O)C=1N=C(C)C=CC1", "physical_data": {"Molecular Weight": "179.22", "Molecular Formula": "C10H13NO2", "Boiling Point": "87-89 \u00b0C @ Press: 0.2 Torr", "Melting Point": "105-107 \u00b0C"}}