{"cas_no": "55533-25-0", "cn_name": "BOC-L-\u82ef\u4e19\u6c28\u9178(4-NHZ)-OH", "en_name": ["N-[(1,1-Dimethylethoxy)carbonyl]-4-[[(phenylmethoxy)carbonyl]amino]-L-phenylalanine", "L-Phenylalanine, N-[(1,1-dimethylethoxy)carbonyl]-4-[[(phenylmethoxy)carbonyl]amino]-", "N-[(1,1-Dimethylethoxy)carbonyl]-4-[[(phenylmethoxy)carbonyl]amino]-L-phenylalanine", "(2S)-2-[(2-Methylpropan-2-yl)oxycarbonylamino]-3-[4-(phenylmethoxycarbonylamino)phenyl]propanoic acid"], "SMILES": "C(C(NC(OC(C)(C)C)=O)C(O)=O)C1=CC=C(NC(OCC2=CC=CC=C2)=O)C=C1", "physical_data": {"Molecular Weight": "414.45", "Molecular Formula": "C22H26N2O6", "Melting Point": "165-167 \u00b0C"}}