{"cas_no": "55561-02-9", "cn_name": "\u786b\u4ee3\u7279\u620a\u9178", "en_name": ["2,2-Dimethylpropanethioic acid", "Propanethioic acid, 2,2-dimethyl-", "2,2-Dimethylpropanethioic acid", "Thiopivalic acid", "2,2-Dimethylpropanethioic S-acid"], "SMILES": "C(C(=O)S)(C)(C)C", "physical_data": {"Molecular Weight": "118.20", "Molecular Formula": "C5H10OS", "Boiling Point": "125-127 \u00b0C"}}