{"cas_no": "5557-83-5", "cn_name": "L-\u4e19\u6c28\u9178\u82c4\u916f\u76d0\u9178\u76d0", "en_name": ["L-Alanine, phenylmethyl ester, hydrochloride (1:1)", "L-Alanine, phenylmethyl ester, hydrochloride (1:1)", "Alanine, benzyl ester, hydrochloride, L-", "L-Alanine, phenylmethyl ester, hydrochloride", "Alanine benzyl ester hydrochloride", "L-Alanine benzyl ester hydrochloride", "Benzyl L-alaninate hydrochloride", "NSC 523831", "(S)-Alanine hydrochloride benzyl ester", "(S)-Benzyl 2-aminopropanoate hydrochloride", "Benzyl alaninate hydrochloride", "L-Alanine benzyl ester hydrogen chloride"], "SMILES": "C(OC(C(C)N)=O)C1=CC=CC=C1.Cl", "physical_data": {"Molecular Weight": "", "Molecular Formula": "C10H13NO2.ClH", "Melting Point": "140 \u00b0C"}}