{"cas_no": "5557-88-0", "cn_name": "2-\u70ef-4-\u7094-\u620a\u9187-1", "en_name": ["2-Penten-4-yn-1-ol", "2-Penten-4-yn-1-ol", "NSC 35152"], "SMILES": "C(=CCO)C#C", "physical_data": {"Molecular Weight": "82.10", "Molecular Formula": "C5H6O", "Boiling Point": "71-73 \u00b0C @ Press: 19 Torr"}}