{"cas_no": "5558-04-3", "cn_name": "1-\u73af\u4e19\u57fa-1-\u82ef\u57fa\u4e59\u9187", "en_name": ["\u03b1-Cyclopropyl-\u03b1-methylbenzenemethanol", "Benzenemethanol, \u03b1-cyclopropyl-\u03b1-methyl-", "Benzyl alcohol, \u03b1-cyclopropyl-\u03b1-methyl-", "\u03b1-Cyclopropyl-\u03b1-methylbenzenemethanol", "1-Phenyl-1-cyclopropylethanol", "1-Cyclopropyl-1-phenylethanol", "NSC 77105", "1-Cyclopropyl-1-phenylethan-1-ol"], "SMILES": "C(C)(O)(C1CC1)C2=CC=CC=C2", "physical_data": {"Molecular Weight": "162.23", "Molecular Formula": "C11H14O", "Boiling Point": "241-242 \u00b0C @ Press: 38 Torr", "Density": "1.0316 g/cm\u00b3 @ Temp: 20 \u00b0C"}}