{"cas_no": "55580-08-0", "cn_name": "7-\u6eb4-3,4-\u4e8c\u6c22-2H-\u82ef\u5e76[B]\u6c27\u6742\u73af\u5e9a\u70f7-5-\u916e", "en_name": ["7-Bromo-3,4-dihydro-1-benzoxepin-5(2H)-one", "1-Benzoxepin-5(2H)-one, 7-bromo-3,4-dihydro-", "7-Bromo-3,4-dihydro-1-benzoxepin-5(2H)-one", "7-Bromo-3,4-dihydro-2H-benzo[b]oxepin-5-one", "7-Bromo-3,4-dihydrobenzo[b]oxepin-5(2H)-one"], "SMILES": "O=C1C=2C(=CC=C(Br)C2)OCCC1", "physical_data": {"Molecular Weight": "241.08", "Molecular Formula": "C10H9BrO2", "Boiling Point": "104-109 \u00b0C @ Press: 0.3 Torr"}}