{"cas_no": "55589-62-3", "cn_name": "\u5b89\u585e\u871c", "en_name": ["Acesulfame potassium", "1,2,3-Oxathiazin-4(3H)-one, 6-methyl-, 2,2-dioxide, potassium salt (1:1)", "1,2,3-Oxathiazin-4(3H)-one, 6-methyl-, 2,2-dioxide, potassium salt", "Acesulfame K", "Sunett", "Acesulfame potassium", "6-Methyl-3,4-dihydro-1,2,3-oxathiazin-4-one 2,2-dioxide potassium salt", "Potassium acesulfame", "Sunnett", "Otizon", "E 950", "Sweet One", "Potassium acesulfamate", "Sunett D", "Sunnet Pharma Grade D", "Ace-K", "Potassium acetosulfame"], "SMILES": "O=S1(=O)NC(=O)C=C(C)O1.[K]", "physical_data": {"Molecular Weight": "", "Molecular Formula": "C4H5NO4S.K", "Melting Point": "68 \u00b0C"}}