{"cas_no": "5558-67-8", "cn_name": "2,2-\u4e8c\u82ef\u57fa\u4e19\u8148", "en_name": ["\u03b1-Methyl-\u03b1-phenylbenzeneacetonitrile", "Benzeneacetonitrile, \u03b1-methyl-\u03b1-phenyl-", "Propionitrile, 2,2-diphenyl-", "\u03b1-Methyl-\u03b1-phenylbenzeneacetonitrile", "2,2-Diphenylpropionitrile", "1,1-Diphenylethyl cyanide", "NSC 62703", "2,2-Diphenylpropanenitrile"], "SMILES": "C(C#N)(C)(C1=CC=CC=C1)C2=CC=CC=C2", "physical_data": {"Molecular Weight": "207.27", "Molecular Formula": "C15H13N", "Boiling Point": "310-313 \u00b0C", "Density": "1.0671 g/cm\u00b3 @ Temp: 20 \u00b0C"}}