{"cas_no": "5558-66-7", "cn_name": "2,2-\u4e8c\u82ef\u57fa\u4e19\u9178", "en_name": ["2,2-Diphenylpropionic acid", "Benzeneacetic acid, \u03b1-methyl-\u03b1-phenyl-", "Propionic acid, 2,2-diphenyl-", "\u03b1-Methyl-\u03b1-phenylbenzeneacetic acid", "\u03b1,\u03b1-Diphenylpropionic acid", "2,2-Diphenylpropanoic acid", "2,2-Diphenylpropionic acid", "NSC 82164"], "SMILES": "C(C(O)=O)(C)(C1=CC=CC=C1)C2=CC=CC=C2", "physical_data": {"Molecular Weight": "226.27", "Molecular Formula": "C15H14O2", "Melting Point": "176 \u00b0C"}}