{"cas_no": "55583-59-0", "cn_name": "2,5-\u4e8c\u6c28\u57fa-4,6-\u4e8c\u6c2f\u5627\u5576", "en_name": ["4,6-Dichloro-2,5-pyrimidinediamine", "2,5-Pyrimidinediamine, 4,6-dichloro-", "4,6-Dichloro-2,5-pyrimidinediamine", "2,5-Diamino-4,6-dichloropyrimidine", "NSC 176971", "4,6-Dichloropyrimidine-2,5-diamine"], "SMILES": "NC=1C(Cl)=NC(N)=NC1Cl", "physical_data": {"Molecular Weight": "179.01", "Molecular Formula": "C4H4Cl2N4", "Melting Point": "188-191 \u00b0C (decomp)"}}