{"cas_no": "55592-85-3", "cn_name": "Z-DL-LYS(Z)-OH", "en_name": ["N2,N6-Bis[(phenylmethoxy)carbonyl]lysine", "Lysine, N2,N6-bis[(phenylmethoxy)carbonyl]-", "DL-Lysine, N2,N6-bis[(phenylmethoxy)carbonyl]-", "N2,N6-Bis[(phenylmethoxy)carbonyl]lysine"], "SMILES": "C(OC(NC(CCCCNC(OCC1=CC=CC=C1)=O)C(O)=O)=O)C2=CC=CC=C2", "physical_data": {"Molecular Weight": "414.45", "Molecular Formula": "C22H26N2O6", "Melting Point": "105 \u00b0C"}}