{"cas_no": "556-97-8", "cn_name": "3,5-\u4e8c\u7532\u57fa\u6c2f\u82ef", "en_name": ["1-Chloro-3,5-dimethylbenzene", "Benzene, 1-chloro-3,5-dimethyl-", "m-Xylene, 5-chloro-", "1-Chloro-3,5-dimethylbenzene", "5-Chloro-m-xylene", "5-Chloro-1,3-dimethylbenzene", "3-Methyl-5-chlorotoluene", "3,5-Dimethylchlorobenzene", "5-Chloro-m-xylene", "3,5-Dimethylphenyl chloride"], "SMILES": "CC1=CC(C)=CC(Cl)=C1", "physical_data": {"Molecular Weight": "140.61", "Molecular Formula": "C8H9Cl", "Boiling Point": "90 \u00b0C @ Press: 3.5 Torr"}}