{"cas_no": "556-67-2", "cn_name": "\u516b\u7532\u57fa\u73af\u56db\u7845\u6c27\u70f7", "en_name": ["Octamethylcyclotetrasiloxane", "Cyclotetrasiloxane, 2,2,4,4,6,6,8,8-octamethyl-", "Cyclotetrasiloxane, octamethyl-", "2,2,4,4,6,6,8,8-Octamethylcyclotetrasiloxane", "Octamethylcyclotetrasiloxane", "NUC Silicone VS 7207", "Union Carbide 7207", "SF 1173", "UC 7207", "VS 7207", "Cyclic dimethylsiloxane tetramer", "KF 994", "SH 344", "Abil K 4", "Octamethylcyclotetrasiloxanes", "Silbione V 2", "Dow Corning 244", "Dow Corning 344", "Volasil 244", "DC 344", "Mirasil CM 4", "TSF 404", "LS 8620", "D 4", "Dabco DC 5258", "DC 5258", "Tetracyclomethicone", "Y 7175", "NSC 345674", "SH 244", "Silbione 70045V2", "DC 244", "Dow Corning 244 Fluid", "DWQ 110", "DWQ 120", "PMX 0110", "XF 3803", "YF 393", "ZBH 270", "SH 244 Fluid", "SH 30", "Additive 8030", "2,2,4,4,6,6,8,8-Octamethyl-1,3,5,7,2,4,6,8-tetraoxatetrasilocane", "L 6907", "Xiameter PMX 0244", "PMX 0244", "TSF 451-100MA", "Octamethyltetracyclosiloxane", "Dow Corning 344 Fluid"], "SMILES": "C[Si]1(C)O[Si](C)(C)O[Si](C)(C)O[Si](C)(C)O1", "physical_data": {"Molecular Weight": "296.62", "Molecular Formula": "C8H24O4Si4", "Boiling Point": "175 \u00b0C", "Melting Point": "17.5 \u00b0C", "Density": "0.9558 g/cm\u00b3"}}