{"cas_no": "556-61-6", "cn_name": "\u5f02\u786b\u6c30\u9178\u7532\u916f", "en_name": ["Methyl isothiocyanate", "Methane, isothiocyanato-", "Isothiocyanic acid, methyl ester", "Isothiocyanatomethane", "WN 12", "Methyl isothiocyanate", "Methyl mustard oil", "Morton EP-161E", "Trapex", "Trapexide", "Tropex", "Methyl thioisocyanate", "Methyl mustard", "MIT", "Methyl isothiocyanide", "MIT (pesticide)", "Trapex (soil fumigant)", "Capparin", "Isothocyanatomethane"], "SMILES": "C(=NC)=S", "physical_data": {"Molecular Weight": "73.12", "Molecular Formula": "C2H3NS", "Boiling Point": "119 \u00b0C", "Melting Point": "36 \u00b0C", "Density": "1.0691 g/cm\u00b3 @ Temp: 37 \u00b0C"}}