{"cas_no": "556-02-5", "cn_name": "D-\u916a\u6c28\u9178", "en_name": ["D-Tyrosine", "D-Tyrosine", "Tyrosine, D-", "D-p-Tyrosine", "(R)-Tyrosine", "(2R)-2-Amino-3-(4-hydroxyphenyl)propanoic acid", "H-D-Tyr-OH", "D-Tyr-OH", "3-(4-Hydroxyphenyl)-D-alanine", "D-4-Hydroxyphenylalanine", "(2R)-2-Azaniumyl-3-(4-hydroxyphenyl)propanoate", "(R)-2-Amino-3-(4-hydroxyphenyl)propanoic acid"], "SMILES": "C(C(C(O)=O)N)C1=CC=C(O)C=C1", "physical_data": {"Molecular Weight": "181.19", "Molecular Formula": "C9H11NO3", "Melting Point": "294-300 \u00b0C (decomp)"}}