{"cas_no": "556-82-1", "cn_name": "\u5f02\u620a\u70ef\u9187", "en_name": ["3-Methyl-2-buten-1-ol", "2-Buten-1-ol, 3-methyl-", "3-Methyl-2-buten-1-ol", "Prenol", "\u03b3,\u03b3-Dimethylallyl alcohol", "3-Methyl-2-butene-1-ol", "3-Methyl-2-butenyl alcohol", "3,3-Dimethylallyl alcohol", "Prenyl alcohol", "3-Methyl-2-butenol", "Dimethylallyl alcohol", "3-Methylcrotyl alcohol", "2-Methyl-2-buten-4-ol", "NSC 158709", "Isopent-2-en-1-ol", "Isopentenol"], "SMILES": "C(=C(C)C)CO", "physical_data": {"Molecular Weight": "86.13", "Molecular Formula": "C5H10O", "Boiling Point": "140 \u00b0C", "Melting Point": "59-60 \u00b0C", "Density": "0.8689 g/cm\u00b3 @ Temp: 21 \u00b0C"}}