{"cas_no": "556-91-2", "cn_name": "\u53d4\u4e01\u9187\u94dd", "en_name": ["Aluminum tert-butoxide", "2-Propanol, 2-methyl-, aluminum salt (3:1)", "tert-Butyl alcohol, aluminum salt", "Aluminum tert-butoxide", "2-Propanol, 2-methyl-, aluminum salt", "Aluminum tert-butylate", "Tri-tert-butoxyaluminum", "Aluminum tert-butanolate", "Aluminum tri-tert-butoxide", "Aluminum tris(tert-butoxide)", "Tris(2-methyl-2-propanolato)aluminum", "Aluminum t-butoxide", "Aluminum tris(tert-butylate)", "Aluminum (III) tert-butoxide"], "SMILES": "C(C)(C)(C)O.[Al]", "physical_data": {"Molecular Weight": "", "Molecular Formula": "C4H10O.<sup>1</sup>/3Al", "Boiling Point": "160-170 \u00b0C @ Press: 1 Torr"}}