{"cas_no": "556-88-7", "cn_name": "\u785d\u57fa\u80cd", "en_name": ["Nitroguanidine", "Guanidine, N-nitro-", "Guanidine, nitro-", "N-Nitroguanidine", "Nitroguanidine", "\u03b1-Nitroguanidine", "\u03b2-Nitroguanidine", "Picrite (propellant)", "N\u2032\u2032-Nitroguanidine", "1-Nitroguanidine", "N1-Nitroguanidine", "Picrite", "NQ", "2-Nitroguanidine", "NSC 41036", "Lovex D 380"], "SMILES": "N(C(=N)N)N(=O)=O", "physical_data": {"Molecular Weight": "104.07", "Molecular Formula": "CH4N4O2", "Melting Point": "239 \u00b0C", "Density": "0.91 g/cm\u00b3"}}