{"cas_no": "556-56-9", "cn_name": "\u70ef\u4e19\u57fa\u7898", "en_name": ["3-Iodo-1-propene", "1-Propene, 3-iodo-", "Propene, 3-iodo-", "3-Iodo-1-propene", "Allyl iodide", "3-Iodopropylene", "3-Iodopropene", "2-Propenyl iodide", "NSC 18588", "1-Iodo-2-propene"], "SMILES": "C(CI)=C", "physical_data": {"Molecular Weight": "167.98", "Molecular Formula": "C3H5I", "Boiling Point": "103 \u00b0C", "Melting Point": "-99.3 \u00b0C"}}