{"cas_no": "556-53-6", "cn_name": "\u76d0\u9178\u4e19\u80fa", "en_name": ["Propylammonium chloride", "1-Propanamine, hydrochloride (1:1)", "Propylamine, hydrochloride", "1-Propanamine, hydrochloride", "1-Propylammonium chloride", "Propylammonium chloride", "n-Propylamine hydrochloride", "n-Propylammonium chloride", "1-Aminopropane hydrochloride"], "SMILES": "C(CN)C.Cl", "physical_data": {"Molecular Weight": "", "Molecular Formula": "C3H9N.ClH", "Melting Point": "161 \u00b0C"}}