{"cas_no": "556-03-6", "cn_name": "DL-\u916a\u6c28\u9178", "en_name": ["DL-Tyrosine", "Tyrosine", "Tyrosine, DL-", "DL-Tyrosine", "(\u00b1)-Tyrosine", "DL-p-Tyrosine", "NSC 205006", "2-Amino-3-(4-hydroxyphenyl)propanoic acid", "D,L-Tyrosine", "DL-4-Hydroxyphenylalanine", "\u03b1-Amino-4-hydroxybenzenepropanoic acid", "2-Azaniumyl-3-(4-hydroxyphenyl)propanoate"], "SMILES": "C(C(C(O)=O)N)C1=CC=C(O)C=C1", "physical_data": {"Molecular Weight": "181.19", "Molecular Formula": "C9H11NO3", "Melting Point": "325 \u00b0C (decomp)"}}