{"cas_no": "556-63-8", "cn_name": "\u7532\u9178\u9502\u76d0", "en_name": ["Lithium formate", "Formic acid, lithium salt (1:1)", "Formic acid, lithium salt", "Lithium formate"], "SMILES": "C(O)=O.[Li]", "physical_data": {"Molecular Weight": "", "Molecular Formula": "CH2O2.Li", "Melting Point": "273 \u00b0C"}}