{"cas_no": "556-52-5", "cn_name": "\u7f29\u6c34\u7518\u6cb9", "en_name": ["Glycidol", "2-Oxiranemethanol", "Glycidol", "1-Propanol, 2,3-epoxy-", "Oxiranemethanol", "Epihydrin alcohol", "Glycidyl alcohol", "3-Hydroxy-1,2-epoxypropane", "Glycide", "2,3-Epoxy-1-propanol", "Allyl alcohol oxide", "3-Hydroxypropylene oxide", "1,2-Epoxy-3-hydroxypropane", "1-Hydroxy-2,3-epoxypropane", "2-(Hydroxymethyl)oxirane", "Oxiranylmethanol", "Epiol OH", "(RS)-Glycidol", "dl-Glycidol", "(\u00b1)-Glycidol", "(\u00b1)-2,3-Epoxy-1-propanol", "Racemic glycidol", "NSC 46096", "Oxiran-2-ylmethanol"], "SMILES": "C(O)C1CO1", "physical_data": {"Molecular Weight": "74.08", "Molecular Formula": "C3H6O2", "Boiling Point": "160 \u00b0C @ Press: 760 Torr", "Melting Point": "-45 \u00b0C", "Density": "1.115 g/cm\u00b3 @ Temp: 20 \u00b0C"}}