{"cas_no": "556-64-9", "cn_name": "\u786b\u6c30\u9178\u7532\u916f", "en_name": ["Methyl thiocyanate", "Thiocyanic acid, methyl ester", "Methyl sulfocyanate", "Methyl thiocyanate", "NSC 9368"], "SMILES": "C(SC)#N", "physical_data": {"Molecular Weight": "73.12", "Molecular Formula": "C2H3NS", "Boiling Point": "130-133 \u00b0C", "Melting Point": "-51 \u00b0C", "Density": "1.068 g/cm\u00b3 @ Temp: 25 \u00b0C"}}