{"cas_no": "556-71-8", "cn_name": "\u5341\u516b\u7532\u57fa\u73af\u4e5d\u7845\u6c27\u70f7", "en_name": ["Octadecamethylcyclononasiloxane", "Cyclononasiloxane, 2,2,4,4,6,6,8,8,10,10,12,12,14,14,16,16,18,18-octadecamethyl-", "Cyclononasiloxane, octadecamethyl-", "2,2,4,4,6,6,8,8,10,10,12,12,14,14,16,16,18,18-Octadecamethylcyclononasiloxane", "Octadecamethylcyclononasiloxane", "Octamethylcyclononasiloxane"], "SMILES": "C[Si]1(C)O[Si](C)(C)O[Si](C)(C)O[Si](C)(C)O[Si](C)(C)O[Si](C)(C)O[Si](C)(C)O[Si](C)(C)O[Si](C)(C)O1", "physical_data": {"Molecular Weight": "667.39", "Molecular Formula": "C18H54O9Si9", "Boiling Point": "188 \u00b0C"}}