{"cas_no": "556-18-3", "cn_name": "4-\u6c28\u57fa\u82ef\u7532\u919b", "en_name": ["4-Aminobenzaldehyde", "Benzaldehyde, 4-amino-", "Benzaldehyde, p-amino-", "4-Aminobenzaldehyde", "p-Aminobenzaldehyde", "p-Formylaniline", "4-Formylaniline", "NSC 45163"], "SMILES": "C(=O)C1=CC=C(N)C=C1", "physical_data": {"Molecular Weight": "121.14", "Molecular Formula": "C7H7NO", "Melting Point": "71 \u00b0C"}}