{"cas_no": "556-68-3", "cn_name": "\u5341\u516d\u70f7\u57fa\u73af\u516b\u7845\u6c27\u70f7", "en_name": ["Hexadecamethylcyclooctasiloxane", "Cyclooctasiloxane, 2,2,4,4,6,6,8,8,10,10,12,12,14,14,16,16-hexadecamethyl-", "Cyclooctasiloxane, hexadecamethyl-", "2,2,4,4,6,6,8,8,10,10,12,12,14,14,16,16-Hexadecamethylcyclooctasiloxane", "Hexadecamethylcyclooctasiloxane"], "SMILES": "C[Si]1(C)O[Si](C)(C)O[Si](C)(C)O[Si](C)(C)O[Si](C)(C)O[Si](C)(C)O[Si](C)(C)O[Si](C)(C)O1", "physical_data": {"Molecular Weight": "593.23", "Molecular Formula": "C16H48O8Si8", "Boiling Point": "290 \u00b0C", "Melting Point": "31.5 \u00b0C", "Density": "1.177 g/cm\u00b3 @ Temp: 25 \u00b0C"}}