{"cas_no": "556-22-9", "cn_name": "\u679c\u7eff\u5b9a", "en_name": ["Glyodin", "1H-Imidazole, 2-heptadecyl-4,5-dihydro-, acetate (1:1)", "2-Imidazoline, 2-heptadecyl-, monoacetate", "1H-Imidazole, 2-heptadecyl-4,5-dihydro-, monoacetate", "Crag Fruit Fungicide 341", "Experimental Fungicide 341", "Glyodin", "Glyodin acetate", "Glyoxide Dry", "2-Heptadecyl-2-imidazoline acetate", "Crag 341", "NSC 48529"], "SMILES": "C(C)(O)=O.C(CCCCCCCCCCCCCCCC)C=1NCCN1", "physical_data": {"Molecular Weight": "", "Molecular Formula": "C20H40N2.C2H4O2", "Melting Point": "65 \u00b0C"}}