{"cas_no": "556-90-1", "cn_name": "\u567b\u5511", "en_name": ["Pseudothiohydantoin", "4(5H)-Thiazolone, 2-amino-", "4-Thiazolidinone, 2-imino-", "Pseudothiohydantoin", "2-Thiazolin-4-one, 2-amino-", "2-Amino-4(5H)-thiazolone", "2-Imino-4-thiazolidinone", "2-Imino-4-thiazolidone", "2-Amino-2-thiazolin-4-one", "2-Amino-4-oxothiazoline", "NSC 2858", "NSC 45956", "Pseudohydantoin", "2-Amino-4,5-dihydrothiazol-4-one", "2-Amino-thiazol-4-one", "2-Amino-4,5-dihydro-1,3-thiazol-4-one", "2-Amino-1,3-thiazol-4-one"], "SMILES": "O=C1N=C(N)SC1", "physical_data": {"Molecular Weight": "116.14", "Molecular Formula": "C3H4N2OS", "Melting Point": "&gt;200 \u00b0C", "Density": "1.637 g/cm\u00b3"}}