{"cas_no": "556-48-9", "cn_name": "1,4-\u73af\u5df1\u4e8c\u9187", "en_name": ["1,4-Cyclohexanediol", "1,4-Cyclohexanediol", "Quinitol", "1,4-Dihydroxycyclohexane", "NSC 5651"], "SMILES": "OC1CCC(O)CC1", "physical_data": {"Molecular Weight": "116.16", "Molecular Formula": "C6H12O2", "Boiling Point": "247-248 \u00b0C", "Melting Point": "95 \u00b0C"}}