{"cas_no": "556-99-0", "cn_name": "\u7f29\u4e09\u8132", "en_name": ["Triuret", "Diimidotricarbonic diamide", "Triuret", "Carbonyldiurea", "Dicarbamylurea", "Urea, N,N\u2032\u2032-carbonylbis-", "Urea, N,N\u2032-bis(aminocarbonyl)-", "NSC 29081", "[(Carbamoylamino)carbonyl]urea"], "SMILES": "N(C(NC(N)=O)=O)C(N)=O", "physical_data": {"Molecular Weight": "146.10", "Molecular Formula": "C3H6N4O3", "Melting Point": "227 \u00b0C (decomp)"}}