{"cas_no": "556-33-2", "cn_name": "\u7518\u6c28\u9170-\u7518\u6c28\u9170-\u7518\u6c28\u9178", "en_name": ["Glycylglycylglycine", "Glycine, glycylglycyl-", "Glycine, N-(N-glycylglycyl)-", "Glycylglycylglycine", "Triglycine", "Diglycylglycine", "N-(N\u2032-Glycylglycyl)glycine", "NSC 46707", "Glycine tripeptide", "Adenosine deaminase 2 (synthetic human derivative sequence variant)", "24: PN: WO2019213446 SEQID: 63 claimed protein", "58: PN: WO2019213442 SEQID: 63 claimed protein", "12: PN: WO2020022782 SEQID: 12 claimed protein", "2-[2-(2-Aminoacetamido)acetamido]acetic acid", "2-[[2-[(2-Azaniumylacetyl)amino]acetyl]amino]acetate", "8: PN: WO2020135804 PAGE: 42 claimed sequence", "3: PN: WO2020191289 PAGE: 118 claimed sequence", "2: PN: WO2021011474 SEQID: 15 claimed protein", "3: PN: KR20200139635 PAGE: 3 claimed sequence", "18: PN: WO2021026491 SEQID: 21 claimed protein", "23: PN: WO2021030484 SEQID: 23 claimed protein", "15: PN: WO2021041934 SEQID: 68 claimed protein", "21: PN: WO2021143858 SEQID: 47 claimed protein", "1: PN: WO2021158695 SEQID: 19 claimed sequence", "12: PN: WO2021178971 SEQID: 16 claimed protein", "21: PN: WO2021183819 SEQID: 31 claimed sequence", "1: PN: WO2021189019 PAGE: 135 claimed sequence", "9: PN: WO2021209775 SEQID: 71 claimed protein", "4: PN: WO2021222322 SEQID: 16 claimed protein", "5: PN: WO2021257655 PAGE: 399 claimed sequence", "4: PN: WO2022093718 PAGE: 105 claimed sequence", "4: PN: US20220144890 SEQID: 4 claimed sequence", "21: PN: WO2022109162 SEQID: 32 claimed protein", "4: PN: WO2022150661 PAGE: 183 claimed sequence", "1: PN: WO2022155532 PAGE: 78 claimed sequence", "156: PN: WO2022156739 SEQID: 156 claimed protein", "24: PN: WO2022164392 PAGE: 44 claimed sequence", "28: PN: WO2022192411 SEQID: 261 claimed protein", "97: PN: WO2022192404 SEQID: 261 claimed protein", "16: PN: WO2022192420 SEQID: 16 claimed protein", "7: PN: WO2022192664 PAGE: 110 claimed sequence", "5: PN: WO2022236009 SEQID: 95 claimed sequence", "16: PN: WO2022242682 SEQID: 20 claimed sequence", "80: PN: WO2022242679 SEQID: 243 claimed protein", "4: PN: WO2022261436 SEQID: 16 claimed protein", "5: PN: WO2022261437 SEQID: 16 claimed protein", "4: PN: WO2022271571 SEQID: 19 claimed protein", "1: PN: WO2023003815 SEQID: 16 claimed sequence", "13: PN: WO2023039407 SEQID: 4113 claimed sequence"], "SMILES": "C(CNC(CN)=O)(NCC(O)=O)=O", "physical_data": {"Molecular Weight": "189.17", "Molecular Formula": "C6H11N3O4", "Melting Point": "206 \u00b0C (decomp)"}}