{"cas_no": "556-08-1", "cn_name": "\u5bf9\u4e59\u9170\u6c28\u57fa\u82ef\u7532\u9178", "en_name": ["p-Acetamidobenzoic acid", "Benzoic acid, 4-(acetylamino)-", "Benzoic acid, p-acetamido-", "4-(Acetylamino)benzoic acid", "p-(Acetoamino)benzoic acid", "p-Acetamidobenzoic acid", "4-Acetamidobenzoic acid", "p-(Acetylamino)benzoic acid", "N-Acetyl-p-aminobenzoic acid", "4\u2032-Carboxyacetanilide", "p-Acetaminobenzoic acid", "Acedoben", "NSC 4002"], "SMILES": "N(C(C)=O)C1=CC=C(C(O)=O)C=C1", "physical_data": {"Molecular Weight": "179.17", "Molecular Formula": "C9H9NO3", "Melting Point": "260 \u00b0C (decomp)", "Density": "1.41 g/cm\u00b3"}}