{"cas_no": "556-24-1", "cn_name": "\u5f02\u620a\u9178\u7532\u916f", "en_name": ["Methyl isovalerate", "Butanoic acid, 3-methyl-, methyl ester", "Isovaleric acid, methyl ester", "Methyl isovalerate", "Methyl iso-valerate", "Methyl isopentanoate", "Methyl 3-methylbutanoate", "Methyl 3-methylbutyrate", "Isopentanoic acid methyl ester", "3-Methylbutanoic acid methyl ester", "3-Methyl-butyric acid methyl ester"], "SMILES": "C(CC(C)C)(OC)=O", "physical_data": {"Molecular Weight": "116.16", "Molecular Formula": "C6H12O2", "Boiling Point": "116.5 \u00b0C", "Density": "0.9436 g/cm\u00b3 @ Temp: 15 \u00b0C"}}