{"cas_no": "556-27-4", "cn_name": "\u849c\u6c28\u9178", "en_name": ["Alliin", "L-Cysteine, S-2-propen-1-yl-, S-oxide, [S(S)]-", "Alanine, 3-(allylsulfinyl)-, (S)-L-", "L-Alanine, 3-(2-propenylsulfinyl)-, (S)-", "Alanine, 3-(allylsulfinyl)-", "L-Alanine, 3-[(S)-2-propenylsulfinyl]-", "Alliin", "S-Allyl-L-cysteine-(+)-sulfoxide", "(+)-L-Alliin"], "SMILES": "S(CC(C(O)=O)N)(CC=C)=O", "physical_data": {"Molecular Weight": "177.22", "Molecular Formula": "C6H11NO3S", "Melting Point": "165 \u00b0C"}}