{"cas_no": "5561-99-9", "cn_name": "(E)-11-\u4e8c\u5341\u70ef\u9178", "en_name": ["cis-11-Eicosenoic acid", "11-Eicosenoic acid, (11Z)-", "11-Eicosenoic acid, (Z)-", "(11Z)-11-Eicosenoic acid", "cis-\u039411-Eicosenoic acid", "cis-11-Eicosenoic acid", "Gondoic acid", "(Z)-11-Eicosenoic acid", "11-cis-Eicosenoic acid", "11Z-Eicosenoic acid"], "SMILES": "C(CCC=CCCCCCCCC)CCCCCCC(O)=O", "physical_data": {"Molecular Weight": "310.51", "Molecular Formula": "C20H38O2", "Melting Point": "23.5-24 \u00b0C"}}