{"cas_no": "55610-01-0", "cn_name": "7-\u7532\u57fa-5H-\u82ef\u5e76[G]-1,3-\u4e8c\u8302\u82ef\u5e76[6,5,4-DE]\u55b9\u5549-5,6(7H)-\u4e8c\u916e", "en_name": ["Cepharadione A", "5H-Benzo[g]-1,3-benzodioxolo[6,5,4-de]quinoline-5,6(7H)-dione, 7-methyl-", "7-Methyl-5H-benzo[g]-1,3-benzodioxolo[6,5,4-de]quinoline-5,6(7H)-dione", "Cepharadione A", "NSC 650435"], "SMILES": "CN1C=2C3=C(C4=C(C=C3C(=O)C1=O)OCO4)C=5C(C2)=CC=CC5", "physical_data": {"Molecular Weight": "305.28", "Molecular Formula": "C18H11NO4", "Melting Point": "338-340 \u00b0C"}}