{"cas_no": "5561-87-5", "cn_name": "3-\u7f9f\u57fa\u7678\u9178", "en_name": ["(\u00b1)-3-Hydroxydecanoic acid", "Decanoic acid, 3-hydroxy-", "3-Hydroxydecanoic acid", "\u03b2-Hydroxycapric acid", "\u03b2-Hydroxydecanoic acid", "3-Hydroxycapric acid", "(\u00b1)-3-Hydroxydecanoic acid", "(RS)-3-Hydroxydecanoic acid", "3-Hydroxidecanoic acid"], "SMILES": "C(C(CC(O)=O)O)CCCCCC", "physical_data": {"Molecular Weight": "188.26", "Molecular Formula": "C10H20O3", "Melting Point": "47-48 \u00b0C"}}