{"cas_no": "55627-73-1", "cn_name": "8-\u6eb4\u808c\u82f7", "en_name": ["8-Bromoinosine", "Inosine, 8-bromo-", "8-Bromoinosine", "SQ 22056", "NSC 237840", "Chembridge 5482485", "8-Bromo-9-[3,4-dihydroxy-5-(hydroxymethyl)oxolan-2-yl]-1H-purin-6-one", "8-Bromo-9-[3,4-dihydroxy-5-(hydroxymethyl)oxolan-2-yl]-3H-purin-6-one", "8-Bromo-9-[3,4-dihydroxy-5-(hydroxymethyl)tetrahydro-2-furanyl]-1,9-dihydro-6H-purin-6-one"], "SMILES": "BrC=1N(C2=C(N1)C(=O)N=CN2)C3OC(CO)C(O)C3O", "physical_data": {"Molecular Weight": "347.12", "Molecular Formula": "C10H11BrN4O5", "Melting Point": "196-198 \u00b0C"}}