{"cas_no": "55620-18-3", "cn_name": "2-\u4e59\u9170\u6c27\u57fa\u8089\u6842\u9178", "en_name": ["3-[2-(Acetyloxy)phenyl]-2-propenoic acid", "2-Propenoic acid, 3-[2-(acetyloxy)phenyl]-", "Cinnamic acid, o-hydroxy-, acetate", "3-[2-(Acetyloxy)phenyl]-2-propenoic acid", "O-Acetyl-o-coumaric acid", "Tylmarin", "NSC 98725", "2\u2032-Acetoxycinnamic acid", "2-Acetoxycinnamic acid"], "SMILES": "O(C(C)=O)C1=C(C=CC(O)=O)C=CC=C1", "physical_data": {"Molecular Weight": "206.19", "Molecular Formula": "C11H10O4", "Melting Point": "152-153 \u00b0C"}}