{"cas_no": "55621-49-3", "cn_name": "5,6-\u4e8c\u6c28\u57fa\u82ef\u5e76\u54aa\u5511-2-\u916e", "en_name": ["5,6-Diaminobenzimidazolone", "2H-Benzimidazol-2-one, 5,6-diamino-1,3-dihydro-", "2-Benzimidazolinone, 5,6-diamino-", "5,6-Diamino-1,3-dihydro-2H-benzimidazol-2-one", "5,6-Diamino-2(3H)-benzimidazolone", "5,6-Diamino-2-benzimidazolone", "5,6-Diaminobenzimidazolone"], "SMILES": "NC=1C=C2C(=CC1N)NC(=O)N2", "physical_data": {"Molecular Weight": "164.16", "Molecular Formula": "C7H8N4O", "Melting Point": "&gt;300 \u00b0C"}}