{"cas_no": "55659-75-1", "cn_name": "\u4e09\u89d2\u53f6\u85af\u84e3\u7682\u82f7", "en_name": ["Deltonin", "\u03b2-D-Glucopyranoside, (3\u03b2,25R)-spirost-5-en-3-yl O-6-deoxy-\u03b1-L-mannopyranosyl-(1\u21922)-O-[\u03b2-D-glucopyranosyl-(1\u21924)]-", "(3\u03b2,25R)-Spirost-5-en-3-yl O-6-deoxy-\u03b1-L-mannopyranosyl-(1\u21922)-O-[\u03b2-D-glucopyranosyl-(1\u21924)]-\u03b2-D-glucopyranoside", "Deltonin", "3-O-\u03b2-D-Glucopyranosyl(1\u21924)-[\u03b1-L-rhamnopyranosyl(1\u21922)]-\u03b2-D-glucopyranoside-diosgenin"], "SMILES": "CC12C3C(CC1C4C(CC2)C5(C)C(=CC4)CC(OC6C(OC7C(O)C(O)C(O)C(C)O7)C(O)C(OC8OC(CO)C(O)C(O)C8O)C(CO)O6)CC5)OC9(C3C)CCC(C)CO9", "physical_data": {"Molecular Weight": "885.04", "Molecular Formula": "C45H72O17", "Melting Point": "298-300 \u00b0C (decomp)"}}