{"cas_no": "5565-36-6", "cn_name": "1,4-\u82ef\u4e8c\u787c\u9178\u53cc(\u65b0\u620a\u4e8c\u9187)\u916f", "en_name": ["2,2\u2032-(1,4-Phenylene)bis[5,5-dimethyl-1,3,2-dioxaborinane]", "1,3,2-Dioxaborinane, 2,2\u2032-(1,4-phenylene)bis[5,5-dimethyl-", "p-Benzenediboronic acid, cyclic bis(2,2-dimethyltrimethylene) ester", "2,2\u2032-(1,4-Phenylene)bis[5,5-dimethyl-1,3,2-dioxaborinane]", "1,4-Bis(5,5-dimethyl-1,3,2-dioxaborinan-2-yl)benzene"], "SMILES": "CC1(C)COB(OC1)C2=CC=C(C=C2)B3OCC(C)(C)CO3", "physical_data": {"Molecular Weight": "301.98", "Molecular Formula": "C16H24B2O4", "Melting Point": "221-222 \u00b0C"}}