{"cas_no": "55666-43-8", "cn_name": "3-\u6eb4\u4e19\u9178\u53d4\u4e01\u916f", "en_name": ["tert-Butyl 3-bromopropionate", "Propanoic acid, 3-bromo-, 1,1-dimethylethyl ester", "tert-Butyl 3-bromopropionate", "2-(tert-Butoxycarbonyl)ethyl bromide", "tert-Butyl 3-bromopropanoate", "NSC 82471", "3-Bromopropionic acid tert-butyl ester", "3-Bromopropionic acid tert-butyl ester"], "SMILES": "C(OC(C)(C)C)(CCBr)=O", "physical_data": {"Molecular Weight": "209.08", "Molecular Formula": "C7H13BrO2", "Boiling Point": "88-90 \u00b0C @ Press: 2.5 Torr"}}