{"cas_no": "55682-92-3", "cn_name": "\u4e8c\u5341\u516b\u9178\u7532\u916fC28", "en_name": ["Methyl octacosanoate", "Octacosanoic acid, methyl ester", "Methyl octacosanoate", "Methyl montanate", "Montanic acid methyl ester"], "SMILES": "C(CCCCCCCCCCCCCCCCCCCCC)CCCCCC(OC)=O", "physical_data": {"Molecular Weight": "438.77", "Molecular Formula": "C29H58O2", "Melting Point": "66 \u00b0C"}}