{"cas_no": "55687-05-3", "cn_name": "2,5-\u4e8c\u6c2f\u55b9\u5641\u5549", "en_name": ["2,5-Dichloroquinoxaline", "Quinoxaline, 2,5-dichloro-", "2,5-Dichloroquinoxaline"], "SMILES": "ClC=1C2=C(N=C(Cl)C=N2)C=CC1", "physical_data": {"Molecular Weight": "199.04", "Molecular Formula": "C8H4Cl2N2", "Melting Point": "~295 \u00b0C (decomp) (approx)"}}