{"cas_no": "55686-94-7", "cn_name": "2-\u6c2f-7-\u785d\u57fa\u55b9\u5641\u5549", "en_name": ["2-Chloro-7-nitroquinoxaline", "Quinoxaline, 2-chloro-7-nitro-", "2-Chloro-7-nitroquinoxaline"], "SMILES": "N(=O)(=O)C1=CC2=C(C=C1)N=CC(Cl)=N2", "physical_data": {"Molecular Weight": "209.59", "Molecular Formula": "C8H4ClN3O2", "Melting Point": "188 \u00b0C"}}