{"cas_no": "55689-64-0", "cn_name": "\u4f0a\u7d22\u514b\u9178\u7532\u916f", "en_name": ["Methyl 6,11-dihydro-11-oxodibenz[b,e]oxepin-2-acetate", "Dibenz[b,e]oxepin-2-acetic acid, 6,11-dihydro-11-oxo-, methyl ester", "Methyl 6,11-dihydro-11-oxodibenz[b,e]oxepin-2-acetate"], "SMILES": "O=C1C=2C(OCC=3C1=CC=CC3)=CC=C(CC(OC)=O)C2", "physical_data": {"Molecular Weight": "282.29", "Molecular Formula": "C17H14O4", "Melting Point": "78-79 \u00b0C", "Density": "1.33 g/cm\u00b3"}}