{"cas_no": "55687-34-8", "cn_name": "6-\u6eb4\u55b9\u5594\u5549-2(1H)-\u916e", "en_name": ["6-Bromo-2(1H)-quinoxalinone", "2(1H)-Quinoxalinone, 6-bromo-", "6-Bromo-2(1H)-quinoxalinone", "6-Bromo-2-quinoxalinol", "6-Bromoquinoxalin-2(1H)-one", "6-Bromo-2-hydroxyquinoxaline", "6-Bromo-1H-quinoxalin-2-one"], "SMILES": "BrC=1C=C2C(NC(=O)C=N2)=CC1", "physical_data": {"Molecular Weight": "225.04", "Molecular Formula": "C8H5BrN2O", "Melting Point": "298-300 \u00b0C"}}