{"cas_no": "55687-02-0", "cn_name": "6-\u6eb4-2-\u6c2f\u55b9\u6076\u5549", "en_name": ["6-Bromo-2-chloroquinoxaline", "Quinoxaline, 6-bromo-2-chloro-", "6-Bromo-2-chloroquinoxaline", "2-Chloro-6-bromoquinoxaline"], "SMILES": "BrC1=CC2=C(N=C(Cl)C=N2)C=C1", "physical_data": {"Molecular Weight": "243.49", "Molecular Formula": "C8H4BrClN2", "Melting Point": "150-152.5 \u00b0C"}}