{"cas_no": "5568-90-1", "cn_name": "\u5f02\u4e19\u55ea\u6742\u8d28B", "en_name": ["10H-Phenothiazine-10-ethanamine, N,N,\u03b2-trimethyl-, hydrochloride (1:1)", "10H-Phenothiazine-10-ethanamine, N,N,\u03b2-trimethyl-, hydrochloride (1:1)", "Phenothiazine, 10-[2-(dimethylamino)-1-methylethyl]-, monohydrochloride", "10H-Phenothiazine-10-ethanamine, N,N,\u03b2-trimethyl-, monohydrochloride", "Isopromethazine hydrochloride"], "SMILES": "C(CN(C)C)(C)N1C=2C(SC=3C1=CC=CC3)=CC=CC2.Cl", "physical_data": {"Molecular Weight": "", "Molecular Formula": "C17H20N2S.ClH", "Melting Point": "204 \u00b0C"}}