{"cas_no": "55699-10-0", "cn_name": "3-\u7f9f\u57fa-4-(1,1-\u4e8c\u7532\u57fa\u4e59\u57fa)-2,6-\u4e8c\u7532\u57fa\u82ef\u4e59\u8148", "en_name": ["4-(1,1-Dimethylethyl)-3-hydroxy-2,6-dimethylbenzeneacetonitrile", "Benzeneacetonitrile, 4-(1,1-dimethylethyl)-3-hydroxy-2,6-dimethyl-", "Acetonitrile, (4-tert-butyl-3-hydroxy-2,6-xylyl)-", "4-(1,1-Dimethylethyl)-3-hydroxy-2,6-dimethylbenzeneacetonitrile", "4-tert-Butyl-3-hydroxy-2,6-dimethylphenylacetonitrile", "4-tert-Butyl-2,6-dimethyl-3-hydroxyphenylacetonitrile", "2-(4-tert-Butyl-3-hydroxy-2,6-dimethylphenyl)acetonitrile"], "SMILES": "C(C)(C)(C)C1=C(O)C(C)=C(CC#N)C(C)=C1", "physical_data": {"Molecular Weight": "217.31", "Molecular Formula": "C14H19NO", "Melting Point": "125 \u00b0C"}}