{"cas_no": "55690-60-3", "cn_name": "2-\u5def\u57fa-5-\u7532\u6c27\u57fa\u82ef\u5e76\u567b\u5511", "en_name": ["2-Mercapto-5-methoxybenzothiazole", "2(3H)-Benzothiazolethione, 5-methoxy-", "5-Methoxy-2(3H)-benzothiazolethione", "2-Mercapto-5-methoxybenzothiazole", "5-Methoxy-2-benzothiazolethiol", "5-Methoxy-2-mercaptobenzothiazole", "5-Methoxy-1,3-benzothiazole-2-thiol"], "SMILES": "S=C1SC=2C(=CC(OC)=CC2)N1", "physical_data": {"Molecular Weight": "197.28", "Molecular Formula": "C8H7NOS2", "Melting Point": "190-192 \u00b0C"}}