{"cas_no": "55696-57-6", "cn_name": "\u69f2\u76ae\u7d20-3-O-\u82b8\u9999\u7cd6-(1\u21922)-O-\u9f20\u674e\u7cd6\u82f7", "en_name": ["Manghaslin", "4H-1-Benzopyran-4-one, 3-[(O-6-deoxy-\u03b1-L-mannopyranosyl-(1\u21922)-O-[6-deoxy-\u03b1-L-mannopyranosyl-(1\u21926)]-\u03b2-D-glucopyranosyl)oxy]-2-(3,4-dihydroxyphenyl)-5,7-dihydroxy-", "3-[(O-6-Deoxy-\u03b1-L-mannopyranosyl-(1\u21922)-O-[6-deoxy-\u03b1-L-mannopyranosyl-(1\u21926)]-\u03b2-D-glucopyranosyl)oxy]-2-(3,4-dihydroxyphenyl)-5,7-dihydroxy-4H-1-benzopyran-4-one", "Q2", "Manghaslin", "Quercetin 3-O-2G-rhamnosylrutinoside", "Quercetin 3-(2G-rhamnosylrutinoside)", "Quercetin 3-O-(2,6-\u03b1-L-dirhamnopyranosyl-\u03b2-D-glucopyranoside)", "Quercetin 3-O-(2\u2032\u2032,6\u2032\u2032-di-O-\u03b1-L-rhamnopyranosyl)-\u03b2-D-glucopyranoside", "Quercetin 3-O-rutinoside-(1\u21922)-O-rhamnoside", "Quercetin-3-O-(2\u2032\u2032,6\u2032\u2032-di-O-\u03b1-L-rhamnopyranosyl)-\u03b2-D-glucoside"], "SMILES": "O(C1=C(OC=2C(C1=O)=C(O)C=C(O)C2)C3=CC(O)=C(O)C=C3)C4C(OC5C(O)C(O)C(O)C(C)O5)C(O)C(O)C(COC6C(O)C(O)C(O)C(C)O6)O4", "physical_data": {"Molecular Weight": "756.66", "Molecular Formula": "C33H40O20", "Melting Point": "168-170 \u00b0C"}}