{"cas_no": "557-40-4", "cn_name": "\u70ef\u4e19\u57fa\u919a", "en_name": ["Allyl ether", "1-Propene, 3,3\u2032-oxybis-", "Allyl ether", "3,3\u2032-Oxybis[1-propene]", "Diallyl ether", "4-Oxahepta-1,6-diene", "3-(Allyloxy)-1-propene", "Bis(allyl) ether", "3,3\u2032-Oxybis-1-propene", "NSC 7619", "3-(2-Propenoxy)-1-propene"], "SMILES": "O(CC=C)CC=C", "physical_data": {"Molecular Weight": "98.14", "Molecular Formula": "C6H10O", "Boiling Point": "94 \u00b0C", "Melting Point": "-6 \u00b0C", "Density": "0.8449 g/cm\u00b3 @ Temp: 0 \u00b0C"}}