{"cas_no": "557-30-2", "cn_name": "\u4e59\u4e8c\u809f", "en_name": ["Glyoxime", "Ethanedial, 1,2-dioxime", "Glyoxime", "Glyoxal, dioxime", "Ethanedial, dioxime", "Ethanedione dioxime", "Pik-off", "NSC 18263"], "SMILES": "C(C=NO)=NO", "physical_data": {"Molecular Weight": "88.07", "Molecular Formula": "C2H4N2O2", "Melting Point": "178 \u00b0C (decomp)"}}