{"cas_no": "557-18-6", "cn_name": "\u4e8c\u4e59\u57fa\u9541", "en_name": ["Diethylmagnesium", "Magnesium, diethyl-", "Diethylmagnesium"], "SMILES": "[Mg](CC)CC", "physical_data": {"Molecular Weight": "", "Molecular Formula": "C4H10Mg", "Melting Point": "0 \u00b0C"}}