{"cas_no": "557-98-2", "cn_name": "2-\u6c2f\u4e19\u70ef", "en_name": ["2-Chloro-1-propene", "1-Propene, 2-chloro-", "Propene, 2-chloro-", "2-Chloro-1-propene", "2-Chloropropylene", "Isopropenyl chloride", "\u03b2-Chloropropylene", "2-Chloropropene", "\u03b2-Chloropropene", "1-Methylvinyl chloride"], "SMILES": "C(C)(=C)Cl", "physical_data": {"Molecular Weight": "76.52", "Molecular Formula": "C3H5Cl", "Boiling Point": "22.6 \u00b0C @ Press: 760 Torr", "Melting Point": "-137.4 \u00b0C", "Density": "0.9017 g/cm\u00b3 @ Temp: 20 \u00b0C"}}