{"cas_no": "557-07-3", "cn_name": "\u6cb9\u9178\u950c", "en_name": ["Zinc oleate", "9-Octadecenoic acid (9Z)-, zinc salt (2:1)", "Oleic acid, zinc salt", "9-Octadecenoic acid (Z)-, zinc salt", "9-Octadecenoic acid (9Z)-, zinc salt", "Zinc oleate", "Daiwax OZ", "Zinc dioleate"], "SMILES": "C(CC=CCCCCCCCC)CCCCCC(O)=O.[Zn]", "physical_data": {"Molecular Weight": "", "Molecular Formula": "C18H34O2.<sup>1</sup>/2Zn", "Melting Point": "85.5 \u00b0C"}}