{"cas_no": "557-31-3", "cn_name": "\u4e59\u57fa\u70ef\u4e19\u57fa\u919a", "en_name": ["3-Ethoxy-1-propene", "1-Propene, 3-ethoxy-", "Ether, allyl ethyl", "3-Ethoxy-1-propene", "Allyl ethyl ether", "Ethyl allyl ether", "Ethyl 2-propenyl ether"], "SMILES": "C(OCC)C=C", "physical_data": {"Molecular Weight": "86.13", "Molecular Formula": "C5H10O", "Boiling Point": "67.6 \u00b0C", "Density": "0.8664 g/cm\u00b3 @ Temp: 20 \u00b0C"}}