{"cas_no": "557-59-5", "cn_name": "\u6728\u7126\u6cb9\u9178", "en_name": ["Tetracosanoic acid", "Tetracosanoic acid", "Lignoceric acid", "n-Tetracosanoic acid", "FL 88 (fatty acid)", "FL 88", "L 88 (fatty acid)", "L 88"], "SMILES": "C(CCCCCCCCCCCCCCCC)CCCCCCC(O)=O", "physical_data": {"Molecular Weight": "368.64", "Molecular Formula": "C24H48O2", "Melting Point": "84.2 \u00b0C"}}