{"cas_no": "557-25-5", "cn_name": "\u4e01\u9178\u7518\u6cb9\u916f", "en_name": ["2,3-Dihydroxypropyl butanoate", "Butanoic acid, 2,3-dihydroxypropyl ester", "Butyrin, 1-mono-", "2,3-Dihydroxypropyl butanoate", "Glycerol-\u03b1-mono-n-butyrate", "\u03b1-Monobutyrin", "2,3-Dihydroxypropyl butyrate", "Glycerol \u03b1-monobutyrate", "1-Monobutyrin", "Glyceryl 3-monobutyrate", "NSC 8451", "Glycerol 1-monobutyrate"], "SMILES": "O(CC(CO)O)C(CCC)=O", "physical_data": {"Molecular Weight": "162.18", "Molecular Formula": "C7H14O4", "Boiling Point": "280 \u00b0C"}}