{"cas_no": "557-34-6", "cn_name": "\u918b\u9178\u950c", "en_name": ["Zinc acetate", "Acetic acid, zinc salt (2:1)", "Zinc acetate", "Acetic acid, zinc salt", "Zinc diacetate", "Zinc(II) acetate", "Siltex CL 4", "Galzin", "MeSH ID: D019345"], "SMILES": "C(C)(O)=O.[Zn]", "physical_data": {"Molecular Weight": "", "Molecular Formula": "C2H4O2.<sup>1</sup>/2Zn", "Melting Point": "237 \u00b0C (decomp)", "Density": "1.735 g/cm\u00b3"}}