{"cas_no": "557-17-5", "cn_name": "\u7532\u57fa\u4e19\u57fa\u919a", "en_name": ["Methyl propyl ether", "Propane, 1-methoxy-", "Ether, methyl propyl", "Methyl propyl ether", "Methyl n-propyl ether", "Metopryl", "Neothyl", "1-Methoxypropane", "\u03b1-Methoxypropane", "Propyl methyl ether"], "SMILES": "C(CC)OC", "physical_data": {"Molecular Weight": "74.12", "Molecular Formula": "C4H10O", "Boiling Point": "39.1 \u00b0C", "Density": "0.7356 g/cm\u00b3 @ Temp: 13 \u00b0C"}}