{"cas_no": "557-08-4", "cn_name": "\u5341\u4e00\u70ef\u9178\u950c", "en_name": ["Zinc undecylenate", "10-Undecenoic acid, zinc salt (2:1)", "10-Undecenoic acid, zinc salt", "Zinc 10-undecenoate", "Zinc undecylenate", "Tineafax", "Mycoseptin"], "SMILES": "C(CCCCC=C)CCCC(O)=O.[Zn]", "physical_data": {"Molecular Weight": "", "Molecular Formula": "C11H20O2.<sup>1</sup>/2Zn", "Melting Point": "115-116 \u00b0C"}}