{"cas_no": "557-01-7", "cn_name": "2-\u7f9f\u57fa\u5627\u5576", "en_name": ["2(1H)-Pyrimidinone", "2(1H)-Pyrimidinone", "2-Oxopyrimidine", "2-Pyrimidone", "2-Hydroxypyrimidine", "2-Pyrimidinol", "2-Pyrimidinone", "2(1H)-Pyrimidone", "1,2-Dihydropyrimidin-2-one", "NSC 618280", "1H-Pyrimidin-2-one"], "SMILES": "O=C1NC=CC=N1", "physical_data": {"Molecular Weight": "96.09", "Molecular Formula": "C4H4N2O", "Melting Point": "177-178 \u00b0C"}}