{"cas_no": "557-68-6", "cn_name": "\u6eb4\u7898\u7532\u70f7", "en_name": ["Bromoiodomethane", "Methane, bromoiodo-", "Bromoiodomethane"], "SMILES": "C(Br)I", "physical_data": {"Molecular Weight": "220.84", "Molecular Formula": "CH2BrI", "Boiling Point": "139.5 \u00b0C"}}