{"cas_no": "557-93-7", "cn_name": "2-\u6eb4\u4e19\u70ef", "en_name": ["2-Bromopropene", "1-Propene, 2-bromo-", "Propene, 2-bromo-", "2-Bromo-1-propene", "Isopropenyl bromide", "2-Bromopropene", "2-Bromopropylene", "\u03b1-Methylvinyl bromide", "NSC 87535"], "SMILES": "C(Br)(C)=C", "physical_data": {"Molecular Weight": "120.98", "Molecular Formula": "C3H5Br", "Boiling Point": "48.4 \u00b0C", "Melting Point": "-126 \u00b0C", "Density": "1.4333 g/cm\u00b3 @ Temp: 16.2 \u00b0C"}}