{"cas_no": "557-11-9", "cn_name": "\u70ef\u4e19\u57fa\u8132", "en_name": ["Allylurea", "Urea, N-2-propen-1-yl-", "Urea, allyl-", "Urea, 2-propenyl-", "N-2-Propen-1-ylurea", "Allylcarbamide", "Monoallylurea", "Allylurea", "1-Allylurea", "N-2-Propenylurea", "N-Allylurea", "NSC 136617", "NSC 7607", "1-(2-Propenyl)urea", "(Prop-2-en-1-yl)urea"], "SMILES": "N(C(N)=O)CC=C", "physical_data": {"Molecular Weight": "100.12", "Molecular Formula": "C4H8N2O", "Melting Point": "85 \u00b0C"}}