{"cas_no": "557-91-5", "cn_name": "1,1-\u4e8c\u6eb4\u4e59\u70f7", "en_name": ["1,1-Dibromoethane", "Ethane, 1,1-dibromo-", "1,1-Dibromoethane", "Ethylidene dibromide"], "SMILES": "C(Br)(Br)C", "physical_data": {"Molecular Weight": "187.86", "Molecular Formula": "C2H4Br2", "Boiling Point": "109 \u00b0C", "Melting Point": "-63 \u00b0C", "Density": "2.104 g/cm\u00b3 @ Temp: 20 \u00b0C"}}