{"cas_no": "557-19-7", "cn_name": "\u6c30\u5316\u954d", "en_name": ["Nickel cyanide (Ni(CN)2)", "Nickel cyanide (Ni(CN)2)", "Dicyanonickel", "Nickel dicyanide", "Nickel(II) cyanide"], "SMILES": "[Ni](C#N)C#N", "physical_data": {"Molecular Weight": "", "Molecular Formula": "C2N2Ni", "Melting Point": "&gt;200 \u00b0C", "Density": "2.393 g/cm\u00b3"}}