{"cas_no": "557-24-4", "cn_name": "\u9a6c\u6765\u9170\u80fa\u9178", "en_name": ["Maleamic acid", "2-Butenoic acid, 4-amino-4-oxo-, (2Z)-", "Maleamic acid", "2-Butenoic acid, 4-amino-4-oxo-, (Z)-", "(2Z)-4-Amino-4-oxo-2-butenoic acid", "Maleic acid monoamide", "Maleic monoamide", "Maleamate"], "SMILES": "C(=CC(O)=O)C(N)=O", "physical_data": {"Molecular Weight": "115.09", "Molecular Formula": "C4H5NO3", "Melting Point": "172.5 \u00b0C"}}