{"cas_no": "557-09-5", "cn_name": "\u8f9b\u9178\u950c\u76d0", "en_name": ["Zinc octanoate", "Octanoic acid, zinc salt (2:1)", "Octanoic acid, zinc salt", "Zinc octanoate", "Zinc caprylate", "Zinc octoate", "Zinc octylate", "Zinc dioctylate", "Zinc (II) octoate", "Siccatol ZN 12", "O/S Zink 10 Aqua", "Baerostab L 230", "Stabilol VZN 1950", "Z 08", "LBZ 732", "Octoate Z", "Zn Octoate", "Zinc(II) bis(n-octoate)", "PP 23", "Caprylic acid zinc salt", "Octlife ZnS", "Z 08 (stabilizer)", "Plastistab 2275", "Z 08N", "K-KAT XK 661", "Valirex Zn 8.0", "Valirex Zn 8", "Zn Octoate 20%T"], "SMILES": "C(CCCCC)CC(O)=O.[Zn]", "physical_data": {"Molecular Weight": "", "Molecular Formula": "C8H16O2.<sup>1</sup>/2Zn", "Melting Point": "136 \u00b0C", "Density": "1.19 g/cm\u00b3"}}