{"cas_no": "557-61-9", "cn_name": "\u4e8c\u5341\u516b\u70f7\u9187", "en_name": ["1-Octacosanol", "1-Octacosanol", "n-Octacosanol", "Octacosyl alcohol", "Octacosanol", "Cluytyl alcohol", "Montanyl alcohol", "NSC 10770", "NSC 57768"], "SMILES": "C(CCCCCCCCCCCCCC)CCCCCCCCCCCCCO", "physical_data": {"Molecular Weight": "410.76", "Molecular Formula": "C28H58O", "Melting Point": "83.3 \u00b0C"}}