{"cas_no": "557-20-0", "cn_name": "\u4e8c\u4e59\u57fa\u950c", "en_name": ["Diethylzinc", "Zinc, diethyl-", "Diethylzinc"], "SMILES": "[Zn](CC)CC", "physical_data": {"Molecular Weight": "", "Molecular Formula": "C4H10Zn", "Boiling Point": "118 \u00b0C", "Melting Point": "-28 \u00b0C", "Density": "1.2065 g/cm\u00b3 @ Temp: 20 \u00b0C"}}