{"cas_no": "557-66-4", "cn_name": "\u4e59\u80fa\u76d0\u9178\u76d0", "en_name": ["Ethylamine hydrochloride", "Ethanamine, hydrochloride (1:1)", "Ethylamine, hydrochloride", "Ethanamine, hydrochloride", "Ethylammonium chloride", "Monoethylammonium chloride", "N-Ethylammonium chloride", "Ethylamine hydrochloride"], "SMILES": "C(C)N.Cl", "physical_data": {"Molecular Weight": "", "Molecular Formula": "C2H7N.ClH", "Melting Point": "109.5 \u00b0C", "Density": "1.22 g/cm\u00b3"}}