{"cas_no": "557-35-7", "cn_name": "2-\u6eb4\u8f9b\u70f7", "en_name": ["2-Bromooctane", "Octane, 2-bromo-", "2-Bromooctane", "sec-Octyl bromide", "2-Octyl bromide", "1-Methylheptyl bromide", "(\u00b1)-2-Bromooctane", "NSC 8060"], "SMILES": "C(CC(Br)C)CCCC", "physical_data": {"Molecular Weight": "193.12", "Molecular Formula": "C8H17Br", "Boiling Point": "65-70 \u00b0C @ Press: 16 Torr", "Density": "1.0982 g/cm\u00b3 @ Temp: 25 \u00b0C"}}