{"cas_no": "557-00-6", "cn_name": "\u5f02\u620a\u9178\u4e19\u916f", "en_name": ["Propyl isovalerate", "Butanoic acid, 3-methyl-, propyl ester", "Isovaleric acid, propyl ester", "Propyl isovalerate", "Propyl 3-methylbutyrate", "Propyl 3-methylbutanoate"], "SMILES": "C(C(OCCC)=O)C(C)C", "physical_data": {"Molecular Weight": "144.21", "Molecular Formula": "C8H16O2", "Boiling Point": "155.9 \u00b0C"}}