{"cas_no": "557-48-2", "cn_name": "\u53cd-2-,\u987a-6-\u58ec\u4e8c\u70ef\u919b", "en_name": ["(E,Z)-2,6-Nonadienal", "2,6-Nonadienal, (2E,6Z)-", "2,6-Nonadienal, (E,Z)-", "2,6-Nonadienal, trans,cis-", "(2E,6Z)-2,6-Nonadienal", "trans-2,cis-6-Nonadienal", "2-trans-6-cis-Nonadienal", "trans,cis-2,6-Nonadienal", "(E,Z)-2,6-Nonadienal", "(E,Z)-2,6-Nonadienal", "(2E,6Z)-Nonadienal", "(2E,6Z)-Nona-2,6-dienal", "(E,Z)-2,6-Nonadien-1-al", "(2E,6Z)-2,6-Nonadienal"], "SMILES": "C(CC=CC=O)C=CCC", "physical_data": {"Molecular Weight": "138.21", "Molecular Formula": "C9H14O", "Boiling Point": "88 \u00b0C @ Press: 10 Torr"}}