{"cas_no": "557-04-0", "cn_name": "\u786c\u8102\u9178\u9541", "en_name": ["Magnesium stearate", "Octadecanoic acid, magnesium salt (2:1)", "Magnesium stearate", "Stearic acid, magnesium salt", "Octadecanoic acid, magnesium salt", "Dibasic magnesium stearate", "Magnesium distearate", "SM", "Petrac MG 20NF", "SM 1000", "Magnesium octadecanoate", "Daiwax M", "Pharma", "SM-P", "NS-M", "NS-M (salt)", "Synpro Magnesium Stearate 90", "Synpro 90", "NP 1500", "Magnesium stearic acid", "EM 100", "EM 100 (salt)", "EM 144", "EM 112", "EM 612", "Nissan Electol MM 2", "HyQual", "Electol MM 2", "Mg-St", "Daiwax SMO", "Palmstar 325BP/EP", "SPX 100F", "M 5GN", "Magnesium Stearate G", "Aurabrite MA 76", "Parteck LUB-MST", "PETS 120P", "AFCO-Chem MGS", "Kemilub EM-F-V", "JPM 100", "Liga MF 2V", "SMO", "VE", "SM-PG", "MGS", "Songstab SM 310", "BS 5818", "SAK-MS-P", "Parteck LUB", "Ligastar MG 700", "SM 520", "Magnesium stearate GR", "S 0238", "Nissan Elector MM-2", "Ligamed MF-2-V", "Magnesium Stearate GP", "magnesium stearate", "Ligamed", "SM 310", "E 470B", "IADMGSTCM 700", "NJ 029", "YZM 32C", "YZM 75C", "Ligamed MF 2V", "Hyqual 5712", "TY 205 (salt)", "TY 205", "Kang 666", "XW 5", "MS-SW", "Daiwax M 5"], "SMILES": "C(CCCCCCCCCCC)CCCCCC(O)=O.[Mg]", "physical_data": {"Molecular Weight": "", "Molecular Formula": "C18H36O2.<sup>1</sup>/2Mg", "Melting Point": "88 \u00b0C", "Density": "1.028 g/cm\u00b3"}}