{"cas_no": "557-58-4", "cn_name": "\u897f\u95e8\u6728\u7094\u9178", "en_name": ["Ximenynic acid", "11-Octadecen-9-ynoic acid, (11E)-", "11-Octadecen-9-ynoic acid, (E)-", "Ximenynic acid", "11-Octadecen-9-ynoic acid, trans-", "(11E)-11-Octadecen-9-ynoic acid", "Santalbic acid", "trans-11-Octadecen-9-ynoic acid", "Ximeninic acid"], "SMILES": "C(CC#CC=CCCCCCC)CCCCCC(O)=O", "physical_data": {"Molecular Weight": "278.43", "Molecular Formula": "C18H30O2", "Melting Point": "40-41 \u00b0C"}}