{"cas_no": "557-21-1", "cn_name": "\u6c30\u5316\u950c", "en_name": ["Zinc cyanide", "Zinc cyanide (Zn(CN)2)", "Zinc cyanide", "Zinc dicyanide", "Dicyanozinc"], "SMILES": "[Zn](C#N)C#N", "physical_data": {"Molecular Weight": "", "Molecular Formula": "C2N2Zn", "Melting Point": "800 \u00b0C (decomp)", "Density": "1.852 g/cm\u00b3 @ Temp: 20 \u00b0C"}}