{"cas_no": "5570-19-4", "cn_name": "2-\u785d\u57fa\u82ef\u57fa\u787c\u9178", "en_name": ["2-Nitrophenylboronic acid", "Boronic acid, B-(2-nitrophenyl)-", "Benzeneboronic acid, o-nitro-", "Boronic acid, (2-nitrophenyl)-", "B-(2-Nitrophenyl)boronic acid", "2-Nitrophenylboronic acid", "o-Nitrophenylboronic acid", "2-Nitrobenzeneboronic acid"], "SMILES": "B(O)(O)C1=C(N(=O)=O)C=CC=C1", "physical_data": {"Molecular Weight": "166.93", "Molecular Formula": "C6H6BNO4", "Melting Point": "140-142 \u00b0C"}}