{"cas_no": "5570-78-5", "cn_name": "1-\u5f02\u4e19\u57fa-4-\u54cc\u5576\u9187", "en_name": ["1-Isopropylpiperidin-4-ol", "4-Piperidinol, 1-(1-methylethyl)-", "4-Piperidinol, 1-isopropyl-", "1-(1-Methylethyl)-4-piperidinol", "1-Isopropylpiperidin-4-ol", "1-(1-Methylethyl)piperidin-4-ol", "1-(Propan-2-yl)piperidin-4-ol", "1-Propan-2-ylpiperidin-4-ol"], "SMILES": "C(C)(C)N1CCC(O)CC1", "physical_data": {"Molecular Weight": "143.23", "Molecular Formula": "C8H17NO", "Boiling Point": "113-114 \u00b0C @ Press: 23 Torr", "Density": "0.9529 g/cm\u00b3 @ Temp: 25 \u00b0C"}}