{"cas_no": "5570-77-4", "cn_name": "N-\u7532\u57fa-4-\u6c2f\u54cc\u5576", "en_name": ["4-Chloro-1-methylpiperidine", "Piperidine, 4-chloro-1-methyl-", "4-Chloro-1-methylpiperidine", "4-Chloro-N-methylpiperidine", "N-Methyl-4-chloropiperidine", "1-Methyl-4-piperidyl chloride", "1-Methyl-4-chloropiperidine", "1-Methyl-4-piperidinyl chloride"], "SMILES": "ClC1CCN(C)CC1", "physical_data": {"Molecular Weight": "133.62", "Molecular Formula": "C6H12ClN", "Boiling Point": "160-162 \u00b0C @ Press: 733 Torr"}}