{"cas_no": "55704-78-4", "cn_name": "\u4e8c\u805a\u5def\u57fa\u4e19\u916e", "en_name": ["2,5-Dihydroxy-2,5-dimethyl-1,4-dithiane", "1,4-Dithiane-2,5-diol, 2,5-dimethyl-", "p-Dithiane-,2,5-diol, 2,5-dimethyl-", "2,5-Dimethyl-1,4-dithiane-2,5-diol", "2,5-Dimethyl-1,4-dithian-2,5-diol", "2,5-Dihydroxy-2,5-dimethyl-1,4-dithiane", "NSC 176174", "2,5-Dimethyl-2,5-dihydroxy-1,4-dithiane"], "SMILES": "CC1(O)CSC(C)(O)CS1", "physical_data": {"Molecular Weight": "180.29", "Molecular Formula": "C6H12O2S2", "Melting Point": "136-138 \u00b0C"}}