{"cas_no": "55701-05-8", "cn_name": "\u83ca\u9178", "en_name": ["Permethric acid", "Cyclopropanecarboxylic acid, 3-(2,2-dichloroethenyl)-2,2-dimethyl-", "Cyclopropanecarboxylic acid, 3-(2,2-dichlorovinyl)-2,2-dimethyl-", "3-(2,2-Dichloroethenyl)-2,2-dimethylcyclopropanecarboxylic acid", "Permethric acid", "DV-chrysanthemic acid", "3-(2,2-Dichlorovinyl)-2,2-dimethylcyclopropanecarboxylic acid", "Permethrinic acid", "3-(2,2-Dichlorovinyl)-2,2-dimethylcyclopropylcarboxylic acid", "2,2-Dimethyl-3-(2,2-dichlorovinyl)cyclopropanecarboxylic acid", "2-(2,2-Dichlorovinyl)-3,3-dimethylcyclopropanecarboxylic acid"], "SMILES": "C(O)(=O)C1C(C=C(Cl)Cl)C1(C)C", "physical_data": {"Molecular Weight": "209.07", "Molecular Formula": "C8H10Cl2O2", "Boiling Point": "92-94.5 \u00b0C", "Melting Point": "58.33 \u00b0C"}}