{"cas_no": "5570-18-3", "cn_name": "2-\u6c28\u57fa\u82ef\u787c\u9178", "en_name": ["B-(2-Aminophenyl)boronic acid", "Boronic acid, B-(2-aminophenyl)-", "Benzeneboronic acid, o-amino-", "Boronic acid, (2-aminophenyl)-", "B-(2-Aminophenyl)boronic acid", "2-Aminobenzeneboronic acid", "2-Aminophenylboronic acid", "o-Aminophenylboronic acid"], "SMILES": "B(O)(O)C1=C(N)C=CC=C1", "physical_data": {"Molecular Weight": "136.94", "Molecular Formula": "C6H8BNO2", "Melting Point": "175-176 \u00b0C"}}