{"cas_no": "55701-03-6", "cn_name": "\u53cd\u5f0f\u53f3\u65cb\u83ca\u9178", "en_name": ["(1R,3S)-3-(2,2-Dichloroethenyl)-2,2-dimethylcyclopropanecarboxylic acid", "Cyclopropanecarboxylic acid, 3-(2,2-dichloroethenyl)-2,2-dimethyl-, (1R,3S)-", "Cyclopropanecarboxylic acid, 3-(2,2-dichloroethenyl)-2,2-dimethyl-, (1R-trans)-", "(1R,3S)-3-(2,2-Dichloroethenyl)-2,2-dimethylcyclopropanecarboxylic acid", "1R-trans-Permethric acid", "1R-trans-Permethrinic acid", "(1R)-(+)-trans-Permethrinic acid", "(1R)-trans-3-(2,2-Dichloroethenyl)-2,2-dimethylcyclopropanecarboxylic acid", "(1R)-trans-3-(2,2-Dichloro-1-ethenyl)-2,2-dimethylcyclopropanecarboxylic acid"], "SMILES": "C(O)(=O)C1C(C=C(Cl)Cl)C1(C)C", "physical_data": {"Molecular Weight": "209.07", "Molecular Formula": "C8H10Cl2O2", "Melting Point": "70-71 \u00b0C"}}