{"cas_no": "55721-31-8", "cn_name": "\u76d0\u9709\u7d20\u94a0", "en_name": ["Salinomycin sodium", "Salinomycin, sodium salt (1:1)", "Salinomycin, monosodium salt", "1,6,8-Trioxadispiro[4.1.5.3]pentadecane, salinomycin deriv.", "Salinomycin sodium salt", "Sodium salinomycin", "Salinomycin sodium", "Salinopharm-premix", "Sacox", "Synvertas plv. a.u.v.", "Kokcisan 120G", "Kokcisan"], "SMILES": "OC1C2(OC3(OC(C(C(C(C(C(C)C4OC(C(C(O)=O)CC)CCC4C)O)C)=O)CC)C(C)CC3C)C=C1)OC(C)(CC2)C5OC(C)C(CC)(O)CC5.[Na]", "physical_data": {"Molecular Weight": "", "Molecular Formula": "C42H70O11.Na", "Melting Point": "117-118 \u00b0C"}}