{"cas_no": "55726-47-1", "cn_name": "\u4f9d\u8bfa\u4ed6\u6ee8", "en_name": ["Enocitabine", "Docosanamide, N-(1-\u03b2-D-arabinofuranosyl-1,2-dihydro-2-oxo-4-pyrimidinyl)-", "N-(1-\u03b2-D-Arabinofuranosyl-1,2-dihydro-2-oxo-4-pyrimidinyl)docosanamide", "N4-Behenoyl-1-\u03b2-D-arabinofuranosylcytosine", "Behenoylcytosine arabinoside", "N4-Behenoylcytosine arabinoside", "NSC 239336", "Sunrabin", "Enocitabine", "BH-AC", "N4-Behenoyl-Ara-C"], "SMILES": "OC1C(OC(CO)C1O)N2C(=O)N=C(NC(CCCCCCCCCCCCCCCCCCCCC)=O)C=C2", "physical_data": {"Molecular Weight": "565.78", "Molecular Formula": "C31H55N3O6", "Melting Point": "141-142 \u00b0C"}}