{"cas_no": "5574-24-3", "cn_name": "\u6c27\u6d77\u7f42\u7c9f\u78b1", "en_name": ["Oxoglaucine", "7H-Dibenzo[de,g]quinolin-7-one, 1,2,9,10-tetramethoxy-", "Noraporphin-7-one, 4,5,6,6a-tetradehydro-1,2,9,10-tetramethoxy-", "1,2,9,10-Tetramethoxy-7H-dibenzo[de,g]quinolin-7-one", "O-Methylatheroline", "Oxoglaucine", "1,2,9,10-Tetramethoxyoxoaporphine", "NSC 141543"], "SMILES": "O(C)C=1C2=C3C(C(=O)C=4C2=CC(OC)=C(OC)C4)=NC=CC3=CC1OC", "physical_data": {"Molecular Weight": "351.35", "Molecular Formula": "C20H17NO5", "Melting Point": "227-229 \u00b0C"}}