{"cas_no": "55745-70-5", "cn_name": "2,3-\u4e8c\u6c22\u82ef\u5e76\u544b\u5583-5-\u7532\u919b", "en_name": ["2,3-Dihydrobenzofuran-5-carboxaldehyde", "5-Benzofurancarboxaldehyde, 2,3-dihydro-", "2,3-Dihydro-5-benzofurancarboxaldehyde", "5-Formylcoumaran", "5-Formyl-2,3-dihydrobenzo[b]furan", "5-Formyl-2,3-dihydrobenzofuran", "2,3-Dihydrobenzo[b]furan-5-carboxaldehyde", "2,3-Dihydro-1-benzofuran-5-carboxaldehyde", "2,3-Dihydrobenzofuran-5-carboxaldehyde", "5-Formyl-2,3-dihydro-1-benzofuran", "2,3-Dihydro-1-benzofuran-5-carbaldehyde", "2,3-Dihydrobenzofuran-5-carbaldehyde"], "SMILES": "C(=O)C=1C=C2C(=CC1)OCC2", "physical_data": {"Molecular Weight": "148.16", "Molecular Formula": "C9H8O2", "Boiling Point": "140-142 \u00b0C @ Press: 8 Torr"}}