{"cas_no": "55749-30-9", "cn_name": "2-(\u7fa7\u57fa\u7532\u57fa\u786b\u4ee3)-4,6-\u4e8c\u7532\u57fa\u5627\u5576 \u4e00\u6c34\u5408\u7269", "en_name": ["2-[(4,6-Dimethyl-2-pyrimidinyl)thio]acetic acid", "Acetic acid, 2-[(4,6-dimethyl-2-pyrimidinyl)thio]-", "Acetic acid, [(4,6-dimethyl-2-pyrimidinyl)thio]-", "2-[(4,6-Dimethyl-2-pyrimidinyl)thio]acetic acid", "NSC 100732", "[(4,6-Dimethyl-2-pyrimidinyl)thio]acetic acid", "2-[(4,6-Dimethylpyrimidinyl)-2-thio]acetic acid", "(4,6-Dimethyl-pyrimidin-2-ylsulfanyl)-aceticacid", "2-[(4,6-Dimethylpyrimidin-2-yl)sulfanyl]acetic acid", "2-(4,6-Dimethylpyrimidin-2-yl)sulfanylacetic acid"], "SMILES": "S(CC(O)=O)C=1N=C(C)C=C(C)N1", "physical_data": {"Molecular Weight": "198.24", "Molecular Formula": "C8H10N2O2S", "Melting Point": "112-113 \u00b0C"}}