{"cas_no": "55755-17-4", "cn_name": "\u95f4\u7532\u57fa\u82ef\u4e59\u80fa", "en_name": ["3-Methylphenethylamine", "Benzeneethanamine, 3-methyl-", "3-Methylbenzeneethanamine", "3-Methylphenylethylamine", "[2-[3-Methylphenyl]ethyl]amine", "3-Methylphenethylamine", "2-(3-Methylphenyl)ethanamine", "2-(m-Tolyl)ethylamine", "2-(m-Tolyl)ethanamine", "2-(3-Methylphenyl)ethan-1-amine"], "SMILES": "C(CN)C1=CC(C)=CC=C1", "physical_data": {"Molecular Weight": "135.21", "Molecular Formula": "C9H13N", "Boiling Point": "101-102 \u00b0C @ Press: 18 Torr", "Melting Point": "170-171 \u00b0C"}}