{"cas_no": "55750-63-5", "cn_name": "6-(\u9a6c\u6765\u9170\u4e9a\u80fa\u57fa)\u5df1\u9178\u7425\u73c0\u9170\u4e9a\u80fa\u916f", "en_name": ["N-(6-Maleimidocaproyloxy)succinimide", "1H-Pyrrole-1-hexanoic acid, 2,5-dihydro-2,5-dioxo-, 2,5-dioxo-1-pyrrolidinyl ester", "1H-Pyrrole-2,5-dione, 1-[6-[(2,5-dioxo-1-pyrrolidinyl)oxy]-6-oxohexyl]-", "N-(\u03b5-Maleimidocaproyloxy)succinimide", "N-(6-Maleimidocaproyloxy)succinimide", "\u03b5-Maleimidocaproic acid N-hydroxysuccinimide ester", "N-Succinimidyl 6-maleimidohexanoate", "EMCS", "N-(6-Maleimide caproyloxy) succinimide", "N-(6-Maleimideocaproyloxy)succinimide", "6-Maleimidohexanoic acid N-hydroxysuccinimide ester", "6-Maleimidohexanoic acid N-succinimidyl ester", "2,5-Dioxopyrrolidin-1-yl 6-(2,5-Dioxo-2,5-dihydro-1H-pyrrol-1-yl)hexanoate", "8: PN: WO2018181428 SEQID: 2 claimed sequence", "N-(Epsilon-maleimidocaproyloxy)succinimide"], "SMILES": "O(C(CCCCCN1C(=O)C=CC1=O)=O)N2C(=O)CCC2=O", "physical_data": {"Molecular Weight": "308.29", "Molecular Formula": "C14H16N2O6", "Melting Point": "79-80 \u00b0C"}}