{"cas_no": "5575-21-3", "cn_name": "\u5934\u5b62\u6d1b\u5b81", "en_name": ["Cefalonium", "Pyridinium, 4-(aminocarbonyl)-1-[[(6R,7R)-2-carboxy-8-oxo-7-[[2-(2-thienyl)acetyl]amino]-5-thia-1-azabicyclo[4.2.0]oct-2-en-3-yl]methyl]-, inner salt", "Pyridinium, 4-carbamoyl-1-[[2-carboxy-8-oxo-7-[2-(2-thienyl)acetamido]-5-thia-1-azabicyclo[4.2.0]oct-2-en-3-yl]methyl]-, hydroxide, inner salt", "Pyridinium, 4-(aminocarbonyl)-1-[[2-carboxy-8-oxo-7-[(2-thienylacetyl)amino]-5-thia-1-azabicyclo[4.2.0]oct-2-en-3-yl]methyl]-, hydroxide, inner salt, (6R-trans)-", "4-Carbamoyl-1-[[2-carboxy-8-oxo-7-[2-(2-thienyl)acetamido]-5-thia-1-azabicyclo[4.2.0]oct-2-en-3-yl]methyl]pyridinium hydroxide, inner salt", "Pyridinium, 4-(aminocarbonyl)-1-[[(6R,7R)-2-carboxy-8-oxo-7-[(2-thienylacetyl)amino]-5-thia-1-azabicyclo[4.2.0]oct-2-en-3-yl]methyl]-, inner salt", "Cephalonium", "7-(\u03b1-Thienylacetamido)-3-(4-carbamoylpyridinomethyl)-3-cephem-4-carboxylic acid", "Cefalonium", "Pyridinium, 4-(aminocarbonyl)-1-[[2-carboxy-8-oxo-7-[(2-thienylacetyl)amino]-5-thia-1-azabicyclo[4.2.0]oct-2-en-3-yl]methyl]-, inner salt, (6R-trans)-", "3-(4-Carbamoylpyridylmethyl)-8-oxo-7-[\u03b1-(thien-2-yl)acetamido]-5-thia-1-azabicyclo[4.2.0]oct-2-ene-2-carboxylic acid", "Cepalonium", "Cepravin DC", "Cepravin Dry Cow"], "SMILES": "C([O-])(=O)C=1N2C(C(NC(CC3=CC=CS3)=O)C2=O)SCC1C[N+]=4C=CC(C(N)=O)=CC4", "physical_data": {"Molecular Weight": "", "Molecular Formula": "C20H18N4O5S2", "Melting Point": "147-150 \u00b0C"}}