{"cas_no": "55751-54-7", "cn_name": "2-(1-\u7532\u4e19\u57fa)\u82ef\u80fa", "en_name": ["2-(1-Methylpropyl)benzenamine", "Benzenamine, 2-(1-methylpropyl)-", "Aniline, o-sec-butyl-", "2-(1-Methylpropyl)benzenamine", "2-sec-Butylaniline", "o-sec-Butylaniline", "(RS)-2-sec-Butylaniline", "2-sec-Butylbenzenamine", "2-Butan-2-ylaniline", "2-(Butan-2-yl)aniline"], "SMILES": "C(CC)(C)C1=C(N)C=CC=C1", "physical_data": {"Molecular Weight": "149.23", "Molecular Formula": "C10H15N", "Boiling Point": "59 \u00b0C @ Press: 0.15 Torr"}}