{"cas_no": "55750-62-4", "cn_name": "3-\u9a6c\u6765\u9170\u4e9a\u80fa\u57fa\u4e19\u9178\u7f9f\u57fa\u7425\u73c0\u9170\u4e9a\u80fa\u916f", "en_name": ["Succinimidyl 3-maleimidopropionate", "1H-Pyrrole-1-propanoic acid, 2,5-dihydro-2,5-dioxo-, 2,5-dioxo-1-pyrrolidinyl ester", "1H-Pyrrole-2,5-dione, 1-[3-[(2,5-dioxo-1-pyrrolidinyl)oxy]-3-oxopropyl]-", "3-Maleimidopropionic acid hydroxysuccinimide ester", "N-Succinimidyl 3-(N-maleimido)propionate", "N-Succinimidyl 3-maleimidopropionate", "\u03b2-Maleimidopropionic acid N-hydroxysuccinimide ester", "3-Maleimidopropionic acid N-hydroxysuccinimide ester", "BMPS", "BMPS (crosslinking agent)", "3-(2,5-Dioxo-2,5-dihydropyrrol-1-yl)propionic acid 2,5-dioxopyrrolidiny-1-yl ester", "Succinimidyl 3-maleimidopropanoate", "3-Maleimidopropionic acid N-succinimidyl ester", "Succinimidyl 3-maleimidopropionate", "2,5-Dioxopyrrolidin-1-yl 3-(2,5-dioxo-2,5-dihydro-lH-pyrrol-1-yl)propanoate", "(2,5-Dioxopyrrolidin-1-yl) 3-(2,5-dioxopyrrol-1-yl)propanoate", "2,5-Dioxopyrrolidin-1-yl 3-(2,5-dioxo-2,5-dihydro-1H-pyrrol-1-yl)propanoate", "N-(3-Maleimidopropanoyloxy)succinimide"], "SMILES": "O(C(CCN1C(=O)C=CC1=O)=O)N2C(=O)CCC2=O", "physical_data": {"Molecular Weight": "266.21", "Molecular Formula": "C11H10N2O6", "Melting Point": "158-161 \u00b0C"}}