{"cas_no": "55755-16-3", "cn_name": "2-\u7532\u57fa\u82ef\u4e59\u80fa", "en_name": ["2-Methylphenethylamine", "Benzeneethanamine, 2-methyl-", "2-Methylbenzeneethanamine", "2-Methylphenethylamine", "2-(2-Methylphenyl)ethylamine", "2-Methylphenylethylamine", "(2-o-Tolylethyl)amine", "2-(2-Methylphenyl)ethanamine", "2-(o-Tolyl)ethanamine", "2-(2-Methylphenyl)ethan-1-amine"], "SMILES": "C(CN)C1=C(C)C=CC=C1", "physical_data": {"Molecular Weight": "135.21", "Molecular Formula": "C9H13N", "Boiling Point": "227 \u00b0C @ Press: 758 Torr"}}