{"cas_no": "55750-48-6", "cn_name": "N-\u7532\u6c27\u57fa\u7fb0\u57fa\u987a\u4e01\u70ef\u4e8c\u9170\u4e9a\u80fa", "en_name": ["N-(Methoxycarbonyl)maleimide", "1H-Pyrrole-1-carboxylic acid, 2,5-dihydro-2,5-dioxo-, methyl ester", "N-(Methoxycarbonyl)maleimide", "N-(Carbomethoxy)maleimide", "2,5-Dihydro-2,5-dioxopyrrole-1-carboxylic acid methyl ester"], "SMILES": "C(OC)(=O)N1C(=O)C=CC1=O", "physical_data": {"Molecular Weight": "155.11", "Molecular Formula": "C6H5NO4", "Melting Point": "60-61 \u00b0C"}}