{"cas_no": "55750-53-3", "cn_name": "6-\u9a6c\u6765\u9170\u4e9a\u80fa\u57fa\u5df1\u9178", "en_name": ["6-Maleimidocaproic acid", "1H-Pyrrole-1-hexanoic acid, 2,5-dihydro-2,5-dioxo-", "2,5-Dihydro-2,5-dioxo-1H-pyrrole-1-hexanoic acid", "N-(5-Carboxypentyl)maleimide", "6-Maleimidohexanoic acid", "6-Maleimidocaproic acid", "\u03b5-Maleimidocaproic acid", "N-(5-Carboxy-n-pentyl)maleimide", "6-Maleimidocapronic acid", "\u03b5-Maleimidohexanoic acid", "6-(2,5-Dioxo-2,5-dihydro-1H-pyrrol-1-yl)hexanoic acid", "Epsilon-maleimidocaproic acid"], "SMILES": "C(CCCCC(O)=O)N1C(=O)C=CC1=O", "physical_data": {"Molecular Weight": "211.21", "Molecular Formula": "C10H13NO4", "Melting Point": "78 \u00b0C"}}