{"cas_no": "55779-18-5", "cn_name": "\u5c14\u6251\u5229\u8bfa", "en_name": ["Arprinocid", "9H-Purin-6-amine, 9-[(2-chloro-6-fluorophenyl)methyl]-", "9-[(2-Chloro-6-fluorophenyl)methyl]-9H-purin-6-amine", "6-Amino-9-(2-chloro-6-fluorobenzyl)purine", "Arprinocid", "MK 302", "Arpocox"], "SMILES": "C(N1C=2C(N=C1)=C(N)N=CN2)C3=C(Cl)C=CC=C3F", "physical_data": {"Molecular Weight": "277.68", "Molecular Formula": "C12H9ClFN5", "Melting Point": "245-246 \u00b0C", "Density": "1.568 g/cm\u00b3"}}