{"cas_no": "5577-13-9", "cn_name": "N-(4-\u7532\u57fa\u82ef\u57fa)\u78fa\u9170\u6c28\u57fa\u7532\u9178\u4e59\u916f", "en_name": ["Ethyl N-[(4-methylphenyl)sulfonyl]carbamate", "Carbamic acid, N-[(4-methylphenyl)sulfonyl]-, ethyl ester", "Carbamic acid, (p-tolylsulfonyl)-, ethyl ester", "Carbamic acid, [(4-methylphenyl)sulfonyl]-, ethyl ester", "Ethyl N-[(4-methylphenyl)sulfonyl]carbamate", "Ethyl p-tosylcarbamate", "Ethyl (p-toluenesulfonyl)carbamate", "Ethyl (p-tolylsulfonyl)carbamate", "Tosylurethane", "Ethyl N-(4-methylbenzenesulfonyl)carbamate", "N-Tosylurethane", "Ethyl N-tosylcarbamate", "Ethyl tosylcarbamate"], "SMILES": "S(NC(OCC)=O)(=O)(=O)C1=CC=C(C)C=C1", "physical_data": {"Molecular Weight": "243.28", "Molecular Formula": "C10H13NO4S", "Melting Point": "87-88 \u00b0C"}}