{"cas_no": "5577-67-3", "cn_name": "N-\u53d4\u4e01\u57fa\u4e09\u7532\u57fa\u7532\u7845\u70f7\u80fa", "en_name": ["N-(1,1-Dimethylethyl)-1,1,1-trimethylsilanamine", "Silanamine, N-(1,1-dimethylethyl)-1,1,1-trimethyl-", "Silylamine, N-tert-butyl-1,1,1-trimethyl-", "Ethylamine, 1,1-dimethyl-N-(trimethylsilyl)-", "N-(1,1-Dimethylethyl)-1,1,1-trimethylsilanamine", "tert-Butyl(trimethylsilyl)amine", "Trimethylsilyl-tert-butylamine", "(tert-Butylamino)trimethylsilane", "N-(Trimethylsilyl)-tert-butylamine", "N-tert-Butyl(trimethylsilyl)amine", "tert-Butylimidotrimethylsilane"], "SMILES": "N(C(C)(C)C)[Si](C)(C)C", "physical_data": {"Molecular Weight": "145.32", "Molecular Formula": "C7H19NSi", "Boiling Point": "56-58 \u00b0C @ Press: 12 Torr"}}