{"cas_no": "5577-72-0", "cn_name": "\u7532\u57fa\u4e19\u70ef\u9170\u6c27\u57fa\u7532\u57fa\u4e09\u4e59\u6c27\u57fa\u7845\u70f7", "en_name": ["Methacryloyloxymethyltriethoxysilane", "2-Propenoic acid, 2-methyl-, (triethoxysilyl)methyl ester", "Methacrylic acid, (triethoxysilyl)methyl ester", "Methanol, (triethoxysilyl)-, methacrylate", "(Triethoxysilyl)methyl methacrylate", "Methacryloyloxymethyltriethoxysilane", "NS (coupling agent)", "NS", "Triethoxy(methacryloyloxymethyl)silane", "Geniosil XL 36", "Methacryloyloxymethylene triethoxysilane", "Methacryloyloxymethyltriethoysilane", "SIM 6483.0", "SIM 6482.0"], "SMILES": "[Si](COC(C(C)=C)=O)(OCC)(OCC)OCC", "physical_data": {"Molecular Weight": "262.37", "Molecular Formula": "C11H22O5Si", "Boiling Point": "65-68 \u00b0C @ Press: 2 Torr", "Density": "1 g/cm\u00b3"}}