{"cas_no": "55776-17-5", "cn_name": "2,6-\u4e8c\u7532\u6c27\u57fa-3-\u785d\u57fa\u82ef\u7532\u9178", "en_name": ["2,6-Dimethoxy-3-nitrobenzoic acid", "Benzoic acid, 2,6-dimethoxy-3-nitro-", "2,6-Dimethoxy-3-nitrobenzoic acid"], "SMILES": "O(C)C1=C(C(O)=O)C(OC)=CC=C1N(=O)=O", "physical_data": {"Molecular Weight": "227.17", "Molecular Formula": "C9H9NO6", "Melting Point": "132 \u00b0C"}}