{"cas_no": "55779-48-1", "cn_name": "\u8154\u80a0\u7d20", "en_name": ["Coelenterazine", "Imidazo[1,2-a]pyrazin-3(7H)-one, 6-(4-hydroxyphenyl)-2-[(4-hydroxyphenyl)methyl]-8-(phenylmethyl)-", "6-(4-Hydroxyphenyl)-2-[(4-hydroxyphenyl)methyl]-8-(phenylmethyl)imidazo[1,2-a]pyrazin-3(7H)-one", "Coelenterazine", "Preluciferin", "Preluciferin (Watasenia)", "Luciferin (Oplophorus)", "Luciferin", "Coelenterazin", "NanoFuel", "Watasenia preluciferin", "Coelenterazine ntv", "Native coelenterazine", "Coelenterazine luciferin", "2-(4-Hydroxyphenylmethyl)-6-(4-hydroxyphenyl)-8-(phenylmethyl)imidazo[1,2-a]pyrazin-3(7H)-one", "Native CTZ", "NCTZ", "Luciferin (Oplophorus)"], "SMILES": "C(C1=C2N(C=C(N1)C3=CC=C(O)C=C3)C(=O)C(CC4=CC=C(O)C=C4)=N2)C5=CC=CC=C5", "physical_data": {"Molecular Weight": "423.46", "Molecular Formula": "C26H21N3O3", "Melting Point": "176-181 \u00b0C (decomp)"}}