{"cas_no": "55780-90-0", "cn_name": "N-\u53d4\u4e01\u6c27\u7fb0\u57fa-D-\u522b\u5f02\u4eae\u6c28\u9178", "en_name": ["N-[(1,1-Dimethylethoxy)carbonyl]-D-alloisoleucine", "D-Alloisoleucine, N-[(1,1-dimethylethoxy)carbonyl]-", "N-[(1,1-Dimethylethoxy)carbonyl]-D-alloisoleucine", "N-tert-Butoxycarbonyl-D-alloisoleucine"], "SMILES": "C(C(CC)C)(NC(OC(C)(C)C)=O)C(O)=O", "physical_data": {"Molecular Weight": "231.29", "Molecular Formula": "C11H21NO4", "Melting Point": "66-67 \u00b0C"}}