{"cas_no": "5578-42-7", "cn_name": "\u7532\u57fa\u4e8c\u6c2f\u73af\u5df1\u57fa\u7845\u70f7", "en_name": ["(Dichloromethylsilyl)cyclohexane", "Cyclohexane, (dichloromethylsilyl)-", "Silane, dichlorocyclohexylmethyl-", "(Dichloromethylsilyl)cyclohexane", "Methylcyclohexyldichlorosilane", "Cyclohexylmethyldichlorosilane", "Dichloro(cyclohexyl)(methyl)silane"], "SMILES": "[Si](C)(Cl)(Cl)C1CCCCC1", "physical_data": {"Molecular Weight": "197.18", "Molecular Formula": "C7H14Cl2Si", "Boiling Point": "83 \u00b0C @ Press: 15 Torr", "Density": "1.095 g/cm\u00b3"}}