{"cas_no": "5578-73-4", "cn_name": "\u8840\u6839\u78b1", "en_name": ["Sanguinarine hydrochloride", "[1,3]Benzodioxolo[5,6-c]-1,3-dioxolo[4,5-i]phenanthridinium, 13-methyl-, chloride (1:1)", "Sanguinarine, chloride", "[1,3]Benzodioxolo[5,6-c]-1,3-dioxolo[4,5-i]phenanthridinium, 13-methyl-, chloride", "Sanguinarine hydrochloride", "13-Methyl[1,3]benzodioxolo[5,6-c]-1,3-dioxolo[4,5-i]phenanthridinium chloride", "Sanguinarium chloride"], "SMILES": "C[N+]=1C2=C(C=3C(C1)=C4C(=CC3)OCO4)C=CC=5C2=CC6=C(C5)OCO6.[Cl-]", "physical_data": {"Molecular Weight": "", "Molecular Formula": "C20H14NO4.Cl", "Melting Point": "287-289 \u00b0C"}}