{"cas_no": "5579-66-8", "cn_name": "\u5341\u7518\u9187", "en_name": ["Decaethylene glycol", "3,6,9,12,15,18,21,24,27-Nonaoxanonacosane-1,29-diol", "Decaethylene glycol", "2-[2-[2-[2-[2-[2-[2-[2-[2-(2-Hydroxyethoxy)ethoxy]ethoxy]ethoxy]ethoxy]ethoxy]ethoxy]ethoxy]ethoxy]ethanol"], "SMILES": "O(CCOCCOCCOCCOCCO)CCOCCOCCOCCOCCO", "physical_data": {"Molecular Weight": "458.54", "Molecular Formula": "C20H42O11", "Melting Point": "25.8-28.3 \u00b0C"}}