{"cas_no": "5579-81-7", "cn_name": "\u5c3f\u56ca\u7d20\u94dd", "en_name": ["Dihydroxyaluminum allantoinate", "Aluminum, [N-(2,5-dioxo-4-imidazolidinyl)ureato]dihydroxy-", "Aluminum, [(2,5-dioxo-4-imidazolidinyl)ureato]dihydroxy-", "Aluminum, (allantoinato)dihydroxy-", "Aluminum, dihydroxy(allantoinato)-", "Urea, (2,5-dioxo-4-imidazolidinyl)-, aluminum complex", "RC 172", "ALDA", "Aluminum dihydroxy allantoinate", "Dihydroxy[(2-hydroxy-5-oxo-2-imidazolin-4-yl)ureato]aluminum", "Dihydroxy[(2-hydroxy-5-oxo-2-imidazolin-4-yl)ureido]aluminum", "Aldioxa", "Dihydroxyaluminum allantoinate", "Ascomp", "Isalon", "Isalon (cytoprotective agent)", "Alanetorin", "Nische", "Alusa", "Arlanto", "Peptilate", "Chlokale"], "SMILES": "", "physical_data": {"Molecular Weight": "", "Molecular Formula": "C4H7AlN4O5", "Melting Point": "230 \u00b0C"}}