{"cas_no": "5579-84-0", "cn_name": "\u76d0\u9178\u500d\u4ed6\u53f8\u6c40", "en_name": ["Betahistine dihydrochloride", "2-Pyridineethanamine, N-methyl-, hydrochloride (1:2)", "Pyridine, 2-[2-(methylamino)ethyl]-, dihydrochloride", "2-Pyridineethanamine, N-methyl-, dihydrochloride", "PT 9", "Betahistine hydrochloride", "2-[2-(Methylamino)ethyl]pyridine dihydrochloride", "Serc", "Betahistine dihydrochloride", "Sinmenier", "Betaserc", "Vasomotal"], "SMILES": "C(CNC)C1=CC=CC=N1.Cl", "physical_data": {"Molecular Weight": "", "Molecular Formula": "C8H12N2.2ClH", "Melting Point": "148-149 \u00b0C"}}