{"cas_no": "558-43-0", "cn_name": "2-\u7532\u57fa-1,2-\u4e19\u4e8c\u9187", "en_name": ["2-Methyl-1,2-propanediol", "1,2-Propanediol, 2-methyl-", "2-Methyl-1,2-propanediol", "Isobutylene glycol", "Isobutene glycol", "2-Hydroxy-2-methylpropanol", "1,2-Dihydroxyisobutane", "2-Methyl-2-hydroxypropanol", "1,2-Dihydroxy-2-methylpropane", "1,1-Dimethyl-1,2-ethanediol", "2-Methyl-2-hydroxy-1-propanol", "2-Hydroxy-2-methyl-1-propyl alcohol", "2-Methyl-2-hydroxy-1-propyl alcohol", "1,1-Dimethylethylene glycol"], "SMILES": "C(CO)(C)(C)O", "physical_data": {"Molecular Weight": "90.12", "Molecular Formula": "C4H10O2", "Boiling Point": "176 \u00b0C", "Density": "0.997 g/cm\u00b3 @ Temp: 20 \u00b0C"}}