{"cas_no": "558-25-8", "cn_name": "\u7532\u57fa\u78fa\u9170\u6c2f", "en_name": ["Methanesulfonyl fluoride", "Methanesulfonyl fluoride", "Fumette", "MSF", "Fluoro methyl sulfone", "Mesyl fluoride", "Methylsulfonyl fluoride"], "SMILES": "S(C)(F)(=O)=O", "physical_data": {"Molecular Weight": "98.10", "Molecular Formula": "CH3FO2S", "Boiling Point": "123-124 \u00b0C", "Density": "1.3470 g/cm\u00b3 @ Temp: 20 \u00b0C"}}