{"cas_no": "558-42-9", "cn_name": "1-\u6c2f-2-\u7532\u57fa-2-\u4e19\u9187", "en_name": ["1-Chloro-2-methyl-2-propanol", "2-Propanol, 1-chloro-2-methyl-", "1-Chloro-2-methyl-2-propanol", "Isobutylene chlorohydrin", "Chloro-tert-butyl alcohol", "1,1-Dimethyl-2-chloroethyl alcohol", "2-Chloro-1,1-dimethylethanol", "NSC 46574"], "SMILES": "C(CCl)(C)(C)O", "physical_data": {"Molecular Weight": "108.57", "Molecular Formula": "C4H9ClO", "Boiling Point": "128.5 \u00b0C", "Melting Point": "-20 \u00b0C", "Density": "1.087 g/cm\u00b3 @ Temp: 0 \u00b0C"}}