{"cas_no": "558-37-2", "cn_name": "3,3-\u4e8c\u7532\u57fa-1-\u4e01\u70ef", "en_name": ["3,3-Dimethyl-1-butene", "1-Butene, 3,3-dimethyl-", "3,3-Dimethyl-1-butene", "3,3-Dimethylbutene", "Neohexene", "tert-Butylethylene", "tert-Hexene", "Trimethylvinylmethane", "2,2-Dimethyl-3-butene", "tert-Butylethene", "NSC 74119"], "SMILES": "C(C=C)(C)(C)C", "physical_data": {"Molecular Weight": "84.16", "Molecular Formula": "C6H12", "Boiling Point": "41.2 \u00b0C", "Melting Point": "-115.2 \u00b0C", "Density": "0.6549 g/cm\u00b3 @ Temp: 18 \u00b0C"}}