{"cas_no": "558-89-4", "cn_name": "1-CHLORONONAFLUOROBUTANE", "en_name": ["1-Chloro-1,1,2,2,3,3,4,4,4-nonafluorobutane", "Butane, 1-chloro-1,1,2,2,3,3,4,4,4-nonafluoro-", "Butane, 1-chlorononafluoro-", "1-Chloro-1,1,2,2,3,3,4,4,4-nonafluorobutane", "Perfluorobutyl chloride", "1-Chlorononafluorobutane"], "SMILES": "C(C(C(F)(F)F)(F)F)(C(Cl)(F)F)(F)F", "physical_data": {"Molecular Weight": "254.48", "Molecular Formula": "C4ClF9", "Boiling Point": "30 \u00b0C"}}