{"cas_no": "558-13-4", "cn_name": "\u56db\u6eb4\u5316\u78b3", "en_name": ["Carbon tetrabromide", "Methane, tetrabromo-", "Carbon tetrabromide", "Tetrabromomethane", "Carbon bromide (CBr4)", "Methane tetrabromide", "NSC 6179"], "SMILES": "C(Br)(Br)(Br)Br", "physical_data": {"Molecular Weight": "331.63", "Molecular Formula": "CBr4", "Boiling Point": "189.5 \u00b0C", "Melting Point": "90.1 \u00b0C", "Density": "2.9608 g/cm\u00b3 @ Temp: 100 \u00b0C"}}