{"cas_no": "558-30-5", "cn_name": "\u7532\u57fa\u73af\u6c27\u4e19\u70f7", "en_name": ["Isobutylene oxide", "Oxirane, 2,2-dimethyl-", "Propane, 1,2-epoxy-2-methyl-", "Ethylene oxide, \u03b1,\u03b1-dimethyl-", "2,2-Dimethyloxirane", "Isobutylene oxide", "Isobutylene epoxide", "1,1-Dimethylethylene oxide", "2-Methyl-1-propene oxide", "2-Methyl-1,2-epoxypropane", "Isobutene oxide", "1,2-Isobutylene oxide", "1,2-Epoxy-2-methylpropane", "1,2-Epoxyisobutane", "2-Methylpropylene oxide", "NSC 24249", "2-Methyl-1-propenoxide", "2-Methyl-2,3-epoxypropane"], "SMILES": "CC1(C)CO1", "physical_data": {"Molecular Weight": "72.11", "Molecular Formula": "C4H8O", "Boiling Point": "52 \u00b0C", "Density": "0.8153 g/cm\u00b3 @ Temp: 15 \u00b0C"}}