{"cas_no": "558-96-3", "cn_name": "1-\u6eb4\u5168\u6c1f\u58ec\u70f7", "en_name": ["1-Bromo-1,1,2,2,3,3,4,4,5,5,6,6,7,7,8,8,9,9,9-nonadecafluorononane", "Nonane, 1-bromo-1,1,2,2,3,3,4,4,5,5,6,6,7,7,8,8,9,9,9-nonadecafluoro-", "Nonane, 1-bromononadecafluoro-", "1-Bromo-1,1,2,2,3,3,4,4,5,5,6,6,7,7,8,8,9,9,9-nonadecafluorononane", "Perfluorononyl bromide", "1-Bromoperfluorononane"], "SMILES": "C(C(C(C(C(Br)(F)F)(F)F)(F)F)(F)F)(C(C(C(C(F)(F)F)(F)F)(F)F)(F)F)(F)F", "physical_data": {"Molecular Weight": "548.97", "Molecular Formula": "C9BrF19", "Boiling Point": "159 \u00b0C"}}