{"cas_no": "558-17-8", "cn_name": "\u7898\u4ee3\u53d4\u4e01\u70f7", "en_name": ["2-Iodo-2-methylpropane", "Propane, 2-iodo-2-methyl-", "2-Iodo-2-methylpropane", "tert-Butyl iodide", "Trimethyliodomethane", "2-Methyl-2-iodopropane", "t-Butyl iodide", "1,1-Dimethylethyl iodide"], "SMILES": "C(C)(C)(C)I", "physical_data": {"Molecular Weight": "184.02", "Molecular Formula": "C4H9I", "Boiling Point": "100.1 \u00b0C", "Melting Point": "-38.2 \u00b0C", "Density": "1.5445 g/cm\u00b3 @ Temp: 20 \u00b0C"}}