{"cas_no": "558-32-7", "cn_name": "\u516d\u6c1f\u78f7\u9178\u56db\u7532\u57fa\u94f5", "en_name": ["Tetramethylammonium hexafluorophosphate", "Methanaminium, N,N,N-trimethyl-, hexafluorophosphate(1-) (1:1)", "Ammonium, tetramethyl-, hexafluorophosphate(1-)", "Tetramethylammonium hexafluorophosphate", "Methanaminium, N,N,N-trimethyl-, hexafluorophosphate(1-)", "Phosphate(1-), hexafluoro-, tetramethylammonium", "Phosphate(1-), hexafluoro-, N,N,N-trimethylmethanaminium", "Tetramethylammonium hexafluorophosphate(1-)", "NSC 221175", "[Me4N][PF6]"], "SMILES": "[N+](C)(C)(C)C.[P+5]([F-])([F-])([F-])([F-])([F-])[F-]", "physical_data": {"Molecular Weight": "", "Molecular Formula": "C4H12N.F6P", "Melting Point": "&gt;250 \u00b0C"}}