{"cas_no": "5580-83-6", "cn_name": "2-\u6eb4-3,4,5,6-\u56db\u6c1f\u785d\u57fa\u82ef", "en_name": ["1-Bromo-2,3,4,5-tetrafluoro-6-nitrobenzene", "Benzene, 1-bromo-2,3,4,5-tetrafluoro-6-nitro-", "1-Bromo-2,3,4,5-tetrafluoro-6-nitrobenzene", "Bromo-2,3,4,5-tetrafluoronitrobenzene"], "SMILES": "N(=O)(=O)C1=C(Br)C(F)=C(F)C(F)=C1F", "physical_data": {"Molecular Weight": "273.97", "Molecular Formula": "C6BrF4NO2", "Boiling Point": "94 \u00b0C @ Press: 20 Torr"}}