{"cas_no": "5580-34-7", "cn_name": "2,3-\u4e8c\u7532\u57fa\u82ef\u7532\u9170\u80fa", "en_name": ["2,3-Dimethylbenzamide", "Benzamide, 2,3-dimethyl-", "2,3-Dimethylbenzamide", "Hemellitamide"], "SMILES": "C(N)(=O)C1=C(C)C(C)=CC=C1", "physical_data": {"Molecular Weight": "149.19", "Molecular Formula": "C9H11NO", "Melting Point": "156 \u00b0C"}}