{"cas_no": "55804-66-5", "cn_name": "\u9999\u8c46\u7d20 314", "en_name": ["Coumarin 314", "1H,5H,11H-[1]Benzopyrano[6,7,8-ij]quinolizine-10-carboxylic acid, 2,3,6,7-tetrahydro-11-oxo-, ethyl ester", "Coumarin 314", "Coumarin 504", "C 314", "NSC 338967"], "SMILES": "O=C1OC2=C3C4=C(C=C2C=C1C(OCC)=O)CCCN4CCC3", "physical_data": {"Molecular Weight": "313.35", "Molecular Formula": "C18H19NO4", "Melting Point": "139-141 \u00b0C"}}