{"cas_no": "5580-79-0", "cn_name": "2,3,4,5-\u56db\u6c1f\u785d\u57fa\u82ef", "en_name": ["1,2,3,4-Tetrafluoro-5-nitrobenzene", "Benzene, 1,2,3,4-tetrafluoro-5-nitro-", "1,2,3,4-Tetrafluoro-5-nitrobenzene", "2,3,4,5-Tetrafluoronitrobenzene", "2,3,4,5-Tetrafluoro-1-nitrobenzene", "5-Nitro-1,2,3,4-tetrafluorobenzene", "NSC 96618"], "SMILES": "N(=O)(=O)C1=C(F)C(F)=C(F)C(F)=C1", "physical_data": {"Molecular Weight": "195.07", "Molecular Formula": "C6HF4NO2", "Boiling Point": "74 \u00b0C @ Press: 19 Torr"}}