{"cas_no": "55804-67-6", "cn_name": "\u9999\u8c46\u7d20 334", "en_name": ["Coumarin 334", "1H,5H,11H-[1]Benzopyrano[6,7,8-ij]quinolizin-11-one, 10-acetyl-2,3,6,7-tetrahydro-", "10-Acetyl-2,3,6,7-tetrahydro-1H,5H,11H-[1]benzopyrano[6,7,8-ij]quinolizin-11-one", "Coumarin 334", "Coumarin 521", "C 334", "NSC 369287", "CM 334", "10-Acetyl-2,3,6,7-tetrahydro-1H,5H,11H-1-benzopyrano[6,7,8-ij]quinolizin-11-one", "10-Acetyl-2,3,6,7-tetrahydro-1H-pyrano[2,3-f]pyrido[3,2,1-ij]quinolin-11(5H)-one", "10-Acetyl-2,3,6,7-tetrahydro-1H,5H,11H-pyrano[2,3-f]pyrido[3,2,1-ij]quinolin-11-one"], "SMILES": "O=C1OC2=C3C4=C(C=C2C=C1C(C)=O)CCCN4CCC3", "physical_data": {"Molecular Weight": "283.32", "Molecular Formula": "C17H17NO3", "Melting Point": "181-182 \u00b0C"}}