{"cas_no": "5580-33-6", "cn_name": "3,4-\u4e8c\u7532\u57fa\u82ef\u7532\u9170\u80fa", "en_name": ["3,4-Dimethylbenzamide", "Benzamide, 3,4-dimethyl-", "3,4-Dimethylbenzamide"], "SMILES": "C(N)(=O)C1=CC(C)=C(C)C=C1", "physical_data": {"Molecular Weight": "149.19", "Molecular Formula": "C9H11NO", "Melting Point": "101-103 \u00b0C"}}