{"cas_no": "5581-52-2", "cn_name": "\u785d\u54aa\u786b\u9e1f\u560c\u5464", "en_name": ["Thiamiprine", "9H-Purin-2-amine, 6-[(1-methyl-4-nitro-1H-imidazol-5-yl)thio]-", "Purine, 2-amino-6-[(1-methyl-4-nitroimidazol-5-yl)thio]-", "1H-Purin-2-amine, 6-[(1-methyl-4-nitro-1H-imidazol-5-yl)thio]-", "6-[(1-Methyl-4-nitro-1H-imidazol-5-yl)thio]-9H-purin-2-amine", "BW 57-323", "2-Amino-6-[(1-methyl-4-nitroimidazol-5-yl)thio]purine", "Guaneran", "ITG", "Thiamiprine", "Tiamiprine", "Aminoazathioprin", "NSC 38887", "Tiamiprin"], "SMILES": "S(C1=C2C(=NC(N)=N1)N=CN2)C3=C(N(=O)=O)N=CN3C", "physical_data": {"Molecular Weight": "292.28", "Molecular Formula": "C9H8N8O2S", "Melting Point": "&gt;200 \u00b0C (decomp)"}}