{"cas_no": "5581-32-8", "cn_name": "\u53cc\u915aF(2,3-\u4e8c\u7f9f\u57fa\u4e19\u919a)BFDGE-2H2O", "en_name": ["Bisphenol A bis(2,3-dihydroxypropyl) ether", "1,2-Propanediol, 3,3\u2032-[(1-methylethylidene)bis(4,1-phenyleneoxy)]bis-", "1,2-Propanediol, 3,3\u2032-[isopropylidenebis(p-phenyleneoxy)]di-", "3,3\u2032-[(1-Methylethylidene)bis(4,1-phenyleneoxy)]bis[1,2-propanediol]", "Bisphenol A bis(2,3-dihydroxypropyl) ether", "BADGETOL", "BADGE.2H2O", "2,2-Bis[4-(2,3-dihydroxypropoxy)phenyl]propane"], "SMILES": "C(C)(C)(C1=CC=C(OCC(CO)O)C=C1)C2=CC=C(OCC(CO)O)C=C2", "physical_data": {"Molecular Weight": "376.44", "Molecular Formula": "C21H28O6", "Melting Point": "89-90 \u00b0C"}}