{"cas_no": "5581-67-9", "cn_name": "\u7532\u57fa\u4e09\u5f02\u4e19\u6c27\u57fa\u7845\u70f7", "en_name": ["Methyltris(1-methylethoxy)silane", "Silane, methyltris(1-methylethoxy)-", "Silane, triisopropoxymethyl-", "Methyltris(1-methylethoxy)silane", "Triisopropoxymethyl silane", "Methyltriisopropoxysilane"], "SMILES": "[Si](OC(C)C)(OC(C)C)(OC(C)C)C", "physical_data": {"Molecular Weight": "220.38", "Molecular Formula": "C10H24O3Si", "Boiling Point": "161-162 \u00b0C"}}