{"cas_no": "5581-66-8", "cn_name": "\u7532\u57fa\u4e09\u4e19\u6c27\u57fa\u7845\u70f7", "en_name": ["Methyltripropoxysilane", "Silane, methyltripropoxy-", "Methyltripropoxysilane", "LS 3630"], "SMILES": "[Si](OCCC)(OCCC)(OCCC)C", "physical_data": {"Molecular Weight": "220.38", "Molecular Formula": "C10H24O3Si", "Boiling Point": "82-83 \u00b0C @ Press: 15 Torr", "Density": "0.8831 g/cm\u00b3 @ Temp: 20 \u00b0C"}}