{"cas_no": "55814-41-0", "cn_name": "\u706d\u9508\u80fa", "en_name": ["3\u2032-Isopropoxy-2-methylbenzanilide", "Benzamide, 2-methyl-N-[3-(1-methylethoxy)phenyl]-", "2-Methyl-N-[3-(1-methylethoxy)phenyl]benzamide", "3\u2032-Isopropoxy-2-methylbenzanilide", "3\u2032-Isopropoxy-o-toluanilide", "2-Methyl-3\u2032-isopropoxybenzanilide", "Mepronil", "Mepronil (pesticide)", "Basitac"], "SMILES": "N(C(=O)C1=C(C)C=CC=C1)C2=CC(OC(C)C)=CC=C2", "physical_data": {"Molecular Weight": "269.34", "Molecular Formula": "C17H19NO2", "Melting Point": "92.5 \u00b0C"}}