{"cas_no": "5582-62-7", "cn_name": "\u4e19\u7094\u6c27\u57fa\u4e09\u7532\u57fa\u7845\u70f7", "en_name": ["Trimethyl(2-propyn-1-yloxy)silane", "Silane, trimethyl(2-propyn-1-yloxy)-", "Silane, trimethyl(2-propynyloxy)-", "Trimethyl(2-propyn-1-yloxy)silane", "Propargyl trimethylsilyl ether", "1-(Trimethylsiloxy)-2-propyne", "Trimethyl(propargyloxy)silane", "3-(Trimethylsilyloxy)propyne", "Trimethyl(2-propynyloxy)silane", "3-(Trimethylsiloxy)-1-propyne", "O-(Trimethylsilyl)propargyl alcohol", "Propargyloxytrimethylsilane", "(2-Propynyloxy)trimethylsilane", "3-(Trimethylsilyloxy)-1-propyne"], "SMILES": "O([Si](C)(C)C)CC#C", "physical_data": {"Molecular Weight": "128.24", "Molecular Formula": "C6H12OSi", "Boiling Point": "110-111 \u00b0C", "Density": "0.833 g/cm\u00b3"}}