{"cas_no": "55836-71-0", "cn_name": "4-\u4e59\u6c27\u57fa\u82ef\u7532\u9170\u80fa", "en_name": ["4-Ethoxybenzamide", "Benzamide, 4-ethoxy-", "Benzamide, p-ethoxy-", "4-Ethoxybenzamide"], "SMILES": "C(N)(=O)C1=CC=C(OCC)C=C1", "physical_data": {"Molecular Weight": "165.19", "Molecular Formula": "C9H11NO2", "Melting Point": "208-210 \u00b0C"}}