{"cas_no": "55837-27-9", "cn_name": "\u5421\u54af\u4ed6\u5c3c", "en_name": ["Piretanide", "Benzoic acid, 3-(aminosulfonyl)-4-phenoxy-5-(1-pyrrolidinyl)-", "3-(Aminosulfonyl)-4-phenoxy-5-(1-pyrrolidinyl)benzoic acid", "Piretanide", "HOE 118", "Arelix", "S 73-4118", "Diumax", "Tauliz", "Eurelix", "Arlix"], "SMILES": "O(C1=C(C=C(C(O)=O)C=C1S(N)(=O)=O)N2CCCC2)C3=CC=CC=C3", "physical_data": {"Molecular Weight": "362.40", "Molecular Formula": "C17H18N2O5S", "Melting Point": "225-227 \u00b0C"}}