{"cas_no": "55837-18-8", "cn_name": "\u5e03\u66ff\u5e03\u82ac", "en_name": ["Butibufen", "Benzeneacetic acid, \u03b1-ethyl-4-(2-methylpropyl)-", "\u03b1-Ethyl-4-(2-methylpropyl)benzeneacetic acid", "Butibufen", "2-(4-Isobutylphenyl)butyric acid", "DF 1903Y", "2-[4-(2-Methylpropyl)phenyl]butanoic acid"], "SMILES": "C(C(O)=O)(CC)C1=CC=C(CC(C)C)C=C1", "physical_data": {"Molecular Weight": "220.31", "Molecular Formula": "C14H20O2", "Melting Point": "52 \u00b0C"}}