{"cas_no": "55837-20-2", "cn_name": "\u5e38\u5c71\u916e", "en_name": ["Halofuginone", "4(3H)-Quinazolinone, 7-bromo-6-chloro-3-[3-[(2R,3S)-3-hydroxy-2-piperidinyl]-2-oxopropyl]-, rel-", "4(3H)-Quinazolinone, 7-bromo-6-chloro-3-[3-(3-hydroxy-2-piperidinyl)-2-oxopropyl]-, trans-(\u00b1)-", "rel-7-Bromo-6-chloro-3-[3-[(2R,3S)-3-hydroxy-2-piperidinyl]-2-oxopropyl]-4(3H)-quinazolinone", "Halofuginone", "4(3H)-Quinazolinone, 7-bromo-6-chloro-3-[3-(3-hydroxy-2-piperidinyl)-2-oxopropyl]-, trans-", "Tempostatin", "Kriptazen"], "SMILES": "O=C1C=2C(N=CN1CC(CC3C(O)CCCN3)=O)=CC(Br)=C(Cl)C2", "physical_data": {"Molecular Weight": "414.68", "Molecular Formula": "C16H17BrClN3O3", "Melting Point": "192-195 \u00b0C"}}