{"cas_no": "55849-30-4", "cn_name": "5-\u6eb4-2-\u4e59\u6c27\u57fa\u5421\u5576", "en_name": ["5-Bromo-2-ethoxypyridine", "Pyridine, 5-bromo-2-ethoxy-", "5-Bromo-2-ethoxypyridine", "3-Bromo-6-ethoxypyridine", "6-Ethoxypyridin-3-yl bromide"], "SMILES": "O(CC)C1=CC=C(Br)C=N1", "physical_data": {"Molecular Weight": "202.05", "Molecular Formula": "C7H8BrNO", "Melting Point": "25 \u00b0C"}}