{"cas_no": "55854-46-1", "cn_name": "5-\u6eb4\u567b\u5429-2-\u78fa\u9170\u6c2f", "en_name": ["5-Bromo-2-thiophenesulfonyl chloride", "2-Thiophenesulfonyl chloride, 5-bromo-", "5-Bromo-2-thiophenesulfonyl chloride"], "SMILES": "S(Cl)(=O)(=O)C=1SC(Br)=CC1", "physical_data": {"Molecular Weight": "261.54", "Molecular Formula": "C4H2BrClO2S2", "Boiling Point": "105-110 \u00b0C @ Press: 4 Torr"}}