{"cas_no": "55860-22-5", "cn_name": "2-\u6c2f-N-(2-\u7532\u6c27\u82ef\u57fa)\u4e59\u9170\u80fa", "en_name": ["2-Chloro-N-(2-methoxyphenyl)acetamide", "Acetamide, 2-chloro-N-(2-methoxyphenyl)-", "o-Acetanisidide, 2-chloro-", "2-Chloro-N-(2-methoxyphenyl)acetamide", "2-Chloro-o-acetanisidide", "N-Chloroacetyl-2-methoxyaniline", "N-(2-Anisyl)chloroacetamide", "NSC 8284", "N-(2-Methoxyphenyl)-2-chloroacetamide"], "SMILES": "N(C(CCl)=O)C1=C(OC)C=CC=C1", "physical_data": {"Molecular Weight": "199.63", "Molecular Formula": "C9H10ClNO2", "Melting Point": "51 \u00b0C"}}