{"cas_no": "55861-78-4", "cn_name": "3-(5-\u53d4\u4e01\u57fa-3-\u5f02\u6076\u5511\u57fa)-1,1-\u4e8c\u7532\u57fa\u8132,C10H17N3O2", "en_name": ["Isouron", "Urea, N\u2032-[5-(1,1-dimethylethyl)-3-isoxazolyl]-N,N-dimethyl-", "N\u2032-[5-(1,1-Dimethylethyl)-3-isoxazolyl]-N,N-dimethylurea", "Isouron", "1,1-Dimethyl-3-(5-tert-butyl-3-isoxazolyl)urea", "Isuron"], "SMILES": "C(C)(C)(C)C1=CC(NC(N(C)C)=O)=NO1", "physical_data": {"Molecular Weight": "211.26", "Molecular Formula": "C10H17N3O2", "Melting Point": "119.5 \u00b0C"}}