{"cas_no": "5586-73-2", "cn_name": "3,3-\u4e8c\u82ef\u57fa\u4e19\u80fa", "en_name": ["3,3-Diphenylpropylamine", "Benzenepropanamine, \u03b3-phenyl-", "Propylamine, 3,3-diphenyl-", "\u03b3-Phenylbenzenepropanamine", "Diphenylpropylamine", "3,3-Diphenylpropylamine", "3,3-Diphenyl-1-propylamine", "1-Amino-3,3-diphenylpropane", "3,3-Diphenyl-1-propanamine", "IEM 2011", "NSC 137832", "3,3\u2032-Diphenylpropylamine"], "SMILES": "C(CCN)(C1=CC=CC=C1)C2=CC=CC=C2", "physical_data": {"Molecular Weight": "211.30", "Molecular Formula": "C15H17N", "Boiling Point": "150 \u00b0C @ Press: 2 Torr", "Melting Point": "58-60 \u00b0C"}}