{"cas_no": "5586-88-9", "cn_name": "4-\u6c2f\u82ef\u57fa\u4e19\u916e", "en_name": ["(4-Chlorophenyl)acetone", "2-Propanone, 1-(4-chlorophenyl)-", "2-Propanone, 1-(p-chlorophenyl)-", "2-Propanone, (p-chlorophenyl)-", "1-(4-Chlorophenyl)-2-propanone", "(p-Chlorophenyl)acetone", "Methyl p-chlorobenzyl ketone", "1-(p-Chlorophenyl)-2-propanone", "(4-Chlorophenyl)acetone", "p-Chlorophenyl-2-propanone", "p-Chlorobenzyl methyl ketone", "4-Chlorobenzyl methyl ketone", "NSC 22985", "1-(4-Chlorophenyl)propan-2-one", "1-(4-Chlorophenyl)acetone"], "SMILES": "C(C(C)=O)C1=CC=C(Cl)C=C1", "physical_data": {"Molecular Weight": "168.62", "Molecular Formula": "C9H9ClO", "Boiling Point": "85-86 \u00b0C @ Press: 1 Torr", "Melting Point": "6-8 \u00b0C", "Density": "1.1397 g/cm\u00b3"}}