{"cas_no": "55869-99-3", "cn_name": "\u5c71\u83a8\u83ea\u78b1", "en_name": ["Anisodamine", "Benzeneacetic acid, \u03b1-(hydroxymethyl)-, (1R,3S,5R,6S)-6-hydroxy-8-methyl-8-azabicyclo[3.2.1]oct-3-yl ester, (\u03b1S)-", "Benzeneacetic acid, \u03b1-(hydroxymethyl)-, 6-hydroxy-8-methyl-8-azabicyclo[3.2.1]oct-3-yl ester, [1R-[1\u03b1,3\u03b2(S*),5\u03b1,6\u03b1]]-", "Hyoscyamine, 6-hydroxy-", "6-Hydroxyhyoscyamine", "Anisodamine", "6\u03b2-Hydroxyhyoscyamine", "(-)-6\u03b2-Hydroxyhyoscyamine", "(-)-(3S,6S,2\u2032S)-6\u03b2-Hydroxyhyoscyamine", "(-)-Anisodamine"], "SMILES": "CN1C2C(O)CC1CC(OC(C(CO)C3=CC=CC=C3)=O)C2", "physical_data": {"Molecular Weight": "305.37", "Molecular Formula": "C17H23NO4", "Melting Point": "62-63 \u00b0C"}}