{"cas_no": "5586-70-9", "cn_name": "1,6-\u5df1\u4e8c\u5f02\u6c30\u9178\u8102", "en_name": ["Hexamethylene diisothiocyanate", "Hexane, 1,6-diisothiocyanato-", "Isothiocyanic acid, hexamethylene ester", "1,6-Diisothiocyanatohexane", "Hexamethylene diisothiocyanate", "1,6-Hexanediisothiocyanate", "NSC 202579"], "SMILES": "C(CCCN=C=S)CCN=C=S", "physical_data": {"Molecular Weight": "200.32", "Molecular Formula": "C8H12N2S2", "Boiling Point": "183-184 \u00b0C @ Press: 6 Torr"}}