{"cas_no": "55877-79-7", "cn_name": "5-\u6c2f-2-\u7532\u6c27\u57fa\u82ef\u7532\u8148", "en_name": ["5-Chloro-2-methoxybenzonitrile", "Benzonitrile, 5-chloro-2-methoxy-", "o-Anisonitrile, 5-chloro-", "5-Chloro-2-methoxybenzonitrile", "4-Chloro-2-cyanoanisole", "2-Methoxy-5-chlorobenzonitrile"], "SMILES": "O(C)C1=C(C#N)C=C(Cl)C=C1", "physical_data": {"Molecular Weight": "167.59", "Molecular Formula": "C8H6ClNO", "Melting Point": "99 \u00b0C"}}