{"cas_no": "5588-16-9", "cn_name": "\u963f\u5c14\u567b\u55ea", "en_name": ["Althiazide", "2H-1,2,4-Benzothiadiazine-7-sulfonamide, 6-chloro-3,4-dihydro-3-[(2-propen-1-ylthio)methyl]-, 1,1-dioxide", "2H-1,2,4-Benzothiadiazine-7-sulfonamide, 3-[(allylthio)methyl]-6-chloro-3,4-dihydro-, 1,1-dioxide", "2H-1,2,4-Benzothiadiazine-7-sulfonamide, 6-chloro-3,4-dihydro-3-[(2-propenylthio)methyl]-, 1,1-dioxide", "P-1779", "3-[(Allylthio)methyl]-6-chloro-3,4-dihydro-2H-1,2,4-benzothiadiazine-7-sulfonamide 1,1-dioxide", "Althizide", "Althiazide", "Altizide", "Altizid", "Racemic althiazide", "Aldactazine"], "SMILES": "O=S1(=O)C=2C(NC(CSCC=C)N1)=CC(Cl)=C(S(N)(=O)=O)C2", "physical_data": {"Molecular Weight": "383.89", "Molecular Formula": "C11H14ClN3O4S3", "Melting Point": "206-207 \u00b0C"}}