{"cas_no": "5588-84-1", "cn_name": "\u4e09\u5f02\u4e19\u6c27\u57fa\u6c27\u5316\u9492", "en_name": ["Vanadyl triisopropoxide", "Vanadium, oxotris(2-propanolato)-, (T-4)-", "Vanadic acid (H3VO4), triisopropyl ester", "Isopropyl vanadate(V)", "(T-4)-Oxotris(2-propanolato)vanadium", "Triisopropyl orthovanadate", "Isopropyl orthovanadate", "(Triisopropoxy)oxovanadium", "Vanadyl triisopropoxide", "Vanadyl isopropylate", "Vanadium triisopropoxide oxide", "Tris(isopropoxo)oxovanadium", "Vanadium oxide triisopropoxide", "Triisopropoxyvanadium oxide", "Tri(isopropanolato)oxovanadium", "Triisopropyl vanadate", "Tris(isopropanolato)oxo vanadium", "Vanadium(V) tris(isopropoxide) oxide", "Oxovanadium triisopropoxide", "Vanadium(V) oxoisopropoxide", "Vanadium(V) oxytriisopropoxide", "Oxovanadium(V) triisopropoxide", "Vanadium oxytriisopropoxide", "Vanadyloxytriisopropoxide"], "SMILES": "[V](OC(C)C)(OC(C)C)(OC(C)C)=O", "physical_data": {"Molecular Weight": "", "Molecular Formula": "C9H21O4V", "Boiling Point": "80-82 \u00b0C @ Press: 2 Torr", "Melting Point": "-14--11 \u00b0C", "Density": "1.029 g/cm\u00b3"}}