{"cas_no": "5588-33-0", "cn_name": "\u7f8e\u7d22\u54d2\u55ea", "en_name": ["Mesoridazine", "10H-Phenothiazine, 10-[2-(1-methyl-2-piperidinyl)ethyl]-2-(methylsulfinyl)-", "Phenothiazine, 10-[2-(1-methyl-2-piperidyl)ethyl]-2-(methylsulfinyl)-", "10-[2-(1-Methyl-2-piperidinyl)ethyl]-2-(methylsulfinyl)-10H-phenothiazine", "TPS 23", "Mesoridazine", "1-Methyl-2-[2-[2-(methylsulfinyl)phenothiazin-10-yl]ethyl]piperidine", "10-[2-(1-Methyl-2-piperidyl)ethyl]-2-(methylsulfinyl)phenothiazine", "Serentil", "10-[2-(1-Methyl-2-piperidyl)ethyl]-2-(methylsulfinyl)-10H-phenothiazine", "Thioridazine-2-sulfoxide", "NSC 186066", "MeSH ID: D008653"], "SMILES": "C(CC1N(C)CCCC1)N2C=3C(SC=4C2=CC=CC4)=CC=C(S(C)=O)C3", "physical_data": {"Molecular Weight": "386.57", "Molecular Formula": "C21H26N2OS2", "Melting Point": "128-131 \u00b0C"}}