{"cas_no": "55881-07-7", "cn_name": "\u4e59\u9170\u9ea6\u8fea\u9709\u7d20", "en_name": ["Miocamycin", "Leucomycin V, 3B,9-diacetate 3,4B-dipropanoate", "Oxacyclohexadecane, leucomycin V deriv.", "3\u2032\u2032,9-Diacetylmydecamycin", "Mom", "Miokamycin", "Midecamycin acetate", "9,3\u2032\u2032-Di-O-acetylmidecamycin", "Miocamycin", "Ponsinomycin", "Acecamycin"], "SMILES": "O(C1C(OC)C(OC(CC)=O)CC(=O)OC(C)CC=CC=CC(OC(C)=O)C(C)CC1CC=O)C2C(O)C(N(C)C)C(OC3CC(OC(C)=O)(C)C(OC(CC)=O)C(C)O3)C(C)O2", "physical_data": {"Molecular Weight": "898.04", "Molecular Formula": "C45H71NO17", "Melting Point": "220 \u00b0C (decomp)"}}