{"cas_no": "5588-10-3", "cn_name": "\u76d0\u9178\u7532\u6c27\u90a3\u660e", "en_name": ["Benzeneethanamine, 2-methoxy-N,\u03b1-dimethyl-, hydrochloride (1:1)", "Benzeneethanamine, 2-methoxy-N,\u03b1-dimethyl-, hydrochloride (1:1)", "Phenethylamine, o-methoxy-N,\u03b1-dimethyl-, hydrochloride", "Benzeneethanamine, 2-methoxy-N,\u03b1-dimethyl-, hydrochloride", "o-Methoxy-N,\u03b1-dimethylphenethylamine hydrochloride", "Methoxyphenaminium chloride", "Orthoxine hydrochloride", "Ortodrinex hydrochloride", "Methoxyphenamine hydrochloride", "o-Methoxymethamphetamine hydrochloride", "dl-o-Methoxy-N,\u03b1-dimethylphenethylamine hydrochloride", "dl-Orthoxine hydrochloride", "(\u00b1)-Methoxyphenamine hydrochloride", "2-Methoxymethamphetamine hydrochloride", "Proasma", "NSC 65644", "[1-(2-Methoxyphenyl)propan-2-yl](methyl)amine hydrochloride"], "SMILES": "C(C(NC)C)C1=C(OC)C=CC=C1.Cl", "physical_data": {"Molecular Weight": "", "Molecular Formula": "C11H17NO.ClH", "Melting Point": "129-131 \u00b0C"}}