{"cas_no": "55881-96-4", "cn_name": "\u9999\u7d2b\u82cf\u4e8c\u9187", "en_name": ["Decahydro-2-hydroxy-2,5,5,8a-tetramethyl-1-naphthaleneethanol", "1-Naphthaleneethanol, decahydro-2-hydroxy-2,5,5,8a-tetramethyl-", "Decahydro-2-hydroxy-2,5,5,8a-tetramethyl-1-naphthaleneethanol", "1-(2-Hydroxyethyl)-2,5,5,8a-tetramethyldecahydronaphthalen-2-ol", "1-(2-Hydroxyethyl)-2,5,5,8a-tetramethyl-3,4,4a,6,7,8-hexahydro-1H-naphthalen-2-ol"], "SMILES": "CC12C(CCC(C)(O)C1CCO)C(C)(C)CCC2", "physical_data": {"Molecular Weight": "254.41", "Molecular Formula": "C16H30O2", "Melting Point": "131-132 \u00b0C"}}