{"cas_no": "5589-96-8", "cn_name": "\u4e00\u6eb4\u4e00\u6c2f\u4e59\u9178", "en_name": ["Bromochloroacetic acid", "Acetic acid, 2-bromo-2-chloro-", "Acetic acid, bromochloro-", "2-Bromo-2-chloroacetic acid", "Bromochloroacetic acid", "Chlorobromoacetic acid", "BCAA"], "SMILES": "C(C(O)=O)(Br)Cl", "physical_data": {"Molecular Weight": "173.39", "Molecular Formula": "C2H2BrClO2", "Boiling Point": "215 \u00b0C", "Melting Point": "31.5 \u00b0C"}}