{"cas_no": "55897-64-8", "cn_name": "2-\u5f02\u4e19\u57fa-2,3-\u4e8c\u7532\u57fa\u4e01\u8148", "en_name": ["2,3-Dimethyl-2-(1-methylethyl)butanenitrile", "Butanenitrile, 2,3-dimethyl-2-(1-methylethyl)-", "Butyronitrile, 2-isopropyl-2,3-dimethyl-", "2,3-Dimethyl-2-(1-methylethyl)butanenitrile", "2-Isopropyl-2,3-dimethylbutyronitrile", "2,3-Dimethyl-2-propan-2-ylbutanenitrile", "2,3-Dimethyl-2-(propan-2-yl)butanenitrile"], "SMILES": "C(C(C)C)(C(C)C)(C#N)C", "physical_data": {"Molecular Weight": "139.24", "Molecular Formula": "C9H17N", "Boiling Point": "186-187 \u00b0C"}}