{"cas_no": "559-40-0", "cn_name": "\u5168\u6c1f\u73af\u620a\u70ef", "en_name": ["Perfluorocyclopentene", "Cyclopentene, 1,2,3,3,4,4,5,5-octafluoro-", "Cyclopentene, octafluoro-", "1,2,3,3,4,4,5,5-Octafluorocyclopentene", "Perfluorocyclopentene", "1,2,3,3,4,4,5,5-Octafluoro-1-cyclopentene", "Octafluorocyclopentene", "Flon C 1418", "Fron C 1418", "Zeorora ZFL 58"], "SMILES": "FC1(F)C(F)(F)C(F)=C(F)C1(F)F", "physical_data": {"Molecular Weight": "212.04", "Molecular Formula": "C5F8", "Boiling Point": "33-35 \u00b0C"}}