{"cas_no": "559-70-6", "cn_name": "\u03b2-\u9999\u6811\u8102\u9187", "en_name": ["\u03b2-Amyrin", "Olean-12-en-3-ol, (3\u03b2)-", "Olean-12-en-3\u03b2-ol", "(3\u03b2)-Olean-12-en-3-ol", "\u03b2-Amyrenol", "\u03b2-Amyrin", "\u03b2-Amyrine", "3\u03b2-Hydroxyolean-12-ene", "(+)-\u03b2-Amyrin", "\u03b2-Amirin", "NSC 527971"], "SMILES": "CC12C3(C)C(C4C(C)(CC3)CCC(C)(C)C4)=CCC1C5(C)C(CC2)C(C)(C)C(O)CC5", "physical_data": {"Molecular Weight": "426.72", "Molecular Formula": "C30H50O", "Melting Point": "197 \u00b0C"}}