{"cas_no": "559-74-0", "cn_name": "\u65e0\u7f81\u841c", "en_name": ["Friedelin", "24,25,26-Trinoroleanan-3-one, 5,9,13-trimethyl-, (4\u03b2,5\u03b2,8\u03b1,9\u03b2,10\u03b1,13\u03b1,14\u03b2)-", "D:A-Friedooleanan-3-one", "Friedelin", "(4\u03b2,5\u03b2,8\u03b1,9\u03b2,10\u03b1,13\u03b1,14\u03b2)-5,9,13-Trimethyl-24,25,26-trinoroleanan-3-one", "(-)-Friedelin", "Friedelan-3-one", "Friedeline", "Friedelanone", "3(2H)-Picenone, eicosahydro-4,4a,6b,8a,11,11,12b,14a-octamethyl-, [4R-(4\u03b1,4a\u03b1,6a\u03b2,6b\u03b1,8a\u03b1,12a\u03b1,12b\u03b2,14a\u03b1,14b\u03b2)]-", "3(2H)-Picenone, eicosahydro-4,4a,6b,8a,11,11,12b,14a-octamethyl-, (4R,4aS,6aS,6bR,8aR,12aR,12bS,14aS,14bS)-", "NSC 55141", "3-Oxofriedelane"], "SMILES": "CC12C(C)(C3C(C)(CC1)CCC(C)(C)C3)CCC4(C)C2CCC5(C)C4CCC(=O)C5C", "physical_data": {"Molecular Weight": "426.72", "Molecular Formula": "C30H50O", "Melting Point": "263 \u00b0C"}}