{"cas_no": "55905-53-8", "cn_name": "\u6c2f\u6ce2\u5fc5\u5229", "en_name": ["Clebopride", "Benzamide, 4-amino-5-chloro-2-methoxy-N-[1-(phenylmethyl)-4-piperidinyl]-", "4-Amino-5-chloro-2-methoxy-N-[1-(phenylmethyl)-4-piperidinyl]benzamide", "Clebopride", "BRL 20596"], "SMILES": "C(NC1CCN(CC2=CC=CC=C2)CC1)(=O)C3=C(OC)C=C(N)C(Cl)=C3", "physical_data": {"Molecular Weight": "373.88", "Molecular Formula": "C20H24ClN3O2", "Melting Point": "194-195 \u00b0C"}}