{"cas_no": "55907-61-4", "cn_name": "2,4-\u4e8c\u785d\u57fa\u82ef\u80bc\u76d0\u9178\u76d0[\u7528\u4e8e\u9ad8\u6548\u6db2\u76f8\u8272\u8c31\u6807\u8bb0]", "en_name": ["2,4-Dinitrophenylhydrazine hydrochloride", "Hydrazine, (2,4-dinitrophenyl)-, hydrochloride (1:1)", "Hydrazine, (2,4-dinitrophenyl)-, monohydrochloride", "2,4-Dinitrophenylhydrazine hydrochloride"], "SMILES": "N(=O)(=O)C1=C(NN)C=CC(N(=O)=O)=C1.Cl", "physical_data": {"Molecular Weight": "", "Molecular Formula": "C6H6N4O4.ClH", "Melting Point": "160 \u00b0C"}}