{"cas_no": "5591-70-8", "cn_name": "4-\u82ef\u57fa-1H-\u5421\u5511-3-\u80fa", "en_name": ["4-Phenyl-1H-pyrazol-3-amine", "1H-Pyrazol-3-amine, 4-phenyl-", "Pyrazole, 3(or 5)-amino-4-phenyl-", "4-Phenyl-1H-pyrazol-3-amine", "SKF 1572", "3-Amino-4-phenylpyrazole", "4-Phenylpyrazol-3-amine", "4-Phenyl-5-pyrazolamine", "(4-Phenyl-1H-pyrazol-3-yl)amine", "(4-Phenylpyrazol-3-yl)amine"], "SMILES": "NC=1C(=CNN1)C2=CC=CC=C2", "physical_data": {"Molecular Weight": "159.19", "Molecular Formula": "C9H9N3", "Melting Point": "178-179 \u00b0C"}}