{"cas_no": "55912-20-4", "cn_name": "4-\u6c2f-3-\u785d\u57fa\u82ef\u7532\u9187", "en_name": ["4-Chloro-3-nitrobenzenemethanol", "Benzenemethanol, 4-chloro-3-nitro-", "Benzyl alcohol, 4-chloro-:3-nitro-", "4-Chloro-3-nitrobenzenemethanol", "4-Chloro-3-nitrobenzyl alcohol", "3-Nitro-4-chlorobenzyl alcohol", "1-Chloro-4-hydroxymethyl-2-nitrobenzene", "(4-Chloro-3-nitrophenyl)methanol", "3-Hydroxymethyl-6-chloronitrobenzene"], "SMILES": "N(=O)(=O)C1=CC(CO)=CC=C1Cl", "physical_data": {"Molecular Weight": "187.58", "Molecular Formula": "C7H6ClNO3", "Melting Point": "64-65 \u00b0C"}}