{"cas_no": "55921-65-8", "cn_name": "\u5421\u54af\u70f7\u57fa\u4e8c\u6c28\u57fa\u5627\u5576\u6c27\u5316\u7269", "en_name": ["Triaminodil", "2,4-Pyrimidinediamine, 6-(1-pyrrolidinyl)-, 3-oxide", "2,4-Diamino-6-pyrrolidinopyrimidine 3-oxide", "Triaminodil", "2,6-Diamino-4-(pyrrolidin-1-yl)pyrimidine 1-oxide", "Nanoxidil"], "SMILES": "NC1=CC(=NC(N)=N1=O)N2CCCC2", "physical_data": {"Molecular Weight": "195.22", "Molecular Formula": "C8H13N5O", "Melting Point": "278 \u00b0C (decomp)"}}