{"cas_no": "5593-20-4", "cn_name": "\u500d\u4ed6\u7c73\u677e\u4e8c\u4e19\u9178\u916f", "en_name": ["Betamethasone dipropionate", "Pregna-1,4-diene-3,20-dione, 9-fluoro-11-hydroxy-16-methyl-17,21-bis(1-oxopropoxy)-, (11\u03b2,16\u03b2)-", "Pregna-1,4-diene-3,20-dione, 9-fluoro-11\u03b2,17,21-trihydroxy-16\u03b2-methyl-, 17,21-dipropionate", "(11\u03b2,16\u03b2)-9-Fluoro-11-hydroxy-16-methyl-17,21-bis(1-oxopropoxy)pregna-1,4-diene-3,20-dione", "\u03b2-Methasone 17,21-dipropionate", "Betamethasone dipropionate", "Diprosone", "S 3440", "Diproderm", "Betamethasone 17,21-dipropionate", "Diprolene", "Diprosis", "Psorion", "Maxivate", "Rinderon DP", "Diprophos", "Sch 11460", "Diprospan", "Diprosen"], "SMILES": "C(COC(CC)=O)(=O)C1(OC(CC)=O)C2(C)C(CC1C)C3C(F)(C(O)C2)C4(C)C(CC3)=CC(=O)C=C4", "physical_data": {"Molecular Weight": "504.59", "Molecular Formula": "C28H37FO7", "Melting Point": "232 \u00b0C (decomp)"}}