{"cas_no": "55934-01-5", "cn_name": "2,4,5-\u4e09\u6c2f\u5421\u5576", "en_name": ["2,4,5-Trichloropyridine", "Pyridine, 2,4,5-trichloro-", "2,4,5-Trichloropyridine"], "SMILES": "ClC=1C(Cl)=CN=C(Cl)C1", "physical_data": {"Molecular Weight": "182.44", "Molecular Formula": "C5H2Cl3N", "Melting Point": "8-9 \u00b0C"}}