{"cas_no": "5593-70-4", "cn_name": "\u949b\u9178\u56db\u4e01\u916f", "en_name": ["Titanium tetrabutoxide", "1-Butanol, titanium(4+) salt (4:1)", "Butyl alcohol, titanium(4+) salt", "1-Butanol, titanium(4+) salt", "Butyl titanate(IV)", "Butyl titanate(IV) ((BuO)4Ti)", "Titanium butoxide (Ti(OBu)4)", "Titanium, tetrabutoxy-", "Butyl orthotitanate", "Titanium tetrabutoxide", "Tetrabutoxytitanium", "Titanium butoxide", "Titanium tetrabutylate", "Tetrabutyl orthotitanate", "Tyzor TBT", "Titanium(4+) butoxide", "B 1", "Orgatix TA 25", "Tetra-n-butoxytitanium", "Titanium n-butoxide", "Titanium tetrakis(butoxide)", "Titanium(IV) n-butoxide", "Tetra-n-butyl titanate", "Titanium tetra-n-butoxide", "TBT 100", "n-Butanol titanium salt", "1-Butanol titanium salt (4:1)", "Tetra-n-butyl orthotitanate", "Titanium(IV) butoxide", "TBT", "Orgatix T 25", "n-Butyl titanate", "Tetrabutyl titanate", "Tilcom TNBT", "Tetrakis(butanolato)titanium", "TA 25", "Tetrabutoxytitanium(IV)", "Vertec TNBT", "Tyzor TNBT", "TBT-B 1", "AKT 850", "Titanium tetrakis(1-butoxide)", "Tyzor BTM", "Tyzor TNTB", "Titanium tetra-n-butylate", "Orgatix TA 21", "Tetrabutyl titantate", "TA 21", "Titanium tetrabutanolate", "Tytan TNBT", "TNBT", "T 818870", "D 25 (curing accelerator)", "D 25", "Carbon titanium hydride hydroxide (C16TiH32(OH)4)", "T 104104"], "SMILES": "C(CC)CO.[Ti]", "physical_data": {"Molecular Weight": "", "Molecular Formula": "C4H10O.<sup>1</sup>/4Ti", "Boiling Point": "312 \u00b0C", "Melting Point": "-55 \u00b0C", "Density": "0.998 g/cm\u00b3 @ Temp: 20 \u00b0C"}}