{"cas_no": "55947-46-1", "cn_name": "\u7094\u4e19\u57fa\u78fa\u9178\u94a0", "en_name": ["2-Propyne-1-sulfonic acid, sodium salt (1:1)", "2-Propyne-1-sulfonic acid, sodium salt (1:1)", "2-Propyne-1-sulfonic acid, sodium salt", "Sodium 2-propyne-1-sulfonate", "Sodium propargylsulfonate", "Sodium propynesulfonate"], "SMILES": "C(S(=O)(=O)O)C#C.[Na]", "physical_data": {"Molecular Weight": "", "Molecular Formula": "C3H4O3S.Na", "Melting Point": "220 \u00b0C (decomp)"}}