{"cas_no": "55967-52-7", "cn_name": "\u4e59\u70ef\u57fa\u56db\u7532\u57fa\u4e8c\u7845\u6c27\u70f7", "en_name": ["1-Ethenyl-1,1,3,3-tetramethyldisiloxane", "Disiloxane, 1-ethenyl-1,1,3,3-tetramethyl-", "1-Ethenyl-1,1,3,3-tetramethyldisiloxane", "1,1,3,3-Tetramethyl-1-vinyldisiloxane", "1-Vinyl-1,1,3,3-tetramethyldisiloxane", "[(Dimethylsilyl)oxy](ethenyl)dimethylsilane"], "SMILES": "O([Si](C=C)(C)C)[SiH](C)C", "physical_data": {"Molecular Weight": "160.36", "Molecular Formula": "C6H16OSi2", "Boiling Point": "57 \u00b0C @ Press: 130 Torr", "Density": "0.784 g/cm\u00b3"}}