{"cas_no": "5597-27-3", "cn_name": "3-\u4e9a\u7532\u57fa-2-\u964d\u51b0\u7247\u916e", "en_name": ["Methylenenorcamphor", "Bicyclo[2.2.1]heptan-2-one, 3-methylene-", "2-Norbornanone, 3-methylene-", "3-Methylenebicyclo[2.2.1]heptan-2-one", "3-Methylene-2-norbornanone", "(\u00b1)-3-Methylene-2-norbornanone", "NSC 91505", "Methylenenorcamphor", "3-Methylidenebicyclo[2.2.1]heptan-2-one"], "SMILES": "C=C1C2CC(C1=O)CC2", "physical_data": {"Molecular Weight": "122.16", "Molecular Formula": "C8H10O", "Boiling Point": "69 \u00b0C @ Press: 11 Torr", "Density": "1.0170 g/cm\u00b3 @ Temp: 20 \u00b0C"}}