{"cas_no": "55985-32-5", "cn_name": "\u5c3c\u5361\u5730\u5e73", "en_name": ["Nicardipine", "3,5-Pyridinedicarboxylic acid, 1,4-dihydro-2,6-dimethyl-4-(3-nitrophenyl)-, 3-methyl 5-[2-[methyl(phenylmethyl)amino]ethyl] ester", "3,5-Pyridinedicarboxylic acid, 1,4-dihydro-2,6-dimethyl-4-(3-nitrophenyl)-, methyl 2-[methyl(phenylmethyl)amino]ethyl ester", "Nicardipine", "(\u00b1)-Nicardipine", "Perpidine", "MeSH ID: D009529"], "SMILES": "C(OCCN(CC1=CC=CC=C1)C)(=O)C=2C(C(C(OC)=O)=C(C)NC2C)C3=CC(N(=O)=O)=CC=C3", "physical_data": {"Molecular Weight": "479.52", "Molecular Formula": "C26H29N3O6", "Melting Point": "136-138 \u00b0C"}}