{"cas_no": "55981-09-4", "cn_name": "\u785d\u5511\u5c3c\u7279", "en_name": ["Nitazoxanide", "Benzamide, 2-(acetyloxy)-N-(5-nitro-2-thiazolyl)-", "2-(Acetyloxy)-N-(5-nitro-2-thiazolyl)benzamide", "PH 5776", "Nitazoxanide", "NTZ", "Alinia", "NSC 697855", "BRN 1225475", "DRG 0242", "N-(5-Nitro-2-thiazolyl)salicylamide acetate (ester)", "NTX", "Cryptaz", "Nitazoxanida", "Nizonide", "Nixide", "Nitarid", "Nixoran", "Nitazox 500", "Nitacure 500", "Nitacure", "Nitazode", "Daxon", "Dexidex", "Kidonax", "Mitafar", "ParaMix", "Pacovanton", "Xerovirin-C", "[2-[(5-Nitro-1,3-thiazol-2-yl)carbamoyl]phenyl] acetate", "2-[(5-Nitro-1,3-thiazol-2-yl)carbamoyl]phenyl acetate"], "SMILES": "C(NC=1SC(N(=O)=O)=CN1)(=O)C2=C(OC(C)=O)C=CC=C2", "physical_data": {"Molecular Weight": "307.28", "Molecular Formula": "C12H9N3O5S", "Melting Point": "200-202 \u00b0C", "Density": "1.629 g/cm\u00b3"}}