{"cas_no": "5598-15-2", "cn_name": "\u6c2f\u5421\u786b\u78f7\u4e00\u6c27", "en_name": ["Chlorpyrifos oxon", "Phosphoric acid, diethyl 3,5,6-trichloro-2-pyridinyl ester", "Phosphoric acid, diethyl 3,5,6-trichloro-2-pyridyl ester", "2-Pyridinol, 3,5,6-trichloro-, diethyl phosphate (ester)", "O,O-Diethyl O-3,5,6-trichloro-2-pyridyl phosphate", "Dursbanoxon", "Dursban oxygen analog", "Diethyl 3,5,6-trichloro-2-pyridyl phosphate", "O-(3,5,6-Trichloro-2-pyridinyl) O,O-diethyl phosphate", "3,5,6-Trichloro-2-pyridyl diethyl phosphate", "Chloropyrifos oxon", "Chlorpyrifos oxon", "Chlorpyrifoxon", "Fospirate-ethyl", "Chlorpyriphoxon", "Chlorpyrifos-ethyl oxon"], "SMILES": "P(OC1=C(Cl)C=C(Cl)C(Cl)=N1)(OCC)(OCC)=O", "physical_data": {"Molecular Weight": "334.52", "Molecular Formula": "C9H11Cl3NO4P", "Melting Point": "43 \u00b0C"}}