{"cas_no": "5598-13-0", "cn_name": "\u7532\u57fa\u6bd2\u6b7b\u8731", "en_name": ["Chlorpyrifos-methyl", "Phosphorothioic acid, O,O-dimethyl O-(3,5,6-trichloro-2-pyridinyl) ester", "Phosphorothioic acid, O,O-dimethyl O-(3,5,6-trichloro-2-pyridyl) ester", "OMS 1155", "Dowco 214", "O,O-Dimethyl O-(3,5,6-trichloro-2-pyridyl) phosphorothioate", "Methyl Dursban", "Chlorpyrifos-methyl", "O-(3,5,6-Trichloro-2-pyridinyl) O,O-dimethyl phosphorothioate", "M 3196", "Reldan", "Noltran", "Methyl chlorpyrifos", "Dursban methyl", "O,O-Dimethyl O-(3,5,6-trichloro-2-pyridyl) thiophosphate", "ENT 27520", "Dursban ME", "Cyfen", "Chlorpyriphos-methyl", "Chlorpyrifos M", "Reldan E"], "SMILES": "O(P(OC)(OC)=S)C1=C(Cl)C=C(Cl)C(Cl)=N1", "physical_data": {"Molecular Weight": "322.53", "Molecular Formula": "C7H7Cl3NO3PS", "Melting Point": "45.5-46.5 \u00b0C", "Density": "1.64 g/cm\u00b3 @ Temp: 23 \u00b0C"}}