{"cas_no": "5599-50-8", "cn_name": "3,6-\u4e8c\u7532\u57fa-9H-\u5494\u5511", "en_name": ["3,6-Dimethylcarbazole", "9H-Carbazole, 3,6-dimethyl-", "Carbazole, 3,6-dimethyl-", "3,6-Dimethyl-9H-carbazole", "3,6-Dimethylcarbazole"], "SMILES": "CC=1C=C2C=3C(NC2=CC1)=CC=C(C)C3", "physical_data": {"Molecular Weight": "195.26", "Molecular Formula": "C14H13N", "Melting Point": "173-187 \u00b0C"}}