{"cas_no": "5599-70-2", "cn_name": "1-\u6c2f\u5494\u5511", "en_name": ["1-Chloro-9H-carbazole", "9H-Carbazole, 1-chloro-", "Carbazole, 1-chloro-", "1-Chloro-9H-carbazole", "1-Chlorocarbazole"], "SMILES": "ClC1=C2C(C=3C(N2)=CC=CC3)=CC=C1", "physical_data": {"Molecular Weight": "201.65", "Molecular Formula": "C12H8ClN", "Melting Point": "125 \u00b0C"}}