{"cas_no": "56-05-3", "cn_name": "2-\u6c28\u57fa-4,6-\u4e8c\u6c2f\u5627\u5576", "en_name": ["4,6-Dichloro-2-pyrimidinamine", "2-Pyrimidinamine, 4,6-dichloro-", "Pyrimidine, 2-amino-4,6-dichloro-", "4,6-Dichloro-2-pyrimidinamine", "2-Amino-4,6-dichloropyrimidine", "Py 11", "4,6-Dichloro-2-aminopyrimidine", "NSC 18698", "(4,6-Dichloropyrimidin-2-yl)amine", "2-Amino-4,6-dichloro-2-pyrimidine"], "SMILES": "ClC=1C=C(Cl)N=C(N)N1", "physical_data": {"Molecular Weight": "163.99", "Molecular Formula": "C4H3Cl2N3", "Melting Point": "221 \u00b0C"}}