{"cas_no": "56-09-7", "cn_name": "2-\u6c28\u57fa-4,6-\u4e8c\u7f9f\u57fa\u5627\u5576", "en_name": ["2-Amino-6-hydroxy-4(3H)-pyrimidinone", "4(3H)-Pyrimidinone, 2-amino-6-hydroxy-", "4(1H)-Pyrimidinone, 2-amino-6-hydroxy-", "4,6-Pyrimidinediol, 2-amino-", "2-Amino-6-hydroxy-4(3H)-pyrimidinone", "2-Amino-4,6-dihydroxypyrimidine", "2-Amino-4,6-pyrimidinedione", "2-Amino-4,6-dioxypyrimidine", "4,6-Dihydroxy-2-aminopyrimidine", "2-Amino-4,6-pyrimidinediol", "NSC 15920", "NSC 18692", "2-Amino-6-hydroxy-3H-pyrimidin-4-one", "2-Amino-4,6-dihydroxypyridimine", "2-Amino-6-hydroxy-1,4-dihydropyrimidin-4-one", "2-Amino-4-hydroxy-1H-pyrimidin-6-one"], "SMILES": "O=C1C=C(O)N=C(N)N1", "physical_data": {"Molecular Weight": "127.10", "Molecular Formula": "C4H5N3O2", "Melting Point": "&gt;330 \u00b0C"}}