{"cas_no": "56-04-2", "cn_name": "\u7532\u57fa\u786b\u6c27\u5627\u5576", "en_name": ["Methylthiouracil", "4(1H)-Pyrimidinone, 2,3-dihydro-6-methyl-2-thioxo-", "Uracil, 6-methyl-2-thio-", "2,3-Dihydro-6-methyl-2-thioxo-4(1H)-pyrimidinone", "Alkiron", "Antibason", "Basecil", "2-Mercapto-6-methylpyrimidin-4-one", "Metacil", "Methiacil", "Methicil", "Methiocil", "6-Methyl-2-thio-2,4-(1H,3H)-pyrimidinedione", "6-Methyl-2-thiouracil", "Methylthiouracil", "MTU", "Muracil", "Prostrumyl", "Strumacil", "Thimecil", "6-Thio-4-methyluracil", "Methacil", "2-Mercapto-4-methyl-6-hydroxypyrimidine", "6-Methyl-2-mercaptouracil", "2-Mercapto-6-methylpyrimidyl-4-one", "6-Methyl-4-oxo-2-thioxo-1,2,3,4-tetrahydropyrimidine", "4-Methyl-2-thiouracil", "2-Thio-6-methyluracil", "Thyreonorm", "4-Hydroxy-2-mercapto-6-methylpyrimidine", "Tiorale M", "Thiothymin", "Orcanon", "Tiomeracil", "2-Mercapto-6-methyl-4-pyrimidinol", "4-Hydroxy-6-methyl-2-mercaptopyrimidine", "Metiur", "Tiotiron", "Muracin", "Thiothyron", "Thiomecil", "NSC 193526", "Basethyrin", "Thiuryl", "USAF-EK 6454", "Thiomidil", "NSC 9378", "Thioryl", "Thyril", "NSC 314271", "4-Hydroxy-6-methylpyrimidine-2(1H)-thione", "6-Methyl-2-thioxopyrimidin-4-one", "2-Mercapto-6-methylpyrimidin-4(3H)-one", "MeSH ID: D008779"], "SMILES": "CC1=CC(=O)NC(=S)N1", "physical_data": {"Molecular Weight": "142.18", "Molecular Formula": "C5H6N2OS", "Melting Point": "330 \u00b0C (decomp)", "Density": "1.498 g/cm\u00b3"}}