{"cas_no": "56-08-6", "cn_name": "2,4-\u4e8c\u6c28\u57fa-6-\u5def\u57fa\u5627\u5576", "en_name": ["2,6-Diamino-4(3H)-pyrimidinethione", "4(3H)-Pyrimidinethione, 2,6-diamino-", "4(1H)-Pyrimidinethione, 2,6-diamino-", "4-Pyrimidinethiol, 2,6-diamino-", "2,6-Diamino-4(3H)-pyrimidinethione", "2,4-Diamino-6-mercaptopyrimidine", "2,4-Diaminopyrimidine-6-thione", "NSC 12888", "2,4-Diaminopyrimidine-6-thiol", "2,6-Diaminopyrimidine-4-thiol", "2,6-Diamino-1H-pyrimidine-4-thione", "2,6-Diamino-1,4-dihydropyrimidine-4-thione", "2,6-Diamino-3,4-dihydropyrimidine-4-thione"], "SMILES": "NC1=CC(=S)N=C(N)N1", "physical_data": {"Molecular Weight": "142.18", "Molecular Formula": "C4H6N4S", "Melting Point": "&gt;230 \u00b0C (decomp)"}}