{"cas_no": "56-06-4", "cn_name": "2,4-\u4e8c\u6c28\u57fa-6-\u7f9f\u57fa\u5627\u5576", "en_name": ["2,4-Diamino-6-hydroxypyrimidine", "4(3H)-Pyrimidinone, 2,6-diamino-", "4(1H)-Pyrimidinone, 2,6-diamino-", "2,6-Diamino-4(3H)-pyrimidinone", "2,4-Diamino-6-hydroxypyrimidine", "2,6-Diamino-4-pyrimidinol", "2,6-Diamino-4-hydroxypyrimidine", "6-Hydroxy-2,4-pyrimidinediamine", "2,6-Diamino-4(1H)-pyrimidinone", "6-Aminoisocytosine", "2,6-Diaminopyrimidin-4-one", "2,4-Diamino-6-pyrimidinone", "NSC 44914", "NSC 680818", "NSC 9302", "2,6-Diamino-3,4-dihydropyrimidin-4-one", "6-Hydroxy-2,4-diaminopyrimidine", "2,6-Diamino-3H-pyrimidin-4-one", "4-Hydroxypyrimidine-2,6-diamine", "2,6-Diamino-1,4-dihydropyrimidin-4-one", "2,6-Diamino-1H-pyrimidin-4-one"], "SMILES": "NC1=CC(=O)N=C(N)N1", "physical_data": {"Molecular Weight": "126.12", "Molecular Formula": "C4H6N4O", "Melting Point": "286 \u00b0C (decomp)"}}