{"cas_no": "56-17-7", "cn_name": "\u80f1\u80fa\u4e8c\u76d0\u9178\u76d0", "en_name": ["Cystamine dihydrochloride", "Ethanamine, 2,2\u2032-dithiobis-, hydrochloride (1:2)", "Ethylamine, 2,2\u2032-dithiobis-, dihydrochloride", "Ethanamine, 2,2\u2032-dithiobis-, dihydrochloride", "Cystamine dihydrochloride", "Bis(2-aminoethyl) disulfide dihydrochloride", "2,2\u2032-Dithiobis[ethylamine] dihydrochloride", "Cystamine hydrochloride", "Cystamine dichlorohydrate", "WR 352", "2-(2-Aminoethyldisulfanyl)ethanamine dihydrochloride"], "SMILES": "S(SCCN)CCN.Cl", "physical_data": {"Molecular Weight": "", "Molecular Formula": "C4H12N2S2.2ClH", "Melting Point": "212-212.5 \u00b0C"}}