{"cas_no": "56-18-8", "cn_name": "3,3'-\u4e8c\u6c28\u57fa\u4e8c\u4e19\u57fa\u80fa", "en_name": ["Bis(3-aminopropyl)amine", "1,3-Propanediamine, N1-(3-aminopropyl)-", "Dipropylamine, 3,3\u2032-diamino-", "1,3-Propanediamine, N-(3-aminopropyl)-", "N1-(3-Aminopropyl)-1,3-propanediamine", "3,3\u2032-Diaminodipropylamine", "N-3-Aminopropyl-1,3-diaminopropane", "1-Propanamine, 3,3\u2032-iminobis-", "3,3\u2032-Iminobis(propylamine)", "4-Azaheptane-1,7-diamine", "Dipropylenetriamine", "Caldine", "P 2 (hardener)", "Bis(3-aminopropyl)amine", "1,7-Diamino-4-azaheptane", "N-(3-Aminopropyl)-1,3-propanediamine", "sym-Norspermidine", "Norspermidine", "4-Azaheptamethylenediamine", "3,3\u2032-Iminodi(propylamine)", "1,5,9-Triazanonane", "Di(3-aminopropyl)amine", "4-Aza-1,7-diaminoheptane", "NSC 7773", "Di(trimethylene)triamine", "Bis(trimethylene)triamine", "N-(3-Aminopropyl)-1,3-propandiamine", "Baxxodur EC 110", "EC 110"], "SMILES": "N(CCCN)CCCN", "physical_data": {"Molecular Weight": "131.22", "Molecular Formula": "C6H17N3", "Boiling Point": "210-230 \u00b0C", "Melting Point": "-14 \u00b0C", "Density": "0.9307 g/cm\u00b3 @ Temp: 20 \u00b0C"}}