{"cas_no": "56-10-0", "cn_name": "\u4e59\u80fa\u786b\u8132", "en_name": ["Antiradon", "Carbamimidothioic acid, 2-aminoethyl ester, hydrobromide (1:2)", "Pseudourea, 2-(2-aminoethyl)-2-thio-, dihydrobromide", "Carbamimidothioic acid, 2-aminoethyl ester, dihydrobromide", "S-(2-Aminoethyl)isothiuronium bromide hydrobromide", "S-(\u03b2-Aminoethyl)isothiuronium bromide hydrobromide", "2-(2-Aminoethyl)-2-thiopseudourea hydrobromide", "Antiradon", "Surrectan", "2-(\u03b2-Aminoethyl)isothiuronium bromide hydrobromide", "AET", "2-(2-Aminoethyl)-2-thiopseudourea dihydrobromide", "NSC 22877", "Ixecur", "2-(2-Aminoethyl)isothiourea dihydrobromide"], "SMILES": "S(C(=N)N)CCN.Br", "physical_data": {"Molecular Weight": "", "Molecular Formula": "C3H9N3S.2BrH", "Melting Point": "181-182 \u00b0C", "Density": "1.94 g/cm\u00b3"}}