{"cas_no": "56-12-2", "cn_name": "\u03b3-\u6c28\u57fa\u4e01\u9178", "en_name": ["\u03b3-Aminobutyric acid", "Butanoic acid, 4-amino-", "Butyric acid, 4-amino-", "4-Aminobutanoic acid", "\u03b3-Aminobutyric acid", "GABA", "Gamma-aminobutyric acid", "4-Aminobutyric acid", "Piperidinic acid", "Piperidic acid", "Gammalon", "Gamarex", "Gammalone", "Gammasol", "Mielogen", "Mielomade", "Gaballon", "Gammar", "\u03b3-Aminobutanoic acid", "Aminalon", "\u03c9-Aminobutyric acid", "3-Carboxypropylamine", "NSC 27418", "NSC 32044", "NSC 45460", "NSC 51295", "Pharmagaba", "Pharmagaba 20", "Pharmagaba 20D", "Pharma-GABA 20S", "Oryza GABA Extract HC 90", "Pharma GABA 30L", "Lacto Gaban", "1: PN: TWI669392 SEQID: 1 claimed sequence", "MeSH ID: D005680"], "SMILES": "C(C(O)=O)CCN", "physical_data": {"Molecular Weight": "103.12", "Molecular Formula": "C4H9NO2", "Melting Point": "203 \u00b0C (decomp)"}}