{"cas_no": "56-29-1", "cn_name": "\u73af\u5df2\u5df4\u6bd4\u59a5", "en_name": ["(\u00b1)-Hexobarbital", "2,4,6(1H,3H,5H)-Pyrimidinetrione, 5-(1-cyclohexen-1-yl)-1,5-dimethyl-", "Barbituric acid, 5-(1-cyclohexen-1-yl)-1,5-dimethyl-", "5-(1-Cyclohexen-1-yl)-1,5-dimethyl-2,4,6(1H,3H,5H)-pyrimidinetrione", "Citopan", "5-(1-Cyclohexen-1-yl)-1,5-dimethylbarbituric acid", "Cyclonal", "Cyclopan", "1,5-Dimethyl-5-(1-cyclohexenyl)barbituric acid", "Dorico", "Enhexymal", "Evipal", "Hexanastab Oral", "Hexobarbital", "Hexobarbitone", "Methexenyl", "N-Methyl-5-cyclohexenyl-5-methylbarbituric acid", "Noctivane", "Sombulex", "Somnalert", "Hexenal (barbiturate)", "Narcosan", "5-(1-Cyclohexenyl-1)-1-methyl-5-methylbarbituric acid", "Methylhexabital", "Evipan", "Barbidorm", "Citodon", "(\u00b1)-Hexobarbitone", "(\u00b1)-Hexobarbital", "(RS)-Hexobarbital", "Sombucaps", "Methylhexabarbital", "NSC 71929", "(\u00b1)-5-(1-Cyclohexen-1-yl)-1,5-dimethylbarbituric acid", "MeSH ID: D006591"], "SMILES": "CC1(C(=O)N(C)C(=O)NC1=O)C=2CCCCC2", "physical_data": {"Molecular Weight": "236.27", "Molecular Formula": "C12H16N2O3", "Melting Point": "146.5 \u00b0C"}}