{"cas_no": "56-24-6", "cn_name": "\u4e09\u7532\u57fa\u6c22\u6c27\u5316\u9521", "en_name": ["Stannane, hydroxytrimethyl-", "Stannane, hydroxytrimethyl-", "Trimethyltin hydroxide", "Tin, hydroxytrimethyl-", "Hydroxytrimethyltin", "Hydroxytrimethylstannane", "Trimethylstannanol", "Trimethylhydroxytin", "Trimethylstannyl hydroxide"], "SMILES": "[Sn](C)(C)(C)O", "physical_data": {"Molecular Weight": "180.82", "Molecular Formula": "C3H10OSn", "Melting Point": "118 \u00b0C (sublm)"}}