{"cas_no": "56-25-7", "cn_name": "\u6591\u8765\u7d20", "en_name": ["Cantharidin", "4,7-Epoxyisobenzofuran-1,3-dione, hexahydro-3a,7a-dimethyl-, (3aR,4S,7R,7aS)-rel-", "Cantharidin", "7-Oxabicyclo[2.2.1]heptane-2,3-dicarboxylic anhydride, 2,3-dimethyl-", "4,7-Epoxyisobenzofuran-1,3-dione, hexahydro-3a,7a-dimethyl-, (3a\u03b1,4\u03b2,7\u03b2,7a\u03b1)-", "rel-(3aR,4S,7R,7aS)-Hexahydro-3a,7a-dimethyl-4,7-epoxyisobenzofuran-1,3-dione", "Cantharides camphor", "exo-1,2-cis-Dimethyl-3,6-epoxyhexahydrophthalic anhydride", "Cantharidine", "Kantaridin", "1,2-Dimethyl-3,6-epoxyperhydrophthalic anhydride", "Cantharone", "NSC 61805", "Canthacur", "MeSH ID: D002193"], "SMILES": "CC12C(C)(C3OC1CC3)C(=O)OC2=O", "physical_data": {"Molecular Weight": "196.20", "Molecular Formula": "C10H12O4", "Melting Point": "218 \u00b0C", "Density": "1.38 g/cm\u00b3"}}