{"cas_no": "56-23-5", "cn_name": "\u56db\u6c2f\u5316\u78b3", "en_name": ["Carbon tetrachloride", "Methane, tetrachloro-", "Carbon tetrachloride", "Tetrachloromethane", "Benzinoform", "Necatorina", "Perchloromethane", "Carbon chloride (CCl4)", "Tetrafinol", "Tetraform", "Carbona", "Tetrasol", "Flukoids", "Univerm", "Vermoestricid", "R 10 (refrigerant)", "R 10", "Halon 1040", "CC m0", "NSC 97063", "Phenixin", "1,1,1,1-Tetrachloromethane", "Phenoxin"], "SMILES": "C(Cl)(Cl)(Cl)Cl", "physical_data": {"Molecular Weight": "153.82", "Molecular Formula": "CCl4", "Boiling Point": "76.8 \u00b0C", "Melting Point": "-23 \u00b0C", "Density": "1.5940 g/cm\u00b3 @ Temp: 20 \u00b0C"}}