{"cas_no": "56-38-2", "cn_name": "\u5bf9\u786b\u78f7", "en_name": ["Parathion", "Phosphorothioic acid, O,O-diethyl O-(4-nitrophenyl) ester", "Phosphorothioic acid, O,O-diethyl O-(p-nitrophenyl) ester", "E 605", "ENT 15108", "AAT", "AATP", "Alkron", "American Cyanamid 3422", "Aphamite", "Bayer E-605", "Bladan F", "O,O-Diethyl O-(p-nitrophenyl) phosphorothioate", "O,O-Diethyl O-(4-nitrophenyl) phosphorothioate", "Diethyl 4-nitrophenyl phosphorothioate", "Diethyl p-nitrophenyl thionophosphate", "O,O-Diethyl O-p-nitrophenyl thiophosphate", "DNTP", "Ekatox", "Ethyl parathion", "Etilon", "Niran", "Nitrostigmine", "Oleoparathion", "Paraphos", "Parathion", "RB", "Thiophos 3422", "Thiophos", "Folidol", "Lirothion", "Nourithion", "Paramar 50", "Rhodiatox", "Oleofos 20", "Parathion-ethyl", "Diethyl p-nitrophenyl phosphorothionate", "Diethyl parathion", "Folidol oil", "NIUIF 100", "E 605F", "Folidol E", "Folidol E-605", "Fosferno", "Rhodiasol", "Alleron", "Oleoparathene", "Pacol", "Aralo", "Gearphos", "Vitrex", "Super Rodiatox", "Fostox", "Penncap E", "Selephos", "Parathene", "Thiomex", "Ecatox 20", "Ekatox 20", "E 605FT20", "BAY 1605", "NSC 8933", "Galpar", "Parathion A", "Phospherno", "MeSH ID: D010278"], "SMILES": "P(OC1=CC=C(N(=O)=O)C=C1)(OCC)(OCC)=S", "physical_data": {"Molecular Weight": "291.26", "Molecular Formula": "C10H14NO5PS", "Boiling Point": "375 \u00b0C @ Press: 760 Torr", "Melting Point": "6.1 \u00b0C", "Density": "1.26 g/cm\u00b3 @ Temp: 25 \u00b0C"}}