{"cas_no": "56-34-8", "cn_name": "\u56db\u4e59\u57fa\u6c2f\u5316\u94f5", "en_name": ["Tetraethylammonium chloride", "Ethanaminium, N,N,N-triethyl-, chloride (1:1)", "Tetraethylammonium chloride", "Ammonium, tetraethyl-, chloride", "Ethanaminium, N,N,N-triethyl-, chloride", "Etamon chloride", "TEA chloride", "TEAC", "TEA", "TEAC 100", "TEAC 10W"], "SMILES": "[N+](CC)(CC)(CC)CC.[Cl-]", "physical_data": {"Molecular Weight": "", "Molecular Formula": "C8H20N.Cl", "Melting Point": "360 \u00b0C (decomp)"}}