{"cas_no": "56-36-0", "cn_name": "\u4e59\u9178\u4e09\u4e01\u57fa\u9521", "en_name": ["Tributyltin acetate", "Acetic acid, tributylstannyl ester", "Tributyltin acetate", "Stannane, (acetyloxy)tributyl-", "Stannane, acetoxytributyl-", "Acetoxytributyltin", "Tributylacetoxystannane", "Acetoxytributylstannane", "Tri-n-butyltin acetate", "Tributylstannyl acetate", "NSC 8989"], "SMILES": "[Sn](OC(C)=O)(CCCC)(CCCC)CCCC", "physical_data": {"Molecular Weight": "349.10", "Molecular Formula": "C14H30O2Sn", "Melting Point": "84.7 \u00b0C"}}