{"cas_no": "56-33-7", "cn_name": "1,1,3,3-\u56db\u7532\u57fa-1,3-\u4e8c\u82ef\u57fa\u4e8c\u7845\u6c27\u70f7", "en_name": ["1,1,3,3-Tetramethyl-1,3-diphenyldisiloxane", "Disiloxane, 1,1,3,3-tetramethyl-1,3-diphenyl-", "1,1,3,3-Tetramethyl-1,3-diphenyldisiloxane", "1,3-Diphenyltetramethyldisiloxane", "Bis(phenyldimethylsilyl) oxide", "D 6190", "Bis(dimethylphenylsilyl) oxide", "Bis(dimethylphenylsilyl) ether", "1,3-Diphenyl-1,1,3,3-tetramethyldisiloxane", "sym-Diphenyltetramethyldisiloxane", "NSC 96791", "[Dimethyl(phenyl)silyl]oxy-dimethyl-phenylsilane"], "SMILES": "[Si](O[Si](C)(C)C1=CC=CC=C1)(C)(C)C2=CC=CC=C2", "physical_data": {"Molecular Weight": "286.52", "Molecular Formula": "C16H22OSi2", "Boiling Point": "155-158 \u00b0C @ Press: 13 Torr", "Melting Point": "-89 \u00b0C", "Density": "0.976 g/cm\u00b3"}}