{"cas_no": "56-35-9", "cn_name": "\u4e09\u4e01\u57fa\u6c27\u5316\u9521", "en_name": ["Tributyltin oxide", "Distannoxane, 1,1,1,3,3,3-hexabutyl-", "Bis(tributyltin) oxide", "Distannoxane, hexabutyl-", "1,1,1,3,3,3-Hexabutyldistannoxane", "BioMeT TBTO", "Butinox", "Oxybis[tributyltin]", "TBTO", "6-Oxa-5,7-distannaundecane, 5,5,7,7-tetrabutyl-", "Lastanox T", "Lastanox Q", "Stannicide A", "Di-tributyl tin oxide", "Tributyltin oxide", "Mykolastanox F", "Bis(tributylstannic oxide)", "Lastanox F", "Vikol AF 25", "Vikol LO 25", "BioMeT 66", "Oxybis(tributylstannane)", "BioMeT SRM", "Lastanox T 20", "Bis(tributylstannyl) oxide", "Lastanox Q1", "MT 1E", "Stannicide O", "Lastanox Super", "Intercide 340A", "Aceto TBTO", "Diall", "Hexabutyldistannoxane", "Hexabutylditin oxide", "Bis(tributylstannyl) ether", "NSC 22332", "NSC 28132", "TnBTO", "Tri-n-butyltin oxide"], "SMILES": "[Sn](O[Sn](CCCC)(CCCC)CCCC)(CCCC)(CCCC)CCCC", "physical_data": {"Molecular Weight": "596.10", "Molecular Formula": "C24H54OSn2", "Boiling Point": "180 \u00b0C @ Press: 2 Torr", "Melting Point": "-45 \u00b0C", "Density": "1.17 g/cm\u00b3 @ Temp: 25 \u00b0C"}}