{"cas_no": "56-37-1", "cn_name": "\u82c4\u57fa\u4e09\u4e59\u57fa\u6c2f\u5316\u94f5", "en_name": ["Benzyltriethylammonium chloride", "Benzenemethanaminium, N,N,N-triethyl-, chloride (1:1)", "Ammonium, benzyltriethyl-, chloride", "Benzenemethanaminium, N,N,N-triethyl-, chloride", "Benzyltriethylammonium chloride", "Triethylbenzylammonium chloride", "TEBAC", "TEBA", "N,N,N-Triethyl-N-benzylammonium chloride", "BAC-TE", "P 964", "N-Benzyl-N,N-diethylethanaminium chloride", "QBA 222", "65923B", "BTEAC"], "SMILES": "[N+](CC1=CC=CC=C1)(CC)(CC)CC.[Cl-]", "physical_data": {"Molecular Weight": "", "Molecular Formula": "C13H22N.Cl", "Melting Point": "120 \u00b0C", "Density": "1.07 g/cm\u00b3 @ Temp: 20 \u00b0C"}}