{"cas_no": "56-45-1", "cn_name": "L-\u4e1d\u6c28\u9178", "en_name": ["L-Serine", "L-Serine", "Serine, L-", "(S)-\u03b1-Amino-\u03b2-hydroxypropionic acid", "\u03b2-Hydroxy-L-alanine", "Serine", "L-(-)-Serine", "Propanoic acid, 2-amino-3-hydroxy-, (S)-", "(S)-2-Amino-3-hydroxypropanoic acid", "(S)-Serine", "L-3-Hydroxy-2-aminopropionic acid", "(-)-Serine", "L-Alanine, 3-hydroxy-", "L-Ser", "(2S)-2-Amino-3-hydroxypropanoic acid", "(2S)-2-Azaniumyl-3-hydroxypropanoate", "2: PN: WO2020113403 TABLE: L1 claimed sequence", "4: PN: WO2020191289 PAGE: 118 claimed sequence", "10: PN: WO2021055880 SEQID: 11 claimed protein", "5: PN: WO2021127752 SEQID: 15 claimed sequence", "160: PN: WO2022103927 SEQID: 197 claimed protein", "31: PN: WO2022257479 PAGE: 22 claimed sequence", "MeSH ID: D012694"], "SMILES": "C(C(O)=O)(CO)N", "physical_data": {"Molecular Weight": "105.09", "Molecular Formula": "C3H7NO3", "Melting Point": "228 \u00b0C (decomp)", "Density": "1.6 g/cm\u00b3 @ Temp: 22 \u00b0C"}}