{"cas_no": "56-41-7", "cn_name": "L-\u4e19\u6c28\u9178", "en_name": ["L-Alanine", "L-Alanine", "Alanine, L-", "L-\u03b1-Alanine", "L-2-Aminopropanoic acid", "L-\u03b1-Aminopropionic acid", "\u03b1-Alanine", "(S)-Alanine", "L-(+)-Alanine", "Alanine", "Propanoic acid, 2-amino-, (S)-", "L-2-Aminopropionic acid", "\u03b1-Aminopropionic acid", "(S)-2-Aminopropanoic acid", "(S)-(+)-Alanine", "NSC 206315", "(2S)-2-Aminopropanoic acid", "Lactamine", "2-Aminopropionic acid", "(2S)-2-Aminopropanoic acid", "(2S)-2-Azaniumylpropanoate", "8: PN: WO2021055880 SEQID: 9 claimed protein", "519: PN: WO2022056313 SEQID: 535 claimed protein", "364: PN: US20220128567 SEQID: 535 claimed protein", "364: PN: US20220178935 SEQID: 535 claimed protein", "12: PN: WO2022187968 SEQID: 12 claimed protein", "MeSH ID: D000409"], "SMILES": "C(C(O)=O)(C)N", "physical_data": {"Molecular Weight": "89.09", "Molecular Formula": "C3H7NO2", "Melting Point": "300 \u00b0C (decomp)", "Density": "1.432 g/cm\u00b3 @ Temp: 22 \u00b0C"}}