{"cas_no": "56-47-3", "cn_name": "\u918b\u9178\u53bb\u6c27\u76ae\u8d28\u916e", "en_name": ["Deoxycorticosterone acetate", "Pregn-4-ene-3,20-dione, 21-(acetyloxy)-", "11-Deoxycorticosterone, acetate", "Pregn-4-ene-3,20-dione, 21-hydroxy-, acetate", "21-(Acetyloxy)pregn-4-ene-3,20-dione", "21-Acetoxy-3,20-diketopregn-4-ene", "Cortacet", "Cortate", "Cortenil", "Cortesan", "Cortexone acetate", "Cortifar", "Cortigen", "Cortinaq", "Cortiron", "Cortivis", "Cortixyl", "DCA", "Decortin", "Decorten", "Decosterone", "Decostrate", "11-Deoxycorticosterone 21-acetate", "Deoxycorticosterone acetate", "Deoxycorticosterone 21-acetate", "Deoxycortone acetate", "Descorterone", "Descotone", "Desoxycorticosterone acetate", "Desoxycortone acetate", "DOC acetate", "Dorcostrin", "Doxo", "21-Hydroxypregn-4-ene-3,20-dione 21-acetate", "21-Hydroxypregn-4-ene-3,20-dione acetate", "Krinocorts", "11-Desoxycorticosterone acetate", "Ocriten", "Percorten", "Percotol", "4-Pregnene-3,20-dione 21-acetate", "4-Pregnene-3,20-dione-21-ol acetate", "Primocort", "Primocortan", "Sincortex", "Steraq", "Syncort", "Syncorta", "Syncortyl", "Unidocan", "DOCA", "21-Acetoxypregn-4-ene-3,20-dione", "21-Acetoxypregn-4-en-3,20-dione", "Doxycamon", "Arcort", "Ocritena", "Bio-Corten", "Decosteron", "NSC 9567", "21-Hydroxyprogesterone 21-acetate", "MeSH ID: D064791"], "SMILES": "CC12C(C3C(C4(C)C(CC3)=CC(=O)CC4)CC1)CCC2C(COC(C)=O)=O", "physical_data": {"Molecular Weight": "372.50", "Molecular Formula": "C23H32O4", "Melting Point": "157 \u00b0C"}}