{"cas_no": "56-49-5", "cn_name": "3-\u7532\u57fa\u80c6\u84bd", "en_name": ["3-Methylcholanthrene", "Benz[j]aceanthrylene, 1,2-dihydro-3-methyl-", "Cholanthrene, 3-methyl-", "1,2-Dihydro-3-methylbenz[j]aceanthrylene", "20-MC", "3-MC", "Methylcholanthrene", "20-Methylcholanthrene", "3-Methylcholanthrene", "MCA", "NSC 21970", "3-Methyl-1,2-dihydrobenzo[j]aceanthrylene", "3-Methyl-1,2-dihydrocyclopenta[ij]tetraphene", "MeSH ID: D008748"], "SMILES": "CC1=C2C3=C(C=4C(C=C3C=C1)=C5C(=CC4)C=CC=C5)CC2", "physical_data": {"Molecular Weight": "268.35", "Molecular Formula": "C21H16", "Boiling Point": "280 \u00b0C @ Press: 80 Torr", "Melting Point": "179 \u00b0C", "Density": "1.28 g/cm\u00b3 @ Temp: 20 \u00b0C"}}