{"cas_no": "56-40-6", "cn_name": "\u7518\u6c28\u9178", "en_name": ["Glycine", "Glycine", "Acetic acid, amino-", "Aminoacetic acid", "Aminoethanoic acid", "Glycocoll", "Glycolixir", "Glycosthene", "Aciport", "Glicoamin", "Padil", "2-Aminoacetic acid", "Gyn-Hydralin", "NSC 25936", "NSC 2916", "NSC 54188", "H 1", "Aminomethanecarboxylic acid", "12: PN: WO2019231175 SEQID: 18 claimed protein", "33: PN: WO2020048525 SEQID: 41 claimed protein", "1: PN: WO2020113403 TABLE: L1 claimed sequence", "1: PN: WO2020135804 PAGE: 42 claimed sequence", "1: PN: WO2020191289 PAGE: 118 claimed sequence", "AZD 4282", "AZD4282", "AZD-4282", "5: PN: CN112442493 PAGE: 2 claimed sequence", "197: PN: WO2022026763 SEQID: 225 claimed protein", "141: PN: WO2022032140 SEQID: 143 claimed protein", "3: PN: WO2022051536 PAGE: 64 claimed sequence", "2: PN: WO2022093718 PAGE: 104 claimed sequence", "1: PN: WO2022133347 PAGE: 52 claimed sequence", "104: PN: WO2022150790 SEQID: 119 claimed protein", "40: PN: WO2022159984 SEQID: 48 claimed protein", "47: PN: WO2022171068 SEQID: 49 claimed protein", "124: PN: WO2022170619 SEQID: 477 claimed protein", "A 3-10", "100: PN: WO2022221337 SEQID: 207 claimed protein", "1: PN: WO2023044306 PAGE: 118 claimed sequence", "1: PN: WO2023064923 SEQID: 500 claimed sequence", "MeSH ID: D005998"], "SMILES": "C(CN)(O)=O", "physical_data": {"Molecular Weight": "75.07", "Molecular Formula": "C2H5NO2", "Melting Point": "290 \u00b0C (decomp)", "Density": "1.161 g/cm\u00b3 @ Temp: 20 \u00b0C"}}