{"cas_no": "56-57-5", "cn_name": "4-\u785d\u57fa\u55b9\u5549-N-\u6c27\u5316\u7269", "en_name": ["4-Nitroquinoline 1-oxide", "Quinoline, 4-nitro-, 1-oxide", "4-NQO", "4-Nitroquinoline N-oxide", "4-Nitroquinoline 1-oxide", "Nitrochin", "4-Nitroquinoline oxide", "NSC 19645", "MeSH ID: D015112"], "SMILES": "N(=O)(=O)C=1C2=C(N(=O)=CC1)C=CC=C2", "physical_data": {"Molecular Weight": "190.16", "Molecular Formula": "C9H6N2O3", "Melting Point": "154 \u00b0C"}}