{"cas_no": "56-55-3", "cn_name": "1,2-\u82ef\u5e76[A]\u84bd", "en_name": ["Benzanthracene", "Benz[a]anthracene", "Benzanthrene", "Benzo[a]anthracene", "Benzo[b]phenanthrene", "2,3-Benzophenanthrene", "Tetraphene", "1,2-Benzanthracene", "1,2-Benz[a]anthracene", "Benzanthracene", "1,2-Benzanthrene", "1,2-Benzoanthracene", "Benzoanthracene", "NSC 30970", "Benz(a)anthracenes", "Anthracenes, benz(a)anthracenes", "MeSH ID: D001551"], "SMILES": "C12=C3C(=CC=C1C=C4C(=C2)C=CC=C4)C=CC=C3", "physical_data": {"Molecular Weight": "228.29", "Molecular Formula": "C18H12", "Boiling Point": "437.6 \u00b0C", "Melting Point": "160 \u00b0C", "Density": "1.274 g/cm\u00b3"}}