{"cas_no": "56-53-1", "cn_name": "\u5df1\u70ef\u96cc\u915a", "en_name": ["Diethylstilbestrol", "Phenol, 4,4\u2032-[(1E)-1,2-diethyl-1,2-ethenediyl]bis-", "4,4\u2032-Stilbenediol, \u03b1,\u03b1\u2032-diethyl-, (E)-", "Phenol, 4,4\u2032-(1,2-diethyl-1,2-ethenediyl)bis-, (E)-", "4,4\u2032-Stilbenediol, \u03b1,\u03b1\u2032-diethyl-, trans-", "4,4\u2032-[(1E)-1,2-Diethyl-1,2-ethenediyl]bis[phenol]", "Bio-des", "Comestrol", "Cyren A", "DEB", "DES", "Di-Estryl", "trans-\u03b1,\u03b1\u2032-Diethyl-4,4\u2032-stilbenediol", "Domestrol", "Estilbin MCO", "Estrobene", "Estrosyn", "Fonatol", "Grafestrol", "Hi-Bestrol", "Microest", "Milestrol", "Oestrogenine", "Oestromenin", "Oestromensyl", "Palestrol", "Serral", "Sexocretin", "Sibol", "Stil", "Stilbestrol", "Stilbetin", "Stilboestroform", "Stilboestrol", "Stilkap", "Stil-Rol", "Synthoestrin", "Syntofolin", "trans-Diethylstilbestrol", "Diethylstilbestrol", "Stilboefral", "\u03b1,\u03b1\u2032-Diethyl-4,4\u2032-stilbenediol", "Dawe's destrol solution", "4,4\u2032-Dihydroxy-\u03b1,\u03b2-diethylstilbene", "Bufon", "Antigestil", "Neo-Oestranol I", "Distilbene", "Iscovesco", "Synestrin", "(E)-4,4\u2032-(1,2-Diethyl-1,2-ethenediyl)bisphenol", "\u03b1,\u03b1\u2032-Diethylstilbenediol", "Dawe's destrol", "DiBestrol 2 Premix", "Rumestrol 2", "Rumestrol 1", "4,4\u2032-Dihydroxydiethylstilbene", "Cyren", "Synthofolin", "Pabestrol", "Estromenin", "Menostilbeen", "Agostilben", "DES (synthetic estrogen)", "trans-4,4\u2032-Dihydroxy-\u03b1,\u03b2-diethylstilbene", "(E)-3,4-Bis(4-hydroxyphenyl)-3-hexene", "(E)-Diethylstilbestrol", "Vagestrol", "Oestromon", "NSC 3070", "Bertrol", "trans-\u03b1,\u03b1\u2032-Diethyl-4,4\u2032-dihydroxystilbene", "Estrogenine", "MeSH ID: D004054"], "SMILES": "C(=C(CC)C1=CC=C(O)C=C1)(CC)C2=CC=C(O)C=C2", "physical_data": {"Molecular Weight": "268.35", "Molecular Formula": "C18H20O2", "Melting Point": "169-172 \u00b0C"}}