{"cas_no": "56-54-2", "cn_name": "\u594e\u5c3c\u4e01", "en_name": ["Quinidine", "Cinchonan-9-ol, 6\u2032-methoxy-, (9S)-", "Quinidine", "(9S)-6\u2032-Methoxycinchonan-9-ol", "Conquinine", "Pitayine", "\u03b2-Quinine", "(+)-Quinidine", "Conchinin", "Chinidin", "(8R,9S)-Quinidine", "Pitayin", "Cin-quin", "Kinidin", "Conchinine", "\u03b2-Quinidine", "Quindine", "MeSH ID: D011802"], "SMILES": "C(O)(C=1C2=C(C=CC(OC)=C2)N=CC1)C3N4CC(C=C)C(C3)CC4", "physical_data": {"Molecular Weight": "324.42", "Molecular Formula": "C20H24N2O2", "Melting Point": "174 \u00b0C"}}