{"cas_no": "56-69-9", "cn_name": "5-\u7f9f\u57fa\u8272\u6c28\u9178", "en_name": ["(\u00b1)-5-Hydroxytryptophan", "Tryptophan, 5-hydroxy-", "5-Hydroxytryptophan", "5-Hydroxytryptophane", "5-HTP", "(\u00b1)-5-Hydroxytryptophan", "5-Hydroxy-DL-tryptophan", "DL-Hydroxytryptophan", "DL-5-HTP", "DL-5-Hydroxytryptophan", "NSC 92523", "2-Amino-3-(5-hydroxy-1H-indol-3-yl)propanoic acid", "2-Amino-3-(5-hydroxy-1H-indol-3-yl)propanoicacid"], "SMILES": "C(C(C(O)=O)N)C=1C=2C(NC1)=CC=C(O)C2", "physical_data": {"Molecular Weight": "220.22", "Molecular Formula": "C11H12N2O3", "Melting Point": "298 \u00b0C (decomp)"}}