{"cas_no": "56-75-7", "cn_name": "\u6c2f\u9709\u7d20", "en_name": ["(-)-Chloramphenicol", "Acetamide, 2,2-dichloro-N-[(1R,2R)-2-hydroxy-1-(hydroxymethyl)-2-(4-nitrophenyl)ethyl]-", "Acetamide, 2,2-dichloro-N-[\u03b2-hydroxy-\u03b1-(hydroxymethyl)-p-nitrophenethyl]-, D-threo-(-)-", "Levomycetin", "Acetamide, 2,2-dichloro-N-[2-hydroxy-1-(hydroxymethyl)-2-(4-nitrophenyl)ethyl]-, [R-(R*,R*)]-", "2,2-Dichloro-N-[(1R,2R)-2-hydroxy-1-(hydroxymethyl)-2-(4-nitrophenyl)ethyl]acetamide", "Alficetyn", "Amseclor", "CAF (pharmaceutical)", "CAM", "CAP", "Chemicetina", "Chlomycol", "Chloramphenicol", "Chlorocid", "Chloromycetin", "Chloronitrin", "Cloramicol", "Clorocyn", "Cloromisan", "D-(-)-threo-2-Dichloroacetamido-1-p-nitrophenyl-1,3-propanediol", "D-threo-N-Dichloroacetyl-1-p-nitrophenyl-2-amino-1,3-propanediol", "Enteromycetin", "Farmicetina", "Globenicol", "Ismicetina", "Kemicetine", "Klorita", "Leukomyan", "Levomicetina", "Micloretin", "Microcetina", "D-(-)-threo-1-p-Nitrophenyl-2-dichloracetamido-1,3-propanediol", "Novomycetin", "Paraxin", "Quemicetina", "Sintomicetina", "Sintomicetine R", "Stanomycetin", "Tifomycine", "Treomicetina", "Unimycetin", "Detreomycin", "I 337A", "D-threo-Chloramphenicol", "Chlorocidin C", "CPh", "Chlorocide", "D-(-)-threo-Chloramphenicol", "Klorocid S", "D-Chloramphenicol", "Chlorocidin C tetran", "D-(-)-threo-1-(4-Nitrophenyl)-2-dichloroacetamido-1,3-propanediol", "Chemicetin", "Catilan", "D-threo-(1R,2R)-1-p-Nitrophenyl-2-dichloroacetamido-1,3-propanediol", "D-(-)-Chloramphenicol", "D-(-)-threo-1-p-Nitrophenyl-2-dichloroacetylamino-1,3-propanediol", "Amphicol", "Austracol", "Chloramsaar", "Chlorocaps", "Ciplamycetin", "Cloramficin", "Cylphenicol", "Embacetin", "Enicol", "Intramycetin", "Juvamycetin", "Chloramex", "Fenicol", "Mastiphen", "Septicol", "Opclor", "Pantovernil", "Mychel", "Kamaver", "Leukomycin", "Loromisin", "Mycinol", "Amphenicol", "Levomitsetin", "Ophthochlor", "Normimycin V", "Tevcocin", "Sintomicetin", "Myclocin", "Synthomycetin", "Chloroptic", "Gloveticol", "CAF", "Mycochlorin", "Levovetin", "Mychel-Vet", "Levoplast", "Halcetin", "Soluthor", "(-)-Chloramphenicol", "Levosin", "Levocin", "Ocuphenicol", "Chlorocin", "Chlorasol", "Veticol", "Anacetin", "Viceton", "Cloramfen", "Micoclorina", "Ronphenil", "Aquamycetin", "Ak-Chlor", "Sno Phenicol", "Chloricol", "NSC 3069", "Chlorcetin", "Bradyoxetin", "5: PN: CN114214436 PAGE: 3 claimed sequence", "MeSH ID: D002701"], "SMILES": "C(C(NC(C(Cl)Cl)=O)CO)(O)C1=CC=C(N(=O)=O)C=C1", "physical_data": {"Molecular Weight": "323.13", "Molecular Formula": "C11H12Cl2N2O5", "Melting Point": "150.5-151.5 \u00b0C"}}