{"cas_no": "56-72-4", "cn_name": "\u8747\u6bd2\u78f7", "en_name": ["Coumaphos", "Phosphorothioic acid, O-(3-chloro-4-methyl-2-oxo-2H-1-benzopyran-7-yl) O,O-diethyl ester", "Coumarin, 3-chloro-7-hydroxy-4-methyl-, O-ester with O,O-diethyl phosphorothioate", "Umbelliferone, 3-chloro-4-methyl-, O,O-diethyl phosphorothioate", "ENT 17,957", "Bayer 21/199", "Agridip", "3-Chloro-7-hydroxy-4-methyl-coumarin O,O-diethyl phosphorothioate", "3-Chloro-7-hydroxy-4-methyl-coumarin O-ester with O,O-diethyl phosphorothioate", "O-3-Chloro-4-methyl-7-coumarinyl O,O-diethyl phosphorothioate", "3-Chloro-4-methyl-7-coumarinyl diethyl phosphorothioate", "3-Chloro-4-methyl-7-hydroxycoumarin diethyl thiophosphoric acid ester", "3-Chloro-4-methylumbelliferone O-ester with O,O-diethyl phosphorothioate", "Coumafos", "Coumaphos", "O,O-Diethyl O-(3-chloro-4-methyl-7-coumarinyl) phosphorothioate", "O,O-Diethyl O-(3-chloro-4-methyl-2-oxo-2H-benzopyran-7-yl) phosphorothioate", "O,O-Diethyl O-3-chloro-4-methyl-2-oxo-2H-1-benzopyran-7-yl phosphorothioate", "O,O-Diethyl 3-chloro-4-methyl-7-umbelliferone thiophosphate", "Muscatox", "Asuntol", "Baymix", "Co-ral", "Meldane", "Resitox", "Meldone", "O-(3-Chloro-4-methyl-2-oxo-2H-1-benzopyran-7-yl) O,O-diethyl phosphorothioate", "Baymix 50", "Muscotox", "Perizin", "Koral", "Co-ral (phosphate)", "NSC 8944", "Prince", "MeSH ID: D003372"], "SMILES": "CC=1C=2C(=CC(OP(OCC)(OCC)=S)=CC2)OC(=O)C1Cl", "physical_data": {"Molecular Weight": "362.77", "Molecular Formula": "C14H16ClO5PS", "Melting Point": "91 \u00b0C", "Density": "1.47 g/cm\u00b3 @ Temp: 20 \u00b0C"}}