{"cas_no": "56-85-9", "cn_name": "L-\u8c37\u6c28\u9170\u80fa", "en_name": ["L-Glutamine", "L-Glutamine", "Glutamine, L-", "Glutamic acid amide", "Glutamic acid 5-amide", "Glumin", "Glutamine", "Pentanoic acid, 2,5-diamino-5-oxo-, (S)-", "L-Glutamic acid \u03b3-amide", "\u03b3-Glutamine", "2-Aminoglutaramic acid", "L-2-Aminoglutaramidic acid", "Cebrogen", "Stimulina", "(S)-2,5-Diamino-5-oxopentanoic acid", "L-(+)-Glutamine", "Levoglutamide", "Glumin (amino acid)", "NSC 27421", "Aesgen 14", "Acustasin", "Saforis", "Endari", "(2S)-2-Amino-4-carbamoylbutanoic acid", "(2S)-2,5-Diamino-5-oxopentanoic acid", "12: PN: WO2021055880 SEQID: 13 claimed protein", "47: PN: WO2022204326 SEQID: 81 claimed protein", "MeSH ID: D005973"], "SMILES": "C(CCC(N)=O)(C(O)=O)N", "physical_data": {"Molecular Weight": "146.14", "Molecular Formula": "C5H10N2O3", "Melting Point": "185.5 \u00b0C (decomp)"}}