{"cas_no": "56-86-0", "cn_name": "L-\u8c37\u6c28\u9178", "en_name": ["L-Glutamic acid", "L-Glutamic acid", "Glutamic acid, L-", "Aciglut", "Glusate", "Glutacid", "\u03b1-Glutamic acid", "l-Glutaminic acid", "Glutaminol", "Glutaminic acid", "Glutaton", "Pentanedioic acid, 2-amino-, (S)-", "L-(+)-Glutamic acid", "\u03b1-Aminoglutaric acid", "1-Aminopropane-1,3-dicarboxylic acid", "Glutamic acid", "(S)-(+)-Glutamic acid", "Glutamicol", "Glutamidex", "(S)-Glutamic acid", "(S)-2-Aminopentanedioic acid", "2-Aminoglutaric acid", "(2S)-2-Aminopentanedioic acid", "L-\u03b1-Aminoglutaric acid", "L-Glutaminic acid", "E 620", "NSC 143503", "(S)-2-Amino-1,5-pentanedioic acid", "(+)-L-Glutamic acid", "Sortem", "(2S)-2-Azaniumyl-5-hydroxy-5-oxopentanoate", "9: PN: WO2023056433 PAGE: 60 claimed sequence", "MeSH ID: D018698"], "SMILES": "C(CCC(O)=O)(C(O)=O)N", "physical_data": {"Molecular Weight": "147.13", "Molecular Formula": "C5H9NO4", "Melting Point": "224 \u00b0C (decomp)", "Density": "1.46 g/cm\u00b3"}}