{"cas_no": "56-82-6", "cn_name": "DL-\u7518\u6cb9\u919b\u6676\u4f53", "en_name": ["(\u00b1)-Glyceraldehyde", "Propanal, 2,3-dihydroxy-", "Glyceraldehyde, DL-", "Propanal, 2,3-dihydroxy-, (\u00b1)-", "2,3-Dihydroxypropanal", "DL-Glyceraldehyde", "DL-Glyceric aldehyde", "(\u00b1)-Glyceraldehyde", "dl-Glyceraldehyde", "\u03b1,\u03b2-Dihydroxypropionaldehyde", "Glyceric aldehyde", "Glycerose", "Glyceraldehyde", "2,3-Dihydroxypropionaldehyde", "Glycerinaldehyde", "NSC 67934", "MeSH ID: D005985"], "SMILES": "C(CO)(C=O)O", "physical_data": {"Molecular Weight": "90.08", "Molecular Formula": "C3H6O3", "Melting Point": "145 \u00b0C", "Density": "1.455 g/cm\u00b3 @ Temp: 18 \u00b0C"}}