{"cas_no": "56-89-3", "cn_name": "L-\u80f1\u6c28\u9178", "en_name": ["(-)-Cystine", "L-Cystine", "Cystine, L-", "Bis(\u03b2-amino-\u03b2-carboxyethyl) disulfide", "Cystine acid", "\u03b2,\u03b2\u2032-Diamino-\u03b2,\u03b2\u2032-dicarboxydiethyl disulfide", "Dicysteine", "3,3\u2032-Dithiobis(2-aminopropanoic acid)", "\u03b2,\u03b2\u2032-Dithiodialanine", "Cystine", "L-Cysteine disulfide", "Propanoic acid, 3,3\u2032-dithiobis[2-amino-, [R-(R*,R*)]-", "(-)-Cystine", "L-Cystin", "L-(-)-Cystine", "Oxidized L-cysteine", "[R-(R*,R*)]-3,3\u2032-Dithiobis[2-aminopropanoic acid]", "l-Cystine", "L-Alanine, 3,3\u2032-dithiobis-", "NSC 13203", "MeSH ID: D003553"], "SMILES": "C(CSSCC(C(O)=O)N)(C(O)=O)N", "physical_data": {"Molecular Weight": "240.30", "Molecular Formula": "C6H12N2O4S2", "Melting Point": "260.5 \u00b0C (decomp)", "Density": "1.677 g/cm\u00b3"}}