{"cas_no": "56-88-2", "cn_name": "L-\u80f1\u786b\u919a", "en_name": ["Cystathionine", "L-Homocysteine, S-[(2R)-2-amino-2-carboxyethyl]-", "Cystathionine, L-", "L-Homocysteine, S-(2-amino-2-carboxyethyl)-, (R)-", "Cystathionine", "S-[(2R)-2-Amino-2-carboxyethyl]-L-homocysteine", "L-Cystathionine", "L-(+)-Cystathionine", "Butanoic acid, 2-amino-4-[(2-amino-2-carboxyethyl)thio]-, [R-(R*,S*)]-", "MeSH ID: D003540"], "SMILES": "C(CCSCC(C(O)=O)N)(C(O)=O)N", "physical_data": {"Molecular Weight": "222.26", "Molecular Formula": "C7H14N2O4S", "Melting Point": "312 \u00b0C (decomp)"}}