{"cas_no": "56-81-5", "cn_name": "\u7518\u6cb9", "en_name": ["Glycerol", "1,2,3-Propanetriol", "Glycerol", "Propanetriol", "2-Propanol, 1,3-dihydroxy-", "Glycerin", "Glycerine", "Glyceritol", "Glycyl alcohol", "Trihydroxypropane", "Glyrol", "Glysanin", "Osmoglyn", "1,2,3-Trihydroxypropane", "Pricerine 9091", "Bulbold", "Glyceol Opthalgan", "IFP", "Tryhydroxypropane", "Incorporation factor", "Cristal", "E 422", "Mackstat H 66", "NSC 9230", "RG-S", "Emery 916", "Emery 917", "DG", "Pricerine 9088", "RG", "RG (moisturizing agent)", "GL 300", "G 101", "DG Glycerin", "Glycerin DG", "Cognis G", "M 314429", "Glycerin RG", "Pricerine 9090", "Glycerin S", "Croderol GV 9000", "Oleon Nv", "Palmera G 9091", "Speziol G 86PF", "Kollisolv G 85", "Speziol G 99.8PF", "Kollisolv G 99", "GLY 995", "Advanced Eye Relief", "A 106", "Imex Glycerine", "Glycerin D", "XR-LGLY 20L", "Eyeon Protect", "PZN 7474853", "G 7757", "Purene", "YM 185", "Triol VE", "Triose sugar alcohol", "LY 95", "Civeq", "Ecocerol", "Glycerin 4812", "HY 0", "Superol K", "Dagralax", "PG 40 (glycerol)", "PG 50G", "PG 40", "G 9012", "LBC 3H8O3", "MeSH ID: D073999"], "SMILES": "C(CO)(CO)O", "physical_data": {"Molecular Weight": "92.09", "Molecular Formula": "C3H8O3", "Boiling Point": "290 \u00b0C", "Melting Point": "20 \u00b0C", "Density": "1.2613 g/cm\u00b3 @ Temp: 20 \u00b0C"}}