{"cas_no": "56-87-1", "cn_name": "L-\u8d56\u6c28\u9178", "en_name": ["L-Lysine", "L-Lysine", "Lysine, L-", "Hexanoic acid, 2,6-diamino-, (S)-", "Lysine acid", "Lysine", "2,6-Diaminohexanoic acid", "(S)-\u03b1,\u03b5-Diaminocaproic acid", "L-(+)-Lysine", "Aminutrin", "(S)-2,6-Diaminohexanoic acid", "\u03b1-Lysine", "(S)-Lysine", "(+)-S-Lysine", "L-Norleucine, 6-amino-", "L-2,6-Diaminocaproic acid", "h-Lys-oh", "L-Lys", "Malandil", "Biolys", "LLB 50", "38: PN: WO2020027640 SEQID: 101 claimed protein", "38: PN: KR20200014684 SEQID: 101 claimed sequence", "114: PN: WO2021061872 SEQID: 114 claimed protein", "1: PN: KR20190124854 PAGE: 4 claimed sequence", "520: PN: WO2022056313 SEQID: 536 claimed protein", "365: PN: US20220128567 SEQID: 536 claimed protein", "159: PN: WO2022103927 SEQID: 196 claimed protein", "365: PN: US20220178935 SEQID: 536 claimed protein", "99: PN: WO2022204151 SEQID: 99 claimed protein", "MeSH ID: D008239"], "SMILES": "C(CCCCN)(C(O)=O)N", "physical_data": {"Molecular Weight": "146.19", "Molecular Formula": "C6H14N2O2", "Melting Point": "5-224 \u00b0C (decomp)", "Density": "1.4516 g/cm\u00b3 @ Temp: 45.00 \u00b0C"}}