{"cas_no": "56-95-1", "cn_name": "\u918b\u9178\u6c2f\u5df1\u5b9a", "en_name": ["Chlorhexidine acetate", "2,4,11,13-Tetraazatetradecanediimidamide, N,N\u2032\u2032-bis(4-chlorophenyl)-3,12-diimino-, acetate (1:2)", "Biguanide, 1,1\u2032-hexamethylenebis[5-(p-chlorophenyl)-, diacetate", "2,4,11,13-Tetraazatetradecanediimidamide, N,N\u2032\u2032-bis(4-chlorophenyl)-3,12-diimino-, diacetate", "Chlorhexidine diacetate", "Hibitane diacetate", "1,6-Bis(p-chlorophenylbiguanido)hexane diacetate", "Chlorhexidine acetate", "Bactigras", "Arlacide A", "Chlorzoin", "EC 40", "EC 40 (antibacterial)", "Chlorasept 2000", "NSC 526936", "Dosisepsine", "Jie-Yin Liquid Disinfectant"], "SMILES": "N(C(NC(NCCCCCCNC(NC(NC1=CC=C(Cl)C=C1)=N)=N)=N)=N)C2=CC=C(Cl)C=C2.C(C)(O)=O", "physical_data": {"Molecular Weight": "", "Molecular Formula": "C22H30Cl2N10.2C2H4O2", "Melting Point": "154-155 \u00b0C"}}