{"cas_no": "56-92-8", "cn_name": "\u7ec4\u80fa\u4e8c\u76d0\u9178\u76d0", "en_name": ["Histamine dihydrochloride", "1H-Imidazole-5-ethanamine, hydrochloride (1:2)", "Histamine, dihydrochloride", "1H-Imidazole-4-ethanamine, dihydrochloride", "Histamine dichloride", "4-(2-Aminoethyl)imidazole dihydrochloride", "Histamine hydrochloride", "Histamine chloride", "Histaminediium dichloride", "Peremin", "2-(1H-Imidazol-4-yl)ethylamine dihydrochloride", "Ceplene", "2-(1H-Imidazol-4-yl)ethanamine dihydrochloride", "Histamine dihydrochloride", "2-(4-Imidazolyl)ethylamine dihydrochloride", "2-(1H-Imidazol-4-yl)ethan-1-amine dihydrochloride", "2-(1H-Imidazol-5-yl)ethan-1-amine dihydrochloride"], "SMILES": "C(CN)C1=CN=CN1.Cl", "physical_data": {"Molecular Weight": "", "Molecular Formula": "C5H9N3.2ClH", "Melting Point": "240-243 \u00b0C"}}