{"cas_no": "56-91-7", "cn_name": "4-(\u6c28\u7532\u57fa)\u82ef\u7532\u9178", "en_name": ["4-(Aminomethyl)benzoic acid", "Benzoic acid, 4-(aminomethyl)-", "p-Toluic acid, \u03b1-amino-", "4-(Aminomethyl)benzoic acid", "p-(Aminomethyl)benzoic acid", "Benzylamine-4-carboxylic acid", "PAMBA", "\u03b1-Amino-p-toluic acid", "4-Carboxybenzylamine", "Gumbix", "Styptopur", "p-Carboxybenzylamine", "NSC 41629"], "SMILES": "C(O)(=O)C1=CC=C(CN)C=C1", "physical_data": {"Molecular Weight": "151.16", "Molecular Formula": "C8H9NO2", "Melting Point": "346 \u00b0C"}}