{"cas_no": "56-94-0", "cn_name": "\u5730\u7f8e\u6eb4\u94f5", "en_name": ["Demecarium bromide", "Benzenaminium, 3,3\u2032-[1,10-decanediylbis[(methylimino)carbonyloxy]]bis[N,N,N-trimethyl-, bromide (1:2)", "Ammonium, (m-hydroxyphenyl)trimethyl-, bromide, decamethylenebis[methylcarbamate] (2:1)", "(m-Hydroxyphenyl)trimethylammonium bromide decamethylenebis[methylcarbamate]", "Benzenaminium, 3,3\u2032-[1,10-decanediylbis[(methylimino)carbonyloxy]]bis[N,N,N-trimethyl-, dibromide", "BC 48", "N,N\u2032-Bis[3-trimethylammoniumphenoxycarbonyl]-N,N\u2032-dimethyldecamethylenediamine dibromide", "Decamethylenebis(m-dimethylaminophenyl-N-methylcarbamate) dimethobromide", "Decamethylenebis[N-methylcarbamic acid m-dimethylaminophenyl ester] bromomethylate", "Demecarium bromide", "Demekastigmine bromide", "Humorsol", "Tosmilen", "Tosmilene", "Demekarium bromide", "Frumtosnil", "Tonilen", "Tosmicil", "Visumatic", "Visumiotic"], "SMILES": "O(C(N(CCCCCCCCCCN(C(OC1=CC([N+](C)(C)C)=CC=C1)=O)C)C)=O)C2=CC([N+](C)(C)C)=CC=C2.[Br-]", "physical_data": {"Molecular Weight": "", "Molecular Formula": "C32H52N4O4.2Br", "Melting Point": "162-167 \u00b0C (decomp)"}}