{"cas_no": "56-93-9", "cn_name": "\u82c4\u57fa\u4e09\u7532\u57fa\u6c2f\u5316\u94f5", "en_name": ["Benzyltrimethylammonium chloride", "Benzenemethanaminium, N,N,N-trimethyl-, chloride (1:1)", "Ammonium, benzyltrimethyl-, chloride", "Benzyltrimethylammonium chloride", "Benzenemethanaminium, N,N,N-trimethyl-, chloride", "Trimethylbenzylammonium chloride", "BTM", "TMBAC", "Hipochem Migrator J", "Variquat B 200", "BTMAC 100", "Marcor 716", "BTMAC 50", "Amberlite IRC 178(Cl)"], "SMILES": "C([N+](C)(C)C)C1=CC=CC=C1.[Cl-]", "physical_data": {"Molecular Weight": "", "Molecular Formula": "C10H16N.Cl", "Melting Point": "243 \u00b0C", "Density": "1.07 g/cm\u00b3 @ Temp: 20 \u00b0C"}}