{"cas_no": "560-09-8", "cn_name": "L-\u6a1f\u8111\u9178", "en_name": ["(1S,3R)-1,2,2-Trimethyl-1,3-cyclopentanedicarboxylic acid", "1,3-Cyclopentanedicarboxylic acid, 1,2,2-trimethyl-, (1S,3R)-", "Camphoric acid, cis-(-)-", "1,3-Cyclopentanedicarboxylic acid, 1,2,2-trimethyl-, (1S-cis)-", "(1S,3R)-1,2,2-Trimethyl-1,3-cyclopentanedicarboxylic acid", "(-)-cis-Camphoric acid", "(-)-Camphoric acid", "(1S,3R)-(-)-Camphoric acid", "(1S,3R)-Camphoric acid", "L-Camphoric acid", "l-Camphoric acid", "(1S,3R)-1,2,2-Trimethylcyclopentane-1,3-dicarboxylic acid"], "SMILES": "C(O)(=O)C1(C)C(C)(C)C(C(O)=O)CC1", "physical_data": {"Molecular Weight": "200.23", "Molecular Formula": "C10H16O4", "Melting Point": "181-182 \u00b0C"}}