{"cas_no": "560-62-3", "cn_name": "9-\u7f9f\u57fa\u96c4\u70ef\u4e8c\u916e", "en_name": ["9\u03b1-Hydroxyandrost-4-ene-3,17-dione", "Androst-4-ene-3,17-dione, 9-hydroxy-", "9-Hydroxyandrost-4-ene-3,17-dione", "9\u03b1-Hydroxyandrost-4-ene-3,17-dione", "Androst-4-en-9\u03b1-ol-3,17-dione", "9-Hydroxy-4-androstene-3,17-dione"], "SMILES": "OC12C(C3C(C)(CC1)C(=O)CC3)CCC=4C2(C)CCC(=O)C4", "physical_data": {"Molecular Weight": "302.41", "Molecular Formula": "C19H26O3", "Melting Point": "222-223.5 \u00b0C"}}