{"cas_no": "560-66-7", "cn_name": "\u9f7f\u5b54\u83cc\u9178", "en_name": ["Eburicoic acid", "Lanost-8-en-21-oic acid, 3-hydroxy-24-methylene-, (3\u03b2)-", "Lanost-8-en-21-oic acid, 3\u03b2-hydroxy-24-methylene-", "(3\u03b2)-3-Hydroxy-24-methylenelanost-8-en-21-oic acid", "Eburicoic acid", "3\u03b2-Hydroxy-24-methylene-8-lanosten-21-oic acid", "NSC 41969", "Eburcoic acid"], "SMILES": "CC12C3=C(C4(C)C(CC3)C(C)(C)C(O)CC4)CCC1(C)C(C(CCC(C(C)C)=C)C(O)=O)CC2", "physical_data": {"Molecular Weight": "470.73", "Molecular Formula": "C31H50O3", "Melting Point": "283 \u00b0C"}}