{"cas_no": "5600-21-5", "cn_name": "2-\u6c28\u57fa-4-\u6c2f-6-\u7532\u57fa\u5627\u5576", "en_name": ["2-Amino-4-chloro-6-methylpyrimidine", "2-Pyrimidinamine, 4-chloro-6-methyl-", "Pyrimidine, 2-amino-4-chloro-6-methyl-", "4-Chloro-6-methyl-2-pyrimidinamine", "2-Amino-4-chloro-6-methylpyrimidine", "AM", "AM (nitrification inhibitor)", "NSC 23661", "NSC 7892", "2-Amino-6-chloro-4-methylpyrimidine", "4-Chloro-6-methylpyrimidin-2-ylamine"], "SMILES": "CC=1C=C(Cl)N=C(N)N1", "physical_data": {"Molecular Weight": "143.57", "Molecular Formula": "C5H6ClN3", "Melting Point": "182-183 \u00b0C"}}