{"cas_no": "5600-62-4", "cn_name": "4-(4-\u785d\u57fa\u82ef\u57fa)\u4e01\u9178", "en_name": ["4-Nitrobenzenebutanoic acid", "Benzenebutanoic acid, 4-nitro-", "Butyric acid, 4-(p-nitrophenyl)-", "4-Nitrobenzenebutanoic acid", "4-(p-Nitrophenyl)butyric acid", "p-Nitrobenzenebutyric acid", "4-(4-Nitrophenyl)butanoic acid", "4-(4-Nitrophenyl)butyric acid", "4-(p-Nitrophenyl)butanoic acid", "NSC 78455"], "SMILES": "C(CCC(O)=O)C1=CC=C(N(=O)=O)C=C1", "physical_data": {"Molecular Weight": "209.20", "Molecular Formula": "C10H11NO4", "Melting Point": "92 \u00b0C"}}