{"cas_no": "56011-02-0", "cn_name": "2-(3-\u7532\u57fa\u4e01\u6c27\u57fa)\u4e59\u82ef", "en_name": ["Phenylethyl isoamyl ether", "Benzene, [2-(3-methylbutoxy)ethyl]-", "[2-(3-Methylbutoxy)ethyl]benzene", "Phenylethyl isoamyl ether", "Isoamyl phenethyl ether", "Anther", "Anther (ether)", "2-Phenylethyl isoamyl ether"], "SMILES": "C(COCCC(C)C)C1=CC=CC=C1", "physical_data": {"Molecular Weight": "192.30", "Molecular Formula": "C13H20O", "Boiling Point": "112-114 \u00b0C @ Press: 8 Torr"}}