{"cas_no": "5602-96-0", "cn_name": "4-\u7532\u57fa\u4e59\u9170\u82ef\u80fa", "en_name": ["Carbamic acid, N-(4-methylphenyl)-, methyl ester", "Carbamic acid, N-(4-methylphenyl)-, methyl ester", "Carbamic acid, (4-methylphenyl)-, methyl ester", "Carbanilic acid, p-methyl-, methyl ester", "Methyl p-tolylcarbamate", "Methyl (4-methylphenyl)carbamate", "Methyl N-p-tolylcarbamate", "Methyl p-methylcarbanilate", "Methyl (p-methylphenyl)carbamate", "Methyl N-(4-methylphenyl)carbamate", "(4-Methylphenyl)carbamic acid methyl ester"], "SMILES": "N(C(OC)=O)C1=CC=C(C)C=C1", "physical_data": {"Molecular Weight": "165.19", "Molecular Formula": "C9H11NO2", "Melting Point": "98-99 \u00b0C"}}