{"cas_no": "56038-13-2", "cn_name": "\u4e09\u6c2f\u8517\u7cd6", "en_name": ["Sucralose", "\u03b1-D-Galactopyranoside, 1,6-dichloro-1,6-dideoxy-\u03b2-D-fructofuranosyl 4-chloro-4-deoxy-", "1,6-Dichloro-1,6-dideoxy-\u03b2-D-fructofuranosyl 4-chloro-4-deoxy-\u03b1-D-galactopyranoside", "1\u2032,4,6\u2032-Trichlorogalactosucrose", "4,1\u2032,6\u2032-Trichloro-4,1\u2032,6\u2032-trideoxygalactosucrose", "Sucralose", "Splenda", "Aspasvit", "Sansweet SU 100", "TGS", "Acucar Light", "San Sweet SA 8020", "Sucrazit", "Sansweet", "Predillon SU 600", "Sansweet SU 200"], "SMILES": "O(C1(CCl)OC(CCl)C(O)C1O)C2OC(CO)C(Cl)C(O)C2O", "physical_data": {"Molecular Weight": "397.63", "Molecular Formula": "C12H19Cl3O8", "Melting Point": "130 \u00b0C"}}