{"cas_no": "56041-57-7", "cn_name": "2,3-\u4e8c\u6c2f\u82ef\u4e59\u916e", "en_name": ["1-(2,3-Dichlorophenyl)ethanone", "Ethanone, 1-(2,3-dichlorophenyl)-", "1-(2,3-Dichlorophenyl)ethanone", "2\u2032,3\u2032-Dichloroacetophenone", "2,3-Dichloroacetophenone", "1-(2,3-Dichlorophenyl)ethan-1-one"], "SMILES": "C(C)(=O)C1=C(Cl)C(Cl)=CC=C1", "physical_data": {"Molecular Weight": "189.04", "Molecular Formula": "C8H6Cl2O", "Melting Point": "125-127 \u00b0C"}}