{"cas_no": "56057-25-1", "cn_name": "6-\u7532\u57fa4-\u6c2e\u6742-\u5432\u54da-2-\u916e", "en_name": ["1,3-Dihydro-7-methyl-2H-pyrrolo[3,2-b]pyridin-2-one", "2H-Pyrrolo[3,2-b]pyridin-2-one, 1,3-dihydro-7-methyl-", "1,3-Dihydro-7-methyl-2H-pyrrolo[3,2-b]pyridin-2-one"], "SMILES": "CC1=C2C(CC(=O)N2)=NC=C1", "physical_data": {"Molecular Weight": "148.16", "Molecular Formula": "C8H8N2O", "Melting Point": "264 \u00b0C (decomp)"}}