{"cas_no": "56069-39-7", "cn_name": "\u82ef\u781c\u57fa\u7532\u57fa\u81a6\u9178\u4e8c\u4e59\u916f", "en_name": ["Diethyl P-[(phenylsulfonyl)methyl]phosphonate", "Phosphonic acid, P-[(phenylsulfonyl)methyl]-, diethyl ester", "Phosphonic acid, [(phenylsulfonyl)methyl]-, diethyl ester", "Diethyl P-[(phenylsulfonyl)methyl]phosphonate", "Diethyl (phenylsulfonyl)methanephosphonate", "Diethyl (phenylsulfonyl)methylphosphonate"], "SMILES": "P(CS(=O)(=O)C1=CC=CC=C1)(OCC)(OCC)=O", "physical_data": {"Molecular Weight": "292.29", "Molecular Formula": "C11H17O5PS", "Boiling Point": "182-184 \u00b0C @ Press: 0.25 Torr", "Melting Point": "145-148 \u00b0C"}}