{"cas_no": "56073-07-5", "cn_name": "\u9f20\u5f97\u514b", "en_name": ["Difenacoum", "2H-1-Benzopyran-2-one, 3-(3-[1,1\u2032-biphenyl]-4-yl-1,2,3,4-tetrahydro-1-naphthalenyl)-4-hydroxy-", "3-(3-[1,1\u2032-Biphenyl]-4-yl-1,2,3,4-tetrahydro-1-naphthalenyl)-4-hydroxy-2H-1-benzopyran-2-one", "Difenacoum", "Neosorexa", "Diphenacoum", "Ratak"], "SMILES": "OC1=C(C2C=3C(CC(C2)C4=CC=C(C=C4)C5=CC=CC=C5)=CC=CC3)C(=O)OC=6C1=CC=CC6", "physical_data": {"Molecular Weight": "444.52", "Molecular Formula": "C31H24O3", "Melting Point": "228-232 \u00b0C"}}