{"cas_no": "56077-28-2", "cn_name": "2-\u6eb4-1-\u73af\u5df1\u57fa\u4e59\u916e", "en_name": ["2-Bromo-1-cyclohexylethanone", "Ethanone, 2-bromo-1-cyclohexyl-", "Ketone, bromomethyl cyclohexyl", "2-Bromo-1-cyclohexylethanone", "Bromomethyl cyclohexyl ketone", "Cyclohexyl bromomethyl ketone", "(Bromoacetyl)cyclohexane", "1-Bromo-2-cyclohexylethan-2-one", "2-Bromo-1-cyclohexylethan-1-one"], "SMILES": "C(CBr)(=O)C1CCCCC1", "physical_data": {"Molecular Weight": "205.09", "Molecular Formula": "C8H13BrO", "Boiling Point": "124-125 \u00b0C @ Press: 25 Torr", "Melting Point": "-3.5-2 \u00b0C", "Density": "1.3616 g/cm\u00b3 @ Temp: 12 \u00b0C"}}