{"cas_no": "56073-10-0", "cn_name": "\u6eb4\u9f20\u7075", "en_name": ["Brodifacoum", "2H-1-Benzopyran-2-one, 3-[3-(4\u2032-bromo[1,1\u2032-biphenyl]-4-yl)-1,2,3,4-tetrahydro-1-naphthalenyl]-4-hydroxy-", "3-[3-(4\u2032-Bromo[1,1\u2032-biphenyl]-4-yl)-1,2,3,4-tetrahydro-1-naphthalenyl]-4-hydroxy-2H-1-benzopyran-2-one", "BFC", "Brodifacoum", "WBA 8119", "Talon", "Volid", "Klerat", "Brodimat", "Talon (rodenticide)", "Klerat Block", "Brodimax Forte Pasta"], "SMILES": "OC1=C(C2C=3C(CC(C2)C4=CC=C(C=C4)C5=CC=C(Br)C=C5)=CC=CC3)C(=O)OC=6C1=CC=CC6", "physical_data": {"Molecular Weight": "523.42", "Molecular Formula": "C31H23BrO3", "Melting Point": "201-205 \u00b0C (decomp)"}}