{"cas_no": "56079-16-4", "cn_name": "1,3,5-\u4e09\u7532\u57fa-1-H-\u5421\u5511-4-\u7532\u9178\u4e59\u916f", "en_name": ["Ethyl 1,3,5-trimethyl-1H-pyrazole-4-carboxylate", "1H-Pyrazole-4-carboxylic acid, 1,3,5-trimethyl-, ethyl ester", "Ethyl 1,3,5-trimethyl-1H-pyrazole-4-carboxylate", "4-Carbethoxy-1,3,5-trimethylpyrazole", "1,3,5-Trimethyl-4-ethoxycarbonylpyrazole"], "SMILES": "C(OCC)(=O)C1=C(C)N(C)N=C1C", "physical_data": {"Molecular Weight": "182.22", "Molecular Formula": "C9H14N2O2", "Boiling Point": "53-55 \u00b0C @ Press: 0.5 Torr", "Melting Point": "37 \u00b0C"}}