{"cas_no": "5608-13-9", "cn_name": "4-\u4e59\u9170\u80fa\u57fa-5-\u6c2f-N-(2-(\u4e8c\u4e59\u6c28\u57fa)\u4e59\u57fa)-2-\u7532\u6c27\u57fa\u82ef\u7532\u9170\u80fa", "en_name": ["4-(Acetylamino)-5-chloro-N-[2-(diethylamino)ethyl]-2-methoxybenzamide", "Benzamide, 4-(acetylamino)-5-chloro-N-[2-(diethylamino)ethyl]-2-methoxy-", "m-Acetanisidide, 6\u2032-chloro-4\u2032-[[2-(diethylamino)ethyl]carbamoyl]-", "4-(Acetylamino)-5-chloro-N-[2-(diethylamino)ethyl]-2-methoxybenzamide", "N-[2-(Diethylamino)ethyl]-2-methoxy-4-acetamido-5-chlorobenzamide", "4-Acetamido-5-chloro-N-[2-(diethylamino)ethyl]-2-methoxybenzamide"], "SMILES": "C(NCCN(CC)CC)(=O)C1=C(OC)C=C(NC(C)=O)C(Cl)=C1", "physical_data": {"Molecular Weight": "341.83", "Molecular Formula": "C16H24ClN3O3", "Melting Point": "86-87 \u00b0C"}}