{"cas_no": "56090-54-1", "cn_name": "\u4e09\u805a\u7518\u6cb9", "en_name": ["Triglycerol", "Triglycerol", "Triglycerin", "Glycerol trimer", "Great Oil TR 1", "PGL 03P", "Triglycerin S", "PGL-S"], "SMILES": "", "physical_data": {"Molecular Weight": "", "Molecular Formula": "C9H20O7", "Melting Point": "98-99 \u00b0C", "Density": "1.2805 g/cm\u00b3 @ Temp: 20 \u00b0C"}}