{"cas_no": "56092-82-1", "cn_name": "\u7f57\u7ea2\u9709\u7d20\u9499\u76d0(\u94fe\u9709\u83cc\u5c5e\u8f7d\u4f53)", "en_name": ["10,16-Docosadienoic acid, 11,19,21-trihydroxy-4,6,8,12,14,18,20-heptamethyl-22-[(2S,2\u2032R,5S,5\u2032S)-octahydro-5\u2032-[(1R)-1-hydroxyethyl]-2,5\u2032-dimethyl[2,2\u2032-bifuran]-5-yl]-9-oxo-, calcium salt (1:1), (4R,6S,8S,10Z,12R,14R,16E,18R,19R,20S,21S)-", "10,16-Docosadienoic acid, 11,19,21-trihydroxy-4,6,8,12,14,18,20-heptamethyl-22-[(2S,2\u2032R,5S,5\u2032S)-octahydro-5\u2032-[(1R)-1-hydroxyethyl]-2,5\u2032-dimethyl[2,2\u2032-bifuran]-5-yl]-9-oxo-, calcium salt (1:1), (4R,6S,8S,10Z,12R,14R,16E,18R,19R,20S,21S)-", "Ionomycin, calcium salt (1:1)", "Calcium ionomycin"], "SMILES": "CC1(OC(CC(C(C(C(C=CCC(CC(C(=CC(C(CC(CC(CCC(O)=O)C)C)C)=O)O)C)C)C)O)C)O)CC1)C2OC(C(C)O)(C)CC2.[Ca]", "physical_data": {"Molecular Weight": "", "Molecular Formula": "C41H72O9.Ca", "Melting Point": "199-200 \u00b0C"}}