{"cas_no": "561-20-6", "cn_name": "\u785d\u57fa\u9a6c\u94b1\u5b50\u78b1", "en_name": ["Cacotheline", "17-Norcuran-16-propanoic acid, 19,20-didehydro-\u03b2,18-epoxy-10,11-dihydro-12-nitro-10,11-dioxo-, (\u03b2S,16\u03b2)-", "Cacotheline", "9,10-Secostrychnidin-10-oic acid, 2,3-dihydro-4-nitro-2,3-dioxo-", "(\u03b2S,16\u03b2)-19,20-Didehydro-\u03b2,18-epoxy-10,11-dihydro-12-nitro-10,11-dioxo-17-norcuran-16-propanoic acid", "Kacotheline", "7,9-Methano-7H-oxepino[3,4-a]pyrrolo[2,3-d]carbazole-13-acetic acid, 2,3,5,6,7a,8,8a,11,13,13a,13b,14-dodecahydro-1-nitro-2,3-dioxo-, (4bS,7S,7aS,8aR,13S,13aR,13bS)-", "NSC 5069"], "SMILES": "C(C(O)=O)C1C2C3C4(C=5C(N3)=C(N(=O)=O)C(=O)C(=O)C5)C6N(CC4)CC(C2C6)=CCO1", "physical_data": {"Molecular Weight": "427.41", "Molecular Formula": "C21H21N3O7", "Melting Point": "&gt;300 \u00b0C"}}