{"cas_no": "56107-02-9", "cn_name": "4-\u6c2f-3-\u785d\u57fa\u4e8c\u82ef\u7532\u916e", "en_name": ["4-Chloro-3-nitrobenzophenone", "Methanone, (4-chloro-3-nitrophenyl)phenyl-", "Benzophenone, 4-chloro-3-nitro-", "(4-Chloro-3-nitrophenyl)phenylmethanone", "3-Nitro-4-chlorobenzophenone", "4-Chloro-3-nitrobenzophenone", "NSC 102519"], "SMILES": "C(=O)(C1=CC(N(=O)=O)=C(Cl)C=C1)C2=CC=CC=C2", "physical_data": {"Molecular Weight": "261.66", "Molecular Formula": "C13H8ClNO3", "Boiling Point": "235 \u00b0C @ Press: 13 Torr", "Melting Point": "105 \u00b0C"}}