{"cas_no": "5610-40-2", "cn_name": "\u4e00\u53f6\u79cb\u78b1", "en_name": ["(-)-Securinine", "8H-6,11b-Methanofuro[2,3-c]pyrido[1,2-a]azepin-2(6H)-one, 9,10,11,11a-tetrahydro-, (6S,11aR,11bS)-", "Securinine, (-)-", "Securinine", "Securinan-11-one", "6,10-Methanopyrido[1,2-a]azepine-\u03949(6H),\u03b1-acetic acid, 1,2,3,4,10,10a-hexahydro-10-hydroxy-, \u03b3-lactone", "(6S,11aR,11bS)-9,10,11,11a-Tetrahydro-8H-6,11b-methanofuro[2,3-c]pyrido[1,2-a]azepin-2(6H)-one", "Securinin", "(-)-Securinine", "l-Securinine", "NSC 107413"], "SMILES": "O=C1OC23C4N(C(C2)C=CC3=C1)CCCC4", "physical_data": {"Molecular Weight": "217.26", "Molecular Formula": "C13H15NO2", "Melting Point": "142-143 \u00b0C"}}