{"cas_no": "5611-51-8", "cn_name": "\u5df1\u66f2\u5b89\u5948\u5fb7", "en_name": ["Triamcinolone hexacetonide", "Pregna-1,4-diene-3,20-dione, 21-(3,3-dimethyl-1-oxobutoxy)-9-fluoro-11-hydroxy-16,17-[(1-methylethylidene)bis(oxy)]-, (11\u03b2,16\u03b1)-", "Pregna-1,4-diene-3,20-dione, 9-fluoro-11\u03b2,16\u03b1,17,21-tetrahydroxy-, cyclic 16,17-acetal with acetone, 21-(3,3-dimethylbutyrate)", "Butyric acid, 3,3-dimethyl-, 21-ester with 9-fluoro-11\u03b2,16\u03b1,17,21-tetrahydroxypregna-1,4-diene-3,20-dione cyclic 16,17-acetal with acetone", "(11\u03b2,16\u03b1)-21-(3,3-Dimethyl-1-oxobutoxy)-9-fluoro-11-hydroxy-16,17-[(1-methylethylidene)bis(oxy)]pregna-1,4-diene-3,20-dione", "CL 34433", "Aristospan", "TATBA", "Triamcinolone hexacetonide", "Triamcinolone acetonide 21-tert-butylacetate", "Lederspan", "Hexatrione", "Lederlon", "Triamcinolone acetonide tert-butyl acetate"], "SMILES": "C(COC(CC(C)(C)C)=O)(=O)C12C3(C)C(CC1OC(C)(C)O2)C4C(F)(C(O)C3)C5(C)C(CC4)=CC(=O)C=C5", "physical_data": {"Molecular Weight": "532.64", "Molecular Formula": "C30H41FO7", "Melting Point": "295 \u00b0C"}}