{"cas_no": "56129-55-6", "cn_name": "1-(3-\u5421\u5576)\u4e59\u80fa", "en_name": ["\u03b1-Methyl-3-pyridinemethanamine", "3-Pyridinemethanamine, \u03b1-methyl-", "Pyridine, 3-(1-aminoethyl)-", "\u03b1-Methyl-3-pyridinemethanamine", "1-(3-Pyridyl)ethylamine", "1-(3\u2032-Pyridyl)-1-aminoethane", "3-(1-Aminoethyl)pyridine", "(\u00b1)-3-(1-Aminoethyl)pyridine", "(\u00b1)-1-(3-Pyridyl)ethylamine", "[1-(Pyridin-3-yl)ethyl]amine", "1-(Pyridin-3-yl)ethanamine", "1-(3-Pyridyl)ethanamine", "1-(Pyridin-3-yl)ethan-1-amine"], "SMILES": "C(C)(N)C=1C=CC=NC1", "physical_data": {"Molecular Weight": "122.17", "Molecular Formula": "C7H10N2", "Boiling Point": "118-120 \u00b0C @ Press: 14 Torr", "Melting Point": "63 \u00b0C", "Density": "1.014 g/cm\u00b3 @ Temp: 25 \u00b0C"}}