{"cas_no": "56121-42-7", "cn_name": "\u91d1\u8272\u9170\u80fa\u9187\u916f", "en_name": ["Aurantiamide acetate", "Benzenepropanamide, N-[(1S)-1-[(acetyloxy)methyl]-2-phenylethyl]-\u03b1-(benzoylamino)-, (\u03b1S)-", "Benzenepropanamide, N-[1-[(acetyloxy)methyl]-2-phenylethyl]-\u03b1-(benzoylamino)-, [S-(R*,R*)]-", "(\u03b1S)-N-[(1S)-1-[(Acetyloxy)methyl]-2-phenylethyl]-\u03b1-(benzoylamino)benzenepropanamide", "O-Acetyl-N-(N\u2032-benzoyl-L-phenylalanyl)-L-phenylalaninol", "Asperglaucide", "Aurantiamide acetate", "Lyciumamide", "Saropeptate", "Sarapeptate", "Tifentai", "Matijin-Su", "(2S)-2-[[(2S)-2-Benzamido-3-phenylpropanoyl]amino]-3-phenylpropyl acetate", "Repensine"], "SMILES": "C(CC1=CC=CC=C1)(C(NC(CC2=CC=CC=C2)COC(C)=O)=O)NC(=O)C3=CC=CC=C3", "physical_data": {"Molecular Weight": "444.52", "Molecular Formula": "C27H28N2O4", "Melting Point": "182-183.5 \u00b0C"}}