{"cas_no": "5613-46-7", "cn_name": "2,2-\u53cc(4-\u7f9f\u57fa-3,5-\u4e8c\u7532\u57fa\u82ef\u57fa)\u4e19\u70f7", "en_name": ["2,2-Bis(3,5-dimethyl-4-hydroxyphenyl)propane", "Phenol, 4,4\u2032-(1-methylethylidene)bis[2,6-dimethyl-", "2,6-Xylenol, 4,4\u2032-isopropylidenedi-", "4,4\u2032-(1-Methylethylidene)bis[2,6-dimethylphenol]", "2,2-Bis(4-hydroxy-3,5-dimethylphenyl)propane", "4,4\u2032-Isopropylidenedi-2,6-xylenol", "Bisxylenol A", "2,2-Bis(3,5-dimethyl-4-hydroxyphenyl)propane", "4,4\u2032-Isopropylidenebis(2,6-dimethylphenol)", "Tetramethylbisphenol A", "3,3\u2032,5,5\u2032-Tetramethyl-4,4\u2032-dihydroxydiphenyl-2,2-propane", "NSC 73730", "Bis(3,5-dimethyl-4-hydroxyphenyl)isopropylidene", "2,2-Bis(4-hydrox-3,5-dimethylphenyl)propane", "BP 26XA", "3,3\u2032,5,5\u2032-Tetramethyl-4,4\u2032-bisphenol A", "TMBPA"], "SMILES": "C(C)(C)(C1=CC(C)=C(O)C(C)=C1)C2=CC(C)=C(O)C(C)=C2", "physical_data": {"Molecular Weight": "284.39", "Molecular Formula": "C19H24O2", "Melting Point": "164-165 \u00b0C"}}