{"cas_no": "56136-84-6", "cn_name": "4',5'-\u4e9a\u7532\u57fa\u4e8c\u6c27-2'-\u785d\u57fa\u82ef\u4e59\u916e", "en_name": ["1-(6-Nitro-1,3-benzodioxol-5-yl)ethanone", "Ethanone, 1-(6-nitro-1,3-benzodioxol-5-yl)-", "1-(6-Nitro-1,3-benzodioxol-5-yl)ethanone", "3,4-(Methylenedioxy)-6-nitroacetophenone", "4\u2032,5\u2032-Methylenedioxy-2\u2032-nitroacetophenone", "1-(6-Nitro-2H-1,3-benzodioxol-5-yl)ethan-1-one", "1-(6-Nitro-1,3-dioxaindan-5-yl)ethan-1-one"], "SMILES": "C(C)(=O)C1=C(N(=O)=O)C=C2C(=C1)OCO2", "physical_data": {"Molecular Weight": "209.16", "Molecular Formula": "C9H7NO5", "Melting Point": "122.5-123.5 \u00b0C"}}