{"cas_no": "561304-41-4", "cn_name": "2-\u6c28\u57fa-3-(\u4e09\u6c1f\u7532\u6c27\u57fa)\u82ef\u7532\u9178", "en_name": ["2-Amino-3-(trifluoromethoxy)benzoic acid", "Benzoic acid, 2-amino-3-(trifluoromethoxy)-", "2-Amino-3-(trifluoromethoxy)benzoic acid", "2-Amino-3-trifluoromethoxybenzoic acid"], "SMILES": "O(C(F)(F)F)C1=C(N)C(C(O)=O)=CC=C1", "physical_data": {"Molecular Weight": "221.13", "Molecular Formula": "C8H6F3NO3", "Melting Point": "99-101 \u00b0C"}}