{"cas_no": "56133-86-9", "cn_name": "2,5-\u4e8c\u6c2f\u82ef\u4e59\u80fa", "en_name": ["2,5-Dichlorobenzeneethanamine", "Benzeneethanamine, 2,5-dichloro-", "Phenethylamine, 2,5-dichloro-", "2,5-Dichlorobenzeneethanamine", "2,5-Dichlorophenylethylamine", "2,5-Dichlorophenethylamine", "2-(2,5-Dichlorophenyl)ethanamine", "2-(2,5-Dichlorophenyl)ethan-1-amine"], "SMILES": "C(CN)C1=C(Cl)C=CC(Cl)=C1", "physical_data": {"Molecular Weight": "190.07", "Molecular Formula": "C8H9Cl2N", "Boiling Point": "132-134 \u00b0C @ Press: 10 Torr"}}