{"cas_no": "5614-37-9", "cn_name": "\u73af\u620a\u57fa\u7532\u919a", "en_name": ["Cyclopentyl methyl ether", "Cyclopentane, methoxy-", "Ether, cyclopentyl methyl", "Methoxycyclopentane", "Cyclopentyl methyl ether", "Methyl cyclopentyl ether", "CPME", "H 27349"], "SMILES": "O(C)C1CCCC1", "physical_data": {"Molecular Weight": "100.16", "Molecular Formula": "C6H12O", "Boiling Point": "105.44 \u00b0C @ Press: 760 Torr"}}