{"cas_no": "5616-32-0", "cn_name": "\u7532\u80fa\u57fa\u4e59\u6c30", "en_name": ["(Methylamino)acetonitrile", "Acetonitrile, 2-(methylamino)-", "Glycinonitrile, N-methyl-", "Acetonitrile, (methylamino)-", "2-(Methylamino)acetonitrile", "(Methylamino)acetonitrile", "Sarcosinonitrile", "N-(Methylamino)acetonitrile", "Methyl(cyanomethyl)amine", "NSC 99320"], "SMILES": "C(C#N)NC", "physical_data": {"Molecular Weight": "70.09", "Molecular Formula": "C3H6N2", "Boiling Point": "95-100 \u00b0C @ Press: 0.2 Torr", "Density": "0.9171 g/cm\u00b3 @ Temp: 25 \u00b0C"}}