{"cas_no": "5616-51-3", "cn_name": "2-\u7532\u57fa-1,3-\u4e8c\u786b\u620a\u73af", "en_name": ["2-Methyl-1,3-dithiolane", "1,3-Dithiolane, 2-methyl-", "2-Methyl-1,3-dithiolane", "2-Methyl-1,3-dithiacyclopentane", "NSC 227863", "1,3-Dithia-2-methylcyclopentane"], "SMILES": "CC1SCCS1", "physical_data": {"Molecular Weight": "120.24", "Molecular Formula": "C4H8S2", "Boiling Point": "66-67 \u00b0C @ Press: 15 Torr", "Density": "1.1510 g/cm\u00b3 @ Temp: 20 \u00b0C"}}