{"cas_no": "56177-80-1", "cn_name": "2-\u4e59\u6c27\u57fa-5-\u6c1f\u5c3f\u5627\u5576", "en_name": ["2-Ethoxy-5-fluoro-4(3H)-pyrimidinone", "4(3H)-Pyrimidinone, 2-ethoxy-5-fluoro-", "4(1H)-Pyrimidinone, 2-ethoxy-5-fluoro-", "2-Ethoxy-5-fluoro-4(3H)-pyrimidinone", "2-Ethoxy-5-fluoropyrimidin-4-ol", "2-Ethoxy-5-fluoro-3,4-dihydropyrimidin-4-one", "2-Ethoxy-5-fluoro-1H-pyrimidin-6-one", "2-Ethoxy-5-fluoro-1,4-dihydropyrimidin-4-one"], "SMILES": "O(CC)C=1NC(=O)C(F)=CN1", "physical_data": {"Molecular Weight": "158.13", "Molecular Formula": "C6H7FN2O2", "Melting Point": "182-183 \u00b0C"}}