{"cas_no": "5617-32-3", "cn_name": "\u4e03\u805a\u4e59\u4e8c\u9187", "en_name": ["Heptaethylene glycol", "3,6,9,12,15,18-Hexaoxaeicosane-1,20-diol", "Heptaethylene glycol", "3,6,9,12,15,18-Hexaoxaicosane-1,20-diol", "2-[2-[2-[2-[2-[2-(2-Hydroxyethoxy)ethoxy]ethoxy]ethoxy]ethoxy]ethoxy]ethanol"], "SMILES": "C(COCCOCCOCCO)OCCOCCOCCO", "physical_data": {"Molecular Weight": "326.38", "Molecular Formula": "C14H30O8", "Boiling Point": "241-244 \u00b0C"}}