{"cas_no": "5617-41-4", "cn_name": "\u5e9a\u57fa\u73af\u5df2\u70f7", "en_name": ["Heptylcyclohexane", "Cyclohexane, heptyl-", "Heptane, 1-cyclohexyl-", "Heptylcyclohexane", "n-Heptylcyclohexane", "1-Cyclohexylheptane", "NSC 102802"], "SMILES": "C(CCCCCC)C1CCCCC1", "physical_data": {"Molecular Weight": "182.35", "Molecular Formula": "C13H26", "Boiling Point": "244 \u00b0C", "Melting Point": "-30 \u00b0C", "Density": "0.8124 g/cm\u00b3 @ Temp: 20 \u00b0C"}}