{"cas_no": "56187-04-3", "cn_name": "N,N',N''-\u4e09(\u5bf9\u7532\u82ef\u78fa\u9170)\u4e8c\u4e59\u6491\u4e09\u80fa", "en_name": ["4-Methyl-N,N-bis[2-[[(4-methylphenyl)sulfonyl]amino]ethyl]benzenesulfonamide", "Benzenesulfonamide, 4-methyl-N,N-bis[2-[[(4-methylphenyl)sulfonyl]amino]ethyl]-", "4-Methyl-N,N-bis[2-[[(4-methylphenyl)sulfonyl]amino]ethyl]benzenesulfonamide", "N,N\u2032,N\u2032\u2032-Tris(p-tolylsulfonyl)diethylenetriamine", "N,N\u2032,N\u2032\u2032-Tritosyldiethylenetriamine", "N,N\u2032,N\u2032\u2032-Tris(4-tolylsulfonyl)diethylenetriamine", "Diethylenetriamine tritosylate", "1,4,7-Tris(p-tolylsulfonyl)-1,4,7-triazaheptane", "1,4,7-Tris(p-toluenesulfonyl)-1,4,7-triazaheptane", "1,4,7-Tritosyl-1,4,7-triazaheptane", "N,N\u2032,N\u2032\u2032-Tris(p-tolylsulfonyl)-3-azapentane-1,5-diamine", "NSC 245019", "NSC 249331", "NSC 694885", "N,N\u2032,N\u2032\u2032-Tris(p-toluenesulfonyl)diethylenetriamine", "N,N\u2032,N\u2032\u2032-Tri(toluene-4-sulfonyl)diethylenetriamine"], "SMILES": "S(N(CCNS(=O)(=O)C1=CC=C(C)C=C1)CCNS(=O)(=O)C2=CC=C(C)C=C2)(=O)(=O)C3=CC=C(C)C=C3", "physical_data": {"Molecular Weight": "565.73", "Molecular Formula": "C25H31N3O6S3", "Melting Point": "174.6 \u00b0C"}}