{"cas_no": "56196-53-3", "cn_name": "\u4e59\u57fa-4-\u8f9b\u9178\u7532\u916f", "en_name": ["Oryctalure", "Octanoic acid, 4-methyl-, ethyl ester", "Ethyl 4-Methyloctanoate", "Oryctalure"], "SMILES": "C(CCC(OCC)=O)(CCCC)C", "physical_data": {"Molecular Weight": "186.29", "Molecular Formula": "C11H22O2", "Boiling Point": "140 \u00b0C @ Press: 17 Torr"}}