{"cas_no": "5619-07-8", "cn_name": "DL-\u82ef\u57fa\u4e19\u6c28\u9178\u7532\u916f\u76d0\u9178\u76d0", "en_name": ["Phenylalanine, methyl ester, hydrochloride (1:1)", "Phenylalanine, methyl ester, hydrochloride (1:1)", "Alanine, phenyl-, methyl ester, hydrochloride, DL-", "DL-Phenylalanine, methyl ester, hydrochloride", "Phenylalanine, methyl ester, hydrochloride", "(\u00b1)-Phenylalanine methyl ester hydrochloride", "Methyl DL-phenylalaninate hydrochloride", "Methyl 2-amino-3-phenylpropanoate hydrochloride"], "SMILES": "C(C(C(OC)=O)N)C1=CC=CC=C1.Cl", "physical_data": {"Molecular Weight": "", "Molecular Formula": "C10H13NO2.ClH", "Melting Point": "159-160 \u00b0C"}}