{"cas_no": "5619-04-5", "cn_name": "DL-\u4e1d\u6c28\u9178\u7532\u916f\u76d0\u9178\u76d0", "en_name": ["Serine, methyl ester, hydrochloride (1:1)", "Serine, methyl ester, hydrochloride (1:1)", "Serine, methyl ester, hydrochloride, DL-", "DL-Serine, methyl ester, hydrochloride", "Serine, methyl ester, hydrochloride", "Methyl 2-amino-3-hydroxypropionate hydrochloride", "Methyl D,L-serinate hydrochloride", "Methyl 2-amino-3-hydroxypropanoate hydrochloride", "2-Amino-3-hydroxy-propionic acid methyl ester", "hydrochloride", "Methyl DL-serinate hydrochloride"], "SMILES": "C(C(OC)=O)(CO)N.Cl", "physical_data": {"Molecular Weight": "", "Molecular Formula": "C4H9NO3.ClH", "Melting Point": "133-134 \u00b0C"}}