{"cas_no": "5619-05-6", "cn_name": "DL-\u7f2c\u6c28\u9178\u7532\u916f\u76d0\u9178\u76d0", "en_name": ["Valine, methyl ester, hydrochloride (1:1)", "Valine, methyl ester, hydrochloride (1:1)", "Valine, methyl ester, hydrochloride, DL-", "DL-Valine, methyl ester, hydrochloride", "Valine, methyl ester, hydrochloride", "Methyl DL-valinate hydrochloride", "NSC 32111", "Methyl 2-amino-3-methylbutanoate hydrochloride"], "SMILES": "C(C(OC)=O)(C(C)C)N.Cl", "physical_data": {"Molecular Weight": "", "Molecular Formula": "C6H13NO2.ClH", "Melting Point": "120-122 \u00b0C"}}