{"cas_no": "562-10-7", "cn_name": "\u7425\u73c0\u9178\u591a\u897f\u62c9\u654f", "en_name": ["Donormil", "Butanedioic acid, compd. with N,N-dimethyl-2-[1-phenyl-1-(2-pyridinyl)ethoxy]ethanamine (1:1)", "Succinic acid, compd. with 2-[\u03b1-[2-(dimethylamino)ethoxy]-\u03b1-methylbenzyl]pyridine (1:1)", "Pyridine, 2-[\u03b1-[2-(dimethylamino)ethoxy]-\u03b1-methylbenzyl]-, succinate (1:1)", "Ethanamine, N,N-dimethyl-2-[1-phenyl-1-(2-pyridinyl)ethoxy]-, butanedioate (1:1)", "Decapryn succinate (1:1)", "2-[\u03b1-(2-Dimethylaminoethoxy)-\u03b1-methylbenzyl]pyridine succinate (1:1)", "Decapryn", "Unisom", "Hoggar N", "Decapryn succinate", "Alsodorm", "Gittalun", "Sedaplus", "2-[\u03b1-(2-Dimethylaminoethoxy)-\u03b1-methylbenzyl]pyridine succinate", "Decamium", "Doxised", "Meraprina", "Mereprine", "NSC 74772", "Donormil", "Donormyl", "Dormidina"], "SMILES": "C(CC(O)=O)C(O)=O.C(OCCN(C)C)(C)(C1=CC=CC=C1)C2=CC=CC=N2", "physical_data": {"Molecular Weight": "", "Molecular Formula": "C17H22N2O.C4H6O4", "Melting Point": "100-104 \u00b0C"}}