{"cas_no": "562-49-2", "cn_name": "3,3-\u4e8c\u7532\u57fa\u620a\u70f7", "en_name": ["3,3-Dimethylpentane", "Pentane, 3,3-dimethyl-", "3,3-Dimethylpentane", "NSC 74150"], "SMILES": "C(CC)(CC)(C)C", "physical_data": {"Molecular Weight": "100.20", "Molecular Formula": "C7H16", "Boiling Point": "86 \u00b0C", "Melting Point": "-134.9 \u00b0C", "Density": "0.6952 g/cm\u00b3 @ Temp: 20 \u00b0C"}}