{"cas_no": "562-90-3", "cn_name": "\u6b63\u7845\u9178\u56db\u4e59\u916f", "en_name": ["Tetraacetoxysilane", "Acetic acid, 1,1\u2032,1\u2032\u2032,1\u2032\u2032\u2032-tetraanhydride with silicic acid (H4SiO4)", "Acetic acid, tetraanhydride with silicic acid (H4SiO4)", "Acetic acid, tetraanhydride with H4SiO4", "Silicic acid (H4SiO4), tetraanhydride with acetic acid", "Silicon tetraacetate", "Tetraacetoxysilane", "Silane, tetrakis(acetyloxy)-"], "SMILES": "[Si](OC(C)=O)(OC(C)=O)(OC(C)=O)OC(C)=O", "physical_data": {"Molecular Weight": "264.26", "Molecular Formula": "C8H12O8Si", "Boiling Point": "148 \u00b0C", "Melting Point": "110 \u00b0C"}}