{"cas_no": "562-74-3", "cn_name": "4-\u841c\u70ef\u9187", "en_name": ["Terpinen-4-ol", "3-Cyclohexen-1-ol, 4-methyl-1-(1-methylethyl)-", "p-Menth-1-en-4-ol", "4-Methyl-1-(1-methylethyl)-3-cyclohexen-1-ol", "4-Carvomenthenol", "Terpinen-4-ol", "1-Terpinen-4-ol", "4-Terpinenol", "4-Terpineol", "Terpineol-4", "4-Methyl-1-isopropyl-3-cyclohexen-1-ol", "Terpinene-4-ol", "1-(1-Methylethyl)-4-methyl-3-cyclohexen-1-ol", "dl-4-Terpineol", "(\u00b1)-4-Terpineol", "(\u00b1)-Terpinen-4-ol", "Melaleucol", "NSC 147749", "Terpin-4-ol", "1-Isopropyl-4-methylcyclohex-3-en-1-ol", "4-Methyl-1-(1-methylethyl)-3-cyclohexene-1-ol", "1-Terpen-4-ol"], "SMILES": "C(C)(C)C1(O)CCC(C)=CC1", "physical_data": {"Molecular Weight": "154.25", "Molecular Formula": "C10H18O", "Boiling Point": "209 \u00b0C", "Melting Point": "137-188 \u00b0C", "Density": "0.9275 g/cm\u00b3 @ Temp: 15 \u00b0C"}}