{"cas_no": "56211-40-6", "cn_name": "\u6258\u62c9\u585e\u7c73", "en_name": ["Torasemide", "3-Pyridinesulfonamide, N-[[(1-methylethyl)amino]carbonyl]-4-[(3-methylphenyl)amino]-", "N-[[(1-Methylethyl)amino]carbonyl]-4-[(3-methylphenyl)amino]-3-pyridinesulfonamide", "Torasemide", "AC 4464", "BM 02015", "Torsemide", "Luprac", "Demadex", "Torem", "Toradiur", "Unat", "JDL 464", "BM 02.015", "Dilutol", "Tide 10", "Examide", "1-([4-[(3-Methylphenyl)amino]pyridin-3-yl]sulfonyl)-3-(propan-2-yl)urea", "1-[4-(3-Methylanilino)pyridin-3-yl]sulfonyl-3-propan-2-ylurea", "UpCard", "Isemid", "Britomar"], "SMILES": "S(NC(NC(C)C)=O)(=O)(=O)C=1C(NC2=CC(C)=CC=C2)=CC=NC1", "physical_data": {"Molecular Weight": "348.42", "Molecular Formula": "C16H20N4O3S", "Melting Point": "163-164 \u00b0C"}}