{"cas_no": "56210-72-1", "cn_name": "(S,S)-\u53cc-(1-\u82ef\u57fa\u4e59\u57fa)\u80fa", "en_name": ["Bis[(S)-1-phenylethyl]amine", "Benzenemethanamine, \u03b1-methyl-N-[(1S)-1-phenylethyl]-, (\u03b1S)-", "Benzenemethanamine, \u03b1-methyl-N-(1-phenylethyl)-, [S-(R*,R*)]-", "(\u03b1S)-\u03b1-Methyl-N-[(1S)-1-phenylethyl]benzenemethanamine", "(-)-\u03b1,\u03b1\u2032-Dimethyldibenzylamine", "(S,S)-\u03b1,\u03b1\u2032-Dimethyldibenzylamine", "(S,S)-Di(1-phenylethyl)amine", "(-)-Bis[(S)-1-phenylethyl]amine", "(S,S)-N,N-Bis(1-phenylethyl)amine", "(S,S)-Bis(\u03b1-methylbenzyl)amine", "(S,S)-[Bis(1-phenylethyl)]amine", "Bis[(S)-1-phenylethyl]amine", "(1S)-1-Phenyl-N-[(1S)-1-phenylethyl]ethanamine", "Bis((1S)-1-phenylethyl)amine", "Bis[(1S)-1-phenylethyl]amine"], "SMILES": "C(NC(C)C1=CC=CC=C1)(C)C2=CC=CC=C2", "physical_data": {"Molecular Weight": "225.33", "Molecular Formula": "C16H19N", "Boiling Point": "78 \u00b0C @ Press: 0.021 Torr"}}