{"cas_no": "56219-10-4", "cn_name": "\u987a-9-\u5341\u516d\u78b3\u70ef\u9178\u4e59\u916f", "en_name": ["Ethyl palmitoleate", "9-Hexadecenoic acid, ethyl ester, (9Z)-", "9-Hexadecenoic acid, ethyl ester, (Z)-", "Palmitoleic acid ethyl ester", "Ethyl cis-9-hexadecenoate", "Ethyl palmitoleate", "cis-9-Hexadecenoic acid ethyl ester", "Ethyl (Z)-9-hexadecenoate"], "SMILES": "C(CCCCCC=CCCCCCC)CC(OCC)=O", "physical_data": {"Molecular Weight": "282.46", "Molecular Formula": "C18H34O2", "Melting Point": "33.9 \u00b0C"}}