{"cas_no": "56227-55-5", "cn_name": "1-\u82ef\u7532\u9170\u57fa\u54cc\u55ea \u76d0\u9178\u76d0", "en_name": ["Benzoylpiperazine hydrochloride", "Methanone, phenyl-1-piperazinyl-, hydrochloride (1:1)", "Piperazine, 1-benzoyl-, monohydrochloride", "1-Benzoylpiperazine monohydrochloride", "1-Benzoylpiperazine hydrochloride", "N-Benzoylpiperazine hydrochloride", "4-Benzoylpiperazine hydrochloride", "Benzoylpiperazine hydrochloride"], "SMILES": "C(=O)(C1=CC=CC=C1)N2CCNCC2.Cl", "physical_data": {"Molecular Weight": "", "Molecular Formula": "C11H14N2O.ClH", "Melting Point": "274-275 \u00b0C"}}