{"cas_no": "5623-45-0", "cn_name": "2,2',4,4',6,6'-\u516d\u7532\u57fa\u4e8c\u82ef\u7532\u916e", "en_name": ["Dimesityl ketone", "Methanone, bis(2,4,6-trimethylphenyl)-", "Benzophenone, 2,2\u2032,4,4\u2032,6,6\u2032-hexamethyl-", "Bis(2,4,6-trimethylphenyl)methanone", "Dimesityl ketone", "Mesityl ketone", "2,2\u2032,4,4\u2032,6,6\u2032-Hexamethylbenzophenone", "2,4,6,2\u2032,4\u2032,6\u2032-Hexamethylbenzophenone", "Bis(2,4,6-trimethylphenyl) ketone"], "SMILES": "C(=O)(C1=C(C)C=C(C)C=C1C)C2=C(C)C=C(C)C=C2C", "physical_data": {"Molecular Weight": "266.38", "Molecular Formula": "C19H22O", "Boiling Point": "200 \u00b0C", "Melting Point": "136-137 \u00b0C"}}