{"cas_no": "56238-63-2", "cn_name": "\u5934\u5b62\u544b\u8f9b\u94a0", "en_name": ["Cefuroxime sodium", "5-Thia-1-azabicyclo[4.2.0]oct-2-ene-2-carboxylic acid, 3-[[(aminocarbonyl)oxy]methyl]-7-[[(2Z)-2-(2-furanyl)-2-(methoxyimino)acetyl]amino]-8-oxo-, sodium salt (1:1), (6R,7R)-", "5-Thia-1-azabicyclo[4.2.0]oct-2-ene-2-carboxylic acid, 3-[[(aminocarbonyl)oxy]methyl]-7-[[2-furanyl(methoxyimino)acetyl]amino]-8-oxo-, monosodium salt, [6R-[6\u03b1,7\u03b2(Z)]]-", "5-Thia-1-azabicyclo[4.2.0]oct-2-ene-2-carboxylic acid, 3-[[(aminocarbonyl)oxy]methyl]-7-[[(2Z)-2-furanyl(methoxyimino)acetyl]amino]-8-oxo-, monosodium salt, (6R,7R)-", "Cefuroxime sodium", "640/359", "Sodium cefuroxime", "Cefuroxime sodium salt", "Zinacef", "Spectrazol", "Kefurox", "Kesint", "Ipacef", "Cefurex", "Gibicef", "Cefoprim", "Cefurin", "Novocef", "Ultroxim", "Curocef", "Bioxima", "Cefumax", "Cefamar", "Biociclin", "Spectrazole", "Duxima", "Biofurex", "Anaptivan", "Lampsporin", "Curoxim", "Medoxim"], "SMILES": "C(O)(=O)C=1N2C(C(NC(C(=NOC)C3=CC=CO3)=O)C2=O)SCC1COC(N)=O.[Na]", "physical_data": {"Molecular Weight": "", "Molecular Formula": "C16H16N4O8S.Na", "Melting Point": "184-186 \u00b0C (decomp)"}}