{"cas_no": "5624-13-5", "cn_name": "\u82ef\u57fa\u786b\u4ee3\u4e59\u5185\u9170\u8132-\u5929\u51ac\u6c28\u9178", "en_name": ["5-Oxo-1-phenyl-2-thioxo-4-imidazolidineacetic acid", "4-Imidazolidineacetic acid, 5-oxo-1-phenyl-2-thioxo-", "5-Hydantoinacetic acid, 3-phenyl-2-thio-", "5-Oxo-1-phenyl-2-thioxo-4-imidazolidineacetic acid", "Aspartic phenylthiohydantoin", "Aspartic acid, 3-phenyl-2-thiohydantoin", "Aspartic acid phenylthiohydantoin", "PTH-DL-aspartic acid", "Phenylthiohydantoin DL-aspartic acid", "(5-Oxo-1-phenyl-2-thioxo-imidazolidin-4-yl)-acetic acid", "2-(5-Oxo-1-phenyl-2-sulfanylideneimidazolidin-4-yl)acetic acid"], "SMILES": "O=C1N(C(=S)NC1CC(O)=O)C2=CC=CC=C2", "physical_data": {"Molecular Weight": "250.27", "Molecular Formula": "C11H10N2O3S", "Melting Point": "233-234 \u00b0C"}}