{"cas_no": "5625-46-7", "cn_name": "3,6-\u4e8c\u7532\u57fa-2,5-\u54cc\u55ea\u4e8c\u916e", "en_name": ["3,6-Dimethyl-2,5-piperazinedione", "2,5-Piperazinedione, 3,6-dimethyl-", "3,6-Dimethyl-2,5-piperazinedione", "3,6-Dimethyl-2,5-diketopiperazine", "Cyclo-DL-alanyl-DL-alanine", "Alanine diketopiperazine", "Cyclo-DL-Ala-DL-Ala", "NSC 29655"], "SMILES": "CC1C(=O)NC(C)C(=O)N1", "physical_data": {"Molecular Weight": "142.16", "Molecular Formula": "C6H10N2O2", "Melting Point": "283 \u00b0C"}}