{"cas_no": "5625-90-1", "cn_name": "N,N'-\u4e9a\u7532\u57fa\u53cc\u5417\u5549", "en_name": ["Dimorpholinomethane", "Morpholine, 4,4\u2032-methylenebis-", "Morpholine, 4,4\u2032-methylenedi-", "4,4\u2032-Methylenebis[morpholine]", "Dimorpholinomethane", "Bis(morpholino)methane", "4,4\u2032-Methylenedimorpholine", "Methylenebismorpholine", "N,N\u2032-Methylenebismorpholine"], "SMILES": "C(N1CCOCC1)N2CCOCC2", "physical_data": {"Molecular Weight": "186.25", "Molecular Formula": "C9H18N2O2", "Boiling Point": "139-140 \u00b0C", "Density": "1.0494 g/cm\u00b3 @ Temp: 20 \u00b0C"}}