{"cas_no": "5625-56-9", "cn_name": "1,4-\u54cc\u55ea\u4e8c\u4e19\u78fa\u9178", "en_name": ["1,4-Piperazinedipropanesulfonic acid", "1,4-Piperazinedipropanesulfonic acid", "PIPPS"], "SMILES": "C(CCS(=O)(=O)O)N1CCN(CCCS(=O)(=O)O)CC1", "physical_data": {"Molecular Weight": "330.42", "Molecular Formula": "C10H22N2O6S2", "Melting Point": "&gt;400 \u00b0C (decomp)"}}