{"cas_no": "5625-67-2", "cn_name": "2-\u54cc\u55ea\u916e", "en_name": ["Piperazinone", "2-Piperazinone", "Piperazinone", "2(1H)-Pyrazinone, tetrahydro-", "2-Ketopiperazine", "2-Oxopiperazine", "Piperazine-2-one", "Oxopiperazine", "NSC 27441", "3-Oxopiperazine", "Piperazin-2-one", "JKF 011", "3,4,5,6-Tetrahydropyrazin-2-ol"], "SMILES": "O=C1CNCCN1", "physical_data": {"Molecular Weight": "100.12", "Molecular Formula": "C4H8N2O", "Boiling Point": "165 \u00b0C @ Press: 5 Torr", "Melting Point": "136 \u00b0C"}}