{"cas_no": "56267-48-2", "cn_name": "\u544b\u5583-3-\u53d4\u4e01\u57fa\u80fa", "en_name": ["1,1-Dimethylethyl N-3-furanylcarbamate", "Carbamic acid, N-3-furanyl-, 1,1-dimethylethyl ester", "Carbamic acid, 3-furanyl-, 1,1-dimethylethyl ester", "1,1-Dimethylethyl N-3-furanylcarbamate", "tert-Butyl 3-furancarbamate", "tert-Butyl 3-furanylcarbamate"], "SMILES": "N(C(OC(C)(C)C)=O)C=1C=COC1", "physical_data": {"Molecular Weight": "183.20", "Molecular Formula": "C9H13NO3", "Melting Point": "135-137 \u00b0C"}}