{"cas_no": "5627-00-9", "cn_name": "5,6-DIHYDROTHYMIDINE", "en_name": ["5,6-Dihydrothymidine", "Thymidine, 5,6-dihydro-", "Hydrouracil, 1-(2-deoxy-\u03b2-D-erythro-pentofuranosyl)-5-methyl-", "Hydrouracil, 1-(2-deoxy-\u03b2-D-ribofuranosyl)-5-methyl-", "5,6-Dihydrothymidine", "Dihydrothymidine", "2,4(1H,3H)-Pyrimidinedione, 1-(2-deoxy-\u03b2-D-erythro-pentofuranosyl)dihydro-5-methyl-", "1-[4-Hydroxy-5-(hydroxymethyl)oxolan-2-yl]-5-methyl-1,3,5,6-tetrahydropyrimidine-2,4-dione"], "SMILES": "O=C1N(C2OC(CO)C(O)C2)CC(C)C(=O)N1", "physical_data": {"Molecular Weight": "244.24", "Molecular Formula": "C10H16N2O5", "Melting Point": "152-153 \u00b0C (decomp)"}}