{"cas_no": "56278-50-3", "cn_name": "\u82ef\u5e76\u567b\u5511-2-\u4e59\u8148", "en_name": ["2-Benzothiazoleacetonitrile", "2-Benzothiazoleacetonitrile", "2-(Cyanomethyl)benzothiazole", "2-Benzothiazolylacetonitrile", "NSC 379416", "1,3-Benzothiazol-2-ylacetonitrile", "2-(Cyanomethyl)-1,3-benzothiazole", "2-(Benzothiazol-2-yl)acetonitrile", "2-(Benzo[d]thiazol-2-yl)acetonitrile", "2-(1,3-Benzothiazol-2-yl)acetonitrile"], "SMILES": "C(C#N)C1=NC=2C(S1)=CC=CC2", "physical_data": {"Molecular Weight": "174.22", "Molecular Formula": "C9H6N2S", "Melting Point": "98-100 \u00b0C"}}