{"cas_no": "56287-74-2", "cn_name": "\u6c1f\u55b9\u916e", "en_name": ["Afloqualone", "4(3H)-Quinazolinone, 6-amino-2-(fluoromethyl)-3-(2-methylphenyl)-", "6-Amino-2-(fluoromethyl)-3-(2-methylphenyl)-4(3H)-quinazolinone", "H 495", "Afloqualone", "HQ 495", "Arofuto", "Aroft", "6-Amino-2-(fluoromethyl)-3-(2-methylphenyl)quinazolin-4(3H)-one"], "SMILES": "C(F)C=1N(C(=O)C=2C(N1)=CC=C(N)C2)C3=C(C)C=CC=C3", "physical_data": {"Molecular Weight": "283.30", "Molecular Formula": "C16H14FN3O", "Melting Point": "195-196 \u00b0C"}}