{"cas_no": "56287-73-1", "cn_name": "2-(\u6c1f\u7532\u57fa)-3-(2-\u7532\u57fa\u82ef\u57fa)-6-\u785d\u57fa-3H-\u6076\u5511\u5549-4-\u916e", "en_name": ["2-(Fluoromethyl)-3-(2-methylphenyl)-6-nitro-4(3H)-quinazolinone", "4(3H)-Quinazolinone, 2-(fluoromethyl)-3-(2-methylphenyl)-6-nitro-", "2-(Fluoromethyl)-3-(2-methylphenyl)-6-nitro-4(3H)-quinazolinone", "2-(Fluoromethyl)-3-(2-methylphenyl)-6-nitro-3H-quinazolin-4-one"], "SMILES": "C(F)C=1N(C(=O)C=2C(N1)=CC=C(N(=O)=O)C2)C3=C(C)C=CC=C3", "physical_data": {"Molecular Weight": "313.28", "Molecular Formula": "C16H12FN3O3", "Melting Point": "156-158 \u00b0C"}}