{"cas_no": "56293-29-9", "cn_name": "\u82e6\u8c46\u78b1", "en_name": ["Aloperine", "6,13-Methano-2H-dipyrido[1,2-a:3\u2032,2\u2032-e]azocine, 1,3,4,6,6a,7,8,9,10,12,13,13a-dodecahydro-, (6R,6aR,13R,13aS)-", "Aloperine", "Ormosanine, 16,17-didehydro-9-de-2-piperidinyl-, (7\u03b1,9\u03b1)-", "6,13-Methano-2H-dipyrido[1,2-a:3\u2032,2\u2032-e]azocine, ormosanine deriv.", "(6R,6aR,13R,13aS)-1,3,4,6,6a,7,8,9,10,12,13,13a-Dodecahydro-6,13-methano-2H-dipyrido[1,2-a:3\u2032,2\u2032-e]azocine", "6,13-Methano-2H-dipyrido[1,2-a:3\u2032,2\u2032-e]azocine, 1,3,4,6,6a,7,8,9,10,12,13,13a-dodecahydro-, [6R-(6\u03b1,6a\u03b2,13\u03b1,13a\u03b1)]-"], "SMILES": "C12C3C(=CC(C1)C4N(C2)CCCC4)CCCN3", "physical_data": {"Molecular Weight": "232.36", "Molecular Formula": "C15H24N2", "Melting Point": "73-75 \u00b0C"}}