{"cas_no": "5629-98-1", "cn_name": "2,4-\u4e8c\u6eb4\u82ef\u7532\u919b", "en_name": ["2,4-Dibromobenzaldehyde", "Benzaldehyde, 2,4-dibromo-", "2,4-Dibromobenzaldehyde"], "SMILES": "C(=O)C1=C(Br)C=C(Br)C=C1", "physical_data": {"Molecular Weight": "263.91", "Molecular Formula": "C7H4Br2O", "Melting Point": "80 \u00b0C"}}