{"cas_no": "56296-78-7", "cn_name": "\u76d0\u9178\u6c1f\u897f\u6c40", "en_name": ["Reconcile", "Benzenepropanamine, N-methyl-\u03b3-[4-(trifluoromethyl)phenoxy]-, hydrochloride (1:1)", "Benzenepropanamine, N-methyl-\u03b3-[4-(trifluoromethyl)phenoxy]-, hydrochloride", "Fluoxetine hydrochloride", "Lilly 110140", "LY 110140", "Prozac", "(\u00b1)-N-Methyl-3-phenyl-3-[4-(trifluoromethyl)phenoxy]propylamine hydrochloride", "Adofen", "Ansilan", "Deproxin", "Erocap", "Fluctin", "Fluctine", "Affectine", "Alzac 20", "Flunil", "Fluoxac", "Fluoxeren", "Fluoxil", "Fluox-Puren", "Flutin", "Flutine", "Fluxen", "Fluxil", "Fontex", "Foxetin", "Lorien", "Lovan", "Margrilan", "Modipran", "Neupax", "Nopres", "Nuzak", "Oxedep", "Pragmaten", "Prizma", "Proctin", "Prodep", "Prozac 20", "Rowexetina", "Sanzur", "Sinzac", "Zactin", "Zepax", "Fludac", "Flufran", "Reneuron", "Sarafem", "Profluzac", "N-Methyl-3-(4-trifluoromethylphenoxy)-3-phenylpropylamine hydrochloride", "Zedprex", "Reconcile", "Digassim", "Nodepe", "Fluxetyl", "Pluzac", "Salipax", "Octozac", "N-methyl-3-[4-(trifluoromethyl)phenoxy]-3-phenylpropanamine hydrochloride", "Flunirin"], "SMILES": "C(OC1=CC=C(C(F)(F)F)C=C1)(CCNC)C2=CC=CC=C2.Cl", "physical_data": {"Molecular Weight": "", "Molecular Formula": "C17H18F3NO.ClH", "Melting Point": "158.4-158.9 \u00b0C"}}