{"cas_no": "563-79-1", "cn_name": "2,3-\u4e8c\u7532\u57fa-2-\u4e01\u70ef", "en_name": ["2,3-Dimethyl-2-butene", "2-Butene, 2,3-dimethyl-", "2,3-Dimethyl-2-butene", "Tetramethylethylene", "1,1,2,2-Tetramethylethylene", "Tetramethylethene", "NSC 73907"], "SMILES": "C(=C(C)C)(C)C", "physical_data": {"Molecular Weight": "84.16", "Molecular Formula": "C6H12", "Boiling Point": "73.3 \u00b0C", "Melting Point": "-74.6 \u00b0C", "Density": "0.7075 g/cm\u00b3 @ Temp: 20 \u00b0C"}}