{"cas_no": "563-54-2", "cn_name": "1\uff0c2-\u4e8c\u6c2f\u4e19\u70ef", "en_name": ["1-Propene, 1,2-dichloro-", "1-Propene, 1,2-dichloro-", "Propene, 1,2-dichloro-", "1,2-Dichloropropylene", "1,2-Dichloro-1-propene"], "SMILES": "C(=CCl)(C)Cl", "physical_data": {"Molecular Weight": "110.97", "Molecular Formula": "C3H4Cl2", "Boiling Point": "75 \u00b0C"}}