{"cas_no": "563-96-2", "cn_name": "\u4e59\u919b\u9178\u6c34\u5408\u7269", "en_name": ["Glyoxylic acid monohydrate", "Acetic acid, 2,2-dihydroxy-", "Acetic acid, dihydroxy-", "2,2-Dihydroxyacetic acid", "Acetic acid, oxo-, monohydrate", "Glyoxylic acid hydrate", "Glyoxylic acid monohydrate", "Dihydroxyacetic acid", "Glyoxalic acid monohydrate", "2-(Oxo)acetic acid monohydrate"], "SMILES": "C(C(O)=O)(O)O", "physical_data": {"Molecular Weight": "92.05", "Molecular Formula": "C2H4O4", "Boiling Point": "129-130 \u00b0C", "Melting Point": "98 \u00b0C", "Density": "1.70 g/cm\u00b3"}}