{"cas_no": "563-58-6", "cn_name": "1,1-\u4e8c\u6c2f\u4e19\u70ef", "en_name": ["1,1-Dichloropropene", "1-Propene, 1,1-dichloro-", "Propene, 1,1-dichloro-", "1,1-Dichloropropene", "1,1-Dichloropropylene", "1,1-Dichloro-1-propene", "NSC 6201", "1,1-Dichloro-1-propylene"], "SMILES": "C(=CC)(Cl)Cl", "physical_data": {"Molecular Weight": "110.97", "Molecular Formula": "C3H4Cl2", "Boiling Point": "76.5 \u00b0C", "Density": "1.1675 g/cm\u00b3 @ Temp: 25 \u00b0C"}}