{"cas_no": "563-70-2", "cn_name": "\u6eb4\u4ee3\u785d\u57fa\u7532\u70f7", "en_name": ["Bromonitromethane", "Methane, bromonitro-", "Bromonitromethane", "Nitrobromomethane", "\u03b1-Bromonitromethane"], "SMILES": "N(CBr)(=O)=O", "physical_data": {"Molecular Weight": "139.94", "Molecular Formula": "CH2BrNO2", "Boiling Point": "149 \u00b0C", "Melting Point": "-28 \u00b0C"}}