{"cas_no": "563-52-0", "cn_name": "3-\u6c2f-1-\u4e01\u70ef", "en_name": ["3-Chloro-1-butene", "1-Butene, 3-chloro-", "3-Chloro-1-butene", "\u03b3-Chloro-\u03b1-butylene", "\u03b1-Methallyl chloride", "\u03b1-Methylallyl chloride", "1-Methylallyl chloride", "2-Chloro-3-butene", "dl-\u03b1-Methallyl chloride", "(\u00b1)-3-Chloro-1-butene", "1-Methyl-1-chloro-2-propene", "NSC 60192"], "SMILES": "C(C=C)(C)Cl", "physical_data": {"Molecular Weight": "90.55", "Molecular Formula": "C4H7Cl", "Boiling Point": "64.5 \u00b0C", "Density": "0.8978 g/cm\u00b3 @ Temp: 20 \u00b0C"}}