{"cas_no": "563-80-4", "cn_name": "3-\u7532\u57fa-2-\u4e01\u916e", "en_name": ["3-Methyl-2-butanone", "2-Butanone, 3-methyl-", "3-Methyl-2-butanone", "Isopropyl methyl ketone", "Methyl isopropyl ketone", "2-Acetylpropane", "2-Methylbutan-3-one", "NSC 9379", "MIPK"], "SMILES": "C(C(C)=O)(C)C", "physical_data": {"Molecular Weight": "86.13", "Molecular Formula": "C5H10O", "Boiling Point": "93 \u00b0C", "Melting Point": "-92 \u00b0C", "Density": "0.80 g/cm\u00b3"}}