{"cas_no": "563-04-2", "cn_name": "\u4e09\u7532\u82ef\u78f7\u9178\u916f", "en_name": ["Tri-m-cresyl phosphate", "Phosphoric acid, tris(3-methylphenyl) ester", "Phosphoric acid, tri-m-tolyl ester", "m-Tolyl phosphate, (C7H7O)3PO", "Tris-m-cresyl phosphate", "Tri-m-tolyl phosphate", "Tris(m-tolyl) phosphate", "TMCP", "Tri-m-cresyl phosphate", "Tris(3-methylphenyl) phosphate", "NSC 4055"], "SMILES": "P(OC1=CC(C)=CC=C1)(OC2=CC(C)=CC=C2)(OC3=CC(C)=CC=C3)=O", "physical_data": {"Molecular Weight": "368.36", "Molecular Formula": "C21H21O4P", "Boiling Point": "260 \u00b0C @ Press: 15 Torr", "Melting Point": "25.5 \u00b0C", "Density": "1.150 g/cm\u00b3 @ Temp: 25 \u00b0C"}}