{"cas_no": "563-41-7", "cn_name": "\u76d0\u9178\u6c28\u57fa\u8132", "en_name": ["Aminourea hydrochloride", "Hydrazinecarboxamide, hydrochloride (1:1)", "Semicarbazide, monohydrochloride", "Hydrazinecarboxamide, monohydrochloride", "Aminourea hydrochloride", "Semicarbazide hydrochloride", "Hydrazinecarboxamide, hydrochloride", "Semicarbazide chloride"], "SMILES": "C(NN)(N)=O.Cl", "physical_data": {"Molecular Weight": "", "Molecular Formula": "CH5N3O.ClH", "Melting Point": "175-185 \u00b0C"}}