{"cas_no": "563-78-0", "cn_name": "2,3-\u4e8c\u7532\u57fa-1-\u4e01\u70ef", "en_name": ["2,3-Dimethyl-1-butene", "1-Butene, 2,3-dimethyl-", "2,3-Dimethyl-1-butene", "2-Isopropylpropene", "1-Isopropyl-1-methylethylene", "NSC 73906", "2,3-Dimethyl-1-butylene"], "SMILES": "C(C(C)=C)(C)C", "physical_data": {"Molecular Weight": "84.16", "Molecular Formula": "C6H12", "Boiling Point": "55.6 \u00b0C", "Melting Point": "-157.3 \u00b0C", "Density": "0.6695 g/cm\u00b3 @ Temp: 20 \u00b0C"}}