{"cas_no": "563-12-2", "cn_name": "\u4e59\u786b\u78f7", "en_name": ["Ethion", "Phosphorodithioic acid, SP,SP\u2032-methylene OP,OP,OP\u2032,OP\u2032-tetraethyl ester", "Phosphorodithioic acid, S,S\u2032-methylene O,O,O\u2032,O\u2032-tetraethyl ester", "RP 8167", "ENT 24,105", "Diethion", "Ethion", "Ethyl methylene phosphorodithioate ([(EtO)2P(S)S]2CH2)", "Niagara 1240", "Phosphotox E", "Rodocid", "Tetraethyl S,S\u2032-methylene bis(phosphorothiolothionate)", "O,O,O\u2032,O\u2032-Tetraethyl S,S\u2032-methylene bis(phosphorodithioate)", "Ethopaz", "Nialate", "Hylemox", "Hylemax", "Rodocide", "Fosfatox E", "Rhodocide", "Ethiol 100", "Match", "Tomahawk"], "SMILES": "P(SCSP(OCC)(OCC)=S)(OCC)(OCC)=S", "physical_data": {"Molecular Weight": "384.48", "Molecular Formula": "C9H22O4P2S4", "Boiling Point": "165 \u00b0C @ Press: 0.3 Torr", "Melting Point": "-13--12 \u00b0C", "Density": "1.220 g/cm\u00b3 @ Temp: 20 \u00b0C"}}