{"cas_no": "563-76-8", "cn_name": "2-\u6eb4\u4e19\u9170\u6eb4", "en_name": ["2-Bromopropionyl bromide", "Propanoyl bromide, 2-bromo-", "Propionyl bromide, 2-bromo-", "2-Bromopropanoyl bromide", "2-Bromopropionyl bromide", "\u03b1-Bromopropionyl bromide", "\u03b1-Bromopropanyl bromide", "DL-2-Bromopropionyl bromide", "(\u00b1)-2-Bromopropanoyl bromide", "2-Bromoisopropionyl chloride"], "SMILES": "C(C(Br)=O)(Br)C", "physical_data": {"Molecular Weight": "215.87", "Molecular Formula": "C3H4Br2O", "Boiling Point": "153-155 \u00b0C"}}