{"cas_no": "563-16-6", "cn_name": "3,3-\u4e8c\u7532\u57fa\u5df2\u70f7", "en_name": ["3,3-Dimethylhexane", "Hexane, 3,3-dimethyl-", "3,3-Dimethylhexane", "NSC 74174"], "SMILES": "C(CCC)(CC)(C)C", "physical_data": {"Molecular Weight": "114.23", "Molecular Formula": "C8H18", "Boiling Point": "111.9 \u00b0C", "Melting Point": "-126.1 \u00b0C", "Density": "0.7116 g/cm\u00b3 @ Temp: 20 \u00b0C"}}