{"cas_no": "563-46-2", "cn_name": "2-\u7532\u57fa-1-\u4e01\u70ef", "en_name": ["2-Methyl-1-butene", "1-Butene, 2-methyl-", "2-Methyl-1-butene", "\u03b3-Isoamylene", "1-Isoamylene", "NSC 72414", "2-Methyl-1-butylene"], "SMILES": "C(CC)(C)=C", "physical_data": {"Molecular Weight": "70.13", "Molecular Formula": "C5H10", "Boiling Point": "31.2 \u00b0C", "Melting Point": "-137.5 \u00b0C", "Density": "0.6504 g/cm\u00b3 @ Temp: 20 \u00b0C"}}