{"cas_no": "563-83-7", "cn_name": "\u5f02\u4e01\u9170\u80fa", "en_name": ["Isobutyramide", "Propanamide, 2-methyl-", "Isobutyramide", "2-Methylpropanamide", "Isobutyrimidic acid", "Isopropylformamide", "Isobutanamide", "2-Methylpropionamide", "VX 366", "NSC 8423"], "SMILES": "C(C(N)=O)(C)C", "physical_data": {"Molecular Weight": "87.12", "Molecular Formula": "C4H9NO", "Boiling Point": "218 \u00b0C", "Melting Point": "128 \u00b0C"}}