{"cas_no": "563-43-9", "cn_name": "\u4e8c\u6c2f\u4e59\u57fa\u94dd(\u7981\u7a7a\u8fd0)", "en_name": ["Ethylaluminum dichloride", "Aluminum, dichloroethyl-", "Ethylaluminum dichloride", "Dichloroethylaluminum", "Dichloromonoethylaluminum", "Ethyldichloroaluminum", "Ethylaluminium dichloride", "Ethyldichloroaluminium"], "SMILES": "[Al](CC)(Cl)Cl", "physical_data": {"Molecular Weight": "", "Molecular Formula": "C2H5AlCl2", "Boiling Point": "194 \u00b0C", "Melting Point": "31 \u00b0C", "Density": "1.222 g/cm\u00b3"}}