{"cas_no": "563-68-8", "cn_name": "\u4e59\u9178\u94ca", "en_name": ["Thallium(I) acetate", "Acetic acid, thallium(1+) salt (1:1)", "Acetic acid, thallium(1+) salt", "Thallium acetate (TlOAc)", "Thallium acetate", "Thallous acetate", "Thallium(1+) acetate", "Thallium monoacetate", "Thallium(I) acetate"], "SMILES": "C(C)(O)=O.[Tl]", "physical_data": {"Molecular Weight": "", "Molecular Formula": "C2H4O2.Tl", "Melting Point": "131 \u00b0C", "Density": "3.68 g/cm\u00b3"}}