{"cas_no": "563-45-1", "cn_name": "3-\u7532\u57fa-1-\u4e01\u70ef", "en_name": ["3-Methyl-1-butene", "1-Butene, 3-methyl-", "3-Methyl-1-butene", "\u03b1-Isoamylene", "2-Methyl-3-butene", "Isopropylethylene", "Isopropylethene", "3,3-Dimethylpropene"], "SMILES": "C(C=C)(C)C", "physical_data": {"Molecular Weight": "70.13", "Molecular Formula": "C5H10", "Boiling Point": "20.1 \u00b0C", "Melting Point": "-168.5 \u00b0C", "Density": "0.6213 g/cm\u00b3 @ Temp: 25 \u00b0C"}}