{"cas_no": "563-47-3", "cn_name": "3-\u6c2f-2-\u7532\u57fa\u4e19\u70ef", "en_name": ["3-Chloro-2-methyl-1-propene", "1-Propene, 3-chloro-2-methyl-", "Propene, 3-chloro-2-methyl-", "3-Chloro-2-methyl-1-propene", "\u03b3-Chloroisobutylene", "Isobutenyl chloride", "Methallyl chloride", "\u03b2-Methallyl chloride", "2-Methyl-3-chloro-1-propene", "1-Chloro-2-methyl-2-propene", "2-Methylallyl chloride", "2-Methyl-2-propenyl chloride", "3-Chloro-2-methylpropene", "Methylallyl chloride", "2-Methallyl chloride", "2-Methyl-3-chloropropene", "2-(Chloromethyl)-1-propene", "NSC 7303"], "SMILES": "C(CCl)(C)=C", "physical_data": {"Molecular Weight": "90.55", "Molecular Formula": "C4H7Cl", "Boiling Point": "71-72 \u00b0C", "Melting Point": "&lt;-80 \u00b0C", "Density": "0.9165 g/cm\u00b3 @ Temp: 20 \u00b0C"}}