{"cas_no": "56309-94-5", "cn_name": "\u53cc\u73af\u5df1\u916e\u4e59\u4e8c\u9187\u5355\u7f29\u916e", "en_name": ["4-(1,4-Dioxaspiro[4.5]dec-8-yl)cyclohexanone", "Cyclohexanone, 4-(1,4-dioxaspiro[4.5]dec-8-yl)-", "1,4-Dioxaspiro[4.5]decane, cyclohexanone deriv.", "4-(1,4-Dioxaspiro[4.5]dec-8-yl)cyclohexanone", "4,4\u2032-Dicyclohexanedione monoethylene ketal", "4-(1,4-Dioxaspiro[4.5]deca-8-yl)cyclohexanone", "4-(7,10-Dioxaspiro[5.4]decan-3-yl)cyclohexan-1-one"], "SMILES": "O=C1CCC(C2CCC3(CC2)OCCO3)CC1", "physical_data": {"Molecular Weight": "238.32", "Molecular Formula": "C14H22O3", "Melting Point": "109 \u00b0C"}}