{"cas_no": "5630-53-5", "cn_name": "\u66ff\u52c3\u9f99", "en_name": ["Tibolone", "19-Norpregn-5(10)-en-20-yn-3-one, 17-hydroxy-7-methyl-, (7\u03b1,17\u03b1)-", "19-Nor-17\u03b1-pregn-5(10)-en-20-yn-3-one, 17-hydroxy-7\u03b1-methyl-", "(7\u03b1,17\u03b1)-17-Hydroxy-7-methyl-19-norpregn-5(10)-en-20-yn-3-one", "Tibolone", "7\u03b1-Methyl-17\u03b1-ethynyl-17\u03b2-hydroxy-5(10)-estren-3-one", "Org OD 14", "Livial", "Liviella", "7\u03b1-Methyl-\u03945,10-norethindrone"], "SMILES": "CC1C2C3C(C)(C(C#C)(O)CC3)CCC2C4=C(C1)CC(=O)CC4", "physical_data": {"Molecular Weight": "312.45", "Molecular Formula": "C21H28O2", "Melting Point": "167 \u00b0C"}}