{"cas_no": "56310-20-4", "cn_name": "\u4e8c\u53d4\u4e01\u57fa\u7532\u57fa\u7845\u70f7", "en_name": ["Bis(1,1-dimethylethyl)methylsilane", "Silane, bis(1,1-dimethylethyl)methyl-", "Bis(1,1-dimethylethyl)methylsilane", "Di-tert-butylmethylsilane"], "SMILES": "[SiH](C(C)(C)C)(C(C)(C)C)C", "physical_data": {"Molecular Weight": "158.36", "Molecular Formula": "C9H22Si", "Boiling Point": "155 \u00b0C", "Density": "0.758 g/cm\u00b3"}}