{"cas_no": "5631-70-9", "cn_name": "4',5,7-\u4e09\u7532\u6c27\u57fa\u9ec4\u916e", "en_name": ["5,7,4\u2032-Trimethoxyflavone", "4H-1-Benzopyran-4-one, 5,7-dimethoxy-2-(4-methoxyphenyl)-", "Flavone, 4\u2032,5,7-trimethoxy-", "5,7-Dimethoxy-2-(4-methoxyphenyl)-4H-1-benzopyran-4-one", "4\u2032,5,7-Trimethoxyflavone", "Tri-O-methylapigenin", "Trimethylapigenin", "5,7,4\u2032-Trimethoxyapigenin", "5,7,4\u2032-Trimethoxyflavone", "5,7-Dimethoxy-2-(4-methoxyphenyl)chromone", "5,7-Dimethoxy-4-oxo-2-(4-methoxyphenyl)-4H-1-benzopyran", "Apigenin trimethyl ether", "5,7,4\u2032-Tri-O-methylapigenin", "5,7-Dimethoxy-2-(4-methoxyphenyl)-4H-chromen-4-one"], "SMILES": "O(C)C1=C2C(OC(=CC2=O)C3=CC=C(OC)C=C3)=CC(OC)=C1", "physical_data": {"Molecular Weight": "312.32", "Molecular Formula": "C18H16O5", "Melting Point": "152-154 \u00b0C"}}