{"cas_no": "56317-21-6", "cn_name": "\u6851\u8f9b\u7d20M", "en_name": ["Moracin M", "1,3-Benzenediol, 5-(6-hydroxy-2-benzofuranyl)-", "5-(6-Hydroxy-2-benzofuranyl)-1,3-benzenediol", "6,3\u2032,5\u2032-Trihydroxy-2-phenylbenzofuran", "Moracin M", "Veraphenol", "2-(3,5-Dihydroxyphenyl)-6-hydroxybenzofuran"], "SMILES": "OC=1C=C(C2=CC=3C(O2)=CC(O)=CC3)C=C(O)C1", "physical_data": {"Molecular Weight": "242.23", "Molecular Formula": "C14H10O4", "Melting Point": "271-273 \u00b0C"}}