{"cas_no": "5631-68-5", "cn_name": "3-(2,4-\u4e8c\u7f9f\u57fa\u82ef)\u4e19\u9178", "en_name": ["2,4-Dihydroxybenzenepropanoic acid", "Benzenepropanoic acid, 2,4-dihydroxy-", "Hydrocinnamic acid, 2,4-dihydroxy-", "2,4-Dihydroxybenzenepropanoic acid", "2,4-Dihydroxy-\u03b2-phenylpropionic acid", "2,4-Dihydroxyphenylpropionic acid", "3-(2,4-Dihydroxyphenyl)propionic acid", "NSC 71551", "2,4-Dihydroxyhydrocinnamic acid"], "SMILES": "C(CC(O)=O)C1=C(O)C=C(O)C=C1", "physical_data": {"Molecular Weight": "182.17", "Molecular Formula": "C9H10O4", "Melting Point": "165 \u00b0C"}}