{"cas_no": "56326-98-8", "cn_name": "4-\u6c30-4-(4-\u6c1f\u82ef\u57fa)\u73af\u5df1\u916e", "en_name": ["1-(4-Fluorophenyl)-4-oxocyclohexanecarbonitrile", "Cyclohexanecarbonitrile, 1-(4-fluorophenyl)-4-oxo-", "1-(4-Fluorophenyl)-4-oxocyclohexanecarbonitrile", "4-Cyano-4-(4-fluorophenyl)cyclohexanone", "4-Cyano-4-(4-fluorophenyl)cyclohexan-1-one"], "SMILES": "C(#N)C1(CCC(=O)CC1)C2=CC=C(F)C=C2", "physical_data": {"Molecular Weight": "217.24", "Molecular Formula": "C13H12FNO", "Melting Point": "80-84 \u00b0C"}}