{"cas_no": "5632-84-8", "cn_name": "\u53bb\u7532\u6258\u54c1\u916e", "en_name": ["8-Azabicyclo[3.2.1]octan-3-one", "8-Azabicyclo[3.2.1]octan-3-one", "3-Nortropanone", "Nortropinone", "1\u03b1H,5\u03b1H-Nortropan-3-one", "NSC 351100"], "SMILES": "O=C1CC2NC(CC2)C1", "physical_data": {"Molecular Weight": "125.17", "Molecular Formula": "C7H11NO", "Boiling Point": "69-71 \u00b0C @ Press: 0.6 Torr"}}