{"cas_no": "5633-14-7", "cn_name": "\u76d0\u9178\u82c4\u66ff\u7c73\u7279", "en_name": ["Benzetimide hydrochloride", "[3,4\u2032-Bipiperidine]-2,6-dione, 3-phenyl-1\u2032-(phenylmethyl)-, hydrochloride (1:1)", "Glutarimide, 2-(1-benzyl-4-piperidyl)-2-phenyl-, monohydrochloride", "[3,4\u2032-Bipiperidine]-2,6-dione, 3-phenyl-1\u2032-(phenylmethyl)-, monohydrochloride", "Benzetimide hydrochloride", "R 4929", "Spasmentral", "1\u2032-Benzyl-3-phenyl-[3,4\u2032-bipiperidine]-2,6-dione hydrochloride"], "SMILES": "O=C1C(CCC(=O)N1)(C2CCN(CC3=CC=CC=C3)CC2)C4=CC=CC=C4.Cl", "physical_data": {"Molecular Weight": "", "Molecular Formula": "C23H26N2O2.ClH", "Melting Point": "299-301.5 \u00b0C"}}