{"cas_no": "56341-38-9", "cn_name": "6-\u7532\u57fa\u5432\u54da\u916e", "en_name": ["1,3-Dihydro-6-methyl-2H-indol-2-one", "2H-Indol-2-one, 1,3-dihydro-6-methyl-", "1,3-Dihydro-6-methyl-2H-indol-2-one", "6-Methyl-2-oxoindoline", "6-Methyloxindole", "6-Methylindolin-2-one"], "SMILES": "O=C1CC=2C(N1)=CC(C)=CC2", "physical_data": {"Molecular Weight": "147.17", "Molecular Formula": "C9H9NO", "Melting Point": "179-180 \u00b0C"}}