{"cas_no": "56341-36-7", "cn_name": "1,5-\u4e8c\u7532\u57fa-2-\u5421\u54af\u7532\u8148", "en_name": ["1,5-Dimethylpyrrole-2-carbonitrile", "1H-Pyrrole-2-carbonitrile, 1,5-dimethyl-", "1,5-Dimethyl-1H-pyrrole-2-carbonitrile", "5-Cyano-1,2-dimethylpyrrole", "1,5-Dimethylpyrrole-2-carbonitrile", "1,2-Dimethyl-5-cyanopyrrole", "2-Cyano-1,5-dimethylpyrrole"], "SMILES": "C(#N)C=1N(C)C(C)=CC1", "physical_data": {"Molecular Weight": "120.15", "Molecular Formula": "C7H8N2", "Melting Point": "53-55 \u00b0C"}}