{"cas_no": "56341-37-8", "cn_name": "6-\u6c2f\u6c27\u5316\u5432\u54da", "en_name": ["6-Chlorooxindole", "2H-Indol-2-one, 6-chloro-1,3-dihydro-", "6-Chloro-1,3-dihydro-2H-indol-2-one", "6-Chloro-2-oxoindoline", "6-Chlorooxindole", "6-Chloro-2-oxindole", "6-Chloro-1,3-dihydroindol-2-one", "6-Chloro-2-indolinone"], "SMILES": "O=C1CC=2C(N1)=CC(Cl)=CC2", "physical_data": {"Molecular Weight": "167.59", "Molecular Formula": "C8H6ClNO", "Melting Point": "196-198 \u00b0C"}}