{"cas_no": "56341-41-4", "cn_name": "5-\u6c1f\u5432\u54da-2-\u916e", "en_name": ["5-Fluoro-1,3-dihydroindol-2-one", "2H-Indol-2-one, 5-fluoro-1,3-dihydro-", "5-Fluoro-1,3-dihydro-2H-indol-2-one", "5-Fluoro-2-oxoindoline", "5-Fluorooxindole", "5-Fluoro-2-oxindole", "5-Fluoro-2,3-dihydro-2-oxoindole", "5-Fluoro-1,3-dihydroindol-2-one", "5-Fluoroindolin-2-one", "5-Fluoro-2,3-dihydroindol-2-one"], "SMILES": "O=C1NC=2C(C1)=CC(F)=CC2", "physical_data": {"Molecular Weight": "151.14", "Molecular Formula": "C8H6FNO", "Melting Point": "143-144 \u00b0C"}}