{"cas_no": "56355-62-5", "cn_name": "2-\u6eb4-5-\u7532\u57fa\u567b\u5511-4-\u7532\u9178\u4e59\u916f", "en_name": ["4-Thiazolecarboxylic acid, 2-bromo-5-methyl-, ethyl ester", "4-Thiazolecarboxylic acid, 2-bromo-5-methyl-, ethyl ester", "2-Bromo-5-methyl-1,3-thiazole-4-carboxylic acid ethyl ester", "Ethyl 2-bromo-5-methylthiazole-4-carboxylate"], "SMILES": "C(OCC)(=O)C1=C(C)SC(Br)=N1", "physical_data": {"Molecular Weight": "250.11", "Molecular Formula": "C7H8BrNO2S", "Melting Point": "51-52 \u00b0C"}}