{"cas_no": "5635-67-6", "cn_name": "N-(3,4-\u4e8c\u6c2f\u82c4\u57fa)-N-\u7532\u80fa", "en_name": ["3,4-Dichloro-N-methylbenzenemethanamine", "Benzenemethanamine, 3,4-dichloro-N-methyl-", "Benzylamine, 3,4-dichloro-N-methyl-", "3,4-Dichloro-N-methylbenzenemethanamine", "N-Methyl-3,4-dichlorobenzylamine", "N-(3,4-Dichlorobenzyl)-N-methylamine", "1-(3,4-Dichlorophenyl)-N-methylmethanamine", "3,4-Dichloro-N-methylbenzylamine", "(3,4-Dichlorobenzyl)methylamine", "[(3,4-Dichlorophenyl)methyl](methyl)amine"], "SMILES": "C(NC)C1=CC(Cl)=C(Cl)C=C1", "physical_data": {"Molecular Weight": "190.07", "Molecular Formula": "C8H9Cl2N", "Boiling Point": "146 \u00b0C @ Press: 47 Torr"}}