{"cas_no": "56363-84-9", "cn_name": "2-\u6c2f-4-\u7f9f\u57fa\u82ef\u7532\u9178", "en_name": ["2-Chloro-4-hydroxybenzoic acid", "Benzoic acid, 2-chloro-4-hydroxy-", "2-Chloro-4-hydroxybenzoic acid", "2-Chloro-4-hydroxybenzoic"], "SMILES": "C(O)(=O)C1=C(Cl)C=C(O)C=C1", "physical_data": {"Molecular Weight": "172.57", "Molecular Formula": "C7H5ClO3", "Melting Point": "159 \u00b0C"}}