{"cas_no": "56365-38-9", "cn_name": "\u8335\u9648\u8272\u539f\u916e", "en_name": ["Capillarisin", "4H-1-Benzopyran-4-one, 5,7-dihydroxy-2-(4-hydroxyphenoxy)-6-methoxy-", "5,7-Dihydroxy-2-(4-hydroxyphenoxy)-6-methoxy-4H-1-benzopyran-4-one", "Capillarisin"], "SMILES": "OC1=C2C(OC(OC3=CC=C(O)C=C3)=CC2=O)=CC(O)=C1OC", "physical_data": {"Molecular Weight": "316.26", "Molecular Formula": "C16H12O7", "Melting Point": "202-205 \u00b0C"}}