{"cas_no": "5636-83-9", "cn_name": "\u4e8c\u7532\u831a\u5b9a", "en_name": ["(\u00b1)-Dimethindene", "1H-Indene-2-ethanamine, N,N-dimethyl-3-[1-(2-pyridinyl)ethyl]-", "Pyridine, 2-[1-[2-[2-(dimethylamino)ethyl]inden-3-yl]ethyl]-", "N,N-Dimethyl-3-[1-(2-pyridinyl)ethyl]-1H-indene-2-ethanamine", "Dimethindene", "2-(1-[2-(2-Dimethylaminoethyl)inden-3-yl]ethyl)pyridine", "Dimethpyrindene", "Dimetindene", "Forhistal", "3-[\u03b1-(2\u2032-Pyridyl)ethyl]-2-(\u03b2-dimethylaminoethyl)indene", "(\u00b1)-Dimethindene", "Feniallerg"], "SMILES": "C(C)(C=1C=2C(CC1CCN(C)C)=CC=CC2)C3=CC=CC=N3", "physical_data": {"Molecular Weight": "292.42", "Molecular Formula": "C20H24N2", "Boiling Point": "165-175 \u00b0C @ Press: 0.5 Torr"}}