{"cas_no": "5637-42-3", "cn_name": "N-(4-\u6c30\u57fa\u82ef\u57fa)\u80cd", "en_name": ["N-(4-Cyanophenyl)guanidine", "Guanidine, N-(4-cyanophenyl)-", "Guanidine, (p-cyanophenyl)-", "Guanidine, (4-cyanophenyl)-", "N-(4-Cyanophenyl)guanidine", "4-Cyanophenylguanidine", "1-(4-Cyanophenyl)guanidine", "2-(4-Cyanophenyl)guanidine"], "SMILES": "N(C(=N)N)C1=CC=C(C#N)C=C1", "physical_data": {"Molecular Weight": "160.18", "Molecular Formula": "C8H8N4", "Melting Point": "220-222 \u00b0C"}}