{"cas_no": "56377-79-8", "cn_name": "\u90a3\u897f\u80bd", "en_name": ["Nosiheptide", "4-Thiazolecarboxamide, N-[1-(aminocarbonyl)ethenyl]-2-[(11S,14Z,21S,23S,29S)-14-ethylidene-9,10,11,12,13,14,19,20,21,22,23,24,26,33,35,36-hexadecahydro-3,23-dihydroxy-11-[(1R)-1-hydroxyethyl]-31-methyl-9,12,19,24,33,43-hexaoxo-30,32-imino-8,5:18,15:40,37-trinitrilo-21,36-([2,4]-endo-thiazolomethanimino)-5H,15H,37H-pyrido[3,2-w][2,11,21,27,31,7,14,17]benzoxatetrathiatriazacyclohexatriacontin-2-yl]-", "Nosiheptide", "30,32-Imino-8,5:18,15:40,37-trinitrilo-21,36-([2,4]-endo-thiazolomethanimino)-5H,15H,37H-pyrido[3,2-w][2,11,21,27,31,7,14,17]benzoxatetrathiatriazacyclohexatriacontine, nosiheptide deriv.", "N-[1-(Aminocarbonyl)ethenyl]-2-[(11S,14Z,21S,23S,29S)-14-ethylidene-9,10,11,12,13,14,19,20,21,22,23,24,26,33,35,36-hexadecahydro-3,23-dihydroxy-11-[(1R)-1-hydroxyethyl]-31-methyl-9,12,19,24,33,43-hexaoxo-30,32-imino-8,5:18,15:40,37-trinitrilo-21,36-([2,4]-endo-thiazolomethanimino)-5H,15H,37H-pyrido[3,2-w][2,11,21,27,31,7,14,17]benzoxatetrathiatriazacyclohexatriacontin-2-yl]-4-thiazolecarboxamide", "Multhiomycin", "Multiomycin", "[11S-[11R*(S*),14Z,21R*,23R*,29R*]]-N-[1-(aminocarbonyl)ethenyl]-2-[14-ethylidene-9,10,11,12,13,14,19,20,21,22,23,24,26,33,35,36-hexadecahydro-3,23-dihydroxy-11-(1-hydroxyethyl)-31-methyl-9,12,19,24,33,43-hexaoxo-30,32-imino-8,5:18,15:40,37-trinitrilo-21,36-([2,4]-endo-thiazolomethanimino)-5H,15H,37H-pyrido[3,2-w][2,11,21,27,31,7,14,17]benzoxatetrathiatriazacyclohexatriacontin-2-yl]-4-thiazolecarboxamide", "Primofax", "RP 9671", "NSC 307240"], "SMILES": "OC=1C=C2C(C=3N=C(SC3)C4NC(=O)C=5N=C(SC5)C(NC(=O)C=6N=C(C(=CC)NC(=O)C(C(C)O)NC(=O)C=7N=C2SC7)SC6)CC(O)C(=O)OCC8=C9C(C)=C(C(=O)SC4)NC9=CC=C8)=NC1C%10=NC(C(NC(C(N)=O)=C)=O)=CS%10", "physical_data": {"Molecular Weight": "1222.36", "Molecular Formula": "C51H43N13O12S6", "Melting Point": "310-320 \u00b0C (decomp)"}}