{"cas_no": "56375-79-2", "cn_name": "\u7532\u57fa\u4e09\u4e01\u57fa\u6c2f\u5316\u94f5", "en_name": ["Methyltributylammonium chloride", "1-Butanaminium, N,N-dibutyl-N-methyl-, chloride (1:1)", "1-Butanaminium, N,N-dibutyl-N-methyl-, chloride", "Methyltributylammonium chloride", "Tributylmethylammonium chloride", "Aliquat 175", "N-Methyl-N,N,N-tributylammonium chloride"], "SMILES": "[N+](CCCC)(CCCC)(CCCC)C.[Cl-]", "physical_data": {"Molecular Weight": "", "Molecular Formula": "C13H30N.Cl", "Melting Point": "108-110 \u00b0C"}}