{"cas_no": "5638-78-8", "cn_name": "\u5417\u5549-4-\u7532\u8112\u76d0\u9178\u76d0", "en_name": ["4-Morpholinecarboximidamide, hydrochloride (1:1)", "4-Morpholinecarboximidamide, hydrochloride (1:1)", "4-Morpholinecarboxamidine, monohydrochloride", "4-Morpholinecarboximidamide, monohydrochloride", "Morpholinoformamidine hydrochloride", "Morpholine-4-carboxamidine hydrochloride"], "SMILES": "C(=N)(N)N1CCOCC1.Cl", "physical_data": {"Molecular Weight": "", "Molecular Formula": "C5H11N3O.ClH", "Melting Point": "130-160 \u00b0C"}}