{"cas_no": "56391-56-1", "cn_name": "\u5948\u66ff\u7c73\u661f", "en_name": ["Netilmicin", "D-Streptamine, O-3-deoxy-4-C-methyl-3-(methylamino)-\u03b2-L-arabinopyranosyl-(1\u21926)-O-[2,6-diamino-2,3,4,6-tetradeoxy-\u03b1-D-glycero-hex-4-enopyranosyl-(1\u21924)]-2-deoxy-N1-ethyl-", "O-3-Deoxy-4-C-methyl-3-(methylamino)-\u03b2-L-arabinopyranosyl-(1\u21926)-O-[2,6-diamino-2,3,4,6-tetradeoxy-\u03b1-D-glycero-hex-4-enopyranosyl-(1\u21924)]-2-deoxy-N1-ethyl-D-streptamine", "Sch 20569", "Netilmicin", "1-N-Ethylsisomicin", "1-N-Ethylsisomycin", "Netromycin", "MeSH ID: D009428"], "SMILES": "O(C1C(NCC)CC(N)C(OC2OC(CN)=CCC2N)C1O)C3C(O)C(NC)C(C)(O)CO3", "physical_data": {"Molecular Weight": "475.58", "Molecular Formula": "C21H41N5O7", "Melting Point": "100-103 \u00b0C"}}