{"cas_no": "56392-83-7", "cn_name": "1-(6-\u6c2f\u54d2\u55ea-3-\u57fa)\u54cc\u55ea", "en_name": ["3-Chloro-6-(1-piperazinyl)pyridazine", "Pyridazine, 3-chloro-6-(1-piperazinyl)-", "3-Chloro-6-(1-piperazinyl)pyridazine", "1-(6-Chloro-3-pyridazinyl)piperazine"], "SMILES": "ClC1=CC=C(N=N1)N2CCNCC2", "physical_data": {"Molecular Weight": "198.65", "Molecular Formula": "C8H11ClN4", "Melting Point": "101-103 \u00b0C"}}