{"cas_no": "56392-17-7", "cn_name": "\u9152\u77f3\u9178\u7f8e\u6258\u6d1b\u5c14", "en_name": ["Metoprolol tartrate", "2-Propanol, 1-[4-(2-methoxyethyl)phenoxy]-3-[(1-methylethyl)amino]-, (2R,3R)-2,3-dihydroxybutanedioate (2:1)", "2-Propanol, 1-[4-(2-methoxyethyl)phenoxy]-3-[(1-methylethyl)amino]-, (\u00b1)-, [R-(R*,R*)]-2,3-dihydroxybutanedioate (2:1) (salt)", "2-Propanol, 1-[4-(2-methoxyethyl)phenoxy]-3-[(1-methylethyl)amino]-, (2R,3R)-2,3-dihydroxybutanedioate (2:1) (salt)", "Metoprolol tartrate", "Lopresor", "Seloken", "Betaloc", "Slow Lopresor", "H 93/26", "Metoprolol tartrate (2:1)", "(\u00b1)-Metoprolol tartrate", "Beloc", "(\u00b1)-Metoprolol bitartrate", "1-(Isopropylamino)-3-[4-(2-methoxyethyl)phenoxy]-2-propanol tartrate", "Vasocardin", "(\u00b1)-1-(Isopropylamino)-3-[4-(2-methoxyethyl)phenoxy]-2-propanol tartrate", "2-Propanol, 1-[4-(2-methoxyethyl)phenoxy]-3-[(1-methylethyl)amino]-, [R-(R*,R*)]-2,3-dihydroxybutanedioate (2:1) (salt)", "Selopral", "CGP 2175E", "Prelis", "HCTCGP 2175E", "Metoprolol (+)-tartrate", "Metapro", "Metolar", "(\u00b1)Metoprolol-(+)-tartarate salt", "MetoHEXAL", "RS-metoprolol tartrate"], "SMILES": "C(C(C(O)=O)O)(C(O)=O)O.O(CC(CNC(C)C)O)C1=CC=C(CCOC)C=C1", "physical_data": {"Molecular Weight": "", "Molecular Formula": "C15H25NO3.<sup>1</sup>/2C4H6O6", "Melting Point": "120-123 \u00b0C"}}