{"cas_no": "56390-09-1", "cn_name": "\u76d0\u9178\u8868\u67d4\u6bd4\u661f", "en_name": ["Epirubicin hydrochloride", "5,12-Naphthacenedione, 10-[(3-amino-2,3,6-trideoxy-\u03b1-L-arabino-hexopyranosyl)oxy]-7,8,9,10-tetrahydro-6,8,11-trihydroxy-8-(2-hydroxyacetyl)-1-methoxy-, hydrochloride (1:1), (8S,10S)-", "5,12-Naphthacenedione, 10-[(3-amino-2,3,6-trideoxy-\u03b1-L-arabino-hexopyranosyl)oxy]-7,8,9,10-tetrahydro-6,8,11-trihydroxy-8-(hydroxyacetyl)-1-methoxy-, hydrochloride, (8S-cis)-", "5,12-Naphthacenedione, 10-[(3-amino-2,3,6-trideoxy-\u03b1-L-arabino-hexopyranosyl)oxy]-7,8,9,10-tetrahydro-6,8,11-trihydroxy-8-(hydroxyacetyl)-1-methoxy-, hydrochloride, (8S,10S)-", "4\u2032-epi-Adriamycin hydrochloride", "4\u2032-Epidoxorubicin hydrochloride", "Epirubicin hydrochloride", "Farmorubicin", "Pharmorubicin", "Epidoxorubicin hydrochloride", "Ellence"], "SMILES": "OC=1C2=C(C(OC3CC(N)C(O)C(C)O3)CC(C(CO)=O)(O)C2)C(O)=C4C1C(=O)C=5C(C4=O)=C(OC)C=CC5.Cl", "physical_data": {"Molecular Weight": "", "Molecular Formula": "C27H29NO11.ClH", "Melting Point": "185 \u00b0C (decomp)"}}