{"cas_no": "564-02-3", "cn_name": "2,2,3-\u4e09\u7532\u57fa\u620a\u70f7", "en_name": ["2,2,3-Trimethylpentane", "Pentane, 2,2,3-trimethyl-", "2,2,3-Trimethylpentane", "2-tert-Butylbutane", "NSC 73954", "(\u00b1)-2,2,3-Trimethylpentane"], "SMILES": "C(C(C)(C)C)(CC)C", "physical_data": {"Molecular Weight": "114.23", "Molecular Formula": "C8H18", "Boiling Point": "110 \u00b0C", "Melting Point": "-112.2 \u00b0C", "Density": "0.7219 g/cm\u00b3 @ Temp: 15 \u00b0C"}}