{"cas_no": "564-35-2", "cn_name": "11 -\u916e\u777e\u916e", "en_name": ["11-Ketotestosterone", "Androst-4-ene-3,11-dione, 17-hydroxy-, (17\u03b2)-", "Androst-4-ene-3,11-dione, 17\u03b2-hydroxy-", "(17\u03b2)-17-Hydroxyandrost-4-ene-3,11-dione", "11-Ketotestosterone", "4-Androsten-17\u03b2-ol-3,11-dione", "17\u03b2-Hydroxyandrost-4-ene-3,11-dione", "11-Oxotestosterone", "11-keto-Testosterone"], "SMILES": "CC12C3C(C4C(C)(CC3=O)C(O)CC4)CCC1=CC(=O)CC2", "physical_data": {"Molecular Weight": "302.41", "Molecular Formula": "C19H26O3", "Melting Point": "183-184 \u00b0C"}}