{"cas_no": "564-73-8", "cn_name": "\u548c\u539a\u6734\u915a", "en_name": ["Hinokiol", "2,6-Phenanthrenediol, 1,2,3,4,4a,9,10,10a-octahydro-1,1,4a-trimethyl-7-(1-methylethyl)-, (2S,4aS,10aR)-", "Podocarpa-8,11,13-triene-3\u03b2,12-diol, 13-isopropyl-", "Hinokiol", "2,6-Phenanthrenediol, 1,2,3,4,4a,9,10,10a-octahydro-1,1,4a-trimethyl-7-(1-methylethyl)-, [2S-(2\u03b1,4a\u03b1,10a\u03b2)]-", "(2S,4aS,10aR)-1,2,3,4,4a,9,10,10a-Octahydro-1,1,4a-trimethyl-7-(1-methylethyl)-2,6-phenanthrenediol", "(+)-Hinokiol", "NSC 319628"], "SMILES": "CC12C=3C(=CC(C(C)C)=C(O)C3)CCC1C(C)(C)C(O)CC2", "physical_data": {"Molecular Weight": "302.45", "Molecular Formula": "C20H30O2", "Melting Point": "240-242 \u00b0C"}}