{"cas_no": "564-20-5", "cn_name": "\u9999\u7d2b\u82cf\u5185\u916f", "en_name": ["(+)-Sclareolide", "Naphtho[2,1-b]furan-2(1H)-one, decahydro-3a,6,6,9a-tetramethyl-, (3aR,5aS,9aS,9bR)-", "Norambreinolide", "Naphtho[2,1-b]furan-2(1H)-one, 3a,4,5,5a\u03b1,6,7,8,9,9a,9b\u03b1-decahydro-3a\u03b2,6,6,9a\u03b2-tetramethyl-", "Naphtho[2,1-b]furan-2(1H)-one, decahydro-3a,6,6,9a-tetramethyl-, [3aR-(3a\u03b1,5a\u03b2,9a\u03b1,9b\u03b2)]-", "(3aR,5aS,9aS,9bR)-Decahydro-3a,6,6,9a-tetramethylnaphtho[2,1-b]furan-2(1H)-one", "(+)-Norambreinolide", "Norambreinolid", "(+)-Sclareolide", "Sclareolide", "(R)-(+)-Sclareolide", "13,14,15,16-Tetranorlabdano-8\u03b1,12-lactone", "(3\u03b1R)-(+)-Sclareolide", "(3aR)-(+)-Sclareolide", "(3AR,5aS,9aS,9bR)-3a,6,6,9a-tetramethyldecahydronaphtho[2,1-b]furan-2(1H)-one"], "SMILES": "CC12C3C(C)(CCC1C(C)(C)CCC2)OC(=O)C3", "physical_data": {"Molecular Weight": "250.38", "Molecular Formula": "C16H26O2", "Melting Point": "125 \u00b0C"}}