{"cas_no": "564-36-3", "cn_name": "\u9ea6\u89d2\u8003\u5b81", "en_name": ["Ergocornine", "Ergotaman-3\u2032,6\u2032,18-trione, 12\u2032-hydroxy-2\u2032,5\u2032-bis(1-methylethyl)-, (5\u2032\u03b1)-", "Ergocornine", "Indolo[4,3-fg]quinoline, ergotaman-3\u2032,6\u2032,18-trione deriv.", "8H-Oxazolo[3,2-a]pyrrolo[2,1-c]pyrazine, ergotaman-3\u2032,6\u2032,18-trione deriv.", "(5\u2032\u03b1)-12\u2032-Hydroxy-2\u2032,5\u2032-bis(1-methylethyl)ergotaman-3\u2032,6\u2032,18-trione", "Ergocornin", "NSC 407316"], "SMILES": "OC12N(C(=O)C(NC(=O)C3C=C4C=5C=6C(CC4N(C)C3)=CNC6C=CC5)(C(C)C)O1)C(C(C)C)C(=O)N7C2CCC7", "physical_data": {"Molecular Weight": "561.67", "Molecular Formula": "C31H39N5O5", "Melting Point": "182-184 \u00b0C (decomp)"}}