{"cas_no": "564-94-3", "cn_name": "(-)-\u6843\u91d1\u5a18\u70ef\u919b(\u9999\u6843\u6728\u919b)", "en_name": ["(\u00b1)-Myrtenal", "Bicyclo[3.1.1]hept-2-ene-2-carboxaldehyde, 6,6-dimethyl-", "2-Norpinene-2-carboxaldehyde, 6,6-dimethyl-", "6,6-Dimethylbicyclo[3.1.1]hept-2-ene-2-carboxaldehyde", "Myrtenal", "(\u00b1)-Myrtenal", "NSC 54384", "6,6-Dimethyl-2-norpinene-2-carboxaldehyde", "Benihinal"], "SMILES": "CC1(C)C2C(C=O)=CCC1C2", "physical_data": {"Molecular Weight": "150.22", "Molecular Formula": "C10H14O", "Boiling Point": "220.5 \u00b0C", "Melting Point": "53-54 \u00b0C", "Density": "0.9969 g/cm\u00b3 @ Temp: 0 \u00b0C"}}