{"cas_no": "56406-50-9", "cn_name": "3-\u785d\u57fa\u82ef\u7532\u8112\u76d0\u9178\u76d0", "en_name": ["Benzenecarboximidamide, 3-nitro-, hydrochloride (1:1)", "Benzenecarboximidamide, 3-nitro-, hydrochloride (1:1)", "Benzenecarboximidamide, 3-nitro-, monohydrochloride", "Benzamidine, m-nitro-, hydrochloride", "3-Nitrobenzamidine hydrochloride", "3-Nitrobenzene-1-carboximidamide hydrochloride"], "SMILES": "C(=N)(N)C1=CC(N(=O)=O)=CC=C1.Cl", "physical_data": {"Molecular Weight": "", "Molecular Formula": "C7H7N3O2.ClH", "Melting Point": "199-201 \u00b0C"}}