{"cas_no": "56425-91-3", "cn_name": "\u544b\u5627\u9187", "en_name": ["Flurprimidol", "5-Pyrimidinemethanol, \u03b1-(1-methylethyl)-\u03b1-[4-(trifluoromethoxy)phenyl]-", "\u03b1-(1-Methylethyl)-\u03b1-[4-(trifluoromethoxy)phenyl]-5-pyrimidinemethanol", "\u03b1-Isopropyl-\u03b1-[p-(trifluoromethoxy)phenyl]-5-pyrimidinemethanol", "EL 500", "Flurprimidol", "Cutless", "Topflor"], "SMILES": "C(C(C)C)(O)(C1=CC=C(OC(F)(F)F)C=C1)C=2C=NC=NC2", "physical_data": {"Molecular Weight": "312.29", "Molecular Formula": "C15H15F3N2O2", "Boiling Point": "264 \u00b0C", "Melting Point": "95 \u00b0C"}}