{"cas_no": "56430-08-1", "cn_name": "4-\u7532\u57fa\u5b89\u66ff\u6bd4\u6797", "en_name": ["1,2-Dihydro-1,5-dimethyl-2-(4-methylphenyl)-3H-pyrazol-3-one", "3H-Pyrazol-3-one, 1,2-dihydro-1,5-dimethyl-2-(4-methylphenyl)-", "3-Pyrazolin-5-one, 2,3-dimethyl-1-p-tolyl-", "1,2-Dihydro-1,5-dimethyl-2-(4-methylphenyl)-3H-pyrazol-3-one", "2,3-Dimethyl-1-(4-methylphenyl)-3-pyrazolin-5-one", "1,5-Dimethyl-2-(4-methylphenyl)pyrazol-3-one", "1,5-Dimethyl-2-(p-tolyl)-1H-pyrazol-3(2H)-one", "2,3-Dimethyl-1-(4-methylphenyl)-3-pyrazoline-5-one"], "SMILES": "O=C1N(N(C)C(C)=C1)C2=CC=C(C)C=C2", "physical_data": {"Molecular Weight": "202.25", "Molecular Formula": "C12H14N2O", "Melting Point": "147.8-148.6 \u00b0C"}}