{"cas_no": "56433-01-3", "cn_name": "6-\u6c2f-2-\u785d\u57fa\u6eb4\u82c4", "en_name": ["2-(Bromomethyl)-1-chloro-3-nitrobenzene", "Benzene, 2-(bromomethyl)-1-chloro-3-nitro-", "Toluene, \u03b1-bromo-2-chloro-6-nitro-", "2-(Bromomethyl)-1-chloro-3-nitrobenzene", "6-Chloro-2-nitrobenzyl bromide", "2-Chloro-6-nitrobenzyl bromide", "2-Bromomethyl-3-chloronitrobenzene"], "SMILES": "C(Br)C1=C(N(=O)=O)C=CC=C1Cl", "physical_data": {"Molecular Weight": "250.48", "Molecular Formula": "C7H5BrClNO2", "Boiling Point": "134 \u00b0C @ Press: 18 Torr", "Melting Point": "50.5 \u00b0C"}}