{"cas_no": "56441-55-5", "cn_name": "4-(\u82c4\u6c27\u57fa)\u82ef\u7532\u9178\u4e59\u916f", "en_name": ["Ethyl 4-(phenylmethoxy)benzoate", "Benzoic acid, 4-(phenylmethoxy)-, ethyl ester", "Benzoic acid, p-(benzyloxy)-, ethyl ester", "Ethyl 4-(phenylmethoxy)benzoate", "[4-(Ethoxycarbonyl)phenoxy]phenylmethane", "BRL 10894", "Ethyl 4-benzyloxybenzoate", "Ethyl p-benzyloxybenzoate"], "SMILES": "C(OCC)(=O)C1=CC=C(OCC2=CC=CC=C2)C=C1", "physical_data": {"Molecular Weight": "256.30", "Molecular Formula": "C16H16O3", "Melting Point": "44 \u00b0C"}}