{"cas_no": "564483-18-7", "cn_name": "2-\u4e8c\u73af\u5df1\u57fa\u81a6-2',4',6'-\u4e09\u5f02\u4e19\u57fa\u8054\u82ef", "en_name": ["X-Phos", "Phosphine, dicyclohexyl[2\u2032,4\u2032,6\u2032-tris(1-methylethyl)[1,1\u2032-biphenyl]-2-yl]-", "Dicyclohexyl[2\u2032,4\u2032,6\u2032-tris(1-methylethyl)[1,1\u2032-biphenyl]-2-yl]phosphine", "X-Phos", "2-(Dicyclohexylphosphino)-2\u2032,4\u2032,6\u2032-triisopropyl-1,1\u2032-biphenyl", "2,,4\u2032,6\u2032-Diisopropyl-1,1\u2032-biphenyl-2-yldicyclohexylphosphine", "Dicyclohexyl(2\u2032,4\u2032,6\u2032-triisopropylbiphenyl-2-yl)phosphine", "2-(Dicyclohexylphosphino)-2\u2032,4\u2032,6\u2032-tri(isopropyl)biphenyl", "[2\u2032,4\u2032,6\u2032-Triisopropyl-1,1\u2032-biphenyl-2-yl]dicyclohexylphosphine", "2-Dicyclohexylphosphino-2\u2032,4\u2032,6\u2032-triisoprophylbiphenyl", "Dicyclohexyl(2\u2032,4\u2032,6\u2032-triisopropyl[1,1\u2032-biphenyl]-2-yl)phosphine"], "SMILES": "C(C)(C)C1=C(C(C(C)C)=CC(C(C)C)=C1)C2=C(P(C3CCCCC3)C4CCCCC4)C=CC=C2", "physical_data": {"Molecular Weight": "476.72", "Molecular Formula": "C33H49P", "Melting Point": "182-184 \u00b0C"}}