{"cas_no": "56442-17-2", "cn_name": "4-(4-\u6c1f\u82c4\u6c27\u57fa)\u82ef\u7532\u919b", "en_name": ["4-[(4-Fluorophenyl)methoxy]benzaldehyde", "Benzaldehyde, 4-[(4-fluorophenyl)methoxy]-", "4-[(4-Fluorophenyl)methoxy]benzaldehyde", "4-(4-Fluorobenzyloxy)benzaldehyde", "4-(4\u2032-Fluorobenzyloxy)benzaldehyde"], "SMILES": "O(CC1=CC=C(F)C=C1)C2=CC=C(C=O)C=C2", "physical_data": {"Molecular Weight": "230.23", "Molecular Formula": "C14H11FO2", "Melting Point": "99-100 \u00b0C"}}