{"cas_no": "56467-43-7", "cn_name": "4-\u7532\u57fa\u4e19\u70ef\u9170\u6c27\u57fa\u4e8c\u82ef\u7532\u916e", "en_name": ["4-Benzoylphenyl methacrylate", "2-Propenoic acid, 2-methyl-, 4-benzoylphenyl ester", "Methacrylic acid, ester with 4-hydroxybenzophenone", "4-(Methacryloxy)benzophenone", "4-(Methacryloyloxy)benzophenone", "4-Benzoylphenyl methacrylate"], "SMILES": "C(=O)(C1=CC=C(OC(C(C)=C)=O)C=C1)C2=CC=CC=C2", "physical_data": {"Molecular Weight": "266.29", "Molecular Formula": "C17H14O3", "Melting Point": "63 \u00b0C"}}