{"cas_no": "56469-10-4", "cn_name": "5-(1',1'-\u4e8c\u7532\u57fa\u5e9a\u57fa)\u95f4\u82ef\u4e8c\u915a", "en_name": ["5-(1,1-Dimethylheptyl)resorcinol", "1,3-Benzenediol, 5-(1,1-dimethylheptyl)-", "5-(1,1-Dimethylheptyl)-1,3-benzenediol", "5-(1,1-Dimethylheptyl)resorcinol", "5-(1,1-Dimethylheptyl)benzene-1,3-diol"], "SMILES": "C(CCCCCC)(C)(C)C1=CC(O)=CC(O)=C1", "physical_data": {"Molecular Weight": "236.35", "Molecular Formula": "C15H24O2", "Boiling Point": "161-163 \u00b0C @ Press: 0.5 Torr", "Melting Point": "99 \u00b0C"}}