{"cas_no": "56468-23-6", "cn_name": "8-\u6c2f\u54aa\u5511\u5e76[1,5-A]\u5421\u55ea", "en_name": ["8-Chloroimidazo[1,5-a]pyrazine", "Imidazo[1,5-a]pyrazine, 8-chloro-", "8-Chloroimidazo[1,5-a]pyrazine"], "SMILES": "ClC=1C=2N(C=CN1)C=NC2", "physical_data": {"Molecular Weight": "153.57", "Molecular Formula": "C6H4ClN3", "Melting Point": "105-106 \u00b0C"}}