{"cas_no": "56488-60-9", "cn_name": "\u78fa\u4e59\u8c37\u9170\u80fa", "en_name": ["\u03b3-Glutamyltaurine", "L-Glutamine, N-(2-sulfoethyl)-", "N-(2-Sulfoethyl)-L-glutamine", "\u03b3-L-Glutamyltaurine", "Litoralon", "Glutaurine", "\u03b3-Glutamyltaurine", "11: PN: WO2011158590 PAGE: 34 claimed sequence", "24: PN: CN107114752 PAGE: 2 claimed sequence", "(2S)-2-Amino-4-[(2-sulfoethyl)carbamoyl]butanoic acid", "(S)-2-Amino-5-oxo-5-((2-sulfoethyl)amino)pentanoic acid"], "SMILES": "C(CCC(C(O)=O)N)(NCCS(=O)(=O)O)=O", "physical_data": {"Molecular Weight": "254.26", "Molecular Formula": "C7H14N2O6S", "Melting Point": "223-226 \u00b0C"}}