{"cas_no": "56486-94-3", "cn_name": "2',4',5,7-\u56db\u7f9f\u57fa\u9ec4\u70f7\u916e", "en_name": ["Steppogenin", "4H-1-Benzopyran-4-one, 2-(2,4-dihydroxyphenyl)-2,3-dihydro-5,7-dihydroxy-, (2S)-", "4H-1-Benzopyran-4-one, 2-(2,4-dihydroxyphenyl)-2,3-dihydro-5,7-dihydroxy-, (S)-", "(2S)-2-(2,4-Dihydroxyphenyl)-2,3-dihydro-5,7-dihydroxy-4H-1-benzopyran-4-one", "Norartocarpanone", "(+)-5,7,2\u2032,4\u2032-Tetrahydroxyflavanone", "Steppogenin", "5,7,2\u2032,4\u2032-Tetrahydroxyflavanone", "(2S)-5,7,2\u2032,4\u2032-Tetrahydroxyflavanone", "2\u2032,4\u2032,5,7-Tetrahydroxyflavanone", "(+)-Norartocarpanone", "(2S)-2-(2,4-Dihydroxyphenyl)-5,7-dihydroxy-2,3-dihydrochromen-4-one"], "SMILES": "O=C1C=2C(OC(C1)C3=C(O)C=C(O)C=C3)=CC(O)=CC2O", "physical_data": {"Molecular Weight": "288.25", "Molecular Formula": "C15H12O6", "Melting Point": "255-257 \u00b0C"}}