{"cas_no": "56495-82-0", "cn_name": "\u9a6c\u853a\u5b50\u7d20", "en_name": ["Irisquinone", "2,5-Cyclohexadiene-1,4-dione, 2-(10Z)-10-heptadecen-1-yl-6-methoxy-", "2,5-Cyclohexadiene-1,4-dione, 2-(10-heptadecenyl)-6-methoxy-, (Z)-", "2,5-Cyclohexadiene-1,4-dione, 2-(10Z)-10-heptadecenyl-6-methoxy-", "2-(10Z)-10-Heptadecen-1-yl-6-methoxy-2,5-cyclohexadiene-1,4-dione", "Irisquinone A", "2-(cis-10-Heptadecenyl)-6-methoxy-p-benzoquinone", "Irisquinone"], "SMILES": "C(CCCCCCCCC=CCCCCCC)C=1C(=O)C(OC)=CC(=O)C1", "physical_data": {"Molecular Weight": "374.56", "Molecular Formula": "C24H38O3", "Melting Point": "40-43 \u00b0C"}}