{"cas_no": "5649-49-0", "cn_name": "1,4-\u53cc(2-\u7fa7\u4e59\u57fa)\u54cc\u55ea", "en_name": ["1,4-Piperazinedipropanoic acid", "1,4-Piperazinedipropanoic acid", "1,4-Piperazinedipropionic acid", "1,4-Bis(2-carboxyethyl)piperazine", "NSC 39644", "N,N\u2032-Piperazinedipropionic acid"], "SMILES": "C(CC(O)=O)N1CCN(CCC(O)=O)CC1", "physical_data": {"Molecular Weight": "230.26", "Molecular Formula": "C10H18N2O4", "Melting Point": "261-262 \u00b0C"}}