{"cas_no": "565-80-0", "cn_name": "2,4-\u4e8c\u7532\u57fa-3-\u620a\u916e", "en_name": ["Diisopropyl ketone", "3-Pentanone, 2,4-dimethyl-", "2,4-Dimethyl-3-pentanone", "Diisopropyl ketone", "Isobutyrone", "Isopropyl ketone", "NSC 14662"], "SMILES": "C(C(C)C)(C(C)C)=O", "physical_data": {"Molecular Weight": "114.19", "Molecular Formula": "C7H14O", "Boiling Point": "125.4 \u00b0C", "Melting Point": "-69 \u00b0C", "Density": "0.8039 g/cm\u00b3 @ Temp: 20 \u00b0C"}}