{"cas_no": "565-69-5", "cn_name": "2-\u7532\u57fa-3-\u620a\u916e", "en_name": ["2-Methyl-3-pentanone", "3-Pentanone, 2-methyl-", "2-Methyl-3-pentanone", "Ethyl isopropyl ketone", "Isopropyl ethyl ketone", "4-Methyl-3-pentanone"], "SMILES": "C(C(C)C)(CC)=O", "physical_data": {"Molecular Weight": "100.16", "Molecular Formula": "C6H12O", "Boiling Point": "113.5 \u00b0C", "Melting Point": "-69 \u00b0C", "Density": "0.8349 g/cm\u00b3 @ Temp: 0 \u00b0C"}}