{"cas_no": "565-68-4", "cn_name": "4-\u7532\u57fa-3-\u7f9f\u57fa-1-\u620a\u7094", "en_name": ["4-Methyl-1-pentyn-3-ol", "1-Pentyn-3-ol, 4-methyl-", "4-Methyl-1-pentyn-3-ol", "1-Isopropylpropargyl alcohol", "3-Hydroxy-4-methyl-1-pentyne", "NSC 96446", "2-Methyl-4-pentyn-3-ol", "4-Methylpentyn-3-ol"], "SMILES": "C(C(C)C)(C#C)O", "physical_data": {"Molecular Weight": "98.14", "Molecular Formula": "C6H10O", "Boiling Point": "131-133 \u00b0C", "Density": "0.8779 g/cm\u00b3 @ Temp: 20 \u00b0C"}}