{"cas_no": "565-71-9", "cn_name": "DL-\u5f02\u4e1d\u6c28\u9178", "en_name": ["Isoserine", "Propanoic acid, 3-amino-2-hydroxy-", "Isoserine", "3-Amino-2-hydroxypropanoic acid", "3-Aminolactic acid", "2-Hydroxy-\u03b2-alanine", "3-Amino-2-hydroxypropionic acid", "DL-Isoserine", "(\u00b1)-Isoserine"], "SMILES": "C(C(O)=O)(CN)O", "physical_data": {"Molecular Weight": "105.09", "Molecular Formula": "C3H7NO3", "Melting Point": "245 \u00b0C"}}