{"cas_no": "565-63-9", "cn_name": "\u4f9d\u66ff\u524d\u5217\u901a", "en_name": ["Angelic acid", "2-Butenoic acid, 2-methyl-, (2Z)-", "Angelic acid", "Crotonic acid, 2-methyl-, (Z)-", "2-Butenoic acid, 2-methyl-, (Z)-", "(2Z)-2-Methyl-2-butenoic acid", "cis-2-Methyl-2-butenoic acid", "cis-\u03b1,\u03b2-Dimethylacrylic acid", "(Z)-2-Methylbut-2-enoic acid", "(Z)-2-Methylbutenoic acid"], "SMILES": "C(C(O)=O)(=CC)C", "physical_data": {"Molecular Weight": "100.12", "Molecular Formula": "C5H8O2", "Boiling Point": "185 \u00b0C", "Melting Point": "45.5 \u00b0C", "Density": "9.9298 g/cm\u00b3 @ Temp: 99.600078125 \u00b0C"}}