{"cas_no": "565-62-8", "cn_name": "3-\u7532\u57fa-\u620a\u70ef-2-\u916e", "en_name": ["3-Methyl-3-penten-2-one", "3-Penten-2-one, 3-methyl-", "3-Methyl-3-penten-2-one", "2-Oxo-3-methyl-3-pentene", "3-Methyl-2-penten-4-one", "NSC 75836"], "SMILES": "C(C(C)=O)(=CC)C", "physical_data": {"Molecular Weight": "98.14", "Molecular Formula": "C6H10O", "Boiling Point": "136-138 \u00b0C", "Density": "0.874 g/cm\u00b3 @ Temp: 15 \u00b0C"}}