{"cas_no": "565-60-6", "cn_name": "3-\u7532\u57fa-2-\u620a\u9187", "en_name": ["3-Methyl-2-pentanol", "2-Pentanol, 3-methyl-", "3-Methyl-2-pentanol", "3-Methyl-4-pentanol", "3-Methyl-2-pentyl alcohol", "NSC 92741", "2-Hydroxy-3-methylpentane", "1,2-Dimethylbutanol"], "SMILES": "C(C(C)O)(CC)C", "physical_data": {"Molecular Weight": "102.17", "Molecular Formula": "C6H14O", "Boiling Point": "134.3 \u00b0C", "Melting Point": "158-159 \u00b0C"}}