{"cas_no": "565-59-3", "cn_name": "2,3-\u4e8c\u7532\u57fa\u620a\u70f7", "en_name": ["2,3-Dimethylpentane", "Pentane, 2,3-dimethyl-", "2,3-Dimethylpentane", "3,4-Dimethylpentane", "NSC 23696", "(\u00b1)-2,3-Dimethylpentane"], "SMILES": "C(C(C)C)(CC)C", "physical_data": {"Molecular Weight": "100.20", "Molecular Formula": "C7H16", "Boiling Point": "89.7 \u00b0C", "Density": "0.7117 g/cm\u00b3 @ Temp: 0 \u00b0C"}}