{"cas_no": "565-20-8", "cn_name": "N-\u4e59\u9170\u6c28\u82ef\u781c", "en_name": ["Monoacetyldapsone", "Acetamide, N-[4-[(4-aminophenyl)sulfonyl]phenyl]-", "Acetanilide, 4\u2032-sulfanilyl-", "N-[4-[(4-Aminophenyl)sulfonyl]phenyl]acetamide", "4\u2032-Sulfanilylacetanilide", "Monoacetyldapsone", "4-Amino-4\u2032-acetamidodiphenyl sulfone", "Acetyldapsone", "4-Acetylamino-4\u2032-aminodiphenyl sulfone", "4-Acetamido-4\u2032-aminodiphenyl sulfone", "4-Acetamidophenyl 4\u2032-aminophenyl sulfone", "4-Acetylamino-4\u2032-aminophenyl sulfone", "N-Acetyldapsone", "MADDS", "NSC 27184"], "SMILES": "S(=O)(=O)(C1=CC=C(NC(C)=O)C=C1)C2=CC=C(N)C=C2", "physical_data": {"Molecular Weight": "290.34", "Molecular Formula": "C14H14N2O3S", "Melting Point": "242-243 \u00b0C"}}