{"cas_no": "565-75-3", "cn_name": "2,3,4-\u4e09\u7532\u57fa\u620a\u70f7", "en_name": ["2,3,4-Trimethylpentane", "Pentane, 2,3,4-trimethyl-", "2,3,4-Trimethylpentane", "1,1-Diisopropylethane", "NSC 24846"], "SMILES": "C(C(C)C)(C(C)C)C", "physical_data": {"Molecular Weight": "114.23", "Molecular Formula": "C8H18", "Boiling Point": "113.5 \u00b0C", "Melting Point": "-109.2 \u00b0C", "Density": "0.7179 g/cm\u00b3 @ Temp: 20 \u00b0C"}}