{"cas_no": "565-74-2", "cn_name": "2-\u6eb4\u4ee3\u5f02\u620a\u9178", "en_name": ["2-Bromo-3-methylbutyric acid", "Butanoic acid, 2-bromo-3-methyl-", "Butyric acid, 2-bromo-3-methyl-", "Isovaleric acid, \u03b1-bromo-", "2-Bromo-3-methylbutanoic acid", "\u03b1-Bromoisovaleric acid", "2-Bromo-3-methylbutyric acid", "2-Bromoisovaleric acid", "DL-\u03b1-Bromo-\u03b2-methylbutyric acid", "(\u00b1)-2-Bromoisovaleric acid", "(\u00b1)-\u03b1-Bromoisopentanoic acid", "(\u00b1)-2-Bromo-3-methylbutyric acid", "(\u00b1)-2-Bromo-3-methylbutanoic acid", "NSC 167", "NSC 6967"], "SMILES": "C(C(C)C)(C(O)=O)Br", "physical_data": {"Molecular Weight": "181.03", "Molecular Formula": "C5H9BrO2", "Boiling Point": "230 \u00b0C", "Melting Point": "44 \u00b0C"}}