{"cas_no": "565-67-3", "cn_name": "2-\u7532\u57fa-3-\u620a\u9187", "en_name": ["(\u00b1)-2-Methyl-3-pentanol", "3-Pentanol, 2-methyl-", "2-Methyl-3-pentanol", "4-Methyl-3-pentanol", "2-Methyl-3-pentyl alcohol", "DL-4-Methylpentan-3-ol", "(\u00b1)-2-Methyl-3-pentanol", "(\u00b1)-4-Methyl-3-pentanol", "1-Ethyl-2-methylpropyl alcohol"], "SMILES": "C(C(C)C)(CC)O", "physical_data": {"Molecular Weight": "102.17", "Molecular Formula": "C6H14O", "Boiling Point": "126.5 \u00b0C", "Density": "0.8230 g/cm\u00b3 @ Temp: 20 \u00b0C"}}