{"cas_no": "565-61-7", "cn_name": "3-\u7532\u57fa-2-\u620a\u916e", "en_name": ["(\u00b1)-3-Methyl-2-pentanone", "2-Pentanone, 3-methyl-", "3-Methyl-2-pentanone", "Methyl sec-butyl ketone", "sec-Butyl methyl ketone", "Methyl 1-methylpropyl ketone", "(\u00b1)-3-Methyl-2-pentanone", "NSC 66492"], "SMILES": "C(C(C)=O)(CC)C", "physical_data": {"Molecular Weight": "100.16", "Molecular Formula": "C6H12O", "Boiling Point": "118 \u00b0C", "Density": "0.8145 g/cm\u00b3 @ Temp: 15 \u00b0C"}}