{"cas_no": "565-64-0", "cn_name": "2,3-\u4e8c\u6c2f\u4e19\u9178", "en_name": ["2,3-Dichloropropionic acid", "Propanoic acid, 2,3-dichloro-", "Propionic acid, 2,3-dichloro-", "2,3-Dichloropropanoic acid", "2,3-Dichloropropionic acid", "\u03b1,\u03b2-Dichloropropionic acid", "NSC 60521"], "SMILES": "C(C(O)=O)(CCl)Cl", "physical_data": {"Molecular Weight": "142.97", "Molecular Formula": "C3H4Cl2O2", "Boiling Point": "210 \u00b0C", "Melting Point": "50 \u00b0C"}}