{"cas_no": "565-48-0", "cn_name": "4-P-\u6a1f\u70f7-1,8-\u4e8c\u9187", "en_name": ["cis-4-Hydroxy-\u03b1,\u03b1,4-trimethylcyclohexanemethanol", "Cyclohexanemethanol, 4-hydroxy-\u03b1,\u03b1,4-trimethyl-, cis-", "p-Menthane-1,8-diol, stereoisomer", "cis-4-Hydroxy-\u03b1,\u03b1,4-trimethylcyclohexanemethanol", "cis-1,8-p-Menthanediol", "cis-p-Menthan-1,8-diol"], "SMILES": "C(C)(C)(O)C1CCC(C)(O)CC1", "physical_data": {"Molecular Weight": "172.26", "Molecular Formula": "C10H20O2", "Melting Point": "104 \u00b0C"}}