{"cas_no": "56503-96-9", "cn_name": "4-\u8418-1-\u57fa-1,3-\u567b\u5511-2-\u80fa", "en_name": ["4-(1-Naphthalenyl)-2-thiazolamine", "2-Thiazolamine, 4-(1-naphthalenyl)-", "Thiazole, 2-amino-4-(1-naphthyl)-", "4-(1-Naphthalenyl)-2-thiazolamine", "2-Amino-4-\u03b1-naphthylthiazole", "2-Amino-4-naphth-1\u2032-ylthiazole", "2-Amino-4-(naphthalin-1-yl)thiazol", "2-Amino-4-(naphthalen-1-yl)thiazole", "4-(Naphthalen-1-yl)-2-aminothiazole"], "SMILES": "NC1=NC(C=2C3=C(C=CC2)C=CC=C3)=CS1", "physical_data": {"Molecular Weight": "226.30", "Molecular Formula": "C13H10N2S", "Melting Point": "162 \u00b0C"}}