{"cas_no": "5650-52-2", "cn_name": "4,5-\u4e8c\u6c22\u73af\u620a\u70ef[B]\u567b\u5429-6-\u916e", "en_name": ["4,5-Dihydro-6H-cyclopenta[b]thiophen-6-one", "6H-Cyclopenta[b]thiophen-6-one, 4,5-dihydro-", "4,5-Dihydro-6H-cyclopenta[b]thiophen-6-one", "NSC 241111", "4,5-Dihydrocyclopenta[b]thiophen-6-one"], "SMILES": "O=C1C2=C(C=CS2)CC1", "physical_data": {"Molecular Weight": "138.19", "Molecular Formula": "C7H6OS", "Melting Point": "90-91 \u00b0C"}}