{"cas_no": "56502-01-3", "cn_name": "Boc-L-beta-\u9ad8\u812f\u6c28\u9178", "en_name": ["(2S)-1-[(1,1-Dimethylethoxy)carbonyl]-2-pyrrolidineacetic acid", "2-Pyrrolidineacetic acid, 1-[(1,1-dimethylethoxy)carbonyl]-, (2S)-", "2-Pyrrolidineacetic acid, 1-[(1,1-dimethylethoxy)carbonyl]-, (S)-", "(2S)-1-[(1,1-Dimethylethoxy)carbonyl]-2-pyrrolidineacetic acid", "(S)-1-(tert-Butoxycarbonyl)-2-pyrrolidineacetic acid", "(S)-2-Carboxymethylpyrrolidine-1-carboxylic acid tert-butyl ester", "(S)-2-(Carboxymethyl)pyrrolidine-1-carboxylic acid tert-butyl ester", "(S)-[1-(tert-Butoxycarbonyl)pyrrolidin-2-yl]acetic acid", "(S)-2-[1-(tert-Butoxycarbonyl)pyrrolidin-2-yl]ethanoic acid", "(S)-2-[1-(tert-Butoxycarbonyl)pyrrolidin-2-yl]acetic acid", "L-Boc-\u03b2-homoproline", "[(2S)-1-(tert-Butoxycarbonyl)pyrrolidin-2-yl]acetic acid", "2-[(2S)-1-(tert-Butoxycarbonyl)pyrrolidin-2-yl]acetic acid", "2-[(2S)-1-[(tert-Butoxy)carbonyl]pyrrolidin-2-yl]acetic acid", "2-[(2S)-1-[(2-Methylpropan-2-yl)oxycarbonyl]pyrrolidin-2-yl]acetic acid", "(S)-2-(-(tert-Butoxycarbonyl)pyrrolidin-2-yl)acetic acid"], "SMILES": "C(OC(C)(C)C)(=O)N1C(CC(O)=O)CCC1", "physical_data": {"Molecular Weight": "229.27", "Molecular Formula": "C11H19NO4", "Melting Point": "98 \u00b0C"}}