{"cas_no": "56518-41-3", "cn_name": "\u6eb4\u83ab\u666e\u6797", "en_name": ["Brodimoprim", "2,4-Pyrimidinediamine, 5-[(4-bromo-3,5-dimethoxyphenyl)methyl]-", "5-[(4-Bromo-3,5-dimethoxyphenyl)methyl]-2,4-pyrimidinediamine", "Ro 10-5970", "Brodimoprim", "Hyprim", "Ro 105970", "Unitrim", "(2,4-diamino-5-(4-bromo-3,5-dimethoxybenzylpyrimidine)", "2,4-diamino-5-(4-bromo-3,5-dimethoxybenzyl) pyrimidine"], "SMILES": "C(C1=CC(OC)=C(Br)C(OC)=C1)C=2C(N)=NC(N)=NC2", "physical_data": {"Molecular Weight": "339.19", "Molecular Formula": "C13H15BrN4O2", "Melting Point": "225-228 \u00b0C", "Density": "1.657 g/cm\u00b3 @ Temp: -160 \u00b0C"}}