{"cas_no": "5651-88-7", "cn_name": "\u82ef\u57fa\u4e19\u7094\u57fa\u786b\u919a", "en_name": ["(2-Propyn-1-ylthio)benzene", "Benzene, (2-propyn-1-ylthio)-", "Sulfide, phenyl 2-propynyl", "Benzene, (2-propynylthio)-", "(2-Propyn-1-ylthio)benzene", "Phenyl propargyl sulfide", "Phenyl 2-propynyl sulfide", "1-Phenylthio-2-propyne", "3-(Phenylthio)propyne", "Propargyl phenyl sulfide", "3-Phenylthio-1-propyne", "(2-Propynylthio)benzene", "Prop-2-ynylthiobenzene", "Phenyl propargyl thioether", "Phenylthiomethylacetylene", "Propargyl phenyl thioether", "(Prop-2-yn-1-ylsulfanyl)benzene"], "SMILES": "S(CC#C)C1=CC=CC=C1", "physical_data": {"Molecular Weight": "148.22", "Molecular Formula": "C9H8S", "Boiling Point": "104-110 \u00b0C @ Press: 10 Torr", "Density": "1.0735 g/cm\u00b3 @ Temp: 20 \u00b0C"}}