{"cas_no": "56512-49-3", "cn_name": "4-\u4e8c\u7532\u80fa\u57fa\u82ef\u57fa\u5076\u6c2e\u82ef\u78fa\u9170\u6c2f", "en_name": ["Dabsyl chloride", "Benzenesulfonyl chloride, 4-[2-[4-(dimethylamino)phenyl]diazenyl]-", "Benzenesulfonyl chloride, 4-[[4-(dimethylamino)phenyl]azo]-", "4-[2-[4-(Dimethylamino)phenyl]diazenyl]benzenesulfonyl chloride", "4-Dimethylaminoazobenzene-4\u2032-sulfonyl chloride", "Dabsyl chloride", "DABS-Cl", "4-[[4-(Dimethylamino)phenyl]azo]benzenesulfonyl chloride", "4\u2032-(Dimethylamino)azobenzene-4-sulfonic acid chloride"], "SMILES": "N(=NC1=CC=C(N(C)C)C=C1)C2=CC=C(S(Cl)(=O)=O)C=C2", "physical_data": {"Molecular Weight": "323.80", "Molecular Formula": "C14H14ClN3O2S", "Melting Point": "183-185 \u00b0C"}}