{"cas_no": "56525-42-9", "cn_name": "\u78b3\u9178\u7532\u4e19\u916f", "en_name": ["Methyl Propyl carbonate", "Carbonic acid, methyl propyl ester", "Methyl Propyl carbonate"], "SMILES": "C(OCCC)(OC)=O", "physical_data": {"Molecular Weight": "118.13", "Molecular Formula": "C5H10O3", "Boiling Point": "125 \u00b0C @ Press: 630 Torr"}}