{"cas_no": "5652-84-6", "cn_name": "\u6c30\u57fa\u7532\u916f", "en_name": ["Methyl N-cyanoacetimidate", "Ethanimidic acid, N-cyano-, methyl ester", "Acetimidic acid, N-cyano-, methyl ester", "Methyl N-cyanoacetimidate", "Methyl N-cyanoacetamidate", "N-Cyanoethanimidic acid methyl ester"], "SMILES": "C(=NC#N)(OC)C", "physical_data": {"Molecular Weight": "98.10", "Molecular Formula": "C4H6N2O", "Boiling Point": "98-99 \u00b0C @ Press: 25 Torr"}}