{"cas_no": "5652-38-0", "cn_name": "DL-3-\u6c28\u57fa-3-\u82ef\u57fa\u4e19\u9178", "en_name": ["N-Phenyl-\u03b2-alanine", "\u03b2-Alanine, N-phenyl-", "N-Phenyl-\u03b2-alanine", "3-Anilinopropanoic acid", "Propanoic acid, 3-(phenylamino)-", "3-Anilinopropionic acid", "3-(Phenylamino)propionic acid", "NSC 54626", "N-(2-Carboxyethyl)aniline", "3-(Phenylamino)propanoic acid"], "SMILES": "N(CCC(O)=O)C1=CC=CC=C1", "physical_data": {"Molecular Weight": "165.19", "Molecular Formula": "C9H11NO2", "Melting Point": "58-59 \u00b0C"}}