{"cas_no": "5653-46-3", "cn_name": "2-\u7f9f\u57fa-3,4-\u4e8c\u7532\u6c27\u57fa\u82ef\u7532\u9178", "en_name": ["2-Hydroxy-3,4-dimethoxybenzoic acid", "Benzoic acid, 2-hydroxy-3,4-dimethoxy-", "Veratric acid, 2-hydroxy-", "2-Hydroxy-3,4-dimethoxybenzoic acid", "3,4-Dimethoxysalicylic acid", "NSC 37414"], "SMILES": "O(C)C1=C(OC)C=CC(C(O)=O)=C1O", "physical_data": {"Molecular Weight": "198.17", "Molecular Formula": "C9H10O5", "Melting Point": "168-169 \u00b0C"}}