{"cas_no": "5653-67-8", "cn_name": "2,3-\u4e8c\u7532\u6c27\u57fa\u82c4\u9187", "en_name": ["2,3-Dimethoxybenzyl alcohol", "Benzenemethanol, 2,3-dimethoxy-", "o-Veratryl alcohol", "2,3-Dimethoxybenzenemethanol", "2,3-Dimethoxybenzyl alcohol", "NSC 403220", "NSC 87568", "(2,3-Dimethoxyphenyl)methanol", "2,3-Dimethoxybenzylic alcohol", "Vetatryl alcohol"], "SMILES": "O(C)C1=C(CO)C=CC=C1OC", "physical_data": {"Molecular Weight": "168.19", "Molecular Formula": "C9H12O3", "Boiling Point": "145-150 \u00b0C @ Press: 12 Torr", "Melting Point": "48 \u00b0C"}}