{"cas_no": "56536-96-0", "cn_name": "1-\u6c30\u57fa\u56db\u6c22\u5316\u8418", "en_name": ["1-Cyano-1,2,3,4-tetrahydronaphthalene", "1-Naphthalenecarbonitrile, 1,2,3,4-tetrahydro-", "1-Naphthonitrile, 1,2,3,4-tetrahydro-", "1,2,3,4-Tetrahydro-1-naphthalenecarbonitrile", "1-Cyano-1,2,3,4-tetrahydronaphthalene", "1-Cyanotetralin"], "SMILES": "C(#N)C1C=2C(CCC1)=CC=CC2", "physical_data": {"Molecular Weight": "157.21", "Molecular Formula": "C11H11N", "Boiling Point": "142 \u00b0C @ Press: 8 Torr", "Melting Point": "48-50 \u00b0C"}}