{"cas_no": "56539-66-3", "cn_name": "3-\u7532\u6c27\u57fa-3-\u7532\u57fa\u4e01\u9187", "en_name": ["3-Methoxy-3-methyl-1-butanol", "1-Butanol, 3-methoxy-3-methyl-", "3-Methoxy-3-methyl-1-butanol", "3-Methyl-3-methoxy-1-hydroxybutane", "3-Methyl-3-methoxybutanol", "3-Methyl-3-methoxy-1-butanol", "3-Methoxy-3-methylbutanol", "Solfit", "3-Methyl-3-(methyloxy)butan-1-ol", "Solfit S 110", "3-Methoxy-3-methyl-1-butyl alcohol", "3-Methoxy-3-methylbutan-1-ol", "Finetop J 210", "Solfit MMB", "3-Methyl-3-methoxybutyl alcohol"], "SMILES": "C(CCO)(OC)(C)C", "physical_data": {"Molecular Weight": "118.17", "Molecular Formula": "C6H14O2", "Boiling Point": "175 \u00b0C @ Press: 760 Torr", "Density": "0.9220 g/cm\u00b3 @ Temp: 20 \u00b0C"}}