{"cas_no": "5653-62-3", "cn_name": "2,3-\u4e8c\u7532\u6c27\u57fa\u82ef\u7532\u8148", "en_name": ["2,3-Dimethoxybenzonitrile", "Benzonitrile, 2,3-dimethoxy-", "o-Veratronitrile", "2,3-Dimethoxybenzonitrile", "NSC 27018"], "SMILES": "O(C)C1=C(C#N)C=CC=C1OC", "physical_data": {"Molecular Weight": "163.17", "Molecular Formula": "C9H9NO2", "Boiling Point": "195 \u00b0C @ Press: 2 Torr", "Melting Point": "47 \u00b0C"}}