{"cas_no": "565453-41-0", "cn_name": "\u7ef4\u8fbe\u5217\u6c40\u7fa7\u57fa\u9178\u4ee3\u8c22\u7269\u4e09\u6c1f\u918b\u9178\u76d0", "en_name": ["L-Proline, N-(3-hydroxytricyclo[3.3.1.13,7]dec-1-yl)glycyl-, mono(trifluoroacetate) (salt)", "L-Proline, N-(3-hydroxytricyclo[3.3.1.13,7]dec-1-yl)glycyl-, mono(trifluoroacetate) (salt)"], "SMILES": "C(C(O)=O)(F)(F)F.N(CC(=O)N1C(C(O)=O)CCC1)C23CC4(O)CC(C2)CC(C3)C4", "physical_data": {"Molecular Weight": "", "Molecular Formula": "C17H26N2O4.C2HF3O2", "Melting Point": "80-82 \u00b0C"}}