{"cas_no": "5654-93-3", "cn_name": "3-\u7532\u57fa-7-\u6c2e\u6742\u5432\u54da", "en_name": ["3-Methyl-1H-pyrrolo[2,3-b]pyridine", "1H-Pyrrolo[2,3-b]pyridine, 3-methyl-", "3-Methyl-1H-pyrrolo[2,3-b]pyridine", "7-Azaskatole", "3-Methylpyrrolo[2,3-b]pyridine", "3-Methyl-7-azaindole"], "SMILES": "CC=1C=2C(=NC=CC2)NC1", "physical_data": {"Molecular Weight": "132.16", "Molecular Formula": "C8H8N2", "Melting Point": "130.5-133 \u00b0C"}}