{"cas_no": "5654-95-5", "cn_name": "1H-\u5421\u54af[2,3-B]\u5421\u5576-2,3-\u4e8c\u916e", "en_name": ["1H-Pyrrolo[2,3-b]pyridine-2,3-dione", "1H-Pyrrolo[2,3-b]pyridine-2,3-dione", "7-Pyrisatin", "1H,2H,3H-Pyrrolo[2,3-b]pyridine-2,3-dione"], "SMILES": "O=C1C=2C(NC1=O)=NC=CC2", "physical_data": {"Molecular Weight": "148.12", "Molecular Formula": "C7H4N2O2", "Melting Point": "225-230 \u00b0C (decomp)"}}