{"cas_no": "5654-97-7", "cn_name": "7-\u6c2e\u6742-\u5432\u54da-2-\u916e", "en_name": ["1,3-Dihydro-2H-pyrrolo[2,3-b]pyridin-2-one", "2H-Pyrrolo[2,3-b]pyridin-2-one, 1,3-dihydro-", "1,3-Dihydro-2H-pyrrolo[2,3-b]pyridin-2-one", "7-Azaoxindole", "7-Aza-2-oxindole", "1,3-Dihydropyrrolo[2,3-b]pyridin-2-one", "1H-Pyrrolo[2,3-b]pyridin-2(3H)-one", "1H,2H,3H-Pyrrolo[2,3-b]pyridin-2-one"], "SMILES": "O=C1CC=2C(N1)=NC=CC2", "physical_data": {"Molecular Weight": "134.14", "Molecular Formula": "C7H6N2O", "Melting Point": "175 \u00b0C"}}