{"cas_no": "5657-61-4", "cn_name": "\u5c3c\u53ef\u9a6c\u7279", "en_name": ["Nicotinohydroxamic acid", "3-Pyridinecarboxamide, N-hydroxy-", "Nicotinohydroxamic acid", "N-Hydroxy-3-pyridinecarboxamide", "Nicotinohydroximic acid", "Nicotinylhydroxamic acid", "3-Pyridinehydroxamic acid", "Nicoxamat", "NSC 13997", "3-Picolinehydroxamic acid", "3-Pyridinecarbohydroxamic acid"], "SMILES": "C(NO)(=O)C=1C=CC=NC1", "physical_data": {"Molecular Weight": "138.12", "Molecular Formula": "C6H6N2O2", "Melting Point": "167 \u00b0C"}}