{"cas_no": "5657-19-2", "cn_name": "N -(2 -\u544b\u5583\u7532\u9170\u57fa)\u7518\u6c28\u9178", "en_name": ["N-(2-Furoyl)glycine", "Glycine, N-(2-furanylcarbonyl)-", "Glycine, N-2-furoyl-", "N-(2-Furanylcarbonyl)glycine", "Furfuroylglycine", "Pyromucuric acid", "2-Furancarboxamide, N-(carboxymethyl)-", "2-Furoylglycine", "Furoylglycine", "N-(2-Furoyl)glycine", "[[(Furan-2-yl)carbonyl]amino]acetic acid", "[(Furan-2-carbonyl)amino]acetic acid", "2-[(Furan-2-carbonyl)amino]acetic acid", "2-[(Furan-2-yl)formamido]acetic acid", "2-(2-Furoylamino)acetic acid", "2-(Furan-2-ylformamido)acetic acid"], "SMILES": "C(NCC(O)=O)(=O)C1=CC=CO1", "physical_data": {"Molecular Weight": "169.13", "Molecular Formula": "C7H7NO4", "Melting Point": "165 \u00b0C"}}