{"cas_no": "5657-17-0", "cn_name": "\u4e59\u4e8c\u80fa-N,N'-\u4e8c\u4e59\u9178", "en_name": ["Ethylenediaminediacetic acid", "Glycine, N,N\u2032-1,2-ethanediylbis-", "Glycine, N,N\u2032-ethylenedi-", "N,N\u2032-1,2-Ethanediylbis[glycine]", "N,N\u2032-Ethylenediaminediacetic acid", "Ethylenediiminodiacetic acid", "EDDA", "Acetic acid, 2,2\u2032-(1,2-ethanediyldiimino)bis-", "Ethylenediamine-N,N\u2032-diacetic acid", "Ethylenediaminediacetic acid", "1,2-Bis(carboxymethylamino)ethane", "N,N\u2032-Ethylenediglycine", "Ethylenediimino-N,N\u2032-diacetic acid", "1,2-Ethylenediamine-N,N\u2032-diacetic acid", "N,N\u2032-Bis(carboxymethyl)ethylenediamine", "2,2\u2032-(Ethane-1,2-diylbis(azanediyl))diacetic acid", "2-[2-(Carboxymethylamino)ethylamino]acetic acid"], "SMILES": "N(CC(O)=O)CCNCC(O)=O", "physical_data": {"Molecular Weight": "176.17", "Molecular Formula": "C6H12N2O4", "Boiling Point": "439 \u00b0C", "Melting Point": "228 \u00b0C (decomp)"}}