{"cas_no": "5657-64-7", "cn_name": "3-\u6c30\u57fa-4-\u7f9f\u57fa-2(1H)-\u5421\u5576\u916e", "en_name": ["1,2-Dihydro-4-hydroxy-2-oxo-3-pyridinecarbonitrile", "3-Pyridinecarbonitrile, 1,2-dihydro-4-hydroxy-2-oxo-", "Nicotinonitrile, 2,4-dihydroxy-", "Nicotinonitrile, 1,2-dihydro-4-hydroxy-2-oxo-", "1,2-Dihydro-4-hydroxy-2-oxo-3-pyridinecarbonitrile", "Norricinine", "NSC 409910", "3-Cyano-1,2-dihydro-4-hydroxy-2-oxopyridine"], "SMILES": "C(#N)C1=C(O)C=CNC1=O", "physical_data": {"Molecular Weight": "136.11", "Molecular Formula": "C6H4N2O2", "Melting Point": "154-156 \u00b0C"}}