{"cas_no": "56578-18-8", "cn_name": "\u53cd-5-\u7678\u70ef\u9187", "en_name": ["(5E)-5-Decen-1-ol", "5-Decen-1-ol, (5E)-", "5-Decen-1-ol, (E)-", "(5E)-5-Decen-1-ol", "trans-5-Decen-1-ol", "(E)-5-Decen-1-ol", "(E)-5-Decenol"], "SMILES": "C(=CCCCC)CCCCO", "physical_data": {"Molecular Weight": "156.27", "Molecular Formula": "C10H20O", "Boiling Point": "95-96 \u00b0C @ Press: 2 Torr"}}