{"cas_no": "56578-37-1", "cn_name": "\u95f4\u6c2f\u8089\u6842\u919b", "en_name": ["(2E)-3-(3-Chlorophenyl)-2-propenal", "2-Propenal, 3-(3-chlorophenyl)-, (2E)-", "2-Propenal, 3-(3-chlorophenyl)-, (E)-", "(2E)-3-(3-Chlorophenyl)-2-propenal", "(E)-m-Chlorocinnamaldehyde", "E-3-Chlorocinnamaldehyde", "trans-m-Chlorocinnamaldehyde", "trans-3-Chlorocinnamaldehyde", "(E)-3-(3-Chlorophenyl)acrylaldehyde", "(E)-3-(3-Chlorophenyl)acrolein", "(E)-3-Chlorocinnamaldehyde"], "SMILES": "C(=CC=O)C1=CC(Cl)=CC=C1", "physical_data": {"Molecular Weight": "166.60", "Molecular Formula": "C9H7ClO", "Boiling Point": "106-120 \u00b0C @ Press: 0.5 Torr", "Melting Point": "39 \u00b0C"}}