{"cas_no": "56586-13-1", "cn_name": "2-\u7532\u57fa\u73af\u5df1\u7fa7\u9178,\u987a\u53cd\u5f02\u6784\u4f53\u6df7\u5408\u7269", "en_name": ["2-Methylcyclohexanecarboxylic acid", "Cyclohexanecarboxylic acid, 2-methyl-", "2-Methylcyclohexanecarboxylic acid", "2-Methyl-1-cyclohexanecarboxylic acid"], "SMILES": "C(O)(=O)C1C(C)CCCC1", "physical_data": {"Molecular Weight": "142.20", "Molecular Formula": "C8H14O2", "Boiling Point": "101-102 \u00b0C @ Press: 2 Torr", "Melting Point": "79-80 \u00b0C"}}