{"cas_no": "566-48-3", "cn_name": "\u798f\u7f8e\u53f8\u5766", "en_name": ["Formestane", "Androst-4-ene-3,17-dione, 4-hydroxy-", "4-Hydroxyandrost-4-ene-3,17-dione", "CGP 32349", "4-Hydroxyandrostenedione", "4-Hydroxyandrostene-3,17-dione", "Formestane", "Lentaron", "4-OHA", "CRC 82/01", "4-HAD", "NSC 282175"], "SMILES": "CC12C3C(C4C(C)(CC3)C(=O)CC4)CCC1=C(O)C(=O)CC2", "physical_data": {"Molecular Weight": "302.41", "Molecular Formula": "C19H26O3", "Melting Point": "199-202 \u00b0C"}}