{"cas_no": "566-19-8", "cn_name": "7-\u916e\u57fa\u53bb\u6c22\u8868\u96c4\u916e", "en_name": ["7-Oxo-DHEA", "Androst-5-ene-7,17-dione, 3-hydroxy-, (3\u03b2)-", "Androst-5-ene-7,17-dione, 3\u03b2-hydroxy-", "(3\u03b2)-3-Hydroxyandrost-5-ene-7,17-dione", "7-Oxodehydroepiandrosterone", "7-Ketodehydroepiandrosterone", "3\u03b2-Hydroxy-5-androstene-7,17-dione", "5-Androsten-3\u03b2-ol-7,17-dione", "7-Keto-DHEA", "7-Oxo-DHEA", "7-keto-DHEA"], "SMILES": "CC12C3C(C4C(C)(CC3)C(=O)CC4)C(=O)C=C1CC(O)CC2", "physical_data": {"Molecular Weight": "302.41", "Molecular Formula": "C19H26O3", "Melting Point": "245-248 \u00b0C"}}