{"cas_no": "566-26-7", "cn_name": "\u80c6\u753e-5-\u70ef-3,7\u4e8c\u9187", "en_name": ["7\u03b1-Hydroxycholesterol", "Cholest-5-ene-3,7-diol, (3\u03b2,7\u03b1)-", "Cholest-5-ene-3\u03b2,7\u03b1-diol", "(3\u03b2,7\u03b1)-Cholest-5-ene-3,7-diol", "7\u03b1-Hydroxycholesterol", "7\u03b1-Hydroxycholest-5-en-3\u03b2-ol"], "SMILES": "CC12C(C3C(C4(C)C(=CC3O)CC(O)CC4)CC1)CCC2C(CCCC(C)C)C", "physical_data": {"Molecular Weight": "402.65", "Molecular Formula": "C27H46O2", "Melting Point": "174-176 \u00b0C"}}