{"cas_no": "566-65-4", "cn_name": "\u6c22\u5316\u9ec4\u4f53\u916e", "en_name": ["5\u03b1-Dihydroprogesterone", "Pregnane-3,20-dione, (5\u03b1)-", "5\u03b1-Pregnanedione", "(5\u03b1)-Pregnane-3,20-dione", "3,20-Allopregnanedione", "5\u03b1-Dihydroprogesterone", "3,20-Dioxo-5\u03b1-pregnane", "NSC 18319", "(+)-(5\u03b1)-Pregnane-3,20-dione", "5\u03b1-Dihydro-P4"], "SMILES": "CC12C3C(C4C(C)(CC3)C(C(C)=O)CC4)CCC1CC(=O)CC2", "physical_data": {"Molecular Weight": "316.48", "Molecular Formula": "C21H32O2", "Melting Point": "200 \u00b0C"}}