{"cas_no": "566-28-9", "cn_name": "\u80c6\u753e-3-\u7f9f\u57fa-5-\u70ef-7-\u916e", "en_name": ["7-Ketocholesterol", "Cholest-5-en-7-one, 3-hydroxy-, (3\u03b2)-", "Cholest-5-en-7-one, 3\u03b2-hydroxy-", "(3\u03b2)-3-Hydroxycholest-5-en-7-one", "3\u03b2-Hydroxycholest-5-en-7-one", "Cholest-5-en-3\u03b2-ol-7-one", "7-Ketocholesterol", "SC 4722", "7-Oxocholesterol", "\u03945-Cholesten-3\u03b2-ol-7-one", "3\u03b2-Hydroxy-cholest-5-ene-7-one", "Cholesterol-7-one"], "SMILES": "CC12C(C3C(C4(C)C(=CC3=O)CC(O)CC4)CC1)CCC2C(CCCC(C)C)C", "physical_data": {"Molecular Weight": "400.64", "Molecular Formula": "C27H44O2", "Melting Point": "163-164 \u00b0C"}}