{"cas_no": "566-88-1", "cn_name": "5-\u0391-\u80c6\u753e\u70f7-3-\u916e", "en_name": ["5\u03b1-Cholestan-3-one", "Cholestan-3-one, (5\u03b1)-", "5\u03b1-Cholestan-3-one", "(5\u03b1)-Cholestan-3-one", "5\u03b1-Cholestanone", "5\u03b1(H)-Cholestan-3-one", "(5\u03b1,17\u03b2)-17-Octylandrostan-3-one", "NSC 11920"], "SMILES": "CC12C(C3C(C4(C)C(CC3)CC(=O)CC4)CC1)CCC2C(CCCC(C)C)C", "physical_data": {"Molecular Weight": "386.65", "Molecular Formula": "C27H46O", "Melting Point": "128-129 \u00b0C"}}