{"cas_no": "566-76-7", "cn_name": "16ALPHA-\u7f9f\u57fa\u96cc\u915a\u916e", "en_name": ["16\u03b1-Hydroxyestrone", "Estra-1,3,5(10)-trien-17-one, 3,16-dihydroxy-, (16\u03b1)-", "Estra-1,3,5(10)-trien-17-one, 3,16\u03b1-dihydroxy-", "(16\u03b1)-3,16-Dihydroxyestra-1,3,5(10)-trien-17-one", "16\u03b1-Hydroxyestrone", "3,16\u03b1-Dihydroxy-1,3,5(10)-estratrien-17-one", "Estra-1,3,5(10)-triene-3,16\u03b1-diol-17-one"], "SMILES": "CC12C(C3C(C=4C(CC3)=CC(O)=CC4)CC1)CC(O)C2=O", "physical_data": {"Molecular Weight": "286.37", "Molecular Formula": "C18H22O3", "Melting Point": "214 \u00b0C"}}