{"cas_no": "56600-90-9", "cn_name": "4-(6-\u7532\u6c27\u57fa-2-\u8418\u57fa)-3-\u4e01\u70ef-2-\u916e", "en_name": ["4-(6-Methoxy-2-naphthalenyl)-3-buten-2-one", "3-Buten-2-one, 4-(6-methoxy-2-naphthalenyl)-", "4-(6-Methoxy-2-naphthalenyl)-3-buten-2-one", "4-(6-Methoxy-2-naphthyl)-3-buten-2-one", "1-(2\u2032-Methoxynaphth-6\u2032-yl)but-1-en-3-one"], "SMILES": "C(=CC(C)=O)C1=CC2=C(C=C(OC)C=C2)C=C1", "physical_data": {"Molecular Weight": "226.27", "Molecular Formula": "C15H14O2", "Melting Point": "118-120 \u00b0C"}}