{"cas_no": "5660-91-3", "cn_name": "9,10-\u83f2\u5e761,12-\u4e8c\u82ef\u57fa\u73af\u620a\u4e8c\u70ef\u916e", "en_name": ["1,3-Diphenyl-2H-cyclopenta[l]phenanthren-2-one", "2H-Cyclopenta[l]phenanthren-2-one, 1,3-diphenyl-", "1,3-Diphenyl-2H-cyclopenta[l]phenanthren-2-one", "Phencyclone", "NSC 101867", "NSC 101868", "NSC 222805", "1,3-Diphenylcyclopenta[l]phenanthren-2-one"], "SMILES": "O=C1C(=C2C(=C1C3=CC=CC=C3)C=4C(C=5C2=CC=CC5)=CC=CC4)C6=CC=CC=C6", "physical_data": {"Molecular Weight": "382.45", "Molecular Formula": "C29H18O", "Melting Point": "273 \u00b0C"}}