{"cas_no": "56610-72-1", "cn_name": "7-MAC", "en_name": ["Diphenylmethyl 7\u03b2-amino-7\u03b1-methoxy-3-[[(1-methyl-1H-tetrazol-5-yl)thio]methyl]-3-cephem-4-carboxylate", "5-Thia-1-azabicyclo[4.2.0]oct-2-ene-2-carboxylic acid, 7-amino-7-methoxy-3-[[(1-methyl-1H-tetrazol-5-yl)thio]methyl]-8-oxo-, diphenylmethyl ester, (6R,7S)-", "5-Thia-1-azabicyclo[4.2.0]oct-2-ene-2-carboxylic acid, 7-amino-7-methoxy-3-[[(1-methyl-1H-tetrazol-5-yl)thio]methyl]-8-oxo-, diphenylmethyl ester, (6R-cis)-", "Diphenylmethyl 7\u03b2-amino-7\u03b1-methoxy-3-[[(1-methyl-1H-tetrazol-5-yl)thio]methyl]-3-cephem-4-carboxylate"], "SMILES": "C(OC(C1=CC=CC=C1)C2=CC=CC=C2)(=O)C=3N4C(C(OC)(N)C4=O)SCC3CSC=5N(C)N=NN5", "physical_data": {"Molecular Weight": "524.62", "Molecular Formula": "C24H24N6O4S2", "Melting Point": "119.6-121.2 \u00b0C"}}