{"cas_no": "56613-61-7", "cn_name": "4-\u785d\u57fa-D-\u82ef\u4e19\u6c28\u9178(\u4e00\u6c34\u7269)", "en_name": ["p-Nitro-D-phenylalanine", "D-Phenylalanine, 4-nitro-", "4-Nitro-D-phenylalanine", "p-Nitro-D-phenylalanine", "D-4-Nitrophenylalanine", "(2R)-2-Azaniumyl-3-(4-nitrophenyl)propanoate", "(2R)-2-Amino-3-(4-nitrophenyl)propanoic acid"], "SMILES": "C(C(C(O)=O)N)C1=CC=C(N(=O)=O)C=C1", "physical_data": {"Molecular Weight": "210.19", "Molecular Formula": "C9H10N2O4", "Melting Point": "238-240 \u00b0C (decomp)"}}