{"cas_no": "56617-44-8", "cn_name": "5-\u6c27\u4ee3-1-\u90bb\u7532\u82ef\u57fa-\u5421\u54af\u70f7-3-\u7fa7\u9178", "en_name": ["1-(2-Methylphenyl)-5-oxo-3-pyrrolidinecarboxylic acid", "3-Pyrrolidinecarboxylic acid, 1-(2-methylphenyl)-5-oxo-", "1-(2-Methylphenyl)-5-oxo-3-pyrrolidinecarboxylic acid", "5-Oxo-1-(o-tolyl)pyrrolidine-3-carboxylic acid"], "SMILES": "O=C1N(CC(C(O)=O)C1)C2=C(C)C=CC=C2", "physical_data": {"Molecular Weight": "219.24", "Molecular Formula": "C12H13NO3", "Melting Point": "152-153 \u00b0C"}}