{"cas_no": "5661-71-2", "cn_name": "\u73af\u8f9b\u4e9a\u80fa", "en_name": ["Octahydro-1H-azonine", "1H-Azonine, octahydro-", "Azonine, octahydro-", "Octahydro-1H-azonine", "Azacyclononane", "Octamethylenimine", "Perhydroazonine", "NSC 74469", "NSC 90799", "NSC 91021", "Azonane"], "SMILES": "C1CCCCNCCC1", "physical_data": {"Molecular Weight": "127.23", "Molecular Formula": "C8H17N", "Boiling Point": "69 \u00b0C @ Press: 17 Torr", "Melting Point": "-19 \u00b0C", "Density": "0.8905 g/cm\u00b3 @ Temp: 20 \u00b0C"}}