{"cas_no": "56613-80-0", "cn_name": "D-\u82ef\u7518\u6c28\u9187", "en_name": ["(-)-Phenylglycinol", "Benzeneethanol, \u03b2-amino-, (\u03b2R)-", "Benzeneethanol, \u03b2-amino-, (R)-", "(\u03b2R)-\u03b2-Aminobenzeneethanol", "(-)-2-Amino-2-phenylethanol", "D-Phenylglycinol", "(R)-2-Amino-2-phenylethanol", "(R)-(-)-Phenylglycinol", "(-)-Phenylglycinol", "D-(-)-2-Amino-2-phenylethanol", "D-(-)-\u03b1-Phenylglycinol", "(R)-(-)-2-Phenyl-2-aminoethanol", "(R)-\u03b1-Phenylglycinol", "(R)-2-Phenylglycinol", "(-)-(R)-\u03b2-Aminobenzeneethanol", "D-\u03b1-Phenylglycinol", "(R)-(-)-2-Amino-2-phenylethanol", "(2R)-2-Amino-2-phenyl-1-ethanol", "(R)-(-)-2-Phenylglycinol", "[(R)-2-Hydroxy-1-phenylethyl]amine", "(2R)-2-Amino-2-phenylethanol", "(-)-D-\u03b1-Phenylglycinol", "(R)-Phenylglycinol", "(R)-2-Amino-2-phenylethan-1-ol", "(R)-2-Amino-2-phenylethan-1-ol", "(2R)-2-Amino-2-phenylethan-1-ol", "(R)-(-)-2-Amino-2-phenylethanol"], "SMILES": "C(CO)(N)C1=CC=CC=C1", "physical_data": {"Molecular Weight": "137.18", "Molecular Formula": "C8H11NO", "Melting Point": "76-79 \u00b0C"}}