{"cas_no": "56621-91-1", "cn_name": "5-\u6c28\u57fa-2-\u6eb4\u5627\u5576", "en_name": ["2-Bromo-5-pyrimidinamine", "5-Pyrimidinamine, 2-bromo-", "2-Bromo-5-pyrimidinamine", "5-Amino-2-bromopyrimidine", "2-Bromopyrimidin-5-ylamine"], "SMILES": "NC=1C=NC(Br)=NC1", "physical_data": {"Molecular Weight": "174.00", "Molecular Formula": "C4H4BrN3", "Melting Point": "182-183 \u00b0C"}}