{"cas_no": "56621-93-3", "cn_name": "5-\u6c28\u57fa-2-\u6c30\u57fa\u5627\u5576", "en_name": ["5-Amino-2-pyrimidinecarbonitrile", "2-Pyrimidinecarbonitrile, 5-amino-", "5-Amino-2-pyrimidinecarbonitrile", "2-Cyano-5-pyrimidinamine", "2-Cyano-5-aminopyrimidine", "5-Amino-2-cyanopyrimidine"], "SMILES": "C(#N)C=1N=CC(N)=CN1", "physical_data": {"Molecular Weight": "120.11", "Molecular Formula": "C5H4N4", "Melting Point": "230-231 \u00b0C"}}