{"cas_no": "5662-95-3", "cn_name": "3,3-\u56db\u4e9a\u7532\u57fa\u620a\u4e8c\u9178\u9150", "en_name": ["8-Oxaspiro[4.5]decane-7,9-dione", "8-Oxaspiro[4.5]decane-7,9-dione", "1,1-Cyclopentanediacetic anhydride", "3,3-Tetramethyleneglutaric anhydride", "1,1-Cyclopentanediacetic acid anhydride", "NSC 78448"], "SMILES": "O=C1CC2(CC(=O)O1)CCCC2", "physical_data": {"Molecular Weight": "168.19", "Molecular Formula": "C9H12O3", "Melting Point": "65.29 \u00b0C"}}