{"cas_no": "56621-48-8", "cn_name": "4-(1-\u54cc\u55ea\u57fa)\u82ef\u915a", "en_name": ["1-(4-Hydroxyphenyl)piperazine", "Phenol, 4-(1-piperazinyl)-", "4-(1-Piperazinyl)phenol", "1-(4-Hydroxyphenyl)piperazine", "N-(4-Hydroxyphenyl)piperazine", "4-(4-Hydroxyphenyl)piperazine", "4-Piperazinophenol"], "SMILES": "OC1=CC=C(C=C1)N2CCNCC2", "physical_data": {"Molecular Weight": "178.23", "Molecular Formula": "C10H14N2O", "Melting Point": "218-220 \u00b0C"}}