{"cas_no": "56621-90-0", "cn_name": "5-\u6c28\u57fa-2-\u6c2f\u5627\u5576", "en_name": ["2-Chloro-5-pyrimidinamine", "5-Pyrimidinamine, 2-chloro-", "2-Chloro-5-pyrimidinamine", "5-Amino-2-chloropyrimidine", "2-Chloropyrimidin-5-ylamine", "2-Chloro-5-aminopyrimidine"], "SMILES": "NC=1C=NC(Cl)=NC1", "physical_data": {"Molecular Weight": "129.55", "Molecular Formula": "C4H4ClN3", "Melting Point": "198-199 \u00b0C (decomp)"}}