{"cas_no": "56621-99-9", "cn_name": "N2,N2-\u4e8c\u7532\u57fa-2,5-\u4e8c\u6c28\u57fa\u5421\u5576", "en_name": ["N2,N2-Dimethyl-2,5-pyrimidinediamine", "2,5-Pyrimidinediamine, N2,N2-dimethyl-", "N2,N2-Dimethyl-2,5-pyrimidinediamine", "2-(Dimethylamino)-5-pyrimidinamine", "2-N,2-N-Dimethylpyrimidine-2,5-diamine"], "SMILES": "N(C)(C)C=1N=CC(N)=CN1", "physical_data": {"Molecular Weight": "138.17", "Molecular Formula": "C6H10N4", "Melting Point": "83.0-83.5 \u00b0C"}}