{"cas_no": "5663-96-7", "cn_name": "2-\u8f9b\u7094\u9178", "en_name": ["2-Octynoic acid", "2-Octynoic acid", "2-Octyn-1-oic acid", "Pentylpropiolic acid", "NSC 75855"], "SMILES": "C(CCCCC)#CC(O)=O", "physical_data": {"Molecular Weight": "140.18", "Molecular Formula": "C8H12O2", "Boiling Point": "114 \u00b0C @ Press: 5 Torr", "Melting Point": "4 \u00b0C"}}