{"cas_no": "56632-86-1", "cn_name": "6-\u6c2f-D-\u8272\u6c28\u9178", "en_name": ["6-Chloro-D-tryptophan", "D-Tryptophan, 6-chloro-", "6-Chloro-D-tryptophan", "(2R)-2-Amino-3-(6-chloro-1H-indol-3-yl)propanoic acid"], "SMILES": "C(C(C(O)=O)N)C=1C=2C(NC1)=CC(Cl)=CC2", "physical_data": {"Molecular Weight": "238.67", "Molecular Formula": "C11H11ClN2O2", "Melting Point": "265 \u00b0C (decomp)"}}