{"cas_no": "56643-86-8", "cn_name": "2-\u7532\u57fa-1-(4-\u785d\u57fa\u82c4\u57fa)-1H-\u54aa\u5511", "en_name": ["2-Methyl-1-[(4-nitrophenyl)methyl]-1H-imidazole", "1H-Imidazole, 2-methyl-1-[(4-nitrophenyl)methyl]-", "2-Methyl-1-[(4-nitrophenyl)methyl]-1H-imidazole", "2-Methyl-4-(4-nitrobenzyl)imidazole", "2-Methyl-1-(4-nitrobenzyl)-1H-imidazole", "2-Methyl-1-[(4-nitrophenyl)methyl]imidazole"], "SMILES": "C(N1C(C)=NC=C1)C2=CC=C(N(=O)=O)C=C2", "physical_data": {"Molecular Weight": "217.22", "Molecular Formula": "C11H11N3O2", "Melting Point": "96 \u00b0C"}}