{"cas_no": "56649-48-0", "cn_name": "\u4f9d\u6258\u54aa\u916fEP\u6742\u8d28A", "en_name": ["1-[(1R)-1-Phenylethyl]-1H-imidazole-5-carboxylic acid", "1H-Imidazole-5-carboxylic acid, 1-[(1R)-1-phenylethyl]-", "1H-Imidazole-5-carboxylic acid, 1-(1-phenylethyl)-, (R)-", "1-[(1R)-1-Phenylethyl]-1H-imidazole-5-carboxylic acid", "(R)-(+)-1-(1-Phenylethyl)-1H-imidazole-5-carboxylic acid", "R 28141", "1H-Imidazole-5-carboxylic acid 1-[(1R)-1-phenylethyl]-", "(R)-1-(1-Phenylethyl)-1H-imidazole-5-carboxylic acid"], "SMILES": "C(C)(N1C(C(O)=O)=CN=C1)C2=CC=CC=C2", "physical_data": {"Molecular Weight": "216.24", "Molecular Formula": "C12H12N2O2", "Melting Point": "156.3 \u00b0C"}}