{"cas_no": "56651-58-2", "cn_name": "\u5f02\u6c30\u91782-\u7532\u57fa\u82c4\u916f", "en_name": ["1-(Isocyanatomethyl)-2-methylbenzene", "Benzene, 1-(isocyanatomethyl)-2-methyl-", "1-(Isocyanatomethyl)-2-methylbenzene", "o-Methylbenzyl isocyanate", "2-Methylbenzyl isocyanate"], "SMILES": "C(N=C=O)C1=C(C)C=CC=C1", "physical_data": {"Molecular Weight": "147.17", "Molecular Formula": "C9H9NO", "Boiling Point": "98-99 \u00b0C @ Press: 8 Torr", "Density": "1.0756 g/cm\u00b3 @ Temp: 20 \u00b0C"}}