{"cas_no": "56658-04-9", "cn_name": "2-\u6eb4-5-\u7532\u6c27\u57fa\u82ef-1-\u7532\u9170\u6c2f", "en_name": ["2-Bromo-5-methoxybenzoyl chloride", "Benzoyl chloride, 2-bromo-5-methoxy-", "2-Bromo-5-methoxybenzoyl chloride", "2-Bromo-5-methoxybenzene-1-carbonyl chloride"], "SMILES": "C(Cl)(=O)C1=CC(OC)=CC=C1Br", "physical_data": {"Molecular Weight": "249.49", "Molecular Formula": "C8H6BrClO2", "Boiling Point": "156-158 \u00b0C @ Press: 13 Torr"}}