{"cas_no": "5666-17-1", "cn_name": "N,N-\u4e8c\u4e59\u57fa\u70ef\u4e19\u80fa", "en_name": ["N,N-Diethyl-2-propen-1-amine", "2-Propen-1-amine, N,N-diethyl-", "Allylamine, N,N-diethyl-", "N,N-Diethyl-2-propen-1-amine", "Ethanamine, N-ethyl-N-2-propenyl-", "N-Allyldiethylamine", "Allyldiethylamine", "Diethylallylamine", "N,N-Diethylallylamine", "N-Allyl-N,N-diethylamine", "3-(Diethylamino)-1-propene"], "SMILES": "N(CC=C)(CC)CC", "physical_data": {"Molecular Weight": "113.20", "Molecular Formula": "C7H15N", "Boiling Point": "30-31 \u00b0C @ Press: 22-23 Torr", "Density": "0.7477 g/cm\u00b3 @ Temp: 25 \u00b0C"}}