{"cas_no": "56660-19-6", "cn_name": "\u53cc\u56db\u4e01\u57fa\u94f5\u91cd\u94ec\u9178\u76d0", "en_name": ["1-Butanaminium, N,N,N-tributyl-, salt with chromic acid (H2Cr2O7) (2:1)", "1-Butanaminium, N,N,N-tributyl-, salt with chromic acid (H2Cr2O7) (2:1)", "Chromate (Cr2O72-), bis(N,N,N-tributyl-1-butanaminium)", "Bis(tetrabutyl ammonium) dichromate", "TBPDC", "Tetrabutylammonium dichromate"], "SMILES": "[N+](CCCC)(CCCC)(CCCC)CCCC.O([Cr]([O-])(=O)=O)[Cr]([O-])(=O)=O", "physical_data": {"Molecular Weight": "", "Molecular Formula": "C16H36N.<sup>1</sup>/2Cr2O7", "Melting Point": "129-133 \u00b0C"}}