{"cas_no": "56671-67-1", "cn_name": "\u54aa\u5511\u5e76[1,5-A]\u5421\u5576-1-\u7532\u919b", "en_name": ["Imidazo[1,5-a]pyridine-1-carboxaldehyde", "Imidazo[1,5-a]pyridine-1-carboxaldehyde"], "SMILES": "C(=O)C1=C2N(C=N1)C=CC=C2", "physical_data": {"Molecular Weight": "146.15", "Molecular Formula": "C8H6N2O", "Melting Point": "124-125 \u00b0C"}}