{"cas_no": "56683-54-6", "cn_name": "(11Z)-11-\u5341\u516d\u78b3\u70ef-1-\u9187", "en_name": ["(Z)-11-Hexadecenol", "11-Hexadecen-1-ol, (11Z)-", "11-Hexadecen-1-ol, (Z)-", "(11Z)-11-Hexadecen-1-ol", "cis-11-Hexadecen-1-ol", "(Z)-11-Hexadecenol", "(Z)-11-Hexadecen-1-ol"], "SMILES": "C(CCC=CCCCC)CCCCCCCO", "physical_data": {"Molecular Weight": "240.42", "Molecular Formula": "C16H32O", "Boiling Point": "309 \u00b0C"}}