{"cas_no": "56684-87-8", "cn_name": "\u5c71\u836f\u7d20\u2162", "en_name": ["Batatasin III", "Phenol, 3-[2-(3-hydroxyphenyl)ethyl]-5-methoxy-", "3-[2-(3-Hydroxyphenyl)ethyl]-5-methoxyphenol", "Batatasin III", "3,3\u2032-Dihydroxy-5-methoxybibenzyl"], "SMILES": "C(CC1=CC(O)=CC=C1)C2=CC(OC)=CC(O)=C2", "physical_data": {"Molecular Weight": "244.29", "Molecular Formula": "C15H16O3", "Melting Point": "98 \u00b0C"}}