{"cas_no": "5669-19-2", "cn_name": "2-\u82c4\u57fa\u4e19\u70ef\u9178", "en_name": ["2-Benzylacrylic acid", "Benzenepropanoic acid, \u03b1-methylene-", "Hydrocinnamic acid, \u03b1-methylene-", "\u03b1-Methylenebenzenepropanoic acid", "2-Benzylacrylic acid", "\u03b1-Benzylacrylic acid", "2-Methylene-3-phenylpropanoic acid", "NSC 192640", "2-Benzylprop-2-enoic acid"], "SMILES": "C(C(C(O)=O)=C)C1=CC=CC=C1", "physical_data": {"Molecular Weight": "162.19", "Molecular Formula": "C10H10O2", "Boiling Point": "170-174 \u00b0C @ Press: 20 Torr", "Melting Point": "68-69 \u00b0C"}}