{"cas_no": "5669-14-7", "cn_name": "A, A-\u4e8c\u7532\u57fa\u82ef\u4e19\u9178", "en_name": ["2,2-Dimethyl-3-phenylpropanoic acid", "Benzenepropanoic acid, \u03b1,\u03b1-dimethyl-", "Hydrocinnamic acid, \u03b1,\u03b1-dimethyl-", "\u03b1,\u03b1-Dimethylbenzenepropanoic acid", "Benzyldimethylacetic acid", "\u03b1,\u03b1-Dimethylhydrocinnamic acid", "2,2-Dimethyl-3-phenylpropionic acid", "2,2-Dimethyl-3-phenylpropanoic acid"], "SMILES": "C(C(C(O)=O)(C)C)C1=CC=CC=C1", "physical_data": {"Molecular Weight": "178.23", "Molecular Formula": "C11H14O2", "Boiling Point": "200 \u00b0C @ Press: 1.5 Torr", "Melting Point": "59-60 \u00b0C"}}