{"cas_no": "566939-58-0", "cn_name": "1,3-\u4e8c\u6eb4-5-\u8f9b\u57fa-4H-\u567b\u5429\u5e76[3,4-C]\u5421\u54af-4,6(5H)-\u4e8c\u916e", "en_name": ["1,3-Dibromo-5-octyl-4H-thieno[3,4-c]pyrrole-4,6(5H)-dione", "4H-Thieno[3,4-c]pyrrole-4,6(5H)-dione, 1,3-dibromo-5-octyl-", "1,3-Dibromo-5-octyl-4H-thieno[3,4-c]pyrrole-4,6(5H)-dione", "1,3-Dibromo-5-octyl-4H-thieno[3,4-c]pyrrole-4,6-(5H)-dione", "1,3-Dibromo-5-octylthieno[3,4-c]pyrrole-4,6-dione", "Thieno[3,4-c]pyrole-4,6-dione"], "SMILES": "O=C1C=2C(C(=O)N1CCCCCCCC)=C(Br)SC2Br", "physical_data": {"Molecular Weight": "423.16", "Molecular Formula": "C14H17Br2NO2S", "Melting Point": "104-105 \u00b0C"}}