{"cas_no": "567-02-2", "cn_name": "3ALPHA,21-\u4e8c\u7f9f\u57fa-5ALPHA-\u5b55\u753e-20-\u916e", "en_name": ["Allotetrahydrodeoxycorticosterone", "Pregnan-20-one, 3,21-dihydroxy-, (3\u03b1,5\u03b1)-", "5\u03b1-Pregnan-20-one, 3\u03b1,21-dihydroxy-", "(3\u03b1,5\u03b1)-3,21-Dihydroxypregnan-20-one", "Allotetrahydrodeoxycorticosterone", "3\u03b1,21-Dihydroxy-5\u03b1-pregnan-20-one", "21-Hydroxyallopregnanolone", "3\u03b1,5\u03b1-Tetrahydrodeoxycorticosterone", "5\u03b1-Pregnane-3\u03b1,21-diol-20-one", "NSC 113927", "3\u03b1,5\u03b1-THDOC", "THDOC", "\u03b1-THDOC"], "SMILES": "CC12C(C3C(C4(C)C(CC3)CC(O)CC4)CC1)CCC2C(CO)=O", "physical_data": {"Molecular Weight": "334.49", "Molecular Formula": "C21H34O3", "Melting Point": "163-166 \u00b0C"}}