{"cas_no": "567-61-3", "cn_name": "2-\u7f9f\u57fa-6-\u7532\u57fa\u82ef\u7532\u9178", "en_name": ["6-Methylsalicylic acid", "Benzoic acid, 2-hydroxy-6-methyl-", "2,6-Cresotic acid", "2-Hydroxy-6-methylbenzoic acid", "6-MS", "6-MSA", "6-Hydroxy-o-toluic acid", "6-Methylsalicylic acid", "NSC 403256"], "SMILES": "C(O)(=O)C1=C(C)C=CC=C1O", "physical_data": {"Molecular Weight": "152.15", "Molecular Formula": "C8H8O3", "Melting Point": "170 \u00b0C"}}