{"cas_no": "567-35-1", "cn_name": "\u987a\u5f0f-3-\u7f9f\u57fa-L-\u812f\u6c28\u9178", "en_name": ["cis-3-Hydroxy-L-proline", "L-Proline, 3-hydroxy-, (3R)-", "Proline, 3-hydroxy-, L-cis-", "L-Proline, 3-hydroxy-, cis-", "(3R)-3-Hydroxy-L-proline", "3-Allohydroxy-L-proline", "cis-3-Hydroxyproline", "cis-3-Hydroxy-L-proline", "(2S,3R)-3-Hydroxypyrrolidine-2-carboxylic acid", "(2S,3R)-3-Hydroxypyrrolidine-2-carboxylic acid"], "SMILES": "C(O)(=O)C1C(O)CCN1", "physical_data": {"Molecular Weight": "131.13", "Molecular Formula": "C5H9NO3", "Melting Point": "198-200 \u00b0C (decomp)"}}