{"cas_no": "56701-24-7", "cn_name": ")-\u9a74\u98df\u8349\u915a", "en_name": ["3,4-Dihydro-3-(2-hydroxy-4-methoxyphenyl)-2H-1-benzopyran-7-ol", "2H-1-Benzopyran-7-ol, 3,4-dihydro-3-(2-hydroxy-4-methoxyphenyl)-", "3,4-Dihydro-3-(2-hydroxy-4-methoxyphenyl)-2H-1-benzopyran-7-ol", "(\u00b1)-Vestitol"], "SMILES": "OC1=C(C=CC(OC)=C1)C2CC=3C(OC2)=CC(O)=CC3", "physical_data": {"Molecular Weight": "272.30", "Molecular Formula": "C16H16O4", "Melting Point": "172-179 \u00b0C"}}