{"cas_no": "56718-70-8", "cn_name": "{[4-(2-\u7532\u6c27\u4e59\u57fa)\u82ef\u6c27\u57fa]\u7532\u57fa}\u73af\u6c27\u4e59\u70f7", "en_name": ["2-[[4-(2-Methoxyethyl)phenoxy]methyl]oxirane", "Oxirane, 2-[[4-(2-methoxyethyl)phenoxy]methyl]-", "Oxirane, [[4-(2-methoxyethyl)phenoxy]methyl]-", "2-[[4-(2-Methoxyethyl)phenoxy]methyl]oxirane", "MEEPB", "1-[p-(2-Methoxyethyl)-phenoxy]-2,3-epoxy-propane", "3-[4-(2-Methoxyethyl)phenoxy]-1,2-epoxypropane"], "SMILES": "C(OC1=CC=C(CCOC)C=C1)C2CO2", "physical_data": {"Molecular Weight": "208.25", "Molecular Formula": "C12H16O3", "Melting Point": "67-68 \u00b0C"}}