{"cas_no": "56718-71-9", "cn_name": "\u5bf9\u7532\u6c27\u57fa\u4e59\u57fa\u82ef\u915a", "en_name": ["4-(2-Methoxyethyl)phenol", "Phenol, 4-(2-methoxyethyl)-", "Phenol, p-(2-methoxyethyl)-", "4-(2-Methoxyethyl)phenol", "p-(2-Methoxyethyl)phenol", "p-Hydroxyphenethyl methyl ether"], "SMILES": "C(COC)C1=CC=C(O)C=C1", "physical_data": {"Molecular Weight": "152.19", "Molecular Formula": "C9H12O2", "Boiling Point": "142 \u00b0C @ Press: 2 Torr", "Melting Point": "42-43 \u00b0C"}}