{"cas_no": "56725-99-6", "cn_name": "\u6deb\u7f8a\u85ff\u6b21\u82f7I", "en_name": ["Icariside I", "4H-1-Benzopyran-4-one, 7-(\u03b2-D-glucopyranosyloxy)-3,5-dihydroxy-2-(4-methoxyphenyl)-8-(3-methyl-2-buten-1-yl)-", "4H-1-Benzopyran-4-one, 7-(\u03b2-D-glucopyranosyloxy)-3,5-dihydroxy-2-(4-methoxyphenyl)-8-(3-methyl-2-butenyl)-", "7-(\u03b2-D-Glucopyranosyloxy)-3,5-dihydroxy-2-(4-methoxyphenyl)-8-(3-methyl-2-buten-1-yl)-4H-1-benzopyran-4-one", "Icarisid I", "Icariside I", "Icariin I"], "SMILES": "C(C=C(C)C)C1=C2C(C(=O)C(O)=C(O2)C3=CC=C(OC)C=C3)=C(O)C=C1OC4OC(CO)C(O)C(O)C4O", "physical_data": {"Molecular Weight": "530.52", "Molecular Formula": "C27H30O11", "Melting Point": "259-260 \u00b0C"}}