{"cas_no": "5673-07-4", "cn_name": "2,6-\u4e8c\u7532\u6c27\u57fa\u7532\u82ef", "en_name": ["2,6-Dimethoxytoluene", "Benzene, 1,3-dimethoxy-2-methyl-", "Toluene, 2,6-dimethoxy-", "1,3-Dimethoxy-2-methylbenzene", "2-Methylresorcinol dimethyl ether", "2,6-Dimethoxytoluene", "2-Methyl-1,3-dimethoxybenzene", "NSC 62674"], "SMILES": "O(C)C1=C(C)C(OC)=CC=C1", "physical_data": {"Molecular Weight": "152.19", "Molecular Formula": "C9H12O2", "Boiling Point": "97-99 \u00b0C @ Press: 15 Torr", "Melting Point": "39-41 \u00b0C"}}