{"cas_no": "56741-34-5", "cn_name": "2-\u6c1f-5-\u6c28\u57fa\u82ef\u7532\u9178\u7532\u916f", "en_name": ["Benzoic acid, 5-amino-2-fluoro-, methyl ester", "Benzoic acid, 5-amino-2-fluoro-, methyl ester", "Methyl 5-amino-2-fluorobenzoate", "5-Amino-2-fluorobenzoic acid methyl ester"], "SMILES": "C(OC)(=O)C1=C(F)C=CC(N)=C1", "physical_data": {"Molecular Weight": "169.15", "Molecular Formula": "C8H8FNO2", "Melting Point": "86 \u00b0C"}}