{"cas_no": "56741-95-8", "cn_name": "\u6eb4\u5339\u7acb\u660e", "en_name": ["Bropirimine", "4(3H)-Pyrimidinone, 2-amino-5-bromo-6-phenyl-", "4(1H)-Pyrimidinone, 2-amino-5-bromo-6-phenyl-", "2-Amino-5-bromo-6-phenyl-4(3H)-pyrimidinone", "5-Bromo-6-phenylisocytosine", "2-Amino-5-bromo-6-phenyl-4-pyrimidinol", "NSC 149027", "2-Amino-5-bromo-6-phenyl-4-pyrimidinone", "5-Bromo-2,3-dihydro-2-imino-6-phenyl-4(1H)-pyrimidinone", "Bropirimine", "U 54461", "U 54461S", "PNU 54461", "2-Amino-5-bromo-4-hydroxy-6-phenylpyrimidine", "2-Amino-5-bromo-6-phenyl-1H-pyrimidin-4-one", "2-Amino-5-bromo-6-phenyl-3,4-dihydropyrimidin-4-one"], "SMILES": "BrC1=C(NC(N)=NC1=O)C2=CC=CC=C2", "physical_data": {"Molecular Weight": "266.09", "Molecular Formula": "C10H8BrN3O", "Melting Point": "246-248 \u00b0C"}}