{"cas_no": "5675-51-4", "cn_name": "1,12-\u5341\u4e8c\u70f7\u4e8c\u9187", "en_name": ["1,12-Dodecanediol", "1,12-Dodecanediol", "1,12-Dihydroxydodecane", "n-Dodecane-1,12-diol", "\u03b1,\u03c9-Dodecanediol", "NSC 81250", "Dodecamethylene glycol", "D 0969"], "SMILES": "C(CCCCCCO)CCCCCO", "physical_data": {"Molecular Weight": "202.33", "Molecular Formula": "C12H26O2", "Boiling Point": "175-180 \u00b0C @ Press: 3 Torr", "Melting Point": "81.3 \u00b0C"}}