{"cas_no": "5676-58-4", "cn_name": "2,5-\u4e8c\u7532\u57fa\u82ef\u5e76\u6076\u5511", "en_name": ["2,5-Dimethylbenzoxazole", "Benzoxazole, 2,5-dimethyl-", "2,5-Dimethylbenzoxazole", "NSC 93785", "2,5-Dimethyl-1,3-benzoxazole", "2,5-Dimethylbenzo[d]oxazole"], "SMILES": "CC=1OC=2C(N1)=CC(C)=CC2", "physical_data": {"Molecular Weight": "147.17", "Molecular Formula": "C9H9NO", "Boiling Point": "218.5 \u00b0C", "Melting Point": "218-220 \u00b0C"}}