{"cas_no": "56767-76-1", "cn_name": "2-\u6c1f-ALPHA-\u7532\u57fa[1,1'-\u8054\u82ef]-4-\u4e59\u9178\u94a0\u76d0", "en_name": ["Flurbiprofen sodium", "[1,1\u2032-Biphenyl]-4-acetic acid, 2-fluoro-\u03b1-methyl-, sodium salt (1:1)", "[1,1\u2032-Biphenyl]-4-acetic acid, 2-fluoro-\u03b1-methyl-, sodium salt", "Sodium flurbiprofen", "Sodium 3-fluoro-4-phenylhydratropate", "Flurbiprofen sodium salt", "Flurbiprofen sodium", "Ocufen", "2-Fluoro-\u03b1-methyl-4-diphenylacetic acid sodium salt", "2-(2-Fluorobiphenyl-4-yl)propionic acid sodium salt", "Ocuflur"], "SMILES": "FC1=C(C=CC(C(C(O)=O)C)=C1)C2=CC=CC=C2.[Na]", "physical_data": {"Molecular Weight": "", "Molecular Formula": "C15H13FO2.Na", "Melting Point": "114-116 \u00b0C"}}