{"cas_no": "56765-79-8", "cn_name": "4-\u6c28\u57fa\u90bb\u82ef\u4e8c\u7532\u8148", "en_name": ["4-Amino-1,2-benzenedicarbonitrile", "1,2-Benzenedicarbonitrile, 4-amino-", "Phthalonitrile, 4-amino-", "4-Amino-1,2-benzenedicarbonitrile", "4-Aminophthalonitrile", "3,4-Dicyanoaniline", "4-Amino-1,2-dicyanobenzene", "NSC 309814"], "SMILES": "C(#N)C1=C(C#N)C=C(N)C=C1", "physical_data": {"Molecular Weight": "143.15", "Molecular Formula": "C8H5N3", "Melting Point": "185 \u00b0C"}}