{"cas_no": "5676-57-3", "cn_name": "5-\u7532\u6c27\u57fa-2-\u7532\u57fa\u82ef\u5e76\u6076\u5511", "en_name": ["5-Methoxy-2-methylbenzoxazole", "Benzoxazole, 5-methoxy-2-methyl-", "5-Methoxy-2-methylbenzoxazole"], "SMILES": "CC=1OC=2C(=CC(OC)=CC2)N1", "physical_data": {"Molecular Weight": "163.17", "Molecular Formula": "C9H9NO2", "Melting Point": "32-34 \u00b0C"}}