{"cas_no": "56776-01-3", "cn_name": "\u76d0\u9178\u59a5\u5e03\u7279\u7f57", "en_name": ["Tulobuterol hydrochloride", "Benzenemethanol, 2-chloro-\u03b1-[[(1,1-dimethylethyl)amino]methyl]-, hydrochloride (1:1)", "Benzenemethanol, 2-chloro-\u03b1-[[(1,1-dimethylethyl)amino]methyl]-, hydrochloride", "C 78", "Lobuterol", "Tulobuterol hydrochloride", "Berachin", "Chlibamol", "Ventaire", "Atenos", "Hokunalin", "Respacal", "Bremax", "Brelomax", "2-(tert-Butylamino)-1-(2-chlorophenyl)ethanol hydrochloride"], "SMILES": "C(CNC(C)(C)C)(O)C1=C(Cl)C=CC=C1.Cl", "physical_data": {"Molecular Weight": "", "Molecular Formula": "C12H18ClNO.ClH", "Melting Point": "161-163 \u00b0C"}}