{"cas_no": "56776-32-0", "cn_name": "\u76d0\u9178\u827e\u66ff\u4f0f\u8f9b", "en_name": ["Etifoxine hydrochloride", "4H-3,1-Benzoxazin-2-amine, 6-chloro-N-ethyl-4-methyl-4-phenyl-, hydrochloride (1:1)", "4H-3,1-Benzoxazin-2-amine, 6-chloro-N-ethyl-4-methyl-4-phenyl-, monohydrochloride", "Etifoxine hydrochloride", "Stresam"], "SMILES": "CC1(C=2C(N=C(NCC)O1)=CC=C(Cl)C2)C3=CC=CC=C3.Cl", "physical_data": {"Molecular Weight": "", "Molecular Formula": "C17H17ClN2O.ClH", "Melting Point": "150-151 \u00b0C"}}