{"cas_no": "56775-88-3", "cn_name": "\u6cfd\u9ea6\u5b9a", "en_name": ["Zimelidine", "2-Propen-1-amine, 3-(4-bromophenyl)-N,N-dimethyl-3-(3-pyridinyl)-, (2Z)-", "2-Propen-1-amine, 3-(4-bromophenyl)-N,N-dimethyl-3-(3-pyridinyl)-, (Z)-", "(2Z)-3-(4-Bromophenyl)-N,N-dimethyl-3-(3-pyridinyl)-2-propen-1-amine", "cis-H 102/09", "Zimelidine", "cis-Zimelidine", "(Z)-Zimelidine", "Zimeldine", "H 102/09"], "SMILES": "C(=CCN(C)C)(C1=CC=C(Br)C=C1)C=2C=CC=NC2", "physical_data": {"Molecular Weight": "317.22", "Molecular Formula": "C16H17BrN2", "Melting Point": "196-199 \u00b0C"}}