{"cas_no": "5678-47-7", "cn_name": "3-\u6c28\u57fa-3-(3-\u785d\u57fa\u82ef\u57fa)\u4e19\u9178", "en_name": ["\u03b2-Amino-3-nitrobenzenepropanoic acid", "Benzenepropanoic acid, \u03b2-amino-3-nitro-", "Hydrocinnamic acid, \u03b2-amino-m-nitro-", "\u03b2-Amino-3-nitrobenzenepropanoic acid", "NSC 40724", "3-Amino-3-(3-nitrophenyl)propanoic acid", "3-Amino-3-(3-nitro-phenyl)-propionic acid"], "SMILES": "C(CC(O)=O)(N)C1=CC(N(=O)=O)=CC=C1", "physical_data": {"Molecular Weight": "210.19", "Molecular Formula": "C9H10N2O4", "Melting Point": "230 \u00b0C (decomp)"}}