{"cas_no": "5678-48-8", "cn_name": "3-\u6c28\u57fa-3-(2-\u785d\u57fa\u82ef\u57fa)\u4e19\u9178", "en_name": ["\u03b2-Amino-2-nitrobenzenepropanoic acid", "Benzenepropanoic acid, \u03b2-amino-2-nitro-", "Hydrocinnamic acid, \u03b2-amino-o-nitro-", "\u03b2-Amino-2-nitrobenzenepropanoic acid", "3-Amino-3-(2-nitrophenyl)propionic acid", "3-Amino-3-(2-nitrophenyl)propanoic acid"], "SMILES": "C(CC(O)=O)(N)C1=C(N(=O)=O)C=CC=C1", "physical_data": {"Molecular Weight": "210.19", "Molecular Formula": "C9H10N2O4", "Melting Point": "222 \u00b0C"}}