{"cas_no": "56795-51-8", "cn_name": "SCOPOLETIN ACETATE", "en_name": ["7-(Acetyloxy)-6-methoxy-2H-1-benzopyran-2-one", "2H-1-Benzopyran-2-one, 7-(acetyloxy)-6-methoxy-", "Scopoletin acetate", "7-(Acetyloxy)-6-methoxy-2H-1-benzopyran-2-one", "Acetylscopoletin", "Scopoletin monoacetate", "O-Acetyl-Scopoletin"], "SMILES": "O(C)C=1C=C2C(=CC1OC(C)=O)OC(=O)C=C2", "physical_data": {"Molecular Weight": "234.20", "Molecular Formula": "C12H10O5", "Melting Point": "177 \u00b0C"}}