{"cas_no": "568-73-0", "cn_name": "\u4e39\u53c2\u916e I", "en_name": ["Tanshinone I", "Phenanthro[1,2-b]furan-10,11-dione, 1,6-dimethyl-", "1,6-Dimethylphenanthro[1,2-b]furan-10,11-dione", "Tanshinone I", "Tanshinon I", "Tanshinone A"], "SMILES": "O=C1C=2C(C3=C(C1=O)C(C)=CO3)=CC=C4C2C=CC=C4C", "physical_data": {"Molecular Weight": "276.29", "Molecular Formula": "C18H12O3", "Melting Point": "230-232 \u00b0C"}}