{"cas_no": "568-72-9", "cn_name": "\u4e39\u53c2\u916e IIA", "en_name": ["Tanshinone IIA", "Phenanthro[1,2-b]furan-10,11-dione, 6,7,8,9-tetrahydro-1,6,6-trimethyl-", "Tanshinone IIA", "6,7,8,9-Tetrahydro-1,6,6-trimethylphenanthro[1,2-b]furan-10,11-dione", "Tanshinone II", "Tanshinon II", "Dan Shen ketone", "Tanshinone B", "NSC 686519", "NSC 686518", "Tashinone IIA", "1,6,6-Trimethyl-6,7,8,9-tetrahydrophenanthro[1,2-b]furan-10,11-dione", "Salviol IIA", "1,6,6-Trimethyl-8,9-dihydro-7H-naphtho[1,2-g][1]benzofuran-10,11-dione"], "SMILES": "O=C1C=2C(C3=C(C1=O)C(C)=CO3)=CC=C4C2CCCC4(C)C", "physical_data": {"Molecular Weight": "294.34", "Molecular Formula": "C19H18O3", "Melting Point": "205-207 \u00b0C"}}