{"cas_no": "5680-86-4", "cn_name": "N-\u82c4\u6c27\u7fb0\u57fa-L-\u8c37\u6c28\u9178 5-\u82c4\u916f", "en_name": ["5-(Phenylmethyl) hydrogen N-[(phenylmethoxy)carbonyl]-L-glutamate", "L-Glutamic acid, N-[(phenylmethoxy)carbonyl]-, 5-(phenylmethyl) ester", "Glutamic acid, N-carboxy-, N,5-dibenzyl ester, L-", "5-(Phenylmethyl) hydrogen N-[(phenylmethoxy)carbonyl]-L-glutamate", "N-Carbobenzoxy-L-glutamic acid 5-benzyl ester", "\u03b3-Benzyl N-(benzyloxycarbonyl)-L-glutamate", "Carbobenzoxy-L-glutamic acid \u03b3-benzyl ester", "N-Carbobenzyloxy-L-glutamic acid \u03b3-benzyl ester", "N-(Benzyloxycarbonyl)-L-glutamic acid \u03b3-benzyl ester", "N-Carbobenzoxy-L-glutamic acid \u03b3-benzyl ester", "NSC 169178", "(2S)-5-Oxo-5-phenylmethoxy-2-(phenylmethoxycarbonylamino)pentanoic acid"], "SMILES": "C(OC(NC(CCC(OCC1=CC=CC=C1)=O)C(O)=O)=O)C2=CC=CC=C2", "physical_data": {"Molecular Weight": "371.38", "Molecular Formula": "C20H21NO6", "Melting Point": "77-78 \u00b0C"}}