{"cas_no": "5680-80-8", "cn_name": "L-\u4e1d\u6c28\u9178\u7532\u916f\u76d0\u9178\u76d0", "en_name": ["L-Serine, methyl ester, hydrochloride (1:1)", "L-Serine, methyl ester, hydrochloride (1:1)", "Serine, methyl ester, hydrochloride, L-", "L-Serine, methyl ester, hydrochloride", "Serine methyl ester hydrochloride", "Methyl serinate hydrochloride", "L-Serine methyl ester monohydrochloride", "(S)-Serine methyl ester hydrochloride", "Methyl L-serinate hydrochloride", "NSC 84252", "Methyl (S)-2-amino-3-hydroxypropanoate hydrochloride", "1: PN: RU2506269 PAGE: 13 claimed sequence", "Methyl (2S)-2-amino-3-hydroxy-propanoate hydrochloride", "L-Serine methyl ester\u00b7HCl"], "SMILES": "C(C(OC)=O)(CO)N.Cl", "physical_data": {"Molecular Weight": "", "Molecular Formula": "C4H9NO3.ClH", "Melting Point": "161-162 \u00b0C"}}