{"cas_no": "5680-61-5", "cn_name": "2-\u90bb\u82ef\u4e8c\u7532\u9170\u4e9a\u80fa\u57fa\u4e19\u4e8c\u9178\u4e8c\u4e59\u916f", "en_name": ["Diethyl phthalimidomalonate", "Propanedioic acid, 2-(1,3-dihydro-1,3-dioxo-2H-isoindol-2-yl)-, 1,3-diethyl ester", "2-Isoindolinemalonic acid, 1,3-dioxo-, diethyl ester", "Propanedioic acid, (1,3-dihydro-1,3-dioxo-2H-isoindol-2-yl)-, diethyl ester", "Diethyl phthalimidomalonate", "Diethyl 2-phthalimidomalonate", "NSC 12023", "1,3-Diethyl 2-(1,3-dioxo-2,3-dihydro-1H-isoindol-2-yl)propanedioate"], "SMILES": "C(C(OCC)=O)(C(OCC)=O)N1C(=O)C=2C(C1=O)=CC=CC2", "physical_data": {"Molecular Weight": "305.28", "Molecular Formula": "C15H15NO6", "Melting Point": "71-72 \u00b0C"}}