{"cas_no": "5680-79-5", "cn_name": "\u7518\u6c28\u9178\u7532\u916f\u76d0\u9178\u76d0", "en_name": ["Glycine methyl ester hydrochloride", "Glycine, methyl ester, hydrochloride (1:1)", "Glycine, methyl ester, hydrochloride", "Methyl glycinate hydrochloride", "Aminoacetic acid methyl ester hydrochloride", "Methyl aminoacetate hydrochloride", "Glycine methyl ester monohydrochloride", "Methyl \u03b1-aminoacetate hydrochloride", "Methyl 2-aminoacetate hydrochloride", "2-Aminoacetic acid methyl ester hydrochloride", "Glycine methyl ester hydrochloride"], "SMILES": "C(CN)(OC)=O.Cl", "physical_data": {"Molecular Weight": "", "Molecular Formula": "C3H7NO2.ClH", "Melting Point": "175-176 \u00b0C"}}