{"cas_no": "56803-37-3", "cn_name": "\u78f7\u9178\u53d4\u4e01\u57fa\u82ef\u4e8c\u82ef\u916f", "en_name": ["Phosphoric acid, (1,1-dimethylethyl)phenyl diphenyl ester", "Phosphoric acid, (1,1-dimethylethyl)phenyl diphenyl ester", "tert-Butylphenyl diphenyl phosphate", "Diphenyl tert-butylphenyl phosphate", "BPDP"], "SMILES": "", "physical_data": {"Molecular Weight": "", "Molecular Formula": "C22H23O4P", "Boiling Point": "261 \u00b0C @ Press: 6 Torr", "Density": "1.180 g/cm\u00b3 @ Temp: 25 \u00b0C"}}