{"cas_no": "5680-83-1", "cn_name": "CBZ-\u7518\u6c28\u9178\u9170\u80bc", "en_name": ["N-[(Phenylmethoxy)carbonyl]glycine hydrazide", "Glycine, N-[(phenylmethoxy)carbonyl]-, hydrazide", "Glycine, N-carboxy-, N-benzyl ester, hydrazide", "N-[(Phenylmethoxy)carbonyl]glycine hydrazide", "Carbobenzoxyglycine hydrazide", "N-(Benzyloxycarbonyl)glycine hydrazide", "[(Benzyloxy)carbonyl]glycine hydrazide", "NSC 117434", "Benzyl N-(2-hydrazino-2-oxoethyl)carbamate"], "SMILES": "C(OC(NCC(NN)=O)=O)C1=CC=CC=C1", "physical_data": {"Molecular Weight": "223.23", "Molecular Formula": "C10H13N3O3", "Melting Point": "116-117 \u00b0C"}}