{"cas_no": "56816-01-4", "cn_name": "(S)-3-\u7f9f\u57fa\u4e01\u9178\u4e59\u916f", "en_name": ["(+)-Ethyl 3-hydroxybutyrate", "Butanoic acid, 3-hydroxy-, ethyl ester, (3S)-", "Butanoic acid, 3-hydroxy-, ethyl ester, (S)-", "Ethyl (+)-3-hydroxybutanoate", "(S)-(+)-Ethyl 3-hydroxybutyrate", "Ethyl (S)-3-hydroxybutanoate", "(S)-3-Hydroxybutanoic acid ethyl ester", "Ethyl (S)-3-hydroxybutyrate", "Ethyl (S)-(+)-\u03b2-hydroxybutyrate", "(S)-(+)-Ethyl 3-hydroxybutanoate", "(S)-3-Hydroxybutyric acid ethyl ester", "(S)-(+)-3-Hydroxy-n-butyrate ethyl ester", "(S)-Ethyl 3-hydroxybutyrate", "(+)-Ethyl 3-hydroxybutyrate", "(3S)-3-Hydroxybutyric acid ethyl ester"], "SMILES": "C(C(OCC)=O)C(C)O", "physical_data": {"Molecular Weight": "132.16", "Molecular Formula": "C6H12O3", "Boiling Point": "70 \u00b0C @ Press: 11 Torr"}}