{"cas_no": "56814-11-0", "cn_name": "2-\u6c28\u57fa-N-\u73af\u5df1\u57fa-\u82ef\u7532\u9170\u80fa", "en_name": ["2-Amino-N-cyclohexylbenzamide", "Benzamide, 2-amino-N-cyclohexyl-", "2-Amino-N-cyclohexylbenzamide"], "SMILES": "C(NC1CCCCC1)(=O)C2=C(N)C=CC=C2", "physical_data": {"Molecular Weight": "218.29", "Molecular Formula": "C13H18N2O", "Melting Point": "153-155 \u00b0C"}}