{"cas_no": "5682-83-7", "cn_name": "2-\u82c4\u70ef\u57fa\u73af\u5df1\u916e", "en_name": ["2-Benzylidenecyclohexanone", "Cyclohexanone, 2-(phenylmethylene)-", "Cyclohexanone, 2-benzylidene-", "2-(Phenylmethylene)cyclohexanone", "2-Benzylidenecyclohexanone", "2-Benzalcyclohexanone", "NSC 145677"], "SMILES": "C(=C1C(=O)CCCC1)C2=CC=CC=C2", "physical_data": {"Molecular Weight": "186.25", "Molecular Formula": "C13H14O", "Boiling Point": "180 \u00b0C", "Melting Point": "53 \u00b0C"}}