{"cas_no": "5683-30-7", "cn_name": "3-\u4e09\u7532\u57fa\u7845\u57fa\u4e19\u9178", "en_name": ["3-(Trimethylsilyl)propionic acid", "Propanoic acid, 3-(trimethylsilyl)-", "Propionic acid, 3-(trimethylsilyl)-", "3-(Trimethylsilyl)propanoic acid", "2-Silapentan-5-oic acid, 2,2-dimethyl-", "3-(Trimethylsilyl)propionic acid", "NSC 93018", "3-(Trimethylsilanyl)propionic acid"], "SMILES": "C([Si](C)(C)C)CC(O)=O", "physical_data": {"Molecular Weight": "146.26", "Molecular Formula": "C6H14O2Si", "Boiling Point": "100 \u00b0C @ Press: 6 Torr", "Melting Point": "22 \u00b0C", "Density": "0.9196 g/cm\u00b3 @ Temp: 20 \u00b0C"}}