{"cas_no": "5683-43-2", "cn_name": "2-\u7532\u57fa-6-\u785d\u57fa\u82ef\u5e76\u6076\u5511", "en_name": ["2-Methyl-6-nitrobenzoxazole", "Benzoxazole, 2-methyl-6-nitro-", "2-Methyl-6-nitrobenzoxazole", "2-Methyl-6-nitro-1,3-benzoxazole", "2-Methyl-6-nitro-benzooxazole"], "SMILES": "N(=O)(=O)C=1C=C2C(=CC1)N=C(C)O2", "physical_data": {"Molecular Weight": "178.14", "Molecular Formula": "C8H6N2O3", "Melting Point": "170-173 \u00b0C"}}