{"cas_no": "56839-43-1", "cn_name": "\u76d0\u9178\u4e59\u54cc\u7acb\u677e", "en_name": ["Eperisone hydrochloride", "1-Propanone, 1-(4-ethylphenyl)-2-methyl-3-(1-piperidinyl)-, hydrochloride (1:1)", "1-Propanone, 1-(4-ethylphenyl)-2-methyl-3-(1-piperidinyl)-, hydrochloride", "Myonal", "E 0646", "4\u2032-Ethyl-2-methyl-3-piperidinopropiophenone hydrochloride", "Eperisone hydrochloride", "EMPP", "Mional", "(\u00b1)-Eperisone hydrochloride", "Skelact", "Rapisone", "Myosone plus"], "SMILES": "C(C(CN1CCCCC1)C)(=O)C2=CC=C(CC)C=C2.Cl", "physical_data": {"Molecular Weight": "", "Molecular Formula": "C17H25NO.ClH", "Melting Point": "170-172 \u00b0C"}}