{"cas_no": "5683-41-0", "cn_name": "2,5,6-\u4e09\u7532\u57fa\u82ef\u5e76\u567b\u5511", "en_name": ["2,5,6-Trimethylbenzothiazole", "Benzothiazole, 2,5,6-trimethyl-", "2,5,6-Trimethylbenzothiazole", "2,5,6-Trimethyl-1,3-benzothiazole", "2,5,6-Trimethylbenzo[d]thiazole"], "SMILES": "CC=1C=C2C(=CC1C)SC(C)=N2", "physical_data": {"Molecular Weight": "177.27", "Molecular Formula": "C10H11NS", "Boiling Point": "130-143 \u00b0C @ Press: 7 Torr", "Melting Point": "85-86 \u00b0C"}}