{"cas_no": "56830-58-1", "cn_name": "2,5-\u4e8c\u6c28\u57fa-4,6-\u4e8c\u7f9f\u57fa\u5627\u5576\u76d0\u9178\u76d0", "en_name": ["4(3H)-Pyrimidinone, 2,5-diamino-6-hydroxy-, hydrochloride (1:1)", "4(3H)-Pyrimidinone, 2,5-diamino-6-hydroxy-, hydrochloride (1:1)", "4(1H)-Pyrimidinone, 2,5-diamino-6-hydroxy-, monohydrochloride", "2,5-Diamino-4,6-dihydroxypyrimidine hydrochloride"], "SMILES": "NC=1C(=O)NC(N)=NC1O.Cl", "physical_data": {"Molecular Weight": "", "Molecular Formula": "C4H6N4O2.ClH", "Melting Point": "&gt;300 \u00b0C"}}