{"cas_no": "5683-33-0", "cn_name": "2-\u4e8c\u7532\u6c28\u57fa\u5421\u5576", "en_name": ["2-(Dimethylamino)pyridine", "2-Pyridinamine, N,N-dimethyl-", "Pyridine, 2-(dimethylamino)-", "N,N-Dimethyl-2-pyridinamine", "2-(Dimethylamino)pyridine", "NSC 93902", "2,6-Dimethyl-3-pyridinylamine", "N,N-Dimethylpyridin-2-ylamine"], "SMILES": "N(C)(C)C1=CC=CC=N1", "physical_data": {"Molecular Weight": "122.17", "Molecular Formula": "C7H10N2", "Boiling Point": "196 \u00b0C", "Melting Point": "182 \u00b0C", "Density": "1.0157 g/cm\u00b3 @ Temp: 14 \u00b0C"}}