{"cas_no": "5683-44-3", "cn_name": "2-\u7532\u57fa-2,4-\u620a\u4e8c\u9187", "en_name": ["3-Methyl-2,4-pentanediol", "2,4-Pentanediol, 3-methyl-", "3-Methyl-2,4-pentanediol", "3-Methylpentanediol-2,4", "NSC 66498"], "SMILES": "C(C(C)O)(C(C)O)C", "physical_data": {"Molecular Weight": "118.17", "Molecular Formula": "C6H14O2", "Boiling Point": "211.5 \u00b0C", "Density": "0.9325 g/cm\u00b3 @ Temp: 20 \u00b0C"}}