{"cas_no": "5685-05-2", "cn_name": "2-\u5def\u57fa\u567b\u5511", "en_name": ["2-Mercaptothiazole", "2(3H)-Thiazolethione", "4-Thiazoline-2-thione", "2-Thiazolethiol", "2-Mercaptothiazole", "2-Mercapto-1,3-thiazole", "Thiazoline-2-thione", "\u03944-Thiazoline-2-thione", "NSC 24294", "NSC 41217", "1,3-Thiazole-2-thiol", "2-Thiothiazole"], "SMILES": "S=C1NC=CS1", "physical_data": {"Molecular Weight": "117.19", "Molecular Formula": "C3H3NS2", "Melting Point": "80 \u00b0C"}}