{"cas_no": "5685-38-1", "cn_name": "2-\u82ef\u57fa\u73af\u4e19\u70f7-1-\u7fa7\u9178", "en_name": ["2-Phenylcyclopropanecarboxylic acid", "Cyclopropanecarboxylic acid, 2-phenyl-", "2-Phenylcyclopropanecarboxylic acid", "NSC 245855", "2-Phenyl-1-cyclopropanecarboxylic acid"], "SMILES": "C(O)(=O)C1C(C1)C2=CC=CC=C2", "physical_data": {"Molecular Weight": "162.19", "Molecular Formula": "C10H10O2", "Melting Point": "89-90 \u00b0C"}}