{"cas_no": "568577-88-8", "cn_name": "4-\u5417\u5549\u57fa\u82ef\u787c\u9178\u9891\u54ea\u9187\u916f", "en_name": ["4-[4-(4,4,5,5-Tetramethyl-1,3,2-dioxaborolan-2-yl)phenyl]morpholine", "Morpholine, 4-[4-(4,4,5,5-tetramethyl-1,3,2-dioxaborolan-2-yl)phenyl]-", "4-[4-(4,4,5,5-Tetramethyl-1,3,2-dioxaborolan-2-yl)phenyl]morpholine", "N-[4-(4,4,5,5-Tetramethyl-[1,3,2]dioxaborolan-2-yl)phenyl]morpholine"], "SMILES": "CC1(C)OB(OC1(C)C)C2=CC=C(C=C2)N3CCOCC3", "physical_data": {"Molecular Weight": "289.18", "Molecular Formula": "C16H24BNO3", "Melting Point": "98.6-99.0 \u00b0C"}}