{"cas_no": "56882-52-1", "cn_name": "2,4-\u4e8c\u6c2f\u82ef\u7532\u9178\u4e59\u916f", "en_name": ["Benzoic acid, 2,4-dichloro-, ethyl ester", "Benzoic acid, 2,4-dichloro-, ethyl ester", "Ethyl 2,4-dichlorobenzoate", "2,4-Dichlorobenzoic acid ethyl ester"], "SMILES": "C(OCC)(=O)C1=C(Cl)C=C(Cl)C=C1", "physical_data": {"Molecular Weight": "219.06", "Molecular Formula": "C9H8Cl2O2", "Boiling Point": "83-85 \u00b0C @ Press: 0.2 Torr", "Melting Point": "53-55 \u00b0C"}}