{"cas_no": "5689-59-8", "cn_name": "1-\u6c2f\u4e59\u9170\u6c28\u57fa\u91d1\u521a\u70f7", "en_name": ["N-1-Adamantyl-2-chloroacetamide", "Acetamide, 2-chloro-N-tricyclo[3.3.1.13,7]dec-1-yl-", "Acetamide, N-1-adamantyl-2-chloro-", "2-Chloro-N-tricyclo[3.3.1.13,7]dec-1-ylacetamide", "N-Chloroacetyl-1-aminoadamantane", "1-Chloroacetylaminoadamantane", "N-1-Adamantyl-2-chloroacetamide", "N-(Adamantan-1-yl)-2-chloroacetamide"], "SMILES": "N(C(CCl)=O)C12CC3CC(C1)CC(C2)C3", "physical_data": {"Molecular Weight": "227.73", "Molecular Formula": "C12H18ClNO", "Melting Point": "113-115 \u00b0C"}}