{"cas_no": "569-31-3", "cn_name": "\u8882\u5eb7\u5b81", "en_name": ["Meconin", "1(3H)-Isobenzofuranone, 6,7-dimethoxy-", "Phthalide, 6,7-dimethoxy-", "6,7-Dimethoxy-1(3H)-isobenzofuranone", "6,7-Dimethoxyphthalide", "Meconic lactone", "Opianyl", "Meconin", "Meconine", "NSC 35547"], "SMILES": "O(C)C1=C2C(=CC=C1OC)COC2=O", "physical_data": {"Molecular Weight": "194.18", "Molecular Formula": "C10H10O4", "Melting Point": "102.5 \u00b0C"}}