{"cas_no": "569-64-2", "cn_name": "\u989c\u6599\u7eff 18", "en_name": ["Malachite green", "Methanaminium, N-[4-[[4-(dimethylamino)phenyl]phenylmethylene]-2,5-cyclohexadien-1-ylidene]-N-methyl-, chloride (1:1)", "Victoria Green WB", "C.I. Basic Green 4", "Methanaminium, N-[4-[[4-(dimethylamino)phenyl]phenylmethylene]-2,5-cyclohexadien-1-ylidene]-N-methyl-, chloride", "C.I. 42000", "Acryl Brilliant Green B", "ADC Malachite Green Crystals", "Aizen Malachite Green Crystals", "Astra Malachite Green", "Astra Malachite Green B", "Astra Malachite Green BXX", "Benzaldehyde green", "Benzal Green", "Bronze Green Toner A 8002", "Burma Green B", "Calcozine Green V", "China Green", "Diabasic Malachite Green", "Diamond Green BX", "Diamond Green B extra", "Diamond Green P Extra", "Green MX", "Grenoble Green", "Hidaco Malachite Green Base", "Hidaco Malachite Green LC", "Hidaco Malachite Green SC", "Light Green N", "Lincoln Green Toner B 15-2900", "Malachite Green A", "Malachite Green J 3E", "Malachite Green AN", "Malachite green chloride", "Malachite Green CP", "Malachite Green Crystals", "Malachite Green Crystals BPC", "Malachite Green Powder", "Malachite Green WS", "Malachite Lake Green A", "Mitsui Malachite Green", "New Victoria Green Extra I", "New Victoria Green Extra O", "New Victoria Green Extra II", "Oji Malachite Green", "Solid Green O", "Solid Green Crystals O", "Tertrophene Green M", "Tokyo Aniline Malachite Green", "Victoria Green", "Victoria Green B", "Victoria Green S", "Victoria Green WPB", "Malachite green", "Basic Green 4", "Aniline green", "Malachite Green B", "Aizen Malachite Green", "Victoria Green (basic dye)", "Verona Basic Green M", "Atlantic Malachite Green", "Basonyl Green 830", "Super Ick Cure", "Malachite Green XLS", "Basonyl Green NB 832", "Basacryl Green X-BF", "Green Malaquite", "LC 6220", "Aizen malachite green liquid", "Malachite Green 4", "Diamond Green B", "Astrazon Green M", "Basic Light Green G 4", "MKG", "C.I. 4200"], "SMILES": "C(C1=CC=C(N(C)C)C=C1)(=C2C=CC(=[N+](C)C)C=C2)C3=CC=CC=C3.[Cl-]", "physical_data": {"Molecular Weight": "", "Molecular Formula": "C23H25N2.Cl", "Melting Point": "112-114 \u00b0C"}}