{"cas_no": "569-61-9", "cn_name": "\u78b1\u6027\u7ea2 9", "en_name": ["Pararosaniline", "Benzenamine, 4,4\u2032-[(4-imino-2,5-cyclohexadien-1-ylidene)methylene]bis-, hydrochloride (1:1)", "Para Magenta", "C.I. Basic Red 9, monohydrochloride", "Benzenamine, 4-[(4-aminophenyl)(4-imino-2,5-cyclohexadien-1-ylidene)methyl]-, monohydrochloride", "Benzenamine, 4,4\u2032-[(4-imino-2,5-cyclohexadien-1-ylidene)methylene]bis-, monohydrochloride", "C.I. 42500", "Calcozine Magenta N", "Fuchsine DR 001", "Fuchsine SP", "Fuchsine SPC", "Parafuchsin", "Pararosaniline chloride", "Pararosaniline hydrochloride", "Parafuchsine", "Pararosaniline", "C.I. Basic Red 9", "Basic Parafuchsine", "p-Fuchsin", "p-Rosaniline hydrochloride", "p-Fuchsine", "Orient Para Magenta Base", "Basic Red 9", "NSC 10460", "4-[(4-Aminophenyl)-(4-iminocyclohexa-2,5-dien-1-ylidene)methyl]aniline hydrochloride"], "SMILES": "C(C1=CC=C(N)C=C1)(C2=CC=C(N)C=C2)=C3C=CC(=N)C=C3.Cl", "physical_data": {"Molecular Weight": "", "Molecular Formula": "C19H17N3.ClH", "Melting Point": "268-270 \u00b0C (decomp)"}}