{"cas_no": "569-80-2", "cn_name": "PENDULETIN", "en_name": ["Penduletin", "4H-1-Benzopyran-4-one, 5-hydroxy-2-(4-hydroxyphenyl)-3,6,7-trimethoxy-", "Flavone, 4\u2032,5-dihydroxy-3,6,7-trimethoxy-", "Penduletin", "5-Hydroxy-2-(4-hydroxyphenyl)-3,6,7-trimethoxy-4H-1-benzopyran-4-one", "4\u2032,5-Dihydroxy-3,6,7-trimethoxyflavone", "5,4\u2032-Dihydroxy-3,6,7-trimethoxyflavone", "6-Hydroxykaempferol 3,6,7-trimethyl ether"], "SMILES": "O=C1C=2C(OC(=C1OC)C3=CC=C(O)C=C3)=CC(OC)=C(OC)C2O", "physical_data": {"Molecular Weight": "344.32", "Molecular Formula": "C18H16O7", "Melting Point": "216-217 \u00b0C"}}