{"cas_no": "569-57-3", "cn_name": "\u6c2f\u70ef\u96cc\u919a", "en_name": ["Chlorotrianisene", "Benzene, 1,1\u2032,1\u2032\u2032-(1-chloro-1-ethenyl-2-ylidene)tris[4-methoxy-", "Ethylene, chlorotris(p-methoxyphenyl)-", "Chlorotrianisene", "1,1\u2032,1\u2032\u2032-(1-Chloro-1-ethenyl-2-ylidene)tris[4-methoxybenzene]", "Chlorotris(p-methoxyphenyl)ethylene", "Tri-p-anisylchloroethylene", "Tris(p-methoxyphenyl)chloroethylene", "Merbentul", "Tace", "Hormonisene", "Chlortrianizen", "Khlortrianizen", "Anisene", "Clorestrolo", "Clorotrisin", "Metace", "NSC 10108", "Rianil", "Trianisylchloroethylene", "Tace (pharmaceutical)"], "SMILES": "C(=C(Cl)C1=CC=C(OC)C=C1)(C2=CC=C(OC)C=C2)C3=CC=C(OC)C=C3", "physical_data": {"Molecular Weight": "380.86", "Molecular Formula": "C23H21ClO3", "Melting Point": "114-116 \u00b0C"}}