{"cas_no": "569-51-7", "cn_name": "1,2,3-\u82ef\u4e09\u7532\u9178", "en_name": ["1,2,3-Benzenetricarboxylic acid", "1,2,3-Benzenetricarboxylic acid", "Hemimellitic acid", "1,2,3-Tricarboxybenzene", "NSC 401092"], "SMILES": "C(O)(=O)C1=C(C(O)=O)C=CC=C1C(O)=O", "physical_data": {"Molecular Weight": "210.14", "Molecular Formula": "C9H6O6", "Melting Point": "200 \u00b0C"}}