{"cas_no": "569-92-6", "cn_name": "\u9f20\u674e\u67e0\u6aac\u7d20", "en_name": ["Rhamnocitrin", "4H-1-Benzopyran-4-one, 3,5-dihydroxy-2-(4-hydroxyphenyl)-7-methoxy-", "Flavone, 3,4\u2032,5-trihydroxy-7-methoxy-", "Rhamnocitrin", "3,5-Dihydroxy-2-(4-hydroxyphenyl)-7-methoxy-4H-1-benzopyran-4-one", "C.I. 75650", "7-Methylkaempferol", "Kaempferol 7-methyl ether", "3,4\u2032,5-Trihydroxy-7-methoxyflavone", "7-O-Methylkaempferol", "Kaempferol-7-O-methyl ether", "3,5-Dihydroxy-2-(4-hydroxyphenyl)-7-methoxychromen-4-one"], "SMILES": "O=C1C=2C(OC(=C1O)C3=CC=C(O)C=C3)=CC(OC)=CC2O", "physical_data": {"Molecular Weight": "300.26", "Molecular Formula": "C16H12O6", "Melting Point": "220-222 \u00b0C"}}