{"cas_no": "569-42-6", "cn_name": "1,8-\u4e8c\u7f9f\u57fa\u8418", "en_name": ["1,8-Dihydroxynaphthalene", "1,8-Naphthalenediol", "1,8-Dihydroxynaphthalene"], "SMILES": "OC=1C2=C(C=CC=C2O)C=CC1", "physical_data": {"Molecular Weight": "160.17", "Molecular Formula": "C10H8O2", "Boiling Point": "140 \u00b0C @ Press: 10 Torr", "Melting Point": "154 \u00b0C"}}