{"cas_no": "569-65-3", "cn_name": "\u7f8e\u514b\u6d1b\u55ea", "en_name": ["Meclizine", "Piperazine, 1-[(4-chlorophenyl)phenylmethyl]-4-[(3-methylphenyl)methyl]-", "Piperazine, 1-(p-chloro-\u03b1-phenylbenzyl)-4-(m-methylbenzyl)-", "1-[(4-Chlorophenyl)phenylmethyl]-4-[(3-methylphenyl)methyl]piperazine", "U.C.B. 5062", "Ancolan", "Bonine", "1-(p-Chlorobenzhydryl)-4-(m-methylbenzyl)diethylenediamine", "1-(p-Chloro-\u03b1-phenylbenzyl)-4-(m-methylbenzyl)piperazine", "Histametizyne", "Neo-Istafene", "Meclizine", "Meclozine", "Navicalm", "Parachloramine", "Postafene", "1-(p-Chlorobenzhydryl)-4-(m-methylbenzyl)piperazine", "Sabari", "Suprimal", "Ravelon", "Vomisseis", "(\u00b1)-Meclizine", "NSC 169189", "1-[(4-Chlorophenyl)-phenylmethyl]-4-[(3-methylphenyl)methyl]piperazine hydrate"], "SMILES": "C(N1CCN(CC2=CC(C)=CC=C2)CC1)(C3=CC=C(Cl)C=C3)C4=CC=CC=C4", "physical_data": {"Molecular Weight": "390.95", "Molecular Formula": "C25H27ClN2", "Boiling Point": "230 \u00b0C @ Press: 2 Torr", "Melting Point": "43-45 \u00b0C"}}