{"cas_no": "569-77-7", "cn_name": "\u7ea2\u966a\u915a", "en_name": ["Purpurogallin", "5H-Benzocyclohepten-5-one, 2,3,4,6-tetrahydroxy-", "Purpurogallin", "2,3,4,6-Tetrahydroxy-5H-benzocyclohepten-5-one", "NSC 35676", "NSC 646653", "2,3,4,6-Tetrahydroxy-5H-benzo[a]cyclohepten-5-one", "NCI 35676", "2,3,4,6-Tetrahydroxy-5H-benzo[7]annulen-5-one", "2,3,4,5-Tetrahydroxybenzo[7]annulen-6-one"], "SMILES": "OC1=C2C(=CC(O)=C1O)C=CC=C(O)C2=O", "physical_data": {"Molecular Weight": "220.18", "Molecular Formula": "C11H8O5", "Melting Point": "274.5 \u00b0C (decomp)"}}