{"cas_no": "569-41-5", "cn_name": "1,8-\u4e8c\u7532\u57fa\u8418", "en_name": ["1,8-Dimethylnaphthalene", "Naphthalene, 1,8-dimethyl-", "1,8-Dimethylnaphthalene"], "SMILES": "CC=1C2=C(C=CC=C2C)C=CC1", "physical_data": {"Molecular Weight": "156.22", "Molecular Formula": "C12H12", "Boiling Point": "270 \u00b0C", "Melting Point": "65 \u00b0C"}}