{"cas_no": "5690-03-9", "cn_name": "\u65af\u666e\u5229\u7279\u9ebb\u4e00\u8f9b", "en_name": ["Splitomicin", "3H-Naphtho[2,1-b]pyran-3-one, 1,2-dihydro-", "1-Naphthalenepropionic acid, 2-hydroxy-, \u03b4-lactone", "1,2-Dihydro-3H-naphtho[2,1-b]pyran-3-one", "1-Naphthalenepropanoic acid, 2-hydroxy-, \u03b4-lactone", "Splitomicin", "Splitomycin", "1,2-Dihydro-3H-benzo[f]chromen-3-one", "1,2-Dihydrobenzo[f]chromen-3-one"], "SMILES": "O=C1OC=2C(=C3C(=CC2)C=CC=C3)CC1", "physical_data": {"Molecular Weight": "198.22", "Molecular Formula": "C13H10O2", "Boiling Point": "155-158 \u00b0C @ Press: 0.01 Torr", "Melting Point": "73-74.5 \u00b0C"}}