{"cas_no": "5690-24-4", "cn_name": "1,4,5,8-\u8418\u56db\u7532\u9170\u57fa\u4e8c\u9170\u4e9a\u80fa", "en_name": ["Benzo[lmn][3,8]phenanthroline-1,3,6,8(2H,7H)-tetrone", "Benzo[lmn][3,8]phenanthroline-1,3,6,8(2H,7H)-tetrone", "1,4,5,8-Naphthalenetetracarboxylic 1,8:4,5-diimide", "NSC 96429", "1,4,5,8-Naphthaldiimide", "1,4,5,8-Naphthalenetetracarboxylic acid diimide", "1,4,5,8-Naphthalenetetracarboxylic diimide", "NTCDI"], "SMILES": "O=C1C=2C3=C4C(C(=O)NC(=O)C4=CC2)=CC=C3C(=O)N1", "physical_data": {"Molecular Weight": "266.21", "Molecular Formula": "C14H6N2O4", "Melting Point": "&gt;410 \u00b0C"}}