{"cas_no": "5691-19-0", "cn_name": "\u53cd-2-\u6c28\u57fa-1-\u73af\u5df1\u7fa7\u9178", "en_name": ["trans-2-Aminocyclohexanecarboxylic acid", "Cyclohexanecarboxylic acid, 2-amino-, (1R,2R)-rel-", "Cyclohexanecarboxylic acid, 2-amino-, trans-", "rel-(1R,2R)-2-Aminocyclohexanecarboxylic acid", "1,2-trans-Aminocyclohexanecarboxylic acid", "trans-2-Aminocyclohexane-1-carboxylic acid", "trans-2-Aminocyclohexanecarboxylic acid", "trans-Hexahydroanthranilic acid", "(\u00b1)-trans-2-Aminocyclohexanecarboxylic acid"], "SMILES": "C(O)(=O)C1C(N)CCCC1", "physical_data": {"Molecular Weight": "143.18", "Molecular Formula": "C7H13NO2", "Melting Point": "271-273 \u00b0C"}}