{"cas_no": "56932-44-6", "cn_name": "N-(2-\u6c28\u57fa-4-\u785d\u57fa\u82ef\u57fa)\u4e59\u9187\u80fa", "en_name": ["HC Yellow 5", "Ethanol, 2-[(2-amino-4-nitrophenyl)amino]-", "Ethanol, 2-(2-amino-4-nitroanilino)-", "2-[(2-Amino-4-nitrophenyl)amino]ethanol", "HC Yellow No. 5", "N1-(2-Hydroxyethyl)-4-nitro-o-phenylenediamine", "HC Yellow 5", "Yellow No. 5", "1-(2\u2032-Hydroxy-ethyl)amino-2-amino-4-nitro-benzene", "2-[(2-Amino-4-nitrophenyl)amino]ethan-1-ol", "2-(2-Amino-4-nitroanilino)ethanol"], "SMILES": "N(CCO)C1=C(N)C=C(N(=O)=O)C=C1", "physical_data": {"Molecular Weight": "197.19", "Molecular Formula": "C8H11N3O3", "Melting Point": "133 \u00b0C"}}