{"cas_no": "5694-00-8", "cn_name": "\u73af\u6c27\u4e19\u9170\u80fa", "en_name": ["Glycidamide", "2-Oxiranecarboxamide", "Glycidamide", "Oxiranecarboxamide", "Glycidic acid amide", "(\u00b1)-Oxiranecarboxamide"], "SMILES": "C(N)(=O)C1CO1", "physical_data": {"Molecular Weight": "87.08", "Molecular Formula": "C3H5NO2", "Boiling Point": "72-73 \u00b0C @ Press: 0.2 Torr", "Melting Point": "33-34 \u00b0C"}}