{"cas_no": "56961-76-3", "cn_name": "3,4,5-\u4e09\u6c2f\u82ef\u7532\u919b", "en_name": ["3,4,5-Trichlorobenzaldehyde", "Benzaldehyde, 3,4,5-trichloro-", "3,4,5-Trichlorobenzaldehyde"], "SMILES": "C(=O)C1=CC(Cl)=C(Cl)C(Cl)=C1", "physical_data": {"Molecular Weight": "209.46", "Molecular Formula": "C7H3Cl3O", "Melting Point": "90-91 \u00b0C"}}