{"cas_no": "56961-75-2", "cn_name": "2,3,5-\u4e09\u6c2f\u82ef\u7532\u919b", "en_name": ["2,3,5-Trichlorobenzaldehyde", "Benzaldehyde, 2,3,5-trichloro-", "2,3,5-Trichlorobenzaldehyde"], "SMILES": "C(=O)C1=C(Cl)C(Cl)=CC(Cl)=C1", "physical_data": {"Molecular Weight": "209.46", "Molecular Formula": "C7H3Cl3O", "Melting Point": "56 \u00b0C"}}