{"cas_no": "56961-77-4", "cn_name": "2,3-\u4e8c\u6c2f\u6eb4\u82ef", "en_name": ["1-Bromo-2,3-dichlorobenzene", "Benzene, 1-bromo-2,3-dichloro-", "1-Bromo-2,3-dichlorobenzene", "2,3-Dichloro-1-bromobenzene", "2,3-Dichlorophenyl bromide", "2,3-Dichlorobromobenzene"], "SMILES": "ClC1=C(Br)C=CC=C1Cl", "physical_data": {"Molecular Weight": "225.90", "Molecular Formula": "C6H3BrCl2", "Boiling Point": "245 \u00b0C", "Melting Point": "60 \u00b0C"}}