{"cas_no": "56961-31-0", "cn_name": "6-\u6c2f\u6c34\u6768\u9178", "en_name": ["2-Chloro-6-hydroxybenzoic acid", "Benzoic acid, 2-chloro-6-hydroxy-", "Salicylic acid, 6-chloro-", "2-Chloro-6-hydroxybenzoic acid", "6-Chlorosalicylic acid"], "SMILES": "C(O)(=O)C1=C(Cl)C=CC=C1O", "physical_data": {"Molecular Weight": "172.57", "Molecular Formula": "C7H5ClO3", "Melting Point": "171.5-172.5 \u00b0C"}}