{"cas_no": "56962-11-9", "cn_name": "2-\u6c2f-4-\u7f9f\u57fa\u82ef\u7532\u919b", "en_name": ["2-Chloro-4-hydroxybenzaldehyde", "Benzaldehyde, 2-chloro-4-hydroxy-", "2-Chloro-4-hydroxybenzaldehyde", "o-Chloro-p-hydroxybenzaldehyde", "3-Chloro-4-formylphenol"], "SMILES": "C(=O)C1=C(Cl)C=C(O)C=C1", "physical_data": {"Molecular Weight": "156.57", "Molecular Formula": "C7H5ClO2", "Melting Point": "144-145 \u00b0C"}}