{"cas_no": "56961-27-4", "cn_name": "3-\u6eb4-2-\u6c2f\u82ef\u7532\u9178", "en_name": ["3-Bromo-2-chlorobenzoic acid", "Benzoic acid, 3-bromo-2-chloro-", "3-Bromo-2-chlorobenzoic acid"], "SMILES": "C(O)(=O)C1=C(Cl)C(Br)=CC=C1", "physical_data": {"Molecular Weight": "235.46", "Molecular Formula": "C7H4BrClO2", "Melting Point": "168-169 \u00b0C"}}