{"cas_no": "56961-30-9", "cn_name": "2-\u6c2f-5-\u7f9f\u57fa\u82ef\u7532\u9178", "en_name": ["2-Chloro-5-hydroxybenzoic acid", "Benzoic acid, 2-chloro-5-hydroxy-", "2-Chloro-5-hydroxybenzoic acid", "4-Chloro-3-carboxyphenol", "2-Chloro-5-hydroxybenzenecarboxylic acid"], "SMILES": "C(O)(=O)C1=C(Cl)C=CC(O)=C1", "physical_data": {"Molecular Weight": "172.57", "Molecular Formula": "C7H5ClO3", "Melting Point": "168-170 \u00b0C"}}