{"cas_no": "56962-08-4", "cn_name": "4,5-\u4e8c\u6c2f\u82ef\u4e8c\u7532\u9178", "en_name": ["4,5-Dichlorophthalic acid", "1,2-Benzenedicarboxylic acid, 4,5-dichloro-", "4,5-Dichloro-1,2-benzenedicarboxylic acid", "4,5-Dichloro-2-carboxybenzoic acid", "4,5-Dichlorophthalic acid"], "SMILES": "C(O)(=O)C1=C(C(O)=O)C=C(Cl)C(Cl)=C1", "physical_data": {"Molecular Weight": "235.02", "Molecular Formula": "C8H4Cl2O4", "Melting Point": "200 \u00b0C"}}