{"cas_no": "56962-04-0", "cn_name": "3-\u6eb4-5-\u6c2f\u82ef\u915a", "en_name": ["3-Bromo-5-chlorophenol", "Phenol, 3-bromo-5-chloro-", "3-Bromo-5-chlorophenol"], "SMILES": "BrC1=CC(Cl)=CC(O)=C1", "physical_data": {"Molecular Weight": "207.45", "Molecular Formula": "C6H4BrClO", "Boiling Point": "256 \u00b0C", "Melting Point": "70 \u00b0C"}}