{"cas_no": "56961-81-0", "cn_name": "8-\u6c2f-5-\u7532\u57fa\u55b9\u5549", "en_name": ["8-Chloro-5-methylquinoline", "Quinoline, 8-chloro-5-methyl-", "8-Chloro-5-methylquinoline"], "SMILES": "CC=1C2=C(C(Cl)=CC1)N=CC=C2", "physical_data": {"Molecular Weight": "177.63", "Molecular Formula": "C10H8ClN", "Melting Point": "54 \u00b0C"}}