{"cas_no": "56961-25-2", "cn_name": "4-\u6c28\u57fa-3,5-\u4e8c\u6c2f\u82ef\u7532\u9178", "en_name": ["4-Amino-3,5-dichlorobenzoic acid", "Benzoic acid, 4-amino-3,5-dichloro-", "4-Amino-3,5-dichlorobenzoic acid", "3,5-Dichloro-4-aminobenzoic acid", "NSC 100894"], "SMILES": "C(O)(=O)C1=CC(Cl)=C(N)C(Cl)=C1", "physical_data": {"Molecular Weight": "206.03", "Molecular Formula": "C7H5Cl2NO2", "Melting Point": "291 \u00b0C"}}