{"cas_no": "56962-01-7", "cn_name": "3-\u6c28\u57fa-2-\u6c2f\u82ef\u915a", "en_name": ["3-Amino-2-chlorophenol", "Phenol, 3-amino-2-chloro-", "3-Amino-2-chlorophenol", "2-Chloro-3-aminophenol"], "SMILES": "ClC1=C(N)C=CC=C1O", "physical_data": {"Molecular Weight": "143.57", "Molecular Formula": "C6H6ClNO", "Melting Point": "108-110 \u00b0C"}}