{"cas_no": "56973-26-3", "cn_name": "5-\u7f9f\u57fa-1H-\u54aa\u5511-4-\u7532\u9170\u80fa", "en_name": ["5-Hydroxy-1H-imidazole-4-carboxamide", "1H-Imidazole-4-carboxamide, 5-hydroxy-", "5-Hydroxy-1H-imidazole-4-carboxamide", "Bredinin aglycone", "4-Carbamoyl-5-hydroxyimidazole", "5-Hydroxyimidazole 4-carboxamide", "SM 108", "SM 108 (antitumor agent)", "NSC 266026", "FF 10501 free base", "FF 10501-01 free base"], "SMILES": "C(N)(=O)C1=C(O)N=CN1", "physical_data": {"Molecular Weight": "127.10", "Molecular Formula": "C4H5N3O2", "Melting Point": "260 \u00b0C"}}