{"cas_no": "56973-66-1", "cn_name": "9,9'-\u4e8c-O-(E)-\u963f\u9b4f\u9170\u5f00\u73af\u5f02\u843d\u53f6\u677e\u8102\u7d20", "en_name": ["1,1\u2032-[(2R,3R)-2,3-Bis[(4-hydroxy-3-methoxyphenyl)methyl]-1,4-butanediyl] bis[(2E)-3-(4-hydroxy-3-methoxyphenyl)-2-propenoate]", "2-Propenoic acid, 3-(4-hydroxy-3-methoxyphenyl)-, 1,1\u2032-[(2R,3R)-2,3-bis[(4-hydroxy-3-methoxyphenyl)methyl]-1,4-butanediyl] ester, (2E,2\u2032E)-", "2-Propenoic acid, 3-(4-hydroxy-3-methoxyphenyl)-, 2,3-bis[(4-hydroxy-3-methoxyphenyl)methyl]-1,4-butanediyl ester, [R-[R*,R*-(E,E)]]-", "2-Propenoic acid, 3-(4-hydroxy-3-methoxyphenyl)-, (2R,3R)-2,3-bis[(4-hydroxy-3-methoxyphenyl)methyl]-1,4-butanediyl ester, (2E,2\u2032E)-", "1,1\u2032-[(2R,3R)-2,3-Bis[(4-hydroxy-3-methoxyphenyl)methyl]-1,4-butanediyl] bis[(2E)-3-(4-hydroxy-3-methoxyphenyl)-2-propenoate]", "9,9\u2032-O-Di-(E)-feruloyl-(-)-secoisolariciresinol", "1,4-O-Diferuloylsecoisolariciresinol", "9,9\u2032-O-Di-feruloyl-(-)-secoisolariciresinol"], "SMILES": "C(C(CC1=CC(OC)=C(O)C=C1)COC(C=CC2=CC(OC)=C(O)C=C2)=O)(CC3=CC(OC)=C(O)C=C3)COC(C=CC4=CC(OC)=C(O)C=C4)=O", "physical_data": {"Molecular Weight": "714.75", "Molecular Formula": "C40H42O12", "Melting Point": "181 \u00b0C"}}