{"cas_no": "5697-02-9", "cn_name": "2-\u7532\u57fa\u8418\u915a-1-\u4e59\u9178\u916f", "en_name": ["1-Acetoxy-2-methylnaphthalene", "1-Naphthalenol, 2-methyl-, 1-acetate", "1-Naphthol, 2-methyl-, acetate", "1-Naphthalenol, 2-methyl-, acetate", "1-Acetoxy-2-methylnaphthalene", "2-Methyl-1-naphthyl acetate", "2-Methyl-1-naphthol acetate"], "SMILES": "O(C(C)=O)C=1C2=C(C=CC1C)C=CC=C2", "physical_data": {"Molecular Weight": "200.23", "Molecular Formula": "C13H12O2", "Melting Point": "81-82 \u00b0C"}}