{"cas_no": "5697-44-9", "cn_name": "4-\u7532\u82ef\u78fa\u9170\u4e59\u8148", "en_name": ["2-[(4-Methylphenyl)sulfonyl]acetonitrile", "Acetonitrile, 2-[(4-methylphenyl)sulfonyl]-", "Acetonitrile, (p-tolylsulfonyl)-", "Acetonitrile, [(4-methylphenyl)sulfonyl]-", "2-[(4-Methylphenyl)sulfonyl]acetonitrile", "4-Tolylsulfoacetonitrile", "[(4-Methylphenyl)sulfonyl]acetonitrile", "(p-Tolylsulfonyl)acetonitrile", "Cyanomethyl p-tolyl sulfone", "(4-Tolylsulfonyl)acetonitrile", "p-Toluenesulfonylacetonitrile", "NSC 125922", "4-Methylbenzenesulfonylacetonitrile", "Tosylacetonitrile", "2-(4-Methylbenzenesulfonyl)acetonitrile", "2-Tosylacetonitrile", "(Toluene-4-sulfonyl)-acetonitrile"], "SMILES": "S(CC#N)(=O)(=O)C1=CC=C(C)C=C1", "physical_data": {"Molecular Weight": "195.24", "Molecular Formula": "C9H9NO2S", "Melting Point": "149.5-150.5 \u00b0C"}}