{"cas_no": "5697-56-3", "cn_name": "\u7518\u73c0\u9178", "en_name": ["Carbenoxolone", "Olean-12-en-29-oic acid, 3-(3-carboxy-1-oxopropoxy)-11-oxo-, (3\u03b2,20\u03b2)-", "Olean-12-en-30-oic acid, 3\u03b2-hydroxy-11-oxo-, hydrogen succinate", "Olean-12-en-30-oic acid, 3\u03b2-hydroxy-11-oxo-, succinate", "(3\u03b2,20\u03b2)-3-(3-Carboxy-1-oxopropoxy)-11-oxoolean-12-en-29-oic acid", "Biogastrone", "Carbenoxolone", "3\u03b2-Hydroxy-11-oxoolean-12-en-30-oic acid hydrogen succinate", "3-O-(\u03b2-Carboxypropionyl)-11-oxo-18\u03b2-olean-12-en-30-oic acid", "Glycyrrhetinic acid hydrogen succinate", "Glycyrrhetinic acid succinate", "MeSH ID: D002229"], "SMILES": "CC12C(C3(C)C(CC1)C(C)(C)C(OC(CCC(O)=O)=O)CC3)C(=O)C=C4C2(C)CCC5(C)C4CC(C(O)=O)(C)CC5", "physical_data": {"Molecular Weight": "570.76", "Molecular Formula": "C34H50O7", "Melting Point": "292.5 \u00b0C"}}