{"cas_no": "56980-93-9", "cn_name": "\u585e\u5229\u6d1b\u5c14", "en_name": ["Celiprolol", "Urea, N\u2032-[3-acetyl-4-[3-[(1,1-dimethylethyl)amino]-2-hydroxypropoxy]phenyl]-N,N-diethyl-", "N\u2032-[3-Acetyl-4-[3-[(1,1-dimethylethyl)amino]-2-hydroxypropoxy]phenyl]-N,N-diethylurea", "Celiprolol", "Selectol", "dl-Celiprolol", "(R,S)-Celiprolol", "(\u00b1)-Celiprolol", "DL-Celiprolol", "Racemic Celiprolol", "1-[3-Acetyl-4-[3-(tert-butylamino)-2-hydroxypropoxy]phenyl]-3,3-diethylurea", "MeSH ID: D017272"], "SMILES": "O(CC(CNC(C)(C)C)O)C1=C(C(C)=O)C=C(NC(N(CC)CC)=O)C=C1", "physical_data": {"Molecular Weight": "379.49", "Molecular Formula": "C20H33N3O4", "Melting Point": "110-112 \u00b0C"}}