{"cas_no": "5698-98-6", "cn_name": "\u4e19\u70ef\u9178\u9541", "en_name": ["Magnesium acrylate", "2-Propenoic acid, magnesium salt (2:1)", "Acrylic acid, magnesium salt", "Magnesium acrylate", "2-Propenoic acid, magnesium salt", "Magnesium diacrylate", "PRO 5903", "QM 203", "MA 35", "MA 90 (salt)", "MA 90"], "SMILES": "C(C=C)(O)=O.[Mg]", "physical_data": {"Molecular Weight": "", "Molecular Formula": "C3H4O2.<sup>1</sup>/2Mg", "Melting Point": "&gt;220 \u00b0C (decomp)"}}