{"cas_no": "5699-40-1", "cn_name": "N-\u4e59\u9170\u57fa\u80cd", "en_name": ["N-(Aminoiminomethyl)acetamide", "Acetamide, N-(aminoiminomethyl)-", "Acetamide, N-amidino-", "N-(Aminoiminomethyl)acetamide", "Guanidine, acetyl-", "Acetylguanidine", "N-Acetylguanidine", "Acetoguanidine", "1-Acetylguanidine", "N-Carbamimidoylacetamide"], "SMILES": "N(C(C)=O)C(=N)N", "physical_data": {"Molecular Weight": "101.11", "Molecular Formula": "C3H7N3O", "Melting Point": "185 \u00b0C"}}