{"cas_no": "56995-20-1", "cn_name": "\u6c1f\u5421\u6c40", "en_name": ["Flupirtine", "Carbamic acid, N-[2-amino-6-[[(4-fluorophenyl)methyl]amino]-3-pyridinyl]-, ethyl ester", "Carbamic acid, [2-amino-6-[[(4-fluorophenyl)methyl]amino]-3-pyridinyl]-, ethyl ester", "Flupirtine", "Katadolon", "D 9998", "Trancopal Dolo", "Ethyl [2-Amino-6-[(4-fluorobenzyl)amino]pyridin-3-yl]carbamate", "[2-Amino-6-(4-fluoro-benzylamino)-pyridin-3-yl]-carbamic acid ethyl ester"], "SMILES": "N(C(OCC)=O)C1=C(N)N=C(NCC2=CC=C(F)C=C2)C=C1", "physical_data": {"Molecular Weight": "304.32", "Molecular Formula": "C15H17FN4O2", "Melting Point": "115.5 \u00b0C"}}