{"cas_no": "5699-54-7", "cn_name": "3-\u6c28\u57fa-4-\u7532\u57fa\u620a\u9178", "en_name": ["\u03b2-Leucine", "Pentanoic acid, 3-amino-4-methyl-", "Valeric acid, 3-amino-4-methyl-", "3-Amino-4-methylpentanoic acid", "\u03b2-Leucine", "\u03b2-Aminoisocaproic acid", "DL-\u03b2-Leucine", "(\u00b1)-3-Amino-4-methylpentanoic acid"], "SMILES": "C(CC(O)=O)(C(C)C)N", "physical_data": {"Molecular Weight": "131.17", "Molecular Formula": "C6H13NO2", "Melting Point": "197-197.5 \u00b0C"}}