{"cas_no": "56999-16-7", "cn_name": "1,1-\u4e8c\u4e59\u6c27\u57fa-2-(2,2-\u4e8c\u4e59\u6c27\u57fa\u4e59\u6c27\u57fa)\u4e59\u70f7", "en_name": ["1,1\u2032-Oxybis[2,2-diethoxyethane]", "Ethane, 1,1\u2032-oxybis[2,2-diethoxy-", "Diglycolaldehyde, bis(diethyl acetal)", "1,1\u2032-Oxybis[2,2-diethoxyethane]", "2-(2,2-Diethoxyethoxy)-1,1-diethoxyethane"], "SMILES": "C(COCC(OCC)OCC)(OCC)OCC", "physical_data": {"Molecular Weight": "250.33", "Molecular Formula": "C12H26O5", "Boiling Point": "150-155 \u00b0C @ Press: 30 Torr"}}