{"cas_no": "5699-41-2", "cn_name": "N-\u4e59\u9170\u57fa-1,4-\u4e01\u4e8c\u80fa", "en_name": ["N-Acetylputrescine", "Acetamide, N-(4-aminobutyl)-", "N-(4-Aminobutyl)acetamide", "Acetylputrescine", "Monoacetylputrescine", "Putrescine, N-acetyl-", "N-Acetylputrescine", "N1-Acetyl putrescine", "(4-(Acetylamino)butyl)amine"], "SMILES": "C(NC(C)=O)CCCN", "physical_data": {"Molecular Weight": "130.19", "Molecular Formula": "C6H14N2O", "Boiling Point": "162-163 \u00b0C @ Press: 3 Torr"}}