{"cas_no": "56990-02-4", "cn_name": "3,5-\u4e8c\u6eb4\u82ef\u7532\u919b", "en_name": ["3,5-Dibromobenzaldehyde", "Benzaldehyde, 3,5-dibromo-", "3,5-Dibromobenzaldehyde"], "SMILES": "C(=O)C1=CC(Br)=CC(Br)=C1", "physical_data": {"Molecular Weight": "263.91", "Molecular Formula": "C7H4Br2O", "Melting Point": "90 \u00b0C"}}