{"cas_no": "57-06-7", "cn_name": "\u5f02\u786b\u6c30\u9178\u70ef\u4e19\u916f", "en_name": ["Allyl isothiocyanate", "1-Propene, 3-isothiocyanato-", "Isothiocyanic acid, allyl ester", "3-Isothiocyanato-1-propene", "AITC", "Allyl isothiocyanate", "2-Propenyl isothiocyanate", "Redskin", "Oleum sinapis", "Allylsevenolum", "Senfoel", "Carbospol", "Allyl thioisocyanate", "Allyspol", "Allyspol 75EC", "NSC 5572", "Wasaouro EXT", "Wasaouro"], "SMILES": "C(N=C=S)C=C", "physical_data": {"Molecular Weight": "99.15", "Molecular Formula": "C4H5NS", "Boiling Point": "148-154 \u00b0C", "Melting Point": "-80 \u00b0C", "Density": "1.013-1.020 g/cm\u00b3"}}