{"cas_no": "57-09-0", "cn_name": "\u5341\u516d\u70f7\u57fa\u4e09\u7532\u57fa\u6eb4\u5316\u94f5", "en_name": ["Hexadecyltrimethylammonium bromide", "1-Hexadecanaminium, N,N,N-trimethyl-, bromide (1:1)", "Ammonium, hexadecyltrimethyl-, bromide", "1-Hexadecanaminium, N,N,N-trimethyl-, bromide", "Hexadecyltrimethylammonium bromide", "Cetrimonium bromide", "n-Hexadecyltrimethylammonium bromide", "N-Hexadecyl-N,N,N-trimethylammonium bromide", "Trimethylcetylammonium bromide", "Trimethylhexadecylammonium bromide", "1-Hexadecyltrimethylammonium bromide", "N-Cetyltrimethylammonium bromide", "Cirrasol OD", "CTAB", "Pollacid", "Bromat", "Micol", "Quamonium", "Lissolamine A", "Acetoquat CTAB", "N,N,N-Trimethyl-1-hexadecanaminium bromide", "Lissolamine", "Softex KW", "Hexadecyltrimethylamine bromide", "N-Cetyl-N,N,N-trimethylammonium bromide", "N,N,N-Trimethylhexadecylammonium bromide", "Palmityltrimethylammonium bromide", "Lauroseptol", "HTAB", "CTMB", "CTMAB", "BCTA", "Arquad 16/60", "HDTMA-Br", "Rhodaquat M 242B99", "Varisoft CTB 40", "N,N,N-Trimethylhexadecan-1-ammonium bromide", "CTABr", "Accelerator DT 3126-1", "Cetyltrimethylammonium bromide", "Hexadecanyltrimethylammonium bromide", "Catinal HTB 70ET", "ZYS 08", "C16TAB", "Cetremide", "Accelerator 1631", "V 800113", "H 0081", "1165MP", "200MP", "S 15001"], "SMILES": "C(CCCCCCCCCCCCC)CC[N+](C)(C)C.[Br-]", "physical_data": {"Molecular Weight": "", "Molecular Formula": "C19H42N.Br", "Melting Point": "240 \u00b0C", "Density": "2.24 g/cm\u00b3"}}