{"cas_no": "57-00-1", "cn_name": "\u808c\u9178", "en_name": ["Creatine", "Glycine, N-(aminoiminomethyl)-N-methyl-", "Creatine", "N-(Aminoiminomethyl)-N-methylglycine", "N-Methyl-N-guanylglycine", "Methylguanidoacetic acid", "Phosphagen", "NSC 8752", "Cosmocair C 100", "Tego Cosmo C 100", "Neotine", "Kre-Alkalyn", "[N-(Amidino)-N-methylamino]acetic acid", "2-(1-Methylguanidino)acetic acid", "(N-Methyl-guanidino)-acetic acid", "2-[(C-Azaniumylcarbonimidoyl)-methylamino]acetate", "2-(N-Methylcarbamimidamido)acetic acid", "MeSH ID: D003401"], "SMILES": "N(CC(O)=O)(C(=N)N)C", "physical_data": {"Molecular Weight": "131.13", "Molecular Formula": "C4H9N3O2", "Melting Point": "303 \u00b0C (decomp)"}}