{"cas_no": "57-08-9", "cn_name": "6-\u4e59\u9170\u6c28\u57fa\u5df1\u9178", "en_name": ["Acexamic acid", "Hexanoic acid, 6-(acetylamino)-", "Hexanoic acid, 6-acetamido-", "6-(Acetylamino)hexanoic acid", "Acexamic acid", "6-Acetamidohexanoic acid", "\u03b5-Acetamidocaproic acid", "6-Acetamidocaproic acid", "N-Acetyl-\u03b5-aminocaproic acid", "N-Acetyl-6-aminohexanoic acid", "Acemin", "CY 153", "Acetaminocaproic acid", "NSC 12945"], "SMILES": "C(CC(O)=O)CCCNC(C)=O", "physical_data": {"Molecular Weight": "173.21", "Molecular Formula": "C8H15NO3", "Boiling Point": "182-183 \u00b0C @ Press: 8 Torr", "Melting Point": "104.5 \u00b0C"}}