{"cas_no": "57-03-4", "cn_name": "\u7518\u6cb9\u78f7\u9178\u916f", "en_name": ["DL-\u03b1-Glycerol phosphate", "1,2,3-Propanetriol, 1-(dihydrogen phosphate)", "Glycerol, 1-(dihydrogen phosphate)", "DL-\u03b1-Glycerophosphoric acid", "DL-Glycerol 1-phosphate", "DL-\u03b1-Glyceryl phosphate", "DL-Glycerol 3-phosphate", "DL-\u03b1-Glycerophosphate", "DL-\u03b1-Glycerol phosphate", "D,L-\u03b1-Glycerol-phosphate", "Glycerol-3-phosphate", "D,L-Glycerol phosphate", "Glycerol-1-phosphate"], "SMILES": "C(C(CO)O)OP(=O)(O)O", "physical_data": {"Molecular Weight": "172.07", "Molecular Formula": "C3H9O6P", "Melting Point": "-25 \u00b0C"}}