{"cas_no": "57-10-3", "cn_name": "\u68d5\u6988\u9178", "en_name": ["Palmitic acid", "Hexadecanoic acid", "Palmitic acid", "n-Hexadecoic acid", "1-Pentadecanecarboxylic acid", "Pentadecanecarboxylic acid", "n-Hexadecanoic acid", "Palmitinic acid", "Prifac 2960", "Hydrofol Acid 1690", "PA 900", "Neo-Fat 16", "Lunac P 95KC", "Emersol 143", "Cetylic acid", "Hystrene 9016", "NAA 160", "Kortacid 1698", "Lunac P 95", "Loxiol EP 278", "FA 1695", "NSC 5030", "Edenor C16", "Pristerene 4934", "Lunac P 98", "V 1695", "Kortacid 1695", "A 1600", "Edenor C 16-98-100", "Palmac 98-16", "Imex C 1498", "Palmitates", "Cetostearic acid", "(E)-[p-((1,2-Dihydroxypropyloxy)-p\u2032-(propargyloxy)] azobenzene", "Edenor C16-98MY", "PS 1618", "Vetec", "Palmera A 9816", "LR 012", "MeSH ID: D019308"], "SMILES": "C(CCCCCCCCCC)CCCCC(O)=O", "physical_data": {"Molecular Weight": "256.42", "Molecular Formula": "C16H32O2", "Boiling Point": "351.5 \u00b0C", "Melting Point": "61.8 \u00b0C", "Density": "0.8527 g/cm\u00b3 @ Temp: 62 \u00b0C"}}