{"cas_no": "57-14-7", "cn_name": "1,1-\u4e8c\u7532\u57fa\u80bc", "en_name": ["1,1-Dimethylhydrazine", "Hydrazine, 1,1-dimethyl-", "1,1-Dimethylhydrazine", "Dimazine", "N,N-Dimethylhydrazine", "UDMH", "Unsymmetrical dimethylhydrazine", "u-Dimethylhydrazine", "unsym-Dimethylhydrazine", "Dimazin", "as-Dimethylhydrazine", "gem-Dimethylhydrazine", "NSC 60517", "Heptyl"], "SMILES": "N(C)(C)N", "physical_data": {"Molecular Weight": "60.10", "Molecular Formula": "C2H8N2", "Boiling Point": "63.9 \u00b0C @ Press: 760 Torr", "Melting Point": "-58 \u00b0C", "Density": "0.791 g/cm\u00b3 @ Temp: 22 \u00b0C"}}