{"cas_no": "57-13-6", "cn_name": "\u5c3f\u7d20", "en_name": ["Urea", "Urea", "Carbamide", "UR", "Isourea", "Carbamimidic acid", "Carbonyl diamide", "Urevert", "Ureaphil", "Ureophil", "Pseudourea", "B-I-K", "Varioform II", "Benural 70", "Urepearl", "Urea perhydrate", "Urepeal", "Keratinamin Kowa", "Pastaron", "Pastaron 20", "Pastaron 20 soft", "Urepeal L", "Pastaron 10", "Eucerin 10% Urea Lotion", "Optigen 1200", "Aquacare", "Basodexan", "Keratinamin", "Aquadrate", "Hyanit", "Elaqua XX", "Onychomal", "Nutraplus", "NSC 34375", "Pastaron soft", "Rubinol ST 010", "Carmol 40", "SGN 250", "Uroderm", "Ultra Low Biuret Urea", "Low Biuret Urea", "Duration III", "ESN", "Optigen II", "Uria", "Cellton NP", "Cellpaste K 4", "AUS 32", "Onyster", "Diesel exhaust fluid", "DEF", "DEF (diesel exhaust fluid)", "AdBlue", "U 6504", "GS 013", "HY 741", "SP-AD 0052", "MeSH ID: D014508"], "SMILES": "C(N)(N)=O", "physical_data": {"Molecular Weight": "60.06", "Molecular Formula": "CH4N2O", "Boiling Point": "317-389 \u00b0C", "Melting Point": "132.70 \u00b0C", "Density": "1.3230 g/cm\u00b3 @ Temp: 20 \u00b0C"}}