{"cas_no": "57-15-8", "cn_name": "\u4e09\u6c2f\u53d4\u4e01\u9187", "en_name": ["Chlorobutanol", "2-Propanol, 1,1,1-trichloro-2-methyl-", "1,1,1-Trichloro-2-methyl-2-propanol", "Acetone chloroform", "Anhydrous chlorobutanol", "Chlorbutanol", "Chlorbutol", "Chloretone", "Chlorobutanol", "Clortran", "Methaform", "Sedaform", "Trichloro-tert-butyl alcohol", "1,1,1-Trichloro-tert-butyl alcohol", "2-(Trichloromethyl)-2-propanol", "\u03b2,\u03b2,\u03b2-Trichloro-tert-butyl alcohol", "Acetonchloroform", "Chloreton", "Dentalone", "Khloreton", "Acetochlorone", "Chlortran", "2,2,2-Trichloro-1,1-dimethylethanol", "Trichlorobutanol", "Coliquifilm", "NSC 44794", "NSC 4596", "NSC 5208", "MeSH ID: D002724"], "SMILES": "C(C(Cl)(Cl)Cl)(C)(C)O", "physical_data": {"Molecular Weight": "177.46", "Molecular Formula": "C4H7Cl3O", "Boiling Point": "167 \u00b0C", "Melting Point": "97 \u00b0C"}}