{"cas_no": "57-24-9", "cn_name": "\u9a6c\u94b1\u5b50\u78b1", "en_name": ["Strychnine", "Strychnidin-10-one", "Strychnine", "4,6-Methano-6H,14H-indolo[3,2,1-ij]oxepino[2,3,4-de]pyrrolo[2,3-h]quinoline, strychnidin-10-one deriv.", "Strychnin", "(-)-Strychnine", "NSC 5365", "Certox", "MeSH ID: D013331"], "SMILES": "O=C1N2C3C4(C5N(CC4)CC=6C(C3C(C1)OCC6)C5)C=7C2=CC=CC7", "physical_data": {"Molecular Weight": "334.41", "Molecular Formula": "C21H22N2O2", "Boiling Point": "270 \u00b0C @ Press: 5 Torr", "Melting Point": "287 \u00b0C", "Density": "1.36 g/cm\u00b3 @ Temp: 20 \u00b0C"}}