{"cas_no": "57-22-7", "cn_name": "\u957f\u6625\u65b0\u78b1", "en_name": ["(+)-Vincristine", "Vincaleukoblastine, 22-oxo-", "Leurocristine", "2H-3,7-Methanoazacycloundecino[5,4-b]indole, vincaleukoblastine deriv.", "1H-Indolizino[8,1-cd]carbazole, vincaleukoblastine deriv.", "22-Oxovincaleukoblastine", "Vincristine", "Vinkristin", "VCR", "LCR", "Vincristin", "Leucristine", "OncoTCS", "(+)-Vincristine", "Alcrist", "Cyctocristine", "Biocristin", "Vinlon", "Vinstin", "Vincryst", "Oncocristin-AQ", "Vinchristine", "MeSH ID: D014750"], "SMILES": "C(C)C12C3C4(C(C(C(OC)=O)(O)C1OC(C)=O)N(C=O)C=5C4=CC(=C(OC)C5)C6(C(OC)=O)C7=C(C=8C(N7)=CC=CC8)CCN9CC(C6)CC(CC)(O)C9)CCN3CC=C2", "physical_data": {"Molecular Weight": "824.96", "Molecular Formula": "C46H56N4O10", "Melting Point": "218-220 \u00b0C"}}