{"cas_no": "57-39-6", "cn_name": "\u4e09(2-\u7532\u57fa\u6c2e\u4e19\u5576)\u6c27\u5316\u81a6", "en_name": ["Metepa", "Aziridine, 1,1\u2032,1\u2032\u2032-phosphinylidynetris[2-methyl-", "Phosphine oxide, tris(2-methyl-1-aziridinyl)-", "1,1\u2032,1\u2032\u2032-Phosphinylidynetris[2-methylaziridine]", "EMT 50003", "MAPO", "Metapoxide", "Metepa", "Methaphoxide", "Methyl aphoxide", "Tris(2-methyl-1-aziridinyl)phosphine oxide", "Tris(methylaziridinyl)phosphine oxide", "Tris(1,2-propylene)phosphoramide", "Tris(2-methylaziridinyl)phosphine oxide", "Trimethylaziridinylphosphine oxide", "Metapa", "MAPO (chemosterilant)", "NSC 54054"], "SMILES": "P(=O)(N1C(C)C1)(N2C(C)C2)N3C(C)C3", "physical_data": {"Molecular Weight": "215.23", "Molecular Formula": "C9H18N3OP", "Boiling Point": "91 \u00b0C", "Melting Point": "&lt;25 \u00b0C"}}