{"cas_no": "57-37-4", "cn_name": "\u4e59\u80fa\u75c9\u5e73", "en_name": ["Benactyzine hydrochloride", "Benzeneacetic acid, \u03b1-hydroxy-\u03b1-phenyl-, 2-(diethylamino)ethyl ester, hydrochloride (1:1)", "Benzilic acid, 2-(diethylamino)ethyl ester hydrochloride", "Benzeneacetic acid, \u03b1-hydroxy-\u03b1-phenyl-, 2-(diethylamino)ethyl ester, hydrochloride", "Ethanol, 2-diethylamino-, benzilate-HCl", "AY 5406-1", "Amisyl", "Amizyl", "Amyzyl", "Benactyzine hydrochloride", "Cafron", "Cevanol", "\u03b2-Diethylaminoethyl benzilate hydrochloride", "2-Diethylaminoethyl benzilate hydrochloride", "2-Diethylaminoethyl diphenylglycolate hydrochloride", "Lucidil", "Nervacton", "Nutinal", "Parasan", "Parpon", "Phobex", "Suavitil", "Amizil", "Benactyzine chloride", "Aktozin", "Amitakon", "Arkadin", "Benaktin", "Valladon", "Katron", "Leucidil", "Neuraktil", "Neurobenzil", "Nervatil", "Parazan", "Prokalm", "Stoikon", "Tranquillin", "Fobex", "Cedad", "AY 5406", "Destendo", "Valladan", "Procalm", "Win 5606", "Ibiotyzil", "Arcadine", "Neuroleptone", "Actozine"], "SMILES": "C(C(OCCN(CC)CC)=O)(O)(C1=CC=CC=C1)C2=CC=CC=C2.Cl", "physical_data": {"Molecular Weight": "", "Molecular Formula": "C20H25NO3.ClH", "Melting Point": "177-178 \u00b0C"}}