{"cas_no": "57-33-0", "cn_name": "\u620a\u5df4\u6bd4\u59a5\u94a0", "en_name": ["Pentobarbital sodium", "2,4,6(1H,3H,5H)-Pyrimidinetrione, 5-ethyl-5-(1-methylbutyl)-, sodium salt (1:1)", "Barbituric acid, 5-ethyl-5-(1-methylbutyl)-, sodium salt", "2,4,6(1H,3H,5H)-Pyrimidinetrione, 5-ethyl-5-(1-methylbutyl)-, monosodium salt", "844", "Barpental", "Embutal", "Isobarb", "Mebubarbital sodium", "Napental", "Nembutal sodium", "Pental", "Pentobarbital sodium", "Pentobarbitone sodium", "Pentone", "Sagatal", "Sodium ethaminal", "Sodium 5-ethyl-5-(1-methylbutyl)barbiturate", "Sodium nembutal", "Sodium-Pent", "Sodium pentobarbital", "Sodium pentobarbitone", "Sodium pentobarbiturate", "Soluble pentobarbital", "Sopental", "Sotyl", "Ethaminal sodium", "5-Ethyl-5-(1-methylbutyl) barbituric acid sodium salt", "Diabutal", "Vetbutal", "Mebumal sodium", "Pacifan", "Etaminal sodium", "Pentonal", "Auropan", "Euthatal", "Somnopentyl", "Biosedan", "Butylone", "V-Pento", "Mebunat", "Euthanyl", "RS-Pentobarbital sodium", "Praecicalm", "Narcoren", "Somnotol", "NSC 10816", "Sodium pental", "Entobar"], "SMILES": "C(CCC)(C)C1(CC)C(=O)NC(=O)NC1=O.[Na]", "physical_data": {"Molecular Weight": "", "Molecular Formula": "C11H18N2O3.Na", "Melting Point": "127 \u00b0C (decomp)"}}