{"cas_no": "57-43-2", "cn_name": "\u5f02\u620a\u5df4\u6bd4\u59a5", "en_name": ["Amobarbital", "2,4,6(1H,3H,5H)-Pyrimidinetrione, 5-ethyl-5-(3-methylbutyl)-", "Barbituric acid, 5-ethyl-5-isopentyl-", "5-Ethyl-5-(3-methylbutyl)-2,4,6(1H,3H,5H)-pyrimidinetrione", "Amobarbital", "Amospan", "Amylobarbitone", "Amytal", "Binoctal", "Dormytal", "5-Ethyl-5-isoamylbarbituric acid", "5-Ethyl-5-isopentylbarbituric acid", "5-Ethyl-5-(3-methylbutyl)barbituric acid", "Eunoctal", "Isoamylethylbarbituric acid", "5-Isoamyl-5-ethylbarbituric acid", "Isomytal", "Pentymal", "Schiwanox", "Somnal", "Stadadorm", "Amylobarbital", "Amylbarbitone", "Pentymalum", "Dorlotyn", "Amal", "Mylodorm", "Sednotic", "Amasust", "Amobarbitone", "Barbamyl acid", "Sumital", "Robarb", "Amybal", "Ethylisopentylbarbituric acid", "Amital", "Isomyl", "Isopentobarbital", "NSC 10815", "NSC 120800", "NSC 32406", "MeSH ID: D000654"], "SMILES": "C(CC(C)C)C1(CC)C(=O)NC(=O)NC1=O", "physical_data": {"Molecular Weight": "226.27", "Molecular Formula": "C11H18N2O3", "Melting Point": "156-158 \u00b0C"}}