{"cas_no": "57-48-7", "cn_name": "D-\u679c\u7cd6", "en_name": ["Fructose", "D-Fructose", "Fructose, D-", "D-arabino-2-Hexulose", "Levulose", "D-(-)-Levulose", "Fructose", "Sugar, fruit", "Fruit sugar", "Furucton", "D-(-)-Fructose", "Nevulose", "Hi-Fructo 970", "Krystar 300", "Krystar", "Fujifructo L 95", "Advantose FS 95", "Hi-Fructo M 75", "Hi-Fructo F", "NF 55", "HFD 95", "FF 95", "FF 100 (sugar)", "FF 100"], "SMILES": "C(C(C(CO)=O)O)(C(CO)O)O", "physical_data": {"Molecular Weight": "180.16", "Molecular Formula": "C6H12O6", "Melting Point": "91-95 \u00b0C", "Density": "1.580 g/cm\u00b3 @ Temp: -5 \u00b0C"}}