{"cas_no": "57-47-6", "cn_name": "\u6bd2\u6241\u8c46\u78b1", "en_name": ["(-)-Physostigmine", "Pyrrolo[2,3-b]indol-5-ol, 1,2,3,3a,8,8a-hexahydro-1,3a,8-trimethyl-, 5-(N-methylcarbamate), (3aS,8aR)-", "Physostigmine", "Pyrrolo[2,3-b]indol-5-ol, 1,2,3,3a,8,8a-hexahydro-1,3a,8-trimethyl-, methylcarbamate (ester), (3aS-cis)-", "Pyrrolo[2,3-b]indol-5-ol, 1,2,3,3a,8,8a-hexahydro-1,3a,8-trimethyl-, methylcarbamate (ester), (3aS,8aR)-", "Eserine", "(-)-Eserine", "Esromiotin", "Physostol", "(-)-Physostigmine", "NIH 10421", "MCV 4484", "Cogmine", "NSC 30782", "MeSH ID: D010830"], "SMILES": "CC12C=3C(N(C)C1N(C)CC2)=CC=C(OC(NC)=O)C3", "physical_data": {"Molecular Weight": "275.35", "Molecular Formula": "C15H21N3O2", "Melting Point": "105.5 \u00b0C"}}