{"cas_no": "57-41-0", "cn_name": "\u82ef\u59a5\u82f1", "en_name": ["Phenytoin", "2,4-Imidazolidinedione, 5,5-diphenyl-", "Hydantoin, 5,5-diphenyl-", "5,5-Diphenyl-2,4-imidazolidinedione", "Denyl", "Dihycon", "Di-Lan", "Dintoina", "Diphantoin", "Diphedan", "Diphenylhydantoin", "DPH", "Hidantal", "Lepitoin", "Phenytoin", "Sodanton", "Zentropil", "Aleviatin", "Di-Hydan", "Dilabid", "Phenytoine", "5,5-Diphenylhydantoin", "Diphenylan", "Lehydan", "Hydantol", "Ekko", "NSC 8722", "Diphenat", "5,5-Diphenyl-1H-imidazolidine-2,4-dione", "Phenytek", "5,5-Diphenylimidazoline-2,4-dione", "Phenytoinum", "Phenytin", "Ipanten", "MeSH ID: D010672"], "SMILES": "O=C1C(NC(=O)N1)(C2=CC=CC=C2)C3=CC=CC=C3", "physical_data": {"Molecular Weight": "252.27", "Molecular Formula": "C15H12N2O2", "Melting Point": "286 \u00b0C", "Density": "1.26 g/cm\u00b3"}}