{"cas_no": "57-53-4", "cn_name": "\u7532\u4e19\u6c28\u916f", "en_name": ["Meprobamate", "1,3-Propanediol, 2-methyl-2-propyl-, 1,3-dicarbamate", "1,3-Propanediol, 2-methyl-2-propyl-, dicarbamate", "Andaxin", "Apascil", "Atraxin", "Biobamat", "Calmiren", "Canquil-400", "Cirpon", "Cyrpon", "Dicandiol", "2,2-Di(carbamoyloxymethyl)pentane", "Ecuanil", "Equanil", "Equanil Suspension", "Harmonin", "Mepantin", "Mepavlon", "Meprobamate", "Meproban", "Meprocon CMC", "Meprosin", "Meprospan", "Meprotabs", "Meprotan", "2-Methyl-2-n-propyl-1,3-propanediol dicarbamate", "2-Methyl-2-propyl-1,3-propanediol dicarbamate", "Miltaun", "Miltown", "Nervonus", "Oasil", "Panediol", "Perequil", "Perquietil", "Pertranquil", "Placidon", "Probamyl", "Procalmadiol", "Promate", "Quanil", "Sedazil", "Urbil", "Vio-Bamate", "Tranquilan", "Carbamic acid 2-methyl-2-propyltrimethylene ester", "Procalmidol", "Anastress", "Aneural", "Arcoban", "Artolon", "Ayeramate", "Bamo 400", "Biobamate", "Calmax", "Cap-O-Tran", "Crestanil", "Equinil", "Fas-Cile 200", "Gadexyl", "Hartol", "Holbamate", "Kesso-Bamate", "Klort", "Larten", "Lepetown", "Libiolan", "Mar-Bate", "Meposed", "Meprin (meprobamate)", "Meprindon", "Meprocompren", "Meprol", "Meprotil", "Meptran", "Mesmar", "Morbam", "Placitate", "Protran", "Quaname", "Reostral", "Restenil", "Robamate", "Seril", "Setran", "Sowell", "Tamate", "Trankvilan", "Tranlisant", "Tranquilax", "Urbilat", "Carbaxin", "Meprobamat", "Amepromat", "Anatimon", "Ansiatan", "Diron", "Anzil", "Rastenil", "Sedanil", "Mepronil", "Metranquil", "Tranquiline", "Meprobam", "Appetrol", "PMB 400", "Miltrate", "My-trans", "Mepr", "Amosene", "Milprem", "Meproten", "PMB 200", "Micrainin", "NSC 30418", "Microbamat", "Meprobamat-Petrasch", "Epikur", "Carb-A-Med", "2-Methyl-2-propyltrimethylene dicarbamate", "MeSH ID: D008620"], "SMILES": "C(COC(N)=O)(COC(N)=O)(CCC)C", "physical_data": {"Molecular Weight": "218.25", "Molecular Formula": "C9H18N2O4", "Boiling Point": "200-210 \u00b0C", "Melting Point": "104-106 \u00b0C", "Density": "1.247 g/cm\u00b3"}}