{"cas_no": "57-57-8", "cn_name": "\u03b2-\u4e19\u5185\u916f", "en_name": ["\u03b2-Propiolactone", "2-Oxetanone", "Hydracrylic acid, \u03b2-lactone", "Betaprone", "BPL", "Propanolide", "Propiolactone", "\u03b2-Propiolactone", "\u03b2-Propionolactone", "Propanoic acid, 3-hydroxy-, \u03b2-lactone", "1,3-Propiolactone", "3-Hydroxypropionic acid lactone", "3-Propanolide", "3-Propiolactone", "NSC 21626", "MeSH ID: D011420"], "SMILES": "O=C1CCO1", "physical_data": {"Molecular Weight": "72.06", "Molecular Formula": "C3H4O2", "Boiling Point": "61 \u00b0C @ Press: 20 Torr", "Melting Point": "-33.4 \u00b0C", "Density": "1.1460 g/cm\u00b3 @ Temp: 20 \u00b0C"}}