{"cas_no": "57-56-7", "cn_name": "\u6c28\u57fa\u8132", "en_name": ["Semicarbazide", "Hydrazinecarboxamide", "Isosemicarbazide", "Carbamic acid, hydrazide", "Carbazamide", "Urea, amino-", "Hydrazine, (aminocarbonyl)-", "Carbazimidic acid", "Semicarbazide", "Carbamylhydrazine", "Aminourea"], "SMILES": "C(NN)(N)=O", "physical_data": {"Molecular Weight": "75.07", "Molecular Formula": "CH5N3O", "Melting Point": "243 \u00b0C"}}