{"cas_no": "57-55-6", "cn_name": "\u4e19\u4e8c\u9187", "en_name": ["(\u00b1)-Propylene glycol", "1,2-Propanediol", "PG 12", "1,2-Dihydroxypropane", "Methylethylene glycol", "Monopropylene glycol", "Propylene glycol", "\u03b1-Propylene glycol", "1,2-Propylene glycol", "Sirlene", "2,3-Propanediol", "Methylethyl glycol", "2-Hydroxypropanol", "Isopropylene glycol", "Solar Winter Ban", "Ucar 35", "Solargard P", "Dowfrost", "1000PG", "DL-1,2-Propanediol", "dl-Propylene glycol", "(\u00b1)-Propylene glycol", "(\u00b1)-1,2-Propanediol", "(RS)-1,2-Propanediol", "1,2-(RS)-Propanediol", "NSC 69860", "Adeka Propylene Glycol PG-P", "PG-T (glycol)", "PG-T", "Adeka PG", "ProGlyc 55", "Safewing MP-I 1938", "Safewing MP-IV 2001", "DC 403", "Nybrine NFP", "Kilfrost ABC-S", "Propyless", "Kollisolv PG", "HCH 195", "Susterra PDO", "Kilfrost ABC K Plus", "Kilfrost DF K Plus", "BS 12", "Radianol 4713", "Radianol 4710", "EVO 100", "Z-T 10", "MeSH ID: D019946"], "SMILES": "C(CO)(C)O", "physical_data": {"Molecular Weight": "76.09", "Molecular Formula": "C3H8O2", "Boiling Point": "188.2 \u00b0C", "Melting Point": "-59 \u00b0C", "Density": "1.036 g/cm\u00b3 @ Temp: 25 \u00b0C"}}