{"cas_no": "57-50-1", "cn_name": "\u8517\u7cd6", "en_name": ["Sucrose", "\u03b1-D-Glucopyranoside, \u03b2-D-fructofuranosyl", "Sucrose", "\u03b2-D-Fructofuranosyl \u03b1-D-glucopyranoside", "Cane sugar", "Confectioner's sugar", "Granulated sugar", "Rock candy", "Saccharose", "Saccharum", "Sugar", "D-Sucrose", "White sugar", "Beet sugar", "Microse", "Amerfond", "D-(+)-Saccharose", "D-(+)-Sucrose", "Sucralox", "Manalox AS", "(+)-Sucrose", "GNE 410", "NSC 406942", "Frost Sugar", "Carrare C 10", "Khandsari", "\u03b1-D-Glucosyl-\u03b2-D-fructofuranoside", "Sucrose NF", "Compressuc", "S 67F", "Pharma-a-spheres 20/25", "Granulite Sugar CIG", "MGP", "MGP (sugar)", "Tootsweet", "Nitto Hi-Sweet Deluxe", "Nitto hydriodide-Sweet Deluxe", "2-[3,4-Dihydroxy-2,5-bis(hydroxymethyl)oxolan-2-yl]oxy-6-(hydroxymethyl)oxane-3,4,5-triol", "GHC 1", "(2R,3R,4S,5S,6R)-2-[(2S,3S,4S,5R)-3,4-Dihydroxy-2,5-bis(hydroxymethyl)tetrahydrofuran-2-yl]oxy-6-(hydroxymethyl)tetrahydropyran-3,4,5-triol", "Frost Sugar FS 2", "Demerara", "Sugar ARD", "Sucrene SR 80/100", "Sucre semoule surfine 250", "sugar", "MeSH ID: D013395"], "SMILES": "O(C1(CO)OC(CO)C(O)C1O)C2OC(CO)C(O)C(O)C2O", "physical_data": {"Molecular Weight": "342.30", "Molecular Formula": "C12H22O11", "Melting Point": "185.5 \u00b0C", "Density": "1.5805 g/cm\u00b3 @ Temp: 17 \u00b0C"}}