{"cas_no": "57-64-7", "cn_name": "\u5421\u54af\u4ed6\u5c3c\u6742\u8d28A", "en_name": ["(-)-Physostigmine salicylate", "Benzoic acid, 2-hydroxy-, compd. with (3aS,8aR)-1,2,3,3a,8,8a-hexahydro-1,3a,8-trimethylpyrrolo[2,3-b]indol-5-yl N-methylcarbamate (1:1)", "Physostigmine salicylate", "Physostigmine, monosalicylate", "Benzoic acid, 2-hydroxy-, compd. with (3aS-cis)-1,2,3,3a,8,8a-hexahydro-1,3a,8-trimethylpyrrolo[2,3-b]indol-5-yl methylcarbamate (1:1)", "Benzoic acid, 2-hydroxy-, compd. with (3aS,8aR)-1,2,3,3a,8,8a-hexahydro-1,3a,8-trimethylpyrrolo[2,3-b]indol-5-yl methylcarbamate (1:1)", "Salicylic acid, compd. with physostigmine (1:1)", "Pyrrolo[2,3-b]indol-5-ol, 1,2,3,3a,8,8a-hexahydro-1,3a,8-trimethyl-, methylcarbamate (ester), (3aS-cis)-, mono(2-hydroxybenzoate) (salt)", "Pyrrolo[2,3-b]indol-5-ol, 1,2,3,3a,8,8a-hexahydro-1,3a,8-trimethyl-, methylcarbamate (ester), (3aS,8aR)-, mono(2-hydroxybenzoate) (salt)", "Eserine salicylate", "(-)-Physostigmine salicylate", "Isopto Eserine"], "SMILES": "CC12C=3C(N(C)C1N(C)CC2)=CC=C(OC(NC)=O)C3.C(O)(=O)C1=C(O)C=CC=C1", "physical_data": {"Molecular Weight": "", "Molecular Formula": "C15H21N3O2.C7H6O3", "Melting Point": "150.1 \u00b0C"}}