{"cas_no": "57-68-1", "cn_name": "\u78fa\u80fa\u4e8c\u7532\u5627\u5576", "en_name": ["Sulfamethazine", "Benzenesulfonamide, 4-amino-N-(4,6-dimethyl-2-pyrimidinyl)-", "Sulfanilamide, N1-(4,6-dimethyl-2-pyrimidinyl)-", "4-Amino-N-(4,6-dimethyl-2-pyrimidinyl)benzenesulfonamide", "Azolmetazin", "Cremomethazine", "Diazil", "N1-(4,6-Dimethyl-2-pyrimidinyl)sulfanilamide", "N1-(4,6-Dimethyl-2-pyrimidyl)sulfanilamide", "4,6-Dimethyl-2-sulfanilamidopyrimidine", "Dimezathine", "Mermeth", "Neazina", "Pirmazin", "Sulfadimerazine", "Sulfadimesine", "Sulfadimethyldiazine", "Sulfadimethylpyrimidine", "Sulfadimezine", "Sulfadimidine", "Sulfadine", "Sulfamethazine", "Sulfamethiazine", "2-Sulfanilamido-4,6-dimethylpyrimidine", "Sulfodimesin", "Sulphadimethylpyrimidine", "Sulphadimidine", "Vertolan", "Sulfodimezine", "Superseptil", "Spanbolet", "Superseptyl", "Sulfadimesin", "A 502", "Sulphamethasine", "2-(p-Aminobenzenesulfonamido)-4,6-dimethylpyrimidine", "N-(4,6-Dimethyl-2-pyrimidyl)sulfanilamide", "Sulphamethazine", "Sulfadimezin", "Sulphodimezine", "Sulfadimidin", "Kelametazine", "Diazyl", "Sulphamezathine", "Sulphamidine", "Neasina", "2-(4-Aminobenzenesulfonamido)-4,6-dimethylpyrimidine", "BN 2409", "Calfspan", "S-Dimidine", "SulfaSURE SR Bolus", "Sulka K Boluses", "Dimidin R", "DiazilSulfadine", "Calfspan Tablets", "NSC 67457", "NSC 683529", "Sustain III", "Panazin", "2-(4-Aminobenzenesulfonylamino)-4,6-dimethylpyrimidine", "4-Amino-N-(4,6-dimethylpyrimidin-2-yl)benzenesulfonamide", "SMZ", "MeSH ID: D013418"], "SMILES": "S(NC=1N=C(C)C=C(C)N1)(=O)(=O)C2=CC=C(N)C=C2", "physical_data": {"Molecular Weight": "278.33", "Molecular Formula": "C12H14N4O2S", "Melting Point": "198.5 \u00b0C", "Density": "1.4655 g/cm\u00b3"}}