{"cas_no": "57-66-9", "cn_name": "\u4e19\u78fa\u8212", "en_name": ["Probenecid", "Benzoic acid, 4-[(dipropylamino)sulfonyl]-", "Benzoic acid, p-(dipropylsulfamoyl)-", "4-[(Dipropylamino)sulfonyl]benzoic acid", "Benemid", "p-(Dipropylsulfamoyl)benzoic acid", "p-(Dipropylsulfamyl)benzoic acid", "Probecid", "Probenecid", "Probenecid acid", "4-(Dipropylsulfamoyl)benzoic acid", "Proben", "Benecid", "Apurina", "Synergid R", "Tubophan", "Benuryl", "Uricosid", "Prolongine", "4-(N,N-Dipropylaminosulfonyl)benzoic acid", "NSC 18786", "4-(N,N-Dipropylsulfamoyl)benzoic acid", "MeSH ID: D011339"], "SMILES": "S(N(CCC)CCC)(=O)(=O)C1=CC=C(C(O)=O)C=C1", "physical_data": {"Molecular Weight": "285.36", "Molecular Formula": "C13H19NO4S", "Melting Point": "194-196 \u00b0C"}}