{"cas_no": "57-62-5", "cn_name": "\u91d1\u9709\u7d20", "en_name": ["Chlortetracycline", "2-Naphthacenecarboxamide, 7-chloro-4-(dimethylamino)-1,4,4a,5,5a,6,11,12a-octahydro-3,6,10,12,12a-pentahydroxy-6-methyl-1,11-dioxo-, (4S,4aS,5aS,6S,12aS)-", "2-Naphthacenecarboxamide, 7-chloro-4-(dimethylamino)-1,4,4a,5,5a,6,11,12a-octahydro-3,6,10,12,12a-pentahydroxy-6-methyl-1,11-dioxo-", "2-Naphthacenecarboxamide, 7-chloro-4-(dimethylamino)-1,4,4a,5,5a,6,11,12a-octahydro-3,6,10,12,12a-pentahydroxy-6-methyl-1,11-dioxo-, [4S-(4\u03b1,4a\u03b1,5a\u03b1,6\u03b2,12a\u03b1)]-", "(4S,4aS,5aS,6S,12aS)-7-Chloro-4-(dimethylamino)-1,4,4a,5,5a,6,11,12a-octahydro-3,6,10,12,12a-pentahydroxy-6-methyl-1,11-dioxo-2-naphthacenecarboxamide", "Acronize", "Acronize PD", "Aureocina", "Aureomykoin", "Biomycin", "7-Chlorotetracycline", "Chlortetracycline", "7-Chlortetracycline", "Chrysomykine", "CTC", "Duomycin", "Flamycin", "Aureomycin", "Chlortetracyclin", "Aurofac 10", "Biomycin a", "Aurofac", "Aureociclin", "Aureocarmyl", "Aureomicina", "Tri-chlortetracycline", "Uromycin", "CTC (antibiotic)", "Chrusomykine", "Orospray", "Centraureo", "Aureomycin 100G", "Chlorocyclinum", "A-Mycin", "Chloratet 50", "7-Chloro-4-(dimethylamino)-3,6,10,12,12a-pentahydroxy-6-methyl-1,11-dioxo-1,4,4a,5,5a,6,11,12a-octahydro-2-naphthacenecarboxamide", "7-Chloro-4-(dimethylamino)-3,6,10,12,12a-pentahydroxy-6-methyl-1,11-dioxo-1,4,4a,5,5a,6,11,12a-octahydrotetracene-2-carboxamide", "4-(Dimethylamino)-7-chloro-3,6,10,12,12a-pentahydroxy-6-methyl-1,11-dioxo-4,5,6,12a,4a,5a-hexahydronaphthacene-2-carboxamide", "7-Chloro-4-dimethylamino-3,6,10,12,12a-pentahydroxy-6-methyl-1,11-dioxo-4,4a,5,5a-tetrahydrotetracene-2-carboxamide", "JinMeiSu", "MeSH ID: D002751"], "SMILES": "OC12C(C(N(C)C)C(O)=C(C(N)=O)C1=O)CC3C(=C2O)C(=O)C=4C(C3(C)O)=C(Cl)C=CC4O", "physical_data": {"Molecular Weight": "478.88", "Molecular Formula": "C22H23ClN2O8", "Melting Point": "168.5 \u00b0C", "Density": "1.52 g/cm\u00b3"}}