{"cas_no": "57-63-6", "cn_name": "\u7094\u96cc\u9187", "en_name": ["Ethinylestradiol", "19-Norpregna-1,3,5(10)-trien-20-yne-3,17-diol, (17\u03b1)-", "19-Nor-17\u03b1-pregna-1,3,5(10)-trien-20-yne-3,17-diol", "(17\u03b1)-19-Norpregna-1,3,5(10)-trien-20-yne-3,17-diol", "Amenoron", "Chee-O-Genf", "Diogyn E", "Dyloform", "Esteed", "Estigyn", "Estinyl", "Eston-E", "Estorals", "Estradiol, 17-ethynyl-", "neo-Estrone", "Ethidol", "Ethinoral", "17\u03b1-Ethinyl-3,17-dihydroxy-\u03941,3,5-estratriene", "Ethinylestradiol", "17-Ethinyl-3,17-estradiol", "17\u03b1-Ethinylestradiol", "17\u03b1-Ethinylestra-1,3,5(10)-triene-3,17\u03b2-diol", "Ethinyloestradiol", "17-Ethynyl-3,17-dihydroxy-1,3,5-oestratriene", "Ethynylestradiol", "17-Ethynylestradiol", "17-Ethynylestra-1,3,5(10)-triene-3,17\u03b2-diol", "17\u03b1-Ethynylestra-1,3,5(10)-triene-3,17\u03b2-diol", "Eticyclin", "Eticyclol", "Etinestrol", "Etinestryl", "Etinoestryl", "Ginestrene", "Inestra", "Linoral", "Lynoral", "Menolyn", "Novestrol", "Oradiol", "Orestralyn", "Palonyl", "Perovex", "Primogyn", "Progynon C", "Primogyn C", "Primogyn M", "17-Ethinylestradiol", "17\u03b1-Ethinyl-17\u03b2-estradiol", "17\u03b1-Ethinyl-1,3,5(10)-estratriene-3,17-diol", "17\u03b1-Ethynylestradiol", "17-Nor-17\u03b1-pregna-1,3,5-(10)-trien-20-yne-3,17-diol", "Chee-O-Gen", "Estoral", "Etistradiol", "Spanestrin", "Follicoral", "Microfollin", "19-Nor-17\u03b1-pregna-1,3,5(10)-trien-20-yne-3,17\u03b2-diol", "Ethynyloestradiol", "Prosexol", "NSC 10973", "Gynofen", "17\u03b1-Ethynylestra-3,17\u03b2-diol", "Acetylene estradiol", "Novinet", "17\u03b1-Ethinyl estradiol (EE2)", "MeSH ID: D004997"], "SMILES": "CC12C(C3C(CC1)C=4C(CC3)=CC(O)=CC4)CCC2(C#C)O", "physical_data": {"Molecular Weight": "296.40", "Molecular Formula": "C20H24O2", "Melting Point": "141-146 \u00b0C"}}