{"cas_no": "57-67-0", "cn_name": "\u78fa\u80fa\u8112", "en_name": ["Sulfaguanidine", "Benzenesulfonamide, 4-amino-N-(aminoiminomethyl)-", "Sulfanilamide, N1-amidino-", "Sulfanilamide, N1-(diaminomethylene)-", "4-Amino-N-(aminoiminomethyl)benzenesulfonamide", "RP 2275", "Abiguanil", "N1-Amidinosulfanilamide", "p-Aminobenzenesulfonylguanidine", "Aterian", "Ganidan", "Guamide", "Guanicil", "Guanidan", "N-Guanylsulfanilamide", "N1-Guanylsulfanilamide", "Resulfon", "Ruocid", "Suganyl", "Sulfaguanidine", "Sulfaguine", "Sulfanilguanidine", "Sulfanilylguanidine", "Sulfoguanidine", "Sulfoguenil", "Sulgin", "Emerin (pharmaceutical)", "4-Aminophenylsulfonylguanidine", "A 307", "Sulphaguanidine", "[(p-Aminophenyl)sulfonyl]guanidine", "p-Aminobenzenesulfoguanidide", "N1-Guanidylsulfanilamide", "1-Sulfanilylguanidine", "Sulfentidine", "Orgaguanidon", "Sulfaguanil", "Sulfoguanil", "Sulfoguanyl", "Sulfaguanidin", "1-[(p-Aminophenyl)sulfonyl]guanidine", "4-Aminobenzenesulfonylguanidine", "Diacta", "Shigatox", "NSC 14041", "4-Amino-N-carbamimidoylbenzenesulfonamide", "4-Amino-N-(diaminomethylene)benzenesulfonamide", "1-Amino-4-([[amino(imino)methyl]amino]sulfonyl)benzene", "2-(4-Aminophenyl)sulfonylguanidine", "2-(4-Aminobenzenesulfonyl)guanidine", "MeSH ID: D013414"], "SMILES": "S(NC(=N)N)(=O)(=O)C1=CC=C(N)C=C1", "physical_data": {"Molecular Weight": "214.24", "Molecular Formula": "C7H10N4O2S", "Melting Point": "191.5 \u00b0C"}}