{"cas_no": "57-71-6", "cn_name": "2,3-\u4e01\u70f7\u4e8c\u916e\u4e00\u809f", "en_name": ["2,3-Butanedione monoxime", "2,3-Butanedione, 2-oxime", "2,3-Butanedione, monooxime", "2,3-Butanedione oxime", "Diacetyl monoxime", "2-Oximino-3-butanone", "DAM (oxime)", "Biacetyl monoxime", "3-Oximino-2-butanone", "Diacetyl monooxime", "2,3-Butanedione monoxime", "Biacetyl monooxime", "2,3-Butanedione-2-monoxime", "2,3-Butanedione 3-monoxime", "RA 53", "DAM", "2-Hydroxyimino-3-butanone", "Isonitrosoethyl methyl ketone", "3-Oxo-2-butanone oxime", "2,3-Butadione monooxime", "NSC 116103", "NSC 660", "3-(Hydroxyimino)-2-butanone"], "SMILES": "C(C(C)=O)(=NO)C", "physical_data": {"Molecular Weight": "101.10", "Molecular Formula": "C4H7NO2", "Boiling Point": "185.5 \u00b0C", "Melting Point": "76.8 \u00b0C"}}