{"cas_no": "57-74-9", "cn_name": "\u6c2f\u4e39", "en_name": ["1,2,4,5,6,7,8,8-Octachloro-2,3,3a,4,7,7a-hexahydro-4,7-methano-1H-indene", "4,7-Methano-1H-indene, 1,2,4,5,6,7,8,8-octachloro-2,3,3a,4,7,7a-hexahydro-", "4,7-Methanoindan, 1,2,4,5,6,7,8,8-octachloro-3a,4,7,7a-tetrahydro-", "1,2,4,5,6,7,8,8-Octachloro-2,3,3a,4,7,7a-hexahydro-4,7-methano-1H-indene", "CD 68", "M 140", "Octachloro-4,7-methanotetrahydroindane", "1,2,4,5,6,7,8,8-Octachloro-4,7-methano-3a,4,7,7a-tetrahydroindane", "1,2,4,5,6,7,10,10-Octachloro-4,7,8,9-tetrahydro-4,7-endomethyleneindane", "1,2,4,5,6,7,10,10-Octachloro-4,7,8,9-tetrahydro-4,7-methyleneindane", "Tat Chlor 4", "Toxichlor", "Chlorindan", "ENT 9932", "HCS 3260", "Cortilan-neu", "Dowchlor", "Oktaterr", "NSC 8931"], "SMILES": "ClC12C3C(C(Cl)(C1(Cl)Cl)C(Cl)=C2Cl)C(Cl)C(Cl)C3", "physical_data": {"Molecular Weight": "409.78", "Molecular Formula": "C10H6Cl8", "Boiling Point": "175 \u00b0C @ Press: 1 Torr", "Melting Point": "106 \u00b0C", "Density": "1.59-1.63 g/cm\u00b3 @ Temp: 25 \u00b0C"}}