{"cas_no": "57-85-2", "cn_name": "\u4e19\u9178\u777e\u4e38\u7d20", "en_name": ["Testosterone, propionate", "Androst-4-en-3-one, 17-(1-oxopropoxy)-, (17\u03b2)-", "Testosterone, propionate", "(17\u03b2)-17-(1-Oxopropoxy)androst-4-en-3-one", "NSC 9166", "Agovirin", "Androtest P", "Androteston", "Anertan", "Aquaviron", "Bio-testiculina", "Enarmon", "Homandren", "Hormoteston", "17\u03b2-Hydroxyandrost-4-en-3-one propionate", "Masenate", "Nasdol", "neo-Hombreol", "Okasa-Mascul", "Orchiol", "Orchistin", "Oreton", "Pantestin", "Propiokan", "Recthormone testosterone", "Sterandryl", "Synerone", "Telipex", "Testaform", "Testex", "Testodet", "Testodrin", "Testogen", "Testonique", "Testormol", "Testoviron", "Testoxyl", "Testrex", "Tostrin", "TP", "Uniteston", "Testosterone-17\u03b2 propionate", "Testosterone-17-propionate", "17\u03b2-Hydroxyandrost-4-en-3-one-17\u03b2-propionate", "17\u03b2-(Propionyloxy)androst-4-en-3-one", "Testosteron propionate", "Solvotest", "Androlon", "Testosid", "Testolets", "Enarmon-oil", "Testoviron (ampule)", "Primotestone", "Textes Depot", "17\u03b2-Hydroxy-4-androsten-3-one 17-propionate", "Orchisterone", "Synandrol", "Virormone", "NRB 03689", "MeSH ID: D043343"], "SMILES": "CC12C3C(C4C(C)(CC3)C(OC(CC)=O)CC4)CCC1=CC(=O)CC2", "physical_data": {"Molecular Weight": "344.49", "Molecular Formula": "C22H32O3", "Melting Point": "120 \u00b0C"}}