{"cas_no": "57-88-5", "cn_name": "\u80c6\u56fa\u9187", "en_name": ["Cholesterol", "Cholest-5-en-3-ol (3\u03b2)-", "Cholesterol", "(3\u03b2)-Cholest-5-en-3-ol", "Cholest-5-en-3\u03b2-ol", "Cholesterin", "5:6-Cholesten-3\u03b2-ol", "Dythol", "3\u03b2-Hydroxycholest-5-ene", "Provitamin D", "Cholesteryl alcohol", "(-)-Cholesterol", "\u03945-Cholesten-3\u03b2-ol", "Lidinit", "Lidinite", "NSC 8798", "SyntheChol", "Marine Cholesterol", "C 8667", "137: PN: WO2023069707 SEQID: 165 claimed sequence", "MeSH ID: D002784"], "SMILES": "CC12C(C3C(C4(C)C(=CC3)CC(O)CC4)CC1)CCC2C(CCCC(C)C)C", "physical_data": {"Molecular Weight": "386.65", "Molecular Formula": "C27H46O", "Boiling Point": "360 \u00b0C", "Melting Point": "148.5 \u00b0C", "Density": "1.067 g/cm\u00b3 @ Temp: 20 \u00b0C"}}