{"cas_no": "57-83-0", "cn_name": "\u9ec4\u4f53\u916e", "en_name": ["Progesterone", "Pregn-4-ene-3,20-dione", "Progesterone", "Corlutin", "Corlutina", "Corluvite", "Corporin", "Corpus luteum hormone", "Flavolutan", "Fologenon", "Gestone", "Gestormone", "Glanducorpin", "Hormoflaveine", "Hormoluton", "Luteal Hormone", "Luteinique", "Luteodyn", "Luteogan", "Luteohormone", "Luteosan", "Luteostab", "Luteovis", "Lutex", "Lutidon", "Lutocyclin", "Lutocyclin M", "Lutocylin", "Lutoform", "Lutogyl", "Lutren", "Lutromone", "Piaponon", "Primolut", "Progekan", "Progesterol", "Progestin", "Progestone", "Prolidon", "Luteol", "Syntolutan", "Proluton", "Agolutin", "Lucorteum Sol", "Gestron", "Percutacrine Luteinique", "Lipo-Lutin", "Nalutron", "Progestron", "Luteopur", "Bio-luton", "Gynlutin", "Gynolutone", "Gesterol", "Luteocrin normale", "Syngestrets", "Prolets", "Lutin", "Lutociclina", "Protormone", "Progestasert", "Vitarrine", "\u03944-Pregnene-3,20-dione", "Utrogestan", "Luteum", "U 3672", "Crinone", "Progestogel", "Lugesteron", "Prontogest", "Prometrium", "Utrogest", "Cyclogest", "Syngesterone", "Progestol", "Gestiron", "Lutocuclin M", "Progeston", "NSC 64377", "NSC 9704", "Progeffik", "Progestan", "Duraprogen", "CIDR", "Estima", "Prochieve", "Endometrin", "Minagest", "Microgest", "Lugesterone", "EAZI-BREED CIDR", "4-Pregnene-3,20-dione", "P4", "Luteosterone", "Sincrogest", "Lutinus", "Cue-Mate", "Progeffik 200", "Sincrogest LA", "MeSH ID: D011374", "P 4LA300"], "SMILES": "CC12C3C(C4C(C)(CC3)C(C(C)=O)CC4)CCC1=CC(=O)CC2", "physical_data": {"Molecular Weight": "314.46", "Molecular Formula": "C21H30O2", "Melting Point": "127-131 \u00b0C", "Density": "1.166 g/cm\u00b3 @ Temp: 23 \u00b0C"}}