{"cas_no": "57-87-4", "cn_name": "\u9ea6\u89d2\u56fa\u9187", "en_name": ["Ergosterol", "Ergosta-5,7,22-trien-3-ol, (3\u03b2,22E)-", "Ergosterol", "(3\u03b2,22E)-Ergosta-5,7,22-trien-3-ol", "Ergosterin", "Provitamin D2", "Provitamin D", "24-Methylcholesta-5,7,22-trien-3\u03b2-ol", "24R-Methylcholesta-5,7,22E-trien-3\u03b2-ol", "24\u03b1-Methyl-22E-dehydrocholesterol", "(24R)-Ergosta-5,7,22-trien-3\u03b2-ol", "(22E,24R)-Ergosta-5,7,22-trien-3\u03b2-ol", "3\u03b2-Hydroxyergosta-5,7,22-triene", "(22E,24R)-5\u03b1,8\u03b1-Epidioxy-ergosta-6,22-dien-3\u03b2-ol", "MeSH ID: D004875"], "SMILES": "CC12C(C=3C(C4(C)C(=CC3)CC(O)CC4)CC1)CCC2C(C=CC(C(C)C)C)C", "physical_data": {"Molecular Weight": "396.65", "Molecular Formula": "C28H44O", "Boiling Point": "250 \u00b0C @ Press: 0.01 Torr", "Melting Point": "170 \u00b0C", "Density": "1.04 g/cm\u00b3"}}