{"cas_no": "57-91-0", "cn_name": "\u03b1-\u96cc\u4e8c\u9187", "en_name": ["\u03b1-Estradiol", "Estra-1,3,5(10)-triene-3,17-diol, (17\u03b1)-", "17\u03b1-Estradiol", "(17\u03b1)-Estra-1,3,5(10)-triene-3,17-diol", "3,17-Dihydroxyestratriene", "3,17\u03b1-Dihydroxyoestra-1,3,5(10)-triene", "Estradiol-17\u03b1", "\u03b1-Estradiol", "Estra-1,3,5(10)-triene-3,17\u03b1-diol", "1,3,5-Estratriene-3,17\u03b1-diol", "Epiestradiol", "Oestra-1,3,5(10)-triene-3,17\u03b1-diol", "3,17\u03b1-Dihydroxyestra-1,3,5(10)-triene", "17\u03b1-Oestradiol", "17-Epiestradiol", "Epiestrol", "13\u03b2-Methyl-1,3,5(10)-gonatriene-3,17\u03b1-diol", "Alfatradiol", "NSC 20293", "MITO 4509", "MIGENIX"], "SMILES": "CC12C(C3C(C=4C(CC3)=CC(O)=CC4)CC1)CCC2O", "physical_data": {"Molecular Weight": "272.38", "Molecular Formula": "C18H24O2", "Melting Point": "221.5 \u00b0C"}}