{"cas_no": "57-94-3", "cn_name": "\u6c2f\u5316\u7b52\u7bad\u6bd2\u78b1", "en_name": ["Tubocurarine", "13H-4,6:21,24-Dietheno-8,12-metheno-1H-pyrido[3\u2032,2\u2032:14,15][1,11]dioxacycloeicosino[2,3,4-ij]isoquinolinium, 2,3,13a,14,15,16,25,25a-octahydro-9,19-dihydroxy-18,29-dimethoxy-1,14,14-trimethyl-, chloride, hydrochloride (1:1:1), (13aR,25aS)-", "Tubocurarine, chloride, hydrochloride, (+)-", "Tubocuraranium, 7\u2032,12\u2032-dihydroxy-6,6\u2032-dimethoxy-2,2\u2032,2\u2032-trimethyl-, chloride, hydrochloride", "13H-4,6:21,24-Dietheno-8,12-metheno-1H-pyrido[3\u2032,2\u2032:14,15][1,11]dioxacycloeicosino[2,3,4-ij]isoquinolinium, 2,3,13a,14,15,16,25,25a-octahydro-9,19-dihydroxy-18,29-dimethoxy-1,14,14-trimethyl-, chloride, hydrochloride, (13aR,25aS)-", "13H-4,6:21,24-Dietheno-8,12-metheno-1H-pyrido[3\u2032,2\u2032:14,15][1,11]dioxacycloeicosino[2,3,4-ij]isoquinoline, tubocuraranium deriv.", "Amerizol", "d-Paracurarine chloride", "Tubarine", "(+)-Tubocurarine chloride", "d-Tubocurarine chloride", "d-Tubocurarine dichloride", "Delacurarine", "Tubadil", "Tubocurarine chloride", "Dextrotubocurarine chloride", "d-Tubocurarine hydrochloride", "Tubocurarine hydrochloride", "(+)-Tubocurarine hydrochloride", "Tubocurarine", "Intocostrine T", "Amelizol", "(+)-Tubocurarine dichloride", "d-Tubocurarine", "D-Tubocurarine", "13H-4,6:21,24-Dietheno-8,12-metheno-1H-pyrido[3\u2032,2\u2032:14,15][1,11]dioxacycloeicosino[2,3,4-ij]isoquinolinium, 2,3,13a,14,15,16,25,25a-octahydro-9,19-dihydroxy-18,29-dimethoxy-1,14,14-trimethyl-, chloride, hydrochloride, [13aR-(13aR*,25aS*)]-", "d-(+)-Tubocurarine chloride", "Curarin HAF", "Introcostrin"], "SMILES": "OC1=C2C=3C(CC=4C=C(OC=5C=C6C(CC=7C=CC(O2)=CC7)N(C)CCC6=CC5OC)C(O)=CC4)[N+](C)(C)CCC3C=C1OC.[Cl-].Cl", "physical_data": {"Molecular Weight": "", "Molecular Formula": "C37H41N2O6.ClH.Cl", "Melting Point": "270 \u00b0C (decomp)"}}