{"cas_no": "57-97-6", "cn_name": "9,10-\u4e8c\u7532\u57fa-1,2-\u82ef\u5e76\u84bd", "en_name": ["7,12-Dimethylbenz[a]anthracene", "Benz[a]anthracene, 7,12-dimethyl-", "7,12-Dimethylbenz[a]anthracene", "DMBA", "7,12-DMBA", "9,10-Dimethyl-1,2-benzanthracene", "9,10-Dimethyl-1,2-benz[a]anthracene", "DMBA (pharmaceutical)", "NSC 408823", "DMBAn", "MeSH ID: D015127"], "SMILES": "CC=1C=2C(C(C)=C3C1C=CC=C3)=CC=C4C2C=CC=C4", "physical_data": {"Molecular Weight": "256.34", "Molecular Formula": "C20H16", "Melting Point": "123.5 \u00b0C"}}