{"cas_no": "57-92-1", "cn_name": "\u94fe\u9709\u7d20", "en_name": ["Streptomycin", "D-Streptamine, O-2-deoxy-2-(methylamino)-\u03b1-L-glucopyranosyl-(1\u21922)-O-5-deoxy-3-C-formyl-\u03b1-L-lyxofuranosyl-(1\u21924)-N1,N3-bis(aminoiminomethyl)-", "Streptomycin", "D-Streptamine, O-2-deoxy-2-(methylamino)-\u03b1-L-glucopyranosyl-(1\u21922)-O-5-deoxy-3-C-formyl-\u03b1-L-lyxofuranosyl-(1\u21924)-N,N\u2032-bis(aminoiminomethyl)-", "O-2-Deoxy-2-(methylamino)-\u03b1-L-glucopyranosyl-(1\u21922)-O-5-deoxy-3-C-formyl-\u03b1-L-lyxofuranosyl-(1\u21924)-N1,N3-bis(aminoiminomethyl)-D-streptamine", "NSC 14083", "2,4-Diguanidino-3,5,6-trihydroxycyclohexyl 5-deoxy-2-O-(2-deoxy-2-methylamino-\u03b1-glucopyranosyl)-3-formylpentofuranoside", "Streptomycin A", "Agrimycin", "Neodiestreptopab", "Agrept", "MeSH ID: D013307"], "SMILES": "O(C1C(OC2C(NC(=N)N)C(O)C(NC(=N)N)C(O)C2O)OC(C)C1(C=O)O)C3C(NC)C(O)C(O)C(CO)O3", "physical_data": {"Molecular Weight": "581.57", "Molecular Formula": "C21H39N7O12", "Melting Point": "194 \u00b0C"}}