{"cas_no": "57-96-5", "cn_name": "\u78fa\u5421\u916e", "en_name": ["Sulfinpyrazone", "3,5-Pyrazolidinedione, 1,2-diphenyl-4-[2-(phenylsulfinyl)ethyl]-", "1,2-Diphenyl-4-[2-(phenylsulfinyl)ethyl]-3,5-pyrazolidinedione", "G 28315", "Anturan", "Anturane", "1,2-Diphenyl-4-(2\u2032-phenylsulfinethyl)-3,5-pyrazolidinedione", "Diphenylpyrazone", "4-(Phenylsulfoxyethyl)-1,2-diphenyl-3,5-pyrazolidinedione", "Sulfinpyrazone", "Sulfoxyphenylpyrazolidine", "Sulphinpyrazone", "Sulfinpyrazon", "Anturanil", "Anturen", "Anturidin", "Enturan", "Enturen", "NSC 75925", "MeSH ID: D013442"], "SMILES": "O=C1N(N(C(=O)C1CCS(=O)C2=CC=CC=C2)C3=CC=CC=C3)C4=CC=CC=C4", "physical_data": {"Molecular Weight": "404.48", "Molecular Formula": "C23H20N2O3S", "Melting Point": "136-137 \u00b0C"}}