{"cas_no": "570-23-0", "cn_name": "3-\u6c28\u57fa\u6c34\u6768\u9178", "en_name": ["3-Aminosalicylic acid", "Benzoic acid, 3-amino-2-hydroxy-", "Salicylic acid, 3-amino-", "3-Amino-2-hydroxybenzoic acid", "3-Aminosalicylic acid", "2-Hydroxy-3-aminobenzoic acid", "NSC 285111", "TCI-A 0421"], "SMILES": "C(O)(=O)C1=C(O)C(N)=CC=C1", "physical_data": {"Molecular Weight": "153.14", "Molecular Formula": "C7H7NO3", "Melting Point": "164-165 \u00b0C"}}