{"cas_no": "570-05-8", "cn_name": "2,5-\u4e8c\u7532\u57fa-1-[4-(\u4e09\u6c1f\u7532\u57fa)-\u82ef\u57fa]-1H\u5421\u54af", "en_name": ["2,5-Dimethyl-1-[4-(trifluoromethyl)phenyl]-1H-pyrrole", "1H-Pyrrole, 2,5-dimethyl-1-[4-(trifluoromethyl)phenyl]-", "Pyrrole, 2,5-dimethyl-1-(\u03b1,\u03b1,\u03b1-trifluoro-p-tolyl)-", "2,5-Dimethyl-1-[4-(trifluoromethyl)phenyl]-1H-pyrrole"], "SMILES": "CC=1N(C(C)=CC1)C2=CC=C(C(F)(F)F)C=C2", "physical_data": {"Molecular Weight": "239.24", "Molecular Formula": "C13H12F3N", "Melting Point": "52 \u00b0C"}}