{"cas_no": "570-24-1", "cn_name": "2-\u7532\u57fa-6-\u785d\u57fa\u82ef\u80fa", "en_name": ["2-Methyl-6-nitroaniline", "Benzenamine, 2-methyl-6-nitro-", "o-Toluidine, 6-nitro-", "2-Methyl-6-nitrobenzenamine", "6-Methyl-2-nitroaniline", "2-Nitro-6-methylaniline", "2-Methyl-6-nitroaniline", "6-Nitro-o-toluidine", "2-Amino-3-nitrotoluene", "3-Nitro-2-aminotoluene", "1-Amino-2-methyl-6-nitrobenzene", "NSC 286", "NSC 52218", "1-Nitro-2-amino-3-methylbenzene", "2-Methyl-6-nitro-phenylamine"], "SMILES": "N(=O)(=O)C1=C(N)C(C)=CC=C1", "physical_data": {"Molecular Weight": "152.15", "Molecular Formula": "C7H8N2O2", "Melting Point": "96 \u00b0C"}}