{"cas_no": "570-02-5", "cn_name": "2,4,6-\u4e09\u7532\u6c27\u57fa\u82ef\u7532\u9178", "en_name": ["2,4,6-Trimethoxybenzoic acid", "Benzoic acid, 2,4,6-trimethoxy-", "2,4,6-Trimethoxybenzoic acid"], "SMILES": "C(O)(=O)C1=C(OC)C=C(OC)C=C1OC", "physical_data": {"Molecular Weight": "212.20", "Molecular Formula": "C10H12O5", "Melting Point": "144-145 \u00b0C"}}