{"cas_no": "570-22-9", "cn_name": "\u54aa\u5511-4,5-\u4e8c\u7fa7\u9178", "en_name": ["Imidazole-4,5-dicarboxylic acid", "1H-Imidazole-4,5-dicarboxylic acid", "Imidazole-4,5-dicarboxylic acid", "4,5-Glyoxalinedicarboxylic acid", "4,5-Dicarboxyimidazole", "\u03b1,\u03b2-Imidazoledicarboxylic acid", "NSC 9236", "4,5-Imidazoledicarboxylic acid"], "SMILES": "C(O)(=O)C1=C(C(O)=O)N=CN1", "physical_data": {"Molecular Weight": "156.10", "Molecular Formula": "C5H4N2O4", "Melting Point": "288 \u00b0C", "Density": "0.2 g/cm\u00b3"}}