{"cas_no": "57009-12-8", "cn_name": "3-\u4e59\u9170\u57fa-4-\u7f9f\u57fa\u82ef\u7532\u9178\u7532\u916f", "en_name": ["Methyl 3-acetyl-4-hydroxybenzoate", "Benzoic acid, 3-acetyl-4-hydroxy-, methyl ester", "Methyl 3-acetyl-4-hydroxybenzoate", "4-Hydroxy-3-acetylbenzoic acid methyl ester", "3-Acetyl-4-hydroxy-benzoic acid methyl ester"], "SMILES": "C(OC)(=O)C1=CC(C(C)=O)=C(O)C=C1", "physical_data": {"Molecular Weight": "194.18", "Molecular Formula": "C10H10O4", "Melting Point": "98 \u00b0C"}}