{"cas_no": "57018-04-9", "cn_name": "\u7532\u57fa\u7acb\u67af\u78f7", "en_name": ["Tolclofos-methyl", "Phosphorothioic acid, O-(2,6-dichloro-4-methylphenyl) O,O-dimethyl ester", "O,O-Dimethyl O-(2,6-dichloro-4-methylphenyl) phosphorothioate", "Rizolex", "Tolclofos-methyl", "Rhizolex T 50", "Rhizolex", "Tolclophos-methyl", "O-(2,6-Dichloro-4-methylphenyl) O,O-dimethyl phosphorothioate"], "SMILES": "O(P(OC)(OC)=S)C1=C(Cl)C=C(C)C=C1Cl", "physical_data": {"Molecular Weight": "301.13", "Molecular Formula": "C9H11Cl2O3PS", "Melting Point": "79 \u00b0C"}}