{"cas_no": "57018-46-9", "cn_name": "4 4'-\u5076\u6c2e\u53cc(4-\u6c30\u57fa\u620a\u9178)", "en_name": ["4-Azidophenacyl bromide", "Ethanone, 1-(4-azidophenyl)-2-bromo-", "1-(4-Azidophenyl)-2-bromoethanone", "p-Azidophenacyl bromide", "4\u2032-Azido-2-bromoacetophenone", "4-Azidophenacyl bromide", "p-Azidophenacetyl bromide", "2-Bromo-4\u2032-azidoacetophenone", "1-(4-Azidophenyl)-2-bromoethan-1-one"], "SMILES": "C(CBr)(=O)C1=CC=C(N=[N+]=[N-])C=C1", "physical_data": {"Molecular Weight": "", "Molecular Formula": "C8H6BrN3O", "Melting Point": "66-67 \u00b0C"}}