{"cas_no": "57018-52-7", "cn_name": "1-\u53d4\u4e01\u6c27\u57fa-2-\u4e19\u9187", "en_name": ["1-tert-Butoxy-2-propanol", "2-Propanol, 1-(1,1-dimethylethoxy)-", "1-(1,1-Dimethylethoxy)-2-propanol", "1-Methyl-2-tert-butoxyethanol", "1-tert-Butoxy-2-propanol", "Arcosolv PTB", "1-(1,1-dimethylethoxy)-2-propanol", "Propylene glycol 1-(tert-butyl ether)", "1-[(2-Methylpropan-2-yl)oxy]propan-2-ol"], "SMILES": "O(C(C)(C)C)CC(C)O", "physical_data": {"Molecular Weight": "132.20", "Molecular Formula": "C7H16O2", "Boiling Point": "105-110 \u00b0C @ Press: 2 Torr"}}