{"cas_no": "5701-82-6", "cn_name": "MESO-1,4-\u53cc(3,4-\u4e8c\u7532\u6c27\u57fa\u82ef\u57fa)\u4e8c\u7532\u57fa\u4e01\u70f7", "en_name": ["Tetra-O-methyl nordihydroguaiaretic acid", "Benzene, 4-[4-(3,4-dimethoxyphenyl)-2,3-dimethylbutyl]-1,2-dimethoxy-", "Butane, 1,4-bis(3,4-dimethoxyphenyl)-2,3-dimethyl-", "Benzene, 1,1\u2032-(2,3-dimethyl-1,4-butanediyl)bis[3,4-dimethoxy-", "4-[4-(3,4-Dimethoxyphenyl)-2,3-dimethylbutyl]-1,2-dimethoxybenzene", "Dimethyldihydroguaiaretic acid", "1,4-Bis(3,4-dimethoxyphenyl)-2,3-dimethylbutane", "NSC 136955", "Tetra-O-methyl nordihydroguaiaretic acid"], "SMILES": "O(C)C1=C(OC)C=CC(CC(C(CC2=CC(OC)=C(OC)C=C2)C)C)=C1", "physical_data": {"Molecular Weight": "358.47", "Molecular Formula": "C22H30O4", "Melting Point": "101-102 \u00b0C"}}