{"cas_no": "57017-95-5", "cn_name": "3-\u6c2f-4-\u7f9f\u57fa\u82ef\u4e59\u9178\u7532\u916f", "en_name": ["Methyl 3-chloro-4-hydroxybenzeneacetate", "Benzeneacetic acid, 3-chloro-4-hydroxy-, methyl ester", "Methyl 3-chloro-4-hydroxybenzeneacetate", "Methyl 4-hydroxy-3-chlorobenzeneacetate", "Methyl 3-chloro-4-hydroxyphenylacetate", "Methyl 2-(3-chloro-4-hydroxyphenyl)acetate", "(3-Chloro-4-hydroxyphenyl)acetic acid methyl ester", "3-Chloro-4-hydroxybenzeneacetic acid methyl ester"], "SMILES": "C(C(OC)=O)C1=CC(Cl)=C(O)C=C1", "physical_data": {"Molecular Weight": "200.62", "Molecular Formula": "C9H9ClO3", "Boiling Point": "175 \u00b0C @ Press: 4 Torr"}}