{"cas_no": "570391-20-7", "cn_name": "3-\u6eb4-5-\u7898-\u82ef\u915a", "en_name": ["3-Bromo-5-iodophenol", "Phenol, 3-bromo-5-iodo-", "3-Bromo-5-iodophenol"], "SMILES": "BrC1=CC(I)=CC(O)=C1", "physical_data": {"Molecular Weight": "298.90", "Molecular Formula": "C6H4BrIO", "Melting Point": "82.5 \u00b0C"}}