{"cas_no": "5703-21-9", "cn_name": "(3,4-\u4e8c\u7532\u6c27\u57fa\u82ef\u57fa)\u4e59\u919b", "en_name": ["3,4-Dimethoxybenzeneacetaldehyde", "Benzeneacetaldehyde, 3,4-dimethoxy-", "Acetaldehyde, (3,4-dimethoxyphenyl)-", "3,4-Dimethoxybenzeneacetaldehyde", "Homoveratraldehyde", "Homoveratrylaldehyde", "(3,4-Dimethoxyphenyl)acetaldehyde", "2-(3,4-Dimethoxyphenyl)acetaldehyde", "Homoveratric aldehyde"], "SMILES": "O(C)C1=C(OC)C=CC(CC=O)=C1", "physical_data": {"Molecular Weight": "180.20", "Molecular Formula": "C10H12O3", "Boiling Point": "121 \u00b0C @ Press: 0.3-0.4 Torr", "Density": "1.15500061035156 g/cm\u00b3 @ Temp: 20 \u00b0C"}}