{"cas_no": "57031-66-0", "cn_name": "1-\u7532\u57fa-1H-1,2,4-\u4e09\u5511-3-\u7532\u9178\u7532\u916f", "en_name": ["1H-1,2,4-Triazole-3-carboxylic acid, 1-methyl-, methyl ester", "1H-1,2,4-Triazole-3-carboxylic acid, 1-methyl-, methyl ester", "Methyl 1-methyl-1H-1,2,4-triazole-3-carboxylate"], "SMILES": "C(OC)(=O)C1=NN(C)C=N1", "physical_data": {"Molecular Weight": "141.13", "Molecular Formula": "C5H7N3O2", "Melting Point": "117 \u00b0C"}}