{"cas_no": "5703-26-4", "cn_name": "4-\u7532\u6c27\u57fa\u82ef\u4e59\u919b", "en_name": ["4-Methoxyphenylacetaldehyde", "Benzeneacetaldehyde, 4-methoxy-", "Acetaldehyde, (p-methoxyphenyl)-", "4-Methoxybenzeneacetaldehyde", "p-Anisylacetaldehyde", "Homoanisaldehyde", "4-Methoxyphenylacetaldehyde", "(p-Methoxyphenyl)acetaldehyde", "2-(p-Anisyl)ethanal", "2-(4-Methoxyphenyl)ethanal", "2-(4-Methoxyphenyl)acetaldehyde"], "SMILES": "C(C=O)C1=CC=C(OC)C=C1", "physical_data": {"Molecular Weight": "150.17", "Molecular Formula": "C9H10O2", "Boiling Point": "255.5 \u00b0C", "Melting Point": "0 \u00b0C"}}