{"cas_no": "57044-25-4", "cn_name": "(R)-\u7f29\u6c34\u7518\u6cb9", "en_name": ["(+)-Glycidol", "2-Oxiranemethanol, (2R)-", "Oxiranemethanol, (R)-", "Oxiranemethanol, (2R)-", "(2R)-2-Oxiranemethanol", "2,3-Anhydro-sn-glycerol", "(+)-Glycidol", "(+)-2,3-Epoxy-1-propanol", "(R)-(+)-Glycidol", "2(R)-2,3-Epoxypropanol", "(R)-Glycidol", "(R)-2-Oxiranemethanol", "R-Glycidyl alcohol", "(2R)-2-Oxiranylmethanol", "(R)-2-Oxiranemethanol", "(R)-Oxiran-2-ylmethanol", "(R)-Oxiran-2-ylmethanol", "2-Oxiranemethanol (2R)-", "2-Oxiranol, (2S)-"], "SMILES": "C(O)C1CO1", "physical_data": {"Molecular Weight": "74.08", "Molecular Formula": "C3H6O2", "Boiling Point": "70 \u00b0C @ Press: 15 Torr"}}