{"cas_no": "5704-04-1", "cn_name": "\u4e09(\u7f9f\u7532\u57fa)\u7532\u57fa\u7518\u6c28\u9178", "en_name": ["Tricine", "Glycine, N-[2-hydroxy-1,1-bis(hydroxymethyl)ethyl]-", "N-[2-Hydroxy-1,1-bis(hydroxymethyl)ethyl]glycine", "Tricine", "N-[Tris(hydroxymethyl)methyl]glycine", "NSC 369995", "2-[[1,3-Dihydroxy-2-(hydroxymethyl)propan-2-yl]amino]acetic acid"], "SMILES": "C(NCC(O)=O)(CO)(CO)CO", "physical_data": {"Molecular Weight": "179.17", "Molecular Formula": "C6H13NO5", "Melting Point": "187 \u00b0C"}}