{"cas_no": "57041-67-5", "cn_name": "\u5730\u6c1f\u70f7", "en_name": ["Desflurane", "Ethane, 2-(difluoromethoxy)-1,1,1,2-tetrafluoro-", "2-(Difluoromethoxy)-1,1,1,2-tetrafluoroethane", "I 653", "Desflurane", "R-E 236ea1", "HFE 236", "Difluoromethyl 1,2,2,2-tetrafluoroethyl ether", "Suprane", "HFE 236eaEbg", "1,2,2,2-Tetrafluoroethyl difluoromethyl ether"], "SMILES": "C(OC(F)F)(C(F)(F)F)F", "physical_data": {"Molecular Weight": "168.04", "Molecular Formula": "C3H2F6O", "Boiling Point": "23.5 \u00b0C", "Density": "1.5 g/cm\u00b3"}}