{"cas_no": "5705-15-7", "cn_name": "N-\u82ef\u7532\u57fa-N-\u82ef\u80bc\u76d0\u9178\u76d0", "en_name": ["Hydrazine, 1-phenyl-1-(phenylmethyl)-, hydrochloride (1:1)", "Hydrazine, 1-phenyl-1-(phenylmethyl)-, hydrochloride (1:1)", "Hydrazine, 1-benzyl-1-phenyl-, monohydrochloride", "Hydrazine, 1-phenyl-1-(phenylmethyl)-, monohydrochloride", "Hydrazine, 1-benzyl-1-phenyl-, hydrochloride", "\u03b1-Benzyl-\u03b1-phenylhydrazine hydrochloride", "1-Benzyl-1-phenylhydrazine hydrochloride", "N-Phenyl-N-benzylhydrazine hydrochloride", "N-Benzyl-N-phenylhydrazine hydrochloride", "2-Benzyl-2-phenylhydrazinium chloride"], "SMILES": "N(CC1=CC=CC=C1)(N)C2=CC=CC=C2.Cl", "physical_data": {"Molecular Weight": "", "Molecular Formula": "C13H14N2.ClH", "Melting Point": "170-172 \u00b0C"}}