{"cas_no": "57057-80-4", "cn_name": "L-(-)-O-\u5bf9\u7532\u7b28\u78fa\u9178\u57fa\u4e73\u9178\u4e59\u916f", "en_name": ["Ethyl (2S)-2-[[(4-methylphenyl)sulfonyl]oxy]propanoate", "Propanoic acid, 2-[[(4-methylphenyl)sulfonyl]oxy]-, ethyl ester, (2S)-", "Propanoic acid, 2-[[(4-methylphenyl)sulfonyl]oxy]-, ethyl ester, (S)-", "Ethyl (2S)-2-[[(4-methylphenyl)sulfonyl]oxy]propanoate", "Ethyl O-(p-toluenesulfonyl)-L-(-)-lactate", "Ethyl L-(-)-lactate p-toluenesulfonate", "Ethyl (S)-\u03b1-(4-methylphenylsulfonyloxy)propionate", "Ethyl (S)-2-(4-methylphenylsulfonyloxy)propionate", "Ethyl (S)-2-[(p-tolylsulfonyl)oxy]propionate"], "SMILES": "S(OC(C(OCC)=O)C)(=O)(=O)C1=CC=C(C)C=C1", "physical_data": {"Molecular Weight": "272.32", "Molecular Formula": "C12H16O5S", "Boiling Point": "145 \u00b0C @ Press: 0.05 Torr", "Melting Point": "31.5-32 \u00b0C"}}