{"cas_no": "57054-86-1", "cn_name": "5-\u6eb4-2-\u6c2f-N,N-\u4e8c\u7532\u57fa\u5627\u5576-4-\u80fa", "en_name": ["5-Bromo-2-chloro-N,N-dimethyl-4-pyrimidinamine", "4-Pyrimidinamine, 5-bromo-2-chloro-N,N-dimethyl-", "5-Bromo-2-chloro-N,N-dimethyl-4-pyrimidinamine", "(5-Bromo-2-chloropyrimidin-4-yl)dimethylamine", "5-Bromo-2-chloro-N,N-dimethylpyrimidin-4-amine"], "SMILES": "N(C)(C)C=1C(Br)=CN=C(Cl)N1", "physical_data": {"Molecular Weight": "236.50", "Molecular Formula": "C6H7BrClN3", "Melting Point": "62-64 \u00b0C"}}