{"cas_no": "5706-78-5", "cn_name": "2-\u6c2f\u82ef\u7532\u919b\u7f29\u80fa\u57fa\u786b\u8132", "en_name": ["2-[(2-Chlorophenyl)methylene]hydrazinecarbothioamide", "Hydrazinecarbothioamide, 2-[(2-chlorophenyl)methylene]-", "Benzaldehyde, o-chloro-, thiosemicarbazone", "2-[(2-Chlorophenyl)methylene]hydrazinecarbothioamide", "o-Chlorobenzaldehyde thiosemicarbazone", "2-Chlorobenzaldehyde thiosemicarbazone", "o-Chlorobenzylidenethiosemicarbazone", "2-(2-Chlorobenzylidene)hydrazine-1-carbothioamide"], "SMILES": "C(=NNC(N)=S)C1=C(Cl)C=CC=C1", "physical_data": {"Molecular Weight": "213.69", "Molecular Formula": "C8H8ClN3S", "Melting Point": "205-208 \u00b0C"}}