{"cas_no": "57060-88-5", "cn_name": "(S)-(-)-1,2,3,4-\u56db\u6c22\u5f02\u55b9\u5549-3-\u7fa7\u9178\u7532\u916f\u76d0\u9178\u76d0", "en_name": ["3-Isoquinolinecarboxylic acid, 1,2,3,4-tetrahydro-, methyl ester, hydrochloride (1:1)", "3-Isoquinolinecarboxylic acid, 1,2,3,4-tetrahydro-, methyl ester, hydrochloride (1:1)", "3-Isoquinolinecarboxylic acid, 1,2,3,4-tetrahydro-, methyl ester, hydrochloride", "Methyl 1,2,3,4-tetrahydro-3-isoquinolinecarboxylate hydrochloride", "1,2,3,4-Tetrahydro-isoquinoline-3-carboxylic acid methyl ester", "hydrochloride"], "SMILES": "C(OC)(=O)C1CC=2C(CN1)=CC=CC2.Cl", "physical_data": {"Molecular Weight": "", "Molecular Formula": "C11H13NO2.ClH", "Melting Point": "250-252 \u00b0C (decomp)"}}