{"cas_no": "57069-48-4", "cn_name": "\u4e09(\u7532\u6c27\u57fa\u4e59\u6c27\u57fa)\u4e19\u57fa\u9170\u6c27\u57fa\u7845\u70f7", "en_name": ["3-[Tris(2-methoxyethoxy)silyl]propyl 2-methyl-2-propenoate", "2-Propenoic acid, 2-methyl-, 3-[tris(2-methoxyethoxy)silyl]propyl ester", "3-[Tris(2-methoxyethoxy)silyl]propyl 2-methyl-2-propenoate", "(3-Methacryloxypropyl)tris(2-methoxyethoxy)silane", "(3-Methacryloyloxypropyl)tris(2-methoxyethoxy)silane", "Methacryloyloxypropyltris(methoxyethoxy)silane", "A 175", "\u03b3-Methacryloxypropyltris(2-methoxyethoxy)silane", "A 175 (acrylate)", "Methacryloxypropyltri(methoxyethoxy)silane", "\u03b3-Methacryloyloxypropyltris(2-methoxyethoxy)silane", "3-Methacryloxypropyltris(methoxyethoxy)silane"], "SMILES": "[Si](CCCOC(C(C)=C)=O)(OCCOC)(OCCOC)OCCOC", "physical_data": {"Molecular Weight": "380.51", "Molecular Formula": "C16H32O8Si", "Boiling Point": "128 \u00b0C @ Press: 10 Torr", "Density": "1.065 g/cm\u00b3"}}