{"cas_no": "57078-99-6", "cn_name": "5-\u9a6c\u6765\u9170\u4e9a\u80fa\u57fa\u620a\u9178", "en_name": ["2,5-Dihydro-2,5-dioxo-1H-pyrrole-1-pentanoic acid", "1H-Pyrrole-1-pentanoic acid, 2,5-dihydro-2,5-dioxo-", "2,5-Dihydro-2,5-dioxo-1H-pyrrole-1-pentanoic acid", "N-(4-Carboxybutyl)maleimide", "5-Maleimidopentanoic acid"], "SMILES": "C(CCCC(O)=O)N1C(=O)C=CC1=O", "physical_data": {"Molecular Weight": "197.19", "Molecular Formula": "C9H11NO4", "Melting Point": "84-85 \u00b0C"}}