{"cas_no": "57079-01-3", "cn_name": "11-\u9a6c\u6765\u9170\u80fa\u57fa\u5341\u4e00\u70f7\u9178", "en_name": ["11-Maleimidoundecanoic acid", "1H-Pyrrole-1-undecanoic acid, 2,5-dihydro-2,5-dioxo-", "2,5-Dihydro-2,5-dioxo-1H-pyrrole-1-undecanoic acid", "N-(10-Carboxydecyl)maleimide", "AM 10", "11-Maleimidoundecanoic acid", "11-(2,5-Dioxo-2,5-dihydro-1H-pyrrol-1-yl)undecanoicacid"], "SMILES": "C(CCCCCCCCCC(O)=O)N1C(=O)C=CC1=O", "physical_data": {"Molecular Weight": "281.35", "Molecular Formula": "C15H23NO4", "Melting Point": "88 \u00b0C"}}