{"cas_no": "57076-71-8", "cn_name": "\u65e6\u5e03\u83f2\u6797", "en_name": ["Denbufylline", "1H-Purine-2,6-dione, 1,3-dibutyl-3,7-dihydro-7-(2-oxopropyl)-", "1,3-Dibutyl-3,7-dihydro-7-(2-oxopropyl)-1H-purine-2,6-dione", "BRL 30892", "Denbufylline", "Denbutylline", "Denbutyline"], "SMILES": "C(C(C)=O)N1C2=C(N(CCCC)C(=O)N(CCCC)C2=O)N=C1", "physical_data": {"Molecular Weight": "320.39", "Molecular Formula": "C16H24N4O3", "Melting Point": "100.5 \u00b0C"}}