{"cas_no": "5707-69-7", "cn_name": "\u654c\u83cc\u916e,\u80bc\u83cc\u916e", "en_name": ["Drazoxolon", "4,5-Isoxazoledione, 3-methyl-, 4-[2-(2-chlorophenyl)hydrazone]", "4,5-Isoxazoledione, 3-methyl-, 4-[(o-chlorophenyl)hydrazone]", "4,5-Isoxazoledione, 3-methyl-, 4-[(2-chlorophenyl)hydrazone]", "PP 781", "4-(2-Chlorophenylhydrazono)-3-methyl-5-isoxazolone", "4-o-Chlorophenylhydrazono-3-methyl-5-isoxazolone", "Drazoxolon", "JF 1633", "JF 2067", "3-Methyl-4-[(o-chlorophenyl)hydrazone]-4,5-isoxazoledione", "4-(2-Chlorophenylhydrazono)-3-methyl-5(4H)-isoxazolone", "3-Methyl-4-(o-chlorophenylhydrazono)-5-isoxazolone", "R 22395", "Milcol", "Mil-Col (pesticide)", "Hydrazolon", "JF 800", "3-Methyl-4-(2-chlorophenylhydrazono)-2-isoxazolin-5-one"], "SMILES": "N(NC1=C(Cl)C=CC=C1)=C2C(C)=NOC2=O", "physical_data": {"Molecular Weight": "237.64", "Molecular Formula": "C10H8ClN3O2", "Melting Point": "168 \u00b0C"}}