{"cas_no": "5707-04-0", "cn_name": "\u82ef\u57fa\u6c2f\u5316\u7852", "en_name": ["Benzeneselenenyl chloride", "Benzeneselenenyl chloride", "Phenylselenyl chloride", "Benzeneselenyl chloride", "Chlorophenylselenium", "Phenylselenium chloride", "Phenylselenium monochloride", "(Phenylselanyl)chlorane"], "SMILES": "[Se](Cl)C1=CC=CC=C1", "physical_data": {"Molecular Weight": "191.52", "Molecular Formula": "C6H5ClSe", "Boiling Point": "92 \u00b0C @ Press: 5 Torr", "Melting Point": "64-65 \u00b0C"}}