{"cas_no": "57078-98-5", "cn_name": "4-\u9a6c\u6765\u9170\u4e9a\u80fa\u4e01\u9178", "en_name": ["4-Maleimidobutyric acid", "1H-Pyrrole-1-butanoic acid, 2,5-dihydro-2,5-dioxo-", "2,5-Dihydro-2,5-dioxo-1H-pyrrole-1-butanoic acid", "\u03b3-Maleimidobutyric acid", "4-Maleimidobutyric acid", "\u03c9-Maleimidobutyric acid", "N-(3-Carboxypropyl)maleimide", "4-(2,5-Dioxo-2,5-dihydro-1H-pyrrol-1-yl)butanoic acid", "4-Maleimidobutanoic acid"], "SMILES": "C(CCC(O)=O)N1C(=O)C=CC1=O", "physical_data": {"Molecular Weight": "183.16", "Molecular Formula": "C8H9NO4", "Melting Point": "93-94 \u00b0C"}}