{"cas_no": "57090-45-6", "cn_name": "(R)-3-\u6c2f-1,2-\u4e19\u4e8c\u9187", "en_name": ["(2R)-3-Chloro-1,2-propanediol", "1,2-Propanediol, 3-chloro-, (2R)-", "1,2-Propanediol, 3-chloro-, (R)-", "(2R)-3-Chloro-1,2-propanediol", "(R)-\u03b1-Chlorohydrin", "(-)-3-Chloro-1,2-propanediol", "(R)-3-Chloro-1,2-propanediol", "(R)-(-)-3-Chloro-1,2-propanediol", "(R)-Monochlorohydrin", "(R)-3-Chloropropan-1,2-diol", "1,2-Propanediol 3-chloro-, (2R)-"], "SMILES": "C(CCl)(CO)O", "physical_data": {"Molecular Weight": "110.54", "Molecular Formula": "C3H7ClO2", "Boiling Point": "100-105 \u00b0C @ Press: 3 Torr", "Melting Point": "1 \u00b0C"}}