{"cas_no": "5709-98-8", "cn_name": "(R)-3-\u73af\u5df1\u70ef\u7532\u9178", "en_name": ["(1R)-3-Cyclohexene-1-carboxylic acid", "3-Cyclohexene-1-carboxylic acid, (1R)-", "3-Cyclohexene-1-carboxylic acid, (R)-", "3-Cyclohexene-1-carboxylic acid, (R)-(+)-", "(1R)-3-Cyclohexene-1-carboxylic acid", "(R)-(+)-3-Cyclohexene-1-carboxylic acid", "(R)-3-Cyclohexenecarboxylic acid", "(R)-3-Cyclohexene-1-carboxylic acid", "(R)-Cyclohex-3-enecarboxylicacid", "(R)-3-Cyclohexene-1-carboxylic acid", "(R)-Cyclohex-3-enecarboxylic acid", "3-Cyclohexene-1-carboxylic acid (1R)-"], "SMILES": "C(O)(=O)C1CCC=CC1", "physical_data": {"Molecular Weight": "126.15", "Molecular Formula": "C7H10O2", "Boiling Point": "90 \u00b0C @ Press: 0.2 Torr"}}