{"cas_no": "57090-88-7", "cn_name": "1H-\u54aa\u5511-4-\u7532\u8148", "en_name": ["1H-Imidazole-5-carbonitrile", "1H-Imidazole-5-carbonitrile", "1H-Imidazole-4-carbonitrile", "4-Cyanoimidazole", "4-Imidazolecarbonitrile", "4-Cyano-1H-imidazole"], "SMILES": "C(#N)C1=CN=CN1", "physical_data": {"Molecular Weight": "93.09", "Molecular Formula": "C4H3N3", "Melting Point": "143.5-144.5 \u00b0C"}}