{"cas_no": "571-61-9", "cn_name": "1\uff0c5-\u4e8c\u7532\u57fa\u8418", "en_name": ["1,5-Dimethylnaphthalene", "Naphthalene, 1,5-dimethyl-", "1,5-Dimethylnaphthalene", "NSC 59388"], "SMILES": "CC=1C2=C(C(C)=CC=C2)C=CC1", "physical_data": {"Molecular Weight": "156.22", "Molecular Formula": "C12H12", "Boiling Point": "265 \u00b0C", "Melting Point": "82 \u00b0C"}}