{"cas_no": "571-60-8", "cn_name": "1,4-\u4e8c\u7f9f\u57fa\u8418", "en_name": ["1,4-Naphthalenediol", "1,4-Naphthalenediol", "Naphthohydroquinone", "1,4-Dihydroxynaphthalene", "Hydronaphthoquinone", "1,4-Naphthohydroquinone", "\u03b1-Naphthoquinhydrone", "1,4-Naphthoquinol"], "SMILES": "OC=1C2=C(C(O)=CC1)C=CC=C2", "physical_data": {"Molecular Weight": "160.17", "Molecular Formula": "C10H8O2", "Melting Point": "&gt;190 \u00b0C (decomp)"}}