{"cas_no": "571-20-0", "cn_name": "5alpha-\u96c4\u70f7\u4e8c\u9187", "en_name": ["5\u03b1-Androstane-3\u03b2,17\u03b2-diol", "Androstane-3,17-diol, (3\u03b2,5\u03b1,17\u03b2)-", "5\u03b1-Androstane-3\u03b2,17\u03b2-diol", "(3\u03b2,5\u03b1,17\u03b2)-Androstane-3,17-diol", "3\u03b2,17\u03b2-Androstanediol", "3\u03b2,17\u03b2-Dihydroxy-5\u03b1-androstane", "NSC 50891", "Maxterone", "3\u03b2-Adiol"], "SMILES": "CC12C3C(C4C(C)(CC3)C(O)CC4)CCC1CC(O)CC2", "physical_data": {"Molecular Weight": "292.46", "Molecular Formula": "C19H32O2", "Melting Point": "161 \u00b0C"}}