{"cas_no": "571-58-4", "cn_name": "1\uff0c4-\u4e8c\u7532\u57fa\u8418", "en_name": ["1,4-Dimethylnaphthalene", "Naphthalene, 1,4-dimethyl-", "1,4-Dimethylnaphthalene", "NSC 61779"], "SMILES": "CC=1C2=C(C(C)=CC1)C=CC=C2", "physical_data": {"Molecular Weight": "156.22", "Molecular Formula": "C12H12", "Boiling Point": "268 \u00b0C", "Melting Point": "7.6 \u00b0C", "Density": "1.0160 g/cm\u00b3 @ Temp: 20 \u00b0C"}}