{"cas_no": "571-55-1", "cn_name": "\u4e59\u6c27\u57fa-2-\u4e9a\u7532\u57fa\u4e09\u6c1f\u4e59\u9170\u4e59\u9178\u4e59\u916f", "en_name": ["Ethyl 2-(ethoxymethylene)-4,4,4-trifluoro-3-oxobutanoate", "Butanoic acid, 2-(ethoxymethylene)-4,4,4-trifluoro-3-oxo-, ethyl ester", "Acetoacetic acid, 2-(ethoxymethylene)-4,4,4-trifluoro-, ethyl ester", "Ethyl 2-(ethoxymethylene)-4,4,4-trifluoro-3-oxobutanoate", "2-Ethoxymethylene-3-oxo-4,4,4-trifluorobutyric acid ethyl ester", "Ethyl 2-ethoxymethylene-4,4,4-trifluoroacetoacetate", "Ethyl 2-(ethoxymethylene)-4,4,4-trifluoro-3-oxobutyrate", "2-Ethoxymethylene-4,4,4-trifluoroacetoacetic acid ethyl ester", "Ethyl 3-(ethyloxy)-2-(trifluoroacetyl)-2-propenoate", "Ethyl 2-(Ethoxymethylidene)-4,4,4-trifluoro-3-oxobutanoate", "Ethyl 3-ethoxy-2-(trifluoroacetyl)acrylate", "Ethyl 4,4,4-trifluoro-2-(ethoxymethylene)-3-oxobutanoate"], "SMILES": "C(C(C(F)(F)F)=O)(C(OCC)=O)=COCC", "physical_data": {"Molecular Weight": "240.18", "Molecular Formula": "C9H11F3O4", "Boiling Point": "115-120 \u00b0C @ Press: 10 Torr", "Density": "1.239 g/cm\u00b3 @ Temp: 25 \u00b0C"}}