{"cas_no": "571-44-8", "cn_name": "4-Androsten-3b-ol-17-one", "en_name": ["3\u03b2-Hydroxyandrost-4-en-17-one", "Androst-4-en-17-one, 3-hydroxy-, (3\u03b2)-", "Androst-4-en-17-one, 3\u03b2-hydroxy-", "(3\u03b2)-3-Hydroxyandrost-4-en-17-one", "3\u03b2-Hydroxy-4-androstenone", "3\u03b2-Hydroxyandrost-4-en-17-one", "4-Androsten-3\u03b2-ol-17-one"], "SMILES": "CC12C3C(C4C(C)(CC3)C(=O)CC4)CCC1=CC(O)CC2", "physical_data": {"Molecular Weight": "288.42", "Molecular Formula": "C19H28O2", "Melting Point": "135-137 \u00b0C"}}