{"cas_no": "57103-03-4", "cn_name": "3,6-\u4e8c\u6c30\u57fa-9H-\u5494\u5511", "en_name": ["9H-Carbazole-3,6-dicarbonitrile", "9H-Carbazole-3,6-dicarbonitrile", "3,6-Dicyanocarbazole", "3,6-Dicyano-9H-carbazole", "Carbazole-3,6-Dicarbonitrile"], "SMILES": "C(#N)C=1C=C2C=3C(NC2=CC1)=CC=C(C#N)C3", "physical_data": {"Molecular Weight": "217.23", "Molecular Formula": "C14H7N3", "Melting Point": "&gt;360 \u00b0C"}}