{"cas_no": "57103-01-2", "cn_name": "3,6-\u4e8c\u7532\u6c27\u57fa-9H-\u5494\u5511", "en_name": ["3,6-Dimethoxy-9H-carbazole", "9H-Carbazole, 3,6-dimethoxy-", "3,6-Dimethoxy-9H-carbazole", "3,6-Dimethoxycarbazole", "6-Dimethoxy-9H-carbazole"], "SMILES": "O(C)C=1C=C2C=3C(NC2=CC1)=CC=C(OC)C3", "physical_data": {"Molecular Weight": "227.26", "Molecular Formula": "C14H13NO2", "Melting Point": "131-133 \u00b0C"}}