{"cas_no": "57102-98-4", "cn_name": "9-\u4e59\u57fa-3-\u5494\u5511\u7fa7\u9178", "en_name": ["9-Ethyl-9H-carbazole-3-carboxylic acid", "9H-Carbazole-3-carboxylic acid, 9-ethyl-", "9-Ethyl-9H-carbazole-3-carboxylic acid", "3-Carboxy-N-ethylcarbazole", "3-Carboxy-9-ethylcarbazole", "9-Ethyl-3-carbazolecarboxylic acid"], "SMILES": "C(C)N1C=2C(C=3C1=CC=CC3)=CC(C(O)=O)=CC2", "physical_data": {"Molecular Weight": "239.27", "Molecular Formula": "C15H13NO2", "Melting Point": "225 \u00b0C"}}