{"cas_no": "57113-91-4", "cn_name": "2-\u6c28\u57fa-3-\u785d\u57fa\u82ef\u7532\u9178\u7532\u916f", "en_name": ["Benzoic acid, 2-amino-3-nitro-, methyl ester", "Benzoic acid, 2-amino-3-nitro-, methyl ester", "Anthranilic acid, 3-nitro-, methyl ester", "Methyl 3-nitroanthranilate", "Methyl 2-Amino-3-nitrobenzoate", "2-Amino-3-nitrobenzoic acid methyl ester"], "SMILES": "C(OC)(=O)C1=C(N)C(N(=O)=O)=CC=C1", "physical_data": {"Molecular Weight": "196.16", "Molecular Formula": "C8H8N2O4", "Melting Point": "95-96 \u00b0C"}}