{"cas_no": "571190-30-2", "cn_name": "\u5e15\u5e03\u6614\u5229\u5e03\uff08palbociclib\uff09", "en_name": ["Palbociclib", "Pyrido[2,3-d]pyrimidin-7(8H)-one, 6-acetyl-8-cyclopentyl-5-methyl-2-[[5-(1-piperazinyl)-2-pyridinyl]amino]-", "6-Acetyl-8-cyclopentyl-5-methyl-2-[[5-(1-piperazinyl)-2-pyridinyl]amino]pyrido[2,3-d]pyrimidin-7(8H)-one", "6-Acetyl-8-cyclopentyl-5-methyl-2-[[5-(piperazin-1-yl)pyridin-2-yl]amino]-8H-pyrido[2,3-d]pyrimidin-7-one", "PD 0332991", "PD 332991", "Palbociclib", "6-Acetyl-8-cyclopentyl-5-methyl-2-((5-(1-piperazinyl)-2-pyridinyl)amino)pyrido[2,3-d]pyridin-7(8H)-one", "Ibrance", "PD 991", "Palbocyclib"], "SMILES": "O=C1N(C=2C(C(C)=C1C(C)=O)=CN=C(NC3=CC=C(C=N3)N4CCNCC4)N2)C5CCCC5", "physical_data": {"Molecular Weight": "447.53", "Molecular Formula": "C24H29N7O2", "Melting Point": "200 \u00b0C"}}