{"cas_no": "571170-77-9", "cn_name": "LAROPIPRANT", "en_name": ["Laropiprant", "Cyclopent[b]indole-3-acetic acid, 4-[(4-chlorophenyl)methyl]-7-fluoro-1,2,3,4-tetrahydro-5-(methylsulfonyl)-, (3R)-", "(3R)-4-[(4-Chlorophenyl)methyl]-7-fluoro-1,2,3,4-tetrahydro-5-(methylsulfonyl)cyclopent[b]indole-3-acetic acid", "MK 0524", "Laropiprant", "Cardaptive", "(R)-2-(4-(4-Chlorobenzyl)-7-fluoro-5-(methylsulfonyl)-1,2,3,4-tetrahydrocyclopenta[b]indol-3-yl)acetic acid"], "SMILES": "C(N1C=2C(C3=C1C(CC(O)=O)CC3)=CC(F)=CC2S(C)(=O)=O)C4=CC=C(Cl)C=C4", "physical_data": {"Molecular Weight": "435.90", "Molecular Formula": "C21H19ClFNO4S", "Melting Point": "175 \u00b0C"}}