{"cas_no": "571188-59-5", "cn_name": "4-(6-\u6c28\u57fa\u5421\u5576-3-\u57fa)\u54cc\u55ea-1-\u7fa7\u9178\u53d4\u4e01\u916f", "en_name": ["tert-Butyl 4-(6-aminopyridin-3-yl)piperazine-1-carboxylate", "1-Piperazinecarboxylic acid, 4-(6-amino-3-pyridinyl)-, 1,1-dimethylethyl ester", "4-(6-Aminopyridin-3-yl)piperazine-1-carboxylic acid tert-butyl ester", "4-(6-Aminopyridin-3-yl)piperazine-1-carboxylic acid tert-butyl ester", "tert-Butyl 4-(6-aminopyridin-3-yl)piperazine-1-carboxylate", "tert-Butyl 4-(6-amino-3-pyridyl)piperazine-1-carboxylate", "1-Boc-4-(6-aminopyridin-3-yl)piperazine"], "SMILES": "C(OC(C)(C)C)(=O)N1CCN(CC1)C=2C=CC(N)=NC2", "physical_data": {"Molecular Weight": "278.35", "Molecular Formula": "C14H22N4O2", "Melting Point": "130-132 \u00b0C"}}