{"cas_no": "571188-82-4", "cn_name": "\u5e15\u5e03\u6614\u5229\u5e03\u6742\u8d2823", "en_name": ["tert-Butyl 4-[6-(6-bromo-8-cyclopentyl-5-methyl-7-oxo-7,8-dihydro-pyrido[2,3-d]pyrimidin-2-ylamino)-pyridin-3-yl]-piperazine-1-carboxylate", "1-Piperazinecarboxylic acid, 4-[6-[(6-bromo-8-cyclopentyl-7,8-dihydro-5-methyl-7-oxopyrido[2,3-d]pyrimidin-2-yl)amino]-3-pyridinyl]-, 1,1-dimethylethyl ester", "tert-Butyl 4-[6-(6-bromo-8-cyclopentyl-5-methyl-7-oxo-7,8-dihydro-pyrido[2,3-d]pyrimidin-2-ylamino)-pyridin-3-yl]-piperazine-1-carboxylate"], "SMILES": "O=C1N(C=2C(C(C)=C1Br)=CN=C(NC3=CC=C(C=N3)N4CCN(C(OC(C)(C)C)=O)CC4)N2)C5CCCC5", "physical_data": {"Molecular Weight": "584.51", "Molecular Formula": "C27H34BrN7O3", "Melting Point": "&gt;250 \u00b0C"}}