{"cas_no": "5714-22-7", "cn_name": "\u4e94\u6c1f\u5316\u786b", "en_name": ["Sulfur fluoride (S2F10)", "Sulfur fluoride (S2F10)", "Disulfur decafluoride", "Disulfur decafluoride (S2F10)", "Decafluorodisulfur"], "SMILES": "S(S(F)(F)(F)(F)F)(F)(F)(F)(F)F", "physical_data": {"Molecular Weight": "254.11", "Molecular Formula": "F10S2", "Boiling Point": "-29 \u00b0C", "Melting Point": "-92 \u00b0C", "Density": "2.08 g/cm\u00b3"}}