{"cas_no": "57149-07-2", "cn_name": "\u8418\u54cc\u5730\u5c14", "en_name": ["Naftopidil", "1-Piperazineethanol, 4-(2-methoxyphenyl)-\u03b1-[(1-naphthalenyloxy)methyl]-", "4-(2-Methoxyphenyl)-\u03b1-[(1-naphthalenyloxy)methyl]-1-piperazineethanol", "Naftopidil", "(\u00b1)-Naftopidil", "Naftopil", "3-[4-(2-Methoxyphenyl)piperazinyl]-1-naphthyloxypropan-2-ol", "Avishot", "Flivas", "KT 611", "1-[4-(2-Methoxyphenyl)piperazin-1-yl]-3-naphthalen-1-yloxypropan-2-ol", "1-[4-(2-Methoxy-phenyl)-piperazin-1-yl]-3-(naphthalen-1-yloxy)-propan-2-ol"], "SMILES": "O(CC(CN1CCN(CC1)C2=C(OC)C=CC=C2)O)C=3C4=C(C=CC3)C=CC=C4", "physical_data": {"Molecular Weight": "392.49", "Molecular Formula": "C24H28N2O3", "Melting Point": "125-126 \u00b0C"}}