{"cas_no": "57149-08-3", "cn_name": "\u76d0\u9178\u8418\u54cc\u5730\u5c14", "en_name": ["1-Piperazineethanol, 4-(2-methoxyphenyl)-\u03b1-[(1-naphthalenyloxy)methyl]-, hydrochloride (1:2)", "1-Piperazineethanol, 4-(2-methoxyphenyl)-\u03b1-[(1-naphthalenyloxy)methyl]-, hydrochloride (1:2)", "1-Piperazineethanol, 4-(2-methoxyphenyl)-\u03b1-[(1-naphthalenyloxy)methyl]-, dihydrochloride", "Naftopidil dihydrochloride"], "SMILES": "O(CC(CN1CCN(CC1)C2=C(OC)C=CC=C2)O)C=3C4=C(C=CC3)C=CC=C4.Cl", "physical_data": {"Molecular Weight": "", "Molecular Formula": "C24H28N2O3.2ClH", "Melting Point": "212-213 \u00b0C"}}