{"cas_no": "5715-23-1", "cn_name": "3,4-\u4e8c\u7532\u57fa\u73af\u5df1\u9187", "en_name": ["3,4-Dimethylcyclohexanol", "Cyclohexanol, 3,4-dimethyl-", "3,4-Dimethylcyclohexanol", "3,4-Dimethylcyclohexyl alcohol", "NSC 62034", "3,4-Dimethylcyclohexan-1-ol"], "SMILES": "CC1C(C)CCC(O)C1", "physical_data": {"Molecular Weight": "128.21", "Molecular Formula": "C8H16O", "Boiling Point": "189 \u00b0C", "Melting Point": "-1 \u00b0C", "Density": "0.906 g/cm\u00b3 @ Temp: 20 \u00b0C"}}