{"cas_no": "5717-37-3", "cn_name": "\u4e59\u6c27\u7532\u9170\u57fa\u4e9a\u4e59\u57fa\u4e09\u82ef\u57fa\u81a6", "en_name": ["(Carbethoxyethylidene)triphenylphosphorane", "Propanoic acid, 2-(triphenylphosphoranylidene)-, ethyl ester", "Propionic acid, 2-(triphenylphosphoranylidene)-, ethyl ester", "Ethyl 2-(triphenylphosphoranylidene)propionate", "1-(Ethoxycarbonyl)ethylidenetriphenylphosphorane", "Ethyl 2-(triphenylphosphoranylidene)propanoate", "Triphenyl-\u03b1-ethoxycarbonylethylidenephosphorane", "2-(Triphenylphosphoranylidene)propanoic acid ethyl ester", "[\u03b1-(Ethoxycarbonyl)ethylidene]triphenylphosphorane", "\u03b1-(ethoxycarbonyl)ethylenetriphenylphosphorane", "1-Carboethoxyethylidenetriphenylphosphorane", "(Carbethoxyethylidene)triphenylphosphorane", "NSC 76468", "Ethyl methyltriphenylphosphoranylideneacetate", "(1-[Ethoxycarbonyl]ethylidene)triphenylphosphoran", "((Ethoxycarbonyl)ethylidene)triphenylphosphorane", "Ethyl 2-(triphenyl-\u03bb5-phosphanylidene)propanoate", "2-(Triphenyl-\u03bb*5*-phosphanylidene)-propionic acid ethyl ester", "Ethyl 2-(triphenylphosphanylidene)propanoate"], "SMILES": "P(=C(C(OCC)=O)C)(C1=CC=CC=C1)(C2=CC=CC=C2)C3=CC=CC=C3", "physical_data": {"Molecular Weight": "362.40", "Molecular Formula": "C23H23O2P", "Melting Point": "156-157 \u00b0C"}}