{"cas_no": "5718-75-2", "cn_name": "\u6849\u53f6\u786b\u919a", "en_name": ["(1R,4R,5R)-4,7,7-Trimethyl-6-thiabicyclo[3.2.1]octane", "6-Thiabicyclo[3.2.1]octane, 4,7,7-trimethyl-, (1R,4R,5R)-", "p-Menthane, 2,8-epithio-", "6-Thiabicyclo[3.2.1]octane, 4,7,7-trimethyl-, exo-(-)-", "(1R,4R,5R)-4,7,7-Trimethyl-6-thiabicyclo[3.2.1]octane", "Isothiocineole", "2,8-Epithio-p-menthane", "(-)-Isothiocineol"], "SMILES": "CC1(C)C2CC(S1)C(C)CC2", "physical_data": {"Molecular Weight": "170.31", "Molecular Formula": "C10H18S", "Boiling Point": "85-90 \u00b0C @ Press: 5 Torr"}}