{"cas_no": "57196-62-0", "cn_name": "6-\u7532\u6c27\u57fa-1,2,3,4-\u56db\u6c22\u5f02\u55b9\u5549\u76d0\u9178\u76d0", "en_name": ["Isoquinoline, 1,2,3,4-tetrahydro-6-methoxy-, hydrochloride (1:1)", "Isoquinoline, 1,2,3,4-tetrahydro-6-methoxy-, hydrochloride (1:1)", "Isoquinoline, 1,2,3,4-tetrahydro-6-methoxy-, hydrochloride", "Longimammatine hydrochloride", "6-Methoxy-1,2,3,4-tetrahydroisoquinoline hydrochloride"], "SMILES": "O(C)C=1C=C2C(=CC1)CNCC2.Cl", "physical_data": {"Molecular Weight": "", "Molecular Formula": "C10H13NO.ClH", "Melting Point": "233-234 \u00b0C"}}