{"cas_no": "5719-85-7", "cn_name": "4-\u7f9f\u57fa\u7532\u82ef\u78fa\u4e01\u8132", "en_name": ["Hydroxytolbutamide", "Benzenesulfonamide, N-[(butylamino)carbonyl]-4-(hydroxymethyl)-", "Urea, 1-butyl-3-[(\u03b1-hydroxy-p-tolyl)sulfonyl]-", "N-[(Butylamino)carbonyl]-4-(hydroxymethyl)benzenesulfonamide", "Hydroxymethylcarbutamide", "Hydroxytolbutamide", "Hydroxymethyltolbutamide", "1-Butyl-3-(p-hydroxymethylphenyl)sulfonylurea", "1-Butyl-3-[4-(hydroxymethyl)phenyl]sulfonylurea"], "SMILES": "S(NC(NCCCC)=O)(=O)(=O)C1=CC=C(CO)C=C1", "physical_data": {"Molecular Weight": "286.35", "Molecular Formula": "C12H18N2O4S", "Melting Point": "101-103 \u00b0C"}}