{"cas_no": "572-09-8", "cn_name": "2,3,4,6-\u56db\u4e59\u9170\u6c27\u57fa-alpha-D-\u5421\u5583\u8461\u8404\u7cd6\u6eb4\u5316\u7269", "en_name": ["\u03b1-Acetobromoglucose", "\u03b1-D-Glucopyranosyl bromide, 2,3,4,6-tetraacetate", "Glucopyranosyl bromide, tetraacetate, \u03b1-D-", "\u03b1-D-Glucopyranosyl bromide, tetraacetate", "\u03b1-Acetobromglucose", "2,3,4,6-Tetraacetyl-\u03b1-D-glucopyranosyl bromide", "Acetobromoglucose", "Tetra-O-acetyl-\u03b1-D-glucopyranosyl bromide", "\u03b1-Acetobromoglucose", "2,3,4,6-Tetra-O-acetyl-\u03b1-D-glucopyranosyl bromide", "\u03b1-D-Glucosyl bromide tetraacetate", "Acetobromglucose", "Tetra-O-acetyl-\u03b1-D-glucopyranosyl bromide", "Acetylbromoglucose", "2,3,4,6-Tetra-O-acetyl-\u03b1-D-bromoglucopyranose", "D-Acetobromoglucose", "Acetobromo-D-glucose", "Tetra-O-acetyl-\u03b1-D-glucosyl bromide", "\u03b1-Bromoglucose tetraacetate", "Acetobromo-\u03b1-D-glucose", "\u03b1-D-Acetobromoglucose", "1-Bromo-\u03b1-D-glucose tetraacetate", "\u03b1-D-Bromotetraacetylglucose", "2,3,4,6-Tetra-O-acetyl-1-\u03b1-bromo-D-glucopyranose", "1-Bromo-2,3,4,6-tetra(O-acetyl)-\u03b1-D-pyranoglucose", "\u03b1-D-Tetraacetylglucopyranosyl bromide", "1-Bromo-1-deoxy-2,3,4,6-tetra-O-acetyl-\u03b1-D-glucopyranose", "Tetra-O-acetyl-\u03b1-D-bromoglucose"], "SMILES": "O(C(C)=O)C1C(OC(C)=O)C(COC(C)=O)OC(Br)C1OC(C)=O", "physical_data": {"Molecular Weight": "411.20", "Molecular Formula": "C14H19BrO9", "Boiling Point": "0.125-30 \u00b0C @ Press: 5 x 10<sup>-4</sup> Torr", "Melting Point": "88.5 \u00b0C"}}