{"cas_no": "572-32-7", "cn_name": "\u963f\u4e9a\u9ec4\u7d20", "en_name": ["Ayanin", "4H-1-Benzopyran-4-one, 5-hydroxy-2-(3-hydroxy-4-methoxyphenyl)-3,7-dimethoxy-", "Flavone, 3\u2032,5-dihydroxy-3,4\u2032,7-trimethoxy-", "5-Hydroxy-2-(3-hydroxy-4-methoxyphenyl)-3,7-dimethoxy-4H-1-benzopyran-4-one", "Ayanin", "Quercetin 3,7,4\u2032-trimethyl ether", "3,7,4\u2032-Tri-O-methylquercetin", "Ayarin", "3,7,4\u2032-Trimethylquercetin", "5,3\u2032-Dihydroxy-3,7,4\u2032-trimethoxyflavone", "NSC 691652", "3,4\u2032,7-Trimethylquercetin"], "SMILES": "O(C)C1=C(OC=2C(C1=O)=C(O)C=C(OC)C2)C3=CC(O)=C(OC)C=C3", "physical_data": {"Molecular Weight": "344.32", "Molecular Formula": "C18H16O7", "Melting Point": "172-173 \u00b0C"}}