{"cas_no": "572-96-3", "cn_name": "\u4e8c\u6c22\u7ef4\u4ed6\u547d K1", "en_name": ["Dihydrovitamin K1", "1,4-Naphthalenediol, 2-methyl-3-[(2E,7R,11R)-3,7,11,15-tetramethyl-2-hexadecen-1-yl]-", "1,4-Naphthalenediol, 2-methyl-3-phytyl-, (E)-", "1,4-Naphthalenediol, 2-methyl-3-(3,7,11,15-tetramethyl-2-hexadecenyl)-, [R-[R*,R*-(E)]]-", "1,4-Naphthalenediol, 2-methyl-3-[(2E,7R,11R)-3,7,11,15-tetramethyl-2-hexadecenyl]-", "2-Methyl-3-[(2E,7R,11R)-3,7,11,15-tetramethyl-2-hexadecen-1-yl]-1,4-naphthalenediol", "Dihydrovitamin K1", "2-Methyl-3-phytyl-1,4-naphthohydroquinone", "\u03b1-Phyllohydroquinone", "Phylloquinone, dihydro-", "Phytonadiol", "Vitamin K1 hydroquinone", "Reduced phylloquinone"], "SMILES": "OC=1C2=C(C(O)=C(C)C1CC=C(CCCC(CCCC(CCCC(C)C)C)C)C)C=CC=C2", "physical_data": {"Molecular Weight": "452.71", "Molecular Formula": "C31H48O2", "Melting Point": "96-97 \u00b0C"}}