{"cas_no": "572-31-6", "cn_name": "\u9ec4\u675e\u82f7", "en_name": ["Engeletin", "4H-1-Benzopyran-4-one, 3-[(6-deoxy-\u03b1-L-mannopyranosyl)oxy]-2,3-dihydro-5,7-dihydroxy-2-(4-hydroxyphenyl)-, (2R,3R)-", "Engelitin", "4H-1-Benzopyran-4-one, 3-[(6-deoxy-\u03b1-L-mannopyranosyl)oxy]-2,3-dihydro-5,7-dihydroxy-2-(4-hydroxyphenyl)-, (2R-trans)-", "(2R,3R)-3-[(6-Deoxy-\u03b1-L-mannopyranosyl)oxy]-2,3-dihydro-5,7-dihydroxy-2-(4-hydroxyphenyl)-4H-1-benzopyran-4-one", "Engeletin", "Dihydrokaempferol 3-O-\u03b1-L-rhamnopyranoside", "Dihydrokaempferol 3-rhamnoside", "(+)-(2R,3R)-Dihydrokaempferol 3-O-\u03b1-L-rhamnoside", "(2R,3R)-Engelitin"], "SMILES": "O(C1C(OC=2C(C1=O)=C(O)C=C(O)C2)C3=CC=C(O)C=C3)C4C(O)C(O)C(O)C(C)O4", "physical_data": {"Molecular Weight": "434.39", "Molecular Formula": "C21H22O10", "Melting Point": "176-177 \u00b0C"}}