{"cas_no": "572-30-5", "cn_name": "\u6241\u84c4\u82f7", "en_name": ["Avicularin", "4H-1-Benzopyran-4-one, 3-(\u03b1-L-arabinofuranosyloxy)-2-(3,4-dihydroxyphenyl)-5,7-dihydroxy-", "Avicularin", "3-(\u03b1-L-Arabinofuranosyloxy)-2-(3,4-dihydroxyphenyl)-5,7-dihydroxy-4H-1-benzopyran-4-one", "Avicularoside", "Quercetin 3-\u03b1-L-arabinofuranoside", "Avicularine", "Quercetin 3-O-\u03b1-L-arabinofuranoside"], "SMILES": "O(C1=C(OC=2C(C1=O)=C(O)C=C(O)C2)C3=CC(O)=C(O)C=C3)C4OC(CO)C(O)C4O", "physical_data": {"Molecular Weight": "434.35", "Molecular Formula": "C20H18O11", "Melting Point": "207-208 \u00b0C"}}