{"cas_no": "5720-05-8", "cn_name": "4-\u7532\u82ef\u787c\u9178", "en_name": ["p-Tolylboronic acid", "Boronic acid, B-(4-methylphenyl)-", "p-Tolueneboronic acid", "Boronic acid, (4-methylphenyl)-", "B-(4-Methylphenyl)boronic acid", "p-Methylbenzeneboronic acid", "p-Tolylboronic acid", "4-Methylbenzeneboronic acid", "(p-Methylphenyl)boronic acid", "(4-Methylphenyl)boronic acid", "4-Tolylboronic acid", "4-Tolueneboronic acid", "NSC 62870"], "SMILES": "B(O)(O)C1=CC=C(C)C=C1", "physical_data": {"Molecular Weight": "135.96", "Molecular Formula": "C7H9BO2", "Melting Point": "240 \u00b0C"}}