{"cas_no": "5720-07-0", "cn_name": "4-\u7532\u6c27\u57fa\u82ef\u787c\u9178", "en_name": ["(4-Methoxyphenyl)boronic acid", "Boronic acid, B-(4-methoxyphenyl)-", "Benzeneboronic acid, p-methoxy-", "Boronic acid, (4-methoxyphenyl)-", "B-(4-Methoxyphenyl)boronic acid", "(4-Methoxyphenyl)boronic acid", "p-Anisylboronic acid", "p-Methoxybenzeneboronic acid", "4-Methoxybenzeneboronic acid", "(p-Methoxyphenyl)boronic acid", "4-Anisylboronic acid", "[4-(Methyloxy)phenyl]boronic acid", "4-Methoxylphenylboronic acid", "p-Methoxyphenylboronic"], "SMILES": "B(O)(O)C1=CC=C(OC)C=C1", "physical_data": {"Molecular Weight": "151.96", "Molecular Formula": "C7H9BO3", "Melting Point": "205-207 \u00b0C"}}