{"cas_no": "5720-06-9", "cn_name": "2-\u7532\u6c27\u57fa\u82ef\u57fa\u787c\u9178", "en_name": ["2-Methoxyphenylboronic acid", "Boronic acid, B-(2-methoxyphenyl)-", "Benzeneboronic acid, o-methoxy-", "Boronic acid, (2-methoxyphenyl)-", "B-(2-Methoxyphenyl)boronic acid", "o-Methoxybenzeneboronic acid", "o-Anisylboronic acid", "o-Methoxyphenylboronic acid", "(2-Methoxyphenyl)boric acid", "2-Methoxybenzeneboronic acid", "2-Methoxyphenylboronic acid"], "SMILES": "O(C)C1=C(B(O)O)C=CC=C1", "physical_data": {"Molecular Weight": "151.96", "Molecular Formula": "C7H9BO3", "Melting Point": "80-81 \u00b0C"}}