{"cas_no": "5721-91-5", "cn_name": "\u7678\u9178\u777e\u4e38\u7d20", "en_name": ["Testosterone, decanoate", "Androst-4-en-3-one, 17-[(1-oxodecyl)oxy]-, (17\u03b2)-", "Testosterone, decanoate", "Decanoic acid, ester with testosterone", "(17\u03b2)-17-[(1-Oxodecyl)oxy]androst-4-en-3-one", "Testosterone caprinate", "Testosterone 17-caprinate", "Testosterone 17-decanoate", "Testosterone caprate", "17\u03b2-Hydroxyandrost-4-en-3-one decanoate", "NSC 26642", "4-Androstene-17\u03b2-ol-3-one decanoate"], "SMILES": "CC12C3C(C4C(C)(CC3)C(OC(CCCCCCCCC)=O)CC4)CCC1=CC(=O)CC2", "physical_data": {"Molecular Weight": "442.67", "Molecular Formula": "C29H46O3", "Melting Point": "38 \u00b0C"}}