{"cas_no": "5722-11-2", "cn_name": "2,2-\u4e8c\u7532\u57fa\u73af\u4e19\u8148", "en_name": ["2,2-Dimethylcyclopropanecarbonitrile", "Cyclopropanecarbonitrile, 2,2-dimethyl-", "2,2-Dimethylcyclopropanecarbonitrile", "2,2-Dimethylcyclopropyl cyanide", "NSC 92356", "2,2-Dimethylcyclopropane-1-carbonitrile"], "SMILES": "C(#N)C1C(C)(C)C1", "physical_data": {"Molecular Weight": "95.14", "Molecular Formula": "C6H9N", "Boiling Point": "154.4-155.5 \u00b0C", "Density": "0.8536 g/cm\u00b3 @ Temp: 20 \u00b0C"}}