{"cas_no": "57224-50-7", "cn_name": "L-\u0393-\u7532\u57fa\u5f02\u4eae\u6c28\u9178", "en_name": ["(2S)-2-Amino-4,4-dimethylpentanoic acid", "Pentanoic acid, 2-amino-4,4-dimethyl-, (2S)-", "L-Leucine, 4-methyl-", "(2S)-2-Amino-4,4-dimethylpentanoic acid", "L-\u03b3-Methylleucine", "4-Methyl-L-leucine", "L-2-Amino-4,4-dimethylpentanoic acid", "\u03b3-Methyl-L-leucine", "(2S)-2-Amino-4,4-dimethylpentanoic acid", "3-tert-Butyl-L-alanine", "L-\u03b1-Neopentylglycine"], "SMILES": "C(CC(C)(C)C)(C(O)=O)N", "physical_data": {"Molecular Weight": "145.20", "Molecular Formula": "C7H15NO2", "Melting Point": "208-210 \u00b0C"}}