{"cas_no": "57234-29-4", "cn_name": "1,3-\u53cc(\u7532\u6c27\u57fa\u7532\u6c27\u57fa)\u82ef", "en_name": ["1,3-Bis(methoxymethoxy)benzene", "Benzene, 1,3-bis(methoxymethoxy)-", "Benzene, m-bis(methoxymethoxy)-", "1,3-Bis(methoxymethoxy)benzene", "1,3-Bis(O-methoxymethyl)resorcinol", "1,3-Di(methoxymethoxy)benzene"], "SMILES": "O(COC)C1=CC(OCOC)=CC=C1", "physical_data": {"Molecular Weight": "198.22", "Molecular Formula": "C10H14O4", "Boiling Point": "128-129 \u00b0C @ Press: 5 Torr", "Density": "1.1262 g/cm\u00b3 @ Temp: 20 \u00b0C"}}