{"cas_no": "5724-56-1", "cn_name": "2,3-\u4e8c\u7532\u57fa\u82ef\u8148", "en_name": ["2,3-Dimethylbenzonitrile", "Benzonitrile, 2,3-dimethyl-", "2,3-Dimethylbenzonitrile"], "SMILES": "C(#N)C1=C(C)C(C)=CC=C1", "physical_data": {"Molecular Weight": "131.17", "Molecular Formula": "C9H9N", "Boiling Point": "112 \u00b0C @ Press: 25 Torr", "Melting Point": "16.4 \u00b0C"}}