{"cas_no": "57248-88-1", "cn_name": "\u5e15\u7c73\u81a6\u9178\u94a0", "en_name": ["Pamidronate disodium", "Phosphonic acid, P,P\u2032-(3-amino-1-hydroxypropylidene)bis-, sodium salt (1:2)", "Phosphonic acid, (3-amino-1-hydroxypropylidene)bis-, disodium salt", "3-Amino-1-hydroxypropane-1,1-diphosphonic acid disodium salt", "APD", "Disodium 3-amino-1-hydroxypropane-1,1-diphosphonate", "CGP 23339A", "Disodium pamidronate", "Aredia", "Pamidronate disodium", "CGP 23339AE", "Aminomux", "Pamidronic acid disodium salt", "APD (pharmaceutical)", "Disodium [3-amino-1-hydroxy-1-(hydroxy-oxidophosphoryl)propyl]-hydroxyphosphinate", "Pamimed"], "SMILES": "C(P(=O)(O)O)(P(=O)(O)O)(CCN)O.[Na]", "physical_data": {"Molecular Weight": "", "Molecular Formula": "C3H11NO7P2.2Na", "Melting Point": "236-238 \u00b0C"}}