{"cas_no": "57252-83-2", "cn_name": "3-\u7532\u57fa\u73af\u4e01\u9178", "en_name": ["3-Methylcyclobutanecarboxylic acid", "Cyclobutanecarboxylic acid, 3-methyl-", "3-Methylcyclobutanecarboxylic acid", "3-Methylcyclobutylcarboxylic acid", "3-Methylcyclobutane-1-carboxylic acid"], "SMILES": "C(O)(=O)C1CC(C)C1", "physical_data": {"Molecular Weight": "114.14", "Molecular Formula": "C6H10O2", "Boiling Point": "204-207 \u00b0C @ Press: 764.7 Torr", "Density": "1.0061 g/cm\u00b3 @ Temp: 20 \u00b0C"}}