{"cas_no": "5725-91-7", "cn_name": "\u4e59\u6c27\u57fa\u8bd5\u5364\u7075", "en_name": ["7-Ethoxyresorufin", "3H-Phenoxazin-3-one, 7-ethoxy-", "7-Ethoxy-3H-phenoxazin-3-one", "Resorufin ethyl ether", "7-Ethoxyphenoxazin-3-one", "O-Ethylresorufin", "7-Ethoxyresorufin", "7-Ethoxyphenoxazone"], "SMILES": "O(CC)C=1C=C2C(N=C3C(O2)=CC(=O)C=C3)=CC1", "physical_data": {"Molecular Weight": "241.24", "Molecular Formula": "C14H11NO3", "Melting Point": "235-236 \u00b0C"}}