{"cas_no": "57260-73-8", "cn_name": "N-\u53d4\u4e01\u6c27\u7fb0\u57fa-1,2-\u4e59\u4e8c\u80fa", "en_name": ["N-BOC-ethylenediamine", "Carbamic acid, N-(2-aminoethyl)-, 1,1-dimethylethyl ester", "Carbamic acid, (2-aminoethyl)-, 1,1-dimethylethyl ester", "N-(tert-Butoxycarbonyl)ethylenediamine", "tert-Butyl (2-aminoethyl)carbamate", "N-(tert-Butoxycarbonyl)-1,2-ethanediamine", "1,1-Dimethylethyl (2-aminoethyl)carbamate", "tert-Butyl [(2-aminoethyl)amino]formate", "N-(t-Butyloxycarbonyl)ethylenediamine", "N-(tert-Butoxycarbonyl)-1,2-diaminoethane", "2-[(tert-Butoxycarbonyl)amino]ethylamine", "1-[(tert-Butoxycarbonyl)amino]-2-aminoethane", "mono-BOC-ethylenediamine", "N-(2-Aminoethyl)carbamic acid tert-butyl ester", "N-BOC-ethylenediamine", "N-(2-Aminoethyl)carbamic acid 1,1-dimethylethyl ester", "2-(N-tert-Butoxycarbonylamino)ethylamine", "(2-Aminoethyl)carbamic acid 1,1-dimethylethyl ester", "(2-Aminoethyl)carbamic acid tert-butyl ester", "N-Boc-1,2-diaminoethane", "N-Boc-ethane-1,2-diamine", "2-[[(tert-Butyloxy)carbonyl]amino]ethylamine", "2-(tert-Butoxycarbonyl)amino-1-aminoethane", "N-tert-Butoxycarbonyl-1,2-ethylenediamine", "tert-Butyl N-(2-aminoethyl)carbamate", "[(tert-Butyloxy)carbonyl]-1,2-ethylenediamine", "N-Boc-1,2-ethylendiamine"], "SMILES": "O(C(NCCN)=O)C(C)(C)C", "physical_data": {"Molecular Weight": "160.21", "Molecular Formula": "C7H16N2O2", "Melting Point": "64-66 \u00b0C"}}