{"cas_no": "57260-67-0", "cn_name": "1-(3,4-\u4e8c\u6c2f\u82ef\u57fa)\u54cc\u55ea", "en_name": ["1-(3,4-Dichlorophenyl)piperazine", "Piperazine, 1-(3,4-dichlorophenyl)-", "1-(3,4-Dichlorophenyl)piperazine", "N-3,4-Dichlorophenylpiperazine"], "SMILES": "ClC=1C=C(C=CC1Cl)N2CCNCC2", "physical_data": {"Molecular Weight": "231.12", "Molecular Formula": "C10H12Cl2N2", "Boiling Point": "202 \u00b0C @ Press: 15 Torr", "Melting Point": "175-177 \u00b0C"}}