{"cas_no": "5726-19-2", "cn_name": "2-\u7532\u57fa\u73af\u5df1\u57fa\u918b\u9178\u916f", "en_name": ["2-Methylcyclohexyl acetate", "Cyclohexanol, 2-methyl-, 1-acetate", "Cyclohexanol, 2-methyl-, acetate", "o-Methylcyclohexyl acetate", "2-Methylcyclohexyl acetate", "NSC 109144"], "SMILES": "O(C(C)=O)C1C(C)CCCC1", "physical_data": {"Molecular Weight": "156.22", "Molecular Formula": "C9H16O2", "Boiling Point": "176-178 \u00b0C @ Press: 760 Torr", "Density": "0.9370 g/cm\u00b3 @ Temp: 20 \u00b0C"}}