{"cas_no": "57267-78-4", "cn_name": "\u7f9f\u4e59\u57fa\u78fa\u9178\u94f5\u76d0", "en_name": ["Ammonium isethionate", "Ethanesulfonic acid, 2-hydroxy-, ammonium salt (1:1)", "Ethanesulfonic acid, 2-hydroxy-, monoammonium salt", "Ammonium isethionate"], "SMILES": "C(S(=O)(=O)O)CO.N", "physical_data": {"Molecular Weight": "", "Molecular Formula": "C2H6O4S.H3N", "Melting Point": "137-138 \u00b0C"}}