{"cas_no": "57260-71-6", "cn_name": "1-\u53d4\u4e01\u6c27\u7fb0\u57fa\u54cc\u55ea", "en_name": ["N-BOC-Piperazine", "1-Piperazinecarboxylic acid, 1,1-dimethylethyl ester", "1-(tert-Butoxycarbonyl)piperazine", "N-(tert-Butoxycarbonyl)piperazine", "tert-Butyl 1-piperazinecarboxylate", "1-[(1,1-Dimethylethoxy)carbonyl]piperazine", "1,1-Dimethylethyl 1-piperazinecarboxylate", "1-(tert-Butyloxycarbonyl)piperazine", "1-Piperazinecarboxylic acid tert-butyl ester", "N-tert-Butyloxycarbonylpiperazine", "N-BOC-Piperazine", "4-(tert-Butyloxycarbonyl)piperazine", "1,1-Dimethylethyl piperazin-1-carboxylate", "tert-Butoxy piperazine-1-carboxylate", "Mono-tert-butoxycarbonylpiperazine", "tert-Butyl piperazin-1-carboxylate", "N-tert-Butoxycarbonylpiperazine", "CD 3-3022"], "SMILES": "C(OC(C)(C)C)(=O)N1CCNCC1", "physical_data": {"Molecular Weight": "186.25", "Molecular Formula": "C9H18N2O2", "Melting Point": "70 \u00b0C"}}