{"cas_no": "57279-70-6", "cn_name": "2-\u6eb4\u4e59\u57fa4-\u785d\u57fa\u82ef\u57fa\u919a", "en_name": ["4-Bromo-2-ethoxy-1-nitrobenzene", "Benzene, 4-bromo-2-ethoxy-1-nitro-", "4-Bromo-2-ethoxy-1-nitrobenzene", "4-(2-Bromoethoxy)-1-nitrobenzene", "2-Nitro-5-bromophenetole", "5-Bromo-2-nitrophenyl ethyl ether"], "SMILES": "N(=O)(=O)C1=C(OCC)C=C(Br)C=C1", "physical_data": {"Molecular Weight": "246.06", "Molecular Formula": "C8H8BrNO3", "Melting Point": "79.5-80.5 \u00b0C"}}