{"cas_no": "5728-52-9", "cn_name": "4-\u8054\u82ef\u4e59\u9178", "en_name": ["Felbinac", "[1,1\u2032-Biphenyl]-4-acetic acid", "4-Biphenylacetic acid", "Acetic acid, (4-biphenylyl)-", "p-Biphenylylacetic acid", "4-Biphenylylacetic acid", "p-Biphenylacetic acid", "4-Carboxymethylbiphenyl", "LY 61017", "L 141", "LJC 10141", "Felbinac", "Cl 83544", "Traxam", "4-Phenylphenylacetic acid", "BPAA", "Seltouch", "NSC 16284", "2-(Biphenyl-4-yl)acetic acid", "([1,1\u2032-Biphenyl]-4-yl)acetic acid", "2-([1,1\u2032-Biphenyl]-4-yl)acetic acid", "(Biphenyl-4-yl)acetic acid", "Felbion 35", "2-(4-Phenylphenyl)acetic acid"], "SMILES": "C(C(O)=O)C1=CC=C(C=C1)C2=CC=CC=C2", "physical_data": {"Molecular Weight": "212.24", "Molecular Formula": "C14H12O2", "Melting Point": "160.5 \u00b0C"}}