{"cas_no": "57280-22-5", "cn_name": "4,4-\u4e8c\u7532\u57fa-3,5,8-\u4e09\u6c27\u6742\u53cc\u73af[5,1,0]\u8f9b\u70f7", "en_name": ["4,4-Dimethyl-3,5,8-trioxabicyclo[5.1.0]octane", "3,5,8-Trioxabicyclo[5.1.0]octane, 4,4-dimethyl-", "4,4-Dimethyl-3,5,8-trioxabicyclo[5.1.0]octane"], "SMILES": "CC1(C)OCC2C(O2)CO1", "physical_data": {"Molecular Weight": "144.17", "Molecular Formula": "C7H12O3", "Boiling Point": "86 \u00b0C @ Press: 15 Torr"}}