{"cas_no": "5728-20-1", "cn_name": "3,4-\u4e8c\u6c2f-1,2,5-\u567b\u4e8c\u5511", "en_name": ["3,4-Dichloro-1,2,5-thiadiazole", "1,2,5-Thiadiazole, 3,4-dichloro-", "3,4-Dichloro-1,2,5-thiadiazole", "4,5-Dichloro-2,1,3-thiadiazole"], "SMILES": "ClC=1C(Cl)=NSN1", "physical_data": {"Molecular Weight": "155.01", "Molecular Formula": "C2Cl2N2S", "Boiling Point": "85 \u00b0C @ Press: 82-85 Torr", "Density": "1.642 g/cm\u00b3 @ Temp: 25 \u00b0C"}}