{"cas_no": "5728-33-6", "cn_name": "3'-\u7532\u57fa\u8054\u82ef-4-\u7532\u9178", "en_name": ["3\u2032-Methyl[1,1\u2032-biphenyl]-4-carboxylic acid", "[1,1\u2032-Biphenyl]-4-carboxylic acid, 3\u2032-methyl-", "4-Biphenylcarboxylic acid, 3\u2032-methyl-", "3\u2032-Methyl[1,1\u2032-biphenyl]-4-carboxylic acid", "3\u2032-Methyl-4-biphenylcarboxylic acid", "3\u2032-Methyl-1,1\u2032-biphenyl-4-carboxylic acid"], "SMILES": "CC=1C=C(C2=CC=C(C(O)=O)C=C2)C=CC1", "physical_data": {"Molecular Weight": "212.24", "Molecular Formula": "C14H12O2", "Melting Point": "188-189 \u00b0C"}}