{"cas_no": "57292-45-2", "cn_name": "BOC-D-4-\u6c1f\u82ef\u4e19\u6c28\u9178", "en_name": ["(2R)-2-(tert-Butoxycarbonylamino)-3-(4-fluorophenyl)propanoic acid", "D-Phenylalanine, N-[(1,1-dimethylethoxy)carbonyl]-4-fluoro-", "N-[(1,1-Dimethylethoxy)carbonyl]-4-fluoro-D-phenylalanine", "(2R)-2-(tert-Butoxycarbonylamino)-3-(4-fluorophenyl)propanoic acid", "(2R)-3-(4-Fluorophenyl)-2-[(2-methylpropan-2-yl)oxycarbonylamino]propanoic acid"], "SMILES": "C(C(NC(OC(C)(C)C)=O)C(O)=O)C1=CC=C(F)C=C1", "physical_data": {"Molecular Weight": "283.30", "Molecular Formula": "C14H18FNO4", "Melting Point": "131 \u00b0C"}}