{"cas_no": "57297-29-7", "cn_name": "\u73af\u4e19\u7532\u8112\u76d0\u9178\u76d0", "en_name": ["Cyclopropanecarboximidamide, hydrochloride (1:1)", "Cyclopropanecarboximidamide, hydrochloride (1:1)", "Cyclopropanecarboximidamide, monohydrochloride", "Cyclopropanecarboxamidine hydrochloride", "Cyclopropylcarbamidine hydrochloride", "Cyclopropylformamidine hydrochloride", "Cyclopropanecarboxamidine hydrochloride salt"], "SMILES": "C(=N)(N)C1CC1.Cl", "physical_data": {"Molecular Weight": "", "Molecular Formula": "C4H8N2.ClH", "Melting Point": "55-58 \u00b0C"}}