{"cas_no": "573-57-9", "cn_name": "1,4-\u73af\u6c27-1,4-\u4e8c\u6c22\u8418", "en_name": ["1,4-Dihydro-1,4-epoxynaphthalene", "1,4-Epoxynaphthalene, 1,4-dihydro-", "1,4-Dihydro-1,4-epoxynaphthalene", "1,4-Dihydronaphthalene-1,4-endo-oxide", "1,4-Epoxy-1,4-dihydronaphthalene", "7-Oxabenzonorbornadiene", "1,4-Dihydronaphthalene-1,4-oxide", "1,4-Dihydronaphthalene-1,4-epoxide", "NSC 101863", "Benzooxanorbornadiene"], "SMILES": "C1=2C(C3OC1C=C3)=CC=CC2", "physical_data": {"Molecular Weight": "144.17", "Molecular Formula": "C10H8O", "Boiling Point": "104-105 \u00b0C @ Press: 9 Torr", "Melting Point": "40 \u00b0C"}}