{"cas_no": "573-54-6", "cn_name": "2-\u6eb4-3-\u785d\u57fa\u82ef\u7532\u9178", "en_name": ["2-Bromo-3-nitrobenzoic acid", "Benzoic acid, 2-bromo-3-nitro-", "2-Bromo-3-nitrobenzoic acid", "NSC 9006"], "SMILES": "C(O)(=O)C1=C(Br)C(N(=O)=O)=CC=C1", "physical_data": {"Molecular Weight": "246.01", "Molecular Formula": "C7H4BrNO4", "Melting Point": "178-179 \u00b0C"}}