{"cas_no": "573-56-8", "cn_name": "2\uff0c6-\u4e8c\u785d\u57fa\u82ef\u915a", "en_name": ["2,6-Dinitrophenol", "Phenol, 2,6-dinitro-", "2,6-Dinitrophenol", "o-Dinitrophenol", "Phenol, \u03b2-dinitro-", "2,6-DNP", "\u03b2-Dinitrophenol", "NSC 6215"], "SMILES": "N(=O)(=O)C1=C(O)C(N(=O)=O)=CC=C1", "physical_data": {"Molecular Weight": "184.11", "Molecular Formula": "C6H4N2O5", "Melting Point": "63-64 \u00b0C"}}