{"cas_no": "573-17-1", "cn_name": "9-\u6eb4\u83f2", "en_name": ["9-Bromophenanthrene", "Phenanthrene, 9-bromo-", "9-Bromophenanthrene", "9-Phenanthryl bromide", "NSC 400708"], "SMILES": "BrC1=C2C(=C3C(=C1)C=CC=C3)C=CC=C2", "physical_data": {"Molecular Weight": "257.13", "Molecular Formula": "C14H9Br", "Boiling Point": "190 \u00b0C @ Press: 1.2 Torr", "Melting Point": "64.5 \u00b0C"}}