{"cas_no": "573-20-6", "cn_name": "\u7ef4\u751f\u7d20 K4", "en_name": ["Vitamin K4", "1,4-Naphthalenediol, 2-methyl-, 1,4-diacetate", "1,4-Naphthalenediol, 2-methyl-, diacetate", "Vitamin K4", "Davitamon-K", "1,4-Diacetoxy-2-methylnaphthalene", "Kapilin", "Kapilon", "Kappaxan", "Kativ powder", "Kayvite", "Menadiol diacetate", "2-Methyl-1,4-naphthohydroquinone diacetate", "Prokayvit Oral", "Vitamin K diacetate", "Vitavel K", "Acetomenaphthone", "Adaprin", "Pafavit", "Davitamon-K-oral", "Kapathrom", "2-Methyl-1,4-naphthoquinol diacetate", "NSC 403062", "Acetomenaphtone"], "SMILES": "O(C(C)=O)C=1C2=C(C(OC(C)=O)=C(C)C1)C=CC=C2", "physical_data": {"Molecular Weight": "258.27", "Molecular Formula": "C15H14O4", "Melting Point": "113 \u00b0C"}}