{"cas_no": "573-44-4", "cn_name": "LIRIODENDRIN", "en_name": ["Liriodendrin", "\u03b2-D-Glucopyranoside, [(1S,3aR,4S,6aR)-tetrahydro-1H,3H-furo[3,4-c]furan-1,4-diyl]bis(2,6-dimethoxy-4,1-phenylene) bis-", "Liriodendrin", "\u03b2-D-Glucopyranoside, (tetrahydro-1H,3H-furo[3,4-c]furan-1,4-diyl)bis(2,6-dimethoxy-4,1-phenylene) bis-, [1S-(1\u03b1,3a\u03b1,4\u03b1,6a\u03b1)]-", "1H,3H-Furo[3,4-c]furan, \u03b2-D-glucopyranoside deriv.", "[(1S,3aR,4S,6aR)-Tetrahydro-1H,3H-furo[3,4-c]furan-1,4-diyl]bis(2,6-dimethoxy-4,1-phenylene) bis-\u03b2-D-glucopyranoside", "(+)-Syringaresinol di-O-\u03b2-D-glucoside", "Acanthoside D", "(+)-Syringaresinol di-O-\u03b2-D-glucopyranoside", "(+)-Syringaresinol-di-\u03b2-D-glucopyranoside", "(+)-Syringaresinol 4,4\u2032-di-O-\u03b2-D-glucopyranoside", "Syringaresinol 4,4\u2032-O-bis-\u03b2-D-glucoside", "Syringaresinol-4,4\u2032-di-O-\u03b2-D-glucoside"], "SMILES": "O(C)C=1C=C(C2C3C(C(OC3)C4=CC(OC)=C(OC5OC(CO)C(O)C(O)C5O)C(OC)=C4)CO2)C=C(OC)C1OC6OC(CO)C(O)C(O)C6O", "physical_data": {"Molecular Weight": "742.72", "Molecular Formula": "C34H46O18", "Melting Point": "263-265 \u00b0C"}}