{"cas_no": "573-11-5", "cn_name": "2,3,4-\u4e09\u7532\u6c27\u57fa\u82ef\u7532\u9178", "en_name": ["2,3,4-Trimethoxybenzoic acid", "Benzoic acid, 2,3,4-trimethoxy-", "2,3,4-Trimethoxybenzoic acid"], "SMILES": "O(C)C1=C(OC)C(OC)=CC=C1C(O)=O", "physical_data": {"Molecular Weight": "212.20", "Molecular Formula": "C10H12O5", "Boiling Point": "142-146 \u00b0C @ Press: 0.5 Torr", "Melting Point": "100.5 \u00b0C"}}