{"cas_no": "573-58-0", "cn_name": "\u521a\u679c\u7ea2", "en_name": ["Congo red", "1-Naphthalenesulfonic acid, 3,3\u2032-[[1,1\u2032-biphenyl]-4,4\u2032-diylbis(2,1-diazenediyl)]bis[4-amino-, sodium salt (1:2)", "C.I. Direct Red 28, disodium salt", "1-Naphthalenesulfonic acid, 3,3\u2032-[[1,1\u2032-biphenyl]-4,4\u2032-diylbis(azo)]bis[4-amino-, disodium salt", "C.I. 22120", "Atlantic Congo Red", "Atul Congo Red", "Azocard Red Congo", "Benzo Congo Red", "Brasilamina Congo 4B", "Congo Red L", "Congo Red N", "Congo Red 4B", "Congo Red CR", "Congo Red H", "Congo Red R", "Congo Red RS", "Congo Red M", "Congo Red W", "Congo Red 4BX", "Cotton Red L", "Cotton Red 4BC", "Diacotton Congo Red", "Direct Red C", "Direct Red K", "Direct Red 28", "Direct Red DC-CF", "Erie Congo 4B", "Cotton Red 5B", "Hispamin Congo 4B", "Kayaku Congo Red", "Mitsui Congo Red", "Peeramine Congo Red", "Sugai Congo Red", "Tertrodirect Red C", "Trisulfon Congo Red", "Vondacel Red CL", "Congo red", "C.I. Direct Red 28", "Congo Red sodium salt", "Congo Red WS", "Haemomedical", "Haemonorm", "Hemorrhagyl", "Solucongo", "Red K (dye)", "Congo Red K", "Direct Congo Red", "Congo Red TS", "Direct Red R", "Congo red disodium salt", "Direct Scarlet 4B", "Congo Red 4BS", "Congo Red", "MeSH ID: D003224"], "SMILES": "S(=O)(=O)(O)C=1C2=C(C(N)=C(N=NC3=CC=C(C=C3)C4=CC=C(N=NC5=C(N)C6=C(C(S(=O)(=O)O)=C5)C=CC=C6)C=C4)C1)C=CC=C2.[Na]", "physical_data": {"Molecular Weight": "", "Molecular Formula": "C32H24N6O6S2.2Na", "Melting Point": "&gt;360 \u00b0C"}}