{"cas_no": "573-40-0", "cn_name": "\u9178\u85e4\u5b50\u918c", "en_name": ["Rapanone", "2,5-Cyclohexadiene-1,4-dione, 2,5-dihydroxy-3-tridecyl-", "p-Benzoquinone, 2,5-dihydroxy-3-tridecyl-", "Rapanone", "2,5-Dihydroxy-3-tridecyl-2,5-cyclohexadiene-1,4-dione", "Ropanone", "NSC 340285"], "SMILES": "C(CCCCCCCCCCCC)C=1C(=O)C(O)=CC(=O)C1O", "physical_data": {"Molecular Weight": "322.44", "Molecular Formula": "C19H30O4", "Melting Point": "141-142 \u00b0C"}}