{"cas_no": "573-97-7", "cn_name": "1-\u6eb4-2-\u8418\u915a", "en_name": ["1-Bromo-2-naphthol", "2-Naphthalenol, 1-bromo-", "2-Naphthol, 1-bromo-", "1-Bromo-2-naphthalenol", "\u03b1-Bromo-\u03b2-naphthol", "1-Bromo-\u03b2-naphthol", "1-Bromo-2-naphthol", "Disthemin", "Wormin", "1-Bromo-2-hydroxynaphthalene", "1-Bromonaphthalen-2-ol", "NSC 60275"], "SMILES": "BrC=1C2=C(C=CC1O)C=CC=C2", "physical_data": {"Molecular Weight": "223.07", "Molecular Formula": "C10H7BrO", "Boiling Point": "130 \u00b0C", "Melting Point": "84 \u00b0C"}}