{"cas_no": "573-03-5", "cn_name": "4-\u6c1f-1-\u8418\u7532\u9178", "en_name": ["4-Fluoro-1-naphthoic acid", "1-Naphthalenecarboxylic acid, 4-fluoro-", "1-Naphthoic acid, 4-fluoro-", "4-Fluoro-1-naphthalenecarboxylic acid", "4-Fluoro-1-naphthoic acid", "NSC 10831"], "SMILES": "C(O)(=O)C=1C2=C(C(F)=CC1)C=CC=C2", "physical_data": {"Molecular Weight": "190.17", "Molecular Formula": "C11H7FO2", "Melting Point": "224.5-225 \u00b0C"}}