{"cas_no": "573-98-8", "cn_name": "1\uff0c2-\u4e8c\u7532\u57fa\u8418", "en_name": ["1,2-Dimethylnaphthalene", "Naphthalene, 1,2-dimethyl-", "1,2-Dimethylnaphthalene", "NSC 59832"], "SMILES": "CC=1C2=C(C=CC1C)C=CC=C2", "physical_data": {"Molecular Weight": "156.22", "Molecular Formula": "C12H12", "Boiling Point": "266.5 \u00b0C", "Melting Point": "1.6 \u00b0C", "Density": "1.0118 g/cm\u00b3 @ Temp: 19.0 \u00b0C"}}