{"cas_no": "5731-01-1", "cn_name": "4-\u4e59\u9170\u57fa-4-\u6eb4\u4ee3\u8054\u82ef", "en_name": ["1-(4\u2032-Bromo[1,1\u2032-biphenyl]-4-yl)ethanone", "Ethanone, 1-(4\u2032-bromo[1,1\u2032-biphenyl]-4-yl)-", "Acetophenone, 4\u2032-(p-bromophenyl)-", "1-(4\u2032-Bromo[1,1\u2032-biphenyl]-4-yl)ethanone", "4-Acetyl-4\u2032-bromobiphenyl", "4\u2032-Bromo-4-acetylbiphenyl", "4-(4-Bromophenyl)acetophenone", "4-Acetyl-4\u2032-bromo-1,1\u2032-biphenyl", "NSC 58059", "1-(4\u2032-Bromobiphenyl-4-yl)ethanone", "4-(4\u2032-Bromophenyl)acetophenone", "1-[4-(4-Bromophenyl)phenyl]ethanone", "1-[4-(4-Bromophenyl)phenyl]ethan-1-one"], "SMILES": "C(C)(=O)C1=CC=C(C=C1)C2=CC=C(Br)C=C2", "physical_data": {"Molecular Weight": "275.14", "Molecular Formula": "C14H11BrO", "Melting Point": "131 \u00b0C"}}