{"cas_no": "57319-65-0", "cn_name": "6-\u6c28\u57fa\u56db\u6c2f\u82ef\u915e", "en_name": ["6-Aminophthalide", "1(3H)-Isobenzofuranone, 6-amino-", "Phthalide, 6-amino-", "6-Amino-1(3H)-isobenzofuranone", "6-Aminophthalide", "NSC 49585", "6-Amino-2-benzofuran-1(3H)-one", "6-Amino-1,3-dihydroisobenzofuran-1-one", "6-Amino-3H-isobenzofuran-1-one", "5-Amino-3-oxo-1,3-dihydroisobenzofuran"], "SMILES": "O=C1C=2C(=CC=C(N)C2)CO1", "physical_data": {"Molecular Weight": "149.15", "Molecular Formula": "C8H7NO2", "Melting Point": "177-178 \u00b0C"}}