{"cas_no": "57320-63-5", "cn_name": "4-(\u4e8c\u6c1f\u7532\u6c27\u57fa)\u82ef\u7532\u9170\u6c2f", "en_name": ["4-(Difluoromethoxy)benzoyl chloride", "Benzoyl chloride, 4-(difluoromethoxy)-", "4-(Difluoromethoxy)benzoyl chloride", "p-(Difluoromethoxy)benzoyl chloride"], "SMILES": "O(C(F)F)C1=CC=C(C(Cl)=O)C=C1", "physical_data": {"Molecular Weight": "206.57", "Molecular Formula": "C8H5ClF2O2", "Boiling Point": "113 \u00b0C @ Press: 10 Torr"}}