{"cas_no": "5733-86-8", "cn_name": "1-\u82c4\u57fa-5-\u6c27\u4ee3-\u5421\u54af\u5549-3-\u7532\u9178", "en_name": ["5-Oxo-1-(phenylmethyl)-3-pyrrolidinecarboxylic acid", "3-Pyrrolidinecarboxylic acid, 5-oxo-1-(phenylmethyl)-", "3-Pyrrolidinecarboxylic acid, 1-benzyl-5-oxo-", "5-Oxo-1-(phenylmethyl)-3-pyrrolidinecarboxylic acid", "1-Benzyl-4-carboxy-2-pyrrolidone", "1-Benzyl-5-oxo-3-pyrrolidinecarboxylic acid", "Web 2124", "1-Benzyl-2-oxopyrrolidine-4-carboxylic acid", "NSC 165809"], "SMILES": "C(N1CC(C(O)=O)CC1=O)C2=CC=CC=C2", "physical_data": {"Molecular Weight": "219.24", "Molecular Formula": "C12H13NO3", "Melting Point": "143-144 \u00b0C"}}