{"cas_no": "57334-36-8", "cn_name": "4-\u6c2f-8-\u7f9f\u57fa\u55b9\u5549", "en_name": ["4-Chloro-8-hydroxyquinoline", "8-Quinolinol, 4-chloro-", "4-Chloro-8-quinolinol", "NSC 673455", "4-Chloro-8-hydroxyquinoline"], "SMILES": "ClC=1C2=C(C(O)=CC=C2)N=CC1", "physical_data": {"Molecular Weight": "179.60", "Molecular Formula": "C9H6ClNO", "Melting Point": "142-143 \u00b0C"}}