{"cas_no": "57339-57-8", "cn_name": "6-\u6eb4-8-\u6c28\u57fa\u55b9\u5549", "en_name": ["6-Bromo-8-quinolinamine", "8-Quinolinamine, 6-bromo-", "Quinoline, 8-amino-6-bromo-", "6-Bromo-8-quinolinamine", "6-Bromo-8-aminoquinoline", "8-Amino-6-bromoquinoline"], "SMILES": "NC=1C2=C(C=C(Br)C1)C=CC=N2", "physical_data": {"Molecular Weight": "223.07", "Molecular Formula": "C9H7BrN2", "Melting Point": "78 \u00b0C"}}