{"cas_no": "5734-64-5", "cn_name": "2-\u6c28\u57fa-4-\u6c2f-6-\u7532\u6c27\u57fa\u5627\u5576", "en_name": ["4-Chloro-6-methoxy-2-pyrimidinamine", "2-Pyrimidinamine, 4-chloro-6-methoxy-", "Pyrimidine, 2-amino-4-chloro-6-methoxy-", "4-Chloro-6-methoxy-2-pyrimidinamine", "2-Amino-4-chloro-6-methoxypyrimidine", "4-Methoxy-6-chloro-2-aminopyrimidine", "NSC 28420", "(4-Chloro-6-methoxypyrimidin-2-yl)amine", "2-Amino-6-chloro-4-methoxypyrimidine", "6-Methoxy-4-chloro-2-aminopyrimidine"], "SMILES": "O(C)C=1C=C(Cl)N=C(N)N1", "physical_data": {"Molecular Weight": "159.57", "Molecular Formula": "C5H6ClN3O", "Melting Point": "164-166 \u00b0C"}}