{"cas_no": "57356-49-7", "cn_name": "2-\u82ef\u6c28\u57fa\u5627\u5576", "en_name": ["N-Phenyl-2-pyrimidinamine", "2-Pyrimidinamine, N-phenyl-", "Pyrimidine, 2-anilino-", "N-Phenyl-2-pyrimidinamine", "2-Anilinopyrimidine", "2-(Phenylamino)pyrimidine"], "SMILES": "N(C1=CC=CC=C1)C=2N=CC=CN2", "physical_data": {"Molecular Weight": "171.20", "Molecular Formula": "C10H9N3", "Melting Point": "116 \u00b0C"}}