{"cas_no": "5736-91-4", "cn_name": "4-\u620a\u6c27\u57fa\u82ef\u7532\u919b", "en_name": ["4-(Pentyloxy)benzaldehyde", "Benzaldehyde, 4-(pentyloxy)-", "Benzaldehyde, p-(pentyloxy)-", "4-(Pentyloxy)benzaldehyde", "p-(Pentyloxy)benzaldehyde", "4-Pentoxybenzaldehyde", "p-Pentoxybenzaldehyde", "4-n-Pentoxybenzaldehyde", "NSC 69105"], "SMILES": "O(CCCCC)C1=CC=C(C=O)C=C1", "physical_data": {"Molecular Weight": "192.25", "Molecular Formula": "C12H16O2", "Boiling Point": "145-146 \u00b0C @ Press: 5 Torr"}}