{"cas_no": "57369-32-1", "cn_name": "\u54af\u55b9\u916e", "en_name": ["Pyroquilon", "4H-Pyrrolo[3,2,1-ij]quinolin-4-one, 1,2,5,6-tetrahydro-", "1,2,5,6-Tetrahydro-4H-pyrrolo[3,2,1-ij]quinolin-4-one", "Pyroquilone", "CGA 49104", "4-Lilolidone", "Fongorene", "CG 114", "Coratop", "Fungorene", "Pyroquilon", "4-Oxo-1,2,5,6-tetrahydro-4H-pyrrolo[3,2,1-ij]quinoline", "1,2,5,6-Tetrahydropyrrolo[3,2,1-ij]quinolin-4-one", "5,6-Dihydro-1H-pyrrolo[3,2,1-ij]quinolin-4(2H)-one"], "SMILES": "O=C1N2C3=C(CC1)C=CC=C3CC2", "physical_data": {"Molecular Weight": "173.21", "Molecular Formula": "C11H11NO", "Melting Point": "112 \u00b0C"}}