{"cas_no": "5736-85-6", "cn_name": "4-\u4e19\u6c27\u57fa\u82ef\u7532\u919b", "en_name": ["4-Propoxybenzaldehyde", "Benzaldehyde, 4-propoxy-", "Benzaldehyde, p-propoxy-", "4-Propoxybenzaldehyde", "p-Propoxybenzaldehyde", "1,4-Propoxybenzaldehyde", "NSC 32509", "NSC 406729", "p-n-Propoxybenzaldehyde", "4-Propyloxybenzaldehyde"], "SMILES": "O(CCC)C1=CC=C(C=O)C=C1", "physical_data": {"Molecular Weight": "164.20", "Molecular Formula": "C10H12O2", "Boiling Point": "129-130 \u00b0C @ Press: 10 Torr", "Melting Point": "268 \u00b0C"}}