{"cas_no": "5736-94-7", "cn_name": "4-\u6b63\u5df1\u6c27\u57fa\u82ef\u7532\u919b", "en_name": ["4-(Hexyloxy)benzaldehyde", "Benzaldehyde, 4-(hexyloxy)-", "Benzaldehyde, p-(hexyloxy)-", "4-(Hexyloxy)benzaldehyde", "4-Hexoxybenzaldehyde", "p-(Hexyloxy)benzaldehyde", "4-(n-Hexyloxy)benzaldehyde", "NSC 508752"], "SMILES": "O(CCCCCC)C1=CC=C(C=O)C=C1", "physical_data": {"Molecular Weight": "206.28", "Molecular Formula": "C13H18O2", "Boiling Point": "154-155 \u00b0C"}}