{"cas_no": "5736-89-0", "cn_name": "4-(\u6b63\u4e01\u6c27\u57fa)\u82ef\u4e59\u916e", "en_name": ["1-(4-Butoxyphenyl)ethanone", "Ethanone, 1-(4-butoxyphenyl)-", "Acetophenone, 4\u2032-butoxy-", "1-(4-Butoxyphenyl)ethanone", "p-Butoxyacetophenone", "4\u2032-Butoxyacetophenone", "NSC 91024", "1-(4-Butoxyphenyl)ethan-1-one"], "SMILES": "O(CCCC)C1=CC=C(C(C)=O)C=C1", "physical_data": {"Molecular Weight": "192.25", "Molecular Formula": "C12H16O2", "Boiling Point": "127-133 \u00b0C @ Press: 3 Torr", "Melting Point": "25 \u00b0C"}}