{"cas_no": "5736-03-8", "cn_name": "2,2-\u4e8c\u7532\u57fa-1,3-\u4e8c\u6c27\u620a\u73af-4-\u7532\u919b", "en_name": ["2,2-Dimethyl-1,3-dioxolane-4-carboxaldehyde", "1,3-Dioxolane-4-carboxaldehyde, 2,2-dimethyl-", "2,2-Dimethyl-1,3-dioxolane-4-carboxaldehyde", "Acetone, cyclic formylethylene acetal", "Glyceraldehyde, cyclic acetal with acetone", "2,3-O-Isopropylideneglyceraldehyde", "Racemic-solketyl aldehyde", "2,2-Dimethyl-1,3-dioxolane-4-carbaldehyde"], "SMILES": "C(=O)C1OC(C)(C)OC1", "physical_data": {"Molecular Weight": "130.14", "Molecular Formula": "C6H10O3", "Boiling Point": "100 \u00b0C", "Melting Point": "105-110 \u00b0C"}}