{"cas_no": "5736-88-9", "cn_name": "4-\u4e01\u6c27\u57fa\u82ef\u7532\u919b", "en_name": ["4-Butoxybenzaldehyde", "Benzaldehyde, 4-butoxy-", "Benzaldehyde, p-butoxy-", "4-Butoxybenzaldehyde", "p-Butoxybenzaldehyde", "NSC 508762", "4-n-Butoxybenzaldehyde"], "SMILES": "O(CCCC)C1=CC=C(C=O)C=C1", "physical_data": {"Molecular Weight": "178.23", "Molecular Formula": "C11H14O2", "Boiling Point": "285 \u00b0C", "Melting Point": "184 \u00b0C"}}