{"cas_no": "5736-86-7", "cn_name": "4-\u4e19\u6c27\u57fa\u82ef\u4e59\u916e", "en_name": ["1-(4-Propoxyphenyl)ethanone", "Ethanone, 1-(4-propoxyphenyl)-", "Acetophenone, 4\u2032-propoxy-", "1-(4-Propoxyphenyl)ethanone", "p-Propoxyacetophenone", "4\u2032-Propoxyacetophenone", "NSC 91022", "4-Propyloxyacetophenone", "1-(4-Propoxyphenyl)ethan-1-one"], "SMILES": "C(C)(=O)C1=CC=C(OCCC)C=C1", "physical_data": {"Molecular Weight": "178.23", "Molecular Formula": "C11H14O2", "Boiling Point": "145-148 \u00b0C @ Press: 11 Torr", "Melting Point": "21 \u00b0C"}}