{"cas_no": "57378-68-4", "cn_name": "Delta-\u7a81\u53a5\u916e", "en_name": ["\u03b4-Damascone", "2-Buten-1-one, 1-(2,6,6-trimethyl-3-cyclohexen-1-yl)-", "1-(2,6,6-Trimethyl-3-cyclohexen-1-yl)-2-buten-1-one", "\u03b4-Damascone", "1-(2,6,6-Trimethyl-3-cyclohexenyl)-2-buten-1-one"], "SMILES": "C(C=CC)(=O)C1C(C)(C)CC=CC1C", "physical_data": {"Molecular Weight": "192.30", "Molecular Formula": "C13H20O", "Boiling Point": "253 \u00b0C"}}