{"cas_no": "57381-43-8", "cn_name": "2,5-\u4e8c\u6eb4\u82ef\u7532\u9178\u7532\u916f", "en_name": ["Methyl 2,5-dibromobenzoate", "Benzoic acid, 2,5-dibromo-, methyl ester", "Methyl 2,5-dibromobenzoate"], "SMILES": "C(OC)(=O)C1=C(Br)C=CC(Br)=C1", "physical_data": {"Molecular Weight": "293.94", "Molecular Formula": "C8H6Br2O2", "Melting Point": "46-48 \u00b0C"}}