{"cas_no": "57382-97-5", "cn_name": "2-\u567b\u5429\u4e59\u9178\u4e59\u916f", "en_name": ["2-Thiopheneacetic acid, ethyl ester", "2-Thiopheneacetic acid, ethyl ester", "Ethyl 2-thienylacetate", "Ethyl 2-thiopheneacetate", "2-Thienylacetic acid ethyl ester", "Ethyl 2-(2-thienyl)acetate", "Ethyl 2-(thiophen-2-yl)acetate"], "SMILES": "C(C(OCC)=O)C1=CC=CS1", "physical_data": {"Molecular Weight": "170.23", "Molecular Formula": "C8H10O2S", "Boiling Point": "124-129 \u00b0C @ Press: 26 Torr", "Melting Point": "~0.7 \u00b0C (approx)"}}