{"cas_no": "57381-37-0", "cn_name": "2-\u6eb4-5-\u6c2f\u82ef\u8148", "en_name": ["2-Bromo-5-chlorobenzonitrile", "Benzonitrile, 2-bromo-5-chloro-", "2-Bromo-5-chlorobenzonitrile"], "SMILES": "C(#N)C1=C(Br)C=CC(Cl)=C1", "physical_data": {"Molecular Weight": "216.46", "Molecular Formula": "C7H3BrClN", "Melting Point": "137-140 \u00b0C"}}