{"cas_no": "57381-51-8", "cn_name": "4-\u6c2f-2-\u6c1f\u82ef\u8148", "en_name": ["4-Chloro-2-fluorobenzonitrile", "Benzonitrile, 4-chloro-2-fluoro-", "4-Chloro-2-fluorobenzonitrile", "2-Fluoro-4-chlorobenzonitrile"], "SMILES": "C(#N)C1=C(F)C=C(Cl)C=C1", "physical_data": {"Molecular Weight": "155.56", "Molecular Formula": "C7H3ClFN", "Melting Point": "57-58 \u00b0C"}}