{"cas_no": "57381-26-7", "cn_name": "\u4f0a\u7d22\u62c9\u5b9a", "en_name": ["Irsogladine", "1,3,5-Triazine-2,4-diamine, 6-(2,5-dichlorophenyl)-", "6-(2,5-Dichlorophenyl)-1,3,5-triazine-2,4-diamine", "2,4-Diamino-6-(2,5-dichlorophenyl)-s-triazine", "2,4-Diamino-6-(2,5-dichlorophenyl)-1,3,5-triazine", "Irsogladine", "Dicloguamine"], "SMILES": "ClC1=C(C=2N=C(N)N=C(N)N2)C=C(Cl)C=C1", "physical_data": {"Molecular Weight": "256.09", "Molecular Formula": "C9H7Cl2N5", "Melting Point": "268-269 \u00b0C"}}