{"cas_no": "574-25-4", "cn_name": "6-\u758f\u57fa\u560c\u5464\u6838\u82f7", "en_name": ["6-Thioinosine", "Inosine, 6-thio-", "9H-Purine-6(1H)-thione, 9-\u03b2-D-ribofuranosyl-", "9H-Purine-6-thiol, 9-\u03b2-D-ribofuranosyl-", "6-Thioinosine", "6-Mercaptopurine ribonucleoside", "6-Mercaptopurine riboside", "9-\u03b2-D-Ribofuranosyl-6-mercaptopurine", "Thioinosine", "6-Thiopurine riboside", "9-\u03b2-D-Ribofuranosyl-9H-purine-6-thiol", "6-Mercapto-9-\u03b2-D-ribofuranosyl-9H-purine", "6H-Purine-6-thione, 1,9-dihydro-9-\u03b2-D-ribofuranosyl-", "Ribosyl-6-thiopurine", "9-\u03b2-D-Ribofuranosylpurine-6-thione", "6-Thiopurine ribonucleoside", "NSC 4911", "6-MPR", "6-Mercaptoinosine", "9-\u03b2-D-Ribofuranosylpurine-6-thiol", "6-Mercaptopurine 9-\u03b2-D-ribofuranoside", "9-\u03b2-D-Ribofuranosyl-9H-purine-6-thione", "Chembridge 5676375"], "SMILES": "OC1C(N2C3=C(N=C2)C(=S)N=CN3)OC(CO)C1O", "physical_data": {"Molecular Weight": "284.29", "Molecular Formula": "C10H12N4O4S", "Melting Point": "198-200 \u00b0C (decomp)"}}