{"cas_no": "574-19-6", "cn_name": "1-\u4e59\u9170\u57fa-2-\u8418\u915a", "en_name": ["1-Acetyl-2-naphthol", "Ethanone, 1-(2-hydroxy-1-naphthalenyl)-", "1\u2032-Acetonaphthone, 2\u2032-hydroxy-", "1-Acetonaphthone, 2-hydroxy-", "1-(2-Hydroxy-1-naphthalenyl)ethanone", "2-Hydroxy-1-naphthyl methyl ketone", "1-Acetyl-2-hydroxynaphthalene", "1-Acetyl-2-naphthol", "2\u2032-Hydroxy-1\u2032-acetonaphthone", "Methyl 2-hydroxy-1-naphthyl ketone", "1-Acetyl-2-naphthalenol", "2-Hydroxy-1-acetylnaphthalene", "1-(2-Hydroxy-1-naphthyl)ethanone", "1-(2-Hydroxynaphthalen-1-yl)ethanone", "1-(2-Hydroxynaphthalen-1-yl)ethan-1-one", "1-(2-Hydroxy-1-naphthyl)ethan-1-one"], "SMILES": "C(C)(=O)C=1C2=C(C=CC1O)C=CC=C2", "physical_data": {"Molecular Weight": "186.21", "Molecular Formula": "C12H10O2", "Boiling Point": "178 \u00b0C @ Press: 13 Torr", "Melting Point": "60 \u00b0C"}}