{"cas_no": "574-00-5", "cn_name": "1,2-\u4e8c\u7f9f\u57fa\u8418", "en_name": ["1,2-Dihydroxynaphthalene", "1,2-Naphthalenediol", "1,2-Dihydroxynaphthalene", "1-Hydroxy-2-naphthol", "1,2-Naphthoquinol", "NSC 401609", "D 2299"], "SMILES": "OC=1C2=C(C=CC1O)C=CC=C2", "physical_data": {"Molecular Weight": "160.17", "Molecular Formula": "C10H8O2", "Melting Point": "103 \u00b0C"}}