{"cas_no": "574-84-5", "cn_name": "\u79e6\u76ae\u7d20", "en_name": ["Fraxetin", "2H-1-Benzopyran-2-one, 7,8-dihydroxy-6-methoxy-", "Coumarin, 7,8-dihydroxy-6-methoxy-", "Fraxetin", "7,8-Dihydroxy-6-methoxy-2H-1-benzopyran-2-one", "7,8-Dihydroxy-6-methoxycoumarin", "Fraxetol", "6-Methoxy-7,8-dihydroxycoumarin", "Fratexin"], "SMILES": "OC1=C2C(=CC(OC)=C1O)C=CC(=O)O2", "physical_data": {"Molecular Weight": "208.17", "Molecular Formula": "C10H8O5", "Melting Point": "231 \u00b0C"}}