{"cas_no": "574-93-6", "cn_name": "\u915e\u9752", "en_name": ["Phthalocyanine", "29H,31H-Phthalocyanine", "Phthalocyanine", "C.I. 74100", "Blue Pigment B", "C.I. Pigment Blue 16", "Heliogen Blue G", "Heliogen Blue LG", "Monastral Fast Blue G", "PV-Fast Blue G", "Tetrabenzoporphyrazine", "Tetrabenzotetraazaporphine", "Vulcafor Fast Blue G", "Vulcanosine Fast Bremen Blue G", "Vynamon Blue G", "Tetrabenzo[b,g,l,q]porphyrazine", "Irgalite Blue GLS", "5,28:14,19-Diimino-7,12:26,21-dinitrilotetrabenzo[c,h,m,r][1,6,11,16]tetraazacycloeicosine", "Irgazin Blue 3GT", "Heliogen Blue 7560", "Lionol Blue KW", "Heliogen Blue 7800", "Polymon Blue G", "Monolite Fast Blue GS", "Pigment Blue Green Phthalocyanine U", "\u03c7-Phthalocyanine", "Heliogen Blue L 7560", "Fastogen Blue 8110", "Liophoton", "Fastogen Blue 8120", "Liophoton THP", "Fastogen Blue 8120B", "Fastogen Blue 8120BS", "Heliogen Blue D 7560", "Fastogen Blue GS", "8120S", "Heliogen Blue D 7565", "Progen I", "Liophoton TPA 891", "TPA 891", "NA 570", "Heliogen Blue D 7490", "Photo Fine TPA 891", "MCP 80", "Heliogen Blue L 7460", "Pigment Blue 16", "CG 1-1", "PB 16", "P 0355", "Fastogen Blue 8130", "Heliogen Blue 7565", "L 7460"], "SMILES": "C=12C(=C3NC1NC=4C=5C(C(N4)=NC=6C=7C(C(=NC8=NC(=N3)C=9C8=CC=CC9)N6)=CC=CC7)=CC=CC5)C=CC=C2", "physical_data": {"Molecular Weight": "514.54", "Molecular Formula": "C32H18N8", "Melting Point": "&gt;550 \u00b0C"}}