{"cas_no": "574-92-5", "cn_name": "4-\u7f9f\u57fa-7-\u4e09\u6c1f\u7532\u57fa-3-\u55b9\u5549\u7fa7\u9178", "en_name": ["4-Hydroxy-7-(trifluoromethyl)-3-quinolinecarboxylic acid", "3-Quinolinecarboxylic acid, 4-hydroxy-7-(trifluoromethyl)-", "4-Hydroxy-7-(trifluoromethyl)-3-quinolinecarboxylic acid", "3-Carboxy-4-hydroxy-7-trifluoromethylquinoline", "7-Trifluoromethyl-4-hydroxyquinoline-3-carboxylic acid"], "SMILES": "OC=1C2=C(C=C(C(F)(F)F)C=C2)N=CC1C(O)=O", "physical_data": {"Molecular Weight": "257.17", "Molecular Formula": "C11H6F3NO3", "Melting Point": "250 \u00b0C (decomp)"}}