{"cas_no": "574-17-4", "cn_name": "1-\u4e59\u9170\u57fa\u975b\u7ea2", "en_name": ["Acetylisatin", "1H-Indole-2,3-dione, 1-acetyl-", "Indole-2,3-dione, 1-acetyl-", "Isatin, 1-acetyl-", "1-Acetyl-1H-indole-2,3-dione", "Acetylisatin", "1-Acetylisatin", "N-Acetylisatin", "1-Acetyl-2,3-dioxoindole", "1-Acetylindole-2,3-dione", "NSC 2761", "N-Acetyl-indole-2,3-dione", "1-Acetylindoline-2,3-dione", "1-Acetyl-2,3-dihydro-1H-indole-2,3-dione"], "SMILES": "C(C)(=O)N1C=2C(C(=O)C1=O)=CC=CC2", "physical_data": {"Molecular Weight": "189.17", "Molecular Formula": "C10H7NO3", "Melting Point": "141 \u00b0C"}}