{"cas_no": "574-09-4", "cn_name": "\u5b89\u606f\u9999\u4e59\u919a", "en_name": ["(\u00b1)-Benzoin ethyl ether", "Ethanone, 2-ethoxy-1,2-diphenyl-", "Acetophenone, 2-ethoxy-2-phenyl-", "2-Ethoxy-1,2-diphenylethanone", "Benzoin ethyl ether", "2-Ethoxy-2-phenylacetophenone", "Ethyl benzoin ether", "2-Ethoxybenzoin", "Ethoxybenzoin", "dl-Benzoin ethyl ether", "(\u00b1)-Benzoin ethyl ether", "Seikuol BEE", "PS 8A", "2-Ethoxy-1,2-diphenylethan-1-one"], "SMILES": "C(C(=O)C1=CC=CC=C1)(OCC)C2=CC=CC=C2", "physical_data": {"Molecular Weight": "240.30", "Molecular Formula": "C16H16O2", "Boiling Point": "201-202 \u00b0C @ Press: 5 Torr", "Melting Point": "62 \u00b0C"}}