{"cas_no": "574-96-9", "cn_name": "1-\u7f9f\u57fa-2-\u5948\u7532\u919b", "en_name": ["1-Hydroxy-2-naphthaldehyde", "2-Naphthalenecarboxaldehyde, 1-hydroxy-", "2-Naphthaldehyde, 1-hydroxy-", "1-Hydroxy-2-naphthalenecarboxaldehyde", "1-Hydroxy-2-naphthaldehyde", "1-Hydroxy-2-formylnaphthalene", "1-Hydroxynaphthalene-2-carbaldehyde"], "SMILES": "OC=1C2=C(C=CC1C=O)C=CC=C2", "physical_data": {"Molecular Weight": "172.18", "Molecular Formula": "C11H8O2", "Melting Point": "59 \u00b0C"}}