{"cas_no": "574-66-3", "cn_name": "\u4e8c\u82ef\u7532\u916e\u809f", "en_name": ["Benzophenone, oxime", "Methanone, diphenyl-, oxime", "Benzophenone, oxime", "Diphenyl ketoxime", "Diphenylmethanone oxime", "(Diphenylmethylene)hydroxylamine", "NSC 20724", "Benzophenone oxime"], "SMILES": "C(=NO)(C1=CC=CC=C1)C2=CC=CC=C2", "physical_data": {"Molecular Weight": "197.23", "Molecular Formula": "C13H11NO", "Melting Point": "141 \u00b0C"}}