{"cas_no": "574-12-9", "cn_name": "\u5927\u8c46\u5f02\u9ec4\u916e", "en_name": ["Isoflavone", "4H-1-Benzopyran-4-one, 3-phenyl-", "Isoflavone", "3-Phenyl-4H-1-benzopyran-4-one", "3-Phenylchromone", "Isoflavone 80", "NSC 135405", "3-Phenyl-4-chromone", "Isoflavone 20", "3-Phenyl-4H-chromen-4-one", "3-Phenylchromen-4-one"], "SMILES": "O=C1C(=COC=2C1=CC=CC2)C3=CC=CC=C3", "physical_data": {"Molecular Weight": "222.24", "Molecular Formula": "C15H10O2", "Melting Point": "132 \u00b0C"}}