{"cas_no": "574-98-1", "cn_name": "N-(2-\u6eb4\u4e59\u57fa)\u90bb\u82ef\u4e8c\u7532\u9170\u4e9a\u80fa", "en_name": ["N-(2-Bromoethyl)phthalimide", "1H-Isoindole-1,3(2H)-dione, 2-(2-bromoethyl)-", "Phthalimide, N-(2-bromoethyl)-", "2-(2-Bromoethyl)-1H-isoindole-1,3(2H)-dione", "\u03b2-Phthalimidoethyl bromide", "N-(2-Bromoethyl)phthalimide", "N-(\u03b2-Bromoethyl)phthalimide", "1-Bromo-2-phthalimidoethane", "2-(2-Bromoethyl)phthalimide", "2-Phthalimidoethyl bromide", "2-(2-Bromoethyl)isoindole-1,3-dione", "NSC 2688", "2-(2-Bromoethyl)isoindoline-1,3-dione", "2-(2-Bromoethyl)-2,3-dihydro-1H-isoindole-1,3-dione", "2-(1,3-Dioxo-1,3-dihydro-isoindol-2-yl)-ethyl bromide"], "SMILES": "O=C1C=2C(C(=O)N1CCBr)=CC=CC2", "physical_data": {"Molecular Weight": "254.08", "Molecular Formula": "C10H8BrNO2", "Boiling Point": "167 \u00b0C @ Press: 6 Torr", "Melting Point": "82.5 \u00b0C"}}