{"cas_no": "5743-04-4", "cn_name": "\u4e59\u9178\u9549\u4e8c\u6c34\u5408\u7269", "en_name": ["Cadmium acetate dihydrate", "Acetic acid, cadmium salt, dihydrate", "Cadmium acetate dihydrate", "Cadmium diacetate dihydrate"], "SMILES": "C(C)(O)=O.[Cd].O", "physical_data": {"Molecular Weight": "", "Molecular Formula": "C2H4O2.<sup>1</sup>/2Cd.H2O", "Melting Point": "254-256 \u00b0C", "Density": "2.010 g/cm\u00b3"}}