{"cas_no": "5743-26-0", "cn_name": "\u4e00\u6c34\u4e59\u9178\u9499", "en_name": ["Calcium acetate monohydrate", "Acetic acid, calcium salt, monohydrate", "Calcium acetate monohydrate", "Calcium diacetate monohydrate"], "SMILES": "C(C)(O)=O.[Ca].O", "physical_data": {"Molecular Weight": "", "Molecular Formula": "C2H4O2.<sup>1</sup>/2Ca.<sup>1</sup>/2H2O", "Melting Point": "160 \u00b0C (decomp)", "Density": "1.500 g/cm\u00b3"}}