{"cas_no": "5743-12-4", "cn_name": "\u5496\u5561\u56e0 ( \u7cbe\u795e\u7c7b\u4e0d\u80fd\u5b9a\u8d2d\uff09", "en_name": ["1H-Purine-2,6-dione, 3,7-dihydro-1,3,7-trimethyl-, hydrate (1:1)", "1H-Purine-2,6-dione, 3,7-dihydro-1,3,7-trimethyl-, hydrate (1:1)", "Caffeine, monohydrate", "1H-Purine-2,6-dione, 3,7-dihydro-1,3,7-trimethyl-, monohydrate"], "SMILES": "O=C1C2=C(N(C)C(=O)N1C)N=CN2C.O", "physical_data": {"Molecular Weight": "", "Molecular Formula": "C8H10N4O2.H2O", "Melting Point": "344-346 \u00b0C"}}