{"cas_no": "57444-62-9", "cn_name": "\u6811\u8102\u6bd2\u7d20", "en_name": ["Resiniferatoxin", "Benzeneacetic acid, 4-hydroxy-3-methoxy-, [(2S,3aR,3bS,6aR,9aR,9bR,10R,11aR)-3a,3b,6,6a,9a,10,11,11a-octahydro-6a-hydroxy-8,10-dimethyl-11a-(1-methylethenyl)-7-oxo-2-(phenylmethyl)-7H-2,9b-epoxyazuleno[5,4-e]-1,3-benzodioxol-5-yl]methyl ester", "Daphnetoxin, 6,7-deepoxy-6,7-didehydro-5-deoxy-21-dephenyl-21-(phenylmethyl)-, 20-(4-hydroxy-3-methoxybenzeneacetate)", "Benzeneacetic acid, 4-hydroxy-3-methoxy-, [3a,3b,6,6a,9a,10,11,11a-octahydro-6a-hydroxy-8,10-dimethyl-11a-(1-methylethenyl)-7-oxo-2-(phenylmethyl)-7H-2,9b-epoxyazuleno[5,4-e]-1,3-benzodioxol-5-yl]methyl ester, [2S-(2\u03b1,3a\u03b2,3b\u03b2,6a\u03b2,9a\u03b1,9b\u03b1,10\u03b1,11a\u03b2)]-", "Resiniferatoxin", "(+)-Resiniferatoxin", "RTX", "[(2S,3aR,3bS,6aR,9aR,9bR,10R,11aR)-2-benzyl-6a-hydroxy-8,10-dimethyl-11a-(prop-1-en-2-yl)-7-oxo-3a,6,6a,7,9a,10,11,11a-octahydro-3bH-2,9b-epoxyazuleno[5,4-e]-1,3-benzodioxol-5-yl]methyl 2-(4-hydroxy-3-methoxyphenyl)acetate"], "SMILES": "CC1C23C(C4C(C(C)=C)(C1)OC(CC5=CC=CC=C5)(O2)O4)C=C(COC(CC6=CC(OC)=C(O)C=C6)=O)CC7(O)C3C=C(C)C7=O", "physical_data": {"Molecular Weight": "628.71", "Molecular Formula": "C37H40O9", "Melting Point": "64-67 \u00b0C"}}