{"cas_no": "5744-59-2", "cn_name": "1,5-\u4e8c\u7532\u57fa-1H-\u5421\u5511-3-\u7532\u9178", "en_name": ["1,5-Dimethyl-1H-pyrazole-3-carboxylic acid", "1H-Pyrazole-3-carboxylic acid, 1,5-dimethyl-", "Pyrazole-3-carboxylic acid, 1,5-dimethyl-", "1,5-Dimethyl-1H-pyrazole-3-carboxylic acid", "1,5-Dimethyl-3-pyrazolecarboxylic acid", "1,5-Dimethyl-1H-pyrazole-3-carboxylic acid"], "SMILES": "C(O)(=O)C=1C=C(C)N(C)N1", "physical_data": {"Molecular Weight": "140.14", "Molecular Formula": "C6H8N2O2", "Melting Point": "176-178 \u00b0C"}}