{"cas_no": "5744-70-7", "cn_name": "5-\u6eb4-1,3-\u4e8c\u7532\u57fa-1H-\u5421\u5511", "en_name": ["5-Bromo-1,3-dimethyl-1H-pyrazole", "1H-Pyrazole, 5-bromo-1,3-dimethyl-", "Pyrazole, 5-bromo-1,3-dimethyl-", "5-Bromo-1,3-dimethyl-1H-pyrazole", "5-Bromo-1,3-dimethylpyrazole"], "SMILES": "BrC=1N(C)N=C(C)C1", "physical_data": {"Molecular Weight": "175.03", "Molecular Formula": "C5H7BrN2", "Boiling Point": "90 \u00b0C @ Press: 30 Torr"}}