{"cas_no": "57455-06-8", "cn_name": "3-\u7898\u82ef\u7532\u9187", "en_name": ["(3-Iodophenyl)methanol", "Benzenemethanol, 3-iodo-", "Benzyl alcohol, m-iodo-", "3-Iodobenzenemethanol", "m-Iodobenzyl alcohol", "(3-Iodophenyl)methanol", "3-Iodobenzyl alcohol", "3-(Hydroxymethyl)iodobenzene", "3-(Hydroxymethyl)phenyl iodide", "3-Hydroxymethyl-1-iodobenzene", "1-Iodo-3-(hydroxymethyl)benzene"], "SMILES": "C(O)C1=CC(I)=CC=C1", "physical_data": {"Molecular Weight": "234.03", "Molecular Formula": "C7H7IO", "Boiling Point": "165 \u00b0C @ Press: 16 Torr"}}