{"cas_no": "57467-13-7", "cn_name": "4-\u785d\u57fa\u82ef\u57fa 2-\u4e59\u9170\u6c28\u57fa-2-\u8131\u6c27-3-O-(\u0392-D-\u5421\u5583\u534a\u4e73\u7cd6)-\u0392-D-\u5421\u5583\u8461\u8404\u7cd6\u82f7", "en_name": ["4-Nitrophenyl 2-(acetylamino)-2-deoxy-3-O-\u03b2-D-galactopyranosyl-\u03b2-D-glucopyranoside", "\u03b2-D-Glucopyranoside, 4-nitrophenyl 2-(acetylamino)-2-deoxy-3-O-\u03b2-D-galactopyranosyl-", "4-Nitrophenyl 2-(acetylamino)-2-deoxy-3-O-\u03b2-D-galactopyranosyl-\u03b2-D-glucopyranoside", "PNP-Lac-N-bioside", "PNP-Lacto-N-bioside"], "SMILES": "N(C(C)=O)C1C(OC2OC(CO)C(O)C(O)C2O)C(O)C(CO)OC1OC3=CC=C(N(=O)=O)C=C3", "physical_data": {"Molecular Weight": "504.44", "Molecular Formula": "C20H28N2O13", "Melting Point": "160 \u00b0C"}}