{"cas_no": "5746-90-7", "cn_name": "3-\u7532\u57fa\u620a\u70ef\u4e8c\u9178", "en_name": ["3-Methylglutaconic acid", "2-Pentenedioic acid, 3-methyl-", "Glutaconic acid, 3-methyl-", "3-Methyl-2-pentenedioic acid", "\u03b2-Methylglutaconic acid", "3-Methylglutaconic acid", "NSC 249232"], "SMILES": "C(C(=CC(O)=O)C)C(O)=O", "physical_data": {"Molecular Weight": "144.13", "Molecular Formula": "C6H8O4", "Melting Point": "115 \u00b0C"}}