{"cas_no": "5746-86-1", "cn_name": "3-(\u5421\u54af\u70f7-2-\u57fa)\u5421\u5576", "en_name": ["(\u00b1)-Nornicotine", "Pyridine, 3-(2-pyrrolidinyl)-", "Nicotine, 1\u2032-demethyl-, (\u00b1)-", "Pyridine, 3-(2-pyrrolidinyl)-, (\u00b1)-", "3-(2-Pyrrolidinyl)pyridine", "(\u00b1)-1\u2032-Demethylnicotine", "(\u00b1)-Nornicotine", "(RS)-Nornicotine", "2-(3-Pyridinyl)pyrrolidine", "3-(Pyrrolidin-2-yl)pyridine"], "SMILES": "C1(CCCN1)C=2C=CC=NC2", "physical_data": {"Molecular Weight": "148.21", "Molecular Formula": "C9H12N2", "Boiling Point": "150-155 \u00b0C @ Press: 20 Torr", "Melting Point": "235-236 \u00b0C"}}