{"cas_no": "57460-41-0", "cn_name": "\u4ed6\u6797\u6d1b\u5c14", "en_name": ["Talinolol", "Urea, N-cyclohexyl-N\u2032-[4-[3-[(1,1-dimethylethyl)amino]-2-hydroxypropoxy]phenyl]-", "Urea, N-cyclohexyl-N\u2032-[4-[3-[(1,1-dimethylethyl)amino]-2-hydroxypropoxy]phenyl]-, (\u00b1)-", "N-Cyclohexyl-N\u2032-[4-[3-[(1,1-dimethylethyl)amino]-2-hydroxypropoxy]phenyl]urea", "Talinolol", "1-(4-Cyclohexylureidophenoxy)-2-hydroxy-3-tert-butylaminopropane", "Cordanum", "(\u00b1)-Talinolol", "Racemic talinolol", "1-[4-(Cyclohexylureido)phenoxy]-3-(tert-butylamino)-2-propanol", "1-[3-(3-Cyclohexylureido)phenoxy]-3-(tert-butylamino)-2-propanol", "1-[4-[3-(tert-Butylamino)-2-hydroxypropoxy]phenyl]-3-cyclohexylurea"], "SMILES": "O(CC(CNC(C)(C)C)O)C1=CC=C(NC(NC2CCCCC2)=O)C=C1", "physical_data": {"Molecular Weight": "363.49", "Molecular Formula": "C20H33N3O3", "Melting Point": "142-144 \u00b0C"}}