{"cas_no": "57465-28-8", "cn_name": "3,3',4,4',5-\u4e94\u6eb4\u8054\u82ef\u919a", "en_name": ["PCB 126", "1,1\u2032-Biphenyl, 3,3\u2032,4,4\u2032,5-pentachloro-", "3,3\u2032,4,4\u2032,5-Pentachloro-1,1\u2032-biphenyl", "3,3\u2032,4,4\u2032,5-Pentachlorobiphenyl", "3,4,5,3\u2032,4\u2032-Pentachlorobiphenyl", "3,4,3\u2032,4\u2032,5\u2032-Pentachlorobiphenyl", "PCB 126", "CB 126", "3,3\u2032,4,4\u2032,5\u2032-Pentachlorobiphenyl", "PnCP 176", "Polychlorinated biphenyl-126", "P 5CB 126"], "SMILES": "ClC=1C=C(C=C(Cl)C1Cl)C2=CC(Cl)=C(Cl)C=C2", "physical_data": {"Molecular Weight": "326.43", "Molecular Formula": "C12H5Cl5", "Melting Point": "158.5 \u00b0C"}}