{"cas_no": "5746-04-3", "cn_name": "N\u0395-(1-\u7fa7\u7532\u57fa)-L-\u8d56\u6c28\u9178", "en_name": ["N\u03b5-(Carboxymethyl)lysine", "L-Lysine, N6-(carboxymethyl)-", "Lysine, N6-(carboxymethyl)-, L-", "N6-(Carboxymethyl)-L-lysine", "N6-(Carboxymethyl)lysine", "\u03b5-(Carboxymethyl)lysine", "N\u03b5-(Carboxymethyl)lysine", "(2S)-2-Amino-6-(carboxymethylamino)hexanoic acid"], "SMILES": "C(C(C(O)=O)N)CCCNCC(O)=O", "physical_data": {"Molecular Weight": "204.22", "Molecular Formula": "C8H16N2O4", "Melting Point": "176-180 \u00b0C (decomp)"}}