{"cas_no": "5747-23-9", "cn_name": "2-\u82ef\u57fa-1,3,2-\u82ef\u4e8c\u915a\u787c\u70f7", "en_name": ["2-Phenyl-1,3,2-benzodioxaborole", "1,3,2-Benzodioxaborole, 2-phenyl-", "Benzeneboronic acid, cyclic o-phenylene ester", "Benzeneboronic acid, o-phenylene ester", "2-Phenyl-1,3,2-benzodioxaborole", "NSC 54020", "2-Phenyl-2H-1,3,2-benzodioxaborole", "2-Phenylbenzo[d][1,3,2]dioxaborole"], "SMILES": "B1(OC=2C(O1)=CC=CC2)C3=CC=CC=C3", "physical_data": {"Molecular Weight": "196.01", "Molecular Formula": "C12H9BO2", "Boiling Point": "124 \u00b0C @ Press: 0.4 Torr", "Density": "1.26 g/cm\u00b3"}}