{"cas_no": "57470-78-7", "cn_name": "\u76d0\u9178\u585e\u5229\u6d1b\u5c14", "en_name": ["Celiprolol hydrochloride", "Urea, N\u2032-[3-acetyl-4-[3-[(1,1-dimethylethyl)amino]-2-hydroxypropoxy]phenyl]-N,N-diethyl-, hydrochloride (1:1)", "Urea, N\u2032-[3-acetyl-4-[3-[(1,1-dimethylethyl)amino]-2-hydroxypropoxy]phenyl]-N,N-diethyl-, monohydrochloride", "ST 1396", "Celiprolol hydrochloride", "REV 5320A", "Celectol", "Selecor", "Corliprol", "NSC 324509", "Tenoloc"], "SMILES": "O(CC(CNC(C)(C)C)O)C1=C(C(C)=O)C=C(NC(N(CC)CC)=O)C=C1.Cl", "physical_data": {"Molecular Weight": "", "Molecular Formula": "C20H33N3O4.ClH", "Melting Point": "197-200 \u00b0C (decomp)"}}