{"cas_no": "57479-70-6", "cn_name": "4-\u6c2f-2-\u7532\u6c27\u57fa\u82ef\u7532\u9178", "en_name": ["4-Chloro-2-methoxybenzoic acid", "Benzoic acid, 4-chloro-2-methoxy-", "o-Anisic acid, 4-chloro-", "4-Chloro-2-methoxybenzoic acid", "4-Chloro-o-anisic acid", "2-Methoxy-4-chlorobenzoic acid"], "SMILES": "O(C)C1=C(C(O)=O)C=CC(Cl)=C1", "physical_data": {"Molecular Weight": "186.59", "Molecular Formula": "C8H7ClO3", "Melting Point": "148 \u00b0C"}}