{"cas_no": "57486-68-7", "cn_name": "2-\u6c2f\u82ef\u4e59\u9178\u7532\u916f", "en_name": ["Methyl 2-chlorobenzeneacetate", "Benzeneacetic acid, 2-chloro-, methyl ester", "Methyl 2-chlorobenzeneacetate", "Methyl (o-chlorophenyl)acetate", "Methyl (2-chlorophenyl)acetate", "2-Chlorobenzeneacetic acid methyl ester", "(2-Chlorophenyl)acetic acid methyl ester"], "SMILES": "C(C(OC)=O)C1=C(Cl)C=CC=C1", "physical_data": {"Molecular Weight": "184.62", "Molecular Formula": "C9H9ClO2", "Boiling Point": "77-78 \u00b0C @ Press: 1.8 Torr"}}