{"cas_no": "57497-39-9", "cn_name": "N-\u53d4\u4e01\u57fa\u7f9f\u80fa\u76d0\u9178\u76d0", "en_name": ["2-Propanamine, N-hydroxy-2-methyl-, hydrochloride (1:1)", "2-Propanamine, N-hydroxy-2-methyl-, hydrochloride (1:1)", "2-Propanamine, N-hydroxy-2-methyl-, hydrochloride", "Hydroxylamine, N-tert-butyl-, hydrochloride", "N-tert-Butylhydroxylamine hydrochloride", "tert-Butylhydroxylamine hydrochloride", "N-Hydroxy-2-methyl-2-propanamine hydrochloride"], "SMILES": "C(NO)(C)(C)C.Cl", "physical_data": {"Molecular Weight": "", "Molecular Formula": "C4H11NO.ClH", "Melting Point": "178 \u00b0C"}}