{"cas_no": "575-43-9", "cn_name": "1\uff0c6-\u4e8c\u7532\u57fa\u8418", "en_name": ["1,6-Dimethylnaphthalene", "Naphthalene, 1,6-dimethyl-", "1,6-Dimethylnaphthalene", "NSC 52966"], "SMILES": "CC=1C2=C(C=C(C)C=C2)C=CC1", "physical_data": {"Molecular Weight": "156.22", "Molecular Formula": "C12H12", "Boiling Point": "264 \u00b0C", "Melting Point": "-16.9 \u00b0C", "Density": "1.003 g/cm\u00b3 @ Temp: 20 \u00b0C"}}