{"cas_no": "575-89-3", "cn_name": "2,4,6-\u6d95", "en_name": ["2-(2,4,6-Trichlorophenoxy)acetic acid", "Acetic acid, 2-(2,4,6-trichlorophenoxy)-", "Acetic acid, (2,4,6-trichlorophenoxy)-", "2-(2,4,6-Trichlorophenoxy)acetic acid", "2,4,6-T", "(2,4,6-Trichlorophenoxy)acetic acid", "NSC 61993"], "SMILES": "O(CC(O)=O)C1=C(Cl)C=C(Cl)C=C1Cl", "physical_data": {"Molecular Weight": "255.48", "Molecular Formula": "C8H5Cl3O3", "Melting Point": "190 \u00b0C"}}