{"cas_no": "575-38-2", "cn_name": "1,7-\u4e8c\u7f9f\u57fa\u8418", "en_name": ["1,7-Dihydroxynaphthalene", "1,7-Naphthalenediol", "C.I. 76635", "1,7-Dihydroxynaphthalene", "NC 002", "NSC 62686"], "SMILES": "OC=1C2=C(C=CC(O)=C2)C=CC1", "physical_data": {"Molecular Weight": "160.17", "Molecular Formula": "C10H8O2", "Melting Point": "180.5 \u00b0C"}}