{"cas_no": "575-44-0", "cn_name": "1,6-\u4e8c\u7f9f\u57fa\u8418", "en_name": ["1,6-Dihydroxynaphthalene", "1,6-Naphthalenediol", "C.I. 76630", "1,6-Dihydroxynaphthalene", "2,5-Naphthalenediol", "6-Hydroxy-1-naphthol", "2,5-Dihydroxynaphthalene", "NSC 7201", "D 22520", "D 0591"], "SMILES": "OC=1C2=C(C=C(O)C=C2)C=CC1", "physical_data": {"Molecular Weight": "160.17", "Molecular Formula": "C10H8O2", "Melting Point": "138 \u00b0C"}}