{"cas_no": "575-36-0", "cn_name": "N-\u4e59\u9170-1-\u8418\u80fa", "en_name": ["N-1-Naphthylacetamide", "Acetamide, N-1-naphthalenyl-", "Acetamide, N-1-naphthyl-", "N-1-Naphthalenylacetamide", "N-1-Naphthylacetamide", "N-Acetyl-1-naphthylamine", "1-Acetamidonaphthalene", "N-\u03b1-Naphthylacetamide", "N-Acetyl-\u03b1-naphthylamine", "1-(Acetylamino)naphthalene", "NSC 3105", "N-Acetyl-1-naphthalenamine"], "SMILES": "N(C(C)=O)C=1C2=C(C=CC1)C=CC=C2", "physical_data": {"Molecular Weight": "185.22", "Molecular Formula": "C12H11NO", "Melting Point": "176 \u00b0C (decomp)"}}