{"cas_no": "575-61-1", "cn_name": "\u4e9a\u82c4\u57fa\u915e", "en_name": ["Benzylidenephthalide", "1(3H)-Isobenzofuranone, 3-(phenylmethylene)-", "Phthalide, 3-benzylidene-", "3-(Phenylmethylene)-1(3H)-isobenzofuranone", "3-Benzylidenephthalide", "3-Benzalphthalide", "Benzalphthalide", "Benzylidenephthalide", "Escalol 547", "NSC 2824", "3-Benzylidene-2-benzofuran-1-one"], "SMILES": "C(=C1C=2C(C(=O)O1)=CC=CC2)C3=CC=CC=C3", "physical_data": {"Molecular Weight": "222.24", "Molecular Formula": "C15H10O2", "Boiling Point": "198-205 \u00b0C @ Press: 4 Torr", "Melting Point": "108 \u00b0C"}}