{"cas_no": "575-41-7", "cn_name": "1,3-\u4e8c\u7532\u57fa\u8418", "en_name": ["1,3-Dimethylnaphthalene", "Naphthalene, 1,3-dimethyl-", "1,3-Dimethylnaphthalene", "NSC 66991"], "SMILES": "CC=1C2=C(C=C(C)C1)C=CC=C2", "physical_data": {"Molecular Weight": "156.22", "Molecular Formula": "C12H12", "Boiling Point": "263 \u00b0C", "Melting Point": "-6 \u00b0C", "Density": "1.0144 g/cm\u00b3 @ Temp: 20 \u00b0C"}}