{"cas_no": "575-90-6", "cn_name": "\u56db\u6eb4\u82ef\u915aT23P", "en_name": ["(2,6-Dichlorophenoxy)acetic acid", "Acetic acid, 2-(2,6-dichlorophenoxy)-", "Acetic acid, (2,6-dichlorophenoxy)-", "2-(2,6-Dichlorophenoxy)acetic acid", "2,6-D", "(2,6-Dichlorophenoxy)acetic acid", "NSC 409411"], "SMILES": "O(CC(O)=O)C1=C(Cl)C=CC=C1Cl", "physical_data": {"Molecular Weight": "221.04", "Molecular Formula": "C8H6Cl2O3", "Melting Point": "134.5-135 \u00b0C"}}