{"cas_no": "575-08-6", "cn_name": "6-\u6c1f\u8418-1-\u7fa7\u9178", "en_name": ["6-Fluoro-1-naphthalenecarboxylic acid", "1-Naphthalenecarboxylic acid, 6-fluoro-", "1-Naphthoic acid, 6-fluoro-", "6-Fluoro-1-naphthalenecarboxylic acid", "6-Fluoro-1-naphthoic acid", "6-Fluoronaphthalene-1-carboxylic acid"], "SMILES": "C(O)(=O)C=1C2=C(C=C(F)C=C2)C=CC1", "physical_data": {"Molecular Weight": "190.17", "Molecular Formula": "C11H7FO2", "Melting Point": "234-236 \u00b0C"}}