{"cas_no": "575-37-1", "cn_name": "1,7-\u4e8c\u7532\u57fa\u8418", "en_name": ["1,7-Dimethylnaphthalene", "Naphthalene, 1,7-dimethyl-", "1,7-Dimethylnaphthalene", "NSC 60773"], "SMILES": "CC=1C2=C(C=CC(C)=C2)C=CC1", "physical_data": {"Molecular Weight": "156.22", "Molecular Formula": "C12H12", "Boiling Point": "263 \u00b0C", "Melting Point": "-13.9 \u00b0C", "Density": "1.0115 g/cm\u00b3 @ Temp: 20 \u00b0C"}}