{"cas_no": "57500-00-2", "cn_name": "\u7532\u57fa\u7ce0\u57fa\u4e8c\u786b", "en_name": ["Furfuryl methyl disulfide", "Furan, 2-[(methyldithio)methyl]-", "2-[(Methyldithio)methyl]furan", "Methyl furfuryl disulfide", "Furfuryl methyl disulfide", "2-[(Methyldisulfanyl)methyl]furan"], "SMILES": "C(SSC)C1=CC=CO1", "physical_data": {"Molecular Weight": "160.26", "Molecular Formula": "C6H8OS2", "Boiling Point": "50.5-51.5 \u00b0C @ Press: 0.50 Torr"}}