{"cas_no": "5751-20-2", "cn_name": "2-\u7532\u786b\u57fa-4-\u5627\u5576\u916e", "en_name": ["2-(Methylthio)-4(3H)-pyrimidinone", "4(3H)-Pyrimidinone, 2-(methylthio)-", "4(1H)-Pyrimidinone, 2-(methylthio)-", "4-Pyrimidinol, 2-(methylthio)-", "2-(Methylthio)-4(3H)-pyrimidinone", "2-Methylthiouracil", "2-(Methylthio)-4-pyrimidone", "4-Hydroxy-2-(methylthio)pyrimidine", "2-(Methylthio)-4(1H)-pyrimidinone", "2-(Methylthio)-4-pyrimidinone", "2-(Methylthio)-4-pyrimidinol", "2-Methylthio-4-hydroxypyrimidine", "NSC 125339", "NSC 165518", "2-Methylsulfanylpyrimidin-4-ol", "2-Methylthio-3H-pyrimidin-4-one", "2-Methylsulfanyl-3H-pyrimidin-4-one", "2-(Methylthio)pyrimidine-4(3H)-one", "2-Methylsulfanyl-1H-pyrimidin-6-one"], "SMILES": "S(C)C=1NC(=O)C=CN1", "physical_data": {"Molecular Weight": "142.18", "Molecular Formula": "C5H6N2OS", "Melting Point": "199 \u00b0C"}}