{"cas_no": "5751-80-4", "cn_name": "\u567b\u5429-3-\u7532\u9178\u4e59\u916f", "en_name": ["3-Thiophenecarboxylic acid, ethyl ester", "3-Thiophenecarboxylic acid, ethyl ester", "Ethyl 3-thiophenecarboxylate", "3-(Ethoxycarbonyl)thiophene", "Ethyl thiophen-3-carboxylate"], "SMILES": "C(OCC)(=O)C=1C=CSC1", "physical_data": {"Molecular Weight": "156.20", "Molecular Formula": "C7H8O2S", "Boiling Point": "207-208 \u00b0C @ Press: 736 Torr", "Density": "1.1799 g/cm\u00b3 @ Temp: 27 \u00b0C"}}