{"cas_no": "57524-89-7", "cn_name": "\u6c22\u5316\u53ef\u7684\u677e-17-\u620a\u9178\u916f", "en_name": ["Hydrocortisone valerate", "Pregn-4-ene-3,20-dione, 11,21-dihydroxy-17-[(1-oxopentyl)oxy]-, (11\u03b2)-", "Cortisol, 17-valerate", "(11\u03b2)-11,21-Dihydroxy-17-[(1-oxopentyl)oxy]pregn-4-ene-3,20-dione", "Hydrocortisone valerate", "Hydrocortisone 17-valerate", "11\u03b2,21-Dihydroxy-17\u03b1-valeryloxy-4-pregnene-3,20-dione", "Hydrocortisone pentanoate", "Westcort", "HydroVal"], "SMILES": "O(C(CCCC)=O)C1(C(CO)=O)C2(C)C(CC1)C3C(C(O)C2)C4(C)C(CC3)=CC(=O)CC4", "physical_data": {"Molecular Weight": "446.58", "Molecular Formula": "C26H38O6", "Melting Point": "217-220 \u00b0C"}}