{"cas_no": "57526-81-5", "cn_name": "\u666e\u745e\u7279\u7f57", "en_name": ["(-)-Prenalterol", "Phenol, 4-[(2S)-2-hydroxy-3-[(1-methylethyl)amino]propoxy]-", "Phenol, 4-[2-hydroxy-3-[(1-methylethyl)amino]propoxy]-, (S)-", "4-[(2S)-2-Hydroxy-3-[(1-methylethyl)amino]propoxy]phenol", "Prenalterol", "CGP 7760B", "H 133/22", "Hyprenan", "(-)-Prenalterol", "S-Varbian", "(S)-Prenalterol", "(S)-4-(2-Hydroxy-3-(isopropylamino)propoxy)phenol"], "SMILES": "O(CC(CNC(C)C)O)C1=CC=C(O)C=C1", "physical_data": {"Molecular Weight": "225.28", "Molecular Formula": "C12H19NO3", "Melting Point": "127.5 \u00b0C"}}