{"cas_no": "57526-28-0", "cn_name": "2-\u7532\u57fa\u4e01\u9170\u6c2f", "en_name": ["Methylbutyryl chloride", "Butanoyl chloride, 2-methyl-", "Butanoyl chloride, 2-methyl-, (\u00b1)-", "2-Methylbutanoyl chloride", "dl-2-Methylbutyryl chloride", "(RS)-2-Methylbutanoyl chloride", "(DL)-2-Methylbutanoyl chloride", "2-Methylbutyryl chloride", "\u03b1-Methylbutyryl chloride", "2-Ethylpropanoyl chloride", "2-Methylbutyric acid chloride", "(\u00b1)-2-Methylbutyryl chloride", "Methylbutyryl chloride"], "SMILES": "C(C(Cl)=O)(CC)C", "physical_data": {"Molecular Weight": "120.58", "Molecular Formula": "C5H9ClO", "Boiling Point": "116 \u00b0C", "Density": "0.990 g/cm\u00b3 @ Temp: 24 \u00b0C"}}