{"cas_no": "57531-37-0", "cn_name": "2-\u6c2f-4-\u785d\u57fa\u54aa\u5511", "en_name": ["2-Chloro-4-nitroimidazole", "1H-Imidazole, 2-chloro-5-nitro-", "1H-Imidazole, 2-chloro-4-nitro-", "2-Chloro-5-nitro-1H-imidazole", "2-Chloro-4-nitroimidazole", "P21", "2-Chloro-4(5)-nitroimidazole", "2-Chloro-4-nitro-1H-imidazole"], "SMILES": "N(=O)(=O)C=1NC(Cl)=NC1", "physical_data": {"Molecular Weight": "147.52", "Molecular Formula": "C3H2ClN3O2", "Melting Point": "216-217 \u00b0C"}}