{"cas_no": "57536-86-4", "cn_name": "1-(1-\u8418)\u54cc\u55ea\u76d0\u9178\u76d0", "en_name": ["1-(1-Naphthyl)piperazine", "Piperazine, 1-(1-naphthalenyl)-", "1-(1-Naphthalenyl)piperazine", "1-(1-Naphthyl)piperazine", "1-\u03b1-Naphthylpiperazine", "N-(1-Naphthyl)piperazine"], "SMILES": "C=1(C2=C(C=CC1)C=CC=C2)N3CCNCC3", "physical_data": {"Molecular Weight": "212.29", "Molecular Formula": "C14H16N2", "Boiling Point": "144-147 \u00b0C @ Press: 1 Torr"}}