{"cas_no": "57543-40-5", "cn_name": "6-\u7532\u6c27\u57fa-2H-\u82ef\u5e76\u5421\u5583-3-\u7532\u919b", "en_name": ["6-Methoxy-2H-1-benzopyran-3-carboxaldehyde", "2H-1-Benzopyran-3-carboxaldehyde, 6-methoxy-", "6-Methoxy-2H-1-benzopyran-3-carboxaldehyde"], "SMILES": "C(=O)C1=CC=2C(=CC=C(OC)C2)OC1", "physical_data": {"Molecular Weight": "190.20", "Molecular Formula": "C11H10O3", "Melting Point": "48-49 \u00b0C"}}