{"cas_no": "57544-34-0", "cn_name": "6-\u6c2f-2H-\u82ef\u5e76\u5421\u5583-3-\u7532\u919b", "en_name": ["6-Chloro-2H-1-benzopyran-3-carboxaldehyde", "2H-1-Benzopyran-3-carboxaldehyde, 6-chloro-", "6-Chloro-2H-1-benzopyran-3-carboxaldehyde"], "SMILES": "C(=O)C1=CC=2C(OC1)=CC=C(Cl)C2", "physical_data": {"Molecular Weight": "194.61", "Molecular Formula": "C10H7ClO2", "Melting Point": "91-93 \u00b0C"}}