{"cas_no": "5754-35-8", "cn_name": "2-(2-\u6c28\u4e59\u57fa)-1,3-\u4e8c\u6c27\u620a\u73af", "en_name": ["1,3-Dioxolane-2-ethanamine", "1,3-Dioxolane-2-ethanamine", "1,3-Dioxolane-2-ethylamine", "2-(2-Aminoethyl)-1,3-dioxolane", "3-Aminopropionaldehyde cyclic ethylene acetal", "2-(1,3-Dioxolan-2-yl)ethylamine", "[2-(Dioxolan-2-yl)ethyl]amine", "2-(1,3-Dioxolan-2-yl)ethanamine", "Dioxolane-2-ethanamine", "2-(1,3-Dioxolan-2-yl)ethan-1-amine"], "SMILES": "C(CN)C1OCCO1", "physical_data": {"Molecular Weight": "117.15", "Molecular Formula": "C5H11NO2", "Boiling Point": "70-75 \u00b0C @ Press: 18 Torr"}}