{"cas_no": "57543-66-5", "cn_name": "2H-CHROMENE-3-CARBONITRILE", "en_name": ["2H-1-Benzopyran-3-carbonitrile", "2H-1-Benzopyran-3-carbonitrile", "3-Cyanochromene", "3-Chromenecarbonitrile", "NSC 279236", "2H-Chromene-3-carbonitrile"], "SMILES": "C(#N)C1=CC=2C(OC1)=CC=CC2", "physical_data": {"Molecular Weight": "157.17", "Molecular Formula": "C10H7NO", "Melting Point": "48-49 \u00b0C"}}