{"cas_no": "5754-18-7", "cn_name": "4-\u7532\u57fa-3,6-\u4e8c\u7f9f\u57fa\u54d2\u55ea", "en_name": ["1,2-Dihydro-4-methyl-3,6-pyridazinedione", "3,6-Pyridazinedione, 1,2-dihydro-4-methyl-", "1,2-Dihydro-4-methyl-3,6-pyridazinedione", "2-Butenedioic acid, 2-methyl-, cyclic hydrazide, (Z)-", "3,6-Dihydroxy-4-methylpyridazine", "NSC 48830", "NSC 58527", "4-Methyl-3,6-pyridazinediol", "4-Methyl-3,6-pyridazin-diol"], "SMILES": "CC=1C(=O)NNC(=O)C1", "physical_data": {"Molecular Weight": "126.11", "Molecular Formula": "C5H6N2O2", "Melting Point": "277 \u00b0C"}}