{"cas_no": "57543-62-1", "cn_name": "6-\u7532\u6c27\u57fa-2H-\u4e9a\u7532\u57fa-3-\u7fa7\u9178", "en_name": ["6-Methoxy-2H-1-benzopyran-3-carboxylic acid", "2H-1-Benzopyran-3-carboxylic acid, 6-methoxy-", "6-Methoxy-2H-1-benzopyran-3-carboxylic acid"], "SMILES": "C(O)(=O)C1=CC=2C(=CC=C(OC)C2)OC1", "physical_data": {"Molecular Weight": "206.19", "Molecular Formula": "C11H10O4", "Melting Point": "184-186 \u00b0C"}}