{"cas_no": "57543-67-6", "cn_name": "6-\u6c2f-3-\u6c30\u57fa-2H-\u82ef\u5e76\u5421\u5583", "en_name": ["6-Chloro-2H-1-benzopyran-3-carbonitrile", "2H-1-Benzopyran-3-carbonitrile, 6-chloro-", "6-Chloro-2H-1-benzopyran-3-carbonitrile", "6-Chloro-2H-chromene-3-carbonitrile"], "SMILES": "C(#N)C1=CC=2C(OC1)=CC=C(Cl)C2", "physical_data": {"Molecular Weight": "191.61", "Molecular Formula": "C10H6ClNO", "Melting Point": "124-126 \u00b0C"}}