{"cas_no": "57556-49-7", "cn_name": "4-\u6c28\u57fa-2-\u6c2f\u4e59\u9170\u82ef\u80fa", "en_name": ["N-(4-Amino-2-chlorophenyl)acetamide", "Acetamide, N-(4-amino-2-chlorophenyl)-", "Acetanilide, 4-amino-2-chloro-", "N-(4-Amino-2-chlorophenyl)acetamide", "4\u2032-Amino-2\u2032-chloroacetanilide", "4-Acetylamino-3-chloroaniline", "NSC 88986"], "SMILES": "N(C(C)=O)C1=C(Cl)C=C(N)C=C1", "physical_data": {"Molecular Weight": "184.62", "Molecular Formula": "C8H9ClN2O", "Melting Point": "111 \u00b0C"}}