{"cas_no": "5756-24-1", "cn_name": "\u4e8c\u7532\u57fa\u56db\u786b\u919a", "en_name": ["Dimethyl tetrasulfide", "Tetrasulfide, dimethyl", "Methyl tetrasulfide", "Dimethyl tetrasulfide", "2,3,4,5-Tetrathiahexane", "(Methyltetrasulfanyl)methane", "1,4-Dimethyltetrasulfane"], "SMILES": "S(SSC)SC", "physical_data": {"Molecular Weight": "158.33", "Molecular Formula": "C2H6S4", "Boiling Point": "70 \u00b0C @ Press: 0.07 Torr"}}