{"cas_no": "57568-60-2", "cn_name": "\u03b1-(2-\u544b\u5583\u57fa\u4e9a\u7532\u57fa)\u82ef\u4e59\u919b", "en_name": ["2-Phenyl-3-(2-furyl)prop-2-enal", "Benzeneacetaldehyde, \u03b1-(2-furanylmethylene)-", "2-Furanacrolein, \u03b1-phenyl-", "\u03b1-(2-Furanylmethylene)benzeneacetaldehyde", "2-Phenyl-3-(2-furyl)prop-2-enal"], "SMILES": "C(=CC1=CC=CO1)(C=O)C2=CC=CC=C2", "physical_data": {"Molecular Weight": "198.22", "Molecular Formula": "C13H10O2", "Boiling Point": "166-177 \u00b0C @ Press: 7.5 Torr"}}