{"cas_no": "57576-44-0", "cn_name": "\u963f\u514b\u62c9\u9709\u7d20", "en_name": ["Aclarubicin", "1-Naphthacenecarboxylic acid, 2-ethyl-1,2,3,4,6,11-hexahydro-2,5,7-trihydroxy-6,11-dioxo-4-[[2,3,6-trideoxy-4-O-[2,6-dideoxy-4-O-[(2R,6S)-tetrahydro-6-methyl-5-oxo-2H-pyran-2-yl]-\u03b1-L-lyxo-hexopyranosyl]-3-(dimethylamino)-\u03b1-L-lyxo-hexopyranosyl]oxy]-, methyl ester, (1R,2R,4S)-", "1-Naphthacenecarboxylic acid, 2-ethyl-1,2,3,4,6,11-hexahydro-2,5,7-trihydroxy-6,11-dioxo-4-[[2,3,6-trideoxy-4-O-[2,6-dideoxy-4-O-[(2R-trans)-tetrahydro-6-methyl-5-oxo-2H-pyran-2-yl]-\u03b1-L-lyxo-hexopyranosyl]-3-(dimethylamino)-\u03b1-L-lyxo-hexopyranosyl]oxy]-, methyl ester, [1R-(1\u03b1,2\u03b2,4\u03b2)]-", "Aclacinomycin A", "Antibiotic MA 144A1", "Aclarubicin", "NSC 208734", "Antibiotic 77-3082A", "Antibiotic 3082A", "Aclacur", "Jaclacin", "MeSH ID: D015250"], "SMILES": "C(OC)(=O)C1C2=C(C(OC3CC(N(C)C)C(OC4CC(O)C(OC5OC(C)C(=O)CC5)C(C)O4)C(C)O3)CC1(CC)O)C(O)=C6C(=C2)C(=O)C=7C(C6=O)=C(O)C=CC7", "physical_data": {"Molecular Weight": "811.87", "Molecular Formula": "C42H53NO15", "Melting Point": "151-153 \u00b0C (decomp)"}}