{"cas_no": "57582-46-4", "cn_name": "\u4e59\u9170\u4e59\u9178\u8089\u6842\u916f", "en_name": ["3-Phenyl-2-propen-1-yl 3-oxobutanoate", "Butanoic acid, 3-oxo-, 3-phenyl-2-propen-1-yl ester", "Butanoic acid, 3-oxo-, 3-phenyl-2-propenyl ester", "3-Phenyl-2-propen-1-yl 3-oxobutanoate", "Cinnamyl acetoacetate", "4-Phenyl-2-buten-1-yl acetoacetate"], "SMILES": "C(=CCOC(CC(C)=O)=O)C1=CC=CC=C1", "physical_data": {"Molecular Weight": "218.25", "Molecular Formula": "C13H14O3", "Boiling Point": "101-104 \u00b0C @ Press: 0.025 Torr", "Density": "1.1029 g/cm\u00b3 @ Temp: 25 \u00b0C"}}