{"cas_no": "57597-62-3", "cn_name": "\u6c30\u57fa\u4e59\u919b\u7f29\u4e8c\u7532\u9187", "en_name": ["3,3-Dimethoxypropionitrile", "Propanenitrile, 3,3-dimethoxy-", "Acetaldehyde, cyano-, dimethyl acetal", "3,3-Dimethoxypropanenitrile", "1-Cyano-2,2-dimethoxyethane", "3,3-Dimethoxypropionitrile", "\u03b2,\u03b2-Dimethoxypropionitrile", "2-Cyano-1,1-dimethoxyethane", "Cyanoacetaldehyde dimethyl acetal"], "SMILES": "C(CC#N)(OC)OC", "physical_data": {"Molecular Weight": "115.13", "Molecular Formula": "C5H9NO2", "Boiling Point": "113-116 \u00b0C @ Press: 25 Torr"}}