{"cas_no": "576-15-8", "cn_name": "1-\u4e59\u9170\u5432\u54da", "en_name": ["1-(1H-Indol-1-yl)ethanone", "Ethanone, 1-(1H-indol-1-yl)-", "Indole, 1-acetyl-", "1H-Indole, 1-acetyl-", "1-(1H-Indol-1-yl)ethanone", "N-Acetylindole", "1-Acetylindole", "NSC 521758", "1-(1H-Indol-1-yl)ethan-1-one"], "SMILES": "C(C)(=O)N1C=2C(C=C1)=CC=CC2", "physical_data": {"Molecular Weight": "159.18", "Molecular Formula": "C10H9NO", "Boiling Point": "135 \u00b0C @ Press: 6-6.5 Torr", "Melting Point": "189 \u00b0C", "Density": "1.387 g/cm\u00b3 @ Temp: 20 \u00b0C"}}