{"cas_no": "576-44-3", "cn_name": "3-\u6c28\u57fa-3-\u8131\u6c27-D-\u8461\u8404\u7cd6", "en_name": ["Kanosamine", "D-Glucose, 3-amino-3-deoxy-", "Kanosamine", "3-Amino-3-deoxy-D-glucose", "D-Kanosamine", "3-Deoxy-3-amino-D-glucose", "Antibiotic B, from Bacilluscereus"], "SMILES": "C(C(C(CO)O)O)(C(C=O)O)N", "physical_data": {"Molecular Weight": "179.17", "Molecular Formula": "C6H13NO5", "Melting Point": "131.5-137 \u00b0C (decomp)"}}