{"cas_no": "576-83-0", "cn_name": "2-\u6eb4-1,3,5-\u4e09\u7532\u57fa\u82ef", "en_name": ["Mesityl bromide", "Benzene, 2-bromo-1,3,5-trimethyl-", "Mesitylene, 2-bromo-", "2-Bromo-1,3,5-trimethylbenzene", "2-Bromomesitylene", "Mesityl bromide", "2,4,6-Trimethylbromobenzene", "2,4,6-Trimethylphenyl bromide", "1-Bromo-2,4,6-trimethylbenzene", "1-Bromomesitylene", "NSC 8064", "2,4,6-Trimethyl-1-bromobenzene"], "SMILES": "BrC1=C(C)C=C(C)C=C1C", "physical_data": {"Molecular Weight": "199.09", "Molecular Formula": "C9H11Br", "Boiling Point": "225 \u00b0C", "Melting Point": "-1 \u00b0C", "Density": "1.3220 g/cm\u00b3 @ Temp: 20 \u00b0C"}}