{"cas_no": "576-82-9", "cn_name": "1,2,3-\u4e09\u6eb4-5\u6c1f\u82ef", "en_name": ["1,2,3-Tribromo-5-fluorobenzene", "Benzene, 1,2,3-tribromo-5-fluoro-", "1,2,3-Tribromo-5-fluorobenzene"], "SMILES": "BrC1=C(Br)C=C(F)C=C1Br", "physical_data": {"Molecular Weight": "332.79", "Molecular Formula": "C6H2Br3F", "Melting Point": "96 \u00b0C"}}