{"cas_no": "576-55-6", "cn_name": "3,4,5,6-\u56db\u6eb4\u90bb\u7532\u915a", "en_name": ["3,4,5,6-Tetrabromo-o-cresol", "Phenol, 2,3,4,5-tetrabromo-6-methyl-", "o-Cresol, 3,4,5,6-tetrabromo-", "2,3,4,5-Tetrabromo-6-methylphenol", "3,4,5,6-Tetrabromo-o-cresol", "3,4,5,6-Tetrabromo-2-methylphenol", "Remanol", "Deodorant Richter/K", "2-Methyl-3,4,5,6-tetrabromophenol", "NSC 4866"], "SMILES": "BrC1=C(Br)C(Br)=C(O)C(C)=C1Br", "physical_data": {"Molecular Weight": "423.72", "Molecular Formula": "C7H4Br4O", "Melting Point": "208 \u00b0C"}}