{"cas_no": "576-23-8", "cn_name": "2,3-\u4e8c\u7532\u57fa\u6eb4\u82ef", "en_name": ["1-Bromo-2,3-dimethylbenzene", "Benzene, 1-bromo-2,3-dimethyl-", "o-Xylene, 3-bromo-", "1-Bromo-2,3-dimethylbenzene", "2,3-Dimethylbromobenzene", "3-Bromo-o-xylene", "3-Bromo-1,2-xylene", "3-Bromo-1,2-dimethylbenzene", "NSC 76561"], "SMILES": "CC1=C(Br)C=CC=C1C", "physical_data": {"Molecular Weight": "185.06", "Molecular Formula": "C8H9Br", "Boiling Point": "214 \u00b0C", "Density": "1.366 g/cm\u00b3 @ Temp: 15 \u00b0C"}}