{"cas_no": "576-22-7", "cn_name": "2,6-\u4e8c\u7532\u57fa\u6eb4\u82ef", "en_name": ["2-Bromo-1,3-dimethylbenzene", "Benzene, 2-bromo-1,3-dimethyl-", "m-Xylene, 2-bromo-", "2-Bromo-1,3-dimethylbenzene", "2,6-Dimethylbromobenzene", "2-Bromo-m-xylene", "1-Bromo-2,6-dimethylbenzene", "2,6-Dimethylphenyl bromide", "2,6-Dimethyl-1-bromobenzene", "2,6-Xylyl bromide", "1,3-Dimethyl-2-bromobenzene"], "SMILES": "BrC1=C(C)C=CC=C1C", "physical_data": {"Molecular Weight": "185.06", "Molecular Formula": "C8H9Br", "Boiling Point": "203.5 \u00b0C"}}