{"cas_no": "576-24-9", "cn_name": "2,3-\u4e8c\u6c2f\u82ef\u915a", "en_name": ["2,3-Dichlorophenol", "Phenol, 2,3-dichloro-", "2,3-Dichlorophenol", "NSC 60646"], "SMILES": "ClC1=C(Cl)C=CC=C1O", "physical_data": {"Molecular Weight": "163.00", "Molecular Formula": "C6H4Cl2O", "Boiling Point": "206 \u00b0C", "Melting Point": "58 \u00b0C"}}