{"cas_no": "576-26-1", "cn_name": "2,6-\u4e8c\u7532\u57fa\u82ef\u915a", "en_name": ["2,6-Dimethylphenol", "Phenol, 2,6-dimethyl-", "2,6-Xylenol", "2,6-Dimethylphenol", "1-Hydroxy-2,6-dimethylbenzene", "NSC 2123", "D 104339"], "SMILES": "OC1=C(C)C=CC=C1C", "physical_data": {"Molecular Weight": "122.16", "Molecular Formula": "C8H10O", "Boiling Point": "201 \u00b0C", "Melting Point": "45.7 \u00b0C", "Density": "1.13 g/cm\u00b3"}}