{"cas_no": "576-19-2", "cn_name": "\u751f\u7269\u80de\u7d20", "en_name": ["Biocytin", "L-Lysine, N6-[5-[(3aS,4S,6aR)-hexahydro-2-oxo-1H-thieno[3,4-d]imidazol-4-yl]-1-oxopentyl]-", "Lysine, N6-[5-(hexahydro-2-oxo-1H-thieno[3,4-d]imidazol-4-yl)valeryl]-, L-", "L-Lysine, N6-[5-(hexahydro-2-oxo-1H-thieno[3,4-d]imidazol-4-yl)-1-oxopentyl]-, [3aS-(3a\u03b1,4\u03b2,6a\u03b1)]-", "1H-Thieno[3,4-d]imidazole, L-lysine deriv.", "N6-[5-[(3aS,4S,6aR)-Hexahydro-2-oxo-1H-thieno[3,4-d]imidazol-4-yl]-1-oxopentyl]-L-lysine", "Biocytin", "\u03b5-N-Biotinyl-L-lysine", "(+)-Biocytin", "d-Biocytin"], "SMILES": "C(CCCC(NCCCCC(C(O)=O)N)=O)C1C2C(CS1)NC(=O)N2", "physical_data": {"Molecular Weight": "372.48", "Molecular Formula": "C16H28N4O4S", "Melting Point": "230-240 \u00b0C (decomp)"}}