{"cas_no": "576-86-3", "cn_name": "2,4-\u4e8c\u6eb4-6-\u6c1f\u82ef\u915a", "en_name": ["2,4-Dibromo-6-fluorophenol", "Phenol, 2,4-dibromo-6-fluoro-", "2,4-Dibromo-6-fluorophenol", "2-Fluoro-4,6-dibromophenol"], "SMILES": "OC1=C(Br)C=C(Br)C=C1F", "physical_data": {"Molecular Weight": "269.89", "Molecular Formula": "C6H3Br2FO", "Melting Point": "35 \u00b0C"}}