{"cas_no": "57609-64-0", "cn_name": "4,4'- \u4e8c\u6c28\u57fa\u4e8c\u82ef\u7532\u91781,3-\u4e19\u4e8c\u9187", "en_name": ["Trimethylene glycol di-p-aminobenzoate", "1,3-Propanediol, 1,3-bis(4-aminobenzoate)", "1,3-Propanediol, bis(4-aminobenzoate)", "1,3-Propanediol di-p-aminobenzoate", "Polacure 740M", "TMAB", "1,3-Propanediyl bis(p-aminobenzoate)", "Trimethylene glycol di-p-aminobenzoate", "Trimethylene glycol bis(4-aminobenzoate)", "Cuamine CUA 4", "Trimethylene glycol di-4-aminobenzoate", "1,3-Propanediol bis(p-aminobenzoate)", "Trimethylene glycol bis(p-aminobenzoate)", "Polacure 740", "CUA 4", "Vibracure A 157", "Versalink 740M", "Versalink 740", "1,3-Propylene bis(4-aminobenzoate)", "Trimethylene di-p-aminobenzoate", "Propane-1,3-diyl bis(4-aminobenzoate)", "Trimethylene bis(4-aminobenzoate)", "Xylink 740M"], "SMILES": "C(OCCCOC(=O)C1=CC=C(N)C=C1)(=O)C2=CC=C(N)C=C2", "physical_data": {"Molecular Weight": "314.34", "Molecular Formula": "C17H18N2O4", "Melting Point": "104-106 \u00b0C"}}