{"cas_no": "57602-02-5", "cn_name": "1,14-\u4e8c\u6eb4-3,6,9,12-\u56db\u6076\u5341\u56db\u70f7", "en_name": ["1,14-Dibromo-3,6,9,12-tetraoxatetradecane", "3,6,9,12-Tetraoxatetradecane, 1,14-dibromo-", "1,14-Dibromo-3,6,9,12-tetraoxatetradecane", "1,2-Bis[2-(2-bromoethoxy)ethoxy]ethane"], "SMILES": "C(COCCOCCBr)OCCOCCBr", "physical_data": {"Molecular Weight": "364.07", "Molecular Formula": "C10H20Br2O4", "Boiling Point": "169-173 \u00b0C @ Press: 1.8 Torr"}}