{"cas_no": "5762-56-1", "cn_name": "\u4e09(\u4e8c\u7532\u6c28\u57fa)\u7532\u70f7", "en_name": ["N,N,N\u2032,N\u2032,N\u2032\u2032,N\u2032\u2032-Hexamethylmethanetriamine", "Methanetriamine, N,N,N\u2032,N\u2032,N\u2032\u2032,N\u2032\u2032-hexamethyl-", "N,N,N\u2032,N\u2032,N\u2032\u2032,N\u2032\u2032-Hexamethylmethanetriamine", "Tris(dimethylamino)methane", "Tris(N,N-dimethylamino)methane", "[Bis(dimethylamino)methyl]dimethylamine"], "SMILES": "C(N(C)C)(N(C)C)N(C)C", "physical_data": {"Molecular Weight": "145.25", "Molecular Formula": "C7H19N3", "Boiling Point": "40-43 \u00b0C @ Press: 12 Torr"}}