{"cas_no": "57625-74-8", "cn_name": "2,2-\u4e8c\u7532\u57fa\u82ef\u4e59\u9178\u7532\u916f", "en_name": ["Methyl \u03b1,\u03b1-dimethylbenzeneacetate", "Benzeneacetic acid, \u03b1,\u03b1-dimethyl-, methyl ester", "Hydratropic acid, \u03b1-methyl-, methyl ester", "Methyl \u03b1,\u03b1-dimethylbenzeneacetate", "Methyl 2-methyl-2-phenylpropionate", "Methyl 2,2-dimethyl-2-phenylacetate", "2-Methyl-2-phenylpropanoic acid methyl ester", "Methyl 2-methyl-2-phenylpropanoate", "2-Methyl-2-phenylpropionic acid methyl ester", "Methyl \u03b1,\u03b1-dimethylphenylacetate"], "SMILES": "C(C(OC)=O)(C)(C)C1=CC=CC=C1", "physical_data": {"Molecular Weight": "178.23", "Molecular Formula": "C11H14O2", "Boiling Point": "70 \u00b0C @ Press: 1.5 Torr"}}