{"cas_no": "5763-61-1", "cn_name": "3,4-\u4e8c\u7532\u6c27\u57fa\u82c4\u80fa", "en_name": ["Veratrylamine", "Benzenemethanamine, 3,4-dimethoxy-", "Veratrylamine", "3,4-Dimethoxybenzenemethanamine", "3,4-Dimethoxybenzylamine", "[(3,4-Dimethoxyphenyl)methyl]amine", "NSC 271740", "(3,4-Dimethoxyphenyl)methanamine", "1-[3,4-Bis(methyloxy)phenyl]methanamine", "1-(3,4-Dimethoxyphenyl)methanamine"], "SMILES": "O(C)C1=C(OC)C=CC(CN)=C1", "physical_data": {"Molecular Weight": "167.21", "Molecular Formula": "C9H13NO2", "Boiling Point": "160 \u00b0C @ Press: 14 Torr", "Melting Point": "262-263 \u00b0C", "Density": "1.1224 g/cm\u00b3 @ Temp: 20 \u00b0C"}}