{"cas_no": "5763-44-0", "cn_name": "1,2-\u73af\u620a\u4e8c\u7532\u9170\u4e9a\u80fa", "en_name": ["Tetrahydrocyclopenta[c]pyrrole-1,3(2H,3aH)-dione", "Cyclopenta[c]pyrrole-1,3(2H,3aH)-dione, tetrahydro-", "1,2-Cyclopentanedicarboximide", "Tetrahydrocyclopenta[c]pyrrole-1,3(2H,3aH)-dione", "2,4-Dioxo-3-azabicyclo[3.3.0]octane"], "SMILES": "O=C1C2C(C(=O)N1)CCC2", "physical_data": {"Molecular Weight": "139.15", "Molecular Formula": "C7H9NO2", "Melting Point": "90 \u00b0C"}}