{"cas_no": "5763-55-3", "cn_name": "2-\u73af\u620a\u57fa-\u4e59\u80fa", "en_name": ["Cyclopentaneethanamine", "Cyclopentaneethanamine", "Cyclopentaneethylamine", "2-Cyclopentylethylamine", "Cyclopentylethylamine", "2-Aminoethylcyclopentane", "2-Cyclopentylethanamine", "2-Cyclopentylethan-1-amine"], "SMILES": "C(CN)C1CCCC1", "physical_data": {"Molecular Weight": "113.20", "Molecular Formula": "C7H15N", "Boiling Point": "158-159 \u00b0C"}}