{"cas_no": "5764-85-2", "cn_name": "\u03b2-\u7f9f\u57fa\u82ef\u4e19\u9178\u4e59\u916f", "en_name": ["Ethyl \u03b2-hydroxybenzenepropanoate", "Benzenepropanoic acid, \u03b2-hydroxy-, ethyl ester", "Hydracrylic acid, 3-phenyl-, ethyl ester", "Ethyl \u03b2-hydroxybenzenepropanoate", "3-Hydroxy-3-phenylpropionic acid ethyl ester", "Ethyl 3-hydroxy-3-phenylpropanoate", "Ethyl 3-hydroxy-3-phenylpropionate", "Ethyl 3-phenylhydracrylate", "Ethyl 3-phenyl-3-hydroxypropionate", "\u03b2-Hydroxybenzenepropanoic acid ethyl ester", "(\u00b1)-3-Hydroxy-3-phenylpropionic acid ethyl ester", "NSC 226071"], "SMILES": "C(CC(OCC)=O)(O)C1=CC=CC=C1", "physical_data": {"Molecular Weight": "194.23", "Molecular Formula": "C11H14O3", "Boiling Point": "154-156 \u00b0C @ Press: 13 Torr"}}