{"cas_no": "57646-30-7", "cn_name": "\u544b\u971c\u7075", "en_name": ["Furalaxyl", "Alanine, N-(2,6-dimethylphenyl)-N-(2-furanylcarbonyl)-, methyl ester", "DL-Alanine, N-(2,6-dimethylphenyl)-N-(2-furanylcarbonyl)-, methyl ester", "Fongarid", "Furalaxyl", "CGA 38140", "A 5430", "Fongaride"], "SMILES": "N(C(=O)C1=CC=CO1)(C(C(OC)=O)C)C2=C(C)C=CC=C2C", "physical_data": {"Molecular Weight": "301.34", "Molecular Formula": "C17H19NO4", "Melting Point": "70 \u00b0C"}}