{"cas_no": "57653-26-6", "cn_name": "\u975e\u8bfa\u73ed", "en_name": ["Fenobam", "Urea, N-(3-chlorophenyl)-N\u2032-(4,5-dihydro-1-methyl-4-oxo-1H-imidazol-2-yl)-", "N-(3-Chlorophenyl)-N\u2032-(4,5-dihydro-1-methyl-4-oxo-1H-imidazol-2-yl)urea", "Fenobam", "1-(3-Chlorophenyl)-3-(1-methyl-4-oxo-4,5-dihydro-1H-imidazol-2-yl)urea"], "SMILES": "N(C(NC1=CC(Cl)=CC=C1)=O)C2=NC(=O)CN2C", "physical_data": {"Molecular Weight": "266.68", "Molecular Formula": "C11H11ClN4O2", "Melting Point": "180-180.5 \u00b0C"}}