{"cas_no": "57658-36-3", "cn_name": "5-\u5def\u57fa-1H-\u56db\u6c2e\u5511-1-\u4e59\u9178", "en_name": ["2,5-Dihydro-5-thioxo-1H-tetrazole-1-acetic acid", "1H-Tetrazole-1-acetic acid, 2,5-dihydro-5-thioxo-", "2,5-Dihydro-5-thioxo-1H-tetrazole-1-acetic acid", "1-(Carboxymethyl)-5-mercaptotetrazole", "5-Mercapto-1-tetrazolylacetic acid", "1-Carboxymethyl-5-tetrazolethiol", "5-Mercapto-1H-tetrazole-1-acetic acid", "1-(Carboxymethyl)-5-mercapto-1H-tetrazole", "1-Carboxymethyl-5-mercapto-1,2,3,4-tetrazole", "2-(5-Sulfanylidene-2,5-dihydro-1H-1,2,3,4-tetrazol-1-yl)acetic acid", "2-(5-Sulfanyl-1H-1,2,3,4-tetrazol-1-yl)acetic acid", "2-(5-Sulfanylidene-4,5-dihydro-1H-1,2,3,4-tetrazol-1-yl)acetic acid"], "SMILES": "C(C(O)=O)N1C(=S)NN=N1", "physical_data": {"Molecular Weight": "160.15", "Molecular Formula": "C3H4N4O2S", "Melting Point": "179-180 \u00b0C (decomp)"}}