{"cas_no": "5765-44-6", "cn_name": "5-\u7532\u57fa\u5f02\u6076\u5511", "en_name": ["5-Methylisoxazole", "Isoxazole, 5-methyl-", "5-Methylisoxazole", "NSC 52269"], "SMILES": "CC1=CC=NO1", "physical_data": {"Molecular Weight": "83.09", "Molecular Formula": "C4H5NO", "Boiling Point": "122 \u00b0C", "Density": "1.0206 g/cm\u00b3 @ Temp: 420 \u00b0C"}}