{"cas_no": "57676-51-4", "cn_name": "4-\u6c2f\u82ef\u4e59\u9170\u80bc", "en_name": ["4-Chlorobenzeneacetic acid hydrazide", "Benzeneacetic acid, 4-chloro-, hydrazide", "Acetic acid, (p-chlorophenyl)-, hydrazide", "4-Chlorobenzeneacetic acid hydrazide", "INHd 29", "2-(4-Chlorophenyl)acetic acid hydrazide", "(4-Chlorophenyl)acetic acid hydrazide", "2-(4-Chlorophenyl)acetohydrazide", "2-(4-Chlorophenyl)acetic hydrazide"], "SMILES": "C(C(NN)=O)C1=CC=C(Cl)C=C1", "physical_data": {"Molecular Weight": "184.62", "Molecular Formula": "C8H9ClN2O", "Melting Point": "170 \u00b0C"}}