{"cas_no": "57678-46-3", "cn_name": "3-\u6c28\u7532\u57fa-N,N-\u4e8c\u7532\u57fa\u82ef\u80fa", "en_name": ["3-(Dimethylamino)benzenemethanamine", "Benzenemethanamine, 3-(dimethylamino)-", "3-(Dimethylamino)benzenemethanamine", "3-(Dimethylamino)benzylamine", "N-[3-(Aminomethyl)phenyl]-N,N-dimethylamine", "(3-Aminomethylphenyl)dimethylamine", "3-(Aminomethyl)-N,N-dimethylaniline"], "SMILES": "N(C)(C)C1=CC(CN)=CC=C1", "physical_data": {"Molecular Weight": "150.22", "Molecular Formula": "C9H14N2", "Boiling Point": "134-135 \u00b0C @ Press: 10 Torr"}}