{"cas_no": "57675-44-2", "cn_name": "\u4e09\u6cb9\u9178\u4e09\u7f9f\u7532\u57fa\u4e19\u70f7\u916f", "en_name": ["Trimethylolpropane trioleate", "9-Octadecenoic acid (9Z)-, 1,1\u2032-[2-ethyl-2-[[[(9Z)-1-oxo-9-octadecen-1-yl]oxy]methyl]-1,3-propanediyl] ester", "9-Octadecenoic acid (Z)-, 2-ethyl-2-[[(1-oxo-9-octadecenyl)oxy]methyl]-1,3-propanediyl ester, (Z)-", "9-Octadecenoic acid (9Z)-, 2-ethyl-2-[[[(9Z)-1-oxo-9-octadecenyl]oxy]methyl]-1,3-propanediyl ester", "Trimethylolpropane trioleate", "Nissan Unister H 381", "Hatcol 4323", "Priolube 1427", "Edenor TMP 05", "Unister H 381", "Synative TMP 05", "HEES 46", "ESTMP 05", "TMP 05", "Synative ES-TMP 05", "Radialube 7361", "Radialube 7362", "Radialube 7364", "Radialube 7365", "Radialube 7561"], "SMILES": "C(COC(CCCCCCCC=CCCCCCCCC)=O)(COC(CCCCCCCC=CCCCCCCCC)=O)(COC(CCCCCCCC=CCCCCCCCC)=O)CC", "physical_data": {"Molecular Weight": "927.51", "Molecular Formula": "C60H110O6", "Melting Point": "-37 \u00b0C"}}