{"cas_no": "57672-33-0", "cn_name": "7-\u785d\u57fa-1,4-\u82ef\u5e76\u4e8c\u5641\u70f7-6-\u7532\u9178", "en_name": ["2,3-Dihydro-7-nitro-1,4-benzodioxin-6-carboxylic acid", "1,4-Benzodioxin-6-carboxylic acid, 2,3-dihydro-7-nitro-", "1,4-Benzodioxan-6-carboxylic acid, 7-nitro-", "2,3-Dihydro-7-nitro-1,4-benzodioxin-6-carboxylic acid"], "SMILES": "C(O)(=O)C1=C(N(=O)=O)C=C2C(=C1)OCCO2", "physical_data": {"Molecular Weight": "225.15", "Molecular Formula": "C9H7NO6", "Melting Point": "230-231 \u00b0C"}}