{"cas_no": "57683-71-3", "cn_name": "\u90bb\u7532\u9178\u7532\u916f\u82ef\u78fa\u9170\u80fa", "en_name": ["Methyl 2-(aminosulfonyl)benzoate", "Benzoic acid, 2-(aminosulfonyl)-, methyl ester", "Benzoic acid, o-sulfamoyl-, methyl ester", "Methyl 2-(aminosulfonyl)benzoate", "Methyl 2-sulfamoylbenzoate", "2-(Methoxycarbonyl)benzenesulfonamide", "2-(Carbomethoxy)benzenesulfonamide", "Methyl o-sulfamoylbenzoate", "2-Sulfamoyl-benzoic acid methyl ester"], "SMILES": "C(OC)(=O)C1=C(S(N)(=O)=O)C=CC=C1", "physical_data": {"Molecular Weight": "215.23", "Molecular Formula": "C8H9NO4S", "Melting Point": "123-125 \u00b0C"}}