{"cas_no": "57681-59-1", "cn_name": "2-\u4e59\u9170\u57fa-4,5-\u4e8c\u6c2f\u567b\u5429", "en_name": ["1-(4,5-Dichloro-2-thienyl)ethanone", "Ethanone, 1-(4,5-dichloro-2-thienyl)-", "Ketone, 4,5-dichloro-2-thienyl methyl", "1-(4,5-Dichloro-2-thienyl)ethanone", "2-Acetyl-4,5-dichlorothiophene", "4,5-Dichloro-2-acetylthiophene", "1-(4,5-Dichlorothiophen-2-yl)ethanone"], "SMILES": "C(C)(=O)C1=CC(Cl)=C(Cl)S1", "physical_data": {"Molecular Weight": "195.07", "Molecular Formula": "C6H4Cl2OS", "Melting Point": "68 \u00b0C"}}