{"cas_no": "57696-89-6", "cn_name": "3,5,5-\u4e09\u7532\u57fa\u73af\u5df1\u70f7-1,2-\u4e8c\u916e", "en_name": ["3,5,5-Trimethyl-1,2-cyclohexanedione", "1,2-Cyclohexanedione, 3,5,5-trimethyl-", "3,5,5-Trimethyl-1,2-cyclohexanedione", "3,5,5-Trimethylcyclohexane-1,2-dione"], "SMILES": "CC1(C)CC(C)C(=O)C(=O)C1", "physical_data": {"Molecular Weight": "154.21", "Molecular Formula": "C9H14O2", "Melting Point": "91 \u00b0C"}}