{"cas_no": "57699-28-2", "cn_name": "2-(4-\u6eb4\u82ef\u57fa)-2-\u6c27\u4ee3\u4e59\u9178\u7532\u916f", "en_name": ["Methyl 4-bromo-\u03b1-oxobenzeneacetate", "Benzeneacetic acid, 4-bromo-\u03b1-oxo-, methyl ester", "Methyl 4-bromo-\u03b1-oxobenzeneacetate", "Methyl p-bromobenzoylformate", "Methyl 2-(4-bromophenyl)-2-oxoacetate", "Methyl (4-bromophenyl)glyoxylate"], "SMILES": "C(C(OC)=O)(=O)C1=CC=C(Br)C=C1", "physical_data": {"Molecular Weight": "243.05", "Molecular Formula": "C9H7BrO3", "Melting Point": "49-51 \u00b0C"}}