{"cas_no": "577-85-5", "cn_name": "3-\u7f9f\u57fa\u9ec4\u916e", "en_name": ["Flavonol", "4H-1-Benzopyran-4-one, 3-hydroxy-2-phenyl-", "Flavone, 3-hydroxy-", "3-Hydroxy-2-phenyl-4H-1-benzopyran-4-one", "Flavon-3-ol", "Flavonol", "3-Hydroxyflavone", "3-Hydroxy-2-phenylchromone", "3-HF", "NSC 57653", "NSC 58585", "NSC 58586", "NSC 58587", "3-Hydroxy-2-phenyl-4H-chromen-4-one", "AF 1", "3-Hydroxy-2-phenylchromen-4-one"], "SMILES": "OC1=C(OC=2C(C1=O)=CC=CC2)C3=CC=CC=C3", "physical_data": {"Molecular Weight": "238.24", "Molecular Formula": "C15H10O3", "Melting Point": "171 \u00b0C"}}