{"cas_no": "577-71-9", "cn_name": "3,4-\u4e8c\u785d\u57fa\u82ef\u915a", "en_name": ["3,4-Dinitrophenol", "Phenol, 3,4-dinitro-", "3,4-Dinitrophenol", "Phenol, \u03b4-dinitro-", "3,4-DNP"], "SMILES": "N(=O)(=O)C1=C(N(=O)=O)C=C(O)C=C1", "physical_data": {"Molecular Weight": "184.11", "Molecular Formula": "C6H4N2O5", "Melting Point": "134 \u00b0C"}}