{"cas_no": "577-16-2", "cn_name": "\u90bb\u7532\u57fa\u82ef\u4e59\u916e", "en_name": ["2\u2032-Methylacetophenone", "Ethanone, 1-(2-methylphenyl)-", "Acetophenone, 2\u2032-methyl-", "Acetophenone, o-methyl-", "1-(2-Methylphenyl)ethanone", "o-Methylacetophenone", "2\u2032-Methylacetophenone", "o-Acetyltoluene", "2-Acetyltoluene", "Methyl 2-methylphenyl ketone", "2-Methylphenyl methyl ketone", "Methyl o-tolyl ketone", "1-(2-Tolyl)ethanone", "NSC 84233", "1-(o-Tolyl)ethanone", "1-(2-Methylphenyl)ethan-1-one", "(o-Tolyl)ethan-1-one", "1-(o-Tolyl)ethan-1-one"], "SMILES": "C(C)(=O)C1=C(C)C=CC=C1", "physical_data": {"Molecular Weight": "134.18", "Molecular Formula": "C9H10O", "Boiling Point": "214 \u00b0C", "Melting Point": "107-108 \u00b0C"}}