{"cas_no": "577-19-5", "cn_name": "1-\u6eb4-2-\u785d\u57fa\u82ef", "en_name": ["1-Bromo-2-nitrobenzene", "Benzene, 1-bromo-2-nitro-", "1-Bromo-2-nitrobenzene", "o-Bromonitrobenzene", "2-Bromonitrobenzene", "o-Nitrobromobenzene", "2-Nitrobromobenzene", "o-Nitrophenyl bromide", "2-Bromo-1-nitrobenzene", "2-Nitrophenyl bromide", "NSC 403836", "2-Nitro-1-bromobenzene"], "SMILES": "N(=O)(=O)C1=C(Br)C=CC=C1", "physical_data": {"Molecular Weight": "202.01", "Molecular Formula": "C6H4BrNO2", "Boiling Point": "258 \u00b0C", "Melting Point": "43 \u00b0C"}}