{"cas_no": "577-68-4", "cn_name": "4,5-\u4e8c\u7532\u6c27\u57fa-\u90bb\u82ef\u4e8c\u7532\u9178", "en_name": ["4,5-Dimethoxyphthalic acid", "1,2-Benzenedicarboxylic acid, 4,5-dimethoxy-", "Phthalic acid, 4,5-dimethoxy-", "4,5-Dimethoxy-1,2-benzenedicarboxylic acid", "m-Hemipinic acid", "m-Hemipic acid", "4,5-Dimethoxyphthalic acid", "NSC 155484"], "SMILES": "C(O)(=O)C1=C(C(O)=O)C=C(OC)C(OC)=C1", "physical_data": {"Molecular Weight": "226.18", "Molecular Formula": "C10H10O6", "Melting Point": "179 \u00b0C"}}