{"cas_no": "577-11-7", "cn_name": "\u591a\u5e93\u8102\u94a0", "en_name": ["Sodium bis(2-ethylhexyl) sulfosuccinate", "Butanedioic acid, 2-sulfo-, 1,4-bis(2-ethylhexyl) ester, sodium salt (1:1)", "Succinic acid, sulfo-, 1,4-bis(2-ethylhexyl) ester, sodium salt", "Butanedioic acid, sulfo-, 1,4-bis(2-ethylhexyl) ester, sodium salt", "Aerosol OT-B", "SV 102", "Aerosol OT", "Alphasol OT", "Bis(2-ethylhexyl) sodium sulfosuccinate", "Bis(2-ethylhexyl) S-sodium sulfosuccinate", "1,4-Bis(2-ethylhexyl) sodium sulfosuccinate", "Colace", "Constonate", "Coprol", "Dioctlyn", "Dioctylal", "Diomedicone", "Diosuccin", "Diovac", "Diox", "Disonate", "Doxol", "Doxinate", "Dulsivac", "Duosol", "Konlax", "Kosate", "Laxinate", "Molofac", "Nevax", "Regutol", "Revac", "Sobital", "Softil", "Sulfosuccinic acid bis(2-ethylhexyl)ester sodium salt", "Velmol", "Sodium bis(ethylhexyl) sulfosuccinate", "Bis(2-ethylhexyl) sulfosuccinate sodium salt", "Sodium 1,4-bis(2-ethylhexyl) sulfosuccinate", "Di-2-ethylhexyl sodium sulfosuccinate", "Sodium dioctyl sulfosuccinate", "Dioctyl sodium sulfosuccinate", "DSS", "Complemix", "Dioctyl-Medo Forte", "Diotilan", "Molatoc", "Molcer", "Norval", "Soliwax", "Solusol", "Sulfimel DOS", "Waxsol", "Di(2-ethylhexyl) sulfosuccinate sodium salt", "AOT I", "Dioctyl sulfosuccinate sodium", "Triton GR 5", "Triton GR 7", "Vatsol OT", "Rapisol", "Aerosol GPG", "Dioctyl sulfosuccinate sodium salt", "Obston", "Mervamine", "Defilin", "Aerosol OT 75", "Sodium di(2-ethylhexyl) sulfosuccinate", "Berol 478", "Sanmorin OT 70", "Alcopol O", "Wetaid SR", "Tex-Wet 1001", "Manoxol OP", "Docusate sodium", "Nikkol OTP 70", "Humifen WT 27G", "Warcowet 060", "Sodium 1,2-bis(2-ethylhexyloxycarbonyl)-1-ethanesulfonate", "SBO", "Bis(2-ethylhexyl) sodiosulfosuccinate", "Celanol DOS 75", "Rapisol B 80", "Aerosol OT-S", "Lankropol KO 2", "AOT", "Nissan Rapisol B 80", "Nissan Rapisol", "Nissan Rapisol B 30", "Rapisol B 30", "Nonit", "DOSS 70", "Solovet", "Celanol DOS 65", "Triton GR 5M", "Sunnol LDF 110", "Triton GR 7M", "Aerosol OT 100", "Spilon 8", "Monawet MO 70", "Drewfax 007", "Newcol 290M", "Pelex OT-P", "Sulfosuccinic acid di-2-ethylhexyl ester sodium salt", "Pelex OT", "DOSS", "Marlinat DF 8", "TKB 20", "Succinate STD", "Secosol DOS 70", "Karawet DOSS", "Gemtex SC", "Monawet MO 70E", "Isoprotanc", "Airrol CT 1", "Astrowet O 75", "OT", "Newcol 291EG", "Aerosol OT 94", "Adekacol EC 8600", "Astrowet O 70PG", "Nikkol OTP 100", "OTP 75", "Manoxol OT", "Nikkol OTP 75", "Rewopol SBDO 70", "DESS", "Sodium bis(2-ethylhexyl) sulfosuccinate", "Emcol 4500", "Nikkol OTP 100S", "Alkasurf SS-O 75", "Rapisol B 90", "Nissan Rapisol B 90", "Monawet MO 70R", "Lutensit A-BO", "Octowet", "Sodium docusate", "Aerosol OT 70PG", "Manoxol", "Aerosol A 501", "Sodium di(ethylhexyl) sulfosuccinate", "KM 10-1610", "Mackanate DOS 75", "Pentex 99", "Pionin A 51B", "Astrowet 608", "Neopelex OTP", "Geropon SS-O 75", "Newkalgen EP 70G", "Geropon WT 27", "Freetex OT", "AOT 100", "OT 100", "Neocol YSK", "Sanmorin OT 70N", "Rapisol A 30", "Nissan Rapisol A 30", "Newkalgen EP 60P", "Empimin OP 70", "Genopur SB 1970J", "Geropon DOS", "Empimin OT 75", "Airrol OP", "Lumiten I-RA", "Persol KMN 3", "Aerosol AOT", "Neocol P", "Nissan Rapisol A 80", "Rapisol A 80", "Newcol 291M", "Aerosol OT-A", "OTP 100", "B 80", "Sanseparer 100", "Surfonic DOS 75PG", "Lutensit A-BOS", "Gemtex SC 40", "NK-EP 70G", "Monawet M 085P", "Triton GR 7ME", "Aerosol OT 75PG", "Rikakoru M 75", "M 75", "Monowet MO 70R", "Koremul 290", "Talosurf", "Rapisol A 90", "Nissan Rapisol A 90", "Modane Soft", "Yal", "Dialose", "Coprola", "Disposaject", "Correctol Stool Softener Laxative", "Dulcivac", "Comfolax", "Dioctyl", "Miconate DOS", "OT 70", "Carabon DA 72", "Monawet MO 65-150", "Nissan Rapisol B 07", "Airrol CT 1L", "Newcol 291PG", "Aerosol OT 75E", "OT 75E", "PAV 1019", "Monowet MO-E 75", "Geropon SDS", "OT 75", "OT 75 (surfactant)", "E 480", "Sanmorin OT", "Adekacol EC 4500", "05035TX", "SN-Wet OT 70", "Chemax DOSS 70PG", "Acrosol OT 100", "Lankropol 4500", "Aerosol OT 70", "Neocol SW-C", "Sorpol 5050", "Lipal 860K", "Lipal 870P", "Disponil SUS-IC 875", "Leveling Agent T", "Leveller T", "Eurowet PG", "GR 5M", "Triton GR-PG 70", "Emulsogen SF 8", "Rapid Penetrant T", "Triton GR 9M", "A 501", "Rikasurf G 30", "Rikasurf P 10", "D 0113L", "SD 11", "Penetrant T", "Fast T Penetrant", "Dispersant T", "Triumph ZSG", "Rikasurf M 75", "Ripol 070", "Tensid AOT", "Ultradoss 75", "Dioctyl disodium sulfosuccinate", "Lankropol KPH 70", "Stepwet DOS 70", "Lumiten I-SC", "DOS 70", "Aerosol AOT 7OPG", "Lapisol A 80", "Multiwet MO 85P", "OT 85", "NE 291PG", "EPT 3379", "Synergen W 10", "Airrol CT", "Hydropalat WE 3475", "WE 3475", "Pionine A 51B", "Imbirol OT/NA/70", "Imbirol OT/NA/65", "Imbirol OT/NA/60", "Imbirol OT/NA/45", "Sodium di-sec-octyl sulfomaleate", "Dioctyl sodium sulfomaleate", "EC 4500", "AG 1210", "Cola Wet DOSS-PG", "Aerosol OT-SE", "Multiwet MO 70R-LQ-(AP)", "Multiwet MO 70R", "Alcopol O 60", "Provichem 2588P", "Stepwet DOS 60IP", "Stepwet DOS 60OE", "Stepwet DOS 60ROE", "Stepwet DOS 64A 150ND", "Stepwet DOS 70DG", "Stepwet DOS 70EA", "Stepwet DOS 70PG", "Surfonic DOS 75", "Enviomet EM 5669", "Rikasurf M 30", "DES 30", "Geropon DES 30", "KDS 54564", "Sodium bis(2-ethylhexyl) sulfosucinate", "Resamine CUT 30", "Diethylhexyl sodium sulfosuccinate", "Geropon DOS PG70", "Dioctyl sodium sulphosuccinate", "BP 8211", "Imbirol OT-NA 70B", "A 51B", "Solbalon D 80"], "SMILES": "C(C(OCC(CCCC)CC)=O)(CC(OCC(CCCC)CC)=O)S(=O)(=O)O.[Na]", "physical_data": {"Molecular Weight": "", "Molecular Formula": "C20H38O7S.Na", "Boiling Point": "360 \u00b0C", "Melting Point": "176 \u00b0C"}}