{"cas_no": "577-72-0", "cn_name": "4-\u7532\u6c27\u57fa-3-\u785d\u57fa\u82ef\u80fa", "en_name": ["4-Methoxy-3-nitrobenzenamine", "Benzenamine, 4-methoxy-3-nitro-", "p-Anisidine, 3-nitro-", "4-Methoxy-3-nitrobenzenamine", "1-Amino-3-nitro-4-methoxybenzene", "4-Amino-2-nitroanisole", "4-Methoxy-3-nitroaniline", "3-Nitro-4-methoxyaniline", "3-Nitro-p-anisidine"], "SMILES": "N(=O)(=O)C1=C(OC)C=CC(N)=C1", "physical_data": {"Molecular Weight": "168.15", "Molecular Formula": "C7H8N2O3", "Melting Point": "46-47 \u00b0C"}}