{"cas_no": "577-56-0", "cn_name": "2-\u4e59\u9170\u82ef\u7532\u9178", "en_name": ["2-Acetylbenzoic acid", "Benzoic acid, 2-acetyl-", "Benzoic acid, o-acetyl-", "2-Acetylbenzoic acid", "o-Acetylbenzoic acid", "o-Carboxyacetophenone", "2\u2032-Carboxyacetophenone", "NSC 407680", "o-Acetophenonecarboxylic acid", "2-Acetophenonecarboxylic acid", "2-(1-Oxoethyl)-1-benzoic acid"], "SMILES": "C(C)(=O)C1=C(C(O)=O)C=CC=C1", "physical_data": {"Molecular Weight": "164.16", "Molecular Formula": "C9H8O3", "Boiling Point": "110-112 \u00b0C", "Melting Point": "114.5 \u00b0C"}}