{"cas_no": "577-59-3", "cn_name": "\u90bb\u785d\u57fa\u82ef\u4e59\u916e", "en_name": ["2\u2032-Nitroacetophenone", "Ethanone, 1-(2-nitrophenyl)-", "Acetophenone, 2\u2032-nitro-", "1-(2-Nitrophenyl)ethanone", "2\u2032-Nitroacetophenone", "o-Nitroacetophenone", "Methyl 2-nitrophenyl ketone", "2-Acetylnitrobenzene", "NSC 3641", "1-Acetyl-2-nitrobenzene", "Methyl o-nitrophenyl ketone", "2-Nitrophenylmethylketone", "1-(2-Nitrophenyl)ethan-1-one"], "SMILES": "C(C)(=O)C1=C(N(=O)=O)C=CC=C1", "physical_data": {"Molecular Weight": "165.15", "Molecular Formula": "C8H7NO3", "Boiling Point": "178 \u00b0C", "Melting Point": "28.5 \u00b0C", "Density": "1.238 g/cm\u00b3 @ Temp: 25 \u00b0C"}}