{"cas_no": "577-38-8", "cn_name": "\u9ec4\u8bfa\u9a6c\u82f7", "en_name": ["Flavanomarein", "4H-1-Benzopyran-4-one, 2-(3,4-dihydroxyphenyl)-7-(\u03b2-D-glucopyranosyloxy)-2,3-dihydro-8-hydroxy-, (2S)-", "Flavanone, 3\u2032,4\u2032,7,8-tetrahydroxy-, 7-D-glucopyranoside", "4H-1-Benzopyran-4-one, 2-(3,4-dihydroxyphenyl)-7-(\u03b2-D-glucopyranosyloxy)-2,3-dihydro-8-hydroxy-, (S)-", "(2S)-2-(3,4-Dihydroxyphenyl)-7-(\u03b2-D-glucopyranosyloxy)-2,3-dihydro-8-hydroxy-4H-1-benzopyran-4-one", "Flavanomarein", "Flavonomarein", "Flavomarein", "Isookanin 7-O-\u03b2-D-glucopyranoside"], "SMILES": "OC1=C2C(C(=O)CC(O2)C3=CC(O)=C(O)C=C3)=CC=C1OC4OC(CO)C(O)C(O)C4O", "physical_data": {"Molecular Weight": "450.39", "Molecular Formula": "C21H22O11", "Melting Point": "237-243 \u00b0C"}}