{"cas_no": "577-62-8", "cn_name": "2-(\u4e09\u6c1f\u7532\u57fa)\u82ef\u7532\u9178\u4e59\u916f", "en_name": ["Benzoic acid, 2-(trifluoromethyl)-, ethyl ester", "Benzoic acid, 2-(trifluoromethyl)-, ethyl ester", "o-Toluic acid, \u03b1,\u03b1,\u03b1-trifluoro-, ethyl ester", "Ethyl o-(trifluoromethyl)benzoate", "Ethyl 2-(trifluoromethyl)benzoate", "2-Trifluoromethylbenzoic acid ethyl ester"], "SMILES": "C(OCC)(=O)C1=C(C(F)(F)F)C=CC=C1", "physical_data": {"Molecular Weight": "218.17", "Molecular Formula": "C10H9F3O2", "Boiling Point": "90-91 \u00b0C @ Press: 10 Torr"}}