{"cas_no": "57709-62-3", "cn_name": "1,10-\u83f2\u5570\u5549-2,9-\u4e8c\u7532\u919b", "en_name": ["1,10-Phenanthroline-2,9-dicarboxaldehyde", "1,10-Phenanthroline-2,9-dicarboxaldehyde", "2,9-Diformyl-1,10-phenanthroline", "1,10-Phenanthroline-2,9-dicarbaldehyde"], "SMILES": "C(=O)C1=NC2=C3C(=CC=C2C=C1)C=CC(C=O)=N3", "physical_data": {"Molecular Weight": "236.23", "Molecular Formula": "C14H8N2O2", "Melting Point": "230 \u00b0C"}}