{"cas_no": "57717-80-3", "cn_name": "\u5316\u5408\u7269 T22652", "en_name": ["3,5-Bis(1,1-dimethylethyl)-4-hydroxy-\u03b2,\u03b2-dimethylbenzenepropanol", "Benzenepropanol, 3,5-bis(1,1-dimethylethyl)-4-hydroxy-\u03b2,\u03b2-dimethyl-", "3,5-Bis(1,1-dimethylethyl)-4-hydroxy-\u03b2,\u03b2-dimethylbenzenepropanol", "3-(3,5-Di-tert-butyl-4-hydroxyphenyl)-2,2-dimethylpropyl alcohol", "2,2-Dimethyl-3-(3,5-di-tert-butyl-4-hydroxyphenyl)-1-propanol", "3-(3,5-di-tert-butyl-4-hydroxyphenyl)-2,2-dimethylpropanol", "CGP 7930", "2,6-Bis(tert-butyl)-4-(3-hydroxy-2,2-dimethylpropyl)phenol", "2,6-Di-tert-butyl-4-(3-hydroxy-2,2-dimethylpropyl)phenol"], "SMILES": "C(C)(C)(C)C1=C(O)C(C(C)(C)C)=CC(CC(CO)(C)C)=C1", "physical_data": {"Molecular Weight": "292.46", "Molecular Formula": "C19H32O2", "Melting Point": "80-82 \u00b0C"}}