{"cas_no": "57726-26-8", "cn_name": "4-(ETHOXYMETHYL)PHENOL", "en_name": ["4-(Ethoxymethyl)phenol", "Phenol, 4-(ethoxymethyl)-", "p-Cresol, \u03b1-ethoxy-", "4-(Ethoxymethyl)phenol", "\u03b1-Ethoxy-p-cresol", "p-Hydroxybenzyl ethyl ether", "Ethyl 4-hydroxybenzyl ether", "4-Hydroxybenzyl ethyl ether"], "SMILES": "C(OCC)C1=CC=C(O)C=C1", "physical_data": {"Molecular Weight": "152.19", "Molecular Formula": "C9H12O2", "Boiling Point": "105 \u00b0C @ Press: 0.8 Torr", "Melting Point": "50-51 \u00b0C"}}