{"cas_no": "57728-59-3", "cn_name": "(3-\u6c2f\u82c4\u6c27\u6c28\u57fa)\u4e59\u9178", "en_name": ["N-(3-Chlorobenzoyl)glycine", "Glycine, N-(3-chlorobenzoyl)-", "Hippuric acid, m-chloro-", "N-(3-Chlorobenzoyl)glycine", "m-Chlorohippuric acid", "NSC 201882", "(3-Chlorobenzoylamino)acetic acid", "2-[(3-Chlorophenyl)formamido]acetic acid", "2-[(3-Chlorobenzoyl)amino]acetic acid"], "SMILES": "C(NCC(O)=O)(=O)C1=CC(Cl)=CC=C1", "physical_data": {"Molecular Weight": "213.62", "Molecular Formula": "C9H8ClNO3", "Melting Point": "143-144 \u00b0C"}}