{"cas_no": "5773-80-8", "cn_name": "6-\u6eb4-2-\u8418\u7532\u9178", "en_name": ["6-Bromo-2-naphthalenecarboxylic acid", "2-Naphthalenecarboxylic acid, 6-bromo-", "2-Naphthoic acid, 6-bromo-", "6-Bromo-2-naphthalenecarboxylic acid", "6-Bromo-2-naphthoic acid", "6-Bromo-2-naphthylacetic acid", "2-Bromo-6-naphthoic acid"], "SMILES": "C(O)(=O)C1=CC2=C(C=C(Br)C=C2)C=C1", "physical_data": {"Molecular Weight": "251.08", "Molecular Formula": "C11H7BrO2", "Melting Point": "286 \u00b0C"}}