{"cas_no": "57734-57-3", "cn_name": "\u5421\u54af\u70f7-2-\u7532\u80fa", "en_name": ["2-Pyrrolidinemethanamine", "2-Pyrrolidinemethanamine", "2-(Aminomethyl)pyrrolidine", "1-(Pyrrolidin-2-yl)methanamine", "Pyrrolidin-2-ylmethanamine"], "SMILES": "C(N)C1CCCN1", "physical_data": {"Molecular Weight": "100.16", "Molecular Formula": "C5H12N2", "Boiling Point": "65 \u00b0C @ Press: 11 Torr"}}