{"cas_no": "57749-43-6", "cn_name": "\u5c39\u594e\u8272\u4ead", "en_name": ["Equisetin", "2,4-Pyrrolidinedione, 5-(hydroxymethyl)-3-[hydroxy[(1S,2R,4aS,6R,8aR)-1,2,4a,5,6,7,8,8a-octahydro-1,6-dimethyl-2-(1E)-1-propen-1-yl-1-naphthalenyl]methylene]-1-methyl-, (3E,5S)-", "2,4-Pyrrolidinedione, 5-(hydroxymethyl)-3-[hydroxy[1,2,4a,5,6,7,8,8a-octahydro-1,6-dimethyl-2-(1-propenyl)-1-naphthalenyl]methylene]-1-methyl-, [1S-[1\u03b1[E(R*)],2\u03b1(E),4a\u03b2,6\u03b1,8a\u03b1]]-", "2,4-Pyrrolidinedione, 5-(hydroxymethyl)-3-[hydroxy[(1S,2R,4aS,6R,8aR)-1,2,4a,5,6,7,8,8a-octahydro-1,6-dimethyl-2-(1E)-1-propenyl-1-naphthalenyl]methylene]-1-methyl-, (3E,5S)-", "(3E,5S)-5-(Hydroxymethyl)-3-[hydroxy[(1S,2R,4aS,6R,8aR)-1,2,4a,5,6,7,8,8a-octahydro-1,6-dimethyl-2-(1E)-1-propen-1-yl-1-naphthalenyl]methylene]-1-methyl-2,4-pyrrolidinedione", "Equisetin", "(-)-Equisetin"], "SMILES": "C(O)(C1(C)C2C(C=CC1C=CC)CC(C)CC2)=C3C(=O)C(CO)N(C)C3=O", "physical_data": {"Molecular Weight": "373.49", "Molecular Formula": "C22H31NO4", "Melting Point": "117-118 \u00b0C"}}