{"cas_no": "5775-89-3", "cn_name": "3-\u7532\u57fa-1-\u4e59\u57fa-1H\u5421\u5511-5-\u7532\u9178\u4e59\u916f", "en_name": ["Ethyl 4-bromo-1,3-dimethyl-1H-pyrazole-5-carboxylate", "1H-Pyrazole-5-carboxylic acid, 4-bromo-1,3-dimethyl-, ethyl ester", "Pyrazole-5-carboxylic acid, 4-bromo-1,3-dimethyl-, ethyl ester", "Ethyl 4-bromo-1,3-dimethyl-1H-pyrazole-5-carboxylate"], "SMILES": "C(OCC)(=O)C1=C(Br)C(C)=NN1C", "physical_data": {"Molecular Weight": "247.09", "Molecular Formula": "C8H11BrN2O2", "Boiling Point": "114 \u00b0C @ Press: 2 Torr"}}