{"cas_no": "57756-36-2", "cn_name": "4-\u4e59\u9170\u57fa-2,3,4,5-\u56db\u6c22-1H-1,4-\u82ef\u5e76\u4e8c\u6c2e\u6742\u5353", "en_name": ["1-(1,2,3,5-Tetrahydro-4H-1,4-benzodiazepin-4-yl)ethanone", "Ethanone, 1-(1,2,3,5-tetrahydro-4H-1,4-benzodiazepin-4-yl)-", "1H-1,4-Benzodiazepine, 4-acetyl-2,3,4,5-tetrahydro-", "1-(1,2,3,5-Tetrahydro-4H-1,4-benzodiazepin-4-yl)ethanone", "4-Acetyl-2,3,4,5-tetrahydro-1H-1,4-benzodiazepine", "1-(1,2,3,5-Tetrahydro-1,4-benzodiazepin-4-yl)ethanone", "1-(2,3,4,5-Tetrahydro-1H-1,4-benzodiazepin-4-yl)ethan-1-one"], "SMILES": "C(C)(=O)N1CC=2C(NCC1)=CC=CC2", "physical_data": {"Molecular Weight": "190.24", "Molecular Formula": "C11H14N2O", "Melting Point": "85 \u00b0C"}}