{"cas_no": "57774-36-4", "cn_name": "4'-\u6c2f-4-\u6c30\u57fa\u8054\u82ef", "en_name": ["4\u2032-Chloro[1,1\u2032-biphenyl]-4-carbonitrile", "[1,1\u2032-Biphenyl]-4-carbonitrile, 4\u2032-chloro-", "4-Biphenylcarbonitrile, 4\u2032-chloro-", "4\u2032-Chloro[1,1\u2032-biphenyl]-4-carbonitrile", "4\u2032-Chloro-1,1\u2032-biphenyl-4-ylcarbonitrile", "4\u2032-Chlorobiphenyl-4-carbonitrile"], "SMILES": "C(#N)C1=CC=C(C=C1)C2=CC=C(Cl)C=C2", "physical_data": {"Molecular Weight": "213.66", "Molecular Formula": "C13H8ClN", "Melting Point": "129-130 \u00b0C"}}