{"cas_no": "57774-77-3", "cn_name": "\u5bf9\u53d4\u4e01\u57fa\u786b\u4ee3\u82ef\u7532\u9170\u80fa", "en_name": ["4-(1,1-Dimethylethyl)benzenecarbothioamide", "Benzenecarbothioamide, 4-(1,1-dimethylethyl)-", "4-(1,1-Dimethylethyl)benzenecarbothioamide", "4-(tert-Butyl)thiobenzamide"], "SMILES": "C(C)(C)(C)C1=CC=C(C(N)=S)C=C1", "physical_data": {"Molecular Weight": "193.31", "Molecular Formula": "C11H15NS", "Melting Point": "145.5-147.5 \u00b0C"}}