{"cas_no": "5779-94-2", "cn_name": "2,5-\u4e8c\u7532\u57fa\u82ef\u7532\u919b", "en_name": ["2,5-Dimethylbenzaldehyde", "Benzaldehyde, 2,5-dimethyl-", "2,5-Dimethylbenzaldehyde", "Isoxylaldehyde"], "SMILES": "C(=O)C1=C(C)C=CC(C)=C1", "physical_data": {"Molecular Weight": "134.18", "Molecular Formula": "C9H10O", "Boiling Point": "220 \u00b0C"}}