{"cas_no": "5779-93-1", "cn_name": "2,3-\u4e8c\u7532\u57fa\u82ef\u7532\u919b", "en_name": ["2,3-Dimethylbenzaldehyde", "Benzaldehyde, 2,3-dimethyl-", "2,3-Dimethylbenzaldehyde", "Hemellitaldehyde"], "SMILES": "C(=O)C1=C(C)C(C)=CC=C1", "physical_data": {"Molecular Weight": "134.18", "Molecular Formula": "C9H10O", "Boiling Point": "86-88 \u00b0C @ Press: 10 Torr"}}