{"cas_no": "5779-72-6", "cn_name": "2,4,5-\u4e09\u7532\u57fa\u82ef\u7532\u919b", "en_name": ["2,4,5-Trimethylbenzaldehyde", "Benzaldehyde, 2,4,5-trimethyl-", "2,4,5-Trimethylbenzaldehyde", "Durylaldehyde", "Duraldehyde"], "SMILES": "C(=O)C1=C(C)C=C(C)C(C)=C1", "physical_data": {"Molecular Weight": "148.20", "Molecular Formula": "C10H12O", "Melting Point": "42.5-43.5 \u00b0C"}}