{"cas_no": "578-39-2", "cn_name": "4-\u7f9f\u57fa-2-\u7532\u57fa\u82ef\u7532\u9178", "en_name": ["4-Hydroxy-2-methylbenzoic acid", "Benzoic acid, 4-hydroxy-2-methyl-", "4,2-Cresotic acid", "4-Hydroxy-2-methylbenzoic acid", "4-Hydroxy-o-toluic acid", "2-Methyl-4-hydroxybenzoic acid", "NSC 85496"], "SMILES": "C(O)(=O)C1=C(C)C=C(O)C=C1", "physical_data": {"Molecular Weight": "152.15", "Molecular Formula": "C8H8O3", "Melting Point": "182 \u00b0C"}}