{"cas_no": "578-67-6", "cn_name": "5-\u7f9f\u57fa\u55b9\u5549", "en_name": ["5-Hydroxyquinoline", "5-Quinolinol", "5-Hydroxyquinoline", "NSC 405729"], "SMILES": "OC=1C2=C(C=CC1)N=CC=C2", "physical_data": {"Molecular Weight": "145.16", "Molecular Formula": "C9H7NO", "Melting Point": "226 \u00b0C (decomp)"}}