{"cas_no": "578-58-5", "cn_name": "2-\u7532\u57fa\u82ef\u7532\u919a", "en_name": ["2-Methylanisole", "Benzene, 1-methoxy-2-methyl-", "Anisole, o-methyl-", "1-Methoxy-2-methylbenzene", "o-Cresyl methyl ether", "o-Methylanisole", "Methyl o-cresyl ether", "Methyl o-tolyl ether", "2-Methylanisole", "o-Methoxytoluene", "2-Methoxytoluene", "o-Cresol methyl ether", "Methyl o-methylphenyl ether", "2-Methyl-1-methoxybenzene", "2-Cresol methyl ether", "NSC 6253", "NK 409"], "SMILES": "O(C)C1=C(C)C=CC=C1", "physical_data": {"Molecular Weight": "122.16", "Molecular Formula": "C8H10O", "Boiling Point": "171 \u00b0C", "Melting Point": "-34.1 \u00b0C", "Density": "0.9798 g/cm\u00b3"}}