{"cas_no": "578-76-7", "cn_name": "7-\u7532\u57fa\u9e1f\u560c\u5464", "en_name": ["7-Methylguanine", "6H-Purin-6-one, 2-amino-1,7-dihydro-7-methyl-", "Guanine, 7-methyl-", "2-Amino-1,7-dihydro-7-methyl-6H-purin-6-one", "7-Methylguanine", "N7-Methylguanine", "2-Amino-7-methylhypoxanthine", "NSC 193444", "NSC 19647", "2-Amino-7-methyl-7H-purin-6-ol", "2-Amino-7-methyl-1H-purin-6(7H)-one", "2-Imino-7-methyl-2,3,6,7-tetrahydro-1H-purin-6-one", "2-Amino-7-methyl-3H-purin-6-one", "2-Amino-7-methyl-6,7-dihydro-3H-purin-6-one", "2-Amino-7-methyl-6,7-dihydro-1H-purin-6-one"], "SMILES": "O=C1C2=C(NC(N)=N1)N=CN2C", "physical_data": {"Molecular Weight": "165.15", "Molecular Formula": "C6H7N5O", "Melting Point": "370 \u00b0C"}}