{"cas_no": "578-66-5", "cn_name": "8-\u6c28\u57fa\u55b9\u5549", "en_name": ["8-Aminoquinoline", "8-Quinolinamine", "Quinoline, 8-amino-", "8-Aminoquinoline", "8-Quinolylamine", "WR 6920", "NC 066", "8-Quinolinylamine", "NSC 7933", "4-Quinolin-8-amine"], "SMILES": "NC=1C2=C(C=CC1)C=CC=N2", "physical_data": {"Molecular Weight": "144.17", "Molecular Formula": "C9H8N2", "Boiling Point": "157 \u00b0C", "Melting Point": "70 \u00b0C"}}