{"cas_no": "578-95-0", "cn_name": "\u5416\u5576\u916e", "en_name": ["Acridone", "9(10H)-Acridinone", "9-Acridanone", "Acridone", "Acridine, 9,10-dihydro-9-oxo-", "Acridanone", "9-Acridone", "9(10H)-Acridone", "Acridin-9-one", "CK 103", "CK 103 (heterocycle)", "NSC 408196", "NSC 7664", "10H-Acridin-9-one", "9(10H)-Acridanone"], "SMILES": "O=C1C=2C(NC=3C1=CC=CC3)=CC=CC2", "physical_data": {"Molecular Weight": "195.22", "Molecular Formula": "C13H9NO", "Melting Point": "348 \u00b0C"}}