{"cas_no": "578-28-9", "cn_name": "4-\u6c2f-2,5-\u4e8c\u6c1f\u785d\u57fa\u82ef", "en_name": ["1-Chloro-2,5-difluoro-4-nitrobenzene", "Benzene, 1-chloro-2,5-difluoro-4-nitro-", "1-Chloro-2,5-difluoro-4-nitrobenzene", "4-Chloro-2,5-difluoronitrobenzene"], "SMILES": "N(=O)(=O)C1=C(F)C=C(Cl)C(F)=C1", "physical_data": {"Molecular Weight": "193.54", "Molecular Formula": "C6H2ClF2NO2", "Boiling Point": "116 \u00b0C @ Press: 20 Torr"}}