{"cas_no": "578-68-7", "cn_name": "4-\u6c28\u57fa\u55b9\u5549", "en_name": ["4-Aminoquinoline", "4-Quinolinamine", "Quinoline, 4-amino-", "4-Aminoquinoline", "4-Quinolylamine"], "SMILES": "NC=1C2=C(N=CC1)C=CC=C2", "physical_data": {"Molecular Weight": "144.17", "Molecular Formula": "C9H8N2", "Boiling Point": "180 \u00b0C", "Melting Point": "154.8 \u00b0C"}}