{"cas_no": "578-46-1", "cn_name": "5-\u7532\u57fa-2-\u785d\u57fa\u82ef\u80fa", "en_name": ["5-Methyl-2-nitroaniline", "Benzenamine, 5-methyl-2-nitro-", "m-Toluidine, 6-nitro-", "5-Methyl-2-nitrobenzenamine", "4-Nitro-3-aminotoluene", "5-Methyl-o-nitroaniline", "3-Amino-4-nitrotoluene", "1-Amino-3-methyl-6-nitrobenzene", "6-Nitro-m-toluidine", "2-Nitro-5-methylaniline", "5-Methyl-2-nitroaniline", "3-Methyl-6-nitroaniline", "NSC 28586", "NSC 404025", "(5-Methyl-2-nitrophenyl)amine"], "SMILES": "N(=O)(=O)C1=C(N)C=C(C)C=C1", "physical_data": {"Molecular Weight": "152.15", "Molecular Formula": "C7H8N2O2", "Melting Point": "133 \u00b0C"}}