{"cas_no": "578-74-5", "cn_name": "\u82b9\u7519\u5143-7-\u8461\u8404\u7cd6\u82f7", "en_name": ["Apigenin 7-O-glucoside", "4H-1-Benzopyran-4-one, 7-(\u03b2-D-glucopyranosyloxy)-5-hydroxy-2-(4-hydroxyphenyl)-", "Cosmosiin", "Apigenin, 7-\u03b2-D-glucopyranoside", "7-(\u03b2-D-Glucopyranosyloxy)-5-hydroxy-2-(4-hydroxyphenyl)-4H-1-benzopyran-4-one", "Cosmetin", "Cosmosiine", "Cosmosioside", "7-O-\u03b2-D-Glucopyranosylapigenin", "Apigenin 7-O-\u03b2-D-glucopyranoside", "Apigetrin", "Apigenin 7-\u03b2-D-glucoside", "7-O-\u03b2-D-Glucosylapigenin", "Apigenin 7-O-\u03b2-D-glucoside", "4\u2032,5,7-Trihydroxyflavone 7-\u03b2-D-glucoside", "NSC 407303", "Cosmociin", "Cosmoside", "Apigenin 7-O-glucoside", "Apigenin 7-O-\u03b2-glucopyranoside", "Apigenin 7-glucoside", "Apigenin 7-O-\u03b2-glucoside", "Apigenin-7-O-4C1-\u03b2-D-glucoside", "AGI 6481"], "SMILES": "O=C1C=2C(OC(=C1)C3=CC=C(O)C=C3)=CC(OC4OC(CO)C(O)C(O)C4O)=CC2O", "physical_data": {"Molecular Weight": "432.38", "Molecular Formula": "C21H20O10", "Melting Point": "229-232 \u00b0C"}}