{"cas_no": "578-86-9", "cn_name": "\u7518\u8349\u7d20", "en_name": ["Liquiritigenin", "4H-1-Benzopyran-4-one, 2,3-dihydro-7-hydroxy-2-(4-hydroxyphenyl)-, (2S)-", "Flavanone, 4\u2032,7-dihydroxy-", "4H-1-Benzopyran-4-one, 2,3-dihydro-7-hydroxy-2-(4-hydroxyphenyl)-, (S)-", "(2S)-2,3-Dihydro-7-hydroxy-2-(4-hydroxyphenyl)-4H-1-benzopyran-4-one", "Liquiritigenin", "7,4\u2032-Dihydroxyflavanone", "4\u2032,7-Dihydroxyflavanone", "(-)-(2S)-7,4\u2032-Dihydroxyflavanone", "(2S)-Liquiritigenin", "(-)-(S)-4\u2032,7-Dihydroxyflavanone", "(-)-Liquiritigenin", "Menerba", "(2S)-7-Hydroxy-2-(4-hydroxyphenyl)-2,3-dihydrochromen-4-one"], "SMILES": "O=C1C=2C(OC(C1)C3=CC=C(O)C=C3)=CC(O)=CC2", "physical_data": {"Molecular Weight": "256.25", "Molecular Formula": "C15H12O4", "Melting Point": "182-183 \u00b0C"}}