{"cas_no": "578-57-4", "cn_name": "2-\u6eb4\u82ef\u7532\u919a", "en_name": ["2-Bromoanisole", "Benzene, 1-bromo-2-methoxy-", "Anisole, o-bromo-", "1-Bromo-2-methoxybenzene", "o-Methoxybromobenzene", "o-Bromoanisole", "o-Bromophenyl methyl ether", "2-Bromoanisole", "2-Bromo-1-methoxybenzene", "o-Methoxyphenyl bromide", "2-Methoxyphenyl bromide", "2-Methoxybromobenzene", "o-Anisyl bromide", "o-Bromomethoxybenzene", "2-Bromomethoxybenzene", "NSC 6977", "2-Methoxy-1-bromobenzene", "2-Bromo-3-methoxybenzene"], "SMILES": "O(C)C1=C(Br)C=CC=C1", "physical_data": {"Molecular Weight": "187.03", "Molecular Formula": "C7H7BrO", "Boiling Point": "216 \u00b0C", "Melting Point": "2.5 \u00b0C"}}