{"cas_no": "578-54-1", "cn_name": "2-\u4e59\u57fa\u82ef\u80fa", "en_name": ["2-Ethylaniline", "Benzenamine, 2-ethyl-", "Aniline, o-ethyl-", "2-Ethylbenzenamine", "o-Ethylaniline", "2-Ethylaniline", "o-Aminoethylbenzene", "2-Ethylphenylamine", "NSC 62014"], "SMILES": "C(C)C1=C(N)C=CC=C1", "physical_data": {"Molecular Weight": "121.18", "Molecular Formula": "C8H11N", "Boiling Point": "209.65 \u00b0C", "Melting Point": "-46.5 \u00b0C", "Density": "0.982 g/cm\u00b3 @ Temp: 20 \u00b0C"}}