{"cas_no": "57808-65-8", "cn_name": "\u6c2f\u6c30\u7898\u67f3\u80fa", "en_name": ["Closantel", "Benzamide, N-[5-chloro-4-[(4-chlorophenyl)cyanomethyl]-2-methylphenyl]-2-hydroxy-3,5-diiodo-", "N-[5-Chloro-4-[(4-chlorophenyl)cyanomethyl]-2-methylphenyl]-2-hydroxy-3,5-diiodobenzamide", "Closantel", "NSC 335306", "Zycloz", "Seponver", "Clozantin", "S 4105"], "SMILES": "C(C#N)(C1=C(Cl)C=C(NC(=O)C2=C(O)C(I)=CC(I)=C2)C(C)=C1)C3=CC=C(Cl)C=C3", "physical_data": {"Molecular Weight": "663.07", "Molecular Formula": "C22H14Cl2I2N2O2", "Melting Point": "217.8 \u00b0C"}}