{"cas_no": "5780-07-4", "cn_name": "\u8089\u8c46\u853b\u919b", "en_name": ["Myristicinaldehyde", "1,3-Benzodioxole-5-carboxaldehyde, 7-methoxy-", "Benzaldehyde, 3-methoxy-4,5-(methylenedioxy)-", "7-Methoxy-1,3-benzodioxole-5-carboxaldehyde", "Myristicinaldehyde", "Myristicaldehyde", "3-Methoxy-4,5-(methylenedioxy)benzaldehyde", "3,4-(Methylenedioxy)-5-methoxybenzaldehyde", "5-Methoxy-3,4-(methylenedioxy)benzaldehyde", "5-Methoxypiperonal", "5-Formyl-7-methoxy-1,3-benzodioxole", "7-Methoxybenzo[d][1,3]dioxole-5-carboxaldehyde"], "SMILES": "O(C)C1=C2C(=CC(C=O)=C1)OCO2", "physical_data": {"Molecular Weight": "180.16", "Molecular Formula": "C9H8O4", "Boiling Point": "110-115 \u00b0C @ Press: 0.5 Torr", "Melting Point": "131 \u00b0C"}}