{"cas_no": "57808-66-9", "cn_name": "\u591a\u6f58\u7acb\u916e", "en_name": ["Domperidone", "2H-Benzimidazol-2-one, 5-chloro-1-[1-[3-(2,3-dihydro-2-oxo-1H-benzimidazol-1-yl)propyl]-4-piperidinyl]-1,3-dihydro-", "5-Chloro-1-[1-[3-(2,3-dihydro-2-oxo-1H-benzimidazol-1-yl)propyl]-4-piperidinyl]-1,3-dihydro-2H-benzimidazol-2-one", "Domperidone", "Motilium", "KW 5338", "R 33812", "Nauzelin", "Nauzelin Ds", "Mod", "Peridys", "Gastronorm", "Euciton", "Peridon", "Evoxin", "NSC 299589", "Motillium", "Motinorm costi", "Nomit", "Domperi 10 DT", "Domcolic", "MeSH ID: D004294"], "SMILES": "O=C1N(C=2C(N1)=CC(Cl)=CC2)C3CCN(CCCN4C=5C(NC4=O)=CC=CC5)CC3", "physical_data": {"Molecular Weight": "425.91", "Molecular Formula": "C22H24ClN5O2", "Melting Point": "242.5 \u00b0C"}}