{"cas_no": "57807-28-0", "cn_name": "1-\u6eb4-2-\u73af\u4e19\u57fa\u82ef", "en_name": ["1-Bromo-2-cyclopropylbenzene", "Benzene, 1-bromo-2-cyclopropyl-", "1-Bromo-2-cyclopropylbenzene", "o-Bromophenylcyclopropane", "(2-Bromophenyl)cyclopropane"], "SMILES": "BrC1=C(C=CC=C1)C2CC2", "physical_data": {"Molecular Weight": "197.07", "Molecular Formula": "C9H9Br", "Boiling Point": "110-113 \u00b0C @ Press: 18 Torr"}}