{"cas_no": "57817-55-7", "cn_name": "4-(\u7532\u78fa\u9170\u57fa)\u82c4\u6eb4", "en_name": ["6-Bromohexanamide", "Hexanamide, 6-bromo-", "6-Bromohexanamide", "6-Bromocaproamide", "NSC 277296"], "SMILES": "C(CC(N)=O)CCCBr", "physical_data": {"Molecular Weight": "194.07", "Molecular Formula": "C6H12BrNO", "Melting Point": "92-93 \u00b0C"}}