{"cas_no": "57817-89-7", "cn_name": "\u751c\u83ca\u7cd6", "en_name": ["Stevioside", "Kaur-16-en-18-oic acid, 13-[(2-O-\u03b2-D-glucopyranosyl-\u03b2-D-glucopyranosyl)oxy]-, \u03b2-D-glucopyranosyl ester, (4\u03b1)-", "Stevioside", "1H-2,10a-Ethanophenanthrene, kaur-16-en-18-oic acid deriv.", "Steviosin", "\u03b1-G-Sweet", "Stevian 50", "E 960", "1,2-Stevioside"], "SMILES": "CC12C3C4(CC(OC5C(OC6OC(CO)C(O)C(O)C6O)C(O)C(O)C(CO)O5)(C(=C)C4)CC3)CCC1C(C(OC7OC(CO)C(O)C(O)C7O)=O)(C)CCC2", "physical_data": {"Molecular Weight": "804.87", "Molecular Formula": "C38H60O18", "Melting Point": "198 \u00b0C"}}