{"cas_no": "5781-53-3", "cn_name": "\u8349\u9170\u6c2f\u5355\u7532\u916f", "en_name": ["Methyl oxalyl chloride", "Acetic acid, 2-chloro-2-oxo-, methyl ester", "Glyoxylic acid, chloro-, methyl ester", "Acetic acid, chlorooxo-, methyl ester", "Methyl chloroglyoxylate", "Methyl oxalyl chloride", "Methoxalyl chloride", "Methyl chlorooxoacetate", "Monomethyl oxalate monochloride", "Methyl chlorooxalate", "Methyl (chloroformyl)formate", "Monomethyl oxalate chloride", "Methyl (chlorocarbonyl)formate", "Oxalic acid methyl ester chloride", "Oxalic acid monomethyl ester chloride", "Methyl 2-chloro-2-oxoacetate", "(Chloro)(oxo)acetic acid methyl ester", "Chloroglyoxylic acid methyl ester", "Methoxyoxalyl chloride", "Methyl oxalochloridate"], "SMILES": "C(C(Cl)=O)(OC)=O", "physical_data": {"Molecular Weight": "122.51", "Molecular Formula": "C3H3ClO3", "Boiling Point": "119 \u00b0C"}}