{"cas_no": "57813-67-9", "cn_name": "3-\u4e01\u70ef\u4e09\u4e59\u6c27\u57fa\u7845\u70f7", "en_name": ["3-Butenyltriethoxysilane", "Silane, 3-buten-1-yltriethoxy-", "Silane, 3-butenyltriethoxy-", "3-Buten-1-yltriethoxysilane", "4-Triethoxysilyl-1-butene", "3-Butenyltriethoxysilane"], "SMILES": "[Si](CCC=C)(OCC)(OCC)OCC", "physical_data": {"Molecular Weight": "218.37", "Molecular Formula": "C10H22O3Si", "Boiling Point": "64 \u00b0C @ Press: 6 Torr", "Density": "0.90 g/cm\u00b3"}}