{"cas_no": "57822-06-7", "cn_name": "5-\u6c27\u4ee3\u58ec\u4e8c\u9178", "en_name": ["5-Oxoazelaic acid", "Nonanedioic acid, 5-oxo-", "5-Oxononanedioic acid", "5-Oxoazelaic acid", "NSC 111667", "NSC 134496"], "SMILES": "C(CCCC(O)=O)(CCCC(O)=O)=O", "physical_data": {"Molecular Weight": "202.20", "Molecular Formula": "C9H14O5", "Melting Point": "91-93 \u00b0C"}}