{"cas_no": "57837-19-1", "cn_name": "\u7532\u971c\u7075", "en_name": ["Metalaxyl", "Alanine, N-(2,6-dimethylphenyl)-N-(2-methoxyacetyl)-, methyl ester", "Alanine, N-(2,6-dimethylphenyl)-N-(methoxyacetyl)-, methyl ester", "DL-Alanine, N-(2,6-dimethylphenyl)-N-(methoxyacetyl)-, methyl ester", "CGA 48988", "Ridomil", "Metalaxyl", "Metalaxil", "Subdue", "Metaxanine", "CG 117", "Metanaxin", "Metasyl", "Apron FL", "Apron", "Apron SD 35", "Apron 350FW", "Ridomil Vino", "Apron 35WS", "IPO-FS", "Jiashuangling", "Apron 35J", "Methyl N-methoxyacetyl-N-(2,6-dimethylphenyl)-DL-alaninate", "Apron TL", "(\u00b1)-Metalaxyl", "Allegiance", "Ridomil 72WP", "Krilaxyl", "Fonganil Neu", "Sebring", "Himil Gold", "Acceleron DX 309", "Acceleron DC 309", "Allegiance FL", "Axyl-Shield ST", "RuiDuTong"], "SMILES": "N(C(C(OC)=O)C)(C(COC)=O)C1=C(C)C=CC=C1C", "physical_data": {"Molecular Weight": "279.33", "Molecular Formula": "C15H21NO4", "Boiling Point": "295.9 \u00b0C @ Press: 760 Torr", "Melting Point": "71-72 \u00b0C", "Density": "1.20 g/cm\u00b3 @ Temp: 20 \u00b0C"}}