{"cas_no": "57835-92-4", "cn_name": "4-\u785d\u57fa\u4e8c\u8418", "en_name": ["4-Nitropyrene", "Pyrene, 4-nitro-", "4-Nitropyrene"], "SMILES": "N(=O)(=O)C=1C=2C3=C4C(C1)=CC=CC4=CC=C3C=CC2", "physical_data": {"Molecular Weight": "247.25", "Molecular Formula": "C16H9NO2", "Melting Point": "196-197.5 \u00b0C"}}