{"cas_no": "57834-33-0", "cn_name": "\u7d2b\u5916\u7ebf\u5438\u6536\u5242UV-1", "en_name": ["N\u2032-(4-Ethoxycarbonylphenyl)-N-methyl-N-phenylformamidine", "Benzoic acid, 4-[[(methylphenylamino)methylene]amino]-, ethyl ester", "N\u2032-(4-Ethoxycarbonylphenyl)-N-methyl-N-phenylformamidine", "UV 1", "UV 1 (Chinese UV absorber)", "Zikasorb R", "Chisorb 971", "Honghai 901"], "SMILES": "C(OCC)(=O)C1=CC=C(N=CN(C)C2=CC=CC=C2)C=C1", "physical_data": {"Molecular Weight": "282.34", "Molecular Formula": "C17H18N2O2", "Boiling Point": "188 \u00b0C @ Press: 0.1 Torr"}}