{"cas_no": "5785-06-8", "cn_name": "3-\u7532\u6c27\u57fa\u82ef-1-\u78b3\u9170\u80bc", "en_name": ["3-Methoxybenzohydrazide", "Benzoic acid, 3-methoxy-, hydrazide", "m-Anisic acid, hydrazide", "m-Methoxybenzohydrazide", "m-Methoxybenzoic hydrazide", "m-Methoxybenzoylhydrazide", "m-Methoxybenzoic acid hydrazide", "3-Methoxybenzohydrazide", "3-Methoxybenzoylhydrazine", "3-Methoxybenzoic acid hydrazide", "3-Methoxybenzoylhydrazide", "3-Methoxybenzenecarbohydrazide", "3-Methoxybenzhydrazide", "3-Methoxybenzoic hydrazide"], "SMILES": "C(NN)(=O)C1=CC(OC)=CC=C1", "physical_data": {"Molecular Weight": "166.18", "Molecular Formula": "C8H10N2O2", "Melting Point": "93-95 \u00b0C"}}