{"cas_no": "57852-57-0", "cn_name": "\u76d0\u9178\u4f0a\u8fbe\u6bd4\u661f", "en_name": ["Idarubicin hydrochloride", "5,12-Naphthacenedione, 9-acetyl-7-[(3-amino-2,3,6-trideoxy-\u03b1-L-lyxo-hexopyranosyl)oxy]-7,8,9,10-tetrahydro-6,9,11-trihydroxy-, hydrochloride (1:1), (7S,9S)-", "5,12-Naphthacenedione, 9-acetyl-7-[(3-amino-2,3,6-trideoxy-\u03b1-L-lyxo-hexopyranosyl)oxy]-7,8,9,10-tetrahydro-6,9,11-trihydroxy-, hydrochloride, (7S-cis)-", "5,12-Naphthacenedione, 9-acetyl-7-[(3-amino-2,3,6-trideoxy-\u03b1-L-lyxo-hexopyranosyl)oxy]-7,8,9,10-tetrahydro-6,9,11-trihydroxy-, hydrochloride, (7S,9S)-", "4-Demethoxydaunorubicin hydrochloride", "Idarubicin hydrochloride", "Idamycin", "Zavedos", "4-DMD HCl", "NSC 256439", "Idamycin PFS"], "SMILES": "O(C1C2=C(C(O)=C3C(=C2O)C(=O)C=4C(C3=O)=CC=CC4)CC(C(C)=O)(O)C1)C5CC(N)C(O)C(C)O5.Cl", "physical_data": {"Molecular Weight": "", "Molecular Formula": "C26H27NO9.ClH", "Melting Point": "183-185 \u00b0C"}}