{"cas_no": "5785-66-0", "cn_name": "\u73af\u4e19\u57fa\u8054\u82ef\u7532\u9187", "en_name": ["\u03b1-Cyclopropyl-\u03b1-phenylbenzenemethanol", "Benzenemethanol, \u03b1-cyclopropyl-\u03b1-phenyl-", "Methanol, cyclopropyldiphenyl-", "\u03b1-Cyclopropyl-\u03b1-phenylbenzenemethanol", "Cyclopropyldiphenylmethanol", "Cyclopropyldiphenylcarbinol", "NSC 78478"], "SMILES": "C(O)(C1CC1)(C2=CC=CC=C2)C3=CC=CC=C3", "physical_data": {"Molecular Weight": "224.30", "Molecular Formula": "C16H16O", "Boiling Point": "150 \u00b0C @ Press: 3 Torr", "Melting Point": "82-83 \u00b0C"}}