{"cas_no": "5786-54-9", "cn_name": "Hispidol", "en_name": ["Hispidol", "3(2H)-Benzofuranone, 6-hydroxy-2-[(4-hydroxyphenyl)methylene]-, (2Z)-", "3(2H)-Benzofuranone, 6-hydroxy-2-(p-hydroxybenzylidene)-, (Z)-", "3(2H)-Benzofuranone, 6-hydroxy-2-[(4-hydroxyphenyl)methylene]-, (Z)-", "(2Z)-6-Hydroxy-2-[(4-hydroxyphenyl)methylene]-3(2H)-benzofuranone", "Hispidol", "4\u2032,6-Dihydroxyaurone", "(Z)-Hispidol", "(Z)-6-Hydroxy-2-(4-hydroxybenzylidene)benzofuran-3(2H)-one"], "SMILES": "O=C1C=2C(OC1=CC3=CC=C(O)C=C3)=CC(O)=CC2", "physical_data": {"Molecular Weight": "254.24", "Molecular Formula": "C15H10O4", "Melting Point": "286-288 \u00b0C"}}