{"cas_no": "5786-21-0", "cn_name": "\u6c2f\u6c2e\u5e73", "en_name": ["Clozapine", "5H-Dibenzo[b,e][1,4]diazepine, 8-chloro-11-(4-methyl-1-piperazinyl)-", "8-Chloro-11-(4-methyl-1-piperazinyl)-5H-dibenzo[b,e][1,4]diazepine", "HF 1854", "Clozapine", "Leponex", "Clozapin", "Iprox", "Clozaril", "Asaleptin", "Azaleptine", "Cloril", "Fazaclo", "Klozapol", "Azaleptin", "Sizopin", "Clozapex", "Apo-Clozapine", "MeSH ID: D003024"], "SMILES": "CN1CCN(C=2C=3C(NC=4C(N2)=CC(Cl)=CC4)=CC=CC3)CC1", "physical_data": {"Molecular Weight": "326.82", "Molecular Formula": "C18H19ClN4", "Melting Point": "183-184 \u00b0C"}}