{"cas_no": "578729-21-2", "cn_name": "[(1R)-1-(4-\u6eb4\u82ef\u57fa)\u4e59\u57fa]\u6c28\u57fa\u7532\u9178\u53d4\u4e01\u916f", "en_name": ["1,1-Dimethylethyl N-[(1R)-1-(4-bromophenyl)ethyl]carbamate", "Carbamic acid, N-[(1R)-1-(4-bromophenyl)ethyl]-, 1,1-dimethylethyl ester", "Carbamic acid, [(1R)-1-(4-bromophenyl)ethyl]-, 1,1-dimethylethyl ester", "1,1-Dimethylethyl N-[(1R)-1-(4-bromophenyl)ethyl]carbamate", "[(R)-1-(4-Bromophenyl)ethyl]carbamic acid tert-butyl ester", "tert-Butyl [(1R)-1-(4-bromophenyl)ethyl]carbamate", "tert-Butyl [(R)-1-(4-bromophenyl)ethyl]carbamate", "(R)-tert-Butyl(1-(4-bromophenyl)ethyl)carbamate"], "SMILES": "C(NC(OC(C)(C)C)=O)(C)C1=CC=C(Br)C=C1", "physical_data": {"Molecular Weight": "300.19", "Molecular Formula": "C13H18BrNO2", "Melting Point": "131-135 \u00b0C"}}