{"cas_no": "5788-17-0", "cn_name": "3-\u7532\u6c27\u57fa\u4e19\u70ef\u9178\u7532\u916f", "en_name": ["2-Propenoic acid, 3-methoxy-, methyl ester, (2E)-", "2-Propenoic acid, 3-methoxy-, methyl ester, (2E)-", "Acrylic acid, 3-methoxy-, methyl ester, (E)-", "2-Propenoic acid, 3-methoxy-, methyl ester, (E)-", "Methyl trans-\u03b2-methoxyacrylate", "Methyl (E)-3-methoxy-2-propenoate", "Methyl (E)-\u03b2-methoxyacrylate", "trans-Methyl 3-methoxyacrylate", "(E)-3-Methoxyacrylic acid methyl ester", "Methyl trans-3-methoxy-2-propenoate", "Methyl (2E)-3-methoxy-2-propenoate", "Methyl trans-3-methoxyacrylate", "Methyl (E)-3-methoxyacrylate", "Methyl (E)-3-methoxyacrylate", "Methyl (E)-3-methoxyprop-2-enoate", "Methyl (2E)-3-methoxy-2-propenoate", "Methyl (2E)-3-methoxyprop-2-enoate"], "SMILES": "C(C=COC)(OC)=O", "physical_data": {"Molecular Weight": "116.12", "Molecular Formula": "C5H8O3", "Boiling Point": "63 \u00b0C @ Press: 15 Torr"}}