{"cas_no": "5789-21-9", "cn_name": "\u82ef\u57fa\u786b\u4ee3\u4e59\u5185\u9170\u8132-\u82cf\u6c28\u9178", "en_name": ["5-(1-Hydroxyethyl)-3-phenyl-2-thioxo-4-imidazolidinone", "4-Imidazolidinone, 5-(1-hydroxyethyl)-3-phenyl-2-thioxo-", "Hydantoin, 5-(1-hydroxyethyl)-3-phenyl-2-thio-", "5-(1-Hydroxyethyl)-3-phenyl-2-thioxo-4-imidazolidinone", "Threonine, 3-phenyl-2-thiohydantoin", "Threonine phenylthiohydantoin", "PTH-DL-threonine", "NSC 116497"], "SMILES": "O=C1N(C(=S)NC1C(C)O)C2=CC=CC=C2", "physical_data": {"Molecular Weight": "236.29", "Molecular Formula": "C11H12N2O2S", "Melting Point": "194 \u00b0C (decomp)"}}