{"cas_no": "5789-24-2", "cn_name": "\u82ef\u786b\u4ee3\u4e59\u5185\u9170\u8132-\u8272\u6c28\u9178", "en_name": ["Phenylthiohydantoin-DL-tryptophan", "4-Imidazolidinone, 5-(1H-indol-3-ylmethyl)-3-phenyl-2-thioxo-", "Hydantoin, 5-(indol-3-ylmethyl)-3-phenyl-2-thio-", "5-(1H-Indol-3-ylmethyl)-3-phenyl-2-thioxo-4-imidazolidinone", "Tryptophan phenylthiohydantoin", "DL-Tryptophan phenylthiohydantoin", "Phenylthiohydantoin-DL-tryptophan", "PTH-DL-tryptophan", "NSC 96436"], "SMILES": "C(C=1C=2C(NC1)=CC=CC2)C3C(=O)N(C(=S)N3)C4=CC=CC=C4", "physical_data": {"Molecular Weight": "321.40", "Molecular Formula": "C18H15N3OS", "Melting Point": "177 \u00b0C"}}