{"cas_no": "579-11-3", "cn_name": "N-\u6c2f\u4e59\u9170\u82ef\u80fa", "en_name": ["N-Chloro-N-phenylacetamide", "Acetamide, N-chloro-N-phenyl-", "Acetanilide, N-chloro-", "N-Chloro-N-phenylacetamide", "N-Chloroacetanilide"], "SMILES": "N(C(C)=O)(Cl)C1=CC=CC=C1", "physical_data": {"Molecular Weight": "169.61", "Molecular Formula": "C8H8ClNO", "Melting Point": "90.5-91 \u00b0C"}}