{"cas_no": "579-44-2", "cn_name": "DL-\u5b89\u606f\u9999", "en_name": ["(\u00b1)-Benzoin", "Ethanone, 2-hydroxy-1,2-diphenyl-", "Benzoin", "2-Hydroxy-1,2-diphenylethanone", "Benzoylphenylcarbinol", "\u03b1-Hydroxy-\u03b1-phenylacetophenone", "2-Hydroxy-2-phenylacetophenone", "\u03b1-Hydroxybenzyl phenyl ketone", "2-Hydroxy-1,2-diphenyl-1-ethanone", "Wy 42956", "Desyl alcohol", "1,2-Diphenyl-1-hydroxy-2-ethanone", "dl-Benzoin", "(\u00b1)-Benzoin", "DL-Benzoin", "(\u00b1)-2-Hydroxy-1,2-diphenylethanone", "(\u00b1)-2-Hydroxy-2-phenylacetophenone", "(RS)-Benzoin", "Nisso Cure MB", "NSC 8082", "1,2-Diphenyl-2-hydroxyethanone", "1,2-Diphenyl-2-oxoethanol", "\u03b1-Benzoylbenzenemethanol", "S 19", "S 19 (benzoin)", "Esacure EB 3", "2-Hydroxy-1-phenyl-2-phenylethanone", "Seikuol Z", "2-Hydroxyl-1,2-phenylethanone", "2-Phenyl-2-hydroxyacetophenone", "F 297", "Jiqi GK 19", "GK 19", "L 307", "LC Benzoin", "AW 63", "AHA 4100", "ZR-A 401", "KV 203", "KG 300", "R 401", "SY 702", "MeSH ID: D001573"], "SMILES": "C(C(=O)C1=CC=CC=C1)(O)C2=CC=CC=C2", "physical_data": {"Molecular Weight": "212.24", "Molecular Formula": "C14H12O2", "Boiling Point": "344 \u00b0C @ Press: 760.0 Torr", "Melting Point": "137 \u00b0C", "Density": "1.310 g/cm\u00b3"}}