{"cas_no": "579-21-5", "cn_name": "\u5c71\u6897\u70f7\u916e", "en_name": ["Lobelanine", "Ethanone, 2,2\u2032-(1-methyl-2,6-piperidinediyl)bis[1-phenyl-, (2R,6S)-rel-", "Lobelanine", "Ethanone, 2,2\u2032-(1-methyl-2,6-piperidinediyl)bis[1-phenyl-, cis-", "rel-(2R,6S)-2,2\u2032-(1-Methyl-2,6-piperidinediyl)bis[1-phenylethanone]", "8,10-Diphenyllobelidione", "meso-Lobelanine", "Shangengwantong"], "SMILES": "C(C(=O)C1=CC=CC=C1)C2N(C)C(CC(=O)C3=CC=CC=C3)CCC2", "physical_data": {"Molecular Weight": "335.44", "Molecular Formula": "C22H25NO2", "Melting Point": "99 \u00b0C"}}