{"cas_no": "579-66-8", "cn_name": "2,6-\u4e8c\u4e59\u57fa\u82ef\u80fa", "en_name": ["2,6-Diethylaniline", "Benzenamine, 2,6-diethyl-", "Aniline, 2,6-diethyl-", "2,6-Diethylbenzenamine", "2,6-Diethylaniline", "2,6-Diethylphenylamine"], "SMILES": "C(C)C1=C(N)C(CC)=CC=C1", "physical_data": {"Molecular Weight": "149.23", "Molecular Formula": "C10H15N", "Boiling Point": "235.5 \u00b0C", "Melting Point": "3.5 \u00b0C", "Density": "96 g/cm\u00b3 @ Temp: 20 \u00b0C"}}