{"cas_no": "579-10-2", "cn_name": "N-\u7532\u57fa\u4e59\u9170\u82ef\u80fa", "en_name": ["N-Methylacetanilide", "Acetamide, N-methyl-N-phenyl-", "Acetanilide, N-methyl-", "N-Methyl-N-phenylacetamide", "Acetomethylanilide", "N-Acetyl-N-methylaniline", "Exalgin", "N-Methylacetanilide", "Oxalgin", "Phenylmethylacetamide", "Methylantifebrin", "Methylazol", "NSC 2140"], "SMILES": "N(C(C)=O)(C)C1=CC=CC=C1", "physical_data": {"Molecular Weight": "149.19", "Molecular Formula": "C9H11NO", "Boiling Point": "256 \u00b0C", "Melting Point": "103 \u00b0C"}}