{"cas_no": "579-74-8", "cn_name": "2'-\u7532\u6c27\u57fa\u82ef\u4e59\u916e", "en_name": ["2\u2032-Methoxyacetophenone", "Ethanone, 1-(2-methoxyphenyl)-", "Acetophenone, 2\u2032-methoxy-", "Acetophenone, o-methoxy-", "1-(2-Methoxyphenyl)ethanone", "o-Methoxyacetophenone", "2\u2032-Methoxyacetophenone", "o-Acetylanisole", "Methyl o-methoxyphenyl ketone", "Methyl 2-methoxyphenyl ketone", "2-Methoxyphenyl methyl ketone", "2-Acetylanisole", "NSC 23387", "NSC 26912", "2-Methoxy-1-acetylbenzene", "1-(2-Methoxyphenyl)ethan-1-one"], "SMILES": "O(C)C1=C(C(C)=O)C=CC=C1", "physical_data": {"Molecular Weight": "150.17", "Molecular Formula": "C9H10O2", "Boiling Point": "100-110 \u00b0C @ Press: 6 Torr", "Melting Point": "33-34 \u00b0C"}}