{"cas_no": "579-49-7", "cn_name": "4-\u6c1f\u82ef\u57fa-2-\u567b\u5429\u916e", "en_name": ["(4-Fluorophenyl)-2-thienylmethanone", "Methanone, (4-fluorophenyl)-2-thienyl-", "Ketone, p-fluorophenyl 2-thienyl", "(4-Fluorophenyl)-2-thienylmethanone", "4-Fluorophenyl 2-thienyl ketone", "2-(p-Fluorobenzoyl)thiophene", "2-(4-Fluorobenzoyl)thiophene", "4-Fluorophenyl thiophene-2-yl ketone", "(4-Fluorophenyl)(thiophen-2-yl) methanone"], "SMILES": "C(=O)(C1=CC=C(F)C=C1)C2=CC=CS2", "physical_data": {"Molecular Weight": "206.24", "Molecular Formula": "C11H7FOS", "Boiling Point": "142-145 \u00b0C @ Press: 4 Torr", "Melting Point": "95.5-96 \u00b0C"}}