{"cas_no": "579-92-0", "cn_name": "\u4e8c\u82ef\u80fa-2,2\u2019\u4e8c\u7fa7\u9178", "en_name": ["2,2\u2032-Iminodibenzoic acid", "Benzoic acid, 2,2\u2032-iminobis-", "Benzoic acid, 2,2\u2032-iminodi-", "Benzoic acid, o,o\u2032-iminodi-", "2,2\u2032-Iminobis[benzoic acid]", "Diphenylamine-2,2\u2032-dicarboxylic acid", "Vanadox", "2,2\u2032-Dicarboxydiphenylamine", "2,2\u2032-Iminodibenzoic acid", "Bis(2-carboxyphenyl)amine", "NSC 27841", "N-(2-Carboxyphenyl)anthranilic acid", "2-(2-Carboxyphenylamino)benzoic acid"], "SMILES": "N(C1=C(C(O)=O)C=CC=C1)C2=C(C(O)=O)C=CC=C2", "physical_data": {"Molecular Weight": "257.24", "Molecular Formula": "C14H11NO4", "Melting Point": "296-297 \u00b0C (decomp)"}}