{"cas_no": "579-07-7", "cn_name": "1-\u82ef\u57fa-1,2-\u4e19\u4e8c\u916e", "en_name": ["1-Phenyl-1,2-propanedione", "1,2-Propanedione, 1-phenyl-", "1-Phenyl-1,2-propanedione", "Pyruvophenone", "Acetylbenzoyl", "Benzoyl methyl ketone", "Methylphenylglyoxal", "3-Phenyl-2,3-propanedione", "Benzoylacetyl", "2-Oxopropiophenone", "NSC 7643", "1-Phenyl-2-oxopropan-1-one", "3-Oxo-3-phenylpropan-2-one"], "SMILES": "C(C(C)=O)(=O)C1=CC=CC=C1", "physical_data": {"Molecular Weight": "148.16", "Molecular Formula": "C9H8O2", "Boiling Point": "222 \u00b0C", "Melting Point": "&lt;20 \u00b0C", "Density": "1.1083 g/cm\u00b3 @ Temp: 9.6 \u00b0C"}}