{"cas_no": "579-60-2", "cn_name": "O-\u4e01\u5b50\u9999\u915a", "en_name": ["o-Eugenol", "Phenol, 2-methoxy-6-(2-propen-1-yl)-", "Phenol, 2-allyl-6-methoxy-", "Phenol, 2-methoxy-6-(2-propenyl)-", "Guaiacol, 6-allyl-", "2-Methoxy-6-(2-propen-1-yl)phenol", "o-Eugenol", "6-Allyl-2-methoxyphenol", "o-Allylguaiacol", "2-Allyl-6-methoxyphenol", "2-Hydroxy-3-methoxy-1-allylbenzene", "NSC 406351", "2-Methoxy-6-prop-2-enylphenol"], "SMILES": "C(C=C)C1=C(O)C(OC)=CC=C1", "physical_data": {"Molecular Weight": "164.20", "Molecular Formula": "C10H12O2", "Boiling Point": "250.5 \u00b0C", "Melting Point": "81 \u00b0C", "Density": "1.0904 g/cm\u00b3 @ Temp: 20 \u00b0C"}}