{"cas_no": "579-75-9", "cn_name": "\u90bb\u7532\u6c27\u57fa\u82ef\u7532\u9178", "en_name": ["2-Methoxybenzoic acid", "Benzoic acid, 2-methoxy-", "o-Anisic acid", "2-Methoxybenzoic acid", "o-Methoxybenzoic acid", "Salicylic acid methyl ether", "O-Methylsalicylic acid", "NSC 3778"], "SMILES": "O(C)C1=C(C(O)=O)C=CC=C1", "physical_data": {"Molecular Weight": "152.15", "Molecular Formula": "C8H8O3", "Melting Point": "101 \u00b0C"}}