{"cas_no": "579-56-6", "cn_name": "\u76d0\u9178\u82ef\u6c27\u4e19\u915a\u80fa", "en_name": ["Isoxsuprine hydrochloride", "Benzenemethanol, 4-hydroxy-\u03b1-[1-[(1-methyl-2-phenoxyethyl)amino]ethyl]-, hydrochloride (1:1)", "Benzyl alcohol, p-hydroxy-\u03b1-[1-[(1-methyl-2-phenoxyethyl)amino]ethyl]-, hydrochloride", "Benzenemethanol, 4-hydroxy-\u03b1-[1-[(1-methyl-2-phenoxyethyl)amino]ethyl]-, hydrochloride", "Norephedrine, p-hydroxy-N-(1-methyl-2-phenoxyethyl)-, hydrochloride", "1-(p-Hydroxyphenyl)-2-(1\u2032-methyl-2\u2032-phenoxy)ethylaminopropanol-1 hydrochloride", "Isoxsuprine hydrochloride", "Vasodilan", "Duvadilan", "Isoxsuprin hydrochloride", "Dilavase", "Navilox", "Vasoplex", "Isolait", "Divadilan", "Suprilent", "Vasotran", "Vadosilan", "Duviculine", "Suprox SR", "Tidilan"], "SMILES": "C(C(NC(COC1=CC=CC=C1)C)C)(O)C2=CC=C(O)C=C2.Cl", "physical_data": {"Molecular Weight": "", "Molecular Formula": "C18H23NO3.ClH", "Melting Point": "203-204 \u00b0C"}}