{"cas_no": "579-43-1", "cn_name": "\u5185\u6d88\u65cb-1,2-\u4e8c\u82ef\u57fa-1,2-\u4e59\u4e8c\u9187", "en_name": ["rel-(1R,2S)-1,2-Diphenyl-1,2-ethanediol", "1,2-Ethanediol, 1,2-diphenyl-, (1R,2S)-rel-", "1,2-Ethanediol, 1,2-diphenyl-, meso-", "1,2-Ethanediol, 1,2-diphenyl-, (R*,S*)-", "rel-(1R,2S)-1,2-Diphenyl-1,2-ethanediol", "meso-1,2-Diphenylethylene glycol", "meso-Hydrobenzoin", "meso-1,2-Diphenyl-1,2-ethanediol", "meso-Stilbene glycol", "Hydrobenzoin, meso-", "erythro-1,2-Diphenylethane-1,2-diol", "erythro-Hydrobenzoin", "NSC 133570", "cis-1,2-Diphenyl-1,2-ethanediol", "(R,S)-Dihydrobenzoin", "(1R,2S)-1,2-Diphenyl-1,2-ethanediol", "trans-1,2-Diphenylethane-1,2-diol"], "SMILES": "C(C(O)C1=CC=CC=C1)(O)C2=CC=CC=C2", "physical_data": {"Molecular Weight": "214.26", "Molecular Formula": "C14H14O2", "Melting Point": "138 \u00b0C"}}