{"cas_no": "579-72-6", "cn_name": "\u90bb\u4e8c\u7532\u6c28\u57fa\u82ef\u7532\u919b", "en_name": ["2-(Dimethylamino)benzaldehyde", "Benzaldehyde, 2-(dimethylamino)-", "Anthranilaldehyde, N,N-dimethyl-", "2-(Dimethylamino)benzaldehyde", "o-(Dimethylamino)benzaldehyde", "2-(N,N-Dimethylamino)benzaldehyde", "N,N-Dimethylanthranilaldehyde"], "SMILES": "C(=O)C1=C(N(C)C)C=CC=C1", "physical_data": {"Molecular Weight": "149.19", "Molecular Formula": "C9H11NO", "Boiling Point": "115-120 \u00b0C @ Press: 5 Torr"}}