{"cas_no": "579-39-5", "cn_name": "4,4'-\u4e8c\u6c1f\u82ef\u5076\u9170", "en_name": ["1,2-Bis(4-fluorophenyl)-1,2-ethanedione", "1,2-Ethanedione, 1,2-bis(4-fluorophenyl)-", "Benzil, 4,4\u2032-difluoro-", "Ethanedione, bis(4-fluorophenyl)-", "1,2-Bis(4-fluorophenyl)-1,2-ethanedione", "4,4\u2032-Difluorobenzil", "p,p\u2032-Difluorobenzil", "4,4\u2032-Difluorobibenzoyl"], "SMILES": "C(C(=O)C1=CC=C(F)C=C1)(=O)C2=CC=C(F)C=C2", "physical_data": {"Molecular Weight": "246.21", "Molecular Formula": "C14H8F2O2", "Melting Point": "119-121 \u00b0C"}}