{"cas_no": "579-93-1", "cn_name": "2-(\u82ef\u7532\u9170\u57fa\u6c28\u57fa)\u82ef\u7532\u9178", "en_name": ["Benzoylanthranilic acid", "Benzoic acid, 2-(benzoylamino)-", "Anthranilic acid, N-benzoyl-", "2-(Benzoylamino)benzoic acid", "N-Benzoylanthranilic acid", "Benzoylanthranilic acid", "2\u2032-Carboxybenzanilide", "N-(2-Carboxyphenyl)benzamide", "NSC 3866", "2-(Benzamido)benzoic acid", "Dianthramide B"], "SMILES": "N(C(=O)C1=CC=CC=C1)C2=C(C(O)=O)C=CC=C2", "physical_data": {"Molecular Weight": "241.24", "Molecular Formula": "C14H11NO3", "Melting Point": "178 \u00b0C"}}