{"cas_no": "57912-35-3", "cn_name": "BOC-D-\u4e19\u6c28\u9170\u80fa", "en_name": ["N,S-Bis[(phenylmethoxy)carbonyl]-L-cysteine", "L-Cysteine, N,S-bis[(phenylmethoxy)carbonyl]-", "L-Cysteine, N-[(phenylmethoxy)carbonyl]-, phenylmethyl carbonate (ester)", "Cysteine, N-carboxy-, N-benzyl ester, benzyl carbonate", "N,S-Bis[(phenylmethoxy)carbonyl]-L-cysteine", "N,S-Bis(benzyloxycarbonyl)-L-cysteine", "NSC 88487", "(R)-2-(((Benzyloxy)carbonyl)amino)-3-(((benzyloxy)carbonyl)thio)propanoic acid", "(2R)-2-(Phenylmethoxycarbonylamino)-3-phenylmethoxycarbonylsulfanylpropanoic acid"], "SMILES": "C(OC(NC(CSC(OCC1=CC=CC=C1)=O)C(O)=O)=O)C2=CC=CC=C2", "physical_data": {"Molecular Weight": "389.42", "Molecular Formula": "C19H19NO6S", "Melting Point": "97-98 \u00b0C"}}