{"cas_no": "5792-36-9", "cn_name": "2,4-\u4e8c\u7f9f\u57fa\u82ef\u4e19\u916e", "en_name": ["2\u2032,4\u2032-Dihydroxypropiophenone", "1-Propanone, 1-(2,4-dihydroxyphenyl)-", "Propiophenone, 2\u2032,4\u2032-dihydroxy-", "1-(2,4-Dihydroxyphenyl)-1-propanone", "Resopropiophenone", "4-Propionylresorcinol", "Respropiophenone", "2\u2032,4\u2032-Dihydroxypropiophenone", "NSC 34096"], "SMILES": "C(CC)(=O)C1=C(O)C=C(O)C=C1", "physical_data": {"Molecular Weight": "166.17", "Molecular Formula": "C9H10O3", "Boiling Point": "152-154 \u00b0C @ Press: 0.8 Torr", "Melting Point": "99 \u00b0C"}}