{"cas_no": "57933-83-2", "cn_name": "\u5f02\u4e19\u70ef\u57fa\u6c2f\u7532\u9178\u916f", "en_name": ["1-Methylethenyl carbonochloridate", "Carbonochloridic acid, 1-methylethenyl ester", "1-Methylethenyl carbonochloridate", "Isopropenyl chloroformate", "Prop-1-en-2-yl carbonochloridate"], "SMILES": "O(C(C)=C)C(Cl)=O", "physical_data": {"Molecular Weight": "120.53", "Molecular Formula": "C4H5ClO2", "Boiling Point": "102 \u00b0C"}}