{"cas_no": "5793-94-2", "cn_name": "\u786c\u8102\u9170\u4e73\u9170\u4e73\u9178\u9499", "en_name": ["Calcium stearoyl-2-lactylate", "Octadecanoic acid, 2-(1-carboxyethoxy)-1-methyl-2-oxoethyl ester, calcium salt (2:1)", "Stearic acid, ester with lactic acid bimol. ester calcium salt", "Octadecanoic acid, 2-(1-carboxyethoxy)-1-methyl-2-oxoethyl ester, calcium salt", "Stearic acid, ester with lactate of lactic acid, Ca salt", "Stearyl-2-lactylic acid calcium salt", "Verv-Ca", "Calcium \u03b1-[\u03b1-(stearoyloxy)propionyloxy]propionate", "Calcium stearoyl-2-lactyllactate", "Calcium stearyl-2-lactylate", "Calcium stearyl lactylate", "Calcium stearoxyl-2-lactylate", "Calcium stearoyllactylate", "Calcium stearoyl-2-lactylate", "Lamegin CSL", "LAA", "Verv", "Artodan CP 80", "Emalsy B 1-1000", "Pationic 930", "Pationic 940", "Beolac CS 100P", "CSL", "E 482", "Grindsted CSL-P 80", "Admul CSL 2010", "Pationic CSL", "Berufu"], "SMILES": "O(C(C(OC(C(O)=O)C)=O)C)C(CCCCCCCCCCCCCCCCC)=O.[Ca]", "physical_data": {"Molecular Weight": "", "Molecular Formula": "C24H44O6.<sup>1</sup>/2Ca", "Melting Point": "45.7-48.7 \u00b0C"}}