{"cas_no": "57946-63-1", "cn_name": "4-\u6c28\u57fa-3-\u6eb4\u4e09\u6c1f\u7532\u82ef", "en_name": ["2-Bromo-4-trifluoromethylaniline", "Benzenamine, 2-bromo-4-(trifluoromethyl)-", "2-Bromo-4-(trifluoromethyl)benzenamine", "2-Bromo-4-trifluoromethylaniline", "3-Bromo-4-aminobenzotrifluoride", "2-Bromo-4-trifluoromethylphenylamine", "4-Trifluoromethyl-2-bromoaniline", "4-Amino-3-bromobenzotrifluoride"], "SMILES": "C(F)(F)(F)C1=CC(Br)=C(N)C=C1", "physical_data": {"Molecular Weight": "240.02", "Molecular Formula": "C7H5BrF3N", "Melting Point": "34-35 \u00b0C"}}