{"cas_no": "5794-13-8", "cn_name": "L-\u5929\u51ac\u9170\u80fa\u4e00\u6c34\u7269", "en_name": ["L-Asparagine, hydrate (1:1)", "L-Asparagine, hydrate (1:1)", "Asparagine, monohydrate, L-", "L-Asparagine, monohydrate", "Asparagine monohydrate"], "SMILES": "C(CC(N)=O)(C(O)=O)N.O", "physical_data": {"Molecular Weight": "", "Molecular Formula": "C4H8N2O3.H2O", "Melting Point": "235 \u00b0C"}}