{"cas_no": "5794-88-7", "cn_name": "2-\u6c28\u57fa-5-\u6eb4\u82ef\u7532\u9178", "en_name": ["2-Amino-5-bromobenzoic acid", "Benzoic acid, 2-amino-5-bromo-", "Anthranilic acid, 5-bromo-", "2-Amino-5-bromobenzoic acid", "5-Bromo-2-aminobenzoic acid", "5-Bromoanthranilic acid", "NSC 97201", "4-Bromo-2-carboxyaniline"], "SMILES": "C(O)(=O)C1=C(N)C=CC(Br)=C1", "physical_data": {"Molecular Weight": "216.03", "Molecular Formula": "C7H6BrNO2", "Melting Point": "219.5 \u00b0C"}}