{"cas_no": "57946-56-2", "cn_name": "4-\u6c2f-2-\u6c1f\u82ef\u80fa", "en_name": ["4-Chloro-2-fluoroaniline", "Benzenamine, 4-chloro-2-fluoro-", "4-Chloro-2-fluorobenzenamine", "4-Chloro-2-fluoroaniline", "2-Fluoro-4-chloroaniline", "4-Chloro-2-fluorophenylamine"], "SMILES": "FC1=C(N)C=CC(Cl)=C1", "physical_data": {"Molecular Weight": "145.56", "Molecular Formula": "C6H5ClFN", "Boiling Point": "83-85 \u00b0C @ Press: 12 Torr"}}