{"cas_no": "57966-95-7", "cn_name": "\u971c\u8132\u6c30", "en_name": ["Cymoxanil", "Acetamide, 2-cyano-N-[(ethylamino)carbonyl]-2-(methoxyimino)-", "2-Cyano-N-[(ethylamino)carbonyl]-2-(methoxyimino)acetamide", "2-Cyano-N-ethylcarbamoyl-2-methoxyiminoacetamide", "DPX 3217", "Curzate", "DPX 3217M", "Cymoxanil", "Tosca MZ", "Casparytin"], "SMILES": "C(C(NC(NCC)=O)=O)(=NOC)C#N", "physical_data": {"Molecular Weight": "198.18", "Molecular Formula": "C7H10N4O3", "Melting Point": "160-161 \u00b0C", "Density": "1.31 g/cm\u00b3 @ Temp: 25 \u00b0C"}}