{"cas_no": "57963-11-8", "cn_name": "2-\u6c28\u57fa-4,5-\u4e8c\u7532\u57fa\u82ef\u915a", "en_name": ["4,5-Dimethyl-2-pyridinamine", "2-Pyridinamine, 4,5-dimethyl-", "4,5-Dimethyl-2-pyridinamine", "2-Amino-4,5-dimethylpyridine", "4,5-Dimethylpyridin-2-amine"], "SMILES": "CC=1C(C)=CN=C(N)C1", "physical_data": {"Molecular Weight": "122.17", "Molecular Formula": "C7H10N2", "Melting Point": "113-114 \u00b0C"}}