{"cas_no": "5796-17-8", "cn_name": "3-\u7f9f\u57fa-D-\u916a\u6c28\u9178", "en_name": ["D-Dopa", "D-Tyrosine, 3-hydroxy-", "Alanine, 3-(3,4-dihydroxyphenyl)-, D-", "3-Hydroxy-D-tyrosine", "D-Dopa", "D-3,4-Dihydroxyphenylalanine", "3-(3,4-Dihydroxyphenyl)-D-alanine", "3,4-Dihydroxy-D-phenylalanine", "(+)-3-(3,4-Dihydroxyphenyl)alanine", "D-3-Hydroxytyrosine", "\u03b2-(3,4-Dihydroxy)-D-phenylalanine", "(+)-Dopa", "D-3-(3,4-Dihydroxyphenyl)alanine", "(R)-2-Amino-3-(3,4-dihydroxyphenyl)propanoic acid"], "SMILES": "C(C(C(O)=O)N)C1=CC(O)=C(O)C=C1", "physical_data": {"Molecular Weight": "197.19", "Molecular Formula": "C9H11NO4", "Melting Point": "274.5-276 \u00b0C (decomp)"}}