{"cas_no": "5796-98-5", "cn_name": "\u53cc(\u4e09\u7532\u57fa\u7845\u57fa)\u8fc7\u6c27\u5316\u7269", "en_name": ["Trimethylsilyl peroxide", "Silane, 1,1\u2032-dioxybis[1,1,1-trimethyl-", "Peroxide, bis(trimethylsilyl)", "Silane, dioxybis[trimethyl-", "3,4-Dioxa-2,5-disilahexane, 2,2,5,5-tetramethyl-", "1,1\u2032-Dioxybis[1,1,1-trimethylsilane]", "Bis(trimethylsilyl) peroxide", "Trimethylsilyl peroxide"], "SMILES": "O(O[Si](C)(C)C)[Si](C)(C)C", "physical_data": {"Molecular Weight": "178.38", "Molecular Formula": "C6H18O2Si2", "Boiling Point": "35 \u00b0C @ Press: 35 Torr", "Melting Point": "&gt;135 \u00b0C (decomp)", "Density": "0.829 g/cm\u00b3"}}