{"cas_no": "57981-02-9", "cn_name": "\u90bb-(2\uff0c3\uff0c4\uff0c5\uff0c6-\u5168\u6c1f\u82ef\u57fa)\u7f9f\u57fa\u6c28\uff0c\u76d0\u9178\u76d0", "en_name": ["o-(2,3,4,5,6-Pentafluorobenzyl)hydroxylamine hydrochloride", "Hydroxylamine, O-[(2,3,4,5,6-pentafluorophenyl)methyl]-, hydrochloride (1:1)", "Hydroxylamine, O-[(pentafluorophenyl)methyl]-, hydrochloride", "2,3,4,5,6-Pentafluorobenzyloxyamine hydrochloride", "Pentafluorobenzyloxyamine hydrochloride", "O-[(2,3,4,5,6-Pentafluorophenyl)methyl]hydroxylamine hydrochloride", "O-(Pentafluorobenzyl)hydroxylamine hydrochloride", "o-(2,3,4,5,6-Pentafluorobenzyl)hydroxylamine hydrochloride", "N-[(2,3,4,5,6-Pentafluorobenzyl)oxy]amine hydrochloride", "O-(Pentafluorobenzyl)hydroxyamine hydrochloride", "((Perfluorophenyl)methoxy)amine hydrochloride"], "SMILES": "C(ON)C1=C(F)C(F)=C(F)C(F)=C1F.Cl", "physical_data": {"Molecular Weight": "", "Molecular Formula": "C7H4F5NO.ClH", "Melting Point": "227 \u00b0C"}}