{"cas_no": "5798-75-4", "cn_name": "4-\u6eb4\u82ef\u7532\u9178\u4e59\u916f", "en_name": ["Ethyl 4-bromobenzoate", "Benzoic acid, 4-bromo-, ethyl ester", "Benzoic acid, p-bromo-, ethyl ester", "Ethyl p-bromobenzoate", "p-(Ethoxycarbonyl)phenyl bromide", "Ethyl 4-bromobenzoate", "4-Bromobenzoic acid ethyl ester", "4-Carbethoxyphenyl bromide", "NSC 67387", "4-(Ethoxycarbonyl)-1-bromobenzene", "p-Bromobenzoic acid ethyl ester"], "SMILES": "C(OCC)(=O)C1=CC=C(Br)C=C1", "physical_data": {"Molecular Weight": "229.07", "Molecular Formula": "C9H9BrO2", "Boiling Point": "263 \u00b0C"}}