{"cas_no": "5798-79-8", "cn_name": "\u6eb4\u82ef\u4e59\u8148", "en_name": ["\u03b1-Bromobenzeneacetonitrile", "Benzeneacetonitrile, \u03b1-bromo-", "Acetonitrile, bromophenyl-", "\u03b1-Bromobenzeneacetonitrile", "\u03b1-Bromobenzyl cyanide", "\u03b1-Bromo-\u03b1-tolunitrile", "Camite", "\u03b1-Bromobenzylnitrile", "\u03b1-Bromophenylacetonitrile", "2-Bromo-2-phenylacetonitrile", "BBC"], "SMILES": "C(C#N)(Br)C1=CC=CC=C1", "physical_data": {"Molecular Weight": "196.04", "Molecular Formula": "C8H6BrN", "Boiling Point": "242 \u00b0C @ Press: 760 Torr", "Melting Point": "29 \u00b0C", "Density": "1.539 g/cm\u00b3 @ Temp: 29 \u00b0C"}}