{"cas_no": "5799-68-8", "cn_name": "\u4e9a\u7532\u57fa\u4e8c\u78fa\u9170\u4e8c\u6c2f", "en_name": ["Methanedisulfonyl dichloride", "Methanedisulfonyl dichloride", "Methanedisulfonyl chloride", "Methylenedi(sulfonyl chloride)", "Bis(chlorosulfonyl)methane"], "SMILES": "C(S(Cl)(=O)=O)S(Cl)(=O)=O", "physical_data": {"Molecular Weight": "213.06", "Molecular Formula": "CH2Cl2O4S2", "Boiling Point": "86-87 \u00b0C @ Press: 0.6 Torr"}}