{"cas_no": "5799-76-8", "cn_name": "4-\u4e19\u7094-1-\u5417\u5549", "en_name": ["N-Propargylmorpholine", "Morpholine, 4-(2-propyn-1-yl)-", "Morpholine, 4-(2-propynyl)-", "4-(2-Propyn-1-yl)morpholine", "N-(2-Propynyl)morpholine", "3-(N-Morpholinyl)propyne", "4-Propargylmorpholine", "4-(2-Propynyl)morpholine", "N-Propargylmorpholine", "3-Morpholino-1-propyne", "3-(4-Morpholinyl)-1-propyne", "1-Morpholino-2-propyne"], "SMILES": "C(C#C)N1CCOCC1", "physical_data": {"Molecular Weight": "125.17", "Molecular Formula": "C7H11NO", "Boiling Point": "64 \u00b0C @ Press: 10 Torr", "Density": "1.0009 g/cm\u00b3 @ Temp: 20 \u00b0C"}}