{"cas_no": "57999-49-2", "cn_name": "2-(3-\u6eb4\u82ef\u6c27\u57fa)\u56db\u6c22-2H-\u5421\u5583", "en_name": ["2-(3-Bromophenoxy)tetrahydro-2H-pyran", "2H-Pyran, 2-(3-bromophenoxy)tetrahydro-", "Pyran, 2-(m-bromophenoxy)tetrahydro-", "2-(3-Bromophenoxy)tetrahydro-2H-pyran", "3-(Tetrahydropyran-2-yloxy)phenyl bromide", "2-(3-Bromophenoxy)tetrahydropyran", "3-Bromophenyl tetrahydro-2H-pyran-2-yl ether", "2-(3-Bromophenoxy)oxane"], "SMILES": "O(C1=CC(Br)=CC=C1)C2CCCCO2", "physical_data": {"Molecular Weight": "257.12", "Molecular Formula": "C11H13BrO2", "Boiling Point": "115 \u00b0C @ Press: 0.4 Torr"}}