{"cas_no": "58-08-2", "cn_name": "\u5496\u5561\u56e0", "en_name": ["Caffeine", "1H-Purine-2,6-dione, 3,7-dihydro-1,3,7-trimethyl-", "Caffeine", "3,7-Dihydro-1,3,7-trimethyl-1H-purine-2,6-dione", "Guaranine", "Methyltheobromine", "No-Doz", "Thein", "Theine", "1,3,7-Trimethyl-2,6-dioxopurine", "1,3,7-Trimethylxanthine", "Caffein", "Cafipel", "Alert-Pep", "Koffein", "Cafeina", "Mateina", "Refresh'n", "Stim", "Tri-Aqua", "7-Methyltheophylline", "Shape Plus", "Caffedrine", "Diurex", "Stay Alert", "Synalgos", "Miudol", "Wigraine", "Dasin", "Phensal", "DHCplus", "NSC 5036", "Durvitan", "Cafalgine", "Midron extra", "New Cetamol", "Asia migrine", "Palergot-C", "Vivarin", "1,3,7-Trimethyl-7H-purine-2,6-dione", "1,3,7-Trimethyl-2,3,6,7-tetrahydro-1H-purine-2,6-dione", "1,3,7-Trimethyl-3,7-dihydro-purine-2,6-dione", "MeSH ID: D002110"], "SMILES": "O=C1C2=C(N(C)C(=O)N1C)N=CN2C", "physical_data": {"Molecular Weight": "194.19", "Molecular Formula": "C8H10N4O2", "Melting Point": "238 \u00b0C", "Density": "1.23 g/cm\u00b3 @ Temp: 18 \u00b0C"}}