{"cas_no": "58-05-9", "cn_name": "\u4e9a\u53f6\u9178", "en_name": ["Leucovorin", "L-Glutamic acid, N-[4-[[(2-amino-5-formyl-3,4,5,6,7,8-hexahydro-4-oxo-6-pteridinyl)methyl]amino]benzoyl]-", "Glutamic acid, N-[p-[[(2-amino-5-formyl-5,6,7,8-tetrahydro-4-hydroxy-6-pteridinyl)methyl]amino]benzoyl]-, L-", "L-Glutamic acid, N-[4-[[(2-amino-5-formyl-1,4,5,6,7,8-hexahydro-4-oxo-6-pteridinyl)methyl]amino]benzoyl]-", "N-[4-[[(2-Amino-5-formyl-3,4,5,6,7,8-hexahydro-4-oxo-6-pteridinyl)methyl]amino]benzoyl]-L-glutamic acid", "Folinic acid", "N5-Formyl-5,6,7,8-tetrahydrofolic acid", "5-Formyl-5,6,7,8-tetrahydrofolic acid", "N5-Formyltetrahydrofolic acid", "Leucovorin", "5-Formyltetrahydropteroylglutamic acid", "Folinic acid-SF", "Leucal", "5-Formyltetrahydrofolic acid", "l-Leucovorin", "Welcovorin", "Leucoverin", "CF", "(6R,S)-5-Formyltetrahydrofolate", "Kunyrin", "N5-Formyl-THF", "5-Formyl-(6RS)-tetrahydrofolic acid", "MeSH ID: D002955"], "SMILES": "C(=O)N1C2=C(NCC1CNC3=CC=C(C(NC(CCC(O)=O)C(O)=O)=O)C=C3)NC(N)=NC2=O", "physical_data": {"Molecular Weight": "473.44", "Molecular Formula": "C20H23N7O7", "Melting Point": "245 \u00b0C (decomp)"}}