{"cas_no": "58-14-0", "cn_name": "\u4e59\u80fa\u5627\u5576", "en_name": ["Pyrimethamine", "2,4-Pyrimidinediamine, 5-(4-chlorophenyl)-6-ethyl-", "Pyrimidine, 2,4-diamino-5-(p-chlorophenyl)-6-ethyl-", "5-(4-Chlorophenyl)-6-ethyl-2,4-pyrimidinediamine", "4753 R.P.", "BW 50-63", "Chloridin", "Chloridine", "Darapram", "Daraprim", "2,4-Diamino-5-p-chlorophenyl-6-ethylpyrimidine", "Malocide", "Pyrimethamine", "Daraprime", "5-(4-Chlorophenyl)-2,4-diamino-6-ethylpyrimidine", "2,4-Diamino-5-(4-chlorophenyl)-6-ethylpyrimidine", "5-(P-Chlorophenyl)-6-ethyl-2,4-diaminopyrimidine", "Darachlor", "Malocid", "Pirimetamin", "Tindurin", "Khloridin", "Malacid", "Pyrimethamin", "Pirimecidan", "Diaminopyritamin", "Erbaprelina", "NSC 3061", "WR 2978", "RP 4753", "Tinduring", "BRD-K 88429204", "MeSH ID: D011739"], "SMILES": "C(C)C=1C(=C(N)N=C(N)N1)C2=CC=C(Cl)C=C2", "physical_data": {"Molecular Weight": "248.71", "Molecular Formula": "C12H13ClN4", "Melting Point": "233.5 \u00b0C"}}