{"cas_no": "58-19-5", "cn_name": "\u5c48\u4ed6\u96c4\u916e", "en_name": ["Dromostanolone", "Androstan-3-one, 17-hydroxy-2-methyl-, (2\u03b1,5\u03b1,17\u03b2)-", "5\u03b1-Androstan-3-one, 17\u03b2-hydroxy-2\u03b1-methyl-", "(2\u03b1,5\u03b1,17\u03b2)-17-Hydroxy-2-methylandrostan-3-one", "Dihydro-2\u03b1-methyltestosterone", "Dromostanolone", "Drostanolone", "17\u03b2-Hydroxy-2\u03b1-methyl-5\u03b1-androstan-3-one", "Metholone", "2\u03b1-Methyl-5\u03b1-androstan-17\u03b2-ol-3-one", "2\u03b1-Methyl-17\u03b2-hydroxyandrostan-3-one", "Medrotestron", "2\u03b1-Methyl-17\u03b2-hydroxy-5\u03b1-androstan-3-one", "2\u03b1-Methyl-5\u03b1-dihydrotestosterone"], "SMILES": "CC12C3C(C4C(C)(CC3)C(O)CC4)CCC1CC(=O)C(C)C2", "physical_data": {"Molecular Weight": "304.47", "Molecular Formula": "C20H32O2", "Melting Point": "151 \u00b0C"}}