{"cas_no": "58-15-1", "cn_name": "\u6c28\u57fa\u6bd4\u6797", "en_name": ["Aminopyrine", "3H-Pyrazol-3-one, 4-(dimethylamino)-1,2-dihydro-1,5-dimethyl-2-phenyl-", "Antipyrine, 4-(dimethylamino)-", "3-Pyrazolin-5-one, 4-(dimethylamino)-2,3-dimethyl-1-phenyl-", "4-(Dimethylamino)-1,2-dihydro-1,5-dimethyl-2-phenyl-3H-pyrazol-3-one", "Amidazophen", "Amidofebrin", "Amidophenazone", "Amidopyrazoline", "Amidopyrine", "Aminophenazone", "Aminopyrine", "Anafebrina", "Dereuma", "Dimapyrin", "(Dimethylamino)analgesine", "4-Dimethylamino-2,3-dimethyl-1-phenyl-3-pyrazolin-5-one", "4-Dimethylamino-2,3-dimethyl-1-phenyl-5-pyrazolone", "4-Dimethylamino-1-phenyl-2,3-dimethylpyrazolone", "3-Keto-1,5-dimethyl-4-dimethylamino-2-phenyl-2,3-dihydropyrazole", "1,5-Dimethyl-4-dimethylamino-2-phenyl-3-pyrazolone", "2,3-Dimethyl-4-dimethylamino-1-phenyl-5-pyrazolone", "Dipirin", "Dipyrine", "Febrinina", "Novamidon", "1-Phenyl-2,3-dimethyl-4-dimethylaminopyrazol-5-one", "1-Phenyl-2,3-dimethyl-4-dimethylaminopyrazolone-5", "Piridol", "Polinalin", "Pyradone", "Pyramidone", "Pyramidon", "4-(Dimethylamino)antipyrine", "(Dimethylamino)antipyrine", "Dimethylaminoazophene", "(Dimethylamino)phenazone", "Amidophen", "Brufaneuxol", "Itamidone", "2,3-Dimethyl-4-dimethylamino-1-phenyl-3-pyrazolin-5-one", "Aminophenazon", "Amidopyrin", "Aminopyrin", "Piramidon", "Piromidina", "Febron", "Dipyrin", "4-Dimethylaminophenazone", "Amidazophene", "Amidofen", "Piramidone", "4-N,N-Dimethylaminoantipyrine", "Netsusarin", "Mamallet A", "Dimethylaminophenyldimethylpyrazone", "NSC 4993", "MeSH ID: D000632"], "SMILES": "O=C1N(N(C)C(C)=C1N(C)C)C2=CC=CC=C2", "physical_data": {"Molecular Weight": "231.29", "Molecular Formula": "C13H17N3O", "Melting Point": "107-109 \u00b0C"}}