{"cas_no": "58-18-4", "cn_name": "\u7532\u777e\u916e", "en_name": ["Methyltestosterone", "Androst-4-en-3-one, 17-hydroxy-17-methyl-, (17\u03b2)-", "Androst-4-en-3-one, 17\u03b2-hydroxy-17-methyl-", "(17\u03b2)-17-Hydroxy-17-methylandrost-4-en-3-one", "Androsan", "Anertan", "Dumogran", "Glosso-Sterandryl", "Homandren", "Hormale", "17-Hydroxy-17-methyl-3-keto-androstene-4", "17\u03b2-Hydroxy-17\u03b1-methylandrost-4-ene-3-one", "17\u03b2-Hydroxy-17-methylandrost-4-en-3-one", "17\u03b2-Hydroxy-17\u03b1-methylandrost-4-en-3-one", "Malestrone", "Malogen", "Masenone", "Metandren", "17\u03b1-Methylandrost-4-en-17-ol-3-one", "17\u03b1-Methylandrost-4-en-17\u03b2-ol-3-one", "17(\u03b1)-Methyl-\u03944-androsten-17-(\u03b2)-ol-3-one", "17\u03b1-Methyl-17\u03b2-hydroxyandrost-4-en-3-one", "Methyltestosterone", "17-Methyltestosterone", "17\u03b1-Methyltestosterone", "Metrone", "M.T.Mucorettes", "Neo-Hombreol-M", "Nu-man", "Oreton-M", "Synandrets", "Synandrotabs", "Testhormone", "Testora", "Testoviron", "17\u03b1-Methyl-17\u03b2-hydroxyandrost-4-ene-3-one", "Androst-4-ene-17\u03b1-methyl-17\u03b2-ol-3-one", "17\u03b2-Hydroxy-17\u03b1-methyl-3-oxoandrost-4-ene", "Androsan (tablets)", "Anertan (tablets)", "Mesterone", "17-Methyltestosteron", "Andrometh", "Mastestona", "Androsten", "Oreton Methyl", "Steronyl", "17\u03b1-Methyl-3-oxo-4-androsten-17\u03b2-ol", "Testoviron (tablet)", "L 589.372", "RU 24400", "U 2842", "CDB 110", "Testovis Depot", "Orchisterone M", "Oraviron", "Android", "Testred", "Perandren", "NSC 139965", "NSC 9701", "Methyltestorone", "MeSH ID: D008777"], "SMILES": "CC12C3C(C4C(C)(CC3)C(C)(O)CC4)CCC1=CC(=O)CC2", "physical_data": {"Molecular Weight": "302.45", "Molecular Formula": "C20H30O2", "Melting Point": "161-166 \u00b0C"}}