{"cas_no": "58-22-0", "cn_name": "\u777e\u916e", "en_name": ["Testosterone", "Androst-4-en-3-one, 17-hydroxy-, (17\u03b2)-", "Testosterone", "(17\u03b2)-17-Hydroxyandrost-4-en-3-one", "Androlin", "Andronaq", "Androst-4-en-17\u03b2-ol-3-one", "Andrusol", "Geno-cristaux Gremy", "Homosteron", "Homosterone", "17\u03b2-Hydroxy-\u03944-androsten-3-one", "17\u03b2-Hydroxyandrost-4-en-3-one", "Mertestate", "Orquisteron", "Percutacrine androgenique", "Primotest", "Primoteston", "Teslen", "Testandrone", "Testiculosterone", "Testobase", "Testosteroid", "Testoviron Schering", "Testrone", "Testryl", "Virormone", "Virosterone", "17\u03b2-Hydroxyandrost-4-ene-3-one", "Testosteron", "Cristerona T", "Testopropon", "Perandren", "Testoviron T", "Neotestis", "\u03944-Androsten-17\u03b2-ol-3-one", "4-Androsten-3-one-17\u03b2-ol", "Androst-4-ene-17\u03b2-ol-3-one", "Testolent", "Testoderm", "Androderm", "CDB 111C", "Relibra", "AndroGel", "Viatrel", "Tostrelle", "Andro 100", "Testolin", "Testro AQ", "Synandrol F", "Oreton", "CP 601B", "NSC 9700", "Testim", "AA 2500", "Andropatch", "Tostrex", "17\u03b2-Testosterone", "COL 1621", "Testogel", "Intrinsa", "Striant", "Opterone", "(+)-Testosterone", "Noseafix", "Glowmin", "Nasobol", "Compleo", "Testopatch", "Testopel", "Axiron", "AndroForte 5", "(8R,9S,10R,13S,14S,17S)-17-Hydroxy-10,13-dimethyl-6,7,8,9,10,11,12,13,14,15,16,17-dodecahydro-1H-cyclopenta[a]phenanthren-3(2H)-one", "Natesto", "Livensa", "LPCN 1144", "MeSH ID: D013739"], "SMILES": "CC12C3C(C4C(C)(CC3)C(O)CC4)CCC1=CC(=O)CC2", "physical_data": {"Molecular Weight": "288.42", "Molecular Formula": "C19H28O2", "Melting Point": "155 \u00b0C"}}