{"cas_no": "58-28-6", "cn_name": "\u76d0\u9178\u53bb\u7532\u54aa\u55ea", "en_name": ["Desipramine hydrochloride", "5H-Dibenz[b,f]azepine-5-propanamine, 10,11-dihydro-N-methyl-, hydrochloride (1:1)", "5H-Dibenz[b,f]azepine, 10,11-dihydro-5-[3-(methylamino)propyl]-, monohydrochloride", "5H-Dibenz[b,f]azepine-5-propanamine, 10,11-dihydro-N-methyl-, monohydrochloride", "EX 4355", "JB 8181", "G 35020", "Demethylimipramine hydrochloride", "Desipramine hydrochloride", "10,11-Dihydro-5-[3-(methylamino)propyl]-5H-dibenz[b,f]azepine monohydrochloride", "DMI hydrochloride", "GMI", "N-(\u03b3-Methylaminopropyl)iminodibenzyl hydrochloride", "Pertofrane", "Desipramine monohydrochloride", "Pertofran", "Desmethylimipramine monohydrochloride", "Desmethylimipramine chloride", "5-[3-(Methylamino)propyl]-5H-dibenz[b,f]azepine hydrochloride", "Desimipramine-hydrochloride", "Norpramin", "Desmethylimipramine-hydrochloride", "RMI 9384A", "NSC 114901", "Nortrimil", "Petilil"], "SMILES": "C(CCNC)N1C=2C(CCC=3C1=CC=CC3)=CC=CC2.Cl", "physical_data": {"Molecular Weight": "", "Molecular Formula": "C18H22N2.ClH", "Melting Point": "215-216 \u00b0C"}}