{"cas_no": "58-20-8", "cn_name": "\u73af\u620a\u4e19\u9178\u777e\u916e", "en_name": ["Testosterone cypionate", "Androst-4-en-3-one, 17-(3-cyclopentyl-1-oxopropoxy)-, (17\u03b2)-", "Testosterone, cyclopentanepropionate", "Cyclopentanepropionic acid, ester with testosterone", "(17\u03b2)-17-(3-Cyclopentyl-1-oxopropoxy)androst-4-en-3-one", "Depo-testosterone", "Depovirin", "17\u03b2-Hydroxyandrost-4-en-3-one cyclopentanepropionate", "Pertestis", "Testodrin prolongatum", "Testosterone 17\u03b2-cyclopentanepropionate", "Testosterone cyclopentylpropionate", "Testosterone cypionate", "Testosterone 17\u03b2-cyclopentylpropionate", "Testosterone 17\u03b2-cypionate", "17\u03b2-Hydroxyandrost-4-en-3-one cyclopentylpropionate", "Testosterone, 3-cyclopentanepropionate", "Virilon", "DepAndro 200", "DepAndro 100", "Depotest", "Depo", "NSC 9157", "Testex Leo", "Deposteron", "4-Androstene-17\u03b2-ol-3-one cypionate", "Cipionato", "Testosterone ciclopentilpropionato"], "SMILES": "CC12C3C(C4C(C)(CC3)C(OC(CCC5CCCC5)=O)CC4)CCC1=CC(=O)CC2", "physical_data": {"Molecular Weight": "412.60", "Molecular Formula": "C27H40O3", "Melting Point": "101-102 \u00b0C"}}