{"cas_no": "58-25-3", "cn_name": "\u6c2f\u6c2e\u5353", "en_name": ["Chlordiazepoxide", "3H-1,4-Benzodiazepin-2-amine, 7-chloro-N-methyl-5-phenyl-, 4-oxide", "3H-1,4-Benzodiazepine, 7-chloro-2-(methylamino)-5-phenyl-, 4-oxide", "CDO", "Chlordiazepoxide", "Chlorodiazepoxide", "7-Chloro-2-(methylamino)-5-phenyl-3H-1,4-benzodiazepine 4-oxide", "Clopoxide", "Librinin", "Methaminodiazepoxide", "Elenium", "Napoton", "Psicosan", "Kalmocaps", "Eden", "Mesural", "Mildmen", "Decacil", "Viopsicol", "Ifibrium", "Radepur", "Chlozepid", "Control", "Balance", "Chlordiazepoxid", "Balance (pharmaceutical)", "Multum", "Risolid", "Libritabs", "Helogaphen", "Silibrin", "Menrium", "Tropium", "Librelease", "Abboxide", "7-Chloro-N-methyl-5-phenyl-3H-1,4-benzodiazepin-2-yl-amine 4-oxide", "MeSH ID: D002707"], "SMILES": "O=N1=C(C=2C(N=C(NC)C1)=CC=C(Cl)C2)C3=CC=CC=C3", "physical_data": {"Molecular Weight": "299.75", "Molecular Formula": "C16H14ClN3O", "Melting Point": "236-236.5 \u00b0C"}}