{"cas_no": "58-27-5", "cn_name": "\u7532\u8418\u918c", "en_name": ["Menadione", "1,4-Naphthalenedione, 2-methyl-", "1,4-Naphthoquinone, 2-methyl-", "2-Methyl-1,4-naphthalenedione", "Aquakay", "Aquinone", "Hemodal", "Kaergona", "Kanone", "Kappaxin", "Kareon", "Kativ-G", "Kayklot", "Kaykot", "Kayquinone", "Kolklot", "Menadione", "Menaphthone", "Mitenone", "MNQ", "Panosine", "Synkay", "Thyloquinone", "Vitamin K3", "Mitenon", "Vitamin K2(0)", "Menadion", "3-Methyl-1,4-naphthoquinone", "2-Methylnaphthoquinone", "Klottone", "K-Thrombyl", "Prokayvit", "Koaxin", "K-Vitan", "Kipca-Oil Soluble", "Karcon", "Kappaxan", "Kipca", "Menaphthon", "Menaquinone 0", "2-Methyl-1,4-naphthoquinone", "Vitamin K0", "\u03b2-Methyl-1,4-naphthoquinone", "1,4-Dihydro-1,4-dioxo-2-methylnaphthalene", "2-Methyl-1,4-naphthodione", "Kaynone", "NSC 4170", "SeaKleen 800WP", "SeaKleen 500SC", "2-Methyl-1,4-dihydronaphthalene-1,4-dione"], "SMILES": "O=C1C=2C(C(=O)C=C1C)=CC=CC2", "physical_data": {"Molecular Weight": "172.18", "Molecular Formula": "C11H8O2", "Melting Point": "105-107 \u00b0C"}}