{"cas_no": "58-39-9", "cn_name": "\u594b\u4e43\u9759", "en_name": ["Perphenazine", "1-Piperazineethanol, 4-[3-(2-chloro-10H-phenothiazin-10-yl)propyl]-", "1-Piperazineethanol, 4-[3-(2-chlorophenothiazin-10-yl)propyl]-", "4-[3-(2-Chloro-10H-phenothiazin-10-yl)propyl]-1-piperazineethanol", "2-Chloro-10-3-[1-(2-hydroxyethyl)-4-piperazinyl] propyl phenothiazine", "2-Chloro-10-[3-[4-(2-hydroxyethyl)piperazin-1-yl]propyl]phenothiazine", "Decentan", "Etaperazin", "Etaperazine", "Ethaperazine", "Fentazin", "1-(2-Hydroxyethyl)-4-[3-(2-chloro-10-phenothiazinyl)propyl]piperazine", "\u03b3-[4-(\u03b2-Hydroxyethyl)piperazin-1-yl]propyl-2-chlorophenothiazine", "Perphenazin", "Perphenazine", "Trifaron", "Trilafon", "Trilifan", "Chlorperphenazine", "Perfenazine", "Fentazine duolets", "Fentazin syrup", "Thilatazin", "Tranquisan", "Emesinal", "Perphenan", "PZC", "Sch 3940", "Triphenot", "Chloriprozine", "NSC 150866", "Perfenil", "Mutabom", "PZC (tranquilizer)", "2-[4-[3-(2-Chloro-phenothiazin-10-yl)-propyl]-piperazin-1-yl]-ethanol", "2-[4-[3-(2-Chlorophenothiazin-10-yl)propyl]piperazin-1-yl]ethanol", "2-[4-[3-(2-Chloro-10H-phenothiazin-10-yl)propyl]piperazin-1-yl]ethan-1-ol", "MeSH ID: D010546"], "SMILES": "C(CCN1CCN(CCO)CC1)N2C=3C(SC=4C2=CC=CC4)=CC=C(Cl)C3", "physical_data": {"Molecular Weight": "403.97", "Molecular Formula": "C21H26ClN3OS", "Boiling Point": "214-218 \u00b0C @ Press: 0.15 Torr", "Melting Point": "94-100 \u00b0C"}}