{"cas_no": "58-32-2", "cn_name": "\u53cc\u5627\u8fbe\u83ab", "en_name": ["Dipyridamole", "Ethanol, 2,2\u2032,2\u2032\u2032,2\u2032\u2032\u2032-[(4,8-di-1-piperidinylpyrimido[5,4-d]pyrimidine-2,6-diyl)dinitrilo]tetrakis-", "Ethanol, 2,2\u2032,2\u2032\u2032,2\u2032\u2032\u2032-[(4,8-dipiperidinopyrimido[5,4-d]pyrimidine-2,6-diyl)dinitrilo]tetra-", "Pyrimido[5,4-d]pyrimidine, ethanol deriv.", "2,2\u2032,2\u2032\u2032,2\u2032\u2032\u2032-[(4,8-Di-1-piperidinylpyrimido[5,4-d]pyrimidine-2,6-diyl)dinitrilo]tetrakis[ethanol]", "RA 8", "2,6-Bis(diethanolamino)-4,8-dipiperidinopyrimido[5,4-d]pyrimidine", "2,2\u2032,2\u2032\u2032,2\u2032\u2032\u2032-[[4,8-Dipiperidinopyrimido(5,4-d)pyrimidine-2,6-diyl]dinitrilo]tetraethanol", "Dipyridamine", "Dipyridamol", "Dipyridamole", "Persantin", "Persantine", "Anginal", "Cardoxin", "Curantyl", "Kurantil", "Stenocardil", "Apricor", "Cardioflux", "Stimolcardio", "Coribon", "Corosan", "Coroxin", "Prandiol", "Coronarine", "Cardoxil", "Gulliostin", "Protangix", "Piroan", "Peridamol", "Natyl", "Coridil", "Cleridium", "NSC 515776", "Dipyridan", "NSC 619103", "2,2\u2032,2\u2032\u2032,2\u2032\u2032\u2032-[[4,8-Di(piperidin-1-yl)pyrimido[5,4-d]pyrimidine-2,6-diyl]dinitrilo]tetraethanol", "2,2\u2032,2\u2032\u2032,2\u2032\u2032\u2032-((4,8-Di(piperidin-1-yl)pyrimido[5,4-d]pyrimidine-2,6-diyl)bis(azanetriyl))tetraethanol", "2-([6-[Bis(2-hydroxyethyl)amino]-4,8-bis(piperidin-1-yl)-[1,3]diazino[5,4-d]pyrimidin-2-yl](2-hydroxyethyl)amino)ethan-1-ol", "2-[[2-[Bis(2-hydroxyethyl)amino]-4,8-di(piperidin-1-yl)pyrimido[5,4-d]pyrimidin-6-yl]-(2-hydroxyethyl)amino]ethanol", "MeSH ID: D004176"], "SMILES": "N(CCO)(CCO)C1=NC2=C(C(=N1)N3CCCCC3)N=C(N(CCO)CCO)N=C2N4CCCCC4", "physical_data": {"Molecular Weight": "504.63", "Molecular Formula": "C24H40N8O4", "Melting Point": "163 \u00b0C"}}