{"cas_no": "58-36-6", "cn_name": "10,10'-\u6c27\u4ee3\u53cc\u5429\u7812", "en_name": ["10,10\u2032-Oxybisphenoxarsine", "10H-Phenoxarsine, 10,10\u2032-oxybis-", "Phenoxarsine, 10,10\u2032-oxydi-", "10,10\u2032-Oxybis[10H-phenoxarsine]", "10,10\u2032-Oxybisphenoxarsine", "Bis(phenoxarsin-10-yl) ether", "DID 47", "10,10\u2032-Oxidiphenoxarsine", "Bis(10-phenoxarsyl) oxide", "Bis(10-phenoxarsinyl) oxide", "SA 546", "Vinyzene", "Vinyzene (pesticide)", "Vinyzene BP 5", "Vinyzene BP 5-2", "Vinyzene SB 1", "10,10\u2032-Bis(phenoxarsinyl) oxide", "Vinadine", "Durotex", "Vinyzene SB 1PS", "Intercide ABF 1 Esbo", "Vinyzene BP 505", "Vinyzene BS 1", "Vinyzene SB 1PR", "OBPA", "Vinyzene BP 5-2DIDP", "ABF 5DIDP", "Micropel 5DIDP", "SB 1PR"], "SMILES": "O([As]1C=2C(OC=3C1=CC=CC3)=CC=CC2)[As]4C=5C(OC=6C4=CC=CC6)=CC=CC5", "physical_data": {"Molecular Weight": "502.23", "Molecular Formula": "C24H16As2O3", "Melting Point": "184-185 \u00b0C", "Density": "1.40-1.42 g/cm\u00b3"}}