{"cas_no": "58-33-3", "cn_name": "\u76d0\u9178\u5f02\u4e19\u55ea", "en_name": ["Promethazine hydrochloride", "10H-Phenothiazine-10-ethanamine, N,N,\u03b1-trimethyl-, hydrochloride (1:1)", "Phenothiazine, 10-[2-(dimethylamino)propyl]-, monohydrochloride", "10H-Phenothiazine-10-ethanamine, N,N,\u03b1-trimethyl-, monohydrochloride", "10-[2-(Dimethylamino)propyl]phenothiazine hydrochloride", "Plletia", "Promethazine hydrochloride", "Phenergan", "Promethazine chloride", "Promethazine monohydrochloride", "Atosil", "Fenergan", "Diprazin", "Pipolfen", "Diprasine", "Romergan", "Pipolphen", "Romergan hydrochloride", "Kinetosin", "Pyrethia", "Promethazinium chloride", "Phena", "Promasun", "Hiberna", "Phencen", "Dorme", "Phenergan VC", "Fellozine", "Remsed", "Lergigan", "Genphen", "Prorex", "Fenazil", "Anergan 25", "Anergan 50", "Duplamin", "Prothazine", "Mepergan", "Provigan", "Phanergan D", "NSC 231688", "Himazin"], "SMILES": "C(C(N(C)C)C)N1C=2C(SC=3C1=CC=CC3)=CC=CC2.Cl", "physical_data": {"Molecular Weight": "", "Molecular Formula": "C17H20N2S.ClH", "Melting Point": "230-232 \u00b0C"}}