{"cas_no": "58-38-8", "cn_name": "\u4e19\u6c2f\u62c9\u55ea", "en_name": ["Prochlorperazine", "10H-Phenothiazine, 2-chloro-10-[3-(4-methyl-1-piperazinyl)propyl]-", "Phenothiazine, 2-chloro-10-[3-(4-methyl-1-piperazinyl)propyl]-", "2-Chloro-10-[3-(4-methyl-1-piperazinyl)propyl]-10H-phenothiazine", "SKF 4657", "6140RP", "3-Chloro-10-[3-(1-methyl-4-piperazinyl)propyl]phenothiazine", "2-Chloro-10-(3-[1-methyl-4-piperazinyl]propyl)phenothiazine", "2-Chloro-10-[3-(4-methyl-1-piperazinyl)propyl]phenothiazine", "Chlorperazine", "Meterazine", "N-[\u03b3-(4\u2032-Methylpiperazinyl-1\u2032)propyl]-3-chlorophenothiazine", "Nipodal", "Prochlorperazine", "Prochlorpromazine", "Prochlorperazin", "Temetid", "Chlormeprazine", "Kronocin", "Bayer A 173", "Capazine", "Emelent", "Meterazin", "Prochlorpemazine", "RP 6140", "Proazine", "NSC 17478", "NSC 665801", "DDD 66604", "MeSH ID: D011346"], "SMILES": "C(CCN1CCN(C)CC1)N2C=3C(SC=4C2=CC=CC4)=CC=C(Cl)C3", "physical_data": {"Molecular Weight": "373.94", "Molecular Formula": "C20H24ClN3S", "Boiling Point": "260-275 \u00b0C @ Press: 2 Torr", "Melting Point": "228 \u00b0C"}}