{"cas_no": "58-46-8", "cn_name": "\u4e01\u82ef\u90a3\u55ea", "en_name": ["(\u00b1)-Tetrabenazine", "2H-Benzo[a]quinolizin-2-one, 1,3,4,6,7,11b-hexahydro-9,10-dimethoxy-3-(2-methylpropyl)-, (3R,11bR)-rel-", "2H-Benzo[a]quinolizin-2-one, 1,3,4,6,7,11b-hexahydro-3-isobutyl-9,10-dimethoxy-", "2H-Benzo[a]quinolizin-2-one, 1,3,4,6,7,11b-hexahydro-9,10-dimethoxy-3-(2-methylpropyl)-, cis-", "rel-(3R,11bR)-1,3,4,6,7,11b-Hexahydro-9,10-dimethoxy-3-(2-methylpropyl)-2H-benzo[a]quinolizin-2-one", "Ro 1-9569", "cis-2-Oxo-3-isobutyl-9,10-dimethoxy-1,2,3,4,6,7-hexahydro-11bH-benzo[a]quinolizine", "Tetrabenazine", "Rubigen", "NSC 169886", "NSC 172187", "(\u00b1)-Tetrabenazine", "Xenazine", "MeSH ID: D013747"], "SMILES": "O(C)C=1C=C2C3N(CC(CC(C)C)C(=O)C3)CCC2=CC1OC", "physical_data": {"Molecular Weight": "317.42", "Molecular Formula": "C19H27NO3", "Melting Point": "128 \u00b0C"}}