{"cas_no": "58-40-2", "cn_name": "\u4e19\u55ea", "en_name": ["Promazine", "10H-Phenothiazine-10-propanamine, N,N-dimethyl-", "Phenothiazine, 10-[3-(dimethylamino)propyl]-", "N,N-Dimethyl-10H-phenothiazine-10-propanamine", "A 145", "RP 3276", "Ampazine", "10-[3-(Dimethylamino)propyl]phenothiazine", "Esparin", "Neo-Hibernex", "Prazin", "Prazine", "Promazine", "Protactyl", "Verophen", "Berophen", "Romtiazin", "Wy 1094", "Sinophenin", "Tomil", "3276RP", "N-(3-Dimethylaminopropyl)phenothiazine", "NSC 31447", "MeSH ID: D011395"], "SMILES": "C(CCN(C)C)N1C=2C(SC=3C1=CC=CC3)=CC=CC2", "physical_data": {"Molecular Weight": "284.42", "Molecular Formula": "C17H20N2S", "Boiling Point": "203-210 \u00b0C @ Press: 0.3 Torr", "Melting Point": "&lt;25 \u00b0C"}}