{"cas_no": "58-56-0", "cn_name": "\u5421\u54c6\u9187\u76d0\u9178\u76d0", "en_name": ["Pyridoxine hydrochloride", "3,4-Pyridinedimethanol, 5-hydroxy-6-methyl-, hydrochloride (1:1)", "Pyridoxol, hydrochloride", "3,4-Pyridinedimethanol, 5-hydroxy-6-methyl-, hydrochloride", "Aderoxine", "Becilan", "Benadon", "Campoviton 6", "4,5-Di(hydroxymethyl)-3-hydroxy-2-methylpyridine hydrochloride", "Hexobion", "Hexabetalin", "Hexabione hydrochloride", "Hexavibex", "Hexermin", "3-Hydroxy-4,5-dimethylol-\u03b1-picoline hydrochloride", "5-Hydroxy-6-methyl-3,4-pyridinedicarbinol hydrochloride", "5-Hydroxy-6-methyl-3,4-pyridinedimethanol hydrochloride", "2-Methyl-3-hydroxy-4,5-bis(hydroxymethyl)pyridine hydrochloride", "2-Methyl-3-hydroxy-4,5-di(hydroxymethyl)pyridine hydrochloride", "Pyridipca", "Pyridoxin hydrochloride", "Vitamin B6 hydrochloride", "Pyridoxine hydrochloride", "3-Hydroxy-4,5-bis(hydroxymethyl)-2-methylpyridine hydrochloride", "Pyridoxine hydrogen chloride", "Pyridoxine chloride", "4,5-Bis(hydroxymethyl)-2-methylpyridin-3-ol hydrochloride", "Aderomine hydrochloride", "Pyridoxinium chloride", "Aderoxin", "Pyridoxine monohydrochloride", "4,5-Bis(hydroxymethyl)-3-hydroxy-2-methylpyridine hydrochloride", "4,5-Dimethylol-3-hydroxy-2-methylpyridine hydrochloride", "Pyridox", "Beesix", "Bonasanit"], "SMILES": "C(O)C=1C(CO)=CN=C(C)C1O.Cl", "physical_data": {"Molecular Weight": "", "Molecular Formula": "C8H11NO3.ClH", "Melting Point": "207 \u00b0C"}}