{"cas_no": "58-54-8", "cn_name": "\u5229\u5c3f\u9178", "en_name": ["Ethacrynic acid", "Acetic acid, 2-[2,3-dichloro-4-(2-methylene-1-oxobutyl)phenoxy]-", "Acetic acid, [2,3-dichloro-4-(2-methylenebutyryl)phenoxy]-", "Acetic acid, [2,3-dichloro-4-(2-methylene-1-oxobutyl)phenoxy]-", "2-[2,3-Dichloro-4-(2-methylene-1-oxobutyl)phenoxy]acetic acid", "MK 595", "2,3-Dichloro-4-(2-ethyl-1-oxo-2-propenyl)-phenoxyacetic acid", "[2,3-Dichloro-4-(2-methylenebutyryl)phenoxy]acetic acid", "Edecrin", "Ethacrynic acid", "Hydromedin", "[4-(2-Methylenebutyryl)-2,3-dichlorophenoxy]acetic acid", "Uregit", "Etakrinic acid", "Hidromedin", "Otacril", "Reomax", "Taladren", "Edecrina", "Endecril", "Mingit", "Etacrynic acid", "Crinuril", "Edecril", "NSC 624008", "NSC 85791", "[2,3-Dichloro-4-(2-methylene-1-oxobutyl)phenoxy]acetic acid", "[[2,3-Dichloro-4-[2-(methylene)butanoyl]phenyl]oxy]acetic acid", "2-[2,3-Dichloro-4-(2-methylidenebutanoyl)phenoxy]acetic acid", "MeSH ID: D004976"], "SMILES": "C(C(CC)=C)(=O)C1=C(Cl)C(Cl)=C(OCC(O)=O)C=C1", "physical_data": {"Molecular Weight": "303.14", "Molecular Formula": "C13H12Cl2O4", "Melting Point": "121-122 \u00b0C"}}