{"cas_no": "58-55-9", "cn_name": "\u8336\u78b1", "en_name": ["Theophylline", "1H-Purine-2,6-dione, 3,9-dihydro-1,3-dimethyl-", "Theophylline", "1H-Purine-2,6-dione, 3,7-dihydro-1,3-dimethyl-", "3,9-Dihydro-1,3-dimethyl-1H-purine-2,6-dione", "1,3-Dimethylxanthine", "Elixophylline", "Pseudotheophylline", "Theophyllin", "Elixophyllin", "Theograd", "Solosin", "Lanophyllin", "Liquophylline", "Optiphyllin", "Parkophyllin", "Theofol", "Theolair", "Slo-Phyllin", "Nuelin", "Theo-Dur", "Theona P", "Quibron T/SR", "Theodel", "Uniphyllin", "Euphylong", "Armophylline", "Theotard", "Teonova", "Elan", "Spophyllin retard", "Austyn", "Asmax", "Duraphyl", "Egifilin", "Quibron T", "Uniphyl", "Theodrip", "Theopek", "Pulmo-Timelets", "Sustaire", "Bilordyl", "Somophyllin CRT", "Theostat", "Afonilm", "Bronkodyl", "Unifyl", "Etheophyl", "Cetraphylline", "Theon", "Slo-Bid", "Theo-Sav", "Theovent", "Xanthium", "Theo 24", "Theobid", "Theoclear", "Talotren", "Constant T", "Aerolate", "Theophyl", "Lasma", "Brochoretard", "Theobid Duracap", "Theochron", "Duraphyllin", "LaBID", "Theoplus", "Aerobin", "Tesona", "Physpan", "PulmiDur", "Pro-Vent", "Accurbron", "Diffumal", "Somophyllin T", "Respbid", "Teocen 200", "NSC 2066", "Unilong", "Chronophyllin", "Theo-Nite", "Respicur", "Telb-DS", "Theo-DS", "Theodur Dry Syrup", "Telbans Dry Syrup", "Insanovin", "Unicontin CR", "Telbans", "Controfilina 200", "phylobid", "Apnecut", "Throphylline", "GM 501 SpermMobil", "Teotard", "Teotard 350", "1,3-Dimethyl-1H-purine-2,6(3H,7H)-dione", "1,3-Dimethyl-2,3,6,7-tetrahydro-1H-purine-2,6-dione", "1,3-Dimethyl-3,7-dihydro-purine-2,6-dione", "1,3-Dimethyl-2,3,6,9-tetrahydro-1H-purine-2,6-dione", "1,3-Dimethyl-3,7-dihydro-1H-purine-2,6-dione", "MeSH ID: D013806"], "SMILES": "O=C1C2=C(N(C)C(=O)N1C)N=CN2", "physical_data": {"Molecular Weight": "180.16", "Molecular Formula": "C7H8N4O2", "Melting Point": "270 \u00b0C"}}