{"cas_no": "58-63-9", "cn_name": "\u808c\u82f7", "en_name": ["Inosine", "Inosine", "Hypoxanthine, 9-\u03b2-D-ribofuranosyl-", "Hypoxanthine riboside", "Hypoxanthosine", "9-\u03b2-D-Ribofuranosylhypoxanthine", "Hypoxanthine ribonucleoside", "Hypoxanthine 9-\u03b2-D-ribofuranoside", "Atorel", "HXR", "Oxiamin", "Panholic-L", "Ribonosine", "Selfer", "Trophicardyl", "Ino", "Inosie", "1,9-Dihydro-9-\u03b2-D-ribofuranosyl-6H-purin-6-one", "6H-Purin-6-one, 1,9-dihydro-9-\u03b2-D-ribofuranosyl-", "NSC 20262", "MeSH ID: D007288"], "SMILES": "OC1C(N2C3=C(N=C2)C(=O)N=CN3)OC(CO)C1O", "physical_data": {"Molecular Weight": "268.23", "Molecular Formula": "C10H12N4O5", "Melting Point": "218 \u00b0C (decomp)", "Density": "1.613 g/cm\u00b3"}}