{"cas_no": "58-60-6", "cn_name": "\u7ef4\u751f\u7d20E\u918b\u9178\u916f", "en_name": ["Aminonucleoside", "Adenosine, 3\u2032-amino-3\u2032-deoxy-N,N-dimethyl-", "3\u2032-Amino-3\u2032-deoxy-N,N-dimethyladenosine", "SAN", "Stylomycin aminonucleoside", "Aminonucleoside", "Puromycin, aminonucleoside", "9-(3-Amino-3-deoxy-\u03b2-D-ribofuranosyl)-6-(dimethylamino)-9H-purine", "6-(Dimethylamino)-9-(3-amino-3-deoxy-\u03b2-D-ribofuranosyl)purine", "Aminonucleoside puromycin", "3\u2032-Amino-3\u2032-deoxy-N6,N6-dimethyladenosine", "6-Dimethylamino-9-(3-amino-3-deoxyribosyl)purine", "NSC 3056", "PANS"], "SMILES": "OC1C(N2C=3C(N=C2)=C(N(C)C)N=CN3)OC(CO)C1N", "physical_data": {"Molecular Weight": "294.31", "Molecular Formula": "C12H18N6O3", "Melting Point": "215-216 \u00b0C"}}