{"cas_no": "58-61-7", "cn_name": "\u817a\u82f7", "en_name": ["Adenosine", "Adenosine", "Adenine riboside", "9-\u03b2-D-Ribofuranosyladenine", "\u03b2-D-Adenosine", "9H-Purin-6-amine, 9-\u03b2-D-ribofuranosyl-", "\u03b2-D-Ribofuranose, 1-(6-amino-9H-purin-9-yl)-1-deoxy-", "\u03b2-D-Ribofuranoside, adenine-9", "\u03b2-Adenosine", "Boniton", "Myocol", "Nucleocardyl", "Sandesin", "Riboadenosine", "9-\u03b2-D-Ribofuranosyl-9H-purin-6-amine", "D-Adenosine", "Adenocard", "Adenoscan", "Adrekar", "Adenocor", "NSC 7652", "24: PN: WO2007053194 SEQID: 49 claimed sequence", "26: PN: WO2007053194 SEQID: 49 claimed sequence", "27: PN: WO2007053194 SEQID: 49 claimed sequence", "Adenogesic", "NQZ-012", "MeSH ID: D000241"], "SMILES": "OC1C(N2C=3C(N=C2)=C(N)N=CN3)OC(CO)C1O", "physical_data": {"Molecular Weight": "267.24", "Molecular Formula": "C10H13N5O4", "Melting Point": "235.5 \u00b0C"}}