{"cas_no": "58-73-1", "cn_name": "\u82ef\u6d77\u62c9\u660e", "en_name": ["Diphenhydramine", "Ethanamine, 2-(diphenylmethoxy)-N,N-dimethyl-", "Ethylamine, 2-(diphenylmethoxy)-N,N-dimethyl-", "2-(Diphenylmethoxy)-N,N-dimethylethanamine", "O-Benzhydryldimethylaminoethanol", "2-(Benzhydryloxy)-N,N-dimethylethylamine", "\u03b2-Dimethylaminoethanol diphenylmethyl ether", "\u03b1-(2-Dimethylaminoethoxy)diphenylmethane", "\u03b2-Dimethylaminoethylbenzhydrylether", "Diphenhydramine", "2-(Diphenylmethoxy)-N,N-dimethylethylamine", "Probedryl", "N-[2-(Diphenylmethoxy)ethyl]-N,N-dimethylamine", "Benzhydramine", "DPH", "Dimedrol base", "FAR 90X2", "NSC 665800", "N,N-Dimethyl-2-(diphenylmethoxy)ethylamine", "2-Benzhydryloxy-N,N-dimethylethanamine", "2-(Benzhydryloxy)-N,N-dimethylethanamine", "MeSH ID: D004155"], "SMILES": "C(OCCN(C)C)(C1=CC=CC=C1)C2=CC=CC=C2", "physical_data": {"Molecular Weight": "255.35", "Molecular Formula": "C17H21NO", "Boiling Point": "150-165 \u00b0C @ Press: 2.0 Torr", "Melting Point": "168 \u00b0C"}}