{"cas_no": "58-72-0", "cn_name": "\u4e09\u82ef\u4e59\u70ef", "en_name": ["Triphenylethylene", "Benzene, 1,1\u2032,1\u2032\u2032-(1-ethenyl-2-ylidene)tris-", "Ethylene, triphenyl-", "1,1\u2032,1\u2032\u2032-(1-Ethenyl-2-ylidene)tris[benzene]", "Triphenylethylene", "Triphenylethene", "1,1,2-Triphenylethylene", "Benzilidenediphenylmethane", "1,1,2-Triphenylethene", "NSC 17535", "Ethene-1,1,2-triyltribenzene", "1,2-Diphenylethenylbenzene"], "SMILES": "C(=CC1=CC=CC=C1)(C2=CC=CC=C2)C3=CC=CC=C3", "physical_data": {"Molecular Weight": "256.34", "Molecular Formula": "C20H16", "Boiling Point": "200-218 \u00b0C @ Press: 13 Torr", "Melting Point": "72.5 \u00b0C", "Density": "1.0719 g/cm\u00b3 @ Temp: 25 \u00b0C"}}