{"cas_no": "58-71-9", "cn_name": "\u5934\u5b62\u567b\u5429\u94a0", "en_name": ["Cephalothin sodium", "5-Thia-1-azabicyclo[4.2.0]oct-2-ene-2-carboxylic acid, 3-[(acetyloxy)methyl]-8-oxo-7-[[2-(2-thienyl)acetyl]amino]-, sodium salt (1:1), (6R,7R)-", "5-Thia-1-azabicyclo[4.2.0]oct-2-ene-2-carboxylic acid, 3-(hydroxymethyl)-8-oxo-7-[2-(2-thienyl)acetamido]-, acetate (ester), monosodium salt", "5-Thia-1-azabicyclo[4.2.0]oct-2-ene-2-carboxylic acid, 3-[(acetyloxy)methyl]-8-oxo-7-[(2-thienylacetyl)amino]-, monosodium salt, (6R-trans)-", "5-Thia-1-azabicyclo[4.2.0]oct-2-ene-2-carboxylic acid, 3-[(acetyloxy)methyl]-8-oxo-7-[(2-thienylacetyl)amino]-, monosodium salt, (6R,7R)-", "38253", "Cephalothin sodium", "Sodium cephalothin", "Sodium cephalotin", "Sodium 3-acetoxymethyl-7\u03b2-(2-thienylacetamido)ceph-3-em-4-carboxylate", "Sodium 7-(2-thienylacetamido)-3-acetoxymethyl-3-cephem-4-carboxylate", "Sodium (thienylacetamido)cephalosporanate", "Sodium 7-[2-(2-thienyl)acetamido]cephalosporanate", "Keflin", "Lilly 38253", "Microtin", "Cefalothine sodium", "Cefalothin sodium", "Cepovenin", "Ceporacin", "Seffin", "Cephalothin sodium salt", "Sodium cefalotin", "Synclotin", "Cephation", "Lospoven", "Coaxin", "Averon 1", "Toricelocin", "Cemastin"], "SMILES": "C(O)(=O)C=1N2C(C(NC(CC3=CC=CS3)=O)C2=O)SCC1COC(C)=O.[Na]", "physical_data": {"Molecular Weight": "", "Molecular Formula": "C16H16N2O6S2.Na", "Melting Point": "204.5 \u00b0C"}}