{"cas_no": "58-86-6", "cn_name": "D-\u6728\u7cd6", "en_name": ["(+)-Xylose", "D-Xylose", "Xylose, D-", "Xylose", "(+)-Xylose", "Wood sugar", "D-(+)-Xylose", "(2R,3S,4R)-2,3,4,5-Tetrahydroxypentanal"], "SMILES": "C(C(CO)O)(C(C=O)O)O", "physical_data": {"Molecular Weight": "150.13", "Molecular Formula": "C5H10O5", "Melting Point": "153-154 \u00b0C", "Density": "1.525 g/cm\u00b3 @ Temp: 20 \u00b0C"}}