{"cas_no": "58-89-9", "cn_name": "\u6797\u4e39(R-\u516d\u516d\u516d)", "en_name": ["Lindane", "Cyclohexane, 1,2,3,4,5,6-hexachloro-, (1\u03b1,2\u03b1,3\u03b2,4\u03b1,5\u03b1,6\u03b2)-", "Cyclohexane, 1,2,3,4,5,6-hexachloro-, \u03b3-", "(1\u03b1,2\u03b1,3\u03b2,4\u03b1,5\u03b1,6\u03b2)-1,2,3,4,5,6-Hexachlorocyclohexane", "Tri-6", "ENT 7,796", "Aficide", "Agrocide", "Agrocide III", "Agrocide WP", "Aparasin", "Aphtiria", "BBH", "Ben-Hex", "\u03b3-Benzene hexachloride", "Bexol", "BHC", "Gamma benzene hexachloride", "Gamma-HCH", "Gexane", "Hexachloran", "Hexachlorane", "\u03b3-1,2,3,4,5,6-Hexachlorocyclohexane", "\u03b3-Hexachlorocyclohexane", "HGI", "Jacutin", "Kwell", "Lindane", "\u03b3-Lindane", "Lorexane", "\u03b3-BHC", "Streunex", "Pedraczak", "TAP 85", "Gamacid", "Bentox 10", "HCH", "Lentox", "Lintox", "\u03b3-HCH", "Sang-gamma", "Gammexane", "Arbitex", "Kokotine", "Gammalin 20", "HCCH", "Lindatox", "Lidenal", "Gammalin", "Lendine", "Mszycol", "Nicochloran", "\u03b3-Hexachloran", "\u03b3-Hexachlorane", "\u03b3-Hexachlorobenzene", "1,2,3,4,5,6-Hexachlorocyclohexane", "Codechine", "Lindosep", "Hortex", "Hexachlorocyclohexane", "Entomoxan", "666", "DBH", "Hexyclan", "Omnitox", "Quellada", "Heclotox", "Dol Granule", "Owadziak", "Nexit", "Benzene hexachloride", "Ovadziak", "Aalindan", "Aplidal", "Ameisenmittel Merck", "Celanex", "Detmol Extract", "Drilltox-Spezial Aglukon", "Hexa", "Gammaterr", "Milbol 49", "Nexen FB", "Nexol E", "Pflanzol", "Spritz-Rapidin", "Spruehpflanzol", "Hexicide", "Neo-Scabicidol", "Chloresene", "Devoran", "Hexaverm", "Linvur", "Lindex", "HCC", "Forst-Nexen", "Hungaria L 7", "Fenoform forte", "Mglawik L", "\u03b3-666", "Geolin G 3", "Geobilan", "Hilbeech", "Verindal Ultra", "Benhexol", "Lasochron", "PLK (pesticide)", "Spritzlindane", "\u03b3-Benzohexachloride", "Hexatin", "Inexit", "Lintox 3", "Gamoline", "Nexit Stark", "Bercema-Spritz-Lindan 50", "BHC (insecticide)", "Gamacide 20", "Arcotal S", "Gamacide", "Kanodane", "Prodactif", "Viton", "Lindafor", "Esoderm", "Gamene", "Scabene", "Scabecid", "Gammaxene", "MeSH ID: D001556"], "SMILES": "ClC1C(Cl)C(Cl)C(Cl)C(Cl)C1Cl", "physical_data": {"Molecular Weight": "290.83", "Molecular Formula": "C6H6Cl6", "Boiling Point": "323.4 \u00b0C @ Press: 760 Torr", "Melting Point": "112.5 \u00b0C", "Density": "1.85 g/cm\u00b3"}}