{"cas_no": "58-93-5", "cn_name": "\u6c22\u6c2f\u567b\u55ea", "en_name": ["Hydrochlorothiazide", "2H-1,2,4-Benzothiadiazine-7-sulfonamide, 6-chloro-3,4-dihydro-, 1,1-dioxide", "Su 5879", "Aquarius", "6-Chloro-3,4-dihydro-2H-1,2,4-benzothiadiazine-7-sulfonamide 1,1-dioxide", "6-Chloro-3,4-dihydro-7-sulfamoyl-2H-1,2,4-benzothiadiazine 1,1-dioxide", "6-Chloro-7-sulfamoyl-3,4-dihydro-2H-1,2,4-benzothiadiazine 1,1-dioxide", "Chlorosulthiadil", "Dichlotride", "Diclotride", "Dihydrochlorothiazide", "3,4-Dihydrochlorothiazide", "Esidrex", "Esidrix", "HCTZ", "HCZ", "Hydril", "Hydrochlorothiazide", "Hydro-Diuril", "Hydrosaluric", "Hypothiazid", "Hypothiazide", "Oretic", "Vetidrex", "Hypothiazide (C7H8ClN3O4S2)", "Nefrix", "Hydrochlorthiazide", "6-Chloro-7-sulfamoyl-3,4-dihydrobenzo-1,2,4-thiadiazine-1,1-dioxide", "Hydrochlorothiazid", "Dihydrochlorothiazidum", "Dichlotiazid", "Disalunil", "Hidril", "Hidrochlortiazid", "Idrotiazide", "Drenol", "Megadiuril", "Hydro-Aquil", "Hidrotiazida", "Hydrodiuretic", "Dihydrochlorurite", "Dihydrochlorurit", "Microzide", "Hidrenox", "Nefrol", "Neoflumen", "Dichlozid", "Diuret-P", "Newtolide", "Hidrosaluretil", "Apo-Hydro", "Natrimax", "Dichlothiazide", "Servithiazid", "Urirex", "Tandiur", "Hydro-T", "Hydrex-semi", "HCT", "Didralin", "Hydro Par", "Carozide", "Idrodiuvis", "Hydrozide", "Hydrochlorzide", "Manschitt", "Zide", "Hydrocot", "Diurizid", "Aquazide H", "Clothia", "Maschitt", "Disothiazide", "Diurex", "Hydrex", "Pantemon", "Chlorsulthiadil", "Acuretic", "Ziac", "Lotensin HCT", "Caplaril", "HH 25/25", "Thiuretic", "Unipres", "HH 50/50", "Timolide", "Lopressor HCT", "Apresazide", "NSC 53477", "Aquazide", "Clorana", "Trilopace H", "MeSH ID: D006852"], "SMILES": "O=S1(=O)C=2C(=CC(Cl)=C(S(N)(=O)=O)C2)NCN1", "physical_data": {"Molecular Weight": "297.74", "Molecular Formula": "C7H8ClN3O4S2", "Melting Point": "273-275 \u00b0C"}}