{"cas_no": "58-90-2", "cn_name": "2,3,4,6-\u56db\u6c2f\u82ef\u915a", "en_name": ["2,3,4,6-Tetrachlorophenol", "Phenol, 2,3,4,6-tetrachloro-", "2,3,4,6-Tetrachlorophenol", "Dowicide 6", "TCP", "2,4,5,6-Tetrachlorophenol", "2,3,4,6-Tetrachlorophenate", "NSC 2428"], "SMILES": "ClC1=C(Cl)C(O)=C(Cl)C=C1Cl", "physical_data": {"Molecular Weight": "231.89", "Molecular Formula": "C6H2Cl4O", "Boiling Point": "64 \u00b0C @ Press: 23 Torr", "Melting Point": "70 \u00b0C", "Density": "1.839 g/cm\u00b3 @ Temp: 25 \u00b0C"}}