{"cas_no": "58-94-6", "cn_name": "\u6c2f\u567b\u55ea", "en_name": ["Chlorothiazide", "2H-1,2,4-Benzothiadiazine-7-sulfonamide, 6-chloro-, 1,1-dioxide", "Alurene", "6-Chloro-2H-1,2,4-benzothiadiazine-7-sulfonamide 1,1-dioxide", "6-Chloro-7-sulfamoyl-2H-1,2,4-benzothiadiazine 1,1-dioxide", "Chlorothiazide", "Chlorthiazide", "Chlotride", "Diuresal", "Diurilix", "Diutrid", "Minzil", "Neo-Dema", "Salisan", "Saluretil", "Saluric", "Yadalan", "Chlorurit", "Diuril", "6-Chloro-7-sulfamyl-1,2,4-benzothiadiazine 1,1-dioxide", "Chlorosal", "Clotride", "Diurite", "Flumen", "Salunil", "Warduzide", "Urinex", "Chlorothiazid", "Thiazide", "Diuril Boluses", "NSC 25693", "MeSH ID: D002740"], "SMILES": "O=S1(=O)C=2C(=CC(Cl)=C(S(N)(=O)=O)C2)NC=N1", "physical_data": {"Molecular Weight": "295.72", "Molecular Formula": "C7H6ClN3O4S2", "Melting Point": "342.5-343 \u00b0C (decomp)"}}