{"cas_no": "58-95-7", "cn_name": "D-alpha-\u751f\u80b2\u915a\u918b\u9178\u916f", "en_name": ["Tocopheryl acetate", "2H-1-Benzopyran-6-ol, 3,4-dihydro-2,5,7,8-tetramethyl-2-[(4R,8R)-4,8,12-trimethyltridecyl]-, 6-acetate, (2R)-", "6-Chromanol, 2,5,7,8-tetramethyl-2-(4,8,12-trimethyltridecyl)-, acetate, (+)-", "2H-1-Benzopyran-6-ol, 3,4-dihydro-2,5,7,8-tetramethyl-2-(4,8,12-trimethyltridecyl)-, acetate, [2R-[2R*(4R*,8R*)]]-", "\u03b1-Tocopherol acetate", "Vitamin E acetate", "2H-1-Benzopyran-6-ol, 3,4-dihydro-2,5,7,8-tetramethyl-2-[(4R,8R)-4,8,12-trimethyltridecyl]-, acetate, (2R)-", "(+)-\u03b1-Tocopherol acetate", "d-\u03b1-Tocopheryl acetate", "(+)-\u03b1-Tocopheryl acetate", "\u03b1-Tocopheryl acetate", "d-\u03b1-Tocopherol acetate", "2,5,7,8-Tetramethyl-2-(4,8,12-trimethyltridecyl)-6-chromanol acetate", "Tocophrin", "Fertilvit", "Endo E Dompe", "Gevex", "Alfacol", "Epsilan-M", "E-Toplex", "Evipherol", "Econ", "E-Ferol", "Tocopherex", "Tofaxin", "Ephynal acetate", "Contopheron", "Ecofrol", "Tokoferol acetate", "Combinal E", "Erevit", "(2R,4\u2032R,8\u2032R)-\u03b1-Tocopheryl acetate", "(R,R,R)-\u03b1-Tocopheryl acetate", "Vitamin E\u03b1 acetate", "(2R,4\u2032R,8\u2032R)-\u03b1-Tocopherol acetate", "D-\u03b1-Tocopherol acetate", "Covitol 1360", "Tocopheryl acetate", "Copherol 1250", "Tocopherol acetate", "Copherol 12250", "D-\u03b1-Tocopheryl acetate", "Covitol 1100", "d-Vitamin E acetate", "E-Vicotrat", "Spondyvit", "Tinoderm E", "Nanotopes", "Lutavit E 50", "Covitol", "E 230 Clear", "Vitamin E 230 Clear", "NatAc", "Natur-E granulate", "Covitol 700WD", "Covitol 700", "Copherol F 1250C", "T-3376", "Evicup", "Vitapherol", "Riken E Acetate \u03b1", "D-Alpha-tocopheryl acetate", "Onynex potassium", "Onynex K", "VEA Olio"], "SMILES": "CC1=C2C(=C(C)C(OC(C)=O)=C1C)CCC(CCCC(CCCC(CCCC(C)C)C)C)(C)O2", "physical_data": {"Molecular Weight": "472.74", "Molecular Formula": "C31H52O3", "Boiling Point": "224 \u00b0C @ Press: 0.3 Torr", "Melting Point": "-27.5 \u00b0C", "Density": "0.9533 g/cm\u00b3 @ Temp: 21.34 \u00b0C"}}