{"cas_no": "58-96-8", "cn_name": "\u5c3f\u82f7", "en_name": ["Uridine", "Uridine", "Uracil, 1-\u03b2-D-ribofuranosyl-", "\u03b2-D-Ribofuranoside, 2,4(1H,3H)-pyrimidinedione-1", "\u03b2-Uridine", "1-\u03b2-D-Ribofuranosyluracil", "Uridin", "1-\u03b2-D-Ribofuranosyl-2,4(1H,3H)-pyrimidinedione", "NSC 20256", "22: PN: EP3882361 SEQID: 22 claimed sequence", "10: PN: WO2022247943 SEQID: 62 claimed sequence", "MeSH ID: D014529"], "SMILES": "OC1C(OC(CO)C1O)N2C(=O)NC(=O)C=C2", "physical_data": {"Molecular Weight": "244.20", "Molecular Formula": "C9H12N2O6", "Melting Point": "165 \u00b0C"}}