{"cas_no": "58-97-9", "cn_name": "\u5c3f\u82f75-\u5355\u78f7\u9178", "en_name": ["5\u2032-UMP", "5\u2032-Uridylic acid", "Uridylic acid", "UMP", "5\u2032-UMP", "Uridine 5\u2032-monophosphate", "Uridine monophosphate", "Uridine 5\u2032-phosphate", "Uridine 5\u2032-phosphoric acid", "Uridine, mono(dihydrogen phosphate) (ester)", "Uridine, 5\u2032-(dihydrogen phosphate)", "Uridine phosphate", "Uridine 5\u2032-(dihydrogen phosphate)", "UMP (nucleic acid)", "MeSH ID: D014542"], "SMILES": "OC1C(OC(COP(=O)(O)O)C1O)N2C(=O)NC(=O)C=C2", "physical_data": {"Molecular Weight": "324.18", "Molecular Formula": "C9H13N2O9P", "Melting Point": "202 \u00b0C (decomp)"}}