{"cas_no": "580-13-2", "cn_name": "2-\u6eb4\u8418", "en_name": ["2-Bromonaphthalene", "Naphthalene, 2-bromo-", "2-Bromonaphthalene", "\u03b2-Bromonaphthalene", "\u03b2-Naphthyl bromide", "2-Naphthyl bromide", "NSC 4011"], "SMILES": "BrC1=CC2=C(C=C1)C=CC=C2", "physical_data": {"Molecular Weight": "207.07", "Molecular Formula": "C10H7Br", "Boiling Point": "281.5 \u00b0C", "Melting Point": "59 \u00b0C"}}