{"cas_no": "580-72-3", "cn_name": "\u7f57\u6c49\u677e\u8102\u7d20", "en_name": ["(-)-Matairesinol", "2(3H)-Furanone, dihydro-3,4-bis[(4-hydroxy-3-methoxyphenyl)methyl]-, (3R,4R)-", "2(3H)-Furanone, dihydro-3,4-divanillyl-", "Matairesinol", "2(3H)-Furanone, dihydro-3,4-bis[(4-hydroxy-3-methoxyphenyl)methyl]-, (3R-trans)-", "(3R,4R)-Dihydro-3,4-bis[(4-hydroxy-3-methoxyphenyl)methyl]-2(3H)-furanone", "(-)-Matairesinol", "(8R,8\u2032R)-(-)-Matairesinol"], "SMILES": "C(C1C(CC2=CC(OC)=C(O)C=C2)C(=O)OC1)C3=CC(OC)=C(O)C=C3", "physical_data": {"Molecular Weight": "358.39", "Molecular Formula": "C20H22O6", "Melting Point": "119 \u00b0C"}}