{"cas_no": "580-16-5", "cn_name": "6-\u7f9f\u57fa\u55b9\u5549", "en_name": ["6-Hydroxyquinoline", "6-Quinolinol", "6-Hydroxyquinoline", "1H-1,6-Epoxyquinoline", "NSC 26343"], "SMILES": "OC1=CC2=C(C=C1)N=CC=C2", "physical_data": {"Molecular Weight": "145.16", "Molecular Formula": "C9H7NO", "Boiling Point": "360 \u00b0C", "Melting Point": "195 \u00b0C"}}