{"cas_no": "580-22-3", "cn_name": "2-\u6c28\u57fa\u55b9\u5549", "en_name": ["2-Aminoquinoline", "2-Quinolinamine", "Quinoline, 2-amino-", "Quinoline, 1,2-dihydro-2-imino-", "2-Aminoquinoline", "2-Quinolinylamine", "NSC 57739", "NSC 58387"], "SMILES": "NC1=NC2=C(C=C1)C=CC=C2", "physical_data": {"Molecular Weight": "144.17", "Molecular Formula": "C9H8N2", "Melting Point": "131.5 \u00b0C"}}