{"cas_no": "580-18-7", "cn_name": "3-\u7f9f\u57fa\u55b9\u5549", "en_name": ["3-Hydroxyquinoline", "3-Quinolinol", "3-Hydroxyquinoline", "3-Quinolol"], "SMILES": "OC1=CC2=C(N=C1)C=CC=C2", "physical_data": {"Molecular Weight": "145.16", "Molecular Formula": "C9H7NO", "Melting Point": "198 \u00b0C"}}