{"cas_no": "580-19-8", "cn_name": "7-\u6c28\u57fa\u55b9\u5549", "en_name": ["7-Aminoquinoline", "7-Quinolinamine", "Quinoline, 7-amino-", "7-Aminoquinoline", "7-Quinolylamine", "NSC 58389", "(Quinolin-7-yl)amine"], "SMILES": "NC1=CC2=C(C=C1)C=CC=N2", "physical_data": {"Molecular Weight": "144.17", "Molecular Formula": "C9H8N2", "Melting Point": "93.5-94 \u00b0C"}}