{"cas_no": "580-20-1", "cn_name": "7-\u7f9f\u57fa\u55b9\u5549", "en_name": ["7-Hydroxyquinoline", "7-Quinolinol", "7-Hydroxyquinoline", "NSC 87630"], "SMILES": "OC1=CC2=C(C=C1)C=CC=N2", "physical_data": {"Molecular Weight": "145.16", "Molecular Formula": "C9H7NO", "Melting Point": "239 \u00b0C"}}