{"cas_no": "580-51-8", "cn_name": "\u95f4\u7f9f\u57fa\u8054\u82ef", "en_name": ["3-Phenylphenol", "[1,1\u2032-Biphenyl]-3-ol", "3-Biphenylol", "Phenol, m-phenyl-", "3-Phenylphenol", "m-Hydroxydiphenyl", "3-Hydroxybiphenyl", "m-Hydroxybiphenyl", "m-Phenylphenol", "m-Biphenylol", "NSC 17588"], "SMILES": "OC=1C=C(C=CC1)C2=CC=CC=C2", "physical_data": {"Molecular Weight": "170.21", "Molecular Formula": "C12H10O", "Boiling Point": "&gt;300 \u00b0C", "Melting Point": "78 \u00b0C"}}