{"cas_no": "580-15-4", "cn_name": "6-\u6c28\u57fa\u55b9\u5549", "en_name": ["6-Aminoquinoline", "6-Quinolinamine", "Quinoline, 6-amino-", "6-Aminoquinoline", "(Quinolin-6-yl)amine", "NSC 58388", "6-Quinolylamine", "Quinolin-6-amine"], "SMILES": "NC1=CC2=C(C=C1)N=CC=C2", "physical_data": {"Molecular Weight": "144.17", "Molecular Formula": "C9H8N2", "Boiling Point": "187 \u00b0C", "Melting Point": "114 \u00b0C"}}