{"cas_no": "580-02-9", "cn_name": "\u4e59\u9170\u6c34\u6768\u9178\u7532\u916f", "en_name": ["Methyl 2-acetoxybenzoate", "Benzoic acid, 2-(acetyloxy)-, methyl ester", "Salicylic acid acetate, methyl ester", "Salicylic acid, methyl ester, acetate", "Acetylsalicylic acid, methyl ester", "Methyl acetylsalicylate", "Methyl aspirin", "Methyl rhodin", "Methylrhodine", "Methyl O-acetylsalicylate", "Methyl o-acetoxybenzoate", "Aspirin methyl ester", "Methyl 2-acetoxybenzoate", "NSC 403847"], "SMILES": "O(C(C)=O)C1=C(C(OC)=O)C=CC=C1", "physical_data": {"Molecular Weight": "194.18", "Molecular Formula": "C10H10O4", "Boiling Point": "122 \u00b0C @ Press: 7 Torr", "Melting Point": "51.5 \u00b0C"}}