{"cas_no": "580-17-6", "cn_name": "3-\u6c28\u57fa\u55b9\u5549", "en_name": ["3-Aminoquinoline", "3-Quinolinamine", "Quinoline, 3-amino-", "3-Aminoquinoline", "3-Quinolylamine", "(Quinolin-3-yl)amine", "NSC 7934", "Quinolin-3-amine"], "SMILES": "NC1=CC2=C(N=C1)C=CC=C2", "physical_data": {"Molecular Weight": "144.17", "Molecular Formula": "C9H8N2", "Boiling Point": "127-137 \u00b0C @ Press: 0.1 Torr", "Melting Point": "91.5 \u00b0C"}}