{"cas_no": "58016-28-7", "cn_name": "2,4-\u4e8c\u7f9f\u57fa-6-\u620a\u57fa\u82ef\u7532\u9178\u7532\u916f", "en_name": ["Methyl olivetolate", "Benzoic acid, 2,4-dihydroxy-6-pentyl-, methyl ester", "Olivetolcarboxylic acid, methyl ether", "Methyl 2,4-dihydroxy-6-pentylbenzoate", "Methyl olivetolate", "(6-Pentyl-2,4-dihydroxybenzoic acid methyl ester"], "SMILES": "C(OC)(=O)C1=C(CCCCC)C=C(O)C=C1O", "physical_data": {"Molecular Weight": "238.28", "Molecular Formula": "C13H18O4", "Melting Point": "105-106 \u00b0C"}}