{"cas_no": "58011-68-0", "cn_name": "\u82c4\u8349\u5511", "en_name": ["Pyrazolate", "Methanone, (2,4-dichlorophenyl)[1,3-dimethyl-5-[[(4-methylphenyl)sulfonyl]oxy]-1H-pyrazol-4-yl]-", "(2,4-Dichlorophenyl)[1,3-dimethyl-5-[[(4-methylphenyl)sulfonyl]oxy]-1H-pyrazol-4-yl]methanone", "SW 751", "Pyrazolate", "A 544", "Sanbird", "H 468T", "Pyrazolynate"], "SMILES": "C(=O)(C1=C(OS(=O)(=O)C2=CC=C(C)C=C2)N(C)N=C1C)C3=C(Cl)C=C(Cl)C=C3", "physical_data": {"Molecular Weight": "439.31", "Molecular Formula": "C19H16Cl2N2O4S", "Melting Point": "118 \u00b0C"}}