{"cas_no": "5802-60-8", "cn_name": "1,1-\u4e8c\u82c4\u80bc", "en_name": ["1,1-Bis(phenylmethyl)hydrazine", "Hydrazine, 1,1-bis(phenylmethyl)-", "Hydrazine, 1,1-dibenzyl-", "1,1-Bis(phenylmethyl)hydrazine", "1,1-Dibenzylhydrazine", "N,N-Dibenzylhydrazine"], "SMILES": "C(N(CC1=CC=CC=C1)N)C2=CC=CC=C2", "physical_data": {"Molecular Weight": "212.29", "Molecular Formula": "C14H16N2", "Boiling Point": "145 \u00b0C @ Press: 1 Torr", "Melting Point": "65 \u00b0C"}}