{"cas_no": "5802-82-4", "cn_name": "\u8721\u9178\u7532\u916fC26", "en_name": ["Methyl hexacosanoate", "Hexacosanoic acid, methyl ester", "Methyl hexacosanoate", "Methyl n-hexacosanoate", "Cerotic acid, methyl ester", "Methyl cerotate", "C26:0 FAME"], "SMILES": "C(CCCCCCCCCCCCCCCCCC)CCCCCCC(OC)=O", "physical_data": {"Molecular Weight": "410.72", "Molecular Formula": "C27H54O2", "Melting Point": "63.8 \u00b0C"}}