{"cas_no": "5803-30-5", "cn_name": "2,5-\u4e8c\u7532\u6c27\u57fa\u82ef\u4e19\u916e", "en_name": ["1-(2,5-Dimethoxyphenyl)-1-propanone", "1-Propanone, 1-(2,5-dimethoxyphenyl)-", "Propiophenone, 2\u2032,5\u2032-dimethoxy-", "1-(2,5-Dimethoxyphenyl)-1-propanone", "2\u2032,5\u2032-Dimethoxypropiophenone", "1-(2,5-Dimethoxyphenyl)propanone"], "SMILES": "C(CC)(=O)C1=C(OC)C=CC(OC)=C1", "physical_data": {"Molecular Weight": "194.23", "Molecular Formula": "C11H14O3", "Boiling Point": "167-169 \u00b0C @ Press: 13 Torr"}}