{"cas_no": "5804-73-9", "cn_name": "5-\u4e59\u9170\u6c28\u57fa-2-\u7532\u6c27\u57fa\u82ef\u78fa\u9170\u6c2f", "en_name": ["5-(Acetylamino)-2-methoxybenzenesulfonyl chloride", "Benzenesulfonyl chloride, 5-(acetylamino)-2-methoxy-", "Metanilyl chloride, N-acetyl-6-methoxy-", "5-(Acetylamino)-2-methoxybenzenesulfonyl chloride", "NSC 160918", "2-Methoxy-5-acetylaminobenzenesulfonyl chloride"], "SMILES": "S(Cl)(=O)(=O)C1=C(OC)C=CC(NC(C)=O)=C1", "physical_data": {"Molecular Weight": "263.70", "Molecular Formula": "C9H10ClNO4S", "Melting Point": "149-151 \u00b0C"}}