{"cas_no": "5805-57-2", "cn_name": "(1H-\u82ef\u5e76\u54aa\u5511-2-\u4e9a\u7532\u57fa)\u80fa", "en_name": ["1H-Benzimidazole-2-methanamine", "1H-Benzimidazole-2-methanamine", "Benzimidazole, 2-(aminomethyl)-", "2-Aminomethylbenzimidazole", "2-Benzimidazolylmethylamine", "C-(1H-Benzimidazol-2-yl)methylamine", "1-(1H-Benzimidazol-2-yl)methanamine", "[(1H-Benzimidazol-2-yl)methyl]amine", "(1H-Benzimidazol-2-yl)methanamine", "1H-1,3-Benzodiazol-2-ylmethanamine", "(1H-Benzo[d]imidazol-2-yl)methanamine"], "SMILES": "C(N)C=1NC=2C(N1)=CC=CC2", "physical_data": {"Molecular Weight": "147.18", "Molecular Formula": "C8H9N3", "Melting Point": "101.5 \u00b0C"}}