{"cas_no": "58051-98-2", "cn_name": "\u5206\u6563\u7ea2 177", "en_name": ["3-[[2-(Acetyloxy)ethyl][4-[2-(6-nitro-2-benzothiazolyl)diazenyl]phenyl]amino]propanenitrile", "Propanenitrile, 3-[[2-(acetyloxy)ethyl][4-[2-(6-nitro-2-benzothiazolyl)diazenyl]phenyl]amino]-", "Propanenitrile, 3-[[2-(acetyloxy)ethyl][4-[(6-nitro-2-benzothiazolyl)azo]phenyl]amino]-", "Propionitrile, 3-[N-(2-hydroxyethyl)-p-[(6-nitro-2-benzothiazolyl)azo]anilino]-, acetate", "3-[[2-(Acetyloxy)ethyl][4-[2-(6-nitro-2-benzothiazolyl)diazenyl]phenyl]amino]propanenitrile", "C.I. 11122", "C.I. Disperse Red 177", "Resolin Red FRL", "Serilene Red R-LS", "Disperse Red 177", "Disperse Red FRL"], "SMILES": "N(=NC1=CC=C(N(CCOC(C)=O)CCC#N)C=C1)C=2SC=3C(N2)=CC=C(N(=O)=O)C3", "physical_data": {"Molecular Weight": "438.46", "Molecular Formula": "C20H18N6O4S", "Melting Point": "167 \u00b0C"}}