{"cas_no": "5805-39-0", "cn_name": "2-(2-\u6c28\u57fa\u82ef\u57fa)\u82ef\u5e76\u54aa\u5511", "en_name": ["2-(2-Aminophenyl)benzimidazole", "Benzenamine, 2-(1H-benzimidazol-2-yl)-", "Benzimidazole, 2-(o-aminophenyl)-", "2-(1H-Benzimidazol-2-yl)benzenamine", "2-(o-Aminophenyl)benzimidazole", "2-(2-Aminophenyl)benzimidazole", "G 620", "G 620 (amine)", "2-(2-Aminophenyl)-1H-benzimidazole", "2-[Benzimidazol-2-yl]benzenamine", "2-(1H-Benzimidazol-2-yl)aniline", "2-(1H-1,3-Benzodiazol-2-yl)aniline", "2-(1H-Benzoimidazol-2-yl)-phenylamine"], "SMILES": "NC1=C(C=2NC=3C(N2)=CC=CC3)C=CC=C1", "physical_data": {"Molecular Weight": "209.25", "Molecular Formula": "C13H11N3", "Melting Point": "213-214 \u00b0C"}}