{"cas_no": "5805-76-5", "cn_name": "N-\u4e59\u57fa-2-\u7532\u57fa\u82ef\u5e76\u54aa\u5511", "en_name": ["1-Ethyl-2-methyl-1H-benzimidazole", "1H-Benzimidazole, 1-ethyl-2-methyl-", "Benzimidazole, 1-ethyl-2-methyl-", "1-Ethyl-2-methyl-1H-benzimidazole", "1-Ethyl-2-methylbenzimidazole", "NSC 93793", "1-Ethyl-2-methyl-1H-benzo[d]imidazole", "1-Ethyl-2-methyl-1H-1,3-benzodiazole"], "SMILES": "C(C)N1C=2C(N=C1C)=CC=CC2", "physical_data": {"Molecular Weight": "160.22", "Molecular Formula": "C10H12N2", "Boiling Point": "296 \u00b0C", "Melting Point": "51 \u00b0C"}}