{"cas_no": "58066-85-6", "cn_name": "\u7c73\u66ff\u798f\u65b0", "en_name": ["Miltefosine", "Ethanaminium, 2-[[(hexadecyloxy)hydroxyphosphinyl]oxy]-N,N,N-trimethyl-, inner salt", "Choline phosphate, hexadecyl ester, hydroxide, inner salt", "n-Hexadecylphosphorylcholine", "Hexadecylphosphocholine", "Hexadecylphosphorylcholine", "D 18506", "Miltefosine", "n-Hexadecylphosphocholine", "Miltex", "HPC", "NSC 605583", "Fos-choline 16", "Impavido", "Miltefos"], "SMILES": "O(P(OCC[N+](C)(C)C)(=O)[O-])CCCCCCCCCCCCCCCC", "physical_data": {"Molecular Weight": "", "Molecular Formula": "C21H46NO4P", "Melting Point": "232-234 \u00b0C (decomp)"}}