{"cas_no": "58068-97-6", "cn_name": "N-[3-(\u4e09\u4e59\u6c27\u7845\u70f7\u57fa)\u4e19\u57fa]-4,5-\u53cc\u6c22\u54aa\u5511", "en_name": ["N-[3-(Triethoxysilyl)propyl]-4,5-dihydroimidazole", "1H-Imidazole, 4,5-dihydro-1-[3-(triethoxysilyl)propyl]-", "4,5-Dihydro-1-[3-(triethoxysilyl)propyl]-1H-imidazole", "3-(Triethoxysilylpropyl)imidazoline", "Dynasylan IMEO", "N-[3-(Triethoxysilyl)propyl]-4,5-dihydroimidazole", "[3-(2-Imidazolin-1-yl)propyl]triethoxysilane", "Triethoxy(3-(2-imidazolin-1-yl)propyl)silane", "3-(4,5-Dihydroimidazol-1-yl)propyltriethoxysilane", "1-[3-(Triethoxysilyl)propyl]-2-imidazoline", "[3-(4,5-Dihydro-1H-imidazol-1-yl)propyl]triethoxysilane", "Triethoxy[3-(4,5-dihydro-1H-imidazol-1-yl)propyl]silane", "1-[3-(Triethoxysilyl)propyl]-4,5-dihydro-1H-imidazole", "SIT 8187.5"], "SMILES": "[Si](CCCN1CCN=C1)(OCC)(OCC)OCC", "physical_data": {"Molecular Weight": "274.43", "Molecular Formula": "C12H26N2O3Si", "Boiling Point": "134 \u00b0C @ Press: 2 Torr", "Density": "1.005 g/cm\u00b3"}}