{"cas_no": "5807-02-3", "cn_name": "\u5417\u5549\u57fa\u4e59\u8148", "en_name": ["4-Morpholineacetonitrile", "4-Morpholineacetonitrile", "N-(Cyanomethyl)morpholine", "Morpholinoacetonitrile", "NSC 14518", "NSC 47256", "2-Morpholinoacetonitrile", "2-(Morpholin-4-yl)acetonitrile", "2-Morpholin-4-ylacetonitrile"], "SMILES": "C(C#N)N1CCOCC1", "physical_data": {"Molecular Weight": "126.16", "Molecular Formula": "C6H10N2O", "Boiling Point": "78 \u00b0C @ Press: 2 Torr", "Melting Point": "60-61 \u00b0C"}}