{"cas_no": "5807-30-7", "cn_name": "3,4-\u4e8c\u6c2f\u82ef\u4e59\u9178", "en_name": ["3,4-Dichlorophenylacetic acid", "Benzeneacetic acid, 3,4-dichloro-", "Acetic acid, (3,4-dichlorophenyl)-", "3,4-Dichlorobenzeneacetic acid", "3,4-Dichlorophenylacetic acid", "NSC 132186", "2-(3,4-Dichlorophenyl)acetic acid"], "SMILES": "C(C(O)=O)C1=CC(Cl)=C(Cl)C=C1", "physical_data": {"Molecular Weight": "205.04", "Molecular Formula": "C8H6Cl2O2", "Melting Point": "82-82.5 \u00b0C"}}