{"cas_no": "5807-14-7", "cn_name": "1 5 7-\u4e09\u53e0\u6c2e\u53cc\u73af(4.4.0)\u7678-5-\u70ef", "en_name": ["1,5,7-Triazabicyclo[4.4.0]dec-5-ene", "2H-Pyrimido[1,2-a]pyrimidine, 1,3,4,6,7,8-hexahydro-", "2H-Pyrimido[1,2-a]pyrimidine, 3,4,6,7,8,9-hexahydro-", "1,3,4,6,7,8-Hexahydro-2H-pyrimido[1,2-a]pyrimidine", "1,5,9-Triazabicyclo[4.4.0]dec-9-ene", "1,5,7-Triazabicyclo[4.4.0]dec-5-ene", "2,3,4,6,7,8-Hexahydro-1H-pyrimido[1,2-a]pyrimidine", "1,5,7-Triazabicyclo[4.4.0]deca-5-ene", "TBD", "1H,2H,3H,4H,6H,7H,8H-[1,3]Diazino[1,2-a]pyrimidine", "Triazabicyclodecene", "3,4,6,7,8,9-Hexahydro-2H-pyrimido[1,2-a]pyrimidine"], "SMILES": "C=12N(CCCN1)CCCN2", "physical_data": {"Molecular Weight": "139.20", "Molecular Formula": "C7H13N3", "Melting Point": "109-111 \u00b0C"}}