{"cas_no": "58086-67-2", "cn_name": "2-\u6c1f-1-\u7532\u57fa\u5421\u5576\u7fc1\u5bf9\u7532\u82ef\u78fa\u9178\u76d0", "en_name": ["2-Fluoro-1-methylpyridinium p-toluenesulfonate", "Pyridinium, 2-fluoro-1-methyl-, 4-methylbenzenesulfonate (1:1)", "Pyridinium, 2-fluoro-1-methyl-, salt with 4-methylbenzenesulfonic acid (1:1)", "2-Fluoro-1-methylpyridinium tosylate", "2-Fluoro-1-methylpyridinium p-toluenesulfonate", "2-Fluoro-N-methylpyridinium tosylate", "1-Methyl-2-fluoropyridinium tosylate", "2-Fluoro-1-methylpyridinium toluene-4-sulfonate"], "SMILES": "S(=O)(=O)([O-])C1=CC=C(C)C=C1.FC=1[N+](C)=CC=CC1", "physical_data": {"Molecular Weight": "", "Molecular Formula": "C7H7O3S.C6H7FN", "Melting Point": "130-134 \u00b0C"}}