{"cas_no": "5809-23-4", "cn_name": "4-\u4e8c\u4e59\u6c28\u57fa\u916e\u9178", "en_name": ["2-[4-(Diethylamino)-2-hydroxybenzoyl]benzoic acid", "Benzoic acid, 2-[4-(diethylamino)-2-hydroxybenzoyl]-", "Benzoic acid, o-[4-(diethylamino)salicyloyl]-", "2-[4-(Diethylamino)-2-hydroxybenzoyl]benzoic acid", "o-[2-Hydroxy-4-(diethylamino)benzoyl]benzoic acid", "2\u2032-Carboxy-4-(diethylamino)-2-hydroxybenzophenone", "4-(Diethylamino)-2-hydroxy-2\u2032-carboxybenzophenone", "o-[4-(Diethylamino)-2-hydroxybenzoyl]benzoic acid", "1-(2-Carboxybenzoyl)-4-(diethylamino)-2-hydroxybenzene", "2-[2-Hydroxy-4-(diethylamino)benzoyl]benzoic acid", "4-(2-Carboxybenzoyl)-N,N-diethyl-3-hydroxyaniline", "2-Hydroxy-4-(diethylamino)-2\u2032-carboxybenzophenone", "4-N,N-Diethylamino-2-hydroxy-2\u2032-carboxybenzophenone", "NSC 625797", "2-Carboxyl-4\u2032-diethylamino-2\u2032-hydroxybenzophenone", "2-(4-N,N-Diethylamino-2-hydroxybenzoyl)-benzoic acid"], "SMILES": "C(=O)(C1=C(C(O)=O)C=CC=C1)C2=C(O)C=C(N(CC)CC)C=C2", "physical_data": {"Molecular Weight": "313.35", "Molecular Formula": "C18H19NO4", "Melting Point": "205-207 \u00b0C"}}