{"cas_no": "581-42-0", "cn_name": "2,6-\u4e8c\u7532\u57fa\u8418", "en_name": ["2,6-Dimethylnaphthalene", "Naphthalene, 2,6-dimethyl-", "2,6-Dimethylnaphthalene", "NSC 36852"], "SMILES": "CC1=CC2=C(C=C(C)C=C2)C=C1", "physical_data": {"Molecular Weight": "156.22", "Molecular Formula": "C12H12", "Boiling Point": "262 \u00b0C", "Melting Point": "112 \u00b0C"}}