{"cas_no": "581-50-0", "cn_name": "2,3'-\u8054\u5421\u5576", "en_name": ["2,3\u2032-Bipyridine", "2,3\u2032-Bipyridine", "2,3\u2032-Dipyridyl", "\u03b1,\u03b2-Bipyridine", "2,3\u2032-Bipyridyl", "\u03b1,\u03b2-Dipyridyl", "2,3\u2032-Dipyridine", "Isonicoteine", "2-(3-Pyridyl)pyridine", "2-(3-Pyridinyl)pyridine", "3-(2-Pyridyl)pyridine"], "SMILES": "C=1(C=CC=NC1)C2=CC=CC=N2", "physical_data": {"Molecular Weight": "156.18", "Molecular Formula": "C10H8N2", "Boiling Point": "295.5 \u00b0C", "Melting Point": "30-32 \u00b0C", "Density": "1.0984 g/cm\u00b3 @ Temp: 20 \u00b0C"}}