{"cas_no": "581-49-7", "cn_name": "(S)-(-)-\u65b0\u70df\u8349\u78b1", "en_name": ["(-)-Anatabine", "2,3\u2032-Bipyridine, 1,2,3,6-tetrahydro-, (2S)-", "Anatabine", "2,3\u2032-Bipyridine, 1,2,3,6-tetrahydro-, (S)-", "(2S)-1,2,3,6-Tetrahydro-2,3\u2032-bipyridine", "Anatabine, (-)-", "(-)-Anatabine", "(S)-(-)-Anatabine", "(S)-Anatabine", "3-[(2S)-1,2,3,6-Tetrahydropyridin-2-yl]pyridine"], "SMILES": "C=1(C=CC=NC1)C2CC=CCN2", "physical_data": {"Molecular Weight": "160.22", "Molecular Formula": "C10H12N2", "Boiling Point": "145.5 \u00b0C"}}