{"cas_no": "581-47-5", "cn_name": "2,4'-\u8054\u5421\u5576", "en_name": ["2,4\u2032-Bipyridine", "2,4\u2032-Bipyridine", "2,4\u2032-Bipyridyl", "2,4\u2032-Dipyridine", "2,4\u2032-Dipyridyl", "4-(2-Pyridyl)pyridine", "2-(Pyridin-4-yl)pyridine", "2-Pyridin-4-ylpyridine"], "SMILES": "C=1(C=CN=CC1)C2=CC=CC=N2", "physical_data": {"Molecular Weight": "156.18", "Molecular Formula": "C10H8N2", "Boiling Point": "281 \u00b0C", "Melting Point": "61.5 \u00b0C"}}