{"cas_no": "581-88-4", "cn_name": "\u786b\u9178\u5f02\u55b9\u80cd", "en_name": ["Debrisoquine sulfate", "2(1H)-Isoquinolinecarboximidamide, 3,4-dihydro-, sulfate (2:1)", "2(1H)-Isoquinolinecarboxamidine, 3,4-dihydro-, sulfate (2:1)", "Debrisoquin sulfate", "Declinax", "Isocaramidine sulfate", "Debrisoquine sulfate", "1,2,3,4-Tetrahydro-isoquinoline-2-carboxamidine sulfate", "Ro 5-3307/1", "Debrisoquin hemisulfate", "Debrisoquine hemisulfate", "3,4-Dihydroisoquinoline-2(1H)-carboximidamide hemisulfate"], "SMILES": "C(=N)(N)N1CC=2C(CC1)=CC=CC2.S(=O)(=O)(O)O", "physical_data": {"Molecular Weight": "", "Molecular Formula": "C10H13N3.<sup>1</sup>/2H2O4S", "Melting Point": "278-280 \u00b0C"}}