{"cas_no": "581-96-4", "cn_name": "2-\u8418\u4e59\u9178", "en_name": ["2-Naphthaleneacetic acid", "2-Naphthaleneacetic acid", "\u03b2-Naphthaleneacetic acid", "2-Naphthylacetic acid", "Betoxan", "\u03b2-Naphthaleneacetate", "\u03b2-Naphthylacetic acid", "2-(2-Naphthyl)acetic acid", "2-NAA", "Naphthalen-2-ylacetic acid", "NSC 301", "2-Naphthalen-2-ylacetic acid"], "SMILES": "C(C(O)=O)C1=CC2=C(C=C1)C=CC=C2", "physical_data": {"Molecular Weight": "186.21", "Molecular Formula": "C12H10O2", "Melting Point": "142 \u00b0C"}}