{"cas_no": "581-40-8", "cn_name": "2,3-\u4e8c\u7532\u57fa\u8418", "en_name": ["2,3-Dimethylnaphthalene", "Naphthalene, 2,3-dimethyl-", "2,3-Dimethylnaphthalene", "Guajen", "NSC 36850"], "SMILES": "CC1=CC2=C(C=C1C)C=CC=C2", "physical_data": {"Molecular Weight": "156.22", "Molecular Formula": "C12H12", "Boiling Point": "268 \u00b0C", "Melting Point": "105 \u00b0C"}}