{"cas_no": "581-46-4", "cn_name": "3,3'-\u8054\u5421\u5576", "en_name": ["3,3\u2032-Bipyridine", "3,3\u2032-Bipyridine", "3,3\u2032-Bipyridyl", "3,3\u2032-Dipyridyl", "3-Pyridin-3-ylpyridine"], "SMILES": "C=1(C=CC=NC1)C=2C=CC=NC2", "physical_data": {"Molecular Weight": "156.18", "Molecular Formula": "C10H8N2", "Boiling Point": "291.5 \u00b0C", "Melting Point": "68 \u00b0C"}}