{"cas_no": "581-31-7", "cn_name": "\u8f6f\u6728\u82b1\u6912\u7d20", "en_name": ["Suberosin", "2H-1-Benzopyran-2-one, 7-methoxy-6-(3-methyl-2-buten-1-yl)-", "Coumarin, 7-methoxy-6-(3-methyl-2-butenyl)-", "Suberosin", "2H-1-Benzopyran-2-one, 7-methoxy-6-(3-methyl-2-butenyl)-", "7-Methoxy-6-(3-methyl-2-buten-1-yl)-2H-1-benzopyran-2-one", "7-Methoxy-6-(3-methyl-2-butenyl)coumarin", "NSC 31869"], "SMILES": "O(C)C=1C=C2C(=CC1CC=C(C)C)C=CC(=O)O2", "physical_data": {"Molecular Weight": "244.29", "Molecular Formula": "C15H16O3", "Boiling Point": "158-172 \u00b0C @ Press: 0.05 Torr", "Melting Point": "87.5 \u00b0C"}}