{"cas_no": "581-43-1", "cn_name": "2,6-\u8418\u4e8c\u915a", "en_name": ["2,6-Dihydroxynaphthalene", "2,6-Naphthalenediol", "C.I. 76640", "2,6-Dihydroxynaphthalene", "2-Hydroxy-6-naphthol", "2,6-Naphthohydroquinone", "6-Hydroxy-2-naphthol", "NSC 62687", "2,6-Dihydroxynaphthaline"], "SMILES": "OC1=CC2=C(C=C(O)C=C2)C=C1", "physical_data": {"Molecular Weight": "160.17", "Molecular Formula": "C10H8O2", "Melting Point": "220 \u00b0C"}}