{"cas_no": "581-55-5", "cn_name": "\u82ef\u4e9a\u7532\u57fa\u53cc\u4e59\u9178\u76d0", "en_name": ["Methanediol, 1-phenyl-, 1,1-diacetate", "Methanediol, 1-phenyl-, 1,1-diacetate", "Toluene-\u03b1,\u03b1-diol, diacetate", "Methanediol, phenyl-, diacetate", "Benzal diacetate", "Benzylidene diacetate", "Phenylmethanediol diacetate", "Benzenemethanediol diacetate", "\u03b1,\u03b1-Diacetoxytoluene", "(Diacetoxymethyl)benzene", "NSC 7732", "Diacetoxyphenylmethane", "Benzaldehyde diacetate", "1,1-Diacetoxymethylbenzene", "Phenacylidene diacetate"], "SMILES": "C(OC(C)=O)(OC(C)=O)C1=CC=CC=C1", "physical_data": {"Molecular Weight": "208.21", "Molecular Formula": "C11H12O4", "Boiling Point": "220 \u00b0C", "Melting Point": "46 \u00b0C"}}