{"cas_no": "581-97-5", "cn_name": "N-(\u8418-2-\u57fa)\u4e59\u9170\u80fa", "en_name": ["N-2-Naphthalenylacetamide", "Acetamide, N-2-naphthalenyl-", "Acetamide, N-2-naphthyl-", "N-2-Naphthalenylacetamide", "2-Acetamidonaphthalene", "N-(2-Naphthyl)acetamide", "N-Acetyl-\u03b2-naphthylamine", "N-Acetyl-2-naphthylamine", "\u03b2-Acetonaphthalide", "NSC 3104"], "SMILES": "N(C(C)=O)C1=CC2=C(C=C1)C=CC=C2", "physical_data": {"Molecular Weight": "185.22", "Molecular Formula": "C12H11NO", "Melting Point": "131-132 \u00b0C"}}