{"cas_no": "581-08-8", "cn_name": "\u4e59\u9170\u5bf9\u6c28\u57fa\u82ef\u4e59\u919a", "en_name": ["N-(2-Ethoxyphenyl)acetamide", "Acetamide, N-(2-ethoxyphenyl)-", "o-Acetophenetidide", "N-(2-Ethoxyphenyl)acetamide", "2\u2032-Ethoxyacetanilide", "o-Ethoxyacetanilide", "o-Acetylphenetidine", "NSC 7649"], "SMILES": "N(C(C)=O)C1=C(OCC)C=CC=C1", "physical_data": {"Molecular Weight": "179.22", "Molecular Formula": "C10H13NO2", "Boiling Point": "&gt;240 \u00b0C", "Melting Point": "79 \u00b0C"}}