{"cas_no": "581-89-5", "cn_name": "2-\u785d\u57fa\u8418", "en_name": ["2-Nitronaphthalene", "Naphthalene, 2-nitro-", "2-Nitronaphthalene", "\u03b2-Nitronaphthalene"], "SMILES": "N(=O)(=O)C1=CC2=C(C=C1)C=CC=C2", "physical_data": {"Molecular Weight": "173.17", "Molecular Formula": "C10H7NO2", "Boiling Point": "314 \u00b0C", "Melting Point": "79 \u00b0C"}}