{"cas_no": "581-45-3", "cn_name": "4-(\u54cc\u5576-4-\u57fa)\u5421\u5576", "en_name": ["1,2,3,4,5,6-Hexahydro-[4,4\u2032]bipyridinyl", "Pyridine, 4-(4-piperidinyl)-", "Piperidine, 4-(4-pyridyl)-", "4-(4-Piperidinyl)pyridine", "4-(4-Pyridyl)piperidine", "4-(4\u2032-Piperidyl)pyridine", "4-(4-Pyridinyl)piperidine", "1,2,3,4,5,6-Hexahydro-[4,4\u2032]bipyridinyl", "4-(4-Piperidyl)pyridine"], "SMILES": "C1(CCNCC1)C=2C=CN=CC2", "physical_data": {"Molecular Weight": "162.23", "Molecular Formula": "C10H14N2", "Melting Point": "77-78 \u00b0C"}}