{"cas_no": "5810-56-0", "cn_name": "N-\u54cc\u5576-4-\u57fa-\u4e59\u9170\u80fa", "en_name": ["N-4-Piperidinylacetamide", "Acetamide, N-4-piperidinyl-", "Piperidine, 4-acetamido-", "N-4-Piperidinylacetamide", "4-Acetamidopiperidine", "4-Acetylaminopiperidine", "N-(4-Piperidinyl)acetamide", "4-(N-Ethanoylamino)piperidine", "N-(4-Piperidyl)acetamide"], "SMILES": "N(C(C)=O)C1CCNCC1", "physical_data": {"Molecular Weight": "142.20", "Molecular Formula": "C7H14N2O", "Melting Point": "137.8-141 \u00b0C"}}