{"cas_no": "5810-42-4", "cn_name": "\u56db\u4e19\u57fa\u6c2f\u5316\u94f5", "en_name": ["Tetrapropylammonium chloride", "1-Propanaminium, N,N,N-tripropyl-, chloride (1:1)", "Ammonium, tetrapropyl-, chloride", "Tetrapropylammonium chloride", "1-Propanaminium, N,N,N-tripropyl-, chloride", "Tetra-n-propylammonium chloride", "N,N,N-Tripropyl-1-propanaminium chloride"], "SMILES": "[N+](CCC)(CCC)(CCC)CCC.[Cl-]", "physical_data": {"Molecular Weight": "", "Molecular Formula": "C12H28N.Cl", "Melting Point": "175-194 \u00b0C"}}