{"cas_no": "5810-11-7", "cn_name": "N,N-\u4e8c\u7532\u57fa\u6c2f\u4e59\u9170\u80fa", "en_name": ["2-Chloro-N,N-dimethyl-3-oxobutanamide", "Butanamide, 2-chloro-N,N-dimethyl-3-oxo-", "Acetoacetamide, 2-chloro-N,N-dimethyl-", "2-Chloro-N,N-dimethyl-3-oxobutanamide", "2-Chloroacetoacetic acid N,N-dimethylamide", "2-Chloro-N,N-dimethylacetoacetamide", "N,N-Dimethyl-2-chloroacetoacetamide"], "SMILES": "C(C(N(C)C)=O)(C(C)=O)Cl", "physical_data": {"Molecular Weight": "163.60", "Molecular Formula": "C6H10ClNO2", "Boiling Point": "93-98 \u00b0C @ Press: 0.5 Torr"}}