{"cas_no": "5811-88-1", "cn_name": "8-(\u6c22\u57fa\u7fb0\u57fa)1-\u8418\u9178", "en_name": ["Naphthalamic acid", "1-Naphthalenecarboxylic acid, 8-(aminocarbonyl)-", "Naphthalamic acid", "8-(Aminocarbonyl)-1-naphthalenecarboxylic acid"], "SMILES": "C(N)(=O)C=1C=2C(C(O)=O)=CC=CC2C=CC1", "physical_data": {"Molecular Weight": "215.20", "Molecular Formula": "C12H9NO3", "Melting Point": "245 \u00b0C"}}