{"cas_no": "5811-87-0", "cn_name": "8-\u7532\u9170\u57fa-1-\u8418\u7532\u9178", "en_name": ["8-Formyl-1-naphthalenecarboxylic acid", "1-Naphthalenecarboxylic acid, 8-formyl-", "Naphthalaldehydic acid", "8-Formyl-1-naphthalenecarboxylic acid", "peri-Naphthalaldehydic acid", "Naphthaldehydic acid", "1,8-Naphthaldehydic acid", "NSC 100959"], "SMILES": "C(O)(=O)C=1C2=C(C=CC1)C=CC=C2C=O", "physical_data": {"Molecular Weight": "200.19", "Molecular Formula": "C12H8O3", "Melting Point": "169-171 \u00b0C (decomp)"}}