{"cas_no": "58123-72-1", "cn_name": "3-\u6c2f-4-\u7898\u82ef\u7532\u9178", "en_name": ["3-Chloro-4-iodobenzoic acid", "Benzoic acid, 3-chloro-4-iodo-", "3-Chloro-4-iodobenzoic acid"], "SMILES": "C(O)(=O)C1=CC(Cl)=C(I)C=C1", "physical_data": {"Molecular Weight": "282.46", "Molecular Formula": "C7H4ClIO2", "Melting Point": "210 \u00b0C"}}