{"cas_no": "5812-07-7", "cn_name": "SU 4312;NSC 86429;SU-4312;NSC-86429", "en_name": ["3-(4-Dimethylaminobenzylidenyl)-2-indolinone", "2H-Indol-2-one, 3-[[4-(dimethylamino)phenyl]methylene]-1,3-dihydro-", "2-Indolinone, 3-[p-(dimethylamino)benzylidene]-", "3-[[4-(Dimethylamino)phenyl]methylene]-1,3-dihydro-2H-indol-2-one", "SU 4312", "3-(4-Dimethylaminobenzylidenyl)-2-indolinone", "NSC 86429", "DMBI", "3-[[4-(Dimethylamino)phenyl]methylidene]-2,3-dihydro-1H-indol-2-one"], "SMILES": "C(=C1C=2C(NC1=O)=CC=CC2)C3=CC=C(N(C)C)C=C3", "physical_data": {"Molecular Weight": "264.32", "Molecular Formula": "C17H16N2O", "Melting Point": "225-232 \u00b0C"}}