{"cas_no": "58123-77-6", "cn_name": "3-\u7f9f\u57fa-4-\u7898\u82ef\u7532\u9178", "en_name": ["3-Hydroxy-4-iodobenzoic acid", "Benzoic acid, 3-hydroxy-4-iodo-", "3-Hydroxy-4-iodobenzoic acid"], "SMILES": "C(O)(=O)C1=CC(O)=C(I)C=C1", "physical_data": {"Molecular Weight": "264.02", "Molecular Formula": "C7H5IO3", "Melting Point": "226-228 \u00b0C (decomp)"}}