{"cas_no": "5813-64-9", "cn_name": "\u7279\u620a\u80fa", "en_name": ["Neopentylamine", "1-Propanamine, 2,2-dimethyl-", "Neopentylamine", "2,2-Dimethyl-1-propanamine", "2,2-Dimethylpropylamine", "2,2-Dimethylpropanamine", "2,2-Dimethyl-1-propylamine", "1-Amino-2,2-dimethylpropane", "NSC 165660"], "SMILES": "C(CN)(C)(C)C", "physical_data": {"Molecular Weight": "87.16", "Molecular Formula": "C5H13N", "Boiling Point": "82 \u00b0C", "Density": "0.7455 g/cm\u00b3 @ Temp: 20 \u00b0C"}}