{"cas_no": "5813-86-5", "cn_name": "3-\u7532\u6c27\u57fa\u82ef\u7532\u9170\u80fa", "en_name": ["3-Methoxybenzamide", "Benzamide, 3-methoxy-", "m-Anisamide", "3-Methoxybenzamide", "m-Methoxybenzamide", "3MBA", "m-Methoxybenzamide", "NSC 209527", "NSC 28589"], "SMILES": "C(N)(=O)C1=CC(OC)=CC=C1", "physical_data": {"Molecular Weight": "151.16", "Molecular Formula": "C8H9NO2", "Melting Point": "134 \u00b0C"}}