{"cas_no": "58139-59-6", "cn_name": "2,2'-\u4e8c\u6c28\u57fa-4,4'-\u53cc\u567b\u5511", "en_name": ["2,2\u2032-Diamino-4,4\u2032-bithiazole", "[4,4\u2032-Bithiazole]-2,2\u2032-diamine", "4,4\u2032-Bithiazole, 2,2\u2032-diamino-", "2,2\u2032-Diamino-4,4\u2032-bithiazole", "2,2\u2032-Diamino-4,4\u2032-bi-1,3-thiazole", "2,2\u2032-Diamino-4,4\u2032-bis(1,3-thiazole)"], "SMILES": "NC1=NC(=CS1)C=2N=C(N)SC2", "physical_data": {"Molecular Weight": "198.27", "Molecular Formula": "C6H6N4S2", "Melting Point": "237-240 \u00b0C (decomp)"}}