{"cas_no": "5813-89-8", "cn_name": "2-\u567b\u5429\u7532\u9170\u80fa", "en_name": ["2-Thiophenecarboxamide", "2-Thiophenecarboxamide", "2-Thenamide", "2-(Aminocarbonyl)thiophene", "NSC 109369"], "SMILES": "C(N)(=O)C1=CC=CS1", "physical_data": {"Molecular Weight": "127.16", "Molecular Formula": "C5H5NOS", "Melting Point": "181-183 \u00b0C"}}