{"cas_no": "5814-05-1", "cn_name": "2-\u6c2f\u82ef\u7532\u9170\u80bc", "en_name": ["2-Chlorobenzoic acid hydrazide", "Benzoic acid, 2-chloro-, hydrazide", "Benzoic acid, o-chloro-, hydrazide", "o-Chlorobenzoic acid hydrazide", "2-Chlorobenzoic acid hydrazide", "o-Chlorobenzoylhydrazine", "o-Chlorobenzhydrazide", "(2-Chlorobenzoyl)hydrazine", "2-Chlorobenzohydrazide", "2-Chlorobenzoic hydrazide", "o-Chlorobenzoyl hydrazide", "2-Chlorobenzhydrazide", "2-Chlorobenzoyl hydrazide", "NSC 522531", "2-Chlorobenzene-1-carbohydrazide"], "SMILES": "C(NN)(=O)C1=C(Cl)C=CC=C1", "physical_data": {"Molecular Weight": "170.60", "Molecular Formula": "C7H7ClN2O", "Melting Point": "118-120 \u00b0C"}}