{"cas_no": "58142-99-7", "cn_name": "5-\u7898\u5f02\u55b9\u5549", "en_name": ["5-Iodoisoquinoline", "Isoquinoline, 5-iodo-", "5-Iodoisoquinoline"], "SMILES": "IC=1C2=C(C=CC1)C=NC=C2", "physical_data": {"Molecular Weight": "255.06", "Molecular Formula": "C9H6IN", "Melting Point": "99-100 \u00b0C"}}