{"cas_no": "5814-41-5", "cn_name": "5,11-\u4e8c\u6c22\u82ef\u5e76[B][1,4]\u82ef\u5e76\u4e8c\u6c2e\u6742\u5353-6-\u916e", "en_name": ["5,10-Dihydro-11H-dibenzo[b,e][1,4]diazepin-11-one", "11H-Dibenzo[b,e][1,4]diazepin-11-one, 5,10-dihydro-", "5,10-Dihydro-11H-dibenzo[b,e][1,4]diazepin-11-one", "10,11-Dihydro-5H-dibenzo[b,e][1,4]diazepin-11-one", "5,11-Dihydro-10H-dibenz[b,e][1,4]diazepine-11-one", "5H-Dibenzo[b,e][1,4]diazepin-11(10H)-one"], "SMILES": "O=C1C=2C(NC=3C(N1)=CC=CC3)=CC=CC2", "physical_data": {"Molecular Weight": "210.23", "Molecular Formula": "C13H10N2O", "Melting Point": "122-124 \u00b0C"}}