{"cas_no": "5817-08-3", "cn_name": "N-\u4e59\u9170-DL-\u8c37\u6c28\u9178", "en_name": ["N-Acetyl-DL-glutamic acid", "Glutamic acid, N-acetyl-", "Glutamic acid, N-acetyl-, DL-", "N-Acetylglutamic acid", "DL-Acetylglutamic acid", "N-Acetyl-DL-glutamic acid", "NSC 10854", "2-Acetylamino-pentanedioic acid", "2-Acetamidopentanedioic acid", "Glutamic acid, N-(1-methylethenyl)-"], "SMILES": "C(CCC(O)=O)(NC(C)=O)C(O)=O", "physical_data": {"Molecular Weight": "189.17", "Molecular Formula": "C7H11NO5", "Melting Point": "176-180 \u00b0C"}}