{"cas_no": "5817-39-0", "cn_name": "\u7898\u585e\u7f57\u5b81", "en_name": ["3\u2032,5\u2032,3-Triiodothyronine", "L-Tyrosine, O-(4-hydroxy-3,5-diiodophenyl)-3-iodo-", "Alanine, 3-[4-(4-hydroxy-3,5-diiodophenoxy)-3-iodophenyl]-, L-", "O-(4-Hydroxy-3,5-diiodophenyl)-3-iodo-L-tyrosine", "3,3\u2032,5\u2032-Triiodo-L-thyronine", "3,3\u2032,5\u2032-Triiodothyronine", "rT3", "Reverse T3", "Reverse triiodothyronine", "3\u2032,5\u2032,3-Triiodothyronine", "Reverse L-triiodothyronine", "Isoliothyronine", "3,3\u2032,5\u2032-L-Triiodothyronine", "3,3\u2032,5\u2032-T3", "(2S)-2-Amino-3-[4-(4-hydroxy-3,5-diiodophenoxy)-3-iodophenyl]propanoic acid", "(S)-2-Amino-3-(4-(4-hydroxy-3,5-diiodophenoxy)-3-iodophenyl)propanoic acid", "(S)-2-Amino-3-(4-(4-hydroxy-3,5-diiodophenoxy)-3-iodophenyl)propanoicacid"], "SMILES": "O(C1=C(I)C=C(CC(C(O)=O)N)C=C1)C2=CC(I)=C(O)C(I)=C2", "physical_data": {"Molecular Weight": "650.97", "Molecular Formula": "C15H12I3NO4", "Melting Point": "206 \u00b0C (decomp)"}}