{"cas_no": "581802-26-8", "cn_name": "(E)-2-\u7532\u57fa-4-(4,4,5,5-\u56db\u7532\u57fa-1,3,2-\u4e8c\u5641\u787c\u70f7-2-\u57fa)3-\u4e01\u70ef-2-\u9187", "en_name": ["(3E)-2-Methyl-4-(4,4,5,5-tetramethyl-1,3,2-dioxaborolan-2-yl)-3-buten-2-ol", "3-Buten-2-ol, 2-methyl-4-(4,4,5,5-tetramethyl-1,3,2-dioxaborolan-2-yl)-, (3E)-", "(3E)-2-Methyl-4-(4,4,5,5-tetramethyl-1,3,2-dioxaborolan-2-yl)-3-buten-2-ol", "(E)-2-Methyl-4-(4,4,5,5-tetramethyl-1,3,2-dioxaborolan-2-yl)but-3-en-2-ol"], "SMILES": "C(=CC(C)(C)O)B1OC(C)(C)C(C)(C)O1", "physical_data": {"Molecular Weight": "212.09", "Molecular Formula": "C11H21BO3", "Boiling Point": "70-80 \u00b0C @ Press: 0.1 Torr"}}