{"cas_no": "58186-27-9", "cn_name": "\u827e\u5730\u82ef\u918c", "en_name": ["Idebenone", "2,5-Cyclohexadiene-1,4-dione, 2-(10-hydroxydecyl)-5,6-dimethoxy-3-methyl-", "2-(10-Hydroxydecyl)-5,6-dimethoxy-3-methyl-2,5-cyclohexadiene-1,4-dione", "2,3-Dimethoxy-5-methyl-6-(10-hydroxydecyl)-1,4-benzoquinone", "CV 2619", "Idebenone", "2,3-Dimethoxy-6-(10-hydroxydecyl)-5-methyl-1,4-benzoquinone", "Avan", "Daruma", "Mnesis", "2-(10-Hydroxydecyl)-5,6-dimethoxy-3-methylcyclohexa-2,5-diene-1,4-dione", "Raxone", "2-(10-Hydroxy-decyl)-5,6-dimethoxy-3-methyl-[1,4]benzoquinone", "Sovrima", "Hydroxydecyl ubiquinone"], "SMILES": "O(C)C1=C(OC)C(=O)C(C)=C(CCCCCCCCCCO)C1=O", "physical_data": {"Molecular Weight": "338.44", "Molecular Formula": "C19H30O5", "Melting Point": "46-50 \u00b0C"}}