{"cas_no": "5818-15-5", "cn_name": "\u4e19\u9178\u80bc", "en_name": ["Propanoic acid, hydrazide", "Propanoic acid, hydrazide", "Propionic acid, hydrazide", "Propionylhydrazine", "Propanoic hydrazide", "Propionic hydrazide", "Propiohydrazide", "N-Propanoylhydrazine", "NSC 28448", "Propionylhydrazide", "Propionohydrazide", "Propanehydrazide"], "SMILES": "C(CC)(NN)=O", "physical_data": {"Molecular Weight": "88.11", "Molecular Formula": "C3H8N2O", "Melting Point": "179-180 \u00b0C"}}