{"cas_no": "5818-06-4", "cn_name": "3-\u7f9f\u57fa\u82ef\u9170\u80bc", "en_name": ["3-Hydroxybenzohydrazide", "Benzoic acid, 3-hydroxy-, hydrazide", "Benzoic acid, m-hydroxy-, hydrazide", "m-Hydroxybenzoic acid hydrazide", "3-Hydroxybenzoic acid hydrazide", "(3-Hydroxybenzoyl)hydrazine", "m-Hydroxybenzhydrazide", "3-Hydroxybenzohydrazide", "3-Hydroxybenzoylhydrazide", "m-Hydroxybenzoic hydrazide", "m-Hydroxybenzoylhydrazide", "m-Hydroxybenzoylhydrazine", "3-Hydroxybenzhydrazide", "3-Hydroxybenzoic hydrazide", "m-Hydroxybenzohydrazide"], "SMILES": "C(NN)(=O)C1=CC(O)=CC=C1", "physical_data": {"Molecular Weight": "152.15", "Molecular Formula": "C7H8N2O2", "Melting Point": "240 \u00b0C"}}