{"cas_no": "5819-40-9", "cn_name": "4-\u6eb4-5-\u7532\u57fa\u5f02\u6076\u5511-3-\u80fa", "en_name": ["4-Bromo-5-methyl-3-isoxazolamine", "3-Isoxazolamine, 4-bromo-5-methyl-", "Isoxazole, 3-amino-4-bromo-5-methyl-", "4-Bromo-5-methyl-3-isoxazolamine", "3-Amino-4-bromo-5-methylisoxazole", "4-Bromo-5-methylisoxazol-3-ylamine", "4-Bromo-5-methylisoxazole-3-amine"], "SMILES": "BrC=1C(N)=NOC1C", "physical_data": {"Molecular Weight": "177.00", "Molecular Formula": "C4H5BrN2O", "Melting Point": "81-82 \u00b0C"}}