{"cas_no": "58198-49-5", "cn_name": "1-[(4-\u785d\u57fa\u82ef\u57fa)\u7532\u57fa]\u54cc\u55ea", "en_name": ["1-[(4-Nitrophenyl)methyl]piperazine", "Piperazine, 1-[(4-nitrophenyl)methyl]-", "1-[(4-Nitrophenyl)methyl]piperazine", "1-(4-Nitrobenzyl)piperazine", "4-((Piperazin-1-yl)methyl)nitrobenzene"], "SMILES": "C(C1=CC=C(N(=O)=O)C=C1)N2CCNCC2", "physical_data": {"Molecular Weight": "221.26", "Molecular Formula": "C11H15N3O2", "Melting Point": "122-123 \u00b0C"}}