{"cas_no": "58196-33-1", "cn_name": "7-\u7f9f\u57fa-1,2,3,4-\u56db\u6c22\u55b9\u5549", "en_name": ["7-Hydroxy-1,2,3,4-tetrahydroquinoline", "7-Quinolinol, 1,2,3,4-tetrahydro-", "1,2,3,4-Tetrahydro-7-quinolinol", "7-Hydroxy-1,2,3,4-tetrahydroquinoline", "1,2,3,4-Tetrahydro-7-hydroxyquinoline"], "SMILES": "OC=1C=C2C(=CC1)CCCN2", "physical_data": {"Molecular Weight": "149.19", "Molecular Formula": "C9H11NO", "Melting Point": "70-80 \u00b0C"}}