{"cas_no": "582-80-9", "cn_name": "4-\u82ef\u7532\u9170\u6c28\u57fa\u82ef\u7532\u9178", "en_name": ["4-(Benzoylamino)benzoic acid", "Benzoic acid, 4-(benzoylamino)-", "Benzoic acid, p-benzamido-", "4-(Benzoylamino)benzoic acid", "4-Benzamidobenzoic acid", "N-(4-Carboxyphenyl)benzamide", "NSC 74676", "p-(Benzoylamino)benzoic acid"], "SMILES": "C(NC1=CC=C(C(O)=O)C=C1)(=O)C2=CC=CC=C2", "physical_data": {"Molecular Weight": "241.24", "Molecular Formula": "C14H11NO3", "Melting Point": "278 \u00b0C"}}