{"cas_no": "582-69-4", "cn_name": "\u6c27\u5316\u5076\u6c2e\u82ef-4,4'-\u4e8c\u7fa7\u9178", "en_name": ["4,4\u2032-(1-Oxido-1,2-diazenediyl)bis[benzoic acid]", "Benzoic acid, 4,4\u2032-(1-oxido-1,2-diazenediyl)bis-", "Benzoic acid, 4,4\u2032-azoxydi-", "Benzoic acid, 4,4\u2032-azoxybis-", "Benzoic acid, p,p\u2032-azoxydi-", "4,4\u2032-(1-Oxido-1,2-diazenediyl)bis[benzoic acid]", "4,4\u2032-Azoxybenzoic acid", "4,4\u2032-Azoxybenzenedicarboxylic acid", "4,4\u2032-Azobisbenzoic acid N-oxide", "4,4\u2032-Dicarboxyazoxybenzene", "NSC 24947", "4,4\u2032-Azoxydibenzoic acid"], "SMILES": "N(=NC1=CC=C(C(O)=O)C=C1)(=O)C2=CC=C(C(O)=O)C=C2", "physical_data": {"Molecular Weight": "286.24", "Molecular Formula": "C14H10N2O5", "Melting Point": "114.5 \u00b0C"}}