{"cas_no": "582-33-2", "cn_name": "3-\u6c28\u57fa\u82ef\u7532\u9178\u4e59\u916f", "en_name": ["Ethyl 3-aminobenzoate", "Benzoic acid, 3-amino-, ethyl ester", "Benzoic acid, m-amino-, ethyl ester", "Ethyl m-aminobenzoate", "Ethyl 3-aminobenzoate", "m-Ethoxycarbonylaniline", "3-(Ethoxycarbonyl)aniline", "3-Carbethoxyaniline", "3-Aminobenzoic acid ethyl ester", "m-Aminobenzoic acid ethyl ester", "(3-(Ethoxycarbonyl)phenyl)amine", "NSC 39593", "3-Ethoxycarbonylbenzeneamine"], "SMILES": "C(OCC)(=O)C1=CC(N)=CC=C1", "physical_data": {"Molecular Weight": "165.19", "Molecular Formula": "C9H11NO2", "Boiling Point": "294 \u00b0C", "Melting Point": "33-35 \u00b0C", "Density": "1.1248 g/cm\u00b3 @ Temp: 22 \u00b0C"}}