{"cas_no": "582-22-9", "cn_name": "3-\u7532\u57fa\u82ef\u4e59\u80fa", "en_name": ["(\u00b1)-2-Phenylpropylamine", "Benzeneethanamine, \u03b2-methyl-", "Phenethylamine, \u03b2-methyl-", "\u03b2-Methylbenzeneethanamine", "1-Propanamine, 2-phenyl-", "\u03b2-Methylphenethylamine", "\u03b2-Methylphenylethylamine", "2-Phenylpropylamine", "\u03b2-Phenylpropylamine", "(RS)-2-Phenylpropylamine", "(\u00b1)-2-Phenylpropylamine", "2-Phenylpropanamine", "2-Phenyl-1-propylamine", "2-Phenyl-1-propanamine", "NSC 272273", "(\u00b1)-\u03b2-Methylphenethylamine"], "SMILES": "C(CN)(C)C1=CC=CC=C1", "physical_data": {"Molecular Weight": "135.21", "Molecular Formula": "C9H13N", "Boiling Point": "210 \u00b0C", "Density": "0.9483 g/cm\u00b3 @ Temp: 20 \u00b0C"}}