{"cas_no": "582-24-1", "cn_name": "2-\u7f9f\u57fa\u82ef\u4e59\u916e", "en_name": ["\u03b1-Hydroxyacetophenone", "Ethanone, 2-hydroxy-1-phenyl-", "Acetophenone, 2-hydroxy-", "Acetophenone, \u03b1-hydroxy-", "2-Hydroxy-1-phenylethanone", "Benzoylcarbinol", "Glycolophenone", "Methanol, benzoyl-", "Phenacyl alcohol", "2-Hydroxyacetophenone", "\u03b1-Hydroxyacetophenone", "\u03c9-Hydroxyacetophenone", "(Hydroxyacetyl)benzene", "Benzoylmethanol", "2-Phenyl-2-oxoethanol", "NSC 171232", "Hydroxymethyl phenyl ketone", "1-Phenyl-2-hydroxyethanone", "2-Hydroxy-1-phenylethan-1-one"], "SMILES": "C(CO)(=O)C1=CC=CC=C1", "physical_data": {"Molecular Weight": "136.15", "Molecular Formula": "C8H8O2", "Boiling Point": "140 \u00b0C @ Press: 14 Torr", "Melting Point": "90 \u00b0C"}}