{"cas_no": "582-16-1", "cn_name": "2,7-\u4e8c\u7532\u57fa\u8418", "en_name": ["2,7-Dimethylnaphthalene", "Naphthalene, 2,7-dimethyl-", "2,7-Dimethylnaphthalene", "NSC 36851"], "SMILES": "CC1=CC2=C(C=CC(C)=C2)C=C1", "physical_data": {"Molecular Weight": "156.22", "Molecular Formula": "C12H12", "Boiling Point": "265 \u00b0C", "Melting Point": "97 \u00b0C"}}