{"cas_no": "582-17-2", "cn_name": "2,7-\u4e8c\u7f9f\u57fa\u8418", "en_name": ["2,7-Naphthalenediol", "2,7-Naphthalenediol", "2,7-Dihydroxynaphthalene", "C.I. 76645", "NSC 407541", "2,7-Naphthohydroquinone", "7-Hydroxy-2-naphthol", "D 0594"], "SMILES": "OC1=CC2=C(C=CC(O)=C2)C=C1", "physical_data": {"Molecular Weight": "160.17", "Molecular Formula": "C10H8O2", "Melting Point": "193 \u00b0C"}}