{"cas_no": "582-73-0", "cn_name": "4,4,4-\u4e09\u6c1f-1-(\u5421\u5576-3-\u57fa)-1,3-\u4e01\u4e8c\u916e", "en_name": ["4,4,4-Trifluoro-1-(3-pyridinyl)-1,3-butanedione", "1,3-Butanedione, 4,4,4-trifluoro-1-(3-pyridinyl)-", "1,3-Butanedione, 4,4,4-trifluoro-1-(3-pyridyl)-", "4,4,4-Trifluoro-1-(3-pyridinyl)-1,3-butanedione", "4,4,4-Trifluoro-1-(3-pyridyl)-1,3-butanedione", "NSC 42763", "4,4,4-Trifluoro-1-(pyridin-3-yl)butan-1,3-dione"], "SMILES": "C(CC(C(F)(F)F)=O)(=O)C=1C=CC=NC1", "physical_data": {"Molecular Weight": "217.14", "Molecular Formula": "C9H6F3NO2", "Melting Point": "173.5-174 \u00b0C"}}