{"cas_no": "582-62-7", "cn_name": "\u7570\u4e01\u57fa\u82ef\u57fa\u916e", "en_name": ["Isobutyl phenyl ketone", "1-Butanone, 3-methyl-1-phenyl-", "Isovalerophenone", "3-Methyl-1-phenyl-1-butanone", "Isobutyl phenyl ketone", "1-Phenyl-3-methyl-1-butanone", "Phenyl isobutyl ketone", "NSC 72033"], "SMILES": "C(CC(C)C)(=O)C1=CC=CC=C1", "physical_data": {"Molecular Weight": "162.23", "Molecular Formula": "C11H14O", "Boiling Point": "236.5 \u00b0C", "Melting Point": "225-235 \u00b0C", "Density": "0.985 g/cm\u00b3 @ Temp: 40 \u00b0C"}}