{"cas_no": "582-60-5", "cn_name": "5,6-\u4e8c\u7532\u57fa\u82ef\u5e76\u54aa\u5511", "en_name": ["5,6-Dimethylbenzimidazole", "1H-Benzimidazole, 5,6-dimethyl-", "Benzimidazole, 5,6-dimethyl-", "5,6-Dimethyl-1H-benzimidazole", "Dimedazol", "Dimedazole", "Dimesol", "5,6-Dimethylbenzimidazole", "Dimezol", "NSC 68316"], "SMILES": "CC=1C=C2C(=CC1C)N=CN2", "physical_data": {"Molecular Weight": "146.19", "Molecular Formula": "C9H10N2", "Melting Point": "205.5 \u00b0C"}}