{"cas_no": "582-52-5", "cn_name": "\u53cc\u4e19\u916e\u8461\u8404\u7cd6", "en_name": ["Diacetone-D-glucose", "\u03b1-D-Glucofuranose, 1,2:5,6-bis-O-(1-methylethylidene)-", "Glucofuranose, 1,2:5,6-di-O-isopropylidene-, \u03b1-D-", "Furo[2,3-d]-1,3-dioxole, \u03b1-D-glucofuranose deriv.", "1,2:5,6-Bis-O-(1-methylethylidene)-\u03b1-D-glucofuranose", "1,2:5,6-Di-O-isopropylidene-\u03b1-D-glucose", "1,2:5,6-Di-O-isopropylidene-\u03b1-D-glucofuranose", "1,2:5,6-Diisopropylidene-\u03b1-D-glucofuranose", "Diacetone glucose", "Diacetone-D-glucose", "1,2:5,6-Di-O-isopropylidene-D-glucose", "(-)-1,2:5,6-Di-O-isopropylidene-\u03b1-D-glucofuranose", "Glucose bisacetonide", "NSC 1223", "Glucose diacetonide", "D-Glucose diacetonide", "1,2:5,6-Di-O-isopropylidene-D-glucofuranose"], "SMILES": "OC1C2C(OC1C3COC(C)(C)O3)OC(C)(C)O2", "physical_data": {"Molecular Weight": "260.28", "Molecular Formula": "C12H20O6", "Boiling Point": "156-160 \u00b0C @ Press: 0.05 Torr", "Melting Point": "110-111 \u00b0C"}}