{"cas_no": "582-83-2", "cn_name": "4-\u6c1f\u82ef\u4e01\u916e", "en_name": ["1-(4-Fluorophenyl)-1-butanone", "1-Butanone, 1-(4-fluorophenyl)-", "Butyrophenone, 4\u2032-fluoro-", "1-(4-Fluorophenyl)-1-butanone", "p-Fluorobutyrophenone", "4\u2032-Fluorobutyrophenone", "1-(4-Fluorophenyl)butan-1-one", "(4-Fluorophenyl)-1-propylketone"], "SMILES": "C(CCC)(=O)C1=CC=C(F)C=C1", "physical_data": {"Molecular Weight": "166.19", "Molecular Formula": "C10H11FO", "Boiling Point": "230-232 \u00b0C", "Melting Point": "39 \u00b0C"}}