{"cas_no": "582-84-3", "cn_name": "\u8f9b\u5f17\u6797", "en_name": ["Synephrine", "Benzenemethanol, 4-hydroxy-\u03b1-[(methylamino)methyl]-", "Benzyl alcohol, p-hydroxy-\u03b1-[(methylamino)methyl]-", "4-Hydroxy-\u03b1-[(methylamino)methyl]benzenemethanol", "Analeptin", "p-Hydroxy-\u03b1-[(methylamino)methyl]benzyl alcohol", "1-(4-Hydroxyphenyl)-N-methylethanolamine", "\u03b2-Methylamino-\u03b1-(4-hydroxyphenyl)ethyl alcohol", "Oxedrine", "Parasympatol", "Simpalon", "Sympathol", "Synephrin", "Synephrine", "Synthenate", "Simpatol", "S 38537-9", "Sympaethamine", "Sympaethamin", "1-(4-Hydroxyphenyl)-2-(methylamino)ethanol", "dl-1-(4-Hydroxyphenyl)-2-(methylamino)ethanol", "(\u00b1)-Synephrine", "(\u00b1)-N-Methyloctopamine", "(\u00b1)-S38537-9", "DL-Synephrine", "1-Hydroxy-4-[(1-hydroxy-2-methylamino)ethyl]benzene", "Ethaphene", "NSC 166285", "NSC 170956", "N-[2-Hydroxy-2-(4-hydroxyphenyl)ethyl]-N-methylamine", "Advantra Z", "MeSH ID: D013578"], "SMILES": "C(CNC)(O)C1=CC=C(O)C=C1", "physical_data": {"Molecular Weight": "167.21", "Molecular Formula": "C9H13NO2", "Melting Point": "184.5 \u00b0C"}}