{"cas_no": "5821-51-2", "cn_name": "\u5fc3\u73af\u70ef", "en_name": ["Dibenzo[ghi,mno]fluoranthene", "Dibenzo[ghi,mno]fluoranthene", "Corannulene"], "SMILES": "C12=C3C=4C=5C1=C6C=CC5C=CC4C=CC3=CC=C2C=C6", "physical_data": {"Molecular Weight": "250.29", "Molecular Formula": "C20H10", "Melting Point": "268-269 \u00b0C"}}