{"cas_no": "58249-61-9", "cn_name": "6-BENZOTHIAZOLECARBONITRILE", "en_name": ["6-Benzothiazolecarbonitrile", "6-Benzothiazolecarbonitrile", "6-Cyanobenzothiazole", "6-Cyanobenzothiazol", "1,3-Benzothiazole-6-carbonitrile"], "SMILES": "C(#N)C=1C=C2C(=CC1)N=CS2", "physical_data": {"Molecular Weight": "160.20", "Molecular Formula": "C8H4N2S", "Melting Point": "133 \u00b0C"}}