{"cas_no": "5825-45-6", "cn_name": "1-\u6c28\u57fa-1,2,3,4-\u56db\u6c22\u55b9\u5549", "en_name": ["1-Amino-1,2,3,4-tetrahydroquinoline", "1(2H)-Quinolinamine, 3,4-dihydro-", "Quinoline, 1-amino-1,2,3,4-tetrahydro-", "3,4-Dihydro-1(2H)-quinolinamine", "1-Amino-1,2,3,4-tetrahydroquinoline", "3,4-Dihydroquinolin-1(2H)-amine", "1,2,3,4-Tetrahydroquinolin-1-amine", "3,4-Dihydro-2H-quinolin-1-ylamine", "3,4-Dihydro-2H-quinolin-1-amine"], "SMILES": "NN1C=2C(CCC1)=CC=CC2", "physical_data": {"Molecular Weight": "148.21", "Molecular Formula": "C9H12N2", "Boiling Point": "120-125 \u00b0C @ Press: 5 Torr", "Melting Point": "55 \u00b0C"}}