{"cas_no": "5826-73-3", "cn_name": "\u9a71\u868a\u7075", "en_name": ["Bicyclo[2.2.1]hept-5-ene-2,3-dicarboxylic acid, 2,3-dimethyl ester", "Bicyclo[2.2.1]hept-5-ene-2,3-dicarboxylic acid, 2,3-dimethyl ester", "5-Norbornene-2,3-dicarboxylic acid, dimethyl ester", "Bicyclo[2.2.1]hept-5-ene-2,3-dicarboxylic acid, dimethyl ester", "Dimethyl 5-norbornene-2,3-dicarboxylate", "NSC 7326", "Dimethyl norbornene-2,3-dicarboxylate", "2,3-Dimethyl bicyclo[2.2.1]hept-5-ene-2,3-dicarboxylate"], "SMILES": "C(OC)(=O)C1C(C(OC)=O)C2CC1C=C2", "physical_data": {"Molecular Weight": "210.23", "Molecular Formula": "C11H14O4", "Boiling Point": "135 \u00b0C @ Press: 7 mmHg", "Melting Point": "37.5-38.0 \u00b0C"}}