{"cas_no": "58274-56-9", "cn_name": "\u845b\u82b1\u82f7", "en_name": ["Kakkalide", "4H-1-Benzopyran-4-one, 5-hydroxy-6-methoxy-3-(4-methoxyphenyl)-7-[(6-O-\u03b2-D-xylopyranosyl-\u03b2-D-glucopyranosyl)oxy]-", "5-Hydroxy-6-methoxy-3-(4-methoxyphenyl)-7-[(6-O-\u03b2-D-xylopyranosyl-\u03b2-D-glucopyranosyl)oxy]-4H-1-benzopyran-4-one", "Kakkalide"], "SMILES": "O=C1C=2C(=CC(OC3OC(COC4C(O)C(O)C(O)CO4)C(O)C(O)C3O)=C(OC)C2O)OC=C1C5=CC=C(OC)C=C5", "physical_data": {"Molecular Weight": "608.54", "Molecular Formula": "C28H32O15", "Melting Point": "250-252 \u00b0C"}}