{"cas_no": "583-17-5", "cn_name": "\u90bb\u7f9f\u57fa\u8089\u6842\u9178(\u90bb\u9999\u8c46\u9178)", "en_name": ["o-Coumaric acid", "2-Propenoic acid, 3-(2-hydroxyphenyl)-", "Cinnamic acid, o-hydroxy-", "3-(2-Hydroxyphenyl)-2-propenoic acid", "o-Coumaric acid", "2-Hydroxycinnamic acid", "o-Hydroxycinnamic acid", "2-Coumaric acid"], "SMILES": "C(=CC(O)=O)C1=C(O)C=CC=C1", "physical_data": {"Molecular Weight": "164.16", "Molecular Formula": "C9H8O3", "Melting Point": "188 \u00b0C"}}