{"cas_no": "583-70-0", "cn_name": "2,4-\u4e8c\u7532\u57fa\u6eb4\u82ef", "en_name": ["1-Bromo-2,4-dimethylbenzene", "Benzene, 1-bromo-2,4-dimethyl-", "m-Xylene, 4-bromo-", "1-Bromo-2,4-dimethylbenzene", "1,3-Dimethyl-4-bromobenzene", "2,4-Dimethylbromobenzene", "4-Bromo-m-xylene", "1-Bromo-2,4-xylene", "2,4-Dimethylphenyl bromide", "4-Bromo-1,3-dimethylbenzene", "4-Bromo-1,3-xylene", "2-Bromo-5-methyltoluene", "NSC 64734", "2,4-Dimethyl-1-bromobenzene"], "SMILES": "CC1=C(Br)C=CC(C)=C1", "physical_data": {"Molecular Weight": "185.06", "Molecular Formula": "C8H9Br", "Boiling Point": "205 \u00b0C", "Melting Point": "-17 \u00b0C", "Density": "1.361 g/cm\u00b3 @ Temp: 20 \u00b0C"}}