{"cas_no": "583-47-1", "cn_name": "4-\u82c4\u57fa\u5641\u5511\u70f7-2,5-\u4e8c\u916e", "en_name": ["4-(Phenylmethyl)-2,5-oxazolidinedione", "2,5-Oxazolidinedione, 4-(phenylmethyl)-", "2,5-Oxazolidinedione, 4-benzyl-", "4-(Phenylmethyl)-2,5-oxazolidinedione", "Phenylalanine, N-carboxy-, cyclic anhydride", "DL-Phenylalanine N-carboxy anhydride", "N-Carboxyl-DL-phenylalanine anhydride", "NSC 36252"], "SMILES": "C(C1C(=O)OC(=O)N1)C2=CC=CC=C2", "physical_data": {"Molecular Weight": "191.18", "Molecular Formula": "C10H9NO3", "Melting Point": "128 \u00b0C (decomp)"}}