{"cas_no": "583-75-5", "cn_name": "2-\u7532\u57fa-4-\u6eb4\u82ef\u80fa", "en_name": ["4-Bromo-2-methylaniline", "Benzenamine, 4-bromo-2-methyl-", "o-Toluidine, 4-bromo-", "4-Bromo-2-methylbenzenamine", "2-Amino-5-bromotoluene", "4-Bromo-2-methylaniline", "2-Methyl-4-bromoaniline", "4-Bromo-o-toluidine", "NSC 7093", "4-Bromo-2-methylphenylamine"], "SMILES": "CC1=C(N)C=CC(Br)=C1", "physical_data": {"Molecular Weight": "186.05", "Molecular Formula": "C7H8BrN", "Boiling Point": "240 \u00b0C", "Melting Point": "59.5 \u00b0C"}}