{"cas_no": "583-04-0", "cn_name": "\u82ef\u7532\u9178\u70ef\u4e19\u916f", "en_name": ["Allyl benzoate", "Benzoic acid, 2-propen-1-yl ester", "Benzoic acid, allyl ester", "Benzoic acid, 2-propenyl ester", "Allyl benzoate", "2-Propenyl benzoate", "Allyl alcohol, benzoate", "Monoallyl benzoate", "NSC 32639", "NSC 406846"], "SMILES": "C(OCC=C)(=O)C1=CC=CC=C1", "physical_data": {"Molecular Weight": "162.19", "Molecular Formula": "C10H10O2", "Boiling Point": "162-163 \u00b0C @ Press: 50 Torr", "Density": "1.056 g/cm\u00b3 @ Temp: 20 \u00b0C"}}