{"cas_no": "583-39-1", "cn_name": "2-\u5def\u57fa\u82ef\u5e76\u54aa\u5511", "en_name": ["2-Mercaptobenzimidazole", "2H-Benzimidazole-2-thione, 1,3-dihydro-", "2-Benzimidazolethiol", "2-Benzimidazolinethione", "1,3-Dihydro-2H-benzimidazole-2-thione", "2-Mercaptobenzimidazole", "1H-Benzimidazole-2-thiol", "ASM MB", "2-Thiobenzimidazole", "Antioxidant MB", "o-Phenylenethiourea", "Antigene MB", "Permanax 21", "2-Benzimidazolethione", "Vulkanox MB", "AO-MB", "Nocrac MB", "Vulkanox MBI", "G 580", "2-Mercapto-1H-benzimidazole", "Antioxidant MB/K", "MB/K", "Antage MB", "Sumilizer MB", "MB", "2,3-Dihydro-1H-benzimidazole-2-thione", "Nonflex MB", "1,3-Dihydro-2H-benzoimidazole-2-thione", "NSC 186246", "NSC 21414", "Benzimidazolin-2-thione", "Sandant MB", "Vulkanox MG", "1H-Benzo[d]imidazole-2(3H)-thione", "Curekind MBI/B", "1H-Benzo[d]imidazole-2-thiol", "2-Sulfhydrylbenzimidazole", "MBI 80", "Rhenogran MBI 80", "1,3-Dihydrobenzimidazole-2-thione", "1H-Benzoimidazole-2-thiol", "1H-1,3-Benzodiazole-2-thiol", "1,3-Dihydro-benzoimidazole-2-thione"], "SMILES": "S=C1NC=2C(N1)=CC=CC2", "physical_data": {"Molecular Weight": "150.20", "Molecular Formula": "C7H6N2S", "Melting Point": "298 \u00b0C"}}