{"cas_no": "583-55-1", "cn_name": "\u90bb\u7898\u6eb4\u82ef", "en_name": ["1-Bromo-2-iodobenzene", "Benzene, 1-bromo-2-iodo-", "1-Bromo-2-iodobenzene", "o-Bromoiodobenzene", "2-Bromoiodobenzene", "o-Iodobromobenzene", "o-Bromophenyl iodide", "2-Bromo-1-iodobenzene", "1-Iodo-2-bromobenzene", "2-Bromophenyl iodide", "2-Iodobromobenzene", "2-Iodo-1-bromobenzene"], "SMILES": "BrC1=C(I)C=CC=C1", "physical_data": {"Molecular Weight": "282.90", "Molecular Formula": "C6H4BrI", "Boiling Point": "257 \u00b0C", "Melting Point": "9.5 \u00b0C"}}