{"cas_no": "583-53-9", "cn_name": "1,2-\u4e8c\u6eb4\u82ef", "en_name": ["1,2-Dibromobenzene", "Benzene, 1,2-dibromo-", "Benzene, o-dibromo-", "1,2-Dibromobenzene", "o-Dibromobenzene", "NSC 60643"], "SMILES": "BrC1=C(Br)C=CC=C1", "physical_data": {"Molecular Weight": "235.90", "Molecular Formula": "C6H4Br2", "Boiling Point": "225 \u00b0C", "Melting Point": "7.1 \u00b0C", "Density": "1.9940 g/cm\u00b3 @ Temp: 11 \u00b0C"}}