{"cas_no": "583-93-7", "cn_name": "2,6-\u4e8c\u6c28\u57fa\u5e9a\u4e8c\u9178", "en_name": ["Diaminopimelic acid", "Heptanedioic acid, 2,6-diamino-", "2,6-Diaminoheptanedioic acid", "\u03b1,\u03b5-Diaminopimelic acid", "2,6-Diaminopimelic acid", "\u03b1,\u03b1\u2032-Diaminopimelic acid", "Diaminopimelic acid", "NSC 45225", "2,6-Bis(azaniumyl)heptanedioate", "6: PN: CN114214436 PAGE: 3 claimed sequence", "MeSH ID: D003960"], "SMILES": "C(C(O)=O)(CCCC(C(O)=O)N)N", "physical_data": {"Molecular Weight": "190.20", "Molecular Formula": "C7H14N2O4", "Melting Point": "&gt;305 \u00b0C"}}