{"cas_no": "583-50-6", "cn_name": "D-(-)-\u8d64\u85d3\u7cd6", "en_name": ["D-Erythrose", "Butanal, 2,3,4-trihydroxy-, (2R,3R)-", "Erythrose, D-", "Butanal, 2,3,4-trihydroxy-, [R-(R*,R*)]-", "(2R,3R)-2,3,4-Trihydroxybutanal", "D-Erythrose", "D-(-)-Erythrose"], "SMILES": "C(C(C=O)O)(CO)O", "physical_data": {"Molecular Weight": "120.10", "Molecular Formula": "C4H8O4", "Melting Point": "&lt;25 \u00b0C"}}