{"cas_no": "583-02-8", "cn_name": "4-(\u4e09\u6c1f\u7532\u57fa)\u82ef\u7532\u9178\u4e59\u916f", "en_name": ["Benzoic acid, 4-(trifluoromethyl)-, ethyl ester", "Benzoic acid, 4-(trifluoromethyl)-, ethyl ester", "p-Toluic acid, \u03b1,\u03b1,\u03b1-trifluoro-, ethyl ester", "Ethyl 4-trifluoromethylbenzoate", "Ethyl p-trifluoromethylbenzoate"], "SMILES": "C(OCC)(=O)C1=CC=C(C(F)(F)F)C=C1", "physical_data": {"Molecular Weight": "218.17", "Molecular Formula": "C10H9F3O2", "Boiling Point": "80-80.5 \u00b0C @ Press: 5.5 Torr"}}