{"cas_no": "583-78-8", "cn_name": "2,5-\u4e8c\u6c2f\u82ef\u915a", "en_name": ["2,5-Dichlorophenol", "Phenol, 2,5-dichloro-", "2,5-Dichlorophenol", "NSC 6296"], "SMILES": "OC1=C(Cl)C=CC(Cl)=C1", "physical_data": {"Molecular Weight": "163.00", "Molecular Formula": "C6H4Cl2O", "Boiling Point": "211 \u00b0C @ Press: 744 Torr", "Melting Point": "59 \u00b0C"}}