{"cas_no": "583-03-9", "cn_name": "\u82ef\u620a\u9187", "en_name": ["1-Phenyl-1-pentanol", "Benzenemethanol, \u03b1-butyl-", "Benzyl alcohol, \u03b1-butyl-", "\u03b1-Butylbenzenemethanol", "1-Pentanol, 1-phenyl-", "1-Phenylpentanol", "1-Phenyl-1-hydroxy-n-pentane", "1-Phenyl-1-pentanol", "1-Phenyl-1-hydroxy-n-pentane", "Fenipentol", "\u03b1-Butylbenzyl alcohol", "Phenylbutylcarbinol", "Pancoral", "1-Phenyl-1-hydroxypentane", "(\u00b1)-1-Phenyl-1-pentanol", "(\u00b1)-\u03b1-Butylbenzyl alcohol", "Ph BC", "PC 1", "NSC 8478"], "SMILES": "C(CCCC)(O)C1=CC=CC=C1", "physical_data": {"Molecular Weight": "164.24", "Molecular Formula": "C11H16O", "Boiling Point": "123.5 \u00b0C", "Melting Point": "&lt;25 \u00b0C", "Density": "0.966 g/cm\u00b3 @ Temp: 24 \u00b0C"}}