{"cas_no": "583-19-7", "cn_name": "\u90bb\u6eb4\u82ef\u4e59\u919a", "en_name": ["1-Bromo-2-ethoxybenzene", "Benzene, 1-bromo-2-ethoxy-", "Phenetole, o-bromo-", "1-Bromo-2-ethoxybenzene", "o-Ethoxybromobenzene", "o-Bromophenetole", "2-Ethoxyphenyl bromide", "o-Ethoxyphenyl bromide", "2-Ethoxybromobenzene", "NSC 8054", "2-Bromo-1-ethoxybenzene", "o-Bromoethoxybenzene"], "SMILES": "O(CC)C1=C(Br)C=CC=C1", "physical_data": {"Molecular Weight": "201.06", "Molecular Formula": "C8H9BrO", "Boiling Point": "221-224 \u00b0C", "Melting Point": "201-202 \u00b0C"}}