{"cas_no": "583-59-5", "cn_name": "2-\u7532\u57fa\u73af\u5df1\u9187", "en_name": ["2-Methylcyclohexanol", "Cyclohexanol, 2-methyl-", "2-Methylcyclohexanol", "1-Methyl-2-cyclohexanol", "2-Methyl-1-cyclohexanol", "2-Methylcyclohexyl alcohol", "NSC 75845"], "SMILES": "CC1C(O)CCCC1", "physical_data": {"Molecular Weight": "114.19", "Molecular Formula": "C7H14O", "Boiling Point": "165-166 \u00b0C", "Melting Point": "-9.5 \u00b0C", "Density": "0.93 g/cm\u00b3"}}