{"cas_no": "583-60-8", "cn_name": "2-\u7532\u57fa\u73af\u5df1\u916e", "en_name": ["2-Methylcyclohexanone", "Cyclohexanone, 2-methyl-", "2-Methylcyclohexanone", "2-Methyl-1-cyclohexanone", "\u03b1-Methylcyclohexanone", "(\u00b1)-2-Methylcyclohexanone", "2-Methylcyclohexane-1-one", "NSC 524"], "SMILES": "CC1C(=O)CCCC1", "physical_data": {"Molecular Weight": "112.17", "Molecular Formula": "C7H12O", "Boiling Point": "165.1 \u00b0C", "Melting Point": "-14 \u00b0C", "Density": "0.925 g/cm\u00b3 @ Temp: 20 \u00b0C"}}