{"cas_no": "583-68-6", "cn_name": "2-\u6eb4-4-\u7532\u57fa\u82ef\u80fa", "en_name": ["2-Bromo-4-methylaniline", "Benzenamine, 2-bromo-4-methyl-", "p-Toluidine, 2-bromo-", "2-Bromo-4-methylbenzenamine", "2-Bromo-4-methylaniline", "2-Bromo-p-toluidine", "2-Bromo-4-toluidine", "o-Bromo-p-toluidine", "4-Amino-3-bromotoluene", "4-Methyl-2-bromoaniline", "2-Bromo-4-methylphenylamine", "3-Bromo-4-aminotoluene", "NSC 7092"], "SMILES": "BrC1=C(N)C=CC(C)=C1", "physical_data": {"Molecular Weight": "186.05", "Molecular Formula": "C7H8BrN", "Boiling Point": "240 \u00b0C", "Melting Point": "26 \u00b0C"}}