{"cas_no": "583-08-4", "cn_name": "\u70df\u9170\u7518\u6c28\u9178", "en_name": ["Nicotinuric acid", "Glycine, N-(3-pyridinylcarbonyl)-", "Glycine, N-nicotinoyl-", "N-(3-Pyridinylcarbonyl)glycine", "Nicotinylglycine", "Nicotinoylglycine", "Nicotinuric acid", "NSC 71273", "2-(Nicotinylamino)acetic acid", "(Nicotinoylamino)acetic acid", "[(Pyridin-3-ylcarbonyl)amino]acetic acid", "2-[(Pyridin-3-yl)formamido]acetic acid", "2-(Pyridin-3-ylformamido)acetic acid", "2-(Nicotinamido)aceticacid", "2-(Pyridine-3-carbonylamino)acetic acid"], "SMILES": "C(NCC(O)=O)(=O)C=1C=CC=NC1", "physical_data": {"Molecular Weight": "180.16", "Molecular Formula": "C8H8N2O3", "Boiling Point": "85-90 \u00b0C @ Press: 12-20 Torr", "Melting Point": "242-244 \u00b0C (decomp)", "Density": "1.49 g/cm\u00b3"}}