{"cas_no": "583-05-1", "cn_name": "1-\u82ef\u57fa-1,4-\u620a\u4e8c\u916e", "en_name": ["1-Phenyl-1,4-pentanedione", "1,4-Pentanedione, 1-phenyl-", "1-Phenyl-1,4-pentanedione", "Phenacylacetone", "Levulinophenone", "5-Phenyl-2,5-pentanedione", "4-Benzoyl-2-butanone"], "SMILES": "C(CCC(C)=O)(=O)C1=CC=CC=C1", "physical_data": {"Molecular Weight": "176.21", "Molecular Formula": "C11H12O2", "Boiling Point": "109-112 \u00b0C @ Press: 0.35 Torr", "Melting Point": "138 \u00b0C"}}