{"cas_no": "583-48-2", "cn_name": "3,4-\u4e8c\u7532\u57fa\u5df1\u70f7", "en_name": ["3,4-Dimethylhexane", "Hexane, 3,4-dimethyl-", "3,4-Dimethylhexane", "NSC 74173"], "SMILES": "C(C(CC)C)(CC)C", "physical_data": {"Molecular Weight": "114.23", "Molecular Formula": "C8H18", "Boiling Point": "117.7 \u00b0C", "Density": "0.7270 g/cm\u00b3 @ Temp: 15 \u00b0C"}}