{"cas_no": "583-58-4", "cn_name": "3,4-\u4e8c\u7532\u57fa\u5421\u5576", "en_name": ["3,4-Dimethylpyridine", "Pyridine, 3,4-dimethyl-", "3,4-Lutidine", "3,4-Dimethylpyridine", "NSC 4675"], "SMILES": "CC=1C(C)=CN=CC1", "physical_data": {"Molecular Weight": "107.15", "Molecular Formula": "C7H9N", "Boiling Point": "179.1 \u00b0C", "Melting Point": "-11 \u00b0C", "Density": "0.9537 g/cm\u00b3 @ Temp: 26 \u00b0C"}}