{"cas_no": "583-06-2", "cn_name": "3-\u82ef\u7532\u9170\u4e19\u70ef\u9178", "en_name": ["4-Oxo-4-phenyl-2-butenoic acid", "2-Butenoic acid, 4-oxo-4-phenyl-", "Acrylic acid, 3-benzoyl-", "Acrylic acid, \u03b2-benzoyl-", "4-Oxo-4-phenyl-2-butenoic acid", "4-Oxo-4-phenylcrotonic acid", "\u03b2-Benzoylacrylic acid", "3-Benzoylacrylic acid", "Benzoylacrylic acid", "NSC 143"], "SMILES": "C(C=CC(O)=O)(=O)C1=CC=CC=C1", "physical_data": {"Molecular Weight": "176.17", "Molecular Formula": "C10H8O3", "Boiling Point": "108-112 \u00b0C @ Press: 0.5 Torr", "Melting Point": "98-99 \u00b0C"}}