{"cas_no": "583-61-9", "cn_name": "2,3-\u4e8c\u7532\u57fa\u5421\u5576", "en_name": ["2,3-Lutidine", "Pyridine, 2,3-dimethyl-", "2,3-Lutidine", "2,3-Dimethylpyridine", "NSC 2157"], "SMILES": "CC1=C(C)N=CC=C1", "physical_data": {"Molecular Weight": "107.15", "Molecular Formula": "C7H9N", "Boiling Point": "161.2 \u00b0C", "Melting Point": "183-184 \u00b0C", "Density": "0.9419 g/cm\u00b3 @ Temp: 26 \u00b0C"}}