{"cas_no": "583-57-3", "cn_name": "1,2-\u4e8c\u7532\u57fa\u73af\u4e59\u70f7", "en_name": ["1,2-Dimethylcyclohexane", "Cyclohexane, 1,2-dimethyl-", "1,2-Dimethylcyclohexane", "o-Dimethylcyclohexane", "NSC 43769"], "SMILES": "CC1C(C)CCCC1", "physical_data": {"Molecular Weight": "112.21", "Molecular Formula": "C8H16", "Boiling Point": "124 \u00b0C", "Density": "0.8234 g/cm\u00b3 @ Temp: 20 \u00b0C"}}