{"cas_no": "583-71-1", "cn_name": "4-\u6eb4-1,2-\u4e8c\u7532\u82ef", "en_name": ["4-Bromo-o-xylene", "Benzene, 4-bromo-1,2-dimethyl-", "o-Xylene, 4-bromo-", "4-Bromo-1,2-dimethylbenzene", "1-Bromo-3,4-dimethylbenzene", "3,4-Dimethylbromobenzene", "4-Bromo-o-xylene", "4-Bromo-1,2-xylene", "3,4-Xylyl bromide", "3,4-Dimethylphenyl bromide", "NSC 60147"], "SMILES": "CC1=C(C)C=CC(Br)=C1", "physical_data": {"Molecular Weight": "185.06", "Molecular Formula": "C8H9Br", "Boiling Point": "214.5 \u00b0C", "Melting Point": "-0.2 \u00b0C", "Density": "1.3640 g/cm\u00b3 @ Temp: 20 \u00b0C"}}