{"cas_no": "583-42-6", "cn_name": "2-\u5def\u57fa-5-\u6c1f\u82ef\u5e76\u54aa\u5511", "en_name": ["5-Fluoro-1,3-dihydro-2H-benzimidazole-2-thione", "2H-Benzimidazole-2-thione, 5-fluoro-1,3-dihydro-", "2-Benzimidazolethiol, 5-fluoro-", "2-Benzimidazolethiol, 5(or 6)-fluoro-", "5-Fluoro-1,3-dihydro-2H-benzimidazole-2-thione", "5-Fluoro-2-benzimidazolethiol", "5-Fluoro-2-mercaptobenzimidazole", "5-Fluoro-2-mercapto-1H-benzimidazole", "5-Fluoro-1H-benzimidazole-2-thiol", "5-Fluoro-1,3-dihydrobenzimidazole-2-thione"], "SMILES": "S=C1NC=2C(N1)=CC(F)=CC2", "physical_data": {"Molecular Weight": "168.19", "Molecular Formula": "C7H5FN2S", "Melting Point": "280 \u00b0C"}}