{"cas_no": "583-15-3", "cn_name": "\u82ef\u7532\u9178\u6c5e", "en_name": ["Benzoic acid, mercury(2+) salt (2:1)", "Benzoic acid, mercury(2+) salt (2:1)", "Benzoic acid, mercury(2+) salt", "Mercury benzoate", "Mercuric benzoate", "\u03b2-Mercuribenzoate", "Mercury(II) benzoate", "Mercuribenzoate"], "SMILES": "C(O)(=O)C1=CC=CC=C1.[Hg]", "physical_data": {"Molecular Weight": "", "Molecular Formula": "C7H6O2.<sup>1</sup>/2Hg", "Melting Point": "165 \u00b0C"}}