{"cas_no": "583-69-7", "cn_name": "\u6eb4\u7f9f\u57fa\u55b9\u5549", "en_name": ["2-Bromo-1,4-benzenediol", "1,4-Benzenediol, 2-bromo-", "Hydroquinone, bromo-", "2-Bromo-1,4-benzenediol", "Bromohydroquinone", "2-Bromoquinol", "2-Bromohydroquinone", "2-Bromo-1,4-hydroquinone", "2-Bromo-1,4-dihydroxybenzene", "1-Bromo-2,5-dihydroxybenzene", "NSC 3977"], "SMILES": "BrC1=C(O)C=CC(O)=C1", "physical_data": {"Molecular Weight": "189.01", "Molecular Formula": "C6H5BrO2", "Melting Point": "111.5 \u00b0C"}}