{"cas_no": "58306-30-2", "cn_name": "\u975e\u73ed\u592a\u5c14", "en_name": ["Febantel", "Carbamic acid, N,N\u2032-[[2-[(2-methoxyacetyl)amino]-4-(phenylthio)phenyl]carbonimidoyl]bis-, C,C\u2032-dimethyl ester", "Carbamic acid, [[2-[(methoxyacetyl)amino]-4-(phenylthio)phenyl]carbonimidoyl]bis-, dimethyl ester", "Febantel", "Rintal", "N-([[2-(2-Methoxyacetamido)-4-(phenylsulfanyl)phenyl]amino][(methoxycarbonyl)imino]methyl)carbamate"], "SMILES": "N(C(COC)=O)C1=C(N=C(NC(OC)=O)NC(OC)=O)C=CC(SC2=CC=CC=C2)=C1", "physical_data": {"Molecular Weight": "446.48", "Molecular Formula": "C20H22N4O6S", "Melting Point": "129.5 \u00b0C"}}