{"cas_no": "5830-30-8", "cn_name": "N,N-\u4e8c\u7532\u57fa\u5df1\u9170\u80fa", "en_name": ["N,N-Dimethylhexanamide", "Hexanamide, N,N-dimethyl-", "Caproamide, N,N-dimethyl-", "N,N-Dimethylhexanamide", "N,N-Dimethylcaproamide", "Avignasol"], "SMILES": "C(CCCCC)(N(C)C)=O", "physical_data": {"Molecular Weight": "143.23", "Molecular Formula": "C8H17NO", "Boiling Point": "123 \u00b0C @ Press: 25 Torr"}}