{"cas_no": "58316-41-9", "cn_name": "\u67f4\u80e1\u7682\u7519 B2", "en_name": ["Saikosaponin B2", "\u03b2-D-Galactopyranoside, (3\u03b2,4\u03b1,16\u03b1)-16,23,28-trihydroxyoleana-11,13(18)-dien-3-yl 6-deoxy-3-O-\u03b2-D-glucopyranosyl-", "(3\u03b2,4\u03b1,16\u03b1)-16,23,28-Trihydroxyoleana-11,13(18)-dien-3-yl 6-deoxy-3-O-\u03b2-D-glucopyranosyl-\u03b2-D-galactopyranoside", "Saikosaponin B2"], "SMILES": "CC12C(=C3C(CO)(C(O)C1)CCC(C)(C)C3)C=CC4C2(C)CCC5C4(C)CCC(OC6C(O)C(OC7OC(CO)C(O)C(O)C7O)C(O)C(C)O6)C5(CO)C", "physical_data": {"Molecular Weight": "780.98", "Molecular Formula": "C42H68O13", "Melting Point": "201-203 \u00b0C"}}