{"cas_no": "58327-75-6", "cn_name": "3-\u6c28\u57fa\u567b\u5429[2,3-B]\u5421\u5576-2-\u7fa7\u9178", "en_name": ["3-Aminothieno[2,3-b]pyridine-2-carboxylic acid", "Thieno[2,3-b]pyridine-2-carboxylic acid, 3-amino-", "3-Aminothieno[2,3-b]pyridine-2-carboxylic acid", "NSC 284503"], "SMILES": "NC=1C=2C(SC1C(O)=O)=NC=CC2", "physical_data": {"Molecular Weight": "194.21", "Molecular Formula": "C8H6N2O2S", "Melting Point": "164 \u00b0C (decomp)"}}