{"cas_no": "5832-44-0", "cn_name": "3-\u785d\u57fa-4-\u7532\u57fa\u5421\u5576", "en_name": ["4-Methyl-3-nitropyridine", "Pyridine, 4-methyl-3-nitro-", "4-Picoline, 3-nitro-", "4-Methyl-3-nitropyridine", "3-Nitro-4-picoline"], "SMILES": "N(=O)(=O)C=1C(C)=CC=NC1", "physical_data": {"Molecular Weight": "138.12", "Molecular Formula": "C6H6N2O2", "Boiling Point": "85 \u00b0C @ Press: 3 Torr"}}