{"cas_no": "5832-01-9", "cn_name": "5-\u785d\u57fa-\u567b\u5429-2-\u7532\u9178\u7532\u916f", "en_name": ["2-Thiophenecarboxylic acid, 5-nitro-, methyl ester", "2-Thiophenecarboxylic acid, 5-nitro-, methyl ester", "Methyl 5-nitro-2-thiophenecarboxylate", "5-Nitro-2-(methoxycarbonyl)thiophene", "Methyl 5-nitro-2-thienylcarboxylate"], "SMILES": "C(OC)(=O)C=1SC(N(=O)=O)=CC1", "physical_data": {"Molecular Weight": "187.17", "Molecular Formula": "C6H5NO4S", "Melting Point": "76 \u00b0C"}}