{"cas_no": "58320-73-3", "cn_name": "\u805a\u4e59\u4e8c\u9187\u7532\u919a\u7532\u82ef\u78fa\u9178\u916f, M.W. 13,000", "en_name": ["Polyethylene glycol monomethyl ether tosylate", "Poly(oxy-1,2-ethanediyl), \u03b1-[(4-methylphenyl)sulfonyl]-\u03c9-methoxy-", "Poly(ethylene glycol) methyl ether tosylate", "Polyethylene glycol monomethyl ether tosylate", "Poly(ethylene glycol) tosylate monomethyl ether", "Poly(ethylene glycol) monotosyl monomethyl ether", "Polyethylene glycol monomethyl ether mono(p-tosylate)", "Polyethylene glycol methyl ether p-toluenesulfonate", "p-Toluenesulfonyl poly(ethylene glycol) methyl ether", "Polyethylene glycol p-toluenesulfonate methyl ether", "Methoxypolyethylene glycol tosylate", "PEG monomethyl ether tosylate"], "SMILES": "S(OCCOC)(=O)(=O)C1=CC=C(C)C=C1", "physical_data": {"Molecular Weight": "", "Molecular Formula": "(C2H4O)nC8H10O3S", "Melting Point": "54 \u00b0C"}}