{"cas_no": "5833-47-6", "cn_name": "1,1,-\u4e8c\u7532\u57fa-1,2-\u7845\u6c27\u6742\u73af\u5df1\u70f7", "en_name": ["2,2-Dimethyl-1-oxa-2-silacyclohexane", "1-Oxa-2-silacyclohexane, 2,2-dimethyl-", "2,2-Dimethyl-1-oxa-2-silacyclohexane", "1-Oxa-2,2-dimethyl-2-silacyclohexane", "1,1-Dimethyl-1-sila-2-oxacyclohexane", "1,1-Dimethyl-2-oxy-1-silacyclohexane", "2,2-Dimethyloxasilinane", "2,2-Dimethyl-1,2-oxasilinane"], "SMILES": "C[Si]1(C)CCCCO1", "physical_data": {"Molecular Weight": "130.26", "Molecular Formula": "C6H14OSi", "Boiling Point": "122-125 \u00b0C", "Melting Point": "122-125 \u00b0C", "Density": "0.8820 g/cm\u00b3 @ Temp: 20 \u00b0C"}}