{"cas_no": "58336-35-9", "cn_name": "\u9999\u8c46\u7d206H", "en_name": ["2,3,6,7-Tetrahydro-1H,5H,11H-[1]benzopyrano[6,7,8-ij]quinolizin-11-one", "1H,5H,11H-[1]Benzopyrano[6,7,8-ij]quinolizin-11-one, 2,3,6,7-tetrahydro-", "2,3,6,7-Tetrahydro-1H,5H,11H-[1]benzopyrano[6,7,8-ij]quinolizin-11-one", "Exciton LD 490", "LD 490", "C 6H (dye)", "Coumarin C 6H", "Coumarin 6H", "C 6H", "2,3,5,6-Tetrahydro-1H,4H-11-oxa-3a-aza-benzo[de]anthracen-10-one", "2,3,6,7-Tetrahydro-1H-pyrano[2,3-f]pyrido[3,2,1-ij]quinolin-11(5H)-one"], "SMILES": "O=C1OC2=C3C4=C(C=C2C=C1)CCCN4CCC3", "physical_data": {"Molecular Weight": "241.29", "Molecular Formula": "C15H15NO2", "Melting Point": "127-129 \u00b0C"}}