{"cas_no": "58331-97-8", "cn_name": "4-\u6c2f-2-\u6c30\u57fa\u82ef\u7532\u9178\u7532\u916f", "en_name": ["Benzoic acid, 4-chloro-2-cyano-, methyl ester", "Benzoic acid, 4-chloro-2-cyano-, methyl ester", "Methyl 4-chloro-2-cyanobenzoate"], "SMILES": "C(OC)(=O)C1=C(C#N)C=C(Cl)C=C1", "physical_data": {"Molecular Weight": "195.60", "Molecular Formula": "C9H6ClNO2", "Melting Point": "115-117 \u00b0C"}}