{"cas_no": "58349-17-0", "cn_name": "\u7f57\u66ff\u6208\u6c40\u4e2d\u95f4\u4f53\u4e00", "en_name": ["2-Naphthalenamine, 1,2,3,4-tetrahydro-5-methoxy-, hydrochloride (1:1), (2S)-", "2-Naphthalenamine, 1,2,3,4-tetrahydro-5-methoxy-, hydrochloride (1:1), (2S)-", "2-Naphthalenamine, 1,2,3,4-tetrahydro-5-methoxy-, hydrochloride, (S)-", "2-Naphthalenamine, 1,2,3,4-tetrahydro-5-methoxy-, hydrochloride, (2S)-", "(S)-2-Amino-5-methoxytetralin hydrochloride"], "SMILES": "O(C)C1=C2C(CC(N)CC2)=CC=C1.Cl", "physical_data": {"Molecular Weight": "", "Molecular Formula": "C11H15NO.ClH", "Melting Point": "262-265 \u00b0C"}}