{"cas_no": "5834-16-2", "cn_name": "3-\u7532\u57fa\u567b\u5429\u919b", "en_name": ["3-Methyl-2-thiophenecarboxaldehyde", "2-Thiophenecarboxaldehyde, 3-methyl-", "3-Methyl-2-thiophenecarboxaldehyde", "3-Methylthiophene-2-aldehyde", "2-Formyl-3-methylthiophene", "3-Methyl-2-formylthiophene", "3-Methylthiophene-2-carbaldehyde"], "SMILES": "C(=O)C1=C(C)C=CS1", "physical_data": {"Molecular Weight": "126.18", "Molecular Formula": "C6H6OS", "Boiling Point": "65 \u00b0C @ Press: 2.2 Torr", "Melting Point": "260-262 \u00b0C"}}