{"cas_no": "5834-17-3", "cn_name": "2-\u7532\u6c27\u57fa-3-\u4e8c\u82ef\u5e76\u544b\u5583\u80fa", "en_name": ["2-Methoxy-3-dibenzofuranamine", "3-Dibenzofuranamine, 2-methoxy-", "2-Methoxy-3-dibenzofuranamine", "3-Amino-2-methoxydibenzofuran", "2-Methoxy-3-aminodibenzofuran", "(2-Methoxydibenzofuran-3-yl)amine", "3-Amino-2-methoxybenzofuran", "2-Methoxydibenzo[b,d]furan-3-amine"], "SMILES": "O(C)C=1C=C2C=3C(OC2=CC1N)=CC=CC3", "physical_data": {"Molecular Weight": "213.23", "Molecular Formula": "C13H11NO2", "Melting Point": "93 \u00b0C"}}