{"cas_no": "5835-26-7", "cn_name": "\u5f02\u6d77\u677e\u9178", "en_name": ["Isopimaric acid", "1-Phenanthrenecarboxylic acid, 7-ethenyl-1,2,3,4,4a,4b,5,6,7,8,10,10a-dodecahydro-1,4a,7-trimethyl-, (1R,4aR,4bS,7S,10aR)-", "Podocarp-7-en-15-oic acid, 13\u03b2-methyl-13-vinyl-, (-)-", "Isopimaric acid", "1-Phenanthrenecarboxylic acid, 7-ethenyl-1,2,3,4,4a,4b,5,6,7,8,10,10a-dodecahydro-1,4a,7-trimethyl-, [1R-(1\u03b1,4a\u03b2,4b\u03b1,7\u03b1,10a\u03b1)]-", "Podocarp-7-en-15-oic acid, 13\u03b2-methyl-13-vinyl-", "(1R,4aR,4bS,7S,10aR)-7-Ethenyl-1,2,3,4,4a,4b,5,6,7,8,10,10a-dodecahydro-1,4a,7-trimethyl-1-phenanthrenecarboxylic acid", "7,15-Isopimaradien-18-oic acid", "\u03947,15-Isopimaric acid", "(+)-Isopimaric acid", "Isopimaric acid A"], "SMILES": "CC12C(C(C(O)=O)(C)CCC1)CC=C3C2CCC(C=C)(C)C3", "physical_data": {"Molecular Weight": "302.45", "Molecular Formula": "C20H30O2", "Melting Point": "160 \u00b0C"}}