{"cas_no": "58366-64-6", "cn_name": "5-\u7532\u57fa\u80de\u5627\u5576\u76d0\u9178\u76d0", "en_name": ["2(1H)-Pyrimidinone, 6-amino-5-methyl-, hydrochloride (1:1)", "2(1H)-Pyrimidinone, 6-amino-5-methyl-, hydrochloride (1:1)", "2(1H)-Pyrimidinone, 4-amino-5-methyl-, monohydrochloride", "Cytosine, 5-methyl-, hydrochloride", "5-Methylcytosine hydrochloride"], "SMILES": "NC1=C(C)C=NC(=O)N1.Cl", "physical_data": {"Molecular Weight": "", "Molecular Formula": "C5H7N3O.ClH", "Melting Point": "299-301 \u00b0C"}}