{"cas_no": "5836-10-2", "cn_name": "\u4e19\u916f\u6740\u87a8\u9187", "en_name": ["Chloropropylate", "Benzeneacetic acid, 4-chloro-\u03b1-(4-chlorophenyl)-\u03b1-hydroxy-, 1-methylethyl ester", "Benzilic acid, 4,4\u2032-dichloro-, isopropyl ester", "ENT 26999", "Isopropyl 4,4\u2032-dichlorobenzilate", "Acaralate", "Chloropropylate", "Rospin", "Rospine"], "SMILES": "C(C(OC(C)C)=O)(O)(C1=CC=C(Cl)C=C1)C2=CC=C(Cl)C=C2", "physical_data": {"Molecular Weight": "339.21", "Molecular Formula": "C17H16Cl2O3", "Boiling Point": "148-150 \u00b0C @ Press: 0.5 Torr", "Melting Point": "73 \u00b0C", "Density": "1.36 g/cm\u00b3 @ Temp: 20 \u00b0C"}}