{"cas_no": "5836-29-3", "cn_name": "\u6740\u9f20\u919a", "en_name": ["Coumatetralyl", "2H-1-Benzopyran-2-one, 4-hydroxy-3-(1,2,3,4-tetrahydro-1-naphthalenyl)-", "Coumarin, 4-hydroxy-3-(1,2,3,4-tetrahydro-1-naphthyl)-", "4-Hydroxy-3-(1,2,3,4-tetrahydro-1-naphthalenyl)-2H-1-benzopyran-2-one", "Coumatetralyl", "Racumin", "3-(\u03b1-Tetralyl)-4-Hydroxycoumarin", "4-Hydroxy-3-(1,2,3,4-tetrahydro-1-naphthyl)coumarin", "3-(1,2,3,4-Tetrahydro-1-naphthyl)-4-hydroxycoumarin", "3-(\u03b1-Tetralinyl)-4-hydroxycoumarin", "Rodentin", "Endrocide", "Racumin 57", "Murisan A"], "SMILES": "OC1=C(C2C=3C(CCC2)=CC=CC3)C(=O)OC=4C1=CC=CC4", "physical_data": {"Molecular Weight": "292.33", "Molecular Formula": "C19H16O3", "Melting Point": "172-176 \u00b0C"}}