{"cas_no": "5837-73-0", "cn_name": "DL-2-\u7f9f\u57fa-3-\u4e01\u70ef\u9178\u7532\u916f", "en_name": ["3-Butenoic acid, 2-hydroxy-, methyl ester", "3-Butenoic acid, 2-hydroxy-, methyl ester", "Methyl 2-hydroxy-3-butenoate", "2-Hydroxy-3-butenoic acid methyl ester", "Methyl vinylglycolate"], "SMILES": "C(C(OC)=O)(C=C)O", "physical_data": {"Molecular Weight": "116.12", "Molecular Formula": "C5H8O3", "Boiling Point": "82.5 \u00b0C @ Press: 15 Torr", "Density": "1.091 g/cm\u00b3 @ Temp: 20 \u00b0C"}}