{"cas_no": "5837-78-5", "cn_name": "\u60d5\u5404\u9178\u4e59\u916f", "en_name": ["Ethyl tiglate", "2-Butenoic acid, 2-methyl-, ethyl ester, (2E)-", "Crotonic acid, 2-methyl-, ethyl ester, (E)-", "Tiglic acid, ethyl ester", "2-Butenoic acid, 2-methyl-, ethyl ester, (E)-", "Ethyl tiglate", "Ethyl \u03b1-methylcrotonate", "(E)-2-Methyl-2-butenoic acid ethyl ester", "NSC 55278", "(E)-Ethyl 2-methylbut-2-enoate", "Ethyl (2E)-2-methyl-2-butenoate", "Ethyl trans-2-methyl-2-butenoate", "(E)-2-Methylbut-2-enoic acid ethyl ester"], "SMILES": "C(C(=CC)C)(OCC)=O", "physical_data": {"Molecular Weight": "128.17", "Molecular Formula": "C7H12O2", "Boiling Point": "156 \u00b0C"}}