{"cas_no": "584-85-0", "cn_name": "L-\u9e45\u808c\u80bd", "en_name": ["Anserine", "L-Histidine, \u03b2-alanyl-3-methyl-", "Anserine", "L-Histidine, N-\u03b2-alanyl-3-methyl-", "Histidine, N-\u03b2-alanyl-3-methyl-, L-", "\u03b2-Alanyl-3-methyl-L-histidine", "L-Anserine", "Marine Active", "1: PN: WO2009033771 PAGE: 100 claimed protein", "MeSH ID: D000861"], "SMILES": "C(C(NC(CCN)=O)C(O)=O)C=1N(C)C=NC1", "physical_data": {"Molecular Weight": "240.26", "Molecular Formula": "C10H16N4O3", "Melting Point": "231-232 \u00b0C"}}