{"cas_no": "584-02-1", "cn_name": "3-\u620a\u9187", "en_name": ["3-Pentanol", "3-Pentanol", "Diethyl carbinol", "3-Pentyl alcohol", "1-Ethyl-1-propanol", "sec-Amyl alcohol", "sec-Pentanol", "sec-Pentyl alcohol", "NSC 8654", "1-Ethylpropyl alcohol", "3-Hydroxypentane"], "SMILES": "C(CC)(CC)O", "physical_data": {"Molecular Weight": "88.15", "Molecular Formula": "C5H12O", "Boiling Point": "116 \u00b0C", "Melting Point": "-8 \u00b0C", "Density": "0.8 g/cm\u00b3"}}