{"cas_no": "584-48-5", "cn_name": "1-\u6eb4-2,4-\u4e8c\u785d\u57fa\u82ef", "en_name": ["1-Bromo-2,4-dinitrobenzene", "Benzene, 1-bromo-2,4-dinitro-", "1-Bromo-2,4-dinitrobenzene", "2,4-Dinitrobromobenzene", "4-Bromo-1,3-dinitrobenzene", "o,p-Dinitrophenyl bromide", "2,4-Dinitrophenyl bromide", "6-Bromo-1,3-dinitrobenzene", "NSC 3808", "2-Bromo-1,5-dinitrobenzene", "2,4-Nitrophenyl bromide"], "SMILES": "N(=O)(=O)C1=CC(N(=O)=O)=CC=C1Br", "physical_data": {"Molecular Weight": "247.00", "Molecular Formula": "C6H3BrN2O4", "Melting Point": "51 \u00b0C"}}