{"cas_no": "584-94-1", "cn_name": "2,3-\u4e8c\u7532\u57fa\u5df1\u70f7", "en_name": ["(\u00b1)-2,3-Dimethylhexane", "Hexane, 2,3-dimethyl-", "2,3-Dimethylhexane", "NSC 74170", "(\u00b1)-2,3-Dimethylhexane"], "SMILES": "C(CCC)(C(C)C)C", "physical_data": {"Molecular Weight": "114.23", "Molecular Formula": "C8H18", "Boiling Point": "115.6 \u00b0C", "Density": "0.7246 g/cm\u00b3 @ Temp: 15 \u00b0C"}}