{"cas_no": "584-79-2", "cn_name": "Es-\u751f\u7269\u70ef\u4e19\u83ca\u916f", "en_name": ["Allethrin", "Cyclopropanecarboxylic acid, 2,2-dimethyl-3-(2-methyl-1-propen-1-yl)-, 2-methyl-4-oxo-3-(2-propen-1-yl)-2-cyclopenten-1-yl ester", "Cyclopropanecarboxylic acid, 2,2-dimethyl-3-(2-methylpropenyl)-, ester with 2-allyl-4-hydroxy-3-methyl-2-cyclopenten-1-one", "Cyclopropanecarboxylic acid, 2,2-dimethyl-3-(2-methyl-1-propenyl)-, 2-methyl-4-oxo-3-(2-propenyl)-2-cyclopenten-1-yl ester", "Chrysanthemummonocarboxylic acid, 3-allyl-2-methyl-4-oxo-2-cyclopenten-1-yl ester", "2-Cyclopenten-1-one, 2-allyl-4-hydroxy-3-methyl-, 2,2-dimethyl-3-(2-methylpropenyl)cyclopropanecarboxylate", "2-Allyl-4-hydroxy-3-methyl-2-cyclopenten-1-one ester of 2,2-dimethyl-3-(2-methylpropenyl)cyclopropane carboxylic acid", "3-Allyl-4-keto-2-methylcyclopentenyl chrysanthemummonocarboxylate", "3-Allyl-4-methyl-2-oxo-3-cyclopenten-1-yl ester of 2,2-dimethyl-3-(2-methylpropenyl)cyclopropanecarboxylic acid", "2,2-Dimethyl-3-(2-methyl-1-propenyl)cyclopropanecarboxylic acid, ester with 2-allyl-4-hydroxy-3-methyl-2-cyclopenten-1-one", "Allethrin", "Pynamin", "ENT 17510", "(\u00b1)-Allerethonyl (\u00b1)-cis,trans-chrysanthemate", "Allyl cinerin I", "dl-2-Allyl-4-hydroxy-3-methyl-2-cyclopenten-1-one ester with dl-chrysanthemummonocarboxylic acid", "(\u00b1)-3-Allyl-4-keto-2-methylcyclopent-2-enyl (\u00b1)-cis,trans-chrysanthemummonocarboxylate", "Pyresyn", "Allethrine", "trans-Allethrin", "Exthrin", "Wasp Stopper CF", "Matox", "RU 27436", "EBT", "OMS 3045", "2-Methyl-3-(2-propenyl)-4-oxo-2-cyclopentenyl 2,2-dimethyl-3-(2-methyl-1-propenyl)cyclopropanecarboxylate", "NSC 11782", "dl-Allethrin", "3-(2-Propenyl)-2-methyl-4-oxo-2-cyclopentenyl 3,3-dimethyl-2-(2-methyl-1-propenyl)cyclopropanecarboxylate", "dl, d-T80 allethrin", "Depallethrin", "Depallethrine", "MeSH ID: D000487"], "SMILES": "C(=C(C)C)C1C(C(OC2C(C)=C(CC=C)C(=O)C2)=O)C1(C)C", "physical_data": {"Molecular Weight": "302.41", "Molecular Formula": "C19H26O3", "Boiling Point": "140 \u00b0C @ Press: 0.1 Torr", "Melting Point": "4 \u00b0C", "Density": "1.01 g/cm\u00b3 @ Temp: 20 \u00b0C"}}