{"cas_no": "584-98-5", "cn_name": "(S)-(-)-2-\u6eb4\u4e01\u4e8c\u9178", "en_name": ["Bromosuccinic acid", "Butanedioic acid, 2-bromo-", "Succinic acid, bromo-", "Butanedioic acid, bromo-", "2-Bromobutanedioic acid", "Bromosuccinic acid", "Monobromosuccinic acid", "2-Bromosuccinic acid", "Succinic acid, bromo-, (\u00b1)-", "DL-Bromosuccinic acid", "NSC 227872"], "SMILES": "C(CC(O)=O)(C(O)=O)Br", "physical_data": {"Molecular Weight": "196.98", "Molecular Formula": "C4H5BrO4", "Melting Point": "161 \u00b0C"}}