{"cas_no": "584-93-0", "cn_name": "2-\u6eb4\u620a\u9178", "en_name": ["2-Bromopentanoic acid", "Pentanoic acid, 2-bromo-", "Valeric acid, 2-bromo-", "2-Bromopentanoic acid", "\u03b1-Bromovaleric acid", "\u03b1-Bromopentanoic acid", "2-Bromovaleric acid", "DL-\u03b1-Bromovaleric acid", "(\u00b1)-\u03b1-Bromopentanoic acid", "(\u00b1)-2-Bromovaleric acid", "(\u00b1)-2-Bromopentanoic acid", "NSC 184"], "SMILES": "C(CCC)(C(O)=O)Br", "physical_data": {"Molecular Weight": "181.03", "Molecular Formula": "C5H9BrO2", "Boiling Point": "132-135 \u00b0C", "Melting Point": "252 \u00b0C (sublm)", "Density": "1.4750 g/cm\u00b3 @ Temp: 20 \u00b0C"}}