{"cas_no": "584-13-4", "cn_name": "4-\u6c28\u57fa-1,2,4-\u4e09\u6c2e\u5511", "en_name": ["4-Amino-1,2,4-triazole", "4H-1,2,4-Triazol-4-amine", "4H-1,2,4-Triazole, 4-amino-", "4-Amino-1,2,4-triazole", "4-Amino-1,2,4(4H)-triazole", "4-Amino-4H-1,2,4-triazole", "1-Amino-1H-1,3,4-triazole", "1-Amino-1,3,4-triazole", "1,2,4-Triazol-4-amine", "1,2,4-Triazol-4-ylamine", "1,2,4-Triazole-4-amine", "NSC 3263", "NSC 7242", "A 1137"], "SMILES": "NN1C=NN=C1", "physical_data": {"Molecular Weight": "84.08", "Molecular Formula": "C2H4N4", "Melting Point": "81 \u00b0C"}}