{"cas_no": "584-84-9", "cn_name": "\u7532\u82ef-2,4-\u4e8c\u5f02\u6c30\u9178\u916f", "en_name": ["Toluene 2,4-diisocyanate", "Benzene, 2,4-diisocyanato-1-methyl-", "Isocyanic acid, 4-methyl-m-phenylene ester", "2,4-Diisocyanato-1-methylbenzene", "2,4-Tolylene diisocyanate", "2,4-Toluylene diisocyanate", "2,4-Diisocyanatotoluene", "Toluene 2,4-diisocyanate", "2,4-Toluene diisocyanate", "4-Methyl-m-phenylene isocyanate", "4-Methyl-m-phenylene diisocyanate", "2,4-TDI", "4-Methyl-1,3-phenylene diisocyanate", "1,3-Diisocyanato-4-methylbenzene", "NSC 4791", "NSC 56759", "TDI 100", "TDI T 100", "T 100", "4-Methylbenzene-1,3-diyl diisocyanate", "T 830062", "HT 100 (ester)", "HT 100", "MeSH ID: D014051"], "SMILES": "N(=C=O)C1=CC(N=C=O)=CC=C1C", "physical_data": {"Molecular Weight": "174.16", "Molecular Formula": "C9H6N2O2", "Boiling Point": "251 \u00b0C @ Press: 760 Torr", "Melting Point": "19.5-21.5 \u00b0C", "Density": "1.2244 g/cm\u00b3 @ Temp: 20 \u00b0C"}}