{"cas_no": "584-08-7", "cn_name": "\u78b3\u9178\u94be", "en_name": ["Potassium carbonate", "Carbonic acid, potassium salt (1:2)", "Potassium carbonate (K2CO3)", "Carbonic acid, dipotassium salt", "Pearl ash", "Potassium carbonate (K2(CO3))", "Dipotassium carbonate", "Potassium carbonate (2:1)", "Potash", "Potassium carbonate", "Salt of tartar", "Sorb KX 35", "FG", "DCAD Plus", "CLIMB", "PX 1390-1", "EF 80", "LH 90"], "SMILES": "C(=O)(O)O.[K]", "physical_data": {"Molecular Weight": "", "Molecular Formula": "CH2O3.2K", "Melting Point": "891 \u00b0C", "Density": "2.29 g/cm\u00b3"}}