{"cas_no": "58401-43-7", "cn_name": "3-\u6c28\u57fa-4-\u6c2f\u55b9\u5549", "en_name": ["4-Chloro-3-quinolinamine", "3-Quinolinamine, 4-chloro-", "4-Chloro-3-quinolinamine", "3-Amino-4-chloroquinoline", "4-Chloroquinolin-3-ylamine"], "SMILES": "ClC=1C2=C(N=CC1N)C=CC=C2", "physical_data": {"Molecular Weight": "178.62", "Molecular Formula": "C9H7ClN2", "Melting Point": "142-143 \u00b0C"}}