{"cas_no": "5841-63-4", "cn_name": "5-PHENYLOXAZOLIDINE-2,4-DIONE", "en_name": ["5-Phenyloxazolidinedione", "2,4-Oxazolidinedione, 5-phenyl-", "5-Phenyl-2,4-oxazolidinedione", "5-Phenyloxazolidinedione", "2-Oxo-5-phenyl-4-oxazolidinone", "5-Phenyl-2,4-dioxooxazolidine", "NSC 27303"], "SMILES": "O=C1C(OC(=O)N1)C2=CC=CC=C2", "physical_data": {"Molecular Weight": "177.16", "Molecular Formula": "C9H7NO3", "Melting Point": "108 \u00b0C"}}