{"cas_no": "58414-52-1", "cn_name": "\u567b\u5429-3-\u4e59\u9178\u7532\u916f", "en_name": ["3-Thiopheneacetic acid, methyl ester", "3-Thiopheneacetic acid, methyl ester", "Methyl 3-thiopheneacetate", "Methyl 3-thienylacetate", "2-(Thien-3-yl)acetic acid methyl ester", "Methyl 2-(thiophen-3-yl)acetate", "3-Thiophene acetic acid methyl ester", "Methyl 2-(3-thienyl)acetate"], "SMILES": "C(C(OC)=O)C=1C=CSC1", "physical_data": {"Molecular Weight": "156.20", "Molecular Formula": "C7H8O2S", "Boiling Point": "56-58 \u00b0C @ Press: 1.2 Torr"}}