{"cas_no": "58421-80-0", "cn_name": "4-\u6c2f-8-\u7532\u57fa\u55b9\u5511\u5549", "en_name": ["4-Chloro-8-methylquinazoline", "Quinazoline, 4-chloro-8-methyl-", "4-Chloro-8-methylquinazoline"], "SMILES": "ClC=1C2=C(C(C)=CC=C2)N=CN1", "physical_data": {"Molecular Weight": "178.62", "Molecular Formula": "C9H7ClN2", "Melting Point": "129-130 \u00b0C"}}