{"cas_no": "58438-03-2", "cn_name": "L-3-(2-\u8418\u57fa)-\u4e19\u6c28\u9178", "en_name": ["2-Naphthylalanine", "2-Naphthalenepropanoic acid, \u03b1-amino-, (\u03b1S)-", "2-Naphthalenepropanoic acid, \u03b1-amino-, (S)-", "(\u03b1S)-\u03b1-Amino-2-naphthalenepropanoic acid", "3-(2-Naphthyl)-L-alanine", "L-3-(2-Naphthyl)alanine", "(S)-3-(2-Naphthyl)alanine", "\u03b2-2-Naphthyl-L-alanine", "2-Naphthylalanine", "L-\u03b2-(2-Naphthyl)alanine", "(S)-2-Amino-3-(naphthalen-2-yl)propanoic acid", "(2S)-2-Amino-3-(naphthalen-2-yl)propanoic acid", "(2S)-2-Azaniumyl-3-naphthalen-2-ylpropanoate", "2-Naphthalenepropanoic acid \u03b1-amino-, (\u03b1S)-", "3-(2-Napthyl)-L-alanine"], "SMILES": "C(C(C(O)=O)N)C1=CC2=C(C=C1)C=CC=C2", "physical_data": {"Molecular Weight": "215.25", "Molecular Formula": "C13H13NO2", "Melting Point": "262 \u00b0C"}}