{"cas_no": "58430-94-7", "cn_name": "\u4e59\u9178-3,5,5-\u4e09\u7532\u57fa\u5df1\u916f", "en_name": ["3,5,5-Trimethylhexyl acetate", "1-Hexanol, 3,5,5-trimethyl-, 1-acetate", "1-Hexanol, 3,5,5-trimethyl-, acetate", "3,5,5-Trimethylhexyl acetate", "Vanoris", "Neononyl acetate"], "SMILES": "C(CC(C)(C)C)(CCOC(C)=O)C", "physical_data": {"Molecular Weight": "186.29", "Molecular Formula": "C11H22O2", "Boiling Point": "209 \u00b0C @ Press: 760 Torr"}}