{"cas_no": "5843-65-2", "cn_name": "\u53bb\u7532\u4e4c\u836f\u78b1", "en_name": ["Higenamine", "6,7-Isoquinolinediol, 1,2,3,4-tetrahydro-1-[(4-hydroxyphenyl)methyl]-", "Coclaurine, O-demethyl-, (\u00b1)-", "6,7-Isoquinolinediol, 1,2,3,4-tetrahydro-1-[(4-hydroxyphenyl)methyl]-, (\u00b1)-", "1,2,3,4-Tetrahydro-1-[(4-hydroxyphenyl)methyl]-6,7-isoquinolinediol", "(\u00b1)-Norcoclaurine", "Higenamine", "dl-Demethylcoclaurine", "(\u00b1)-O-Demethylcoclaurine", "(\u00b1)-Demethylcoclaurine", "(RS)-Norcoclaurine", "1-[(4-Hydroxyphenyl)methyl]-1,2,3,4-tetrahydroisoquinoline-6,7-diol"], "SMILES": "C(C1C=2C(=CC(O)=C(O)C2)CCN1)C3=CC=C(O)C=C3", "physical_data": {"Molecular Weight": "271.31", "Molecular Formula": "C16H17NO3", "Melting Point": "208-210 \u00b0C"}}