{"cas_no": "58442-17-4", "cn_name": "1H-\u82ef\u5e76\u54aa\u5511-5-\u7532\u919b", "en_name": ["1H-Benzimidazole-6-carboxaldehyde", "1H-Benzimidazole-6-carboxaldehyde", "1H-Benzimidazole-5-carboxaldehyde", "Benzimidazole-6-carboxaldehyde", "Benzimidazole-5-carboxaldehyde", "1H-Benzo[d]imidazole-5-carbaldehyde", "1H-1,3-Benzodiazole-6-carbaldehyde", "1H-1,3-Benzodiazole-5-carbaldehyde"], "SMILES": "C(=O)C=1C=C2C(=CC1)N=CN2", "physical_data": {"Molecular Weight": "146.15", "Molecular Formula": "C8H6N2O", "Melting Point": "163-165 \u00b0C"}}