{"cas_no": "58446-52-9", "cn_name": "\u786c\u8102\u9170\u82ef\u7532\u9170\u7532\u70f7", "en_name": ["1-Phenyl-1,3-eicosanedione", "1,3-Eicosanedione, 1-phenyl-", "1-Phenyl-1,3-eicosanedione", "1-Phenyleicosane-1,3-dione", "\u03b2-Stearoylacetophenone", "Benzoylstearoylmethane", "Karenz DK 1", "Rhodiastab 50", "Stearoylbenzoylmethane", "SBM", "AD 157", "Rhodiastab 55P", "1-Heptadecyl-3-phenylpropanedione", "1-Phenylicosane-1,3-dione"], "SMILES": "C(CC(CCCCCCCCCCCCCCCCC)=O)(=O)C1=CC=CC=C1", "physical_data": {"Molecular Weight": "386.61", "Molecular Formula": "C26H42O2", "Melting Point": "68-69 \u00b0C"}}