{"cas_no": "58458-14-3", "cn_name": "2-\u6c28\u57fa-3-\u4e09\u6c1f\u7532\u57fa\u82ef\u8148", "en_name": ["2-Amino-3-(trifluoromethyl)benzonitrile", "Benzonitrile, 2-amino-3-(trifluoromethyl)-", "2-Amino-3-(trifluoromethyl)benzonitrile", "2-Amino-3-trifluoromethylbenzonitrile"], "SMILES": "C(F)(F)(F)C1=C(N)C(C#N)=CC=C1", "physical_data": {"Molecular Weight": "186.13", "Molecular Formula": "C8H5F3N2", "Melting Point": "72 \u00b0C"}}