{"cas_no": "5845-67-0", "cn_name": "CYCLO(-GLY-LEU)", "en_name": ["Cyclo(glycyl-L-leucyl)", "2,5-Piperazinedione, 3-(2-methylpropyl)-, (3S)-", "2,5-Piperazinedione, 3-isobutyl-, L-", "2,5-Piperazinedione, 3-(2-methylpropyl)-, (S)-", "Cyclo(glycyl-L-leucyl)", "(3S)-3-(2-Methylpropyl)-2,5-piperazinedione", "L-Leucylglycine diketopiperazine", "Cyclo(L-leucylglycyl)", "Cyclo-(Gly-Leu)", "Cyclo(L-leucylglycine)", "(S)-3-Isobutylpiperazine-2,5-dione", "(3S)-3-(2-Methylpropyl)piperazine-2,5-dione", "(s)-3-Isobutylpiperazine-2,5-dione"], "SMILES": "C(C(C)C)C1C(=O)NCC(=O)N1", "physical_data": {"Molecular Weight": "170.21", "Molecular Formula": "C8H14N2O2", "Melting Point": "290 \u00b0C"}}