{"cas_no": "58452-00-9", "cn_name": "3-(\u82c4\u6c27\u57fa)-4-\u7532\u6c27\u57fa\u82ef\u7532\u9178", "en_name": ["3-Benzyloxy-4-methoxybenzoic acid", "Benzoic acid, 4-methoxy-3-(phenylmethoxy)-", "Benzoic acid, 3-(benzyloxy)-4-methoxy-", "4-Methoxy-3-(phenylmethoxy)benzoic acid", "3-Benzyloxy-4-methoxybenzoic acid"], "SMILES": "O(CC1=CC=CC=C1)C2=C(OC)C=CC(C(O)=O)=C2", "physical_data": {"Molecular Weight": "258.27", "Molecular Formula": "C15H14O4", "Melting Point": "108 \u00b0C"}}