{"cas_no": "58461-27-1", "cn_name": "5-\u7532\u57fa-2-(1-\u7532\u4e59\u70ef\u57fa)-4-\u5df1\u70ef-1-\u9187", "en_name": ["(\u00b1)-Lavandulol", "4-Hexen-1-ol, 5-methyl-2-(1-methylethenyl)-", "4-Hexen-1-ol, 2-isopropenyl-5-methyl-", "5-Methyl-2-(1-methylethenyl)-4-hexen-1-ol", "(\u00b1)-Lavandulol", "2-Isopropenyl-5-methyl-4-hexen-1-ol"], "SMILES": "C(CC=C(C)C)(C(C)=C)CO", "physical_data": {"Molecular Weight": "154.25", "Molecular Formula": "C10H18O", "Boiling Point": "100-101 \u00b0C @ Press: 16 Torr", "Density": "0.8798 g/cm\u00b3 @ Temp: 17 \u00b0C"}}