{"cas_no": "5847-59-6", "cn_name": "2-\u6eb4-4-\u785d\u57fa\u82ef\u915a", "en_name": ["2-Bromo-4-nitrophenol", "Phenol, 2-bromo-4-nitro-", "2-Bromo-4-nitrophenol", "NSC 212120"], "SMILES": "N(=O)(=O)C1=CC(Br)=C(O)C=C1", "physical_data": {"Molecular Weight": "218.00", "Molecular Formula": "C6H4BrNO3", "Melting Point": "112.25 \u00b0C"}}