{"cas_no": "58473-74-8", "cn_name": "\u9192\u9686\u9170\u80fa", "en_name": ["(2E)-3-(3-Bromophenyl)-N-ethyl-2-propenamide", "2-Propenamide, 3-(3-bromophenyl)-N-ethyl-, (2E)-", "2-Propenamide, 3-(3-bromophenyl)-N-ethyl-, (E)-", "(2E)-3-(3-Bromophenyl)-N-ethyl-2-propenamide", "Cinromide", "Vumide", "BW 122U"], "SMILES": "C(=CC(NCC)=O)C1=CC(Br)=CC=C1", "physical_data": {"Molecular Weight": "254.12", "Molecular Formula": "C11H12BrNO", "Melting Point": "89-90 \u00b0C"}}