{"cas_no": "58479-61-1", "cn_name": "\u53d4\u4e01\u57fa\u4e8c\u82ef\u57fa\u6c2f\u7845\u70f7", "en_name": ["tert-Butyldiphenylsilyl chloride", "Benzene, 1,1\u2032-[chloro(1,1-dimethylethyl)silylene]bis-", "Silane, chloro(1,1-dimethylethyl)diphenyl-", "1,1\u2032-[Chloro(1,1-dimethylethyl)silylene]bis[benzene]", "tert-Butylchlorodiphenylsilane", "tert-Butyldiphenylchlorosilane", "tert-Butyldiphenylsilyl chloride", "Diphenyl-tert-butylsilyl chloride", "t-Butyldiphenylchlorosilane", "Chlorodiphenyl-tert-butylsilane", "t-Butyldiphenylchlorosilane", "Chloro(1,1-dimethylethyl)diphenylsilane", "NSC 617386", "(1,1-Dimethylethyl)diphenylsilyl chloride", "(Chloro)(tert-butyl)diphenylsilane", "TBDPSCl", "t-Butylchlorodiphenylsilane", "TDBPSCl", "tert-Butylchlorodiphenyl siliane"], "SMILES": "[Si](C(C)(C)C)(Cl)(C1=CC=CC=C1)C2=CC=CC=C2", "physical_data": {"Molecular Weight": "274.86", "Molecular Formula": "C16H19ClSi", "Boiling Point": "90 \u00b0C @ Press: 0.015 Torr", "Density": "1.074 g/cm\u00b3"}}