{"cas_no": "5847-57-4", "cn_name": "2,5-\u4e8c\u6c2f-4-\u785d\u57fa\u82ef\u915a", "en_name": ["2,5-Dichloro-4-nitrophenol", "Phenol, 2,5-dichloro-4-nitro-", "2,5-Dichloro-4-nitrophenol"], "SMILES": "N(=O)(=O)C1=C(Cl)C=C(O)C(Cl)=C1", "physical_data": {"Molecular Weight": "208.00", "Molecular Formula": "C6H3Cl2NO3", "Melting Point": "117 \u00b0C"}}