{"cas_no": "5848-24-8", "cn_name": "N-\u6c30\u57fa-N',S-\u4e8c\u7532\u57fa\u5f02\u786b\u8132", "en_name": ["Methyl N-cyano-N\u2032-methylcarbamimidothioate", "Carbamimidothioic acid, N-cyano-N\u2032-methyl-, methyl ester", "Pseudourea, 3-cyano-1,2-dimethyl-2-thio-", "Pseudourea, 1-cyano-2,3-dimethyl-2-thio-", "Methyl N-cyano-N\u2032-methylcarbamimidothioate", "N-Cyano-N\u2032,S-dimethylisothiourea", "1-Cyano-2,3-dimethyl-2-thiopseudourea"], "SMILES": "C(=NC#N)(NC)SC", "physical_data": {"Molecular Weight": "129.18", "Molecular Formula": "C4H7N3S", "Melting Point": "196 \u00b0C (decomp)"}}