{"cas_no": "58481-11-1", "cn_name": "2-\u6c2f\u5f02\u70df\u9178\u7532\u916f", "en_name": ["4-Pyridinecarboxylic acid, 2-chloro-, methyl ester", "4-Pyridinecarboxylic acid, 2-chloro-, methyl ester", "Methyl 2-chloroisonicotinate", "Methyl 2-chloro-4-pyridinecarboxylate", "2-Chloropyridine-4-carboxylic acid methyl ester", "2-Chloroisonicotinic acid methyl ester"], "SMILES": "C(OC)(=O)C=1C=C(Cl)N=CC1", "physical_data": {"Molecular Weight": "171.58", "Molecular Formula": "C7H6ClNO2", "Boiling Point": "84-88 \u00b0C @ Press: 15 Torr", "Melting Point": "33-34 \u00b0C"}}