{"cas_no": "58481-14-4", "cn_name": "2-\u6c30\u57fa\u5f02\u70df\u9178\u4e59\u916f", "en_name": ["Ethyl 2-cyano-4-pyridinecarboxylate", "4-Pyridinecarboxylic acid, 2-cyano-, ethyl ester", "Ethyl 2-cyano-4-pyridinecarboxylate", "Ethyl 2-cyanoisonicotinate", "2-Cyanoisonicotinic acid ethyl ester"], "SMILES": "C(OCC)(=O)C=1C=C(C#N)N=CC1", "physical_data": {"Molecular Weight": "176.17", "Molecular Formula": "C9H8N2O2", "Boiling Point": "180 \u00b0C @ Press: 14 Torr", "Melting Point": "42-44 \u00b0C"}}