{"cas_no": "58493-49-5", "cn_name": "\u5965\u4f10\u5c3c", "en_name": ["Olvanil", "9-Octadecenamide, N-[(4-hydroxy-3-methoxyphenyl)methyl]-, (9Z)-", "9-Octadecenamide, N-[(4-hydroxy-3-methoxyphenyl)methyl]-, (Z)-", "(9Z)-N-[(4-Hydroxy-3-methoxyphenyl)methyl]-9-octadecenamide", "Olvanil", "NE 19550", "N-Vanillyloleamide", "N-Vanillyl oleic amide", "Oleoylvanillamine"], "SMILES": "C(NC(CCCCCCCC=CCCCCCCCC)=O)C1=CC(OC)=C(O)C=C1", "physical_data": {"Molecular Weight": "417.62", "Molecular Formula": "C26H43NO3", "Melting Point": "36 \u00b0C"}}