{"cas_no": "58493-50-8", "cn_name": "\u9999\u5170\u7d20\u80fa\u786c\u8102\u9178\u76d0", "en_name": ["N-[(4-Hydroxy-3-methoxyphenyl)methyl]octadecanamide", "Octadecanamide, N-[(4-hydroxy-3-methoxyphenyl)methyl]-", "N-[(4-Hydroxy-3-methoxyphenyl)methyl]octadecanamide", "N-Vanillyloctadecanamide"], "SMILES": "C(NC(CCCCCCCCCCCCCCCCC)=O)C1=CC(OC)=C(O)C=C1", "physical_data": {"Molecular Weight": "419.64", "Molecular Formula": "C26H45NO3", "Melting Point": "94.5-95 \u00b0C"}}