{"cas_no": "58498-61-6", "cn_name": "5-\u6c2f-2-\u7f9f\u57fa-3-\u7532\u57fa\u5421\u5576", "en_name": ["5-Chloro-3-methyl-2(1H)-pyridinone", "2(1H)-Pyridinone, 5-chloro-3-methyl-", "2(1H)-Pyridone, 5-chloro-3-methyl-", "5-Chloro-3-methyl-2(1H)-pyridinone", "5-Chloro-3-methyl-2-pyridone", "5-Chloro-3-methylpyridin-2-ol"], "SMILES": "CC=1C(=O)NC=C(Cl)C1", "physical_data": {"Molecular Weight": "143.57", "Molecular Formula": "C6H6ClNO", "Melting Point": "162-163 \u00b0C"}}