{"cas_no": "585-99-9", "cn_name": "\u871c\u4e8c\u7cd6", "en_name": ["Melibiose", "D-Glucose, 6-O-\u03b1-D-galactopyranosyl-", "Melibiose", "6-O-\u03b1-D-Galactopyranosyl-D-glucose", "D-Melibiose", "NSC 2028", "D-(+)-Melibiose", "MeSH ID: D008553"], "SMILES": "O(CC(C(C(C(C=O)O)O)O)O)C1OC(CO)C(O)C(O)C1O", "physical_data": {"Molecular Weight": "342.30", "Molecular Formula": "C12H22O11", "Melting Point": "84 \u00b0C"}}