{"cas_no": "585-86-4", "cn_name": "\u4e73\u7cd6\u9187", "en_name": ["Lactitol", "D-Glucitol, 4-O-\u03b2-D-galactopyranosyl-", "Lactitol", "Glucitol, 4-O-\u03b2-D-galactopyranosyl-, D-", "4-O-\u03b2-D-Galactopyranosyl-D-glucitol", "Lactositol", "Lactite", "Lactit", "Lactit M", "Miruhen", "Finlac DC", "Lacty", "Lacty (saccharide)", "Lacty M", "Lactitol LC 0", "Lactiobiosit", "Lactosit", "NSC 231323", "Importal", "Lactitol ACM 50", "Milchen", "Lacty-Tab", "D-Lactitol", "Lactitol MC", "LC 1", "Pizensy"], "SMILES": "O(C(C(C(CO)O)O)C(CO)O)C1OC(CO)C(O)C(O)C1O", "physical_data": {"Molecular Weight": "344.31", "Molecular Formula": "C12H24O11", "Melting Point": "146 \u00b0C"}}