{"cas_no": "585-21-7", "cn_name": "DL-\u8c37\u6c28\u9170\u80fa", "en_name": ["Glutamine", "Glutamine", "\u03b3-Glutamine", "DL-Glutamine", "(\u00b1)-Glutamine", "DL-Gln", "NSC 97925", "2-Amino-4-carbamoylbutyric acid", "2-Amino-4-carbamoylbutanoic acid"], "SMILES": "C(CCC(N)=O)(C(O)=O)N", "physical_data": {"Molecular Weight": "146.14", "Molecular Formula": "C5H10N2O3", "Melting Point": "186 \u00b0C"}}