{"cas_no": "585-79-5", "cn_name": "\u95f4\u6eb4\u785d\u57fa\u82ef", "en_name": ["1-Bromo-3-nitrobenzene", "Benzene, 1-bromo-3-nitro-", "1-Bromo-3-nitrobenzene", "m-Bromonitrobenzene", "3-Nitrobromobenzene", "m-Nitrobromobenzene", "3-Bromonitrobenzene", "m-Nitrophenyl bromide", "NSC 7084", "3-Bromo-1-nitrobenzene", "3-Nitro-1-bromobenzene", "3-Nitrophenyl bromide"], "SMILES": "N(=O)(=O)C1=CC(Br)=CC=C1", "physical_data": {"Molecular Weight": "202.01", "Molecular Formula": "C6H4BrNO2", "Boiling Point": "256 \u00b0C", "Melting Point": "56 \u00b0C"}}