{"cas_no": "585-70-6", "cn_name": "5-\u6eb4-2-\u7ce0\u9178", "en_name": ["5-Bromo-2-furancarboxylic acid", "2-Furancarboxylic acid, 5-bromo-", "2-Furoic acid, 5-bromo-", "5-Bromo-2-furancarboxylic acid", "5-Bromo-2-furoic acid", "5-Bromofuroic acid", "NSC 32221", "5-Bromo-2-furanoic acid"], "SMILES": "C(O)(=O)C=1OC(Br)=CC1", "physical_data": {"Molecular Weight": "190.98", "Molecular Formula": "C5H3BrO3", "Melting Point": "184-186 \u00b0C"}}