{"cas_no": "585-47-7", "cn_name": "1.3\u82ef\u4e8c\u78fa\u9170\u6c2f", "en_name": ["1,3-Benzenedisulfonyl dichloride", "1,3-Benzenedisulfonyl dichloride", "m-Benzenedisulfonyl chloride", "3-(Chlorosulfonyl)benzenesulfonyl chloride", "m-Phenylenedisulfonyl chloride", "m-Benzenedisulfonyl dichloride", "1,3-Bis(chlorosulfonyl)benzene", "m-Bis(chlorosulfonyl)benzene", "1,3-Benzenedisulfonyl chloride", "NSC 61429", "1,3-Phenylenebis(sulfonyl chloride)"], "SMILES": "S(Cl)(=O)(=O)C1=CC(S(Cl)(=O)=O)=CC=C1", "physical_data": {"Molecular Weight": "275.13", "Molecular Formula": "C6H4Cl2O4S2", "Melting Point": "63 \u00b0C"}}