{"cas_no": "585-32-0", "cn_name": "\u0391,\u0391-\u4e8c\u7532\u57fa\u82c4\u80fa", "en_name": ["Cumylamine", "Benzenemethanamine, \u03b1,\u03b1-dimethyl-", "Benzylamine, \u03b1,\u03b1-dimethyl-", "\u03b1,\u03b1-Dimethylbenzenemethanamine", "\u03b1,\u03b1-Dimethylbenzylamine", "(2-Phenyl-2-propyl)amine", "2-Amino-2-phenylpropane", "1-Phenylisopropylamine", "Cumylamine", "1-Methyl-1-phenylethylamine", "NSC 66156", "2-Phenyl-2-propanamine"], "SMILES": "C(C)(C)(N)C1=CC=CC=C1", "physical_data": {"Molecular Weight": "135.21", "Molecular Formula": "C9H13N", "Boiling Point": "196.5 \u00b0C", "Melting Point": "129-131 \u00b0C"}}