{"cas_no": "585-76-2", "cn_name": "\u95f4\u6eb4\u82ef\u7532\u9178", "en_name": ["3-Bromobenzoic acid", "Benzoic acid, 3-bromo-", "Benzoic acid, m-bromo-", "3-Bromobenzoic acid", "m-Bromobenzoic acid", "NSC 176129", "NSC 32739", "NSC 3980", "NSC 83519", "Benzoic acid, 3-(bromocarbonyl)-"], "SMILES": "C(O)(=O)C1=CC(Br)=CC=C1", "physical_data": {"Molecular Weight": "201.02", "Molecular Formula": "C7H5BrO2", "Boiling Point": "&gt;280 \u00b0C", "Melting Point": "155 \u00b0C"}}