{"cas_no": "585-07-9", "cn_name": "\u7532\u57fa\u4e19\u70ef\u9178\u53d4\u4e01\u916f", "en_name": ["tert-Butyl methacrylate", "2-Propenoic acid, 2-methyl-, 1,1-dimethylethyl ester", "Methacrylic acid, tert-butyl ester", "tert-Butyl methacrylate", "1,1-Dimethylethyl methacrylate", "tert-Butyl \u03b1-methacrylate", "Acryester TB", "tert-Butyl 2-methylpropenoate", "NSC 20957", "Light Ester TB", "tert-Butyl alcohol methacrylate", "tert-Butyl 2-methylacrylate", "Acryester TBMA"], "SMILES": "C(OC(C)(C)C)(C(C)=C)=O", "physical_data": {"Molecular Weight": "142.20", "Molecular Formula": "C8H14O2", "Boiling Point": "67 \u00b0C", "Melting Point": "122.2-122.8 \u00b0C", "Density": "0.8746 g/cm\u00b3 @ Temp: 20 \u00b0C"}}