{"cas_no": "585-84-2", "cn_name": "\u987a\u5f0f-\u4e4c\u5934\u9178", "en_name": ["cis-Aconitic acid", "1-Propene-1,2,3-tricarboxylic acid, (1Z)-", "1-Propene-1,2,3-tricarboxylic acid, (Z)-", "(1Z)-1-Propene-1,2,3-tricarboxylic acid", "cis-Aconitic acid", "(Z)-Aconitic acid", "NSC 227901", "(Z)-Prop-1-ene-1,2,3-tricarboxylic acid"], "SMILES": "C(CC(O)=O)(=CC(O)=O)C(O)=O", "physical_data": {"Molecular Weight": "174.11", "Molecular Formula": "C6H6O6", "Melting Point": "173 \u00b0C"}}