{"cas_no": "585-71-7", "cn_name": "(1-\u6eb4\u4e59\u57fa)\u82ef", "en_name": ["(1-Bromoethyl)benzene", "Benzene, (1-bromoethyl)-", "(1-Bromoethyl)benzene", "\u03b1-Phenylethyl bromide", "1-Phenylethyl bromide", "(\u03b1-Bromoethyl)benzene", "1-Bromo-1-phenylethane", "1-Phenyl-1-bromoethane", "\u03b1-Methylbenzyl bromide", "1-Phenethyl bromide", "\u03b1-Phenethyl bromide", "1-Phenylbromoethane", "(\u00b1)-(1-Bromoethyl)benzene", "(\u00b1)-1-Phenylethyl bromide", "(\u00b1)-1-Bromo-1-phenylethane", "NSC 8052", "1-(1-Bromoethyl)benzene"], "SMILES": "C(Br)(C)C1=CC=CC=C1", "physical_data": {"Molecular Weight": "185.06", "Molecular Formula": "C8H9Br", "Boiling Point": "94 \u00b0C @ Press: 16 Torr", "Melting Point": "-65 \u00b0C", "Density": "1.356 g/cm\u00b3"}}