{"cas_no": "585-34-2", "cn_name": "3-\u53d4\u4e01\u57fa\u82ef\u915a", "en_name": ["3-tert-Butylphenol", "Phenol, 3-(1,1-dimethylethyl)-", "Phenol, m-tert-butyl-", "3-(1,1-Dimethylethyl)phenol", "3-tert-Butylphenol", "m-tert-Butylphenol", "3-t-Butylphenol", "5-tert-Butyl-1-hydroxybenzene", "m-tert-Butylphenol"], "SMILES": "C(C)(C)(C)C1=CC(O)=CC=C1", "physical_data": {"Molecular Weight": "150.22", "Molecular Formula": "C10H14O", "Boiling Point": "240 \u00b0C", "Melting Point": "42.3 \u00b0C"}}