{"cas_no": "585-48-8", "cn_name": "2,6-\u4e8c\u53d4\u4e01\u57fa\u5421\u5576", "en_name": ["2,6-Di-tert-butylpyridine", "Pyridine, 2,6-bis(1,1-dimethylethyl)-", "Pyridine, 2,6-di-tert-butyl-", "2,6-Bis(1,1-dimethylethyl)pyridine", "2,6-Di-tert-butylpyridine", "NSC 175805", "2,6-Ditert-butylpyridine"], "SMILES": "C(C)(C)(C)C=1N=C(C(C)(C)C)C=CC1", "physical_data": {"Molecular Weight": "191.31", "Molecular Formula": "C13H21N", "Boiling Point": "100-101 \u00b0C", "Melting Point": "2.2 \u00b0C"}}