{"cas_no": "585-74-0", "cn_name": "3'-\u7532\u57fa\u82ef\u4e59\u916e", "en_name": ["3\u2032-Methylacetophenone", "Ethanone, 1-(3-methylphenyl)-", "Acetophenone, 3\u2032-methyl-", "1-(3-Methylphenyl)ethanone", "m-Methylacetophenone", "3\u2032-Methylacetophenone", "1-Acetyl-3-methylbenzene", "Methyl m-tolyl ketone", "3-Methylphenyl methyl ketone", "1-(3-Tolyl)ethanone", "3-Acetyltoluene", "NSC 46632", "Methyl 3-methylphenyl ketone", "1-m-Tolylethanone", "3-Methyl-1-acetylbenzene", "1-(3-Methylphenyl)ethan-1-one", "(m-Tolyl)ethan-1-one", "1-(m-Tolyl)ethan-1-one"], "SMILES": "C(C)(=O)C1=CC(C)=CC=C1", "physical_data": {"Molecular Weight": "134.18", "Molecular Formula": "C9H10O", "Boiling Point": "220 \u00b0C"}}