{"cas_no": "585-88-6", "cn_name": "\u9ea6\u82bd\u7cd6\u9187", "en_name": ["Maltitol", "D-Glucitol, 4-O-\u03b1-D-glucopyranosyl-", "Glucitol, 4-O-\u03b1-D-glucopyranosyl-, D-", "Maltitol", "4-O-\u03b1-D-Glucopyranosyl-D-glucitol", "Maltit", "Malti MR", "D-Maltitol", "Amalty Syrup", "Mabit", "Maltisorb", "Amalty MR 100", "Malbit CH", "Maltidex 100", "Amalty MR 20", "Malbit CR", "Amalty", "Amalty MR 50", "Malbit CH 16385", "Lesys", "Amalty P", "Amalty MR", "Maltisorb P 90", "Maltisorb P 200", "Maltisorb P 35", "Maltisweet 3145", "Cerestar 16303", "Sweet G 2", "Maltisweet", "Maltidex H 16330", "Lycasin HBC", "Maltidex M 16313", "Maltitol G 3", "Mabit 50M", "Maltisorb 75/77", "Maltidex", "Maltidex CH 16385", "SweetPearl", "SweetPearl P 200", "Maltilite P 200", "Maltilite 5575", "Maltilite 7575", "SweetPearl P 35", "Maltilol", "Malti-MR 100", "Lycasin 75/77", "Sweetpearl P 90", "Malti-MR 50", "Amalty Syrup 70/85", "Sweet G 3"], "SMILES": "O(C(C(C(CO)O)O)C(CO)O)C1OC(CO)C(O)C(O)C1O", "physical_data": {"Molecular Weight": "344.31", "Molecular Formula": "C12H24O11", "Melting Point": "145 \u00b0C"}}