{"cas_no": "585-91-1", "cn_name": "\u0391,\u0392-\u6d77\u85fb\u7cd6", "en_name": ["\u03b1,\u03b2-Trehalose", "\u03b1-D-Glucopyranoside, \u03b2-D-glucopyranosyl", "\u03b1,\u03b2-Trehalose", "\u03b2-D-Glucopyranosyl \u03b1-D-glucopyranoside", "Neotrehalose"], "SMILES": "O(C1OC(CO)C(O)C(O)C1O)C2OC(CO)C(O)C(O)C2O", "physical_data": {"Molecular Weight": "342.30", "Molecular Formula": "C12H22O11", "Melting Point": "195-210 \u00b0C"}}