{"cas_no": "585-50-2", "cn_name": "3-(3-\u4e09\u6c1f\u7532\u57fa\u82ef\u57fa)\u4e19\u9178", "en_name": ["3-(3-Trifluoromethylphenyl)propanoic acid", "Benzenepropanoic acid, 3-(trifluoromethyl)-", "Hydrocinnamic acid, m-(trifluoromethyl)-", "3-(Trifluoromethyl)benzenepropanoic acid", "m-(Trifluoromethyl)hydrocinnamic acid", "3-[3-(Trifluoromethyl)phenyl]propionic acid", "3-Trifluoromethylbenzenepropanoic acid", "3-(3-Trifluoromethylphenyl)propanoic acid"], "SMILES": "C(F)(F)(F)C1=CC(CCC(O)=O)=CC=C1", "physical_data": {"Molecular Weight": "218.17", "Molecular Formula": "C10H9F3O2", "Boiling Point": "149 \u00b0C @ Press: 11 Torr", "Melting Point": "130-131 \u00b0C"}}