{"cas_no": "58509-59-4", "cn_name": "6,7-\u4e8c\u6c22-5H-\u55b9\u5549-8-\u916e\u809f", "en_name": ["6,7-Dihydro-5H-quinolin-8-one oxime", "8(5H)-Quinolinone, 6,7-dihydro-, oxime", "8-(Hydroxyimino)-5,6,7,8-tetrahydroquinoline", "6,7-Dihydro-5H-quinolin-8-one oxime", "6,7-Dihydro-8(5H)-quinolinone oxime"], "SMILES": "N(O)=C1C=2C(CCC1)=CC=CN2", "physical_data": {"Molecular Weight": "162.19", "Molecular Formula": "C9H10N2O", "Melting Point": "173-175 \u00b0C"}}