{"cas_no": "5851-43-4", "cn_name": "2-\u5f02\u4e19\u57fa\u82ef\u5e76\u54aa\u5511", "en_name": ["2-Isopropylbenzimidazole", "1H-Benzimidazole, 2-(1-methylethyl)-", "Benzimidazole, 2-isopropyl-", "2-(1-Methylethyl)-1H-benzimidazole", "2-Isopropylbenzimidazole", "2-Isopropyl-1H-benzimidazole", "2-Propan-2-yl-1H-benzimidazole", "2-(Propan-2-yl)-1H-1,3-benzodiazole"], "SMILES": "C(C)(C)C=1NC=2C(N1)=CC=CC2", "physical_data": {"Molecular Weight": "160.22", "Molecular Formula": "C10H12N2", "Boiling Point": "180 \u00b0C @ Press: 15 Torr", "Melting Point": "223-225 \u00b0C"}}