{"cas_no": "5851-46-7", "cn_name": "2-\u620a\u57fa\u82ef\u5e76\u54aa\u5511", "en_name": ["2-Pentyl-1H-benzimidazole", "1H-Benzimidazole, 2-pentyl-", "Benzimidazole, 2-pentyl-", "2-Pentyl-1H-benzimidazole", "2-Pentylbenzimidazole", "2-Amylbenzimidazole", "2-Pentyl-1H-benzo[d]imidazole", "2-Pentyl-1H-1,3-benzodiazole"], "SMILES": "C(CCCC)C=1NC=2C(N1)=CC=CC2", "physical_data": {"Molecular Weight": "188.27", "Molecular Formula": "C12H16N2", "Boiling Point": "250 \u00b0C", "Melting Point": "155-156 \u00b0C"}}