{"cas_no": "58523-30-1", "cn_name": "PSEUROTIN A", "en_name": ["Pseurotin A", "1-Oxa-7-azaspiro[4.4]non-2-ene-4,6-dione, 8-benzoyl-2-[(1S,2S,3Z)-1,2-dihydroxy-3-hexen-1-yl]-9-hydroxy-8-methoxy-3-methyl-, (5S,8S,9R)-", "1-Oxa-7-azaspiro[4.4]non-2-ene-4,6-dione, 8-benzoyl-2-(1,2-dihydroxy-3-hexenyl)-9-hydroxy-8-methoxy-3-methyl-, [5S-[2(1R*,2R*,3Z),5\u03b1,8\u03b2,9\u03b2]]-", "1-Oxa-7-azaspiro[4.4]non-2-ene-4,6-dione, 8-benzoyl-2-[(1S,2S,3Z)-1,2-dihydroxy-3-hexenyl]-9-hydroxy-8-methoxy-3-methyl-, (5S,8S,9R)-", "(5S,8S,9R)-8-Benzoyl-2-[(1S,2S,3Z)-1,2-dihydroxy-3-hexen-1-yl]-9-hydroxy-8-methoxy-3-methyl-1-oxa-7-azaspiro[4.4]non-2-ene-4,6-dione", "Pseurotin A", "Pseurotin", "NSC 348694"], "SMILES": "OC1C2(OC(C(C(C=CCC)O)O)=C(C)C2=O)C(=O)NC1(C(=O)C3=CC=CC=C3)OC", "physical_data": {"Molecular Weight": "431.44", "Molecular Formula": "C22H25NO8", "Melting Point": "126.0-126.9 \u00b0C"}}