{"cas_no": "58539-65-4", "cn_name": "2-\u7532\u57fa\u70df\u9170\u80fa", "en_name": ["2-Methyl-3-pyridinecarboxamide", "3-Pyridinecarboxamide, 2-methyl-", "2-Methyl-3-pyridinecarboxamide", "2-Methylnicotinamide", "2-Methylpyridine-3-carboxamide"], "SMILES": "C(N)(=O)C1=C(C)N=CC=C1", "physical_data": {"Molecular Weight": "136.15", "Molecular Formula": "C7H8N2O", "Melting Point": "158 \u00b0C"}}