{"cas_no": "58537-99-8", "cn_name": "4-\u7f9f\u57fa-2,6-\u4e8c\u7532\u57fa\u82ef\u7532\u8148", "en_name": ["4-Hydroxy-2,6-dimethylbenzonitrile", "Benzonitrile, 4-hydroxy-2,6-dimethyl-", "4-Hydroxy-2,6-dimethylbenzonitrile", "4-Cyano-3,5-dimethylphenol"], "SMILES": "C(#N)C1=C(C)C=C(O)C=C1C", "physical_data": {"Molecular Weight": "147.17", "Molecular Formula": "C9H9NO", "Melting Point": "174-175 \u00b0C"}}