{"cas_no": "5854-77-3", "cn_name": "O-\u53d4\u4e01\u57fa-\u82cf\u6c28\u9178\u4e59\u9178\u53d4\u4e01\u916f", "en_name": ["L-Threonine, O-(1,1-dimethylethyl)-, 1,1-dimethylethyl ester, acetate (1:1)", "L-Threonine, O-(1,1-dimethylethyl)-, 1,1-dimethylethyl ester, acetate (1:1)", "Butyric acid, 2-amino-3-tert-butoxy-, tert-butyl ester, acetate, L-", "L-Threonine, O-(1,1-dimethylethyl)-, 1,1-dimethylethyl ester, acetate", "Butyric acid, 2-amino-3-tert-butoxy-, tert-butyl ester, acetate", "O-tert-Butyl-L-threonine tert-butyl ester acetate"], "SMILES": "C(C)(O)=O.C(C(C(OC(C)(C)C)=O)N)(OC(C)(C)C)C", "physical_data": {"Molecular Weight": "", "Molecular Formula": "C12H25NO3.C2H4O2", "Melting Point": "54-57 \u00b0C"}}