{"cas_no": "5854-93-3", "cn_name": "\u4e19\u6c28\u83cc\u7d20", "en_name": ["L-Alanosine", "L-Alanine, 3-(hydroxynitrosoamino)-", "Propionic acid, 2-amino-3-(hydroxynitrosamino)-, L-", "3-(Hydroxynitrosoamino)-L-alanine", "Alanosine", "L-2-Amino-3-(N-nitroso)hydroxylaminopropionic acid", "L-2-Amino-3-(hydroxynitrosamino)propionic acid", "L-Alanosine", "NSC 153353", "NSC 529469", "SDX 102", "(S)-2-Amino-3-(hydroxy(nitroso)amino)propanoic acid", "(2S)-2-Amino-3-[hydroxy(nitroso)amino]propanoic acid"], "SMILES": "C(C(C(O)=O)N)N(N=O)O", "physical_data": {"Molecular Weight": "149.11", "Molecular Formula": "C3H7N3O4", "Melting Point": "184-187 \u00b0C (decomp)"}}