{"cas_no": "58546-56-8", "cn_name": "\u4e94\u5473\u5b50\u916f\u7532", "en_name": ["Schisantherin A", "Benzo[3,4]cycloocta[1,2-f][1,3]benzodioxole-5,6-diol, 5,6,7,8-tetrahydro-1,2,3,13-tetramethoxy-6,7-dimethyl-, 5-benzoate, (5S,6S,7S,13aS)-", "Benzo[3,4]cycloocta[1,2-f][1,3]benzodioxole-5,6-diol, 5,6,7,8-tetrahydro-1,2,3,13-tetramethoxy-6,7-dimethyl-, 5-benzoate, stereoisomer", "Gomisin C", "Wuweizi ester A", "Schisantherin A", "Schizantherin A"], "SMILES": "O(C)C1=C2C=3C(=CC4=C(C3OC)OCO4)CC(C)C(C)(O)C(OC(=O)C5=CC=CC=C5)C2=CC(OC)=C1OC", "physical_data": {"Molecular Weight": "536.57", "Molecular Formula": "C30H32O9", "Melting Point": "120-123 \u00b0C"}}