{"cas_no": "58543-16-1", "cn_name": "\u745e\u9c8d\u8fea\u7519 A", "en_name": ["Rebaudioside A", "Kaur-16-en-18-oic acid, 13-[(O-\u03b2-D-glucopyranosyl-(1\u21922)-O-[\u03b2-D-glucopyranosyl-(1\u21923)]-\u03b2-D-glucopyranosyl)oxy]-, \u03b2-D-glucopyranosyl ester, (4\u03b1)-", "Rebaudioside A", "Glycoside X", "Glycoside A3, from Steviarebaudiana", "4G-S", "Sweetener 4G-S", "Stevioside a3", "Sooolite!-Pure", "Rebiana", "Pure Via", "Reb-A 97", "RA 95", "Rebaudiana a", "SG 95RA50", "SG 95RA85", "SG 95RA60", "SG 95RA70", "SG 95RA80", "SG 95RA90", "Chrysanta AR-P", "Steviafin RJ"], "SMILES": "CC12C3C4(CC(OC5C(OC6OC(CO)C(O)C(O)C6O)C(OC7OC(CO)C(O)C(O)C7O)C(O)C(CO)O5)(C(=C)C4)CC3)CCC1C(C(OC8OC(CO)C(O)C(O)C8O)=O)(C)CCC2", "physical_data": {"Molecular Weight": "967.01", "Molecular Formula": "C44H70O23", "Melting Point": "212 \u00b0C"}}