{"cas_no": "5854-78-4", "cn_name": "tBu-\u7f2c\u6c28\u9178\u53d4\u4e01\u916f", "en_name": ["O-(1,1-Dimethylethyl)-L-threonine 1,1-dimethylethyl ester", "L-Threonine, O-(1,1-dimethylethyl)-, 1,1-dimethylethyl ester", "Butyric acid, 2-amino-3-tert-butoxy-, tert-butyl ester, L-", "Butyric acid, 2-amino-3-tert-butoxy-, tert-butyl ester", "O-(1,1-Dimethylethyl)-L-threonine 1,1-dimethylethyl ester", "O-tert-Butyl-L-threonine tert-butyl ester", "O-tert-Butylthreonine tert-butyl ester"], "SMILES": "C(C(C(OC(C)(C)C)=O)N)(OC(C)(C)C)C", "physical_data": {"Molecular Weight": "231.33", "Molecular Formula": "C12H25NO3", "Melting Point": "74-75 \u00b0C"}}