{"cas_no": "58546-54-6", "cn_name": "\u4e94\u5473\u5b50\u9187\u4e59", "en_name": ["Gomisin A", "Benzo[3,4]cycloocta[1,2-f][1,3]benzodioxol-6-ol, 5,6,7,8-tetrahydro-1,2,3,13-tetramethoxy-6,7-dimethyl-, (6S,7S,13aR)-", "Benzo[3,4]cycloocta[1,2-f][1,3]benzodioxol-6-ol, 5,6,7,8-tetrahydro-1,2,3,13-tetramethoxy-6,7-dimethyl-, stereoisomer", "(6S,7S,13aR)-5,6,7,8-Tetrahydro-1,2,3,13-tetramethoxy-6,7-dimethylbenzo[3,4]cycloocta[1,2-f][1,3]benzodioxol-6-ol", "Gomisin A", "Schisandrol B", "Schizandrol B", "Wuweizichun B", "Wuweizi alcohol B", "TJN 101", "(+)-Gomisin A", "Besigomsin", "Schisantherinol B"], "SMILES": "O(C)C1=C2C=3C(=CC(OC)=C(OC)C3OC)CC(C)(O)C(C)CC2=CC4=C1OCO4", "physical_data": {"Molecular Weight": "416.46", "Molecular Formula": "C23H28O7", "Melting Point": "80-85 \u00b0C"}}