{"cas_no": "58558-09-1", "cn_name": "\u67f4\u80e1\u7682\u82f7B4", "en_name": ["Saikosaponin B4", "\u03b2-D-Galactopyranoside, (3\u03b2,4\u03b1,11\u03b1,16\u03b1)-16,23,28-trihydroxy-11-methoxyolean-12-en-3-yl 6-deoxy-3-O-\u03b2-D-glucopyranosyl-", "(3\u03b2,4\u03b1,11\u03b1,16\u03b1)-16,23,28-Trihydroxy-11-methoxyolean-12-en-3-yl 6-deoxy-3-O-\u03b2-D-glucopyranosyl-\u03b2-D-galactopyranoside", "Saikosaponin B4"], "SMILES": "CC12C(C3(C)C(CC1)C(CO)(C)C(OC4C(O)C(OC5OC(CO)C(O)C(O)C5O)C(O)C(C)O4)CC3)C(OC)C=C6C2(C)CC(O)C7(CO)C6CC(C)(C)CC7", "physical_data": {"Molecular Weight": "813.02", "Molecular Formula": "C43H72O14", "Melting Point": "245-250 \u00b0C"}}