{"cas_no": "5856-63-3", "cn_name": "2-\u6c28\u57fa\u4e01\u9187", "en_name": ["(R)-2-Amino-1-butanol", "1-Butanol, 2-amino-, (2R)-", "1-Butanol, 2-amino-, (R)-", "1-Butanol, 2-amino-, (R)-(-)-", "1-Butanol, 2-amino-, (-)-", "1-Butanol, 2-amino-, l-", "(2R)-2-Amino-1-butanol", "D-2-Amino-1-butanol", "(-)-2-Amino-1-butanol", "(R)-(-)-2-Aminobutan-1-ol", "l-2-Amino-1-butanol", "D-(-)-2-Amino-1-butanol", "(R)-2-Amino-1-butanol", "(R)-(-)-2-Amino-1-butanol", "[(R)-1-(Hydroxymethyl)propyl]amine", "(R)-2-Aminobutanol", "(2R)-2-Aminobutan-1-ol", "2R-Aminobutanol", "(2R)-2-Aminobutan-1-ol"], "SMILES": "C(CC)(CO)N", "physical_data": {"Molecular Weight": "89.14", "Molecular Formula": "C4H11NO", "Boiling Point": "98-99 \u00b0C @ Press: 31 Torr", "Melting Point": "75 \u00b0C", "Density": "0.939 g/cm\u00b3 @ Temp: 25 \u00b0C"}}