{"cas_no": "58560-75-1", "cn_name": "\u5e03\u6d1b\u82ac", "en_name": ["Ibuprofen", "Benzeneacetic acid, \u03b1-methyl-4-(2-methylpropyl)-", "Hydratropic acid, p-isobutyl-", "\u03b1-Methyl-4-(2-methylpropyl)benzeneacetic acid", "Ibuprofen", "p-Isobutylhydratropic acid", "2-(p-Isobutylphenyl)propionic acid", "Brufen", "RD 13621", "Motrin", "IP 82", "4-Isobutylhydratropic acid", "\u03b1-(4-Isobutylphenyl)propionic acid", "2-(4-Isobutylphenyl)propanoic acid", "Ibufen", "Paduden", "Nuprin", "p-Isobutyl-2-phenylpropionic acid", "Nurofen", "Unipron", "Rufin", "Advil", "2-(4\u2032-Isobutylphenyl)propionic acid", "Proflex", "(\u00b1)-\u03b1-Methyl-4-(2-methylpropyl)benzeneacetic acid", "(\u00b1)-Ibuprofen", "(RS)-Ibuprofen", "(\u00b1)-Ibuprophen", "(\u00b1)-2-(p-Isobutylphenyl)propionic acid", "dl-Ibuprofen", "(4-Isobutylphenyl)-\u03b1-methylacetic acid", "4-Isobutyl-\u03b1-methylphenylacetic acid", "Dolgit", "Librofem", "Ranofen", "Noritis", "Bloom", "Carol", "Panafen", "Lidifen", "Fenspan", "Provon", "Pantrop", "Ibu-Tab", "Andran", "Brufanic", "Roidenin", "Rupan", "Mynosedin", "Ibuprohm", "Perofen", "Atril 300", "Ibren", "Ibufug", "Mensoton", "Cobo", "Rafen", "Irfen", "Tabalon 400", "Brufort", "Optifen", "Dolofen", "Fenbid", "Anco", "Anafen", "Isodol", "Ibu-slow", "Ibugen", "Emflam", "Nobfelon", "Napacetin", "Ibuflamar", "Act 3", "Zafen", "Anflagen", "Adex 200", "Brufen Retard", "Balkaprofen", "Drin", "Ostofen", "Betaprofen", "Inflam", "Urem", "Nagifen-D", "Inza", "Inabrin", "Ibugesic", "Lamidon", "Antiflam", "Algofen", "Dolocyl", "Ibupirac", "Alaxan", "Prontalgin", "Dolmaral", "Lopane", "Ibosure", "Artril", "Buburone", "Syntofene", "Stelar (pharmaceutical)", "Proartinal", "Emflam 200", "Dibufen", "Ifen", "Brofen", "Ipren", "Brufen 400", "Ostarin", "Novogent", "Codral Period Pain", "Paxofen", "Donjust B", "Dorival", "Tarein", "Nobafon", "Ibuprocin", "Am-Fam 400", "Tofen", "Dolofen F", "Upfen", "Tatanal", "Epobron", "Easifon", "Ebufac", "Liptan", "Nobgen", "Bruflam", "Zofen", "Motrin IB", "IB 100", "Bluton", "Quadrax", "Antarene", "Apsifen", "Ibusal", "Tabalon", "Burana", "Ibulgan", "Opturem", "Ibumetin", "Relcofen", "Uprofen", "Gofen", "Apo-Ibuprofen", "Artofen", "Butacortelone", "Norton", "Focus", "Novoprofen", "Dolomax", "Profen", "Dolgin", "Artril 300", "Femadon", "Dolo-Dolgit", "Recidol", "Amibufen", "Ibu-Attritin", "Ibutad", "Adran", "Trendar", "Butylenin", "Dentigoa", "Suspren", "Seclodin", "Gynofug", "Dansida", "Dolgirid", "U 18753", "Haltran", "Pediaprofen", "Ibuleve", "NSC 256857", "Buluofen", "Actiprofen", "Algiflex", "Algi-Flanderil", "Doretrim", "Ibupril", "Iprogel", "Omafen", "Deep relief", "Nureflex", "Pedea", "Caldolor", "Ibudex", "Juilifen", "Genafen", "Medprofen", "Buprol", "Paucofen", "Ibuflam", "Espen", "Multifen", "Brustan-N", "Ibuflamol", "Boosten", "IbuHexal", "Pedifen", "Ibuberofen", "BC 1054", "Spedifen Zambon", "Actron Ibuprofen", "Moment", "MomentAct", "Provil", "Stelar", "Cetafen Plus", "Proris", "2-[4-(2-Methylpropyl)phenyl]propanoic acid", "Ibuprofen Belupo", "Ibubel", "Bonifen", "Diverin", "Flarin", "MeSH ID: D007052"], "SMILES": "C(C(O)=O)(C)C1=CC=C(CC(C)C)C=C1", "physical_data": {"Molecular Weight": "206.28", "Molecular Formula": "C13H18O2", "Boiling Point": "141-142 \u00b0C @ Press: 100 Torr", "Melting Point": "75-77 \u00b0C", "Density": "0.9181 g/cm\u00b3 @ Temp: 30 \u00b0C"}}