{"cas_no": "58567-11-6", "cn_name": "\u4e59\u6c27\u57fa\u7532\u6c27\u57fa\u73af\u5341\u4e00\u70f7", "en_name": ["Boisambrene forte", "Cyclododecane, (ethoxymethoxy)-", "(Ethoxymethoxy)cyclododecane", "Formaldehyde cyclododecyl ethyl acetal", "Ethoxymethyl cyclododecyl ether", "Boisambrene forte", "Buazambren", "Amberwood F"], "SMILES": "O(COCC)C1CCCCCCCCCCC1", "physical_data": {"Molecular Weight": "242.40", "Molecular Formula": "C15H30O2", "Boiling Point": "111 \u00b0C @ Press: 0.5 Torr"}}