{"cas_no": "5856-77-9", "cn_name": "2,2-\u4e8c\u7532\u57fa\u4e01\u9170\u6c2f", "en_name": ["2,2-Dimethylbutanoyl chloride", "Butanoyl chloride, 2,2-dimethyl-", "Butyryl chloride, 2,2-dimethyl-", "2,2-Dimethylbutanoyl chloride", "2,2-Dimethylbutyryl chloride", "2,2-Dimethylbutyric acid chloride", "2,2-Dimethylbutanoic acid chloride", "Pentanoyl chloride, 2,3,3-trimethyl-"], "SMILES": "C(C(Cl)=O)(CC)(C)C", "physical_data": {"Molecular Weight": "134.60", "Molecular Formula": "C6H11ClO", "Boiling Point": "132 \u00b0C", "Density": "0.9787 g/cm\u00b3 @ Temp: 20 \u00b0C"}}