{"cas_no": "5856-62-2", "cn_name": "D(+)-2-\u6c28\u57fa-1-\u4e01\u9187", "en_name": ["(+)-2-Amino-1-butanol", "1-Butanol, 2-amino-, (2S)-", "1-Butanol, 2-amino-, (S)-(+)-", "1-Butanol, 2-amino-, (S)-", "1-Butanol, 2-amino-, (+)-", "1-Butanol, 2-amino-, d-", "(2S)-2-Amino-1-butanol", "L-2-Amino-1-butanol", "L-(+)-2-Aminobutanol", "(+)-2-Amino-1-butanol", "(+)-2-Aminobutanol", "d-2-Amino-1-butanol", "(S)-2-Amino-1-butanol", "S-(+)-2-Amino-1-butanol", "L-2-Aminobutanol", "(+)-2-Aminobutyl alcohol", "L-(+)-2-Amino-1-butanol", "(S)-2-Aminobutanol", "(2S)-2-Aminobutan-1-ol", "2S-Aminobutanol", "(2S)-2-Aminobutan-1-ol"], "SMILES": "C(CC)(CO)N", "physical_data": {"Molecular Weight": "89.14", "Molecular Formula": "C4H11NO", "Boiling Point": "80 \u00b0C @ Press: 11 Torr", "Melting Point": "171-174 \u00b0C", "Density": "0.947 g/cm\u00b3 @ Temp: 20 \u00b0C"}}