{"cas_no": "58579-51-4", "cn_name": "\u76d0\u9178\u963f\u90a3\u683c\u96f7", "en_name": ["Anagrelide hydrochloride", "Imidazo[2,1-b]quinazolin-2(3H)-one, 6,7-dichloro-1,5-dihydro-, hydrochloride (1:1)", "Imidazo[2,1-b]quinazolin-2(3H)-one, 6,7-dichloro-1,5-dihydro-, monohydrochloride", "BL 4162A", "Anagrelide hydrochloride", "Agrelin", "BMY 26538-01", "Agrylin", "6,7-Dichloro-1,5-dihydroimidazo[2,1-b]quinazolin-2(3H)-one Hydrochloride"], "SMILES": "ClC1=C2C(NC=3N(C2)CC(=O)N3)=CC=C1Cl.Cl", "physical_data": {"Molecular Weight": "", "Molecular Formula": "C10H7Cl2N3O.ClH", "Melting Point": "&gt;280 \u00b0C"}}