{"cas_no": "5858-18-4", "cn_name": "2,5-\u4e8c\u6c2f\u82ef\u786b\u915a", "en_name": ["2,5-Dichlorobenzenethiol", "Benzenethiol, 2,5-dichloro-", "2,5-Dichlorobenzenethiol", "2,5-Dichlorothiophenol", "NSC 49350", "2,5-Dichlorobenzene-1-thiol"], "SMILES": "SC1=C(Cl)C=CC(Cl)=C1", "physical_data": {"Molecular Weight": "179.07", "Molecular Formula": "C6H4Cl2S", "Boiling Point": "132 \u00b0C @ Press: 29 Torr", "Melting Point": "28 \u00b0C"}}