{"cas_no": "58584-86-4", "cn_name": "2,6-\u4e8c\u6c2f\u70df\u9178\u4e59\u916f", "en_name": ["3-Pyridinecarboxylic acid, 2,6-dichloro-, ethyl ester", "3-Pyridinecarboxylic acid, 2,6-dichloro-, ethyl ester", "2,6-Dichloronicotinic acid ethyl ester", "Ethyl 2,6-dichloropyridine-3-carboxylate", "Ethyl 2,6-dichloronicotinate"], "SMILES": "C(OCC)(=O)C1=C(Cl)N=C(Cl)C=C1", "physical_data": {"Molecular Weight": "220.05", "Molecular Formula": "C8H7Cl2NO2", "Melting Point": "49-50 \u00b0C"}}