{"cas_no": "5858-17-3", "cn_name": "3,4-\u4e8c\u6c2f\u82ef\u786b\u915a", "en_name": ["3,4-Dichlorobenzenethiol", "Benzenethiol, 3,4-dichloro-", "3,4-Dichlorobenzenethiol", "3,4-Dichlorophenyl mercaptan", "3,4-Dichlorothiophenol", "3,4-Dichlorobenzene-1-thiol"], "SMILES": "ClC1=C(Cl)C=CC(S)=C1", "physical_data": {"Molecular Weight": "179.07", "Molecular Formula": "C6H4Cl2S", "Boiling Point": "76-78 \u00b0C @ Press: 0.25 Torr"}}