{"cas_no": "58593-78-5", "cn_name": "4-\u6c2f-1,3-\u82ef\u4e8c\u786b\u9187", "en_name": ["4-Chloro-1,3-benzenedithiol", "1,3-Benzenedithiol, 4-chloro-", "4-Chloro-1,3-benzenedithiol", "4-Chloro-m-benzenedithiol", "4-Chloro-3-mercaptothiophenol"], "SMILES": "SC1=C(Cl)C=CC(S)=C1", "physical_data": {"Molecular Weight": "176.69", "Molecular Formula": "C6H5ClS2", "Boiling Point": "145-146 \u00b0C @ Press: 13-14 Torr"}}