{"cas_no": "586-75-4", "cn_name": "4-\u6eb4\u82ef\u7532\u9170\u6c2f", "en_name": ["4-Bromobenzoyl chloride", "Benzoyl chloride, 4-bromo-", "Benzoyl chloride, p-bromo-", "4-Bromobenzoyl chloride", "p-Bromobenzoyl chloride", "4-Bromo-1-benzenecarbonyl chloride", "NSC 7091"], "SMILES": "C(Cl)(=O)C1=CC=C(Br)C=C1", "physical_data": {"Molecular Weight": "219.46", "Molecular Formula": "C7H4BrClO", "Boiling Point": "246 \u00b0C", "Melting Point": "42 \u00b0C"}}