{"cas_no": "586-30-1", "cn_name": "3-\u7f9f\u57fa-4-\u7532\u57fa\u82ef\u7532\u9178", "en_name": ["3-Hydroxy-4-methylbenzoic acid", "Benzoic acid, 3-hydroxy-4-methyl-", "3,4-Cresotic acid", "3-Hydroxy-4-methylbenzoic acid", "3-Hydroxy-p-toluic acid", "4-Methyl-3-hydroxybenzoic acid", "NSC 67717", "NSC 75850"], "SMILES": "C(O)(=O)C1=CC(O)=C(C)C=C1", "physical_data": {"Molecular Weight": "152.15", "Molecular Formula": "C8H8O3", "Melting Point": "205-207 \u00b0C"}}