{"cas_no": "586-35-6", "cn_name": "2-\u6eb4\u56db\u82ef\u918c", "en_name": ["Bromoterephthalic acid", "1,4-Benzenedicarboxylic acid, 2-bromo-", "Terephthalic acid, bromo-", "2-Bromo-1,4-benzenedicarboxylic acid", "2-Bromoterephthalic acid", "Bromoterephthalic acid", "NSC 3985"], "SMILES": "C(O)(=O)C1=CC(Br)=C(C(O)=O)C=C1", "physical_data": {"Molecular Weight": "245.03", "Molecular Formula": "C8H5BrO4", "Melting Point": "299 \u00b0C"}}