{"cas_no": "586-42-5", "cn_name": "3-\u4e59\u9170\u57fa\u82ef\u7532\u9178", "en_name": ["3-Acetylbenzoic acid", "Benzoic acid, 3-acetyl-", "Benzoic acid, m-acetyl-", "3-Acetylbenzoic acid", "3\u2032-Carboxyacetophenone", "m-Acetylbenzoic acid", "m-Carboxyacetophenone", "3-(1-Oxoethyl)benzoic acid", "NSC 2932"], "SMILES": "C(C)(=O)C1=CC(C(O)=O)=CC=C1", "physical_data": {"Molecular Weight": "164.16", "Molecular Formula": "C9H8O3", "Melting Point": "170-173 \u00b0C"}}