{"cas_no": "586-62-9", "cn_name": "\u841c\u54c1\u6cb9\u70ef", "en_name": ["Terpinolene", "Cyclohexene, 1-methyl-4-(1-methylethylidene)-", "p-Mentha-1,4(8)-diene", "1-Methyl-4-(1-methylethylidene)cyclohexene", "Terpinolene", "\u03b1-Terpinolene", "Terpinolen", "4-Isopropylidene-1-methylcyclohexene", "Isoterpinene", "Nofmer TP", "\u03b4-Terpinene", "Terpinolene 95PF", "1-Methyl-4-propan-2-ylidene-cyclohexene", "1-Methyl-4-(propan-2-ylidene)cyclohex-1-ene"], "SMILES": "C(C)(C)=C1CCC(C)=CC1", "physical_data": {"Molecular Weight": "136.23", "Molecular Formula": "C10H16", "Boiling Point": "185 \u00b0C @ Press: 760 Torr", "Melting Point": "&lt;25 \u00b0C", "Density": "0.8623 g/cm\u00b3 @ Temp: 20 \u00b0C"}}