{"cas_no": "586-70-9", "cn_name": "1-(\u5bf9\u7532\u82ef\u57fa)\u4e59\u80fa", "en_name": ["1-(4-Methylphenyl)ethylamine", "Benzenemethanamine, \u03b1,4-dimethyl-", "Benzylamine, p,\u03b1-dimethyl-", "\u03b1,4-Dimethylbenzenemethanamine", "p-Methyl-\u03b1-phenylethylamine", "(RS)-\u03b1,4-Dimethylbenzylamine", "(\u00b1)-p-Methyl-\u03b1-phenylethylamine", "(\u00b1)-1-(p-Tolyl)ethylamine", "\u03b1-p-Tolylethylamine", "1-(p-Methylphenyl)ethylamine", "1-(4-Methylphenyl)ethylamine", "1-(p-Tolyl)ethylamine", "(\u00b1)-1-(4-Methylphenyl)ethylamine", "\u03b1,4-Dimethylbenzylamine", "1-(4-Methylphenyl)ethanamine", "1-(4-Methylphenyl)ethan-1-amine", "1-p-Tolylethanamine"], "SMILES": "C(C)(N)C1=CC=C(C)C=C1", "physical_data": {"Molecular Weight": "135.21", "Molecular Formula": "C9H13N", "Boiling Point": "204 \u00b0C", "Density": "0.937 g/cm\u00b3 @ Temp: 20 \u00b0C"}}