{"cas_no": "586-96-9", "cn_name": "\u4e9a\u785d\u57fa\u82ef", "en_name": ["Nitrosobenzene", "Benzene, nitroso-", "Nitrosobenzene", "NSC 66479"], "SMILES": "N(=O)C1=CC=CC=C1", "physical_data": {"Molecular Weight": "107.11", "Molecular Formula": "C6H5NO", "Boiling Point": "58 \u00b0C", "Melting Point": "68.5 \u00b0C"}}