{"cas_no": "586-38-9", "cn_name": "3-\u7532\u6c27\u57fa\u82ef\u7532\u9178", "en_name": ["3-Methoxybenzoic acid", "Benzoic acid, 3-methoxy-", "m-Anisic acid", "3-Methoxybenzoic acid", "m-Methoxybenzoic acid", "3-Anisic acid", "NSC 27014", "NSC 9264"], "SMILES": "C(O)(=O)C1=CC(OC)=CC=C1", "physical_data": {"Molecular Weight": "152.15", "Molecular Formula": "C8H8O3", "Boiling Point": "170 \u00b0C", "Melting Point": "107 \u00b0C"}}