{"cas_no": "586-77-6", "cn_name": "4-\u6eb4-N,N-\u4e8c\u7532\u57fa\u82ef\u80fa", "en_name": ["4-Bromo-N\u2032,N\u2032-dimethylaniline", "Benzenamine, 4-bromo-N,N-dimethyl-", "Aniline, p-bromo-N,N-dimethyl-", "4-Bromo-N,N-dimethylbenzenamine", "1-Bromo-4-(dimethylamino)benzene", "4-Bromo-N,N-dimethylaniline", "p-Bromo-N,N-dimethylaniline", "4-Dimethylaminobromobenzene", "p-Bromo(dimethylamino)benzene", "p-Dimethylaminobromobenzene", "p-(Dimethylamino)phenyl bromide", "N,N-Dimethyl-p-bromoaniline", "p-N,N-Dimethylaminobromobenzene", "N,N-Dimethyl-4-bromoaniline", "4-(Dimethylamino)phenyl bromide", "4-Dimethylamino-1-bromobenzene", "(4-Bromophenyl)dimethylamine", "NSC 8056", "4-Bromo-N\u2032,N\u2032-dimethylaniline"], "SMILES": "N(C)(C)C1=CC=C(Br)C=C1", "physical_data": {"Molecular Weight": "200.08", "Molecular Formula": "C8H10BrN", "Boiling Point": "264 \u00b0C", "Melting Point": "55 \u00b0C"}}