{"cas_no": "586-10-7", "cn_name": "3-\u7532\u6c27\u57fa-5-\u785d\u57fa\u82ef\u80fa", "en_name": ["3-Methoxy-5-nitrobenzenamine", "Benzenamine, 3-methoxy-5-nitro-", "m-Anisidine, 5-nitro-", "3-Methoxy-5-nitrobenzenamine", "3-Amino-5-nitroanisole", "3-Methoxy-5-nitroaniline", "3-Methoxy-5-nitrophenylamine"], "SMILES": "N(=O)(=O)C1=CC(OC)=CC(N)=C1", "physical_data": {"Molecular Weight": "168.15", "Molecular Formula": "C7H8N2O3", "Melting Point": "117-119 \u00b0C"}}