{"cas_no": "586-22-1", "cn_name": "1-\u4e19\u916e, 1-(3-\u6c1f-4-\u7532\u6c27\u57fa\u82ef\u57fa)-", "en_name": ["1-(3-Fluoro-4-methoxyphenyl)-1-propanone", "1-Propanone, 1-(3-fluoro-4-methoxyphenyl)-", "Propiophenone, 3\u2032-fluoro-4\u2032-methoxy-", "1-(3-Fluoro-4-methoxyphenyl)-1-propanone", "NSC 123876", "3\u2032-Fluoro-4\u2032-methoxypropiophenone"], "SMILES": "C(CC)(=O)C1=CC(F)=C(OC)C=C1", "physical_data": {"Molecular Weight": "182.19", "Molecular Formula": "C10H11FO2", "Melting Point": "83-85 \u00b0C"}}