{"cas_no": "586-95-8", "cn_name": "4-\u5421\u5576\u7532\u9187", "en_name": ["4-Pyridinemethanol", "4-Pyridinemethanol", "4-(Hydroxymethyl)pyridine", "4-Pyridylcarbinol", "4-Pyridylmethanol", "\u03b3-Picolyl alcohol", "4-Pyridinecarbinol", "4-Picolyl alcohol", "4-Pyridylmethyl alcohol", "(Pyridin-4-yl)methanol", "NSC 126907", "NSC 26024", "NSC 49167", "4-(Hydroxymethylene)pyridine"], "SMILES": "C(O)C=1C=CN=CC1", "physical_data": {"Molecular Weight": "109.13", "Molecular Formula": "C6H7NO", "Boiling Point": "140-142 \u00b0C @ Press: 12 Torr", "Melting Point": "53 \u00b0C"}}