{"cas_no": "586-98-1", "cn_name": "2-\u5421\u5576\u7532\u9187", "en_name": ["2-Pyridinemethanol", "2-Pyridinemethanol", "2-(Hydroxymethyl)pyridine", "2-Pyridylcarbinol", "Pyridine-2-carbinol", "2-Pyridylmethanol", "\u03b1-Picolyl alcohol", "2-Pyridinylmethanol", "Piconol", "2-Pyridinylcarbinol"], "SMILES": "C(O)C1=CC=CC=N1", "physical_data": {"Molecular Weight": "109.13", "Molecular Formula": "C6H7NO", "Boiling Point": "112 \u00b0C", "Melting Point": "73 \u00b0C"}}