{"cas_no": "586-39-0", "cn_name": "3-\u785d\u57fa\u82ef\u4e59\u70ef", "en_name": ["3-Nitrostyrene", "Benzene, 1-ethenyl-3-nitro-", "Styrene, m-nitro-", "1-Ethenyl-3-nitrobenzene", "m-Nitrostyrene", "3-Nitrostyrene", "m-Vinylnitrobenzene", "3-Nitrophenylethene", "NSC 66550", "1-Nitro-3-vinylbenzene", "3-Ethenyl-1-nitrobenzene"], "SMILES": "N(=O)(=O)C1=CC(C=C)=CC=C1", "physical_data": {"Molecular Weight": "149.15", "Molecular Formula": "C8H7NO2", "Boiling Point": "96-100 \u00b0C @ Press: 3 Torr", "Melting Point": "-10 \u00b0C", "Density": "1.1552 g/cm\u00b3 @ Temp: 32.5 \u00b0C"}}