{"cas_no": "586-37-8", "cn_name": "3-\u7532\u6c27\u57fa\u82ef\u4e59\u916e", "en_name": ["3-Methoxyacetophenone", "Ethanone, 1-(3-methoxyphenyl)-", "Acetophenone, 3\u2032-methoxy-", "1-(3-Methoxyphenyl)ethanone", "3-Methoxyacetophenone", "3\u2032-Methoxyacetophenon", "3\u2032-Methoxyacetophenone", "3-Acetylanisole", "Methyl 3-methoxyphenyl ketone", "m-Methoxyacetophenone", "1-Acetyl-3-methoxybenzene", "3-Methoxyphenyl methyl ketone", "m-Acetylanisole", "NSC 65593", "3-Methoxy-1-acetylbenzene", "m-Acetanisole", "1-(3-Methoxyphenyl)ethan-1-one", "3-Methoxy hypnone"], "SMILES": "C(C)(=O)C1=CC(OC)=CC=C1", "physical_data": {"Molecular Weight": "150.17", "Molecular Formula": "C9H10O2", "Boiling Point": "240 \u00b0C", "Melting Point": "95.5 \u00b0C", "Density": "1.0993 g/cm\u00b3 @ Temp: 15 \u00b0C"}}