{"cas_no": "586-91-4", "cn_name": "\u5076\u6c2e\u82ef-4,4-\u4e8c\u7fa7\u9178", "en_name": ["4,4\u2032-(1,2-Diazenediyl)bis[benzoic acid]", "Benzoic acid, 4,4\u2032-(1,2-diazenediyl)bis-", "Benzoic acid, 4,4\u2032-azodi-", "Benzoic acid, 4,4\u2032-azobis-", "Benzoic acid, p,p\u2032-azodi-", "4,4\u2032-(1,2-Diazenediyl)bis[benzoic acid]", "4,4\u2032-Azobenzenedicarboxylic acid", "4,4\u2032-Azobisbenzoic acid", "4,4\u2032-Azodibenzoic acid"], "SMILES": "C(O)(=O)C1=CC=C(N=NC2=CC=C(C(O)=O)C=C2)C=C1", "physical_data": {"Molecular Weight": "270.24", "Molecular Formula": "C14H10N2O4", "Melting Point": "117 \u00b0C"}}