{"cas_no": "586-76-5", "cn_name": "4-\u6eb4\u82ef\u7532\u9178", "en_name": ["4-Bromobenzoic acid", "Benzoic acid, 4-bromo-", "Benzoic acid, p-bromo-", "4-Bromobenzoic acid", "p-Bromobenzoic acid", "p-Carboxybromobenzene", "p-Bromobenzenecarboxylic acid", "NSC 143357", "NSC 17582", "NSC 176126", "4-Bromobenzenecarboxylic acid"], "SMILES": "C(O)(=O)C1=CC=C(Br)C=C1", "physical_data": {"Molecular Weight": "201.02", "Molecular Formula": "C7H5BrO2", "Boiling Point": "116 \u00b0C @ Press: 15-16 Torr", "Melting Point": "254.5 \u00b0C", "Density": "1.859 g/cm\u00b3"}}