{"cas_no": "586-06-1", "cn_name": "\u5965\u897f\u90a3\u6797", "en_name": ["Metaproterenol", "1,3-Benzenediol, 5-[1-hydroxy-2-[(1-methylethyl)amino]ethyl]-", "Benzyl alcohol, 3,5-dihydroxy-\u03b1-[(isopropylamino)methyl]-", "5-[1-Hydroxy-2-[(1-methylethyl)amino]ethyl]-1,3-benzenediol", "3,5-Dihydroxy-\u03b1-[(isopropylamino)methyl]benzyl alcohol", "Metaproterenol", "Orciprenaline", "1-(3,5-Dihydroxyphenyl)-2-(isopropylamino)ethanol", "(\u00b1)-Orciprenaline", "(\u00b1)-Metaproterenol", "3,5-Dihydroxy-\u03b1-[(isopropylamino)methyl]benzenemethanol"], "SMILES": "C(CNC(C)C)(O)C1=CC(O)=CC(O)=C1", "physical_data": {"Molecular Weight": "211.26", "Molecular Formula": "C11H17NO3", "Melting Point": "100 \u00b0C"}}