{"cas_no": "586-89-0", "cn_name": "4-\u4e59\u9170\u57fa\u82ef\u7532\u9178", "en_name": ["4-Acetylbenzoic acid", "Benzoic acid, 4-acetyl-", "Benzoic acid, p-acetyl-", "4-Acetylbenzoic acid", "p-Acetylbenzoic acid", "p-Carboxyacetophenone", "4-Carboxyacetophenone", "4-(1-Oxoethyl)benzoic acid", "NSC 16644"], "SMILES": "C(C)(=O)C1=CC=C(C(O)=O)C=C1", "physical_data": {"Molecular Weight": "164.16", "Molecular Formula": "C9H8O3", "Melting Point": "208 \u00b0C"}}