{"cas_no": "586-61-8", "cn_name": "1-\u6eb4-4-\u5f02\u4e19\u57fa\u82ef", "en_name": ["1-Bromo-4-isopropylbenzene", "Benzene, 1-bromo-4-(1-methylethyl)-", "Cumene, p-bromo-", "1-Bromo-4-(1-methylethyl)benzene", "p-Bromocumene", "4-Bromocumene", "4-Isopropylbromobenzene", "1-Bromo-4-isopropylbenzene", "2-(4-Bromophenyl)propane", "2-(p-Bromophenyl)propane", "4-Bromoisopropylbenzene", "p-Isopropylbromobenzene", "4-Isopropylphenyl bromide", "p-Isopropylphenyl bromide", "NSC 97223", "p-Bromoisopropylbenzene", "4-Bromo-1-isopropylbenzene", "1-Bromo-4-(propan-2-yl)benzene"], "SMILES": "C(C)(C)C1=CC=C(Br)C=C1", "physical_data": {"Molecular Weight": "199.09", "Molecular Formula": "C9H11Br", "Boiling Point": "218.7 \u00b0C", "Melting Point": "-22.5 \u00b0C", "Density": "1.3145 g/cm\u00b3 @ Temp: 20 \u00b0C"}}