{"cas_no": "586-78-7", "cn_name": "1-\u6eb4-4-\u785d\u57fa\u82ef", "en_name": ["1-Bromo-4-nitrobenzene", "Benzene, 1-bromo-4-nitro-", "1-Bromo-4-nitrobenzene", "p-Nitrobromobenzene", "4-Bromonitrobenzene", "4-Nitrobromobenzene", "p-Bromonitrobenzene", "p-Nitrophenyl bromide", "4-Nitrophenyl bromide", "4-Bromo-1-nitrobenzene", "NSC 3526", "4-Nitro-1-bromobenzene", "1-Nitro-4-bromobenzene"], "SMILES": "N(=O)(=O)C1=CC=C(Br)C=C1", "physical_data": {"Molecular Weight": "202.01", "Molecular Formula": "C6H4BrNO2", "Boiling Point": "256 \u00b0C", "Melting Point": "127 \u00b0C"}}