{"cas_no": "5860-71-9", "cn_name": "2,6-\u4e8c\u7532\u57fa\u70df\u9178", "en_name": ["2,6-Dimethylnicotinic acid", "3-Pyridinecarboxylic acid, 2,6-dimethyl-", "Nicotinic acid, 2,6-dimethyl-", "2,6-Dimethyl-3-pyridinecarboxylic acid", "2,6-Lutidine-3-carboxylic acid", "2,6-Dimethylnicotinic acid"], "SMILES": "C(O)(=O)C1=C(C)N=C(C)C=C1", "physical_data": {"Molecular Weight": "151.16", "Molecular Formula": "C8H9NO2", "Melting Point": "151 \u00b0C"}}