{"cas_no": "58625-96-0", "cn_name": "\u8349\u8393\u9178\u4e59\u916f", "en_name": ["Ethyl 2-methyl-2-pentenoate", "2-Pentenoic acid, 2-methyl-, ethyl ester", "Ethyl 2-methyl-2-pentenoate"], "SMILES": "C(C(OCC)=O)(=CCC)C", "physical_data": {"Molecular Weight": "142.20", "Molecular Formula": "C8H14O2", "Boiling Point": "66 \u00b0C @ Press: 15 Torr"}}