{"cas_no": "58626-38-3", "cn_name": "3-\u9a6c\u6765\u9170\u4e9a\u80fa\u57fa\u82ef\u7532\u9178\u7425\u73c0\u9170\u4e9a\u80fa\u916f", "en_name": ["m-Maleimidobenzoyl-N-hydroxysuccinimide", "Benzoic acid, 3-(2,5-dihydro-2,5-dioxo-1H-pyrrol-1-yl)-, 2,5-dioxo-1-pyrrolidinyl ester", "1H-Pyrrole-2,5-dione, 1-[3-[[(2,5-dioxo-1-pyrrolidinyl)oxy]carbonyl]phenyl]-", "m-Maleimidobenzoic acid N-hydroxysuccinimide ester", "N-(m-Maleimidobenzoyloxy)succinimide", "m-Maleimidobenzoyl N-hydroxysuccinimide ester", "N-(m-Maleimidobenzoyloxy)succinamide", "m-Maleimidobenzoyl-N-hydroxysuccinimide", "MMBS", "MBS", "N-(3-Maleimidobenzoyloxy)succinamide", "NSC 294786", "(2,5-Dioxopyrrolidin-1-yl) 3-(2,5-dioxopyrrol-1-yl)benzoate", "m-Maleimidobenzoic acid succinimidyl ester"], "SMILES": "O=C1N(C2=CC(C(ON3C(=O)CCC3=O)=O)=CC=C2)C(=O)C=C1", "physical_data": {"Molecular Weight": "314.25", "Molecular Formula": "C15H10N2O6", "Melting Point": "175-178 \u00b0C"}}