{"cas_no": "58632-95-4", "cn_name": "2-(\u53d4\u4e01\u6c27\u7fb0\u57fa\u6c27\u4e9a\u6c28\u57fa)-2-\u82ef\u4e59\u8148", "en_name": ["2-(tert-Butoxycarbonyloxyimino)-2-phenylacetonitrile", "Carbonic acid, (cyanophenylmethylene)azanyl 1,1-dimethylethyl ester", "Benzeneacetonitrile, \u03b1-[[[(1,1-dimethylethoxy)carbonyl]oxy]imino]-", "2-(tert-Butoxycarbonyloxyimino)-2-phenylacetonitrile", "2-(tert-Butyloxycarbonyloxyimino)-2-phenylacetonitrile", "Boc-ON", "NSC 328381", "2-(tert.-Butoxycarbonyloxyimino)phenylacetonitrile", "2-(tert-Butoxycarbonyloximino)-2-phenylacetonitrile", "2-(Boc-oxyimino)-2-phenylacetonitrile"], "SMILES": "C(=NOC(OC(C)(C)C)=O)(C#N)C1=CC=CC=C1", "physical_data": {"Molecular Weight": "246.26", "Molecular Formula": "C13H14N2O3", "Melting Point": "82-84 \u00b0C"}}