{"cas_no": "58652-20-3", "cn_name": "\u918b\u9178\u8bfa\u7f8e\u5b55\u916e", "en_name": ["Nomegestrol acetate", "19-Norpregna-4,6-diene-3,20-dione, 17-(acetyloxy)-6-methyl-", "17-(Acetyloxy)-6-methyl-19-norpregna-4,6-diene-3,20-dione", "6-Methyl-17\u03b1-acetoxy-\u03946-19-norprogesterone", "TX 066", "Nomegestrol acetate", "Lutenyl", "Uniplant", "Surplant", "Org 10486-0"], "SMILES": "CC12C(OC(C)=O)(C(C)=O)CCC1C3C(CC2)C4C(C(C)=C3)=CC(=O)CC4", "physical_data": {"Molecular Weight": "370.48", "Molecular Formula": "C23H30O4", "Melting Point": "214-215 \u00b0C"}}