{"cas_no": "58654-67-4", "cn_name": "5-\u7532\u57fa-2-\u8f9b\u916e", "en_name": ["5-Methyl-2-octanone", "2-Octanone, 5-methyl-", "5-Methyl-2-octanone"], "SMILES": "C(CCC(C)=O)(CCC)C", "physical_data": {"Molecular Weight": "142.24", "Molecular Formula": "C9H18O", "Boiling Point": "100-102 \u00b0C @ Press: 50 Torr"}}