{"cas_no": "5866-98-8", "cn_name": "2,6-\u4e8c\u6c2f-3-\u785d\u57fa\u82ef\u80bc", "en_name": ["2,6-Dichloro-3-nitrobenzonitrile", "Benzonitrile, 2,6-dichloro-3-nitro-", "2,6-Dichloro-3-nitrobenzonitrile", "3-Nitro-2,6-dichlorobenzonitrile"], "SMILES": "C(#N)C1=C(Cl)C(N(=O)=O)=CC=C1Cl", "physical_data": {"Molecular Weight": "217.01", "Molecular Formula": "C7H2Cl2N2O2", "Melting Point": "106-107 \u00b0C"}}