{"cas_no": "58670-89-6", "cn_name": "\u7678\u57fa\u5341\u56db\u9187", "en_name": ["2-Decyltetradecanol", "1-Tetradecanol, 2-decyl-", "2-Decyl-1-tetradecanol", "2-Decylmyristyl alcohol", "2-Decyltetradecanol", "2-Decyltetradecyl alcohol", "Isofol 24", "Guerbet C24", "NJCOL 240A", "Jarcol I 24", "Risonol 24SP", "Decyltetradecyl alcohol", "Decyltetradecanol", "2-Dodecyl-1-dodecanol"], "SMILES": "C(CCCCCCCCCCCC)(CCCCCCCCCC)CO", "physical_data": {"Molecular Weight": "354.65", "Molecular Formula": "C24H50O", "Boiling Point": "250 \u00b0C", "Density": "0.8513 g/cm\u00b3 @ Temp: 17 \u00b0C"}}