{"cas_no": "58699-62-0", "cn_name": "3'-\u53e0\u6c2e\u57fa-3'-\u8131\u6c27\u817a\u82f7", "en_name": ["3\u2032-Azido-3\u2032-deoxyadenosine", "Adenosine, 3\u2032-azido-3\u2032-deoxy-", "3\u2032-Azido-3\u2032-deoxyadenosine"], "SMILES": "OC1C(N2C=3C(N=C2)=C(N)N=CN3)OC(CO)C1N=[N+]=[N-]", "physical_data": {"Molecular Weight": "", "Molecular Formula": "C10H12N8O3", "Melting Point": "212-214 \u00b0C"}}