{"cas_no": "587-02-0", "cn_name": "3-\u4e59\u57fa\u82ef\u80fa", "en_name": ["3-Ethylaniline", "Benzenamine, 3-ethyl-", "Aniline, m-ethyl-", "3-Ethylbenzenamine", "m-Ethylaniline", "3-Ethylaniline", "3-Ethylphenylamine"], "SMILES": "C(C)C1=CC(N)=CC=C1", "physical_data": {"Molecular Weight": "121.18", "Molecular Formula": "C8H11N", "Boiling Point": "214 \u00b0C", "Melting Point": "-64 \u00b0C"}}