{"cas_no": "587-90-6", "cn_name": "4,4'-\u4e8c\u785d\u57fa\u4e8c\u82ef\u8132", "en_name": ["4,4\u2032-Dinitrocarbanilide", "Urea, N,N\u2032-bis(4-nitrophenyl)-", "Carbanilide, 4,4\u2032-dinitro-", "N,N\u2032-Bis(4-nitrophenyl)urea", "4,4\u2032-Dinitrocarbanilide", "4,4\u2032-Dinitrodiphenylurea", "N,N\u2032-Di(p-nitrophenyl)urea", "DNC", "N,N\u2032-Bis(p-nitrophenyl)urea", "NSC 101086", "1,3-Bis(4-nitrophenyl)urea", "1,3-Di(4-nitrophenyl)urea", "1,3-Bis(p-nitrophenyl)urea"], "SMILES": "N(C(NC1=CC=C(N(=O)=O)C=C1)=O)C2=CC=C(N(=O)=O)C=C2", "physical_data": {"Molecular Weight": "302.24", "Molecular Formula": "C13H10N4O5", "Melting Point": "312 \u00b0C (decomp)"}}