{"cas_no": "587-84-8", "cn_name": "\u4e8c\u82ef\u6c28\u786b\u9178", "en_name": ["Benzenamine, N-phenyl-, sulfate (1:1)", "Benzenamine, N-phenyl-, sulfate (1:1)", "Diphenylamine, sulfate"], "SMILES": "N(C1=CC=CC=C1)C2=CC=CC=C2.S(=O)(=O)(O)O", "physical_data": {"Molecular Weight": "", "Molecular Formula": "C12H11N.H2O4S", "Melting Point": "125 \u00b0C"}}