{"cas_no": "587-63-3", "cn_name": "\u4e8c\u6c22\u9189\u6912\u7d20", "en_name": ["Dihydrokavain", "2H-Pyran-2-one, 5,6-dihydro-4-methoxy-6-(2-phenylethyl)-, (6S)-", "2H-Pyran-2-one, 5,6-dihydro-4-methoxy-6-phenethyl-", "2H-Pyran-2-one, 5,6-dihydro-4-methoxy-6-(2-phenylethyl)-, (S)-", "(6S)-5,6-Dihydro-4-methoxy-6-(2-phenylethyl)-2H-pyran-2-one", "Dihydrokavain", "Dihydrokawain", "7,8-Dihydrokawain", "Kawain, dihydro-", "(+)-Dihydrokawain", "7,8-Dihydrokavain", "Marindinin", "NSC 112163", "(+)-7,8-Dihydrokavain", "(S)-(+)-Dihydrokawain", "(+)-Dihydrokavain", "(+)-(S)-Dihydrokavain", "(6S)-4-Methoxy-6-(2-phenylethyl)-5,6-dihydro-2H-pyran-2-one", "(2S)-4-Methoxy-2-(2-phenylethyl)-2,3-dihydropyran-6-one"], "SMILES": "C(CC1=CC=CC=C1)C2CC(OC)=CC(=O)O2", "physical_data": {"Molecular Weight": "232.27", "Molecular Formula": "C14H16O3", "Melting Point": "58-60 \u00b0C"}}