{"cas_no": "587-65-5", "cn_name": "2-\u6c2f\u4e59\u9170\u82ef\u80fa", "en_name": ["Chloroacetanilide", "Acetamide, 2-chloro-N-phenyl-", "Acetanilide, 2-chloro-", "Acetanilide, \u03b1-chloro-", "2-Chloro-N-phenylacetamide", "2-Chloroacetanilide", "\u03b1-Chloroacetanilide", "N-Phenylchloroacetamide", "N-Phenyl-2-chloroacetamide", "\u03c9-Chloroacetanilide", "N-(Chloroacetyl)aniline", "N-Phenyl-2-chloroethanamide", "Phenylcarbamoylmethyl chloride", "NSC 311", "N-(2-Chloroacetyl)aniline", "\u03b1-Chloro-N-phenylacetamide", "Chloroacetanilide", "Chloracetanilide"], "SMILES": "N(C(CCl)=O)C1=CC=CC=C1", "physical_data": {"Molecular Weight": "169.61", "Molecular Formula": "C8H8ClNO", "Melting Point": "86-88 \u00b0C"}}