{"cas_no": "587-48-4", "cn_name": "3-\u4e59\u9170\u80fa\u57fa\u82ef\u7532\u9178", "en_name": ["3-Acetamidobenzoic acid", "Benzoic acid, 3-(acetylamino)-", "Benzoic acid, m-acetamido-", "3-(Acetylamino)benzoic acid", "m-Acetylaminobenzoic acid", "3-Acetamidobenzoic acid", "1-Acetylamino-3-carboxybenzene", "3-Acetylaminobenzoic acid", "NSC 4001"], "SMILES": "N(C(C)=O)C1=CC(C(O)=O)=CC=C1", "physical_data": {"Molecular Weight": "179.17", "Molecular Formula": "C9H9NO3", "Melting Point": "240-245 \u00b0C"}}