{"cas_no": "587-85-9", "cn_name": "\u4e8c\u82ef\u57fa\u6c5e", "en_name": ["Diphenylmercury", "Mercury, diphenyl-", "Diphenylmercury", "Benzene, mercuriodi-", "NSC 23990"], "SMILES": "[Hg](C1=CC=CC=C1)C2=CC=CC=C2", "physical_data": {"Molecular Weight": "", "Molecular Formula": "C12H10Hg", "Melting Point": "125 \u00b0C", "Density": "1.916 g/cm\u00b3 @ Temp: 144 \u00b0C"}}