{"cas_no": "587-33-7", "cn_name": "L-M-\u916a\u6c28\u9178", "en_name": ["L-m-Tyrosine", "L-Phenylalanine, 3-hydroxy-", "m-Tyrosine, L-", "3-Hydroxy-L-phenylalanine", "3-(m-Hydroxyphenyl)alanine", "L-m-Tyrosine", "3-Hydroxyphenylalanine", "m-L-Tyrosine", "L-meta-Tyrosine", "L-3-Hydroxyphenylalanine", "(S)-2-Amino-3-(3-hydroxyphenyl)propanoic acid", "(2S)-2-Amino-3-(3-hydroxyphenyl)propanoic acid"], "SMILES": "C(C(C(O)=O)N)C1=CC(O)=CC=C1", "physical_data": {"Molecular Weight": "181.19", "Molecular Formula": "C9H11NO3", "Melting Point": "268 \u00b0C (decomp)"}}