{"cas_no": "587-03-1", "cn_name": "3-\u7532\u57fa\u82c4\u9187", "en_name": ["3-Methylbenzyl alcohol", "Benzenemethanol, 3-methyl-", "Benzyl alcohol, m-methyl-", "3-Methylbenzenemethanol", "m-Methylbenzyl alcohol", "3-Methylbenzyl alcohol", "m-Tolylmethanol", "m-Tolualcohol", "NSC 9397", "(3-Methylphenyl)methanol"], "SMILES": "C(O)C1=CC(C)=CC=C1", "physical_data": {"Molecular Weight": "122.16", "Molecular Formula": "C8H10O", "Boiling Point": "215.5 \u00b0C", "Melting Point": "&lt;-20 \u00b0C"}}