{"cas_no": "587-04-2", "cn_name": "3-\u6c2f\u82ef\u7532\u919b", "en_name": ["3-Chlorobenzaldehyde", "Benzaldehyde, 3-chloro-", "Benzaldehyde, m-chloro-", "3-Chlorobenzaldehyde", "m-Chlorobenzaldehyde", "m-Chlorobenzenecarboxaldehyde", "NSC 60107", "3-Chlorophenylcarboxaldehyde"], "SMILES": "C(=O)C1=CC(Cl)=CC=C1", "physical_data": {"Molecular Weight": "140.57", "Molecular Formula": "C7H5ClO", "Boiling Point": "213.5 \u00b0C", "Melting Point": "17.5 \u00b0C"}}