{"cas_no": "587-23-5", "cn_name": "\u6241\u6843\u9178\u4e4c\u6d1b\u6258\u54c1", "en_name": ["Methenamine mandelate", "Benzeneacetic acid, \u03b1-hydroxy-, compd. with 1,3,5,7-tetraazatricyclo[3.3.1.13,7]decane (1:1)", "Mandelic acid, compd. with hexamethylenetetramine (1:1)", "Mandelic acid, salt with (CH2)6N4", "Hexamethylenetetramine, compd. with mandelic acid", "Hexamethylenetetramine, monomandelate", "1,3,5,7-Tetraazatricyclo[3.3.1.13,7]decane, mono(\u03b1-hydroxybenzeneacetate)", "Diuramine", "Hexamethylenetetramine mandelate", "Hexydaline", "Mandalay", "Mandelamine", "Mantropine", "Methavin", "Penelate", "Uromandelin", "Uronamin", "Hexamethylenetetramine phenylglycolate", "Hexamethyleneamine mandelate", "Mandurin", "Reflux", "Renelate", "Mandoz", "Cedulamin", "Uronamine", "Mandastat", "Mandacon", "Uro-Cedulamin", "Prov-U-Sep", "Mandopan", "Mandural", "Methenamine mandelate", "Mandelic acid methenamine salt", "Uroqid", "Hexamethylenamine mandelate", "Hexamine mandelate", "1,3,5,7-Tetraazaadamantane 2-hydroxy-2-phenylacetate"], "SMILES": "C(C(O)=O)(O)C1=CC=CC=C1.N12CN3CN(C1)CN(C2)C3", "physical_data": {"Molecular Weight": "", "Molecular Formula": "C8H8O3.C6H12N4", "Melting Point": "129.2-129.5 \u00b0C"}}