{"cas_no": "5870-38-2", "cn_name": "2,5-\u4e8c\u7f9f\u57fa\u5bf9\u82ef\u4e8c\u7532\u9178\u4e59\u916f", "en_name": ["Diethyl 2,5-dihydroxyterephthalate", "1,4-Benzenedicarboxylic acid, 2,5-dihydroxy-, 1,4-diethyl ester", "Terephthalic acid, 2,5-dihydroxy-, diethyl ester", "1,4-Benzenedicarboxylic acid, 2,5-dihydroxy-, diethyl ester", "Diethyl 2,5-dihydroxyterephthalate", "2,5-Dihydroxyterephthalic acid diethyl ester", "NSC 177975", "Diethyl 2,5-dihydroxy-1,4-terephthalate"], "SMILES": "C(OCC)(=O)C1=C(O)C=C(C(OCC)=O)C(O)=C1", "physical_data": {"Molecular Weight": "254.24", "Molecular Formula": "C12H14O6", "Melting Point": "125-127 \u00b0C"}}