{"cas_no": "5870-29-1", "cn_name": "\u76d0\u9178\u73af\u55b7\u6258\u916f", "en_name": ["Cyclopentolate hydrochloride", "Benzeneacetic acid, \u03b1-(1-hydroxycyclopentyl)-, 2-(dimethylamino)ethyl ester, hydrochloride (1:1)", "Benzeneacetic acid, \u03b1-(1-hydroxycyclopentyl)-, 2-(dimethylamino)ethyl ester, hydrochloride", "Cyclopentaneacetic acid, 1-hydroxy-\u03b1-phenyl-, 2-(dimethylamino)ethyl ester hydrochloride", "Cyclopentolate hydrochloride", "\u03b2-Dimethylaminoethyl (1-hydroxycyclopentyl)phenylacetate hydrochloride", "2-(Dimethylamino)ethyl 1-hydroxy-\u03b1-phenylcyclopentaneacetate hydrochloride", "(\u00b1)-Cyclopentolate-hydrochloride", "Zyklolat", "Mydplegic", "Ak-Pentolate", "Mydrilate", "Alnide", "Cyplegin", "Cyclate", "Cyclogik"], "SMILES": "C(C(OCCN(C)C)=O)(C1(O)CCCC1)C2=CC=CC=C2.Cl", "physical_data": {"Molecular Weight": "", "Molecular Formula": "C17H25NO3.ClH", "Melting Point": "137-141 \u00b0C"}}