{"cas_no": "5870-93-9", "cn_name": "\u4e01\u9178\u5e9a\u916f", "en_name": ["Heptyl butyrate", "Butanoic acid, heptyl ester", "Butyric acid, heptyl ester", "Heptyl butyrate", "Heptyl butanoate"], "SMILES": "C(OCCCCCCC)(CCC)=O", "physical_data": {"Molecular Weight": "186.29", "Molecular Formula": "C11H22O2", "Boiling Point": "225.8 \u00b0C", "Melting Point": "-57.5 \u00b0C", "Density": "0.8827 g/cm\u00b3"}}