{"cas_no": "5870-68-8", "cn_name": "3-\u7532\u57fa\u620a\u9178\u4e59\u916f", "en_name": ["Ethyl 3-methylpentanoate", "Pentanoic acid, 3-methyl-, ethyl ester", "Valeric acid, 3-methyl-, ethyl ester", "Ethyl 3-methylpentanoate", "Ethyl \u03b2-methylvalerate", "Ethyl 3-methylvalerate", "3-Methylvaleric acid ethyl ester"], "SMILES": "C(C(OCC)=O)C(CC)C", "physical_data": {"Molecular Weight": "144.21", "Molecular Formula": "C8H16O2", "Boiling Point": "158.5-159 \u00b0C @ Press: 756 Torr", "Density": "0.863 g/cm\u00b3 @ Temp: 20 \u00b0C"}}