{"cas_no": "5871-17-0", "cn_name": "O,O-\u4e8c\u4e59\u57fa\u786b\u4ee3\u78f7\u9178\u94be\u76d0", "en_name": ["Potassium O,O-diethylthiophosphate", "Phosphorothioic acid, O,O-diethyl ester, potassium salt (1:1)", "Phosphorothioic acid, O,O-diethyl ester, potassium salt", "Ethyl potassium phosphorothioate", "Potassium O,O-diethylthiophosphate", "Potassium O,O-diethyl phosphorothioate", "Potassium diethyl thiophosphate", "O,O-Diethyl potassium phosphorothioate", "Potassium di-O-ethyl phosphorothioate"], "SMILES": "P(OCC)(OCC)(=O)S.[K]", "physical_data": {"Molecular Weight": "", "Molecular Formula": "C4H11O3PS.K", "Melting Point": "196-197 \u00b0C"}}