{"cas_no": "5872-08-2", "cn_name": "\u6df7\u65cb\u6a1f\u8111\u78fa\u9178", "en_name": ["(\u00b1)-Camphorsulfonic acid", "Bicyclo[2.2.1]heptane-1-methanesulfonic acid, 7,7-dimethyl-2-oxo-", "10-Bornanesulfonic acid, 2-oxo-, (\u00b1)-", "Bicyclo[2.2.1]heptane-1-methanesulfonic acid, 7,7-dimethyl-2-oxo-, (\u00b1)-", "7,7-Dimethyl-2-oxobicyclo[2.2.1]heptane-1-methanesulfonic acid", "(\u00b1)-Camphor-10-sulfonic acid", "DL-10-Camphorsulfonic acid", "(\u00b1)-Camphorsulfonic acid", "(RS)-10-Camphorsulfonic acid", "2-Oxo-10-bornanesulfonic acid", "DL-Camphorsulfonic acid", "(7,7-Dimethyl-2-oxobicyclo[2.2.1]heptan-1-yl)methanesulfonic acid", "(7,7-Dimethyl-3-oxoniumylidene-4-bicyclo[2.2.1]heptanyl)methanesulfonate", "(7,7-Dimethyl-2-oxobicyclo[2.2.1]hept-1-yl)methanesulfonic acid", "Bicyclo[2.2.1]heptane-1-methanesulfonic acid, 4,7,7-trimethyl-"], "SMILES": "C(S(=O)(=O)O)C12C(C)(C)C(CC1=O)CC2", "physical_data": {"Molecular Weight": "232.30", "Molecular Formula": "C10H16O4S", "Melting Point": "153 \u00b0C"}}