{"cas_no": "58728-64-6", "cn_name": "4-\u6c28\u57fa-1-\u8418\u7fa7\u8148", "en_name": ["4-Amino-1-naphthalenecarbonitrile", "1-Naphthalenecarbonitrile, 4-amino-", "4-Amino-1-naphthalenecarbonitrile", "4-Cyano-1-naphthylamine", "1-Amino-4-cyanonaphthalene", "4-Amino-1-naphthonitrile"], "SMILES": "C(#N)C=1C2=C(C(N)=CC1)C=CC=C2", "physical_data": {"Molecular Weight": "168.19", "Molecular Formula": "C11H8N2", "Melting Point": "170-172 \u00b0C"}}