{"cas_no": "58735-64-1", "cn_name": "\u5f02\u70df\u68d2\u66f2\u9709\u7d20C", "en_name": ["Roquefortine", "2H-Pyrazino[1\u2032,2\u2032:1,5]pyrrolo[2,3-b]indole-1,4(3H,5aH)-dione, 10b-(1,1-dimethyl-2-propen-1-yl)-6,10b,11,11a-tetrahydro-3-(1H-imidazol-5-ylmethylene)-, (3E,5aS,10bR,11aS)-", "2H-Pyrazino[1\u2032,2\u2032:1,5]pyrrolo[2,3-b]indole-1,4(3H,5aH)-dione, 10b-(1,1-dimethyl-2-propenyl)-6,10b,11,11a-tetrahydro-3-(1H-imidazol-4-ylmethylene)-, (3E,5aS,10bR,11aS)-", "(3E,5aS,10bR,11aS)-10b-(1,1-Dimethyl-2-propen-1-yl)-6,10b,11,11a-tetrahydro-3-(1H-imidazol-5-ylmethylene)-2H-pyrazino[1\u2032,2\u2032:1,5]pyrrolo[2,3-b]indole-1,4(3H,5aH)-dione", "Roquefortine", "Roquefortine C", "Roquefortin", "NSC 292134", "(-)-Roquefortine C"], "SMILES": "C(C=C)(C)(C)C12C(N3C(C1)C(=O)NC(=CC4=CN=CN4)C3=O)NC=5C2=CC=CC5", "physical_data": {"Molecular Weight": "389.45", "Molecular Formula": "C22H23N5O2", "Melting Point": "202-205 \u00b0C"}}