{"cas_no": "5873-90-5", "cn_name": "\u82ef\u4e9a\u6c28\u57fa\u9178\u7532\u916f\u76d0\u9178\u76d0", "en_name": ["Methyl benzimidate hydrochloride", "Benzenecarboximidic acid, methyl ester, hydrochloride (1:1)", "Benzimidic acid, methyl ester, hydrochloride", "Benzenecarboximidic acid, methyl ester, hydrochloride", "Methyl benzimidate hydrochloride", "Methyl benzamidate hydrochloride"], "SMILES": "C(OC)(=N)C1=CC=CC=C1.Cl", "physical_data": {"Molecular Weight": "", "Molecular Formula": "C8H9NO.ClH", "Boiling Point": "106 \u00b0C @ Press: 24 Torr", "Melting Point": "94-96 \u00b0C"}}