{"cas_no": "58749-51-2", "cn_name": "\u5f02\u6c30\u9178-2-(2-\u567b\u5429\u57fa)\u4e59\u57fa\u916f", "en_name": ["2-(2-Isocyanatoethyl)thiophene", "Thiophene, 2-(2-isocyanatoethyl)-", "2-(2-Isocyanatoethyl)thiophene", "2-(2-isocyanatoethyl)thiophene", "2-(Thien-2-yl)ethyl isocyanate", "2-(Thiophen-2-yl)ethyl isocyanate"], "SMILES": "C(CN=C=O)C1=CC=CS1", "physical_data": {"Molecular Weight": "153.20", "Molecular Formula": "C7H7NOS", "Boiling Point": "127-135 \u00b0C @ Press: 15 Torr"}}