{"cas_no": "58749-22-7", "cn_name": "\u7518\u8349\u67e5\u5c14\u916eA", "en_name": ["Licochalcone A", "2-Propen-1-one, 3-[5-(1,1-dimethyl-2-propen-1-yl)-4-hydroxy-2-methoxyphenyl]-1-(4-hydroxyphenyl)-, (2E)-", "2-Propen-1-one, 3-[5-(1,1-dimethyl-2-propenyl)-4-hydroxy-2-methoxyphenyl]-1-(4-hydroxyphenyl)-, (E)-", "2-Propen-1-one, 3-[5-(1,1-dimethyl-2-propenyl)-4-hydroxy-2-methoxyphenyl]-1-(4-hydroxyphenyl)-, (2E)-", "(2E)-3-[5-(1,1-Dimethyl-2-propen-1-yl)-4-hydroxy-2-methoxyphenyl]-1-(4-hydroxyphenyl)-2-propen-1-one", "Licochalcone A"], "SMILES": "C(=CC(=O)C1=CC=C(O)C=C1)C2=C(OC)C=C(O)C(C(C=C)(C)C)=C2", "physical_data": {"Molecular Weight": "338.40", "Molecular Formula": "C21H22O4", "Melting Point": "99-100 \u00b0C"}}