{"cas_no": "58743-76-3", "cn_name": "4-\u4e19\u57fa-4'-\u6c30\u57fa\u8054\u82ef", "en_name": ["3CB", "[1,1\u2032-Biphenyl]-4-carbonitrile, 4\u2032-propyl-", "4\u2032-Propyl[1,1\u2032-biphenyl]-4-carbonitrile", "4\u2032-Propyl-4-cyanobiphenyl", "3CB", "CB 3", "4-Cyano-4\u2032-propyl-1,1\u2032-biphenyl", "4-Cyano-4\u2032-propylbiphenyl"], "SMILES": "C(CC)C1=CC=C(C=C1)C2=CC=C(C#N)C=C2", "physical_data": {"Molecular Weight": "221.30", "Molecular Formula": "C16H15N", "Boiling Point": "165-170 \u00b0C @ Press: 2 Torr"}}