{"cas_no": "5874-57-7", "cn_name": "D-\u4e1d\u6c28\u9178\u7532\u916f\u76d0\u9178\u76d0", "en_name": ["D-Serine, methyl ester, hydrochloride (1:1)", "D-Serine, methyl ester, hydrochloride (1:1)", "Serine, methyl ester, hydrochloride, D-", "D-Serine, methyl ester, hydrochloride", "Methyl D-serinate hydrochloride", "(R)-2-Amino-3-hydroxypropionic acid methyl ester hydrochloride", "(R)-Methyl 2-amino-3-hydroxypropanoate hydrochloride", "(2R)-3-Hydroxy-l-methoxy-l-oxopropan-2-aminium chloride"], "SMILES": "C(C(OC)=O)(CO)N.Cl", "physical_data": {"Molecular Weight": "", "Molecular Formula": "C4H9NO3.ClH", "Melting Point": "152-157 \u00b0C"}}