{"cas_no": "58749-23-8", "cn_name": "\u7518\u8349\u67e5\u5c14\u916eB", "en_name": ["Licochalcone B", "2-Propen-1-one, 3-(3,4-dihydroxy-2-methoxyphenyl)-1-(4-hydroxyphenyl)-, (2E)-", "2-Propen-1-one, 3-(3,4-dihydroxy-2-methoxyphenyl)-1-(4-hydroxyphenyl)-, (E)-", "(2E)-3-(3,4-Dihydroxy-2-methoxyphenyl)-1-(4-hydroxyphenyl)-2-propen-1-one", "Licochalcone B"], "SMILES": "C(=CC(=O)C1=CC=C(O)C=C1)C2=C(OC)C(O)=C(O)C=C2", "physical_data": {"Molecular Weight": "286.28", "Molecular Formula": "C16H14O5", "Melting Point": "196-197 \u00b0C"}}