{"cas_no": "5874-97-5", "cn_name": "\u786b\u9178\u5965\u897f\u90a3\u6797", "en_name": ["Metaproterenol sulfate", "1,3-Benzenediol, 5-[1-hydroxy-2-[(1-methylethyl)amino]ethyl]-, sulfate (2:1)", "Benzyl alcohol, 3,5-dihydroxy-\u03b1-[(isopropylamino)methyl]-, sulfate (2:1) (salt)", "1,3-Benzenediol, 5-[1-hydroxy-2-[(1-methylethyl)amino]ethyl]-, sulfate (2:1) (salt)", "Alotec", "3,5-Dihydroxy-\u03b1-[(isopropylamino)methyl]benzyl alcohol sulfate (2:1) (salt)", "Metaproterenol sulfate (2:1) (salt)", "Orciprenaline sulfate (2:1) (salt)", "Metaproterenol sulfate", "Orciprenaline sulfate", "Alupent", "Th 152", "1-(3,5-Dihydroxyphenyl)-1-hydroxy-2-isopropylaminoethane sulfate", "Astmopent", "Metaprel", "(\u00b1)-Orciprenaline sulfate", "dl-Metaproterenol sulfate", "dl-Orciprenaline sulfate", "Novasmasol", "Metaproterenol hemisulfate"], "SMILES": "C(CNC(C)C)(O)C1=CC(O)=CC(O)=C1.S(=O)(=O)(O)O", "physical_data": {"Molecular Weight": "", "Molecular Formula": "C11H17NO3.<sup>1</sup>/2H2O4S", "Melting Point": "202-203 \u00b0C"}}