{"cas_no": "5874-61-3", "cn_name": "4-\u82c4\u57fa-2-\u82ef\u57fa-2-\u5641\u5511\u5549-5-\u916e", "en_name": ["2-Phenyl-4-(phenylmethyl)-5(4H)-oxazolone", "5(4H)-Oxazolone, 2-phenyl-4-(phenylmethyl)-", "2-Oxazolin-5-one, 4-benzyl-2-phenyl-, L-", "2-Oxazolin-5-one, 4-benzyl-2-phenyl-", "2-Phenyl-4-(phenylmethyl)-5(4H)-oxazolone", "4-Benzyl-2-phenyloxazol-5(4H)-one", "(\u00b1)-2-Phenyl-4-benzyl-5(4H)-oxazolone"], "SMILES": "C(C1N=C(OC1=O)C2=CC=CC=C2)C3=CC=CC=C3", "physical_data": {"Molecular Weight": "251.28", "Molecular Formula": "C16H13NO2", "Melting Point": "67-68 \u00b0C"}}