{"cas_no": "5875-41-2", "cn_name": "\u0393-L-\u8c37\u6c28\u9170-L-\u4e19\u6c28\u9178", "en_name": ["\u03b3-Glutamylalanine", "L-Alanine, L-\u03b3-glutamyl-", "Glutamine, N-(1-carboxyethyl)-, L-", "L-Alanine, N-L-\u03b3-glutamyl-", "L-\u03b3-Glutamyl-L-alanine", "\u03b3-Glutamylalanine", "\u03b3-L-Glutamyl-L-alanine", "\u03b3-Glu-Ala", "2: PN: WO2011158590 PAGE: 34 claimed sequence", "5: PN: CN107114752 PAGE: 2 claimed sequence"], "SMILES": "N(C(CCC(C(O)=O)N)=O)C(C(O)=O)C", "physical_data": {"Molecular Weight": "218.21", "Molecular Formula": "C8H14N2O5", "Melting Point": "185-187 \u00b0C"}}