{"cas_no": "5875-06-9", "cn_name": "\u76d0\u9178\u4e19\u7f8e\u5361\u56e0", "en_name": ["Proparacaine hydrochloride", "Benzoic acid, 3-amino-4-propoxy-, 2-(diethylamino)ethyl ester, hydrochloride (1:1)", "Benzoic acid, 3-amino-4-propoxy-, 2-(diethylamino)ethyl ester, monohydrochloride", "2-(Diethylamino)ethyl 3-amino-4-propoxybenzoate hydrochloride", "Ophthaine hydrochloride", "Proparacaine hydrochloride", "2-(Diethylamino)ethyl 3-amino-4-propoxybenzoate monohydrochloride", "Ophthain", "Alcaine", "Chibro-keracaine", "Ophthetic", "Fluoracaine", "Ak-Taine", "Paracaine"], "SMILES": "C(OCCN(CC)CC)(=O)C1=CC(N)=C(OCCC)C=C1.Cl", "physical_data": {"Molecular Weight": "", "Molecular Formula": "C16H26N2O3.ClH", "Melting Point": "182-183.3 \u00b0C"}}