{"cas_no": "58757-38-3", "cn_name": "6-\u6c2f\u5421\u5576-3-\u7fb0\u9170\u6c2f", "en_name": ["6-Chloronicotinoyl chloride", "3-Pyridinecarbonyl chloride, 6-chloro-", "6-Chloro-3-pyridinecarbonyl chloride", "6-Chloronicotinoyl chloride", "6-Chloronicotinic acid chloride", "2-Chloropyridine-5-carbonyl chloride", "6-Chloronicotinyl chloride", "6-Chloropyridin-3-carbonyl chloride"], "SMILES": "C(Cl)(=O)C=1C=CC(Cl)=NC1", "physical_data": {"Molecular Weight": "176.00", "Molecular Formula": "C6H3Cl2NO", "Boiling Point": "85 \u00b0C", "Melting Point": "49-51 \u00b0C"}}