{"cas_no": "5875-25-2", "cn_name": "2-\u6eb4\u4e19\u9170\u80fa", "en_name": ["2-Bromopropionamide", "Propanamide, 2-bromo-", "Propionamide, 2-bromo-", "2-Bromopropanamide", "\u03b1-Bromopropionamide", "2-Bromopropionamide", "\u03b1-Bromopropanamide", "NSC 402153"], "SMILES": "C(C(N)=O)(Br)C", "physical_data": {"Molecular Weight": "151.99", "Molecular Formula": "C3H6BrNO", "Melting Point": "123 \u00b0C"}}