{"cas_no": "5875-24-1", "cn_name": "3-\u6c2f\u4e19\u9170\u80fa", "en_name": ["3-Chloropropanamide", "Propanamide, 3-chloro-", "Propionamide, 3-chloro-", "3-Chloropropanamide", "3-Chloropropionamide", "\u03b2-Chloropropionamide", "NSC 401789"], "SMILES": "C(C(N)=O)CCl", "physical_data": {"Molecular Weight": "107.54", "Molecular Formula": "C3H6ClNO", "Melting Point": "102 \u00b0C"}}