{"cas_no": "5876-17-5", "cn_name": "7-\u7f9f\u57fa-8-\u7532\u6c27\u57fa\u767d\u85d3\u78b1", "en_name": ["Haplopine", "Furo[2,3-b]quinolin-7-ol, 4,8-dimethoxy-", "4,8-Dimethoxyfuro[2,3-b]quinolin-7-ol", "Haplopine", "7-Hydroxy-8-methoxydictamnine"], "SMILES": "O(C)C1=C2C(C(OC)=C3C(=N2)OC=C3)=CC=C1O", "physical_data": {"Molecular Weight": "245.23", "Molecular Formula": "C13H11NO4", "Melting Point": "202-204 \u00b0C"}}