{"cas_no": "58769-20-3", "cn_name": "\u567b\u55ef\u83ca\u916f", "en_name": ["Kadethrin", "Cyclopropanecarboxylic acid, 3-[(E)-(dihydro-2-oxo-3(2H)-thienylidene)methyl]-2,2-dimethyl-, [5-(phenylmethyl)-3-furanyl]methyl ester, (1R,3S)-", "Cyclopropanecarboxylic acid, 3-[(dihydro-2-oxo-3(2H)-thienylidene)methyl]-2,2-dimethyl-, [5-(phenylmethyl)-3-furanyl]methyl ester, [1R-[1\u03b1,3\u03b1(E)]]-", "ENT 29117", "RU 15525", "1R,cis-RU 15,525", "Kadethrin"], "SMILES": "C(C1C(C(OCC=2C=C(CC3=CC=CC=C3)OC2)=O)C1(C)C)=C4CCSC4=O", "physical_data": {"Molecular Weight": "396.50", "Molecular Formula": "C23H24O4S", "Melting Point": "31 \u00b0C"}}