{"cas_no": "5877-42-9", "cn_name": "4-\u4e59\u57fa-1-\u8f9b\u7094-3-\u9187", "en_name": ["4-Ethyl-1-octyn-3-ol", "1-Octyn-3-ol, 4-ethyl-", "4-Ethyl-1-octyn-3-ol", "4-Ethyl-3-hydroxy-1-octyne", "Ethyloctynol", "NSC 62119"], "SMILES": "C(C(C#C)O)(CCCC)CC", "physical_data": {"Molecular Weight": "154.25", "Molecular Formula": "C10H18O", "Boiling Point": "91 \u00b0C @ Press: 10 Torr", "Density": "0.873 g/cm\u00b3 @ Temp: 20 \u00b0C"}}