{"cas_no": "5878-61-5", "cn_name": "7-(2-\u6c2f\u4e59\u57fa)\u8336\u78b1", "en_name": ["7-(2-Chloroethyl)theophylline", "1H-Purine-2,6-dione, 7-(2-chloroethyl)-3,7-dihydro-1,3-dimethyl-", "Theophylline, 7-(2-chloroethyl)-", "7-(2-Chloroethyl)-3,7-dihydro-1,3-dimethyl-1H-purine-2,6-dione", "7-(\u03b2-Chloroethyl)theophylline", "\u03b2-Chloroethyltheophylline", "7-(2-Chloroethyl)theophylline", "7-(\u03b2-Chlorethyl)theophylline", "Benaphyllin", "Eupnophile", "7-(Chloroethyl)theophylline", "7-(2-Chloroethyl)-1,3-dimethylxanthine", "Benaphylline", "NSC 337614"], "SMILES": "C(CCl)N1C2=C(N(C)C(=O)N(C)C2=O)N=C1", "physical_data": {"Molecular Weight": "242.66", "Molecular Formula": "C9H11ClN4O2", "Melting Point": "121.5-122.5 \u00b0C"}}