{"cas_no": "5878-19-3", "cn_name": "1-\u7532\u6c27\u57fa-2-\u4e19\u916e", "en_name": ["Methoxyacetone", "2-Propanone, 1-methoxy-", "2-Propanone, methoxy-", "1-Methoxy-2-propanone", "Methoxyacetone", "1-Methoxyacetone", "Methoxymethyl methyl ketone", "Methoxy-2-propanone", "\u03b1-Methoxypropanone", "\u03b1-Methoxyacetone", "Methyl methoxymethyl ketone"], "SMILES": "C(C(C)=O)OC", "physical_data": {"Molecular Weight": "88.11", "Molecular Formula": "C4H8O2", "Boiling Point": "116 \u00b0C", "Melting Point": "65-67 \u00b0C", "Density": "0.9491 g/cm\u00b3 @ Temp: 20 \u00b0C"}}