{"cas_no": "587886-26-8", "cn_name": "2-(TRIFLUOROMETHYL)QUINOLINE-3-CARBOXYLIC ACID", "en_name": ["2-(Trifluoromethyl)-3-quinolinecarboxylic acid", "3-Quinolinecarboxylic acid, 2-(trifluoromethyl)-", "2-(Trifluoromethyl)-3-quinolinecarboxylic acid"], "SMILES": "C(F)(F)(F)C=1C(C(O)=O)=CC2=C(N1)C=CC=C2", "physical_data": {"Molecular Weight": "241.17", "Molecular Formula": "C11H6F3NO2", "Melting Point": "207-209 \u00b0C"}}