{"cas_no": "58786-99-5", "cn_name": "\u9152\u77f3\u9178\u5e03\u6258\u8bfa\u5561", "en_name": ["Butorphanol tartrate", "Morphinan-3,14-diol, 17-(cyclobutylmethyl)-, (2S,3S)-2,3-dihydroxybutanedioate (1:1)", "Morphinan-3,14-diol, 17-(cyclobutylmethyl)-, [S-(R*,R*)]-2,3-dihydroxybutanedioate (1:1) (salt)", "Morphinan-3,14-diol, 17-(cyclobutylmethyl)-, (2S,3S)-2,3-dihydroxybutanedioate (1:1) (salt)", "Butorphanol tartrate", "Stadol", "l-Butorphanol tartrate", "NIH 10275", "Moradol", "Levo-BC 2627 tartrate", "Torate", "Torbugesic", "Butorphic"], "SMILES": "C(C(C(O)=O)O)(C(O)=O)O.OC12C3(C=4C(CC1N(CC5CCC5)CC3)=CC=C(O)C4)CCCC2", "physical_data": {"Molecular Weight": "", "Molecular Formula": "C21H29NO2.C4H6O6", "Melting Point": "217-219 \u00b0C"}}