{"cas_no": "5878-43-3", "cn_name": "9,10-\u4e8c\u6c22\u9ea6\u89d2\u9178", "en_name": ["(8\u03b2)-6-Methylergoline-8-carboxylic acid", "Ergoline-8-carboxylic acid, 6-methyl-, (8\u03b2)-", "Ergoline-8\u03b2-carboxylic acid, 6-methyl-", "Lysergic acid, dihydro-", "(8\u03b2)-6-Methylergoline-8-carboxylic acid", "Lysergic acid, 9,10-dihydro-, I", "D-Dihydrolysergic acid I", "Dihydrolysergic acid", "9,10-Dihydro-D-lysergic acid", "9,10-Dihydrolysergic acid I", "9,10\u03b1-Dihydrolysergic acid", "6-Methyl-8\u03b2-ergolinecarboxylic acid", "6-Methyl-8\u03b2-carboxyergoline"], "SMILES": "CN1C2C(C=3C=4C(C2)=CNC4C=CC3)CC(C(O)=O)C1", "physical_data": {"Molecular Weight": "270.33", "Molecular Formula": "C16H18N2O2", "Melting Point": "300 \u00b0C"}}