{"cas_no": "5879-06-1", "cn_name": "H-GLU-VAL-OH", "en_name": ["L-Glutamyl-L-valine", "L-Valine, L-\u03b1-glutamyl-", "Valine, N-L-\u03b1-glutamyl-, L-", "L-Valine, N-L-\u03b1-glutamyl-", "L-\u03b1-Glutamyl-L-valine", "Glutamylvaline", "L-Glutamyl-L-valine", "\u03b1-Glutamylvaline", "\u03b1-L-Glutamyl-L-valine", "NSC 334345", "460: PN: WO2005081628 SEQID: 1569 claimed protein", "26: PN: JP2009278928 PAGE: 12 claimed protein", "206: PN: EP2161028 PAGE: 11 claimed protein", "81: PN: WO2014102104 SEQID: 180 claimed protein", "81: PN: WO2014102101 SEQID: 381 claimed protein", "121: PN: WO2014102103 TABLE: 1 claimed protein", "100: PN: WO2014102100 TABLE: 1 claimed protein", "13: PN: WO2014170713 SEQID: 113 claimed protein", "\u03b1-Glu-Val", "97: PN: WO2020097235 SEQID: 327 claimed protein", "83: PN: WO2021147954 SEQID: 83 claimed protein", "469: PN: WO2022215055 SEQID: 469 claimed protein"], "SMILES": "C(NC(C(CCC(O)=O)N)=O)(C(C)C)C(O)=O", "physical_data": {"Molecular Weight": "246.26", "Molecular Formula": "C10H18N2O5", "Melting Point": "189-190 \u00b0C"}}