{"cas_no": "588-30-7", "cn_name": "3-\u7f9f\u57fa\u8089\u6842\u9178", "en_name": ["m-Coumaric acid", "2-Propenoic acid, 3-(3-hydroxyphenyl)-", "Cinnamic acid, m-hydroxy-", "3-(3-Hydroxyphenyl)-2-propenoic acid", "3-Hydroxycinnamic acid", "m-Hydroxycinnamic acid", "3-Coumaric acid", "m-Coumaric acid", "m-Hydroxycinnamic acid", "3\u2032-Hydroxycinnamic acid", "NSC 28956", "NSC 50308", "3-(3-Hydroxyphenyl)acrylic acid"], "SMILES": "C(=CC(O)=O)C1=CC(O)=CC=C1", "physical_data": {"Molecular Weight": "164.16", "Molecular Formula": "C9H8O3", "Melting Point": "191 \u00b0C"}}