{"cas_no": "588-67-0", "cn_name": "\u82c4\u57fa\u6b63\u4e01\u57fa\u919a", "en_name": ["Benzyl butyl ether", "Benzene, (butoxymethyl)-", "Ether, benzyl butyl", "(Butoxymethyl)benzene", "Benzyl butyl ether", "Butyl benzyl ether", "Benzyl n-butyl ether", "n-Butyl benzyl ether", "NSC 8476"], "SMILES": "C(OCCCC)C1=CC=CC=C1", "physical_data": {"Molecular Weight": "164.24", "Molecular Formula": "C11H16O", "Boiling Point": "223 \u00b0C", "Density": "0.918 g/cm\u00b3 @ Temp: 22 \u00b0C"}}