{"cas_no": "588-46-5", "cn_name": "N-\u82c4\u57fa\u4e59\u9170\u80fa", "en_name": ["N-Benzylacetamide", "Acetamide, N-(phenylmethyl)-", "Acetamide, N-benzyl-", "N-(Phenylmethyl)acetamide", "N-Benzylacetamide", "N-Acetylbenzylamine", "NSC 8065"], "SMILES": "C(NC(C)=O)C1=CC=CC=C1", "physical_data": {"Molecular Weight": "149.19", "Molecular Formula": "C9H11NO", "Boiling Point": "220-230 \u00b0C", "Melting Point": "61 \u00b0C"}}