{"cas_no": "588-07-8", "cn_name": "3-\u6c2f\u4e59\u9170\u82ef\u80fa", "en_name": ["N-(3-Chlorophenyl)acetamide", "Acetamide, N-(3-chlorophenyl)-", "Acetanilide, 3\u2032-chloro-", "N-(3-Chlorophenyl)acetamide", "3-Chloroacetanilide", "m-Chloroacetanilide", "3\u2032-Chloroacetanilide", "NSC 39967", "NSC 6116"], "SMILES": "N(C(C)=O)C1=CC(Cl)=CC=C1", "physical_data": {"Molecular Weight": "169.61", "Molecular Formula": "C8H8ClNO", "Boiling Point": "331.8-332.4 \u00b0C @ Press: 740 Torr", "Melting Point": "77-78 \u00b0C"}}