{"cas_no": "588-22-7", "cn_name": "3,4-\u4e8c\u6c2f\u82ef\u6c27\u57fa\u4e59\u9178", "en_name": ["(3,4-Dichlorophenoxy)acetic acid", "Acetic acid, 2-(3,4-dichlorophenoxy)-", "Acetic acid, (3,4-dichlorophenoxy)-", "2-(3,4-Dichlorophenoxy)acetic acid", "3,4-D", "3,4-DA", "(3,4-Dichlorophenoxy)acetic acid", "NSC 39017", "NSC 525057"], "SMILES": "O(CC(O)=O)C1=CC(Cl)=C(Cl)C=C1", "physical_data": {"Molecular Weight": "221.04", "Molecular Formula": "C8H6Cl2O3", "Melting Point": "139 \u00b0C"}}