{"cas_no": "588-43-2", "cn_name": "\u539f\u7532\u9178\u4e09\u6b63\u4e01\u57fa\u916f", "en_name": ["1,1\u2032,1\u2032\u2032-[Methylidynetris(oxy)]tris[butane]", "Butane, 1,1\u2032,1\u2032\u2032-[methylidynetris(oxy)]tris-", "Orthoformic acid, tributyl ester", "1,1\u2032,1\u2032\u2032-[Methylidynetris(oxy)]tris[butane]", "Tributyl orthoformate", "Tri-n-butyl orthoformate", "Tri(n-butoxy)methane", "Tributoxymethane", "NSC 8488", "1-(Dibutoxymethoxy)butane"], "SMILES": "C(OCCCC)(OCCCC)OCCCC", "physical_data": {"Molecular Weight": "232.36", "Molecular Formula": "C13H28O3", "Boiling Point": "245-247 \u00b0C", "Density": "0.8687 g/cm\u00b3 @ Temp: 25 \u00b0C"}}