{"cas_no": "588-04-5", "cn_name": "3,3'-\u5076\u6c2e\u7532\u82ef", "en_name": ["1,2-Bis(3-methylphenyl)diazene", "Diazene, 1,2-bis(3-methylphenyl)-", "m,m\u2032-Azotoluene", "Diazene, bis(3-methylphenyl)-", "1,2-Bis(3-methylphenyl)diazene", "3,3\u2032-Azotoluene", "3,3\u2032-Dimethylazobenzene", "NSC 31009", "1,2-Di-m-tolyldiazene"], "SMILES": "N(=NC1=CC(C)=CC=C1)C2=CC(C)=CC=C2", "physical_data": {"Molecular Weight": "210.27", "Molecular Formula": "C14H14N2", "Melting Point": "54 \u00b0C", "Density": "1.0123 g/cm\u00b3 @ Temp: 66.2 \u00b0C"}}