{"cas_no": "588-96-5", "cn_name": "4-\u6eb4\u82ef\u4e59\u919a", "en_name": ["4-Bromophenetole", "Benzene, 1-bromo-4-ethoxy-", "Phenetole, p-bromo-", "1-Bromo-4-ethoxybenzene", "p-Bromophenetole", "p-Bromophenol ethyl ether", "p-Ethoxybromobenzene", "p-Ethoxyphenyl bromide", "4-Bromophenetole", "p-Bromoethoxybenzene", "4-Ethoxyphenyl bromide", "Ethyl 4-bromophenyl ether", "4-Bromoethoxybenzene", "4-Bromophenyl ethyl ether", "4-Ethoxybromobenzene", "NSC 8053", "4-Ethoxy-1-bromobenzene"], "SMILES": "O(CC)C1=CC=C(Br)C=C1", "physical_data": {"Molecular Weight": "201.06", "Molecular Formula": "C8H9BrO", "Boiling Point": "231 \u00b0C", "Melting Point": "4 \u00b0C"}}