{"cas_no": "588-16-9", "cn_name": "3'-\u7532\u6c27\u57fa\u4e59\u9170\u82ef\u80fa", "en_name": ["N-(3-Methoxyphenyl)acetamide", "Acetamide, N-(3-methoxyphenyl)-", "m-Acetanisidide", "N-(3-Methoxyphenyl)acetamide", "N-Acetyl-m-anisidine", "Aceto-m-anisidide", "3-Methoxyacetanilide", "3\u2032-Methoxyacetanilide", "m-Methoxyacetanilide", "3-Acetamidoanisole", "NSC 4005"], "SMILES": "N(C(C)=O)C1=CC(OC)=CC=C1", "physical_data": {"Molecular Weight": "165.19", "Molecular Formula": "C9H11NO2", "Melting Point": "79-80 \u00b0C"}}