{"cas_no": "588-63-6", "cn_name": "3-\u82ef\u6c27\u57fa\u6eb4\u4e19\u70f7", "en_name": ["(3-Bromopropoxy)benzene", "Benzene, (3-bromopropoxy)-", "Ether, 3-bromopropyl phenyl", "(3-Bromopropoxy)benzene", "\u03b3-Phenoxypropyl bromide", "3-Phenoxypropyl bromide", "3-Bromopropyl phenyl ether", "1-Bromo-3-phenoxypropane", "3-Bromo-1-phenoxypropane", "3-Phenoxy-1-bromopropane", "NSC 2641"], "SMILES": "O(CCCBr)C1=CC=CC=C1", "physical_data": {"Molecular Weight": "215.09", "Molecular Formula": "C9H11BrO", "Boiling Point": "136-142 \u00b0C @ Press: 20 Torr", "Melting Point": "10.7 \u00b0C"}}