{"cas_no": "588-32-9", "cn_name": "\u95f4\u6c2f\u82ef\u6c27\u4e59\u9178", "en_name": ["3-Chlorophenoxyacetic acid", "Acetic acid, 2-(3-chlorophenoxy)-", "Acetic acid, (m-chlorophenoxy)-", "Acetic acid, (3-chlorophenoxy)-", "2-(3-Chlorophenoxy)acetic acid", "3-Chlorophenoxyacetic acid", "m-Chlorophenoxyacetic acid", "NSC 30115"], "SMILES": "O(CC(O)=O)C1=CC(Cl)=CC=C1", "physical_data": {"Molecular Weight": "186.59", "Molecular Formula": "C8H7ClO3", "Melting Point": "109.7-110.2 \u00b0C"}}