{"cas_no": "588-68-1", "cn_name": "\u4e8c\u82c4\u80bc", "en_name": ["Benzalazine", "Benzaldehyde, 2-(phenylmethylene)hydrazone", "Benzaldehyde, azine", "Benzaldehyde, (phenylmethylene)hydrazone", "Dibenzylidenehydrazine", "Dibenzalhydrazine", "1,4-Diphenylformalazine", "Benzalazine", "Benzaldazine", "Benzaldazin", "Benzylideneazine", "Eusolex 6653", "1,4-Diphenyl-2,3-diaza-1,3-butadiene", "NSC 3269"], "SMILES": "C(=NN=CC1=CC=CC=C1)C2=CC=CC=C2", "physical_data": {"Molecular Weight": "208.26", "Molecular Formula": "C14H12N2", "Melting Point": "92-93 \u00b0C"}}