{"cas_no": "588-64-7", "cn_name": "\u82ef\u7532\u919b\u82ef\u8159", "en_name": ["Diphenylhydrazone", "Benzaldehyde, 2-phenylhydrazone", "Benzaldehyde, phenylhydrazone", "Benzalphenylhydrazine", "Benzylidenephenylhydrazine", "Diphenylhydrazone", "NSC 37088", "N-Benzylidene-N\u2032-phenylhydrazine", "1-Benzylidene-2-phenylhydrazine"], "SMILES": "C(=NNC1=CC=CC=C1)C2=CC=CC=C2", "physical_data": {"Molecular Weight": "196.25", "Molecular Formula": "C13H12N2", "Melting Point": "154-155 \u00b0C", "Density": "1.16 g/cm\u00b3"}}