{"cas_no": "588-53-4", "cn_name": "4-\u82c4\u70ef\u6c28\u57fa\u82ef\u915a", "en_name": ["4-(Benzylideneamino)phenol", "Phenol, 4-[(phenylmethylene)amino]-", "Phenol, p-(benzylideneamino)-", "4-[(Phenylmethylene)amino]phenol", "p-Benzalaminophenol", "Benzylidene-p-hydroxyaniline", "p-(Benzylideneamino)phenol", "N-Benzylidene-p-hydroxyaniline", "N-Benzylidene-4-hydroxyaniline", "4-Hydroxy-N-benzylideneaniline", "Benzylidene-4-hydroxyaniline", "4-(Benzylideneamino)phenol", "NSC 1565", "N-(4-Hydroxyphenyl)benzylideneimine"], "SMILES": "N(=CC1=CC=CC=C1)C2=CC=C(O)C=C2", "physical_data": {"Molecular Weight": "197.23", "Molecular Formula": "C13H11NO", "Melting Point": "181 \u00b0C"}}