{"cas_no": "588-93-2", "cn_name": "4-\u4e19\u57fa\u6eb4\u82ef", "en_name": ["1-Bromo-4-propylbenzene", "Benzene, 1-bromo-4-propyl-", "1-Bromo-4-propylbenzene", "4-Bromopropylbenzene", "4-Propyl-1-bromobenzene", "4-Propylbromobenzene", "NSC 97222", "1-Propyl-4-bromobenzene", "4-n-Propylbromobenzene", "4-Propylphenylbromide"], "SMILES": "C(CC)C1=CC=C(Br)C=C1", "physical_data": {"Molecular Weight": "199.09", "Molecular Formula": "C9H11Br", "Boiling Point": "85-86 \u00b0C", "Melting Point": "-41.53 \u00b0C", "Density": "1.2830 g/cm\u00b3 @ Temp: 20 \u00b0C"}}