{"cas_no": "58816-66-3", "cn_name": "3-(4-\u785d\u57fa\u82ef\u57fa)-L-\u4e19\u6c28\u9178\u76d0\u9178\u76d0", "en_name": ["L-Phenylalanine, 4-nitro-, ethyl ester, hydrochloride (1:1)", "L-Phenylalanine, 4-nitro-, ethyl ester, hydrochloride (1:1)", "L-Phenylalanine, 4-nitro-, ethyl ester, monohydrochloride", "4-Nitro-L-phenylalanine ethyl ester hydrochloride"], "SMILES": "C(C(C(OCC)=O)N)C1=CC=C(N(=O)=O)C=C1.Cl", "physical_data": {"Molecular Weight": "", "Molecular Formula": "C11H14N2O4.ClH", "Melting Point": "177-180 \u00b0C"}}