{"cas_no": "58810-48-3", "cn_name": "\u544b\u9170\u80fa", "en_name": ["Ofurace", "Acetamide, 2-chloro-N-(2,6-dimethylphenyl)-N-(tetrahydro-2-oxo-3-furanyl)-", "2-Chloro-N-(2,6-dimethylphenyl)-N-(tetrahydro-2-oxo-3-furanyl)acetamide", "Ortho 20615", "RE 20615", "Milfuram", "Ofurace", "3-(N-Chloracetyl-N-2,6-dimethylphenylamino)-\u03b3-butyrolactone", "Ofurase"], "SMILES": "N(C(CCl)=O)(C1=C(C)C=CC=C1C)C2C(=O)OCC2", "physical_data": {"Molecular Weight": "281.73", "Molecular Formula": "C14H16ClNO3", "Melting Point": "145.5 \u00b0C"}}