{"cas_no": "58846-77-8", "cn_name": "\u7678\u57fa \u0392-D-\u5421\u5583\u8461\u8404\u7cd6\u82f7", "en_name": ["Decyl glucoside", "\u03b2-D-Glucopyranoside, decyl", "Decyl \u03b2-D-glucopyranoside", "Decyl \u03b2-glucopyranoside", "Decyl \u03b2-D-glucoside", "n-Decyl \u03b2-D-glucopyranoside", "Decyl glucoside", "Decyl \u03b2-glucoside", "AG 10 (carbohydrate)", "AG 10", "Plantacare 818", "1-O-Decyl-\u03b2-D-glucopyranoside", "n-Decyl-\u03b2-glucoside", "Oramix NS 10", "Plantaren PS 100", "Plantaren W 2000", "APG 10"], "SMILES": "O(CCCCCCCCCC)C1OC(CO)C(O)C(O)C1O", "physical_data": {"Molecular Weight": "320.42", "Molecular Formula": "C16H32O6", "Melting Point": "75-130 \u00b0C"}}