{"cas_no": "5884-22-0", "cn_name": "\u4e8c\u6c22\u7f42\u7c9f\u78b1\u76d0\u9178\u76d0", "en_name": ["Isoquinoline, 1-[(3,4-dimethoxyphenyl)methyl]-3,4-dihydro-6,7-dimethoxy-, hydrochloride (1:1)", "Isoquinoline, 1-[(3,4-dimethoxyphenyl)methyl]-3,4-dihydro-6,7-dimethoxy-, hydrochloride (1:1)", "Isoquinoline, 3,4-dihydro-6,7-dimethoxy-1-veratryl-, hydrochloride", "Isoquinoline, 1-[(3,4-dimethoxyphenyl)methyl]-3,4-dihydro-6,7-dimethoxy-, hydrochloride", "1-(3,4-Dimethoxybenzyl)-6,7-dimethoxy-3,4-dihydroisoquinoline hydrochloride", "3,4-Dihydropapaverine hydrochloride", "Dihydropapaverine hydrochloride", "1-(3,4-Dimethoxybenzyl)-3,4-dihydro-6,7-dimethoxyisoquinolinium chloride"], "SMILES": "C(C=1C=2C(=CC(OC)=C(OC)C2)CCN1)C3=CC(OC)=C(OC)C=C3.Cl", "physical_data": {"Molecular Weight": "", "Molecular Formula": "C20H23NO4.ClH", "Melting Point": "180-182 \u00b0C"}}