{"cas_no": "58864-81-6", "cn_name": "D-\u03b1-\u751f\u80b2\u4e09\u70ef\u915a", "en_name": ["d-\u03b1-Tocotrienol", "2H-1-Benzopyran-6-ol, 3,4-dihydro-2,5,7,8-tetramethyl-2-[(3E,7E)-4,8,12-trimethyl-3,7,11-tridecatrien-1-yl]-, (2R)-", "2H-1-Benzopyran-6-ol, 3,4-dihydro-2,5,7,8-tetramethyl-2-(4,8,12-trimethyl-3,7,11-tridecatrienyl)-, [R-(E,E)]-", "2H-1-Benzopyran-6-ol, 3,4-dihydro-2,5,7,8-tetramethyl-2-[(3E,7E)-4,8,12-trimethyl-3,7,11-tridecatrienyl]-, (2R)-", "(2R)-3,4-Dihydro-2,5,7,8-tetramethyl-2-[(3E,7E)-4,8,12-trimethyl-3,7,11-tridecatrien-1-yl]-2H-1-benzopyran-6-ol", "(2R,3\u2032E,7\u2032E)-\u03b1-Tocotrienol", "(R)-\u03b1-Tocotrienol", "d-\u03b1-Tocotrienol"], "SMILES": "CC1=C2C(CCC(CCC=C(CCC=C(CCC=C(C)C)C)C)(C)O2)=C(C)C(O)=C1C", "physical_data": {"Molecular Weight": "424.66", "Molecular Formula": "C29H44O2", "Melting Point": "30-31 \u00b0C"}}