{"cas_no": "58861-48-6", "cn_name": "2-(4-\u6c1f\u82ef\u57fa)\u567b\u5429", "en_name": ["2-(4-Fluorophenyl)thiophene", "Thiophene, 2-(4-fluorophenyl)-", "2-(4-Fluorophenyl)thiophene"], "SMILES": "FC1=CC=C(C=C1)C2=CC=CS2", "physical_data": {"Molecular Weight": "178.23", "Molecular Formula": "C10H7FS", "Melting Point": "48-49 \u00b0C"}}