{"cas_no": "58861-53-3", "cn_name": "2-(4-\u6c1f\u82ef\u57fa)\u5421\u5576", "en_name": ["2-(4-Fluorophenyl)pyridine", "Pyridine, 2-(4-fluorophenyl)-", "2-(4-Fluorophenyl)pyridine", "2-(p-Fluorophenyl)pyridine"], "SMILES": "FC1=CC=C(C=C1)C2=CC=CC=N2", "physical_data": {"Molecular Weight": "173.19", "Molecular Formula": "C11H8FN", "Melting Point": "39-41 \u00b0C"}}