{"cas_no": "588702-67-4", "cn_name": "4-\u4e09\u6c1f\u7532\u57fa\u55b9\u5549-2-\u7fa7\u9178", "en_name": ["4-(Trifluoromethyl)-2-quinolinecarboxylic acid", "2-Quinolinecarboxylic acid, 4-(trifluoromethyl)-", "4-(Trifluoromethyl)-2-quinolinecarboxylic acid"], "SMILES": "C(F)(F)(F)C=1C2=C(N=C(C(O)=O)C1)C=CC=C2", "physical_data": {"Molecular Weight": "241.17", "Molecular Formula": "C11H6F3NO2", "Melting Point": "142-143 \u00b0C"}}