{"cas_no": "58878-37-8", "cn_name": "2-\u6c2f\u4e59\u57fa-N-\u7532\u57fa\u54cc\u5576\u76d0\u9178\u76d0", "en_name": ["Piperidine, 2-(2-chloroethyl)-1-methyl-, hydrochloride (1:1)", "Piperidine, 2-(2-chloroethyl)-1-methyl-, hydrochloride (1:1)", "Piperidine, 2-(2-chloroethyl)-1-methyl-, hydrochloride", "2-(2-Chloroethyl)-1-methylpiperidine hydrochloride"], "SMILES": "C(CCl)C1N(C)CCCC1.Cl", "physical_data": {"Molecular Weight": "", "Molecular Formula": "C8H16ClN.ClH", "Melting Point": "132-133 \u00b0C"}}