{"cas_no": "58880-43-6", "cn_name": "\u5416\u5576\u916e\u4e59\u9178\u94a0", "en_name": ["10(9H)-Acridineacetic acid, 9-oxo-, sodium salt (1:1)", "10(9H)-Acridineacetic acid, 9-oxo-, sodium salt (1:1)", "10(9H)-Acridineacetic acid, 9-oxo-, sodium salt", "10-Carboxymethyl-9-acridanone sodium salt", "Sodium 9-oxo-10-acridineacetate", "L 1", "Sodium 9,10-dihydro-9-oxo-10-acridineacetate", "N-(Carboxymethyl)-9-acridone sodium salt", "Camedon", "Camedone", "Neovir"], "SMILES": "C(C(O)=O)N1C=2C(C(=O)C=3C1=CC=CC3)=CC=CC2.[Na]", "physical_data": {"Molecular Weight": "", "Molecular Formula": "C15H11NO3.Na", "Melting Point": "360-370 \u00b0C"}}