{"cas_no": "5888-51-7", "cn_name": "1,2-\u4e8c\u7532\u6c27\u57fa-4-\u4e59\u57fa\u82ef", "en_name": ["4-Ethyl-1,2-dimethoxybenzene", "Benzene, 4-ethyl-1,2-dimethoxy-", "4-Ethyl-1,2-dimethoxybenzene", "1,2-Dimethoxy-4-ethylbenzene", "4-Ethylveratrole", "3,4-Dimethoxyphenylethane", "3-Methyl-4-(3,4-dimethoxyphenyl)methyleneisoxazole-5(4H)-one"], "SMILES": "O(C)C1=C(OC)C=CC(CC)=C1", "physical_data": {"Molecular Weight": "166.22", "Molecular Formula": "C10H14O2", "Boiling Point": "228-230 \u00b0C"}}