{"cas_no": "58880-19-6", "cn_name": "\u66f2\u53e4\u67f3\u83cc\u7d20A", "en_name": ["Trichostatin A", "2,4-Heptadienamide, 7-[4-(dimethylamino)phenyl]-N-hydroxy-4,6-dimethyl-7-oxo-, (2E,4E,6R)-", "2,4-Heptadienamide, 7-[4-(dimethylamino)phenyl]-N-hydroxy-4,6-dimethyl-7-oxo-, [R-(E,E)]-", "(2E,4E,6R)-7-[4-(Dimethylamino)phenyl]-N-hydroxy-4,6-dimethyl-7-oxo-2,4-heptadienamide", "Trichostatin A", "(R)-Trichostatin A", "TSA", "(R)-(+)-Trichostatin A", "VTR 297"], "SMILES": "C(C(C=C(C=CC(NO)=O)C)C)(=O)C1=CC=C(N(C)C)C=C1", "physical_data": {"Molecular Weight": "302.37", "Molecular Formula": "C17H22N2O3", "Melting Point": "140-143 \u00b0C"}}