{"cas_no": "58880-37-8", "cn_name": "1-(4-\u6c2f\u82ef)-1-\u73af\u5df1\u6c28\u7fa7\u9178", "en_name": ["1-(4-Chlorophenyl)cyclohexanecarboxylic acid", "Cyclohexanecarboxylic acid, 1-(4-chlorophenyl)-", "1-(4-Chlorophenyl)cyclohexanecarboxylic acid", "TAI 746", "1-(4-Chlorophenyl)cyclohexane-1-carboxylic acid", "1-(4-Chlorophenyl)-1-cyclohexanecarboxylicacid"], "SMILES": "C(O)(=O)C1(CCCCC1)C2=CC=C(Cl)C=C2", "physical_data": {"Molecular Weight": "238.71", "Molecular Formula": "C13H15ClO2", "Melting Point": "153-154 \u00b0C"}}