{"cas_no": "58888-49-6", "cn_name": "N,N-\u4e8c\u7532\u57fa\u82ef\u80fa\u786b\u9178\u76d0", "en_name": ["Benzenamine, N,N-dimethyl-, sulfate (1:1)", "Benzenamine, N,N-dimethyl-, sulfate (1:1)", "Aniline, N,N-dimethyl-, sulfate", "N,N-Dimethylanilinium hydrogen sulfate", "N,N-Dimethylaniline sulfate (1:1)", "N,N-Dimethylanilinium bisulfate"], "SMILES": "N(C)(C)C1=CC=CC=C1.S(=O)(=O)(O)O", "physical_data": {"Molecular Weight": "", "Molecular Formula": "C8H11N.H2O4S", "Melting Point": "88-89 \u00b0C"}}