{"cas_no": "5888-33-5", "cn_name": "\u4e19\u70ef\u9178\u5f02\u51b0\u7247\u916f", "en_name": ["Isobornyl acrylate", "2-Propenoic acid, (1R,2R,4R)-1,7,7-trimethylbicyclo[2.2.1]hept-2-yl ester, rel-", "2-Propenoic acid, 1,7,7-trimethylbicyclo[2.2.1]hept-2-yl ester, exo-", "Acrylic acid, isobornyl ester", "exo-Isobornyl acrylate", "QM 589", "Isobornyl acrylate", "Al-co-cure IBA", "IBOA", "SR 506 (acrylate)", "SR 506", "Light Acrylate IB-XA", "Ebecryl IBOA", "Sartomer 506", "Ebecryl IBOA-B", "Sartomer SR 506", "SR 506A", "M 156", "Aronix M 156", "Newfrontier IBA", "MPL 214", "Sipomer HP", "Genomer 1121", "SR 506D", "Sipomer IBOA-HP-STD", "Sartomer 506D", "IBA", "M 8130", "NK Ester A-IB", "Sipomer IBOA-HP", "AgiSyn 2870", "SR 560", "Sartomer SR 560", "Kayarad RM 1002", "Sartomer SR 506D", "IBXA", "EM 70", "SR 506NS", "Photomer 4012", "RM 1002", "IBOA-MB 302", "IBOA-MB 602", "Sarbio 5102", "exo-1,7,7-Trimethylbicyclo[2. 2.1]hept-2-yl acrylate", "M 1140", "Miramer M 1140", "Miramer M 1121", "Visiomer IBOA", "SR 506C", "GM 61Q00", "IBOA-B", "Isonorbornyl acrylate", "Etermer 70", "SR 506HP", "Visiomer Terra IBOA", "A-IB", "SR 506EG"], "SMILES": "CC12C(OC(C=C)=O)CC(C1(C)C)CC2", "physical_data": {"Molecular Weight": "208.30", "Molecular Formula": "C13H20O2", "Boiling Point": "104-106 \u00b0C @ Press: 4.5 Torr"}}