{"cas_no": "589-09-3", "cn_name": "\u70ef\u4e19\u57fa\u82ef\u80fa", "en_name": ["N-2-Propen-1-ylbenzenamine", "Benzenamine, N-2-propen-1-yl-", "Aniline, N-allyl-", "Benzenamine, N-2-propenyl-", "N-2-Propen-1-ylbenzenamine", "N-Allylaniline", "N-Phenylallylamine", "Allylphenylamine", "N-Allyl-N-phenylamine", "N-(2-Propenyl)benzenamine", "NSC 1967", "N-(2-Propenyl)aniline"], "SMILES": "N(CC=C)C1=CC=CC=C1", "physical_data": {"Molecular Weight": "133.19", "Molecular Formula": "C9H11N", "Boiling Point": "219 \u00b0C"}}