{"cas_no": "589-81-1", "cn_name": "3-\u7532\u57fa\u5e9a\u70f7", "en_name": ["3-Methylheptane", "Heptane, 3-methyl-", "3-Methylheptane", "2-Ethylhexane", "(\u00b1)-3-Methylheptane", "NSC 24845"], "SMILES": "C(CCCC)(CC)C", "physical_data": {"Molecular Weight": "114.23", "Molecular Formula": "C8H18", "Boiling Point": "118 \u00b0C", "Melting Point": "-100 \u00b0C", "Density": "0.7167 g/cm\u00b3 @ Temp: 20 \u00b0C"}}