{"cas_no": "589-93-5", "cn_name": "2,5-\u4e8c\u7532\u57fa\u5421\u5576", "en_name": ["2,5-Dimethylpyridine", "Pyridine, 2,5-dimethyl-", "2,5-Lutidine", "2,5-Dimethylpyridine", "NSC 5089"], "SMILES": "CC=1C=CC(C)=NC1", "physical_data": {"Molecular Weight": "107.15", "Molecular Formula": "C7H9N", "Boiling Point": "157 \u00b0C", "Melting Point": "-16 \u00b0C", "Density": "0.9261 g/cm\u00b3 @ Temp: 26 \u00b0C"}}