{"cas_no": "589-41-3", "cn_name": "N-\u7f9f\u57fa\u6c28\u57fa\u7532\u9178\u4e59\u916f", "en_name": ["Hydroxyurethane", "Carbamic acid, N-hydroxy-, ethyl ester", "Carbamic acid, hydroxy-, ethyl ester", "NSC-71045", "NSC-83629", "Hydroxycarbamic acid ethyl ester", "Hydroxyurethane", "N-Hydroxyurethane", "SQ 16819", "Ethyl N-hydroxycarbamate", "N-Carbethoxyhydroxylamine"], "SMILES": "C(OCC)(NO)=O", "physical_data": {"Molecular Weight": "105.09", "Molecular Formula": "C3H7NO3", "Boiling Point": "113-116 \u00b0C @ Press: 3 Torr"}}