{"cas_no": "589-06-0", "cn_name": "4-(4-\u6c1f\u82ef\u57fa)\u4e01\u9178", "en_name": ["4-(4-Fluorophenyl)butanoic acid", "Benzenebutanoic acid, 4-fluoro-", "Butyric acid, 4-(p-fluorophenyl)-", "4-Fluorobenzenebutanoic acid", "4-(p-Fluorophenyl)butyric acid", "4-(4-Fluorophenyl)butyric acid", "4-(4-Fluorophenyl)butanoic acid", "NSC 409583"], "SMILES": "C(CCC(O)=O)C1=CC=C(F)C=C1", "physical_data": {"Molecular Weight": "182.19", "Molecular Formula": "C10H11FO2", "Boiling Point": "161-164 \u00b0C @ Press: 4 Torr", "Melting Point": "~30 \u00b0C (approx)"}}