{"cas_no": "589-68-4", "cn_name": "\u8c46\u853b\u9178\u7518\u6cb9\u916f", "en_name": ["1-Monomyristin", "Tetradecanoic acid, 2,3-dihydroxypropyl ester", "Myristin, 1-mono-", "Glyceryl myristate", "Glycerol \u03b1-monomyristate", "1-Monomyristin", "Myristic acid 1-monoglyceride", "\u03b1-Monomyristin", "Glycerol 1-myristate", "Myristic acid \u03b1-monoglyceride", "Tetradecanoic acid \u03b1-monoglyceride", "1-Monotetradecanoylglycerol", "1-Monomyristoyl-rac-glycerol", "(\u00b1)-2,3-Dihydroxypropyl tetradecanoate", "NSC 404225", "Glycerol 1-monotetradecanoate", "2,3-Dihydroxypropyl tetradecanoate", "1-Myristoyl-rac-glycerol", "2,3-Dihydroxypropyltetradecanoate", "1-Glyceryl myristate"], "SMILES": "C(OCC(CO)O)(CCCCCCCCCCCCC)=O", "physical_data": {"Molecular Weight": "302.45", "Molecular Formula": "C17H34O4", "Melting Point": "67.3 \u00b0C"}}