{"cas_no": "589-92-4", "cn_name": "4-\u7532\u57fa\u73af\u5df1\u916e", "en_name": ["4-Methylcyclohexanone", "Cyclohexanone, 4-methyl-", "4-Methylcyclohexanone", "4-Methyl-1-cyclohexanone", "NSC 3816"], "SMILES": "CC1CCC(=O)CC1", "physical_data": {"Molecular Weight": "112.17", "Molecular Formula": "C7H12O", "Boiling Point": "170 \u00b0C", "Melting Point": "-40.6 \u00b0C", "Density": "0.9132 g/cm\u00b3 @ Temp: 20 \u00b0C"}}