{"cas_no": "589-87-7", "cn_name": "\u5bf9\u6eb4\u7898\u82ef", "en_name": ["1-Bromo-4-iodobenzene", "Benzene, 1-bromo-4-iodo-", "1-Bromo-4-iodobenzene", "p-Bromoiodobenzene", "p-Bromophenyl iodide", "p-Iodobromobenzene", "4-Bromo-1-iodobenzene", "4-Bromoiodobenzene", "4-Iodobromobenzene", "4-Bromophenyl iodide", "NSC 8033", "4-Iodo-1-bromobenzene", "4-Iodophenyl bromide"], "SMILES": "BrC1=CC=C(I)C=C1", "physical_data": {"Molecular Weight": "282.90", "Molecular Formula": "C6H4BrI", "Boiling Point": "252 \u00b0C", "Melting Point": "92 \u00b0C"}}