{"cas_no": "589-53-7", "cn_name": "4-\u7532\u57fa\u5e9a\u70f7", "en_name": ["4-Methylheptane", "Heptane, 4-methyl-", "4-Methylheptane", "NSC 73953"], "SMILES": "C(CCC)(CCC)C", "physical_data": {"Molecular Weight": "114.23", "Molecular Formula": "C8H18", "Boiling Point": "117.7 \u00b0C", "Melting Point": "-121 \u00b0C", "Density": "0.7217 g/cm\u00b3 @ Temp: 15 \u00b0C"}}