{"cas_no": "589-08-2", "cn_name": "n-\u7532\u57fa\u82ef\u57fa\u4e59\u80fa", "en_name": ["N-Methylbenzeneethanamine", "Benzeneethanamine, N-methyl-", "Phenethylamine, N-methyl-", "N-Methylbenzeneethanamine", "N-Methylphenethylamine", "N-Methyl-\u03b2-phenylethylamine", "N-Methyl-\u03b2-phenethylamine", "N-Methyl-N-(2-phenylethyl)amine", "N-Methyl-2-phenylethylamine", "N-(Phenylethyl)methylamine", "N-Methyl-2-phenethylamine", "N-Methyl-N-phenethylamine", "N-Phenethylmethylamine", "NSC 113957", "(2-Phenylethyl)methylamine", "N-Methyl-2-phenylethanamine", "[2-(Methylamino)ethyl]benzene", "N-Phenethyl-N-methylamine", "N-Methyl-2-phenylethan-1-amine"], "SMILES": "C(CNC)C1=CC=CC=C1", "physical_data": {"Molecular Weight": "135.21", "Molecular Formula": "C9H13N", "Boiling Point": "206 \u00b0C", "Density": "0.934 g/cm\u00b3"}}