{"cas_no": "589-17-3", "cn_name": "4-\u6eb4\u82c4\u6c2f", "en_name": ["4-Bromobenzyl chloride", "Benzene, 1-bromo-4-(chloromethyl)-", "Toluene, p-bromo-\u03b1-chloro-", "1-Bromo-4-(chloromethyl)benzene", "p-Bromobenzyl chloride", "p-Bromo-\u03b1-chlorotoluene", "\u03b1-Chloro-4-bromotoluene", "4-Bromobenzyl chloride"], "SMILES": "C(Cl)C1=CC=C(Br)C=C1", "physical_data": {"Molecular Weight": "205.48", "Molecular Formula": "C7H6BrCl", "Boiling Point": "236 \u00b0C", "Melting Point": "50 \u00b0C"}}