{"cas_no": "589-57-1", "cn_name": "\u4e8c\u4e59\u57fa\u4e9a\u78f7\u9170\u6c2f", "en_name": ["Diethyl chlorophosphite", "Phosphorochloridous acid, diethyl ester", "Ethyl phosphorochloridite", "Diethyl phosphorochloridite", "Ethyl chlorophosphite", "Ethyl phosphorochloridite, (EtO)2ClP", "Diethyl chlorophosphite", "Chlorodiethoxyphosphine", "Diethyl chlorophosphonite", "Diethoxychlorophosphine"], "SMILES": "P(OCC)(OCC)Cl", "physical_data": {"Molecular Weight": "156.55", "Molecular Formula": "C4H10ClO2P", "Boiling Point": "153 \u00b0C", "Melting Point": "&lt;25 \u00b0C", "Density": "1.0816 g/cm\u00b3 @ Temp: 20 \u00b0C"}}