{"cas_no": "589-62-8", "cn_name": "4-\u8f9b\u9187", "en_name": ["(\u00b1)-4-Octanol", "4-Octanol", "n-Octan-4-ol", "dl-Octan-4-ol", "(\u00b1)-4-Octanol", "NSC 66398"], "SMILES": "C(CCCC)(CCC)O", "physical_data": {"Molecular Weight": "130.23", "Molecular Formula": "C8H18O", "Boiling Point": "175 \u00b0C", "Density": "0.818 g/cm\u00b3 @ Temp: 22 \u00b0C"}}