{"cas_no": "589-16-2", "cn_name": "4-\u4e59\u57fa\u82ef\u80fa", "en_name": ["4-Ethylaniline", "Benzenamine, 4-ethyl-", "Aniline, p-ethyl-", "4-Ethylbenzenamine", "p-Ethylaniline", "4-Ethylaniline", "4-Aminoethylbenzene", "4-Ethylphenylamine", "p-Ethylaminobenzene", "NSC 62015"], "SMILES": "C(C)C1=CC=C(N)C=C1", "physical_data": {"Molecular Weight": "121.18", "Molecular Formula": "C8H11N", "Boiling Point": "217.5 \u00b0C", "Melting Point": "-4.8 \u00b0C", "Density": "0.9690 g/cm\u00b3 @ Temp: 20 \u00b0C"}}