{"cas_no": "589-63-9", "cn_name": "4-\u8f9b\u916e", "en_name": ["4-Octanone", "4-Octanone", "Butyl propyl ketone", "4-Oxooctane", "NSC 43245"], "SMILES": "C(CCCC)(CCC)=O", "physical_data": {"Molecular Weight": "128.21", "Molecular Formula": "C8H16O", "Boiling Point": "163 \u00b0C", "Density": "0.8177 g/cm\u00b3 @ Temp: 20 \u00b0C"}}