{"cas_no": "589-34-4", "cn_name": "3-\u7532\u57fa\u5df2\u70f7", "en_name": ["3-Methylhexane", "Hexane, 3-methyl-", "3-Methylhexane", "2-Ethylpentane", "NSC 73937", "(\u00b1)-3-Methylhexane"], "SMILES": "C(CCC)(CC)C", "physical_data": {"Molecular Weight": "100.20", "Molecular Formula": "C7H16", "Boiling Point": "91 \u00b0C", "Melting Point": "-119 \u00b0C", "Density": "0.684 g/cm\u00b3 @ Temp: 19 \u00b0C"}}