{"cas_no": "589-55-9", "cn_name": "4-\u5e9a\u9187", "en_name": ["4-Heptanol", "4-Heptanol", "Dipropylcarbinol", "4-Heptyl alcohol", "NSC 8695", "4-Hydroxyheptane"], "SMILES": "C(CCC)(CCC)O", "physical_data": {"Molecular Weight": "116.20", "Molecular Formula": "C7H16O", "Boiling Point": "156 \u00b0C", "Melting Point": "-41.2 \u00b0C", "Density": "0.8183 g/cm\u00b3 @ Temp: 20 \u00b0C"}}