{"cas_no": "589-29-7", "cn_name": "\u5bf9\u82ef\u4e8c\u7532\u9187", "en_name": ["1,4-Benzenedimethanol", "1,4-Benzenedimethanol", "p-Xylene-\u03b1,\u03b1\u2032-diol", "Terephthalyl alcohol", "p-Xylylenediol", "p-Xylylene-\u03b1,\u03b1\u2032-diol", "p-Xylylene glycol", "1,4-Bis(hydroxymethyl)benzene", "1,4-Dimethylolbenzene", "1,4-Xylylene glycol", "p-Benzenedimethanol", "p-Xylene glycol", "\u03b1,\u03b1\u2032-p-Xylenediol", "p-(Hydroxymethyl)benzyl alcohol", "p-Bis(hydroxymethyl)benzene", "\u03b1,\u03b1\u2032-Dihydroxy-p-xylene", "4-(Hydroxymethyl)benzenemethanol", "NSC 5097", "1,4-Di(hydroxymethyl)benzene", "4-(Hydroxymethyl)benzyl alcohol", "p-Xylene dimethanol", "1,4-Phenylenedimethanol", "[4-(Hydroxymethyl)phenyl]methanol"], "SMILES": "C(O)C1=CC=C(CO)C=C1", "physical_data": {"Molecular Weight": "138.16", "Molecular Formula": "C8H10O2", "Boiling Point": "118.0-119.4 \u00b0C", "Melting Point": "117.5 \u00b0C"}}