{"cas_no": "589-82-2", "cn_name": "3-\u5e9a\u9187", "en_name": ["3-Heptanol", "3-Heptanol", "3-Hydroxyheptane", "1-Ethyl-1-pentanol", "(\u00b1)-3-Heptanol", "DL-3-Heptanol", "NSC 2586"], "SMILES": "C(CCCC)(CC)O", "physical_data": {"Molecular Weight": "116.20", "Molecular Formula": "C7H16O", "Boiling Point": "156.5-157 \u00b0C @ Press: 750 Torr", "Melting Point": "187 \u00b0C", "Density": "0.8251 g/cm\u00b3 @ Temp: 15 \u00b0C"}}