{"cas_no": "589-38-8", "cn_name": "3-\u5df1\u916e", "en_name": ["3-Hexanone", "3-Hexanone", "Ethyl propyl ketone", "3-Oxohexane"], "SMILES": "C(CCC)(CC)=O", "physical_data": {"Molecular Weight": "100.16", "Molecular Formula": "C6H12O", "Boiling Point": "123.5 \u00b0C", "Melting Point": "-55.5 \u00b0C", "Density": "0.816 g/cm\u00b3 @ Temp: 15 \u00b0C"}}