{"cas_no": "589-43-5", "cn_name": "2,4-\u4e8c\u7532\u57fa\u5df1\u70f7", "en_name": ["(\u00b1)-2,4-Dimethylhexane", "Hexane, 2,4-dimethyl-", "2,4-Dimethylhexane", "NSC 74171", "(\u00b1)-2,4-Dimethylhexane"], "SMILES": "C(CC(C)C)(CC)C", "physical_data": {"Molecular Weight": "114.23", "Molecular Formula": "C8H18", "Boiling Point": "109.5 \u00b0C", "Melting Point": "&lt;25 \u00b0C", "Density": "0.7083 g/cm\u00b3 @ Temp: 15 \u00b0C"}}