{"cas_no": "589-15-1", "cn_name": "\u5bf9\u6eb4\u6eb4\u82c4", "en_name": ["4-Bromobenzyl bromide", "Benzene, 1-bromo-4-(bromomethyl)-", "Toluene, p,\u03b1-dibromo-", "1-Bromo-4-(bromomethyl)benzene", "p-Bromobenzyl bromide", "\u03b1,p-Dibromotoluene", "4-Bromobenzyl bromide", "4-(Bromomethyl)bromobenzene", "1-(Bromomethyl)-4-bromobenzene", "4-Bromo-1-bromomethylbenzene", "NSC 113584"], "SMILES": "C(Br)C1=CC=C(Br)C=C1", "physical_data": {"Molecular Weight": "249.93", "Molecular Formula": "C7H6Br2", "Boiling Point": "190-195 \u00b0C @ Press: 4 Torr", "Melting Point": "63 \u00b0C"}}