{"cas_no": "589-59-3", "cn_name": "\u5f02\u620a\u9178\u5f02\u4e01\u916f", "en_name": ["Isobutyl isovalerate", "Butanoic acid, 3-methyl-, 2-methylpropyl ester", "Isovaleric acid, isobutyl ester", "Isobutyl isovalerate", "2-Methylpropyl 3-methylbutyrate", "2-Methylpropyl isovalerate", "Isobutyl 3-methylbutyrate", "Isobutyl isopentanoate", "2-Methylpropyl 3-methylbutanoate", "Isobutyl 3-methylbutanoate", "NSC 6993"], "SMILES": "C(OCC(C)C)(CC(C)C)=O", "physical_data": {"Molecular Weight": "158.24", "Molecular Formula": "C9H18O2", "Boiling Point": "168.5 \u00b0C", "Melting Point": "110 \u00b0C"}}