{"cas_no": "589-75-3", "cn_name": "\u8f9b\u9178\u6b63\u4e01\u916f", "en_name": ["Butyl octanoate", "Octanoic acid, butyl ester", "Butyl caprylate", "Butyl octanoate", "n-Butyl octanoate", "NSC 23740"], "SMILES": "C(CCCCCCC)(OCCCC)=O", "physical_data": {"Molecular Weight": "200.32", "Molecular Formula": "C12H24O2", "Boiling Point": "240.5 \u00b0C", "Melting Point": "-42.9 \u00b0C", "Density": "0.8786 g/cm\u00b3 @ Temp: 0 \u00b0C"}}