{"cas_no": "589-18-4", "cn_name": "4-\u7532\u57fa\u82c4\u9187", "en_name": ["4-Methylbenzyl alcohol", "Benzenemethanol, 4-methyl-", "Benzyl alcohol, p-methyl-", "4-Methylbenzenemethanol", "p-Tolylcarbinol", "p-Methylbenzyl alcohol", "4-Methylbenzyl alcohol", "4-(Hydroxymethyl)toluene", "p-Toluyl alcohol", "p-Tolualcohol", "(4-Methylphenyl)methanol", "p-Toluic alcohol", "(4-Tolyl)methanol", "p-Tolylmethanol", "NSC 3992"], "SMILES": "C(O)C1=CC=C(C)C=C1", "physical_data": {"Molecular Weight": "122.16", "Molecular Formula": "C8H10O", "Boiling Point": "217 \u00b0C", "Melting Point": "61.5 \u00b0C", "Density": "1.0194 g/cm\u00b3 @ Temp: 20 \u00b0C"}}