{"cas_no": "589-35-5", "cn_name": "3-\u7532\u57fa-1-\u620a\u9187", "en_name": ["3-Methyl-1-pentanol", "1-Pentanol, 3-methyl-", "3-Methyl-1-pentanol", "2-Ethyl-4-butanol", "3-Ethyl-1-butanol", "3-Methylpentanol", "(DL)-3-Methylpentyl alcohol", "(\u00b1)-3-Methyl-1-pentanol", "NSC 9466", "3-Ethylbutanol"], "SMILES": "C(CCO)(CC)C", "physical_data": {"Molecular Weight": "102.17", "Molecular Formula": "C6H14O", "Boiling Point": "72 \u00b0C @ Press: 25 Torr", "Density": "0.822 g/cm\u00b3 @ Temp: 27 \u00b0C"}}