{"cas_no": "589-91-3", "cn_name": "4-\u7532\u57fa\u73af\u5df1\u9187", "en_name": ["4-Methylcyclohexanol", "Cyclohexanol, 4-methyl-", "4-Methylcyclohexanol", "1-Methyl-4-cyclohexanol", "4-Methyl-1-cyclohexanol", "4-Methylcyclohexyl alcohol", "NSC 3714"], "SMILES": "CC1CCC(O)CC1", "physical_data": {"Molecular Weight": "114.19", "Molecular Formula": "C7H14O", "Boiling Point": "173 \u00b0C", "Density": "0.92 g/cm\u00b3"}}