{"cas_no": "589-21-9", "cn_name": "4-\u6eb4\u82ef\u57fa\u80bc", "en_name": ["(4-Bromophenyl)hydrazine", "Hydrazine, (4-bromophenyl)-", "Hydrazine, (p-bromophenyl)-", "(4-Bromophenyl)hydrazine", "(p-Bromophenyl)hydrazine", "1-(4-Bromophenyl)hydrazine", "NSC 190724"], "SMILES": "N(N)C1=CC=C(Br)C=C1", "physical_data": {"Molecular Weight": "187.04", "Molecular Formula": "C6H7BrN2", "Melting Point": "108 \u00b0C"}}