{"cas_no": "589-10-6", "cn_name": "2-\u82ef\u6c27\u4e59\u57fa\u6eb4", "en_name": ["(2-Bromoethoxy)benzene", "Benzene, (2-bromoethoxy)-", "Phenetole, \u03b2-bromo-", "(2-Bromoethoxy)benzene", "2-Phenoxyethyl bromide", "\u03b2-Phenoxyethyl bromide", "\u03b2-Bromophenetole", "1-Bromo-2-phenoxyethane", "2-Bromoethyl phenyl ether", "1-Phenoxy-2-bromoethane", "NSC 8055", "2-Phenoxy-1-bromoethane", "2-(2-Bromoethoxy)benzene", "1-(2-Bromoethoxy)benzene"], "SMILES": "O(CCBr)C1=CC=CC=C1", "physical_data": {"Molecular Weight": "201.06", "Molecular Formula": "C8H9BrO", "Boiling Point": "130-145 \u00b0C @ Press: 25 Torr", "Melting Point": "39 \u00b0C"}}