{"cas_no": "589-90-2", "cn_name": "1,4-\u4e8c\u7532\u57fa\u73af\u5df1\u70f7(\u987a\u53cd\u6df7\u5408)", "en_name": ["1,4-Dimethylcyclohexane", "Cyclohexane, 1,4-dimethyl-", "1,4-Dimethylcyclohexane", "p-Dimethylcyclohexane", "NSC 44845"], "SMILES": "CC1CCC(C)CC1", "physical_data": {"Molecular Weight": "112.21", "Molecular Formula": "C8H16", "Boiling Point": "120 \u00b0C", "Melting Point": "-87 \u00b0C", "Density": "0.7861 g/cm\u00b3 @ Temp: 0 \u00b0C"}}