{"cas_no": "58909-39-0", "cn_name": "\u4e09\u55ea\u73af", "en_name": ["Tetrahydro-2-methyl-3-thioxo-1,2,4-triazine-5,6-dione", "1,2,4-Triazine-5,6-dione, tetrahydro-2-methyl-3-thioxo-", "Tetrahydro-2-methyl-3-thioxo-1,2,4-triazine-5,6-dione", "Ro 11-8390", "2-Methyl-5,6-dioxo-1,2,5,6-tetrahydro-1,2,4-triazine-3-thiol", "2,5-Dihydro-6-hydroxy-2-methyl-5-oxo-3-mercapto-1,2,4-triazine", "2-Methyl-3-sulfanylidene-1,2,4-triazinane-5,6-dione"], "SMILES": "O=C1C(=O)NN(C)C(=S)N1", "physical_data": {"Molecular Weight": "159.17", "Molecular Formula": "C4H5N3O2S", "Melting Point": "235-240 \u00b0C"}}