{"cas_no": "5890-18-6", "cn_name": "\u53bb\u7532\u5f02\u6ce2\u5c14\u5b9a", "en_name": ["(+)-Laurolitsine", "4H-Dibenzo[de,g]quinoline-2,9-diol, 5,6,6a,7-tetrahydro-1,10-dimethoxy-, (6aS)-", "Laurolitsine", "Norboldine", "6a\u03b1-Noraporphine-2,9-diol, 1,10-dimethoxy-", "4H-Dibenzo[de,g]quinoline-2,9-diol, 5,6,6a,7-tetrahydro-1,10-dimethoxy-, (S)-", "(6aS)-5,6,6a,7-Tetrahydro-1,10-dimethoxy-4H-dibenzo[de,g]quinoline-2,9-diol", "(+)-Norboldine", "(+)-Laurolitsine"], "SMILES": "O(C)C1=C2C=3C(CC=4C2=CC(OC)=C(O)C4)NCCC3C=C1O", "physical_data": {"Molecular Weight": "313.35", "Molecular Formula": "C18H19NO4", "Melting Point": "138-140 \u00b0C"}}