{"cas_no": "5890-28-8", "cn_name": "\u65e0\u6839\u85e4\u8f9b", "en_name": ["Cassythicine", "5H-Benzo[g]-1,3-benzodioxolo[6,5,4-de]quinolin-10-ol, 6,7,7a,8-tetrahydro-11-methoxy-7-methyl-, (7aS)-", "6a\u03b1-Aporphin-9-ol, 10-methoxy-1,2-(methylenedioxy)-", "5H-Benzo[g]-1,3-benzodioxolo[6,5,4-de]quinolin-10-ol, 6,7,7a,8-tetrahydro-11-methoxy-7-methyl-, (S)-", "Actinodaphnine, N-methyl-", "(7aS)-6,7,7a,8-Tetrahydro-11-methoxy-7-methyl-5H-benzo[g]-1,3-benzodioxolo[6,5,4-de]quinolin-10-ol", "Cassythicine", "N-Methylactinodaphnine", "(+)-N-Methylactinodaphnine", "Cassythicin", "(+)-Cassythicine", "NSC 785178"], "SMILES": "CN1C2C=3C(C=4C(C2)=CC(O)=C(OC)C4)=C5C(=CC3CC1)OCO5", "physical_data": {"Molecular Weight": "325.36", "Molecular Formula": "C19H19NO4", "Melting Point": "206 \u00b0C"}}