{"cas_no": "5891-21-4", "cn_name": "5-\u6c2f-2-\u620a\u916e", "en_name": ["5-Chloro-2-pentanone", "2-Pentanone, 5-chloro-", "5-Chloro-2-pentanone", "1-Chloro-4-pentanone", "3-Chloropropyl methyl ketone", "NSC 60210", "NSC 8427"], "SMILES": "C(C(C)=O)CCCl", "physical_data": {"Molecular Weight": "120.58", "Molecular Formula": "C5H9ClO", "Boiling Point": "71-72 \u00b0C @ Press: 20 Torr", "Density": "1.0571 g/cm\u00b3 @ Temp: 18 \u00b0C"}}