{"cas_no": "5891-53-2", "cn_name": "\u9632\u8001\u5242AW", "en_name": ["Glutamyllysine", "L-Lysine, L-\u03b1-glutamyl-", "Lysine, N2-L-\u03b1-glutamyl-, L-", "L-Lysine, N2-L-\u03b1-glutamyl-", "Lysine, N2-\u03b1-glutamyl-", "L-\u03b1-Glutamyl-L-lysine", "Glutamyllysine", "N2-L-\u03b1-Glutamyllysine", "459: PN: WO2005081628 SEQID: 461 claimed protein", "179: PN: WO2011146121 PAGE: 117 claimed sequence", "\u03b1-Glu-Lys", "7: PN: WO2018204847 SEQID: 7 claimed protein", "111: PN: WO2022215055 SEQID: 111 claimed protein"], "SMILES": "C(NC(C(CCC(O)=O)N)=O)(CCCCN)C(O)=O", "physical_data": {"Molecular Weight": "275.30", "Molecular Formula": "C11H21N3O5", "Melting Point": "&gt;150 \u00b0C (decomp)"}}