{"cas_no": "5891-51-0", "cn_name": "H-ASP-LYS-OH", "en_name": ["L-Aspartyl-L-lysine", "L-Lysine, L-\u03b1-aspartyl-", "Lysine, N2-L-\u03b1-aspartyl-, L-", "L-Lysine, N2-L-\u03b1-aspartyl-", "L-\u03b1-Aspartyl-L-lysine", "L-Aspartyl-L-lysine", "424: PN: WO2005081628 SEQID: 1533 claimed protein", "468: PN: EP2161028 TABLE: 4 claimed protein", "178: PN: WO2011146121 PAGE: 117 claimed sequence", "4: PN: WO2013070776 PAGE: 109 claimed sequence"], "SMILES": "C(NC(C(CC(O)=O)N)=O)(CCCCN)C(O)=O", "physical_data": {"Molecular Weight": "261.27", "Molecular Formula": "C10H19N3O5", "Melting Point": "&gt;175 \u00b0C (decomp)"}}