{"cas_no": "5893-10-7", "cn_name": "N-\u7532\u9170\u57fa-DL-\u4e19\u6c28\u9178", "en_name": ["N-Formylalanine", "Alanine, N-formyl-", "Alanine, N-formyl-, DL-", "N-Formylalanine", "N-Formyl-DL-alanine", "NSC 6749", "2-Formamidopropanoic acid"], "SMILES": "C(NC=O)(C(O)=O)C", "physical_data": {"Molecular Weight": "117.10", "Molecular Formula": "C4H7NO3", "Melting Point": "149 \u00b0C"}}