{"cas_no": "5894-79-1", "cn_name": "\u0391-\u7532\u9170\u57fa\u82ef\u4e59\u9178\u7532\u916f", "en_name": ["Benzeneacetic acid, \u03b1-formyl-, methyl ester", "Benzeneacetic acid, \u03b1-formyl-, methyl ester", "Malonaldehydic acid, phenyl-, methyl ester", "Methyl formylphenylacetate", "Methyl \u03b1-formylbenzeneacetate", "Methyl \u03b1-formylphenylacetate"], "SMILES": "C(C(OC)=O)(C=O)C1=CC=CC=C1", "physical_data": {"Molecular Weight": "178.18", "Molecular Formula": "C10H10O3", "Boiling Point": "135-136 \u00b0C @ Press: 14 Torr", "Melting Point": "104 \u00b0C"}}