{"cas_no": "58947-95-8", "cn_name": "\u76d0\u9178\u82ef\u6d77\u7d22", "en_name": ["(\u00b1)-Trihexyphenidyl hydrochloride", "1-Piperidinepropanol, \u03b1-cyclohexyl-\u03b1-phenyl-, hydrochloride (1:1)", "1-Piperidinepropanol, \u03b1-cyclohexyl-\u03b1-phenyl-, hydrochloride", "Alpha-Cyclohexyl-alpha-phenyl-1-piperidinepropanol hydrochloride", "Artane", "Artane hydrochloride", "Benzhexol hydrochloride", "\u03b1-Cyclohexyl-\u03b1-phenyl-1-piperidinepropanol hydrochloride", "Pacitane", "Pargitan", "Peragit", "1-Phenyl-1-cyclohexyl-3-piperidyl-1-propanol hydrochloride", "Pipanol", "3-(1-Piperidyl)-1-cyclohexyl-1-phenyl-1-propanol hydrochloride", "3-(1-Piperidyl)-1-phenyl-1-cyclohexyl-1-propanol hydrochloride", "Tremin", "Trihexyphenidyl hydrochloride", "Benzhexol chloride", "Parkopan", "Cyclodol", "Romparkin", "Parcopane", "Tsiklodol", "Parkisan", "Partigan", "Parkidyl", "Trihexy", "Trihexyphenidyl chlorhydrate", "Parkinsan", "(\u00b1)-Trihexyphenidyl hydrochloride", "Triphenidyl", "Parkinane", "Paralest", "Aparkane", "Sedrina", "Broflex", "Antitrem", "Triphedinon", "Parkinol", "1-Cyclohexyl-1-phenyl-3-(piperidin-1-yl)propan-1-ol hydrochloride"], "SMILES": "C(CCN1CCCCC1)(O)(C2CCCCC2)C3=CC=CC=C3.Cl", "physical_data": {"Molecular Weight": "", "Molecular Formula": "C20H31NO.ClH", "Melting Point": "258.5 \u00b0C"}}