{"cas_no": "5894-60-0", "cn_name": "\u5341\u516d\u70f7\u57fa\u4e09\u6c2f\u7845\u70f7", "en_name": ["Trichlorohexadecylsilane", "Silane, trichlorohexadecyl-", "Trichlorohexadecylsilane", "Hexadecyltrichlorosilane", "Cetyltrichlorosilane", "NSC 22328", "Dynasylan 9016", "HC 16", "n-Hexadecyltrichlorosilane"], "SMILES": "C(CCCCCCCCCCCCC)CC[Si](Cl)(Cl)Cl", "physical_data": {"Molecular Weight": "359.88", "Molecular Formula": "C16H33Cl3Si", "Boiling Point": "269 \u00b0C", "Density": "0.996 g/cm\u00b3 @ Temp: 25 \u00b0C"}}