{"cas_no": "58954-23-7", "cn_name": "2-\u4e19\u57fa\u54aa\u5511\u4e8c\u7fa7\u9178", "en_name": ["2-Propyl-1H-imidazole-4,5-dicarboxylic acid", "1H-Imidazole-4,5-dicarboxylic acid, 2-propyl-", "Imidazole-4,5-dicarboxylic acid, 2-propyl-", "2-Propyl-1H-imidazole-4,5-dicarboxylic acid", "IEM 1795", "2-Propyl-4,5-imidazoledicarboxylic acid"], "SMILES": "C(O)(=O)C1=C(C(O)=O)N=C(CCC)N1", "physical_data": {"Molecular Weight": "198.18", "Molecular Formula": "C8H10N2O4", "Melting Point": "262-264 \u00b0C"}}