{"cas_no": "5896-17-3", "cn_name": "2-\u82c4\u6c27\u57fa\u82ef\u7532\u919b", "en_name": ["2-(Benzyloxy)benzaldehyde", "Benzaldehyde, 2-(phenylmethoxy)-", "Benzaldehyde, o-(benzyloxy)-", "2-(Phenylmethoxy)benzaldehyde", "o-(Benzyloxy)benzaldehyde", "2-(Benzyloxy)benzaldehyde", "O-Benzylsalicylaldehyde", "NSC 401884"], "SMILES": "O(CC1=CC=CC=C1)C2=C(C=O)C=CC=C2", "physical_data": {"Molecular Weight": "212.24", "Molecular Formula": "C14H12O2", "Boiling Point": "176-177 \u00b0C @ Press: 4 Torr", "Melting Point": "48-49 \u00b0C"}}