{"cas_no": "58970-76-6", "cn_name": "\u4e4c\u82ef\u7f8e\u53f8", "en_name": ["Bestatin", "L-Leucine, N-[(2S,3R)-3-amino-2-hydroxy-1-oxo-4-phenylbutyl]-", "L-Leucine, N-(3-amino-2-hydroxy-1-oxo-4-phenylbutyl)-, [S-(R*,S*)]-", "N-[(2S,3R)-3-Amino-2-hydroxy-1-oxo-4-phenylbutyl]-L-leucine", "Bestatin", "NK 421", "Ubenimex", "(-)-Bestatin", "NSC 265489"], "SMILES": "C(C(C(C(NC(CC(C)C)C(O)=O)=O)O)N)C1=CC=CC=C1", "physical_data": {"Molecular Weight": "308.37", "Molecular Formula": "C16H24N2O4", "Melting Point": "234.5 \u00b0C"}}