{"cas_no": "58993-79-6", "cn_name": "(R)-(-)-2-(4-\u7532\u6c27\u57fa\u82ef\u57fa)-1-\u7532\u57fa\u4e59\u80fa", "en_name": ["(\u03b1R)-4-Methoxy-\u03b1-methylbenzeneethanamine", "Benzeneethanamine, 4-methoxy-\u03b1-methyl-, (\u03b1R)-", "Benzeneethanamine, 4-methoxy-\u03b1-methyl-, (R)-", "(\u03b1R)-4-Methoxy-\u03b1-methylbenzeneethanamine", "(-)-p-Methoxyamphetamine", "l-4-Methoxyamphetamine", "(R)-(-)-2-(4-Methoxyphenyl)-1-methylethylamine", "(R)-2-(4-Methoxyphenyl)-1-methyl-ethylamine", "(R)-4-Methoxyamphetamine", "(2R)-1-(4-Methoxyphenyl)propan-2-amine", "(R)-1-(4-Methoxyphenyl)propan-2-amine"], "SMILES": "C(C(C)N)C1=CC=C(OC)C=C1", "physical_data": {"Molecular Weight": "165.23", "Molecular Formula": "C10H15NO", "Boiling Point": "90-95 \u00b0C @ Press: 2 Torr"}}