{"cas_no": "58994-96-0", "cn_name": "\u96f7\u83ab\u53f8\u6c40", "en_name": ["Ranimustine", "\u03b1-D-Glucopyranoside, methyl 6-[[[(2-chloroethyl)nitrosoamino]carbonyl]amino]-6-deoxy-", "Methyl 6-[[[(2-chloroethyl)nitrosoamino]carbonyl]amino]-6-deoxy-\u03b1-D-glucopyranoside", "MCNU", "Cymerin", "Cymerine", "Ranimustine", "NSC 270516"], "SMILES": "C(NC(N(CCCl)N=O)=O)C1OC(OC)C(O)C(O)C1O", "physical_data": {"Molecular Weight": "327.72", "Molecular Formula": "C10H18ClN3O7", "Melting Point": "111 \u00b0C"}}