{"cas_no": "59-02-9", "cn_name": "\u5929\u7136\u7ef4\u751f\u7d20 E", "en_name": ["(+)-\u03b1-Tocopherol", "2H-1-Benzopyran-6-ol, 3,4-dihydro-2,5,7,8-tetramethyl-2-[(4R,8R)-4,8,12-trimethyltridecyl]-, (2R)-", "2H-1-Benzopyran-6-ol, 3,4-dihydro-2,5,7,8-tetramethyl-2-(4,8,12-trimethyltridecyl)-, [2R-[2R*(4R*,8R*)]]-", "(2R)-3,4-Dihydro-2,5,7,8-tetramethyl-2-[(4R,8R)-4,8,12-trimethyltridecyl]-2H-1-benzopyran-6-ol", "Almefrol", "Denamone", "Emipherol", "Eprolin", "Eprolin S", "Epsilan", "Esorb", "Etavit", "Phytogermin", "Profecundin", "Syntopherol", "\u03b1-Tocopherol", "Tokopharm", "5,7,8-Trimethyltocol", "Vascuals", "Verrol", "Viteolin", "(all-R)-\u03b1-Tocopherol", "Vitaplex E", "Etamican", "Vitayonon", "Spavit E", "Endo E", "Evitaminum", "Ilitia", "(R,R,R)-\u03b1-Tocopherol", "Vitamin E\u03b1", "(+)-\u03b1-Tocopherol", "D-\u03b1-Tocopherol", "(2R,4\u2032R,8\u2032R)-\u03b1-Tocopherol", "Covitol F 1000", "Tenox GT 1", "Rhenogran Ronotec 50", "d-\u03b1-Tocopherol", "E-Oil 1000", "E 307", "E 307 (tocopherol)", "Ronotec 2001", "EMF 1490", "\u03b1-D-Tocopherol", "Covitol F 1000-2", "NSC 20812", "Irganox E 201", "Cardi-E", "Biopass E 20", "E 5-87", "NatAlc", "Natur-E micelle", "Covitol F 1300", "Covitol IK 00069", "\u03b1-Vitamin E", "Covitol F 1370", "Copherol F 1300C", "Cadvion", "3,4-Dihydro-2,5,7,8-tetramethyl-2-[(4R,8R)-4,8,12-trimethyltridecyl]-(2R)-2H-1-benzopyran-6-ol", "(R)-2,5,7,8-Tetramethyl-2-((4R,8R)-4,8,12-trimethyltridecyl)chroman-6-ol", "d-Vitamin E", "(+)-(2R,4\u2032R,8\u2032R)-\u03b1-Tocopherol", "MeSH ID: D024502"], "SMILES": "CC1=C2C(CCC(CCCC(CCCC(CCCC(C)C)C)C)(C)O2)=C(C)C(O)=C1C", "physical_data": {"Molecular Weight": "430.71", "Molecular Formula": "C29H50O2", "Boiling Point": "210 \u00b0C @ Press: 0.1 Torr", "Melting Point": "2-3 \u00b0C"}}