{"cas_no": "59-00-7", "cn_name": "4,8-\u4e8c\u7f9f\u57fa\u55b9\u5549-2-\u7532\u9178", "en_name": ["Xanthurenic acid", "2-Quinolinecarboxylic acid, 4,8-dihydroxy-", "Quinaldic acid, 4,8-dihydroxy-", "4,8-Dihydroxy-2-quinolinecarboxylic acid", "4,8-Dihydroxyquinaldic acid", "Xanthurenic acid", "Xanthuric acid", "8-Hydroxykynurenic acid", "NSC 401570", "MeSH ID: D014977"], "SMILES": "OC=1C2=C(C(O)=CC(C(O)=O)=N2)C=CC1", "physical_data": {"Molecular Weight": "205.17", "Molecular Formula": "C10H7NO4", "Melting Point": "289 \u00b0C"}}