{"cas_no": "59-05-2", "cn_name": "\u7532\u6c28\u8776\u5464", "en_name": ["Methotrexate", "L-Glutamic acid, N-[4-[[(2,4-diamino-6-pteridinyl)methyl]methylamino]benzoyl]-", "Glutamic acid, N-[p-[[(2,4-diamino-6-pteridinyl)methyl]methylamino]benzoyl]-, L-(+)-", "N-[4-[[(2,4-Diamino-6-pteridinyl)methyl]methylamino]benzoyl]-L-glutamic acid", "CL 14377", "Amethopterin", "4-Amino-10-methylfolic acid", "4-Amino-N10-methylpteroylglutamic acid", "N-[p-[[2,4-Diamino-6-pteridinyl)methyl]methylamino]benzoyl]-L-(+)-glutamic acid", "Methotrexate", "MTX", "NSC 740", "R 9985", "Antifolan", "L-Methotrexate", "Amethopterine", "4-Amino-N10-methylfolic acid", "(+)-Amethopterin", "L-Amethopterin", "Methotrexat-Ebewe", "Ledertrexate", "Emtexate", "Mexate", "Metatrexan", "EMT 25299", "Methylaminopterin", "Rheumatrex", "Methoxtrexate", "Trexall", "Emthexate PF", "Emtrexate", "(2S)-2-[[4-[[(2,4-Diaminopteridin-6-yl)methyl]methylamino]benzoyl]amino]pentanedioic acid", "Folitrax", "Folex PFS", "Folex", "Mexate-AQ", "Methotrexate LPF", "Trilem", "Zexate", "Oncotrex", "Methocip", "Merex", "Caditrex", "Remtrex", "Metorex", "Methocel", "LMTX", "Nordimet", "Jylamvo", "Otrexup", "Rasuvo", "MeSH ID: D008727"], "SMILES": "NC=1C2=C(N=CC(CN(C)C3=CC=C(C(NC(CCC(O)=O)C(O)=O)=O)C=C3)=N2)N=C(N)N1", "physical_data": {"Molecular Weight": "454.44", "Molecular Formula": "C20H22N8O5", "Melting Point": "195 \u00b0C"}}