{"cas_no": "59-06-3", "cn_name": "\u4e59\u6c27\u9170\u80fa\u82ef\u7532\u916f", "en_name": ["Ethopabate", "Benzoic acid, 4-(acetylamino)-2-ethoxy-, methyl ester", "Benzoic acid, 4-acetamido-2-ethoxy-, methyl ester", "Ethopabate", "Methyl 4-acetamido-2-ethoxybenzoate", "4-Acetamido-2-ethoxybenzoic acid methyl ester", "Ethyl pabate", "Methyl 4-(acetylamino)-2-ethoxybenzoate", "Methyl 2-ethoxy-4-acetamidobenzoate", "MeSH ID: D005011"], "SMILES": "C(OC)(=O)C1=C(OCC)C=C(NC(C)=O)C=C1", "physical_data": {"Molecular Weight": "237.25", "Molecular Formula": "C12H15NO4", "Melting Point": "148.5 \u00b0C"}}