{"cas_no": "59-14-3", "cn_name": "\u6eb4\u8132\u82f7", "en_name": ["5-Bromo-2\u2032-deoxyuridine", "Uridine, 5-bromo-2\u2032-deoxy-", "5-Bromo-2\u2032-deoxyuridine", "5-BDU", "BDU", "Bromodeoxyuridine", "5-Bromodeoxyuridine", "5-Bromouracil deoxyriboside", "BUdR", "5-Bromodesoxyuridine", "Broxuridine", "NSC 38297", "BrdUrd", "5-Bromo-2\u2032-desoxyuridine", "2\u2032-Deoxy-5-bromouridine", "BRUDR", "5-Bromouracil-2-deoxyriboside", "(+)-5-Bromo-1-[(2R,4S,5R)-4-hydroxy-5-(hydroxymethyl)oxolan-2-yl]pyrimidine-2,4-dione", "BrdU", "5-Bromouracil-2\u2032-deoxyriboside", "MeSH ID: D001973"], "SMILES": "O=C1N(C2OC(CO)C(O)C2)C=C(Br)C(=O)N1", "physical_data": {"Molecular Weight": "307.10", "Molecular Formula": "C9H11BrN2O5", "Melting Point": "192.5 \u00b0C"}}