{"cas_no": "59-26-7", "cn_name": "\u5c3c\u53ef\u5239\u7c73", "en_name": ["N,N-Diethylnicotinamide", "3-Pyridinecarboxamide, N,N-diethyl-", "Nicotinamide, N,N-diethyl-", "N,N-Diethyl-3-pyridinecarboxamide", "Anacardone", "Anacordone", "Astrocar", "Carbamidal", "Cardamine", "Cardiamid", "Cardiamine", "Cardimon", "Coracon", "Cordiamin", "Cordiamine", "Corediol", "Cormed", "Cormid", "Cornotone", "Corvitol", "Corvotone", "N,N-Diethylnicotinamide", "Dynacoryl", "Eucoran", "Niamine", "Nicamide", "Nicetamide", "Nicethamide", "Nicorine", "Nicotinic acid diethylamide", "Nikardin", "Nikethamide", "Niketharol", "Nikorin", "Pyricardyl", "Pyridine-3-carboxydiethylamide", "Pyridine-3-carboxylic acid diethylamide", "Reformin", "Rehormin", "Salvacard", "Solyacord", "Stimulin", "Ventramine", "Diethylnicotinamide", "Ni-Cor", "Niketamide", "Cardiamide", "Coramine (pharmaceutical)", "Kordiamin", "Cormotyl", "Sancora", "Percoral", "Corvin", "Canfodiamina", "Nikethyl", "Niketamine", "Coramine", "Niquetamide", "3-(N,N-Diethylcarbamoyl)pyridine", "Ecoran", "Coractiv N", "NSC 130820", "NSC 169863", "NSC 62103", "MeSH ID: D009552"], "SMILES": "C(N(CC)CC)(=O)C=1C=CC=NC1", "physical_data": {"Molecular Weight": "178.23", "Molecular Formula": "C10H14N2O", "Boiling Point": "298 \u00b0C", "Melting Point": "25 \u00b0C"}}