{"cas_no": "59-23-4", "cn_name": "D-\u534a\u4e73\u7cd6", "en_name": ["Galactose", "D-Galactose", "Galactose, D-", "Galactose", "D-(+)-Galactose", "(+)-Galactose"], "SMILES": "C(C(C(C=O)O)O)(C(CO)O)O", "physical_data": {"Molecular Weight": "180.16", "Molecular Formula": "C6H12O6", "Melting Point": "170 \u00b0C", "Density": "1.616 g/cm\u00b3 @ Temp: -5 \u00b0C"}}