{"cas_no": "59-33-6", "cn_name": "N-[(4-\u7532\u6c27\u82ef\u57fa)\u7532\u57fa]-N-(2-\u5421\u5576\u57fa)-N\u2019,N\u2019-\u4e8c\u7532\u57fa-\u4e59\u4e8c\u80fa\u9a6c\u6765\u9178\u76d0", "en_name": ["Pyrilamine maleate", "1,2-Ethanediamine, N1-[(4-methoxyphenyl)methyl]-N2,N2-dimethyl-N1-2-pyridinyl-, (2Z)-2-butenedioate (1:1)", "Pyridine, 2-[[2-(dimethylamino)ethyl](p-methoxybenzyl)amino]-, maleate (1:1)", "1,2-Ethanediamine, N-[(4-methoxyphenyl)methyl]-N\u2032,N\u2032-dimethyl-N-2-pyridinyl-, (Z)-2-butenedioate (1:1)", "1,2-Ethanediamine, N-[(4-methoxyphenyl)methyl]-N\u2032,N\u2032-dimethyl-N-2-pyridinyl-, (2Z)-2-butenedioate (1:1)", "AH", "Anisopyradamine", "Neo-Antergan maleate", "Anthisan maleate", "Antihist", "Diaminide maleate", "2-[[2-(Dimethylamino)ethyl](p-methoxybenzyl)amino]pyridine Bimaleate", "2-[(2-Dimethylaminoethyl)(p-methoxybenzyl)amino]-pyridine maleate", "Mepyramine maleate", "N-p-Methoxybenzyl-N\u2032,N\u2032-dimethyl-N-\u03b1-pyridylethylenediamine maleate", "Minihist", "Neoantergan maleate", "Paramal", "Paraminyl maleate", "Pymafed", "Pyra Maleate", "Pyranilamine maleate", "Pyraninyl", "Pyranisamine maleate", "Pyrilamine maleate", "Renstamin", "Stangen maleate", "Statomin maleate", "Thylogen maleate", "Mepyramine hydrogen maleinate", "Prefrin A", "Thylogen", "Histapyran", "Pyramal", "Parmal", "Paraminyl", "Antamine", "Histalon", "Histalet Forte", "Histan", "Histatex", "Histavet P", "Enrumay", "Antisan", "Stangen", "Stamine", "NSC 3604"], "SMILES": "N(CC1=CC=C(OC)C=C1)(CCN(C)C)C2=CC=CC=N2.C(=CC(O)=O)C(O)=O", "physical_data": {"Molecular Weight": "", "Molecular Formula": "C17H23N3O.C4H4O4", "Melting Point": "100-101 \u00b0C"}}