{"cas_no": "59-30-3", "cn_name": "\u53f6\u9178", "en_name": ["Folic acid", "L-Glutamic acid, N-[4-[[(2-amino-3,4-dihydro-4-oxo-6-pteridinyl)methyl]amino]benzoyl]-", "Folic acid", "L-Glutamic acid, N-[4-[[(2-amino-1,4-dihydro-4-oxo-6-pteridinyl)methyl]amino]benzoyl]-", "N-[4-[[(2-Amino-3,4-dihydro-4-oxo-6-pteridinyl)methyl]amino]benzoyl]-L-glutamic acid", "Pteroylglutamic acid", "Vitamin Bc", "Vitamin M", "Pteroylmonoglutamic acid", "Pteroyl-L-glutamic acid", "Folacin", "Pteroyl-L-monoglutamic acid", "PGA", "Liver Lactobacillus casei factor", "Cytofol", "Foliamin", "Folipac", "Folsaure", "Folsan", "Folvite", "Incafolic", "Millafol", "Folettes", "Acifolic", "Folsav", "Folacid", "Vitamin Be", "Folbal", "Folcidin", "Dosfolat B activ", "NSC 3073", "Folicet", "Foldine", "Aspol", "Folovit", "Folnak", "Vitamin B9", "Dosfolat XS", "(2S)-2-[(4-[[(2-Amino-4-hydroxypteridin-6-yl)methyl]amino]phenyl)formamido]pentanedioic acid", "(2S)-2-[[4-[(2-Amino-4-oxo-1H-pteridin-6-yl)methylamino]benzoyl]amino]pentanedioic acid", "MeSH ID: D005492"], "SMILES": "O=C1C=2C(NC=C(CNC3=CC=C(C(NC(CCC(O)=O)C(O)=O)=O)C=C3)N2)=NC(N)=N1", "physical_data": {"Molecular Weight": "441.40", "Molecular Formula": "C19H19N7O6", "Melting Point": "250 \u00b0C (decomp)"}}