{"cas_no": "59-31-4", "cn_name": "2-\u7f9f\u57fa\u55b9\u5549", "en_name": ["2-Hydroxyquinoline", "2(1H)-Quinolinone", "Carbostyril", "2-Quinolinol", "\u03b1-Hydroxyquinoline", "2-Hydroxyquinoline", "o-Aminocinnamic acid lactam", "2(1H)-Quinolone", "\u03b1-Quinolone", "2-Quinolone", "2-Quinolinone", "2-Oxo-1,2-dihydroquinoline", "1,2-Dihydro-2-oxoquinoline", "1H-Quinolin-2-one", "NSC 156783", "NSC 554", "NSC 97217", "A 13286"], "SMILES": "O=C1NC=2C(C=C1)=CC=CC2", "physical_data": {"Molecular Weight": "145.16", "Molecular Formula": "C9H7NO", "Melting Point": "199.5 \u00b0C"}}