{"cas_no": "59-32-5", "cn_name": "\u6c2f\u5421\u62c9\u654f", "en_name": ["Chloropyramine", "1,2-Ethanediamine, N1-[(4-chlorophenyl)methyl]-N2,N2-dimethyl-N1-2-pyridinyl-", "Pyridine, 2-[(p-chlorobenzyl)[2-(dimethylamino)ethyl]amino]-", "1,2-Ethanediamine, N-[(4-chlorophenyl)methyl]-N\u2032,N\u2032-dimethyl-N-2-pyridinyl-", "N1-[(4-Chlorophenyl)methyl]-N2,N2-dimethyl-N1-2-pyridinyl-1,2-ethanediamine", "Avapena", "Chlorneoantergan", "2-[(p-Chlorobenzyl)(2-dimethylaminoethyl)amino]pyridine", "Chloropyramine", "Chlorpyramine", "N,N-Dimethyl-N\u2032-(p-chlorobenzyl)-N\u2032-(2-pyridyl)ethylenediamine", "N,N-Dimethyl-N\u2032-(2-pyridyl)-N\u2032-(4-chlorobenzyl)ethylenediamine", "Halopyramine", "Suprastin", "Synopen", "Synpen", "Synopen R", "N-Dimethylaminoethyl-N-p-chlorobenzyl-\u03b1-aminopyridine", "Chloropyribenzamine", "Allergan S", "NSC 241038", "Subrestin", "N\u2032-[(4-Chlorophenyl)methyl]-N,N-dimethyl-N\u2032-pyridin-2-yl-ethane-1,2-diamine", "N-[(4-Chlorophenyl)methyl]-N-[2-(dimethylamino)ethyl]pyridine-2-amine"], "SMILES": "N(CC1=CC=C(Cl)C=C1)(CCN(C)C)C2=CC=CC=N2", "physical_data": {"Molecular Weight": "289.80", "Molecular Formula": "C16H20ClN3", "Boiling Point": "154.5 \u00b0C", "Melting Point": "&lt;25 \u00b0C"}}