{"cas_no": "59-49-4", "cn_name": "2-\u82ef\u5e76\u5511\u5549\u916e", "en_name": ["2(3H)-Benzoxazolone", "2(3H)-Benzoxazolone", "2-Benzoxazolinone", "Carbamic acid, (2-hydroxyphenyl)-, \u03b3-lactone", "2-Benzoxazolol", "2-Hydroxybenzoxazole", "2(3H)-Benzoxazolinone", "1,3-Benzoxazol-2(3H)-one", "NSC 3812", "2-Oxo-2,3-dihydrobenzoxazole", "Benzo[d]oxazol-2(3H)-one", "1,2-Dihydrobenzoxazol-2-one", "2,3-Dihydro-1,3-benzoxazol-2-one"], "SMILES": "O=C1NC=2C(O1)=CC=CC2", "physical_data": {"Molecular Weight": "135.12", "Molecular Formula": "C7H5NO2", "Boiling Point": "335 \u00b0C", "Melting Point": "138 \u00b0C"}}