{"cas_no": "59-48-3", "cn_name": "2-\u5432\u54da\u916e", "en_name": ["Oxindole", "2H-Indol-2-one, 1,3-dihydro-", "Oxindole", "2-Indolinone", "1,3-Dihydro-2H-indol-2-one", "Oxindol", "2-Oxoindoline", "2-Oxindole", "Indol-2(3H)-one", "1,3-Dihydroindol-2-one", "2-Indolone", "Indoline-2-one", "2-Oxoindole", "NSC 274863", "2-Oxo-2,3-dihydroindole", "2,3-Dihydro-1H-indol-2-one"], "SMILES": "O=C1CC=2C(N1)=CC=CC2", "physical_data": {"Molecular Weight": "133.15", "Molecular Formula": "C8H7NO", "Boiling Point": "227 \u00b0C", "Melting Point": "128 \u00b0C"}}