{"cas_no": "59-47-2", "cn_name": "\u7532\u915a\u7518\u6cb9\u919a", "en_name": ["(\u00b1)-Mephenesin", "1,2-Propanediol, 3-(2-methylphenoxy)-", "1,2-Propanediol, 3-(o-tolyloxy)-", "3-(2-Methylphenoxy)-1,2-propanediol", "BDH 312", "RP 3602", "Atensin", "Avosyl", "o-Cresyl \u03b1-glyceryl ether", "Daserol", "Decontractyl", "1,2-Dihydroxy-3-(2-methylphenoxy)propane", "Dioloxol", "Glykresin", "Glyotol", "Kinavosyl", "Lissephen", "Mephedan", "Mephelor", "Mephenesin", "Mephenesine", "Mephensin", "Mepherol", "Mephson", "3-(o-Methylphenoxy)-1,2-propanediol", "Myanesin", "Myanol", "Myasin", "Mycocuran", "Myodetensine", "Myopan", "Myoserol", "Myoten", "Myoxane", "Oranixon", "Prolax", "Relaxar", "Relaxil", "Sinan", "Spartoloxyn", "Spasmolyn", "Stilalgin", "Thoxidil", "Tolansin", "Tolax", "Tolcil", "Tolhart", "Tolosate", "Toloxyn", "3-o-Toloxy-1,2-propanediol", "Tolserol", "Tolseron", "Tolsin", "Tolulexin", "Tolulox", "Tolyspaz", "Cresoxydiol", "3-(o-Tolyloxy)-1,2-propanediol", "Glyceryl o-tolyl ether", "o-Cresyl glycerol ether", "Cresoxypropanediol", "Avoxyl", "Curythan", "Memphenesin", "Mephesin", "Myolysin", "Renarcol", "Sansdolor", "Walconesin", "Mervaldin", "Mephin", "Daserd", "Myodetensin", "3-(2-Tolyloxy)-1,2-propanediol", "3-(2-Methylphenoxy)propane-1,2-diol", "(\u00b1)-Mephenesin", "Rhex", "NSC 25234", "NSC 36140", "NSC 50788", "NSC 8134", "MeSH ID: D008615"], "SMILES": "O(CC(CO)O)C1=C(C)C=CC=C1", "physical_data": {"Molecular Weight": "182.22", "Molecular Formula": "C10H14O3", "Boiling Point": "180-184 \u00b0C @ Press: 9 Torr", "Melting Point": "70 \u00b0C (decomp)"}}