{"cas_no": "59-42-7", "cn_name": "\u53bb\u6c27\u80be\u4e0a\u817a\u7d20\u78b1", "en_name": ["(-)-Phenylephrine", "Benzenemethanol, 3-hydroxy-\u03b1-[(methylamino)methyl]-, (\u03b1R)-", "Benzyl alcohol, m-hydroxy-\u03b1-[(methylamino)methyl]-, (-)-", "Benzenemethanol, 3-hydroxy-\u03b1-[(methylamino)methyl]-, (R)-", "(\u03b1R)-3-Hydroxy-\u03b1-[(methylamino)methyl]benzenemethanol", "l-m-Hydroxy-\u03b1-[(methylamino)methyl]benzyl alcohol", "(-)-m-Hydroxy-\u03b1-(methylaminomethyl)benzyl alcohol", "Mesaton", "Mesatone", "Metaoxedrine", "Metasympatol", "Metasynephrine", "m-Methylaminoethanolphenol", "Mezaton", "(-)-m-Oxedrine", "m-Oxedrine", "(-)-Phenylephrine", "Phenylephrine", "m-Sympathol", "m-Sympatol", "m-Synephrine", "Neo-Synephrine", "Metaoxedrin", "Visadron", "(R)-(-)-Phenylephrine", "(R)-Phenylephrine", "R(-)-Mezaton", "l-Phenylephrine", "(-)-m-Synephrine", "L-Phenylephedrine", "(R)-3-[1-Hydroxy-2-(methylamino)ethyl]phenol", "Iriphrin", "3-[(1R)-1-Hydroxy-2-(methylamino)ethyl]phenol", "Relacon-HC", "MeSH ID: D010656"], "SMILES": "C(CNC)(O)C1=CC(O)=CC=C1", "physical_data": {"Molecular Weight": "167.21", "Molecular Formula": "C9H13NO2", "Melting Point": "169-172 \u00b0C"}}