{"cas_no": "59-46-1", "cn_name": "\u666e\u9c81\u5361\u56e0", "en_name": ["Procaine", "Benzoic acid, 4-amino-, 2-(diethylamino)ethyl ester", "Benzoic acid, p-amino-, 2-(diethylamino)ethyl ester", "4-Aminobenzoic acid diethylaminoethyl ester", "p-Aminobenzoic acid 2-diethylaminoethyl ester", "Diethylaminoethyl p-aminobenzoate", "\u03b2-Diethylaminoethyl 4-aminobenzoate", "Nissocaine", "Procain", "Spinocaine", "Procaine", "2-(Diethylamino)ethyl p-aminobenzoate", "\u03b2-(Diethylamino)ethyl p-aminobenzoate", "Vitamin H3", "Duracaine", "2-Diethylaminoethyl 4-aminobenzoate", "Procaine base", "4-Aminobenzoic acid 2-(diethylamino)ethyl ester", "NSC 169497", "SP 01", "Pfizerpen AS", "MeSH ID: D011343"], "SMILES": "C(OCCN(CC)CC)(=O)C1=CC=C(N)C=C1", "physical_data": {"Molecular Weight": "236.31", "Molecular Formula": "C13H20N2O2", "Boiling Point": "228-231 \u00b0C @ Press: 6 Torr", "Melting Point": "61 \u00b0C", "Density": "1.17 g/cm\u00b3"}}