{"cas_no": "59-40-5", "cn_name": "\u78fa\u80fa\u55b9\u6076\u5549", "en_name": ["Sulfaquinoxaline", "Benzenesulfonamide, 4-amino-N-2-quinoxalinyl-", "Sulfanilamide, N1-2-quinoxalinyl-", "4-Amino-N-2-quinoxalinylbenzenesulfonamide", "2-p-Aminobenzenesulfonamidoquinoxaline", "2-p-Aminobenzenesulphonamidoquinoxaline", "Compound 3-120", "N1-(2-Quinoxalinyl)sulfanilamide", "Sulfabenzpyrazine", "Sulfaline", "Sulfaquinoxaline", "Sulquin", "Sulphaquinoxaline", "2-Sulfanilamidobenzopyrazine", "SQ 40", "Avicocid", "Italquina", "Kokozigal", "SQX", "Sulfa-Q 20", "2-(p-Sulfanilamido)quinoxaline", "Ursokoxaline", "NSC 41805", "MeSH ID: D013428"], "SMILES": "N(S(=O)(=O)C1=CC=C(N)C=C1)C2=NC3=C(N=C2)C=CC=C3", "physical_data": {"Molecular Weight": "300.34", "Molecular Formula": "C14H12N4O2S", "Melting Point": "247.5 \u00b0C"}}