{"cas_no": "59-43-8", "cn_name": "\u7ef4\u751f\u7d20 B1", "en_name": ["Vitamin B1", "Thiazolium, 3-[(4-amino-2-methyl-5-pyrimidinyl)methyl]-5-(2-hydroxyethyl)-4-methyl-, chloride (1:1)", "Thiamine", "Thiazolium, 3-[(4-amino-2-methyl-5-pyrimidinyl)methyl]-5-(2-hydroxyethyl)-4-methyl-, chloride", "3-[(4-Amino-2-methyl-5-pyrimidinyl)methyl]-5-(2-hydroxyethyl)-4-methylthiazolium chloride (1:1)", "3-[(4-Amino-2-methyl-5-pyrimidinyl)methyl]-5-(2-hydroxyethyl)-4-methylthiazolium chloride", "Aneurine", "Apatate Drape", "Beivon", "Bethiamin", "Oryzanin", "Vitamin B1", "Thiamine monochloride", "Thiamin", "Vitaneurin", "Thiacoat", "3-[(4-Amino-2-methylpyrimidin-5-yl)methyl]-5-(2-hydroxyethyl)-4-methyl-1,3-thiazol-3-ium chloride", "3-((4-Amino-2-methylpyrimidin-5-yl)methyl)-5-(2-hydroxyethyl)-4-methylthiazol-3-ium chloride", "MeSH ID: D013831"], "SMILES": "C([N+]=1C(C)=C(CCO)SC1)C=2C(N)=NC(C)=NC2.[Cl-]", "physical_data": {"Molecular Weight": "", "Molecular Formula": "C12H17N4OS.Cl", "Melting Point": "248 \u00b0C (decomp)", "Density": "1.43 g/cm\u00b3"}}