{"cas_no": "59-50-7", "cn_name": "4-\u6c2f-3-\u7532\u57fa\u82ef\u915a", "en_name": ["4-Chloro-3-methylphenol", "Phenol, 4-chloro-3-methyl-", "m-Cresol, 4-chloro-", "4-Chloro-3-methylphenol", "2-Chloro-5-hydroxytoluene", "6-Chloro-3-hydroxytoluene", "3-Methyl-4-chlorophenol", "Parol", "PCMC", "Raschit", "Raschit K", "Preventol CMK", "4-Chloro-5-methylphenol", "Baktol", "Baktolan", "Ottafact", "Rasen-Anicon", "Aptal", "Candaseptic", "Peritonan", "para-Chloro-meta-cresol", "Chlorocresol", "4-Chloro-3-cresol", "1-Chloro-2-methyl-4-hydroxybenzene", "p-Chloro-m-cresol", "Neopredisan", "4-Chloro-m-cresol", "NSC 4166", "Parmetol", "Aldecoc XD", "3-Methyl-p-chlorophenol"], "SMILES": "CC1=C(Cl)C=CC(O)=C1", "physical_data": {"Molecular Weight": "142.58", "Molecular Formula": "C7H7ClO", "Boiling Point": "235 \u00b0C", "Melting Point": "67 \u00b0C", "Density": "1.37 g/cm\u00b3"}}