{"cas_no": "59-51-8", "cn_name": "DL-\u86cb\u6c28\u9178", "en_name": ["(\u00b1)-Methionine", "Methionine", "Methionine, DL-", "DL-Methionine", "\u03b1-Amino-\u03b3-methylmercaptobutyric acid", "DL-2-Amino-4-(methylthio)butyric acid", "Banthionine", "Cynaron", "Dyprin", "Lobamine", "Meonine", "Methilanin", "Metione", "Neston", "(\u00b1)-Methionine", "Racemethionine", "Lactet", "Pedameth", "Urimeth", "Amurex", "NSC 9241", "Meprom M 85", "Rhodimet NP 99", "Smartamine M", "Smartamine", "Timet", "MetAMINO", "MetiPEARL", "Acimetion", "2-Amino-4-(methylthio)butanoic acid", "2-Amino-4-(methylsulfanyl)butanoic acid", "2-Azaniumyl-4-methylsulfanylbutanoate", "DL-Methionine"], "SMILES": "C(C(O)=O)(CCSC)N", "physical_data": {"Molecular Weight": "149.21", "Molecular Formula": "C5H11NO2S", "Melting Point": "281 \u00b0C (decomp)", "Density": "1.3 g/cm\u00b3"}}