{"cas_no": "59-53-0", "cn_name": "\u4e59\u9170\u9752\u9709\u80fa", "en_name": ["N-Acetyl-3-mercaptovaline", "Valine, N-acetyl-3-mercapto-", "Valine, N-acetyl-3-mercapto-, DL-", "DL-Valine, N-acetyl-3-mercapto-", "N-Acetyl-3-mercaptovaline", "N-Acetyl-DL-penicillamine", "N-Acetyl-dl-penicillamine", "N-Acetyl-3-mercapto-DL-valine", "NSC 28039", "NSC 92752", "2-Acetamido-3-methyl-3-sulfanylbutanoic acid"], "SMILES": "C(NC(C)=O)(C(C)(C)S)C(O)=O", "physical_data": {"Molecular Weight": "191.25", "Molecular Formula": "C7H13NO3S", "Melting Point": "181-182 \u00b0C (decomp)"}}