{"cas_no": "59-58-5", "cn_name": "\u4e19\u786b\u786b\u80fa", "en_name": ["Prosultiamine", "Formamide, N-[(4-amino-2-methyl-5-pyrimidinyl)methyl]-N-[4-hydroxy-1-methyl-2-(propyldithio)-1-buten-1-yl]-", "Formamide, N-[(4-amino-2-methyl-5-pyrimidinyl)methyl]-N-[4-hydroxy-1-methyl-2-(propyldithio)-1-butenyl]-", "N-[(4-Amino-2-methyl-5-pyrimidinyl)methyl]-N-[4-hydroxy-1-methyl-2-(propyldithio)-1-buten-1-yl]formamide", "Alinamin", "N-[4-Amino-2-methyl-5-pyrimidinyl)methyl]-N-[4-hydroxy-1-methyl-2-(propyldithio)-1-butenyl]formamide", "Dithiopropylthiamine", "2-[2\u2032-Methyl-4\u2032-aminopyrimidyl-(5\u2032)]-methylformamido-5-hydroxy-\u03942-pentenyl-(3)-propyl disulfide", "Prosultiamine", "Thiamine propyl disulfide", "TPD", "Vitamin B1 propyl disulfide", "Prosulthiamine", "Arinamine", "Tipidi", "Nervilon", "Neurvita", "Aliton", "Nevriton", "Nuvelbi V. C. A.", "Tiotiamina", "Tiovit-B1", "Thiamin propyl disulfide", "Taketron", "Binova", "NSC 23893", "NSC 677470"], "SMILES": "C(N(C(=C(SSCCC)CCO)C)C=O)C=1C(N)=NC(C)=NC1", "physical_data": {"Molecular Weight": "356.51", "Molecular Formula": "C15H24N4O2S2", "Melting Point": "128.5 \u00b0C (decomp)"}}