{"cas_no": "59-52-9", "cn_name": "\u4e8c\u5def\u4e19\u9187", "en_name": ["Dimercaprol", "1-Propanol, 2,3-dimercapto-", "2,3-Dimercapto-1-propanol", "BAL", "Dicaptol", "Dimercaprol", "2,3-Dimercaptopropanol", "Dithioglycerol", "3-Hydroxy-1,2-propanedithiol", "British antilewisite", "1,2-Dithioglycerol", "1,2-Dimercapto-3-propanol", "2,3-Dithiopropanol", "\u03b1,\u03b2-Dithioglycerol", "Dimersol", "Antoxol", "Dithioglycerine", "DMP", "Panobal", "Sulfactin", "2,3-Dithiopropan-1-ol", "NSC 39515", "NSC 4646", "2,3-Bis(sulfanyl)propan-1-ol", "2,3-Disulfanylpropan-1-ol"], "SMILES": "C(CO)(CS)S", "physical_data": {"Molecular Weight": "124.22", "Molecular Formula": "C3H8OS2", "Boiling Point": "140 \u00b0C", "Melting Point": "77 \u00b0C", "Density": "1.2385 g/cm\u00b3 @ Temp: 25 \u00b0C"}}