{"cas_no": "59-67-6", "cn_name": "\u70df\u9178", "en_name": ["Nicotinic acid", "3-Pyridinecarboxylic acid", "Nicotinic acid", "Akotin", "Efacin", "Niacin", "Nicodelmine", "Niconacid", "Nico-Span", "Nicotinipca", "Nicyl", "\u03b2-Pyridinecarboxylic acid", "Nicosan 3", "Nicacid", "Nicangin", "Daskil", "Linic", "Nicolar", "3-Carboxylpyridine", "3-Carboxypyridine", "Pellagrin", "Pelonin", "Apelagrin", "Nyclin", "3-Pyridylcarboxylic acid", "SR 4390", "Niaspan", "Enduracin", "Slo-niacin", "Niacor", "Nicobid", "Wampocap", "Niac", "NSC 169454", "E 375", "CaRo 03", "Microvit B3 Promix Niacin", "Vitamin B3", "NiaShure", "Disperse NNO", "Bovi-Niacin", "Vitamin B3 (niacin)", "Vitamin B3 (nicotinic acid)", "Pyridine-3-carboxylic acid", "MeSH ID: D009525"], "SMILES": "C(O)(=O)C=1C=CC=NC1", "physical_data": {"Molecular Weight": "123.11", "Molecular Formula": "C6H5NO2", "Boiling Point": "90-92 \u00b0C @ Press: 15 Torr", "Melting Point": "236.6 \u00b0C", "Density": "1.473 g/cm\u00b3 @ Temp: 25 \u00b0C"}}