{"cas_no": "59-66-5", "cn_name": "\u4e59\u9170\u5511\u80fa", "en_name": ["Acetazolamide", "Acetamide, N-[5-(aminosulfonyl)-1,3,4-thiadiazol-2-yl]-", "Acetamide, N-(5-sulfamoyl-1,3,4-thiadiazol-2-yl)-", "N-[5-(Aminosulfonyl)-1,3,4-thiadiazol-2-yl]acetamide", "5-Acetamide-1,3,4-thiadiazole-2-sulfonamide", "2-Acetamido-5-sulfonamido-1,3,4-thiadiazole", "Acetazolamide", "Diacarb", "Diamox", "Diuramid", "Edemox", "Fonurit", "Natrionex", "Nephramide", "Phonurit", "5-Acetamido-1,3,4-thiadiazole-2-sulfonamide", "2-Acetylamino-1,3,4-thiadiazole-5-sulfonamide", "Cidamex", "Acetamox", "Nephramid", "Diutazol", "Diluran", "Glaupax", "Donmox", "Glupax", "Dehydratin", "5-Acetylamino-1,3,4-thiadiazol-2-ylsulfonamide", "Diakarb", "Acetazolamid", "5-Acetamido-1,3,4-thiodiazole-2-sulfonamide", "Eumicton", "Diuramide", "L 579486", "N-(5-Sulfamoyl-1,3,4-thiadiazol-2-yl)acetamide", "2-Acetamido-1,3,4-thiadiazole-5-sulfonamide", "Atenezol", "Diuriwas", "Defiltran", "Didoc", "Carbonic anhydrase inhibitor 6063", "Diureticum-Holzinger", "NSC 145177", "N-(5-Sulfamoyl-1,3,4-thiadiazol-2-yl)acetamide", "AZM", "MeSH ID: D000086"], "SMILES": "S(N)(=O)(=O)C=1SC(NC(C)=O)=NN1", "physical_data": {"Molecular Weight": "222.25", "Molecular Formula": "C4H6N4O3S2", "Melting Point": "260.5 \u00b0C"}}