{"cas_no": "59-63-2", "cn_name": "\u5f02\u5361\u6ce2\u80bc", "en_name": ["Isocarboxazid", "3-Isoxazolecarboxylic acid, 5-methyl-, 2-(phenylmethyl)hydrazide", "3-Isoxazolecarboxylic acid, 5-methyl-, 2-benzylhydrazide", "Ro 5-0831", "N\u2032-Benzyl N-methyl-5-isoxazolecarboxylhydrazide-3", "1-Benzyl-2-(5-methyl-3-isoxazolyl-carbonyl)hydrazine", "Isocarboxazid", "Isocarboxazide", "Isocarboxyzid", "Marplan", "5-Methyl-3-isoxazolecarboxylic acid 2-benzylhydrazide", "Benazide", "BMIH", "Enerzer", "Marplon", "NSC 169893", "MeSH ID: D007520"], "SMILES": "C(NNCC1=CC=CC=C1)(=O)C=2C=C(C)ON2", "physical_data": {"Molecular Weight": "231.25", "Molecular Formula": "C12H13N3O2", "Melting Point": "105-106 \u00b0C"}}