{"cas_no": "59-87-0", "cn_name": "\u544b\u5583\u897f\u6797", "en_name": ["Nitrofurazone", "Hydrazinecarboxamide, 2-[(5-nitro-2-furanyl)methylene]-", "2-Furaldehyde, 5-nitro-, semicarbazone", "Semioxamazide, 1-(5-nitrofurfurylidene)-", "2-[(5-Nitro-2-furanyl)methylene]hydrazinecarboxamide", "Aldomycin", "Babrocid", "Chemofuran", "Furacycline", "Furacin", "Furaskin", "Furesol", "Nefco", "NFS", "Nifuzon", "5-Nitro-2-furaldehyde semicarbazone", "Nitrofurazone", "5-Nitro-2-furfuraldehyde semicarbazone", "5-Nitrofurfural semicarbazone", "1-(5-Nitro-2-furfurylidene)semicarbazide", "Vabrocid", "Veterinary nitrofurazone", "Furacilin", "Furaziline", "Nitrofuraldehyde semicarbazone", "5-Nitro-2-furfural semicarbazone", "2-Furancarboxaldehyde, 5-nitro-, semicarbazone", "Furacine", "(5-Nitro-2-furfurylidenamino)urea", "Monafuracin", "Nitrofural", "Amifur", "Nfz mix", "Nitrofuran (bactericide)", "Mastofuran", "Alfucin", "Furaldon", "Otofural", "5-Nitrofurazone", "Nifucin", "Nitrofuran", "Furaplast", "Furalcyn", "Furacilinum", "Furacoccid", "Coxistat", "Mammex", "Furazol W", "Nitrozone", "Furacinetten", "NSC 1602", "NSC 2100", "NSC 44009", "FuraZin", "Fura-Septin", "Furaseen", "Topifuran", "MeSH ID: D009583"], "SMILES": "N(=O)(=O)C=1OC(C=NNC(N)=O)=CC1", "physical_data": {"Molecular Weight": "198.14", "Molecular Formula": "C6H6N4O4", "Boiling Point": "236-240 \u00b0C", "Melting Point": "238 \u00b0C (decomp)"}}