{"cas_no": "59-89-2", "cn_name": "N-\u4e9a\u785d\u57fa\u5417\u5549", "en_name": ["Nitrosomorpholine", "Morpholine, 4-nitroso-", "4-Nitrosomorpholine", "N-Nitrosomorpholine", "Nitrosomorpholine", "NSC 139"], "SMILES": "N(=O)N1CCOCC1", "physical_data": {"Molecular Weight": "116.12", "Molecular Formula": "C4H8N2O2", "Boiling Point": "224-224.5 \u00b0C @ Press: 747 Torr", "Melting Point": "29 \u00b0C"}}