{"cas_no": "59-88-1", "cn_name": "\u76d0\u9178\u82ef\u80bc", "en_name": ["Phenylhydrazine hydrochloride", "Hydrazine, phenyl-, hydrochloride (1:1)", "Hydrazine, phenyl-, monohydrochloride", "Phenylhydrazine monohydrochloride", "Phenylhydrazinium chloride", "Phenylhydrazine hydrochloride", "N-Phenylhydrazine hydrochloride", "2-Phenylhydrazinium chloride"], "SMILES": "N(N)C1=CC=CC=C1.Cl", "physical_data": {"Molecular Weight": "", "Molecular Formula": "C6H8N2.ClH", "Melting Point": "245 \u00b0C (decomp)"}}