{"cas_no": "59-85-8", "cn_name": "\u5bf9\u6c2f\u6c5e\u82ef\u7532\u9178", "en_name": ["p-(Chloromercuri)benzoic acid", "Mercurate(1-), (4-carboxylatophenyl)chloro-, hydrogen", "Mercury, (p-carboxyphenyl)chloro-", "p-Chlormercuribenzoic acid", "p-Carboxyphenylmercuric chloride", "p-Chloromercuric benzoic acid", "4-(Chloromercuri)benzoic acid", "p-(Chloromercuri)benzoic acid", "(4-Carboxyphenyl)chloromercury", "4-Carboxyphenylmercuric chloride", "PCMB", "NSC 32866", "Mercurate(1-), (4-carboxylatophenyl)chloro-, hydrogen (1:1)"], "SMILES": "C([O-])(=O)C=1C=C[C-]([Hg+2][Cl-])=CC1.[H+]", "physical_data": {"Molecular Weight": "", "Molecular Formula": "C7H4ClHgO2.H", "Melting Point": "273 \u00b0C"}}