{"cas_no": "59-92-7", "cn_name": "\u5de6\u65cb\u591a\u5df4", "en_name": ["DOPA", "L-Tyrosine, 3-hydroxy-", "Alanine, 3-(3,4-dihydroxyphenyl)-, L-", "3-Hydroxy-L-tyrosine", "DA", "(-)-3,4-Dihydroxyphenylalanine", "Levodopa", "L-3,4-Dihydroxyphenylalanine", "3,4-Dihydroxy-L-phenylalanine", "L-DOPA", "DOPA", "L-\u03b2-(3,4-Dihydroxyphenyl)-\u03b1-alanine", "L-(-)-Dopa", "\u03b2-(3,4-Dihydroxyphenyl)-\u03b1-L-alanine", "(-)-Dopa", "3-(3,4-Dihydroxyphenyl)-L-alanine", "\u03b2-(3,4-Dihydroxyphenyl)alanine", "\u03b2-(3,4-Dihydroxyphenyl)-L-alanine", "Dihydroxy-L-phenylalanine", "Dopar", "Levopa", "Eldopal", "Pardopa", "Helfo-dopa", "Insulamina", "Larodopa", "Dopalina", "Dopaston", "Dopaflex", "3,4-Dihydroxyphenylalanine", "3,4-Dihydroxyphenyl-L-alanine", "L-3-(3,4-Dihydroxyphenyl)alanine", "Dopaston SE", "L-4,5-Dihydroxyphenylalanine", "Dopicar", "Dopastone", "Dopal", "Doparkine", "Eurodopa", "Dopaidan", "Eldopatec", "Parda", "Eldopar", "Dopasol", "Laradopa", "Weldopa", "Doparl", "Dopastral", "Veldopa", "Doprin", "Ledopa", "Deadopa", "Maipedopa", "Bendopa", "Cidandopa", "(2S)-2-Amino-3-(3,4-dihydroxyphenyl)propanoic acid", "Syndopa", "Alphadopa", "Dihydroxyphenylalanine", "(S)-3,4-Dihydroxyphenylalanine", "3-Hydroxytyrosine", "Brocadopa", "(2S)-2-Amino-3-(3,4-dihydroxyphenyl)propanoic acid", "Inbrija"], "SMILES": "C(C(C(O)=O)N)C1=CC(O)=C(O)C=C1", "physical_data": {"Molecular Weight": "197.19", "Molecular Formula": "C9H11NO4", "Melting Point": "284-286 \u00b0C", "Density": "1.51 g/cm\u00b3"}}