{"cas_no": "59-98-3", "cn_name": "\u6258\u62c9\u4f50\u6797", "en_name": ["Tolazoline", "1H-Imidazole, 4,5-dihydro-2-(phenylmethyl)-", "2-Imidazoline, 2-benzyl-", "Imidazoline, 2-benzyl-", "4,5-Dihydro-2-(phenylmethyl)-1H-imidazole", "Artonil", "Benzazoline", "Benzidazol", "2-Benzyl-4,5-imidazoline", "2-Benzyl-2-imidazoline", "Divascol", "Imidalin", "Kasimid", "Lambril", "Olitensol", "Peripherine", "Phenylmethylimidazoline", "Prefaxil", "Priscol", "Priscoline", "Tolazoline", "Vasimid", "Vasodil", "Benzylimidazoline", "2-Benzylimidazoline", "Benzolin (vasodilator)", "Benzolin", "Dilatol ASI", "Tolazolin", "Imidaline", "2-Benzyl-4,5-dihydro-1H-imidazole", "NSC 35110", "MeSH ID: D014043"], "SMILES": "C(C1=CC=CC=C1)C=2NCCN2", "physical_data": {"Molecular Weight": "160.22", "Molecular Formula": "C10H12N2", "Boiling Point": "147 \u00b0C @ Press: 9 Torr", "Melting Point": "174 \u00b0C"}}