{"cas_no": "59-97-2", "cn_name": "\u82ef\u7532\u5511\u5549\u76d0\u9178\u76d0", "en_name": ["Tolazoline hydrochloride", "1H-Imidazole, 4,5-dihydro-2-(phenylmethyl)-, hydrochloride (1:1)", "2-Imidazoline, 2-benzyl-, monohydrochloride", "1H-Imidazole, 4,5-dihydro-2-(phenylmethyl)-, monohydrochloride", "Arterodyl", "Benzazoline hydrochloride", "Imidaline hydrochloride", "Priscoline hydrochloride", "Tolavad", "Tolazoline chloride", "Tolazoline hydrochloride", "Tolpal", "2-Benzyl-4,5-dihydroimidazole hydrochloride", "2-Benzyl-2-imidazoline hydrochloride", "2-Benzylimidazoline hydrochloride", "Totazoline", "Lambral", "Vaso-Dilatan", "2-Benzyl-4,5-dihydro-1H-imidazole hydrochloride"], "SMILES": "C(C1=CC=CC=C1)C=2NCCN2.Cl", "physical_data": {"Molecular Weight": "", "Molecular Formula": "C10H12N2.ClH", "Melting Point": "174 \u00b0C"}}