{"cas_no": "590-90-9", "cn_name": "4-\u7f9f\u57fa-2-\u4e01\u916e", "en_name": ["4-Hydroxy-2-butanone", "2-Butanone, 4-hydroxy-", "4-Hydroxy-2-butanone", "4-Butanol-2-one", "Methylolacetone", "3-Ketobutan-1-ol", "3-Oxo-1-butanol", "Monomethylolacetone", "3-Oxobutanol", "3-Ketobutanol", "1-Hydroxybutan-3-one", "2-Hydroxyethyl methyl ketone", "NSC 41219"], "SMILES": "C(C(C)=O)CO", "physical_data": {"Molecular Weight": "88.11", "Molecular Formula": "C4H8O2", "Boiling Point": "90-92 \u00b0C @ Press: 11 Torr", "Density": "1.1089 g/cm\u00b3 @ Temp: 24 \u00b0C"}}