{"cas_no": "590-02-3", "cn_name": "\u6c2f\u4e59\u9178\u6b63\u4e01\u916f", "en_name": ["Butyl chloroacetate", "Acetic acid, 2-chloro-, butyl ester", "Acetic acid, chloro-, butyl ester", "n-Butyl chloroacetate", "Butyl chloroacetate", "Chloroacetic acid n-butyl ester", "NSC 1212", "Butyl monochloroacetate", "Chloroacetic acid butyl ester"], "SMILES": "C(OCCCC)(CCl)=O", "physical_data": {"Molecular Weight": "150.60", "Molecular Formula": "C6H11ClO2", "Boiling Point": "183 \u00b0C", "Density": "1.0704 g/cm\u00b3 @ Temp: 20 \u00b0C"}}