{"cas_no": "590-36-3", "cn_name": "2-\u7532\u57fa-2-\u620a\u9187", "en_name": ["2-Methyl-2-pentanol", "2-Pentanol, 2-methyl-", "2-Methyl-2-pentanol", "2-Hydroxy-2-methylpentane", "1,1-Dimethylbutanol", "2-Methyl-2-hydroxypentane", "1,1-Dimethyl-1-butanol", "2-Methyl-2-amyl alcohol", "NSC 8686", "4-Hydroxy-4-methylpentane", "4-Methyl-4-pentanol"], "SMILES": "C(C(C)(C)O)CC", "physical_data": {"Molecular Weight": "102.17", "Molecular Formula": "C6H14O", "Boiling Point": "121.1 \u00b0C", "Melting Point": "-103 \u00b0C", "Density": "0.8350 g/cm\u00b3 @ Temp: 15.5 \u00b0C"}}