{"cas_no": "590-19-2", "cn_name": "1,2-\u4e01\u4e8c\u70ef", "en_name": ["1,2-Butadiene", "1,2-Butadiene", "Allene, methyl-", "Methylallene", "1-Methylallene", "Butadiene-1,2"], "SMILES": "C(=C=C)C", "physical_data": {"Molecular Weight": "54.09", "Molecular Formula": "C4H6", "Boiling Point": "10.9 \u00b0C", "Melting Point": "-136.2 \u00b0C", "Density": "0.676 g/cm\u00b3 @ Temp: 0 \u00b0C"}}