{"cas_no": "590-63-6", "cn_name": "\u6c2f\u8d1d\u80c6\u78b1", "en_name": ["Bethanechol chloride", "1-Propanaminium, 2-[(aminocarbonyl)oxy]-N,N,N-trimethyl-, chloride (1:1)", "(2-Hydroxypropyl)trimethylammonium chloride carbamate", "Ammonium, (2-hydroxypropyl)trimethyl-, chloride, carbamate", "1-Propanaminium, 2-[(aminocarbonyl)oxy]-N,N,N-trimethyl-, chloride", "Bethanechol chloride", "Carbamylmethylcholine chloride", "Mechothane", "\u03b2-Methylcholine chloride urethan", "Urecholine", "Urecholine chloride", "Mechotane", "Myocholine", "Mictone", "Myotonine chloride", "Uro-Carb", "\u03b2-Methyl carbachol chloride", "Trimethyl(2-carbamoyloxypropyl)ammonium chloride", "Mecothane", "Besacholine", "(\u00b1)-Bethanechol", "Myotonachol", "NSC 30783", "1-(Trimethylazaniumyl)propan-2-yl carbamate chloride"], "SMILES": "C([N+](C)(C)C)C(OC(N)=O)C.[Cl-]", "physical_data": {"Molecular Weight": "", "Molecular Formula": "C7H17N2O2.Cl", "Melting Point": "218-219 \u00b0C (decomp)"}}