{"cas_no": "590-14-7", "cn_name": "1-\u6eb4\u57fa-1-\u4e19\u70ef", "en_name": ["1-Bromo-1-propene", "1-Propene, 1-bromo-", "Propene, 1-bromo-", "1-Bromo-1-propene", "Propenyl bromide", "1-Bromopropene", "1-Propenyl bromide", "1-Bromopropylene", "3-Allyl bromide"], "SMILES": "C(=CC)Br", "physical_data": {"Molecular Weight": "120.98", "Molecular Formula": "C3H5Br", "Boiling Point": "58-60 \u00b0C", "Density": "1.4181 g/cm\u00b3 @ Temp: 20 \u00b0C"}}