{"cas_no": "590-66-9", "cn_name": "1,1-\u4e8c\u7532\u57fa\u73af\u5df1\u70f7", "en_name": ["1,1-Dimethylcyclohexane", "Cyclohexane, 1,1-dimethyl-", "1,1-Dimethylcyclohexane", "gem-Dimethylcyclohexane", "NSC 74156"], "SMILES": "CC1(C)CCCCC1", "physical_data": {"Molecular Weight": "112.21", "Molecular Formula": "C8H16", "Boiling Point": "119.6 \u00b0C", "Melting Point": "-33.3 \u00b0C", "Density": "0.783 g/cm\u00b3 @ Temp: 15 \u00b0C"}}