{"cas_no": "590-01-2", "cn_name": "\u4e19\u9178\u4e01\u916f", "en_name": ["Butyl propionate", "Propanoic acid, butyl ester", "Propionic acid, butyl ester", "Butyl propionate", "n-Butyl propionate", "Butyl propanoate", "n-Butyl propanoate", "NSC 8449"], "SMILES": "C(OCCCC)(CC)=O", "physical_data": {"Molecular Weight": "130.18", "Molecular Formula": "C7H14O2", "Boiling Point": "146 \u00b0C", "Melting Point": "-90 \u00b0C", "Density": "0.9 g/cm\u00b3"}}