{"cas_no": "590-73-8", "cn_name": "2,2-\u4e8c\u7532\u57fa\u5df1\u70f7", "en_name": ["2,2-Dimethylhexane", "Hexane, 2,2-dimethyl-", "2,2-Dimethylhexane", "NSC 174065"], "SMILES": "C(C(C)(C)C)CCC", "physical_data": {"Molecular Weight": "114.23", "Molecular Formula": "C8H18", "Boiling Point": "106.8 \u00b0C", "Melting Point": "-121.1 \u00b0C", "Density": "0.6967 g/cm\u00b3 @ Temp: 20 \u00b0C"}}