{"cas_no": "590-46-5", "cn_name": "\u76d0\u9178\u751c\u83dc\u78b1", "en_name": ["Betaine chloride", "Methanaminium, 1-carboxy-N,N,N-trimethyl-, chloride (1:1)", "Betaine, hydrochloride", "Methanaminium, 1-carboxy-N,N,N-trimethyl-, chloride", "Pluchine", "Acidine", "Acidol", "Acidol hydrochloride", "Betaine chloride", "Acidin", "Glycocoll betaine hydrochloride", "Achylin", "Acidogeno", "Acinorm", "Acipepsol", "Aciventral forte", "(Carboxymethyl)trimethylammonium chloride", "Glycine betaine hydrochloride", "Rubrine C hydrochloride", "1-Carboxy-N,N,N-trimethylmethanaminium chloride", "Trimethylglycine hydrochloride", "Trimethylglycine hydrochloride salt"], "SMILES": "C([N+](C)(C)C)C(O)=O.[Cl-]", "physical_data": {"Molecular Weight": "", "Molecular Formula": "C5H12NO2.Cl", "Melting Point": "241-242 \u00b0C"}}