{"cas_no": "590-35-2", "cn_name": "2,2-\u4e8c\u7532\u57fa\u620a\u70f7", "en_name": ["2,2-Dimethylpentane", "Pentane, 2,2-dimethyl-", "2,2-Dimethylpentane"], "SMILES": "C(C(C)(C)C)CC", "physical_data": {"Molecular Weight": "100.20", "Molecular Formula": "C7H16", "Boiling Point": "79.2 \u00b0C", "Melting Point": "-123.8 \u00b0C", "Density": "0.6738 g/cm\u00b3 @ Temp: 20 \u00b0C"}}