{"cas_no": "590-93-2", "cn_name": "2-\u4e01\u7094\u9178", "en_name": ["2-Butynoic acid", "2-Butynoic acid", "Tetrolic acid", "3-Methylpropiolic acid", "1-Propynecarboxylic acid", "Methylpropynoic acid", "Methylacetylenecarboxylic acid", "NSC 174116", "Methylpropiolic acid"], "SMILES": "C(C(O)=O)#CC", "physical_data": {"Molecular Weight": "84.07", "Molecular Formula": "C4H4O2", "Boiling Point": "203 \u00b0C", "Melting Point": "78 \u00b0C"}}