{"cas_no": "590-67-0", "cn_name": "1-\u7532\u57fa\u73af\u5df1\u9187", "en_name": ["1-Methylcyclohexanol", "Cyclohexanol, 1-methyl-", "1-Methylcyclohexanol", "1-Methyl-1-cyclohexanol", "1-Hydroxy-1-methylcyclohexane", "1-Methylcyclohexyl alcohol", "NSC 1247"], "SMILES": "CC1(O)CCCCC1", "physical_data": {"Molecular Weight": "114.19", "Molecular Formula": "C7H14O", "Boiling Point": "155 \u00b0C", "Melting Point": "25 \u00b0C", "Density": "0.92 g/cm\u00b3"}}