{"cas_no": "590-50-1", "cn_name": "4,4-\u4e8c\u7532\u57fa-2-\u620a\u916e", "en_name": ["4,4-Dimethyl-2-pentanone", "2-Pentanone, 4,4-dimethyl-", "4,4-Dimethyl-2-pentanone", "Methyl neopentyl ketone", "Methyl neoamyl ketone", "Neopentyl methyl ketone", "NSC 944"], "SMILES": "C(C(C)(C)C)C(C)=O", "physical_data": {"Molecular Weight": "114.19", "Molecular Formula": "C7H14O", "Boiling Point": "126 \u00b0C", "Melting Point": "-64 \u00b0C", "Density": "0.8080 g/cm\u00b3 @ Temp: 20 \u00b0C"}}