{"cas_no": "590-29-4", "cn_name": "\u7532\u9178\u94be", "en_name": ["Potassium formate", "Formic acid, potassium salt (1:1)", "Potassium formate", "Formic acid, potassium salt", "EcoForm PF 75", "Meltium", "FP 40", "Desmorapid 30HB14", "Dabco TMR 25"], "SMILES": "C(O)=O.[K]", "physical_data": {"Molecular Weight": "", "Molecular Formula": "CH2O2.K", "Melting Point": "167 \u00b0C", "Density": "1.91 g/cm\u00b3"}}