{"cas_no": "590-86-3", "cn_name": "\u5f02\u620a\u919b", "en_name": ["3-Methylbutanal", "Butanal, 3-methyl-", "Isovaleraldehyde", "Butyraldehyde, 3-methyl-", "3-Methylbutanal", "Isopentanal", "Isovaleral", "Isovaleric aldehyde", "\u03b2-Methylbutanal", "3-Methylbutyraldehyde", "Isoamylaldehyde", "iso-Valeraldehyde", "3-Methyl-1-butanal", "NSC 404119"], "SMILES": "C(C(C)C)C=O", "physical_data": {"Molecular Weight": "86.13", "Molecular Formula": "C5H10O", "Boiling Point": "92.5 \u00b0C @ Press: 760 Torr", "Melting Point": "-51 \u00b0C", "Density": "0.7977 g/cm\u00b3 @ Temp: 20 \u00b0C"}}