{"cas_no": "590-21-6", "cn_name": "1-\u6c2f-1-\u4e19\u70ef", "en_name": ["1-Chloro-1-propene", "1-Propene, 1-chloro-", "Propene, 1-chloro-", "1-Chloro-1-propene", "1-Chloropropene", "Propenyl chloride", "1-Chloropropylene", "NSC 6155"], "SMILES": "C(=CCl)C", "physical_data": {"Molecular Weight": "76.52", "Molecular Formula": "C3H5Cl", "Boiling Point": "35-36 \u00b0C"}}