{"cas_no": "590-18-1", "cn_name": "\u987a-2-\u4e01\u70ef", "en_name": ["cis-2-Butene", "2-Butene, (2Z)-", "2-Butene, (Z)-", "(2Z)-2-Butene", "cis-2-Butylene", "cis-1,2-Dimethylethylene", "cis-2-Butene", "(Z)-2-Butene", "\u03b2-cis-Butylene", "cis-Butene", "Z-Butene"], "SMILES": "C(=CC)C", "physical_data": {"Molecular Weight": "56.11", "Molecular Formula": "C4H8", "Boiling Point": "3.7 \u00b0C", "Melting Point": "-138.9 \u00b0C", "Density": "0.616 g/cm\u00b3"}}