{"cas_no": "590-28-3", "cn_name": "\u6c30\u9178\u94be", "en_name": ["Potassium cyanate", "Cyanic acid, potassium salt (1:1)", "Cyanic acid, potassium salt", "Aero Cyanate", "Potassium cyanate", "Alicyanate", "Bulpur", "Isocyanic acid potassium salt", "Potassium isocyanate", "Potassium cyanate (KCNO)"], "SMILES": "C(#N)O.[K]", "physical_data": {"Molecular Weight": "", "Molecular Formula": "CHNO.K", "Melting Point": "315 \u00b0C", "Density": "2.056 g/cm\u00b3"}}