{"cas_no": "590-92-1", "cn_name": "3-\u6eb4\u4e19\u9178", "en_name": ["3-Bromopropionic acid", "Propanoic acid, 3-bromo-", "Propionic acid, 3-bromo-", "Propionic acid, \u03b2-bromo-", "3-Bromopropanoic acid", "\u03b2-Bromopropionic acid", "3-Bromopropionic acid", "2-Carboxyethyl bromide", "\u03b2-Bromopropanoic acid", "NSC 2638"], "SMILES": "C(C(O)=O)CBr", "physical_data": {"Molecular Weight": "152.97", "Molecular Formula": "C3H5BrO2", "Boiling Point": "140-142 \u00b0C @ Press: 45 Torr", "Melting Point": "62.5 \u00b0C", "Density": "1.48 g/cm\u00b3"}}