{"cas_no": "590-15-8", "cn_name": "\u53cd-1-\u6eb4-1-\u4e19\u70ef", "en_name": ["1-Propene, 1-bromo-, (1E)-", "1-Propene, 1-bromo-, (1E)-", "Propene, 1-bromo-, (E)-", "1-Propene, 1-bromo-, (E)-", "Propene, 1-bromo-, trans-", "trans-1-Bromopropene", "trans-1-Bromo-1-propene", "(E)-1-Bromo-1-propylene", "(E)-1-Bromo-1-propene", "(E)-1-Propenyl bromide", "(E)-1-Bromopropene", "1-Bromo-(1E)-propene", "(E)-1-Bromo-1-propene", "(E)-1-Bromoprop-1-ene"], "SMILES": "C(=CC)Br", "physical_data": {"Molecular Weight": "120.98", "Molecular Formula": "C3H5Br", "Boiling Point": "59-60 \u00b0C @ Press: 755 Torr", "Density": "1.4062 g/cm\u00b3 @ Temp: 25 \u00b0C"}}