{"cas_no": "590-17-0", "cn_name": "\u6eb4\u4e59\u8148", "en_name": ["Bromoacetonitrile", "Acetonitrile, 2-bromo-", "Acetonitrile, bromo-", "2-Bromoacetonitrile", "Bromoacetonitrile", "Bromomethyl cyanide", "Cyanomethyl bromide"], "SMILES": "C(C#N)Br", "physical_data": {"Molecular Weight": "119.95", "Molecular Formula": "C2H2BrN", "Boiling Point": "60-62 \u00b0C @ Press: 24 Torr"}}