{"cas_no": "590-97-6", "cn_name": "\u6eb4\u7532\u57fa\u4e59\u9178\u916f", "en_name": ["Bromomethyl acetate", "Methanol, 1-bromo-, 1-acetate", "Methanol, bromo-, acetate", "Bromomethyl acetate", "Acetoxymethyl bromide", "Acetyloxymethyl bromide"], "SMILES": "O(C(C)=O)CBr", "physical_data": {"Molecular Weight": "152.97", "Molecular Formula": "C3H5BrO2", "Boiling Point": "130-133 \u00b0C @ Press: 750 Torr", "Density": "1.635 g/cm\u00b3 @ Temp: 20 \u00b0C"}}