{"cas_no": "590-42-1", "cn_name": "\u53d4\u4e01\u57fa\u5f02\u786b\u9178\u916f", "en_name": ["tert-Butyl isothiocyanate", "Propane, 2-isothiocyanato-2-methyl-", "Isothiocyanic acid, tert-butyl ester", "2-Isothiocyanato-2-methylpropane", "tert-Butyl isothiocyanate", "1,1-Dimethylethyl isothiocyanate"], "SMILES": "N(C(C)(C)C)=C=S", "physical_data": {"Molecular Weight": "115.20", "Molecular Formula": "C5H9NS", "Boiling Point": "140 \u00b0C", "Melting Point": "10.5 \u00b0C"}}