{"cas_no": "59004-18-1", "cn_name": "\u4e59\u9170\u6c27\u57fa\u4e19\u57fa\u4e09\u7532\u6c27\u57fa\u7845\u70f7", "en_name": ["1-Propanol, 3-(trimethoxysilyl)-, 1-acetate", "1-Propanol, 3-(trimethoxysilyl)-, 1-acetate", "1-Propanol, 3-(trimethoxysilyl)-, acetate", "Acetoxypropyltrimethoxysilane", "3-Acetoxypropyltrimethoxysilane", "3-Trimethoxysilylpropyl acetate", "SIA 0100.0", "SCA-R 75M"], "SMILES": "[Si](CCCOC(C)=O)(OC)(OC)OC", "physical_data": {"Molecular Weight": "222.31", "Molecular Formula": "C8H18O5Si", "Boiling Point": "92 \u00b0C @ Press: 2 Torr", "Density": "1.062 g/cm\u00b3"}}