{"cas_no": "5900-58-3", "cn_name": "\u7532\u57fa2-\u80fa-4-\u6c2f\u82ef\u915a\u916f", "en_name": ["Methyl 2-amino-4-chlorobenzoate", "Benzoic acid, 2-amino-4-chloro-, methyl ester", "Anthranilic acid, 4-chloro-, methyl ester", "Methyl 4-chloroanthranilate", "Methyl 2-amino-4-chlorobenzoate", "4-Chloroanthranilic acid methyl ester", "2-Methoxycarbonyl-5-chloroaniline", "2-Amino-4-chlorobenzoic acid methyl ester", "NSC 400871", "Methyl 4-chloro-2-aminobenzoate"], "SMILES": "C(OC)(=O)C1=C(N)C=C(Cl)C=C1", "physical_data": {"Molecular Weight": "185.61", "Molecular Formula": "C8H8ClNO2", "Melting Point": "65-66 \u00b0C"}}