{"cas_no": "5900-55-0", "cn_name": "N-(5-\u6c2f-2-\u7532\u57fa\u82ef\u57fa)\u4e59\u9170\u80fa", "en_name": ["N-(5-Chloro-2-methylphenyl)acetamide", "Acetamide, N-(5-chloro-2-methylphenyl)-", "o-Acetotoluidide, 5\u2032-chloro-", "N-(5-Chloro-2-methylphenyl)acetamide", "5-Chloro-o-acetotoluidide", "5\u2032-Chloro-2\u2032-methylacetanilide", "2-Acetamido-4-chlorotoluene", "NSC 404301", "2-Acetamino-4-chlorotoluene"], "SMILES": "N(C(C)=O)C1=C(C)C=CC(Cl)=C1", "physical_data": {"Molecular Weight": "183.63", "Molecular Formula": "C9H10ClNO", "Melting Point": "129-130 \u00b0C"}}