{"cas_no": "5900-59-4", "cn_name": "2-\u6c28\u57fa-4-\u6c2f\u82ef\u7532\u9170\u80fa", "en_name": ["2-Amino-4-chlorobenzamide", "Benzamide, 2-amino-4-chloro-", "2-Amino-4-chlorobenzamide", "4-Chloroanthranilamide"], "SMILES": "C(N)(=O)C1=C(N)C=C(Cl)C=C1", "physical_data": {"Molecular Weight": "170.60", "Molecular Formula": "C7H7ClN2O", "Melting Point": "181.5 \u00b0C"}}