{"cas_no": "5902-51-2", "cn_name": "\u7279\u8349\u5b9a", "en_name": ["Terbacil", "2,4(1H,3H)-Pyrimidinedione, 5-chloro-3-(1,1-dimethylethyl)-6-methyl-", "Uracil, 3-tert-butyl-5-chloro-6-methyl-", "5-Chloro-3-(1,1-dimethylethyl)-6-methyl-2,4(1H,3H)-pyrimidinedione", "3-tert-Butyl-5-chloro-6-methyluracil", "5-Chloro-3-tert-butyl-6-methyluracil", "Experimental Herbicide 732", "Terbacil", "Du Pont 732", "Sinbar", "Geonter", "Terbacil 80WP", "3-tert-Butyl-5-chloro-6-methyl-1H-pyrimidine-2,4-dione"], "SMILES": "C(C)(C)(C)N1C(=O)C(Cl)=C(C)NC1=O", "physical_data": {"Molecular Weight": "216.66", "Molecular Formula": "C9H13ClN2O2", "Melting Point": "175-177 \u00b0C", "Density": "1.34 g/cm\u00b3 @ Temp: 25 \u00b0C"}}