{"cas_no": "590371-73-6", "cn_name": "4-\u7898-2-(\u4e09\u6c1f\u7532\u57fa)\u5421\u5576", "en_name": ["4-Iodo-2-(trifluoromethyl)pyridine", "Pyridine, 4-iodo-2-(trifluoromethyl)-", "4-Iodo-2-(trifluoromethyl)pyridine"], "SMILES": "C(F)(F)(F)C1=CC(I)=CC=N1", "physical_data": {"Molecular Weight": "272.99", "Molecular Formula": "C6H3F3IN", "Melting Point": "24-26 \u00b0C"}}