{"cas_no": "590372-17-1", "cn_name": "2-\u6eb4-4-\u4e09\u6c1f\u7532\u57fa\u55b9\u5549", "en_name": ["2-Bromo-4-(trifluoromethyl)quinoline", "Quinoline, 2-bromo-4-(trifluoromethyl)-", "2-Bromo-4-(trifluoromethyl)quinoline"], "SMILES": "C(F)(F)(F)C=1C2=C(N=C(Br)C1)C=CC=C2", "physical_data": {"Molecular Weight": "276.05", "Molecular Formula": "C10H5BrF3N", "Melting Point": "56-57 \u00b0C"}}