{"cas_no": "5906-99-0", "cn_name": "2-\u785d\u57fa\u82ef\u78fa\u9170\u80bc", "en_name": ["Benzenesulfonic acid, 2-nitro-, hydrazide", "Benzenesulfonic acid, 2-nitro-, hydrazide", "Benzenesulfonic acid, o-nitro-, hydrazide", "o-Nitrophenylsulfonylhydrazine", "2-Nitrobenzenesulfonylhydrazide", "o-Nitrobenzenesulfonyl hydrazide", "o-Nitrobenzenesulfonylhydrazine", "2-Nitrobenzenesulfonic acid hydrazide", "2-Nitrobenzenesulfonohydrazine", "2-Nitrobenzenesulfonohydrazide", "2-Nitrobenzene-1-sulfonohydrazide"], "SMILES": "S(NN)(=O)(=O)C1=C(N(=O)=O)C=CC=C1", "physical_data": {"Molecular Weight": "217.20", "Molecular Formula": "C6H7N3O4S", "Melting Point": "101 \u00b0C (decomp)"}}