{"cas_no": "5906-35-4", "cn_name": "1-\u6c28\u57fa\u9ad8\u54cc\u5576", "en_name": ["1-Aminohomopiperidine", "1H-Azepin-1-amine, hexahydro-", "1H-Azepine, 1-aminohexahydro-", "Hexahydro-1H-azepin-1-amine", "N-Aminohomopiperidine", "N-Aminohexamethylenimine", "1-Aminoperhydroazepine", "1-Aminohexahydro-1H-azepine", "1-Aminohexamethyleneimine", "1,1-Hexamethylenehydrazine", "1-Aminohexahydroazepine", "N-Aminohexamethyleneimine", "1-Aminohomopiperidine", "N-Aminoazacycloheptane", "N-Aminohexahydroazepine", "NSC 221198", "NSC 82329", "N-Aminoperhydroazepine", "(Azepan-1-yl)amine", "1-Aminoazepane"], "SMILES": "NN1CCCCCC1", "physical_data": {"Molecular Weight": "114.19", "Molecular Formula": "C6H14N2", "Boiling Point": "94-96 \u00b0C @ Press: 55 Torr", "Melting Point": "86.0-86.5 \u00b0C"}}