{"cas_no": "59084-06-9", "cn_name": "1-(2-\u785d\u57fa\u82ef\u57fa)\u54cc\u55ea", "en_name": ["1-(2-Nitrophenyl)piperazine", "Piperazine, 1-(2-nitrophenyl)-", "Piperazine, 1-(o-nitrophenyl)-", "1-(2-Nitrophenyl)piperazine", "N-(2-Nitrophenyl)piperazine"], "SMILES": "N(=O)(=O)C1=C(C=CC=C1)N2CCNCC2", "physical_data": {"Molecular Weight": "207.23", "Molecular Formula": "C10H13N3O2", "Boiling Point": "120-126 \u00b0C @ Press: 0.1 Torr"}}