{"cas_no": "5908-87-2", "cn_name": "\u5c71\u5d5b\u9178\u4e59\u916f", "en_name": ["Ethyl docosanoate", "Docosanoic acid, ethyl ester", "Ethyl behenate", "Ethyl docosanoate", "Behenic acid ethyl ester"], "SMILES": "C(CCCCCCCCCCCCCCCCCC)CCC(OCC)=O", "physical_data": {"Molecular Weight": "368.64", "Molecular Formula": "C24H48O2", "Boiling Point": "240 \u00b0C", "Melting Point": "50 \u00b0C"}}