{"cas_no": "59084-16-1", "cn_name": "N-\u4e59\u9170\u57fa\u54cc\u5576-4-\u9170\u6c2f", "en_name": ["1-Acetyl-4-piperidinecarbonyl chloride", "4-Piperidinecarbonyl chloride, 1-acetyl-", "1-Acetyl-4-piperidinecarbonyl chloride", "1-Acetylisonipecotoyl chloride", "1-Acetyl-4-piperidylcarbonyl chloride", "N-Acetylisonipecotoyl chloride", "1-Acetylpiperidin-4-ylcarbonyl chloride"], "SMILES": "C(Cl)(=O)C1CCN(C(C)=O)CC1", "physical_data": {"Molecular Weight": "189.64", "Molecular Formula": "C8H12ClNO2", "Melting Point": "130-138 \u00b0C"}}