{"cas_no": "59080-45-4", "cn_name": "\u5df1\u57fa\u0392-D-\u5421\u5583\u8461\u8404\u7cd6\u82f7", "en_name": ["Hexyl \u03b2-D-glucopyranoside", "\u03b2-D-Glucopyranoside, hexyl", "Hexyl \u03b2-D-glucopyranoside", "Hexyl glucoside", "n-Hexyl-\u03b2-D-glucoside", "n-Hexyl \u03b2-D-glucopyranoside", "1-Hexyl \u03b2-D-glucoside", "APG 06", "Sucraph AG 6206", "Triton CG 6"], "SMILES": "O(CCCCCC)C1OC(CO)C(O)C(O)C1O", "physical_data": {"Molecular Weight": "264.32", "Molecular Formula": "C12H24O6", "Melting Point": "88-91 \u00b0C"}}