{"cas_no": "5909-24-0", "cn_name": "4-\u6c2f-2-\u7532\u786b\u57fa\u5627\u5576-5-\u7fa7\u9178\u4e59\u916f", "en_name": ["Ethyl 4-chloro-2-(methylthio)-5-pyrimidinecarboxylate", "5-Pyrimidinecarboxylic acid, 4-chloro-2-(methylthio)-, ethyl ester", "Ethyl 4-chloro-2-(methylthio)-5-pyrimidinecarboxylate", "4-Chloro-5-carbethoxy-2-methylthiopyrimidine", "4-Chloro-2-methanethiopyrimidine-5-carboxylic acid ethyl ester", "4-Chloro-2-methanesulfanylpyrimidine-5-carboxylic acid ethyl ester", "4-Chloro-5-ethoxycarbonyl-2-methylthiopyrimidine", "NSC 123534", "4-Chloro-2-methylsulfanylpyrimidine-5-carboxylic acid ethyl ester", "2-Methylthio-4-chloro-5-ethoxycarbonylpyrimidine", "Ethyl 4-chloro-2-methylsulfanyl-5-pyrimidinecarboxylate", "4-Chloro-2-(methylthio)-5-pyrimidinecarboxylic acid ethyl ester", "4-Chloro-2-methylthio-5-carbethoxypyrimidine", "4-Chloro-2-(methylthio)pyrimidin-5-carboxylic acid ethyl ester"], "SMILES": "C(OCC)(=O)C=1C(Cl)=NC(SC)=NC1", "physical_data": {"Molecular Weight": "232.69", "Molecular Formula": "C8H9ClN2O2S", "Boiling Point": "143 \u00b0C @ Press: 0.8 Torr", "Melting Point": "59-61 \u00b0C"}}