{"cas_no": "591-93-5", "cn_name": "1,4-\u620a\u4e8c\u70ef", "en_name": ["1,4-Pentadiene", "1,4-Pentadiene", "NSC 73902"], "SMILES": "C(C=C)C=C", "physical_data": {"Molecular Weight": "68.12", "Molecular Formula": "C5H8", "Boiling Point": "26 \u00b0C", "Melting Point": "-148.8 \u00b0C", "Density": "0.6594 g/cm\u00b3 @ Temp: 20 \u00b0C"}}