{"cas_no": "591-22-0", "cn_name": "3,5-\u4e8c\u7532\u57fa\u5421\u5576", "en_name": ["3,5-Dimethylpyridine", "Pyridine, 3,5-dimethyl-", "3,5-Lutidine", "3,5-Dimethylpyridine", "NSC 60736"], "SMILES": "CC=1C=C(C)C=NC1", "physical_data": {"Molecular Weight": "107.15", "Molecular Formula": "C7H9N", "Boiling Point": "172 \u00b0C", "Melting Point": "-6.6 \u00b0C", "Density": "0.9385 g/cm\u00b3 @ Temp: 25 \u00b0C"}}