{"cas_no": "591-51-5", "cn_name": "\u82ef\u57fa\u9502", "en_name": ["Phenyllithium", "Lithium, phenyl-", "Phenyllithium", "Lithium, diphenyldi-"], "SMILES": "[Li]C1=CC=CC=C1", "physical_data": {"Molecular Weight": "", "Molecular Formula": "C6H5Li", "Melting Point": "160-163 \u00b0C"}}