{"cas_no": "591-20-8", "cn_name": "\u95f4\u6eb4\u82ef\u915a", "en_name": ["3-Bromophenol", "Phenol, 3-bromo-", "Phenol, m-bromo-", "3-Bromophenol", "m-Bromophenol"], "SMILES": "BrC1=CC(O)=CC=C1", "physical_data": {"Molecular Weight": "173.01", "Molecular Formula": "C6H5BrO", "Boiling Point": "236.5 \u00b0C", "Melting Point": "33 \u00b0C"}}