{"cas_no": "591-60-6", "cn_name": "\u4e59\u9170\u4e59\u9178\u6b63\u4e01\u916f", "en_name": ["Butyl acetoacetate", "Butanoic acid, 3-oxo-, butyl ester", "Acetoacetic acid, butyl ester", "Butyl acetoacetate", "Butyl 3-oxobutanoate", "Butyl 3-oxobutyrate", "n-Butyl acetoacetate", "3-Oxobutanoic acid butyl ester", "NSC 97211"], "SMILES": "O(C(CC(C)=O)=O)CCCC", "physical_data": {"Molecular Weight": "158.20", "Molecular Formula": "C8H14O3", "Boiling Point": "90 \u00b0C @ Press: 11 Torr", "Melting Point": "-35.6 \u00b0C", "Density": "0.9761 g/cm\u00b3 @ Temp: 25 \u00b0C"}}