{"cas_no": "591-54-8", "cn_name": "4-\u6c28\u57fa\u5627\u5576", "en_name": ["4-Aminopyrimidine", "4-Pyrimidinamine", "Pyrimidine, 4-amino-", "4-Aminopyrimidine", "3,4-Dihydro-4-iminopyrimidine", "6-Aminopyrimidine", "NSC 401236", "Pyrimidin-4-ylamine"], "SMILES": "NC=1C=CN=CN1", "physical_data": {"Molecular Weight": "95.10", "Molecular Formula": "C4H5N3", "Melting Point": "155 \u00b0C"}}