{"cas_no": "591-82-2", "cn_name": "\u5f02\u786b\u6c30\u9178\u5f02\u4e01\u916f", "en_name": ["Isobutyl isothiocyanate", "Propane, 1-isothiocyanato-2-methyl-", "Isothiocyanic acid, isobutyl ester", "1-Isothiocyanato-2-methylpropane", "Isobutyl isothiocyanate", "2-Methyl-1-propyl isothiocyanate", "2-Methylpropyl isothiocyanate"], "SMILES": "C(C(C)C)N=C=S", "physical_data": {"Molecular Weight": "115.20", "Molecular Formula": "C5H9NS", "Boiling Point": "160 \u00b0C"}}