{"cas_no": "591-87-7", "cn_name": "\u4e59\u9178\u70ef\u4e19\u916f", "en_name": ["Allyl acetate", "Acetic acid, 2-propen-1-yl ester", "Acetic acid, allyl ester", "Acetic acid, 2-propenyl ester", "Allyl alcohol, acetate", "Allyl acetate", "3-Acetoxypropene", "3-Acetoxy-1-propene", "2-Propen-1-ol acetate", "NSC 7612"], "SMILES": "O(C(C)=O)CC=C", "physical_data": {"Molecular Weight": "100.12", "Molecular Formula": "C5H8O2", "Boiling Point": "103.5 \u00b0C", "Density": "0.9275 g/cm\u00b3 @ Temp: 20 \u00b0C"}}