{"cas_no": "591-24-2", "cn_name": "3-\u7532\u57fa\u73af\u5df1\u916e", "en_name": ["(RS)-3-Methylcyclohexanone", "Cyclohexanone, 3-methyl-", "3-Methylcyclohexanone", "3-Methyl-1-cyclohexanone", "(\u00b1)-3-Methylcyclohexanone", "(RS)-3-Methylcyclohexanone", "NSC 3709"], "SMILES": "CC1CC(=O)CCC1", "physical_data": {"Molecular Weight": "112.17", "Molecular Formula": "C7H12O", "Boiling Point": "169.5 \u00b0C", "Melting Point": "178 \u00b0C", "Density": "0.9406 g/cm\u00b3 @ Temp: 0 \u00b0C"}}