{"cas_no": "591-68-4", "cn_name": "\u620a\u9178\u4e01\u916f", "en_name": ["Butyl valerate", "Pentanoic acid, butyl ester", "Valeric acid, butyl ester", "Butyl valerate", "Butyl pentanoate", "n-Butyl valerate", "n-Butyl pentanoate"], "SMILES": "O(C(CCCC)=O)CCCC", "physical_data": {"Molecular Weight": "158.24", "Molecular Formula": "C9H18O2", "Boiling Point": "185.8 \u00b0C", "Melting Point": "-92.8 \u00b0C"}}