{"cas_no": "591-50-4", "cn_name": "\u7898\u82ef", "en_name": ["Iodobenzene", "Benzene, iodo-", "Iodobenzene", "Phenyl iodide", "Benzene iodide", "NSC 9244", "1-Iodobenzene", "4-Iodobenzene"], "SMILES": "IC1=CC=CC=C1", "physical_data": {"Molecular Weight": "204.01", "Molecular Formula": "C6H5I", "Boiling Point": "188.4 \u00b0C", "Melting Point": "-31.3 \u00b0C", "Density": "1.86059 g/cm\u00b3 @ Temp: 40 \u00b0C"}}