{"cas_no": "591-76-4", "cn_name": "2-\u7532\u57fa\u5df2\u70f7(\u5f02\u5e9a\u70f7)", "en_name": ["2-Methylhexane", "Hexane, 2-methyl-", "2-Methylhexane", "NSC 24840"], "SMILES": "C(C(C)C)CCC", "physical_data": {"Molecular Weight": "100.20", "Molecular Formula": "C7H16", "Boiling Point": "90 \u00b0C", "Melting Point": "-118 \u00b0C", "Density": "0.68 g/cm\u00b3"}}