{"cas_no": "591-97-9", "cn_name": "1-\u6c2f-2-\u4e01\u70ef", "en_name": ["Crotyl chloride", "2-Butene, 1-chloro-", "1-Chloro-2-butene", "\u03b1-Chloro-\u03b2-butylene", "Crotyl chloride", "\u03b3-Methallyl chloride", "\u03b3-Methylallyl chloride", "2-Butenyl chloride", "2-Buten-1-yl chloride"], "SMILES": "C(=CC)CCl", "physical_data": {"Molecular Weight": "90.55", "Molecular Formula": "C4H7Cl", "Boiling Point": "73 \u00b0C", "Density": "0.93764 g/cm\u00b3 @ Temp: 20 \u00b0C"}}