{"cas_no": "591-47-9", "cn_name": "4-\u7532\u57fa-1-\u73af\u5df1\u70ef", "en_name": ["4-Methylcyclohexene", "Cyclohexene, 4-methyl-", "4-Methylcyclohexene", "4-Methyl-1-cyclohexene", "NSC 9386"], "SMILES": "CC1CCC=CC1", "physical_data": {"Molecular Weight": "96.17", "Molecular Formula": "C7H12", "Boiling Point": "102.7 \u00b0C", "Melting Point": "-115.5 \u00b0C", "Density": "0.8001 g/cm\u00b3 @ Temp: 20 \u00b0C"}}