{"cas_no": "591-31-1", "cn_name": "3-\u7532\u6c27\u57fa\u82ef\u7532\u919b", "en_name": ["3-Methoxybenzaldehyde", "Benzaldehyde, 3-methoxy-", "m-Anisaldehyde", "Benzaldehyde, m-methoxy-", "3-Methoxybenzaldehyde", "m-Methoxybenzaldehyde", "NSC 43794", "3-Methoxyphenylcarboxaldehyde"], "SMILES": "C(=O)C1=CC(OC)=CC=C1", "physical_data": {"Molecular Weight": "136.15", "Molecular Formula": "C8H8O2", "Boiling Point": "231 \u00b0C", "Melting Point": "187 \u00b0C", "Density": "1.115 g/cm\u00b3 @ Temp: 22 \u00b0C"}}