{"cas_no": "591-19-5", "cn_name": "\u95f4\u6eb4\u82ef\u80fa", "en_name": ["3-Bromoaniline", "Benzenamine, 3-bromo-", "Aniline, m-bromo-", "3-Bromobenzenamine", "m-Aminobromobenzene", "m-Bromoaniline", "3-Bromoaniline", "1-Amino-3-bromobenzene", "3-Amino-1-bromobenzene", "m-Aminobromobenzene", "m-Bromoaniline", "(m-Bromophenyl)amine", "(3-Bromophenyl)amine", "NSC 10298"], "SMILES": "BrC1=CC(N)=CC=C1", "physical_data": {"Molecular Weight": "172.02", "Molecular Formula": "C6H6BrN", "Boiling Point": "251 \u00b0C", "Melting Point": "18.5 \u00b0C", "Density": "1.58 g/cm\u00b3"}}