{"cas_no": "591-48-0", "cn_name": "3-\u7532\u57fa-1-\u73af\u5df1\u70ef", "en_name": ["3-Methylcyclohexene", "Cyclohexene, 3-methyl-", "3-Methylcyclohexene", "3-Methyl-1-cyclohexene", "(\u00b1)-3-Methylcyclohexene", "1-Methylcyclohex-2-ene", "NSC 72091"], "SMILES": "CC1CCCC=C1", "physical_data": {"Molecular Weight": "96.17", "Molecular Formula": "C7H12", "Boiling Point": "103 \u00b0C", "Density": "0.8009 g/cm\u00b3 @ Temp: 20 \u00b0C"}}