{"cas_no": "591-64-0", "cn_name": "\u4e59\u9170\u4e19\u9178\u9499", "en_name": ["Calcium levulinate", "Pentanoic acid, 4-oxo-, calcium salt (2:1)", "Levulinic acid, calcium salt", "Pentanoic acid, 4-oxo-, calcium salt", "Calcium levulinate", "4-Oxopentanoic acid calcium salt", "Flanthin", "Laevucalcin", "Levucal", "Levulin calcio", "Mil-u-cal", "Calcium-Diasporal", "Calcium Pharmacon"], "SMILES": "C(CC(O)=O)C(C)=O.[Ca]", "physical_data": {"Molecular Weight": "", "Molecular Formula": "C5H8O3.<sup>1</sup>/2Ca", "Melting Point": "125 \u00b0C"}}