{"cas_no": "591-49-1", "cn_name": "1-\u7532\u57fa-1-\u73af\u5df1\u70ef", "en_name": ["1-Methylcyclohexene", "Cyclohexene, 1-methyl-", "1-Methylcyclohexene", "\u03b1-Methylcyclohexene", "2-Methylcyclohexene", "NSC 66539"], "SMILES": "CC=1CCCCC1", "physical_data": {"Molecular Weight": "96.17", "Molecular Formula": "C7H12", "Boiling Point": "110.3 \u00b0C", "Melting Point": "-120.4 \u00b0C", "Density": "0.8063 g/cm\u00b3 @ Temp: 18 \u00b0C"}}