{"cas_no": "591-35-5", "cn_name": "3,5-\u4e8c\u6c2f\u82ef\u915a", "en_name": ["3,5-Dichlorophenol", "Phenol, 3,5-dichloro-", "3,5-Dichlorophenol", "NSC 60649"], "SMILES": "ClC1=CC(Cl)=CC(O)=C1", "physical_data": {"Molecular Weight": "163.00", "Molecular Formula": "C6H4Cl2O", "Boiling Point": "233 \u00b0C @ Press: 757 Torr", "Melting Point": "68 \u00b0C"}}