{"cas_no": "591-17-3", "cn_name": "3-\u6eb4\u7532\u57fa\u82ef", "en_name": ["3-Bromotoluene", "Benzene, 1-bromo-3-methyl-", "Toluene, m-bromo-", "1-Bromo-3-methylbenzene", "3-Bromo-1-methylbenzene", "m-Bromotoluene", "3-Bromotoluene", "m-Tolyl bromide", "m-Methylbromobenzene", "3-Methylbromobenzene", "3-Methyl-1-bromobenzene", "5-Bromotoluene", "3-Methylphenyl bromide", "m-Methylphenyl bromide", "3-Tolyl bromide", "m-Bromomethylbenzene"], "SMILES": "BrC1=CC(C)=CC=C1", "physical_data": {"Molecular Weight": "171.03", "Molecular Formula": "C7H7Br", "Boiling Point": "183.7 \u00b0C @ Press: 760 Torr", "Melting Point": "-39.8 \u00b0C", "Density": "1.4099 g/cm\u00b3 @ Temp: 20 \u00b0C"}}