{"cas_no": "591-27-5", "cn_name": "3-\u6c28\u57fa\u82ef\u915a", "en_name": ["3-Aminophenol", "Phenol, 3-amino-", "Phenol, m-amino-", "3-Aminophenol", "C.I. 76545", "m-Aminophenol", "C.I. Oxidation Base 7", "Fouramine EG", "Fourrine 65", "Fourrine EG", "Furro EG", "Futramine EG", "Nako TEG", "Pelagol EG", "Renal EG", "Tertral EG", "Ursol EG", "Zoba EG", "m-Hydroxyaniline", "1-Amino-3-hydroxybenzene", "m-Hydroxyphenylamine", "3-Hydroxyaniline", "m-Hydroxyaminobenzene", "3-Hydroxybenzenamine", "m-Hydroxyaniline", "Rodol EG", "(3-Hydroxyphenyl)amine", "NSC 1546"], "SMILES": "NC1=CC(O)=CC=C1", "physical_data": {"Molecular Weight": "109.13", "Molecular Formula": "C6H7NO", "Boiling Point": "164 \u00b0C @ Press: 11 Torr", "Melting Point": "122-123 \u00b0C", "Density": "1.195 g/cm\u00b3"}}