{"cas_no": "591-21-9", "cn_name": "1,3-\u4e8c\u7532\u57fa\u73af\u5df1\u70f7(\u987a\u53cd\u6df7\u5408)", "en_name": ["1,3-Dimethylcyclohexane", "Cyclohexane, 1,3-dimethyl-", "1,3-Dimethylcyclohexane", "m-Dimethylcyclohexane"], "SMILES": "CC1CC(C)CCC1", "physical_data": {"Molecular Weight": "112.21", "Molecular Formula": "C8H16", "Boiling Point": "122.5 \u00b0C", "Density": "0.7707 g/cm\u00b3 @ Temp: 20.75 \u00b0C"}}