{"cas_no": "591-07-1", "cn_name": "\u4e59\u9170\u8132", "en_name": ["Acetylurea", "Acetamide, N-(aminocarbonyl)-", "Urea, acetyl-", "N-(Aminocarbonyl)acetamide", "Acetylurea", "Acetylcarbamide", "Monoacetylurea", "1-Acetylurea", "N-Acetylurea", "Acetic acid, ureide", "NSC 2766"], "SMILES": "N(C(C)=O)C(N)=O", "physical_data": {"Molecular Weight": "102.09", "Molecular Formula": "C3H6N2O2", "Melting Point": "218 \u00b0C"}}