{"cas_no": "591-55-9", "cn_name": "5-\u6c28\u57fa\u5627\u5576", "en_name": ["5-Pyrimidinamine", "5-Pyrimidinamine", "Pyrimidine, 5-amino-", "5-Aminopyrimidine", "5-Aminopyridine", "NSC 401237", "Pyrimidin-5-ylamine"], "SMILES": "NC=1C=NC=NC1", "physical_data": {"Molecular Weight": "95.10", "Molecular Formula": "C4H5N3", "Melting Point": "170-171 \u00b0C"}}