{"cas_no": "591-95-7", "cn_name": "1,2-\u620a\u4e8c\u70ef", "en_name": ["1,2-Pentadiene", "1,2-Pentadiene", "1-Methyl-2,3-butadiene", "Ethylallene"], "SMILES": "C(CC)=C=C", "physical_data": {"Molecular Weight": "68.12", "Molecular Formula": "C5H8", "Boiling Point": "44.9 \u00b0C", "Melting Point": "-137.3 \u00b0C", "Density": "0.689 g/cm\u00b3 @ Temp: 20 \u00b0C"}}