{"cas_no": "591-08-2", "cn_name": "N-\u4e59\u9170\u786b\u8132", "en_name": ["Acetylthiourea", "Acetamide, N-(aminothioxomethyl)-", "Urea, 1-acetyl-2-thio-", "N-(Aminothioxomethyl)acetamide", "Acetylthiourea", "N-Acetylthiourea", "1-Acetyl-2-thiourea", "1-Acetylthiourea", "Acetothiourea", "N-Acetylthiocarbamide", "N-Acetyl-2-thiourea", "Acetylthiocarbamide", "NSC 7597"], "SMILES": "N(C(C)=O)C(N)=S", "physical_data": {"Molecular Weight": "118.16", "Molecular Formula": "C3H6N2OS", "Melting Point": "165 \u00b0C"}}