{"cas_no": "591-12-8", "cn_name": "\u5f53\u5f52\u5185\u916f", "en_name": ["\u03b1-Angelica lactone", "2(3H)-Furanone, 5-methyl-", "3-Pentenoic acid, 4-hydroxy-, \u03b3-lactone", "5-Methyl-2(3H)-furanone", "\u03b1-Angelica lactone", "4-Hydroxypent-3-enoic acid lactone", "\u03b2,\u03b3-Angelica lactone", "\u03942-Angelica lactone", "4-Hydroxy-3-pentenoic acid \u03b3-lactone", "5-Methyl-2,3-dihydro-2-furanone", "5-Methylfuran-2(3H)-one", "2-Oxo-5-methyl-2,3-dihydrofuran", "\u03b3-Angelica lactone", "NSC 654", "Pent-3-en-4-olide", "2,3-Dihydro-5-methylfuran-2-one"], "SMILES": "CC=1OC(=O)CC1", "physical_data": {"Molecular Weight": "98.10", "Molecular Formula": "C5H6O2", "Boiling Point": "55-56 \u00b0C @ Press: 13 Torr", "Melting Point": "18 \u00b0C", "Density": "1.091 g/cm\u00b3 @ Temp: 20.44 \u00b0C"}}