{"cas_no": "591-78-6", "cn_name": "2-\u5df1\u916e", "en_name": ["2-Hexanone", "2-Hexanone", "n-Butyl methyl ketone", "Methyl butyl ketone", "Butyl methyl ketone", "2-Oxohexane", "Methyl n-butyl ketone", "MBK"], "SMILES": "C(C(C)=O)CCC", "physical_data": {"Molecular Weight": "100.16", "Molecular Formula": "C6H12O", "Boiling Point": "127.6 \u00b0C", "Melting Point": "-55.5 \u00b0C", "Density": "0.8113 g/cm\u00b3 @ Temp: 20 \u00b0C"}}