{"cas_no": "591-28-6", "cn_name": "4-\u786b\u5c3f\u5627\u5576", "en_name": ["4-Thiouracil", "2(1H)-Pyrimidinone, 3,4-dihydro-4-thioxo-", "Uracil, 4-thio-", "3,4-Dihydro-4-thioxo-2(1H)-pyrimidinone", "4-Thiouracil", "4-Thiopyrimidin-2-one", "NSC 43288", "2-Hydroxy-4-mercaptopyrimidine"], "SMILES": "S=C1NC(=O)NC=C1", "physical_data": {"Molecular Weight": "128.15", "Molecular Formula": "C4H4N2OS", "Melting Point": "289-290 \u00b0C (decomp)"}}