{"cas_no": "591-23-1", "cn_name": "3-\u7532\u57fa\u73af\u5df1\u9187", "en_name": ["3-Methylcyclohexanol", "Cyclohexanol, 3-methyl-", "3-Methylcyclohexanol", "3-Methyl-1-cyclohexanol", "NSC 123022"], "SMILES": "CC1CC(O)CCC1", "physical_data": {"Molecular Weight": "114.19", "Molecular Formula": "C7H14O", "Boiling Point": "174 \u00b0C", "Melting Point": "36-37 \u00b0C", "Density": "0.92 g/cm\u00b3"}}