{"cas_no": "591-18-4", "cn_name": "1-\u6eb4-3-\u7898\u82ef", "en_name": ["1-Bromo-3-iodobenzene", "Benzene, 1-bromo-3-iodo-", "1-Bromo-3-iodobenzene", "m-Bromoiodobenzene", "3-Bromophenyl iodide", "3-Iodobromobenzene", "3-Bromoiodobenzene", "1-Iodo-3-bromobenzene", "3-Bromo-1-iodobenzene", "3-Iodo-1-bromobenzene", "3-Iodophenyl bromide"], "SMILES": "BrC1=CC(I)=CC=C1", "physical_data": {"Molecular Weight": "282.90", "Molecular Formula": "C6H4BrI", "Boiling Point": "252 \u00b0C", "Melting Point": "-9.3 \u00b0C"}}