{"cas_no": "591-80-0", "cn_name": "4-\u620a\u70ef\u9178", "en_name": ["4-Pentenoic acid", "4-Pentenoic acid", "\u03944-Pentenoic acid", "Allylacetic acid", "NSC 20944", "NSC 9000", "(3-Vinyl)propionic acid", "MeSH ID: C009785"], "SMILES": "C(C(O)=O)CC=C", "physical_data": {"Molecular Weight": "100.12", "Molecular Formula": "C5H8O2", "Boiling Point": "188.5 \u00b0C", "Melting Point": "-22.5 \u00b0C", "Density": "0.992 g/cm\u00b3 @ Temp: 15 \u00b0C"}}