{"cas_no": "5910-85-0", "cn_name": "\u53cd\u5f0f,\u53cd\u5f0f-2,4-\u5e9a\u4e8c\u70ef\u919b", "en_name": ["2,4-Heptadienal", "2,4-Heptadienal", "2,4-Heptadien-1-al"], "SMILES": "C(C=CC=O)=CCC", "physical_data": {"Molecular Weight": "110.15", "Molecular Formula": "C7H10O", "Boiling Point": "58-60 \u00b0C @ Press: 5 Torr"}}