{"cas_no": "5910-87-2", "cn_name": "(E,E)-2,4-\u58ec\u4e8c\u70ef\u919b", "en_name": ["(E,E)-2,4-Nonadienal", "2,4-Nonadienal, (2E,4E)-", "2,4-Nonadienal, (E,E)-", "(2E,4E)-2,4-Nonadienal", "trans-2,trans-4-Nonadienal", "trans,trans-2,4-Nonadienal", "(E,E)-2,4-Nonadien-1-al", "(E,E)-2,4-Nonadienal", "(2E,4E)-Nona-2,4-dienal", "(2E,4E)-Nonadienal", "(2E,4E)-2,4-Nonadien-1-al", "(E,E)-2,4-Nonadienal"], "SMILES": "C(=CC=CC=O)CCCC", "physical_data": {"Molecular Weight": "138.21", "Molecular Formula": "C9H14O", "Boiling Point": "75 \u00b0C @ Press: 3 Torr"}}