{"cas_no": "5910-89-4", "cn_name": "2,3-\u4e8c\u7532\u57fa\u5421\u55ea", "en_name": ["2,3-Dimethylpyrazine", "Pyrazine, 2,3-dimethyl-", "2,3-Dimethylpyrazine"], "SMILES": "CC=1C(C)=NC=CN1", "physical_data": {"Molecular Weight": "108.14", "Molecular Formula": "C6H8N2", "Boiling Point": "156 \u00b0C", "Density": "1.005 g/cm\u00b3"}}