{"cas_no": "5911-08-0", "cn_name": "\u73af\u4e19\u57fa\u7532\u57fa\u6c2f", "en_name": ["(Chloromethyl)cyclopropane", "Cyclopropane, (chloromethyl)-", "(Chloromethyl)cyclopropane", "Cyclopropylmethyl chloride", "Cyclopropylcarbinyl chloride", "Cyclopropanemethyl chloride", "Chlorocyclopropylmethane", "\u03b1-(Chloromethyl)cyclopropane", "Cyclopropylchloromethane", "1-Chloromethylcyclopropane"], "SMILES": "C(Cl)C1CC1", "physical_data": {"Molecular Weight": "90.55", "Molecular Formula": "C4H7Cl", "Boiling Point": "88 \u00b0C", "Melting Point": "-90.9 \u00b0C", "Density": "0.981 g/cm\u00b3 @ Temp: 20 \u00b0C"}}