{"cas_no": "5911-04-6", "cn_name": "3-\u7532\u57fa\u58ec\u70f7", "en_name": ["(\u00b1)-3-Methylnonane", "Nonane, 3-methyl-", "3-Methylnonane", "(\u00b1)-3-Methylnonane"], "SMILES": "C(CCCCCC)(CC)C", "physical_data": {"Molecular Weight": "142.28", "Molecular Formula": "C10H22", "Boiling Point": "167.9 \u00b0C", "Melting Point": "-84.8 \u00b0C", "Density": "0.7354 g/cm\u00b3 @ Temp: 20 \u00b0C"}}