{"cas_no": "59113-36-9", "cn_name": "\u4e8c\u805a\u7518\u6cb9", "en_name": ["Diglycerin", "Propanediol, oxybis-", "Diglycerin", "Glycerol dimer", "Diglycerol", "K-COL-II", "Great Oil DI 1", "Diglycerin S", "DIG-S", "Resassol DN", "Diglycerin 801", "Glycerin 801"], "SMILES": "", "physical_data": {"Molecular Weight": "", "Molecular Formula": "C6H14O5", "Boiling Point": "173 \u00b0C @ Press: 14 Torr", "Melting Point": "96-97 \u00b0C", "Density": "1.2774 g/cm\u00b3 @ Temp: 20 \u00b0C"}}