{"cas_no": "59128-15-3", "cn_name": "(6-\u6eb4\u54aa\u5511\u5e76\u30141,2-A]\u5421\u5576-2-\u57fa)-\u4e59\u9178", "en_name": ["6-Bromoimidazo[1,2-a]pyridine-2-acetic acid", "Imidazo[1,2-a]pyridine-2-acetic acid, 6-bromo-", "6-Bromoimidazo[1,2-a]pyridine-2-acetic acid", "NSC 296228", "(6-Bromoimidazo[1,2-a]pyridin-2-yl)acetic acid", "2-[6-Bromoimidazo[1,2-a]pyridin-2-yl]acetic acid", "2-(6-Bromoimidazo[1,2-a]pyridin-2-yl)aceticacid"], "SMILES": "C(C(O)=O)C1=CN2C(=N1)C=CC(Br)=C2", "physical_data": {"Molecular Weight": "255.07", "Molecular Formula": "C9H7BrN2O2", "Melting Point": "214-215 \u00b0C"}}