{"cas_no": "5912-35-6", "cn_name": "6-\u6c28\u57fa-8-\u6eb4-1,7-\u8418\u5576", "en_name": ["8-Bromo-1,7-naphthyridin-6-amine", "1,7-Naphthyridin-6-amine, 8-bromo-", "1,7-Naphthyridine, 6-amino-8-bromo-", "8-Bromo-1,7-naphthyridin-6-amine", "6-Amino-8-bromo-1,7-naphthyridine"], "SMILES": "BrC=1C2=C(C=C(N)N1)C=CC=N2", "physical_data": {"Molecular Weight": "224.06", "Molecular Formula": "C8H6BrN3", "Melting Point": "181 \u00b0C"}}