{"cas_no": "59122-55-3", "cn_name": "\u5341\u4e8c\u70f7\u57fa\u5421\u5583\u8461\u8404\u7cd6\u82f7", "en_name": ["Dodecyl \u03b2-D-glucopyranoside", "\u03b2-D-Glucopyranoside, dodecyl", "Glucoside, dodecyl", "Dodecyl \u03b2-D-glucopyranoside", "Dodecyl \u03b2-D-glucoside", "n-Dodecyl \u03b2-D-glucopyranoside", "AG 12 (carbohydrate)", "AG 12", "BDDG"], "SMILES": "O(CCCCCCCCCCCC)C1OC(CO)C(O)C(O)C1O", "physical_data": {"Molecular Weight": "348.47", "Molecular Formula": "C18H36O6", "Melting Point": "77-137 \u00b0C"}}