{"cas_no": "59146-56-4", "cn_name": "2-(2-\u6eb4\u4e59\u6c27\u57fa)\u56db\u6c22-2H-\u5421\u5583", "en_name": ["2-(2-Bromoethoxy)tetrahydro-2H-pyran", "2H-Pyran, 2-(2-bromoethoxy)tetrahydro-", "2-(2-Bromoethoxy)tetrahydro-2H-pyran", "2-(2-Bromoethoxy)tetrahydropyran", "2-[(Tetrahydropyran-2-yl)oxy]ethyl bromide", "2-Bromo-1-(tetrahydropyran-2-yloxy)ethane", "2-Bromoethanol tetrahydropyranyl ether", "2-Bromoethyl 2-tetrahydropyranyl ether", "2-Tetrahydropyranyl 2-bromoethyl ether", "1-Bromo-2-(2-tetrahydropyranyloxy)ethane", "1-Bromo-2-(tetrahydropyranyloxy)ethane", "1-(Tetrahydropyran-2-yloxy)-2-bromoethane", "NSC 216078", "2-[(2-Bromoethyl)oxy]tetrahydro-2H-pyran", "2-(2-Bromoethoxy)oxane"], "SMILES": "O(CCBr)C1CCCCO1", "physical_data": {"Molecular Weight": "209.08", "Molecular Formula": "C7H13BrO2", "Boiling Point": "75 \u00b0C @ Press: 1 Torr"}}