{"cas_no": "5915-41-3", "cn_name": "\u7279\u4e01\u6d25", "en_name": ["Terbuthylazine", "1,3,5-Triazine-2,4-diamine, 6-chloro-N2-(1,1-dimethylethyl)-N4-ethyl-", "s-Triazine, 2-(tert-butylamino)-4-chloro-6-(ethylamino)-", "1,3,5-Triazine-2,4-diamine, 6-chloro-N-(1,1-dimethylethyl)-N\u2032-ethyl-", "6-Chloro-N2-(1,1-dimethylethyl)-N4-ethyl-1,3,5-triazine-2,4-diamine", "GS 13529", "2-tert-Butylamino-4-chloro-6-ethylamino-s-triazine", "2-Chloro-4-tert-butylamino-6-ethylamino-s-triazine", "2-Chloro-4-(ethylamino)-6-(tert-butylamino)-s-triazine", "Terbuthylazine", "2-Chloro-4-ethylamino-6-tert-butylamino-1,3,5-triazine", "Terbutylethylazine", "Gardoprim", "Gardeprim A 1862", "G 13529", "Primatol M", "Terbutylazine", "4-Ethylamino-6-tert-butylamino-2-chloro-S-triazine", "ChlorCaragard", "Terbutazine", "tert-Butylazine", "Tyllanex", "N-tert-Butyl-6-chloro-N\u2032-ethyl-1,3,5-triazine-2,4-diamine", "6-Chloro-2-tert-butylamino-4-(ethylamino)-[1,3,5]-triazine", "Click 500SC", "Click", "2-N-tert-Butyl-6-chloro-4-N-ethyl-1,3,5-triazine-2,4-diamine"], "SMILES": "N(C(C)(C)C)C=1N=C(NCC)N=C(Cl)N1", "physical_data": {"Molecular Weight": "229.71", "Molecular Formula": "C9H16ClN5", "Melting Point": "177-179 \u00b0C", "Density": "1.188 g/cm\u00b3 @ Temp: 20 \u00b0C"}}