{"cas_no": "59160-29-1", "cn_name": "\u5c3c\u591a\u975e\u6797", "en_name": ["Lidofenin", "Glycine, N-(carboxymethyl)-N-[2-[(2,6-dimethylphenyl)amino]-2-oxoethyl]-", "N-(Carboxymethyl)-N-[2-[(2,6-dimethylphenyl)amino]-2-oxoethyl]glycine", "N-(2,6-Dimethylphenylcarbamoylmethyl)iminodiacetic acid", "HIDA", "Lidofenin", "N-(2,6-Dimethylacetanilide)iminodiacetic acid", "2-[(Carboxymethyl)([[(2,6-dimethylphenyl)carbamoyl]methyl])amino]acetic acid"], "SMILES": "N(C(CN(CC(O)=O)CC(O)=O)=O)C1=C(C)C=CC=C1C", "physical_data": {"Molecular Weight": "294.30", "Molecular Formula": "C14H18N2O5", "Melting Point": "202 \u00b0C"}}