{"cas_no": "59189-51-4", "cn_name": "2,6-\u4e8c\u6c1f\u4e8c\u82ef\u7532\u916e", "en_name": ["(2,6-Difluorophenyl)phenylmethanone", "Methanone, (2,6-difluorophenyl)phenyl-", "(2,6-Difluorophenyl)phenylmethanone", "2,6-Difluorobenzophenone", "(2,6-Difluorophenyl)(phenyl)methanone"], "SMILES": "C(=O)(C1=C(F)C=CC=C1F)C2=CC=CC=C2", "physical_data": {"Molecular Weight": "218.20", "Molecular Formula": "C13H8F2O", "Melting Point": "134-136 \u00b0C"}}