{"cas_no": "5918-93-4", "cn_name": "1,3-\u4e8c\u6c22\u54aa\u5511-2-\u916e", "en_name": ["1,3-Dihydro-2H-imidazol-2-one", "2H-Imidazol-2-one, 1,3-dihydro-", "4-Imidazolin-2-one", "1,3-Dihydro-2H-imidazol-2-one", "ENT 27439", "Shell SD 8591", "SD 8591", "2-Hydroxyimidazole", "Imidazol-2-ol", "1,3-Dihydroimidazol-2-one", "NSC 111046", "2,3-Dihydro-1H-imidazol-2-one"], "SMILES": "O=C1NC=CN1", "physical_data": {"Molecular Weight": "84.08", "Molecular Formula": "C3H4N2O", "Melting Point": "240-243 \u00b0C"}}