{"cas_no": "5919-74-4", "cn_name": "2-\u7532\u57fa-2-\u4e19\u70ef\u9178-2,3-\u4e8c\u7f9f\u57fa\u4e19\u916f", "en_name": ["Glyceryl methacrylate", "2-Propenoic acid, 2-methyl-, 2,3-dihydroxypropyl ester", "Methacrylic acid, 2,3-dihydroxypropyl ester", "Methacrylin, 1-mono-", "2,3-Dihydroxypropyl methacrylate", "Glyceryl methacrylate", "Dihydroxypropyl methacrylate", "1-Glycerol methacrylate", "2,3-Hydroxypropyl methacrylate"], "SMILES": "O(CC(CO)O)C(C(C)=C)=O", "physical_data": {"Molecular Weight": "160.17", "Molecular Formula": "C7H12O4", "Boiling Point": "115-120 \u00b0C @ Press: 1 Torr"}}