{"cas_no": "592-84-7", "cn_name": "\u7532\u9178\u4e01\u916f", "en_name": ["Butyl formate", "Formic acid, butyl ester", "Butyl formate", "n-Butyl formate", "Butyl methanoate", "NSC 6969"], "SMILES": "C(CCC)OC=O", "physical_data": {"Molecular Weight": "102.13", "Molecular Formula": "C5H10O2", "Boiling Point": "107 \u00b0C", "Melting Point": "-90 \u00b0C", "Density": "0.9 g/cm\u00b3"}}