{"cas_no": "592-04-1", "cn_name": "\u6c30\u5316\u6c5e", "en_name": ["Mercuric cyanide", "Mercury cyanide (Hg(CN)2)", "Mercuric cyanide", "Mercury dicyanide", "Dicyanomercury", "Cianurina", "Mercury(II) cyanide", "Mercuric cyanide (Hg(CN)2)"], "SMILES": "[Hg](C#N)C#N", "physical_data": {"Molecular Weight": "", "Molecular Formula": "C2HgN2", "Melting Point": "320 \u00b0C (decomp)", "Density": "4.00 g/cm\u00b3 @ Temp: 20 \u00b0C"}}