{"cas_no": "592-78-9", "cn_name": "3-\u5e9a\u70ef(\u987a\u3001\u53cd\u5f0f\u6df7\u5408\u7269)", "en_name": ["3-Heptene", "3-Heptene"], "SMILES": "C(CCC)=CCC", "physical_data": {"Molecular Weight": "98.19", "Molecular Formula": "C7H14", "Boiling Point": "95.6 \u00b0C @ Press: 746 Torr", "Density": "0.7005 g/cm\u00b3 @ Temp: 20 \u00b0C"}}