{"cas_no": "592-47-2", "cn_name": "3-\u5df1\u70ef(\u6b63\u53cd\u6df7\u5408)", "en_name": ["3-Hexene", "3-Hexene"], "SMILES": "C(=CCC)CC", "physical_data": {"Molecular Weight": "84.16", "Molecular Formula": "C6H12", "Boiling Point": "67 \u00b0C", "Melting Point": "-90 \u00b0C", "Density": "0.6807 g/cm\u00b3 @ Temp: 19 \u00b0C"}}