{"cas_no": "592-76-7", "cn_name": "1-\u5e9a\u70ef", "en_name": ["1-Heptene", "1-Heptene", "1-n-Heptene", "n-Hept-1-ene", "NSC 74130"], "SMILES": "C(CCC)CC=C", "physical_data": {"Molecular Weight": "98.19", "Molecular Formula": "C7H14", "Boiling Point": "93.6 \u00b0C", "Melting Point": "-119.7 \u00b0C", "Density": "0.6970 g/cm\u00b3 @ Temp: 20 \u00b0C"}}