{"cas_no": "592-01-8", "cn_name": "\u6c30\u5316\u9499", "en_name": ["Calcium cyanide", "Calcium cyanide (Ca(CN)2)", "Calcium cyanide", "Cyanogas", "Calcid", "Calcyan", "NSC 74784"], "SMILES": "[Ca](C#N)C#N", "physical_data": {"Molecular Weight": "", "Molecular Formula": "C2CaN2", "Melting Point": "1300 \u00b0C (sublm)", "Density": "1.8 g/cm\u00b3"}}