{"cas_no": "592-79-0", "cn_name": "5-\u6c1f\u620a\u80fa", "en_name": ["5-Fluoro-1-pentanamine", "1-Pentanamine, 5-fluoro-", "Pentylamine, 5-fluoro-", "5-Fluoro-1-pentanamine", "5-Fluoropentylamine"], "SMILES": "C(CCF)CCN", "physical_data": {"Molecular Weight": "105.15", "Molecular Formula": "C5H12FN", "Boiling Point": "67-67.5 \u00b0C @ Press: 50 Torr"}}