{"cas_no": "592-51-8", "cn_name": "4-\u620a\u70ef\u8148", "en_name": ["4-Pentenenitrile", "4-Pentenenitrile", "4-Cyano-1-butene", "3-Butenyl cyanide", "4-Pentenonitrile"], "SMILES": "C(CC#N)C=C", "physical_data": {"Molecular Weight": "81.12", "Molecular Formula": "C5H7N", "Boiling Point": "140 \u00b0C", "Melting Point": "138-139 \u00b0C", "Density": "0.8239 g/cm\u00b3 @ Temp: 24 \u00b0C"}}