{"cas_no": "592-27-8", "cn_name": "2-\u7532\u57fa\u5e9a\u70f7", "en_name": ["2-Methylheptane", "Heptane, 2-methyl-", "2-Methylheptane", "NSC 24844"], "SMILES": "C(CCCC)C(C)C", "physical_data": {"Molecular Weight": "114.23", "Molecular Formula": "C8H18", "Boiling Point": "116 \u00b0C", "Melting Point": "-109 \u00b0C", "Density": "0.698 g/cm\u00b3"}}