{"cas_no": "592-85-8", "cn_name": "\u786b\u6c30\u9178\u6c5e(II)", "en_name": ["Mercuric thiocyanate", "Thiocyanic acid, mercury(2+) salt (2:1)", "Thiocyanic acid, mercury(2+) salt", "Mercuric sulfocyanate", "Mercuric sulfocyanide", "Mercuric thiocyanate", "Mercury thiocyanate (Hg(SCN)2)", "Mercury(II) thiocyanate", "Mercury di(thiocyanate)", "Mercuric isothiocyanate"], "SMILES": "C(#N)S.[Hg]", "physical_data": {"Molecular Weight": "", "Molecular Formula": "CHNS.<sup>1</sup>/2Hg", "Melting Point": "165 \u00b0C (decomp)", "Density": "~4.0 g/cm\u00b3 (approx)"}}