{"cas_no": "592-90-5", "cn_name": "\u73af\u6c27\u5df1\u70f7", "en_name": ["Oxepane", "Oxepane", "Hexamethylene oxide", "Hexane, 1,6-epoxy-", "Oxacycloheptane", "Oxepin, hexahydro-", "Hexahydrooxepin"], "SMILES": "C1CCCOCC1", "physical_data": {"Molecular Weight": "100.16", "Molecular Formula": "C6H12O", "Boiling Point": "119 \u00b0C", "Density": "1.4393 g/cm\u00b3 @ Temp: 20 \u00b0C"}}