{"cas_no": "592-17-6", "cn_name": "\u5f02\u4e01\u57fa\u8132", "en_name": ["Isobutylurea", "Urea, N-(2-methylpropyl)-", "Urea, isobutyl-", "Urea, (2-methylpropyl)-", "N-(2-Methylpropyl)urea", "Isobutylurea", "1-Isobutylurea", "N-Isobutylurea", "NSC 27457", "(2-Methylpropyl)urea", "2-Methylpropylurea"], "SMILES": "C(NC(N)=O)C(C)C", "physical_data": {"Molecular Weight": "116.16", "Molecular Formula": "C5H12N2O", "Melting Point": "94 \u00b0C"}}