{"cas_no": "592-34-7", "cn_name": "\u6c2f\u7532\u9178\u4e01\u916f", "en_name": ["Butyl chloroformate", "Carbonochloridic acid, butyl ester", "Formic acid, chloro-, butyl ester", "Butyl chloroformate", "Chloroformic acid butyl ester", "Butyl chlorocarbonate", "Butoxycarbonyl chloride", "n-Butyl chloroformate", "NSC 8428", "Butan-1-yl chloroformate", "Chloroformic acid n-butyl ester", "Butyl carbonochloridate"], "SMILES": "O(CCCC)C(Cl)=O", "physical_data": {"Molecular Weight": "136.58", "Molecular Formula": "C5H9ClO2", "Boiling Point": "142 \u00b0C", "Density": "1.074 g/cm\u00b3 @ Temp: 25 \u00b0C"}}