{"cas_no": "592-50-7", "cn_name": "1-\u6c1f\u620a\u70f7", "en_name": ["1-Fluoropentane", "Pentane, 1-fluoro-", "1-Fluoropentane", "Pentyl fluoride", "n-Amyl fluoride"], "SMILES": "C(CCF)CC", "physical_data": {"Molecular Weight": "90.14", "Molecular Formula": "C5H11F", "Boiling Point": "62.8 \u00b0C", "Melting Point": "-120 \u00b0C", "Density": "0.7960 g/cm\u00b3 @ Temp: 10.5 \u00b0C"}}