{"cas_no": "592-43-8", "cn_name": "2-\u5df1\u70ef", "en_name": ["2-Hexene", "2-Hexene", "1-Methyl-1-pentene"], "SMILES": "C(C=CC)CC", "physical_data": {"Molecular Weight": "84.16", "Molecular Formula": "C6H12", "Boiling Point": "68 \u00b0C", "Melting Point": "-98 \u00b0C", "Density": "0.6813 g/cm\u00b3 @ Temp: 20 \u00b0C"}}