{"cas_no": "592-20-1", "cn_name": "\u8fc7\u6c27\u5316\u4e59\u9170\u4e19\u916e", "en_name": ["1-(Acetyloxy)-2-propanone", "2-Propanone, 1-(acetyloxy)-", "2-Propanone, 1-hydroxy-, acetate", "2-Propanone, hydroxy-, acetate", "1-(Acetyloxy)-2-propanone", "O-Acetylacetol", "Acetol acetate", "Acetoxypropanone", "1-Hydroxy-2-propanone acetate", "Acetoxyacetone", "Acetonyl acetate", "Acetylmethyl acetate", "1-Acetoxyacetone", "2-Oxopropyl acetate", "1-Acetoxy-2-propanone", "Acetic acid acetonyl ester", "1-(Acetyloxy)propan-2-one", "NSC 2298", "NSC 7614", "Acetyloxyacetone"], "SMILES": "C(OC(C)=O)C(C)=O", "physical_data": {"Molecular Weight": "116.12", "Molecular Formula": "C5H8O3", "Boiling Point": "171 \u00b0C", "Melting Point": "74.0-75.5 \u00b0C", "Density": "1.0757 g/cm\u00b3 @ Temp: 20 \u00b0C"}}