{"cas_no": "592-13-2", "cn_name": "2,5-\u4e8c\u7532\u57fa\u5df1\u70f7", "en_name": ["2,5-Dimethylhexane", "Hexane, 2,5-dimethyl-", "2,5-Dimethylhexane", "Biisobutyl", "NSC 74172", "1,1,4,4-Tetramethylbutane"], "SMILES": "C(CC(C)C)C(C)C", "physical_data": {"Molecular Weight": "114.23", "Molecular Formula": "C8H18", "Boiling Point": "109.1 \u00b0C", "Melting Point": "-91 \u00b0C", "Density": "0.6989 g/cm\u00b3 @ Temp: 15 \u00b0C"}}