{"cas_no": "592-42-7", "cn_name": "1,5-\u5df2\u4e8c\u70ef", "en_name": ["Diallyl", "1,5-Hexadiene", "Biallyl", "Diallyl", "\u03b1,\u03c9-Hexadiene", "NSC 60690"], "SMILES": "C(CC=C)C=C", "physical_data": {"Molecular Weight": "82.14", "Molecular Formula": "C6H10", "Boiling Point": "59.4 \u00b0C", "Melting Point": "-140.7 \u00b0C", "Density": "0.7106 g/cm\u00b3 @ Temp: 0 \u00b0C"}}