{"cas_no": "592-77-8", "cn_name": "2-\u5e9a\u70ef", "en_name": ["2-Heptene", "2-Heptene"], "SMILES": "C(CCC)C=CC", "physical_data": {"Molecular Weight": "98.19", "Molecular Formula": "C7H14", "Boiling Point": "106-108 \u00b0C"}}