{"cas_no": "592-46-1", "cn_name": "2,4-\u5df2\u4e8c\u70ef", "en_name": ["2,4-Hexadiene", "2,4-Hexadiene", "Bipropenyl", "Dipropenyl", "1,4-Dimethylbutadiene", "NSC 74169", "1,4-Dimethyl-1,3-butadiene"], "SMILES": "C(C=CC)=CC", "physical_data": {"Molecular Weight": "82.14", "Molecular Formula": "C6H10", "Boiling Point": "80 \u00b0C", "Melting Point": "-79 \u00b0C", "Density": "0.72656 g/cm\u00b3 @ Temp: 0 \u00b0C"}}