{"cas_no": "592-41-6", "cn_name": "1-\u5df1\u70ef", "en_name": ["1-Hexene", "1-Hexene", "1-n-Hexene", "Hexene", "Dialen 6", "NSC 74121", "Linealene 6", "\u03b1-Hexene"], "SMILES": "C(CC=C)CC", "physical_data": {"Molecular Weight": "84.16", "Molecular Formula": "C6H12", "Boiling Point": "63.4 \u00b0C @ Press: 760 Torr", "Melting Point": "-139.7 \u00b0C", "Density": "0.6731 g/cm\u00b3 @ Temp: 20 \u00b0C"}}