{"cas_no": "592-65-4", "cn_name": "\u5f02\u4e01\u57fa\u786b\u919a", "en_name": ["1,1\u2032-Thiobis[2-methylpropane]", "Propane, 1,1\u2032-thiobis[2-methyl-", "Isobutyl sulfide", "1,1\u2032-Thiobis[2-methylpropane]", "Diisobutyl sulfide", "Di(2-methylpropyl) sulfide", "NSC 8461", "2-Methyl-1-(2-methylpropylsulfanyl)propane", "2-Methyl-1-[(2-methylpropyl)sulfanyl]propane"], "SMILES": "S(CC(C)C)CC(C)C", "physical_data": {"Molecular Weight": "146.29", "Molecular Formula": "C8H18S", "Boiling Point": "171 \u00b0C", "Melting Point": "-105.5 \u00b0C", "Density": "0.8232 g/cm\u00b3 @ Temp: 25 \u00b0C"}}