{"cas_no": "592-31-4", "cn_name": "N-\u4e01\u57fa\u8132", "en_name": ["Butylurea", "Urea, N-butyl-", "Urea, butyl-", "N-Butylurea", "Butylurea", "1-Butylurea", "NSC 2597"], "SMILES": "N(CCCC)C(N)=O", "physical_data": {"Molecular Weight": "116.16", "Molecular Formula": "C5H12N2O", "Melting Point": "96 \u00b0C"}}