{"cas_no": "592-87-0", "cn_name": "\u786b\u6c30\u5316\u94c5", "en_name": ["Thiocyanic acid, lead(2+) salt (2:1)", "Thiocyanic acid, lead(2+) salt (2:1)", "Thiocyanic acid, lead(2+) salt", "Lead thiocyanate", "Lead thiocyanate (Pb(SCN)2)", "Lead dithiocyanate", "Lead(II) thiocyanate", "Lead bis(thiocyanate)", "Lead(2+) thiocyanate"], "SMILES": "C(#N)S.[Pb]", "physical_data": {"Molecular Weight": "", "Molecular Formula": "CHNS.<sup>1</sup>/2Pb", "Melting Point": "190 \u00b0C (decomp)", "Density": "3.82 g/cm\u00b3 @ Temp: 20 \u00b0C"}}