{"cas_no": "592-45-0", "cn_name": "1-\u70ef\u4e19\u57fa\u4e19\u70ef", "en_name": ["1,4-Hexadiene", "1,4-Hexadiene"], "SMILES": "C(C=CC)C=C", "physical_data": {"Molecular Weight": "82.14", "Molecular Formula": "C6H10", "Boiling Point": "65 \u00b0C @ Press: 760 Torr", "Melting Point": "&lt;25 \u00b0C", "Density": "0.7000 g/cm\u00b3 @ Temp: 20 \u00b0C"}}