{"cas_no": "592-82-5", "cn_name": "\u4e01\u57fa\u5f02\u786b\u6c30\u9178\u916f", "en_name": ["Butyl isothiocyanate", "Butane, 1-isothiocyanato-", "Isothiocyanic acid, butyl ester", "1-Isothiocyanatobutane", "Butyl isothiocyanate", "Butyl mustard oil", "n-Butyl isothiocyanate", "NSC 194808"], "SMILES": "C(CCC)N=C=S", "physical_data": {"Molecular Weight": "115.20", "Molecular Formula": "C5H9NS", "Boiling Point": "168 \u00b0C", "Melting Point": "115 \u00b0C", "Density": "0.9546 g/cm\u00b3 @ Temp: 20 \u00b0C"}}