{"cas_no": "592-95-0", "cn_name": "\u83b1\u83d4\u7d20", "en_name": ["Sulforaphene", "1-Butene, 4-isothiocyanato-1-(methylsulfinyl)-", "Isothiocyanic acid, 4-(methylsulfinyl)-3-butenyl ester", "Sulforaphen", "4-Isothiocyanato-1-(methylsulfinyl)-1-butene", "Sulforaphene", "Raphanin", "4-Methylsulfinylbut-3-enyl isothiocyanate", "4-Methylsulfinyl-3-butenyl isothiocyanate", "LFS 01"], "SMILES": "C(CCN=C=S)=CS(C)=O", "physical_data": {"Molecular Weight": "175.27", "Molecular Formula": "C6H9NOS2", "Boiling Point": "135 \u00b0C"}}