{"cas_no": "592-09-6", "cn_name": "3,3,3-\u4e09\u6c1f\u4e19\u57fa\u4e09\u6c2f\u7845\u70f7", "en_name": ["Trichloro(3,3,3-trifluoropropyl)silane", "Silane, trichloro(3,3,3-trifluoropropyl)-", "Trichloro(3,3,3-trifluoropropyl)silane", "(3,3,3-Trifluoropropyl)trichlorosilane", "TSL 8261"], "SMILES": "C(C[Si](Cl)(Cl)Cl)C(F)(F)F", "physical_data": {"Molecular Weight": "231.50", "Molecular Formula": "C3H4Cl3F3Si", "Boiling Point": "113-114 \u00b0C", "Density": "1.395 g/cm\u00b3"}}