{"cas_no": "592-48-3", "cn_name": "1,3-\u5df1\u4e8c\u70ef", "en_name": ["1,3-Hexadiene", "1,3-Hexadiene", "1-Ethyl-1,3-butadiene"], "SMILES": "C(=CC=C)CC", "physical_data": {"Molecular Weight": "82.14", "Molecular Formula": "C6H10", "Boiling Point": "72-75 \u00b0C", "Density": "0.7152 g/cm\u00b3 @ Temp: 22 \u00b0C"}}