{"cas_no": "592-55-2", "cn_name": "2-\u6eb4\u4e59\u57fa\u4e59\u57fa\u919a", "en_name": ["2-Bromoethyl ethyl ether", "Ethane, 1-bromo-2-ethoxy-", "Ether, 2-bromoethyl ethyl", "1-Bromo-2-ethoxyethane", "2-Bromoethyl ethyl ether", "2-Ethoxyethyl bromide", "1-Ethoxy-2-bromoethane", "1-Bromo-2-ethoxyethylene", "2-Bromoethoxyethane", "5-Bromo-3-oxapentane", "1-Bromo-3-oxapentane", "NSC 8026"], "SMILES": "C(OCC)CBr", "physical_data": {"Molecular Weight": "153.02", "Molecular Formula": "C4H9BrO", "Boiling Point": "127.5 \u00b0C", "Density": "1.394 g/cm\u00b3 @ Temp: 20 \u00b0C"}}