{"cas_no": "592-57-4", "cn_name": "1,3-\u73af\u5df1\u4e8c\u70ef", "en_name": ["1,3-Cyclohexadiene", "1,3-Cyclohexadiene", "Benzene, dihydro-", "Cyclohex-1,3-diene"], "SMILES": "C1CC=CC=C1", "physical_data": {"Molecular Weight": "80.13", "Molecular Formula": "C6H8", "Boiling Point": "81 \u00b0C", "Melting Point": "-89 \u00b0C", "Density": "0.84 g/cm\u00b3"}}