{"cas_no": "592-88-1", "cn_name": "\u4e8c\u70ef\u4e19\u57fa\u786b\u919a", "en_name": ["Diallyl sulfide", "1-Propene, 3,3\u2032-thiobis-", "Allyl sulfide", "3,3\u2032-Thiobis[1-propene]", "Allyl monosulfide", "Diallyl sulfide", "Thioallyl ether", "Diallyl monosulfide", "Oil garlic", "Diallyl thioether", "Di(2-propenyl) sulfide", "Bis(2-propenyl) sulfide", "NSC 20947"], "SMILES": "S(CC=C)CC=C", "physical_data": {"Molecular Weight": "114.21", "Molecular Formula": "C6H10S", "Boiling Point": "138.6 \u00b0C", "Melting Point": "-85 \u00b0C"}}