{"cas_no": "592-35-8", "cn_name": "\u6c28\u57fa\u7532\u9178\u4e01\u916f", "en_name": ["Butyl carbamate", "Carbamic acid, butyl ester", "Butyl carbamate", "n-Butyl carbamate", "NSC 187"], "SMILES": "O(CCCC)C(N)=O", "physical_data": {"Molecular Weight": "117.15", "Molecular Formula": "C5H11NO2", "Boiling Point": "205-210 \u00b0C", "Melting Point": "53 \u00b0C"}}