{"cas_no": "5921-73-3", "cn_name": "2-\u58ec\u7094-1-\u9187", "en_name": ["2-Nonyn-1-ol", "2-Nonyn-1-ol", "1-Hydroxy-2-nonyne"], "SMILES": "C(CC#CCO)CCCC", "physical_data": {"Molecular Weight": "140.22", "Molecular Formula": "C9H16O", "Boiling Point": "109-111 \u00b0C @ Press: 11 Torr", "Density": "0.878 g/cm\u00b3 @ Temp: 16 \u00b0C"}}