{"cas_no": "59215-36-0", "cn_name": "4-\u7532\u57fa-2-(1-\u54cc\u55ea\u57fa)\u5627\u5576", "en_name": ["4-Methyl-2-(1-piperazinyl)pyrimidine", "Pyrimidine, 4-methyl-2-(1-piperazinyl)-", "4-Methyl-2-(1-piperazinyl)pyrimidine", "1-(4-Methyl-2-pyrimidinyl)piperazine"], "SMILES": "CC1=NC(=NC=C1)N2CCNCC2", "physical_data": {"Molecular Weight": "178.23", "Molecular Formula": "C9H14N4", "Boiling Point": "170 \u00b0C @ Press: 20 Torr", "Melting Point": "27 \u00b0C"}}