{"cas_no": "59229-63-9", "cn_name": "3,3-\u4e8c\u7532\u57fa\u5417\u5549", "en_name": ["3,3-Dimethylmorpholine", "Morpholine, 3,3-dimethyl-", "3,3-Dimethylmorpholine"], "SMILES": "CC1(C)COCCN1", "physical_data": {"Molecular Weight": "115.17", "Molecular Formula": "C6H13NO", "Boiling Point": "143-144 \u00b0C", "Density": "0.9355 g/cm\u00b3 @ Temp: 20 \u00b0C"}}