{"cas_no": "5922-60-1", "cn_name": "2-\u6c28\u57fa-5-\u6c2f\u82ef\u8148", "en_name": ["2-Amino-5-chlorobenzonitrile", "Benzonitrile, 2-amino-5-chloro-", "Anthranilonitrile, 5-chloro-", "2-Amino-5-chlorobenzonitrile", "2-Cyano-4-chloroaniline", "6-Amino-3-chlorobenzonitrile", "4-Chloro-2-cyanoaniline", "5-Chloroanthranilonitrile", "2-Amino-5-chlorobenzenecarbonitrile", "5-Chloro-2-aminobenzonitrile", "1-Cyano-2-amino-5-chlorobenzene"], "SMILES": "C(#N)C1=C(N)C=CC(Cl)=C1", "physical_data": {"Molecular Weight": "152.58", "Molecular Formula": "C7H5ClN2", "Boiling Point": "133.5 \u00b0C", "Melting Point": "97 \u00b0C"}}