{"cas_no": "59227-89-3", "cn_name": "\u6708\u6842\u6c2e\u916e", "en_name": ["Laurocapram", "2H-Azepin-2-one, 1-dodecylhexahydro-", "1-Dodecylhexahydro-2H-azepin-2-one", "1-Dodecylazacycloheptan-2-one", "Azone", "Laurocapram", "N-Dodecylcaprolactam", "Azon", "1-Dodecylazepan-2-one"], "SMILES": "C(CCCCCCCCCCC)N1C(=O)CCCCC1", "physical_data": {"Molecular Weight": "281.48", "Molecular Formula": "C18H35NO", "Boiling Point": "195-200 \u00b0C @ Press: 3 Torr", "Melting Point": "-7 \u00b0C"}}