{"cas_no": "59237-53-5", "cn_name": "6-\u6c2f-5-\u785d\u57fa\u70df\u9178\u7532\u916f", "en_name": ["Methyl 6-chloro-5-nitro-3-pyridinecarboxylate", "3-Pyridinecarboxylic acid, 6-chloro-5-nitro-, methyl ester", "Methyl 6-chloro-5-nitro-3-pyridinecarboxylate", "Methyl 6-chloro-5-nitronicotinate", "Methyl 2-chloro-3-nitropyridine-5-carboxylate", "Methyl 6-chloro-5-nitropyridine-3-carboxylate", "6-Chloro-5-nitronicotinic acid methyl ester", "NSC 405361", "6-Chloro-5-nitropyridine-3-carboxylic acid methyl ester"], "SMILES": "C(OC)(=O)C=1C=C(N(=O)=O)C(Cl)=NC1", "physical_data": {"Molecular Weight": "216.58", "Molecular Formula": "C7H5ClN2O4", "Melting Point": "76 \u00b0C"}}