{"cas_no": "5925-75-7", "cn_name": "\u786b\u4ee3\u4e19\u9178\u7532\u916f", "en_name": ["S-Methyl thiopropionate", "Propanethioic acid, S-methyl ester", "Propionic acid, thio-, S-methyl ester", "S-Methyl thiopropionate", "S-Methyl propanethioate"], "SMILES": "C(CC)(SC)=O", "physical_data": {"Molecular Weight": "104.17", "Molecular Formula": "C4H8OS", "Boiling Point": "120-121 \u00b0C @ Press: 760 Torr"}}