{"cas_no": "592542-59-1", "cn_name": "\u745e\u683c\u8272\u66ff", "en_name": ["Rigosertib", "Glycine, N-[2-methoxy-5-[[[(1E)-2-(2,4,6-trimethoxyphenyl)ethenyl]sulfonyl]methyl]phenyl]-", "N-[2-Methoxy-5-[[[(1E)-2-(2,4,6-trimethoxyphenyl)ethenyl]sulfonyl]methyl]phenyl]glycine", "(E)-2,4,6-Trimethoxystyryl 3-[(carboxymethyl)amino]-4-methoxybenzyl sulfone", "ON 01910", "3: PN: WO2006074149 PAGE: 45 claimed sequence", "Rigosertib", "(E)-2-(5-((2,4,6-Trimethoxystyryl sulfonyl)methyl)-2-methoxyphenylamino)acetic acid"], "SMILES": "C(=CS(CC1=CC(NCC(O)=O)=C(OC)C=C1)(=O)=O)C2=C(OC)C=C(OC)C=C2OC", "physical_data": {"Molecular Weight": "451.49", "Molecular Formula": "C21H25NO8S", "Melting Point": "172-174 \u00b0C"}}