{"cas_no": "592542-51-3", "cn_name": "3-\u785d\u57fa-4-\u7532\u6c27\u57fa\u82c4\u57fa\u78fa\u9170\u57fa\u4e59\u9178", "en_name": ["2-[[(4-Methoxy-3-nitrophenyl)methyl]sulfonyl]acetic acid", "Acetic acid, 2-[[(4-methoxy-3-nitrophenyl)methyl]sulfonyl]-", "Acetic acid, [[(4-methoxy-3-nitrophenyl)methyl]sulfonyl]-", "2-[[(4-Methoxy-3-nitrophenyl)methyl]sulfonyl]acetic acid", "4-Methoxy-3-nitrobenzylsulfonylacetic acid", "2-(4-Methoxy-3-nitrobenzylsulfonyl)acetic acid", "(4-Methoxy-2-nitrobenzylsulfonyl)acetic acid", "2-[(4-Methoxy-3-nitrophenyl)methanesulfonyl]acetic acid"], "SMILES": "N(=O)(=O)C1=C(OC)C=CC(CS(CC(O)=O)(=O)=O)=C1", "physical_data": {"Molecular Weight": "289.26", "Molecular Formula": "C10H11NO7S", "Melting Point": "137-139 \u00b0C"}}