{"cas_no": "5926-38-5", "cn_name": "(\u4e8c\u6c2f\u7532\u57fa)\u4e09\u7532\u57fa\u7845\u70f7", "en_name": ["(Dichloromethyl)trimethylsilane", "Silane, (dichloromethyl)trimethyl-", "(Dichloromethyl)trimethylsilane", "Dichloro(trimethylsilyl)methane", "(Trimethylsilyl)dichloromethane", "NSC 92687"], "SMILES": "[Si](C(Cl)Cl)(C)(C)C", "physical_data": {"Molecular Weight": "157.11", "Molecular Formula": "C4H10Cl2Si", "Boiling Point": "134-135 \u00b0C", "Melting Point": "40 \u00b0C", "Density": "1.040 g/cm\u00b3"}}