{"cas_no": "5926-51-2", "cn_name": "\u6eb4\u4ee3\u9a6c\u6765\u9178\u9150", "en_name": ["3-Bromo-2,5-furandione", "2,5-Furandione, 3-bromo-", "Maleic anhydride, bromo-", "3-Bromo-2,5-furandione", "Bromomaleic anhydride", "NSC 96611", "3-Bromo-2,5-dihydrofuran-2,5-dione"], "SMILES": "BrC=1C(=O)OC(=O)C1", "physical_data": {"Molecular Weight": "176.95", "Molecular Formula": "C4HBrO3", "Boiling Point": "150-152 \u00b0C @ Press: 42 Torr", "Density": "1.9642 g/cm\u00b3 @ Temp: 15.8 \u00b0C"}}