{"cas_no": "5926-26-1", "cn_name": "\u6c2f\u7532\u57fa\u4e09\u7532\u6c27\u57fa\u7845\u70f7", "en_name": ["(Chloromethyl)trimethoxysilane", "Silane, (chloromethyl)trimethoxy-", "(Chloromethyl)trimethoxysilane", "Trimethoxy(chloromethyl)silane", "Chloro(trimethoxysilyl)methane"], "SMILES": "[Si](CCl)(OC)(OC)OC", "physical_data": {"Molecular Weight": "170.67", "Molecular Formula": "C4H11ClO3Si", "Boiling Point": "156 \u00b0C", "Density": "1.125 g/cm\u00b3"}}