{"cas_no": "59277-89-3", "cn_name": "\u963f\u6614\u6d1b\u97e6", "en_name": ["Acyclovir", "6H-Purin-6-one, 2-amino-1,9-dihydro-9-[(2-hydroxyethoxy)methyl]-", "2-Amino-1,9-dihydro-9-[(2-hydroxyethoxy)methyl]-6H-purin-6-one", "Acycloguanosine", "9-(2-Hydroxyethoxymethyl)guanine", "Acyclovir", "Aciclovir", "Zovirax", "BW 248U", "ACV", "Gerpevir", "Herpevir", "Avirase", "Virorax", "Acicloftal", "Cargosil", "Vipral", "Poviral", "Zyclir", "Acyclo V", "Wellcome 248U", "NSC 645011", "BioVir I", "BioVir II", "Virovir", "Novirus", "Lovir", "Rouz-Aciclovir", "Zirax", "Virless", "Virax", "Vicclox", "Acivir", "Axiluowei", "2-Amino-9-[(2-hydroxyethoxy)methyl]-6,9-dihydro-3H-purin-6-one", "2-Amino-9-(2-hydroxy-ethoxymethyl)-1,9-dihydro-purin-6-one", "2-Amino-9-((2-hydroxyethoxy)methyl)-1H-purin-6(9H)-one", "2-Amino-9-(2-hydroxy-ethoxymethyl)-3,9-dihydro-purin-6-one", "2-Amino-9-[(2-hydroxyethoxy)methyl]-9H-purin-6-ol", "2-Amino-9-(2-hydroxyethoxymethyl)-3H-purin-6-one", "MeSH ID: D000212"], "SMILES": "C(OCCO)N1C2=C(N=C1)C(=O)N=C(N)N2", "physical_data": {"Molecular Weight": "225.20", "Molecular Formula": "C8H11N5O3", "Melting Point": "256.5-257 \u00b0C"}}