{"cas_no": "5927-18-4", "cn_name": "\u78f7\u9178\u4e59\u9178\u4e09\u7532\u916f", "en_name": ["Trimethyl phosphonoacetate", "Acetic acid, 2-(dimethoxyphosphinyl)-, methyl ester", "Acetic acid, phosphono-, trimethyl ester", "Acetic acid, (dimethoxyphosphinyl)-, methyl ester", "Methyl 2-(dimethylphosphono)acetate", "[(Methoxycarbonyl)methyl]dimethylphosphonate", "Methyl dimethylphosphonoacetate", "Trimethyl phosphonoacetate", "Phosphonoacetic acid trimethyl ester", "Dimethyl (carbomethoxymethyl)phosphonate", "Carbomethoxymethanephosphonic acid dimethyl ester", "Methyl (dimethoxyphosphinyl)acetate", "Dimethyl (methoxycarbonylmethyl)phosphonate", "(Carboxymethyl)phosphonic acid trimethyl ester", "Dimethyl methoxycarbonylmethanephosphonate", "(Dimethoxyphosphinyl)acetic acid methyl ester", "NSC 84262", "Methyl 2-(dimethoxyphosphinyl)acetate", "Methyl 2-(dimethoxyphosphoryl)acetate"], "SMILES": "P(CC(OC)=O)(OC)(OC)=O", "physical_data": {"Molecular Weight": "182.11", "Molecular Formula": "C5H11O5P", "Boiling Point": "95 \u00b0C @ Press: 0.1 Torr", "Melting Point": "242 \u00b0C", "Density": "1.3166 g/cm\u00b3 @ Temp: 20 \u00b0C"}}