{"cas_no": "59278-00-1", "cn_name": "\u963f\u6614\u6d1b\u97e6\u4fa7\u94fe", "en_name": ["Ethanol, 2-[(acetyloxy)methoxy]-, 1-acetate", "Ethanol, 2-[(acetyloxy)methoxy]-, 1-acetate", "Ethanol, 2-[(acetyloxy)methoxy]-, acetate", "Ethanol, 2-(hydroxymethoxy)-, diacetate", "2-Acetoxyethyl acetoxymethyl ether", "1,4-Diacetoxy-2-oxabutane", "(2-Acetoxyethoxy)methyl acetate", "2-Oxa-1,4-butanediol diacetate", "2-Acetoxymethoxyethyl acetate", "2-(Acetyloxymethoxy)ethyl acetate"], "SMILES": "C(OC(C)=O)COCOC(C)=O", "physical_data": {"Molecular Weight": "176.17", "Molecular Formula": "C7H12O5", "Boiling Point": "114-116 \u00b0C @ Press: 10 Torr", "Density": "1.1382 g/cm\u00b3 @ Temp: 20 \u00b0C"}}