{"cas_no": "5928-25-6", "cn_name": "\u7d2b\u82b1\u524d\u80e1\u7d20", "en_name": ["(+)-Decursin", "2-Butenoic acid, 3-methyl-, (7S)-7,8-dihydro-8,8-dimethyl-2-oxo-2H,6H-pyrano[3,2-g]-1-benzopyran-7-yl ester", "Crotonic acid, 3-methyl-, ester with 7,8-dihydro-7-hydroxy-8,8-dimethyl-2H,6H-benzo[1,2-b:5,4-b\u2032]dipyran-2-one, (+)-", "Decursin", "2-Butenoic acid, 3-methyl-, 7,8-dihydro-8,8-dimethyl-2-oxo-2H,6H-benzo[1,2-b:5,4-b\u2032]dipyran-7-yl ester, (S)-", "2-Butenoic acid, 3-methyl-, (7S)-7,8-dihydro-8,8-dimethyl-2-oxo-2H,6H-benzo[1,2-b:5,4-b\u2032]dipyran-7-yl ester", "2H,6H-Benzo[1,2-b:5,4-b\u2032]dipyran, 2-butenoic acid deriv.", "(+)-Decursin", "[(3S)-2,2-Dimethyl-8-oxo-3,4-dihydropyrano[3,2-g]chromen-3-yl] 3-methylbut-2-enoate"], "SMILES": "O(C(C=C(C)C)=O)C1CC=2C(=CC3=C(C2)C=CC(=O)O3)OC1(C)C", "physical_data": {"Molecular Weight": "328.36", "Molecular Formula": "C19H20O5", "Melting Point": "111 \u00b0C"}}