{"cas_no": "59280-70-5", "cn_name": "4-\u6c2f-2-\u6c1f-N-\u4e59\u9170\u57fa\u82ef\u80fa", "en_name": ["N-(4-Chloro-2-fluorophenyl)acetamide", "Acetamide, N-(4-chloro-2-fluorophenyl)-", "N-(4-Chloro-2-fluorophenyl)acetamide", "4\u2032-Chloro-2\u2032-fluoroacetanilide", "4-Chloro-2-fluoroacetanilide"], "SMILES": "N(C(C)=O)C1=C(F)C=C(Cl)C=C1", "physical_data": {"Molecular Weight": "187.60", "Molecular Formula": "C8H7ClFNO", "Melting Point": "47-50 \u00b0C"}}