{"cas_no": "5929-72-6", "cn_name": "2,7-\u4e8c\u7532\u57fa-3,5-\u8f9b\u4e8c\u7094-2,7-\u4e8c\u9187", "en_name": ["2,7-Dimethyl-3,5-octadiyne-2,7-diol", "3,5-Octadiyne-2,7-diol, 2,7-dimethyl-", "2,7-Dimethyl-3,5-octadiyne-2,7-diol", "1,1,6,6-Tetramethyl-2,4-hexadiyne-1,6-diol", "2,7-Dimethyl-3,5-octadiyn-2,7-diol", "NSC 14256"], "SMILES": "C(C(C)(C)O)#CC#CC(C)(C)O", "physical_data": {"Molecular Weight": "166.22", "Molecular Formula": "C10H14O2", "Boiling Point": "91-92 \u00b0C @ Press: 6 Torr", "Melting Point": "129 \u00b0C", "Density": "0.9001 g/cm\u00b3 @ Temp: 20 \u00b0C"}}