{"cas_no": "59293-67-3", "cn_name": "2,4-\u4e8c\u6c2f\u82c4\u786b\u9187", "en_name": ["2,4-Dichlorobenzenemethanethiol", "Benzenemethanethiol, 2,4-dichloro-", "\u03b1-Toluenethiol, 2,4-dichloro-", "2,4-Dichlorobenzenemethanethiol", "2,4-Dichlorobenzyl mercaptan", "2,4-Dichlorobenzyl thiol", "(2,4-Dichlorophenyl)methanethiol", "NSC 33218"], "SMILES": "C(S)C1=C(Cl)C=C(Cl)C=C1", "physical_data": {"Molecular Weight": "193.09", "Molecular Formula": "C7H6Cl2S", "Boiling Point": "151-152 \u00b0C @ Press: 29 Torr"}}