{"cas_no": "59290-82-3", "cn_name": "3-\u785d\u57fa-4-\u5421\u5576\u7fa7\u9178", "en_name": ["3-Nitroisonicotinic acid", "4-Pyridinecarboxylic acid, 3-nitro-", "Isonicotinic acid, 3-nitro-", "3-Nitro-4-pyridinecarboxylic acid", "3-Nitroisonicotinic acid", "4-Carboxy-3-nitropyridine", "3-Nitropyridine-4-carboxylic acid"], "SMILES": "C(O)(=O)C=1C(N(=O)=O)=CN=CC1", "physical_data": {"Molecular Weight": "168.11", "Molecular Formula": "C6H4N2O4", "Melting Point": "217 \u00b0C"}}