{"cas_no": "593-66-8", "cn_name": "\u7898\u5316\u4e59\u70ef", "en_name": ["Iodoethene", "Ethene, iodo-", "Ethylene, iodo-", "Iodoethene", "Vinyl iodide", "Iodoethylene"], "SMILES": "C(=C)I", "physical_data": {"Molecular Weight": "153.95", "Molecular Formula": "C2H3I", "Boiling Point": "56 \u00b0C", "Melting Point": "121 \u00b0C", "Density": "2.037 g/cm\u00b3 @ Temp: 20 \u00b0C"}}