{"cas_no": "593-08-8", "cn_name": "2-\u5341\u4e09\u70f7\u916e", "en_name": ["2-Tridecanone", "2-Tridecanone", "Methyl undecyl ketone", "Tridecanone-2", "NSC 14763"], "SMILES": "C(CCCCCCCC)CCC(C)=O", "physical_data": {"Molecular Weight": "198.34", "Molecular Formula": "C13H26O", "Boiling Point": "263 \u00b0C", "Melting Point": "30.5 \u00b0C"}}