{"cas_no": "593-45-3", "cn_name": "\u6b63\u5341\u516b\u70f7", "en_name": ["Octadecane", "Octadecane", "n-Octadecane", "C18-n-Alkane", "NSC 4201", "Cactus Normal Paraffin TS 8", "TS 8", "TS Paraffin TS 8", "RT 26", "PCM 18"], "SMILES": "C(CCCCCCCCC)CCCCCCCC", "physical_data": {"Molecular Weight": "254.49", "Molecular Formula": "C18H38", "Boiling Point": "316.3 \u00b0C", "Melting Point": "28.2 \u00b0C", "Density": "0.7786 g/cm\u00b3 @ Temp: 28 \u00b0C"}}