{"cas_no": "593-81-7", "cn_name": "\u4e09\u7532\u80fa\u76d0\u9178\u76d0", "en_name": ["Trimethylammonium chloride", "Methanamine, N,N-dimethyl-, hydrochloride (1:1)", "Trimethylamine, hydrochloride", "Methanamine, N,N-dimethyl-, hydrochloride", "Trimethylammonium chloride", "Trimethylamine monohydrochloride", "Trimethylamine hydrochloric acid", "Hegzadesil"], "SMILES": "N(C)(C)C.Cl", "physical_data": {"Molecular Weight": "", "Molecular Formula": "C3H9N.ClH", "Boiling Point": "&lt;200 \u00b0C", "Melting Point": "277.5 \u00b0C"}}