{"cas_no": "593-82-8", "cn_name": "1\uff0c1-\u4e8c\u7532\u57fa\u80bc\u76d0\u9178\u76d0", "en_name": ["Hydrazine, 1,1-dimethyl-, monohydrochloride", "Hydrazine, 1,1-dimethyl-, monohydrochloride", "1,1-Dimethylhydrazine hydrochloride", "N,N-Dimethylhydrazine hydrochloride"], "SMILES": "N(C)(C)N.Cl", "physical_data": {"Molecular Weight": "", "Molecular Formula": "C2H8N2.ClH", "Melting Point": "60 \u00b0C"}}