{"cas_no": "593-87-3", "cn_name": "\u80cd\u4e59\u9178\u76d0", "en_name": ["Guanidinium acetate", "Guanidine, acetate (1:1)", "Guanidine, monoacetate", "Guanidine, acetate", "Guanidinium acetate", "Guanidinium monoacetate"], "SMILES": "C(C)(O)=O.C(=N)(N)N", "physical_data": {"Molecular Weight": "", "Molecular Formula": "C2H4O2.CH5N3", "Melting Point": "229.0-300.0 \u00b0C"}}