{"cas_no": "593-53-3", "cn_name": "\u7532\u57fa\u6c1f", "en_name": ["Fluoromethane", "Methane, fluoro-", "Fluoromethane", "Methyl fluoride", "Freon 41", "Monofluoromethane", "HFC 41", "R 41 (refrigerant)", "R 41", "F 41", "Methyl fluoride dimer", "Fluoromethane dimer", "Freon R 41"], "SMILES": "CF", "physical_data": {"Molecular Weight": "34.03", "Molecular Formula": "CH3F", "Boiling Point": "-78.4 \u00b0C", "Density": "0.8817 g/cm\u00b3"}}