{"cas_no": "593-56-6", "cn_name": "\u7532\u6c27\u57fa\u80fa\u76d0\u9178\u76d0", "en_name": ["O-Methylhydroxylamine hydrochloride", "Hydroxylamine, O-methyl-, hydrochloride (1:1)", "Hydroxylamine, O-methyl-, hydrochloride", "Methoxyamine hydrochloride", "Methoxyammonium chloride", "Methoxylamine hydrochloride", "O-Methylhydroxylamine hydrochloride", "O-Methoxyamine hydrochloride", "N-Methoxylamine hydrochloride", "Hydroxylamine methyl ether hydrochloride", "O-Methylhydroxyamine hydrochloride", "(Aminooxy)methane hydrochloride"], "SMILES": "O(C)N.Cl", "physical_data": {"Molecular Weight": "", "Molecular Formula": "CH5NO.ClH", "Melting Point": "148-149 \u00b0C"}}