{"cas_no": "593-90-8", "cn_name": "\u7532\u57fa\u787c", "en_name": ["Trimethylboron", "Borane, trimethyl-", "Trimethylborane", "Trimethylboron"], "SMILES": "B(C)(C)C", "physical_data": {"Molecular Weight": "55.91", "Molecular Formula": "C3H9B", "Boiling Point": "-20.2 \u00b0C", "Melting Point": "-161.5 \u00b0C"}}