{"cas_no": "593-60-2", "cn_name": "\u6eb4\u4e59\u70ef", "en_name": ["Bromoethene", "Ethene, bromo-", "Ethylene, bromo-", "Bromoethene", "Vinyl bromide", "Bromoethylene", "R 1140B1"], "SMILES": "C(Br)=C", "physical_data": {"Molecular Weight": "106.95", "Molecular Formula": "C2H3Br", "Boiling Point": "15.8 \u00b0C @ Press: 760 Torr", "Melting Point": "-137.8 \u00b0C", "Density": "1.4933 g/cm\u00b3 @ Temp: 20 \u00b0C"}}