{"cas_no": "593-84-0", "cn_name": "\u786b\u6c30\u9178\u80cd", "en_name": ["Guanidine thiocyanate", "Thiocyanic acid, compd. with guanidine (1:1)", "Guanidine thiocyanate", "Guanidine, monothiocyanate", "Guanidinium thiocyanate", "Guanidine isothiocyanate", "NSC 2119", "RLT", "Buffer AVL", "Buffer ML", "Buffer MTL", "Buffer RLT", "GTC", "Guanidinium isothiocyanate"], "SMILES": "C(=N)(N)N.C(#N)S", "physical_data": {"Molecular Weight": "", "Molecular Formula": "CH5N3.CHNS", "Melting Point": "118 \u00b0C"}}