{"cas_no": "593-55-5", "cn_name": "\u4e59\u80fa\u6c22\u6eb4\u9178\u76d0", "en_name": ["Ethanamine, hydrobromide (1:1)", "Ethanamine, hydrobromide (1:1)", "Ethylamine, hydrobromide", "Ethanamine, hydrobromide", "Ethylamine monohydrobromide", "Ethylammonium bromide"], "SMILES": "C(C)N.Br", "physical_data": {"Molecular Weight": "", "Molecular Formula": "C2H7N.BrH", "Melting Point": "146 \u00b0C"}}