{"cas_no": "593-79-3", "cn_name": "\u4e8c\u7532\u57fa\u7852", "en_name": ["Dimethyl selenide", "Methane, selenobis-", "Methyl selenide", "Selenobismethane", "Methyl selenium", "Dimethyl selenide", "Dimethylselenium", "(Methylselanyl)methane"], "SMILES": "[Se](C)C", "physical_data": {"Molecular Weight": "109.03", "Molecular Formula": "C2H6Se", "Boiling Point": "55 \u00b0C", "Melting Point": "-87.2 \u00b0C", "Density": "1.4077 g/cm\u00b3 @ Temp: 14.6 \u00b0C"}}