{"cas_no": "593-50-0", "cn_name": "\u4e09\u5341\u70f7\u9187", "en_name": ["1-Triacontanol", "1-Triacontanol", "n-Triacontanol", "Myricyl alcohol", "Melissyl alcohol", "Triacontyl alcohol", "Triacontanol", "Prosopol", "Miraculan", "1-Hydroxytriacontane", "Well-Bloom", "Nutron", "Ultria", "Tomatex", "NSC 402492", "NSC 405588"], "SMILES": "C(CCCCCCCCCCCCCCC)CCCCCCCCCCCCCCO", "physical_data": {"Molecular Weight": "438.81", "Molecular Formula": "C30H62O", "Melting Point": "88 \u00b0C"}}