{"cas_no": "593-39-5", "cn_name": "\u5341\u516b\u78b36\u70ef\u9178", "en_name": ["Petroselinic acid", "6-Octadecenoic acid, (6Z)-", "6-Octadecenoic acid, (Z)-", "Petroselinic acid", "(6Z)-6-Octadecenoic acid", "cis-\u03946-Octadecenoic acid", "cis-6-Octadecenoic acid", "\u03946-cis-Octadecenoic acid", "(Z)-6-Octadecenoic acid", "cis-Petroselinic acid", "6(Z)-Octadecenoic acid", "Petroselic acid", "(6Z)-Octadecenoic acid"], "SMILES": "C(CCCCCCCCCCC)=CCCCCC(O)=O", "physical_data": {"Molecular Weight": "282.46", "Molecular Formula": "C18H34O2", "Boiling Point": "237.5 \u00b0C", "Melting Point": "29.8 \u00b0C", "Density": "0.8681 g/cm\u00b3 @ Temp: 40 \u00b0C"}}