{"cas_no": "593-03-3", "cn_name": "3-\u5341\u516d\u70f7\u9187", "en_name": ["(\u00b1)-3-Hexadecanol", "3-Hexadecanol", "(\u00b1)-3-Hexadecanol"], "SMILES": "C(CCC(CC)O)CCCCCCCCCC", "physical_data": {"Molecular Weight": "242.44", "Molecular Formula": "C16H34O", "Boiling Point": "150 \u00b0C @ Press: 4 Torr", "Melting Point": "50 \u00b0C"}}