{"cas_no": "593-49-7", "cn_name": "\u6b63\u4e8c\u5341\u4e03\u70f7", "en_name": ["Heptacosane", "Heptacosane", "n-Heptacosane"], "SMILES": "C(CCCCCCCCCCCCC)CCCCCCCCCCCCC", "physical_data": {"Molecular Weight": "380.73", "Molecular Formula": "C27H56", "Boiling Point": "442 \u00b0C", "Melting Point": "59.5 \u00b0C", "Density": "0.7730 g/cm\u00b3 @ Temp: 65 \u00b0C"}}