{"cas_no": "593-51-1", "cn_name": "\u7532\u80fa\u76d0\u9178\u76d0", "en_name": ["Methylamine hydrochloride", "Methanamine, hydrochloride (1:1)", "Methylamine, hydrochloride", "Methanamine, hydrochloride", "Methylammonium chloride", "Monomethylammonium chloride", "Methanaminium chloride", "Methylamine monohydrochloride", "Methylamine hydrochloride"], "SMILES": "CN.Cl", "physical_data": {"Molecular Weight": "", "Molecular Formula": "CH5N.ClH", "Boiling Point": "227 \u00b0C", "Melting Point": "227.5 \u00b0C"}}