{"cas_no": "593-71-5", "cn_name": "\u6c2f\u7898\u7532\u70f7", "en_name": ["Chloroiodomethane", "Methane, chloroiodo-", "Chloroiodomethane", "Chloromethyl iodide", "Iodochloromethane"], "SMILES": "C(Cl)I", "physical_data": {"Molecular Weight": "176.38", "Molecular Formula": "CH2ClI", "Boiling Point": "109 \u00b0C"}}