{"cas_no": "5930-28-9", "cn_name": "2,6-\u4e8c\u6c2f-4-\u6c28\u57fa\u82ef\u915a", "en_name": ["4-Amino-2,6-dichlorophenol", "Phenol, 4-amino-2,6-dichloro-", "4-Amino-2,6-dichlorophenol", "2,6-Dichloro-4-aminophenol", "2,6-Dichloro-p-aminophenol", "3,5-Dichloro-4-hydroxyaniline", "NSC 156835", "4-Hydroxy-3,5-dichloroaniline"], "SMILES": "OC1=C(Cl)C=C(N)C=C1Cl", "physical_data": {"Molecular Weight": "178.02", "Molecular Formula": "C6H5Cl2NO", "Melting Point": "168 \u00b0C"}}