{"cas_no": "5931-17-9", "cn_name": "1,3-\u53cc(4-\u7f9f\u57fa\u4e01\u57fa)\u56db\u7532\u57fa\u4e8c\u7845\u6c27\u70f7", "en_name": ["1,3-Bis(4-hydroxybutyl)tetramethyldisiloxane", "1-Butanol, 4,4\u2032-(1,1,3,3-tetramethyl-1,3-disiloxanediyl)bis-", "6-Oxa-5,7-disilaundecane-1,11-diol, 5,5,7,7-tetramethyl-", "4,4\u2032-(1,1,3,3-Tetramethyl-1,3-disiloxanediyl)bis[1-butanol]", "1,3-Bis(4-hydroxybutyl)-1,1,3,3-tetramethyldisiloxane", "1,3-Bis(4-hydroxybutyl)tetramethyldisiloxane"], "SMILES": "O([Si](CCCCO)(C)C)[Si](CCCCO)(C)C", "physical_data": {"Molecular Weight": "278.54", "Molecular Formula": "C12H30O3Si2", "Boiling Point": "148-150 \u00b0C @ Press: 2 Torr", "Density": "0.930 g/cm\u00b3"}}