{"cas_no": "5931-53-3", "cn_name": "\u4e8c\u82ef\u57fa(O-\u7532\u82ef\u57fa)\u81a6", "en_name": ["Diphenyl-o-tolylphosphine", "Phosphine, (2-methylphenyl)diphenyl-", "Phosphine, diphenyl-o-tolyl-", "(2-Methylphenyl)diphenylphosphine", "Diphenyl-o-tolylphosphine", "(o-Methylphenyl)diphenylphosphine", "Diphenyl(2-tolyl)phosphine", "o-Tolyldiphenylphosphine", "(2-Methylphenyl)-diphenylphosphane"], "SMILES": "P(C1=C(C)C=CC=C1)(C2=CC=CC=C2)C3=CC=CC=C3", "physical_data": {"Molecular Weight": "276.31", "Molecular Formula": "C19H17P", "Melting Point": "67-68 \u00b0C"}}