{"cas_no": "5932-53-6", "cn_name": "6-\u7f9f\u57fa\u6258\u54c1\u916e", "en_name": ["(\u00b1)-6\u03b2-Hydroxytropinone", "8-Azabicyclo[3.2.1]octan-3-one, 6-hydroxy-8-methyl-, (1R,5R,6S)-rel-", "1\u03b1H,5\u03b1H-Tropan-3-one, 6\u03b2-hydroxy-", "8-Azabicyclo[3.2.1]octan-3-one, 6-hydroxy-8-methyl-, exo-", "Tropinone, 6\u03b2-hydroxy-", "rel-(1R,5R,6S)-6-Hydroxy-8-methyl-8-azabicyclo[3.2.1]octan-3-one", "(\u00b1)-6\u03b2-Hydroxytropan-3-one", "(\u00b1)-6\u03b2-Hydroxytropinone"], "SMILES": "CN1C2CC(O)C1CC(=O)C2", "physical_data": {"Molecular Weight": "155.19", "Molecular Formula": "C8H13NO2", "Melting Point": "120-121 \u00b0C"}}