{"cas_no": "5932-79-6", "cn_name": "4-\u58ec\u9187", "en_name": ["4-Nonanol", "4-Nonanol", "dl-Nonan-4-ol", "(\u00b1)-4-Nonanol"], "SMILES": "C(C(CCC)O)CCCC", "physical_data": {"Molecular Weight": "144.25", "Molecular Formula": "C9H20O", "Boiling Point": "192-193 \u00b0C @ Press: 769 Torr", "Density": "0.8263 g/cm\u00b3 @ Temp: 20 \u00b0C"}}