{"cas_no": "5932-30-9", "cn_name": "5-\u82ef\u57fa\u5421\u5511-3-\u7fa7\u9178\u4e59\u916f", "en_name": ["1H-Pyrazole-3-carboxylic acid, 5-phenyl-, ethyl ester", "1H-Pyrazole-3-carboxylic acid, 5-phenyl-, ethyl ester", "Pyrazole-3-carboxylic acid, 5-phenyl-, ethyl ester", "Pyrazole-3(or 5)-carboxylic acid, 5(or 3)-phenyl-, ethyl ester", "5-Phenyl-2H-pyrazole-3-carboxylic acid ethyl ester", "Ethyl 3-phenyl-1H-pyrazole-5-carboxylate", "Ethyl 5-phenyl-1H-pyrazole-3-carboxylate", "5-Phenyl-1H-pyrazole-3-carboxylic acid ethyl ester", "3-Ethoxycarbonyl-5-phenylpyrazole"], "SMILES": "C(OCC)(=O)C=1C=C(NN1)C2=CC=CC=C2", "physical_data": {"Molecular Weight": "216.24", "Molecular Formula": "C12H12N2O2", "Melting Point": "140 \u00b0C"}}