{"cas_no": "5932-32-1", "cn_name": "1,4,5,6-\u56db\u6c22-\u73af\u620a\u70f7-3-\u7fa7\u9178", "en_name": ["1,4,5,6-Tetrahydro-3-cyclopentapyrazolecarboxylic acid", "3-Cyclopentapyrazolecarboxylic acid, 1,4,5,6-tetrahydro-", "1,4,5,6-Tetrahydro-3-cyclopentapyrazolecarboxylic acid", "1,4,5,6-Tetrahydrocyclopentapyrazole-3-carboxylic acid", "1,4,5,6-Tetrahydrocyclopenta[c]pyrazole-3-carboxylic acid", "1H,4H,5H,6H-Cyclopenta[c]pyrazole-3-carboxylic acid"], "SMILES": "C(O)(=O)C=1C2=C(NN1)CCC2", "physical_data": {"Molecular Weight": "152.15", "Molecular Formula": "C7H8N2O2", "Melting Point": "245-248 \u00b0C"}}