{"cas_no": "5932-20-7", "cn_name": "3-\u6eb4-4-\u7532\u57fa-1H-\u5421\u5511", "en_name": ["3-Bromo-4-methyl-1H-pyrazole", "1H-Pyrazole, 3-bromo-4-methyl-", "Pyrazole, 3-bromo-4-methyl-", "3-Bromo-4-methyl-1H-pyrazole"], "SMILES": "CC=1C(Br)=NNC1", "physical_data": {"Molecular Weight": "161.00", "Molecular Formula": "C4H5BrN2", "Melting Point": "127-128 \u00b0C"}}