{"cas_no": "59320-13-7", "cn_name": "4-\u6c2f-N-(2-\u7f9f\u57fa\u4e59\u57fa)-2-\u785d\u57fa\u82ef\u80fa", "en_name": ["HC Yellow 12", "Ethanol, 2-[(4-chloro-2-nitrophenyl)amino]-", "Ethanol, 2-(4-chloro-2-nitroanilino)-", "2-[(4-Chloro-2-nitrophenyl)amino]ethanol", "HC Yellow No. 12", "HC Yellow 12", "2-(4-Chloro-2-nitroanilino)ethanol", "2-[(4-Chloro-2-nitrophenyl)amino]ethan-1-ol"], "SMILES": "N(CCO)C1=C(N(=O)=O)C=C(Cl)C=C1", "physical_data": {"Molecular Weight": "216.62", "Molecular Formula": "C8H9ClN2O3", "Melting Point": "107 \u00b0C"}}