{"cas_no": "5932-34-3", "cn_name": "4-\u6eb4-1H-\u5421\u5511-3-\u7fa7\u9178\u4e59\u916f", "en_name": ["1H-Pyrazole-3-carboxylic acid, 4-bromo-, ethyl ester", "1H-Pyrazole-3-carboxylic acid, 4-bromo-, ethyl ester", "Pyrazole-3-carboxylic acid, 4-bromo-, ethyl ester", "Pyrazole-3(or 5)-carboxylic acid, 4-bromo-, ethyl ester", "Ethyl 4-bromo-1H-pyrazole-3-carboxylate"], "SMILES": "C(OCC)(=O)C=1C(Br)=CNN1", "physical_data": {"Molecular Weight": "219.04", "Molecular Formula": "C6H7BrN2O2", "Melting Point": "185-187 \u00b0C"}}