{"cas_no": "59320-77-3", "cn_name": "(E)-8-\u7532\u57fa-6-\u58ec\u70ef\u9178", "en_name": ["(6E)-8-Methyl-6-nonenoic acid", "6-Nonenoic acid, 8-methyl-, (6E)-", "6-Nonenoic acid, 8-methyl-, (E)-", "(6E)-8-Methyl-6-nonenoic acid", "8-Methylnon-trans-6-enoic acid", "trans-8-Methylnon-6-enoic acid", "(E)-8-Methyl-6-nonenoic acid"], "SMILES": "C(=CC(C)C)CCCCC(O)=O", "physical_data": {"Molecular Weight": "170.25", "Molecular Formula": "C10H18O2", "Boiling Point": "130-132 \u00b0C @ Press: 12 Torr"}}