{"cas_no": "59338-93-1", "cn_name": "\u963f\u7acb\u5fc5\u5229", "en_name": ["Alizapride", "1H-Benzotriazole-5-carboxamide, 6-methoxy-N-[[1-(2-propen-1-yl)-2-pyrrolidinyl]methyl]-", "1H-Benzotriazole-5-carboxamide, 6-methoxy-N-[[1-(2-propenyl)-2-pyrrolidinyl]methyl]-", "6-Methoxy-N-[[1-(2-propen-1-yl)-2-pyrrolidinyl]methyl]-1H-benzotriazole-5-carboxamide", "Alizapride"], "SMILES": "O(C)C=1C=C2C(=CC1C(NCC3N(CC=C)CCC3)=O)N=NN2", "physical_data": {"Molecular Weight": "315.37", "Molecular Formula": "C16H21N5O2", "Melting Point": "139 \u00b0C"}}