{"cas_no": "5933-32-4", "cn_name": "\u5bf9\u6eb4\u82ef\u7532\u9170\u80bc", "en_name": ["4-Bromobenzoic acid hydrazide", "Benzoic acid, 4-bromo-, hydrazide", "Benzoic acid, p-bromo-, hydrazide", "p-Bromobenzoic acid hydrazide", "4-Bromobenzhydrazide", "p-Bromobenzohydrazide", "4-Bromobenzohydrazide", "4-Bromobenzoic acid hydrazide", "(4-Bromobenzoyl)hydrazine", "p-Bromobenzoic hydrazide", "(p-Bromobenzoyl)hydrazine", "4-Bromobenzenecarboxylic acid hydrazide", "p-Bromobenzhydrazide", "4-Bromobenzoyl hydrazide", "NSC 60114", "INHd 16", "4-Bromobenzoic hydrazide"], "SMILES": "C(NN)(=O)C1=CC=C(Br)C=C1", "physical_data": {"Molecular Weight": "215.05", "Molecular Formula": "C7H7BrN2O", "Melting Point": "165-167 \u00b0C"}}