{"cas_no": "5933-40-4", "cn_name": "R-N-\u7532\u57fa-\u82ef\u4e59\u80fa", "en_name": ["(R)-(+)-N-Methyl-1-phenylethylamine", "Benzenemethanamine, N,\u03b1-dimethyl-, (\u03b1R)-", "Benzenemethanamine, N,\u03b1-dimethyl-, (R)-", "Benzylamine, N,\u03b1-dimethyl-, (R)-(+)-", "(\u03b1R)-N,\u03b1-Dimethylbenzenemethanamine", "R-(+)-N,\u03b1-Dimethylbenzylamine", "D-(+)-N-Methyl-N-(\u03b1-phenylethyl)amine", "(R)-N-Methyl-1-phenylethylamine", "(R)-(+)-N-Methyl-1-phenylethylamine", "N-Methyl-N-((1R)-1-phenylethyl)amine", "(1R)-N-Methyl-1-phenylethylamine", "N-Methyl-(R)-\u03b1-methylbenzylamine", "(R)-N-Methyl-N-(\u03b1-methylbenzyl)amine", "(R)-N-Methyl-\u03b1-methylbenzylamine", "(R)-N-Methyl-1-phenylethanamine", "(R)-N-Methyl-\u03b1-methylbenzenemethanamine", "Methyl-((R)-1-phenylethyl)amine", "(R)-N-Methyl-\u03b1-methylbenzylamine", "(R)-N-Methyl-1-phenylethylamine", "(R)-N-Methyl-1-phenylethan-1-amine", "(1R)-N-Methyl-1-phenylethanamine", "(R)-N-Methyl-1-phenylethanamine", "N-Methyl-(R)-\u03b1-methylbenzylamine"], "SMILES": "C(NC)(C)C1=CC=CC=C1", "physical_data": {"Molecular Weight": "135.21", "Molecular Formula": "C9H13N", "Boiling Point": "83 \u00b0C @ Press: 12 Torr"}}