{"cas_no": "59337-93-8", "cn_name": "Methyl 3-aminosulfonylthiophene-2-carboxylate", "en_name": ["2-Thiophenecarboxylic acid, 3-(aminosulfonyl)-, methyl ester", "2-Thiophenecarboxylic acid, 3-(aminosulfonyl)-, methyl ester", "3-Sulfamoyl-2-(methoxycarbonyl)thiophene", "Methyl 3-(aminosulfonyl)-2-thiophenecarboxylate", "Methyl 3-sulfamoyl-2-thiophenecarboxylate", "2-(Methoxycarbonyl)thiophene-3-sulfonamide", "3-Sulfamoyl-thiophene-2-carboxylic acid methyl ester"], "SMILES": "S(N)(=O)(=O)C1=C(C(OC)=O)SC=C1", "physical_data": {"Molecular Weight": "221.25", "Molecular Formula": "C6H7NO4S2", "Melting Point": "123-124 \u00b0C"}}