{"cas_no": "59337-92-7", "cn_name": "3-\u6c2f\u78fa\u9170\u57fa-2-\u567b\u5429\u7532\u9178\u7532\u916f", "en_name": ["Methyl 3-(chlorosulfonyl)-2-thiophenecarboxylate", "2-Thiophenecarboxylic acid, 3-(chlorosulfonyl)-, methyl ester", "Methyl 3-(chlorosulfonyl)-2-thiophenecarboxylate", "3-(Chlorosulfonyl)-2-(methoxycarbonyl)thiophene", "2-(Carbomethoxy)thiophene-3-sulfonyl chloride", "2-Methoxycarbonyl-3-thiophenesulfonyl chloride", "3-Chlorosulfonylthiophene-2-carboxylic acid methyl ester"], "SMILES": "S(Cl)(=O)(=O)C1=C(C(OC)=O)SC=C1", "physical_data": {"Molecular Weight": "240.68", "Molecular Formula": "C6H5ClO4S2", "Melting Point": "63-64 \u00b0C"}}