{"cas_no": "5934-29-2", "cn_name": "L-\u76d0\u9178\u7ec4\u6c28\u9178\u4e00\u6c34\u7269", "en_name": ["L-Histidine hydrochloride monohydrate", "L-Histidine, hydrochloride, hydrate (1:1:1)", "Histidine, monohydrochloride, monohydrate, L-", "L-Histidine, monohydrochloride, monohydrate", "L-Histidine hydrochloride monohydrate", "L-Histidine monohydrate monohydrochloride"], "SMILES": "C(C(C(O)=O)N)C1=CN=CN1.Cl.O", "physical_data": {"Molecular Weight": "", "Molecular Formula": "C6H9N3O2.ClH.H2O", "Melting Point": "251-252 \u00b0C (decomp)"}}