{"cas_no": "59340-27-1", "cn_name": "1,3,5-\u4e09\u7532\u57fa-1H-\u5421\u5511-4-\u78fa\u9170\u6c2f", "en_name": ["1,3,5-Trimethyl-1H-pyrazole-4-sulfonyl chloride", "1H-Pyrazole-4-sulfonyl chloride, 1,3,5-trimethyl-", "Pyrazole-4-sulfonyl chloride, 1,3,5-trimethyl-", "1,3,5-Trimethyl-1H-pyrazole-4-sulfonyl chloride", "1,3,5-Trimethyl-4-pyrazolesulfonyl chloride"], "SMILES": "S(Cl)(=O)(=O)C1=C(C)N(C)N=C1C", "physical_data": {"Molecular Weight": "208.67", "Molecular Formula": "C6H9ClN2O2S", "Melting Point": "133-135 \u00b0C"}}