{"cas_no": "59352-90-8", "cn_name": "2,3-\u4e8c\u6c2f\u57fa-5-\u6eb4-6-\u7532\u57fa\u5421\u5576", "en_name": ["5-Bromo-6-methyl-2,3-pyridinediamine", "2,3-Pyridinediamine, 5-bromo-6-methyl-", "2-Picoline, 5,6-diamino-3-bromo-", "5-Bromo-6-methyl-2,3-pyridinediamine", "3-Bromo-5,6-diamino-2-picoline", "5-Bromo-6-methylpyridine-2,3-diamine", "2,3-Diamino-5-bromo-6-methylpyridine"], "SMILES": "BrC1=C(C)N=C(N)C(N)=C1", "physical_data": {"Molecular Weight": "202.05", "Molecular Formula": "C6H8BrN3", "Melting Point": "135-137 \u00b0C"}}