{"cas_no": "59377-20-7", "cn_name": "\u5f02\u6c30\u91782-\u82ef\u6c27\u57fa\u82ef\u916f", "en_name": ["2-Phenoxyphenylisocyanate", "Benzene, 1-isocyanato-2-phenoxy-", "Isocyanic acid, o-phenoxyphenyl ester", "1-Isocyanato-2-phenoxybenzene", "2-Phenoxyphenylisocyanate", "o-Phenoxyphenyl isocyanate"], "SMILES": "O(C1=C(N=C=O)C=CC=C1)C2=CC=CC=C2", "physical_data": {"Molecular Weight": "211.22", "Molecular Formula": "C13H9NO2", "Boiling Point": "162-164 \u00b0C @ Press: 14 Torr"}}