{"cas_no": "594-70-7", "cn_name": "2-\u7532\u57fa-2-\u785d\u57fa\u4e19\u70f7", "en_name": ["2-Methyl-2-nitropropane", "Propane, 2-methyl-2-nitro-", "2-Methyl-2-nitropropane", "Trimethylnitromethane", "2-Nitroisobutane", "1,1-Dimethyl-1-nitroethane", "2-Nitro-2-methylpropane", "NSC 3651"], "SMILES": "C(N(=O)=O)(C)(C)C", "physical_data": {"Molecular Weight": "103.12", "Molecular Formula": "C4H9NO2", "Boiling Point": "127.16 \u00b0C", "Melting Point": "26.23 \u00b0C"}}