{"cas_no": "594-56-9", "cn_name": "2,3,3-\u4e09\u4e59\u57fa-1-\u4e01\u70ef", "en_name": ["2,3,3-Trimethyl-1-butene", "1-Butene, 2,3,3-trimethyl-", "2,3,3-Trimethyl-1-butene", "Triptene", "1-Methyl-1-tert-butylethylene", "2,3,3-Trimethylbutene", "2-tert-Butylpropene", "1-Methyl-1-tert-butylethene", "1-tert-Butyl-1-methylethylene", "2,2,3-Trimethylbutene", "NSC 73922"], "SMILES": "C(C(C)=C)(C)(C)C", "physical_data": {"Molecular Weight": "98.19", "Molecular Formula": "C7H14", "Boiling Point": "77.9 \u00b0C", "Melting Point": "-109.9 \u00b0C", "Density": "0.7235 g/cm\u00b3 @ Temp: 40 \u00b0C"}}