{"cas_no": "594-36-5", "cn_name": "2-\u6c2f\u4ee3-2-\u7532\u57fa\u4e01\u70f7", "en_name": ["2-Chloro-2-methylbutane", "Butane, 2-chloro-2-methyl-", "2-Chloro-2-methylbutane", "tert-Pentyl chloride", "tert-Amyl chloride", "1,1-Dimethylpropyl chloride", "2-Methyl-2-chlorobutane", "NSC 7900", "1,1-Dimethyl-chloropropane"], "SMILES": "C(CC)(C)(C)Cl", "physical_data": {"Molecular Weight": "106.59", "Molecular Formula": "C5H11Cl", "Boiling Point": "85.5 \u00b0C", "Melting Point": "-73.5 \u00b0C", "Density": "0.8709 g/cm\u00b3"}}