{"cas_no": "594-42-3", "cn_name": "\u5168\u6c2f\u7532\u786b\u9187", "en_name": ["Trichloromethanesulfenyl chloride", "Methanesulfenyl chloride, trichloro-", "Trichloromethanesulfenyl chloride", "Perchloromethyl mercaptan", "Trichloromethanesulphenyl chloride", "(Trichloromethyl)sulfenyl chloride", "Perchloromethanethiol", "NSC 66404", "Trichloromethylsulfanyl chloride"], "SMILES": "C(SCl)(Cl)(Cl)Cl", "physical_data": {"Molecular Weight": "185.89", "Molecular Formula": "CCl4S", "Boiling Point": "147.5 \u00b0C", "Density": "1.7 g/cm\u00b3 @ Temp: 20 \u00b0C"}}