{"cas_no": "594-60-5", "cn_name": "2,3-\u4e8c\u7532\u57fa-2-\u4e01\u9187", "en_name": ["2,3-Dimethyl-2-butanol", "2-Butanol, 2,3-dimethyl-", "2,3-Dimethyl-2-butanol", "Thexyl alcohol", "Isopropyldimethylcarbinol", "Dimethylisopropylcarbinol", "NSC 2312"], "SMILES": "C(C(C)C)(C)(C)O", "physical_data": {"Molecular Weight": "102.17", "Molecular Formula": "C6H14O", "Boiling Point": "118.4 \u00b0C", "Melting Point": "-14 \u00b0C", "Density": "0.8294 g/cm\u00b3 @ Temp: 420 \u00b0C"}}