{"cas_no": "594-65-0", "cn_name": "2,2,2-\u4e09\u6c2f\u4e59\u9170\u80fa", "en_name": ["Trichloroacetamide", "Acetamide, 2,2,2-trichloro-", "2,2,2-Trichloroacetamide", "Trichloroacetamide", "\u03b1,\u03b1,\u03b1-Trichloroacetamide", "NSC 16599", "Trichloroacetamidate"], "SMILES": "C(C(N)=O)(Cl)(Cl)Cl", "physical_data": {"Molecular Weight": "162.40", "Molecular Formula": "C2H2Cl3NO", "Boiling Point": "240 \u00b0C", "Melting Point": "142 \u00b0C"}}