{"cas_no": "594-10-5", "cn_name": "\u4e09\u7532\u57fa\u9511", "en_name": ["Trimethylantimony", "Stibine, trimethyl-", "Trimethylstibine", "Trimethylantimony"], "SMILES": "[Sb](C)(C)C", "physical_data": {"Molecular Weight": "", "Molecular Formula": "C3H9Sb", "Boiling Point": "80.6 \u00b0C", "Melting Point": "-62 \u00b0C"}}