{"cas_no": "594-44-5", "cn_name": "\u4e59\u57fa\u78fa\u9170\u6c2f", "en_name": ["Ethanesulfonyl chloride", "Ethanesulfonyl chloride", "Ethylsulfonyl chloride", "1-Ethanesulfonyl chloride", "Ethylsulfuryl chloride", "NSC 8649", "Chloroethylsulfone"], "SMILES": "S(CC)(Cl)(=O)=O", "physical_data": {"Molecular Weight": "128.58", "Molecular Formula": "C2H5ClO2S", "Boiling Point": "174 \u00b0C", "Density": "1.351 g/cm\u00b3 @ Temp: 24 \u00b0C"}}