{"cas_no": "594-45-6", "cn_name": "\u4e59\u57fa\u78fa\u9178", "en_name": ["Ethanesulfonic acid", "Ethanesulfonic acid", "Ethylsulfonic acid", "1-Ethanesulfonic acid"], "SMILES": "S(CC)(=O)(=O)O", "physical_data": {"Molecular Weight": "110.13", "Molecular Formula": "C2H6O3S", "Boiling Point": "123 \u00b0C", "Melting Point": "-17 \u00b0C", "Density": "1.2889 g/cm\u00b3 @ Temp: 75 \u00b0C"}}