{"cas_no": "594-09-2", "cn_name": "\u4e09\u7532\u57fa\u81a6", "en_name": ["Trimethylphosphine", "Phosphine, trimethyl-", "Trimethylphosphine", "Trimethylphosphorus"], "SMILES": "P(C)(C)C", "physical_data": {"Molecular Weight": "76.08", "Molecular Formula": "C3H9P", "Boiling Point": "37.5 \u00b0C", "Melting Point": "-85 \u00b0C"}}