{"cas_no": "594-30-9", "cn_name": "\u4e09\u82ef\u57fa\u4e8c\u6c2f\u5316\u94cb", "en_name": ["Triphenylbismuth dichloride", "Bismuth, dichlorotriphenyl-", "Bismuthine, triphenyl-, dichloride", "Dichlorotriphenylbismuth", "Triphenylbismuth dichloride", "NSC 173027"], "SMILES": "[Bi](Cl)(Cl)(C1=CC=CC=C1)(C2=CC=CC=C2)C3=CC=CC=C3", "physical_data": {"Molecular Weight": "", "Molecular Formula": "C18H15BiCl2", "Melting Point": "149-150 \u00b0C"}}