{"cas_no": "594-68-3", "cn_name": "\u4e09\u7898\u918b\u9178", "en_name": ["2,2,2-Triiodoacetic acid", "Acetic acid, 2,2,2-triiodo-", "Acetic acid, triiodo-", "2,2,2-Triiodoacetic acid", "Triiodoacetic acid", "Triiododoacetic acid"], "SMILES": "C(C(O)=O)(I)(I)I", "physical_data": {"Molecular Weight": "437.74", "Molecular Formula": "C2HI3O2", "Melting Point": "150 \u00b0C (decomp)"}}