{"cas_no": "594-61-6", "cn_name": "2-\u7532\u57fa-2-\u7f9f\u57fa\u4e19\u9178", "en_name": ["2-Hydroxyisobutyric acid", "Propanoic acid, 2-hydroxy-2-methyl-", "Lactic acid, 2-methyl-", "Isobutyric acid, \u03b1-hydroxy-", "2-Hydroxy-2-methylpropanoic acid", "\u03b1-Hydroxyisobutyric acid", "2-Hydroxyisobutyric acid", "2-Hydroxy-2-methylpropionic acid", "2-Methyllactic acid", "Hydroxydimethylacetic acid", "Acetonic acid", "\u03b1-Hydroxyisobutanoic acid", "\u03b1-Hydroxy-\u03b1-methylpropanoic acid", "\u03b1-HIB", "NSC 402158", "NSC 4505", "2,2-Dimethylglycolic acid", "Alpha-hydroxyisobutanoic acid", "2-Hydroxyisobutanoic acid"], "SMILES": "C(C(O)=O)(C)(C)O", "physical_data": {"Molecular Weight": "104.10", "Molecular Formula": "C4H8O3", "Boiling Point": "212 \u00b0C", "Melting Point": "82.5 \u00b0C"}}