{"cas_no": "594-27-4", "cn_name": "\u56db\u7532\u57fa\u9521", "en_name": ["Tetramethyltin", "Stannane, tetramethyl-", "Tin, tetramethyl-", "Tetramethylstannane", "Tetramethyltin"], "SMILES": "[Sn](C)(C)(C)C", "physical_data": {"Molecular Weight": "178.85", "Molecular Formula": "C4H12Sn", "Boiling Point": "78 \u00b0C", "Melting Point": "-54.8 \u00b0C", "Density": "1.291 g/cm\u00b3"}}