{"cas_no": "594-34-3", "cn_name": "1,2-\u4e8c\u6eb4-2-\u7532\u57fa\u4e19\u70f7", "en_name": ["2-Bromoisobutyl bromide", "Propane, 1,2-dibromo-2-methyl-", "1,2-Dibromo-2-methylpropane", "Isobutylene bromide", "NSC 9233", "2-Bromoisobutyl bromide"], "SMILES": "C(CBr)(Br)(C)C", "physical_data": {"Molecular Weight": "215.91", "Molecular Formula": "C4H8Br2", "Boiling Point": "150 \u00b0C", "Melting Point": "10.5 \u00b0C", "Density": "1.7628 g/cm\u00b3 @ Temp: 20 \u00b0C"}}