{"cas_no": "594-20-7", "cn_name": "2,2-\u4e8c\u6c2f\u4e19\u70f7", "en_name": ["2,2-Dichloropropane", "Propane, 2,2-dichloro-", "2,2-Dichloropropane", "Dimethyldichloromethane", "Dichlorodimethylmethane", "R 270aa"], "SMILES": "C(C)(C)(Cl)Cl", "physical_data": {"Molecular Weight": "112.99", "Molecular Formula": "C3H6Cl2", "Boiling Point": "69.3 \u00b0C", "Melting Point": "-33.8 \u00b0C"}}