{"cas_no": "594-39-8", "cn_name": "\u53d4\u620a\u57fa\u80fa", "en_name": ["tert-Amylamine", "2-Butanamine, 2-methyl-", "tert-Pentylamine", "2-Methyl-2-butanamine", "tert-Amylamine", "1,1-Dimethylpropylamine", "\u03b1,\u03b1-Dimethylpropylamine", "2-Amino-2-methylbutane"], "SMILES": "C(CC)(C)(C)N", "physical_data": {"Molecular Weight": "87.16", "Molecular Formula": "C5H13N", "Boiling Point": "77 \u00b0C", "Melting Point": "-105 \u00b0C"}}