{"cas_no": "594-89-8", "cn_name": "1,1,1,2,2,3,3-\u4e03\u6c2f\u4e19\u70f7", "en_name": ["1,1,1,2,2,3,3-Heptachloropropane", "Propane, 1,1,1,2,2,3,3-heptachloro-", "1,1,1,2,2,3,3-Heptachloropropane", "1,1,2,2,3,3,3-Heptachloropropane", "NSC 7298"], "SMILES": "C(C(Cl)(Cl)Cl)(C(Cl)Cl)(Cl)Cl", "physical_data": {"Molecular Weight": "285.21", "Molecular Formula": "C3HCl7", "Boiling Point": "247.5 \u00b0C", "Melting Point": "29.4 \u00b0C", "Density": "1.8048 g/cm\u00b3 @ Temp: 34 \u00b0C"}}