{"cas_no": "594-82-1", "cn_name": "\u516d\u7532\u57fa\u4e59\u70f7", "en_name": ["2,2,3,3-Tetramethylbutane", "Butane, 2,2,3,3-tetramethyl-", "2,2,3,3-Tetramethylbutane", "Ethane, hexamethyl-", "Hexamethylethane", "Tetramethylbutane", "NSC 62039"], "SMILES": "C(C(C)(C)C)(C)(C)C", "physical_data": {"Molecular Weight": "114.23", "Molecular Formula": "C8H18", "Boiling Point": "106.4 \u00b0C", "Melting Point": "100.7 \u00b0C", "Density": "0.823 g/cm\u00b3 @ Temp: 23 \u00b0C"}}