{"cas_no": "594-72-9", "cn_name": "1\uff0c1-\u4e8c\u6c2f-1-\u785d\u57fa\u4e59\u70f7", "en_name": ["1,1-Dichloro-1-nitroethane", "Ethane, 1,1-dichloro-1-nitro-", "1,1-Dichloro-1-nitroethane", "Ethide", "1-Nitro-1,1-dichloroethane", "NSC 6283"], "SMILES": "C(N(=O)=O)(C)(Cl)Cl", "physical_data": {"Molecular Weight": "143.96", "Molecular Formula": "C2H3Cl2NO2", "Boiling Point": "124 \u00b0C", "Density": "1.4271 g/cm\u00b3 @ Temp: 20 \u00b0C"}}