{"cas_no": "594-71-8", "cn_name": "2-\u6c2f-2-\u785d\u57fa\u4e19\u70f7", "en_name": ["2-Chloro-2-nitropropane", "Propane, 2-chloro-2-nitro-", "2-Chloro-2-nitropropane", "NSC 3642"], "SMILES": "C(N(=O)=O)(C)(C)Cl", "physical_data": {"Molecular Weight": "123.54", "Molecular Formula": "C3H6ClNO2", "Boiling Point": "132 \u00b0C", "Density": "1.230 g/cm\u00b3 @ Temp: 19 \u00b0C"}}