{"cas_no": "594-31-0", "cn_name": "\u4e09\u82ef\u57fa\u4e8c\u6c2f\u5316\u9511", "en_name": ["Dichlorotriphenylantimony", "Antimony, dichlorotriphenyl-", "Stibine, triphenyl-, dichloride", "Dichlorotriphenylantimony", "Dichlorotriphenylstibine", "Triphenylantimony dichloride", "Triphenylstibine dichloride", "Dichlorotriphenylstiborane", "NSC 179782", "NSC 432", "Triphenylantimony(V) dichloride"], "SMILES": "[Sb](Cl)(Cl)(C1=CC=CC=C1)(C2=CC=CC=C2)C3=CC=CC=C3", "physical_data": {"Molecular Weight": "", "Molecular Formula": "C18H15Cl2Sb", "Melting Point": "143-145 \u00b0C"}}