{"cas_no": "594-37-6", "cn_name": "1,2-\u4e8c\u6c2f-2-\u7532\u57fa\u4e19\u70f7", "en_name": ["1,2-Dichloro-2-methylpropane", "Propane, 1,2-dichloro-2-methyl-", "1,2-Dichloro-2-methylpropane", "(Chloromethyl)chlorodimethylmethane", "NSC 166449", "2-Methyl-1,2-dichloropropane", "1,2-Dichloroisobutane"], "SMILES": "C(CCl)(C)(C)Cl", "physical_data": {"Molecular Weight": "127.01", "Molecular Formula": "C4H8Cl2", "Boiling Point": "106.5 \u00b0C", "Density": "1.093 g/cm\u00b3 @ Temp: 20 \u00b0C"}}