{"cas_no": "594-16-1", "cn_name": "2,2-\u4e8c\u6eb4\u4e19\u70f7", "en_name": ["2,2-Dibromopropane", "Propane, 2,2-dibromo-", "2,2-Dibromopropane"], "SMILES": "C(Br)(Br)(C)C", "physical_data": {"Molecular Weight": "201.89", "Molecular Formula": "C3H6Br2", "Boiling Point": "115 \u00b0C", "Density": "1.880 g/cm\u00b3 @ Temp: 20 \u00b0C"}}