{"cas_no": "59414-23-2", "cn_name": "1-\u7532\u6c27\u57fa-3-\u4e09\u7532\u57fa\u7845\u6c27\u57fa-1,3-\u4e01\u4e8c\u70ef", "en_name": ["[(3-Methoxy-1-methylene-2-propen-1-yl)oxy]trimethylsilane", "Silane, [(3-methoxy-1-methylene-2-propen-1-yl)oxy]trimethyl-", "Silane, [(3-methoxy-1-methylene-2-propenyl)oxy]trimethyl-", "[(3-Methoxy-1-methylene-2-propen-1-yl)oxy]trimethylsilane", "1-Methoxy-3-(trimethylsiloxy)-1,3-butadiene", "1-Methoxy-3-(trimethylsiloxy)butadiene", "1-Methoxy-3-trimethylsilyloxy-1,3-butadiene", "4-Methoxy-2-trimethylsiloxy-1,3-butadiene", "[(3-Methoxy-1-methylene-2-propenyl)oxy]trimethylsilane"], "SMILES": "O(C(C=COC)=C)[Si](C)(C)C", "physical_data": {"Molecular Weight": "172.30", "Molecular Formula": "C8H16O2Si", "Boiling Point": "65-70 \u00b0C @ Press: 7 Torr"}}