{"cas_no": "5941-55-9", "cn_name": "3-\u4e59\u6c27\u57fa\u4e19\u70ef\u9178\u4e59\u916f", "en_name": ["Ethyl (2E)-3-ethoxy-2-propenoate", "2-Propenoic acid, 3-ethoxy-, ethyl ester, (2E)-", "2-Propenoic acid, 3-ethoxy-, ethyl ester, (E)-", "Ethyl (2E)-3-ethoxy-2-propenoate", "Ethyl (E)-3-ethoxy-2-propenoate", "Ethyl trans-3-ethoxyacrylate", "(E)-Ethyl 3-ethoxyacrylate", "Ethyl (E)-3-ethoxyprop-2-enoate", "Ethyl (2E)-3-ethoxyprop-2-enoate", "Ethyl (E)-3-ethoxyacrylate", "(E)-Ethyl 3-ethoxyacrylate"], "SMILES": "C(C(OCC)=O)=COCC", "physical_data": {"Molecular Weight": "144.17", "Molecular Formula": "C7H12O3", "Boiling Point": "60 \u00b0C @ Press: 1.8 Torr", "Density": "0.9973 g/cm\u00b3 @ Temp: 20 \u00b0C"}}