{"cas_no": "5943-34-0", "cn_name": "\u4e8c\u5f02\u4e19\u57fa\u4e09\u786b\u919a", "en_name": ["Diisopropyl trisulfide", "Trisulfide, bis(1-methylethyl)", "Isopropyl trisulfide", "Bis(1-methylethyl) trisulfide", "Diisopropyl trisulfide", "2,6-Dimethyl-3,4,5-trithiaheptane", "2-(Propan-2-yltrisulfanyl)propane"], "SMILES": "S(SC(C)C)SC(C)C", "physical_data": {"Molecular Weight": "182.37", "Molecular Formula": "C6H14S3", "Boiling Point": "75.6 \u00b0C @ Press: 5 Torr"}}