{"cas_no": "59430-62-5", "cn_name": "2-(4-\u6c28\u57fa\u82ef\u57fa)\u4e19\u9178", "en_name": ["4-Amino-\u03b1-methylbenzeneacetic acid", "Benzeneacetic acid, 4-amino-\u03b1-methyl-", "Hydratropic acid, p-amino-", "4-Amino-\u03b1-methylbenzeneacetic acid", "2-(p-Aminophenyl)propionic acid", "\u03b1-(p-Aminophenyl)propionic acid", "p-Amino-\u03b1-methylphenylacetic acid", "2-(4-Aminophenyl)propionic acid", "\u03b1-(4-Aminophenyl)-\u03b1-methylacetic acid", "2-(4-Aminophenyl)propanoic acid"], "SMILES": "C(C(O)=O)(C)C1=CC=C(N)C=C1", "physical_data": {"Molecular Weight": "165.19", "Molecular Formula": "C9H11NO2", "Melting Point": "136 \u00b0C"}}