{"cas_no": "5943-30-6", "cn_name": "\u4e8c\u4ef2\u4e01\u57fa\u4e8c\u786b\u919a", "en_name": ["sec-Butyl disulfide", "Disulfide, bis(1-methylpropyl)", "sec-Butyl disulfide", "Bis(1-methylpropyl) disulfide", "Di-sec-butyl disulfide", "Bis(2-butyl) disulfide", "3,6-Dimethyl-4,5-dithiaoctane", "1-Methylpropyl disulfide", "Di(1-methylpropyl) disulfide", "2-(Butan-2-yldisulfanyl)butane"], "SMILES": "C(SSC(CC)C)(CC)C", "physical_data": {"Molecular Weight": "178.36", "Molecular Formula": "C8H18S2", "Boiling Point": "91 \u00b0C @ Press: 10 Torr"}}