{"cas_no": "59454-35-2", "cn_name": "4-\u7678\u57fa-4-\u6c30\u57fa\u8054\u82ef", "en_name": ["4-Decyl-4\u2032-cyanobiphenyl", "[1,1\u2032-Biphenyl]-4-carbonitrile, 4\u2032-decyl-", "4\u2032-Decyl[1,1\u2032-biphenyl]-4-carbonitrile", "4-Cyano-4\u2032-decylbiphenyl", "4-Decyl-4\u2032-cyanobiphenyl", "CB 10 (liquid crystal)", "CB 10", "K 30 (liquid crystal)", "K 30", "10CB", "4-n-Decyl-4\u2032-cyanobiphenyl", "4\u2032-Decyl-4-cyanobiphenyl", "4\u2032-Decylbiphenyl-4\u2032-carbonitrile"], "SMILES": "C(CCCCCCCCC)C1=CC=C(C=C1)C2=CC=C(C#N)C=C2", "physical_data": {"Molecular Weight": "319.48", "Molecular Formula": "C23H29N", "Boiling Point": "228-230 \u00b0C @ Press: 2 Torr"}}