{"cas_no": "5945-86-8", "cn_name": "\u5370\u695d\u7d20", "en_name": ["Nimbin", "2H-Cyclopenta[b]naphtho[2,3-d]furan-10-acetic acid, 5-(acetyloxy)-2-(3-furanyl)-3,3a,4a,5,5a,6,9,9a,10,10a-decahydro-6-(methoxycarbonyl)-1,6,9a,10a-tetramethyl-9-oxo-, methyl ester, (2R,3aR,4aS,5R,5aR,6R,9aR,10S,10aR)-", "2H-Cyclopenta[b]naphtho[2,3-d]furan-10-acetic acid, 6\u03b1-carboxy-2\u03b1-(3-furyl)-3,3a\u03b1,4a\u03b2,5,5a\u03b1,6,9,9a,10\u03b1,10a-decahydro-5\u03b1-hydroxy-1,6,9a\u03b2,10a\u03b2-tetramethyl-9-oxo-, dimethyl ester, acetate", "Nimbin", "18,24-Dinor-11,12-secochola-2,13,20,22-tetraene-4,11-dicarboxylic acid, 6-(acetyloxy)-7,15:21,23-diepoxy-4,8-dimethyl-1-oxo-, dimethyl ester, (4\u03b1,5\u03b1,6\u03b1,7\u03b1,15\u03b2,17\u03b1)-", "2H-Cyclopenta[b]naphtho[2,3-d]furan-10-acetic acid, 6\u03b2-carboxy-2\u03b1-(3-furyl)-3,3a\u03b2,4a\u03b2,5,5a\u03b1,6,9,9a,10,10a-decahydro-5\u03b1-hydroxy-1,6,9a\u03b2,10a\u03b2-tetramethyl-9-oxo-, dimethyl ester, acetate", "2H-Cyclopenta[b]naphtho[2,3-d]furan-10-acetic acid, 5-(acetyloxy)-2-(3-furanyl)-3,3a,4a,5,5a,6,9,9a,10,10a-decahydro-6-(methoxycarbonyl)-1,6,9a,10a-tetramethyl-9-oxo-, methyl ester, [2R-(2\u03b1,3a\u03b1,4a\u03b2,5\u03b1,5a\u03b1,6\u03b1,9a\u03b2,10\u03b2,10a\u03b2)]-"], "SMILES": "CC12C(C(OC(C)=O)C3C(C)(C1CC(OC)=O)C(=O)C=CC3(C(OC)=O)C)OC4C2=C(C)C(C4)C=5C=COC5", "physical_data": {"Molecular Weight": "540.60", "Molecular Formula": "C30H36O9", "Melting Point": "205 \u00b0C"}}