{"cas_no": "5945-50-6", "cn_name": "\u6c34\u6676\u5170\u82f7", "en_name": ["Monotropein", "Cyclopenta[c]pyran-4-carboxylic acid, 1-(\u03b2-D-glucopyranosyloxy)-1,4a,7,7a-tetrahydro-7-hydroxy-7-(hydroxymethyl)-, (1S,4aS,7R,7aS)-", "Monotropein", "Cyclopenta[c]pyran-4-carboxylic acid, 1-(\u03b2-D-glucopyranosyloxy)-1,4a,7,7a-tetrahydro-7-hydroxy-7-(hydroxymethyl)-, [1S-(1\u03b1,4a\u03b1,7\u03b2,7a\u03b1)]-", "(1S,4aS,7R,7aS)-1-(\u03b2-D-Glucopyranosyloxy)-1,4a,7,7a-tetrahydro-7-hydroxy-7-(hydroxymethyl)cyclopenta[c]pyran-4-carboxylic acid", "Monotropeine", "NSC 291303", "NSC 88926"], "SMILES": "O(C1C2C(C(C(O)=O)=CO1)C=CC2(CO)O)C3OC(CO)C(O)C(O)C3O", "physical_data": {"Molecular Weight": "390.34", "Molecular Formula": "C16H22O11", "Melting Point": "170-173 \u00b0C"}}