{"cas_no": "59467-70-8", "cn_name": "\u54aa\u8fbe\u5511\u4ed1", "en_name": ["Midazolam", "4H-Imidazo[1,5-a][1,4]benzodiazepine, 8-chloro-6-(2-fluorophenyl)-1-methyl-", "8-Chloro-6-(2-fluorophenyl)-1-methyl-4H-imidazo[1,5-a][1,4]benzodiazepine", "Midazolam", "Dormicum", "Midosed", "Midanium", "Dazolam", "Sumianxin", "Midacom", "Mezolam", "Gobbizolam", "ADV 6209", "Ozaline", "Buccolam", "Seizalam", "MeSH ID: D008874"], "SMILES": "CC=1N2C=3C(C(=NCC2=CN1)C4=C(F)C=CC=C4)=CC(Cl)=CC3", "physical_data": {"Molecular Weight": "325.77", "Molecular Formula": "C18H13ClFN3", "Melting Point": "159 \u00b0C"}}