{"cas_no": "59467-94-6", "cn_name": "\u9a6c\u6765\u9178\u54aa\u8fbe\u5511\u4ed1", "en_name": ["Midazolam maleate", "4H-Imidazo[1,5-a][1,4]benzodiazepine, 8-chloro-6-(2-fluorophenyl)-1-methyl-, (2Z)-2-butenedioate (1:1)", "4H-Imidazo[1,5-a][1,4]benzodiazepine, 8-chloro-6-(2-fluorophenyl)-1-methyl-, (Z)-2-butenedioate (1:1)", "Ro 21-3981", "Midazolam maleate", "Dormicum", "Flormidal", "Ro 21-3981/001", "NSC 313452", "Dormicum (tablet)"], "SMILES": "C(=CC(O)=O)C(O)=O.CC=1N2C=3C(C(=NCC2=CN1)C4=C(F)C=CC=C4)=CC(Cl)=CC3", "physical_data": {"Molecular Weight": "", "Molecular Formula": "C18H13ClFN3.C4H4O4", "Melting Point": "114-117 \u00b0C"}}