{"cas_no": "59468-90-5", "cn_name": "1-\u7f9f\u57fa\u54aa\u8fbe\u5511\u4ed1", "en_name": ["1\u2032-Hydroxymidazolam", "4H-Imidazo[1,5-a][1,4]benzodiazepine-1-methanol, 8-chloro-6-(2-fluorophenyl)-", "8-Chloro-6-(2-fluorophenyl)-4H-imidazo[1,5-a][1,4]benzodiazepine-1-methanol", "Ro 21-6347", "\u03b1-Hydroxymidazolam", "1-Hydroxymidazolam", "1\u2032-Hydroxymidazolam", "[8-Chloro-6-(2-fluorophenyl)-4H-imidazo[1,5-a][1,4]benzodiazepin-1-yl]methanol"], "SMILES": "C(O)C=1N2C=3C(C(=NCC2=CN1)C4=C(F)C=CC=C4)=CC(Cl)=CC3", "physical_data": {"Molecular Weight": "341.77", "Molecular Formula": "C18H13ClFN3O", "Melting Point": "258-260 \u00b0C"}}