{"cas_no": "59469-29-3", "cn_name": "\u9a6c\u6765\u9178\u6c22\u76d0(\u916f)", "en_name": ["1H-1,4-Benzodiazepine-2-methanamine, 7-chloro-5-(2-fluorophenyl)-2,3-dihydro-, (2Z)-2-butenedioate (1:2)", "1H-1,4-Benzodiazepine-2-methanamine, 7-chloro-5-(2-fluorophenyl)-2,3-dihydro-, (2Z)-2-butenedioate (1:2)", "1H-1,4-Benzodiazepine-2-methanamine, 7-chloro-5-(2-fluorophenyl)-2,3-dihydro-, (Z)-2-butenedioate (1:2)", "2-Aminomethyl-7-chloro-2,3-dihydro-5-(2-fluorophenyl)-1H-1,4-benzodiazepine dimaleate"], "SMILES": "C(=CC(O)=O)C(O)=O.ClC=1C=C2C(=NCC(CN)NC2=CC1)C3=C(F)C=CC=C3", "physical_data": {"Molecular Weight": "", "Molecular Formula": "C16H15ClFN3.2C4H4O4", "Melting Point": "196-198 \u00b0C"}}