{"cas_no": "59473-45-9", "cn_name": "\u90bb\u7898\u6c2f\u82c4", "en_name": ["2-Iodobenzyl chloride", "Benzene, 1-(chloromethyl)-2-iodo-", "Toluene, \u03b1-chloro-o-iodo-", "1-(Chloromethyl)-2-iodobenzene", "o-Iodobenzyl chloride", "2-Iodobenzyl chloride", "\u03b1-Chloro-o-iodotoluene", "1-Chloromethyl-2-iodobenzene"], "SMILES": "C(Cl)C1=C(I)C=CC=C1", "physical_data": {"Molecular Weight": "252.48", "Molecular Formula": "C7H6ClI", "Melting Point": "28.5-29.5 \u00b0C"}}