{"cas_no": "5947-49-9", "cn_name": "\u7f57\u6c49\u677e\u9178", "en_name": ["(1S,4aS,10aR)-1,2,3,4,4a,9,10,10a-Octahydro-6-hydroxy-1,4a-dimethyl-1-phenanthrenecarboxylic acid", "1-Phenanthrenecarboxylic acid, 1,2,3,4,4a,9,10,10a-octahydro-6-hydroxy-1,4a-dimethyl-, (1S,4aS,10aR)-", "Podocarpa-8,11,13-trien-16-oic acid, 12-hydroxy-", "1-Phenanthrenecarboxylic acid, 1,2,3,4,4a,9,10,10a-octahydro-6-hydroxy-1,4a-dimethyl-, [1S-(1\u03b1,4a\u03b1,10a\u03b2)]-", "(1S,4aS,10aR)-1,2,3,4,4a,9,10,10a-Octahydro-6-hydroxy-1,4a-dimethyl-1-phenanthrenecarboxylic acid", "Podocarpic acid (resin acid)", "(1S)-1,2,3,4,4a,9,10,10a-Octahydro-6-hydroxy-1,4a-dimethyl-1-phenanthrenecarboxylic acid", "(+)-Podocarpic acid", "Podocarpic acid", "NSC 231784"], "SMILES": "CC12C(C(C(O)=O)(C)CCC1)CCC=3C2=CC(O)=CC3", "physical_data": {"Molecular Weight": "274.35", "Molecular Formula": "C17H22O3", "Melting Point": "193.5 \u00b0C"}}