{"cas_no": "59483-54-4", "cn_name": "3-\u6c2f-2-\u785d\u57fa\u82ef\u80fa", "en_name": ["3-Chloro-2-nitrobenzenamine", "Benzenamine, 3-chloro-2-nitro-", "3-Chloro-2-nitrobenzenamine", "3-Chloro-2-nitroaniline", "2-Nitro-3-chloroaniline", "(3-Chloro-2-nitrophenyl)amine"], "SMILES": "N(=O)(=O)C1=C(Cl)C=CC=C1N", "physical_data": {"Molecular Weight": "172.57", "Molecular Formula": "C6H5ClN2O2", "Melting Point": "108-109 \u00b0C"}}