{"cas_no": "59489-31-5", "cn_name": "2,7-\u4e8c\u6c2f\u55b9\u5594\u5549", "en_name": ["2,7-Dichloroquinoxaline", "Quinoxaline, 2,7-dichloro-", "2,7-Dichloroquinoxaline"], "SMILES": "ClC1=NC2=C(C=CC(Cl)=C2)N=C1", "physical_data": {"Molecular Weight": "199.04", "Molecular Formula": "C8H4Cl2N2", "Melting Point": "141 \u00b0C"}}