{"cas_no": "5949-44-0", "cn_name": "\u5341\u4e00\u9178\u777e\u916e", "en_name": ["Testosterone, undecanoate", "Androst-4-en-3-one, 17-[(1-oxoundecyl)oxy]-, (17\u03b2)-", "Testosterone, undecanoate", "Undecanoic acid, ester with testosterone", "(17\u03b2)-17-[(1-Oxoundecyl)oxy]androst-4-en-3-one", "Testosterone undecylate", "Andriol", "Org 538", "Undestor", "Andriol Testocaps", "Nebido", "Testocaps", "Rextoro", "Jatenzo"], "SMILES": "CC12C3C(C4C(C)(CC3)C(OC(CCCCCCCCCC)=O)CC4)CCC1=CC(=O)CC2", "physical_data": {"Molecular Weight": "456.70", "Molecular Formula": "C30H48O3", "Melting Point": "45-47.5 \u00b0C"}}