{"cas_no": "5949-05-3", "cn_name": "(-)-\u9999\u8305\u919b", "en_name": ["(S)-Citronellal", "6-Octenal, 3,7-dimethyl-, (3S)-", "6-Octenal, 3,7-dimethyl-, (-)-", "6-Octenal, 3,7-dimethyl-, (S)-", "(3S)-3,7-Dimethyl-6-octenal", "(-)-Citronellal", "(S)-Citronellal", "L-Citronellal", "S-(-)-Citronellal", "(S)-(-)-3,7-Dimethyl-6-octenal", "l-Citronellal", "(-)-\u03b2-Citronellal", "(-)-(S)-Citronellal", "L-(-)-Citronellal", "(3S)-3,7-Dimethyloct-6-enal", "(S)-3,7-Dimethyloct-6-enal", "(3S)-3,7-Dimethyloct-6-enal"], "SMILES": "C(CCC=C(C)C)(CC=O)C", "physical_data": {"Molecular Weight": "154.25", "Molecular Formula": "C10H18O", "Boiling Point": "65 \u00b0C @ Press: 2 Torr", "Density": "1.0123 g/cm\u00b3 @ Temp: 25.00 \u00b0C"}}