{"cas_no": "5949-29-1", "cn_name": "\u4e00\u6c34\u67e0\u6aac\u9178", "en_name": ["2-Hydroxy-1,2,3-propanetricarboxylic acid hydrate (1:1)", "1,2,3-Propanetricarboxylic acid, 2-hydroxy-, hydrate (1:1)", "Citric acid, monohydrate", "1,2,3-Propanetricarboxylic acid, 2-hydroxy-, monohydrate", "2-Hydroxy-1,2,3-propanetricarboxylic acid hydrate (1:1)", "2-Hydroxy-1,2,3-propanetricarboxylic acid monohydrate", "Citronsyra Mono E 33-8-80MLT"], "SMILES": "C(CC(O)=O)(CC(O)=O)(C(O)=O)O.O", "physical_data": {"Molecular Weight": "", "Molecular Formula": "C6H8O7.H2O", "Melting Point": "135 \u00b0C", "Density": "1.5 g/cm\u00b3"}}