{"cas_no": "595-77-7", "cn_name": "\u53cc\u7f9f\u5b55\u916e", "en_name": ["Algestone", "Pregn-4-ene-3,20-dione, 16,17-dihydroxy-, (16\u03b1)-", "Pregn-4-ene-3,20-dione, 16\u03b1,17-dihydroxy-", "(16\u03b1)-16,17-Dihydroxypregn-4-ene-3,20-dione", "Alfasone", "16\u03b1,17\u03b1-Dihydroxyprogesterone", "Alphasone", "Algestone", "4-Pregnen-16\u03b1,17\u03b1-diol-3,20-dione", "16\u03b1,17-Dihydroxyprogesterone", "16\u03b1,17\u03b1-Dihydroxypregn-4-ene-3,20-dione", "MeSH ID: D000523"], "SMILES": "CC12C(C3C(CC1)C4(C)C(CC3)=CC(=O)CC4)CC(O)C2(C(C)=O)O", "physical_data": {"Molecular Weight": "346.46", "Molecular Formula": "C21H30O4", "Melting Point": "225 \u00b0C"}}