{"cas_no": "595-89-1", "cn_name": "\u56db\u82ef\u57fa\u94c5", "en_name": ["Tetraphenyllead", "Plumbane, tetraphenyl-", "Lead, tetraphenyl-", "Tetraphenylplumbane", "Tetraphenyllead", "NSC 12568"], "SMILES": "[Pb](C1=CC=CC=C1)(C2=CC=CC=C2)(C3=CC=CC=C3)C4=CC=CC=C4", "physical_data": {"Molecular Weight": "515.62", "Molecular Formula": "C24H20Pb", "Melting Point": "228.3 \u00b0C", "Density": "1.53 g/cm\u00b3"}}