{"cas_no": "595-90-4", "cn_name": "\u56db\u82ef\u57fa\u9521", "en_name": ["Tetraphenyltin", "Stannane, tetraphenyl-", "Tetraphenylstannane", "Tetraphenyltin", "NSC 2094"], "SMILES": "[Sn](C1=CC=CC=C1)(C2=CC=CC=C2)(C3=CC=CC=C3)C4=CC=CC=C4", "physical_data": {"Molecular Weight": "427.13", "Molecular Formula": "C24H20Sn", "Boiling Point": "420 \u00b0C", "Melting Point": "228 \u00b0C", "Density": "1.49 g/cm\u00b3"}}