{"cas_no": "595-15-3", "cn_name": "\u5927\u8c46\u753e\u9187 B", "en_name": ["Soyasapogenol B", "Olean-12-ene-3,22,23-triol, (3\u03b2,4\u03b2,22\u03b2)-", "Olean-12-ene-3\u03b2,22\u03b2,24-triol", "Soyasapogenol B", "(3\u03b2,4\u03b2,22\u03b2)-Olean-12-ene-3,22,23-triol", "3\u03b2,22\u03b2,24-Trihydroxyolean-12-ene", "Soyasapogenin B", "Olean-12-en-3\u03b2,22\u03b2,24-triol", "Soyasapogenol I"], "SMILES": "CC12C3(C)C(C4C(C)(CC3)C(O)CC(C)(C)C4)=CCC1C5(C)C(CC2)C(CO)(C)C(O)CC5", "physical_data": {"Molecular Weight": "458.72", "Molecular Formula": "C30H50O3", "Melting Point": "259-260 \u00b0C"}}