{"cas_no": "595-30-2", "cn_name": "DL-\u6a1f\u8111\u9178", "en_name": ["1,8,8-Trimethyl-3-oxabicyclo[3.2.1]octane-2,4-dione", "3-Oxabicyclo[3.2.1]octane-2,4-dione, 1,8,8-trimethyl-", "Camphoric anhydride", "1,8,8-Trimethyl-3-oxabicyclo[3.2.1]octane-2,4-dione", "(\u00b1)-Camphoric anhydride", "dl-Camphoric anhydride", "DL-Camphoric anhydride", "NSC 4559", "NSC 60293", "NSC 657821"], "SMILES": "CC12C(C)(C)C(CC1)C(=O)OC2=O", "physical_data": {"Molecular Weight": "182.22", "Molecular Formula": "C10H14O3", "Melting Point": "218-219 \u00b0C"}}