{"cas_no": "595-33-5", "cn_name": "\u918b\u9178\u7532\u5730\u5b55\u916e", "en_name": ["Megestrol acetate", "Pregna-4,6-diene-3,20-dione, 17-(acetyloxy)-6-methyl-", "Pregna-4,6-diene-3,20-dione, 17-hydroxy-6-methyl-, acetate", "17-(Acetyloxy)-6-methylpregna-4,6-diene-3,20-dione", "BDH 1298", "5071", "SC 10363", "17\u03b1-Acetoxy-6-dehydro-6-methylprogesterone", "DMAP", "17-Hydroxy-6-methylpregna-4,6-diene-3,20-dione acetate", "Megestrol acetate", "6-Methyl-6-dehydro-17\u03b1-acetoxyprogesterone", "6-Methyl-17\u03b1-hydroxy-\u03946-progesterone acetate", "17\u03b1-Acetoxy-6-methylpregna-4,6-diene-3,20-dione", "6-Dehydro-6-methyl-17\u03b1-acetoxyprogesterone", "6-Methyl-17\u03b1-acetoxy-4,6-pregnadiene-3,20-dione", "17-Acetoxy-6-methylpregna-4,6-diene-3,20-dione", "17\u03b1-Hydroxy-6-methylpregna-4,6-diene-3,20-dione acetate", "6-Methyl-\u03944,6-pregnadien-17\u03b1-ol-3,20-dione acetate", "Megace", "Niagestin", "Megestryl acetate", "Magestin", "Megeron", "Ovarid", "MGA", "Megestin", "Nia", "Megestat", "Maygace", "Megestil", "Ovaban", "NSC 71423", "Megalia", "MeSH ID: D019290"], "SMILES": "O(C(C)=O)C1(C(C)=O)C2(C)C(CC1)C3C(CC2)C4(C)C(C(C)=C3)=CC(=O)CC4", "physical_data": {"Molecular Weight": "384.51", "Molecular Formula": "C24H32O4", "Melting Point": "214 \u00b0C"}}