{"cas_no": "595-37-9", "cn_name": "2,2-\u4e8c\u7532\u57fa\u4e01\u9178", "en_name": ["2,2-Dimethylbutanoic acid", "Butanoic acid, 2,2-dimethyl-", "Butyric acid, 2,2-dimethyl-", "Butyric acid, \u03b1,\u03b1-dimethyl-", "2,2-Dimethylbutanoic acid", "2,2-Dimethylbutyric acid", "\u03b1,\u03b1-Dimethylbutyric acid", "Neohexanoic acid", "\u03b1,\u03b1-Dimethylbutanoic acid", "NSC 16045", "NSC 741804", "tert-Amylcarboxylic acid", "Dimebutic acid"], "SMILES": "C(C(O)=O)(CC)(C)C", "physical_data": {"Molecular Weight": "116.16", "Molecular Formula": "C6H12O2", "Boiling Point": "186 \u00b0C", "Melting Point": "-14 \u00b0C", "Density": "0.9449 g/cm\u00b3 @ Temp: 0 \u00b0C"}}