{"cas_no": "595-39-1", "cn_name": "DL-2-\u6c28\u57fa-2-\u7532\u57fa\u4e01\u9178", "en_name": ["DL-Isovaline", "Isovaline", "DL-Isovaline", "dl-2-Amino-2-methylbutyric acid", "DL-\u03b1-Ethylalanine", "DL-\u03b1-Amino-\u03b1-methylbutyric acid", "Alanine, 2-ethyl-", "2-Amino-2-methylbutanoic acid", "2-Amino-2-methylbutyric acid", "2-Azaniumyl-2-methylbutanoate"], "SMILES": "C(C(O)=O)(CC)(C)N", "physical_data": {"Molecular Weight": "117.15", "Molecular Formula": "C5H11NO2", "Boiling Point": "170-175 \u00b0C @ Press: 15 Torr", "Melting Point": "316.5 \u00b0C"}}