{"cas_no": "595-46-0", "cn_name": "\u4e8c\u7532\u57fa\u4e19\u4e8c\u9178", "en_name": ["Dimethylmalonic acid", "Propanedioic acid, 2,2-dimethyl-", "Malonic acid, dimethyl-", "Propanedioic acid, dimethyl-", "2,2-Dimethylpropanedioic acid", "2,2-Propanedicarboxylic acid", "Dimethylmalonic acid", "Dimethylpropanedioic acid", "NSC 836"], "SMILES": "C(C(O)=O)(C(O)=O)(C)C", "physical_data": {"Molecular Weight": "132.11", "Molecular Formula": "C5H8O4", "Boiling Point": "172-178 \u00b0C @ Press: 0.2 Torr", "Melting Point": "192 \u00b0C (decomp)"}}