{"cas_no": "595-91-5", "cn_name": "\u4e09\u82ef\u57fa\u4e59\u9178", "en_name": ["Triphenylacetic acid", "Benzeneacetic acid, \u03b1,\u03b1-diphenyl-", "Acetic acid, triphenyl-", "\u03b1,\u03b1-Diphenylbenzeneacetic acid", "Triphenylacetic acid", "Triphenylmethanecarboxylic acid", "NSC 61", "2,2,2-Triphenylacetic acid"], "SMILES": "C(C(O)=O)(C1=CC=CC=C1)(C2=CC=CC=C2)C3=CC=CC=C3", "physical_data": {"Molecular Weight": "288.34", "Molecular Formula": "C20H16O2", "Melting Point": "265 \u00b0C"}}