{"cas_no": "595-40-4", "cn_name": "L-\u5f02\u7f2c\u6c28\u9178", "en_name": ["Isovaline", "L-Isovaline", "Isovaline, L-", "Butanoic acid, 2-amino-2-methyl-, (S)-", "Isovaline", "\u03b1-Methyl-L-\u03b1-aminobutyric acid", "(S)-2-Amino-2-methylbutanoic acid", "(+)-Isovaline", "NSC 1019", "(2S)-2-Amino-2-methylbutanoic acid"], "SMILES": "C(C(O)=O)(CC)(C)N", "physical_data": {"Molecular Weight": "117.15", "Molecular Formula": "C5H11NO2", "Melting Point": "&gt;260 \u00b0C"}}