{"cas_no": "595-05-1", "cn_name": "\u814a\u6885\u78b1", "en_name": ["(4bS,5R,10bS,11R)-5,6,11,12-Tetrahydro-13,18-dimethyl-5,10b:11,4b-Bis(iminoethano)dibenzo[c,h][2,6]naphthyridine", "5,10b:11,4b-Bis(iminoethano)dibenzo[c,h][2,6]naphthyridine, 5,6,11,12-tetrahydro-13,18-dimethyl-, (4bS,5R,10bS,11R)-", "Calycanthine", "(4bS,5R,10bS,11R)-5,6,11,12-Tetrahydro-13,18-dimethyl-5,10b:11,4b-Bis(iminoethano)dibenzo[c,h][2,6]naphthyridine", "5,10b:11,4b-Bis(iminoethano)dibenzo[c,h][2,6]naphthyridine, 5,6,11,12-tetrahydro-13,18-dimethyl-, [4bS-(4b\u03b1,5\u03b1,10b\u03b1,11\u03b1)]-", "[4bS-(4b\u03b1,5\u03b1,10b\u03b1,11\u03b1)]-5,6,11,12-Tetrahydro-13,18-dimethyl-5,10b:11,4b-bis(iminoethano)dibenzo[c,h][2,6]naphthyridine", "(+)-Calycanthine", "d-Calycanthine", "NSC 99016"], "SMILES": "CN1C2C34C(C=5C(N2)=CC=CC5)(C(NC=6C3=CC=CC6)N(C)CC4)CC1", "physical_data": {"Molecular Weight": "346.47", "Molecular Formula": "C22H26N4", "Melting Point": "245 \u00b0C"}}