{"cas_no": "5950-12-9", "cn_name": "\u835c\u8307\u5b81", "en_name": ["Piperlonguminine", "2,4-Pentadienamide, 5-(1,3-benzodioxol-5-yl)-N-(2-methylpropyl)-, (2E,4E)-", "Piperamide, N-isobutyl-", "Piperlonguminine", "2,4-Pentadienamide, 5-(1,3-benzodioxol-5-yl)-N-(2-methylpropyl)-, (E,E)-", "(2E,4E)-5-(1,3-Benzodioxol-5-yl)-N-(2-methylpropyl)-2,4-pentadienamide", "Piperlonguminin", "N-Isobutylpiperamide", "NSC 125178"], "SMILES": "C(=CC=CC(NCC(C)C)=O)C=1C=C2C(=CC1)OCO2", "physical_data": {"Molecular Weight": "273.33", "Molecular Formula": "C16H19NO3", "Melting Point": "165-166 \u00b0C"}}