{"cas_no": "59512-17-3", "cn_name": "\u5e03\u6d1b\u82ac\u6742\u8d28C", "en_name": ["Ibuprofenamide", "Benzeneacetamide, \u03b1-methyl-4-(2-methylpropyl)-", "\u03b1-Methyl-4-(2-methylpropyl)benzeneacetamide", "2-(4-Isobutylphenyl)propionamide", "Ibuprofenamide", "(\u00b1)-Ibuprofenamide", "2-(4-Isobutylphenyl)propanamide", "2-[4-(2-Methylpropyl)phenyl]propanamide"], "SMILES": "C(C(N)=O)(C)C1=CC=C(CC(C)C)C=C1", "physical_data": {"Molecular Weight": "205.30", "Molecular Formula": "C13H19NO", "Melting Point": "106-107 \u00b0C"}}