{"cas_no": "5953-76-4", "cn_name": "\u987a\u5f0f2-\u7532\u57fa-2-\u4e01\u70ef\u9178\u7532\u916f", "en_name": ["Methyl (2Z)-2-methyl-2-butenoate", "2-Butenoic acid, 2-methyl-, methyl ester, (2Z)-", "Crotonic acid, 2-methyl-, methyl ester, (Z)-", "2-Butenoic acid, 2-methyl-, methyl ester, (Z)-", "Angelic acid, methyl ester", "Methyl (2Z)-2-methyl-2-butenoate", "Methyl angelate", "Methyl cis-2-methylcrotonate", "Methyl (Z)-2-methyl-2-butenoate"], "SMILES": "C(C(OC)=O)(=CC)C", "physical_data": {"Molecular Weight": "114.14", "Molecular Formula": "C6H10O2", "Boiling Point": "127.6-127.8 \u00b0C", "Density": "0.94130 g/cm\u00b3 @ Temp: 20 \u00b0C"}}