{"cas_no": "5955-73-7", "cn_name": "\u90bb\u7532\u57fa\u82ef\u7532\u9170\u8148", "en_name": ["2-Methyl-\u03b1-oxobenzeneacetonitrile", "Benzeneacetonitrile, 2-methyl-\u03b1-oxo-", "Glyoxylonitrile, o-tolyl-", "2-Methyl-\u03b1-oxobenzeneacetonitrile", "o-Tolylglyoxylonitrile", "2-Methylbenzoyl cyanide", "2-Toluylcyanide", "o-Toluoyl cyanide", "2-Oxo-(o-tolyl)acetonitrile"], "SMILES": "C(C#N)(=O)C1=C(C)C=CC=C1", "physical_data": {"Molecular Weight": "145.16", "Molecular Formula": "C9H7NO", "Boiling Point": "127 \u00b0C @ Press: 29 Torr"}}