{"cas_no": "59558-23-5", "cn_name": "\u8f9b\u9178-4-\u7532\u57fa\u82ef\u916f", "en_name": ["4-Methylphenyl octanoate", "Octanoic acid, 4-methylphenyl ester", "Octanoic acid, p-tolyl ester", "Caprylic acid, p-tolyl ester", "4-Methylphenyl octanoate", "p-Cresyl octanoate", "p-Cresyl caprylate", "NSC 24727", "p-Cresyl n-octanoate", "(4-Methylphenyl) octanoate"], "SMILES": "O(C(CCCCCCC)=O)C1=CC=C(C)C=C1", "physical_data": {"Molecular Weight": "234.33", "Molecular Formula": "C15H22O2", "Boiling Point": "163-165 \u00b0C @ Press: 10 Torr", "Density": "0.957 g/cm\u00b3 @ Temp: 25 \u00b0C"}}