{"cas_no": "59557-91-4", "cn_name": "4-\u6eb4-2-\u7532\u6c27\u57fa\u82ef\u80fa", "en_name": ["4-Bromo-2-methoxybenzenamine", "Benzenamine, 4-bromo-2-methoxy-", "o-Anisidine, 4-bromo-", "4-Bromo-2-methoxybenzenamine", "4-Bromo-o-anisidine", "2-Amino-5-bromoanisole", "4-Bromo-2-methoxyaniline", "2-Methoxy-4-bromoaniline", "4-Bromo-2-methoxyphenylamine"], "SMILES": "O(C)C1=C(N)C=CC(Br)=C1", "physical_data": {"Molecular Weight": "202.05", "Molecular Formula": "C7H8BrNO", "Melting Point": "60-61 \u00b0C"}}