{"cas_no": "59562-82-2", "cn_name": "3,3-\u4e8c\u7532\u57fa-1,2-\u4e01\u4e8c\u9187", "en_name": ["3,3-Dimethyl-1,2-butanediol", "1,2-Butanediol, 3,3-dimethyl-", "3,3-Dimethyl-1,2-butanediol", "(\u00b1)-3,3-Dimethylbutane-1,2-diol"], "SMILES": "C(C(C)(C)C)(CO)O", "physical_data": {"Molecular Weight": "118.17", "Molecular Formula": "C6H14O2", "Boiling Point": "107.5-108.5 \u00b0C @ Press: 15 Torr", "Melting Point": "45-46 \u00b0C"}}