{"cas_no": "5957-80-2", "cn_name": "\u9f20\u5c3e\u8349\u82e6\u5185\u8102", "en_name": ["Carnosol", "2H-9,4a-(Epoxymethano)phenanthren-12-one, 1,3,4,9,10,10a-hexahydro-5,6-dihydroxy-1,1-dimethyl-7-(1-methylethyl)-, (4aR,9S,10aS)-", "Picrosalvin", "Podocarpa-8,11,13-trien-17-oic acid, 7\u03b2,11,12-trihydroxy-13-isopropyl-, 17,7-lactone", "2H-9,4a-(Epoxymethano)phenanthren-12-one, 1,3,4,9,10,10a-hexahydro-5,6-dihydroxy-1,1-dimethyl-7-(1-methylethyl)-, [4aR-(4a\u03b1,9\u03b1,10a\u03b2)]-", "(4aR,9S,10aS)-1,3,4,9,10,10a-Hexahydro-5,6-dihydroxy-1,1-dimethyl-7-(1-methylethyl)-2H-9,4a-(epoxymethano)phenanthren-12-one", "Carnosol", "NSC 39143", "(4AR,10aS)-5,6-Dihydroxy-7-isopropyl-1,1-dimethyl-1,3,4,9,10,10a-hexahydro-2H-9,4a-(epoxymethano)phenanthren-12-one"], "SMILES": "O=C1C23C=4C(C(CC2C(C)(C)CCC3)O1)=CC(C(C)C)=C(O)C4O", "physical_data": {"Molecular Weight": "330.42", "Molecular Formula": "C20H26O4", "Melting Point": "240-242 \u00b0C"}}