{"cas_no": "59576-30-6", "cn_name": "2-\u7532\u57fa-1-(2-\u54cc\u5576\u57fa)-1-\u4e19\u916e", "en_name": ["2-Methyl-1-(2-pyridinyl)-1-propanone", "1-Propanone, 2-methyl-1-(2-pyridinyl)-", "1-Propanone, 2-methyl-1-(2-pyridyl)-", "2-Methyl-1-(2-pyridinyl)-1-propanone", "2-Methyl-1-(2-pyridyl)-1-propanone", "Isopropyl 2-pyridyl ketone"], "SMILES": "C(C(C)C)(=O)C1=CC=CC=N1", "physical_data": {"Molecular Weight": "149.19", "Molecular Formula": "C9H11NO", "Boiling Point": "112 \u00b0C @ Press: 30 Torr", "Melting Point": "179-180 \u00b0C"}}