{"cas_no": "59578-63-1", "cn_name": "4-\u82ef\u7532\u6c28\u57fa-1-\u4e01\u9187", "en_name": ["4-[(Phenylmethyl)amino]-1-butanol", "1-Butanol, 4-[(phenylmethyl)amino]-", "1-Butanol, 4-benzylamino-", "4-[(Phenylmethyl)amino]-1-butanol", "4-(Benzylamino)butan-1-ol", "N-Benzyl-4-butanolamine", "Benzyl(4-hydroxybutyl)amine"], "SMILES": "C(NCCCCO)C1=CC=CC=C1", "physical_data": {"Molecular Weight": "179.26", "Molecular Formula": "C11H17NO", "Boiling Point": "120-125 \u00b0C @ Press: 0.6 Torr"}}