{"cas_no": "59576-26-0", "cn_name": "2-\u4e59\u9170-4-\u7532\u57fa\u5421\u5576", "en_name": ["2-Acetyl-4-methylpyridine", "Ethanone, 1-(4-methyl-2-pyridinyl)-", "Ketone, methyl 4-methyl-2-pyridyl", "1-(4-Methyl-2-pyridinyl)ethanone", "2-Acetyl-4-methylpyridine", "1-(4-Methyl-2-pyridyl)-1-ethanone", "4-Methyl-2-acetylpyridine", "1-(4-Methylpyridin-2-yl)ethanone", "1-(4-Methylpyridin-2-yl)ethan-1-one"], "SMILES": "C(C)(=O)C1=CC(C)=CC=N1", "physical_data": {"Molecular Weight": "135.16", "Molecular Formula": "C8H9NO", "Boiling Point": "95-97 \u00b0C @ Press: 15 Torr", "Melting Point": "33-34 \u00b0C"}}