{"cas_no": "5957-90-4", "cn_name": "2-(4-\u7532\u6c27\u82ef\u57fa)\u5421\u5576", "en_name": ["2-(4-Methoxyphenyl)pyridine", "Pyridine, 2-(4-methoxyphenyl)-", "Pyridine, 2-(p-methoxyphenyl)-", "2-(4-Methoxyphenyl)pyridine", "2-(p-Methoxyphenyl)pyridine", "2-(4\u2032-Methoxyphenyl)pyridine"], "SMILES": "O(C)C1=CC=C(C=C1)C2=CC=CC=N2", "physical_data": {"Molecular Weight": "185.22", "Molecular Formula": "C12H11NO", "Boiling Point": "127-130 \u00b0C @ Press: 0.5 Torr", "Melting Point": "53-54 \u00b0C"}}