{"cas_no": "5958-24-7", "cn_name": "6-CHLORO-2-(CHLOROMETHYL)-3-OXIDO-4-PHENYL-QUINAZOLINE", "en_name": ["2-Chloromethyl-4-phenyl-6-chloroquinazoline 3-oxide", "Quinazoline, 6-chloro-2-(chloromethyl)-4-phenyl-, 3-oxide", "2-Chloromethyl-4-phenyl-6-chloroquinazoline 3-oxide", "2-(Chloromethyl)-6-chloro-4-phenylquinazoline 3-oxide", "6-Chloro-2-(chloromethyl)-4-phenylquinazoline 3-oxide"], "SMILES": "O=N1=C(C2=C(N=C1CCl)C=CC(Cl)=C2)C3=CC=CC=C3", "physical_data": {"Molecular Weight": "305.16", "Molecular Formula": "C15H10Cl2N2O", "Melting Point": "109-112 \u00b0C"}}