{"cas_no": "5959-52-4", "cn_name": "3-\u6c28\u57fa-2-\u8418\u7532\u9178", "en_name": ["3-Amino-2-naphthoic acid", "2-Naphthalenecarboxylic acid, 3-amino-", "2-Naphthoic acid, 3-amino-", "3-Amino-2-naphthalenecarboxylic acid", "3-Amino-2-naphthoic acid", "2-Amino-3-naphthoic acid", "2-Amino-3-carboxynaphthalene", "\u03b2-Naphthylamine-3-carboxylic acid", "2-Aminonaphthalene-3-carboxylic acid", "NSC 37061"], "SMILES": "C(O)(=O)C1=CC2=C(C=C1N)C=CC=C2", "physical_data": {"Molecular Weight": "187.19", "Molecular Formula": "C11H9NO2", "Melting Point": "216.5 \u00b0C"}}