{"cas_no": "5959-56-8", "cn_name": "4-\u6c28\u57fa-1-\u8418\u915a\u76d0\u9178\u76d0", "en_name": ["4-Amino-1-naphthol hydrochloride", "1-Naphthalenol, 4-amino-, hydrochloride (1:1)", "1-Naphthol, 4-amino-, hydrochloride", "1-Naphthalenol, 4-amino-, hydrochloride", "4-Amino-1-naphthol hydrochloride", "4-Aminonaphthalen-1-ol hydrochloride", "4-Aminonaphth-1-ol hydrochloride", "1-Amino-4-hydroxynaphthalene hydrochloride"], "SMILES": "NC=1C2=C(C(O)=CC1)C=CC=C2.Cl", "physical_data": {"Molecular Weight": "", "Molecular Formula": "C10H9NO.ClH", "Melting Point": "265-267 \u00b0C (decomp)"}}