{"cas_no": "5959-95-5", "cn_name": "D-\u8c37\u6c28\u9170\u80fa", "en_name": ["D-Glutamine", "D-Glutamine", "Glutamine, D-", "(2R)-2-Amino-4-carbamoylbutanoic acid", "(2R)-5-Amino-2-azaniumyl-5-oxopentanoate", "(R)-2,5-Diamino-5-oxopentanoic acid"], "SMILES": "C(CCC(N)=O)(C(O)=O)N", "physical_data": {"Molecular Weight": "146.14", "Molecular Formula": "C5H10N2O3", "Melting Point": "184-185 \u00b0C"}}