{"cas_no": "596-85-0", "cn_name": "(4AR)-\u53cd\u5f0f-5-(1,5,5,8AS-\u56db\u7532\u57fa-2-\u4e9a\u7532\u57fa\u5341\u6c22-1-\u8418\u57fa)-(3R)-\u7532\u57fa-1-\u620a\u70ef-3-\u9187", "en_name": ["Manool", "1-Naphthalenepropanol, \u03b1-ethenyldecahydro-\u03b1,5,5,8a-tetramethyl-2-methylene-, (\u03b1R,1S,4aS,8aS)-", "Labda-8(20),14-dien-13-ol, (13R)-", "Manool", "1-Naphthalenepropanol, \u03b1-ethenyldecahydro-\u03b1,5,5,8a-tetramethyl-2-methylene-, [1S-[1\u03b1(S*),4a\u03b2,8a\u03b1]]-", "(\u03b1R,1S,4aS,8aS)-\u03b1-Ethenyldecahydro-\u03b1,5,5,8a-tetramethyl-2-methylene-1-naphthalenepropanol", "NSC 165961", "Labd-8(17),14-dien-13-ol"], "SMILES": "CC12C(C(C)(C)CCC1)CCC(=C)C2CCC(C=C)(C)O", "physical_data": {"Molecular Weight": "290.48", "Molecular Formula": "C20H34O", "Boiling Point": "150-153 \u00b0C @ Press: 0.3 Torr", "Melting Point": "41-43.5 \u00b0C"}}