{"cas_no": "596-27-0", "cn_name": "\u90bb\u7532\u915a\u915e", "en_name": ["Cresolphthalein", "1(3H)-Isobenzofuranone, 3,3-bis(4-hydroxy-3-methylphenyl)-", "o-Cresolphthalein", "Phenolphthalein, 3\u2032,3\u2032\u2032-dimethyl-", "3,3-Bis(4-hydroxy-3-methylphenyl)-1(3H)-isobenzofuranone", "Cresolphthalein", "3,3-Bis(3-methyl-4-hydroxyphenyl)phthalide", "3,3-Bis(4-hydroxy-3-methylphenyl)-2-benzofuran-1-one"], "SMILES": "O=C1OC(C=2C1=CC=CC2)(C3=CC(C)=C(O)C=C3)C4=CC(C)=C(O)C=C4", "physical_data": {"Molecular Weight": "346.38", "Molecular Formula": "C22H18O4", "Melting Point": "223 \u00b0C"}}