{"cas_no": "596-09-8", "cn_name": "\u8367\u5149\u7d20\u4e8c\u4e59\u9178\u76d0", "en_name": ["Fluorescein, diacetate", "Spiro[isobenzofuran-1(3H),9\u2032-[9H]xanthen]-3-one, 3\u2032,6\u2032-bis(acetyloxy)-", "Fluorescein, diacetate", "3\u2032,6\u2032-Bis(acetyloxy)spiro[isobenzofuran-1(3H),9\u2032-[9H]xanthen]-3-one", "Fluorescein diacetate", "3\u2032,6\u2032-Diacetylfluorescein", "Fluorescein 3\u2032,6\u2032-diacetate", "MFCD 5062", "NSC 4726", "NSC 667259", "F 1303", "FDA", "(6\u2032-Acetyloxy-3-oxospiro[2-benzofuran-1,9\u2032-xanthene]-3\u2032-yl) acetate"], "SMILES": "O=C1OC2(C=3C(OC=4C2=CC=C(OC(C)=O)C4)=CC(OC(C)=O)=CC3)C=5C1=CC=CC5", "physical_data": {"Molecular Weight": "416.38", "Molecular Formula": "C24H16O7", "Melting Point": "205-206 \u00b0C"}}