{"cas_no": "596-03-2", "cn_name": "\u4e8c\u6eb4\u8367\u5149\u7d20", "en_name": ["Solvent Red 72", "Spiro[isobenzofuran-1(3H),9\u2032-[9H]xanthen]-3-one, 4\u2032,5\u2032-dibromo-3\u2032,6\u2032-dihydroxy-", "Fluorescein, 4\u2032,5\u2032-dibromo-", "4\u2032,5\u2032-Dibromo-3\u2032,6\u2032-dihydroxyspiro[isobenzofuran-1(3H),9\u2032-[9H]xanthen]-3-one", "C.I. Solvent Red 72", "D and C Orange No. 5", "4\u2032,5\u2032-Dibromofluorescein", "C.I. 45370:1", "Solvent Red 72", "Eosinic acid", "Japan Orange 201", "Japan Orange No. 201", "D&", "C Orange No. 5", "D &", "C Orange 5", "Orange No. 201"], "SMILES": "O=C1OC2(C=3C(OC=4C2=CC=C(O)C4Br)=C(Br)C(O)=CC3)C=5C1=CC=CC5", "physical_data": {"Molecular Weight": "490.10", "Molecular Formula": "C20H10Br2O5", "Melting Point": "285 \u00b0C"}}