{"cas_no": "596-94-1", "cn_name": "20,22-dihydroxycholesterol", "en_name": ["(20R,22R)-20,22-Dihydroxycholesterol", "Cholest-5-ene-3,20,22-triol, (3\u03b2,22R)-", "Cholest-5-ene-3\u03b2,20,22-triol, (22R)-", "(3\u03b2,22R)-Cholest-5-ene-3,20,22-triol", "(22R)-20\u03b1,22-Dihydroxycholesterol", "20\u03b1,22(R)-Dihydroxycholesterol", "(20R,22R)-Dihydroxycholesterol", "(20R,22R)-20,22-Dihydroxycholesterol", "(22R)-5-Cholesten-3\u03b2,20\u03b1,22-triol"], "SMILES": "CC12C(C3C(CC1)C4(C)C(=CC3)CC(O)CC4)CCC2C(C(CCC(C)C)O)(C)O", "physical_data": {"Molecular Weight": "418.65", "Molecular Formula": "C27H46O3", "Melting Point": "183 \u00b0C"}}