{"cas_no": "596-38-3", "cn_name": "9-\u82ef\u57fa\u82ef\u4e8c\u70ef-9-\u9187", "en_name": ["9-Phenylxanthen-9-ol", "9H-Xanthen-9-ol, 9-phenyl-", "Xanthen-9-ol, 9-phenyl-", "9-Phenyl-9H-xanthen-9-ol", "9-Phenylxanthen-9-ol", "9-Hydroxy-9-phenylxanthene", "NSC 16331"], "SMILES": "OC1(C=2C(OC=3C1=CC=CC3)=CC=CC2)C4=CC=CC=C4", "physical_data": {"Molecular Weight": "274.31", "Molecular Formula": "C19H14O2", "Melting Point": "158-159 \u00b0C"}}