{"cas_no": "596-75-8", "cn_name": "\u4e8c\u4e01\u57fa\u4e19\u4e8c\u9178\u4e8c\u4e59\u916f", "en_name": ["Propanedioic acid, 2,2-dibutyl-, 1,3-diethyl ester", "Propanedioic acid, 2,2-dibutyl-, 1,3-diethyl ester", "Malonic acid, dibutyl-, diethyl ester", "Propanedioic acid, dibutyl-, diethyl ester", "Diethyl dibutylmalonate", "NSC 8913", "Dibutylmalonic acid diethyl ester", "Diethyl 2,2-dibutylmalonate", "1,3-Diethyl 2,2-dibutylpropanedioate"], "SMILES": "C(C(OCC)=O)(C(OCC)=O)(CCCC)CCCC", "physical_data": {"Molecular Weight": "272.38", "Molecular Formula": "C15H28O4", "Boiling Point": "153-154 \u00b0C @ Press: 14 Torr"}}