{"cas_no": "596-01-0", "cn_name": "1-\u8418\u915a\u915e", "en_name": ["\u03b1-Naphtholphthalein", "1(3H)-Isobenzofuranone, 3,3-bis(4-hydroxy-1-naphthalenyl)-", "Phthalide, 3,3-bis(4-hydroxy-1-naphthyl)-", "1,1\u2032-Naphthol-4,4\u2032-phthalein", "3,3-Bis(4-hydroxy-1-naphthalenyl)-1(3H)-isobenzofuranone", "\u03b1-Naphtholphthalein", "Di-p-\u03b1-Naphtholphthalide", "p-\u03b1-Naphtholphthalein", "1-Naphtholphthalein", "3,3-Bis(4-hydroxy-1-naphthyl)-1,3-dihydroisobenzofuran-1-one", "Naphtholphthalein blue", "3,3-Bis(4-hydroxy-1-naphthyl)phthalide", "3,3-Bis(4-hydroxynaphthalen-1-yl)-2-benzofuran-1-one"], "SMILES": "O=C1OC(C=2C1=CC=CC2)(C=3C4=C(C(O)=CC3)C=CC=C4)C=5C6=C(C(O)=CC5)C=CC=C6", "physical_data": {"Molecular Weight": "418.44", "Molecular Formula": "C28H18O4", "Melting Point": "254 \u00b0C"}}