{"cas_no": "596-43-0", "cn_name": "\u4e09\u82ef\u57fa\u7532\u57fa\u6eb4", "en_name": ["Trityl bromide", "Benzene, 1,1\u2032,1\u2032\u2032-(bromomethylidyne)tris-", "Methane, bromotriphenyl-", "1,1\u2032,1\u2032\u2032-(Bromomethylidyne)tris[benzene]", "Triphenylmethyl bromide", "Trityl bromide", "Bromotriphenylmethane", "\u03b1-Bromotriphenylmethane", "Triphenylbromomethane", "NSC 66464", "[Bromo(diphenyl)methyl]benzene"], "SMILES": "C(Br)(C1=CC=CC=C1)(C2=CC=CC=C2)C3=CC=CC=C3", "physical_data": {"Molecular Weight": "323.23", "Molecular Formula": "C19H15Br", "Melting Point": "153 \u00b0C"}}