{"cas_no": "596-51-0", "cn_name": "\u683c\u9686\u6eb4\u94f5", "en_name": ["Glycopyrrolate", "Pyrrolidinium, 3-[(2-cyclopentyl-2-hydroxy-2-phenylacetyl)oxy]-1,1-dimethyl-, bromide (1:1)", "3-Hydroxy-1,1-dimethylpyrrolidinium bromide \u03b1-cyclopentylmandelate", "Pyrrolidinium, 3-hydroxy-1,1-dimethyl-, bromide, \u03b1-cyclopentylmandelate", "Pyrrolidinium, 3-[(cyclopentylhydroxyphenylacetyl)oxy]-1,1-dimethyl-, bromide", "AHR-504", "1,1-Dimethyl-3-hydroxypyrrolidinium bromide \u03b1-cyclopentylmandelate", "Glycopyrrolate", "Glycopyrronium bromide", "\u03b2-1-Methyl-3-pyrrolidyl-\u03b1-cyclopentylmandelate methobromide", "Robinul", "Glycopyrronium", "Tarodyl", "Asecryl", "Gastrodyn", "Nodapton", "Robanul", "Tarodyn", "Glycopyrrolate bromide", "Copyrrolate", "NSC 250836", "NSC 251251", "NSC 251252", "NVA 237", "Seebri", "Glycopyrrone bromide", "Qbrexza", "Cuvposa", "Sialanar", "Seebri Breezhaler", "Enurev Breezhaler", "Tovanor Breezhaler", "Dartisla ODT", "MeSH ID: D006024"], "SMILES": "C(C(OC1C[N+](C)(C)CC1)=O)(O)(C2CCCC2)C3=CC=CC=C3.[Br-]", "physical_data": {"Molecular Weight": "", "Molecular Formula": "C19H28NO3.Br", "Melting Point": "192.5 \u00b0C"}}