{"cas_no": "5960-69-0", "cn_name": "2-\u4e59\u9170\u57fa\u83f2", "en_name": ["2-Acetylphenanthrene", "Ethanone, 1-(2-phenanthrenyl)-", "Ketone, methyl 2-phenanthryl", "1-(2-Phenanthrenyl)ethanone", "2-Acetylphenanthrene", "Methyl 2-phenanthryl ketone", "NSC 402640"], "SMILES": "C(C)(=O)C1=CC=2C(=C3C(=CC2)C=CC=C3)C=C1", "physical_data": {"Molecular Weight": "220.27", "Molecular Formula": "C16H12O", "Boiling Point": "175-178 \u00b0C @ Press: 1.5 Torr", "Melting Point": "144 \u00b0C"}}