{"cas_no": "59608-97-8", "cn_name": "2-\u6c28\u57fa-4-\u6c2f\u7532\u57fa\u567b\u5511\u76d0\u9178\u76d0", "en_name": ["2-Thiazolamine, 4-(chloromethyl)-, hydrochloride (1:1)", "2-Thiazolamine, 4-(chloromethyl)-, hydrochloride (1:1)", "2-Thiazolamine, 4-(chloromethyl)-, monohydrochloride", "4-(Chloromethyl)-2-thiazolamine hydrochloride", "4-(Chloromethyl)-1,3-thiazol-2-ylamine hydrochloride", "4-(Chloromethyl)thiazol-2-ylamine hydrochloride", "2-Amino-4-chloromethylthiazole monohydrochloride"], "SMILES": "C(Cl)C=1N=C(N)SC1.Cl", "physical_data": {"Molecular Weight": "", "Molecular Formula": "C4H5ClN2S.ClH", "Melting Point": "141-143 \u00b0C"}}