{"cas_no": "5961-55-7", "cn_name": "4-\u7532\u6c27\u57fa-1-\u8418\u7532\u8148", "en_name": ["4-Methoxy-1-naphthalenecarbonitrile", "1-Naphthalenecarbonitrile, 4-methoxy-", "1-Naphthonitrile, 4-methoxy-", "4-Methoxy-1-naphthalenecarbonitrile", "1-Cyano-4-methoxynaphthalene", "4-Methoxy-1-naphthonitrile"], "SMILES": "C(#N)C=1C2=C(C(OC)=CC1)C=CC=C2", "physical_data": {"Molecular Weight": "183.21", "Molecular Formula": "C12H9NO", "Melting Point": "104 \u00b0C"}}