{"cas_no": "5961-85-3", "cn_name": "TCEP \u4e09\u7fa7\u57fa\u4e59\u57fa\u81a6", "en_name": ["Tris(2-carboxyethyl)phosphine", "Propanoic acid, 3,3\u2032,3\u2032\u2032-phosphinidynetris-", "Propionic acid, 3,3\u2032,3\u2032\u2032-phosphinidynetri-", "3,3\u2032,3\u2032\u2032-Phosphinidynetris[propanoic acid]", "Phosphine, tris(2-carboxyethyl)-", "Tris(carboxyethyl)phosphine", "Tris(2-carboxyethyl)phosphine", "3,3\u2032,3\u2032\u2032-Phosphinidynetripropionic acid", "TCEP", "3,3\u2032,3\u2032\u2032-Phosphinetriyltripropanoicacid"], "SMILES": "P(CCC(O)=O)(CCC(O)=O)CCC(O)=O", "physical_data": {"Molecular Weight": "250.19", "Molecular Formula": "C9H15O6P", "Boiling Point": "193-194 \u00b0C @ Press: 1 Torr"}}