{"cas_no": "5961-59-1", "cn_name": "N-\u7532\u57fa-P-\u6c28\u57fa\u82ef\u7532\u919a", "en_name": ["4-Methoxy-N-methylbenzenamine", "Benzenamine, 4-methoxy-N-methyl-", "p-Anisidine, N-methyl-", "4-Methoxy-N-methylbenzenamine", "N-Methyl-p-anisidine", "p-Methoxy-N-methylaniline", "4-Methoxy-N-methylaniline", "N-Methyl-4-methoxyaniline", "p-Methoxy-N-methylaminobenzene", "N-Methyl-4-anisidine", "N-Methyl-p-methoxyaniline", "N-Methyl-4-methoxybenzenamine", "4-(Methylamino)anisole", "N-(4-Methoxyphenyl)-N-methylamine", "NSC 159085", "N-(4-Methoxyphenyl)methylamine", "N-Methyl-N-(4-methoxyphenyl)amine", "N-Methylp-anisidine"], "SMILES": "N(C)C1=CC=C(OC)C=C1", "physical_data": {"Molecular Weight": "137.18", "Molecular Formula": "C8H11NO", "Boiling Point": "111-113 \u00b0C @ Press: 9 Torr", "Melting Point": "37 \u00b0C"}}