{"cas_no": "5962-42-5", "cn_name": "2-\u7fa7\u4e59\u57fa\u78f7\u9178", "en_name": ["3-Phosphonopropionic acid", "Propanoic acid, 3-phosphono-", "Propionic acid, 3-phosphono-", "3-Phosphonopropanoic acid", "Phosphonic acid, (2-carboxyethyl)-", "\u03b2-Phosphonopropionic acid", "2-Carboxyethane-1-phosphonic acid", "2-Carboxyethanephosphonic acid", "Carboxyethylphosphonic acid", "3-Phosphonopropionic acid", "1-Carboxyethane-2-phosphonic acid", "2-Carboxyethylphosphonic acid", "2-CEPA", "Rhodafac ASI-HW"], "SMILES": "C(P(=O)(O)O)CC(O)=O", "physical_data": {"Molecular Weight": "154.06", "Molecular Formula": "C3H7O5P", "Melting Point": "178-180 \u00b0C"}}