{"cas_no": "59642-21-6", "cn_name": "\u5bf9\u785d\u57fa\u82ef\u7532\u9170-beta-\u4e19\u6c28\u9178", "en_name": ["N-(4-Nitrobenzoyl)-\u03b2-alanine", "\u03b2-Alanine, N-(4-nitrobenzoyl)-", "N-(4-Nitrobenzoyl)-\u03b2-alanine", "3-[(4-Nitrophenyl)formamido]propanoic acid"], "SMILES": "C(NCCC(O)=O)(=O)C1=CC=C(N(=O)=O)C=C1", "physical_data": {"Molecular Weight": "238.20", "Molecular Formula": "C10H10N2O5", "Melting Point": "160-161 \u00b0C"}}