{"cas_no": "5965-66-2", "cn_name": "\u03b2-\u4e73\u7cd6", "en_name": ["\u03b2-Lactose", "\u03b2-D-Glucopyranose, 4-O-\u03b2-D-galactopyranosyl-", "Lactose, \u03b2-", "4-O-\u03b2-D-Galactopyranosyl-\u03b2-D-glucopyranose", "\u03b2-Lactose", "\u03b2-D-Lactose", "Pharmatose DCL 40", "Pharmatose DCL 21", "Lactopress", "\u03b2-D-Galactose-(1\u21924)-\u03b2-D-glucose"], "SMILES": "O(C1C(CO)OC(O)C(O)C1O)C2OC(CO)C(O)C(O)C2O", "physical_data": {"Molecular Weight": "342.30", "Molecular Formula": "C12H22O11", "Melting Point": "254 \u00b0C"}}