{"cas_no": "5965-53-7", "cn_name": "2-\u6c27\u4ee3\u620a\u70f7-1,5-\u4e8c\u7532\u9178\u4e8c\u4e59\u916f", "en_name": ["1,5-Diethyl 2-oxopentanedioate", "Pentanedioic acid, 2-oxo-, 1,5-diethyl ester", "Glutaric acid, 2-oxo-, diethyl ester", "Pentanedioic acid, 2-oxo-, diethyl ester", "1,5-Diethyl 2-oxopentanedioate", "\u03b1-Ketoglutaric acid diethyl ester", "Ethyl ethoxalylpropionate", "Diethyl 2-oxoglutarate", "2-Oxopentanedioic acid diethyl ester", "Diethyl oxalopropionate", "Diethyl \u03b1-ketoglutarate", "NSC 111179", "Diethyl 2-oxopentanedioate"], "SMILES": "C(C(C(OCC)=O)=O)CC(OCC)=O", "physical_data": {"Molecular Weight": "202.20", "Molecular Formula": "C9H14O5", "Boiling Point": "118-122 \u00b0C @ Press: 5 Torr", "Melting Point": "206-209 \u00b0C (decomp)"}}