{"cas_no": "59662-49-6", "cn_name": "\u5bf9\u8f9b\u57fa\u8054\u82ef\u7532\u9178", "en_name": ["4\u2032-Octyl[1,1\u2032-biphenyl]-4-carboxylic acid", "[1,1\u2032-Biphenyl]-4-carboxylic acid, 4\u2032-octyl-", "4\u2032-Octyl[1,1\u2032-biphenyl]-4-carboxylic acid", "4\u2032-Octylbiphenyl-4-carboxylic acid", "8BCA", "4\u2032-n-Octylbiphenyl-4-carboxylic acid", "AC 55649", "4\u2032-Octyl-1,1\u2032-biphenyl-4-carboxylic acid"], "SMILES": "C(O)(=O)C1=CC=C(C=C1)C2=CC=C(CCCCCCCC)C=C2", "physical_data": {"Molecular Weight": "310.43", "Molecular Formula": "C21H26O2", "Melting Point": "148-152 \u00b0C"}}