{"cas_no": "59669-26-0", "cn_name": "\u706d\u591a\u5a01", "en_name": ["Thiodicarb", "6-Oxa-3,9-dithia-2,4,7-triazadec-7-enoic acid, 2,4,8-trimethyl-5-oxo-, [1-(methylthio)ethylidene]azanyl ester", "Ethanimidothioic acid, N,N\u2032-[thiobis[(methylimino)carbonyloxy]]bis-, dimethyl ester", "UC 51762", "Bismethomyl thioether", "Larvin", "Thiodicarb", "Lepicron", "CGA 45156", "Dicarbasulf", "Semevin", "Liushuanwei"], "SMILES": "N(SN(C(ON=C(SC)C)=O)C)(C(ON=C(SC)C)=O)C", "physical_data": {"Molecular Weight": "354.47", "Molecular Formula": "C10H18N4O4S3", "Melting Point": "173 \u00b0C", "Density": "1.44 g/cm\u00b3 @ Temp: 20 \u00b0C"}}