{"cas_no": "59662-31-6", "cn_name": "4-\u6b63\u5df1\u57fa\u8054\u82ef", "en_name": ["4-Hexyl-1,1\u2032-biphenyl", "1,1\u2032-Biphenyl, 4-hexyl-", "Biphenyl, 4-hexyl-", "4-Hexyl-1,1\u2032-biphenyl", "4-Hexylbiphenyl", "1-Hexyl-4-phenylbenzene"], "SMILES": "C(CCCCC)C1=CC=C(C=C1)C2=CC=CC=C2", "physical_data": {"Molecular Weight": "238.37", "Molecular Formula": "C18H22", "Boiling Point": "175-176 \u00b0C @ Press: 3 Torr", "Melting Point": "25 \u00b0C", "Density": "1.0152 g/cm\u00b3 @ Temp: 20 \u00b0C"}}