{"cas_no": "59662-47-4", "cn_name": "4-\u620a\u57fa\u8054\u82ef-4'-\u7fa7\u9178", "en_name": ["4\u2032-Pentyl[1,1\u2032-biphenyl]-4-carboxylic acid", "[1,1\u2032-Biphenyl]-4-carboxylic acid, 4\u2032-pentyl-", "4\u2032-Pentyl[1,1\u2032-biphenyl]-4-carboxylic acid", "4\u2032-Pentyl-4-biphenylcarboxylic acid", "4\u2032-n-Pentylbiphenyl-4-carboxylic acid", "4-Pentyl-4\u2032-biphenylcarboxylic acid", "4\u2032-Carboxy-4-pentylbiphenyl"], "SMILES": "C(CCCC)C1=CC=C(C=C1)C2=CC=C(C(O)=O)C=C2", "physical_data": {"Molecular Weight": "268.35", "Molecular Formula": "C18H20O2", "Melting Point": "176 \u00b0C (polymorph)"}}