{"cas_no": "5967-90-8", "cn_name": "\u786b\u4ee3\u5417\u5549\u76d0\u9178\u76d0", "en_name": ["Thiomorpholine, hydrochloride (1:1)", "Thiomorpholine, hydrochloride (1:1)", "Thiomorpholine, hydrochloride", "Thiamorpholine hydrochloride"], "SMILES": "C1CSCCN1.Cl", "physical_data": {"Molecular Weight": "", "Molecular Formula": "C4H9NS.ClH", "Melting Point": "174-175 \u00b0C"}}