{"cas_no": "5967-84-0", "cn_name": "\u8336\u78b1\u4e00\u6c34\u5408\u7269", "en_name": ["1H-Purine-2,6-dione, 3,9-dihydro-1,3-dimethyl-, hydrate (1:1)", "1H-Purine-2,6-dione, 3,9-dihydro-1,3-dimethyl-, hydrate (1:1)", "Theophylline, monohydrate", "1H-Purine-2,6-dione, 3,7-dihydro-1,3-dimethyl-, monohydrate", "1,3-Dimethylxanthine monohydrate", "Theopylline monohydrate"], "SMILES": "O=C1C2=C(N(C)C(=O)N1C)N=CN2.O", "physical_data": {"Molecular Weight": "", "Molecular Formula": "C7H8N4O2.H2O", "Melting Point": "270-274 \u00b0C"}}