{"cas_no": "596845-30-6", "cn_name": "2-\u6eb4-6-\u6c1f-4-\u4e09\u6c1f\u7532\u57fa\u55b9\u5549", "en_name": ["2-Bromo-6-fluoro-4-(trifluoromethyl)quinoline", "Quinoline, 2-bromo-6-fluoro-4-(trifluoromethyl)-", "2-Bromo-6-fluoro-4-(trifluoromethyl)quinoline"], "SMILES": "C(F)(F)(F)C=1C2=C(N=C(Br)C1)C=CC(F)=C2", "physical_data": {"Molecular Weight": "294.04", "Molecular Formula": "C10H4BrF4N", "Melting Point": "108-109 \u00b0C"}}