{"cas_no": "5968-70-7", "cn_name": "3-\u4e59\u9170\u57fa-BETA-\u4e73\u9999\u9178", "en_name": ["Acetyl-\u03b2-boswellic acid", "Urs-12-en-23-oic acid, 3-(acetyloxy)-, (3\u03b1,4\u03b2)-", "Urs-12-en-24-oic acid, 3\u03b1-hydroxy-, acetate", "(3\u03b1,4\u03b2)-3-(Acetyloxy)urs-12-en-23-oic acid", "\u03b2-Boswellic acid acetate", "Acetyl-\u03b2-boswellic acid", "3\u03b1-Acetoxyurs-12-en-24-oic acid", "3-Acetyl-\u03b2-boswellic acid", "3\u03b1-Acetyl-\u03b2-boswellic acid", "3-O-Acetyl-\u03b2-boswellic acid"], "SMILES": "CC12C(C3(C)C(CC1)C(C(O)=O)(C)C(OC(C)=O)CC3)CC=C4C2(C)CCC5(C)C4C(C)C(C)CC5", "physical_data": {"Molecular Weight": "498.74", "Molecular Formula": "C32H50O4", "Melting Point": "271 \u00b0C"}}