{"cas_no": "59690-88-9", "cn_name": "\u95f4\u6c28\u57fa\u82ef\u8132\u76d0\u9178\u76d0", "en_name": ["Urea, N-(3-aminophenyl)-, hydrochloride (1:1)", "Urea, N-(3-aminophenyl)-, hydrochloride (1:1)", "Urea, (3-aminophenyl)-, monohydrochloride", "1-(3-Aminophenyl)urea hydrochloride", "(3-Aminophenyl)-urea monohydrochloride", "(3-Aminophenyl)-urea hydrochloride"], "SMILES": "N(C(N)=O)C1=CC(N)=CC=C1.Cl", "physical_data": {"Molecular Weight": "", "Molecular Formula": "C7H9N3O.ClH", "Melting Point": "&gt;275 \u00b0C"}}