{"cas_no": "597-43-3", "cn_name": "2,2-\u4e8c\u7532\u57fa\u7425\u73c0\u9178", "en_name": ["2,2-Dimethylsuccinic acid", "Butanedioic acid, 2,2-dimethyl-", "Succinic acid, 2,2-dimethyl-", "Succinic acid, \u03b1,\u03b1-dimethyl-", "2,2-Dimethylbutanedioic acid", "2,2-Dimethylsuccinic acid", "NSC 408419", "2,2-Dimethylsuccinaldehyde"], "SMILES": "C(CC(O)=O)(C(O)=O)(C)C", "physical_data": {"Molecular Weight": "146.14", "Molecular Formula": "C6H10O4", "Boiling Point": "~90 \u00b0C (approx) @ Press: 15 Torr", "Melting Point": "140.5 \u00b0C"}}