{"cas_no": "597-63-7", "cn_name": "\u56db\u4e59\u57fa\u9517", "en_name": ["Tetraethylgermane", "Germane, tetraethyl-", "Tetraethylgermane", "Tetraethylgermanium", "NSC 65800"], "SMILES": "[Ge](CC)(CC)(CC)CC", "physical_data": {"Molecular Weight": "188.88", "Molecular Formula": "C8H20Ge", "Boiling Point": "163-164 \u00b0C", "Melting Point": "-93 \u00b0C", "Density": "0.991 g/cm\u00b3"}}