{"cas_no": "597-12-6", "cn_name": "\u677e\u4e09\u7cd6,\u6c34\u5408\u7269", "en_name": ["(+)-Melezitose", "\u03b1-D-Glucopyranoside, O-\u03b1-D-glucopyranosyl-(1\u21923)-\u03b2-D-fructofuranosyl", "Melezitose", "O-\u03b1-D-Glucopyranosyl-(1\u21923)-\u03b2-D-fructofuranosyl \u03b1-D-glucopyranoside", "D-Melezitose", "D-(+)-Melezitose", "(+)-Melezitose"], "SMILES": "O(C1(CO)C(OC2OC(CO)C(O)C(O)C2O)C(O)C(CO)O1)C3OC(CO)C(O)C(O)C3O", "physical_data": {"Molecular Weight": "504.44", "Molecular Formula": "C18H32O16", "Melting Point": "153 \u00b0C"}}