{"cas_no": "597-05-7", "cn_name": "3-\u4e59\u57fa-2-\u7532\u57fa-3-\u620a\u9187", "en_name": ["3-Ethyl-2-methyl-3-pentanol", "3-Pentanol, 3-ethyl-2-methyl-", "3-Ethyl-2-methyl-3-pentanol", "Diethylisopropylcarbinol", "NSC 900"], "SMILES": "C(C(C)C)(CC)(CC)O", "physical_data": {"Molecular Weight": "130.23", "Molecular Formula": "C8H18O", "Boiling Point": "160 \u00b0C"}}