{"cas_no": "597-31-9", "cn_name": "2,2-\u4e8c\u7532\u57fa-3-\u7f9f\u57fa\u4e19\u919b", "en_name": ["Hydroxypivalaldehyde", "Propanal, 3-hydroxy-2,2-dimethyl-", "Hydracrylaldehyde, 2,2-dimethyl-", "3-Hydroxy-2,2-dimethylpropanal", "Pentaaldol", "2,2-Dimethyl-3-hydroxypropanal", "\u03b1,\u03b1-Dimethyl-\u03b2-hydroxypropionaldehyde", "2,2-Dimethyl-3-hydroxypropionaldehyde", "Hydroxypivalaldehyde", "2-(Hydroxymethyl)-2-methylpropanal", "Hydroxypivaldehyde", "3-Hydroxy-2,2-dimethylpropionaldehyde", "3-Hydroxypivalaldehyde", "Pentaldol", "2-(Hydroxymethyl)isobutyraldehyde"], "SMILES": "C(CO)(C=O)(C)C", "physical_data": {"Molecular Weight": "102.13", "Molecular Formula": "C5H10O2", "Boiling Point": "78-85 \u00b0C @ Press: 4 Torr", "Melting Point": "30-33 \u00b0C"}}