{"cas_no": "597-35-3", "cn_name": "\u4e8c\u4e59\u781c", "en_name": ["Ethyl sulfone", "Ethane, 1,1\u2032-sulfonylbis-", "Ethyl sulfone", "1,1\u2032-Sulfonylbis[ethane]", "Diethyl sulfone", "NSC 145719", "(Ethylsulfonyl)ethane", "1-Ethylsulfonyl-ethane", "(Ethanesulfonyl)ethane"], "SMILES": "S(CC)(CC)(=O)=O", "physical_data": {"Molecular Weight": "122.19", "Molecular Formula": "C4H10O2S", "Boiling Point": "248 \u00b0C", "Melting Point": "73.5 \u00b0C", "Density": "1.3035 g/cm\u00b3 @ Temp: 20 \u00b0C"}}