{"cas_no": "597-52-4", "cn_name": "\u4e09\u4e59\u57fa\u7845\u70f7\u9187", "en_name": ["Triethylsilanol", "Silanol, 1,1,1-triethyl-", "Silanol, triethyl-", "1,1,1-Triethylsilanol", "Triethylsilanol", "Triethylhydroxysilane", "Triethylsilyl hydroxide", "Hydroxytriethylsilane", "T 2017"], "SMILES": "[Si](CC)(CC)(CC)O", "physical_data": {"Molecular Weight": "132.28", "Molecular Formula": "C6H16OSi", "Boiling Point": "154 \u00b0C", "Density": "0.864 g/cm\u00b3"}}