{"cas_no": "597-50-2", "cn_name": "\u4e09\u4e59\u57fa\u6c27\u78f7", "en_name": ["Triethylphosphine oxide", "Phosphine oxide, triethyl-", "Triethylphosphine oxide", "SKF 39804", "NSC 41934", "(Diethylphosphoryl)ethane", "1-Diethylphosphorylethane"], "SMILES": "P(CC)(CC)(CC)=O", "physical_data": {"Molecular Weight": "134.16", "Molecular Formula": "C6H15OP", "Boiling Point": "70 \u00b0C @ Press: 1 Torr", "Melting Point": "50-51 \u00b0C"}}