{"cas_no": "597-82-0", "cn_name": "O,O,O-\u4e09\u82ef\u57fa\u786b\u4ee3\u78f7\u9178\u916f", "en_name": ["Triphenyl phosphorothionate", "Phosphorothioic acid, O,O,O-triphenyl ester", "Phenyl phosphorothioate ((PhO)3PS)", "Triphenyl phosphorothioate", "O,O,O-Triphenyl thiophosphate", "Thiophosphoric acid triphenyl ester", "Triphenyl phosphorothionate", "Triphenyl thiophosphate", "Triphenoxyphosphine sulfide", "O,O,O-Triphenyl phosphorothioate", "NSC 57867", "T 309", "T 309 (antiwear additive)"], "SMILES": "P(OC1=CC=CC=C1)(OC2=CC=CC=C2)(OC3=CC=CC=C3)=S", "physical_data": {"Molecular Weight": "342.35", "Molecular Formula": "C18H15O3PS", "Boiling Point": "148-150 \u00b0C @ Press: 0.1 Torr", "Melting Point": "48 \u00b0C"}}