{"cas_no": "597-49-9", "cn_name": "3-\u4e59\u57fa-3-\u620a\u9187", "en_name": ["3-Ethyl-3-pentanol", "3-Pentanol, 3-ethyl-", "3-Ethyl-3-pentanol", "Triethylcarbinol", "Triethylmethanol", "3-Ethyl-3-hydroxypentane", "1,1-Diethyl-1-propanol", "NSC 25500"], "SMILES": "C(CC)(CC)(CC)O", "physical_data": {"Molecular Weight": "116.20", "Molecular Formula": "C7H16O", "Boiling Point": "142 \u00b0C", "Melting Point": "-12.5 \u00b0C", "Density": "0.8407 g/cm\u00b3 @ Temp: 22.4 \u00b0C"}}