{"cas_no": "597-64-8", "cn_name": "\u56db\u4e59\u57fa\u9521", "en_name": ["Tetraethyltin", "Stannane, tetraethyl-", "Tetraethylstannane", "Tetraethyltin", "NSC 22315"], "SMILES": "[Sn](CC)(CC)(CC)CC", "physical_data": {"Molecular Weight": "234.95", "Molecular Formula": "C8H20Sn", "Boiling Point": "181 \u00b0C @ Press: 760 Torr", "Melting Point": "-112 \u00b0C", "Density": "1.199 g/cm\u00b3 @ Temp: 20 \u00b0C"}}