{"cas_no": "597-71-7", "cn_name": "\u8d64\u85d3\u9187\u56db\u4e59\u9178\u916f", "en_name": ["Pentaerythritol, tetraacetate", "1,3-Propanediol, 2,2-bis[(acetyloxy)methyl]-, 1,3-diacetate", "Pentaerythritol, tetraacetate", "1,3-Propanediol, 2,2-bis[(acetyloxy)methyl]-, diacetate", "Normo-level", "Normosterol", "TAPE", "Pentaerythrityl tetraacetate", "NSC 1841", "[3-Acetyloxy-2,2-bis(acetyloxymethyl)propyl] acetate"], "SMILES": "C(COC(C)=O)(COC(C)=O)(COC(C)=O)COC(C)=O", "physical_data": {"Molecular Weight": "304.29", "Molecular Formula": "C13H20O8", "Melting Point": "83.5 \u00b0C"}}