{"cas_no": "597-76-2", "cn_name": "3-\u4e59\u57fa-3-\u5df1\u9187", "en_name": ["3-Ethyl-3-hexanol", "3-Hexanol, 3-ethyl-", "3-Ethyl-3-hexanol", "1,1-Diethyl-1-butanol", "1,1-Diethylbutanol", "NSC 28044"], "SMILES": "C(CCC)(CC)(CC)O", "physical_data": {"Molecular Weight": "130.23", "Molecular Formula": "C8H18O", "Boiling Point": "160 \u00b0C"}}