{"cas_no": "59703-84-3", "cn_name": "\u54cc\u62c9\u897f\u6797\u94a0", "en_name": ["Piperacillin sodium", "4-Thia-1-azabicyclo[3.2.0]heptane-2-carboxylic acid, 6-[[(2R)-2-[[(4-ethyl-2,3-dioxo-1-piperazinyl)carbonyl]amino]-2-phenylacetyl]amino]-3,3-dimethyl-7-oxo-, sodium salt (1:1), (2S,5R,6R)-", "4-Thia-1-azabicyclo[3.2.0]heptane-2-carboxylic acid, 6-[[[[(4-ethyl-2,3-dioxo-1-piperazinyl)carbonyl]amino]phenylacetyl]amino]-3,3-dimethyl-7-oxo-, monosodium salt, [2S-[2\u03b1,5\u03b1,6\u03b2(S*)]]-", "4-Thia-1-azabicyclo[3.2.0]heptane-2-carboxylic acid, 6-[[(2R)-[[(4-ethyl-2,3-dioxo-1-piperazinyl)carbonyl]amino]phenylacetyl]amino]-3,3-dimethyl-7-oxo-, monosodium salt, (2S,5R,6R)-", "T 1220", "Piperacillin sodium", "Sodium piperacillin", "Piperacillin-Na", "Pentcillin", "CL 227193"], "SMILES": "N(C(C(NC(=O)N1C(=O)C(=O)N(CC)CC1)C2=CC=CC=C2)=O)C3C4N(C(C(O)=O)C(C)(C)S4)C3=O.[Na]", "physical_data": {"Molecular Weight": "", "Molecular Formula": "C23H27N5O7S.Na", "Melting Point": "183-185 \u00b0C (decomp)"}}