{"cas_no": "59702-31-7", "cn_name": "N-\u4e59\u57fa-2,3-\u4e8c\u916e\u54cc\u55ea", "en_name": ["1-Ethyl-2,3-piperazinedione", "2,3-Piperazinedione, 1-ethyl-", "1-Ethyl-2,3-piperazinedione", "1-Ethyl-2,3-dioxopiperazine", "T 1982C", "N-Ethylpiperazine-2,3-dione", "N-Ethyl-2,3-dioxopiperazine"], "SMILES": "C(C)N1C(=O)C(=O)NCC1", "physical_data": {"Molecular Weight": "142.16", "Molecular Formula": "C6H10N2O2", "Melting Point": "143-145 \u00b0C"}}