{"cas_no": "59719-74-3", "cn_name": "1,3-\u73af\u620a\u4e8c\u9187", "en_name": ["1,3-Cyclopentanediol", "1,3-Cyclopentanediol", "1,3-Dihydroxycyclopentane", "NSC 351119", "3-Hydroxycyclopentanol", "Cyclopentan-1,3-diol"], "SMILES": "OC1CC(O)CC1", "physical_data": {"Molecular Weight": "102.13", "Molecular Formula": "C5H10O2", "Boiling Point": "120-125 \u00b0C @ Press: 12 Torr", "Melting Point": "82-84 \u00b0C"}}