{"cas_no": "59721-29-8", "cn_name": "\u7532\u78fa\u9178\u5361\u83ab\u53f8\u4ed6", "en_name": ["Camostat mesylate", "Benzeneacetic acid, 4-[[4-[(aminoiminomethyl)amino]benzoyl]oxy]-, 2-(dimethylamino)-2-oxoethyl ester, methanesulfonate (1:1)", "Benzeneacetic acid, 4-[[4-[(aminoiminomethyl)amino]benzoyl]oxy]-, 2-(dimethylamino)-2-oxoethyl ester, monomethanesulfonate", "FOY 305", "Camostat mesylate", "FOY-S 980", "Foipan", "Camostat monomethanesulfonate", "Foistar"], "SMILES": "S(C)(=O)(=O)O.C(OC1=CC=C(CC(OCC(N(C)C)=O)=O)C=C1)(=O)C2=CC=C(NC(=N)N)C=C2", "physical_data": {"Molecular Weight": "", "Molecular Formula": "C20H22N4O5.CH4O3S", "Melting Point": "150-155 \u00b0C"}}