{"cas_no": "59729-37-2", "cn_name": "\u975e\u6614\u785d\u5511", "en_name": ["Fexinidazole", "1H-Imidazole, 1-methyl-2-[[4-(methylthio)phenoxy]methyl]-5-nitro-", "1-Methyl-2-[[4-(methylthio)phenoxy]methyl]-5-nitro-1H-imidazole", "Fexinidazole", "HOE 239", "1-Methyl-2-[(4-methylsulfanylphenoxy)methyl]-5-nitroimidazole"], "SMILES": "C(OC1=CC=C(SC)C=C1)C=2N(C)C(N(=O)=O)=CN2", "physical_data": {"Molecular Weight": "279.31", "Molecular Formula": "C12H13N3O3S", "Boiling Point": "501 \u00b0C", "Melting Point": "51-55 \u00b0C"}}