{"cas_no": "59729-33-8", "cn_name": "\u897f\u915e\u666e\u5170", "en_name": ["Citalopram", "5-Isobenzofurancarbonitrile, 1-[3-(dimethylamino)propyl]-1-(4-fluorophenyl)-1,3-dihydro-", "1-[3-(Dimethylamino)propyl]-1-(4-fluorophenyl)-1,3-dihydro-5-isobenzofurancarbonitrile", "Lu 10-171", "Citalopram", "Nitalapram", "(\u00b1)-Citalopram", "1-[3-(Dimethylamino)propyl]-1-(4-fluorophenyl)-1,3-dihydroisobenzofuran-5-carbonitrile", "Bonitrile", "1-(3-Dimethylaminopropyl)-1-(4-fluorophenyl)-5-cyanophthalan", "Prepram", "1-[3-(Dimethylamino)propyl]-1-(4-fluorophenyl)-1,3-dihydro-2-benzofuran-5-carbonitrile", "Cital", "MeSH ID: D015283"], "SMILES": "C(CCN(C)C)C1(C=2C(CO1)=CC(C#N)=CC2)C3=CC=C(F)C=C3", "physical_data": {"Molecular Weight": "324.39", "Molecular Formula": "C20H21FN2O", "Boiling Point": "178 \u00b0C", "Melting Point": "156-157 \u00b0C"}}