{"cas_no": "59729-32-7", "cn_name": "\u6c22\u6eb4\u9178\u897f\u915e\u666e\u5170", "en_name": ["Citalopram hydrobromide", "5-Isobenzofurancarbonitrile, 1-[3-(dimethylamino)propyl]-1-(4-fluorophenyl)-1,3-dihydro-, hydrobromide (1:1)", "5-Isobenzofurancarbonitrile, 1-[3-(dimethylamino)propyl]-1-(4-fluorophenyl)-1,3-dihydro-, monohydrobromide", "Citalopram hydrobromide", "Seropram", "Cipramil", "Celexa", "Cipram", "Lupram", "Apertia", "Sepram", "Lu 10-171B", "Elopram", "Prisdal", "(\u00b1)-Citalopram hydrobromide", "Lecital", "S-Pram", "Pramcit", "Cheer", "Citopram", "[3-(Dimethylamino)propyl]-1-(4-fluorophenyl)-1,3-dihydro-2-isobenzofuran-5-carbonitrile hydrobromide", "1-[3-(Dimethylamino)propyl]-1-(4-fluorophenyl)-1,3-dihydro-2-benzofuran-5-carbonitrile hydrobromide", "Oropram"], "SMILES": "C(CCN(C)C)C1(C=2C(CO1)=CC(C#N)=CC2)C3=CC=C(F)C=C3.Br", "physical_data": {"Molecular Weight": "", "Molecular Formula": "C20H21FN2O.BrH", "Melting Point": "182-183 \u00b0C"}}