{"cas_no": "5973-71-7", "cn_name": "3,4-\u4e8c\u7532\u57fa\u82ef\u7532\u919b", "en_name": ["3,4-Dimethylbenzaldehyde", "Benzaldehyde, 3,4-dimethyl-", "3,4-Dimethylbenzaldehyde", "3,4-DBAL"], "SMILES": "C(=O)C1=CC(C)=C(C)C=C1", "physical_data": {"Molecular Weight": "134.18", "Molecular Formula": "C9H10O", "Boiling Point": "225-228 \u00b0C"}}