{"cas_no": "5973-83-1", "cn_name": "1-\u5421\u5576-3-\u57fa\u4e59\u916e\u809f", "en_name": ["1-(3-Pyridinyl)ethanone oxime", "Ethanone, 1-(3-pyridinyl)-, oxime", "Ketone, methyl 3-pyridyl, oxime", "1-(3-Pyridinyl)ethanone oxime", "3-Acetylpyridine oxime", "NSC 72375", "1-(Pyridin-3-yl)ethanoneoxime"], "SMILES": "C(=NO)(C)C=1C=CC=NC1", "physical_data": {"Molecular Weight": "136.15", "Molecular Formula": "C7H8N2O", "Melting Point": "116-117 \u00b0C"}}