{"cas_no": "59743-88-3", "cn_name": "10-\u7532\u6c27\u57fa-4-(1-\u7532\u57fa-4-\u54cc\u5576\u57fa)-4H-\u82ef\u5e76[4,5]\u73af\u5e9a\u4e09\u70ef\u5e76[1,2-B]\u567b\u5429-4-\u9187", "en_name": ["10-Methoxy-4-(1-methyl-4-piperidinyl)-4H-benzo[4,5]cyclohepta[1,2-b]thiophene-4-ol", "4H-Benzo[4,5]cyclohepta[1,2-b]thiophene-4-ol, 10-methoxy-4-(1-methyl-4-piperidinyl)-", "4H-Benzo[4,5]cyclohepta[1,2]thiophene-4-ol, 10-methoxy-4-(1-methyl-4-piperidinyl)-", "10-Methoxy-4-(1-methyl-4-piperidinyl)-4H-benzo[4,5]cyclohepta[1,2-b]thiophene-4-ol", "10-Methoxy-4-(1-methylpiperidin-4-yl)-4H-benzo[4,5]cyclohepta[1,2-b]thiophen-4-ol"], "SMILES": "OC1(C2=C(C(OC)=CC=3C1=CC=CC3)SC=C2)C4CCN(C)CC4", "physical_data": {"Molecular Weight": "341.47", "Molecular Formula": "C20H23NO2S", "Melting Point": "194-196 \u00b0C"}}