{"cas_no": "59743-84-9", "cn_name": "10-\u7532\u6c27\u57fa-4H-\u82ef\u5e76[4,5]\u73af\u5e9a\u4e09\u70ef\u5e76[1,2-b]\u567b\u5429-4-\u916e", "en_name": ["10-Methoxy-4H-benzo[4,5]cyclohepta[1,2-b]thiophen-4-one", "4H-Benzo[4,5]cyclohepta[1,2-b]thiophen-4-one, 10-methoxy-", "10-Methoxy-4H-benzo[4,5]cyclohepta[1,2-b]thiophen-4-one"], "SMILES": "O(C)C=1C2=C(C(=O)C=3C(C1)=CC=CC3)C=CS2", "physical_data": {"Molecular Weight": "242.29", "Molecular Formula": "C14H10O2S", "Melting Point": "164-166 \u00b0C"}}