{"cas_no": "59748-90-2", "cn_name": "4-\u6eb4-2-\u6c2f\u82ef\u7532\u9178", "en_name": ["4-Bromo-2-chlorobenzoic acid", "Benzoic acid, 4-bromo-2-chloro-", "4-Bromo-2-chlorobenzoic acid", "2-Chloro-4-bromobenzoic acid"], "SMILES": "C(O)(=O)C1=C(Cl)C=C(Br)C=C1", "physical_data": {"Molecular Weight": "235.46", "Molecular Formula": "C7H4BrClO2", "Melting Point": "166-167 \u00b0C"}}