{"cas_no": "59756-60-4", "cn_name": "\u6c1f\u5576\u916e", "en_name": ["Fluridone", "4(1H)-Pyridinone, 1-methyl-3-phenyl-5-[3-(trifluoromethyl)phenyl]-", "1-Methyl-3-phenyl-5-[3-(trifluoromethyl)phenyl]-4(1H)-pyridinone", "EL 171", "Fluridone", "Sonar"], "SMILES": "O=C1C(=CN(C)C=C1C2=CC=CC=C2)C3=CC(C(F)(F)F)=CC=C3", "physical_data": {"Molecular Weight": "329.32", "Molecular Formula": "C19H14F3NO", "Melting Point": "155 \u00b0C"}}