{"cas_no": "5975-78-0", "cn_name": "\u7389\u7c73\u8d64\u9709\u916e", "en_name": ["Zearalanone", "1H-2-Benzoxacyclotetradecin-1,7(8H)-dione, 3,4,5,6,9,10,11,12-octahydro-14,16-dihydroxy-3-methyl-, (3S)-", "1H-2-Benzoxacyclotetradecin-1,7(8H)-dione, 3,4,5,6,9,10,11,12-octahydro-14,16-dihydroxy-3-methyl-, (S)-", "\u03b2-Resorcylic acid, 6-(10-hydroxy-6-oxoundecyl)-, \u03bc-lactone", "(3S)-3,4,5,6,9,10,11,12-Octahydro-14,16-dihydroxy-3-methyl-1H-2-benzoxacyclotetradecin-1,7(8H)-dione", "Zearalanone", "(S)-Zearalanone", "P 1502", "Zanone", "(-)-Zearalanone"], "SMILES": "OC1=C2C(=CC(O)=C1)CCCCCC(=O)CCCC(C)OC2=O", "physical_data": {"Molecular Weight": "320.38", "Molecular Formula": "C18H24O5", "Melting Point": "191-193 \u00b0C"}}