{"cas_no": "5976-47-6", "cn_name": "2-\u6c2f-2-\u4e19\u70ef-1-\u9187", "en_name": ["2-Chloro-2-propen-1-ol", "2-Propen-1-ol, 2-chloro-", "2-Chloroallyl alcohol", "2-Chloro-2-propen-1-ol", "2-Chloro-2-propenol", "2-Chloro-3-hydroxypropene", "\u03b2-Chloroallyl alcohol", "NSC 508743", "NSC 87536", "2-Chloro-1-prop-2-en-1-ol"], "SMILES": "C(CO)(=C)Cl", "physical_data": {"Molecular Weight": "92.52", "Molecular Formula": "C3H5ClO", "Boiling Point": "153.6 \u00b0C @ Press: 758 Torr", "Density": "1.1582 g/cm\u00b3 @ Temp: 35 \u00b0C"}}