{"cas_no": "5976-61-4", "cn_name": "4-\u7f9f\u96cc\u4e8c\u9187", "en_name": ["4-Hydroxyestradiol", "Estra-1,3,5(10)-triene-3,4,17-triol, (17\u03b2)-", "Estra-1,3,5(10)-triene-3,4,17\u03b2-triol", "(17\u03b2)-Estra-1,3,5(10)-triene-3,4,17-triol", "4-Hydroxyestradiol", "4-Hydroxy-17\u03b2-estradiol"], "SMILES": "CC12C(C3C(C=4C(CC3)=C(O)C(O)=CC4)CC1)CCC2O", "physical_data": {"Molecular Weight": "288.38", "Molecular Formula": "C18H24O3", "Melting Point": "252-253 \u00b0C"}}