{"cas_no": "59767-24-7", "cn_name": "1-(4-\u6c2f\u82ef\u57fa)-1-\u82ef\u57fa\u4e59\u9187", "en_name": ["1-(4-Chlorophenyl)-1-phenylethanol", "Benzenemethanol, 4-chloro-\u03b1-methyl-\u03b1-phenyl-", "Benzhydrol, 4-chloro-\u03b1-methyl-", "4-Chloro-\u03b1-methyl-\u03b1-phenylbenzenemethanol", "p-Chloro-\u03b1-methylbenzhydrol", "1-(p-Chlorophenyl)-1-phenylethanol", "(p-Chlorophenyl)methylphenylcarbinol", "EGIS 5927", "1-(4-Chlorophenyl)-1-phenylethanol", "4-Chloro(\u03b1-methyl-\u03b1-phenyl)benzenemethanol", "1-(4-Chlorophenyl)-1-phenylethan-1-ol"], "SMILES": "C(C)(O)(C1=CC=C(Cl)C=C1)C2=CC=CC=C2", "physical_data": {"Molecular Weight": "232.71", "Molecular Formula": "C14H13ClO", "Boiling Point": "140 \u00b0C @ Press: 0.3 Torr"}}