{"cas_no": "59772-49-5", "cn_name": "2-\u6eb4-6-\u6c2f\u82ef\u80fa", "en_name": ["2-Bromo-6-chlorobenzenamine", "Benzenamine, 2-bromo-6-chloro-", "2-Bromo-6-chlorobenzenamine", "2-Bromo-6-chloroaniline", "2-Chloro-6-bromoaniline"], "SMILES": "NC1=C(Br)C=CC=C1Cl", "physical_data": {"Molecular Weight": "206.47", "Molecular Formula": "C6H5BrClN", "Melting Point": "57-58 \u00b0C"}}