{"cas_no": "59771-24-3", "cn_name": "\u5bf9\u5f02\u4e01\u57fa\u82ef\u4e19\u916e", "en_name": ["1-[4-(2-Methylpropyl)phenyl]-1-propanone", "1-Propanone, 1-[4-(2-methylpropyl)phenyl]-", "1-[4-(2-Methylpropyl)phenyl]-1-propanone", "p-Isobutylpropiophenone", "4\u2032-Isobutylpropiophenone", "1-(4-Isobutylphenyl)propan-1-one"], "SMILES": "C(C(C)C)C1=CC=C(C(CC)=O)C=C1", "physical_data": {"Molecular Weight": "190.28", "Molecular Formula": "C13H18O", "Boiling Point": "86-87 \u00b0C @ Press: 0.3 Torr"}}