{"cas_no": "5977-14-0", "cn_name": "1,3-\u4e01\u4e8c\u916e\u80fa", "en_name": ["Acetoacetamide", "Butanamide, 3-oxo-", "Acetoacetamide", "3-Oxobutanamide", "\u03b1-Acetylacetamide", "Acetylacetamide", "Acetoacetic acid amide", "NSC 632231", "3-Oxobutyramide"], "SMILES": "C(C(C)=O)C(N)=O", "physical_data": {"Molecular Weight": "101.10", "Molecular Formula": "C4H7NO2", "Melting Point": "48 \u00b0C"}}