{"cas_no": "59776-88-4", "cn_name": "2-\u6c27\u4ee3-1-\u5421\u54af\u70f7\u4e59\u9178\u7532\u916f", "en_name": ["Methyl 2-oxo-1-pyrrolidineacetate", "1-Pyrrolidineacetic acid, 2-oxo-, methyl ester", "Methyl 2-oxo-1-pyrrolidineacetate", "Methyl 2-pyrrolidone-1-acetate", "2-Ketopyrrolidine-1-acetic acid methyl ester", "1-(Methoxycarbonylmethyl)-2-pyrrolidone", "Methyl 2-pyrrolidinon-1-ylacetate", "Methyl 2-(2-oxo-1-pyrrolidinyl)acetate", "(2-Oxopyrrolidin-1-yl)acetic acid methyl ester"], "SMILES": "C(C(OC)=O)N1C(=O)CCC1", "physical_data": {"Molecular Weight": "157.17", "Molecular Formula": "C7H11NO3", "Boiling Point": "144-148 \u00b0C @ Press: 16 Torr"}}