{"cas_no": "5978-95-0", "cn_name": "D-\u827e\u675c\u7cd6", "en_name": ["D-Idose", "D-Idose", "Idose, D-"], "SMILES": "C(C(C(C=O)O)O)(C(CO)O)O", "physical_data": {"Molecular Weight": "180.16", "Molecular Formula": "C6H12O6", "Melting Point": "132 \u00b0C"}}