{"cas_no": "5978-75-6", "cn_name": "9-\u6c28\u57fa\u82b4\u76d0\u9178\u76d0", "en_name": ["9H-Fluoren-9-amine, hydrochloride (1:1)", "9H-Fluoren-9-amine, hydrochloride (1:1)", "Fluoren-9-amine, hydrochloride", "9H-Fluoren-9-amine, hydrochloride", "9-Aminofluorene hydrochloride", "9-Fluorenylamine hydrochloride"], "SMILES": "NC1C=2C(C=3C1=CC=CC3)=CC=CC2.Cl", "physical_data": {"Molecular Weight": "", "Molecular Formula": "C13H11N.ClH", "Melting Point": "255-257 \u00b0C (decomp)"}}