{"cas_no": "5978-08-5", "cn_name": "5-\u6c2f-2-\u620a\u916e\u4e59\u70ef\u7f29\u916e", "en_name": ["2-(3-Chloropropyl)-2-methyl-1,3-dioxolane", "1,3-Dioxolane, 2-(3-chloropropyl)-2-methyl-", "2-(3-Chloropropyl)-2-methyl-1,3-dioxolane", "2,2-(Ethylenedioxy)-5-chloropentane", "5-Chloro-2-pentanone cyclic ethylene ketal", "4,4-(Ethylenedioxy)pentyl chloride", "5-Chloropentan-2-one ethylene acetal", "1-Chloro-4,4-(ethylenedioxy)pentane", "NSC 135783", "2-(3\u2032-Chloropropyl)-2-methyl-1,3-dioxolane"], "SMILES": "C(CCCl)C1(C)OCCO1", "physical_data": {"Molecular Weight": "164.63", "Molecular Formula": "C7H13ClO2", "Boiling Point": "94-97 \u00b0C @ Press: 20 Torr", "Density": "1.098 g/cm\u00b3 @ Temp: 25 \u00b0C"}}