{"cas_no": "5978-70-1", "cn_name": "L-2-\u8f9b\u9187", "en_name": ["(R)-2-Octanol", "2-Octanol, (2R)-", "2-Octanol, (R)-", "(2R)-2-Octanol", "l-2-Octanol", "(R)-(-)-2-Octanol", "(-)-2-Octanol", "(R)-2-Octanol", "(R)-(-)-2-Octyl alcohol", "L-(-)-Octan-2-ol", "L-2-Octanol", "(R)-1-Methylheptanol", "(2R)-Octan-2-ol", "(2R)-2-Octanol"], "SMILES": "C(CC(C)O)CCCC", "physical_data": {"Molecular Weight": "130.23", "Molecular Formula": "C8H18O", "Boiling Point": "77 \u00b0C @ Press: 10 Torr", "Density": "0.083 g/cm\u00b3 @ Temp: 20 \u00b0C"}}