{"cas_no": "598-38-9", "cn_name": "2,2-\u4e8c\u6c2f\u4e59\u9187", "en_name": ["2,2-Dichloroethanol", "Ethanol, 2,2-dichloro-", "2,2-Dichloroethanol", "Dichloroethanol", "NSC 60513", "2,2-Dichloroethan-1-ol"], "SMILES": "C(CO)(Cl)Cl", "physical_data": {"Molecular Weight": "114.96", "Molecular Formula": "C2H4Cl2O", "Boiling Point": "146 \u00b0C"}}