{"cas_no": "598-50-5", "cn_name": "N-\u7532\u57fa\u8132", "en_name": ["Methylurea", "Urea, N-methyl-", "Urea, methyl-", "N-Methylurea", "Methylurea", "1-Methylurea", "Monomethylurea", "MeSH ID: D008782"], "SMILES": "C(NC)(N)=O", "physical_data": {"Molecular Weight": "74.08", "Molecular Formula": "C2H6N2O", "Melting Point": "103 \u00b0C", "Density": "4 x 10<sup>-5</sup> g/cm\u00b3 @ Temp: 25.00 \u00b0C"}}