{"cas_no": "598-55-0", "cn_name": "\u6c28\u57fa\u7532\u9178\u7532\u916f", "en_name": ["Carbamic acid, methyl ester", "Carbamic acid, methyl ester", "Methyl carbamate", "Methylurethane", "Urethylane", "NSC 3054"], "SMILES": "C(OC)(N)=O", "physical_data": {"Molecular Weight": "75.07", "Molecular Formula": "C2H5NO2", "Boiling Point": "177 \u00b0C", "Melting Point": "52-54 \u00b0C", "Density": "1.1361 g/cm\u00b3 @ Temp: 56 \u00b0C"}}