{"cas_no": "598-78-7", "cn_name": "2-\u6c2f\u4e19\u9178", "en_name": ["2-Chloropropionic acid", "Propanoic acid, 2-chloro-", "Propionic acid, 2-chloro-", "Propionic acid, \u03b1-chloro-", "2-Chloropropanoic acid", "2-Chloropropionic acid", "\u03b1-Chloropropionic acid", "DL-2-Chloropropionic acid", "(RS)-2-Chloropropionic acid", "(\u00b1)-\u03b1-Chloropropanoic acid", "(\u00b1)-2-Chloropropionic acid", "(RS)-\u03b1-Chloropropionic acid", "(\u00b1)-2-Chloropropanoic acid", "NSC 173", "NSC 401806", "(RS)-2-Chloropropanoic acid"], "SMILES": "C(C(O)=O)(C)Cl", "physical_data": {"Molecular Weight": "108.52", "Molecular Formula": "C3H5ClO2", "Boiling Point": "186 \u00b0C", "Melting Point": "-12.1 \u00b0C", "Density": "1.2585 g/cm\u00b3 @ Temp: 20 \u00b0C"}}