{"cas_no": "598-16-3", "cn_name": "\u4e09\u6eb4\u4e59\u70ef", "en_name": ["1,1,2-Tribromoethene", "Ethene, 1,1,2-tribromo-", "Ethylene, tribromo-", "Ethene, tribromo-", "1,1,2-Tribromoethene", "Tribromoethylene", "1,1,2-Tribromoethylene", "Tribromoethene", "NSC 343621"], "SMILES": "C(=CBr)(Br)Br", "physical_data": {"Molecular Weight": "264.74", "Molecular Formula": "C2HBr3", "Boiling Point": "164 \u00b0C", "Density": "2.5415 g/cm\u00b3 @ Temp: 25 \u00b0C"}}