{"cas_no": "598-04-9", "cn_name": "\u6b63\u4e01\u781c", "en_name": ["1,1\u2032-Sulfonylbis[butane]", "Butane, 1,1\u2032-sulfonylbis-", "Butyl sulfone", "1,1\u2032-Sulfonylbis[butane]", "Dibutyl sulfone", "Di-n-butyl sulfone", "n-Butyl sulfone", "NSC 2116", "1-Butylsulfonyl-butane", "1-Butylsulfonylbutane"], "SMILES": "S(CCCC)(CCCC)(=O)=O", "physical_data": {"Molecular Weight": "178.29", "Molecular Formula": "C8H18O2S", "Boiling Point": "291 \u00b0C", "Melting Point": "45 \u00b0C"}}