{"cas_no": "598-21-0", "cn_name": "\u6eb4\u4e59\u9170\u6eb4", "en_name": ["Bromoacetyl bromide", "Acetyl bromide, 2-bromo-", "Acetyl bromide, bromo-", "2-Bromoacetyl bromide", "Bromoacetyl bromide", "Monobromoacetyl bromide", "\u03b1-Bromoacetyl bromide"], "SMILES": "C(CBr)(Br)=O", "physical_data": {"Molecular Weight": "201.84", "Molecular Formula": "C2H2Br2O", "Boiling Point": "148.5 \u00b0C"}}