{"cas_no": "598-79-8", "cn_name": "2-\u6c2f\u4e19\u70ef\u9178", "en_name": ["2-Chloro-2-propenoic acid", "2-Propenoic acid, 2-chloro-", "Acrylic acid, 2-chloro-", "2-Chloro-2-propenoic acid", "\u03b1-Chloroacrylic acid", "2-Chloroacrylic acid", "Chloroacrylic acid", "2-Chloropropenoic acid", "NSC 97174"], "SMILES": "C(C(O)=O)(=C)Cl", "physical_data": {"Molecular Weight": "106.51", "Molecular Formula": "C3H3ClO2", "Boiling Point": "178-179 \u00b0C @ Press: 722 Torr", "Melting Point": "64-65 \u00b0C"}}