{"cas_no": "598-73-2", "cn_name": "\u6eb4\u4ee3\u4e09\u6c1f\u4ee3\u4e59\u70ef", "en_name": ["1-Bromo-1,2,2-trifluoroethene", "Ethene, 1-bromo-1,2,2-trifluoro-", "Ethylene, bromotrifluoro-", "Ethene, bromotrifluoro-", "1-Bromo-1,2,2-trifluoroethene", "1-Bromo-1,2,2-trifluoroethylene", "Bromotrifluoroethylene", "Trifluorovinyl bromide", "Trifluorobromoethylene", "1,2,2-Trifluoro-2-bromoethylene", "Bromotrifluoroethene", "HBFC 1113B1", "1,1,2-Trifluoro-2-bromoethylene"], "SMILES": "C(=C(F)F)(Br)F", "physical_data": {"Molecular Weight": "160.92", "Molecular Formula": "C2BrF3", "Boiling Point": "-1 \u00b0C"}}