{"cas_no": "598-94-7", "cn_name": "1,1-\u4e8c\u7532\u57fa\u8132", "en_name": ["N,N-Dimethylurea", "Urea, N,N-dimethyl-", "Urea, 1,1-dimethyl-", "N,N-Dimethylurea", "1,1-Dimethylurea", "asym-Dimethylurea", "NSC 33603", "N,N-Dimethylcarbamide"], "SMILES": "C(N(C)C)(N)=O", "physical_data": {"Molecular Weight": "88.11", "Molecular Formula": "C3H8N2O", "Melting Point": "182 \u00b0C", "Density": "1.255 g/cm\u00b3"}}