{"cas_no": "598-72-1", "cn_name": "2-\u6eb4\u4e19\u9178", "en_name": ["2-Bromopropionic acid", "Propanoic acid, 2-bromo-", "Propionic acid, 2-bromo-", "Propionic acid, \u03b1-bromo-", "2-Bromopropanoic acid", "\u03b1-Bromopropionic acid", "2-Bromopropionic acid", "DL-\u03b1-Bromopropionic acid", "DL-2-Bromopropionic acid", "(\u00b1)-\u03b1-Bromopropanoic acid", "(\u00b1)-2-Bromopropionic acid", "(RS)-\u03b1-Bromopropionic acid", "(\u00b1)-2-Bromopropanoic acid", "(RS)-2-Bromopropionic acid", "NSC 172", "(RS)-2-Bromopropanoic acid"], "SMILES": "C(C(O)=O)(Br)C", "physical_data": {"Molecular Weight": "152.97", "Molecular Formula": "C3H5BrO2", "Boiling Point": "203 \u00b0C", "Melting Point": "24.5 \u00b0C", "Density": "1.7000 g/cm\u00b3 @ Temp: 20 \u00b0C"}}