{"cas_no": "598-98-1", "cn_name": "\u4e09\u7532\u57fa\u4e59\u9178\u7532\u916f", "en_name": ["Methyl pivalate", "Propanoic acid, 2,2-dimethyl-, methyl ester", "Pivalic acid, methyl ester", "Methyl pivalate", "Methyl trimethylacetate", "Methyl 2,2-dimethylpropanoate", "Methyl 2,2-dimethylpropionate", "2,2-Dimethyl-propanoic acid methyl ester"], "SMILES": "C(C(C)(C)C)(OC)=O", "physical_data": {"Molecular Weight": "116.16", "Molecular Formula": "C6H12O2", "Boiling Point": "101.1 \u00b0C", "Density": "0.891 g/cm\u00b3 @ Temp: 0 \u00b0C"}}