{"cas_no": "598-41-4", "cn_name": "\u7518\u6c28\u9170\u80fa", "en_name": ["Glycinamide", "Acetamide, 2-amino-", "Glycinamide", "2-Aminoacetamide", "Glycine amide", "Aminoacetamide"], "SMILES": "C(CN)(N)=O", "physical_data": {"Molecular Weight": "74.08", "Molecular Formula": "C2H6N2O", "Melting Point": "65-67 \u00b0C"}}