{"cas_no": "598-32-3", "cn_name": "3-\u4e01\u70ef-2-\u9187", "en_name": ["3-Buten-2-ol", "3-Buten-2-ol", "3-Hydroxy-1-butene", "1-Buten-3-ol", "1-Methyl-2-propen-1-ol", "Methylvinylcarbinol", "1-Methyl-2-propenol", "1-Methylallyl alcohol", "\u03b1-Methylallyl alcohol", "2-Hydroxy-3-butene", "(\u00b1)-3-Buten-2-ol", "Racemic-3-buten-2-ol", "NSC 17481", "1-Methylprop-2-enyl alcohol"], "SMILES": "C(C=C)(C)O", "physical_data": {"Molecular Weight": "72.11", "Molecular Formula": "C4H8O", "Boiling Point": "96-97 \u00b0C @ Press: 756 Torr", "Melting Point": "59-59.5 \u00b0C", "Density": "0.8318 g/cm\u00b3 @ Temp: 20 \u00b0C"}}