{"cas_no": "598-31-2", "cn_name": "\u6eb4\u4e19\u916e", "en_name": ["1-Bromo-2-propanone", "2-Propanone, 1-bromo-", "2-Propanone, bromo-", "1-Bromo-2-propanone", "Bromoacetone", "Acetonyl bromide", "Acetylmethyl bromide", "Monobromoacetone", "Bromomethyl methyl ketone", "\u03b1-Bromoacetone", "\u03b1-Bromopropanone", "1-Bromoacetone", "1-Bromopropan-2-one"], "SMILES": "C(CBr)(C)=O", "physical_data": {"Molecular Weight": "136.98", "Molecular Formula": "C3H5BrO", "Boiling Point": "63.5-64 \u00b0C @ Press: 50 Torr", "Melting Point": "-36.5 \u00b0C", "Density": "1.634 g/cm\u00b3 @ Temp: 23 \u00b0C"}}