{"cas_no": "598-18-5", "cn_name": "2-\u6eb4-1-\u4e19\u9187", "en_name": ["2-Bromo-1-propanol", "1-Propanol, 2-bromo-", "2-Bromo-1-propanol", "2-Bromopropanol", "2-Hydroxy-1-methylethyl bromide", "1-Hydroxy-2-bromopropane", "(\u00b1)-2-Bromo-1-propanol"], "SMILES": "C(CO)(Br)C", "physical_data": {"Molecular Weight": "138.99", "Molecular Formula": "C3H7BrO", "Boiling Point": "64-65 \u00b0C @ Press: 25 Torr", "Density": "1.5551 g/cm\u00b3 @ Temp: 30 \u00b0C"}}