{"cas_no": "598-88-9", "cn_name": "1,2-\u4e8c\u6c2f-1,2-\u4e8c\u6c1f\u4e59\u70ef", "en_name": ["1,2-Dichloro-1,2-difluoroethene", "Ethene, 1,2-dichloro-1,2-difluoro-", "Ethylene, 1,2-dichloro-1,2-difluoro-", "1,2-Dichloro-1,2-difluoroethene", "1,2-Dichloro-1,2-difluoroethylene", "1,2-Dichlorodifluoroethylene", "1,2-Dichlorodifluoroethene", "1,2-Difluoro-1,2-dichloroethene", "1,2-Difluoro-1,2-dichloroethylene", "1,2-Difluorodichloroethylene", "CFC 1112", "CFO 1112"], "SMILES": "C(=C(Cl)F)(Cl)F", "physical_data": {"Molecular Weight": "132.92", "Molecular Formula": "C2Cl2F2", "Boiling Point": "21.1 \u00b0C", "Melting Point": "-130.5 \u00b0C"}}