{"cas_no": "598-10-7", "cn_name": "1,1-\u73af\u4e19\u57fa\u4e8c\u7fa7\u9178", "en_name": ["1,1-Cyclopropanedicarboxylic acid", "1,1-Cyclopropanedicarboxylic acid", "Ethylenemalonic acid", "1-Carboxycyclopropanecarboxylic acid", "NSC 626865", "Cyclopropan-1,1-dicarboxylic acid"], "SMILES": "C(O)(=O)C1(C(O)=O)CC1", "physical_data": {"Molecular Weight": "130.10", "Molecular Formula": "C5H6O4", "Melting Point": "136-138 \u00b0C"}}