{"cas_no": "598-25-4", "cn_name": "3-\u7532\u57fa-1,2-\u4e01\u4e8c\u70ef", "en_name": ["3-Methyl-1,2-butadiene", "1,2-Butadiene, 3-methyl-", "1,1-Dimethylallene", "3-Methyl-1,2-butadiene", "2-Methyl-2,3-butadiene", "1,1-Dimethylallylene", "3,3-Dimethylallene", "NSC 74117", "1,1-Dimethylpropadiene", "1,1-Dimethyl-1,2-propadiene"], "SMILES": "C(=C=C)(C)C", "physical_data": {"Molecular Weight": "68.12", "Molecular Formula": "C5H8", "Boiling Point": "40.83 \u00b0C", "Melting Point": "-113.6 \u00b0C", "Density": "0.6913 g/cm\u00b3 @ Temp: 3.6 \u00b0C"}}