{"cas_no": "598-64-1", "cn_name": "N,N-\u4e8c\u7532\u57fa\u4e8c\u786b\u4ee3\u6c28\u57fa\u7532\u9178\u4e8c\u7532\u94f5\u76d0", "en_name": ["Carbamodithioic acid, N,N-dimethyl-, compd. with N-methylmethanamine (1:1)", "Carbamodithioic acid, N,N-dimethyl-, compd. with N-methylmethanamine (1:1)", "Carbamic acid, dimethyldithio-, compd. with dimethylamine (1:1)", "Carbamodithioic acid, dimethyl-, compd. with N-methylmethanamine (1:1)", "Carbamic acid, dimethyldithio-, compd. with Me2NH", "Dimethylamine, dimethyldithiocarbamate", "Methanamine, N-methyl-, dimethylcarbamodithioate", "Dimethyldithiocarbamic acid dimethylamine salt", "Dimethyldithiocarbamic acid compd. with dimethylamine (1:1)", "Dimethylammonium dimethyldithiocarbamate", "N,N-Dimethylammonium N,N-dimethyldithiocarbamate", "NSC 100885", "NSC 6205", "N,N-Dimethyldithiocarbamic acid dimethylammonium salt"], "SMILES": "C(N(C)C)(=S)S.N(C)C", "physical_data": {"Molecular Weight": "", "Molecular Formula": "C3H7NS2.C2H7N", "Melting Point": "132 \u00b0C"}}