{"cas_no": "598-52-7", "cn_name": "N-\u7532\u786b\u8132", "en_name": ["Methylthiourea", "Thiourea, N-methyl-", "Urea, 1-methyl-2-thio-", "Thiourea, methyl-", "Pseudourea, 1-methyl-2-thio-", "N-Methylthiourea", "Methylthiourea", "1-Methyl-2-thiourea", "1-Methylthiourea", "1-Methylthiocarbamide", "Methylthiocarbamide", "N-Methylthiocarbamide", "Monomethylthiourea", "N-Methyl-2-thiourea", "NSC 30213"], "SMILES": "C(NC)(N)=S", "physical_data": {"Molecular Weight": "90.15", "Molecular Formula": "C2H6N2S", "Melting Point": "120 \u00b0C"}}