{"cas_no": "598-56-1", "cn_name": "N,N-\u4e8c\u7532\u57fa\u4e59\u80fa", "en_name": ["Dimethylethylamine", "Ethanamine, N,N-dimethyl-", "Ethylamine, N,N-dimethyl-", "N,N-Dimethylethanamine", "Dimethylethylamine", "N,N-Dimethylethylamine", "Methanamine, N-ethyl-N-methyl-", "N-Ethyldimethylamine", "N,N-Dimethylaminoethane", "DMEA"], "SMILES": "N(CC)(C)C", "physical_data": {"Molecular Weight": "73.14", "Molecular Formula": "C4H11N", "Boiling Point": "36.5 \u00b0C", "Melting Point": "-140 \u00b0C"}}