{"cas_no": "598-22-1", "cn_name": "\u4e19\u9170\u6eb4", "en_name": ["Propanoyl bromide", "Propanoyl bromide", "Propionyl bromide", "Propionic acid bromide"], "SMILES": "C(CC)(Br)=O", "physical_data": {"Molecular Weight": "136.98", "Molecular Formula": "C3H5BrO", "Boiling Point": "102 \u00b0C"}}