{"cas_no": "598-74-3", "cn_name": "1,2-\u4e8c\u7532\u57fa\u4e19\u80fa", "en_name": ["1,2-Dimethylpropylamine", "2-Butanamine, 3-methyl-", "Propylamine, 1,2-dimethyl-", "3-Methyl-2-butanamine", "3-Methyl-2-aminobutane", "2-Amino-3-methylbutane", "1,2-Dimethylpropylamine", "1,2-Dimethylpropanamine", "(\u00b1)-3-Methyl-2-butanamine", "(\u00b1)-3-Methyl-2-butylamine", "3-Methyl-2-butylamine", "(3-Methylbutan-2-yl)amine"], "SMILES": "C(C(C)N)(C)C", "physical_data": {"Molecular Weight": "87.16", "Molecular Formula": "C5H13N", "Boiling Point": "85.5 \u00b0C", "Melting Point": "-50 \u00b0C", "Density": "0.7478 g/cm\u00b3 @ Temp: 23 \u00b0C"}}