{"cas_no": "598-53-8", "cn_name": "\u7532\u57fa\u5f02\u4e19\u57fa\u919a", "en_name": ["Propane, 2-methoxy-", "Propane, 2-methoxy-", "Ether, isopropyl methyl", "Methyl isopropyl ether", "Isopropyl methyl ether", "2-Methoxypropane", "Isopryl", "Methyl iso-propyl ether", "2-Propylmethyl ether"], "SMILES": "C(OC)(C)C", "physical_data": {"Molecular Weight": "74.12", "Molecular Formula": "C4H10O", "Boiling Point": "30.7 \u00b0C", "Density": "0.7237 g/cm\u00b3 @ Temp: 15 \u00b0C"}}