{"cas_no": "598-63-0", "cn_name": "\u78b3\u9178\u94c5(II)(1:1)", "en_name": ["Lead carbonate (PbCO3)", "Carbonic acid, lead(2+) salt (1:1)", "Lead carbonate (PbCO3)", "Lead carbonate", "Dibasic lead carbonate", "Lead(2+) carbonate", "Plumbous carbonate", "Lead(II) carbonate"], "SMILES": "C(=O)(O)O.[Pb]", "physical_data": {"Molecular Weight": "", "Molecular Formula": "CH2O3.Pb", "Melting Point": "315 \u00b0C (decomp)", "Density": "6.6 g/cm\u00b3"}}