{"cas_no": "598-09-4", "cn_name": "\u7532\u57fa\u73af\u6c27\u6c2f\u4e19\u70f7", "en_name": ["2-(Chloromethyl)-2-methyloxirane", "Oxirane, 2-(chloromethyl)-2-methyl-", "Propane, 1-chloro-2,3-epoxy-2-methyl-", "2-(Chloromethyl)-2-methyloxirane", "1,2-Epoxy-3-chloroisobutane", "\u03b2-Methylepichlorohydrin", "3-Chloro-1,2-epoxy-2-methylpropane", "1,2-Epoxy-2-methyl-3-chloropropane", "Methylepichlorohydrin", "Methepichlorohydrin", "1-Chloro-2,3-epoxy-2-methylpropane", "2-Methyl-1-chloro-2,3-epoxypropane", "2-Methylepichlorohydrin", "2-Methyl-2-(chloromethyl)oxirane", "NSC 24245", "2-(Chloromethyl)-2-methoxirane", "2-(Chloromethyl)-1,2-epoxypropane"], "SMILES": "C(Cl)C1(C)CO1", "physical_data": {"Molecular Weight": "106.55", "Molecular Formula": "C4H7ClO", "Boiling Point": "122 \u00b0C", "Density": "1.1011 g/cm\u00b3 @ Temp: 20 \u00b0C"}}