{"cas_no": "598-19-6", "cn_name": "2-\u6eb4-2-\u4e19\u70ef-1-\u9187", "en_name": ["2-Propen-1-ol, 2-bromo-", "2-Propen-1-ol, 2-bromo-", "2-Bromo-2-propen-1-ol", "2-Bromoallyl alcohol", "2-Bromo-1-propen-3-ol"], "SMILES": "C(CO)(Br)=C", "physical_data": {"Molecular Weight": "136.98", "Molecular Formula": "C3H5BrO", "Boiling Point": "62 \u00b0C @ Press: 21 Torr", "Density": "1.621 g/cm\u00b3 @ Temp: 18 \u00b0C"}}