{"cas_no": "598-77-6", "cn_name": "1,1,2-\u4e09\u6c2f\u4e19\u70f7", "en_name": ["1,1,2-Trichloropropane", "Propane, 1,1,2-trichloro-", "1,1,2-Trichloropropane", "HCC 260DB", "2-Chloropropylidene Chloride"], "SMILES": "C(C(Cl)Cl)(C)Cl", "physical_data": {"Molecular Weight": "147.43", "Molecular Formula": "C3H5Cl3", "Boiling Point": "132 \u00b0C"}}