{"cas_no": "598-23-2", "cn_name": "3-\u7532\u57fa-1-\u4e01\u7094", "en_name": ["3-Methyl-1-butyne", "1-Butyne, 3-methyl-", "3-Methyl-1-butyne", "Isopentyne", "Isopropylacetylene", "2-Methyl-3-butyne", "3-Methylbutyne", "3,3-Dimethyl-1-propyne", "1-Isopentyne", "Isopropylethyne"], "SMILES": "C(C#C)(C)C", "physical_data": {"Molecular Weight": "68.12", "Molecular Formula": "C5H8", "Boiling Point": "26.3 \u00b0C", "Melting Point": "-89.7 \u00b0C", "Density": "0.666 g/cm\u00b3 @ Temp: 19 \u00b0C"}}