{"cas_no": "598-39-0", "cn_name": "1,1-\u4e8c\u6c1f-2-\u7898\u4ee3\u4e59\u70f7", "en_name": ["Ethane, 1,1-difluoro-2-iodo-", "Ethane, 1,1-difluoro-2-iodo-", "1,1-Difluoro-2-iodoethane", "2,2-Difluoroethyl iodide", "1-Iodo-2,2-difluoroethane", "2-Iodo-1,1-difluoroethane"], "SMILES": "C(CI)(F)F", "physical_data": {"Molecular Weight": "191.95", "Molecular Formula": "C2H3F2I", "Boiling Point": "86.8-87.1 \u00b0C @ Press: 740 Torr", "Density": "2.18 g/cm\u00b3 @ Temp: 25 \u00b0C"}}