{"cas_no": "598-05-0", "cn_name": "\u786b\u9178\u4e8c\u4e19\u916f[\u70f7\u57fa\u5316\u5242]", "en_name": ["Dipropyl sulfate", "Sulfuric acid, dipropyl ester", "Propyl sulfate", "Propylsulfate, Pr2SO4", "Propyl sulfate ((PrO)2 SO2)", "Dipropyl sulfate"], "SMILES": "S(OCCC)(OCCC)(=O)=O", "physical_data": {"Molecular Weight": "182.24", "Molecular Formula": "C6H14O4S", "Boiling Point": "90-94 \u00b0C @ Press: 4 Torr"}}