{"cas_no": "598-75-4", "cn_name": "3-\u7532\u57fa-2-\u4e01\u9187", "en_name": ["3-Methyl-2-butanol", "2-Butanol, 3-methyl-", "3-Methyl-2-butanol", "sec-Isoamyl alcohol", "Methylisopropylcarbinol", "1,2-Dimethylpropanol", "2-Methyl-3-butanol", "1,2-Dimethyl-1-propanol", "(\u00b1)-3-Methyl-2-butanol", "(\u00b1)-2-Methyl-3-Butanol", "NSC 71162", "1,2-Dimethylpropyl alcohol"], "SMILES": "C(C(C)O)(C)C", "physical_data": {"Molecular Weight": "88.15", "Molecular Formula": "C5H12O", "Boiling Point": "112 \u00b0C", "Melting Point": "92.0-92.5 \u00b0C", "Density": "0.810 g/cm\u00b3 @ Temp: 25 \u00b0C"}}