{"cas_no": "598-03-8", "cn_name": "\u4e8c\u4e19\u57fa\u781c", "en_name": ["Propyl sulfone", "Propane, 1,1\u2032-sulfonylbis-", "Propyl sulfone", "1,1\u2032-Sulfonylbis[propane]", "Dipropyl sulfone", "Di-n-propyl sulfone", "NSC 4865", "1-Propylsulfonylpropane", "1-(Propane-1-sulfonyl)propane"], "SMILES": "S(CCC)(CCC)(=O)=O", "physical_data": {"Molecular Weight": "150.24", "Molecular Formula": "C6H14O2S", "Boiling Point": "270 \u00b0C", "Melting Point": "29.5 \u00b0C"}}