{"cas_no": "598-42-5", "cn_name": "\u7f9f\u57fa\u4e59\u9170\u80fa", "en_name": ["2-Hydroxyacetamide", "Acetamide, 2-hydroxy-", "Glycolamide", "2-Hydroxyacetimidic acid", "Glycolic acid amide", "Glycolic amide", "2-Hydroxyacetamide", "NSC 97323"], "SMILES": "C(CO)(N)=O", "physical_data": {"Molecular Weight": "75.07", "Molecular Formula": "C2H5NO2", "Melting Point": "120 \u00b0C", "Density": "1.415 g/cm\u00b3 @ Temp: -5 \u00b0C"}}