{"cas_no": "598-99-2", "cn_name": "\u4e09\u6c2f\u4e59\u9178\u7532\u916f", "en_name": ["Methyl trichloroacetate", "Acetic acid, 2,2,2-trichloro-, methyl ester", "Acetic acid, trichloro-, methyl ester", "Methyl trichloroacetate", "NSC 38452", "Methyl \u03b1,\u03b1,\u03b1-trichloroacetate", "Trichloroacetic acid methyl ester"], "SMILES": "C(C(Cl)(Cl)Cl)(OC)=O", "physical_data": {"Molecular Weight": "177.41", "Molecular Formula": "C3H3Cl3O2", "Boiling Point": "153.8 \u00b0C", "Melting Point": "-17.5 \u00b0C", "Density": "1.515 g/cm\u00b3 @ Temp: 20 \u00b0C"}}