{"cas_no": "598-14-1", "cn_name": "\u4e59\u57fa\u4e8c\u6c2f\u80c2", "en_name": ["As-Ethylarsonous dichloride", "Arsonous dichloride, As-ethyl-", "Arsine, dichloroethyl-", "Arsonous dichloride, ethyl-", "As-Ethylarsonous dichloride", "Ethyldichloroarsine", "Arsenic dichloroethane", "Dichloroethylarsine", "Ethylarsonous dichloride"], "SMILES": "[As](CC)(Cl)Cl", "physical_data": {"Molecular Weight": "174.89", "Molecular Formula": "C2H5AsCl2", "Boiling Point": "74 \u00b0C @ Press: 50 Torr", "Melting Point": "-65 \u00b0C", "Density": "1.742 g/cm\u00b3 @ Temp: 14 \u00b0C"}}