{"cas_no": "598-92-5", "cn_name": "1-\u6c2f-1-\u785d\u57fa\u4e59\u70f7", "en_name": ["1-Chloro-1-nitroethane", "Ethane, 1-chloro-1-nitro-", "1-Chloro-1-nitroethane", "1-Chloronitroethane", "NSC 6154"], "SMILES": "C(N(=O)=O)(C)Cl", "physical_data": {"Molecular Weight": "109.51", "Molecular Formula": "C2H4ClNO2", "Boiling Point": "124.5 \u00b0C", "Density": "1.2722 g/cm\u00b3 @ Temp: 25 \u00b0C"}}