{"cas_no": "598-02-7", "cn_name": "\u78f7\u9178\u4e8c\u4e59\u916f", "en_name": ["Diethyl phosphate", "Phosphoric acid, diethyl ester", "Ethyl phosphate ((C2H5O)2(HO)PO)", "Diethyl phosphate", "Diethyl hydrogen phosphate", "Diethyl acid phosphate", "Diethyl phosphoric acid", "O,O-Diethyl hydrogen phosphate", "DEP", "NSC 97178", "JP 502"], "SMILES": "P(OCC)(OCC)(=O)O", "physical_data": {"Molecular Weight": "154.10", "Molecular Formula": "C4H11O4P", "Boiling Point": "105 \u00b0C @ Press: 0.01 Torr", "Melting Point": "180 \u00b0C", "Density": "1.1967 g/cm\u00b3 @ Temp: 20 \u00b0C"}}