{"cas_no": "59804-37-4", "cn_name": "\u66ff\u8bfa\u6614\u5eb7", "en_name": ["Tenoxicam", "2H-Thieno[2,3-e]-1,2-thiazine-3-carboxamide, 4-hydroxy-2-methyl-N-2-pyridinyl-, 1,1-dioxide", "Ro 12-0068", "Tenoxicam", "Tilcotil", "Liman", "Mobiflex", "Tilatil", "Dolmen", "Alganex", "Rexalgan", "Oxamen-L", "Epicotil", "Soral", "Texamen"], "SMILES": "OC=1C2=C(S(=O)(=O)N(C)C1C(NC3=CC=CC=N3)=O)C=CS2", "physical_data": {"Molecular Weight": "337.37", "Molecular Formula": "C13H11N3O4S2", "Melting Point": "211 \u00b0C (decomp)", "Density": "1.59 g/cm\u00b3"}}