{"cas_no": "5980-15-4", "cn_name": "\u7425\u73c0\u9178\u4e8c\u6708\u6842\u916f", "en_name": ["1,4-Didodecyl butanedioate", "Butanedioic acid, 1,4-didodecyl ester", "Succinic acid, didodecyl ester", "Butanedioic acid, didodecyl ester", "1,4-Didodecyl butanedioate", "Dilauryl succinate", "Bisdodecyl succinate", "Didodecyl succinate"], "SMILES": "C(CCC(OCCCCCCCCCCCC)=O)(OCCCCCCCCCCCC)=O", "physical_data": {"Molecular Weight": "454.73", "Molecular Formula": "C28H54O4", "Melting Point": "39 \u00b0C"}}