{"cas_no": "59803-98-4", "cn_name": "\u6eb4\u83ab\u5c3c\u5b9a", "en_name": ["Brimonidine", "6-Quinoxalinamine, 5-bromo-N-(4,5-dihydro-1H-imidazol-2-yl)-", "5-Bromo-N-(4,5-dihydro-1H-imidazol-2-yl)-6-quinoxalinamine", "UK 14304", "5-Bromo-6-(2-imidazolin-2-ylamino)quinoxaline", "UK 14304-18", "Brimonidine", "Bromoxidine", "AGN 190342", "Lyuksfen"], "SMILES": "BrC=1C2=C(C=CC1NC=3NCCN3)N=CC=N2", "physical_data": {"Molecular Weight": "292.13", "Molecular Formula": "C11H10BrN5", "Melting Point": "252 \u00b0C"}}