{"cas_no": "5980-23-4", "cn_name": "3,5-\u4e8c\u6c2f\u82ef\u7532\u9170\u80fa", "en_name": ["3,5-Dichlorobenzamide", "Benzamide, 3,5-dichloro-", "3,5-Dichlorobenzamide"], "SMILES": "C(N)(=O)C1=CC(Cl)=CC(Cl)=C1", "physical_data": {"Molecular Weight": "190.03", "Molecular Formula": "C7H5Cl2NO", "Melting Point": "145 \u00b0C"}}