{"cas_no": "5981-09-9", "cn_name": "\u4e09(4-\u6c28\u57fa\u82ef\u57fa)\u80fa", "en_name": ["N1,N1-Bis(4-aminophenyl)-1,4-benzenediamine", "1,4-Benzenediamine, N1,N1-bis(4-aminophenyl)-", "Triphenylamine, 4,4\u2032,4\u2032\u2032-triamino-", "1,4-Benzenediamine, N,N-bis(4-aminophenyl)-", "N1,N1-Bis(4-aminophenyl)-1,4-benzenediamine", "Tris(p-aminophenyl)amine", "Tris(4-aminophenyl)amine", "4,4\u2032,4\u2032\u2032-Triaminotriphenylamine", "N,N-Bis(4-aminophenyl)-1,4-benzenediamine"], "SMILES": "N(C1=CC=C(N)C=C1)(C2=CC=C(N)C=C2)C3=CC=C(N)C=C3", "physical_data": {"Molecular Weight": "290.36", "Molecular Formula": "C18H18N4", "Melting Point": "244.92 \u00b0C"}}