{"cas_no": "5984-56-5", "cn_name": "4-\u54cc\u5576\u7532\u9178\u76d0\u9178\u76d0", "en_name": ["4-Piperidinecarboxylic acid, hydrochloride (1:1)", "4-Piperidinecarboxylic acid, hydrochloride (1:1)", "Isonipecotic acid, hydrochloride", "4-Piperidinecarboxylic acid, hydrochloride"], "SMILES": "C(O)(=O)C1CCNCC1.Cl", "physical_data": {"Molecular Weight": "", "Molecular Formula": "C6H11NO2.ClH", "Melting Point": "293 \u00b0C (decomp)"}}