{"cas_no": "5984-59-8", "cn_name": "2-\u6c28\u57fa-6-\u7532\u57fa\u5e9a\u70f7\u76d0\u9178\u76d0", "en_name": ["2-Heptanamine, 6-methyl-, hydrochloride (1:1)", "2-Heptanamine, 6-methyl-, hydrochloride (1:1)", "Hexylamine, 1,5-dimethyl-, hydrochloride", "2-Heptanamine, 6-methyl-, hydrochloride", "2-Isooctylamine hydrochloride", "2-Amino-6-methylheptane hydrochloride", "NSC 27116"], "SMILES": "C(CC(C)C)CC(C)N.Cl", "physical_data": {"Molecular Weight": "", "Molecular Formula": "C8H19N.ClH", "Melting Point": "139-140 \u00b0C"}}