{"cas_no": "59854-11-4", "cn_name": "3-\u7f9f\u57fa\u4e19\u9178\u53d4\u4e01\u916f", "en_name": ["1,1-Dimethylethyl 3-hydroxypropanoate", "Propanoic acid, 3-hydroxy-, 1,1-dimethylethyl ester", "1,1-Dimethylethyl 3-hydroxypropanoate", "3-Hydroxypropionic acid tert-butyl ester", "tert-Butyl 3-hydroxypropionate", "tert-Butyl 3-hydroxypropanoate", "3-Hydroxypropionate tert-butyl ester", "3-Hydroxypropanoic acid tert-butyl ester"], "SMILES": "C(OC(C)(C)C)(CCO)=O", "physical_data": {"Molecular Weight": "146.18", "Molecular Formula": "C7H14O3", "Boiling Point": "37-38 \u00b0C @ Press: 2 Torr", "Density": "0.9561 g/cm\u00b3 @ Temp: 20 \u00b0C"}}