{"cas_no": "59857-86-2", "cn_name": "1-\u7532\u57fa-2-\u6c27\u4ee3\u5421\u54af\u70f7-4-\u7532\u9178\u7532\u916f", "en_name": ["1-Methyl-4-methoxycarbonyl-2-pyrrolidone", "3-Pyrrolidinecarboxylic acid, 1-methyl-5-oxo-, methyl ester", "1-Methyl-4-methoxycarbonyl-2-pyrrolidone", "1-Methyl-4-(methoxycarbonyl)pyrrolidone", "1-Methyl-5-oxopyrrolidine-3-carboxylic acid methyl ester"], "SMILES": "C(OC)(=O)C1CC(=O)N(C)C1", "physical_data": {"Molecular Weight": "157.17", "Molecular Formula": "C7H11NO3", "Boiling Point": "160-161 \u00b0C @ Press: 18 Torr", "Melting Point": "15 \u00b0C"}}