{"cas_no": "5985-28-4", "cn_name": "\u8f9b\u5f17\u6797\u76d0\u9178\u76d0", "en_name": ["Synephrine hydrochloride", "Benzenemethanol, 4-hydroxy-\u03b1-[(methylamino)methyl]-, hydrochloride (1:1)", "Benzyl alcohol, p-hydroxy-\u03b1-[(methylamino)methyl]-, hydrochloride", "Benzenemethanol, 4-hydroxy-\u03b1-[(methylamino)methyl]-, hydrochloride", "p-Hydroxy-\u03b1-(methylaminomethyl)benzyl alcohol hydrochloride", "Synephrine hydrochloride", "Oxedrine hydrochloride"], "SMILES": "C(CNC)(O)C1=CC=C(O)C=C1.Cl", "physical_data": {"Molecular Weight": "", "Molecular Formula": "C9H13NO2.ClH", "Melting Point": "151-152 \u00b0C"}}