{"cas_no": "5985-24-0", "cn_name": "\u4e8c\u7532\u57fa 4-\u7f9f\u57fa\u5f02\u90bb\u82ef\u4e8c\u7532\u9178\u916f", "en_name": ["1,3-Benzenedicarboxylic acid, 4-hydroxy-, 1,3-dimethyl ester", "1,3-Benzenedicarboxylic acid, 4-hydroxy-, 1,3-dimethyl ester", "Isophthalic acid, 4-hydroxy-, dimethyl ester", "1,3-Benzenedicarboxylic acid, 4-hydroxy-, dimethyl ester", "4-Hydroxyisophthalic acid dimethyl ester", "Dimethyl 4-hydroxyisophthalate", "NSC 109108", "1,3-Dimethyl 4-hydroxybenzene-1,3-dicarboxylate"], "SMILES": "C(OC)(=O)C1=CC(C(OC)=O)=CC=C1O", "physical_data": {"Molecular Weight": "210.18", "Molecular Formula": "C10H10O5", "Melting Point": "75-76 \u00b0C"}}