{"cas_no": "59867-68-4", "cn_name": "4-\u82ef\u6c27\u57fa-2',2'-\u4e8c\u6c2f\u82ef\u4e59\u916e", "en_name": ["2,2-Dichloro-4-phenoxyacetophenone", "Ethanone, 2,2-dichloro-1-(4-phenoxyphenyl)-", "Acetophenone, 2,2-dichloro-4\u2032-phenoxy-", "2,2-Dichloro-1-(4-phenoxyphenyl)ethanone", "4\u2032-Phenoxy-2,2-dichloroacetophenone", "Sandoray 1000", "\u03b1,\u03b1-Dichloro-4-phenoxyacetophenone", "2,2-Dichloro-4-phenoxyacetophenone", "2,2-Dichloro-1-(4-phenoxyphenyl)ethan-1-one"], "SMILES": "C(C(Cl)Cl)(=O)C1=CC=C(OC2=CC=CC=C2)C=C1", "physical_data": {"Molecular Weight": "281.13", "Molecular Formula": "C14H10Cl2O2", "Melting Point": "67-69 \u00b0C"}}