{"cas_no": "5986-55-0", "cn_name": "\u767e\u79cb\u674e\u9187", "en_name": ["Patchouli alcohol", "1,6-Methanonaphthalen-1(2H)-ol, octahydro-4,8a,9,9-tetramethyl-, (1R,4S,4aS,6R,8aS)-", "1,6-Methanonaphthalen-1\u03b2(2H)-ol, 3,4,4a\u03b2,5,6\u03b2,7,8,8a-octahydro-4\u03b1,8a\u03b2,9,9-tetramethyl-", "Patchouli alcohol", "1,6-Methanonaphthalen-1(2H)-ol, octahydro-4,8a,9,9-tetramethyl-, [1R-(1\u03b1,4\u03b2,4a\u03b1,6\u03b2,8a\u03b1)]-", "(1R,4S,4aS,6R,8aS)-Octahydro-4,8a,9,9-tetramethyl-1,6-methanonaphthalen-1(2H)-ol", "Patchoulol", "(-)-Patchoulol", "(-)-Patchouli alcohol", "(1R,4S,4AS,6R,8aS)-4,8a,9,9-tetramethyloctahydro-1,6-methanonaphthalen-1(2H)-ol"], "SMILES": "CC12C3(O)C(C)(C)C(CC1C(C)CC3)CC2", "physical_data": {"Molecular Weight": "222.37", "Molecular Formula": "C15H26O", "Melting Point": "56 \u00b0C"}}