{"cas_no": "59870-68-7", "cn_name": "\u5149\u7518\u8349\u5b9a", "en_name": ["Glabridin", "1,3-Benzenediol, 4-[(3R)-3,4-dihydro-8,8-dimethyl-2H,8H-benzo[1,2-b:3,4-b\u2032]dipyran-3-yl]-", "1,3-Benzenediol, 4-(3,4-dihydro-8,8-dimethyl-2H,8H-benzo[1,2-b:3,4-b\u2032]dipyran-3-yl)-, (R)-", "2H,8H-Benzo[1,2-b:3,4-b\u2032]dipyran, 1,3-benzenediol deriv.", "4-[(3R)-3,4-Dihydro-8,8-dimethyl-2H,8H-benzo[1,2-b:3,4-b\u2032]dipyran-3-yl]-1,3-benzenediol", "Glabridin"], "SMILES": "CC1(C)OC2=C(C3=C(CC(CO3)C4=C(O)C=C(O)C=C4)C=C2)C=C1", "physical_data": {"Molecular Weight": "324.37", "Molecular Formula": "C20H20O4", "Melting Point": "238-240 \u00b0C"}}