{"cas_no": "59870-65-4", "cn_name": "\u5149\u7518\u8349\u915a", "en_name": ["Glabrol", "4H-1-Benzopyran-4-one, 2,3-dihydro-7-hydroxy-2-[4-hydroxy-3-(3-methyl-2-buten-1-yl)phenyl]-8-(3-methyl-2-buten-1-yl)-, (2S)-", "4H-1-Benzopyran-4-one, 2,3-dihydro-7-hydroxy-2-[4-hydroxy-3-(3-methyl-2-butenyl)phenyl]-8-(3-methyl-2-butenyl)-, (S)-", "4H-1-Benzopyran-4-one, 2,3-dihydro-7-hydroxy-2-[4-hydroxy-3-(3-methyl-2-butenyl)phenyl]-8-(3-methyl-2-butenyl)-, (2S)-", "(2S)-2,3-Dihydro-7-hydroxy-2-[4-hydroxy-3-(3-methyl-2-buten-1-yl)phenyl]-8-(3-methyl-2-buten-1-yl)-4H-1-benzopyran-4-one", "Glabrol"], "SMILES": "C(C=C(C)C)C1=C2C(C(=O)CC(O2)C3=CC(CC=C(C)C)=C(O)C=C3)=CC=C1O", "physical_data": {"Molecular Weight": "392.49", "Molecular Formula": "C25H28O4", "Melting Point": "121-123 \u00b0C"}}