{"cas_no": "5987-82-6", "cn_name": "\u5965\u5e03\u5361\u56e0\u76d0\u9178\u76d0", "en_name": ["Oxybuprocaine hydrochloride", "Benzoic acid, 4-amino-3-butoxy-, 2-(diethylamino)ethyl ester, hydrochloride (1:1)", "Benzoic acid, 4-amino-3-butoxy-, 2-(diethylamino)ethyl ester, monohydrochloride", "2-(Diethylamino)ethyl 4-amino-3-butoxybenzoate hydrochloride", "Dorsacaine hydrochloride", "Benoxinate hydrochloride", "Novesine", "Novesin", "Dorsacaine", "Oxybuprocaine hydrochloride", "Conjucaine", "Boxinate", "Benoxil", "Cebesine", "Conjuncain", "Lacrimin", "Minims"], "SMILES": "C(OCCN(CC)CC)(=O)C1=CC(OCCCC)=C(N)C=C1.Cl", "physical_data": {"Molecular Weight": "", "Molecular Formula": "C17H28N2O3.ClH", "Melting Point": "155 \u00b0C"}}