{"cas_no": "59887-89-7", "cn_name": "7-\u7f9f\u57fa\u8272\u539f\u916e", "en_name": ["7-Hydroxychromone", "4H-1-Benzopyran-4-one, 7-hydroxy-", "Chromone, 7-hydroxy-", "7-Hydroxy-4H-1-benzopyran-4-one", "7-Hydroxychromone", "7-Hydroxybenzopyran-4-one", "7-Hydroxy-4-chromone", "7-Hydroxy-4H-chromen-4-one", "7-Hydroxychromen-4-one"], "SMILES": "O=C1C=2C(=CC(O)=CC2)OC=C1", "physical_data": {"Molecular Weight": "162.14", "Molecular Formula": "C9H6O3", "Melting Point": "218 \u00b0C"}}