{"cas_no": "5988-19-2", "cn_name": "L-\u6c22\u5316\u4e73\u6e05\u9178", "en_name": ["L-Dihydroorotic acid", "4-Pyrimidinecarboxylic acid, hexahydro-2,6-dioxo-, (4S)-", "Hydroorotic acid, L-", "4-Pyrimidinecarboxylic acid, hexahydro-2,6-dioxo-, (S)-", "(4S)-Hexahydro-2,6-dioxo-4-pyrimidinecarboxylic acid", "L-Dihydroorotate", "L-Dihydroorotic acid", "L-5,6-Dihydroorotic acid", "(4S)-2,6-Dioxo-1,3-diazinane-4-carboxylic acid", "(S)-2,6-Dioxohexahydropyrimidine-4-carboxylic acid"], "SMILES": "C(O)(=O)C1CC(=O)NC(=O)N1", "physical_data": {"Molecular Weight": "158.11", "Molecular Formula": "C5H6N2O4", "Melting Point": "267-268 \u00b0C (decomp)"}}