{"cas_no": "59886-90-7", "cn_name": "2,3-\u4e8c\u7532\u57fa-4-\u6c2f\u5421\u5576-N-\u6c27\u5316\u7269", "en_name": ["4-Chloro-2,3-dimethylpyridine N-oxide", "Pyridine, 4-chloro-2,3-dimethyl-, 1-oxide", "4-Chloro-2,3-dimethylpyridine 1-oxide", "4-Chloro-2,3-dimethylpyridine N-oxide", "NSC 275262", "2,3-Dimethyl-4-chloropyridineN-oxide"], "SMILES": "CC1=C(C)N(=O)=CC=C1Cl", "physical_data": {"Molecular Weight": "157.60", "Molecular Formula": "C7H8ClNO", "Melting Point": "104-106 \u00b0C"}}