{"cas_no": "59880-97-6", "cn_name": "\u916a\u80fa\u76d0\u9178\u76d0", "en_name": ["N-Formyl-L-methionyl-L-leucyl-L-phenylalanine", "L-Phenylalanine, N-formyl-L-methionyl-L-leucyl-", "L-Phenylalanine, N-[N-(N-formyl-L-methionyl)-L-leucyl]-", "N-Formyl-L-methionyl-L-leucyl-L-phenylalanine", "N-Formyl-Met-Leu-Phe-OH", "NSC 350593", "3: PN: WO2010089019 PAGE: 22 claimed protein", "N-Formyl-methionyl-leucyl-phenylalanine"], "SMILES": "C(C(NC(CC1=CC=CC=C1)C(O)=O)=O)(NC(C(CCSC)NC=O)=O)CC(C)C", "physical_data": {"Molecular Weight": "437.55", "Molecular Formula": "C21H31N3O5S", "Melting Point": "212-214 \u00b0C"}}