{"cas_no": "5989-81-1", "cn_name": "\u03b1-\u4e73\u7cd6\u6c34\u5408\u7269", "en_name": ["\u03b1-Lactose monohydrate", "\u03b1-D-Glucopyranose, 4-O-\u03b2-D-galactopyranosyl-, hydrate (1:1)", "Lactose, monohydrate, \u03b1-", "\u03b1-D-Glucopyranose, 4-O-\u03b2-D-galactopyranosyl-, monohydrate", "\u03b1-Lactose monohydrate", "\u03b1-D-Lactose monohydrate", "4-O-\u03b2-D-Galactopyranosyl-\u03b1-D-glucopyranose monohydrate", "Zeparox", "Pharmatose DCL 11", "Pharmatose 50M", "GranuLac 200", "Lactose D 80", "Pharmatose 90M", "Granulac 230", "Lactose 100M", "Pharmatose 150M", "Aeroflo 95", "Aeroflo 65", "Aeroflo 20", "Inhalac 120", "Inhalac 230", "Pharmatose 325", "Flowlac 200", "Lactosum D 80", "Lactochem", "InhaLac 400"], "SMILES": "O(C1C(CO)OC(O)C(O)C1O)C2OC(CO)C(O)C(O)C2O.O", "physical_data": {"Molecular Weight": "", "Molecular Formula": "C12H22O11.H2O", "Melting Point": "201-202 \u00b0C"}}