{"cas_no": "5989-02-6", "cn_name": "\u5730\u82b0\u666e\u5185\u916f", "en_name": ["Loliolide", "2(4H)-Benzofuranone, 5,6,7,7a-tetrahydro-6-hydroxy-4,4,7a-trimethyl-, (6S,7aR)-", "2(4H)-Benzofuranone, 5,6,7,7a-tetrahydro-6\u03b2-hydroxy-4,4,7a\u03b2-trimethyl-", "2(4H)-Benzofuranone, 5,6,7,7a-tetrahydro-6-hydroxy-4,4,7a-trimethyl-, (6S-cis)-", "(6S,7aR)-5,6,7,7a-Tetrahydro-6-hydroxy-4,4,7a-trimethyl-2(4H)-benzofuranone", "Loliolide", "Loliolid", "(-)-Loliolide", "Digiprolactone", "Calendin", "NSC 289632", "Caulilide", "(6S,7AR)-loliolide"], "SMILES": "CC12C(C(C)(C)CC(O)C1)=CC(=O)O2", "physical_data": {"Molecular Weight": "196.24", "Molecular Formula": "C11H16O3", "Melting Point": "151-152 \u00b0C"}}