{"cas_no": "5989-54-8", "cn_name": "(-)-\u67e0\u6aac\u70ef", "en_name": ["(S)-Limonene", "Cyclohexene, 1-methyl-4-(1-methylethenyl)-, (4S)-", "p-Mentha-1,8-diene, (S)-(-)-", "Cyclohexene, 1-methyl-4-(1-methylethenyl)-, (S)-", "(4S)-1-Methyl-4-(1-methylethenyl)cyclohexene", "l-Limonene", "(-)-Limonene", "(-)-(S)-Limonene", "(S)-Limonene", "\u03b2-Limonene", "(S)-(-)-Limonene", "(-)-\u03b1-Limonene", "(S)-4-Isopropenyl-1-methyl-1-cyclohexene", "(4S)-Limonene", "(-)-(4S)-Limonene", "l-Carvene", "(S)-1-Methyl-4-(prop-1-en-2-yl)cyclohex-1-ene", "(4S)-1-Methyl-4-(prop-1-en-2-yl)cyclohex-1-ene"], "SMILES": "C(C)(=C)C1CCC(C)=CC1", "physical_data": {"Molecular Weight": "136.23", "Molecular Formula": "C10H16", "Boiling Point": "176 \u00b0C", "Melting Point": "-90 \u00b0C", "Density": "0.8402 g/cm\u00b3 @ Temp: 20 \u00b0C"}}