{"cas_no": "5989-27-5", "cn_name": "(+)-\u67e0\u6aac\u70ef", "en_name": ["(+)-Limonene", "Cyclohexene, 1-methyl-4-(1-methylethenyl)-, (4R)-", "p-Mentha-1,8-diene, (R)-(+)-", "Cyclohexene, 1-methyl-4-(1-methylethenyl)-, (R)-", "(4R)-1-Methyl-4-(1-methylethenyl)cyclohexene", "(+)-p-Mentha-1,8-diene", "(+)-Limonene", "Carvene", "d-Limonene", "Limonene, (+)-", "D-(+)-Limonene", "(+)-(4R)-Limonene", "Refchole", "D-Limonene", "(+)-Dipentene", "d-(+)-Limonene", "(R)-p-Mentha-1,8-diene", "(+)-\u03b1-Limonene", "(4R)-(+)-Limonene", "(R)-(+)-p-Mentha-1,8-diene", "(R)-4-Isopropenyl-1-methyl-1-cyclohexene", "EC 7", "Glidesafe", "Biogenic SE 374", "Glidsafe", "(+)-(R)-Limonene", "(R)-(+)-Limonene", "(4R)-Limonene", "(R)-Limonene", "NK 1100", "Fruits Dry", "1-Methyl-4-prop-1-en-2-yl-cyclohexene", "Woody River 8", "Bio Clear", "Clearene", "HistoSolve X", "Master Clear", "Safsolv", "Histo-Clear", "(R)-1-Methyl-4-(prop-1-en-2-yl)cyclohex-1-ene", "IVOD", "R-Limonene", "Alda 341", "(4R)-1-Methyl-4-(prop-1-en-2-yl)cyclohex-1-ene", "HB 09", "NMX 02", "Orange Oil X 5"], "SMILES": "C(C)(=C)C1CCC(C)=CC1", "physical_data": {"Molecular Weight": "136.23", "Molecular Formula": "C10H16", "Boiling Point": "175.5-176 \u00b0C @ Press: 763 Torr", "Melting Point": "-74.35 \u00b0C", "Density": "0.8402 g/cm\u00b3 @ Temp: 25 \u00b0C"}}