{"cas_no": "599-91-7", "cn_name": "\u5bf9\u7532\u82ef\u78fa\u9178\u6b63\u4e19\u916f", "en_name": ["Propyl 4-methylbenzenesulfonate", "Benzenesulfonic acid, 4-methyl-, propyl ester", "p-Toluenesulfonic acid, propyl ester", "Propyl p-toluenesulfonate", "Propyl tosylate", "n-Propyl tosylate", "Propyl 4-toluenesulfonate", "NSC 11005", "Propyl 4-methylbenzenesulfonate", "Propyl p-tosylate"], "SMILES": "S(OCCC)(=O)(=O)C1=CC=C(C)C=C1", "physical_data": {"Molecular Weight": "214.28", "Molecular Formula": "C10H14O3S", "Boiling Point": "138 \u00b0C", "Melting Point": "&lt;-20 \u00b0C"}}