{"cas_no": "599-70-2", "cn_name": "\u4e59\u57fa\u82ef\u57fa\u781c", "en_name": ["(Ethylsulfonyl)benzene", "Benzene, (ethylsulfonyl)-", "Sulfone, ethyl phenyl", "(Ethylsulfonyl)benzene", "Ethyl phenyl sulfone", "Phenyl ethyl sulfone", "Phenylsulfonylethane", "(Ethanesulfonyl)benzene"], "SMILES": "S(CC)(=O)(=O)C1=CC=CC=C1", "physical_data": {"Molecular Weight": "170.23", "Molecular Formula": "C8H10O2S", "Boiling Point": "101-103 \u00b0C @ Press: 1 Torr", "Melting Point": "42 \u00b0C"}}