{"cas_no": "599-67-7", "cn_name": "1,1-\u4e8c\u82ef\u57fa\u4e59\u9187", "en_name": ["1,1-Diphenylethanol", "Benzenemethanol, \u03b1-methyl-\u03b1-phenyl-", "Benzhydrol, \u03b1-methyl-", "\u03b1-Methyl-\u03b1-phenylbenzenemethanol", "1,1-Diphenylethanol", "1,1-Diphenyl-1-ethanol", "\u03b1-Methylbenzhydrol", "Methyldiphenylcarbinol", "Diphenylmethylcarbinol", "NSC 33", "1-Hydroxy-1,1-diphenylethane"], "SMILES": "C(C)(O)(C1=CC=CC=C1)C2=CC=CC=C2", "physical_data": {"Molecular Weight": "198.26", "Molecular Formula": "C14H14O", "Boiling Point": "260 \u00b0C", "Melting Point": "80-81 \u00b0C", "Density": "1.1059 g/cm\u00b3 @ Temp: 15 \u00b0C"}}