{"cas_no": "599-04-2", "cn_name": "\u4e8c\u6c22-3-\u7f9f\u57fa-4,4-\u4e8c\u7532\u57fa-2(3H)\u544b\u5583\u916e", "en_name": ["D-Pantolactone", "2(3H)-Furanone, dihydro-3-hydroxy-4,4-dimethyl-, (3R)-", "2(3H)-Furanone, dihydro-3-hydroxy-4,4-dimethyl-, D-(-)-", "2(3H)-Furanone, dihydro-3-hydroxy-4,4-dimethyl-, (R)-", "(3R)-Dihydro-3-hydroxy-4,4-dimethyl-2(3H)-furanone", "D-(-)-Pantolactone", "(-)-Pantolactone", "(R)-\u03b1-Hydroxy-\u03b2,\u03b2-dimethyl-\u03b3-butyrolactone", "Pantothenic lactone", "Pantoyl lactone", "D-(-)-\u03b1-Hydroxy-\u03b2,\u03b2-dimethyl-\u03b3-butyrolactone", "Pantolactone", "(R)-(-)-Pantolactone", "D-(-)-Pantoyl lactone", "D-Pantolactone", "(R)-Pantolactone", "(-)-Pantoyl lactone", "D-Pantoyl lactone", "(-)-(R)-Pantolactone", "(-)-2-Hydroxy-3,3-dimethyl-\u03b3-butyrolactone", "(R)-3-Hydroxy-4,4-dimethyldihydrofuran-2(3H)-one", "(3R)-Tetrahydro-3-hydroxy-4,4-dimethylfuran-2-one", "l-Pantoyl lactone", "(3R)-3-Hydroxy-4,4-dimethyloxolan-2-one"], "SMILES": "OC1C(C)(C)COC1=O", "physical_data": {"Molecular Weight": "130.14", "Molecular Formula": "C6H10O3", "Melting Point": "92 \u00b0C"}}