{"cas_no": "599-61-1", "cn_name": "3,3'-\u4e8c\u6c28\u57fa\u4e8c\u82ef\u781c", "en_name": ["3,3\u2032-Diaminodiphenyl sulfone", "Benzenamine, 3,3\u2032-sulfonylbis-", "Aniline, 3,3\u2032-sulfonyldi-", "3,3\u2032-Sulfonylbis[benzenamine]", "3,3\u2032-Diaminodiphenyl sulfone", "Bis(m-aminophenyl) sulfone", "3,3\u2032-Diaminophenyl sulfone", "Bis(3-aminophenyl) sulfone", "3,3\u2032-Sulfonyldianiline", "3,3\u2032-Sulfonylbis(aniline)", "DAS (crosslinking agent)", "DAS", "HT 9719", "C 600 (hardener)", "C 600", "NSC 20610", "Aradur 9719-1", "3,3\u2032-DDS", "3,3\u2032-DAS", "Omicure 33DDS", "C 10", "C 10 (hardener)", "Aradur 9771-1"], "SMILES": "S(=O)(=O)(C1=CC(N)=CC=C1)C2=CC(N)=CC=C2", "physical_data": {"Molecular Weight": "248.30", "Molecular Formula": "C12H12N2O2S", "Melting Point": "168-169 \u00b0C"}}