{"cas_no": "599-94-0", "cn_name": "1,2-\u8054\u82ef\u78fa\u9170\u4e59\u70f7", "en_name": ["1,1\u2032-[1,2-Ethanediylbis(sulfonyl)]bis[benzene]", "Benzene, 1,1\u2032-[1,2-ethanediylbis(sulfonyl)]bis-", "Ethane, 1,2-bis(phenylsulfonyl)-", "1,1\u2032-[1,2-Ethanediylbis(sulfonyl)]bis[benzene]", "1,2-Bis(phenylsulfonyl)ethane", "Ethylenebis[phenyl sulfone]", "1,2-Bis(benzenesulfonyl)ethane", "NSC 2716", "2-(Benzenesulfonyl)ethylsulfonylbenzene"], "SMILES": "S(CCS(=O)(=O)C1=CC=CC=C1)(=O)(=O)C2=CC=CC=C2", "physical_data": {"Molecular Weight": "310.39", "Molecular Formula": "C14H14O4S2", "Melting Point": "179-180 \u00b0C"}}