{"cas_no": "599-07-5", "cn_name": "\u82dc\u84ff\u9178", "en_name": ["Medicagenic acid", "Olean-12-ene-23,28-dioic acid, 2,3-dihydroxy-, (2\u03b2,3\u03b2,4\u03b1)-", "Olean-12-ene-23,28-dioic acid, 2\u03b2,3\u03b2-dihydroxy-", "Medicagenic acid", "(2\u03b2,3\u03b2,4\u03b1)-2,3-Dihydroxyolean-12-ene-23,28-dioic acid", "Castanogenin", "Medicogenic acid", "NSC 382024", "2\u03b2,3\u03b2-Dihydroxyolean-12-en-23,28-dioic acid"], "SMILES": "CC12C(C3(C)C(CC1)C(C(O)=O)(C)C(O)C(O)C3)CC=C4C2(C)CCC5(C(O)=O)C4CC(C)(C)CC5", "physical_data": {"Molecular Weight": "502.68", "Molecular Formula": "C30H46O6", "Melting Point": "380-382 \u00b0C (decomp)"}}