{"cas_no": "599-64-4", "cn_name": "4-\u8089\u6842\u82ef\u915a", "en_name": ["4-Cumylphenol", "Phenol, 4-(1-methyl-1-phenylethyl)-", "Phenol, p-(\u03b1,\u03b1-dimethylbenzyl)-", "4-(1-Methyl-1-phenylethyl)phenol", "4-Hydroxydiphenyldimethylmethane", "4-(\u03b1,\u03b1-Dimethylbenzyl)phenol", "p-(\u03b1,\u03b1-Dimethylbenzyl)phenol", "2-Phenyl-2-(4-hydroxyphenyl)propane", "p-(\u03b1-Cumyl)phenol", "p-Cumylphenol", "4-(Dimethylphenylmethyl)phenol", "4-Cumylphenol", "PCP", "NSC 6237", "2-(4-Hydroxyphenyl)-2-phenylpropane", "4-\u03b1-Cumylphenol", "4-(2-Phenylpropan-2-yl)phenol"], "SMILES": "C(C)(C)(C1=CC=C(O)C=C1)C2=CC=CC=C2", "physical_data": {"Molecular Weight": "212.29", "Molecular Formula": "C15H16O", "Boiling Point": "213-214 \u00b0C @ Press: 25 Torr", "Melting Point": "73 \u00b0C", "Density": "1.0163 g/cm\u00b3 @ Temp: 20 \u00b0C"}}