{"cas_no": "599-69-9", "cn_name": "N,N-\u4e8c\u7532\u57fa\u5bf9\u7532\u82ef\u78fa\u9170\u80fa", "en_name": ["N,N-Dimethyl-p-toluenesulfonamide", "Benzenesulfonamide, N,N,4-trimethyl-", "p-Toluenesulfonamide, N,N-dimethyl-", "N,N,4-Trimethylbenzenesulfonamide", "N,N-Dimethyl-p-toluenesulfonamide", "N,N-Dimethyl-4-toluenesulfonamide", "N,N-Dimethyltosylamide", "NSC 2229"], "SMILES": "S(N(C)C)(=O)(=O)C1=CC=C(C)C=C1", "physical_data": {"Molecular Weight": "199.27", "Molecular Formula": "C9H13NO2S", "Boiling Point": "135-137 \u00b0C @ Press: 0.1 Torr", "Melting Point": "86-87 \u00b0C"}}