{"cas_no": "599-79-1", "cn_name": "\u67f3\u6c2e\u78fa\u5421\u5576", "en_name": ["Sulfasalazine", "Benzoic acid, 2-hydroxy-5-[2-[4-[(2-pyridinylamino)sulfonyl]phenyl]diazenyl]-", "Salicylic acid, 5-[[p-(2-pyridylsulfamoyl)phenyl]azo]-", "Benzoic acid, 2-hydroxy-5-[[4-[(2-pyridinylamino)sulfonyl]phenyl]azo]-", "2-Hydroxy-5-[2-[4-[(2-pyridinylamino)sulfonyl]phenyl]diazenyl]benzoic acid", "Azopyrin", "Azopyrine", "Azulfidine", "5-[p-(2-Pyridylsulfamoyl)phenylazo]salicylic acid", "5-[4-(2-Pyridylsulfamyl)phenylazo]-2-hydroxybenzoic acid", "5-[p-(2-Pyridylsulfamyl)phenylazo]salicylic acid", "Salazopyrin", "Sulphasalazine", "Salazosulfapyridine", "Salicylazosulfapyridine", "Sulfasalazine", "Sulfasalazin", "Salazosulfapyridin", "Benzosulfa", "Reupirin", "Salazopyridin", "Salisulf", "Salazopyrine", "2-Hydroxy-5-((4-((2-pyridinylamino)sulfonyl)phenyl)azo)benzoic acid", "Colo-Pleon", "NSC 203730", "NSC 667219", "Azulfidine EN", "Azulfin", "Sulazine", "2-Hydroxy-5-((4-(N-(pyridin-2-yl)sulfamoyl)phenyl)diazenyl)benzoic acid", "MeSH ID: D012460"], "SMILES": "S(NC1=CC=CC=N1)(=O)(=O)C2=CC=C(N=NC3=CC(C(O)=O)=C(O)C=C3)C=C2", "physical_data": {"Molecular Weight": "398.39", "Molecular Formula": "C18H14N4O5S", "Melting Point": "220 \u00b0C"}}