{"cas_no": "599-66-6", "cn_name": "(-)-\u4e8c\u5bf9\u7532\u82ef\u9170\u786b", "en_name": ["1,1\u2032-Sulfonylbis[4-methylbenzene]", "Benzene, 1,1\u2032-sulfonylbis[4-methyl-", "p-Tolyl sulfone", "1,1\u2032-Sulfonylbis[4-methylbenzene]", "4,4\u2032-Dimethyldiphenyl sulfone", "Di-p-tolyl sulfone", "p,p\u2032-Ditolyl sulfone", "Bis(4-methylphenyl) sulfone", "4,4\u2032-Ditolyl sulfone", "Bis(4-tolyl) sulfone", "Bis(p-tolyl) sulfone", "NSC 208", "Bis(p-methylphenyl) sulfone", "4,4\u2032-Sulfonylbis(methylbenzene)", "1-Methyl-4-(4-methylphenyl)sulfonylbenzene"], "SMILES": "S(=O)(=O)(C1=CC=C(C)C=C1)C2=CC=C(C)C=C2", "physical_data": {"Molecular Weight": "246.32", "Molecular Formula": "C14H14O2S", "Boiling Point": "406 \u00b0C", "Melting Point": "159 \u00b0C"}}