{"cas_no": "599-71-3", "cn_name": "\u82ef\u78fa\u9170\u5f02\u7f9f\u809f\u9178", "en_name": ["N-Hydroxybenzenesulfonamide", "Benzenesulfonamide, N-hydroxy-", "N-Hydroxybenzenesulfonamide", "Hydroxylamine, N-(phenylsulfonyl)-", "Piloty's acid", "Benzenesulfohydroxamic acid", "N-(Phenylsulfonyl)hydroxylamine", "NSC 45357"], "SMILES": "S(NO)(=O)(=O)C1=CC=CC=C1", "physical_data": {"Molecular Weight": "173.19", "Molecular Formula": "C6H7NO3S", "Melting Point": "125 \u00b0C (decomp)"}}