{"cas_no": "59907-13-0", "cn_name": "2-\u6eb4-3-\u6c1f\u7532\u82ef", "en_name": ["2-Bromo-1-fluoro-3-methylbenzene", "Benzene, 2-bromo-1-fluoro-3-methyl-", "2-Bromo-1-fluoro-3-methylbenzene", "2-Bromo-3-fluorotoluene"], "SMILES": "BrC1=C(C)C=CC=C1F", "physical_data": {"Molecular Weight": "189.02", "Molecular Formula": "C7H6BrF", "Boiling Point": "187 \u00b0C @ Press: 760 Torr"}}