{"cas_no": "59907-12-9", "cn_name": "3-\u6eb4-2-\u6c1f\u7532\u82ef", "en_name": ["1-Bromo-2-fluoro-3-methylbenzene", "Benzene, 1-bromo-2-fluoro-3-methyl-", "1-Bromo-2-fluoro-3-methylbenzene", "3-Bromo-2-fluorotoluene"], "SMILES": "FC1=C(Br)C=CC=C1C", "physical_data": {"Molecular Weight": "189.02", "Molecular Formula": "C7H6BrF", "Boiling Point": "185-186 \u00b0C @ Press: 760 Torr"}}