{"cas_no": "59917-39-4", "cn_name": "\u786b\u9178\u957f\u6625\u5730\u8f9b", "en_name": ["Vindesine sulfate", "Vincaleukoblastine, 3-(aminocarbonyl)-O4-deacetyl-3-de(methoxycarbonyl)-, sulfate (1:1)", "Vincaleukoblastine, 3-(aminocarbonyl)-O4-deacetyl-3-de(methoxycarbonyl)-, sulfate (1:1) (salt)", "1H-Indolizino[8,1-cd]carbazole, vincaleukoblastine deriv.", "2H-3,7-Methanoazacycloundecino[5,4-b]indole, vincaleukoblastine deriv.", "Vindesine sulfate", "Desacetylvinblastine amide sulfate", "DAVA", "Lilly 99094", "NSC 245467", "Eldesine", "Eldisine", "LY 099094", "Fildesin", "Xi Ai Ke Vial"], "SMILES": "S(=O)(=O)(O)O.C(C)C12C3C4(C=5C(N(C)C4C(C(N)=O)(O)C1O)=CC(OC)=C(C5)C6(C(OC)=O)C7=C(C=8C(N7)=CC=CC8)CCN9CC(C6)CC(CC)(O)C9)CCN3CC=C2", "physical_data": {"Molecular Weight": "", "Molecular Formula": "C43H55N5O7.H2O4S", "Melting Point": "&gt;250 \u00b0C"}}