{"cas_no": "59920-31-9", "cn_name": "\u0391-\u8461\u8404\u7cd6\u82f7\u9176", "en_name": ["2,5-Dideoxy-2,5-imino-D-mannitol", "2,5-Pyrrolidinedimethanol, 3,4-dihydroxy-, (2R,3R,4R,5R)-", "2,5-Pyrrolidinedimethanol, 3,4-dihydroxy-, [2R-(2\u03b1,3\u03b2,4\u03b1,5\u03b2)]-", "(2R,3R,4R,5R)-3,4-Dihydroxy-2,5-pyrrolidinedimethanol", "2,5-Dideoxy-2,5-imino-D-mannitol", "DMDP", "2(R),5(R)-Bis(hydroxymethyl)-3(R),4(R)-dihydroxypyrrolidine", "(+)-DMDP"], "SMILES": "C(O)C1C(O)C(O)C(CO)N1", "physical_data": {"Molecular Weight": "163.17", "Molecular Formula": "C6H13NO4", "Melting Point": "112-115 \u00b0C"}}