{"cas_no": "59937-28-9", "cn_name": "\u9a6c\u6d1b\u66ff\u916f", "en_name": ["Malotilate", "Propanedioic acid, 2-(1,3-dithiol-2-ylidene)-, 1,3-bis(1-methylethyl) ester", "Propanedioic acid, 1,3-dithiol-2-ylidene-, bis(1-methylethyl) ester", "1,3-Dithiole, propanedioic acid deriv.", "Diisopropyl 1,3-dithiol-2-ylidenemalonate", "NKK 105", "Malotilate", "Hepation", "Kantec"], "SMILES": "C(C(OC(C)C)=O)(C(OC(C)C)=O)=C1SC=CS1", "physical_data": {"Molecular Weight": "288.38", "Molecular Formula": "C12H16O4S2", "Melting Point": "60.5 \u00b0C", "Density": "1.320 g/cm\u00b3"}}