{"cas_no": "5993-91-9", "cn_name": "2-(\u80fa\u7532\u57fa)\u82ef\u5e76\u54aa\u5511\u4e8c\u76d0\u9178\u76d0", "en_name": ["1H-Benzimidazole-2-methanamine, hydrochloride (1:2)", "1H-Benzimidazole-2-methanamine, hydrochloride (1:2)", "1H-Benzimidazole-2-methanamine, dihydrochloride", "Benzimidazole, 2-(aminomethyl)-, dihydrochloride", "2-Aminomethylbenzimidazole dihydrochloride", "2-Aminomethyl-1H-benzimidazole dihydrochloride", "(1H-Benzimidazol-2-yl)methanamine dihydrochloride", "(1H-1,3-Benzodiazol-2-yl)methanamine dihydrochloride", "1H-1,3-Benzodiazol-2-ylmethanamine dihydrochloride", "(1H-Benzimidazol-2-ylmethyl)amine dihydrochloride", "2-(Azaniumylmethyl)-1H-1,3-benzodiazol-1-ium dichloride"], "SMILES": "C(N)C=1NC=2C(N1)=CC=CC2.Cl", "physical_data": {"Molecular Weight": "", "Molecular Formula": "C8H9N3.2ClH", "Melting Point": "264-265 \u00b0C (decomp)"}}