{"cas_no": "59944-75-1", "cn_name": "\u567b\u5429[2,3\u5e76]\u5421\u55ea-7-\u6c28", "en_name": ["Thieno[2,3-b]pyrazin-7-amine", "Thieno[2,3-b]pyrazin-7-amine"], "SMILES": "NC=1C=2C(=NC=CN2)SC1", "physical_data": {"Molecular Weight": "151.19", "Molecular Formula": "C6H5N3S", "Melting Point": "81-82 \u00b0C"}}