{"cas_no": "5994-61-6", "cn_name": "\u53cc\u7518\u81a6", "en_name": ["N-(Phosphonomethyl)iminodiacetic acid", "Glycine, N-(carboxymethyl)-N-(phosphonomethyl)-", "Acetic acid, [(phosphonomethyl)imino]di-", "N-(Carboxymethyl)-N-(phosphonomethyl)glycine", "Nitrilodiacetic acid methylphosphonic acid", "N-(Phosphonomethyl)iminodiacetic acid", "Aminomethylphosphonic N,N-diacetic acid", "MON 820", "Phosphonomethyliminodiacetic acid", "Nitrilotris(methylene) triphonic acid", "PMIDA", "2,2\u2032-[(Phosphonomethyl)imino]diacetic acid", "(Carboxymethyl-phosphonomethyl-amino)-acetic acid", "2-[Carboxymethyl(phosphonomethyl)amino]acetic acid"], "SMILES": "C(N(CC(O)=O)CC(O)=O)P(=O)(O)O", "physical_data": {"Molecular Weight": "227.11", "Molecular Formula": "C5H10NO7P", "Melting Point": "208 \u00b0C (decomp)"}}