{"cas_no": "59944-76-2", "cn_name": "\u567b\u5429\u5e76[2,3-B]\u5421\u5576-2-\u7532\u9178", "en_name": ["Thieno[2,3-b]pyridine-2-carboxylic acid", "Thieno[2,3-b]pyridine-2-carboxylic acid"], "SMILES": "C(O)(=O)C1=CC=2C(S1)=NC=CC2", "physical_data": {"Molecular Weight": "179.20", "Molecular Formula": "C8H5NO2S", "Melting Point": "311-312 \u00b0C"}}