{"cas_no": "5995-86-8", "cn_name": "\u4e00\u6c34\u6ca1\u98df\u5b50\u9178", "en_name": ["3,4,5-Trihydroxybenzoic acid hydrate (1:1)", "Benzoic acid, 3,4,5-trihydroxy-, hydrate (1:1)", "Gallic acid, monohydrate", "Benzoic acid, 3,4,5-trihydroxy-, monohydrate", "3,4,5-Trihydroxybenzoic acid hydrate (1:1)"], "SMILES": "C(O)(=O)C1=CC(O)=C(O)C(O)=C1.O", "physical_data": {"Molecular Weight": "", "Molecular Formula": "C7H6O5.H2O", "Melting Point": "258-260 \u00b0C"}}