{"cas_no": "59973-80-7", "cn_name": "EXISULIND", "en_name": ["Sulindac sulfone", "1H-Indene-3-acetic acid, 5-fluoro-2-methyl-1-[[4-(methylsulfonyl)phenyl]methylene]-, (1Z)-", "1H-Indene-3-acetic acid, 5-fluoro-2-methyl-1-[[4-(methylsulfonyl)phenyl]methylene]-, (Z)-", "(1Z)-5-Fluoro-2-methyl-1-[[4-(methylsulfonyl)phenyl]methylene]-1H-indene-3-acetic acid", "Sulindac sulfone", "cis-5-Fluoro-2-methyl-1-[p-methylsulfonylbenzylidenyl]indene-3-acetic acid", "Exisulind", "FGN 1", "Prevatec", "Aptosyn"], "SMILES": "C(C(O)=O)C=1C=2C(C(=CC3=CC=C(S(C)(=O)=O)C=C3)C1C)=CC=C(F)C2", "physical_data": {"Molecular Weight": "372.41", "Molecular Formula": "C20H17FO4S", "Melting Point": "194-196 \u00b0C"}}