{"cas_no": "59979-61-2", "cn_name": "TAGITININ A", "en_name": ["Tagitinin A", "Propanoic acid, 2-methyl-, (3aS,4R,6R,7R,9S,10S,11aR)-dodecahydro-7,9-dihydroxy-6,10-dimethyl-3-methylene-2-oxo-6,9-epoxycyclodeca[b]furan-4-yl ester", "6,9-Epoxycyclodeca[b]furan, propanoic acid deriv.", "Tagitinin A"], "SMILES": "O(C(C(C)C)=O)C1C2C(CC(C)C3(O)OC(C)(C1)C(O)C3)OC(=O)C2=C", "physical_data": {"Molecular Weight": "368.42", "Molecular Formula": "C19H28O7", "Melting Point": "172-174 \u00b0C"}}