{"cas_no": "59989-18-3", "cn_name": "5-\u4e59\u7094\u57fa\u5c3f\u5627\u5576", "en_name": ["Eniluracil", "2,4(1H,3H)-Pyrimidinedione, 5-ethynyl-", "5-Ethynyl-2,4(1H,3H)-pyrimidinedione", "5-Ethynyluracil", "Eniluracil", "776C85", "NSC 687296"], "SMILES": "C(#C)C=1C(=O)NC(=O)NC1", "physical_data": {"Molecular Weight": "136.11", "Molecular Formula": "C6H4N2O2", "Melting Point": "&gt;220 \u00b0C (decomp)"}}