{"cas_no": "59981-63-4", "cn_name": "L-4,5,6,7-\u56db\u6c22-1H-\u54aa\u5511[4,5-C]\u5e76\u5421\u5576-6-\u7fa7\u9178", "en_name": ["(6S)-4,5,6,7-Tetrahydro-3H-imidazo[4,5-c]pyridine-6-carboxylic acid", "3H-Imidazo[4,5-c]pyridine-6-carboxylic acid, 4,5,6,7-tetrahydro-, (6S)-", "Spinacine", "1H-Imidazo[4,5-c]pyridine-6-carboxylic acid, 4,5,6,7-tetrahydro-, (S)-", "(6S)-4,5,6,7-Tetrahydro-3H-imidazo[4,5-c]pyridine-6-carboxylic acid", "Spinacin", "(-)-Spinacine", "L-Spinacine", "(S)-4,5,6,7-Tetrahydro-1H-imidazo[4,5-d]pyridine-6-carboxylic acid", "(6S)-4,5,6,7-Tetrahydro-3H-imidazo[4,5-c]pyridine-6-carboxylic acid", "(6S)-3H,4H,5H,6H,7H-Imidazo[4,5-c]pyridine-6-carboxylic acid", "(6S)-1H,4H,5H,6H,7H-Imidazo[4,5-c]pyridine-6-carboxylic acid"], "SMILES": "C(O)(=O)C1CC2=C(CN1)N=CN2", "physical_data": {"Molecular Weight": "167.17", "Molecular Formula": "C7H9N3O2", "Melting Point": "264 \u00b0C"}}