{"cas_no": "59997-51-2", "cn_name": "\u65b0\u620a\u9170\u57fa\u4e59\u8148", "en_name": ["Pivaloylacetonitrile", "Pentanenitrile, 4,4-dimethyl-3-oxo-", "Valeronitrile, 4,4-dimethyl-3-oxo-", "4,4-Dimethyl-3-oxopentanenitrile", "Pivaloylacetonitrile", "Pyvaolylacetonitrile", "1-Cyano-3,3-dimethyl-2-butanone", "Cyanomethyl tert-butyl ketone", "(Trimethylacetyl)acetonitrile"], "SMILES": "C(C(C)(C)C)(CC#N)=O", "physical_data": {"Molecular Weight": "125.17", "Molecular Formula": "C7H11NO", "Boiling Point": "125-126 \u00b0C @ Press: 22 Torr", "Melting Point": "68 \u00b0C"}}