{"cas_no": "60-00-4", "cn_name": "\u4e59\u4e8c\u80fa\u56db\u4e59\u9178", "en_name": ["Ethylenediaminetetraacetic acid", "Glycine, N,N\u2032-1,2-ethanediylbis[N-(carboxymethyl)-", "Acetic acid, (ethylenedinitrilo)tetra-", "N,N\u2032-1,2-Ethanediylbis[N-(carboxymethyl)glycine]", "Celon A", "Celon ATH", "Complexon II", "3,6-Diazaoctanedioic acid, 3,6-bis(carboxymethyl)-", "Edathamil", "Edetic acid", "EDTA (chelating agent)", "Endrate", "Ethylenediaminetetraacetic acid", "Metaquest A", "Nervanaid B acid", "Nullapon B acid", "Nullapon BF acid", "Perma Kleer 50 acid", "Sequestrene AA", "Sequestric acid", "Sequestrol", "Trilon BW", "Versene", "Ethylenediamine-N,N,N\u2032,N\u2032-tetraacetic acid", "Ethylenediaminetetraacetate", "Acetic acid, 2,2\u2032,2\u2032\u2032,2\u2032\u2032\u2032-(1,2-ethanediyldinitrilo)tetrakis-", "Ethylenedinitrilotetraacetic acid", "Cheelox", "Chemcolox 340", "Titriplex", "EDTA", "Havidote", "ICRF 185", "Clewat TAA", "Trilon BS", "Gluma Cleanser", "YD 30", "Titriplex II", "Chelest 3A", "Dissolvine E", "Quastal Special", "Acroma DH 700", "Techrun DO", "NSC 97243", "NSC 97404", "Zonon AO", "Dissolvine Z", "Ethylene-N,N\u2032-biscarboxymethyl-N,N\u2032-diglycine", "Sequestrene K 4", "Clewat TTA", "WS", "WS (chelating agent)", "Dotite 4H", "PrefGel", "Dissolvine NA-X", "Chelest A", "2,2\u2032,2\u2032\u2032,2\u2032\u2032\u2032-(ethane-1,2-diylbis(azanetriyl))tetraacetic acid", "Kurewat-N", "Disolvin NA 2-S", "PM 17", "[[2-(Bis-carboxymethyl-amino)-ethyl]-carboxymethyl-amino]-acetic acid", "OM 002", "Ethylenediaminetetraaacetic acid", "Circuposit 3350M1", "2-([2-[Bis(carboxymethyl)amino]ethyl](carboxymethyl)amino)acetic acid", "Chelest 110", "EC", "Clewat 3K"], "SMILES": "N(CCN(CC(O)=O)CC(O)=O)(CC(O)=O)CC(O)=O", "physical_data": {"Molecular Weight": "292.24", "Molecular Formula": "C10H16N2O8", "Melting Point": "245 \u00b0C", "Density": "0.086 g/cm\u00b3"}}