{"cas_no": "60-09-3", "cn_name": "4-\u963f\u57fa\u82ef\u7532\u916f", "en_name": ["4-Aminoazobenzene", "Benzenamine, 4-(2-phenyldiazenyl)-", "C.I. Solvent Yellow 1", "Benzenamine, 4-(phenylazo)-", "4-(2-Phenyldiazenyl)benzenamine", "C.I. 11000", "4-Aminoazobenzene", "p-Aminoazobenzene", "p-Aminoazobenzol", "4-Aminoazobenzol", "p-Aminodiphenylimide", "Brasilazina Oil Yellow G", "Cellitazol R", "Ceres Yellow R", "Fast Spirit Yellow", "Fat Yellow AAB", "Oil Yellow AAB", "Oil Yellow AB", "Oil Yellow AN", "Organol Yellow 2A", "Somalia Yellow 2G", "Sudan Yellow R", "Oil Soluble Aniline Yellow", "Oil Yellow B", "Solvent Yellow 1", "Aniline yellow", "p-(Phenylazo)aniline", "4-(Phenylazo)aniline", "NSC 2032", "4-(Phenylazo)benzenamine", "4-(Phenyldiazenyl)aniline", "Solvent yellow?", "MeSH ID: D010128"], "SMILES": "N(=NC1=CC=CC=C1)C2=CC=C(N)C=C2", "physical_data": {"Molecular Weight": "197.24", "Molecular Formula": "C12H11N3", "Boiling Point": "&gt;360 \u00b0C", "Melting Point": "128 \u00b0C"}}