{"cas_no": "60-01-5", "cn_name": "\u7518\u6cb9\u4e09\u4e01\u9178\u916f", "en_name": ["Tributyrin", "Butanoic acid, 1,2,3-propanetriyl ester", "Butyrin, tri-", "Butyrin", "Butyryl triglyceride", "Glycerol tributyrate", "Glyceryl tributyrate", "Tributyrin", "Tributyroin", "Tri-n-butyrin", "Glycerol tributanoate", "Tributin", "Tributyryl glyceride", "Glycerin tributyrate", "Glyceroltributyrin", "Tributyrylglycerol", "Glyceryl tributanoate", "NSC 661583", "Tributanoin", "2,3-Di(butanoyloxy)propyl butanoate"], "SMILES": "C(COC(CCC)=O)(COC(CCC)=O)OC(CCC)=O", "physical_data": {"Molecular Weight": "302.36", "Molecular Formula": "C15H26O6", "Boiling Point": "305-310 \u00b0C", "Melting Point": "-75 \u00b0C", "Density": "1.0350 g/cm\u00b3 @ Temp: 20 \u00b0C"}}