{"cas_no": "60-12-8", "cn_name": "\u82ef\u4e59\u9187", "en_name": ["2-Phenylethanol", "Benzeneethanol", "Phenethyl alcohol", "Benzyl carbinol", "Ethanol, 2-phenyl-", "\u03b2-(Hydroxyethyl)benzene", "PEA", "\u03b2-PEA", "Phenethanol", "2-Phenylethanol", "Phenylethyl alcohol", "\u03b2-Phenylethyl alcohol", "\u03b2-Phenethyl alcohol", "\u03b2-Phenylethanol", "2-Phenylethyl alcohol", "2-Phenethyl alcohol", "Phenylethanol", "\u03b2-Phenethanol", "2-Phenethanol", "2-Phenyl-1-ethanol", "(2-Hydroxyethyl)benzene", "NSC 406252", "Phenethylol", "\u03b2-Phenethylol", "Methyl 3-[(4-Chlorobenzyl)oxy]-4-iodobenzoate", "Microcare PEA", "AR 606", "Dermosoft PEA", "MeSH ID: D010626"], "SMILES": "C(CO)C1=CC=CC=C1", "physical_data": {"Molecular Weight": "122.16", "Molecular Formula": "C8H10O", "Boiling Point": "218.2 \u00b0C @ Press: 760 Torr", "Melting Point": "-27 \u00b0C", "Density": "1.0202 g/cm\u00b3 @ Temp: 20 \u00b0C"}}