{"cas_no": "60-18-4", "cn_name": "L-\u916a\u6c28\u9178", "en_name": ["L-Tyrosine", "L-Tyrosine", "Tyrosine, L-", "(-)-\u03b1-Amino-p-hydroxyhydrocinnamic acid", "L(-)-\u03b2-(p-Hydroxyphenyl)alanine", "L-(-)-Tyrosine", "p-Tyrosine", "Benzenepropanoic acid, \u03b1-amino-4-hydroxy-, (S)-", "L-Phenylalanine, 4-hydroxy-", "Tyrosine", "L-p-Tyrosine", "Tyr", "4-(2-Amino-2-carboxyethyl)phenol", "Propanoic acid, 2-amino-3-(4-hydroxyphenyl)-, (S)-", "\u03b2-(p-Hydroxyphenyl)alanine", "(S)-\u03b1-Amino-4-hydroxybenzenepropanoic acid", "L-Tyr", "(S)-Tyrosine", "NSC 82624", "NSC 9973", "(S)-2-Amino-3-(4-hydroxyphenyl)propanoic acid", "(2S)-2-Amino-3-(4-hydroxyphenyl)propanoic acid", "Therigon", "H-L-Tyr-OH", "L-4-Hydroxyphenylalanine", "p-Hydroxyphenylalanine", "513: PN: WO2022056313 SEQID: 528 claimed protein", "359: PN: US20220128567 SEQID: 528 claimed protein", "359: PN: US20220178935 SEQID: 528 claimed protein", "MeSH ID: D014443"], "SMILES": "C(C(C(O)=O)N)C1=CC=C(O)C=C1", "physical_data": {"Molecular Weight": "181.19", "Molecular Formula": "C9H11NO3", "Melting Point": "344 \u00b0C", "Density": "1.46 g/cm\u00b3"}}