{"cas_no": "60-19-5", "cn_name": "\u916a\u80fa\u76d0\u9178\u76d0", "en_name": ["Tyramine hydrochloride", "Phenol, 4-(2-aminoethyl)-, hydrochloride (1:1)", "Phenol, p-(2-aminoethyl)-, hydrochloride", "Phenol, 4-(2-aminoethyl)-, hydrochloride", "4-Hydroxyphenethylamine hydrochloride", "Tyramine hydrochloride", "p-Tyramine hydrochloride", "4-Hydroxy-\u03b2-phenethylamine hydrochloride", "2-(4-Hydroxyphenyl)ethylamine hydrochloride", "Uteramin", "Mydrial", "Tyrosam", "4-Hydroxyphenylethylamine hydrochloride"], "SMILES": "C(CN)C1=CC=C(O)C=C1.Cl", "physical_data": {"Molecular Weight": "", "Molecular Formula": "C8H11NO.ClH", "Melting Point": "269 \u00b0C"}}