{"cas_no": "60-10-6", "cn_name": "\u53cc\u786b\u8159", "en_name": ["Dithizone", "Diazenecarbothioic acid, 2-phenyl-, 2-phenylhydrazide", "Formic acid, (phenylazo)thio-, 2-phenylhydrazide", "Diazenecarbothioic acid, phenyl-, 2-phenylhydrazide", "Diphenylthiocarbazone", "Dithizon", "Dithizone", "Diazenecarbohydrazonothioic acid, N,2-diphenyl-", "(Phenylazo)thioformic acid 2-phenylhydrazide", "DIZO", "NSC 215189", "NSC 4275", "NSC 97262", "NSC 97264", "NSC 97353", "NSC 99124", "1,5-Diphenyl-3-thiocarbazone", "1-Anilino-3-phenyliminothiourea", "MeSH ID: D004230"], "SMILES": "N(NC(N=NC1=CC=CC=C1)=S)C2=CC=CC=C2", "physical_data": {"Molecular Weight": "256.33", "Molecular Formula": "C13H12N4S", "Melting Point": "167 \u00b0C (decomp)"}}