{"cas_no": "60-29-7", "cn_name": "\u4e59\u919a", "en_name": ["Diethyl ether", "Ethane, 1,1\u2032-oxybis-", "Ether", "Ethyl ether", "1,1\u2032-Oxybis[ethane]", "Anaesthetic ether", "Anesthesia ether", "Anesthetic ether", "Diethyl ether", "Diethyl oxide", "Ethoxyethane", "Pronarcol", "3-Oxapentane", "Sulfuric ether", "Ethyl oxide", "NSC 100036", "R 610", "MeSH ID: D004986"], "SMILES": "O(CC)CC", "physical_data": {"Molecular Weight": "74.12", "Molecular Formula": "C4H10O", "Boiling Point": "2.2 \u00b0C @ Press: 200 Torr", "Melting Point": "-116 \u00b0C", "Density": "0.7134 g/cm\u00b3 @ Temp: 20 \u00b0C"}}