{"cas_no": "60-24-2", "cn_name": "2-\u5def\u57fa\u4e59\u9187", "en_name": ["2-Mercaptoethanol", "Ethanol, 2-mercapto-", "2-Mercaptoethanol", "2-ME", "Ethylene glycol, monothio-", "2-Hydroxyethyl mercaptan", "Mercaptoethanol", "\u03b2-Mercaptoethanol", "Thiomonoglycol", "2-Mercaptoethyl alcohol", "\u03b2-Hydroxyethanethiol", "\u03b2-Hydroxyethylmercaptan", "Monothioethylene glycol", "Monothioglycol", "2-Hydroxy-1-ethanethiol", "2-Hydroxyethanethiol", "Thioethylene glycol", "1-Hydroxy-2-mercaptoethane", "1-Mercapto-2-hydroxyethane", "2-Mercapto-1-ethanol", "Hydroxyethyl mercaptan", "NSC 3723", "2-Sulfanylethanol", "2-Sulfanylethan-1-ol", "\u03b2-Mercapto", "Beta-mercaptoethanol", "Beta-mercapto", "BME", "2BME", "\u03b2-met", "MeSH ID: D008623"], "SMILES": "C(CS)O", "physical_data": {"Molecular Weight": "78.13", "Molecular Formula": "C2H6OS", "Boiling Point": "157 \u00b0C", "Melting Point": "-100 \u00b0C", "Density": "1.1143 g/cm\u00b3 @ Temp: 20 \u00b0C"}}