{"cas_no": "60-23-1", "cn_name": "\u5def\u57fa\u4e59\u80fa", "en_name": ["Cysteamine", "Ethanethiol, 2-amino-", "2-Aminoethanethiol", "2-Aminoethyl mercaptan", "Becaptan", "Cysteamine", "Decarboxycysteine", "Lambraten", "Mercamine", "Mercaptamine", "Mercaptoethylamine", "\u03b2-Mercaptoethylamine", "2-Mercaptoethylamine", "Thioethanolamine", "Cysteinamine", "Lambratene", "\u03b2-MEA", "\u03b2-Aminoethanethiol", "Merkamin", "Riacon", "L 1573", "Mercaptamin", "Mercamin", "\u03b2-Aminoethylthiol", "2-Mercaptoethanamine", "2-Amino-1-ethanethiol", "MEA", "MEA (mercaptan)", "WR 347", "1-Amino-2-mercaptoethane", "NSC 647528", "2-Aminoethylthiol", "Cystagone", "NM 001", "Mercaptoethanylamine", "2-Mercaptoethaneamine", "Dropcys", "MeSH ID: D003543"], "SMILES": "C(CS)N", "physical_data": {"Molecular Weight": "77.15", "Molecular Formula": "C2H7NS", "Boiling Point": "130 \u00b0C", "Melting Point": "99.5 \u00b0C"}}