{"cas_no": "60-25-3", "cn_name": "\u6c2f\u5316\u516d\u7532\u53cc\u94f5", "en_name": ["Hexamethonium chloride", "1,6-Hexanediaminium, N1,N1,N1,N6,N6,N6-hexamethyl-, chloride (1:2)", "Ammonium, hexamethylenebis[trimethyl-, dichloride", "1,6-Hexanediaminium, N,N,N,N\u2032,N\u2032,N\u2032-hexamethyl-, dichloride", "Hexamethylenebis[trimethylammonium chloride]", "\u03b1,\u03c9-Bis[trimethylammonium]hexane dichloride", "Bistrium chloride", "Chloor-hexaviet", "Esomid Chloride", "Hestrium chloride", "Hexamethonium chloride", "Hexamethonium dichloride", "Hexameton chloride", "Hexon chloride", "Hexone chloride", "Hiohex Chloride", "Methium Chloride", "N,N\u2032-Hexamethylenebis(trimethylammonium chloride)", "Meton"], "SMILES": "C([N+](C)(C)C)CCCCC[N+](C)(C)C.[Cl-]", "physical_data": {"Molecular Weight": "", "Molecular Formula": "C12H30N2.2Cl", "Melting Point": "289-292 \u00b0C (decomp)"}}