{"cas_no": "60-27-5", "cn_name": "\u808c\u9178\u9150", "en_name": ["Creatinine", "4H-Imidazol-4-one, 2-amino-1,5-dihydro-1-methyl-", "Creatinine", "2-Amino-1,5-dihydro-1-methyl-4H-imidazol-4-one", "1-Methylglycocyamidine", "1-Methylhydantoin-2-imide", "2-Amino-1-methylimidazolin-4-one", "NSC 13123", "2-Amino-1-methyl-1,5-dihydroimidazol-4-one", "TEGO Cosmo C 250", "2-Imino-1-methyl-imidazolidin-4-one", "2-Amino-1-methyl-4,5-dihydro-1H-imidazol-4-one", "2-Imino-1-methylimidazolidin-4-one", "MeSH ID: D003404"], "SMILES": "NC=1N(C)CC(=O)N1", "physical_data": {"Molecular Weight": "113.12", "Molecular Formula": "C4H7N3O", "Melting Point": "300 \u00b0C (decomp)"}}