{"cas_no": "60-34-4", "cn_name": "\u7532\u57fa\u80bc", "en_name": ["Methylhydrazine", "Hydrazine, methyl-", "Methylhydrazine", "MMH", "Monomethylhydrazine"], "SMILES": "N(C)N", "physical_data": {"Molecular Weight": "46.07", "Molecular Formula": "CH6N2", "Boiling Point": "87.5 \u00b0C", "Melting Point": "-52.4 \u00b0C", "Density": "0.874 g/cm\u00b3 @ Temp: 25 \u00b0C"}}