{"cas_no": "60-32-2", "cn_name": "6-\u6c28\u57fa\u5df1\u9178", "en_name": ["6-Aminohexanoic acid", "Hexanoic acid, 6-amino-", "Caproic acid, \u03b5-amino-", "6-Aminohexanoic acid", "CY 116", "177 J.D.", "CL 10304", "ACS", "Amicar", "\u03b5-Aminocaproic acid", "\u03c9-Aminocaproic acid", "\u03b5-Aminohexanoic acid", "Caprocid", "EACA", "Epsilon S", "Hemocaprol", "6-Aminocaproic acid", "Aminokapron", "\u03b5-Leucine", "Acepramine", "Acepramin", "\u03c9-Aminohexanoic acid", "Epsilcapramin", "Ipsilon", "Capramol", "EACS", "Afibrin", "Epsamon", "Hepin", "\u03b5-Norleucine", "Amikar", "Caprolisin", "Respramin", "Caplamin", "Hemopar", "Epsicapron", "Epsikapron", "\u03b5-Amino-n-hexanoic acid", "6-Amino-n-hexanoic acid", "NSC 26154", "NSC 212532", "NSC 400230", "Acikaprin", "A 14719", "\u03b5-Amino-n-caproic acid", "AN 0064-1"], "SMILES": "C(CC(O)=O)CCCN", "physical_data": {"Molecular Weight": "131.17", "Molecular Formula": "C6H13NO2", "Melting Point": "202-203 \u00b0C"}}