{"cas_no": "60-31-1", "cn_name": "\u6c2f\u5316\u4e59\u9170\u80c6\u78b1", "en_name": ["Acetylcholine chloride", "Ethanaminium, 2-(acetyloxy)-N,N,N-trimethyl-, chloride (1:1)", "Choline acetate (ester), chloride", "Ethanaminium, 2-(acetyloxy)-N,N,N-trimethyl-, chloride", "Acecoline", "2-Acetoxyethyltrimethylammonium chloride", "Acetylcholine chloride", "ACh chloride", "Arterocoline", "(2-Hydroxyethyl)trimethylammonium chloride acetate", "Ovisot", "Acetylcholinium chloride", "O-Acetylcholine chloride", "Trimethyl(2-acetoxyethyl)ammonium chloride", "Acecholin", "Miochol"], "SMILES": "C(COC(C)=O)[N+](C)(C)C.[Cl-]", "physical_data": {"Molecular Weight": "", "Molecular Formula": "C7H16NO2.Cl", "Melting Point": "150 \u00b0C", "Density": "1.27 g/cm\u00b3"}}