{"cas_no": "60-35-5", "cn_name": "\u4e59\u9170\u80fa", "en_name": ["Acetamide", "Acetamide", "Acetic acid amide", "Ethanamide", "Methanecarboxamide", "Acetimidic acid", "Ethanimidic acid", "NSC 25945"], "SMILES": "C(C)(N)=O", "physical_data": {"Molecular Weight": "59.07", "Molecular Formula": "C2H5NO", "Boiling Point": "222 \u00b0C @ Press: 760 Torr", "Melting Point": "81 \u00b0C", "Density": "1.159 g/cm\u00b3 @ Temp: 20 \u00b0C"}}