{"cas_no": "60-33-3", "cn_name": "\u4e9a\u6cb9\u9178", "en_name": ["Linoleic acid", "9,12-Octadecadienoic acid (9Z,12Z)-", "Linoleic acid", "9,12-Octadecadienoic acid (Z,Z)-", "(9Z,12Z)-9,12-Octadecadienoic acid", "9Z,12Z-Linoleic acid", "cis-9,cis-12-Octadecadienoic acid", "Polylin 515", "cis,cis-Linoleic acid", "Unifac 6550", "Linolic acid", "9,12-Octadecadienoic acid, (Z,Z)-", "(Z,Z)-9,12-Octadecadienoic acid", "cis-\u03949,12-Octadecadienoic acid", "C18:2", "\u03b1-Linoleic acid", "9-cis,12-cis-Linoleic acid", "all-cis-9,12-Octadecadienoic acid", "Emersol 315", "Extra Linoleic 90", "9Z,12Z-Octadecadienoic acid", "Ronacare ASC 3", "CA 1726", "(9Z,12Z)-Octadec-9,12-dienoic acid", "9,12-Octadecanoic acid", "LAD 180-6", "MeSH ID: D019787"], "SMILES": "C(CC=CCC=CCCCCC)CCCCCC(O)=O", "physical_data": {"Molecular Weight": "280.45", "Molecular Formula": "C18H32O2", "Boiling Point": "365.2 \u00b0C", "Melting Point": "-12 \u00b0C", "Density": "0.9022 g/cm\u00b3 @ Temp: 20 \u00b0C"}}