{"cas_no": "60-41-3", "cn_name": "\u9a6c\u94b1\u5b50\u78b1\u786b\u9178\u76d0", "en_name": ["Strychnidin-10-one, sulfate (2:1)", "Strychnidin-10-one, sulfate (2:1)", "Strychnine, sulfate (2:1)", "4,6-Methano-6H,14H-indolo[3,2,1-ij]oxepino[2,3,4-de]pyrrolo[2,3-h]quinoline, strychnidin-10-one deriv.", "Strychnine sulfate", "Vampirol", "Antivampire", "Strychninium sulfate", "Strychnine hemisulfate"], "SMILES": "O=C1N2C3C4(C5N(CC4)CC=6C(C3C(C1)OCC6)C5)C=7C2=CC=CC7.S(=O)(=O)(O)O", "physical_data": {"Molecular Weight": "", "Molecular Formula": "C21H22N2O2.<sup>1</sup>/2H2O4S", "Melting Point": "200 \u00b0C (decomp)"}}