{"cas_no": "60-46-8", "cn_name": "\u80c3\u5b89", "en_name": ["Aminopentamide", "Benzeneacetamide, \u03b1-[2-(dimethylamino)propyl]-\u03b1-phenyl-", "Valeramide, 4-(dimethylamino)-2,2-diphenyl-", "\u03b1-[2-(Dimethylamino)propyl]-\u03b1-phenylbenzeneacetamide", "Aminopentamide", "Dimevamide", "\u03b1,\u03b1-Diphenyl-\u03b3-dimethylaminovaleramide", "Valeramide-OM", "Centrine", "dl-Aminopentamide", "BL 139"], "SMILES": "C(CC(N(C)C)C)(C(N)=O)(C1=CC=CC=C1)C2=CC=CC=C2", "physical_data": {"Molecular Weight": "296.41", "Molecular Formula": "C19H24N2O", "Melting Point": "137 \u00b0C"}}