{"cas_no": "60-57-1", "cn_name": "\u72c4\u6c0f\u5242", "en_name": ["Dieldrin", "2,7:3,6-Dimethanonaphth[2,3-b]oxirene, 3,4,5,6,9,9-hexachloro-1a,2,2a,3,6,6a,7,7a-octahydro-, (1aR,2R,2aS,3S,6R,6aR,7S,7aS)-rel-", "2,7:3,6-Dimethanonaphth[2,3-b]oxirene, 3,4,5,6,9,9-hexachloro-1a,2,2a,3,6,6a,7,7a-octahydro-, (1a\u03b1,2\u03b2,2a\u03b1,3\u03b2,6\u03b2,6a\u03b1,7\u03b2,7a\u03b1)-", "1,4:5,8-Dimethanonaphthalene, 1,2,3,4,10,10-hexachloro-6,7-epoxy-1,4,4a,5,6,7,8,8a-octahydro-, endo,exo-", "rel-(1aR,2R,2aS,3S,6R,6aR,7S,7aS)-3,4,5,6,9,9-Hexachloro-1a,2,2a,3,6,6a,7,7a-octahydro-2,7:3,6-dimethanonaphth[2,3-b]oxirene", "Dieldrin", "HEOD", "1,2,3,4,10,10-Hexachloro-6,7-epoxy-1,4,4a,5,6,7,8,8a-octahydro-endo-1,4-exo-5,8-dimethanonaphthalene", "Illoxol", "Octalox", "1,2,3,4,10,10-Hexachloro-6,7-epoxy-1,4,4a,5,6,7,8,8a-octahydro-1,4-endo,exo-5,8-dimethanonaphthalene", "Aldrin epoxide", "Insectlack", "Alvit 55", "ENT-16225", "Red Shield", "SD 3417", "Dieldrex", "Dielmoth", "Dorytox", "Moth Snub D", "Kombi-Albertan", "Termitox", "exo-Dieldrin", "MeSH ID: D004026"], "SMILES": "ClC12C3C(C(Cl)(C1(Cl)Cl)C(Cl)=C2Cl)C4CC3C5C4O5", "physical_data": {"Molecular Weight": "380.91", "Molecular Formula": "C12H8Cl6O", "Boiling Point": "330 \u00b0C", "Melting Point": "175.5 \u00b0C", "Density": "1.75 g/cm\u00b3"}}