{"cas_no": "60-51-5", "cn_name": "\u4e50\u679c", "en_name": ["Dimethoate", "Phosphorodithioic acid, O,O-dimethyl S-[2-(methylamino)-2-oxoethyl] ester", "Phosphorodithioic acid, O,O-dimethyl ester, S-ester with 2-mercapto-N-methylacetamide", "Phosphorodithioic acid, O,O-dimethyl S-(methylcarbamoylmethyl) ester", "CL 12880", "8014 Bis HC", "Cygon", "Cygon Insecticide", "Dimethoate", "O,O-Dimethyl S-(N-methylcarbamoylmethyl) phosphorodithioate", "Dimeton", "Experimental Insecticide 12880", "Fostion MM", "Lurgo", "S-Methylcarbamoylmethyl O,O-dimethyl phosphorodithioate", "Perfekthion", "Phosphamide", "Rogor L", "Rogor P", "Roxion", "BI 58", "PEI 75", "Rogor 40", "Rogor", "Fosfotox", "Phosphamid", "Fosfotox R 35", "O,O-Dimethyl S-(N-methylcarbamoylmethyl) dithiophosphate", "Rogor 20L", "Daphene", "ENT 24650", "Fosfotox R", "De-fend", "American Cyanamid 12,880", "Cygon 4E", "FIP", "Fosfatox R", "Dimevur", "Racusan", "Sinoratox", "Systoate", "Systemin", "Sistemin", "Cygon 2E", "Tara 909", "Aadimethoal", "Tara", "Perfekthion S", "Cygon 400", "Systemin (pesticide)", "Dimate", "Dimate (insecticide)", "Tiomet", "Laition", "Chloromezyl", "Dimezyl", "Dimezyl 400EC", "Ditimur 40", "Danadim", "Bi 58 Nowy 400EC", "Bi 58 Nowy", "Cerox", "Dudu Ethoate", "Super Ethoate", "Agrithoate 40EC", "Tafgor 40EC", "TATA TAFGOR", "Tafgor", "MeSH ID: D004117"], "SMILES": "P(SCC(NC)=O)(OC)(OC)=S", "physical_data": {"Molecular Weight": "229.26", "Molecular Formula": "C5H12NO3PS2", "Boiling Point": "107 \u00b0C @ Press: 0.05 Torr", "Melting Point": "49 \u00b0C", "Density": "1.277 g/cm\u00b3 @ Temp: 65 \u00b0C"}}