{"cas_no": "60-54-8", "cn_name": "\u56db\u73af\u7d20", "en_name": ["(-)-Tetracycline", "2-Naphthacenecarboxamide, 4-(dimethylamino)-1,4,4a,5,5a,6,11,12a-octahydro-3,6,10,12,12a-pentahydroxy-6-methyl-1,11-dioxo-, (4S,4aS,5aS,6S,12aS)-", "2-Naphthacenecarboxamide, 4-(dimethylamino)-1,4,4a,5,5a,6,11,12a-octahydro-3,6,10,12,12a-pentahydroxy-6-methyl-1,11-dioxo-, [4S-(4\u03b1,4a\u03b1,5a\u03b1,6\u03b2,12a\u03b1)]-", "2-Naphthacenecarboxamide, 4-(dimethylamino)-1,4,4a,5,5a,6,11,12a-octahydro-3,6,10,12,12a-pentahydroxy-6-methyl-1,11-dioxo-", "(4S,4aS,5aS,6S,12aS)-4-(Dimethylamino)-1,4,4a,5,5a,6,11,12a-octahydro-3,6,10,12,12a-pentahydroxy-6-methyl-1,11-dioxo-2-naphthacenecarboxamide", "Abramycin", "Achromycin", "Agromicina", "Ambramicina", "Ambramycin", "Cyclomycin", "Deschlorobiomycin", "Neocycline", "Omegamycin", "Panmycin", "Polycycline", "Tetracycline", "Tetradecin", "Orlycycline", "Polycycline (antibiotic)", "Biocycline", "Mericycline", "Tetra-Co", "Ciclibion", "Veracin", "Vetacyclinum", "Roviciclina", "Tetrafil", "Achromycin (naphthacene derivative)", "Cytome", "Resteclin", "Enterocycline", "Limecycline", "Micycline", "Sumycin syrup", "Medocycline", "(-)-Tetracycline", "Bio-Tetra", "NSC 108579", "Actisite", "Latycin", "Steclin V", "Tetramykoin", "Apo-Tetra", "Novo-Tetra", "Nu-Tetra", "Florocycline", "Tetramig", "Akne-Pyodron Kur", "Akne-Pyodron", "Dispatetrin", "Quimocyclin N", "Sagittacin N", "Tetracitro S", "Acromicina", "Calociclina", "Ibicyn", "Spaciclina", "Tetra-Proter", "Tetrabioptal", "Tetrafosammina", "Arcanacycline", "Gammatet", "Retet", "Britaciclina", "Kinciclina", "Quimpe Antibiotico", "Tetra Hubber", "Tetralen", "Servitet", "Tetraseptine", "Triphacycline", "Economycin", "NorTet", "Robitet Robicaps", "Tetracap", "Tetralan", "MeSH ID: D013752"], "SMILES": "OC12C(CC3C(=C1O)C(=O)C=4C(C3(C)O)=CC=CC4O)C(N(C)C)C(O)=C(C(N)=O)C2=O", "physical_data": {"Molecular Weight": "444.43", "Molecular Formula": "C22H24N2O8", "Melting Point": "5-170 \u00b0C"}}