{"cas_no": "60-56-0", "cn_name": "\u7532\u5def\u54aa\u5511", "en_name": ["Methimazole", "2H-Imidazole-2-thione, 1,3-dihydro-1-methyl-", "Imidazole-2-thiol, 1-methyl-", "4-Imidazoline-2-thione, 1-methyl-", "1,3-Dihydro-1-methyl-2H-imidazole-2-thione", "Basolan", "Danantizol", "Favistan", "Frentirox", "Mercaptazole", "2-Mercapto-1-methylimidazole", "Mercazole", "Mercazolyl", "Metazolo", "Methimazole", "1-Methyl-2-mercaptoimidazole", "Metothyrine", "Tapazole", "Thacapzol", "Thiamazole", "Metothyrin", "Thycapzol", "Methimazol", "Thymidazole", "1-Methyl-1H-imidazole-2-thiol", "1-Methylimidazole-2-thiol", "Metotirin", "Strumazol", "Thiamazol", "Thymidazol", "N-Methyl-2-mercaptoimidazole", "1-Methyl-4-imidazoline-2-thione", "1-Methyl-2-mercapto-1H-imidazole", "1-Methylimidazole-2(3H)-thione", "2-Mercapto-1-methyl-1H-imidazole", "N-Methylimidazolethiol", "1-Methyl-1,3-dihydroimidazole-2-thione", "1-Methylimidazole-2-thione", "2-Mercapto-N-methylimidazole", "NSC 38608", "MMI", "Methylmercaptoimidazole", "Metizol", "Thyrozol", "1-Methyl-2,3-dihydro-1H-imidazole-2-thione", "3-Methyl-1H-imidazole-2-thione", "Northyx", "MeSH ID: D008713"], "SMILES": "S=C1N(C)C=CN1", "physical_data": {"Molecular Weight": "114.17", "Molecular Formula": "C4H6N2S", "Boiling Point": "280 \u00b0C", "Melting Point": "146-148 \u00b0C", "Density": "1.35 g/cm\u00b3"}}