{"cas_no": "60-70-8", "cn_name": "\u9ece\u82a6\u78b1", "en_name": ["Veratramine", "3-Piperidinol, 5-methyl-2-[(1S)-1-[(3S,6aR,11aS,11bR)-2,3,4,6,6a,11,11a,11b-octahydro-3-hydroxy-10,11b-dimethyl-1H-benzo[a]fluoren-9-yl]ethyl]-, (2S,3R,5S)-", "Veratramine", "Veratraman-3,23-diol, 14,15,16,17-tetradehydro-, (3\u03b2,23\u03b2)-", "1H-Benzo[a]fluorene, veratraman-3,23-diol deriv.", "(2S,3R,5S)-5-Methyl-2-[(1S)-1-[(3S,6aR,11aS,11bR)-2,3,4,6,6a,11,11a,11b-octahydro-3-hydroxy-10,11b-dimethyl-1H-benzo[a]fluoren-9-yl]ethyl]-3-piperidinol", "NSC 17821", "NSC 23880"], "SMILES": "CC12C3C(C=4C(C3)=C(C)C(C(C)C5C(O)CC(C)CN5)=CC4)CC=C1CC(O)CC2", "physical_data": {"Molecular Weight": "409.60", "Molecular Formula": "C27H39NO2", "Melting Point": "206 \u00b0C"}}