{"cas_no": "60-87-7", "cn_name": "\u5f02\u4e19\u55ea", "en_name": ["(\u00b1)-Promethazine", "10H-Phenothiazine-10-ethanamine, N,N,\u03b1-trimethyl-", "Phenothiazine, 10-[2-(dimethylamino)propyl]-", "N,N,\u03b1-Trimethyl-10H-phenothiazine-10-ethanamine", "Dimapp", "(2-Dimethylamino-2-methyl)ethyl-N-dibenzoparathiazine", "10-[2-(Dimethylamino)propyl]phenothiazine", "Proazamine", "Procit", "Promethazine", "Vallergine", "RP 3277", "Prothazin", "Diphergan", "Protazine", "(\u00b1)-Promethazine", "Prometazin", "NSC 30321", "MeSH ID: D011398"], "SMILES": "C(C(N(C)C)C)N1C=2C(SC=3C1=CC=CC3)=CC=CC2", "physical_data": {"Molecular Weight": "284.42", "Molecular Formula": "C17H20N2S", "Boiling Point": "190-192 \u00b0C @ Press: 3 Torr", "Melting Point": "60 \u00b0C"}}