{"cas_no": "60-80-0", "cn_name": "\u5b89\u66ff\u6bd4\u6797", "en_name": ["Antipyrine", "3H-Pyrazol-3-one, 1,2-dihydro-1,5-dimethyl-2-phenyl-", "Antipyrine", "1,2-Dihydro-1,5-dimethyl-2-phenyl-3H-pyrazol-3-one", "Analgesine", "Anodynine", "Dimethyloxychinizin", "Dimethyloxyquinazine", "2,3-Dimethyl-1-phenyl-3-pyrazolin-5-one", "2,3-Dimethyl-1-phenyl-5-pyrazolone", "Fenazone", "Oxydimethylquinazine", "Parodyne", "Phenazone", "1-Phenyl-2,3-dimethyl-5-pyrazolone", "Sedatine", "Phenazone (pharmaceutical)", "Azophen", "Phenylone", "Antipyrin", "Phenazon", "Antipirin", "Phenylon", "Anodynin", "Pyrazophyl", "Sedatin", "Methozin", "Apirelina", "Azophene", "Analgesin", "Dentigoa N", "Eu-Med mono", "1,5-Dimethyl-2-phenyl-1,2-dihydropyrazol-3-one", "NSC 7945", "1,5-Dimethyl-2-phenyl-1,2-dihydro-3H-pyrazol-3-one", "1,5-Dimethyl-2-phenyl-2,3-dihydro-1H-pyrazol-3-one", "1,5-Dimethyl-2-phenylpyrazol-3-one", "1,5-Dimethyl-2-phenyl-1H-pyrazol-3(2H)-one", "MeSH ID: D000983"], "SMILES": "CN1N(C(=O)C=C1C)C2=CC=CC=C2", "physical_data": {"Molecular Weight": "188.23", "Molecular Formula": "C11H12N2O", "Boiling Point": "319 \u00b0C", "Melting Point": "113 \u00b0C", "Density": "1.19 g/cm\u00b3"}}