{"cas_no": "60-82-2", "cn_name": "\u6839\u76ae\u7d20", "en_name": ["Phloretin", "1-Propanone, 3-(4-hydroxyphenyl)-1-(2,4,6-trihydroxyphenyl)-", "Phloretin", "Propiophenone, 2\u2032,4\u2032,6\u2032-trihydroxy-3-(p-hydroxyphenyl)-", "3-(4-Hydroxyphenyl)-1-(2,4,6-trihydroxyphenyl)-1-propanone", "Dihydronaringenin", "\u03b2-(p-Hydroxyphenyl)phloropropiophenone", "\u03b2-(p-Hydroxyphenyl)-2,4,6-trihydroxypropiophenone", "Phloretol", "2\u2032,4\u2032,6\u2032-Trihydroxy-3-(p-hydroxyphenyl)propiophenone", "NSC 407292", "Naringenin dihydrochalcone", "2\u2032,4\u2032,6\u2032-Trihydroxy-3-(4-Hydroxyphenyl)propiophenone", "RJC 02792", "\u03b1,\u03b2-Dihydrochalconaringenin", "MeSH ID: D010693"], "SMILES": "C(CCC1=CC=C(O)C=C1)(=O)C2=C(O)C=C(O)C=C2O", "physical_data": {"Molecular Weight": "274.27", "Molecular Formula": "C15H14O5", "Melting Point": "263.5 \u00b0C (decomp)"}}