{"cas_no": "60-81-1", "cn_name": "\u6839\u76ae\u82f7", "en_name": ["Phloridzin", "1-Propanone, 1-[2-(\u03b2-D-glucopyranosyloxy)-4,6-dihydroxyphenyl]-3-(4-hydroxyphenyl)-", "Phlorizin", "1-[2-(\u03b2-D-Glucopyranosyloxy)-4,6-dihydroxyphenyl]-3-(4-hydroxyphenyl)-1-propanone", "Phlorhizin", "Phloridzin", "Phlorizoside", "Phlorrhizin", "Phlorizine", "Floridzin", "Phloretin 2\u2032-glucoside", "Phloridzosid", "NSC 2833", "Phloretin 2\u2032-O-glucoside", "Phloretin 2\u2032-O-\u03b2-D-glucopyranoside", "Phloretin 2\u2032-\u03b2-D-Glucoside", "Dihydrochalcone 2\u2032-\u03b2-D-glucopyranoside", "Phloretin glucoside"], "SMILES": "C(CCC1=CC=C(O)C=C1)(=O)C2=C(OC3OC(CO)C(O)C(O)C3O)C=C(O)C=C2O", "physical_data": {"Molecular Weight": "436.41", "Molecular Formula": "C21H24O10", "Melting Point": "110 \u00b0C", "Density": "1.452 g/cm\u00b3"}}