{"cas_no": "60-92-4", "cn_name": "\u73af\u78f7\u9178\u817a\u82f7", "en_name": ["cAMP", "Adenosine, cyclic 3\u2032,5\u2032-(hydrogen phosphate)", "Adenosine 3\u2032,5\u2032-cyclic phosphate", "4H-Furo[3,2-d]-1,3,2-dioxaphosphorin, adenosine deriv.", "3\u2032,5\u2032-AMP", "Adenosine cyclic 3\u2032,5\u2032-monophosphate", "Adenosine 3\u2032,5\u2032-cyclophosphate", "Adenosine 3\u2032,5\u2032-monophosphate", "Adenosine 3\u2032,5\u2032-phosphate", "Cyclic adenosine 3\u2032,5\u2032-phosphate", "Cyclic 3\u2032,5\u2032-adenylic acid", "Cyclic 3\u2032,5\u2032-monophosphate adenosine", "Cyclic-3\u2032,5\u2032-phosphate adenosine", "Cyclic AMP", "Cyclic adenosine 3\u2032,5\u2032-monophosphate", "Cyclic 3\u2032,5\u2032-AMP", "cAMP", "Adenosine cyclic monophosphate", "NSC 143670", "NSC 94017", "NQZ-026"], "SMILES": "OC1C(N2C=3C(N=C2)=C(N)N=CN3)OC4C1OP(=O)(O)OC4", "physical_data": {"Molecular Weight": "329.21", "Molecular Formula": "C10H12N5O6P", "Melting Point": "219-220 \u00b0C"}}