{"cas_no": "600-36-2", "cn_name": "2,4-\u4e8c\u7532\u57fa-3-\u620a\u9187", "en_name": ["2,4-Dimethyl-3-pentanol", "3-Pentanol, 2,4-dimethyl-", "2,4-Dimethyl-3-pentanol", "Diisopropylcarbinol", "2,4-Dimethyl-3-hydroxypentane", "Diisopropylmethanol", "2,4-Dimethyl-3-pentyl alcohol", "Diisopropylmethyl alcohol", "NSC 8696"], "SMILES": "C(C(C)C)(C(C)C)O", "physical_data": {"Molecular Weight": "116.20", "Molecular Formula": "C7H16O", "Boiling Point": "138.7 \u00b0C", "Melting Point": "&lt;-70 \u00b0C", "Density": "0.8294 g/cm\u00b3 @ Temp: 20 \u00b0C"}}