{"cas_no": "600-15-7", "cn_name": "DL-2-\u7f9f\u57fa\u4e01\u9178", "en_name": ["2-Hydroxybutyric acid", "Butanoic acid, 2-hydroxy-", "Butyric acid, 2-hydroxy-, DL-", "Butanoic acid, 2-hydroxy-, (\u00b1)-", "2-Hydroxybutanoic acid", "DL-\u03b1-Hydroxybutyric acid", "DL-2-Hydroxybutanoic acid", "DL-2-Hydroxybutyric acid", "(\u00b1)-2-Hydroxybutyric acid", "(\u00b1)-2-Hydroxy-n-butyric acid", "(\u00b1)-2-Hydroxybutanoic acid", "2-Hydroxybutyric acid", "\u03b1-Hydroxy-n-butyric acid", "\u03b1-Hydroxybutyric acid", "\u03b1-Hydroxybutanoic acid", "(\u00b1)-\u03b1-Hydroxybutyric acid", "(RS)-2-Hydroxybutyric acid", "NSC 6495", "1-Hydroxypropane-1-carboxylic acid"], "SMILES": "C(C(O)=O)(CC)O", "physical_data": {"Molecular Weight": "104.10", "Molecular Formula": "C4H8O3", "Boiling Point": "104-106 \u00b0C @ Press: 20 Torr", "Melting Point": "44.2 \u00b0C"}}