{"cas_no": "600-14-6", "cn_name": "2,3-\u620a\u4e8c\u916e", "en_name": ["2,3-Pentanedione", "2,3-Pentanedione", "Acetylpropionyl", "NSC 7613"], "SMILES": "C(C(C)=O)(CC)=O", "physical_data": {"Molecular Weight": "100.12", "Molecular Formula": "C5H8O2", "Boiling Point": "108 \u00b0C", "Density": "0.9571 g/cm\u00b3 @ Temp: 17 \u00b0C"}}