{"cas_no": "600-57-7", "cn_name": "11B-\u7f9f\u5b55\u916e", "en_name": ["11\u03b2-Hydroxyprogesterone", "Pregn-4-ene-3,20-dione, 11-hydroxy-, (11\u03b2)-", "Pregn-4-ene-3,20-dione, 11\u03b2-hydroxy-", "(11\u03b2)-11-Hydroxypregn-4-ene-3,20-dione", "11\u03b2-Hydroxyprogesterone", "Pregn-4-en-11\u03b2-ol-3,20-dione", "11\u03b2-Hydroxy-4-pregnene-3,20-dione", "\u03944-Pregnene-11\u03b2-ol-3,20-dione", "Pregn-4-ene-11\u03b2-ol-3,20-dione", "21-Deoxycorticosterone", "U 1701", "NSC 15469", "11\u03b2-Hydroxy-P4"], "SMILES": "CC12C3C(C4C(C)(CC3O)C(C(C)=O)CC4)CCC1=CC(=O)CC2", "physical_data": {"Molecular Weight": "330.46", "Molecular Formula": "C21H30O3", "Melting Point": "186-188 \u00b0C"}}