{"cas_no": "600-00-0", "cn_name": "2-\u6eb4-2-\u7532\u57fa\u4e19\u9178\u4e59\u916f", "en_name": ["Ethyl 2-bromoisobutyrate", "Propanoic acid, 2-bromo-2-methyl-, ethyl ester", "Propionic acid, 2-bromo-2-methyl-, ethyl ester", "Isobutyric acid, \u03b1-bromo-, Et ester", "Ethyl \u03b1-bromoisobutyrate", "Ethyl 2-bromoisobutyrate", "Ethyl 2-bromo-2-methylpropionate", "\u03b1-Bromoisobutyric acid ethyl ester", "Ethyl 2-bromo-2-methylpropanoate", "Ethyl \u03b1-bromo-\u03b1-methylpropionate", "2-Bromo-2-methylpropionic acid ethyl ester", "2-Bromo-2-methylpropanoic acid ethyl ester", "NSC 402034", "NSC 9465", "2-Bromoisobutyric acid ethyl ester", "2-Bromoisobutanoic acid ethyl ester", "Ethyl 2-bromoisobutanoate", "Ethyl 2-bromisobutyrate", "Ebib", "Ethyl 2-methyl-2-bromopropionate", "Ethyl bromoisobutyrate"], "SMILES": "C(C(Br)(C)C)(OCC)=O", "physical_data": {"Molecular Weight": "195.05", "Molecular Formula": "C6H11BrO2", "Boiling Point": "163 \u00b0C"}}