{"cas_no": "600-05-5", "cn_name": "2,3-\u4e8c\u6eb4\u4e19\u9178", "en_name": ["2,3-Dibromopropionic acid", "Propanoic acid, 2,3-dibromo-", "Propionic acid, 2,3-dibromo-", "Propionic acid, \u03b1,\u03b2-dibromo-", "2,3-Dibromopropanoic acid", "\u03b1,\u03b2-Dibromopropionic acid", "2,3-Dibromopropionic acid", "(\u00b1)-2,3-Dibromopropionic acid", "NSC 175"], "SMILES": "C(C(O)=O)(CBr)Br", "physical_data": {"Molecular Weight": "231.87", "Molecular Formula": "C3H4Br2O2", "Boiling Point": "129 \u00b0C @ Press: 9 Torr", "Melting Point": "66.5 \u00b0C"}}