{"cas_no": "600-25-9", "cn_name": "1-\u6c2f-1-\u785d\u57fa\u4e19\u70f7", "en_name": ["1-Chloro-1-nitropropane", "Propane, 1-chloro-1-nitro-", "1-Chloro-1-nitropropane", "NSC 8409"], "SMILES": "C(N(=O)=O)(CC)Cl", "physical_data": {"Molecular Weight": "123.54", "Molecular Formula": "C3H6ClNO2", "Boiling Point": "142 \u00b0C", "Density": "1.209 g/cm\u00b3 @ Temp: 20 \u00b0C"}}