{"cas_no": "600-18-0", "cn_name": "2-\u916e\u4e01\u9178", "en_name": ["2-Oxobutanoic acid", "Butanoic acid, 2-oxo-", "Butyric acid, 2-oxo-", "2-Oxobutanoic acid", "Propionylformic acid", "\u03b1-Oxobutyric acid", "\u03b1-Oxo-n-butyric acid", "2-Oxobutyric acid", "\u03b1-Ketobutyric acid", "2-Ketobutyric acid", "\u03b1-keto-n-Butyric acid", "3-Methylpyruvic acid", "2-Oxo-n-butyric acid", "2-Ketobutanoic acid", "NSC 60533", "\u03b1-Oxobutanoic acid"], "SMILES": "C(C(O)=O)(CC)=O", "physical_data": {"Molecular Weight": "102.09", "Molecular Formula": "C4H6O3", "Boiling Point": "74-78 \u00b0C @ Press: 25 Torr", "Melting Point": "33 \u00b0C"}}