{"cas_no": "600-22-6", "cn_name": "\u4e19\u916e\u9178\u7532\u916f", "en_name": ["Methyl pyruvate", "Propanoic acid, 2-oxo-, methyl ester", "Pyruvic acid, methyl ester", "Methyl pyruvate", "Methylglyoxylic acid methyl ester", "Methyl 2-oxopropionate", "Methyl 2-oxopropanoate", "Methyl acetoformate", "NSC 65430", "2-Oxopropanoic acid methyl ester", "2-Oxopropionic acid methyl ester", "Pyroracemic acid methyl ester", "Methyl pyroracemate", "Methyl methoxycarbonyl ketone"], "SMILES": "C(C(C)=O)(OC)=O", "physical_data": {"Molecular Weight": "102.09", "Molecular Formula": "C4H6O3", "Boiling Point": "135.5 \u00b0C", "Melting Point": "-22 \u00b0C"}}