{"cas_no": "600-30-6", "cn_name": "2,3-\u4e8c\u6eb4\u4e01\u9178", "en_name": ["2,3-Dibromobutanoic acid", "Butanoic acid, 2,3-dibromo-", "Butyric acid, 2,3-dibromo-", "2,3-Dibromobutanoic acid", "2,3-Dibromobutyric acid", "\u03b1,\u03b2-Dibromobutanoic acid", "NSC 6207"], "SMILES": "C(C(Br)C)(C(O)=O)Br", "physical_data": {"Molecular Weight": "245.90", "Molecular Formula": "C4H6Br2O2", "Melting Point": "87 \u00b0C"}}