{"cas_no": "6000-00-6", "cn_name": "4-\u6eb4-2-\u4e01\u70ef\u9178\u7532\u916f", "en_name": ["Methyl (2E)-4-bromo-2-butenoate", "2-Butenoic acid, 4-bromo-, methyl ester, (2E)-", "Crotonic acid, 4-bromo-, methyl ester, (E)-", "2-Butenoic acid, 4-bromo-, methyl ester, (E)-", "Methyl (2E)-4-bromo-2-butenoate", "Methyl (E)-4-bromocrotonate", "Methyl (E)-4-bromo-2-butenoate", "Methyl trans-4-bromo-2-butenoate", "(2E)-4-Bromo-2-butenoic acid methyl ester", "trans-4-Bromobut-2-enoic acid methyl ester", "(E)-4-Bromobut-2-enoic acid methyl ester", "(E)-Methyl 4-bromocrotonate", "Methyl trans-4-bromocrotonate", "(E)-Methyl 4-bromobut-2-enoate", "(E)-Methyl 4-bromobut-2-enoate"], "SMILES": "C(C=CCBr)(OC)=O", "physical_data": {"Molecular Weight": "179.01", "Molecular Formula": "C5H7BrO2", "Boiling Point": "83-85 \u00b0C @ Press: 13 Torr"}}