{"cas_no": "6000-43-7", "cn_name": "\u7518\u6c28\u9178\u76d0\u9178\u76d0", "en_name": ["Aminoacetic acid hydrochloride", "Glycine, hydrochloride (1:1)", "Glycine, hydrochloride", "Glycocoll hydrochloride", "Aminoacetic acid hydrochloride", "Carboxymethanaminium chloride"], "SMILES": "C(CN)(O)=O.Cl", "physical_data": {"Molecular Weight": "", "Molecular Formula": "C2H5NO2.ClH", "Melting Point": "178 \u00b0C"}}