{"cas_no": "6001-87-2", "cn_name": "3-CHLOROPROPIONIC ACID METHYL ESTER", "en_name": ["Propanoic acid, 3-chloro-, methyl ester", "Propanoic acid, 3-chloro-, methyl ester", "Propionic acid, 3-chloro-, methyl ester", "Methyl 3-chloropropionate", "3-Chloropropionic acid methyl ester", "Methyl 3-chloropropanoate", "Methyl \u03b2-chloropropionate", "3-Chloropropanoic acid methyl ester", "NSC 70171"], "SMILES": "C(CCCl)(OC)=O", "physical_data": {"Molecular Weight": "122.55", "Molecular Formula": "C4H7ClO2", "Boiling Point": "156 \u00b0C", "Density": "1.1874 g/cm\u00b3 @ Temp: 12 \u00b0C"}}