{"cas_no": "6001-74-7", "cn_name": "\u6c2f\u7f8e\u567b\u5511\u76d0\u9178\u76d0", "en_name": ["Thiazole, 5-(2-chloroethyl)-4-methyl-, hydrochloride (1:1)", "Thiazole, 5-(2-chloroethyl)-4-methyl-, hydrochloride (1:1)", "Thiazole, 5-(2-chloroethyl)-4-methyl-, hydrochloride", "5-(2-Chloroethyl)-4-methylthiazole hydrochloride", "Clomethiazole hydrochloride", "Chlormethiazole hydrochloride", "2-(4-Methylthiazol-5-yl)ethyl chloride hydrochloride"], "SMILES": "C(CCl)C1=C(C)N=CS1.Cl", "physical_data": {"Molecular Weight": "", "Molecular Formula": "C6H8ClNS.ClH", "Melting Point": "130 \u00b0C"}}