{"cas_no": "6001-64-5", "cn_name": "1,1,1-\u4e09\u6c2f-2-\u7532\u57fa-2-\u4e19\u9187\u534a\u6c34\u5408\u7269", "en_name": ["1,1,1-Trichloro-2-methyl-2-propanol hemihydrate", "2-Propanol, 1,1,1-trichloro-2-methyl-, hydrate (2:1)", "2-Propanol, 1,1,1-trichloro-2-methyl-, hemihydrate", "1,1,1-Trichloro-2-methyl-2-propanol hemihydrate"], "SMILES": "C(C(Cl)(Cl)Cl)(C)(C)O.O", "physical_data": {"Molecular Weight": "", "Molecular Formula": "C4H7Cl3O.<sup>1</sup>/2H2O", "Melting Point": "78 \u00b0C"}}