{"cas_no": "6002-34-2", "cn_name": "\u53d4\u4e01\u57fa\u4e8c\u82ef\u57fa\u78f7", "en_name": ["tert-Butyldiphenylphosphine", "Phosphine, (1,1-dimethylethyl)diphenyl-", "Phosphine, tert-butyldiphenyl-", "(1,1-Dimethylethyl)diphenylphosphine", "tert-Butyldiphenylphosphine", "Diphenyl-tert-butylphosphine", "Diphenyl(1,1-dimethylethyl)phosphine", "Diphenyl(tert-butyl)phosphane", "NSC 244302", "Bis(tert-butyl)phenylphosphine"], "SMILES": "P(C(C)(C)C)(C1=CC=CC=C1)C2=CC=CC=C2", "physical_data": {"Molecular Weight": "242.30", "Molecular Formula": "C16H19P", "Boiling Point": "118-122 \u00b0C @ Press: 0.2 Torr"}}