{"cas_no": "6003-05-0", "cn_name": "L-\u4e19\u6c28\u9178\u76d0\u9178\u76d0", "en_name": ["L-Alanine, hydrochloride (1:1)", "L-Alanine, hydrochloride (1:1)", "Alanine, hydrochloride, L-", "L-Alanine, hydrochloride", "Alanine hydrochloride", "\u03b1-Alanine hydrochloride", "(S)-Alanine hydrochloride", "L-Alanine monohydrochloride"], "SMILES": "C(C(O)=O)(C)N.Cl", "physical_data": {"Molecular Weight": "", "Molecular Formula": "C3H7NO2.ClH", "Melting Point": "205 \u00b0C", "Density": "1.325 g/cm\u00b3"}}