{"cas_no": "6003-11-8", "cn_name": "1-\u7f9f\u57fa-2-\u7532\u6c27\u57fa\u84bd\u918c", "en_name": ["Alizarin 2-methyl ether", "9,10-Anthracenedione, 1-hydroxy-2-methoxy-", "Anthraquinone, 1-hydroxy-2-methoxy-", "1-Hydroxy-2-methoxy-9,10-anthracenedione", "Alizarin 2-methyl ether", "1-Hydroxy-2-methoxyanthraquinone"], "SMILES": "O=C1C=2C(C(=O)C=3C1=CC=CC3)=CC=C(OC)C2O", "physical_data": {"Molecular Weight": "254.24", "Molecular Formula": "C15H10O4", "Melting Point": "229-230 \u00b0C"}}