{"cas_no": "6004-24-6", "cn_name": "\u5341\u516d\u70f7\u57fa\u6c2f\u5316\u5421\u5576", "en_name": ["Cetylpyridinium chloride monohydrate", "Pyridinium, 1-hexadecyl-, chloride, hydrate (1:1:1)", "Pyridinium, 1-hexadecyl-, chloride, monohydrate", "Cetylpyridinium chloride monohydrate", "N-Hexadecylpyridinium chloride monohydrate", "N-Cetylpyridinium chloride monohydrate"], "SMILES": "C(CCCCCCCCCCCCCCC)[N+]=1C=CC=CC1.[Cl-].O", "physical_data": {"Molecular Weight": "", "Molecular Formula": "C21H38N.Cl.H2O", "Melting Point": "77-78 \u00b0C"}}