{"cas_no": "60061-68-9", "cn_name": "4-\u6eb4-3-\u7532\u57fa-5-(\u4e09\u6c1f\u7532\u57fa)-1H-\u5421\u5511", "en_name": ["4-Bromo-3-methyl-5-(trifluoromethyl)-1H-pyrazole", "1H-Pyrazole, 4-bromo-3-methyl-5-(trifluoromethyl)-", "4-Bromo-3-methyl-5-(trifluoromethyl)-1H-pyrazole", "4-Bromo-5-methyl-3-trifluoromethyl-2H-pyrazole", "4-Bromo-5-methyl-3-trifluoromethyl-1H-pyrazole"], "SMILES": "C(F)(F)(F)C1=C(Br)C(C)=NN1", "physical_data": {"Molecular Weight": "229.00", "Molecular Formula": "C5H4BrF3N2", "Melting Point": "89-90 \u00b0C"}}