{"cas_no": "6006-95-7", "cn_name": "\u5341\u4e94\u70f7\u57fa\u73af\u5df1\u70f7", "en_name": ["Pentadecylcyclohexane", "Cyclohexane, pentadecyl-", "Pentadecane, 1-cyclohexyl-", "Pentadecylcyclohexane", "n-Pentadecylcyclohexane", "1-Cyclohexylpentadecane"], "SMILES": "C(CCCCCCCCCCCCCC)C1CCCCC1", "physical_data": {"Molecular Weight": "294.56", "Molecular Formula": "C21H42", "Boiling Point": "373 \u00b0C", "Melting Point": "29 \u00b0C"}}