{"cas_no": "6006-65-1", "cn_name": "N,N-\u4e8c\u7532\u57fa\u7532\u9170\u80fa\u4e8c\u4e19\u57fa\u7f29\u919b", "en_name": ["N,N-Dimethyl-1,1-dipropoxymethanamine", "Methanamine, N,N-dimethyl-1,1-dipropoxy-", "Trimethylamine, 1,1-dipropoxy-", "N,N-Dimethyl-1,1-dipropoxymethanamine", "Dimethylformamide dipropyl acetal", "N,N-Dimethylformamide dipropyl acetal", "Propyl 8", "DMF dipropyl acetal"], "SMILES": "C(OCCC)(OCCC)N(C)C", "physical_data": {"Molecular Weight": "175.27", "Molecular Formula": "C9H21NO2", "Boiling Point": "96 \u00b0C @ Press: 50 Torr", "Density": "0.8537 g/cm\u00b3 @ Temp: 20 \u00b0C"}}