{"cas_no": "6006-82-2", "cn_name": "3,4-\u4e9a\u7532\u4e8c\u6c27\u57fa\u82ef\u4e59\u9187", "en_name": ["1,3-Benzodioxole-5-ethanol", "1,3-Benzodioxole-5-ethanol", "Phenethyl alcohol, 3,4-(methylenedioxy)-", "Homopiperonyl alcohol", "3,4-(Methylenedioxy)phenethyl alcohol", "2-(1,3-Benzodioxol-5-yl)ethanol", "2-(3,4-Methylenedioxyphenyl)ethanol", "2-(3,4-Methylenedioxyphenyl)ethyl alcohol", "2-(3,4-Methylenedioxyphenyl)-1-ethanol", "2-(1,3-Dioxaindan-5-yl)ethan-1-ol", "2-(2H-1,3-Benzodioxol-5-yl)ethan-1-ol", "2-(1,2-Methylenedioxybenzen-4-yl)ethanol"], "SMILES": "C(CO)C=1C=C2C(=CC1)OCO2", "physical_data": {"Molecular Weight": "166.17", "Molecular Formula": "C9H10O3", "Boiling Point": "120-122 \u00b0C @ Press: 2.5 Torr"}}