{"cas_no": "6006-33-3", "cn_name": "\u4e09\u7678\u74b0\u5df1\u70f7", "en_name": ["Tridecylcyclohexane", "Cyclohexane, tridecyl-", "Tridecane, 1-cyclohexyl-", "Tridecylcyclohexane", "1-Cyclohexyltridecane"], "SMILES": "C(CCCCCCCCCCCC)C1CCCCC1", "physical_data": {"Molecular Weight": "266.51", "Molecular Formula": "C19H38", "Boiling Point": "346 \u00b0C", "Melting Point": "18.5 \u00b0C"}}