{"cas_no": "6006-15-1", "cn_name": "\u4e8c\u4e59\u57fa\u5f02\u4e19\u57fa\u80fa", "en_name": ["N,N-Diethyl-2-propanamine", "2-Propanamine, N,N-diethyl-", "Triethylamine, 1-methyl-", "N,N-Diethyl-2-propanamine", "Diethylisopropylamine", "N,N-Diethylisopropylamine", "N-Isopropyldiethylamine"], "SMILES": "N(C(C)C)(CC)CC", "physical_data": {"Molecular Weight": "115.22", "Molecular Formula": "C7H17N", "Boiling Point": "108 \u00b0C", "Melting Point": "131-132 \u00b0C", "Density": "0.75 g/cm\u00b3"}}