{"cas_no": "6007-85-8", "cn_name": "3,4-\u567b\u5429\u4e8c\u7fa7\u9178\u9150", "en_name": ["1H,3H-Thieno[3,4-c]furan-1,3-dione", "1H,3H-Thieno[3,4-c]furan-1,3-dione", "3,4-Thiophenedicarboxylic anhydride", "3,4-Thiophenedicarboxylic acid anhydride", "NSC 241105", "Thieno[3,4-c]furan-1,3-dione"], "SMILES": "O=C1C=2C(C(=O)O1)=CSC2", "physical_data": {"Molecular Weight": "154.14", "Molecular Formula": "C6H2O3S", "Melting Point": "144.5-146.5 \u00b0C"}}