{"cas_no": "60079-22-3", "cn_name": "\u95e8\u51ac\u6c28\u9178\u9e1f\u6c28\u9178\u6742\u8d28", "en_name": ["L-\u03b2-Aspartyl-L-aspartic acid", "L-Aspartic acid, L-\u03b2-aspartyl-", "L-Aspartic acid, N-L-\u03b2-aspartyl-", "L-\u03b2-Aspartyl-L-aspartic acid", "\u03b2-Aspartyl aspartic acid", "NSC 120024"], "SMILES": "C(NC(CC(C(O)=O)N)=O)(CC(O)=O)C(O)=O", "physical_data": {"Molecular Weight": "248.19", "Molecular Formula": "C8H12N2O7", "Melting Point": "152-153 \u00b0C"}}