{"cas_no": "6007-26-7", "cn_name": "2-\u7532\u57fa-1,3-\u4e8c\u567b\u70f7", "en_name": ["2-Methyl-1,3-dithiane", "1,3-Dithiane, 2-methyl-", "m-Dithiane, 2-methyl-", "Acetaldehyde, cyclic trimethylene mercaptal", "2-Methyl-1,3-dithiane", "2-Methyl-m-dithiane", "2-Methyl-1,3-dithian", "NSC 249337"], "SMILES": "CC1SCCCS1", "physical_data": {"Molecular Weight": "134.26", "Molecular Formula": "C5H10S2", "Boiling Point": "66 \u00b0C @ Press: 5 Torr"}}