{"cas_no": "6008-36-2", "cn_name": "\u8f9b\u57fa\u82ef\u57fa\u916e", "en_name": ["Nonanophenone", "1-Nonanone, 1-phenyl-", "Nonanophenone", "Pelargonophenone", "1-Phenyl-1-nonanone", "Pelargonylbenzene", "Octyl phenyl ketone", "Nonanoylbenzene", "n-Octyl phenyl ketone"], "SMILES": "C(CCCCCCCC)(=O)C1=CC=CC=C1", "physical_data": {"Molecular Weight": "218.33", "Molecular Formula": "C15H22O", "Boiling Point": "298-330 \u00b0C", "Melting Point": "46 \u00b0C"}}