{"cas_no": "6009-70-7", "cn_name": "\u8349\u9178\u94f5", "en_name": ["Ammonium oxalate monohydrate", "Ethanedioic acid, ammonium salt, hydrate (1:2:1)", "Oxalic acid, diammonium salt, monohydrate", "Ethanedioic acid, diammonium salt, monohydrate", "Ammonium oxalate monohydrate", "Diammonium oxalate monohydrate", "Ammonium oxalate ((NH4)2C2O4) monohydrate"], "SMILES": "C(C(O)=O)(O)=O.N.O", "physical_data": {"Molecular Weight": "", "Molecular Formula": "C2H2O4.2H3N.H2O", "Melting Point": "75 \u00b0C (decomp)", "Density": "1.50 g/cm\u00b3"}}