{"cas_no": "601-79-6", "cn_name": "\u5f02\u4e19\u57fa\u4e19\u4e8c\u9178", "en_name": ["2-(1-Methylethyl)propanedioic acid", "Propanedioic acid, 2-(1-methylethyl)-", "Malonic acid, isopropyl-", "Propanedioic acid, (1-methylethyl)-", "2-(1-Methylethyl)propanedioic acid", "Isopropylmalonic acid", "\u03b1-Carboxyisovaleric acid", "NSC 1168", "NSC 120711", "2-Isopropylmalonic acid", "2-Propan-2-ylpropanedioic acid", "2-(Propan-2-yl)propanedioic acid"], "SMILES": "C(C(C)C)(C(O)=O)C(O)=O", "physical_data": {"Molecular Weight": "146.14", "Molecular Formula": "C6H10O4", "Melting Point": "87-88 \u00b0C"}}