{"cas_no": "601-57-0", "cn_name": "4-\u80c6\u753e\u70ef-3-\u916e", "en_name": ["Cholest-4-en-3-one", "Cholest-4-en-3-one", "\u03944-Cholesten-3-one", "\u03944-Cholestenone", "3-Oxocholest-4-ene", "Cholesterone", "(17\u03b2)-17-Octylandrost-4-en-3-one", "NSC 134926", "NSC 63000", "4-Cholestenone", "(+)-4-Cholesten-3-one", "4-Cholesten-3-one"], "SMILES": "CC12C(C3C(C4(C)C(CC3)=CC(=O)CC4)CC1)CCC2C(CCCC(C)C)C", "physical_data": {"Molecular Weight": "384.64", "Molecular Formula": "C27H44O", "Melting Point": "80 \u00b0C"}}