{"cas_no": "601-77-4", "cn_name": "\u4e9a\u785d\u57fa\u4e8c\u5f02\u4e19\u80fa", "en_name": ["Nitrosodiisopropylamine", "2-Propanamine, N-(1-methylethyl)-N-nitroso-", "Diethylamine, 1,1\u2032-dimethyl-N-nitroso-", "N-(1-Methylethyl)-N-nitroso-2-propanamine", "N-Nitrosodiisopropylamine", "Diisopropylnitrosamine", "Diisopropyl-N-nitrosamine", "Nitrosodiisopropylamine", "NSC 336", "N-Nitrodiisopropylamine", "DIPNA"], "SMILES": "N(C(C)C)(C(C)C)N=O", "physical_data": {"Molecular Weight": "130.19", "Molecular Formula": "C6H14N2O", "Boiling Point": "194.5 \u00b0C", "Melting Point": "48 \u00b0C"}}