{"cas_no": "601-99-0", "cn_name": "2-\u7f9f\u57fa-6-\u785d\u57fa\u82ef\u7532\u9178", "en_name": ["2-Hydroxy-6-nitrobenzoic acid", "Benzoic acid, 2-hydroxy-6-nitro-", "Salicylic acid, 6-nitro-", "2-Hydroxy-6-nitrobenzoic acid", "6-Nitrosalicylic acid"], "SMILES": "C(O)(=O)C1=C(N(=O)=O)C=CC=C1O", "physical_data": {"Molecular Weight": "183.12", "Molecular Formula": "C7H5NO5", "Melting Point": "145 \u00b0C"}}