{"cas_no": "601-54-7", "cn_name": "\u80c6\u753e\u916e", "en_name": ["Cholest-5-en-3-one", "Cholest-5-en-3-one", "\u03945-Cholesten-3-one", "3-Oxocholest-5-ene", "3-Ketocholesterol", "NSC 118979", "5-Cholestenone"], "SMILES": "CC12C(C3C(C4(C)C(=CC3)CC(=O)CC4)CC1)CCC2C(CCCC(C)C)C", "physical_data": {"Molecular Weight": "384.64", "Molecular Formula": "C27H44O", "Melting Point": "127 \u00b0C"}}