{"cas_no": "601-88-7", "cn_name": "2,6-\u4e8c\u6c2f\u785d\u57fa\u82ef", "en_name": ["1,3-Dichloro-2-nitrobenzene", "Benzene, 1,3-dichloro-2-nitro-", "1,3-Dichloro-2-nitrobenzene", "2,6-Dichloronitrobenzene", "2,6-Dichloro-1-nitrobenzene"], "SMILES": "N(=O)(=O)C1=C(Cl)C=CC=C1Cl", "physical_data": {"Molecular Weight": "192.00", "Molecular Formula": "C6H3Cl2NO2", "Boiling Point": "130 \u00b0C @ Press: 8.3 Torr", "Melting Point": "72.5 \u00b0C", "Density": "1.6 g/cm\u00b3"}}