{"cas_no": "601-89-8", "cn_name": "2-\u785d\u57fa\u95f4\u82ef\u4e8c\u915a", "en_name": ["2-Nitroresorcinol", "1,3-Benzenediol, 2-nitro-", "Resorcinol, 2-nitro-", "2-Nitro-1,3-benzenediol", "2-Nitroresorcinol", "1,3-Dihydroxy-2-nitrobenzene", "2,6-Dihydroxynitrobenzene", "NSC 1542"], "SMILES": "N(=O)(=O)C1=C(O)C=CC=C1O", "physical_data": {"Molecular Weight": "155.11", "Molecular Formula": "C6H5NO4", "Melting Point": "82 \u00b0C"}}