{"cas_no": "601-34-3", "cn_name": "\u80c6\u56fa\u9187\u68d5\u6988\u9178\u916f", "en_name": ["Cholesteryl palmitate", "Cholest-5-en-3-ol (3\u03b2)-, 3-hexadecanoate", "Cholesterol, palmitate", "Cholest-5-en-3-ol (3\u03b2)-, hexadecanoate", "Palmitic acid, cholesteryl ester", "Cholesteryl palmitate", "Cholesteryl hexadecanoate", "Hexadecanoic acid cholesteryl ester", "NSC 59692", "Cholest-5-en-3\u03b2-ol stearate", "5-Cholesten-3\u03b2-ol stearate", "Cholesterol hexadecanoate", "CE(16:0)"], "SMILES": "CC12C3C(C4C(C)(CC3)C(C(CCCC(C)C)C)CC4)CC=C1CC(OC(CCCCCCCCCCCCCCC)=O)CC2", "physical_data": {"Molecular Weight": "625.06", "Molecular Formula": "C43H76O2", "Melting Point": "79 \u00b0C"}}