{"cas_no": "601-87-6", "cn_name": "3-\u7532\u57fa-2-\u785d\u57fa\u82ef\u80fa", "en_name": ["3-Methyl-2-nitrobenzenamine", "Benzenamine, 3-methyl-2-nitro-", "m-Toluidine, 2-nitro-", "3-Methyl-2-nitrobenzenamine", "2-Nitro-3-methylaniline", "3-Methyl-2-nitroaniline", "3-Amino-2-nitrotoluene"], "SMILES": "N(=O)(=O)C1=C(C)C=CC=C1N", "physical_data": {"Molecular Weight": "152.15", "Molecular Formula": "C7H8N2O2", "Melting Point": "107-108 \u00b0C"}}