{"cas_no": "601-75-2", "cn_name": "\u4e59\u57fa\u4e19\u4e8c\u9178", "en_name": ["Ethylmalonic acid", "Propanedioic acid, 2-ethyl-", "Malonic acid, ethyl-", "Propanedioic acid, ethyl-", "2-Ethylpropanedioic acid", "1,1-Propanedicarboxylic acid", "Ethylmalonic acid", "\u03b1-Carboxybutyric acid", "NSC 96615", "2-Ethylmalonic acid"], "SMILES": "C(C(O)=O)(C(O)=O)CC", "physical_data": {"Molecular Weight": "132.11", "Molecular Formula": "C5H8O4", "Boiling Point": "180 \u00b0C", "Melting Point": "114 \u00b0C"}}