{"cas_no": "60102-29-6", "cn_name": "(R)-2-(3,4-\u4e8c\u6c22-7-\u7532\u6c27\u57fa-2H-1-\u82ef\u5e76\u5421\u5583-3-\u57fa)-5-\u7532\u6c27\u57fa\u82ef\u915a", "en_name": ["2-[(3R)-3,4-Dihydro-7-methoxy-2H-1-benzopyran-3-yl]-5-methoxyphenol", "Phenol, 2-[(3R)-3,4-dihydro-7-methoxy-2H-1-benzopyran-3-yl]-5-methoxy-", "Phenol, 2-(3,4-dihydro-7-methoxy-2H-1-benzopyran-3-yl)-5-methoxy-, (R)-", "2-[(3R)-3,4-Dihydro-7-methoxy-2H-1-benzopyran-3-yl]-5-methoxyphenol", "Isosativan", "(-)-Isosativan"], "SMILES": "OC1=C(C2CC=3C(OC2)=CC(OC)=CC3)C=CC(OC)=C1", "physical_data": {"Molecular Weight": "286.32", "Molecular Formula": "C17H18O4", "Melting Point": "152-154 \u00b0C"}}