{"cas_no": "60111-52-6", "cn_name": "\u4e09(\u4e59\u70ef\u57fa\u4e8c\u7532\u57fa\u7845\u6c27\u57fa)\u7532\u57fa\u7845\u70f7", "en_name": ["1,5-Diethenyl-3-[(ethenyldimethylsilyl)oxy]-1,1,3,5,5-pentamethyltrisiloxane", "Trisiloxane, 1,5-diethenyl-3-[(ethenyldimethylsilyl)oxy]-1,1,3,5,5-pentamethyl-", "1,5-Diethenyl-3-[(ethenyldimethylsilyl)oxy]-1,1,3,5,5-pentamethyltrisiloxane", "3-((Dimethyl(vinyl)silyl)oxy)-1,1,3,5,5-pentamethyl-1,5-divinyltrisiloxane"], "SMILES": "O([Si](O[Si](C=C)(C)C)(O[Si](C=C)(C)C)C)[Si](C=C)(C)C", "physical_data": {"Molecular Weight": "346.72", "Molecular Formula": "C13H30O3Si4", "Boiling Point": "135-140 \u00b0C @ Press: 50 Torr"}}