{"cas_no": "60111-54-8", "cn_name": "\u56db\u4e8c\u7532\u57fa\u4e59\u70ef\u57fa\u7845\u6c27\u57fa\u7845\u70f7", "en_name": ["Tetrakis(vinyldimethylsiloxy)silane", "Trisiloxane, 1,5-diethenyl-3,3-bis[(ethenyldimethylsilyl)oxy]-1,1,5,5-tetramethyl-", "1,5-Diethenyl-3,3-bis[(ethenyldimethylsilyl)oxy]-1,1,5,5-tetramethyltrisiloxane", "Tetrakis(vinyldimethylsiloxy)silane", "Tetrakis(vinyldimethylsilyloxy)silane", "SIT 7312.0", "Tetrakis(dimethylvinylsiloxy)silane"], "SMILES": "[Si](O[Si](C=C)(C)C)(O[Si](C=C)(C)C)(O[Si](C=C)(C)C)O[Si](C=C)(C)C", "physical_data": {"Molecular Weight": "432.88", "Molecular Formula": "C16H36O4Si5", "Boiling Point": "130-135 \u00b0C @ Press: 2 Torr"}}