{"cas_no": "60111-47-9", "cn_name": "\u4e09(\u4e59\u70ef\u57fa\u4e8c\u7532\u57fa\u7845\u6c27\u57fa)\u82ef\u57fa\u7845\u70f7", "en_name": ["1,5-Diethenyl-3-[(ethenyldimethylsilyl)oxy]-1,1,5,5-tetramethyl-3-phenyltrisiloxane", "Trisiloxane, 1,5-diethenyl-3-[(ethenyldimethylsilyl)oxy]-1,1,5,5-tetramethyl-3-phenyl-", "1,5-Diethenyl-3-[(ethenyldimethylsilyl)oxy]-1,1,5,5-tetramethyl-3-phenyltrisiloxane", "SIT-8725", "Phenyltris(dimethylvinylsiloxy)silane", "Tris(vinyldimethylsiloxy)phenylsilane"], "SMILES": "[Si](O[Si](C=C)(C)C)(O[Si](C=C)(C)C)(O[Si](C=C)(C)C)C1=CC=CC=C1", "physical_data": {"Molecular Weight": "408.79", "Molecular Formula": "C18H32O3Si4", "Boiling Point": "112-115 \u00b0C @ Press: 2 Torr", "Density": "0.950 g/cm\u00b3"}}