{"cas_no": "6011-14-9", "cn_name": "\u6c28\u57fa\u4e59\u8148\u76d0\u9178\u76d0", "en_name": ["Acetonitrile, 2-amino-, hydrochloride (1:1)", "Acetonitrile, 2-amino-, hydrochloride (1:1)", "Glycinonitrile, monohydrochloride", "Acetonitrile, amino-, monohydrochloride", "Aminoacetonitrile hydrochloride", "Aminoacetonitrile monohydrochloride", "Glycinonitrile hydrochloride", "2-Aminoacetonitrile hydrochloride", "\u03b1-Aminoacetonitrile hydrochloride", "Cyanomethanamine hydrochloride"], "SMILES": "C(C#N)N.Cl", "physical_data": {"Molecular Weight": "", "Molecular Formula": "C2H4N2.ClH", "Melting Point": "160-166 \u00b0C (decomp)"}}