{"cas_no": "6012-97-1", "cn_name": "\u56db\u6c2f\u567b\u5429", "en_name": ["2,3,4,5-Tetrachlorothiophene", "Thiophene, 2,3,4,5-tetrachloro-", "Thiophene, tetrachloro-", "2,3,4,5-Tetrachlorothiophene", "Tetrachlorothiophene", "Penphene", "Perchlorothiophene", "IF", "NSC 44615", "NSC 61442"], "SMILES": "ClC=1C(Cl)=C(Cl)SC1Cl", "physical_data": {"Molecular Weight": "221.92", "Molecular Formula": "C4Cl4S", "Boiling Point": "233.4 \u00b0C", "Melting Point": "30.5 \u00b0C"}}