{"cas_no": "60125-24-8", "cn_name": "3-(2-\u7532\u6c27\u57fa\u82ef\u57fa)-2-\u4e19\u70ef\u919b", "en_name": ["trans-2-Methoxycinnamaldehyde", "2-Propenal, 3-(2-methoxyphenyl)-, (2E)-", "2-Propenal, 3-(2-methoxyphenyl)-, (E)-", "(2E)-3-(2-Methoxyphenyl)-2-propenal", "(E)-2-Methoxycinnamaldehyde", "trans-2-Methoxycinnamaldehyde", "trans-o-Methoxycinnamaldehyde", "(E)-3-(2-Methoxyphenyl)-2-propenal", "(E)-3-(2-Methoxyphenyl)acrylaldehyde", "(E)-3-(2-Methoxyphenyl)propenal", "(E)-2-Methoxycinnamaldehyde", "(E)-3-(2-Methoxyphenyl)acrylaldehyde", "(E)-3-(2-Methoxyphenyl)acrolein", "(E)-3-(2-Methoxyphenyl)-2-propenal"], "SMILES": "C(=CC=O)C1=C(OC)C=CC=C1", "physical_data": {"Molecular Weight": "162.19", "Molecular Formula": "C10H10O2", "Melting Point": "146-147 \u00b0C"}}