{"cas_no": "60125-23-7", "cn_name": "3-(2-HYDROXYPHENYL)-2-PROPENAL", "en_name": ["(2E)-3-(2-Hydroxyphenyl)-2-propenal", "2-Propenal, 3-(2-hydroxyphenyl)-, (2E)-", "2-Propenal, 3-(2-hydroxyphenyl)-, (E)-", "(2E)-3-(2-Hydroxyphenyl)-2-propenal", "trans-2-Hydroxycinnamaldehyde", "(E)-3-(2-Hydroxyphenyl)acrylaldehyde", "o-Hydroxy-trans-cinnamaldehyde"], "SMILES": "C(=CC=O)C1=C(O)C=CC=C1", "physical_data": {"Molecular Weight": "148.16", "Molecular Formula": "C9H8O2", "Melting Point": "122-123 \u00b0C"}}