{"cas_no": "60142-96-3", "cn_name": "\u52a0\u5df4\u55b7\u4e01", "en_name": ["Gabapentin", "Cyclohexaneacetic acid, 1-(aminomethyl)-", "1-(Aminomethyl)cyclohexaneacetic acid", "Gabapentin", "CI 945", "Go 3450", "GOE 2450", "Neurontin", "GOE 3450", "Gabapen", "Bexal", "Gabamox", "Generis", "2-[1-(Aminomethyl)cyclohexyl]acetic acid", "Conventin", "Neuronyin", "Neuril", "Convalis", "Gabarone", "Gralise", "Nupentin", "Fanatrex", "Sigma G 154", "(1-Aminomethyl-cyclohexyl)-acetic acid"], "SMILES": "C(C(O)=O)C1(CN)CCCCC1", "physical_data": {"Molecular Weight": "171.24", "Molecular Formula": "C9H17NO2", "Melting Point": "162-166 \u00b0C"}}