{"cas_no": "60142-95-2", "cn_name": "\u52a0\u5df4\u55b7\u4e01\u76d0\u9178\u76d0", "en_name": ["Gabapentin hydrochloride", "Cyclohexaneacetic acid, 1-(aminomethyl)-, hydrochloride (1:1)", "Cyclohexaneacetic acid, 1-(aminomethyl)-, hydrochloride", "Gabapentin hydrochloride", "2-(1-(Aminomethyl)cyclohexyl)acetic acid hydrochloride"], "SMILES": "C(C(O)=O)C1(CN)CCCCC1.Cl", "physical_data": {"Molecular Weight": "", "Molecular Formula": "C9H17NO2.ClH", "Melting Point": "122-124 \u00b0C"}}