{"cas_no": "60144-53-8", "cn_name": "TERT-BUTYL 4-FLUOROPHENYLCARBAMATE", "en_name": ["Carbamic acid, N-(4-fluorophenyl)-, 1,1-dimethylethyl ester", "Carbamic acid, N-(4-fluorophenyl)-, 1,1-dimethylethyl ester", "Carbamic acid, (4-fluorophenyl)-, 1,1-dimethylethyl ester", "N-(tert-Butoxycarbonyl)-4-fluoroaniline", "(4-Fluorophenyl)carbamic acid tert-butyl ester", "N-Boc-4-fluoroaniline", "tert-Butyl (4-fluorophenyl)carbamate", "1,1-Dimethylethyl N-(4-fluorophenyl)carbamate", "tert-Butyl N-(4-fluorophenyl)carbamate"], "SMILES": "N(C(OC(C)(C)C)=O)C1=CC=C(F)C=C1", "physical_data": {"Molecular Weight": "211.23", "Molecular Formula": "C11H14FNO2", "Melting Point": "124-125 \u00b0C"}}