{"cas_no": "6014-42-2", "cn_name": "L-(+)-\u9f20\u674e\u7cd6", "en_name": ["\u03b1-L-Rhamnose", "\u03b1-L-Mannopyranose, 6-deoxy-", "Rhamnopyranose, \u03b1-L-", "6-Deoxy-\u03b1-L-mannopyranose", "\u03b1-L-Rhamnose", "\u03b1-L-Rhamnopyranose"], "SMILES": "OC1C(O)C(O)C(O)OC1C", "physical_data": {"Molecular Weight": "164.16", "Molecular Formula": "C6H12O5", "Melting Point": "238-240 \u00b0C"}}