{"cas_no": "60168-88-9", "cn_name": "\u6c2f\u82ef\u5627\u5576\u9187", "en_name": ["Fenarimol", "5-Pyrimidinemethanol, \u03b1-(2-chlorophenyl)-\u03b1-(4-chlorophenyl)-", "\u03b1-(2-Chlorophenyl)-\u03b1-(4-chlorophenyl)-5-pyrimidinemethanol", "Fenarimol", "EL 222", "Rubigan", "Fenari", "Rubigan SC", "(\u00b1)-Fenarimol"], "SMILES": "C(O)(C1=C(Cl)C=CC=C1)(C2=CC=C(Cl)C=C2)C=3C=NC=NC3", "physical_data": {"Molecular Weight": "331.20", "Molecular Formula": "C17H12Cl2N2O", "Melting Point": "118 \u00b0C", "Density": "1.40 g/cm\u00b3"}}