{"cas_no": "6017-21-6", "cn_name": "\u82ef\u57fa\u5076\u6c2e\u4e19\u4e8c\u8148", "en_name": ["2-(2-Phenyldiazenyl)propanedinitrile", "Propanedinitrile, 2-(2-phenyldiazenyl)-", "Malononitrile, (phenylazo)-", "Propanedinitrile, (phenylazo)-", "2-(2-Phenyldiazenyl)propanedinitrile", "(Phenylazo)malonitrile", "(Phenylazo)malononitrile", "NSC 263832", "2-(Phenyldiazenyl)malononitrile"], "SMILES": "N(=NC(C#N)C#N)C1=CC=CC=C1", "physical_data": {"Molecular Weight": "170.17", "Molecular Formula": "C9H6N4", "Melting Point": "144-145 \u00b0C"}}