{"cas_no": "6018-48-0", "cn_name": "4-\u6c28\u57fa-1-((2R,3R,4S,5R)-3,4-\u4e8c\u7f9f\u57fa-5-(\u7f9f\u7532\u57fa)\u56db\u6c22\u544b\u5583-2-\u57fa)\u5627\u5576-2(1H)-\u916e\u534a\u786b\u9178\u76d0", "en_name": ["Cytidine, sulfate (2:1) (salt)", "Cytidine, sulfate (2:1) (salt)", "Cytidine hemisulfate", "Cytidine sulfate", "Cytidinium sulfate (2:1)"], "SMILES": "OC1C(OC(CO)C1O)N2C(=O)N=C(N)C=C2.S(=O)(=O)(O)O", "physical_data": {"Molecular Weight": "", "Molecular Formula": "C9H13N3O5.<sup>1</sup>/2H2O4S", "Melting Point": "222-223 \u00b0C"}}