{"cas_no": "6018-41-3", "cn_name": "\u9999\u8c46\u7075\u9178\u7532\u916f", "en_name": ["Methyl coumalate", "2H-Pyran-5-carboxylic acid, 2-oxo-, methyl ester", "Glutaconic acid, 4-(hydroxymethylene)-, \u03b4-lactone, methyl ester", "Coumalic acid methyl ester", "Methyl coumalate", "5-(Carbomethoxy)-2-pyrone", "Methyl 2-oxo-2H-pyran-5-carboxylate", "Methyl 2-pyrone-5-carboxylate", "Methyl cumalate", "Cumalic acid methyl ester", "5-(Methoxycarbonyl)-2-pyrone", "NSC 137387", "NSC 34627", "Methyl 6-oxopyran-3-carboxylate"], "SMILES": "C(OC)(=O)C=1C=CC(=O)OC1", "physical_data": {"Molecular Weight": "154.12", "Molecular Formula": "C7H6O4", "Melting Point": "73-74 \u00b0C"}}