{"cas_no": "6018-55-9", "cn_name": "(D-)(R)-(-)-2,3-\u4e8c\u6c28\u57fa\u4e19\u9178\u76d0\u9178\u76d0", "en_name": ["Alanine, 3-amino-, hydrochloride (1:1)", "Alanine, 3-amino-, hydrochloride (1:1)", "DL-Alanine, 3-amino-, monohydrochloride", "Alanine, 3-amino-, monohydrochloride", "DL-2,3-Diaminopropionic acid hydrochloride", "2,3-Diaminopropionic acid hydrochloride", "2,3-Diaminopropionic acid monohydrochloride", "\u03b1,\u03b2-Diaminopropionic acid monohydrochloride", "DL-2,3-Diaminopropionic acid monohydrochloride", "2,3-Diaminopropanoic acid hydrochloride", "NSC 90287", "2,3-Diaminopropanoic acid monohydrochloride"], "SMILES": "C(C(O)=O)(CN)N.Cl", "physical_data": {"Molecular Weight": "", "Molecular Formula": "C3H8N2O2.ClH", "Melting Point": "245 \u00b0C (decomp)"}}