{"cas_no": "6018-28-6", "cn_name": "\u76d0\u9178\u69df\u6994\u6b21\u78b1", "en_name": ["Arecaidine hydrochloride", "3-Pyridinecarboxylic acid, 1,2,5,6-tetrahydro-1-methyl-, hydrochloride (1:1)", "Nicotinic acid, 1,2,5,6-tetrahydro-1-methyl-, hydrochloride", "Arecaidine hydrochloride", "3-Pyridinecarboxylic acid, 1,2,5,6-tetrahydro-1-methyl-, hydrochloride", "1-Methyl-1,2,5,6-tetrahydronicotinic acid hydrochloride", "1-Methyl-1,2,5,6-tetrahydropyridine-3-carboxylic acid hydrochloride"], "SMILES": "C(O)(=O)C=1CN(C)CCC1.Cl", "physical_data": {"Molecular Weight": "", "Molecular Formula": "C7H11NO2.ClH", "Melting Point": "250 \u00b0C (decomp)"}}