{"cas_no": "602-09-5", "cn_name": "1,1'-\u8054-2-\u8418\u915a", "en_name": ["BINOL", "[1,1\u2032-Binaphthalene]-2,2\u2032-diol", "1,1\u2032-Bi-2-naphthol", "2,2\u2032-Dihydroxy-1,1\u2032-binaphthyl", "2,2\u2032-Dihydroxy-1,1\u2032-dinaphthyl", "Bis-\u03b2-naphthol", "\u03b1-Binaphthyl-2,2\u2032-diol", "1,1\u2032-Bis-2-naphthol", "2,2\u2032-Dihydroxydinaphthyl", "2,2\u2032-Dihydroxy-1,1\u2032-binaphthalene", "2,2\u2032-Dinaphthol", "\u03b2-Binaphthol", "2,2\u2032-Dihydroxybinaphthalene", "1,1\u2032-Binaphthyl-2,2\u2032-diol", "1,1\u2032-Bi(\u03b2-naphthol)", "BINOL", "(\u00b1)-[1,1\u2032-Binaphthalene]-2,2\u2032-diol", "(\u00b1)-2,2\u2032-Dihydroxy-1,1\u2032-binaphthyl", "(\u00b1)-Bi-\u03b2-naphthol", "(\u00b1)-1,1\u2032-Bi-2-naphthol", "(\u00b1)-2,2\u2032-Dihydroxy-1,1\u2032-dinaphthyl", "(\u00b1)-2,2\u2032-Dihydroxy-1,1\u2032-binaphthalene", "Racemic 2,2\u2032-dihydroxy-1,1\u2032-binaphthyl", "(\u00b1)-1,1\u2032-Binaphthalene-2,2\u2032-diol", "(RS)-1,1\u2032-Bi-2-naphthol", "(\u00b1)-Binol", "(\u00b1)-1,1\u2032-Binaphthyl-2,2\u2032-diol", "NSC 27049", "(RS)-1,1\u2032-Bi-2,2\u2032-naphthol", "Rac-2,2\u2032-dihydroxy-1,1\u2032-binaphthyl", "(\u00b1)-1,1\u2032-Bis(2-naphthol)", "1-(2-Hydroxynaphthalen-1-yl)naphthalen-2-ol"], "SMILES": "OC1=C(C2=C(C=C1)C=CC=C2)C=3C4=C(C=CC3O)C=CC=C4", "physical_data": {"Molecular Weight": "286.32", "Molecular Formula": "C20H14O2", "Melting Point": "219 \u00b0C"}}