{"cas_no": "602-87-9", "cn_name": "5-\u785d\u57fa\u82ca", "en_name": ["5-Nitroacenaphthene", "Acenaphthylene, 1,2-dihydro-5-nitro-", "Acenaphthene, 5-nitro-", "1,2-Dihydro-5-nitroacenaphthylene", "5-Nitroacenaphthene", "NSC 1312", "NSC 22421"], "SMILES": "N(=O)(=O)C1=C2C3=C(C=C1)CCC3=CC=C2", "physical_data": {"Molecular Weight": "199.21", "Molecular Formula": "C12H9NO2", "Melting Point": "102-103 \u00b0C"}}