{"cas_no": "602-85-7", "cn_name": "\u9ea6\u89d2\u9187", "en_name": ["Lysergol", "Ergoline-8-methanol, 9,10-didehydro-6-methyl-, (8\u03b2)-", "Ergoline-8\u03b2-methanol, 9,10-didehydro-6-methyl-", "Lysergol", "Indolo[4,3-fg]quinoline, ergoline-8-methanol deriv.", "(8\u03b2)-9,10-Didehydro-6-methylergoline-8-methanol", "NSC 196867", "(+)-Lysergol"], "SMILES": "CN1C2C(C=3C=4C(C2)=CNC4C=CC3)=CC(CO)C1", "physical_data": {"Molecular Weight": "254.33", "Molecular Formula": "C16H18N2O", "Melting Point": "253-255 \u00b0C"}}