{"cas_no": "602-01-7", "cn_name": "2,3-\u4e8c\u785d\u57fa\u7532\u82ef", "en_name": ["2,3-Dinitrotoluene", "Benzene, 1-methyl-2,3-dinitro-", "Toluene, 2,3-dinitro-", "1-Methyl-2,3-dinitrobenzene", "2,3-Dinitrotoluene", "2,3-DNT", "2,3-Dinitrotoluol"], "SMILES": "N(=O)(=O)C1=C(N(=O)=O)C=CC=C1C", "physical_data": {"Molecular Weight": "182.13", "Molecular Formula": "C7H6N2O4", "Boiling Point": "284 \u00b0C", "Melting Point": "59-61 \u00b0C", "Density": "1.3 g/cm\u00b3"}}