{"cas_no": "602-94-8", "cn_name": "2,3,4,5,6-\u4e94\u6c1f\u82ef\u7532\u9178", "en_name": ["Pentafluorobenzoic acid", "Benzoic acid, 2,3,4,5,6-pentafluoro-", "Benzoic acid, pentafluoro-", "2,3,4,5,6-Pentafluorobenzoic acid", "Pentafluorobenzoic acid", "Perfluorobenzoic acid", "NSC 88337"], "SMILES": "C(O)(=O)C1=C(F)C(F)=C(F)C(F)=C1F", "physical_data": {"Molecular Weight": "212.07", "Molecular Formula": "C7HF5O2", "Boiling Point": "220 \u00b0C", "Melting Point": "101 \u00b0C", "Density": "1.94 g/cm\u00b3"}}