{"cas_no": "602-60-8", "cn_name": "9-\u785d\u57fa\u84bd", "en_name": ["9-Nitroanthracene", "Anthracene, 9-nitro-", "9-Nitroanthracene", "5-Nitroanthracene", "NSC 47175"], "SMILES": "N(=O)(=O)C=1C2=C(C=C3C1C=CC=C3)C=CC=C2", "physical_data": {"Molecular Weight": "223.23", "Molecular Formula": "C14H9NO2", "Boiling Point": "275 \u00b0C", "Melting Point": "146 \u00b0C"}}