{"cas_no": "602-64-2", "cn_name": "\u9178\u68d5", "en_name": ["Anthragallol", "9,10-Anthracenedione, 1,2,3-trihydroxy-", "Anthraquinone, 1,2,3-trihydroxy-", "Anthragallol", "1,2,3-Trihydroxy-9,10-anthracenedione", "C.I. 58200", "Alizarine Brown R", "Alizarine Brown HD", "Anthracene Brown G", "Anthracene Brown N", "Anthracene Brown S", "Anthracene Brown FD", "Anthracene Brown FF", "Anthracene Brown WH", "Anthracene Brown WL", "Anthracene Printing Brown", "Antracromo Brown D", "Chrome Fast Brown FC", "C.I. Mordant Brown 42", "Mitsui Anthracene Brown", "1,2,3-Trihydroxyanthraquinone", "Antragallol", "NSC 31754", "1,2,3-Trihydroxy-9,10-anthraquinone", "1,2,3-Trihydroxy-9,10-dihydroanthracene-9,10-dione", "9,10-Anthraquinone-1,2,3-triol"], "SMILES": "O=C1C=2C(C(=O)C=3C1=CC=CC3)=CC(O)=C(O)C2O", "physical_data": {"Molecular Weight": "256.21", "Molecular Formula": "C14H8O5", "Melting Point": "313 \u00b0C"}}