{"cas_no": "602-56-2", "cn_name": "9-\u82ef\u57fa\u5416\u5576", "en_name": ["9-Phenylacridine", "Acridine, 9-phenyl-", "9-Phenylacridine", "NSC 62730", "9PA"], "SMILES": "C=1(C2=C(N=C3C1C=CC=C3)C=CC=C2)C4=CC=CC=C4", "physical_data": {"Molecular Weight": "255.31", "Molecular Formula": "C19H13N", "Boiling Point": "404 \u00b0C", "Melting Point": "184 \u00b0C"}}