{"cas_no": "602-55-1", "cn_name": "9-\u82ef\u57fa\u84bd", "en_name": ["9-Phenylanthracene", "Anthracene, 9-phenyl-", "9-Phenylanthracene", "NSC 90796", "P 0138"], "SMILES": "C=1(C2=C(C=C3C1C=CC=C3)C=CC=C2)C4=CC=CC=C4", "physical_data": {"Molecular Weight": "254.33", "Molecular Formula": "C20H14", "Boiling Point": "417 \u00b0C", "Melting Point": "156 \u00b0C"}}