{"cas_no": "602-38-0", "cn_name": "1,8-\u4e8c\u785d\u57fa\u8418", "en_name": ["1,8-Dinitronaphthalene", "Naphthalene, 1,8-dinitro-", "1,8-Dinitronaphthalene", "NSC 6323"], "SMILES": "N(=O)(=O)C=1C=2C(N(=O)=O)=CC=CC2C=CC1", "physical_data": {"Molecular Weight": "218.17", "Molecular Formula": "C10H6N2O4", "Melting Point": "173 \u00b0C", "Density": "1.46 g/cm\u00b3"}}