{"cas_no": "602-07-3", "cn_name": "\u5854\u65af\u54c1\u78b1", "en_name": ["Taspine", "[1]Benzopyrano[5,4,3-cde][1]benzopyran-5,10-dione, 1-[2-(dimethylamino)ethyl]-3,8-dimethoxy-", "Thaspine", "1-[2-(Dimethylamino)ethyl]-3,8-dimethoxy[1]benzopyrano[5,4,3-cde][1]benzopyran-5,10-dione", "Taspine", "Taspin", "NSC 688259"], "SMILES": "C(CN(C)C)C1=C2C=3C4=C(C(OC)=CC=C4C(=O)OC3C(OC)=C1)OC2=O", "physical_data": {"Molecular Weight": "369.37", "Molecular Formula": "C20H19NO6", "Melting Point": "372-374 \u00b0C (decomp)"}}