{"cas_no": "602-99-3", "cn_name": "2\uff0c4\uff0c6-\u4e09\u785d\u57fa\u95f4\u7532\u915a", "en_name": ["Trinitro-m-cresol", "Phenol, 3-methyl-2,4,6-trinitro-", "m-Cresol, 2,4,6-trinitro-", "3-Methyl-2,4,6-trinitrophenol", "3-Methylpicric acid", "Methylpicric acid", "2,4,6-Trinitro-3-methylphenol", "2,4,6-Trinitro-m-cresol", "Trinitro-m-cresol", "Trinitro-m-cresolic acid", "TNCr", "1-Hydroxy-3-methyl-2,4,6-trinitrobenzene", "NSC 3182", "1-Methyl-3-hydroxy-2,4,6-trinitrobenzene"], "SMILES": "N(=O)(=O)C1=C(C)C(N(=O)=O)=CC(N(=O)=O)=C1O", "physical_data": {"Molecular Weight": "243.13", "Molecular Formula": "C7H5N3O7", "Melting Point": "109.5 \u00b0C"}}