{"cas_no": "602-41-5", "cn_name": "\u786b\u79cb\u6c34\u4ed9\u82f7", "en_name": ["Thiocolchicoside", "Acetamide, N-[(7S)-3-(\u03b2-D-glucopyranosyloxy)-5,6,7,9-tetrahydro-1,2-dimethoxy-10-(methylthio)-9-oxobenzo[a]heptalen-7-yl]-", "Colchicoside, 10-thio-", "Acetamide, N-[3-(\u03b2-D-glucopyranosyloxy)-5,6,7,9-tetrahydro-1,2-dimethoxy-10-(methylthio)-9-oxobenzo[a]heptalen-7-yl]-, (S)-", "Colchicoside, thio-", "Benzo[a]heptalene, acetamide deriv.", "N-[(7S)-3-(\u03b2-D-Glucopyranosyloxy)-5,6,7,9-tetrahydro-1,2-dimethoxy-10-(methylthio)-9-oxobenzo[a]heptalen-7-yl]acetamide", "R 271", "Thiocolchicoside", "Coltramyl", "Muscoril", "2-Demethoxy-2-glucosidoxythiocolchicine", "Miorel", "Coltrax", "NSC 147755", "Miotens", "Thiocholshikoside", "Etoshine MR"], "SMILES": "O(C)C1=C2C=3C(C(NC(C)=O)CCC2=CC(OC4OC(CO)C(O)C(O)C4O)=C1OC)=CC(=O)C(SC)=CC3", "physical_data": {"Molecular Weight": "563.62", "Molecular Formula": "C27H33NO10S", "Melting Point": "220 \u00b0C (decomp)"}}