{"cas_no": "60200-06-8", "cn_name": "\u514b\u6d1b\u7d22\u9686", "en_name": ["Clorsulon", "1,3-Benzenedisulfonamide, 4-amino-6-(1,2,2-trichloroethenyl)-", "1,3-Benzenedisulfonamide, 4-amino-6-(trichloroethenyl)-", "4-Amino-6-(1,2,2-trichloroethenyl)-1,3-benzenedisulfonamide", "4-Amino-6-(trichloroethenyl)-1,3-benzenedisulfonamide", "L 631529", "MK 401", "Clorsulon", "Curatrem"], "SMILES": "C(=C(Cl)Cl)(Cl)C1=C(S(N)(=O)=O)C=C(S(N)(=O)=O)C(N)=C1", "physical_data": {"Molecular Weight": "380.66", "Molecular Formula": "C8H8Cl3N3O4S2", "Melting Point": "203 \u00b0C"}}