{"cas_no": "60207-90-1", "cn_name": "\u4e19\u73af\u5511", "en_name": ["Propiconazole", "1H-1,2,4-Triazole, 1-[[2-(2,4-dichlorophenyl)-4-propyl-1,3-dioxolan-2-yl]methyl]-", "1-[[2-(2,4-Dichlorophenyl)-4-propyl-1,3-dioxolan-2-yl]methyl]-1H-1,2,4-triazole", "CGA 64250", "Propiconazole", "CGD 92710F", "Desmel", "Proconazole", "Tilt", "Tilt 125", "Wocosin 50TK", "Wocosin", "Radar (insecticide)", "Cane Sett Treatment", "Juno", "Juno (pesticide)", "Radar", "Busan 1292", "Mycostat P", "Bumper", "Bamper 25EC", "Bamper", "Banner Maxx", "Wocosen Technical", "Tilt Premium", "Microban S 2140", "S 2140", "Dhan", "Fertilome Liquid Systemic Fungicide", "Microban PZ", "Orbit", "Orbit (fungicide)", "Binghuanzuo", "Wocosen", "Wolsit KD 10", "Aidol SW 900", "Propimax", "1-[2-(2,4-Dichlorophenyl)-4-n-propyl-1,3-dioxolan-2-ylmethyl]-1H-1,2,4-triazole", "Woodtreat 10", "PPZ", "PPZ (fungicide)", "Tilt 3.6EC", "PropiMax 3.6EC", "Bumper 41.8EC", "Preventol A 12", "Bumper 250EC", "Biogard PPZ 250", "Biogard PPZ", "Banner Maxx II", "Procon-Z 14.3 L", "Procon-Z", "Utconazol", "Echion", "Preventol A 12TK50", "Marazo"], "SMILES": "C(C1(OC(CCC)CO1)C2=C(Cl)C=C(Cl)C=C2)N3C=NC=N3", "physical_data": {"Molecular Weight": "342.22", "Molecular Formula": "C15H17Cl2N3O2", "Boiling Point": "180 \u00b0C @ Press: 0.1 Torr", "Melting Point": "&lt;25 \u00b0C"}}