{"cas_no": "60207-31-0", "cn_name": "\u6c27\u73af\u5511", "en_name": ["Azaconazole", "1H-1,2,4-Triazole, 1-[[2-(2,4-dichlorophenyl)-1,3-dioxolan-2-yl]methyl]-", "1-[[2-(2,4-Dichlorophenyl)-1,3-dioxolan-2-yl]methyl]-1H-1,2,4-triazole", "Azoconazole", "Azaconazole", "Madurox", "R 28644", "Rodewod"], "SMILES": "C(C1(OCCO1)C2=C(Cl)C=C(Cl)C=C2)N3C=NC=N3", "physical_data": {"Molecular Weight": "300.14", "Molecular Formula": "C12H11Cl2N3O2", "Melting Point": "112.6 \u00b0C"}}