{"cas_no": "6020-18-4", "cn_name": "\u76d0\u9178\u9ec4\u8fde\u78b1", "en_name": ["Coptisine hydrochloride", "Bis[1,3]benzodioxolo[5,6-a:4\u2032,5\u2032-g]quinolizinium, 6,7-dihydro-, chloride (1:1)", "Bis[1,3]benzodioxolo[5,6-a:4\u2032,5\u2032-g]quinolizinium, 6,7-dihydro-, chloride", "Berbinium, 7,8,13,13a-tetradehydro-2,3:9,10-bis(methylenedioxy)-, chloride", "Coptisine chloride", "Coptisine hydrochloride"], "SMILES": "C1=2C=3C(=CC4=C(C3)OCO4)CC[N+]1=CC=5C(C2)=CC=C6C5OCO6.[Cl-]", "physical_data": {"Molecular Weight": "", "Molecular Formula": "C19H14NO4.Cl", "Melting Point": "218 \u00b0C"}}