{"cas_no": "60211-57-6", "cn_name": "3,5-\u4e8c\u6c2f\u82ef\u7532\u9187", "en_name": ["3,5-Dichlorobenzyl alcohol", "Benzenemethanol, 3,5-dichloro-", "3,5-Dichlorobenzenemethanol", "3,5-Dichlorobenzyl alcohol", "(3,5-Dichlorophenyl)methanol"], "SMILES": "C(O)C1=CC(Cl)=CC(Cl)=C1", "physical_data": {"Molecular Weight": "177.03", "Molecular Formula": "C7H6Cl2O", "Melting Point": "79-82 \u00b0C"}}