{"cas_no": "60218-41-9", "cn_name": "2-\u4e19\u57fa-2-\u620a\u70ef\u9178", "en_name": ["2-Propyl-2-pentenoic acid", "2-Pentenoic acid, 2-propyl-", "2-Propyl-2-pentenoic acid", "2-Propylpenten-2-oic acid", "2-Propyl-2-pentenoate"], "SMILES": "C(CCC)(=CCC)C(O)=O", "physical_data": {"Molecular Weight": "142.20", "Molecular Formula": "C8H14O2", "Melting Point": "36 \u00b0C"}}