{"cas_no": "6021-21-2", "cn_name": "2-(N-\u7532\u57fa\u6c2f\u4e59\u9170\u6c28)-5-\u6c2f\u4e8c\u82ef\u7532\u916e", "en_name": ["N-(2-Benzoyl-4-chlorophenyl)-2-chloro-N-methylacetamide", "Acetamide, N-(2-benzoyl-4-chlorophenyl)-2-chloro-N-methyl-", "Acetanilide, 2\u2032-benzoyl-2,4\u2032-dichloro-N-methyl-", "N-(2-Benzoyl-4-chlorophenyl)-2-chloro-N-methylacetamide", "5-Chloro-2-(2-chloro-N-methylacetamido)benzophenone", "N-Methyl-2\u2032-benzoyl-2,4\u2032-dichloroacetanilide"], "SMILES": "C(=O)(C1=C(N(C(CCl)=O)C)C=CC(Cl)=C1)C2=CC=CC=C2", "physical_data": {"Molecular Weight": "322.19", "Molecular Formula": "C16H13Cl2NO2", "Melting Point": "123-124 \u00b0C"}}