{"cas_no": "6024-85-7", "cn_name": "\u5ef6\u80e1\u7d22\u4e59\u7d20", "en_name": ["6H-Dibenzo[a,g]quinolizine, 5,8,13,13a-tetrahydro-2,3,9,10-tetramethoxy-, hydrochloride (1:1)", "6H-Dibenzo[a,g]quinolizine, 5,8,13,13a-tetrahydro-2,3,9,10-tetramethoxy-, hydrochloride (1:1)", "Berbine, 2,3,9,10-tetramethoxy-, hydrochloride, (\u00b1)-", "6H-Dibenzo[a,g]quinolizine, 5,8,13,13a-tetrahydro-2,3,9,10-tetramethoxy-, hydrochloride, (\u00b1)-", "6H-Dibenzo[a,g]quinolizine, 5,8,13,13a-tetrahydro-2,3,9,10-tetramethoxy-, hydrochloride", "dl-Tetrahydropalmatine hydrochloride", "Tetrahydropalmatine hydrochloride", "(\u00b1)-Tetrahydropalmatine hydrochloride", "NSC 132057", "NSC 209411"], "SMILES": "O(C)C=1C=C2C3N(CC=4C(C3)=CC=C(OC)C4OC)CCC2=CC1OC.Cl", "physical_data": {"Molecular Weight": "", "Molecular Formula": "C21H25NO4.ClH", "Melting Point": "222-223 \u00b0C (decomp)"}}