{"cas_no": "60252-41-7", "cn_name": "\u8bf1\u5bfc\u578b\u4e00\u6c27\u5316\u6c2e\u5408\u9176", "en_name": ["Nipecotic acid", "3-Piperidinecarboxylic acid", "Nipecotic acid", "Hexahydronicotinic acid", "3-Carboxypiperidine", "(\u00b1)-Nipecotic acid", "(\u00b1)-\u03b2-Homoproline", "DL-Nipecotic acid"], "SMILES": "C(O)(=O)C1CCCNC1", "physical_data": {"Molecular Weight": "129.16", "Molecular Formula": "C6H11NO2", "Melting Point": "261 \u00b0C (decomp)"}}