{"cas_no": "60252-79-1", "cn_name": "N-(4-\u6c1f\u82ef\u57fa)\u82ef\u57fa\u9a6c\u6765\u9170\u80fa", "en_name": ["4-[(4-Fluorophenyl)amino]-4-oxo-2-butenoic acid", "2-Butenoic acid, 4-[(4-fluorophenyl)amino]-4-oxo-", "4-[(4-Fluorophenyl)amino]-4-oxo-2-butenoic acid"], "SMILES": "N(C(C=CC(O)=O)=O)C1=CC=C(F)C=C1", "physical_data": {"Molecular Weight": "209.17", "Molecular Formula": "C10H8FNO3", "Melting Point": "211-212 \u00b0C"}}