{"cas_no": "6025-60-1", "cn_name": "1-2-\u6c28\u57fa\u82ef\u57fa\u5421\u54af", "en_name": ["1-(2-Aminophenyl)pyrrole", "Benzenamine, 2-(1H-pyrrol-1-yl)-", "Pyrrole, 1-(o-aminophenyl)-", "2-(1H-Pyrrol-1-yl)benzenamine", "N-(2-Aminophenyl)pyrrole", "1-(o-Aminophenyl)pyrrole", "1-(2-Aminophenyl)pyrrole", "o-(1-Pyrrolyl)aniline", "2-(1-Pyrrolyl)aniline", "2-(1H-Pyrrol-1-yl)phenylamine", "NSC 130753", "2-Pyrrol-1-ylphenylamine", "2-(1H-Pyrrol-1-yl)aniline"], "SMILES": "NC1=C(N2C=CC=C2)C=CC=C1", "physical_data": {"Molecular Weight": "158.20", "Molecular Formula": "C10H10N2", "Melting Point": "94-96 \u00b0C"}}