{"cas_no": "60263-54-9", "cn_name": "[1,1'-\u4e8c\u73af\u5df1\u57fa]-\u7fa7\u9178", "en_name": ["[1,1\u2032-Bicyclohexyl]-1-carboxylic acid", "[1,1\u2032-Bicyclohexyl]-1-carboxylic acid", "[Bicyclohexyl]-1-carboxylic acid"], "SMILES": "C(O)(=O)C1(CCCCC1)C2CCCCC2", "physical_data": {"Molecular Weight": "210.31", "Molecular Formula": "C13H22O2", "Boiling Point": "93-95 \u00b0C @ Press: 0.06 Torr", "Melting Point": "122-123 \u00b0C"}}