{"cas_no": "6027-21-0", "cn_name": "D-\u9ad8\u4e1d\u6c28\u9178", "en_name": ["D-Homoserine", "D-Homoserine", "Butyric acid, 2-amino-4-hydroxy-, D-", "NSC 206298", "(R)-2-Amino-4-hydroxybutanoic acid", "(2R)-2-Azaniumyl-4-hydroxybutanoate", "(2R)-2-Amino-4-hydroxybutanoic acid"], "SMILES": "C(CCO)(C(O)=O)N", "physical_data": {"Molecular Weight": "119.12", "Molecular Formula": "C4H9NO3", "Melting Point": "203 \u00b0C (decomp)"}}