{"cas_no": "60274-60-4", "cn_name": "1-\u6c2f-5-\u7898\u620a\u70f7", "en_name": ["1-Chloro-5-iodopentane", "Pentane, 1-chloro-5-iodo-", "1-Chloro-5-iodopentane", "5-Chloro-1-iodopentane", "1-Iodo-5-chloropentane"], "SMILES": "C(CCCl)CCI", "physical_data": {"Molecular Weight": "232.49", "Molecular Formula": "C5H10ClI", "Boiling Point": "75.8 \u00b0C @ Press: 4 Torr", "Density": "1.6731 g/cm\u00b3 @ Temp: 20 \u00b0C"}}