{"cas_no": "6027-91-4", "cn_name": "\u53bb\u7532\u69df\u6994\u6b21\u78b1", "en_name": ["3-Pyridinecarboxylic acid, 1,2,5,6-tetrahydro-, hydrochloride (1:1)", "3-Pyridinecarboxylic acid, 1,2,5,6-tetrahydro-, hydrochloride (1:1)", "Nicotinic acid, 1,2,5,6-tetrahydro-, hydrochloride", "Guvacine, hydrochloride", "3-Pyridinecarboxylic acid, 1,2,5,6-tetrahydro-, hydrochloride", "1,2,5,6-Tetrahydropyridine-3-carboxylic acid hydrochloride"], "SMILES": "C(O)(=O)C1=CCCNC1.Cl", "physical_data": {"Molecular Weight": "", "Molecular Formula": "C6H9NO2.ClH", "Melting Point": "316 \u00b0C (decomp)"}}