{"cas_no": "6027-13-0", "cn_name": "L-\u9ad8\u534a\u80f1\u6c28\u9178", "en_name": ["L-Homocysteine", "L-Homocysteine", "Butyric acid, 2-amino-4-mercapto-, L-", "Butanoic acid, 2-amino-4-mercapto-, (S)-", "2-Amino-4-mercapto-L-butyric acid", "Homocysteine", "(S)-2-Amino-4-mercaptobutanoic acid", "(S)-Homocysteine", "2-Amino-4-mercaptobutyric acid", "NSC 43117"], "SMILES": "C(CCS)(C(O)=O)N", "physical_data": {"Molecular Weight": "135.18", "Molecular Formula": "C4H9NO2S", "Melting Point": "232.5 \u00b0C"}}