{"cas_no": "6027-23-2", "cn_name": "\u5927\u9ea6\u82bd\u78b1\u76d0\u9178\u76d0", "en_name": ["Hordenine hydrochloride", "Phenol, 4-[2-(dimethylamino)ethyl]-, hydrochloride (1:1)", "Phenol, p-[2-(dimethylamino)ethyl]-, hydrochloride", "Phenol, 4-[2-(dimethylamino)ethyl]-, hydrochloride", "Hordenine hydrochloride", "N,N-Dimethyltyramine hydrochloride"], "SMILES": "C(CN(C)C)C1=CC=C(O)C=C1.Cl", "physical_data": {"Molecular Weight": "", "Molecular Formula": "C10H15NO.ClH", "Melting Point": "177-181 \u00b0C"}}