{"cas_no": "60270-33-9", "cn_name": "\u5c71\u5d5b\u9170\u80fa\u4e19\u57fa\u4e8c\u7532\u80fa", "en_name": ["Behenic acid dimethylaminopropylamide", "Docosanamide, N-[3-(dimethylamino)propyl]-", "N-[3-(Dimethylamino)propyl]docosanamide", "Behenamidopropyldimethylamine", "Lexamine B 13", "Incromine BB", "N\u2032,N\u2032-Dimethyl-N-docosanoyl-1,3-diaminopropane", "Behenic acid dimethylaminopropylamide", "Tego Amid 22", "Catinal BMPA", "Amidet APA 22", "Beheniramidopropyl dimethylamine", "Incromine BD", "Nikkol Amidoamine MPB", "Farmin DM 220A", "Catinal BMPA(K)"], "SMILES": "C(CCCCCCCCCCCCCCCCCCCC)C(NCCCN(C)C)=O", "physical_data": {"Molecular Weight": "424.75", "Molecular Formula": "C27H56N2O", "Melting Point": "80 \u00b0C"}}