{"cas_no": "6027-89-0", "cn_name": "\u53e4\u6d1b\u7cd6", "en_name": ["L-Gulose", "L-Gulose", "Gulose, L-"], "SMILES": "C(C(C(C=O)O)O)(C(CO)O)O", "physical_data": {"Molecular Weight": "180.16", "Molecular Formula": "C6H12O6", "Melting Point": "&lt;25 \u00b0C"}}