{"cas_no": "60282-87-3", "cn_name": "\u5b55\u4e8c\u70ef\u916e", "en_name": ["Gestodene", "18,19-Dinorpregna-4,15-dien-20-yn-3-one, 13-ethyl-17-hydroxy-, (17\u03b1)-", "(17\u03b1)-13-Ethyl-17-hydroxy-18,19-dinorpregna-4,15-dien-20-yn-3-one", "Gestodene", "WL 70", "SHB 331", "Gestinol"], "SMILES": "C(C)C12C(C3C(CC1)C4C(CC3)=CC(=O)CC4)C=CC2(C#C)O", "physical_data": {"Molecular Weight": "310.43", "Molecular Formula": "C21H26O2", "Melting Point": "197.9 \u00b0C"}}