{"cas_no": "6028-89-3", "cn_name": "3-(2-\u567b\u5429\u57fa)-1-(\u5bf9-\u7532\u57fa\u82ef)-\u4e19\u57fa-2-\u70ef-1-\u916e", "en_name": ["1-(4-Methylphenyl)-3-(2-thienyl)-2-propen-1-one", "2-Propen-1-one, 1-(4-methylphenyl)-3-(2-thienyl)-", "Acrylophenone, 4\u2032-methyl-3-(2-thienyl)-", "1-(4-Methylphenyl)-3-(2-thienyl)-2-propen-1-one", "1-(4-Methylphenyl)-3-(thien-2-yl)-2-propen-1-one"], "SMILES": "C(C=CC1=CC=CS1)(=O)C2=CC=C(C)C=C2", "physical_data": {"Molecular Weight": "228.31", "Molecular Formula": "C14H12OS", "Melting Point": "79 \u00b0C"}}