{"cas_no": "60289-67-0", "cn_name": "1-(3-\u5421\u5576\u57fa)-1-\u4e19\u80fa", "en_name": ["\u03b1-Ethyl-3-pyridinemethanamine", "3-Pyridinemethanamine, \u03b1-ethyl-", "Pyridine, 3-(1-aminopropyl)-", "\u03b1-Ethyl-3-pyridinemethanamine", "1-Pyridin-3-ylpropylamine", "1-(3-Pyridyl)propan-1-amine", "1-(Pyridin-3-yl)propan-1-amine", "1-(3-Pyridyl)-1-propylamine", "1-Pyridin-3-ylpropan-1-amine"], "SMILES": "C(CC)(N)C=1C=CC=NC1", "physical_data": {"Molecular Weight": "136.19", "Molecular Formula": "C8H12N2", "Boiling Point": "105-108 \u00b0C @ Press: 12 Torr"}}