{"cas_no": "6028-61-1", "cn_name": "\u4e8c\u4e19\u57fa\u4e09\u786b\u919a", "en_name": ["Dipropyl trisulfide", "Trisulfide, dipropyl", "Propyl trisulfide", "Dipropyl trisulfide", "Di-n-propyl trisulfide", "1,3-Dipropyltrisulfane", "1-Propyltrithiopropane", "1-(Propyltrisulfanyl)propane"], "SMILES": "S(SCCC)SCCC", "physical_data": {"Molecular Weight": "182.37", "Molecular Formula": "C6H14S3", "Boiling Point": "69-72 \u00b0C @ Press: 1.6 Torr"}}