{"cas_no": "603-61-2", "cn_name": "\u67fd\u67f3\u9ec4\u7d20", "en_name": ["Tamarixetin", "4H-1-Benzopyran-4-one, 3,5,7-trihydroxy-2-(3-hydroxy-4-methoxyphenyl)-", "Flavone, 3,3\u2032,5,7-tetrahydroxy-4\u2032-methoxy-", "Tamaraxetin", "3,5,7-Trihydroxy-2-(3-hydroxy-4-methoxyphenyl)-4H-1-benzopyran-4-one", "4\u2032-Methylquercetin", "Tamarixetin", "Quercetin 4\u2032-methyl ether", "3,3\u2032,5,7-Tetrahydroxy-4\u2032-methoxyflavone", "4\u2032-O-Methylquercetin", "4\u2032-Methoxyquercetin", "3,5,7-Trihydroxy-2-(3-hydroxy-4-methoxyphenyl)chromen-4-one"], "SMILES": "O=C1C=2C(OC(=C1O)C3=CC(O)=C(OC)C=C3)=CC(O)=CC2O", "physical_data": {"Molecular Weight": "316.26", "Molecular Formula": "C16H12O7", "Melting Point": "259-260 \u00b0C"}}