{"cas_no": "603-40-7", "cn_name": "4,4'-\u4e8c\u6c28\u57fa\u4e09\u82ef\u7532\u70f7", "en_name": ["4,4\u2032-(Phenylmethylene)bis[benzenamine]", "Benzenamine, 4,4\u2032-(phenylmethylene)bis-", "Aniline, 4,4\u2032-benzylidenedi-", "Aniline, p,p\u2032-benzalbis-", "4,4\u2032-(Phenylmethylene)bis[benzenamine]", "4,4\u2032-Diaminotriphenylmethane", "4,4\u2032-(Phenylmethylene)bisaniline", "Tetradesmethyl leucomalachite green", "NSC 37196", "Bis(4-aminophenyl)phenylmethane", "4,4\u2032-Benzylidenedianiline", "4,4\u2032-(Phenylmethylene)dianiline"], "SMILES": "C(C1=CC=C(N)C=C1)(C2=CC=C(N)C=C2)C3=CC=CC=C3", "physical_data": {"Molecular Weight": "274.36", "Molecular Formula": "C19H18N2", "Melting Point": "139 \u00b0C"}}