{"cas_no": "603-71-4", "cn_name": "2-\u785d\u57fa\u95f4\u4e09\u7532\u82ef", "en_name": ["Nitromesitylene", "Benzene, 1,3,5-trimethyl-2-nitro-", "Mesitylene, 2-nitro-", "1,3,5-Trimethyl-2-nitrobenzene", "Nitromesitylene", "2,4,6-Trimethyl-1-nitrobenzene", "2-Nitromesitylene", "2,4,6-Trimethylnitrobenzene", "Mononitromesitylene", "2-Nitro-1,3,5-trimethylbenzene", "1-Nitro-2,4,6-trimethylbenzene", "3,5-Dimethyl-4-nitrotoluene", "NSC 5413"], "SMILES": "N(=O)(=O)C1=C(C)C=C(C)C=C1C", "physical_data": {"Molecular Weight": "165.19", "Molecular Formula": "C9H11NO2", "Boiling Point": "255 \u00b0C", "Melting Point": "44 \u00b0C", "Density": "1.176 g/cm\u00b3"}}