{"cas_no": "603-85-0", "cn_name": "2-\u6c28\u57fa-3-\u785d\u57fa\u82ef\u915a", "en_name": ["2-Amino-3-nitrophenol", "Phenol, 2-amino-3-nitro-", "2-Amino-3-nitrophenol", "3-Nitro-2-aminophenol", "2-Amino-3-hydroxynitrobenzene", "2-Hydroxy-6-nitroaniline"], "SMILES": "N(=O)(=O)C1=C(N)C(O)=CC=C1", "physical_data": {"Molecular Weight": "154.12", "Molecular Formula": "C6H6N2O3", "Melting Point": "216.5 \u00b0C"}}