{"cas_no": "603-52-1", "cn_name": "N,N-\u4e8c\u82ef\u57fa\u6c28\u57fa\u7532\u9178\u4e59\u916f", "en_name": ["Ethyl N,N-diphenylcarbamate", "Carbamic acid, N,N-diphenyl-, ethyl ester", "Carbamic acid, diphenyl-, ethyl ester", "Ethyl N,N-diphenylcarbamate", "Diphenylurethane", "Ethyl N,N-diphenyl carbamate", "Ethyl diphenylcarbamate", "NSC 3568"], "SMILES": "N(C(OCC)=O)(C1=CC=CC=C1)C2=CC=CC=C2", "physical_data": {"Molecular Weight": "241.29", "Molecular Formula": "C15H15NO2", "Boiling Point": "360 \u00b0C", "Melting Point": "72 \u00b0C"}}