{"cas_no": "603-36-1", "cn_name": "\u4e09\u82ef\u57fa\u9511", "en_name": ["Triphenylantimony", "Stibine, triphenyl-", "Triphenylstibine", "Triphenylantimony", "Triphenylstibane", "NSC 2844", "Sb(C6H5)3"], "SMILES": "[Sb](C1=CC=CC=C1)(C2=CC=CC=C2)C3=CC=CC=C3", "physical_data": {"Molecular Weight": "", "Molecular Formula": "C18H15Sb", "Boiling Point": "&gt;360 \u00b0C", "Melting Point": "53.5 \u00b0C", "Density": "1.4343 g/cm\u00b3"}}