{"cas_no": "603-35-0", "cn_name": "\u4e09\u82ef\u57fa\u81a6", "en_name": ["Triphenylphosphine", "Phosphine, triphenyl-", "Triphenylphosphine", "Triphenylphosphorus", "Triphenylphosphide", "PP 360", "P 100", "P 100 (accelerator)", "JC 263", "Triphenylphosphane", "TPP", "NSC 10", "NSC 215203", "EPCAT-P", "PP 200", "PPh3", "Hokko TPP", "T 0519", "Triphenyl phosphine"], "SMILES": "P(C1=CC=CC=C1)(C2=CC=CC=C2)C3=CC=CC=C3", "physical_data": {"Molecular Weight": "262.29", "Molecular Formula": "C18H15P", "Boiling Point": "&gt;360 \u00b0C", "Melting Point": "80.5 \u00b0C", "Density": "1.075 g/cm\u00b3 @ Temp: 80 \u00b0C"}}