{"cas_no": "603-67-8", "cn_name": "\u785d\u57fa\u4e19\u4e8c\u9178\u4e8c\u4e59\u916f", "en_name": ["1,3-Diethyl 2-nitropropanedioate", "Propanedioic acid, 2-nitro-, 1,3-diethyl ester", "Malonic acid, nitro-, diethyl ester", "Propanedioic acid, nitro-, diethyl ester", "1,3-Diethyl 2-nitropropanedioate", "Diethyl nitromalonate", "NSC 140874", "Diethyl 2-nitromalonate"], "SMILES": "C(C(OCC)=O)(C(OCC)=O)N(=O)=O", "physical_data": {"Molecular Weight": "205.17", "Molecular Formula": "C7H11NO6", "Boiling Point": "152-153 \u00b0C @ Press: 37-38 Torr"}}