{"cas_no": "603-56-5", "cn_name": "CHRYSOSPLENETIN", "en_name": ["Chrysosplenetin", "4H-1-Benzopyran-4-one, 5-hydroxy-2-(4-hydroxy-3-methoxyphenyl)-3,6,7-trimethoxy-", "Chrysosplenetin", "Flavone, 4\u2032,5-dihydroxy-3,3\u2032,6,7-tetramethoxy-", "5-Hydroxy-2-(4-hydroxy-3-methoxyphenyl)-3,6,7-trimethoxy-4H-1-benzopyran-4-one", "Chrysosplenol B", "5,4\u2032-Dihydroxy-3,6,7,3\u2032-tetramethoxyflavone", "Quercetagetin 3,6,7,3\u2032-tetramethyl ether", "3,6,7,3\u2032-Tetra-O-methylquercetagetin", "EMD 20940", "4\u2032,5-Dihydroxy-3,3\u2032,6,7-tetramethoxyflavone", "Polycladin", "Jaceidin 7-O-methyl ether", "Chrysosptertin B"], "SMILES": "O=C1C=2C(OC(=C1OC)C3=CC(OC)=C(O)C=C3)=CC(OC)=C(OC)C2O", "physical_data": {"Molecular Weight": "374.34", "Molecular Formula": "C19H18O8", "Melting Point": "203-205 \u00b0C"}}