{"cas_no": "603-69-0", "cn_name": "\u4e8c\u4e59\u9170\u4e59\u9178\u4e59\u916f", "en_name": ["Butanoic acid, 2-acetyl-3-oxo-, ethyl ester", "Butanoic acid, 2-acetyl-3-oxo-, ethyl ester", "Acetoacetic acid, 2-acetyl-, ethyl ester", "Ethyl diacetylacetate", "Ethyl 2-acetylacetoacetate", "Ethyl 2-acetyl-3-oxobutyrate", "Ethyl diacetoacetate", "NSC 345", "NSC 68058", "2-Acetyl-3-oxobutanoic acid ethyl ester", "2-Acetyl-3-oxobutyric acid ethyl ester", "Di(acetyl)acetic acid ethyl ester", "Ethyl 2-acetyl-3-oxobutanoate"], "SMILES": "C(C(OCC)=O)(C(C)=O)C(C)=O", "physical_data": {"Molecular Weight": "172.18", "Molecular Formula": "C8H12O4", "Boiling Point": "210 \u00b0C", "Density": "1.1045 g/cm\u00b3 @ Temp: 20 \u00b0C"}}