{"cas_no": "603-00-9", "cn_name": "\u7f9f\u4e19\u8336\u78b1", "en_name": ["Proxyphylline", "1H-Purine-2,6-dione, 3,7-dihydro-7-(2-hydroxypropyl)-1,3-dimethyl-", "Theophylline, 7-(2-hydroxypropyl)-", "3,7-Dihydro-7-(2-hydroxypropyl)-1,3-dimethyl-1H-purine-2,6-dione", "Brontyl", "1,3-Dimethyl-7-(2-hydroxypropyl)xanthine", "7-(\u03b2-Hydroxypropyl)theophylline", "Proxyphylline", "Purophyllin", "7-(2-Hydroxypropyl)theophylline", "Spasmolysin", "Hydroxypropyltheophylline", "2-Hydroxypropyl-7-theophylline", "Oxypropyltheophylline", "\u03b2-Hydroxypropyltheophylline", "Proxiphylline", "7-(\u03b2-Hydroxypropyl)-1,3-dimethylxanthine", "Theoden", "Sanwaphyllin", "Sigophyl", "Thean", "Monophylline", "2,6-Dioxo-3,7-dihydro-7-(2-hydroxypropyl)-1,3-dimethylpurine", "(\u00b1)-Proxyphyllin", "Proxy-Retardoral", "Theon", "Spantin", "NSC 163343"], "SMILES": "C(C(C)O)N1C2=C(N(C)C(=O)N(C)C2=O)N=C1", "physical_data": {"Molecular Weight": "238.24", "Molecular Formula": "C10H14N4O3", "Melting Point": "135.5 \u00b0C"}}