{"cas_no": "603-33-8", "cn_name": "\u4e09\u82ef\u57fa\u94cb", "en_name": ["Triphenylbismuth", "Bismuthine, triphenyl-", "Triphenylbismuthine", "Triphenylbismuth", "NSC 465", "TPB"], "SMILES": "[Bi](C1=CC=CC=C1)(C2=CC=CC=C2)C3=CC=CC=C3", "physical_data": {"Molecular Weight": "", "Molecular Formula": "C18H15Bi", "Boiling Point": "242 \u00b0C @ Press: 14 Torr", "Melting Point": "77.6 \u00b0C", "Density": "1.585 g/cm\u00b3"}}