{"cas_no": "603-83-8", "cn_name": "2-\u7532\u57fa-3-\u785d\u57fa\u82ef\u80fa", "en_name": ["2-Methyl-3-nitroaniline", "Benzenamine, 2-methyl-3-nitro-", "o-Toluidine, 3-nitro-", "2-Methyl-3-nitrobenzenamine", "2-Methyl-3-nitroaniline", "2-Amino-6-nitrotoluene", "3-Nitro-o-toluidine", "6-Nitro-2-aminotoluene", "6-Amino-2-nitrotoluene", "1-Amino-2-methyl-3-nitrobenzene", "NSC 227939", "NSC 25011", "2-Methyl-3-nitro-phenylamine"], "SMILES": "N(=O)(=O)C1=C(C)C(N)=CC=C1", "physical_data": {"Molecular Weight": "152.15", "Molecular Formula": "C7H8N2O2", "Boiling Point": "305 \u00b0C", "Melting Point": "92 \u00b0C"}}