{"cas_no": "603-48-5", "cn_name": "\u7ed3\u6676\u7d2b", "en_name": ["Leucocrystal Violet", "Benzenamine, 4,4\u2032,4\u2032\u2032-methylidynetris[N,N-dimethyl-", "Aniline, 4,4\u2032,4\u2032\u2032-methylidynetris[N,N-dimethyl-", "p,p\u2032,p\u2032\u2032-methylidynetris[N,N-dimethyl-Aniline", "4,4\u2032,4\u2032\u2032-Methylidynetris[N,N-dimethylbenzenamine]", "C.I. Basic Violet 3, leuco", "4,4\u2032,4\u2032\u2032-(Hexamethyltriamino)triphenylmethane", "Leucomethyl green", "Leucocrystal Violet", "4,4\u2032,4\u2032\u2032-Methylidynetris(N,N-dimethylaniline)", "Tris[4-(dimethylamino)phenyl]methane", "4,4\u2032,4\u2032\u2032-Tris(N,N-dimethylaminophenyl)methane", "Crystal violet leuco base", "Leucogentian violet", "Leuco Basic Violet 3", "A-DMA", "LCV", "NSC 7338", "Leuco Crystal Violet"], "SMILES": "C(C1=CC=C(N(C)C)C=C1)(C2=CC=C(N(C)C)C=C2)C3=CC=C(N(C)C)C=C3", "physical_data": {"Molecular Weight": "373.53", "Molecular Formula": "C25H31N3", "Melting Point": "173 \u00b0C"}}