{"cas_no": "603-79-2", "cn_name": "2,3-\u4e8c\u7532\u57fa\u82ef\u7532\u9178", "en_name": ["2,3-Dimethylbenzoic acid", "Benzoic acid, 2,3-dimethyl-", "2,3-Dimethylbenzoic acid", "Hemellitic acid", "NSC 407533"], "SMILES": "C(O)(=O)C1=C(C)C(C)=CC=C1", "physical_data": {"Molecular Weight": "150.17", "Molecular Formula": "C9H10O2", "Melting Point": "143-144 \u00b0C"}}