{"cas_no": "603-11-2", "cn_name": "3-\u785d\u57fa\u90bb\u82ef\u4e8c\u7532\u9178", "en_name": ["3-Nitrophthalic acid", "1,2-Benzenedicarboxylic acid, 3-nitro-", "Phthalic acid, 3-nitro-", "3-Nitro-1,2-benzenedicarboxylic acid", "3-Nitrophthalic acid", "m-Nitrophthalic acid", "o-Nitrophthalic acid", "NSC 3120"], "SMILES": "C(O)(=O)C1=C(C(O)=O)C=CC=C1N(=O)=O", "physical_data": {"Molecular Weight": "211.13", "Molecular Formula": "C8H5NO6", "Melting Point": "214 \u00b0C (decomp)"}}