{"cas_no": "603-81-6", "cn_name": "2,3-\u4e8c\u6c28\u57fa\u82ef\u7532\u9178", "en_name": ["2,3-Diaminobenzoic acid", "Benzoic acid, 2,3-diamino-", "2,3-Diaminobenzoic acid", "3-Carboxy-1,2-diaminobenzene", "3-Carboxy-o-phenylenediamine"], "SMILES": "C(O)(=O)C1=C(N)C(N)=CC=C1", "physical_data": {"Molecular Weight": "152.15", "Molecular Formula": "C7H8N2O2", "Melting Point": "189-190 \u00b0C"}}