{"cas_no": "603-41-8", "cn_name": "\u82c9\u53ef\u786b\u9178\u94a0\u6742\u8d28B", "en_name": ["4,4\u2032-Dihydroxydiphenyl(2-pyridyl)methane", "Phenol, 4,4\u2032-(2-pyridinylmethylene)bis-", "Phenol, 4,4\u2032-(2-pyridylmethylene)di-", "4,4\u2032-(2-Pyridinylmethylene)bis[phenol]", "Deacetylbisacodyl", "Bis(4-hydroxyphenyl)(2-pyridyl)methane", "La 96", "DDPM", "4,4\u2032-Dihydroxydiphenyl(2-pyridyl)methane", "DDPM (pharmaceutical)"], "SMILES": "C(C1=CC=C(O)C=C1)(C2=CC=C(O)C=C2)C3=CC=CC=N3", "physical_data": {"Molecular Weight": "277.32", "Molecular Formula": "C18H15NO2", "Melting Point": "215-220 \u00b0C"}}