{"cas_no": "603-45-2", "cn_name": "\u73ab\u7ea2\u9178", "en_name": ["Aurin", "2,5-Cyclohexadien-1-one, 4-[bis(4-hydroxyphenyl)methylene]-", "Aurin", "2,5-Cyclohexadien-1-one, 4-[bis(p-hydroxyphenyl)methylene]-", "4-[Bis(4-hydroxyphenyl)methylene]-2,5-cyclohexadien-1-one", "C.I. 43800", "Aurine", "Corallin", "Corallin Spirit Soluble", "4-(p,p\u2032-Dihydroxybenzhydrylidene)-2,5-cyclohexadien-1-one", "p-Rosolic acid", "Spirit Aurine", "Aurin 555", "4,4\u2032-Dihydroxyfuchsone", "Pararosolic acid", "Rosalic acid", "NSC 7805", "4-[Bis(p-hydroxyphenyl)methylene]-2,5-cyclohexadien-1-one"], "SMILES": "C(C1=CC=C(O)C=C1)(C2=CC=C(O)C=C2)=C3C=CC(=O)C=C3", "physical_data": {"Molecular Weight": "290.31", "Molecular Formula": "C19H14O3", "Melting Point": "309 \u00b0C (decomp)"}}