{"cas_no": "603-34-9", "cn_name": "\u4e09\u82ef\u80fa", "en_name": ["Triphenylamine", "Benzenamine, N,N-diphenyl-", "Triphenylamine", "N,N-Diphenylbenzenamine", "N,N-Diphenylaniline", "NSC 66458"], "SMILES": "N(C1=CC=CC=C1)(C2=CC=CC=C2)C3=CC=CC=C3", "physical_data": {"Molecular Weight": "245.32", "Molecular Formula": "C18H15N", "Boiling Point": "365 \u00b0C", "Melting Point": "127 \u00b0C", "Density": "0.774 g/cm\u00b3 @ Temp: 0 \u00b0C"}}