{"cas_no": "603-72-5", "cn_name": "1,8-\u8418\u78fa\u5185\u9170\u80fa", "en_name": ["2H-Naphth[1,8-cd]isothiazole, 1,1-dioxide", "2H-Naphth[1,8-cd]isothiazole, 1,1-dioxide", "1,8-Naphthosultam", "2H-Naphtho[1,8-cd]isothiazole 1,1-dioxide"], "SMILES": "O=S1(=O)C=2C3=C(N1)C=CC=C3C=CC2", "physical_data": {"Molecular Weight": "205.23", "Molecular Formula": "C10H7NO2S", "Melting Point": "177-178 \u00b0C"}}