{"cas_no": "603-78-1", "cn_name": "2,3-\u4e8c\u6eb4\u82ef\u7532\u9178", "en_name": ["2,3-Dibromobenzoic acid", "Benzoic acid, 2,3-dibromo-", "2,3-Dibromobenzoic acid"], "SMILES": "C(O)(=O)C1=C(Br)C(Br)=CC=C1", "physical_data": {"Molecular Weight": "279.91", "Molecular Formula": "C7H4Br2O2", "Melting Point": "144-148 \u00b0C"}}