{"cas_no": "603-32-7", "cn_name": "\u4e09\u82ef\u57fa\u80c2", "en_name": ["Triphenylarsine", "Arsine, triphenyl-", "Triphenylarsine", "Triphenylarsane", "NSC 478"], "SMILES": "[As](C1=CC=CC=C1)(C2=CC=CC=C2)C3=CC=CC=C3", "physical_data": {"Molecular Weight": "306.23", "Molecular Formula": "C18H15As", "Boiling Point": "360 \u00b0C", "Melting Point": "61 \u00b0C", "Density": "1.225 g/cm\u00b3"}}