{"cas_no": "603-62-3", "cn_name": "3-\u785d\u57fa\u90bb\u82ef\u4e8c\u7532\u9170\u4e9a\u80fa", "en_name": ["3-Nitrophthalimide", "1H-Isoindole-1,3(2H)-dione, 4-nitro-", "Phthalimide, 3-nitro-", "4-Nitro-1H-isoindole-1,3(2H)-dione", "3-Nitrophthalimide", "NSC 5393", "4-Nitro-1H-isoindole-1,3(2H)-dione", "4-Nitroisoindoline-1,3-dione"], "SMILES": "N(=O)(=O)C1=C2C(C(=O)NC2=O)=CC=C1", "physical_data": {"Molecular Weight": "192.13", "Molecular Formula": "C8H4N2O4", "Melting Point": "214 \u00b0C"}}