{"cas_no": "603-84-9", "cn_name": "2-\u6c2f-3-\u785d\u57fa\u82ef\u915a", "en_name": ["2-Chloro-3-nitrophenol", "Phenol, 2-chloro-3-nitro-", "2-Chloro-3-nitrophenol"], "SMILES": "N(=O)(=O)C1=C(Cl)C(O)=CC=C1", "physical_data": {"Molecular Weight": "173.55", "Molecular Formula": "C6H4ClNO3", "Melting Point": "120.5 \u00b0C"}}