{"cas_no": "603-51-0", "cn_name": "4,4-\u4e8c\u82ef\u6c28\u57fa\u8132", "en_name": ["N,N-Diphenylhydrazinecarboxamide", "Hydrazinecarboxamide, N,N-diphenyl-", "Semicarbazide, 4,4-diphenyl-", "N,N-Diphenylhydrazinecarboxamide", "4,4-Diphenylsemicarbazide", "NSC 47698", "NSC 8717", "3-Amino-1,1-diphenylurea"], "SMILES": "N(C(NN)=O)(C1=CC=CC=C1)C2=CC=CC=C2", "physical_data": {"Molecular Weight": "227.26", "Molecular Formula": "C13H13N3O", "Melting Point": "154 \u00b0C"}}