{"cas_no": "603-47-4", "cn_name": "\u7532\u57fa\u7d2b\u7f57\u5170", "en_name": ["Benzenamine, 4,4\u2032-[[4-(methylimino)-2,5-cyclohexadien-1-ylidene]methylene]bis[N,N-dimethyl-, hydrochloride (1:1)", "Benzenamine, 4,4\u2032-[[4-(methylimino)-2,5-cyclohexadien-1-ylidene]methylene]bis[N,N-dimethyl-, hydrochloride (1:1)", "Aniline, p-[[p-(dimethylamino)phenyl][4-(methylimino)-2,5-cyclohexadien-1-ylidene]methyl]-N,N-dimethyl-, monohydrochloride", "Benzenamine, 4-[[4-(dimethylamino)phenyl][4-(methylimino)-2,5-cyclohexadien-1-ylidene]methyl]-N,N-dimethyl-, monohydrochloride", "Pentamethyl pararosaniline chloride", "Methyl Violet 2BN200", "Gentian Violet B"], "SMILES": "C(C1=CC=C(N(C)C)C=C1)(C2=CC=C(N(C)C)C=C2)=C3C=CC(=NC)C=C3.Cl", "physical_data": {"Molecular Weight": "", "Molecular Formula": "C24H27N3.ClH", "Melting Point": "137 \u00b0C"}}