{"cas_no": "603-86-1", "cn_name": "2-\u6c2f-6-\u785d\u57fa\u82ef\u915a", "en_name": ["2-Chloro-6-nitrophenol", "Phenol, 2-chloro-6-nitro-", "2-Chloro-6-nitrophenol", "6-Chloro-2-nitrophenol", "NSC 28581"], "SMILES": "N(=O)(=O)C1=C(O)C(Cl)=CC=C1", "physical_data": {"Molecular Weight": "173.55", "Molecular Formula": "C6H4ClNO3", "Melting Point": "70 \u00b0C"}}