{"cas_no": "603-50-9", "cn_name": "\u6bd4\u6c99\u53ef\u5576", "en_name": ["Bisacodyl", "Phenol, 4,4\u2032-(2-pyridinylmethylene)bis-, 1,1\u2032-diacetate", "Phenol, 4,4\u2032-(2-pyridylmethylene)di-, diacetate (ester)", "Phenol, 4,4\u2032-(2-pyridinylmethylene)bis-, diacetate (ester)", "Phenol, 4,4\u2032-(2-pyridylmethylene)di-, diacetate", "Bis(p-acetoxyphenyl)-2-pyridylmethane", "Bisacodyl", "Dulcolan", "Dulcolax", "LA96a", "Laxans", "4,4\u2032-(2-Pyridylmethylene)diphenol diacetate", "Pyrilax", "Brocalax", "Telemin", "Nigalax", "Laco", "Laxadin", "Laxorex", "Durolax", "Perilax", "Hillcolax", "Ivilax", "Sanvacual", "Neolax", "Videx", "Zetrax", "Laxine", "Fenilaxan", "Bicol", "Theralax", "Godalax", "Endokolat", "Correctol Caplets", "Broxalax", "Laxanin N", "Contralax", "Stadalax", "Ulcol", "Correctol Tablets", "Feen-a-Mint Tablets", "SK-Bisacodyl", "DAMP", "Eulaxan", "NSC 614826", "Prepacol", "Fleet", "Alophen", "(Pyridin-2-ylmethylene)bis(4,1-phenylene) diacetate", "MeSH ID: D001726"], "SMILES": "C(C1=CC=C(OC(C)=O)C=C1)(C2=CC=C(OC(C)=O)C=C2)C3=CC=CC=N3", "physical_data": {"Molecular Weight": "361.39", "Molecular Formula": "C22H19NO4", "Melting Point": "138 \u00b0C"}}