{"cas_no": "603-44-1", "cn_name": "4,4\u2019,4\u2019\u2019-\u4e9a\u7532\u57fa\u4e09\u82ef\u915a", "en_name": ["4,4\u2032,4\u2032\u2032-Methylidynetris[phenol]", "Phenol, 4,4\u2032,4\u2032\u2032-methylidynetris-", "Phenol, 4,4\u2032,4\u2032\u2032-methylidynetri-", "Leucaurin", "4,4\u2032,4\u2032\u2032-Methylidynetris[phenol]", "Leucoaurin", "Tris(p-hydroxyphenyl)methane", "4,4\u2032,4\u2032\u2032-Trihydroxytriphenylmethane", "Tris(4-hydroxyphenyl)methane", "4,4\u2032,4\u2032\u2032-Methylidynetrisphenol", "Trisphenol PHBA", "NSC 75955", "4,4\u2032,4\u2032\u2032-Trihydroxyphenylmethane", "BisP-PHBA", "BIP-PHBZ", "AV Lite BIP-PHBZ", "TrisP-M", "TrisP-PHBA", "Tri(4-hydroxyphenyl)methane", "Tris P-PHBA-S"], "SMILES": "C(C1=CC=C(O)C=C1)(C2=CC=C(O)C=C2)C3=CC=C(O)C=C3", "physical_data": {"Molecular Weight": "292.33", "Molecular Formula": "C19H16O3", "Melting Point": "240 \u00b0C"}}