{"cas_no": "603-76-9", "cn_name": "N-\u7532\u57fa\u5432\u54da", "en_name": ["1-Methylindole", "1H-Indole, 1-methyl-", "Indole, 1-methyl-", "1-Methyl-1H-indole", "1-Methylindole", "N-Methylindole", "NSC 212534"], "SMILES": "CN1C=2C(=CC=CC2)C=C1", "physical_data": {"Molecular Weight": "131.17", "Molecular Formula": "C9H9N", "Boiling Point": "237 \u00b0C", "Melting Point": "186-187 \u00b0C"}}