{"cas_no": "60317-40-0", "cn_name": "\u5341\u4e8c\u70f7\u57fa\u7532\u57fa\u4e8c\u4e59\u6c27\u57fa\u7845\u70f7", "en_name": ["Dodecyldiethoxymethylsilane", "Silane, dodecyldiethoxymethyl-", "Dodecyldiethoxymethylsilane", "Diethoxydodecylmethylsilane", "LS 6360", "(Dodecyl)(methyl)diethoxysilane"], "SMILES": "[Si](CCCCCCCCCCCC)(OCC)(OCC)C", "physical_data": {"Molecular Weight": "302.57", "Molecular Formula": "C17H38O2Si", "Boiling Point": "140 \u00b0C @ Press: 0.5 Torr", "Density": "0.845 g/cm\u00b3 @ Temp: 25 \u00b0C"}}