{"cas_no": "603139-19-1", "cn_name": "(2S)-N-(1-\u6c30\u57fa\u73af\u4e19\u57fa)-4-\u6c1f-4-\u7532\u57fa-2-[[(1S)-2,2,2-\u4e09\u6c1f-1-[4'-(\u7532\u57fa\u78fa\u9170\u57fa)[1,1'-\u8054\u82ef]-4-\u57fa]\u4e59\u57fa]\u6c28\u57fa]\u620a\u9170\u80fa", "en_name": ["Odanacatib", "Pentanamide, N-(1-cyanocyclopropyl)-4-fluoro-4-methyl-2-[[(1S)-2,2,2-trifluoro-1-[4\u2032-(methylsulfonyl)[1,1\u2032-biphenyl]-4-yl]ethyl]amino]-, (2S)-", "(2S)-N-(1-Cyanocyclopropyl)-4-fluoro-4-methyl-2-[[(1S)-2,2,2-trifluoro-1-[4\u2032-(methylsulfonyl)[1,1\u2032-biphenyl]-4-yl]ethyl]amino]pentanamide", "Odanacatib", "N1-[(1-Cyanocyclopropyl)-4-fluoro-N2-[(1S)-2,2,2-trifluoro-1-[4-methylsulfonyl]-1,1\u2032-biphenyl-4-yl] ethyl]-L-leucinamide", "MK 0822"], "SMILES": "N(C(C(NC(C(F)(F)F)C1=CC=C(C=C1)C2=CC=C(S(C)(=O)=O)C=C2)CC(C)(C)F)=O)C3(C#N)CC3", "physical_data": {"Molecular Weight": "525.56", "Molecular Formula": "C25H27F4N3O3S", "Melting Point": "223-224 \u00b0C"}}