{"cas_no": "60323-98-0", "cn_name": "2-\u6eb4-5-\u7532\u57fa-4-\u785d\u57fa\u5421\u5576 1-\u6c27\u5316\u7269", "en_name": ["Pyridine, 2-bromo-5-methyl-4-nitro-, 1-oxide", "Pyridine, 2-bromo-5-methyl-4-nitro-, 1-oxide", "2-Bromo-5-methyl-4-nitropyridine N-oxide", "2-Bromo-5-methyl-4-nitropyridine 1-oxide", "2-Bromo-5-methyl-4-nitropyridin-1-ium-1-olate", "2-Bromo-5-methyl-4-nitro-1-oxidopyridin-1-ium"], "SMILES": "N(=O)(=O)C=1C(C)=CN(=O)=C(Br)C1", "physical_data": {"Molecular Weight": "233.02", "Molecular Formula": "C6H5BrN2O3", "Melting Point": "158 \u00b0C"}}