{"cas_no": "6032-32-2", "cn_name": "4-\u7532\u6c27\u57fa\u82ef\u57fa\u0392-D-\u5421\u5583\u8461\u8404\u7cd6\u82f7", "en_name": ["Methylarbutin", "\u03b2-D-Glucopyranoside, 4-methoxyphenyl", "Glucopyranoside, p-methoxyphenyl, \u03b2-D-", "4-Methoxyphenyl \u03b2-D-glucopyranoside", "Methylarbutin", "p-Methoxyphenyl \u03b2-D-glucoside", "p-Methoxyphenyl \u03b2-D-glucopyranoside", "Methylhydroquinone glucoside"], "SMILES": "O(C1OC(CO)C(O)C(O)C1O)C2=CC=C(OC)C=C2", "physical_data": {"Molecular Weight": "286.28", "Molecular Formula": "C13H18O7", "Melting Point": "158-160 \u00b0C"}}