{"cas_no": "6032-29-7", "cn_name": "2-\u620a\u9187", "en_name": ["2-Pentanol", "2-Pentanol", "sec-Amyl alcohol", "Methylpropylcarbinol", "2-Pentyl alcohol", "1-Methyl-1-butanol", "sec-Pentanol", "1-Methylbutanol", "sec-Pentyl alcohol", "2-Hydroxypentane", "DL-2-Pentanol", "(\u00b1)-2-Pentanol", "dl-2-Pentanol"], "SMILES": "C(C(C)O)CC", "physical_data": {"Molecular Weight": "88.15", "Molecular Formula": "C5H12O", "Boiling Point": "119.3 \u00b0C", "Melting Point": "-73 \u00b0C", "Density": "0.814 g/cm\u00b3 @ Temp: 15 \u00b0C"}}