{"cas_no": "60323-96-8", "cn_name": "2-\u6c2f-5-\u7532\u57fa-4-\u785d\u57fa\u5421\u5576-N-\u6c27\u5316\u7269", "en_name": ["2-Chloro-5-methyl-4-nitropyridine N-oxide", "Pyridine, 2-chloro-5-methyl-4-nitro-, 1-oxide", "2-Chloro-5-methyl-4-nitropyridine 1-oxide", "2-Chloro-5-methyl-4-nitropyridine N-oxide", "2-Chloro-5-methyl-4-nitropyridin-1-ium-1-olate", "2-Chloro-5-methyl-4-nitro-1-oxidopyridin-1-ium", "2-Chloro-5-methyl-4-nitropyridin-1-ium 1-oxide"], "SMILES": "N(=O)(=O)C=1C(C)=CN(=O)=C(Cl)C1", "physical_data": {"Molecular Weight": "188.57", "Molecular Formula": "C6H5ClN2O3", "Melting Point": "154-155 \u00b0C"}}