{"cas_no": "60333-76-8", "cn_name": "3-\u82ef\u6c27\u57fa\u4e19\u57fa\u4e09\u6c2f\u7845\u70f7", "en_name": ["[3-(Trichlorosilyl)propoxy]benzene", "Benzene, [3-(trichlorosilyl)propoxy]-", "Silane, trichloro(3-phenoxypropyl)-", "[3-(Trichlorosilyl)propoxy]benzene", "Trichloro(3-phenoxypropyl)silane", "(3-Phenoxypropyl)trichlorosilane"], "SMILES": "O(CCC[Si](Cl)(Cl)Cl)C1=CC=CC=C1", "physical_data": {"Molecular Weight": "269.63", "Molecular Formula": "C9H11Cl3OSi", "Boiling Point": "40 \u00b0C @ Press: 0.02 Torr", "Density": "1.2574 g/cm\u00b3"}}