{"cas_no": "6033-23-4", "cn_name": "(S)-(+)-2-\u5e9a\u9187", "en_name": ["(+)-2-Heptanol", "2-Heptanol, (2S)-", "2-Heptanol, (+)-", "2-Heptanol, (S)-", "(2S)-2-Heptanol", "d-Amylmethylcarbinol", "d-2-Heptanol", "d-2-Hydroxyheptane", "(+)-2-Heptanol", "(S)-2-Heptanol", "(S)-(+)-2-Heptanol", "(2S)-Heptan-2-ol"], "SMILES": "C(CCCC)C(C)O", "physical_data": {"Molecular Weight": "116.20", "Molecular Formula": "C7H16O", "Boiling Point": "157.0-159.5 \u00b0C", "Density": "0.835 g/cm\u00b3 @ Temp: 25 \u00b0C"}}