{"cas_no": "6034-46-4", "cn_name": "(S)-(-)-2-\u4e59\u9170\u6c27\u57fa\u4e19\u9178", "en_name": ["(2S)-2-(Acetyloxy)propanoic acid", "Propanoic acid, 2-(acetyloxy)-, (2S)-", "Lactic acid, acetate, L-", "Propanoic acid, 2-(acetyloxy)-, (S)-", "(2S)-2-(Acetyloxy)propanoic acid", "(+)-Lactic acid acetate", "(+)-\u03b1-Acetoxypropionic acid", "\u03b1-(Acetyloxy)-L-propionic acid", "2(S)-Acetoxypropionic acid", "L-Lactic acid acetate", "(S)-2-Acetoxypropionic acid", "O-Acetyl-(S)-lactic acid", "L-(+)-O-Acetylactic acid", "(S)-2-Acetoxypropanoic acid", "(S)-(+)-2-Acetoxypropionic acid", "(S)-O-Acetyllactic acid", "(2S)-2-Acetoxypropanoic acid", "(S)-(+)-2-Acetoxypropanoic acid", "(S)-(-)-2-Acetoxypropanoic acid", "(2S)-2-Acetyloxypropionic acid", "(-)-O-Acetyl-L-lactic acid", "(S)-(-)-2-Acetoxypropionic acid", "(2S)-2-Acetyloxypropanoic acid"], "SMILES": "C(OC(C)=O)(C(O)=O)C", "physical_data": {"Molecular Weight": "132.11", "Molecular Formula": "C5H8O4", "Boiling Point": "137-138 \u00b0C @ Press: 15 Torr"}}