{"cas_no": "60348-60-9", "cn_name": "2,2',4,4',5-\u4e94\u6eb4\u8054\u82ef\u919a", "en_name": ["BDE 99", "Benzene, 1,2,4-tribromo-5-(2,4-dibromophenoxy)-", "1,2,4-Tribromo-5-(2,4-dibromophenoxy)benzene", "2,2\u2032,4,4\u2032,5-Pentabromodiphenyl ether", "2,2\u2032,4,4\u2032,5-Pentabromodiphenyl oxide", "Tardex 50", "Tardex 50L", "BDE 99", "PBDE 99", "DTXSID9030048"], "SMILES": "O(C1=C(Br)C=C(Br)C(Br)=C1)C2=C(Br)C=C(Br)C=C2", "physical_data": {"Molecular Weight": "564.69", "Molecular Formula": "C12H5Br5O", "Boiling Point": "416 \u00b0C", "Melting Point": "84-85 \u00b0C"}}