{"cas_no": "6035-49-0", "cn_name": "\u4e8c\u7532\u57fa\u767d\u8721\u6811\u4ead", "en_name": ["6,7,8-Trimethoxycoumarin", "2H-1-Benzopyran-2-one, 6,7,8-trimethoxy-", "Coumarin, 6,7,8-trimethoxy-", "6,7,8-Trimethoxy-2H-1-benzopyran-2-one", "Fraxetin dimethyl ether", "6,7,8-Trimethoxycoumarin", "7,8,9-Trimethoxycoumarin"], "SMILES": "O(C)C1=C2C(=CC(OC)=C1OC)C=CC(=O)O2", "physical_data": {"Molecular Weight": "236.22", "Molecular Formula": "C12H12O5", "Melting Point": "104-105 \u00b0C"}}