{"cas_no": "6038-19-3", "cn_name": "DL-\u9ad8\u534a\u80f1\u6c28\u9178\u786b\u5185\u916f\u76d0\u9178\u76d0", "en_name": ["Homocysteine thiolactone hydrochloride", "2(3H)-Thiophenone, 3-aminodihydro-, hydrochloride (1:1)", "2(3H)-Thiophenone, 3-aminodihydro-, hydrochloride, (\u00b1)-", "2(3H)-Thiophenone, 3-aminodihydro-, hydrochloride", "DL-Homocysteine thiolactone hydrochloride", "Homocysteine thiolactone hydrochloride", "HCTL hydrochloride", "ADT", "NSC 22879", "3-Aminodihydrothiophen-2(3H)-one hydrochloride", "2-Oxothiolan-3-aminium chloride"], "SMILES": "NC1C(=O)SCC1.Cl", "physical_data": {"Molecular Weight": "", "Molecular Formula": "C4H7NOS.ClH", "Melting Point": "200 \u00b0C (decomp)"}}