{"cas_no": "60398-91-6", "cn_name": "\u4e01\u544b\u6d1b\u5c14\u76d0\u9178\u76d0", "en_name": ["Bufuralol hydrochloride", "2-Benzofuranmethanol, \u03b1-[[(1,1-dimethylethyl)amino]methyl]-7-ethyl-, hydrochloride (1:1)", "2-Benzofuranmethanol, \u03b1-[[(1,1-dimethylethyl)amino]methyl]-7-ethyl-, hydrochloride, (\u00b1)-", "2-Benzofuranmethanol, \u03b1-[[(1,1-dimethylethyl)amino]methyl]-7-ethyl-, hydrochloride", "(\u00b1)-Bufuralol hydrochloride", "Ro 3-4787 hydrochloride", "Bufuralol hydrochloride", "Angium"], "SMILES": "C(C)C1=C2C(C=C(C(CNC(C)(C)C)O)O2)=CC=C1.Cl", "physical_data": {"Molecular Weight": "", "Molecular Formula": "C16H23NO2.ClH", "Melting Point": "146 \u00b0C"}}