{"cas_no": "604-75-1", "cn_name": "\u5965\u6c99\u897f\u6cee", "en_name": ["Oxazepam", "2H-1,4-Benzodiazepin-2-one, 7-chloro-1,3-dihydro-3-hydroxy-5-phenyl-", "7-Chloro-1,3-dihydro-3-hydroxy-5-phenyl-2H-1,4-benzodiazepin-2-one", "Wy 3498", "Ro 5-6789", "Adumbran", "7-Chloro-3-hydroxy-5-phenyl-1,3-dihydro-2H-1,4-benzodiazepin-2-one", "Oxazepam", "Serax", "Seresta", "Aplakil", "Bonare", "Enidrel", "Limbial", "Nesontil", "Praxiten", "Propax", "Rondar", "Serenal", "Serepax", "Tazepam", "Psiquiwas", "Hi-Long", "Astress", "Sobril", "Drimuel", "Droxacepam", "Anxiolit retard", "Tarchomin", "Nozepam", "N-Desmethyltemazepam", "Anxiolit", "Nortemazepam", "(\u00b1)-Oxazepam", "(RS)-Oxazepam", "Noctazepam", "Serenid", "Lederpam", "Quilibrex", "Isodin", "Azutranquil", "Zaxopam", "Uskan", "Oxanid", "Sigacalm", "Oxa-puren", "Durazepam", "NSC 169448", "3-Hydroxynordiazepam", "Serenid-D", "7-Chloro-3-hydroxy-5-phenyl-1H-1,4-benzodiazepin-2(3H)-one", "MeSH ID: D010076"], "SMILES": "ClC=1C=C2C(=NC(O)C(=O)NC2=CC1)C3=CC=CC=C3", "physical_data": {"Molecular Weight": "286.71", "Molecular Formula": "C15H11ClN2O2", "Melting Point": "205-206 \u00b0C"}}