{"cas_no": "604-59-1", "cn_name": "\u03b1-\u8418\u9ec4\u916e", "en_name": ["\u03b1-Naphthoflavone", "4H-Naphtho[1,2-b]pyran-4-one, 2-phenyl-", "7,8-Benzoflavone", "2-Phenyl-4H-naphtho[1,2-b]pyran-4-one", "\u03b1-Naphthoflavone", "\u03b1-Naphthylflavone", "Benzo[h]flavone", "ANF", "UCCF 023", "NSC 407011", "2-Phenyl-4H-benzo[h]chromen-4-one", "2-Phenylbenzo[h]chromen-4-one"], "SMILES": "O=C1C=2C(=C3C(=CC2)C=CC=C3)OC(=C1)C4=CC=CC=C4", "physical_data": {"Molecular Weight": "272.30", "Molecular Formula": "C19H12O2", "Melting Point": "167 \u00b0C"}}