{"cas_no": "604-69-3", "cn_name": "\u03b2-D-\u8461\u8404\u7cd6\u4e94\u4e59\u9178\u916f", "en_name": ["\u03b2-D-Glucose pentaacetate", "\u03b2-D-Glucopyranose, 1,2,3,4,6-pentaacetate", "Glucopyranose, pentaacetate, \u03b2-D-", "\u03b2-D-Glucopyranose, pentaacetate", "\u03b2-D-Glucose pentaacetate", "Penta-O-acetyl-\u03b2-D-glucopyranose", "Pentaacetyl-\u03b2-D-glucose", "Pentaacetyl-\u03b2-D-glucopyranose", "1,2,3,4,6-Penta-O-acetyl-\u03b2-D-glucopyranose", "\u03b2-D-Glucopyranosyl pentaacetate", "Per-O-acetyl-\u03b2-D-glucopyranose", "2,3,4,6-Tetra-O-acetyl-\u03b2-D-glucopyranosyl acetate", "NSC 214078", "Penta-O-acetyl-\u03b2-D-glucose", "Tetra-O-acetyl-\u03b2-D-glucopyranosyl acetate", "\u03b2-D-Glucopyranose peracetate", "\u03b2-D-Glucopyranoside peracetate"], "SMILES": "O(C(C)=O)C1C(OC(C)=O)C(COC(C)=O)OC(OC(C)=O)C1OC(C)=O", "physical_data": {"Molecular Weight": "390.34", "Molecular Formula": "C16H22O11", "Boiling Point": "0.115-20 \u00b0C @ Press: 5 x 10<sup>-4</sup> Torr", "Melting Point": "134 \u00b0C"}}