{"cas_no": "604-32-0", "cn_name": "\u80c6\u56fa\u9187\u82ef\u7532\u9178\u916f", "en_name": ["Cholesteryl benzoate", "Cholest-5-en-3-ol (3\u03b2)-, 3-benzoate", "Cholesterol, benzoate", "Cholest-5-en-3-ol (3\u03b2)-, benzoate", "Cholesteryl benzoate", "3\u03b2-(Benzoyloxy)cholest-5-ene", "Cholest-5-en-3\u03b2-yl benzoate", "Cholesterol 3\u03b2-benzoate", "Cholest-5-en-3\u03b2-ol benzoate", "Benzoate cholesterol", "Benzoic acid, cholesteryl ester"], "SMILES": "CC12C3C(C4C(C)(CC3)C(C(CCCC(C)C)C)CC4)CC=C1CC(OC(=O)C5=CC=CC=C5)CC2", "physical_data": {"Molecular Weight": "490.76", "Molecular Formula": "C34H50O2", "Melting Point": "141 \u00b0C", "Density": "1.231 g/cm\u00b3"}}