{"cas_no": "604-53-5", "cn_name": "1,1'-\u8054\u8418", "en_name": ["1,1\u2032-Binaphthyl", "1,1\u2032-Binaphthalene", "1,1\u2032-Binaphthyl", "\u03b1,\u03b1\u2032-Binaphthyl", "(\u00b1)Binaphthyl", "(\u00b1)-1,1\u2032-Binaphthyl", "Racemic 1,1\u2032-binaphthyl", "NSC 15230", "NSC 662279", "1-Naphthalen-1-ylnaphthalene"], "SMILES": "C=1(C2=C(C=CC1)C=CC=C2)C=3C4=C(C=CC3)C=CC=C4", "physical_data": {"Molecular Weight": "254.33", "Molecular Formula": "C20H14", "Melting Point": "160 \u00b0C", "Density": "1.299 g/cm\u00b3"}}