{"cas_no": "604-99-9", "cn_name": "\u59a5\u5305\u55ea", "en_name": ["Normacusine B", "Sarpagan-17-ol", "Normacusine B", "Tombozine", "Vellosiminol", "Tombozin", "10-Deoxysarpagine"], "SMILES": "C(O)C1C2N3C(C4=C(C=5C(N4)=CC=CC5)C2)CC1C(=CC)C3", "physical_data": {"Molecular Weight": "294.39", "Molecular Formula": "C19H22N2O", "Melting Point": "275 \u00b0C"}}