{"cas_no": "604-80-8", "cn_name": "\u6c34\u4ed9\u82f7", "en_name": ["Narcissin", "4H-1-Benzopyran-4-one, 3-[[6-O-(6-deoxy-\u03b1-L-mannopyranosyl)-\u03b2-D-glucopyranosyl]oxy]-5,7-dihydroxy-2-(4-hydroxy-3-methoxyphenyl)-", "Narcissin", "3-[[6-O-(6-Deoxy-\u03b1-L-mannopyranosyl)-\u03b2-D-glucopyranosyl]oxy]-5,7-dihydroxy-2-(4-hydroxy-3-methoxyphenyl)-4H-1-benzopyran-4-one", "Isorhamnetin 3-rutinoside", "Narcissoside", "Isorhamnetin 3-\u03b2-D-glucopyranosyl-(6\u21921)-L-rhamnopyranoside", "Isorhamnetin 3\u03b2-rutinoside", "Isorhamnetol 3-O-rutinoside", "Isorhamnetin 3-rhamnoglucoside", "Isorhamnetin 3-O-rutinoside", "Isorhamnetin 3-O-\u03b2-rutinoside", "3\u2032-O-Methylquercetin 3-rutinoside", "Isorhamnetin-3-O-\u03b2-D-rutinoside", "Isorhamnetin 3-\u03b2-O-rutinoside", "Isorhamnetin 3-O-\u03b1-L-rhamnosyl(1\u21926)-\u03b2-D-glucopyranoside", "Isorhamnetin 3-O-\u03b2-D-(6\u2032\u2032-O-\u03b1-L-rhamnopyranosyl)glucopyranoside", "3-O-Rutinosylisorhamnetin", "Isorhamnetin 3-O-\u03b2-D-(6-O-\u03b1-L-rhamnosyl)glucoside", "Isorhamnetin 3-O-\u03b1-rhamnopyranosyl-(1\u21926)-\u03b2-glucopyranoside", "Quercetin 3\u2032-O-methyl-3-O-\u03b1-L-rhamnopyranosyl(1\u21926)-\u03b2-D-glucopyranoside", "Isorhamentin 3-O-\u03b2-D-rutinoside", "Isorhamnetin 3-O-(6\u2032\u2032-O-\u03b1-L-rhamnopyransoyl)-\u03b2-D-glucopyranoside", "Isorhamnetin rutinoside", "Rutin 3\u2032-methyl ether"], "SMILES": "O(C1=C(OC=2C(C1=O)=C(O)C=C(O)C2)C3=CC(OC)=C(O)C=C3)C4OC(COC5C(O)C(O)C(O)C(C)O5)C(O)C(O)C4O", "physical_data": {"Molecular Weight": "624.54", "Molecular Formula": "C28H32O16", "Melting Point": "180 \u00b0C"}}