{"cas_no": "604-09-1", "cn_name": "17alpha-\u7f9f\u57fa\u9ec4\u4f53\u916e", "en_name": ["17\u03b2-Hydroxyprogesterone", "Pregn-4-ene-3,20-dione, 17-hydroxy-, (17\u03b1)-", "17\u03b1-Pregn-4-ene-3,20-dione, 17-hydroxy-", "(17\u03b1)-17-Hydroxypregn-4-ene-3,20-dione", "17\u03b2-Hydroxy-17\u03b1-pregn-4-ene-3,20-dione", "17-Hydroxyisopregn-4-en-3,20-dione", "Pregn-4-ene-17\u03b1-hydroxy-3,20-dione", "17\u03b2-Hydroxyprogesterone"], "SMILES": "CC12C(C3C(C4(C)C(CC3)=CC(=O)CC4)CC1)CCC2(C(C)=O)O", "physical_data": {"Molecular Weight": "330.46", "Molecular Formula": "C21H30O3", "Melting Point": "212-215 \u00b0C"}}