{"cas_no": "604-68-2", "cn_name": "\u03b1-D-\u8461\u7cd6\u4e94\u4e59\u9178\u916f", "en_name": ["Penta-O-acetyl-\u03b1-D-glucopyranose", "\u03b1-D-Glucopyranose, 1,2,3,4,6-pentaacetate", "Glucopyranose, pentaacetate, \u03b1-D-", "\u03b1-D-Glucopyranose, pentaacetate", "\u03b1-D-Glucose pentaacetate", "1,2,3,4,6-Penta-O-acetyl-\u03b1-D-glucopyranose", "Pentaacetyl-\u03b1-D-glucose", "\u03b1-D-Glucopyranosyl pentaacetate", "Pentaacetyl-\u03b1-D-glucopyranose", "Penta-O-acetyl-\u03b1-D-glucopyranose", "NSC 119335", "NSC 9290", "2,3,4,6-Tetra-O-acetyl-\u03b1-D-glucopyranosyl acetate", "1,2,3,4,6-Tetra-O-acetyl-\u03b1-D-glucopyranoside"], "SMILES": "O(C(C)=O)C1C(OC(C)=O)C(COC(C)=O)OC(OC(C)=O)C1OC(C)=O", "physical_data": {"Molecular Weight": "390.34", "Molecular Formula": "C16H22O11", "Boiling Point": "~0.115 \u00b0C (approx) @ Press: 3 x 10<sup>-4</sup> Torr", "Melting Point": "113.3 \u00b0C"}}