{"cas_no": "604-19-3", "cn_name": "\u9ec4\u4f53\u916e\u6742\u8d28", "en_name": ["6\u03b2-Hydroxyprogesterone", "Pregn-4-ene-3,20-dione, 6-hydroxy-, (6\u03b2)-", "Pregn-4-ene-3,20-dione, 6\u03b2-hydroxy-", "Progesterone, 6\u03b2-hydroxy-", "(6\u03b2)-6-Hydroxypregn-4-ene-3,20-dione", "6\u03b2-Hydroxypregn-4-ene-3,20-dione", "6\u03b2-Hydroxyprogesterone", "6\u03b2-Hydroxypregn-4-en-3,20-dione", "4-Pregnen-6\u03b2-ol-3,20-dione", "U 27605"], "SMILES": "CC12C3C(C4C(C)(CC3)C(C(C)=O)CC4)CC(O)C1=CC(=O)CC2", "physical_data": {"Molecular Weight": "330.46", "Molecular Formula": "C21H30O3", "Melting Point": "181-183 \u00b0C"}}