{"cas_no": "604-44-4", "cn_name": "4-\u6c2f-1-\u5948\u915a", "en_name": ["4-Chloro-1-naphthol", "1-Naphthalenol, 4-chloro-", "1-Naphthol, 4-chloro-", "4-Chloro-1-naphthalenol", "4-Chloro-\u03b1-naphthol", "4-Chloro-1-naphthol", "1-Chloro-4-hydroxynaphthalene", "1-Hydroxy-4-chloronaphthalene", "NSC 44345", "1-Chloro-4-naphthol"], "SMILES": "ClC=1C2=C(C(O)=CC1)C=CC=C2", "physical_data": {"Molecular Weight": "178.62", "Molecular Formula": "C10H7ClO", "Melting Point": "117-118 \u00b0C"}}