{"cas_no": "604-33-1", "cn_name": "\u80c6\u753e\u70ef\u57fa\u4e9a\u6cb9\u9178\u916f", "en_name": ["Cholesteryl linoleate", "Cholest-5-en-3-ol (3\u03b2)-, 3-[(9Z,12Z)-9,12-octadecadienoate]", "Cholesterol, linoleate", "Linoleic acid, cholesteryl ester", "Cholest-5-en-3-ol (3\u03b2)-, 9,12-octadecadienoate, (Z,Z)-", "Cholest-5-en-3-ol (3\u03b2)-, (9Z,12Z)-9,12-octadecadienoate", "Cholesteryl linoleate", "NSC 18183", "Cholesterol ester 18:2", "CE(18:2)"], "SMILES": "CC12C3C(C4C(C)(CC3)C(C(CCCC(C)C)C)CC4)CC=C1CC(OC(CCCCCCCC=CCC=CCCCCC)=O)CC2", "physical_data": {"Molecular Weight": "649.08", "Molecular Formula": "C45H76O2", "Melting Point": "41-42.5 \u00b0C"}}