{"cas_no": "604-35-3", "cn_name": "\u80c6\u56fa\u9187\u918b\u9178\u916f", "en_name": ["(-)-Cholesteryl acetate", "Cholest-5-en-3-ol (3\u03b2)-, 3-acetate", "Cholesterol, acetate", "Cholest-5-en-3-ol (3\u03b2)-, acetate", "Cholesteryl acetate", "3\u03b2-Acetoxycholest-5-ene", "Cholest-5-en-3\u03b2-ol acetate", "Cholest-5-en-3\u03b2-yl acetate", "Cholesterin acetate", "(-)-Cholesteryl acetate", "Cholesterol 3\u03b2-acetate", "3-Cholesteryl acetate", "Cholesterol 3-acetate", "(3\u03b2)-Cholest-5-en-3-ol acetate", "NSC 8799"], "SMILES": "CC12C3C(C4C(C)(CC3)C(C(CCCC(C)C)C)CC4)CC=C1CC(OC(C)=O)CC2", "physical_data": {"Molecular Weight": "428.69", "Molecular Formula": "C29H48O2", "Melting Point": "113 \u00b0C"}}