{"cas_no": "6040-19-3", "cn_name": "\u846b\u82a6\u7d20A", "en_name": ["Cucurbitacin A", "19-Norlanosta-5,23-diene-3,11,22-trione, 25-(acetyloxy)-2,16,20-trihydroxy-9-(hydroxymethyl)-, (2\u03b2,9\u03b2,10\u03b1,16\u03b1,23E)-", "19-Nor-9\u03b2,10\u03b1-lanosta-5,23-diene-3,11,22-trione, 2\u03b2,16\u03b1,20,25-tetrahydroxy-9-(hydroxymethyl)-, 25-acetate, (E)-", "19-Norlanosta-5,23-diene-3,11,22-trione, 2,16,20,25-tetrahydroxy-9-(hydroxymethyl)-, 25-acetate", "(2\u03b2,9\u03b2,10\u03b1,16\u03b1,23E)-25-(Acetyloxy)-2,16,20-trihydroxy-9-(hydroxymethyl)-19-norlanosta-5,23-diene-3,11,22-trione", "Cucurbitacin A", "Cucurbitacine A", "NSC 94743"], "SMILES": "C(O)C12C(C3(C)C(C)(CC1=O)C(C(C(C=CC(OC(C)=O)(C)C)=O)(C)O)C(O)C3)CC=C4C2CC(O)C(=O)C4(C)C", "physical_data": {"Molecular Weight": "574.70", "Molecular Formula": "C32H46O9", "Melting Point": "207-208 \u00b0C"}}