{"cas_no": "60410-16-4", "cn_name": "(1R,3S)-(+)-\u987a\u5f0f-4-\u73af\u620a\u70ef-1,3-\u4e8c\u9187 1-\u4e59\u9178\u916f", "en_name": ["4-Cyclopentene-1,3-diol, 1-acetate, (1R,3S)-", "4-Cyclopentene-1,3-diol, 1-acetate, (1R,3S)-", "4-Cyclopentene-1,3-diol, monoacetate, (1R-cis)-", "4-Cyclopentene-1,3-diol, monoacetate, (1R,3S)-", "(1R,4S)-(+)-4-Hydroxy-2-cyclopentenyl acetate", "(+)-(1R-cis)-4-Cyclopentene-1,3-diol monoacetate", "(1R,3S)-(+)-4-Cyclopentene-1,3-diol 1-acetate", "(+)-(1R,4S)-4-Hydroxy-2-cyclopenten-1-yl acetate", "(1R,3S)-(+)-1-Acetoxy-3-hydroxy-4-cyclopentene", "(1s,4r)-cis-4-Acetoxy-2-cyclopenten-1-ol", "Acetic acid (1R,4S)-4-hydroxycyclopent-2-enyl ester", "(1S,4R)-4-Acetoxy-2-cyclopenten-1-ol", "(1S,4R)-4-Acetoxy-2-cyclopenten-1-ol", "(1R,4S)-4-Hydroxycyclopent-2-enyl acetate"], "SMILES": "O(C(C)=O)C1CC(O)C=C1", "physical_data": {"Molecular Weight": "142.15", "Molecular Formula": "C7H10O3", "Melting Point": "49-51 \u00b0C"}}