{"cas_no": "60434-13-1", "cn_name": "5-\u6c2f-1-\u7532\u57fa\u5432\u54da\u5549-2,3-\u4e8c\u916e", "en_name": ["5-Chloro-1-methylisatin", "1H-Indole-2,3-dione, 5-chloro-1-methyl-", "5-Chloro-1-methyl-1H-indole-2,3-dione", "1-Methyl-5-chloro-2,3-indoledione", "5-Chloro-1-methylisatin", "1-Methyl-5-chloroisatin", "5-Chloro-1-methyl-indole-2,3-dione", "5-Chloro-1-methylindoline-2,3-dione", "5-Chloro-N-methylisatin"], "SMILES": "O=C1C=2C(N(C)C1=O)=CC=C(Cl)C2", "physical_data": {"Molecular Weight": "195.60", "Molecular Formula": "C9H6ClNO2", "Melting Point": "171-173 \u00b0C"}}