{"cas_no": "6044-68-4", "cn_name": "\u4e19\u70ef\u919b\u4e8c\u7532\u7f29\u919b", "en_name": ["3,3-Dimethoxy-1-propene", "1-Propene, 3,3-dimethoxy-", "Acrolein, dimethyl acetal", "3,3-Dimethoxy-1-propene", "1,1-Dimethoxyprop-2-ene", "2-Propenal, dimethyl acetal", "3,3-Dimethoxypropene", "NSC 84156", "A 151049"], "SMILES": "C(C=C)(OC)OC", "physical_data": {"Molecular Weight": "102.13", "Molecular Formula": "C5H10O2", "Boiling Point": "88 \u00b0C"}}