{"cas_no": "60442-41-3", "cn_name": "2-(2-\u6c2f\u4e59\u70f7\u9170\u57fa\u6c28\u57fa)-4,5,6,7-\u56db\u6c22-1-\u82ef\u5e76\u567b\u5429-3-\u7532\u9178\u4e59\u916f", "en_name": ["Ethyl 2-[(2-chloroacetyl)amino]-4,5,6,7-tetrahydrobenzo[b]thiophene-3-carboxylate", "Benzo[b]thiophene-3-carboxylic acid, 2-[(2-chloroacetyl)amino]-4,5,6,7-tetrahydro-, ethyl ester", "Benzo[b]thiophene-3-carboxylic acid, 2-[(chloroacetyl)amino]-4,5,6,7-tetrahydro-, ethyl ester", "Ethyl 2-[(2-chloroacetyl)amino]-4,5,6,7-tetrahydrobenzo[b]thiophene-3-carboxylate"], "SMILES": "C(OCC)(=O)C=1C2=C(SC1NC(CCl)=O)CCCC2", "physical_data": {"Molecular Weight": "301.79", "Molecular Formula": "C13H16ClNO3S", "Melting Point": "115-117 \u00b0C"}}