{"cas_no": "6044-30-0", "cn_name": "2-\u8418\u57fa BETA-D-\u5421\u5583\u8461\u8404\u7cd6\u82f7", "en_name": ["2-Naphthalenyl \u03b2-D-glucopyranoside", "\u03b2-D-Glucopyranoside, 2-naphthalenyl", "Glucopyranoside, 2-naphthyl, \u03b2-D-", "Glucopyranoside, 2-naphthyl", "2-Naphthalenyl \u03b2-D-glucopyranoside", "\u03b2-Naphthyl-D-glucoside", "\u03b2-Naphthyl \u03b2-D-glucopyranoside"], "SMILES": "O(C1=CC2=C(C=C1)C=CC=C2)C3OC(CO)C(O)C(O)C3O", "physical_data": {"Molecular Weight": "306.31", "Molecular Formula": "C16H18O6", "Melting Point": "188 \u00b0C"}}