{"cas_no": "60456-23-7", "cn_name": "(S)-\u7f29\u6c34\u7518\u6cb9", "en_name": ["(-)-Glycidol", "2-Oxiranemethanol, (2S)-", "Oxiranemethanol, (S)-", "Oxiranemethanol, (2S)-", "(2S)-2-Oxiranemethanol", "(-)-D-Glycidol", "(S)-Glycidol", "(-)-Glycidol", "(-)-2,3-Epoxy-1-propanol", "(S)-(-)-Oxiranemethanol", "(S)-(-)-Glycidol", "S-Glycidyl alcohol", "(S)-Oxiran-2-ylmethanol", "(2S)-2-Oxiranylmethanol", "(S)-2-Oxiranemethanol", "2-Oxiranemethanol (2S)-", "((2S)-2-Oxiranyl)methanol"], "SMILES": "C(O)C1CO1", "physical_data": {"Molecular Weight": "74.08", "Molecular Formula": "C3H6O2", "Melting Point": "72-73 \u00b0C"}}