{"cas_no": "60456-21-5", "cn_name": "(S)-(-)-2,2-\u4e8c\u7532\u57fa-1,3-\u4e8c\u6c27\u620a\u73af-4-\u7fa7\u9178\u7532\u916f", "en_name": ["Methyl (4S)-2,2-dimethyl-1,3-dioxolane-4-carboxylate", "1,3-Dioxolane-4-carboxylic acid, 2,2-dimethyl-, methyl ester, (4S)-", "1,3-Dioxolane-4-carboxylic acid, 2,2-dimethyl-, methyl ester, (S)-", "Methyl (4S)-2,2-dimethyl-1,3-dioxolane-4-carboxylate", "4(S)-Methyl 2,2-dimethyl-1,3-dioxolane-4-carboxylate", "Methyl (S)-glycerate acetonide", "Methyl (4S)-2,2-dimethyl-1,3-dioxolane-4-carboxylate", "Methyl (S)-2,2-dimethyl-1,3-dioxolane-4-carboxylate", "(S)-2,2-Dimethyl-[1,3]dioxolane-4-carboxylic acid methyl ester", "2,2-Dimethyl-(4S)-1,3-dioxolane-4-carboxylic acid methyl ester", "Methyl \u03b1,\u03b2-isopropylidene-L-glycerate", "Methyl (S)-2,2-dimethyl-1,3-dioxalane-4-carboxylate", "Methyl isopropylidene-L-glycerate"], "SMILES": "C(OC)(=O)C1OC(C)(C)OC1", "physical_data": {"Molecular Weight": "160.17", "Molecular Formula": "C7H12O4", "Boiling Point": "115-118 \u00b0C @ Press: 20 Torr"}}