{"cas_no": "60456-92-0", "cn_name": "5-\u7f9f\u57fa\u5421\u5511", "en_name": ["Pyrazol-5-ol", "3H-Pyrazol-3-one, 1,2-dihydro-", "3-Pyrazolin-5-one", "Pyrazol-3(or 5)-ol", "1,2-Dihydro-3H-pyrazol-3-one", "3-Pyrazolone", "1H-Pyrazol-3-ol", "Pyrazol-5-ol", "3-Hydroxypyrazole", "Pyrazol-3-ol", "1H-Pyrazol-5-ol", "3-Pyrazoline-5-one", "4-Pyrazolin-3-one", "NSC 520837", "1,2-Dihydropyrazol-3-one", "1H-Pyrazol-3(2H)-one", "2,3-Dihydro-1H-pyrazol-3-one"], "SMILES": "O=C1C=CNN1", "physical_data": {"Molecular Weight": "84.08", "Molecular Formula": "C3H4N2O", "Melting Point": "160-162 \u00b0C"}}