{"cas_no": "60456-26-0", "cn_name": "\u7f29\u6c34\u7518\u6cb9\u4e01\u9178\u916f", "en_name": ["(R)-Glycidyl butyrate", "Butanoic acid, (2R)-2-oxiranylmethyl ester", "Butanoic acid, oxiranylmethyl ester, (R)-", "Butanoic acid, (2R)-oxiranylmethyl ester", "(-)-Glycidyl butyrate", "(R)-Glycidyl butyrate", "(2R)-(-)-Glycidyl butyrate", "(R)-(-)-Glycidyl butyrate", "Butyric acid (R)-Glycidyl ester", "Butanoic acid (R)-oxiranylmethyl ester", "(R)-Oxiran-2-ylmethyl butyrate", "[(2R)-Oxiran-2-yl]methyl butanoate"], "SMILES": "C(OC(CCC)=O)C1CO1", "physical_data": {"Molecular Weight": "144.17", "Molecular Formula": "C7H12O3", "Boiling Point": "192.6 \u00b0C"}}