{"cas_no": "60468-54-4", "cn_name": "2-\u7532\u57fa-3-\u785d\u57fa\u82c4\u6c2f", "en_name": ["1-(Chloromethyl)-2-methyl-3-nitrobenzene", "Benzene, 1-(chloromethyl)-2-methyl-3-nitro-", "1-(Chloromethyl)-2-methyl-3-nitrobenzene", "\u03b11-Chloro-3-nitro-o-xylene", "2-Methyl-3-nitrobenzyl chloride", "1-Chloromethyl-2-methyl-3-nitrobenzene"], "SMILES": "N(=O)(=O)C1=C(C)C(CCl)=CC=C1", "physical_data": {"Molecular Weight": "185.61", "Molecular Formula": "C8H8ClNO2", "Melting Point": "43-44 \u00b0C"}}