{"cas_no": "6046-93-1", "cn_name": "\u4e00\u6c34\u5408\u918b\u9178\u94dc", "en_name": ["Copper diacetate monohydrate", "Acetic acid, copper(2+) salt, hydrate (2:1:1)", "Acetic acid, copper(2+) salt, monohydrate", "Copper diacetate monohydrate", "Cupric acetate monohydrate", "Copper(II) acetate monohydrate", "Copper(2+) acetate monohydrate", "Copper(2+) diacetate monohydrate"], "SMILES": "C(C)(O)=O.[Cu].O", "physical_data": {"Molecular Weight": "", "Molecular Formula": "C2H4O2.<sup>1</sup>/2Cu.<sup>1</sup>/2H2O", "Boiling Point": "115 \u00b0C", "Density": "1.882 g/cm\u00b3"}}