{"cas_no": "60468-36-2", "cn_name": "2-\u6c2f-2',5'-\u4e8c\u6c1f\u82ef\u4e59\u916e", "en_name": ["2-Chloro-1-(2,5-difluorophenyl)ethanone", "Ethanone, 2-chloro-1-(2,5-difluorophenyl)-", "2-Chloro-1-(2,5-difluorophenyl)ethanone", "2-Chloro-1-(2,5-difluorophenyl)ethan-1-one"], "SMILES": "C(CCl)(=O)C1=C(F)C=CC(F)=C1", "physical_data": {"Molecular Weight": "190.57", "Molecular Formula": "C8H5ClF2O", "Melting Point": "49-50 \u00b0C"}}