{"cas_no": "6047-01-4", "cn_name": "\u76d0\u9178\u91ce\u975b\u78b1", "en_name": ["1,5-Methano-8H-pyrido[1,2-a][1,5]diazocin-8-one, 1,2,3,4,5,6-hexahydro-, hydrochloride (1:1), (1R,5S)-", "1,5-Methano-8H-pyrido[1,2-a][1,5]diazocin-8-one, 1,2,3,4,5,6-hexahydro-, hydrochloride (1:1), (1R,5S)-", "Cytisine, monohydrochloride", "1,5-Methano-8H-pyrido[1,2-a][1,5]diazocin-8-one, 1,2,3,4,5,6-hexahydro-, monohydrochloride, (1R)-", "1,5-Methano-8H-pyrido[1,2-a][1,5]diazocin-8-one, 1,2,3,4,5,6-hexahydro-, monohydrochloride, (1R,5S)-", "Cytisine hydrochloride"], "SMILES": "O=C1N2C(C3CC(C2)CNC3)=CC=C1.Cl", "physical_data": {"Molecular Weight": "", "Molecular Formula": "C11H14N2O.ClH", "Melting Point": "260 \u00b0C"}}