{"cas_no": "6048-29-9", "cn_name": "(\u82ef\u7532\u9170\u57fa\u7532\u57fa)\u4e09\u82ef\u57fa\u6eb4\u5316\u81a6", "en_name": ["Phosphonium, (2-oxo-2-phenylethyl)triphenyl-, bromide (1:1)", "Phosphonium, (2-oxo-2-phenylethyl)triphenyl-, bromide (1:1)", "Phosphonium, phenacyltriphenyl-, bromide", "Phosphonium, (2-oxo-2-phenylethyl)triphenyl-, bromide", "Phenacyltriphenylphosphonium bromide", "(Benzoylmethyl)triphenylphosphonium bromide", "Triphenylphenacylphosphonium bromide"], "SMILES": "[P+](CC(=O)C1=CC=CC=C1)(C2=CC=CC=C2)(C3=CC=CC=C3)C4=CC=CC=C4.[Br-]", "physical_data": {"Molecular Weight": "", "Molecular Formula": "C26H22OP.Br", "Melting Point": "271-272 \u00b0C"}}