{"cas_no": "60481-51-8", "cn_name": "3,4-\u4e8c\u7532\u57fa\u82ef\u80bc\u76d0\u9178\u76d0", "en_name": ["Hydrazine, (3,4-dimethylphenyl)-, hydrochloride (1:1)", "Hydrazine, (3,4-dimethylphenyl)-, hydrochloride (1:1)", "Hydrazine, (3,4-dimethylphenyl)-, monohydrochloride", "3,4-Dimethylphenylhydrazine hydrochloride", "N-(3,4-Dimethylphenyl)hydrazine hydrochloride", "1-(3,4-Dimethylphenyl)hydrazine hydrochloride", "2-(3,4-Dimethylphenyl)hydrazinium chloride"], "SMILES": "N(N)C1=CC(C)=C(C)C=C1.Cl", "physical_data": {"Molecular Weight": "", "Molecular Formula": "C8H12N2.ClH", "Melting Point": "205-206 \u00b0C"}}