{"cas_no": "60481-36-9", "cn_name": "3,5-\u4e8c\u7532\u57fa\u82ef\u80bc\u76d0\u9178\u76d0", "en_name": ["Hydrazine, (3,5-dimethylphenyl)-, hydrochloride (1:1)", "Hydrazine, (3,5-dimethylphenyl)-, hydrochloride (1:1)", "Hydrazine, (3,5-dimethylphenyl)-, monohydrochloride", "(3,5-Dimethylphenyl)hydrazine hydrochloride", "(3,5-Dimethylphenyl)hydrazine monohydrochloride", "N-(3,5-Dimethylphenyl)hydrazine hydrochloride"], "SMILES": "N(N)C1=CC(C)=CC(C)=C1.Cl", "physical_data": {"Molecular Weight": "", "Molecular Formula": "C8H12N2.ClH", "Melting Point": "166-167 \u00b0C"}}