{"cas_no": "6048-82-4", "cn_name": "\u82ef\u7678\u916e", "en_name": ["Decanophenone", "1-Decanone, 1-phenyl-", "Decanophenone", "1-Phenyl-1-decanone", "Capriphenone", "Nonyl phenyl ketone", "NSC 22014"], "SMILES": "C(CCCCCCCCC)(=O)C1=CC=CC=C1", "physical_data": {"Molecular Weight": "232.36", "Molecular Formula": "C16H24O", "Boiling Point": "142-146 \u00b0C @ Press: 2 Torr", "Melting Point": "33.0-33.5 \u00b0C"}}