{"cas_no": "6049-54-3", "cn_name": "3-\u6c28\u57fa-3-(4-\u7f9f\u57fa\u82ef\u57fa)\u4e19\u9178", "en_name": ["\u03b2-Amino-4-hydroxybenzenepropanoic acid", "Benzenepropanoic acid, \u03b2-amino-4-hydroxy-", "Hydrocinnamic acid, \u03b2-amino-p-hydroxy-", "\u03b2-Amino-4-hydroxybenzenepropanoic acid", "\u03b2-Tyrosine", "3-Amino-3-(4-hydroxyphenyl)propanoic acid", "3-Amino-3-(4-hydroxyphenyl)propionic acid"], "SMILES": "C(CC(O)=O)(N)C1=CC=C(O)C=C1", "physical_data": {"Molecular Weight": "181.19", "Molecular Formula": "C9H11NO3", "Melting Point": "173.5-174.5 \u00b0C"}}