{"cas_no": "605-94-7", "cn_name": "2,3-\u4e8c\u7532\u6c27\u57fa-5-\u7532\u57fa-1,4-\u82ef\u918c", "en_name": ["2,3-Dimethoxy-5-methyl-1,4-benzoquinone", "2,5-Cyclohexadiene-1,4-dione, 2,3-dimethoxy-5-methyl-", "p-Benzoquinone, 2,3-dimethoxy-5-methyl-", "2,3-Dimethoxy-5-methyl-2,5-cyclohexadiene-1,4-dione", "Coenzyme Q0", "2,3-Dimethoxy-5-methyl-p-benzoquinone", "2,3-Dimethoxy-5-methyl-1,4-benzoquinone", "Ubiquinone 0", "Ubiquinone Q0", "CoQ0", "2-Methyl-4,5-dimethoxy-p-quinone", "2,3-Dimethoxy-5-methylbenzoquinone", "5,6-Dimethoxy-2-methyl-1,4-benzoquinone", "2-Methyl-5,6-dimethoxybenzoquinone", "Q0", "2,3-Dimethoxy-6-methyl-1,4-benzoquinone", "2,3-Dimethoxy-6-methyl-p-benzoquinone", "2,3-Dimethoxy-5-methylcyclohexa-2,5-diene-1,4-dione"], "SMILES": "O(C)C1=C(OC)C(=O)C(C)=CC1=O", "physical_data": {"Molecular Weight": "182.17", "Molecular Formula": "C9H10O4", "Melting Point": "59-60 \u00b0C"}}