{"cas_no": "605-54-9", "cn_name": "\u90bb\u82ef\u4e8c\u7532\u9178\u53cc-2-\u4e59\u6c27\u57fa\u4e59\u916f", "en_name": ["Bis(2-ethoxyethyl) phthalate", "1,2-Benzenedicarboxylic acid, 1,2-bis(2-ethoxyethyl) ester", "Phthalic acid, bis(2-ethoxyethyl) ester", "1,2-Benzenedicarboxylic acid, bis(2-ethoxyethyl) ester", "Ethanol, 2-ethoxy-, phthalate (2:1)", "Bis(2-ethoxyethyl) phthalate", "Diethoxyethyl phthalate", "Bis(ethoxyethyl) phthalate", "Di-2-ethoxyethyl phthalate", "NSC 4825"], "SMILES": "C(OCCOCC)(=O)C1=C(C(OCCOCC)=O)C=CC=C1", "physical_data": {"Molecular Weight": "310.34", "Molecular Formula": "C16H22O6", "Boiling Point": "345 \u00b0C", "Melting Point": "34 \u00b0C", "Density": "1.121 g/cm\u00b3 @ Temp: 20 \u00b0C"}}