{"cas_no": "605-71-0", "cn_name": "1,5-\u4e8c\u785d\u57fa\u8418", "en_name": ["1,5-Dinitronaphthalene", "Naphthalene, 1,5-dinitro-", "1,5-Dinitronaphthalene", "NSC 20593"], "SMILES": "N(=O)(=O)C=1C2=C(C(N(=O)=O)=CC=C2)C=CC1", "physical_data": {"Molecular Weight": "218.17", "Molecular Formula": "C10H6N2O4", "Melting Point": "219 \u00b0C", "Density": "1.595 g/cm\u00b3"}}