{"cas_no": "605-91-4", "cn_name": "\u7898\u5316\u9891\u54ea\u6c30\u9187", "en_name": ["Pinacyanol", "Quinolinium, 1-ethyl-2-[3-(1-ethyl-2(1H)-quinolinylidene)-1-propen-1-yl]-, iodide (1:1)", "Pinacyanol", "Quinolinium, 1-ethyl-2-[3-(1-ethyl-2(1H)-quinolylidene)propenyl]-, iodide", "Quinolinium, 1-ethyl-2-[3-(1-ethyl-2(1H)-quinolinylidene)-1-propenyl]-, iodide", "1,1\u2032-Diethyl-2,2\u2032-quinocarbocyanine iodide", "1,1\u2032-Diethyl-2,2\u2032-carbocyanine iodide", "Pinacyanole", "Sensitol red", "Pinacyanol iodide", "1-Ethyl-2-[3-[1-ethyl-2(1H)-quinolylidene]-1-propenyl]quinolinium iodide", "G 1700", "NK 3 (dye)", "NK 3", "1-Ethyl-2-[3-(1-ethyl-1H-quinolin-2-ylidene)-propenyl]-quinolinium", "iodide", "1-Ethyl-2-[3-(1-ethyl-1,2-dihydroquinolin-2-ylidene)prop-1-en-1-yl]quinolin-1-ium iodide", "1-Ethyl-2-[3-[1-ethyl-2(1H)-quinolinylidene]-1-propen-1-yl]quinolinium iodide"], "SMILES": "C(C)N1C=2C(C=CC1=CC=CC3=[N+](CC)C4=C(C=C3)C=CC=C4)=CC=CC2.[I-]", "physical_data": {"Molecular Weight": "", "Molecular Formula": "C25H25N2.I", "Melting Point": "276-278 \u00b0C (decomp)"}}