{"cas_no": "605-65-2", "cn_name": "\u4e39\u9170\u6c2f", "en_name": ["Dansyl chloride", "1-Naphthalenesulfonyl chloride, 5-(dimethylamino)-", "5-(Dimethylamino)-1-naphthalenesulfonyl chloride", "Dansyl chloride", "1-(Dimethylamino)-5-naphthalenesulfonyl chloride", "DNS chloride", "5-(N,N-Dimethylamino)-1-naphthalenesulfonyl chloride", "DNS-Cl", "NSC 83616", "8-Dimethylamino-1-naphthalenesulfonyl chloride"], "SMILES": "S(Cl)(=O)(=O)C=1C2=C(C(N(C)C)=CC=C2)C=CC1", "physical_data": {"Molecular Weight": "269.75", "Molecular Formula": "C12H12ClNO2S", "Melting Point": "70 \u00b0C"}}