{"cas_no": "605-62-9", "cn_name": "4-\u785d\u57fa-1-\u8418\u915a", "en_name": ["4-Nitro-1-naphthol", "1-Naphthalenol, 4-nitro-", "1-Naphthol, 4-nitro-", "4-Nitro-1-naphthalenol", "1-Hydroxy-4-nitronaphthalene", "4-Nitro-\u03b1-naphthol", "4-Nitro-1-naphthol", "4-Nitro-1-hydroxynaphthalene", "NSC 400336"], "SMILES": "N(=O)(=O)C=1C2=C(C(O)=CC1)C=CC=C2", "physical_data": {"Molecular Weight": "189.17", "Molecular Formula": "C10H7NO3", "Melting Point": "150-151 \u00b0C"}}