{"cas_no": "605-02-7", "cn_name": "1-\u82ef\u57fa\u8418", "en_name": ["1-Phenylnaphthalene", "Naphthalene, 1-phenyl-", "1-Phenylnaphthalene", "NSC 5257"], "SMILES": "C=1(C2=C(C=CC1)C=CC=C2)C3=CC=CC=C3", "physical_data": {"Molecular Weight": "204.27", "Molecular Formula": "C16H12", "Boiling Point": "334 \u00b0C", "Melting Point": "45 \u00b0C", "Density": "1.103 g/cm\u00b3 @ Temp: 20 \u00b0C"}}