{"cas_no": "605-50-5", "cn_name": "\u90bb\u82ef\u4e8c\u7532\u9178\u4e8c\u5f02\u620a\u916f", "en_name": ["Diisopentyl phthalate", "1,2-Benzenedicarboxylic acid, 1,2-bis(3-methylbutyl) ester", "Phthalic acid, diisopentyl ester", "1,2-Benzenedicarboxylic acid, bis(3-methylbutyl) ester", "Diisoamyl phthalate", "Diisopentyl phthalate", "Bis(3-methylbutyl) phthalate", "Palatinol DIPP", "NSC 17070"], "SMILES": "C(OCCC(C)C)(=O)C1=C(C(OCCC(C)C)=O)C=CC=C1", "physical_data": {"Molecular Weight": "306.40", "Molecular Formula": "C18H26O4", "Boiling Point": "335-337 \u00b0C @ Press: 744 Torr", "Melting Point": "334 \u00b0C (decomp)"}}