{"cas_no": "605-87-8", "cn_name": "3-\u7f9f\u57fa\u83f2", "en_name": ["3-Hydroxyphenanthrene", "3-Phenanthrenol", "3-Phenanthrol", "3-Hydroxyphenanthrene", "NSC 30984"], "SMILES": "OC1=CC2=C3C(=CC=C2C=C1)C=CC=C3", "physical_data": {"Molecular Weight": "194.23", "Molecular Formula": "C14H10O", "Melting Point": "120 \u00b0C"}}