{"cas_no": "605-03-8", "cn_name": "4-\u82ef\u57fa\u55b9\u5549", "en_name": ["4-Phenylquinoline", "Quinoline, 4-phenyl-", "4-Phenylquinoline"], "SMILES": "C=1(C2=C(N=CC1)C=CC=C2)C3=CC=CC=C3", "physical_data": {"Molecular Weight": "205.25", "Molecular Formula": "C15H11N", "Boiling Point": "140-142 \u00b0C @ Press: 2 Torr", "Melting Point": "61-62 \u00b0C"}}