{"cas_no": "605-23-2", "cn_name": "1-\u0392-D-\u963f\u62c9\u4f2f\u544b\u5583\u7cd6\u82f7\u80f8\u817a\u5627\u5576", "en_name": ["1-\u03b2-D-Arabinofuranosyl-5-methyl-2,4(1H,3H)-pyrimidinedione", "2,4(1H,3H)-Pyrimidinedione, 1-\u03b2-D-arabinofuranosyl-5-methyl-", "Thymine, 1-\u03b2-D-arabinofuranosyl-", "1-\u03b2-D-Arabinofuranosyl-5-methyl-2,4(1H,3H)-pyrimidinedione", "Spongothymidine", "Spongothymidin", "Thymine arabinoside", "1-\u03b2-D-Arabinofuranosylthymine", "Arabinosylthymine", "Ara-T", "5-Methylarabinosyluracil", "NSC 68929", "1-\u03b2-D Arabinofuranosylthymine", "Chembridge 5141213"], "SMILES": "OC1C(OC(CO)C1O)N2C(=O)NC(=O)C(C)=C2", "physical_data": {"Molecular Weight": "258.23", "Molecular Formula": "C10H14N2O6", "Melting Point": "246-247 \u00b0C"}}