{"cas_no": "605-45-8", "cn_name": "\u5bf9\u82ef\u4e8c\u7532\u9178\u5f02\u4e19\u8102", "en_name": ["Diisopropyl phthalate", "1,2-Benzenedicarboxylic acid, 1,2-bis(1-methylethyl) ester", "Phthalic acid, diisopropyl ester", "1,2-Benzenedicarboxylic acid, bis(1-methylethyl) ester", "Diisopropyl phthalate", "Diisopropyl phthalic acid", "NSC 15315"], "SMILES": "C(OC(C)C)(=O)C1=C(C(OC(C)C)=O)C=CC=C1", "physical_data": {"Molecular Weight": "250.29", "Molecular Formula": "C14H18O4", "Boiling Point": "130 \u00b0C @ Press: 12 Torr", "Density": "1.0740 g/cm\u00b3 @ Temp: 20 \u00b0C"}}