{"cas_no": "605-70-9", "cn_name": "1,4-\u8418\u4e8c\u7532\u9178", "en_name": ["1,4-Naphthalenedicarboxylic acid", "1,4-Naphthalenedicarboxylic acid", "1,4-Dicarboxynaphthalene"], "SMILES": "C(O)(=O)C=1C2=C(C(C(O)=O)=CC1)C=CC=C2", "physical_data": {"Molecular Weight": "216.19", "Molecular Formula": "C12H8O4", "Melting Point": "325 \u00b0C", "Density": "1.54 g/cm\u00b3"}}