{"cas_no": "605-48-1", "cn_name": "9,10-\u4e8c\u6c2f\u84bd", "en_name": ["9,10-Dichloroanthracene", "Anthracene, 9,10-dichloro-", "9,10-Dichloroanthracene", "NSC 42963"], "SMILES": "ClC=1C2=C(C(Cl)=C3C1C=CC=C3)C=CC=C2", "physical_data": {"Molecular Weight": "247.12", "Molecular Formula": "C14H8Cl2", "Melting Point": "208-209 \u00b0C"}}