{"cas_no": "605-38-9", "cn_name": "2,3-\u5421\u5576\u4e8c\u7532\u9178\u4e8c\u7532\u916f", "en_name": ["2,3-Dimethyl 2,3-pyridinedicarboxylate", "2,3-Pyridinedicarboxylic acid, 2,3-dimethyl ester", "2,3-Pyridinedicarboxylic acid, dimethyl ester", "2,3-Dimethyl 2,3-pyridinedicarboxylate", "Dimethyl quinolinate", "Dimethyl 2,3-pyridinedicarboxylate", "2,3-Bis(methoxycarbonyl)pyridine", "Quinolinic acid dimethyl ester", "NSC 17026", "2,3-Dimethyl pyridine-2,3-dicarboxylate"], "SMILES": "C(OC)(=O)C1=C(C(OC)=O)N=CC=C1", "physical_data": {"Molecular Weight": "195.17", "Molecular Formula": "C9H9NO4", "Melting Point": "52-53.5 \u00b0C"}}