{"cas_no": "605-39-0", "cn_name": "2\uff0c2-\u4e8c\u7532\u57fa\u8054\u82ef", "en_name": ["2,2\u2032-Dimethylbiphenyl", "1,1\u2032-Biphenyl, 2,2\u2032-dimethyl-", "o,o\u2032-Bitolyl", "2,2\u2032-Dimethyl-1,1\u2032-biphenyl", "2,2\u2032-Dimethylbiphenyl", "2,2\u2032-Ditolyl", "2,2\u2032-Bitolyl", "o,o\u2032-Bitoluene", "NSC 90724", "1-Methyl-2-(2-methylphenyl)benzene"], "SMILES": "CC1=C(C=CC=C1)C2=C(C)C=CC=C2", "physical_data": {"Molecular Weight": "182.26", "Molecular Formula": "C14H14", "Boiling Point": "256 \u00b0C", "Melting Point": "19.5 \u00b0C", "Density": "0.9906 g/cm\u00b3 @ Temp: 20 \u00b0C"}}