{"cas_no": "605-55-0", "cn_name": "2-\u83f2\u9187", "en_name": ["2-Hydroxyphenanthrene", "2-Phenanthrenol", "2-Phenanthrol", "2-Hydroxyphenanthrene", "NSC 2576"], "SMILES": "OC1=CC=2C(=C3C(=CC2)C=CC=C3)C=C1", "physical_data": {"Molecular Weight": "194.23", "Molecular Formula": "C14H10O", "Boiling Point": "395-396 \u00b0C", "Melting Point": "168-169 \u00b0C"}}