{"cas_no": "605-69-6", "cn_name": "\u9a6c\u4f11\u9ec4", "en_name": ["2,4-Dinitro-1-naphthol", "1-Naphthalenol, 2,4-dinitro-", "1-Naphthol, 2,4-dinitro-", "2,4-Dinitro-1-naphthalenol", "Martius yellow", "2,4-Dinitronaphthol", "2,4-Dinitro-1-naphthol", "Martinsgelb", "1-Hydroxy-2,4-dinitronaphthalene", "NSC 6148"], "SMILES": "N(=O)(=O)C=1C2=C(C(O)=C(N(=O)=O)C1)C=CC=C2", "physical_data": {"Molecular Weight": "234.16", "Molecular Formula": "C10H6N2O5", "Melting Point": "137.5 \u00b0C"}}