{"cas_no": "605-32-3", "cn_name": "2-\u7f9f\u57fa\u84bd\u918c", "en_name": ["2-Hydroxyanthraquinone", "9,10-Anthracenedione, 2-hydroxy-", "Anthraquinone, 2-hydroxy-", "2-Hydroxy-9,10-anthracenedione", "2-Hydroxyanthraquinone", "2-Hydroxy-9,10-anthraquinone", "\u03b2-Hydroxyanthraquinone", "NSC 2595", "2-Hydroxy-9,10-dihydroanthracene-9,10-dione"], "SMILES": "O=C1C=2C(C(=O)C=3C1=CC=CC3)=CC=C(O)C2", "physical_data": {"Molecular Weight": "224.21", "Molecular Formula": "C14H8O3", "Melting Point": "306 \u00b0C"}}