{"cas_no": "6050-13-1", "cn_name": "\u8054\u82ef\u9178\u9150", "en_name": ["Diphenic anhydride", "Dibenz[c,e]oxepin-5,7-dione", "Diphenic anhydride", "2,2\u2032-Diphenyldicarboxylic anhydride", "2,2\u2032-Biphenyldicarboxylic anhydride", "2,2\u2032-Diphenic anhydride", "Diphenic acid anhydride", "NSC 116225", "NSC 67689", "2,2\u2032-Biphenyldicarboxylic acid anhydride", "Dibenzo[c,e]oxepine-5,7-dione"], "SMILES": "O=C1C=2C(C=3C(C(=O)O1)=CC=CC3)=CC=CC2", "physical_data": {"Molecular Weight": "224.21", "Molecular Formula": "C14H8O3", "Melting Point": "217 \u00b0C"}}