{"cas_no": "6051-13-4", "cn_name": "2-\u73af\u5df1\u57fa\u4e19\u9178", "en_name": ["2-Cyclohexylpropanoic acid", "Cyclohexaneacetic acid, \u03b1-methyl-", "\u03b1-Methylcyclohexaneacetic acid", "Propanoic acid, 2-cyclohexyl-", "2-Cyclohexylpropionic acid", "2-Cyclohexylpropanoic acid", "NSC 225250"], "SMILES": "C(C(O)=O)(C)C1CCCCC1", "physical_data": {"Molecular Weight": "156.22", "Molecular Formula": "C9H16O2", "Boiling Point": "120-121 \u00b0C @ Press: 4.7 Torr", "Melting Point": "62 \u00b0C", "Density": "1.0270 g/cm\u00b3 @ Temp: 20 \u00b0C"}}