{"cas_no": "6051-43-0", "cn_name": "\u5bf9\u82ef\u4e8c\u7532\u9178\u5355\u9170\u80fa", "en_name": ["4-(Aminocarbonyl)benzoic acid", "Benzoic acid, 4-(aminocarbonyl)-", "Terephthalamic acid", "4-(Aminocarbonyl)benzoic acid", "p-Carbamoylbenzoic acid", "4-Carbamoylbenzoic acid", "p-Carboxybenzamide"], "SMILES": "C(N)(=O)C1=CC=C(C(O)=O)C=C1", "physical_data": {"Molecular Weight": "165.15", "Molecular Formula": "C8H7NO3", "Melting Point": "208 \u00b0C"}}