{"cas_no": "6051-87-2", "cn_name": "\u03b2-\u8418\u9ec4\u916e", "en_name": ["\u03b2-Naphthoflavone", "1H-Naphtho[2,1-b]pyran-1-one, 3-phenyl-", "5,6-Benzoflavone", "3-Phenyl-1H-naphtho[2,1-b]pyran-1-one", "\u03b2-Naphthoflavone", "NSC 136015", "BNF", "3-Phenyl-1H-benzo[f]chromen-1-one", "3-Phenylbenzo[f]chromen-1-one"], "SMILES": "O=C1C2=C3C(=CC=C2OC(=C1)C4=CC=CC=C4)C=CC=C3", "physical_data": {"Molecular Weight": "272.30", "Molecular Formula": "C19H12O2", "Melting Point": "164-165 \u00b0C"}}