{"cas_no": "60524-15-4", "cn_name": "2-CHLORO-5-NITRONICOTINAMIDE", "en_name": ["2-Chloro-5-nitro-3-pyridinecarboxamide", "3-Pyridinecarboxamide, 2-chloro-5-nitro-", "2-Chloro-5-nitro-3-pyridinecarboxamide", "2-Chloro-5-nitronicotinamide"], "SMILES": "C(N)(=O)C=1C=C(N(=O)=O)C=NC1Cl", "physical_data": {"Molecular Weight": "201.57", "Molecular Formula": "C6H4ClN3O3", "Melting Point": "181-183 \u00b0C"}}