{"cas_no": "6052-73-9", "cn_name": "5,6-\u4e8c\u6c22-2(1H)-\u5421\u5576\u916e", "en_name": ["5,6-Dihydro-2(1H)-pyridinone", "2(1H)-Pyridinone, 5,6-dihydro-", "2(1H)-Pyridone, 5,6-dihydro-", "5,6-Dihydro-2(1H)-pyridinone", "2-Pentenoic acid, 5-amino-, lactam", "3,4-Dehydro-2-piperidone", "5,6-Dihydro-2(1H)-pyridone", "5,6-Dihydro-1H-pyridin-2-one", "5,6-Dihydropyridin-2(1H)-one", "1,2,5,6-Tetrahydropyridin-2-one", "2,3-Dihydro-1H-pyridin-6-one"], "SMILES": "O=C1C=CCCN1", "physical_data": {"Molecular Weight": "97.12", "Molecular Formula": "C5H7NO", "Melting Point": "187-188 \u00b0C"}}