{"cas_no": "60526-81-0", "cn_name": "1-(1,1-\u4e8c\u7532\u57fa\u5e9a\u57fa)-3,5-\u4e8c\u7532\u6c27\u57fa\u82ef", "en_name": ["1-(1,1-Dimethylheptyl)-3,5-dimethoxybenzene", "Benzene, 1-(1,1-dimethylheptyl)-3,5-dimethoxy-", "1-(1,1-Dimethylheptyl)-3,5-dimethoxybenzene", "5-(1,1-Dimethylheptyl)resorcinol dimethyl ether", "2,6-Dimethoxy-4-(1,1-dimethylheptyl)benzene", "5-(1,1-Dimethylheptyl)-1,3-dimethoxybenzene", "1,3-Dimethoxy-5-(2-methyloctan-2-yl)benzene", "1,3-Dimethoxy-5-(1,1-dimethylheptyl)benzene"], "SMILES": "C(CCCCCC)(C)(C)C1=CC(OC)=CC(OC)=C1", "physical_data": {"Molecular Weight": "264.40", "Molecular Formula": "C17H28O2", "Boiling Point": "122 \u00b0C @ Press: 0.5 Torr", "Density": "0.9558 g/cm\u00b3 @ Temp: 20 \u00b0C"}}