{"cas_no": "6052-68-2", "cn_name": "2,3,4,9-\u56db\u6c22-1H-beta-\u5494\u5549-3-\u7532\u9178", "en_name": ["1,2,3,4-Tetrahydro-\u03b2-carboline-3-carboxylic acid", "1H-Pyrido[3,4-b]indole-3-carboxylic acid, 2,3,4,9-tetrahydro-", "2,3,4,9-Tetrahydro-1H-pyrido[3,4-b]indole-3-carboxylic acid", "1,2,3,4-Tetrahydro-\u03b2-carboline-3-carboxylic acid", "1,2,3,4-Tetrahydro-9H-pyrido[3,4-b]indole-3-carboxylic acid", "dl-1,2,3,4-Tetrahydro-9H-pyrido[3,4-b]indole-3-carboxylic acid", "DL-1,2,3,4-Tetrahydro-3-carboxy-2-carboline", "(\u00b1)-1,2,3,4-Tetrahydro-3-carboxy-2-carboline", "NSC 96912", "1,2,3,4-Tetrahydropyrido[3,4-b]indole-3-carboxylic acid", "Tpi", "1H,2H,3H,4H,9H-Pyrido[3,4-b]indole-3-carboxylic acid", "2,3,4,9-Tetrahydro-1H-\u03b2-carboline-3-carboxylic acid"], "SMILES": "C(O)(=O)C1CC=2C=3C(NC2CN1)=CC=CC3", "physical_data": {"Molecular Weight": "216.24", "Molecular Formula": "C12H12N2O2", "Melting Point": "298-300 \u00b0C (decomp)"}}