{"cas_no": "6053-81-2", "cn_name": "\u73af\u620a\u57fa\u7532\u80fa", "en_name": ["Cyclopentanemethanamine", "Cyclopentanemethanamine", "Cyclopentanemethylamine", "Aminomethylcyclopentane", "(Cyclopentylmethyl)amine", "1-Cyclopentylmethanamine", "Cyclopentylmethanamine"], "SMILES": "C(N)C1CCCC1", "physical_data": {"Molecular Weight": "99.17", "Molecular Formula": "C6H13N", "Boiling Point": "140 \u00b0C"}}