{"cas_no": "60532-63-0", "cn_name": "\u56db(4-\u6c28\u57fa\u82ef\u57fa)\u7532\u70f7", "en_name": ["4,4\u2032,4\u2032\u2032,4\u2032\u2032\u2032-Methanetetrayltetrakis[benzenamine]", "Benzenamine, 4,4\u2032,4\u2032\u2032,4\u2032\u2032\u2032-methanetetrayltetrakis-", "4,4\u2032,4\u2032\u2032,4\u2032\u2032\u2032-Methanetetrayltetrakis[benzenamine]", "Tetrakis(4-aminophenyl)methane", "Tetra(4-aminophenyl)methane", "Tetra(4-anilyl)methane", "Tetra(p-aminophenyl)methane"], "SMILES": "C(C1=CC=C(N)C=C1)(C2=CC=C(N)C=C2)(C3=CC=C(N)C=C3)C4=CC=C(N)C=C4", "physical_data": {"Molecular Weight": "380.48", "Molecular Formula": "C25H24N4", "Melting Point": "262 \u00b0C"}}