{"cas_no": "6053-02-7", "cn_name": "N/A", "en_name": ["4-Vinylcatechol", "1,2-Benzenediol, 4-ethenyl-", "Pyrocatechol, 4-vinyl-", "4-Ethenyl-1,2-benzenediol", "3,4-Styrenediol", "Vinylcatechol", "4-Vinylpyrocatechol", "4-Vinylcatechol", "3,4-Dihydroxystyrene", "4-Vinyl-1,2-benzenediol", "2-Hydroxy-4-vinylphenol"], "SMILES": "C(=C)C1=CC(O)=C(O)C=C1", "physical_data": {"Molecular Weight": "136.15", "Molecular Formula": "C8H8O2", "Melting Point": "50-53 \u00b0C"}}