{"cas_no": "60547-97-9", "cn_name": "2-\u54cc\u55ea\u57fa-4-\u6c28\u57fa-6,7-\u4e8c\u7532\u6c27\u57fa\u55b9\u5511\u5549", "en_name": ["2-(1-Piperazinyl)-4-amino-6,7-dimethoxyquinazoline", "4-Quinazolinamine, 6,7-dimethoxy-2-(1-piperazinyl)-", "6,7-Dimethoxy-2-(1-piperazinyl)-4-quinazolinamine", "4-Amino-6,7-dimethoxy-2-(1-piperazinyl)quinazoline", "4-Amino-2-(1-piperazinyl)-6,7-dimethoxyquinazoline", "2-(1-Piperazinyl)-4-amino-6,7-dimethoxyquinazoline", "2-(4-Piperazinyl)-4-amino-6,7-dimethoxyquinazoline", "2-Piperazino-6,7-dimethoxy-4-quinazolinamine"], "SMILES": "NC=1C2=C(N=C(N1)N3CCNCC3)C=C(OC)C(OC)=C2", "physical_data": {"Molecular Weight": "289.33", "Molecular Formula": "C14H19N5O2", "Melting Point": "230-232 \u00b0C"}}