{"cas_no": "60559-98-0", "cn_name": "P1075", "en_name": ["N-Cyano-N\u2032-(1,1-dimethylpropyl)-N\u2032\u2032-3-pyridinylguanidine", "Guanidine, N-cyano-N\u2032-(1,1-dimethylpropyl)-N\u2032\u2032-3-pyridinyl-", "N-Cyano-N\u2032-(1,1-dimethylpropyl)-N\u2032\u2032-3-pyridinylguanidine", "P 1075"], "SMILES": "C(=NC(CC)(C)C)(NC=1C=CC=NC1)NC#N", "physical_data": {"Molecular Weight": "231.30", "Molecular Formula": "C12H17N5", "Melting Point": "186-187 \u00b0C"}}