{"cas_no": "6055-19-2", "cn_name": "\u73af\u78f7\u9170\u80fa", "en_name": ["Cyclophosphamide monohydrate", "2H-1,3,2-Oxazaphosphorin-2-amine, N,N-bis(2-chloroethyl)tetrahydro-, 2-oxide, hydrate (1:1)", "2H-1,3,2-Oxazaphosphorine, 2-[bis(2-chloroethyl)amino]tetrahydro-, 2-oxide, monohydrate", "2H-1,3,2-Oxazaphosphorin-2-amine, N,N-bis(2-chloroethyl)tetrahydro-, 2-oxide, monohydrate", "2-[Bis(2-chloroethyl)amino]tetrahydro-2H-1,3,2-oxazaphosphorine-2-oxide monohydrate", "Cyclophosphamide monohydrate", "Endoxan monohydrate", "Cyclophosphamide hydrate"], "SMILES": "N(CCCl)(CCCl)P1(=O)NCCCO1.O", "physical_data": {"Molecular Weight": "", "Molecular Formula": "C7H15Cl2N2O2P.H2O", "Melting Point": "41-45 \u00b0C"}}