{"cas_no": "6055-52-3", "cn_name": "1,6-\u5df1\u4e8c\u80fa\u76d0\u9178\u76d0", "en_name": ["1,6-Hexanediamine, hydrochloride (1:2)", "1,6-Hexanediamine, hydrochloride (1:2)", "1,6-Hexanediamine, dihydrochloride", "Hexamethylenediamine dihydrochloride", "Hexanediamine dihydrochloride", "1,6-Diaminohexane dihydrochloride", "1,6-Hexamethylenediamine dihydrochloride"], "SMILES": "C(CCCN)CCN.Cl", "physical_data": {"Molecular Weight": "", "Molecular Formula": "C6H16N2.2ClH", "Melting Point": "248 \u00b0C"}}