{"cas_no": "60563-36-2", "cn_name": "5,6-2\u6c2f-1-\u4e59\u57fa-1H-\u82ef\u5e76\u54aa\u5511-2\u916e", "en_name": ["5,6-Dichloro-1-ethyl-1,3-dihydro-2H-benzimidazol-2-one", "2H-Benzimidazol-2-one, 5,6-dichloro-1-ethyl-1,3-dihydro-", "2-Benzimidazolinone, 5,6-dichloro-1-ethyl-", "5,6-Dichloro-1-ethyl-1,3-dihydro-2H-benzimidazol-2-one", "DCEBIO"], "SMILES": "C(C)N1C=2C(NC1=O)=CC(Cl)=C(Cl)C2", "physical_data": {"Molecular Weight": "231.08", "Molecular Formula": "C9H8Cl2N2O", "Melting Point": "205-207 \u00b0C"}}