{"cas_no": "60568-05-0", "cn_name": "\u62cc\u79cd\u80fa", "en_name": ["Furmecyclox", "3-Furancarboxamide, N-cyclohexyl-N-methoxy-2,5-dimethyl-", "N-Cyclohexyl-N-methoxy-2,5-dimethyl-3-furancarboxamide", "BAS 389", "BAS 389F", "Furmetamid", "Xyligen B", "Furmecyclox", "GUS 215", "Campogran", "BAS 389-01F"], "SMILES": "C(N(OC)C1CCCCC1)(=O)C=2C=C(C)OC2C", "physical_data": {"Molecular Weight": "251.32", "Molecular Formula": "C14H21NO3", "Melting Point": "33 \u00b0C"}}