{"cas_no": "60560-33-0", "cn_name": "\u5421\u90a3\u5730\u5c14", "en_name": ["Pinacidil", "Guanidine, N-cyano-N\u2032-4-pyridinyl-N\u2032\u2032-(1,2,2-trimethylpropyl)-", "N-Cyano-N\u2032-4-pyridinyl-N\u2032\u2032-(1,2,2-trimethylpropyl)guanidine", "P 1134", "Pinacidil", "S 1230", "(\u00b1)-Pinacidil", "(R,S)-Pinacidil", "Pindac", "1-(3,3-Dimethylbutan-2-yl)-2-cyano-3-(pyridin-4-yl)guanidine", "MeSH ID: D020110"], "SMILES": "C(=NC=1C=CN=CC1)(NC(C(C)(C)C)C)NC#N", "physical_data": {"Molecular Weight": "245.32", "Molecular Formula": "C13H19N5", "Melting Point": "110-114 \u00b0C"}}