{"cas_no": "6057-60-9", "cn_name": "4-(4-\u8054\u82ef)\u4e01\u9178", "en_name": ["[1,1\u2032-Biphenyl]-4-butanoic acid", "[1,1\u2032-Biphenyl]-4-butanoic acid", "Butyric acid, 4-(4-biphenylyl)-", "4-Biphenylbutyric acid", "Butyric acid, \u03b3-4-biphenylyl-", "\u03b3-(4-Biphenylyl)butyric acid", "\u03b3-(4-Diphenylyl)butyric acid", "\u03b3-(p-Xenyl)butyric acid", "4-p-Biphenylylbutanoic acid", "4-(4-Phenylphenyl)butyric acid", "4-([1,1\u2032-Biphenyl]-4-yl)butanoic acid"], "SMILES": "C(CCC(O)=O)C1=CC=C(C=C1)C2=CC=CC=C2", "physical_data": {"Molecular Weight": "240.30", "Molecular Formula": "C16H16O2", "Boiling Point": "190 \u00b0C @ Press: 0.3 Torr", "Melting Point": "118 \u00b0C"}}