{"cas_no": "606-59-7", "cn_name": "\u6731\u7802\u7cbe\u9178", "en_name": ["Cinnabarinic acid", "3H-Phenoxazine-1,9-dicarboxylic acid, 2-amino-3-oxo-", "2-Amino-3-oxo-3H-phenoxazine-1,9-dicarboxylic acid", "Cinnabarinic acid", "Cinnabaric acid", "Cinnavalininic acid"], "SMILES": "C(O)(=O)C=1C=2C(OC=3C(N2)=C(C(O)=O)C=CC3)=CC(=O)C1N", "physical_data": {"Molecular Weight": "300.22", "Molecular Formula": "C14H8N2O6", "Melting Point": "&gt;300 \u00b0C"}}