{"cas_no": "606-43-9", "cn_name": "1-\u7532\u57fa-2-\u55b9\u5549\u916e", "en_name": ["1-Methyl-2(1H)-quinolinone", "2(1H)-Quinolinone, 1-methyl-", "Carbostyril, 1-methyl-", "1-Methyl-2(1H)-quinolinone", "N-Methylcarbostyril", "1-Methyl-2(1H)-quinolone", "1-Methylcarbostyril", "N-Methyl-2-quinolone", "1-Methyl-1,2-dihydroquinolin-2-one", "NSC 5873"], "SMILES": "CN1C=2C(C=CC1=O)=CC=CC2", "physical_data": {"Molecular Weight": "159.18", "Molecular Formula": "C10H9NO", "Boiling Point": "325 \u00b0C", "Melting Point": "74 \u00b0C"}}