{"cas_no": "606-37-1", "cn_name": "1,3-\u4e8c\u785d\u57fa\u8418", "en_name": ["1,3-Dinitronaphthalene", "Naphthalene, 1,3-dinitro-", "1,3-Dinitronaphthalene", "NSC 74478"], "SMILES": "N(=O)(=O)C=1C2=C(C=C(N(=O)=O)C1)C=CC=C2", "physical_data": {"Molecular Weight": "218.17", "Molecular Formula": "C10H6N2O4", "Melting Point": "148 \u00b0C"}}