{"cas_no": "606-45-1", "cn_name": "2-\u7532\u6c27\u57fa\u82ef\u7532\u9178\u7532\u916f", "en_name": ["Methyl 2-methoxybenzoate", "Benzoic acid, 2-methoxy-, methyl ester", "o-Anisic acid, methyl ester", "Benzoic acid, o-methoxy-, methyl ester", "Methyl o-methoxybenzoate", "o-Methoxybenzoic acid methyl ester", "Methyl 2-methoxybenzoate", "Methyl o-anisate", "2-Methoxybenzoic acid methyl ester", "NSC 406256", "Methyl 2-anisate"], "SMILES": "C(OC)(=O)C1=C(OC)C=CC=C1", "physical_data": {"Molecular Weight": "166.17", "Molecular Formula": "C9H10O3", "Boiling Point": "246.5 \u00b0C", "Density": "1.1467 g/cm\u00b3 @ Temp: 20 \u00b0C"}}