{"cas_no": "606-21-3", "cn_name": "2,6-\u4e8c\u785d\u57fa\u6c2f\u82ef", "en_name": ["2-Chloro-1,3-dinitrobenzene", "Benzene, 2-chloro-1,3-dinitro-", "2-Chloro-1,3-dinitrobenzene", "1-Chloro-2,6-dinitrobenzene", "2,6-Dinitrochlorobenzene", "1,3-Dinitro-2-chlorobenzene", "2,6-Dinitro-1-chlorobenzene", "NSC 105590", "NSC 21276"], "SMILES": "N(=O)(=O)C1=C(Cl)C(N(=O)=O)=CC=C1", "physical_data": {"Molecular Weight": "202.55", "Molecular Formula": "C6H3ClN2O4", "Boiling Point": "315 \u00b0C", "Melting Point": "86-87 \u00b0C", "Density": "1.6867 g/cm\u00b3 @ Temp: 16.5 \u00b0C"}}