{"cas_no": "606-35-9", "cn_name": "\u82e6\u5473\u9178\u7532\u916f", "en_name": ["2,4,6-Trinitroanisole", "Benzene, 2-methoxy-1,3,5-trinitro-", "Anisole, 2,4,6-trinitro-", "2-Methoxy-1,3,5-trinitrobenzene", "2,4,6-Trinitroanisole", "Methyl picrate", "1-Methoxy-2,4,6-trinitrobenzene", "NSC 36950", "Trinitroanisol", "TNA"], "SMILES": "O(C)C1=C(N(=O)=O)C=C(N(=O)=O)C=C1N(=O)=O", "physical_data": {"Molecular Weight": "243.13", "Molecular Formula": "C7H5N3O7", "Melting Point": "69 \u00b0C", "Density": "1.610 g/cm\u00b3"}}