{"cas_no": "606-18-8", "cn_name": "2-\u6c28\u57fa-3-\u785d\u57fa\u82ef\u7532\u9178", "en_name": ["2-Amino-3-nitrobenzoic acid", "Benzoic acid, 2-amino-3-nitro-", "Anthranilic acid, 3-nitro-", "2-Amino-3-nitrobenzoic acid", "3-Nitroanthranilic acid", "NSC 1162"], "SMILES": "C(O)(=O)C1=C(N)C(N(=O)=O)=CC=C1", "physical_data": {"Molecular Weight": "182.13", "Molecular Formula": "C7H6N2O4", "Melting Point": "208-209 \u00b0C"}}