{"cas_no": "606-28-0", "cn_name": "\u90bb\u82ef\u7532\u9170\u82ef\u7532\u9178\u7532\u916f", "en_name": ["Methyl o-benzoylbenzoate", "Benzoic acid, 2-benzoyl-, methyl ester", "Benzoic acid, o-benzoyl-, methyl ester", "o-(Methoxycarbonyl)benzophenone", "Methyl o-benzoylbenzoate", "Methyl 2-benzoylbenzoate", "Speedcure MBB", "NSC 3797", "Initiator 1056", "OBM 100", "Daitocure OB", "OMBB", "Runtecure 1056", "SB-PI 711", "2-Benzoylbenzoic acid methyl ester", "Genocure MBB", "Omnirad OMBB", "Photoinitiator MOBB", "PI MBB", "JRCure OMBB"], "SMILES": "C(=O)(C1=C(C(OC)=O)C=CC=C1)C2=CC=CC=C2", "physical_data": {"Molecular Weight": "240.25", "Molecular Formula": "C15H12O3", "Boiling Point": "351 \u00b0C", "Melting Point": "52 \u00b0C"}}