{"cas_no": "606-46-2", "cn_name": "N,N-\u4e8c\u4e59\u57fa-\u90bb\u7532\u57fa\u82ef\u80fa", "en_name": ["N,N-Diethyl-o-toluidine", "Benzenamine, N,N-diethyl-2-methyl-", "o-Toluidine, N,N-diethyl-", "N,N-Diethyl-2-methylbenzenamine", "N,N-Diethyl-o-toluidine", "2-(Dimethylamino)toluene", "N,N-Diethyl-2-methylaniline", "N,N-Diethyl-o-methylaniline", "NSC 8708"], "SMILES": "N(CC)(CC)C1=C(C)C=CC=C1", "physical_data": {"Molecular Weight": "163.26", "Molecular Formula": "C11H17N", "Boiling Point": "209 \u00b0C", "Melting Point": "-60 \u00b0C"}}