{"cas_no": "606-04-2", "cn_name": "\u5e15\u9a6c\u6eb4", "en_name": ["Pamabrom", "1H-Purine-2,6-dione, 8-bromo-3,9-dihydro-1,3-dimethyl-, compd. with 2-amino-2-methyl-1-propanol (1:1)", "Theophylline, 8-bromo-, compd. with 2-amino-2-methyl-1-propanol (1:1)", "1H-Purine-2,6-dione, 8-bromo-3,7-dihydro-1,3-dimethyl-, compd. with 2-amino-2-methyl-1-propanol (1:1)", "1-Propanol, 2-amino-2-methyl-, compd. with 8-bromotheophylline (1:1)", "1-Propanol, 2-amino-2-methyl-, compd. with 8-bromo-3,7-dihydro-1,3-dimethyl-1H-purine-2,6-dione (1:1)", "2-Amino-2-methyl-1-propanol 8-bromotheophyllinate", "Pamabrom", "Predema", "Sunril", "Premsyn PMS"], "SMILES": "C(CO)(C)(C)N.O=C1C2=C(N(C)C(=O)N1C)N=C(Br)N2", "physical_data": {"Molecular Weight": "", "Molecular Formula": "C7H7BrN4O2.C4H11NO", "Melting Point": "300 \u00b0C (decomp)"}}