{"cas_no": "606-17-7", "cn_name": "\u80c6\u5f71\u9178", "en_name": ["Adipiodon", "Benzoic acid, 3,3\u2032-[(1,6-dioxo-1,6-hexanediyl)diimino]bis[2,4,6-triiodo-", "Benzoic acid, 3,3\u2032-(adipoyldiimino)bis[2,4,6-triiodo-", "3,3\u2032-[(1,6-Dioxo-1,6-hexanediyl)diimino]bis[2,4,6-triiodobenzoic acid]", "Adipic acid bis(3-carboxy-2,4,6-triiodoanilide)", "Adipic acid di(3-carboxy-2,4,6-triiodoanilide)", "Adipiodon", "Adipiodone", "3,3\u2032-(Adipoyldiimino)-bis(2,4,6-triiodobenzoic acid)", "N,N\u2032-Adipylbis(3-amino-2,4,6-triiodobenzoic acid)", "Bilignost", "Biligrafin", "Iodipamide", "Cholografin", "Transbilix", "Iodipamic acid", "3,3\u2032-(adipoylbis(azanediyl))bis(2,4,6-triiodobenzoic acid)", "MeSH ID: D007458"], "SMILES": "N(C(CCCCC(NC1=C(I)C(C(O)=O)=C(I)C=C1I)=O)=O)C2=C(I)C(C(O)=O)=C(I)C=C2I", "physical_data": {"Molecular Weight": "1139.76", "Molecular Formula": "C20H14I6N2O6", "Melting Point": "307 \u00b0C (decomp)"}}