{"cas_no": "606-20-2", "cn_name": "2,6-\u4e8c\u785d\u57fa\u7532\u82ef", "en_name": ["2,6-Dinitrotoluene", "Benzene, 2-methyl-1,3-dinitro-", "Toluene, 2,6-dinitro-", "2-Methyl-1,3-dinitrobenzene", "2,6-Dinitrotoluene", "2,6-DNT", "1-Methyl-2,6-dinitrobenzene"], "SMILES": "N(=O)(=O)C1=C(C)C(N(=O)=O)=CC=C1", "physical_data": {"Molecular Weight": "182.13", "Molecular Formula": "C7H6N2O4", "Boiling Point": "285 \u00b0C", "Melting Point": "66 \u00b0C", "Density": "1.2833 g/cm\u00b3 @ Temp: 111 \u00b0C"}}