{"cas_no": "606-83-7", "cn_name": "3,3-\u4e8c\u82ef\u57fa\u4e19\u9178", "en_name": ["Diphenylpropionic acid", "Benzenepropanoic acid, \u03b2-phenyl-", "Propionic acid, 3,3-diphenyl-", "\u03b2-Phenylbenzenepropanoic acid", "Diphenylpropionic acid", "3,3-Diphenylpropanoic acid", "3,3-Diphenylpropionic acid", "NSC 631492", "NSC 6797"], "SMILES": "C(CC(O)=O)(C1=CC=CC=C1)C2=CC=CC=C2", "physical_data": {"Molecular Weight": "226.27", "Molecular Formula": "C15H14O2", "Melting Point": "154-155 \u00b0C"}}