{"cas_no": "606-12-2", "cn_name": "2,4'-\u4e8c\u7f9f\u57fa\u4e8c\u82ef\u7532\u916e", "en_name": ["2,4\u2032-Dihydroxybenzophenone", "Methanone, (2-hydroxyphenyl)(4-hydroxyphenyl)-", "Benzophenone, 2,4\u2032-dihydroxy-", "(2-Hydroxyphenyl)(4-hydroxyphenyl)methanone", "2,4\u2032-Dihydroxybenzophenone", "NSC 2832", "2-(4-Hydroxybenzoyl)phenol", "UV 5"], "SMILES": "C(=O)(C1=C(O)C=CC=C1)C2=CC=C(O)C=C2", "physical_data": {"Molecular Weight": "214.22", "Molecular Formula": "C13H10O3", "Melting Point": "150-151 \u00b0C"}}