{"cas_no": "606-00-8", "cn_name": "3,5-\u4e8c\u6eb4\u90bb\u6c28\u57fa\u82ef\u7532\u9178\u7532\u916f", "en_name": ["Methyl 2-amino-3,5-dibromobenzoate", "Benzoic acid, 2-amino-3,5-dibromo-, methyl ester", "Anthranilic acid, 3,5-dibromo-, methyl ester", "Methyl 3,5-dibromoanthranilate", "NSC 3823", "Methyl 3,5-dibromo-2-aminobenzoate", "Methyl 2-amino-3,5-dibromobenzoate", "2-Amino-3,5-dibromo-benzoic acid methyl ester"], "SMILES": "C(OC)(=O)C1=C(N)C(Br)=CC(Br)=C1", "physical_data": {"Molecular Weight": "308.95", "Molecular Formula": "C8H7Br2NO2", "Melting Point": "90 \u00b0C"}}