{"cas_no": "606-27-9", "cn_name": "2-\u785d\u57fa\u82ef\u7532\u9178\u7532\u916f", "en_name": ["Methyl 2-nitrobenzoate", "Benzoic acid, 2-nitro-, methyl ester", "Benzoic acid, o-nitro-, methyl ester", "Methyl 2-nitrobenzoate", "Methyl o-nitrobenzoate", "2-(Methoxycarbonyl)nitrobenzene", "o-Nitrobenzoic acid methyl ester", "NSC 4136", "2-(Methoxycarbonyl)-1-nitrobenzene", "2-Nitrobenzoic acid methyl ester"], "SMILES": "C(OC)(=O)C1=C(N(=O)=O)C=CC=C1", "physical_data": {"Molecular Weight": "181.15", "Molecular Formula": "C8H7NO4", "Boiling Point": "275 \u00b0C", "Melting Point": "-13 \u00b0C"}}