{"cas_no": "606-87-1", "cn_name": "N,N-\u4e8c\u82ef\u82c4\u80fa", "en_name": ["N,N-Diphenylbenzenemethanamine", "Benzenemethanamine, N,N-diphenyl-", "Benzylamine, N,N-diphenyl-", "N,N-Diphenylbenzenemethanamine", "N-Benzyl-N-phenylaniline", "N-Benzyldiphenylamine", "Benzyldiphenylamine", "N,N-Diphenylbenzylamine", "Diphenylbenzylamine", "N-Benzyl-N-phenylbenzenamine", "N-Phenyl-N-benzylaniline"], "SMILES": "N(CC1=CC=CC=C1)(C2=CC=CC=C2)C3=CC=CC=C3", "physical_data": {"Molecular Weight": "259.35", "Molecular Formula": "C19H17N", "Melting Point": "88-88.5 \u00b0C"}}