{"cas_no": "606-23-5", "cn_name": "1,3-\u831a\u6ee1\u4e8c\u916e", "en_name": ["1,3-Indandione", "1H-Indene-1,3(2H)-dione", "1,3-Indandione", "Indandione", "1,3-Diketohydrindene", "1,3-Indanedione", "Indene-1,3(2H)-dione", "NSC 26329", "NSC 6312", "1,3-Dioxobenzocyclopentane", "2H-Indene-1,3-dione"], "SMILES": "O=C1C=2C(C(=O)C1)=CC=CC2", "physical_data": {"Molecular Weight": "146.14", "Molecular Formula": "C9H6O2", "Boiling Point": "112-115 \u00b0C @ Press: 9-10 Torr", "Melting Point": "131.5 \u00b0C (decomp)"}}