{"cas_no": "606-58-6", "cn_name": "\u4e30\u52a0\u9709\u7d20", "en_name": ["Toyocamycin", "7H-Pyrrolo[2,3-d]pyrimidine-5-carbonitrile, 4-amino-7-\u03b2-D-ribofuranosyl-", "Toyocamycin", "4-Amino-7-\u03b2-D-ribofuranosyl-7H-pyrrolo[2,3-d]pyrimidine-5-carbonitrile", "Antibiotic 1037", "Toyocamycin nucleoside", "Unamycin B", "Vengicide", "Antibiotic E 212", "4-Amino-5-cyano-7-(\u03b2-D-ribofuranosyl)pyrrolo[2,3-d]pyrimidine", "Toyokamycin", "7-Cyano-7-deazaadenosine", "MT 1155", "NSC 63701", "NSC 99843", "SIPI 763-1", "MeSH ID: D014127"], "SMILES": "OC1C(N2C=3C(C(C#N)=C2)=C(N)N=CN3)OC(CO)C1O", "physical_data": {"Molecular Weight": "291.26", "Molecular Formula": "C12H13N5O4", "Melting Point": "243 \u00b0C"}}