{"cas_no": "606-26-8", "cn_name": "2-\u785d\u57fa\u82c4\u80bc", "en_name": ["2-Nitrobenzohydrazide", "Benzoic acid, 2-nitro-, hydrazide", "Benzoic acid, o-nitro-, hydrazide", "o-Nitrobenzoylhydrazine", "o-Nitrobenzoic acid hydrazide", "o-Nitrobenzhydrazide", "2-Nitrobenzohydrazide", "o-Nitrobenzoylhydrazide", "2-Nitrobenzoic acid hydrazide", "o-Nitrobenzoic hydrazide", "2-Nitrobenzoylhydrazine", "2-Nitrobenzenecarboxylic acid hydrazide", "2-Nitrobenzoyl acid hydrazide", "NSC 61870", "2-Nitrobenzoic hydrazide", "INHd 19", "2-Nitrobenzoylhydrazide", "2-Nitrobenzhydrazide"], "SMILES": "C(NN)(=O)C1=C(N(=O)=O)C=CC=C1", "physical_data": {"Molecular Weight": "181.15", "Molecular Formula": "C7H7N3O3", "Melting Point": "124 \u00b0C"}}