{"cas_no": "606-31-5", "cn_name": "2,6-\u4e8c\u785d\u57fa\u82ef\u7532\u919b", "en_name": ["2,6-Dinitrobenzaldehyde", "Benzaldehyde, 2,6-dinitro-", "2,6-Dinitrobenzaldehyde"], "SMILES": "C(=O)C1=C(N(=O)=O)C=CC=C1N(=O)=O", "physical_data": {"Molecular Weight": "196.12", "Molecular Formula": "C7H4N2O5", "Melting Point": "123 \u00b0C"}}