{"cas_no": "606-22-4", "cn_name": "2,6-\u4e8c\u785d\u57fa\u82ef\u80fa", "en_name": ["2,6-Dinitroaniline", "Benzenamine, 2,6-dinitro-", "Aniline, 2,6-dinitro-", "2,6-Dinitrobenzenamine", "2,6-Dinitroaniline", "2-Amino-1,3-dinitrobenzene", "1-Amino-2,6-dinitrobenzene", "NSC 93399", "2,6-Dinitro-phenylamine"], "SMILES": "N(=O)(=O)C1=C(N)C(N(=O)=O)=CC=C1", "physical_data": {"Molecular Weight": "183.12", "Molecular Formula": "C6H5N3O4", "Melting Point": "141.5 \u00b0C"}}