{"cas_no": "60607-34-3", "cn_name": "\u5965\u6c99\u7c73\u7279", "en_name": ["Oxatomide", "2H-Benzimidazol-2-one, 1-[3-[4-(diphenylmethyl)-1-piperazinyl]propyl]-1,3-dihydro-", "1-[3-[4-(Diphenylmethyl)-1-piperazinyl]propyl]-1,3-dihydro-2H-benzimidazol-2-one", "Oxatomide", "R 35443", "KW 4354", "Dasten", "Celtect", "Tinset", "Cobiona", "NSC 309710", "1-[3-[4-(Diphenylmethyl)piperazin-1-ium-1-yl]propyl]-1H-benzimidazol-2-olate", "1-[3-(4-Benzhydrylpiperazin-1-ium-1-yl)propyl]benzimidazol-2-olate"], "SMILES": "C(N1CCN(CCCN2C=3C(NC2=O)=CC=CC3)CC1)(C4=CC=CC=C4)C5=CC=CC=C5", "physical_data": {"Molecular Weight": "426.55", "Molecular Formula": "C27H30N4O", "Melting Point": "153.6 \u00b0C"}}