{"cas_no": "606129-90-2", "cn_name": "3,6-(\u4e8c\u5494\u5511\u57fa)\u4e09\u5494\u5511", "en_name": ["9,3\u2032:6\u2032,9\u2032\u2032-Ter-9H-carbazole", "9,3\u2032:6\u2032,9\u2032\u2032-Ter-9H-carbazole", "3,6-Bis(carbazol-9-yl)carbazole", "3,6-Di(9-carbazolyl)-9H-carbazole", "3,6-Dicarbazolylcarbazole", "9\u2032H-[9,3\u2032,6\u2032,9]Tercarbazole", "3,6-Bis(9H-carbazol-9-yl)-9H-carbazole", "9\u2032H-9,3\u2032:6\u2032,9\u2032\u2032-Tercarbazole", "3,6-Bis(N-carbazolyl)carbazole"], "SMILES": "N1(C=2C(C=3C1=CC=CC3)=CC=CC2)C=4C=C5C=6C(NC5=CC4)=CC=C(C6)N7C=8C(C=9C7=CC=CC9)=CC=CC8", "physical_data": {"Molecular Weight": "497.59", "Molecular Formula": "C36H23N3", "Melting Point": "&gt;300 \u00b0C"}}