{"cas_no": "60628-96-8", "cn_name": "\u8054\u82ef\u82c4\u5511", "en_name": ["Bifonazole", "1H-Imidazole, 1-([1,1\u2032-biphenyl]-4-ylphenylmethyl)-", "1-([1,1\u2032-Biphenyl]-4-ylphenylmethyl)-1H-imidazole", "Trifonazole", "Bifonazole", "BAY-h 4502", "Mycospor", "Bifazol", "(\u00b1)-Bifonazole", "Mycosporan", "Amycor", "Bedriol", "Azolmen", "A-One-L", "Bicutrin", "bifosin", "Agispor", "1-[Phenyl(4-phenylphenyl)methyl]-1H-imidazole", "1-[Phenyl-(4-phenylphenyl)methyl]imidazole", "1-(Biphenyl-4-yl-phenyl-methyl)-1H-imidazole"], "SMILES": "C(C1=CC=C(C=C1)C2=CC=CC=C2)(N3C=CN=C3)C4=CC=CC=C4", "physical_data": {"Molecular Weight": "310.39", "Molecular Formula": "C22H18N2", "Melting Point": "142 \u00b0C"}}