{"cas_no": "60633-25-2", "cn_name": "2-\u6eb4-4-\u6c2f\u82ef\u7532\u919a", "en_name": ["2-Bromo-4-chloroanisole", "Benzene, 2-bromo-4-chloro-1-methoxy-", "2-Bromo-4-chloro-1-methoxybenzene", "2-Bromo-4-chloroanisole", "4-Chloro-2-bromoanisole", "1-Bromo-5-chloro-2-methoxybenzene"], "SMILES": "O(C)C1=C(Br)C=C(Cl)C=C1", "physical_data": {"Molecular Weight": "221.48", "Molecular Formula": "C7H6BrClO", "Boiling Point": "127-130 \u00b0C @ Press: 12 Torr", "Melting Point": "29-30 \u00b0C", "Density": "1.6170 g/cm\u00b3 @ Temp: 20 \u00b0C"}}