{"cas_no": "6064-90-0", "cn_name": "\u4e8c\u5341\u4e00\u70f7\u9178\u7532\u916f", "en_name": ["Methyl heneicosanoate", "Heneicosanoic acid, methyl ester", "Methyl heneicosanoate", "Methyl n-heneicosanoate", "n-Heneicosanoic acid methyl ester"], "SMILES": "C(CCCCCCCCCCCCCCC)CCCCC(OC)=O", "physical_data": {"Molecular Weight": "340.58", "Molecular Formula": "C22H44O2", "Melting Point": "47.2 \u00b0C"}}