{"cas_no": "60646-30-2", "cn_name": "\u4e09\u6c1f-1-9-\u84bd\u4e59\u9187", "en_name": ["(+)-2,2,2-Trifluoro-1-(9-anthryl)ethanol", "9-Anthracenemethanol, \u03b1-(trifluoromethyl)-, (\u03b1S)-", "9-Anthracenemethanol, \u03b1-(trifluoromethyl)-, (S)-", "(\u03b1S)-\u03b1-(Trifluoromethyl)-9-anthracenemethanol", "Pirkle's Alcohol", "(S)-(+)-1-(9-Anthryl)-2,2,2-trifluoroethanol", "(+)-2,2,2-Trifluoro-1-(9-anthryl)ethanol", "(S)-2,2,2-Trifluoro-1-(9-anthracenyl)ethanol", "(+)-1-(9-Anthryl)-2,2,2-trifluoroethanol", "(S)-1-(9-Anthryl)-2,2,2-trifluoro-1-ethanol", "(S)-1-(Anthracen-9-yl)-2,2,2-trifluoroethanol", "(S)-1-(Anthracen-10-yl)-2,2,2-trifluoroethanol", "(S)-2,2,2-Trifluoro-1-(9-anthryl)ethanol", "(S)-1-(9-Anthryl)-2,2,2-trifluoroethanol", "(1S)-1-(9-Anthryl)-2,2,2-trifluoroethanol", "(1S)-1-Anthracen-9-yl-2,2,2-trifluoroethanol"], "SMILES": "C(C(F)(F)F)(O)C=1C2=C(C=C3C1C=CC=C3)C=CC=C2", "physical_data": {"Molecular Weight": "276.25", "Molecular Formula": "C16H11F3O", "Melting Point": "135-136 \u00b0C"}}