{"cas_no": "6064-63-7", "cn_name": "\u0391-\u7fa5\u5df1\u9178", "en_name": ["(\u00b1)-2-Hydroxyhexanoic acid", "Hexanoic acid, 2-hydroxy-", "2-Hydroxyhexanoic acid", "2-Hydroxycaproic acid", "\u03b1-Hydroxy-n-caproic acid", "\u03b1-Hydroxycaproic acid", "\u03b1-Hydroxyhexanoic acid", "DL-\u03b1-Hydroxycaproic acid", "DL-2-Hydroxycaproic acid", "DL-2-Hydroxyhexanoic acid", "(\u00b1)-2-Hydroxyhexanoic acid", "(\u00b1)-2-Hydroxycaproic acid", "(\u00b1)-\u03b1-Hydroxycaproic acid", "dl-2-Hydroxyhexanoic acid", "NSC 227903"], "SMILES": "C(C(O)=O)(CCCC)O", "physical_data": {"Molecular Weight": "132.16", "Molecular Formula": "C6H12O3", "Boiling Point": "305 \u00b0C", "Melting Point": "61 \u00b0C"}}