{"cas_no": "6064-83-1", "cn_name": "\u78f7\u67f3\u9178", "en_name": ["Fosfosal", "Benzoic acid, 2-(phosphonooxy)-", "Salicylic acid, dihydrogen phosphate", "Salicylic acid, phosphate", "2-(Phosphonooxy)benzoic acid", "o-Carboxyphenyl phosphate", "Salicyl phosphate", "2-Carboxyphenyl dihydrogen phosphate", "Phosphoric acid o-carboxyphenyl ester", "UR 1522", "Fosfosal", "UR 1521", "Disdolen", "2-Phosphonoxybenzoic acid", "NSC 46475"], "SMILES": "C(O)(=O)C1=C(OP(=O)(O)O)C=CC=C1", "physical_data": {"Molecular Weight": "218.10", "Molecular Formula": "C7H7O6P", "Melting Point": "169 \u00b0C"}}