{"cas_no": "6065-82-3", "cn_name": "2,2-\u4e8c\u4e59\u6c27\u57fa\u4e59\u9178\u4e59\u916f", "en_name": ["Ethyl diethoxyacetate", "Acetic acid, 2,2-diethoxy-, ethyl ester", "Glyoxylic acid, ethyl ester, 2-(diethyl acetal)", "Glyoxylic acid, ethyl ester, diethyl acetal", "Acetic acid, diethoxy-, ethyl ester", "Ethyl 2,2-diethoxyacetate", "Ethyl diethoxyacetate", "Ethyl 2,2-bis(ethyloxy)acetate", "2,2-Di(ethoxy)acetic acid ethyl ester"], "SMILES": "C(C(OCC)=O)(OCC)OCC", "physical_data": {"Molecular Weight": "176.21", "Molecular Formula": "C8H16O4", "Boiling Point": "199 \u00b0C"}}