{"cas_no": "60656-87-3", "cn_name": "\u82c4\u6c27\u57fa\u4e59\u919b", "en_name": ["(Benzyloxy)acetaldehyde", "Acetaldehyde, 2-(phenylmethoxy)-", "Acetaldehyde, (phenylmethoxy)-", "Acetaldehyde, (benzyloxy)-", "2-(Phenylmethoxy)acetaldehyde", "(Benzyloxy)acetaldehyde", "2-(Benzyloxy)ethanal", "2-(Benzyloxy)acetaldehyde", "\u03b1-(Benzyloxy)acetaldehyde", "(Phenylmethoxy)acetaldehyde", "(Benzyloxy)ethanal"], "SMILES": "C(OCC=O)C1=CC=CC=C1", "physical_data": {"Molecular Weight": "150.17", "Molecular Formula": "C9H10O2", "Boiling Point": "110-112 \u00b0C", "Melting Point": "116 \u00b0C", "Density": "1.105 g/cm\u00b3 @ Temp: 18 \u00b0C"}}