{"cas_no": "6065-63-0", "cn_name": "\u4e8c\u4e19\u57fa\u4e19\u4e8c\u9178\u4e8c\u4e59\u916f", "en_name": ["1,3-Diethyl 2,2-dipropylpropanedioate", "Propanedioic acid, 2,2-dipropyl-, 1,3-diethyl ester", "Malonic acid, dipropyl-, diethyl ester", "Propanedioic acid, dipropyl-, diethyl ester", "1,3-Diethyl 2,2-dipropylpropanedioate", "Diethyl dipropylmalonate", "Diethyl 2,2-dipropylmalonate", "NSC 163902"], "SMILES": "C(C(OCC)=O)(C(OCC)=O)(CCC)CCC", "physical_data": {"Molecular Weight": "244.33", "Molecular Formula": "C13H24O4", "Boiling Point": "127 \u00b0C @ Press: 4 Torr"}}