{"cas_no": "6066-49-5", "cn_name": "\u6b63\u4e01\u57fa\u82ef\u915e", "en_name": ["Butylphthalide", "1(3H)-Isobenzofuranone, 3-butyl-", "Phthalide, 3-butyl-", "3-Butyl-1(3H)-isobenzofuranone", "Butylphthalide", "3-n-Butylphthalide", "3-Butylphthalide", "(\u00b1)-3-Butylphthalide", "3-Butyl-1,3-dihydro-2-benzofuran-1-one", "3-Butyl-3H-2-benzofuran-1-one", "L-3-N-Butylphthalide", "L-NBP"], "SMILES": "C(CCC)C1C=2C(C(=O)O1)=CC=CC2", "physical_data": {"Molecular Weight": "190.24", "Molecular Formula": "C12H14O2", "Boiling Point": "138-139 \u00b0C @ Press: 6 Torr"}}