{"cas_no": "6066-82-6", "cn_name": "N-\u7f9f\u57fa\u4e01\u4e8c\u9170\u4e9a\u80fa", "en_name": ["N-Hydroxysuccinimide", "2,5-Pyrrolidinedione, 1-hydroxy-", "Succinimide, N-hydroxy-", "1-Hydroxy-2,5-pyrrolidinedione", "N-Hydroxysuccinimide", "Hydroxysuccinimide", "1-Hydroxysuccinimide", "N-Hydroxy-2,5-dioxopyrrolidine", "NSC 74335", "N-Hydroxypyrrolidine-2,5-dione", "NHS"], "SMILES": "ON1C(=O)CCC1=O", "physical_data": {"Molecular Weight": "115.09", "Molecular Formula": "C4H5NO3", "Melting Point": "97-98 \u00b0C"}}