{"cas_no": "60669-69-4", "cn_name": "\u4e09\u6c1f\u7532\u78fa\u9178\u4e8c\u4e01\u787c", "en_name": ["Methanesulfonic acid, 1,1,1-trifluoro-, anhydride with B,B-dibutylborinic acid", "Methanesulfonic acid, 1,1,1-trifluoro-, anhydride with B,B-dibutylborinic acid", "Methanesulfonic acid, trifluoro-, anhydride with dibutylborinic acid", "Dibutylboryl trifluoromethanesulfonate", "Dibutylboryl triflate", "Dibutylboron triflate", "Di-n-butylboron triflate", "Dibutyl(trifluoromethylsulfonyloxy)borane", "Bu2BOTf", "Dibutylboron trifluoromethanesulfonate"], "SMILES": "B(OS(C(F)(F)F)(=O)=O)(CCCC)CCCC", "physical_data": {"Molecular Weight": "274.11", "Molecular Formula": "C9H18BF3O3S", "Boiling Point": "37 \u00b0C @ Press: 0.12 Torr"}}