{"cas_no": "6068-72-0", "cn_name": "\u5bf9\u6c30\u57fa\u82ef\u7532\u9170\u6c2f", "en_name": ["4-Cyanobenzoyl chloride", "Benzoyl chloride, 4-cyano-", "Benzoyl chloride, p-cyano-", "4-Cyanobenzoyl chloride", "p-Cyanobenzoyl chloride", "4-Cyanobenzoic acid chloride"], "SMILES": "C(Cl)(=O)C1=CC=C(C#N)C=C1", "physical_data": {"Molecular Weight": "165.58", "Molecular Formula": "C8H4ClNO", "Boiling Point": "160-161 \u00b0C @ Press: 25 Torr", "Melting Point": "65 \u00b0C"}}