{"cas_no": "60687-36-7", "cn_name": "(R)-(1-\u6c28\u57fa\u4e59\u57fa)\u81a6\u9178", "en_name": ["(R)-(-)-(1-Aminoethyl)phosphonic acid", "Phosphonic acid, P-[(1R)-1-aminoethyl]-", "Phosphonic acid, (1-aminoethyl)-, (R)-", "Phosphonic acid, [(1R)-1-aminoethyl]-", "P-[(1R)-1-Aminoethyl]phosphonic acid", "(R)-(1-Aminoethyl)phosphonic acid", "(1R)-1-Aminoethylphosphonic acid", "L-(1-Aminoethyl)phosphonate", "(R)-(-)-(1-Aminoethyl)phosphonic acid", "L-1-Aminoethylphosphonic acid", "L-Fosfalin", "[(1R)-1-Aminoethyl]phosphonic acid", "(R)-(1-Aminoethyl)phosphonic acid"], "SMILES": "P(C(C)N)(=O)(O)O", "physical_data": {"Molecular Weight": "125.06", "Molecular Formula": "C2H8NO3P", "Melting Point": "277-278 \u00b0C"}}