{"cas_no": "6069-98-3", "cn_name": "\u987a-1-\u5f02\u4e19\u57fa-4-\u7532\u57fa\u73af\u5df1\u70f7", "en_name": ["cis-1-Isopropyl-4-methylcyclohexane", "Cyclohexane, 1-methyl-4-(1-methylethyl)-, cis-", "p-Menthane, cis-", "cis-1-Methyl-4-(1-methylethyl)cyclohexane", "cis-p-Menthane", "1-Isopropyl-cis-4-methylcyclohexane", "1-Methyl-cis-4-isopropylcyclohexane", "cis-1-Isopropyl-4-methylcyclohexane"], "SMILES": "C(C)(C)C1CCC(C)CC1", "physical_data": {"Molecular Weight": "140.27", "Molecular Formula": "C10H20", "Boiling Point": "172 \u00b0C", "Melting Point": "-89.9 \u00b0C", "Density": "0.8075 g/cm\u00b3 @ Temp: 20 \u00b0C"}}