{"cas_no": "607-97-6", "cn_name": "2-\u4e59\u57fa\u4e59\u9170\u4e59\u9178\u4e59\u916f", "en_name": ["Ethyl 2-ethylacetoacetate", "Butanoic acid, 2-ethyl-3-oxo-, ethyl ester", "Acetoacetic acid, 2-ethyl-, ethyl ester", "Ethyl 2-ethyl-3-ketobutyrate", "2-Ethylacetoacetic acid ethyl ester", "Ethyl \u03b1-acetylbutyrate", "Ethyl \u03b1-ethylacetoacetate", "Ethyl 2-acetylbutyrate", "Ethyl 2-ethyl-3-oxobutyrate", "Ethyl 2-ethylacetylacetate", "Ethyl 2-ethylacetoacetate", "Ethyl 2-acetylbutanoate", "Ethyl 2-ethyl-3-oxobutanoate", "NSC 53775", "2-Ethyl-3-oxobutanoic acid ethyl ester", "2-Ethyl-3-oxo-butyric acid ethyl ester"], "SMILES": "C(C(OCC)=O)(C(C)=O)CC", "physical_data": {"Molecular Weight": "158.20", "Molecular Formula": "C8H14O3", "Boiling Point": "198 \u00b0C", "Melting Point": "170 \u00b0C (decomp)", "Density": "0.98102 g/cm\u00b3 @ Temp: 420 \u00b0C"}}