{"cas_no": "607-99-8", "cn_name": "2,4,6-\u4e09\u6eb4\u82ef\u7532\u919a", "en_name": ["2,4,6-Tribromoanisole", "Benzene, 1,3,5-tribromo-2-methoxy-", "Anisole, 2,4,6-tribromo-", "1,3,5-Tribromo-2-methoxybenzene", "2,4,6-Tribromoanisole", "Methyl 2,4,6-tribromophenyl ether", "NSC 2218", "1-Methoxy-2,4,6-tribromobenzene", "TBA"], "SMILES": "O(C)C1=C(Br)C=C(Br)C=C1Br", "physical_data": {"Molecular Weight": "344.83", "Molecular Formula": "C7H5Br3O", "Boiling Point": "298 \u00b0C", "Melting Point": "88 \u00b0C", "Density": "2.4912 g/cm\u00b3"}}