{"cas_no": "607-34-1", "cn_name": "5-\u785d\u57fa\u55b9\u5549", "en_name": ["5-Nitroquinoline", "Quinoline, 5-nitro-", "5-Nitroquinoline", "NSC 65583", "5-(Hydroxyl[oxido]amino)quinoline"], "SMILES": "N(=O)(=O)C=1C2=C(C=CC1)N=CC=C2", "physical_data": {"Molecular Weight": "174.16", "Molecular Formula": "C9H6N2O2", "Melting Point": "74 \u00b0C"}}