{"cas_no": "607-35-2", "cn_name": "8-\u785d\u57fa\u55b9\u5549", "en_name": ["8-Nitroquinoline", "Quinoline, 8-nitro-", "8-Nitroquinoline", "NSC 346"], "SMILES": "N(=O)(=O)C=1C2=C(C=CC1)C=CC=N2", "physical_data": {"Molecular Weight": "174.16", "Molecular Formula": "C9H6N2O2", "Melting Point": "91.5 \u00b0C"}}