{"cas_no": "607-28-3", "cn_name": "\u975b\u7ea2-3-\u809f", "en_name": ["Isatin \u03b2-oxime", "1H-Indole-2,3-dione, 3-oxime", "Indole-2,3-dione, 3-oxime", "Isatin, 3-oxime", "Isatin \u03b2-oxime", "NSC 9355", "3-(Hydroxyimino)indolin-2-one", "3-Hydroxyimino-2-indolone"], "SMILES": "N(O)=C1C=2C(NC1=O)=CC=CC2", "physical_data": {"Molecular Weight": "162.15", "Molecular Formula": "C8H6N2O2", "Melting Point": "217 \u00b0C"}}