{"cas_no": "607-24-9", "cn_name": "2-\u785d\u57fa-1-\u8418\u915a", "en_name": ["2-Nitro-1-naphthalenol", "1-Naphthalenol, 2-nitro-", "1-Naphthol, 2-nitro-", "2-Nitro-1-naphthalenol", "2-Nitro-1-naphthol", "1-Hydroxy-2-nitronaphthalene", "NSC 43140"], "SMILES": "OC=1C2=C(C=CC1N(=O)=O)C=CC=C2", "physical_data": {"Molecular Weight": "189.17", "Molecular Formula": "C10H7NO3", "Melting Point": "127-128 \u00b0C"}}