{"cas_no": "607-88-5", "cn_name": "2-\u7f9f\u57fa\u82ef\u7532\u9178-4-\u7532\u57fa\u82c4\u57fa\u916f", "en_name": ["p-Cresyl salicylate", "Benzoic acid, 2-hydroxy-, 4-methylphenyl ester", "Salicylic acid, p-tolyl ester", "p-Cresyl salicylate", "p-Tolyl salicylate", "4-Methylphenyl salicylate", "NSC 60999", "p-Tolyl 2-hydroxybenzoate"], "SMILES": "C(OC1=CC=C(C)C=C1)(=O)C2=C(O)C=CC=C2", "physical_data": {"Molecular Weight": "228.24", "Molecular Formula": "C14H12O3", "Boiling Point": "90-92 \u00b0C", "Melting Point": "39 \u00b0C"}}