{"cas_no": "607-42-1", "cn_name": "1-\u84bd\u7532\u9178", "en_name": ["1-Anthracenecarboxylic acid", "1-Anthracenecarboxylic acid", "1-Anthroic acid"], "SMILES": "C(O)(=O)C=1C2=C(C=C3C(=C2)C=CC=C3)C=CC1", "physical_data": {"Molecular Weight": "222.24", "Molecular Formula": "C15H10O2", "Melting Point": "103-104 \u00b0C"}}