{"cas_no": "607-85-2", "cn_name": "\u6c34\u6768\u9178\u5f02\u4e19\u916f", "en_name": ["Isopropyl salicylate", "Benzoic acid, 2-hydroxy-, 1-methylethyl ester", "Salicylic acid, isopropyl ester", "Isopropyl salicylate", "Isopropyl o-hydroxybenzoate", "2-Hydroxybenzoic acid isopropyl ester"], "SMILES": "C(OC(C)C)(=O)C1=C(O)C=CC=C1", "physical_data": {"Molecular Weight": "180.20", "Molecular Formula": "C10H12O3", "Boiling Point": "238 \u00b0C"}}