{"cas_no": "607-81-8", "cn_name": "\u82c4\u57fa\u4e19\u4e8c\u9178\u4e8c\u4e59\u916f", "en_name": ["1,3-Diethyl 2-(phenylmethyl)propanedioate", "Propanedioic acid, 2-(phenylmethyl)-, 1,3-diethyl ester", "Malonic acid, benzyl-, diethyl ester", "Propanedioic acid, (phenylmethyl)-, diethyl ester", "1,3-Diethyl 2-(phenylmethyl)propanedioate", "Diethyl benzylmalonate", "Benzylmalonic acid diethyl ester", "2-Benzylmalonic acid diethyl ester", "Diethyl 2-benzylmalonate", "1,1-Bis(ethoxycarbonyl)-2-phenylethane", "(Phenylmethyl)propanedioic acid diethyl ester", "NSC 41169", "NSC 631631", "NSC 8720", "Diethyl 2-benzylpropanedioate", "1,3-Diethyl 2-benzylpropanedioate"], "SMILES": "C(C(OCC)=O)(C(OCC)=O)CC1=CC=CC=C1", "physical_data": {"Molecular Weight": "250.29", "Molecular Formula": "C14H18O4", "Boiling Point": "300 \u00b0C", "Density": "1.0763 g/cm\u00b3 @ Temp: 20 \u00b0C"}}