{"cas_no": "607-80-7", "cn_name": "\u829d\u9ebb\u7d20", "en_name": ["Sesamin", "1,3-Benzodioxole, 5,5\u2032-(tetrahydro-1H,3H-furo[3,4-c]furan-1,4-diyl)bis-, (1S,3aR,4S,6aR)-", "1,3-Benzodioxole, 5,5\u2032-(tetrahydro-1H,3H-furo[3,4-c]furan-1,4-diyl)bis-, [1S-(1\u03b1,3a\u03b1,4\u03b1,6a\u03b1)]-", "1H,3H-Furo[3,4-c]furan, tetrahydro-1,4-bis[3,4-(methylenedioxy)phenyl]-, (1S,3aR,4S,6aR)-", "1H,3H-Furo[3,4-c]furan, 1,3-benzodioxole deriv.", "(1S,3aR,4S,6aR)-5,5\u2032-(Tetrahydro-1H,3H-furo[3,4-c]furan-1,4-diyl)bis[1,3-benzodioxole]", "Sesamin", "Fagarol", "Sesamin, (+)-", "(+)-Sesamin", "d-Sesamin", "Tetrahydro-1,4-bis[3,4-(methylenedioxy)phenyl]-1H,3H-furo[3,4-c]furan", "Sezamin", "NSC 36403", "Zengxiaomin", "\u03b4-Sesamin", "Sesavita"], "SMILES": "C12C(C(OC1)C=3C=C4C(=CC3)OCO4)COC2C=5C=C6C(=CC5)OCO6", "physical_data": {"Molecular Weight": "354.35", "Molecular Formula": "C20H18O6", "Melting Point": "124 \u00b0C"}}