{"cas_no": "607-86-3", "cn_name": "2-\u7532\u57fa\u82ef\u7532\u9178\u9150", "en_name": ["Benzoic acid, 2-methyl-, 1,1\u2032-anhydride", "Benzoic acid, 2-methyl-, 1,1\u2032-anhydride", "o-Toluic anhydride", "Benzoic acid, 2-methyl-, anhydride", "o-Toluic acid anhydride", "2-Methylbenzoic anhydride", "2-Methylbenzoic acid anhydride", "(2-Methylbenzoyl) 2-methylbenzoate"], "SMILES": "C(OC(=O)C1=C(C)C=CC=C1)(=O)C2=C(C)C=CC=C2", "physical_data": {"Molecular Weight": "254.28", "Molecular Formula": "C16H14O3", "Melting Point": "30-37 \u00b0C"}}