{"cas_no": "607-00-1", "cn_name": "N,N-\u4e8c\u82ef\u57fa\u7532\u919b", "en_name": ["Diphenylformamide", "Formamide, N,N-diphenyl-", "N,N-Diphenylformamide", "Diphenylformamide", "N-Phenylformanilide", "NSC 3864", "N-Formyldiphenylamine"], "SMILES": "N(C=O)(C1=CC=CC=C1)C2=CC=CC=C2", "physical_data": {"Molecular Weight": "197.23", "Molecular Formula": "C13H11NO", "Boiling Point": "337.5 \u00b0C", "Melting Point": "73.5 \u00b0C"}}