{"cas_no": "607-91-0", "cn_name": "\u8089\u8c46\u853b\u919a", "en_name": ["Myristicin", "1,3-Benzodioxole, 4-methoxy-6-(2-propen-1-yl)-", "Myristicin", "Benzene, 5-allyl-1-methoxy-2,3-(methylenedioxy)-", "1,3-Benzodioxole, 4-methoxy-6-(2-propenyl)-", "4-Methoxy-6-(2-propen-1-yl)-1,3-benzodioxole", "5-Allyl-1-methoxy-2,3-(methylenedioxy)benzene", "6-Allyl-4-methoxy-1,3-benzodioxole", "Myristicine"], "SMILES": "O(C)C1=C2C(=CC(CC=C)=C1)OCO2", "physical_data": {"Molecular Weight": "192.21", "Molecular Formula": "C11H12O3", "Boiling Point": "276.5 \u00b0C", "Melting Point": "&lt;-20 \u00b0C", "Density": "1.1437 g/cm\u00b3 @ Temp: 20 \u00b0C"}}