{"cas_no": "607-57-8", "cn_name": "2-\u785d\u57fa\u82b4", "en_name": ["2-Nitrofluorene", "9H-Fluorene, 2-nitro-", "Fluorene, 2-nitro-", "2-Nitro-9H-fluorene", "2-Nitrofluorene", "NSC 5182"], "SMILES": "N(=O)(=O)C=1C=C2C(C=3C(C2)=CC=CC3)=CC1", "physical_data": {"Molecular Weight": "211.22", "Molecular Formula": "C13H9NO2", "Melting Point": "158 \u00b0C"}}