{"cas_no": "607-01-2", "cn_name": "\u4e59\u57fa\u4e8c\u82ef\u81a6", "en_name": ["Ethyldiphenylphosphine", "Phosphine, ethyldiphenyl-", "Ethyldiphenylphosphine", "Diphenylethylphosphine", "Diphenylphosphinoethane", "NSC 151254"], "SMILES": "P(CC)(C1=CC=CC=C1)C2=CC=CC=C2", "physical_data": {"Molecular Weight": "214.24", "Molecular Formula": "C14H15P", "Boiling Point": "182 \u00b0C @ Press: 22 Torr"}}