{"cas_no": "607-90-9", "cn_name": "\u67f3\u9178\u4e19\u916f", "en_name": ["Propyl salicylate", "Benzoic acid, 2-hydroxy-, propyl ester", "Salicylic acid, propyl ester", "Propyl salicylate", "Propyl o-hydroxybenzoate", "n-Propyl salicylate", "NSC 8221"], "SMILES": "C(OCCC)(=O)C1=C(O)C=CC=C1", "physical_data": {"Molecular Weight": "180.20", "Molecular Formula": "C10H12O3", "Boiling Point": "239 \u00b0C", "Melting Point": "97 \u00b0C"}}