{"cas_no": "607-71-6", "cn_name": "4-\u7532\u57fa\u9999\u8c46\u7d20", "en_name": ["4-Methylcoumarin", "2H-1-Benzopyran-2-one, 4-methyl-", "Coumarin, 4-methyl-", "4-Methyl-2H-1-benzopyran-2-one", "4-Methylcoumarin", "NSC 20100", "4-Methylchromen-2-one"], "SMILES": "CC=1C=2C(OC(=O)C1)=CC=CC2", "physical_data": {"Molecular Weight": "160.17", "Molecular Formula": "C10H8O2", "Boiling Point": "180 \u00b0C @ Press: 15 Torr", "Melting Point": "79 \u00b0C"}}