{"cas_no": "607-69-2", "cn_name": "2-\u6c2f-4-\u7f9f\u57fa\u55b9\u5511\u5549", "en_name": ["2-Chloro-4(3H)-quinazolinone", "4(3H)-Quinazolinone, 2-chloro-", "4(1H)-Quinazolinone, 2-chloro-", "2-Chloro-4(3H)-quinazolinone", "2-Chloro-4-quinazolinol", "2-Chloro-4(1H)-quinazolinone", "2-Chloro-3,4-dihydro-4-oxoquinazoline", "2-Chloro-4-hydroxyquinazoline", "2-Chloroquinazolin-4-one", "2-Chloro-1,4-dihydroquinazolin-4-one", "2-Chloro-1H-quinazolin-4-one", "2-Chloro-3,4-dihydroquinazolin-4-one"], "SMILES": "O=C1C=2C(NC(Cl)=N1)=CC=CC2", "physical_data": {"Molecular Weight": "180.59", "Molecular Formula": "C8H5ClN2O", "Melting Point": "218-220 \u00b0C"}}