{"cas_no": "607-66-9", "cn_name": "2-\u7f9f\u57fa-4-\u7532\u57fa\u55b9\u5549", "en_name": ["2-Hydroxy-4-methylquinoline", "2(1H)-Quinolinone, 4-methyl-", "Carbostyril, 4-methyl-", "4-Methyl-2(1H)-quinolinone", "2(1H)-Lepidinone", "2-Lepidinol", "4-Methylcarbostyril", "4-Methyl-2-quinolone", "4-Methylquinolin-2-one", "2-Hydroxylepidine", "4-Methyl-1,2-dihydroquinolin-2-one", "4-Methyl-2(1H)-quinolone", "2-Hydroxy-4-methylquinoline", "4-Methyl-2-quinolinol", "NSC 2057", "4-Methyl-1H-quinolin-2-one"], "SMILES": "CC=1C=2C(NC(=O)C1)=CC=CC2", "physical_data": {"Molecular Weight": "159.18", "Molecular Formula": "C10H9NO", "Melting Point": "222-223 \u00b0C"}}