{"cas_no": "607-32-9", "cn_name": "5-\u785d\u57fa\u5f02\u55b9\u5549", "en_name": ["5-Nitroisoquinoline", "Isoquinoline, 5-nitro-", "5-Nitroisoquinoline", "NSC 3017"], "SMILES": "N(=O)(=O)C=1C2=C(C=CC1)C=NC=C2", "physical_data": {"Molecular Weight": "174.16", "Molecular Formula": "C9H6N2O2", "Melting Point": "110 \u00b0C"}}