{"cas_no": "607-67-0", "cn_name": "4-\u7f9f\u57fa-2-\u7532\u57fa\u55b9\u5549", "en_name": ["4-Hydroxy-2-methylquinoline", "4-Quinolinol, 2-methyl-", "2-Methyl-4-quinolinol", "4-Hydroxyquinaldine", "4-Hydroxy-2-methylquinoline", "NSC 21483", "2-Methyl-4-hydroxyquinoline"], "SMILES": "OC=1C2=C(N=C(C)C1)C=CC=C2", "physical_data": {"Molecular Weight": "159.18", "Molecular Formula": "C10H9NO", "Boiling Point": "152-153 \u00b0C @ Press: 1.2 Torr", "Melting Point": "234 \u00b0C"}}