{"cas_no": "607-68-1", "cn_name": "2,4-\u4e8c\u6c2f\u55b9\u5511\u5549", "en_name": ["2,4-Dichloroquinazoline", "Quinazoline, 2,4-dichloro-", "2,4-Dichloroquinazoline", "NSC 75192"], "SMILES": "ClC=1C2=C(N=C(Cl)N1)C=CC=C2", "physical_data": {"Molecular Weight": "199.04", "Molecular Formula": "C8H4Cl2N2", "Melting Point": "119.5 \u00b0C"}}