{"cas_no": "60705-62-6", "cn_name": "4-\u53d4-\u4e01\u57fa\u676f[4]\u82b3\u70c3", "en_name": ["p-tert-Butylcalix[4]arene", "Pentacyclo[19.3.1.13,7.19,13.115,19]octacosa-1(25),3,5,7(28),9,11,13(27),15,17,19(26),21,23-dodecaene-25,26,27,28-tetrol, 5,11,17,23-tetrakis(1,1-dimethylethyl)-", "Pentacyclo[19.3.1.13,7.19,13.115,19]octacosa-1(25),3,5,7(28),9,11,13(27),15,17,19(26),21,23-dodecaene-25,26,27,28-tetrol, 5,11,17,23-tetra-tert-butyl-", "5,11,17,23-Tetrakis(1,1-dimethylethyl)pentacyclo[19.3.1.13,7.19,13.115,19]octacosa-1(25),3,5,7(28),9,11,13(27),15,17,19(26),21,23-dodecaene-25,26,27,28-tetrol", "Formaldehyde-p-tert-butylphenol cyclic tetramer", "5,11,17,23-Tetra-4-tert-butyl-25,26,27,28-tetrahydroxycalix[4]arene", "4-tert-Butylcalix[4]arene-25,26,27,28-tetrol", "p-tert-Butylcalix[4]arene-25,26,27,28-tetrol", "5,11,17,23-Tetra-p-tert-butyl-25,26,27,28-tetrahydroxycalix(4)arene", "p-tert-Butylcalix[4]arenetetrol", "p-tert-Butylcalix[4]arene", "Tetra-p-tert-butyltetracalix[4]arene", "5,11,17,23-Tetra-tert-butylcalix[4]arene", "4-tert-Butylcalix[4]arene", "5,11,17,23-Tetra-tert-butyl-25,26,27,28-tetrahydroxycalix[4]arene", "NSC 344251", "Tetra-tert-butylcalix[4]arene", "tert-Butylcalix[4]arene", "25,26,27,28-Tetrahydroxy-p-tert-butylcalix[4]arene", "5,11,17,23-Tetra-(t-butyl)-25,26,27,28-tetrahydroxycalix[4]arene", "CALX-B 4", "5,11,17,23-Tetra(tert-butyl)calix[4]arene-25,26,27,28-tetrol"], "SMILES": "OC=1C=2CC=3C(O)=C(CC=4C(O)=C(CC5=C(O)C(CC1C=C(C(C)(C)C)C2)=CC(C(C)(C)C)=C5)C=C(C(C)(C)C)C4)C=C(C(C)(C)C)C3", "physical_data": {"Molecular Weight": "648.91", "Molecular Formula": "C44H56O4", "Melting Point": "342.5 \u00b0C"}}