{"cas_no": "60706-63-0", "cn_name": "2,3,5,6-\u56db\u7532\u57fa\u82ef\u78fa\u9170\u6c2f", "en_name": ["2,3,5,6-Tetramethylbenzenesulfonyl chloride", "Benzenesulfonyl chloride, 2,3,5,6-tetramethyl-", "2,3,5,6-Tetramethylbenzenesulfonyl chloride", "2,3,5,6-Tetramethylbenzene-1-sulfonyl chloride"], "SMILES": "S(Cl)(=O)(=O)C1=C(C)C(C)=CC(C)=C1C", "physical_data": {"Molecular Weight": "232.73", "Molecular Formula": "C10H13ClO2S", "Melting Point": "98-99 \u00b0C"}}