{"cas_no": "60705-96-6", "cn_name": "(2,3-\u4e8c\u6c27-2,3-\u4e8c\u6c22-\u5432\u54da-1-YL)-\u4e59\u9178", "en_name": ["N-Carboxymethylisatin", "1H-Indole-1-acetic acid, 2,3-dihydro-2,3-dioxo-", "1-Indolineacetic acid, 2,3-dioxo-", "2,3-Dihydro-2,3-dioxo-1H-indole-1-acetic acid", "N-Carboxymethylisatin", "NSC 523893", "(2,3-Dioxo-2,3-dihydroindol-1-yl)acetic acid", "(2,3-Dioxo-2,3-dihydro-1H-indol-1-yl)acetic acid", "2-(2,3-Dioxo-2,3-dihydro-1H-indol-1-yl)acetic acid", "2-(2,3-Dioxoindol-1-yl)acetic acid"], "SMILES": "C(C(O)=O)N1C=2C(C(=O)C1=O)=CC=CC2", "physical_data": {"Molecular Weight": "205.17", "Molecular Formula": "C10H7NO4", "Melting Point": "199-201 \u00b0C"}}