{"cas_no": "60719-84-8", "cn_name": "\u6c28\u529b\u519c", "en_name": ["Amrinone", "[3,4\u2032-Bipyridin]-6(1H)-one, 5-amino-", "5-Amino[3,4\u2032-bipyridin]-6(1H)-one", "Amrinone", "Win 40680", "5-Amino-1,6-dihydro-6-oxo-[3,4\u2032-bipyridine]", "Cordemcura", "AWD 08-250", "3-Amino-5-(4-pyridinyl)-1,2-dihydro-2-pyridone", "Wincoram", "Vesistol", "Cartonic", "Inamrinone", "3-Amino-5-(pyridin-4-yl)pyridin-2(1H)-one", "3-Amino-5-pyridin-4-yl-1H-pyridin-2-one", "3-Amino-5-(pyridin-4-yl)-1,2-dihydropyridin-2-one", "3-Amino-5-(4-pyridinyl)-2(1H)-pyridinone", "MeSH ID: D000676"], "SMILES": "NC1=CC(=CNC1=O)C=2C=CN=CC2", "physical_data": {"Molecular Weight": "187.20", "Molecular Formula": "C10H9N3O", "Melting Point": "295 \u00b0C (decomp)"}}