{"cas_no": "60731-73-9", "cn_name": "2,6-\u4e8c\u6c1f\u82ef\u7532\u9170\u5f02\u6c30\u9178\u916f", "en_name": ["2,6-Difluorobenzoyl isocyanate", "Benzoyl isocyanate, 2,6-difluoro-", "2,6-Difluorobenzoyl isocyanate"], "SMILES": "C(N=C=O)(=O)C1=C(F)C=CC=C1F", "physical_data": {"Molecular Weight": "183.11", "Molecular Formula": "C8H3F2NO2", "Boiling Point": "83-88 \u00b0C @ Press: 9-10 Torr"}}