{"cas_no": "60736-71-2", "cn_name": "4-\u7532\u6c27\u57fa-3-\u7532\u57fa\u82ef\u7532\u57fa\u6c2f", "en_name": ["4-Methoxy-3-methylbenzyl chloride", "Benzene, 4-(chloromethyl)-1-methoxy-2-methyl-", "Anisole, 4-(chloromethyl)-2-methyl-", "4-(Chloromethyl)-1-methoxy-2-methylbenzene", "4-Methoxy-3-methylbenzyl chloride", "2-Methyl-4-(chloromethyl)anisole", "3-Methyl-4-methoxybenzyl chloride"], "SMILES": "C(Cl)C1=CC(C)=C(OC)C=C1", "physical_data": {"Molecular Weight": "170.64", "Molecular Formula": "C9H11ClO", "Boiling Point": "119 \u00b0C @ Press: 12 Torr", "Density": "1.13 g/cm\u00b3 @ Temp: 20 \u00b0C"}}