{"cas_no": "6074-84-6", "cn_name": "\u4e59\u9187\u94bd", "en_name": ["Tantalum ethoxide", "Ethanol, tantalum(5+) salt (5:1)", "Ethyl alcohol, tantalum(5+) salt", "Ethanol, tantalum(5+) salt", "Tantalum ethoxide", "Pentaethoxytantalum", "Pentaethyl tantalate", "Tantalum pentaethoxide", "Tantalum pentethoxide", "Ditantalum decaethoxide", "Tantalum ethylate", "Tantalum pentaethylate", "Tantalum(V) ethoxide", "Tantalum(5+) ethoxide"], "SMILES": "C(C)O.[Ta]", "physical_data": {"Molecular Weight": "", "Molecular Formula": "C2H6O.<sup>1</sup>/5Ta", "Boiling Point": "145 \u00b0C @ Press: 0.1 Torr", "Melting Point": "18-19 \u00b0C", "Density": "1.580 g/cm\u00b3"}}