{"cas_no": "60758-86-3", "cn_name": "3-\u4e59\u6c27\u57fa-4-\u7532\u6c27\u57fa\u82ef\u8148", "en_name": ["3-Ethoxy-4-methoxybenzonitrile", "Benzonitrile, 3-ethoxy-4-methoxy-", "3-Ethoxy-4-methoxybenzonitrile"], "SMILES": "O(CC)C1=C(OC)C=CC(C#N)=C1", "physical_data": {"Molecular Weight": "177.20", "Molecular Formula": "C10H11NO2", "Melting Point": "70 \u00b0C"}}