{"cas_no": "60755-80-8", "cn_name": "O-\u53bb\u7532\u57fa\u52a0\u5170\u4ed6\u654f", "en_name": ["Sanguinine", "6H-Benzofuro[3a,3,2-ef][2]benzazepine-3,6-diol, 4a,5,9,10,11,12-hexahydro-11-methyl-, (4aS,6R,8aS)-", "Galanthamine, O-demethyl-", "(4aS,6R,8aS)-4a,5,9,10,11,12-Hexahydro-11-methyl-6H-benzofuro[3a,3,2-ef][2]benzazepine-3,6-diol", "6H-Benzofuro[3a,3,2-ef][2]benzazepine-3,6-diol, 4a,5,9,10,11,12-hexahydro-11-methyl-, [4aS-(4a\u03b1,6\u03b2,8aR*)]-", "O-Demethylgalanthamine", "Sanguinine"], "SMILES": "OC1=C2C=3C4(C(O2)CC(O)C=C4)CCN(C)CC3C=C1", "physical_data": {"Molecular Weight": "273.33", "Molecular Formula": "C16H19NO3", "Melting Point": "209-212 \u00b0C"}}