{"cas_no": "6076-13-7", "cn_name": "4,5,6,7-\u56db\u6c22-1H-\u5432\u5511-3-\u7fa7\u9178", "en_name": ["4,5,6,7-Tetrahydro-1H-indazole-3-carboxylic acid", "1H-Indazole-3-carboxylic acid, 4,5,6,7-tetrahydro-", "4,5,6,7-Tetrahydro-1H-indazole-3-carboxylic acid", "3-Carboxy-4,5,6,7-tetrahydroindazole", "4,5,6,7-Tetrahydroindazole-3-carboxylic acid"], "SMILES": "C(O)(=O)C=1C2=C(NN1)CCCC2", "physical_data": {"Molecular Weight": "166.18", "Molecular Formula": "C8H10N2O2", "Melting Point": "254 \u00b0C"}}