{"cas_no": "607742-69-8", "cn_name": "3-\u82ef\u57fa\u78fa\u9170\u57fa-8-(\u54cc\u55ea-1-\u57fa)\u55b9\u5549", "en_name": ["Intepirdine", "Quinoline, 3-(phenylsulfonyl)-8-(1-piperazinyl)-", "3-(Phenylsulfonyl)-8-(1-piperazinyl)quinoline", "3-Phenylsulfonyl-8-(piperazin-1-yl)quinoline", "SB 742457", "GSK 742457", "Intepirdine", "RVT 101"], "SMILES": "S(=O)(=O)(C1=CC2=C(C(=CC=C2)N3CCNCC3)N=C1)C4=CC=CC=C4", "physical_data": {"Molecular Weight": "353.44", "Molecular Formula": "C19H19N3O2S", "Melting Point": "183-185 \u00b0C"}}