{"cas_no": "6078-17-7", "cn_name": "\u76d0\u9178\u5c0f\u6a97\u80fa", "en_name": ["16H-1,24:6,9-Dietheno-11,15-metheno-2H-pyrido[2\u2032,3\u2032:17,18][1,11]dioxacycloeicosino[2,3,4-ij]isoquinolin-12-ol, 3,4,4a,5,16a,17,18,19-octahydro-21,22,26-trimethoxy-4,17-dimethyl-, hydrochloride (1:2), (4aS,16aR)-", "16H-1,24:6,9-Dietheno-11,15-metheno-2H-pyrido[2\u2032,3\u2032:17,18][1,11]dioxacycloeicosino[2,3,4-ij]isoquinolin-12-ol, 3,4,4a,5,16a,17,18,19-octahydro-21,22,26-trimethoxy-4,17-dimethyl-, hydrochloride (1:2), (4aS,16aR)-", "Berbamine, dihydrochloride", "Berbaman-12-ol, 6,6\u2032,7-trimethoxy-2,2\u2032-dimethyl-, dihydrochloride", "16H-1,24:6,9-Dietheno-11,15-metheno-2H-pyrido[2\u2032,3\u2032:17,18][1,11]dioxacycloeicosino[2,3,4-ij]isoquinoline, berbaman-12-ol deriv."], "SMILES": "O(C)C1=C2C3=C(C=C1OC)CCN(C)C3CC=4C=C(OC=5C=CC(CC6C7=CC(O2)=C(OC)C=C7CCN6C)=CC5)C(O)=CC4.Cl", "physical_data": {"Molecular Weight": "", "Molecular Formula": "C37H40N2O6.2ClH", "Melting Point": "270 \u00b0C (decomp)"}}