{"cas_no": "60781-83-1", "cn_name": "2-\u6c28\u57fa-4-\u82ef\u57fa\u5421\u5576", "en_name": ["4-Phenyl-2-pyridinamine", "2-Pyridinamine, 4-phenyl-", "Pyridine, 2-amino-4-phenyl-", "4-Phenyl-2-pyridinamine", "(4-Phenylpyridin-2-yl)amine", "4-Phenylpyridin-2-amine", "2-Amino-4-phenylpyridine"], "SMILES": "NC1=CC(=CC=N1)C2=CC=CC=C2", "physical_data": {"Molecular Weight": "170.21", "Molecular Formula": "C11H10N2", "Melting Point": "164-165 \u00b0C"}}