{"cas_no": "60796-65-8", "cn_name": "5,7,8-\u4e09\u7532\u6c27\u57fa\u9999\u8c46\u7d20", "en_name": ["5,7,8-Trimethoxycoumarin", "2H-1-Benzopyran-2-one, 5,7,8-trimethoxy-", "5,7,8-Trimethoxy-2H-1-benzopyran-2-one", "5,7,8-Trimethoxycoumarin"], "SMILES": "O(C)C1=C2C(=C(OC)C=C1OC)C=CC(=O)O2", "physical_data": {"Molecular Weight": "236.22", "Molecular Formula": "C12H12O5", "Melting Point": "178 \u00b0C"}}