{"cas_no": "60792-79-2", "cn_name": "2,2'-\u6c27\u4ee3\u53cc\u4e59\u80fa\u4e8c\u76d0\u9178\u76d0", "en_name": ["Ethanamine, 2,2\u2032-oxybis-, hydrochloride (1:2)", "Ethanamine, 2,2\u2032-oxybis-, hydrochloride (1:2)", "Ethanamine, 2,2\u2032-oxybis-, dihydrochloride", "Ethylamine, 2,2\u2032-oxybis-, dihydrochloride", "Bis(2-aminoethyl) ether dihydrochloride", "2,2\u2032-Oxybis(ethylamine) dihydrochloride", "2-(2-Aminoethoxy)ethanamine dihydrochloride"], "SMILES": "O(CCN)CCN.Cl", "physical_data": {"Molecular Weight": "", "Molecular Formula": "C4H12N2O.2ClH", "Melting Point": "220-223 \u00b0C"}}