{"cas_no": "608-72-0", "cn_name": "2,4,6-\u4e09\u6eb4-1,3,5-\u4e09\u7532\u57fa\u82ef", "en_name": ["1,3,5-Tribromo-2,4,6-trimethylbenzene", "Benzene, 1,3,5-tribromo-2,4,6-trimethyl-", "Mesitylene, 2,4,6-tribromo-", "1,3,5-Tribromo-2,4,6-trimethylbenzene", "2,4,6-Tribromomesitylene", "ar-Tribromomesitylene", "1,3,5-Tribromotrimethylbenzene", "NSC 97124", "1,3,5-Trisbromomesitylene"], "SMILES": "BrC1=C(C)C(Br)=C(C)C(Br)=C1C", "physical_data": {"Molecular Weight": "356.88", "Molecular Formula": "C9H9Br3", "Melting Point": "222 \u00b0C"}}