{"cas_no": "608-73-1", "cn_name": "\u6c2f\u4ee3\u73af\u70f7\u70c3", "en_name": ["Cyclohexane, 1,2,3,4,5,6-hexachloro-", "Cyclohexane, 1,2,3,4,5,6-hexachloro-", "1,2,3,4,5,6-Hexachlorocyclohexane", "HCH", "BHC", "NSC 11807", "NSC 7909", "NSC 8093"], "SMILES": "ClC1C(Cl)C(Cl)C(Cl)C(Cl)C1Cl", "physical_data": {"Molecular Weight": "290.83", "Molecular Formula": "C6H6Cl6", "Melting Point": "112.5 \u00b0C", "Density": "1.87 g/cm\u00b3"}}