{"cas_no": "608-34-4", "cn_name": "3-\u7532\u57fa\u5c3f\u5627\u5576", "en_name": ["3-Methyluracil", "2,4(1H,3H)-Pyrimidinedione, 3-methyl-", "Uracil, 3-methyl-", "3-Methyl-2,4(1H,3H)-pyrimidinedione", "3-Methyluracil", "NSC 45626", "3-Methyl-1H-pyrimidine-2,4-dione", "3-Methyl-1,2,3,4-tetrahydropyrimidine-2,4-dione"], "SMILES": "CN1C(=O)C=CNC1=O", "physical_data": {"Molecular Weight": "126.11", "Molecular Formula": "C5H6N2O2", "Melting Point": "223-226 \u00b0C"}}