{"cas_no": "608-08-2", "cn_name": "\u5432\u54da\u4e59\u9178\u916f", "en_name": ["Indoxyl acetate", "1H-Indol-3-ol, 3-acetate", "Indol-3-ol, acetate (ester)", "Indoxyl acetate", "1H-Indol-3-ol, acetate (ester)", "Indol-3-ol, acetate", "3-Acetoxyindole", "3-Indoxyl acetate", "3-Indolyl acetate", "NSC 13964", "1H-Indol-3-yl acetate"], "SMILES": "O(C(C)=O)C=1C=2C(NC1)=CC=CC2", "physical_data": {"Molecular Weight": "175.18", "Molecular Formula": "C10H9NO2", "Melting Point": "129 \u00b0C"}}