{"cas_no": "608-68-4", "cn_name": "L-(+)-\u9152\u77f3\u9178\u4e8c\u7532\u916f", "en_name": ["1,4-Dimethyl 2,3-dihydroxy- (2R,3R)butanedioate", "Butanedioic acid, 2,3-dihydroxy- (2R,3R)-, 1,4-dimethyl ester", "Butanedioic acid, 2,3-dihydroxy- [R-(R*,R*)]-, dimethyl ester", "Tartaric acid, dimethyl ester, (+)-", "Butanedioic acid, 2,3-dihydroxy- (2R,3R)-, dimethyl ester", "1,4-Dimethyl 2,3-dihydroxy- (2R,3R)butanedioate", "Dimethyl d-tartrate", "Dimethyl tartrate", "Dimethyl (+)-tartrate", "Dimethyl L-tartrate", "(2R,3R)-(+)-Dimethyl tartrate", "Dimethyl (+)-L-tartrate", "(2R,3R)-Dimethyl tartrate", "L-Tartaric acid dimethyl ester", "(+)-Tartaric acid dimethyl ester", "L-(+)-Dimethyl tartrate", "Dimethyl L-(+)-tartrate", "Dimethyl (R,R)-tartrate", "Dimethyl L-tartarate", "NSC 517", "(+)-Dimethyl L-tartarate", "(+)-Dimethyl L-tartrate"], "SMILES": "C(C(C(OC)=O)O)(C(OC)=O)O", "physical_data": {"Molecular Weight": "178.14", "Molecular Formula": "C6H10O6", "Boiling Point": "137 \u00b0C @ Press: 16 Torr", "Melting Point": "58 \u00b0C (decomp)", "Density": "1.2306 g/cm\u00b3 @ Temp: 27 \u00b0C"}}