{"cas_no": "608-66-2", "cn_name": "\u534a\u4e73\u7cd6\u9187", "en_name": ["Galactitol", "Galactitol", "Dulcite", "Dulcitol", "Dulcose", "Euonymit", "Melampyrin", "Melampyrit", "NSC 1944", "MeSH ID: D004376"], "SMILES": "C(C(C(CO)O)O)(C(CO)O)O", "physical_data": {"Molecular Weight": "182.17", "Molecular Formula": "C6H14O6", "Melting Point": "189.5 \u00b0C"}}