{"cas_no": "608-40-2", "cn_name": "\u5185\u6d88\u65cb-2,3-\u4e8c\u7532\u57fa\u7425\u73c0\u9178", "en_name": ["rel-(2R,3S)-2,3-Dimethylbutanedioic acid", "Butanedioic acid, 2,3-dimethyl-, (2R,3S)-rel-", "Succinic acid, 2,3-dimethyl-, meso-", "Butanedioic acid, 2,3-dimethyl-, (R*,S*)-", "rel-(2R,3S)-2,3-Dimethylbutanedioic acid", "erythro-2,3-Dimethylsuccinic acid", "meso-2,3-Dimethylsuccinic acid"], "SMILES": "C(C(C(O)=O)C)(C(O)=O)C", "physical_data": {"Molecular Weight": "146.14", "Molecular Formula": "C6H10O4", "Melting Point": "194 \u00b0C"}}