{"cas_no": "608-25-3", "cn_name": "2,6-\u4e8c\u7f9f\u57fa\u7532\u82ef", "en_name": ["2-Methylresorcinol", "1,3-Benzenediol, 2-methyl-", "Resorcinol, 2-methyl-", "2-Methyl-1,3-benzenediol", "Toluene-2,6-diol", "2-Methylresorcinol", "2-Methylresorcin", "1,3-Dihydroxy-2-methylbenzene", "2,6-Dihydroxytoluene", "2-Methyl-1,3-dihydroxybenzene", "NSC 66524", "Rodol MRP"], "SMILES": "CC1=C(O)C=CC=C1O", "physical_data": {"Molecular Weight": "124.14", "Molecular Formula": "C7H8O2", "Boiling Point": "264 \u00b0C", "Melting Point": "120 \u00b0C"}}