{"cas_no": "608-28-6", "cn_name": "1,3-\u4e8c\u7532\u57fa-2-\u7898\u82ef", "en_name": ["2-Iodo-1,3-dimethylbenzene", "Benzene, 2-iodo-1,3-dimethyl-", "m-Xylene, 2-iodo-", "2-Iodo-1,3-dimethylbenzene", "2,6-Dimethyliodobenzene", "2-Iodo-m-xylene", "2,6-Dimethylphenyl iodide", "NSC 9265", "2,6-Dimethyl-1-iodobenzene", "1,3-Dimethyl-2-iodobenzene", "1-Iodo-2,6-dimethylbenzene"], "SMILES": "IC1=C(C)C=CC=C1C", "physical_data": {"Molecular Weight": "232.06", "Molecular Formula": "C8H9I", "Boiling Point": "229.5 \u00b0C", "Melting Point": "11.2 \u00b0C", "Density": "1.6250 g/cm\u00b3 @ Temp: 25 \u00b0C"}}