{"cas_no": "608-80-0", "cn_name": "\u516d\u7f9f\u57fa\u82ef", "en_name": ["Hexahydroxybenzene", "1,2,3,4,5,6-Benzenehexol", "Benzenehexol", "Benzene, hexahydroxy-", "Hexahydroxybenzene", "NSC 528169", "1,2,3,4,5,6-Benzenehexaol"], "SMILES": "OC1=C(O)C(O)=C(O)C(O)=C1O", "physical_data": {"Molecular Weight": "174.11", "Molecular Formula": "C6H6O6", "Melting Point": "&gt;300 \u00b0C"}}