{"cas_no": "608-93-5", "cn_name": "\u4e94\u6c2f\u82ef", "en_name": ["Pentachlorobenzene", "Benzene, 1,2,3,4,5-pentachloro-", "Benzene, pentachloro-", "1,2,3,4,5-Pentachlorobenzene", "Pentachlorobenzene", "QCB", "NSC 1857", "2,3,4,5,6-Pentachlorobenzene"], "SMILES": "ClC1=C(Cl)C(Cl)=C(Cl)C=C1Cl", "physical_data": {"Molecular Weight": "250.34", "Molecular Formula": "C6HCl5", "Boiling Point": "277 \u00b0C", "Melting Point": "86 \u00b0C", "Density": "1.8342 g/cm\u00b3 @ Temp: 16.5 \u00b0C"}}