{"cas_no": "608-37-7", "cn_name": "\u4e8c\u6eb4\u9a6c\u6765\u9178", "en_name": ["(2Z)-2,3-Dibromo-2-butenedioic acid", "2-Butenedioic acid, 2,3-dibromo-, (2Z)-", "Maleic acid, dibromo-", "2-Butenedioic acid, 2,3-dibromo-, (Z)-", "(2Z)-2,3-Dibromo-2-butenedioic acid", "Dibromomaleic acid"], "SMILES": "C(=C(C(O)=O)Br)(C(O)=O)Br", "physical_data": {"Molecular Weight": "273.86", "Molecular Formula": "C4H2Br2O4", "Melting Point": "126-129 \u00b0C"}}