{"cas_no": "608-05-9", "cn_name": "5-\u7532\u57fa\u975b\u7ea2", "en_name": ["5-Methylisatin", "1H-Indole-2,3-dione, 5-methyl-", "Indole-2,3-dione, 5-methyl-", "Isatin, 5-methyl-", "5-Methyl-1H-indole-2,3-dione", "5-Methylisatin", "5-Methylindole-2,3-dione", "5-Methyl-2,3-indolinedione", "NSC 9398", "5-Methyl-2,3-dihydro-2,3-dioxoindole"], "SMILES": "O=C1C=2C(NC1=O)=CC=C(C)C2", "physical_data": {"Molecular Weight": "161.16", "Molecular Formula": "C9H7NO2", "Melting Point": "195-200 \u00b0C (decomp)"}}