{"cas_no": "608-07-1", "cn_name": "5-\u7532\u6c27\u57fa\u8272\u80fa", "en_name": ["5-Methoxytryptamine", "1H-Indole-3-ethanamine, 5-methoxy-", "Indole, 3-(2-aminoethyl)-5-methoxy-", "5-Methoxy-1H-indole-3-ethanamine", "5-MOT", "3-(2-Aminoethyl)-5-methoxyindole", "Methoxytryptamine", "5-Methoxytryptamine", "Deacetylmelatonin", "2-(5-Methoxyindol-3-yl)ethylamine", "[2-(5-Methoxy-1H-indol-3-yl)ethyl]amine", "NSC 56422", "2-[5-(Methyloxy)-1H-indol-3-yl]ethanamine", "2-(5-Methoxy-1H-indol-3-yl)ethanamine", "5-MeOT", "2-(5-Methoxy-1H-indol-3-yl)ethan-1-amine", "MeSH ID: D008735"], "SMILES": "C(CN)C=1C=2C(NC1)=CC=C(OC)C2", "physical_data": {"Molecular Weight": "190.24", "Molecular Formula": "C11H14N2O", "Boiling Point": "165-170 \u00b0C @ Press: 0.1 Torr", "Melting Point": "121.5 \u00b0C", "Density": "1.460 g/cm\u00b3"}}