{"cas_no": "608-71-9", "cn_name": "\u4e94\u6eb4\u82ef\u915a", "en_name": ["Pentabromophenol", "Phenol, 2,3,4,5,6-pentabromo-", "Phenol, pentabromo-", "2,3,4,5,6-Pentabromophenol", "Pentabromophenol", "Flammex 5BP", "Bromophenasic acid", "NSC 5717", "Perbromophenol"], "SMILES": "BrC1=C(Br)C(Br)=C(O)C(Br)=C1Br", "physical_data": {"Molecular Weight": "488.59", "Molecular Formula": "C6HBr5O", "Melting Point": "229.5 \u00b0C"}}