{"cas_no": "608-27-5", "cn_name": "2,3-\u4e8c\u6c2f\u82ef\u80fa", "en_name": ["2,3-Dichloroaniline", "Benzenamine, 2,3-dichloro-", "Aniline, 2,3-dichloro-", "2,3-Dichlorobenzenamine", "2,3-Dichloroaniline", "3-Amino-1,2-dichlorobenzene", "2,3-Dichlorophenylamine", "NSC 60683"], "SMILES": "ClC1=C(Cl)C=CC=C1N", "physical_data": {"Molecular Weight": "162.02", "Molecular Formula": "C6H5Cl2N", "Boiling Point": "252 \u00b0C", "Melting Point": "24 \u00b0C", "Density": "1.383 g/cm\u00b3 @ Temp: 25 \u00b0C"}}