{"cas_no": "608-23-1", "cn_name": "3-\u6c2f-\u90bb-\u4e8c\u7532\u82ef", "en_name": ["1-Chloro-2,3-dimethylbenzene", "Benzene, 1-chloro-2,3-dimethyl-", "o-Xylene, 3-chloro-", "1-Chloro-2,3-dimethylbenzene", "3-Chloro-o-xylene", "3-Chloro-1,2-dimethylbenzene", "2,3-Dimethylchlorobenzene", "1,2-Dimethyl-3-chlorobenzene", "2,3-Dimethyl-1-chlorobenzene"], "SMILES": "CC1=C(C)C=CC=C1Cl", "physical_data": {"Molecular Weight": "140.61", "Molecular Formula": "C8H9Cl", "Boiling Point": "187-190 \u00b0C"}}