{"cas_no": "608-30-0", "cn_name": "2,6-\u4e8c\u6eb4\u82ef\u80fa", "en_name": ["2,6-Dibromoaniline", "Benzenamine, 2,6-dibromo-", "Aniline, 2,6-dibromo-", "2,6-Dibromobenzenamine", "2,6-Dibromoaniline", "NSC 305"], "SMILES": "NC1=C(Br)C=CC=C1Br", "physical_data": {"Molecular Weight": "250.92", "Molecular Formula": "C6H5Br2N", "Boiling Point": "263 \u00b0C", "Melting Point": "87.5 \u00b0C", "Density": "1.76 g/cm\u00b3"}}