{"cas_no": "608-33-3", "cn_name": "2,6-\u4e8c\u6eb4\u82ef\u915a", "en_name": ["2,6-Dibromophenol", "Phenol, 2,6-dibromo-", "2,6-Dibromophenol", "NSC 6214"], "SMILES": "OC1=C(Br)C=CC=C1Br", "physical_data": {"Molecular Weight": "251.90", "Molecular Formula": "C6H4Br2O", "Boiling Point": "255 \u00b0C", "Melting Point": "56.5 \u00b0C"}}