{"cas_no": "608-31-1", "cn_name": "2,6-\u4e8c\u6c2f\u82ef\u80fa", "en_name": ["2,6-Dichloroaniline", "Benzenamine, 2,6-dichloro-", "Aniline, 2,6-dichloro-", "2,6-Dichlorobenzenamine", "2,6-Dichloroaniline", "2,6-Dichlorophenylamine"], "SMILES": "NC1=C(Cl)C=CC=C1Cl", "physical_data": {"Molecular Weight": "162.02", "Molecular Formula": "C6H5Cl2N", "Boiling Point": "97 \u00b0C @ Press: 5 Torr", "Melting Point": "39 \u00b0C"}}