{"cas_no": "6080-56-4", "cn_name": "\u4e59\u9178\u94c5\u4e09\u6c34\u5408\u7269", "en_name": ["Lead diacetate trihydrate", "Acetic acid, lead(2+) salt, trihydrate", "Lead diacetate trihydrate", "Lead acetate trihydrate (Pb(OAc)2.3H2O)", "Lead(II) acetate trihydrate", "Plumbous acetate trihydrate"], "SMILES": "C(C)(O)=O.O.[Pb]", "physical_data": {"Molecular Weight": "", "Molecular Formula": "C2H4O2.<sup>3</sup>/2H2O.<sup>1</sup>/2Pb", "Melting Point": "75 \u00b0C", "Density": "2.55 g/cm\u00b3"}}