{"cas_no": "6080-33-7", "cn_name": "\u76d0\u9178\u9752\u85e4\u78b1", "en_name": ["Sinomenine hydrochloride", "Morphinan-6-one, 7,8-didehydro-4-hydroxy-3,7-dimethoxy-17-methyl-, hydrochloride (1:1), (9\u03b1,13\u03b1,14\u03b1)-", "9\u03b1,13\u03b1,14\u03b1-Morphinan-6-one, 7,8-didehydro-4-hydroxy-3,7-dimethoxy-17-methyl-, hydrochloride", "Sinomenine hydrochloride", "Morphinan-6-one, 7,8-didehydro-4-hydroxy-3,7-dimethoxy-17-methyl-, hydrochloride, (9\u03b1,13\u03b1,14\u03b1)-", "Cucoline, hydrochloride", "NSC 76021", "Sinomenin hydrochloride"], "SMILES": "OC1=C2C34C(C(CC2=CC=C1OC)N(C)CC3)C=C(OC)C(=O)C4.Cl", "physical_data": {"Molecular Weight": "", "Molecular Formula": "C19H23NO4.ClH", "Melting Point": "231 \u00b0C (decomp)"}}