{"cas_no": "60811-21-4", "cn_name": "3-\u6c2f-4-\u6c1f\u6eb4\u82ef", "en_name": ["4-Bromo-2-chloro-1-fluorobenzene", "Benzene, 4-bromo-2-chloro-1-fluoro-", "4-Bromo-2-chloro-1-fluorobenzene", "3-Chloro-4-fluorobromobenzene", "4-Bromo-2-chlorofluorobenzene", "1-Bromo-3-chloro-4-fluorobenzene", "5-Bromo-2-fluorochlorobenzene", "1-Bromo-4-Fluoro-3-chlorobenzene", "3-Chloro-4-fluorophenyl bromide"], "SMILES": "ClC1=C(F)C=CC(Br)=C1", "physical_data": {"Molecular Weight": "209.44", "Molecular Formula": "C6H3BrClF", "Boiling Point": "92 \u00b0C @ Press: 35 Torr"}}