{"cas_no": "60811-23-6", "cn_name": "3-\u6c2f-4\u6c1f\u786b\u915a", "en_name": ["3-Chloro-4-fluorobenzenethiol", "Benzenethiol, 3-chloro-4-fluoro-", "3-Chloro-4-fluorobenzenethiol", "3-Chloro-4-fluorothiophenol", "3-Chloro-4-fluorobenzene-1-thiol"], "SMILES": "ClC1=C(F)C=CC(S)=C1", "physical_data": {"Molecular Weight": "162.61", "Molecular Formula": "C6H4ClFS", "Boiling Point": "91-92 \u00b0C @ Press: 20 Torr"}}