{"cas_no": "60811-18-9", "cn_name": "4-\u6eb4-1-\u6c2f-2-\u6c1f\u82ef", "en_name": ["4-Bromo-1-chloro-2-fluorobenzene", "Benzene, 4-bromo-1-chloro-2-fluoro-", "4-Bromo-1-chloro-2-fluorobenzene", "5-Bromo-2-chlorofluorobenzene", "2-Chloro-5-bromofluorobenzene", "1-Bromo-4-chloro-3-fluorobenzene", "4-Chloro-3-fluoro-1-bromobenzene", "1-Bromo-3-fluoro-4-chlorobenzene", "3-Fluoro-4-chlorobromobenzene", "5-Bromo-2-chloro-1-fluorobenzene"], "SMILES": "FC1=C(Cl)C=CC(Br)=C1", "physical_data": {"Molecular Weight": "209.44", "Molecular Formula": "C6H3BrClF", "Boiling Point": "73 \u00b0C @ Press: 9 Torr"}}