{"cas_no": "60835-73-6", "cn_name": "4-\u7532\u9170-15-\u51a0-5", "en_name": ["4\u2032-Formylbenzo-15-crown-5", "1,4,7,10,13-Benzopentaoxacyclopentadecin-15-carboxaldehyde, 2,3,5,6,8,9,11,12-octahydro-", "2,3,5,6,8,9,11,12-Octahydro-1,4,7,10,13-benzopentaoxacyclopentadecin-15-carboxaldehyde", "4\u2032-Formylbenzo-15-crown-5", "15-Formylbenzo[15-crown-5]", "4-Formylbenzo-15-crown-5", "15-Formyl-2,3,5,6,8,9,11,12-octahydro-1,4,7,10,13-benzopentaoxacyclopentadecine", "NSC 288923", "4\u2032-Formylbenzo-15-crown-5 ether"], "SMILES": "C(=O)C=1C=C2C(=CC1)OCCOCCOCCOCCO2", "physical_data": {"Molecular Weight": "296.32", "Molecular Formula": "C15H20O6", "Melting Point": "70-72 \u00b0C"}}