{"cas_no": "60835-75-8", "cn_name": "4'-\u7fa7\u82ef\u5e76-18-\u51a0-6-\u919a", "en_name": ["4\u2032-Carboxybenzo-18-crown-6", "1,4,7,10,13,16-Benzohexaoxacyclooctadecin-18-carboxylic acid, 2,3,5,6,8,9,11,12,14,15-decahydro-", "2,3,5,6,8,9,11,12,14,15-Decahydro-1,4,7,10,13,16-benzohexaoxacyclooctadecin-18-carboxylic acid", "4\u2032-Carboxybenzo-18-crown-6", "2,3,5,6,8,9,11,12,14,15-decahydro-1,4,7,10,13,16-benzohexaoxacyclooctadecin-18-carboxylic acid", "2,5,8,11,14,17-Hexaoxabicyclo[16.4.0]docosa-1(18),19,21-triene-20-carboxylic acid"], "SMILES": "C(O)(=O)C=1C=C2C(=CC1)OCCOCCOCCOCCOCCO2", "physical_data": {"Molecular Weight": "356.37", "Molecular Formula": "C17H24O8", "Melting Point": "111 \u00b0C"}}