{"cas_no": "60832-72-6", "cn_name": "2,3-\u4e8c\u6c22\u5421\u5576\u5e76[2,3-d][1,3]\u5511-2-\u916e", "en_name": ["Oxazolo[4,5-b]pyridin-2(3H)-one", "Oxazolo[4,5-b]pyridin-2(3H)-one", "[1,3]Oxazolo[4,5-b]pyridin-2(3H)-one", "3H-Oxazolo[4,5-b]pyridin-2-one", "2,3-Dihydro-pyrido[2,3-d][1,3]oxazol-2-one", "[1,3]Oxazolo[4,5-b]pyridin-2-ol", "2H,3H-[1,3]Oxazolo[4,5-b]pyridin-2-one", "Oxazolo[4,5-b]pyridin-2-ol"], "SMILES": "O=C1NC=2C(O1)=CC=CN2", "physical_data": {"Molecular Weight": "136.11", "Molecular Formula": "C6H4N2O2", "Melting Point": "211-212 \u00b0C"}}