{"cas_no": "60835-72-5", "cn_name": "4-\u6eb4\u82ef\u5e7615\u51a05", "en_name": ["15-Bromo-2,3,5,6,8,9,11,12-octahydro-1,4,7,10,13-benzopentaoxacyclopentadecin", "1,4,7,10,13-Benzopentaoxacyclopentadecin, 15-bromo-2,3,5,6,8,9,11,12-octahydro-", "15-Bromo-2,3,5,6,8,9,11,12-octahydro-1,4,7,10,13-benzopentaoxacyclopentadecin", "4\u2032-Bromobenzo-15-crown-5", "4-Bromobenzo-15-crown-5", "2-Bromo-6,7,9,10,12,13,15,16-octahydro-5,8,11,14,17-pentaoxa-benzocyclopentadecene"], "SMILES": "BrC=1C=C2C(=CC1)OCCOCCOCCOCCO2", "physical_data": {"Molecular Weight": "347.20", "Molecular Formula": "C14H19BrO5", "Melting Point": "69-71 \u00b0C"}}