{"cas_no": "60835-69-0", "cn_name": "4-\u94cc\u82ef\u57fa15-5-\u4e59\u57fa", "en_name": ["2,3,5,6,8,9,11,12-Octahydro-15-nitro-1,4,7,10,13-benzopentaoxacyclopentadecin", "1,4,7,10,13-Benzopentaoxacyclopentadecin, 2,3,5,6,8,9,11,12-octahydro-15-nitro-", "2,3,5,6,8,9,11,12-Octahydro-15-nitro-1,4,7,10,13-benzopentaoxacyclopentadecin", "4-Nitrobenzo-15-crown-5", "NSC 175879", "15-Nitro-2,3,5,6,8,9,11,12-octahydro-1,4,7,10,13-benzopentaoxacyclopentadecine", "17-Nitro-2,5,8,11,14-pentaoxabicyclo[13.4.0]nonadeca-1(15),16,18-triene", "2-Nitro-6,7,9,10,12,13,15,16-octahydro-5,8,11,14,17-pentaoxa-benzocyclopentadecene"], "SMILES": "N(=O)(=O)C=1C=C2C(=CC1)OCCOCCOCCOCCO2", "physical_data": {"Molecular Weight": "313.30", "Molecular Formula": "C14H19NO7", "Melting Point": "94-96 \u00b0C"}}