{"cas_no": "6084-17-9", "cn_name": "2-\u6c2f\u82ef\u4e19\u916e", "en_name": ["2-Chloro-1-phenyl-1-propanone", "1-Propanone, 2-chloro-1-phenyl-", "Propiophenone, 2-chloro-", "2-Chloro-1-phenyl-1-propanone", "\u03b1-Chloropropiophenone", "2-Chloropropiophenone", "NSC 5663", "1-Chloroethyl phenyl ketone"], "SMILES": "C(C(C)Cl)(=O)C1=CC=CC=C1", "physical_data": {"Molecular Weight": "168.62", "Molecular Formula": "C9H9ClO", "Boiling Point": "80 \u00b0C @ Press: 0.3 Torr", "Melting Point": "213-214 \u00b0C", "Density": "1.560 g/cm\u00b3 @ Temp: 25 \u00b0C"}}