{"cas_no": "6086-42-6", "cn_name": "4,4-\u4e8c\u7532\u57fa-2-\u54aa\u5511\u5549\u786b\u916e", "en_name": ["4,4-Dimethyl-2-imidazolidinethione", "2-Imidazolidinethione, 4,4-dimethyl-", "4,4-Dimethyl-2-imidazolidinethione", "4,4-Dimethylimidazolidine-2-thione"], "SMILES": "CC1(C)NC(=S)NC1", "physical_data": {"Molecular Weight": "130.21", "Molecular Formula": "C5H10N2S", "Melting Point": "118.5-119.0 \u00b0C"}}