{"cas_no": "60875-16-3", "cn_name": "1-(4-\u7fa7\u57fa\u82ef\u57fa)-3-\u7532\u57fa-5-\u5421\u5511\u916e", "en_name": ["4-(3-Methyl-5-oxo-2-pyrazolin-1-yl)benzoic acid", "Benzoic acid, 4-(4,5-dihydro-3-methyl-5-oxo-1H-pyrazol-1-yl)-", "Benzoic acid, p-(3-methyl-5-oxo-2-pyrazolin-1-yl)-", "4-(4,5-Dihydro-3-methyl-5-oxo-1H-pyrazol-1-yl)benzoic acid", "1-(4-Carboxyphenyl)-3-methyl-2-pyrazolinone", "1-(4-Carboxyphenyl)-3-methyl-2-pyrazolin-5-one", "4-(3-Methyl-5-oxo-2-pyrazolin-1-yl)benzoic acid", "1-(p-Carboxyphenyl)-3-methyl-5-pyrazolone", "1-(4-Carboxyphenyl)-3-methyl-5-pyrazolone", "4-(3-Methyl-5-oxopyrazol-1-yl)benzoic acid", "4-(3-Methyl-5-oxo-4,5-dihydro-1H-pyrazol-1-yl)benzoic acid"], "SMILES": "O=C1N(N=C(C)C1)C2=CC=C(C(O)=O)C=C2", "physical_data": {"Molecular Weight": "218.21", "Molecular Formula": "C11H10N2O3", "Melting Point": "278 \u00b0C"}}