{"cas_no": "6088-51-3", "cn_name": "\u53cc(6-\u7f9f\u57fa-2-\u8418)\u4e8c\u786b", "en_name": ["6,6\u2032-Dithiobis[2-naphthalenol]", "2-Naphthalenol, 6,6\u2032-dithiobis-", "2-Naphthol, 6,6\u2032-dithiodi-", "6,6\u2032-Dithiobis[2-naphthalenol]", "2,2\u2032-Dihydroxy-6,6\u2032-dinaphthyl disulfide", "DDD (analytical)", "(6,6\u2032-Dihydroxy-2,2\u2032-dinaphthyl)disulfide", "NSC 87629", "6,6\u2032-Dithiodi(2-naphthol)", "Bis(6-hydroxy-2-naphthyl)disulfide"], "SMILES": "S(SC1=CC2=C(C=C1)C=C(O)C=C2)C3=CC4=C(C=C3)C=C(O)C=C4", "physical_data": {"Molecular Weight": "350.45", "Molecular Formula": "C20H14O2S2", "Melting Point": "220-221 \u00b0C"}}