{"cas_no": "6089-09-4", "cn_name": "4-\u620a\u7094\u9178", "en_name": ["4-Pentynoic acid", "4-Pentynoic acid", "Propargylacetic acid"], "SMILES": "C(C(O)=O)CC#C", "physical_data": {"Molecular Weight": "98.10", "Molecular Formula": "C5H6O2", "Boiling Point": "98 \u00b0C", "Melting Point": "57.7 \u00b0C"}}