{"cas_no": "6089-04-9", "cn_name": "\u54cc\u5583", "en_name": ["Propargyl tetrahydropyranyl ether", "2H-Pyran, tetrahydro-2-(2-propyn-1-yloxy)-", "2H-Pyran, tetrahydro-2-(2-propynyloxy)-", "Pyran, tetrahydro-2-(2-propynyloxy)-", "Tetrahydro-2-(2-propyn-1-yloxy)-2H-pyran", "3-(Tetrahydropyran-2-yloxy)prop-1-yne", "1-(2\u2032-Tetrahydropyranyloxy)-2-propyne", "Propargyl 2-tetrahydropyranyl ether", "Tetrahydro-2-(2-propynyloxy)-2H-pyran", "1-Tetrahydropyran-2-yloxy-2-propyne", "2-(Propargyloxy)tetrahydropyran", "3-(2\u2032-Tetrahydropyranyloxy)propyne", "3-(Tetrahydro-2-pyranyloxy)propyne", "2-(2-Propynyloxy)tetrahydropyran", "Propargyl alcohol tetrahydropyranyl ether", "2-Propargyloxane", "2-Propynyl tetrahydro-2-pyranyl ether", "3-Tetrahydropyranyloxyprop-1-yne", "1-(Tetrahydropyranyloxy)prop-2-yne", "Propargyl tetrahydropyranyl ether", "Tetrahydropyran-2-yloxypropyne", "3-(Tetrahydropyranyloxy)propyne", "Tetrahydro-2-(2-propynyloxy)pyran", "(2-Propynyloxy)tetrahydropyran", "O-Tetrahydropyranylpropargyl alcohol", "3,4,5,6-Tetrahydro-2-(2-propynyloxy)-2H-pyran", "2-(2-Propynyloxy)tetrahydro-2H-pyran", "(\u00b1)-Tetrahydro-2-(2-propynyloxy)-2H-pyran", "Tetrahydropyranyl propargyl ether", "Propargyl (tetrahydro-2H-pyran-2-yl) ether", "NSC 152714", "2-Propynyl tetrahydro-2H-pyran-2-yl ether", "2-Propynyl tetrahydropyran ether", "3-[(Tetrahydro-2H-pyran-2-yl)oxy]-1-propyne", "1-(Tetrahydro-2H-pyranyloxy)-2-propyne", "2-(2-Propyn-1-yloxy)tetrahydro-2H-pyran", "Oct-2-yne-1-ol", "2-(Prop-2-yn-1-yloxy)oxane", "2-Prop-2-ynoxyoxane", "2-Prop-2-ynoxytetrahydropyran"], "SMILES": "O(CC#C)C1CCCCO1", "physical_data": {"Molecular Weight": "140.18", "Molecular Formula": "C8H12O2", "Boiling Point": "78 \u00b0C @ Press: 25 Torr", "Density": "0.9965 g/cm\u00b3 @ Temp: 25 \u00b0C"}}