{"cas_no": "60899-34-5", "cn_name": "2,3-\u4e8c\u6c22-1-\u6c27\u4ee3-1H-\u831a-4-\u7532\u8148", "en_name": ["2,3-Dihydro-1-oxo-1H-indene-4-carbonitrile", "1H-Indene-4-carbonitrile, 2,3-dihydro-1-oxo-", "2,3-Dihydro-1-oxo-1H-indene-4-carbonitrile", "4-Cyanoindanone", "4-Cyano-1-indanone", "1-Oxo-indan-4-carbonitrile", "1-Oxoindane-4-carbonitrile", "1-Oxo-2,3-dihydroindene-4-carbonitrile"], "SMILES": "C(#N)C1=C2C(C(=O)CC2)=CC=C1", "physical_data": {"Molecular Weight": "157.17", "Molecular Formula": "C10H7NO", "Melting Point": "116-117 \u00b0C"}}