{"cas_no": "609-22-3", "cn_name": "2,4-\u4e8c\u6eb4-6-\u7532\u57fa\u82ef\u915a", "en_name": ["2,4-Dibromo-6-methylphenol", "Phenol, 2,4-dibromo-6-methyl-", "o-Cresol, 4,6-dibromo-", "2,4-Dibromo-6-methylphenol", "4,6-Dibromo-o-cresol", "4,6-Dibromo-2-methylphenol", "NSC 6223"], "SMILES": "OC1=C(Br)C=C(Br)C=C1C", "physical_data": {"Molecular Weight": "265.93", "Molecular Formula": "C7H6Br2O", "Melting Point": "58 \u00b0C"}}