{"cas_no": "609-26-7", "cn_name": "2-\u7532\u57fa-3-\u4e59\u57fa\u620a\u70f7", "en_name": ["3-Ethyl-2-methylpentane", "Pentane, 3-ethyl-2-methyl-", "3-Ethyl-2-methylpentane", "2-Methyl-3-ethylpentane", "NSC 73955"], "SMILES": "C(C(C)C)(CC)CC", "physical_data": {"Molecular Weight": "114.23", "Molecular Formula": "C8H18", "Boiling Point": "115.6 \u00b0C", "Melting Point": "-114.9 \u00b0C", "Density": "0.7084 g/cm\u00b3 @ Temp: 15 \u00b0C"}}