{"cas_no": "609-15-4", "cn_name": "2-\u6c2f\u4e59\u9170\u4e59\u9178\u4e59\u916f", "en_name": ["Ethyl 2-chloroacetoacetate", "Butanoic acid, 2-chloro-3-oxo-, ethyl ester", "Acetoacetic acid, 2-chloro-, ethyl ester", "Ethyl 2-chloracetoacetate", "Ethyl \u03b1-chloroacetoacetate", "Ethyl 2-chloroacetoacetate", "2-Chloroacetoacetic acid ethyl ester", "2-Chloro-3-oxobutyric acid ethyl ester", "Ethyl 2-chloro-3-oxobutanoate", "2-Chloro-3-oxobutanoic acid ethyl ester", "Ethyl 2-chloro-3-oxobutyrate", "Ethyl \u03b1-chloroacetylacetate", "A 21960", "NSC 78426"], "SMILES": "C(C(OCC)=O)(C(C)=O)Cl", "physical_data": {"Molecular Weight": "164.59", "Molecular Formula": "C6H9ClO3", "Boiling Point": "88-89 \u00b0C @ Press: 11 Torr", "Density": "1.172 g/cm\u00b3"}}