{"cas_no": "609-69-8", "cn_name": "2-\u7fa5\u74b0\u5df1\u57fa\u7532\u9178", "en_name": ["2-Hydroxycyclohexanecarboxylic acid", "Cyclohexanecarboxylic acid, 2-hydroxy-", "2-Hydroxycyclohexanecarboxylic acid", "Cyclohexanol-2-carboxylic acid", "Hexahydrosalicylic acid"], "SMILES": "C(O)(=O)C1C(O)CCCC1", "physical_data": {"Molecular Weight": "144.17", "Molecular Formula": "C7H12O3", "Melting Point": "111 \u00b0C"}}