{"cas_no": "609-54-1", "cn_name": "2,5-\u4e8c\u7532\u82ef\u78fa\u9178(\u4e8c\u6c34\u7269)", "en_name": ["2,5-Dimethylbenzenesulfonic acid", "Benzenesulfonic acid, 2,5-dimethyl-", "2,5-Xylenesulfonic acid", "2,5-Dimethylbenzenesulfonic acid", "p-Xylene-2-sulfonic acid", "p-Xylenesulfonic acid", "2,5-Dimethylbenzene-1-sulfonic acid"], "SMILES": "S(=O)(=O)(O)C1=C(C)C=CC(C)=C1", "physical_data": {"Molecular Weight": "186.23", "Molecular Formula": "C8H10O3S", "Melting Point": "86 \u00b0C"}}