{"cas_no": "609-11-0", "cn_name": "2,3-\u4e8c\u6eb4\u4e01\u9178\u4e59\u916f", "en_name": ["Butanoic acid, 2,3-dibromo-, ethyl ester", "Butanoic acid, 2,3-dibromo-, ethyl ester", "Butyric acid, 2,3-dibromo-, ethyl ester", "Butyric acid, \u03b1,\u03b2-dibromo-, Et ester", "Ethyl 2,3-dibromobutanoate", "Ethyl 2,3-dibromobutyrate", "NSC 83552", "2,3-Dibromobutyric acid ethyl ester"], "SMILES": "C(C(OCC)=O)(C(Br)C)Br", "physical_data": {"Molecular Weight": "273.95", "Molecular Formula": "C6H10Br2O2", "Boiling Point": "103-104 \u00b0C @ Press: 17 Torr", "Melting Point": "58.5 \u00b0C", "Density": "1.7014 g/cm\u00b3 @ Temp: 20 \u00b0C"}}