{"cas_no": "609-93-8", "cn_name": "2,6-\u4e8c\u785d\u57fa-4-\u7532\u57fa\u82ef\u915a", "en_name": ["2,6-Dinitro-p-cresol", "Phenol, 4-methyl-2,6-dinitro-", "p-Cresol, 2,6-dinitro-", "4-Methyl-2,6-dinitrophenol", "2,6-Dinitro-4-methylphenol", "2,6-Dinitro-p-cresol", "3,5-Dinitro-4-hydroxytoluene", "2,6-Dinitro-4-cresol", "NSC 33870", "I 95"], "SMILES": "N(=O)(=O)C1=C(O)C(N(=O)=O)=CC(C)=C1", "physical_data": {"Molecular Weight": "198.13", "Molecular Formula": "C7H6N2O5", "Melting Point": "85 \u00b0C"}}