{"cas_no": "609-21-2", "cn_name": "4-\u6c28\u57fa-2,6-\u4e8c\u6eb4\u82ef\u915a", "en_name": ["4-Amino-2,6-dibromophenol", "Phenol, 4-amino-2,6-dibromo-", "4-Amino-2,6-dibromophenol", "2,6-Dibromo-4-aminophenol", "3,5-Dibromo-4-hydroxyaniline", "NSC 6217", "4-Hydroxy-3,5-dibromoaniline"], "SMILES": "OC1=C(Br)C=C(N)C=C1Br", "physical_data": {"Molecular Weight": "266.92", "Molecular Formula": "C6H5Br2NO", "Melting Point": "191-193 \u00b0C"}}