{"cas_no": "609-40-5", "cn_name": "2-\u785d\u57fa\u567b\u5429", "en_name": ["2-Nitrothiophene", "Thiophene, 2-nitro-", "2-Nitrothiophene", "\u03b1-Nitrothiophene", "NSC 5371"], "SMILES": "N(=O)(=O)C1=CC=CS1", "physical_data": {"Molecular Weight": "129.14", "Molecular Formula": "C4H3NO2S", "Boiling Point": "224.5 \u00b0C", "Melting Point": "46.5 \u00b0C"}}