{"cas_no": "609-71-2", "cn_name": "2-\u7f9f\u57fa\u70df\u9178", "en_name": ["2-Hydroxynicotinic acid", "3-Pyridinecarboxylic acid, 1,2-dihydro-2-oxo-", "Nicotinic acid, 1,2-dihydro-2-oxo-", "1,2-Dihydro-2-oxo-3-pyridinecarboxylic acid", "2-Hydroxynicotinic acid", "2-Hydroxypyridine-3-carboxylic acid", "3-Carboxy-2-pyridone", "1,2-Dihydro-2-oxonicotinic acid", "2-Hydroxy-3-carboxypyridine", "NSC 226152", "2-Oxo-1,2-dihydropyridine-3-carboxylic acid", "2-Oxopyridine-3-carboxylic acid", "2-Oxo-1H-pyridine-3-carboxylic acid", "Pyridine-2-hydroxy-3-carboxylic acid"], "SMILES": "C(O)(=O)C=1C(=O)NC=CC1", "physical_data": {"Molecular Weight": "139.11", "Molecular Formula": "C6H5NO3", "Melting Point": "247-249 \u00b0C (decomp)"}}