{"cas_no": "609-09-6", "cn_name": "\u916e\u57fa\u4e19\u4e8c\u9178\u4e8c\u4e59\u916f", "en_name": ["1,3-Diethyl 2-oxopropanedioate", "Propanedioic acid, 2-oxo-, 1,3-diethyl ester", "Mesoxalic acid, diethyl ester", "Propanedioic acid, oxo-, diethyl ester", "1,3-Diethyl 2-oxopropanedioate", "Ethyl mesoxalate", "Diethyl oxomalonate", "Diethyl ketomalonate", "Diethyl mesoxalate", "Ethyl oxomalonate", "Ethyl ketomalonate", "Diethyl 2-oxopropane-1,3-dioate", "Diethyl oxopropanedioate", "Diethyl 2-oxomalonate", "2-Oxomalonic acid diethyl ester", "Oxopropanedioic acid diethyl ester", "NSC 53478", "Carbonyl diethyl malonate", "Ethoxycarbonyl ethoxycarbonyl ketone"], "SMILES": "C(C(OCC)=O)(C(OCC)=O)=O", "physical_data": {"Molecular Weight": "174.15", "Molecular Formula": "C7H10O5", "Boiling Point": "210 \u00b0C", "Melting Point": "-30 \u00b0C", "Density": "1.119 g/cm\u00b3 @ Temp: 20 \u00b0C"}}