{"cas_no": "609-39-2", "cn_name": "2-\u785d\u544b\u5583", "en_name": ["2-Nitrofuran", "Furan, 2-nitro-", "2-Nitrofuran", "5-Nitrofuran", "Nitrofuran", "NSC 59983"], "SMILES": "N(=O)(=O)C1=CC=CO1", "physical_data": {"Molecular Weight": "113.07", "Molecular Formula": "C4H3NO3", "Boiling Point": "134 \u00b0C", "Melting Point": "30 \u00b0C"}}