{"cas_no": "609-19-8", "cn_name": "3,4,5-\u4e09\u6c2f\u82ef\u915a", "en_name": ["3,4,5-Trichlorophenol", "Phenol, 3,4,5-trichloro-", "3,4,5-Trichlorophenol", "NSC 243667"], "SMILES": "ClC1=C(Cl)C=C(O)C=C1Cl", "physical_data": {"Molecular Weight": "197.45", "Molecular Formula": "C6H3Cl3O", "Boiling Point": "275 \u00b0C", "Melting Point": "101 \u00b0C"}}