{"cas_no": "609-73-4", "cn_name": "2-\u785d\u57fa\u7898\u82ef", "en_name": ["1-Iodo-2-nitrobenzene", "Benzene, 1-iodo-2-nitro-", "1-Iodo-2-nitrobenzene", "o-Iodonitrobenzene", "2-Nitroiodobenzene", "2-Iodonitrobenzene", "o-Nitroiodobenzene", "o-Nitrophenyl iodide", "2-Nitrophenyl iodide", "1-Nitro-2-iodobenzene", "NSC 9793", "2-Nitro-1-iodobenzene"], "SMILES": "N(=O)(=O)C1=C(I)C=CC=C1", "physical_data": {"Molecular Weight": "249.01", "Molecular Formula": "C6H4INO2", "Boiling Point": "290 \u00b0C", "Melting Point": "54 \u00b0C"}}