{"cas_no": "609-08-5", "cn_name": "\u7532\u57fa\u4e19\u4e8c\u9178\u4e8c\u4e59\u916f", "en_name": ["Diethyl methylmalonate", "Propanedioic acid, 2-methyl-, 1,3-diethyl ester", "Malonic acid, methyl-, diethyl ester", "Propanedioic acid, methyl-, diethyl ester", "Diethyl methylmalonate", "Methylmalonic acid diethyl ester", "Diethyl 2-methylmalonate", "Diethyl \u03b1-methylmalonate", "2-Methylmalonic acid diethyl ester", "NSC 8700", "Diethyl methylpropanedioate", "1,3-Diethyl 2-methylpropanedioate", "Diethyl 2-methylpropanedioate"], "SMILES": "C(C(OCC)=O)(C(OCC)=O)C", "physical_data": {"Molecular Weight": "174.19", "Molecular Formula": "C8H14O4", "Boiling Point": "201 \u00b0C", "Density": "1.0190 g/cm\u00b3 @ Temp: 20 \u00b0C"}}