{"cas_no": "609-23-4", "cn_name": "2,4,6-\u4e09\u7898\u82ef\u915a", "en_name": ["2,4,6-Triiodophenol", "Phenol, 2,4,6-triiodo-", "2,4,6-Triiodophenol", "NSC 2594", "AM 24", "Bobel 24"], "SMILES": "OC1=C(I)C=C(I)C=C1I", "physical_data": {"Molecular Weight": "471.80", "Molecular Formula": "C6H3I3O", "Melting Point": "159.8 \u00b0C"}}