{"cas_no": "609-72-3", "cn_name": "N,N-\u4e8c\u7532\u57fa\u90bb\u7532\u82ef\u80fa", "en_name": ["Dimethyl-o-toluidine", "Benzenamine, N,N,2-trimethyl-", "o-Toluidine, N,N-dimethyl-", "N,N,2-Trimethylbenzenamine", "N,N-Dimethyl-o-toluidine", "N,N,2-Trimethylaniline", "N,N-Dimethyl-2-methylaniline", "o-Methyldimethylaniline", "Dimethyl-o-toluidine", "2-Methyl-N,N-dimethylaniline", "o-Methyl-N,N-dimethylaniline", "N,N-Dimethyl-o-methylaniline", "2,N,N-Trimethylaniline", "NSC 1784"], "SMILES": "N(C)(C)C1=C(C)C=CC=C1", "physical_data": {"Molecular Weight": "135.21", "Molecular Formula": "C9H13N", "Boiling Point": "194.1 \u00b0C", "Melting Point": "-60 \u00b0C", "Density": "0.9252-0.9261 g/cm\u00b3 @ Temp: 20.6 \u00b0C"}}