{"cas_no": "609-65-4", "cn_name": "\u90bb\u6c2f\u82ef\u7532\u9170\u6c2f", "en_name": ["2-Chlorobenzoyl chloride", "Benzoyl chloride, 2-chloro-", "Benzoyl chloride, o-chloro-", "2-Chlorobenzoyl chloride", "o-Chlorobenzoyl chloride", "NSC 93897"], "SMILES": "C(Cl)(=O)C1=C(Cl)C=CC=C1", "physical_data": {"Molecular Weight": "175.01", "Molecular Formula": "C7H4Cl2O", "Boiling Point": "238 \u00b0C", "Melting Point": "-4 \u00b0C"}}