{"cas_no": "609-66-5", "cn_name": "2-\u6c2f\u82ef\u7532\u9170\u80fa", "en_name": ["2-Chlorobenzamide", "Benzamide, 2-chloro-", "Benzamide, o-chloro-", "2-Chlorobenzamide", "o-Chlorobenzamide", "NSC 406895"], "SMILES": "C(N)(=O)C1=C(Cl)C=CC=C1", "physical_data": {"Molecular Weight": "155.58", "Molecular Formula": "C7H6ClNO", "Melting Point": "143 \u00b0C"}}