{"cas_no": "609-14-3", "cn_name": "2-\u7532\u57fa\u4e59\u9170\u4e59\u9178\u4e59\u916f", "en_name": ["Ethyl 2-methylacetoacetate", "Butanoic acid, 2-methyl-3-oxo-, ethyl ester", "Acetoacetic acid, 2-methyl-, ethyl ester", "Acetoacetic acid, \u03b1-methyl-, ethyl ester", "Ethyl 2-methylacetoacetate", "Ethyl \u03b1-methylacetylacetate", "2-Methylacetoacetic acid ethyl ester", "Ethyl \u03b1-methylacetoacetate", "Ethyl 2-methyl-3-oxobutyrate", "Ethyl \u03b1-acetylpropionate", "\u03b1-Methylacetoacetic ester", "Ethyl 2-methyl-3-oxobutanoate", "Ethyl 2-acetylpropionate", "Ethyl methylacetoacetate", "Ethyl (\u00b1)-2-methylacetoacetate", "Ethyl 2-acetylpropanoate", "2-Methyl-3-oxobutanoic acid ethyl ester", "NSC 1102", "2-Methyl-3-oxobutyric acid ethyl ester", "Ethyl 3-oxo-2-methylbutanoate"], "SMILES": "C(C(OCC)=O)(C(C)=O)C", "physical_data": {"Molecular Weight": "144.17", "Molecular Formula": "C7H12O3", "Boiling Point": "187 \u00b0C", "Melting Point": "235-236 \u00b0C", "Density": "1.00150 g/cm\u00b3 @ Temp: 420 \u00b0C"}}