{"cas_no": "609-36-9", "cn_name": "DL-\u812f\u6c28\u9178", "en_name": ["DL-Proline", "Proline", "DL-Proline", "Proline, DL-", "(\u00b1)-Proline", "DL-Pro", "(RS)-Proline", "NSC 97923", "2-Pyrrolidinylcarboxylic acid"], "SMILES": "C(O)(=O)C1CCCN1", "physical_data": {"Molecular Weight": "115.13", "Molecular Formula": "C5H9NO2", "Melting Point": "205 \u00b0C"}}