{"cas_no": "609-20-1", "cn_name": "2,6-\u4e8c\u6c2f-1,4-\u82ef\u4e8c\u80fa", "en_name": ["2,6-Dichloro-1,4-benzenediamine", "1,4-Benzenediamine, 2,6-dichloro-", "p-Phenylenediamine, 2,6-dichloro-", "2,6-Dichloro-1,4-benzenediamine", "C.I. 37020", "Daito Brown Salt RR", "2,6-Dichloro-p-phenylenediamine", "2,6-Dichloro-1,4-phenylenediamine", "3,5-Dichloro-1,4-phenylenediamine", "4-Amino-2,6-dichloroaniline", "NSC 60685"], "SMILES": "NC1=C(Cl)C=C(N)C=C1Cl", "physical_data": {"Molecular Weight": "177.03", "Molecular Formula": "C6H6Cl2N2", "Melting Point": "124-125 \u00b0C"}}