{"cas_no": "609-89-2", "cn_name": "2,4-\u4e8c\u6c2f-6-\u785d\u57fa\u82ef\u915a", "en_name": ["2,4-Dichloro-6-nitrophenol", "Phenol, 2,4-dichloro-6-nitro-", "2,4-Dichloro-6-nitrophenol", "2-Nitro-4,6-dichlorophenol", "4,6-Dichloro-2-nitrophenol", "NSC 38660", "NSC 39606"], "SMILES": "N(=O)(=O)C1=C(O)C(Cl)=CC(Cl)=C1", "physical_data": {"Molecular Weight": "208.00", "Molecular Formula": "C6H3Cl2NO3", "Melting Point": "122 \u00b0C"}}