{"cas_no": "609-12-1", "cn_name": "2-\u6eb4\u4ee3\u5f02\u620a\u9178\u4e59\u916f", "en_name": ["Ethyl 2-bromo-3-methylbutanoate", "Butanoic acid, 2-bromo-3-methyl-, ethyl ester", "Butyric acid, 2-bromo-3-methyl-, ethyl ester", "Ethyl 2-bromo-3-methylbutyrate", "Ethyl 2-bromoisovalerate", "Ethyl 2-bromo-3-methylbutanoate", "\u03b1-Bromoisovaleric acid ethyl ester", "Ethyl \u03b1-bromoisovalerate", "Ethyl 2-bromo-2-isopropylacetate", "NSC 8866", "2-Bromo-3-methylbutyric acid ethyl ester", "2-Bromo-3-methylbutanoic acid ethyl ester"], "SMILES": "C(C(OCC)=O)(C(C)C)Br", "physical_data": {"Molecular Weight": "209.08", "Molecular Formula": "C7H13BrO2", "Boiling Point": "186 \u00b0C"}}