{"cas_no": "609-99-4", "cn_name": "3,5-\u4e8c\u785d\u57fa\u6c34\u6768\u9178", "en_name": ["3,5-Dinitrosalicylic acid", "Benzoic acid, 2-hydroxy-3,5-dinitro-", "Salicylic acid, 3,5-dinitro-", "2-Hydroxy-3,5-dinitrobenzoic acid", "3,5-Dinitro-2-hydroxybenzoic acid", "3,5-Dinitrosalicylic acid", "DNS", "NSC 181", "TCI-D 0850"], "SMILES": "C(O)(=O)C1=C(O)C(N(=O)=O)=CC(N(=O)=O)=C1", "physical_data": {"Molecular Weight": "228.12", "Molecular Formula": "C7H4N2O7", "Melting Point": "170 \u00b0C"}}