{"cas_no": "609-55-2", "cn_name": "2-\u6c28\u57fa-5-\u7532\u57fa\u82ef\u78fa\u9170\u80fa", "en_name": ["2-Amino-5-methylbenzenesulfonamide", "Benzenesulfonamide, 2-amino-5-methyl-", "m-Toluenesulfonamide, 6-amino-", "2-Amino-5-methylbenzenesulfonamide", "NSC 57677", "2-Amino-5-methylbenzene-1-sulfonamide"], "SMILES": "S(N)(=O)(=O)C1=C(N)C=CC(C)=C1", "physical_data": {"Molecular Weight": "186.23", "Molecular Formula": "C7H10N2O2S", "Melting Point": "165 \u00b0C"}}