{"cas_no": "609-02-9", "cn_name": "\u7532\u57fa\u4e19\u4e8c\u9178\u4e8c\u7532\u916f", "en_name": ["Dimethyl methylmalonate", "Propanedioic acid, 2-methyl-, 1,3-dimethyl ester", "Malonic acid, methyl-, dimethyl ester", "Propanedioic acid, methyl-, dimethyl ester", "Dimethyl methylmalonate", "Dimethyl 2-methylmalonate", "Methylmalonic acid dimethyl ester", "Methylpropanedioic acid dimethyl ester", "NSC 143779", "1,3-Dimethyl 2-methylpropanedioate", "Dimethyl 2-methylpropanedioate", "Dimethyl methylpropanedioate"], "SMILES": "C(C(OC)=O)(C(OC)=O)C", "physical_data": {"Molecular Weight": "146.14", "Molecular Formula": "C6H10O4", "Boiling Point": "174 \u00b0C"}}