{"cas_no": "609-67-6", "cn_name": "\u90bb\u7898\u82ef\u7532\u9170\u6c2f", "en_name": ["2-Iodobenzoyl chloride", "Benzoyl chloride, 2-iodo-", "Benzoyl chloride, o-iodo-", "2-Iodobenzoyl chloride", "o-Iodobenzoyl chloride", "2-Iodobenzoic acid chloride"], "SMILES": "C(Cl)(=O)C1=C(I)C=CC=C1", "physical_data": {"Molecular Weight": "266.46", "Molecular Formula": "C7H4ClIO", "Boiling Point": "106-108 \u00b0C @ Press: 0.2 Torr", "Melting Point": "35-40 \u00b0C"}}