{"cas_no": "609-85-8", "cn_name": "2-\u6c28\u57fa-3,5-\u4e8c\u6eb4\u82ef\u7532\u9178", "en_name": ["2-Amino-3,5-dibromobenzoic acid", "Benzoic acid, 2-amino-3,5-dibromo-", "Anthranilic acid, 3,5-dibromo-", "2-Amino-3,5-dibromobenzoic acid", "3,5-Dibromoanthranilic acid", "NA 693", "NSC 886"], "SMILES": "C(O)(=O)C1=C(N)C(Br)=CC(Br)=C1", "physical_data": {"Molecular Weight": "294.93", "Molecular Formula": "C7H5Br2NO2", "Melting Point": "235-235.5 \u00b0C"}}