{"cas_no": "609-38-1", "cn_name": "\u7ce0\u9170\u80fa", "en_name": ["2-Furancarboxamide", "2-Furancarboxamide", "2-Furamide", "Furamide", "Furfurylamide", "2-Furylamide", "NSC 9351"], "SMILES": "C(N)(=O)C1=CC=CO1", "physical_data": {"Molecular Weight": "111.10", "Molecular Formula": "C5H5NO2", "Melting Point": "142 \u00b0C"}}