{"cas_no": "609-06-3", "cn_name": "L-(-)\u6728\u7cd6", "en_name": ["L-Xylose", "L-Xylose", "Xylose, L-", "NSC 26213"], "SMILES": "C(C(CO)O)(C(C=O)O)O", "physical_data": {"Molecular Weight": "150.13", "Molecular Formula": "C5H10O5", "Melting Point": "144 \u00b0C"}}