{"cas_no": "609-70-1", "cn_name": "4-\u7f9f\u57fa\u70df\u9178", "en_name": ["4-Hydroxynicotinic acid", "3-Pyridinecarboxylic acid, 4-hydroxy-", "Nicotinic acid, 4-hydroxy-", "4-Hydroxy-3-pyridinecarboxylic acid", "4-Hydroxynicotinic acid", "4-Hydroxypyridine-3-carboxylic acid"], "SMILES": "C(O)(=O)C=1C(O)=CC=NC1", "physical_data": {"Molecular Weight": "139.11", "Molecular Formula": "C6H5NO3", "Melting Point": "245-247 \u00b0C"}}