{"cas_no": "609-60-9", "cn_name": "2,4-\u4e8c\u7532\u57fa\u82ef\u78fa\u9170\u6c2f", "en_name": ["2,4-Dimethylbenzenesulfonyl chloride", "Benzenesulfonyl chloride, 2,4-dimethyl-", "2,4-Xylenesulfonyl chloride", "2,4-Dimethylbenzenesulfonyl chloride", "2,4-Dimethylphenylsulfonyl chloride", "3,5-Dimethylbenzene-2-sulfonyl chloride", "2,4-Dimethylbenzene-1-sulfonylchloride", "2,4-Dimethylbenzene-1-sulfonyl chloride"], "SMILES": "S(Cl)(=O)(=O)C1=C(C)C=C(C)C=C1", "physical_data": {"Molecular Weight": "204.67", "Molecular Formula": "C8H9ClO2S", "Boiling Point": "152-154 \u00b0C @ Press: 12 Torr", "Melting Point": "29-31 \u00b0C"}}