{"cas_no": "609-86-9", "cn_name": "2-\u6c28\u57fa-3,5-\u4e8c\u7898\u82ef\u7532\u9178,", "en_name": ["2-Amino-3,5-diiodobenzoic acid", "Benzoic acid, 2-amino-3,5-diiodo-", "Anthranilic acid, 3,5-diiodo-", "2-Amino-3,5-diiodobenzoic acid", "3,5-Diiodoanthranilic acid", "NSC 4508"], "SMILES": "C(O)(=O)C1=C(N)C(I)=CC(I)=C1", "physical_data": {"Molecular Weight": "388.93", "Molecular Formula": "C7H5I2NO2", "Melting Point": "230-232 \u00b0C"}}