{"cas_no": "6090-09-1", "cn_name": "4-\u4e59\u9170\u57fa-1-\u7532\u57fa-\u73af\u5df1\u70ef", "en_name": ["4-Acetyl-1-methylcyclohexene", "Ethanone, 1-(4-methyl-3-cyclohexen-1-yl)-", "Ketone, methyl 4-methyl-3-cyclohexen-1-yl", "1-(4-Methyl-3-cyclohexen-1-yl)ethanone", "1-Methyl-4-acetyl-1-cyclohexene", "Methyl 4-methyl-3-cyclohexen-1-yl ketone", "4-Methyl-3-cyclohexen-1-yl methyl ketone", "4-Acetyl-1-methyl-1-cyclohexene", "4-Acetyl-1-methylcyclohexene", "Limona ketone", "1-(4-Methylcyclohex-3-enyl)ethanone", "(+-)-4-Acetyl-1-methylcyclohexene"], "SMILES": "C(C)(=O)C1CCC(C)=CC1", "physical_data": {"Molecular Weight": "138.21", "Molecular Formula": "C9H14O", "Boiling Point": "88-89 \u00b0C", "Density": "0.9385 g/cm\u00b3 @ Temp: 20 \u00b0C"}}