{"cas_no": "6090-95-5", "cn_name": "1,2-\u8131\u6c34\u808c\u9187", "en_name": ["Conduritol B epoxide", "myo-Inositol, 1,2-anhydro-", "Inositol, 1,2-anhydro-, myo-", "DL-myo-Inositol, 1,2-anhydro-", "1,2-Anhydro-myo-inositol", "Conduritol B epoxide"], "SMILES": "OC1C2C(O2)C(O)C(O)C1O", "physical_data": {"Molecular Weight": "162.14", "Molecular Formula": "C6H10O5", "Melting Point": "154-155 \u00b0C"}}