{"cas_no": "6091-44-7", "cn_name": "\u54cc\u5576\u76d0\u9178\u76d0", "en_name": ["Piperidine, hydrochloride", "Piperidine, hydrochloride (1:1)", "Piperidine, hydrochloride", "Piperidinium chloride"], "SMILES": "C1CCNCC1.Cl", "physical_data": {"Molecular Weight": "", "Molecular Formula": "C5H11N.ClH", "Melting Point": "245-248 \u00b0C"}}