{"cas_no": "6091-64-1", "cn_name": "2-\u6eb4\u82ef\u7532\u9178\u4e59\u916f", "en_name": ["Ethyl 2-bromobenzoate", "Benzoic acid, 2-bromo-, ethyl ester", "Benzoic acid, o-bromo-, ethyl ester", "Ethyl o-bromobenzoate", "Ethyl 2-bromobenzoate", "o-(Ethoxycarbonyl)phenyl bromide", "o-Bromobenzoic acid ethyl ester", "2-Bromobenzoic acid ethyl ester", "NSC 10122"], "SMILES": "C(OCC)(=O)C1=C(Br)C=CC=C1", "physical_data": {"Molecular Weight": "229.07", "Molecular Formula": "C9H9BrO2", "Boiling Point": "254.5 \u00b0C"}}