{"cas_no": "6092-54-2", "cn_name": "\u6c2f\u7532\u9178\u6b63\u5df1\u916f", "en_name": ["Hexyl chloroformate", "Carbonochloridic acid, hexyl ester", "Formic acid, chloro-, hexyl ester", "Hexyl alcohol, chloroformate", "Hexyl chloroformate", "Chloroformic acid n-hexyl ester", "Hexyl chlorocarbonate", "n-Hexyl chloroformate", "Hexyloxycarbonyl chloride", "Hexyl carbonochloridate"], "SMILES": "C(CCCCC)OC(Cl)=O", "physical_data": {"Molecular Weight": "164.63", "Molecular Formula": "C7H13ClO2", "Boiling Point": "60-61 \u00b0C @ Press: 7 Torr", "Density": "1.007 g/cm\u00b3"}}