{"cas_no": "60925-61-3", "cn_name": "\u5934\u5b62\u96f7\u7279", "en_name": ["Ceforanide", "5-Thia-1-azabicyclo[4.2.0]oct-2-ene-2-carboxylic acid, 7-[[2-[2-(aminomethyl)phenyl]acetyl]amino]-3-[[[1-(carboxymethyl)-1H-tetrazol-5-yl]thio]methyl]-8-oxo-, (6R,7R)-", "5-Thia-1-azabicyclo[4.2.0]oct-2-ene-2-carboxylic acid, 7-[[[2-(aminomethyl)phenyl]acetyl]amino]-3-[[[1-(carboxymethyl)-1H-tetrazol-5-yl]thio]methyl]-8-oxo-, (6R-trans)-", "5-Thia-1-azabicyclo[4.2.0]oct-2-ene-2-carboxylic acid, 7-[[[2-(aminomethyl)phenyl]acetyl]amino]-3-[[[1-(carboxymethyl)-1H-tetrazol-5-yl]thio]methyl]-8-oxo-, (6R,7R)-", "(6R,7R)-7-[[2-[2-(Aminomethyl)phenyl]acetyl]amino]-3-[[[1-(carboxymethyl)-1H-tetrazol-5-yl]thio]methyl]-8-oxo-5-thia-1-azabicyclo[4.2.0]oct-2-ene-2-carboxylic acid", "Antibiotic BL-S 786", "BL-S 786", "Ceforanide"], "SMILES": "C(O)(=O)C=1N2C(C(NC(CC3=C(CN)C=CC=C3)=O)C2=O)SCC1CSC=4N(CC(O)=O)N=NN4", "physical_data": {"Molecular Weight": "519.55", "Molecular Formula": "C20H21N7O6S2", "Melting Point": "&gt;150 \u00b0C (decomp)"}}