{"cas_no": "6092-80-4", "cn_name": "O-\u82ef\u57fa\u7f9f\u57faL\u80fa\u76d0\u9178\u76d0", "en_name": ["Hydroxylamine, O-phenyl-, hydrochloride (1:1)", "Hydroxylamine, O-phenyl-, hydrochloride (1:1)", "Hydroxylamine, O-phenyl-, hydrochloride", "Phenoxyamine, hydrochloride", "O-Phenylhydroxylamine hydrochloride", "O-Phenylhydroxyamine hydrochloride"], "SMILES": "O(N)C1=CC=CC=C1.Cl", "physical_data": {"Molecular Weight": "", "Molecular Formula": "C6H7NO.ClH", "Melting Point": "136 \u00b0C (decomp)"}}