{"cas_no": "60933-65-5", "cn_name": "(R)-(-)-S-\u7532\u57fa-S-\u82ef\u4e9a\u781c\u4e9a\u80fa", "en_name": ["[S(R)]-S-Methyl-S-phenylsulfoximine", "Sulfoximine, S-methyl-S-phenyl-, [S(R)]-", "Sulfoximine, S-methyl-S-phenyl-, (R)-", "[S(R)]-S-Methyl-S-phenylsulfoximine", "(R)-S-Methyl-S-phenylsulfoximine", "(R)-Imino(methyl)phenyl-\u03bb6-sulfanone"], "SMILES": "S(C)(=N)(=O)C1=CC=CC=C1", "physical_data": {"Molecular Weight": "155.22", "Molecular Formula": "C7H9NOS", "Melting Point": "32-34 \u00b0C"}}