{"cas_no": "6093-71-6", "cn_name": "7-\u7f9f\u57fa\u9999\u8c46\u7d20-3-\u7fa7\u9178\u4e59\u916f", "en_name": ["Ethyl 7-hydroxycoumarin-3-carboxylate", "2H-1-Benzopyran-3-carboxylic acid, 7-hydroxy-2-oxo-, ethyl ester", "3-Carbethoxy-7-hydroxycoumarin", "3-Carboxy-7-hydroxycoumarin ethyl ester", "7-Hydroxy-3-(carboethoxy)coumarin", "3-Carboethoxy-7-hydroxycoumarin", "7-Hydroxy-3-carbethoxycoumarin", "Ethyl 7-hydroxycoumarin-3-carboxylate", "7-Hydroxy-2-oxo-2H-1-benzopyran-3-carboxylic acid ethyl ester", "Ethyl 7-hydroxy-2-oxo-2H-chromene-3-carboxylate"], "SMILES": "O=C1OC=2C(C=C1C(OCC)=O)=CC=C(O)C2", "physical_data": {"Molecular Weight": "234.20", "Molecular Formula": "C12H10O5", "Melting Point": "165-170 \u00b0C"}}