{"cas_no": "6094-60-6", "cn_name": "1\u82c4\u57fa-4-\u6c30\u57fa-4-\u7f9f\u57fa\u54cc\u5576", "en_name": ["4-Hydroxy-1-(phenylmethyl)-4-piperidinecarbonitrile", "4-Piperidinecarbonitrile, 4-hydroxy-1-(phenylmethyl)-", "Isonipecotonitrile, 1-benzyl-4-hydroxy-", "4-Hydroxy-1-(phenylmethyl)-4-piperidinecarbonitrile", "1-Benzyl-4-hydroxypiperidine-4-carbonitrile", "1-Benzyl-4-hydroxypiperidin-4-carbonitrile", "1-Benzyl-4-cyano-4-hydroxypiperidine"], "SMILES": "C(N1CCC(C#N)(O)CC1)C2=CC=CC=C2", "physical_data": {"Molecular Weight": "216.28", "Molecular Formula": "C13H16N2O", "Melting Point": "102 \u00b0C"}}