{"cas_no": "6094-02-6", "cn_name": "2-\u7532\u57fa-1-\u5df1\u70ef", "en_name": ["2-Methyl-1-hexene", "1-Hexene, 2-methyl-", "2-Methyl-1-hexene", "NSC 73924"], "SMILES": "C(C(C)=C)CCC", "physical_data": {"Molecular Weight": "98.19", "Molecular Formula": "C7H14", "Boiling Point": "92 \u00b0C", "Melting Point": "-102.8 \u00b0C", "Density": "0.6987 g/cm\u00b3 @ Temp: 25 \u00b0C"}}