{"cas_no": "60940-34-3", "cn_name": "\u4f9d\u5e03\u7852", "en_name": ["Ebselen", "1,2-Benzisoselenazol-3(2H)-one, 2-phenyl-", "2-Phenyl-1,2-benzisoselenazol-3(2H)-one", "PZ 51", "Ebselen", "2-Phenyl-1,2-benzoisoselenazol-3(2H)-one", "NSC 639762", "Lopac E 3520", "CCG-39161", "DR 3305", "SPI 1005", "2-Phenyl-1,2-benzoselenazol-3-one", "2-Phenylbenzo[d][1,2]selenazol-3(2H)-one"], "SMILES": "O=C1N([Se]C=2C1=CC=CC2)C3=CC=CC=C3", "physical_data": {"Molecular Weight": "274.18", "Molecular Formula": "C13H9NOSe", "Melting Point": "181-182 \u00b0C"}}