{"cas_no": "60956-25-4", "cn_name": "2-\u6eb4-1,3-\u4e8c\u7532\u57fa-4-\u785d\u57fa\u82ef", "en_name": ["2-Bromo-1,3-dimethyl-4-nitrobenzene", "Benzene, 2-bromo-1,3-dimethyl-4-nitro-", "2-Bromo-1,3-dimethyl-4-nitrobenzene", "2,6-Dimethyl-3-nitrobromobenzene"], "SMILES": "N(=O)(=O)C1=C(C)C(Br)=C(C)C=C1", "physical_data": {"Molecular Weight": "230.06", "Molecular Formula": "C8H8BrNO2", "Melting Point": "53 \u00b0C"}}