{"cas_no": "6095-42-7", "cn_name": "\u4e9a\u78f7\u9178\u4e09\u6b63\u5df1\u916f", "en_name": ["Phosphorous acid, trihexyl ester", "Phosphorous acid, trihexyl ester", "Hexyl phosphite ((C6H13O)3P)", "Hexyl phosphite", "Trihexyl phosphite", "Tri-n-hexyl phosphite", "NSC 5638"], "SMILES": "P(OCCCCCC)(OCCCCCC)OCCCCCC", "physical_data": {"Molecular Weight": "334.47", "Molecular Formula": "C18H39O3P", "Boiling Point": "123-126 \u00b0C @ Press: 0.15 Torr", "Density": "0.9006 g/cm\u00b3 @ Temp: 20 \u00b0C"}}