{"cas_no": "60956-26-5", "cn_name": "4-\u6eb4-2-\u785d\u57fa\u7532\u82ef", "en_name": ["4-Bromo-1-methyl-2-nitrobenzene", "Benzene, 4-bromo-1-methyl-2-nitro-", "Toluene, 4-bromo-2-nitro-", "4-Bromo-1-methyl-2-nitrobenzene", "4-Bromo-2-nitrotoluene", "1-Bromo-4-methyl-3-nitrobenzene", "2-Nitro-4-bromotoluene", "1-Methyl-2-nitro-4-bromobenzene"], "SMILES": "N(=O)(=O)C1=C(C)C=CC(Br)=C1", "physical_data": {"Molecular Weight": "216.03", "Molecular Formula": "C7H6BrNO2", "Boiling Point": "256 \u00b0C", "Melting Point": "46-47 \u00b0C"}}