{"cas_no": "60956-23-2", "cn_name": "3,4-\u4e8c\u6eb4\u7532\u82ef", "en_name": ["1,2-Dibromo-4-methylbenzene", "Benzene, 1,2-dibromo-4-methyl-", "Toluene, 3,4-dibromo-", "1,2-Dibromo-4-methylbenzene", "3,4-Dibromotoluene", "NSC 139879"], "SMILES": "BrC1=C(Br)C=CC(C)=C1", "physical_data": {"Molecular Weight": "249.93", "Molecular Formula": "C7H6Br2", "Boiling Point": "123-124 \u00b0C @ Press: 19 Torr", "Melting Point": "2 \u00b0C", "Density": "1.8197 g/cm\u00b3 @ Temp: 25 \u00b0C"}}