{"cas_no": "60965-26-6", "cn_name": "2-\u6eb4-2,4-\u4e8c\u7532\u6c27\u57fa\u82ef\u4e59\u916e", "en_name": ["2-Bromo-1-(2,4-dimethoxyphenyl)ethanone", "Ethanone, 2-bromo-1-(2,4-dimethoxyphenyl)-", "2-Bromo-1-(2,4-dimethoxyphenyl)ethanone", "2-Bromo-2\u2032,4\u2032-dimethoxyacetophenone", "2,4-Dimethoxyphenacyl bromide", "NSC 158566", "2-Bromo-1-(2,4-dimethoxyphenyl)ethan-1-one"], "SMILES": "C(CBr)(=O)C1=C(OC)C=C(OC)C=C1", "physical_data": {"Molecular Weight": "259.10", "Molecular Formula": "C10H11BrO3", "Melting Point": "101-102 \u00b0C"}}