{"cas_no": "60966-26-9", "cn_name": "2'-\u6c28\u57fa-2'-\u8131\u6c27\u9e1f\u82f7", "en_name": ["2\u2032-Amino-2\u2032-deoxyguanosine", "Guanosine, 2\u2032-amino-2\u2032-deoxy-", "2\u2032-Amino-2\u2032-deoxyguanosine", "(2\u2032-Amino-2\u2032-deoxypentofuranosyl)guanine", "2\u2032-Deoxy-2\u2032-aminoguanosine", "NSC 241514", "2\u2032-amino-guanosine"], "SMILES": "O=C1C2=C(N(C=N2)C3OC(CO)C(O)C3N)NC(N)=N1", "physical_data": {"Molecular Weight": "282.26", "Molecular Formula": "C10H14N6O4", "Melting Point": "252-254 \u00b0C"}}