{"cas_no": "609771-63-3", "cn_name": "PCBM(C70)", "en_name": ["[6,6]-Phenyl-C71-butyric acid methyl ester", "3\u2032H-Cyclopropa[8,25][5,6]fullerene-C70-D5h(6)-3\u2032-butanoic acid, 3\u2032-phenyl-, methyl ester", "PC71BM", "[70]PCBM", "ADS 71BFA", "PC70BM", "[6,6]-Phenyl-C71-butyric acid methyl ester", "C 70PCBM", "C 71PCBM", "Fullerene C70PCBM", "Nanom Spectra E 110", "Nanom Spectra E 112", "NS-E 112", "E 110", "E 110H", "Methyl [6,6]-phenyl-C71-butyrate"], "SMILES": "C(CCC(OC)=O)C1(C23C14C=5C=6C=7C2=C8C9=C3C=%10C=%11C4=C%12C5C=%13C=%14C6C=%15C7C=%16C8=C%17C%18=C9C=%19C%10C=%20C%11C=%21C%12=C%22C%13C=%23C%14C=%24C%15C=%25C%16C%26=C%17C%27=C%18C=%28C%19C=%29C%20C=%30C%21C%22=C%31C%23C=%32C%24C=%33C%25C%26=C%34C%27=C%35C%28C%29C=%36C%30C%31=C%37C%32C%33C%34=C%35C%36%37)C%38=CC=CC=C%38", "physical_data": {"Molecular Weight": "1030.99", "Molecular Formula": "C82H14O2", "Melting Point": "25 \u00b0C"}}