{"cas_no": "609806-40-8", "cn_name": "4-\u7f9f\u7532\u57fa\u6c2f\u96f7\u4ed6\u5b9a", "en_name": ["Ethyl 4-[8-chloro-5,6-dihydro-4-(hydroxymethyl)-11H-benzo[5,6]cyclohepta[1,2-b]pyridin-11-ylidene]-1-piperidinecarboxylate", "1-Piperidinecarboxylic acid, 4-[8-chloro-5,6-dihydro-4-(hydroxymethyl)-11H-benzo[5,6]cyclohepta[1,2-b]pyridin-11-ylidene]-, ethyl ester", "Ethyl 4-[8-chloro-5,6-dihydro-4-(hydroxymethyl)-11H-benzo[5,6]cyclohepta[1,2-b]pyridin-11-ylidene]-1-piperidinecarboxylate"], "SMILES": "C(O)C1=C2C(C(C=3C(CC2)=CC(Cl)=CC3)=C4CCN(C(OCC)=O)CC4)=NC=C1", "physical_data": {"Molecular Weight": "412.91", "Molecular Formula": "C23H25ClN2O3", "Melting Point": "83-85 \u00b0C"}}