{"cas_no": "60984-57-8", "cn_name": "N,N'-\u53cc(\u4e19\u7a00\u9170)\u80f1\u80fa", "en_name": ["N,N\u2032-Bis(acryloyl)cystamine", "2-Propenamide, N,N\u2032-(dithiodi-2,1-ethanediyl)bis-", "N,N\u2032-(Dithiodi-2,1-ethanediyl)bis[2-propenamide]", "Bisacrylylcystamine", "N,N\u2032-Bisacrylylcystamine", "N,N\u2032-Cystaminebisacrylamide", "NSC 328582", "N,N\u2032-Bis(acryloyl)cystamine", "Cystamine bisacrylamide", "N,N\u2032-Diacryloylcystamine", "2,2\u2032-(Bisacrylamino)diethyl disulfide"], "SMILES": "C(NCCSSCCNC(C=C)=O)(C=C)=O", "physical_data": {"Molecular Weight": "260.38", "Molecular Formula": "C10H16N2O2S2", "Melting Point": "120-123 \u00b0C"}}