{"cas_no": "6099-90-7", "cn_name": "\u95f4\u82ef\u4e09\u915a\u4e8c\u6c34\u5408\u7269", "en_name": ["1,3,5-Benzenetriol, hydrate (1:2)", "1,3,5-Benzenetriol, hydrate (1:2)", "Phloroglucinol, dihydrate", "1,3,5-Benzenetriol, dihydrate"], "SMILES": "OC1=CC(O)=CC(O)=C1.O", "physical_data": {"Molecular Weight": "", "Molecular Formula": "C6H6O3.2H2O", "Melting Point": "215-217 \u00b0C (decomp)"}}