{"cas_no": "6099-03-2", "cn_name": "2-\u7532\u6c27\u57fa\u8089\u6842\u9178", "en_name": ["2-Methoxycinnamic acid", "2-Propenoic acid, 3-(2-methoxyphenyl)-", "Cinnamic acid, o-methoxy-", "3-(2-Methoxyphenyl)-2-propenoic acid", "o-Methoxycinnamic acid", "2-Methoxycinnamic acid", "NSC 638141", "NSC 8135", "NCI 8135", "3-(2-Methoxyphenyl)acrylic acid"], "SMILES": "C(=CC(O)=O)C1=C(OC)C=CC=C1", "physical_data": {"Molecular Weight": "178.18", "Molecular Formula": "C10H10O3", "Melting Point": "183 \u00b0C"}}