{"cas_no": "6099-21-4", "cn_name": "1,2-\u4e8c\u82ef\u4e9a\u78fa\u9170\u57fa\u4e59\u70f7", "en_name": ["1,1\u2032-[1,2-Ethanediylbis(sulfinyl)]bis[benzene]", "Benzene, 1,1\u2032-[1,2-ethanediylbis(sulfinyl)]bis-", "Ethane, 1,2-bis(phenylsulfinyl)-", "1,1\u2032-[1,2-Ethanediylbis(sulfinyl)]bis[benzene]", "1,2-Bis(phenylsulfinyl)ethane", "2-(Benzenesulfinyl)ethylsulfinylbenzene"], "SMILES": "S(CCS(=O)C1=CC=CC=C1)(=O)C2=CC=CC=C2", "physical_data": {"Molecular Weight": "278.39", "Molecular Formula": "C14H14O2S2", "Boiling Point": "70 \u00b0C @ Press: 0.25 Torr", "Melting Point": "160 \u00b0C"}}