{"cas_no": "6099-04-3", "cn_name": "3-\u7532\u6c27\u57fa\u8089\u6842\u9178", "en_name": ["3-Methoxycinnamic acid", "2-Propenoic acid, 3-(3-methoxyphenyl)-", "Cinnamic acid, m-methoxy-", "3-(3-Methoxyphenyl)-2-propenoic acid", "m-Methoxycinnamic acid", "3-Methoxycinnamic acid", "3-(3-Methoxyphenyl)acrylic acid", "NSC 5234"], "SMILES": "C(=CC(O)=O)C1=CC(OC)=CC=C1", "physical_data": {"Molecular Weight": "178.18", "Molecular Formula": "C10H10O3", "Melting Point": "100 \u00b0C"}}