{"cas_no": "61-19-8", "cn_name": "5\u2019-\u817a\u82f7\u9178", "en_name": ["Adenosine monophosphate", "5\u2032-Adenylic acid", "5\u2032-AMP", "Adenosine 5\u2032-monophosphate", "Adenosine-5-monophosphoric acid", "Adenosine phosphate", "Adenosine 5\u2032-phosphate", "Adenosine 5\u2032-phosphoric acid", "Lycedan", "My-B-Den", "Phosaden", "Phosphentaside", "AMP", "Adenosine-5\u2032-monophosphoric acid", "Adenylic acid", "AMP (nucleotide)", "Adenovite", "Cardiomone", "Phosphaden", "Adenosine 5\u2032-(dihydrogen phosphate)", "Adenosine monophosphate", "NSC 20264", "\u03b2-D-Adenosine 5\u2032-phosphate", "MeSH ID: D000249"], "SMILES": "OC1C(N2C=3C(N=C2)=C(N)N=CN3)OC(COP(=O)(O)O)C1O", "physical_data": {"Molecular Weight": "347.22", "Molecular Formula": "C10H14N5O7P", "Melting Point": "196-200 \u00b0C"}}