{"cas_no": "61-12-1", "cn_name": "\u76d0\u9178\u5730\u5e03\u5361\u56e0", "en_name": ["Dibucaine hydrochloride", "4-Quinolinecarboxamide, 2-butoxy-N-[2-(diethylamino)ethyl]-, hydrochloride (1:1)", "Cinchoninamide, 2-butoxy-N-[2-(diethylamino)ethyl]-, monohydrochloride", "4-Quinolinecarboxamide, 2-butoxy-N-[2-(diethylamino)ethyl]-, monohydrochloride", "Benzolin (local anesthetic)", "2-n-Butoxy-N-(2-diethylaminoethyl)cinchoninamide hydrochloride", "2-Butoxy-N-(2-diethylaminoethyl)cinchoninamide hydrochloride", "2-Butoxy-N-(2-diethylaminoethyl)cinchoninic acid amide hydrochloride", "Cinchocaine hydrochloride", "Cinchocainium chloride", "Dibucaine hydrochloride", "Nupercaine hydrochloride", "Percaine", "Sovcaine", "Cincaine chloride", "Benzolin", "Sovcain", "Percain", "Percamin S", "Cincaine", "2-Butoxy-N-(2-(diethylamino)ethyl)quinoline-4-carboxamide hydrochloride"], "SMILES": "C(NCCN(CC)CC)(=O)C=1C2=C(N=C(OCCCC)C1)C=CC=C2.Cl", "physical_data": {"Molecular Weight": "", "Molecular Formula": "C20H29N3O2.ClH", "Melting Point": "94 \u00b0C (decomp)"}}