{"cas_no": "61-16-5", "cn_name": "\u76d0\u9178\u7532\u6c27\u660e", "en_name": ["Methoxamine hydrochloride", "Benzenemethanol, \u03b1-(1-aminoethyl)-2,5-dimethoxy-, hydrochloride (1:1)", "Benzyl alcohol, \u03b1-(1-aminoethyl)-2,5-dimethoxy-, hydrochloride", "Methoxamine hydrochloride", "Benzenemethanol, \u03b1-(1-aminoethyl)-2,5-dimethoxy-, hydrochloride", "2-Amino-1-(2,5-dimethoxyphenyl)-1-propanol hydrochloride", "\u03b1-(\u03b1-Aminoethyl)-2,5-dimethoxybenzyl alcohol hydrochloride", "Beta-hydroxy-beta-(2,5-dimethoxyphenol)-isopropylamine hydrochloride", "\u03b2-Hydroxy-\u03b2-(2,5-dimethoxyphenyl)isopropylamine hydrochloride", "Pressomin hydrochloride", "Vasoxine hydrochloride", "Vasoxyl hydrochloride", "2-Amino-1-hydroxy-1-(2,5-dimethoxyphenyl)propane hydrochloride", "Vasoxyl", "Vasoxine", "Vasylox"], "SMILES": "C(C(C)N)(O)C1=C(OC)C=CC(OC)=C1.Cl", "physical_data": {"Molecular Weight": "", "Molecular Formula": "C11H17NO3.ClH", "Melting Point": "212-216 \u00b0C"}}