{"cas_no": "61-25-6", "cn_name": "\u76d0\u9178\u7f42\u7c9f\u78b1", "en_name": ["Papaverine hydrochloride", "Isoquinoline, 1-[(3,4-dimethoxyphenyl)methyl]-6,7-dimethoxy-, hydrochloride (1:1)", "Isoquinoline, 6,7-dimethoxy-1-veratryl-, hydrochloride", "Isoquinoline, 1-[(3,4-dimethoxyphenyl)methyl]-6,7-dimethoxy-, hydrochloride", "Cardoverina", "Dispamil", "Papavarine chlorhydrate", "Papaverine hydrochloride", "6,7,3\u2032,4\u2032-Tetramethoxy-1-benzylisoquinoline hydrochloride", "Papaverinium chloride", "1-(3,4-Dimethoxybenzyl)-6,7-dimethoxyisoquinoline hydrochloride", "Drapavel", "Cardiospan", "Papaversan", "Ro-Papav", "Cerespan", "Vasal", "Myobid", "Paveron", "6,7-Dimethoxy-1-(3,4-dimethoxybenzyl)isoquinoline hydrochloride", "6,7-Dimethoxy-1-veratrylisoquinoline hydrochloride", "Pavased", "Pameion", "Pavacen", "Pavagen", "Optenyl", "Dynovas", "Pavadel", "Vasospan", "Therapav", "Artegodan", "Pavakey", "Panergon", "Paptial TR", "Pavabid", "Spasmo Nit", "Pavacap", "Cerebid", "Cepaverin", "Vasorin"], "SMILES": "C(C=1C2=C(C=C(OC)C(OC)=C2)C=CN1)C3=CC(OC)=C(OC)C=C3.Cl", "physical_data": {"Molecular Weight": "", "Molecular Formula": "C20H21NO4.ClH", "Melting Point": "220-225 \u00b0C"}}