{"cas_no": "61-33-6", "cn_name": "\u9752\u9709\u7d20", "en_name": ["Penicillin G", "4-Thia-1-azabicyclo[3.2.0]heptane-2-carboxylic acid, 3,3-dimethyl-7-oxo-6-[(2-phenylacetyl)amino]- (2S,5R,6R)-", "Penicillin G", "4-Thia-1-azabicyclo[3.2.0]heptane-2-carboxylic acid, 3,3-dimethyl-7-oxo-6-(2-phenylacetamido)-", "4-Thia-1-azabicyclo[3.2.0]heptane-2-carboxylic acid, 3,3-dimethyl-7-oxo-6-[(phenylacetyl)amino]- [2S-(2\u03b1,5\u03b1,6\u03b2)]-", "4-Thia-1-azabicyclo[3.2.0]heptane-2-carboxylic acid, 3,3-dimethyl-7-oxo-6-[(phenylacetyl)amino]- (2S,5R,6R)-", "(2S,5R,6R)-3,3-Dimethyl-7-oxo-6-[(2-phenylacetyl)amino]-4-thia-1-azabicyclo[3.2.0]heptane-2-carboxylic acid", "Benzyl-6-aminopenicillinic acid", "Benzylpenicillin", "Liquacillin", "Phenylacetamidopenicillanic acid", "Benzylpenicillin G", "Cilopen", "Penicillinic acid, (phenylmethyl)-", "Penicillin, (phenylmethyl)-", "Specilline G", "Benzylpenicillinic acid", "Gelacillin", "Pradupen", "Dropcillin", "Pharmacillin", "Cilloral", "Penicillin", "(5R,6R)-Benzylpenicillin", "Ursopen", "Phenylacetyl-6-aminopenicillanic acid", "Free penicillin G", "Free penicillin II", "Free benzylpenicillin", "NSC 193396", "Crysticillin 300 AS", "(2S,5R,6R)-3,3-Dimethyl-6-(2-(phenylacetylamino)-7-oxo-4-thia-1-azabicyclo[3.2.0]heptane-2-carboxylic acid", "Allpen", "(2S,5R,6R)-3,3-Dimethyl-7-oxo-6-(2-phenylacetamido)-4-thia-1-azabicyclo[3.2.0]heptan-2-carboxylic acid", "MeSH ID: D010400"], "SMILES": "C(O)(=O)C1N2C(C(NC(CC3=CC=CC=C3)=O)C2=O)SC1(C)C", "physical_data": {"Molecular Weight": "334.39", "Molecular Formula": "C16H18N2O4S", "Melting Point": "82-83 \u00b0C"}}