{"cas_no": "61-49-4", "cn_name": "N(omega)-\u7532\u57fa\u8272\u80fa", "en_name": ["Methyltryptamine", "1H-Indole-3-ethanamine, N-methyl-", "Indole, 3-[2-(methylamino)ethyl]-", "N-Methyl-1H-indole-3-ethanamine", "Dipterine", "Methyltryptamine", "N-Methyltryptamine", "Nb-Methyltryptamine", "Monomethyltryptamine", "N-Monomethyltryptamine", "N\u03c9-Methyltryptamine", "3-(2-Methylaminoethyl)indole", "3-[2-(Methylamino)ethyl]-1H-indole", "N10-Methyltryptamine", "[2-(1H-Indol-3-yl)ethyl]methylamine", "2-(1H-Indol-3-yl)-N-methylethanamine"], "SMILES": "C(CNC)C=1C=2C(NC1)=CC=CC2", "physical_data": {"Molecular Weight": "174.24", "Molecular Formula": "C11H14N2", "Boiling Point": "160-170 \u00b0C @ Press: 0.01 Torr", "Melting Point": "90 \u00b0C"}}