{"cas_no": "61-56-3", "cn_name": "\u8212\u567b\u55ea", "en_name": ["Sulthiame", "Benzenesulfonamide, 4-(tetrahydro-1,1-dioxido-2H-1,2-thiazin-2-yl)-", "Benzenesulfonamide, p-(tetrahydro-2H-1,2-thiazin-2-yl)-, S,S-dioxide", "Benzenesulfonamide, 4-(tetrahydro-2H-1,2-thiazin-2-yl)-, S,S-dioxide", "Benzenesulfonamide, p-(tetrahydro-2H-1,2-thiazin-2-yl)-, dioxide", "2H-1,2-Thiazine, benzenesulfonamide deriv.", "2H-1,2-Thiazine, tetrahydro-2-p-sulfamoylphenyl-, 1,1-dioxide", "4-(Tetrahydro-1,1-dioxido-2H-1,2-thiazin-2-yl)benzenesulfonamide", "Riker 594", "Conadil", "Contravul", "Ospolot", "2-(p-Sulfamoylphenyl)-tetrahydro-2H-1,2-thiazine 1,1-dioxide", "Sulphenyltame", "Sulthiam", "Sulthiame", "Sulthiamine", "Trolone", "A 168", "Elisal", "p-(Tetrahydro-2H-1,2-thiazin-2-yl)benzenesulfonamide dioxide", "2H-1,2-Thiazine, 2-[4-(aminosulfonyl)phenyl]tetrahydro-, 1,1-dioxide", "Sultiame", "Sulphthiame", "Sulphenytame", "Bayer A 168", "Sultiam", "A 168 (anticonvulsant)"], "SMILES": "O=S1(=O)N(C2=CC=C(S(N)(=O)=O)C=C2)CCCC1", "physical_data": {"Molecular Weight": "290.36", "Molecular Formula": "C10H14N2O4S2", "Melting Point": "181 \u00b0C"}}