{"cas_no": "61-52-9", "cn_name": "N,N-\u4e8c\u4e19\u57fa\u8272\u80fa", "en_name": ["N,N-Dipropyltryptamine", "1H-Indole-3-ethanamine, N,N-dipropyl-", "Indole, 3-[2-(dipropylamino)ethyl]-", "N,N-Dipropyl-1H-indole-3-ethanamine", "N,N-Dipropyltryptamine", "DPT"], "SMILES": "C(CN(CCC)CCC)C=1C=2C(NC1)=CC=CC2", "physical_data": {"Molecular Weight": "244.38", "Molecular Formula": "C16H24N2", "Melting Point": "174-178 \u00b0C"}}