{"cas_no": "61-54-1", "cn_name": "\u8272\u80fa", "en_name": ["Tryptamine", "1H-Indole-3-ethanamine", "Indole, 3-(2-aminoethyl)-", "3-(2-Aminoethyl)indole", "2-(3-Indolyl)ethylamine", "Tryptamine", "Tryptamin", "\u03b2-(3-Indolyl)ethylamine", "3-Indoleethylamine", "2-(1H-Indol-3-yl)ethylamine", "2-(1H-Indol-3-yl)ethanamine", "NSC 165212", "3-Indoleethanamine", "3-(2-Aminoethyl)-1H-indole", "2-(1H-Indol-3-yl)ethan-1-amine"], "SMILES": "C(CN)C=1C=2C(NC1)=CC=CC2", "physical_data": {"Molecular Weight": "160.22", "Molecular Formula": "C10H12N2", "Boiling Point": "137 \u00b0C @ Press: 0.15 Torr", "Melting Point": "118 \u00b0C"}}