{"cas_no": "61-68-7", "cn_name": "\u7532\u706d\u9178", "en_name": ["Mefenamic acid", "Benzoic acid, 2-[(2,3-dimethylphenyl)amino]-", "Anthranilic acid, N-2,3-xylyl-", "2-[(2,3-Dimethylphenyl)amino]benzoic acid", "C.I. 473", "INF 3355", "N-(2,3-Dimethylphenyl)anthranilic acid", "Mefenamic acid", "Mephenamic acid", "Ponstan", "N-(2,3-Xylyl)-2-aminobenzoic acid", "N-(2,3-Xylyl)anthranilic acid", "Coslan", "Lysalgo", "Parkemed", "Ponstel", "Ponstil", "Ponstyl", "Pontal", "Tanston", "Vialidon", "Mefacit", "2\u2032,3\u2032-Dimethyl-N-phenylanthranilic acid", "Bonabol", "Ponalar", "Namphen", "In-M", "Mefenacid", "Baphameritin M", "Bafameritin M", "CN 35355", "NSC 94437", "2-(2,3-Dimethylanilino)benzoic acid", "Relafan", "MeSH ID: D008528"], "SMILES": "N(C1=C(C(O)=O)C=CC=C1)C2=C(C)C(C)=CC=C2", "physical_data": {"Molecular Weight": "241.29", "Molecular Formula": "C15H15NO2", "Melting Point": "230-231 \u00b0C"}}