{"cas_no": "61-70-1", "cn_name": "1-\u7532\u57fa-2-\u5432\u54da\u5549\u916e", "en_name": ["1-Methyl-1,3-dihydroindol-2-one", "2H-Indol-2-one, 1,3-dihydro-1-methyl-", "2-Indolinone, 1-methyl-", "Oxindole, 1-methyl-", "1,3-Dihydro-1-methyl-2H-indol-2-one", "N-Methyloxindole", "N-Methyl-2-indolinone", "Ba 2777", "1-Methyloxindole", "N-Methylindol-2(3H)-one", "1-Methyl-2-indolinone", "1-Methyl-2-oxindole", "1-Methyl-1,3-dihydroindol-2-one", "1-Methylindol-2(3H)-one", "1-Methyl-2-indolone", "NSC 97219", "1-Methyl-1H-indolin-2-one", "N-Methyl-2-oxindole", "1-Methyl-3H-indol-2-one", "1-Methyl-2,3-dihydro-1H-indol-2-one"], "SMILES": "CN1C=2C(CC1=O)=CC=CC2", "physical_data": {"Molecular Weight": "147.17", "Molecular Formula": "C9H9NO", "Boiling Point": "110-120 \u00b0C @ Press: 1 Torr", "Melting Point": "88 \u00b0C"}}