{"cas_no": "61-75-6", "cn_name": "\u6eb4\u82c4\u4e59\u80fa", "en_name": ["Bretylium tosylate", "Benzenemethanaminium, 2-bromo-N-ethyl-N,N-dimethyl-, 4-methylbenzenesulfonate (1:1)", "(o-Bromobenzyl)ethyldimethylammonium p-toluenesulfonate", "Ammonium, (o-bromobenzyl)ethyldimethyl-, p-toluenesulfonate", "Benzenemethanaminium, 2-bromo-N-ethyl-N,N-dimethyl-, salt with 4-methylbenzenesulfonic acid (1:1)", "Bretylium tosylate", "Darenthin", "Bretylium p-toluenesulfonate", "N-Ethyl-N-(o-bromobenzyl)-N,N-dimethylammonium tosylate", "Bretylan", "Bretylate", "Ornid", "Bretylol", "Bretylium tosilate", "ASL 603", "NSC 62164", "MeSH ID: D001950"], "SMILES": "C([N+](CC)(C)C)C1=C(Br)C=CC=C1.S(=O)(=O)([O-])C1=CC=C(C)C=C1", "physical_data": {"Molecular Weight": "", "Molecular Formula": "C11H17BrN.C7H7O3S", "Melting Point": "97-99 \u00b0C"}}