{"cas_no": "61-73-4", "cn_name": "\u4e9a\u7532\u5170", "en_name": ["Methylene blue", "Phenothiazin-5-ium, 3,7-bis(dimethylamino)-, chloride (1:1)", "C.I. Basic Blue 9", "Phenothiazin-5-ium, 3,7-bis(dimethylamino)-, chloride", "C.I. 52015", "Aizen Methylene Blue FZ", "Aizen Methylene Blue BH", "Calcozine Blue ZF", "Chromosmon", "Hidaco Methylene Blue Salt Free", "Leather Pure Blue HB", "Methylene Blue D", "Methylene Blue 2BP", "Methylene Blue BBA", "Methylene Blue A", "Methylene Blue G", "Methylene Blue 2BF", "Methylene Blue 2B", "Methylene Blue 2BN", "Methylene Blue BD", "Methylene Blue N", "Methylene Blue BP", "Methylene Blue BPC", "Methylene Blue BX", "Methylene Blue BZ", "Methylene Blue chloride", "Methylene Blue FZ", "Methylene Blue GZ", "Methylene Blue JFA", "Methylene Blue NF", "Methylene Blue NZ", "Methylene Blue SG", "Methylene Blue SP", "Methylene Blue ZF", "Methylene Blue Zinc Free", "Methylene Blue ZX", "Methylenium ceruleum", "Methylthionine chloride", "Methylthioninium chloride", "Mitsui Methylene Blue", "Schultz 1038", "Swiss blue", "Tetramethylthionine chloride", "Yamamoto Methylene Blue B", "Yamamoto Methylene Blue ZF", "Ext D and C Blue No. 1", "Methylene Blue B", "Methylene blue", "Basic Blue 9", "Methylene Blue BB", "Methylene Blue Iad", "Methylene Blue HGG", "Methylene blue polychrome", "Sandocryl Blue BRL", "External Blue 1", "Tetramethylthionine", "Duasyn Basic Blue IAD", "Methylene Blue MB", "Basic Lake Blue", "Urolene Blue", "Solvent Blue 8", "C.I. Solvent Blue 8", "Izit Crystal Dye", "NSC 617593", "Maxilon Blue SG", "BIVN 401", "Virostat", "Suvus", "Proveblue", "Basic Blue 2B", "TRx 0237", "Methylene Blue solution alkaline according to Loeffler", "Loffler's alkaline Methylene Blue", "3,7-Bis(dimethylamino)-5\u03bb4-phenothiazin-5-ylium chloride", "Methylthioninium chloride Proveblue", "Sigma A 4043", "MeSH ID: D008751", "ST 093058", "ST093058"], "SMILES": "N(C)(C)C1=CC2=C(N=C3C(=[S+]2)C=C(N(C)C)C=C3)C=C1.[Cl-]", "physical_data": {"Molecular Weight": "", "Molecular Formula": "C16H18N3S.Cl", "Melting Point": "100-110 \u00b0C (decomp)", "Density": "1.31 g/cm\u00b3"}}