{"cas_no": "61-76-7", "cn_name": "(R)-\u76d0\u9178\u53bb\u6c27\u80be\u4e0a\u817a\u7d20", "en_name": ["(-)-Phenylephrine hydrochloride", "Benzenemethanol, 3-hydroxy-\u03b1-[(methylamino)methyl]-, hydrochloride (1:1), (\u03b1R)-", "Benzyl alcohol, m-hydroxy-\u03b1-[(methylamino)methyl]-, hydrochloride, (-)-", "Benzenemethanol, 3-hydroxy-\u03b1-[(methylamino)methyl]-, hydrochloride, (R)-", "Benzenemethanol, 3-hydroxy-\u03b1-[(methylamino)methyl]-, hydrochloride, (\u03b1R)-", "Almefrin", "(-)-\u03b1-Hydroxy-\u03b2-(methylamino)ethyl-\u03b1-(3-hydroxybenzene)hydrochloride", "Isophrin hydrochloride", "Neophryn", "Sucraphen", "Synasal", "(-)-Phenylephrine hydrochloride", "l-Phenylephrine hydrochloride", "Metaoxedrine chloride", "Levophenylephrine hydrochloride", "Phenylephrine hydrochloride", "l-m-Hydroxy-\u03b1-[(methylamino)methyl]benzyl alcohol hydrochloride", "l-1-(m-Hydroxyphenyl)-2-methylaminoethanol hydrochloride", "l-\u03b1-Hydroxy-\u03b2-methylamino-3-hydroxy-1-ethylbenzene hydrochloride", "Neo-Synephrine hydrochloride", "Meta-Synephrine hydrochloride", "Adrianol", "Meta-Sympatol", "Oftalfrine", "Lexatol", "Metaoxedrine hydrochloride", "R-(-)-m-Synephrine hydrochloride", "Neo-Synesin 1", "(R)-Phenylephrine hydrochloride", "Mydfrin", "Prefrin", "Decadron", "M-Sympatol", "Nostril", "Pyracort D", "Isophrin", "Alcon Efrin", "Ak-Dilate", "Ak-Nefrin", "Neosinesine", "Irifrin", "R-Phenylephrine hydrochloride", "(R)-3-(1-Hydroxy-2-(methylamino)ethyl)phenol hydrochloride"], "SMILES": "C(CNC)(O)C1=CC(O)=CC=C1.Cl", "physical_data": {"Molecular Weight": "", "Molecular Formula": "C9H13NO2.ClH", "Melting Point": "142.5 \u00b0C"}}