{"cas_no": "61-78-9", "cn_name": "\u5bf9\u6c28\u57fa\u9a6c\u5c3f\u9178", "en_name": ["p-Aminohippuric acid", "Glycine, N-(4-aminobenzoyl)-", "Hippuric acid, p-amino-", "N-(4-Aminobenzoyl)glycine", "N-(p-Aminobenzoyl)glycine", "PAH", "p-Aminohippuric acid", "4-Aminohippuric acid", "(p-Aminobenzoyl)glycine", "PAH (amino acid)", "4-Aminobenzoylglycine", "N-(4-Aminobenzoyl)aminoacetic acid", "NSC 13064", "NSC 7550", "(4-Aminobenzoylamino)acetic acid", "2-[(4-Aminobenzoyl)amino]acetic acid", "2-(4-Aminobenzamido)aceticacid", "2-[(4-Aminophenyl)formamido]acetic acid"], "SMILES": "C(NCC(O)=O)(=O)C1=CC=C(N)C=C1", "physical_data": {"Molecular Weight": "194.19", "Molecular Formula": "C9H10N2O3", "Melting Point": "198-199 \u00b0C", "Density": "1.39 g/cm\u00b3"}}