{"cas_no": "61-82-5", "cn_name": "3-\u6c28\u57fa-1,2,4-\u4e09\u6c2e\u5511", "en_name": ["1H-1,2,4-Triazol-5-amine", "1H-1,2,4-Triazol-5-amine", "s-Triazole, 3-amino-", "1H-1,2,4-Triazol-3-amine", "1H-1,2,4-Triazole, 3-amino-", "3,A-T", "ENT 25445", "3-Aminotriazole", "3-Amino-s-triazole", "3-Amino-1H-1,2,4-triazole", "3-Amino-1,2,4-triazole", "Amitrol", "Amitrol 90", "Amitrole", "Amizol", "AT", "ATA", "Cytrole", "Weedazol", "Aminotriazole (plant regulator)", "Cytrol", "2-Amino-1,3,4-triazole", "Herbidal total", "5-Amino-1,2,4-triazole", "Azaplant", "5-Amino-1H-1,2,4-triazole", "2,3,5,6-Tetraazabicyclo[2.1.1]hex-1-ene", "ATA (amine)", "1H-1,2,4-Triazol-3-ylamine", "NSC 34809", "NSC 7243", "Amerol", "Azolan", "Herbizole", "Amitrol T", "Maxata", "3-Amino-2H-1,2,4-triazole", "1H-1,2,4-Triazolamine", "TMG", "(4H-1,2,4-Triazol-3-yl)amine", "4H-3-Amino-1,2,4-triazole", "1,2,4-Triazol-5-amine", "A 0432", "3-AT"], "SMILES": "NC=1NC=NN1", "physical_data": {"Molecular Weight": "84.08", "Molecular Formula": "C2H4N4", "Melting Point": "159 \u00b0C", "Density": "1.138 x 10<sup>-3</sup> g/cm\u00b3 @ Temp: 20 \u00b0C"}}