{"cas_no": "61-80-3", "cn_name": "\u82ef\u5e76\u6076\u5511\u80fa", "en_name": ["Zoxazolamine", "2-Benzoxazolamine, 5-chloro-", "Benzoxazole, 2-amino-5-chloro-", "5-Chloro-2-benzoxazolamine", "2-Amino-5-chlorobenzoxazole", "Flexin", "McN-485", "Zoxazolamine", "5-Chloro-2-aminobenzoxazole", "Zoxamin", "Zoxine", "Deflexol", "Flexilon", "NSC 24995", "5-Chloro-1,3-benzoxazol-2-amine", "5-Chlorobenzoxazol-2-amine", "5-Chlorobenzoxazol-2-ylamine", "5-Chlorobenzo[d]oxazol-2-amine", "MeSH ID: D015049"], "SMILES": "NC=1OC=2C(N1)=CC(Cl)=CC2", "physical_data": {"Molecular Weight": "168.58", "Molecular Formula": "C7H5ClN2O", "Melting Point": "184.5 \u00b0C"}}