{"cas_no": "61-90-5", "cn_name": "L-\u4eae\u6c28\u9178", "en_name": ["L-Leucine", "L-Leucine", "Leucine, L-", "Leucine", "Pentanoic acid, 2-amino-4-methyl-, (S)-", "Leu", "(S)-2-Amino-4-methylvaleric acid", "(S)-(+)-Leucine", "(S)-2-Amino-4-methylpentanoic acid", "(S)-Leucine", "L-\u03b1-Aminoisocaproic acid", "L-(+)-Leucine", "L-Norvaline, 4-methyl-", "NSC 46709", "(2S)-2-Amino-4-methylpentanoic acid", "L-2-Amino-4-methylpentanoic acid", "(2S)-2-Amino-4-methylpentanoic acid", "1: PN: WO2020097235 SEQID: 238 claimed sequence", "17: PN: WO2021055880 SEQID: 18 claimed protein", "13: PN: US20210324027 SEQID: 13 claimed sequence", "85: PN: WO2021211467 SEQID: 238 claimed sequence", "522: PN: WO2022056313 SEQID: 538 claimed protein", "367: PN: US20220128567 SEQID: 538 claimed protein", "367: PN: US20220178935 SEQID: 538 claimed protein", "MeSH ID: D007930"], "SMILES": "C(CC(C)C)(C(O)=O)N", "physical_data": {"Molecular Weight": "131.17", "Molecular Formula": "C6H13NO2", "Boiling Point": "122-134 \u00b0C @ Press: 2-3 Torr", "Melting Point": "293 \u00b0C", "Density": "1.14 g/cm\u00b3"}}