{"cas_no": "610-30-0", "cn_name": "2,4-\u4e8c\u785d\u57fa\u82ef\u7532\u9178", "en_name": ["2,4-Dinitrobenzoic acid", "Benzoic acid, 2,4-dinitro-", "2,4-Dinitrobenzoic acid", "1-Carboxy-2,4-dinitrobenzene", "NSC 243713"], "SMILES": "N(=O)(=O)C1=C(C(O)=O)C=CC(N(=O)=O)=C1", "physical_data": {"Molecular Weight": "212.12", "Molecular Formula": "C7H4N2O6", "Boiling Point": "184-185 \u00b0C @ Press: 0.5 Torr", "Melting Point": "182 \u00b0C"}}