{"cas_no": "610-17-3", "cn_name": "N,N-\u4e8c\u7532\u57fa-3-\u785d\u57fa\u82ef\u80fa", "en_name": ["N,N-Dimethyl-2-nitrobenzenamine", "Benzenamine, N,N-dimethyl-2-nitro-", "Aniline, N,N-dimethyl-o-nitro-", "N,N-Dimethyl-2-nitrobenzenamine", "N,N-Dimethyl-o-nitroaniline", "N,N-Dimethyl-2-nitroaniline", "o-Nitro-N,N-dimethylaniline", "o-(Dimethylamino)nitrobenzene", "2-Nitro-N,N-dimethylaniline"], "SMILES": "N(C)(C)C1=C(N(=O)=O)C=CC=C1", "physical_data": {"Molecular Weight": "166.18", "Molecular Formula": "C8H10N2O2", "Boiling Point": "154 \u00b0C @ Press: 24 Torr", "Melting Point": "-20 \u00b0C", "Density": "1.1794 g/cm\u00b3"}}