{"cas_no": "610-69-5", "cn_name": "2-\u785d\u57fa\u82ef\u57fa\u4e59\u9178\u916f", "en_name": ["2-Nitrophenyl acetate", "Acetic acid, 2-nitrophenyl ester", "Acetic acid, o-nitrophenyl ester", "Phenol, o-nitro-, acetate", "2-Nitrophenyl acetate", "o-Nitrophenyl acetate", "2-Nitrophenol acetate", "NPA", "NSC 5397"], "SMILES": "N(=O)(=O)C1=C(OC(C)=O)C=CC=C1", "physical_data": {"Molecular Weight": "181.15", "Molecular Formula": "C8H7NO4", "Boiling Point": "141 \u00b0C", "Melting Point": "40.5 \u00b0C"}}