{"cas_no": "610-15-1", "cn_name": "2-\u785d\u57fa\u82ef\u7532\u9170\u80fa", "en_name": ["2-Nitrobenzamide", "Benzamide, 2-nitro-", "Benzamide, o-nitro-", "2-Nitrobenzamide", "o-Nitrobenzamide", "2-Carbamoylnitrobenzene", "NSC 407995"], "SMILES": "C(N)(=O)C1=C(N(=O)=O)C=CC=C1", "physical_data": {"Molecular Weight": "166.13", "Molecular Formula": "C7H6N2O3", "Boiling Point": "317 \u00b0C", "Melting Point": "176.6 \u00b0C", "Density": "1.43 g/cm\u00b3"}}