{"cas_no": "610-35-5", "cn_name": "4-\u7f9f\u57fa\u90bb\u82ef\u4e8c\u7532\u9178", "en_name": ["4-Hydroxyphthalic acid", "1,2-Benzenedicarboxylic acid, 4-hydroxy-", "Phthalic acid, 4-hydroxy-", "4-Hydroxy-1,2-benzenedicarboxylic acid", "4-Hydroxyphthalic acid"], "SMILES": "C(O)(=O)C1=C(C(O)=O)C=C(O)C=C1", "physical_data": {"Molecular Weight": "182.13", "Molecular Formula": "C8H6O5", "Melting Point": "205 \u00b0C"}}