{"cas_no": "610-93-5", "cn_name": "6-\u785d\u57fa\u56db\u6c2f\u82ef\u915e", "en_name": ["6-Nitrophthalide", "1(3H)-Isobenzofuranone, 6-nitro-", "Phthalide, 6-nitro-", "6-Nitro-1(3H)-isobenzofuranone", "6-Nitrophthalide", "NSC 11332"], "SMILES": "O=C1C=2C(=CC=C(N(=O)=O)C2)CO1", "physical_data": {"Molecular Weight": "179.13", "Molecular Formula": "C8H5NO4", "Melting Point": "145 \u00b0C"}}