{"cas_no": "610-78-6", "cn_name": "4-\u6c2f-3-\u785d\u57fa\u82ef\u915a", "en_name": ["4-Chloro-3-nitrophenol", "Phenol, 4-chloro-3-nitro-", "4-Chloro-3-nitrophenol", "3-Nitro-4-chlorophenol", "2-Chloro-5-hydroxynitrobenzene", "NSC 211001"], "SMILES": "N(=O)(=O)C1=C(Cl)C=CC(O)=C1", "physical_data": {"Molecular Weight": "173.55", "Molecular Formula": "C6H4ClNO3", "Melting Point": "126.5 \u00b0C"}}