{"cas_no": "610-27-5", "cn_name": "4-\u785d\u57fa\u90bb\u82ef\u4e8c\u7532\u9178", "en_name": ["4-Nitrophthalic acid", "1,2-Benzenedicarboxylic acid, 4-nitro-", "Phthalic acid, 4-nitro-", "4-Nitro-1,2-benzenedicarboxylic acid", "4-Nitrophthalic acid", "5-Nitrophthalic acid", "4-Nitrobenzene-1,2-dicarboxylic acid", "NSC 5395", "5-Nitro-1,2-benzenedicarboxylic acid"], "SMILES": "C(O)(=O)C1=C(C(O)=O)C=CC(N(=O)=O)=C1", "physical_data": {"Molecular Weight": "211.13", "Molecular Formula": "C8H5NO6", "Melting Point": "161 \u00b0C"}}