{"cas_no": "610-92-4", "cn_name": "2,5-\u4e8c\u7f9f\u57fa\u5bf9\u82ef\u4e8c\u7532\u9178", "en_name": ["2,5-Dihydroxyterephthalic acid", "1,4-Benzenedicarboxylic acid, 2,5-dihydroxy-", "Terephthalic acid, 2,5-dihydroxy-", "2,5-Dihydroxy-1,4-benzenedicarboxylic acid", "2,5-Dihydroxyterephthalic acid", "Hydroquinone-2,5-dicarboxylic acid", "NSC 407960", "DHTA"], "SMILES": "C(O)(=O)C1=C(O)C=C(C(O)=O)C(O)=C1", "physical_data": {"Molecular Weight": "198.13", "Molecular Formula": "C8H6O6", "Melting Point": "312 \u00b0C"}}