{"cas_no": "610-39-9", "cn_name": "3,4-\u4e8c\u785d\u57fa\u7532\u82ef", "en_name": ["3,4-Dinitrotoluene", "Benzene, 4-methyl-1,2-dinitro-", "Toluene, 3,4-dinitro-", "4-Methyl-1,2-dinitrobenzene", "3,4-Dinitrotoluene", "3,4-DNT", "1-Methyl-3,4-dinitrobenzene", "5-Methyl-1,2-dinitrobenzene", "NSC 52216"], "SMILES": "N(=O)(=O)C1=C(N(=O)=O)C=C(C)C=C1", "physical_data": {"Molecular Weight": "182.13", "Molecular Formula": "C7H6N2O4", "Boiling Point": "284 \u00b0C", "Melting Point": "58.3 \u00b0C", "Density": "1.2594 g/cm\u00b3 @ Temp: 111 \u00b0C"}}