{"cas_no": "610-40-2", "cn_name": "3,4-\u4e8c\u785d\u57fa\u6c2f\u82ef", "en_name": ["4-Chloro-1,2-dinitrobenzene", "Benzene, 4-chloro-1,2-dinitro-", "4-Chloro-1,2-dinitrobenzene", "1-Chloro-3,4-dinitrobenzene", "3,4-Dinitrochlorobenzene", "1,2-Dinitro-4-chlorobenzene", "NSC 119343"], "SMILES": "N(=O)(=O)C1=C(N(=O)=O)C=C(Cl)C=C1", "physical_data": {"Molecular Weight": "202.55", "Molecular Formula": "C6H3ClN2O4", "Melting Point": "40 \u00b0C", "Density": "1.687 g/cm\u00b3"}}