{"cas_no": "610-29-7", "cn_name": "2-\u785d\u57fa\u5bf9\u82ef\u4e8c\u7532\u9178", "en_name": ["Nitroterephthalic acid", "1,4-Benzenedicarboxylic acid, 2-nitro-", "Terephthalic acid, nitro-", "2-Nitro-1,4-benzenedicarboxylic acid", "Nitroterephthalic acid", "2-Nitroterephthalic acid", "2-Nitrobenzene-1,4-dicarboxylic acid", "2-Nitro-p-phthalic acid", "NSC 48124", "NSC 75848"], "SMILES": "N(=O)(=O)C1=C(C(O)=O)C=CC(C(O)=O)=C1", "physical_data": {"Molecular Weight": "211.13", "Molecular Formula": "C8H5NO6", "Melting Point": "199 \u00b0C"}}