{"cas_no": "610-66-2", "cn_name": "\u90bb\u785d\u57fa\u82ef\u4e59\u8148", "en_name": ["2-Nitrobenzeneacetonitrile", "Benzeneacetonitrile, 2-nitro-", "Acetonitrile, (o-nitrophenyl)-", "2-Nitrobenzeneacetonitrile", "o-Nitrobenzacetonitrile", "(2-Nitrophenyl)acetonitrile", "(o-Nitrophenyl)acetonitrile", "2-Nitrobenzyl cyanide", "o-Nitrobenzyl cyanide", "NSC 99338", "2-(2-Nitrophenyl)acetonitrile"], "SMILES": "N(=O)(=O)C1=C(CC#N)C=CC=C1", "physical_data": {"Molecular Weight": "162.15", "Molecular Formula": "C8H6N2O2", "Boiling Point": "178 \u00b0C @ Press: 12 Torr", "Melting Point": "84 \u00b0C"}}