{"cas_no": "610-49-1", "cn_name": "1-\u6c28\u57fa\u84bd", "en_name": ["1-Aminoanthracene", "1-Anthracenamine", "1-Anthramine", "1-Anthracylamine", "\u03b1-Aminoanthracene", "1-Aminoanthracene", "1-Anthrylamine", "1-Anthracenylamine", "NSC 60017"], "SMILES": "NC=1C2=C(C=C3C(=C2)C=CC=C3)C=CC1", "physical_data": {"Molecular Weight": "193.24", "Molecular Formula": "C14H11N", "Melting Point": "116 \u00b0C"}}