{"cas_no": "610-94-6", "cn_name": "\u90bb\u6eb4\u82ef\u7532\u9178\u7532\u916f", "en_name": ["Methyl 2-bromobenzoate", "Benzoic acid, 2-bromo-, methyl ester", "Benzoic acid, o-bromo-, methyl ester", "Methyl o-bromobenzoate", "Methyl 2-bromobenzoate", "2-Bromobenzoic acid methyl ester", "NSC 7318", "4-Bromo-3-benzoic acid methyl ester"], "SMILES": "C(OC)(=O)C1=C(Br)C=CC=C1", "physical_data": {"Molecular Weight": "215.04", "Molecular Formula": "C8H7BrO2", "Boiling Point": "252 \u00b0C"}}