{"cas_no": "610-02-6", "cn_name": "2,3,4-\u4e09\u7f9f\u57fa\u82ef\u7532\u9178", "en_name": ["2,3,4-Trihydroxybenzoic acid", "Benzoic acid, 2,3,4-trihydroxy-", "2,3,4-Trihydroxybenzoic acid", "2,3,4-Trihydroxybenzenecarboxylic acid", "4-Pyrogallolcarboxylic acid", "NSC 27436"], "SMILES": "C(O)(=O)C1=C(O)C(O)=C(O)C=C1", "physical_data": {"Molecular Weight": "170.12", "Molecular Formula": "C7H6O5", "Melting Point": "221 \u00b0C"}}