{"cas_no": "610-22-0", "cn_name": "4-\u785d\u57fa\u90bb\u82ef\u4e8c\u7532\u9178\u4e8c\u7532\u916f", "en_name": ["Dimethyl 4-nitrophthalate", "1,2-Benzenedicarboxylic acid, 4-nitro-, 1,2-dimethyl ester", "Phthalic acid, 4-nitro-, dimethyl ester", "1,2-Benzenedicarboxylic acid, 4-nitro-, dimethyl ester", "Dimethyl 4-nitrophthalate", "4-Nitrophthalic acid dimethyl ester", "1,2-Bis(methoxycarbonyl)-4-nitrobenzene", "Dimethyl 4-nitrobenzene-1,2-dicarboxylate", "4-Nitro-1,2-benzenedicarboxylic acid dimethyl ester", "NSC 9410", "1,2-Dimethyl 4-nitrobenzene-1,2-dicarboxylate"], "SMILES": "C(OC)(=O)C1=C(C(OC)=O)C=CC(N(=O)=O)=C1", "physical_data": {"Molecular Weight": "239.18", "Molecular Formula": "C10H9NO6", "Boiling Point": "192-195 \u00b0C @ Press: 25 Torr", "Melting Point": "65 \u00b0C"}}