{"cas_no": "610-72-0", "cn_name": "2,5-\u4e8c\u7532\u57fa\u82ef\u7532\u9178", "en_name": ["2,5-Dimethylbenzoic acid", "Benzoic acid, 2,5-dimethyl-", "2,5-Dimethylbenzoic acid", "Isoxylic acid", "2-Carboxy-1,4-dimethylbenzene"], "SMILES": "C(O)(=O)C1=C(C)C=CC(C)=C1", "physical_data": {"Molecular Weight": "150.17", "Molecular Formula": "C9H10O2", "Melting Point": "132 \u00b0C"}}