{"cas_no": "610-16-2", "cn_name": "2-\u4e8c\u7532\u57fa\u6c28\u57fa\u82ef\u7532\u9178", "en_name": ["2-(Dimethylamino)benzoic acid", "Benzoic acid, 2-(dimethylamino)-", "Anthranilic acid, N,N-dimethyl-", "2-(Dimethylamino)benzoic acid", "N,N-Dimethylanthranilic acid", "o-Dimethylaminobenzoic acid", "NSC 45790", "2-(N,N-Dimethylamino)benzoic acid"], "SMILES": "C(O)(=O)C1=C(N(C)C)C=CC=C1", "physical_data": {"Molecular Weight": "165.19", "Molecular Formula": "C9H11NO2", "Boiling Point": "126 \u00b0C @ Press: 1.3 Torr", "Melting Point": "72 \u00b0C", "Density": "0.9772 g/cm\u00b3 @ Temp: 17 \u00b0C"}}