{"cas_no": "610-88-8", "cn_name": "\u7ec6\u4ea4\u94fe\u5b62\u83cc\u916e\u9178", "en_name": ["Tenuazonic acid", "2H-Pyrrol-2-one, 3-acetyl-1,5-dihydro-4-hydroxy-5-[(1S)-1-methylpropyl]-, (5S)-", "3-Pyrrolin-2-one, 3-acetyl-5-sec-butyl-4-hydroxy-, L-", "2H-Pyrrol-2-one, 3-acetyl-1,5-dihydro-4-hydroxy-5-(1-methylpropyl)-, [S-(R*,R*)]-", "Tenuazonic acid", "(5S)-3-Acetyl-1,5-dihydro-4-hydroxy-5-[(1S)-1-methylpropyl]-2H-pyrrol-2-one", "L-Tenuazonic acid", "AAC-toxin", "MeSH ID: D013720"], "SMILES": "C(CC)(C)C1C(O)=C(C(C)=O)C(=O)N1", "physical_data": {"Molecular Weight": "197.23", "Molecular Formula": "C10H15NO3", "Melting Point": "74-76 \u00b0C"}}