{"cas_no": "610-54-8", "cn_name": "2,4-\u4e8c\u785d\u57fa\u82ef\u4e59\u919a", "en_name": ["1-Ethoxy-2,4-dinitrobenzene", "Benzene, 1-ethoxy-2,4-dinitro-", "Phenetole, 2,4-dinitro-", "1-Ethoxy-2,4-dinitrobenzene", "2,4-Dinitrophenyl ethyl ether", "2,4-Dinitrophenetole", "1,3-Dinitro-4-ethoxybenzene", "NSC 6227", "2,4-Dinitro-1-ethoxybenzene"], "SMILES": "N(=O)(=O)C1=C(OCC)C=CC(N(=O)=O)=C1", "physical_data": {"Molecular Weight": "212.16", "Molecular Formula": "C8H8N2O5", "Melting Point": "87 \u00b0C"}}