{"cas_no": "610-57-1", "cn_name": "2\uff0c4-\u4e8c\u785d\u57fa\u6c2f\u5316\u82c4", "en_name": ["2,4-Dinitrobenzyl chloride", "Benzene, 1-(chloromethyl)-2,4-dinitro-", "Toluene, \u03b1-chloro-2,4-dinitro-", "1-(Chloromethyl)-2,4-dinitrobenzene", "2,4-Dinitrobenzyl chloride", "o,p-Dinitrobenzyl chloride"], "SMILES": "N(=O)(=O)C1=C(CCl)C=CC(N(=O)=O)=C1", "physical_data": {"Molecular Weight": "216.58", "Molecular Formula": "C7H5ClN2O4", "Melting Point": "97-98 \u00b0C"}}