{"cas_no": "610-09-3", "cn_name": "\u516d\u6c22\u90bb\u82ef\u4e8c\u7532\u9178", "en_name": ["cis-1,2-Cyclohexanedicarboxylic acid", "1,2-Cyclohexanedicarboxylic acid, (1R,2S)-rel-", "1,2-Cyclohexanedicarboxylic acid, cis-", "rel-(1R,2S)-1,2-Cyclohexanedicarboxylic acid", "cis-1,2-Cyclohexanedicarboxylic acid", "cis-Hexahydrophthalic acid", "NSC 57637", "cis-1,2-Cyclohexanedioic acid"], "SMILES": "C(O)(=O)C1C(C(O)=O)CCCC1", "physical_data": {"Molecular Weight": "172.18", "Molecular Formula": "C8H12O4", "Boiling Point": "130-132 \u00b0C @ Press: 9 Torr", "Melting Point": "191 \u00b0C"}}