{"cas_no": "610-71-9", "cn_name": "2,5-\u4e8c\u6eb4\u82ef\u7532\u9178", "en_name": ["2,5-Dibromobenzoic acid", "Benzoic acid, 2,5-dibromo-", "2,5-Dibromobenzoic acid", "NSC 190697"], "SMILES": "C(O)(=O)C1=C(Br)C=CC(Br)=C1", "physical_data": {"Molecular Weight": "279.91", "Molecular Formula": "C7H4Br2O2", "Melting Point": "157 \u00b0C"}}