{"cas_no": "610-91-3", "cn_name": "5-\u785d-1,2,4-\u4e09\u7532\u82ef", "en_name": ["1,2,4-Trimethyl-5-nitrobenzene", "Benzene, 1,2,4-trimethyl-5-nitro-", "1,2,4-Trimethyl-5-nitrobenzene", "5-Nitro-1,2,4-trimethylbenzene", "2,4,5-Trimethylnitrobenzene", "1-Nitro-2,4,5-trimethylbenzene", "2,4,5-Trimethyl-1-nitrobenzene", "5-Nitropseudocumene", "NSC 10997"], "SMILES": "N(=O)(=O)C1=C(C)C=C(C)C(C)=C1", "physical_data": {"Molecular Weight": "165.19", "Molecular Formula": "C9H11NO2", "Boiling Point": "265 \u00b0C", "Melting Point": "71 \u00b0C"}}