{"cas_no": "610-97-9", "cn_name": "2-\u7898\u82ef\u7532\u9178\u7532\u916f", "en_name": ["Methyl 2-iodobenzoate", "Benzoic acid, 2-iodo-, methyl ester", "Benzoic acid, o-iodo-, methyl ester", "Methyl 2-iodobenzoate", "Methyl o-iodobenzoate", "2-Iodobenzoic acid methyl ester", "NSC 34638"], "SMILES": "C(OC)(=O)C1=C(I)C=CC=C1", "physical_data": {"Molecular Weight": "262.04", "Molecular Formula": "C8H7IO2", "Boiling Point": "280 \u00b0C"}}