{"cas_no": "610-96-8", "cn_name": "2-\u6c2f\u82ef\u7532\u9178\u7532\u916f", "en_name": ["Methyl 2-chlorobenzoate", "Benzoic acid, 2-chloro-, methyl ester", "Benzoic acid, o-chloro-, methyl ester", "Methyl 2-chlorobenzoate", "Methyl o-chlorobenzoate", "NSC 7320", "2-Chlorobenzoic acid methyl ester"], "SMILES": "C(OC)(=O)C1=C(Cl)C=CC=C1", "physical_data": {"Molecular Weight": "170.59", "Molecular Formula": "C8H7ClO2", "Boiling Point": "99 \u00b0C @ Press: 8.5 Torr"}}