{"cas_no": "610-37-7", "cn_name": "5-\u7f9f\u57fa-2-\u785d\u57fa\u82ef\u7532\u9178", "en_name": ["5-Hydroxy-2-nitrobenzoic acid", "Benzoic acid, 5-hydroxy-2-nitro-", "5-Hydroxy-2-nitrobenzoic acid", "3-Carboxy-4-nitrophenol"], "SMILES": "N(=O)(=O)C1=C(C(O)=O)C=C(O)C=C1", "physical_data": {"Molecular Weight": "183.12", "Molecular Formula": "C7H5NO5", "Melting Point": "171.5-172 \u00b0C"}}