{"cas_no": "610-81-1", "cn_name": "3-\u785d\u57fa-4-\u6c28\u57fa\u82ef\u915a", "en_name": ["4-Amino-3-nitrophenol", "Phenol, 4-amino-3-nitro-", "4-Amino-3-nitrophenol", "2-Nitro-4-hydroxyaniline", "3-Nitro-4-aminophenol", "4-Hydroxy-2-nitroaniline", "2-Amino-5-hydroxynitrobenzene", "NSC 400380", "p-Hydroxy-o-nitroaniline"], "SMILES": "N(=O)(=O)C1=C(N)C=CC(O)=C1", "physical_data": {"Molecular Weight": "154.12", "Molecular Formula": "C6H6N2O3", "Melting Point": "147-149 \u00b0C"}}