{"cas_no": "610-67-3", "cn_name": "\u90bb\u785d\u57fa\u82ef\u4e59\u919a", "en_name": ["1-Ethoxy-2-nitrobenzene", "Benzene, 1-ethoxy-2-nitro-", "Phenetole, o-nitro-", "1-Ethoxy-2-nitrobenzene", "o-Nitrophenetole", "Ethyl o-nitrophenyl ether", "2-Nitrophenetole", "2-Ethoxynitrobenzene", "o-Nitrobenzene ethyl ether", "NSC 5404"], "SMILES": "N(=O)(=O)C1=C(OCC)C=CC=C1", "physical_data": {"Molecular Weight": "167.16", "Molecular Formula": "C8H9NO3", "Boiling Point": "267 \u00b0C", "Melting Point": "2.2 \u00b0C", "Density": "1.1903 g/cm\u00b3 @ Temp: 15 \u00b0C"}}