{"cas_no": "610-34-4", "cn_name": "2-\u785d\u57fa\u4e59\u82ef", "en_name": ["Benzoic acid, 2-nitro-, ethyl ester", "Benzoic acid, 2-nitro-, ethyl ester", "Benzoic acid, o-nitro-, ethyl ester", "Ethyl o-nitrobenzoate", "Ethyl 2-nitrobenzoate", "NSC 4685"], "SMILES": "C(OCC)(=O)C1=C(N(=O)=O)C=CC=C1", "physical_data": {"Molecular Weight": "195.17", "Molecular Formula": "C9H9NO4", "Boiling Point": "275 \u00b0C", "Melting Point": "30 \u00b0C"}}