{"cas_no": "610-99-1", "cn_name": "2'-\u7f9f\u57fa\u82ef\u4e19\u916e", "en_name": ["2\u2032-Hydroxypropiophenone", "1-Propanone, 1-(2-hydroxyphenyl)-", "Propiophenone, 2\u2032-hydroxy-", "Propiophenone, o-hydroxy-", "1-(2-Hydroxyphenyl)-1-propanone", "2-Propionylphenol", "o-Hydroxypropiophenone", "2\u2032-Hydroxypropiophenone", "o-Propiophenol", "Ethyl o-hydroxyphenyl ketone", "Ethyl 2-hydroxyphenyl ketone", "2-Hydroxyphenyl ethyl ketone", "NSC 3785"], "SMILES": "C(CC)(=O)C1=C(O)C=CC=C1", "physical_data": {"Molecular Weight": "150.17", "Molecular Formula": "C9H10O2", "Boiling Point": "150 \u00b0C", "Melting Point": "20-22 \u00b0C", "Density": "1.106 g/cm\u00b3 @ Temp: 20 \u00b0C"}}