{"cas_no": "610-14-0", "cn_name": "2-\u785d\u57fa\u82ef\u7532\u9170\u6c2f", "en_name": ["2-Nitrobenzoyl chloride", "Benzoyl chloride, 2-nitro-", "Benzoyl chloride, o-nitro-", "2-Nitrobenzoyl chloride", "o-Nitrobenzoyl chloride", "o-Nitrobenzoic acid chloride"], "SMILES": "C(Cl)(=O)C1=C(N(=O)=O)C=CC=C1", "physical_data": {"Molecular Weight": "185.56", "Molecular Formula": "C7H4ClNO3", "Boiling Point": "112 \u00b0C @ Press: 1 Torr", "Melting Point": "24-25 \u00b0C"}}