{"cas_no": "610-41-3", "cn_name": "3,4-\u4e8c\u785d\u57fa\u82ef\u80fa", "en_name": ["3,4-Dinitroaniline", "Benzenamine, 3,4-dinitro-", "Aniline, 3,4-dinitro-", "3,4-Dinitrobenzenamine", "3,4-Dinitroaniline"], "SMILES": "N(=O)(=O)C1=C(N(=O)=O)C=C(N)C=C1", "physical_data": {"Molecular Weight": "183.12", "Molecular Formula": "C6H5N3O4", "Melting Point": "153-154 \u00b0C"}}