{"cas_no": "610-38-8", "cn_name": "1-\u6eb4-3,4-\u4e8c\u785d\u57fa\u82ef", "en_name": ["4-Bromo-1,2-dinitrobenzene", "Benzene, 4-bromo-1,2-dinitro-", "4-Bromo-1,2-dinitrobenzene", "3,4-Dinitrobromobenzene", "NSC 10252"], "SMILES": "N(=O)(=O)C1=C(N(=O)=O)C=C(Br)C=C1", "physical_data": {"Molecular Weight": "247.00", "Molecular Formula": "C6H3BrN2O4", "Melting Point": "59-59.5 \u00b0C"}}