{"cas_no": "6100-74-9", "cn_name": "4-\u7532\u6c27\u57fa-3-\u7f9f\u57fa\u82ef\u4e59\u916e", "en_name": ["1-(3-Hydroxy-4-methoxyphenyl)ethanone", "Ethanone, 1-(3-hydroxy-4-methoxyphenyl)-", "Acetophenone, 3\u2032-hydroxy-4\u2032-methoxy-", "1-(3-Hydroxy-4-methoxyphenyl)ethanone", "Isoacetovanillone", "3\u2032-Hydroxy-4\u2032-methoxyacetophenone", "2-Methoxy-5-acetylphenol", "5-Acetyl-2-methoxyphenol", "4\u2032-Methoxy-3\u2032-hydroxyacetophenone", "Acetoisovanillone", "NSC 30050", "4-Acetyl-2-hydroxy-1-methoxybenzene", "1-(3-Hydroxy-4-methoxyphenyl)ethan-1-one"], "SMILES": "C(C)(=O)C1=CC(O)=C(OC)C=C1", "physical_data": {"Molecular Weight": "166.17", "Molecular Formula": "C9H10O3", "Melting Point": "91 \u00b0C"}}