{"cas_no": "61010-04-6", "cn_name": "2-\u6c2f-3-(\u7f9f\u57fa\u4e9a\u7532\u57fa)-1-\u73af\u5df1\u70ef-1-\u7532\u919b", "en_name": ["2-Chloro-1-formyl-3-(hydroxymethylene)cyclohexene", "1-Cyclohexene-1-carboxaldehyde, 2-chloro-3-(hydroxymethylene)-", "2-Chloro-3-(hydroxymethylene)-1-cyclohexene-1-carboxaldehyde", "2-Chloro-3-(hydroxymethylene)cyclohexene-1-carboxaldehyde", "2-Chloro-1-formyl-3-(hydroxymethylene)-1-cyclohexene", "2-Chloro-1-formyl-3-(hydroxymethylene)cyclohexene", "2-Chloro-3-(hydroxymethylene)cyclohex-1-enecarbaldehyde", "2-Chloro-3-(hydroxymethylidene)cyclohexene-1-carbaldehyde", "2-Chloro-3-(hydroxymethyl)cyclohex-1-ene-1-carbaldehyde", "2-Chloro-3-(hydroxymethyl)cyclohex-1-enecarbaldehyde", "1,3-Cyclohexanedicarboxaldehyde, 2-chloro-", "2-Chloro-1,3-cyclohexanedicarboxaldehyde"], "SMILES": "C(O)=C1C(Cl)=C(C=O)CCC1", "physical_data": {"Molecular Weight": "172.61", "Molecular Formula": "C8H9ClO2", "Melting Point": "130-131 \u00b0C"}}