{"cas_no": "61036-62-2", "cn_name": "\u66ff\u8003\u62c9\u5b81", "en_name": ["Teicoplanin", "Teicoplanin", "Teichomycin", "Antibiotic 8327A", "MDL 507", "Antibiotic MDL 507", "Targocid", "Targosid", "MeSH ID: D017334"], "SMILES": "", "physical_data": {"Molecular Weight": "", "Molecular Formula": "Unspecified", "Melting Point": "310 \u00b0C (decomp)"}}