{"cas_no": "61049-69-2", "cn_name": "3-(\u82c4\u6c27\u57fa)-2-\u7532\u57fa-4H-\u5421\u5583-4-\u916e", "en_name": ["3-Benzyloxy-2-methyl-4-pyrone", "4H-Pyran-4-one, 2-methyl-3-(phenylmethoxy)-", "2-Methyl-3-(phenylmethoxy)-4H-pyran-4-one", "Maltol benzyl ether", "3-Benzyloxy-2-methyl-4-pyrone", "Benzylmaltol", "3-O-Benzylmaltol", "3-(Benzyloxy)-2-methyl-4H-pyran-4-one", "3-(Benzyloxy)-2-methyl-4-oxo-4H-pyran", "3-Benzyloxy-2-methyl-pyran-4-one", "2-Methyl-3-phenylmethoxypyran-4-one"], "SMILES": "O(CC1=CC=CC=C1)C=2C(=O)C=COC2C", "physical_data": {"Molecular Weight": "216.23", "Molecular Formula": "C13H12O3", "Boiling Point": "166-168 \u00b0C @ Press: 4 Torr", "Melting Point": "56-57 \u00b0C"}}