{"cas_no": "61040-81-1", "cn_name": "3,5-\u4e8c\u7532\u6c27\u57fa-4-\u7532\u57fa\u82ef\u7532\u9178", "en_name": ["3,5-Dimethoxy-4-methylbenzoic acid", "Benzoic acid, 3,5-dimethoxy-4-methyl-", "p-Toluic acid, 3,5-dimethoxy-", "3,5-Dimethoxy-4-methylbenzoic acid", "3,5-Dimethoxy-p-toluic acid"], "SMILES": "O(C)C1=C(C)C(OC)=CC(C(O)=O)=C1", "physical_data": {"Molecular Weight": "196.20", "Molecular Formula": "C10H12O4", "Melting Point": "215 \u00b0C"}}