{"cas_no": "6105-75-5", "cn_name": "2-\u7532\u57fa-1-\u5417\u5549\u57fa-2-\u4e19\u80fa", "en_name": ["2-Methyl-1-morpholinopropan-2-amine", "4-Morpholineethanamine, \u03b1,\u03b1-dimethyl-", "Morpholine, 4-(2-amino-2-methylpropyl)-", "\u03b1,\u03b1-Dimethyl-4-morpholineethanamine", "2-Methyl-1-(morpholin-4-yl)propan-2-amine", "[2-Methyl-1-(morpholin-4-yl)propan-2-yl]amine", "[1,1-Dimethyl-2-(morpholin-4-yl)ethyl]amine", "2-Methyl-1-morpholinopropan-2-amine"], "SMILES": "C(C(C)(C)N)N1CCOCC1", "physical_data": {"Molecular Weight": "158.24", "Molecular Formula": "C8H18N2O", "Boiling Point": "68 \u00b0C @ Press: 6 Torr", "Density": "0.9402 g/cm\u00b3"}}