{"cas_no": "6106-41-8", "cn_name": "\u620a\u9178\u9209", "en_name": ["Sodium valerate", "Pentanoic acid, sodium salt (1:1)", "Valeric acid, sodium salt", "Pentanoic acid, sodium salt", "Sodium valerate", "Sodium pentanoate", "Sodium n-pentanoate", "Sodium n-valerate"], "SMILES": "C(C(O)=O)CCC.[Na]", "physical_data": {"Molecular Weight": "", "Molecular Formula": "C5H10O2.Na", "Melting Point": "210 \u00b0C"}}