{"cas_no": "6106-81-6", "cn_name": "\u4e1c\u83a8\u83ea\u78b1 N-\u6c27\u5316\u7269\u6c22\u6eb4\u9178\u76d0\u4e00\u6c34\u5408\u7269", "en_name": ["Benzeneacetic acid, \u03b1-(hydroxymethyl)-, (1\u03b1,2\u03b2,4\u03b2,5\u03b1,7\u03b2)-9-methyl-9-oxido-3-oxa-9-azatricyclo[3.3.1.02,4]non-7-yl ester, hydrobromide (1:1), (\u03b1S)-", "Benzeneacetic acid, \u03b1-(hydroxymethyl)-, (1\u03b1,2\u03b2,4\u03b2,5\u03b1,7\u03b2)-9-methyl-9-oxido-3-oxa-9-azatricyclo[3.3.1.02,4]non-7-yl ester, hydrobromide (1:1), (\u03b1S)-", "Scopolamine, N-oxide, hydrobromide", "1\u03b1H,5\u03b1H-Tropan-3\u03b1-ol, 6\u03b2,7\u03b2-epoxy-, (-)-tropate (ester), 8-oxide, hydrobromide", "Benzeneacetic acid, \u03b1-(hydroxymethyl)-, 9-methyl-3-oxa-9-azatricyclo[3.3.1.02,4]non-7-yl ester, N-oxide, hydrobromide, [7(S)-(1\u03b1,2\u03b2,4\u03b2,5\u03b1,7\u03b2)]-", "Benzeneacetic acid, \u03b1-(hydroxymethyl)-, (1\u03b1,2\u03b2,4\u03b2,5\u03b1,7\u03b2)-9-methyl-9-oxido-3-oxa-9-azatricyclo[3.3.1.02,4]non-7-yl ester, hydrobromide, (\u03b1S)-", "3-Oxa-9-azatricyclo[3.3.1.02,4]nonane, benzeneacetic acid deriv.", "Scopolamine aminoxide hydrobromide", "Aminoxyscopolamine hydrobromide", "Benzeneacetic acid, \u03b1-(hydroxymethyl)-, 9-methyl-9-oxido-3-oxa-9-azatricyclo[3.3.1.02,4]non-7-yl ester, hydrobromide, [7(S)-(1\u03b1,2\u03b2,4\u03b2,5\u03b1,7\u03b2)]-", "NSC 61807", "(-)-Scopolamine N-oxide hydrobromide"], "SMILES": "CN1(=O)C2C3C(O3)C1CC(OC(C(CO)C4=CC=CC=C4)=O)C2.Br", "physical_data": {"Molecular Weight": "", "Molecular Formula": "C17H21NO5.BrH", "Melting Point": "135-138 \u00b0C"}}