{"cas_no": "6107-56-8", "cn_name": "\u8f9b\u9178\u9499", "en_name": ["Calcium octanoate", "Octanoic acid, calcium salt (2:1)", "Octanoic acid, calcium salt", "Calcium octanoate", "Caprylic acid, calcium salt", "Calcium caprylate", "Calcium octoate", "Calcium octylate", "Octlife Ca", "Octa-Soligen Calcium 5HS"], "SMILES": "C(CCCCC)CC(O)=O.[Ca]", "physical_data": {"Molecular Weight": "", "Molecular Formula": "C8H16O2.<sup>1</sup>/2Ca", "Melting Point": "238 \u00b0C", "Density": "1.18 g/cm\u00b3"}}