{"cas_no": "61079-72-9", "cn_name": "2,3,4-\u4e09\u6c1f\u82ef\u7532\u9178", "en_name": ["2,3,4-Trifluorobenzoic acid", "Benzoic acid, 2,3,4-trifluoro-", "2,3,4-Trifluorobenzoic acid", "NSC 190684"], "SMILES": "C(O)(=O)C1=C(F)C(F)=C(F)C=C1", "physical_data": {"Molecular Weight": "176.09", "Molecular Formula": "C7H3F3O2", "Melting Point": "141 \u00b0C"}}