{"cas_no": "6108-17-4", "cn_name": "\u4e59\u9178\u9502", "en_name": ["Lithium acetate dihydrate", "Acetic acid, lithium salt, dihydrate", "Lithium acetate dihydrate"], "SMILES": "C(C)(O)=O.[Li].O", "physical_data": {"Molecular Weight": "", "Molecular Formula": "C2H4O2.2H2O.Li", "Melting Point": "28.3 \u00b0C"}}