{"cas_no": "61085-60-7", "cn_name": "1-\u82c4\u57fa-4-(\u82ef\u57fa\u6c28\u57fa)\u54cc\u5576-4-\u7fa7\u9178\u7532\u916f", "en_name": ["4-Piperidinecarboxylic acid, 4-(phenylamino)-1-(phenylmethyl)-, methyl ester", "4-Piperidinecarboxylic acid, 4-(phenylamino)-1-(phenylmethyl)-, methyl ester", "1-Benzyl-4-phenylaminopiperidine-4-carboxylic acid methyl ester", "Methyl 1-benzyl-4-(phenylamino)piperidine-4-carboxylate", "Methyl 4-phenylamino-1-(phenylmethyl)-4-piperidinecarboxylate"], "SMILES": "N(C1(C(OC)=O)CCN(CC2=CC=CC=C2)CC1)C3=CC=CC=C3", "physical_data": {"Molecular Weight": "324.42", "Molecular Formula": "C20H24N2O2", "Melting Point": "80-80.5 \u00b0C"}}