{"cas_no": "6109-70-2", "cn_name": "\u7f9f\u7532\u57fa-7-\u6c28\u57fa\u5934\u5b62\u70f7\u9178", "en_name": ["1-Azabicyclo[2.2.2]octan-3-ol, 3-acetate, hydrochloride (1:1)", "1-Azabicyclo[2.2.2]octan-3-ol, 3-acetate, hydrochloride (1:1)", "3-Quinuclidinol, acetate (ester), hydrochloride", "3-Quinuclidinol, acetate, hydrochloride", "1-Azabicyclo[2.2.2]octan-3-ol, acetate (ester), hydrochloride", "Aceclidine hydrochloride", "Glaucostat", "(\u00b1)-3-Acetoxyquinuclidine hydrochloride", "3-Acetoxyquinuclidine hydrochloride", "1-Azabicyclo[2.2.2]oct-3-yl acetate hydrochloride"], "SMILES": "O(C(C)=O)C1C2CCN(C1)CC2.Cl", "physical_data": {"Molecular Weight": "", "Molecular Formula": "C9H15NO2.ClH", "Melting Point": "165-167 \u00b0C"}}