{"cas_no": "61093-23-0", "cn_name": "\u73af\u4e8c\u9e1f\u82f7\u9178", "en_name": ["c-Di-GMP", "3\u2032-Guanylic acid, guanylyl-(3\u2032\u21925\u2032)-, cyclic nucleotide", "2H,7H-Difuro[3,2-d:3\u2032,2\u2032-j][1,3,7,9,2,8]tetraoxadiphosphacyclododecin, 3\u2032-guanylic acid deriv.", "Cyclic-di-GMP", "c-Di-GMP", "Cyclic diguanylate", "5GP-5GP", "Cyclic di-3\u2032,5\u2032-guanylate", "Cyclic diguanylate monophosphate"], "SMILES": "O=C1C2=C(N(C=N2)C3C(O)C4C(O3)COP(=O)(O)OC5C(COP(=O)(O)O4)OC(C5O)N6C7=C(N=C6)C(=O)N=C(N)N7)NC(N)=N1", "physical_data": {"Molecular Weight": "690.41", "Molecular Formula": "C20H24N10O14P2", "Melting Point": "193-196 \u00b0C (decomp)"}}