{"cas_no": "611-40-5", "cn_name": "\u5c04\u5e72\u82f7", "en_name": ["Tectoridin", "4H-1-Benzopyran-4-one, 7-(\u03b2-D-glucopyranosyloxy)-5-hydroxy-3-(4-hydroxyphenyl)-6-methoxy-", "Tectoridin", "7-(\u03b2-D-Glucopyranosyloxy)-5-hydroxy-3-(4-hydroxyphenyl)-6-methoxy-4H-1-benzopyran-4-one", "Shekanin", "Tectorigenin 7-O-\u03b2-D-glucopyranoside"], "SMILES": "O=C1C=2C(=CC(OC3OC(CO)C(O)C(O)C3O)=C(OC)C2O)OC=C1C4=CC=C(O)C=C4", "physical_data": {"Molecular Weight": "462.40", "Molecular Formula": "C22H22O11", "Melting Point": "258 \u00b0C"}}