{"cas_no": "611-94-9", "cn_name": "4-\u7532\u6c27\u57fa\u4e8c\u82ef\u7532\u916e", "en_name": ["4-Methoxybenzophenone", "Methanone, (4-methoxyphenyl)phenyl-", "Benzophenone, 4-methoxy-", "Benzophenone, p-methoxy-", "(4-Methoxyphenyl)phenylmethanone", "p-Methoxybenzophenone", "4-Methoxybenzophenone", "Phenyl p-anisyl ketone", "p-Methoxyphenyl phenyl ketone", "4-Methoxyphenyl phenyl ketone", "4-Benzoylanisole", "NSC 2194", "p-Benzoylanisole"], "SMILES": "C(=O)(C1=CC=C(OC)C=C1)C2=CC=CC=C2", "physical_data": {"Molecular Weight": "212.24", "Molecular Formula": "C14H12O2", "Boiling Point": "355 \u00b0C", "Melting Point": "61.5 \u00b0C"}}