{"cas_no": "611-97-2", "cn_name": "4,4'-\u4e8c\u7532\u57fa\u4e8c\u82ef\u7532\u916e", "en_name": ["4,4\u2032-Dimethylbenzophenone", "Methanone, bis(4-methylphenyl)-", "Benzophenone, 4,4\u2032-dimethyl-", "Bis(4-methylphenyl)methanone", "Di-p-tolyl ketone", "4,4\u2032-Dimethylbenzophenone", "p,p\u2032-Dimethylbenzophenone", "4,4\u2032-Carbonylbis[toluene]", "Bis-p-tolyl ketone", "Di-p-tolylmethanone", "Di(4-methylphenyl) ketone", "Bis(4-methylphenyl) ketone", "Bis(4-tolyl)methanone", "NSC 1807", "NSC 37137"], "SMILES": "C(=O)(C1=CC=C(C)C=C1)C2=CC=C(C)C=C2", "physical_data": {"Molecular Weight": "210.27", "Molecular Formula": "C15H14O", "Boiling Point": "334 \u00b0C", "Melting Point": "96.5 \u00b0C"}}