{"cas_no": "611-21-2", "cn_name": "N-\u7532\u57fa-\u90bb\u7532\u57fa\u82ef\u80fa", "en_name": ["N-Methyl-o-toluidine", "Benzenamine, N,2-dimethyl-", "o-Toluidine, N-methyl-", "N,2-Dimethylbenzenamine", "2,N-Dimethylaniline", "N-Methyl-o-toluidine", "N,2-Dimethylaniline", "o,N-Dimethylaniline", "N,o-Dimethylaniline", "N-Methyl-o-methylaniline", "N-Methyl-2-methylaniline", "N-Methyl-2-methylbenzenamine", "2-Methyl-N-methylaniline", "Methyl(o-tolyl)amine", "NSC 9395", "N-(2-Methylphenyl)methylamine", "N-Methyl-N-(o-tolyl)amine"], "SMILES": "N(C)C1=C(C)C=CC=C1", "physical_data": {"Molecular Weight": "121.18", "Molecular Formula": "C8H11N", "Boiling Point": "207.5 \u00b0C", "Melting Point": "150-151 \u00b0C", "Density": "0.9769 g/cm\u00b3"}}