{"cas_no": "611-08-5", "cn_name": "5-\u785d\u57fa\u5c3f\u5627\u5576", "en_name": ["5-Nitro-2,4(1H,3H)-pyrimidinedione", "2,4(1H,3H)-Pyrimidinedione, 5-nitro-", "Uracil, 5-nitro-", "5-Nitro-2,4(1H,3H)-pyrimidinedione", "5-Nitrouracil", "5-Nitro-2,4-dihydroxypyrimidine", "NSC 9790", "5-Nitropyrimidine-2,4-diol", "5-Nitropyrimidine-2,4(1H,3H)-dione", "1,2,3,6-Tetrahydro-5-nitro-2,6-dioxopyrimidine", "5-Nitropyrimidine-2,4-dione"], "SMILES": "N(=O)(=O)C=1C(=O)NC(=O)NC1", "physical_data": {"Molecular Weight": "157.08", "Molecular Formula": "C4H3N3O4", "Melting Point": "280-285 \u00b0C"}}