{"cas_no": "611-13-2", "cn_name": "2-\u7ce0\u9178\u7532\u916f", "en_name": ["Methyl 2-furoate", "2-Furancarboxylic acid, methyl ester", "2-Furoic acid, methyl ester", "Methyl pyromucate", "Methyl 2-furoate", "Pyromucic acid methyl ester", "Methyl 2-furancarboxylate", "2-(Methoxycarbonyl)furan", "Methyl 2-furylcarboxylate", "Methyl \u03b1-furoate", "NSC 35551", "5-(Methoxymethyl)-furoic acid"], "SMILES": "C(OC)(=O)C1=CC=CO1", "physical_data": {"Molecular Weight": "126.11", "Molecular Formula": "C6H6O3", "Boiling Point": "181.3 \u00b0C", "Melting Point": "110-112 \u00b0C", "Density": "1.1783 g/cm\u00b3 @ Temp: 20 \u00b0C"}}