{"cas_no": "611-00-7", "cn_name": "2,4-\u4e8c\u6eb4\u82ef\u7532\u9178", "en_name": ["2,4-Dibromobenzoic acid", "Benzoic acid, 2,4-dibromo-", "2,4-Dibromobenzoic acid"], "SMILES": "C(O)(=O)C1=C(Br)C=C(Br)C=C1", "physical_data": {"Molecular Weight": "279.91", "Molecular Formula": "C7H4Br2O2", "Melting Point": "174 \u00b0C"}}