{"cas_no": "611-05-2", "cn_name": "3-\u7532\u57fa-4-\u785d\u57fa\u82ef\u80fa", "en_name": ["3-Methyl-4-nitroaniline", "Benzenamine, 3-methyl-4-nitro-", "m-Toluidine, 4-nitro-", "3-Methyl-4-nitrobenzenamine", "1-Amino-3-methyl-4-nitrobenzene", "3-Methyl-4-nitroaniline", "4-Nitro-m-toluidine", "6-Nitro-3-aminotoluene", "5-Amino-2-nitrotoluene", "4-Nitro-3-methylaniline", "NSC 17041", "3-Methyl-4-nitrophenylamine", "2-Methyl-4-aminonitrobenzene"], "SMILES": "N(=O)(=O)C1=C(C)C=C(N)C=C1", "physical_data": {"Molecular Weight": "152.15", "Molecular Formula": "C7H8N2O2", "Melting Point": "135 \u00b0C"}}