{"cas_no": "611-14-3", "cn_name": "2-\u4e59\u57fa\u7532\u82ef(\u90bb\u7532\u4e59\u82ef)", "en_name": ["1-Ethyl-2-methylbenzene", "Benzene, 1-ethyl-2-methyl-", "Toluene, o-ethyl-", "1-Ethyl-2-methylbenzene", "2-Ethyltoluene", "1-Methyl-2-ethylbenzene", "o-Ethyltoluene", "o-Methylethylbenzene", "o-Ethylmethylbenzene", "2-Methylethylbenzene", "NSC 405731", "2-Methyl-1-ethylbenzene"], "SMILES": "C(C)C1=C(C)C=CC=C1", "physical_data": {"Molecular Weight": "120.19", "Molecular Formula": "C9H12", "Boiling Point": "165.2 \u00b0C", "Melting Point": "-80.8 \u00b0C", "Density": "0.8841 g/cm\u00b3 @ Temp: 15.700009765625 \u00b0C"}}