{"cas_no": "611-10-9", "cn_name": "2-\u6c27\u4ee3\u73af\u620a\u7fa7\u9178\u4e59\u916f", "en_name": ["Ethyl 2-oxocyclopentanecarboxylate", "Cyclopentanecarboxylic acid, 2-oxo-, ethyl ester", "2-Carbethoxycyclopentanone", "Ethyl 2-cyclopentanonecarboxylate", "2-Carbethoxy-1-cyclopentanone", "2-Cyclopentanonecarboxylic acid ethyl ester", "\u03b1-(Carboethoxy)cyclopentanone", "2-(Ethoxycarbonyl)cyclopentanone", "Ethyl 2-oxo-1-cyclopentanecarboxylate", "Ethyl 2-cyclopentanone-1-carboxylate", "Ethyl 2-oxocyclopentanecarboxylate", "Ethyl 1-oxocyclopentane-2-carboxylate", "2-Oxocyclopentanecarboxylic acid ethyl ester", "Ethyl 2-oxocyclopentanoate", "2-(Ethoxycarbonyl)-1-cyclopentanone", "(\u00b1)-2-Oxocyclopentanecarboxylic acid ethyl ester", "Ethyl (\u00b1)-2-oxocyclopentanecarboxylate", "1-Oxocyclopentane-2-carboxylic acid ethyl ester", "NSC 22055", "NSC 5658", "2-Oxocyclopentane-1-carboxylic acid ethyl ester", "Ethyl 2-oxocyclopentylcarboxylate"], "SMILES": "C(OCC)(=O)C1C(=O)CCC1", "physical_data": {"Molecular Weight": "156.18", "Molecular Formula": "C8H12O3", "Boiling Point": "221 \u00b0C", "Density": "1.0800 g/cm\u00b3 @ Temp: 20 \u00b0C"}}