{"cas_no": "611-09-6", "cn_name": "5-\u785d\u57fa\u975b\u7ea2", "en_name": ["5-Nitroisatin", "1H-Indole-2,3-dione, 5-nitro-", "Indole-2,3-dione, 5-nitro-", "Isatin, 5-nitro-", "5-Nitro-1H-indole-2,3-dione", "5-Nitroisatin", "5-Nitroindole-2,3-dione", "NSC 525798", "5-Nitro-2,3-indolinedione", "5-Nitroindoline-2,3-dione"], "SMILES": "O=C1C=2C(NC1=O)=CC=C(N(=O)=O)C2", "physical_data": {"Molecular Weight": "192.13", "Molecular Formula": "C8H4N2O4", "Melting Point": "251 \u00b0C (decomp)"}}