{"cas_no": "611-79-0", "cn_name": "3,3'-\u4e8c\u6c28\u57fa\u4e8c\u82ef\u7532\u916e", "en_name": ["3,3\u2032-Diaminobenzophenone", "Methanone, bis(3-aminophenyl)-", "Benzophenone, 3,3\u2032-diamino-", "Bis(3-aminophenyl)methanone", "3,3\u2032-Diaminobenzophenone", "m,m\u2032-Diaminobenzophenone", "DABP", "NSC 113058", "3,3\u2032-Diaminodiphenylketone"], "SMILES": "C(=O)(C1=CC(N)=CC=C1)C2=CC(N)=CC=C2", "physical_data": {"Molecular Weight": "212.25", "Molecular Formula": "C13H12N2O", "Boiling Point": "285 \u00b0C @ Press: 11 Torr", "Melting Point": "173.5 \u00b0C"}}