{"cas_no": "611-20-1", "cn_name": "\u90bb\u7f9f\u57fa\u82ef\u7532\u8148", "en_name": ["2-Hydroxybenzonitrile", "Benzonitrile, 2-hydroxy-", "Salicylonitrile", "2-Hydroxybenzonitrile", "o-Hydroxybenzonitrile", "o-Cyanophenol", "2-Cyanophenol", "Salicylnitrile", "NSC 53558"], "SMILES": "C(#N)C1=C(O)C=CC=C1", "physical_data": {"Molecular Weight": "119.12", "Molecular Formula": "C7H5NO", "Boiling Point": "149 \u00b0C", "Melting Point": "98 \u00b0C", "Density": "1.1052 g/cm\u00b3 @ Temp: 20 \u00b0C"}}