{"cas_no": "611-92-7", "cn_name": "N,N'-\u4e8c\u7532\u57fa-N,N'-\u4e8c\u82ef\u8132", "en_name": ["Centralite II", "Urea, N,N\u2032-dimethyl-N,N\u2032-diphenyl-", "Carbanilide, N,N\u2032-dimethyl-", "Carbanilide, \u03b1,\u03b2-dimethyl-", "N,N\u2032-Dimethyl-N,N\u2032-diphenylurea", "Centralite II", "N,N\u2032-Dimethylcarbanilide", "Methyl centralite", "1,3-Dimethyl-1,3-diphenylurea", "Dimethylcarbanilide", "NSC 59781"], "SMILES": "N(C(N(C)C1=CC=CC=C1)=O)(C)C2=CC=CC=C2", "physical_data": {"Molecular Weight": "240.30", "Molecular Formula": "C15H16N2O", "Boiling Point": "350 \u00b0C", "Melting Point": "122 \u00b0C"}}