{"cas_no": "611-71-2", "cn_name": "D-\u6241\u6843\u9178", "en_name": ["(-)-Mandelic acid", "Benzeneacetic acid, \u03b1-hydroxy-, (\u03b1R)-", "Mandelic acid, D-", "Benzeneacetic acid, \u03b1-hydroxy-, (R)-", "(\u03b1R)-\u03b1-Hydroxybenzeneacetic acid", "D-Mandelic acid", "D(-)-Mandelic acid", "(-)-Mandelic acid", "(-)-(R)-Mandelic acid", "D-2-Phenylglycolic acid", "(R)-\u03b1-Hydroxyphenylacetic acid", "(R)-(-)-Mandelic acid", "(R)-\u03b1-Hydroxybenzeneacetic acid", "(-)-\u03b1-Hydroxyphenylacetic acid", "(R)-Mandelic acid", "(R)-Hydroxy(phenyl)acetic acid", "(R)-Mandelic acid", "(R)-(-)-Hydroxyphenylacetic acid", "(R)-2-Hydroxy-2-phenylacetic acid", "(-)-D-Mandelic acid", "(R)-Amygdalic acid", "(2R)-2-Hydroxy-2-phenylacetic acid"], "SMILES": "C(C(O)=O)(O)C1=CC=CC=C1", "physical_data": {"Molecular Weight": "152.15", "Molecular Formula": "C8H8O3", "Melting Point": "119 \u00b0C"}}