{"cas_no": "611-33-6", "cn_name": "8-\u6c2f\u55b9\u5549", "en_name": ["8-Chloroquinoline", "Quinoline, 8-chloro-", "8-Chloroquinoline", "NSC 56815"], "SMILES": "ClC=1C2=C(C=CC1)C=CC=N2", "physical_data": {"Molecular Weight": "163.60", "Molecular Formula": "C9H6ClN", "Boiling Point": "288.5 \u00b0C", "Melting Point": "-20 \u00b0C"}}