{"cas_no": "611-99-4", "cn_name": "4,4'-\u4e8c\u7f9f\u57fa\u4e8c\u82ef\u7532\u916e", "en_name": ["4,4\u2032-Dihydroxybenzophenone", "Methanone, bis(4-hydroxyphenyl)-", "Benzophenone, 4,4\u2032-dihydroxy-", "Bis(4-hydroxyphenyl)methanone", "p,p\u2032-Dihydroxybenzophenone", "Bis(4-hydroxyphenyl) ketone", "Bis(p-hydroxy)benzophenone", "HBP (ketone)", "4,4\u2032-Dihydroxydiphenyl ketone", "HBP", "4,4\u2032-Dihydroxybenzophenone", "NSC 2831", "4,4\u2032-Hydroxybenzophenone", "4-DHB"], "SMILES": "C(=O)(C1=CC=C(O)C=C1)C2=CC=C(O)C=C2", "physical_data": {"Molecular Weight": "214.22", "Molecular Formula": "C13H10O3", "Boiling Point": "444 \u00b0C", "Melting Point": "210 \u00b0C"}}