{"cas_no": "611-36-9", "cn_name": "4-\u7f9f\u57fa\u55b9\u5549", "en_name": ["4-Hydroxyquinoline", "4-Quinolinol", "Kynurine", "4-Hydroxyquinoline", "NSC 3183", "Quinoline-4-ol"], "SMILES": "OC=1C2=C(N=CC1)C=CC=C2", "physical_data": {"Molecular Weight": "145.16", "Molecular Formula": "C9H7NO", "Boiling Point": "300 \u00b0C", "Melting Point": "201 \u00b0C"}}