{"cas_no": "611-01-8", "cn_name": "2,4-\u4e8c\u7532\u57fa\u82ef\u7532\u9178", "en_name": ["2,4-Dimethylbenzoic acid", "Benzoic acid, 2,4-dimethyl-", "2,4-Dimethylbenzoic acid", "4-Carboxy-1,3-dimethylbenzene", "NSC 407532"], "SMILES": "C(O)(=O)C1=C(C)C=C(C)C=C1", "physical_data": {"Molecular Weight": "150.17", "Molecular Formula": "C9H10O2", "Boiling Point": "268 \u00b0C", "Melting Point": "125-126 \u00b0C"}}