{"cas_no": "611-98-3", "cn_name": "4,4'-\u4e8c\u6c28\u57fa\u4e8c\u82ef\u7532\u916e", "en_name": ["4,4\u2032-Diaminobenzophenone", "Methanone, bis(4-aminophenyl)-", "Benzophenone, 4,4\u2032-diamino-", "Bis(4-aminophenyl)methanone", "4,4\u2032-Diaminobenzophenone", "p,p\u2032-Diaminobenzophenone", "4,4\u2032-Carbonyldianiline", "4,4\u2032-Diaminodiphenyl ketone", "NSC 6096", "4,4\u2032-Bis-aminobenzophenone", "Bis(4-aminophenyl) ketone"], "SMILES": "C(=O)(C1=CC=C(N)C=C1)C2=CC=C(N)C=C2", "physical_data": {"Molecular Weight": "212.25", "Molecular Formula": "C13H12N2O", "Melting Point": "241 \u00b0C"}}