{"cas_no": "611-70-1", "cn_name": "\u5f02\u4e01\u9170\u82ef", "en_name": ["Isobutyrophenone", "1-Propanone, 2-methyl-1-phenyl-", "Isobutyrophenone", "2-Methyl-1-phenyl-1-propanone", "Isopropyl phenyl ketone", "2-Methylpropiophenone", "\u03b1-Methylpropiophenone", "Phenyl isopropyl ketone", "1-Phenyl-2-methyl-1-propanone", "2-Methyl-1-phenylpropanone", "NSC 6552"], "SMILES": "C(C(C)C)(=O)C1=CC=CC=C1", "physical_data": {"Molecular Weight": "148.20", "Molecular Formula": "C10H12O", "Boiling Point": "220 \u00b0C", "Melting Point": "-1.3 \u00b0C", "Density": "0.999 g/cm\u00b3 @ Temp: 40 \u00b0C"}}