{"cas_no": "611-74-5", "cn_name": "N,N-\u4e8c\u7532\u57fa\u82ef\u7532\u9170\u80fa", "en_name": ["N,N-Dimethylbenzamide", "Benzamide, N,N-dimethyl-", "N,N-Dimethylbenzamide", "Dimethylbenzamide", "DMBZ", "NSC 10996"], "SMILES": "C(N(C)C)(=O)C1=CC=CC=C1", "physical_data": {"Molecular Weight": "149.19", "Molecular Formula": "C9H11NO", "Boiling Point": "132-133 \u00b0C", "Melting Point": "43-45 \u00b0C"}}