{"cas_no": "611-32-5", "cn_name": "8-\u7532\u57fa\u55b9\u5549", "en_name": ["8-Methylquinoline", "Quinoline, 8-methyl-", "8-Methylquinoline", "NSC 9409"], "SMILES": "CC=1C2=C(C=CC1)C=CC=N2", "physical_data": {"Molecular Weight": "143.19", "Molecular Formula": "C10H9N", "Boiling Point": "247.5 \u00b0C", "Melting Point": "-80 \u00b0C"}}