{"cas_no": "611-24-5", "cn_name": "2-\u7532\u6c28\u57fa\u82ef\u915a", "en_name": ["2-(Methylamino)phenol", "Phenol, 2-(methylamino)-", "Phenol, o-(methylamino)-", "2-(Methylamino)phenol", "N-Methyl-2-aminophenol", "N-Methyl-o-hydroxyaniline", "o-(Methylamino)phenol", "2-(N-Methylamino)phenol", "NSC 245030", "2-Hydroxy-N-methylaniline"], "SMILES": "N(C)C1=C(O)C=CC=C1", "physical_data": {"Molecular Weight": "123.15", "Molecular Formula": "C7H9NO", "Melting Point": "&gt;80 \u00b0C (decomp)"}}