{"cas_no": "611-07-4", "cn_name": "2-\u785d\u57fa-5-\u6c2f\u82ef\u915a", "en_name": ["5-Chloro-2-nitrophenol", "Phenol, 5-chloro-2-nitro-", "5-Chloro-2-nitrophenol", "2-Nitro-5-chlorophenol"], "SMILES": "N(=O)(=O)C1=C(O)C=C(Cl)C=C1", "physical_data": {"Molecular Weight": "173.55", "Molecular Formula": "C6H4ClNO3", "Melting Point": "41 \u00b0C"}}