{"cas_no": "611-69-8", "cn_name": "2-\u7532\u57fa-1-\u82ef\u57fa-1-\u4e19\u9187", "en_name": ["2-Methyl-1-phenyl-1-propanol", "Benzenemethanol, \u03b1-(1-methylethyl)-", "Benzyl alcohol, \u03b1-isopropyl-", "\u03b1-(1-Methylethyl)benzenemethanol", "1-Hydroxy-2-methyl-1-phenylpropane", "2-Methyl-1-phenylpropanol", "\u03b1-Isopropylbenzyl alcohol", "Isopropylphenylcarbinol", "2-Methyl-1-phenyl-1-propanol", "1-Phenyl-2-methylpropyl alcohol", "(RS)-1-Phenyl-2-methylpropan-1-ol", "(\u00b1)-2-Methyl-1-phenyl-1-propanol", "(\u00b1)-1-Phenyl-2-methyl-1-propanol", "(\u00b1)-\u03b1-Isopropylbenzenemethanol", "(\u00b1)-\u03b1-(1-Methylethyl)benzenemethanol", "NSC 24661", "(\u00b1)-1-Phenyl-2-methylpropanol", "1-Phenyl-2-methyl-1-propanol"], "SMILES": "C(C(C)C)(O)C1=CC=CC=C1", "physical_data": {"Molecular Weight": "150.22", "Molecular Formula": "C10H14O", "Boiling Point": "223 \u00b0C", "Density": "0.9933 g/cm\u00b3 @ Temp: 0 \u00b0C"}}