{"cas_no": "611-73-4", "cn_name": "\u82ef\u7532\u9170\u7532\u9178", "en_name": ["Phenylglyoxylic acid", "Benzeneacetic acid, \u03b1-oxo-", "Glyoxylic acid, phenyl-", "\u03b1-Oxobenzeneacetic acid", "Benzoylformic acid", "Formic acid, benzoyl-", "Phenylglyoxylic acid", "Phenylgloxylic acid", "Oxophenylacetic acid", "\u03b1-Ketophenylacetic acid", "2-Oxo-2-phenylacetic acid", "Phenyloxoacetic acid", "NSC 28293", "2-Oxo-2-phenylethanoic acid", "CAA 0869", "LFC 1849", "2-Oxo-2-phenylacetate"], "SMILES": "C(C(O)=O)(=O)C1=CC=CC=C1", "physical_data": {"Molecular Weight": "150.13", "Molecular Formula": "C8H6O3", "Boiling Point": "163 \u00b0C", "Melting Point": "66 \u00b0C"}}