{"cas_no": "611-06-3", "cn_name": "2,4-\u4e8c\u6c2f\u785d\u57fa\u82ef", "en_name": ["2,4-Dichloronitrobenzene", "Benzene, 2,4-dichloro-1-nitro-", "2,4-Dichloro-1-nitrobenzene", "2,4-Dichloronitrobenzene", "1,3-Dichloro-4-nitrobenzene", "4-Nitro-1,3-dichlorobenzene", "NSC 43196"], "SMILES": "N(=O)(=O)C1=C(Cl)C=C(Cl)C=C1", "physical_data": {"Molecular Weight": "192.00", "Molecular Formula": "C6H3Cl2NO2", "Boiling Point": "258.5 \u00b0C", "Melting Point": "34 \u00b0C", "Density": "1.4790 g/cm\u00b3 @ Temp: 80 \u00b0C"}}