{"cas_no": "611-55-2", "cn_name": "2-\u6c28\u57fa-6,7-\u4e8c\u7532\u57fa-4-\u7f9f\u57fa\u4ed6\u5576\u6c34\u5408\u7269", "en_name": ["6,7-Dimethylpterin", "4(3H)-Pteridinone, 2-amino-6,7-dimethyl-", "4(1H)-Pteridinone, 2-amino-6,7-dimethyl-", "4-Pteridinol, 2-amino-6,7-dimethyl-", "2-Amino-6,7-dimethyl-4(3H)-pteridinone", "2-Amino-4-hydroxy-6,7-dimethylpteridine", "6,7-Dimethylpterin", "2-Amino-6,7-dimethylpteridin-4-ol", "NSC 31671", "2-Amino-6,7-dimethyl-4-hydroxypteridine", "2-Amino-6,7-dimethyl-1H-pteridin-4-one", "2-Amino-6,7-dimethyl-4,8-dihydropteridin-4-one", "2-Amino-6,7-dimethyl-3,4-dihydropteridin-4-one"], "SMILES": "O=C1C=2C(NC(C)=C(C)N2)=NC(N)=N1", "physical_data": {"Molecular Weight": "191.19", "Molecular Formula": "C8H9N5O", "Melting Point": "&gt;260 \u00b0C"}}