{"cas_no": "611-95-0", "cn_name": "4-\u82ef\u7532\u9170\u82ef\u7532\u9178", "en_name": ["4-Benzoylbenzoic acid", "Benzoic acid, 4-benzoyl-", "Benzoic acid, p-benzoyl-", "4-Benzoylbenzoic acid", "p-Benzoylbenzoic acid", "4-Carboxybenzophenone", "Benzophenone-4-carboxylic acid", "p-Carboxybenzophenone", "NSC 37115"], "SMILES": "C(=O)(C1=CC=C(C(O)=O)C=C1)C2=CC=CC=C2", "physical_data": {"Molecular Weight": "226.23", "Molecular Formula": "C14H10O3", "Boiling Point": "203-204 \u00b0C @ Press: 1 Torr", "Melting Point": "199 \u00b0C"}}