{"cas_no": "611-53-0", "cn_name": "5-\u7898-2'-\u8131\u6c27\u80de\u82f7", "en_name": ["Ibacitabine", "Cytidine, 2\u2032-deoxy-5-iodo-", "2\u2032-Deoxy-5-iodocytidine", "5-Iodo-2\u2032-deoxycytidine", "5-Iododeoxycytidine", "Ibacitabine", "NSC 527083"], "SMILES": "O=C1N(C2OC(CO)C(O)C2)C=C(I)C(N)=N1", "physical_data": {"Molecular Weight": "353.11", "Molecular Formula": "C9H12IN3O4", "Melting Point": "185-188 \u00b0C"}}