{"cas_no": "611-34-7", "cn_name": "5-\u6c28\u57fa\u55b9\u5549", "en_name": ["5-Aminoquinoline", "5-Quinolinamine", "Quinoline, 5-amino-", "5-Aminoquinoline", "5-Quinolylamine", "(Quinolin-5-yl)amine", "NSC 170619", "NSC 27982", "Quinoline-5-amine", "Quinolin-5-amine"], "SMILES": "NC=1C2=C(C=CC1)N=CC=C2", "physical_data": {"Molecular Weight": "144.17", "Molecular Formula": "C9H8N2", "Boiling Point": "310 \u00b0C", "Melting Point": "110 \u00b0C"}}