{"cas_no": "611-59-6", "cn_name": "1,7-\u4e8c\u7532\u57fa\u9ec4\u560c\u5464", "en_name": ["Paraxanthine", "1H-Purine-2,6-dione, 3,7-dihydro-1,7-dimethyl-", "Paraxanthine", "3,7-Dihydro-1,7-dimethyl-1H-purine-2,6-dione", "1,7-Dimethylxanthine", "NSC 400018", "1,7-Dimethyl-2,3,6,7-tetrahydro-1H-purine-2,6-dione"], "SMILES": "O=C1C2=C(NC(=O)N1C)N=CN2C", "physical_data": {"Molecular Weight": "180.16", "Molecular Formula": "C7H8N4O2", "Melting Point": "297-299 \u00b0C"}}