{"cas_no": "611-64-3", "cn_name": "9-\u7532\u57fa\u5416\u5576", "en_name": ["9-Methylacridine", "Acridine, 9-methyl-", "9-Methylacridine", "NSC 1234"], "SMILES": "CC=1C2=C(N=C3C1C=CC=C3)C=CC=C2", "physical_data": {"Molecular Weight": "193.24", "Molecular Formula": "C14H11N", "Melting Point": "117-118 \u00b0C"}}