{"cas_no": "611-35-8", "cn_name": "4-\u6c2f\u55b9\u5549", "en_name": ["4-Chloroquinoline", "Quinoline, 4-chloro-", "4-Chloroquinoline", "NSC 96902"], "SMILES": "ClC=1C2=C(N=CC1)C=CC=C2", "physical_data": {"Molecular Weight": "163.60", "Molecular Formula": "C9H6ClN", "Boiling Point": "262 \u00b0C", "Melting Point": "34.5 \u00b0C"}}