{"cas_no": "611-75-6", "cn_name": "\u76d0\u9178\u6eb4\u5df1\u65b0", "en_name": ["Bromhexine hydrochloride", "Benzenemethanamine, 2-amino-3,5-dibromo-N-cyclohexyl-N-methyl-, hydrochloride (1:1)", "Toluene-\u03b1,2-diamine, 3,5-dibromo-N\u03b1-cyclohexyl-N\u03b1-methyl-, monohydrochloride", "Benzenemethanamine, 2-amino-3,5-dibromo-N-cyclohexyl-N-methyl-, monohydrochloride", "Bisolvon", "Bisolvon hydrochloride", "Cyclohexylmethyl(2-amino-3,5-dibromobenzyl)ammonium chloride", "N-Cyclohexyl-N-methyl-(2-amino-3,5-dibromobenzyl)ammonium chloride", "Bromhexine hydrochloride", "N\u03b1-Cyclohexyl-N\u03b1-methyl-3,5-dibromotoluene-\u03b1,2-diamine hydrochloride", "N-Cyclohexyl-N-methyl-N-(2-amino-3,5-dibromobenzyl)ammonium chloride", "2-Amino-3,5-dibromo-N-cyclohexyl-N-methylbenzylamine monohydrochloride", "Bromhexine chloride", "Bromhexine monohydrochloride", "Quentan", "Auxit", "Ophtosol", "2,4-Dibromo-6-[[cyclohexyl(methyl)amino]methyl]aniline hydrochloride", "2,4-Dibromo-6-[(cyclohexyl-methyl-amino)-methyl]-phenylamine", "hydrochloride"], "SMILES": "C(N(C)C1CCCCC1)C2=C(N)C(Br)=CC(Br)=C2.Cl", "physical_data": {"Molecular Weight": "", "Molecular Formula": "C14H20Br2N2.ClH", "Melting Point": "237.5-289 \u00b0C (decomp)"}}