{"cas_no": "611-15-4", "cn_name": "2-\u7532\u57fa\u82ef\u4e59\u70ef", "en_name": ["2-Methylstyrene", "Benzene, 1-ethenyl-2-methyl-", "Styrene, o-methyl-", "1-Ethenyl-2-methylbenzene", "2-Methylstyrene", "o-Vinyltoluene", "o-Methylstyrene", "1-Methyl-2-vinylbenzene", "2-Vinyltoluene", "2-Ethenylmethylbenzene", "(2-Methylphenyl)ethene", "(2-Tolyl)ethene", "1-(2-Methylphenyl)-1-ethene", "2-Methyl-1-ethenylbenzene"], "SMILES": "C(=C)C1=C(C)C=CC=C1", "physical_data": {"Molecular Weight": "118.18", "Molecular Formula": "C9H10", "Boiling Point": "170 \u00b0C", "Melting Point": "-69 \u00b0C", "Density": "0.91 g/cm\u00b3"}}