{"cas_no": "611-91-6", "cn_name": "2,3-\u4e8c\u6eb4\u4ee3-1,3-\u4e8c\u82ef\u57fa-1-\u4e19\u916e", "en_name": ["2,3-Dibromo-1,3-diphenyl-1-propanone", "1-Propanone, 2,3-dibromo-1,3-diphenyl-", "Propiophenone, 2,3-dibromo-3-phenyl-", "2,3-Dibromo-1,3-diphenyl-1-propanone", "1,3-Diphenyl-2,3-dibromo-1-propanone", "Benzalacetophenone dibromide", "Chalcone dibromide", "2,3-Dibromo-3-phenylpropiophenone", "NSC 2715"], "SMILES": "C(C(C(=O)C1=CC=CC=C1)Br)(Br)C2=CC=CC=C2", "physical_data": {"Molecular Weight": "368.06", "Molecular Formula": "C15H12Br2O", "Melting Point": "158-159 \u00b0C"}}