{"cas_no": "611-23-4", "cn_name": "2-\u4e9a\u785d\u57fa\u7532\u82ef", "en_name": ["2-Nitrosotoluene", "Benzene, 1-methyl-2-nitroso-", "Toluene, o-nitroso-", "1-Methyl-2-nitrosobenzene", "2-Nitrosotoluene", "o-Nitrosotoluene", "o-Methylnitrosobenzene", "2-Methyl-1-nitrosobenzene", "2-Methylnitrosobenzene", "NSC 66507", "NSC 677512"], "SMILES": "N(=O)C1=C(C)C=CC=C1", "physical_data": {"Molecular Weight": "121.14", "Molecular Formula": "C7H7NO", "Melting Point": "72 \u00b0C"}}