{"cas_no": "611-19-8", "cn_name": "\u90bb\u6c2f\u6c2f\u82c4", "en_name": ["2-Chlorobenzyl chloride", "Benzene, 1-chloro-2-(chloromethyl)-", "Toluene, o,\u03b1-dichloro-", "Toluene, \u03b1,2-dichloro-", "1-Chloro-2-(chloromethyl)benzene", "o-Chlorobenzyl chloride", "\u03b1,o-Dichlorotoluene", "2-Chlorobenzyl chloride", "o,\u03b1-Dichlorotoluene", "\u03b1,2-Dichlorotoluene", "NSC 8446"], "SMILES": "C(Cl)C1=C(Cl)C=CC=C1", "physical_data": {"Molecular Weight": "161.03", "Molecular Formula": "C7H6Cl2", "Boiling Point": "217 \u00b0C", "Melting Point": "-17 \u00b0C", "Density": "1.078 g/cm\u00b3 @ Temp: 18 \u00b0C"}}