{"cas_no": "611-17-6", "cn_name": "2-\u6c2f\u82c4\u6eb4", "en_name": ["2-Chlorobenzyl bromide", "Benzene, 1-(bromomethyl)-2-chloro-", "Toluene, \u03b1-bromo-o-chloro-", "1-(Bromomethyl)-2-chlorobenzene", "2-Chlorobenzyl bromide", "o-Chlorobenzyl bromide", "\u03b1-Bromo-o-chlorotoluene"], "SMILES": "C(Br)C1=C(Cl)C=CC=C1", "physical_data": {"Molecular Weight": "205.48", "Molecular Formula": "C7H6BrCl", "Boiling Point": "120 \u00b0C @ Press: 10 Torr", "Melting Point": "83-84 \u00b0C"}}