{"cas_no": "6110-53-8", "cn_name": "\u6eb4\u5316\u9187E\u57fa", "en_name": ["(9Z)-1-Bromo-9-octadecene", "9-Octadecene, 1-bromo-, (9Z)-", "9-Octadecene, 1-bromo-, (Z)-", "(9Z)-1-Bromo-9-octadecene", "Oleyl bromide", "(Z)-1-Bromo-9-octadecene", "(Z)-1-Bromooctadec-9-ene"], "SMILES": "C(CCCCCCCCBr)=CCCCCCCCC", "physical_data": {"Molecular Weight": "331.37", "Molecular Formula": "C18H35Br", "Boiling Point": "160-175 \u00b0C @ Press: 0.2 Torr"}}