{"cas_no": "6112-76-1", "cn_name": "6-\u5def\u57fa\u560c\u5464(\u4e00\u6c34\u5408\u7269)", "en_name": ["6-Mercaptopurine monohydrate", "6H-Purine-6-thione, 1,9-dihydro-, hydrate (1:1)", "Purine-6-thiol, monohydrate", "6H-Purine-6-thione, 1,7-dihydro-, monohydrate", "6-Mercaptopurine monohydrate", "9H-Purine-6-thiol hydrate", "Xaluprine"], "SMILES": "S=C1C2=C(NC=N1)N=CN2.O", "physical_data": {"Molecular Weight": "", "Molecular Formula": "C5H4N4S.H2O", "Melting Point": "313-315 \u00b0C (decomp)"}}