{"cas_no": "6113-61-7", "cn_name": "N-\u7532\u9170\u57fa-L-\u4eae\u6c28\u9178", "en_name": ["N-Formyl-L-leucine", "L-Leucine, N-formyl-", "Leucine, N-formyl-, L-", "N-Formyl-L-leucine", "N-Formyl-S-leucine", "N-Formylleucine", "NSC 334321", "(S)-(+)-2-Formamido-4-methylpentanoic acid", "(2S)-2-Formamido-4-methylpentanoic acid"], "SMILES": "C(CC(C)C)(NC=O)C(O)=O", "physical_data": {"Molecular Weight": "159.18", "Molecular Formula": "C7H13NO3", "Boiling Point": "33-34 \u00b0C @ Press: 0.5 Torr", "Melting Point": "142-144 \u00b0C"}}