{"cas_no": "61135-33-9", "cn_name": "5-\u4e59\u7094\u57fa-2-\u8131\u6c27\u5c3f\u82f7", "en_name": ["5-Ethynyl-2\u2032-deoxyuridine", "Uridine, 2\u2032-deoxy-5-ethynyl-", "2\u2032-Deoxy-5-ethynyluridine", "5-Ethynyl-2\u2032-deoxyuridine", "5: PN: WO2006117161 FIGURE: 10 claimed sequence", "EdU"], "SMILES": "O=C1N(C2OC(CO)C(O)C2)C=C(C#C)C(=O)N1", "physical_data": {"Molecular Weight": "252.22", "Molecular Formula": "C11H12N2O5", "Melting Point": "178-180 \u00b0C (decomp)"}}