{"cas_no": "6116-76-3", "cn_name": "2-\u7532\u57fa-3-\u4e59\u57fa-4-\u6c27\u4ee3-4,5,6,7-\u56db\u6c22\u5432\u54da", "en_name": ["3-Ethyl-1,5,6,7-tetrahydro-2-methyl-4H-indol-4-one", "4H-Indol-4-one, 3-ethyl-1,5,6,7-tetrahydro-2-methyl-", "Indol-4(5H)-one, 3-ethyl-6,7-dihydro-2-methyl-", "3-Ethyl-1,5,6,7-tetrahydro-2-methyl-4H-indol-4-one", "2-Methyl-3-ethyl-4-oxo-4,5,6,7-tetrahydroindole", "NSC 136938", "3-Ethyl-2-methyl-4,5,6,7-tetrahydro-1H-indol-4-one", "3-Ethyl-2-methyl-1,5,6,7-tetrahydroindol-4-one"], "SMILES": "C(C)C=1C2=C(NC1C)CCCC2=O", "physical_data": {"Molecular Weight": "177.24", "Molecular Formula": "C11H15NO", "Melting Point": "183 \u00b0C"}}