{"cas_no": "6117-91-5", "cn_name": "\u5df4\u8c46\u9187", "en_name": ["2-Buten-1-ol", "2-Buten-1-ol", "Crotonyl alcohol", "Crotyl alcohol", "2-Butenyl alcohol", "3-Methylallyl alcohol", "1-Hydroxy-2-butene", "Crotonol", "NSC 17480"], "SMILES": "C(=CC)CO", "physical_data": {"Molecular Weight": "72.11", "Molecular Formula": "C4H8O", "Boiling Point": "119-120 \u00b0C @ Press: 759 Torr"}}