{"cas_no": "6117-80-2", "cn_name": "\u987a\u5f0f-1,2-\u4e8c\u7f9f\u7532\u57fa\u4e59\u70ef", "en_name": ["cis-2-Butene-1,4-diol", "2-Butene-1,4-diol, (2Z)-", "2-Butene-1,4-diol, (Z)-", "2-Butene-1,4-diol, cis-", "(2Z)-2-Butene-1,4-diol", "cis-2-Butene-1,4-diol", "cis-1,4-Dihydroxy-2-butene", "(Z)-1,4-Dihydroxy-2-butene", "cis-But-2-en-1,4-diol", "(Z)-2-Butene-1,4-diol", "(Z)-2-Buten-1,4-diol", "(Z)-2-Buten-1,4-diol"], "SMILES": "C(=CCO)CO", "physical_data": {"Molecular Weight": "88.11", "Molecular Formula": "C4H8O2", "Boiling Point": "235 \u00b0C", "Melting Point": "4 \u00b0C", "Density": "1.082 g/cm\u00b3 @ Temp: 15 \u00b0C"}}