{"cas_no": "61189-99-9", "cn_name": "2,2-\u4e8c\u4e59\u6c27\u57fa\u4e59\u9170\u80fa", "en_name": ["2,2-Diethoxyacetamide", "Acetamide, 2,2-diethoxy-", "Glyoxylamide, diethyl acetal", "2,2-Diethoxyacetamide", "NSC 363000"], "SMILES": "C(OCC)(OCC)C(N)=O", "physical_data": {"Molecular Weight": "147.17", "Molecular Formula": "C6H13NO3", "Melting Point": "81.5 \u00b0C"}}