{"cas_no": "6118-51-0", "cn_name": "EXO-3,6-\u73af\u6c27-1,2,3,6-\u56db\u6c22\u90bb\u82ef\u4e8c\u7532\u9178\u9150", "en_name": ["exo-5,6-Dehydronorcantharidin", "4,7-Epoxyisobenzofuran-1,3-dione, 3a,4,7,7a-tetrahydro-, (3aR,4S,7R,7aS)-rel-", "7-Oxabicyclo[2.2.1]hept-5-ene-2,3-dicarboxylic anhydride, exo-", "4,7-Epoxyisobenzofuran-1,3-dione, 3a,4,7,7a-tetrahydro-, (3a\u03b1,4\u03b2,7\u03b2,7a\u03b1)-", "rel-(3aR,4S,7R,7aS)-3a,4,7,7a-Tetrahydro-4,7-epoxyisobenzofuran-1,3-dione", "exo-cis-3,6-Endoxo-\u03944-tetrahydrophthalic anhydride", "7-Oxabicyclo[2.2.1]hept-5-ene-2,3-exo-dicarboxylic anhydride", "exo-3,6-Epoxy-1,2,3,6-tetrahydrophthalic anhydride", "exo-7-Oxabicyclo[2.2.1]hept-5-ene-2,3-dicarboxylic anhydride", "(exo,exo)-7-Oxabicyclo[2.2.1]hept-5-ene-2,3-dicarboxylic anhydride", "5,6-Dehydronorcantharidin", "NSC 144085", "exo-3,6-Epoxy-1,2,3,6-tetrahydrophthalic acid anhydride", "exo-7-Oxabicyclo[2.2.1]hept-5-ene-2,3-dicarboxylic acid anhydride", "exo-5,6-Dehydronorcantharidin", "exo-7-Oxanorbornene-5,6-dicarboxylic anhydride", "exo-7-Oxanorbornene-2,3-dicarboxylic anhydride"], "SMILES": "O=C1C2C(C3OC2C=C3)C(=O)O1", "physical_data": {"Molecular Weight": "166.13", "Molecular Formula": "C8H6O4", "Melting Point": "123-124 \u00b0C"}}