{"cas_no": "61196-37-0", "cn_name": "1,2,3,6,7,11B-\u516d\u6c22-4H-\u5421\u55ea\u5e76[2,1-\u0391]\u5f02\u55b9\u5549-4-\u916e", "en_name": ["1,2,3,6,7,11b-Hexahydro-4H-pyrazino[2,1-a]isoquinolin-4-one", "4H-Pyrazino[2,1-a]isoquinolin-4-one, 1,2,3,6,7,11b-hexahydro-", "1,2,3,6,7,11b-Hexahydro-4H-pyrazino[2,1-a]isoquinolin-4-one", "(\u00b1)-Praziquanamine", "DL-Praziquanamine", "1,2,3,6,7,11b-Hexahydropyrazino[2,1-a]isoquinolin-4-one", "Praziquanamine", "4-oxo-1,2,3,6,7,11b-hexahydro-4H-pyrazino[2,1-a]isoquinoline", "2,3,6,7-Tetrahydro-1H-pyrazino[2,1-a]isoquinolin-4(11bH)-one"], "SMILES": "O=C1N2C(C=3C(CC2)=CC=CC3)CNC1", "physical_data": {"Molecular Weight": "202.25", "Molecular Formula": "C12H14N2O", "Melting Point": "116-118 \u00b0C"}}