{"cas_no": "612-17-9", "cn_name": "1,4-\u4e8c\u7f9f\u57fa\u8418", "en_name": ["1,4-Dihydronaphthalene", "Naphthalene, 1,4-dihydro-", "1,4-Dihydronaphthalene", "\u03942-Dialin", "NSC 97894"], "SMILES": "C=12C(=CC=CC1)CC=CC2", "physical_data": {"Molecular Weight": "130.19", "Molecular Formula": "C10H10", "Boiling Point": "211.5 \u00b0C", "Melting Point": "25 \u00b0C"}}