{"cas_no": "612-42-0", "cn_name": "N-(2-\u7fa7\u57fa)\u82ef\u57fa\u7518\u6c28\u9178", "en_name": ["N-(2-Carboxyphenyl)glycine", "Benzoic acid, 2-[(carboxymethyl)amino]-", "Anthranilic acid, N-(carboxymethyl)-", "2-[(Carboxymethyl)amino]benzoic acid", "N-(Carboxymethyl)anthranilic acid", "N-(2-Carboxyphenyl)glycine", "NSC 80600"], "SMILES": "N(CC(O)=O)C1=C(C(O)=O)C=CC=C1", "physical_data": {"Molecular Weight": "195.17", "Molecular Formula": "C9H9NO4", "Melting Point": "218 \u00b0C"}}