{"cas_no": "612-16-8", "cn_name": "2-\u7532\u6c27\u57fa\u82ef\u7532\u9187", "en_name": ["2-Methoxybenzyl alcohol", "Benzenemethanol, 2-methoxy-", "Benzyl alcohol, o-methoxy-", "2-Methoxybenzenemethanol", "o-Methoxybenzyl alcohol", "2-Methoxybenzyl alcohol", "2-(Hydroxymethyl)anisole", "o-Anisalcohol", "(2-Methoxyphenyl)methanol", "NSC 66558", "o-Methoxyphenylmethanol"], "SMILES": "C(O)C1=C(OC)C=CC=C1", "physical_data": {"Molecular Weight": "138.16", "Molecular Formula": "C8H10O2", "Boiling Point": "249 \u00b0C", "Melting Point": "85-86 \u00b0C"}}