{"cas_no": "612-78-2", "cn_name": "2\uff0c2'-\u8054\u8418\u915a", "en_name": ["2,2\u2032-Binaphthalene", "2,2\u2032-Binaphthalene", "2,2\u2032-Binaphthyl", "2,2\u2032-Dinaphthyl", "\u03b2,\u03b2\u2032-Binaphthyl", "NSC 60426", "2-Naphthalen-2-ylnaphthalene"], "SMILES": "C1(=CC2=C(C=C1)C=CC=C2)C3=CC4=C(C=C3)C=CC=C4", "physical_data": {"Molecular Weight": "254.33", "Molecular Formula": "C20H14", "Boiling Point": "452 \u00b0C", "Melting Point": "188.3 \u00b0C"}}