{"cas_no": "612-40-8", "cn_name": "2-\u7fa7\u57fa\u82ef\u4e59\u70ef", "en_name": ["2-(2-Carboxyethenyl)benzoic acid", "Benzoic acid, 2-(2-carboxyethenyl)-", "Cinnamic acid, o-carboxy-", "2-(2-Carboxyethenyl)benzoic acid", "2-Carboxycinnamic acid", "NSC 16636", "o-Carboxycinnamic acid", "2-(2-Carboxyvinyl)benzoic acid"], "SMILES": "C(=CC(O)=O)C1=C(C(O)=O)C=CC=C1", "physical_data": {"Molecular Weight": "192.17", "Molecular Formula": "C10H8O4", "Melting Point": "182 \u00b0C"}}