{"cas_no": "612-61-3", "cn_name": "7-\u6c2f\u55b9\u5549", "en_name": ["7-Chloroquinoline", "Quinoline, 7-chloro-", "7-Chloroquinoline"], "SMILES": "ClC1=CC2=C(C=C1)C=CC=N2", "physical_data": {"Molecular Weight": "163.60", "Molecular Formula": "C9H6ClN", "Boiling Point": "207-208 \u00b0C", "Melting Point": "85 \u00b0C"}}