{"cas_no": "612-87-3", "cn_name": "\u8054\u82ef-3,3'-\u4e8c\u7fa7\u9178", "en_name": ["[1,1\u2032-Biphenyl]-3,3\u2032-dicarboxylic acid", "[1,1\u2032-Biphenyl]-3,3\u2032-dicarboxylic acid", "3,3\u2032-Biphenyldicarboxylic acid", "3,3\u2032-Bibenzoic acid", "m,m\u2032-Dicarboxybiphenyl", "NSC 78785"], "SMILES": "C(O)(=O)C=1C=C(C=CC1)C2=CC(C(O)=O)=CC=C2", "physical_data": {"Molecular Weight": "242.23", "Molecular Formula": "C14H10O4", "Melting Point": "330-332 \u00b0C"}}