{"cas_no": "612-23-7", "cn_name": "2-\u785d\u57fa\u82c4\u6c2f", "en_name": ["2-Nitrobenzyl chloride", "Benzene, 1-(chloromethyl)-2-nitro-", "Toluene, \u03b1-chloro-o-nitro-", "1-(Chloromethyl)-2-nitrobenzene", "o-Nitrobenzyl chloride", "2-Nitrobenzyl chloride", "\u03b1-Chloro-o-nitrotoluene", "NSC 66500"], "SMILES": "C(Cl)C1=C(N(=O)=O)C=CC=C1", "physical_data": {"Molecular Weight": "171.58", "Molecular Formula": "C7H6ClNO2", "Melting Point": "51 \u00b0C"}}