{"cas_no": "612-22-6", "cn_name": "2-\u785d\u57fa\u4e59\u57fa\u82ef", "en_name": ["1-Ethyl-2-nitrobenzene", "Benzene, 1-ethyl-2-nitro-", "1-Ethyl-2-nitrobenzene", "o-Nitroethylbenzene", "o-Ethylnitrobenzene", "2-Ethyl-1-nitrobenzene", "2-Ethylnitrobenzene", "NSC 5095", "2-Nitro-1-ethylbenzene", "2-Nitro(ethylbenzene)", "Benzenamine, 2-ethyl-N,N-dihydroxy-"], "SMILES": "C(C)C1=C(N(=O)=O)C=CC=C1", "physical_data": {"Molecular Weight": "151.16", "Molecular Formula": "C8H9NO2", "Boiling Point": "232.5 \u00b0C", "Melting Point": "-12.3 \u00b0C", "Density": "1.1236 g/cm\u00b3 @ Temp: 20 \u00b0C"}}