{"cas_no": "612-60-2", "cn_name": "7-\u7532\u57fa\u55b9\u5549", "en_name": ["7-Methylquinoline", "Quinoline, 7-methyl-", "7-Methylquinoline", "m-Toluquinoline", "NSC 65665"], "SMILES": "CC1=CC2=C(C=C1)C=CC=N2", "physical_data": {"Molecular Weight": "143.19", "Molecular Formula": "C10H9N", "Boiling Point": "257.6 \u00b0C", "Melting Point": "39 \u00b0C"}}