{"cas_no": "612-55-5", "cn_name": "2-\u7898\u8418", "en_name": ["2-Iodonaphthalene", "Naphthalene, 2-iodo-", "2-Iodonaphthalene", "\u03b2-Iodonaphthalene", "2-Naphthyl iodide", "NSC 3786", "Naphthalen-2-yl iodide", "2-Monoiodonaphthalene"], "SMILES": "IC1=CC2=C(C=C1)C=CC=C2", "physical_data": {"Molecular Weight": "254.07", "Molecular Formula": "C10H7I", "Melting Point": "54 \u00b0C"}}