{"cas_no": "612-35-1", "cn_name": "2-\u82c4\u57fa\u82ef\u7532\u9178", "en_name": ["2-(Phenylmethyl)benzoic acid", "Benzoic acid, 2-(phenylmethyl)-", "o-Toluic acid, \u03b1-phenyl-", "2-(Phenylmethyl)benzoic acid", "o-Benzylbenzoic acid", "o-Diphenylmethanecarboxylic acid", "2-Benzylbenzoic acid", "\u03b1-Phenyl-o-toluic acid", "\u03b1-Phenyl-2-toluic acid", "NSC 74872"], "SMILES": "C(C1=C(C(O)=O)C=CC=C1)C2=CC=CC=C2", "physical_data": {"Molecular Weight": "212.24", "Molecular Formula": "C14H12O2", "Melting Point": "118 \u00b0C"}}