{"cas_no": "612-71-5", "cn_name": "1,3,5-\u4e09\u82ef\u57fa\u82ef", "en_name": ["1,3,5-Triphenylbenzene", "1,1\u2032:3\u2032,1\u2032\u2032-Terphenyl, 5\u2032-phenyl-", "m-Terphenyl, 5\u2032-phenyl-", "5\u2032-Phenyl-1,1\u2032:3\u2032,1\u2032\u2032-terphenyl", "Benzene, 1,3,5-triphenyl-", "1,3,5-Triphenylbenzene", "1,1\u2032-Biphenyl, 3,5-diphenyl-", "5\u2032-Phenyl-m-terphenyl", "NSC 17358"], "SMILES": "C1(=CC(=CC(=C1)C2=CC=CC=C2)C3=CC=CC=C3)C4=CC=CC=C4", "physical_data": {"Molecular Weight": "306.40", "Molecular Formula": "C24H18", "Boiling Point": "462 \u00b0C", "Melting Point": "176 \u00b0C"}}