{"cas_no": "612-64-6", "cn_name": "N-\u4e9a\u785d\u57fa-N-\u4e59\u57fa\u82ef\u80fa", "en_name": ["N-Nitroso-N-ethylaniline", "Benzenamine, N-ethyl-N-nitroso-", "Aniline, N-ethyl-N-nitroso-", "N-Ethyl-N-nitrosobenzenamine", "N-Nitroso-N-ethylaniline", "N-Ethyl-N-nitrosoaniline", "N-Ethyl-N-phenylnitrosamine", "N-Nitrosoethylphenylamine", "NSC 405070"], "SMILES": "N(CC)(N=O)C1=CC=CC=C1", "physical_data": {"Molecular Weight": "150.18", "Molecular Formula": "C8H10N2O", "Boiling Point": "96-97 \u00b0C @ Press: 1.9 Torr", "Density": "1.0874 g/cm\u00b3 @ Temp: 20 \u00b0C"}}