{"cas_no": "612-20-4", "cn_name": "2-\u7f9f\u7532\u57fa\u82ef\u7532\u9178", "en_name": ["2-(Hydroxymethyl)benzoic acid", "Benzoic acid, 2-(hydroxymethyl)-", "o-Toluic acid, \u03b1-hydroxy-", "2-(Hydroxymethyl)benzoic acid", "\u03b1-Hydroxy-o-toluic acid", "o-Carboxybenzyl alcohol", "2-Carboxybenzyl alcohol", "NSC 30638", "o-(Hydroxymethyl)benzoic acid"], "SMILES": "C(O)C1=C(C(O)=O)C=CC=C1", "physical_data": {"Molecular Weight": "152.15", "Molecular Formula": "C8H8O3", "Melting Point": "139.5-140.5 \u00b0C"}}