{"cas_no": "612-13-5", "cn_name": "\u90bb\u6c30\u57fa\u6c2f\u82c4", "en_name": ["2-Cyanobenzyl chloride", "Benzonitrile, 2-(chloromethyl)-", "o-Tolunitrile, \u03b1-chloro-", "\u03b1-Tolunitrile, \u03b1-chloro-", "2-(Chloromethyl)benzonitrile", "o-Cyanobenzylchloride", "o-(Chloromethyl)benzonitrile", "\u03b1-Chloro-o-toluonitrile", "2-Cyanobenzyl chloride", "NSC 102157"], "SMILES": "C(Cl)C1=C(C#N)C=CC=C1", "physical_data": {"Molecular Weight": "151.59", "Molecular Formula": "C8H6ClN", "Boiling Point": "252 \u00b0C", "Melting Point": "61 \u00b0C"}}