{"cas_no": "612-57-7", "cn_name": "6-\u6c2f\u55b9\u5549", "en_name": ["6-Chloroquinoline", "Quinoline, 6-chloro-", "6-Chloroquinoline", "NSC 4682"], "SMILES": "ClC1=CC2=C(C=C1)N=CC=C2", "physical_data": {"Molecular Weight": "163.60", "Molecular Formula": "C9H6ClN", "Boiling Point": "263 \u00b0C", "Melting Point": "43.8 \u00b0C"}}