{"cas_no": "612-14-6", "cn_name": "\u90bb\u82ef\u4e8c\u7532\u9187", "en_name": ["1,2-Benzenedimethanol", "1,2-Benzenedimethanol", "o-Xylene-\u03b1,\u03b1\u2032-diol", "Phthalyl alcohol", "o-Xylylene glycol", "1,2-Bis(hydroxymethyl)benzene", "o-Benzenedimethanol", "o-Bis(hydroxymethyl)benzene", "1,2-Di(hydroxymethyl)benzene", "o-Xylylenediol", "\u03b1,\u03b1\u2032-Dihydroxy-o-xylene", "o-Hydroxymethylbenzyl alcohol", "o-Xylene glycol", "(2-Hydroxymethylphenyl)methanol", "NSC 403013", "2-(Hydroxymethyl)benzyl alcohol", "1,2-Phenylenedimethanol"], "SMILES": "C(O)C1=C(CO)C=CC=C1", "physical_data": {"Molecular Weight": "138.16", "Molecular Formula": "C8H10O2", "Boiling Point": "140 \u00b0C @ Press: 0.8 Torr", "Melting Point": "63-64 \u00b0C"}}