{"cas_no": "612-28-2", "cn_name": "N-\u7532\u57fa-2-\u785d\u57fa\u82ef\u80fa", "en_name": ["N-Methyl-2-nitrobenzenamine", "Benzenamine, N-methyl-2-nitro-", "Aniline, N-methyl-o-nitro-", "N-Methyl-2-nitrobenzenamine", "o-Nitro-N-methylaniline", "N-Methyl-o-nitroaniline", "o-(Methylamino)nitrobenzene", "N-Methyl-2-nitroaniline", "2-Nitro-N-methylaniline", "2-(Methylamino)nitrobenzene", "NSC 86672", "(Methyl)(2-nitrophenyl)amine", "4-(N-Methylamino)-3-nitrobenzene"], "SMILES": "N(C)C1=C(N(=O)=O)C=CC=C1", "physical_data": {"Molecular Weight": "152.15", "Molecular Formula": "C7H8N2O2", "Boiling Point": "158 \u00b0C", "Melting Point": "38 \u00b0C"}}