{"cas_no": "612-96-4", "cn_name": "2-\u82ef\u57fa\u55b9\u5549", "en_name": ["2-Phenylquinoline", "Quinoline, 2-phenyl-", "2-Phenylquinoline", "\u03b1-Phenylquinoline", "NSC 118137"], "SMILES": "C1(=NC2=C(C=C1)C=CC=C2)C3=CC=CC=C3", "physical_data": {"Molecular Weight": "205.25", "Molecular Formula": "C15H11N", "Boiling Point": "363 \u00b0C", "Melting Point": "86 \u00b0C"}}