{"cas_no": "612-25-9", "cn_name": "\u90bb\u785d\u57fa\u82ef\u7532\u9187", "en_name": ["2-Nitrobenzyl alcohol", "Benzenemethanol, 2-nitro-", "Benzyl alcohol, o-nitro-", "2-Nitrobenzenemethanol", "o-Nitrobenzyl alcohol", "2-Nitrobenzyl alcohol", "o-(Hydroxymethyl)nitrobenzene", "NSC 66512", "(2-Nitrophenyl)methanol"], "SMILES": "C(O)C1=C(N(=O)=O)C=CC=C1", "physical_data": {"Molecular Weight": "153.14", "Molecular Formula": "C7H7NO3", "Boiling Point": "270 \u00b0C", "Melting Point": "74 \u00b0C"}}