{"cas_no": "612-41-9", "cn_name": "2-\u785d\u57fa\u8089\u6842\u9178", "en_name": ["3-(2-Nitrophenyl)-2-propenoic acid", "2-Propenoic acid, 3-(2-nitrophenyl)-", "Cinnamic acid, o-nitro-", "3-(2-Nitrophenyl)-2-propenoic acid", "o-Nitrocinnamic acid", "2-Nitrocinnamic acid", "2-Nitrobenzenepropenoic acid", "3-(2-Nitrophenyl)propenoic acid", "NSC 14018", "NSC 638145"], "SMILES": "C(=CC(O)=O)C1=C(N(=O)=O)C=CC=C1", "physical_data": {"Molecular Weight": "193.16", "Molecular Formula": "C9H7NO4", "Melting Point": "240 \u00b0C"}}