{"cas_no": "612-24-8", "cn_name": "2-\u785d\u57fa\u82ef\u7532\u8148", "en_name": ["2-Nitrobenzonitrile", "Benzonitrile, 2-nitro-", "Benzonitrile, o-nitro-", "2-Nitrobenzonitrile", "o-Nitrobenzonitrile", "o-Cyanonitrobenzene", "2-Cyanonitrobenzene", "2-Cyano-1-nitrobenzene", "NSC 1994"], "SMILES": "C(#N)C1=C(N(=O)=O)C=CC=C1", "physical_data": {"Molecular Weight": "148.12", "Molecular Formula": "C7H4N2O2", "Boiling Point": "135 \u00b0C @ Press: 0.5 Torr", "Melting Point": "108 \u00b0C"}}