{"cas_no": "612-94-2", "cn_name": "2-\u82ef\u57fa\u8418", "en_name": ["2-Phenylnaphthalene", "Naphthalene, 2-phenyl-", "2-Phenylnaphthalene", "\u03b2-Phenylnaphthalene", "(\u03b2-Naphthyl)benzene", "NSC 407592"], "SMILES": "C1(=CC2=C(C=C1)C=CC=C2)C3=CC=CC=C3", "physical_data": {"Molecular Weight": "204.27", "Molecular Formula": "C16H12", "Boiling Point": "345.5 \u00b0C", "Melting Point": "103.5 \u00b0C"}}