{"cas_no": "612-05-5", "cn_name": "\u7532\u57fa-BETA-\u5421\u5583\u6728\u7cd6\u82f7", "en_name": ["Methyl \u03b2-D-xylopyranoside", "\u03b2-D-Xylopyranoside, methyl", "Xylopyranoside, methyl, \u03b2-D-", "Methyl \u03b2-D-xylopyranoside", "Methyl \u03b2-D-xyloside", "NSC 170227", "Methyl xyloside"], "SMILES": "O(C)C1C(O)C(O)C(O)CO1", "physical_data": {"Molecular Weight": "164.16", "Molecular Formula": "C6H12O5", "Melting Point": "157 \u00b0C", "Density": "1.40 g/cm\u00b3"}}