{"cas_no": "612-58-8", "cn_name": "3-\u7532\u57fa\u55b9\u5549", "en_name": ["3-Methylquinoline", "Quinoline, 3-methyl-", "3-Methylquinoline", "NSC 109149"], "SMILES": "CC1=CC2=C(N=C1)C=CC=C2", "physical_data": {"Molecular Weight": "143.19", "Molecular Formula": "C10H9N", "Boiling Point": "259.8 \u00b0C", "Melting Point": "16.5 \u00b0C", "Density": "1.0688 g/cm\u00b3 @ Temp: 20 \u00b0C"}}