{"cas_no": "612-15-7", "cn_name": "2-\u7532\u6c27\u57fa\u82ef\u4e59\u70ef", "en_name": ["1-Ethenyl-2-methoxybenzene", "Benzene, 1-ethenyl-2-methoxy-", "Anisole, o-vinyl-", "1-Ethenyl-2-methoxybenzene", "2-Methoxystyrene", "o-Methoxystyrene", "o-Vinylanisole", "2-Vinylanisole", "1-Methoxy-2-vinylbenzene"], "SMILES": "C(=C)C1=C(OC)C=CC=C1", "physical_data": {"Molecular Weight": "134.18", "Molecular Formula": "C9H10O", "Boiling Point": "197 \u00b0C", "Melting Point": "29 \u00b0C", "Density": "1.009 g/cm\u00b3 @ Temp: 16 \u00b0C"}}