{"cas_no": "612-62-4", "cn_name": "2-\u6c2f\u55b9\u5549", "en_name": ["2-Chloroquinoline", "Quinoline, 2-chloro-", "2-Chloroquinoline", "NSC 6163"], "SMILES": "ClC1=NC2=C(C=C1)C=CC=C2", "physical_data": {"Molecular Weight": "163.60", "Molecular Formula": "C9H6ClN", "Boiling Point": "266 \u00b0C", "Melting Point": "38 \u00b0C"}}