{"cas_no": "612-36-2", "cn_name": "2,4-\u4e8c\u785d\u57fa\u4e8c\u82ef\u80fa", "en_name": ["2,4\u2032-Dinitrodiphenylamine", "Benzenamine, 2-nitro-N-(4-nitrophenyl)-", "Diphenylamine, 2,4\u2032-dinitro-", "2-Nitro-N-(4-nitrophenyl)benzenamine", "2,4\u2032-Dinitrodiphenylamine", "NSC 229367", "2-Nitro-N-(4-nitrophenyl)aniline"], "SMILES": "N(C1=C(N(=O)=O)C=CC=C1)C2=CC=C(N(=O)=O)C=C2", "physical_data": {"Molecular Weight": "259.22", "Molecular Formula": "C12H9N3O4", "Melting Point": "217 \u00b0C"}}