{"cas_no": "612-00-0", "cn_name": "1,1-\u4e8c\u82ef\u57fa\u4e59\u70f7", "en_name": ["1,1-Diphenylethane", "Benzene, 1,1\u2032-ethylidenebis-", "Ethane, 1,1-diphenyl-", "Ethane, as-diphenyl-", "1,1\u2032-Ethylidenebis[benzene]", "1,1-Diphenylethane", "Methyldiphenylmethane", "Pabsol 300", "NSC 33534", "(Ethane-1,1-diyl)dibenzene", "1-Phenylethylbenzene", "SAS 296 (solvent)", "SAS 296"], "SMILES": "C(C)(C1=CC=CC=C1)C2=CC=CC=C2", "physical_data": {"Molecular Weight": "182.26", "Molecular Formula": "C14H14", "Boiling Point": "272.6 \u00b0C", "Melting Point": "-17.9 \u00b0C", "Density": "0.9997 g/cm\u00b3 @ Temp: 2 \u00b0C"}}