{"cas_no": "612-12-4", "cn_name": "\u90bb\u4e8c\u6c2f\u82c4", "en_name": ["\u03b1,\u03b1\u2032-Dichloro-o-xylene", "Benzene, 1,2-bis(chloromethyl)-", "o-Xylene, \u03b1,\u03b1\u2032-dichloro-", "1,2-Bis(chloromethyl)benzene", "\u03b1,\u03b1\u2032-Dichloro-o-xylene", "o-Xylylene dichloride", "o-Bis(chloromethyl)benzene", "o-Xylene-\u03b1,\u03b1\u2032-dichloride", "NSC 71934"], "SMILES": "C(Cl)C1=C(CCl)C=CC=C1", "physical_data": {"Molecular Weight": "175.06", "Molecular Formula": "C8H8Cl2", "Boiling Point": "239.5 \u00b0C", "Melting Point": "55 \u00b0C", "Density": "1.37 g/cm\u00b3"}}