{"cas_no": "612-75-9", "cn_name": "3,3'-\u4e8c\u7532\u57fa\u8054\u82ef", "en_name": ["3,3\u2032-Dimethylbiphenyl", "1,1\u2032-Biphenyl, 3,3\u2032-dimethyl-", "m,m\u2032-Bitolyl", "3,3\u2032-Dimethyl-1,1\u2032-biphenyl", "3,3\u2032-Dimethylbiphenyl", "3,3\u2032-Ditolyl", "m,m\u2032-Bitoluene", "3,3\u2032-Bitolyl", "NSC 60024", "1-Methyl-3-(3-methylphenyl)benzene"], "SMILES": "CC=1C=C(C=CC1)C2=CC(C)=CC=C2", "physical_data": {"Molecular Weight": "182.26", "Molecular Formula": "C14H14", "Boiling Point": "280 \u00b0C", "Melting Point": "9 \u00b0C", "Density": "1.0013 g/cm\u00b3 @ Temp: 20 \u00b0C"}}