{"cas_no": "61204-01-1", "cn_name": "\u53cd\u5f0f-4-(4-\u620a\u57fa\u73af\u5df1\u57fa)\u82ef\u8148", "en_name": ["4-(trans-4-Pentylcyclohexyl)benzonitrile", "Benzonitrile, 4-(trans-4-pentylcyclohexyl)-", "Benzonitrile, 4-(4-pentylcyclohexyl)-, trans-", "4-(trans-4-Pentylcyclohexyl)benzonitrile", "Licristal S 1114", "trans-4-Pentyl(4-cyanophenyl)cyclohexane", "trans-4-Pentyl-1-(4-cyanophenyl)cyclohexane", "S 1114", "trans-4-Pentyl(4\u2032-cyanophenyl)cyclohexane", "4-(trans-4\u2032-n-Pentylcyclohexyl)-1-cyanobenzene", "p-trans-4-Pentylcyclohexylbenzonitrile", "trans-4-Amyl-1-(4-cyanophenyl)cyclohexane", "4-Cyano-1-[trans-4-pentylcyclohexyl]benzene", "trans-4-Pentyl-1-(p-cyanophenyl)cyclohexane", "PCH 5", "5PCH", "ZhKM 1098", "1-p-Cyanophenyl-4-pentylcyclohexane", "4-(4-Pentylcyclohexyl)benzonitrile", "p-Pentyl-p\u2032-cyanophenylcyclohexane", "4-Pentyl-4\u2032-cyanophenylcyclohexane", "ZLI 1114", "Merck ZLI 1114", "trans-4-(4-Pentylcyclohexyl)benzonitrile", "5-HB-C", "CP-5-N", "4-(trans-4-Amylcyclohexyl)benzonitrile"], "SMILES": "C(CCCC)C1CCC(CC1)C2=CC=C(C#N)C=C2", "physical_data": {"Molecular Weight": "255.40", "Molecular Formula": "C18H25N", "Melting Point": "29.7 \u00b0C"}}