{"cas_no": "6120-95-2", "cn_name": "1-\u82ef\u57fa-1-\u73af\u4e19\u7fa7\u9178", "en_name": ["1-Phenylcyclopropanecarboxylic acid", "Cyclopropanecarboxylic acid, 1-phenyl-", "1-Phenylcyclopropanecarboxylic acid", "1-Phenyl-1-cyclopropanecarboxylic acid", "NSC 154619", "1-Phenylcyclopropylcarboxylic acid"], "SMILES": "C(O)(=O)C1(CC1)C2=CC=CC=C2", "physical_data": {"Molecular Weight": "162.19", "Molecular Formula": "C10H10O2", "Melting Point": "84.8-86.1 \u00b0C"}}