{"cas_no": "61203-82-5", "cn_name": "4-\u6b63\u4e01\u57fa\u73af\u5df1\u916e", "en_name": ["4-Butylcyclohexanone", "Cyclohexanone, 4-butyl-", "4-Butylcyclohexanone", "4-n-Butylcyclohexanone", "4-Butyl-1-cyclohexanone", "4-Butylcyclohexan-1-one"], "SMILES": "C(CCC)C1CCC(=O)CC1", "physical_data": {"Molecular Weight": "154.25", "Molecular Formula": "C10H18O", "Boiling Point": "65-66 \u00b0C @ Press: 3 Torr", "Melting Point": "101-102 \u00b0C"}}