{"cas_no": "61203-48-3", "cn_name": "4,5-\u4e8c\u7532\u6c27\u57fa-2-\u7898\u82ef\u7532\u9178", "en_name": ["2-Iodo-4,5-dimethoxybenzoic acid", "Benzoic acid, 2-iodo-4,5-dimethoxy-", "Veratric acid, 6-iodo-", "2-Iodo-4,5-dimethoxybenzoic acid", "4,5-Dimethoxy-2-iodobenzoic acid"], "SMILES": "C(O)(=O)C1=C(I)C=C(OC)C(OC)=C1", "physical_data": {"Molecular Weight": "308.07", "Molecular Formula": "C9H9IO4", "Melting Point": "310-314 \u00b0C"}}