{"cas_no": "61213-25-0", "cn_name": "\u6c1f\u54af\u8349\u916e", "en_name": ["Flurochloridone", "2-Pyrrolidinone, 3-chloro-4-(chloromethyl)-1-[3-(trifluoromethyl)phenyl]-", "3-Chloro-4-(chloromethyl)-1-[3-(trifluoromethyl)phenyl]-2-pyrrolidinone", "R 40244", "Racer", "Fluorochloridone", "Racer 25", "Flurochloridone", "Rainbow", "Twin Gold Pack", "Racer 250 EC"], "SMILES": "O=C1N(CC(CCl)C1Cl)C2=CC(C(F)(F)F)=CC=C2", "physical_data": {"Molecular Weight": "312.12", "Molecular Formula": "C12H10Cl2F3NO", "Boiling Point": "212.5 \u00b0C", "Melting Point": "55.6-79.7 \u00b0C"}}