{"cas_no": "6123-63-3", "cn_name": "4-\u4e59\u9170-5-\u7532\u57fa-1-\u82ef\u57fa\u5421\u5511", "en_name": ["1-(5-Methyl-1-phenyl-1H-pyrazol-4-yl)ethanone", "Ethanone, 1-(5-methyl-1-phenyl-1H-pyrazol-4-yl)-", "Ketone, methyl 5-methyl-1-phenylpyrazol-4-yl", "1-(5-Methyl-1-phenyl-1H-pyrazol-4-yl)ethanone", "1-Phenyl-4-acetyl-5-methylpyrazole", "4-Acetyl-5-methyl-1-phenylpyrazole", "NSC 140728", "1-(5-Methyl-1-phenylpyrazol-4-yl)ethanone", "1-(5-Methyl-1-phenyl-1H-pyrazol-4-yl)ethan-1-one"], "SMILES": "CC=1N(N=CC1C(C)=O)C2=CC=CC=C2", "physical_data": {"Molecular Weight": "200.24", "Molecular Formula": "C12H12N2O", "Melting Point": "107-108 \u00b0C"}}