{"cas_no": "61259-48-1", "cn_name": "D-\u8461\u8404\u7cd6\u9178 DELTA-\u5185\u916f 2,3,4,6-\u56db\u4e59\u9178\u916f", "en_name": ["D-Gluconic acid \u03b4-lactone 2,3,4,6-tetraacetate", "D-Gluconic acid, \u03b4-lactone, 2,3,4,6-tetraacetate", "D-Gluconic acid \u03b4-lactone 2,3,4,6-tetraacetate"], "SMILES": "O(C(C)=O)C1C(OC(C)=O)C(COC(C)=O)OC(=O)C1OC(C)=O", "physical_data": {"Molecular Weight": "346.29", "Molecular Formula": "C14H18O10", "Melting Point": "103 \u00b0C"}}