{"cas_no": "6125-24-2", "cn_name": "\u0392-\u785d\u57fa\u82ef\u4e59\u70f7", "en_name": ["1-Nitro-2-phenylethane", "Benzene, (2-nitroethyl)-", "(2-Nitroethyl)benzene", "1-Nitro-2-phenylethane", "1-Phenyl-2-nitroethane", "2-Phenylnitroethane", "\u03b2-Phenylnitroethane", "2-Phenyl-1-nitroethane", "\u03c9-Nitroethylbenzene", "NSC 23854", "1-(2-Nitroethyl)benzene"], "SMILES": "C(CN(=O)=O)C1=CC=CC=C1", "physical_data": {"Molecular Weight": "151.16", "Molecular Formula": "C8H9NO2", "Boiling Point": "250 \u00b0C", "Melting Point": "-23 \u00b0C", "Density": "1.122 g/cm\u00b3 @ Temp: 25 \u00b0C"}}