{"cas_no": "61263-49-8", "cn_name": "\u7261\u8346\u5185\u916f", "en_name": ["Vitexilactone", "2(5H)-Furanone, 4-[2-[(1R,2R,4R,4aS,8aS)-4-(acetyloxy)decahydro-1-hydroxy-2,5,5,8a-tetramethyl-1-naphthalenyl]ethyl]-", "2(5H)-Furanone, 4-[2-[4-(acetyloxy)decahydro-1-hydroxy-2,5,5,8a-tetramethyl-1-naphthalenyl]ethyl]-, [1R-(1\u03b1,2\u03b1,4\u03b2,4a\u03b1,8a\u03b2)]-", "4-[2-[(1R,2R,4R,4aS,8aS)-4-(Acetyloxy)decahydro-1-hydroxy-2,5,5,8a-tetramethyl-1-naphthalenyl]ethyl]-2(5H)-furanone", "Vitexilactone"], "SMILES": "CC12C(C(OC(C)=O)CC(C)C1(CCC=3COC(=O)C3)O)C(C)(C)CCC2", "physical_data": {"Molecular Weight": "378.50", "Molecular Formula": "C22H34O5", "Melting Point": "148-149 \u00b0C"}}