{"cas_no": "6126-22-3", "cn_name": "3-\u6c28\u57fa-5-\u7f9f\u57fa\u5421\u5511", "en_name": ["5-Amino-2,4-dihydro-3H-pyrazol-3-one", "3H-Pyrazol-3-one, 5-amino-2,4-dihydro-", "2-Pyrazolin-5-one, 3-amino-", "3-Pyrazolidinone, 5-imino-", "5-Amino-2,4-dihydro-3H-pyrazol-3-one", "3-Amino-5-pyrazolone", "3-Amino-2-pyrazolin-5-one", "3-Aminopyrazolone", "NSC 30480", "NSC 34806", "NSC 50565", "3-Amino-5-oxo-4,5-dihydropyrazole", "3-Amino-1,4-dihydropyrazol-5-one", "3-Amino-4,5-dihydro-1H-pyrazol-5-one"], "SMILES": "NC=1CC(=O)NN1", "physical_data": {"Molecular Weight": "99.09", "Molecular Formula": "C3H5N3O", "Melting Point": "214-215 \u00b0C (decomp)"}}