{"cas_no": "6127-19-1", "cn_name": "6 - \u6eb4-2 - \u7532\u57fa-1H-\u5432\u54da", "en_name": ["6-Bromo-2-methyl-1H-indole", "1H-Indole, 6-bromo-2-methyl-", "Indole, 6-bromo-2-methyl-", "6-Bromo-2-methyl-1H-indole", "6-Bromo-2-methylindole", "NSC 115145"], "SMILES": "CC1=CC=2C(N1)=CC(Br)=CC2", "physical_data": {"Molecular Weight": "210.07", "Molecular Formula": "C9H8BrN", "Melting Point": "123-124 \u00b0C"}}