{"cas_no": "61276-17-3", "cn_name": "\u6bdb\u854a\u82b1\u7cd6\u82f7", "en_name": ["Verbascoside", "\u03b2-D-Glucopyranoside, 2-(3,4-dihydroxyphenyl)ethyl 3-O-(6-deoxy-\u03b1-L-mannopyranosyl)-, 4-[(2E)-3-(3,4-dihydroxyphenyl)-2-propenoate]", "\u03b2-D-Glucopyranoside, 2-(3,4-dihydroxyphenyl)ethyl 3-O-(6-deoxy-\u03b1-L-mannopyranosyl)-, 4-[3-(3,4-dihydroxyphenyl)-2-propenoate], (E)-", "Verbascoside", "Kusaginin", "Acteoside", "TJC 160", "NSC 603831", "Russetinol", "Stereospermin", "(3,4-Dihydroxyphenyl)ethyl O-\u03b1-rhamnopyranosyl(1\u21923)-4-O-caffeoyl-\u03b2-D glucopyranoside", "O\u2032\u2032\u2032-Desarabinosyllavandulifolioside A", "Distinctive Phytostem Lilac", "Distinctive Active Powder SL Special", "trans-Verbascoside", "trans-Acteoside"], "SMILES": "O(C1C(OC(C=CC2=CC(O)=C(O)C=C2)=O)C(CO)OC(OCCC3=CC(O)=C(O)C=C3)C1O)C4C(O)C(O)C(O)C(C)O4", "physical_data": {"Molecular Weight": "624.59", "Molecular Formula": "C29H36O15", "Melting Point": "142-145 \u00b0C"}}