{"cas_no": "61292-90-8", "cn_name": "4-\u7f9f\u57fa-3-\u7532\u6c27\u57fa-\u82ef\u4e19\u9178\u4e59\u916f", "en_name": ["Ethyl 3-(4-hydroxy-3-methoxyphenyl)propionate", "Benzenepropanoic acid, 4-hydroxy-3-methoxy-, ethyl ester", "Hydrocinnamic acid, 4-hydroxy-3-methoxy-, ethyl ester", "Ethyl dihydroferulate", "Ethyl 3-(4-hydroxy-3-methoxyphenyl)propionate", "Ethyl 3-(4-hydroxy-3-methoxyphenyl)propanoate", "Ethyl 4-hydroxy-3-methoxybenzenepropanoate", "Ethyl \u03b2-(4-hydroxy-3-methoxyphenyl)propionate"], "SMILES": "C(CC(OCC)=O)C1=CC(OC)=C(O)C=C1", "physical_data": {"Molecular Weight": "224.25", "Molecular Formula": "C12H16O4", "Boiling Point": "80-100 \u00b0C @ Press: 0.05 Torr"}}