{"cas_no": "61296-22-8", "cn_name": "2-\u6c28\u57fa-5-\u6eb4-\u567b\u5511\u6c22\u6eb4\u9178\u76d0", "en_name": ["2-Thiazolamine, 5-bromo-, hydrobromide (1:1)", "2-Thiazolamine, 5-bromo-, hydrobromide (1:1)", "2-Thiazolamine, 5-bromo-, monohydrobromide", "2-Amino-5-bromo-1,3-thiazole hydrobromide", "5-Bromo-2-aminothiazole hydrobromide", "2-Amino-5-bromothiazole hydrobromide", "5-Bromo-1,3-thiazol-2-amine hydrobromide", "2-Amino-5-bromothiazole monohydrobromide", "(5-Bromothiazol-2-yl)amine hydrobromide", "5-Bromothiazol-2-amine hydrobromide"], "SMILES": "BrC=1SC(N)=NC1.Br", "physical_data": {"Molecular Weight": "", "Molecular Formula": "C3H3BrN2S.BrH", "Melting Point": "163-164 \u00b0C"}}