{"cas_no": "613-73-0", "cn_name": "1,2-\u82ef\u4e8c\u4e59\u8148", "en_name": ["1,2-Benzenediacetonitrile", "1,2-Benzenediacetonitrile", "o-Benzenediacetonitrile", "o-Bis(cyanomethyl)benzene", "o-Xylylene dicyanide", "1,2-Bis(cyanomethyl)benzene", "(2-(Cyanomethyl)phenyl)acetonitrile", "\u03b1,\u03b1\u2032-Dicyano-o-xylene", "1,2-Phenylenediacetonitrile", "NSC 5170", "o-Phenylenediacetonitrile", "2,2\u2032-(1,2-Phenylene)-diacetonitrile", "2-[2-(Cyanomethyl)phenyl]acetonitrile"], "SMILES": "C(C#N)C1=C(CC#N)C=CC=C1", "physical_data": {"Molecular Weight": "156.18", "Molecular Formula": "C10H8N2", "Boiling Point": "74 \u00b0C @ Press: 0.7 Torr", "Melting Point": "58-59 \u00b0C"}}