{"cas_no": "613-89-8", "cn_name": "2-\u6c28\u57fa\u82ef\u4e59\u916e", "en_name": ["2-Aminoacetophenone", "Ethanone, 2-amino-1-phenyl-", "Acetophenone, 2-amino-", "Acetophenone, \u03b1-amino-", "2-Amino-1-phenylethanone", "Phenacylamine", "\u03c9-Aminoacetophenone", "2-Aminoacetophenone", "\u03b1-Aminoacetophenone", "\u03b1-Demethylcathinone", "2-Oxophenethylamine", "1-Phenyl-2-aminoethanone", "(2-Oxo-2-phenylethyl)amine", "2-Oxo-2-phenylethanamine", "Irgacure 36P", "IHT 389", "2-Amino-1-phenylethan-1-one", "Benzoylethanamine"], "SMILES": "C(CN)(=O)C1=CC=CC=C1", "physical_data": {"Molecular Weight": "135.16", "Molecular Formula": "C8H9NO", "Boiling Point": "251 \u00b0C", "Melting Point": "20 \u00b0C"}}