{"cas_no": "613-92-3", "cn_name": "\u82ef\u7532\u9170\u80fa\u809f", "en_name": ["Benzamidoxime", "Benzenecarboximidamide, N-hydroxy-", "Benzamidoxime", "N-Hydroxybenzenecarboximidamide", "Benzohydroxamamide", "Benzamide oxime", "N-Hydroxybenzamidine", "Phenylhydroxamidine", "N-Hydroxybenzimidamide", "N\u2032-Hydroxybenzenecarboximidamide", "NSC 13999", "N\u2032-Hydroxybenzamidine", "N\u2032-Hydroxybenzimidamide", "N\u2032-Hydroxybenzene-1-carboximidamide"], "SMILES": "C(NO)(=N)C1=CC=CC=C1", "physical_data": {"Molecular Weight": "136.15", "Molecular Formula": "C7H8N2O", "Melting Point": "80 \u00b0C"}}