{"cas_no": "613-06-9", "cn_name": "2,3-\u4e8c\u7532\u57fa\u84bd", "en_name": ["2,3-Dimethylanthracene", "Anthracene, 2,3-dimethyl-", "2,3-Dimethylanthracene"], "SMILES": "CC1=CC2=C(C=C3C(=C2)C=CC=C3)C=C1C", "physical_data": {"Molecular Weight": "206.28", "Molecular Formula": "C16H14", "Melting Point": "252 \u00b0C"}}