{"cas_no": "613-03-6", "cn_name": "1,2,4-\u82ef\u4e09\u915a\u918b\u9178\u916f", "en_name": ["1,2,4-Triacetoxybenzene", "1,2,4-Benzenetriol, 1,2,4-triacetate", "1,2,4-Benzenetriol, triacetate", "2-Hydroxyhydroquinone triacetate", "Hydroxyhydroquinone triacetate", "1,2,4-Triacetoxybenzene", "Pyrogallol A", "1,2,4-Tris(acetoxy)benzene", "NSC 2149", "2,5-Bis(acetyloxy)phenyl acetate", "2,4-Bis(acetyloxy)phenyl acetate", "(3,4-Diacetyloxyphenyl) acetate"], "SMILES": "O(C(C)=O)C1=C(OC(C)=O)C=CC(OC(C)=O)=C1", "physical_data": {"Molecular Weight": "252.22", "Molecular Formula": "C12H12O6", "Boiling Point": "300 \u00b0C", "Melting Point": "99 \u00b0C"}}