{"cas_no": "613-45-6", "cn_name": "2,4-\u4e8c\u7532\u6c27\u57fa\u82ef\u7532\u919b", "en_name": ["2,4-Dimethoxybenzaldehyde", "Benzaldehyde, 2,4-dimethoxy-", "2,4-Dimethoxybenzaldehyde", "NSC 27023"], "SMILES": "O(C)C1=C(C=O)C=CC(OC)=C1", "physical_data": {"Molecular Weight": "166.17", "Molecular Formula": "C9H10O3", "Boiling Point": "290 \u00b0C", "Melting Point": "72 \u00b0C"}}