{"cas_no": "613-76-3", "cn_name": "2,7-\u8418\u4e8c\u80fa", "en_name": ["2,7-Naphthalenediamine", "2,7-Naphthalenediamine", "2,7-Naphthylenediamine", "2,7-Diaminonaphthalene", "NSC 356142"], "SMILES": "NC1=CC2=C(C=CC(N)=C2)C=C1", "physical_data": {"Molecular Weight": "158.20", "Molecular Formula": "C10H10N2", "Melting Point": "158 \u00b0C"}}