{"cas_no": "613-87-6", "cn_name": "S(-)-1-\u82ef\u57fa-1-\u4e19\u9187", "en_name": ["(S)-1-Phenylpropanol", "Benzenemethanol, \u03b1-ethyl-, (\u03b1S)-", "Benzenemethanol, \u03b1-ethyl-, (S)-", "Benzyl alcohol, \u03b1-ethyl-, (S)-(-)-", "(\u03b1S)-\u03b1-Ethylbenzenemethanol", "(-)-\u03b1-Ethylbenzyl alcohol", "(-)-1-Phenylpropyl alcohol", "(S)-1-Phenylpropanol", "(-)-1-Phenylpropan-1-ol", "(S)-1-Phenylpropan-1-ol", "(S)-(-)-1-Phenyl-1-propanol", "(S)-Phenylethylcarbinol", "(S)-\u03b1-Ethylbenzyl alcohol", "(S)-\u03b1-Hydroxypropylbenzene", "(-)-\u03b1-Phenylpropanol", "(S)-\u03b1-Ethylbenzenemethanol", "(-)-1-Phenylpropanol", "(1S)-1-Phenyl-1-propanol", "(1S)-1-Phenylpropan-1-ol"], "SMILES": "C(CC)(O)C1=CC=CC=C1", "physical_data": {"Molecular Weight": "136.19", "Molecular Formula": "C9H12O", "Boiling Point": "61 \u00b0C @ Press: 0.2 Torr"}}