{"cas_no": "613-62-7", "cn_name": "2-\u8418\u915a\u82c4\u57fa\u919a", "en_name": ["Benzyl 2-naphthyl ether", "Naphthalene, 2-(phenylmethoxy)-", "Naphthalene, 2-(benzyloxy)-", "2-(Phenylmethoxy)naphthalene", "2-(Benzyloxy)naphthalene", "Benzyl 2-naphthyl ether", "Benzyl \u03b2-naphthyl ether", "\u03b2-Naphthyl benzyl ether", "\u03b2-Naphthol benzyl ether", "\u03b2-(Benzyloxy)naphthalene", "BON (ether)", "BON", "Pergaspeed 305"], "SMILES": "O(CC1=CC=CC=C1)C2=CC3=C(C=C2)C=CC=C3", "physical_data": {"Molecular Weight": "234.29", "Molecular Formula": "C17H14O", "Melting Point": "111-112 \u00b0C"}}