{"cas_no": "613-14-9", "cn_name": "\u0392-\u84bd\u915a", "en_name": ["2-Hydroxyanthracene", "2-Anthracenol", "2-Anthrol", "2-Hydroxyanthracene", "\u03b2-Hydroxyanthracene", "NSC 229384"], "SMILES": "OC1=CC2=C(C=C3C(=C2)C=CC=C3)C=C1", "physical_data": {"Molecular Weight": "194.23", "Molecular Formula": "C14H10O", "Melting Point": "166 \u00b0C"}}