{"cas_no": "613-50-3", "cn_name": "\u516d\u785d\u57fa\u7678\u5549", "en_name": ["6-Nitroquinoline", "Quinoline, 6-nitro-", "6-Nitroquinoline", "NSC 4141"], "SMILES": "N(=O)(=O)C1=CC2=C(C=C1)N=CC=C2", "physical_data": {"Molecular Weight": "174.16", "Molecular Formula": "C9H6N2O2", "Boiling Point": "170 \u00b0C", "Melting Point": "153.5 \u00b0C"}}