{"cas_no": "613-54-7", "cn_name": "2-\u6eb4\u4ee3-2-\u4e59\u9170\u57fa\u8418", "en_name": ["2-(Bromoacetyl)naphthalene", "Ethanone, 2-bromo-1-(2-naphthalenyl)-", "2\u2032-Acetonaphthone, 2-bromo-", "2-Bromo-1-(2-naphthalenyl)ethanone", "\u03b1-Bromo-2\u2032-acetonaphthone", "\u03b1-Bromo-2-acetonaphthone", "2-Naphthacyl bromide", "Bromomethyl 2-naphthyl ketone", "2-Naphthoylmethyl bromide", "2-(Bromoacetyl)naphthalene", "2-Bromo-2\u2032-acetonaphthone", "\u03b2-Naphthacyl bromide", "\u03c9-Bromo-2-acetonaphthalene", "2-(2-Bromoacetyl)naphthalene", "2-Bromo-1-(2-naphthyl)-1-ethanone", "\u03c9-Bromo-2-acetonaphthone", "2-Bromo-1-(2-naphthyl)ethanone", "NSC 36849", "2-(\u03b1-Bromoacetyl)naphthalene", "2-Bromo-1-(naphthalen-2-yl)ethan-1-one"], "SMILES": "C(CBr)(=O)C1=CC2=C(C=C1)C=CC=C2", "physical_data": {"Molecular Weight": "249.10", "Molecular Formula": "C12H9BrO", "Melting Point": "82.5-83.5 \u00b0C"}}