{"cas_no": "613-31-0", "cn_name": "9,10-\u4e8c\u6c22\u84bd", "en_name": ["9,10-Dihydroanthracene", "Anthracene, 9,10-dihydro-", "9,10-Dihydroanthracene", "Dihydroanthracene", "NSC 30805"], "SMILES": "C1=2C(CC=3C(C1)=CC=CC3)=CC=CC2", "physical_data": {"Molecular Weight": "180.25", "Molecular Formula": "C14H12", "Boiling Point": "305 \u00b0C", "Melting Point": "111 \u00b0C", "Density": "1.212 g/cm\u00b3"}}