{"cas_no": "613-80-9", "cn_name": "2,2'-\u4e8c\u8418\u919a", "en_name": ["2-Naphthyl ether", "Naphthalene, 2,2\u2032-oxybis-", "2-Naphthyl ether", "2,2\u2032-Oxybis[naphthalene]", "Di-\u03b2-naphthyl ether", "2,2\u2032-Dinaphthyl ether", "Di(2-naphthyl) ether", "2-Naphthalen-2-yloxynaphthalene"], "SMILES": "O(C1=CC2=C(C=C1)C=CC=C2)C3=CC4=C(C=C3)C=CC=C4", "physical_data": {"Molecular Weight": "270.32", "Molecular Formula": "C20H14O", "Melting Point": "105 \u00b0C"}}