{"cas_no": "613-29-6", "cn_name": "N,N-\u4e8c\u6b63\u4e01\u57fa\u82ef\u80fa", "en_name": ["N,N-Dibutylbenzenamine", "Benzenamine, N,N-dibutyl-", "Aniline, N,N-dibutyl-", "N,N-Dibutylbenzenamine", "N-Phenyldibutylamine", "N,N-Dibutylaniline", "Dibutylaniline", "1,4-Bis(2-butylamino)benzene"], "SMILES": "N(CCCC)(CCCC)C1=CC=CC=C1", "physical_data": {"Molecular Weight": "205.34", "Molecular Formula": "C14H23N", "Boiling Point": "274.8 \u00b0C", "Melting Point": "-32.2 \u00b0C", "Density": "0.9000 g/cm\u00b3 @ Temp: 25 \u00b0C"}}