{"cas_no": "613-13-8", "cn_name": "2-\u6c28\u57fa\u84bd", "en_name": ["2-Aminoanthracene", "2-Anthracenamine", "2-Anthramine", "2-Aminoanthracene", "2-Anthracylamine", "2-Anthrylamine", "\u03b2-Aminoanthracene", "NSC 400535", "(Anthracen-2-yl)amine"], "SMILES": "NC1=CC2=C(C=C3C(=C2)C=CC=C3)C=C1", "physical_data": {"Molecular Weight": "193.24", "Molecular Formula": "C14H11N", "Melting Point": "238-241 \u00b0C"}}