{"cas_no": "613-33-2", "cn_name": "4,4'-\u4e8c\u7532\u57fa\u8054\u82ef", "en_name": ["Di-p-tolyl", "1,1\u2032-Biphenyl, 4,4\u2032-dimethyl-", "p,p\u2032-Bitolyl", "4,4\u2032-Dimethyl-1,1\u2032-biphenyl", "4,4\u2032-Dimethylbiphenyl", "Di-p-tolyl", "4,4\u2032-Ditolyl", "4,4\u2032-Bitolyl", "4,4\u2032-Dimethyldiphenyl", "Bi-p-tolyl", "p,p\u2032-Bitoluene", "p,p\u2032-Ditolyl", "p,p\u2032-Dimethylbiphenyl", "4,4\u2032-Bitoluene", "NSC 90464", "1-Bb-1", "1-Methyl-4-(4-methylphenyl)benzene"], "SMILES": "CC1=CC=C(C=C1)C2=CC=C(C)C=C2", "physical_data": {"Molecular Weight": "182.26", "Molecular Formula": "C14H14", "Boiling Point": "295 \u00b0C", "Melting Point": "125 \u00b0C"}}