{"cas_no": "613-53-6", "cn_name": "2-(\u4e09\u6eb4\u7532\u57fa)\u55b9\u5549", "en_name": ["2-(Tribromomethyl)quinoline", "Quinoline, 2-(tribromomethyl)-", "2-(Tribromomethyl)quinoline", "Tribromoquinaldine", "2-Tribromomethylquinoline", "\u03b1,\u03b1,\u03b1-Tribromoquinaldine", "NSC 610"], "SMILES": "C(Br)(Br)(Br)C1=NC2=C(C=C1)C=CC=C2", "physical_data": {"Molecular Weight": "379.87", "Molecular Formula": "C10H6Br3N", "Melting Point": "128 \u00b0C"}}