{"cas_no": "613-84-3", "cn_name": "5-\u7532\u57fa\u6c34\u6768\u919b", "en_name": ["5-Methylsalicylaldehyde", "Benzaldehyde, 2-hydroxy-5-methyl-", "2,5-Cresotaldehyde", "2-Hydroxy-5-methylbenzaldehyde", "5-Methylsalicylaldehyde", "5-Methyl-2-hydroxybenzaldehyde", "2-Formyl-4-methylphenol", "NSC 97517"], "SMILES": "C(=O)C1=C(O)C=CC(C)=C1", "physical_data": {"Molecular Weight": "136.15", "Molecular Formula": "C8H8O2", "Boiling Point": "217.5 \u00b0C", "Melting Point": "56 \u00b0C"}}