{"cas_no": "613-91-2", "cn_name": "\u82ef\u4e59\u916e\u809f", "en_name": ["Acetophenonoxime", "Ethanone, 1-phenyl-, oxime", "Acetophenone, oxime", "Acetophenonoxime", "Methyl phenyl ketone oxime", "Methyl phenyl ketoxime", "NSC 3988", "NSC 52223", "NSC 627226", "1-Phenylethanone oxime", "Acetophenone oxime", "1-Phenylethan-1-one oxime"], "SMILES": "C(=NO)(C)C1=CC=CC=C1", "physical_data": {"Molecular Weight": "135.16", "Molecular Formula": "C8H9NO", "Boiling Point": "245 \u00b0C", "Melting Point": "60 \u00b0C"}}