{"cas_no": "613-37-6", "cn_name": "4-\u7532\u6c27\u57fa\u8054\u82ef", "en_name": ["4-Methoxybiphenyl", "1,1\u2032-Biphenyl, 4-methoxy-", "Anisole, p-phenyl-", "4-Methoxy-1,1\u2032-biphenyl", "4-Methoxybiphenyl", "p-Methoxybiphenyl", "p-Phenylanisole", "4-Phenylanisole", "4-(4-Methoxyphenyl)benzene", "NSC 3793", "p-Methoxyphenyl benzene", "1-Phenyl-4-methoxybenzene", "1-Methoxy-4-phenylbenzene", "Piperazine, 1-methoxy-4-phenyl-"], "SMILES": "O(C)C1=CC=C(C=C1)C2=CC=CC=C2", "physical_data": {"Molecular Weight": "184.23", "Molecular Formula": "C13H12O", "Boiling Point": "157 \u00b0C @ Press: 10 Torr", "Melting Point": "90 \u00b0C", "Density": "1.0278 g/cm\u00b3 @ Temp: 100 \u00b0C"}}