{"cas_no": "613-51-4", "cn_name": "7-\u785d\u57fa\u55b9\u5549", "en_name": ["7-Nitroquinoline", "Quinoline, 7-nitro-", "7-Nitroquinoline", "NSC 137449", "7-(Hydroxyl[oxido]amino)quinoline"], "SMILES": "N(=O)(=O)C1=CC2=C(C=C1)C=CC=N2", "physical_data": {"Molecular Weight": "174.16", "Molecular Formula": "C9H6N2O2", "Melting Point": "132.5 \u00b0C"}}