{"cas_no": "613-42-3", "cn_name": "4-\u82c4\u57fa\u8054\u82ef", "en_name": ["p-Benzylbiphenyl", "1,1\u2032-Biphenyl, 4-(phenylmethyl)-", "Biphenyl, 4-benzyl-", "4-(Phenylmethyl)-1,1\u2032-biphenyl", "4-Benzylbiphenyl", "p-Benzylbiphenyl", "4-Benzyl-1,1\u2032-biphenyl", "p-Biphenylylphenylmethane", "PBBP", "NSC 59812", "4-Phenyldiphenylmethane", "1-Benzyl-4-phenylbenzene"], "SMILES": "C(C1=CC=C(C=C1)C2=CC=CC=C2)C3=CC=CC=C3", "physical_data": {"Molecular Weight": "244.33", "Molecular Formula": "C19H16", "Melting Point": "85 \u00b0C"}}