{"cas_no": "613-12-7", "cn_name": "2-\u7532\u57fa\u84bd", "en_name": ["2-Methylanthracene", "Anthracene, 2-methyl-", "2-Methylanthracene", "NSC 87376"], "SMILES": "CC1=CC2=C(C=C3C(=C2)C=CC=C3)C=C1", "physical_data": {"Molecular Weight": "192.26", "Molecular Formula": "C15H12", "Boiling Point": "344.4 \u00b0C", "Melting Point": "209 \u00b0C"}}