{"cas_no": "613-30-9", "cn_name": "2-\u7532\u57fa-6-\u785d\u57fa\u55b9\u5549", "en_name": ["2-Methyl-6-nitroquinoline", "Quinoline, 2-methyl-6-nitro-", "Quinaldine, 6-nitro-", "2-Methyl-6-nitroquinoline", "6-Nitroquinaldine"], "SMILES": "N(=O)(=O)C1=CC2=C(N=C(C)C=C2)C=C1", "physical_data": {"Molecular Weight": "188.18", "Molecular Formula": "C10H8N2O2", "Melting Point": "164 \u00b0C"}}