{"cas_no": "613-97-8", "cn_name": "\u7532\u57fa\u4e59\u57fa\u82c4\u57fa\u539f\u9187", "en_name": ["N-Ethyl-N-methylaniline", "Benzenamine, N-ethyl-N-methyl-", "Aniline, N-ethyl-N-methyl-", "N-Ethyl-N-methylbenzenamine", "N-Ethyl-N-methylaniline", "N-Methyl-N-ethylaniline", "Ethylmethylaniline", "NSC 3832"], "SMILES": "N(CC)(C)C1=CC=CC=C1", "physical_data": {"Molecular Weight": "135.21", "Molecular Formula": "C9H13N", "Boiling Point": "204 \u00b0C"}}