{"cas_no": "613-48-9", "cn_name": "\u4e8c\u4e59\u57fa\u7532\u82ef", "en_name": ["N,N-Diethyl-p-toluidine", "Benzenamine, N,N-diethyl-4-methyl-", "p-Toluidine, N,N-diethyl-", "N,N-Diethyl-4-methylbenzenamine", "N,N-Diethyl-4-methylaniline", "N,N-Diethyl-p-toluidine", "p-Methyl-N,N-diethylaniline", "4-(Diethylamino)toluene", "4-Methyl-N,N-diethylaniline", "N,N-Diethyl-p-methylaniline", "NSC 8709"], "SMILES": "N(CC)(CC)C1=CC=C(C)C=C1", "physical_data": {"Molecular Weight": "163.26", "Molecular Formula": "C11H17N", "Boiling Point": "229 \u00b0C"}}