{"cas_no": "613-94-5", "cn_name": "\u82ef\u7532\u9170\u80bc", "en_name": ["Benzoylhydrazine", "Benzoic acid, hydrazide", "Benzhydrazide", "Hydrazine, benzoyl-", "Benzoylhydrazine", "Benzoic hydrazide", "Benzohydrazide", "NSC 644", "Benzenecarboxylic acid hydrazide", "N-Benzoylhydrazine", "INHd 14"], "SMILES": "C(NN)(=O)C1=CC=CC=C1", "physical_data": {"Molecular Weight": "136.15", "Molecular Formula": "C7H8N2O", "Melting Point": "115 \u00b0C"}}