{"cas_no": "613-90-1", "cn_name": "\u82ef\u7532\u9170\u8148", "en_name": ["Benzoyl cyanide", "Benzeneacetonitrile, \u03b1-oxo-", "Glyoxylonitrile, phenyl-", "\u03b1-Oxobenzeneacetonitrile", "Benzoyl cyanide", "Benzoyl nitrile", "Phenylglyoxylonitrile", "Phenylglyoxalic acid nitrile", "Phenyl glyoxonitrile", "NSC 120506", "NSC 401920", "2-(Oxo)-2-(phenyl)acetonitrile"], "SMILES": "C(C#N)(=O)C1=CC=CC=C1", "physical_data": {"Molecular Weight": "131.13", "Molecular Formula": "C8H5NO", "Boiling Point": "206 \u00b0C", "Melting Point": "32.5 \u00b0C"}}