{"cas_no": "613-08-1", "cn_name": "2-\u84bd\u7532\u9178", "en_name": ["2-Anthracenecarboxylic acid", "2-Anthracenecarboxylic acid", "2-Anthroic acid", "NSC 406583"], "SMILES": "C(O)(=O)C1=CC2=C(C=C3C(=C2)C=CC=C3)C=C1", "physical_data": {"Molecular Weight": "222.24", "Molecular Formula": "C15H10O2", "Melting Point": "270-280 \u00b0C"}}