{"cas_no": "613-70-7", "cn_name": "\u4e59\u9178-2-\u7532\u6c27\u57fa\u82ef\u916f", "en_name": ["Phenol, 2-methoxy-, 1-acetate", "Phenol, 2-methoxy-, 1-acetate", "Phenol, o-methoxy-, acetate", "Guaiacol acetate", "Phenol, 2-methoxy-, acetate", "Guaiacyl acetate", "1-Acetoxy-2-methoxybenzene", "o-Methoxyphenyl acetate", "o-Acetoxyanisole", "Eucol", "2-Methoxyphenyl acetate", "o-Anisyl acetate", "O-Acetyl-2-methoxyphenol", "2-Acetoxyanisole", "O-Acetylguaiacol", "NSC 3831"], "SMILES": "O(C(C)=O)C1=C(OC)C=CC=C1", "physical_data": {"Molecular Weight": "166.17", "Molecular Formula": "C9H10O3", "Boiling Point": "175 \u00b0C @ Press: 120 Torr", "Melting Point": "31.5 \u00b0C", "Density": "1.138 g/cm\u00b3"}}