{"cas_no": "613-35-4", "cn_name": "N,N'-\u918b\u9178\u8054\u82ef\u80fa", "en_name": ["N,N\u2032-Diacetylbenzidine", "Acetamide, N,N\u2032-[1,1\u2032-biphenyl]-4,4\u2032-diylbis-", "4\u2032,4\u2032\u2032\u2032-Biacetanilide", "N,N\u2032-[1,1\u2032-Biphenyl]-4,4\u2032-diylbis[acetamide]", "4,4\u2032-Diacetamidobiphenyl", "N,N\u2032-Diacetylbenzidine", "4,4\u2032-Diacetylbenzidine", "Diacetylbenzidine", "4,4\u2032-Diacetylaminobiphenyl", "N,N\u2032-Diacetyl-4,4\u2032-benzidine", "NSC 12409", "NSC 4717", "4,4\u2032-Diacetylamino-1,1\u2032-biphenyl"], "SMILES": "N(C(C)=O)C1=CC=C(C=C1)C2=CC=C(NC(C)=O)C=C2", "physical_data": {"Molecular Weight": "268.31", "Molecular Formula": "C16H16N2O2", "Melting Point": "328.30 \u00b0C"}}