{"cas_no": "613-69-4", "cn_name": "2-\u4e59\u6c27\u57fa\u82ef\u7532\u919b", "en_name": ["2-Ethoxybenzaldehyde", "Benzaldehyde, 2-ethoxy-", "Benzaldehyde, o-ethoxy-", "2-Ethoxybenzaldehyde", "o-Ethoxybenzaldehyde", "NSC 1783"], "SMILES": "O(CC)C1=C(C=O)C=CC=C1", "physical_data": {"Molecular Weight": "150.17", "Molecular Formula": "C9H10O2", "Boiling Point": "248 \u00b0C", "Melting Point": "21 \u00b0C"}}