{"cas_no": "613-46-7", "cn_name": "2-\u8418\u7532\u8148", "en_name": ["2-Naphthalenecarbonitrile", "2-Naphthalenecarbonitrile", "2-Naphthonitrile", "\u03b2-Naphthonitrile", "2-Cyanonaphthalene", "\u03b2-Cyanonaphthalene", "2-Naphthalenenitrile", "NSC 4169"], "SMILES": "C(#N)C1=CC2=C(C=C1)C=CC=C2", "physical_data": {"Molecular Weight": "153.18", "Molecular Formula": "C11H7N", "Boiling Point": "306.5 \u00b0C", "Melting Point": "66 \u00b0C"}}