{"cas_no": "613-93-4", "cn_name": "N-\u7532\u57fa\u82ef\u7532\u9170\u80fa", "en_name": ["N-Methylbenzamide", "Benzamide, N-methyl-", "N-Methylbenzamide", "N-Methylbenzenecarboxamide", "NSC 42944"], "SMILES": "C(NC)(=O)C1=CC=CC=C1", "physical_data": {"Molecular Weight": "135.16", "Molecular Formula": "C8H9NO", "Boiling Point": "291 \u00b0C", "Melting Point": "82 \u00b0C"}}