{"cas_no": "61301-33-5", "cn_name": "\u4e94\u5473\u5b50\u4e19\u7d20", "en_name": ["Schisandrin C", "Cycloocta[1,2-f:3,4-f\u2032]bis[1,3]benzodioxole, 5,6,7,8-tetrahydro-13,14-dimethoxy-6,7-dimethyl-, (6R,7S,13aS)-", "Cycloocta[1,2-f:3,4-f\u2032]bis[1,3]benzodioxole, 5,6,7,8-tetrahydro-13,14-dimethoxy-6,7-dimethyl-, stereoisomer", "(6R,7S,13aS)-5,6,7,8-Tetrahydro-13,14-dimethoxy-6,7-dimethylcycloocta[1,2-f:3,4-f\u2032]bis[1,3]benzodioxole", "Wuweizisu C", "Schizandrin C", "Schisandrin C", "(-)-Wuweizisu C", "(S)-(-)-Schisandrin C", "(-)-Schisandrin C"], "SMILES": "O(C)C1=C2C3=C(OC)C4=C(C=C3CC(C)C(C)CC2=CC5=C1OCO5)OCO4", "physical_data": {"Molecular Weight": "384.42", "Molecular Formula": "C22H24O6", "Melting Point": "122-123 \u00b0C"}}