{"cas_no": "61301-56-2", "cn_name": "(E)-11-\u5341\u516d\u78b3\u70ef-1-\u9187", "en_name": ["(E)-11-Hexadecen-1-ol", "11-Hexadecen-1-ol, (11E)-", "11-Hexadecen-1-ol, (E)-", "(11E)-11-Hexadecen-1-ol", "(E)-11-Hexadecenol", "trans-11-Hexadecen-1-ol", "(E)-11-Hexadecen-1-ol"], "SMILES": "C(CCC=CCCCC)CCCCCCCO", "physical_data": {"Molecular Weight": "240.42", "Molecular Formula": "C16H32O", "Boiling Point": "134-138 \u00b0C @ Press: 0.2 Torr"}}