{"cas_no": "61303-13-7", "cn_name": "\u5f02\u9ea6\u89d2\u753e\u82f7", "en_name": ["Isoacteoside", "\u03b2-D-Glucopyranoside, 2-(3,4-dihydroxyphenyl)ethyl 3-O-(6-deoxy-\u03b1-L-mannopyranosyl)-, 6-[(2E)-3-(3,4-dihydroxyphenyl)-2-propenoate]", "\u03b2-D-Glucopyranoside, 2-(3,4-dihydroxyphenyl)ethyl 3-O-(6-deoxy-\u03b1-L-mannopyranosyl)-, 6-[3-(3,4-dihydroxyphenyl)-2-propenoate], (E)-", "Isoverbascoside", "Isoacteoside", "Isoacteoside A"], "SMILES": "O(C1C(O)C(COC(C=CC2=CC(O)=C(O)C=C2)=O)OC(OCCC3=CC(O)=C(O)C=C3)C1O)C4C(O)C(O)C(O)C(C)O4", "physical_data": {"Molecular Weight": "624.59", "Molecular Formula": "C29H36O15", "Melting Point": "134-135 \u00b0C"}}