{"cas_no": "6131-90-4", "cn_name": "\u4e09\u6c34\u5408\u918b\u9178\u94a0", "en_name": ["Sodium acetate trihydrate", "Acetic acid, sodium salt, hydrate (1:1:3)", "Acetic acid, sodium salt, trihydrate", "Sodium acetate trihydrate"], "SMILES": "C(C)(O)=O.[Na].O", "physical_data": {"Molecular Weight": "", "Molecular Formula": "C2H4O2.3H2O.Na", "Melting Point": "57.9 \u00b0C", "Density": "1.45 g/cm\u00b3"}}