{"cas_no": "61312-84-3", "cn_name": "\u4e59\u9170\u4e59\u9178\u5bf9\u785d\u57fa\u82c4\u916f", "en_name": ["Butanoic acid, 3-oxo-, (4-nitrophenyl)methyl ester", "Butanoic acid, 3-oxo-, (4-nitrophenyl)methyl ester", "Acetoacetic acid, p-nitrobenzyl ester", "p-Nitrobenzyl 3-oxobutanoate", "4-Nitrobenzyl acetoacetate", "p-Nitrobenzyl acetoacetate", "4-Nitrobenzyl acetylacetate", "(4-Nitrophenyl)methyl 3-oxobutanoate"], "SMILES": "C(OC(CC(C)=O)=O)C1=CC=C(N(=O)=O)C=C1", "physical_data": {"Molecular Weight": "237.21", "Molecular Formula": "C11H11NO5", "Melting Point": "47-49 \u00b0C"}}