{"cas_no": "61310-53-0", "cn_name": "3-\u4e59\u6c27\u57fa\u4e19\u70ef\u8148", "en_name": ["3-Ethoxy-2-propenenitrile", "2-Propenenitrile, 3-ethoxy-", "Acrylonitrile, 3-ethoxy-", "3-Ethoxy-2-propenenitrile", "3-Ethoxyacrylonitrile", "\u03b2-Ethoxyacrylonitrile", "NSC 27790"], "SMILES": "C(=CC#N)OCC", "physical_data": {"Molecular Weight": "97.12", "Molecular Formula": "C5H7NO", "Boiling Point": "71-72 \u00b0C @ Press: 8 Torr", "Density": "0.925 g/cm\u00b3 @ Temp: 25 \u00b0C"}}