{"cas_no": "61318-91-0", "cn_name": "\u785d\u9178\u786b\u5eb7\u5511", "en_name": ["Sulconazole nitrate", "1H-Imidazole, 1-[2-[[(4-chlorophenyl)methyl]thio]-2-(2,4-dichlorophenyl)ethyl]-, nitrate (1:1)", "1H-Imidazole, 1-[2-[[(4-chlorophenyl)methyl]thio]-2-(2,4-dichlorophenyl)ethyl]-, (\u00b1)-, mononitrate", "1H-Imidazole, 1-[2-[[(4-chlorophenyl)methyl]thio]-2-(2,4-dichlorophenyl)ethyl]-, mononitrate", "Sulconazole nitrate", "Exelderm", "Myk", "RS 44872", "Sulcosyn", "RS 44872-00-10-3", "Sulfaconazole"], "SMILES": "N(=O)(=O)O.C(CN1C=CN=C1)(SCC2=CC=C(Cl)C=C2)C3=C(Cl)C=C(Cl)C=C3", "physical_data": {"Molecular Weight": "", "Molecular Formula": "C18H15Cl3N2S.HNO3", "Melting Point": "130.5-132 \u00b0C"}}