{"cas_no": "61323-24-8", "cn_name": "2-\u5f02\u4e01\u57fa-4-\u7532\u57fa\u567b\u5511", "en_name": ["4-Methyl-2-(2-methylpropyl)thiazole", "Thiazole, 4-methyl-2-(2-methylpropyl)-", "4-Methyl-2-(2-methylpropyl)thiazole", "2-Isobutyl-4-methylthiazole"], "SMILES": "C(C(C)C)C1=NC(C)=CS1", "physical_data": {"Molecular Weight": "155.26", "Molecular Formula": "C8H13NS", "Boiling Point": "189 \u00b0C"}}