{"cas_no": "6132-02-1", "cn_name": "\u78b3\u9178\u94a0\u5341\u6c34\u5408\u7269", "en_name": ["Sodium carbonate decahydrate", "Carbonic acid sodium salt (1:2), hydrate (1:10)", "Carbonic acid disodium salt, decahydrate", "Nevite", "Disodium carbonate decahydrate", "Sodium carbonate decahydrate (Na2CO3.10H2O)", "Sodium carbonate (Na2CO3) decahydrate", "Sodium carbonate decahydrate"], "SMILES": "C(=O)(O)O.[Na].O", "physical_data": {"Molecular Weight": "", "Molecular Formula": "CH2O3.10H2O.2Na", "Melting Point": "30 \u00b0C"}}