{"cas_no": "6132-04-3", "cn_name": "\u4e8c\u6c34\u5408\u67e0\u6aac\u9178\u94a0", "en_name": ["Sodium citrate dihydrate", "1,2,3-Propanetricarboxylic acid, 2-hydroxy-, sodium salt, hydrate (1:3:2)", "Citric acid, trisodium salt, dihydrate", "1,2,3-Propanetricarboxylic acid, 2-hydroxy-, trisodium salt, dihydrate", "Sodium citrate dihydrate", "Trisodium citrate dihydrate", "N 1560"], "SMILES": "C(CC(O)=O)(CC(O)=O)(C(O)=O)O.[Na].O", "physical_data": {"Molecular Weight": "", "Molecular Formula": "C6H8O7.2H2O.3Na", "Melting Point": "150 \u00b0C (decomp)"}}