{"cas_no": "61338-13-4", "cn_name": "\u7c73\u6c2e\u5e73\u9178", "en_name": ["1-(3-Carboxy-2-pyridyl)-4-methyl-2-phenylpiperazine", "3-Pyridinecarboxylic acid, 2-(4-methyl-2-phenyl-1-piperazinyl)-", "2-(4-Methyl-2-phenyl-1-piperazinyl)-3-pyridinecarboxylic acid", "1-(3-Carboxy-2-pyridyl)-4-methyl-2-phenylpiperazine", "1-(3-Carboxypyrid-2-yl)-2-phenyl-4-methyl-piperazine", "2-(4-Methyl-2-phenylpiperazin-1-yl)nicotinic acid"], "SMILES": "C(O)(=O)C1=C(N2C(CN(C)CC2)C3=CC=CC=C3)N=CC=C1", "physical_data": {"Molecular Weight": "297.35", "Molecular Formula": "C17H19N3O2", "Melting Point": "160-161 \u00b0C"}}