{"cas_no": "61337-89-1", "cn_name": "2-(4-\u7532\u57fa-2-\u82ef\u57fa-1-\u54cc\u55ea\u57fa)-3-\u5421\u5576\u7532\u9187", "en_name": ["1-(3-Hydroxymethyl-2-pyridyl)-4-methyl-2-phenylpiperazine", "3-Pyridinemethanol, 2-(4-methyl-2-phenyl-1-piperazinyl)-", "2-(4-Methyl-2-phenyl-1-piperazinyl)-3-pyridinemethanol", "1-(3-Hydroxymethyl-2-pyridyl)-4-methyl-2-phenylpiperazine", "1-[3-(Hydroxymethyl)pyridin-2-yl)-4-methyl-2-phenylpiperazine", "2-(4-Methyl-2-phenylpiperazin-1-yl)pyridine-3-methanol"], "SMILES": "C(O)C1=C(N2C(CN(C)CC2)C3=CC=CC=C3)N=CC=C1", "physical_data": {"Molecular Weight": "283.37", "Molecular Formula": "C17H21N3O", "Melting Point": "124-125 \u00b0C"}}