{"cas_no": "61337-67-5", "cn_name": "\u7c73\u6c2e\u5e73", "en_name": ["Mirtazapine", "Pyrazino[2,1-a]pyrido[2,3-c][2]benzazepine, 1,2,3,4,10,14b-hexahydro-2-methyl-", "Pyrazino[2,1-a]pyrido[2,3-c][2]benzazepine, 1,2,3,4,10,14b-hexahydro-2-methyl-, (\u00b1)-", "1,2,3,4,10,14b-Hexahydro-2-methylpyrazino[2,1-a]pyrido[2,3-c][2]benzazepine", "6-Azamianserin", "Org 3770", "Mepirzepine", "Mirtazapine", "Remergil", "Remergon", "Remeron", "Rexer", "Zispin", "Mepirzapin", "Promyrtil", "Mirtazipine", "Mirtazepine", "Avanza", "Mirtabene", "Norset", "Mirtaz 15", "Remeron SolTab", "Reflex", "Zestat", "Mirataz"], "SMILES": "CN1CC2N(C=3C(CC=4C2=CC=CC4)=CC=CN3)CC1", "physical_data": {"Molecular Weight": "265.35", "Molecular Formula": "C17H19N3", "Melting Point": "114-116 \u00b0C"}}