{"cas_no": "61346-19-8", "cn_name": "5-\u785d\u57fa-1,2-\u4e8c\u6c22-3H-\u5432\u5511-3-\u916e", "en_name": ["1,2-Dihydro-5-nitro-3H-indazol-3-one", "3H-Indazol-3-one, 1,2-dihydro-5-nitro-", "3-Indazolinone, 5-nitro-", "1,2-Dihydro-5-nitro-3H-indazol-3-one", "5-Nitro-1H-indazol-3-ol", "3-Hydroxy-5-nitro-1H-indazole", "5-Nitro-1,2-dihydroindazol-3-one", "5-Nitro-3-indazol-ol", "1,2-Dihydro-5-nitroindazol-3-one"], "SMILES": "O=C1C=2C(=CC=C(N(=O)=O)C2)NN1", "physical_data": {"Molecular Weight": "179.13", "Molecular Formula": "C7H5N3O3", "Melting Point": "273 \u00b0C (decomp)"}}