{"cas_no": "6134-56-1", "cn_name": "6-\u6eb4-1,2,3,4-\u56db\u6c22\u8418", "en_name": ["6-Bromo-1,2,3,4-tetrahydronaphthalene", "Naphthalene, 6-bromo-1,2,3,4-tetrahydro-", "6-Bromo-1,2,3,4-tetrahydronaphthalene", "6-Bromotetralin", "NSC 174090", "2-Bromo-5,6,7,8-tetrahydronaphthalene"], "SMILES": "BrC=1C=C2C(=CC1)CCCC2", "physical_data": {"Molecular Weight": "211.10", "Molecular Formula": "C10H11Br", "Boiling Point": "241 \u00b0C @ Press: 760 Torr"}}