{"cas_no": "6134-66-3", "cn_name": "2,2-\u4e8c\u6c2f-3-\u6c27\u4ee3\u4e01\u9178\u4e59\u916f", "en_name": ["Butanoic acid, 2,2-dichloro-3-oxo-, ethyl ester", "Butanoic acid, 2,2-dichloro-3-oxo-, ethyl ester", "Acetoacetic acid, 2,2-dichloro-, ethyl ester", "Ethyl \u03b1,\u03b1-dichloroacetoacetate", "Ethyl 2,2-dichloroacetoacetate", "2,2-Dichloro-3-oxobutanoic acid ethyl ester", "Ethyl 2,2-dichloro-3-oxobutanoate"], "SMILES": "C(C(OCC)=O)(C(C)=O)(Cl)Cl", "physical_data": {"Molecular Weight": "199.03", "Molecular Formula": "C6H8Cl2O3", "Boiling Point": "206 \u00b0C", "Density": "1.2853 g/cm\u00b3 @ Temp: 20 \u00b0C"}}