{"cas_no": "61350-65-0", "cn_name": "\u963f\u4f10\u90a3\u975e\u6742\u8d2842", "en_name": ["(2R)-2-Pyrrolidineacetic acid", "2-Pyrrolidineacetic acid, (2R)-", "2-Pyrrolidineacetic acid, (R)-", "(2R)-2-Pyrrolidineacetic acid", "(R)-2-Pyrrolidineacetic acid", "(r)-2-(Pyrrolidin-2-yl)acetic acid", "2-[(2R)-Pyrrolidin-2-yl]acetic acid"], "SMILES": "C(C(O)=O)C1CCCN1", "physical_data": {"Molecular Weight": "129.16", "Molecular Formula": "C6H11NO2", "Melting Point": "181-183 \u00b0C"}}