{"cas_no": "6136-93-2", "cn_name": "\u4e8c\u4e59\u6c27\u57fa\u4e59\u8148", "en_name": ["Diethoxyacetonitrile", "Acetonitrile, 2,2-diethoxy-", "Formaldehyde, cyano-, diethyl acetal", "Acetonitrile, diethoxy-", "2,2-Diethoxyacetonitrile", "Diethoxyacetonitrile"], "SMILES": "C(OCC)(OCC)C#N", "physical_data": {"Molecular Weight": "129.16", "Molecular Formula": "C6H11NO2", "Boiling Point": "167.7 \u00b0C @ Press: 773 Torr", "Density": "0.9288 g/cm\u00b3 @ Temp: 25 \u00b0C"}}