{"cas_no": "6136-68-1", "cn_name": "3-\u4e59\u9170\u82ef\u8148", "en_name": ["3-Acetylbenzonitrile", "Benzonitrile, 3-acetyl-", "Benzonitrile, m-acetyl-", "3-Acetylbenzonitrile", "3\u2032-Cyanoacetophenone", "m-Cyanoacetophenone", "m-Acetylbenzonitrile", "NSC 210360", "1-(3-Cyanophenyl)ethanone"], "SMILES": "C(C)(=O)C1=CC(C#N)=CC=C1", "physical_data": {"Molecular Weight": "145.16", "Molecular Formula": "C9H7NO", "Melting Point": "98-100 \u00b0C"}}