{"cas_no": "613677-28-4", "cn_name": "613677-28-4", "en_name": ["Benzamide, 2,4,6-trifluoro-N-[6-[(1-methyl-4-piperidinyl)carbonyl]-2-pyridinyl]-, hydrochloride (1:1)", "Benzamide, 2,4,6-trifluoro-N-[6-[(1-methyl-4-piperidinyl)carbonyl]-2-pyridinyl]-, hydrochloride (1:1)", "Benzamide, 2,4,6-trifluoro-N-[6-[(1-methyl-4-piperidinyl)carbonyl]-2-pyridinyl]-, monohydrochloride"], "SMILES": "C(=O)(C=1N=C(NC(=O)C2=C(F)C=C(F)C=C2F)C=CC1)C3CCN(C)CC3.Cl", "physical_data": {"Molecular Weight": "", "Molecular Formula": "C19H18F3N3O2.ClH", "Melting Point": "223-224 \u00b0C"}}