{"cas_no": "6136-37-4", "cn_name": "3,7-\u4e8c\u6c22-1-\u7532\u57fa-1H-\u560c\u5464-2,6-\u4e8c\u916e", "en_name": ["1-Methylxanthine", "1H-Purine-2,6-dione, 3,9-dihydro-1-methyl-", "Xanthine, 1-methyl-", "1H-Purine-2,6-dione, 3,7-dihydro-1-methyl-", "3,9-Dihydro-1-methyl-1H-purine-2,6-dione", "1-Methylxanthine", "1-Methyl-3,7-dihydro-purine-2,6-dione", "1-Methyl-2,3,6,9-tetrahydro-1H-purine-2,6-dione", "2-Hydroxy-1-methyl-6,9-dihydro-1H-purin-6-one"], "SMILES": "O=C1C2=C(NC(=O)N1C)N=CN2", "physical_data": {"Molecular Weight": "166.14", "Molecular Formula": "C6H6N4O2", "Melting Point": "335 \u00b0C (decomp)"}}