{"cas_no": "6137-03-7", "cn_name": "3-\u4e59\u57fa-2-\u620a\u916e", "en_name": ["3-Ethyl-2-pentanone", "2-Pentanone, 3-ethyl-", "3-Ethyl-2-pentanone", "3-Acetylpentane"], "SMILES": "C(C(C)=O)(CC)CC", "physical_data": {"Molecular Weight": "114.19", "Molecular Formula": "C7H14O", "Boiling Point": "136-137 \u00b0C @ Press: 760 Torr", "Density": "0.823 g/cm\u00b3 @ Temp: 15 \u00b0C"}}