{"cas_no": "6137-26-4", "cn_name": "4-\u5341\u4e8c\u916e", "en_name": ["4-Dodecanone", "4-Dodecanone", "Octyl propyl ketone", "Propyl octyl ketone", "NSC 158519"], "SMILES": "C(CCCCCCCC)(CCC)=O", "physical_data": {"Molecular Weight": "184.32", "Molecular Formula": "C12H24O", "Boiling Point": "65 \u00b0C @ Press: 0.25 Torr", "Density": "0.8420 g/cm\u00b3 @ Temp: 20 \u00b0C"}}