{"cas_no": "61379-64-4", "cn_name": "1-\u6c28\u57fa-4-\u73af\u620a\u57fa\u54cc\u55ea", "en_name": ["4-Cyclopentyl-1-piperazinamine", "1-Piperazinamine, 4-cyclopentyl-", "4-Cyclopentyl-1-piperazinamine", "1-Amino-4-cyclopentylpiperazine"], "SMILES": "NN1CCN(CC1)C2CCCC2", "physical_data": {"Molecular Weight": "169.27", "Molecular Formula": "C9H19N3", "Melting Point": "52-54 \u00b0C"}}