{"cas_no": "61379-65-5", "cn_name": "\u5229\u798f\u55b7\u4e01", "en_name": ["Rifapentine", "Rifamycin, 3-[[(4-cyclopentyl-1-piperazinyl)imino]methyl]-", "2,7-(Epoxypentadeca[1,11,13]trienimino)naphtho[2,1-b]furan, rifamycin deriv.", "3-[[(4-Cyclopentyl-1-piperazinyl)imino]methyl]rifamycin", "Rifamycin AF/ACPP", "DL 473", "Antibiotic DL 473IT", "Rifapentine", "MDL 473", "Cyclopentylrifampicin", "R 77-3", "KTC 1", "Priftin", "Rifapentin", "Prifitin"], "SMILES": "OC1=C2C3=C4OC(C)(C3=O)OC=CC(OC)C(C)C(OC(C)=O)C(C)C(O)C(C)C(O)C(C)C=CC=C(C)C(=O)NC(C(O)=C2C(O)=C4C)=C1C=NN5CCN(CC5)C6CCCC6", "physical_data": {"Molecular Weight": "877.03", "Molecular Formula": "C47H64N4O12", "Melting Point": "179-180 \u00b0C"}}