{"cas_no": "6138-41-6", "cn_name": "\u76d0\u9178\u80e1\u82a6\u5df4\u78b1", "en_name": ["Trigonelline hydrochloride", "Pyridinium, 3-carboxy-1-methyl-, chloride (1:1)", "Pyridinium, 3-carboxy-1-methyl-, chloride", "3-Carboxy-1-methylpyridinium chloride", "Trigonelline, chloride", "Trigonelline hydrochloride", "N-Methyl-3-carboxypyridinium chloride"], "SMILES": "C(O)(=O)C1=C[N+](C)=CC=C1.[Cl-]", "physical_data": {"Molecular Weight": "", "Molecular Formula": "C7H8NO2.Cl", "Melting Point": "243-244.5 \u00b0C (decomp)"}}