{"cas_no": "6138-90-5", "cn_name": "\u9999\u53f6\u57fa\u6eb4", "en_name": ["Geranyl bromide", "2,6-Octadiene, 1-bromo-3,7-dimethyl-, (2E)-", "2,6-Octadiene, 1-bromo-3,7-dimethyl-, (E)-", "(2E)-1-Bromo-3,7-dimethyl-2,6-octadiene", "Geranyl bromide", "trans-Geranyl bromide", "(2E)-Geranyl bromide", "(E)-1-Bromo-3,7-dimethyl-2,6-octadiene", "(2E)-1-Bromo-3,7-dimethylocta-2,6-diene", "(E)-1-Bromo-3,7-dimethylocta-2,6-diene"], "SMILES": "C(CCC=C(C)C)(=CCBr)C", "physical_data": {"Molecular Weight": "217.15", "Molecular Formula": "C10H17Br", "Boiling Point": "45-46 \u00b0C @ Press: 0.05 Torr"}}