{"cas_no": "6138-23-4", "cn_name": "D(+)-\u6d77\u85fb\u7cd6\u4e8c\u6c34\u5408\u7269", "en_name": ["Trehalose, dihydrate", "\u03b1-D-Glucopyranoside, \u03b1-D-glucopyranosyl, hydrate (1:2)", "Trehalose, dihydrate", "\u03b1-D-Glucopyranoside, \u03b1-D-glucopyranosyl, dihydrate", "\u03b1-D-Glucopyranosyl \u03b1-D-glucopyranoside dihydrate", "\u03b1,\u03b1-Trehalose dihydrate", "D-(+)-Trehalose dihydrate", "D-Trehalose dihydrate"], "SMILES": "O(C1OC(CO)C(O)C(O)C1O)C2OC(CO)C(O)C(O)C2O.O", "physical_data": {"Molecular Weight": "", "Molecular Formula": "C12H22O11.2H2O", "Boiling Point": "115.3 \u00b0C"}}