{"cas_no": "61381-04-2", "cn_name": "3,4-\u4e8c\u4e59\u6c27\u57fa\u82ef\u4e59\u80fa", "en_name": ["3,4-Diethoxybenzeneethanamine", "Benzeneethanamine, 3,4-diethoxy-", "Phenethylamine, 3,4-diethoxy-", "3,4-Diethoxybenzeneethanamine", "2-(3,4-Diethoxyphenyl)ethylamine", "3,4-Diethoxyphenethylamine", "2-(3,4-Diethoxyphenyl)ethanamine", "2-(3,4-Diethoxyphenyl)ethan-1-amine"], "SMILES": "O(CC)C1=C(OCC)C=CC(CCN)=C1", "physical_data": {"Molecular Weight": "209.28", "Molecular Formula": "C12H19NO2", "Boiling Point": "162 \u00b0C @ Press: 13 Torr", "Density": "1.0366 g/cm\u00b3 @ Temp: 25 \u00b0C"}}