{"cas_no": "61397-58-8", "cn_name": "\u916e\u5eb7\u5511\u6742\u8d288", "en_name": ["rel-(2R,4S)-2-(2,4-Dichlorophenyl)-2-(1H-imidazol-1-ylmethyl)-1,3-dioxolane-4-methanol", "1,3-Dioxolane-4-methanol, 2-(2,4-dichlorophenyl)-2-(1H-imidazol-1-ylmethyl)-, (2R,4S)-rel-", "1,3-Dioxolane-4-methanol, 2-(2,4-dichlorophenyl)-2-(1H-imidazol-1-ylmethyl)-, cis-", "rel-(2R,4S)-2-(2,4-Dichlorophenyl)-2-(1H-imidazol-1-ylmethyl)-1,3-dioxolane-4-methanol"], "SMILES": "C(C1(OC(CO)CO1)C2=C(Cl)C=C(Cl)C=C2)N3C=CN=C3", "physical_data": {"Molecular Weight": "329.18", "Molecular Formula": "C14H14Cl2N2O3", "Melting Point": "99-101 \u00b0C"}}