{"cas_no": "61397-56-6", "cn_name": "\u987a\u5f0f\u6eb4\u4ee3\u916f", "en_name": ["1,3-Dioxolane-4-methanol, 2-(bromomethyl)-2-(2,4-dichlorophenyl)-, 4-benzoate, (2R,4R)-rel-", "1,3-Dioxolane-4-methanol, 2-(bromomethyl)-2-(2,4-dichlorophenyl)-, 4-benzoate, (2R,4R)-rel-", "1,3-Dioxolane-4-methanol, 2-(bromomethyl)-2-(2,4-dichlorophenyl)-, benzoate, cis-", "1,3-Dioxolane-4-methanol, 2-(bromomethyl)-2-(2,4-dichlorophenyl)-, benzoate, (2R,4R)-rel-", "cis-[2-Bromomethyl-2-(2,4-dichlorophenyl)-1,3-dioxolan-4-yl]methyl benzoate", "(2R,4R)-rel-2-(Bromomethyl)-2-(2,4-dichlorophenyl)-1,3-dioxolane-4-methanol benzoate"], "SMILES": "C(Br)C1(OC(COC(=O)C2=CC=CC=C2)CO1)C3=C(Cl)C=C(Cl)C=C3", "physical_data": {"Molecular Weight": "446.12", "Molecular Formula": "C18H15BrCl2O4", "Melting Point": "116-117 \u00b0C"}}