{"cas_no": "6139-83-9", "cn_name": "4-\u6c2f\u4e01\u919b\u7f29\u4e8c\u4e59\u9187", "en_name": ["4-Chlorobutyraldehyde diethyl acetal", "Butane, 4-chloro-1,1-diethoxy-", "Butyraldehyde, 4-chloro-, diethyl acetal", "4-Chloro-1,1-diethoxybutane", "4-Chlorobutyraldehyde diethyl acetal", "\u03b3-Chlorobutyraldehyde diethyl acetal", "4-Chlorobutanal diethyl acetal", "NSC 96467"], "SMILES": "C(CCCCl)(OCC)OCC", "physical_data": {"Molecular Weight": "180.67", "Molecular Formula": "C8H17ClO2", "Boiling Point": "89-92 \u00b0C @ Press: 14 Torr"}}