{"cas_no": "614-99-3", "cn_name": "2-\u7ce0\u9178\u4e59\u916f", "en_name": ["Ethyl 2-furoate", "2-Furancarboxylic acid, ethyl ester", "2-Furoic acid, ethyl ester", "2-Carboethoxyfuran", "Ethyl pyromucate", "Ethyl 2-furancarboxylate", "Ethyl 2-furoate", "Ethyl 2-furylcarboxylate", "2-(Ethoxycarbonyl)furan", "Ethyl \u03b1-furoate", "NSC 2304"], "SMILES": "C(OCC)(=O)C1=CC=CO1", "physical_data": {"Molecular Weight": "140.14", "Molecular Formula": "C7H8O3", "Boiling Point": "196.8 \u00b0C", "Melting Point": "34.5 \u00b0C"}}