{"cas_no": "614-34-6", "cn_name": "\u82ef\u7532\u9178-4-\u7532\u57fa\u82ef\u916f", "en_name": ["4-Methylphenyl benzoate", "Benzoic acid, 4-methylphenyl ester", "Benzoic acid, p-tolyl ester", "4-Methylphenyl benzoate", "p-Tolyl benzoate", "p-Cresyl benzoate", "p-Cresol benzoate", "4-Cresyl benzoate", "p-Methylphenyl benzoate", "NSC 137593", "NSC 8788"], "SMILES": "C(OC1=CC=C(C)C=C1)(=O)C2=CC=CC=C2", "physical_data": {"Molecular Weight": "212.24", "Molecular Formula": "C14H12O2", "Boiling Point": "316 \u00b0C", "Melting Point": "71.5 \u00b0C"}}