{"cas_no": "614-48-2", "cn_name": "3-\u785d\u57fa\u67e5\u8033\u916e", "en_name": ["3-Nitrochalcone", "2-Propen-1-one, 3-(3-nitrophenyl)-1-phenyl-", "Chalcone, 3-nitro-", "3-(3-Nitrophenyl)-1-phenyl-2-propen-1-one", "3-Nitrochalcone", "3-(m-Nitrophenyl)-1-phenyl-2-propen-1-one", "3-Nitrobenzylideneacetophenone", "3-Nitrostyryl phenyl ketone", "m-Nitrostyryl phenyl ketone", "NSC 5536", "NSC 636933"], "SMILES": "C(C=CC1=CC(N(=O)=O)=CC=C1)(=O)C2=CC=CC=C2", "physical_data": {"Molecular Weight": "253.25", "Molecular Formula": "C15H11NO3", "Melting Point": "142-145 \u00b0C"}}