{"cas_no": "614-22-2", "cn_name": "\u82ef\u7532\u9170\u8132", "en_name": ["Benzoylurea", "Benzamide, N-(aminocarbonyl)-", "Urea, benzoyl-", "N-(Aminocarbonyl)benzamide", "Benzoic acid, ureide", "Benzoylurea", "1-Benzoylurea", "N-Benzoylurea", "NSC 402028"], "SMILES": "C(NC(N)=O)(=O)C1=CC=CC=C1", "physical_data": {"Molecular Weight": "164.16", "Molecular Formula": "C8H8N2O2", "Melting Point": "210-212 \u00b0C"}}