{"cas_no": "614-23-3", "cn_name": "1-\u82ef\u7532\u9170-2-\u786b\u8132", "en_name": ["Benzoylthiourea", "Benzamide, N-(aminothioxomethyl)-", "Urea, 1-benzoyl-2-thio-", "N-(Aminothioxomethyl)benzamide", "1-Benzoyl-2-thiourea", "Benzoylthiourea", "N-Benzoylthiourea", "Necacyl", "1-Benzoylthiourea", "NSC 5784"], "SMILES": "C(NC(N)=S)(=O)C1=CC=CC=C1", "physical_data": {"Molecular Weight": "180.23", "Molecular Formula": "C8H8N2OS", "Melting Point": "171-172 \u00b0C"}}