{"cas_no": "614-31-3", "cn_name": "1-\u82c4\u57fa-1-\u82ef\u57fa\u80bc", "en_name": ["1-Phenyl-1-(phenylmethyl)hydrazine", "Hydrazine, 1-phenyl-1-(phenylmethyl)-", "Hydrazine, 1-benzyl-1-phenyl-", "1-Phenyl-1-(phenylmethyl)hydrazine", "\u03b1-Benzylphenylhydrazine", "1-Benzyl-1-phenylhydrazine", "1-Benzylphenylhydrazine", "N-Benzyl-N-phenylhydrazine", "NSC 7145"], "SMILES": "N(CC1=CC=CC=C1)(N)C2=CC=CC=C2", "physical_data": {"Molecular Weight": "198.26", "Molecular Formula": "C13H14N2", "Boiling Point": "124-127 \u00b0C @ Press: 0.55 Torr", "Melting Point": "164-166 \u00b0C"}}