{"cas_no": "614-83-5", "cn_name": "2'-\u6eb4-4'-\u7532\u57fa\u4e59\u9170\u82ef\u80fa", "en_name": ["N-(2-Bromo-4-methylphenyl)acetamide", "Acetamide, N-(2-bromo-4-methylphenyl)-", "p-Acetotoluidide, 2\u2032-bromo-", "N-(2-Bromo-4-methylphenyl)acetamide", "2\u2032-Bromo-4\u2032-methylacetanilide", "4-Acetamido-3-bromotoluene", "NSC 8063"], "SMILES": "N(C(C)=O)C1=C(Br)C=C(C)C=C1", "physical_data": {"Molecular Weight": "228.09", "Molecular Formula": "C9H10BrNO", "Melting Point": "118 \u00b0C"}}