{"cas_no": "614-80-2", "cn_name": "\u90bb\u4e59\u9170\u6c28\u57fa\u915a", "en_name": ["2-Acetamidophenol", "Acetamide, N-(2-hydroxyphenyl)-", "Acetanilide, 2\u2032-hydroxy-", "Acetanilide, o-hydroxy-", "N-(2-Hydroxyphenyl)acetamide", "2\u2032-Hydroxyacetanilide", "o-Acetamidophenol", "2-Acetamidophenol", "N-Acetyl-o-aminophenol", "2-(Acetylamino)phenol", "o-(Acetylamino)phenol", "2-Acetaminophenol", "o-Hydroxyacetanilide", "o-Acetaminophenol", "N-Acetyl-2-aminophenol", "2-(N-Acetylamino)phenol", "2-Hydroxyacetanilide", "NSC 3989", "Orthocetamol"], "SMILES": "N(C(C)=O)C1=C(O)C=CC=C1", "physical_data": {"Molecular Weight": "151.16", "Molecular Formula": "C8H9NO2", "Melting Point": "208 \u00b0C"}}