{"cas_no": "614-20-0", "cn_name": "\u82ef\u7532\u9170\u4e59\u9178", "en_name": ["Benzoylacetic acid", "Benzenepropanoic acid, \u03b2-oxo-", "Acetic acid, benzoyl-", "\u03b2-Oxobenzenepropanoic acid", "Hydrocinnamic acid, \u03b2-oxo-", "Benzoylacetic acid", "NSC 97769", "3-Oxo-3-phenylpropanoic acid", "3-Oxo-3-phenylpropionic acid"], "SMILES": "C(CC(O)=O)(=O)C1=CC=CC=C1", "physical_data": {"Molecular Weight": "164.16", "Molecular Formula": "C9H8O3", "Melting Point": "102 \u00b0C"}}