{"cas_no": "614-97-1", "cn_name": "5-\u7532\u57fa\u82ef\u5e76\u54aa\u5511", "en_name": ["5-Methylbenzimidazole", "1H-Benzimidazole, 6-methyl-", "Benzimidazole, 5-methyl-", "1H-Benzimidazole, 5-methyl-", "Benzimidazole, 5(or 6)-methyl-", "6-Methyl-1H-benzimidazole", "5-Methylbenzimidazole", "5-Methyl-1H-benzimidazole", "NSC 3826"], "SMILES": "CC=1C=C2C(=CC1)NC=N2", "physical_data": {"Molecular Weight": "132.16", "Molecular Formula": "C8H8N2", "Boiling Point": "169-172 \u00b0C @ Press: 0.1 Torr", "Melting Point": "112-113 \u00b0C"}}