{"cas_no": "614-16-4", "cn_name": "\u82ef\u7532\u9170\u4e59\u8148", "en_name": ["Benzoylacetonitrile", "Benzenepropanenitrile, \u03b2-oxo-", "Acetonitrile, benzoyl-", "\u03b2-Oxobenzenepropanenitrile", "\u03c9-Cyanoacetophenone", "Benzoylacetonitrile", "\u03b1-Cyanoacetophenone", "Phenacyl cyanide", "2-Cyanoacetophenone", "3-Phenyl-3-ketopropionitrile", "Cyanomethyl phenyl ketone", "3-Oxo-3-phenylpropanenitrile", "Benzoylcyanomethane", "3-Phenyl-3-oxopropanenitrile", "3-Oxo-3-phenylpropionitrile", "NSC 4713", "\u03b2-Oxobenzenepropionitrile"], "SMILES": "C(CC#N)(=O)C1=CC=CC=C1", "physical_data": {"Molecular Weight": "145.16", "Molecular Formula": "C9H7NO", "Boiling Point": "160 \u00b0C @ Press: 10 Torr", "Melting Point": "80.5 \u00b0C"}}