{"cas_no": "614-27-7", "cn_name": "\u82ef\u7532\u9170\u4e59\u9178\u7532\u916f", "en_name": ["Methyl benzoylacetate", "Benzenepropanoic acid, \u03b2-oxo-, methyl ester", "Acetic acid, benzoyl-, methyl ester", "Methyl benzoylacetate", "Methyl \u03b2-oxobenzenepropanoate", "Methyl 3-phenyl-3-oxopropanoate", "3-Oxo-3-phenylpropionic acid methyl ester", "Methyl 3-oxo-3-phenylpropionate", "Methyl 3-oxo-3-phenylpropanoate", "\u03b2-Oxobenzenepropanoic acid methyl ester", "NSC 407764", "Methyl 2-benzoylacetate", "Peplidiforone D"], "SMILES": "C(CC(OC)=O)(=O)C1=CC=CC=C1", "physical_data": {"Molecular Weight": "178.18", "Molecular Formula": "C10H10O3", "Boiling Point": "140-141 \u00b0C @ Press: 23 Torr", "Melting Point": "30-40 \u00b0C", "Density": "1.173 g/cm\u00b3 @ Temp: 0 \u00b0C"}}