{"cas_no": "614-14-2", "cn_name": "1-\u82ef\u57fa-1-\u4e01\u9187", "en_name": ["1-Phenyl-1-butanol", "Benzenemethanol, \u03b1-propyl-", "Benzyl alcohol, \u03b1-propyl-", "\u03b1-Propylbenzenemethanol", "1-Butanol, 1-phenyl-", "\u03b1-Propylbenzyl alcohol", "1-Phenyl-1-butanol", "1-Phenylbutanol", "(\u00b1)-1-Phenyl-1-butanol", "(\u00b1)-\u03b1-Propylbenzenemethanol", "(\u00b1)-\u03b1-Propylbenzyl alcohol", "(\u00b1)-1-Phenylbutanol", "NSC 406592", "NSC 4887"], "SMILES": "C(CCC)(O)C1=CC=CC=C1", "physical_data": {"Molecular Weight": "150.22", "Molecular Formula": "C10H14O", "Boiling Point": "119 \u00b0C @ Press: 12 Torr", "Melting Point": "46-47 \u00b0C", "Density": "0.980 g/cm\u00b3 @ Temp: 24 \u00b0C"}}