{"cas_no": "614-77-7", "cn_name": "\u90bb\u7532\u82ef\u57fa\u8132", "en_name": ["N-(2-Methylphenyl)urea", "Urea, N-(2-methylphenyl)-", "Urea, o-tolyl-", "Urea, (2-methylphenyl)-", "N-(2-Methylphenyl)urea", "o-Tolylcarbamide", "o-Tolylurea", "(2-Methylphenyl)urea", "1-(2-Methylphenyl)urea", "o-Methylphenylurea", "2-Tolylurea", "N-o-Tolylurea", "NSC 406061"], "SMILES": "N(C(N)=O)C1=C(C)C=CC=C1", "physical_data": {"Molecular Weight": "150.18", "Molecular Formula": "C8H10N2O", "Melting Point": "240 \u00b0C"}}