{"cas_no": "614-76-6", "cn_name": "2'-\u6eb4\u4e59\u9170\u82ef\u80fa", "en_name": ["N-(2-Bromophenyl)acetamide", "Acetamide, N-(2-bromophenyl)-", "Acetanilide, 2\u2032-bromo-", "N-(2-Bromophenyl)acetamide", "2\u2032-Bromoacetanilide", "o-Bromoacetanilide", "2-Bromo-N-acetylaniline", "N-Acetyl-2-bromoaniline", "2-(Acetylamino)bromobenzene"], "SMILES": "N(C(C)=O)C1=C(Br)C=CC=C1", "physical_data": {"Molecular Weight": "214.06", "Molecular Formula": "C8H8BrNO", "Melting Point": "95-97 \u00b0C"}}