{"cas_no": "614-98-2", "cn_name": "3-\u544b\u5583\u7532\u9178\u4e59\u916f", "en_name": ["Ethyl 3-furoate", "3-Furancarboxylic acid, ethyl ester", "3-Furoic acid, ethyl ester", "Ethyl 3-furancarboxylate", "Ethyl 3-furoate", "NSC 349939"], "SMILES": "C(OCC)(=O)C=1C=COC1", "physical_data": {"Molecular Weight": "140.14", "Molecular Formula": "C7H8O3", "Boiling Point": "93-95 \u00b0C"}}