{"cas_no": "614-96-0", "cn_name": "5-\u7532\u57fa\u5432\u54da", "en_name": ["5-Methylindole", "1H-Indole, 5-methyl-", "Indole, 5-methyl-", "5-Methyl-1H-indole", "5-Methylindole", "5-Methylindol", "NSC 522562"], "SMILES": "CC=1C=C2C(=CC1)NC=C2", "physical_data": {"Molecular Weight": "131.17", "Molecular Formula": "C9H9N", "Boiling Point": "267 \u00b0C", "Melting Point": "60 \u00b0C"}}