{"cas_no": "614-60-8", "cn_name": "\u90bb\u7f9f\u57fa\u8089\u6842\u9178(\u90bb\u9999\u8c46\u9178)", "en_name": ["trans-2-Hydroxycinnamic acid", "2-Propenoic acid, 3-(2-hydroxyphenyl)-, (2E)-", "Cinnamic acid, o-hydroxy-, (E)-", "2-Propenoic acid, 3-(2-hydroxyphenyl)-, (E)-", "(2E)-3-(2-Hydroxyphenyl)-2-propenoic acid", "trans-o-Coumaric acid", "trans-o-Hydroxycinnamic acid", "trans-2-Hydroxycinnamic acid", "o-Hydroxy-trans-cinnamic acid", "(E)-o-Hydroxycinnamic acid", "(E)-2-Hydroxycinnamic acid", "NSC 32952", "(E)-3-(2-Hydroxyphenyl)acrylic acid", "Rans-2-hydroxycinnamic acid", "(E)-o-Coumaric acid"], "SMILES": "C(=CC(O)=O)C1=C(O)C=CC=C1", "physical_data": {"Molecular Weight": "164.16", "Molecular Formula": "C9H8O3", "Melting Point": "214-215 \u00b0C (decomp)"}}