{"cas_no": "614-47-1", "cn_name": "\u53cd\u5f0f-\u67e5\u8033\u916e", "en_name": ["trans-Chalcone", "2-Propen-1-one, 1,3-diphenyl-, (2E)-", "Chalcone, (E)-", "2-Propen-1-one, 1,3-diphenyl-, (E)-", "(2E)-1,3-Diphenyl-2-propen-1-one", "trans-Benzalacetophenone", "trans-Chalcone", "trans-1,3-Diphenylpropen-3-one", "(E)-Chalcone", "trans-Benzylideneacetophenone", "(E)-1,3-Diphenylpropen-3-one", "(E)-1-Benzoyl-2-phenylethylene", "Phenyl trans-styryl ketone", "(E)-Benzylideneacetophenone", "trans-1,3-Diphenyl-2-propen-1-one", "(E)-1,3-Diphenyl-2-propen-1-one", "Phenyl (E)-2-phenylethenyl ketone", "trans-1,3-Diphenylprop-1-en-3-one", "(E)-1,3-Diphenylpropenone", "NSC 167107", "(E)-Benzalacetophenone", "Phenyl (E)-styryl ketone", "(E)-1,3-Diphenyl-2-propen-1-one", "(E)-Chalcone"], "SMILES": "C(C=CC1=CC=CC=C1)(=O)C2=CC=CC=C2", "physical_data": {"Molecular Weight": "208.26", "Molecular Formula": "C15H12O", "Boiling Point": "218-222 \u00b0C @ Press: 4 Torr", "Melting Point": "59 \u00b0C"}}