{"cas_no": "614-00-6", "cn_name": "N-\u7532\u57fa-N-\u4e9a\u785d\u57fa\u82ef\u80fa", "en_name": ["N-Methyl-N-nitrosoaniline", "Benzenamine, N-methyl-N-nitroso-", "Aniline, N-methyl-N-nitroso-", "N-Methyl-N-nitrosobenzenamine", "N-Methyl-N-nitrosoaniline", "N-Nitroso-N-methylaniline", "Methylphenylnitrosamine", "N-Methyl-N-phenylnitrosoamine", "Phenylmethylnitrosamine", "N-Methyl-N-phenylnitrosamine", "Methylphenylnitrosoamine", "N-Nitroso-N-methylphenylamine", "Nitrosomethylphenylamine", "NSC 137"], "SMILES": "N(N=O)(C)C1=CC=CC=C1", "physical_data": {"Molecular Weight": "136.15", "Molecular Formula": "C7H8N2O", "Boiling Point": "86-87 \u00b0C @ Press: 1.7 Torr", "Melting Point": "14.7 \u00b0C", "Density": "1.1240 g/cm\u00b3 @ Temp: 20 \u00b0C"}}