{"cas_no": "614-72-2", "cn_name": "\u9130\u6c2f\u82ef\u57fa\u4e59\u57fa\u919a", "en_name": ["1-Chloro-2-ethoxybenzene", "Benzene, 1-chloro-2-ethoxy-", "Phenetole, o-chloro-", "1-Chloro-2-ethoxybenzene", "2-Chlorophenol ethyl ether", "o-Chlorophenyl ethyl ether", "o-Chlorophenetole", "NSC 6160", "2-Chlorophenetole"], "SMILES": "O(CC)C1=C(Cl)C=CC=C1", "physical_data": {"Molecular Weight": "156.61", "Molecular Formula": "C8H9ClO", "Boiling Point": "210 \u00b0C", "Melting Point": "190-191.5 \u00b0C"}}