{"cas_no": "614-68-6", "cn_name": "\u90bb\u7532\u82ef\u5f02\u6c30\u9178\u916f", "en_name": ["2-Methylphenyl isocyanate", "Benzene, 1-isocyanato-2-methyl-", "Isocyanic acid, o-tolyl ester", "1-Isocyanato-2-methylbenzene", "o-Tolyl isocyanate", "o-Methylphenyl isocyanate", "2-Methylphenyl isocyanate", "o-Toluene isocyanate", "2-Tolyl isocyanate"], "SMILES": "N(=C=O)C1=C(C)C=CC=C1", "physical_data": {"Molecular Weight": "133.15", "Molecular Formula": "C8H7NO", "Boiling Point": "185 \u00b0C"}}