{"cas_no": "614-75-5", "cn_name": "\u90bb\u7f9f\u57fa\u82ef\u4e59\u9178", "en_name": ["(2-Hydroxyphenyl)acetic acid", "Benzeneacetic acid, 2-hydroxy-", "Acetic acid, (o-hydroxyphenyl)-", "2-Hydroxybenzeneacetic acid", "(2-Hydroxyphenyl)acetic acid", "(o-Hydroxyphenyl)acetic acid", "2-HPAA", "NSC 62000", "2-(2\u2032-Hydroxyphenyl)acetic acid", "2-(2-Hydroxyphenyl)acetic acid"], "SMILES": "C(C(O)=O)C1=C(O)C=CC=C1", "physical_data": {"Molecular Weight": "152.15", "Molecular Formula": "C8H8O3", "Boiling Point": "240 \u00b0C", "Melting Point": "148 \u00b0C"}}