{"cas_no": "614-57-3", "cn_name": "\u8089\u6842\u57fa\u4e9a\u82ef\u4e59\u916e", "en_name": ["1,5-Diphenyl-2,4-pentadien-1-one", "2,4-Pentadien-1-one, 1,5-diphenyl-", "2,4-Pentadienophenone, 5-phenyl-", "1,5-Diphenyl-2,4-pentadien-1-one", "Cinnamylideneacetophenone", "Cinnamalacetophenone", "1,5-Diphenyl-1,3-pentadien-5-one", "NSC 1991", "NSC 29119", "NSC 406761", "SP 35"], "SMILES": "C(C=CC=CC1=CC=CC=C1)(=O)C2=CC=CC=C2", "physical_data": {"Molecular Weight": "234.29", "Molecular Formula": "C17H14O", "Melting Point": "102-103 \u00b0C", "Density": "1.0608 g/cm\u00b3"}}