{"cas_no": "614-69-7", "cn_name": "\u90bb\u7532\u82ef\u5f02\u786b\u6c30\u9178\u916f", "en_name": ["2-Methylphenyl isothiocyanate", "Benzene, 1-isothiocyanato-2-methyl-", "Isothiocyanic acid, o-tolyl ester", "1-Isothiocyanato-2-methylbenzene", "o-Tolyl isothiocyanate", "o-Methylphenyl isothiocyanate", "2-Methylphenyl isothiocyanate", "2-Tolyl isothiocyanate", "NSC 220230"], "SMILES": "N(=C=S)C1=C(C)C=CC=C1", "physical_data": {"Molecular Weight": "149.21", "Molecular Formula": "C8H7NS", "Boiling Point": "238-240 \u00b0C", "Melting Point": "236 \u00b0C", "Density": "1.115 g/cm\u00b3"}}