{"cas_no": "614-45-9", "cn_name": "\u8fc7\u6c27\u5316\u82ef\u7532\u9178\u53d4\u4e01\u916f", "en_name": ["tert-Butyl peroxybenzoate", "Benzenecarboperoxoic acid, 1,1-dimethylethyl ester", "Peroxybenzoic acid, tert-butyl ester", "tert-Butyl alcohol, peroxybenzoate", "tert-Butyl perbenzoate", "tert-Butyl peroxybenzoate", "tert-Butyl benzoyl peroxide", "Benzoyl tert-butyl peroxide", "Perbutyl Z", "Esperox 10", "Chaloxyd TBPB", "Kayabutyl B", "Luperox P", "Trigonox C", "Interox TBPB-HA-M 1", "TC 5 (vulcanizer)", "TC 5", "CP 02", "CP 02 (catalyst)", "Chaloxyd TBPB-HA-M 1", "TBPB-HA-M 1", "NSC 674", "Link-Cup TBPB", "t-Butyl peroxybenzoate", "Trigonox C 50D", "Norox TBPB", "Trigonox 93", "Luperox PXL", "V 73", "LQ-TBPB", "TBPB", "TBPB-HA-M 3", "B 802799", "Peroxan PB", "tert-Butyl benzoperoxoate", "LA 9T", "DN 2062", "T 39170"], "SMILES": "C(OOC(C)(C)C)(=O)C1=CC=CC=C1", "physical_data": {"Molecular Weight": "194.23", "Molecular Formula": "C11H14O3", "Boiling Point": "75-76 \u00b0C @ Press: 0.2 Torr", "Melting Point": "8 \u00b0C", "Density": "1.021 g/cm\u00b3 @ Temp: 25 \u00b0C"}}