{"cas_no": "614-39-1", "cn_name": "\u76d0\u9178\u666e\u9c81\u5361\u56e0\u80fa", "en_name": ["Procainamide hydrochloride", "Benzamide, 4-amino-N-[2-(diethylamino)ethyl]-, hydrochloride (1:1)", "Benzamide, p-amino-N-[2-(diethylamino)ethyl]-, monohydrochloride", "Benzamide, 4-amino-N-[2-(diethylamino)ethyl]-, monohydrochloride", "Novocamid hydrochloride", "Procainamide monohydrochloride", "Procardyl", "Pronestyl hydrochloride", "HC 5006", "Procainamide hydrochloride", "Pronestyl", "Amisalin", "4-Amino-N-[2-(diethylamino)ethyl]benzamide monohydrochloride", "Amidoprocaine", "Cardiorytmin", "Spicain amide", "Procamid", "Novocaine amide hydrochloride", "Procan SR", "Procamide", "Procapan"], "SMILES": "C(NCCN(CC)CC)(=O)C1=CC=C(N)C=C1.Cl", "physical_data": {"Molecular Weight": "", "Molecular Formula": "C13H21N3O.ClH", "Melting Point": "167 \u00b0C"}}