{"cas_no": "614-61-9", "cn_name": "\u90bb\u6c2f\u82ef\u6c27\u4e59\u9178", "en_name": ["o-Chlorophenoxyacetic acid", "Acetic acid, 2-(2-chlorophenoxy)-", "Acetic acid, (o-chlorophenoxy)-", "Acetic acid, (2-chlorophenoxy)-", "2-(2-Chlorophenoxy)acetic acid", "o-Chlorophenoxyacetic acid", "(2-Chlorophenoxy)acetic acid", "NSC 8454", "2-(o-Chlorophenoxy)acetic acid", "Ortho-chlorophenoxyacetic acid"], "SMILES": "O(CC(O)=O)C1=C(Cl)C=CC=C1", "physical_data": {"Molecular Weight": "186.59", "Molecular Formula": "C8H7ClO3", "Melting Point": "148-149 \u00b0C"}}