{"cas_no": "614-21-1", "cn_name": "\u82ef\u7532\u9170\u785d\u57fa\u7532\u70f7", "en_name": ["2-Nitro-1-phenylethanone", "Ethanone, 2-nitro-1-phenyl-", "Acetophenone, 2-nitro-", "2-Nitro-1-phenylethanone", "\u03b1-Nitroacetophenone", "\u03c9-Nitroacetophenone", "Nitromethyl phenyl ketone", "Benzoylnitromethane", "\u03b1-Nitro-2-phenyl-2-ethanone", "NSC 4509", "Phenyl nitromethyl ketone", "2-Nitro-1-phenylethan-1-one"], "SMILES": "C(CN(=O)=O)(=O)C1=CC=CC=C1", "physical_data": {"Molecular Weight": "165.15", "Molecular Formula": "C8H7NO3", "Melting Point": "105-106 \u00b0C"}}