{"cas_no": "614-86-8", "cn_name": "\u7e56[\u5f62]\u9178", "en_name": ["2,4-Dihydroxycinnamic acid", "2-Propenoic acid, 3-(2,4-dihydroxyphenyl)-", "Cinnamic acid, 2,4-dihydroxy-", "3-(2,4-Dihydroxyphenyl)-2-propenoic acid", "Umbellic acid", "2,4-Dihydroxycinnamic acid", "3-(2,4-Dihydroxyphenyl)acrylic acid"], "SMILES": "C(=CC(O)=O)C1=C(O)C=C(O)C=C1", "physical_data": {"Molecular Weight": "180.16", "Molecular Formula": "C9H8O4", "Melting Point": "240 \u00b0C (decomp)"}}