{"cas_no": "614-18-6", "cn_name": "\u70df\u9178\u4e59\u916f", "en_name": ["Ethyl nicotinate", "3-Pyridinecarboxylic acid, ethyl ester", "Nicotinic acid, ethyl ester", "Nikithan", "Ba 2673", "Ethyl nicotinate", "3-Carbethoxypyridine", "Ethyl 3-pyridinecarboxylate", "\u03b2-Pyridinecarboxylic acid ethyl ester", "3-(Ethoxycarbonyl)pyridine", "Ignicut", "Ignocut", "Mucotherm", "Nicaethan", "Nikethan", "NSC 8872", "Ethyl pyridine-3-oate"], "SMILES": "C(OCC)(=O)C=1C=CC=NC1", "physical_data": {"Molecular Weight": "151.16", "Molecular Formula": "C8H9NO2", "Boiling Point": "224 \u00b0C", "Melting Point": "8.5 \u00b0C", "Density": "1.1150 g/cm\u00b3 @ Temp: 20 \u00b0C"}}