{"cas_no": "614-10-8", "cn_name": "4-2-\u7532\u6c27\u57fa\u82ef\u57fa-3-\u6c28\u57fa\u786b\u8132", "en_name": ["N-(2-Methylphenyl)hydrazinecarbothioamide", "Hydrazinecarbothioamide, N-(2-methylphenyl)-", "Semicarbazide, 3-thio-4-o-tolyl-", "N-(2-Methylphenyl)hydrazinecarbothioamide", "3-Thio-4-o-tolylsemicarbazide", "4-o-Tolylthiosemicarbazide", "4-o-Tolyl-3-thiosemicarbazide", "4-(2-Methylphenyl)thiosemicarbazide", "4-(o-Methylphenyl)thiosemicarbazide", "NSC 97210", "2-Methylphenylthiosemicarbazide", "N-(2-Methylphenyl)thiosemicarbazide", "4-(2-Methylphenyl)-3-thiosemicarbazide", "3-Amino-1-(2-methylphenyl)thiourea"], "SMILES": "N(C(NN)=S)C1=C(C)C=CC=C1", "physical_data": {"Molecular Weight": "181.26", "Molecular Formula": "C8H11N3S", "Melting Point": "148 \u00b0C"}}