{"cas_no": "614-78-8", "cn_name": "N-\u90bb\u7532\u82ef\u57fa\u786b\u8132", "en_name": ["(2-Methylphenyl)thiourea", "Thiourea, N-(2-methylphenyl)-", "Urea, 2-thio-1-o-tolyl-", "Thiourea, (2-methylphenyl)-", "N-(2-Methylphenyl)thiourea", "(2-Methylphenyl)thiourea", "N-(o-Tolyl)thiourea", "1-(2-Methylphenyl)thiourea", "2-Tolylthiourea", "o-Tolylthiourea", "NSC 5786", "1-(o-Tolyl)thiourea"], "SMILES": "N(C(N)=S)C1=C(C)C=CC=C1", "physical_data": {"Molecular Weight": "166.24", "Molecular Formula": "C8H10N2S", "Melting Point": "162 \u00b0C"}}