{"cas_no": "614-30-2", "cn_name": "N-\u7532\u57fa-N-\u82c4\u57fa\u82ef\u80fa", "en_name": ["N-Benzyl-N-methylaniline", "Benzenemethanamine, N-methyl-N-phenyl-", "Benzylamine, N-methyl-N-phenyl-", "N-Methyl-N-phenylbenzenemethanamine", "N-Methyl-N-phenylbenzylamine", "N-Methyl-N-benzylaniline", "N-Benzyl-N-methylaniline", "N-Benzyl-N-methylphenylamine", "N-Benzyl-N-methyl-N-phenylamine", "NSC 97", "N-Benzyl-N-methylbenzenamine", "N-Methyl-N-benzylphenylamine"], "SMILES": "N(CC1=CC=CC=C1)(C)C2=CC=CC=C2", "physical_data": {"Molecular Weight": "197.28", "Molecular Formula": "C14H15N", "Boiling Point": "187-188 \u00b0C @ Press: 26 Torr", "Melting Point": "37 \u00b0C", "Density": "1.0422 g/cm\u00b3 @ Temp: 26.5 \u00b0C"}}