{"cas_no": "614-33-5", "cn_name": "\u7518\u6cb9\u4e09\u82ef\u7532\u9178\u916f", "en_name": ["Glyceryl tribenzoate", "1,2,3-Propanetriol, 1,2,3-tribenzoate", "Glycerol, tribenzoate", "1,2,3-Propanetriol, tribenzoate", "Glyceryl tribenzoate", "Tribenzoin", "Benzoflex S 404", "Uniplex 260", "NSC 2230"], "SMILES": "C(OC(COC(=O)C1=CC=CC=C1)COC(=O)C2=CC=CC=C2)(=O)C3=CC=CC=C3", "physical_data": {"Molecular Weight": "404.41", "Molecular Formula": "C24H20O6", "Melting Point": "76 \u00b0C"}}