{"cas_no": "614-19-7", "cn_name": "3-\u6c28\u57fa-3-\u82ef\u57fa\u4e19\u9178", "en_name": ["DL-\u03b2-Phenylalanine", "Benzenepropanoic acid, \u03b2-amino-", "Hydrocinnamic acid, \u03b2-amino-", "\u03b2-Aminobenzenepropanoic acid", "\u03b2-Alanine, 3-phenyl-", "\u03b2-Phenyl-\u03b2-alanine", "Phenyl-\u03b2-alanine", "3-Phenyl-\u03b2-alanine", "3-Amino-3-phenylpropanoic acid", "DL-\u03b2-Phenyl-\u03b2-alanine", "(\u00b1)-\u03b2-Phenyl-\u03b2-alanine", "DL-3-Amino-3-phenylpropionic acid", "(\u00b1)-3-Amino-3-phenylpropionic acid", "(\u00b1)-3-Amino-3-phenylpropanoic acid", "NSC 122793", "NSC 132827", "NSC 1979", "NSC 32026", "dl-3-Amino-3-phenylpropionic acid", "DL-\u03b2-Phenylalanine", "DL-\u03b2-Phenylalanine", "3-Amino-3-phenylpropionic acid"], "SMILES": "C(CC(O)=O)(N)C1=CC=CC=C1", "physical_data": {"Molecular Weight": "165.19", "Molecular Formula": "C9H11NO2", "Melting Point": "222 \u00b0C (decomp)"}}