{"cas_no": "6140-65-4", "cn_name": "1-\u73af\u620a\u70ef\u7532\u919b", "en_name": ["1-Cyclopentene-1-carboxaldehyde", "1-Cyclopentene-1-carboxaldehyde", "2-Cyclopentenecarboxaldehyde", "1-Cyclopentenecarboxaldehyde", "1-Formylcyclopentene", "1-Formyl-1-cyclopentene", "1-Cyclopentenyl aldehyde"], "SMILES": "C(=O)C=1CCCC1", "physical_data": {"Molecular Weight": "96.13", "Molecular Formula": "C6H8O", "Boiling Point": "48 \u00b0C @ Press: 11 Torr", "Melting Point": "-32 \u00b0C", "Density": "0.970 g/cm\u00b3 @ Temp: 21 \u00b0C"}}