{"cas_no": "6140-17-6", "cn_name": "4-\u7532\u57fa\u4e09\u6c1f\u7532\u82ef", "en_name": ["1-Methyl-4-(trifluoromethyl)benzene", "Benzene, 1-methyl-4-(trifluoromethyl)-", "p-Xylene, \u03b1,\u03b1,\u03b1-trifluoro-", "1-Methyl-4-(trifluoromethyl)benzene", "\u03b1,\u03b1,\u03b1-Trifluoro-p-xylene", "p-(Trifluoromethyl)toluene", "4-Methylbenzotrifluoride", "4-(Trifluoromethyl)toluene", "1-(Trifluoromethyl)-4-methylbenzene", "4-Methyl-1-(trifluoromethyl)benzene", "p-Methylbenzotrifluoride"], "SMILES": "C(F)(F)(F)C1=CC=C(C)C=C1", "physical_data": {"Molecular Weight": "160.14", "Molecular Formula": "C8H7F3", "Boiling Point": "129 \u00b0C", "Melting Point": "129-130 \u00b0C"}}