{"cas_no": "6141-57-7", "cn_name": "3-\u7532\u57fa-2-\u544b\u5583\u7532\u9178\u7532\u916f", "en_name": ["Methyl 3-methyl-2-furancarboxylate", "2-Furancarboxylic acid, 3-methyl-, methyl ester", "2-Furoic acid, 3-methyl-, methyl ester", "Methyl 3-methyl-2-furancarboxylate", "Methyl 3-methyl-2-furoate", "Methyl 3-methylfuroate", "NSC 508754", "3-Methylfuran-2-carboxylic acid methyl ester"], "SMILES": "C(OC)(=O)C1=C(C)C=CO1", "physical_data": {"Molecular Weight": "140.14", "Molecular Formula": "C7H8O3", "Boiling Point": "72-76 \u00b0C @ Press: 8 Torr", "Melting Point": "36.5-37 \u00b0C"}}