{"cas_no": "6141-14-6", "cn_name": "2-\u6c2f-4-\u7532\u57fa\u55b9\u5511\u5549", "en_name": ["2-Chloro-4-methylquinazoline", "Quinazoline, 2-chloro-4-methyl-", "2-Chloro-4-methylquinazoline"], "SMILES": "CC=1C2=C(N=C(Cl)N1)C=CC=C2", "physical_data": {"Molecular Weight": "178.62", "Molecular Formula": "C9H7ClN2", "Melting Point": "185-187 \u00b0C"}}