{"cas_no": "61413-54-5", "cn_name": "\u8bfa\u666e\u5229\u5170", "en_name": ["Rolipram", "2-Pyrrolidinone, 4-[3-(cyclopentyloxy)-4-methoxyphenyl]-", "4-[3-(Cyclopentyloxy)-4-methoxyphenyl]-2-pyrrolidinone", "ZK 62711", "Rolipram", "(\u00b1)-Rolipram", "SB 95952", "(R,S)-Rolipram", "MeSH ID: D020889"], "SMILES": "O(C1=C(OC)C=CC(=C1)C2CNC(=O)C2)C3CCCC3", "physical_data": {"Molecular Weight": "275.34", "Molecular Formula": "C16H21NO3", "Melting Point": "132 \u00b0C"}}