{"cas_no": "6141-58-8", "cn_name": "\u7532\u57fa2-\u7532\u57fa\u544b\u5583\u7532\u916f", "en_name": ["3-Furancarboxylic acid, 2-methyl-, methyl ester", "3-Furancarboxylic acid, 2-methyl-, methyl ester", "3-Furoic acid, 2-methyl-, methyl ester", "Methyl 2-methylfuran-3-carboxylate", "Methyl 2-methyl-3-furoate", "2-Methylfuran-3-carboxylic acid methyl ester", "2-Methyl-3-furoic acid methyl ester"], "SMILES": "C(OC)(=O)C1=C(C)OC=C1", "physical_data": {"Molecular Weight": "140.14", "Molecular Formula": "C7H8O3", "Boiling Point": "75 \u00b0C @ Press: 20 Torr"}}