{"cas_no": "6142-05-8", "cn_name": "2-\u6c28\u57fa\u567b\u5511\u76d0\u9178\u76d0", "en_name": ["2-Thiazolamine, hydrochloride (1:1)", "2-Thiazolamine, hydrochloride (1:1)", "Thiazole, 2-amino-, hydrochloride", "2-Thiazolamine, monohydrochloride", "2-Aminothiazole hydrochloride", "2-Thiazolamine hydrochloride"], "SMILES": "NC1=NC=CS1.Cl", "physical_data": {"Molecular Weight": "", "Molecular Formula": "C3H4N2S.ClH", "Melting Point": "62-63 \u00b0C"}}