{"cas_no": "6142-15-0", "cn_name": "2-\u6c28\u57fa-4-\u7532\u57fa\u567b\u5511\u76d0\u9178\u76d0", "en_name": ["2-Thiazolamine, 4-methyl-, hydrochloride (1:1)", "2-Thiazolamine, 4-methyl-, hydrochloride (1:1)", "Thiazole, 2-amino-4-methyl-, monohydrochloride", "2-Thiazolamine, 4-methyl-, monohydrochloride", "Thiazole, 2-amino-4-methyl-, hydrochloride", "2-Amino-4-methylthiazole hydrochloride", "4-Methyl-2-thiazolamine monohydrochloride", "4-Methylthiazol-2-amine hydrochloride"], "SMILES": "CC=1N=C(N)SC1.Cl", "physical_data": {"Molecular Weight": "", "Molecular Formula": "C4H6N2S.ClH", "Melting Point": "169-171 \u00b0C"}}