{"cas_no": "6142-95-6", "cn_name": "\u82ef\u4e19\u7094\u919b\u7f29\u4e8c\u4e59\u919b", "en_name": ["(3,3-Diethoxy-1-propyn-1-yl)benzene", "Benzene, (3,3-diethoxy-1-propyn-1-yl)-", "Propiolaldehyde, phenyl-, diethyl acetal", "Benzene, (3,3-diethoxy-1-propynyl)-", "Propyne, 3,3-diethoxy-1-phenyl-", "(3,3-Diethoxy-1-propyn-1-yl)benzene", "3,3-Diethoxy-1-phenylpropyne", "3-Phenylpropynal diethyl acetal", "Phenylpropynal diethyl acetal", "3,3-Diethoxy-1-phenylprop-1-yne", "(3,3-Diethoxy-1-propynyl)benzene", "NSC 66194", "Phenylpropiolaldehyde diethyl acetal"], "SMILES": "C(#CC(OCC)OCC)C1=CC=CC=C1", "physical_data": {"Molecular Weight": "204.26", "Molecular Formula": "C13H16O2", "Boiling Point": "93-95 \u00b0C @ Press: 5 Torr"}}