{"cas_no": "61422-45-5", "cn_name": "\u5361\u83ab\u6c1f", "en_name": ["Carmofur", "1(2H)-Pyrimidinecarboxamide, 5-fluoro-N-hexyl-3,4-dihydro-2,4-dioxo-", "5-Fluoro-N-hexyl-3,4-dihydro-2,4-dioxo-1(2H)-pyrimidinecarboxamide", "1-(Hexylcarbamoyl)-5-fluorouracil", "1-(n-Hexylcarbamoyl)-5-fluorouracil", "HCFU", "1-(Hexylcarbamyl)-5-fluorouracil", "Carmofur", "Mifurol", "Yamaful"], "SMILES": "C(NCCCCCC)(=O)N1C(=O)NC(=O)C(F)=C1", "physical_data": {"Molecular Weight": "257.26", "Molecular Formula": "C11H16FN3O3", "Melting Point": "110-111 \u00b0C"}}