{"cas_no": "6143-29-9", "cn_name": "5-\u964d\u51b0\u70ef-2-\u57fa\u4e59\u9178\u916f", "en_name": ["Bicyclo[2.2.1]hept-5-en-2-ol, 2-acetate", "Bicyclo[2.2.1]hept-5-en-2-ol, 2-acetate", "5-Norbornen-2-ol, acetate", "Bicyclo[2.2.1]hept-5-en-2-ol, acetate", "5-Norbornen-2-yl acetate", "NSC 29887"], "SMILES": "O(C(C)=O)C1C2CC(C1)C=C2", "physical_data": {"Molecular Weight": "152.19", "Molecular Formula": "C9H12O2", "Boiling Point": "73-77 \u00b0C @ Press: 14 Torr", "Density": "1.0513 g/cm\u00b3 @ Temp: 20 \u00b0C"}}