{"cas_no": "61439-59-6", "cn_name": "2-(4-\u82ef\u7532\u6c27\u57fa\u82ef\u57fa)\u4e59\u9187", "en_name": ["4-(Phenylmethoxy)benzeneethanol", "Benzeneethanol, 4-(phenylmethoxy)-", "4-(Phenylmethoxy)benzeneethanol", "p-(Benzyloxy)phenethyl alcohol", "2-(p-Benzyloxyphenyl)ethanol", "2-(4-Benzyloxyphenyl)ethanol", "\u03b2-(p-Benzyloxyphenyl)ethyl alcohol", "4-Benzyloxyphenethyl alcohol", "2-(4(Benzyloxy)phenyl)ethan-1-ol", "4-(Benzyloxy)benzeneethanol", "2-[4-(Benzyloxy)phenyl]ethan-1-ol", "2-(4-Phenylmethoxyphenyl)ethanol"], "SMILES": "O(CC1=CC=CC=C1)C2=CC=C(CCO)C=C2", "physical_data": {"Molecular Weight": "228.29", "Molecular Formula": "C15H16O2", "Melting Point": "87-88 \u00b0C"}}