{"cas_no": "61432-55-1", "cn_name": "\u54cc\u8349\u4e39", "en_name": ["Dimepiperate", "1-Piperidinecarbothioic acid, S-(1-methyl-1-phenylethyl) ester", "MY 93", "Dimepiperate", "MUW 1193", "Yukamate"], "SMILES": "C(SC(=O)N1CCCCC1)(C)(C)C2=CC=CC=C2", "physical_data": {"Molecular Weight": "263.40", "Molecular Formula": "C15H21NOS", "Boiling Point": "166 \u00b0C", "Melting Point": "39 \u00b0C"}}