{"cas_no": "61434-67-1", "cn_name": "\u987a\u5f0f\u767d\u85dc\u82a6\u9187", "en_name": ["cis-Resveratrol", "1,3-Benzenediol, 5-[(1Z)-2-(4-hydroxyphenyl)ethenyl]-", "1,3-Benzenediol, 5-[2-(4-hydroxyphenyl)ethenyl]-, (Z)-", "5-[(1Z)-2-(4-Hydroxyphenyl)ethenyl]-1,3-benzenediol", "cis-Resveratrol", "(Z)-Resveratrol"], "SMILES": "C(=CC1=CC=C(O)C=C1)C2=CC(O)=CC(O)=C2", "physical_data": {"Molecular Weight": "228.24", "Molecular Formula": "C14H12O3", "Melting Point": "172-174 \u00b0C"}}