{"cas_no": "61445-55-4", "cn_name": "\u6c2f\u6c99\u5766\u57fa\u56e0\u6bd2\u6742\u8d28", "en_name": ["4-(Methylnitrosoamino)butanoic acid", "Butanoic acid, 4-(methylnitrosoamino)-", "4-(Methylnitrosoamino)butanoic acid", "N-Methyl-N-(3-carboxypropyl)nitrosamine", "N-Nitrosomethylaminobutyric acid", "NMBA"], "SMILES": "N(CCCC(O)=O)(N=O)C", "physical_data": {"Molecular Weight": "146.14", "Molecular Formula": "C5H10N2O3", "Melting Point": "&gt;25 \u00b0C"}}