{"cas_no": "61450-06-4", "cn_name": "4-\u6c2f-3-\u6c28\u78fa\u9170\u57fa\u82ef-1-\u78fa\u9170\u6c2f", "en_name": ["3-(Aminosulfonyl)-4-chlorobenzenesulfonyl chloride", "Benzenesulfonyl chloride, 3-(aminosulfonyl)-4-chloro-", "Benzenesulfonyl chloride, 4-chloro-3-sulfamoyl-", "3-(Aminosulfonyl)-4-chlorobenzenesulfonyl chloride", "4-Chloro-3-sulfamoylbenzenesulfonyl chloride", "NSC 350626"], "SMILES": "S(N)(=O)(=O)C1=CC(S(Cl)(=O)=O)=CC=C1Cl", "physical_data": {"Molecular Weight": "290.14", "Molecular Formula": "C6H5Cl2NO4S2", "Melting Point": "184-186 \u00b0C"}}