{"cas_no": "6145-31-9", "cn_name": "1,2-\u4e59\u70ef\u57fa\u4e8c\u81a6\u9178", "en_name": ["Ethylenediphosphonic acid", "Phosphonic acid, P,P\u2032-1,2-ethanediylbis-", "Phosphonic acid, ethylenedi-", "Phosphonic acid, 1,2-ethanediylbis-", "P,P\u2032-1,2-Ethanediylbis[phosphonic acid]", "1,2-Ethanediphosphonic acid", "1,2-Ethylenediphosphonic acid", "Ethylenediphosphonic acid", "1,2-Ethylenebis(phosphonic acid)", "NSC 40837"], "SMILES": "C(CP(=O)(O)O)P(=O)(O)O", "physical_data": {"Molecular Weight": "190.03", "Molecular Formula": "C2H8O6P2", "Melting Point": "220-221 \u00b0C"}}