{"cas_no": "61451-78-3", "cn_name": "\u7f9f\u7532\u57fa\u82ef\u57fa\u6b21\u81a6\u9178", "en_name": ["P-(Hydroxymethyl)-P-phenylphosphinic acid", "Phosphinic acid, P-(hydroxymethyl)-P-phenyl-", "Phosphinic acid, (hydroxymethyl)phenyl-", "P-(Hydroxymethyl)-P-phenylphosphinic acid", "Hydroxymethyl(phenyl)phosphinic acid", "(Hydroxymethyl)phenyl phosphinate", "HMPPA"], "SMILES": "P(CO)(=O)(O)C1=CC=CC=C1", "physical_data": {"Molecular Weight": "172.12", "Molecular Formula": "C7H9O3P", "Melting Point": "138-139 \u00b0C"}}