{"cas_no": "6145-69-3", "cn_name": "\u9c9b\u809d\u9187", "en_name": ["1-O-Hexadecylglycerol", "1,2-Propanediol, 3-(hexadecyloxy)-", "1,2-Propanediol, 3-(hexadecyloxy)-, (\u00b1)-", "3-(Hexadecyloxy)-1,2-propanediol", "(\u00b1)-1-Hexadecyl glycerol", "rac-1-O-Hexadecylglycerol", "1-O-Hexadecyl-rac-glycerol", "1-Hexadecylglycerol", "Glyceryl-1-hexadecyl ether", "1-O-Hexadecylglycerol", "3-Hexadecyloxypropane-1,2-diol", "NSC 59269", "1-O-Hexadecyl-Rac-Glycerol", "3-Hexadecoxypropane-1,2-diol", "Glycerol 1-hexadecyl ether"], "SMILES": "C(CCCCCCCCCCCCCC)COCC(CO)O", "physical_data": {"Molecular Weight": "316.52", "Molecular Formula": "C19H40O3", "Melting Point": "62.5-63.5 \u00b0C"}}