{"cas_no": "6146-52-7", "cn_name": "5-\u785d\u57fa\u5432\u54da", "en_name": ["5-Nitroindole", "1H-Indole, 5-nitro-", "Indole, 5-nitro-", "5-Nitro-1H-indole", "5-Nitroindole", "NSC 520594"], "SMILES": "N(=O)(=O)C=1C=C2C(=CC1)NC=C2", "physical_data": {"Molecular Weight": "162.15", "Molecular Formula": "C8H6N2O2", "Melting Point": "140-142 \u00b0C"}}