{"cas_no": "61478-29-3", "cn_name": "(2S,4S)-4-\u4e8c\u82ef\u57fa\u81a6-2-(\u4e8c\u82ef\u57fa\u81a6\u7532\u57fa)-\u5421\u54af\u70f7", "en_name": ["(2S,4S)-4-(Diphenylphosphino)-2-[(diphenylphosphino)methyl]pyrrolidine", "Pyrrolidine, 4-(diphenylphosphino)-2-[(diphenylphosphino)methyl]-, (2S,4S)-", "Pyrrolidine, 4-(diphenylphosphino)-2-[(diphenylphosphino)methyl]-, (2S-cis)-", "(2S,4S)-4-(Diphenylphosphino)-2-[(diphenylphosphino)methyl]pyrrolidine", "(2S,4S)-PPM", "(2S,4S)-(-)-4-(Diphenylphosphino)-2-[(diphenylphosphino)methyl]pyrrolidine"], "SMILES": "P(C1CC(CP(C2=CC=CC=C2)C3=CC=CC=C3)NC1)(C4=CC=CC=C4)C5=CC=CC=C5", "physical_data": {"Molecular Weight": "453.49", "Molecular Formula": "C29H29NP2", "Melting Point": "103-104 \u00b0C"}}