{"cas_no": "6147-11-1", "cn_name": "\u03b1-\u5012\u637b\u5b50\u7d20", "en_name": ["\u03b1-Mangostin", "9H-Xanthen-9-one, 1,3,6-trihydroxy-7-methoxy-2,8-bis(3-methyl-2-buten-1-yl)-", "Xanthen-9-one, 1,3,6-trihydroxy-7-methoxy-2,8-bis(3-methyl-2-butenyl)-", "Mangostin", "9H-Xanthen-9-one, 1,3,6-trihydroxy-7-methoxy-2,8-bis(3-methyl-2-butenyl)-", "1,3,6-Trihydroxy-7-methoxy-2,8-bis(3-methyl-2-buten-1-yl)-9H-xanthen-9-one", "1,3,6-Trihydroxy-7-methoxy-2,8-bis(3,3-dimethylallyl)xanthone", "1,3,6-Trihydroxy-7-methoxy-2,8-di(3-methyl-2-butenyl)xanthone", "\u03b1-Mangostin", "\u03b1-Mangosten", "NSC 139154", "NSC 27593", "NSC 30552", "7-O-Methyl-4-desprenylcostatin", "7-O-Methyl-\u03b3-mangostin", "1,3,6-Trihydroxy-7-methoxy-2,8-bis(3-methylbut-2-enyl)xanthen-9-one"], "SMILES": "C(C=C(C)C)C1=C2C(OC=3C(C2=O)=C(O)C(CC=C(C)C)=C(O)C3)=CC(O)=C1OC", "physical_data": {"Molecular Weight": "410.46", "Molecular Formula": "C24H26O6", "Melting Point": "180-181 \u00b0C"}}