{"cas_no": "61477-40-5", "cn_name": "(R)-3-\u6c28\u57fa\u4e01\u9187", "en_name": ["(3R)-3-Amino-1-butanol", "1-Butanol, 3-amino-, (3R)-", "1-Butanol, 3-amino-, (R)-", "(3R)-3-Amino-1-butanol", "(R)-3-Aminobutan-1-ol", "(R)-3-Aminobutanol"], "SMILES": "C(C(C)N)CO", "physical_data": {"Molecular Weight": "89.14", "Molecular Formula": "C4H11NO", "Boiling Point": "51-53 \u00b0C @ Press: 3 mmHg"}}