{"cas_no": "61478-26-0", "cn_name": "(2S,4R)-N-BOC-\u7f9f\u812f\u6c28\u9187", "en_name": ["1,1-Dimethylethyl (2S,4R)-4-hydroxy-2-(hydroxymethyl)-1-pyrrolidinecarboxylate", "1-Pyrrolidinecarboxylic acid, 4-hydroxy-2-(hydroxymethyl)-, 1,1-dimethylethyl ester, (2S,4R)-", "1-Pyrrolidinecarboxylic acid, 4-hydroxy-2-(hydroxymethyl)-, 1,1-dimethylethyl ester, (2S-trans)-", "1,1-Dimethylethyl (2S,4R)-4-hydroxy-2-(hydroxymethyl)-1-pyrrolidinecarboxylate", "tert-Butyl (2S,4R)-4-hydroxy-2-hydroxymethylpyrrolidine-1-carboxylate", "tert-Butyl (2S,4R)-4-hydroxy-2-(hydroxymethyl)pyrrolidine-1-carboxylate", "N-Boc-trans-4-hydroxy-L-prolinol", "(2S,4R)-tert-Butyl 4-hydroxy-2-(hydroxymethyl)pyrrolidine-1-carboxylate"], "SMILES": "C(OC(C)(C)C)(=O)N1C(CO)CC(O)C1", "physical_data": {"Molecular Weight": "217.26", "Molecular Formula": "C10H19NO4", "Melting Point": "53-55 \u00b0C"}}