{"cas_no": "61477-96-1", "cn_name": "\u54cc\u62c9\u897f\u6797", "en_name": ["Piperacillin", "4-Thia-1-azabicyclo[3.2.0]heptane-2-carboxylic acid, 6-[[(2R)-2-[[(4-ethyl-2,3-dioxo-1-piperazinyl)carbonyl]amino]-2-phenylacetyl]amino]-3,3-dimethyl-7-oxo-, (2S,5R,6R)-", "4-Thia-1-azabicyclo[3.2.0]heptane-2-carboxylic acid, 6-[[[[(4-ethyl-2,3-dioxo-1-piperazinyl)carbonyl]amino]phenylacetyl]amino]-3,3-dimethyl-7-oxo-, [2S-[2\u03b1,5\u03b1,6\u03b2(S*)]]-", "4-Thia-1-azabicyclo[3.2.0]heptane-2-carboxylic acid, 6-[[(2R)-[[(4-ethyl-2,3-dioxo-1-piperazinyl)carbonyl]amino]phenylacetyl]amino]-3,3-dimethyl-7-oxo-, (2S,5R,6R)-", "(2S,5R,6R)-6-[[(2R)-2-[[(4-Ethyl-2,3-dioxo-1-piperazinyl)carbonyl]amino]-2-phenylacetyl]amino]-3,3-dimethyl-7-oxo-4-thia-1-azabicyclo[3.2.0]heptane-2-carboxylic acid", "Piperacillin", "Pipracil", "MeSH ID: D010878"], "SMILES": "N(C(C(NC(=O)N1C(=O)C(=O)N(CC)CC1)C2=CC=CC=C2)=O)C3C4N(C(C(O)=O)C(C)(C)S4)C3=O", "physical_data": {"Molecular Weight": "517.55", "Molecular Formula": "C23H27N5O7S", "Melting Point": "180-184 \u00b0C"}}