{"cas_no": "6147-66-6", "cn_name": "N-2-\u4e19\u70ef\u57fa-2-\u4e19\u70ef-1-\u80fa\u76d0\u9178\u76d0", "en_name": ["Diallylammonium chloride", "2-Propen-1-amine, N-2-propen-1-yl-, hydrochloride (1:1)", "Diallylamine, hydrochloride", "2-Propen-1-amine, N-2-propenyl-, hydrochloride", "Diallylammonium chloride", "Pyrrolidine, 3,4-bis(methylene)-, hydrochloride (1:1)"], "SMILES": "N(CC=C)CC=C.Cl", "physical_data": {"Molecular Weight": "", "Molecular Formula": "C6H11N.ClH", "Melting Point": "164-165 \u00b0C"}}