{"cas_no": "6147-53-1", "cn_name": "\u56db\u6c34\u5408\u4e59\u9178\u94b4", "en_name": ["Cobalt acetate tetrahydrate", "Acetic acid, cobalt(2+) salt, hydrate (2:1:4)", "Acetic acid, cobalt(2+) salt, tetrahydrate", "Cobaltous acetate tetrahydrate", "Cobalt acetate tetrahydrate", "Cobalt diacetate tetrahydrate", "Cobalt(2+) acetate tetrahydrate", "Cobalt(II) acetate tetrahydrate", "Cobalt(2+) diacetate tetrahydrate"], "SMILES": "C(C)(O)=O.[Co].O", "physical_data": {"Molecular Weight": "", "Molecular Formula": "C2H4O2.<sup>1</sup>/2Co.2H2O", "Melting Point": "140 \u00b0C", "Density": "1.7 g/cm\u00b3"}}