{"cas_no": "6149-33-3", "cn_name": "4-\u785d\u57fa-4'-\u6c28\u57fa\u4e8c\u82ef\u919a", "en_name": ["4-(4-Nitrophenoxy)benzenamine", "Benzenamine, 4-(4-nitrophenoxy)-", "Aniline, p-(p-nitrophenoxy)-", "4-(4-Nitrophenoxy)benzenamine", "4-Nitro-4\u2032-aminodiphenyl ether", "p-Aminophenyl p-nitrophenyl ether", "4-Amino-4\u2032-nitrodiphenyl ether", "p-Nitrophenyl p-aminophenyl ether", "4-Aminophenyl 4-nitrophenyl ether", "p-(p-Nitrophenoxy)aniline", "4-Amino-4\u2032-nitrophenyl ether", "4-(4-Nitrophenoxy)aniline", "NSC 74273", "[4-(4-Nitrophenoxy)phenyl]amine"], "SMILES": "O(C1=CC=C(N(=O)=O)C=C1)C2=CC=C(N)C=C2", "physical_data": {"Molecular Weight": "230.22", "Molecular Formula": "C12H10N2O3", "Melting Point": "134-135 \u00b0C"}}