{"cas_no": "615-94-1", "cn_name": "2,5-\u4e8c\u7f9f\u57fa-1,4-\u82ef\u55b9\u916e", "en_name": ["2,5-Dihydroxy-1,4-benzoquinone", "2,5-Cyclohexadiene-1,4-dione, 2,5-dihydroxy-", "p-Benzoquinone, 2,5-dihydroxy-", "Quinone, 2,5-dihydroxy-", "2,5-Dihydroxy-2,5-cyclohexadiene-1,4-dione", "2,5-Dihydroxy-p-benzoquinone", "2,5-Dihydroxy-1,4-benzoquinone", "2,5-Dihydroxycyclohexa-2,5-diene-1,4-dione", "Anilic acid", "NSC 3843"], "SMILES": "O=C1C(O)=CC(=O)C(O)=C1", "physical_data": {"Molecular Weight": "140.09", "Molecular Formula": "C6H4O4", "Melting Point": "169-170 \u00b0C"}}