{"cas_no": "615-10-1", "cn_name": "2-\u544b\u5583\u7532\u9178\u4e19\u916f", "en_name": ["Propyl 2-furancarboxylate", "2-Furancarboxylic acid, propyl ester", "2-Furoic acid, propyl ester", "Propyl 2-furancarboxylate", "Propyl 2-furoate", "Propyl \u03b1-furoate", "NSC 35559"], "SMILES": "C(OCCC)(=O)C1=CC=CO1", "physical_data": {"Molecular Weight": "154.16", "Molecular Formula": "C8H10O3", "Boiling Point": "89 \u00b0C @ Press: 4 Torr"}}