{"cas_no": "615-20-3", "cn_name": "2-\u6c2f\u82ef\u5e76\u567b\u5511", "en_name": ["2-Chlorobenzothiazole", "Benzothiazole, 2-chloro-", "Benzothiazole, 1-chloro-", "2-Chlorobenzothiazole", "NSC 8442", "2-Chloro-1,3-benzothiazole", "2-Chlorobenzo[d]thiazole", "2-Chloro-1H-benzo[d]thiazole"], "SMILES": "ClC1=NC=2C(S1)=CC=CC2", "physical_data": {"Molecular Weight": "169.63", "Molecular Formula": "C7H4ClNS", "Boiling Point": "248 \u00b0C", "Melting Point": "24 \u00b0C"}}