{"cas_no": "615-41-8", "cn_name": "1-\u6c2f-2-\u7898\u82ef", "en_name": ["1-Chloro-2-iodobenzene", "Benzene, 1-chloro-2-iodo-", "1-Chloro-2-iodobenzene", "o-Chloroiodobenzene", "2-Iodochlorobenzene", "2-Chloroiodobenzene", "o-Iodochlorobenzene", "2-Chlorophenyl iodide", "o-Chlorophenyl iodide", "2-Chloro-1-iodobenzene", "NSC 32860", "1-Iodo-2-chlorobenzene", "2-Iodophenyl chloride"], "SMILES": "ClC1=C(I)C=CC=C1", "physical_data": {"Molecular Weight": "238.45", "Molecular Formula": "C6H4ClI", "Boiling Point": "234.5 \u00b0C", "Melting Point": "0.7 \u00b0C"}}