{"cas_no": "615-77-0", "cn_name": "1-\u7532\u57fa\u5c3f\u5627\u5576", "en_name": ["1-Methyluracil", "2,4(1H,3H)-Pyrimidinedione, 1-methyl-", "Uracil, 1-methyl-", "1-Methyl-2,4(1H,3H)-pyrimidinedione", "1-Methyluracil", "N1-Methyluracil", "NSC 44432", "Pseudothymine", "1-Methyl-1H,3H-pyrimidine-2,4-dione", "1-Methylpyrimidine-2,4-dione", "1-Methyl-1,2,3,4-tetrahydropyrimidine-2,4-dione"], "SMILES": "O=C1N(C)C=CC(=O)N1", "physical_data": {"Molecular Weight": "126.11", "Molecular Formula": "C5H6N2O2", "Melting Point": "237 \u00b0C"}}