{"cas_no": "615-59-8", "cn_name": "2,5-\u4e8c\u6eb4\u7532\u82ef", "en_name": ["2,5-Dibromotoluene", "Benzene, 1,4-dibromo-2-methyl-", "Toluene, 2,5-dibromo-", "1,4-Dibromo-2-methylbenzene", "2,5-Dibromotoluene", "NSC 6222", "3,6-Dibromotoluene", "1,4-Dibromotoluene"], "SMILES": "CC1=C(Br)C=CC(Br)=C1", "physical_data": {"Molecular Weight": "249.93", "Molecular Formula": "C7H6Br2", "Boiling Point": "236 \u00b0C", "Melting Point": "5.6 \u00b0C", "Density": "1.8154 g/cm\u00b3 @ Temp: 25 \u00b0C"}}