{"cas_no": "615-65-6", "cn_name": "2-\u6c2f-4-\u7532\u57fa\u82ef\u80fa", "en_name": ["2-Chloro-4-methylaniline", "Benzenamine, 2-chloro-4-methyl-", "p-Toluidine, 2-chloro-", "2-Chloro-4-methylbenzenamine", "2-Chloro-p-toluidine", "2-Chloro-4-methylaniline", "3-Chloro-4-aminotoluene", "4-Methyl-2-chloroaniline", "4-Amino-3-chlorotoluene", "1-Amino-2-chloro-4-methylbenzene", "(2-Chloro-4-methylphenyl)amine", "NSC 60120"], "SMILES": "ClC1=C(N)C=CC(C)=C1", "physical_data": {"Molecular Weight": "141.60", "Molecular Formula": "C7H8ClN", "Boiling Point": "219 \u00b0C @ Press: 732 Torr", "Melting Point": "7 \u00b0C", "Density": "1.151 g/cm\u00b3 @ Temp: 20 \u00b0C"}}