{"cas_no": "615-67-8", "cn_name": "\u6c2f\u6c22\u918c", "en_name": ["Chlorohydroquinone", "1,4-Benzenediol, 2-chloro-", "Hydroquinone, chloro-", "2-Chloro-1,4-benzenediol", "Chlorohydroquinone", "1,4-Dihydroxy-2-chlorobenzene", "Chloroquinol", "Monochlorohydroquinone", "2-Chlorohydroquinone", "2-Chloro-1,4-dihydroxybenzene", "1-Chloro-2,5-dihydroxybenzene", "Chloro-p-hydroquinone", "2-Chloro-1,4-hydroquinone", "NSC 427", "NSC 5934"], "SMILES": "ClC1=C(O)C=CC(O)=C1", "physical_data": {"Molecular Weight": "144.56", "Molecular Formula": "C6H5ClO2", "Boiling Point": "263 \u00b0C", "Melting Point": "100 \u00b0C"}}