{"cas_no": "615-37-2", "cn_name": "2-\u7898\u4ee3\u7532\u82ef", "en_name": ["2-Iodotoluene", "Benzene, 1-iodo-2-methyl-", "Toluene, o-iodo-", "1-Iodo-2-methylbenzene", "o-Methyliodobenzene", "o-Iodotoluene", "2-Iodotoluene", "o-Tolyl iodide", "2-Methyl-1-iodobenzene", "2-Methyliodobenzene", "2-Methylphenyl iodide", "o-Methylphenyl iodide", "NSC 3774", "2-Tolyl iodide", "Iodo-2-methylbenzene"], "SMILES": "CC1=C(I)C=CC=C1", "physical_data": {"Molecular Weight": "218.04", "Molecular Formula": "C7H7I", "Boiling Point": "211.5 \u00b0C", "Melting Point": "162 \u00b0C", "Density": "1.7090 g/cm\u00b3 @ Temp: 20 \u00b0C"}}