{"cas_no": "615-76-9", "cn_name": "6-\u6c2e\u6742-2-\u786b\u4ee3\u80f8\u817a\u5627\u5576", "en_name": ["6-Aza-2-thiothymine", "1,2,4-Triazin-5(2H)-one, 3,4-dihydro-6-methyl-3-thioxo-", "as-Triazine-3,5(2H,4H)-dione, 6-methyl-3-thio-", "as-Triazin-5-ol, 3-mercapto-6-methyl-", "3,4-Dihydro-6-methyl-3-thioxo-1,2,4-triazin-5(2H)-one", "5-Methyl-2-thio-6-azauracil", "2-Thio-6-azathymine", "3-Mercapto-5-hydroxy-6-methyl-1,2,4-triazine", "6-Aza-2-thiothymine", "NSC 102906", "NSC 1609", "NSC 38618", "3-Mercapto-6-methyl-1,2,4-triazin-5-ol", "3-Mercapto-6-methyl-1,2,4-triazin-5(4H)-one"], "SMILES": "O=C1C(C)=NNC(=S)N1", "physical_data": {"Molecular Weight": "143.17", "Molecular Formula": "C4H5N3OS", "Melting Point": "218-219 \u00b0C"}}