{"cas_no": "615-60-1", "cn_name": "4-\u6c2f-1,2-\u4e8c\u7532\u57fa\u82ef", "en_name": ["4-Chloro-1,2-dimethylbenzene", "Benzene, 4-chloro-1,2-dimethyl-", "o-Xylene, 4-chloro-", "4-Chloro-1,2-dimethylbenzene", "4-Chloro-o-xylene", "1-Chloro-3,4-dimethylbenzene", "3,4-Dimethylchlorobenzene", "p-Chloro-o-xylene", "1,2-Dimethyl-4-chlorobenzene", "3,4-Dimethylphenyl chloride"], "SMILES": "CC1=C(C)C=CC(Cl)=C1", "physical_data": {"Molecular Weight": "140.61", "Molecular Formula": "C8H9Cl", "Boiling Point": "194 \u00b0C", "Melting Point": "-6 \u00b0C"}}