{"cas_no": "615-55-4", "cn_name": "3,4-\u4e8c\u6eb4\u82ef\u80fa", "en_name": ["3,4-Dibromobenzenamine", "Benzenamine, 3,4-dibromo-", "Aniline, 3,4-dibromo-", "3,4-Dibromobenzenamine", "3,4-Dibromoaniline"], "SMILES": "BrC1=C(Br)C=CC(N)=C1", "physical_data": {"Molecular Weight": "250.92", "Molecular Formula": "C6H5Br2N", "Melting Point": "221 \u00b0C"}}