{"cas_no": "615-83-8", "cn_name": "2-\u6eb4\u620a\u9178\u4e59\u916f", "en_name": ["Pentanoic acid, 2-bromo-, ethyl ester", "Pentanoic acid, 2-bromo-, ethyl ester", "Valeric acid, 2-bromo-, ethyl ester", "Ethyl \u03b1-bromovalerate", "2-Bromovaleric acid ethyl ester", "Ethyl 2-bromopentanoate", "Ethyl 2-bromovalerate", "2-Bromopentanoic acid ethyl ester", "NSC 8865"], "SMILES": "C(C(OCC)=O)(CCC)Br", "physical_data": {"Molecular Weight": "209.08", "Molecular Formula": "C7H13BrO2", "Boiling Point": "191 \u00b0C"}}