{"cas_no": "615-15-6", "cn_name": "2-\u7532\u57fa\u82ef\u5e76\u54aa\u5511", "en_name": ["2-Methylbenzimidazole", "1H-Benzimidazole, 2-methyl-", "Benzimidazole, 2-methyl-", "2-Methyl-1H-benzimidazole", "2-Methylbenzimidazole", "NSC 6500", "2-Methylbenzoimidazole", "2-Methyl-1H-1,3-benzodiazole", "2-Methyl-1H-benzo[d]imidazole"], "SMILES": "CC=1NC=2C(N1)=CC=CC2", "physical_data": {"Molecular Weight": "132.16", "Molecular Formula": "C8H8N2", "Melting Point": "176-177 \u00b0C"}}