{"cas_no": "615-74-7", "cn_name": "6-\u6c2f\u95f4\u7532\u915a OR 3-\u7532\u57fa-6-\u6c2f\u82ef\u915a", "en_name": ["2-Chloro-5-methylphenol", "Phenol, 2-chloro-5-methyl-", "m-Cresol, 6-chloro-", "2-Chloro-5-methylphenol", "6-Chloro-m-cresol", "3-Methyl-6-chlorophenol", "5-Methyl-2-chlorophenol", "6-Chloro-3-methylphenol", "4-Chloro-3-hydroxytoluene", "1-Chloro-2-hydroxy-4-methylbenzene"], "SMILES": "OC1=C(Cl)C=CC(C)=C1", "physical_data": {"Molecular Weight": "142.58", "Molecular Formula": "C7H7ClO", "Boiling Point": "196 \u00b0C", "Melting Point": "45.5 \u00b0C", "Density": "1.215 g/cm\u00b3"}}