{"cas_no": "615-43-0", "cn_name": "2-\u7898\u82ef\u80fa", "en_name": ["2-Iodoaniline", "Benzenamine, 2-iodo-", "Aniline, o-iodo-", "2-Iodobenzenamine", "o-Aminoiodobenzene", "2-Iodoaniline", "o-Iodoaniline", "2-Aminophenyl iodide", "NSC 34544", "1-Amino-2-iodobenzene", "2-Iodophenylamine", "2-Aminoiodobenzene"], "SMILES": "IC1=C(N)C=CC=C1", "physical_data": {"Molecular Weight": "219.02", "Molecular Formula": "C6H6IN", "Melting Point": "56.5 \u00b0C"}}