{"cas_no": "615-62-3", "cn_name": "3-\u6c2f-4-\u7532\u57fa\u82ef\u915a", "en_name": ["3-Chloro-4-methylphenol", "Phenol, 3-chloro-4-methyl-", "p-Cresol, 3-chloro-", "3-Chloro-4-methylphenol", "2-Chloro-4-hydroxytoluene", "NSC 157351"], "SMILES": "ClC1=C(C)C=CC(O)=C1", "physical_data": {"Molecular Weight": "142.58", "Molecular Formula": "C7H7ClO", "Boiling Point": "228 \u00b0C", "Melting Point": "55.5 \u00b0C"}}