{"cas_no": "615-84-9", "cn_name": "N,N\u02ca-\u4e8c\u4e59\u57fa\u4e59\u4e8c\u9170\u80fa", "en_name": ["N1,N2-Diethylethanediamide", "Ethanediamide, N1,N2-diethyl-", "Oxamide, N,N\u2032-diethyl-", "Ethanediamide, N,N\u2032-diethyl-", "N1,N2-Diethylethanediamide", "N,N\u2032-Diethyloxamide", "N,N\u2032-Diethyloxalamide", "NSC 243629"], "SMILES": "C(C(NCC)=O)(NCC)=O", "physical_data": {"Molecular Weight": "144.17", "Molecular Formula": "C6H12N2O2", "Melting Point": "175 \u00b0C"}}