{"cas_no": "615-28-1", "cn_name": "\u90bb\u82ef\u4e8c\u80fa\u76d0\u9178\u76d0(\u8bd5\u5242)", "en_name": ["o-Phenylenediamine, dihydrochloride", "1,2-Benzenediamine, hydrochloride (1:2)", "o-Phenylenediamine, dihydrochloride", "1,2-Benzenediamine, dihydrochloride", "1,2-Phenylenediamine dihydrochloride", "1,2-Diaminobenzene dihydrochloride"], "SMILES": "NC1=C(N)C=CC=C1.Cl", "physical_data": {"Molecular Weight": "", "Molecular Formula": "C6H8N2.2ClH", "Melting Point": "200 \u00b0C (decomp)"}}