{"cas_no": "615-79-2", "cn_name": "\u4e59\u9170\u4e19\u916e\u9178\u4e59\u916f", "en_name": ["Pentanoic acid, 2,4-dioxo-, ethyl ester", "Pentanoic acid, 2,4-dioxo-, ethyl ester", "Valeric acid, 2,4-dioxo-, ethyl ester", "Ethyl 2,4-dioxovalerate", "Ethyl acetopyruvate", "Ethoxalylacetone", "Ethyl 2,4-dioxopentanoate", "Ethyl (acetylmethyl)glyoxylate", "Ethyl acetylpyruvate", "2,4-Dioxopentanoic acid ethyl ester", "NSC 1243", "NSC 97434"], "SMILES": "C(C(OCC)=O)(CC(C)=O)=O", "physical_data": {"Molecular Weight": "158.15", "Molecular Formula": "C7H10O4", "Boiling Point": "214 \u00b0C", "Melting Point": "18 \u00b0C"}}