{"cas_no": "615-87-2", "cn_name": "2,4-\u4e8c\u6eb4-1,5-\u4e8c\u7532\u82ef", "en_name": ["1,5-Dibromo-2,4-dimethylbenzene", "Benzene, 1,5-dibromo-2,4-dimethyl-", "m-Xylene, 4,6-dibromo-", "1,5-Dibromo-2,4-dimethylbenzene", "4,6-Dibromo-1,3-xylene", "4,6-Dibromo-m-xylene", "2,4-Dibromo-1,5-dimethylbenzene"], "SMILES": "BrC1=C(C)C=C(C)C(Br)=C1", "physical_data": {"Molecular Weight": "263.96", "Molecular Formula": "C8H8Br2", "Melting Point": "69 \u00b0C"}}