{"cas_no": "615-58-7", "cn_name": "2,4-\u4e8c\u6eb4\u82ef\u915a", "en_name": ["2,4-Dibromophenol", "Phenol, 2,4-dibromo-", "2,4-Dibromophenol", "NSC 5723", "NSC 6213"], "SMILES": "BrC1=C(O)C=CC(Br)=C1", "physical_data": {"Molecular Weight": "251.90", "Molecular Formula": "C6H4Br2O", "Boiling Point": "238.5 \u00b0C", "Melting Point": "38 \u00b0C"}}