{"cas_no": "615-53-2", "cn_name": "N-\u7532\u57fa-N-\u4e9a\u785d\u57fa\u6c28\u57fa\u7532\u9178\u4e59\u916f", "en_name": ["Carbamic acid, N-methyl-N-nitroso-, ethyl ester", "Carbamic acid, N-methyl-N-nitroso-, ethyl ester", "Carbamic acid, methylnitroso-, ethyl ester", "N-Methyl-N-nitrosourethane", "Nitrosomethylurethane", "Methylnitrosourethane", "N-Nitroso-N-methylurethane", "NSC 2860", "Ethyl N-methylnitrosocarbamate", "NMU", "Ethyl N-methyl-N-nitrosocarbamate", "MeSH ID: D009605"], "SMILES": "C(N(N=O)C)(OCC)=O", "physical_data": {"Molecular Weight": "132.12", "Molecular Formula": "C4H8N2O3", "Boiling Point": "70 \u00b0C @ Press: 27 Torr", "Density": "1.133 g/cm\u00b3 @ Temp: 20 \u00b0C"}}