{"cas_no": "615-66-7", "cn_name": "2-\u6c2f-4-\u6c28\u57fa\u82ef\u80fa", "en_name": ["2-Chloro-p-phenylenediamine", "1,4-Benzenediamine, 2-chloro-", "p-Phenylenediamine, 2-chloro-", "2-Chloro-1,4-benzenediamine", "C.I. 76065", "3-Chloro-4-aminoaniline", "Ursol Brown O", "2-Chloro-p-phenylenediamine", "2-Chloro-1,4-phenylenediamine", "1,4-Diamino-2-chlorobenzene", "2-Chloro-1,4-diaminobenzene", "2,5-Diaminochlorobenzene", "4-Amino-2-chloroaniline", "3-Chloro-1,4-phenylenediamine"], "SMILES": "ClC1=C(N)C=CC(N)=C1", "physical_data": {"Molecular Weight": "142.59", "Molecular Formula": "C6H7ClN2", "Melting Point": "63 \u00b0C"}}