{"cas_no": "615-90-7", "cn_name": "2,5-\u4e8c\u7532\u57fa-1,4-\u82ef\u4e8c\u9187", "en_name": ["2,5-Dimethylhydroquinone", "1,4-Benzenediol, 2,5-dimethyl-", "Hydroquinone, 2,5-dimethyl-", "2,5-Dimethyl-1,4-benzenediol", "p-Xylene-2,5-diol", "Hydrophloron", "2,5-Dimethylhydroquinone", "2,5-Xylohydroquinone", "2,5-Dimethyl-1,4-hydroquinone", "2,5-Dimethyl-p-hydroquinone", "2,5-Dimethyl-p-benzohydroquinone", "2,5-Dimethylbenzene-1,4-diol", "2,5-Dimethyl-p-benzenediol", "DMBQ(H)", "NSC 401090", "1,4-Dihydroxy-2,5-dimethylbenzene", "2,5-Dimethyl-1,4-dihydroxybenzene"], "SMILES": "CC1=C(O)C=C(C)C(O)=C1", "physical_data": {"Molecular Weight": "138.16", "Molecular Formula": "C8H10O2", "Melting Point": "212-215 \u00b0C"}}