{"cas_no": "615-13-4", "cn_name": "2-\u831a\u916e", "en_name": ["2-Indanone", "2H-Inden-2-one, 1,3-dihydro-", "2-Indanone", "1,3-Dihydro-2H-inden-2-one", "2-Oxoindane", "1H-Inden-2(3H)-one", "2-Oxobenzocyclopentane", "2,3-Dihydro-1H-inden-2-one", "1,3-Dihydroinden-2-one"], "SMILES": "O=C1CC=2C(C1)=CC=CC2", "physical_data": {"Molecular Weight": "132.16", "Molecular Formula": "C9H8O", "Boiling Point": "84-89 \u00b0C @ Press: 0.1 Torr", "Melting Point": "59 \u00b0C", "Density": "1.0712 g/cm\u00b3 @ Temp: 66.8 \u00b0C"}}