{"cas_no": "615-57-6", "cn_name": "2,4-\u4e8c\u6eb4\u82ef\u80fa", "en_name": ["2,4-Dibromoaniline", "Benzenamine, 2,4-dibromo-", "Aniline, 2,4-dibromo-", "2,4-Dibromobenzenamine", "2,4-Dibromoaniline", "NSC 88324", "(2,4-Dibromophenyl)amine"], "SMILES": "BrC1=C(N)C=CC(Br)=C1", "physical_data": {"Molecular Weight": "250.92", "Molecular Formula": "C6H5Br2N", "Boiling Point": "156 \u00b0C", "Melting Point": "79.5 \u00b0C", "Density": "2.260 g/cm\u00b3"}}