{"cas_no": "615-36-1", "cn_name": "2-\u6eb4\u82ef\u80fa", "en_name": ["2-Bromoaniline", "Benzenamine, 2-bromo-", "Aniline, o-bromo-", "2-Bromobenzenamine", "o-Aminobromobenzene", "o-Bromoaniline", "2-Bromoaniline", "2-Amino-1-bromobenzene", "NSC 7086", "2-Bromophenylamine", "2-Aminobromobenzene"], "SMILES": "BrC1=C(N)C=CC=C1", "physical_data": {"Molecular Weight": "172.02", "Molecular Formula": "C6H6BrN", "Boiling Point": "229 \u00b0C", "Melting Point": "32 \u00b0C", "Density": "1.52 g/cm\u00b3"}}