{"cas_no": "615-05-4", "cn_name": "4-\u7532\u6c27\u57fa\u95f4\u82ef\u4e8c\u80fa", "en_name": ["2,4-Diaminoanisole", "1,3-Benzenediamine, 4-methoxy-", "m-Phenylenediamine, 4-methoxy-", "4-Methoxy-1,3-benzenediamine", "C.I. 76050", "C.I. Oxidation Base 12", "2,4-Diaminoanisole", "Furro L", "Pelagol L", "Pelagol DA", "Pelagol Grey L", "4-Methoxy-m-phenylenediamine", "1,3-Diamino-4-methoxybenzene", "p-Methoxy-m-phenylenediamine", "3-Amino-4-methoxyaniline", "2,4-Diaminophenyl methyl ether", "4-Methoxy-1,3-phenylenediamine", "2,4-Diamino-1-methoxybenzene", "1-Methoxy-2,4-diaminobenzene"], "SMILES": "O(C)C1=C(N)C=C(N)C=C1", "physical_data": {"Molecular Weight": "138.17", "Molecular Formula": "C7H10N2O", "Boiling Point": "221 \u00b0C", "Melting Point": "67-68 \u00b0C"}}