{"cas_no": "615-42-9", "cn_name": "1,2-\u4e8c\u7898\u82ef", "en_name": ["1,2-Diiodobenzene", "Benzene, 1,2-diiodo-", "Benzene, o-diiodo-", "1,2-Diiodobenzene", "o-Diiodobenzene", "1,2-Phenylene diiodide", "NSC 29029"], "SMILES": "IC1=C(I)C=CC=C1", "physical_data": {"Molecular Weight": "329.90", "Molecular Formula": "C6H4I2", "Boiling Point": "287 \u00b0C", "Melting Point": "27 \u00b0C"}}