{"cas_no": "615-21-4", "cn_name": "2-\u80bc\u57fa\u82ef\u5e76\u567b\u5511", "en_name": ["2-Benzothiazolinone, hydrazone", "Benzothiazole, 2-hydrazinyl-", "Benzothiazole, 2-hydrazino-", "2(3H)-Benzothiazolone, hydrazone", "2-Benzothiazolinone, hydrazone", "2-Hydrazinylbenzothiazole", "2-Hydrazinobenzothiazole", "(2-Benzothiazolyl)hydrazine", "2-Hydrazonobenzothiazole", "NSC 315248", "NSC 3271", "Hydrazinobenzothiazole", "2-Hydrazinyl-1,3-benzothiazole", "2-Hydrazinylbenzo[d]thiazole", "1,3-Benzothiazol-2-ylhydrazine"], "SMILES": "N(N)=C1NC=2C(S1)=CC=CC2", "physical_data": {"Molecular Weight": "165.22", "Molecular Formula": "C7H7N3S", "Melting Point": "205 \u00b0C"}}