{"cas_no": "615-16-7", "cn_name": "2-\u7f9f\u57fa\u82ef\u5e76\u54aa\u5511", "en_name": ["2-Benzimidazolinone", "2H-Benzimidazol-2-one, 1,3-dihydro-", "2-Benzimidazolinone", "1,3-Dihydro-2H-benzimidazol-2-one", "o-Phenyleneurea", "Urea, N,N\u2032-(1,2-phenylene)-", "N,N\u2032-(1,2-Phenyleneurea)", "1,3-Dihydro-2H-benzimidazole-2-one", "2-Benzimidazolol", "2-Hydroxybenzimidazole", "2(3H)-Benzimidazolone", "2-Benzimidazolone", "2(3H)-Oxobenzimidazole", "2,3-Dihydro-2-oxo-1H-benzimidazole", "NSC 10383", "NSC 178108", "1,3-Dihydrobenzimidazol-2-one", "1H-Benzimidazol-2(3H)-one", "1H-Benzo[d]imidazol-2(3H)-one", "1,3-Dihydro-2H-benzo[d]imidazol-2-one", "1H-1,3-Benzodiazol-2-ol", "1H-Benzoimidazol-2-ol", "1,3-Dihydro-benzoimidazol-2-one", "2,3-Dihydro-1H-1,3-benzodiazol-2-one"], "SMILES": "O=C1NC=2C(N1)=CC=CC2", "physical_data": {"Molecular Weight": "134.14", "Molecular Formula": "C7H6N2O", "Boiling Point": "185-190 \u00b0C @ Press: 0.01 Torr", "Melting Point": "&gt;300 \u00b0C"}}