{"cas_no": "615-22-5", "cn_name": "2-\u7532\u786b\u57fa\u82ef\u5e76\u567b\u5511", "en_name": ["2-(Methylthio)benzothiazole", "Benzothiazole, 2-(methylthio)-", "2-(Methylthio)benzothiazole", "2-(Methylmercapto)benzothiazole", "Methylcaptax", "NSC 31259", "NSC 41046", "NSC 5352", "2-Methylsulfanyl-1,3-benzothiazole", "2-(Methylthio)benzo[d]thiazole"], "SMILES": "S(C)C1=NC=2C(S1)=CC=CC2", "physical_data": {"Molecular Weight": "181.28", "Molecular Formula": "C8H7NS2", "Boiling Point": "174-175 \u00b0C @ Press: 22 Torr", "Melting Point": "44 \u00b0C"}}