{"cas_no": "615-93-0", "cn_name": "2,5-\u4e8c\u6c2f\u5bf9\u82ef\u4e8c\u918c", "en_name": ["2,5-Dichloro-1,4-benzoquinone", "2,5-Cyclohexadiene-1,4-dione, 2,5-dichloro-", "p-Benzoquinone, 2,5-dichloro-", "Quinone, 2,5-dichloro-", "2,5-Dichloro-2,5-cyclohexadiene-1,4-dione", "2,5-Dichloro-p-benzoquinone", "2,5-Dichloro-1,4-benzoquinone", "NSC 6251"], "SMILES": "ClC=1C(=O)C=C(Cl)C(=O)C1", "physical_data": {"Molecular Weight": "176.98", "Molecular Formula": "C6H2Cl2O2", "Melting Point": "161 \u00b0C"}}