{"cas_no": "615-35-0", "cn_name": "N,N'-\u4e8c\u7532\u57fa\u8349\u9170\u80fa", "en_name": ["N1,N2-Dimethylethanediamide", "Ethanediamide, N1,N2-dimethyl-", "Oxamide, N,N\u2032-dimethyl-", "Ethanediamide, N,N\u2032-dimethyl-", "N1,N2-Dimethylethanediamide", "N,N\u2032-Dimethyloxalamide", "N,N\u2032-Dimethyloxamide", "N,N\u2032-Dimethylethanediamide", "NSC 80645"], "SMILES": "C(C(NC)=O)(NC)=O", "physical_data": {"Molecular Weight": "116.12", "Molecular Formula": "C4H8N2O2", "Melting Point": "217 \u00b0C"}}