{"cas_no": "615-96-3", "cn_name": "2-\u6eb4\u5df1\u9178\u4e59\u916f", "en_name": ["Hexanoic acid, 2-bromo-, ethyl ester", "Hexanoic acid, 2-bromo-, ethyl ester", "Ethyl 2-bromohexanoate", "2-Bromohexanoic acid ethyl ester", "Ethyl 2-bromocaproate", "Ethyl \u03b1-bromocaproate", "DL-Ethyl 2-bromohexanoate", "NSC 8879"], "SMILES": "C(C(OCC)=O)(CCCC)Br", "physical_data": {"Molecular Weight": "223.11", "Molecular Formula": "C8H15BrO2", "Boiling Point": "95-96 \u00b0C @ Press: 9 Torr"}}