{"cas_no": "615-18-9", "cn_name": "2-\u6c2f\u82ef\u5e76\u6076\u5511", "en_name": ["2-Chlorobenzoxazole", "Benzoxazole, 2-chloro-", "2-Chlorobenzoxazole", "NSC 8439", "2-Chlorobenzo[d]oxazole", "2-Chloro-1,3-benzoxazole"], "SMILES": "ClC1=NC=2C(O1)=CC=CC2", "physical_data": {"Molecular Weight": "153.57", "Molecular Formula": "C7H4ClNO", "Boiling Point": "201.5 \u00b0C", "Melting Point": "7 \u00b0C", "Density": "1.32 g/cm\u00b3"}}