{"cas_no": "615-54-3", "cn_name": "1,2,4-\u4e09\u6eb4\u82ef", "en_name": ["1,2,4-Tribromobenzene", "Benzene, 1,2,4-tribromo-", "1,2,4-Tribromobenzene", "NSC 62440"], "SMILES": "BrC1=C(Br)C=CC(Br)=C1", "physical_data": {"Molecular Weight": "314.80", "Molecular Formula": "C6H3Br3", "Boiling Point": "275 \u00b0C", "Melting Point": "44.5 \u00b0C"}}