{"cas_no": "61500-87-6", "cn_name": "2-\u6c28\u57fa-4-\u4e09\u6c1f\u7532\u57fa\u82ef\u7532\u9178\u7532\u916f", "en_name": ["Methyl 2-amino-4-(trifluoromethyl)benzoate", "Benzoic acid, 2-amino-4-(trifluoromethyl)-, methyl ester", "Methyl 2-amino-4-(trifluoromethyl)benzoate", "2-Amino-4-trifluoromethylbenzoic acid methyl ester"], "SMILES": "C(OC)(=O)C1=C(N)C=C(C(F)(F)F)C=C1", "physical_data": {"Molecular Weight": "219.16", "Molecular Formula": "C9H8F3NO2", "Melting Point": "65-68 \u00b0C"}}