{"cas_no": "61501-04-0", "cn_name": "2,2-\u4e8c\u7532\u57fa-1-\u82ef\u4e19\u80fa", "en_name": ["\u03b1-(1,1-Dimethylethyl)benzenemethanamine", "Benzenemethanamine, \u03b1-(1,1-dimethylethyl)-", "Benzylamine, \u03b1-tert-butyl-", "\u03b1-(1,1-Dimethylethyl)benzenemethanamine", "\u03b1-tert-Butylbenzylamine", "2,2-Dimethyl-1-phenylpropylamine", "2,2-Dimethyl-1-phenyl-propylamine", "2,2-Dimethyl-1-phenylpropan-1-amine"], "SMILES": "C(C(C)(C)C)(N)C1=CC=CC=C1", "physical_data": {"Molecular Weight": "163.26", "Molecular Formula": "C11H17N", "Boiling Point": "115 \u00b0C @ Press: 22 Torr"}}