{"cas_no": "61510-09-6", "cn_name": "\u80c6\u56fa\u9187\u5c71\u9178\u916f", "en_name": ["Cholesteryl behenate", "Cholest-5-en-3-ol (3\u03b2)-, 3-docosanoate", "Cholest-5-en-3-ol (3\u03b2)-, docosanoate", "Cholesterol, docosanoate", "Cholesteryl behenate", "Cholesteryl docosanoate", "Cholesterol behenate"], "SMILES": "CC12C3C(C4C(C)(CC3)C(C(CCCC(C)C)C)CC4)CC=C1CC(OC(CCCCCCCCCCCCCCCCCCCCC)=O)CC2", "physical_data": {"Molecular Weight": "709.22", "Molecular Formula": "C49H88O2", "Melting Point": "87.5-88 \u00b0C"}}