{"cas_no": "61516-73-2", "cn_name": "1-\u4e59\u9178\u4e59\u916f-2-\u5421\u54af\u70f7\u916e", "en_name": ["Ethyl (2-oxo-1-pyrrolidinyl)acetate", "1-Pyrrolidineacetic acid, 2-oxo-, ethyl ester", "Ethyl 2-oxo-1-pyrrolidineacetate", "Ethyl (2-oxo-1-pyrrolidinyl)acetate", "1-(Ethoxycarbonylmethyl)-2-pyrrolidone"], "SMILES": "C(C(OCC)=O)N1C(=O)CCC1", "physical_data": {"Molecular Weight": "171.19", "Molecular Formula": "C8H13NO3", "Boiling Point": "108-113 \u00b0C @ Press: 1-2 Torr"}}