{"cas_no": "61537-49-3", "cn_name": "\u5bf9\u7532\u57fa\u95f4\u7f9f\u57fa\u4e8c\u82ef\u80fa", "en_name": ["3-[(4-Methylphenyl)amino]phenol", "Phenol, 3-[(4-methylphenyl)amino]-", "3-[(4-Methylphenyl)amino]phenol", "5-[(4-Methylphenyl)amino]phenol", "3-p-Tolylamino-phenol"], "SMILES": "N(C1=CC(O)=CC=C1)C2=CC=C(C)C=C2", "physical_data": {"Molecular Weight": "199.25", "Molecular Formula": "C13H13NO", "Melting Point": "82 \u00b0C"}}