{"cas_no": "6153-56-6", "cn_name": "\u8349\u9178\u4e8c\u6c34\u5408\u7269", "en_name": ["Ethanedioic acid hydrate (1:2)", "Ethanedioic acid, hydrate (1:2)", "Oxalic acid, dihydrate", "Ethanedioic acid, dihydrate", "Ethanedioic acid hydrate (1:2)", "Oxybee", "Dany's BienenWohl"], "SMILES": "C(C(O)=O)(O)=O.O", "physical_data": {"Molecular Weight": "", "Molecular Formula": "C2H2O4.2H2O", "Melting Point": "102 \u00b0C", "Density": "1.0318 g/cm\u00b3 @ Temp: 15 \u00b0C"}}