{"cas_no": "6153-44-2", "cn_name": "\u4e73\u6e05\u9178\u7532\u916f", "en_name": ["Methyl 1,2,3,6-tetrahydro-2,6-dioxo-4-pyrimidinecarboxylate", "4-Pyrimidinecarboxylic acid, 1,2,3,6-tetrahydro-2,6-dioxo-, methyl ester", "Orotic acid, methyl ester", "Methyl 1,2,3,6-tetrahydro-2,6-dioxo-4-pyrimidinecarboxylate", "6-Carbomethoxyuracil", "Methyl orotate", "NSC 42009", "Methyl 2,6-dioxo-1,2,3,6-tetrahydropyrimidine-4-carboxylate", "6-(Methoxycarbonyl)uracil"], "SMILES": "C(OC)(=O)C1=CC(=O)NC(=O)N1", "physical_data": {"Molecular Weight": "170.12", "Molecular Formula": "C6H6N2O4", "Melting Point": "249 \u00b0C"}}