{"cas_no": "6153-92-0", "cn_name": "4,4'-\u8054\u82ef-2\uff0c2-\u4e8c\u5421\u5576", "en_name": ["4,4\u2032-Diphenyl-2,2\u2032-bipyridine", "2,2\u2032-Bipyridine, 4,4\u2032-diphenyl-", "4,4\u2032-Diphenyl-2,2\u2032-bipyridine", "4,4\u2032-Diphenyl-2,2\u2032-dipyridyl", "4,4\u2032-Diphenyl-2,2\u2032-bipyridyl", "4,4\u2032Diphenyl-2,2\u2032-dippyridyl"], "SMILES": "C1(=CC(=CC=N1)C2=CC=CC=C2)C3=CC(=CC=N3)C4=CC=CC=C4", "physical_data": {"Molecular Weight": "308.38", "Molecular Formula": "C22H16N2", "Melting Point": "187-188 \u00b0C"}}