{"cas_no": "6153-89-5", "cn_name": "5-\u82ef\u57fa-1,10-\u83f2\u7f57\u5549", "en_name": ["5-Phenyl-1,10-phenanthroline", "1,10-Phenanthroline, 5-phenyl-", "5-Phenyl-1,10-phenanthroline"], "SMILES": "C12=C(C=C3C(=C1N=CC=C2)N=CC=C3)C4=CC=CC=C4", "physical_data": {"Molecular Weight": "256.30", "Molecular Formula": "C18H12N2", "Melting Point": "202-203 \u00b0C"}}