{"cas_no": "6153-33-9", "cn_name": "\u7f8e\u6d77\u5c48\u6797\u8418\u4e8c\u78fa\u9178\u76d0", "en_name": ["Diazoline", "1,5-Naphthalenedisulfonic acid, compd. with 2,3,4,5-tetrahydro-2-methyl-5-(phenylmethyl)-1H-pyrido[4,3-b]indole (1:2)", "1,5-Naphthalenedisulfonic acid, compd. with 5-benzyl-2,3,4,5-tetrahydro-2-methyl-1H-pyrido[4,3-b]indole (1:2)", "2H-Pyrido[4,3-b]indole, 5-benzyl-1,3,4,5-tetrahydro-2-methyl-, 1,5-naphthalenedisulfonate (2:1)", "1H-Pyrido[4,3-b]indole, 5-benzyl-2,3,4,5-tetrahydro-2-methyl-, 1,5-naphthalenedisulfonate (2:1)", "1H-Pyrido[4,3-b]indole, 2,3,4,5-tetrahydro-2-methyl-5-(phenylmethyl)-, 1,5-naphthalenedisulfonate (2:1)", "Incidal", "Omeril", "Diazolin", "Diazoline", "Mebhydrolin napadisylate", "Fabahistin"], "SMILES": "S(=O)(=O)(O)C=1C2=C(C(S(=O)(=O)O)=CC=C2)C=CC1.C(N1C2=C(C=3C1=CC=CC3)CN(C)CC2)C4=CC=CC=C4", "physical_data": {"Molecular Weight": "", "Molecular Formula": "C19H20N2.<sup>1</sup>/2C10H8O6S2", "Melting Point": "280 \u00b0C (decomp)"}}