{"cas_no": "6154-04-7", "cn_name": "2-\u7532\u57fa-5-\u6c28\u57fa-2H-\u56db\u6c2e\u5511", "en_name": ["2-Methyl-2H-tetrazol-5-amine", "2H-Tetrazol-5-amine, 2-methyl-", "2H-Tetrazole, 5-amino-2-methyl-", "2-Methyl-2H-tetrazol-5-amine", "5-Amino-2-methyltetrazole", "2-Methyl-5-aminotetrazole", "5-Amino-2-methyl-2H-tetrazole", "2-Methyl-5-tetrazolamine", "NSC 141015", "(2-Methyl-2H-tetrazol-5-yl)amine", "2-Methyl-2H-1,2,3,4-tetrazol-5-amine"], "SMILES": "NC1=NN(C)N=N1", "physical_data": {"Molecular Weight": "99.09", "Molecular Formula": "C2H5N5", "Melting Point": "104.5-105.5 \u00b0C"}}