{"cas_no": "61546-00-7", "cn_name": "1-\u7532\u57fa-3-\u5341\u4e8c\u70f7\u57fa\u54aa\u5511\u6eb4\u76d0", "en_name": ["1-Dodecyl-3-methylimidazolium bromide", "1H-Imidazolium, 3-dodecyl-1-methyl-, bromide (1:1)", "1H-Imidazolium, 1-dodecyl-3-methyl-, bromide", "3-Dodecyl-1-methylimidazolium bromide", "1-Dodecyl-3-methyl-1H-imidazolium bromide", "1-Dodecyl-3-methylimidazolium bromide", "1-Methyl-3-dodecylimidazolium bromide", "1-Lauryl-3-methylimidazolium bromide", "1-Dodecyl-3-methylimidazole bromide"], "SMILES": "C(CCCCCCCCCCC)[N+]1=CN(C)C=C1.[Br-]", "physical_data": {"Molecular Weight": "", "Molecular Formula": "C16H31N2.Br", "Melting Point": "39.7 \u00b0C"}}