{"cas_no": "61563-26-6", "cn_name": "2,3-\u4e8c\u6eb4\u82ef\u7532\u919b", "en_name": ["2,3-Dibromobenzaldehyde", "Benzaldehyde, 2,3-dibromo-", "2,3-Dibromobenzaldehyde"], "SMILES": "C(=O)C1=C(Br)C(Br)=CC=C1", "physical_data": {"Molecular Weight": "263.91", "Molecular Formula": "C7H4Br2O", "Melting Point": "89.5-90.5 \u00b0C"}}