{"cas_no": "61566-34-5", "cn_name": "\u5e03\u6d1b\u82ac\u7532\u916f", "en_name": ["Ibuprofen methyl ester", "Benzeneacetic acid, \u03b1-methyl-4-(2-methylpropyl)-, methyl ester", "Methyl 2-(p-isobutylphenyl)propionate", "Ibuprofen methyl ester", "Methyl \u03b1-(4-isobutylphenyl)propionate", "Methyl 2-(4-isobutylphenyl)propionate", "Methyl \u03b1-(p-isobutylphenyl)propionate", "Methyl 2-(4\u2032-isobutylphenyl)propanoate", "(\u00b1)-Ibuprofen methyl ester", "Racemic ibuprofen methyl ester", "2-(4-Isobutylphenyl)propionic acid methyl ester"], "SMILES": "C(C(OC)=O)(C)C1=CC=C(CC(C)C)C=C1", "physical_data": {"Molecular Weight": "220.31", "Molecular Formula": "C14H20O2", "Boiling Point": "120-130 \u00b0C @ Press: 17 Torr"}}