{"cas_no": "6157-06-8", "cn_name": "H-ASP-GLU-OH", "en_name": ["L-Aspartyl-L-glutamic acid", "L-Glutamic acid, L-\u03b1-aspartyl-", "Glutamic acid, N-L-\u03b1-aspartyl-, L-", "L-Glutamic acid, N-L-\u03b1-aspartyl-", "L-\u03b1-Aspartyl-L-glutamic acid", "L-Aspartyl-L-glutamic acid", "N-Aspartylglutamic acid", "N-Aspartyl-L-glutamic acid", "3: PN: WO2008083678 PAGE: 33 claimed protein", "16: PN: EP2161028 PAGE: 10 claimed protein", "7: PN: US20130196385 SEQID: 7 claimed sequence", "57: PN: WO2023003984 SEQID: 67 claimed sequence", "16: PN: WO2023056433 PAGE: 60 claimed sequence", "2: PN: KR20230041901 SEQID: 2 claimed sequence"], "SMILES": "C(NC(C(CC(O)=O)N)=O)(CCC(O)=O)C(O)=O", "physical_data": {"Molecular Weight": "262.22", "Molecular Formula": "C9H14N2O7", "Melting Point": "150-155 \u00b0C"}}