{"cas_no": "6157-87-5", "cn_name": "\u4e59\u9178\u66f2\u6258\u9f99", "en_name": ["Trestolone acetate", "Estr-4-en-3-one, 17-(acetyloxy)-7-methyl-, (7\u03b1,17\u03b2)-", "Estr-4-en-3-one, 17\u03b2-hydroxy-7\u03b1-methyl-, acetate", "(7\u03b1,17\u03b2)-17-(Acetyloxy)-7-methylestr-4-en-3-one", "Trestolone acetate", "U 15614", "NSC 69948", "7\u03b1-Methyl-19-nortestosterone acetate"], "SMILES": "CC1C2C3C(C)(C(OC(C)=O)CC3)CCC2C4C(C1)=CC(=O)CC4", "physical_data": {"Molecular Weight": "330.46", "Molecular Formula": "C21H30O3", "Melting Point": "111-114 \u00b0C"}}