{"cas_no": "6158-45-8", "cn_name": "1-\u5f02\u4e19\u57fa\u8418", "en_name": ["1-(1-Methylethyl)naphthalene", "Naphthalene, 1-(1-methylethyl)-", "Naphthalene, 1-isopropyl-", "1-(1-Methylethyl)naphthalene", "\u03b1-Isopropylnaphthalene", "1-Isopropylnaphthalene", "NSC 141329", "1-Propan-2-ylnaphthalene", "1-(Propan-2-yl)naphthalene"], "SMILES": "C(C)(C)C=1C2=C(C=CC1)C=CC=C2", "physical_data": {"Molecular Weight": "170.25", "Molecular Formula": "C13H14", "Boiling Point": "268 \u00b0C", "Melting Point": "-16 \u00b0C", "Density": "0.90075 g/cm\u00b3 @ Temp: 15 \u00b0C"}}