{"cas_no": "6159-56-4", "cn_name": "1,2,3,9-\u56db\u6c22\u5421\u54af\u5e76[2,1-B]\u55b9\u5511\u5549-3-\u9187", "en_name": ["(\u00b1)-Vasicine", "Pyrrolo[2,1-b]quinazolin-3-ol, 1,2,3,9-tetrahydro-", "Vasicine, (\u00b1)-", "Pyrrolo[2,1-b]quinazolin-3-ol, 1,2,3,9-tetrahydro-, (\u00b1)-", "1,2,3,9-Tetrahydropyrrolo[2,1-b]quinazolin-3-ol", "dl-Peganine", "DL-Vasicine", "(\u00b1)-Peganine", "(\u00b1)-Linarine", "(\u00b1)-Vasicine", "dl-Vasicine", "1H,2H,3H,9H-Pyrrolo[2,1-b]quinazolin-3-ol"], "SMILES": "OC1C=2N(CC=3C(N2)=CC=CC3)CC1", "physical_data": {"Molecular Weight": "188.23", "Molecular Formula": "C11H12N2O", "Melting Point": "211 \u00b0C"}}