{"cas_no": "61597-37-3", "cn_name": "2-(4-\u7532\u6c27\u57fa-1,4-\u73af\u5df1\u4e8c\u70ef-1-\u57fa)-2-\u4e19\u9187", "en_name": ["4-Methoxy-\u03b1,\u03b1-dimethyl-1,4-cyclohexadiene-1-methanol", "1,4-Cyclohexadiene-1-methanol, 4-methoxy-\u03b1,\u03b1-dimethyl-", "4-Methoxy-\u03b1,\u03b1-dimethyl-1,4-cyclohexadiene-1-methanol", "2-(4-Methoxycyclohexa-1,4-dien-1-yl)propan-2-ol"], "SMILES": "C(C)(C)(O)C=1CC=C(OC)CC1", "physical_data": {"Molecular Weight": "168.23", "Molecular Formula": "C10H16O2", "Boiling Point": "128-130 \u00b0C @ Press: 16 Torr"}}