{"cas_no": "6159-55-3", "cn_name": "\u9a86\u9a7c\u84ec\u78b1", "en_name": ["(-)-Vasicine", "Pyrrolo[2,1-b]quinazolin-3-ol, 1,2,3,9-tetrahydro-, (3S)-", "Pyrrolo[2,1-b]quinazolin-3-ol, 1,2,3,9-tetrahydro-, (S)-", "Vasicine", "(3S)-1,2,3,9-Tetrahydropyrrolo[2,1-b]quinazolin-3-ol", "l-Peganine", "Linarine, (-)-", "Peganine", "(-)-Peganine", "Peganine, (-)-", "l-Vasicine", "(-)-Vasicine", "(-)-Linarine", "Peganin", "(3S)-1,2,3,9-Tetrahydropyrrolo[2,1-b]quinazolin-3-ol"], "SMILES": "OC1C=2N(CC=3C(N2)=CC=CC3)CC1", "physical_data": {"Molecular Weight": "188.23", "Molecular Formula": "C11H12N2O", "Melting Point": "190-191 \u00b0C (decomp)"}}