{"cas_no": "616-09-1", "cn_name": "\u4e73\u9178\u4e19\u916f", "en_name": ["Propyl lactate", "Propanoic acid, 2-hydroxy-, propyl ester", "Lactic acid, propyl ester", "n-Propyl lactate", "Propyl 2-hydroxypropanoate", "Propyl lactate", "(\u00b1)-n-Propyl lactate", "Purasolv NPL", "Propyl 2-hydroxypropionate", "2-Hydroxypropanoic acid propyl ester"], "SMILES": "C(C(C)O)(OCCC)=O", "physical_data": {"Molecular Weight": "132.16", "Molecular Formula": "C6H12O3", "Boiling Point": "61 \u00b0C @ Press: 10 Torr", "Density": "1.0035 g/cm\u00b3 @ Temp: 20 \u00b0C"}}