{"cas_no": "616-79-5", "cn_name": "2-\u6c28\u57fa-5-\u785d\u57fa\u82ef\u7532\u9178", "en_name": ["2-Amino-5-nitrobenzoic acid", "Benzoic acid, 2-amino-5-nitro-", "Anthranilic acid, 5-nitro-", "2-Amino-5-nitrobenzoic acid", "5-Nitroanthranilic acid", "NSC 16208", "NSC 63867", "5-Nitro-2-aminobenzoic acid"], "SMILES": "C(O)(=O)C1=CC(N(=O)=O)=CC=C1N", "physical_data": {"Molecular Weight": "182.13", "Molecular Formula": "C7H6N2O4", "Melting Point": "265 \u00b0C (decomp)"}}