{"cas_no": "616-46-6", "cn_name": "\u567b\u5429\u80fa", "en_name": ["2-Aminothiophene", "2-Thiophenamine", "Thiophenine", "2-Aminothiophene", "2-Thiophenine", "2-Thienylamine", "NSC 118942", "(Thiophen-2-yl)amine"], "SMILES": "NC1=CC=CS1", "physical_data": {"Molecular Weight": "99.15", "Molecular Formula": "C4H5NS", "Melting Point": "12-13 \u00b0C"}}