{"cas_no": "616-13-7", "cn_name": "1-\u6c2f-2-\u7532\u57fa\u4e01\u70f7", "en_name": ["1-Chloro-2-methylbutane", "Butane, 1-chloro-2-methyl-", "1-Chloro-2-methylbutane", "2-Methylbutyl chloride", "(\u00b1)-1-Chloro-2-methylbutane"], "SMILES": "C(CC)(CCl)C", "physical_data": {"Molecular Weight": "106.59", "Molecular Formula": "C5H11Cl", "Boiling Point": "96-99 \u00b0C", "Density": "0.8818 g/cm\u00b3 @ Temp: 15 \u00b0C"}}