{"cas_no": "616-75-1", "cn_name": "\u82c4\u57fa\u4e19\u4e8c\u9178", "en_name": ["Benzylmalonic acid", "Propanedioic acid, 2-(phenylmethyl)-", "Malonic acid, benzyl-", "Propanedioic acid, (phenylmethyl)-", "2-(Phenylmethyl)propanedioic acid", "1,1-Ethanedicarboxylic acid, 2-phenyl-", "Benzylmalonic acid", "2-Benzylmalonic acid", "Malonic acid, 2-benzyl-", "NSC 8068", "2-Benzylpropanedioic acid"], "SMILES": "C(CC1=CC=CC=C1)(C(O)=O)C(O)=O", "physical_data": {"Molecular Weight": "194.18", "Molecular Formula": "C10H10O4", "Melting Point": "116-117 \u00b0C"}}