{"cas_no": "616-24-0", "cn_name": "3-\u6c28\u57fa\u620a\u70f7", "en_name": ["3-Pentanamine", "3-Pentanamine", "Propylamine, 1-ethyl-", "3-Aminopentane", "1-Ethylpropylamine", "3-Pentylamine", "NSC 165575"], "SMILES": "C(CC)(CC)N", "physical_data": {"Molecular Weight": "87.16", "Molecular Formula": "C5H13N", "Boiling Point": "89 \u00b0C", "Density": "0.7479 g/cm\u00b3 @ Temp: 20 \u00b0C"}}