{"cas_no": "616-43-3", "cn_name": "3-\u7532\u57fa\u5421\u54af", "en_name": ["3-Methylpyrrole", "1H-Pyrrole, 3-methyl-", "Pyrrole, 3-methyl-", "3-Methyl-1H-pyrrole", "3-Methylpyrrole"], "SMILES": "CC=1C=CNC1", "physical_data": {"Molecular Weight": "81.12", "Molecular Formula": "C5H7N", "Boiling Point": "143 \u00b0C", "Melting Point": "-48.4 \u00b0C"}}