{"cas_no": "616-42-2", "cn_name": "\u4e9a\u786b\u9178\u4e8c\u7532\u916f", "en_name": ["Dimethyl sulfite", "Sulfurous acid, dimethyl ester", "Methyl sulfite", "Dimethyl sulfite", "Dimethoxy sulfoxide", "NSC 41902"], "SMILES": "S(OC)(OC)=O", "physical_data": {"Molecular Weight": "110.13", "Molecular Formula": "C2H6O3S", "Boiling Point": "126 \u00b0C", "Density": "1.242 g/cm\u00b3 @ Temp: 0 \u00b0C"}}