{"cas_no": "616-12-6", "cn_name": "\u53cd-3-\u7532\u57fa-2-\u620a\u70ef", "en_name": ["trans-3-Methyl-2-pentene", "2-Pentene, 3-methyl-, (2E)-", "2-Pentene, 3-methyl-, (E)-", "2-Pentene, 3-methyl-, trans-", "(2E)-3-Methyl-2-pentene", "trans-3-Methyl-2-pentene", "(E)-3-Methyl-2-pentene", "NSC 73912"], "SMILES": "C(CC)(=CC)C", "physical_data": {"Molecular Weight": "84.16", "Molecular Formula": "C6H12", "Boiling Point": "70.4 \u00b0C", "Melting Point": "-138.5 \u00b0C"}}