{"cas_no": "616-82-0", "cn_name": "4-\u7f9f\u57fa-3-\u785d\u57fa\u82ef\u7532\u9178", "en_name": ["4-Hydroxy-3-nitrobenzoic acid", "Benzoic acid, 4-hydroxy-3-nitro-", "4-Hydroxy-3-nitrobenzoic acid", "3-Nitro-4-hydroxybenzoic acid", "4-Carboxy-2-nitrophenol", "p-Hydroxy-m-nitrobenzoic acid", "NSC 78436"], "SMILES": "N(=O)(=O)C1=CC(C(O)=O)=CC=C1O", "physical_data": {"Molecular Weight": "183.12", "Molecular Formula": "C7H5NO5", "Melting Point": "183-184 \u00b0C"}}