{"cas_no": "616-06-8", "cn_name": "DL-\u6b63\u4eae\u6c28\u9178", "en_name": ["(\u00b1)-Norleucine", "Norleucine", "Norleucine, DL-", "DL-Norleucine", "DL-\u03b1-Aminocaproic acid", "(\u00b1)-Norleucine", "(\u00b1)-2-Aminohexanoic acid", "NSC 203799", "22: PN: WO2005055994 PAGE: 50 claimed protein", "D,L-Norleucine", "2-Amino-hexanoic acid", "2-Aminohexanoic acid"], "SMILES": "C(C(O)=O)(CCCC)N", "physical_data": {"Molecular Weight": "131.17", "Molecular Formula": "C6H13NO2", "Melting Point": "327 \u00b0C (decomp)"}}