{"cas_no": "616-44-4", "cn_name": "3-\u7532\u57fa\u567b\u5429", "en_name": ["3-Methylthiophene", "Thiophene, 3-methyl-", "3-Methylthiophene", "3-Thiotolene", "\u03b2-Methylthiophene", "NSC 65439", "3-Thienylmethane"], "SMILES": "CC=1C=CSC1", "physical_data": {"Molecular Weight": "98.17", "Molecular Formula": "C5H6S", "Boiling Point": "115.5 \u00b0C", "Melting Point": "-69 \u00b0C", "Density": "1.0220 g/cm\u00b3 @ Temp: 20 \u00b0C"}}