{"cas_no": "616-39-7", "cn_name": "N,N-\u4e8c\u4e59\u57fa\u7532\u80fa", "en_name": ["Diethylmethylamine", "Ethanamine, N-ethyl-N-methyl-", "Diethylamine, N-methyl-", "N-Ethyl-N-methylethanamine", "Diethylmethylamine", "N-Methyldiethylamine", "N,N-Diethylmethylamine", "N,N-Diethyl-N-methylamine", "Methyldiethylamine", "Diethylmonomethylamine", "N-Methyl-N-ethylethanamine"], "SMILES": "N(CC)(CC)C", "physical_data": {"Molecular Weight": "87.16", "Molecular Formula": "C5H13N", "Boiling Point": "66 \u00b0C", "Melting Point": "-196 \u00b0C"}}