{"cas_no": "616-21-7", "cn_name": "1,2-\u4e8c\u6c2f\u4e01\u70f7", "en_name": ["1,2-Dichlorobutane", "Butane, 1,2-dichloro-", "1,2-Dichlorobutane", "dl-1,2-Dichlorobutane", "(\u00b1)-1,2-Dichlorobutane", "NSC 93880"], "SMILES": "C(CC)(CCl)Cl", "physical_data": {"Molecular Weight": "127.01", "Molecular Formula": "C4H8Cl2", "Boiling Point": "124.1 \u00b0C", "Density": "1.1116 g/cm\u00b3 @ Temp: 25 \u00b0C"}}