{"cas_no": "616-91-1", "cn_name": "N-\u4e59\u9170-L-\u534a\u80f1\u6c28\u9178", "en_name": ["N-Acetyl-L-cysteine", "L-Cysteine, N-acetyl-", "Cysteine, N-acetyl-, L-", "N-Acetyl-L-cysteine", "N-Acetylcysteine", "Acetylcysteine", "Mercapturic acid", "Mucomyst", "Mercapturic acid, (R)-", "Airbron", "Fluimucil", "Fluimucetin", "Respaire", "Mucolyticum-Lappe", "L-Acetylcysteine", "Parvolex", "Mucolytikum Lappe", "Broncholysin", "NSC 111180", "Broncholysin (mucolytic)", "Mucosolvin", "N-Acetyl-(R)-cysteine", "Mucofilin", "L-N-Acetylcysteine", "Fluimicil", "Fluimicil Infantil", "Fluibiotic", "N\u03b1-Acetylcysteine", "Exomuc", "(R)-N-Acetylcysteine", "Tixair", "Muco Sanigen", "Brunac", "Fluatox", "Mucocedyl", "Mucolator", "Neo-Fluimucil", "Fabrol", "Mucolyticum", "Mucret", "Fluprowit", "Acetilcysteina", "ACC", "Flumil", "Syntemucol", "Hypotears", "Lysomucil", "Fluimucil Antidot", "Acetadote", "Mucosten", "Asist", "Trom", "Mentopin", "Mucomelt", "Mucinac", "(2R)-2Acetamido-3-sulfanylpropanoic acid", "Cysteplus", "Ac-Cys-OH", "(2R)-2-Acetamido-3-sulfanylpropanoic acid", "A 7250", "MeSH ID: D000111"], "SMILES": "C(NC(C)=O)(C(O)=O)CS", "physical_data": {"Molecular Weight": "163.19", "Molecular Formula": "C5H9NO3S", "Melting Point": "109.5 \u00b0C"}}