{"cas_no": "616-55-7", "cn_name": "2,4-\u4e8c(1,1-\u4e8c\u7532\u4e59\u57fa)-6-\u7532\u915a", "en_name": ["2,4-Di-tert-butyl-6-methylphenol", "Phenol, 2,4-bis(1,1-dimethylethyl)-6-methyl-", "o-Cresol, 4,6-di-tert-butyl-", "2,4-Bis(1,1-dimethylethyl)-6-methylphenol", "2,4-Di-tert-butyl-6-methylphenol", "4,6-Di-tert-butyl-o-cresol", "2-Methyl-4,6-di-tert-butylphenol", "4,6-Di-tert-butyl-2-methylphenol", "2,4-Ditert-butyl-6-methylphenol"], "SMILES": "C(C)(C)(C)C1=CC(C(C)(C)C)=CC(C)=C1O", "physical_data": {"Molecular Weight": "220.35", "Molecular Formula": "C15H24O", "Boiling Point": "269 \u00b0C", "Melting Point": "51 \u00b0C"}}