{"cas_no": "616-83-1", "cn_name": "4-\u7532\u57fa-3-\u785d\u57fa\u82ef\u78fa\u9170\u6c2f", "en_name": ["4-Methyl-3-nitrobenzenesulfonyl chloride", "Benzenesulfonyl chloride, 4-methyl-3-nitro-", "p-Toluenesulfonyl chloride, 3-nitro-", "4-Methyl-3-nitrobenzenesulfonyl chloride", "2-Nitrotoluene-4-sulfonyl chloride", "4-Methyl-3-nitrobenzene-1-sulfonyl chloride"], "SMILES": "N(=O)(=O)C1=CC(S(Cl)(=O)=O)=CC=C1C", "physical_data": {"Molecular Weight": "235.64", "Molecular Formula": "C7H6ClNO4S", "Melting Point": "34 \u00b0C"}}