{"cas_no": "616-84-2", "cn_name": "2-\u785d\u57fa\u82ef\u80fa-4-\u78fa\u9178", "en_name": ["4-Amino-3-nitrobenzenesulfonic acid", "Benzenesulfonic acid, 4-amino-3-nitro-", "Sulfanilic acid, 3-nitro-", "4-Amino-3-nitrobenzenesulfonic acid", "2-Nitroaniline-4-sulfonic acid", "NSC 39866", "NSC 51813", "NSC 638700", "1-Amino-6-nitrobenzene-4-sulphonic acid"], "SMILES": "N(=O)(=O)C1=CC(S(=O)(=O)O)=CC=C1N", "physical_data": {"Molecular Weight": "218.19", "Molecular Formula": "C6H6N2O5S", "Melting Point": "&gt;300 \u00b0C"}}