{"cas_no": "616-05-7", "cn_name": "2-\u6eb4\u5df1\u9178", "en_name": ["2-Bromohexanoic acid", "Hexanoic acid, 2-bromo-", "2-Bromohexanoic acid", "\u03b1-Bromocaproic acid", "\u03b1-Bromo-n-caproic acid", "2-Bromocaproic acid", "\u03b1-Bromohexanoic acid", "DL-\u03b1-Bromocaproic acid", "(\u00b1)-\u03b1-Bromohexanoic acid", "(\u00b1)-2-Bromocapronic acid", "(\u00b1)-2-Bromohexanoic acid", "NSC 73987"], "SMILES": "C(C(O)=O)(CCCC)Br", "physical_data": {"Molecular Weight": "195.05", "Molecular Formula": "C6H11BrO2", "Boiling Point": "240 \u00b0C", "Melting Point": "&lt;25 \u00b0C"}}