{"cas_no": "616-45-5", "cn_name": "2-\u5421\u54af\u70f7\u916e", "en_name": ["2-Pyrrolidone", "2-Pyrrolidinone", "2-Pyrrolidone", "\u03b3-Butyrolactam", "\u03b1-Pyrrolidone", "\u03b3-Aminobutyric lactam", "\u03b1-Pyrrolidinone", "Butyrolactam", "Pyrrolidone", "\u03b3-Aminobutyrolactam", "2-Oxopyrrolidine", "2-Pyrol", "4-Aminobutyric acid lactam", "\u03b3-Aminobutyric acid lactam", "2-Tetrahydropyrrolone", "Butanoic acid, 4-amino-, lactam", "Azacyclopentan-2-one", "NSC 4593", "NSC 8413", "Soluphor P", "2-Oxo-4-butyrolactam", "Kollisolv PYR", "Pyrrolidin-2-one"], "SMILES": "O=C1CCCN1", "physical_data": {"Molecular Weight": "85.10", "Molecular Formula": "C4H7NO", "Boiling Point": "76 \u00b0C @ Press: 0.2 Torr", "Melting Point": "25.0 \u00b0C", "Density": "1.116 g/cm\u00b3 @ Temp: 25 \u00b0C"}}