{"cas_no": "616-30-8", "cn_name": "3-\u6c28\u57fa-1,2-\u4e19\u4e8c\u9187", "en_name": ["3-Amino-1,2-propanediol", "1,2-Propanediol, 3-amino-", "3-Amino-1,2-propanediol", "2,3-Dihydroxypropylamine", "1-Amino-2,3-propanediol", "1-Aminoglycerol", "1-Amino-2,3-dihydroxypropane", "3-Amino-2-hydroxy-1-propanol", "3-Amino-1,2-dihydroxypropane", "Isoserinol", "(RS)-3-Amino-1,2-propanediol", "(\u00b1)-3-Amino-1,2-propanediol", "(\u00b1)-3-Amino-1,2-dihydroxypropane", "2,3-Dihydroxypropanamine", "NSC 67381", "1,2-Dihydroxy-3-aminopropane", "3-Amino-2-hydroxypropanol", "2,3-Dihydroxypropan-1-amine"], "SMILES": "C(CN)(CO)O", "physical_data": {"Molecular Weight": "91.11", "Molecular Formula": "C3H9NO2", "Boiling Point": "95-98 \u00b0C @ Press: 3 x 10<sup>-3</sup> Torr", "Melting Point": "55-57 \u00b0C"}}