{"cas_no": "616-47-7", "cn_name": "N-\u7532\u57fa\u54aa\u5511", "en_name": ["1-Methylimidazole", "1H-Imidazole, 1-methyl-", "Imidazole, 1-methyl-", "1-Methyl-1H-imidazole", "N1-Methylimidazole", "N-Methylimidazole", "1-Methylimidazole", "N-methylimidazole", "Araldite DY 070", "DY 070", "NSC 88064", "Imicure AMI 1", "Epikure 201", "Kaolizer 110", "Biresin CA 141"], "SMILES": "CN1C=CN=C1", "physical_data": {"Molecular Weight": "82.10", "Molecular Formula": "C4H6N2", "Boiling Point": "195.5 \u00b0C", "Melting Point": "-6 \u00b0C", "Density": "1.0370 g/cm\u00b3 @ Temp: 20.00 \u00b0C"}}