{"cas_no": "616-25-1", "cn_name": "1-\u620a\u70ef-3-\u9187", "en_name": ["1-Penten-3-ol", "1-Penten-3-ol", "Ethyl vinyl carbinol", "\u03b1-Ethylallyl alcohol", "1-Ethylallyl alcohol", "3-Hydroxy-1-pentene", "(\u00b1)-1-Penten-3-ol", "NSC 65446"], "SMILES": "C(CC)(C=C)O", "physical_data": {"Molecular Weight": "86.13", "Molecular Formula": "C5H10O", "Boiling Point": "115 \u00b0C", "Density": "0.839 g/cm\u00b3 @ Temp: 22 \u00b0C"}}