{"cas_no": "616-76-2", "cn_name": "5-\u7532\u9170\u6c34\u6768\u9178", "en_name": ["5-Formylsalicylic acid", "Benzoic acid, 5-formyl-2-hydroxy-", "Isophthalaldehydic acid, 6-hydroxy-", "5-Formyl-2-hydroxybenzoic acid", "6-Hydroxyisophthalaldehydic acid", "3-Carboxy-4-hydroxybenzaldehyde", "5-Formylsalicylic acid", "2-Hydroxy-5-formylbenzoic acid", "3-Formyl-6-hydroxybenzoic acid", "NSC 15046", "NSC 16527"], "SMILES": "C(O)(=O)C1=CC(C=O)=CC=C1O", "physical_data": {"Molecular Weight": "166.13", "Molecular Formula": "C8H6O4", "Melting Point": "329-332 \u00b0C (decomp)"}}