{"cas_no": "616-29-5", "cn_name": "1,3-\u4e8c\u6c28\u57fa-2-\u7f9f\u57fa\u4e19\u70f7", "en_name": ["1,3-Diamino-2-propanol", "2-Propanol, 1,3-diamino-", "1,3-Diamino-2-propanol", "2-Hydroxy-1,3-diaminopropane", "1,3-Diamino-2-hydroxypropane", "2-Hydroxy-1,3-propanediamine", "2-Hydroxypropylenediamine", "NSC 6070", "1,3-Diaminopropan-2-ol", "(3-Amino-2-hydroxypropyl)amine", "Dapol"], "SMILES": "C(CN)(CN)O", "physical_data": {"Molecular Weight": "90.12", "Molecular Formula": "C3H10N2O", "Boiling Point": "93-95 \u00b0C @ Press: 3 Torr", "Melting Point": "&gt;150 \u00b0C"}}