{"cas_no": "616-02-4", "cn_name": "\u67e0\u5eb7\u9178\u9150", "en_name": ["Citraconic anhydride", "2,5-Furandione, 3-methyl-", "Citraconic anhydride", "3-Methyl-2,5-furandione", "2-Methylmaleic anhydride", "3-Methylmaleic anhydride", "Citraconic acid anhydride", "Methylmaleic anhydride", "\u03b1-Methylmaleic anhydride", "Monomethylmaleic anhydride", "NSC 6182", "2-Methyl-2-butenedioic anhydride", "3-Methyl-2,5-dihydrofuran-2,5-dione"], "SMILES": "CC=1C(=O)OC(=O)C1", "physical_data": {"Molecular Weight": "112.08", "Molecular Formula": "C5H4O3", "Boiling Point": "213-214 \u00b0C @ Press: 760 Torr", "Melting Point": "7-8 \u00b0C", "Density": "1.2469 g/cm\u00b3 @ Temp: 16 \u00b0C"}}