{"cas_no": "616-68-2", "cn_name": "\u4e09\u7532\u5361\u56e0", "en_name": ["Trimecaine", "Acetamide, 2-(diethylamino)-N-(2,4,6-trimethylphenyl)-", "Acetanilide, 2-(diethylamino)-2\u2032,4\u2032,6\u2032-trimethyl-", "2-(Diethylamino)-N-(2,4,6-trimethylphenyl)acetamide", "\u03c9-Diethylaminoacetylaminomesitylene", "N-(Diethylaminoacetyl)-2,4,6-trimethylaniline", "2-(Diethylamino)-2\u2032,4\u2032,6\u2032-trimethylacetanilide", "Diethylglycinemesidide", "Mesidicaine", "Trimecain", "Trimecaine", "Justecaina", "Mesdicain", "Mesokain", "MeSH ID: D014288"], "SMILES": "N(C(CN(CC)CC)=O)C1=C(C)C=C(C)C=C1C", "physical_data": {"Molecular Weight": "248.36", "Molecular Formula": "C15H24N2O", "Boiling Point": "187 \u00b0C", "Melting Point": "44 \u00b0C"}}