{"cas_no": "616-16-0", "cn_name": "(R)-2-\u7532\u57fa\u4e01\u9187", "en_name": ["(+)-2-Methyl-1-butanol", "1-Butanol, 2-methyl-, (2R)-", "1-Butanol, 2-methyl-, (R)-(+)-", "1-Butanol, 2-methyl-, (R)-", "1-Butanol, 2-methyl-, d-", "(2R)-2-Methyl-1-butanol", "(R)-2-Methyl-1-butanol", "(R)-(+)-2-Methyl-1-butanol", "(+)-2-Methyl-1-butanol", "(R)-2-Methyl-1-butanol", "(+)-2-Methylbutanol", "(R)-2-Methylbutanol", "((R)-2-Methylbutan-1-ol"], "SMILES": "C(CC)(CO)C", "physical_data": {"Molecular Weight": "88.15", "Molecular Formula": "C5H12O", "Boiling Point": "129-130 \u00b0C", "Density": "0.826 g/cm\u00b3 @ Temp: 20 \u00b0C"}}