{"cas_no": "616-23-9", "cn_name": "2,3-\u4e8c\u6c2f-1-\u4e19\u9187", "en_name": ["(\u00b1)-2,3-Dichloro-1-propanol", "1-Propanol, 2,3-dichloro-", "2,3-Dichloro-1-propanol", "Glycerol \u03b1,\u03b2-dichlorohydrin", "\u03b1,\u03b2-Dichlorohydrin", "\u03b2-Dichlorohydrin", "Glycerol 1,2-dichlorohydrin", "2,3-Dichloropropyl alcohol", "\u03b2,\u03b3-Dichlorohydrin", "(\u00b1)-2,3-Dichloro-1-propanol", "(RS)-2,3-Dichloro-1-propanol", "2,3-Dichlorohydrin", "1,2-Dichlorohydrin"], "SMILES": "C(CCl)(CO)Cl", "physical_data": {"Molecular Weight": "128.99", "Molecular Formula": "C3H6Cl2O", "Boiling Point": "183-185 \u00b0C", "Density": "1.3607 g/cm\u00b3 @ Temp: 20 \u00b0C"}}