{"cas_no": "616-86-4", "cn_name": "4-\u4e59\u6c27\u57fa-2-\u785d\u57fa\u82ef\u80fa(0312\u7981\u7a7a\u8fd0)", "en_name": ["4-Ethoxy-2-nitroaniline", "Benzenamine, 4-ethoxy-2-nitro-", "p-Phenetidine, 2-nitro-", "4-Ethoxy-2-nitrobenzenamine", "4-Amino-3-nitrophenetole", "4-Ethoxy-2-nitroaniline", "2-Nitro-p-phenetidine", "NSC 1320", "NSC 58160", "(4-Ethoxy-2-nitrophenyl)amine", "2-Nitro-4-ethoxyaniline"], "SMILES": "N(=O)(=O)C1=CC(OCC)=CC=C1N", "physical_data": {"Molecular Weight": "182.18", "Molecular Formula": "C8H10N2O3", "Melting Point": "109-110 \u00b0C"}}