{"cas_no": "616-74-0", "cn_name": "4,6-\u4e8c\u785d\u57fa\u95f4\u82ef\u4e8c\u915a", "en_name": ["4,6-Dinitroresorcinol", "1,3-Benzenediol, 4,6-dinitro-", "Resorcinol, 4,6-dinitro-", "4,6-Dinitro-1,3-benzenediol", "4,6-Dinitroresorcinol", "3-Hydroxy-4,6-dinitrophenol"], "SMILES": "N(=O)(=O)C1=CC(N(=O)=O)=C(O)C=C1O", "physical_data": {"Molecular Weight": "200.11", "Molecular Formula": "C6H4N2O6", "Melting Point": "213 \u00b0C"}}