{"cas_no": "616-04-6", "cn_name": "\u7532\u9170\u4e59\u5185\u8132", "en_name": ["1-Methylhydantoin", "2,4-Imidazolidinedione, 1-methyl-", "Hydantoin, 1-methyl-", "1-Methyl-2,4-imidazolidinedione", "Dioxy-creatinine", "1-Methylhydantoin", "1-Methylimidazolidine-2,4-dione", "NSC 80560"], "SMILES": "O=C1N(C)CC(=O)N1", "physical_data": {"Molecular Weight": "114.10", "Molecular Formula": "C4H6N2O2", "Melting Point": "156-157 \u00b0C"}}