{"cas_no": "616-38-6", "cn_name": "\u78b3\u9178\u4e8c\u7532\u916f", "en_name": ["Dimethyl carbonate", "Carbonic acid, dimethyl ester", "Dimethyl carbonate", "Methyl carbonate ((MeO)2CO)", "Methyl carbonate", "NSC 9371", "AK 100", "AK 100 (carbonate)"], "SMILES": "C(OC)(OC)=O", "physical_data": {"Molecular Weight": "90.08", "Molecular Formula": "C3H6O3", "Boiling Point": "90-91 \u00b0C", "Melting Point": "0.5 \u00b0C", "Density": "1.0636 g/cm\u00b3 @ Temp: 25 \u00b0C"}}