{"cas_no": "6160-78-7", "cn_name": "4-\u7532\u57fa\u4f1e\u5f62\u916e\u9170-beta-D-\u5421\u5583\u7cd6\u82f7", "en_name": ["4-Methylumbelliferyl \u03b2-D-galactopyranoside", "2H-1-Benzopyran-2-one, 7-(\u03b2-D-galactopyranosyloxy)-4-methyl-", "Coumarin, 7-(\u03b2-D-galactopyranosyloxy)-4-methyl-", "7-(\u03b2-D-Galactopyranosyloxy)-4-methyl-2H-1-benzopyran-2-one", "4-Methylumbelliferyl \u03b2-D-galactopyranoside", "4-Methylumbelliferone \u03b2-D-galactopyranoside", "4-Methylumbelliferyl \u03b2-D-galactoside", "4-Methylumbelliferone \u03b2-D-galactoside", "MUGal", "\u03b2-Methylumbelliferyl-\u03b2-D-galactopyranoside"], "SMILES": "CC=1C=2C(=CC(OC3OC(CO)C(O)C(O)C3O)=CC2)OC(=O)C1", "physical_data": {"Molecular Weight": "338.31", "Molecular Formula": "C16H18O8", "Melting Point": "234 \u00b0C"}}