{"cas_no": "6160-80-1", "cn_name": "4-\u7532\u57fa\u4f1e\u578b\u916e-beta-D-\u8461\u7cd6\u82f7\u9178", "en_name": ["4-Methylumbelliferyl \u03b2-D-glucuronide", "\u03b2-D-Glucopyranosiduronic acid, 4-methyl-2-oxo-2H-1-benzopyran-7-yl", "Glucopyranosiduronic acid, 4-methyl-2-oxo-2H-1-benzopyran-7-yl, \u03b2-D-", "4-Methyl-2-oxo-2H-1-benzopyran-7-yl \u03b2-D-glucopyranosiduronic acid", "4-Methylumbelliferone glucuronide", "4-Methylumbelliferyl \u03b2-D-glucuronide", "4-Methylumbelliferone \u03b2-D-glucuronide", "4-Methylumbelliferyl glucuronide", "Hymecromon-7-O-4-\u03b2-D-glucuronide", "4-Methylumbelliferyl-\u03b2-D-glucuronic acid"], "SMILES": "CC=1C=2C(=CC(OC3OC(C(O)=O)C(O)C(O)C3O)=CC2)OC(=O)C1", "physical_data": {"Molecular Weight": "352.29", "Molecular Formula": "C16H16O9", "Melting Point": "140-143 \u00b0C"}}