{"cas_no": "6160-65-2", "cn_name": "N,N'-\u786b\u7fb0\u57fa\u4e8c\u54aa\u5511", "en_name": ["Thiocarbonyldiimidazole", "Methanethione, di-1H-imidazol-1-yl-", "Imidazole, 1,1\u2032-(thiocarbonyl)di-", "1H-Imidazole, 1,1\u2032-carbonothioylbis-", "Di-1H-imidazol-1-ylmethanethione", "1,1\u2032-(Thiocarbonyl)diimidazole", "Thiocarbonyldiimidazole", "N,N\u2032-Thiocarbonyldiimidazole", "Thiocarbonylbisimidazole", "1,1\u2032-(Thiocarbonyl)bis[imidazole]", "NSC 141692", "1-(1H-Imidazol-1-ylcarbothioyl)-1H-imidazole", "Diimidazol-1-ylmethanethione", "TCDI", "Im2CS", "Di(1H-imidzazol-1-yl)methanethione", "1-(1H-Imidazole-1-carbothioyl)-1H-imidazole", "1-(Imidazole-1-carbothioyl)imidazole"], "SMILES": "C(=S)(N1C=CN=C1)N2C=CN=C2", "physical_data": {"Molecular Weight": "178.21", "Molecular Formula": "C7H6N4S", "Melting Point": "95 \u00b0C"}}