{"cas_no": "6161-65-5", "cn_name": "2-\u7532\u6c27\u57fa-6-\u7532\u57fa\u82ef\u7532\u9178", "en_name": ["2-Methoxy-6-methylbenzoic acid", "Benzoic acid, 2-methoxy-6-methyl-", "o-Anisic acid, 6-methyl-", "2-Methoxy-6-methylbenzoic acid", "NSC 118167"], "SMILES": "C(O)(=O)C1=C(OC)C=CC=C1C", "physical_data": {"Molecular Weight": "166.17", "Molecular Formula": "C9H10O3", "Boiling Point": "140 \u00b0C @ Press: 18 Torr", "Melting Point": "137-138 \u00b0C"}}