{"cas_no": "6163-58-2", "cn_name": "\u4e09(\u90bb\u7532\u57fa\u82ef\u57fa)\u78f7", "en_name": ["Tri-o-tolylphosphine", "Phosphine, tris(2-methylphenyl)-", "Phosphine, tri-o-tolyl-", "Tris(2-methylphenyl)phosphine", "Tris(o-tolyl)phosphine", "Tri-2-tolylphosphine", "Tri-o-tolylphosphine", "Tris(o-methylphenyl)phosphine", "Tris(2-tolyl)phosphine", "Tris(2-toluene)phosphine", "NSC 116667", "TOTP", "Tri(2-methylphenyl)phosphine", "Tris-o-tolyphosphine"], "SMILES": "P(C1=C(C)C=CC=C1)(C2=C(C)C=CC=C2)C3=C(C)C=CC=C3", "physical_data": {"Molecular Weight": "304.37", "Molecular Formula": "C21H21P", "Melting Point": "125 \u00b0C"}}