{"cas_no": "6163-66-2", "cn_name": "\u53d4\u4e01\u919a", "en_name": ["tert-Butyl ether", "Propane, 2-(1,1-dimethylethoxy)-2-methyl-", "tert-Butyl ether", "Propane, 2,2\u2032-oxybis[2-methyl-", "2-(1,1-Dimethylethoxy)-2-methylpropane", "Di-tert-Butyl ether", "Bis(tert-butyl)ether", "2-Methyl-2-[(2-methylpropan-2-yl)oxy]propane", "2-(tert-Butoxy)-2-methylpropane", "2-tert-Butoxy-2-methylpropane"], "SMILES": "O(C(C)(C)C)C(C)(C)C", "physical_data": {"Molecular Weight": "130.23", "Molecular Formula": "C8H18O", "Boiling Point": "107.2 \u00b0C", "Density": "0.7658 g/cm\u00b3 @ Temp: 20 \u00b0C"}}