{"cas_no": "6164-47-2", "cn_name": "\u76d0\u9178\u524d\u9e26\u7247\u78b1", "en_name": ["Bis[1,3]benzodioxolo[4,5-c:5\u2032,6\u2032-g]azecin-13(5H)-one, 4,6,7,14-tetrahydro-5-methyl-, hydrochloride (1:1)", "Bis[1,3]benzodioxolo[4,5-c:5\u2032,6\u2032-g]azecin-13(5H)-one, 4,6,7,14-tetrahydro-5-methyl-, hydrochloride (1:1)", "7,13a-Secoberbin-13a-one, 7-methyl-2,3:9,10-bis(methylenedioxy)-, hydrochloride", "Bis[1,3]benzodioxolo[4,5-c:5\u2032,6\u2032-g]azecin-13(5H)-one, 4,6,7,14-tetrahydro-5-methyl-, hydrochloride", "Protopine hydrochloride"], "SMILES": "CN1CC=2C3=C(C=CC2CC(=O)C=4C(CC1)=CC5=C(C4)OCO5)OCO3.Cl", "physical_data": {"Molecular Weight": "", "Molecular Formula": "C20H19NO5.ClH", "Melting Point": "274 \u00b0C"}}