{"cas_no": "6164-78-9", "cn_name": "2,3-\u5421\u55ea\u4e8c\u7532\u9170\u80fa", "en_name": ["2,3-Pyrazinedicarboxamide", "2,3-Pyrazinedicarboxamide", "2,3-Dicarboxamidopyrazine", "NSC 93820"], "SMILES": "C(N)(=O)C=1C(C(N)=O)=NC=CN1", "physical_data": {"Molecular Weight": "166.14", "Molecular Formula": "C6H6N4O2", "Melting Point": "240 \u00b0C (decomp)"}}