{"cas_no": "6164-80-3", "cn_name": "\u76d0\u9178\u54d2\u55ea", "en_name": ["Pyridazine, hydrochloride (1:1)", "Pyridazine, hydrochloride (1:1)", "Pyridazine, monohydrochloride"], "SMILES": "C=1C=CN=NC1.Cl", "physical_data": {"Molecular Weight": "", "Molecular Formula": "C4H4N2.ClH", "Melting Point": "161-163 \u00b0C"}}