{"cas_no": "6164-67-6", "cn_name": "\u9ad8\u6258\u54c1\u916e\u809f", "en_name": ["9-Azabicyclo[3.3.1]nonan-3-one, 9-methyl-, oxime", "9-Azabicyclo[3.3.1]nonan-3-one, 9-methyl-, oxime", "(\u00b1)-Pseudopelletierine oxime", "9-Methyl-9-azabicyclo[3.3.1]nonan-3-one oxime"], "SMILES": "CN1C2CC(=NO)CC1CCC2", "physical_data": {"Molecular Weight": "168.24", "Molecular Formula": "C9H16N2O", "Melting Point": "126-127 \u00b0C"}}