{"cas_no": "6164-98-3", "cn_name": "\u6740\u866b\u8112", "en_name": ["Chlordimeform", "Methanimidamide, N\u2032-(4-chloro-2-methylphenyl)-N,N-dimethyl-", "Formamidine, N\u2032-(4-chloro-o-tolyl)-N,N-dimethyl-", "N\u2032-(4-Chloro-2-methylphenyl)-N,N-dimethylmethanimidamide", "C 8514", "Chlorophenamidine", "N\u2032-(p-Chloro-o-tolyl)-N,N-dimethylformamidine", "N\u2032-(4-Chloro-o-tolyl)-N,N-dimethylformamidine", "Chlorphenamidine", "N,N-Dimethyl-N\u2032-(2-methyl-4-chlorophenyl)formamidine", "Galecron", "CIBA 8514", "Formamidine, N,N-dimethyl-N\u2032-(2-methyl-4-chlorophenyl)-", "Chlorophenamidin", "N\u2032-(2-Methyl-4-chlorophenyl)-N,N-dimethylformamidine", "Chlordimeform", "Fundal", "1-(2-Methyl-4-chlorophenyl)-3,3-dimethylformamidine", "Schering 36,268", "Fundal 500", "RS 141", "CDM", "Acaron", "CDM (acaricide)"], "SMILES": "N(=CN(C)C)C1=C(C)C=C(Cl)C=C1", "physical_data": {"Molecular Weight": "196.68", "Molecular Formula": "C10H13ClN2", "Boiling Point": "163-165 \u00b0C @ Press: 14 Torr", "Melting Point": "35 \u00b0C", "Density": "1.105 g/cm\u00b3 @ Temp: 25 \u00b0C"}}