{"cas_no": "6164-79-0", "cn_name": "\u5421\u55ea-2-\u7fa7\u9178\u7532\u916f", "en_name": ["Methyl 2-pyrazinecarboxylate", "2-Pyrazinecarboxylic acid, methyl ester", "Pyrazinecarboxylic acid, methyl ester", "Pyrazinoic acid methyl ester", "Methyl 2-pyrazinecarboxylate", "Pyrazine-2-carboxylic acid, methyl ester", "Methyl pyrazinoate", "Methyl pyrazinecarboxylate", "2-Methoxycarbonylpyrazine", "NSC 32337"], "SMILES": "C(OC)(=O)C=1C=NC=CN1", "physical_data": {"Molecular Weight": "138.12", "Molecular Formula": "C6H6N2O2", "Melting Point": "59 \u00b0C"}}