{"cas_no": "6165-68-0", "cn_name": "2-\u567b\u5429\u787c\u9178", "en_name": ["2-Thienylboronic acid", "Boronic acid, B-2-thienyl-", "2-Thiopheneboronic acid", "Boronic acid, 2-thienyl-", "B-2-Thienylboronic acid", "2-Thienylboronic acid", "2-Thienylboric acid", "Thien-5-ylboronic acid", "2-Thiopheneboric acid"], "SMILES": "B(O)(O)C1=CC=CS1", "physical_data": {"Molecular Weight": "127.96", "Molecular Formula": "C4H5BO2S", "Melting Point": "134 \u00b0C"}}