{"cas_no": "6165-75-9", "cn_name": "\u7094\u4e19\u57fa\u82ef\u78fa\u9178", "en_name": ["Propargyl benzenesulfonate", "2-Propyn-1-ol, 1-benzenesulfonate", "2-Propyn-1-ol, benzenesulfonate", "2-Propynyl benzenesulfonate", "Propargyl phenylsulfonate", "Propargyl benzenesulfonate", "Propargyl besylate", "2-Propyn-1-yl benzenesulfonate"], "SMILES": "S(OCC#C)(=O)(=O)C1=CC=CC=C1", "physical_data": {"Molecular Weight": "196.22", "Molecular Formula": "C9H8O3S", "Boiling Point": "142-144 \u00b0C @ Press: 4 Torr", "Melting Point": "178 \u00b0C", "Density": "1.2381 g/cm\u00b3 @ Temp: 20 \u00b0C"}}