{"cas_no": "6165-76-0", "cn_name": "\u5bf9\u7532\u82ef\u78fa\u9178\u4e19\u7094\u916f", "en_name": ["2-Propyn-1-ol, 1-(4-methylbenzenesulfonate)", "2-Propyn-1-ol, 1-(4-methylbenzenesulfonate)", "2-Propyn-1-ol, p-toluenesulfonate", "2-Propyn-1-ol, 4-methylbenzenesulfonate", "p-Toluenesulfonic acid propargyl ester", "Propargyl tosylate", "2-Propynyl p-toluenesulfonate", "2-Propynyl tosylate", "Propargyl alcohol tosylate", "1-[(p-Toluenesulfonyl)oxy]-2-propyne", "2-Propyn-1-yl 4-methylbenzenesulfonate"], "SMILES": "S(OCC#C)(=O)(=O)C1=CC=C(C)C=C1", "physical_data": {"Molecular Weight": "210.25", "Molecular Formula": "C10H10O3S", "Boiling Point": "161-162 \u00b0C @ Press: 4 Torr"}}