{"cas_no": "6165-69-1", "cn_name": "3-\u567b\u5429\u787c\u9178", "en_name": ["3-Thienylboronic acid", "Boronic acid, B-3-thienyl-", "3-Thiopheneboronic acid", "Boronic acid, 3-thienyl-", "B-3-Thienylboronic acid", "3-Thienylboronic acid", "3-Thiophenylboronic acid", "3-Thiopheneboric acid", "Thiophen-3-boronic acid", "(Thiophene-3-yl)boronic acid", "Thiophen-3-ylboronic acid"], "SMILES": "B(O)(O)C=1C=CSC1", "physical_data": {"Molecular Weight": "127.96", "Molecular Formula": "C4H5BO2S", "Melting Point": "152-154 \u00b0C"}}