{"cas_no": "6166-86-5", "cn_name": "2,4,6,8,10-\u73af\u4e94\u7845\u6c27\u70f7", "en_name": ["Pentamethylcyclopentasiloxane", "Cyclopentasiloxane, 2,4,6,8,10-pentamethyl-", "2,4,6,8,10-Pentamethylcyclopentasiloxane", "1,3,5,7,9-Pentamethylcyclopentasiloxane", "LS 8990", "Pentamethylcyclopentasiloxane", "D 5H", "2,4,6,8,10-Pentamethyl-1,3,5,7,9,2,4,6,8,10-pentaoxapentasilecane"], "SMILES": "C[SiH]1O[SiH](C)O[SiH](C)O[SiH](C)O[SiH](C)O1", "physical_data": {"Molecular Weight": "300.64", "Molecular Formula": "C5H20O5Si5", "Boiling Point": "169 \u00b0C", "Melting Point": "-108 \u00b0C", "Density": "0.998 g/cm\u00b3"}}