{"cas_no": "61676-62-8", "cn_name": "\u5f02\u4e19\u9187\u9891\u54ea\u9187\u787c\u9178\u916f", "en_name": ["Isopropoxy 4,4,5,5-tetramethyl-1,3,2-dioxaborolane", "1,3,2-Dioxaborolane, 4,4,5,5-tetramethyl-2-(1-methylethoxy)-", "Boric acid, cyclic tetramethylethylene isopropyl ester", "4,4,5,5-Tetramethyl-2-(1-methylethoxy)-1,3,2-dioxaborolane", "2-Isopropoxy-4,4,5,5-tetramethyl-1,3,2-dioxaborolane", "Isopropyl pinacol borate", "Isopropoxy 4,4,5,5-tetramethyl-1,3,2-dioxaborolane", "2-Isopropoxy-4,4,5,5-tetramethyl-1,3,2-dioxoborolane", "2-Isopropoxy-4,4,5,5-tetramethyl-1,3,2-dioxaboralane", "4,4,5,5-Tetramethyl-2-[(propan-2-yl)oxy]-1,3,2-dioxaborolane", "Isopropoxyboronic acid pinacol ester", "4,4,5,5-Tetramethyl-2-isopropoxy-1,3,2-dioxaborolane", "PinBop", "2-Isopropoxy-4,4\u2032,5,5\u2032-tetramethyl[1-3]dioxaborolane", "2-Isopropoxy-4,4,5,6-tetramethyl-1,3,2-dioxaboralane", "Isopropylpinacolylborate", "2-Isopropoxy-4,4,5,5-tetramethyl-1,3,2-dioxaborolan"], "SMILES": "O(C(C)C)B1OC(C)(C)C(C)(C)O1", "physical_data": {"Molecular Weight": "186.06", "Molecular Formula": "C9H19BO3", "Boiling Point": "180-185 \u00b0C"}}