{"cas_no": "61676-87-7", "cn_name": "\u87a8\u8731\u80fa", "en_name": ["Cymiazole", "Benzenamine, 2,4-dimethyl-N-(3-methyl-2(3H)-thiazolylidene)-", "2,4-Dimethyl-N-(3-methyl-2(3H)-thiazolylidene)benzenamine", "CGA 50439", "Tifatol", "Xymiazole", "Besuntol", "2-(2\u2032,4\u2032-Dimethylphenylimino)-3-methylthiazoline", "Cymiazole", "2,4-Dimethyl-N-(3-methylthiazol-2(3H)-ylidene)aniline"], "SMILES": "N(C1=C(C)C=C(C)C=C1)=C2N(C)C=CS2", "physical_data": {"Molecular Weight": "218.32", "Molecular Formula": "C12H14N2S", "Melting Point": "44 \u00b0C"}}