{"cas_no": "6168-72-5", "cn_name": "DL-\u6c28\u57fa\u4e19\u9187", "en_name": ["DL-2-Amino-1-propanol", "1-Propanol, 2-amino-", "1-Propanol, 2-amino-, DL-", "1-Propanol, 2-amino-, (\u00b1)-", "2-Amino-1-propanol", "dl-2-Aminopropanol", "DL-2-Amino-1-propanol", "DL-Alaninol", "(\u00b1)-2-Amino-1-propanol", "dl-Alaninol", "dl-2-Amino-1-propanol", "(\u00b1)-2-Aminopropanol", "Alaninol", "2-Aminopropanol", "\u03b2-Propanolamine", "1-Methyl-2-hydroxyethylamine", "2-Amino-2-methylethanol", "1-Hydroxy-2-aminopropane", "2-Hydroxy-1-methylethylamine", "\u03b2-Aminopropanol", "2-Amino-1-hydroxypropane", "Propanolamine", "(RS)-2-Amino-1-propanol", "(\u00b1)-Alaninol", "NSC 1360", "[1-(Hydroxymethyl)ethyl]amine", "1-Hydroxypropan-2-amine", "1-Hydroxyprop-2-ylamine", "2-Methylethanolamine"], "SMILES": "C(CO)(C)N", "physical_data": {"Molecular Weight": "75.11", "Molecular Formula": "C3H9NO", "Boiling Point": "174.5 \u00b0C", "Melting Point": "96 \u00b0C"}}