{"cas_no": "61692-84-0", "cn_name": "(E)-2-\u7532\u57fa-2-\u4e01\u9178-2-\u7532\u4e19\u916f", "en_name": ["Isobutyl tiglate", "2-Butenoic acid, 2-methyl-, 2-methylpropyl ester, (2E)-", "2-Butenoic acid, 2-methyl-, 2-methylpropyl ester, (E)-", "Tiglic acid, isobutyl ester", "Isobutyl tiglate"], "SMILES": "C(OCC(C)C)(C(=CC)C)=O", "physical_data": {"Molecular Weight": "156.22", "Molecular Formula": "C9H16O2", "Boiling Point": "180 \u00b0C @ Press: 760 Torr"}}