{"cas_no": "6169-06-8", "cn_name": "(S)-(+)-2-\u8f9b\u9187", "en_name": ["(+)-2-Octanol", "2-Octanol, (2S)-", "2-Octanol, (S)-(+)-", "2-Octanol, (S)-", "(2S)-2-Octanol", "d-2-Octanol", "(S)-(+)-2-Octanol", "(+)-2-Octanol", "(S)-(+)-2-Octyl alcohol", "(S)-1-Methylheptyl alcohol", "D-(+)-Octan-2-ol", "(S)-2-Octanol", "D-2-Octanol", "(2S)-Octanol", "(S)-2-Octyl alcohol"], "SMILES": "C(CC(C)O)CCCC", "physical_data": {"Molecular Weight": "130.23", "Molecular Formula": "C8H18O", "Boiling Point": "176-177 \u00b0C", "Density": "0.8152 g/cm\u00b3 @ Temp: 25 \u00b0C"}}