{"cas_no": "617-65-2", "cn_name": "DL-\u8c37\u6c28\u9178", "en_name": ["Glutamic acid", "Glutamic acid", "Glutamic acid, DL-", "DL-Glutamic acid", "(\u00b1)-Glutamic acid", "DL-Glu", "Glutaminic acid", "NSC 206301", "NSC 9967", "4-Amino-1,5-pentanedioic acid", "2-Aminopentanedioic acid"], "SMILES": "C(CCC(O)=O)(C(O)=O)N", "physical_data": {"Molecular Weight": "147.13", "Molecular Formula": "C5H9NO4", "Boiling Point": "94-97 \u00b0C @ Press: 3 Torr", "Melting Point": "199 \u00b0C (decomp)"}}