{"cas_no": "617-79-8", "cn_name": "2-\u4e59\u57fa\u4e01\u80fa", "en_name": ["2-Ethylbutylamine", "1-Butanamine, 2-ethyl-", "Butylamine, 2-ethyl-", "2-Ethyl-1-butanamine", "2-Ethylbutylamine", "1-Amino-2-ethylbutane", "(2-Ethyl-n-butyl)amine", "3-(Aminomethyl)pentane"], "SMILES": "C(CC)(CC)CN", "physical_data": {"Molecular Weight": "101.19", "Molecular Formula": "C6H15N", "Boiling Point": "125 \u00b0C", "Melting Point": "42-43 \u00b0C", "Density": "0.776 g/cm\u00b3 @ Temp: 20 \u00b0C"}}