{"cas_no": "617-78-7", "cn_name": "3-\u5df2\u57fa\u620a\u70f7", "en_name": ["3-Ethylpentane", "Pentane, 3-ethyl-", "3-Ethylpentane", "NSC 74151"], "SMILES": "C(CC)(CC)CC", "physical_data": {"Molecular Weight": "100.20", "Molecular Formula": "C7H16", "Boiling Point": "93.5 \u00b0C", "Melting Point": "-118.6 \u00b0C", "Density": "0.6984 g/cm\u00b3 @ Temp: 20 \u00b0C"}}