{"cas_no": "617-88-9", "cn_name": "2-\u6c2f\u7532\u57fa\u544b\u5583", "en_name": ["2-(Chloromethyl)furan", "Furan, 2-(chloromethyl)-", "2-(Chloromethyl)furan", "\u03b1-Furfuryl chloride", "Furfuryl chloride", "\u03b1-Furylmethyl chloride", "NSC 929", "2-Furfuryl chloride", "2-Furylmethyl chloride", "Furan-2-ylmethyl chloride"], "SMILES": "C(Cl)C1=CC=CO1", "physical_data": {"Molecular Weight": "116.55", "Molecular Formula": "C5H5ClO", "Boiling Point": "49.1-49.4 \u00b0C @ Press: 26 Torr", "Density": "1.1804 g/cm\u00b3 @ Temp: 20 \u00b0C"}}