{"cas_no": "617-29-8", "cn_name": "\u90bb\u7532\u57fa\u95f4\u7f9f\u57fa\u4e8c\u82ef\u80fa", "en_name": ["2-Methyl-3-hexanol", "3-Hexanol, 2-methyl-", "2-Methyl-3-hexanol", "1-Isopropyl-1-butanol", "5-Methyl-4-hexanol", "2-Methyl-3-hexyl alcohol", "(\u00b1)-2-Methyl-3-hexanol", "NSC 91501", "1-Isopropylbutyl alcohol"], "SMILES": "C(CCC)(C(C)C)O", "physical_data": {"Molecular Weight": "116.20", "Molecular Formula": "C7H16O", "Boiling Point": "141 \u00b0C", "Density": "0.8303 g/cm\u00b3 @ Temp: 11 \u00b0C"}}