{"cas_no": "617-89-0", "cn_name": "2-\u544b\u5583\u7532\u80fa", "en_name": ["2-Furanmethanamine", "2-Furanmethanamine", "Furfurylamine", "2-Furanmethylamine", "2-(Aminomethyl)furan", "2-Furfurylamine", "\u03b1-Furfurylamine", "(2-Furylmethyl)amine", "(2-Furanylmethyl)amine", "2-Furylmethanamine", "NSC 49136", "NSC 61168", "(Furan-2-yl)methanamine", "1-(2-Furanyl)methanamine", "Furan-2-ylmethylamine"], "SMILES": "C(N)C1=CC=CO1", "physical_data": {"Molecular Weight": "97.12", "Molecular Formula": "C5H7NO", "Boiling Point": "145.5 \u00b0C", "Density": "1.0533 g/cm\u00b3 @ Temp: 20 \u00b0C"}}