{"cas_no": "617-62-9", "cn_name": "2-\u7532\u57fa\u620a\u4e8c\u9178(\u4e8c\u805a\u4e19\u70ef\u9178)", "en_name": ["2-Methylglutaric acid", "Pentanedioic acid, 2-methyl-", "Glutaric acid, 2-methyl-", "2-Methylpentanedioic acid", "\u03b1-Methylglutaric acid", "2-Methylglutaric acid", "(\u00b1)-2-Methylglutaric acid", "NSC 408456", "NSC 5941", "Pentanedioic acid 2-methyl ester"], "SMILES": "C(CCC(O)=O)(C(O)=O)C", "physical_data": {"Molecular Weight": "146.14", "Molecular Formula": "C6H10O4", "Boiling Point": "195-196 \u00b0C @ Press: 12 Torr", "Melting Point": "78-80 \u00b0C"}}