{"cas_no": "617-33-4", "cn_name": "\u4e8c\u6eb4\u4e59\u9178\u4e59\u916f", "en_name": ["Ethyl 2,2-dibromoacetate", "Acetic acid, 2,2-dibromo-, ethyl ester", "Acetic acid, dibromo-, ethyl ester", "Ethyl 2,2-dibromoacetate", "Dibromoacetic acid ethyl ester", "Ethyl dibromoacetate", "NSC 8830", "2,2-Dibromoacetic acid ethyl ester"], "SMILES": "C(OCC)(C(Br)Br)=O", "physical_data": {"Molecular Weight": "245.90", "Molecular Formula": "C4H6Br2O2", "Boiling Point": "194 \u00b0C"}}