{"cas_no": "617-04-9", "cn_name": "\u7532\u57fa-D-\u4e19\u567b", "en_name": ["Methyl \u03b1-D-mannopyranoside", "\u03b1-D-Mannopyranoside, methyl", "Mannopyranoside, methyl, \u03b1-D-", "Methyl \u03b1-D-mannopyranoside", "1-O-Methyl-\u03b1-D-mannopyranoside", "1-O-Methyl-\u03b1-mannopyranoside", "Methyl \u03b1-D-mannoside", "\u03b1-Methyl D-(-)-mannoside", "NSC 1225", "Methyl-O-\u03b1-D-mannopyranoside"], "SMILES": "C(O)C1OC(OC)C(O)C(O)C1O", "physical_data": {"Molecular Weight": "194.18", "Molecular Formula": "C7H14O6", "Melting Point": "193 \u00b0C"}}