{"cas_no": "617-92-5", "cn_name": "N-\u4e59\u5421\u5576", "en_name": ["1-Ethyl-1H-pyrrole", "1H-Pyrrole, 1-ethyl-", "Pyrrole, 1-ethyl-", "1-Ethyl-1H-pyrrole", "N-Ethylpyrrole", "1-Ethylpyrrole", "NSC 6756"], "SMILES": "C(C)N1C=CC=C1", "physical_data": {"Molecular Weight": "95.14", "Molecular Formula": "C6H9N", "Boiling Point": "129.5 \u00b0C", "Density": "0.9005 g/cm\u00b3 @ Temp: 20 \u00b0C"}}