{"cas_no": "617-94-7", "cn_name": "2-\u82ef\u57fa-2-\u4e19\u9187", "en_name": ["2-Phenyl-2-propanol", "Benzenemethanol, \u03b1,\u03b1-dimethyl-", "Benzyl alcohol, \u03b1,\u03b1-dimethyl-", "\u03b1,\u03b1-Dimethylbenzenemethanol", "\u03b1-Cumyl alcohol", "\u03b1,\u03b1-Dimethylbenzyl alcohol", "2-Propanol, 2-phenyl-", "Dimethylphenylcarbinol", "2-Phenyl-2-propanol", "Dimethylphenylmethanol", "1-Hydroxycumene", "2-Phenylisopropanol", "Phenyldimethylcarbinol", "1-Methyl-1-phenylethanol", "2-Hydroxy-2-phenylpropane", "NSC 1261", "NSC 212537"], "SMILES": "C(C)(C)(O)C1=CC=CC=C1", "physical_data": {"Molecular Weight": "136.19", "Molecular Formula": "C9H12O", "Boiling Point": "202 \u00b0C @ Press: 760 Torr", "Melting Point": "36 \u00b0C", "Density": "0.9735 g/cm\u00b3 @ Temp: 20 \u00b0C"}}