{"cas_no": "617-84-5", "cn_name": "N,N-\u4e8c\u4e59\u57fa\u7532\u9170\u80fa", "en_name": ["Diethylformamide", "Formamide, N,N-diethyl-", "N,N-Diethylformamide", "Diethylformamide", "N-Formyldiethylamine", "NSC 6242"], "SMILES": "N(CC)(CC)C=O", "physical_data": {"Molecular Weight": "101.15", "Molecular Formula": "C5H11NO", "Boiling Point": "177.5 \u00b0C", "Melting Point": "60-61 \u00b0C", "Density": "0.9057 g/cm\u00b3 @ Temp: 20 \u00b0C"}}