{"cas_no": "617-52-7", "cn_name": "\u8863\u5eb7\u9178\u4e8c\u7532\u916f", "en_name": ["Dimethyl itaconate", "Butanedioic acid, 2-methylene-, 1,4-dimethyl ester", "Succinic acid, methylene-, dimethyl ester", "Butanedioic acid, methylene-, dimethyl ester", "Itaconic acid dimethyl ester", "Dimethyl itaconate", "Methylenesuccinic acid dimethyl ester", "Dimethyl methylenesuccinate", "Methyl 4-methoxy-2-methylene-4-oxobutanoate", "Dimethyl methylenebutanedioate", "NSC 9385", "Dimethyl 2-methylenesuccinate", "Methylenebutanedioic acid dimethyl ester", "1,4-Dimethyl 2-methylidenebutanedioate", "2-Methylene-succinic acid dimethyl ester", "2-(Methylene)butanedioic dimethyl ester"], "SMILES": "C(CC(OC)=O)(C(OC)=O)=C", "physical_data": {"Molecular Weight": "158.15", "Molecular Formula": "C7H10O4", "Boiling Point": "208 \u00b0C", "Melting Point": "38 \u00b0C", "Density": "1.1246 g/cm\u00b3 @ Temp: 20 \u00b0C"}}