{"cas_no": "617-36-7", "cn_name": "\u8349\u9178\u9170\u80fa\u4e59\u916f", "en_name": ["Ethyl oxamate", "Acetic acid, 2-amino-2-oxo-, ethyl ester", "Oxamic acid, ethyl ester", "Acetic acid, aminooxo-, ethyl ester", "Oxamethane", "Ethoxalamide", "Oxalic acid monoethyl ester amide", "Ethyl oxamate", "Ethyl 2-amino-2-oxoacetate", "NSC 48381", "2-Amino-2-oxoacetic acid ethyl ester", "O-Ethyl oxamate"], "SMILES": "C(OCC)(C(N)=O)=O", "physical_data": {"Molecular Weight": "117.10", "Molecular Formula": "C4H7NO3", "Melting Point": "114-115 \u00b0C"}}