{"cas_no": "617-50-5", "cn_name": "1-\u7532\u57fa\u4e59\u57fa-2-\u7532\u57fa\u4e19\u9178\u916f", "en_name": ["Isopropyl isobutyrate", "Propanoic acid, 2-methyl-, 1-methylethyl ester", "Isobutyric acid, isopropyl ester", "Isopropyl isobutyrate", "Isopropyl 2-methylpropanoate", "2-Methylpropanoic acid 2-propyl ester"], "SMILES": "C(OC(C)C)(C(C)C)=O", "physical_data": {"Molecular Weight": "130.18", "Molecular Formula": "C7H14O2", "Boiling Point": "120.7 \u00b0C"}}