{"cas_no": "617-05-0", "cn_name": "\u9999\u8349\u9178\u4e59\u916f", "en_name": ["Ethyl vanillate", "Benzoic acid, 4-hydroxy-3-methoxy-, ethyl ester", "Vanillic acid, ethyl ester", "Ethyl vanillate", "4-Hydroxy-3-methoxybenzoic acid ethyl ester", "Ethyl 4-hydroxy-3-methoxybenzoate", "Ethyl 3-methoxy-4-hydroxybenzoate", "NSC 8513", "Vanillin acid ethyl ester"], "SMILES": "C(OCC)(=O)C1=CC(OC)=C(O)C=C1", "physical_data": {"Molecular Weight": "196.20", "Molecular Formula": "C10H12O4", "Boiling Point": "292 \u00b0C", "Melting Point": "44 \u00b0C"}}