{"cas_no": "617-54-9", "cn_name": "\u67e0\u5eb7\u9178\u4e8c\u7532\u916f", "en_name": ["Dimethyl citraconate", "2-Butenedioic acid, 2-methyl-, 1,4-dimethyl ester, (2Z)-", "Citraconic acid, dimethyl ester", "2-Butenedioic acid, 2-methyl-, dimethyl ester, (Z)-", "2-Butenedioic acid, 2-methyl-, dimethyl ester, (2Z)-", "Dimethyl citraconate", "Methylmaleic acid, dimethyl ester", "Dimethyl methylmaleate", "cis-2-Methyl-2-butenedioic acid dimethyl ester"], "SMILES": "C(=CC(OC)=O)(C(OC)=O)C", "physical_data": {"Molecular Weight": "158.15", "Molecular Formula": "C7H10O4", "Boiling Point": "210.5 \u00b0C", "Density": "1.1097 g/cm\u00b3 @ Temp: 17.6 \u00b0C"}}