{"cas_no": "617-31-2", "cn_name": "2-\u7f9f\u57fa\u620a\u9178", "en_name": ["(\u00b1)-2-Hydroxypentanoic acid", "Pentanoic acid, 2-hydroxy-", "Valeric acid, 2-hydroxy-", "2-Hydroxypentanoic acid", "\u03b1-Hydroxy-n-valeric acid", "\u03b1-Hydroxyvaleric acid", "\u03b1-Hydroxypentanoic acid", "2-Hydroxyvaleric acid", "(\u00b1)-\u03b1-Hydroxyvaleric acid", "DL-\u03b1-Hydroxyvaleric acid", "DL-2-Hydroxypentanoic acid", "(\u00b1)-2-Hydroxypentanoic acid", "DL-2-Hydroxyvaleric acid", "(\u00b1)-2-Hydroxy-n-valeric acid", "(\u00b1)-2-Hydroxyvaleric acid", "NSC 67957"], "SMILES": "C(CCC)(C(O)=O)O", "physical_data": {"Molecular Weight": "118.13", "Molecular Formula": "C5H10O3", "Melting Point": "34 \u00b0C"}}