{"cas_no": "617-73-2", "cn_name": "2-\u7f9f\u57fa\u8f9b\u9178", "en_name": ["2-Hydroxyoctanoic acid", "Octanoic acid, 2-hydroxy-", "2-Hydroxyoctanoic acid", "\u03b1-Hydroxycaprylic acid", "\u03b1-Hydroxyoctanoic acid", "2-Hydroxycaprylic acid", "\u03b1-Hydroxy-n-caprylic acid", "(\u00b1)-\u03b1-Hydroxycaprylic acid", "DL-2-Hydroxycaprylic acid", "(\u00b1)-2-Hydroxyoctanoic acid", "DL-2-Hydroxyoctanoic acid", "NSC 189703"], "SMILES": "C(CCCCCC)(C(O)=O)O", "physical_data": {"Molecular Weight": "160.21", "Molecular Formula": "C8H16O3", "Melting Point": "70 \u00b0C"}}