{"cas_no": "617-85-6", "cn_name": "\u4e09\u4e59\u57fa\u9511", "en_name": ["Triethylstibine", "Stibine, triethyl-", "Triethylstibine", "Triethylantimony"], "SMILES": "[Sb](CC)(CC)CC", "physical_data": {"Molecular Weight": "", "Molecular Formula": "C6H15Sb", "Boiling Point": "161.4 \u00b0C", "Melting Point": "-98 \u00b0C", "Density": "1.322 g/cm\u00b3 @ Temp: 20 \u00b0C"}}