{"cas_no": "617-68-5", "cn_name": "\u8d56\u6c28\u9178\u4e8c\u76d0\u9178\u76d0", "en_name": ["Lysine, hydrochloride (1:2)", "Lysine, hydrochloride (1:2)", "Lysine, dihydrochloride, DL-", "DL-Lysine, dihydrochloride", "Lysine, dihydrochloride", "2,6-Diaminohexanoic acid dihydrochloride"], "SMILES": "C(CCCCN)(C(O)=O)N.Cl", "physical_data": {"Molecular Weight": "", "Molecular Formula": "C6H14N2O2.2ClH", "Melting Point": "180-185 \u00b0C"}}