{"cas_no": "617-86-7", "cn_name": "\u4e09\u4e59\u57fa\u7845\u70f7", "en_name": ["Triethylsilane", "Silane, triethyl-", "Triethylsilane", "Triethylsilicon hydride", "Triethylhydrosilane", "NSC 93579", "LS 1320", "SIT 8330.0"], "SMILES": "[SiH](CC)(CC)CC", "physical_data": {"Molecular Weight": "116.28", "Molecular Formula": "C6H16Si", "Boiling Point": "109 \u00b0C", "Melting Point": "-157 \u00b0C", "Density": "0.730 g/cm\u00b3"}}