{"cas_no": "617-45-8", "cn_name": "DL-\u5929\u95e8\u51ac\u6c28\u9178", "en_name": ["DL-Aspartic acid", "Aspartic acid", "Aspartic acid, DL-", "DL-Aspartic acid", "DL-Aminosuccinic acid", "(RS)-Aspartic acid", "(\u00b1)-Aspartic acid", "Aminosuccinic acid", "NSC 141379", "2-Aminobutanedioic acid", "2-Azaniumyl-4-hydroxy-4-oxobutanoate"], "SMILES": "C(CC(O)=O)(C(O)=O)N", "physical_data": {"Molecular Weight": "133.10", "Molecular Formula": "C4H7NO4", "Melting Point": "275 \u00b0C", "Density": "1.663 g/cm\u00b3"}}