{"cas_no": "617-27-6", "cn_name": "DL-\u4e19\u6c28\u9178\u4e59\u916f\u76d0\u9178\u76d0", "en_name": ["Alanine, ethyl ester, hydrochloride (1:1)", "Alanine, ethyl ester, hydrochloride (1:1)", "Alanine, ethyl ester, hydrochloride, DL-", "DL-Alanine, ethyl ester, hydrochloride", "Alanine, ethyl ester, hydrochloride", "DL-\u03b1-Alanine ethyl ester hydrochloride", "NSC 46032", "Ethyl 2-aminopropanoate hydrochloride"], "SMILES": "C(OCC)(C(C)N)=O.Cl", "physical_data": {"Molecular Weight": "", "Molecular Formula": "C5H11NO2.ClH", "Melting Point": "81-83 \u00b0C"}}