{"cas_no": "617-35-6", "cn_name": "\u4e19\u916e\u9178\u4e59\u916f", "en_name": ["Ethyl pyruvate", "Propanoic acid, 2-oxo-, ethyl ester", "Pyruvic acid, ethyl ester", "Ethyl pyruvate", "Ethyl 2-oxopropanoate", "Ethyl 2-oxopropionate", "Ethyl methylglyoxylate", "2-Oxopropanoic acid ethyl ester", "NSC 48386", "2-Oxopropionic acid ethyl ester", "Methyl ethoxycarbonyl ketone"], "SMILES": "C(OCC)(C(C)=O)=O", "physical_data": {"Molecular Weight": "116.12", "Molecular Formula": "C5H8O3", "Boiling Point": "155 \u00b0C", "Melting Point": "-50 \u00b0C", "Density": "1.0596 g/cm\u00b3 @ Temp: 15-16 \u00b0C"}}