{"cas_no": "617-83-4", "cn_name": "N-\u6c30\u57fa\u4e8c\u4e59\u57fa\u80fa", "en_name": ["Diethylcyanamide", "Cyanamide, N,N-diethyl-", "Cyanamide, diethyl-", "N,N-Diethylcyanamide", "Diethylcyanamide", "(Diethylamino)carbonitrile", "N-Cyanodiethylamine", "NSC 7768"], "SMILES": "N(CC)(CC)C#N", "physical_data": {"Molecular Weight": "98.15", "Molecular Formula": "C5H10N2", "Boiling Point": "188 \u00b0C", "Melting Point": "-80.6 \u00b0C", "Density": "0.8540 g/cm\u00b3 @ Temp: 20 \u00b0C"}}