{"cas_no": "617-90-3", "cn_name": "2-\u6c30\u57fa\u544b\u5583", "en_name": ["2-Furancarbonitrile", "2-Furancarbonitrile", "2-Furonitrile", "2-Cyanofuran", "2-Furyl cyanide", "\u03b1-Furyl cyanide", "2-Furylcarbonitrile", "2-Furfuryl cyanide", "NSC 35567"], "SMILES": "C(#N)C1=CC=CO1", "physical_data": {"Molecular Weight": "93.08", "Molecular Formula": "C5H3NO", "Boiling Point": "147 \u00b0C", "Melting Point": "147 \u00b0C", "Density": "1.04627 g/cm\u00b3 @ Temp: 20 \u00b0C"}}