{"cas_no": "617-37-8", "cn_name": "\u8349\u9178\u5355\u4e59\u916f", "en_name": ["Monoethyl oxalate", "Ethanedioic acid, 1-ethyl ester", "Oxalic acid, monoethyl ester", "Ethanedioic acid, monoethyl ester", "Oxalic acid, ethyl ester", "Ethyl hydrogen oxalate", "Monoethyl oxalate", "2-Ethoxy-2-oxoacetic acid"], "SMILES": "C(OCC)(C(O)=O)=O", "physical_data": {"Molecular Weight": "118.09", "Molecular Formula": "C4H6O4", "Melting Point": "195 \u00b0C (decomp)"}}