{"cas_no": "617-97-0", "cn_name": "\u95f4\u7532\u82ef\u78fa\u9178\u4e00\u6c34\u5408\u7269", "en_name": ["3-Methylbenzenesulfonic acid", "Benzenesulfonic acid, 3-methyl-", "m-Toluenesulfonic acid", "3-Methylbenzenesulfonic acid", "m-Methylbenzenesulfonic acid", "3-Methylbenzensulfonic acid", "3-Methylbenzene-1-sulfonic acid"], "SMILES": "S(=O)(=O)(O)C1=CC(C)=CC=C1", "physical_data": {"Molecular Weight": "172.20", "Molecular Formula": "C7H8O3S", "Melting Point": "119.5-121 \u00b0C"}}