{"cas_no": "6170-06-5", "cn_name": "\u831c\u7d20-1-\u7532\u919a", "en_name": ["Alizarin 1-methyl ether", "9,10-Anthracenedione, 2-hydroxy-1-methoxy-", "Anthraquinone, 2-hydroxy-1-methoxy-", "2-Hydroxy-1-methoxy-9,10-anthracenedione", "Alizarin 1-methyl ether", "1-Methoxy-2-hydroxyanthraquinone", "2-Hydroxy-1-methoxyanthraquinone"], "SMILES": "O(C)C1=C2C(C(=O)C=3C(C2=O)=CC=CC3)=CC=C1O", "physical_data": {"Molecular Weight": "254.24", "Molecular Formula": "C15H10O4", "Melting Point": "177-179 \u00b0C"}}