{"cas_no": "6170-42-9", "cn_name": "\u76d0\u9178\u6c2f\u5421\u80fa", "en_name": ["Chloropyramine hydrochloride", "1,2-Ethanediamine, N1-[(4-chlorophenyl)methyl]-N2,N2-dimethyl-N1-2-pyridinyl-, hydrochloride (1:1)", "Pyridine, 2-[(p-chlorobenzyl)[2-(dimethylamino)ethyl]amino]-, monohydrochloride", "1,2-Ethanediamine, N-[(4-chlorophenyl)methyl]-N\u2032,N\u2032-dimethyl-N-2-pyridinyl-, monohydrochloride", "Chloropyribenzamine hydrochloride", "Halopyramine hydrochloride", "Chloropyramine hydrochloride", "Chlorpyramine hydrochloride", "N-(\u03b2-Dimethylaminoethyl)-N-(p-chlorobenzyl)-\u03b1-aminopyridine hydrochloride", "Alergosan", "Suprastin hydrochloride", "Allergan S hydrochloride", "Sinopen hydrochloride", "NSC 409949", "CFAK-C 4"], "SMILES": "N(CC1=CC=C(Cl)C=C1)(CCN(C)C)C2=CC=CC=N2.Cl", "physical_data": {"Molecular Weight": "", "Molecular Formula": "C16H20ClN3.ClH", "Melting Point": "172-174 \u00b0C"}}