{"cas_no": "61717-82-6", "cn_name": "2-\u7898\u9170\u57fa\u82ef\u7532\u9178", "en_name": ["1-Hydroxy-1,2-benziodoxol-3(1H)-one 1-oxide", "1,2-Benziodoxol-3(1H)-one, 1-hydroxy-, 1-oxide", "1-Hydroxy-1,2-benziodoxol-3(1H)-one 1-oxide", "IBX", "NSC 366248", "1-Hydroxy-1,3-dioxo-3H-benz[d][1,2]iodoxol", "1-Hydroxy-3H-benz[d][1,2]iodoxol-1,3-dione", "SIBX", "1-Hydroxyl-2-benziodoxol-3(1H)-one 1-oxide", "1-Hydroxy-1,2-benziodoxole-3(1H)-one 1-oxide"], "SMILES": "O=I1(O)C=2C(C(=O)O1)=CC=CC2", "physical_data": {"Molecular Weight": "", "Molecular Formula": "C7H5IO4", "Melting Point": "232 \u00b0C (decomp)"}}