{"cas_no": "61714-27-0", "cn_name": "N-(6-\u6c28\u57fa\u5df1\u57fa)-5-\u6c2f-1-\u8418\u78fa\u80fa\u76d0\u9178\u76d0", "en_name": ["W-7 Hydrochloride", "1-Naphthalenesulfonamide, N-(6-aminohexyl)-5-chloro-, hydrochloride (1:1)", "1-Naphthalenesulfonamide, N-(6-aminohexyl)-5-chloro-, monohydrochloride", "W 7", "NSC 683545", "W-7 Hydrochloride"], "SMILES": "S(NCCCCCCN)(=O)(=O)C=1C2=C(C(Cl)=CC=C2)C=CC1.Cl", "physical_data": {"Molecular Weight": "", "Molecular Formula": "C16H21ClN2O2S.ClH", "Melting Point": "214 \u00b0C"}}