{"cas_no": "61718-82-9", "cn_name": "\u9a6c\u6765\u9178\u6c1f\u4f0f\u6c99\u660e", "en_name": ["Fluvoxamine maleate", "1-Pentanone, 5-methoxy-1-[4-(trifluoromethyl)phenyl]-, O-(2-aminoethyl)oxime, (1E)-, (2Z)-2-butenedioate (1:1)", "1-Pentanone, 5-methoxy-1-[4-(trifluoromethyl)phenyl]-, O-(2-aminoethyl)oxime, (E)-, (Z)-2-butenedioate (1:1)", "Fluvoxamine maleate", "Faverin 50", "Luvox", "DU 23000", "Avoxin", "Avoksin", "Depromel", "Fevarin", "Dumirox", "MK 264", "Floxyfral", "Maveral", "Faverin", "NSC 309469", "Faverine"], "SMILES": "C(=CC(O)=O)C(O)=O.C(CCCCOC)(=NOCCN)C1=CC=C(C(F)(F)F)C=C1", "physical_data": {"Molecular Weight": "", "Molecular Formula": "C15H21F3N2O2.C4H4O4", "Melting Point": "120-121.5 \u00b0C"}}