{"cas_no": "6174-95-4", "cn_name": "\u4e9a\u4e59\u57fa\u56db\u7fa7\u9178\u56db\u4e59\u916f", "en_name": ["1,1,2,2-Tetraethyl 1,1,2,2-ethenetetracarboxylate", "1,1,2,2-Ethenetetracarboxylic acid, 1,1,2,2-tetraethyl ester", "Ethenetetracarboxylic acid, tetraethyl ester", "1,1,2,2-Tetraethyl 1,1,2,2-ethenetetracarboxylate", "Tetraethyl ethenetetracarboxylate", "Tetraethyl ethylenetetracarboxylate", "Tetrakis(ethoxycarbonyl)ethylene", "Tetracarbethoxyethylene", "Tetraethyl 1,1,2,2-ethenetetracarboxylate", "Tetraethoxycarbonylethylene", "NSC 16084", "2,3-Bis-ethoxycarbonyl-but-2-enedioic acid diethyl ester"], "SMILES": "C(=C(C(OCC)=O)C(OCC)=O)(C(OCC)=O)C(OCC)=O", "physical_data": {"Molecular Weight": "316.30", "Molecular Formula": "C14H20O8", "Boiling Point": "203 \u00b0C", "Melting Point": "58 \u00b0C"}}