{"cas_no": "6174-86-3", "cn_name": "3-\u6c2f-7-\u7f9f\u57fa-4-\u7532\u57fa\u9999\u8c46\u7d20", "en_name": ["Chlorferon", "2H-1-Benzopyran-2-one, 3-chloro-7-hydroxy-4-methyl-", "Coumarin, 3-chloro-7-hydroxy-4-methyl-", "Umbelliferone, 3-chloro-4-methyl-", "3-Chloro-7-hydroxy-4-methyl-2H-1-benzopyran-2-one", "3-Chloro-7-hydroxy-4-methylcoumarin", "3-Chloro-4-methyl-7-hydroxycoumarin", "Chlorferone", "7-Hydroxy-4-methyl-3-chlorocoumarin", "NSC 24924", "NSC 44204", "Chlorferon", "3-Chloro-7-hydroxy-4-methyl-2H-chromen-2-one", "3-Chloro-7-hydroxy-4-methylchromen-2-one"], "SMILES": "CC=1C=2C(OC(=O)C1Cl)=CC(O)=CC2", "physical_data": {"Molecular Weight": "210.61", "Molecular Formula": "C10H7ClO3", "Melting Point": "240 \u00b0C"}}