{"cas_no": "6175-45-7", "cn_name": "2,2-\u4e8c\u4e59\u6c27\u57fa\u82ef\u4e59\u916e", "en_name": ["2,2-Diethoxyacetophenone", "Ethanone, 2,2-diethoxy-1-phenyl-", "Glyoxal, phenyl-, 2-(diethyl acetal)", "Glyoxal, phenyl-, diethyl acetal", "Acetophenone, 2,2-diethoxy-", "2,2-Diethoxy-1-phenylethanone", "2,2-Diethoxyacetophenone", "\u03b1,\u03b1-Diethoxyacetophenone", "Phenylglyoxal diethyl acetal", "Diethoxyacetophenone", "DEAP", "Genocure DEAP", "NSC 66180", "2,2-Diethoxy-1-phenyl-1-ethanone", "Firstcure DEAP"], "SMILES": "C(C(=O)C1=CC=CC=C1)(OCC)OCC", "physical_data": {"Molecular Weight": "208.25", "Molecular Formula": "C12H16O3", "Boiling Point": "148.5-150 \u00b0C @ Press: 2.2 Torr", "Density": "1.044 g/cm\u00b3 @ Temp: 20 \u00b0C"}}