{"cas_no": "6175-49-1", "cn_name": "2-\u5341\u4e8c\u70f7\u916e", "en_name": ["2-Dodecanone", "2-Dodecanone", "Methyl decyl ketone", "Decyl methyl ketone"], "SMILES": "C(CCCCCC)CCCC(C)=O", "physical_data": {"Molecular Weight": "184.32", "Molecular Formula": "C12H24O", "Boiling Point": "246.5 \u00b0C", "Melting Point": "21 \u00b0C"}}