{"cas_no": "61764-34-9", "cn_name": "4-\u4e19\u57fa\u567b\u5511-2-\u80fa", "en_name": ["4-Propyl-2-thiazolamine", "2-Thiazolamine, 4-propyl-", "Thiazole, 2-amino-4-propyl-", "4-Propyl-2-thiazolamine", "2-Amino-4-propylthiazole", "4-Propyl-1,3-thiazol-2-ylamine", "2-Amino-4-n-propylthiazole"], "SMILES": "C(CC)C=1N=C(N)SC1", "physical_data": {"Molecular Weight": "142.22", "Molecular Formula": "C6H10N2S", "Boiling Point": "108-109 \u00b0C @ Press: 0.5 Torr"}}