{"cas_no": "61789-51-3", "cn_name": "\u73af\u70f7\u9178\u94b4", "en_name": ["Naphthenic acids, cobalt salts", "Naphthenic acids, cobalt salts", "Naphthenic acids, cobalt salt", "Naphthenic acid, cobalt salts", "Cobalt naphthenates", "Cobalt naphthenate", "Naftolite", "Naphthex Co", "8SN-Co", "Cobalt Nap-All", "Nap-All", "RC-N 10", "Manobond LP 839", "NF 1", "NF 4", "NF 1 (catalyst)", "NF 4 (catalyst)", "Polymal P 106", "CN 10", "CN 10 (adhesion promoter)", "PA 203", "PA 203 (accelerator)", "UNK", "NK 1", "NK 1 (accelerator)", "CN 6", "CN 6 (catalyst)", "Co Naphthenate", "AC 1 (accelerator)", "AC 1", "EC 8", "Cobalt N", "CoNAP", "PR-CBZ 01", "CY 5656"], "SMILES": "", "physical_data": {"Molecular Weight": "", "Molecular Formula": "Unspecified", "Melting Point": "140 \u00b0C", "Density": "0.9 g/cm\u00b3"}}