{"cas_no": "61785-35-1", "cn_name": "2,5-\u4e8c\u6c2f-2-\u7f9f\u57fa\u4e8c\u82ef\u916e", "en_name": ["(5-Chloro-2-hydroxyphenyl)(2-chlorophenyl)methanone", "Methanone, (5-chloro-2-hydroxyphenyl)(2-chlorophenyl)-", "(5-Chloro-2-hydroxyphenyl)(2-chlorophenyl)methanone", "2\u2032,5-Dichloro-2-hydroxybenzophenone", "SL 810196"], "SMILES": "C(=O)(C1=C(O)C=CC(Cl)=C1)C2=C(Cl)C=CC=C2", "physical_data": {"Molecular Weight": "267.11", "Molecular Formula": "C13H8Cl2O2", "Melting Point": "106.5-107.5 \u00b0C"}}