{"cas_no": "61788-32-7", "cn_name": "\u6c22\u5316\u4e09\u8054\u82ef", "en_name": ["Terphenyl, hydrogenated", "Terphenyl, hydrogenated", "Hydrogenated terphenyl"], "SMILES": "", "physical_data": {"Molecular Weight": "", "Molecular Formula": "Unspecified", "Boiling Point": "340 \u00b0C", "Density": "1.00 g/cm\u00b3"}}