{"cas_no": "6178-44-5", "cn_name": "3,4,5-\u4e09\u7532\u6c27\u57fa\u82ef\u7532\u9178\u4e59\u916f", "en_name": ["Ethyl 3,4,5-trimethoxybenzoate", "Benzoic acid, 3,4,5-trimethoxy-, ethyl ester", "Ethyl 3,4,5-trimethoxybenzoate", "NSC 26825", "3,4,5-Trimethoxybenzoic acid ethyl ester"], "SMILES": "O(C)C1=C(OC)C=C(C(OCC)=O)C=C1OC", "physical_data": {"Molecular Weight": "240.25", "Molecular Formula": "C12H16O5", "Boiling Point": "180-181 \u00b0C @ Press: 12 Torr", "Melting Point": "53 \u00b0C"}}