{"cas_no": "61792-31-2", "cn_name": "\u6708\u6842\u9170\u80fa\u4e19\u57fa\u80fa\u6c27\u5316\u7269", "en_name": ["Laurylamidopropyldimethylamine oxide", "Dodecanamide, N-[3-(dimethyloxidoamino)propyl]-", "Dodecanamide, N-[3-(dimethylamino)propyl]-, N-oxide", "N-[3-(Dimethyloxidoamino)propyl]dodecanamide", "3-Lauramido-N,N-dimethylpropylamine oxide", "Mackamine LAO", "LAPAO", "3-Lauramidopropyl-N,N-dimethylamine oxide", "Dodecylamidopropyldimethylamine oxide", "N-(Dodecylamidetrimethylene)dimethylamine oxide", "Softazoline LAO", "Laurylamidopropyldimethylamine oxide", "Softazoline LAO-C", "N-Lauroylaminopropyl-N,N-dimethylamine oxide", "N,N-Dimethylaminopropyldodecylamide oxide", "Genaminox AP", "LAO 30", "Aromox APA 12W", "Lauroylamidopropyldimethylamine oxide", "Lauramidopropyl amine oxide", "Cadenax APA 12W", "LAO"], "SMILES": "C(NCCCN(C)(C)=O)(CCCCCCCCCCC)=O", "physical_data": {"Molecular Weight": "300.48", "Molecular Formula": "C17H36N2O2", "Melting Point": "119-122 \u00b0C"}}