{"cas_no": "618-94-0", "cn_name": "3-\u785d\u57fa\u82ef\u9170\u80bc", "en_name": ["3-Nitrobenzohydrazide", "Benzoic acid, 3-nitro-, hydrazide", "Benzoic acid, m-nitro-, hydrazide", "m-Nitrobenzoylhydrazine", "m-Nitrobenzoic acid hydrazide", "3-Nitrobenzhydrazide", "3-Nitrobenzoic acid hydrazide", "m-Nitrobenzhydrazide", "3-Nitrobenzoylhydrazine", "m-Nitrobenzoic hydrazide", "m-Nitrobenzoylhydrazide", "3-Nitrobenzohydrazide", "m-Nitrobenzohydrazide", "3-Nitrobenzoyl hydrazide", "NSC 123864", "NSC 3558", "INHd 20", "Meta-nitrobenzoyl hydrazine"], "SMILES": "C(NN)(=O)C1=CC(N(=O)=O)=CC=C1", "physical_data": {"Molecular Weight": "181.15", "Molecular Formula": "C7H7N3O3", "Melting Point": "153-154 \u00b0C"}}