{"cas_no": "618-95-1", "cn_name": "3-\u785d\u57fa\u82ef\u7532\u9178\u7532\u916f", "en_name": ["Methyl 3-nitrobenzoate", "Benzoic acid, 3-nitro-, methyl ester", "Benzoic acid, m-nitro-, methyl ester", "Methyl m-nitrobenzoate", "Methyl 3-nitrobenzoate", "m-Carbomethoxynitrobenzene", "3-Methoxycarbonyl-1-nitrobenzene", "m-Nitrobenzoic acid methyl ester", "3-Nitrobenzoic acid methyl ester", "NSC 1327"], "SMILES": "C(OC)(=O)C1=CC(N(=O)=O)=CC=C1", "physical_data": {"Molecular Weight": "181.15", "Molecular Formula": "C8H7NO4", "Boiling Point": "279 \u00b0C", "Melting Point": "78 \u00b0C"}}