{"cas_no": "618-98-4", "cn_name": "\u95f4\u785d\u57fa\u82ef\u7532\u9178\u4e59\u916f", "en_name": ["Benzoic acid, 3-nitro-, ethyl ester", "Benzoic acid, 3-nitro-, ethyl ester", "Benzoic acid, m-nitro-, ethyl ester", "Ethyl m-nitrobenzoate", "Ethyl 3-nitrobenzoate", "3-Nitrobenzoic acid ethyl ester", "NSC 32740", "NSC 6762"], "SMILES": "C(OCC)(=O)C1=CC(N(=O)=O)=CC=C1", "physical_data": {"Molecular Weight": "195.17", "Molecular Formula": "C9H9NO4", "Boiling Point": "297 \u00b0C", "Melting Point": "47 \u00b0C"}}