{"cas_no": "618-80-4", "cn_name": "2,6-\u4e8c\u6c2f-4-\u785d\u57fa\u82ef\u915a", "en_name": ["2,6-Dichloro-4-nitrophenol", "Phenol, 2,6-dichloro-4-nitro-", "2,6-Dichloro-4-nitrophenol", "4-Nitro-2,6-dichlorophenol", "DCNP", "NSC 4123", "2,6-Dichloro-p-nitrophenol"], "SMILES": "N(=O)(=O)C1=CC(Cl)=C(O)C(Cl)=C1", "physical_data": {"Molecular Weight": "208.00", "Molecular Formula": "C6H3Cl2NO3", "Melting Point": "125 \u00b0C"}}