{"cas_no": "618-45-1", "cn_name": "3-\u5f02\u4e19\u57fa\u82ef\u915a", "en_name": ["3-Isopropylphenol", "Phenol, 3-(1-methylethyl)-", "Phenol, m-isopropyl-", "3-(1-Methylethyl)phenol", "3-Isopropylphenol", "m-Cumenol", "m-Isopropylphenol", "NSC 2209", "3-(Propan-2-yl)phenol", "3-Isopropylhydroxybenzene"], "SMILES": "C(C)(C)C1=CC(O)=CC=C1", "physical_data": {"Molecular Weight": "136.19", "Molecular Formula": "C9H12O", "Boiling Point": "228 \u00b0C", "Melting Point": "26 \u00b0C"}}