{"cas_no": "618-27-9", "cn_name": "\u987a\u5f0f-4-\u7f9f\u57fa-L-\u812f\u6c28\u9178", "en_name": ["cis-4-Hydroxy-L-proline", "L-Proline, 4-hydroxy-, (4S)-", "Proline, 4-allo-hydroxy-, L-", "L-Proline, 4-hydroxy-, cis-", "Proline, 4-allo-hydroxy-", "(4S)-4-Hydroxy-L-proline", "cis-Hydroxyproline", "allo-Hydroxy-L-proline", "cis-4-Hydroxyproline", "allo-L-Hydroxyproline", "allo-4-Hydroxyproline", "4-cis-Hydroxy-L-proline", "L-Proline, allo-hydroxy-", "L-allo-4-Hydroxyproline", "L-Allohydroxyproline", "L-allo-Hydroxyproline", "(S)-allo-Hydroxyproline", "(2S,4S)-4-Hydroxyproline", "L-cis-4-Hydroxyproline", "4(S)-Hydroxy-2(S)-pyrrolidinecarboxylic acid", "cis-4-Hydroxy-L-proline", "NSC 206274", "(2S,4S)-4-Hydroxypyrrolidine-2-carboxylic acid", "H-Cis-Hyp-OH", "(2S,4S)-4-Hydroxypyrrolidine-2-carboxylic acid"], "SMILES": "C(O)(=O)C1CC(O)CN1", "physical_data": {"Molecular Weight": "131.13", "Molecular Formula": "C5H9NO3", "Melting Point": "250.0-252.0 \u00b0C (decomp)"}}