{"cas_no": "618-46-2", "cn_name": "3-\u6c2f\u82ef\u7532\u9170\u6c2f", "en_name": ["3-Chlorobenzoyl chloride", "Benzoyl chloride, 3-chloro-", "Benzoyl chloride, m-chloro-", "3-Chlorobenzoyl chloride", "m-Chlorobenzoyl chloride", "NSC 41886"], "SMILES": "C(Cl)(=O)C1=CC(Cl)=CC=C1", "physical_data": {"Molecular Weight": "175.01", "Molecular Formula": "C7H4Cl2O", "Boiling Point": "225 \u00b0C", "Melting Point": "48-49 \u00b0C"}}