{"cas_no": "618-36-0", "cn_name": "alpha-\u7532\u57fa\u82c4\u80fa", "en_name": ["1-Phenylethylamine", "Benzenemethanamine, \u03b1-methyl-", "Benzylamine, \u03b1-methyl-, (\u00b1)-", "Benzenemethanamine, \u03b1-methyl-, (\u00b1)-", "Benzylamine, \u03b1-methyl-, dl-", "\u03b1-Methylbenzenemethanamine", "(\u00b1)-1-Phenethylamine", "(\u00b1)-\u03b1-Phenylethylamine", "DL-1-Phenylethylamine", "(\u00b1)-\u03b1-Methylbenzylamine", "(\u00b1)-1-Phenylethylamine", "DL-\u03b1-Methylbenzylamine", "dl-\u03b1-Phenylethylamine", "(\u00b1)-1-Amino-1-phenylethane", "(RS)-\u03b1-Methylbenzylamine", "dl-\u03b1-Methylbenzylamine", "dl-\u03b1-Phenethylamine", "dl-1-Phenylethylamine", "DL-\u03b1-Phenylethylamine", "(\u00b1)-\u03b1-Methylbenzenemethanamine", "(RS)-1-Phenylethylamine", "(\u00b1)-\u03b1-Phenethylamine", "(RS)-1-Phenylethylamine", "(\u00b1)-Phenylethylamine", "\u03b1-Methylbenzylamine", "\u03b1-Phenylethylamine", "\u03b1-Phenethylamine", "1-Amino-1-phenylethane", "Ethanamine, 1-phenyl-", "1-Phenylethylamine", "1-Phenylethanamine", "1-Phenyl-1-ethanamine", "(1-Aminoethyl)benzene", "APEA", "\u03b1-Aminoethylbenzene", "NSC 8391"], "SMILES": "C(C)(N)C1=CC=CC=C1", "physical_data": {"Molecular Weight": "121.18", "Molecular Formula": "C8H11N", "Boiling Point": "187 \u00b0C", "Melting Point": "32 \u00b0C", "Density": "0.9458 g/cm\u00b3 @ Temp: 24 \u00b0C"}}