{"cas_no": "618-39-3", "cn_name": "\u82ef\u7532\u8112", "en_name": ["Benzamidine", "Benzenecarboximidamide", "Benzamidine", "Benzenylamidine", "Phenylamidine", "NSC 243704"], "SMILES": "C(=N)(N)C1=CC=CC=C1", "physical_data": {"Molecular Weight": "120.15", "Molecular Formula": "C7H8N2", "Melting Point": "78-80 \u00b0C"}}