{"cas_no": "618-91-7", "cn_name": "3-\u7898\u82ef\u7532\u9178\u7532\u916f", "en_name": ["Methyl 3-iodobenzoate", "Benzoic acid, 3-iodo-, methyl ester", "Benzoic acid, m-iodo-, methyl ester", "Methyl m-iodobenzoate", "Methyl 3-iodobenzoate", "3-(Methoxycarbonyl)iodobenzene", "m-Iodobenzoic acid methyl ester", "NSC 34639", "3-Iodobenzoic acid methyl ester"], "SMILES": "C(OC)(=O)C1=CC(I)=CC=C1", "physical_data": {"Molecular Weight": "262.04", "Molecular Formula": "C8H7IO2", "Boiling Point": "277 \u00b0C", "Melting Point": "54.5 \u00b0C"}}