{"cas_no": "618-32-6", "cn_name": "\u82c4\u6c27\u57fa\u6eb4", "en_name": ["Benzoyl bromide", "Benzoyl bromide"], "SMILES": "C(Br)(=O)C1=CC=CC=C1", "physical_data": {"Molecular Weight": "185.02", "Molecular Formula": "C7H5BrO", "Boiling Point": "218.5 \u00b0C", "Melting Point": "-24 \u00b0C"}}