{"cas_no": "618-40-6", "cn_name": "1-\u7532\u57fa-1-\u82ef\u80bc", "en_name": ["1-Methyl-1-phenylhydrazine", "Hydrazine, 1-methyl-1-phenyl-", "1-Methyl-1-phenylhydrazine", "N-Methyl-N-phenylhydrazine", "N-Phenyl-N-methylhydrazine", "\u03b1-Methyl-\u03b1-phenylhydrazine", "1-Methylphenylhydrazine", "NSC 525518"], "SMILES": "N(C)(N)C1=CC=CC=C1", "physical_data": {"Molecular Weight": "122.17", "Molecular Formula": "C7H10N2", "Boiling Point": "228 \u00b0C"}}