{"cas_no": "618-41-7", "cn_name": "\u82ef\u4e9a\u78fa\u9178", "en_name": ["Benzenesulfinic acid", "Benzenesulfinic acid", "Phenylsulfinic acid", "Benzenesulphinic acid", "Benzenesulphenic acid", "NSC 227915"], "SMILES": "S(=O)(O)C1=CC=CC=C1", "physical_data": {"Molecular Weight": "142.18", "Molecular Formula": "C6H6O2S", "Melting Point": "84 \u00b0C"}}