{"cas_no": "618-21-3", "cn_name": "\u5c0d\u7fa7\u82ef\u81a6\u9178", "en_name": ["4-Phosphonobenzoic acid", "Benzoic acid, 4-phosphono-", "Benzoic acid, p-phosphono-", "4-Phosphonobenzoic acid", "(4-Carboxyphenyl)phosphonic acid", "(p-Carboxyphenyl)phosphonic acid", "NSC 13565"], "SMILES": "P(=O)(O)(O)C1=CC=C(C(O)=O)C=C1", "physical_data": {"Molecular Weight": "202.10", "Molecular Formula": "C7H7O5P", "Melting Point": "&lt;300 \u00b0C"}}