{"cas_no": "618-58-6", "cn_name": "3,5-\u4e8c\u6eb4\u82ef\u7532\u9178", "en_name": ["3,5-Dibromobenzoic acid", "Benzoic acid, 3,5-dibromo-", "3,5-Dibromobenzoic acid"], "SMILES": "C(O)(=O)C1=CC(Br)=CC(Br)=C1", "physical_data": {"Molecular Weight": "279.91", "Molecular Formula": "C7H4Br2O2", "Melting Point": "209 \u00b0C"}}