{"cas_no": "618-76-8", "cn_name": "4-\u7f9f\u57fa-3,5-\u4e8c\u7898\u82ef\u7532\u9178", "en_name": ["3,5-Diiodo-4-hydroxybenzoic acid", "Benzoic acid, 4-hydroxy-3,5-diiodo-", "4-Hydroxy-3,5-diiodobenzoic acid", "Ioxynil acid", "3,5-Diiodo-4-hydroxybenzoic acid", "M and B 10903", "NSC 1497"], "SMILES": "C(O)(=O)C1=CC(I)=C(O)C(I)=C1", "physical_data": {"Molecular Weight": "389.91", "Molecular Formula": "C7H4I2O3", "Melting Point": "237 \u00b0C"}}