{"cas_no": "618-87-1", "cn_name": "3,5-\u4e8c\u785d\u57fa\u82ef\u80fa", "en_name": ["3,5-Dinitroaniline", "Benzenamine, 3,5-dinitro-", "Aniline, 3,5-dinitro-", "3,5-Dinitrobenzenamine", "3,5-Dinitroaniline", "1-Amino-3,5-dinitrobenzene", "Dinitroaniline", "NSC 284", "(3,5-Dinitrophenyl)amine"], "SMILES": "N(=O)(=O)C1=CC(N(=O)=O)=CC(N)=C1", "physical_data": {"Molecular Weight": "183.12", "Molecular Formula": "C6H5N3O4", "Melting Point": "163 \u00b0C"}}