{"cas_no": "618-47-3", "cn_name": "\u95f4\u82ef\u4e59\u9170\u80fa", "en_name": ["3-Methylbenzamide", "Benzamide, 3-methyl-", "m-Toluamide", "3-Methylbenzamide", "m-Methylbenzamide", "NSC 2170"], "SMILES": "C(N)(=O)C1=CC(C)=CC=C1", "physical_data": {"Molecular Weight": "135.16", "Molecular Formula": "C8H9NO", "Melting Point": "94-96 \u00b0C"}}