{"cas_no": "618-51-9", "cn_name": "3-\u7898\u82ef\u7532\u9178", "en_name": ["3-Iodobenzoic acid", "Benzoic acid, 3-iodo-", "Benzoic acid, m-iodo-", "3-Iodobenzoic acid", "m-Iodobenzoic acid", "m-Carboxyiodobenzene", "NSC 176131", "NSC 74693", "3-Iodobenzenecarboxylic acid", "Benzoic acid, 3-(iodocarbonyl)-"], "SMILES": "C(O)(=O)C1=CC(I)=CC=C1", "physical_data": {"Molecular Weight": "248.02", "Molecular Formula": "C7H5IO2", "Melting Point": "188.3 \u00b0C"}}