{"cas_no": "618-62-2", "cn_name": "3,5-\u4e8c\u6c2f\u785d\u57fa\u82ef", "en_name": ["3,5-Dichloronitrobenzene", "Benzene, 1,3-dichloro-5-nitro-", "1,3-Dichloro-5-nitrobenzene", "3,5-Dichloro-1-nitrobenzene", "3,5-Dichloronitrobenzene", "NSC 53841", "NSC 60642"], "SMILES": "N(=O)(=O)C1=CC(Cl)=CC(Cl)=C1", "physical_data": {"Molecular Weight": "192.00", "Molecular Formula": "C6H3Cl2NO2", "Melting Point": "64.5 \u00b0C", "Density": "1.692 g/cm\u00b3"}}