{"cas_no": "618-65-5", "cn_name": "\u7ee3\u7ebf\u83ca\u82f7", "en_name": ["Helicin", "Benzaldehyde, 2-(\u03b2-D-glucopyranosyloxy)-", "Helicin", "2-(\u03b2-D-Glucopyranosyloxy)benzaldehyde", "Salicylaldehyde 3-O-acetyl-\u03b2-D-glucopyranoside"], "SMILES": "O(C1OC(CO)C(O)C(O)C1O)C2=C(C=O)C=CC=C2", "physical_data": {"Molecular Weight": "284.26", "Molecular Formula": "C13H16O7", "Melting Point": "175 \u00b0C"}}