{"cas_no": "618-48-4", "cn_name": "\u95f4\u6c2f\u82ef\u7532\u9170\u80fa", "en_name": ["3-Chlorobenzamide", "Benzamide, 3-chloro-", "Benzamide, m-chloro-", "3-Chlorobenzamide", "m-Chlorobenzamide"], "SMILES": "C(N)(=O)C1=CC(Cl)=CC=C1", "physical_data": {"Molecular Weight": "155.58", "Molecular Formula": "C7H6ClNO", "Boiling Point": "99-100 \u00b0C @ Press: 15 Torr", "Melting Point": "133-134 \u00b0C"}}