{"cas_no": "618-89-3", "cn_name": "3-\u6eb4\u82ef\u7532\u9178\u7532\u916f", "en_name": ["Methyl 3-bromobenzoate", "Benzoic acid, 3-bromo-, methyl ester", "Benzoic acid, m-bromo-, methyl ester", "Methyl m-bromobenzoate", "3-Bromobenzoic acid, methyl ester", "Methyl 3-bromobenzoate", "NSC 7319"], "SMILES": "C(OC)(=O)C1=CC(Br)=CC=C1", "physical_data": {"Molecular Weight": "215.04", "Molecular Formula": "C8H7BrO2", "Boiling Point": "69-70 \u00b0C @ Press: 0.2 Torr", "Melting Point": "32 \u00b0C"}}