{"cas_no": "618-31-5", "cn_name": "\u4e8c\u6eb4\u7532\u82ef", "en_name": ["Benzal bromide", "Benzene, (dibromomethyl)-", "Toluene, \u03b1,\u03b1-dibromo-", "(Dibromomethyl)benzene", "Benzylidene bromide", "Benzal bromide", "Dibromophenylmethane", "\u03b1,\u03b1-Dibromotoluene", "Benzal dibromide", "Benzylidene dibromide"], "SMILES": "C(Br)(Br)C1=CC=CC=C1", "physical_data": {"Molecular Weight": "249.93", "Molecular Formula": "C7H6Br2", "Boiling Point": "116 \u00b0C @ Press: 12 Torr", "Density": "1.8555 g/cm\u00b3 @ Temp: 234 \u00b0C"}}