{"cas_no": "618-71-3", "cn_name": "3,5-\u4e8c\u785d\u57fa\u82ef\u7532\u9178\u4e59\u916f", "en_name": ["Benzoic acid, 3,5-dinitro-, ethyl ester", "Benzoic acid, 3,5-dinitro-, ethyl ester", "Ethyl 3,5-dinitrobenzoate", "3,5-Dinitrobenzoic acid ethyl ester", "NSC 32741"], "SMILES": "C(OCC)(=O)C1=CC(N(=O)=O)=CC(N(=O)=O)=C1", "physical_data": {"Molecular Weight": "240.17", "Molecular Formula": "C9H8N2O6", "Melting Point": "94 \u00b0C", "Density": "1.511 g/cm\u00b3"}}