{"cas_no": "618-03-1", "cn_name": "2-\u6c28\u57fa\u7532\u82ef-4-\u78fa\u9178", "en_name": ["3-Amino-4-methylbenzenesulfonic acid", "Benzenesulfonic acid, 3-amino-4-methyl-", "p-Toluenesulfonic acid, 3-amino-", "3-Amino-4-methylbenzenesulfonic acid", "3-Amino-p-toluenesulfonic acid", "2-Amino-4-toluenesulfonic acid", "1-Amino-2-methyl-5-benzenesulfonic acid", "2-Methyl-5-sulfoaniline", "NSC 7922", "3-Amino-4-methylbenzene-1-sulfonic acid"], "SMILES": "S(=O)(=O)(O)C1=CC(N)=C(C)C=C1", "physical_data": {"Molecular Weight": "187.22", "Molecular Formula": "C7H9NO3S", "Melting Point": "237-241 \u00b0C"}}