{"cas_no": "618-56-4", "cn_name": "3,5-\u4e8c\u6c28\u57fa\u82ef\u7532\u9178\u76d0\u9178\u76d0", "en_name": ["Benzoic acid, 3,5-diamino-, hydrochloride (1:2)", "Benzoic acid, 3,5-diamino-, hydrochloride (1:2)", "Benzoic acid, 3,5-diamino-, dihydrochloride", "3,5-Diaminobenzoic acid dihydrochloride"], "SMILES": "C(O)(=O)C1=CC(N)=CC(N)=C1.Cl", "physical_data": {"Molecular Weight": "", "Molecular Formula": "C7H8N2O2.2ClH", "Melting Point": "185 \u00b0C (decomp)"}}