{"cas_no": "618-73-5", "cn_name": "3,4,5-\u4e09\u7f9f\u57fa\u82ef\u7532\u9170\u80fa", "en_name": ["3,4,5-Trihydroxybenzamide", "Benzamide, 3,4,5-trihydroxy-", "Gallamide", "3,4,5-Trihydroxybenzamide", "3,4,5-Trihydroxybenzoic acid amide", "Gallic acid amide", "NSC 1124"], "SMILES": "C(N)(=O)C1=CC(O)=C(O)C(O)=C1", "physical_data": {"Molecular Weight": "169.13", "Molecular Formula": "C7H7NO4", "Melting Point": "251-253 \u00b0C"}}