{"cas_no": "618-88-2", "cn_name": "5-\u785d\u57fa\u5f02\u915e\u9178", "en_name": ["5-Nitroisophthalic acid", "1,3-Benzenedicarboxylic acid, 5-nitro-", "Isophthalic acid, 5-nitro-", "5-Nitro-1,3-benzenedicarboxylic acid", "5-Nitroisophthalic acid", "1-Nitrobenzene-3,5-dicarboxylic acid", "5-Nitro-m-phthalic acid", "NSC 66545"], "SMILES": "C(O)(=O)C1=CC(C(O)=O)=CC(N(=O)=O)=C1", "physical_data": {"Molecular Weight": "211.13", "Molecular Formula": "C8H5NO6", "Melting Point": "255-256 \u00b0C"}}