{"cas_no": "618-83-7", "cn_name": "5-\u7f9f\u57fa\u95f4\u82ef\u4e8c\u7532\u9178", "en_name": ["5-Hydroxyisophthalic acid", "1,3-Benzenedicarboxylic acid, 5-hydroxy-", "Isophthalic acid, 5-hydroxy-", "5-Hydroxy-1,3-benzenedicarboxylic acid", "5-Hydroxyisophthalic acid", "3,5-Dicarboxyphenol", "NSC 302088", "5-Hydroxybenzene-1,3-dioic acid"], "SMILES": "C(O)(=O)C1=CC(C(O)=O)=CC(O)=C1", "physical_data": {"Molecular Weight": "182.13", "Molecular Formula": "C8H6O5", "Melting Point": "293 \u00b0C"}}