{"cas_no": "618-49-5", "cn_name": "3-\u7f9f\u57fa\u82ef\u7532\u9170\u80fa", "en_name": ["3-Hydroxybenzamide", "Benzamide, 3-hydroxy-", "Benzamide, m-hydroxy-", "3-Hydroxybenzamide", "m-Hydroxybenzamide", "m-Hydroxybenzamide", "SR 4267", "NSC 379289", "3-Hydroxybenzenecarboxamide"], "SMILES": "C(N)(=O)C1=CC(O)=CC=C1", "physical_data": {"Molecular Weight": "137.14", "Molecular Formula": "C7H7NO2", "Melting Point": "170 \u00b0C", "Density": "1.449 g/cm\u00b3"}}