{"cas_no": "618-42-8", "cn_name": "1-\u4e59\u9170\u54cc\u5576", "en_name": ["1-Acetylpiperidine", "Ethanone, 1-(1-piperidinyl)-", "Piperidine, 1-acetyl-", "1-(1-Piperidinyl)ethanone", "Acetic acid, piperidide", "N-Acetylpiperidine", "1-Acetylpiperidine", "Acetylpiperidide", "NSC 239", "1-(Piperidin-1-yl)ethan-1-one"], "SMILES": "C(C)(=O)N1CCCCC1", "physical_data": {"Molecular Weight": "127.18", "Molecular Formula": "C7H13NO", "Boiling Point": "226.5 \u00b0C", "Melting Point": "-13.4 \u00b0C"}}