{"cas_no": "6180-61-6", "cn_name": "3-\u82ef\u6c27\u57fa-1-\u4e19\u9187", "en_name": ["3-Phenoxy-1-propanol", "1-Propanol, 3-phenoxy-", "3-Phenoxy-1-propanol", "3-Phenoxypropanol", "3-Phenoxypropyl alcohol", "1-Phenoxy-3-propanol", "NSC 75459"], "SMILES": "O(CCCO)C1=CC=CC=C1", "physical_data": {"Molecular Weight": "152.19", "Molecular Formula": "C9H12O2", "Boiling Point": "160 \u00b0C @ Press: 25 Torr"}}