{"cas_no": "61813-58-9", "cn_name": "4-\u4e59\u6c27\u57fa-3-\u7532\u6c27\u57fa\u82ef\u7532\u9187", "en_name": ["4-Ethoxy-3-methoxybenzyl alcohol", "Benzenemethanol, 4-ethoxy-3-methoxy-", "4-Ethoxy-3-methoxybenzenemethanol", "4-Ethoxy-3-methoxybenzyl alcohol", "(4-Ethoxy-3-methoxyphenyl)methanol"], "SMILES": "O(CC)C1=C(OC)C=C(CO)C=C1", "physical_data": {"Molecular Weight": "182.22", "Molecular Formula": "C10H14O3", "Melting Point": "56-57 \u00b0C"}}