{"cas_no": "61825-98-7", "cn_name": "\u897f\u8d1d\u7d20", "en_name": ["Imperialine", "Cevan-6-one, 3,20-dihydroxy-, (3\u03b2,5\u03b1,17\u03b2)-", "Imperialine", "Benzo[7,8]fluoreno[2,1-b]quinolizine, cevan-6-one deriv.", "(3\u03b2,5\u03b1,17\u03b2)-3,20-Dihydroxycevan-6-one", "Kashmirine", "Sipeimine", "NSC 282170"], "SMILES": "CC12C3C(C4C(C3)C5C(CC4)C(C)(O)C6N(C5)CC(C)CC6)CC(=O)C1CC(O)CC2", "physical_data": {"Molecular Weight": "429.64", "Molecular Formula": "C27H43NO3", "Melting Point": "267 \u00b0C"}}