{"cas_no": "61827-67-6", "cn_name": "4-\u4e59\u9170\u57fa\u82ef\u78fa\u9178\u94a0\u76d0", "en_name": ["Benzenesulfonic acid, 4-acetyl-, sodium salt (1:1)", "Benzenesulfonic acid, 4-acetyl-, sodium salt (1:1)", "Benzenesulfonic acid, 4-acetyl-, sodium salt", "Benzenesulfonic acid, p-acetyl-, sodium salt", "Sodium 4-acetylbenzenesulfonate", "4-Acetylbenzenesulfonic acid sodium salt", "p-Acetylbenzenesulfonic acid sodium salt"], "SMILES": "S(=O)(=O)(O)C1=CC=C(C(C)=O)C=C1.[Na]", "physical_data": {"Molecular Weight": "", "Molecular Formula": "C8H8O4S.Na", "Melting Point": "178 \u00b0C"}}