{"cas_no": "61828-53-3", "cn_name": "2-(2-\u82ef\u4e59\u57fa)\u8272\u916e", "en_name": ["2-(2-Phenylethyl)chromone", "4H-1-Benzopyran-4-one, 2-(2-phenylethyl)-", "2-(2-Phenylethyl)-4H-1-benzopyran-4-one", "Flindersiachromone", "Flidersiachromone", "2-(2-Phenylethyl)chromone"], "SMILES": "O=C1C=2C(OC(CCC3=CC=CC=C3)=C1)=CC=CC2", "physical_data": {"Molecular Weight": "250.29", "Molecular Formula": "C17H14O2", "Melting Point": "90-91 \u00b0C"}}