{"cas_no": "618385-01-6", "cn_name": "\u6c83\u62c9\u5e15\u6c99", "en_name": ["Vorapaxar", "Carbamic acid, N-[(1R,3aR,4aR,6R,8aR,9S,9aS)-9-[(1E)-2-[5-(3-fluorophenyl)-2-pyridinyl]ethenyl]dodecahydro-1-methyl-3-oxonaphtho[2,3-c]furan-6-yl]-, ethyl ester", "Carbamic acid, [(1R,3aR,4aR,6R,8aR,9S,9aS)-9-[(1E)-2-[5-(3-fluorophenyl)-2-pyridinyl]ethenyl]dodecahydro-1-methyl-3-oxonaphtho[2,3-c]furan-6-yl]-, ethyl ester", "Vorapaxar"], "SMILES": "C(=CC1=CC=C(C=N1)C2=CC(F)=CC=C2)C3C4C(CC5C3CCC(NC(OCC)=O)C5)C(=O)OC4C", "physical_data": {"Molecular Weight": "492.58", "Molecular Formula": "C29H33FN2O4", "Melting Point": "125 \u00b0C"}}