{"cas_no": "61832-41-5", "cn_name": "N-\u7532\u57fa-1-\u7532\u786b\u57fa-2-\u785d\u57fa\u4e59\u70ef\u80fa", "en_name": ["N-Methyl-1-(methylthio)-2-nitroethenamine", "Ethenamine, N-methyl-1-(methylthio)-2-nitro-", "N-Methyl-1-(methylthio)-2-nitroethenamine", "1-(Methylamino)-1-(methylthio)-2-nitroethylene", "1-(Methylthio)-1-(methylamino)-2-nitroethylene", "2-(Methylthio)-2-(methylamino)-1-nitroethene", "2-(Methylamino)-2-(methylthio)-1-nitroethene", "1-(Methylthio)-1-(methylamino)-2-nitroethene", "N-Methyl-1-(methylthio)-2-nitro-1-ethenamine", "1-(Methylamino)-1-(methylthio)-2-nitroethene", "2-(Methylamino)-2-(methylthio)-1-nitroethylene", "1-(Methylthio)-2-nitro-N-methylethyleneamine", "N-Methyl-1-methylthio-2-nitroethyleneamine"], "SMILES": "C(=CN(=O)=O)(NC)SC", "physical_data": {"Molecular Weight": "148.18", "Molecular Formula": "C4H8N2O2S", "Melting Point": "113-115 \u00b0C"}}