{"cas_no": "61857-83-8", "cn_name": "2,2-\u4e8c\u7532\u57fa-5-(3-\u567b\u5429\u57fa)-1,3-\u4e8c\u6c27\u6742\u73af\u5df1\u70f7-4,6-\u4e8c\u916e", "en_name": ["2,2-Dimethyl-5-(3-thienyl)-1,3-dioxane-4,6-dione", "1,3-Dioxane-4,6-dione, 2,2-dimethyl-5-(3-thienyl)-", "2,2-Dimethyl-5-(3-thienyl)-1,3-dioxane-4,6-dione", "NSC 643156", "2,2-Dimethyl-5-thiophen-3-yl-1,3-dioxane-4,6-dione"], "SMILES": "O=C1C(C(=O)OC(C)(C)O1)C=2C=CSC2", "physical_data": {"Molecular Weight": "226.25", "Molecular Formula": "C10H10O4S", "Melting Point": "129-130 \u00b0C"}}