{"cas_no": "61854-36-2", "cn_name": "\u53bb\u7532\u6c27\u57fa\u8335\u9648\u8272\u539f\u916e", "en_name": ["Demethoxycapillarisin", "4H-1-Benzopyran-4-one, 5,7-dihydroxy-2-(4-hydroxyphenoxy)-", "5,7-Dihydroxy-2-(4-hydroxyphenoxy)-4H-1-benzopyran-4-one", "Demethoxycapillarisin", "6-Demethoxycapillarisin"], "SMILES": "O=C1C=2C(OC(OC3=CC=C(O)C=C3)=C1)=CC(O)=CC2O", "physical_data": {"Molecular Weight": "286.24", "Molecular Formula": "C15H10O6", "Melting Point": "&gt;280 \u00b0C (decomp)"}}