{"cas_no": "61869-08-7", "cn_name": "\u5e15\u7f57\u897f\u6c40", "en_name": ["(-)-Paroxetine", "Piperidine, 3-[(1,3-benzodioxol-5-yloxy)methyl]-4-(4-fluorophenyl)-, (3S,4R)-", "Piperidine, 3-[(1,3-benzodioxol-5-yloxy)methyl]-4-(4-fluorophenyl)-, (3S-trans)-", "(3S,4R)-3-[(1,3-Benzodioxol-5-yloxy)methyl]-4-(4-fluorophenyl)piperidine", "FG 7051", "Paroxetine", "BRL 29060", "(-)-trans-4-(4-Fluorophenyl)-3-(3,4-methylenedioxyphenoxymethyl)piperidine", "(-)-Paroxetine", "Paxil", "Aropax", "Motivan", "Casbol", "Frosinor", "Besitram", "Paxetil", "PaxPar", "Daparox", "Arketis", "Parogen", "Xetanor", "Arotin", "Serotax", "Brisdelle", "M-Paroxetine", "(-)-trans-Paroxetine", "MeSH ID: D017374"], "SMILES": "C(OC=1C=C2C(=CC1)OCO2)C3C(CCNC3)C4=CC=C(F)C=C4", "physical_data": {"Molecular Weight": "329.37", "Molecular Formula": "C19H20FNO3", "Melting Point": "121-123 \u00b0C"}}