{"cas_no": "61889-48-3", "cn_name": "3-(2-\u6c2f\u4e59\u9170\u57fa)\u5421\u5576\u76d0\u9178\u76d0", "en_name": ["Ethanone, 2-chloro-1-(3-pyridinyl)-, hydrochloride (1:1)", "Ethanone, 2-chloro-1-(3-pyridinyl)-, hydrochloride (1:1)", "Ethanone, 2-chloro-1-(3-pyridinyl)-, hydrochloride", "3-(2-Chloroacetyl)pyridine hydrochloride", "2-Chloro-1-(3-pyridinyl)ethanone hydrochloride", "2-Chloro-1-(pyridin-3-yl)ethan-1-one hydrochloride"], "SMILES": "C(CCl)(=O)C=1C=CC=NC1.Cl", "physical_data": {"Molecular Weight": "", "Molecular Formula": "C7H6ClNO.ClH", "Melting Point": "245-250 \u00b0C (decomp)"}}