{"cas_no": "619-66-9", "cn_name": "\u5bf9\u919b\u57fa\u82ef\u7532\u9178", "en_name": ["4-Formylbenzoic acid", "Benzoic acid, 4-formyl-", "Terephthalaldehydic acid", "4-Formylbenzoic acid", "p-Formylbenzoic acid", "p-Carboxybenzaldehyde", "4-Carboxybenzaldehyde", "Terephthaldehydic acid", "4-Carboxylbenzaldehyde", "NSC 15797", "Terephthalaldehyde acid", "p-Benzoic acid aldehyde", "4-CBA"], "SMILES": "C(O)(=O)C1=CC=C(C=O)C=C1", "physical_data": {"Molecular Weight": "150.13", "Molecular Formula": "C8H6O3", "Melting Point": "256 \u00b0C"}}