{"cas_no": "619-17-0", "cn_name": "2-\u6c28\u57fa-4-\u785d\u57fa\u82ef\u7532\u9178", "en_name": ["2-Amino-4-nitrobenzoic acid", "Benzoic acid, 2-amino-4-nitro-", "Anthranilic acid, 4-nitro-", "2-Amino-4-nitrobenzoic acid", "4-Nitroanthranilic acid", "2-Carboxy-5-nitroaniline", "4-Nitro-2-aminobenzoic acid", "NSC 7789", "2-Azaniumyl-4-nitrobenzoate"], "SMILES": "N(=O)(=O)C1=CC(N)=C(C(O)=O)C=C1", "physical_data": {"Molecular Weight": "182.13", "Molecular Formula": "C7H6N2O4", "Melting Point": "269 \u00b0C"}}