{"cas_no": "619-80-7", "cn_name": "\u5bf9\u785d\u57fa\u82ef\u7532\u9170\u80fa", "en_name": ["4-Nitrobenzamide", "Benzamide, 4-nitro-", "Benzamide, p-nitro-", "4-Nitrobenzamide", "p-Nitrobenzamide", "NSC 2902"], "SMILES": "C(N)(=O)C1=CC=C(N(=O)=O)C=C1", "physical_data": {"Molecular Weight": "166.13", "Molecular Formula": "C7H6N2O3", "Melting Point": "199-201 \u00b0C"}}