{"cas_no": "619-08-9", "cn_name": "2-\u6c2f-4-\u785d\u57fa\u82ef\u915a", "en_name": ["Nitrofungin", "Phenol, 2-chloro-4-nitro-", "2-Chloro-4-nitrophenol", "Nitrofungin", "NSC 1316"], "SMILES": "N(=O)(=O)C1=CC(Cl)=C(O)C=C1", "physical_data": {"Molecular Weight": "173.55", "Molecular Formula": "C6H4ClNO3", "Melting Point": "110-111 \u00b0C"}}