{"cas_no": "619-23-8", "cn_name": "\u95f4\u785d\u57fa\u6c2f\u5316\u82c4", "en_name": ["3-Nitrobenzyl chloride", "Benzene, 1-(chloromethyl)-3-nitro-", "Toluene, \u03b1-chloro-m-nitro-", "1-(Chloromethyl)-3-nitrobenzene", "m-Nitrobenzyl chloride", "\u03b1-Chloro-m-nitrotoluene", "3-Nitrobenzyl chloride", "m-Nitrobenzyl chloride", "NSC 9802"], "SMILES": "N(=O)(=O)C1=CC(CCl)=CC=C1", "physical_data": {"Molecular Weight": "171.58", "Molecular Formula": "C7H6ClNO2", "Boiling Point": "175-183 \u00b0C @ Press: 30-35 Torr", "Melting Point": "45-47 \u00b0C"}}