{"cas_no": "619-67-0", "cn_name": "4-\u80bc\u57fa\u82ef\u7532\u9178", "en_name": ["4-Hydrazinobenzoic acid", "Benzoic acid, 4-hydrazinyl-", "Benzoic acid, p-hydrazino-", "Benzoic acid, 4-hydrazino-", "4-Hydrazinylbenzoic acid", "(p-Carboxyphenyl)hydrazine", "4-Hydrazinobenzoic acid", "(4-Carboxyphenyl)hydrazine", "p-Hydrazinobenzoic acid", "NSC 3813"], "SMILES": "C(O)(=O)C1=CC=C(NN)C=C1", "physical_data": {"Molecular Weight": "152.15", "Molecular Formula": "C7H8N2O2", "Melting Point": "201-204 \u00b0C (decomp)"}}