{"cas_no": "619-89-6", "cn_name": "\u5bf9\u785d\u57fa\u8089\u6842\u9178", "en_name": ["4-Nitrocinnamic acid", "2-Propenoic acid, 3-(4-nitrophenyl)-", "Cinnamic acid, p-nitro-", "3-(4-Nitrophenyl)-2-propenoic acid", "p-Nitrocinnamic acid", "4-Nitrocinnamic acid", "3-(4-Nitrophenyl)acrylic acid", "3-(4-Nitrophenyl)propenoic acid", "NSC 2067", "NSC 638142"], "SMILES": "N(=O)(=O)C1=CC=C(C=CC(O)=O)C=C1", "physical_data": {"Molecular Weight": "193.16", "Molecular Formula": "C9H7NO4", "Melting Point": "275 \u00b0C"}}