{"cas_no": "619-50-1", "cn_name": "\u5bf9\u785d\u57fa\u82ef\u7532\u9178\u7532\u916f", "en_name": ["Methyl 4-nitrobenzoate", "Benzoic acid, 4-nitro-, methyl ester", "Benzoic acid, p-nitro-, methyl ester", "Methyl p-nitrobenzoate", "p-Nitrobenzoic acid methyl ester", "Methyl 4-nitrobenzoate", "p-Carbomethoxynitrobenzene", "4-Methoxycarbonylnitrobenzene", "4-Nitrobenzoic acid methyl ester", "NSC 4137"], "SMILES": "C(OC)(=O)C1=CC=C(N(=O)=O)C=C1", "physical_data": {"Molecular Weight": "181.15", "Molecular Formula": "C8H7NO4", "Boiling Point": "93 \u00b0C @ Press: 0.03 Torr", "Melting Point": "95 \u00b0C"}}