{"cas_no": "619-04-5", "cn_name": "3,4-\u4e8c\u7532\u57fa\u82ef\u7532\u9178", "en_name": ["3,4-Dimethylbenzoic acid", "Benzoic acid, 3,4-dimethyl-", "3,4-Dimethylbenzoic acid", "1-Carboxy-3,4-dimethylbenzene"], "SMILES": "C(O)(=O)C1=CC(C)=C(C)C=C1", "physical_data": {"Molecular Weight": "150.17", "Molecular Formula": "C9H10O2", "Melting Point": "165 \u00b0C"}}