{"cas_no": "619-25-0", "cn_name": "3-\u785d\u57fa\u82ef\u7532\u9187", "en_name": ["3-Nitrobenzyl alcohol", "Benzenemethanol, 3-nitro-", "Benzyl alcohol, m-nitro-", "3-Nitrobenzenemethanol", "m-Nitrobenzyl alcohol", "3-Nitrobenzyl alcohol", "(3-Nitrophenyl)methanol", "NSC 5388", "m-Nitrophenylmethanol", "m-(Hydroxymethyl)nitrobenzene"], "SMILES": "N(=O)(=O)C1=CC(CO)=CC=C1", "physical_data": {"Molecular Weight": "153.14", "Molecular Formula": "C7H7NO3", "Boiling Point": "175-180 \u00b0C", "Melting Point": "30.5 \u00b0C"}}