{"cas_no": "619-73-8", "cn_name": "\u5bf9\u785d\u57fa\u82ef\u7532\u9187", "en_name": ["4-Nitrobenzyl alcohol", "Benzenemethanol, 4-nitro-", "Benzyl alcohol, p-nitro-", "4-Nitrobenzenemethanol", "4-Nitrobenzyl alcohol", "p-(Hydroxymethyl)nitrobenzene", "(4-Nitrophenyl)methanol", "p-Nitrobenzyl alcohol", "4-(Hydroxymethyl)nitrobenzene", "1-(Hydroxymethyl)-4-nitrobenzene", "NSC 5389", "p-Nitrophenylmethanol"], "SMILES": "N(=O)(=O)C1=CC=C(CO)C=C1", "physical_data": {"Molecular Weight": "153.14", "Molecular Formula": "C7H7NO3", "Boiling Point": "185 \u00b0C", "Melting Point": "96.5 \u00b0C"}}