{"cas_no": "619-57-8", "cn_name": "4-\u7f9f\u57fa\u82ef\u7532\u9170\u80fa", "en_name": ["4-Hydroxybenzamide", "Benzamide, 4-hydroxy-", "Benzamide, p-hydroxy-", "4-Hydroxybenzamide", "p-Hydroxybenzamide", "SR 4328", "p-Hydroxybenzoic acid amide", "NSC 524134", "4-Carbamoylphenol"], "SMILES": "C(N)(=O)C1=CC=C(O)C=C1", "physical_data": {"Molecular Weight": "137.14", "Molecular Formula": "C7H7NO2", "Melting Point": "161-162 \u00b0C"}}