{"cas_no": "619-45-4", "cn_name": "4-\u6c28\u57fa\u82ef\u7532\u9178\u7532\u916f", "en_name": ["Methyl 4-aminobenzoate", "Benzoic acid, 4-amino-, methyl ester", "Benzoic acid, p-amino-, methyl ester", "Methyl p-aminobenzoate", "4-Aminobenzoic acid methyl ester", "Methyl 4-aminobenzoate", "p-Aminobenzoic acid methyl ester", "p-Carbomethoxyaniline", "4-(Methoxycarbonyl)aniline", "Methyl aniline-4-carboxylate", "p-(Methoxycarbonyl)aniline", "4-(Carbomethoxy)aniline", "Methyl 4-aminophenylcarboxylate", "(4-(Methoxycarbonyl)phenyl)amine", "NSC 3783", "4-Aminobenzenecarboxylic acid methyl ester"], "SMILES": "C(OC)(=O)C1=CC=C(N)C=C1", "physical_data": {"Molecular Weight": "151.16", "Molecular Formula": "C8H9NO2", "Melting Point": "110-111 \u00b0C"}}