{"cas_no": "619-21-6", "cn_name": "3-\u7fa7\u57fa\u82ef\u7532\u919b", "en_name": ["3-Formylbenzoic acid", "Benzoic acid, 3-formyl-", "Isophthalaldehydic acid", "3-Formylbenzoic acid", "m-Carboxybenzaldehyde", "m-Formylbenzoic acid", "3-Carboxybenzaldehyde", "5-Formylbenzoic acid"], "SMILES": "C(O)(=O)C1=CC(C=O)=CC=C1", "physical_data": {"Molecular Weight": "150.13", "Molecular Formula": "C8H6O3", "Melting Point": "173-175 \u00b0C"}}