{"cas_no": "619-42-1", "cn_name": "\u5bf9\u6eb4\u82ef\u7532\u9178\u7532\u916f", "en_name": ["Methyl 4-bromobenzoate", "Benzoic acid, 4-bromo-, methyl ester", "Benzoic acid, p-bromo-, methyl ester", "p-Bromobenzoic acid methyl ester", "Methyl p-bromobenzoate", "Methyl 4-bromobenzoate", "1-Bromo-4-(methoxycarbonyl)benzene", "4-Bromobenzoic acid methyl ester", "NSC 9392", "4-Methoxycarbonylphenyl bromide", "4-Methoxycarbonyl-1-bromobenzene"], "SMILES": "C(OC)(=O)C1=CC=C(Br)C=C1", "physical_data": {"Molecular Weight": "215.04", "Molecular Formula": "C8H7BrO2", "Melting Point": "81 \u00b0C"}}