{"cas_no": "619-05-6", "cn_name": "3,4-\u4e8c\u6c28\u57fa\u82ef\u7532\u9178", "en_name": ["3,4-Diaminobenzoic acid", "Benzoic acid, 3,4-diamino-", "3,4-Diaminobenzoic acid", "4-Carboxy-o-phenylenediamine", "4-Carboxy-1,2-diaminobenzene", "4-Carboxy-1,2-benzenediamine", "4-Carboxyphenyldiamine"], "SMILES": "C(O)(=O)C1=CC(N)=C(N)C=C1", "physical_data": {"Molecular Weight": "152.15", "Molecular Formula": "C7H8N2O2", "Melting Point": "210-211 \u00b0C"}}