{"cas_no": "619-64-7", "cn_name": "\u5bf9\u4e59\u57fa\u82ef\u7532\u9178", "en_name": ["4-Ethylbenzoic acid", "Benzoic acid, 4-ethyl-", "Benzoic acid, p-ethyl-", "4-Ethylbenzoic acid", "p-Ethylbenzoic acid", "NSC 59888"], "SMILES": "C(O)(=O)C1=CC=C(CC)C=C1", "physical_data": {"Molecular Weight": "150.17", "Molecular Formula": "C9H10O2", "Boiling Point": "74-76 \u00b0C @ Press: 8 Torr", "Melting Point": "112-113 \u00b0C", "Density": "0.9961 g/cm\u00b3 @ Temp: 20 \u00b0C"}}