{"cas_no": "619-01-2", "cn_name": "\u4e8c\u6c22\u9999\u82b9\u9187", "en_name": ["1,6-Dihydrocarveol", "Cyclohexanol, 2-methyl-5-(1-methylethenyl)-", "p-Menth-8-en-2-ol", "2-Methyl-5-(1-methylethenyl)cyclohexanol", "1,6-Dihydrocarveol", "6-Methyl-3-isopropenylcyclohexanol", "8-p-Menthen-2-ol", "2-Methyl-5-(prop-1-en-2-yl)cyclohexan-1-ol", "2-Methyl-5-(prop-1-en-2-yl)cyclohexanol"], "SMILES": "C(C)(=C)C1CC(O)C(C)CC1", "physical_data": {"Molecular Weight": "154.25", "Molecular Formula": "C10H18O", "Boiling Point": "224.5 \u00b0C", "Density": "0.9223 g/cm\u00b3 @ Temp: 16 \u00b0C"}}