{"cas_no": "619-81-8", "cn_name": "\u987a\u5f0f-1,4-\u73af\u5df1\u4e8c\u7fa7\u9178", "en_name": ["cis-1,4-Cyclohexanedicarboxylic acid", "1,4-Cyclohexanedicarboxylic acid, cis-", "cis-1,4-Cyclohexanedicarboxylic acid", "cis-Hexahydroterephthalic acid", "1,4-cis-Cyclohexanedicarboxylic acid"], "SMILES": "C(O)(=O)C1CCC(C(O)=O)CC1", "physical_data": {"Molecular Weight": "172.18", "Molecular Formula": "C8H12O4", "Melting Point": "168-170 \u00b0C"}}