{"cas_no": "619-72-7", "cn_name": "\u5bf9\u785d\u57fa\u82ef\u7532\u8148", "en_name": ["4-Nitrobenzonitrile", "Benzonitrile, 4-nitro-", "Benzonitrile, p-nitro-", "4-Nitrobenzonitrile", "p-Nitrobenzonitrile", "p-Cyanonitrobenzene", "4-Cyanonitrobenzene", "4-Cyano-1-nitrobenzene", "4-Nitrobenzenenitrile", "NSC 5383", "1-Cyano-4-nitrobenzene"], "SMILES": "N(=O)(=O)C1=CC=C(C#N)C=C1", "physical_data": {"Molecular Weight": "148.12", "Molecular Formula": "C7H4N2O2", "Boiling Point": "50-51 \u00b0C @ Press: 11 Torr", "Melting Point": "146-149 \u00b0C"}}