{"cas_no": "619-31-8", "cn_name": "N,N-\u4e8c\u7532\u57fa-3-\u785d\u57fa\u82ef\u80fa", "en_name": ["N,N-Dimethyl-3-nitroaniline", "Benzenamine, N,N-dimethyl-3-nitro-", "Aniline, N,N-dimethyl-m-nitro-", "N,N-Dimethyl-3-nitrobenzenamine", "m-Nitro-N,N-dimethylaniline", "N,N-Dimethyl-m-nitroaniline", "1-(Dimethylamino)-3-nitrobenzene", "3-Nitro-N,N-dimethylaniline", "N,N-Dimethyl-3-nitroaniline", "NSC 9814"], "SMILES": "N(C)(C)C1=CC(N(=O)=O)=CC=C1", "physical_data": {"Molecular Weight": "166.18", "Molecular Formula": "C8H10N2O2", "Boiling Point": "282.5 \u00b0C", "Melting Point": "60.5 \u00b0C"}}