{"cas_no": "619-33-0", "cn_name": "2,2-\u4e8c\u6c2f-1,1-\u4e8c\u4e59\u6c27\u57fa\u4e59\u70f7", "en_name": ["Dichloroacetaldehyde diethyl acetal", "Ethane, 1,1-dichloro-2,2-diethoxy-", "Acetaldehyde, dichloro-, diethyl acetal", "1,1-Dichloro-2,2-diethoxyethane", "Dichloroacetaldehyde diethyl acetal", "2,2-Dichloro-1,1-diethoxyethane"], "SMILES": "C(OCC)(OCC)C(Cl)Cl", "physical_data": {"Molecular Weight": "187.06", "Molecular Formula": "C6H12Cl2O2", "Boiling Point": "183.5 \u00b0C", "Density": "1.157 g/cm\u00b3 @ Temp: 25 \u00b0C"}}