{"cas_no": "619-12-5", "cn_name": "4-\u7532\u9170-3-\u7f9f\u57fa\u82ef\u7532\u9178", "en_name": ["4-Formyl-3-hydroxybenzoic acid", "Benzoic acid, 4-formyl-3-hydroxy-", "Terephthalaldehydic acid, 3-hydroxy-", "4-Formyl-3-hydroxybenzoic acid", "NSC 249767"], "SMILES": "C(O)(=O)C1=CC(O)=C(C=O)C=C1", "physical_data": {"Molecular Weight": "166.13", "Molecular Formula": "C8H6O4", "Melting Point": "233-234 \u00b0C"}}