{"cas_no": "619-84-1", "cn_name": "4-\u4e8c\u7532\u6c28\u57fa\u82ef\u7532\u9178", "en_name": ["4-(Dimethylamino)benzoic acid", "Benzoic acid, 4-(dimethylamino)-", "Benzoic acid, p-(dimethylamino)-", "4-(Dimethylamino)benzoic acid", "p-(Dimethylamino)benzoic acid", "N,N-Dimethyl-4-aminobenzoic acid", "N,N-Dimethyl-p-aminobenzoic acid", "4-(N,N-Dimethylamino)benzoic acid", "NSC 16596"], "SMILES": "C(O)(=O)C1=CC=C(N(C)C)C=C1", "physical_data": {"Molecular Weight": "165.19", "Molecular Formula": "C9H11NO2", "Boiling Point": "180 \u00b0C @ Press: 1.8 Torr", "Melting Point": "242.5 \u00b0C", "Density": "0.9897 g/cm\u00b3 @ Temp: 16 \u00b0C"}}