{"cas_no": "619-90-9", "cn_name": "\u4e59\u9178\u5c0d\u785d\u82c4\u916f", "en_name": ["Benzenemethanol, 4-nitro-, 1-acetate", "Benzenemethanol, 4-nitro-, 1-acetate", "Benzyl alcohol, p-nitro-, acetate (ester)", "Benzyl alcohol, p-nitro-, acetate", "Benzenemethanol, 4-nitro-, acetate (ester)", "Acetic acid, p-nitrobenzyl ester", "p-Nitrobenzyl acetate", "4-Nitrobenzyl acetate", "NSC 403575"], "SMILES": "N(=O)(=O)C1=CC=C(COC(C)=O)C=C1", "physical_data": {"Molecular Weight": "195.17", "Molecular Formula": "C9H9NO4", "Melting Point": "78-80 \u00b0C"}}