{"cas_no": "619-19-2", "cn_name": "4-\u785d\u57fa\u6c34\u6768\u9178", "en_name": ["2-Hydroxy-4-nitrobenzoic acid", "Benzoic acid, 2-hydroxy-4-nitro-", "Salicylic acid, 4-nitro-", "2-Hydroxy-4-nitrobenzoic acid", "4-Nitrosalicylic acid", "4-Nitro-2-hydroxybenzoic acid", "p-Nitrosalicylic acid", "NSC 882"], "SMILES": "N(=O)(=O)C1=CC(O)=C(C(O)=O)C=C1", "physical_data": {"Molecular Weight": "183.12", "Molecular Formula": "C7H5NO5", "Melting Point": "226 \u00b0C"}}