{"cas_no": "619-22-7", "cn_name": "3-\u4e8c\u7532\u57fa\u6c28\u57fa\u82ef\u7532\u919b", "en_name": ["3-(Dimethylamino)benzaldehyde", "Benzaldehyde, 3-(dimethylamino)-", "Benzaldehyde, m-(dimethylamino)-", "3-(Dimethylamino)benzaldehyde", "m-(Dimethylamino)benzaldehyde", "3-(N,N-Dimethylamino)benzaldehyde"], "SMILES": "N(C)(C)C1=CC(C=O)=CC=C1", "physical_data": {"Molecular Weight": "149.19", "Molecular Formula": "C9H11NO", "Boiling Point": "137.5-138 \u00b0C"}}