{"cas_no": "619-58-9", "cn_name": "4-\u7898\u82ef\u7532\u9178", "en_name": ["4-Iodobenzoic acid", "Benzoic acid, 4-iodo-", "Benzoic acid, p-iodo-", "4-Iodobenzoic acid", "p-Iodobenzoic acid", "p-Iodobenzenecarboxylic acid", "NSC 176127", "NSC 3773", "Iodobenzene-4-carboxylic acid"], "SMILES": "C(O)(=O)C1=CC=C(I)C=C1", "physical_data": {"Molecular Weight": "248.02", "Molecular Formula": "C7H5IO2", "Melting Point": "270 \u00b0C"}}