{"cas_no": "619-82-9", "cn_name": "\u53cd\u5f0f-1,4-\u73af\u5df1\u4e8c\u7fa7\u9178", "en_name": ["trans-1,4-Cyclohexanedicarboxylic acid", "1,4-Cyclohexanedicarboxylic acid, trans-", "trans-1,4-Cyclohexanedicarboxylic acid", "trans-Hexahydroterephthalic acid", "trans-1,4-Cyclohexyldicarboxylic acid", "trans-4-Carboxycyclohexanecarboxylic acid", "trans-1,4-Cyclohexane-1,4-dicarboxylic acid"], "SMILES": "C(O)(=O)C1CCC(C(O)=O)CC1", "physical_data": {"Molecular Weight": "172.18", "Molecular Formula": "C8H12O4", "Melting Point": "312.5 \u00b0C"}}