{"cas_no": "619-41-0", "cn_name": "2-\u6eb4-4'-\u7532\u57fa\u82ef\u4e59\u916e", "en_name": ["4-Methylphenacyl bromide", "Ethanone, 2-bromo-1-(4-methylphenyl)-", "Acetophenone, 2-bromo-4\u2032-methyl-", "2-Bromo-1-(4-methylphenyl)ethanone", "2-Bromo-4\u2032-methylacetophenone", "4-Methylphenacyl bromide", "p-Methylphenacyl bromide", "2-Bromo-p-methylacetophenone", "p-Methyl-\u03c9-bromoacetophenone", "\u03b1-Bromo-p-methylacetophenone", "p-Methyl-\u03b1-bromoacetophenone", "\u03c9-Bromo-p-methylacetophenone", "\u03b1-Bromo-4\u2032-methylacetophenone", "4\u2032-Methyl-2-bromoacetophenone", "Bromomethyl p-tolyl ketone", "4-Methyl-\u03b1-bromoacetophenone", "2-Bromo-1-(4-tolyl)ethanone", "2-Bromo-1-(4-methylphenyl)ethan-1-one", "NSC 63192", "Bromomethyl 4-methylphenyl ketone", "2-Bromo-1-(p-tolyl)ethanone", "2-Bromo-1-(p-methylphenyl)ethanone", "2-Bromo-1-(p-tolyl)ethan-1-one"], "SMILES": "C(CBr)(=O)C1=CC=C(C)C=C1", "physical_data": {"Molecular Weight": "213.07", "Molecular Formula": "C9H9BrO", "Boiling Point": "105 \u00b0C @ Press: 0.1 Torr", "Melting Point": "51 \u00b0C"}}