{"cas_no": "619-60-3", "cn_name": "4-\u4e8c\u7532\u6c28\u57fa\u82ef\u915a", "en_name": ["4-(Dimethylamino)phenol", "Phenol, 4-(dimethylamino)-", "Phenol, p-(dimethylamino)-", "4-(Dimethylamino)phenol", "p-(Dimethylamino)phenol", "p-Hydroxy-N,N-dimethylaniline", "N,N-Dimethyl-4-aminophenol", "N,N-Dimethyl-p-hydroxyaniline"], "SMILES": "N(C)(C)C1=CC=C(O)C=C1", "physical_data": {"Molecular Weight": "137.18", "Molecular Formula": "C8H11NO", "Melting Point": "77 \u00b0C"}}