{"cas_no": "619-14-7", "cn_name": "3-\u7f9f\u57fa-4-\u785d\u57fa\u82ef\u7532\u9178", "en_name": ["3-Hydroxy-4-nitrobenzoic acid", "Benzoic acid, 3-hydroxy-4-nitro-", "3-Hydroxy-4-nitrobenzoic acid", "4-Nitro-3-hydroxybenzoic acid", "3-Carboxy-6-nitrophenol", "NSC 46823"], "SMILES": "C(O)(=O)C1=CC(O)=C(N(=O)=O)C=C1", "physical_data": {"Molecular Weight": "183.12", "Molecular Formula": "C7H5NO5", "Melting Point": "229-231 \u00b0C"}}