{"cas_no": "619-44-3", "cn_name": "4-\u7898\u82ef\u7532\u9178\u7532\u916f", "en_name": ["Methyl 4-iodobenzoate", "Benzoic acid, 4-iodo-, methyl ester", "Benzoic acid, p-iodo-, methyl ester", "Methyl 4-iodobenzoate", "Methyl p-iodobenzoate", "4-(Carbomethoxy)iodobenzene", "4-Iodobenzoic acid methyl ester", "4-(Methoxycarbonyl)phenyl iodide", "p-Iodobenzoic acid methyl ester", "p-(Methoxycarbonyl)phenyl iodide", "NSC 9393", "4-(Methoxycarbonyl)iodobenzene", "4-(Methoxycarbonyl)-1-iodobenzene"], "SMILES": "C(OC)(=O)C1=CC=C(I)C=C1", "physical_data": {"Molecular Weight": "262.04", "Molecular Formula": "C8H7IO2", "Melting Point": "114.8 \u00b0C"}}