{"cas_no": "619-10-3", "cn_name": "2-\u6c2f-5-\u785d\u57fa\u82ef\u915a", "en_name": ["2-Chloro-5-nitrophenol", "Phenol, 2-chloro-5-nitro-", "2-Chloro-5-nitrophenol", "6-Chloro-3-nitrophenol", "NSC 212119"], "SMILES": "N(=O)(=O)C1=CC(O)=C(Cl)C=C1", "physical_data": {"Molecular Weight": "173.55", "Molecular Formula": "C6H4ClNO3", "Melting Point": "119.5 \u00b0C"}}