{"cas_no": "619-55-6", "cn_name": "\u5bf9\u7532\u82ef\u9170\u80fa", "en_name": ["4-Methylbenzamide", "Benzamide, 4-methyl-", "p-Toluamide", "4-Methylbenzamide", "p-Methylbenzamide", "p-Tolylamide", "NSC 2163"], "SMILES": "C(N)(=O)C1=CC=C(C)C=C1", "physical_data": {"Molecular Weight": "135.16", "Molecular Formula": "C8H9NO", "Melting Point": "161-163 \u00b0C"}}