{"cas_no": "619-56-7", "cn_name": "4-\u6c2f\u82ef\u7532\u9170\u80fa", "en_name": ["4-Chlorobenzamide", "Benzamide, 4-chloro-", "Benzamide, p-chloro-", "4-Chlorobenzamide", "p-Chlorobenzamide", "p-Chlorobenzoic acid amide", "NSC 406894", "NSC 74687"], "SMILES": "C(N)(=O)C1=CC=C(Cl)C=C1", "physical_data": {"Molecular Weight": "155.58", "Molecular Formula": "C7H6ClNO", "Melting Point": "174 \u00b0C"}}