{"cas_no": "619-65-8", "cn_name": "\u5bf9\u6c30\u57fa\u82ef\u7532\u9178", "en_name": ["4-Cyanobenzoic acid", "Benzoic acid, 4-cyano-", "Benzoic acid, p-cyano-", "4-Cyanobenzoic acid", "p-Cyanobenzoic acid", "p-Carboxybenzonitrile", "4-Carboxybenzonitrile", "NSC 6306"], "SMILES": "C(O)(=O)C1=CC=C(C#N)C=C1", "physical_data": {"Molecular Weight": "147.13", "Molecular Formula": "C8H5NO2", "Melting Point": "221 \u00b0C (decomp)"}}