{"cas_no": "619-24-9", "cn_name": "\u95f4\u785d\u57fa\u82ef\u8148", "en_name": ["3-Nitrobenzonitrile", "Benzonitrile, 3-nitro-", "Benzonitrile, m-nitro-", "3-Nitrobenzonitrile", "m-Cyanonitrobenzene", "3-Cyanonitrobenzene", "1-Cyano-3-nitrobenzene", "3-Cyano-1-nitrobenzene", "m-Nitrobenzonitrile", "NSC 5382"], "SMILES": "N(=O)(=O)C1=CC(C#N)=CC=C1", "physical_data": {"Molecular Weight": "148.12", "Molecular Formula": "C7H4N2O2", "Boiling Point": "292 \u00b0C", "Melting Point": "116 \u00b0C"}}