{"cas_no": "619-86-3", "cn_name": "\u5bf9\u4e59\u6c27\u57fa\u82ef\u7532\u9178", "en_name": ["4-Ethoxybenzoic acid", "Benzoic acid, 4-ethoxy-", "Benzoic acid, p-ethoxy-", "4-Ethoxybenzoic acid", "p-Ethoxybenzoic acid", "ACS 0393", "NSC 8705", "4-Ethyloxybenzoic acid"], "SMILES": "C(O)(=O)C1=CC=C(OCC)C=C1", "physical_data": {"Molecular Weight": "166.17", "Molecular Formula": "C9H10O3", "Melting Point": "197-199 \u00b0C"}}