{"cas_no": "6190-39-2", "cn_name": "\u7532\u78fa\u9178\u4e8c\u6c22\u9ea6\u89d2\u80fa", "en_name": ["Dihydroergotamine mesylate", "Ergotaman-3\u2032,6\u2032,18-trione, 9,10-dihydro-12\u2032-hydroxy-2\u2032-methyl-5\u2032-(phenylmethyl)-, (5\u2032\u03b1,10\u03b1)-, methanesulfonate (1:1)", "Ergotaman-3\u2032,6\u2032,18-trione, 9,10-dihydro-12\u2032-hydroxy-2\u2032-methyl-5\u2032-(phenylmethyl)-, (5\u2032\u03b1,10\u03b1)-, monomethanesulfonate (salt)", "Ergotamine, 9,10-dihydro-, monomethanesulfonate (salt)", "Dihydroergotamine mesylate", "Dihydroergotamine methanesulfonate", "Dihydroergotamine methanesulphonate", "Dihytamine", "DHE 45", "Dihydergot", "DETMS", "9,10-Dihydroergotamine mesylate", "Dihydroergotamine monomethanesulfonate", "(+)-Dihydroergotamine mesylate", "Seglor", "Dirgotarl", "Morena", "Orstanorm", "Ergotonin", "Ikaran", "Tonopres", "Diergo", "Ergomimet", "Endophleban", "Migranal", "Agit", "Dergotamine", "Ergont", "Angionorm", "Verladyn"], "SMILES": "S(C)(=O)(=O)O.OC12N(C(CC3=CC=CC=C3)C(=O)N4C1CCC4)C(=O)C(NC(=O)C5CC6C=7C=8C(CC6N(C)C5)=CNC8C=CC7)(C)O2", "physical_data": {"Molecular Weight": "", "Molecular Formula": "C33H37N5O5.CH4O3S", "Melting Point": "230-235 \u00b0C"}}