{"cas_no": "6190-65-4", "cn_name": "\u4e8c\u4e01\u57fa\u963f\u7279\u62c9\u6d25", "en_name": ["Deethylatrazine", "1,3,5-Triazine-2,4-diamine, 6-chloro-N2-(1-methylethyl)-", "s-Triazine, 2-amino-4-chloro-6-(isopropylamino)-", "1,3,5-Triazine-2,4-diamine, 6-chloro-N-(1-methylethyl)-", "6-Chloro-N2-(1-methylethyl)-1,3,5-triazine-2,4-diamine", "2-Chloro-4-amino-6-isopropylamino-s-triazine", "G 30033", "2-Amino-4-chloro-6-(isopropylamino)-s-triazine", "2-Isopropylamino-4-amino-6-chloro-1,3,5-triazine", "2-Chloro-4-isopropylamino-6-amino-s-triazine", "Deethylatrazine", "Desethylatrazine", "Deethylatratone", "s-Chloroaminoisopropylaminotriazine", "N-Deethylatrazine", "DEA", "2-Chloro-4-amino-6-isopropylamino-1,3,5-triazine", "Atrazine-desethyl", "6-Amino-2-chloro-4-isopropylamino-s-triazine"], "SMILES": "N(C(C)C)C=1N=C(Cl)N=C(N)N1", "physical_data": {"Molecular Weight": "187.63", "Molecular Formula": "C6H10ClN5", "Melting Point": "133 \u00b0C"}}