{"cas_no": "6191-71-5", "cn_name": "\u987a-4-\u5e9a\u70ef-1-\u9187", "en_name": ["cis-4-Hepten-1-ol", "4-Hepten-1-ol, (4Z)-", "4-Hepten-1-ol, (Z)-", "(4Z)-4-Hepten-1-ol", "Z-4-Hepten-1-ol", "cis-4-Hepten-1-ol"], "SMILES": "C(CCCO)=CCC", "physical_data": {"Molecular Weight": "114.19", "Molecular Formula": "C7H14O", "Boiling Point": "78-79 \u00b0C @ Press: 15 Torr", "Density": "0.8445 g/cm\u00b3 @ Temp: 20 \u00b0C"}}