{"cas_no": "6192-44-5", "cn_name": "\u4e59\u4e8c\u9187\u82ef\u919a\u918b\u9178\u916f", "en_name": ["Ethanol, 2-phenoxy-, 1-acetate", "Ethanol, 2-phenoxy-, 1-acetate", "Ethanol, 2-phenoxy-, acetate", "Ethylene glycol phenyl ether acetate", "2-Phenoxyethanol acetate", "2-Phenoxyethyl acetate", "1-Acetoxy-2-phenoxyethane", "Ethylene glycol monophenyl ether acetate", "\u03b2-Phenoxyethyl acetate", "NSC 6554"], "SMILES": "O(CCOC(C)=O)C1=CC=CC=C1", "physical_data": {"Molecular Weight": "180.20", "Molecular Formula": "C10H12O3", "Boiling Point": "243 \u00b0C", "Density": "1.1063 g/cm\u00b3 @ Temp: 20 \u00b0C"}}