{"cas_no": "61926-22-5", "cn_name": "\u4e59\u4e8c\u80fa\u8054\u4e8c\u4e19\u952d\u6c2f\u5316\u7269\u4e8c\u76d0\u9178\u76d0", "en_name": ["Ethidium homodimer", "Phenanthridinium, 5,5\u2032-[1,2-ethanediylbis(imino-3,1-propanediyl)]bis[3,8-diamino-6-phenyl-, chloride, hydrochloride (1:2:2)", "Phenanthridinium, 5,5\u2032-[1,2-ethanediylbis(imino-3,1-propanediyl)]bis[3,8-diamino-6-phenyl-, dichloride, dihydrochloride", "5,5\u2032-(4,7-Diazadecamethylene)bis(3,8-diamino-6-phenylphenanthridinium) dichloride dihydrochloride", "Ethidium homodimer", "Ethidium homodimer 1", "EthD 1", "EH 1"], "SMILES": "C(CCNCCNCCC[N+]=1C(=C2C(=C3C1C=C(N)C=C3)C=CC(N)=C2)C4=CC=CC=C4)[N+]=5C(=C6C(=C7C5C=C(N)C=C7)C=CC(N)=C6)C8=CC=CC=C8.[Cl-].Cl", "physical_data": {"Molecular Weight": "", "Molecular Formula": "C46H48N8.2ClH.2Cl", "Melting Point": "275 \u00b0C"}}