{"cas_no": "6192-52-5", "cn_name": "\u5bf9\u7532\u82ef\u78fa\u9178\u6c34\u5408\u7269", "en_name": ["p-Toluenesulfonic acid monohydrate", "Benzenesulfonic acid, 4-methyl-, hydrate (1:1)", "p-Toluenesulfonic acid, monohydrate", "Benzenesulfonic acid, 4-methyl-, monohydrate", "4-Toluenesulfonic acid monohydrate", "4-Methylbenzenesulfonic acid monohydrate", "Tosic acid monohydrate", "p-Toluenesulfonic acid monohydrate", "Para-toluene sulfonic acid monohydrate"], "SMILES": "S(=O)(=O)(O)C1=CC=C(C)C=C1.O", "physical_data": {"Molecular Weight": "", "Molecular Formula": "C7H8O3S.H2O", "Boiling Point": "92-119 \u00b0C", "Melting Point": "104.8-105.5 \u00b0C"}}