{"cas_no": "6192-62-7", "cn_name": "\u756a\u8304\u78b1", "en_name": ["Spirosolan-3-ol, hydrochloride (1:1), (3\u03b2,5\u03b1,22\u03b2,25S)-", "Spirosolan-3-ol, hydrochloride (1:1), (3\u03b2,5\u03b1,22\u03b2,25S)-", "5\u03b1-Tomatidin-3\u03b2-ol, hydrochloride", "Spirosolan-3-ol, hydrochloride, (3\u03b2,5\u03b1,22\u03b2,25S)-", "Tomatidin hydrochloride", "Tomatidine hydrochloride"], "SMILES": "CC1C2(OC3C1C4(C)C(C3)C5C(CC4)C6(C)C(CC5)CC(O)CC6)CCC(C)CN2.Cl", "physical_data": {"Molecular Weight": "", "Molecular Formula": "C27H45NO2.ClH", "Melting Point": "275-280 \u00b0C (decomp)"}}