{"cas_no": "61931-68-8", "cn_name": "2-\u7532\u57fa-5-\u82ef\u57fa\u82ef\u5e76\u5511", "en_name": ["2-Methyl-5-phenylbenzoxazole", "Benzoxazole, 2-methyl-5-phenyl-", "2-Methyl-5-phenylbenzoxazole", "5-Phenyl-2-methylbenzoxazole", "2-Methyl-5-phenylbenzo[d]oxazole", "2-Methyl-5-phenyl-1,3-benzoxazole"], "SMILES": "CC1=NC=2C(=CC=C(C2)C3=CC=CC=C3)O1", "physical_data": {"Molecular Weight": "209.24", "Molecular Formula": "C14H11NO", "Boiling Point": "158 \u00b0C @ Press: 2-3 Torr", "Melting Point": "60.2-61.4 \u00b0C"}}