{"cas_no": "61948-85-4", "cn_name": "2-\u6c28\u57fa-3,4,5-\u4e09\u7532\u6c27\u57fa\u82ef\u7532\u9178", "en_name": ["2-Amino-3,4,5-trimethoxybenzoic acid", "Benzoic acid, 2-amino-3,4,5-trimethoxy-", "2-Amino-3,4,5-trimethoxybenzoic acid", "3,4,5-Trimethoxyanthranilic acid", "NSC 81441"], "SMILES": "O(C)C1=C(OC)C(OC)=CC(C(O)=O)=C1N", "physical_data": {"Molecular Weight": "227.21", "Molecular Formula": "C10H13NO5", "Melting Point": "136-137 \u00b0C"}}