{"cas_no": "61948-60-5", "cn_name": "2,4-\u4e8c\u6c2f-8-\u7532\u6c27\u57fa\u55b9\u5511\u5549", "en_name": ["2,4-Dichloro-8-methoxyquinazoline", "Quinazoline, 2,4-dichloro-8-methoxy-", "2,4-Dichloro-8-methoxyquinazoline", "8-Methoxy-2,4-dichloroquinazoline"], "SMILES": "O(C)C=1C2=C(C(Cl)=NC(Cl)=N2)C=CC1", "physical_data": {"Molecular Weight": "229.06", "Molecular Formula": "C9H6Cl2N2O", "Melting Point": "154-156 \u00b0C"}}