{"cas_no": "61941-56-8", "cn_name": "\u6eb4\u82ac\u9178\u6742\u8d2813", "en_name": ["Amfenac sodium", "Benzeneacetic acid, 2-amino-3-benzoyl-, sodium salt (1:1)", "Benzeneacetic acid, 2-amino-3-benzoyl-, monosodium salt", "Sodium 2-amino-3-benzoylbenzeneacetate", "Sodium (2-amino-3-benzoylphenyl)acetate", "AHR 5850D", "Amfenac sodium", "AHR 5850", "Phenazox"], "SMILES": "C(=O)(C1=C(N)C(CC(O)=O)=CC=C1)C2=CC=CC=C2.[Na]", "physical_data": {"Molecular Weight": "", "Molecular Formula": "C15H13NO3.Na", "Melting Point": "254-255.5 \u00b0C"}}