{"cas_no": "6195-20-6", "cn_name": "3-\u6c28\u57fa-4-\u6c2f\u82ef\u7532\u9178\u5341\u4e8c\u70f7\u916f", "en_name": ["Benzoic acid, 3-amino-4-chloro-, dodecyl ester", "Benzoic acid, 3-amino-4-chloro-, dodecyl ester", "Dodecyl 3-amino-4-chlorobenzoate", "2-Chloro-5-(dodecyloxycarbonyl)aniline", "3-Amino-4-chlorobenzoic acid dodecyl ester"], "SMILES": "C(OCCCCCCCCCCCC)(=O)C1=CC(N)=C(Cl)C=C1", "physical_data": {"Molecular Weight": "339.90", "Molecular Formula": "C19H30ClNO2", "Melting Point": "60-62 \u00b0C"}}