{"cas_no": "61969-47-9", "cn_name": "\u8424\u5149\u6a593G", "en_name": ["Solvent Orange 60", "12H-Phthaloperin-12-one", "12-Phthaloperinone", "Aminoplast Orange LFP", "10H-Perimidino[2,1-a]isoindol-10-one", "Phthaloperinone", "Oplas Orange 230", "C.I. Solvent Orange 60", "Oracet Orange G", "Solvent Orange 60", "C.I. Solvent Orange 78", "Solvent Orange 78", "Sumiplast Orange HRP", "Macrolex Orange 3G", "Diaresin Orange HS", "C.I. 564100", "Sandoplast Orange 3G", "C.I. Disperse Orange 24", "Disperse Orange 24", "KP Plast Orange 8150", "KP Plast Orange HG", "Plast Orange 8150", "Oracet Orange 230", "12H-Isoindolo[2,1-a]perimidin-12-one", "Solvaperm Orange 3G"], "SMILES": "O=C1N2C(C=3C1=CC=CC3)=NC=4C5=C2C=CC=C5C=CC4", "physical_data": {"Molecular Weight": "270.28", "Molecular Formula": "C18H10N2O", "Melting Point": "228-230 \u00b0C"}}