{"cas_no": "61969-53-7", "cn_name": "2,5-\u4e8c\u7f9f\u57fa-N-(2-\u7f9f\u4e59\u57fa)\u82ef\u7532\u9170\u80fa", "en_name": ["2,5-Dihydroxy-N-(2-hydroxyethyl)benzamide", "Benzamide, 2,5-dihydroxy-N-(2-hydroxyethyl)-", "Gentisamide, N-2-hydroxyethyl-", "2,5-Dihydroxy-N-(2-hydroxyethyl)benzamide", "2,5-Resorcylic acid ethanolamide", "Gentisic acid ethanolamide"], "SMILES": "C(NCCO)(=O)C1=C(O)C=CC(O)=C1", "physical_data": {"Molecular Weight": "197.19", "Molecular Formula": "C9H11NO4", "Melting Point": "145-148 \u00b0C"}}