{"cas_no": "61995-52-6", "cn_name": "1-\u4e59\u9170\u57fa-5-\u6eb4\u5432\u54da", "en_name": ["1-(5-Bromo-1H-indol-1-yl)ethanone", "Ethanone, 1-(5-bromo-1H-indol-1-yl)-", "1H-Indole, 1-acetyl-5-bromo-", "1-(5-Bromo-1H-indol-1-yl)ethanone", "1-Acetyl-5-bromoindole", "N-Acetyl-5-bromoindole", "1-Acetyl-5-bromo-1H-indole", "1-(5-Bromo-1H-indol-1-yl)ethan-1-one", "1-(5-Bromoindol-1-yl)ethanone", "5-Bromo-N-acetylindole"], "SMILES": "C(C)(=O)N1C=2C(C=C1)=CC(Br)=CC2", "physical_data": {"Molecular Weight": "238.08", "Molecular Formula": "C10H8BrNO", "Melting Point": "157-158 \u00b0C"}}