{"cas_no": "6199-67-3", "cn_name": "\u846b\u82a6\u7d20B", "en_name": ["(+)-Cucurbitacin B", "19-Norlanosta-5,23-diene-3,11,22-trione, 25-(acetyloxy)-2,16,20-trihydroxy-9-methyl-, (2\u03b2,9\u03b2,10\u03b1,16\u03b1,23E)-", "19-Nor-9\u03b2,10\u03b1-lanosta-5,23-diene-3,11,22-trione, 2\u03b2,16\u03b1,20,25-tetrahydroxy-9-methyl-, 25-acetate", "(2\u03b2,9\u03b2,10\u03b1,16\u03b1,23E)-25-(Acetyloxy)-2,16,20-trihydroxy-9-methyl-19-norlanosta-5,23-diene-3,11,22-trione", "Cucurbitacin B", "Cucurbitacine B", "Amarine", "NSC 144154", "NSC 49451", "(+)-Cucurbitacin B", "HY-N 0416"], "SMILES": "CC12C(C)(C(C(C(C=CC(OC(C)=O)(C)C)=O)(C)O)C(O)C1)CC(=O)C3(C)C2CC=C4C3CC(O)C(=O)C4(C)C", "physical_data": {"Molecular Weight": "558.70", "Molecular Formula": "C32H46O8", "Melting Point": "184-186 \u00b0C"}}