{"cas_no": "62-13-5", "cn_name": "\u76d0\u9178\u80be\u4e0a\u817a\u916e", "en_name": ["Ethanone, 1-(3,4-dihydroxyphenyl)-2-(methylamino)-, hydrochloride (1:1)", "Ethanone, 1-(3,4-dihydroxyphenyl)-2-(methylamino)-, hydrochloride (1:1)", "Acetophenone, 3\u2032,4\u2032-dihydroxy-2-(methylamino)-, hydrochloride", "Adrenalone hydrochloride", "Ethanone, 1-(3,4-dihydroxyphenyl)-2-(methylamino)-, hydrochloride", "Adrenone hydrochloride", "Kephrine hydrochloride", "\u03b1-Methylamino-3\u2032,4\u2032-dihydroxyacetophenone hydrochloride", "\u03b1-Methylamino-3,4-dihydroxyacetophenone hydrochloride", "Styphnonasal", "[2-(3,4-Dihydroxyphenyl)-2-oxoethyl](methyl)azanium chloride", "1-(3,4-Dihydroxyphenyl)-2-(methylamino)ethan-1-one hydrochloride"], "SMILES": "C(CNC)(=O)C1=CC(O)=C(O)C=C1.Cl", "physical_data": {"Molecular Weight": "", "Molecular Formula": "C9H11NO3.ClH", "Melting Point": "243 \u00b0C"}}