{"cas_no": "62-23-7", "cn_name": "\u5bf9\u785d\u57fa\u82ef\u7532\u9178", "en_name": ["4-Nitrobenzoic acid", "Benzoic acid, 4-nitro-", "Benzoic acid, p-nitro-", "4-Nitrobenzoic acid", "p-Nitrobenzoic acid", "Nitrodracylic acid", "p-Nitrobenzenecarboxylic acid", "p-Carboxynitrobenzene", "NSC 7707", "P-Nitrodracylic acid"], "SMILES": "C(O)(=O)C1=CC=C(N(=O)=O)C=C1", "physical_data": {"Molecular Weight": "167.12", "Molecular Formula": "C7H5NO4", "Boiling Point": "150 \u00b0C @ Press: 0.02 Torr", "Melting Point": "242 \u00b0C", "Density": "1.610 g/cm\u00b3 @ Temp: 20 \u00b0C"}}