{"cas_no": "62-32-8", "cn_name": "N-\u7532\u57fa\u591a\u5df4\u80fa", "en_name": ["Methyldopamine hydrochloride", "1,2-Benzenediol, 4-[2-(methylamino)ethyl]-, hydrochloride (1:1)", "Pyrocatechol, 4-[2-(methylamino)ethyl]-, hydrochloride", "1,2-Benzenediol, 4-[2-(methylamino)ethyl]-, hydrochloride", "3,4-Dihydroxyphenylethylmethylamine hydrochloride", "Ephinine hydrochloride", "4-(2-Methylaminoethyl)pyrocatechol hydrochloride", "Methyl[\u03b2-(3,4-dihydroxyphenyl)ethyl]amine hydrochloride", "N-Methyldopamine hydrochloride", "Epinine hydrochloride", "Methyldopamine hydrochloride", "Deoxyepinephrine hydrochloride", "4-(2-Methylaminoethyl)-1,2-benzenediol hydrochloride"], "SMILES": "C(CNC)C1=CC(O)=C(O)C=C1.Cl", "physical_data": {"Molecular Weight": "", "Molecular Formula": "C9H13NO2.ClH", "Melting Point": "177-178 \u00b0C"}}