{"cas_no": "62-38-4", "cn_name": "\u82ef\u57fa\u918b\u9178\u6c5e", "en_name": ["Phenylmercuric acetate", "Mercury, (acetato-\u03baO)phenyl-", "Phenylmercury acetate", "Mercury, (acetato)phenyl-", "Mercury, (acetato-O)phenyl-", "(Acetato-\u03baO)phenylmercury", "Tag 331", "Tag HL 331", "Acetoxyphenylmercury", "Bufen", "Contra Creme", "Fungitox OR", "Liquiphene", "Mercuriphenyl acetate", "Mersolite 8", "Norforms", "Phix", "PMA", "PMAC", "PMAS", "Quicksan", "Scutl", "Setrete", "Tag", "Tag Fungicide", "Ziarnik", "Antimucin WDR", "Benzene, (acetoxymercurio)-", "Phenylmercuric acetate", "Sanitized SPG", "Trigosan", "Femma", "Mercuron", "Verdasan", "Neantina", "Acetatophenylmercury", "PMA 220", "Sanmicron", "(Acetato-O)phenylmercury", "Bufen 30", "Mersolite D", "Programin", "Spruce Seal", "Nylmerate", "Algimycin 200", "Fungicide R", "Panomatic", "Anticon", "Volpar", "Meracen", "Antimucin WBR", "Hexasan", "Hexasan (fungicide)", "Seed Dressing R", "Zaprawa Nasienna R", "Mercron", "Ruberon", "Troysan 30", "Mergal A 25", "Ceresol", "PMA (fungicide)", "Troysan PMA 30", "Samtol", "Lorophyn", "Agrosan D", "Intercide PMA 18", "Intercide 60", "Nuodex PMA 18", "Acetic acid, phenylmercury deriv.", "Parasan", "Parasan (bactericide)", "Seedtox", "NSC 35670", "NSC 61321", "Agrosan", "MeSH ID: D010662"], "SMILES": "[Hg](OC(C)=O)C1=CC=CC=C1", "physical_data": {"Molecular Weight": "", "Molecular Formula": "C8H8HgO2", "Melting Point": "149 \u00b0C", "Density": "2.400 g/cm\u00b3"}}