{"cas_no": "62-31-7", "cn_name": "\u76d0\u9178\u591a\u5df4\u80fa", "en_name": ["Dopamine hydrochloride", "1,2-Benzenediol, 4-(2-aminoethyl)-, hydrochloride (1:1)", "Pyrocatechol, 4-(2-aminoethyl)-, hydrochloride", "1,2-Benzenediol, 4-(2-aminoethyl)-, hydrochloride", "Dopamine hydrochloride", "3-Hydroxytyramine hydrochloride", "\u03b2-(3,4-Dihydroxyphenyl)ethylamine hydrochloride", "3,4-Dihydroxyphenethylamine hydrochloride", "Intropin", "Dopamine chloride", "m-Hydroxytyramine hydrochloride", "P 498", "2-(3,4-Dihydroxyphenyl)ethylamine hydrochloride", "KW 3160", "Inovan", "Revivan", "3,4-Dihydroxy-\u03b2-phenethylamine hydrochloride", "Tensamin", "Rascordin", "Dynatra", "Cardiosteril", "Inotropin", "Dopastat", "ASL 279", "Dopamine Fresenius", "Dopamine Pierre Faba", "4-(2-Aminoethyl)-1,2-benzenediol hydrochloride", "Dopadic", "Dopmin", "2-(3,4-Dihydroxyphenyl)ethanaminium chloride", "H 8502", "D 103111", "PHR 1090"], "SMILES": "C(CN)C1=CC(O)=C(O)C=C1.Cl", "physical_data": {"Molecular Weight": "", "Molecular Formula": "C8H11NO2.ClH", "Melting Point": "240 \u00b0C (decomp)"}}