{"cas_no": "62-44-2", "cn_name": "\u975e\u90a3\u897f\u4e01", "en_name": ["Phenacetin", "Acetamide, N-(4-ethoxyphenyl)-", "p-Acetophenetidide", "N-(4-Ethoxyphenyl)acetamide", "Acetophenetidin", "Acetophenetin", "N-Acetyl-p-phenetidine", "p-Ethoxyacetanilide", "Aceto-4-phenetidine", "Phenacetin", "Phenacetine", "4-Ethoxyacetanilide", "Acetophenetidine", "4\u2032-Ethoxyacetanilide", "Fenidina", "Fenina", "Kalmin", "Pertonal", "Phenazetin", "Phenedina", "Phenidin", "Phenin", "N-Acetyl-p-ethoxyaniline", "N-Acetyl-4-ethoxyaniline", "4-(Acetylamino)phenetole", "Acetphenetidin", "NSC 7651", "4-Ethoxy-1-acetylaminobenzene", "Acetparaphenetidine", "MeSH ID: D010615"], "SMILES": "N(C(C)=O)C1=CC=C(OCC)C=C1", "physical_data": {"Molecular Weight": "179.22", "Molecular Formula": "C10H13NO2", "Melting Point": "134-135 \u00b0C", "Density": "1.21 g/cm\u00b3"}}