{"cas_no": "62-49-7", "cn_name": "\u80c6\u78b1", "en_name": ["Choline", "Ethanaminium, 2-hydroxy-N,N,N-trimethyl-", "Choline", "2-Hydroxy-N,N,N-trimethylethanaminium", "Bilineurine", "(2-Hydroxyethyl)trimethylammonium", "Choline ion", "Choline cation", "PubChem CID: 305", "Nanoveson C", "Vitamin J", "Ethanol, 2-(trimethylamino)-, ion(1-)", "MeSH ID: D002794", "DrugBank AC: DB00122"], "SMILES": "C([N+](C)(C)C)CO", "physical_data": {"Molecular Weight": "", "Molecular Formula": "C5H14NO", "Boiling Point": "155-230 \u00b0C", "Melting Point": "232-233 \u00b0C (decomp)"}}