{"cas_no": "62-50-0", "cn_name": "\u7532\u78fa\u9178\u4e59\u916f", "en_name": ["Ethyl methanesulfonate", "Methanesulfonic acid, ethyl ester", "EMS", "Ethyl methanesulfonate", "Ethyl methanesulphonate", "NSC 26805", "Ethyl mesylate", "O-Ethyl methylsulfonate", "MeSH ID: D005020"], "SMILES": "O(S(C)(=O)=O)CC", "physical_data": {"Molecular Weight": "124.16", "Molecular Formula": "C3H8O3S", "Boiling Point": "213-213.5 \u00b0C @ Press: 761 Torr", "Melting Point": "&lt;25 \u00b0C", "Density": "1.1452 g/cm\u00b3 @ Temp: 22 \u00b0C"}}