{"cas_no": "62-55-5", "cn_name": "\u786b\u4ee3\u4e59\u9170\u80fa", "en_name": ["Thioacetamide", "Ethanethioamide", "Acetamide, thio-", "Acetimidic acid, thio-", "Acetothioamide", "TAA", "Thioacetamide", "Thiacetamide", "NSC 2120", "MeSH ID: D013853"], "SMILES": "C(C)(N)=S", "physical_data": {"Molecular Weight": "75.13", "Molecular Formula": "C2H5NS", "Melting Point": "113-114 \u00b0C"}}