{"cas_no": "62-51-1", "cn_name": "\u6c2f\u5316\u4e59\u9170\u7532\u80c6\u78b1", "en_name": ["Methacholine chloride", "1-Propanaminium, 2-(acetyloxy)-N,N,N-trimethyl-, chloride (1:1)", "(2-Hydroxypropyl)trimethylammonium chloride acetate", "Ammonium, (2-hydroxypropyl)trimethyl-, chloride, acetate", "1-Propanaminium, 2-(acetyloxy)-N,N,N-trimethyl-, chloride", "(2-Acetoxypropyl)trimethylammonium chloride", "Acetyl-\u03b2-methylcholine chloride", "O-Acetyl-\u03b2-methylcholine chloride", "Amechol", "Methacholine chloride", "Trimethyl-\u03b2-acetoxypropylammonium chloride", "Mecholyl", "\u03b2-Methylacetylcholine chloride", "Mecholine chloride", "(\u00b1)-Acetyl-\u03b2-methylcholine chloride", "DL-Acetyl-\u03b2-methylcholine chloride", "Provocholine", "Arkofix NDC", "MeSH ID: D016210"], "SMILES": "C([N+](C)(C)C)C(OC(C)=O)C.[Cl-]", "physical_data": {"Molecular Weight": "", "Molecular Formula": "C8H18NO2.Cl", "Melting Point": "172 \u00b0C"}}