{"cas_no": "62-53-3", "cn_name": "\u82ef\u80fa", "en_name": ["Aniline", "Benzenamine", "Aniline", "C.I. 76000", "Aminophen", "Benzene, amino-", "Blue Oil", "Phenylamine", "Anyvim", "Aminobenzene", "NCI 176889"], "SMILES": "NC1=CC=CC=C1", "physical_data": {"Molecular Weight": "93.13", "Molecular Formula": "C6H7N", "Boiling Point": "184.1 \u00b0C", "Melting Point": "-6.0 \u00b0C", "Density": "1.0217 g/cm\u00b3 @ Temp: 20 \u00b0C"}}