{"cas_no": "62-56-6", "cn_name": "\u786b\u8132", "en_name": ["Thiourea", "Thiourea", "Urea, thio-", "Pseudourea, 2-thio-", "Pseudourea (NH2.C(OH):NH), thio-", "Thiocarbamide", "THU", "\u03b2-Thiopseudourea", "2-Thiourea", "Pseudothiourea", "Isothiourea", "TsIZP 34", "NSC 5033", "MeSH ID: D013890"], "SMILES": "C(N)(N)=S", "physical_data": {"Molecular Weight": "76.12", "Molecular Formula": "CH4N2S", "Melting Point": "176-178 \u00b0C", "Density": "1.405 g/cm\u00b3"}}