{"cas_no": "62-57-7", "cn_name": "2-\u7532\u57fa\u4e19\u6c28\u9178", "en_name": ["Aminoisobutyric acid", "Alanine, 2-methyl-", "2-Methylalanine", "AIB", "\u03b1-Aminoisobutyric acid", "\u03b1-Methylalanine", "Aminoisobutyric acid", "2-Amino-2-methylpropanoic acid", "2-Aminoisobutyric acid", "\u03b1,\u03b1-Dimethylglycine", "\u03b1-Aminoisobutanoic acid", "2-Amino-2-methylpropionic acid", "2,2-Dimethylglycine", "NSC 16590", "21: PN: WO2005055994 PAGE: 50 claimed sequence"], "SMILES": "C(C(O)=O)(C)(C)N", "physical_data": {"Molecular Weight": "103.12", "Molecular Formula": "C4H9NO2", "Melting Point": "335 \u00b0C"}}