{"cas_no": "62-54-4", "cn_name": "\u4e59\u9178\u9499", "en_name": ["Calcium acetate", "Acetic acid, calcium salt (2:1)", "Calcium acetate", "Acetic acid, calcium salt", "Brown acetate", "Calcium diacetate", "Gray acetate", "Lime acetate", "Lime pyrolignite", "Sorbo-Calcion", "Teltozan", "Sanopan", "PhosLo", "Royen", "E 263", "Phosex"], "SMILES": "C(C)(O)=O.[Ca]", "physical_data": {"Molecular Weight": "", "Molecular Formula": "C2H4O2.<sup>1</sup>/2Ca", "Melting Point": "160 \u00b0C (decomp)", "Density": "150 g/cm\u00b3"}}