{"cas_no": "62-68-0", "cn_name": "\u76d0\u9178\u4e19\u57fa\u89e3\u75c9\u7d20", "en_name": ["Proadifen hydrochloride", "Benzeneacetic acid, \u03b1-phenyl-\u03b1-propyl-, 2-(diethylamino)ethyl ester, hydrochloride (1:1)", "Valeric acid, 2,2-diphenyl-, 2-(diethylamino)ethyl ester hydrochloride", "Benzeneacetic acid, \u03b1-phenyl-\u03b1-propyl-, 2-(diethylamino)ethyl ester, hydrochloride", "SKF 525A", "U 5446", "2\u2032-Diethylaminoethyl 2,2-diphenylpentanoate hydrochloride", "\u03b2-Diethylaminoethyl diphenylpropylacetate hydrochloride", "2-(Diethylamino)ethyl 2,2-diphenylvalerate hydrochloride", "Proadifen hydrochloride", "RP 5171", "SKF 525"], "SMILES": "C(C(OCCN(CC)CC)=O)(CCC)(C1=CC=CC=C1)C2=CC=CC=C2.Cl", "physical_data": {"Molecular Weight": "", "Molecular Formula": "C23H31NO2.ClH", "Melting Point": "120 \u00b0C"}}