{"cas_no": "62-73-7", "cn_name": "\u654c\u654c\u754f", "en_name": ["Dichlorvos", "Phosphoric acid, 2,2-dichloroethenyl dimethyl ester", "Phosphoric acid, 2,2-dichlorovinyl dimethyl ester", "Ethenol, 2,2-dichloro-, dimethyl phosphate", "OMS 14", "Atgard V", "DDVP", "2,2-Dichlorovinyl dimethyl phosphate", "Dichlorovos", "Dichlorvos", "Dimethyl 2,2-dichloroethenyl phosphate", "Dimethyl 2,2-dichlorovinyl phosphate", "Nerkol", "Nogos", "Nuvan", "Task", "Vapona", "Vapona Insecticide", "DDVP (insecticide)", "Dimethyl dichlorovinyl phosphate", "O,O-Dimethyl 2,2-dichlorovinyl phosphate", "Dedevap", "Nuvan 100EC", "Vaponite", "Equigard", "ENT 20738", "Vinylophos", "Chlorvinphos", "Szklarniak", "TAP 9VP", "SD 1750", "Atgard", "Canogard", "Equigel", "Estrosel", "Brevinyl E 50", "Nuvan 7", "Unifos", "Unifos (pesticide)", "Brevinyl", "OKO", "Nogos 50EC", "Mopari", "Bibesol", "Dichlorman", "Nogos G", "Fekama", "Fecama", "2,2-Dichloroethenyl dimethyl phosphate", "Vinylofos", "Winylophos", "Divipan", "Panaplate", "Des", "Novotox", "Nefrafos", "Insectigas D", "Estrosol", "Dichlofos", "Unitox", "Nogos 500", "Phosvit 75", "Phosvit", "Prima U", "Unifos 50EC", "Nuvan 500 EC", "Dichlorovinphos", "Des (phosphate)", "Dash", "BAY-b 4986", "Estrosol (pesticide)", "NSC 6738", "Nuvos", "Alatox", "Nuvan 76EC", "Task (insecticide)", "Ferag ID TM", "Lava 100EC", "MeSH ID: D004006"], "SMILES": "P(OC=C(Cl)Cl)(OC)(OC)=O", "physical_data": {"Molecular Weight": "220.98", "Molecular Formula": "C4H7Cl2O4P", "Boiling Point": "140 \u00b0C @ Press: 20 Torr", "Melting Point": "&lt;25 \u00b0C", "Density": "1.415 g/cm\u00b3 @ Temp: 25 \u00b0C"}}