{"cas_no": "62-75-9", "cn_name": "N-\u4e9a\u785d\u57fa\u4e8c\u7532\u80fa", "en_name": ["N-Nitrosodimethylamine", "Methanamine, N-methyl-N-nitroso-", "Dimethylamine, N-nitroso-", "N-Methyl-N-nitrosomethanamine", "Dimethylnitrosamine", "DMN", "DMNA", "N-Nitrosodimethylamine", "N-Nitroso-N,N-dimethylamine", "NDMA", "NSC 23226", "MeSH ID: D004128"], "SMILES": "N(N=O)(C)C", "physical_data": {"Molecular Weight": "74.08", "Molecular Formula": "C2H6N2O", "Boiling Point": "151-153 \u00b0C", "Melting Point": "&lt;25 \u00b0C", "Density": "1.0048 g/cm\u00b3 @ Temp: 20 \u00b0C"}}