{"cas_no": "62-76-0", "cn_name": "\u8349\u9178\u94a0", "en_name": ["Sodium oxalate", "Ethanedioic acid, sodium salt (1:2)", "Oxalic acid, disodium salt", "Ethanedioic acid, disodium salt", "Sodium oxalate", "Disodium oxalate", "CSN 1", "Citroma"], "SMILES": "C(C(O)=O)(O)=O.[Na]", "physical_data": {"Molecular Weight": "", "Molecular Formula": "C2H2O4.2Na", "Melting Point": "260 \u00b0C (decomp)", "Density": "2.340 g/cm\u00b3"}}