{"cas_no": "62-74-8", "cn_name": "\u6c1f\u4e59\u9178\u94a0", "en_name": ["Sodium fluoroacetate", "Acetic acid, 2-fluoro-, sodium salt (1:1)", "Acetic acid, fluoro-, sodium salt", "1080", "Fluoroacetic acid sodium salt", "Sodium fluoroacetate", "Sodium monofluoroacetate", "Furatol", "Compound 1080", "Ratbane 1080", "SMFA", "Fratol", "Tenate"], "SMILES": "C(CF)(O)=O.[Na]", "physical_data": {"Molecular Weight": "", "Molecular Formula": "C2H3FO2.Na", "Melting Point": "201 \u00b0C"}}