{"cas_no": "62-90-8", "cn_name": "\u82ef\u4e19\u9178\u8bfa\u9f99", "en_name": ["Nandrolone phenylpropionate", "Estr-4-en-3-one, 17-(1-oxo-3-phenylpropoxy)-, (17\u03b2)-", "Estr-4-en-3-one, 17\u03b2-hydroxy-, hydrocinnamate", "Estr-4-en-3-one, 17\u03b2-hydroxy-, phenylpropionate", "Hydrocinnamic acid, ester with 17\u03b2-hydroxyestr-4-en-3-one", "(17\u03b2)-17-(1-Oxo-3-phenylpropoxy)estr-4-en-3-one", "Durabolin", "17\u03b2-Hydroxyestr-4-en-3-one phenylpropionate", "17\u03b2-Hydroxy-19-norandrost-4-en-3-one 17-phenylpropionate", "Nandrolone phenpropionate", "Nandrolone phenylpropionate", "Nerobil", "Norandrolone phenylpropionate", "Norandrostenolone phenylpropionate", "19-Norandrostenolone phenylpropionate", "19-Nor-17\u03b2-hydroxy-3-ketoandrost-4-ene 17-phenylpropionate", "19-Nortestosterone phenylpropionate", "NPP", "NTPP", "Superanabolon", "Nerobolil", "17\u03b2-Hydroxy-4-estren-3-one17-phenylpropionate", "Nortestosterone phenylpropionate", "Fenobolin", "Phenobolin", "17\u03b2-(3-Phenylpropionyloxy)-estr-4-en-3-one", "Nandrolon phenylpropionate", "Nandrolin", "Durabol", "Activin (anabolic steroid)", "Nandrobolic", "NSC 23162", "Strabolene", "Nandrosol"], "SMILES": "CC12C(C3C(C4C(CC3)=CC(=O)CC4)CC1)CCC2OC(CCC5=CC=CC=C5)=O", "physical_data": {"Molecular Weight": "406.56", "Molecular Formula": "C27H34O3", "Melting Point": "95-96 \u00b0C"}}