{"cas_no": "62-99-7", "cn_name": "6-B-\u7f9f\u57fa-17\u0392-\u7f9f\u57fa-4- \u70ef-3- \u916e\u4e19\u9178\u916f", "en_name": ["6\u03b2-Hydroxytestosterone", "Androst-4-en-3-one, 6,17-dihydroxy-, (6\u03b2,17\u03b2)-", "Androst-4-en-3-one, 6\u03b2,17\u03b2-dihydroxy-", "(6\u03b2,17\u03b2)-6,17-Dihydroxyandrost-4-en-3-one", "6\u03b2-Hydroxytestosterone", "4-Androstene-6\u03b2,17\u03b2-diol-3-one", "6\u03b2,17\u03b2-Dihydroxy-4-androstene-3-one", "6\u03b2,17\u03b2-Dihydroxyandrost-4-en-3-one", "NSC 9721"], "SMILES": "CC12C3C(C4C(C)(CC3)C(O)CC4)CC(O)C1=CC(=O)CC2", "physical_data": {"Molecular Weight": "304.42", "Molecular Formula": "C19H28O3", "Melting Point": "217-218 \u00b0C"}}