{"cas_no": "62-97-5", "cn_name": "\u7532\u786b\u4e8c\u82ef\u9a6c\u5c3c", "en_name": ["Diphemanil methyl sulfate", "Piperidinium, 4-(diphenylmethylene)-1,1-dimethyl-, methyl sulfate (1:1)", "Piperidinium, 4-(diphenylmethylene)-1,1-dimethyl-, methyl sulfate", "4-(Diphenylmethylene)-1,1-dimethylpiperidinium methyl sulfate", "Demotil", "N,N-Dimethyl-4-piperidylidene-1,1-diphenylmethane methylsulfate", "Diphemanil", "Diphenatil", "Diphenmanil methylsulfate", "Diphenmethanil", "Diphenmethanil methylsulfate", "Nivelona", "Prantal", "Vagophemanil", "Vagophemanil methyl sulfate", "Diphemanil methyl sulfate", "Diphemanil methosulfate", "Nivelon", "Prantil", "Prentol", "Talpran", "Variton", "Diphemanil metilsulfate", "NSC 41725", "Biphemanil"], "SMILES": "C(=C1CC[N+](C)(C)CC1)(C2=CC=CC=C2)C3=CC=CC=C3.S(OC)(=O)(=O)[O-]", "physical_data": {"Molecular Weight": "", "Molecular Formula": "C20H24N.CH3O4S", "Melting Point": "194.5 \u00b0C"}}