{"cas_no": "620-92-8", "cn_name": "4,4'-\u4e8c\u7f9f\u57fa\u4e8c\u82ef\u7532\u70f7", "en_name": ["Bis(4-hydroxyphenyl)methane", "Phenol, 4,4\u2032-methylenebis-", "Phenol, 4,4\u2032-methylenedi-", "Phenol, p,p\u2032-methylenedi-", "4,4\u2032-Methylenebis[phenol]", "Bis(p-hydroxyphenyl)methane", "Bis(4-hydroxyphenyl)methane", "4,4\u2032-Methylenediphenol", "4,4\u2032-Dihydroxydiphenylmethane", "p-(p-Hydroxybenzyl)phenol", "HDM", "4,4\u2032-Bis(hydroxyphenyl)methane", "Bisphenol F", "PP-BIP-F", "NSC 401136", "p,p\u2032-BPF", "1,1-Bis(4-hydroxyphenyl)methane"], "SMILES": "C(C1=CC=C(O)C=C1)C2=CC=C(O)C=C2", "physical_data": {"Molecular Weight": "200.23", "Molecular Formula": "C13H12O2", "Boiling Point": "237-243 \u00b0C @ Press: 12-13 Torr", "Melting Point": "162.5 \u00b0C"}}