{"cas_no": "620-13-3", "cn_name": "3-\u7532\u57fa\u82c4\u6eb4", "en_name": ["3-Methylbenzyl bromide", "Benzene, 1-(bromomethyl)-3-methyl-", "m-Xylene, \u03b1-bromo-", "1-(Bromomethyl)-3-methylbenzene", "m-Xylyl bromide", "m-Methylbenzyl bromide", "3-Methylbenzyl bromide", "\u03b1-Bromo-m-xylene", "3-(Bromomethyl)toluene", "NSC 60146"], "SMILES": "C(Br)C1=CC(C)=CC=C1", "physical_data": {"Molecular Weight": "185.06", "Molecular Formula": "C8H9Br", "Boiling Point": "212.5 \u00b0C", "Density": "1.3711 g/cm\u00b3 @ Temp: 23 \u00b0C"}}