{"cas_no": "620-08-6", "cn_name": "4-\u7532\u6c27\u57fa\u5421\u5576", "en_name": ["4-Methoxypyridine", "Pyridine, 4-methoxy-", "4-Methoxypyridine", "\u03b3-Methoxypyridine"], "SMILES": "O(C)C=1C=CN=CC1", "physical_data": {"Molecular Weight": "109.13", "Molecular Formula": "C6H7NO", "Boiling Point": "190 \u00b0C", "Melting Point": "4 \u00b0C"}}