{"cas_no": "620-81-5", "cn_name": "\u8349\u9170\u82ef\u80fa", "en_name": ["Oxanilide", "Ethanediamide, N1,N2-diphenyl-", "Oxanilide", "Ethanediamide, N,N\u2032-diphenyl-", "N1,N2-Diphenylethanediamide", "Oxalanilide", "N,N\u2032-Diphenyloxalamide", "N,N\u2032-Diphenyloxalic acid diamide", "NSC 4183", "N,N\u2032-Diphenyloxamide"], "SMILES": "N(C(C(NC1=CC=CC=C1)=O)=O)C2=CC=CC=C2", "physical_data": {"Molecular Weight": "240.26", "Molecular Formula": "C14H12N2O2", "Melting Point": "254 \u00b0C"}}