{"cas_no": "620-16-6", "cn_name": "1-\u6c2f-3-\u4e59\u57fa\u82ef", "en_name": ["1-Chloro-3-ethylbenzene", "Benzene, 1-chloro-3-ethyl-", "1-Chloro-3-ethylbenzene", "m-Chloroethylbenzene", "3-Ethylchlorobenzene", "3-Chloroethylbenzene", "NSC 60919"], "SMILES": "C(C)C1=CC(Cl)=CC=C1", "physical_data": {"Molecular Weight": "140.61", "Molecular Formula": "C8H9Cl", "Boiling Point": "183.8 \u00b0C", "Melting Point": "-55 \u00b0C"}}