{"cas_no": "620-32-6", "cn_name": "\u82c4\u57fa\u781c", "en_name": ["Dibenzyl sulfone", "Benzene, 1,1\u2032-[sulfonylbis(methylene)]bis-", "Benzyl sulfone", "1,1\u2032-[Sulfonylbis(methylene)]bis[benzene]", "Dibenzyl sulfone", "NSC 212545", "NSC 67", "(Sulfonylbis(methylene))dibenzene"], "SMILES": "C(S(CC1=CC=CC=C1)(=O)=O)C2=CC=CC=C2", "physical_data": {"Molecular Weight": "246.32", "Molecular Formula": "C14H14O2S", "Melting Point": "152 \u00b0C"}}