{"cas_no": "620-14-4", "cn_name": "3-\u4e59\u57fa\u7532\u82ef", "en_name": ["1-Ethyl-3-methylbenzene", "Benzene, 1-ethyl-3-methyl-", "Toluene, m-ethyl-", "1-Ethyl-3-methylbenzene", "3-Ethyltoluene", "1-Methyl-3-ethylbenzene", "m-Ethylmethylbenzene", "3-Methylethylbenzene", "m-Ethyltoluene", "m-Methylethylbenzene", "NSC 74176"], "SMILES": "C(C)C1=CC(C)=CC=C1", "physical_data": {"Molecular Weight": "120.19", "Molecular Formula": "C9H12", "Boiling Point": "161.3 \u00b0C", "Melting Point": "-95.5 \u00b0C", "Density": "0.867 g/cm\u00b3 @ Temp: 20 \u00b0C"}}