{"cas_no": "620-40-6", "cn_name": "\u4e09\u82c4\u80fa", "en_name": ["Tribenzylamine", "Benzenemethanamine, N,N-bis(phenylmethyl)-", "Tribenzylamine", "N,N-Bis(phenylmethyl)benzenemethanamine", "(N,N-Dibenzylaminomethyl)benzene", "N,N,N-Tribenzylamine"], "SMILES": "N(CC1=CC=CC=C1)(CC2=CC=CC=C2)CC3=CC=CC=C3", "physical_data": {"Molecular Weight": "287.40", "Molecular Formula": "C21H21N", "Boiling Point": "385 \u00b0C", "Melting Point": "91.5 \u00b0C"}}