{"cas_no": "620-95-1", "cn_name": "3-\u82c4\u57fa\u5421\u5576", "en_name": ["3-Benzylpyridine", "Pyridine, 3-(phenylmethyl)-", "Pyridine, 3-benzyl-", "3-(Phenylmethyl)pyridine", "3-Benzylpyridine", "CDD 3515"], "SMILES": "C(C1=CC=CC=C1)C=2C=CC=NC2", "physical_data": {"Molecular Weight": "169.22", "Molecular Formula": "C12H11N", "Boiling Point": "287 \u00b0C", "Melting Point": "34 \u00b0C"}}