{"cas_no": "620-22-4", "cn_name": "\u95f4\u7532\u57fa\u82ef\u8148", "en_name": ["3-Methylbenzonitrile", "Benzonitrile, 3-methyl-", "m-Tolunitrile", "3-Methylbenzonitrile", "m-Methylbenzonitrile", "3-Tolunitrile", "m-Cyanotoluene", "m-Toluenenitrile", "3-Cyanotoluene", "3-Tolyl cyanide", "NSC 75453"], "SMILES": "C(#N)C1=CC(C)=CC=C1", "physical_data": {"Molecular Weight": "117.15", "Molecular Formula": "C8H7N", "Boiling Point": "213 \u00b0C", "Melting Point": "-23 \u00b0C"}}