{"cas_no": "620-17-7", "cn_name": "3-\u4e59\u57fa\u82ef\u915a", "en_name": ["3-Ethylphenol", "Phenol, 3-ethyl-", "Phenol, m-ethyl-", "3-Ethylphenol", "m-Ethylphenol", "1-Ethyl-3-hydroxybenzene", "m-Hydroxyethylbenzene", "NSC 8873"], "SMILES": "C(C)C1=CC(O)=CC=C1", "physical_data": {"Molecular Weight": "122.16", "Molecular Formula": "C8H10O", "Boiling Point": "218.4 \u00b0C @ Press: 760 Torr", "Melting Point": "-4 \u00b0C", "Density": "1.0283 g/cm\u00b3 @ Temp: 20 \u00b0C"}}