{"cas_no": "620-93-9", "cn_name": "4,4'-\u4e8c\u7532\u57fa\u4e8c\u82ef\u80fa", "en_name": ["Bis(4-methylphenyl)amine", "Benzenamine, 4-methyl-N-(4-methylphenyl)-", "Di-p-tolylamine", "4-Methyl-N-(4-methylphenyl)benzenamine", "N-p-Tolyl-p-toluidine", "4,4\u2032-Dimethyldiphenylamine", "Bis(4-methylphenyl)amine", "N,N-Bis(4-methylphenyl)amine", "Bis(p-tolyl)amine", "N-p-Methylphenyl-4-methylaniline", "p,p\u2032-Ditolylamine", "Di(p-methylphenyl)amine"], "SMILES": "N(C1=CC=C(C)C=C1)C2=CC=C(C)C=C2", "physical_data": {"Molecular Weight": "197.28", "Molecular Formula": "C14H15N", "Boiling Point": "330.5 \u00b0C", "Melting Point": "79.8 \u00b0C"}}