{"cas_no": "620-67-7", "cn_name": "\u4e09\u5e9a\u9178\u7518\u6cb9\u916f", "en_name": ["Triheptanoin", "Heptanoic acid, 1,1\u2032,1\u2032\u2032-(1,2,3-propanetriyl) ester", "Heptanoin, tri-", "Heptanoic acid, 1,2,3-propanetriyl ester", "Glycerol triheptanoate", "Triheptanoin", "Trioenanthoin", "Triheptanoic glyceride", "Trienanthoin", "Glyceryl triheptanoate", "Dermofeel TC 7", "Lanol 37T", "Dojolvi"], "SMILES": "C(OC(CCCCCC)=O)(COC(CCCCCC)=O)COC(CCCCCC)=O", "physical_data": {"Molecular Weight": "428.60", "Molecular Formula": "C24H44O6", "Boiling Point": "178 \u00b0C @ Press: 0.3 Torr", "Density": "0.904 g/cm\u00b3 @ Temp: 100 \u00b0C"}}