{"cas_no": "620-20-2", "cn_name": "\u95f4\u6c2f\u6c2f\u82c4", "en_name": ["3-Chlorobenzyl chloride", "Benzene, 1-chloro-3-(chloromethyl)-", "Toluene, m,\u03b1-dichloro-", "1-Chloro-3-(chloromethyl)benzene", "m-Chlorobenzyl chloride", "m,\u03b1-Dichlorotoluene", "\u03b1,3-Dichlorotoluene", "3-Chlorobenzyl chloride", "\u03b1,m-Dichlorotoluene", "m-Chlorophenylmethyl chloride", "NSC 76577"], "SMILES": "C(Cl)C1=CC(Cl)=CC=C1", "physical_data": {"Molecular Weight": "161.03", "Molecular Formula": "C7H6Cl2", "Boiling Point": "216 \u00b0C", "Melting Point": "32-34 \u00b0C", "Density": "1.262 g/cm\u00b3 @ Temp: 20 \u00b0C"}}