{"cas_no": "620-61-1", "cn_name": "\u786b\u9178\u831b\u83ea\u7d20", "en_name": ["Hyoscyamine sulfate", "Benzeneacetic acid, \u03b1-(hydroxymethyl)-, (3-endo)-8-methyl-8-azabicyclo[3.2.1]oct-3-yl ester, (\u03b1S)-, sulfate (2:1)", "1\u03b1H,5\u03b1H-Tropan-3\u03b1-ol, (-)-tropate (ester), sulfate (2:1) (salt)", "Benzeneacetic acid, \u03b1-(hydroxymethyl)-, 8-methyl-8-azabicyclo[3.2.1]oct-3-yl ester, [3(S)-endo]-, sulfate (2:1) (salt)", "Benzeneacetic acid, \u03b1-(hydroxymethyl)-, (3-endo)-8-methyl-8-azabicyclo[3.2.1]oct-3-yl ester, (\u03b1S)-, sulfate (2:1) (salt)", "Hyoscyamine sulfate (2:1) (salt)", "Hyoscyamine sulfate", "Levsinex", "Levsin sulfate", "Egazil", "Hyoscyamine sulfate (2:1)", "Levsin", "NuLev"], "SMILES": "O(C(C(CO)C1=CC=CC=C1)=O)C2CC3N(C)C(C2)CC3.S(=O)(=O)(O)O", "physical_data": {"Molecular Weight": "", "Molecular Formula": "C17H23NO3.<sup>1</sup>/2H2O4S", "Melting Point": "205-206 \u00b0C"}}