{"cas_no": "620-79-1", "cn_name": "2-\u82c4\u57fa\u4e59\u9170\u4e59\u9178\u4e59\u916f", "en_name": ["Ethyl 2-benzylacetoacetate", "Benzenepropanoic acid, \u03b1-acetyl-, ethyl ester", "Hydrocinnamic acid, \u03b1-acetyl-, ethyl ester", "Ethyl 2-acetyl-3-phenylpropionate", "Ethyl \u03b1-acetylhydrocinnamate", "Ethyl 2-benzylacetoacetate", "Ethyl \u03b1-benzylacetoacetate", "Ethyl 2-benzylacetylacetate", "Ethyl 2-benzyl-3-oxobutanoate", "Ethyl 2-acetyl-3-phenylpropanoate", "Ethyl 2-benzyl-3-oxobutyrate", "\u03b1-Acetylbenzenepropanoic acid ethyl ester", "NSC 60581", "2-Benzyl-3-oxobutanoic acid ethyl ester", "2-Benzyl-3-oxo-butyric acid ethyl ester"], "SMILES": "C(C(C(OCC)=O)C(C)=O)C1=CC=CC=C1", "physical_data": {"Molecular Weight": "220.26", "Molecular Formula": "C13H16O3", "Boiling Point": "276 \u00b0C"}}