{"cas_no": "620-24-6", "cn_name": "3-\u7f9f\u57fa\u82ef\u7532\u9187", "en_name": ["3-Hydroxybenzyl alcohol", "Benzenemethanol, 3-hydroxy-", "Benzyl alcohol, m-hydroxy-", "3-Hydroxybenzenemethanol", "KSD 2405", "3-Hydroxybenzyl alcohol", "m-Hydroxybenzyl alcohol", "3-(Hydroxymethyl)phenol", "NSC 60735"], "SMILES": "C(O)C1=CC(O)=CC=C1", "physical_data": {"Molecular Weight": "124.14", "Molecular Formula": "C7H8O2", "Melting Point": "73 \u00b0C"}}