{"cas_no": "620-23-5", "cn_name": "3-\u7532\u57fa\u82ef\u7532\u919b", "en_name": ["3-Methylbenzaldehyde", "Benzaldehyde, 3-methyl-", "m-Tolualdehyde", "3-Methylbenzaldehyde", "m-Methylbenzaldehyde", "m-Formyltoluene", "3-Tolualdehyde", "NSC 1244", "NSC 89859", "3-Methylphenylcarboxaldehyde"], "SMILES": "C(=O)C1=CC(C)=CC=C1", "physical_data": {"Molecular Weight": "120.15", "Molecular Formula": "C8H8O", "Boiling Point": "199 \u00b0C", "Melting Point": "&lt;25 \u00b0C"}}