{"cas_no": "620-73-5", "cn_name": "\u6c2f\u4e59\u9178\u82ef\u916f", "en_name": ["Acetic acid, 2-chloro-, phenyl ester", "Acetic acid, 2-chloro-, phenyl ester", "Acetic acid, chloro-, phenyl ester", "Phenyl chloroacetate", "NSC 166432", "Phenyl 2-chloroacetate"], "SMILES": "O(C(CCl)=O)C1=CC=CC=C1", "physical_data": {"Molecular Weight": "170.59", "Molecular Formula": "C8H7ClO2", "Boiling Point": "232.5 \u00b0C", "Melting Point": "44.5 \u00b0C"}}