{"cas_no": "620-84-8", "cn_name": "4-\u7532\u57fa-N-\u82ef\u57fa\u82ef\u80fa", "en_name": ["4-Methyldiphenylamine", "Benzenamine, 4-methyl-N-phenyl-", "p-Toluidine, N-phenyl-", "4-Methyl-N-phenylbenzenamine", "N-Phenyl-p-toluidine", "4-Methyldiphenylamine", "Phenyl-p-tolylamine", "N-p-Tolylaniline", "p-Methyldiphenylamine", "N-Phenyl-4-methylaniline", "(4-Methylphenyl)phenylamine", "N-4-Tolylaniline", "4-Methyl-N-phenylaniline", "N-(4-Methylphenyl)-N-phenylamine", "N-Phenyl-p-toluamine"], "SMILES": "N(C1=CC=C(C)C=C1)C2=CC=CC=C2", "physical_data": {"Molecular Weight": "183.25", "Molecular Formula": "C13H13N", "Boiling Point": "318 \u00b0C @ Press: 727 Torr", "Melting Point": "88-89 \u00b0C"}}