{"cas_no": "620-05-3", "cn_name": "\u82c4\u57fa\u7898", "en_name": ["Benzyl iodide", "Benzene, (iodomethyl)-", "Toluene, \u03b1-iodo-", "(Iodomethyl)benzene", "Benzyl iodide", "\u03b1-Iodotoluene", "Iodophenylmethane"], "SMILES": "C(I)C1=CC=CC=C1", "physical_data": {"Molecular Weight": "218.04", "Molecular Formula": "C7H7I", "Boiling Point": "93 \u00b0C", "Melting Point": "24.5 \u00b0C", "Density": "1.7429 g/cm\u00b3 @ Temp: 20 \u00b0C"}}