{"cas_no": "620-19-9", "cn_name": "3-\u7532\u57fa\u82c4\u57fa\u6c2f", "en_name": ["3-Methylbenzyl chloride", "Benzene, 1-(chloromethyl)-3-methyl-", "m-Xylene, \u03b1-chloro-", "1-(Chloromethyl)-3-methylbenzene", "m-Xylyl chloride", "m-Xylyl-\u03b1-chloride", "\u03b1-Chloro-m-xylene", "m-(Chloromethyl)toluene", "m-Methylbenzyl chloride", "3-Methylbenzyl chloride", "3-(Chloromethyl)toluene", "3-Methylphenylmethyl chloride", "1-Chloromethyl-3-methylbenzene", "1-Methyl-3-chloromethylbenzene", "NSC 76592"], "SMILES": "C(Cl)C1=CC(C)=CC=C1", "physical_data": {"Molecular Weight": "140.61", "Molecular Formula": "C8H9Cl", "Boiling Point": "195.5 \u00b0C", "Melting Point": "48-49 \u00b0C", "Density": "1.072 g/cm\u00b3 @ Temp: 20 \u00b0C"}}