{"cas_no": "620-80-4", "cn_name": "2-\u82ef\u4e9a\u7532\u57fa\u4e59\u9170\u4e59\u9178\u4e59\u916f", "en_name": ["Ethyl 3-oxo-2-(phenylmethylene)butanoate", "Butanoic acid, 3-oxo-2-(phenylmethylene)-, ethyl ester", "Cinnamic acid, \u03b1-acetyl-, ethyl ester", "Ethyl 3-oxo-2-(phenylmethylene)butanoate", "Ethyl 2-benzylideneacetoacetate", "Ethyl \u03b1-acetylcinnamate", "Ethyl benzylideneacetoacetate", "3-Oxo-2-(phenylmethylene)butanoic acid ethyl ester", "NSC 68527", "Ethyl 2-(acetyl)-3-phenyl-2-propenoate", "Pentanoic acid, 4-oxo-2-(phenylmethylene)-, ethyl ester"], "SMILES": "C(=C(C(OCC)=O)C(C)=O)C1=CC=CC=C1", "physical_data": {"Molecular Weight": "218.25", "Molecular Formula": "C13H14O3", "Boiling Point": "296 \u00b0C", "Melting Point": "60.5 \u00b0C", "Density": "1.5590 g/cm\u00b3 @ Temp: 17 \u00b0C"}}