{"cas_no": "620-02-0", "cn_name": "5-\u7532\u57fa\u544b\u5583\u919b", "en_name": ["5-Methylfurfural", "2-Furancarboxaldehyde, 5-methyl-", "2-Furaldehyde, 5-methyl-", "5-Methyl-2-furancarboxaldehyde", "5-Methylfurfural", "5-Methylfurfuraldehyde", "5-Methyl-2-furfural", "2-Methyl-5-formylfuran", "5-Methyl-2-furaldehyde", "2-Formyl-5-methylfuran", "5-Methylfuran-2-carbaldehyde", "5-Methyl-2-furfuraldehyde", "5-Methylfuran-2-al", "5-Methylfuran-2-aldehyde", "5-Methyl-2-furfurylaldehyde", "2-Methyl-5-furaldehyde", "2-Formyl-5-methyltetrahydrofuran"], "SMILES": "C(=O)C=1OC(C)=CC1", "physical_data": {"Molecular Weight": "110.11", "Molecular Formula": "C6H6O2", "Boiling Point": "187 \u00b0C", "Melting Point": "171 \u00b0C", "Density": "1.1012 g/cm\u00b3 @ Temp: 20 \u00b0C"}}