{"cas_no": "620-88-2", "cn_name": "\u5bf9\u785d\u57fa\u4e8c\u82ef\u919a", "en_name": ["1-Nitro-4-phenoxybenzene", "Benzene, 1-nitro-4-phenoxy-", "Ether, p-nitrophenyl phenyl", "1-Nitro-4-phenoxybenzene", "p-Nitrodiphenyl ether", "p-Nitrophenyl phenyl ether", "4-Nitrodiphenyl ether", "4-Nitrophenyl phenyl ether", "4-Phenoxynitrobenzene", "RH 0211", "NSC 5420", "NSC 57080", "4-Phenoxy-1-nitrobenzene", "1-Phenoxy-4-nitrobenzene"], "SMILES": "O(C1=CC=C(N(=O)=O)C=C1)C2=CC=CC=C2", "physical_data": {"Molecular Weight": "215.20", "Molecular Formula": "C12H9NO3", "Boiling Point": "320 \u00b0C", "Melting Point": "61 \u00b0C"}}