{"cas_no": "620-71-3", "cn_name": "N-\u82ef\u4e19\u91af\u80fa", "en_name": ["N-Phenylpropanamide", "Propanamide, N-phenyl-", "Propionanilide", "N-Phenylpropanamide", "N-Phenylpropionamide", "R 50977", "NSC 58952"], "SMILES": "N(C(CC)=O)C1=CC=CC=C1", "physical_data": {"Molecular Weight": "149.19", "Molecular Formula": "C9H11NO", "Boiling Point": "222.2 \u00b0C", "Melting Point": "105.5 \u00b0C"}}