{"cas_no": "620-42-8", "cn_name": "\u4e9a\u78f7\u9178\u4e09\u5bf9\u7532\u82ef\u916f", "en_name": ["Phosphorous acid, tris(4-methylphenyl) ester", "Phosphorous acid, tris(4-methylphenyl) ester", "Phosphorous acid, tri-p-tolyl ester", "p-Tolyl phosphite ((C7H7O)3P)", "p-Tolyl phosphite", "Tri-p-tolyl phosphite", "Tri-p-cresyl phosphite", "Tris(p-methylphenyl) phosphite", "Tris(p-tolyl) phosphite", "Tris(4-methylphenyl) phosphite", "Tris(4-tolyl) phosphite", "NSC 4054", "Tris(4-methylphenoxy)phosphine"], "SMILES": "P(OC1=CC=C(C)C=C1)(OC2=CC=C(C)C=C2)OC3=CC=C(C)C=C3", "physical_data": {"Molecular Weight": "352.36", "Molecular Formula": "C21H21O3P", "Boiling Point": "285 \u00b0C @ Press: 11 Torr", "Melting Point": "50.6-51.9 \u00b0C", "Density": "1.128 g/cm\u00b3 @ Temp: 20 \u00b0C"}}