{"cas_no": "6200-60-8", "cn_name": "\u54aa\u5511[1,2-A]\u5421\u5576-3-\u7532\u9178", "en_name": ["Imidazo[1,2-a]pyridine-3-carboxylic acid", "Imidazo[1,2-a]pyridine-3-carboxylic acid", "NSC 305198", "NSC 305199"], "SMILES": "C(O)(=O)C=1N2C(=NC1)C=CC=C2", "physical_data": {"Molecular Weight": "162.15", "Molecular Formula": "C8H6N2O2", "Melting Point": "244-245 \u00b0C (decomp)"}}