{"cas_no": "62009-47-6", "cn_name": "2-\u6c28\u57fa\u4e19\u4e8c\u9170\u80fa", "en_name": ["2-Aminopropanediamide", "Propanediamide, 2-amino-", "Malonamide, 2-amino-", "2-Aminopropanediamide", "Aminomalonamide", "NSC 75208", "2-Aminomalonamide"], "SMILES": "C(C(N)=O)(C(N)=O)N", "physical_data": {"Molecular Weight": "117.11", "Molecular Formula": "C3H7N3O2", "Melting Point": "196 \u00b0C"}}