{"cas_no": "62013-04-1", "cn_name": "\u5730\u7ea2\u9709\u7d20", "en_name": ["Dirithromycin", "4,16-Dioxa-14-azabicyclo[11.3.1]heptadecan-5-one, 7-[(2,6-dideoxy-3-C-methyl-3-O-methyl-\u03b1-L-ribo-hexopyranosyl)oxy]-3-ethyl-2,10-dihydroxy-15-[(2-methoxyethoxy)methyl]-2,6,8,10,12,17-hexamethyl-9-[[3,4,6-trideoxy-3-(dimethylamino)-\u03b2-D-xylo-hexopyranosyl]oxy]-, (1R,2R,3R,6R,7S,8S,9R,10R,12R,13S,15R,17S)-", "Erythromycin, 9-deoxo-11-deoxy-9,11-[imino[2-(2-methoxyethoxy)ethylidene]oxy]-, [9S(R)]-", "4,16-Dioxa-14-azabicyclo[11.3.1]heptadecane, erythromycin deriv.", "(1R,2R,3R,6R,7S,8S,9R,10R,12R,13S,15R,17S)-7-[(2,6-Dideoxy-3-C-methyl-3-O-methyl-\u03b1-L-ribo-hexopyranosyl)oxy]-3-ethyl-2,10-dihydroxy-15-[(2-methoxyethoxy)methyl]-2,6,8,10,12,17-hexamethyl-9-[[3,4,6-trideoxy-3-(dimethylamino)-\u03b2-D-xylo-hexopyranosyl]oxy]-4,16-dioxa-14-azabicyclo[11.3.1]heptadecan-5-one", "Antibiotic AS-E 136", "Dirithromycin", "LY 237216", "ASE 136", "Dirythromycin", "KT 237216", "Dynabac", "Valodin", "Noriclan", "Nortron"], "SMILES": "CC1C2OC(COCCOC)NC1C(C)CC(C)(O)C(OC3C(O)C(N(C)C)CC(C)O3)C(C)C(OC4CC(OC)(C)C(O)C(C)O4)C(C)C(=O)OC(CC)C2(C)O", "physical_data": {"Molecular Weight": "835.07", "Molecular Formula": "C42H78N2O14", "Melting Point": "186-189 \u00b0C (decomp)"}}