{"cas_no": "62012-15-1", "cn_name": "1-(3-\u7f9f\u4e19\u57fa)-2-\u5421\u54af\u70f7\u916e", "en_name": ["1-(3-Hydroxypropyl)-2-pyrrolidinone", "2-Pyrrolidinone, 1-(3-hydroxypropyl)-", "1-(3-Hydroxypropyl)-2-pyrrolidinone", "1-(3-Hydroxypropyl)-2-pyrrolidone", "1-(3-Hydroxy-1-propyl)-2-pyrrolidone", "1-(3-Hydroxypropyl)-2-pyrrolidineone", "3-(2-Oxopyrrolidin-1-yl)propanol"], "SMILES": "C(CCO)N1C(=O)CCC1", "physical_data": {"Molecular Weight": "143.18", "Molecular Formula": "C7H13NO2", "Boiling Point": "138-140 \u00b0C @ Press: 1 Torr"}}