{"cas_no": "62014-87-3", "cn_name": "4,2',4'-\u4e09\u7f9f\u57fa-6'-\u7532\u6c27\u57fa\u67e5\u8033\u916e", "en_name": ["Helichrysetin", "2-Propen-1-one, 1-(2,4-dihydroxy-6-methoxyphenyl)-3-(4-hydroxyphenyl)-, (2E)-", "2-Propen-1-one, 1-(2,4-dihydroxy-6-methoxyphenyl)-3-(4-hydroxyphenyl)-, (E)-", "(2E)-1-(2,4-Dihydroxy-6-methoxyphenyl)-3-(4-hydroxyphenyl)-2-propen-1-one", "Helichrysetin", "4,2\u2032,4\u2032-Trihydroxy-6\u2032-methoxychalcone"], "SMILES": "C(C=CC1=CC=C(O)C=C1)(=O)C2=C(OC)C=C(O)C=C2O", "physical_data": {"Molecular Weight": "286.28", "Molecular Formula": "C16H14O5", "Melting Point": "220 \u00b0C (decomp)"}}