{"cas_no": "6201-65-6", "cn_name": "2-\u6c2f-1,3-\u82ef\u4e8c\u915a", "en_name": ["2-Chlororesorcinol", "1,3-Benzenediol, 2-chloro-", "Resorcinol, 2-chloro-", "2-Chloro-1,3-benzenediol", "2-Chlororesorcinol", "2-Chloro-1,3-dihydroxybenzene", "2-Chlororesorcin"], "SMILES": "ClC1=C(O)C=CC=C1O", "physical_data": {"Molecular Weight": "144.56", "Molecular Formula": "C6H5ClO2", "Melting Point": "97-98 \u00b0C"}}