{"cas_no": "62020-54-6", "cn_name": "5 -\u6c28\u57fa-3(2H)-\u5f02\u567b\u5511\u5549\u916e", "en_name": ["5-(Aminomethyl)-3(2H)-isothiazolone", "3(2H)-Isothiazolone, 5-(aminomethyl)-", "5-(Aminomethyl)-3(2H)-isothiazolone", "Thiomuscimol"], "SMILES": "C(N)C1=CC(=O)NS1", "physical_data": {"Molecular Weight": "130.17", "Molecular Formula": "C4H6N2OS", "Melting Point": "140 \u00b0C (decomp)"}}