{"cas_no": "6202-23-9", "cn_name": "\u76d0\u9178\u73af\u82ef\u624e\u6797", "en_name": ["Cyclobenzaprine hydrochloride", "1-Propanamine, 3-(5H-dibenzo[a,d]cyclohepten-5-ylidene)-N,N-dimethyl-, hydrochloride (1:1)", "5H-Dibenzo[a,d]cycloheptene-\u03945,\u03b3-propylamine, N,N-dimethyl-, hydrochloride", "1-Propanamine, 3-(5H-dibenzo[a,d]cyclohepten-5-ylidene)-N,N-dimethyl-, hydrochloride", "Proheptatriene hydrochloride", "MK 130 hydrochloride", "10,11\u03b4-Amitriptyline hydrochloride", "Cyclobenzaprine hydrochloride", "Lisseril", "Flexeril", "Tensodox", "Yurelax", "Benzamin", "Flexiban", "Miosan", "Multi-Relax", "Tonmya", "TNX-102 SL"], "SMILES": "C(CCN(C)C)=C1C=2C(C=CC=3C1=CC=CC3)=CC=CC2.Cl", "physical_data": {"Molecular Weight": "", "Molecular Formula": "C20H21N.ClH", "Melting Point": "216-218 \u00b0C"}}