{"cas_no": "62025-49-4", "cn_name": "\u4eba\u53c2\u7682\u82f7 F2", "en_name": ["Ginsenoside F2", "\u03b2-D-Glucopyranoside, (3\u03b2,12\u03b2)-12-hydroxydammar-24-ene-3,20-diyl bis-", "Dammarane, \u03b2-D-glucopyranoside deriv.", "(3\u03b2,12\u03b2)-12-Hydroxydammar-24-ene-3,20-diyl bis-\u03b2-D-glucopyranoside", "Ginsenoside F2", "3-O-Glucosylginsenoside C K"], "SMILES": "CC12C(C3(C)C(CC1)C(C)(C)C(OC4OC(CO)C(O)C(O)C4O)CC3)CC(O)C5C2(C)CCC5C(OC6OC(CO)C(O)C(O)C6O)(CCC=C(C)C)C", "physical_data": {"Molecular Weight": "785.01", "Molecular Formula": "C42H72O13", "Melting Point": "204-206 \u00b0C"}}