{"cas_no": "6203-18-5", "cn_name": "4-\u4e8c\u7532\u57fa\u6c28\u57fa\u8089\u6842\u919b", "en_name": ["4-(Dimethylamino)cinnamaldehyde", "2-Propenal, 3-[4-(dimethylamino)phenyl]-", "Cinnamaldehyde, p-(dimethylamino)-", "3-[4-(Dimethylamino)phenyl]-2-propenal", "p-(Dimethylamino)cinnamaldehyde", "p-(Dimethylamino)cinnamic aldehyde", "4-(Dimethylamino)cinnamaldehyde", "4-(N,N-Dimethylamino)cinnamaldehyde", "p-(N,N-Dimethylamino)cinnamaldehyde", "3-(4-Dimethylaminophenyl)propenal", "4-Dimethylaminozimtaldehyde", "NSC 62138", "4-Dimethylaminocinnamic aldehyde", "p-Dimethylaminocinnamaldehyde", "4-Dimethylaminocinnamaldehyde", "D 0648"], "SMILES": "N(C)(C)C1=CC=C(C=CC=O)C=C1", "physical_data": {"Molecular Weight": "175.23", "Molecular Formula": "C11H13NO", "Melting Point": "133.7-135 \u00b0C"}}