{"cas_no": "62037-46-1", "cn_name": "3-2-\u7f9f\u57fa\u4e19\u80fa\u76d0", "en_name": ["2-Propanol, 1-amino-3-chloro-, hydrochloride (1:1)", "2-Propanol, 1-amino-3-chloro-, hydrochloride (1:1)", "2-Propanol, 1-amino-3-chloro-, hydrochloride", "3-Chloro-2-hydroxypropylamine hydrochloride", "3-Chloro-2-hydroxypropylammonium chloride", "3-Chloro-2-hydroxy-1-propanamine hydrochloride", "1-Amino-3-chloro-2-propanol hydrochloride", "(\u00b1)-1-Amino-3-chloro-2-propanol hydrochloride", "dl-1-Amino-3-chloro-2-propanol-hydrochloride"], "SMILES": "C(CCl)(CN)O.Cl", "physical_data": {"Molecular Weight": "", "Molecular Formula": "C3H8ClNO.ClH", "Melting Point": "181-183 \u00b0C (decomp)"}}