{"cas_no": "6205-69-2", "cn_name": "2-\u4e59\u9170\u6c28\u57fa-3,4,6-\u4e09-O-\u4e59\u9170\u57fa-2-\u8131\u6c27-\u0392-D-\u5421\u5583\u8461\u8404\u7cd6\u9170\u57fa\u53e0\u6c2e\u5316\u7269", "en_name": ["\u03b2-D-Glucopyranosyl azide, 2-(acetylamino)-2-deoxy-, 3,4,6-triacetate", "\u03b2-D-Glucopyranosyl azide, 2-(acetylamino)-2-deoxy-, 3,4,6-triacetate", "Glucopyranosyl azide, 2-acetamido-2-deoxy-, 3,4,6-triacetate, \u03b2-D-", "Glucopyranosyl azide, 2-acetamido-2-deoxy-, triacetate", "2-Acetamido-2-deoxy-3,4,6-tri-O-acetyl-\u03b2-D-glucopyranosyl azide", "2-Acetamido-3,4,6-tri-O-acetyl-2-deoxy-\u03b2-D-glucopyranosyl azide"], "SMILES": "O(C(C)=O)C1C(OC(C)=O)C(COC(C)=O)OC(N=[N+]=[N-])C1NC(C)=O", "physical_data": {"Molecular Weight": "", "Molecular Formula": "C14H20N4O8", "Melting Point": "160-161 \u00b0C (decomp)"}}