{"cas_no": "62054-49-3", "cn_name": "3-\u7532\u9170-2-\u4e01\u70ef\u9178\u4e59\u916f", "en_name": ["Ethyl (2E)-3-methyl-4-oxo-2-butenoate", "2-Butenoic acid, 3-methyl-4-oxo-, ethyl ester, (2E)-", "2-Butenoic acid, 3-methyl-4-oxo-, ethyl ester, (E)-", "Fumaraldehydic acid, 3-methyl-, ethyl ester", "Ethyl (2E)-3-methyl-4-oxo-2-butenoate", "Ethyl (E)-3-methyl-4-oxocrotonate", "Ethyl trans-3-methyl-4-oxo-2-butenoate", "Ethyl trans-3-methyl-4-oxocrotonate", "Ethyl (E)-4-oxo-3-methyl-2-butenoate", "Ethyl (E)-3-methyl-4-oxo-2-butenoate", "Ethyl (2E)-3-methyl-4-oxobut-2-enoate", "Ethyl (E)-3-methyl-4-oxo-2-butenoate", "Ethyl trans-3-methyl-4-oxo-2-butenoate"], "SMILES": "C(C(OCC)=O)=C(C=O)C", "physical_data": {"Molecular Weight": "142.15", "Molecular Formula": "C7H10O3", "Boiling Point": "80 \u00b0C @ Press: 2 Torr"}}