{"cas_no": "62067-45-2", "cn_name": "\u5f02\u4e19\u57fa\u73af\u5df1\u57fa\u7532\u9178", "en_name": ["4-(1-Methylethyl)cyclohexanecarboxylic acid", "Cyclohexanecarboxylic acid, 4-(1-methylethyl)-", "Cyclohexanecarboxylic acid, 4-isopropyl-", "4-(1-Methylethyl)cyclohexanecarboxylic acid", "4-Isopropylcyclohexanecarboxylic acid", "NSC 28951"], "SMILES": "C(C)(C)C1CCC(C(O)=O)CC1", "physical_data": {"Molecular Weight": "170.25", "Molecular Formula": "C10H18O2", "Boiling Point": "133 \u00b0C @ Press: 2.5 Torr", "Melting Point": "94 \u00b0C"}}