{"cas_no": "620621-48-9", "cn_name": "2-\u6c2f-5-\u7898\u82ef\u7532\u9178\u7532\u916f", "en_name": ["Benzoic acid, 2-chloro-5-iodo-, methyl ester", "Benzoic acid, 2-chloro-5-iodo-, methyl ester", "2-Chloro-5-iodobenzoic acid methyl ester", "Methyl 2-chloro-5-iodobenzoate"], "SMILES": "C(OC)(=O)C1=C(Cl)C=CC(I)=C1", "physical_data": {"Molecular Weight": "296.49", "Molecular Formula": "C8H6ClIO2", "Melting Point": "40-42 \u00b0C"}}