{"cas_no": "62089-34-3", "cn_name": "3-\u7532\u6c27\u57fa-5-\u7532\u57fa\u82ef\u7532\u9178", "en_name": ["3-Methoxy-5-methylbenzoic acid", "Benzoic acid, 3-methoxy-5-methyl-", "m-Anisic acid, 5-methyl-", "3-Methoxy-5-methylbenzoic acid", "3-Methyl-5-methoxybenzoic acid", "NSC 175905"], "SMILES": "C(O)(=O)C1=CC(OC)=CC(C)=C1", "physical_data": {"Molecular Weight": "166.17", "Molecular Formula": "C9H10O3", "Melting Point": "130-131 \u00b0C"}}