{"cas_no": "62096-63-3", "cn_name": "2-\u6c28\u57fa-4-\u4e59\u6c27\u57fa-6-\u7532\u80fa\u57fa-1,3,5-\u4e09\u55ea", "en_name": ["6-Ethoxy-N2-methyl-1,3,5-triazine-2,4-diamine", "1,3,5-Triazine-2,4-diamine, 6-ethoxy-N2-methyl-", "1,3,5-Triazine-2,4-diamine, 6-ethoxy-N-methyl-", "6-Ethoxy-N2-methyl-1,3,5-triazine-2,4-diamine", "2-Amino-4-ethoxy-6-(methylamino)-1,3,5-triazine"], "SMILES": "O(CC)C=1N=C(NC)N=C(N)N1", "physical_data": {"Molecular Weight": "169.18", "Molecular Formula": "C6H11N5O", "Melting Point": "171-172 \u00b0C"}}