{"cas_no": "621-72-7", "cn_name": "\u5730\u5df4\u5511", "en_name": ["Dibazole", "1H-Benzimidazole, 2-(phenylmethyl)-", "Benzimidazole, 2-benzyl-", "2-(Phenylmethyl)-1H-benzimidazole", "Bendazol", "2-Benzylbenzimidazole", "Dibasol", "Dibazol", "Dibazole", "Tromasedan", "Bendazole", "NSC 60020", "NSC 631632", "2-Benzyl-1H-benzimidazole", "2-Benzyl-1H-benzo[d]imidazole", "2-Benzyl-1H-1,3-benzodiazole", "2-Benzyl-1H-benzoimidazole"], "SMILES": "C(C=1NC=2C(N1)=CC=CC2)C3=CC=CC=C3", "physical_data": {"Molecular Weight": "208.26", "Molecular Formula": "C14H12N2", "Melting Point": "187 \u00b0C", "Density": "1.14 g/cm\u00b3 @ Temp: 298.15 \u00b0C"}}