{"cas_no": "621-61-4", "cn_name": "2-\u5341\u516b\u70f7\u9178\u5355\u7518\u6cb9\u916f", "en_name": ["2-Monostearin", "Octadecanoic acid, 2-hydroxy-1-(hydroxymethyl)ethyl ester", "Stearin, 2-mono-", "Glycerol \u03b2-monostearate", "2-Monostearin", "2-Monostearoylglycerol", "\u03b2-Glyceryl monostearate", "\u03b2-Monostearin", "Stearic acid \u03b2-monoglyceride", "2-Monooctadecanoylglycerol", "2-Stearoylglycerol", "1,3-Dihydroxypropan-2-yl stearate", "2-Stearoyl-rac-glycerol", "GMS", "GMS (antistatic agent)", "2-Glyceryl stearate"], "SMILES": "C(OC(CCCCCCCCCCCCCCCCC)=O)(CO)CO", "physical_data": {"Molecular Weight": "358.56", "Molecular Formula": "C21H42O4", "Melting Point": "74-75 \u00b0C"}}