{"cas_no": "621-51-2", "cn_name": "3-\u4e59\u6c27\u57fa\u82ef\u7532\u9178", "en_name": ["3-Ethoxybenzoic acid", "Benzoic acid, 3-ethoxy-", "Benzoic acid, m-ethoxy-", "3-Ethoxybenzoic acid", "m-Ethoxybenzoic acid"], "SMILES": "O(CC)C1=CC(C(O)=O)=CC=C1", "physical_data": {"Molecular Weight": "166.17", "Molecular Formula": "C9H10O3", "Melting Point": "137 \u00b0C"}}