{"cas_no": "621-23-8", "cn_name": "1,3,5-\u4e09\u7532\u6c27\u57fa\u82ef", "en_name": ["1,3,5-Trimethoxybenzene", "Benzene, 1,3,5-trimethoxy-", "1,3,5-Trimethoxybenzene", "Phloroglucinol trimethyl ether", "sym-Trimethoxybenzene", "NSC 90060", "2,4,6-Trimethoxybenzene"], "SMILES": "O(C)C1=CC(OC)=CC(OC)=C1", "physical_data": {"Molecular Weight": "168.19", "Molecular Formula": "C9H12O3", "Boiling Point": "255.5 \u00b0C", "Melting Point": "54.5 \u00b0C"}}