{"cas_no": "621-03-4", "cn_name": "N-\u82ef\u57fa-2-\u6c30\u4e59\u9170\u80fa", "en_name": ["2-Cyano-N-phenylacetamide", "Acetamide, 2-cyano-N-phenyl-", "Acetanilide, 2-cyano-", "2-Cyano-N-phenylacetamide", "Cyanoacetic acid anilide", "N-Phenylcyanoacetamide", "\u03b1-Cyanoacetanilide", "2-Cyanoacetanilide", "(Phenylcarbamoyl)acetonitrile", "UP 590-1", "NSC 6313", "N-Phenyl-2-cyanoacetamide"], "SMILES": "N(C(CC#N)=O)C1=CC=CC=C1", "physical_data": {"Molecular Weight": "160.17", "Molecular Formula": "C9H8N2O", "Melting Point": "198.5-200 \u00b0C"}}