{"cas_no": "621-88-5", "cn_name": "\u82ef\u6c27\u4e59\u9170\u80fa", "en_name": ["Phenoxyacetamide", "Acetamide, 2-phenoxy-", "2-Phenoxyacetamide", "Phenoxyacetamide", "NSC 1865"], "SMILES": "O(CC(N)=O)C1=CC=CC=C1", "physical_data": {"Molecular Weight": "151.16", "Molecular Formula": "C8H9NO2", "Melting Point": "102 \u00b0C"}}