{"cas_no": "621-36-3", "cn_name": "3-\u7532\u57fa\u82ef\u4e59\u9178", "en_name": ["(3-Methylphenyl)acetic acid", "Benzeneacetic acid, 3-methyl-", "Acetic acid, m-tolyl-", "3-Methylbenzeneacetic acid", "(3-Methylphenyl)acetic acid", "m-Tolylacetic acid", "m-Methylphenylacetic acid", "3-Tolylacetic acid", "NSC 76090", "2-(3-Methylphenyl)acetic acid", "m-Methylbenzeneacetic acid", "2-(m-Tolyl)acetic acid"], "SMILES": "C(C(O)=O)C1=CC(C)=CC=C1", "physical_data": {"Molecular Weight": "150.17", "Molecular Formula": "C9H10O2", "Boiling Point": "120-123 \u00b0C", "Melting Point": "62 \u00b0C"}}