{"cas_no": "621-87-4", "cn_name": "\u82ef\u6c27\u4e59\u916e", "en_name": ["1-Phenoxy-2-propanone", "2-Propanone, 1-phenoxy-", "2-Propanone, phenoxy-", "1-Phenoxy-2-propanone", "Phenoxyacetone", "1-Phenoxyacetone", "Phenoxymethyl methyl ketone", "Methyl phenoxymethyl ketone", "Phenoxy-2-propanone", "NSC 1876"], "SMILES": "O(CC(C)=O)C1=CC=CC=C1", "physical_data": {"Molecular Weight": "150.17", "Molecular Formula": "C9H10O2", "Boiling Point": "229.5 \u00b0C", "Density": "1.0903 g/cm\u00b3 @ Temp: 20 \u00b0C"}}