{"cas_no": "621-01-2", "cn_name": "1,3-\u4e8c\u5bf9\u7532\u82ef\u57fa-2-\u786b\u8132", "en_name": ["N,N\u2032-Bis(4-methylphenyl)thiourea", "Thiourea, N,N\u2032-bis(4-methylphenyl)-", "Carbanilide, 4,4\u2032-dimethylthio-", "N,N\u2032-Bis(4-methylphenyl)thiourea", "N,N\u2032-Di-p-tolylthiourea", "1,3-Di-p-tolylthiourea", "1,3-Di-p-tolylthiocarbamide", "N,N\u2032-Bis(p-tolyl)thiourea", "1,3-Bis(p-tolyl)thiourea", "1,3-Di-p-tolyl-2-thiourea", "1,3-Bis(4-methylphenyl)thiourea", "NSC 687", "sym-Di-p-tolylthiourea"], "SMILES": "N(C(NC1=CC=C(C)C=C1)=S)C2=CC=C(C)C=C2", "physical_data": {"Molecular Weight": "256.37", "Molecular Formula": "C15H16N2S", "Melting Point": "183 \u00b0C"}}