{"cas_no": "621-27-2", "cn_name": "3-\u6b63-\u4e19\u57fa\u82ef\u915a", "en_name": ["3-Propylphenol", "Phenol, 3-propyl-", "Phenol, m-propyl-", "3-Propylphenol", "m-Propylphenol", "3-n-Propylphenol", "NSC 46998"], "SMILES": "C(CC)C1=CC(O)=CC=C1", "physical_data": {"Molecular Weight": "136.19", "Molecular Formula": "C9H12O", "Boiling Point": "228 \u00b0C", "Melting Point": "26 \u00b0C", "Density": "0.9877 g/cm\u00b3 @ Temp: 20 \u00b0C"}}