{"cas_no": "621-82-9", "cn_name": "\u8089\u6842\u9178", "en_name": ["Cinnamic acid", "2-Propenoic acid, 3-phenyl-", "Cinnamic acid", "3-Phenyl-2-propenoic acid", "Phenylacrylic acid", "3-Phenylacrylic acid", "\u03b2-Phenylacrylic acid", "NSC 623441", "NSC 9189"], "SMILES": "C(=CC(O)=O)C1=CC=CC=C1", "physical_data": {"Molecular Weight": "148.16", "Molecular Formula": "C9H8O2", "Boiling Point": "300 \u00b0C", "Melting Point": "133 \u00b0C"}}