{"cas_no": "621-77-2", "cn_name": "\u4e09\u620a\u80fa", "en_name": ["Tripentylamine", "1-Pentanamine, N,N-dipentyl-", "Tripentylamine", "N,N-Dipentyl-1-pentanamine", "Triamylamine", "Tri-n-pentylamine", "Tri-n-amylamine", "NSC 406964"], "SMILES": "N(CCCCC)(CCCCC)CCCCC", "physical_data": {"Molecular Weight": "227.43", "Molecular Formula": "C15H33N", "Boiling Point": "242.5 \u00b0C"}}