{"cas_no": "621-56-7", "cn_name": "3-\u4e8c\u4e59\u80fa\u57fa-1,2-\u4e19\u4e8c\u9187", "en_name": ["3-(Diethylamino)-1,2-propanediol", "1,2-Propanediol, 3-(diethylamino)-", "3-(Diethylamino)-1,2-propanediol", "1-Diethylamino-2,3-propanediol", "NSC 97206", "1-(Diethylamino)propan-2,3-diol", "3-(Diethylamino)-1,2-propylene glycol"], "SMILES": "N(CC(CO)O)(CC)CC", "physical_data": {"Molecular Weight": "147.22", "Molecular Formula": "C7H17NO2", "Boiling Point": "130 \u00b0C @ Press: 25 Torr", "Density": "0.9762 g/cm\u00b3 @ Temp: 20 \u00b0C"}}