{"cas_no": "621-07-8", "cn_name": "N,N-\u4e8c\u82c4\u57fa\u7f9f\u80fa", "en_name": ["Dibenzylhydroxylamine", "Benzenemethanamine, N-hydroxy-N-(phenylmethyl)-", "Hydroxylamine, N,N-dibenzyl-", "N-Hydroxy-N-(phenylmethyl)benzenemethanamine", "N,N-Dibenzylhydroxylamine", "Dibenzylhydroxylamine", "NSC 93968", "N-Hydroxydibenzylamine"], "SMILES": "C(N(CC1=CC=CC=C1)O)C2=CC=CC=C2", "physical_data": {"Molecular Weight": "213.27", "Molecular Formula": "C14H15NO", "Melting Point": "123 \u00b0C"}}