{"cas_no": "621-37-4", "cn_name": "3-\u7f9f\u57fa\u82ef\u4e59\u9178", "en_name": ["3\u2032-Hydroxyphenylacetic acid", "Benzeneacetic acid, 3-hydroxy-", "Acetic acid, (m-hydroxyphenyl)-", "3-Hydroxybenzeneacetic acid", "(3-Hydroxyphenyl)acetic acid", "(m-Hydroxyphenyl)acetic acid", "2-(3-Hydroxyphenyl)acetic acid", "NSC 14360", "3\u2032-Hydroxyphenylacetic acid", "2-(3\u2032-Hydroxyphenyl)acetic acid"], "SMILES": "C(C(O)=O)C1=CC(O)=CC=C1", "physical_data": {"Molecular Weight": "152.15", "Molecular Formula": "C8H8O3", "Boiling Point": "190 \u00b0C", "Melting Point": "132 \u00b0C"}}