{"cas_no": "621-54-5", "cn_name": "3-(3-\u7f9f\u57fa\u82ef\u57fa)\u4e19\u9178", "en_name": ["3-(3\u2032-Hydroxyphenyl)propionic acid", "Benzenepropanoic acid, 3-hydroxy-", "Hydrocinnamic acid, m-hydroxy-", "3-Hydroxybenzenepropanoic acid", "m-Hydroxyphenylpropionic acid", "\u03b2-(m-Hydroxyphenyl)propionic acid", "3-(m-Hydroxyphenyl)propionic acid", "3-Hydroxyphenylpropionic acid", "\u03b2-(3-Hydroxyphenyl)propionic acid", "Dihydro-m-coumaric acid", "3-Hydroxydihydrocinnamic acid", "3-(3-Hydroxyphenyl)propionic acid", "3-(3-Hydroxyphenyl)propanoic acid", "NSC 33135", "NSC 39468", "3-(3\u2032-Hydroxyphenyl)propionic acid", "MFCD 00002598", "m-Hydroxybenzene propanoic acid"], "SMILES": "C(CC(O)=O)C1=CC(O)=CC=C1", "physical_data": {"Molecular Weight": "166.17", "Molecular Formula": "C9H10O3", "Melting Point": "99-100 \u00b0C"}}