{"cas_no": "621-76-1", "cn_name": "\u539f\u7532\u9178\u4e09\u4e19\u916f", "en_name": ["1,1\u2032,1\u2032\u2032-[Methylidynetris(oxy)]tris[propane]", "Propane, 1,1\u2032,1\u2032\u2032-[methylidynetris(oxy)]tris-", "Orthoformic acid, tripropyl ester", "1,1\u2032,1\u2032\u2032-[Methylidynetris(oxy)]tris[propane]", "Tripropyl orthoformate", "Tripropoxymethane", "Propyl orthoformate", "1-(Dipropoxymethoxy)propane"], "SMILES": "C(OCCC)(OCCC)OCCC", "physical_data": {"Molecular Weight": "190.28", "Molecular Formula": "C10H22O3", "Boiling Point": "191 \u00b0C", "Density": "0.8805 g/cm\u00b3 @ Temp: 20 \u00b0C"}}