{"cas_no": "621-63-6", "cn_name": "2,2-\u4e8c\u4e59\u6c27\u57fa\u4e59\u9187", "en_name": ["2,2-Diethoxyethanol", "Ethanol, 2,2-diethoxy-", "Glycolaldehyde, diethyl acetal", "2,2-Diethoxyethanol", "Hydroxyacetaldehyde diethyl acetal", "2-Hydroxyacetaldehyde diethyl acetal", "NSC 9255"], "SMILES": "C(OCC)(OCC)CO", "physical_data": {"Molecular Weight": "134.17", "Molecular Formula": "C6H14O3", "Boiling Point": "167 \u00b0C", "Density": "0.984 g/cm\u00b3 @ Temp: 22 \u00b0C"}}