{"cas_no": "621-44-3", "cn_name": "3-\u785d\u57fa-L-\u916a\u6c28\u9178", "en_name": ["Nitrotyrosine", "L-Tyrosine, 3-nitro-", "Tyrosine, 3-nitro-, L-", "3-Nitro-L-tyrosine", "NSC 37413", "3: PN: WO2005055810 PAGE: 59 claimed protein", "Nitrotyrosine", "(2S)-2-Amino-3-(4-hydroxy-3-nitrophenyl)propanoic acid", "(2S)-2-Azaniumyl-3-(4-hydroxy-3-nitrophenyl)propanoate"], "SMILES": "C(C(C(O)=O)N)C1=CC(N(=O)=O)=C(O)C=C1", "physical_data": {"Molecular Weight": "226.19", "Molecular Formula": "C9H10N2O5", "Melting Point": "215-217 \u00b0C (decomp)"}}