{"cas_no": "621-50-1", "cn_name": "\u95f4\u785d\u57fa\u82ef\u4e59\u8148", "en_name": ["(3-Nitrophenyl)acetonitrile", "Benzeneacetonitrile, 3-nitro-", "Acetonitrile, (m-nitrophenyl)-", "3-Nitrobenzeneacetonitrile", "(m-Nitrophenyl)acetonitrile", "(3-Nitrophenyl)acetonitrile", "3-Nitrobenzyl cyanide", "m-Nitrobenzyl cyanide", "NSC 91037", "2-(3-Nitrophenyl)acetonitrile"], "SMILES": "C(C#N)C1=CC(N(=O)=O)=CC=C1", "physical_data": {"Molecular Weight": "162.15", "Molecular Formula": "C8H6N2O2", "Boiling Point": "160-165 \u00b0C @ Press: 3 Torr", "Melting Point": "63 \u00b0C"}}