{"cas_no": "621-12-5", "cn_name": "1,4-\u4e8c\u82ef\u6c28\u8132", "en_name": ["N,2-Diphenylhydrazinecarboxamide", "Hydrazinecarboxamide, N,2-diphenyl-", "Semicarbazide, 1,4-diphenyl-", "N,2-Diphenylhydrazinecarboxamide", "1,4-Diphenylsemicarbazide", "N,N\u2032-Diphenyl semicarbazide", "NSC 6790", "1-Anilino-3-phenylurea", "1-Phenyl-3-(phenylamino)urea", "3-Phenyl-1-(phenylamino)urea"], "SMILES": "N(C(NNC1=CC=CC=C1)=O)C2=CC=CC=C2", "physical_data": {"Molecular Weight": "227.26", "Molecular Formula": "C13H13N3O", "Melting Point": "175-175.5 \u00b0C"}}