{"cas_no": "621-29-4", "cn_name": "\u5f02\u6c30\u9178\u95f4\u7532\u82ef\u916f", "en_name": ["3-Methylphenyl isocyanate", "Benzene, 1-isocyanato-3-methyl-", "Isocyanic acid, m-tolyl ester", "1-Isocyanato-3-methylbenzene", "3-Methylphenyl isocyanate", "m-Methylphenyl isocyanate", "m-Isocyanatotoluene", "3-Tolyl isocyanate", "m-Tolyl isocyanate"], "SMILES": "N(=C=O)C1=CC(C)=CC=C1", "physical_data": {"Molecular Weight": "133.15", "Molecular Formula": "C8H7NO", "Boiling Point": "187.2-187.4 \u00b0C", "Density": "1.0630 g/cm\u00b3 @ Temp: 20 \u00b0C"}}