{"cas_no": "621-34-1", "cn_name": "3-\u4e59\u6c27\u57fa\u82ef\u915a", "en_name": ["3-Ethoxyphenol", "Phenol, 3-ethoxy-", "Phenol, m-ethoxy-", "3-Ethoxyphenol", "Resorcinol monoethyl ether", "m-Ethoxyphenol", "NSC 4875"], "SMILES": "O(CC)C1=CC(O)=CC=C1", "physical_data": {"Molecular Weight": "138.16", "Molecular Formula": "C8H10O2", "Boiling Point": "132-138 \u00b0C @ Press: 11 Torr"}}