{"cas_no": "621-90-9", "cn_name": "\u7532\u6c28\u57fa\u5076\u6c2e\u82ef", "en_name": ["N-Methyl-4-(2-phenyldiazenyl)benzenamine", "Benzenamine, N-methyl-4-(2-phenyldiazenyl)-", "Aniline, N-methyl-p-(phenylazo)-", "Benzenamine, N-methyl-4-(phenylazo)-", "N-Methyl-4-(2-phenyldiazenyl)benzenamine", "MAB", "N-Methyl-4-aminoazobenzene", "4-(Methylamino)azobenzene", "p-(Methylamino)azobenzene", "p-(Phenylazo)-N-methylaniline", "N-Methyl-4-(phenylazo)aniline"], "SMILES": "N(=NC1=CC=CC=C1)C2=CC=C(NC)C=C2", "physical_data": {"Molecular Weight": "211.26", "Molecular Formula": "C13H13N3", "Boiling Point": "143-144 \u00b0C @ Press: 1 x 10<sup>-5</sup> Torr", "Melting Point": "89-90 \u00b0C"}}