{"cas_no": "621-52-3", "cn_name": "3-\u785d\u57fa\u82ef\u4e59\u919a", "en_name": ["1-Ethoxy-3-nitrobenzene", "Benzene, 1-ethoxy-3-nitro-", "Phenetole, m-nitro-", "1-Ethoxy-3-nitrobenzene", "m-Nitrophenetole", "m-Ethoxynitrobenzene", "m-Nitrophenyl ethyl ether", "NSC 5405", "Ethyl 3-nitrophenyl ether", "3-Ethoxynitrobenzene"], "SMILES": "O(CC)C1=CC(N(=O)=O)=CC=C1", "physical_data": {"Molecular Weight": "167.16", "Molecular Formula": "C8H9NO3", "Boiling Point": "264 \u00b0C", "Melting Point": "36 \u00b0C"}}