{"cas_no": "621-62-5", "cn_name": "\u6c2f\u4e59\u919b\u7f29\u4e8c\u4e59\u9187", "en_name": ["2-Chloro-1,1-diethoxyethane", "Ethane, 2-chloro-1,1-diethoxy-", "Acetaldehyde, chloro-, diethyl acetal", "2-Chloro-1,1-diethoxyethane", "Monochloroacetaldehyde diethyl acetal", "Diethoxyethyl chloride", "2-Chloroacetaldehyde diethyl acetal", "1-Chloro-2,2-diethoxyethane", "Chloroacetaldehyde diethyl acetal", "Chloroethanal diethyl acetal", "NSC 8436"], "SMILES": "C(OCC)(OCC)CCl", "physical_data": {"Molecular Weight": "152.62", "Molecular Formula": "C6H13ClO2", "Boiling Point": "157.4 \u00b0C", "Density": "1.0172 g/cm\u00b3 @ Temp: 20 \u00b0C"}}