{"cas_no": "621-91-0", "cn_name": "4-\u82ef\u4e8c\u915a\u4e8c\u82c4\u919a", "en_name": ["Hydroquinone dibenzyl ether", "Benzene, 1,4-bis(phenylmethoxy)-", "Benzene, p-bis(benzyloxy)-", "1,4-Bis(phenylmethoxy)benzene", "Hydroquinone dibenzyl ether", "p-Di(benzyloxy)benzene", "1,4-Di(benzyloxy)benzene", "p-Bis(benzyloxy)benzene", "p-Hydroxyphenol dibenzyl ether", "NSC 2206", "1,4-Bis(benzyloxy)benzene", "TS 425"], "SMILES": "O(CC1=CC=CC=C1)C2=CC=C(OCC3=CC=CC=C3)C=C2", "physical_data": {"Molecular Weight": "290.36", "Molecular Formula": "C20H18O2", "Melting Point": "128 \u00b0C"}}