{"cas_no": "621-84-1", "cn_name": "\u6c28\u57fa\u7532\u9178\u82c4\u916f", "en_name": ["Benzyl carbamate", "Carbamic acid, phenylmethyl ester", "Carbamic acid, benzyl ester", "Benzyl carbamate", "Carbamyl benzyl ester", "Benzyl aminoformate", "NSC 25317", "O-Benzylcarbamate"], "SMILES": "C(OC(N)=O)C1=CC=CC=C1", "physical_data": {"Molecular Weight": "151.16", "Molecular Formula": "C8H9NO2", "Boiling Point": "130-135 \u00b0C @ Press: 0.5 Torr", "Melting Point": "88 \u00b0C"}}