{"cas_no": "621-33-0", "cn_name": "\u95f4\u6c28\u57fa\u82ef\u4e59\u919a", "en_name": ["3-Ethoxybenzenamine", "Benzenamine, 3-ethoxy-", "m-Phenetidine", "3-Ethoxybenzenamine", "3-Ethoxyaniline", "m-Ethoxyaniline", "m-Ethoxyphenylamine", "(3-Ethoxyphenyl)amine", "NSC 9817", "3-Aminophenyl ethyl ether"], "SMILES": "O(CC)C1=CC(N)=CC=C1", "physical_data": {"Molecular Weight": "137.18", "Molecular Formula": "C8H11NO", "Boiling Point": "248 \u00b0C", "Melting Point": "204 \u00b0C", "Density": "1.0666 g/cm\u00b3 @ Temp: 20 \u00b0C"}}