{"cas_no": "621-35-2", "cn_name": "\u95f4\u6c28\u57fa\u4e59\u9170\u82ef\u80fa\u76d0\u9178\u76d0", "en_name": ["Acetamide, N-(3-aminophenyl)-, hydrochloride (1:1)", "Acetamide, N-(3-aminophenyl)-, hydrochloride (1:1)", "Acetamide, N-(3-aminophenyl)-, monohydrochloride", "3-Acetylaminoaniline hydrochloride", "1-Acetylamino-3-aminobenzene hydrochloride", "N-(3-Aminophenyl)acetamide hydrochloride", "m-Aminoacetanilide hydrochloride", "3-Aminoacetanilide hydrochloride", "3-Acetamidoanilinium chloride"], "SMILES": "N(C(C)=O)C1=CC(N)=CC=C1.Cl", "physical_data": {"Molecular Weight": "", "Molecular Formula": "C8H10N2O.ClH", "Melting Point": "248-251 \u00b0C"}}