{"cas_no": "621-71-6", "cn_name": "\u4e09\u7678\u9178\u7518\u6cb9\u916f", "en_name": ["Tricaprin", "Decanoic acid, 1,1\u2032,1\u2032\u2032-(1,2,3-propanetriyl) ester", "Decanoin, tri-", "Decanoic acid, 1,2,3-propanetriyl ester", "Caprin, tri-", "Tricaprin", "Glycerol tridecanoate", "Tricapric glyceride", "Glycerol tricaprin", "Tridecanoin", "Capric acid triglyceride", "Dynasan 110", "Glyceryl tricaprate", "Glycerol tricaprate", "Glycerin tridecanoate", "Panacet 1000", "Tri(decanoyl)glycerol", "Triglyceride DDD", "Glycerin tricaprate", "Actor M 2", "Captex 1000", "NSC 147475", "Capric triglyceride", "Decanoic acid triglyceride", "Tricapryl glyceride", "Glyceryl tridecanoate", "2,3-Di(decanoyloxy)propyl decanoate", "Trisdecanoin"], "SMILES": "C(COC(CCCCCCCCC)=O)(COC(CCCCCCCCC)=O)OC(CCCCCCCCC)=O", "physical_data": {"Molecular Weight": "554.84", "Molecular Formula": "C33H62O6", "Melting Point": "25 \u00b0C"}}