{"cas_no": "621-30-7", "cn_name": "\u95f4\u7532\u82ef\u5f02\u786b\u6c30\u9178\u916f", "en_name": ["3-Methylphenyl isothiocyanate", "Benzene, 1-isothiocyanato-3-methyl-", "Isothiocyanic acid, m-tolyl ester", "1-Isothiocyanato-3-methylbenzene", "3-Methylphenyl isothiocyanate", "m-Tolyl isothiocyanate", "m-Methylphenyl isothiocyanate", "3-Tolyl isothiocyanate", "m-Tolyl isothiocyanate"], "SMILES": "N(=C=S)C1=CC(C)=CC=C1", "physical_data": {"Molecular Weight": "149.21", "Molecular Formula": "C8H7NS", "Boiling Point": "243 \u00b0C", "Melting Point": "239 \u00b0C"}}