{"cas_no": "621-79-4", "cn_name": "\u8089\u6842\u9170\u80fa", "en_name": ["Cinnamamide", "2-Propenamide, 3-phenyl-", "Cinnamamide", "3-Phenyl-2-propenamide", "2-Benzylideneacetamide", "3-Phenylpropenamide", "3-Phenylacrylamide", "Cinnamic acid amide", "NSC 32953", "AG 835", "Coumaramide"], "SMILES": "C(=CC(N)=O)C1=CC=CC=C1", "physical_data": {"Molecular Weight": "147.17", "Molecular Formula": "C9H9NO", "Melting Point": "149 \u00b0C"}}