{"cas_no": "621-95-4", "cn_name": "4,4'-\u4e8c\u6c28\u57fa\u8054\u82c4", "en_name": ["4,4\u2032-Ethylenedianiline", "Benzenamine, 4,4\u2032-(1,2-ethanediyl)bis-", "\u03b1,\u03b1\u2032-Bi-p-toluidine", "4,4\u2032-(1,2-Ethanediyl)bis[benzenamine]", "4,4\u2032-Diaminobibenzyl", "1,2-Bis(p-aminophenyl)ethane", "1,2-Bis(4-aminophenyl)ethane", "4,4\u2032-Ethylenedianiline", "4,4\u2032-Diaminodibenzyl", "4,4\u2032-Dibenzyldiamine", "4,4\u2032-Diaminodiphenylethane", "p,p\u2032-Diaminobibenzyl", "p,p\u2032-Diaminodibenzyl", "4,4\u2032-Ethylenebisaniline", "NSC 44062", "NSC 580", "NSC 60033", "1,2-Di(4-aminophenyl)ethane", "4,4\u2032-Diamino-1,2-diphenylethane", "4,4\u2032-(Ethane-1,2-diyl)dianiline"], "SMILES": "C(CC1=CC=C(N)C=C1)C2=CC=C(N)C=C2", "physical_data": {"Molecular Weight": "212.29", "Molecular Formula": "C14H16N2", "Melting Point": "137 \u00b0C"}}