{"cas_no": "621-83-0", "cn_name": "N-\u82c4\u57fa\u786b\u8132", "en_name": ["N-(Phenylmethyl)thiourea", "Thiourea, N-(phenylmethyl)-", "Urea, 1-benzyl-2-thio-", "Thiourea, (phenylmethyl)-", "N-(Phenylmethyl)thiourea", "Benzylthiourea", "N-Benzylthiourea", "1-Benzylthiourea", "NSC 15510"], "SMILES": "C(NC(N)=S)C1=CC=CC=C1", "physical_data": {"Molecular Weight": "166.24", "Molecular Formula": "C8H10N2S", "Melting Point": "161-162 \u00b0C"}}