{"cas_no": "621-40-9", "cn_name": "\u95f4\u7532\u82ef\u57fa-2-\u786b\u8132", "en_name": ["(3-Methylphenyl)thiourea", "Thiourea, N-(3-methylphenyl)-", "Urea, 2-thio-1-m-tolyl-", "Thiourea, (3-methylphenyl)-", "N-(3-Methylphenyl)thiourea", "m-Tolylthiourea", "1-(m-Methylphenyl)thiourea", "1-m-Tolylthiourea", "3-Tolylthiourea", "(3-Methylphenyl)thiourea", "NSC 635574"], "SMILES": "N(C(N)=S)C1=CC(C)=CC=C1", "physical_data": {"Molecular Weight": "166.24", "Molecular Formula": "C8H10N2S", "Melting Point": "110 \u00b0C"}}