{"cas_no": "621-70-5", "cn_name": "\u4e09\u5df1\u9178\u7518\u6cb9\u916f", "en_name": ["Tricaproin", "Hexanoic acid, 1,1\u2032,1\u2032\u2032-(1,2,3-propanetriyl) ester", "Hexanoin, tri-", "Hexanoic acid, 1,2,3-propanetriyl ester", "Caproin, tri-", "Tricaproin", "Tricapronin", "Trihexanoylglycerol", "Glycerol tricaproate", "Caproic triglyceride", "Trihexanoin", "Tricaproylglycerol", "Glyceryl tricaproate", "Glycerin trihexanoate", "Glycerin tricaproate", "NSC 406885", "Glycerol tricapronate", "Glycerol trihexanoate", "Glyceryl trihexanoate", "2,3-Di(hexanoyloxy)propyl hexanoate"], "SMILES": "C(COC(CCCCC)=O)(COC(CCCCC)=O)OC(CCCCC)=O", "physical_data": {"Molecular Weight": "386.52", "Molecular Formula": "C21H38O6", "Boiling Point": "&gt;200 \u00b0C", "Melting Point": "-60 \u00b0C", "Density": "0.9821 g/cm\u00b3 @ Temp: 20 \u00b0C"}}