{"cas_no": "621-08-9", "cn_name": "\u4e8c\u82c4\u57fa\u4e9a\u781c", "en_name": ["Dibenzyl sulfoxide", "Benzene, 1,1\u2032-[sulfinylbis(methylene)]bis-", "Benzyl sulfoxide", "1,1\u2032-[Sulfinylbis(methylene)]bis[benzene]", "Dibenzyl sulfoxide", "Tardiol D", "Bis(phenylmethyl) sulfoxide", "NSC 55"], "SMILES": "C(S(CC1=CC=CC=C1)=O)C2=CC=CC=C2", "physical_data": {"Molecular Weight": "230.33", "Molecular Formula": "C14H14OS", "Melting Point": "134 \u00b0C"}}