{"cas_no": "621-64-7", "cn_name": "\u4e8c\u4e19\u57fa\u4e9a\u785d\u80fa", "en_name": ["N-Nitrosodipropylamine", "1-Propanamine, N-nitroso-N-propyl-", "Dipropylamine, N-nitroso-", "N-Nitroso-N-propyl-1-propanamine", "N-Nitrosodipropylamine", "Dipropylnitrosamine", "N,N-Dipropylnitrosamine", "N-Nitroso-N-di-n-propylamine", "N-Nitrosodi-n-propylamine", "NSC 133"], "SMILES": "N(CCC)(CCC)N=O", "physical_data": {"Molecular Weight": "130.19", "Molecular Formula": "C6H14N2O", "Boiling Point": "206 \u00b0C", "Density": "0.9160 g/cm\u00b3 @ Temp: 20 \u00b0C"}}