{"cas_no": "621-59-0", "cn_name": "\u5f02\u9999\u5170\u7d20", "en_name": ["Isovanillin", "Benzaldehyde, 3-hydroxy-4-methoxy-", "p-Anisaldehyde, 3-hydroxy-", "Isovanillin", "3-Hydroxy-4-methoxybenzaldehyde", "5-Formylguaiacol", "3-Hydroxy-p-anisaldehyde", "Isovanillic aldehyde", "4-Methoxy-3-hydroxybenzaldehyde", "3-Hydroxy-4-anisaldehyde", "5-Formyl-2-methoxyphenol", "2-Methoxy-5-formylphenol", "NSC 82996"], "SMILES": "C(=O)C1=CC(O)=C(OC)C=C1", "physical_data": {"Molecular Weight": "152.15", "Molecular Formula": "C8H8O3", "Boiling Point": "179 \u00b0C", "Melting Point": "114 \u00b0C", "Density": "1.4 g/cm\u00b3"}}