{"cas_no": "621-38-5", "cn_name": "3-\u6eb4\u4e59\u9170\u82ef\u80fa", "en_name": ["N-(3-Bromophenyl)acetamide", "Acetamide, N-(3-bromophenyl)-", "Acetanilide, 3\u2032-bromo-", "N-(3-Bromophenyl)acetamide", "3-Bromoacetanilide", "3\u2032-Bromoacetanilide", "m-Bromoacetanilide", "NSC 408071", "N-Acetyl-3-bromoaniline"], "SMILES": "N(C(C)=O)C1=CC(Br)=CC=C1", "physical_data": {"Molecular Weight": "214.06", "Molecular Formula": "C8H8BrNO", "Melting Point": "87-89 \u00b0C"}}