{"cas_no": "621-42-1", "cn_name": "N-(3-\u7f9f\u57fa\u82ef\u57fa)\u4e59\u9170\u80fa", "en_name": ["3-Acetamidophenol", "Acetamide, N-(3-hydroxyphenyl)-", "Acetanilide, 3\u2032-hydroxy-", "N-(3-Hydroxyphenyl)acetamide", "m-Hydroxyacetanilide", "Metalid", "Pedituss", "Pyrapap", "Rystal", "m-Acetamidophenol", "3\u2032-Hydroxyacetanilide", "3-(Acetylamino)phenol", "Metacetamol", "N-Acetyl-m-aminophenol", "m-(Acetylamino)phenol", "BS 479", "3-(Acetylamino)-1-hydroxybenzene", "3-Acetamidophenol", "N-Acetyl-3-hydroxyaniline", "BS 749", "NSC 3990"], "SMILES": "N(C(C)=O)C1=CC(O)=CC=C1", "physical_data": {"Molecular Weight": "151.16", "Molecular Formula": "C8H9NO2", "Melting Point": "147 \u00b0C"}}