{"cas_no": "6211-16-1", "cn_name": "L-\u9e1f\u6c28\u9178\u4e8c\u6c22\u6c2f\u5316\u7269", "en_name": ["L-Ornithine, hydrochloride (1:2)", "L-Ornithine, hydrochloride (1:2)", "Ornithine, dihydrochloride, L-", "L-Ornithine, dihydrochloride", "Ornithine dihydrochloride", "(S)-2,5-Diaminopentanoic acid dihydrochloride"], "SMILES": "C(C(O)=O)(CCCN)N.Cl", "physical_data": {"Molecular Weight": "", "Molecular Formula": "C5H12N2O2.2ClH", "Melting Point": "228-232 \u00b0C"}}