{"cas_no": "6211-32-1", "cn_name": "\u80b2\u4ea8\u5bbe\u78b1", "en_name": ["Rauwolscine hydrochloride", "Yohimban-16-carboxylic acid, 17-hydroxy-, methyl ester, hydrochloride (1:1), (16\u03b2,17\u03b1,20\u03b1)-", "20\u03b1-Yohimban-16\u03b2-carboxylic acid, 17\u03b1-hydroxy-, methyl ester, monohydrochloride", "Yohimban-16-carboxylic acid, 17-hydroxy-, methyl ester, monohydrochloride, (16\u03b2,17\u03b1,20\u03b1)-", "\u03b1-Yohimbine hydrochloride", "Rauwolscine hydrochloride", "NSC 407307"], "SMILES": "C(OC)(=O)C1C2CC3C4=C(C=5C(N4)=CC=CC5)CCN3CC2CCC1O.Cl", "physical_data": {"Molecular Weight": "", "Molecular Formula": "C21H26N2O3.ClH", "Melting Point": "286 \u00b0C (decomp)"}}