{"cas_no": "62129-44-6", "cn_name": "\u53d4\u4e01\u6c27\u7fb0\u9170\u57fa-4-\u7898-D\u578b\u82ef\u4e19\u6c28\u9178", "en_name": ["N-tert-Butoxycarbonyl-4-iodo-L-phenylalanine", "L-Phenylalanine, N-[(1,1-dimethylethoxy)carbonyl]-4-iodo-", "N-[(1,1-Dimethylethoxy)carbonyl]-4-iodo-L-phenylalanine", "N-BOC-4-Iodo-L-phenylalanine", "N-tert-Butoxycarbonyl-4-iodo-L-phenylalanine", "N-(tert-Butoxycarbonyl)-p-iodo-L-phenylalanine", "(S)-2-(tert-Butoxycarbonylamino)-3-(4-iodophenyl)propanoic acid"], "SMILES": "C(C(NC(OC(C)(C)C)=O)C(O)=O)C1=CC=C(I)C=C1", "physical_data": {"Molecular Weight": "391.20", "Molecular Formula": "C14H18INO4", "Melting Point": "117-120 \u00b0C"}}