{"cas_no": "62124-77-0", "cn_name": "3-(2-\u5421\u55ea\u57fa)-3-\u6c27\u4ee3\u4e19\u9178\u4e59\u916f", "en_name": ["2-Ethoxycarbonylmethylcarbonylpyrazine", "2-Pyrazinepropanoic acid, \u03b2-oxo-, ethyl ester", "Pyrazinepropanoic acid, \u03b2-oxo-, ethyl ester", "Pyrazinepropionic acid, \u03b2-oxo-, ethyl ester", "2-Ethoxycarbonylmethylcarbonylpyrazine", "Ethyl 3-oxo-3-pyrazinylpropionate", "Ethyl 3-oxo-3-(pyrazin-2-yl)propanoate"], "SMILES": "C(CC(OCC)=O)(=O)C=1C=NC=CN1", "physical_data": {"Molecular Weight": "194.19", "Molecular Formula": "C9H10N2O3", "Boiling Point": "116-120 \u00b0C @ Press: 2 Torr", "Melting Point": "75 \u00b0C"}}