{"cas_no": "6213-94-1", "cn_name": "\u4e59\u70ef\u6c27\u57fa\u4e09\u7532\u57fa\u7845\u70f7", "en_name": ["(Ethenyloxy)trimethylsilane", "Silane, (ethenyloxy)trimethyl-", "Silane, trimethyl(vinyloxy)-", "(Ethenyloxy)trimethylsilane", "Trimethylsilyl vinyl ether", "Trimethyl(vinyloxy)silane", "Vinyl trimethylsilyl ether", "(Trimethylsiloxy)ethylene", "[(Trimethylsilyl)oxy]ethene", "(Trimethylsilyloxy)ethylene", "Trimethylsiloxyethene", "(Vinyloxy)trimethylsilane", "Trimethyl(ethenoxy)silane"], "SMILES": "O([Si](C)(C)C)C=C", "physical_data": {"Molecular Weight": "116.23", "Molecular Formula": "C5H12OSi", "Boiling Point": "74-75 \u00b0C", "Density": "0.770 g/cm\u00b3"}}