{"cas_no": "6213-19-0", "cn_name": "2-\u6c2f-N,N-\u4e8c\u7532\u57fa-4-\u785d\u57fa\u82ef\u80fa", "en_name": ["2-Chloro-N,N-dimethyl-4-nitrobenzenamine", "Benzenamine, 2-chloro-N,N-dimethyl-4-nitro-", "Aniline, 2-chloro-N,N-dimethyl-4-nitro-", "2-Chloro-N,N-dimethyl-4-nitrobenzenamine", "3-Chloro-4-(dimethylamino)nitrobenzene", "2-Chloro-N,N-dimethyl-4-nitroaniline", "(2-Chloro-4-nitro-phenyl)-dimethyl-amine"], "SMILES": "N(=O)(=O)C1=CC(Cl)=C(N(C)C)C=C1", "physical_data": {"Molecular Weight": "200.62", "Molecular Formula": "C8H9ClN2O2", "Melting Point": "78 \u00b0C"}}