{"cas_no": "6214-18-2", "cn_name": "\u82ef\u78fa\u9178\u5f02\u4e19\u916f", "en_name": ["Isopropyl benzenesulfonate", "Benzenesulfonic acid, 1-methylethyl ester", "Benzenesulfonic acid, isopropyl ester", "Isopropyl benzenesulfonate", "1-Methylethyl benzenesulfonate"], "SMILES": "S(OC(C)C)(=O)(=O)C1=CC=CC=C1", "physical_data": {"Molecular Weight": "200.25", "Molecular Formula": "C9H12O3S", "Boiling Point": "155 \u00b0C @ Press: 7 Torr", "Density": "1.145 g/cm\u00b3 @ Temp: 20 \u00b0C"}}