{"cas_no": "6214-45-5", "cn_name": "4-\u4e01\u6c27\u57fa\u82ef\u57fa\u7532\u9187", "en_name": ["4-Butoxybenzenemethanol", "Benzenemethanol, 4-butoxy-", "Benzyl alcohol, p-butoxy-", "4-Butoxybenzenemethanol", "4-Butoxybenzyl alcohol", "p-Butoxybenzyl alcohol", "NSC 69089", "(4-Butoxyphenyl)methanol"], "SMILES": "O(CCCC)C1=CC=C(CO)C=C1", "physical_data": {"Molecular Weight": "180.24", "Molecular Formula": "C11H16O2", "Boiling Point": "135-137 \u00b0C @ Press: 3 Torr", "Melting Point": "30-31 \u00b0C"}}