{"cas_no": "6214-65-9", "cn_name": "5-\u4e59\u9170\u57fa\u5c3f\u5627\u5576", "en_name": ["5-Acetyl-2,4(1H,3H)-pyrimidinedione", "2,4(1H,3H)-Pyrimidinedione, 5-acetyl-", "Uracil, 5-acetyl-", "5-Acetyl-2,4(1H,3H)-pyrimidinedione", "5-Acetouracil", "5-Acetyluracil", "NSC 34716", "1-(2,4-Dihydroxy-pyrimidin-5-yl)-ethanone"], "SMILES": "C(C)(=O)C=1C(=O)NC(=O)NC1", "physical_data": {"Molecular Weight": "154.12", "Molecular Formula": "C6H6N2O3", "Melting Point": "294 \u00b0C (decomp)"}}