{"cas_no": "6214-47-7", "cn_name": "4-\u6c2f-5-\u5627\u5576\u4e59\u9178\u4e59\u916f", "en_name": ["Ethyl 4-chloro-5-pyrimidineacetate", "5-Pyrimidineacetic acid, 4-chloro-, ethyl ester", "Ethyl 4-chloro-5-pyrimidineacetate", "Ethyl 2-(4-chloropyrimidin-5-yl)acetate", "(4-Chloro-pyrimidin-5-yl)-acetic acid ethyl ester"], "SMILES": "C(C(OCC)=O)C=1C(Cl)=NC=NC1", "physical_data": {"Molecular Weight": "200.62", "Molecular Formula": "C8H9ClN2O2", "Boiling Point": "95-96 \u00b0C @ Press: 0.04 Torr"}}