{"cas_no": "6214-46-6", "cn_name": "ETHYL2-(4-HYDROXYPYRIMIDIN-5-YL)ACETATE", "en_name": ["Ethyl 3,4-dihydro-4-oxo-5-pyrimidineacetate", "5-Pyrimidineacetic acid, 3,4-dihydro-4-oxo-, ethyl ester", "5-Pyrimidineacetic acid, 4-hydroxy-, ethyl ester", "Ethyl 3,4-dihydro-4-oxo-5-pyrimidineacetate"], "SMILES": "C(C(OCC)=O)C=1C(=O)NC=NC1", "physical_data": {"Molecular Weight": "182.18", "Molecular Formula": "C8H10N2O3", "Melting Point": "155-156 \u00b0C"}}