{"cas_no": "6214-20-6", "cn_name": "\u5bf9\u785d\u57fa\u82ef\u78fa\u9178\u7532\u916f", "en_name": ["Methyl 4-nitrobenzenesulfonate", "Benzenesulfonic acid, 4-nitro-, methyl ester", "Benzenesulfonic acid, p-nitro-, methyl ester", "Methyl p-nitrobenzenesulfonate", "Methyl 4-nitrobenzenesulfonate", "Methyl nosylate", "Methyl p-nitrotosylate"], "SMILES": "S(OC)(=O)(=O)C1=CC=C(N(=O)=O)C=C1", "physical_data": {"Molecular Weight": "217.20", "Molecular Formula": "C7H7NO5S", "Melting Point": "94 \u00b0C"}}