{"cas_no": "6214-44-4", "cn_name": "\u5bf9\u4e59\u6c27\u57fa\u535e\u9187", "en_name": ["4-Ethoxybenzyl alcohol", "Benzenemethanol, 4-ethoxy-", "Benzyl alcohol, p-ethoxy-", "4-Ethoxybenzenemethanol", "p-Ethoxybenzyl alcohol", "4-Ethoxybenzyl alcohol", "NSC 406713", "(4-Ethoxyphenyl)methanol"], "SMILES": "O(CC)C1=CC=C(CO)C=C1", "physical_data": {"Molecular Weight": "152.19", "Molecular Formula": "C9H12O2", "Boiling Point": "134-135 \u00b0C", "Melting Point": "27 \u00b0C"}}