{"cas_no": "6216-81-5", "cn_name": "(-)-\u4e01\u9999\u8102\u7d20", "en_name": ["(-)-Syringaresinol", "Phenol, 4,4\u2032-[(1R,3aS,4R,6aS)-tetrahydro-1H,3H-furo[3,4-c]furan-1,4-diyl]bis[2,6-dimethoxy-", "Phenol, 4,4\u2032-(tetrahydro-1H,3H-furo[3,4-c]furan-1,4-diyl)bis[2,6-dimethoxy-, (-)-", "Phenol, 4,4\u2032-(tetrahydro-1H,3H-furo[3,4-c]furan-1,4-diyl)bis[2,6-dimethoxy-, [1R-(1\u03b1,3a\u03b1,4\u03b1,6a\u03b1)]-", "Lirioresinol B", "1H,3H-Furo[3,4-c]furan, phenol deriv.", "4,4\u2032-[(1R,3aS,4R,6aS)-Tetrahydro-1H,3H-furo[3,4-c]furan-1,4-diyl]bis[2,6-dimethoxyphenol]", "(-)-Syringaresinol", "(-)-Lirioresinol B", "(-)-(7R,8S,7\u2032R,8\u2032S)-Syringaresinol"], "SMILES": "O(C)C=1C=C(C2C3C(C(OC3)C4=CC(OC)=C(O)C(OC)=C4)CO2)C=C(OC)C1O", "physical_data": {"Molecular Weight": "418.44", "Molecular Formula": "C22H26O8", "Melting Point": "172-177 \u00b0C"}}