{"cas_no": "6217-68-1", "cn_name": "4-\u785d\u57fa\u82ef\u786b\u9178\u94be\u5355\u6c34\u5408\u7269", "en_name": ["Potassium p-nitrophenyl sulfate", "Sulfuric acid, mono(4-nitrophenyl) ester, potassium salt (1:1)", "Phenol, p-nitro-, hydrogen sulfate (ester), potassium salt", "Sulfuric acid, mono(4-nitrophenyl) ester, potassium salt", "Phenol, p-nitro-, hydrogen sulfate, potassium salt", "Potassium 4-nitrophenyl sulfate", "Potassium p-nitrophenyl sulfate"], "SMILES": "O(S(=O)(=O)O)C1=CC=C(N(=O)=O)C=C1.[K]", "physical_data": {"Molecular Weight": "", "Molecular Formula": "C6H5NO6S.K", "Melting Point": "250-253 \u00b0C"}}