{"cas_no": "6217-22-7", "cn_name": "4,5-\u4e8c\u6c22\u8298-4,5-\u4e8c\u916e", "en_name": ["4,5-Pyrenedione", "4,5-Pyrenedione", "1,2-Pyrenedione", "1,2-Pyrenequinone", "4,5-Pyrenequinone"], "SMILES": "O=C1C=2C3=C4C(C1=O)=CC=CC4=CC=C3C=CC2", "physical_data": {"Molecular Weight": "232.23", "Molecular Formula": "C16H8O2", "Melting Point": "310 \u00b0C"}}