{"cas_no": "6218-29-7", "cn_name": "\u7532\u57fa\u53cc\u70ef\u9187\u916e", "en_name": ["17\u03b2-Hydroxyestra-4,9-dien-3-one", "Estra-4,9-dien-3-one, 17-hydroxy-, (17\u03b2)-", "Estra-4,9-dien-3-one, 17\u03b2-hydroxy-", "(17\u03b2)-17-Hydroxyestra-4,9-dien-3-one", "17\u03b2-Hydroxyestra-4,9-dien-3-one", "9,10-Dehydro-19-nortestosterone", "4,9-Estradien-17\u03b2-ol-3-one", "3-Oxo-4,9-estradien-17\u03b2-ol", "RU 3118"], "SMILES": "CC12C(C3C(=C4C(CC3)=CC(=O)CC4)CC1)CCC2O", "physical_data": {"Molecular Weight": "272.38", "Molecular Formula": "C18H24O2", "Melting Point": "187-188 \u00b0C"}}