{"cas_no": "62199-62-6", "cn_name": "2,2,4,4,6-\u4e94\u7532\u57fa\u5e9a\u70f7", "en_name": ["2,2,4,4,6-Pentamethylheptane", "Heptane, 2,2,4,4,6-pentamethyl-", "2,2,4,4,6-Pentamethylheptane"], "SMILES": "C(C(CC(C)C)(C)C)C(C)(C)C", "physical_data": {"Molecular Weight": "170.33", "Molecular Formula": "C12H26", "Boiling Point": "187-188 \u00b0C", "Density": "0.7739 g/cm\u00b3 @ Temp: 20 \u00b0C"}}