{"cas_no": "622-44-6", "cn_name": "\u4e8c\u6c2f\u4ee3\u82ef\u80e9", "en_name": ["N-Phenylcarbonimidic dichloride", "Carbonimidic dichloride, N-phenyl-", "Imidocarbonyl chloride, phenyl-", "Carbonimidic dichloride, phenyl-", "N-Phenylcarbonimidic dichloride", "Phenyl isocyanide, dichloride", "Phenyl carbylamine chloride", "Carbonic dichloride, (phenylimino)-", "Benzenamine, N-(dichloromethylene)-", "N-(Dichloromethylene)aniline", "N-Phenylimidophosgene", "Phenylisonitrile dichloride", "(Phenylimino)carbonyl dichloride", "Phenylimidocarbonyl chloride", "N-Phenyliminocarbonyl dichloride", "N-Phenylcarbimide dichloride", "1,1-Dichloro-N-phenylmethanimine", "Dichloro(phenylimino)methane", "N-(Phenylimino)phosgene", "N-Phenylimidoyl dichloride", "Phenylcarbonimidic dichloride", "NSC 2051"], "SMILES": "N(=C(Cl)Cl)C1=CC=CC=C1", "physical_data": {"Molecular Weight": "174.03", "Molecular Formula": "C7H5Cl2N", "Boiling Point": "210 \u00b0C @ Press: 760 Torr", "Melting Point": "19.5 \u00b0C", "Density": "1.285 g/cm\u00b3 @ Temp: 15 \u00b0C"}}