{"cas_no": "622-29-7", "cn_name": "\u82ef\u4e9a\u7532\u57fa\u7532\u80fa", "en_name": ["N-(Phenylmethylene)methanamine", "Methanamine, N-(phenylmethylene)-", "Methylamine, N-benzylidene-", "Benzaldehyde, N-methyloxime", "N-(Phenylmethylene)methanamine", "Benzylidenemethylamine", "Benzylidenemethanamine", "N-Methylbenzaldimine", "N-Methylbenzalimine", "N-Methylbenzylidenimine", "N-Benzylidenemethylamine", "N-Methylbenzenemethanimine", "Benzaldehyde N-methylimine", "N-Benzylidenemethanamine", "Benzalmethylamine", "Benzaldehyde methylimine", "N-Methylbenzylidenamine", "N-Methylphenylmethanimine", "NSC 69423"], "SMILES": "C(=NC)C1=CC=CC=C1", "physical_data": {"Molecular Weight": "119.16", "Molecular Formula": "C8H9N", "Boiling Point": "185 \u00b0C", "Melting Point": "185 \u00b0C", "Density": "0.962 g/cm\u00b3 @ Temp: 20 \u00b0C"}}