{"cas_no": "622-59-3", "cn_name": "\u5bf9\u7532\u82ef\u5f02\u786b\u6c30\u9178\u916f", "en_name": ["p-Tolyl isothiocyanate", "Benzene, 1-isothiocyanato-4-methyl-", "Isothiocyanic acid, p-tolyl ester", "1-Isothiocyanato-4-methylbenzene", "p-Tolyl isothiocyanate", "4-Methylphenyl isothiocyanate", "p-Methylphenyl isothiocyanate", "4-Tolyl isothiocyanate"], "SMILES": "N(=C=S)C1=CC=C(C)C=C1", "physical_data": {"Molecular Weight": "149.21", "Molecular Formula": "C8H7NS", "Boiling Point": "237 \u00b0C", "Melting Point": "25-26 \u00b0C"}}