{"cas_no": "622-56-0", "cn_name": "\u8089\u8c46\u853b\u91af\u82ef\u80fa", "en_name": ["N-Phenyltetradecanamide", "Tetradecanamide, N-phenyl-", "Myristanilide", "N-Phenyltetradecanamide", "Myristic acid anilide", "N-Phenylmyristamide", "Myristic acid N-phenylamide"], "SMILES": "N(C(CCCCCCCCCCCCC)=O)C1=CC=CC=C1", "physical_data": {"Molecular Weight": "303.48", "Molecular Formula": "C20H33NO", "Melting Point": "85.7-86.1 \u00b0C"}}