{"cas_no": "622-15-1", "cn_name": "N,N'-\u4e8c\u82ef\u7532\u8112", "en_name": ["N,N\u2032-Diphenylmethanimidamide", "Methanimidamide, N,N\u2032-diphenyl-", "Formamidine, N,N\u2032-diphenyl-", "N,N\u2032-Diphenylmethanimidamide", "N,N\u2032-Diphenylformamidine", "Diphenylformamidine", "NSC 6789", "1,3-Diphenyl-1,3-diaza-1-propene"], "SMILES": "N(=CNC1=CC=CC=C1)C2=CC=CC=C2", "physical_data": {"Molecular Weight": "196.25", "Molecular Formula": "C13H12N2", "Melting Point": "142 \u00b0C"}}