{"cas_no": "622-03-7", "cn_name": "\u4e8c\u82ef\u57fa\u786b\u4ee3\u5361\u5df4\u80bc", "en_name": ["2,2\u2032-Diphenylcarbonothioic dihydrazide", "Carbonothioic dihydrazide, 2,2\u2032-diphenyl-", "Carbohydrazide, 1,5-diphenyl-3-thio-", "2,2\u2032-Diphenylcarbonothioic dihydrazide", "Diphenylthiocarbazide", "1,5-Diphenylthiocarbohydrazide", "NSC 688", "1,3-Dianilinothiourea"], "SMILES": "N(NC(NNC1=CC=CC=C1)=S)C2=CC=CC=C2", "physical_data": {"Molecular Weight": "258.34", "Molecular Formula": "C13H14N4S", "Melting Point": "&gt;140 \u00b0C", "Density": "1.27 g/cm\u00b3"}}