{"cas_no": "622-98-0", "cn_name": "1-\u6c2f-4-\u4e59\u57fa\u82ef", "en_name": ["1-Chloro-4-ethylbenzene", "Benzene, 1-chloro-4-ethyl-", "1-Chloro-4-ethylbenzene", "p-Chloroethylbenzene", "4-Ethylchlorobenzene", "4-Chloro-1-ethylbenzene", "4-Chloroethylbenzene", "4-Ethylphenyl chloride", "1-Ethyl-4-chlorobenzene"], "SMILES": "C(C)C1=CC=C(Cl)C=C1", "physical_data": {"Molecular Weight": "140.61", "Molecular Formula": "C8H9Cl", "Boiling Point": "184.4 \u00b0C", "Melting Point": "-62.6 \u00b0C", "Density": "1.0463 g/cm\u00b3 @ Temp: 20 \u00b0C"}}