{"cas_no": "622-61-7", "cn_name": "\u5bf9\u6c2f\u82ef\u4e59\u919a", "en_name": ["1-Chloro-4-ethoxybenzene", "Benzene, 1-chloro-4-ethoxy-", "Phenetole, p-chloro-", "1-Chloro-4-ethoxybenzene", "p-Chlorophenetole", "4-Chlorophenol ethyl ether", "p-Chlorophenyl ethyl ether", "p-Ethoxychlorobenzene", "4-Chlorophenetole", "4-Chloroethoxybenzene", "4-Ethoxychlorobenzene", "NSC 6161"], "SMILES": "O(CC)C1=CC=C(Cl)C=C1", "physical_data": {"Molecular Weight": "156.61", "Molecular Formula": "C8H9ClO", "Boiling Point": "213 \u00b0C", "Melting Point": "21 \u00b0C"}}