{"cas_no": "622-51-5", "cn_name": "\u5bf9\u7532\u82ef\u57fa\u8132", "en_name": ["N-(4-Methylphenyl)urea", "Urea, N-(4-methylphenyl)-", "Urea, p-tolyl-", "Urea, (4-methylphenyl)-", "N-(4-Methylphenyl)urea", "p-Tolylcarbamide", "4-Methylphenylurea", "p-Tolylurea", "4-Tolylurea", "1-(4-Methylphenyl)urea", "p-Methylphenylurea", "N-p-Tolylurea", "NSC 66557", "1-p-Tolylurea"], "SMILES": "N(C(N)=O)C1=CC=C(C)C=C1", "physical_data": {"Molecular Weight": "150.18", "Molecular Formula": "C8H10N2O", "Melting Point": "176 \u00b0C"}}