{"cas_no": "622-96-8", "cn_name": "\u5bf9-\u7532\u4e59\u82ef", "en_name": ["1-Ethyl-4-methylbenzene", "Benzene, 1-ethyl-4-methyl-", "Toluene, p-ethyl-", "1-Ethyl-4-methylbenzene", "1-Methyl-4-ethylbenzene", "4-Ethyltoluene", "p-Ethyltoluene", "p-Methylethylbenzene", "p-Ethylmethylbenzene", "4-Methylethylbenzene", "p-Ethyltoluene", "NSC 74177", "4-Methyl-1-ethylbenzene"], "SMILES": "C(C)C1=CC=C(C)C=C1", "physical_data": {"Molecular Weight": "120.19", "Molecular Formula": "C9H12", "Boiling Point": "162 \u00b0C", "Melting Point": "-62.3 \u00b0C", "Density": "0.8664 g/cm\u00b3 @ Temp: 15.800009765625 \u00b0C"}}