{"cas_no": "622-38-8", "cn_name": "\u82ef\u4e59\u786b\u919a", "en_name": ["Ethyl phenyl sulfide", "Benzene, (ethylthio)-", "Sulfide, ethyl phenyl", "(Ethylthio)benzene", "Phenyl ethyl sulfide", "Ethyl phenyl sulfide", "(Phenylthio)ethane", "Thiophenetole", "NSC 75124", "(Ethylsulfanyl)benzene", "Ethyl(phenyl)sulfane"], "SMILES": "S(CC)C1=CC=CC=C1", "physical_data": {"Molecular Weight": "138.23", "Molecular Formula": "C8H10S", "Boiling Point": "205 \u00b0C", "Melting Point": "-35.21 \u00b0C", "Density": "1.01479 g/cm\u00b3 @ Temp: 25 \u00b0C"}}