{"cas_no": "622-85-5", "cn_name": "\u4e19\u6c27\u57fa\u82ef", "en_name": ["Propoxybenzene", "Benzene, propoxy-", "Ether, phenyl propyl", "Propoxybenzene", "Phenyl propyl ether", "Propyl phenyl ether", "Propyloxybenzene", "1-Phenoxypropane", "3-Phenoxy propane"], "SMILES": "O(CCC)C1=CC=CC=C1", "physical_data": {"Molecular Weight": "136.19", "Molecular Formula": "C9H12O", "Boiling Point": "189.9 \u00b0C", "Melting Point": "-27 \u00b0C", "Density": "0.955 g/cm\u00b3 @ Temp: 14 \u00b0C"}}