{"cas_no": "622-08-2", "cn_name": "2-\u82c4\u6c27\u57fa\u4e59\u9187", "en_name": ["Benzyloxyethanol", "Ethanol, 2-(phenylmethoxy)-", "Ethanol, 2-(benzyloxy)-", "2-(Phenylmethoxy)ethanol", "Ethylene glycol monobenzyl ether", "Glycol monobenzyl ether", "2-(Benzyloxy)ethanol", "1-O-Benzylethanediol", "2-Benzyloxyethyl alcohol", "Benzyl 2-hydroxyethyl ether", "NSC 8886", "Ethylene glycol benzyl ether", "Benzyloxyethanol", "BzG", "2-(Benzyloxy)ethan-1-ol"], "SMILES": "C(OCCO)C1=CC=CC=C1", "physical_data": {"Molecular Weight": "152.19", "Molecular Formula": "C9H12O2", "Boiling Point": "256 \u00b0C @ Press: 760 Torr", "Melting Point": "&lt;-75 \u00b0C", "Density": "1.0640 g/cm\u00b3 @ Temp: 20 \u00b0C"}}