{"cas_no": "622-52-6", "cn_name": "\u5bf9\u7532\u82ef\u57fa\u786b\u8132", "en_name": ["(4-Methylphenyl)thiourea", "Thiourea, N-(4-methylphenyl)-", "Urea, 2-thio-1-p-tolyl-", "Thiourea, (4-methylphenyl)-", "N-(4-Methylphenyl)thiourea", "p-Tolylthiourea", "p-Tolylthiocarbamide", "N-p-Tolylthiourea", "1-p-Tolylthiourea", "(4-Methylphenyl)thiourea", "1-(4-Methylphenyl)thiourea", "4-Tolylthiourea", "(p-Methylphenyl)thiourea", "NSC 28041", "N-(p-Methylphenyl)thiourea", "1-(p-Methylphenyl)thiourea"], "SMILES": "N(C(N)=S)C1=CC=C(C)C=C1", "physical_data": {"Molecular Weight": "166.24", "Molecular Formula": "C8H10N2S", "Melting Point": "182 \u00b0C"}}