{"cas_no": "622-64-0", "cn_name": "\u5927\u9ea6\u82bd\u78b1\u786b\u9178\u76d0", "en_name": ["Phenol, 4-[2-(dimethylamino)ethyl]-, sulfate (2:1) (salt)", "Phenol, 4-[2-(dimethylamino)ethyl]-, sulfate (2:1) (salt)", "Phenol, p-[2-(dimethylamino)ethyl]-, sulfate (2:1) (salt)", "Hordenine sulfate", "Anhaline sulfate", "Hordenine sulphate", "p-Hydroxy-N,N-dimethylphenethylamine sulfate", "Peyocactine sulfate"], "SMILES": "C(CN(C)C)C1=CC=C(O)C=C1.S(=O)(=O)(O)O", "physical_data": {"Molecular Weight": "", "Molecular Formula": "C10H15NO.<sup>1</sup>/2H2O4S", "Melting Point": "207-208 \u00b0C"}}