{"cas_no": "622-45-7", "cn_name": "\u4e59\u9178\u73af\u5df1\u916f", "en_name": ["Cyclohexyl acetate", "Acetic acid, cyclohexyl ester", "Cyclohexanol, acetate", "Cyclohexyl acetate", "NSC 8772", "Acetoxycyclohexane", "Acetic acid cyclohexanyl ester", "Rhodiasolv AC 6"], "SMILES": "O(C(C)=O)C1CCCCC1", "physical_data": {"Molecular Weight": "142.20", "Molecular Formula": "C8H14O2", "Boiling Point": "173 \u00b0C", "Melting Point": "-77 \u00b0C", "Density": "0.968 g/cm\u00b3 @ Temp: 20 \u00b0C"}}