{"cas_no": "622-46-8", "cn_name": "\u82ef\u6c28\u57fa\u7532\u9178\u7532\u916f", "en_name": ["Phenyl carbamate", "Carbamic acid, phenyl ester", "Phenyl carbamate", "NSC 66509", "O-Phenyl carbamate"], "SMILES": "O(C(N)=O)C1=CC=CC=C1", "physical_data": {"Molecular Weight": "137.14", "Molecular Formula": "C7H7NO2", "Melting Point": "150 \u00b0C"}}