{"cas_no": "622-62-8", "cn_name": "4-\u4e59\u6c27\u57fa\u82ef\u915a", "en_name": ["4-Ethoxyphenol", "Phenol, 4-ethoxy-", "Phenol, p-ethoxy-", "4-Ethoxyphenol", "Hydroquinone monoethyl ether", "p-Ethoxyphenol", "p-Hydroxyphenetole", "Hydroquinone ethyl ether", "NSC 9885", "Ethyl 4-Hydroxyphenyl ether"], "SMILES": "O(CC)C1=CC=C(O)C=C1", "physical_data": {"Molecular Weight": "138.16", "Molecular Formula": "C8H10O2", "Boiling Point": "246.5 \u00b0C", "Melting Point": "66.5 \u00b0C"}}