{"cas_no": "622-58-2", "cn_name": "\u5bf9\u7532\u82ef\u5f02\u6c30\u9178\u916f", "en_name": ["4-Methylphenyl isocyanate", "Benzene, 1-isocyanato-4-methyl-", "Isocyanic acid, p-tolyl ester", "1-Isocyanato-4-methylbenzene", "p-Tolyl isocyanate", "p-Methylphenyl isocyanate", "4-Methylphenyl isocyanate", "4-Tolyl isocyanate", "4-Isocyanatotoluene", "p-Isocyanatotoluene"], "SMILES": "N(=C=O)C1=CC=C(C)C=C1", "physical_data": {"Molecular Weight": "133.15", "Molecular Formula": "C8H7NO", "Boiling Point": "71-72 \u00b0C @ Press: 13 Torr", "Melting Point": "155-156 \u00b0C"}}