{"cas_no": "622-93-5", "cn_name": "3-\u4e8c\u4e59\u6c28\u57fa-1-\u4e19\u9187", "en_name": ["3-(Diethylamino)-1-propanol", "1-Propanol, 3-(diethylamino)-", "3-(Diethylamino)-1-propanol", "N,N-Diethyl-3-amino-1-propanol", "N,N-Diethyl-3-hydroxypropylamine", "3-(Diethylamino)propyl alcohol", "Diethylpropanolamine", "3-(N,N-Diethylamino)-1-propanol", "NSC 8697", "N-(3-Hydroxypropyl)diethylamine"], "SMILES": "N(CCCO)(CC)CC", "physical_data": {"Molecular Weight": "131.22", "Molecular Formula": "C7H17NO", "Boiling Point": "189.5 \u00b0C", "Melting Point": "73-74 \u00b0C", "Density": "0.8600 g/cm\u00b3 @ Temp: 20 \u00b0C"}}