{"cas_no": "622-57-1", "cn_name": "N-\u4e59\u57fa\u5bf9\u7532\u82ef\u80fa", "en_name": ["N-Ethyl-4-methylaniline", "Benzenamine, N-ethyl-4-methyl-", "p-Toluidine, N-ethyl-", "N-Ethyl-4-methylbenzenamine", "N-Ethyl-p-toluidine", "p-Methyl-N-ethylaniline", "N-Ethyl-4-methylaniline", "N-Ethyl-p-methylaniline", "N-Ethyl-4-toluidine", "NSC 8889", "4-(Ethylamino)toluene"], "SMILES": "N(CC)C1=CC=C(C)C=C1", "physical_data": {"Molecular Weight": "135.21", "Molecular Formula": "C9H13N", "Boiling Point": "217 \u00b0C"}}