{"cas_no": "622-24-2", "cn_name": "1-\u6c2f-2-\u82ef\u4e59\u70f7", "en_name": ["Phenylethyl chloride", "Benzene, (2-chloroethyl)-", "Benzene, (\u03b2-chloroethyl)-", "(2-Chloroethyl)benzene", "Phenethyl chloride", "1-Chloro-2-phenylethane", "\u03b2-Phenethyl chloride", "2-Phenylethyl chloride", "2-Phenyl-1-chloroethane", "\u03b2-Phenylethyl chloride", "(\u03b2-Chloroethyl)benzene", "Phenylethyl chloride", "NSC 27886"], "SMILES": "C(CCl)C1=CC=CC=C1", "physical_data": {"Molecular Weight": "140.61", "Molecular Formula": "C8H9Cl", "Boiling Point": "197 \u00b0C", "Melting Point": "171.5 \u00b0C", "Density": "1.0623 g/cm\u00b3 @ Temp: 20 \u00b0C"}}