{"cas_no": "622-26-4", "cn_name": "4-\u54cc\u5576\u4e59\u9187", "en_name": ["4-Piperidineethanol", "4-Piperidineethanol", "4-(2-Hydroxyethyl)piperidine", "2-(Piperidin-4-yl)-1-ethanol", "NSC 93818", "2-(Piperidin-4-yl)ethanol", "2-(4-Piperidyl)ethanol"], "SMILES": "C(CO)C1CCNCC1", "physical_data": {"Molecular Weight": "129.20", "Molecular Formula": "C7H15NO", "Boiling Point": "227.5 \u00b0C", "Melting Point": "132.5 \u00b0C"}}