{"cas_no": "622-78-6", "cn_name": "\u5341\u4e8c(\u70f7)\u9178\u82c4\u916f\u82ef\u57fa\u916f", "en_name": ["Benzyl isothiocyanate", "Benzene, (isothiocyanatomethyl)-", "Isothiocyanic acid, benzyl ester", "(Isothiocyanatomethyl)benzene", "Benzyl mustard oil", "AB 2", "Tromacaps", "Tromalyt", "Urogran", "Benzyl isothiocyanate", "Phenylmethyl isothiocyanate", "NSC 118976", "1-(Isothiocyanatomethyl)benzene"], "SMILES": "C(N=C=S)C1=CC=CC=C1", "physical_data": {"Molecular Weight": "149.21", "Molecular Formula": "C8H7NS", "Boiling Point": "243 \u00b0C", "Melting Point": "41 \u00b0C", "Density": "1.1234 g/cm\u00b3 @ Temp: 20 \u00b0C"}}