{"cas_no": "622-76-4", "cn_name": "1-\u82ef\u57fa-1-\u4e01\u7094", "en_name": ["1-Phenyl-1-butyne", "Benzene, 1-butyn-1-yl-", "1-Butyne, 1-phenyl-", "Benzene, 1-butynyl-", "1-Butyn-1-ylbenzene", "Phenylethylacetylene", "1-Phenyl-1-butyne", "Ethylphenylacetylene", "1-Ethyl-2-phenylacetylene", "1-Butynylbenzene"], "SMILES": "C(#CCC)C1=CC=CC=C1", "physical_data": {"Molecular Weight": "130.19", "Molecular Formula": "C10H10", "Boiling Point": "87-90 \u00b0C", "Density": "0.915 g/cm\u00b3 @ Temp: 18 \u00b0C"}}