{"cas_no": "622-47-9", "cn_name": "\u5bf9\u7532\u57fa\u82ef\u4e59\u9178", "en_name": ["p-Tolylacetic acid", "Benzeneacetic acid, 4-methyl-", "Acetic acid, p-tolyl-", "4-Methylbenzeneacetic acid", "(4-Methylphenyl)acetic acid", "p-Methylphenylacetic acid", "p-Tolylacetic acid", "2-p-Tolylacetic acid", "4-Tolylacetic acid", "NSC 65595", "2-(4-Methylphenyl)acetic acid", "p-Methylbenzeneacetic acid"], "SMILES": "C(C(O)=O)C1=CC=C(C)C=C1", "physical_data": {"Molecular Weight": "150.17", "Molecular Formula": "C9H10O2", "Boiling Point": "265 \u00b0C", "Melting Point": "93 \u00b0C"}}