{"cas_no": "622-39-9", "cn_name": "\u6bd2\u82b9\u5206\u78b1", "en_name": ["2-Propylpyridine", "Pyridine, 2-propyl-", "2-Propylpyridine", "Conyrine", "1-(2-Pyridyl)propane", "2-n-Propylpyridine", "NSC 966"], "SMILES": "C(CC)C1=CC=CC=N1", "physical_data": {"Molecular Weight": "121.18", "Molecular Formula": "C8H11N", "Boiling Point": "167 \u00b0C", "Melting Point": "2 \u00b0C", "Density": "0.9119 g/cm\u00b3 @ Temp: 20 \u00b0C"}}