{"cas_no": "622-32-2", "cn_name": "\u82ef\u7532\u919b\u809f", "en_name": ["[C(Z)]-Benzaldehyde oxime", "Benzaldehyde, oxime, [C(Z)]-", "Benzaldehyde, oxime, (Z)-", "Benzaldehyde, oxime, anti-", "[C(Z)]-Benzaldehyde oxime", "anti-Benzaldoxime", "(Z)-Benzaldoxime", "(Z)-Benzaldehyde oxime", "cis-Benzaldehyde oxime"], "SMILES": "C(=NO)C1=CC=CC=C1", "physical_data": {"Molecular Weight": "121.14", "Molecular Formula": "C7H7NO", "Boiling Point": "200 \u00b0C", "Melting Point": "36.5 \u00b0C"}}