{"cas_no": "622-75-3", "cn_name": "1,4-\u82ef\u4e8c\u4e59\u8148", "en_name": ["1,4-Benzenediacetonitrile", "1,4-Benzenediacetonitrile", "p-Benzenediacetonitrile", "p-Xylylene dicyanide", "p-Phenylenediacetonitrile", "p-Bis(cyanomethyl)benzene", "p-(Cyanomethyl)benzyl cyanide", "1,4-Bis(cyanomethyl)benzene", "p-Xylylenedinitrile", "7,8-Dicyano-p-xylene", "1,4-Phenylenediacetonitrile", "1,4-Phenyldiacetonitrile", "NSC 513731", "4-Cyanomethylphenylacetonitrile", "2,2\u2032-(1,4-Phenylene) diacetonitrile", "1,4-Di(cyanomethyl)benzene", "2-[4-(Cyanomethyl)phenyl]acetonitrile"], "SMILES": "C(C#N)C1=CC=C(CC#N)C=C1", "physical_data": {"Molecular Weight": "156.18", "Molecular Formula": "C10H8N2", "Boiling Point": "85 \u00b0C @ Press: 12 Torr", "Melting Point": "222 \u00b0C"}}