{"cas_no": "622-97-9", "cn_name": "4-\u7532\u57fa\u82ef\u4e59\u70ef", "en_name": ["p-Methylstyrene", "Benzene, 1-ethenyl-4-methyl-", "Styrene, p-methyl-", "1-Ethenyl-4-methylbenzene", "4-Methylstyrene", "p-Vinyltoluene", "1-Methyl-4-vinylbenzene", "4-Vinyltoluene", "p-Methylstyrene", "1-p-Tolylethene", "PMS", "4-Ethenylmethylbenzene", "(4-Methylphenyl)ethene", "(4-Tolyl)ethene", "4-Methylvinylbenzene", "1-Vinyl-4-methylbenzene", "1-(4-Methylphenyl)-1-ethene", "p-Tolylethylene", "4-Methyl-1-ethenylbenzene"], "SMILES": "C(=C)C1=CC=C(C)C=C1", "physical_data": {"Molecular Weight": "118.18", "Molecular Formula": "C9H10", "Boiling Point": "172.8 \u00b0C", "Melting Point": "-34.1 \u00b0C", "Density": "0.9173 g/cm\u00b3 @ Temp: 25 \u00b0C"}}