{"cas_no": "622-95-7", "cn_name": "4-\u6c2f\u82c4\u6eb4", "en_name": ["4-Chlorobenzyl bromide", "Benzene, 1-(bromomethyl)-4-chloro-", "Toluene, \u03b1-bromo-p-chloro-", "1-(Bromomethyl)-4-chlorobenzene", "4-Chlorobenzyl bromide", "p-Chlorobenzyl bromide", "\u03b1-Bromo-p-chlorotoluene", "1-Chloro-4-bromomethylbenzene"], "SMILES": "C(Br)C1=CC=C(Cl)C=C1", "physical_data": {"Molecular Weight": "205.48", "Molecular Formula": "C7H6BrCl", "Boiling Point": "86-90 \u00b0C @ Press: 3 Torr", "Melting Point": "50 \u00b0C"}}