{"cas_no": "622-33-3", "cn_name": "\u90bb\u82c4\u57fa\u7f9f\u80fa", "en_name": ["O-Benzylhydroxylamine", "Hydroxylamine, O-(phenylmethyl)-", "Hydroxylamine, O-benzyl-", "Benzyloxyamine", "O-(Phenylmethyl)hydroxylamine", "O-Benzylhydroxylamine", "SNR 1635", "O-Benzyloxyamine", "\u03b1-(Aminooxy)toluene"], "SMILES": "C(ON)C1=CC=CC=C1", "physical_data": {"Molecular Weight": "123.15", "Molecular Formula": "C7H9NO", "Boiling Point": "118-119 \u00b0C @ Press: 30 Torr", "Melting Point": "229-235 \u00b0C"}}