{"cas_no": "622-50-4", "cn_name": "N-(4-\u7898\u82ef\u57fa)\u4e59\u9170\u80fa", "en_name": ["N-(4-Iodophenyl)acetamide", "Acetamide, N-(4-iodophenyl)-", "Acetanilide, 4\u2032-iodo-", "N-(4-Iodophenyl)acetamide", "4-Iodoacetanilide", "4\u2032-Iodoacetanilide", "p-Iodoacetanilide", "4-Acetamidophenyl iodide", "p-Acetamidoiodobenzene", "4-Acetamidoiodobenzene", "NSC 2161", "1-Acetamido-4-iodobenzene", "N-Acetyl-4-iodoaniline", "1-Acetoamido-4-iodobenzene"], "SMILES": "N(C(C)=O)C1=CC=C(I)C=C1", "physical_data": {"Molecular Weight": "261.06", "Molecular Formula": "C8H8INO", "Melting Point": "184 \u00b0C"}}