{"cas_no": "622-40-2", "cn_name": "2-\u5417\u5549\u4e59\u9187", "en_name": ["4-Morpholineethanol", "4-Morpholineethanol", "N-(2-Hydroxyethyl)morpholine", "N-(\u03b2-Hydroxyethyl)morpholine", "2-Morpholinoethanol", "\u03b2-Morpholinoethanol", "4-(2-Hydroxyethyl)morpholine", "2-(4-Morpholinyl)ethanol", "2-(4-Morpholino)ethyl alcohol", "2-(4-Morpholinyl)-1-ethanol", "NSC 1946", "1-(2-Hydroxyethyl)morpholine", "2-Morpholinoethan-1-ol", "N-Hydroxyethyl morpholine"], "SMILES": "C(CO)N1CCOCC1", "physical_data": {"Molecular Weight": "131.17", "Molecular Formula": "C6H13NO2", "Boiling Point": "227 \u00b0C", "Melting Point": "-1.6 \u00b0C", "Density": "1.0733 g/cm\u00b3 @ Temp: 20 \u00b0C"}}