{"cas_no": "622-42-4", "cn_name": "(\u785d\u57fa\u7532\u57fa)\u82ef", "en_name": ["Phenylnitromethane", "Benzene, (nitromethyl)-", "Toluene, \u03b1-nitro-", "(Nitromethyl)benzene", "Phenylnitromethane", "Nitrophenylmethane", "\u03b1-Nitrotoluene", "NSC 3439"], "SMILES": "C(N(=O)=O)C1=CC=CC=C1", "physical_data": {"Molecular Weight": "137.14", "Molecular Formula": "C7H7NO2", "Boiling Point": "226 \u00b0C", "Melting Point": "80.7 \u00b0C", "Density": "1.654 g/cm\u00b3"}}