{"cas_no": "622-86-6", "cn_name": "2-\u6c2f\u82ef\u4e59\u919a", "en_name": ["(2-Chloroethoxy)benzene", "Benzene, (2-chloroethoxy)-", "Phenetole, \u03b2-chloro-", "(2-Chloroethoxy)benzene", "2-Phenoxyethyl chloride", "\u03b2-Chlorophenetole", "1-Phenoxy-2-chloroethane", "2-Chloroethyl phenyl ether", "1-Chloro-2-phenoxyethane", "NSC 1073"], "SMILES": "O(CCCl)C1=CC=CC=C1", "physical_data": {"Molecular Weight": "156.61", "Molecular Formula": "C8H9ClO", "Boiling Point": "218.5 \u00b0C", "Melting Point": "28 \u00b0C", "Density": "1.132 g/cm\u00b3 @ Temp: 20 \u00b0C"}}