{"cas_no": "622-80-0", "cn_name": "N-\u4e19\u57fa\u82ef\u80fa", "en_name": ["Propylaniline", "Benzenamine, N-propyl-", "Aniline, N-propyl-", "N-Propylbenzenamine", "N-Propylaniline", "N-(n-Propyl)aniline", "Propylaniline"], "SMILES": "N(CCC)C1=CC=CC=C1", "physical_data": {"Molecular Weight": "135.21", "Molecular Formula": "C9H13N", "Boiling Point": "222 \u00b0C", "Melting Point": "76 \u00b0C", "Density": "0.9404 g/cm\u00b3 @ Temp: 20 \u00b0C"}}