{"cas_no": "622-04-8", "cn_name": "1,3-\u4e8c\u82ef\u6c27\u57fa-2-\u4e19\u9187", "en_name": ["1,3-Diphenoxy-2-propanol", "2-Propanol, 1,3-diphenoxy-", "1,3-Diphenoxy-2-propanol", "Glycerol 1,3-diphenyl ether", "Glyceryl 1,3-diphenyl ether", "1,3-Diphenyl glyceryl ether", "1,3-Diphenoxy-2-hydroxypropane", "Glycerol \u03b1,\u03b3-diphenyl ether", "NSC 6802", "NSC 71510", "(2-Hydroxy-3-phenoxypropoxy)benzene"], "SMILES": "O(CC(COC1=CC=CC=C1)O)C2=CC=CC=C2", "physical_data": {"Molecular Weight": "244.29", "Molecular Formula": "C15H16O3", "Boiling Point": "258-259 \u00b0C @ Press: 763 Torr", "Melting Point": "81.5 \u00b0C", "Density": "1.179 g/cm\u00b3 @ Temp: 24 \u00b0C"}}