{"cas_no": "622-20-8", "cn_name": "1,2-\u8054\u82ef\u786b\u57fa\u4e59\u70f7", "en_name": ["1,2-Bis(phenylthio)ethane", "Benzene, 1,1\u2032-[1,2-ethanediylbis(thio)]bis-", "Ethane, 1,2-bis(phenylthio)-", "1,1\u2032-[1,2-Ethanediylbis(thio)]bis[benzene]", "1,2-Bis(phenylthio)ethane", "1,1\u2032-[1,2-ethanediylbis(thio)]bis[benzene]", "NSC 21579", "1,2-Bis(phenylsulfanyl)ethane", "[[2-(Phenylsulfanyl)ethyl]sulfanyl]benzene", "2-Phenylsulfanylethylsulfanylbenzene"], "SMILES": "S(CCSC1=CC=CC=C1)C2=CC=CC=C2", "physical_data": {"Molecular Weight": "246.39", "Molecular Formula": "C14H14S2", "Boiling Point": "155 \u00b0C @ Press: 2 Torr", "Melting Point": "70 \u00b0C"}}