{"cas_no": "622-21-9", "cn_name": "\u4e8c\u8089\u6842\u4e19\u916e", "en_name": ["Dicinnamalacetone", "1,3,6,8-Nonatetraen-5-one, 1,9-diphenyl-", "1,9-Diphenyl-1,3,6,8-nonatetraen-5-one", "5-Oxo-1,9-diphenyl-1,3,6,8-nonatetraene", "Dicinnamalacetone", "Dicinnamylideneacetone", "NSC 6245"], "SMILES": "C(=CC=CC(C=CC=CC1=CC=CC=C1)=O)C2=CC=CC=C2", "physical_data": {"Molecular Weight": "286.37", "Molecular Formula": "C21H18O", "Melting Point": "146 \u00b0C", "Density": "1.0966 g/cm\u00b3"}}