{"cas_no": "622-79-7", "cn_name": "\u82c4\u57fa\u53e0\u6c2e", "en_name": ["Benzyl azide", "Benzene, (azidomethyl)-", "Toluene, \u03b1-azido-", "(Azidomethyl)benzene", "Benzyl azide", "\u03b1-Azidotoluene", "NSC 26304"], "SMILES": "C(N=[N+]=[N-])C1=CC=CC=C1", "physical_data": {"Molecular Weight": "", "Molecular Formula": "C7H7N3", "Boiling Point": "82.5 \u00b0C @ Press: 16.5 Torr", "Melting Point": "157 \u00b0C (decomp)", "Density": "1.0321 g/cm\u00b3 @ Temp: 25 \u00b0C"}}