{"cas_no": "622-88-8", "cn_name": "4-\u6eb4\u82ef\u80bc\u76d0\u9178\u76d0", "en_name": ["4-Bromophenylhydrazine hydrochloride", "Hydrazine, (4-bromophenyl)-, hydrochloride (1:1)", "Hydrazine, (p-bromophenyl)-, monohydrochloride", "Hydrazine, (4-bromophenyl)-, monohydrochloride", "4-Bromophenylhydrazine hydrochloride", "p-Bromophenylhydrazine monohydrochloride", "4-Bromophenylhydrazine monohydrochloride", "1-(4-Bromophenyl)hydrazine hydrochloride", "2-(4-Bromophenyl)hydrazinium chloride"], "SMILES": "N(N)C1=CC=C(Br)C=C1.Cl", "physical_data": {"Molecular Weight": "", "Molecular Formula": "C6H7BrN2.ClH", "Melting Point": "201-203 \u00b0C (decomp)"}}