{"cas_no": "622-30-0", "cn_name": "N-\u82c4\u57fa\u7f9f\u80fa", "en_name": ["Benzylhydroxylamine", "Benzenemethanamine, N-hydroxy-", "Hydroxylamine, N-benzyl-", "N-Hydroxybenzenemethanamine", "N-Benzylhydroxylamine", "Benzylhydroxylamine", "N-Hydroxybenzylamine", "O-Benzylhydroxyamine"], "SMILES": "C(NO)C1=CC=CC=C1", "physical_data": {"Molecular Weight": "123.15", "Molecular Formula": "C7H9NO", "Melting Point": "57 \u00b0C"}}