{"cas_no": "62211-93-2", "cn_name": "1,2,3-\u4e09\u4e59\u9170\u6c27\u57fa-5-\u8131\u6c27-D-\u6838\u7cd6", "en_name": ["\u03b2-D-Ribofuranose, 5-deoxy-, 1,2,3-triacetate", "\u03b2-D-Ribofuranose, 5-deoxy-, 1,2,3-triacetate", "\u03b2-D-Ribofuranose, 5-deoxy-, triacetate", "1,2,3-Tri-O-acetyl-5-deoxy-\u03b2-D-ribofuranose"], "SMILES": "O(C(C)=O)C1C(OC(C)=O)C(C)OC1OC(C)=O", "physical_data": {"Molecular Weight": "260.24", "Molecular Formula": "C11H16O7", "Melting Point": "63-64 \u00b0C"}}