{"cas_no": "62218-08-0", "cn_name": "EPSILON-VINIFERIN", "en_name": ["\u03b5-Viniferin", "1,3-Benzenediol, 5-[(2R,3R)-2,3-dihydro-6-hydroxy-2-(4-hydroxyphenyl)-4-[(1E)-2-(4-hydroxyphenyl)ethenyl]-3-benzofuranyl]-", "1,3-Benzenediol, 5-[2,3-dihydro-6-hydroxy-2-(4-hydroxyphenyl)-4-[2-(4-hydroxyphenyl)ethenyl]-3-benzofuranyl]-, [2R-[2\u03b1,3\u03b2,4(E)]]-", "5-[(2R,3R)-2,3-Dihydro-6-hydroxy-2-(4-hydroxyphenyl)-4-[(1E)-2-(4-hydroxyphenyl)ethenyl]-3-benzofuranyl]-1,3-benzenediol", "\u03b5-Viniferin", "(-)-\u03b5-Viniferin", "trans-\u03b5-Viniferin", "\u03be-Viniferin", "(E)-\u03b5-Viniferin", "\u03f5-Viniferin"], "SMILES": "C(=CC1=CC=C(O)C=C1)C2=C3C(C(OC3=CC(O)=C2)C4=CC=C(O)C=C4)C5=CC(O)=CC(O)=C5", "physical_data": {"Molecular Weight": "454.47", "Molecular Formula": "C28H22O6", "Melting Point": "149-151 \u00b0C"}}