{"cas_no": "6222-17-9", "cn_name": "1,6-\u4e8c\u4e59\u9170\u6c27\u57fa\u5df1\u70f7", "en_name": ["1,6-Hexanediol, 1,6-diacetate", "1,6-Hexanediol, 1,6-diacetate", "1,6-Hexanediol, diacetate", "Hexylene glycol diacetate", "1,6-Diacetoxyhexane", "1,6-Dihydroxyhexane diacetate", "NSC 67922", "1,6-Hexylene glycol diacetate", "1,6-HDDA", "CELTOL 1,6-HDDA"], "SMILES": "C(OC(C)=O)CCCCCOC(C)=O", "physical_data": {"Molecular Weight": "202.25", "Molecular Formula": "C10H18O4", "Boiling Point": "103.5-106.0 \u00b0C @ Press: 3 Torr", "Density": "1.0135 g/cm\u00b3 @ Temp: 20 \u00b0C"}}