{"cas_no": "6222-35-1", "cn_name": "\u4e19\u9178\u73af\u5df1\u916f", "en_name": ["Cyclohexyl propionate", "Propanoic acid, cyclohexyl ester", "Propionic acid, cyclohexyl ester", "Cyclohexyl propionate", "Cyclohexyl propanoate", "NSC 11770"], "SMILES": "O(C(CC)=O)C1CCCCC1", "physical_data": {"Molecular Weight": "156.22", "Molecular Formula": "C9H16O2", "Boiling Point": "193 \u00b0C", "Density": "0.9529 g/cm\u00b3 @ Temp: 20 \u00b0C"}}