{"cas_no": "62234-37-1", "cn_name": "N(\u03b1)-Z-D-2,3-\u4e8c\u6c28\u57fa\u4e19\u9178", "en_name": ["3-Amino-N-[(phenylmethoxy)carbonyl]-D-alanine", "D-Alanine, 3-amino-N-[(phenylmethoxy)carbonyl]-", "3-Amino-N-[(phenylmethoxy)carbonyl]-D-alanine", "(R)-3-Amino-2-benzyloxycarbonylaminopropanoic acid", "(2R)-3-Amino-2-(phenylmethoxycarbonylamino)propanoic acid", "(R)-3-Amino-2-(((benzyloxy)carbonyl)amino)propanoic acid"], "SMILES": "C(OC(NC(C(O)=O)CN)=O)C1=CC=CC=C1", "physical_data": {"Molecular Weight": "238.24", "Molecular Formula": "C11H14N2O4", "Melting Point": "205-208 \u00b0C"}}