{"cas_no": "6223-35-4", "cn_name": "\u8581\u78fa\u9178\u94a0", "en_name": ["1-Azulenesulfonic acid, 3,8-dimethyl-5-(1-methylethyl)-, sodium salt (1:1)", "1-Azulenesulfonic acid, 3,8-dimethyl-5-(1-methylethyl)-, sodium salt (1:1)", "1-Azulenesulfonic acid, 5-isopropyl-3,8-dimethyl-, sodium salt", "1-Azulenesulfonic acid, 3,8-dimethyl-5-(1-methylethyl)-, sodium salt", "Sodium 5-isopropyl-3,8-dimethyl-1-azulenesulfonate", "Azulen SN", "Azupromin", "Sodium 7-isopropyl-1,4-dimethylazulene-3-sulfonate", "Sodium guaiazulene-3-sulfonate", "Sodium 1,4-dimethyl-7-isopropylazulene-3-sulfonate", "Azunol ST", "Sodium guaiazulenesulfonate", "Azulene SN", "Sodium 3-methyl-5-isopropyl-8-methylazulenesulfonate", "Sodium gualenate", "Guaiazulene 3-sulfonate sodium salt", "Guaiazulene soluble"], "SMILES": "S(=O)(=O)(O)C=1C=2C(=C(C)C1)C=C(C(C)C)C=CC2C.[Na]", "physical_data": {"Molecular Weight": "", "Molecular Formula": "C15H18O3S.Na", "Melting Point": "98 \u00b0C"}}