{"cas_no": "6223-78-5", "cn_name": "2,5-\u4e8c\u6c2f-2,5-\u4e8c\u7532\u57fa\u5df1\u70f7", "en_name": ["2,5-Dichloro-2,5-dimethylhexane", "Hexane, 2,5-dichloro-2,5-dimethyl-", "2,5-Dichloro-2,5-dimethylhexane", "2,5-Dimethyl-2,5-dichlorohexane", "NSC 408418"], "SMILES": "C(CC(C)(C)Cl)C(C)(C)Cl", "physical_data": {"Molecular Weight": "183.12", "Molecular Formula": "C8H16Cl2", "Boiling Point": "72-82 \u00b0C @ Press: 12 Torr", "Melting Point": "67.5 \u00b0C"}}