{"cas_no": "622369-40-8", "cn_name": "4-\u6c2f-6-\u7532\u6c27\u57fa7-\u6c1f-\u55b9\u5549-3-\u7532\u8148", "en_name": ["4-Chloro-7-fluoro-6-methoxy-3-quinolinecarbonitrile", "3-Quinolinecarbonitrile, 4-chloro-7-fluoro-6-methoxy-", "4-Chloro-7-fluoro-6-methoxy-3-quinolinecarbonitrile"], "SMILES": "ClC=1C2=C(C=C(F)C(OC)=C2)N=CC1C#N", "physical_data": {"Molecular Weight": "236.63", "Molecular Formula": "C11H6ClFN2O", "Melting Point": "160-162 \u00b0C"}}