{"cas_no": "6223-83-2", "cn_name": "9-\u82b4\u916e-4-\u7532\u9178", "en_name": ["Fluorenone-4-carboxylic acid", "9H-Fluorene-4-carboxylic acid, 9-oxo-", "Fluorene-4-carboxylic acid, 9-oxo-", "9-Oxo-9H-fluorene-4-carboxylic acid", "Fluorenone-5-carboxylic acid", "9-Oxofluorene-4-carboxylic acid", "9-Fluorenone-4-carboxylic acid", "Fluorenone-4-carboxylic acid", "4-Carboxy-9-fluorenone", "NSC 27908"], "SMILES": "C(O)(=O)C1=C2C=3C(C(=O)C2=CC=C1)=CC=CC3", "physical_data": {"Molecular Weight": "224.21", "Molecular Formula": "C14H8O3", "Melting Point": "218-225 \u00b0C"}}