{"cas_no": "6224-91-5", "cn_name": "1-(\u4e09\u7532\u57fa\u7845\u57fa)\u4e19\u7094", "en_name": ["Trimethyl-1-propyn-1-ylsilane", "Silane, trimethyl-1-propyn-1-yl-", "Silane, trimethyl-1-propynyl-", "Trimethyl-1-propyn-1-ylsilane", "Trimethyl-1-propynylsilane", "Methyl(trimethylsilyl)acetylene", "1-(Trimethylsilyl)-1-propyne", "1-(Trimethylsilyl)propyne", "T 3728", "1-Propynyltrimethylsilane", "Methyl(trimethylsilyl)ethyne", "1-Methyl-2-trimethylsilylacetylene"], "SMILES": "C([Si](C)(C)C)#CC", "physical_data": {"Molecular Weight": "112.25", "Molecular Formula": "C6H12Si", "Boiling Point": "99-100 \u00b0C", "Melting Point": "-69 \u00b0C", "Density": "0.758 g/cm\u00b3"}}