{"cas_no": "6224-63-1", "cn_name": "\u4e09\u95f4\u57fa\u82ef\u57fa\u81a6", "en_name": ["Tri-m-tolylphosphine", "Phosphine, tris(3-methylphenyl)-", "Phosphine, tri-m-tolyl-", "Tris(3-methylphenyl)phosphine", "Tri-m-tolylphosphine", "Tris(m-methylphenyl)phosphine", "Tris(m-tolyl)phosphine", "Tris(3-tolyl)phosphine", "Tris(3-toluene)phosphine", "TMTP"], "SMILES": "P(C1=CC(C)=CC=C1)(C2=CC(C)=CC=C2)C3=CC(C)=CC=C3", "physical_data": {"Molecular Weight": "304.37", "Molecular Formula": "C21H21P", "Melting Point": "100 \u00b0C"}}