{"cas_no": "62257-16-3", "cn_name": "3-\u6c28\u57fa-4-\u6c1f\u82ef\u915a", "en_name": ["3-Amino-4-fluorophenol", "Phenol, 3-amino-4-fluoro-", "3-Amino-4-fluorophenol", "2-Fluoro-5-hydroxyaniline", "2-Fluoro-5-hydroxylaniline"], "SMILES": "NC1=C(F)C=CC(O)=C1", "physical_data": {"Molecular Weight": "127.12", "Molecular Formula": "C6H6FNO", "Melting Point": "141-143 \u00b0C"}}