{"cas_no": "62266-82-4", "cn_name": "6-\u6eb4-2-\u82ef\u5e76\u567b\u5511\u5549\u916e", "en_name": ["6-Bromo-2-benzothiazolinone", "2(3H)-Benzothiazolone, 6-bromo-", "2-Benzothiazolol, 6-bromo-", "6-Bromo-2(3H)-benzothiazolone", "6-Bromo-2-hydroxybenzothiazole", "6-Bromo-2-benzothiazolinone", "6-Bromo-3H-benzothiazol-2-one", "6-Bromo-1,3-benzothiazol-2(3H)-one", "6-Bromo-2-oxo-2,3-dihydro-1,3-benzothiazole", "6-Bromo-3H-1,3-benzothiazol-2-one"], "SMILES": "O=C1NC=2C(S1)=CC(Br)=CC2", "physical_data": {"Molecular Weight": "230.08", "Molecular Formula": "C7H4BrNOS", "Melting Point": "226 \u00b0C"}}