{"cas_no": "62265-68-3", "cn_name": "\u55b9\u6cd5\u7c73\u7279", "en_name": ["Quinfamide", "2-Furancarboxylic acid, 1-(2,2-dichloroacetyl)-1,2,3,4-tetrahydro-6-quinolinyl ester", "2-Furancarboxylic acid, 1-(dichloroacetyl)-1,2,3,4-tetrahydro-6-quinolinyl ester", "Quinfamide", "Win 40014", "Amenide", "Amenox", "1-(2,2-Dichloroacetyl)-1,2,3,4-tetrahydroquinolin-6-yl furan-2-carboxylate"], "SMILES": "C(C(Cl)Cl)(=O)N1C=2C(=CC(OC(=O)C3=CC=CO3)=CC2)CCC1", "physical_data": {"Molecular Weight": "354.18", "Molecular Formula": "C16H13Cl2NO4", "Melting Point": "150.5-151 \u00b0C"}}