{"cas_no": "62269-44-7", "cn_name": "3-\u4e09\u7532\u57fa\u7845\u6c27\u57fa-2-\u4e01\u70ef\u9178\u7532\u916f", "en_name": ["Methyl 3-[(trimethylsilyl)oxy]-2-butenoate", "2-Butenoic acid, 3-[(trimethylsilyl)oxy]-, methyl ester", "Methyl 3-[(trimethylsilyl)oxy]-2-butenoate", "Methyl 3-(trimethylsiloxy)-2-butenoate", "Methyl (Z/E)-3-((trimethylsilyl)oxy)but-2-enoate"], "SMILES": "O([Si](C)(C)C)C(=CC(OC)=O)C", "physical_data": {"Molecular Weight": "188.30", "Molecular Formula": "C8H16O3Si", "Boiling Point": "57-59 \u00b0C @ Press: 9 Torr", "Density": "0.939 g/cm\u00b3"}}