{"cas_no": "6226-25-1", "cn_name": "2,2,2-\u4e09\u6c1f\u4e59\u57fa\u4e09\u6c1f\u7532\u70f7\u78fa\u9178\u916f", "en_name": ["2,2,2-Trifluoroethyl trifluoromethanesulfonate", "Methanesulfonic acid, 1,1,1-trifluoro-, 2,2,2-trifluoroethyl ester", "Methanesulfonic acid, trifluoro-, 2,2,2-trifluoroethyl ester", "Ethanol, 2,2,2-trifluoro-, trifluoromethanesulfonate", "2,2,2-Trifluoroethyl trifluoromethanesulfonate", "2,2,2-Trifluoroethyl triflate", "2,2,2-Trifluoroethyl trifluoromethylsulfonate", "Trifluoromethanesulfonic acid 2,2,2-trifluoroethyl ester", "Trifluoro(trifluoromethanesulfonylmethoxy)methane"], "SMILES": "S(C(F)(F)F)(OCC(F)(F)F)(=O)=O", "physical_data": {"Molecular Weight": "232.10", "Molecular Formula": "C3H2F6O3S", "Boiling Point": "89-91 \u00b0C @ Press: 740 Torr"}}