{"cas_no": "6228-47-3", "cn_name": "\u4e09\u82ef\u57fa\u4e19\u57fa\u6eb4\u5316", "en_name": ["Propyltriphenylphosphonium bromide", "Phosphonium, triphenylpropyl-, bromide (1:1)", "Phosphonium, triphenylpropyl-, bromide", "Triphenylpropylphosphonium bromide", "Propyltriphenylphosphonium bromide", "n-Propyltriphenylphosphonium bromide", "NSC 50539", "Bromo(propyl)triphenylphosphorane"], "SMILES": "[P+](CCC)(C1=CC=CC=C1)(C2=CC=CC=C2)C3=CC=CC=C3.[Br-]", "physical_data": {"Molecular Weight": "", "Molecular Formula": "C21H22P.Br", "Melting Point": "229-230 \u00b0C"}}