{"cas_no": "6228-73-5", "cn_name": "\u73af\u4e19\u9170\u80fa", "en_name": ["Cyclopropanecarboxamide", "Cyclopropanecarboxamide", "Carbamoylcyclopropane", "Cyclopropylcarboxamide", "NSC 402033", "1-Cyclopropanecarboxamide"], "SMILES": "C(N)(=O)C1CC1", "physical_data": {"Molecular Weight": "85.10", "Molecular Formula": "C4H7NO", "Melting Point": "223.5-224.5 \u00b0C"}}