{"cas_no": "623-93-8", "cn_name": "5-\u58ec\u9187", "en_name": ["5-Nonanol", "5-Nonanol", "Dibutylcarbinol", "NSC 4552"], "SMILES": "C(CCCC)(CCCC)O", "physical_data": {"Molecular Weight": "144.25", "Molecular Formula": "C9H20O", "Boiling Point": "193 \u00b0C", "Melting Point": "51-52 \u00b0C", "Density": "0.823 g/cm\u00b3 @ Temp: 18 \u00b0C"}}