{"cas_no": "623-36-9", "cn_name": "2-\u7532\u57fa-2-\u620a\u70ef\u919b", "en_name": ["2-Methyl-2-pentenal", "2-Pentenal, 2-methyl-", "2-Methyl-2-pentenal", "\u03b1-Methyl-\u03b2-ethylacrolein", "2-Methyl-2-pentene-1-al", "2-Methyl-3-ethylacrolein", "\u03b2-Ethyl-\u03b1-methylacrolein", "2-Methyl-2-penten-1-al", "NSC 9464", "2,4-Dimethylcrotonaldehyde", "2-Methyl-2-pentanal"], "SMILES": "C(=CCC)(C=O)C", "physical_data": {"Molecular Weight": "98.14", "Molecular Formula": "C6H10O", "Boiling Point": "136.5 \u00b0C", "Density": "0.8626 g/cm\u00b3 @ Temp: 19 \u00b0C"}}