{"cas_no": "623-08-5", "cn_name": "N-\u7532\u57fa-\u5bf9\u7532\u57fa\u82ef\u80fa", "en_name": ["N-Methyl-p-toluidine", "Benzenamine, N,4-dimethyl-", "p-Toluidine, N-methyl-", "N,4-Dimethylbenzenamine", "N-Methyl-p-toluidine", "N-Methyl-4-methylaniline", "N,p-Dimethylaniline", "p,N-Dimethylaniline", "4-Methyl-N-methylaniline", "p-Methyl-N-methylaniline", "N,4-Dimethylaniline", "N-Methyl-p-methylaniline", "N-Methyl-p-tolylamine", "4-(Methylamino)toluene", "Methyl(4-methylphenyl)amine", "N-Methyl(4-methylphenyl)amine", "N-Methyl-p-toluydine", "N-(4-Methylphenyl)methylamine"], "SMILES": "N(C)C1=CC=C(C)C=C1", "physical_data": {"Molecular Weight": "121.18", "Molecular Formula": "C8H11N", "Boiling Point": "210 \u00b0C", "Melting Point": "128 \u00b0C", "Density": "0.9584 g/cm\u00b3 @ Temp: 25 \u00b0C"}}