{"cas_no": "623-51-8", "cn_name": "\u5def\u57fa\u4e59\u9178\u4e59\u916f", "en_name": ["Ethyl mercaptoacetate", "Acetic acid, 2-mercapto-, ethyl ester", "Acetic acid, mercapto-, ethyl ester", "Ethyl thioglycolate", "Ethyl mercaptoacetate", "Ethyl 2-mercaptoacetate", "Ethyl \u03b1-mercaptoacetate", "Mercaptoacetic acid ethyl ester", "Thioglycolic acid ethyl ester", "2-Mercaptoacetic acid ethyl ester", "Ethoxycarbonylmethanethiol", "Ethylthiomethyl acetate", "NSC 8834", "Sulfanylacetic acid ethyl ester", "Ethyl 2-sulfanylacetate", "Ethyl sulfanylacetate"], "SMILES": "C(OCC)(CS)=O", "physical_data": {"Molecular Weight": "120.17", "Molecular Formula": "C4H8O2S", "Boiling Point": "157 \u00b0C", "Density": "1.148 g/cm\u00b3 @ Temp: 26 \u00b0C"}}