{"cas_no": "623-33-6", "cn_name": "\u7518\u6c28\u9178\u4e59\u916f\u76d0\u9178\u76d0", "en_name": ["Glycine ethyl ester hydrochloride", "Glycine, ethyl ester, hydrochloride (1:1)", "Glycine, ethyl ester, hydrochloride", "Ethyl glycinate hydrochloride", "Glycine hydrochloride ethyl ester", "Ethyl aminoacetate hydrochloride", "Glycine ethyl ester monohydrochloride", "Ethyl 2-aminoacetate hydrochloride", "Glycine ethyl ester hydrochloride salt", "Aminoacetic acid ethyl ester hydrochloride", "281: PN: US20050107325 PAGE: 127 claimed protein", "Glycine ethyl ether hydrochloride", "279: PN: US20070105806 PAGE: 26 claimed protein", "(2-Ethoxy-2-oxoethyl)ammonium chloride", "27: PN: WO2010042547 PAGE: 47 claimed protein", "L-Glycine ether ester hydrochloride", "Glycine ethyl ester hydrochloride", "2-Ethoxy-2-oxoethan-1-aminium chloride"], "SMILES": "C(OCC)(CN)=O.Cl", "physical_data": {"Molecular Weight": "", "Molecular Formula": "C4H9NO2.ClH", "Melting Point": "145.2 \u00b0C", "Density": "1.371 g/cm\u00b3"}}