{"cas_no": "623-24-5", "cn_name": "1,4-\u4e8c(\u6eb4\u7532\u57fa)\u82ef", "en_name": ["1,4-Bis(bromomethyl)benzene", "Benzene, 1,4-bis(bromomethyl)-", "p-Xylene, \u03b1,\u03b1\u2032-dibromo-", "1,4-Bis(bromomethyl)benzene", "p-Xylylene dibromide", "p-Di(bromomethyl)benzene", "1,4-Di(bromomethyl)benzene", "\u03b1,\u03b1\u2032-Dibromo-p-xylene", "p-Bis(bromomethyl)benzene", "p-Xylylene bromide", "\u03b1,\u03b1\u2032-p-Xylene dibromide", "\u03b1,\u03b1\u2032-Dibromo-p-xylene", "1,4-Xylylene dibromide", "4-Bromomethylbenzyl bromide", "NSC 6226"], "SMILES": "C(Br)C1=CC=C(CBr)C=C1", "physical_data": {"Molecular Weight": "263.96", "Molecular Formula": "C8H8Br2", "Boiling Point": "245 \u00b0C", "Melting Point": "144.5 \u00b0C"}}