{"cas_no": "623-95-0", "cn_name": "1,3-\u4e8c\u4e19\u57fa\u8132", "en_name": ["N,N\u2032-Dipropylurea", "Urea, N,N\u2032-dipropyl-", "Urea, 1,3-dipropyl-", "N,N\u2032-Dipropylurea", "1,3-Di-n-propylurea", "1,3-Dipropylurea"], "SMILES": "C(NCCC)(NCCC)=O", "physical_data": {"Molecular Weight": "144.21", "Molecular Formula": "C7H16N2O", "Boiling Point": "255 \u00b0C", "Melting Point": "105 \u00b0C"}}