{"cas_no": "623-96-1", "cn_name": "\u78b3\u9178\u4e19\u916f", "en_name": ["Dipropyl carbonate", "Carbonic acid, dipropyl ester", "Dipropyl carbonate", "Propyl carbonate", "Di-n-propyl carbonate", "NSC 166495"], "SMILES": "C(OCCC)(OCCC)=O", "physical_data": {"Molecular Weight": "146.18", "Molecular Formula": "C7H14O3", "Boiling Point": "168 \u00b0C", "Melting Point": "&lt;25 \u00b0C", "Density": "0.9107 g/cm\u00b3 @ Temp: 50 \u00b0C"}}