{"cas_no": "623-17-6", "cn_name": "\u4e59\u9178\u7ce0\u916f", "en_name": ["Furfuryl acetate", "2-Furanmethanol, 2-acetate", "Furfuryl alcohol, acetate", "2-Furanmethanol, acetate", "Furfuryl acetate", "Acetic acid furfuryl ester", "2-(Acetoxymethyl)furan", "2-Furanmethyl acetate", "2-Furylmethyl acetate", "NSC 5585", "(Furan-2-yl)methyl acetate"], "SMILES": "C(OC(C)=O)C1=CC=CO1", "physical_data": {"Molecular Weight": "140.14", "Molecular Formula": "C7H8O3", "Boiling Point": "179 \u00b0C"}}