{"cas_no": "623-57-4", "cn_name": "3-\u4e8c\u7532\u80fa\u57fa-1,2-\u4e19\u4e8c\u9187", "en_name": ["3-(Dimethylamino)-1,2-propanediol", "1,2-Propanediol, 3-(dimethylamino)-", "3-(Dimethylamino)-1,2-propanediol", "Methicol", "1,2-Dihydroxy-3-(dimethylamino)propane", "(\u00b1)-3-(Dimethylamino)-1,2-propanediol", "NSC 8655"], "SMILES": "C(CN(C)C)(CO)O", "physical_data": {"Molecular Weight": "119.16", "Molecular Formula": "C5H13NO2", "Boiling Point": "216-220 \u00b0C"}}