{"cas_no": "623-03-0", "cn_name": "\u5bf9\u6c2f\u82ef\u8148", "en_name": ["4-Chlorobenzonitrile", "Benzonitrile, 4-chloro-", "Benzonitrile, p-chloro-", "4-Chlorobenzonitrile", "p-Chlorobenzonitrile", "p-Cyanochlorobenzene", "p-Chlorocyanobenzene", "1-Cyano-4-chlorobenzene", "4-Chlorocyanobenzene", "1-Chloro-4-cyanobenzene", "4-Chlorobenzonitril", "4-Cyanochlorobenzene", "4-Cyanophenyl chloride", "NSC 6111", "4-Chlorophenyl cyanide", "1-Chloro-4-benzonitrile", "4-Chlorobenzenitrile"], "SMILES": "C(#N)C1=CC=C(Cl)C=C1", "physical_data": {"Molecular Weight": "137.57", "Molecular Formula": "C7H4ClN", "Boiling Point": "223 \u00b0C", "Melting Point": "95 \u00b0C"}}