{"cas_no": "623-15-4", "cn_name": "4-(2-\u544b\u5583\u57fa)-3-\u4e01\u70ef-2-\u916e", "en_name": ["Furfurylideneacetone", "3-Buten-2-one, 4-(2-furanyl)-", "3-Buten-2-one, 4-(2-furyl)-", "4-(2-Furanyl)-3-buten-2-one", "Furfurylideneacetone", "Monofurfurylideneacetone", "4-(2-Furyl)-3-buten-2-one", "2-Furfurylideneacetone", "4-(2-Furyl)-3-butene-2-one", "Furfuralacetone", "1-(2-Furyl)but-1-en-3-one", "Furfurylidenacetone", "2-(3-Oxo-1-butenyl)furan", "NSC 2065", "NSC 6104", "NSC 643044", "2-(3-Oxobut-1-en-1-yl)furan", "4-(2-Furyl)buten-2-one"], "SMILES": "C(=CC(C)=O)C1=CC=CO1", "physical_data": {"Molecular Weight": "136.15", "Molecular Formula": "C8H8O2", "Boiling Point": "113 \u00b0C", "Melting Point": "39.5 \u00b0C"}}