{"cas_no": "623-25-6", "cn_name": "1,4-\u5bf9\u4e8c\u6c2f\u82c4", "en_name": ["\u03b1,\u03b1\u2032-Dichloro-p-xylene", "Benzene, 1,4-bis(chloromethyl)-", "p-Xylene, \u03b1,\u03b1\u2032-dichloro-", "1,4-Bis(chloromethyl)benzene", "p-Bis(chloromethyl)benzene", "p-Xylylene dichloride", "\u03b1,\u03b1\u2032-Dichloro-p-xylene", "p-Xylene-\u03b1,\u03b1\u2032-dichloride", "p-Dichloroxylylene", "p-Chloromethylbenzyl chloride", "4-(Chloromethyl)benzyl chloride", "\u03b1,\u03b1\u2032-Dichloro-p-xylol", "NSC 36976", "1,4-Di(chloromethyl)benzene", "p-Di(chloromethyl)benzene"], "SMILES": "C(Cl)C1=CC=C(CCl)C=C1", "physical_data": {"Molecular Weight": "175.06", "Molecular Formula": "C8H8Cl2", "Boiling Point": "254 \u00b0C", "Melting Point": "100 \u00b0C", "Density": "1.42 g/cm\u00b3"}}