{"cas_no": "623-73-4", "cn_name": "\u91cd\u6c2e\u4e59\u9178\u4e59\u916f", "en_name": ["Ethyl diazoacetate", "Acetic acid, 2-diazo-, ethyl ester", "Acetic acid, diazo-, ethyl ester", "Diazoacetic acid ethyl ester", "Ethyl diazoacetate", "Ethoxycarbonyldiazomethane", "Ethyl 2-diazoacetate", "Diazoacetic ester", "DAAE", "Ethyl 2-diazoethanoate", "NSC 79147", "2-Diazo-1-ethoxyethanone", "Ethyl \u03b1-diazoacetate", "Ethanediazonium, 2-ethoxy-2-oxo-, inner salt"], "SMILES": "C(C=[N+]=[N-])(OCC)=O", "physical_data": {"Molecular Weight": "", "Molecular Formula": "C4H6N2O2", "Boiling Point": "145 \u00b0C", "Melting Point": "-22 \u00b0C"}}