{"cas_no": "623-76-7", "cn_name": "1,3-\u4e8c\u4e59\u57fa\u8132", "en_name": ["N,N\u2032-Diethylurea", "Urea, N,N\u2032-diethyl-", "Urea, 1,3-diethyl-", "N,N\u2032-Diethylurea", "1,3-Diethylurea", "sym-Diethylurea", "NSC 429"], "SMILES": "C(NCC)(NCC)=O", "physical_data": {"Molecular Weight": "116.16", "Molecular Formula": "C5H12N2O", "Boiling Point": "263 \u00b0C", "Melting Point": "112.5 \u00b0C"}}