{"cas_no": "623-69-8", "cn_name": "1,3-\u4e8c\u7532\u6c27\u57fa-2-\u4e19\u9187", "en_name": ["1,3-Dimethoxy-2-propanol", "2-Propanol, 1,3-dimethoxy-", "1,3-Dimethoxy-2-propanol", "Glycerol 1,3-dimethyl ether", "1,3-Dimethoxy-2-hydroxypropane", "NSC 263483", "1,3-Dimethoxypropane-2-ol"], "SMILES": "C(COC)(COC)O", "physical_data": {"Molecular Weight": "120.15", "Molecular Formula": "C5H12O3", "Boiling Point": "169 \u00b0C", "Density": "1.0085 g/cm\u00b3 @ Temp: 20 \u00b0C"}}