{"cas_no": "623-78-9", "cn_name": "N-\u4e59\u57fa\u5c3f\u70f7", "en_name": ["Carbamic acid, N-ethyl-, ethyl ester", "Carbamic acid, N-ethyl-, ethyl ester", "Carbamic acid, ethyl-, ethyl ester", "N-Ethylurethane", "Ethyl ethylcarbamate", "NSC 440", "N-Ethylcarbamic acid ethyl ester"], "SMILES": "C(NCC)(OCC)=O", "physical_data": {"Molecular Weight": "117.15", "Molecular Formula": "C5H11NO2", "Boiling Point": "176 \u00b0C @ Press: 760 Torr", "Density": "0.9813 g/cm\u00b3 @ Temp: 20 \u00b0C"}}