{"cas_no": "623-68-7", "cn_name": "\u5df4\u8c46\u9178\u9150", "en_name": ["2-Butenoic acid, 1,1\u2032-anhydride", "2-Butenoic acid, 1,1\u2032-anhydride", "Crotonic anhydride", "2-Butenoic acid, anhydride", "Crotonic acid anhydride", "2-Butenoic anhydride", "NSC 97397"], "SMILES": "C(OC(C=CC)=O)(C=CC)=O", "physical_data": {"Molecular Weight": "154.16", "Molecular Formula": "C8H10O3", "Boiling Point": "246-248 \u00b0C @ Press: 766 Torr", "Melting Point": "72 \u00b0C", "Density": "1.0397 g/cm\u00b3 @ Temp: 20 \u00b0C"}}