{"cas_no": "623-47-2", "cn_name": "\u4e19\u7094\u9178\u4e59\u916f", "en_name": ["Ethyl propiolate", "2-Propynoic acid, ethyl ester", "Propiolic acid, ethyl ester", "Ethyl 2-propynoate", "Ethyl propiolate", "Ethyl propynoate", "Ethyl acetylenecarboxylate", "(Ethoxycarbonyl)acetylene", "Carboethoxyacetylene", "Ethyl acetylenemonocarboxylate", "Ethyl propargylate", "NSC 60551", "Propynoic acid ethyl ester", "Propargylic acid ethyl ester"], "SMILES": "C(OCC)(C#C)=O", "physical_data": {"Molecular Weight": "98.10", "Molecular Formula": "C5H6O2", "Boiling Point": "120 \u00b0C"}}