{"cas_no": "623-84-7", "cn_name": "1,2-\u4e19\u4e8c\u9187\u4e8c\u4e59\u9178\u916f", "en_name": ["Propylene glycol diacetate", "1,2-Propanediol, 1,2-diacetate", "1,2-Propanediol, diacetate", "Propylene glycol diacetate", "\u03b1-Propylene glycol diacetate", "1,2-Propylene diacetate", "Methylethylene acetate", "Methylethylene diacetate", "1,2-Diacetoxypropane", "1,2-Propylene glycol diacetate", "Propylene acetate", "Propylene diacetate", "Dowanol PGDA", "(\u00b1)-1,2-Diacetoxypropane", "NSC 75843", "PGDA (solvent)", "PDGA", "2-Acetyloxypropyl acetate"], "SMILES": "C(COC(C)=O)(OC(C)=O)C", "physical_data": {"Molecular Weight": "160.17", "Molecular Formula": "C7H12O4", "Boiling Point": "190 \u00b0C @ Press: 762 Torr", "Density": "1.059 g/cm\u00b3 @ Temp: 20 \u00b0C"}}