{"cas_no": "623-50-7", "cn_name": "\u4e59\u9187\u9178\u4e59\u916f", "en_name": ["Ethyl glycolate", "Acetic acid, 2-hydroxy-, ethyl ester", "Glycolic acid, ethyl ester", "Acetic acid, hydroxy-, ethyl ester", "Ethyl glycolate", "Ethyl hydroxyacetate", "NSC 8835", "2-Hydroxyacetic acid ethyl ester", "Ethyl 2-hydroxyacetate"], "SMILES": "C(OCC)(CO)=O", "physical_data": {"Molecular Weight": "104.10", "Molecular Formula": "C4H8O3", "Boiling Point": "160 \u00b0C", "Density": "1.0869 g/cm\u00b3"}}