{"cas_no": "623-56-3", "cn_name": "\u4e59\u57fa\u5f02\u4e01\u916e", "en_name": ["5-Methyl-3-hexanone", "3-Hexanone, 5-methyl-", "5-Methyl-3-hexanone", "Ethyl isobutyl ketone", "Isobutyl ethyl ketone", "2-Methyl-4-hexanone"], "SMILES": "C(CC(C)C)(CC)=O", "physical_data": {"Molecular Weight": "114.19", "Molecular Formula": "C7H14O", "Boiling Point": "135 \u00b0C", "Density": "0.8090 g/cm\u00b3 @ Temp: 20 \u00b0C"}}