{"cas_no": "623-05-2", "cn_name": "\u5bf9\u7f9f\u57fa\u82ef\u7532\u9187", "en_name": ["4-Hydroxybenzyl alcohol", "Benzenemethanol, 4-hydroxy-", "Benzyl alcohol, p-hydroxy-", "4-Hydroxybenzenemethanol", "p-Hydroxybenzyl alcohol", "4-Methylolphenol", "4-Hydroxybenzyl alcohol", "p-Methylolphenol", "4-(Hydroxymethyl)phenol", "\u03b1-Hydroxy-p-cresol", "p-(Hydroxymethyl)phenol", "Gastrodigenin", "(4-Hydroxyphenyl)methanol", "p-Methoxytoluol", "NSC 227926", "p-Hydroxybenzenemethanol", "p-2-Hydroxybenzyl alcohol"], "SMILES": "C(O)C1=CC=C(O)C=C1", "physical_data": {"Molecular Weight": "124.14", "Molecular Formula": "C7H8O2", "Boiling Point": "252 \u00b0C", "Melting Point": "124.5 \u00b0C"}}