{"cas_no": "623-11-0", "cn_name": "\u5bf9\u785d\u57fa\u7532\u82ef", "en_name": ["1-Methyl-4-nitrosobenzene", "Benzene, 1-methyl-4-nitroso-", "Toluene, p-nitroso-", "1-Methyl-4-nitrosobenzene", "p-Nitrosotoluene", "p-Methylnitrosobenzene", "4-Nitrosotoluene", "4-Methylnitrosobenzene", "4-Methyl-1-nitrosobenzene"], "SMILES": "N(=O)C1=CC=C(C)C=C1", "physical_data": {"Molecular Weight": "121.14", "Molecular Formula": "C7H7NO", "Melting Point": "48 \u00b0C"}}