{"cas_no": "623-70-1", "cn_name": "\u5df4\u8c46\u9178\u4e59\u916f", "en_name": ["Ethyl trans-crotonate", "2-Butenoic acid, ethyl ester, (2E)-", "Crotonic acid, ethyl ester, (E)-", "2-Butenoic acid, ethyl ester, (E)-", "trans-2-Butenoic acid ethyl ester", "Ethyl trans-crotonate", "Ethyl (E)-crotonate", "(E)-2-Butenoic acid ethyl ester", "Ethyl (E)-2-butenoate", "Ethyl trans-2-butenoate", "(E)-Ethyl but-2-enoate", "trans-Crotonic acid ethyl ester", "Ethyl (2E)-but-2-enoate", "Ethyl (2E)-but-2-enoate"], "SMILES": "C(C=CC)(OCC)=O", "physical_data": {"Molecular Weight": "114.14", "Molecular Formula": "C6H10O2", "Boiling Point": "138 \u00b0C", "Density": "0.9210 g/cm\u00b3 @ Temp: 18 \u00b0C"}}