{"cas_no": "623-00-7", "cn_name": "4-\u6eb4\u82ef\u8148", "en_name": ["4-Bromobenzonitrile", "Benzonitrile, 4-bromo-", "Benzonitrile, p-bromo-", "4-Bromobenzonitrile", "p-Bromobenzonitrile", "1-Bromo-4-cyanobenzene", "p-Cyanophenyl bromide", "p-Bromocyanobenzene", "4-Bromocyanobenzene", "4-Cyanophenyl bromide", "p-Cyanobromobenzene", "NSC 3978", "4-Cyanobromobenzene", "4-Bromophenylcarbonitrile", "4-Bromophenyl cyanide", "4-Cyano-1-bromobenzene", "1-Bromo-4-benzonitrile", "1-Cyano-4-bromobenzene", "4-Bromobenzenitrile"], "SMILES": "C(#N)C1=CC=C(Br)C=C1", "physical_data": {"Molecular Weight": "182.02", "Molecular Formula": "C7H4BrN", "Boiling Point": "236 \u00b0C", "Melting Point": "114 \u00b0C"}}