{"cas_no": "623-98-3", "cn_name": "\u4e9e\u786b\u9178\u4e8c\u4e19\u916f", "en_name": ["Sulfurous acid, dipropyl ester", "Sulfurous acid, dipropyl ester", "Propyl sulfite", "Dipropyl sulfite"], "SMILES": "S(OCCC)(OCCC)=O", "physical_data": {"Molecular Weight": "166.24", "Molecular Formula": "C6H14O3S", "Boiling Point": "74 \u00b0C @ Press: 12 Torr"}}