{"cas_no": "623-66-5", "cn_name": "\u8f9b\u9178\u9150", "en_name": ["Octanoic anhydride", "Octanoic acid, 1,1\u2032-anhydride", "Octanoic anhydride", "Octanoic acid, anhydride", "Caprylic anhydride", "Octanoyl anhydride", "Caprylic acid anhydride", "NSC 57372"], "SMILES": "C(OC(CCCCCCC)=O)(CCCCCCC)=O", "physical_data": {"Molecular Weight": "270.41", "Molecular Formula": "C16H30O3", "Boiling Point": "282.5 \u00b0C", "Melting Point": "-1 \u00b0C", "Density": "0.8649 g/cm\u00b3 @ Temp: 70 \u00b0C"}}