{"cas_no": "623-65-4", "cn_name": "\u68d5\u6988\u9178\u9150", "en_name": ["Palmitic anhydride", "Hexadecanoic acid, 1,1\u2032-anhydride", "Palmitic anhydride", "Hexadecanoic acid, anhydride", "Hexadecanoic anhydride", "Palmitic acid anhydride", "Palmitoyl anhydride", "NSC 285112"], "SMILES": "C(OC(CCCCCCCCCCCCCCC)=O)(CCCCCCCCCCCCCCC)=O", "physical_data": {"Molecular Weight": "494.83", "Molecular Formula": "C32H62O3", "Melting Point": "64 \u00b0C", "Density": "0.8383 g/cm\u00b3 @ Temp: 83 \u00b0C"}}