{"cas_no": "623-49-4", "cn_name": "\u6c30\u57fa\u7532\u9178\u4e59\u916f", "en_name": ["Ethyl cyanoformate", "Carbonocyanidic acid, ethyl ester", "Formic acid, cyano-, ethyl ester", "Ethyl cyanoformate", "Ethoxycarbonyl cyanide", "Cyanoformic acid ethyl ester", "NSC 65347", "Cyanocarbonyloxyethane", "Ethyl carbonocyanidate", "2-Ethoxy-2-oxoacetonitrile"], "SMILES": "C(OCC)(C#N)=O", "physical_data": {"Molecular Weight": "99.09", "Molecular Formula": "C4H5NO2", "Boiling Point": "115.5 \u00b0C", "Density": "1.0112 g/cm\u00b3 @ Temp: 20 \u00b0C"}}