{"cas_no": "623-09-6", "cn_name": "N-\u7532\u57fa\u5bf9\u82ef\u4e8c\u80fa", "en_name": ["N-Methyl-p-phenylenediamine", "1,4-Benzenediamine, N1-methyl-", "p-Phenylenediamine, N-methyl-", "1,4-Benzenediamine, N-methyl-", "N1-Methyl-1,4-benzenediamine", "N-Methyl-p-phenylenediamine", "p-(Methylamino)aniline", "N-Methyl-1,4-phenylenediamine", "4-(Methylamino)aniline", "N-Methylbenzene-1,4-diamine", "1-N-Methylbenzene-1,4-diamine"], "SMILES": "N(C)C1=CC=C(N)C=C1", "physical_data": {"Molecular Weight": "122.17", "Molecular Formula": "C7H10N2", "Boiling Point": "258 \u00b0C", "Melting Point": "36 \u00b0C"}}