{"cas_no": "623-71-2", "cn_name": "3-\u6c2f\u4e19\u9178\u4e59\u916f", "en_name": ["Propanoic acid, 3-chloro-, ethyl ester", "Propanoic acid, 3-chloro-, ethyl ester", "Propionic acid, 3-chloro-, ethyl ester", "Ethyl 3-chloropropionate", "Ethyl 3-chloropropanoate", "Ethyl \u03b2-chloropropionate", "3-Chloropropionic acid ethyl ester", "NSC 8845"], "SMILES": "C(CCCl)(OCC)=O", "physical_data": {"Molecular Weight": "136.58", "Molecular Formula": "C5H9ClO2", "Boiling Point": "162 \u00b0C", "Density": "1.1141 g/cm\u00b3 @ Temp: 15 \u00b0C"}}