{"cas_no": "623-37-0", "cn_name": "3-\u5df1\u9187", "en_name": ["3-Hexanol", "3-Hexanol", "3-Hexyl alcohol", "(\u00b1)-3-Hexanol", "DL-3-Hexanol", "NSC 60708", "1-Ethylbutanol"], "SMILES": "C(CCC)(CC)O", "physical_data": {"Molecular Weight": "102.17", "Molecular Formula": "C6H14O", "Boiling Point": "134.75 \u00b0C", "Density": "0.8213 g/cm\u00b3 @ Temp: 20 \u00b0C"}}