{"cas_no": "623-26-7", "cn_name": "\u5bf9\u82ef\u4e8c\u8148", "en_name": ["1,4-Dicyanobenzene", "1,4-Benzenedicarbonitrile", "Terephthalonitrile", "1,4-Dicyanobenzene", "p-Dicyanobenzene", "p-Phthalodinitrile", "p-Benzenedinitrile", "Terephthalodinitrile", "4-Cyanobenzonitrile", "Terephthalic acid dinitrile", "1,4-Benzodinitrile", "p-Phthalonitrile", "p-Cyanobenzonitrile", "1,4-Bis(cyano)benzene", "p-Benzenedicarbonitrile", "NSC 144977", "NSC 78439"], "SMILES": "C(#N)C1=CC=C(C#N)C=C1", "physical_data": {"Molecular Weight": "128.13", "Molecular Formula": "C8H4N2", "Boiling Point": "285 \u00b0C", "Melting Point": "224 \u00b0C"}}