{"cas_no": "623-46-1", "cn_name": "1,2-\u4e8c\u6c2f\u4e59\u6c27\u57fa\u4e59\u70f7", "en_name": ["1,2-Dichloro-1-ethoxyethane", "Ethane, 1,2-dichloro-1-ethoxy-", "Ether, 1,2-dichloroethyl ethyl", "1,2-Dichloro-1-ethoxyethane", "1,2-Dichloroethyl ethyl ether", "1,2-Dichloro-2-ethoxyethane", "\u03b1,\u03b2-Dichloroethyl ethyl ether", "NSC 163477"], "SMILES": "C(OCC)(CCl)Cl", "physical_data": {"Molecular Weight": "143.01", "Molecular Formula": "C4H8Cl2O", "Boiling Point": "145 \u00b0C", "Density": "1.1870 g/cm\u00b3 @ Temp: 20 \u00b0C"}}