{"cas_no": "623-48-3", "cn_name": "\u7898\u4ee3\u4e59\u9178\u4e59\u916f", "en_name": ["Ethyl 2-iodoacetate", "Acetic acid, 2-iodo-, ethyl ester", "Acetic acid, iodo-, ethyl ester", "Ethyl 2-iodoacetate", "Ethyl monoiodoacetate", "Ethyl iodoacetate", "Iodoacetic acid ethyl ester", "KSK", "NSC 58809"], "SMILES": "C(OCC)(CI)=O", "physical_data": {"Molecular Weight": "214.00", "Molecular Formula": "C4H7IO2", "Boiling Point": "179 \u00b0C", "Melting Point": "&lt;25 \u00b0C", "Density": "1.762 g/cm\u00b3 @ Temp: 24 \u00b0C"}}