{"cas_no": "623-42-7", "cn_name": "\u4e01\u9178\u7532\u916f", "en_name": ["Methyl butyrate", "Butanoic acid, methyl ester", "Butyric acid, methyl ester", "Butyric acid, ester with MeOH", "Methyl butyrate", "Methyl n-butyrate", "Methyl butanoate", "3-Methylpropanoic acid methyl ester", "NSC 9380"], "SMILES": "C(CCC)(OC)=O", "physical_data": {"Molecular Weight": "102.13", "Molecular Formula": "C5H10O2", "Boiling Point": "102.8 \u00b0C @ Press: 760 Torr", "Melting Point": "-85.8 \u00b0C", "Density": "0.8984 g/cm\u00b3 @ Temp: 20 \u00b0C"}}