{"cas_no": "623-59-6", "cn_name": "1-\u4e59\u9170-3-\u7532\u57fa\u8132", "en_name": ["N-[(Methylamino)carbonyl]acetamide", "Acetamide, N-[(methylamino)carbonyl]-", "Urea, 1-acetyl-3-methyl-", "N-[(Methylamino)carbonyl]acetamide", "N\u2032-Methyl-N-acetylurea", "1-Acetyl-3-methylurea", "N-Methyl-N\u2032-acetylurea", "N-Acetyl-N\u2032-methylurea", "1-Methyl-3-acetylurea", "NSC 7608"], "SMILES": "C(NC(C)=O)(NC)=O", "physical_data": {"Molecular Weight": "116.12", "Molecular Formula": "C4H8N2O2", "Melting Point": "180.5 \u00b0C"}}