{"cas_no": "623-82-5", "cn_name": "(+)-3-\u7532\u57fa\u5df2\u4e8c\u9178", "en_name": ["(3R)-3-Methylhexanedioic acid", "Hexanedioic acid, 3-methyl-, (3R)-", "Hexanedioic acid, 3-methyl-, (R)-(+)-", "Hexanedioic acid, 3-methyl-, (R)-", "(3R)-3-Methylhexanedioic acid", "(R)-3-Methyladipic acid", "(+)-3-Methyladipic acid", "(R)-3-Methyl-1,6-hexanedioic acid", "(R)-(+)-3-Methyladipic acid", "R-(+)-3-Methyladipic acid", "(R)-3-Methylcyclohexanedicarboxylic acid"], "SMILES": "C(CCC(O)=O)(CC(O)=O)C", "physical_data": {"Molecular Weight": "160.17", "Molecular Formula": "C7H12O4", "Melting Point": "84.6-85.6 \u00b0C"}}