{"cas_no": "623-19-8", "cn_name": "\u4e19\u91782-\u544b\u5583\u7532\u916f", "en_name": ["Furfuryl propanoate", "2-Furanmethanol, 2-propanoate", "Furfuryl alcohol, propionate", "2-Furanmethanol, propanoate", "Furfuryl propionate", "2-Furanmethanol propionate", "Furfuryl propanoate", "NSC 35556", "(Furan-2-yl)methyl propanoate"], "SMILES": "C(OC(CC)=O)C1=CC=CO1", "physical_data": {"Molecular Weight": "154.16", "Molecular Formula": "C8H10O3", "Boiling Point": "195 \u00b0C"}}