{"cas_no": "623-12-1", "cn_name": "4-\u6c2f\u82ef\u7532\u919a", "en_name": ["4-Chloroanisole", "Benzene, 1-chloro-4-methoxy-", "Anisole, p-chloro-", "1-Chloro-4-methoxybenzene", "p-Chloroanisole", "p-Chlorophenyl methyl ether", "4-Chloroanisole", "4-Chlorophenol methyl ether", "Anisyl chloride", "p-Chloromethoxybenzene", "p-Methoxychlorobenzene", "4-Methoxychlorobenzene", "4-Methoxyphenyl chloride", "p-Methoxyphenyl chloride", "1-Methoxy-4-chlorobenzene", "NSC 4129", "4-Methoxy-1-chlorobenzene", "4-Chlorophenyl methyl ether", "4-Chloro-1-methoxybenzene"], "SMILES": "O(C)C1=CC=C(Cl)C=C1", "physical_data": {"Molecular Weight": "142.58", "Molecular Formula": "C7H7ClO", "Boiling Point": "197.5 \u00b0C", "Melting Point": "&lt;-18 \u00b0C"}}