{"cas_no": "623-91-6", "cn_name": "\u5bcc\u9a6c\u9178\u4e8c\u4e59\u916f", "en_name": ["Diethyl fumarate", "2-Butenedioic acid (2E)-, 1,4-diethyl ester", "Fumaric acid, diethyl ester", "2-Butenedioic acid (E)-, diethyl ester", "2-Butenedioic acid (2E)-, diethyl ester", "Diethyl fumarate", "Ethyl fumarate", "NSC 20954", "(2E)-2-Butenedioic acid diethyl ester", "(E)-But-2-enedioic acid diethyl ester", "Diethyl (E)-but-2-enedioate", "Diethyl fumaric acid ester"], "SMILES": "C(C=CC(OCC)=O)(OCC)=O", "physical_data": {"Molecular Weight": "172.18", "Molecular Formula": "C8H12O4", "Boiling Point": "218.5 \u00b0C", "Melting Point": "0.6 \u00b0C", "Density": "1.0529 g/cm\u00b3"}}