{"cas_no": "623-58-5", "cn_name": "3-\u6c27\u4ee3\u4e01\u9178\u94a0\u76d0", "en_name": ["Butanoic acid, 3-oxo-, sodium salt (1:1)", "Butanoic acid, 3-oxo-, sodium salt (1:1)", "Acetoacetic acid, sodium salt", "Butanoic acid, 3-oxo-, sodium salt", "Sodium acetoacetate"], "SMILES": "C(C(C)=O)C(O)=O.[Na]", "physical_data": {"Molecular Weight": "", "Molecular Formula": "C4H6O3.Na", "Boiling Point": "52 \u00b0C @ Press: 5 Torr"}}