{"cas_no": "623-53-0", "cn_name": "\u78b3\u9178\u7532\u4e59\u916f", "en_name": ["Ethyl methyl carbonate", "Carbonic acid, ethyl methyl ester", "Ethyl methyl carbonate", "Methyl ethyl carbonate", "EMC", "Ethylene methyl carbonate"], "SMILES": "C(OCC)(OC)=O", "physical_data": {"Molecular Weight": "104.10", "Molecular Formula": "C4H8O3", "Boiling Point": "106.5-107 \u00b0C", "Melting Point": "-53.8 \u00b0C"}}