{"cas_no": "623-27-8", "cn_name": "\u5bf9\u82ef\u4e8c\u7532\u919b", "en_name": ["1,4-Benzenedicarboxaldehyde", "1,4-Benzenedicarboxaldehyde", "Terephthalaldehyde", "Terephthalic aldehyde", "1,4-Diformylbenzene", "p-Benzenedicarboxaldehyde", "4-Formylbenzaldehyde", "p-Formylbenzaldehyde", "Terephthaldialdehyde", "1,4-Benzenedialdehyde", "1,4-Benzenedicarbaldehyde", "p-Phthaldialdehyde", "p-Benzenedialdehyde", "p-Diformylbenzene", "NSC 13395", "Terephthaldicarbaldehyde", "1,4-Terephthaldicarbaldehyde", "TPAL", "Terephthal"], "SMILES": "C(=O)C1=CC=C(C=O)C=C1", "physical_data": {"Molecular Weight": "134.13", "Molecular Formula": "C8H6O2", "Boiling Point": "246 \u00b0C", "Melting Point": "117 \u00b0C", "Density": "1.519 g/cm\u00b3"}}