{"cas_no": "623-13-2", "cn_name": "1-\u7532\u57fa-4-\u7532\u786b\u57fa\u82ef", "en_name": ["Methyl p-tolyl sulfide", "Benzene, 1-methyl-4-(methylthio)-", "Sulfide, methyl p-tolyl", "1-Methyl-4-(methylthio)benzene", "4-(Methylthio)toluene", "p-(Methylthio)toluene", "p-Methylphenyl methyl sulfide", "Methyl 4-methylphenyl sulfide", "p-Tolyl methyl sulfide", "p-Methylthioanisole", "4-Methylthioanisole", "Methyl p-tolyl sulfide", "Methyl p-methylphenyl sulfide", "NSC 6256", "Methyl 4-tolyl sulfane", "(4-Methylphenyl) methyl sulfide", "4-(Methylsulfanyl)toluene", "1-Methyl-4-(methylsulfanyl)benzene", "Methyl(p-tolyl)sulfane"], "SMILES": "S(C)C1=CC=C(C)C=C1", "physical_data": {"Molecular Weight": "138.23", "Molecular Formula": "C8H10S", "Boiling Point": "94 \u00b0C @ Press: 31 Torr", "Density": "1.0302 g/cm\u00b3 @ Temp: 16 \u00b0C"}}