{"cas_no": "623-81-4", "cn_name": "\u4e9a\u786b\u9178\u4e8c\u4e59\u916f", "en_name": ["Diethyl sulfite", "Sulfurous acid, diethyl ester", "Ethyl sulfite", "Diethyl sulfite", "NSC 8838"], "SMILES": "S(OCC)(OCC)=O", "physical_data": {"Molecular Weight": "138.19", "Molecular Formula": "C4H10O3S", "Boiling Point": "158 \u00b0C", "Density": "1.1054 g/cm\u00b3 @ Temp: 0 \u00b0C"}}