{"cas_no": "623-97-2", "cn_name": "\u4e59\u9187-2-\u6c2f\u78b3\u9178\u916f(2:1)", "en_name": ["Ethanol, 2-chloro-, 1,1\u2032-carbonate", "Ethanol, 2-chloro-, 1,1\u2032-carbonate", "Carbonic acid, bis(2-chloroethyl) ester", "Ethanol, 2-chloro-, carbonate (2:1)", "Bis(2-chloroethyl) carbonate", "NSC 6290"], "SMILES": "C(OCCCl)(OCCCl)=O", "physical_data": {"Molecular Weight": "187.02", "Molecular Formula": "C5H8Cl2O3", "Boiling Point": "241 \u00b0C", "Melting Point": "8 \u00b0C", "Density": "1.3506 g/cm\u00b3 @ Temp: 20 \u00b0C"}}