{"cas_no": "623-43-8", "cn_name": "\u5df4\u8c46\u9178\u7532\u916f", "en_name": ["Methyl E-crotonate", "2-Butenoic acid, methyl ester, (2E)-", "Crotonic acid, methyl ester, (E)-", "2-Butenoic acid, methyl ester, (E)-", "trans-2-Butenoic acid methyl ester", "Methyl trans-crotonate", "Methyl trans-2-butenoate", "Methyl E-propene-1-carboxylate", "Methyl E-crotonate", "(E)-Crotonic acid methyl ester", "Methyl (E)-2-butenoate", "(E)-2-Butenoic acid methyl ester", "(2E)-2-Butenoic acid methyl ester", "(E)-Methyl but-2-enoate", "Methyl (E)-crotonate"], "SMILES": "C(C=CC)(OC)=O", "physical_data": {"Molecular Weight": "100.12", "Molecular Formula": "C5H8O2", "Boiling Point": "121 \u00b0C", "Melting Point": "-42 \u00b0C"}}