{"cas_no": "623-04-1", "cn_name": "\u5bf9\u6c28\u57fa\u82ef\u7532\u9187", "en_name": ["4-Aminobenzyl alcohol", "Benzenemethanol, 4-amino-", "Benzyl alcohol, p-amino-", "4-Aminobenzenemethanol", "p-Aminobenzyl alcohol", "4-Aminobenzyl alcohol", "4-(Hydroxymethyl)aniline", "(4-Aminophenyl)methanol", "(p-Aminophenyl)methanol", "1-(p-Aminophenyl)methanol", "4-Hydroxymethylphenylamine", "2: PN: WO2023061224 PAGE: 35 claimed sequence"], "SMILES": "C(O)C1=CC=C(N)C=C1", "physical_data": {"Molecular Weight": "123.15", "Molecular Formula": "C7H9NO", "Melting Point": "63-64 \u00b0C"}}