{"cas_no": "623-30-3", "cn_name": "2-\u544b\u5583\u4e19\u70ef\u919b", "en_name": ["2-Furanacrolein", "2-Propenal, 3-(2-furanyl)-", "2-Furanacrolein", "3-(2-Furanyl)-2-propenal", "\u03b2-2-Furylacrolein", "3-(2-Furyl)acrolein", "3-(\u03b1-Furyl)propenal", "1-(2-Furanyl)-1-propen-3-al", "3-(2-Furyl)-2-propenal", "2-(2-Formylvinyl)furan", "NSC 2061", "NSC 26338", "3-(2-Furan)-acrolein", "3-(2-Furanyl)acrolein"], "SMILES": "C(=CC=O)C1=CC=CO1", "physical_data": {"Molecular Weight": "122.12", "Molecular Formula": "C7H6O2", "Boiling Point": "135 \u00b0C", "Melting Point": "54 \u00b0C"}}