{"cas_no": "6230-11-1", "cn_name": "4-\u7532\u6c27\u57fa-L-\u82ef\u4e19\u6c28\u9178", "en_name": ["O-Methyl-L-tyrosine", "L-Tyrosine, O-methyl-", "Alanine, 3-(p-methoxyphenyl)-, L-", "O-Methyl-L-tyrosine", "O-Methyltyrosine", "p-Methoxy-L-phenylalanine", "\u03b2-(4-Methoxyphenyl)-L-alanine", "L-4-Methoxyphenylalanine", "L-O-Methyltyrosine", "NSC 30082", "L-Tyrosine methyl ether", "(S)-2-Amino-3-(4-methoxyphenyl)propanoic acid", "(2S)-2-Amino-3-(4-methoxyphenyl)propanoic acid"], "SMILES": "C(C(C(O)=O)N)C1=CC=C(OC)C=C1", "physical_data": {"Molecular Weight": "195.22", "Molecular Formula": "C10H13NO3", "Melting Point": "295 \u00b0C"}}