{"cas_no": "6231-18-1", "cn_name": "2,6-\u4e8c\u7532\u6c27\u57fa\u5421\u5576", "en_name": ["2,6-Dimethoxypyridine", "Pyridine, 2,6-dimethoxy-", "2,6-Dimethoxypyridine"], "SMILES": "O(C)C=1N=C(OC)C=CC1", "physical_data": {"Molecular Weight": "139.15", "Molecular Formula": "C7H9NO2", "Boiling Point": "179 \u00b0C"}}