{"cas_no": "6232-88-8", "cn_name": "\u5bf9\u6eb4\u7532\u57fa\u82ef\u7532\u9178", "en_name": ["4-(Bromomethyl)benzoic acid", "Benzoic acid, 4-(bromomethyl)-", "p-Toluic acid, \u03b1-bromo-", "4-(Bromomethyl)benzoic acid", "p-(Bromomethyl)benzoic acid", "\u03b1-Bromo-p-toluic acid", "p-Carboxybenzyl bromide", "4-Carboxybenzyl bromide", "NSC 56891"], "SMILES": "C(O)(=O)C1=CC=C(CBr)C=C1", "physical_data": {"Molecular Weight": "215.04", "Molecular Formula": "C8H7BrO2", "Melting Point": "228-232 \u00b0C"}}