{"cas_no": "6232-92-4", "cn_name": "2-\u6c28\u57fa-6-\u785d\u57fa\u82ef\u5e76\u54aa\u5511", "en_name": ["2-Amino-5-nitrobenzimidazole", "1H-Benzimidazol-2-amine, 6-nitro-", "Benzimidazole, 2-amino-5-nitro-", "1H-Benzimidazol-2-amine, 5-nitro-", "Benzimidazole, 2-amino-5(or 6)-nitro-", "6-Nitro-1H-benzimidazol-2-amine", "2-Amino-5-nitrobenzimidazole", "5-Nitro-2-benzimidazolamine", "NSC 287065", "2-Amino-6-nitrobenzimidazole", "5-Nitro-1H-benzimidazol-2-amine"], "SMILES": "N(=O)(=O)C=1C=C2C(=CC1)N=C(N)N2", "physical_data": {"Molecular Weight": "178.15", "Molecular Formula": "C7H6N4O2", "Melting Point": "222-223 \u00b0C (decomp)"}}