{"cas_no": "6232-19-5", "cn_name": "\u03b2-\u6c30\u57fa-L-\u4e19\u6c28\u9178", "en_name": ["\u03b2-Cyano-L-alanine", "L-Alanine, 3-cyano-", "Alanine, 3-cyano-, L-", "3-Cyano-L-alanine", "L-\u03b2-Cyanoalanine", "\u03b2-Cyano-L-alanine", "L-3-Cyanoalanine", "L-2-Amino-3-cyanopropanoic acid", "(2S)-2-Amino-3-cyanopropanoic acid"], "SMILES": "C(CC#N)(C(O)=O)N", "physical_data": {"Molecular Weight": "114.10", "Molecular Formula": "C4H6N2O2", "Melting Point": "213-216 \u00b0C (decomp)"}}