{"cas_no": "62336-24-7", "cn_name": "(2-\u6eb4\u82ef\u57fa)\u4e8c\u82ef\u57fa\u81a6", "en_name": ["(2-Bromophenyl)diphenylphosphine", "Phosphine, (2-bromophenyl)diphenyl-", "Phosphine, (o-bromophenyl)diphenyl-", "(2-Bromophenyl)diphenylphosphine", "(o-Bromophenyl)diphenylphosphine", "2-(Diphenylphosphino)-1-bromobenzene", "1-Bromo-2-(diphenylphosphino)benzene", "2-(Diphenylphosphino)phenyl bromide", "2-(Diphenylphosphino)bromobenzene", "(2-Bromophenyl)-diphenylphosphane"], "SMILES": "P(C1=C(Br)C=CC=C1)(C2=CC=CC=C2)C3=CC=CC=C3", "physical_data": {"Molecular Weight": "341.18", "Molecular Formula": "C18H14BrP", "Melting Point": "115 \u00b0C"}}