{"cas_no": "6233-20-1", "cn_name": "2-\u6c2f\u4e59\u57fa\u4e09\u6c2f\u7845\u70f7", "en_name": ["Trichloro(2-chloroethyl)silane", "Silane, trichloro(2-chloroethyl)-", "Trichloro(2-chloroethyl)silane", "(\u03b2-Chloroethyl)trichlorosilane", "(2-Chloroethyl)trichlorosilane", "NSC 139828"], "SMILES": "C([Si](Cl)(Cl)Cl)CCl", "physical_data": {"Molecular Weight": "197.95", "Molecular Formula": "C2H4Cl4Si", "Boiling Point": "152-153 \u00b0C", "Density": "1.419 g/cm\u00b3"}}