{"cas_no": "6234-26-0", "cn_name": "\u7518\u6c28\u9170\u7518\u6c28\u9170-L-\u82ef\u4e19\u6c28\u9178", "en_name": ["Glycylglycyl-L-phenylalanine", "L-Phenylalanine, glycylglycyl-", "Alanine, N-(N-glycylglycyl)-3-phenyl-, L-", "L-Phenylalanine, N-(N-glycylglycyl)-", "Alanine, N-(N-glycylglycyl)-3-phenyl-", "Glycylglycyl-L-phenylalanine", "Human \u03b2-endorphin-(2-4)", "1: PN: WO2015155998 PAGE: 228 claimed sequence", "97: PN: WO2015171965 SEQID: 101 claimed protein", "(S)-2-(2-(2-Aminoacetamido)acetamido)-3-phenylpropanoicacid", "(2S)-2-[2-(2-Aminoacetamido)acetamido]-3-phenylpropanoic acid", "(S)-2-(2-(2-Aminoacetamido)acetamido)-3-phenylpropanoic acid", "167: PN: WO2019173787 SEQID: 167 claimed protein", "3: PN: WO2022115421 PAGE: 105 claimed sequence", "3: PN: WO2022266659 PAGE: 111 claimed sequence"], "SMILES": "C(CC1=CC=CC=C1)(NC(CNC(CN)=O)=O)C(O)=O", "physical_data": {"Molecular Weight": "279.29", "Molecular Formula": "C13H17N3O4", "Melting Point": "228-230 \u00b0C (decomp)"}}