{"cas_no": "62356-27-8", "cn_name": "2-\u6eb4-6-\u6c2f\u7532\u82ef", "en_name": ["2-Bromo-6-chlorotoluene", "Benzene, 1-bromo-3-chloro-2-methyl-", "Toluene, 2-bromo-6-chloro-", "1-Bromo-3-chloro-2-methylbenzene", "2-Bromo-6-chlorotoluene", "2-Chloro-6-bromotoluene"], "SMILES": "CC1=C(Br)C=CC=C1Cl", "physical_data": {"Molecular Weight": "205.48", "Molecular Formula": "C7H6BrCl", "Boiling Point": "60 \u00b0C @ Press: 3 Torr", "Density": "1.5720 g/cm\u00b3 @ Temp: 25 \u00b0C"}}