{"cas_no": "62366-53-4", "cn_name": "1-\u7532\u57fa-1H-\u54aa\u5511-2-\u7532\u9178\u7532\u916f", "en_name": ["Methyl 1-methyl-1H-imidazole-2-carboxylate", "1H-Imidazole-2-carboxylic acid, 1-methyl-, methyl ester", "Imidazole-2-carboxylic acid, 1-methyl-, methyl ester", "Methyl 1-methyl-1H-imidazole-2-carboxylate", "Methyl 1-methylimidazole-2-carboxylate", "1-Methyl-1H-imidazole-2-carboxylic acid methyl ester"], "SMILES": "C(OC)(=O)C=1N(C)C=CN1", "physical_data": {"Molecular Weight": "140.14", "Molecular Formula": "C6H8N2O2", "Boiling Point": "80 \u00b0C @ Press: 0.1 Torr"}}