{"cas_no": "6237-96-3", "cn_name": "4,6-\u4e8c\u6c2f-2-\u4e59\u57fa-5-\u5627\u5576\u80fa", "en_name": ["4,6-Dichloro-2-ethyl-5-pyrimidinamine", "5-Pyrimidinamine, 4,6-dichloro-2-ethyl-", "Pyrimidine, 5-amino-4,6-dichloro-2-ethyl-", "4,6-Dichloro-2-ethyl-5-pyrimidinamine", "4,6-Dichloro-2-ethylpyrimidin-5-amine"], "SMILES": "C(C)C=1N=C(Cl)C(N)=C(Cl)N1", "physical_data": {"Molecular Weight": "192.05", "Molecular Formula": "C6H7Cl2N3", "Boiling Point": "86 \u00b0C @ Press: 0.3 Torr"}}