{"cas_no": "6238-13-7", "cn_name": "3-\u594e\u5b81\u73af\u9187\u76d0\u9178\u76d0", "en_name": ["1-Azabicyclo[2.2.2]octan-3-ol, hydrochloride (1:1)", "1-Azabicyclo[2.2.2]octan-3-ol, hydrochloride (1:1)", "3-Quinuclidinol, hydrochloride", "1-Azabicyclo[2.2.2]octan-3-ol, hydrochloride", "1-Azabicyclo[2.2.2]octan-3-ol, hydrochloride, (\u00b1)-", "dl-3-Quinuclidinol hydrochloride", "(\u00b1)-3-Quinuclidinol hydrochloride", "(\u00b1)-1-Azabicyclo[2.2.2]octan-3-ol hydrochloride"], "SMILES": "OC1C2CCN(C1)CC2.Cl", "physical_data": {"Molecular Weight": "", "Molecular Formula": "C7H13NO.ClH", "Melting Point": "&gt;300 \u00b0C"}}