{"cas_no": "6238-30-8", "cn_name": "3-\u7f9f\u57fa\u55b9\u6d1b\u5549-3-\u7532\u8148", "en_name": ["3-Hydroxyquinuclidine-3-carbonitrile", "1-Azabicyclo[2.2.2]octane-3-carbonitrile, 3-hydroxy-", "3-Quinuclidinecarbonitrile, 3-hydroxy-", "3-Hydroxy-1-azabicyclo[2.2.2]octane-3-carbonitrile", "NSC 168384", "3-Hydroxyquinuclidine-3-carbonitrile", "3-Cyano-3-hydroxy-1-azabicyclo[2.2.2]octane"], "SMILES": "C(#N)C1(O)C2CCN(C1)CC2", "physical_data": {"Molecular Weight": "152.19", "Molecular Formula": "C8H12N2O", "Melting Point": "172-173 \u00b0C"}}