{"cas_no": "62391-99-5", "cn_name": "\u4e19\u620a\u9178\u6742\u8d28B(50 MG) 2,2-\u4e8c-\u6b63\u4e19\u57fa\u4e59\u9178", "en_name": ["2-(1-Methylethyl)pentanoic acid", "Pentanoic acid, 2-(1-methylethyl)-", "2-(1-Methylethyl)pentanoic acid", "2-Isopropylpentanoic acid", "2-(Propan-2-yl)pentanoic acid"], "SMILES": "C(CCC)(C(C)C)C(O)=O", "physical_data": {"Molecular Weight": "144.21", "Molecular Formula": "C8H16O2", "Boiling Point": "112-113 \u00b0C @ Press: 2 Torr", "Density": "0.9076 g/cm\u00b3 @ Temp: 17 \u00b0C"}}