{"cas_no": "624-75-9", "cn_name": "\u7898\u4e59\u8148", "en_name": ["Iodoacetonitrile", "Acetonitrile, iodo-", "Iodoacetonitrile", "Cyanoiodomethane", "Cyanomethyl iodide", "Iodomethyl cyanide", "NSC 81208", "1-Iodoacetonitrile", "2-Iodoacetonitrile"], "SMILES": "C(C#N)I", "physical_data": {"Molecular Weight": "166.95", "Molecular Formula": "C2H2IN", "Boiling Point": "185 \u00b0C"}}