{"cas_no": "624-72-6", "cn_name": "1,2-\u4e8c\u6c1f\u4e59\u70f7", "en_name": ["1,2-Difluoroethane", "Ethane, 1,2-difluoro-", "Freon 152", "1,2-Difluoroethane", "HFC 152", "R 152 (refrigerant)", "R 152", "HCFC 152"], "SMILES": "C(CF)F", "physical_data": {"Molecular Weight": "66.05", "Molecular Formula": "C2H4F2", "Boiling Point": "30.7 \u00b0C", "Density": "1.024 g/cm\u00b3 @ Temp: 10 \u00b0C"}}