{"cas_no": "624-44-2", "cn_name": "5-\u7532-2-\u5df1\u916e\u809f", "en_name": ["5-Methyl-2-hexanone oxime", "2-Hexanone, 5-methyl-, oxime", "Methyl isoamyl ketoxime", "5-Methyl-2-hexanone oxime"], "SMILES": "C(CCC(C)C)(=NO)C", "physical_data": {"Molecular Weight": "129.20", "Molecular Formula": "C7H15NO", "Boiling Point": "195.5 \u00b0C"}}