{"cas_no": "624-73-7", "cn_name": "1,2-\u4e8c\u7898\u4e59\u70f7", "en_name": ["1,2-Diiodoethane", "Ethane, 1,2-diiodo-", "1,2-Diiodoethane", "Ethylene iodide", "Diiodoethane"], "SMILES": "C(CI)I", "physical_data": {"Molecular Weight": "281.86", "Molecular Formula": "C2H4I2", "Boiling Point": "200 \u00b0C", "Melting Point": "83 \u00b0C", "Density": "2.132 g/cm\u00b3 @ Temp: 10 \u00b0C"}}