{"cas_no": "624-89-5", "cn_name": "\u7532\u57fa\u4e59\u57fa\u786b\u919a", "en_name": ["Ethyl methyl sulfide", "Ethane, (methylthio)-", "Sulfide, ethyl methyl", "(Methylthio)ethane", "Ethyl methyl sulfide", "Methyl ethyl sulfide", "2-Thiabutane", "1-(Methylthio)ethane", "Ethyl methyl thioether", "(Methylsulfanyl)ethane", "Ethyl(methyl)sulfane"], "SMILES": "C(SC)C", "physical_data": {"Molecular Weight": "76.16", "Molecular Formula": "C3H8S", "Boiling Point": "66.7 \u00b0C", "Melting Point": "-105.9 \u00b0C", "Density": "0.8455 g/cm\u00b3 @ Temp: 20 \u00b0C"}}