{"cas_no": "624-51-1", "cn_name": "3-\u7f9f\u57fa\u58ec\u70f7", "en_name": ["3-Nonanol", "3-Nonanol", "Nonanol-3", "dl-Nonan-3-ol", "(\u00b1)-3-Nonanol"], "SMILES": "C(CCCCCC)(CC)O", "physical_data": {"Molecular Weight": "144.25", "Molecular Formula": "C9H20O", "Boiling Point": "96-98 \u00b0C @ Press: 19 Torr", "Melting Point": "22-23 \u00b0C"}}