{"cas_no": "624-31-7", "cn_name": "4-\u7898\u7532\u82ef", "en_name": ["4-Iodotoluene", "Benzene, 1-iodo-4-methyl-", "Toluene, p-iodo-", "1-Iodo-4-methylbenzene", "p-Methyliodobenzene", "p-Iodotoluene", "p-Tolyl iodide", "4-Iodotoluene", "1-Methyl-4-iodobenzene", "4-Methyliodobenzene", "p-Methylphenyl iodide", "p-Iodomethylbenzene", "4-Methyl-1-iodobenzene", "4-Methylphenyl iodide", "NSC 3776", "4-Iodomethylbenzene"], "SMILES": "CC1=CC=C(I)C=C1", "physical_data": {"Molecular Weight": "218.04", "Molecular Formula": "C7H7I", "Boiling Point": "211 \u00b0C", "Melting Point": "36.5 \u00b0C"}}