{"cas_no": "624-24-8", "cn_name": "\u620a\u9178\u7532\u916f", "en_name": ["Methyl pentanoate", "Pentanoic acid, methyl ester", "Valeric acid, methyl ester", "Methyl valerate", "Methyl n-valerate", "Methyl valerianate", "Methyl pentanoate", "4-Methylbutanoic acid methyl ester"], "SMILES": "C(CCCC)(OC)=O", "physical_data": {"Molecular Weight": "116.16", "Molecular Formula": "C6H12O2", "Boiling Point": "127.4 \u00b0C", "Density": "0.8847999999999999 g/cm\u00b3 @ Temp: 25.00 \u00b0C"}}