{"cas_no": "624-29-3", "cn_name": "\u987a-1,4-\u4e8c\u7532\u57fa\u73af\u5df1\u70f7", "en_name": ["cis-1,4-Dimethylcyclohexane", "Cyclohexane, 1,4-dimethyl-, cis-", "cis-1,4-Dimethylcyclohexane", "1-cis-4-Dimethylcyclohexane"], "SMILES": "CC1CCC(C)CC1", "physical_data": {"Molecular Weight": "112.21", "Molecular Formula": "C8H16", "Boiling Point": "124.4 \u00b0C", "Melting Point": "-87.4 \u00b0C", "Density": "0.77870 g/cm\u00b3 @ Temp: 25 \u00b0C"}}