{"cas_no": "624-18-0", "cn_name": "\u5bf9\u82ef\u4e8c\u80fa\u76d0\u9178\u76d0", "en_name": ["p-Phenylenediamine, dihydrochloride", "1,4-Benzenediamine, hydrochloride (1:2)", "p-Phenylenediamine, dihydrochloride", "1,4-Benzenediamine, dihydrochloride", "C.I. 76061", "C.I. Oxidation Base 10A", "Durafur Black RC", "Fourrine 64", "Fourrine DS", "Pelagol CD", "Pelagol Grey CD", "1,4-Diaminobenzene dihydrochloride", "1,4-Phenylenediamine dihydrochloride", "p-Phenylenediammonium dichloride"], "SMILES": "NC1=CC=C(N)C=C1.Cl", "physical_data": {"Molecular Weight": "", "Molecular Formula": "C6H8N2.2ClH", "Melting Point": "275 \u00b0C"}}