{"cas_no": "624-39-5", "cn_name": "1\uff0c4-\u82ef\u57fa\u4e8c\u786b\u9187", "en_name": ["1,4-Benzenedithiol", "1,4-Benzenedithiol", "p-Benzenedithiol", "1,4-Dimercaptobenzene", "Hydroquinone disulfide", "4-Mercaptothiophenol"], "SMILES": "SC1=CC=C(S)C=C1", "physical_data": {"Molecular Weight": "142.24", "Molecular Formula": "C6H6S2", "Melting Point": "98 \u00b0C"}}