{"cas_no": "624-65-7", "cn_name": "3-\u6c2f\u4e19\u7094", "en_name": ["3-Chloro-1-propyne", "1-Propyne, 3-chloro-", "Propyne, 3-chloro-", "3-Chloro-1-propyne", "Propargyl chloride", "3-Chloropropyne", "2-Propynyl chloride", "1-Chloroprop-2-yne", "NSC 66411"], "SMILES": "C(CCl)#C", "physical_data": {"Molecular Weight": "74.51", "Molecular Formula": "C3H3Cl", "Boiling Point": "58 \u00b0C", "Density": "1.0239 g/cm\u00b3 @ Temp: 25 \u00b0C"}}