{"cas_no": "624-49-7", "cn_name": "\u5bcc\u9a6c\u9178\u4e8c\u7532\u916f", "en_name": ["Dimethyl fumarate", "2-Butenedioic acid (2E)-, 1,4-dimethyl ester", "Fumaric acid, dimethyl ester", "2-Butenedioic acid (E)-, dimethyl ester", "2-Butenedioic acid (2E)-, dimethyl ester", "Allomaleic acid dimethyl ester", "Boletic acid dimethyl ester", "trans-Butenedioic acid dimethyl ester", "Dimethyl fumarate", "trans-1,2-Ethylenedicarboxylic acid dimethyl ester", "Methyl fumarate", "Dimethyl trans-ethylenedicarboxylate", "Dimethyl (E)-butenedioate", "(2E)-2-Butenedioic acid dimethyl ester", "(E)-But-2-enedioic acid dimethyl ester", "NSC 167432", "NSC 25942", "AZL-O 211089", "Dimethyl (E)-2-butenedioate", "BG 00012", "Panaclar", "BG 12", "Tecfidera", "Tecfira", "(E)-2-Butenedioic acid dimethyl ester", "Skilarence"], "SMILES": "C(C=CC(OC)=O)(OC)=O", "physical_data": {"Molecular Weight": "144.13", "Molecular Formula": "C6H8O4", "Boiling Point": "193 \u00b0C", "Melting Point": "103.5 \u00b0C", "Density": "1.0283 g/cm\u00b3 @ Temp: 20 \u00b0C"}}