{"cas_no": "624-92-0", "cn_name": "\u4e8c\u7532\u57fa\u4e8c\u786b", "en_name": ["Dimethyl disulfide", "Disulfide, dimethyl", "Methyl disulfide", "Dimethyl disulfide", "2,3-Dithiabutane", "(Methyldithio)methane", "Dimethyl disulphide", "Sulfa-Hitech", "NSC 9370", "DMDS", "Paladin", "1,2-Dimethyldisulfane", "(Methyldisulfanyl)methane"], "SMILES": "S(SC)C", "physical_data": {"Molecular Weight": "94.20", "Molecular Formula": "C2H6S2", "Boiling Point": "109.8 \u00b0C", "Melting Point": "-85 \u00b0C", "Density": "1.0625 g/cm\u00b3 @ Temp: 20 \u00b0C"}}