{"cas_no": "624-84-0", "cn_name": "\u7532\u9170\u80bc", "en_name": ["Hydrazinecarboxaldehyde", "Hydrazinecarboxaldehyde", "Hydrazine, formyl-", "Formic acid, hydrazide", "Carbazaldehyde", "Formylhydrazine", "Formal hydrazine", "Formhydrazide", "N-Formylhydrazine", "Formylhydrazide", "Formic hydrazide", "Formohydrazide", "Monoformylhydrazine", "NSC 72391"], "SMILES": "C(NN)=O", "physical_data": {"Molecular Weight": "60.06", "Molecular Formula": "CH4N2O", "Boiling Point": "90 \u00b0C @ Press: 0.7 Torr", "Melting Point": "55 \u00b0C"}}