{"cas_no": "624-64-6", "cn_name": "\u53cd-2-\u4e01\u70ef", "en_name": ["trans-2-Butene", "2-Butene, (2E)-", "2-Butene, (E)-", "2-Butene, trans-", "(2E)-2-Butene", "trans-2-Butene", "2-trans-Butylene", "trans-1,2-Dimethylethylene", "trans-Butene", "(E)-2-Butene", "2-trans-Butene", "\u03b2-trans-Butylene", "trans-butene-2", "trans-2-Butylene", "(E)-2-Butene", "E-Butene"], "SMILES": "C(=CC)C", "physical_data": {"Molecular Weight": "56.11", "Molecular Formula": "C4H8", "Boiling Point": "0.8 \u00b0C @ Press: 760 Torr", "Melting Point": "-105.5 \u00b0C", "Density": "0.599 g/cm\u00b3 @ Temp: 25 \u00b0C"}}