{"cas_no": "624-60-2", "cn_name": "N-\u7532\u57fa\u4e59\u57fa\u80fa\u76d0\u9178\u76d0", "en_name": ["Ethanamine, N-methyl-, hydrochloride (1:1)", "Ethanamine, N-methyl-, hydrochloride (1:1)", "Ethylamine, N-methyl-, hydrochloride", "Ethanamine, N-methyl-, hydrochloride", "N-Methylethylamine hydrochloride", "Methylethylammonium chloride", "Ethylmethylamine hydrochloride", "N-Methylethanamine hydrochloride"], "SMILES": "C(NC)C.Cl", "physical_data": {"Molecular Weight": "", "Molecular Formula": "C3H9N.ClH", "Melting Point": "128 \u00b0C"}}