{"cas_no": "624-76-0", "cn_name": "2-\u7898\u4e59\u9187", "en_name": ["Iodoethanol", "Ethanol, 2-iodo-", "2-Iodoethanol", "Iodoethanol", "Ethylene iodohydrin", "NSC 85227", "2-Hydroxyethyl iodide", "2-Iodoethan-1-ol"], "SMILES": "C(CO)I", "physical_data": {"Molecular Weight": "171.96", "Molecular Formula": "C2H5IO", "Boiling Point": "85-88 \u00b0C @ Press: 25 Torr", "Melting Point": "120 \u00b0C"}}