{"cas_no": "624-95-3", "cn_name": "3\uff0c3-\u4e8c\u7532\u57fa-1-\u4e01\u57fa\u9178\u916f", "en_name": ["3,3-Dimethyl-1-butanol", "1-Butanol, 3,3-dimethyl-", "3,3-Dimethyl-1-butanol", "3,3-Dimethylbutanol", "Dimbunol", "NSC 54158"], "SMILES": "C(C(C)(C)C)CO", "physical_data": {"Molecular Weight": "102.17", "Molecular Formula": "C6H14O", "Boiling Point": "143 \u00b0C", "Melting Point": "-60 \u00b0C", "Density": "0.844 g/cm\u00b3 @ Temp: 15 \u00b0C"}}