{"cas_no": "624-13-5", "cn_name": "\u8f9b\u9178\u4e19\u916f", "en_name": ["Propyl octanoate", "Octanoic acid, propyl ester", "Propyl caprylate", "Propyl octanoate", "NSC 23736"], "SMILES": "C(CCCCCCC)(OCCC)=O", "physical_data": {"Molecular Weight": "186.29", "Molecular Formula": "C11H22O2", "Boiling Point": "226.4 \u00b0C", "Melting Point": "-46.2 \u00b0C", "Density": "0.8616 g/cm\u00b3 @ Temp: 25 \u00b0C"}}