{"cas_no": "624-83-9", "cn_name": "\u5f02\u6c30\u9178\u7532\u916f", "en_name": ["Methyl isocyanate", "Methane, isocyanato-", "Isocyanic acid, methyl ester", "Isocyanatomethane", "Methyl isocyanate", "MIC", "NSC 64323", "(Methylimino)(oxo)methane"], "SMILES": "C(=NC)=O", "physical_data": {"Molecular Weight": "57.05", "Molecular Formula": "C2H3NO", "Boiling Point": "39.1-40.1 \u00b0C", "Melting Point": "-45 \u00b0C", "Density": "0.9599 g/cm\u00b3 @ Temp: 20 \u00b0C"}}