{"cas_no": "624-80-6", "cn_name": "N-\u4e59\u57fa\u4e59\u4e8c\u80fa", "en_name": ["Ethylhydrazine", "Hydrazine, ethyl-", "Ethylhydrazine", "N-Ethylhydrazine", "1-Ethylhydrazine"], "SMILES": "C(NN)C", "physical_data": {"Molecular Weight": "60.10", "Molecular Formula": "C2H8N2", "Boiling Point": "97-101 \u00b0C @ Press: 744 Torr", "Melting Point": "110-120 \u00b0C", "Density": "0.8461 g/cm\u00b3 @ Temp: 20 \u00b0C"}}