{"cas_no": "624-82-8", "cn_name": "\u7532\u91af\u80fa\u809f", "en_name": ["Formamidoxime", "Methanimidamide, N-hydroxy-", "Formamidoxime", "Isuretin", "Formamide oxime", "NSC 13993"], "SMILES": "C(NO)=N", "physical_data": {"Molecular Weight": "60.06", "Molecular Formula": "CH4N2O", "Melting Point": "114.5 \u00b0C"}}