{"cas_no": "624-17-9", "cn_name": "\u58ec\u4e8c\u9178\u4e8c\u4e59\u916f", "en_name": ["Diethyl azelate", "Nonanedioic acid, 1,9-diethyl ester", "Azelaic acid, diethyl ester", "Nonanedioic acid, diethyl ester", "Diethyl azelate", "Diethyl azelaate", "Diethyl nonanedioate", "NSC 61074"], "SMILES": "C(CCCCCCCC(OCC)=O)(OCC)=O", "physical_data": {"Molecular Weight": "244.33", "Molecular Formula": "C13H24O4", "Boiling Point": "291.5 \u00b0C", "Melting Point": "-18.5 \u00b0C"}}