{"cas_no": "624-28-2", "cn_name": "2,5-\u4e8c\u6eb4\u5421\u5576", "en_name": ["2,5-Dibromopyridine", "Pyridine, 2,5-dibromo-", "2,5-Dibromopyridine", "NSC 76597", "3,6-Dibromopyridine"], "SMILES": "BrC=1C=CC(Br)=NC1", "physical_data": {"Molecular Weight": "236.89", "Molecular Formula": "C5H3Br2N", "Melting Point": "94-95 \u00b0C (sublm)", "Density": "1.633-1.635 g/cm\u00b3 @ Temp: 25 \u00b0C"}}