{"cas_no": "624-67-9", "cn_name": "\u7094\u4e19\u919b", "en_name": ["Propynal", "2-Propynal", "Propiolaldehyde", "Propargylaldehyde", "Propynal", "2-Propyn-1-one", "Formylacetylene", "Propiolic aldehyde", "Acetylenecarboxaldehyde"], "SMILES": "C(C=O)#C", "physical_data": {"Molecular Weight": "54.05", "Molecular Formula": "C3H2O", "Boiling Point": "60 \u00b0C", "Density": "0.9152 g/cm\u00b3 @ Temp: 20 \u00b0C"}}