{"cas_no": "624-41-9", "cn_name": "2-\u7532\u57fa\u4e01\u57fa\u4e59\u9178\u916f", "en_name": ["2-Methylbutyl acetate", "1-Butanol, 2-methyl-, 1-acetate", "1-Butanol, 2-methyl-, acetate", "2-Methylbutyl acetate", "2-Methyl-1-butyl acetate", "2-Methylbutanol acetate"], "SMILES": "C(COC(C)=O)(CC)C", "physical_data": {"Molecular Weight": "130.18", "Molecular Formula": "C7H14O2", "Boiling Point": "140 \u00b0C", "Density": "0.872 g/cm\u00b3 @ Temp: 15 \u00b0C"}}