{"cas_no": "624-54-4", "cn_name": "\u4e19\u9178\u6b63\u620a\u916f", "en_name": ["Pentyl propionate", "Propanoic acid, pentyl ester", "Propionic acid, pentyl ester", "Amyl propionate", "Pentyl propanoate", "Pentyl propionate", "n-Pentyl propionate", "Amyl propanoate", "n-Amyl propionate", "n-Pentyl propanoate", "NSC 7931"], "SMILES": "C(OCCCCC)(CC)=O", "physical_data": {"Molecular Weight": "144.21", "Molecular Formula": "C8H16O2", "Boiling Point": "168.6 \u00b0C", "Melting Point": "-73.1 \u00b0C"}}