{"cas_no": "624-38-4", "cn_name": "1,4-\u4e8c\u7898\u82ef", "en_name": ["1,4-Diiodobenzene", "Benzene, 1,4-diiodo-", "Benzene, p-diiodo-", "1,4-Diiodobenzene", "p-Diiodobenzene", "4-Iodophenyl iodide", "NSC 6297", "p-Phenylene diiodide"], "SMILES": "IC1=CC=C(I)C=C1", "physical_data": {"Molecular Weight": "329.90", "Molecular Formula": "C6H4I2", "Boiling Point": "285 \u00b0C", "Melting Point": "131.5 \u00b0C"}}