{"cas_no": "624-48-6", "cn_name": "\u987a\u4e01\u70ef\u4e8c\u9178\u4e8c\u7532\u916f", "en_name": ["Dimethyl maleate", "2-Butenedioic acid (2Z)-, 1,4-dimethyl ester", "Maleic acid, dimethyl ester", "2-Butenedioic acid (Z)-, dimethyl ester", "2-Butenedioic acid (2Z)-, dimethyl ester", "Dimethyl maleate", "Methyl maleate", "Sipomer DMM", "Dimethyl cis-ethylenedicarboxylate", "Dimethyl (Z)-butenedioate", "Dimethyl cis-ethenedicarboxylate", "Dimethyl cis-butenedioate", "(Z)-Dimethyl 2-butenedioate", "(2Z)-2-Butenedioic acid dimethyl ester", "Dimethyl (Z)-but-2-enedioate", "(Z)-2-Butenedioic acid dimethyl ester", "1,4-Dimethyl (2Z)-but-2-enedioate"], "SMILES": "C(C=CC(OC)=O)(OC)=O", "physical_data": {"Molecular Weight": "144.13", "Molecular Formula": "C6H8O4", "Boiling Point": "202 \u00b0C", "Melting Point": "-19 \u00b0C", "Density": "1.34 g/cm\u00b3 @ Temp: -33 \u00b0C"}}