{"cas_no": "624-20-4", "cn_name": "1,2-\u4e8c\u6eb4\u5df1\u70f7", "en_name": ["1,2-Dibromohexane", "Hexane, 1,2-dibromo-", "1,2-Dibromohexane", "(\u00b1)-1,2-Dibromohexane"], "SMILES": "C(CCCC)(CBr)Br", "physical_data": {"Molecular Weight": "243.97", "Molecular Formula": "C6H12Br2", "Boiling Point": "87-87.2 \u00b0C", "Density": "1.6079 g/cm\u00b3 @ Temp: 0 \u00b0C"}}