{"cas_no": "624-16-8", "cn_name": "4-\u7678\u916e", "en_name": ["4-Decanone", "4-Decanone", "Propyl hexyl ketone", "Hexyl propyl ketone"], "SMILES": "C(CCCCCC)(CCC)=O", "physical_data": {"Molecular Weight": "156.27", "Molecular Formula": "C10H20O", "Boiling Point": "206.5 \u00b0C", "Melting Point": "-9 \u00b0C", "Density": "0.8268 g/cm\u00b3 @ Temp: 20 \u00b0C"}}