{"cas_no": "624-91-9", "cn_name": "\u4e9a\u785d\u9178\u7532\u916f", "en_name": ["Methyl nitrite", "Nitrous acid, methyl ester", "Methyl nitrite"], "SMILES": "N(OC)=O", "physical_data": {"Molecular Weight": "61.04", "Molecular Formula": "CH3NO2", "Boiling Point": "-12 \u00b0C", "Melting Point": "-16 \u00b0C", "Density": "0.991 g/cm\u00b3"}}