{"cas_no": "624-78-2", "cn_name": "N-\u4e59\u57fa\u7532\u57fa\u80fa", "en_name": ["N-Ethyl-N-methylamine", "Ethanamine, N-methyl-", "Ethylamine, N-methyl-", "N-Methylethanamine", "N-Methylethylamine", "Ethylmethylamine", "Methylethylamine", "Methylaminoethane", "N-Methyl-N-ethylamine", "N-Ethylmethylamine", "NMEA", "N-Ethyl-N-methylamine"], "SMILES": "C(NC)C", "physical_data": {"Molecular Weight": "59.11", "Molecular Formula": "C3H9N", "Boiling Point": "36.5 \u00b0C"}}