{"cas_no": "624-45-3", "cn_name": "\u4e59\u9170\u4e19\u9178\u7532\u916f", "en_name": ["Methyl levulinate", "Pentanoic acid, 4-oxo-, methyl ester", "Levulinic acid, methyl ester", "Methyl levulinate", "Methyl 4-oxopentanoate", "Methyl levulate", "4-Oxopentanoic acid methyl ester", "Methyl 4-oxovalerate", "Methyl \u03b2-acetylpropionate", "NSC 24874", "4-Oxovaleric acid methyl ester"], "SMILES": "C(CCC(C)=O)(OC)=O", "physical_data": {"Molecular Weight": "130.14", "Molecular Formula": "C6H10O3", "Boiling Point": "196 \u00b0C", "Density": "1.05113 g/cm\u00b3 @ Temp: 20 \u00b0C"}}