{"cas_no": "6240-11-5", "cn_name": "1-\u7f9f\u4e59\u57fa\u91d1\u521a\u70f7", "en_name": ["Tricyclo[3.3.1.13,7]decane-1-ethanol", "Tricyclo[3.3.1.13,7]decane-1-ethanol", "1-Adamantaneethanol", "1-(2-Hydroxyethyl)adamantane", "2-(1-Adamantyl)ethanol", "1-Adamantylethanol", "2-(1-Adamantyl)ethyl alcohol", "2-(1-Adamantyl)-1-ethanol", "2-(Adamantan-1-yl)ethanol", "2-(Adamantan-1-yl)ethan-1-ol"], "SMILES": "C(CO)C12CC3CC(C1)CC(C2)C3", "physical_data": {"Molecular Weight": "180.29", "Molecular Formula": "C12H20O", "Melting Point": "76 \u00b0C"}}