{"cas_no": "62415-74-1", "cn_name": "3,4-\u4e8c\u6eb4\u82ef\u7532\u919a", "en_name": ["1,2-Dibromo-4-methoxybenzene", "Benzene, 1,2-dibromo-4-methoxy-", "1,2-Dibromo-4-methoxybenzene", "3,4-Dibromoanisole"], "SMILES": "O(C)C1=CC(Br)=C(Br)C=C1", "physical_data": {"Molecular Weight": "265.93", "Molecular Formula": "C7H6Br2O", "Boiling Point": "127 \u00b0C"}}