{"cas_no": "6242-98-4", "cn_name": "4-\u6eb4-4'-\u785d\u57fa\u8054\u82ef", "en_name": ["4-Bromo-4\u2032-nitro-1,1\u2032-biphenyl", "1,1\u2032-Biphenyl, 4-bromo-4\u2032-nitro-", "Biphenyl, 4-bromo-4\u2032-nitro-", "4-Bromo-4\u2032-nitro-1,1\u2032-biphenyl", "4-Bromo-4\u2032-nitrobiphenyl", "NSC 32424", "4-(4-Bromophenyl)nitrobenzene", "1-(4-Bromophenyl)-4-nitrobenzene"], "SMILES": "N(=O)(=O)C1=CC=C(C=C1)C2=CC=C(Br)C=C2", "physical_data": {"Molecular Weight": "278.10", "Molecular Formula": "C12H8BrNO2", "Melting Point": "173 \u00b0C"}}