{"cas_no": "62435-71-6", "cn_name": "2-(\u4e59\u6c27\u7532\u57fa)\u56db\u6c22\u544b\u5583", "en_name": ["2-(Ethoxymethyl)tetrahydrofuran", "Furan, 2-(ethoxymethyl)tetrahydro-", "2-(Ethoxymethyl)tetrahydrofuran", "Ethyl tetrahydrofurfuryl ether", "NSC 93907", "Ethyl tetrahydrofurfury ether", "2-(Ethoxymethyl)oxolane"], "SMILES": "C(OCC)C1CCCO1", "physical_data": {"Molecular Weight": "130.18", "Molecular Formula": "C7H14O2", "Boiling Point": "152-154 \u00b0C @ Press: 723 Torr", "Density": "0.9386 g/cm\u00b3 @ Temp: 20 \u00b0C"}}