{"cas_no": "62433-26-5", "cn_name": "4'-\u6c2f-5-\u6c1f-2-\u7f9f\u57fa\u82ef\u7532\u916e", "en_name": ["(4-Chlorophenyl)(5-fluoro-2-hydroxyphenyl)methanone", "Methanone, (4-chlorophenyl)(5-fluoro-2-hydroxyphenyl)-", "(4-Chlorophenyl)(5-fluoro-2-hydroxyphenyl)methanone", "SL 79-182", "SL 79-182-00", "4\u2032-Chloro-5-fluoro-2-hydroxybenzophenone", "4-Chloro-2\u2032-hydroxy-5\u2032-fluorobenzophenone", "2-(4-Chlorobenzoyl)-4-fluorophenol"], "SMILES": "C(=O)(C1=C(O)C=CC(F)=C1)C2=CC=C(Cl)C=C2", "physical_data": {"Molecular Weight": "250.65", "Molecular Formula": "C13H8ClFO2", "Melting Point": "65-66 \u00b0C"}}