{"cas_no": "62437-99-4", "cn_name": "2-\u80bc\u5421\u5576\u4e8c\u76d0\u9178\u76d0", "en_name": ["2-Hydrazinopyridine dihydrochloride", "Pyridine, 2-hydrazinyl-, hydrochloride (1:2)", "2(1H)-Pyridinone, hydrazone, dihydrochloride", "2-Hydrazinopyridine dihydrochloride", "2-Hydrazinylpyridine dihydrochloride"], "SMILES": "N(N)=C1C=CC=CN1.Cl", "physical_data": {"Molecular Weight": "", "Molecular Formula": "C5H7N3.2ClH", "Melting Point": "212-213 \u00b0C (decomp)"}}