{"cas_no": "62438-03-3", "cn_name": "5-\u7532\u57fa\u5f02\u5511-3-\u7532\u9178\u9150", "en_name": ["5-Methyl-3-isoxazolecarboxylic acid hydrazide", "3-Isoxazolecarboxylic acid, 5-methyl-, hydrazide", "5-Methyl-3-isoxazolecarboxylic acid hydrazide", "NSC 306459"], "SMILES": "C(NN)(=O)C=1C=C(C)ON1", "physical_data": {"Molecular Weight": "141.13", "Molecular Formula": "C5H7N3O2", "Melting Point": "142-143 \u00b0C"}}