{"cas_no": "62435-37-4", "cn_name": "4-\u6b63\u8f9b\u6c27\u82ef\u7532\u9178\u7532\u916f", "en_name": ["Methyl 4-(octyloxy)benzoate", "Benzoic acid, 4-(octyloxy)-, methyl ester", "Methyl 4-(octyloxy)benzoate", "Methyl p-octyloxybenzoate", "Methyl 4-octyloxybenzoate", "Methyl 4-n-octyloxybenzoate", "4-Octyloxybenzoic acid methyl ester"], "SMILES": "C(OC)(=O)C1=CC=C(OCCCCCCCC)C=C1", "physical_data": {"Molecular Weight": "264.36", "Molecular Formula": "C16H24O3", "Melting Point": "29 \u00b0C"}}