{"cas_no": "62435-72-7", "cn_name": "\u7532\u57fa2,5-\u4e8c\u6c22-2,5-\u4e8c\u7532\u6c27\u57fa-2-\u544b\u5583\u7fa7\u9178", "en_name": ["Methyl 2,5-dihydro-2,5-dimethoxy-2-furancarboxylate", "2-Furancarboxylic acid, 2,5-dihydro-2,5-dimethoxy-, methyl ester", "2-Furoic acid, 2,5-dihydro-2,5-dimethoxy-, methyl ester", "Methyl 2,5-dihydro-2,5-dimethoxy-2-furancarboxylate", "2,5-Dimethoxy-2,5-dihydrofuran-2-carboxylic acid methyl ester", "Methyl 2,5-dihydro-2,5-dimethoxy-2-furoate", "Methyl 2,5-dimethoxy-2,5-dihydrofuran-2-carboxylate"], "SMILES": "C(OC)(=O)C1(OC)OC(OC)C=C1", "physical_data": {"Molecular Weight": "188.18", "Molecular Formula": "C8H12O5", "Boiling Point": "127-131 \u00b0C @ Press: 18 Torr"}}