{"cas_no": "62456-34-2", "cn_name": "8-\u6eb4-1-\u8418\u80fa", "en_name": ["8-Bromo-1-naphthalenamine", "1-Naphthalenamine, 8-bromo-", "1-Naphthylamine, 8-bromo-", "8-Bromo-1-naphthalenamine", "1-Amino-8-bromonaphthalene", "8-Bromo-1-naphthylamine", "1-Amino-8-bromonaphthalen", "8-Bromonaphthalen-1-amine"], "SMILES": "BrC=1C2=C(C=CC=C2N)C=CC1", "physical_data": {"Molecular Weight": "222.08", "Molecular Formula": "C10H8BrN", "Boiling Point": "140-150 \u00b0C @ Press: 2 Torr", "Melting Point": "82-86 \u00b0C"}}