{"cas_no": "6245-75-6", "cn_name": "N,N-\u4e8c(\u7fa7\u7532\u57fa)-\u03b2-\u6c28\u57fa\u4e19\u9178", "en_name": ["N-(2-Carboxyethyl)iminodiacetic acid", "\u03b2-Alanine, N,N-bis(carboxymethyl)-", "Acetic acid, [(2-carboxyethyl)imino]di-", "N,N-Bis(carboxymethyl)-\u03b2-alanine", "Acetic acid, 2,2\u2032-[(2-carboxyethyl)imino]bis-", "N-(2-Carboxyethyl)iminodiacetic acid", "3-[Bis(carboxymethyl)amino]propionic acid", "Nitrilo(3-propionic)diacetic acid", "Trilon GS", "\u03b2-Alanine-N,N-di(acetic acid)"], "SMILES": "N(CCC(O)=O)(CC(O)=O)CC(O)=O", "physical_data": {"Molecular Weight": "205.17", "Molecular Formula": "C7H11NO6", "Melting Point": "200-202 \u00b0C (decomp)"}}