{"cas_no": "6245-89-2", "cn_name": "\u5432\u54da-3-\u4e19\u80fa", "en_name": ["1H-Indole-3-propanamine", "1H-Indole-3-propanamine", "Indole, 3-(3-aminopropyl)-", "Homotryptamine", "3-Indolepropylamine", "\u03b3-3-Indolylpropylamine", "3-Indolylpropylamine", "3-(3-Indolyl)propylamine", "3-(3-Aminopropyl)indole", "Indole-3-propanamine", "3-(1H-Indol-3-yl)propylamine", "3-(1H-Indol-3-yl)-1-propanamine", "3-(Indol-3-yl)propan-1-amine"], "SMILES": "C(CCN)C=1C=2C(NC1)=CC=CC2", "physical_data": {"Molecular Weight": "174.24", "Molecular Formula": "C11H14N2", "Melting Point": "64 \u00b0C"}}