{"cas_no": "62458-96-2", "cn_name": "7-\u82c4\u57fa-5,6,7,8-T\u56db\u6c22\u5421\u5576\u5e76[3,4-D]\u5627\u5576-4(3H)-\u916e", "en_name": ["5,6,7,8-Tetrahydro-7-(phenylmethyl)pyrido[3,4-d]pyrimidin-4(3H)-one", "Pyrido[3,4-d]pyrimidin-4(3H)-one, 5,6,7,8-tetrahydro-7-(phenylmethyl)-", "Pyrido[3,4-d]pyrimidin-4(1H)-one, 5,6,7,8-tetrahydro-7-(phenylmethyl)-", "5,6,7,8-Tetrahydro-7-(phenylmethyl)pyrido[3,4-d]pyrimidin-4(3H)-one", "7-Benzyl-5,6,7,8-tetrahydro-3H-pyrido[3,4-d]pyrimidin-4-one", "7-Benzyl-5,6,7,8-tetrahydropyrido[3,4-d]pyrimidin-4(3H)-one"], "SMILES": "O=C1C2=C(CN(CC3=CC=CC=C3)CC2)NC=N1", "physical_data": {"Molecular Weight": "241.29", "Molecular Formula": "C14H15N3O", "Melting Point": "198 \u00b0C"}}