{"cas_no": "6246-46-4", "cn_name": "3-\u6c27\u4ee3-12-\u70ef-28-\u4e4c\u82cf\u9178", "en_name": ["Ursonic acid", "Urs-12-en-28-oic acid, 3-oxo-", "3-Oxours-12-en-28-oic acid", "Ursonic acid", "3-Ketoursolic acid"], "SMILES": "C(O)(=O)C12C(C=3C(C)(CC1)C4(C)C(CC3)C5(C)C(CC4)C(C)(C)C(=O)CC5)C(C)C(C)CC2", "physical_data": {"Molecular Weight": "454.68", "Molecular Formula": "C30H46O3", "Melting Point": "284-285 \u00b0C"}}