{"cas_no": "62462-05-9", "cn_name": "5-\u7532\u6c27\u57fa-3-\u6c27\u4ee3\u620a\u9178\u7532\u916f", "en_name": ["Methyl 5-methoxy-3-oxopentanoate", "Pentanoic acid, 5-methoxy-3-oxo-, methyl ester", "Methyl 5-methoxy-3-oxopentanoate", "5-Methoxy-3-oxopentanoic acid methyl ester", "5-Methoxy-3-oxovaleric acid methyl ester", "Methyl 5-methoxy-3-oxovalerate"], "SMILES": "C(CC(OC)=O)(CCOC)=O", "physical_data": {"Molecular Weight": "160.17", "Molecular Formula": "C7H12O4", "Boiling Point": "75-76 \u00b0C @ Press: 0.5 Torr"}}