{"cas_no": "62476-56-6", "cn_name": "2,6-\u4e8c\u6c2f-3-\u6c28\u57fa\u5421\u5576", "en_name": ["2,6-Dichloro-3-pyridinamine", "3-Pyridinamine, 2,6-dichloro-", "2,6-Dichloro-3-pyridinamine", "3-Amino-2,6-dichloropyridine", "2,6-Dichloro-3-aminopyridine", "2,6-Dichloropyridin-3-ylamine", "2,6-Dichloropyridin-3-amine"], "SMILES": "ClC1=C(N)C=CC(Cl)=N1", "physical_data": {"Molecular Weight": "163.00", "Molecular Formula": "C5H4Cl2N2", "Melting Point": "119 \u00b0C"}}