{"cas_no": "62476-15-7", "cn_name": "5-\u6c2f-2-(\u4e59\u80fa\u57fa)\u82ef\u80fa", "en_name": ["4-Chloro-N1-ethyl-1,2-benzenediamine", "1,2-Benzenediamine, 4-chloro-N1-ethyl-", "o-Phenylenediamine, 4-chloro-N1-ethyl-", "4-Chloro-N1-ethyl-1,2-benzenediamine", "N-Ethyl-4-chloro-1,2-benzenediamine", "4-Chloro-N1-ethylbenzene-1,2-diamine"], "SMILES": "N(CC)C1=C(N)C=C(Cl)C=C1", "physical_data": {"Molecular Weight": "170.64", "Molecular Formula": "C8H11ClN2", "Melting Point": "61 \u00b0C"}}