{"cas_no": "62476-59-9", "cn_name": "5-[2-\u6c2f-4-(\u4e09\u6c1f\u7532\u57fa)-\u82ef\u6c27\u57fa]-2-\u785d\u57fa\u82ef\u7532\u9178\u94a0", "en_name": ["Acifluorfen sodium", "Benzoic acid, 5-[2-chloro-4-(trifluoromethyl)phenoxy]-2-nitro-, sodium salt (1:1)", "Benzoic acid, 5-[2-chloro-4-(trifluoromethyl)phenoxy]-2-nitro-, sodium salt", "Blazer (herbicide)", "RH 6201", "Sodium 3-carboxy-4-nitrophenyl 2-chloro-\u03b1,\u03b1,\u03b1-trifluoro-p-tolyl ether", "Acifluorfen sodium", "Blazer", "Sodium acifluorfen", "Acifluorfen sodium salt", "Blazer 2S", "Blazer 2L", "Sodium 5-(2-chloro-4-trifluoromethylphenoxy)-2-nitrobenzoate", "Carbofluorfen", "MC 10978", "Status", "Tackle 2AS", "Tackle", "Ultra Blazer"], "SMILES": "O(C1=CC(C(O)=O)=C(N(=O)=O)C=C1)C2=C(Cl)C=C(C(F)(F)F)C=C2.[Na]", "physical_data": {"Molecular Weight": "", "Molecular Formula": "C14H7ClF3NO5.Na", "Boiling Point": "&gt;100 \u00b0C", "Melting Point": "&gt;100 \u00b0C", "Density": "1.26 g/cm\u00b3 @ Temp: 23 \u00b0C"}}