{"cas_no": "62482-29-5", "cn_name": "6-\u6c2f\u55b9\u5549-4-\u7532\u9178", "en_name": ["6-Chloro-4-quinolinecarboxylic acid", "4-Quinolinecarboxylic acid, 6-chloro-", "6-Chloro-4-quinolinecarboxylic acid"], "SMILES": "C(O)(=O)C=1C2=C(C=CC(Cl)=C2)N=CC1", "physical_data": {"Molecular Weight": "207.61", "Molecular Formula": "C10H6ClNO2", "Melting Point": "302 \u00b0C"}}