{"cas_no": "6248-20-0", "cn_name": "2,4-\u4e8c\u7f9f\u57fa-3-\u7532\u57fa\u82ef\u7532\u919b", "en_name": ["2,4-Dihydroxy-3-methylbenzaldehyde", "Benzaldehyde, 2,4-dihydroxy-3-methyl-", "\u03b2-Resorcylaldehyde, 3-methyl-", "2,4-Dihydroxy-3-methylbenzaldehyde", "2,4-Dihydroxy-m-tolualdehyde", "4-Formyl-2-methylresorcinol", "3-Methyl-2,4-dihydroxybenzaldehyde"], "SMILES": "C(=O)C1=C(O)C(C)=C(O)C=C1", "physical_data": {"Molecular Weight": "152.15", "Molecular Formula": "C8H8O3", "Melting Point": "150 \u00b0C"}}