{"cas_no": "6249-56-5", "cn_name": "(3-\u7fa7\u4e19\u57fa)\u4e09\u7532\u57fa\u6c2f\u5316\u94f5", "en_name": ["(3-Carboxypropyl)trimethylammonium chloride", "1-Propanaminium, 3-carboxy-N,N,N-trimethyl-, chloride (1:1)", "Ammonium, (3-carboxypropyl)trimethyl-, chloride", "1-Propanaminium, 3-carboxy-N,N,N-trimethyl-, chloride", "(3-Carboxypropyl)trimethylammonium chloride", "\u03b3-Butyrobetaine hydrochloride", "N-Trimethyl-\u03b3-aminobutyric acid chloride", "3-Carboxy-N,N,N-trimethylpropan-1-aminium chloride", "3-Carboxy-N,N,N-trimethylpropan-1-aminiumchloride"], "SMILES": "C(CCC(O)=O)[N+](C)(C)C.[Cl-]", "physical_data": {"Molecular Weight": "", "Molecular Formula": "C7H16NO2.Cl", "Melting Point": "212-214 \u00b0C"}}