{"cas_no": "62499-27-8", "cn_name": "\u5929\u9ebb\u7d20", "en_name": ["Gastrodin", "\u03b2-D-Glucopyranoside, 4-(hydroxymethyl)phenyl", "4-(Hydroxymethyl)phenyl \u03b2-D-glucopyranoside", "Gastrodin", "4-(\u03b2-D-Glucopyranosyloxy)benzyl alcohol", "4-Hydroxybenzyl alcohol 4-O-\u03b2-D-glucopyranoside", "4-(\u03b2-D-Glucopyranosyl)-benzylalcohol", "Gastrodine"], "SMILES": "O(C1OC(CO)C(O)C(O)C1O)C2=CC=C(CO)C=C2", "physical_data": {"Molecular Weight": "286.28", "Molecular Formula": "C13H18O7", "Melting Point": "114-118 \u00b0C"}}