{"cas_no": "625-58-1", "cn_name": "\u785d\u9178\u4e59\u916f", "en_name": ["Ethyl nitrate", "Nitric acid, ethyl ester", "Ethyl nitrate", "NSC 8826"], "SMILES": "O(N(=O)=O)CC", "physical_data": {"Molecular Weight": "91.07", "Molecular Formula": "C2H5NO3", "Boiling Point": "87.2 \u00b0C @ Press: 762 Torr", "Melting Point": "-94.6 \u00b0C", "Density": "1.1084 g/cm\u00b3 @ Temp: 20 \u00b0C"}}