{"cas_no": "625-45-6", "cn_name": "\u7532\u6c27\u57fa\u4e59\u9178", "en_name": ["Methoxyacetic acid", "Acetic acid, 2-methoxy-", "Acetic acid, methoxy-", "2-Methoxyacetic acid", "Methoxyacetic acid", "Methoxyethanoic acid", "NSC 7300"], "SMILES": "C(C(O)=O)OC", "physical_data": {"Molecular Weight": "90.08", "Molecular Formula": "C3H6O3", "Boiling Point": "203.5 \u00b0C", "Melting Point": "7.7 \u00b0C"}}