{"cas_no": "625-23-0", "cn_name": "2-\u7532\u57fa-2-\u5df1\u9187", "en_name": ["2-Methyl-2-hexanol", "2-Hexanol, 2-methyl-", "2-Methyl-2-hexanol", "Butyldimethylcarbinol", "2-Methyl-2-hydroxyhexane", "1,1-Dimethyl-1-pentanol", "NSC 21977"], "SMILES": "C(C(C)(C)O)CCC", "physical_data": {"Molecular Weight": "116.20", "Molecular Formula": "C7H16O", "Boiling Point": "143 \u00b0C", "Melting Point": "62-63 \u00b0C", "Density": "0.8155 g/cm\u00b3"}}