{"cas_no": "625-84-3", "cn_name": "2,5-\u4e8c\u7532\u57fa\u5421\u54af", "en_name": ["2,5-Dimethylpyrrole", "1H-Pyrrole, 2,5-dimethyl-", "Pyrrole, 2,5-dimethyl-", "2,5-Dimethyl-1H-pyrrole", "2,5-Dimethylpyrrole", "NSC 4507"], "SMILES": "CC=1NC(C)=CC1", "physical_data": {"Molecular Weight": "95.14", "Molecular Formula": "C6H9N", "Boiling Point": "171 \u00b0C", "Melting Point": "7.7 \u00b0C", "Density": "0.9281 g/cm\u00b3 @ Temp: 20 \u00b0C"}}