{"cas_no": "625-06-9", "cn_name": "2,4-\u4e8c\u7532\u57fa-2-\u620a\u9187", "en_name": ["2,4-Dimethyl-2-pentanol", "2-Pentanol, 2,4-dimethyl-", "2,4-Dimethyl-2-pentanol", "Isobutyldimethylcarbinol", "NSC 87555"], "SMILES": "C(C(C)(C)O)C(C)C", "physical_data": {"Molecular Weight": "116.20", "Molecular Formula": "C7H16O", "Boiling Point": "133.1 \u00b0C", "Melting Point": "&lt;-20 \u00b0C", "Density": "0.8158 g/cm\u00b3 @ Temp: 20 \u00b0C"}}