{"cas_no": "625-69-4", "cn_name": "2\uff0c4-\u620a\u4e8c\u9187", "en_name": ["2,4-Pentanediol", "2,4-Pentanediol", "2,4-Amylene glycol", "2,4-Dihydroxypentane", "NSC 13528", "NSC 53505", "1,3-Dimethylpropane-1,3-diol"], "SMILES": "C(C(C)O)C(C)O", "physical_data": {"Molecular Weight": "104.15", "Molecular Formula": "C5H12O2", "Boiling Point": "199 \u00b0C"}}