{"cas_no": "625-71-8", "cn_name": "3-\u7f9f\u57fa\u4e01\u9178", "en_name": ["3-Hydroxybutyric acid", "Butanoic acid, 3-hydroxy-", "Butyric acid, 3-hydroxy-", "3-Hydroxybutanoic acid", "\u03b2-Hydroxybutyric acid", "\u03b2-Hydroxy-n-butyric acid", "3-Hydroxybutyric acid", "\u03b2-Hydroxybutanoic acid", "(\u00b1)-\u03b2-Hydroxybutyric acid", "DL-\u03b2-Hydroxybutyric acid", "DL-3-Hydroxybutyric acid", "(\u00b1)-3-Hydroxybutyric acid", "(\u00b1)-3-Hydroxybutanoic acid", "(\u00b1)-3-Hydroxy-n-butyric acid", "NSC 3806", "MeSH ID: D020155"], "SMILES": "C(C(C)O)C(O)=O", "physical_data": {"Molecular Weight": "104.10", "Molecular Formula": "C4H8O3", "Boiling Point": "125-130 \u00b0C @ Press: 8 Torr", "Melting Point": "46 \u00b0C"}}