{"cas_no": "625-72-9", "cn_name": "(R)-3-\u7f9f\u57fa\u4e01\u9178", "en_name": ["(R)-3-Hydroxybutyric acid", "Butanoic acid, 3-hydroxy-, (3R)-", "Butyric acid, 3-hydroxy-, D-(-)-", "Butanoic acid, 3-hydroxy-, (R)-", "(3R)-3-Hydroxybutanoic acid", "D-\u03b2-Hydroxybutyrate", "(-)-3-Hydroxybutyric acid", "D-\u03b2-Hydroxybutyric acid", "D-(-)-3-Hydroxybutyric acid", "D-(-)-3-Hydroxybutyrate", "D-(-)-\u03b2-Hydroxybutyric acid", "D-(-)-3-Hydroxybutanoic acid", "(R)-\u03b2-Hydroxybutanoic acid", "3-D-Hydroxybutyrate", "D-3-Hydroxybutyrate", "(R)-3-Hydroxybutyrate", "(3R)-Hydroxybutyrate", "(R)-(-)-\u03b2-Hydroxybutyric acid", "(R)-(-)-3-Hydroxybutyric acid", "D-3-Hydroxybutyric acid", "(-)-3-Hydroxy-n-butyric acid", "(R)-\u03b2-Hydroxybutyric acid", "(R)-3-Hydroxybutanoic acid", "(R)-3-Hydroxybutyric acid", "(3R)-3-Hydroxybutyric acid", "3R-Hydroxybutanoic acid", "(R)-3-Hydroxybutyric acid", "(3R)-3-Hydroxybutanoic acid", "Oketoa"], "SMILES": "C(C(C)O)C(O)=O", "physical_data": {"Molecular Weight": "104.10", "Molecular Formula": "C4H8O3", "Boiling Point": "90-92 \u00b0C @ Press: 0.08 Torr"}}