{"cas_no": "625-36-5", "cn_name": "3-\u6c2f\u4e19\u9170\u6c2f", "en_name": ["3-Chloropropionyl chloride", "Propanoyl chloride, 3-chloro-", "Propionyl chloride, 3-chloro-", "3-Chloropropanoyl chloride", "\u03b2-Chloropropanoyl chloride", "3-Chloropropionyl chloride", "\u03b2-Chloropropionyl chloride", "\u03b2-Chloropropionic acid chloride", "\u03c9-Chloropropanoyl chloride", "\u03c9-Chloropropionyl chloride", "3-Chloropropionic acid chloride", "NSC 84180", "(Chloromethyl)acetyl chloride"], "SMILES": "C(C(Cl)=O)CCl", "physical_data": {"Molecular Weight": "126.97", "Molecular Formula": "C3H4Cl2O", "Boiling Point": "144 \u00b0C", "Density": "1.3192 g/cm\u00b3 @ Temp: 20 \u00b0C"}}