{"cas_no": "625-22-9", "cn_name": "\u786b\u9178\u4e8c\u4e01\u916f", "en_name": ["Sulfuric acid, dibutyl ester", "Sulfuric acid, dibutyl ester", "Dibutyl sulfate", "Di-n-butyl sulfate"], "SMILES": "O(S(OCCCC)(=O)=O)CCCC", "physical_data": {"Molecular Weight": "210.29", "Molecular Formula": "C8H18O4S", "Boiling Point": "103-105 \u00b0C @ Press: 1.5 Torr", "Density": "1.080 g/cm\u00b3 @ Temp: 0 \u00b0C"}}