{"cas_no": "625-01-4", "cn_name": "\u6c2f\u78fa\u9178\u4e59\u916f", "en_name": ["Chlorosulfuric acid, ethyl ester", "Chlorosulfuric acid, ethyl ester", "Ethyl chlorosulfate", "Ethyl chlorosulfonate", "Ethoxysulfonyl chloride"], "SMILES": "O(S(Cl)(=O)=O)CC", "physical_data": {"Molecular Weight": "144.58", "Molecular Formula": "C2H5ClO3S", "Boiling Point": "152.5 \u00b0C", "Density": "1.35 g/cm\u00b3 @ Temp: 25 \u00b0C"}}