{"cas_no": "625-53-6", "cn_name": "\u4e59\u57fa\u786b\u8132", "en_name": ["Ethylthiourea", "Thiourea, N-ethyl-", "Urea, 1-ethyl-2-thio-", "Thiourea, ethyl-", "N-Ethylthiourea", "Ethylthiourea", "ENT 61326", "1-Ethylthiourea", "1-Ethyl-2-thiourea", "N-Ethylthiocarbamide", "NSC 62921"], "SMILES": "N(C(N)=S)CC", "physical_data": {"Molecular Weight": "104.17", "Molecular Formula": "C3H8N2S", "Boiling Point": "132 \u00b0C", "Melting Point": "112 \u00b0C"}}