{"cas_no": "625-56-9", "cn_name": "\u4e59\u9178\u6c2f\u7532\u916f", "en_name": ["Chloromethyl acetate", "Methanol, 1-chloro-, 1-acetate", "Methanol, chloro-, acetate", "Chloromethyl acetate", "Acetic acid, chloromethyl ester", "Acetoxymethyl chloride", "(Acetyloxy)methyl chloride"], "SMILES": "O(C(C)=O)CCl", "physical_data": {"Molecular Weight": "108.52", "Molecular Formula": "C3H5ClO2", "Boiling Point": "116 \u00b0C", "Density": "1.194 g/cm\u00b3 @ Temp: 20 \u00b0C"}}