{"cas_no": "625-99-0", "cn_name": "\u95f4\u6c2f\u7898\u82ef", "en_name": ["1-Chloro-3-iodobenzene", "Benzene, 1-chloro-3-iodo-", "1-Chloro-3-iodobenzene", "m-Chloroiodobenzene", "3-Chloro-1-iodobenzene", "3-Chloroiodobenzene", "3-Iodochlorobenzene", "m-Chlorophenyl iodide", "3-Chlorophenyl iodide", "m-Chloroiodobenzene", "1-Iodo-3-chlorobenzene", "NSC 32861"], "SMILES": "ClC1=CC(I)=CC=C1", "physical_data": {"Molecular Weight": "238.45", "Molecular Formula": "C6H4ClI", "Boiling Point": "103-104 \u00b0C", "Melting Point": "95-96 \u00b0C"}}