{"cas_no": "625-31-0", "cn_name": "4-\u620a\u70ef-2-\u9187", "en_name": ["4-Penten-2-ol", "4-Penten-2-ol", "1-Penten-4-ol", "4-Hydroxypent-1-ene", "4-Pentene-2-ol", "NSC 65447", "1-Methylbut-3-enyl alcohol", "(\u00b1)-4-Penten-2-ol"], "SMILES": "C(C(C)O)C=C", "physical_data": {"Molecular Weight": "86.13", "Molecular Formula": "C5H10O", "Boiling Point": "116 \u00b0C", "Density": "0.840 g/cm\u00b3 @ Temp: 20 \u00b0C"}}