{"cas_no": "625-77-4", "cn_name": "\u4e8c\u4e59\u9170\u57fa\u80fa", "en_name": ["N-Acetylacetamide", "Acetamide, N-acetyl-", "Diacetamide", "N-Acetylacetamide", "Diacetylamine", "NSC 405639"], "SMILES": "N(C(C)=O)C(C)=O", "physical_data": {"Molecular Weight": "101.10", "Molecular Formula": "C4H7NO2", "Boiling Point": "223.5 \u00b0C", "Melting Point": "79 \u00b0C"}}