{"cas_no": "625-80-9", "cn_name": "2,2'-\u786b\u4ee3\u4e8c\u4e19\u70f7", "en_name": ["Diisopropyl sulfide", "Propane, 2,2\u2032-thiobis-", "Isopropyl sulfide", "2,2\u2032-Thiobis[propane]", "2,4-Dimethyl-3-thiapentane", "Diisopropyl sulfide", "NSC 75121", "2,2\u2032-Thiodipropane", "2-(Propan-2-ylsulfanyl)propane", "2-Propan-2-ylsulfanylpropane", "Diisopropylsulfane"], "SMILES": "S(C(C)C)C(C)C", "physical_data": {"Molecular Weight": "118.24", "Molecular Formula": "C6H14S", "Boiling Point": "120.1 \u00b0C", "Melting Point": "-78.1 \u00b0C", "Density": "0.81471 g/cm\u00b3 @ Temp: 20 \u00b0C"}}