{"cas_no": "625-88-7", "cn_name": "2,5-\u4e8c\u7898\u567b\u5429", "en_name": ["2,5-Diiodothiophene", "Thiophene, 2,5-diiodo-", "2,5-Diiodothiophene", "NSC 80411"], "SMILES": "IC=1SC(I)=CC1", "physical_data": {"Molecular Weight": "335.93", "Molecular Formula": "C4H2I2S", "Boiling Point": "67-70 \u00b0C @ Press: 0.05 Torr", "Melting Point": "41.5 \u00b0C"}}