{"cas_no": "625-92-3", "cn_name": "3,5-\u4e8c\u6eb4\u5421\u5576", "en_name": ["3,5-Dibromopyridine", "Pyridine, 3,5-dibromo-", "3,5-Dibromopyridine", "NSC 6209"], "SMILES": "BrC=1C=C(Br)C=NC1", "physical_data": {"Molecular Weight": "236.89", "Molecular Formula": "C5H3Br2N", "Boiling Point": "222 \u00b0C", "Melting Point": "112 \u00b0C"}}