{"cas_no": "625-65-0", "cn_name": "2,4-\u4e8c\u7532\u57fa-2-\u620a\u70ef", "en_name": ["2,4-Dimethyl-2-pentene", "2-Pentene, 2,4-dimethyl-", "2,4-Dimethyl-2-pentene", "NSC 74139"], "SMILES": "C(C(C)C)=C(C)C", "physical_data": {"Molecular Weight": "98.19", "Molecular Formula": "C7H14", "Boiling Point": "83.4 \u00b0C", "Melting Point": "-127.7 \u00b0C", "Density": "0.7123 g/cm\u00b3 @ Temp: 0 \u00b0C"}}