{"cas_no": "625-50-3", "cn_name": "N-\u4e59\u57fa\u4e59\u9170\u80fa", "en_name": ["Ethylacetamide", "Acetamide, N-ethyl-", "N-Ethylacetamide", "Ethylacetamide", "Acetamidoethane", "N-Acetylethylamine", "NSC 406307"], "SMILES": "N(C(C)=O)CC", "physical_data": {"Molecular Weight": "87.12", "Molecular Formula": "C4H9NO", "Boiling Point": "205 \u00b0C", "Melting Point": "79-80 \u00b0C", "Density": "0.9237 g/cm\u00b3 @ Temp: 20 \u00b0C"}}