{"cas_no": "625-43-4", "cn_name": "N-\u7532\u57fa\u5f02\u4e01\u57fa\u80fa", "en_name": ["Methylisobutylamine", "1-Propanamine, N,2-dimethyl-", "Propylamine, N,2-dimethyl-", "N,2-Dimethyl-1-propanamine", "N-Methylisobutylamine", "Isobutylmethylamine", "2-Methyl-1-(methylamino)propane", "Methylisobutylamine", "N-Isobutyl-N-methylamine", "Methyl(2-methylpropyl)amine", "N-Isobutylmethylamine", "N-Methyl-2-methyl-n-propylamine", "N-Methyl-2-methylpropan-1-amine", "N-Methyl-N-isobutylamine", "N-Methyl-2-methylpropylamine", "N-Methyl-2-methylpropanamine"], "SMILES": "C(C(C)C)NC", "physical_data": {"Molecular Weight": "87.16", "Molecular Formula": "C5H13N", "Boiling Point": "67-70 \u00b0C", "Density": "0.735 g/cm\u00b3 @ Temp: 20 \u00b0C"}}