{"cas_no": "625-95-6", "cn_name": "\u95f4\u7898\u7532\u82ef", "en_name": ["3-Iodotoluene", "Benzene, 1-iodo-3-methyl-", "Toluene, m-iodo-", "1-Iodo-3-methylbenzene", "m-Methyliodobenzene", "m-Iodotoluene", "m-Tolyl iodide", "3-Iodotoluene", "3-Methylphenyl iodide", "3-Methyliodobenzene", "m-Methylphenyl iodide", "m-Iodotoluene", "NSC 3775", "3-Tolyl iodide", "3-Methyl-1-iodobenzene", "Iodo-3-methylbenzene"], "SMILES": "CC1=CC(I)=CC=C1", "physical_data": {"Molecular Weight": "218.04", "Molecular Formula": "C7H7I", "Boiling Point": "213 \u00b0C", "Melting Point": "-27.2 \u00b0C", "Density": "1.6981 g/cm\u00b3"}}