{"cas_no": "625-04-7", "cn_name": "\u53cc\u4e19\u916e\u80fa\u8349\u9178\u76d0", "en_name": ["4-Amino-4-methyl-2-pentanone", "2-Pentanone, 4-amino-4-methyl-", "Diacetonamine", "4-Amino-4-methyl-2-pentanone", "2-Amino-2-methyl-4-pentanone", "(1,1-Dimethyl-2-oxobutyl)amine"], "SMILES": "C(C(C)(C)N)C(C)=O", "physical_data": {"Molecular Weight": "115.17", "Molecular Formula": "C6H13NO", "Boiling Point": "180 \u00b0C", "Melting Point": "&lt;25 \u00b0C"}}