{"cas_no": "625-55-8", "cn_name": "\u7532\u9178\u5f02\u4e19\u916f", "en_name": ["Isopropyl formate", "Formic acid, 1-methylethyl ester", "Formic acid, isopropyl ester", "Isopropyl formate", "Iso-propyl methanoate"], "SMILES": "O(C(C)C)C=O", "physical_data": {"Molecular Weight": "88.11", "Molecular Formula": "C4H8O2", "Boiling Point": "68.2 \u00b0C @ Press: 760 Torr", "Melting Point": "-80 \u00b0C", "Density": "0.8728 g/cm\u00b3 @ Temp: 20 \u00b0C"}}