{"cas_no": "625-60-5", "cn_name": "\u786b\u4ee3\u4e59\u9178\u4e59\u916f", "en_name": ["S-Ethyl thioacetate", "Ethanethioic acid, S-ethyl ester", "Acetic acid, thio-, S-ethyl ester", "Ethanethiol, acetate", "S-Ethyl thiolacetate", "Ethyl thiolacetate", "S-Ethyl thioacetate", "Ethyl ethanethioate", "1-(Ethylsulfanyl)ethan-1-one"], "SMILES": "S(C(C)=O)CC", "physical_data": {"Molecular Weight": "104.17", "Molecular Formula": "C4H8OS", "Boiling Point": "116.4 \u00b0C", "Density": "1.036 g/cm\u00b3 @ Temp: 16 \u00b0C"}}