{"cas_no": "625-38-7", "cn_name": "\u4e59\u70ef\u57fa\u4e59\u9178", "en_name": ["3-Butenoic acid", "3-Butenoic acid", "Vinylacetic acid", "Acetic acid, ethenyl-", "\u03b2-Butenoic acid", "NSC 44546"], "SMILES": "C(C(O)=O)C=C", "physical_data": {"Molecular Weight": "86.09", "Molecular Formula": "C4H6O2", "Boiling Point": "169 \u00b0C", "Melting Point": "-35 \u00b0C", "Density": "1.0096 g/cm\u00b3 @ Temp: 20 \u00b0C"}}