{"cas_no": "625-08-1", "cn_name": "\u03b2-\u7f9f\u57fa\u5f02\u620a\u9178", "en_name": ["3-Hydroxyisovaleric acid", "Butanoic acid, 3-hydroxy-3-methyl-", "Butyric acid, 3-hydroxy-3-methyl-", "3-Hydroxy-3-methylbutanoic acid", "\u03b2-Hydroxyisovaleric acid", "3-Hydroxyisovaleric acid", "3-Hydroxy-3-methylbutyric acid", "\u03b2-Hydroxy-\u03b2-methylbutyric acid", "3-Methyl-3-hydroxybutyric acid"], "SMILES": "C(C(C)(C)O)C(O)=O", "physical_data": {"Molecular Weight": "118.13", "Molecular Formula": "C5H10O3", "Boiling Point": "162 \u00b0C", "Melting Point": "&lt;-32 \u00b0C", "Density": "0.9384 g/cm\u00b3 @ Temp: 20 \u00b0C"}}