{"cas_no": "625-25-2", "cn_name": "2-\u7532\u57fa-2-\u5e9a\u9187", "en_name": ["2-Methyl-2-heptanol", "2-Heptanol, 2-methyl-", "2-Methyl-2-heptanol", "1,1-Dimethylhexanol", "NSC 898", "2-Methyl-2-hydroxyheptane"], "SMILES": "C(C(C)(C)O)CCCC", "physical_data": {"Molecular Weight": "130.23", "Molecular Formula": "C8H18O", "Boiling Point": "156 \u00b0C", "Melting Point": "-50.4 \u00b0C", "Density": "0.8136 g/cm\u00b3 @ Temp: 25 \u00b0C"}}