{"cas_no": "625-28-5", "cn_name": "\u5f02\u620a\u8148", "en_name": ["Isovaleronitrile", "Butanenitrile, 3-methyl-", "Isovaleronitrile", "3-Methylbutanenitrile", "3-Methylbutyronitrile", "Isopentane nitrile", "1-Cyano-2-methylpropane", "Isobutyl cyanide", "NSC 148363", "Isobutylnitrile"], "SMILES": "C(C(C)C)C#N", "physical_data": {"Molecular Weight": "83.13", "Molecular Formula": "C5H9N", "Boiling Point": "127.5 \u00b0C", "Melting Point": "-101 \u00b0C", "Density": "0.8054 g/cm\u00b3 @ Temp: 0 \u00b0C"}}