{"cas_no": "625-51-4", "cn_name": "N-\u7f9f\u7532\u57fa\u4e59\u9170\u80fa", "en_name": ["N-(Hydroxymethyl)acetamide", "Acetamide, N-(hydroxymethyl)-", "N-(Hydroxymethyl)acetamide", "Formicin", "N-Methylolacetamide", "Acetamidomethanol", "N-Monomethylolacetamide", "Monomethylolacetamide"], "SMILES": "N(C(C)=O)CO", "physical_data": {"Molecular Weight": "89.09", "Molecular Formula": "C3H7NO2", "Melting Point": "56-57 \u00b0C", "Density": "1.024 g/cm\u00b3 @ Temp: 20 \u00b0C"}}