{"cas_no": "625-35-4", "cn_name": "2-\u4e01\u70ef\u9170\u6c2f", "en_name": ["trans-Crotonyl chloride", "2-Butenoyl chloride, (2E)-", "Crotonoyl chloride, (E)-", "2-Butenoyl chloride, (E)-", "(2E)-2-Butenoyl chloride", "(E)-Crotonoyl chloride", "trans-2-Butenoyl chloride", "trans-Crotonoyl chloride", "(E)-But-2-enoyl chloride", "(E)-Crotonic acid chloride", "(E)-Crotonyl chloride", "trans-Crotonyl chloride", "(E)-Crotonyl chloride"], "SMILES": "C(C(Cl)=O)=CC", "physical_data": {"Molecular Weight": "104.53", "Molecular Formula": "C4H5ClO", "Boiling Point": "77-80 \u00b0C @ Press: 15 Torr", "Melting Point": "72-74 \u00b0C"}}