{"cas_no": "625-52-5", "cn_name": "N-\u4e59\u57fa\u8132", "en_name": ["Ethylurea", "Urea, N-ethyl-", "Urea, ethyl-", "N-Ethylurea", "Ethylurea", "1-Ethylurea", "NSC 53556"], "SMILES": "N(C(N)=O)CC", "physical_data": {"Molecular Weight": "88.11", "Molecular Formula": "C3H8N2O", "Melting Point": "92.5 \u00b0C"}}