{"cas_no": "625-98-9", "cn_name": "3-\u6c2f\u6c1f\u82ef", "en_name": ["1-Chloro-3-fluorobenzene", "Benzene, 1-chloro-3-fluoro-", "1-Chloro-3-fluorobenzene", "1-Fluoro-3-chlorobenzene", "3-Chlorofluorobenzene", "m-Fluorochlorobenzene", "m-Chlorofluorobenzene", "3-Fluorochlorobenzene", "3-Fluoro-1-chlorobenzene", "m-Monofluoromonochlorobenzene", "3-Chloro-1-fluorobenzene", "NSC 10271", "3-Fluorophenyl chloride"], "SMILES": "ClC1=CC(F)=CC=C1", "physical_data": {"Molecular Weight": "130.55", "Molecular Formula": "C6H4ClF", "Boiling Point": "127.6 \u00b0C", "Melting Point": "&lt;-78 \u00b0C", "Density": "1.221 g/cm\u00b3 @ Temp: 25 \u00b0C"}}