{"cas_no": "625-27-4", "cn_name": "2-\u7532\u57fa-2\u620a\u70ef", "en_name": ["2-Methyl-2-pentene", "2-Pentene, 2-methyl-", "2-Methyl-2-pentene", "4-Methyl-3-pentene", "2-Ethyl-1,1-dimethylethylene", "2,4-Dimethyl-2-butene", "1,1-Dimethyl-1-butene", "NSC 73910"], "SMILES": "C(=C(C)C)CC", "physical_data": {"Molecular Weight": "84.16", "Molecular Formula": "C6H12", "Boiling Point": "67.3 \u00b0C", "Melting Point": "-135 \u00b0C", "Density": "0.69145 g/cm\u00b3 @ Temp: 15 \u00b0C"}}