{"cas_no": "625-86-5", "cn_name": "2,5-\u4e8c\u7532\u57fa\u544b\u5583", "en_name": ["2,5-Dimethylfuran", "Furan, 2,5-dimethyl-", "2,5-Dimethylfuran", "NSC 6220", "2-Methyl-5-methylfuran"], "SMILES": "CC=1OC(C)=CC1", "physical_data": {"Molecular Weight": "96.13", "Molecular Formula": "C6H8O", "Boiling Point": "93.5 \u00b0C", "Melting Point": "-62.8 \u00b0C", "Density": "0.9000 g/cm\u00b3 @ Temp: 20 \u00b0C"}}