{"cas_no": "625-82-1", "cn_name": "2,4-\u4e8c\u7532\u57fa\u5421\u54af", "en_name": ["2,4-Dimethylpyrrole", "1H-Pyrrole, 2,4-dimethyl-", "Pyrrole, 2,4-dimethyl-", "2,4-Dimethyl-1H-pyrrole", "2,4-Dimethylpyrrole", "NSC 81347", "2,4-Dimethyl-1-pyrrole", "2,4-Dimethyl-3H-pyrrole"], "SMILES": "CC=1C=C(C)NC1", "physical_data": {"Molecular Weight": "95.14", "Molecular Formula": "C6H9N", "Boiling Point": "168 \u00b0C", "Density": "0.9236 g/cm\u00b3 @ Temp: 420 \u00b0C"}}