{"cas_no": "625-33-2", "cn_name": "3-\u620a\u70ef-2-\u916e", "en_name": ["3-Penten-2-one", "3-Penten-2-one", "Methyl propenyl ketone", "Ethylideneacetone", "2-Oxo-3-pentene", "Methyl 1-propenyl ketone", "2-Penten-4-one", "NSC 61468"], "SMILES": "C(C(C)=O)=CC", "physical_data": {"Molecular Weight": "84.12", "Molecular Formula": "C5H8O", "Boiling Point": "122.5 \u00b0C", "Density": "0.8614 g/cm\u00b3 @ Temp: 20 \u00b0C"}}