{"cas_no": "625-54-7", "cn_name": "2-\u4e59\u6c27\u4e19\u70f7", "en_name": ["Ethyl isopropyl ether", "Propane, 2-ethoxy-", "Ether, ethyl isopropyl", "2-Ethoxypropane", "Ethyl isopropyl ether", "Isopropyl ethyl ether", "Ethyl iso-propyl ether"], "SMILES": "O(C(C)C)CC", "physical_data": {"Molecular Weight": "88.15", "Molecular Formula": "C5H12O", "Boiling Point": "54.1 \u00b0C", "Density": "0.7211 g/cm\u00b3 @ Temp: 20 \u00b0C"}}