{"cas_no": "625-48-9", "cn_name": "2-\u785d\u57fa\u4e59\u9187", "en_name": ["2-Nitroethanol", "Ethanol, 2-nitro-", "2-Nitroethanol", "\u03b2-Nitroethanol", "NSC 16151", "2-Nitroethan-1-ol"], "SMILES": "C(N(=O)=O)CO", "physical_data": {"Molecular Weight": "91.07", "Molecular Formula": "C2H5NO3", "Boiling Point": "194 \u00b0C", "Melting Point": "-80 \u00b0C", "Density": "1.309 g/cm\u00b3 @ Temp: 13.3 \u00b0C"}}