{"cas_no": "625095-57-0", "cn_name": "(S)-1-(3-\u6c2f\u82ef\u57fa)-1,3-\u4e19\u4e8c\u9187", "en_name": ["(1S)-1-(3-Chlorophenyl)-1,3-propanediol", "1,3-Propanediol, 1-(3-chlorophenyl)-, (1S)-", "(1S)-1-(3-Chlorophenyl)-1,3-propanediol", "(S)-1-(3-Chlorophenyl)-1,3-propanediol", "(1S)-(-)-1-(3-Chlorophenyl)-1,3-propanediol", "1,3-Propanediol 1-(3-chlorophenyl)-, (1S)-", "(S)-(-)-1-(3-Chlorophenyl)-1,3-propanediol"], "SMILES": "C(CCO)(O)C1=CC(Cl)=CC=C1", "physical_data": {"Molecular Weight": "186.64", "Molecular Formula": "C9H11ClO2", "Boiling Point": "142-144 \u00b0C @ Press: 0.2 mmHg"}}