{"cas_no": "6250-23-3", "cn_name": "\u5206\u6563\u9ec423", "en_name": ["Disperse Yellow 23", "Phenol, 4-[2-[4-(2-phenyldiazenyl)phenyl]diazenyl]-", "C.I. Disperse Yellow 23", "Phenol, 4-[[4-(phenylazo)phenyl]azo]-", "Phenol, p-[[p-(phenylazo)phenyl]azo]-", "4-[2-[4-(2-Phenyldiazenyl)phenyl]diazenyl]phenol", "C.I. 26070", "Acetoquinone Light Yellow 3RLLZ", "Calcophen Yellow 4RL", "Celliton Fast Yellow 4RL-CF", "Cibacet Yellow 2RG", "Dianix Yellow 5R", "Esteroquinone Light Yellow 3RLL", "Fenacet Fast Yellow 4R", "Foron Yellow RGFL", "Foron Yellow RGFL ultra-dispersed", "Latyl Yellow 4RL", "Nyloquinone Yellow 3R", "Setacyl Yellow P 3RL", "Setacyl Yellow 3RN", "SRA Fast Golden Yellow XIII", "Terasil Yellow 2RG", "Artisil Yellow RGFL", "p-Hydroxy-p-bis(azobenzene)", "Disperse Yellow 23", "Terasil Golden Yellow R", "Ostacet Yellow E-L 5R", "Foron Yellow E-RGF 2", "Foron G", "Foron Yellow E-RGFL", "Fantagen Yellow 3RL", "DTNW 20", "Disperse Yellow RGFL", "Intrasil Yellow 5R", "NSC 45565", "Yohao Disperse Yellow E-R"], "SMILES": "N(=NC1=CC=C(O)C=C1)C2=CC=C(N=NC3=CC=CC=C3)C=C2", "physical_data": {"Molecular Weight": "302.33", "Molecular Formula": "C18H14N4O", "Melting Point": "179-181 \u00b0C"}}