{"cas_no": "625115-55-1", "cn_name": "\u5229\u5965\u897f\u5471", "en_name": ["Riociguat", "Carbamic acid, N-[4,6-diamino-2-[1-[(2-fluorophenyl)methyl]-1H-pyrazolo[3,4-b]pyridin-3-yl]-5-pyrimidinyl]-N-methyl-, methyl ester", "Carbamic acid, [4,6-diamino-2-[1-[(2-fluorophenyl)methyl]-1H-pyrazolo[3,4-b]pyridin-3-yl]-5-pyrimidinyl]methyl-, methyl ester", "Riociguat", "BAY 632521", "BAY 63-2521", "Methyl [4,6-diamino-2-[1-(2-fluorobenzyl)-1H-pyrazolo[3,4-b]pyridin-3-yl]pyrimidin-5-yl]methylcarbamate", "Adempas", "Methyl N-[4,6-diamino-2-[1-(2-fluorobenzyl)-1H-pyrazolo[3,4-b]pyridin-3-yl]-5-pyrimidinyl]-N-(methyl)carbamate"], "SMILES": "C(N1N=C(C=2C1=NC=CC2)C=3N=C(N)C(N(C(OC)=O)C)=C(N)N3)C4=C(F)C=CC=C4", "physical_data": {"Molecular Weight": "422.42", "Molecular Formula": "C20H19FN8O2", "Melting Point": "257-259 \u00b0C"}}