{"cas_no": "625120-81-2", "cn_name": "3-(N-\u7532\u57fa\u6b63\u620a\u80fa\u57fa)\u4e19\u9178\u76d0\u9178\u76d0", "en_name": ["N-Methyl-N-pentyl-\u03b2-alanine hydrochloride", "\u03b2-Alanine, N-methyl-N-pentyl-, hydrochloride (1:1)", "\u03b2-Alanine, N-methyl-N-pentyl-, hydrochloride", "Ibanic acid hydrochloride", "N-Methyl-N-pentyl-\u03b2-alanine hydrochloride"], "SMILES": "N(CCC(O)=O)(CCCCC)C.Cl", "physical_data": {"Molecular Weight": "", "Molecular Formula": "C9H19NO2.ClH", "Melting Point": "97.0-98.5 \u00b0C"}}