{"cas_no": "62522-63-8", "cn_name": "3-\u7532\u57fa-2-\u6c27\u4ee3-2,3-\u4e8c\u6c22-1,3-\u82ef\u5e76\u5511-6-\u78fa\u9170\u6c2f", "en_name": ["3-Methyl-2-oxo-2,3-dihydrobenzo[d]oxazole-6-sulfonyl chloride", "6-Benzoxazolesulfonyl chloride, 2,3-dihydro-3-methyl-2-oxo-", "2,3-Dihydro-3-methyl-2-oxo-6-benzoxazolesulfonyl chloride", "3-Methyl-2-oxo-2,3-dihydrobenzo[d]oxazole-6-sulfonyl chloride", "3-Methyl-2-oxo-2,3-dihydro-1,3-benzoxazole-6-sulfonyl chloride", "3-Methylbenzoxazolone-6-sulfonyl chloride", "3-Methyl-2-oxo-1,3-benzoxazole-6-sulfonyl chloride", "3-Methyl-2-oxo-2,3-dihydro-benzooxazole-6-sulfonyl chloride"], "SMILES": "CN1C=2C(=CC(S(Cl)(=O)=O)=CC2)OC1=O", "physical_data": {"Molecular Weight": "247.66", "Molecular Formula": "C8H6ClNO4S", "Melting Point": "128-130 \u00b0C"}}