{"cas_no": "6253-10-7", "cn_name": "\u5206\u6563\u6a59B", "en_name": ["Disperse Orange 13", "Phenol, 4-[2-[4-(2-phenyldiazenyl)-1-naphthalenyl]diazenyl]-", "C.I. Disperse Orange 13", "Phenol, 4-[[4-(phenylazo)-1-naphthalenyl]azo]-", "4-[2-[4-(2-Phenyldiazenyl)-1-naphthalenyl]diazenyl]phenol", "C.I. 26080", "Dianix Fast Orange B", "Dianix Orange B", "Dispersol Printing Orange B", "Kayalon Polyester Orange BF", "Miketon Polyester Orange B", "Palanil Orange G", "Resolin Orange RL", "Samaron Orange B", "Serilene Orange BL", "Setacyl Orange P-GRL", "Sumikaron Orange B", "Supracet Golden Orange GR", "Supracet Golden Orange TG 2R", "Dispersol Orange B 300", "Disperse Orange 13", "1-(4-Hydroxyphenylazo)-4-(phenylazo)naphthalene", "C.I. Solvent Orange 52", "Seriplas Orange BL", "Dispersol Orange C-B", "1-Phenylazo-4-(p-hydroxyphenylazo)naphthalene", "Sumikaron Orange SE-B", "Dispersol Orange G-B", "Celliton Fast Orange B 300", "Kayalon Polyester Orange B", "Synten Orange P-B", "Dianix Orange B-SE", "Tulasteron Fast Orange B-C", "Solvent Orange 52", "Samaron Orange HB"], "SMILES": "N(=NC1=CC=C(O)C=C1)C=2C3=C(C(N=NC4=CC=CC=C4)=CC2)C=CC=C3", "physical_data": {"Molecular Weight": "352.39", "Molecular Formula": "C22H16N4O", "Melting Point": "210.5 \u00b0C"}}