{"cas_no": "62535-60-8", "cn_name": "5-\u6c28\u57fa-3-\u7532\u57fa-1-\u5bf9\u7532\u82ef\u57fa\u5421\u5511", "en_name": ["3-Methyl-1-(4-methylphenyl)-1H-pyrazol-5-amine", "1H-Pyrazol-5-amine, 3-methyl-1-(4-methylphenyl)-", "Pyrazole, 5-amino-3-methyl-1-p-tolyl-", "3-Methyl-1-(4-methylphenyl)-1H-pyrazol-5-amine", "1-p-Tolyl-3-methyl-5-aminopyrazole", "5-Amino-3-methyl-1-(p-tolyl)pyrazole", "5-Amino-3-methyl-1-(4-methylphenyl)pyrazole", "5-Methyl-2-(4-methylphenyl)-2H-pyrazol-3-ylamine", "1-(4-Methylphenyl)-3-methyl-1H-pyrazol-5-amine", "3-Methyl-1-(p-tolyl)-1H-pyrazol-5-amine"], "SMILES": "NC=1N(N=C(C)C1)C2=CC=C(C)C=C2", "physical_data": {"Molecular Weight": "187.24", "Molecular Formula": "C11H13N3", "Boiling Point": "187-189 \u00b0C @ Press: 6 mmHg", "Melting Point": "208-209 \u00b0C"}}