{"cas_no": "62538-21-0", "cn_name": "2-(4-\u6c2f\u82ef\u57fa)-2-\u6c30\u57fa\u4e59\u919b", "en_name": ["4-Chloro-\u03b1-formylbenzeneacetonitrile", "Benzeneacetonitrile, 4-chloro-\u03b1-formyl-", "Acetaldehyde, (p-chlorophenyl)cyano-", "4-Chloro-\u03b1-formylbenzeneacetonitrile", "2-(4-Chlorophenyl)-2-formylacetonitrile", "2-(4-Chlorophenyl)-3-oxopropanenitrile", "2-(4-Chloro-phenyl)-3-oxo-propionitrile", "2-(4-Chlorophenyl)-2-cyanoacetaldehyde"], "SMILES": "C(C#N)(C=O)C1=CC=C(Cl)C=C1", "physical_data": {"Molecular Weight": "179.60", "Molecular Formula": "C9H6ClNO", "Melting Point": "164-165 \u00b0C"}}