{"cas_no": "6254-48-4", "cn_name": "3-\u82ef\u57fa-L-\u4e1d\u6c28\u9178", "en_name": ["(\u03b2R)-\u03b2-Hydroxy-L-phenylalanine", "L-Phenylalanine, \u03b2-hydroxy-, (\u03b2R)-", "Serine, 3-phenyl-, L-threo-", "L-Phenylalanine, \u03b2-hydroxy-, threo-", "(\u03b2R)-\u03b2-Hydroxy-L-phenylalanine", "L-threo-3-Phenylserine", "threo-\u03b2-Hydroxy-L-phenylalanine", "L-threo-\u03b2-Phenylserine", "(2S,3R)-2-Amino-3-hydroxy-3-phenylpropanoic acid", "(2S,3R)-2-Amino-3-hydroxy-3-phenylpropionic acid"], "SMILES": "C(C(C(O)=O)N)(O)C1=CC=CC=C1", "physical_data": {"Molecular Weight": "181.19", "Molecular Formula": "C9H11NO3", "Melting Point": "195-197 \u00b0C (decomp)"}}