{"cas_no": "62571-86-2", "cn_name": "\u5361\u6258\u666e\u5229", "en_name": ["Captopril", "L-Proline, 1-[(2S)-3-mercapto-2-methyl-1-oxopropyl]-", "L-Proline, 1-(3-mercapto-2-methyl-1-oxopropyl)-, (S)-", "1-[(2S)-3-Mercapto-2-methyl-1-oxopropyl]-L-proline", "SQ 14225", "Captopril", "Capoten", "SA 333", "(-)-Captopril", "L-Captopril", "Tensiomin", "S-Captopril", "Novocaptopril", "Lopril", "Captoril", "Tensobon", "Acepress", "Acepril", "Tensoprel", "Captolane", "Cesplon", "Acediur", "Aceplus", "Hipertil", "Alopresin", "Garranil", "Dilabar", "Lopirin", "(-)-1-[(2S)-3-Mercapto-2-methyl-1-oxopropyl]-L-proline", "Angiopril", "Capotril", "Farcopril", "Hypopress", "Captotec", "CaptoHexal", "Zapto", "Captomax", "Facopril", "Lotensine", "Captopril Generis", "Captopril Mepha", "Captopril GP", "Captopril ratiopharm", "Capton", "Aceten 25", "Aceten", "MeSH ID: D002216"], "SMILES": "C(C(CS)C)(=O)N1C(C(O)=O)CCC1", "physical_data": {"Molecular Weight": "217.29", "Molecular Formula": "C9H15NO3S", "Melting Point": "103-104 \u00b0C"}}