{"cas_no": "6258-63-5", "cn_name": "2-\u567b\u5429\u7532\u57fa\u786b\u9187", "en_name": ["2-Thiophenemethanethiol", "2-Thiophenemethanethiol", "Thenyl mercaptan", "2-Thienylmethanethiol", "2-(Mercaptomethyl)thiophene", "2-Thienylmethyl mercaptan", "(Thiophen-2-yl)methanethiol"], "SMILES": "C(S)C1=CC=CS1", "physical_data": {"Molecular Weight": "130.23", "Molecular Formula": "C5H6S2", "Boiling Point": "181.5-183.5 \u00b0C"}}