{"cas_no": "6258-30-6", "cn_name": "2-(4-\u6c2f\u4ee3\u82ef\u57fa)-2-\u7532\u57fa\u4e19\u9178", "en_name": ["4-Chloro-\u03b1,\u03b1-dimethylbenzeneacetic acid", "Benzeneacetic acid, 4-chloro-\u03b1,\u03b1-dimethyl-", "Hydratropic acid, \u03b1-methyl-p-chloro-", "Hydratropic acid, p-chloro-\u03b1-methyl-", "4-Chloro-\u03b1,\u03b1-dimethylbenzeneacetic acid", "2-(p-Chlorophenyl)-2-methylpropionic acid", "2-(4-Chlorophenyl)-2-methylpropionic acid", "2-(4-Chlorophenyl)-2-methylpropanoic acid"], "SMILES": "C(C(O)=O)(C)(C)C1=CC=C(Cl)C=C1", "physical_data": {"Molecular Weight": "198.65", "Molecular Formula": "C10H11ClO2", "Boiling Point": "85 \u00b0C @ Press: 0.4 Torr", "Melting Point": "124 \u00b0C", "Density": "1.1929 g/cm\u00b3 @ Temp: 20 \u00b0C"}}