{"cas_no": "6258-60-2", "cn_name": "4-\u7532\u6c27\u57fa\u82c4\u786b\u9187", "en_name": ["4-Methoxy-\u03b1-toluenethiol", "Benzenemethanethiol, 4-methoxy-", "\u03b1-Toluenethiol, p-methoxy-", "4-Methoxybenzenemethanethiol", "(p-Methoxyphenyl)methanethiol", "p-Methoxybenzyl mercaptan", "p-Methoxybenzenemethanethiol", "4-Methoxybenzyl mercaptan", "4-Methoxy-\u03b1-toluenethiol", "(4-Methoxyphenyl)methanethiol", "(4-Methoxyphenyl)methylthiol", "4-Methoxybenzylthiol", "p-Methoxy-\u03b1-toluenethiol", "p-Methoxybenzylthiol", "[4-(Methyloxy)phenyl]methanethiol", "4-Methoxytoluenethiol", "4-Methoxy-alpha-toluenethiol"], "SMILES": "C(S)C1=CC=C(OC)C=C1", "physical_data": {"Molecular Weight": "154.23", "Molecular Formula": "C8H10OS", "Boiling Point": "89-94 \u00b0C @ Press: 2.5 Torr"}}