{"cas_no": "6258-66-8", "cn_name": "4-\u6c2f\u82c4\u786b\u9187", "en_name": ["4-Chlorobenzyl mercaptan", "Benzenemethanethiol, 4-chloro-", "\u03b1-Toluenethiol, p-chloro-", "4-Chlorobenzenemethanethiol", "4-Chlorobenzyl mercaptan", "p-Chlorobenzyl mercaptan", "p-Chlorobenzenemethanethiol", "(p-Chlorophenyl)methanethiol", "4-Chloro-\u03b1-toluenethiol", "p-Chloro-\u03b1-toluenethiol", "(4-Chlorophenyl)methanethiol", "4-Chlorobenzylthiol", "NSC 108735", "NSC 203281", "p-Chlorobenzylthiol"], "SMILES": "C(S)C1=CC=C(Cl)C=C1", "physical_data": {"Molecular Weight": "158.65", "Molecular Formula": "C7H7ClS", "Boiling Point": "66-67 \u00b0C @ Press: 0.4 Torr", "Melting Point": "19.5 \u00b0C"}}