{"cas_no": "62580-80-7", "cn_name": "\u5965\u785d\u5511", "en_name": ["3-(2-Methyl-5-nitro-1H-imidazol-1-yl)-1,2-propanediol", "1,2-Propanediol, 3-(2-methyl-5-nitro-1H-imidazol-1-yl)-", "3-(2-Methyl-5-nitro-1H-imidazol-1-yl)-1,2-propanediol", "Ro 11-2616", "DA 3838"], "SMILES": "C(C(CO)O)N1C(N(=O)=O)=CN=C1C", "physical_data": {"Molecular Weight": "201.18", "Molecular Formula": "C7H11N3O4", "Melting Point": "102.0-104.5 \u00b0C"}}