{"cas_no": "62596-34-3", "cn_name": "\u73af\u6851\u8272\u70ef", "en_name": ["Cyclomorusin", "3H,7H,8H-Bis[1]benzopyrano[4,3-b:6\u2032,5\u2032-e]pyran-7-one, 6,11-dihydroxy-3,3-dimethyl-8-(2-methylpropen-1-yl)-", "6,11-Dihydroxy-3,3-dimethyl-8-(2-methylpropen-1-yl)-3H,7H,8H-bis[1]benzopyrano[4,3-b:6\u2032,5\u2032-e]pyran-7-one", "Cyclomorusin", "Cyclomulberrochromene", "Cyclomorusin A"], "SMILES": "C(=C(C)C)C1C2=C(C=3C(O1)=CC(O)=CC3)OC4=C(C2=O)C(O)=CC5=C4C=CC(C)(C)O5", "physical_data": {"Molecular Weight": "418.44", "Molecular Formula": "C25H22O6", "Melting Point": "233-234 \u00b0C"}}