{"cas_no": "6259-42-3", "cn_name": "\u7ea2\u8272\u57faKB", "en_name": ["Benzenamine, 5-chloro-2-methyl-, hydrochloride (1:1)", "Benzenamine, 5-chloro-2-methyl-, hydrochloride (1:1)", "o-Toluidine, 5-chloro-, hydrochloride", "Benzenamine, 5-chloro-2-methyl-, hydrochloride", "Amarthol Fast Red KB Base", "Amarthol Fast Red KB Salt", "Azanil Red Salt KB", "Azobase CAT", "Azoene Fast Red KB Salt", "Daito Red Base KB", "Fast Red 4CT", "Fast Red Base D", "Fast Red Base KB", "Fast Red DA Salt", "Fast Red KB", "Fast Red 4CT Salt", "Fast Red Salt KB", "Fast Red Salt KBA", "Mitsui Red KB Base", "Naphthanil Red KB Base", "Naphthanil Red KBH", "Naphthanil Red KBO Base", "Naphtoelan Fast Red KB Base", "Naphtoelan Fast Red KB Salt", "Neutrosel Red DVA", "Red Base NKB", "Red KB Salt", "Sanyo Fast Red KB Base", "Scarlet Base Irga VI", "Scarlet Salt Irga VI", "Stabamine Red KB", "5-Chloro-o-toluidine hydrochloride", "5-Chloro-2-methylaniline hydrochloride", "2-Amino-4-chlorotoluene hydrochloride"], "SMILES": "NC1=C(C)C=CC(Cl)=C1.Cl", "physical_data": {"Molecular Weight": "", "Molecular Formula": "C7H8ClN.ClH", "Melting Point": "265-267 \u00b0C"}}