{"cas_no": "62596-35-4", "cn_name": "\u65b0\u73af\u6851\u8272\u70ef", "en_name": ["Neocyclomorusin", "3H,7H-Pyrano[2\u2032,3\u2032:7,8][1]benzopyrano[3,2-d][1]benzoxepin-7-one, 8,9-dihydro-6,12-dihydroxy-9-(1-hydroxy-1-methylethyl)-3,3-dimethyl-", "8,9-Dihydro-6,12-dihydroxy-9-(1-hydroxy-1-methylethyl)-3,3-dimethyl-3H,7H-pyrano[2\u2032,3\u2032:7,8][1]benzopyrano[3,2-d][1]benzoxepin-7-one", "Neocyclomorusin"], "SMILES": "O=C1C=2C(=C3C(=CC2O)OC(C)(C)C=C3)OC4=C1CC(C(C)(C)O)OC=5C4=CC=C(O)C5", "physical_data": {"Molecular Weight": "436.45", "Molecular Formula": "C25H24O7", "Melting Point": "261-264 \u00b0C"}}