{"cas_no": "62595-74-8", "cn_name": "3-\u6eb4\u54cc\u5576-2,6-\u4e8c\u916e", "en_name": ["3-Bromo-2,6-piperidinedione", "2,6-Piperidinedione, 3-bromo-", "Glutarimide, 2-bromo-", "3-Bromo-2,6-piperidinedione", "3-Bromopiperidin-2,6-dione"], "SMILES": "O=C1C(Br)CCC(=O)N1", "physical_data": {"Molecular Weight": "192.01", "Molecular Formula": "C5H6BrNO2", "Melting Point": "107 \u00b0C"}}