{"cas_no": "62596-29-6", "cn_name": "\u6851\u8f9b\u7d20", "en_name": ["Morusin", "4H,8H-Benzo[1,2-b:3,4-b\u2032]dipyran-4-one, 2-(2,4-dihydroxyphenyl)-5-hydroxy-8,8-dimethyl-3-(3-methyl-2-buten-1-yl)-", "4H,8H-Benzo[1,2-b:3,4-b\u2032]dipyran-4-one, 2-(2,4-dihydroxyphenyl)-5-hydroxy-8,8-dimethyl-3-(3-methyl-2-butenyl)-", "2-(2,4-Dihydroxyphenyl)-5-hydroxy-8,8-dimethyl-3-(3-methyl-2-buten-1-yl)-4H,8H-benzo[1,2-b:3,4-b\u2032]dipyran-4-one", "Morusin", "Mulberrochromene", "NSC 649220", "2-(2,4-Dihydroxyphenyl)-5-hydroxy-8,8-dimethyl-3-(3-methylbut-2-enyl)pyrano[2,3-h]chromen-4-one"], "SMILES": "O=C1C2=C(C3=C(C=C2O)OC(C)(C)C=C3)OC(=C1CC=C(C)C)C4=C(O)C=C(O)C=C4", "physical_data": {"Molecular Weight": "420.45", "Molecular Formula": "C25H24O6", "Melting Point": "232-235 \u00b0C"}}