{"cas_no": "626-51-7", "cn_name": "3-\u7532\u57fa\u620a\u4e8c\u9178", "en_name": ["3-Methylglutaric acid", "Pentanedioic acid, 3-methyl-", "Glutaric acid, 3-methyl-", "Glutaric acid, \u03b2-methyl-", "3-Methylpentanedioic acid", "3-Methylglutaric acid", "\u03b2-Methylglutaric acid", "NSC 14870"], "SMILES": "C(C(CC(O)=O)C)C(O)=O", "physical_data": {"Molecular Weight": "146.14", "Molecular Formula": "C6H10O4", "Boiling Point": "165-167 \u00b0C @ Press: 0.5 Torr", "Melting Point": "87 \u00b0C", "Density": "1.1168 g/cm\u00b3 @ Temp: 20 \u00b0C"}}