{"cas_no": "626-38-0", "cn_name": "\u4e59\u9178\u4ef2\u620a\u916f", "en_name": ["2-Pentyl acetate", "2-Pentanol, 2-acetate", "2-Pentanol, acetate", "1-Methylbutyl acetate", "2-Acetoxypentane", "2-Pentyl acetate", "Pent-2-yl ethanoate", "(\u00b1)-2-Pentyl acetate", "sec-Amyl ethanoate"], "SMILES": "O(C(CCC)C)C(C)=O", "physical_data": {"Molecular Weight": "130.18", "Molecular Formula": "C7H14O2", "Boiling Point": "130-131 \u00b0C", "Melting Point": "-78.5 \u00b0C", "Density": "0.862-0.866 g/cm\u00b3 @ Temp: 20 \u00b0C"}}