{"cas_no": "626-43-7", "cn_name": "3,5-\u4e8c\u6c2f\u82ef\u80fa", "en_name": ["3,5-Dichloroaniline", "Benzenamine, 3,5-dichloro-", "Aniline, 3,5-dichloro-", "3,5-Dichlorobenzenamine", "3,5-Dichloroaniline", "3,5-Dichlorophenylamine", "3,5-Dichlorolaniline", "3,5-DCA"], "SMILES": "ClC1=CC(Cl)=CC(N)=C1", "physical_data": {"Molecular Weight": "162.02", "Molecular Formula": "C6H5Cl2N", "Boiling Point": "260 \u00b0C @ Press: 741 Torr", "Melting Point": "51-53 \u00b0C", "Density": "1.58 g/cm\u00b3"}}