{"cas_no": "626-18-6", "cn_name": "1,3-\u82ef\u4e8c\u7532\u9187", "en_name": ["1,3-Benzenedimethanol", "1,3-Benzenedimethanol", "m-Xylene-\u03b1,\u03b1\u2032-diol", "Isophthalyl alcohol", "m-Xylylene glycol", "m-Benzenedimethanol", "1,3-Bis(hydroxymethyl)benzene", "m-(Hydroxymethyl)phenylmethanol", "m-Bis(hydroxymethyl)benzene", "2,6-Bis(hydroxymethyl)benzene", "m-Xylylenediol", "(3-Hydroxymethylphenyl)methanol", "1,3-Di(hydroxymethyl)benzene", "1,3-Phenylenedimethanol"], "SMILES": "C(O)C1=CC(CO)=CC=C1", "physical_data": {"Molecular Weight": "138.16", "Molecular Formula": "C8H10O2", "Melting Point": "57 \u00b0C"}}