{"cas_no": "626-20-0", "cn_name": "3-\u7532\u6c27\u57fa\u82ef\u4e59\u70ef", "en_name": ["1-Ethenyl-3-methoxybenzene", "Benzene, 1-ethenyl-3-methoxy-", "Anisole, m-vinyl-", "1-Ethenyl-3-methoxybenzene", "m-Methoxystyrene", "3-Methoxystyrene", "m-Vinylanisole", "3-Vinylanisole", "1-Methoxy-3-vinylbenzene"], "SMILES": "C(=C)C1=CC(OC)=CC=C1", "physical_data": {"Molecular Weight": "134.18", "Molecular Formula": "C9H10O", "Boiling Point": "67 \u00b0C @ Press: 5 Torr", "Density": "0.9894 g/cm\u00b3 @ Temp: 23 \u00b0C"}}