{"cas_no": "626-33-5", "cn_name": "2-\u7532\u57fa-4-\u5e9a\u916e", "en_name": ["2-Methyl-4-heptanone", "4-Heptanone, 2-methyl-", "2-Methyl-4-heptanone", "Isobutyl propyl ketone", "6-Methyl-4-heptanone"], "SMILES": "C(C(CCC)=O)C(C)C", "physical_data": {"Molecular Weight": "128.21", "Molecular Formula": "C8H16O", "Boiling Point": "155 \u00b0C", "Density": "0.810 g/cm\u00b3 @ Temp: 25 \u00b0C"}}