{"cas_no": "626-95-9", "cn_name": "1,4-\u620a\u4e8c\u9187", "en_name": ["1,4-Pentanediol", "1,4-Pentanediol", "1,4-Dihydroxy-1-methylbutane", "4-Hydroxy-1-pentanol", "2,5-Pentanediol", "1,4-Dihydroxypentane", "(\u00b1)-1,4-Pentanediol"], "SMILES": "C(C(C)O)CCO", "physical_data": {"Molecular Weight": "104.15", "Molecular Formula": "C5H12O2", "Boiling Point": "202 \u00b0C", "Density": "0.9857 g/cm\u00b3 @ Temp: 25 \u00b0C"}}