{"cas_no": "626-26-6", "cn_name": "\u4ef2\u4e01\u57fa\u786b\u919a", "en_name": ["Di-sec-butyl sulfide", "Butane, 2-[(1-methylpropyl)thio]-", "sec-Butyl sulfide", "Butane, 2,2\u2032-thiobis-", "2-[(1-Methylpropyl)thio]butane", "Di-sec-butyl sulfide", "Di-sec-Butyl thioether", "3,5-Dimethyl-4-thiaheptane", "Di(1-methylpropyl) sulfide", "Di-s-Butyl sulfide", "2-Butan-2-ylsulfanylbutane", "2-(Butan-2-ylsulfanyl)butane"], "SMILES": "S(C(CC)C)C(CC)C", "physical_data": {"Molecular Weight": "146.29", "Molecular Formula": "C8H18S", "Boiling Point": "165 \u00b0C", "Density": "0.8348 g/cm\u00b3 @ Temp: 20 \u00b0C"}}