{"cas_no": "626-64-2", "cn_name": "4-\u7f9f\u57fa\u5421\u5576", "en_name": ["4-Hydroxypyridine", "4-Pyridinol", "4-Pyridol", "4-Hydroxypyridine", "\u03b3-Hydroxypyridine", "NSC 5080"], "SMILES": "OC=1C=CN=CC1", "physical_data": {"Molecular Weight": "95.10", "Molecular Formula": "C5H5NO", "Boiling Point": "257 \u00b0C", "Melting Point": "149.8 \u00b0C"}}