{"cas_no": "626-77-7", "cn_name": "\u5df1\u9178\u4e19\u916f", "en_name": ["Propyl hexanoate", "Hexanoic acid, propyl ester", "Propyl caproate", "Propyl hexanoate", "1-Propyl n-caproate", "NSC 53784"], "SMILES": "C(C(OCCC)=O)CCCC", "physical_data": {"Molecular Weight": "158.24", "Molecular Formula": "C9H18O2", "Boiling Point": "187 \u00b0C", "Melting Point": "-68.7 \u00b0C", "Density": "0.8847 g/cm\u00b3 @ Temp: 0 \u00b0C"}}