{"cas_no": "626-16-4", "cn_name": "\u95f4\u4e8c\u6c2f\u82c4", "en_name": ["1,3-Bis(chloromethyl)benzene", "Benzene, 1,3-bis(chloromethyl)-", "m-Xylene, \u03b1,\u03b1\u2032-dichloro-", "1,3-Bis(chloromethyl)benzene", "m-Xylylene dichloride", "\u03b1,\u03b1\u2032-Dichloro-m-xylene", "m-Bis(chloromethyl)benzene", "m-Xylene dichloride", "NSC 96971", "3-(Chloromethyl)benzyl chloride", "\u03b1\u2032,\u03b1\u2032-Dichloro-m-xylene"], "SMILES": "C(Cl)C1=CC(CCl)=CC=C1", "physical_data": {"Molecular Weight": "175.06", "Molecular Formula": "C8H8Cl2", "Boiling Point": "251.5 \u00b0C", "Melting Point": "34.2 \u00b0C"}}