{"cas_no": "626-99-3", "cn_name": "2,4-\u620a\u4e8c\u70ef\u9178", "en_name": ["2,4-Pentadienoic acid", "2,4-Pentadienoic acid", "\u03b1,\u03b3-Pentadienoic acid", "1,3-Butadiene-1-carboxylic acid", "Butadiene-1-carboxylic acid", "1-Carboxybutadiene", "\u03b2-Vinylacrylic acid", "1-Carboxy-1,3-butadiene", "NSC 16628"], "SMILES": "C(C(O)=O)=CC=C", "physical_data": {"Molecular Weight": "98.10", "Molecular Formula": "C5H6O2", "Melting Point": "79 \u00b0C"}}