{"cas_no": "626-86-8", "cn_name": "\u5df1\u4e8c\u9178\u5355\u4e59\u916f", "en_name": ["1-Ethyl hexanedioate", "Hexanedioic acid, 1-ethyl ester", "Adipic acid, monoethyl ester", "Hexanedioic acid, monoethyl ester", "Adipic acid, ethyl ester", "1-Ethyl hexanedioate", "Monoethyl adipate", "Ethyl hydrogen adipate", "Monoethyl hexanedioate", "Ethyl hydrogen hexanedioate", "1,4-Butanedicarboxylic acid monoethyl ester", "NSC 8877", "6-Ethoxy-6-oxohexanoic acid", "1,6-Hexandioic acid ethyl ester"], "SMILES": "C(C(OCC)=O)CCCC(O)=O", "physical_data": {"Molecular Weight": "174.19", "Molecular Formula": "C8H14O4", "Boiling Point": "285 \u00b0C", "Melting Point": "29 \u00b0C"}}