{"cas_no": "626-62-0", "cn_name": "\u7898\u73af\u5df1\u70f7", "en_name": ["Iodocyclohexane", "Cyclohexane, iodo-", "Iodocyclohexane", "Cyclohexyl iodide", "NSC 6075"], "SMILES": "IC1CCCCC1", "physical_data": {"Molecular Weight": "210.06", "Molecular Formula": "C6H11I", "Boiling Point": "81-83 \u00b0C @ Press: 20 Torr", "Melting Point": "52 \u00b0C", "Density": "1.624 g/cm\u00b3 @ Temp: 20 \u00b0C"}}