{"cas_no": "626-97-1", "cn_name": "\u620a\u9170\u80fa", "en_name": ["Pentanamide", "Pentanamide", "Valeramide", "n-Valeramide", "Pentanimidic acid", "Valeric acid amide", "NSC 400223"], "SMILES": "C(C(N)=O)CCC", "physical_data": {"Molecular Weight": "101.15", "Molecular Formula": "C5H11NO", "Boiling Point": "225 \u00b0C", "Melting Point": "106 \u00b0C", "Density": "0.8487 g/cm\u00b3 @ Temp: 20 \u00b0C"}}