{"cas_no": "626-93-7", "cn_name": "2-\u5df1\u9187", "en_name": ["(\u00b1)-2-Hexanol", "2-Hexanol", "2-Hydroxyhexane", "(\u00b1)-2-Hexanol", "DL-Hexan-2-ol", "(\u00b1)-1-Methyl-1-pentanol", "NSC 3706"], "SMILES": "C(C(C)O)CCC", "physical_data": {"Molecular Weight": "102.17", "Molecular Formula": "C6H14O", "Boiling Point": "136 \u00b0C", "Melting Point": "71-72 \u00b0C", "Density": "0.8 g/cm\u00b3"}}