{"cas_no": "626-15-3", "cn_name": "1,3-\u4e8c(\u6eb4\u7532\u57fa)\u82ef", "en_name": ["1,3-Bis(bromomethyl)benzene", "Benzene, 1,3-bis(bromomethyl)-", "m-Xylene, \u03b1,\u03b1\u2032-dibromo-", "1,3-Bis(bromomethyl)benzene", "m-Xylylene dibromide", "\u03b1,\u03b1\u2032-Dibromo-m-xylene", "m-Bis(bromomethyl)benzene", "m-(Bromomethyl)benzyl bromide", "\u03b1,\u03b1\u2032-m-Xylene dibromide", "NSC 28040", "\u03b1,\u03b1\u2032-Dibromo-1,3-xylene", "1,3-Dibromomethyl benzene"], "SMILES": "C(Br)C1=CC(CBr)=CC=C1", "physical_data": {"Molecular Weight": "263.96", "Molecular Formula": "C8H8Br2", "Boiling Point": "158-160 \u00b0C @ Press: 12 Torr", "Melting Point": "77 \u00b0C"}}