{"cas_no": "626-39-1", "cn_name": "1,3,5-\u4e09\u6eb4\u82ef", "en_name": ["1,3,5-Tribromobenzene", "Benzene, 1,3,5-tribromo-", "1,3,5-Tribromobenzene", "NSC 62439"], "SMILES": "BrC1=CC(Br)=CC(Br)=C1", "physical_data": {"Molecular Weight": "314.80", "Molecular Formula": "C6H3Br3", "Boiling Point": "271 \u00b0C", "Melting Point": "122.8 \u00b0C"}}