{"cas_no": "626-44-8", "cn_name": "1,3,5-\u4e09\u7898\u82ef", "en_name": ["1,3,5-Triiodobenzene", "Benzene, 1,3,5-triiodo-", "1,3,5-Triiodobenzene"], "SMILES": "IC1=CC(I)=CC(I)=C1", "physical_data": {"Molecular Weight": "455.80", "Molecular Formula": "C6H3I3", "Melting Point": "184.2 \u00b0C"}}