{"cas_no": "626-23-3", "cn_name": "\u4e8c\u4ef2\u4e01\u80fa", "en_name": ["N-(1-Methylpropyl)-2-butanamine", "2-Butanamine, N-(1-methylpropyl)-", "Di-sec-butylamine", "N-(1-Methylpropyl)-2-butanamine", "Bis(1-methylpropyl)amine", "Di-2-butylamine", "Bis(sec-butyl)amine", "NSC 8703", "N,N-Di-sec-butylamine", "N,N-Bis(1-methylpropyl)amine", "Bis(2-butyl)amine"], "SMILES": "N(C(CC)C)C(CC)C", "physical_data": {"Molecular Weight": "129.24", "Molecular Formula": "C8H19N", "Boiling Point": "135 \u00b0C"}}