{"cas_no": "626-05-1", "cn_name": "2,6-\u4e8c\u6eb4\u5421\u5576", "en_name": ["2,6-Dibromopyridine", "Pyridine, 2,6-dibromo-", "2,6-Dibromopyridine", "NSC 613"], "SMILES": "BrC=1N=C(Br)C=CC1", "physical_data": {"Molecular Weight": "236.89", "Molecular Formula": "C5H3Br2N", "Boiling Point": "249 \u00b0C", "Melting Point": "118-119 \u00b0C"}}