{"cas_no": "626-02-8", "cn_name": "3-\u7898\u82ef\u915a", "en_name": ["3-Iodophenol", "Phenol, 3-iodo-", "Phenol, m-iodo-", "3-Iodophenol", "m-Hydroxyiodobenzene", "m-Iodophenol", "m-Iodophenol"], "SMILES": "IC1=CC(O)=CC=C1", "physical_data": {"Molecular Weight": "220.01", "Molecular Formula": "C6H5IO", "Boiling Point": "186 \u00b0C", "Melting Point": "118 \u00b0C"}}