{"cas_no": "626-41-5", "cn_name": "3,5-\u4e8c\u6eb4\u82ef\u915a", "en_name": ["3,5-Dibromophenol", "Phenol, 3,5-dibromo-", "3,5-Dibromophenol", "1-Hydroxy-3,5-Dibromobenzene"], "SMILES": "BrC1=CC(Br)=CC(O)=C1", "physical_data": {"Molecular Weight": "251.90", "Molecular Formula": "C6H4Br2O", "Boiling Point": "274 \u00b0C", "Melting Point": "81 \u00b0C"}}