{"cas_no": "626-61-9", "cn_name": "4-\u6c2f\u5421\u5576", "en_name": ["4-Chloropyridine", "Pyridine, 4-chloro-", "4-Chloropyridine", "\u03b3-Chloropyridine"], "SMILES": "ClC=1C=CN=CC1", "physical_data": {"Molecular Weight": "113.54", "Molecular Formula": "C5H4ClN", "Boiling Point": "147.5 \u00b0C", "Melting Point": "-43.5 \u00b0C"}}