{"cas_no": "626-56-2", "cn_name": "3-\u7532\u57fa\u54cc\u5576", "en_name": ["3-Methylpiperidine", "Piperidine, 3-methyl-", "3-Pipecoline", "Piperidine, 3-methyl-, (\u00b1)-", "3-Methylpiperidine", "\u03b2-Pipecoline", "\u03b2-Methylpiperidine", "(\u00b1)-3-Methylpiperidine", "NSC 66494"], "SMILES": "CC1CCCNC1", "physical_data": {"Molecular Weight": "99.17", "Molecular Formula": "C6H13N", "Boiling Point": "125 \u00b0C", "Melting Point": "174-175 \u00b0C", "Density": "0.857 g/cm\u00b3 @ Temp: 20 \u00b0C"}}