{"cas_no": "626-60-8", "cn_name": "3-\u6c2f\u5421\u5576", "en_name": ["3-Chloropyridine", "Pyridine, 3-chloro-", "3-Chloropyridine", "m-Chloropyridine", "NSC 60200", "3-Pyridinyl chloride", "3-Pyridyl chloride"], "SMILES": "ClC=1C=CC=NC1", "physical_data": {"Molecular Weight": "113.54", "Molecular Formula": "C5H4ClN", "Boiling Point": "148 \u00b0C", "Melting Point": "135 \u00b0C"}}