{"cas_no": "626-58-4", "cn_name": "4-\u7532\u57fa\u516d\u6c22\u5421\u5576", "en_name": ["4-Methylpiperidine", "Piperidine, 4-methyl-", "4-Pipecoline", "4-Methylpiperidine", "\u03b3-Pipecoline", "NSC 126910", "NSC 66495"], "SMILES": "CC1CCNCC1", "physical_data": {"Molecular Weight": "99.17", "Molecular Formula": "C6H13N", "Boiling Point": "130 \u00b0C", "Density": "0.9557 g/cm\u00b3 @ Temp: 15 \u00b0C"}}