{"cas_no": "626-17-5", "cn_name": "\u95f4\u82ef\u4e8c\u7532\u8148", "en_name": ["Isophthalonitrile", "1,3-Benzenedicarbonitrile", "Isophthalonitrile", "1,3-Dicyanobenzene", "m-Dicyanobenzene", "m-Benzenedinitrile", "m-Cyanobenzonitrile", "3-Cyanobenzonitrile", "1,3-Benzodinitrile", "IPN", "1,3-Bis(cyano)benzene", "Meta-dicyanobenzene", "m-Dicyanobenzene", "NSC 87880"], "SMILES": "C(#N)C1=CC(C#N)=CC=C1", "physical_data": {"Molecular Weight": "128.13", "Molecular Formula": "C8H4N2", "Melting Point": "162 \u00b0C"}}