{"cas_no": "626-19-7", "cn_name": "\u95f4\u82ef\u4e8c\u7532\u919b", "en_name": ["1,3-Benzenedicarboxaldehyde", "1,3-Benzenedicarboxaldehyde", "Isophthalaldehyde", "m-Phthalaldehyde", "3-Formylbenzaldehyde", "m-Benzenedicarboxaldehyde", "Benzene-1,3-dicarbaldehyde", "m-Benzenedialdehyde", "1,3-Benzenedialdehyde", "Isophthaldehyde", "m-Formylbenzaldehyde", "Isophthaldialdehyde", "m-Diformylbenzene", "m-Benzenedicarbaldehyde", "NSC 5092", "1,3-Diformylbenzene", "Isophthal", "LA 5D"], "SMILES": "C(=O)C1=CC(C=O)=CC=C1", "physical_data": {"Molecular Weight": "134.13", "Molecular Formula": "C8H6O2", "Boiling Point": "246 \u00b0C", "Melting Point": "89.5 \u00b0C"}}