{"cas_no": "626-82-4", "cn_name": "\u5df1\u9178\u4e01\u916f", "en_name": ["Butyl hexanoate", "Hexanoic acid, butyl ester", "Butyl caproate", "Butyl hexanoate", "n-Butyl hexanoate", "NSC 4022", "WLF 123179Q"], "SMILES": "C(C(OCCCC)=O)CCCC", "physical_data": {"Molecular Weight": "172.26", "Molecular Formula": "C10H20O2", "Boiling Point": "208 \u00b0C", "Melting Point": "-64.3 \u00b0C", "Density": "0.8821 g/cm\u00b3 @ Temp: 0 \u00b0C"}}