{"cas_no": "626-48-2", "cn_name": "6-\u7532\u57fa\u5c3f\u5627\u5576", "en_name": ["6-Methyluracil", "2,4(1H,3H)-Pyrimidinedione, 6-methyl-", "Uracil, 6-methyl-", "6-Methyl-2,4(1H,3H)-pyrimidinedione", "6-Methyluracil", "Pseudothymine", "2,4-Dihydroxy-6-methylpyrimidine", "AWD 23-15", "K 4", "NSC 9456", "6-Methylpyrimidine-2,4-diol", "2-Hydroxy-6-methyl-1,4-dihydropyrimidin-4-one", "2-Hydroxy-6-methyl-3,4-dihydropyrimidin-4-one"], "SMILES": "CC1=CC(=O)NC(=O)N1", "physical_data": {"Molecular Weight": "126.11", "Molecular Formula": "C5H6N2O2", "Melting Point": "290 \u00b0C"}}