{"cas_no": "626-35-7", "cn_name": "\u785d\u57fa\u4e59\u9178\u4e59\u916f", "en_name": ["Ethyl nitroacetate", "Acetic acid, 2-nitro-, ethyl ester", "Acetic acid, nitro-, ethyl ester", "Ethyl nitroacetate", "Nitroacetic acid ethyl ester", "NSC 42302", "Ethyl 2-nitroacetate", "2-Nitroacetic acid ethyl ester"], "SMILES": "C(C(OCC)=O)N(=O)=O", "physical_data": {"Molecular Weight": "133.10", "Molecular Formula": "C4H7NO4", "Boiling Point": "94 \u00b0C @ Press: 11 Torr", "Density": "1.2115 g/cm\u00b3 @ Temp: 13.1 \u00b0C"}}