{"cas_no": "626-88-0", "cn_name": "1-\u6eb4-4-\u7532\u57fa\u620a\u70f7", "en_name": ["1-Bromo-4-methylpentane", "Pentane, 1-bromo-4-methyl-", "1-Bromo-4-methylpentane", "4-Methylpentyl bromide", "Isohexyl bromide", "Isopentylmethyl bromide", "NSC 159166", "4-Methyl-1-bromopentane"], "SMILES": "C(C(C)C)CCBr", "physical_data": {"Molecular Weight": "165.07", "Molecular Formula": "C6H13Br", "Boiling Point": "145 \u00b0C", "Density": "1.1683 g/cm\u00b3 @ Temp: 20 \u00b0C"}}