{"cas_no": "626-27-7", "cn_name": "\u5e9a\u9178\u9150", "en_name": ["Heptanoic anhydride", "Heptanoic acid, 1,1\u2032-anhydride", "Heptanoic anhydride", "Heptanoic acid, anhydride", "Enanthic anhydride", "Heptanoyl anhydride", "n-Heptanoic acid anhydride", "NSC 67902"], "SMILES": "O(C(CCCCCC)=O)C(CCCCCC)=O", "physical_data": {"Molecular Weight": "242.35", "Molecular Formula": "C14H26O3", "Boiling Point": "269.5 \u00b0C", "Melting Point": "-12.4 \u00b0C", "Density": "0.90943 g/cm\u00b3 @ Temp: 30 \u00b0C"}}