{"cas_no": "626-55-1", "cn_name": "3-\u6eb4\u5421\u5576", "en_name": ["3-Bromopyridine", "Pyridine, 3-bromo-", "3-Bromopyridine", "3-Pyridyl bromide", "NSC 3974", "m-Bromopyridine", "5-Bromopyridine", "Pyridin-3-yl bromide"], "SMILES": "BrC=1C=CC=NC1", "physical_data": {"Molecular Weight": "158.00", "Molecular Formula": "C5H4BrN", "Boiling Point": "173 \u00b0C", "Melting Point": "-27.3 \u00b0C"}}