{"cas_no": "626-22-2", "cn_name": "1,3-\u82ef\u4e8c\u4e59\u8148", "en_name": ["1,3-Benzenediacetonitrile", "1,3-Benzenediacetonitrile", "m-Benzenediacetonitrile", "m-Phenylenediacetonitrile", "m-Bis(cyanomethyl)benzene", "m-Phenylenebisacetonitrile", "1,3-Phenylenediacetonitrile", "NSC 77095", "m-Xylylene dicyanide", "1,3-Bis-(cyanomethyl)-benzene", "2-[3-(Cyanomethyl)phenyl]acetonitrile"], "SMILES": "C(C#N)C1=CC(CC#N)=CC=C1", "physical_data": {"Molecular Weight": "156.18", "Molecular Formula": "C10H8N2", "Melting Point": "27 \u00b0C"}}