{"cas_no": "626-03-9", "cn_name": "2,4-\u4e8c\u7f9f\u57fa\u5421\u5576", "en_name": ["4-Hydroxy-2(1H)-pyridinone", "2(1H)-Pyridinone, 4-hydroxy-", "2,4-Pyridinediol", "2(1H)-Pyridone, 4-hydroxy-", "4-Hydroxy-2(1H)-pyridinone", "2,4-Dihydroxypyridine", "4-Hydroxy-2-pyridone", "3-Deazauracil", "4-Hydroxy-2-pyridinone", "4-Hydroxy-2-oxopyridine", "NSC 119859", "NSC 37839", "4-Hydroxy-1H-pyridin-2-one", "4-Hydroxypyridin-2(1H)-one"], "SMILES": "OC1=CC(=O)NC=C1", "physical_data": {"Molecular Weight": "111.10", "Molecular Formula": "C5H5NO2", "Melting Point": "278 \u00b0C"}}