{"cas_no": "626-36-8", "cn_name": "\u8132\u57fa\u7532\u9178\u4e59\u916f", "en_name": ["Ethyl N-(aminocarbonyl)carbamate", "Carbamic acid, N-(aminocarbonyl)-, ethyl ester", "Allophanic acid, ethyl ester", "Carbamic acid, (aminocarbonyl)-, ethyl ester", "Ethyl N-(aminocarbonyl)carbamate", "Ethyl allophanate", "NSC 119864", "NSC 272", "Ethyl carbamoylcarbamate"], "SMILES": "N(C(OCC)=O)C(N)=O", "physical_data": {"Molecular Weight": "132.12", "Molecular Formula": "C4H8N2O3", "Melting Point": "196.5 \u00b0C"}}