{"cas_no": "626-29-9", "cn_name": "\u5341\u56db[\u9178]\u9150", "en_name": ["Myristic anhydride", "Tetradecanoic acid, 1,1\u2032-anhydride", "Myristic anhydride", "Tetradecanoic acid, anhydride", "Tetradecanoic anhydride", "Myristic acid anhydride", "Myristoyl anhydride"], "SMILES": "O(C(CCCCCCCCCCCCC)=O)C(CCCCCCCCCCCCC)=O", "physical_data": {"Molecular Weight": "438.73", "Molecular Formula": "C28H54O3", "Melting Point": "53.4 \u00b0C", "Density": "0.8502 g/cm\u00b3 @ Temp: 70 \u00b0C"}}