{"cas_no": "626-01-7", "cn_name": "3-\u7898\u82ef\u80fa", "en_name": ["3-Iodoaniline", "Benzenamine, 3-iodo-", "Aniline, m-iodo-", "3-Iodobenzenamine", "m-Aminoiodobenzene", "3-Iodoaniline", "m-Iodoaniline", "NSC 34545", "(3-Iodophenyl)amine", "3-Aminophenyl iodide"], "SMILES": "IC1=CC(N)=CC=C1", "physical_data": {"Molecular Weight": "219.02", "Molecular Formula": "C6H6IN", "Boiling Point": "145 \u00b0C", "Melting Point": "33 \u00b0C"}}