{"cas_no": "626-89-1", "cn_name": "4-\u7532\u57fa-1-\u620a\u9187", "en_name": ["4-Methyl-1-pentanol", "1-Pentanol, 4-methyl-", "Isohexyl alcohol", "4-Methyl-1-pentanol", "iso-Hexanol", "2-Methyl-5-pentanol", "Isohexanol", "NSC 91492", "Anglamol 6085U", "4-Methylamyl alcohol"], "SMILES": "C(C(C)C)CCO", "physical_data": {"Molecular Weight": "102.17", "Molecular Formula": "C6H14O", "Boiling Point": "151.9 \u00b0C", "Density": "0.8156 g/cm\u00b3 @ Temp: 20 \u00b0C"}}