{"cas_no": "626-06-2", "cn_name": "2,6-\u4e8c\u7f9f\u57fa\u5421\u5576", "en_name": ["2,6-Dihydroxypyridine", "2(1H)-Pyridinone, 6-hydroxy-", "2(1H)-Pyridone, 6-hydroxy-", "6-Hydroxy-2(1H)-pyridinone", "2,6-Dihydroxypyridine", "6-Hydroxy-2-pyridone", "2-Hydroxy-6-pyridinone", "1-Deazauracil"], "SMILES": "O=C1NC(O)=CC=C1", "physical_data": {"Molecular Weight": "111.10", "Molecular Formula": "C5H5NO2", "Melting Point": "202-203 \u00b0C"}}