{"cas_no": "626-87-9", "cn_name": "1,4-\u4e8c\u6eb4\u620a\u70f7", "en_name": ["1,4-Dibromopentane", "Pentane, 1,4-dibromo-", "1,4-Dibromopentane", "(RS)-1,4-Dibromopentane", "NSC 8753", "2,5-Dibromopentane"], "SMILES": "C(C(Br)C)CCBr", "physical_data": {"Molecular Weight": "229.94", "Molecular Formula": "C5H10Br2", "Boiling Point": "82 \u00b0C @ Press: 12 Torr", "Melting Point": "-34.4 \u00b0C", "Density": "1.687 g/cm\u00b3 @ Temp: 15 \u00b0C"}}