{"cas_no": "626-00-6", "cn_name": "1,3-\u4e8c\u7898\u82ef", "en_name": ["1,3-Diiodobenzene", "Benzene, 1,3-diiodo-", "Benzene, m-diiodo-", "1,3-Diiodobenzene", "m-Diiodobenzene"], "SMILES": "IC1=CC(I)=CC=C1", "physical_data": {"Molecular Weight": "329.90", "Molecular Formula": "C6H4I2", "Boiling Point": "285 \u00b0C", "Melting Point": "40.4 \u00b0C"}}