{"cas_no": "626-04-0", "cn_name": "\u82ef\u786b\u9187", "en_name": ["1,3-Benzenedithiol", "1,3-Benzenedithiol", "m-Benzenedithiol", "1,3-Dimercaptobenzene", "Dithioresorcinol", "Thioresorcinol"], "SMILES": "SC1=CC(S)=CC=C1", "physical_data": {"Molecular Weight": "142.24", "Molecular Formula": "C6H6S2", "Boiling Point": "245 \u00b0C", "Melting Point": "27 \u00b0C"}}