{"cas_no": "626-67-5", "cn_name": "N-\u7532\u57fa\u54cc\u5576", "en_name": ["N-Methylpiperidine", "Piperidine, 1-methyl-", "1-Methylpiperidine", "N-Methylpiperidine"], "SMILES": "CN1CCCCC1", "physical_data": {"Molecular Weight": "99.17", "Molecular Formula": "C6H13N", "Boiling Point": "107 \u00b0C", "Density": "0.8142 g/cm\u00b3 @ Temp: 23 \u00b0C"}}