{"cas_no": "62613-82-5", "cn_name": "\u5965\u62c9\u897f\u5766", "en_name": ["Oxiracetam", "1-Pyrrolidineacetamide, 4-hydroxy-2-oxo-", "4-Hydroxy-2-oxo-1-pyrrolidineacetamide", "Oxiracetam", "ISF 2522", "Hydroxypiracetam", "CT 848", "CGP 21690", "Neuractiv", "Neuromet", "CGP 21690E", "2-(4-Hydroxy-2-oxopyrrolidin-1-yl)acetamide", "4-Hydroxypyrrolidone-2-acetamide", "Oxyracetam"], "SMILES": "C(C(N)=O)N1CC(O)CC1=O", "physical_data": {"Molecular Weight": "158.16", "Molecular Formula": "C6H10N2O3", "Melting Point": "165-168 \u00b0C"}}