{"cas_no": "62610-77-9", "cn_name": "\u866b\u87a8\u754f", "en_name": ["trans-Methacrifos", "2-Propenoic acid, 3-[(dimethoxyphosphinothioyl)oxy]-2-methyl-, methyl ester, (2E)-", "2-Propenoic acid, 3-[(dimethoxyphosphinothioyl)oxy]-2-methyl-, methyl ester, (E)-", "CGA 20168", "trans-Methacrifos"], "SMILES": "P(OC=C(C(OC)=O)C)(OC)(OC)=S", "physical_data": {"Molecular Weight": "240.21", "Molecular Formula": "C7H13O5PS", "Boiling Point": "90 \u00b0C", "Melting Point": "&lt;25 \u00b0C"}}