{"cas_no": "6261-22-9", "cn_name": "2-\u620a\u7094-1-\u9187", "en_name": ["2-Pentyn-1-ol", "2-Pentyn-1-ol", "2-Pentynol", "2-Pentynyl alcohol"], "SMILES": "C(#CCO)CC", "physical_data": {"Molecular Weight": "84.12", "Molecular Formula": "C5H8O", "Boiling Point": "154.0-154.2 \u00b0C", "Density": "0.9091 g/cm\u00b3 @ Temp: 20 \u00b0C"}}