{"cas_no": "62613-81-4", "cn_name": "\u5965\u62c9\u897f\u5766\u6742\u8d28", "en_name": ["1-Pyrrolidineacetic acid, 4-hydroxy-2-oxo-, ethyl ester", "1-Pyrrolidineacetic acid, 4-hydroxy-2-oxo-, ethyl ester", "Ethyl 4-hydroxy-2-oxo-1-pyrrolidineacetate"], "SMILES": "C(C(OCC)=O)N1CC(O)CC1=O", "physical_data": {"Molecular Weight": "187.19", "Molecular Formula": "C8H13NO4", "Boiling Point": "180 \u00b0C @ Press: 0.8 Torr"}}