{"cas_no": "62625-24-5", "cn_name": "4-\u82ef\u57fa\u5076\u6c2e\u82ef\u4e59\u9170\u6eb4", "en_name": ["2-Bromo-1-[4-(2-phenyldiazenyl)phenyl]ethanone", "Ethanone, 2-bromo-1-[4-(2-phenyldiazenyl)phenyl]-", "Ethanone, 2-bromo-1-[4-(phenylazo)phenyl]-", "Acetophenone, 2-bromo-4\u2032-phenylazo-", "2-Bromo-1-[4-(2-phenyldiazenyl)phenyl]ethanone", "2-Bromo-1-(4-(phenyldiazenyl)phenyl)ethanone"], "SMILES": "C(CBr)(=O)C1=CC=C(N=NC2=CC=CC=C2)C=C1", "physical_data": {"Molecular Weight": "303.15", "Molecular Formula": "C14H11BrN2O", "Melting Point": "92 \u00b0C"}}