{"cas_no": "6262-42-6", "cn_name": "\u56db\u6c2f\u73af\u4e19\u70ef", "en_name": ["1,2,3,3-Tetrachlorocyclopropene", "Cyclopropene, 1,2,3,3-tetrachloro-", "Cyclopropene, tetrachloro-", "1,2,3,3-Tetrachlorocyclopropene", "Tetrachlorocyclopropene", "Perchlorocyclopropene", "Tetrachlorocyclopropenone", "Tetrachlorocycloproprene"], "SMILES": "ClC1(Cl)C(Cl)=C1Cl", "physical_data": {"Molecular Weight": "177.84", "Molecular Formula": "C3Cl4", "Boiling Point": "129.53 \u00b0C @ Press: 745 Torr"}}