{"cas_no": "6262-51-7", "cn_name": "\u4e94\u6c2f\u73af\u4e19\u70f7", "en_name": ["1,1,2,2,3-Pentachlorocyclopropane", "Cyclopropane, 1,1,2,2,3-pentachloro-", "Cyclopropane, pentachloro-", "1,1,2,2,3-Pentachlorocyclopropane", "Pentachlorocyclopropane", "NSC 139996"], "SMILES": "ClC1(Cl)C(Cl)(Cl)C1Cl", "physical_data": {"Molecular Weight": "214.30", "Molecular Formula": "C3HCl5", "Boiling Point": "55.5-56.0 \u00b0C @ Press: 7 Torr"}}