{"cas_no": "6263-83-8", "cn_name": "1,5-\u4e8c\u82ef\u57fa-1,5-\u620a\u4e8c\u916e", "en_name": ["1,5-Diphenyl-1,5-pentanedione", "1,5-Pentanedione, 1,5-diphenyl-", "1,5-Diphenyl-1,5-pentanedione", "1,3-Dibenzoylpropane", "NSC 46678"], "SMILES": "C(CCCC(=O)C1=CC=CC=C1)(=O)C2=CC=CC=C2", "physical_data": {"Molecular Weight": "252.31", "Molecular Formula": "C17H16O2", "Boiling Point": "160-180 \u00b0C @ Press: 0.4 Torr", "Melting Point": "65 \u00b0C"}}