{"cas_no": "62637-93-8", "cn_name": "\u4e8c\u6c34\u6c27\u5316\u4e09\u7532\u80fa", "en_name": ["Methanamine, N,N-dimethyl-, N-oxide, dihydrate", "Methanamine, N,N-dimethyl-, N-oxide, dihydrate", "Trimethylamine, N-oxide, dihydrate", "Trimethylamine oxide dihydrate"], "SMILES": "N(C)(C)(C)=O.O", "physical_data": {"Molecular Weight": "", "Molecular Formula": "C3H9NO.2H2O", "Melting Point": "96 \u00b0C"}}