{"cas_no": "6263-65-6", "cn_name": "(R)-1-\u7532\u57fa\u82c4\u786b\u915a", "en_name": ["1-Phenylethanethiol", "Benzenemethanethiol, \u03b1-methyl-", "\u03b1-Toluenethiol, \u03b1-methyl-", "Ethanethiol, 1-phenyl-", "\u03b1-Methylbenzenemethanethiol", "1-Phenylethanethiol", "1-Phenylethylthiol", "\u03b1-Methylbenzyl mercaptan", "\u03b1-Methyl-\u03b1-toluenethiol", "NSC 66561", "\u03b1-Methylbenzyl thiol"], "SMILES": "C(C)(S)C1=CC=CC=C1", "physical_data": {"Molecular Weight": "138.23", "Molecular Formula": "C8H10S", "Boiling Point": "83-84 \u00b0C @ Press: 14 Torr", "Melting Point": "58-59 \u00b0C", "Density": "1.039 g/cm\u00b3 @ Temp: 18 \u00b0C"}}