{"cas_no": "6264-66-0", "cn_name": "3,4,4'-\u4e09\u6c28\u57fa\u4e8c\u82ef\u919a", "en_name": ["4-(4-Aminophenoxy)-1,2-benzenediamine", "1,2-Benzenediamine, 4-(4-aminophenoxy)-", "o-Phenylenediamine, 4-(p-aminophenoxy)-", "4-(4-Aminophenoxy)-1,2-benzenediamine", "3,4,4\u2032-Triaminodiphenyl ether", "3,4,4\u2032-Triaminodiphenyl oxide", "4-(4-Aminophenoxy)-o-phenylenediamine"], "SMILES": "O(C1=CC(N)=C(N)C=C1)C2=CC=C(N)C=C2", "physical_data": {"Molecular Weight": "215.25", "Molecular Formula": "C12H13N3O", "Melting Point": "150-152 \u00b0C"}}