{"cas_no": "62643-56-5", "cn_name": "7-\u6c28\u57fa\u5e9a\u9178\u76d0\u9178\u76d0", "en_name": ["Heptanoic acid, 7-amino-, hydrochloride (1:1)", "Heptanoic acid, 7-amino-, hydrochloride (1:1)", "Heptanoic acid, 7-amino-, hydrochloride", "7-Aminoheptanoic acid hydrochloride"], "SMILES": "C(CCCCN)CC(O)=O.Cl", "physical_data": {"Molecular Weight": "", "Molecular Formula": "C7H15NO2.ClH", "Melting Point": "97-99 \u00b0C"}}