{"cas_no": "6264-67-1", "cn_name": "2,4-\u4e8c\u6c28\u57fa\u6c1f\u82ef", "en_name": ["4-Fluoro-1,3-phenylenediamine", "1,3-Benzenediamine, 4-fluoro-", "m-Phenylenediamine, 4-fluoro-", "4-Fluoro-1,3-benzenediamine", "4-Fluoro-m-phenylenediamine", "2,4-Diamino-1-fluorobenzene", "4-Fluoro-1,3-phenylenediamine", "3-Amino-4-fluoroaniline", "2,4-Diaminofluorobenzene"], "SMILES": "NC1=C(F)C=CC(N)=C1", "physical_data": {"Molecular Weight": "126.13", "Molecular Formula": "C6H7FN2", "Boiling Point": "152-153 \u00b0C @ Press: 22-23 Torr"}}