{"cas_no": "6264-98-8", "cn_name": "\u90bb\u7532\u57fa\u95f4\u7f9f\u57fa\u4e8c\u82ef\u80fa", "en_name": ["3-[(2-Methylphenyl)amino]phenol", "Phenol, 3-[(2-methylphenyl)amino]-", "Phenol, m-(o-toluidino)-", "3-[(2-Methylphenyl)amino]phenol", "m-(o-Toluidino)phenol", "3-Hydroxy-2\u2032-methyldiphenylamine", "3-(2-Methylanilino)phenol", "2-Methyl-3\u2032-hydroxydiphenylamine", "3-o-Tolylamino-phenol"], "SMILES": "N(C1=CC(O)=CC=C1)C2=C(C)C=CC=C2", "physical_data": {"Molecular Weight": "199.25", "Molecular Formula": "C13H13NO", "Boiling Point": "187 \u00b0C @ Press: 2 Torr"}}