{"cas_no": "6264-40-0", "cn_name": "5-(\u7532\u786b\u57fa)-1,3,4-\u567b\u4e8c\u5511-2-\u786b\u9187", "en_name": ["5-Methylthio-1,3,4-thiadiazole-2-thiol", "1,3,4-Thiadiazole-2(3H)-thione, 5-(methylthio)-", "\u03942-1,3,4-Thiadiazoline-5-thione, 2-(methylthio)-", "1,3,4-Thiadiazole-2-thiol, 5-(methylthio)-", "5-(Methylthio)-1,3,4-thiadiazole-2(3H)-thione", "2-Methylmercapto-1,3,4-thiadiazoline-5-thione", "5-Methylthio-1,3,4-thiadiazoline-2-thione", "2-Methylthio-5-mercapto-1,3,4-thiadiazole", "2-Mercapto-5-methylthio-1,3,4-thiadiazole", "5-Methylthio-1,3,4-thiadiazole-2-thiol", "5-(Methylthio)-1,3,4-thiadiazol-2-thiol", "5-Mercapto-2-methylthio-1,3,4-thiadiazole", "5-(Methylsulfanyl)-[1,3,4]thiadiazole-2-thiol"], "SMILES": "S(C)C=1SC(=S)NN1", "physical_data": {"Molecular Weight": "164.27", "Molecular Formula": "C3H4N2S3", "Melting Point": "134-136 \u00b0C"}}