{"cas_no": "6265-92-5", "cn_name": "2-(4-\u7532\u6c27\u82ef\u57fa)\u82ef\u5e76\u567b\u5511", "en_name": ["2-(4-Methoxyphenyl)benzothiazole", "Benzothiazole, 2-(4-methoxyphenyl)-", "Benzothiazole, 2-(p-methoxyphenyl)-", "2-(4-Methoxyphenyl)benzothiazole", "2-(p-Methoxyphenyl)benzothiazole", "NSC 33161", "2-(4-Methoxyphenyl)benzo[d]thiazole", "2-(4-Methoxyphenyl)-1,3-benzothiazole"], "SMILES": "O(C)C1=CC=C(C2=NC=3C(S2)=CC=CC3)C=C1", "physical_data": {"Molecular Weight": "241.31", "Molecular Formula": "C14H11NOS", "Melting Point": "134 \u00b0C"}}