{"cas_no": "6265-73-2", "cn_name": "N-(2-\u7f9f\u4e59\u57fa)-3-\u5421\u5576\u7532\u9170\u80fa", "en_name": ["N-(2-Hydroxyethyl)nicotinamide", "3-Pyridinecarboxamide, N-(2-hydroxyethyl)-", "Nicotinamide, N-(2-hydroxyethyl)-", "N-(2-Hydroxyethyl)-3-pyridinecarboxamide", "N-(2-Hydroxyethyl)nicotinamide", "N-Nicotinoylethanolamine", "SG 86", "3-(2-Hydroxyethyl)carbamoylpyridine", "N-Nicotinoyl-2-aminoethanol", "NSC 33142"], "SMILES": "C(NCCO)(=O)C=1C=CC=NC1", "physical_data": {"Molecular Weight": "166.18", "Molecular Formula": "C8H10N2O2", "Boiling Point": "185-195 \u00b0C @ Press: 0.4-0.6 Torr", "Melting Point": "92 \u00b0C"}}