{"cas_no": "6265-74-3", "cn_name": "N-(2 - \u7f9f\u4e59\u57fa)\u5f02\u70df\u9170\u80fa", "en_name": ["N-(2-Hydroxyethyl)isonicotinamide", "4-Pyridinecarboxamide, N-(2-hydroxyethyl)-", "Isonicotinamide, N-(2-hydroxyethyl)-", "N-(2-Hydroxyethyl)-4-pyridinecarboxamide", "N-Hydroxyethylisonicotinamide", "4-(2-Hydroxyethyl)carbamoylpyridine", "NSC 33143", "N-(2-Hydroxyethyl)isonicotinamide"], "SMILES": "C(NCCO)(=O)C=1C=CN=CC1", "physical_data": {"Molecular Weight": "166.18", "Molecular Formula": "C8H10N2O2", "Melting Point": "133-134 \u00b0C"}}