{"cas_no": "6265-07-2", "cn_name": "2-\u6c28\u57fa-4-\u7532\u57fa-6-\u785d\u57fa\u82ef\u915a", "en_name": ["2-Amino-4-methyl-6-nitrophenol", "Phenol, 2-amino-4-methyl-6-nitro-", "p-Cresol, 2-amino-6-nitro-", "2-Amino-4-methyl-6-nitrophenol", "2-Nitro-4-methyl-6-amino-phenol"], "SMILES": "N(=O)(=O)C1=C(O)C(N)=CC(C)=C1", "physical_data": {"Molecular Weight": "168.15", "Molecular Formula": "C7H8N2O3", "Melting Point": "119 \u00b0C"}}