{"cas_no": "6266-99-5", "cn_name": "2-\u7532\u57fa-6-(2-\u82ef\u4e59\u70ef\u57fa)\u5421\u5576", "en_name": ["2-Methyl-6-(2-phenylethenyl)pyridine", "Pyridine, 2-methyl-6-(2-phenylethenyl)-", "2-Picoline, 6-styryl-", "2-Stilbazole, 6-methyl-", "2-Methyl-6-(2-phenylethenyl)pyridine", "NSC 36665", "CHEMBL 88612"], "SMILES": "C(=CC1=CC=CC=C1)C=2N=C(C)C=CC2", "physical_data": {"Molecular Weight": "195.26", "Molecular Formula": "C14H13N", "Boiling Point": "127-129 \u00b0C @ Press: 1 Torr", "Melting Point": "43-44.5 \u00b0C"}}