{"cas_no": "62666-20-0", "cn_name": "\u666e\u7f57\u52a0\u6bd4", "en_name": ["Progabide", "Butanamide, 4-[[(4-chlorophenyl)(5-fluoro-2-hydroxyphenyl)methylene]amino]-", "4-[[(4-Chlorophenyl)(5-fluoro-2-hydroxyphenyl)methylene]amino]butanamide", "SL 76-002", "Progabide", "Gabrene", "Gabren", "SL 76002", "Halogabide"], "SMILES": "C(=NCCCC(N)=O)(C1=C(O)C=CC(F)=C1)C2=CC=C(Cl)C=C2", "physical_data": {"Molecular Weight": "334.77", "Molecular Formula": "C17H16ClFN2O2", "Melting Point": "133-135 \u00b0C"}}