{"cas_no": "6267-02-3", "cn_name": "9,9-\u4e8c\u7532\u57fa\u5416\u5576", "en_name": ["9,9-Dimethyl-9,10-dihydroacridine", "Acridine, 9,10-dihydro-9,9-dimethyl-", "Acridan, 9,9-dimethyl-", "9,10-Dihydro-9,9-dimethylacridine", "9,9-Dimethyl-9,10-dihydroacridine", "9,9-Dimethylacridan", "NSC 36671", "9,9-Dimethyl-10H-acridine", "Antioxidant BLE", "BLE", "9,9-Dimethylacridine"], "SMILES": "CC1(C)C=2C(NC=3C1=CC=CC3)=CC=CC2", "physical_data": {"Molecular Weight": "209.29", "Molecular Formula": "C15H15N", "Melting Point": "120-126 \u00b0C"}}