{"cas_no": "6267-34-1", "cn_name": "2-\u6eb4-5-\u7532\u6c27\u57fa-1,3-\u4e8c\u7532\u82ef", "en_name": ["2-Bromo-5-methoxy-1,3-dimethylbenzene", "Benzene, 2-bromo-5-methoxy-1,3-dimethyl-", "Anisole, 4-bromo-3,5-dimethyl-", "2-Bromo-5-methoxy-1,3-dimethylbenzene", "4-Bromo-3,5-dimethylanisole", "3,5-Dimethyl-4-bromoanisole", "4-Methoxy-2,6-dimethylbromobenzene", "NSC 37991", "4-Bromo-1-methoxy-3,5-dimethylbenzene"], "SMILES": "O(C)C1=CC(C)=C(Br)C(C)=C1", "physical_data": {"Molecular Weight": "215.09", "Molecular Formula": "C9H11BrO", "Boiling Point": "137-139 \u00b0C @ Press: 20 Torr", "Melting Point": "24-25 \u00b0C"}}