{"cas_no": "6268-09-3", "cn_name": "1-\u7f9f\u57fa-2-\u7532\u57fa\u84bd\u918c", "en_name": ["1-Hydroxy-2-methylanthraquinone", "9,10-Anthracenedione, 1-hydroxy-2-methyl-", "Anthraquinone, 1-hydroxy-2-methyl-", "1-Hydroxy-2-methyl-9,10-anthracenedione", "1-Hydroxy-2-methylanthraquinone", "1-Hydroxy-2-methyl-9,10-anthraquinone", "NSC 37131", "1-Hydroxy-2-methyl-9,10-dihydroanthracene-9,10-dione"], "SMILES": "O=C1C=2C(C(=O)C=3C1=CC=CC3)=CC=C(C)C2O", "physical_data": {"Molecular Weight": "238.24", "Molecular Formula": "C15H10O3", "Melting Point": "184-185 \u00b0C"}}