{"cas_no": "6268-05-9", "cn_name": "\u8010\u6652\u5170BR", "en_name": ["4-Benzoylamino-2,5-dimethoxyaniline", "Benzamide, N-(4-amino-2,5-dimethoxyphenyl)-", "Benzanilide, 4\u2032-amino-2\u2032,5\u2032-dimethoxy-", "N-(4-Amino-2,5-dimethoxyphenyl)benzamide", "Azoene Fast Blue RR Base", "Azoene Fast Blue RR Salt", "Blue Salt NRR", "Daito Blue Base RR", "Daito Blue Salt RR", "Fast Blue MR Base", "Fast Blue RR Base", "Fast Blue Salt RR", "Fast Navy DR", "Hiltonil Fast Blue RR Base", "Mitsui Blue RR Salt", "Neutrosel Blue R", "Sanyo Fast Blue RR Base", "Sanyo Fast Blue Salt RR", "4\u2032-Amino-2\u2032,5\u2032-dimethoxybenzanilide", "5-Amino-2-(benzoylamino)-1,4-dimethoxybenzene", "4-Amino-1-(benzoylamino)-3,6-dimethoxybenzene", "2,5-Dimethoxy-4-(benzoylamino)aniline", "4-Benzoylamino-2,5-dimethoxyaniline", "NSC 37139", "NSC 50201"], "SMILES": "N(C(=O)C1=CC=CC=C1)C2=C(OC)C=C(N)C(OC)=C2", "physical_data": {"Molecular Weight": "272.30", "Molecular Formula": "C15H16N2O3", "Melting Point": "168 \u00b0C"}}