{"cas_no": "6268-43-5", "cn_name": "1,3-\u4e8c\u5421\u5576-2-\u57fa\u8132", "en_name": ["N,N\u2032-Di-2-pyridinylurea", "Urea, N,N\u2032-di-2-pyridinyl-", "Urea, 1,3-di-2-pyridyl-", "N,N\u2032-Di-2-pyridinylurea", "1,3-Di(2-pyridyl)urea", "N,N\u2032-Bis(2-pyridyl)urea", "N,N\u2032-Di-2-pyridylurea", "NSC 36257", "1,3-Di(pyridin-2-yl)urea", "1,3-Di-pyridin-2-yl-urea", "1,3-Dipyridin-2-ylurea"], "SMILES": "N(C(NC1=CC=CC=N1)=O)C2=CC=CC=N2", "physical_data": {"Molecular Weight": "214.22", "Molecular Formula": "C11H10N4O", "Boiling Point": "170 \u00b0C @ Press: 3.0 Torr", "Melting Point": "175 \u00b0C"}}