{"cas_no": "6269-89-2", "cn_name": "1-(4-\u785d\u57fa\u82ef\u57fa)\u54cc\u55ea", "en_name": ["1-(4-Nitrophenyl)piperazine", "Piperazine, 1-(4-nitrophenyl)-", "Piperazine, 1-(p-nitrophenyl)-", "1-(4-Nitrophenyl)piperazine", "1-(p-Nitrophenyl)piperazine", "N-(4-Nitrophenyl)piperazine", "NSC 148473", "NSC 33874", "N-(p-Nitrophenyl)piperazine", "1-(4-Nitrophenyl)piperiazine", "4-(Piperazin-1-yl)-nitrobenzene"], "SMILES": "N(=O)(=O)C1=CC=C(C=C1)N2CCNCC2", "physical_data": {"Molecular Weight": "207.23", "Molecular Formula": "C10H13N3O2", "Melting Point": "135 \u00b0C"}}