{"cas_no": "62697-73-8", "cn_name": "DL-\u86cb\u6c28\u9178\u4e9a\u781c", "en_name": ["Methionine sulfoxide", "Methionine, S-oxide", "Butanoic acid, 2-amino-4-(methylsulfinyl)-, (\u00b1)-", "Butanoic acid, 2-amino-4-(methylsulfinyl)-", "Butyric acid, \u03b1-amino-\u03b3-(methylsulfinyl)-", "Methionine sulfoxide", "DL-Methionine sulfoxide", "dl-Methionine sulfoxide", "NSC 3084", "2-Amino-4-methanesulfinylbutanoic acid", "2-Azaniumyl-4-methylsulfinylbutanoate"], "SMILES": "C(CCS(C)=O)(C(O)=O)N", "physical_data": {"Molecular Weight": "165.21", "Molecular Formula": "C5H11NO3S", "Melting Point": "220-230 \u00b0C"}}