{"cas_no": "627-02-1", "cn_name": "\u5f02\u4e01\u919a", "en_name": ["1-Ethoxy-2-methylpropane", "Propane, 1-ethoxy-2-methyl-", "Ether, ethyl isobutyl", "1-Ethoxy-2-methylpropane", "Ethyl isobutyl ether", "Isobutyl ethyl ether", "Ethyl iso-butyl ether"], "SMILES": "C(C(C)C)OCC", "physical_data": {"Molecular Weight": "102.17", "Molecular Formula": "C6H14O", "Boiling Point": "81 \u00b0C"}}