{"cas_no": "627-04-3", "cn_name": "(\u4e59\u57fa\u786b\u4ee3)\u4e59\u9178", "en_name": ["2-(Ethylthio)acetic acid", "Acetic acid, 2-(ethylthio)-", "Acetic acid, (ethylthio)-", "2-(Ethylthio)acetic acid", "Carboxymethyl ethyl sulfide", "S-(Carboxymethyl)ethyl mercaptan", "(Ethylmercapto)acetic acid", "Ethylthioacetic acid", "NSC 75118", "Ethylsulfanylacetic acid", "2-(Ethylthio)ethanoic acid", "2-(Ethylsulfanyl)acetic acid", "2-Ethylsulfanylacetic acid"], "SMILES": "C(C(O)=O)SCC", "physical_data": {"Molecular Weight": "120.17", "Molecular Formula": "C4H8O2S", "Boiling Point": "118 \u00b0C @ Press: 11 Torr", "Melting Point": "-8.5 \u00b0C"}}