{"cas_no": "627-11-2", "cn_name": "\u6c2f\u7532\u9178\u6c2f\u4e59\u916f", "en_name": ["Carbonochloridic acid, 2-chloroethyl ester", "Carbonochloridic acid, 2-chloroethyl ester", "Formic acid, chloro-, 2-chloroethyl ester", "2-Chloroethyl chlorocarbonate", "(2-Chloroethoxy)carbonyl chloride", "\u03b2-Chloroethyl chloroformate", "2-Chloroethyl chloroformate", "2-Chloroethyl carbonochloridate", "Chloroformic acid 2-chloroethyl ester", "Chloroethyl chloroformate"], "SMILES": "O(C(Cl)=O)CCCl", "physical_data": {"Molecular Weight": "142.97", "Molecular Formula": "C3H4Cl2O2", "Boiling Point": "155 \u00b0C", "Melting Point": "&lt;25 \u00b0C", "Density": "1.3847 g/cm\u00b3 @ Temp: 20 \u00b0C"}}