{"cas_no": "627-40-7", "cn_name": "\u70ef\u4e19\u57fa\u7532\u57fa\u919a", "en_name": ["Allyl methyl ether", "1-Propene, 3-methoxy-", "Ether, allyl methyl", "3-Methoxy-1-propene", "Allyl methyl ether", "1-Methoxy-2-propene", "Methyl allyl ether", "3-Methoxypropene", "4-Oxapent-1-ene", "Methyl 2-propenyl ether"], "SMILES": "C(C=C)OC", "physical_data": {"Molecular Weight": "72.11", "Molecular Formula": "C4H8O", "Boiling Point": "44 \u00b0C", "Density": "0.7569 g/cm\u00b3 @ Temp: 20 \u00b0C"}}