{"cas_no": "627-77-0", "cn_name": "DL-\u74dc\u6c28\u9178", "en_name": ["DL-Citrulline", "Ornithine, N5-(aminocarbonyl)-", "Ornithine, N5-carbamoyl-, DL-", "DL-Ornithine, N5-(aminocarbonyl)-", "Citrulline, dl-", "N5-(Aminocarbonyl)ornithine", "DL-Citrulline", "(\u00b1)-Citrulline", "Norvaline, 5-[(aminocarbonyl)amino]-", "NSC 46711", "2-Amino-5-(carbamoylamino)pentanoic acid", "2-Amino-5-ureido-pentanoic acid", "2-Amino-5-ureidovaleric acid", "2-Azaniumyl-5-(carbamoylamino)pentanoate"], "SMILES": "C(CCNC(N)=O)C(C(O)=O)N", "physical_data": {"Molecular Weight": "175.19", "Molecular Formula": "C6H13N3O3", "Melting Point": "210 \u00b0C"}}