{"cas_no": "627-58-7", "cn_name": "2,5-\u4e8c\u7532\u57fa-1,5-\u5df1\u4e8c\u80fa", "en_name": ["2,5-Dimethyl-1,5-hexadiene", "1,5-Hexadiene, 2,5-dimethyl-", "2,5-Dimethyl-1,5-hexadiene", "Dimethallyl", "Bimethallyl", "NSC 10813"], "SMILES": "C(CC(C)=C)C(C)=C", "physical_data": {"Molecular Weight": "110.20", "Molecular Formula": "C8H14", "Boiling Point": "114.3 \u00b0C", "Melting Point": "-75.6 \u00b0C", "Density": "0.7423 g/cm\u00b3 @ Temp: 20 \u00b0C"}}