{"cas_no": "627-30-5", "cn_name": "3-\u6c2f-1-\u4e19\u9187", "en_name": ["3-Chloro-1-propanol", "1-Propanol, 3-chloro-", "3-Chloro-1-propanol", "Trimethylene chlorohydrin", "1-Chloro-3-hydroxypropane", "3-Chloropropanol", "1-Chloro-3-propanol", "3-Chloro-1-hydroxypropane", "3-Chloropropyl alcohol", "NSC 60190"], "SMILES": "C(CCl)CO", "physical_data": {"Molecular Weight": "94.54", "Molecular Formula": "C3H7ClO", "Boiling Point": "165 \u00b0C", "Density": "1.1122 g/cm\u00b3"}}