{"cas_no": "627-09-8", "cn_name": "\u4e59\u9178\u4e19\u7094\u916f", "en_name": ["2-Propyn-1-ol, 1-acetate", "2-Propyn-1-ol, 1-acetate", "2-Propyn-1-ol, acetate", "Propargyl acetate", "Acetic acid propargyl ester", "3-Acetoxy-1-propyne", "2-Propynyl acetate", "1-Acetoxy-2-propyne", "2-Propyn-1-yl acetate"], "SMILES": "O(C(C)=O)CC#C", "physical_data": {"Molecular Weight": "98.10", "Molecular Formula": "C5H6O2", "Boiling Point": "111-112 \u00b0C", "Density": "0.999 g/cm\u00b3 @ Temp: 24 \u00b0C"}}