{"cas_no": "627-18-9", "cn_name": "3-\u6eb4-1-\u4e19\u9187", "en_name": ["3-Bromo-1-propanol", "1-Propanol, 3-bromo-", "3-Bromo-1-propanol", "Trimethylene bromohydrin", "3-Hydroxypropyl bromide", "1-Bromo-3-propanol", "1-Bromo-3-hydroxypropane", "3-Bromopropyl alcohol", "3-Bromopropane-1-ol"], "SMILES": "C(CBr)CO", "physical_data": {"Molecular Weight": "138.99", "Molecular Formula": "C3H7BrO", "Boiling Point": "105 \u00b0C"}}