{"cas_no": "627-45-2", "cn_name": "N-\u7532\u9170\u4e59\u80fa", "en_name": ["Ethylformamide", "Formamide, N-ethyl-", "N-Ethylformamide", "N-Formylethylamine", "Ethylformamide", "NSC 404522"], "SMILES": "N(CC)C=O", "physical_data": {"Molecular Weight": "73.09", "Molecular Formula": "C3H7NO", "Boiling Point": "198 \u00b0C", "Density": "0.9552 g/cm\u00b3 @ Temp: 20 \u00b0C"}}