{"cas_no": "627-83-8", "cn_name": "\u4e59\u4e8c\u9187\u4e8c\u786c\u8102\u9178", "en_name": ["Glycol distearate", "Octadecanoic acid, 1,1\u2032-(1,2-ethanediyl) ester", "Stearic acid, ethylene ester", "Octadecanoic acid, 1,2-ethanediyl ester", "Ethylene glycol, distearate", "Ethylene glycol, diester with stearic acid", "Ethylene distearate", "Ethylene stearate", "Elfan L 310", "Ethylene glycol dioctadecanoate", "Ethylene dioctadecanoate", "Nissan Unister E 275", "Emalex EG-diS", "Unister E 275", "Emerest 2355", "Cutina AGS", "Glycol distearate", "Emanon 3201M", "Glycolube 674", "Cutina K 2-2747", "Kemester EGDS", "Croda EGDS", "EGDS", "Kessco EGDS", "Pegosperse 50DS", "Pegnol EDS", "Empilan EGDS/A", "Santopearl GE 70", "Emanon 3201", "Tegin G 1100", "Lipo EGDS", "NSC 6820", "PK 3000AM", "Genapol PMS", "Mackester EGDS", "Tegin BL 315", "B-DSP 60", "Estepearl 15V", "Cithrol EGDS 3432", "Emanon 3201MH-V", "Galaxy 610", "Loxiol EP 237", "Pegnol EDS 98K", "Tegin EGS", "Ethylene glycol distearate", "SS-Emalex EG-di-S", "DM 125H", "Emanon 3201M-V", "Estepearl 10V", "E 275", "Jeechem EGDS", "Nikkol Estepearl 10V"], "SMILES": "O(CCOC(CCCCCCCCCCCCCCCCC)=O)C(CCCCCCCCCCCCCCCCC)=O", "physical_data": {"Molecular Weight": "594.99", "Molecular Formula": "C38H74O4", "Melting Point": "79 \u00b0C", "Density": "0.8581 g/cm\u00b3 @ Temp: 78 \u00b0C"}}