{"cas_no": "627-21-4", "cn_name": "2-\u620a\u7094", "en_name": ["2-Pentyne", "2-Pentyne", "1-Ethyl-2-methylacetylene", "Ethylmethylacetylene", "Methyl ethyl acetylene"], "SMILES": "C(CC)#CC", "physical_data": {"Molecular Weight": "68.12", "Molecular Formula": "C5H8", "Boiling Point": "56.1 \u00b0C", "Melting Point": "-109.3 \u00b0C", "Density": "0.7115 g/cm\u00b3 @ Temp: 20 \u00b0C"}}