{"cas_no": "627-31-6", "cn_name": "1,3-\u4e8c\u7898\u4e19\u70f7", "en_name": ["1,3-Diiodopropane", "Propane, 1,3-diiodo-", "1,3-Diiodopropane", "Trimethylene diiodide", "\u03b1,\u03c9-Diiodopropane", "NSC 35647"], "SMILES": "C(CI)CI", "physical_data": {"Molecular Weight": "295.89", "Molecular Formula": "C3H6I2", "Boiling Point": "88-89 \u00b0C @ Press: 6 Torr", "Melting Point": "-20 \u00b0C", "Density": "2.571 g/cm\u00b3 @ Temp: 20 \u00b0C"}}