{"cas_no": "627-00-9", "cn_name": "4-\u6c2f\u4e19\u9178", "en_name": ["4-Chlorobutanoic acid", "Butanoic acid, 4-chloro-", "Butyric acid, 4-chloro-", "4-Chlorobutanoic acid", "4-Chlorobutyric acid", "\u03b3-Chlorobutyric acid", "NSC 6391", "NSC 76578", "4-Chlorobutyrate"], "SMILES": "C(C(O)=O)CCCl", "physical_data": {"Molecular Weight": "122.55", "Molecular Formula": "C4H7ClO2", "Boiling Point": "114 \u00b0C @ Press: 16 Torr", "Melting Point": "16 \u00b0C", "Density": "1.2373 g/cm\u00b3 @ Temp: 20 \u00b0C"}}