{"cas_no": "627-98-5", "cn_name": "5-\u7532\u57fa-1-\u5df1\u9187", "en_name": ["5-Methyl-1-hexanol", "1-Hexanol, 5-methyl-", "5-Methyl-1-hexanol", "5-Methylhexanol"], "SMILES": "C(CCCO)C(C)C", "physical_data": {"Molecular Weight": "116.20", "Molecular Formula": "C7H16O", "Boiling Point": "170 \u00b0C", "Melting Point": "61-62 \u00b0C", "Density": "0.8192 g/cm\u00b3 @ Temp: 25 \u00b0C"}}