{"cas_no": "627-42-9", "cn_name": "2-\u6c2f\u4e59\u57fa\u7532\u57fa\u919a", "en_name": ["2-Chloroethyl methyl ether", "Ethane, 1-chloro-2-methoxy-", "Ether, 2-chloroethyl methyl", "1-Chloro-2-methoxyethane", "2-Chloroethyl methyl ether", "2-Methoxyethyl chloride", "Ethylenechlorohydrin methyl ether", "2-Chloro-1-methoxyethane", "R-E 280", "Methyl 2-chloroethyl ether", "1-Chloro-2-(methyloxy)ethane"], "SMILES": "C(CCl)OC", "physical_data": {"Molecular Weight": "94.54", "Molecular Formula": "C3H7ClO", "Boiling Point": "92-93 \u00b0C", "Density": "1.0345 g/cm\u00b3 @ Temp: 20 \u00b0C"}}