{"cas_no": "627-01-0", "cn_name": "N-\u4e59\u7518\u80fa\u9178", "en_name": ["N-Ethylglycine", "Glycine, N-ethyl-", "N-Ethylglycine", "NSC 244825", "2-(Ethylamino)acetic acid", "2-(Ethylazaniumyl)acetate"], "SMILES": "C(C(O)=O)NCC", "physical_data": {"Molecular Weight": "103.12", "Molecular Formula": "C4H9NO2", "Melting Point": "180-182 \u00b0C (decomp)"}}