{"cas_no": "627-05-4", "cn_name": "1-\u785d\u57fa\u4e01\u70f7", "en_name": ["1-Nitrobutane", "Butane, 1-nitro-", "1-Nitrobutane", "NSC 3648"], "SMILES": "C(N(=O)=O)CCC", "physical_data": {"Molecular Weight": "103.12", "Molecular Formula": "C4H9NO2", "Boiling Point": "153 \u00b0C", "Melting Point": "-81.33 \u00b0C", "Density": "0.972 g/cm\u00b3 @ Temp: 20 \u00b0C"}}