{"cas_no": "627-32-7", "cn_name": "3-\u7898\u4e19\u9187", "en_name": ["3-Iodo-1-propanol", "1-Propanol, 3-iodo-", "3-Iodo-1-propanol", "1-Iodo-3-propanol", "3-Iodopropanol", "1-Hydroxy-3-iodopropane"], "SMILES": "C(CI)CO", "physical_data": {"Molecular Weight": "185.99", "Molecular Formula": "C3H7IO", "Boiling Point": "112 \u00b0C @ Press: 31 Torr", "Density": "2.014 g/cm\u00b3 @ Temp: 25 \u00b0C"}}