{"cas_no": "627-06-5", "cn_name": "\u4e19\u8132", "en_name": ["Propylurea", "Urea, N-propyl-", "Urea, propyl-", "N-Propylurea", "Propylurea", "1-Propylurea", "NSC 73471"], "SMILES": "N(C(N)=O)CCC", "physical_data": {"Molecular Weight": "102.14", "Molecular Formula": "C4H10N2O", "Melting Point": "107 \u00b0C"}}