{"cas_no": "627-20-3", "cn_name": "\u987a-2-\u620a\u70ef", "en_name": ["cis-2-Pentene", "2-Pentene, (2Z)-", "2-Pentene, (Z)-", "2-Pentene, cis-", "(2Z)-2-Pentene", "cis-\u03b2-Amylene", "(Z)-2-Pentene", "cis-2-Pentene", "cis-Pentene", "(Z)-Pent-2-ene"], "SMILES": "C(CC)=CC", "physical_data": {"Molecular Weight": "70.13", "Molecular Formula": "C5H10", "Boiling Point": "36.9 \u00b0C", "Melting Point": "-151.4 \u00b0C", "Density": "0.6556 g/cm\u00b3 @ Temp: 20 \u00b0C"}}