{"cas_no": "627-41-8", "cn_name": "\u7532\u57fa\u4e19\u7094\u57fa\u919a", "en_name": ["Methyl propargyl ether", "1-Propyne, 3-methoxy-", "Ether, methyl 2-propynyl", "Methyl propargyl ether", "3-Methoxypropyne", "3-Methoxy-1-propyne", "Propargyl methyl ether", "Methyl 2-propynyl ether", "Prop-2-yn-1-yl methyl ether", "(Methoxymethyl)ethyne", "(Methoxymethyl)acetylene", "1-Methoxy-2-propyne"], "SMILES": "C(C#C)OC", "physical_data": {"Molecular Weight": "70.09", "Molecular Formula": "C4H6O", "Boiling Point": "63 \u00b0C", "Density": "0.879 g/cm\u00b3 @ Temp: 15 \u00b0C"}}