{"cas_no": "627-19-0", "cn_name": "1-\u620a\u7094", "en_name": ["1-Pentyne", "1-Pentyne", "1-Pentine", "Propylacetylene"], "SMILES": "C(CC)C#C", "physical_data": {"Molecular Weight": "68.12", "Molecular Formula": "C5H8", "Boiling Point": "40.1 \u00b0C", "Melting Point": "-90 \u00b0C", "Density": "0.6945 g/cm\u00b3 @ Temp: 20 \u00b0C"}}