{"cas_no": "627-59-8", "cn_name": "5-\u7532\u57fa-2-\u5df1\u9187", "en_name": ["5-Methyl-2-hexanol", "2-Hexanol, 5-methyl-", "5-Methyl-2-hexanol", "(\u00b1)-5-Methyl-2-hexanol", "1,4-Dimethyl-1-pentanol"], "SMILES": "C(CC(C)O)C(C)C", "physical_data": {"Molecular Weight": "116.20", "Molecular Formula": "C7H16O", "Boiling Point": "151 \u00b0C", "Melting Point": "135-140 \u00b0C", "Density": "0.8145 g/cm\u00b3 @ Temp: 20 \u00b0C"}}