{"cas_no": "627-03-2", "cn_name": "\u4e59\u6c27\u57fa\u4e59\u9178", "en_name": ["Ethoxyacetic acid", "Acetic acid, 2-ethoxy-", "Acetic acid, ethoxy-", "2-Ethoxyacetic acid", "Ethoxyacetic acid", "Ethyloxyacetic acid", "NSC 6750", "3-Oxapentanoic acid"], "SMILES": "C(C(O)=O)OCC", "physical_data": {"Molecular Weight": "104.10", "Molecular Formula": "C4H8O3", "Boiling Point": "206.5 \u00b0C", "Density": "1.0347 g/cm\u00b3 @ Temp: 10 \u00b0C"}}