{"cas_no": "627-12-3", "cn_name": "\u4e19\u57fa\u78b3\u9178\u916f", "en_name": ["Propyl carbamate", "Carbamic acid, propyl ester", "Propyl carbamate", "n-Propyl carbamate", "NSC 4855"], "SMILES": "O(C(N)=O)CCC", "physical_data": {"Molecular Weight": "103.12", "Molecular Formula": "C4H9NO2", "Boiling Point": "196 \u00b0C", "Melting Point": "60 \u00b0C"}}