{"cas_no": "627-76-9", "cn_name": "DL-2-\u6c28\u57fa\u5e9a\u4e8c\u9178", "en_name": ["2-Aminopimelic acid", "Heptanedioic acid, 2-amino-", "Heptanedioic acid, 2-amino-, DL-", "Heptanedioic acid, 2-amino-, (\u00b1)-", "2-Aminoheptanedioic acid", "DL-\u03b1-Aminopimelic acid", "DL-2-Aminopimelic acid", "(\u00b1)-2-Aminoheptanedioic acid", "\u03b1-Aminopimelic acid", "2-Aminopimelic acid", "DL-2-Aminoheptanedioic acid", "NSC 402480"], "SMILES": "C(CCCC(O)=O)C(C(O)=O)N", "physical_data": {"Molecular Weight": "175.18", "Molecular Formula": "C7H13NO4", "Melting Point": "215-216 \u00b0C"}}