{"cas_no": "627-82-7", "cn_name": "\u4e8c\u805a\u4e19\u4e09\u9187", "en_name": ["Bis(2,3-dihydroxypropyl) ether", "1,2-Propanediol, 3,3\u2032-oxybis-", "1,2-Propanediol, 3,3\u2032-oxydi-", "3,3\u2032-Oxybis[1,2-propanediol]", "\u03b1,\u03b1\u2032-Diglycerol", "4-Oxaheptane-1,2,6,7-tetrol", "3,3\u2032-Oxydi-1,2-propanediol", "NSC 8689", "Bis(2,3-dihydroxypropyl) ether", "\u03b1,\u03b1-Diglycerol"], "SMILES": "C(OCC(CO)O)C(CO)O", "physical_data": {"Molecular Weight": "166.17", "Molecular Formula": "C6H14O5", "Boiling Point": "210-215 \u00b0C @ Press: 15 Torr", "Melting Point": "319 \u00b0C", "Density": "1.2813 g/cm\u00b3 @ Temp: 20 \u00b0C"}}