{"cas_no": "627-27-0", "cn_name": "3-\u4e01\u70ef-1-\u9187", "en_name": ["3-Buten-1-ol", "3-Buten-1-ol", "1-Buten-4-ol", "3-Butenyl alcohol", "Allylcarbinol", "1-Hydroxy-3-butene", "Homoallyl alcohol", "4-Hydroxy-1-butene", "\u03b2-Vinylethanol", "NSC 60194", "But-3-en-1-ol", "3-Butenol"], "SMILES": "C(C=C)CO", "physical_data": {"Molecular Weight": "72.11", "Molecular Formula": "C4H8O", "Boiling Point": "113.5 \u00b0C", "Density": "0.848 g/cm\u00b3 @ Temp: 17 \u00b0C"}}