{"cas_no": "627-63-4", "cn_name": "\u53cd\u4e01\u70ef\u4e8c\u9170\u6c2f", "en_name": ["Fumaryl chloride", "2-Butenedioyl dichloride, (2E)-", "Fumaroyl chloride", "2-Butenedioyl dichloride, (E)-", "(2E)-2-Butenedioyl dichloride", "Fumaryl chloride", "Fumaric dichloride", "Fumaroyl dichloride", "Fumaric acid dichloride", "Fumaric acid chloride", "Fumaryl dichloride"], "SMILES": "C(=CC(Cl)=O)C(Cl)=O", "physical_data": {"Molecular Weight": "152.96", "Molecular Formula": "C4H2Cl2O2", "Boiling Point": "159 \u00b0C", "Melting Point": "246-247 \u00b0C"}}