{"cas_no": "627-54-3", "cn_name": "\u4e8c\u4e59\u57fa\u78b2", "en_name": ["1,1\u2032-Tellurobis[ethane]", "Ethane, 1,1\u2032-tellurobis-", "Ethyl telluride", "1,1\u2032-Tellurobis[ethane]", "Diethyl telluride", "Diethyltellurium"], "SMILES": "[Te](CC)CC", "physical_data": {"Molecular Weight": "", "Molecular Formula": "C4H10Te", "Boiling Point": "137.5 \u00b0C"}}