{"cas_no": "627-90-7", "cn_name": "\u5341\u4e00\u9178\u4e59\u916f", "en_name": ["Ethyl undecanoate", "Undecanoic acid, ethyl ester", "Hendecanoic acid, ethyl ester", "Ethyl undecylate", "Ethyl undecanoate", "NSC 97265"], "SMILES": "C(CCCCCCCCC)C(OCC)=O", "physical_data": {"Molecular Weight": "214.34", "Molecular Formula": "C13H26O2", "Boiling Point": "131 \u00b0C", "Melting Point": "-15 \u00b0C"}}