{"cas_no": "627-37-2", "cn_name": "N-\u7532\u57fa\u70ef\u4e19\u57fa\u80fa", "en_name": ["Methylallylamine", "2-Propen-1-amine, N-methyl-", "Allylamine, N-methyl-", "Methylallylamine", "N-Methyl-N-allylamine", "N-Methylallylamine", "Allylmethylamine", "N-Allyl-N-methylamine", "N-Allylmethylamine", "N-Methylprop-2-enamine", "N-Methyl-2-propen-1-amine", "(Methyl)(prop-2-en-1-yl)amine"], "SMILES": "C(C=C)NC", "physical_data": {"Molecular Weight": "71.12", "Molecular Formula": "C4H9N", "Boiling Point": "65 \u00b0C"}}