{"cas_no": "627-50-9", "cn_name": "\u4e59\u57fa\u4e59\u70ef\u57fa\u786b\u919a", "en_name": ["Ethyl vinyl sulfide", "Ethene, (ethylthio)-", "Sulfide, ethyl vinyl", "Ethyl vinyl sulfide", "Vinyl ethyl sulfide", "(Ethylthio)ethene", "NSC 90866", "Ethylsulfanylethene", "Ethyl vinyl thioether"], "SMILES": "S(CC)C=C", "physical_data": {"Molecular Weight": "88.17", "Molecular Formula": "C4H8S", "Boiling Point": "91.5-92.0 \u00b0C", "Density": "0.8691 g/cm\u00b3 @ Temp: 25 \u00b0C"}}