{"cas_no": "627-91-8", "cn_name": "\u5df1\u4e8c\u9178\u5355\u7532\u916f", "en_name": ["Monomethyl adipate", "Hexanedioic acid, 1-methyl ester", "Adipic acid, monomethyl ester", "Hexanedioic acid, monomethyl ester", "Adipic acid, methyl ester", "Monomethyl adipate", "Methyl adipate", "Methyl hydrogen adipate", "Methyl hemiadipate", "Methyl 5-carboxypentanoate", "Monomethyl 1,6-hexanedioate", "5-Carbomethoxypentanoic acid", "NSC 55113", "NSC 9389", "6-Methoxy-6-oxohexanoic acid"], "SMILES": "C(CCCC(O)=O)C(OC)=O", "physical_data": {"Molecular Weight": "160.17", "Molecular Formula": "C7H12O4", "Boiling Point": "70-75 \u00b0C @ Press: 3 Torr", "Melting Point": "9 \u00b0C", "Density": "1.1270 g/cm\u00b3 @ Temp: 20 \u00b0C"}}