{"cas_no": "627-95-2", "cn_name": "5-\u6c28\u57fa\u620a\u9178\u76d0\u9178\u76d0", "en_name": ["5-Aminovaleric acid hydrochloride", "Pentanoic acid, 5-amino-, hydrochloride (1:1)", "Valeric acid, 5-amino-, hydrochloride", "Pentanoic acid, 5-amino-, hydrochloride", "\u03b4-Aminovaleric acid hydrochloride", "5-Aminovaleric acid hydrochloride", "5-Aminopentanoic acid hydrochloride"], "SMILES": "C(CCCN)C(O)=O.Cl", "physical_data": {"Molecular Weight": "", "Molecular Formula": "C5H11NO2.ClH", "Boiling Point": "131-132 \u00b0C @ Press: 3 Torr", "Melting Point": "92 \u00b0C", "Density": "1.0962 g/cm\u00b3 @ Temp: 20 \u00b0C"}}