{"cas_no": "627-44-1", "cn_name": "\u4e8c\u4e59\u57fa\u6c5e", "en_name": ["Diethylmercury", "Mercury, diethyl-", "Diethylmercury"], "SMILES": "[Hg](CC)CC", "physical_data": {"Molecular Weight": "", "Molecular Formula": "C4H10Hg", "Boiling Point": "159 \u00b0C", "Melting Point": "&lt;25 \u00b0C", "Density": "2.4268 g/cm\u00b3 @ Temp: 20 \u00b0C"}}