{"cas_no": "627-64-5", "cn_name": "\u5bcc\u9a6c\u9170\u80fa", "en_name": ["Fumaramide", "2-Butenediamide, (2E)-", "Fumaramide", "2-Butenediamide, (E)-", "(2E)-2-Butenediamide", "Fumaric diamide", "Fumaric acid diamide", "NSC 16608"], "SMILES": "C(=CC(N)=O)C(N)=O", "physical_data": {"Molecular Weight": "114.10", "Molecular Formula": "C4H6N2O2", "Melting Point": "267 \u00b0C"}}