{"cas_no": "627-93-0", "cn_name": "\u5df1\u4e8c\u9178\u4e8c\u7532\u916f", "en_name": ["Dimethyl adipate", "Hexanedioic acid, 1,6-dimethyl ester", "Adipic acid, dimethyl ester", "Hexanedioic acid, dimethyl ester", "Dimethyl adipate", "Methyl adipate", "Dimethyl hexanedioate", "DBE 6", "NSC 11213", "Adipinic acid dimethyl ester", "Dimethyl 1,6-hexanedioate"], "SMILES": "C(CCCC(OC)=O)C(OC)=O", "physical_data": {"Molecular Weight": "174.19", "Molecular Formula": "C8H14O4", "Boiling Point": "115 \u00b0C @ Press: 13 Torr", "Melting Point": "10.3 \u00b0C", "Density": "1.0600 g/cm\u00b3 @ Temp: 20 \u00b0C"}}