{"cas_no": "627-13-4", "cn_name": "\u785d\u9178\u4e19\u916f", "en_name": ["Propyl nitrate", "Nitric acid, propyl ester", "Propyl nitrate", "n-Propyl nitrate"], "SMILES": "O(N(=O)=O)CCC", "physical_data": {"Molecular Weight": "105.09", "Molecular Formula": "C3H7NO3", "Boiling Point": "110 \u00b0C", "Melting Point": "-100 \u00b0C", "Density": "1.0538 g/cm\u00b3 @ Temp: 20 \u00b0C"}}