{"cas_no": "6270-63-9", "cn_name": "\u7f9f\u57fa\u5421\u55ea", "en_name": ["2(1H)-Pyrazinone", "2(1H)-Pyrazinone", "Pyrazinol", "2-Hydroxypyrazine", "2-Oxo-1H-pyrazine", "NSC 36081", "1H-Pyrazin-2-one", "Pyrazin-2-ol", "Pyrazin-2(1H)-one"], "SMILES": "O=C1C=NC=CN1", "physical_data": {"Molecular Weight": "96.09", "Molecular Formula": "C4H4N2O", "Melting Point": "187-188 \u00b0C"}}