{"cas_no": "6270-19-5", "cn_name": "4-(2,3-\u73af\u6c27\u4e19\u57fa)\u5417\u5549", "en_name": ["4-(2,3-Epoxypropyl)morpholine", "Morpholine, 4-(2-oxiranylmethyl)-", "Morpholine, 4-(2,3-epoxypropyl)-", "Morpholine, 4-(oxiranylmethyl)-", "4-(2-Oxiranylmethyl)morpholine", "Morpholinopropylene oxide", "N-(2,3-Epoxypropyl)morpholine", "1-Morpholino-2,3-epoxypropane", "3-Morpholino-1,2-epoxypropane", "4-(2,3-Epoxypropyl)morpholine", "4-Glycidylmorpholine", "4-(Oxiranylmethyl)morpholine", "(Morpholinomethyl)oxirane", "2-(4-Morpholinylmethyl)oxirane", "NSC 34004", "4-[(Oxiran-2-yl)methyl]morpholine"], "SMILES": "C(N1CCOCC1)C2CO2", "physical_data": {"Molecular Weight": "143.18", "Molecular Formula": "C7H13NO2", "Boiling Point": "95-97 \u00b0C @ Press: 12 Torr", "Density": "1.067 g/cm\u00b3 @ Temp: 20 \u00b0C"}}