{"cas_no": "62708-56-9", "cn_name": "L-(-)-\u4e8c\u82ef\u7532\u9170\u9152\u77f3\u9178\u4e00\u6c34\u7269", "en_name": ["O,O\u2032-Dibenzoyl-(2R,3R)-tartaric acid monohydrate", "Butanedioic acid, 2,3-bis(benzoyloxy)-, hydrate (1:1), (2R,3R)-", "Butanedioic acid, 2,3-bis(benzoyloxy)-, monohydrate, [R-(R*,R*)]-", "O,O\u2032-Dibenzoyl-(2R,3R)-tartaric acid monohydrate", "O,O\u2032-(2R,3R)-Dibenzoyltartaric acid monohydrate", "(-)-Dibenzoyl-L-tartaric acid monohydrate"], "SMILES": "C(C(OC(=O)C1=CC=CC=C1)C(O)=O)(OC(=O)C2=CC=CC=C2)C(O)=O.O", "physical_data": {"Molecular Weight": "", "Molecular Formula": "C18H14O8.H2O", "Melting Point": "88-89.8 \u00b0C"}}