{"cas_no": "6270-56-0", "cn_name": "\u4e59\u57fa\u7ce0\u57fa\u919a", "en_name": ["Furfuryl ethyl ether", "Furan, 2-(ethoxymethyl)-", "2-(Ethoxymethyl)furan", "Furfuryl ethyl ether", "Ethyl furfuryl ether", "NSC 35558", "(Ethoxymethyl)furan"], "SMILES": "C(OCC)C1=CC=CO1", "physical_data": {"Molecular Weight": "126.15", "Molecular Formula": "C7H10O2", "Boiling Point": "149 \u00b0C"}}