{"cas_no": "6270-46-8", "cn_name": "5-\u6c28\u57fa-2,4-\u4e8c\u7f9f\u57fa-6-\u7532\u57fa\u5627\u5576", "en_name": ["5-Amino-6-methyl-2,4(1H,3H)-pyrimidinedione", "2,4(1H,3H)-Pyrimidinedione, 5-amino-6-methyl-", "Uracil, 5-amino-6-methyl-", "5-Amino-6-methyl-2,4(1H,3H)-pyrimidinedione", "5-Amino-6-methyluracil", "NSC 35527"], "SMILES": "NC1=C(C)NC(=O)NC1=O", "physical_data": {"Molecular Weight": "141.13", "Molecular Formula": "C5H7N3O2", "Melting Point": "272-274 \u00b0C (decomp)"}}