{"cas_no": "6271-78-9", "cn_name": "6-\u6c2f\u70df\u9170\u80fa", "en_name": ["6-Chloronicotinamide", "3-Pyridinecarboxamide, 6-chloro-", "Nicotinamide, 6-chloro-", "6-Chloro-3-pyridinecarboxamide", "6-Chloronicotinamide", "2-Chloro-5-carbamoylpyridine", "NSC 37821"], "SMILES": "C(N)(=O)C=1C=CC(Cl)=NC1", "physical_data": {"Molecular Weight": "156.57", "Molecular Formula": "C6H5ClN2O", "Melting Point": "213.5-214.2 \u00b0C"}}