{"cas_no": "6271-79-0", "cn_name": "\u4e8c\u785d\u57fa\u8054\u82ef\u80fa", "en_name": ["3,3\u2032-Dinitrobenzidine", "[1,1\u2032-Biphenyl]-4,4\u2032-diamine, 3,3\u2032-dinitro-", "Benzidine, 3,3\u2032-dinitro-", "3,3\u2032-Dinitro[1,1\u2032-biphenyl]-4,4\u2032-diamine", "3,3\u2032-Dinitrobenzidine", "NSC 37067", "3,3\u2032-Dinitro-1,1\u2032-biphenyl-4,4\u2032-diamine"], "SMILES": "N(=O)(=O)C=1C=C(C=CC1N)C2=CC(N(=O)=O)=C(N)C=C2", "physical_data": {"Molecular Weight": "274.23", "Molecular Formula": "C12H10N4O4", "Melting Point": "&gt;300 \u00b0C (sublm)"}}