{"cas_no": "6272-38-4", "cn_name": "2-\u82c4\u6c27\u57fa\u82ef\u915a", "en_name": ["2-(Phenylmethoxy)phenol", "Phenol, 2-(phenylmethoxy)-", "Phenol, o-(benzyloxy)-", "2-(Phenylmethoxy)phenol", "Benzyl o-hydroxyphenyl ether", "o-(Benzyloxy)phenol", "2-(Benzyloxy)phenol", "NSC 37426", "NSC 72669"], "SMILES": "O(CC1=CC=CC=C1)C2=C(O)C=CC=C2", "physical_data": {"Molecular Weight": "200.23", "Molecular Formula": "C13H12O2", "Boiling Point": "173-174 \u00b0C @ Press: 13 Torr", "Melting Point": "38 \u00b0C", "Density": "1.154 g/cm\u00b3 @ Temp: 22 \u00b0C"}}