{"cas_no": "6272-26-0", "cn_name": "6-\u7f9f\u57fa-2H-\u82ef\u5e76\u544b\u5583-3-\u916e", "en_name": ["6-Hydroxy-2H-benzofuran-3-one", "3(2H)-Benzofuranone, 6-hydroxy-", "6-Hydroxy-3(2H)-benzofuranone", "6-Hydroxy-3-coumaranone", "6-Hydroxy-2H-benzofuran-3-one", "6-Hydroxy-2,3-dihydrobenzo[b]furan-3-one", "NSC 37407", "6-Hydroxybenzofuran-3-one", "6-Hydroxy-2,3-dihydrobenzofuran-3-one", "6-Hydroxy-1-benzofuran-3(2H)-one", "6-Hydroxy-2,3-dihydro-1-benzofuran-3-one"], "SMILES": "O=C1C=2C(OC1)=CC(O)=CC2", "physical_data": {"Molecular Weight": "150.13", "Molecular Formula": "C8H6O3", "Melting Point": "245 \u00b0C (decomp)"}}