{"cas_no": "6272-55-5", "cn_name": "7,8,9,10-\u56db\u6c22\u82ef\u5e76[A]\u8298-7-\u9187", "en_name": ["7-Hydroxy-7,8,9,10-tetrahydrobenzo[a]pyrene", "Benzo[a]pyren-7-ol, 7,8,9,10-tetrahydro-", "7,8,9,10-Tetrahydrobenzo[a]pyren-7-ol", "7-Hydroxy-7,8,9,10-tetrahydrobenzo[a]pyrene", "(RS)-7,8,9,10-Tetrahydrobenzo[a]pyren-7-ol", "(\u00b1)-7,8,9,10-Tetrahydrobenzo[a]pyren-7-ol", "NSC 30871"], "SMILES": "OC1C2=C(C=3C4=C5C(=CC3)C=CC=C5C=CC4=C2)CCC1", "physical_data": {"Molecular Weight": "272.34", "Molecular Formula": "C20H16O", "Melting Point": "141.5-142 \u00b0C"}}