{"cas_no": "6272-74-8", "cn_name": "\u62c9\u5339\u6c2f\u94f5", "en_name": ["Lapyrium chloride", "Pyridinium, 1-[2-oxo-2-[[2-[(1-oxododecyl)oxy]ethyl]amino]ethyl]-, chloride (1:1)", "Pyridinium, 1-[[(2-hydroxyethyl)carbamoyl]methyl]-, chloride, laurate (ester)", "Pyridinium, 1-[2-oxo-2-[[2-[(1-oxododecyl)oxy]ethyl]amino]ethyl]-, chloride", "1-[[(2-Hydroxyethyl)carbamoyl]methyl]pyridinium chloride, laurate", "N-(Colaminoformylmethyl)pyridinium chloride laurate", "Lapyrium chloride", "1-[[(2-Hydroxyethyl)carbamoyl]methyl]pyridinium chloride laurate (ester)", "N-(Lauroylcolaminoformylmethyl)pyridinium chloride", "N-(Acyl colamino formyl methyl)pyridinium chloride", "N-[[N-(2-Dodecanoyloxyethyl)carbamoyl]methyl]pyridinium chloride", "Emcol E 607L", "Lapirium chloride", "1-[2-Oxo-2-[[2-[(1-oxododecyl)oxy]ethyl]amino]ethyl]pyridinium chloride", "1-(2-((2-(Dodecanoyloxy)ethyl)amino)-2-oxoethyl)pyridin-1-ium chloride"], "SMILES": "C(C(NCCOC(CCCCCCCCCCC)=O)=O)[N+]=1C=CC=CC1.[Cl-]", "physical_data": {"Molecular Weight": "", "Molecular Formula": "C21H35N2O3.Cl", "Melting Point": "141-144 \u00b0C"}}