{"cas_no": "62732-44-9", "cn_name": "\u4f0a\u5339\u8fbe\u514b\u6797", "en_name": ["Ipidacrine", "1H-Cyclopenta[b]quinolin-9-amine, 2,3,5,6,7,8-hexahydro-", "2,3,5,6,7,8-Hexahydro-1H-cyclopenta[b]quinolin-9-amine", "Ipidacrine", "Neuromidine", "2,3,5,6,7,8-Hexahydro-1H-cyclopenta[b]quinolin-9-ylamine", "1H,2H,3H,5H,6H,7H,8H-Cyclopenta[b]quinolin-9-amine"], "SMILES": "NC1=C2C(=NC3=C1CCCC3)CCC2", "physical_data": {"Molecular Weight": "188.27", "Molecular Formula": "C12H16N2", "Melting Point": "202-203 \u00b0C"}}