{"cas_no": "6274-27-7", "cn_name": "2,5-\u4e8c\u6c2f\u82ef\u57fa\u786b\u4ee3\u7f9f\u57fa\u4e59\u9178", "en_name": ["2-[(2,5-Dichlorophenyl)thio]acetic acid", "Acetic acid, 2-[(2,5-dichlorophenyl)thio]-", "Acetic acid, [(2,5-dichlorophenyl)thio]-", "2-[(2,5-Dichlorophenyl)thio]acetic acid", "[(2,5-Dichlorophenyl)thio]acetic acid", "NSC 36971", "(2,5-Dichlorophenylsulfanyl)acetic acid", "2-[(2,5-Dichlorophenyl)sulfanyl]acetic acid", "2-(2,5-Dichlorophenyl)sulfanylacetic acid"], "SMILES": "S(CC(O)=O)C1=C(Cl)C=CC(Cl)=C1", "physical_data": {"Molecular Weight": "237.10", "Molecular Formula": "C8H6Cl2O2S", "Melting Point": "130 \u00b0C"}}