{"cas_no": "6274-57-3", "cn_name": "4-\u6eb4-N,N-\u4e8c\u7532\u57fa\u82c4\u80fa", "en_name": ["4-Bromo-N,N-dimethylbenzenemethanamine", "Benzenemethanamine, 4-bromo-N,N-dimethyl-", "Benzylamine, p-bromo-N,N-dimethyl-", "4-Bromo-N,N-dimethylbenzenemethanamine", "p-Bromobenzyldimethylamine", "4-Bromo-N,N-dimethylbenzylamine", "1-Bromo-4-[(dimethylamino)methyl]benzene", "NSC 37488", "4-[(Dimethylamino)methyl]bromobenzene", "(4-Bromobenzyl)dimethylamine", "N,N-Dimethyl-4-bromobenzylamine", "1-(4-Bromophenyl)-N,N-dimethylmethylamine", "4-Bromobenzyl-N,N-dimethylamine", "1-(4-Bromophenyl)-N,N-dimethylmethanamine", "[(4-Bromophenyl)methyl]dimethylamine"], "SMILES": "C(N(C)C)C1=CC=C(Br)C=C1", "physical_data": {"Molecular Weight": "214.10", "Molecular Formula": "C9H12BrN", "Boiling Point": "121-122 \u00b0C @ Press: 20 Torr", "Melting Point": "165-167 \u00b0C"}}