{"cas_no": "6274-28-8", "cn_name": "3-\u6c28\u57fa-4-\u7532\u57fa\u82ef\u78fa\u80fa", "en_name": ["3-Amino-4-methylbenzenesulfonamide", "Benzenesulfonamide, 3-amino-4-methyl-", "3-Amino-4-methylbenzenesulfonamide", "NSC 36968", "3-Amino-4-methylbenzene-1-sulfonamide"], "SMILES": "S(N)(=O)(=O)C1=CC(N)=C(C)C=C1", "physical_data": {"Molecular Weight": "186.23", "Molecular Formula": "C7H10N2O2S", "Melting Point": "176 \u00b0C"}}