{"cas_no": "6274-12-0", "cn_name": "\u4e8c\u4e59\u80fa\u6eb4\u6c22\u9178\u76d0", "en_name": ["Ethanamine, N-ethyl-, hydrobromide (1:1)", "Ethanamine, N-ethyl-, hydrobromide (1:1)", "Diethylamine, hydrobromide", "Ethanamine, N-ethyl-, hydrobromide", "Diethylammonium bromide"], "SMILES": "N(CC)CC.Br", "physical_data": {"Molecular Weight": "", "Molecular Formula": "C4H11N.BrH", "Melting Point": "218-220 \u00b0C"}}