{"cas_no": "6276-54-6", "cn_name": "3-\u6c2f\u4e19\u80fa\u76d0\u9178\u76d0", "en_name": ["1-Propanamine, 3-chloro-, hydrochloride", "1-Propanamine, 3-chloro-, hydrochloride", "Propylamine, 3-chloro-, hydrochloride", "3-Amino-1-chloropropane hydrochloride", "1-Amino-3-chloropropane hydrochloride", "3-Aminopropyl chloride hydrochloride", "3-Chloro-1-propanamine hydrochloride", "1-Chloro-3-aminopropane hydrochloride", "3-Chloropropylamine hydrochloride"], "SMILES": "C(CCl)CN.Cl", "physical_data": {"Molecular Weight": "", "Molecular Formula": "C3H8ClN.ClH", "Melting Point": "146-148 \u00b0C"}}