{"cas_no": "6276-03-5", "cn_name": "\u82b4-1-\u7fa7\u9178", "en_name": ["9H-Fluorene-1-carboxylic acid", "9H-Fluorene-1-carboxylic acid", "Fluorene-1-carboxylic acid", "NSC 36445", "1-Carboxyfluorene", "Fluorine-1-carbocylic acid"], "SMILES": "C(O)(=O)C1=C2C(C=3C(C2)=CC=CC3)=CC=C1", "physical_data": {"Molecular Weight": "210.23", "Molecular Formula": "C14H10O2", "Melting Point": "246-249 \u00b0C"}}