{"cas_no": "62778-19-2", "cn_name": "\u4e8c\u6c2f\u7898\u785d\u57fa\u82ef", "en_name": ["1,3-Dichloro-2-iodo-5-nitrobenzene", "Benzene, 1,3-dichloro-2-iodo-5-nitro-", "1,3-Dichloro-2-iodo-5-nitrobenzene", "4-Iodo-3,5-dichloronitrobenzene", "3,5-Dichloro-4-iodonitrobenzene"], "SMILES": "N(=O)(=O)C1=CC(Cl)=C(I)C(Cl)=C1", "physical_data": {"Molecular Weight": "317.90", "Molecular Formula": "C6H2Cl2INO2", "Melting Point": "154.8 \u00b0C"}}