{"cas_no": "62778-16-9", "cn_name": "(2-\u7532\u57fa\u82c4\u57fa)\u81a6\u9178\u4e8c\u4e59\u916f", "en_name": ["Diethyl P-[(2-methylphenyl)methyl]phosphonate", "Phosphonic acid, P-[(2-methylphenyl)methyl]-, diethyl ester", "Phosphonic acid, [(2-methylphenyl)methyl]-, diethyl ester", "Diethyl P-[(2-methylphenyl)methyl]phosphonate", "Diethyl 2-methylbenzylphosphonate", "1-(Diethoxyphosphorylmethyl)-2-methylbenzene"], "SMILES": "P(CC1=C(C)C=CC=C1)(OCC)(OCC)=O", "physical_data": {"Molecular Weight": "242.25", "Molecular Formula": "C12H19O3P", "Boiling Point": "115 \u00b0C @ Press: 3 Torr"}}