{"cas_no": "6277-38-9", "cn_name": "4-\u7532\u6c27\u57fa-3-\u785d\u57fa\u82ef\u4e59\u916e", "en_name": ["1-(4-Methoxy-3-nitrophenyl)ethanone", "Ethanone, 1-(4-methoxy-3-nitrophenyl)-", "Acetophenone, 4\u2032-methoxy-3\u2032-nitro-", "Acetophenone, 4-methoxy-3-nitro-", "1-(4-Methoxy-3-nitrophenyl)ethanone", "4-Methoxy-3-nitroacetophenone", "4\u2032-Methoxy-3\u2032-nitroacetophenone", "3\u2032-Nitro-4\u2032-methoxyacetophenone", "3-Nitro-4-methoxyacetophenone", "NSC 35014", "NSC 49586", "1-(3-Nitro-4-methoxyphenyl)ethan-1-one", "1-(4-Methoxy-3-nitrophenyl)ethan-1-one"], "SMILES": "N(=O)(=O)C1=C(OC)C=CC(C(C)=O)=C1", "physical_data": {"Molecular Weight": "195.17", "Molecular Formula": "C9H9NO4", "Melting Point": "99.5 \u00b0C"}}