{"cas_no": "62780-89-6", "cn_name": "1-(3-\u6c2f\u4e19\u57fa)-1,3-\u4e8c\u6c22-2H-\u82ef\u5e76\u54aa\u5511-2-\u916e", "en_name": ["1-(3-Chloropropyl)-1,3-dihydro-2H-benzimidazol-2-one", "2H-Benzimidazol-2-one, 1-(3-chloropropyl)-1,3-dihydro-", "1-(3-Chloropropyl)-1,3-dihydro-2H-benzimidazol-2-one", "1-(3-Chloropropyl)-1,3-dihydrobenzimidazol-2-one", "1-(3-Chloropropyl)-2,3-dihydro-1H-1,3-benzodiazol-2-one"], "SMILES": "C(CCCl)N1C=2C(NC1=O)=CC=CC2", "physical_data": {"Molecular Weight": "210.66", "Molecular Formula": "C10H11ClN2O", "Melting Point": "118-120 \u00b0C"}}