{"cas_no": "6278-91-7", "cn_name": "4-\u82c4\u6c27\u57fa-2-\u4e01\u916e", "en_name": ["4-(Phenylmethoxy)-2-butanone", "2-Butanone, 4-(phenylmethoxy)-", "2-Butanone, 4-(benzyloxy)-", "4-(Phenylmethoxy)-2-butanone", "4-(Benzyloxy)-2-butanone", "NSC 34503"], "SMILES": "C(OCCC(C)=O)C1=CC=CC=C1", "physical_data": {"Molecular Weight": "178.23", "Molecular Formula": "C11H14O2", "Boiling Point": "88-91 \u00b0C @ Press: 0.5 Torr"}}