{"cas_no": "6278-73-5", "cn_name": "4-(2-\u82ef\u5e76\u567b\u5511\u57fa)\u82ef\u80fa", "en_name": ["2-(4-Aminophenyl)benzothiazole", "Benzenamine, 4-(2-benzothiazolyl)-", "Benzothiazole, 2-(p-aminophenyl)-", "4-(2-Benzothiazolyl)benzenamine", "2-(p-Aminophenyl)benzothiazole", "2-(4-Aminophenyl)benzothiazole", "2-(4\u2032-Aminophenyl)benzothiazole", "CJM 126", "NSC 34445", "4-(Benzothiazol-2-yl)phenylamine", "2-(4-Aminophenyl)-1,3-benzothiazole", "4-(Benzothiazol-2-yl)aniline", "4-(Benzo[d]thiazol-2-yl)aniline", "4-(Benzo[d]thiazol-2-yl)benzenamine", "2-(4-Aminophenyl)benzo[d]thiazole"], "SMILES": "NC1=CC=C(C2=NC=3C(S2)=CC=CC3)C=C1", "physical_data": {"Molecular Weight": "226.30", "Molecular Formula": "C13H10N2S", "Melting Point": "150-153 \u00b0C"}}