{"cas_no": "6279-86-3", "cn_name": "\u7532\u70f7\u4e09\u7fa7\u9178\u4e09\u4e59\u916f", "en_name": ["1,1,1-Triethyl methanetricarboxylate", "Methanetricarboxylic acid, 1,1,1-triethyl ester", "Methanetricarboxylic acid, triethyl ester", "1,1,1-Triethyl methanetricarboxylate", "Tricarbethoxymethane", "Triethyl methanetricarboxylate", "Tris(ethoxycarbonyl)methane", "Tri(ethoxycarbonyl)methane", "Tricarboethoxymethane", "Diethyl (carboethoxy)malonate", "NSC 11006", "Diethyl (ethoxycarbonyl)malonate", "Diethyl 2-ethoxycarbonylmalonate", "2-Ethoxycarbonyl-malonic acid diethyl ester"], "SMILES": "C(C(OCC)=O)(C(OCC)=O)C(OCC)=O", "physical_data": {"Molecular Weight": "232.23", "Molecular Formula": "C10H16O6", "Boiling Point": "253 \u00b0C", "Melting Point": "29 \u00b0C", "Density": "1.104 g/cm\u00b3 @ Temp: 20 \u00b0C"}}