{"cas_no": "628-30-8", "cn_name": "\u5f02\u6c30\u9178\u4e19\u916f", "en_name": ["Propyl isothiocyanate", "Propane, 1-isothiocyanato-", "Isothiocyanic acid, propyl ester", "1-Isothiocyanatopropane", "Propyl isothiocyanate", "n-Propyl isothiocyanate"], "SMILES": "C(N=C=S)CC", "physical_data": {"Molecular Weight": "101.17", "Molecular Formula": "C4H7NS", "Boiling Point": "153 \u00b0C"}}