{"cas_no": "628-09-1", "cn_name": "3-\u6c2f\u4e19\u57fa\u4e59\u9178\u916f", "en_name": ["3-Chloropropyl acetate", "1-Propanol, 3-chloro-, 1-acetate", "1-Propanol, 3-chloro-, acetate", "3-Chloropropyl acetate", "\u03b3-Chloropropyl acetate", "3-Acetoxypropyl chloride", "3-Chloro-1-propyl acetate", "Acetic acid 3-chloropropyl ester"], "SMILES": "O(CCCCl)C(C)=O", "physical_data": {"Molecular Weight": "136.58", "Molecular Formula": "C5H9ClO2", "Boiling Point": "164 \u00b0C", "Density": "1.1150 g/cm\u00b3 @ Temp: 20 \u00b0C"}}