{"cas_no": "628-68-2", "cn_name": "\u4e8c\u4e59\u4e8c\u9187\u4e8c\u4e59\u9178\u916f", "en_name": ["Diethylene glycol, diacetate", "Ethanol, 2,2\u2032-oxybis-, 1,1\u2032-diacetate", "Diethylene glycol, diacetate", "Ethanol, 2,2\u2032-oxybis-, diacetate", "Oxydiethylene acetate", "NSC 6310", "Bis(2-acetoxyethyl) ether", "2-(2-Acetyloxyethoxy)ethyl acetate"], "SMILES": "C(OC(C)=O)COCCOC(C)=O", "physical_data": {"Molecular Weight": "190.19", "Molecular Formula": "C8H14O5", "Boiling Point": "200 \u00b0C", "Melting Point": "18 \u00b0C", "Density": "1.1078 g/cm\u00b3 @ Temp: 15 \u00b0C"}}