{"cas_no": "628-41-1", "cn_name": "1,4-\u73af\u5df1\u4e8c\u70ef", "en_name": ["1,4-Cyclohexadiene", "1,4-Cyclohexadiene", "1,4-Dihydrobenzene"], "SMILES": "C1C=CCC=C1", "physical_data": {"Molecular Weight": "80.13", "Molecular Formula": "C6H8", "Boiling Point": "85.5 \u00b0C", "Melting Point": "-49.2 \u00b0C", "Density": "0.8569 g/cm\u00b3 @ Temp: 20 \u00b0C"}}