{"cas_no": "628-66-0", "cn_name": "1,3-\u4e19\u4e8c\u9187\u4e8c\u4e59\u9178\u916f", "en_name": ["1,3-Diacetoxypropane", "1,3-Propanediol, 1,3-diacetate", "1,3-Propanediol, diacetate", "1,3-Propylene diacetate", "1,3-Propylene glycol diacetate", "Trimethylene acetate", "1,3-Diacetoxypropane", "1,3-Bis(acetyloxy)propane", "NSC 227936"], "SMILES": "C(OC(C)=O)CCOC(C)=O", "physical_data": {"Molecular Weight": "160.17", "Molecular Formula": "C7H12O4", "Boiling Point": "209.5 \u00b0C"}}