{"cas_no": "628-51-3", "cn_name": "[\u4e8c]\u4e59\u9178\u4e9e\u7532\u916f", "en_name": ["Methanediol, 1,1-diacetate", "Methanediol, 1,1-diacetate", "Methanediol, diacetate", "Methylene diacetate", "Methylene glycol diacetate", "Diacetoxymethane", "NSC 57545", "(Acetyloxy)methyl acetate"], "SMILES": "C(OC(C)=O)OC(C)=O", "physical_data": {"Molecular Weight": "132.11", "Molecular Formula": "C5H8O4", "Boiling Point": "168-172 \u00b0C", "Melting Point": "118 \u00b0C"}}