{"cas_no": "628-76-2", "cn_name": "1,5-\u4e8c\u6c2f\u620a\u70f7", "en_name": ["1,5-Dichloropentane", "Pentane, 1,5-dichloro-", "1,5-Dichloropentane", "Pentamethylene chloride", "NSC 6210"], "SMILES": "C(CCCl)CCCl", "physical_data": {"Molecular Weight": "141.04", "Molecular Formula": "C5H10Cl2", "Boiling Point": "179 \u00b0C", "Melting Point": "-72.8 \u00b0C", "Density": "1.208 g/cm\u00b3"}}