{"cas_no": "628-12-6", "cn_name": "\u6c2f\u7532\u91782-\u7532\u6c27\u57fa\u4e59\u916f", "en_name": ["2-Methoxyethyl chloroformate", "Carbonochloridic acid, 2-methoxyethyl ester", "Formic acid, chloro-, 2-methoxyethyl ester", "2-Methoxyethyl chloroformate", "(2-Methoxyethoxy)carbonyl chloride", "Chloroformic acid 2-methoxyethyl ester", "(Chloro)(2-methoxyethoxy)methanone", "2-Methoxyethyl carbonochloridate", "2-Methoxyethyl chloroformte", "2-Methoxymethyl chloroformate"], "SMILES": "O(CCOC)C(Cl)=O", "physical_data": {"Molecular Weight": "138.55", "Molecular Formula": "C4H7ClO3", "Boiling Point": "58-59 \u00b0C @ Press: 13 Torr"}}