{"cas_no": "628-94-4", "cn_name": "\u5df2\u4e8c\u9170\u4e8c\u80fa", "en_name": ["Hexanediamide", "Hexanediamide", "Adipamide", "1,4-Butanedicarboxamide", "Adipic acid diamide", "Adipic diamide", "Adipic acid amide", "NSC 7623"], "SMILES": "C(CCC(N)=O)CC(N)=O", "physical_data": {"Molecular Weight": "144.17", "Molecular Formula": "C6H12N2O2", "Melting Point": "220 \u00b0C", "Density": "1.360 g/cm\u00b3"}}