{"cas_no": "628-02-4", "cn_name": "\u5df2\u9170\u80fa", "en_name": ["Hexanamide", "Hexanamide", "Caproamide", "n-Hexanamide", "Hexamide", "Capronamide", "n-Caproamide", "Hexylamide", "Caproic amide", "Capromide", "NSC 8437"], "SMILES": "C(CCCC)C(N)=O", "physical_data": {"Molecular Weight": "115.17", "Molecular Formula": "C6H13NO", "Boiling Point": "255 \u00b0C @ Press: 760 Torr", "Melting Point": "101 \u00b0C", "Density": "0.999 g/cm\u00b3 @ Temp: 20 \u00b0C"}}