{"cas_no": "628-44-4", "cn_name": "2-\u7532\u57fa-2-\u8f9b\u9187", "en_name": ["2-Methyl-2-octanol", "2-Octanol, 2-methyl-", "2-Methyl-2-octanol", "n-Hexyldimethylcarbinol", "NSC 21984", "1,1-Dimethylheptyl alcohol", "1,1-Dimethyl-1-heptanol"], "SMILES": "C(CC(C)(C)O)CCCC", "physical_data": {"Molecular Weight": "144.25", "Molecular Formula": "C9H20O", "Boiling Point": "178 \u00b0C", "Density": "0.8239 g/cm\u00b3 @ Temp: 20 \u00b0C"}}