{"cas_no": "628-63-7", "cn_name": "\u4e59\u9178\u620a\u916f", "en_name": ["Amyl acetate", "Acetic acid, pentyl ester", "Acetic acid, amyl ester", "Amyl acetate", "1-Pentyl acetate", "Pentyl acetate", "n-Pentyl acetate", "n-Amyl acetate", "Birnenoel", "n-Pentyl ethanoate", "1-Acetoxypentane", "ZED-N 50", "Pentyl ethanoate", "NSC 7923", "n-Amyl ethanoate", "X-AR 600-54/6", "Acetic acid 1-pentyl ester"], "SMILES": "C(OC(C)=O)CCCC", "physical_data": {"Molecular Weight": "130.18", "Molecular Formula": "C7H14O2", "Boiling Point": "149.2 \u00b0C @ Press: 760 Torr", "Melting Point": "-70.8 \u00b0C", "Density": "0.8756 g/cm\u00b3 @ Temp: 20 \u00b0C"}}