{"cas_no": "628-20-6", "cn_name": "4-\u6c2f\u4e01\u8148", "en_name": ["4-Chlorobutyronitrile", "Butanenitrile, 4-chloro-", "Butyronitrile, 4-chloro-", "4-Chlorobutanenitrile", "4-Chlorobutyronitrile", "\u03b3-Chlorobutyronitrile", "NSC 8410"], "SMILES": "C(CC#N)CCl", "physical_data": {"Molecular Weight": "103.55", "Molecular Formula": "C4H6ClN", "Boiling Point": "192 \u00b0C", "Density": "1.07910-1.07917 g/cm\u00b3 @ Temp: 30 \u00b0C"}}