{"cas_no": "628-46-6", "cn_name": "\u5f02\u5e9a\u9178", "en_name": ["5-Methylhexanoic acid", "Hexanoic acid, 5-methyl-", "Caproic acid, \u03b4-methyl-", "5-Methylhexanoic acid", "Isoenanthic acid", "5-Methylhexylic acid", "5-Methylcaproic acid", "NSC 1075"], "SMILES": "C(CC(C)C)CC(O)=O", "physical_data": {"Molecular Weight": "130.18", "Molecular Formula": "C7H14O2", "Boiling Point": "216 \u00b0C", "Melting Point": "&lt;-25 \u00b0C", "Density": "0.9140 g/cm\u00b3 @ Temp: 20 \u00b0C"}}