{"cas_no": "628-64-8", "cn_name": "2-\u4e59\u6c27\u57fa\u4e59\u57fa\u6c2f\u7532\u9178\u916f", "en_name": ["2-Ethoxyethyl carbonochloridate", "Carbonochloridic acid, 2-ethoxyethyl ester", "Formic acid, chloro-, 2-ethoxyethyl ester", "2-Ethoxyethyl carbonochloridate", "2-Ethoxyethyl chloroformate", "2-Ethoxyethyl chlorocarbonate"], "SMILES": "C(OC(Cl)=O)COCC", "physical_data": {"Molecular Weight": "152.58", "Molecular Formula": "C5H9ClO3", "Boiling Point": "67-68 \u00b0C @ Press: 14 Torr"}}