{"cas_no": "628-21-7", "cn_name": "1,4-\u4e8c\u7898\u4ee3\u4e01\u70f7", "en_name": ["1,4-Diiodobutane", "Butane, 1,4-diiodo-", "1,4-Diiodobutane", "Tetramethylene diiodide", "\u03b1,\u03c9-Diiodobutane", "1,4-Diodobutane", "NSC 31721"], "SMILES": "C(CCI)CI", "physical_data": {"Molecular Weight": "309.92", "Molecular Formula": "C4H8I2", "Boiling Point": "147-152 \u00b0C @ Press: 26 Torr", "Melting Point": "5.8 \u00b0C", "Density": "2.341 g/cm\u00b3 @ Temp: 18 \u00b0C"}}