{"cas_no": "628-99-9", "cn_name": "2-\u58ec\u57fa\u9187", "en_name": ["(\u00b1)-2-Nonanol", "2-Nonanol", "1-Methyl-1-octanol", "DL-Nonan-2-ol", "(\u00b1)-2-Nonanol", "NSC 9481", "2-Hydroxynonane"], "SMILES": "C(CCCCC)CC(C)O", "physical_data": {"Molecular Weight": "144.25", "Molecular Formula": "C9H20O", "Boiling Point": "193.5 \u00b0C", "Melting Point": "-35.5 \u00b0C", "Density": "0.8399 g/cm\u00b3 @ Temp: 0 \u00b0C"}}