{"cas_no": "628-67-1", "cn_name": "1,4-\u4e01\u4e8c\u9187\u4e8c\u4e59\u9178\u916f", "en_name": ["Butylene glycol diacetate", "1,4-Butanediol, 1,4-diacetate", "1,4-Butanediol, diacetate", "Tetramethylene diacetate", "Tetramethylene acetate", "1,4-Diacetoxybutane", "Butylene glycol diacetate", "1,4-Butylene glycol diacetate", "NSC 67924", "CELTOL 1,4-BDDA"], "SMILES": "C(OC(C)=O)CCCOC(C)=O", "physical_data": {"Molecular Weight": "174.19", "Molecular Formula": "C8H14O4", "Boiling Point": "229 \u00b0C", "Melting Point": "12 \u00b0C"}}