{"cas_no": "628-73-9", "cn_name": "\u5df2\u8148", "en_name": ["Hexanenitrile", "Hexanenitrile", "Capronitrile", "Pentyl cyanide", "Hexanonitrile", "Tricapronile", "1-Cyanopentane", "n-Hexanenitrile", "n-Capronitrile", "n-Pentyl cyanide", "n-Amyl cyanide", "NSC 1076"], "SMILES": "C(CCC)CC#N", "physical_data": {"Molecular Weight": "97.16", "Molecular Formula": "C6H11N", "Boiling Point": "163.6 \u00b0C", "Melting Point": "-80.3 \u00b0C", "Density": "0.82157 g/cm\u00b3 @ Temp: 0 \u00b0C"}}