{"cas_no": "628-96-6", "cn_name": "\u4e59\u4e8c\u9187\u4e8c\u785d\u9178\u916f", "en_name": ["Glycol dinitrate", "1,2-Ethanediol, 1,2-dinitrate", "Ethylene nitrate", "Ethylene glycol, dinitrate", "1,2-Ethanediol, dinitrate", "EGDN", "Ethylene dinitrate", "Glycol dinitrate", "Nitroglycol", "Ethylene glycol dinitrate ester", "Ethylene glycol dinitrate", "2-(Nitrooxy)ethyl nitrate"], "SMILES": "C(CON(=O)=O)ON(=O)=O", "physical_data": {"Molecular Weight": "152.06", "Molecular Formula": "C2H4N2O6", "Boiling Point": "197-200 \u00b0C @ Press: 760 Torr", "Melting Point": "-22.3 \u00b0C", "Density": "1.4918 g/cm\u00b3 @ Temp: 20 \u00b0C"}}