{"cas_no": "628-39-7", "cn_name": "\u4e8c\u4e59\u57fa\u4e8c\u7852\u919a", "en_name": ["Diethyl diselenide", "Diselenide, diethyl", "Ethyl diselenide", "Diethyl diselenide", "(Ethyldiselanyl)ethane"], "SMILES": "[Se]([Se]CC)CC", "physical_data": {"Molecular Weight": "216.04", "Molecular Formula": "C4H10Se2", "Boiling Point": "74-75 \u00b0C @ Press: 14 Torr", "Density": "1.6798 g/cm\u00b3 @ Temp: 20 \u00b0C"}}