{"cas_no": "628-11-5", "cn_name": "3-\u6c2f-1-\u4e19\u57fa\u6c2f\u7532\u9178\u916f", "en_name": ["3-Chloropropyl chloroformate", "Carbonochloridic acid, 3-chloropropyl ester", "Formic acid, chloro-, 3-chloropropyl ester", "(3-Chloropropoxy)carbonyl chloride", "3-Chloropropyl chloroformate", "\u03b3-Chloropropyl chloroformate", "Chloroformic acid 3-chloropropyl ester", "3-Chloropropyl carbonochloridate"], "SMILES": "O(CCCCl)C(Cl)=O", "physical_data": {"Molecular Weight": "157.00", "Molecular Formula": "C4H6Cl2O2", "Boiling Point": "177 \u00b0C", "Density": "1.2946 g/cm\u00b3 @ Temp: 25 \u00b0C"}}