{"cas_no": "628-17-1", "cn_name": "1-\u7898\u620a\u70f7", "en_name": ["1-Iodopentane", "Pentane, 1-iodo-", "1-Iodopentane", "n-Pentyl iodide", "Amyl iodide", "Pentyl iodide", "1-Pentyl iodide", "n-Amyl iodide", "NSC 7901", "5-Iodopentane"], "SMILES": "C(CCI)CC", "physical_data": {"Molecular Weight": "198.05", "Molecular Formula": "C5H11I", "Boiling Point": "155 \u00b0C", "Melting Point": "-85.6 \u00b0C", "Density": "1.54572 g/cm\u00b3 @ Temp: 0 \u00b0C"}}