{"cas_no": "628-87-5", "cn_name": "\u4e9a\u6c28\u57fa\u4e8c\u4e59\u8148", "en_name": ["Iminodiacetonitrile", "Acetonitrile, 2,2\u2032-iminobis-", "Acetonitrile, iminodi-", "2,2\u2032-Iminobis[acetonitrile]", "Iminodiacetonitrile", "1,1\u2032-Imidodiacetonitrile", "Imidodiacetonitrile", "NSC 263496", "2,2\u2032-Azanediyldiacetonitrile", "(Cyanomethyl-amino)-acetonitrile", "2-(Cyanomethylamino)acetonitrile", "2-[(Cyanomethyl)amino]acetonitrile"], "SMILES": "N(CC#N)CC#N", "physical_data": {"Molecular Weight": "95.10", "Molecular Formula": "C4H5N3", "Melting Point": "77 \u00b0C"}}