{"cas_no": "628-71-7", "cn_name": "1-\u5e9a\u7094", "en_name": ["1-Heptyne", "1-Heptyne", "Amylacetylene", "Pentylacetylene", "1-n-Heptyne", "NSC 9710"], "SMILES": "C(CCC)CC#C", "physical_data": {"Molecular Weight": "96.17", "Molecular Formula": "C7H12", "Boiling Point": "99.7 \u00b0C", "Melting Point": "-81 \u00b0C", "Density": "0.7646 g/cm\u00b3 @ Temp: 18 \u00b0C"}}