{"cas_no": "628-28-4", "cn_name": "\u7532\u57fa\u6b63\u4e01\u57fa\u919a", "en_name": ["Butyl methyl ether", "Butane, 1-methoxy-", "Ether, butyl methyl", "1-Methoxybutane", "Butyl methyl ether", "Methyl butyl ether", "Methyl n-butyl ether", "\u03b1-Methoxybutane", "n-Butyl methyl ether"], "SMILES": "C(COC)CC", "physical_data": {"Molecular Weight": "88.15", "Molecular Formula": "C5H12O", "Boiling Point": "70.1 \u00b0C", "Melting Point": "-115.5 \u00b0C", "Density": "0.86285 g/cm\u00b3 @ Temp: 20 \u00b0C"}}