{"cas_no": "628-13-7", "cn_name": "\u5421\u5576\u76d0\u9178\u76d0", "en_name": ["Pyridinium chloride", "Pyridine, hydrochloride (1:1)", "Pyridine, hydrochloride", "Pyridinium chloride"], "SMILES": "C=1C=CN=CC1.Cl", "physical_data": {"Molecular Weight": "", "Molecular Formula": "C5H5N.ClH", "Boiling Point": "222 \u00b0C", "Melting Point": "146 \u00b0C"}}