{"cas_no": "628-16-0", "cn_name": "1,5-\u5df1\u4e8c\u7094", "en_name": ["1,5-Hexadiyne", "1,5-Hexadiyne", "Bipropargyl", "Dipropargyl", "NSC 155174"], "SMILES": "C(CC#C)C#C", "physical_data": {"Molecular Weight": "78.11", "Molecular Formula": "C6H6", "Boiling Point": "86 \u00b0C", "Melting Point": "-6 \u00b0C", "Density": "0.79943 g/cm\u00b3 @ Temp: 20 \u00b0C"}}