{"cas_no": "628-29-5", "cn_name": "N-\u4e01\u57fa\u7532\u57fa\u786b\u919a", "en_name": ["Butyl methyl sulfide", "Butane, 1-(methylthio)-", "Sulfide, butyl methyl", "1-(Methylthio)butane", "Methyl butyl sulfide", "Butyl methyl sulfide", "Butyl methyl thioether", "2-Thiahexane", "\u03b1-(Methylthio)butane", "n-Butyl methyl sulfide", "Methyl n-butyl sulfide", "1-Methylsulfanylbutane", "1-(Methylsulfanyl)butane"], "SMILES": "C(CSC)CC", "physical_data": {"Molecular Weight": "104.21", "Molecular Formula": "C5H12S", "Boiling Point": "123.5 \u00b0C", "Melting Point": "-97.8 \u00b0C", "Density": "0.8427 g/cm\u00b3 @ Temp: 20 \u00b0C"}}