{"cas_no": "628-97-7", "cn_name": "\u68d5\u6988\u9178\u4e59\u916f", "en_name": ["Ethyl palmitate", "Hexadecanoic acid, ethyl ester", "Palmitic acid, ethyl ester", "Ethyl palmitate", "Ethyl hexadecanoate", "NSC 8918"], "SMILES": "C(CCCCCCCCCCCCC)CC(OCC)=O", "physical_data": {"Molecular Weight": "284.48", "Molecular Formula": "C18H36O2", "Boiling Point": "163 \u00b0C @ Press: 4 Torr", "Melting Point": "24 \u00b0C"}}