{"cas_no": "628-83-1", "cn_name": "\u786b\u6c30\u9178\u4e01\u916f", "en_name": ["Thiocyanic acid, butyl ester", "Thiocyanic acid, butyl ester", "Butane, 1-thiocyanato-", "Butyl thiocyanate", "1-Thiocyanobutane", "n-Butyl thiocyanate", "NSC 1478"], "SMILES": "C(CCC)SC#N", "physical_data": {"Molecular Weight": "115.20", "Molecular Formula": "C5H9NS", "Boiling Point": "186 \u00b0C", "Density": "0.9563 g/cm\u00b3 @ Temp: 25 \u00b0C"}}