{"cas_no": "628-55-7", "cn_name": "\u5f02\u4e01\u919a", "en_name": ["Isobutyl ether", "Propane, 1,1\u2032-oxybis[2-methyl-", "Isobutyl ether", "1,1\u2032-Oxybis[2-methylpropane]", "Diisobutyl ether", "Di-2-butyl ether", "2-Methyl-1-(2-methylpropoxy)propane"], "SMILES": "O(CC(C)C)CC(C)C", "physical_data": {"Molecular Weight": "130.23", "Molecular Formula": "C8H18O", "Boiling Point": "123 \u00b0C", "Melting Point": "-82.76 \u00b0C"}}