{"cas_no": "628-89-7", "cn_name": "2-\u6c2f\u4e59\u6c27\u57fa\u4e59\u9187", "en_name": ["2-(Chloroethoxy)ethanol", "Ethanol, 2-(2-chloroethoxy)-", "2-(2-Chloroethoxy)ethanol", "Diglycol chlorohydrin", "5-Chloro-3-oxa-1-pentanol", "2-Chloroethyl 2-hydroxyethyl ether", "Diethylene glycol monochlorohydrin", "2-(2\u2032-Chloroethoxy)ethanol", "2-(2-Hydroxyethoxy)ethyl chloride", "2-(Chloroethoxy)ethanol", "Ethylene glycol mono(2-chloroethyl) ether", "NSC 2648", "2-[(2-Chloroethyl)oxy]ethanol", "2-(2-Chloroethoxy)ethan-1-ol"], "SMILES": "O(CCCl)CCO", "physical_data": {"Molecular Weight": "124.57", "Molecular Formula": "C4H9ClO2", "Boiling Point": "91-92 \u00b0C @ Press: 13 Torr"}}