{"cas_no": "628-32-0", "cn_name": "\u4e59\u4e19\u919a", "en_name": ["Ethyl propyl ether", "Propane, 1-ethoxy-", "Ether, ethyl propyl", "1-Ethoxypropane", "Ethyl propyl ether", "Propyl ethyl ether", "Ethyl n-propyl ether"], "SMILES": "C(OCC)CC", "physical_data": {"Molecular Weight": "88.15", "Molecular Formula": "C5H12O", "Boiling Point": "63.2 \u00b0C", "Melting Point": "-127.5 \u00b0C", "Density": "0.7330 g/cm\u00b3 @ Temp: 20 \u00b0C"}}