{"cas_no": "628-36-4", "cn_name": "\u4e8c\u7532\u9170\u80bc", "en_name": ["1,2-Hydrazinedicarboxaldehyde", "1,2-Hydrazinedicarboxaldehyde", "Hydrazine, 1,2-diformyl-", "Bicarbamaldehyde", "1,2-Diformylhydrazine", "Diformylhydrazine", "N,N\u2032-Diformylhydrazine", "s-Diformylhydrazine", "Diformohydrazide", "s-Diformohydrazide", "Diformylhydrazide", "NSC 54729", "N\u2032-Formylformic hydrazine"], "SMILES": "N(NC=O)C=O", "physical_data": {"Molecular Weight": "88.07", "Molecular Formula": "C2H4N2O2", "Melting Point": "156 \u00b0C"}}