{"cas_no": "628-77-3", "cn_name": "1,5-\u4e8c\u7898\u620a\u70f7", "en_name": ["1,5-Diiodopentane", "Pentane, 1,5-diiodo-", "1,5-Diiodopentane", "Pentamethylene diiodide", "\u03b1,\u03c9-Diiodopentane", "NSC 9457"], "SMILES": "C(CCI)CCI", "physical_data": {"Molecular Weight": "323.94", "Molecular Formula": "C5H10I2", "Boiling Point": "87 \u00b0C @ Press: 0.5 Torr", "Melting Point": "9 \u00b0C"}}