{"cas_no": "628-92-2", "cn_name": "\u73af\u5e9a\u70ef", "en_name": ["Cycloheptene", "Cycloheptene", "cis-Cycloheptene", "(1Z)-Cycloheptene", "NSC 5162"], "SMILES": "C1CCC=CCC1", "physical_data": {"Molecular Weight": "96.17", "Molecular Formula": "C7H12", "Boiling Point": "115 \u00b0C", "Melting Point": "-56 \u00b0C", "Density": "0.8239 g/cm\u00b3 @ Temp: 20 \u00b0C"}}