{"cas_no": "628-34-2", "cn_name": "2-\u4e59\u6c27\u57fa\u6c2f\u4e59\u70f7", "en_name": ["1-Chloro-2-ethoxyethane", "Ethane, 1-chloro-2-ethoxy-", "Ether, 2-chloroethyl ethyl", "1-Chloro-2-ethoxyethane", "2-Chloroethyl ethyl ether", "\u03b2-Chloroethyl ethyl ether", "Ethyl \u03b2-chloroethyl ether", "2-Ethoxyethyl chloride", "\u03b2-Chlorodiethyl ether", "(2-Chloroethoxy)ethane"], "SMILES": "C(OCC)CCl", "physical_data": {"Molecular Weight": "108.57", "Molecular Formula": "C4H9ClO", "Boiling Point": "107.5 \u00b0C", "Density": "0.9845 g/cm\u00b3 @ Temp: 22.3 \u00b0C"}}