{"cas_no": "628-81-9", "cn_name": "\u4e59\u57fa\u4e01\u57fa\u919a", "en_name": ["Butyl ethyl ether", "Butane, 1-ethoxy-", "Ether, butyl ethyl", "1-Ethoxybutane", "Butyl ethyl ether", "Ethyl butyl ether", "Ethyl n-butyl ether", "n-Butyl ethyl ether"], "SMILES": "C(CCC)OCC", "physical_data": {"Molecular Weight": "102.17", "Molecular Formula": "C6H14O", "Boiling Point": "92.3 \u00b0C", "Melting Point": "-124 \u00b0C"}}