{"cas_no": "628-03-5", "cn_name": "\u5f02\u786b\u6c30\u9178\u5f02\u620a\u916f", "en_name": ["3-Methylbutyl isothiocyanate", "Butane, 1-isothiocyanato-3-methyl-", "Isothiocyanic acid, isopentyl ester", "1-Isothiocyanato-3-methylbutane", "Isoamyl isothiocyanate", "Isopentyl isothiocyanate", "3-Methylbutyl isothiocyanate"], "SMILES": "C(CN=C=S)C(C)C", "physical_data": {"Molecular Weight": "129.22", "Molecular Formula": "C6H11NS", "Boiling Point": "79 \u00b0C @ Press: 12 Torr"}}