{"cas_no": "62803-47-8", "cn_name": "6-\u7f9f\u57fa-1-\u831a\u916e", "en_name": ["6-Hydroxyindan-1-one", "1H-Inden-1-one, 2,3-dihydro-6-hydroxy-", "1-Indanone, 6-hydroxy-", "2,3-Dihydro-6-hydroxy-1H-inden-1-one", "6-Hydroxyindan-1-one", "6-Hydroxy-2,3-dihydro-1H-inden-1-one", "6-Hydroxy-2,3-dihydroinden-1-one"], "SMILES": "O=C1C=2C(=CC=C(O)C2)CC1", "physical_data": {"Molecular Weight": "148.16", "Molecular Formula": "C9H8O2", "Melting Point": "152 \u00b0C"}}