{"cas_no": "62802-38-4", "cn_name": "5-\u6eb4-2-\u6c1f\u5627\u5576", "en_name": ["5-Bromo-2-fluoropyrimidine", "Pyrimidine, 5-bromo-2-fluoro-", "5-Bromo-2-fluoropyrimidine", "2-Fluoro-5-bromopyrimidine"], "SMILES": "BrC=1C=NC(F)=NC1", "physical_data": {"Molecular Weight": "176.97", "Molecular Formula": "C4H2BrFN2", "Melting Point": "92-93 \u00b0C"}}