{"cas_no": "6280-88-2", "cn_name": "4-\u6c2f-2-\u785d\u57fa\u82ef\u7532\u9178", "en_name": ["4-Chloro-2-nitrobenzoic acid", "Benzoic acid, 4-chloro-2-nitro-", "4-Chloro-2-nitrobenzoic acid", "2-Nitro-4-chlorobenzoic acid", "NSC 6158"], "SMILES": "C(O)(=O)C1=C(N(=O)=O)C=C(Cl)C=C1", "physical_data": {"Molecular Weight": "201.56", "Molecular Formula": "C7H4ClNO4", "Melting Point": "143-145 \u00b0C"}}