{"cas_no": "6280-87-1", "cn_name": "5-\u6c2f\u620a\u8148", "en_name": ["5-Chloropentanenitrile", "Pentanenitrile, 5-chloro-", "Valeronitrile, 5-chloro-", "5-Chloropentanenitrile", "\u03b4-Chlorovaleronitrile", "5-Chlorovaleronitrile", "1-Chloro-4-cyanobutane", "4-Chloro-1-cyanobutane", "NSC 6156"], "SMILES": "C(CCCl)CC#N", "physical_data": {"Molecular Weight": "117.58", "Molecular Formula": "C5H8ClN", "Boiling Point": "101-102 \u00b0C @ Press: 16-17 Torr", "Density": "1.061 g/cm\u00b3 @ Temp: 25 \u00b0C"}}