{"cas_no": "6280-89-3", "cn_name": "2-\u6c2f-5-\u7532\u6c27\u57fa\u82ef\u7532 \u9178", "en_name": ["2-Chloro-5-methoxybenzoic acid", "Benzoic acid, 2-chloro-5-methoxy-", "m-Anisic acid, 6-chloro-", "2-Chloro-5-methoxybenzoic acid", "6-Chloro-m-anisic acid", "NSC 6159"], "SMILES": "C(O)(=O)C1=CC(OC)=CC=C1Cl", "physical_data": {"Molecular Weight": "186.59", "Molecular Formula": "C8H7ClO3", "Melting Point": "172.5-173 \u00b0C"}}