{"cas_no": "6280-80-4", "cn_name": "2-\u7532\u9170\u82ef\u6c27\u4e59\u9178", "en_name": ["(2-Formylphenoxy)acetic acid", "Acetic acid, 2-(2-formylphenoxy)-", "Acetic acid, (2-formylphenoxy)-", "Acetic acid, (o-formylphenoxy)-", "2-(2-Formylphenoxy)acetic acid", "o-Formylphenoxyacetic acid", "2-Carboxymethoxybenzaldehyde", "(2-Formylphenoxy)acetic acid", "NSC 133590", "NSC 6140"], "SMILES": "O(CC(O)=O)C1=C(C=O)C=CC=C1", "physical_data": {"Molecular Weight": "180.16", "Molecular Formula": "C9H8O4", "Melting Point": "133-135 \u00b0C"}}