{"cas_no": "6280-15-5", "cn_name": "3-\u7532\u57fa\u620a\u4e8c\u919b", "en_name": ["3-Methylpentanedial", "Pentanedial, 3-methyl-", "Glutaraldehyde, 3-methyl-", "3-Methylpentanedial", "3-Methylglutaraldehyde", "NSC 11063"], "SMILES": "C(CC=O)(CC=O)C", "physical_data": {"Molecular Weight": "114.14", "Molecular Formula": "C6H10O2", "Boiling Point": "87-92 \u00b0C @ Press: 18 Torr"}}