{"cas_no": "6280-96-2", "cn_name": "2-\u7f9f\u57fa\u82ef\u4e19\u919a", "en_name": ["2-Propoxyphenol", "Phenol, 2-propoxy-", "Phenol, o-propoxy-", "2-Propoxyphenol", "o-Propoxyphenol", "Catechol monopropyl ether", "o-(n-Propyloxy)phenol", "NSC 6186", "1-Hydroxy-2-propoxybenzene"], "SMILES": "O(CCC)C1=C(O)C=CC=C1", "physical_data": {"Molecular Weight": "152.19", "Molecular Formula": "C9H12O2", "Boiling Point": "227 \u00b0C", "Density": "1.0523 g/cm\u00b3 @ Temp: 25 \u00b0C"}}