{"cas_no": "6281-32-9", "cn_name": "4-\u55b9\u5549\u7532\u9187", "en_name": ["4-Quinolinemethanol", "4-Quinolinemethanol", "4-(Hydroxymethyl)quinoline", "AV 78164", "NSC 6507", "(Quinolin-4-yl)methanol"], "SMILES": "C(O)C=1C2=C(N=CC1)C=CC=C2", "physical_data": {"Molecular Weight": "159.18", "Molecular Formula": "C10H9NO", "Boiling Point": "145 \u00b0C @ Press: 0.2 Torr", "Melting Point": "96-97 \u00b0C"}}