{"cas_no": "6281-23-8", "cn_name": "5-\u785d\u57fa\u544b\u5583-2-\u4e19\u70ef\u9178", "en_name": ["3-(5-Nitro-2-furyl)acrylic acid", "2-Propenoic acid, 3-(5-nitro-2-furanyl)-", "2-Furanacrylic acid, 5-nitro-", "3-(5-Nitro-2-furanyl)-2-propenoic acid", "5-Nitro-2-furanacrylic acid", "5-Nitrofurylacrylic acid", "5-Nitro-2-furylacrylic acid", "3-(5-Nitro-2-furyl)acrylic acid", "3-(5-Nitro-2-furanyl)acrylic acid", "\u03b2-(5-Nitro-2-furyl)acrylic acid", "NSC 6460", "3-(5-Nitrofuran-2-yl)-2-propenoic acid"], "SMILES": "C(=CC(O)=O)C=1OC(N(=O)=O)=CC1", "physical_data": {"Molecular Weight": "183.12", "Molecular Formula": "C7H5NO5", "Melting Point": "235-236 \u00b0C"}}