{"cas_no": "6281-42-1", "cn_name": "1-(2-\u6c28\u57fa\u4e59\u57fa)-2-\u54aa\u5511\u5549\u916e", "en_name": ["1-(2-Aminoethyl)-2-imidazolidinone", "2-Imidazolidinone, 1-(2-aminoethyl)-", "1-(2-Aminoethyl)-2-imidazolidinone", "1-(\u03b2-Aminoethyl)-2-imidazolidone", "1-(2-Aminoethyl)-2-imidazolidone", "1-(2-Aminoethyl)imidazolidinone", "N-(2-Aminoethyl)ethyleneurea", "N-(\u03b2-Aminoethyl)-N,N\u2032-ethyleneurea", "N-(2-Aminoethyl)imidazolidinone", "2-(2-Oxoimidazolidin-1-yl)ethylamine", "3-(2-Aminoethyl)-2-imidazolidinone", "[2-(2-Oxoimidazolidino)ethyl]amine", "NSC 5776", "3-(2-Aminoethyl)-2-imidazolidone", "N-(2-Aminoethyl)imidazolidin-2-one", "N-(2-Aminoethyl)imidazolidone", "Reverlink U", "1-(2-Aminoethyl)imidazolidone"], "SMILES": "C(CN)N1C(=O)NCC1", "physical_data": {"Molecular Weight": "129.16", "Molecular Formula": "C5H11N3O", "Boiling Point": "155-163 \u00b0C @ Press: 1 Torr"}}