{"cas_no": "6282-00-4", "cn_name": "N,N-\u4e8c\u6b63\u4e19\u57fa\u7532\u9170\u80fa", "en_name": ["N,N-Dipropylformamide", "Formamide, N,N-dipropyl-", "N,N-Dipropylformamide", "N-N-Di-n-propylformamide", "NSC 5944"], "SMILES": "N(CCC)(CCC)C=O", "physical_data": {"Molecular Weight": "129.20", "Molecular Formula": "C7H15NO", "Boiling Point": "208 \u00b0C", "Density": "0.889 g/cm\u00b3 @ Temp: 20 \u00b0C"}}