{"cas_no": "6282-02-6", "cn_name": "N-\u7f9f\u7532\u57fa\u82ef\u7532\u9170\u80fa", "en_name": ["N-(Hydroxymethyl)benzamide", "Benzamide, N-(hydroxymethyl)-", "N-(Hydroxymethyl)benzamide", "N-Methylolbenzamide", "N-Monomethylolbenzamide", "Monomethylolbenzamide", "Benzamidomethanol", "NSC 5946"], "SMILES": "C(NCO)(=O)C1=CC=CC=C1", "physical_data": {"Molecular Weight": "151.16", "Molecular Formula": "C8H9NO2", "Melting Point": "104-106 \u00b0C"}}