{"cas_no": "62821-89-0", "cn_name": "3-(3,5-\u4e8c\u7532\u57fa\u5421\u5511-1-\u57fa)\u4e19\u80fa", "en_name": ["3,5-Dimethyl-1H-pyrazole-1-propanamine", "1H-Pyrazole-1-propanamine, 3,5-dimethyl-", "Pyrazole, 1-(3-aminopropyl)-3,5-dimethyl-", "3,5-Dimethyl-1H-pyrazole-1-propanamine", "1-(3-Aminopropyl)-3,5-dimethylpyrazole", "3-(3,5-Dimethyl-1H-pyrazol-1-yl)propylamine"], "SMILES": "C(CCN)N1N=C(C)C=C1C", "physical_data": {"Molecular Weight": "153.22", "Molecular Formula": "C8H15N3", "Boiling Point": "130-131 \u00b0C @ Press: 15 Torr", "Density": "0.9991 g/cm\u00b3 @ Temp: 20 \u00b0C"}}