{"cas_no": "6283-74-5", "cn_name": "\u4e8c-O-\u4e59\u9170\u57fa-L-\u9152\u77f3\u9178\u9150", "en_name": ["(+)-Diacetyl-L-tartaric anhydride", "2,5-Furandione, 3,4-bis(acetyloxy)dihydro-, (3R,4R)-", "Tartaric anhydride, diacetate", "2,5-Furandione, 3,4-bis(acetyloxy)dihydro-, (3R-trans)-", "(3R,4R)-3,4-Bis(acetyloxy)dihydro-2,5-furandione", "Diacetyl-L-tartaric anhydride", "(+)-Diacetyl-L-tartaric anhydride", "L-Diacetyltartaric anhydride", "Diacetyltartaric anhydride", "Diacetyltartaric acid anhydride", "(R,R)-O,O-Diacetyltartaric acid anhydride", "O,O\u2032-Diacetyl-L-tartaric anhydride", "(R,R)-2,3-Diacetoxy-1,4-butanedioic anhydride", "(R,R)-O,O-Diacetyltartaric anhydride", "NSC 7712", "(2R,3R)-Di-O-acetyltartaric acid anhydride"], "SMILES": "O(C(C)=O)C1C(OC(C)=O)C(=O)OC1=O", "physical_data": {"Molecular Weight": "216.14", "Molecular Formula": "C8H8O7", "Melting Point": "134 \u00b0C"}}