{"cas_no": "6283-63-2", "cn_name": "\u5bf9\u6c28\u57fa\u4e8c\u4e59\u57fa\u82ef\u80fa\u786b\u9178\u76d0", "en_name": ["Diethyl-p-phenylenediamine sulfate", "1,4-Benzenediamine, N1,N1-diethyl-, sulfate (1:1)", "p-Phenylenediamine, N,N-diethyl-, sulfate (1:1)", "1,4-Benzenediamine, N,N-diethyl-, sulfate (1:1)", "N,N-Diethyl-p-phenylenediamine sulfate", "Diethyl-p-phenylenediamine sulfate", "N,N-Diethyl-1,4-phenylenediamine sulfate", "NSC 7653", "N,N-Diethylbenzene-1,4-diamine sulfate", "N,N\u2032-Diethyl-1,4-phenylenediammonium sulfate"], "SMILES": "N(CC)(CC)C1=CC=C(N)C=C1.S(=O)(=O)(O)O", "physical_data": {"Molecular Weight": "", "Molecular Formula": "C10H16N2.H2O4S", "Melting Point": "182-184 \u00b0C"}}