{"cas_no": "6283-24-5", "cn_name": "\u5bf9\u6c28\u57fa\u82ef\u6c5e\u4e59\u9178\u76d0", "en_name": ["p-Aminophenylmercuric acetate", "Mercury, (acetato-\u03baO)(4-aminophenyl)-", "Mercury, (acetato)(p-aminophenyl)-", "Mercury, (acetato-O)(4-aminophenyl)-", "Aniline, p-(acetoxymercuri)-", "(Acetato-\u03baO)(4-aminophenyl)mercury", "p-(Acetoxymercuri)aniline", "p-Aminophenylmercury acetate", "p-Aminophenylmercuric acetate", "p-Aminophenylmercuriacetate", "(4-Aminophenyl)mercuric acetate", "NSC 7927"], "SMILES": "[Hg](OC(C)=O)C1=CC=C(N)C=C1", "physical_data": {"Molecular Weight": "", "Molecular Formula": "C8H9HgNO2", "Melting Point": "168-169 \u00b0C"}}