{"cas_no": "6283-25-6", "cn_name": "2-\u6c2f-5-\u785d\u57fa\u82ef\u80fa", "en_name": ["2-Chloro-5-nitroaniline", "Benzenamine, 2-chloro-5-nitro-", "Aniline, 2-chloro-5-nitro-", "2-Chloro-5-nitrobenzenamine", "2-Chloro-5-nitroaniline", "6-Chloro-3-nitroaniline", "5-Nitro-2-chloroaniline", "NSC 7791", "2-Chloro-5-nitrophenylamine", "1-Amino-2-chloro-5-nitrobenzene"], "SMILES": "N(=O)(=O)C1=CC(N)=C(Cl)C=C1", "physical_data": {"Molecular Weight": "172.57", "Molecular Formula": "C6H5ClN2O2", "Melting Point": "121 \u00b0C"}}