{"cas_no": "6284-83-9", "cn_name": "1\uff0c2\uff0c4-\u4e09\u6c2f-3\uff0c5-\u4e8c\u785d\u57fa\u82ef", "en_name": ["1,3,5-Trichloro-2,4-dinitrobenzene", "Benzene, 1,3,5-trichloro-2,4-dinitro-", "1,3,5-Trichloro-2,4-dinitrobenzene", "1,3-Dinitro-2,4,6-trichlorobenzene", "2,4,6-Trichloro-1,3-dinitrobenzene", "2,4-Dinitro-1,3,5-trichlorobenzene", "NSC 5279"], "SMILES": "ClC1=C(N(=O)=O)C(Cl)=CC(Cl)=C1N(=O)=O", "physical_data": {"Molecular Weight": "271.44", "Molecular Formula": "C6HCl3N2O4", "Melting Point": "129.5 \u00b0C"}}