{"cas_no": "6284-79-3", "cn_name": "3,4-\u4e8c\u6c2f\u4e8c\u82ef\u7532\u916e", "en_name": ["3,4-Dichlorobenzophenone", "Methanone, (3,4-dichlorophenyl)phenyl-", "Benzophenone, 3,4-dichloro-", "(3,4-Dichlorophenyl)phenylmethanone", "3,4-Dichlorobenzophenone", "3,4-Dichlorophenyl phenyl ketone", "Phenyl 3,4-dichlorophenyl ketone", "NSC 5249", "(3,4-Dichlorophenyl)(phenyl)methanone"], "SMILES": "C(=O)(C1=CC(Cl)=C(Cl)C=C1)C2=CC=CC=C2", "physical_data": {"Molecular Weight": "251.11", "Molecular Formula": "C13H8Cl2O", "Melting Point": "102-103 \u00b0C"}}