{"cas_no": "6284-40-8", "cn_name": "\u8461\u7532\u80fa", "en_name": ["N-Methyl-D-glucamine", "D-Glucitol, 1-deoxy-1-(methylamino)-", "Glucitol, 1-deoxy-1-(methylamino)-, D-", "Sorbitol, 1-deoxy-1-methylamino-", "1-Deoxy-1-(methylamino)-D-glucitol", "N-Methyl-D-glucamine", "Meglumine", "N-Methylglucamine", "Methylglucamine", "1-Deoxy-1-methylaminosorbitol", "Meglumin", "Methylglucamin", "D-(-)-N-Methylglucamine", "N-Methyl-D(-)-glucamine", "N-Methylsorbitylamine", "NSC 52907", "NSC 7391", "(2R,3R,4R,5S)-6-Methylaminohexane-1,2,3,4,5-pentaol", "N,N-Methyl-2,7-octadienylglucamine", "Emprove"], "SMILES": "C(C(C(CO)O)O)(C(CNC)O)O", "physical_data": {"Molecular Weight": "195.21", "Molecular Formula": "C7H17NO5", "Melting Point": "128.5 \u00b0C"}}