{"cas_no": "6284-80-6", "cn_name": "9-\u82b4\u4e59\u9178", "en_name": ["Fluorene-9-acetic acid", "9H-Fluorene-9-acetic acid", "Fluorene-9-acetic acid", "9-Fluorenylacetic acid", "NSC 5255", "(9H-Fluoren-9-yl)acetic acid", "2-(9H-Fluoren-9-yl)acetic acid"], "SMILES": "C(C(O)=O)C1C=2C(C=3C1=CC=CC3)=CC=CC2", "physical_data": {"Molecular Weight": "224.25", "Molecular Formula": "C15H12O2", "Melting Point": "138-139 \u00b0C"}}