{"cas_no": "6285-06-9", "cn_name": "3-\u4e59\u57fa-1-\u620a\u7094-3-\u9187", "en_name": ["3-Ethyl-1-pentyn-3-ol", "1-Pentyn-3-ol, 3-ethyl-", "3-Ethyl-1-pentyn-3-ol", "3-Pentanol, 3-ethynyl-", "Diethylethynylcarbinol", "3-Ethyl-1-pentyne-3-ol", "NSC 5588"], "SMILES": "C(CC)(CC)(C#C)O", "physical_data": {"Molecular Weight": "112.17", "Molecular Formula": "C7H12O", "Boiling Point": "138 \u00b0C", "Density": "0.8691 g/cm\u00b3 @ Temp: 20 \u00b0C"}}