{"cas_no": "6285-05-8", "cn_name": "4-\u6c2f\u82ef\u4e19\u916e", "en_name": ["1-(4-Chlorophenyl)-1-propanone", "1-Propanone, 1-(4-chlorophenyl)-", "Propiophenone, 4\u2032-chloro-", "1-(4-Chlorophenyl)-1-propanone", "Ethyl p-chlorophenyl ketone", "p-Chloropropiophenone", "4\u2032-Chloropropiophenone", "4-Chloropropiophenone", "NSC 5600"], "SMILES": "C(CC)(=O)C1=CC=C(Cl)C=C1", "physical_data": {"Molecular Weight": "168.62", "Molecular Formula": "C9H9ClO", "Boiling Point": "134-137 \u00b0C", "Melting Point": "37.3 \u00b0C"}}