{"cas_no": "6285-57-0", "cn_name": "2-\u6c28\u57fa-6-\u785d\u57fa\u82ef\u5e76\u567b\u5511", "en_name": ["2-Amino-6-nitrobenzothiazole", "2-Benzothiazolamine, 6-nitro-", "Benzothiazole, 2-amino-6-nitro-", "6-Nitro-2-benzothiazolamine", "2-Amino-6-nitrobenzothiazole", "6-Nitro-2-aminobenzothiazole", "6-Nitro-2-benzothiazolylamine", "6-Nitro-1,3-benzothiazol-2-ylamine", "NSC 10794", "NSC 62341", "NSC 62980", "2-Amino-6-nitro-1,3-benzothiazole", "SKA 4", "6-Nitrobenzothiazol-2-amine", "6-Nitrobenzo[d]thiazol-2-amine", "6-Nitrobenzothiazole-2-ylamine"], "SMILES": "N(=O)(=O)C=1C=C2C(=CC1)N=C(N)S2", "physical_data": {"Molecular Weight": "195.20", "Molecular Formula": "C7H5N3O2S", "Melting Point": "249 \u00b0C"}}