{"cas_no": "62850-32-2", "cn_name": "\u7cbe\u6076\u5511\u79be\u8349\u7075", "en_name": ["Fenothiocarb", "Carbamothioic acid, N,N-dimethyl-, S-(4-phenoxybutyl) ester", "Carbamothioic acid, dimethyl-, S-(4-phenoxybutyl) ester", "Phenothiocarb", "Panocon", "Fenothiocarb"], "SMILES": "O(CCCCSC(N(C)C)=O)C1=CC=CC=C1", "physical_data": {"Molecular Weight": "253.36", "Molecular Formula": "C13H19NO2S", "Boiling Point": "155 \u00b0C", "Melting Point": "40.5 \u00b0C"}}