{"cas_no": "6286-30-2", "cn_name": "2,3-\u4e8c\u6eb4-3-\u82ef\u57fa\u4e19\u9178", "en_name": ["2,3-Dibromo-3-phenylpropanoic acid", "Benzenepropanoic acid, \u03b1,\u03b2-dibromo-", "Hydrocinnamic acid, \u03b1,\u03b2-dibromo-", "\u03b1,\u03b2-Dibromobenzenepropanoic acid", "\u03b1,\u03b2-Dibromohydrocinnamic acid", "2,3-Dibromo-3-phenylpropanoic acid", "\u03b1,\u03b2-Dibromo-\u03b2-phenylpropionic acid", "NSC 10049", "2,3-Dibromo-3-phenyl-propionic acid", "2,3-Dibromo-3-phenylpropionic acid"], "SMILES": "C(C(C(O)=O)Br)(Br)C1=CC=CC=C1", "physical_data": {"Molecular Weight": "307.97", "Molecular Formula": "C9H8Br2O2", "Melting Point": "204 \u00b0C"}}