{"cas_no": "62865-36-5", "cn_name": "\u54d2\u83cc\u6e05", "en_name": ["Diclomezine", "3(2H)-Pyridazinone, 6-(3,5-dichloro-4-methylphenyl)-", "6-(3,5-Dichloro-4-methylphenyl)-3(2H)-pyridazinone", "Diclomezine", "Monguard"], "SMILES": "ClC=1C=C(C=C(Cl)C1C)C=2C=CC(=O)NN2", "physical_data": {"Molecular Weight": "255.10", "Molecular Formula": "C11H8Cl2N2O", "Melting Point": "251.5 \u00b0C"}}