{"cas_no": "6287-38-3", "cn_name": "3,4-\u4e8c\u6c2f\u82ef\u7532\u919b", "en_name": ["3,4-Dichlorobenzaldehyde", "Benzaldehyde, 3,4-dichloro-", "3,4-Dichlorobenzaldehyde", "3,4-Dichlorobenzenecarboxaldehyde", "m,p-Dichlorobenzaldehyde", "NSC 8763", "3,4-Dichlorobenzaldehlyde"], "SMILES": "C(=O)C1=CC(Cl)=C(Cl)C=C1", "physical_data": {"Molecular Weight": "175.01", "Molecular Formula": "C7H4Cl2O", "Boiling Point": "247.5 \u00b0C", "Melting Point": "44 \u00b0C"}}