{"cas_no": "6287-40-7", "cn_name": "\u4e8c\u6b63\u4e01\u80fa\u76d0\u9178\u76d0", "en_name": ["1-Butanamine, N-butyl-, hydrochloride (1:1)", "1-Butanamine, N-butyl-, hydrochloride (1:1)", "Dibutylamine, hydrochloride", "1-Butanamine, N-butyl-, hydrochloride", "Dibutylammonium chloride", "Di-n-butylammonium chloride", "Dibutylamine monohydrochloride", "N-Butyl-1-butanamine hydrochloride"], "SMILES": "N(CCCC)CCCC.Cl", "physical_data": {"Molecular Weight": "", "Molecular Formula": "C8H19N.ClH", "Melting Point": "283 \u00b0C"}}