{"cas_no": "6287-86-1", "cn_name": "4-\u919b\u57fa\u82ef\u7532\u9178\u4e59\u916f", "en_name": ["Benzoic acid, 4-formyl-, ethyl ester", "Benzoic acid, 4-formyl-, ethyl ester", "Terephthalaldehydic acid, ethyl ester", "p-Carbethoxybenzaldehyde", "Ethyl p-formylbenzoate", "Ethyl 4-formylbenzoate", "4-(Ethoxycarbonyl)benzaldehyde", "4-Carbethoxybenzaldehyde", "4-Carboxybenzaldehyde ethyl ester", "p-(Ethoxycarbonyl)benzaldehyde", "NSC 12007", "4-Formylbenzoic acid ethyl ester", "Terephthaldehydic acid ethyl ester"], "SMILES": "C(OCC)(=O)C1=CC=C(C=O)C=C1", "physical_data": {"Molecular Weight": "178.18", "Molecular Formula": "C10H10O3", "Boiling Point": "142 \u00b0C @ Press: 13 Torr", "Melting Point": "138-140 \u00b0C"}}