{"cas_no": "6287-35-0", "cn_name": "3-(\u82ef\u57fa\u6c28\u57fa)-2-\u4e01\u70ef\u9178\u4e59\u916f", "en_name": ["Ethyl 3-(phenylamino)-2-butenoate", "2-Butenoic acid, 3-(phenylamino)-, ethyl ester", "Crotonic acid, 3-anilino-, ethyl ester", "Ethyl 3-(phenylamino)-2-butenoate", "Ethyl 3-(phenylamino)crotonate", "Ethyl 3-anilinocrotonate", "Ethyl \u03b2-anilinocrotonate", "Ethyl 3-anilino-2-butenoate", "NSC 8741"], "SMILES": "N(C(=CC(OCC)=O)C)C1=CC=CC=C1", "physical_data": {"Molecular Weight": "205.25", "Molecular Formula": "C12H15NO2", "Boiling Point": "142-145 \u00b0C @ Press: 5 Torr", "Melting Point": "140-143 \u00b0C"}}