{"cas_no": "6287-20-3", "cn_name": "2,3-DIHYDROXYQUINOXALINE", "en_name": ["2,3-Dihydroxyquinoxaline", "2,3-Quinoxalinedione, 1,4-dihydro-", "1,4-Dihydro-2,3-quinoxalinedione", "2,3-Quinoxalinediol", "2,3-Dihydroxyquinoxaline", "2,3(1H,4H)-Quinoxalinedione", "1,2,3,4-Tetrahydro-2,3-dioxoquinoxaline", "NSC 8698", "NSC 9431", "3-Hydroxy-1,2-dihydroquinoxalin-2-one"], "SMILES": "O=C1NC=2C(NC1=O)=CC=CC2", "physical_data": {"Molecular Weight": "162.15", "Molecular Formula": "C8H6N2O2", "Melting Point": "&gt;300 \u00b0C"}}