{"cas_no": "62873-16-9", "cn_name": "\u0391-\u4e9a\u7532\u57fa-\u0393-\u620a\u5185\u916f(\u542b\u7a33\u5b9a\u5242\u6c22\u918c)", "en_name": ["\u03b3-Methyl-\u03b1-methylene-\u03b3-butyrolactone", "2(3H)-Furanone, dihydro-5-methyl-3-methylene-", "Valeric acid, 4-hydroxy-2-methylene-, \u03b3-lactone", "Dihydro-5-methyl-3-methylene-2(3H)-furanone", "NSC 272654", "\u03b3-Methyl-\u03b1-methylene-\u03b3-butyrolactone", "\u03b1-Methylene-\u03b3-valerolactone", "5-Methyl-3-methylidenedihydrofuran-2(3H)-one", "\u03b1-Methylene-\u03b3-methyl-\u03b3-butyrolactone"], "SMILES": "C=C1C(=O)OC(C)C1", "physical_data": {"Molecular Weight": "112.13", "Molecular Formula": "C6H8O2", "Boiling Point": "33 \u00b0C @ Press: 0.02 Torr"}}