{"cas_no": "62882-00-2", "cn_name": "8-\u7532\u57fa\u5f02\u55b9\u5549", "en_name": ["8-Methylisoquinoline", "Isoquinoline, 8-methyl-", "8-Methylisoquinoline"], "SMILES": "CC=1C2=C(C=CC1)C=CN=C2", "physical_data": {"Molecular Weight": "143.19", "Molecular Formula": "C10H9N", "Melting Point": "87-88 \u00b0C"}}