{"cas_no": "6289-46-9", "cn_name": "2,5-\u4e8c\u7532\u6c27\u9170\u57fa-1,4-\u73af\u5df1\u4e8c\u916e", "en_name": ["Dimethyl succinylsuccinate", "1,4-Cyclohexanedicarboxylic acid, 2,5-dioxo-, 1,4-dimethyl ester", "1,4-Cyclohexanedicarboxylic acid, 2,5-dioxo-, dimethyl ester", "Succinosuccinic acid dimethyl ester", "Dimethyl succinosuccinate", "Dimethyl succinylsuccinate", "Dimethyl 2,5-dioxocyclohexane-1,4-dicarboxylate", "NSC 122567", "NSC 5670", "Dimethyl cyclohexane-2,5-dione-1,4-dicarboxylate", "Dimethyl 1,4-cyclohexanedione-2,5-dicarboxylate", "Dimethyl 2,5-dioxocyclohexane-1,4-carboxylate", "1,4-Dimethyl 2,5-dioxocyclohexane-1,4-dicarboxylate"], "SMILES": "C(OC)(=O)C1C(=O)CC(C(OC)=O)C(=O)C1", "physical_data": {"Molecular Weight": "228.20", "Molecular Formula": "C10H12O6", "Melting Point": "153 \u00b0C"}}