{"cas_no": "62893-19-0", "cn_name": "\u5934\u5b62\u54cc\u916e", "en_name": ["Cefoperazone", "5-Thia-1-azabicyclo[4.2.0]oct-2-ene-2-carboxylic acid, 7-[[(2R)-2-[[(4-ethyl-2,3-dioxo-1-piperazinyl)carbonyl]amino]-2-(4-hydroxyphenyl)acetyl]amino]-3-[[(1-methyl-1H-tetrazol-5-yl)thio]methyl]-8-oxo-, (6R,7R)-", "5-Thia-1-azabicyclo[4.2.0]oct-2-ene-2-carboxylic acid, 7-[[[[(4-ethyl-2,3-dioxo-1-piperazinyl)carbonyl]amino](4-hydroxyphenyl)acetyl]amino]-3-[[(1-methyl-1H-tetrazol-5-yl)thio]methyl]-8-oxo-, [6R-[6\u03b1,7\u03b2(R*)]]-", "5-Thia-1-azabicyclo[4.2.0]oct-2-ene-2-carboxylic acid, 7-[[(2R)-[[(4-ethyl-2,3-dioxo-1-piperazinyl)carbonyl]amino](4-hydroxyphenyl)acetyl]amino]-3-[[(1-methyl-1H-tetrazol-5-yl)thio]methyl]-8-oxo-, (6R,7R)-", "(6R,7R)-7-[[(2R)-2-[[(4-Ethyl-2,3-dioxo-1-piperazinyl)carbonyl]amino]-2-(4-hydroxyphenyl)acetyl]amino]-3-[[(1-methyl-1H-tetrazol-5-yl)thio]methyl]-8-oxo-5-thia-1-azabicyclo[4.2.0]oct-2-ene-2-carboxylic acid", "Cefoperazone", "Cefoperazine", "Cefobid", "Cefob", "Cephaperazon", "Medocef", "Cefozon", "Biocefazon", "MeSH ID: D002438"], "SMILES": "C(O)(=O)C=1N2C(C(NC(C(NC(=O)N3C(=O)C(=O)N(CC)CC3)C4=CC=C(O)C=C4)=O)C2=O)SCC1CSC=5N(C)N=NN5", "physical_data": {"Molecular Weight": "645.67", "Molecular Formula": "C25H27N9O8S2", "Melting Point": "167-171 \u00b0C"}}