{"cas_no": "629-50-5", "cn_name": "\u5341\u4e09\u70f7", "en_name": ["Tridecane", "Tridecane", "n-Tridecane", "N 13 (paraffin)", "N 13", "NSC 66205", "Paraffin N 13", "Cactus Normal Paraffin N 13", "Cetiol iSAN"], "SMILES": "C(CCCCCC)CCCCCC", "physical_data": {"Molecular Weight": "184.36", "Molecular Formula": "C13H28", "Boiling Point": "235.4 \u00b0C @ Press: 760 Torr", "Melting Point": "-5.3 \u00b0C", "Density": "0.7564 g/cm\u00b3 @ Temp: 20 \u00b0C"}}