{"cas_no": "629-74-3", "cn_name": "1-\u5341\u516d\u7094", "en_name": ["1-Hexadecyne", "1-Hexadecyne"], "SMILES": "C(CCCCCCC#C)CCCCCCC", "physical_data": {"Molecular Weight": "222.41", "Molecular Formula": "C16H30", "Boiling Point": "284 \u00b0C", "Melting Point": "15 \u00b0C"}}