{"cas_no": "629-01-6", "cn_name": "\u8f9b\u91af\u80fa", "en_name": ["Octanamide", "Octanamide", "Caprylamide", "Caprylic acid amide", "NSC 5515"], "SMILES": "C(CCCCC)CC(N)=O", "physical_data": {"Molecular Weight": "143.23", "Molecular Formula": "C8H17NO", "Boiling Point": "239 \u00b0C", "Melting Point": "108 \u00b0C"}}