{"cas_no": "629-62-9", "cn_name": "\u6b63\u5341\u4e94\u70f7", "en_name": ["Pentadecane", "Pentadecane", "n-Pentadecane", "NSC 172781"], "SMILES": "C(CCCCCCC)CCCCCCC", "physical_data": {"Molecular Weight": "212.41", "Molecular Formula": "C15H32", "Boiling Point": "270.6 \u00b0C @ Press: 760 Torr", "Melting Point": "9.9 \u00b0C", "Density": "0.7687 g/cm\u00b3 @ Temp: 20 \u00b0C"}}