{"cas_no": "629-82-3", "cn_name": "\u4e8c\u8f9b\u57fa\u919a", "en_name": ["Octyl ether", "Octane, 1,1\u2032-oxybis-", "Octyl ether", "1,1\u2032-Oxybis[octane]", "Antar", "Caprylic ether", "Dioctyl ether", "n-Octyl ether", "Di-n-octyl ether", "Bis(1-octyl) ether", "Cetiol OE", "Dicaprylyl ether", "NSC 28948", "Cosmacol OE", "1-Octoxyoctane", "Jarether D 8"], "SMILES": "O(CCCCCCCC)CCCCCCCC", "physical_data": {"Molecular Weight": "242.44", "Molecular Formula": "C16H34O", "Boiling Point": "283 \u00b0C", "Melting Point": "-7.6 \u00b0C", "Density": "0.807 g/cm\u00b3 @ Temp: 15 \u00b0C"}}