{"cas_no": "629-72-1", "cn_name": "\u6eb4\u4ee3\u5341\u4e94\u70f7", "en_name": ["1-Bromopentadecane", "Pentadecane, 1-bromo-", "1-Bromopentadecane", "Pentadecyl bromide", "n-Pentadecyl bromide", "NSC 133440"], "SMILES": "C(CCCCCCCC)CCCCCCBr", "physical_data": {"Molecular Weight": "291.31", "Molecular Formula": "C15H31Br", "Boiling Point": "322 \u00b0C", "Melting Point": "19 \u00b0C"}}