{"cas_no": "629-41-4", "cn_name": "1,8-\u8f9b\u4e8c\u9187", "en_name": ["1,8-Octanediol", "1,8-Octanediol", "1,8-Dihydroxyoctane", "\u03b1,\u03c9-Octanediol", "\u03c9-Octanediol", "1,8-Octamethylene glycol", "NSC 81228", "1,8-Octyleneglycol", "Octamethylene glycol", "Octane-1,8-diol"], "SMILES": "C(CCCCO)CCCO", "physical_data": {"Molecular Weight": "146.23", "Molecular Formula": "C8H18O2", "Boiling Point": "140-150 \u00b0C @ Press: 13 Torr", "Melting Point": "63 \u00b0C"}}