{"cas_no": "629-63-0", "cn_name": "\u5341\u56db\u70f7\u8148", "en_name": ["Tetradecanenitrile", "Tetradecanenitrile", "Myristonitrile", "Tetradecanonitrile", "n-Tetradecanonitrile", "NSC 910", "Tridecyl cyanide", "Myristyl nitrile"], "SMILES": "C(CCCCCCC)CCCCCC#N", "physical_data": {"Molecular Weight": "209.37", "Molecular Formula": "C14H27N", "Melting Point": "19 \u00b0C"}}