{"cas_no": "629-73-2", "cn_name": "1-\u5341\u516d\u70ef", "en_name": ["1-Hexadecene", "1-Hexadecene", "1-Cetene", "Cetene", "n-Hexadec-1-ene", "\u03b1-Hexadecene", "Dialen 16", "1-n-Hexadecene", "Neodene 16", "NeoSolv 6", "NSC 60602", "Linealene 16", "LAO-C 16"], "SMILES": "C(CCCCCCC=C)CCCCCCC", "physical_data": {"Molecular Weight": "224.43", "Molecular Formula": "C16H32", "Boiling Point": "284.4 \u00b0C @ Press: 760 Torr", "Melting Point": "4.1 \u00b0C", "Density": "0.7811 g/cm\u00b3 @ Temp: 20 \u00b0C"}}