{"cas_no": "629-09-4", "cn_name": "1\uff0c6-\u4e8c\u7898\u5df1\u70f7", "en_name": ["1,6-Diiodohexane", "Hexane, 1,6-diiodo-", "1,6-Diiodohexane", "Hexamethylene diiodide", "\u03b1,\u03c9-Diiodohexane", "1,6-Iodohexane"], "SMILES": "C(CCCI)CCI", "physical_data": {"Molecular Weight": "337.97", "Molecular Formula": "C6H12I2", "Boiling Point": "141-142 \u00b0C @ Press: 10 Torr", "Melting Point": "9.5 \u00b0C", "Density": "2.03 g/cm\u00b3 @ Temp: 20 \u00b0C"}}