{"cas_no": "629-25-4", "cn_name": "\u6708\u6842\u9178\u94a0", "en_name": ["Sodium laurate", "Dodecanoic acid, sodium salt (1:1)", "Lauric acid, sodium salt", "Dodecanoic acid, sodium salt", "Sodium dodecanoate", "Sodium laurate", "C 12-98/100MY, sodium salt", "Emal 10G-3", "NS 3A"], "SMILES": "C(CCCCCCCC)CCC(O)=O.[Na]", "physical_data": {"Molecular Weight": "", "Molecular Formula": "C12H24O2.Na", "Melting Point": "310 \u00b0C", "Density": "1.102 g/cm\u00b3"}}