{"cas_no": "629-15-2", "cn_name": "\u4e59\u4e8c\u9187\u4e8c\u7532\u9178\u916f", "en_name": ["Glycol diformate", "1,2-Ethanediol, 1,2-diformate", "Ethylene glycol, diformate", "1,2-Ethanediol, diformate", "Ethylene formate", "Glycol diformate", "Ethylene diformate", "NSC 8831", "1,2-Diformyloxyethane", "2-(Formyloxy)ethyl formate"], "SMILES": "C(COC=O)OC=O", "physical_data": {"Molecular Weight": "118.09", "Molecular Formula": "C4H6O4", "Boiling Point": "174 \u00b0C", "Density": "1.1503 g/cm\u00b3 @ Temp: 20 \u00b0C"}}