{"cas_no": "629-89-0", "cn_name": "1-\u5341\u516b\u7094", "en_name": ["1-Octadecyne", "1-Octadecyne"], "SMILES": "C(CCCCCCCC#C)CCCCCCCC", "physical_data": {"Molecular Weight": "250.46", "Molecular Formula": "C18H34", "Boiling Point": "313 \u00b0C", "Melting Point": "22.5 \u00b0C"}}