{"cas_no": "629-90-3", "cn_name": "\u5341\u4e03\u919b", "en_name": ["Heptadecanal", "Heptadecanal", "Margaric aldehyde", "n-Heptadecanal", "1-Heptadecanal"], "SMILES": "C(CCCCCCCC=O)CCCCCCCC", "physical_data": {"Molecular Weight": "254.45", "Molecular Formula": "C17H34O", "Boiling Point": "173-176 \u00b0C", "Melting Point": "36 \u00b0C"}}