{"cas_no": "629-93-6", "cn_name": "1-\u7898\u5341\u516b\u70f7", "en_name": ["1-Iodooctadecane", "Octadecane, 1-iodo-", "1-Iodooctadecane", "Octadecyl iodide", "Stearyl iodide", "n-Octadecyl iodide", "1-Octadecyl iodide", "NSC 5544"], "SMILES": "C(CCCCCCCCC)CCCCCCCCI", "physical_data": {"Molecular Weight": "380.39", "Molecular Formula": "C18H37I", "Boiling Point": "383 \u00b0C", "Melting Point": "34 \u00b0C"}}