{"cas_no": "629-66-3", "cn_name": "2-\u5341\u4e5d\u70f7\u916e", "en_name": ["2-Nonadecanone", "2-Nonadecanone", "Methyl heptadecyl ketone", "2-Oxononadecane", "Heptadecyl methyl ketone"], "SMILES": "C(CCCCCCCCCCC)CCCCCC(C)=O", "physical_data": {"Molecular Weight": "282.50", "Molecular Formula": "C19H38O", "Boiling Point": "162 \u00b0C @ Press: 1.5 Torr", "Melting Point": "57 \u00b0C"}}