{"cas_no": "629-94-7", "cn_name": "\u6b63\u4e8c\u5341\u4e00\u70f7", "en_name": ["Heneicosane", "Heneicosane", "n-Heneicosane"], "SMILES": "C(CCCCCCCCCC)CCCCCCCCCC", "physical_data": {"Molecular Weight": "296.57", "Molecular Formula": "C21H44", "Boiling Point": "356.5 \u00b0C", "Melting Point": "40.5 \u00b0C", "Density": "0.7477 g/cm\u00b3 @ Temp: 89 \u00b0C"}}