{"cas_no": "629-05-0", "cn_name": "1-\u8f9b\u7094", "en_name": ["1-Octyne", "1-Octyne", "1-Octine", "Hexylacetylene", "n-Hexylacetylene", "1-Ethynylhexane"], "SMILES": "C(CCC#C)CCC", "physical_data": {"Molecular Weight": "110.20", "Molecular Formula": "C8H14", "Boiling Point": "126.3 \u00b0C", "Melting Point": "-79.3 \u00b0C", "Density": "0.7680 g/cm\u00b3 @ Temp: 13 \u00b0C"}}