{"cas_no": "629-20-9", "cn_name": "\u73af\u8f9b\u56db\u70ef", "en_name": ["Cyclooctatetraene", "1,3,5,7-Cyclooctatetraene", "[8]Annulene", "Cyclooctatetraene", "NSC 5093"], "SMILES": "C=1C=CC=CC=CC1", "physical_data": {"Molecular Weight": "104.15", "Molecular Formula": "C8H8", "Boiling Point": "140.5 \u00b0C", "Melting Point": "-4.7 \u00b0C", "Density": "0.925 g/cm\u00b3 @ Temp: 20 \u00b0C"}}