{"cas_no": "629-80-1", "cn_name": "\u5341\u516d\u919b", "en_name": ["Hexadecanal", "Hexadecanal", "Palmitaldehyde", "n-Hexadecan-1-al", "1-Hexadecanal", "n-Hexadecanal", "Hexadecanaldehyde", "Hexadecylaldehyde", "Cetyl aldehyde"], "SMILES": "C(CCCCCCCC)CCCCCCC=O", "physical_data": {"Molecular Weight": "240.42", "Molecular Formula": "C16H32O", "Boiling Point": "120 \u00b0C @ Press: 2 Torr", "Melting Point": "35 \u00b0C"}}