{"cas_no": "629-33-4", "cn_name": "\u7532\u9178\u5df1\u916f", "en_name": ["Hexyl formate", "Formic acid, hexyl ester", "Hexyl alcohol, formate", "Hexyl formate", "n-Hexyl formate", "NSC 4780"], "SMILES": "C(CCCC)COC=O", "physical_data": {"Molecular Weight": "130.18", "Molecular Formula": "C7H14O2", "Boiling Point": "155.5 \u00b0C", "Melting Point": "-62.6 \u00b0C", "Density": "0.990 g/cm\u00b3 @ Temp: 20 \u00b0C"}}