{"cas_no": "629-40-3", "cn_name": "1,6-\u4e8c\u6c30\u57fa\u5df1\u70f7", "en_name": ["Octanedinitrile", "Octanedinitrile", "Suberonitrile", "1,6-Dicyanohexane", "Suberic acid dinitrile", "D 7800-8", "NSC 51242", "Hexamethylene dicyanide"], "SMILES": "C(CCCC#N)CCC#N", "physical_data": {"Molecular Weight": "136.19", "Molecular Formula": "C8H12N2", "Boiling Point": "185 \u00b0C", "Melting Point": "-3.5 \u00b0C", "Density": "0.940 g/cm\u00b3 @ Temp: 22 \u00b0C"}}