{"cas_no": "629-99-2", "cn_name": "\u4e8c\u5341\u4e94\u70f7", "en_name": ["Pentacosane", "Pentacosane", "n-Pentacosane", "NSC 158663"], "SMILES": "C(CCCCCCCCCCCC)CCCCCCCCCCCC", "physical_data": {"Molecular Weight": "352.68", "Molecular Formula": "C25H52", "Boiling Point": "401.9 \u00b0C", "Melting Point": "54 \u00b0C"}}