{"cas_no": "629-36-7", "cn_name": "1,7-\u4e8c\u6c2f-4-\u6c27\u6742\u5e9a\u70f7", "en_name": ["1,1\u2032-Oxybis[3-chloropropane]", "Propane, 1,1\u2032-oxybis[3-chloro-", "Ether, bis(3-chloropropyl)", "1,1\u2032-Oxybis[3-chloropropane]", "Bis(3-chloropropyl) ether", "1,7-Dichloro-4-oxaheptane", "NSC 6249", "1-Chloro-3-(3-chloropropoxy)propane"], "SMILES": "O(CCCCl)CCCCl", "physical_data": {"Molecular Weight": "171.06", "Molecular Formula": "C6H12Cl2O", "Boiling Point": "216 \u00b0C", "Melting Point": "&lt;-80 \u00b0C", "Density": "1.140 g/cm\u00b3 @ Temp: 20 \u00b0C"}}