{"cas_no": "629-27-6", "cn_name": "1-\u7898\u8f9b\u70f7", "en_name": ["1-Iodooctane", "Octane, 1-iodo-", "1-Iodooctane", "Octyl iodide", "1-n-Octyl iodide", "n-Octyl iodide", "1-Octyl iodide", "1-Iodo-n-octane"], "SMILES": "C(CCCC)CCCI", "physical_data": {"Molecular Weight": "240.12", "Molecular Formula": "C8H17I", "Boiling Point": "225.5 \u00b0C", "Melting Point": "-45.7 \u00b0C", "Density": "1.33568 g/cm\u00b3 @ Temp: 15 \u00b0C"}}