{"cas_no": "629-83-4", "cn_name": "\u4e09\u5341\u9178\u7532\u916fC30", "en_name": ["Methyl triacontanoate", "Triacontanoic acid, methyl ester", "Methyl melissate", "Methyl melissicate", "Methyl triacontanoate", "NSC 20743", "Methyl ester of n-triaconatanoic acid"], "SMILES": "C(CCCCCCCCCCCCCCCCCCCCCC)CCCCCCC(OC)=O", "physical_data": {"Molecular Weight": "466.82", "Molecular Formula": "C31H62O2", "Melting Point": "71.5 \u00b0C"}}