{"cas_no": "629-06-1", "cn_name": "1-\u6c2f\u5e9a\u70f7", "en_name": ["1-Chloroheptane", "Heptane, 1-chloro-", "1-Chloroheptane", "Heptyl chloride", "n-Heptyl chloride"], "SMILES": "C(CCCCl)CCC", "physical_data": {"Molecular Weight": "134.65", "Molecular Formula": "C7H15Cl", "Boiling Point": "159 \u00b0C", "Melting Point": "-69.5 \u00b0C", "Density": "0.8741 g/cm\u00b3 @ Temp: 20 \u00b0C"}}