{"cas_no": "629-11-8", "cn_name": "1,6-\u5df1\u4e8c\u9187", "en_name": ["1,6-Hexanediol", "1,6-Hexanediol", "Hexamethylene glycol", "Hexamethylenediol", "1,6-Dihydroxyhexane", "\u03b1,\u03c9-Hexanediol", "\u03c9-Hexanediol", "NSC 508", "1,6-Hexylene glycol", "Hexane-1,6-diol"], "SMILES": "C(CCCO)CCO", "physical_data": {"Molecular Weight": "118.17", "Molecular Formula": "C6H14O2", "Boiling Point": "208 \u00b0C @ Press: 760 Torr", "Melting Point": "42.8 \u00b0C", "Density": "0.967 g/cm\u00b3 @ Temp: 0 \u00b0C"}}