{"cas_no": "629-76-5", "cn_name": "1-\u5341\u4e94\u9187", "en_name": ["1-Pentadecanol", "1-Pentadecanol", "Pentadecanol", "Pentadecyl alcohol", "n-1-Pentadecanol", "n-Pentadecanol", "Alfol 15", "NSC 66446"], "SMILES": "C(CCCCCCCO)CCCCCCC", "physical_data": {"Molecular Weight": "228.41", "Molecular Formula": "C15H32O", "Boiling Point": "122-125 \u00b0C @ Press: 0.35 Torr", "Melting Point": "45-46 \u00b0C", "Density": "0.8364 g/cm\u00b3 @ Temp: 22.4 \u00b0C"}}