{"cas_no": "629-54-9", "cn_name": "\u5341\u516d\u78b3\u9170\u80fa", "en_name": ["Hexadecanamide", "Hexadecanamide", "Palmitamide", "Amide 16", "Amide HPL", "Cetyl amide", "Palmitic acid amide", "Palmitic amide", "n-Hexadecanamide", "Amide P", "Diamid KP", "Palmitoyl amide", "NSC 3327", "Diamid BP", "T 21", "T 21 (amide)", "DY 1698"], "SMILES": "C(CCCCCCCCCC)CCCCC(N)=O", "physical_data": {"Molecular Weight": "255.44", "Molecular Formula": "C16H33NO", "Melting Point": "107 \u00b0C"}}