{"cas_no": "629-30-1", "cn_name": "1,7-\u5e9a\u4e8c\u9187", "en_name": ["1,7-Heptanediol", "1,7-Heptanediol", "1,7-Dihydroxyheptane", "\u03b1,\u03c9-Heptanediol", "\u03c9-Heptanediol", "NSC 3821", "Heptmethylene glycol", "Heptamethylene glycol"], "SMILES": "C(CCCO)CCCO", "physical_data": {"Molecular Weight": "132.20", "Molecular Formula": "C7H16O2", "Boiling Point": "262 \u00b0C", "Melting Point": "22.5 \u00b0C", "Density": "0.9569 g/cm\u00b3 @ Temp: 25 \u00b0C"}}