{"cas_no": "629-04-9", "cn_name": "1-\u6eb4\u4ee3\u5e9a\u70f7", "en_name": ["1-Bromoheptane", "Heptane, 1-bromo-", "1-Bromoheptane", "Heptyl bromide", "n-Heptyl bromide", "1-Heptyl bromide", "NSC 7315"], "SMILES": "C(CCCC)CCBr", "physical_data": {"Molecular Weight": "179.10", "Molecular Formula": "C7H15Br", "Boiling Point": "179 \u00b0C", "Melting Point": "-58 \u00b0C", "Density": "1.1596 g/cm\u00b3 @ Temp: 0 \u00b0C"}}