{"cas_no": "629-38-9", "cn_name": "\u4e8c\u4e59\u4e8c\u9187\u5355\u7532\u57fa\u919a\u918b\u9178\u916f", "en_name": ["Diethylene glycol monomethyl ether acetate", "Ethanol, 2-(2-methoxyethoxy)-, 1-acetate", "Ethanol, 2-(2-methoxyethoxy)-, acetate", "Diethylene glycol monomethyl ether acetate", "Methyl carbitol acetate", "Diethylene glycol methyl ether acetate", "2-(2-Methoxyethoxy)ethyl acetate"], "SMILES": "C(OCCOC)COC(C)=O", "physical_data": {"Molecular Weight": "162.18", "Molecular Formula": "C7H14O4", "Boiling Point": "85-95 \u00b0C @ Press: 0.2 Torr"}}