{"cas_no": "629-97-0", "cn_name": "\u4e8c\u5341\u4e8c\u70f7", "en_name": ["Docosane", "Docosane", "n-Docosane", "NSC 77139", "Parafol 22-95"], "SMILES": "C(CCCCCCCCCCC)CCCCCCCCCC", "physical_data": {"Molecular Weight": "310.60", "Molecular Formula": "C22H46", "Boiling Point": "368.6 \u00b0C", "Melting Point": "44.4 \u00b0C"}}