{"cas_no": "629-45-8", "cn_name": "\u4e8c\u4e01\u57fa\u4e8c\u786b", "en_name": ["Butyl disulfide", "Disulfide, dibutyl", "Butyl disulfide", "Dibutyl disulfide", "Di-n-butyl disulfide", "5,6-Dithiadecane", "n-Butyl disulfide", "NSC 36626", "1,2-Dibutyldisulfane", "1-(Butyldisulfanyl)butane"], "SMILES": "S(SCCCC)CCCC", "physical_data": {"Molecular Weight": "178.36", "Molecular Formula": "C8H18S2", "Boiling Point": "110-130 \u00b0C @ Press: 15 Torr", "Melting Point": "94.04 \u00b0C", "Density": "0.930 g/cm\u00b3 @ Temp: 20 \u00b0C"}}