{"cas_no": "629-56-1", "cn_name": "\u5341\u516d\u78b3\u70ef\u9178", "en_name": ["2-Hexadecenoic acid", "2-Hexadecenoic acid", "Hypogaeic acid", "Gaidic acid"], "SMILES": "C(CCCCCCCCCC)CCC=CC(O)=O", "physical_data": {"Molecular Weight": "254.41", "Molecular Formula": "C16H30O2", "Melting Point": "49 \u00b0C"}}