{"cas_no": "629-98-1", "cn_name": "13-\u4e8c\u5341\u4e8c\u70ef\u9187", "en_name": ["Erucyl alcohol", "13-Docosen-1-ol, (13Z)-", "13-Docosen-1-ol, (Z)-", "(13Z)-13-Docosen-1-ol", "Erucyl alcohol", "cis-13-Docosenol", "Erucic alcohol", "13(Z)-Docosen-1-ol", "(Z)-13-Docosene-1-ol"], "SMILES": "C(CC=CCCCCCCCC)CCCCCCCCCCO", "physical_data": {"Molecular Weight": "324.58", "Molecular Formula": "C22H44O", "Boiling Point": "200-205 \u00b0C @ Press: 1 Torr", "Melting Point": "35 \u00b0C"}}