{"cas_no": "629-14-1", "cn_name": "\u4e59\u4e8c\u9187\u4e8c\u4e59\u919a", "en_name": ["Ethylene glycol diethyl ether", "Ethane, 1,2-diethoxy-", "1,2-Diethoxyethane", "Diethyl cellosolve", "Ethylene glycol diethyl ether", "2-Ethoxyethyl ethyl ether", "Glycol diethyl ether", "3,6-Dioxaoctane", "DEE", "Hisolve EME", "Ethylene diethyl ether"], "SMILES": "C(COCC)OCC", "physical_data": {"Molecular Weight": "118.17", "Molecular Formula": "C6H14O2", "Boiling Point": "119.4 \u00b0C", "Melting Point": "-74 \u00b0C", "Density": "1 x 10<sup>-6</sup> g/cm\u00b3 @ Temp: 20 \u00b0C"}}