{"cas_no": "629-65-2", "cn_name": "\u5e9a\u57fa\u786b\u919a", "en_name": ["Diheptyl sulfide", "Heptane, 1,1\u2032-thiobis-", "Heptyl sulfide", "1,1\u2032-Thiobis[heptane]", "Diheptyl sulfide", "8-Thiapentadecane", "Di-n-heptyl thioether", "Di-n-heptyl sulfide", "Diheptyl thioether", "1-Heptylsulfanylheptane"], "SMILES": "S(CCCCCCC)CCCCCCC", "physical_data": {"Molecular Weight": "230.45", "Molecular Formula": "C14H30S", "Boiling Point": "298 \u00b0C", "Melting Point": "70 \u00b0C", "Density": "0.8407 g/cm\u00b3 @ Temp: 20 \u00b0C"}}