{"cas_no": "629-92-5", "cn_name": "\u6b63\u5341\u4e5d\u70f7", "en_name": ["Nonadecane", "Nonadecane", "n-Nonadecane", "NSC 77136"], "SMILES": "C(CCCCCCCCC)CCCCCCCCC", "physical_data": {"Molecular Weight": "268.52", "Molecular Formula": "C19H40", "Boiling Point": "329.9 \u00b0C", "Melting Point": "32.1 \u00b0C", "Density": "0.7780 g/cm\u00b3"}}