{"cas_no": "629-60-7", "cn_name": "\u6c30\u5341\u4e8c\u70f7", "en_name": ["Tridecanenitrile", "Tridecanenitrile", "Tridecanonitrile", "Dodecyl cyanide", "Dodecanecarbonitrile", "1-Dodecyl cyanide", "n-Tridecanonitrile", "NSC 3886"], "SMILES": "C(CCCCCC#N)CCCCCC", "physical_data": {"Molecular Weight": "195.34", "Molecular Formula": "C13H25N", "Boiling Point": "293 \u00b0C", "Melting Point": "9.7 \u00b0C"}}