{"cas_no": "629-78-7", "cn_name": "\u6b63\u5341\u4e03\u70f7", "en_name": ["Heptadecane", "Heptadecane", "n-Heptadecane", "NSC 172782", "TS 7", "Ecojour TS 7", "PCM 17"], "SMILES": "C(CCCCCCCC)CCCCCCCC", "physical_data": {"Molecular Weight": "240.47", "Molecular Formula": "C17H36", "Boiling Point": "302 \u00b0C", "Melting Point": "22 \u00b0C", "Density": "0.7732 g/cm\u00b3 @ Temp: 30 \u00b0C"}}