{"cas_no": "629-59-4", "cn_name": "\u5341\u56db\u70f7", "en_name": ["Tetradecane", "Tetradecane", "n-Tetradecane", "NSC 72440", "Rubitherm RT 2", "Cactus Normal Paraffin N 14", "N 14", "Linpar 14", "Parafol 14-97", "TS Paraffin TS 4", "TS 4", "Linpar 14-99"], "SMILES": "C(CCCCCCC)CCCCCC", "physical_data": {"Molecular Weight": "198.39", "Molecular Formula": "C14H30", "Boiling Point": "253.7 \u00b0C @ Press: 760 Torr", "Melting Point": "5.9 \u00b0C", "Density": "0.7628 g/cm\u00b3 @ Temp: 20 \u00b0C"}}