{"cas_no": "629-08-3", "cn_name": "\u6b63\u5e9a\u8148", "en_name": ["Heptanenitrile", "Heptanenitrile", "Enanthonitrile", "Heptanonitrile", "Hexyl cyanide", "1-Cyanohexane", "n-Heptanenitrile", "NSC 2172"], "SMILES": "C(CCC#N)CCC", "physical_data": {"Molecular Weight": "111.18", "Molecular Formula": "C7H13N", "Boiling Point": "183 \u00b0C", "Melting Point": "-64 \u00b0C"}}