{"cas_no": "629-64-1", "cn_name": "\u6b63\u5e9a\u919a", "en_name": ["1,1\u2032-Oxybis[heptane]", "Heptane, 1,1\u2032-oxybis-", "Heptyl ether", "1,1\u2032-Oxybis[heptane]", "Diheptyl ether", "Di-n-heptyl ether", "Bis(1-heptyl) ether", "NSC 97274", "1-Heptoxyheptane"], "SMILES": "O(CCCCCCC)CCCCCCC", "physical_data": {"Molecular Weight": "214.39", "Molecular Formula": "C14H30O", "Boiling Point": "258.5 \u00b0C"}}