{"cas_no": "629-19-6", "cn_name": "\u4e8c\u4e19\u57fa\u4e8c\u786b", "en_name": ["Dipropyl disulfide", "Disulfide, dipropyl", "Propyl disulfide", "Dipropyl disulfide", "4,5-Dithiaoctane", "Di-n-propyl disulfide", "n-Propyl disulfide", "NSC 75122", "1-(Propyldisulfanyl)propane"], "SMILES": "S(SCCC)CCC", "physical_data": {"Molecular Weight": "150.31", "Molecular Formula": "C6H14S2", "Boiling Point": "193.5 \u00b0C", "Melting Point": "-85.6 \u00b0C", "Density": "0.9525 g/cm\u00b3 @ Temp: 20 \u00b0C"}}