{"cas_no": "629-03-8", "cn_name": "1,6-\u4e8c\u6eb4\u5df1\u70f7", "en_name": ["1,6-Dibromohexane", "Hexane, 1,6-dibromo-", "1,6-Dibromohexane", "1,6-Dibromo-n-hexane", "Hexamethylene dibromide", "\u03b1,\u03c9-Dibromohexane", "NSC 7306", "Hexane, 1,6-dibromo-, hydrate (1:1)"], "SMILES": "C(CCCBr)CCBr", "physical_data": {"Molecular Weight": "243.97", "Molecular Formula": "C6H12Br2", "Boiling Point": "245.5 \u00b0C", "Melting Point": "-2.3 \u00b0C", "Density": "1.6041 g/cm\u00b3 @ Temp: 20 \u00b0C"}}