{"cas_no": "629-23-2", "cn_name": "\u4e59\u57fa\u5341\u4e00\u57fa\u916e", "en_name": ["3-Tetradecanone", "3-Tetradecanone", "NSC 158516"], "SMILES": "C(CCC(CC)=O)CCCCCCCC", "physical_data": {"Molecular Weight": "212.37", "Molecular Formula": "C14H28O", "Melting Point": "34 \u00b0C"}}