{"cas_no": "629-70-9", "cn_name": "1-\u5341\u516d\u70f7\u9187\u7532\u9178\u916f", "en_name": ["Hexadecyl acetate", "1-Hexadecanol, 1-acetate", "1-Hexadecanol, acetate", "Cetyl acetate", "Hexadecyl acetate", "Palmityl acetate", "ENT 1025", "1-Acetoxyhexadecane", "Hexadecanol acetate", "NSC 8492"], "SMILES": "C(CCCCCCCCCCC)CCCCOC(C)=O", "physical_data": {"Molecular Weight": "284.48", "Molecular Formula": "C18H36O2", "Boiling Point": "156.8 \u00b0C @ Press: 1.5 Torr", "Melting Point": "-18.5 \u00b0C"}}