{"cas_no": "629-96-9", "cn_name": "1-\u4e8c\u5341\u9187", "en_name": ["1-Eicosanol", "1-Eicosanol", "Eicosanol", "Arachic alcohol", "Arachidic alcohol", "Eicosyl alcohol", "Arachidyl alcohol", "n-1-Eicosanol", "n-Eicosanol", "NSC 120887", "Hainol 20SS", "Nacol C 20"], "SMILES": "C(CCCCCCCCCC)CCCCCCCCCO", "physical_data": {"Molecular Weight": "298.55", "Molecular Formula": "C20H42O", "Boiling Point": "369 \u00b0C @ Press: 760 Torr", "Melting Point": "72.5-73.0 \u00b0C", "Density": "0.8405 g/cm\u00b3 @ Temp: 20 \u00b0C"}}