{"cas_no": "629-12-9", "cn_name": "\u5f02\u786b\u6c30\u9178\u620a\u916f", "en_name": ["Pentyl isothiocyanate", "Pentane, 1-isothiocyanato-", "Isothiocyanic acid, pentyl ester", "1-Isothiocyanatopentane", "Pentyl isothiocyanate", "n-Pentyl isothiocyanate", "Amyl isothiocyanate", "1-Pentyl isothiocyanate"], "SMILES": "C(CN=C=S)CCC", "physical_data": {"Molecular Weight": "129.22", "Molecular Formula": "C6H11NS", "Boiling Point": "91-94 \u00b0C @ Press: 28-30 Torr"}}