{"cas_no": "6290-49-9", "cn_name": "\u7532\u6c27\u57fa\u4e59\u9178\u7532\u916f", "en_name": ["Methyl methoxyacetate", "Acetic acid, 2-methoxy-, methyl ester", "Acetic acid, methoxy-, methyl ester", "Methyl methoxyacetate", "Methyl 2-methoxyacetate", "Methyl \u03b1-methoxyacetate", "Methoxyacetic acid methyl ester", "NSC 61447", "NSC 6701"], "SMILES": "C(COC)(OC)=O", "physical_data": {"Molecular Weight": "104.10", "Molecular Formula": "C4H8O3", "Boiling Point": "131 \u00b0C", "Density": "1.0579 g/cm\u00b3 @ Temp: 15 \u00b0C"}}