{"cas_no": "6290-05-7", "cn_name": "\u4e9a\u6c28\u57fa\u4e8c\u4e59\u9178\u4e8c\u4e59\u916f", "en_name": ["Diethyl iminodiacetate", "Glycine, N-(2-ethoxy-2-oxoethyl)-, ethyl ester", "Acetic acid, iminodi-, diethyl ester", "Diethyl iminodiacetate", "Iminodiacetic acid diethyl ester", "N,N-Bis(ethoxycarbonylmethyl)amine", "N-(Ethoxycarbonylmethyl)glycine ethyl ester", "Diethyl iminobis(acetate)", "NSC 6950", "[[(Ethoxycarbonyl)methyl]amino]acetic acid ethyl ester", "66: PN: US20050107325 PAGE: 155 claimed protein", "Iminodiethyl diacetate"], "SMILES": "C(CNCC(OCC)=O)(OCC)=O", "physical_data": {"Molecular Weight": "189.21", "Molecular Formula": "C8H15NO4", "Boiling Point": "126-127 \u00b0C @ Press: 13 Torr", "Density": "1.0819 g/cm\u00b3 @ Temp: 18.5 \u00b0C"}}