{"cas_no": "6290-24-0", "cn_name": "2-\u4e59\u6c27\u57fa\u82ef\u7532\u9178\u4e59\u916f", "en_name": ["Benzoic acid, 2-ethoxy-, ethyl ester", "Benzoic acid, 2-ethoxy-, ethyl ester", "Benzoic acid, o-ethoxy-, ethyl ester", "Ethyl 2-ethoxybenzoate", "NSC 6584", "2-Ethoxybenzoic acid ethyl ester"], "SMILES": "C(OCC)(=O)C1=C(OCC)C=CC=C1", "physical_data": {"Molecular Weight": "194.23", "Molecular Formula": "C11H14O3", "Boiling Point": "81 \u00b0C @ Press: 1 Torr"}}