{"cas_no": "6290-37-5", "cn_name": "\u5df1\u9178-2-\u82ef\u4e59\u916f", "en_name": ["Phenylethyl hexanoate", "Hexanoic acid, 2-phenylethyl ester", "Hexanoic acid, phenethyl ester", "2-Phenethyl hexanoate", "2-Phenylethyl caproate", "2-Phenylethyl hexanoate", "Phenylethyl hexanoate", "Phenethyl hexanoate", "NSC 6651"], "SMILES": "C(COC(CCCCC)=O)C1=CC=CC=C1", "physical_data": {"Molecular Weight": "220.31", "Molecular Formula": "C14H20O2", "Boiling Point": "144-146 \u00b0C @ Press: 2 Torr"}}