{"cas_no": "6290-17-1", "cn_name": "2,4-\u4e8c\u7532\u57fa-1,3-\u4e8c\u6076\u70f7-2-\u4e59\u9178\u4e59\u916f", "en_name": ["Ethyl 2,4-dimethyl-1,3-dioxolane-2-acetate", "1,3-Dioxolane-2-acetic acid, 2,4-dimethyl-, ethyl ester", "Ethyl 2,4-dimethyl-1,3-dioxolane-2-acetate", "NSC 6547", "Ethyl 2,4-dimethyl-1,3-dioxolane-2-carboxylate", "2,4-Dimethyl-2-[(ethoxycarbonyl)methyl]-1,3-dioxolane", "Ethyl 2-(2,4-dimethyl-1,3-dioxolan-2-yl)acetate", "Fragolane"], "SMILES": "C(C(OCC)=O)C1(C)OCC(C)O1", "physical_data": {"Molecular Weight": "188.22", "Molecular Formula": "C9H16O4", "Boiling Point": "75-76 \u00b0C @ Press: 4 Torr"}}