{"cas_no": "6291-84-5", "cn_name": "3-\u7532\u6c28\u57fa\u4e19\u80fa", "en_name": ["N-Methyl-1,3-propanediamine", "1,3-Propanediamine, N1-methyl-", "1,3-Propanediamine, N-methyl-", "N1-Methyl-1,3-propanediamine", "N-Methyl-1,3-diaminopropane", "N-Methyl-1,3-propanediamine", "3-Amino-1-(methylamino)propane", "1-Amino-3-(methylamino)propane", "3-(Methylamino)propylamine", "N-Methylpropylenediamine", "N-Methyltrimethylenediamine", "N-Methyl-1,3-propylenediamine", "1-(N-Methylamino)-3-aminopropane", "(3-Aminopropyl)methylamine", "Koei 3306", "Methylaminopropylamine", "3-(Methylamino)-1-propylamine", "N1-Methylpropane-1,3-diamine", "NSC 8160", "N-(3-Aminopropyl)methylamine", "N-(3-Aminopropyl)-N-methylamine", "N1-Methyl-1,3-propanediamine"], "SMILES": "C(CNC)CN", "physical_data": {"Molecular Weight": "88.15", "Molecular Formula": "C4H12N2", "Boiling Point": "138-139 \u00b0C"}}