{"cas_no": "6291-16-3", "cn_name": "1-\u8131\u6c27-1-\u5417\u5549-D-\u679c\u7cd6", "en_name": ["1-Deoxy-1-morpholinofructose", "D-Fructose, 1-deoxy-1-(4-morpholinyl)-", "Fructose, 1-deoxy-1-morpholino-, D-", "1-Deoxy-1-(4-morpholinyl)-D-fructose", "1-Deoxy-1-morpholinofructose", "1-Deoxy-1-morpholino-D-fructose"], "SMILES": "C(C(C(C(C(CO)O)O)O)=O)N1CCOCC1", "physical_data": {"Molecular Weight": "249.26", "Molecular Formula": "C10H19NO6", "Melting Point": "147-148 \u00b0C"}}