{"cas_no": "6291-89-0", "cn_name": "\u82ef\u57fa\u80cd\u78b3\u9178\u76d0", "en_name": ["Phenylguanidine carbonate", "Carbonic acid, compd. with N-phenylguanidine (1:2)", "Carbonic acid, compd. with phenylguanidine (1:2)", "Guanidine, phenyl-, carbonate (2:1)", "Phenylguanidine carbonate"], "SMILES": "C(=O)(O)O.N(C(=N)N)C1=CC=CC=C1", "physical_data": {"Molecular Weight": "", "Molecular Formula": "C7H9N3.<sup>1</sup>/2CH2O3", "Melting Point": "147-150 \u00b0C (decomp)"}}