{"cas_no": "6291-85-6", "cn_name": "3-\u4e59\u6c27\u57fa\u4e19\u80fa", "en_name": ["3-Ethoxypropylamine", "1-Propanamine, 3-ethoxy-", "Propylamine, 3-ethoxy-", "3-Ethoxy-1-propanamine", "3-Ethoxypropylamine", "3-Ethoxy-1-propylamine", "Propanolamine ethyl ether", "3-Ethoxypropanamine", "NSC 8162", "[3-(Ethyloxy)propyl]amine"], "SMILES": "C(CCN)OCC", "physical_data": {"Molecular Weight": "103.16", "Molecular Formula": "C5H13NO", "Boiling Point": "134-136 \u00b0C @ Press: 732 Torr", "Density": "0.8613 g/cm\u00b3 @ Temp: 20 \u00b0C"}}