{"cas_no": "6291-95-8", "cn_name": "\u4e09\u7532\u4ee3\u70ef\u4e19\u57fa\u5f02\u6c30\u9178\u916f", "en_name": ["Trimethallyl isocyanurate", "1,3,5-Triazine-2,4,6(1H,3H,5H)-trione, 1,3,5-tris(2-methyl-2-propen-1-yl)-", "s-Triazine-2,4,6(1H,3H,5H)-trione, 1,3,5-tris(2-methylallyl)-", "1,3,5-Triazine-2,4,6(1H,3H,5H)-trione, 1,3,5-tris(2-methyl-2-propenyl)-", "s-Triazine-2,4,6(1H,3H,5H)-trione, tris(2-methylallyl)-", "1,3,5-Tris(2-methyl-2-propen-1-yl)-1,3,5-triazine-2,4,6(1H,3H,5H)-trione", "Trimethallyl isocyanurate", "NSC 63838", "NSC 8189", "TMAIC", "Trimethallyl isocyarurate", "1,3,5-Tris(2-methylallyl)-1,3,5-triazinane-2,4,6-trione", "1,3,5-Tris(2-methyl-2-propenyl)-1,3,5-triazinane-2,4,6-trione", "1,3,5-Tris(2-methylprop-2-enyl)-1,3,5-triazinane-2,4,6-trione", "Trimethylallyl isocyanurate"], "SMILES": "C(C(C)=C)N1C(=O)N(CC(C)=C)C(=O)N(CC(C)=C)C1=O", "physical_data": {"Molecular Weight": "291.35", "Molecular Formula": "C15H21N3O3", "Melting Point": "85-86 \u00b0C"}}