{"cas_no": "6291-01-6", "cn_name": "\u73af\u4e01\u57fa\u80fa\u76d0\u9178\u76d0", "en_name": ["Cyclobutanamine, hydrochloride (1:1)", "Cyclobutanamine, hydrochloride (1:1)", "Cyclobutylamine, hydrochloride", "Cyclobutanamine, hydrochloride", "Cyclobutylammonium chloride"], "SMILES": "NC1CCC1.Cl", "physical_data": {"Molecular Weight": "", "Molecular Formula": "C4H9N.ClH", "Melting Point": "181-183 \u00b0C"}}