{"cas_no": "62924-70-3", "cn_name": "\u6c1f\u8282\u80fa", "en_name": ["Flumetralin", "Benzenemethanamine, 2-chloro-N-[2,6-dinitro-4-(trifluoromethyl)phenyl]-N-ethyl-6-fluoro-", "2-Chloro-N-[2,6-dinitro-4-(trifluoromethyl)phenyl]-N-ethyl-6-fluorobenzenemethanamine", "CGA 41065", "Flumetralin", "Prime +", "Premier", "Fujiean"], "SMILES": "N(CC1=C(Cl)C=CC=C1F)(CC)C2=C(N(=O)=O)C=C(C(F)(F)F)C=C2N(=O)=O", "physical_data": {"Molecular Weight": "421.73", "Molecular Formula": "C16H12ClF4N3O4", "Melting Point": "102 \u00b0C"}}