{"cas_no": "6292-59-7", "cn_name": "4-\u53d4\u4e01\u57fa\u82ef\u78fa\u9170\u80fa", "en_name": ["4-tert-Butylbenzenesulfonamide", "Benzenesulfonamide, 4-(1,1-dimethylethyl)-", "Benzenesulfonamide, p-tert-butyl-", "4-(1,1-Dimethylethyl)benzenesulfonamide", "p-tert-Butylbenzenesulfonamide", "p-(tert-Butyl)phenylsulfonamide", "4-tert-Butylbenzenesulfonamide", "NSC 9911", "4-(TertButyl)benzenesulfonamide"], "SMILES": "C(C)(C)(C)C1=CC=C(S(N)(=O)=O)C=C1", "physical_data": {"Molecular Weight": "213.30", "Molecular Formula": "C10H15NO2S", "Melting Point": "136-137 \u00b0C"}}