{"cas_no": "6293-56-7", "cn_name": "2-(3-\u5421\u5576\u57fa)\u4e59\u9187", "en_name": ["3-Pyridineethanol", "3-Pyridineethanol", "3-(2-Hydroxyethyl)pyridine", "3-Pyridylethanol", "2-(3-Pyridyl)ethanol", "2-(\u03b2-Pyridyl)ethanol", "2-(Pyridin-3-yl)ethanol", "NSC 8965", "2-(3-Pyridyl)ethan-1-ol", "2-(Pyridin-3-yl)ethan-1-ol"], "SMILES": "C(CO)C=1C=CC=NC1", "physical_data": {"Molecular Weight": "123.15", "Molecular Formula": "C7H9NO", "Boiling Point": "144.0-144.5 \u00b0C @ Press: 10 Torr", "Melting Point": "135 \u00b0C"}}