{"cas_no": "62936-23-6", "cn_name": "5-\u6c2f\u9999\u8349\u9178", "en_name": ["3-Chloro-4-hydroxy-5-methoxybenzoic acid", "Benzoic acid, 3-chloro-4-hydroxy-5-methoxy-", "Vanillic acid, 5-chloro-", "3-Chloro-4-hydroxy-5-methoxybenzoic acid", "5-Chlorovanillic acid", "NSC 45930"], "SMILES": "O(C)C1=CC(C(O)=O)=CC(Cl)=C1O", "physical_data": {"Molecular Weight": "202.59", "Molecular Formula": "C8H7ClO4", "Melting Point": "244-245 \u00b0C"}}