{"cas_no": "62935-72-2", "cn_name": "7-\u7532\u6c27\u57fa-2-\u6c27\u4ee3-2H-1-\u82ef\u5e76\u5421\u5583-4-\u4e59\u9178", "en_name": ["7-Methoxycoumarin-4-acetic acid", "2H-1-Benzopyran-4-acetic acid, 7-methoxy-2-oxo-", "7-Methoxy-2-oxo-2H-1-benzopyran-4-acetic acid", "7-Methoxycoumarin-4-acetic acid", "NSC 378137", "MCA", "(7-Methoxy-2-oxo-2H-chromen-4-yl)-acetic acid", "2-(7-Methoxy-2-oxo-2H-chromen-4-yl)acetic acid", "2-(7-Methoxy-2-oxochromen-4-yl)acetic acid"], "SMILES": "C(C(O)=O)C=1C=2C(=CC(OC)=CC2)OC(=O)C1", "physical_data": {"Molecular Weight": "234.20", "Molecular Formula": "C12H10O5", "Melting Point": "170 \u00b0C (decomp)"}}