{"cas_no": "6294-17-3", "cn_name": "1-\u6eb4-6-\u6c2f\u5df1\u70f7", "en_name": ["1-Bromo-6-chlorohexane", "Hexane, 1-bromo-6-chloro-", "1-Bromo-6-chlorohexane", "6-Chlorohexyl bromide", "1-Chloro-6-bromohexane", "6-Bromohexyl chloride", "NSC 9249"], "SMILES": "C(CCCCl)CCBr", "physical_data": {"Molecular Weight": "199.52", "Molecular Formula": "C6H12BrCl", "Boiling Point": "109-110 \u00b0C @ Press: 2 Torr"}}