{"cas_no": "6294-31-1", "cn_name": "\u5df1\u786b\u919a", "en_name": ["Dihexyl sulfide", "Hexane, 1,1\u2032-thiobis-", "Hexyl sulfide", "1,1\u2032-Thiobis[hexane]", "Dihexyl sulfide", "Di-n-hexyl sulfide", "7-Thiatridecane", "SFI 6R", "NSC 9287", "Dihexyl thioether", "1-Hexylsulfanylhexane"], "SMILES": "S(CCCCCC)CCCCCC", "physical_data": {"Molecular Weight": "202.40", "Molecular Formula": "C12H26S", "Boiling Point": "230 \u00b0C"}}