{"cas_no": "62949-76-2", "cn_name": "\u9ec4\u8272\u5f53\u5f52\u9187", "en_name": ["Xanthoangelol", "2-Propen-1-one, 1-[3-[(2E)-3,7-dimethyl-2,6-octadien-1-yl]-2,4-dihydroxyphenyl]-3-(4-hydroxyphenyl)-, (2E)-", "2-Propen-1-one, 1-[3-(3,7-dimethyl-2,6-octadienyl)-2,4-dihydroxyphenyl]-3-(4-hydroxyphenyl)-, (E,E)-", "2-Propen-1-one, 1-[3-[(2E)-3,7-dimethyl-2,6-octadienyl]-2,4-dihydroxyphenyl]-3-(4-hydroxyphenyl)-, (2E)-", "(2E)-1-[3-[(2E)-3,7-Dimethyl-2,6-octadien-1-yl]-2,4-dihydroxyphenyl]-3-(4-hydroxyphenyl)-2-propen-1-one", "Xanthoangelol", "2\u2032,4\u2032,4-Trihydroxy-3\u2032-geranylchalcone"], "SMILES": "C(C=CC1=CC=C(O)C=C1)(=O)C2=C(O)C(CC=C(CCC=C(C)C)C)=C(O)C=C2", "physical_data": {"Molecular Weight": "392.49", "Molecular Formula": "C25H28O4", "Melting Point": "141-143 \u00b0C"}}