{"cas_no": "6294-93-5", "cn_name": "2-\u6c2f-5-\u7f9f\u57fa\u4e09\u6c1f\u7532\u82ef", "en_name": ["4-Chloro-3-(trifluoromethyl)phenol", "Phenol, 4-chloro-3-(trifluoromethyl)-", "m-Cresol, 4-chloro-\u03b1,\u03b1,\u03b1-trifluoro-", "4-Chloro-3-(trifluoromethyl)phenol", "NSC 11757", "2-Chloro-5-hydroxybenzotrifluoride"], "SMILES": "C(F)(F)(F)C1=C(Cl)C=CC(O)=C1", "physical_data": {"Molecular Weight": "196.55", "Molecular Formula": "C7H4ClF3O", "Boiling Point": "120-122 \u00b0C @ Press: 27 Torr", "Melting Point": "43 \u00b0C"}}