{"cas_no": "6294-89-9", "cn_name": "\u80bc\u57fa\u7532\u9178\u7532\u916f", "en_name": ["Methyl carbazate", "Hydrazinecarboxylic acid, methyl ester", "Carbazic acid, methyl ester", "Methyl carbazate", "Methyl hydrazinoformate", "Methyl hydrazinocarboxylate", "Carbomethoxyhydrazide", "(Methoxycarbonyl)hydrazine", "Methyl hydrazinecarboxylate", "Methyl carbazinate", "(Methoxycarbonyl)hydrazide", "Carbomethoxyhydrazine", "NSC 11709", "N-(Methoxycarbonyl)hydrazine", "Methyl N-aminocarbamate"], "SMILES": "C(NN)(OC)=O", "physical_data": {"Molecular Weight": "90.08", "Molecular Formula": "C2H6N2O2", "Melting Point": "73 \u00b0C"}}