{"cas_no": "62949-93-3", "cn_name": "\u6851\u6839\u76ae\u9187", "en_name": ["2-(2,4-Dihydroxyphenyl)-5-hydroxy-3-(3-hydroxy-3-methylbutyl)-8,8-dimethyl-4H,8H-benzo[1,2-b:3,4-b\u2032]dipyran-4-one", "4H,8H-Benzo[1,2-b:3,4-b\u2032]dipyran-4-one, 2-(2,4-dihydroxyphenyl)-5-hydroxy-3-(3-hydroxy-3-methylbutyl)-8,8-dimethyl-", "2-(2,4-Dihydroxyphenyl)-5-hydroxy-3-(3-hydroxy-3-methylbutyl)-8,8-dimethyl-4H,8H-benzo[1,2-b:3,4-b\u2032]dipyran-4-one", "Morusinol", "Oxydihydromorusin", "2-(2,4-Dihydroxyphenyl)-5-hydroxy-3-(3-hydroxy-3-methylbutyl)-8,8-dimethylpyrano[2,3-h]chromen-4-one"], "SMILES": "O=C1C2=C(C3=C(C=C2O)OC(C)(C)C=C3)OC(=C1CCC(C)(C)O)C4=C(O)C=C(O)C=C4", "physical_data": {"Molecular Weight": "438.47", "Molecular Formula": "C25H26O7", "Melting Point": "213-214 \u00b0C"}}