{"cas_no": "6294-70-8", "cn_name": "5,6-\u4e8c\u7532\u57fa\u5421\u55ea-2-\u80fa", "en_name": ["5,6-Dimethyl-2-pyrazinamine", "2-Pyrazinamine, 5,6-dimethyl-", "Pyrazine, 5-amino-2,3-dimethyl-", "Pyrazinamine, 5,6-dimethyl-", "5,6-Dimethyl-2-pyrazinamine", "6-Amino-2,3-dimethylpyrazine", "2-Amino-5,6-dimethylpyrazine", "NSC 9622"], "SMILES": "CC=1C(C)=NC=C(N)N1", "physical_data": {"Molecular Weight": "123.16", "Molecular Formula": "C6H9N3", "Melting Point": "140-144 \u00b0C"}}