{"cas_no": "6294-52-6", "cn_name": "5,6-\u4e8c\u7532\u6c27\u57fa-1,3-\u82ef\u5e76\u567b\u5511-2-\u80fa", "en_name": ["5,6-Dimethoxy-2-benzothiazolamine", "2-Benzothiazolamine, 5,6-dimethoxy-", "Benzothiazole, 2-amino-5,6-dimethoxy-", "5,6-Dimethoxy-2-benzothiazolamine", "NSC 9444", "SKA 17", "5,6-Dimethoxybenzo[d]thiazol-2-amine"], "SMILES": "O(C)C=1C=C2C(=CC1OC)SC(N)=N2", "physical_data": {"Molecular Weight": "210.25", "Molecular Formula": "C9H10N2O2S", "Melting Point": "138.9 \u00b0C"}}