{"cas_no": "6294-40-2", "cn_name": "1-\u6eb4-4-\u7532\u57fa\u73af\u5df1\u70f7", "en_name": ["1-Bromo-4-methylcyclohexane", "Cyclohexane, 1-bromo-4-methyl-", "1-Bromo-4-methylcyclohexane", "NSC 9388", "4-Methylcyclohexyl bromide"], "SMILES": "BrC1CCC(C)CC1", "physical_data": {"Molecular Weight": "177.08", "Molecular Formula": "C7H13Br", "Boiling Point": "124-126 \u00b0C @ Press: 150 Torr", "Density": "1.2492 g/cm\u00b3 @ Temp: 20 \u00b0C"}}