{"cas_no": "62949-77-3", "cn_name": "\u6851\u76ae\u916eA", "en_name": ["5,7-Dihydroxy-2-(5-hydroxy-2,2-dimethyl-2H-1-benzopyran-8-yl)-3-(3-methyl-2-buten-1-yl)-4H-1-benzopyran-4-one", "4H-1-Benzopyran-4-one, 5,7-dihydroxy-2-(5-hydroxy-2,2-dimethyl-2H-1-benzopyran-8-yl)-3-(3-methyl-2-buten-1-yl)-", "4H-1-Benzopyran-4-one, 5,7-dihydroxy-2-(5-hydroxy-2,2-dimethyl-2H-1-benzopyran-8-yl)-3-(3-methyl-2-butenyl)-", "5,7-Dihydroxy-2-(5-hydroxy-2,2-dimethyl-2H-1-benzopyran-8-yl)-3-(3-methyl-2-buten-1-yl)-4H-1-benzopyran-4-one", "Kuwanon A"], "SMILES": "C(C=C(C)C)C1=C(OC=2C(C1=O)=C(O)C=C(O)C2)C3=C4C(C=CC(C)(C)O4)=C(O)C=C3", "physical_data": {"Molecular Weight": "420.45", "Molecular Formula": "C25H24O6", "Melting Point": "176-177 \u00b0C"}}