{"cas_no": "62949-79-5", "cn_name": "\u6851\u9ec4\u916e", "en_name": ["Kuwanon C", "4H-1-Benzopyran-4-one, 2-(2,4-dihydroxyphenyl)-5,7-dihydroxy-3,8-bis(3-methyl-2-buten-1-yl)-", "4H-1-Benzopyran-4-one, 2-(2,4-dihydroxyphenyl)-5,7-dihydroxy-3,8-bis(3-methyl-2-butenyl)-", "2-(2,4-Dihydroxyphenyl)-5,7-dihydroxy-3,8-bis(3-methyl-2-buten-1-yl)-4H-1-benzopyran-4-one", "Kuwanon C", "Mulberrin", "2-(2,4-Dihydroxyphenyl)-5,7-dihydroxy-3,8-bis(3-methylbut-2-enyl)chromen-4-one"], "SMILES": "C(C=C(C)C)C1=C2C(C(=O)C(CC=C(C)C)=C(O2)C3=C(O)C=C(O)C=C3)=C(O)C=C1O", "physical_data": {"Molecular Weight": "422.47", "Molecular Formula": "C25H26O6", "Melting Point": "153-156 \u00b0C"}}