{"cas_no": "6294-79-7", "cn_name": "\u4e8c\u70ef\u4e19\u57fa\u5f02\u6c30\u8132\u9178\u916f", "en_name": ["Diallyl isocyanurate", "1,3,5-Triazine-2,4,6(1H,3H,5H)-trione, 1,3-di-2-propen-1-yl-", "s-Triazine-2,4,6(1H,3H,5H)-trione, 1,3-diallyl-", "1,3,5-Triazine-2,4,6(1H,3H,5H)-trione, 1,3-di-2-propenyl-", "s-Triazine-2,4,6(1H,3H,5H)-trione, diallyl-", "1,3-Di-2-propen-1-yl-1,3,5-triazine-2,4,6(1H,3H,5H)-trione", "Diallyl isocyanurate", "1,3-Diallylisocyanurate", "1,3-Diallylisocyanuric acid", "NSC 11691", "DA-IC", "DA-ICA", "1,3-Bis(prop-2-enyl)-1,3,5-triazinane-2,4,6-trione", "1,3-Bis(prop-2-en-1-yl)-1,3,5-triazinane-2,4,6-trione", "1,3-Diallyl-[1,3,5]triazinane-2,4,6-trione", "1,3-Diallyl-1,3,5-triazinane-2,4,6-trione"], "SMILES": "C(C=C)N1C(=O)N(CC=C)C(=O)NC1=O", "physical_data": {"Molecular Weight": "209.20", "Molecular Formula": "C9H11N3O3", "Melting Point": "143-145 \u00b0C"}}