{"cas_no": "62952-06-1", "cn_name": "\u8d56\u6c28\u5339\u6797", "en_name": ["Aspisol", "Lysine, 2-(acetyloxy)benzoate (1:1)", "DL-Lysine, mono[2-(acetyloxy)benzoate]", "Lysine, mono[2-(acetyloxy)benzoate]", "Benzoic acid, 2-(acetyloxy)-, compd. with DL-lysine (1:1)", "Benzoic acid, 2-(acetyloxy)-, compd. with lysine (1:1)", "Aspisol", "Acetylsalicylic acid DL-lysine salt", "Venopirin", "Aspirisine", "Lysine acetylsalicylate", "Acetylsalicylic acid lysine salt", "DL-Lysine acetylsalicylate", "Egicalm", "Solpirin", "Aspegic", "Aspirin lysine salt", "Vetalgine", "Cogla", "Laboprin", "Acelysin", "Atselizin", "Acetylsalicylic acid dl-lysine salt", "Quinvet", "Lysine monosalicylate acetate", "Vetalgina", "Aspidol", "Lysal", "Aspirin DL-lysine", "LAS", "Delgesic", "Acelysine", "Asalis", "Aspirin-dl-lysine", "DL-Lysine aspirin salt", "o-Acetylsalicylic acid D,L-lysine salt", "2,6-diaminohexanoic acid compound with 2-acetoxybenzoic acid (1:1)", "Lysini racemici acetylsalicylase"], "SMILES": "C(O)(=O)C1=C(OC(C)=O)C=CC=C1.C(CCCCN)(C(O)=O)N", "physical_data": {"Molecular Weight": "", "Molecular Formula": "C9H8O4.C6H14N2O2", "Melting Point": "155 \u00b0C"}}