{"cas_no": "6295-06-3", "cn_name": "\u7532\u919b\u7532\u9178\u6b63\u4e01\u916f", "en_name": ["Butyl glyoxylate", "Acetic acid, 2-oxo-, butyl ester", "Glyoxylic acid, butyl ester", "Acetic acid, oxo-, butyl ester", "Butyl glyoxylate", "Butyl oxoacetate", "n-Butyl glyoxylate", "NSC 11793"], "SMILES": "C(OCCCC)(C=O)=O", "physical_data": {"Molecular Weight": "130.14", "Molecular Formula": "C6H10O3", "Boiling Point": "55 \u00b0C @ Press: 14 Torr"}}