{"cas_no": "6295-57-4", "cn_name": "(2-\u82ef\u5e76\u567b\u5511\u786b\u4ee3)\u4e59\u9178", "en_name": ["2-(2-Benzothiazolylthio)acetic acid", "Acetic acid, 2-(2-benzothiazolylthio)-", "Acetic acid, (2-benzothiazolylthio)-", "2-(2-Benzothiazolylthio)acetic acid", "S-2-Benzothiazolylthioglycolic acid", "2-Carboxymethylthiobenzothiazole", "(2-Benzothiazolylthio)acetic acid", "Sanbit ABT", "NSC 11891", "NSC 4443", "(1,3-Benzothiazol-2-ylsulfanyl)acetic acid", "2-(Benzo[d]thiazol-2-ylthio)acetic acid", "2-(1,3-Benzothiazol-2-ylsulfanyl)acetic acid"], "SMILES": "S(CC(O)=O)C1=NC=2C(S1)=CC=CC2", "physical_data": {"Molecular Weight": "225.29", "Molecular Formula": "C9H7NO2S2", "Melting Point": "156-157 \u00b0C"}}