{"cas_no": "6295-87-0", "cn_name": "1-\u6c28\u57fa\u5421\u5576\u7898", "en_name": ["Pyridinium, 1-amino-, iodide (1:1)", "Pyridinium, 1-amino-, iodide (1:1)", "Pyridinium, 1-amino-, iodide", "1-Aminopyridinium iodide", "N-Aminopyridinium iodide", "NSC 49542", "1-Aminopyridin-1-ium iodide", "Pyridine-1-ium-1-amine iodide"], "SMILES": "N[N+]=1C=CC=CC1.[I-]", "physical_data": {"Molecular Weight": "", "Molecular Formula": "C5H7N2.I", "Melting Point": "161-162 \u00b0C"}}