{"cas_no": "6295-21-2", "cn_name": "3-\u6c2f\u82ef\u915e", "en_name": ["3-Chlorophthalide", "1(3H)-Isobenzofuranone, 3-chloro-", "Phthalide, 3-chloro-", "3-Chloro-1(3H)-isobenzofuranone", "3-Chlorophthalide", "NSC 11815", "3-Chloro-1,3-dihydro-1-isobenzofuranone", "3-Chloro-3H-2-benzofuran-1-one"], "SMILES": "ClC1C=2C(C(=O)O1)=CC=CC2", "physical_data": {"Molecular Weight": "168.58", "Molecular Formula": "C8H5ClO2", "Boiling Point": "136 \u00b0C @ Press: 8 Torr", "Melting Point": "72-74 \u00b0C"}}