{"cas_no": "629652-44-4", "cn_name": "\u4ed6\u8fbe\u62c9\u975e\u6742\u8d2830", "en_name": ["Methyl (1R,3S)-1-(1,3-benzodioxol-5-yl)-2-(2-chloroacetyl)-2,3,4,9-tetrahydro-1H-pyrido[3,4-b]indole-3-carboxylate", "1H-Pyrido[3,4-b]indole-3-carboxylic acid, 1-(1,3-benzodioxol-5-yl)-2-(2-chloroacetyl)-2,3,4,9-tetrahydro-, methyl ester, (1R,3S)-", "1H-Pyrido[3,4-b]indole-3-carboxylic acid, 1-(1,3-benzodioxol-5-yl)-2-(chloroacetyl)-2,3,4,9-tetrahydro-, methyl ester, (1R,3S)-", "Methyl (1R,3S)-1-(1,3-benzodioxol-5-yl)-2-(2-chloroacetyl)-2,3,4,9-tetrahydro-1H-pyrido[3,4-b]indole-3-carboxylate"], "SMILES": "C(CCl)(=O)N1C(C2=C(C=3C(N2)=CC=CC3)CC1C(OC)=O)C=4C=C5C(=CC4)OCO5", "physical_data": {"Molecular Weight": "426.85", "Molecular Formula": "C22H19ClN2O5", "Melting Point": "208 \u00b0C"}}