{"cas_no": "62965-35-9", "cn_name": "N-Boc-L-\u53d4\u4eae\u6c28\u9178", "en_name": ["N-tert-Butoxycarbonyl-L-tert-leucine", "L-Valine, N-[(1,1-dimethylethoxy)carbonyl]-3-methyl-", "N-[(1,1-Dimethylethoxy)carbonyl]-3-methyl-L-valine", "N-tert-Butoxycarbonyl-L-tert-leucine", "(S)-2-tert-Butoxycarbonylamino-3,3-dimethylbutyric acid", "(2S)-2-(tert-Butoxycarbonylamino)-3,3-dimethylbutanoic acid", "N-tert-Butoxycarbonyl-L-tert-butylglycine", "N-Boc-L-tert-leucine", "(S)-2-(((tert-Butoxy)carbonyl)amino)-3,3-dimethylbutanoic acid", "L-Boc-tert-leucine", "N-(tert-Butoxycarbonyl)-3-methyl-L-valine", "(2S)-2-(tert-Butoxycarbonylamino)-3,3-dimethyl-butanoic acid"], "SMILES": "C(NC(OC(C)(C)C)=O)(C(C)(C)C)C(O)=O", "physical_data": {"Molecular Weight": "", "Molecular Formula": "C11H21NO4", "Melting Point": "122 \u00b0C"}}