{"cas_no": "6296-42-0", "cn_name": "2-\u6c2f\u4e59\u57fa\u5c3f\u7d20", "en_name": ["N-(2-Chloroethyl)urea", "Urea, N-(2-chloroethyl)-", "Urea, (2-chloroethyl)-", "N-(2-Chloroethyl)urea", "\u03b2-Chloroethylurea", "NSC 47538", "(2-Chloroethyl)urea"], "SMILES": "N(C(N)=O)CCCl", "physical_data": {"Molecular Weight": "122.55", "Molecular Formula": "C3H7ClN2O", "Melting Point": "200-207 \u00b0C"}}