{"cas_no": "6296-54-4", "cn_name": "2,4-\u4e8c\u6c27\u4ee3-4-\u82ef\u57fa\u4e01\u9178\u4e59\u916f", "en_name": ["Ethyl \u03b1,\u03b3-dioxobenzenebutanoate", "Benzenebutanoic acid, \u03b1,\u03b3-dioxo-, ethyl ester", "Pyruvic acid, benzoyl-, ethyl ester", "Ethyl \u03b1,\u03b3-dioxobenzenebutanoate", "Ethyl benzoylpyruvate", "Ethyl \u03b2-benzoylpyruvate", "Ethyl 4-phenyl-2,4-dioxobutanoate", "NSC 17049", "Ethyl 2,4-dioxo-4-phenylbutanoate", "4-Phenyl-2,4-dioxobutanoic acid ethyl ester", "2,4-Dioxo-4-phenylbutanoic acid ethyl ester", "2,4-Dioxo-4-phenyl-butyric acid ethyl ester"], "SMILES": "C(CC(C(OCC)=O)=O)(=O)C1=CC=CC=C1", "physical_data": {"Molecular Weight": "220.22", "Molecular Formula": "C12H12O4", "Boiling Point": "167 \u00b0C @ Press: 5 Torr", "Melting Point": "46 \u00b0C"}}