{"cas_no": "629652-42-2", "cn_name": "\uff081S\uff0c3S\uff09-1-\uff081,3-\u82ef\u5e76\u4e8c\u6076\u5511-5-\u57fa\uff09-2-\uff082-\u6c2f\u4e59\u9170\u57fa\uff09-2,3,4,9-\u56db\u6c22-1H-\u5421\u5576[3,4-b]\u5432\u54da- 3-\u7fa7\u9178\u7532\u916f", "en_name": ["Methyl (1S,3S)-1-(1,3-benzodioxol-5-yl)-2-(2-chloroacetyl)-2,3,4,9-tetrahydro-1H-pyrido[3,4-b]indole-3-carboxylate", "1H-Pyrido[3,4-b]indole-3-carboxylic acid, 1-(1,3-benzodioxol-5-yl)-2-(2-chloroacetyl)-2,3,4,9-tetrahydro-, methyl ester, (1S,3S)-", "1H-Pyrido[3,4-b]indole-3-carboxylic acid, 1-(1,3-benzodioxol-5-yl)-2-(chloroacetyl)-2,3,4,9-tetrahydro-, methyl ester, (1S,3S)-", "Methyl (1S,3S)-1-(1,3-benzodioxol-5-yl)-2-(2-chloroacetyl)-2,3,4,9-tetrahydro-1H-pyrido[3,4-b]indole-3-carboxylate"], "SMILES": "C(CCl)(=O)N1C(C2=C(C=3C(N2)=CC=CC3)CC1C(OC)=O)C=4C=C5C(=CC4)OCO5", "physical_data": {"Molecular Weight": "426.85", "Molecular Formula": "C22H19ClN2O5", "Melting Point": "233 \u00b0C"}}