{"cas_no": "6297-53-6", "cn_name": "DL-\u86cb\u6c28\u9178\u4e59\u916f\u76d0\u9178\u76d0", "en_name": ["Methionine, ethyl ester, hydrochloride (1:1)", "Methionine, ethyl ester, hydrochloride (1:1)", "Methionine, ethyl ester, hydrochloride, DL-", "DL-Methionine, ethyl ester, hydrochloride", "Methionine, ethyl ester, hydrochloride", "NSC 46033"], "SMILES": "C(C(OCC)=O)(CCSC)N.Cl", "physical_data": {"Molecular Weight": "", "Molecular Formula": "C7H15NO2S.ClH", "Melting Point": "81-82 \u00b0C"}}