{"cas_no": "62978-73-8", "cn_name": "5-\u4e59\u9170\u57fa-2,8-\u4e8c\u7f9f\u57fa\u55b9\u5549", "en_name": ["5-Acetyl-8-hydroxy-2(1H)-quinolinone", "2(1H)-Quinolinone, 5-acetyl-8-hydroxy-", "5-Acetyl-8-hydroxy-2(1H)-quinolinone", "5-Acetyl-8-hydroxycarbostyril", "5-Acetyl-8-hydroxy-1H-quinolin-2-one", "1-(2,8-Dihydroxyquinolin-5-yl)ethan-1-one"], "SMILES": "C(C)(=O)C1=C2C(=C(O)C=C1)NC(=O)C=C2", "physical_data": {"Molecular Weight": "203.19", "Molecular Formula": "C11H9NO3", "Melting Point": "&gt;260 \u00b0C"}}