{"cas_no": "6297-03-6", "cn_name": "\u5341\u516b\u919a", "en_name": ["Octadecyl ether", "Octadecane, 1,1\u2032-oxybis-", "Octadecyl ether", "1,1\u2032-Oxybis[octadecane]", "Dioctadecyl ether", "Distearyl ether", "NSC 17520", "Cosmacol SE", "Nacol 18", "Di-n-octadecyl ether", "1-Octadecoxyoctadecane"], "SMILES": "O(CCCCCCCCCCCCCCCCCC)CCCCCCCCCCCCCCCCCC", "physical_data": {"Molecular Weight": "522.97", "Molecular Formula": "C36H74O", "Melting Point": "59-60 \u00b0C", "Density": "0.8072 g/cm\u00b3 @ Temp: 62 \u00b0C"}}