{"cas_no": "6297-22-9", "cn_name": "4-\u73af\u5df1\u916e\u7fa7\u9178\u7532\u916f", "en_name": ["Methyl 4-oxocyclohexanecarboxylate", "Cyclohexanecarboxylic acid, 4-oxo-, methyl ester", "Methyl 4-oxocyclohexanecarboxylate", "4-(Methoxycarbonyl)cyclohexanone", "Methyl cyclohexanone-4-carboxylate", "Methyl 4-ketocyclohexanecarboxylate", "NSC 17321", "Methyl 4-oxocyclohexane-1-carboxylate"], "SMILES": "C(OC)(=O)C1CCC(=O)CC1", "physical_data": {"Molecular Weight": "156.18", "Molecular Formula": "C8H12O3", "Boiling Point": "96-97 \u00b0C @ Press: 8.0 Torr"}}