{"cas_no": "6297-14-9", "cn_name": "4-\u6c28\u57fa-ALPHA-\u4e8c\u4e59\u80fa-\u90bb\u7532\u915a\u4e8c\u76d0\u9178\u76d0", "en_name": ["Phenol, 4-amino-2-[(diethylamino)methyl]-, hydrochloride (1:2)", "Phenol, 4-amino-2-[(diethylamino)methyl]-, hydrochloride (1:2)", "o-Cresol, 4-amino-\u03b1-(diethylamino)-, dihydrochloride", "Phenol, 4-amino-2-[(diethylamino)methyl]-, dihydrochloride", "4-Amino-\u03b1-diethylamino-o-cresol dihydrochloride", "4-Amino-2-[(diethylamino)methyl]phenol dihydrochloride"], "SMILES": "C(N(CC)CC)C1=C(O)C=CC(N)=C1.Cl", "physical_data": {"Molecular Weight": "", "Molecular Formula": "C11H18N2O.2ClH", "Melting Point": "218-220 \u00b0C (decomp)"}}