{"cas_no": "6298-19-7", "cn_name": "3-\u6c28\u57fa-2-\u6c2f\u5421\u5576", "en_name": ["3-Amino-2-chloropyridine", "3-Pyridinamine, 2-chloro-", "Pyridine, 3-amino-2-chloro-", "2-Chloro-3-pyridinamine", "3-Amino-2-chloropyridine", "2-Chloro-3-aminopyridine", "2-Chloro-3-pyridineamine", "2-Chloropyridin-3-ylamine", "NSC 45407", "2-Chloro-3-pyridylamine"], "SMILES": "NC1=C(Cl)N=CC=C1", "physical_data": {"Molecular Weight": "128.56", "Molecular Formula": "C5H5ClN2", "Melting Point": "78-79 \u00b0C"}}