{"cas_no": "6298-72-2", "cn_name": "2,5-\u53cc(\u6c2f\u7532\u57fa)-\u5bf9-\u4e8c\u7532\u82ef", "en_name": ["1,4-Bis(chloromethyl)-2,5-dimethylbenzene", "Benzene, 1,4-bis(chloromethyl)-2,5-dimethyl-", "1,4-Bis(chloromethyl)-2,5-dimethylbenzene", "2,5-Bis(chloromethyl)-1,4-dimethylbenzene", "2,5-Bis(chloromethyl)-p-xylene", "\u03b11,\u03b14-Dichlorodurene", "\u03b1,\u03b1-Dichloro-2,5-dimethyl-p-xylene", "1,4-Dimethyl-2,5-di(chloromethyl)benzene", "2,5-Dimethyl-p-xylylene dichloride", "2,5-Di(chloromethyl)-p-xylene", "1,4-Di(chloromethyl)-2,5-dimethylbenzene", "1,4-Dimethyl-2,5-bis(chloromethyl)benzene", "NSC 41890"], "SMILES": "C(Cl)C1=C(C)C=C(CCl)C(C)=C1", "physical_data": {"Molecular Weight": "203.11", "Molecular Formula": "C10H12Cl2", "Melting Point": "132 \u00b0C"}}