{"cas_no": "6298-96-0", "cn_name": "1-(4-\u7532\u6c27\u57fa\u82ef\u57fa)\u4e59\u80fa", "en_name": ["1-(4-Methoxyphenyl)ethylamine", "Benzenemethanamine, 4-methoxy-\u03b1-methyl-", "Benzylamine, p-methoxy-\u03b1-methyl-", "4-Methoxy-\u03b1-methylbenzenemethanamine", "1-(4-Methoxyphenyl)ethylamine", "p-Methoxy-\u03b1-phenylethylamine", "(\u00b1)-p-Methoxy-\u03b1-methylbenzylamine", "(\u00b1)-\u03b1-(p-Methoxyphenyl)ethylamine", "(\u00b1)-p-Methoxy-\u03b1-phenylethylamine", "\u03b1-Methyl-p-methoxybenzylamine", "\u03b1-(p-Methoxyphenyl)ethylamine", "\u03b1-Methyl-4-methoxybenzenemethanamine", "1-(p-Methoxyphenyl)ethylamine", "p-Methoxy-\u03b1-methylbenzylamine", "NSC 42442", "(\u00b1)-1-(4-Methoxyphenyl)ethylamine", "\u03b1-Methyl-4-methoxybenzylamine", "1-(4-Methoxyphenyl)ethan-1-amine", "1-(4-Methoxyphenyl)ethanamine"], "SMILES": "C(C)(N)C1=CC=C(OC)C=C1", "physical_data": {"Molecular Weight": "151.21", "Molecular Formula": "C9H13NO", "Boiling Point": "125-126 \u00b0C @ Press: 16 Torr", "Density": "1.0308 g/cm\u00b3"}}