{"cas_no": "6299-39-4", "cn_name": "4-\u785d\u57fa-1H-1,2,3-\u82ef\u5e76\u4e09\u5511", "en_name": ["4-Nitrobenzotriazole", "1H-Benzotriazole, 7-nitro-", "1H-Benzotriazole, 4-nitro-", "Benzotriazole, 4-nitro-", "7-Nitro-1H-benzotriazole", "4-Nitrobenzotriazole", "4-Nitro-1H-benzotriazole", "NSC 44657", "4-Nitro-1H-benzo[d][1,2,3]triazole"], "SMILES": "N(=O)(=O)C1=C2C(N=NN2)=CC=C1", "physical_data": {"Molecular Weight": "164.12", "Molecular Formula": "C6H4N4O2", "Melting Point": "163-173 \u00b0C"}}