{"cas_no": "6299-25-8", "cn_name": "4,6-\u4e8c\u6c2f-\u4e8c\u7532\u786b\u57fa\u5627\u5576", "en_name": ["4,6-Dichloro-2-(methylthio)pyrimidine", "Pyrimidine, 4,6-dichloro-2-(methylthio)-", "4,6-Dichloro-2-(methylthio)pyrimidine", "4,6-Dichloro-2-(methylmercapto)pyrimidine", "2-Methylthio-4,6-dichloropyrimidine", "4,6-Dichloro-2-(methylsulfanyl)pyrimidine", "NSC 44560"], "SMILES": "S(C)C=1N=C(Cl)C=C(Cl)N1", "physical_data": {"Molecular Weight": "195.07", "Molecular Formula": "C5H4Cl2N2S", "Melting Point": "39-40 \u00b0C"}}