{"cas_no": "6299-87-2", "cn_name": "6-\u7f9f\u57fa-4-\u5627\u5576\u7532\u9178", "en_name": ["6-Hydroxypyrimidine-4-carboxylic acid", "4-Pyrimidinecarboxylic acid, 1,6-dihydro-6-oxo-", "4-Pyrimidinecarboxylic acid, 6-hydroxy-", "1,6-Dihydro-6-oxo-4-pyrimidinecarboxylic acid", "6-Hydroxypyrimidine-4-carboxylic acid", "NSC 45047", "6-Oxo-1,6-dihydropyrimidine-4-carboxylic acid"], "SMILES": "C(O)(=O)C1=CC(=O)N=CN1", "physical_data": {"Molecular Weight": "140.10", "Molecular Formula": "C5H4N2O3", "Melting Point": "268-270 \u00b0C"}}