{"cas_no": "6299-02-1", "cn_name": "1-(4-\u6c2f\u82ef\u57fa)\u4e59\u80fa", "en_name": ["1-(4-Chlorophenyl)ethylamine", "Benzenemethanamine, 4-chloro-\u03b1-methyl-", "Benzylamine, p-chloro-\u03b1-methyl-", "4-Chloro-\u03b1-methylbenzenemethanamine", "p-Chloro-\u03b1-methylbenzylamine", "4-Chloro-\u03b1-methylbenzylamine", "1-(4-Chlorophenyl)ethylamine", "1-(p-Chlorophenyl)ethylamine", "(\u00b1)-4-Chloro-\u03b1-methylbenzenemethanamine", "(\u00b1)-\u03b1-(p-Chlorophenyl)ethylamine", "(\u00b1)-1-(4-Chlorophenyl)ethylamine", "\u03b1-(p-Chlorophenyl)ethylamine", "\u03b1-Methyl-4-chlorobenzenemethanamine", "NSC 42452", "1-(4-Chlorophenyl)ethanamine", "(RS)-1-(p-chlorophenyl)ethylamine"], "SMILES": "C(C)(N)C1=CC=C(Cl)C=C1", "physical_data": {"Molecular Weight": "155.62", "Molecular Formula": "C8H10ClN", "Boiling Point": "105 \u00b0C @ Press: 10 Torr", "Melting Point": "140-141 \u00b0C", "Density": "1.1178 g/cm\u00b3 @ Temp: 20 \u00b0C"}}