{"cas_no": "63-05-8", "cn_name": "\u96c4\u70ef\u4e8c\u916e", "en_name": ["Androstenedione", "Androst-4-ene-3,17-dione", "Androstenedione", "SKF 2170", "3,17-Dioxoandrost-4-ene", "17-Ketotestosterone", "Fecundin", "\u03944-Androstene-3,17-dione", "NSC 9563", "4-Androstene-3,17-dione"], "SMILES": "CC12C3C(C4C(C)(CC3)C(=O)CC4)CCC1=CC(=O)CC2", "physical_data": {"Molecular Weight": "286.41", "Molecular Formula": "C19H26O2", "Melting Point": "158 \u00b0C"}}