{"cas_no": "63-25-2", "cn_name": "\u7532\u8418\u5a01", "en_name": ["Carbaryl", "1-Naphthalenol, 1-(N-methylcarbamate)", "Carbamic acid, methyl-, 1-naphthyl ester", "1-Naphthalenol, methylcarbamate", "Carbaryl", "Compound 7744", "Experimental Insecticide 7744", "1-Naphthol N-methylcarbamate", "1-Naphthyl methylcarbamate", "1-Naphthyl N-methylcarbamate", "Sevin", "Union Carbide 7744", "Atoxan", "Panam", "Denapon", "Karbosep", "Carbatox 75", "Germain's", "Dicarbam", "ENT 23969", "NAC", "Carbatox", "Carbatox 60", "Karbatox", "Sevin 4", "\u03b1-Naphthalenyl methylcarbamate", "Arylam", "Seffein", "Sevimol", "Monsur", "Vioxan", "\u03b1-Naphthyl methylcarbamate", "Karbatox 75", "Pomex", "NMC 50", "Menaphtam", "Sewin", "Murvin", "Carbaril", "Dyna-carbyl", "Carbavur", "Arilate", "Arilat", "Mugan", "Ravyon", "Carbomate", "Oltitox", "Prosevor 85", "Hexavin", "Vetox", "Karbatox zawiesinowy", "Caprolin", "Thinsec", "NAC (insecticide)", "Carvin", "Sevin 50WP", "XLR-Plus", "Sevin 4L", "Laivin", "Suvamil", "Suvavil L", "Agrex S", "Laivin 85", "Suvamil 50", "Dicarbam 50", "Sevin 75", "Sevin S 50", "Prosevor", "Slam", "Clean Crop Sevin 5 Bait", "Sanol 50", "Carylderm", "OMS 29", "Derbac", "UC 7744", "Clinicide", "NSC 27311", "Vetox 85", "Savite", "Sevin-4-Oil", "Sevin bait", "Sevin XLR", "Sevin XLR plus", "Adios", "Sevnol", "SA 50 Mole Cricket Bait", "Garden Tech Sevin Lawn Insecticide", "Garden Tech Sevin Lawn Insect Granules", "Garden Tech Sevin Concentrate Bug Killer", "Carbaryl 4L", "Bugmaster", "MeSH ID: D012721"], "SMILES": "O(C(NC)=O)C=1C2=C(C=CC1)C=CC=C2", "physical_data": {"Molecular Weight": "201.22", "Molecular Formula": "C12H11NO2", "Boiling Point": "315 \u00b0C", "Melting Point": "145 \u00b0C", "Density": "1.232 g/cm\u00b3 @ Temp: 20 \u00b0C"}}