{"cas_no": "63-38-7", "cn_name": "\u80de\u82f7-5'-\u4e8c\u78f7\u9178", "en_name": ["Cytidine diphosphate", "Cytidine 5\u2032-(trihydrogen diphosphate)", "Cytidine pyrophosphate", "Cytidine 5\u2032-(trihydrogen pyrophosphate)", "CDP", "Cytidine coenzyme", "Cytidine 5\u2032-diphosphate", "Cytidine, mono(trihydrogen diphosphate) (ester)", "Cytidine 5\u2032-pyrophosphate", "Cytidine diphosphate", "5\u2032-CDP", "MeSH ID: D003565"], "SMILES": "OC1C(OC(COP(OP(=O)(O)O)(=O)O)C1O)N2C(=O)N=C(N)C=C2", "physical_data": {"Molecular Weight": "403.18", "Molecular Formula": "C9H15N3O11P2", "Melting Point": "183 \u00b0C (decomp)"}}