{"cas_no": "63-37-6", "cn_name": "5'-\u80de\u82f7\u9178", "en_name": ["Cytidine 5\u2032-monophosphate", "5\u2032-Cytidylic acid", "5\u2032-CMP", "CMP", "Cytidine monophosphate", "Cytidine 5\u2032-monophosphate", "Cytidine 5\u2032-phosphate", "Cytidine 5\u2032-phosphoric acid", "Cytidylic acid", "Cytidine, mono(dihydrogen phosphate) (ester)", "Cytidine 5\u2032-monophosphoric acid", "Cytidine 5\u2032-(dihydrogen phosphate)", "CMP (nucleotide)", "Cytosine 5\u2032-monophosphate", "MeSH ID: D003568"], "SMILES": "OC1C(OC(COP(=O)(O)O)C1O)N2C(=O)N=C(N)C=C2", "physical_data": {"Molecular Weight": "323.20", "Molecular Formula": "C9H14N3O8P", "Melting Point": "225 \u00b0C"}}