{"cas_no": "63-45-6", "cn_name": "\u78f7\u9178\u4f2f\u6c28\u55b9", "en_name": ["Primaquine diphosphate", "1,4-Pentanediamine, N4-(6-methoxy-8-quinolinyl)-, phosphate (1:2)", "Quinoline, 8-[(4-amino-1-methylbutyl)amino]-6-methoxy-, phosphate (1:2)", "Quinoline, 8-[(4-amino-1-methylbutyl)amino]-6-methoxy-, diphosphate", "8-(4-Amino-1-methylbutylamino)-6-methoxyquinoline di(dihydrogen phosphate)", "8-(4-Amino-1-methylbutylamino)-6-methoxyquinoline diphosphate", "Primaquine diphosphate", "Primaquine phosphate", "WR 2975", "NSC 149765", "Pharmaniaga", "Camden", "Malquine", "Primaquine bisphosphate"], "SMILES": "N(C(CCCN)C)C=1C2=C(C=C(OC)C1)C=CC=N2.P(=O)(O)(O)O", "physical_data": {"Molecular Weight": "", "Molecular Formula": "C15H21N3O.2H3O4P", "Melting Point": "197-198 \u00b0C"}}