{"cas_no": "63-42-3", "cn_name": "\u4e73\u7cd6", "en_name": ["(+)-Lactose", "D-Glucose, 4-O-\u03b2-D-galactopyranosyl-", "Lactose", "4-O-\u03b2-D-Galactopyranosyl-D-glucose", "Lactin", "Lactobiose", "Milk sugar", "Saccharum lactin", "Lactin (carbohydrate)", "(+)-Lactose", "Lactose anhydrous", "Aletobiose", "Galactinum", "Osmolactan", "D-(+)-Lactose", "Tablettose", "Fast-flo", "AHL", "Zeparox EP", "Lactose Fast-flo", "Fast-Flo Lactose", "Pharmatose 21", "Pharmatose 325M", "Nonpareil 107", "Tablettose 70", "Lactose anhydride", "Flowlac 100", "Tablettose 80", "Super-Tab", "Pharmatosa DCL 21", "Sorbalac 400", "DCl 11", "Granulac 140M", "Respitose SV 003", "Prismalac", "Sachelac", "Spherolac", "Pharmatose DCL 15", "Respitose ML 003", "Lactohale 300", "Sorbolac 400", "Dilactose", "Lactose Edible 90", "SuperTab 21AN", "Respitose ML 001", "Granulac 70", "Granulac 140", "Lactohale 100", "Lactohale 200", "Variolac 960", "PrenoLakt", "SuperTab 11SD", "Respitose ML 006", "DCL 15", "Inhalac 70", "Dairylac 80", "Respitose SV 010", "Respitose MC 001", "LE-PRO LAC 451", "Lactose DCL 11", "Inhalac 250", "Tablettose 100", "America Grand Lactose", "GranuLac", "FlowLac", "DuraLacH", "Hilmar Extra Fine", "Lactose DCL 21", "Hilmar Fine Graind", "Lactopure Refined Powder", "Respitose SV 001", "Hilmar 5030", "Leprino 100", "MeSH ID: D007785"], "SMILES": "O(C(C(C(C=O)O)O)C(CO)O)C1OC(CO)C(O)C(O)C1O", "physical_data": {"Molecular Weight": "342.30", "Molecular Formula": "C12H22O11", "Melting Point": "201-202 \u00b0C", "Density": "1.52 g/cm\u00b3"}}