{"cas_no": "63-56-9", "cn_name": "\u76d0\u9178\u5627\u5576\u4e8c\u80fa", "en_name": ["Thonzylamine hydrochloride", "1,2-Ethanediamine, N1-[(4-methoxyphenyl)methyl]-N2,N2-dimethyl-N1-2-pyrimidinyl-, hydrochloride (1:1)", "Pyrimidine, 2-[[2-(dimethylamino)ethyl](p-methoxybenzyl)amino]-, monohydrochloride", "1,2-Ethanediamine, N-[(4-methoxyphenyl)methyl]-N\u2032,N\u2032-dimethyl-N-2-pyrimidinyl-, monohydrochloride", "Pyrimidine, 2-[[2-(dimethylamino)ethyl](p-methoxybenzyl)amino]-, hydrochloride", "Anahist", "2-[(2-Dimethylaminoethyl)(p-methoxybenzyl)amino]pyrimidine hydrochloride", "N,N-Dimethyl-N\u2032-(p-methoxybenzyl)-N\u2032-(2-pyrimidyl)ethylenediamine hydrochloride", "N-p-Methoxybenzyl-N\u2032,N\u2032-dimethyl-N-2-pyrimidinylethylene diamine hydrochloride", "Neohetramine hydrochloride", "Resistab", "Thonzylaminium chloride", "Thonzylamine hydrochloride", "NH 188", "Super Anahist", "Tonamil"], "SMILES": "N(CC1=CC=C(OC)C=C1)(CCN(C)C)C=2N=CC=CN2.Cl", "physical_data": {"Molecular Weight": "", "Molecular Formula": "C16H22N4O.ClH", "Melting Point": "174.5 \u00b0C"}}