{"cas_no": "63-68-3", "cn_name": "L-\u86cb\u6c28\u9178", "en_name": ["l-Methionine", "L-Methionine", "Methionine, L-", "Cymethion", "Methionine", "Butanoic acid, 2-amino-4-(methylthio)-, (S)-", "2-Amino-4-(methylthio)butyric acid", "S-Methionine", "\u03b1-Amino-\u03b3-methylmercaptobutyric acid", "\u03b3-Methylthio-\u03b1-aminobutyric acid", "(S)-2-Amino-4-(methylthio)butanoic acid", "l-Methionine", "L-\u03b1-Amino-\u03b3-methylthiobutyric acid", "L-Homocysteine, S-methyl-", "h-Met-oh", "Acimethin", "NSC 22946", "S-Methyl-L-homocysteine", "Secretory peptide (human clone HTXDU73)", "Methiorep", "Meth-o-Tas", "(2S)-2-Azaniumyl-4-methylsulfanylbutanoate", "(2S)-2-Amino-4-(methylsulfanyl)butanoic acid", "(S)-4-(Methylthio)-2-aminobutanoic acid", "1: PN: WO2022093718 PAGE: 104 claimed sequence", "25: PN: WO2022159448 SEQID: 25 claimed protein", "2: PN: WO2022269549 PAGE: 98 claimed sequence", "MeSH ID: D008715"], "SMILES": "C(C(O)=O)(CCSC)N", "physical_data": {"Molecular Weight": "149.21", "Molecular Formula": "C5H11NO2S", "Boiling Point": "123-126 \u00b0C @ Press: 15 Torr", "Melting Point": "280-282 \u00b0C (decomp)"}}