{"cas_no": "63-75-2", "cn_name": "\u69df\u6994\u78b1", "en_name": ["Arecoline", "3-Pyridinecarboxylic acid, 1,2,5,6-tetrahydro-1-methyl-, methyl ester", "Nicotinic acid, 1,2,5,6-tetrahydro-1-methyl-, methyl ester", "Arecoline", "Arecaidine methyl ester", "Arecoline base", "Methyl 1,2,5,6-tetrahydro-1-methylnicotinate", "3-Methoxycarbonyl-1-methyl-1,2,5,6-tetrahydropyridine", "Methyl N-methyl-1,2,5,6-tetrahydronicotinate", "Arecolin", "Methyl arecaidin", "NSC 56321", "Methylarecaidine", "1-Methyl-1,2,5,6-tetrahydro-pyridine-3-carboxylic acid methyl ester", "MeSH ID: D001115"], "SMILES": "C(OC)(=O)C=1CN(C)CCC1", "physical_data": {"Molecular Weight": "155.19", "Molecular Formula": "C8H13NO2", "Boiling Point": "209 \u00b0C", "Melting Point": "&lt;25 \u00b0C", "Density": "1.0495 g/cm\u00b3 @ Temp: 20 \u00b0C"}}