{"cas_no": "63-74-1", "cn_name": "\u7ed3\u6676\u78fa\u80fa", "en_name": ["Sulfanilamide", "Benzenesulfonamide, 4-amino-", "Sulfanilamide", "4-Aminobenzenesulfonamide", "F 1162", "Albexan", "Albosal", "Ambeside", "p-Aminobenzenesulfonamide", "4-Aminophenylsulfonamide", "p-Anilinesulfonamide", "Antistrept", "Astreptine", "Astrocid", "Bacteramid", "Bactesid", "Collomide", "Colsulanyde", "Copticide", "Deseptyl", "Ergaseptine", "Erysipan", "Estreptocida", "Fourneau 1162", "Gerison", "Gombardol", "Lusil", "Lysococcine", "Neococcyl", "Orgaseptine", "PABS", "Prontalbin", "Prontosil I", "Prontosil Album", "Prontosil white", "Prontylin", "Pronzin Album", "Proseptal", "Proseptine", "Proseptol", "Pysococcine", "Rubiazol A", "Sanamid", "Septamide Album", "Septanilam", "Septinal", "Septolix", "Septoplex", "Septoplix", "Stopton Album", "Stramid", "Strepamide", "Strepsan", "Streptagol", "Streptamid", "Streptasol", "Streptocid album", "Streptoclase", "Streptocom", "Strepton", "Streptosil", "Streptozol", "Streptozone", "p-Sulfamidoaniline", "Sulfamidyl", "Sulfamine", "Sulfana", "Sulfanalone", "Sulfanil", "Sulfocidine", "Sulphanilamide", "Therapol", "White streptocide", "Sulfonamide P", "Dipron", "p-Aminophenylsulfonamide", "A-349", "Sulphonamide", "Sulfonamide", "Sulfonylamide", "4-Sulfamoylaniline", "Streptocid", "p-Sulfamoylaniline", "Streptocide (white)", "Exoseptoplix", "Sulfanidyl", "Tolder", "Infepan", "Streptopan", "Streptocide", "4-(Aminosulfonyl)aniline", "Ro 1-3354", "1162F", "Sulfanilamide Vaginal Cream", "(4-(Aminosulfonyl)phenyl)amine", "NSC 7618", "4-Aminobenzene-1-sulfonamide", "Azol", "Sulfonamid", "4-Aminobenzenesulfonic acid amide"], "SMILES": "S(N)(=O)(=O)C1=CC=C(N)C=C1", "physical_data": {"Molecular Weight": "172.20", "Molecular Formula": "C6H8N2O2S", "Melting Point": "165.5 \u00b0C", "Density": "1.08 g/cm\u00b3 @ Temp: 25 \u00b0C"}}