{"cas_no": "63-89-8", "cn_name": "\u4e8c\u68d5\u6988\u9178\u78f7\u8102\u9170\u80c6\u78b1", "en_name": ["1,2-Dipalmitoyl-sn-glycero-3-phosphocholine", "3,5,9-Trioxa-4-phosphapentacosan-1-aminium, 4-hydroxy-N,N,N-trimethyl-10-oxo-7-[(1-oxohexadecyl)oxy]-, inner salt, 4-oxide, (7R)-", "Choline, hydroxide, dihydrogen phosphate, inner salt, ester with 1,2-dipalmitin, L-", "3,5,9-Trioxa-4-phosphapentacosan-1-aminium, 4-hydroxy-N,N,N-trimethyl-10-oxo-7-[(1-oxohexadecyl)oxy]-, hydroxide, inner salt, 4-oxide, (R)-", "Palmitin, 1,2-di-, dihydrogen phosphate, monoester with choline hydroxide, inner salt, L-", "1,2-Dipalmitoyl-L-phosphatidylcholine", "\u03b2,\u03b3-Dipalmitoyl-L-phosphatidylcholine", "L-\u03b1-Dipalmitoyllecithin", "1,2-Dipalmitoyl-L-lecithin", "Dipalmitoyl-L-lecithin", "\u03b2,\u03b3-Dipalmitoyl-L-(\u03b1)-lecithin", "Dipalmitoyl-L-\u03b1-phosphatidylcholine", "1,2-Dipalmitoyl-L-3-phosphatidylcholine", "L-Dipalmitoylphosphatidylcholine", "1,2-Dipalmitoyl-3-sn-phosphatidylcholine", "1,2-Dipalmitoyl-L-\u03b1-lecithin", "1,2-Dipalmitoyl-sn-glycero-3-phosphorylcholine", "Dipalmitoyl-L-3-glycerylphosphorylcholine", "1,2-L-\u03b1-Dipalmitoylphosphatidylcholine", "\u03b2,\u03b3-Dipalmitoyl L-\u03b1-phosphatidylcholine", "1,2-Dipalmitoyl-sn-glycero-3-phosphorylcholine", "1,2-Dipalmitoyl-sn-glycerophosphocholine", "1,2-Dipalmitoyl-sn-glycerophosphorylcholine", "sn-3-Dipalmitoyllecithin", "1,2-Dipalmitoyl-sn-glycerol-3-phosphocholine", "L-1,2-Dipalmitoyl-\u03b1-lecithin", "L-\u03b1-1,2-Dipalmitoyl lecithin", "L-\u03b2,\u03b3-Dipalmitoylphosphatidylcholine", "L-\u03b2,\u03b3-Dipalmitoyl-\u03b1-lecithin", "1,2-Dihexadecanoyl-sn-glycero-3-phosphorylcholine", "L-\u03b1-Dipalmitoylphosphatidylcholine", "1,2-Dipalmitoyl-sn-3-glycerophosphocholine", "L-\u03b1-Dipalmitoylecithin", "1,2-Dipalmitoyl-L-\u03b1-phosphatidylcholine", "Dipalmitoyl-L-\u03b1-lecithin", "L-Dipalmitoyl lecithin", "L-\u03b2,\u03b3-Dipalmitoyl-\u03b1-phosphatidylcholine", "Dipalmitoyl L-\u03b1-phosphatidylcholine", "Dipalmitoyl-sn-3-phosphatidylcholine", "1,2-Dihexadecanoyl-sn-glycerol-3-phosphorylcholine", "1,2-Dipalmitoyl-sn-phosphatidylcholine", "DPPC", "L-1,2-Dipalmitoylphosphatidylcholine", "1,2-Dipalmitoyl-sn-glyceryl-3-phosphocholine", "Colfosceril palmitate", "1,2-Bis(palmitoyl)-sn-glycero-3-phosphocholine", "Dipalmitoylphosphatidylcholine", "129Y83", "3,5,9-Trioxa-4-phosphapentacosan-1-aminium, 4-hydroxy-N,N,N-trimethyl-10-oxo-7-[(1-oxohexadecyl)oxy]-, inner salt, 4-oxide, (R)-", "1,2-Bis(hexadecanoyl)-sn-glycero-3-phosphocholine", "1,2-Dipalmitoyl-sn-glycero-3-phosphocholine", "L-DPPC", "1,2-Dipalmitoylglycero-3-phosphocholine", "L-\u03b1-DPPC", "Dihexadecanoyl-sn-glycero-3-phosphocholine", "1,2-Dipalmitoyl-sn-glycero-3-phosphatidylcholine", "1,2-Dihexadecanoyl-sn-glycero-3-phosphocholine", "1,2-Dipalmitoyl-sn-glycero-3-phosphocholine", "L-\u03b1-Lecithin", "1,2-Dipalmitoyl-3-sn-phosphatidylcholine", "L-Dipalmitoyl phosphatidylcholine", "55: PN: WO2017201317 SEQID: 128 claimed RNA", "Dipalmitoyl-sn-glycero-3-phosphocholine", "1,2-Dipalmitoyl-sn-glycerol-3-phosphocholine", "1,2-Dipalmitoyl-sn-glycero-3-phosphatidylcholine", "(R)-2,3-Bis(palmitoyloxy)propyl (2-(trimethylammonio)ethyl) phosphate", "[(2R)-2,3-Di(hexadecanoyloxy)propyl] 2-(trimethylazaniumyl)ethyl phosphate", "1,2-Palmitoyl-sn-glycero-3-phosphocholine", "1,2-Dispalmitoyl-sn-phosphatidylcholine", "1,2-Dihexadecanoyl-sn-glycero-3-phosphocholine", "Coatsome MC 6060"], "SMILES": "C(OC(CCCCCCCCCCCCCCC)=O)(COP(OCC[N+](C)(C)C)(=O)[O-])COC(CCCCCCCCCCCCCCC)=O", "physical_data": {"Molecular Weight": "", "Molecular Formula": "C40H80NO8P", "Melting Point": "234 \u00b0C"}}