{"cas_no": "63-84-3", "cn_name": "DL-\u591a\u5df4", "en_name": ["DL-DOPA", "Tyrosine, 3-hydroxy-", "Alanine, 3-(3,4-dihydroxyphenyl)-, DL-", "DL-Tyrosine, 3-hydroxy-", "3-Hydroxytyrosine", "(\u00b1)-3,4-Dihydroxyphenylalanine", "DL-Dioxyphenylalanine", "DL-3,4-Dihydroxyphenylalanine", "DL-3,4-DOPA", "DL-DOPA", "(\u00b1)-DOPA", "DL-Dihydroxyphenylalanine", "3-(3,4-Dihydroxyphenyl)-DL-alanine", "3,4-Dihydroxy-DL-phenylalanine", "(\u00b1)-3-(3,4-Dihydroxyphenyl)alanine", "3\u2032,4\u2032-Dihydroxyphenylalanine", "(R,S)-DOPA", "DL-\u03b2-(3,4-Dihydroxyphenyl)alanine", "DL-3-Hydroxytyrosine", "3,4-Dihydroxyphenylalanine", "Hydrocaffeic acid, \u03b1-amino-", "3-(3,4-Dihydroxyphenyl)alanine", "Phenylalanine, 3,4-dihydroxy-", "Benzenepropanoic acid, \u03b1-amino-3,4-dihydroxy-", "\u03b2-(3,4-Dihydroxyphenyl)-\u03b1-alanine", "2-Amino-3-(3,4-dihydroxyphenyl)propanoic acid", "DL-4,5-Dihydroxyphenylalanine", "NSC 16940", "DL-DOPA"], "SMILES": "C(C(C(O)=O)N)C1=CC(O)=C(O)C=C1", "physical_data": {"Molecular Weight": "197.19", "Molecular Formula": "C9H11NO4", "Melting Point": "270 \u00b0C (decomp)"}}