{"cas_no": "63-92-3", "cn_name": "\u76d0\u9178\u915a\u82c4\u660e", "en_name": ["Phenoxybenzamine hydrochloride", "Benzenemethanamine, N-(2-chloroethyl)-N-(1-methyl-2-phenoxyethyl)-, hydrochloride (1:1)", "Benzylamine, N-(2-chloroethyl)-N-(1-methyl-2-phenoxyethyl)-, hydrochloride", "Benzenemethanamine, N-(2-chloroethyl)-N-(1-methyl-2-phenoxyethyl)-, hydrochloride", "2-(N-Benzyl-2-chloroethylamino)-1-phenoxypropane hydrochloride", "N-(2-Chloroethyl)-N-(1-methyl-2-phenoxyethyl)benzylamine, hydrochloride", "Dibenzyline hydrochloride", "Phenoxybenzamine chloride", "Phenoxybenzamine hydrochloride", "N-2-Phenoxyisopropyl-N-benzyl-\u03b2-chloroethylamine hydrochloride", "Dibenzyline chloride", "Dibenzylin", "Dibenzyran", "NSC 37448"], "SMILES": "C(N(C(COC1=CC=CC=C1)C)CCCl)C2=CC=CC=C2.Cl", "physical_data": {"Molecular Weight": "", "Molecular Formula": "C18H22ClNO.ClH", "Melting Point": "137.5-140 \u00b0C"}}