{"cas_no": "63-99-0", "cn_name": "\u95f4\u7532\u82ef\u8132", "en_name": ["N-(3-Methylphenyl)urea", "Urea, N-(3-methylphenyl)-", "Urea, m-tolyl-", "Urea, (3-methylphenyl)-", "N-(3-Methylphenyl)urea", "m-Tolylcarbamide", "m-Tolylurea", "3-Methylphenylurea", "3-Tolylurea", "m-Methylphenylurea", "N-m-Tolylurea", "NSC 2177"], "SMILES": "N(C(N)=O)C1=CC(C)=CC=C1", "physical_data": {"Molecular Weight": "150.18", "Molecular Formula": "C8H10N2O", "Melting Point": "143 \u00b0C"}}