{"cas_no": "63-91-2", "cn_name": "L-\u82ef\u4e19\u6c28\u9178", "en_name": ["L-Phenylalanine", "L-Phenylalanine", "Alanine, phenyl-, L-", "(S)-\u03b1-Aminohydrocinnamic acid", "(S)-\u03b1-Amino-\u03b2-phenylpropionic acid", "Phenylalanine", "\u03b2-Phenyl-L-alanine", "\u03b2-Phenyl-\u03b1-alanine", "Antibiotic FN 1636", "Benzenepropanoic acid, \u03b1-amino-, (S)-", "Phenyl-\u03b1-alanine", "3-Phenyl-L-alanine", "3-Phenylalanine", "(S)-Phenylalanine", "(S)-\u03b1-Aminobenzenepropanoic acid", "(S)-2-Amino-3-phenylpropionic acid", "L-Alanine, 3-phenyl-", "(S)-2-Amino-3-phenylpropanoic acid", "(S)-(-)-Phenylalanine", "(-)-Phenylalanine", "L-(-)-Phenylalanine", "NSC 79477", "(2S)-2-Amino-3-phenylpropanoic acid", "(2s)-2-Amino-3-phenylpropanoic acid", "386: PN: WO2022056313 SEQID: 392 claimed protein", "MeSH ID: D010649"], "SMILES": "C(C(C(O)=O)N)C1=CC=CC=C1", "physical_data": {"Molecular Weight": "165.19", "Molecular Formula": "C9H11NO2", "Melting Point": "283 \u00b0C (decomp)", "Density": "1.24 g/cm\u00b3"}}