{"cas_no": "63-98-9", "cn_name": "\u82ef\u4e59\u9170\u8132", "en_name": ["Phenacemide", "Benzeneacetamide, N-(aminocarbonyl)-", "Urea, (phenylacetyl)-", "N-(Aminocarbonyl)benzeneacetamide", "Epiclase", "Phacetur", "Phenacemide", "Phenacetylcarbamide", "Phenacetylurea", "(Phenylacetyl)urea", "\u03b1-Phenylacetylurea", "Cetylureum", "Phenacetur", "Phenicarb", "Fenacemid", "Phenutal", "Phenacalum", "Neophedan", "Phetylureum", "NSC 39458", "(2-Phenylacetyl)urea"], "SMILES": "C(C(NC(N)=O)=O)C1=CC=CC=C1", "physical_data": {"Molecular Weight": "178.19", "Molecular Formula": "C9H10N2O2", "Boiling Point": "208 \u00b0C", "Melting Point": "212-216 \u00b0C"}}