{"cas_no": "630-06-8", "cn_name": "\u6b63\u4e09\u5341\u516d\u70f7", "en_name": ["Hexatriacontane", "Hexatriacontane", "n-Hexatriacontane", "NSC 407536"], "SMILES": "C(CCCCCCCCCCCCCCCCCC)CCCCCCCCCCCCCCCCC", "physical_data": {"Molecular Weight": "506.97", "Molecular Formula": "C36H74", "Boiling Point": "298.4 \u00b0C", "Melting Point": "76.5 \u00b0C", "Density": "0.7819 g/cm\u00b3"}}