{"cas_no": "630-19-3", "cn_name": "\u7279\u620a\u919b", "en_name": ["Pivalaldehyde", "Propanal, 2,2-dimethyl-", "Pivalaldehyde", "Pivaldehyde", "2,2-Dimethylpropanal", "Trimethylacetaldehyde", "Neopentanal", "Pivalic aldehyde", "2,2-Dimethylpropionaldehyde", "\u03b1,\u03b1-Dimethylpropionaldehyde", "\u03b1,\u03b1-Dimethylpropanal", "tert-Valeraldehyde", "Neopentaldehyde", "tert-Butylformaldehyde", "2,2-Dimethylpropanaldehyde", "tert-Pentanal", "NSC 22043", "tert-Butyraldehyde", "2,2\u2032-Dimethylpropanal"], "SMILES": "C(C=O)(C)(C)C", "physical_data": {"Molecular Weight": "86.13", "Molecular Formula": "C5H10O", "Boiling Point": "77.5 \u00b0C", "Melting Point": "6 \u00b0C", "Density": "0.771 g/cm\u00b3 @ Temp: 20 \u00b0C"}}