{"cas_no": "630-08-0", "cn_name": "\u4e00\u6c27\u5316\u78b3", "en_name": ["Carbon monoxide", "Carbon monoxide", "Carbon oxide (CO)", "Carbon monooxide", "N 37", "HBI 002"], "SMILES": "[C-]#[O+]", "physical_data": {"Molecular Weight": "", "Molecular Formula": "CO", "Boiling Point": "-191.5 \u00b0C", "Melting Point": "-205 \u00b0C", "Density": "1.25 x 10<sup>-3</sup> g/cm\u00b3 @ Temp: 0 \u00b0C"}}