{"cas_no": "630-01-3", "cn_name": "\u6b63\u4e8c\u5341\u516d\u70f7", "en_name": ["Hexacosane", "Hexacosane", "n-Hexacosane", "NSC 122457"], "SMILES": "C(CCCCCCCCCCCCC)CCCCCCCCCCCC", "physical_data": {"Molecular Weight": "366.71", "Molecular Formula": "C26H54", "Boiling Point": "412.2 \u00b0C", "Melting Point": "56.4 \u00b0C", "Density": "0.7691 g/cm\u00b3 @ Temp: 89 \u00b0C"}}