{"cas_no": "630-03-5", "cn_name": "\u6b63\u4e8c\u5341\u4e5d\u70f7", "en_name": ["Nonacosane", "Nonacosane", "Celidoniol, deoxy-", "n-Nonacosane"], "SMILES": "C(CCCCCCCCCCCCCC)CCCCCCCCCCCCCC", "physical_data": {"Molecular Weight": "408.79", "Molecular Formula": "C29H60", "Boiling Point": "440.8 \u00b0C", "Melting Point": "63.7 \u00b0C"}}