{"cas_no": "630-20-6", "cn_name": "1,1,1,2-\u56db\u6c2f\u4e59\u70f7", "en_name": ["1,1,1,2-Tetrachloroethane", "Ethane, 1,1,1,2-tetrachloro-", "1,1,1,2-Tetrachloroethane", "(Chloromethyl)trichloromethane", "TCA", "F 130a", "HCC 130a", "Tetrachloroethane"], "SMILES": "C(CCl)(Cl)(Cl)Cl", "physical_data": {"Molecular Weight": "167.85", "Molecular Formula": "C2H2Cl4", "Boiling Point": "130.5 \u00b0C @ Press: 760 Torr", "Melting Point": "-70.2 \u00b0C", "Density": "1.5406 g/cm\u00b3 @ Temp: 20 \u00b0C"}}