{"cas_no": "630-60-4", "cn_name": "G\u6bd2\u6bdb\u65cb\u82b1\u82f7", "en_name": ["Ouabain", "Card-20(22)-enolide, 3-[(6-deoxy-\u03b1-L-mannopyranosyl)oxy]-1,5,11,14,19-pentahydroxy-, (1\u03b2,3\u03b2,5\u03b2,11\u03b1)-", "Ouabain", "(1\u03b2,3\u03b2,5\u03b2,11\u03b1)-3-[(6-Deoxy-\u03b1-L-mannopyranosyl)oxy]-1,5,11,14,19-pentahydroxycard-20(22)-enolide", "g-Strophanthin", "Acocantherin", "Astrobain", "Gratibain", "Gratus strophanthin", "Purostrophan", "Strophoperm", "Ouabaine", "Kombetin", "Strophosan", "Rectobaina", "Uabaina", "Solufantina", "Strophalen", "g-Strophicor", "Strodival", "Uabanin", "NSC 25485", "MeSH ID: D010042"], "SMILES": "C(O)C12C3C(C4(O)C(C)(CC3O)C(CC4)C=5COC(=O)C5)CCC1(O)CC(OC6C(O)C(O)C(O)C(C)O6)CC2O", "physical_data": {"Molecular Weight": "584.65", "Molecular Formula": "C29H44O12", "Melting Point": "200 \u00b0C"}}