{"cas_no": "630-56-8", "cn_name": "\u5df1\u9178\u5b55\u916e", "en_name": ["Hydroxyprogesterone caproate", "Pregn-4-ene-3,20-dione, 17-[(1-oxohexyl)oxy]-", "Pregn-4-ene-3,20-dione, 17-hydroxy-, hexanoate", "Progesterone, 17-hydroxy-, hexanoate", "Hexanoic acid, ester with 17-hydroxypregn-4-ene-3,20-dione", "17-[(1-Oxohexyl)oxy]pregn-4-ene-3,20-dione", "Delalutin", "3,20-Dioxopregn-4-en-17\u03b1-yl caproate", "Hormofort", "HPC", "17\u03b1-Hydroxypregn-4-ene-3,20-dione caproate", "17\u03b1-Hydroxypregn-4-ene-3,20-dione hexanoate", "17\u03b1-Hydroxyprogesterone n-caproate", "17\u03b1-Hydroxyprogesterone caproate", "17\u03b1-Hydroxyprogesterone hexanoate", "Proluton Depot", "Syngynon", "Hydroxyprogesterone caproate", "Hydroxyprogesterone hexanoate", "Progesterone caproate", "Depo-proluton", "17\u03b1-Caproyloxypregn-4-ene-3,20-dione", "Primolut Depot", "Neolutin", "Pharlon", "Proge", "Hyproval PA", "Lewntogest", "Teralutil", "NSC 17592", "Procyte Depo", "17\u03b1-Caproyloxyprogesterone", "17\u03b1-Caproyloxy-P4", "17-Caproxyprogesterone"], "SMILES": "O(C(CCCCC)=O)C1(C(C)=O)C2(C)C(CC1)C3C(CC2)C4(C)C(CC3)=CC(=O)CC4", "physical_data": {"Molecular Weight": "428.60", "Molecular Formula": "C27H40O4", "Melting Point": "119-121 \u00b0C"}}