{"cas_no": "630-02-4", "cn_name": "\u4e8c\u5341\u516b\u70f7", "en_name": ["Octacosane", "Octacosane", "n-Octacosane", "NSC 5549"], "SMILES": "C(CCCCCCCCCCCCCC)CCCCCCCCCCCCC", "physical_data": {"Molecular Weight": "394.76", "Molecular Formula": "C28H58", "Boiling Point": "431.6 \u00b0C", "Melting Point": "64.5 \u00b0C"}}