{"cas_no": "630-76-2", "cn_name": "\u56db\u82ef\u57fa\u7532\u70f7", "en_name": ["1,1\u2032,1\u2032\u2032,1\u2032\u2032\u2032-Methanetetrayltetrakis[benzene]", "Benzene, 1,1\u2032,1\u2032\u2032,1\u2032\u2032\u2032-methanetetrayltetrakis-", "Methane, tetraphenyl-", "1,1\u2032,1\u2032\u2032,1\u2032\u2032\u2032-Methanetetrayltetrakis[benzene]", "Tetraphenylmethane", "NSC 43332", "1,1\u2032,1\u2032\u2032,1\u2032\u2032\u2032-Methanetetrayltetrabenzene"], "SMILES": "C(C1=CC=CC=C1)(C2=CC=CC=C2)(C3=CC=CC=C3)C4=CC=CC=C4", "physical_data": {"Molecular Weight": "320.43", "Molecular Formula": "C25H20", "Boiling Point": "431 \u00b0C", "Melting Point": "282 \u00b0C", "Density": "0.922274 g/cm\u00b3 @ Temp: 25 \u00b0C"}}