{"cas_no": "630-94-4", "cn_name": "\u53bb\u6c22\u94a9\u85e4\u78b1", "en_name": ["Corynoxeine", "Spiro[3H-indole-3,1\u2032(5\u2032H)-indolizine]-7\u2032-acetic acid, 6\u2032-ethenyl-1,2,2\u2032,3\u2032,6\u2032,7\u2032,8\u2032,8\u2032a-octahydro-\u03b1-(methoxymethylene)-2-oxo-, methyl ester, (\u03b1E,1\u2032R,6\u2032R,7\u2032S,8\u2032aS)-", "Corynoxan-16-carboxylic acid, 16,17,18,19-tetradehydro-17-methoxy-2-oxo-, methyl ester, (7\u03b2,16E,20\u03b1)-", "Corynoxeine", "Spiro[3H-indole-3,1\u2032(5\u2032H)-indolizine]-7\u2032-acetic acid, 6\u2032-ethenyl-1,2,2\u2032,3\u2032,6\u2032,7\u2032,8\u2032,8\u2032a-octahydro-\u03b1-(methoxymethylene)-2-oxo-, methyl ester, [1\u2032R-[1\u2032\u03b1,6\u2032\u03b2,7\u2032\u03b1(E),8\u2032a\u03b2]]-", "\u039418-Rhyncophylline", "\u03b418-Rhynchophylline", "Corynoxein"], "SMILES": "O=C1C2(C3N(CC2)CC(C=C)C(C(C(OC)=O)=COC)C3)C=4C(N1)=CC=CC4", "physical_data": {"Molecular Weight": "382.45", "Molecular Formula": "C22H26N2O4", "Melting Point": "210 \u00b0C"}}