{"cas_no": "630-25-1", "cn_name": "1,2-\u4e8c\u6eb4\u56db\u6c2f\u4e59\u70f7", "en_name": ["1,2-Dibromo-1,1,2,2-tetrachloroethane", "Ethane, 1,2-dibromo-1,1,2,2-tetrachloro-", "1,2-Dibromo-1,1,2,2-tetrachloroethane", "DBTCE", "1,2-Dibromotetrachloroethane", "sym-Dibromotetrachloroethane"], "SMILES": "C(C(Br)(Cl)Cl)(Br)(Cl)Cl", "physical_data": {"Molecular Weight": "325.64", "Molecular Formula": "C2Br2Cl4", "Melting Point": "202.5 \u00b0C"}}