{"cas_no": "630-04-6", "cn_name": "\u6b63\u4e09\u5341\u4e00\u70f7", "en_name": ["Hentriacontane", "Hentriacontane", "n-Hentriacontane", "Untriacontane"], "SMILES": "C(CCCCCCCCCCCCCCC)CCCCCCCCCCCCCCC", "physical_data": {"Molecular Weight": "436.84", "Molecular Formula": "C31H64", "Boiling Point": "458 \u00b0C", "Melting Point": "67.9 \u00b0C"}}