{"cas_no": "630-05-7", "cn_name": "\u6b63\u4e09\u5341\u4e09\u70f7", "en_name": ["Tritriacontane", "Tritriacontane", "n-Tritriacontane"], "SMILES": "C(CCCCCCCCCCCCCCCC)CCCCCCCCCCCCCCCC", "physical_data": {"Molecular Weight": "464.89", "Molecular Formula": "C33H68", "Melting Point": "72 \u00b0C"}}