{"cas_no": "630-07-9", "cn_name": "\u6b63\u4e09\u5341\u4e94\u70f7", "en_name": ["Pentatriacontane", "Pentatriacontane", "n-Pentatriacontane", "NSC 125400"], "SMILES": "C(CCCCCCCCCCCCCCCCC)CCCCCCCCCCCCCCCCC", "physical_data": {"Molecular Weight": "492.95", "Molecular Formula": "C35H72", "Boiling Point": "490 \u00b0C", "Melting Point": "75 \u00b0C"}}