{"cas_no": "630-17-1", "cn_name": "1-\u6eb4-2,2-\u4e8c\u7532\u57fa\u4e19\u70f7", "en_name": ["1-Bromo-2,2-dimethylpropane", "Propane, 1-bromo-2,2-dimethyl-", "1-Bromo-2,2-dimethylpropane", "Neopentyl bromide", "2,2-Dimethylpropyl bromide", "2,2-Dimethyl-1-bromopropane", "Bromoneopentane"], "SMILES": "C(CBr)(C)(C)C", "physical_data": {"Molecular Weight": "151.04", "Molecular Formula": "C5H11Br", "Boiling Point": "106 \u00b0C", "Density": "1.200 g/cm\u00b3 @ Temp: 20 \u00b0C"}}