{"cas_no": "630-88-6", "cn_name": "3',6'-\u4e8c\u6c2f\u8367\u5149\u7d20", "en_name": ["3\u2032,6\u2032-Dichlorospiro[isobenzofuran-1(3H),9\u2032-[9H]xanthen]-3-one", "Spiro[isobenzofuran-1(3H),9\u2032-[9H]xanthen]-3-one, 3\u2032,6\u2032-dichloro-", "Fluoran, 3\u2032,6\u2032-dichloro-", "3\u2032,6\u2032-Dichlorospiro[isobenzofuran-1(3H),9\u2032-[9H]xanthen]-3-one", "Fluorescein dichloride", "3\u2032,6\u2032-Dichlorofluoran", "3,6-Dichlorofluorescein", "NSC 231613", "3\u2032,6\u2032-dichlorospiro(phthalide-3,9\u2032-xanthene)", "3\u2032,6\u2032-Dichlorospiro[2-benzofuran-3,9\u2032-xanthene]-1-one"], "SMILES": "O=C1OC2(C=3C1=CC=CC3)C=4C(OC=5C2=CC=C(Cl)C5)=CC(Cl)=CC4", "physical_data": {"Molecular Weight": "369.20", "Molecular Formula": "C20H10Cl2O3", "Melting Point": "255-257 \u00b0C"}}