{"cas_no": "630-10-4", "cn_name": "\u7852\u8132", "en_name": ["Selenourea", "Selenourea", "Urea, seleno-", "Carbamimidoselenoic acid", "2-Selenourea", "Selenouronium", "Isoselenourea", "NSC 227840"], "SMILES": "C(N)(N)=[Se]", "physical_data": {"Molecular Weight": "123.02", "Molecular Formula": "CH4N2Se", "Melting Point": "200 \u00b0C (decomp)"}}