{"cas_no": "630-18-2", "cn_name": "\u4e09\u7532\u57fa\u4e59\u8148", "en_name": ["2,2-Dimethylpropanenitrile", "Propanenitrile, 2,2-dimethyl-", "Pivalonitrile", "2,2-Dimethylpropanenitrile", "tert-Butyl cyanide", "Trimethylacetonitrile", "2,2-Dimethylpropionitrile", "tert-Butylnitrile", "2-Cyano-2-methylpropane", "Neopentanenitrile", "NSC 890"], "SMILES": "C(C#N)(C)(C)C", "physical_data": {"Molecular Weight": "83.13", "Molecular Formula": "C5H9N", "Boiling Point": "106.1 \u00b0C", "Melting Point": "15 \u00b0C"}}