{"cas_no": "630-22-8", "cn_name": "2,2,2-\u4e09\u7532\u57fa\u786b\u4ee3\u4e59\u9170\u80fa", "en_name": ["2,2-Dimethylpropanethioamide", "Propanethioamide, 2,2-dimethyl-", "Propionamide, 2,2-dimethylthio-", "2,2-Dimethylpropanethioamide", "Thiopivalamide", "2,2-Dimethylthiopropionamide", "NSC 381432", "Neopentanethioamide", "2,2,2-Trimethylthioacetamide"], "SMILES": "C(C(N)=S)(C)(C)C", "physical_data": {"Molecular Weight": "117.21", "Molecular Formula": "C5H11NS", "Melting Point": "117-119 \u00b0C"}}