{"cas_no": "6300-04-5", "cn_name": "N,N-\u4e8c\u7532\u57fa-\u0392-\u4e19\u6c28\u9178", "en_name": ["3-(Dimethylamino)propanoic acid", "\u03b2-Alanine, N,N-dimethyl-", "N,N-Dimethyl-\u03b2-alanine", "\u03b2-(N,N-Dimethylamino)propionic acid", "3-(Dimethylamino)propionic acid", "3-(N,N-Dimethylamino)propionic acid", "3-(Dimethylamino)propanoic acid", "NSC 45506", "NSC 73153", "N,N-Dimethylhomoglycine"], "SMILES": "C(CN(C)C)C(O)=O", "physical_data": {"Molecular Weight": "117.15", "Molecular Formula": "C5H11NO2", "Boiling Point": "140-142 \u00b0C @ Press: 0.15 Torr", "Melting Point": "143-144 \u00b0C"}}