{"cas_no": "6301-02-6", "cn_name": "1-\u6c28\u57fa\u6d77\u56e0", "en_name": ["1-Aminohydantoin", "2,4-Imidazolidinedione, 1-amino-", "Hydantoin, 1-amino-", "1-Amino-2,4-imidazolidinedione", "1-Aminohydantoin", "NSC 44144"], "SMILES": "O=C1N(N)CC(=O)N1", "physical_data": {"Molecular Weight": "115.09", "Molecular Formula": "C3H5N3O2", "Melting Point": "195-196 \u00b0C"}}