{"cas_no": "6301-60-6", "cn_name": "4-\u7898\u90bb\u82ef\u4e8c\u7532\u9178", "en_name": ["4-Iodophthalic acid", "1,2-Benzenedicarboxylic acid, 4-iodo-", "Phthalic acid, 4-iodo-", "4-Iodo-1,2-benzenedicarboxylic acid", "4-Iodophthalic acid", "NSC 42483", "4-Iodobenzene-o-dicarboxylic acid"], "SMILES": "C(O)(=O)C1=C(C(O)=O)C=C(I)C=C1", "physical_data": {"Molecular Weight": "292.03", "Molecular Formula": "C8H5IO4", "Melting Point": "180-184 \u00b0C"}}