{"cas_no": "63010-70-8", "cn_name": "4-\u7f9f\u57fa-8-\u6c1f\u55b9\u5549-3-\u7532\u9178", "en_name": ["8-Fluoro-4-hydroxy-3-quinolinecarboxylic acid", "3-Quinolinecarboxylic acid, 8-fluoro-4-hydroxy-", "8-Fluoro-4-hydroxy-3-quinolinecarboxylic acid"], "SMILES": "OC=1C2=C(N=CC1C(O)=O)C(F)=CC=C2", "physical_data": {"Molecular Weight": "207.16", "Molecular Formula": "C10H6FNO3", "Melting Point": "302 \u00b0C"}}