{"cas_no": "6302-02-9", "cn_name": "1-\u5421\u5576-2-\u57fa-2-\u4e19\u916e", "en_name": ["1-(2-Pyridinyl)-2-propanone", "2-Propanone, 1-(2-pyridinyl)-", "2-Propanone, 1-(2-pyridyl)-", "2-Propanone, (2-pyridyl)-", "1-(2-Pyridinyl)-2-propanone", "2-Acetonylpyridine", "(2-Pyridyl)acetone", "1-(2-Pyridyl)acetone", "2-Picolyl methyl ketone", "NSC 42754", "1-(Pyridin-2-yl)acetone", "2-(2-Oxopropan-1-yl)pyridine", "1-Pyridyl-2-propanone"], "SMILES": "C(C(C)=O)C1=CC=CC=N1", "physical_data": {"Molecular Weight": "135.16", "Molecular Formula": "C8H9NO", "Boiling Point": "92 \u00b0C @ Press: 1.5 Torr"}}