{"cas_no": "63024-77-1", "cn_name": "3-(\u6c2f\u7532\u57fa)\u82ef\u7532\u9170\u6c2f", "en_name": ["3-(Chloromethyl)benzoyl chloride", "Benzoyl chloride, 3-(chloromethyl)-", "m-Toluoyl chloride, \u03b1-chloro-", "3-(Chloromethyl)benzoyl chloride", "m-(Chloromethyl)benzoyl chloride", "3-Chloromethylbenzoyl chloride"], "SMILES": "C(Cl)(=O)C1=CC(CCl)=CC=C1", "physical_data": {"Molecular Weight": "189.04", "Molecular Formula": "C8H6Cl2O", "Boiling Point": "149-150 \u00b0C @ Press: 20 Torr"}}