{"cas_no": "6303-58-8", "cn_name": "4-\u82ef\u6c27\u57fa\u4e01\u9178", "en_name": ["4-Phenoxybutyric acid", "Butanoic acid, 4-phenoxy-", "Butyric acid, 4-phenoxy-", "4-Phenoxybutanoic acid", "\u03b3-Phenoxybutyric acid", "4-Phenoxybutyric acid", "NSC 43294", "NSC 64178"], "SMILES": "O(CCCC(O)=O)C1=CC=CC=C1", "physical_data": {"Molecular Weight": "180.20", "Molecular Formula": "C10H12O3", "Boiling Point": "180-185 \u00b0C @ Press: 12 Torr", "Melting Point": "59.5 \u00b0C"}}