{"cas_no": "63038-27-7", "cn_name": "L-\u53d4\u4eae\u6c28\u9178\u7532\u916f\u76d0\u9178\u76d0", "en_name": ["L-Valine, 3-methyl-, methyl ester, hydrochloride (1:1)", "L-Valine, 3-methyl-, methyl ester, hydrochloride (1:1)", "L-Valine, 3-methyl-, methyl ester, hydrochloride", "L-tert-Leucine methyl ester hydrochloride", "Methyl (2S)-2-amino-3,3-dimethylbutanoate hydrochloride", "Methyl (S)-2-amino-3,3-dimethylbutanoate hydrochloride", "L-tert-Butylglycine methyl ester hydrochloride"], "SMILES": "C(C(C)(C)C)(C(OC)=O)N.Cl", "physical_data": {"Molecular Weight": "", "Molecular Formula": "C7H15NO2.ClH", "Melting Point": "174-177 \u00b0C"}}