{"cas_no": "6303-21-5", "cn_name": "\u6b21\u78f7\u9178", "en_name": ["Phosphinic acid", "Phosphinic acid", "Phosphine oxide, hydroxy-", "Hypophosphorous acid", "Phosphonous acid", "Hydroxyphosphine oxide", "Dihydroxyphosphine"], "SMILES": "[PH2](=O)O", "physical_data": {"Molecular Weight": "", "Molecular Formula": "H3O2P", "Melting Point": "23-25 \u00b0C", "Density": "1.479 g/cm\u00b3 @ Temp: 20 \u00b0C"}}