{"cas_no": "6304-89-8", "cn_name": "\u95f4\u4e59\u9170\u82ef\u7532\u9178", "en_name": ["3-(Acetyloxy)benzoic acid", "Benzoic acid, 3-(acetyloxy)-", "Benzoic acid, m-hydroxy-, acetate", "3-(Acetyloxy)benzoic acid", "m-Carboxyphenyl acetate", "3-Acetoxybenzoic acid", "m-Acetoxybenzoic acid", "NSC 43147"], "SMILES": "O(C(C)=O)C1=CC(C(O)=O)=CC=C1", "physical_data": {"Molecular Weight": "180.16", "Molecular Formula": "C9H8O4", "Melting Point": "130 \u00b0C"}}