{"cas_no": "63042-18-2", "cn_name": "\u96cc\u4e8c\u9187-3-\u82ef\u7532\u9178-17-\u4e01\u9178\u916f", "en_name": ["Estra-1,3,5(10)-triene-3,17-diol (17\u03b2)-, 3-benzoate 17-butanoate", "Estra-1,3,5(10)-triene-3,17-diol (17\u03b2)-, 3-benzoate 17-butanoate"], "SMILES": "CC12C(C3C(C=4C(CC3)=CC(OC(=O)C5=CC=CC=C5)=CC4)CC1)CCC2OC(CCC)=O", "physical_data": {"Molecular Weight": "446.58", "Molecular Formula": "C29H34O4", "Melting Point": "128.5-129.0 \u00b0C"}}