{"cas_no": "6304-39-8", "cn_name": "\u8f9b\u9170\u80bc", "en_name": ["Octanoic hydrazide", "Octanoic acid, hydrazide", "Caprylic hydrazide", "Octanoylhydrazine", "Octanoic hydrazide", "Caprylic acid hydrazide", "Capryloylhydrazide", "NSC 227236", "NSC 42947", "Octanoyl hydrazide"], "SMILES": "C(CC(NN)=O)CCCCC", "physical_data": {"Molecular Weight": "158.24", "Molecular Formula": "C8H18N2O", "Melting Point": "87-89 \u00b0C"}}