{"cas_no": "6304-16-1", "cn_name": "1-(4-\u5421\u5576\u57fa)\u4e19\u916e", "en_name": ["4-Pyridylacetone", "2-Propanone, 1-(4-pyridinyl)-", "2-Propanone, 1-(4-pyridyl)-", "2-Propanone, (4-pyridyl)-", "1-(4-Pyridinyl)-2-propanone", "4-Acetonylpyridine", "4-Pyridinylacetone", "Methyl 4-pyridylmethyl ketone", "1-(4-Pyridyl)-2-propanone", "4-Pyridylacetone", "4-(2-Oxopropyl)pyridine", "NSC 42613", "1-(Pyridin-4-yl)propan-2-one", "1-(4-Pyridyl)-acetone", "1-(Pyridin-4-yl)acetone"], "SMILES": "C(C(C)=O)C=1C=CN=CC1", "physical_data": {"Molecular Weight": "135.16", "Molecular Formula": "C8H9NO", "Boiling Point": "76 \u00b0C @ Press: 0.1 Torr"}}