{"cas_no": "6304-24-1", "cn_name": "2-\u5f02\u4e01\u57fa\u5421\u5576", "en_name": ["2-Isobutylpyridine", "Pyridine, 2-(2-methylpropyl)-", "Pyridine, 2-isobutyl-", "2-(2-Methylpropyl)pyridine", "2-Isobutylpyridine", "NSC 42623"], "SMILES": "C(C(C)C)C1=CC=CC=N1", "physical_data": {"Molecular Weight": "135.21", "Molecular Formula": "C9H13N", "Boiling Point": "180-185 \u00b0C", "Density": "0.8973 g/cm\u00b3 @ Temp: 20 \u00b0C"}}