{"cas_no": "6304-27-4", "cn_name": "2-(2-\u4e8c\u7532\u57fa\u6c28\u57fa\u4e59\u57fa)\u5421\u5576", "en_name": ["N,N-Dimethyl-2-pyridineethanamine", "2-Pyridineethanamine, N,N-dimethyl-", "Pyridine, 2-[2-(dimethylamino)ethyl]-", "N,N-Dimethyl-2-pyridineethanamine", "2-[\u03b2-(Dimethylamino)ethyl]pyridine", "N,N-Dimethyl-2-pyridineethylamine", "2-(2-Dimethylaminoethyl)pyridine", "NSC 42626", "Y-G 15"], "SMILES": "C(CN(C)C)C1=CC=CC=N1", "physical_data": {"Molecular Weight": "150.22", "Molecular Formula": "C9H14N2", "Boiling Point": "86-87 \u00b0C @ Press: 7.5 Torr"}}