{"cas_no": "6305-38-0", "cn_name": "alpha-\u6c28\u57fa-gamma-\u4e01\u5185\u916f \u6c22\u6eb4\u9178", "en_name": ["Homoserine lactone hydrobromide", "2(3H)-Furanone, 3-aminodihydro-, hydrobromide (1:1)", "2(3H)-Furanone, 3-aminodihydro-, hydrobromide", "2(3H)-Furanone, 3-aminodihydro-, hydrobromide, (\u00b1)-", "\u03b1-Amino-\u03b3-butyrolactone hydrobromide", "2-Aminobutyrolactone hydrobromide", "2-Amino-4-butyrolactone hydrobromide", "DL-Homoserine lactone hydrobromide", "(\u00b1)-3-Aminodihydro-2(3H)-furanone hydrobromide", "3-Aminodihydro-2(3H)-furanone hydrobromide", "Homoserine lactone hydrobromide", "NSC 41120", "3-Aminooxolan-2-one hydrobromide"], "SMILES": "NC1C(=O)OCC1.Br", "physical_data": {"Molecular Weight": "", "Molecular Formula": "C4H7NO2.BrH", "Melting Point": "221 \u00b0C (decomp)"}}