{"cas_no": "6305-43-7", "cn_name": "1,4-\u4e8c\u6eb4-2,3-\u4e01\u4e8c\u916e", "en_name": ["1,4-Dibromo-2,3-butanedione", "2,3-Butanedione, 1,4-dibromo-", "1,4-Dibromo-2,3-butanedione", "NSC 41130", "NSC 75722"], "SMILES": "C(C(CBr)=O)(CBr)=O", "physical_data": {"Molecular Weight": "243.88", "Molecular Formula": "C4H4Br2O2", "Melting Point": "117 \u00b0C"}}