{"cas_no": "6305-04-0", "cn_name": "2-\u6c2f-4'-\u7f9f\u57fa\u82ef\u4e59\u916e", "en_name": ["2-Chloro-1-(4-hydroxyphenyl)ethanone", "Ethanone, 2-chloro-1-(4-hydroxyphenyl)-", "Acetophenone, 2-chloro-4\u2032-hydroxy-", "2-Chloro-1-(4-hydroxyphenyl)ethanone", "\u03c9-Chloro-4-hydroxyacetophenone", "p-(Chloroacetyl)phenol", "4\u2032-Hydroxy-2-chloroacetophenone", "2-Chloro-4\u2032-hydroxyacetophenone", "4-Hydroxy-\u03b1-chloroacetophenone", "4-Hydroxyphenacyl chloride", "p-Hydroxyphenacyl chloride", "Chlorophenacyle", "NSC 41671", "2-Chloro-1-(4-hydroxyphenyl)ethan-1-one"], "SMILES": "C(CCl)(=O)C1=CC=C(O)C=C1", "physical_data": {"Molecular Weight": "170.59", "Molecular Formula": "C8H7ClO2", "Melting Point": "145-146 \u00b0C"}}