{"cas_no": "6306-39-4", "cn_name": "1,2-\u4e8c\u6c2f-4,5-\u4e8c\u785d\u57fa\u82ef", "en_name": ["1,2-Dichloro-4,5-dinitrobenzene", "Benzene, 1,2-dichloro-4,5-dinitro-", "1,2-Dichloro-4,5-dinitrobenzene", "4,5-Dichloro-1,2-dinitrobenzene", "1,2-Dinitro-4,5-dichlorobenzene", "NSC 22945"], "SMILES": "N(=O)(=O)C1=C(N(=O)=O)C=C(Cl)C(Cl)=C1", "physical_data": {"Molecular Weight": "237.00", "Molecular Formula": "C6H2Cl2N2O4", "Melting Point": "109-110 \u00b0C"}}