{"cas_no": "6306-24-7", "cn_name": "4-\u6c28\u57fa\u78fa\u9170\u57fa\u82ef\u7532\u9170\u80fa", "en_name": ["4-(Aminosulfonyl)benzamide", "Benzamide, 4-(aminosulfonyl)-", "Benzamide, p-sulfamoyl-", "4-(Aminosulfonyl)benzamide", "p-Carboxybenzenesulfonic acid diamide", "4-Carbamoylbenzenesulfonamide", "p-Sulfamoylbenzamide", "4-(Aminocarbonyl)benzenesulfonamide", "NSC 22973"], "SMILES": "S(N)(=O)(=O)C1=CC=C(C(N)=O)C=C1", "physical_data": {"Molecular Weight": "200.21", "Molecular Formula": "C7H8N2O3S", "Melting Point": "238 \u00b0C"}}