{"cas_no": "6306-07-6", "cn_name": "1-\u7f9f\u57fa\u82ca", "en_name": ["(\u00b1)-Acenaphthenol", "1-Acenaphthylenol, 1,2-dihydro-", "1-Acenaphthenol", "1-Acenaphthylenol, 1,2-dihydro-, (\u00b1)-", "1,2-Dihydro-1-acenaphthylenol", "(\u00b1)-Acenaphthenol", "(\u00b1)-1-Acenaphthenol", "NSC 22834", "1-Acenaphthol"], "SMILES": "OC1C=2C3=C(C1)C=CC=C3C=CC2", "physical_data": {"Molecular Weight": "170.21", "Molecular Formula": "C12H10O", "Boiling Point": "183-193 \u00b0C @ Press: 0.5 Torr", "Melting Point": "144-145 \u00b0C"}}