{"cas_no": "63069-48-7", "cn_name": "2-\u7898-4-\u6c2f\u82ef\u80fa", "en_name": ["4-Chloro-2-iodoaniline", "Benzenamine, 4-chloro-2-iodo-", "Aniline, 4-chloro-2-iodo-", "4-Chloro-2-iodobenzenamine", "4-Chloro-2-iodoaniline", "2-Iodo-4-chloroaniline", "(4-Chloro-2-iodophenyl)amine"], "SMILES": "IC1=C(N)C=CC(Cl)=C1", "physical_data": {"Molecular Weight": "253.47", "Molecular Formula": "C6H5ClIN", "Melting Point": "40-41.0 \u00b0C"}}