{"cas_no": "6306-60-1", "cn_name": "2,4-\u4e8c\u6c2f\u82ef\u4e59\u8148", "en_name": ["2,4-Dichlorobenzeneacetonitrile", "Benzeneacetonitrile, 2,4-dichloro-", "Acetonitrile, (2,4-dichlorophenyl)-", "2,4-Dichlorobenzeneacetonitrile", "2-(2,4-Dichlorophenyl)acetonitrile", "2,4-Dichlorobenzyl cyanide", "2,4-Dichlorophenylacetonitrile", "NSC 22988"], "SMILES": "C(C#N)C1=C(Cl)C=C(Cl)C=C1", "physical_data": {"Molecular Weight": "186.04", "Molecular Formula": "C8H5Cl2N", "Boiling Point": "170 \u00b0C @ Press: 12 Torr", "Melting Point": "57-59 \u00b0C"}}