{"cas_no": "6306-52-1", "cn_name": "L-\u7f2c\u6c28\u9178\u7532\u916f\u76d0\u9178\u76d0", "en_name": ["L-Valine, methyl ester, hydrochloride (1:1)", "L-Valine, methyl ester, hydrochloride (1:1)", "L-Valine, methyl ester, hydrochloride", "Valine, methyl ester, hydrochloride, L-", "Methyl L-valinate hydrochloride", "Valine methyl ester hydrochloride", "NSC 197198", "NSC 22920", "Methyl (S)-2-amino-3-methylbutanoate hydrochloride", "Methyl (S)-valinate hydrochloride", "Methyl valinate hydrochloride", "(S)-Valine methyl ester hydrochloride", "Methyl L-valine hydrochloride"], "SMILES": "C(C(OC)=O)(C(C)C)N.Cl", "physical_data": {"Molecular Weight": "", "Molecular Formula": "C6H13NO2.ClH", "Melting Point": "146-149 \u00b0C"}}