{"cas_no": "6307-82-0", "cn_name": "2-\u6c2f-5-\u785d\u57fa\u82ef\u7532\u9178\u7532\u916f", "en_name": ["Methyl 2-chloro-5-nitrobenzoate", "Benzoic acid, 2-chloro-5-nitro-, methyl ester", "Methyl 2-chloro-5-nitrobenzoate", "2-Chloro-5-nitrobenzoic acid methyl ester", "NSC 44287"], "SMILES": "C(OC)(=O)C1=CC(N(=O)=O)=CC=C1Cl", "physical_data": {"Molecular Weight": "215.59", "Molecular Formula": "C8H6ClNO4", "Melting Point": "60-63 \u00b0C"}}