{"cas_no": "6307-35-3", "cn_name": "2-\u6c28\u57fa-5-\u6eb4-6-\u7532\u57fa-4-\u5486\u5627\u5576", "en_name": ["2-Amino-5-bromo-6-methyl-4-pyrimidinol", "4(3H)-Pyrimidinone, 2-amino-5-bromo-6-methyl-", "4(1H)-Pyrimidinone, 2-amino-5-bromo-6-methyl-", "4-Pyrimidinol, 2-amino-5-bromo-6-methyl-", "2-Amino-5-bromo-6-methyl-4(3H)-pyrimidinone", "2-Amino-5-bromo-6-methyl-4-pyrimidinone", "2-Amino-5-bromo-6-methyl-4-pyrimidinol", "5-Bromo-6-methylisocytosine", "U 25166", "NSC 41319", "2-Amino-5-bromo-6-methyl-3,4-dihydropyrimidin-4-one", "2-Amino-5-bromo-6-methyl-1H-pyrimidin-4-one"], "SMILES": "BrC1=C(C)NC(N)=NC1=O", "physical_data": {"Molecular Weight": "204.02", "Molecular Formula": "C5H6BrN3O", "Melting Point": "249-250 \u00b0C"}}