{"cas_no": "6309-61-1", "cn_name": "2,3-\u4e8c\u7f9f\u57fa-6-\u7532\u57fa\u55b9\u5594\u5549", "en_name": ["6-Methylquinoxaline-2,3(1H,4H)-dione", "2,3-Quinoxalinedione, 1,4-dihydro-6-methyl-", "1,4-Dihydro-6-methyl-2,3-quinoxalinedione", "2,3-Dihydroxy-6-methylquinoxaline", "1,4-Dihydro-6-methylquinoxaline-2,3-dione", "6-Methyl-1,4-dihydroquinoxaline-2,3-dione", "NSC 41606", "6-Methylquinoxaline-2,3(1H,4H)-dione", "3-Hydroxy-6-methyl-1,2-dihydroquinoxalin-2-one"], "SMILES": "O=C1NC=2C(NC1=O)=CC=C(C)C2", "physical_data": {"Molecular Weight": "176.17", "Molecular Formula": "C9H8N2O2", "Melting Point": "112 \u00b0C"}}