{"cas_no": "6309-51-9", "cn_name": "\u5341\u4e8c\u70f7\u9178-3-\u7532\u57fa\u4e01\u916f", "en_name": ["Isoamyl laurate", "Dodecanoic acid, 3-methylbutyl ester", "Lauric acid, isopentyl ester", "Isopentyl alcohol, laurate", "Isoamyl laurate", "Isopentyl laurate", "3-Methylbutyl dodecanoate", "NSC 42577", "Isoamyl dodecanoate", "Dermofeel sensolv", "Radiosolve 7529"], "SMILES": "C(CCCCCCCCCCC)(OCCC(C)C)=O", "physical_data": {"Molecular Weight": "270.45", "Molecular Formula": "C17H34O2", "Boiling Point": "169 \u00b0C @ Press: 2 Torr"}}