{"cas_no": "631-07-2", "cn_name": "5-\u4e59\u57fa-5-\u82ef\u57fa\u6d77\u56e0", "en_name": ["Nirvanol", "2,4-Imidazolidinedione, 5-ethyl-5-phenyl-", "Hydantoin, 5-ethyl-5-phenyl-", "5-Ethyl-5-phenyl-2,4-imidazolidinedione", "5-Ethyl-5-phenylhydantoin", "Nirvanol", "5-Phenyl-5-ethylhydantoin", "Ethylphenylhydantoin", "Desmethylmephenytoin", "Normephenytoin", "(RS)-5-Ethyl-5-phenyl-2,4-imidazolidinedione", "NSC 150466", "NSC 33388"], "SMILES": "C(C)C1(C(=O)NC(=O)N1)C2=CC=CC=C2", "physical_data": {"Molecular Weight": "204.23", "Molecular Formula": "C11H12N2O2", "Melting Point": "197 \u00b0C"}}