{"cas_no": "631-69-6", "cn_name": "\u03b2-\u4e73\u9999\u9178", "en_name": ["beta-Boswellic acid", "Urs-12-en-23-oic acid, 3-hydroxy-, (3\u03b1,4\u03b2)-", "Urs-12-en-24-oic acid, 3\u03b1-hydroxy-", "\u03b2-Boswellic acid", "(3\u03b1,4\u03b2)-3-Hydroxyurs-12-en-23-oic acid", "3\u03b1-Hydroxyurs-12-en-24-oic acid", "beta-Boswellic acid"], "SMILES": "CC12C(C3(C)C(CC1)C(C(O)=O)(C)C(O)CC3)CC=C4C2(C)CCC5(C)C4C(C)C(C)CC5", "physical_data": {"Molecular Weight": "456.70", "Molecular Formula": "C30H48O3", "Melting Point": "238 \u00b0C"}}