{"cas_no": "631-40-3", "cn_name": "\u56db\u4e19\u57fa\u7898\u5316\u94f5", "en_name": ["Tetrapropylammonium iodide", "1-Propanaminium, N,N,N-tripropyl-, iodide (1:1)", "Tetrapropylammonium iodide", "Ammonium, tetrapropyl-, iodide", "1-Propanaminium, N,N,N-tripropyl-, iodide", "Tetrapropylammonium iodide (Pr4N+ I-)"], "SMILES": "[N+](CCC)(CCC)(CCC)CCC.[I-]", "physical_data": {"Molecular Weight": "", "Molecular Formula": "C12H28N.I", "Melting Point": "280 \u00b0C (decomp)"}}