{"cas_no": "631-36-7", "cn_name": "\u56db\u4e59\u57fa\u7845\u70f7", "en_name": ["Tetraethylsilane", "Silane, tetraethyl-", "Tetraethylsilane", "Tetraethylsilicon"], "SMILES": "[Si](CC)(CC)(CC)CC", "physical_data": {"Molecular Weight": "144.33", "Molecular Formula": "C8H20Si", "Boiling Point": "154.7 \u00b0C", "Melting Point": "-82 \u00b0C", "Density": "0.762 g/cm\u00b3"}}