{"cas_no": "631-64-1", "cn_name": "\u4e8c\u6eb4\u4e59\u9178", "en_name": ["Dibromoacetic acid", "Acetic acid, 2,2-dibromo-", "Acetic acid, dibromo-", "2,2-Dibromoacetic acid", "Dibromoacetic acid", "DBAA"], "SMILES": "C(C(O)=O)(Br)Br", "physical_data": {"Molecular Weight": "217.84", "Molecular Formula": "C2H2Br2O2", "Boiling Point": "125-135 \u00b0C @ Press: 10 Torr", "Melting Point": "49 \u00b0C"}}