{"cas_no": "631-61-8", "cn_name": "\u4e59\u9178\u94f5", "en_name": ["Ammonium acetate", "Acetic acid, ammonium salt (1:1)", "Acetic acid, ammonium salt", "Ammonium acetate", "Mindererus's spirit", "1BEEM", "Ammonium acetate solution", "Spirit of mindereus", "Mindererus spirit"], "SMILES": "C(C)(O)=O.N", "physical_data": {"Molecular Weight": "", "Molecular Formula": "C2H4O2.H3N", "Melting Point": "114 \u00b0C", "Density": "1.17 g/cm\u00b3 @ Temp: 20 \u00b0C"}}