{"cas_no": "631-71-0", "cn_name": "\u677e\u9999\u9178\u4e59\u916f", "en_name": ["Ethyl abietate", "1-Phenanthrenecarboxylic acid, 1,2,3,4,4a,4b,5,6,10,10a-decahydro-1,4a-dimethyl-7-(1-methylethyl)-, ethyl ester, (1R,4aR,4bR,10aR)-", "Podocarpa-7,13-dien-15-oic acid, 13-isopropyl-, ethyl ester", "Abietic acid, ethyl ester", "1-Phenanthrenecarboxylic acid, 1,2,3,4,4a,4b,5,6,10,10a-decahydro-1,4a-dimethyl-7-(1-methylethyl)-, ethyl ester, [1R-(1\u03b1,4a\u03b2,4b\u03b1,10a\u03b1)]-", "Ethyl abietate"], "SMILES": "CC12C(C(C(OCC)=O)(C)CCC1)CC=C3C2CCC(C(C)C)=C3", "physical_data": {"Molecular Weight": "330.50", "Molecular Formula": "C22H34O2", "Melting Point": "66-67 \u00b0C"}}