{"cas_no": "631-01-6", "cn_name": "\u7682\u6811\u76ae\u63d0\u53d6\u7269", "en_name": ["Quillaic acid", "Olean-12-en-28-oic acid, 3,16-dihydroxy-23-oxo-, (3\u03b2,4\u03b1,16\u03b1)-", "Olean-12-en-28-oic acid, 3\u03b2,16\u03b1-dihydroxy-23-oxo-", "(3\u03b2,4\u03b1,16\u03b1)-3,16-Dihydroxy-23-oxoolean-12-en-28-oic acid", "Quillaic acid", "Quillaja sapogenin"], "SMILES": "C(O)(=O)C12C(C=3C(C)(CC1O)C4(C)C(CC3)C5(C)C(CC4)C(C=O)(C)C(O)CC5)CC(C)(C)CC2", "physical_data": {"Molecular Weight": "486.68", "Molecular Formula": "C30H46O5", "Melting Point": "294 \u00b0C"}}