{"cas_no": "631-22-1", "cn_name": "\u4e8c\u6eb4\u4e19\u4e8c\u9178\u4e8c\u4e59\u916f", "en_name": ["1,3-Diethyl 2,2-dibromopropanedioate", "Propanedioic acid, 2,2-dibromo-, 1,3-diethyl ester", "Malonic acid, dibromo-, diethyl ester", "Propanedioic acid, dibromo-, diethyl ester", "1,3-Diethyl 2,2-dibromopropanedioate", "Diethyl dibromomalonate", "Ethyl dibromomalonate", "Bis(ethoxycarbonyl)dibromomethane", "NSC 6759", "2,2-Dibromomalonic acid diethyl ester", "Diethyl 2,2-dibromopropanedioate"], "SMILES": "C(C(OCC)=O)(C(OCC)=O)(Br)Br", "physical_data": {"Molecular Weight": "317.96", "Molecular Formula": "C7H10Br2O4", "Boiling Point": "152-155 \u00b0C @ Press: 33 Torr"}}