{"cas_no": "631-31-2", "cn_name": "2-\u4e59\u57fa-2-\u7532\u57fa\u4e01\u4e8c\u9178", "en_name": ["2-Ethyl-2-methylsuccinic acid", "Butanedioic acid, 2-ethyl-2-methyl-", "Succinic acid, 2-ethyl-2-methyl-", "2-Ethyl-2-methylbutanedioic acid", "3-Methyl-3-carboxyvaleric acid", "2-Ethyl-2-methylsuccinic acid", "\u03b1-Methyl-\u03b1-ethylsuccinic acid", "2-Methyl-2-ethylsuccinic acid", "NSC 38752"], "SMILES": "C(CC(O)=O)(C(O)=O)(CC)C", "physical_data": {"Molecular Weight": "160.17", "Molecular Formula": "C7H12O4", "Melting Point": "101.0-101.5 \u00b0C"}}