{"cas_no": "631-57-2", "cn_name": "\u4e59\u9170\u6c30", "en_name": ["Propanenitrile, 2-oxo-", "Propanenitrile, 2-oxo-", "Pyruvonitrile", "Acetyl cyanide", "Pyruvic acid nitrile", "\u03b1-Oxopropionitrile", "2-Oxopropionitrile", "2-Oxopropanenitrile", "NSC 91482"], "SMILES": "C(C#N)(C)=O", "physical_data": {"Molecular Weight": "69.06", "Molecular Formula": "C3H3NO", "Boiling Point": "92.3 \u00b0C", "Density": "0.9754 g/cm\u00b3 @ Temp: 20 \u00b0C"}}