{"cas_no": "631-67-4", "cn_name": "N,N-\u4e8c\u7532\u57fa\u786b\u4ee3\u4e59\u9170\u80fa", "en_name": ["N,N-Dimethylethanethioamide", "Ethanethioamide, N,N-dimethyl-", "Acetamide, N,N-dimethylthio-", "N,N-Dimethylethanethioamide", "N,N-Dimethylthioacetamide", "Dimethylthioacetamide"], "SMILES": "C(N(C)C)(C)=S", "physical_data": {"Molecular Weight": "103.19", "Molecular Formula": "C4H9NS", "Boiling Point": "105-106 \u00b0C @ Press: 12 Torr", "Melting Point": "72 \u00b0C"}}