{"cas_no": "63106-93-4", "cn_name": "(1S,5R)-1-\u82ef\u57fa-3-\u6c27\u6742\u53cc\u73af[3.1.0]\u5df1-2-\u916e", "en_name": ["1-Phenyl-2-oxo-3-oxabicyclo[3.1.0]hexane", "3-Oxabicyclo[3.1.0]hexan-2-one, 1-phenyl-", "1-Phenyl-3-oxabicyclo[3.1.0]hexan-2-one", "1-Phenyl-2-oxo-3-oxabicyclo[3.1.0]hexane"], "SMILES": "O=C1C2(C(C2)CO1)C3=CC=CC=C3", "physical_data": {"Molecular Weight": "174.20", "Molecular Formula": "C11H10O2", "Boiling Point": "119 \u00b0C @ Press: 0.1 Torr", "Melting Point": "49-50 \u00b0C"}}