{"cas_no": "6310-09-4", "cn_name": "2-\u4e59\u9170\u57fa-5-\u6c2f\u567b\u915a", "en_name": ["2-Acetyl-5-chlorothiophene", "Ethanone, 1-(5-chloro-2-thienyl)-", "Ketone, 5-chloro-2-thienyl methyl", "1-(5-Chloro-2-thienyl)ethanone", "2-Acetyl-5-chlorothiophene", "5-Chloro-2-acetylthiophene", "2-Chloro-5-acetylthiophene", "NSC 43020", "1-(5-Chlorothiophen-2-yl)ethanone", "1-(5-Chlorothiophen-2-yl)ethan-1-one", "1-(5-Chlorothien-2-yl)-1-ethanone"], "SMILES": "C(C)(=O)C=1SC(Cl)=CC1", "physical_data": {"Molecular Weight": "160.62", "Molecular Formula": "C6H5ClOS", "Boiling Point": "95-96 \u00b0C @ Press: 7 Torr", "Melting Point": "52 \u00b0C"}}