{"cas_no": "6310-19-6", "cn_name": "4-(\u53d4\u4e01\u57fa)-2-\u785d\u57fa\u82ef\u80fa", "en_name": ["4-(1,1-Dimethylethyl)-2-nitrobenzenamine", "Benzenamine, 4-(1,1-dimethylethyl)-2-nitro-", "Aniline, 4-tert-butyl-2-nitro-", "4-(1,1-Dimethylethyl)-2-nitrobenzenamine", "4-tert-Butyl-2-Nitroaniline", "2-Nitro-4-tert-butylaniline", "NSC 43042"], "SMILES": "N(=O)(=O)C1=CC(C(C)(C)C)=CC=C1N", "physical_data": {"Molecular Weight": "194.23", "Molecular Formula": "C10H14N2O2", "Melting Point": "102.5-105.5 \u00b0C"}}