{"cas_no": "6310-21-0", "cn_name": "2-\u53d4\u4e01\u57fa\u82ef\u80fa", "en_name": ["2-tert-Butylaniline", "Benzenamine, 2-(1,1-dimethylethyl)-", "Aniline, o-tert-butyl-", "2-(1,1-Dimethylethyl)benzenamine", "1-Amino-2-tert-butylbenzene", "2-tert-Butylaniline", "o-tert-Butylaniline", "NSC 43044", "2-(1,1-Dimethylethyl)aniline", "2-tert-Butylphenylamine"], "SMILES": "C(C)(C)(C)C1=C(N)C=CC=C1", "physical_data": {"Molecular Weight": "149.23", "Molecular Formula": "C10H15N", "Boiling Point": "234 \u00b0C", "Melting Point": "158-161 \u00b0C", "Density": "0.9572 g/cm\u00b3 @ Temp: 25 \u00b0C"}}