{"cas_no": "6311-92-8", "cn_name": "3-\u6b63-\u5df1\u57fa\u5421\u5576", "en_name": ["3-Hexylpyridine", "Pyridine, 3-hexyl-", "3-Hexylpyridine", "NSC 42647"], "SMILES": "C(CCCCC)C=1C=CC=NC1", "physical_data": {"Molecular Weight": "163.26", "Molecular Formula": "C11H17N", "Boiling Point": "108-109 \u00b0C @ Press: 9 Torr"}}