{"cas_no": "6311-37-1", "cn_name": "4-\u6c28\u57fa-3-\u6eb4\u82ef\u7532\u9178", "en_name": ["4-Amino-3-bromobenzoic acid", "Benzoic acid, 4-amino-3-bromo-", "4-Amino-3-bromobenzoic acid", "NSC 43549"], "SMILES": "C(O)(=O)C1=CC(Br)=C(N)C=C1", "physical_data": {"Molecular Weight": "216.03", "Molecular Formula": "C7H6BrNO2", "Melting Point": "204 \u00b0C"}}