{"cas_no": "6312-72-7", "cn_name": "5-\u6eb4-2,4 -\u4e8c\u6c28\u57fa-6-\u7f9f\u57fa\u5627\u5576", "en_name": ["2,6-Diamino-5-bromo-4(3H)-pyrimidinone", "4(3H)-Pyrimidinone, 2,6-diamino-5-bromo-", "4-Pyrimidinol, 2,6-diamino-5-bromo-", "4(1H)-Pyrimidinone, 2,6-diamino-5-bromo-", "2,6-Diamino-5-bromo-4(3H)-pyrimidinone", "2,4-Diamino-6-hydroxy-5-bromopyrimidine", "5-Bromo-2,4-diamino-6-hydroxypyrimidine", "5-Bromo-2,6-diaminopyrimidin-4(3H)-one", "NSC 40393", "NSC 67304", "NSC 9303", "2,6-Diamino-5-bromopyrimidin-4-ol", "2,6-Diamino-5-bromo-1H-pyrimidin-4-one", "2,6-Diamino-5-bromo-1,4-dihydropyrimidin-4-one", "2,6-Diamino-5-bromo-3,4-dihydropyrimidin-4-one"], "SMILES": "BrC1=C(N)NC(N)=NC1=O", "physical_data": {"Molecular Weight": "205.01", "Molecular Formula": "C4H5BrN4O", "Melting Point": "243 \u00b0C (decomp)"}}