{"cas_no": "63126-47-6", "cn_name": "(S)-(+)-2-(\u7532\u6c27\u57fa\u7532\u57fa)\u5421\u5511\u70f7", "en_name": ["(+)-(S)-2-(Methoxymethyl)pyrrolidine", "Pyrrolidine, 2-(methoxymethyl)-, (2S)-", "Pyrrolidine, 2-(methoxymethyl)-, (S)-", "(2S)-2-(Methoxymethyl)pyrrolidine", "(S)-2-(Methoxymethyl)pyrrolidine", "(S)-Prolinol methyl ether", "(+)-(S)-2-(Methoxymethyl)pyrrolidine", "(2S)-(Methoxymethyl)pyrrolidine", "L-Prolinol methyl ether", "(S)-(+)-2-Methoxymethylpyrrolidine", "(2S)-2-Methoxymethylpyrrolidine", "NSC 305701"], "SMILES": "C(OC)C1CCCN1", "physical_data": {"Molecular Weight": "115.17", "Molecular Formula": "C6H13NO", "Boiling Point": "62 \u00b0C @ Press: 40 Torr"}}