{"cas_no": "6312-87-4", "cn_name": "N-(4-\u82ef\u6c27\u57fa\u82ef\u57fa)\u4e59\u9170\u80fa", "en_name": ["N-(4-Phenoxyphenyl)acetamide", "Acetamide, N-(4-phenoxyphenyl)-", "Acetanilide, 4\u2032-phenoxy-", "N-(4-Phenoxyphenyl)acetamide", "4\u2032-Phenoxyacetanilide", "4-Acetylaminodiphenyl ether", "4-(Acetylamino)-1,1\u2032-diphenyl ether", "NSC 40576", "N-Acetyl-4-phenoxyaniline"], "SMILES": "O(C1=CC=C(NC(C)=O)C=C1)C2=CC=CC=C2", "physical_data": {"Molecular Weight": "227.26", "Molecular Formula": "C14H13NO2", "Melting Point": "130 \u00b0C"}}