{"cas_no": "6312-73-8", "cn_name": "5-\u6eb4-6-\u6c28\u57fa\u5c3f\u5627\u5576", "en_name": ["6-Amino-5-bromo-2,4(1H,3H)-pyrimidinedione", "2,4(1H,3H)-Pyrimidinedione, 6-amino-5-bromo-", "Uracil, 6-amino-5-bromo-", "6-Amino-5-bromo-2,4(1H,3H)-pyrimidinedione", "6-Amino-5-bromouracil", "5-Bromo-6-aminouracil", "NSC 27652", "NSC 40394"], "SMILES": "BrC1=C(N)NC(=O)NC1=O", "physical_data": {"Molecular Weight": "206.00", "Molecular Formula": "C4H4BrN3O2", "Melting Point": "&gt;320 \u00b0C"}}