{"cas_no": "6313-33-3", "cn_name": "\u7532\u8112\u76d0\u9178\u76d0", "en_name": ["Methanimidamide, hydrochloride (1:1)", "Methanimidamide, hydrochloride (1:1)", "Formamidine, monohydrochloride", "Methanimidamide, monohydrochloride", "Formamidine, hydrochloride", "Formamidinium chloride", "Methanimidamide hydrochloride", "Methanediamine, 1-chloro-"], "SMILES": "C(=N)N.Cl", "physical_data": {"Molecular Weight": "", "Molecular Formula": "CH4N2.ClH", "Melting Point": "76-78 \u00b0C"}}