{"cas_no": "6313-37-7", "cn_name": "2,5-\u4e8c\u7532\u6c27\u57fa-4-\u785d\u57fa\u82ef\u80fa", "en_name": ["2,5-Dimethoxy-4-nitrobenzenamine", "Benzenamine, 2,5-dimethoxy-4-nitro-", "Aniline, 2,5-dimethoxy-4-nitro-", "2,5-Dimethoxy-4-nitrobenzenamine", "2,5-Dimethoxy-4-nitroaniline", "3,6-Dimethoxy-4-nitroaniline", "1-Amino-2,5-dimethoxy-4-nitrobenzene", "NSC 39868"], "SMILES": "N(=O)(=O)C1=C(OC)C=C(N)C(OC)=C1", "physical_data": {"Molecular Weight": "198.18", "Molecular Formula": "C8H10N2O4", "Melting Point": "152-153 \u00b0C"}}