{"cas_no": "6313-17-3", "cn_name": "3-\u7898-5-\u785d\u57fa\u82ef\u7532\u9178", "en_name": ["3-Iodo-5-nitrobenzoic acid", "Benzoic acid, 3-iodo-5-nitro-", "3-Iodo-5-nitrobenzoic acid", "NSC 40643"], "SMILES": "C(O)(=O)C1=CC(N(=O)=O)=CC(I)=C1", "physical_data": {"Molecular Weight": "293.02", "Molecular Formula": "C7H4INO4", "Melting Point": "167 \u00b0C"}}