{"cas_no": "63134-33-8", "cn_name": "4-\u7f9f\u57fa-4'-\u82c4\u6c27\u57fa\u4e8c\u82ef\u781c", "en_name": ["4-[[4-(Phenylmethoxy)phenyl]sulfonyl]phenol", "Phenol, 4-[[4-(phenylmethoxy)phenyl]sulfonyl]-", "4-[[4-(Phenylmethoxy)phenyl]sulfonyl]phenol", "4-Benzyloxy-4\u2032-hydroxydiphenyl sulfone", "p-(p-Benzyloxyphenylsulfonyl)phenol", "4-Hydroxy-4\u2032-benzyloxydiphenyl sulfone", "4-Benzyloxyphenyl-4\u2032-hydroxyphenyl sulfone", "BPS-BN", "4-Benzyloxyphenyl 4-hydroxyphenyl sulfone", "BPS-MA 3", "4-[4-(Benzyloxy)benzenesulfonyl]phenol"], "SMILES": "S(=O)(=O)(C1=CC=C(OCC2=CC=CC=C2)C=C1)C3=CC=C(O)C=C3", "physical_data": {"Molecular Weight": "340.39", "Molecular Formula": "C19H16O4S", "Melting Point": "166-168 \u00b0C"}}