{"cas_no": "6313-54-8", "cn_name": "2-\u6c2f\u5f02\u70df\u9178", "en_name": ["2-Chloroisonicotinic acid", "4-Pyridinecarboxylic acid, 2-chloro-", "Isonicotinic acid, 2-chloro-", "2-Chloro-4-pyridinecarboxylic acid", "2-Chloroisonicotinic acid", "2-Chloropyridine-4-carboxylic acid", "NSC 40139", "6-Chloroisonicotinic acid"], "SMILES": "C(O)(=O)C=1C=C(Cl)N=CC1", "physical_data": {"Molecular Weight": "157.55", "Molecular Formula": "C6H4ClNO2", "Melting Point": "245 \u00b0C"}}