{"cas_no": "63133-82-4", "cn_name": "2-\u6c2f-4,6-\u4e8c\u7532\u57fa\u82ef\u80fa", "en_name": ["2-Chloro-4,6-dimethylbenzenamine", "Benzenamine, 2-chloro-4,6-dimethyl-", "2,4-Xylidine, 6-chloro-", "2-Chloro-4,6-dimethylbenzenamine", "2-Chloro-4,6-dimethylaniline", "6-Chloro-2,4-xylidine", "6-Chloro-2,4-dimethylaniline"], "SMILES": "NC1=C(C)C=C(C)C=C1Cl", "physical_data": {"Molecular Weight": "155.62", "Molecular Formula": "C8H10ClN", "Boiling Point": "116-119 \u00b0C @ Press: 15 Torr", "Melting Point": "37-38 \u00b0C"}}