{"cas_no": "63139-21-9", "cn_name": "4-\u4e59\u57fa\u82ef\u787c\u9178", "en_name": ["(4-Ethylphenyl)boronic acid", "Boronic acid, B-(4-ethylphenyl)-", "Boronic acid, (4-ethylphenyl)-", "Benzeneboronic acid, p-ethyl-", "B-(4-Ethylphenyl)boronic acid", "(p-Ethylphenyl)boronic acid", "(4-Ethylphenyl)boronic acid", "4-Ethylbenzeneboronic acid"], "SMILES": "B(O)(O)C1=CC=C(CC)C=C1", "physical_data": {"Molecular Weight": "149.98", "Molecular Formula": "C8H11BO2", "Melting Point": "108-111 \u00b0C"}}