{"cas_no": "63136-61-8", "cn_name": "4-\u6c2f-7-\u7532\u57fa\u55b9\u5549", "en_name": ["4-Chloro-7-methylquinoline", "Quinoline, 4-chloro-7-methyl-", "4-Chloro-7-methylquinoline"], "SMILES": "ClC=1C2=C(C=C(C)C=C2)N=CC1", "physical_data": {"Molecular Weight": "177.63", "Molecular Formula": "C10H8ClN", "Boiling Point": "140-142 \u00b0C @ Press: 9.5 Torr", "Melting Point": "28 \u00b0C"}}