{"cas_no": "63131-29-3", "cn_name": "4-\u6c1f\u82ef\u7532\u9170\u4e59\u9178\u7532\u916f", "en_name": ["Methyl 4-fluoro-\u03b2-oxobenzenepropanoate", "Benzenepropanoic acid, 4-fluoro-\u03b2-oxo-, methyl ester", "Methyl 4-fluoro-\u03b2-oxobenzenepropanoate", "Methyl (4-fluorobenzoyl)acetate", "Methyl (p-fluorobenzoyl)acetate", "3-(4-Fluorophenyl)-3-oxo-propionic acid methyl ester", "Methyl 2-(4-fluorobenzoyl)acetate", "4-Fluoro-\u03b2-oxobenzenepropanoic acid methyl ester", "Methyl 3-(4-fluorophenyl)-3-oxopropanoate", "Methyl 3-(4-fluorophenyl)-3-oxopropionate", "3-Oxo-3-(4-fluorophenyl)propionic acid methyl ester", "Methyl 3-oxo-3-(4-fluorophenyl)propanoate", "3-(4-Fluorophenyl)-3-oxopropanoic acid methyl ester"], "SMILES": "C(CC(OC)=O)(=O)C1=CC=C(F)C=C1", "physical_data": {"Molecular Weight": "196.18", "Molecular Formula": "C10H9FO3", "Boiling Point": "110 \u00b0C"}}