{"cas_no": "63149-33-7", "cn_name": "8-\u7f9f\u57fa\u4e45\u6d1b\u5c3c\u5b9a-9-\u7532\u919b", "en_name": ["8-Hydroxyjulolidine-9-carboxaldehyde", "1H,5H-Benzo[ij]quinolizine-9-carboxaldehyde, 2,3,6,7-tetrahydro-8-hydroxy-", "2,3,6,7-Tetrahydro-8-hydroxy-1H,5H-benzo[ij]quinolizine-9-carboxaldehyde", "9-Formyl-8-hydroxyjulolidine", "9-Formyl-8-julolidinol", "8-Hydroxyjulolidine-9-carboxaldehyde", "9-Formyl-8-hydroxy-2,3,6,7-tetrahydro-1H,5H-benzo[ij]quinolizine"], "SMILES": "OC1=C2C3=C(C=C1C=O)CCCN3CCC2", "physical_data": {"Molecular Weight": "217.26", "Molecular Formula": "C13H15NO2", "Melting Point": "70-72 \u00b0C"}}