{"cas_no": "63149-24-6", "cn_name": "1,1,2-\u4e09\u7532\u57fa-3-(4-\u78fa\u9178\u4e01\u57fa)-1H-\u82ef\u5e76[E]\u5432\u54da\u5185\u76d0", "en_name": ["1H-Benz[e]indolium, 1,1,2-trimethyl-3-(4-sulfobutyl)-, inner salt", "1H-Benz[e]indolium, 1,1,2-trimethyl-3-(4-sulfobutyl)-, inner salt", "1H-Benz[e]indolium, 1,1,2-trimethyl-3-(4-sulfobutyl)-, hydroxide, inner salt", "1,1,2-Trimethyl-3-(4-sulfobutyl)-1H-benz[e]indolium hydroxide, inner salt", "1,1,2-Trimethyl-3-(4-sulfobutyl)-1H-benz[e]indolium inner salt", "4-(1,1,2-Trimethyl-1H-benzo[e]indolium-3-yl)butane-1-sulfonate"], "SMILES": "CC1(C)C2=C([N+](CCCCS(=O)(=O)[O-])=C1C)C=CC=3C2=CC=CC3", "physical_data": {"Molecular Weight": "", "Molecular Formula": "C19H23NO3S", "Melting Point": "263 \u00b0C"}}