{"cas_no": "6314-28-9", "cn_name": "\u82ef\u5e76\u567b\u5429-2-\u7fa7\u9178", "en_name": ["Benzo[b]thiophene-2-carboxylic acid", "Benzo[b]thiophene-2-carboxylic acid", "BL 5583", "Thionaphthene-2-carboxylic acid", "Benzothiofuran-2-carboxylic acid", "Benzothiophene-2-carboxylic acid", "2-Carboxybenzothiophene", "2-Benzo[b]thiophenecarboxylic acid", "NSC 112990", "NSC 40258", "1-Benzothiophene-2-carboxylic acid", "Thianaphthene-2-carboxylic acid"], "SMILES": "C(O)(=O)C1=CC=2C(S1)=CC=CC2", "physical_data": {"Molecular Weight": "178.21", "Molecular Formula": "C9H6O2S", "Melting Point": "114 \u00b0C"}}