{"cas_no": "6314-97-2", "cn_name": "(2,2-\u4e8c\u4e59\u6c27\u57fa\u4e59\u57fa)-\u82ef", "en_name": ["Phenylacetaldehyde diethyl acetal", "Benzene, (2,2-diethoxyethyl)-", "Acetaldehyde, phenyl-, diethyl acetal", "(2,2-Diethoxyethyl)benzene", "Benzeneacetaldehyde, diethyl acetal", "Phenylacetaldehyde diethyl acetal", "1,1-Diethoxy-2-phenylethane", "Phenylethanal diethyl acetal", "NSC 20031"], "SMILES": "C(CC1=CC=CC=C1)(OCC)OCC", "physical_data": {"Molecular Weight": "194.27", "Molecular Formula": "C12H18O2", "Boiling Point": "118.5 \u00b0C @ Press: 15 Torr"}}