{"cas_no": "6314-23-4", "cn_name": "2-(1H-\u5421\u5511-1-\u57fa)\u4e59\u9187", "en_name": ["1H-Pyrazole-1-ethanol", "1H-Pyrazole-1-ethanol", "Pyrazole-1-ethanol", "1-(2-Hydroxyethyl)-1H-pyrazole", "NSC 40236", "1-(2-Hydroxyethyl)pyrazole", "2-(1H-Pyrazol-1-yl)ethanol", "2-(Pyrazol-1-yl)ethanol", "2-(1H-Pyrazol-1-yl)ethan-1-ol"], "SMILES": "C(CO)N1C=CC=N1", "physical_data": {"Molecular Weight": "112.13", "Molecular Formula": "C5H8N2O", "Boiling Point": "129-131 \u00b0C @ Press: 28 Torr"}}