{"cas_no": "6314-43-8", "cn_name": "1-\u82ef\u5e76\u567b\u915a-2-\u57fa\u7532\u80fa", "en_name": ["Benzo[b]thiophene-2-methanamine", "Benzo[b]thiophene-2-methanamine", "[(Benzo[b]thiophen-2-yl)methyl]amine", "((Benzothien-2-yl)methyl)amine", "NSC 40287", "2-(Aminomethyl)benzothiophene", "1-(1-Benzothien-2-yl)methanamine", "1-Benzothiophen-2-ylmethanamine", "(1-Benzothiophen-2-yl)methanamine", "1-Benzothiophen-2-ylmethylamine"], "SMILES": "C(N)C1=CC=2C(S1)=CC=CC2", "physical_data": {"Molecular Weight": "163.24", "Molecular Formula": "C9H9NS", "Melting Point": "58-59 \u00b0C"}}