{"cas_no": "6315-52-2", "cn_name": "1,2-\u53cc\u7532\u82ef\u6c27\u57fa\u4e59\u70f7", "en_name": ["Ethylene glycol ditosylate", "1,2-Ethanediol, 1,2-bis(4-methylbenzenesulfonate)", "Ethylene glycol, di-p-toluenesulfonate", "1,2-Ethanediol, bis(4-methylbenzenesulfonate)", "Di-O-tosylglycol", "Ethylene di-p-toluenesulfonate", "Ethylene glycol ditosylate", "Ethylene glycol ditoluenesulfonate", "1,2-Ethylene ditosylate", "Ethylene glycol bis(p-toluenesulfonate)", "1,2-Bis(p-tolylsulfonyloxy)ethane", "Ethylene glycol di-p-tosylate", "1,2-Bistosyloxy ethane", "1,2-Di(tosyloxy)ethane", "1,2-Bis(p-toluenesulfonyloxy)ethane", "1,2-Ethanediol ditosylate", "Ethylene 1,2-bis(tosylate)", "1,2-Bis(4-methylbenzenesulfonyloxy)ethane", "NSC 21094", "1,2-Di(p-tosyloxy)ethane", "Ethylene glycol 1,2-ditosylate", "Ethane-1,2-diyl bis(4-methylbenzenesulfonate)", "2-(4-Methylphenyl)sulfonyloxyethyl 4-methylbenzenesulfonate"], "SMILES": "S(OCCOS(=O)(=O)C1=CC=C(C)C=C1)(=O)(=O)C2=CC=C(C)C=C2", "physical_data": {"Molecular Weight": "370.44", "Molecular Formula": "C16H18O6S2", "Melting Point": "120-121 \u00b0C"}}