{"cas_no": "63155-10-2", "cn_name": "\u4e59\u57fa 2-(4,6-\u4e8c\u6c2f\u5627\u5576-2-\u57fa)-\u4e59\u9178\u916f", "en_name": ["Ethyl 4,6-dichloro-2-pyrimidineacetate", "2-Pyrimidineacetic acid, 4,6-dichloro-, ethyl ester", "Ethyl 4,6-dichloro-2-pyrimidineacetate"], "SMILES": "C(C(OCC)=O)C=1N=C(Cl)C=C(Cl)N1", "physical_data": {"Molecular Weight": "235.07", "Molecular Formula": "C8H8Cl2N2O2", "Melting Point": "50-51 \u00b0C"}}