{"cas_no": "6315-89-5", "cn_name": "3,4-\u4e8c\u7532\u6c27\u57fa\u82ef\u80fa", "en_name": ["3,4-Dimethoxyaniline", "Benzenamine, 3,4-dimethoxy-", "Aniline, 3,4-dimethoxy-", "3,4-Dimethoxybenzenamine", "3,4-Dimethoxyaniline", "4-Aminoveratrole", "2-Methoxy-4-aminoanisole", "4-Aminoveratrol", "3,4-Dimethoxyphenylamine", "4-Amino-1,2-dimethoxybenzene", "NSC 21033", "3,4-Bis(methoxy)aniline"], "SMILES": "O(C)C1=C(OC)C=C(N)C=C1", "physical_data": {"Molecular Weight": "153.18", "Molecular Formula": "C8H11NO2", "Boiling Point": "160 \u00b0C @ Press: 14 Torr", "Melting Point": "85 \u00b0C"}}