{"cas_no": "6315-51-1", "cn_name": "2-\u4e8c\u82ef\u6c28\u57fa\u4e59\u9187", "en_name": ["2-(Diphenylamino)ethanol", "Ethanol, 2-(diphenylamino)-", "2-(Diphenylamino)ethanol", "N,N-Diphenylethanolamine", "\u03b2-(Diphenylamino)ethanol", "N-(2-Hydroxyethyl)diphenylamine", "(2-Hydroxyethyl)diphenylamine", "NSC 21083", "2-(N-Phenylanilino)ethanol", "2-(Diphenylamino)ethan-1-ol"], "SMILES": "N(CCO)(C1=CC=CC=C1)C2=CC=CC=C2", "physical_data": {"Molecular Weight": "213.27", "Molecular Formula": "C14H15NO", "Boiling Point": "155-160 \u00b0C @ Press: 1-2 Torr", "Melting Point": "93 \u00b0C", "Density": "1.121 g/cm\u00b3 @ Temp: 20 \u00b0C"}}