{"cas_no": "6315-90-8", "cn_name": "4,5-\u4e9a\u7532\u57fa-2-\u785d\u57fa\u8089\u6842\u9178", "en_name": ["3,4-Methylenedioxy-6-nitrocinnamic acid", "2-Propenoic acid, 3-(6-nitro-1,3-benzodioxol-5-yl)-", "Cinnamic acid, 4,5-(methylenedioxy)-2-nitro-", "3-(6-Nitro-1,3-benzodioxol-5-yl)-2-propenoic acid", "3-(4,5-Methylenedioxy-2-nitrophenyl)acrylic acid", "3,4-Methylenedioxy-6-nitrocinnamic acid", "NSC 21034"], "SMILES": "C(=CC(O)=O)C1=C(N(=O)=O)C=C2C(=C1)OCO2", "physical_data": {"Molecular Weight": "237.17", "Molecular Formula": "C10H7NO6", "Melting Point": "273-275 \u00b0C (decomp)"}}