{"cas_no": "6315-60-2", "cn_name": "N,N-\u53cc-(BETA-CARBO\u4e59\u6c27\u57fa\u4e59\u57fa)\u7532\u80fa", "en_name": ["N-(3-Ethoxy-3-oxopropyl)-N-methyl-\u03b2-alanine ethyl ester", "\u03b2-Alanine, N-(3-ethoxy-3-oxopropyl)-N-methyl-, ethyl ester", "Propionic acid, 3,3\u2032-(methylimino)di-, diethyl ester", "N-(3-Ethoxy-3-oxopropyl)-N-methyl-\u03b2-alanine ethyl ester", "NSC 21230", "NSC 69093"], "SMILES": "N(CCC(OCC)=O)(CCC(OCC)=O)C", "physical_data": {"Molecular Weight": "231.29", "Molecular Formula": "C11H21NO4", "Boiling Point": "136-138 \u00b0C @ Press: 4 Torr", "Density": "1.019 g/cm\u00b3 @ Temp: 20 \u00b0C"}}