{"cas_no": "63155-11-3", "cn_name": "2-\u5627\u5576\u4e59\u9178\u4e59\u916f", "en_name": ["Ethyl 2-pyrimidineacetate", "2-Pyrimidineacetic acid, ethyl ester", "Ethyl 2-pyrimidineacetate", "Ethyl 2-(pyrimidin-2-yl)acetate"], "SMILES": "C(C(OCC)=O)C=1N=CC=CN1", "physical_data": {"Molecular Weight": "166.18", "Molecular Formula": "C8H10N2O2", "Boiling Point": "96-98 \u00b0C @ Press: 3 Torr"}}