{"cas_no": "63160-13-4", "cn_name": "3-\u82ef\u57fa-2-\u82ef\u57fa\u78fa\u9170\u57fa-1,2-\u6c27\u6c2e\u6742\u73af\u4e19\u70f7", "en_name": ["3-Phenyl-2-(phenylsulfonyl)oxaziridine", "Oxaziridine, 3-phenyl-2-(phenylsulfonyl)-", "3-Phenyl-2-(phenylsulfonyl)oxaziridine", "3-Phenyl-2-phenylsulfonyloxaziridine", "2-(Phenylsulfonyl)-3-phenyloxaziridine", "3-Phenyl-N-phenylsulfonyloxaziridine", "N-(Phenylsulfonyl)phenyloxaziridine", "N-Benzenesulfonyl-3-phenyloxaziridine", "2-Benzenesulfonyl-3-phenyloxaziridine", "NSC 268112", "3-Phenyl-2-(phenylsulfonyl)-1,2-oxaziridine"], "SMILES": "S(=O)(=O)(N1C(O1)C2=CC=CC=C2)C3=CC=CC=C3", "physical_data": {"Molecular Weight": "261.30", "Molecular Formula": "C13H11NO3S", "Melting Point": "96-97 \u00b0C"}}