{"cas_no": "6317-37-9", "cn_name": "5-\u785d\u57fa\u567b\u5429-2-\u7532\u9178", "en_name": ["5-Nitro-2-thiophenecarboxylic acid", "2-Thiophenecarboxylic acid, 5-nitro-", "5-Nitro-2-thiophenecarboxylic acid", "2-Carboxy-5-nitrothiophene", "5-Nitro-2-thienylcarboxylic acid", "5-NTCA", "NSC 41707"], "SMILES": "C(O)(=O)C=1SC(N(=O)=O)=CC1", "physical_data": {"Molecular Weight": "173.15", "Molecular Formula": "C5H3NO4S", "Melting Point": "156-157 \u00b0C"}}