{"cas_no": "6317-18-6", "cn_name": "\u4e8c\u786b\u6c30\u57fa\u7532\u70f7", "en_name": ["Methylene bis(thiocyanate)", "Thiocyanic acid, C,C\u2032-methylene ester", "Thiocyanic acid, methylene ester", "Methylene bis(thiocyanate)", "Methylene dithiocyanate", "Methylene thiocyanate", "Methylenedirhodanide", "Nalfloc N 206", "Proxel MB", "V 709", "Kilstain", "Slimicide MC", "Antiblu 3737", "Antiblu 3738", "Busan 110", "Nalco D 2303", "Bis(thiocyanato)methane", "Dithiocyanomethane", "Basiment 540", "Nalco 5793", "Metasol T 10", "MBT", "NSC 40464", "WT 307B"], "SMILES": "C(SC#N)SC#N", "physical_data": {"Molecular Weight": "130.19", "Molecular Formula": "C3H2N2S2", "Melting Point": "105-107 \u00b0C"}}