{"cas_no": "6317-73-3", "cn_name": "4-\u82ef\u6c27\u57fa\u82ef\u7532\u916e", "en_name": ["4-Phenoxybenzophenone", "Methanone, (4-phenoxyphenyl)phenyl-", "Benzophenone, 4-phenoxy-", "(4-Phenoxyphenyl)phenylmethanone", "4-Phenoxybenzophenone", "p-Phenoxybenzophenone", "p-Phenoxybenzophenone", "NSC 43083"], "SMILES": "C(=O)(C1=CC=C(OC2=CC=CC=C2)C=C1)C3=CC=CC=C3", "physical_data": {"Molecular Weight": "274.31", "Molecular Formula": "C19H14O2", "Boiling Point": "192-200 \u00b0C @ Press: 0.4 Torr", "Melting Point": "66 \u00b0C"}}