{"cas_no": "6317-56-2", "cn_name": "4-\u82ef\u786b\u57fa\u82ef\u7532\u9187", "en_name": ["4-(Phenylthio)benzenemethanol", "Benzenemethanol, 4-(phenylthio)-", "4-(Phenylthio)benzenemethanol", "NSC 43060", "4-(Phenylthio)benzyl alcohol", "[4-(Phenylsulfanyl)phenyl]methanol"], "SMILES": "S(C1=CC=C(CO)C=C1)C2=CC=CC=C2", "physical_data": {"Molecular Weight": "216.30", "Molecular Formula": "C13H12OS", "Melting Point": "49-51 \u00b0C"}}