{"cas_no": "6317-49-3", "cn_name": "4-\u6c27\u4ee3\u5e9a\u4e8c\u9178\u4e8c\u4e59\u916f", "en_name": ["Heptanedioic acid, 4-oxo-, 1,7-diethyl ester", "Heptanedioic acid, 4-oxo-, 1,7-diethyl ester", "Heptanedioic acid, 4-oxo-, diethyl ester", "Diethyl \u03b3-ketopimelate", "Diethyl 4-ketopimelate", "\u03b3-Oxopimelic acid diethyl ester", "Diethyl 4-oxopimelate", "Diethyl 4-oxoheptanedioate", "Diethyl \u03b3-oxopimelate", "4-Oxopimelic acid diethyl ester", "NSC 39476", "1,7-Diethyl 4-oxoheptanedioate"], "SMILES": "C(CCC(OCC)=O)(CCC(OCC)=O)=O", "physical_data": {"Molecular Weight": "230.26", "Molecular Formula": "C11H18O5", "Boiling Point": "182 \u00b0C @ Press: 20 Torr", "Melting Point": "58 \u00b0C", "Density": "1.0855 g/cm\u00b3 @ Temp: 20 \u00b0C"}}