{"cas_no": "6317-57-3", "cn_name": "4-(\u82c4\u57fa)\u82ef\u80fa\u76d0\u9178\u76d0", "en_name": ["Benzenamine, 4-(phenylmethyl)-, hydrochloride (1:1)", "Benzenamine, 4-(phenylmethyl)-, hydrochloride (1:1)", "Benzenamine, 4-(phenylmethyl)-, hydrochloride"], "SMILES": "C(C1=CC=C(N)C=C1)C2=CC=CC=C2.Cl", "physical_data": {"Molecular Weight": "", "Molecular Formula": "C13H13N.ClH", "Melting Point": "219 \u00b0C"}}