{"cas_no": "6318-74-7", "cn_name": "2-\u6c28\u57fa-4,5-\u4e8c\u82ef\u57fa\u567b\u5511", "en_name": ["2-Amino-4,5-diphenylthiazole", "2-Thiazolamine, 4,5-diphenyl-", "Thiazole, 2-amino-4,5-diphenyl-", "4,5-Diphenyl-2-thiazolamine", "2-Amino-4,5-diphenylthiazole", "4,5-Diphenyl-2-aminothiazole", "2-Amino-4,5-diphenyl-1,3-thiazole", "4,5-Diphenylthiazol-2-amine", "4,5-Diphenyl-1,3-thiazol-2-amine", "NSC 31689"], "SMILES": "NC1=NC(=C(S1)C2=CC=CC=C2)C3=CC=CC=C3", "physical_data": {"Molecular Weight": "252.33", "Molecular Formula": "C15H12N2S", "Melting Point": "184-185 \u00b0C"}}