{"cas_no": "63187-91-7", "cn_name": "\u8584\u8377\u916e\u7518\u6cb9\u7f29\u916e", "en_name": ["Menthone glycerin acetal", "1,4-Dioxaspiro[4.5]decane-2-methanol, 9-methyl-6-(1-methylethyl)-", "9-Methyl-6-(1-methylethyl)-1,4-dioxaspiro[4.5]decane-2-methanol", "Frescolat MGA", "Menthone glycerin acetal", "Menthone glyceryl ketal", "6-Isopropyl-9-methyl-1,4-dioxaspiro[4,5]decane-2-methanol", "(6-Isopropyl-9-methyl-1,4-dioxaspiro[4.5]decan-2-yl)methanol", "Fema Gras 3808", "Menthone glycerine acetal", "(9-Methyl-6-propan-2-yl-1,4-dioxaspiro[4.5]decan-3-yl)methanol", "[9-Methyl-6-(propan-2-yl)-1,4-dioxaspiro[4.5]decan-2-yl]methanol"], "SMILES": "C(C)(C)C1C2(OC(CO)CO2)CC(C)CC1", "physical_data": {"Molecular Weight": "228.33", "Molecular Formula": "C13H24O3", "Boiling Point": "148-152 \u00b0C @ Press: 14 Torr"}}