{"cas_no": "6318-51-0", "cn_name": "(4-\u6c2f\u82ef\u57fa)(2-\u5421\u5576\u57fa)\u7532\u916e", "en_name": ["(4-Chlorophenyl)-2-pyridinylmethanone", "Methanone, (4-chlorophenyl)-2-pyridinyl-", "Ketone, p-chlorophenyl 2-pyridyl", "(4-Chlorophenyl)-2-pyridinylmethanone", "2-(p-Chlorobenzoyl)pyridine", "2-(4-Chlorobenzoyl)pyridine", "NSC 31646"], "SMILES": "C(=O)(C1=CC=C(Cl)C=C1)C2=CC=CC=N2", "physical_data": {"Molecular Weight": "217.65", "Molecular Formula": "C12H8ClNO", "Boiling Point": "160 \u00b0C @ Press: 0.6 Torr", "Melting Point": "64 \u00b0C"}}