{"cas_no": "6319-06-8", "cn_name": "\u8bfa\u745e\u6614\u80fa", "en_name": ["5-Norbornene-2,3-dicarboximide, exo-", "5-Norbornene-2,3-dicarboximide, exo-", "4,7-Methano-1H-isoindole-1,3(2H)-dione, 3a,4,7,7a-tetrahydro-, (3a\u03b1,4\u03b2,7\u03b2,7a\u03b1)-", "(cis-exo)-5-Norbornene-2,3-dicarboximide", "Noreximide", "NSC 31978", "exo-Norbornene-2,3-dicarboximide"], "SMILES": "O=C1C2C(C3CC2C=C3)C(=O)N1", "physical_data": {"Molecular Weight": "163.17", "Molecular Formula": "C9H9NO2", "Melting Point": "161-162 \u00b0C"}}