{"cas_no": "632-85-9", "cn_name": "\u6c49\u9ec4\u82a9\u7d20", "en_name": ["Wogonin", "4H-1-Benzopyran-4-one, 5,7-dihydroxy-8-methoxy-2-phenyl-", "Flavone, 5,7-dihydroxy-8-methoxy-", "Wogonin", "5,7-Dihydroxy-8-methoxy-2-phenyl-4H-1-benzopyran-4-one", "5,7-Dihydroxy-8-methoxyflavone"], "SMILES": "O=C1C=2C(=C(OC)C(O)=CC2O)OC(=C1)C3=CC=CC=C3", "physical_data": {"Molecular Weight": "284.26", "Molecular Formula": "C16H12O5", "Melting Point": "201 \u00b0C"}}