{"cas_no": "632-93-9", "cn_name": "1,4-\u4e8c\u6c22-2,4,6-\u4e09\u7532\u57fa-3,5-\u5421\u5576\u4e8c\u7532\u9178\u4e8c\u4e59\u916f", "en_name": ["3,5-Diethyl 1,4-dihydro-2,4,6-trimethyl-3,5-pyridinedicarboxylate", "3,5-Pyridinedicarboxylic acid, 1,4-dihydro-2,4,6-trimethyl-, 3,5-diethyl ester", "3,5-Pyridinedicarboxylic acid, 1,4-dihydro-2,4,6-trimethyl-, diethyl ester", "3,5-Diethyl 1,4-dihydro-2,4,6-trimethyl-3,5-pyridinedicarboxylate", "3,5-Dicarbethoxy-1,4-dihydrocollidine", "1,4-Dihydro-2,4,6-trimethyl-3,5-dicarbethoxypyridine", "1,4-Dihydro-3,5-dicarbethoxycollidine", "3,5-Bis(ethoxycarbonyl)-1,4-dihydro-2,4,6-trimethylpyridine", "3,5-Diethoxycarbonyl-1,4-dihydro-2,4,6-trimethylpyridine", "Diethyl 1,4-dihydro-2,4,6-trimethylpyridine-3,5-dicarboxylate", "3,5-Dicarbethoxy-1,4-dihydro-2,4,6-trimethylpyridine", "3,5-(Diethoxycarbonyl)-1,4-dihydrocollidine", "1,4-Dihydro-2,4,6-trimethyl-3,5-pyridinedicarboxylic acid diethyl ester", "DDC", "3,5-Diethoxycarbonyl-1,4-dihydro-s-collidine", "3,5-Bis(ethoxycarbonyl)-1,4-dihydrocollidine", "2,4,6-Trimethyl-3,5-diethoxycarbonyl-1,4-dihydropyridine", "DDC (porphyrinogen)", "Diethyl 2,4,6-trimethyl-1,4-dihydropyridine-3,5-dicarboxylate", "3,5-Bis(ethoxycarbonyl)-2,4,6-trimethyl-1,4-dihydropyridine", "NSC 49528", "NSC 8910", "Diethyl 2,4,6-tetramethyl-1,4-dihydropyridine-3,5-dicarboxylate", "3,5-Diethyl 2,4,6-trimethyl-1,4-dihydropyridine-3,5-dicarboxylate"], "SMILES": "C(OCC)(=O)C=1C(C)C(C(OCC)=O)=C(C)NC1C", "physical_data": {"Molecular Weight": "267.32", "Molecular Formula": "C14H21NO4", "Melting Point": "131-132 \u00b0C"}}