{"cas_no": "632-58-6", "cn_name": "\u56db\u6c2f\u90bb\u82ef\u4e8c\u7532\u9178", "en_name": ["Tetrachlorophthalic acid", "1,2-Benzenedicarboxylic acid, 3,4,5,6-tetrachloro-", "Phthalic acid, tetrachloro-", "3,4,5,6-Tetrachloro-1,2-benzenedicarboxylic acid", "Tetrachlorophthalic acid", "Tetrachloro-1,2-benzenedicarboxylic acid", "NSC 193510", "3,4,5,6-Tetrachlorophthalicacid", "3,4,5,6-Tetrachlorophthalic acid", "3,4,5,6-Tetrachloro-phthalic acid"], "SMILES": "C(O)(=O)C1=C(C(O)=O)C(Cl)=C(Cl)C(Cl)=C1Cl", "physical_data": {"Molecular Weight": "303.91", "Molecular Formula": "C8H2Cl4O4", "Melting Point": "146-147 \u00b0C"}}