{"cas_no": "632-79-1", "cn_name": "\u56db\u6eb4\u82ef\u9150", "en_name": ["Tetrabromophthalic anhydride", "1,3-Isobenzofurandione, 4,5,6,7-tetrabromo-", "Phthalic anhydride, tetrabromo-", "4,5,6,7-Tetrabromo-1,3-isobenzofurandione", "Bromphthal", "Tetrabromophthalic anhydride", "3,4,5,6-Tetrabromophthalic anhydride", "FireMaster PHT 4", "FG 4000", "Saytex RB 49", "Tetrabromophthalic acid anhydride", "PHT 4", "NSC 4874", "4,5,6,7-Tetrabromoisobenzofuran-1,3-dione", "Tertrabromophthalic anhydride", "RB 49"], "SMILES": "BrC1=C2C(=C(Br)C(Br)=C1Br)C(=O)OC2=O", "physical_data": {"Molecular Weight": "463.70", "Molecular Formula": "C8Br4O3", "Melting Point": "279.5-280.5 \u00b0C"}}