{"cas_no": "632-99-5", "cn_name": "\u78b1\u6027\u54c1\u7ea2", "en_name": ["Fuchsin", "Benzenamine, 4-[(4-aminophenyl)(4-imino-2,5-cyclohexadien-1-ylidene)methyl]-2-methyl-, hydrochloride (1:1)", "C.I. Basic Violet 14, monohydrochloride", "Rosaniline", "Benzenamine, 4-[(4-aminophenyl)(4-imino-2,5-cyclohexadien-1-ylidene)methyl]-2-methyl-, monohydrochloride", "12418 Red", "Aizen Magenta", "Astra Fuchsine B", "Basic Magenta E 200", "Calcozine Fuchsine HO", "Calcozine Magenta RTN", "Calcozine Magenta XX", "Cerise B", "Diabasic Magenta", "Diamond Fuchsine", "Fuchsine", "Fuchsine A", "Fuchsine G", "Fuchsine N", "Fuchsine Y", "Fuchsine CS", "Fuchsine HO", "Fuchsine RTN", "Magenta E", "Magenta G", "Magenta S", "Magenta DP", "Magenta PN", "Magenta Powder N", "Magenta superfine", "Orient Basic Magenta", "Rosaniline chloride", "Rosaniline hydrochloride", "Magenta I", "Basic Magenta", "C.I. Basic Violet 14", "Rosanilinium chloride", "Basic Fuchsine", "Fuchsin basic", "Basic fuchsin", "Fuchsin", "Fuchsine SBP", "C.I. 42510", "Basic Violet 14", "C-WR Violet 8", "Lowacryl Violet 14", "RGN 10", "RGB 20", "RGN 10 (dye)"], "SMILES": "C(C1=CC(C)=C(N)C=C1)(C2=CC=C(N)C=C2)=C3C=CC(=N)C=C3.Cl", "physical_data": {"Molecular Weight": "", "Molecular Formula": "C20H19N3.ClH", "Melting Point": "200 \u00b0C (decomp)"}}