{"cas_no": "632-13-3", "cn_name": "(S)-2-\u7f9f\u57fa-3-\u6c28\u57fa\u4e19\u9178", "en_name": ["L-Isoserine", "Propanoic acid, 3-amino-2-hydroxy-, (2S)-", "Propanoic acid, 3-amino-2-hydroxy-, (S)-", "(2S)-3-Amino-2-hydroxypropanoic acid", "L-Isoserine", "(S)-Isoserine", "(2S)-3-Amino-2-hydroxypropanoic acid"], "SMILES": "C(C(O)=O)(CN)O", "physical_data": {"Molecular Weight": "105.09", "Molecular Formula": "C3H7NO3", "Melting Point": "99-200 \u00b0C"}}