{"cas_no": "632-15-5", "cn_name": "3,4-\u4e8c\u7532\u57fa\u567b\u5429", "en_name": ["3,4-Dimethylthiophene", "Thiophene, 3,4-dimethyl-", "3,4-Dimethylthiophene"], "SMILES": "CC=1C(C)=CSC1", "physical_data": {"Molecular Weight": "112.19", "Molecular Formula": "C6H8S", "Boiling Point": "146-147 \u00b0C @ Press: 750 Torr", "Density": "1.0055 g/cm\u00b3 @ Temp: 20 \u00b0C"}}