{"cas_no": "632-51-9", "cn_name": "1,1,2,2-\u56db\u82ef\u4e59\u70ef", "en_name": ["Tetraphenylethylene", "Benzene, 1,1\u2032,1\u2032\u2032,1\u2032\u2032\u2032-(1,2-ethenediylidene)tetrakis-", "Ethylene, tetraphenyl-", "1,1\u2032,1\u2032\u2032,1\u2032\u2032\u2032-(1,2-Ethenediylidene)tetrakis[benzene]", "Tetraphenylethylene", "1,1,2,2-Tetraphenylethylene", "Tetraphenylethene", "\u03b1,\u03b2-Diphenylstilbene", "1,1,2,2-Tetraphenylethene", "NSC 40472", "NSC 52243", "1,2,2-Triphenylethenylbenzene"], "SMILES": "C(=C(C1=CC=CC=C1)C2=CC=CC=C2)(C3=CC=CC=C3)C4=CC=CC=C4", "physical_data": {"Molecular Weight": "332.44", "Molecular Formula": "C26H20", "Boiling Point": "420 \u00b0C", "Melting Point": "225 \u00b0C"}}