{"cas_no": "632-02-0", "cn_name": "4-\u7532\u57fa\u82ef\u78fa\u9170\u57fa-3-\u6c2f-1-\u4e19\u9187", "en_name": ["1-Propanol, 3-chloro-, 1-(4-methylbenzenesulfonate)", "1-Propanol, 3-chloro-, 1-(4-methylbenzenesulfonate)", "1-Propanol, 3-chloro-, 4-methylbenzenesulfonate", "1-Propanol, 3-chloro-, p-toluenesulfonate", "3-Chloropropyl p-toluenesulfonate", "3-Chloropropyl p-tosylate", "O-(p-Tolylsulfonyl)-3-chloropropanol", "3-Chloropropyl p-toluensulfonate", "NSC 859", "Toluene-4-sulfonic acid 3-chloropropyl ester", "3-Chloropropyl tosylate", "3-Chloropropyl 4-methylbenzenesulfonate", "3-Chloropropyl 4-methylbenzene-1-sulfonate"], "SMILES": "S(OCCCCl)(=O)(=O)C1=CC=C(C)C=C1", "physical_data": {"Molecular Weight": "248.73", "Molecular Formula": "C10H13ClO3S", "Boiling Point": "216-219 \u00b0C @ Press: 17 Torr", "Density": "1.2674 g/cm\u00b3 @ Temp: 20 \u00b0C"}}