{"cas_no": "632-46-2", "cn_name": "2,6-\u4e8c\u7532\u57fa\u82ef\u7532\u9178", "en_name": ["2,6-Dimethylbenzoic acid", "Benzoic acid, 2,6-dimethyl-", "2,6-Dimethylbenzoic acid"], "SMILES": "C(O)(=O)C1=C(C)C=CC=C1C", "physical_data": {"Molecular Weight": "150.17", "Molecular Formula": "C9H10O2", "Boiling Point": "274.5 \u00b0C", "Melting Point": "116 \u00b0C"}}