{"cas_no": "632-14-4", "cn_name": "\u4e09\u7532\u57fa\u8132", "en_name": ["N,N,N\u2032-Trimethylurea", "Urea, N,N,N\u2032-trimethyl-", "Urea, trimethyl-", "Urea, 1,1,3-trimethyl-", "N,N,N\u2032-Trimethylurea", "N,N\u2032-Dimethyl-N-methylurea", "Trimethylurea", "1,1,3-Trimethylurea", "NSC 409292"], "SMILES": "C(N(C)C)(NC)=O", "physical_data": {"Molecular Weight": "102.14", "Molecular Formula": "C4H10N2O", "Boiling Point": "232.5 \u00b0C", "Melting Point": "75.5 \u00b0C"}}