{"cas_no": "632-22-4", "cn_name": "1,1,3,3-\u56db\u7532\u57fa\u8132", "en_name": ["Tetramethylurea", "Urea, N,N,N\u2032,N\u2032-tetramethyl-", "Urea, tetramethyl-", "Urea, 1,1,3,3-tetramethyl-", "N,N,N\u2032,N\u2032-Tetramethylurea", "Tetramethylurea", "Temur", "TMU", "Tetramethylcarbamide", "NSC 91488"], "SMILES": "C(N(C)C)(N(C)C)=O", "physical_data": {"Molecular Weight": "116.16", "Molecular Formula": "C5H12N2O", "Boiling Point": "176.5 \u00b0C", "Melting Point": "-1.2 \u00b0C", "Density": "0.9687 g/cm\u00b3 @ Temp: 20 \u00b0C"}}