{"cas_no": "632-11-1", "cn_name": "(R)-\u5f02\u4e1d\u6c28\u9178", "en_name": ["(2R)-3-Amino-2-hydroxypropanoic acid", "Propanoic acid, 3-amino-2-hydroxy-, (2R)-", "Propanoic acid, 3-amino-2-hydroxy-, (R)-", "(2R)-3-Amino-2-hydroxypropanoic acid", "(R)-Isoserine", "(R)-3-Amino-2-hydroxypropanoic acid", "(2R)-3-Amino-2-hydroxypropanoic acid"], "SMILES": "C(C(O)=O)(CN)O", "physical_data": {"Molecular Weight": "105.09", "Molecular Formula": "C3H7NO3", "Melting Point": "197-198 \u00b0C"}}