{"cas_no": "632-80-4", "cn_name": "\u56db\u7898\u915e[\u9178]\u9150", "en_name": ["Tetraiodophthalic anhydride", "1,3-Isobenzofurandione, 4,5,6,7-tetraiodo-", "Phthalic anhydride, tetraiodo-", "4,5,6,7-Tetraiodo-1,3-isobenzofurandione", "Tetraiodophthalic anhydride", "3,4,5,6-Tetraiodophthalic anhydride", "NSC 26423"], "SMILES": "IC1=C2C(=C(I)C(I)=C1I)C(=O)OC2=O", "physical_data": {"Molecular Weight": "651.70", "Molecular Formula": "C8I4O3", "Melting Point": "327.5 \u00b0C"}}