{"cas_no": "632-25-7", "cn_name": "2-\u78fa\u57fa\u82ef\u7532\u9178", "en_name": ["2-Sulfobenzoic acid", "Benzoic acid, 2-sulfo-", "Benzoic acid, o-sulfo-", "2-Sulfobenzoic acid", "o-Sulfobenzoic acid", "o-Carboxybenzenesulfonic acid", "2-Carboxybenzenesulfonic acid"], "SMILES": "S(=O)(=O)(O)C1=C(C(O)=O)C=CC=C1", "physical_data": {"Molecular Weight": "202.18", "Molecular Formula": "C7H6O5S", "Melting Point": "141 \u00b0C"}}