{"cas_no": "632-24-6", "cn_name": "\u90bb\u78fa\u9170\u80fa\u82ef\u7532\u9178", "en_name": ["2-Sulfamoylbenzoic acid", "Benzoic acid, 2-(aminosulfonyl)-", "Benzoic acid, o-sulfamoyl-", "2-(Aminosulfonyl)benzoic acid", "o-Sulfamoylbenzoic acid", "2-Carboxybenzenesulfonamide", "o-Sulfonamidobenzoic acid", "2-Sulfamoylbenzoic acid", "o-Sulfamidobenzoic acid", "NSC 22975"], "SMILES": "S(N)(=O)(=O)C1=C(C(O)=O)C=CC=C1", "physical_data": {"Molecular Weight": "201.20", "Molecular Formula": "C7H7NO4S", "Melting Point": "154-156 \u00b0C"}}