{"cas_no": "632-16-6", "cn_name": "2,3-\u4e8c\u7532\u57fa\u567b\u5429", "en_name": ["2,3-Dimethylthiophene", "Thiophene, 2,3-dimethyl-", "2,3-Dimethylthiophene"], "SMILES": "CC1=C(C)SC=C1", "physical_data": {"Molecular Weight": "112.19", "Molecular Formula": "C6H8S", "Boiling Point": "141.6 \u00b0C", "Melting Point": "-49 \u00b0C", "Density": "1.0021 g/cm\u00b3 @ Temp: 20 \u00b0C"}}