{"cas_no": "632-21-3", "cn_name": "1\uff0c1\uff0c3\uff0c3-\u56db\u6c2f\u4e19\u916e", "en_name": ["1,1,3,3-Tetrachloropropanone", "2-Propanone, 1,1,3,3-tetrachloro-", "1,1,3,3-Tetrachloro-2-propanone", "1,1,3,3-Tetrachloroacetone", "1,1,3,3-Tetrachloropropanone", "NSC 137844"], "SMILES": "C(C(Cl)Cl)(C(Cl)Cl)=O", "physical_data": {"Molecular Weight": "195.86", "Molecular Formula": "C3H2Cl4O", "Boiling Point": "183 \u00b0C", "Melting Point": "45-46 \u00b0C"}}