{"cas_no": "632-20-2", "cn_name": "D-\u82cf\u6c28\u9178", "en_name": ["D-Threonine", "D-Threonine", "Threonine, D-", "(R)-Threonine", "NSC 46702", "(2R,3S)-2-Amino-3-hydroxybutanoic acid", "(2R,3S)-3-Hydroxy-2-aminobutanoic acid", "(2R,3S)-2-Amino-3-hydroxybutanoic acid"], "SMILES": "C(C(C)O)(C(O)=O)N", "physical_data": {"Molecular Weight": "119.12", "Molecular Formula": "C4H9NO3", "Melting Point": "251-253 \u00b0C"}}