{"cas_no": "6320-03-2", "cn_name": "\u90bb\u6c2f\u82ef\u786b\u915a", "en_name": ["2-Chlorobenzenethiol", "Benzenethiol, 2-chloro-", "Benzenethiol, o-chloro-", "2-Chlorobenzenethiol", "o-Chlorobenzenethiol", "2-Chlorothiophenol", "o-Chlorothiophenol", "o-Chloromercaptobenzene", "(2-Chlorophenyl)thiol", "NSC 32019", "2-Chlorobenzene-1-thiol"], "SMILES": "ClC1=C(S)C=CC=C1", "physical_data": {"Molecular Weight": "144.62", "Molecular Formula": "C6H5ClS", "Boiling Point": "205.5 \u00b0C"}}