{"cas_no": "6320-42-9", "cn_name": "7-\u7f9f\u57fa-2-\u7532\u57fa\u8272\u539f\u916e", "en_name": ["7-Hydroxy-2-methyl-4H-1-benzopyran-4-one", "4H-1-Benzopyran-4-one, 7-hydroxy-2-methyl-", "Chromone, 7-hydroxy-2-methyl-", "7-Hydroxy-2-methyl-4H-1-benzopyran-4-one", "7-Hydroxy-2-methylchromone", "NSC 31894"], "SMILES": "O=C1C=2C(OC(C)=C1)=CC(O)=CC2", "physical_data": {"Molecular Weight": "176.17", "Molecular Formula": "C10H8O3", "Melting Point": "253-254 \u00b0C"}}