{"cas_no": "6320-40-7", "cn_name": "2,4,6-\u4e09\u6eb4\u7532\u82ef", "en_name": ["2,4,6-Tribromotoluene", "Benzene, 1,3,5-tribromo-2-methyl-", "Toluene, 2,4,6-tribromo-", "1,3,5-Tribromo-2-methylbenzene", "2,4,6-Tribromotoluene", "NSC 31887"], "SMILES": "CC1=C(Br)C=C(Br)C=C1Br", "physical_data": {"Molecular Weight": "328.83", "Molecular Formula": "C7H5Br3", "Boiling Point": "290 \u00b0C", "Melting Point": "70 \u00b0C"}}