{"cas_no": "63208-82-2", "cn_name": "Pifithrin-\u03b1 (PFT\u03b1)", "en_name": ["Pifithrin", "Ethanone, 1-(4-methylphenyl)-2-(4,5,6,7-tetrahydro-2-imino-3(2H)-benzothiazolyl)-, hydrobromide (1:1)", "Ethanone, 1-(4-methylphenyl)-2-(4,5,6,7-tetrahydro-2-imino-3(2H)-benzothiazolyl)-, monohydrobromide", "Pifithrin-\u03b1", "Pifithrin"], "SMILES": "C(C(=O)C1=CC=C(C)C=C1)N2C3=C(SC2=N)CCCC3.Br", "physical_data": {"Molecular Weight": "", "Molecular Formula": "C16H18N2OS.BrH", "Melting Point": "180 \u00b0C"}}