{"cas_no": "6320-15-6", "cn_name": "6-\u6c2f-2,4-\u7532\u6c27\u57fa\u5627\u5576", "en_name": ["4-Chloro-2,6-dimethoxypyrimidine", "Pyrimidine, 4-chloro-2,6-dimethoxy-", "4-Chloro-2,6-dimethoxypyrimidine", "6-Chloro-2,4-dimethoxypyrimidine", "2,4-Dimethoxy-6-chloropyrimidine", "NSC 31796", "2,6-Dimethoxypyrimidin-4-yl chloride"], "SMILES": "O(C)C1=NC(OC)=NC(Cl)=C1", "physical_data": {"Molecular Weight": "174.59", "Molecular Formula": "C6H7ClN2O2", "Melting Point": "160-165 \u00b0C (decomp)"}}