{"cas_no": "6320-02-1", "cn_name": "2-\u6eb4\u82ef\u786b\u915a", "en_name": ["2-Bromothiophenol", "Benzenethiol, 2-bromo-", "Benzenethiol, o-bromo-", "2-Bromobenzenethiol", "o-Bromobenzenethiol", "o-Bromothiophenol", "2-Bromothiophenol", "NSC 32016", "2-Bromophenylthiol", "2-Bromobenzene-1-thiol"], "SMILES": "BrC1=C(S)C=CC=C1", "physical_data": {"Molecular Weight": "189.07", "Molecular Formula": "C6H5BrS", "Boiling Point": "95-96 \u00b0C @ Press: 11 Torr", "Melting Point": "220-222 \u00b0C"}}