{"cas_no": "6320-01-0", "cn_name": "3-\u6eb4\u82ef\u786b\u915a", "en_name": ["3-Bromothiophenol", "Benzenethiol, 3-bromo-", "Benzenethiol, m-bromo-", "3-Bromobenzenethiol", "m-Bromobenzenethiol", "m-Bromothiophenol", "3-Bromothiophenol", "NSC 32017", "3-Bromobenzene-1-thiol"], "SMILES": "BrC1=CC(S)=CC=C1", "physical_data": {"Molecular Weight": "189.07", "Molecular Formula": "C6H5BrS", "Boiling Point": "119-121 \u00b0C @ Press: 20-22 Torr", "Melting Point": "214-215 \u00b0C"}}