{"cas_no": "6321-23-9", "cn_name": "4-\u7532\u57fa\u73af\u5df1\u80fa", "en_name": ["4-Methylcyclohexylamine", "Cyclohexanamine, 4-methyl-", "Cyclohexylamine, 4-methyl-", "4-Methylcyclohexanamine", "p-Methylcyclohexylamine", "4-Methylcyclohexylamine", "NSC 32387", "1-Amino-4-methylcyclohexane", "4-Methylcyclohexan-1-amine"], "SMILES": "CC1CCC(N)CC1", "physical_data": {"Molecular Weight": "113.20", "Molecular Formula": "C7H15N", "Boiling Point": "148-150 \u00b0C", "Density": "0.9057 g/cm\u00b3 @ Temp: 8 \u00b0C"}}