{"cas_no": "6322-07-2", "cn_name": "D-(-)-\u53e4\u6d1b\u7cd6\u9178-gamma-\u5185\u916f", "en_name": ["D-Gulono-1,4-lactone", "D-Gulonic acid, \u03b3-lactone", "Gulonic acid, \u03b3-lactone, D-", "\u03b3-D-Gulonolactone", "1,4-D-Gulonolactone", "D-Gulono-1,4-lactone", "D-Gulonolactone", "D-Gulono-\u03b3-lactone", "NSC 34392", "D-Gulonic \u03b3-lactone"], "SMILES": "C(CO)(O)C1C(O)C(O)C(=O)O1", "physical_data": {"Molecular Weight": "178.14", "Molecular Formula": "C6H10O6", "Melting Point": "135-136 \u00b0C"}}