{"cas_no": "63221-88-5", "cn_name": "1-\u4e59\u57fa-4-[2-(4-\u7532\u6c27\u82ef\u57fa)\u4e59\u7094\u57fa]\u82ef", "en_name": ["1-Ethyl-4-[2-(4-methoxyphenyl)ethynyl]benzene", "Benzene, 1-ethyl-4-[2-(4-methoxyphenyl)ethynyl]-", "Benzene, 1-ethyl-4-[(4-methoxyphenyl)ethynyl]-", "1-Ethyl-4-[2-(4-methoxyphenyl)ethynyl]benzene", "p-Methoxy-p\u2032-ethyltolan", "4-Methoxy-4\u2032-ethyltolan", "PTP 2O1", "2-Btb-o1", "1-Ethyl-4-[(4-methoxyphenyl)ethynyl]benzene"], "SMILES": "C(#CC1=CC=C(OC)C=C1)C2=CC=C(CC)C=C2", "physical_data": {"Molecular Weight": "236.31", "Molecular Formula": "C17H16O", "Melting Point": "116-117 \u00b0C"}}