{"cas_no": "63226-13-1", "cn_name": "3,3'-\u7fb0\u57fa\u53cc(7-\u4e8c\u4e59\u80fa\u9999\u8c46\u7d20)", "en_name": ["3,3\u2032-Carbonylbis(7-diethylaminocoumarin)", "2H-1-Benzopyran-2-one, 3,3\u2032-carbonylbis[7-(diethylamino)-", "3,3\u2032-Carbonylbis[7-(diethylamino)-2H-1-benzopyran-2-one]", "3,3\u2032-Carbonylbis(7-diethylaminocoumarin)", "SK 1 (dye)", "SK 1", "Kc 450", "3,3-Carbonylbis(7-diethylaminocoumarin)", "Coumarin BC", "3,3\u2032-Bis(7-diethylaminocoumarinyl) ketone", "3,3\u2032-Carbonylbis[7-(diethylamino)-2H-chromen-2-one]"], "SMILES": "N(CC)(CC)C=1C=C2C(C=C(C(=O)C3=CC=4C(OC3=O)=CC(N(CC)CC)=CC4)C(=O)O2)=CC1", "physical_data": {"Molecular Weight": "460.52", "Molecular Formula": "C27H28N2O5", "Melting Point": "215-216.5 \u00b0C"}}