{"cas_no": "6322-49-2", "cn_name": "\u03b2-\u6c2f\u4ee3\u4e01\u916e", "en_name": ["4-Chloro-2-butanone", "2-Butanone, 4-chloro-", "4-Chloro-2-butanone", "1-Chloro-3-butanone", "2-Chloroethyl methyl ketone", "\u03b2-Chloroethyl methyl ketone", "NSC 32104", "4-Chlorobutan-2-one"], "SMILES": "C(C(C)=O)CCl", "physical_data": {"Molecular Weight": "106.55", "Molecular Formula": "C4H7ClO", "Boiling Point": "53 \u00b0C @ Press: 16 Torr", "Density": "1.068 g/cm\u00b3 @ Temp: 23 \u00b0C"}}