{"cas_no": "6322-56-1", "cn_name": "4'-\u7f9f\u57fa-3'-\u785d\u57fa\u82ef\u4e59\u916e", "en_name": ["4-Hydroxy-3-nitroacetophenone", "Ethanone, 1-(4-hydroxy-3-nitrophenyl)-", "Acetophenone, 4\u2032-hydroxy-3\u2032-nitro-", "1-(4-Hydroxy-3-nitrophenyl)ethanone", "3\u2032-Nitro-4\u2032-hydroxyacetophenone", "4\u2032-Hydroxy-3\u2032-nitroacetophenone", "2-Nitro-4-acetylphenol", "4-Acetyl-2-nitrophenol", "4-Hydroxy-3-nitroacetophenone", "NSC 32113", "(4-Hydroxy-3-nitrophenyl)ethan-1-one", "1-(4-Hydroxy-3-nitrophenyl)ethan-1-one"], "SMILES": "N(=O)(=O)C1=CC(C(C)=O)=CC=C1O", "physical_data": {"Molecular Weight": "181.15", "Molecular Formula": "C8H7NO4", "Boiling Point": "121-123 \u00b0C", "Melting Point": "135 \u00b0C"}}