{"cas_no": "63234-80-0", "cn_name": "3-(2-\u6c2f\u4e59\u57fa)-6,7,8,9-\u56db\u6c22-2-\u7532\u57fa-4H-\u5421\u5576\u5e76[1,2-a]\u5627\u5576-4-\u916e", "en_name": ["3-(2-Chloroethyl)-6,7,8,9-tetrahydro-2-methyl-4H-pyrido[1,2-a]pyrimidin-4-one", "4H-Pyrido[1,2-a]pyrimidin-4-one, 3-(2-chloroethyl)-6,7,8,9-tetrahydro-2-methyl-", "3-(2-Chloroethyl)-6,7,8,9-tetrahydro-2-methyl-4H-pyrido[1,2-a]pyrimidin-4-one", "3-(2-Chloroethyl)-2-methyl-6,7,8,9-tetrahydro-4H-pyrido[1,2-a]pyrimidin-4-one"], "SMILES": "O=C1N2C(=NC(C)=C1CCCl)CCCC2", "physical_data": {"Molecular Weight": "226.70", "Molecular Formula": "C11H15ClN2O", "Melting Point": "68.5-69.5 \u00b0C"}}