{"cas_no": "63237-88-7", "cn_name": "\u5421\u5511\u5e76[1,5-a]\u5421\u5576-2-\u7fa7\u9178", "en_name": ["Pyrazolo[1,5-a]pyridine-2-carboxylic acid", "Pyrazolo[1,5-a]pyridine-2-carboxylic acid"], "SMILES": "C(O)(=O)C=1C=C2N(N1)C=CC=C2", "physical_data": {"Molecular Weight": "162.15", "Molecular Formula": "C8H6N2O2", "Melting Point": "194-195 \u00b0C"}}