{"cas_no": "6323-99-5", "cn_name": "DL-2-\u6c28\u57fa-4-\u78f7\u4e01\u9178", "en_name": ["2-Amino-4-phosphonobutanoic acid", "Butanoic acid, 2-amino-4-phosphono-", "Butyric acid, 2-amino-4-phosphono-", "2-Amino-4-phosphonobutanoic acid", "2-Amino-4-phosphonobutyric acid", "3-Amino-3-carboxypropylphosphonic acid", "AP 4", "DL-2-Amino-4-phosphonobutyric acid", "DL-(\u00b1)-2-Amino-4-phosphonobutyric acid", "(\u00b1)-2-Amino-4-phosphonobutyric acid", "(\u00b1)-2-Amino-4-phosphonobutanoic acid", "DL-2-Amino-4-phosphonobutanoic acid", "NSC 30079", "NSC 354086"], "SMILES": "C(C(C(O)=O)N)CP(=O)(O)O", "physical_data": {"Molecular Weight": "183.10", "Molecular Formula": "C4H10NO5P", "Melting Point": "229-231 \u00b0C"}}