{"cas_no": "63234-70-8", "cn_name": "N-\u6c28\u57fa\u54cc\u5576\u76d0\u9178\u76d0", "en_name": ["1-Piperidinamine, hydrochloride (1:1)", "1-Piperidinamine, hydrochloride (1:1)", "1-Piperidinamine, monohydrochloride", "Piperidine, 1-amino-, hydrochloride", "1-Aminopiperidine hydrochloride", "N-Aminopiperidine hydrochloride"], "SMILES": "NN1CCCCC1.Cl", "physical_data": {"Molecular Weight": "", "Molecular Formula": "C5H12N2.ClH", "Melting Point": "162 \u00b0C"}}