{"cas_no": "63245-38-5", "cn_name": "\u5341\u4e8c\u70f7\u4e8c\u9178\u53cc[2-(2-\u7f9f\u57fa\u82ef\u7532\u9170\u57fa)\u9170\u80bc]", "en_name": ["CDA 6", "Dodecanedioic acid, 1,12-bis[2-(2-hydroxybenzoyl)hydrazide]", "Dodecanedioic acid, bis[2-(2-hydroxybenzoyl)hydrazide]", "Decamethylenedicarboxylic acid disalicyloylhydrazide", "CDA 6", "Mark CDA 6", "Disalicyloylhydrazide decamethylenedicarboxylate", "ADK Stab CDA 6", "Adeka CDA 6", "Decanedicarboxylic acid disalicyloylhydrazine", "Dodecanedioic acid bis[N2-(2-hydroxybenzoyl)hydrazide]", "ADK Stab CDA 6S"], "SMILES": "C(NNC(CCCCCCCCCCC(NNC(=O)C1=C(O)C=CC=C1)=O)=O)(=O)C2=C(O)C=CC=C2", "physical_data": {"Molecular Weight": "498.57", "Molecular Formula": "C26H34N4O6", "Melting Point": "212 \u00b0C"}}