{"cas_no": "6324-10-3", "cn_name": "4,5-\u4e8c\u6eb4\u567b\u5429-2-\u7532\u9178", "en_name": ["4,5-Dibromo-2-thiophenecarboxylic acid", "2-Thiophenecarboxylic acid, 4,5-dibromo-", "4,5-Dibromo-2-thiophenecarboxylic acid", "2,3-Dibromo-5-thiophenecarboxylic acid", "NSC 30091"], "SMILES": "C(O)(=O)C1=CC(Br)=C(Br)S1", "physical_data": {"Molecular Weight": "285.94", "Molecular Formula": "C5H2Br2O2S", "Melting Point": "227-228 \u00b0C"}}