{"cas_no": "63243-76-5", "cn_name": "2-\u6c28\u57fa-5-\u6eb4\u82ef\u7532\u9178\u4e59\u916f", "en_name": ["2-Amino-5-bromobenzoic acid ethyl ester", "Benzoic acid, 2-amino-5-bromo-, ethyl ester", "5-Bromoanthranilic acid ethyl ester", "Ethyl 5-bromoanthranilate", "2-Amino-5-bromobenzoic acid ethyl ester", "Ethyl 2-amino-5-bromobenzoate"], "SMILES": "C(OCC)(=O)C1=C(N)C=CC(Br)=C1", "physical_data": {"Molecular Weight": "244.09", "Molecular Formula": "C9H10BrNO2", "Melting Point": "187 \u00b0C"}}