{"cas_no": "6324-50-1", "cn_name": "1-\u7898-2,4,6-\u4e09\u6c2f\u82ef", "en_name": ["1,3,5-Trichloro-2-iodobenzene", "Benzene, 1,3,5-trichloro-2-iodo-", "1,3,5-Trichloro-2-iodobenzene", "2,4,6-Trichloro-1-iodobenzene", "2,4,6-Trichloroiodobenzene", "1-Iodo-2,4,6-trichlorobenzene", "NSC 29082"], "SMILES": "IC1=C(Cl)C=C(Cl)C=C1Cl", "physical_data": {"Molecular Weight": "307.34", "Molecular Formula": "C6H2Cl3I", "Melting Point": "53-54 \u00b0C"}}