{"cas_no": "63245-28-3", "cn_name": "\u4f9d\u66ff\u83f2\u5b81", "en_name": ["EHIDA", "Glycine, N-(carboxymethyl)-N-[2-[(2,6-diethylphenyl)amino]-2-oxoethyl]-", "N-(Carboxymethyl)-N-[2-[(2,6-diethylphenyl)amino]-2-oxoethyl]glycine", "N-(2,6-Diethylacetanilide)iminodiacetic acid", "Etifenin", "Diethyl-HIDA", "EHIDA"], "SMILES": "N(C(CN(CC(O)=O)CC(O)=O)=O)C1=C(CC)C=CC=C1CC", "physical_data": {"Molecular Weight": "322.36", "Molecular Formula": "C16H22N2O5", "Melting Point": "190-194 \u00b0C"}}