{"cas_no": "6325-91-3", "cn_name": "2-\u5def\u57fa-5-\u785d\u57fa\u82ef\u5e76\u54aa\u5511", "en_name": ["2-Mercapto-5-nitrobenzimidazole", "2H-Benzimidazole-2-thione, 1,3-dihydro-5-nitro-", "2-Benzimidazolethiol, 5-nitro-", "2-Benzimidazolinethione, 5-nitro-", "2-Benzimidazolethiol, 5(or 6)-nitro-", "1,3-Dihydro-5-nitro-2H-benzimidazole-2-thione", "5-Nitro-2-mercaptobenzimidazole", "5-Nitro-2-benzimidazolethiol", "2-Mercapto-5-nitrobenzimidazole", "5-Nitro-1H-benzimidazole-2-thiol", "5-Nitrobenzimidazoline-2-thione", "NSC 31137", "6-Nitro-2-thiobenzimidazole", "5-Nitrobenzimidazole-2-thione", "6-Nitro-1H-1,3-benzodiazole-2-thiol"], "SMILES": "N(=O)(=O)C=1C=C2C(=CC1)NC(=S)N2", "physical_data": {"Molecular Weight": "195.20", "Molecular Formula": "C7H5N3O2S", "Melting Point": "272 \u00b0C"}}