{"cas_no": "6325-93-5", "cn_name": "4-\u785d\u57fa\u82ef\u78fa\u9170\u80fa", "en_name": ["4-Nitrobenzenesulfonamide", "Benzenesulfonamide, 4-nitro-", "Benzenesulfonamide, p-nitro-", "4-Nitrobenzenesulfonamide", "p-Nitrobenzenesulfonamide", "4-Nitrobenzolsulfonamide", "p-Nitrophenylsulfonamide", "Nosylamide", "NSC 31148"], "SMILES": "S(N)(=O)(=O)C1=CC=C(N(=O)=O)C=C1", "physical_data": {"Molecular Weight": "202.19", "Molecular Formula": "C6H6N2O4S", "Melting Point": "178-180 \u00b0C"}}