{"cas_no": "6326-44-9", "cn_name": "\u4e8c\u4e59\u57fa\u6c28\u57fa\u7532\u809f", "en_name": ["1,3-Diethyl 2-(formylamino)propanedioate", "Propanedioic acid, 2-(formylamino)-, 1,3-diethyl ester", "Malonic acid, formamido-, diethyl ester", "Propanedioic acid, (formylamino)-, diethyl ester", "1,3-Diethyl 2-(formylamino)propanedioate", "Diethyl formamidomalonate", "Formamidomalonic acid diethyl ester", "(Formylamino)malonic acid diethyl ester", "Diethyl (formylamino)malonate", "NSC 224129", "NSC 30639", "(Formylamino)propanedioic acid diethyl ester", "Diethyl 2-formamidomalonate", "1,3-Diethyl 2-formamidopropanedioate"], "SMILES": "C(C(OCC)=O)(C(OCC)=O)NC=O", "physical_data": {"Molecular Weight": "203.19", "Molecular Formula": "C8H13NO5", "Boiling Point": "125-132 \u00b0C @ Press: 1-3 Torr", "Melting Point": "48.5 \u00b0C"}}