{"cas_no": "6326-27-8", "cn_name": "4-\u7532\u57fa\u82ef\u7532\u8112\u76d0\u9178\u76d0", "en_name": ["Benzenecarboximidamide, 4-methyl-, hydrochloride (1:1)", "Benzenecarboximidamide, 4-methyl-, hydrochloride (1:1)", "p-Toluamidine, monohydrochloride", "Benzenecarboximidamide, 4-methyl-, monohydrochloride", "4-Toluamidine hydrochloride", "4-Methylbenzamidine hydrochloride", "p-Methylbenzamidine hydrochloride"], "SMILES": "C(=N)(N)C1=CC=C(C)C=C1.Cl", "physical_data": {"Molecular Weight": "", "Molecular Formula": "C8H10N2.ClH", "Melting Point": "210-213 \u00b0C"}}