{"cas_no": "6326-83-6", "cn_name": "\u53cc(\u7fa7\u7532\u57fa)\u4e09\u786b\u4ee3\u78b3\u9178\u76d0", "en_name": ["2,2\u2032-[Carbonothioylbis(thio)]bis[acetic acid]", "Acetic acid, 2,2\u2032-[carbonothioylbis(thio)]bis-", "Carbonic acid, trithio-, diester with mercaptoacetic acid", "Carbonic acid, trithio-, bis(carboxymethyl) ester", "2,2\u2032-[Carbonothioylbis(thio)]bis[acetic acid]", "Trithiocarbodiglycolic acid", "Bis(carboxymethyl) trithiocarbonate", "Thiocarbonyldithioglycolic acid", "Di(carboxymethyl) trithiocarbonate", "NSC 30797", "2-(Carboxymethylsulfanylcarbothioylsulfanyl)acetic acid", "2-([[(Carboxymethyl)sulfanyl]methanethioyl]sulfanyl)acetic acid"], "SMILES": "C(SCC(O)=O)(SCC(O)=O)=S", "physical_data": {"Molecular Weight": "226.29", "Molecular Formula": "C5H6O4S3", "Melting Point": "172-173 \u00b0C"}}