{"cas_no": "6327-93-1", "cn_name": "\u7532\u57fa\u6c27\u5316\u5076\u6c2e\u7532\u9187\u6a31\u8349\u7cd6\u82f7", "en_name": ["Macrozamin", "\u03b2-D-Glucopyranoside, (2-methyl-2-oxidodiazenyl)methyl 6-O-\u03b2-D-xylopyranosyl-", "Macrozamin", "\u03b2-D-Glucopyranoside, (methyl-ONN-azoxy)methyl 6-O-\u03b2-D-xylopyranosyl-", "(2-Methyl-2-oxidodiazenyl)methyl 6-O-\u03b2-D-xylopyranosyl-\u03b2-D-glucopyranoside", "NSC 44423"], "SMILES": "C(OC1C(O)C(O)C(O)CO1)C2OC(OCN=N(C)=O)C(O)C(O)C2O", "physical_data": {"Molecular Weight": "384.34", "Molecular Formula": "C13H24N2O11", "Melting Point": "199-200 \u00b0C"}}