{"cas_no": "6328-48-9", "cn_name": "3-\u82c4\u6c27\u57fa\u4e19\u8148", "en_name": ["3-(Phenylmethoxy)propanenitrile", "Propanenitrile, 3-(phenylmethoxy)-", "Propionitrile, 3-(benzyloxy)-", "3-(Phenylmethoxy)propanenitrile", "3-(Benzyloxy)propionitrile", "(Benzyloxy)propionitrile", "2-Cyanoethyl benzyl ether", "NSC 43693", "3-(Benzyloxy)propanenitrile"], "SMILES": "C(OCCC#N)C1=CC=CC=C1", "physical_data": {"Molecular Weight": "161.20", "Molecular Formula": "C10H11NO", "Boiling Point": "114-116 \u00b0C @ Press: 0.5 Torr", "Density": "1.0457 g/cm\u00b3 @ Temp: 20 \u00b0C"}}