{"cas_no": "63284-71-9", "cn_name": "\u6c1f\u82ef\u5627\u5576\u9187", "en_name": ["Nuarimol", "5-Pyrimidinemethanol, \u03b1-(2-chlorophenyl)-\u03b1-(4-fluorophenyl)-", "\u03b1-(2-Chlorophenyl)-\u03b1-(4-fluorophenyl)-5-pyrimidinemethanol", "Nuarimol", "EL 2289", "EL 228", "Trimidal", "Trimifruit SC", "(\u00b1)-Nuarimol", "Trimidal EC", "Tridal", "EL 228 (fungicide)"], "SMILES": "C(O)(C1=C(Cl)C=CC=C1)(C2=CC=C(F)C=C2)C=3C=NC=NC3", "physical_data": {"Molecular Weight": "314.74", "Molecular Formula": "C17H12ClFN2O", "Melting Point": "126 \u00b0C"}}