{"cas_no": "6329-26-6", "cn_name": "\u6c2f\u4ee3\u4e59\u6c28\u57fa\u7532\u9178\u4e59\u916f", "en_name": ["Carbamic acid, N-(2-chloroethyl)-, ethyl ester", "Carbamic acid, N-(2-chloroethyl)-, ethyl ester", "Carbamic acid, (2-chloroethyl)-, ethyl ester", "N-(2-Chloroethyl)urethane", "Ethyl N-(2-chloroethyl)carbamate", "Ethyl 2-chloroethylcarbamate", "N-2-Chloroethyl O-ethyl carbamate", "NSC 43421", "[2-Chloroethyl]carbamic acid ethyl ester"], "SMILES": "C(NCCCl)(OCC)=O", "physical_data": {"Molecular Weight": "151.59", "Molecular Formula": "C5H10ClNO2", "Boiling Point": "128-130 \u00b0C @ Press: 13 Torr", "Melting Point": "76 \u00b0C", "Density": "1.156 g/cm\u00b3 @ Temp: 25 \u00b0C"}}