{"cas_no": "6329-74-4", "cn_name": "5-\u6eb4\u6c34\u6768\u9170\u80fa", "en_name": ["5-Bromo-2-hydroxybenzamide", "Benzamide, 5-bromo-2-hydroxy-", "Salicylamide, 5-bromo-", "5-Bromo-2-hydroxybenzamide", "5-Bromosalicylamide", "NSC 14278", "2-Hydroxy-5-bromobenzamide"], "SMILES": "C(N)(=O)C1=C(O)C=CC(Br)=C1", "physical_data": {"Molecular Weight": "216.03", "Molecular Formula": "C7H6BrNO2", "Melting Point": "233-238 \u00b0C"}}