{"cas_no": "6329-61-9", "cn_name": "\u5341\u6c22\u5f02\u55b9\u5549", "en_name": ["Decahydroisoquinoline", "Isoquinoline, decahydro-", "Decahydroisoquinoline", "Perhydroisoquinoline", "NSC 43479", "Octahydroisoquinoline", "1,2,3,4,4a,5,6,7,8,8a-Decahydroisoquinoline"], "SMILES": "C12C(CCCC1)CNCC2", "physical_data": {"Molecular Weight": "139.24", "Molecular Formula": "C9H17N", "Boiling Point": "97-98 \u00b0C @ Press: 15 Torr", "Melting Point": "180 \u00b0C"}}