{"cas_no": "633-35-2", "cn_name": "\u96c4\u753e-1,4,6-\u4e09\u70ef-3,17-\u4e8c\u916e", "en_name": ["Androsta-1,4,6-triene-3,17-dione", "Androsta-1,4,6-triene-3,17-dione", "\u03941,4,6-Androstriene-3,17-dione", "1,4,6-Androstatrien-3,17-dione", "Androstatrienedione"], "SMILES": "CC12C3C(C4C(C)(CC3)C(=O)CC4)C=CC1=CC(=O)C=C2", "physical_data": {"Molecular Weight": "282.38", "Molecular Formula": "C19H22O2", "Melting Point": "165-166 \u00b0C"}}