{"cas_no": "633-99-8", "cn_name": "1-\u6c2f-2-\u8418\u915a", "en_name": ["1-Chloro-2-naphthalenol", "2-Naphthalenol, 1-chloro-", "2-Naphthol, 1-chloro-", "1-Chloro-2-naphthalenol", "1-Chloro-\u03b2-naphthol", "1-Chloro-2-hydroxynaphthalene", "\u03b1-Chloro-\u03b2-naphthol", "1-Chloro-2-naphthol", "NSC 37026", "1-Chloronaphthalen-2-ol"], "SMILES": "ClC=1C2=C(C=CC1O)C=CC=C2", "physical_data": {"Molecular Weight": "178.62", "Molecular Formula": "C10H7ClO", "Melting Point": "68-69 \u00b0C"}}