{"cas_no": "633-66-9", "cn_name": "\u786b\u9178\u5c0f\u6a97\u78b1", "en_name": ["Berberine bisulfate", "Benzo[g]-1,3-benzodioxolo[5,6-a]quinolizinium, 5,6-dihydro-9,10-dimethoxy-, sulfate (1:1)", "Berbinium, 7,8,13,13a-tetradehydro-9,10-dimethoxy-2,3-(methylenedioxy)-, sulfate (1:1)", "Berberine sulfate", "Berberine bisulfate", "Berberine sulfate (1:1)", "Berberine hydrogen sulfate", "NSC 150444", "Berberine hemisulfate"], "SMILES": "O(C)C1=C2C=[N+]3C(C=4C(=CC5=C(C4)OCO5)CC3)=CC2=CC=C1OC.S(=O)(=O)([O-])O", "physical_data": {"Molecular Weight": "", "Molecular Formula": "C20H18NO4.HO4S", "Melting Point": "274-275 \u00b0C (decomp)"}}