{"cas_no": "633-03-4", "cn_name": "\u78b1\u6027\u7eff 1", "en_name": ["Brilliant Green", "Ethanaminium, N-[4-[[4-(diethylamino)phenyl]phenylmethylene]-2,5-cyclohexadien-1-ylidene]-N-ethyl-, sulfate (1:1)", "C.I. Basic Green 1", "12415 Green", "C.I. 42040", "ADC Brilliant Green Crystals", "Aizen Diamond Green GH", "Astra Diamond Green GX", "Avon Green A 4379", "Basic Green V", "Brilliant Green BPC", "Brilliant Green BP Crystals", "Brilliant Green B", "Brilliant Green G", "Brilliant Green P", "Brilliant Green Y", "Brilliant Green Crystals", "Brilliant Green Crystals H", "Brilliant Green DSC", "Brilliant Green GX", "Brilliant Green Lake", "Brilliant Green Sulfate", "Brilliant Green WP Crystals", "Brilliant Green YN", "Brilliant Lake Green Y", "Calcozine Brilliant Green G", "Deorlene Green JJO", "Diamond Green G", "Ethyl green", "Fast Green J", "Fast Green JJO", "Green EN", "Hidaco Brilliant Green", "Malachite Green G", "Mitsui Brilliant Green GX", "Solid Green", "Tertrophene Brilliant Green G", "Tokyo Aniline Brilliant Green", "Brilliant Green Special", "Brilliant Green", "Brilliant Green YNS", "Basic Brilliant Green", "Brilliant green aseptic", "Basic Bright Green Sulfate", "Aizen Malachite Green GH", "Basic Bright Green", "Basic Green 1", "Astrazon Green D", "Brilliant Green BP", "Resplendency Green", "NSC 5011", "Diamond Green GH", "Fluka Brilliant Green"], "SMILES": "S(=O)(=O)([O-])O.C(C1=CC=C(N(CC)CC)C=C1)(=C2C=CC(=[N+](CC)CC)C=C2)C3=CC=CC=C3", "physical_data": {"Molecular Weight": "", "Molecular Formula": "C27H33N2.HO4S", "Melting Point": "210 \u00b0C (decomp)"}}