{"cas_no": "633-65-8", "cn_name": "\u76d0\u9178\u5c0f\u6a97\u78b1", "en_name": ["Berberine hydrochloride", "Benzo[g]-1,3-benzodioxolo[5,6-a]quinolizinium, 5,6-dihydro-9,10-dimethoxy-, chloride (1:1)", "Berbinium, 7,8,13,13a-tetradehydro-9,10-dimethoxy-2,3-(methylenedioxy)-, chloride", "Benzo[g]-1,3-benzodioxolo[5,6-a]quinolizinium, 5,6-dihydro-9,10-dimethoxy-, chloride", "Berberine, chloride", "Berberine hydrochloride", "Berberinium chloride", "NSC 646666", "NSC 163088", "Berberine IR", "16,17-Dimethoxy-5,7-dioxa-13\u03bb5-azapentacyclo[11.8.0.0[2,10].0[4,8].0[15,20]]henicosa-1(21),2(10),3,8,13,15(20),16,18-octaen-13-ylium chloride"], "SMILES": "O(C)C1=C2C=[N+]3C(C=4C(=CC5=C(C4)OCO5)CC3)=CC2=CC=C1OC.[Cl-]", "physical_data": {"Molecular Weight": "", "Molecular Formula": "C20H18NO4.Cl", "Melting Point": "214 \u00b0C"}}