{"cas_no": "633-31-8", "cn_name": "\u80c6\u753e\u70ef\u57fa\u4e19\u9178\u916f", "en_name": ["Cholesteryl propionate", "Cholest-5-en-3-ol (3\u03b2)-, 3-propanoate", "Cholesterol, propionate", "Cholest-5-en-3-ol (3\u03b2)-, propanoate", "Cholesteryl propionate", "3\u03b2-(Propionyloxy)cholest-5-ene", "Cholesterol n-propionate", "Cholesteryl propanoate", "NSC 226871", "Cholest-5-en-3\u03b2-ol propionate", "5-Cholesten-3\u03b2-ol propionate"], "SMILES": "CC12C3C(C4C(C)(CC3)C(C(CCCC(C)C)C)CC4)CC=C1CC(OC(CC)=O)CC2", "physical_data": {"Molecular Weight": "442.72", "Molecular Formula": "C30H50O2", "Melting Point": "113.0 \u00b0C"}}