{"cas_no": "6330-25-2", "cn_name": "2-\u6c30\u57fa-N-\u7532\u57fa\u4e59\u9170\u80fa", "en_name": ["N-Methylcyanoacetamide", "Acetamide, 2-cyano-N-methyl-", "2-Cyano-N-methylacetamide", "Cyanoacetic acid methylamide", "N-Methylcyanoacetamide", "N-Methyl-2-cyanoacetamide", "Cyanoacetic acid monomethylamide", "NSC 47005"], "SMILES": "C(CC#N)(NC)=O", "physical_data": {"Molecular Weight": "98.10", "Molecular Formula": "C4H6N2O", "Melting Point": "98-100 \u00b0C"}}