{"cas_no": "6331-70-0", "cn_name": "2-\u6c28\u57fa-4-\u7532\u57fa\u82ef\u4e59\u919a", "en_name": ["2-Ethoxy-5-methylaniline", "Benzenamine, 2-ethoxy-5-methyl-", "o-Phenetidine, 5-methyl-", "2-Ethoxy-5-methylbenzenamine", "2-Ethoxy-5-methylaniline", "NSC 37005"], "SMILES": "O(CC)C1=C(N)C=C(C)C=C1", "physical_data": {"Molecular Weight": "151.21", "Molecular Formula": "C9H13NO", "Melting Point": "40-41 \u00b0C"}}