{"cas_no": "63329-53-3", "cn_name": "\u6c2f\u82ef\u624e\u5229", "en_name": ["Lobenzarit", "Benzoic acid, 2-[(2-carboxyphenyl)amino]-4-chloro-", "2-[(2-Carboxyphenyl)amino]-4-chlorobenzoic acid", "Lobenzarit", "N-(2-Carboxyphenyl)-4-chloroanthranilic acid", "CCA", "2-(2-Carboxyanilino)-4-chlorobenzoic acid"], "SMILES": "N(C1=C(C(O)=O)C=CC(Cl)=C1)C2=C(C(O)=O)C=CC=C2", "physical_data": {"Molecular Weight": "291.69", "Molecular Formula": "C14H10ClNO4", "Melting Point": "&gt;306 \u00b0C"}}