{"cas_no": "6332-56-5", "cn_name": "2-\u7f9f\u57fa-3-\u785d\u57fa\u5421\u5576", "en_name": ["3-Nitro-2(1H)-pyridinone", "2(1H)-Pyridinone, 3-nitro-", "2-Pyridinol, 3-nitro-", "2(1H)-Pyridone, 3-nitro-", "3-Nitro-2(1H)-pyridinone", "3-Nitro-2-pyridinol", "3-Nitro-2-hydroxypyridine", "2-Hydroxy-3-nitropyridine", "3-Nitro-2-pyridone", "3-Nitropyridin-2(1H)-one", "3-Nitro-2-pyridinone", "NSC 26281", "3-Nitro-1,2-dihydropyridin-2-one"], "SMILES": "N(=O)(=O)C=1C(=O)NC=CC1", "physical_data": {"Molecular Weight": "140.10", "Molecular Formula": "C5H4N2O3", "Melting Point": "224 \u00b0C"}}