{"cas_no": "63321-70-0", "cn_name": "\u8f9b\u9178\u5f02\u8f9b\u916f", "en_name": ["2-Ethylhexyl caprylate", "Octanoic acid, 2-ethylhexyl ester", "2-Ethyl-1-hexyl octanoate", "2-Ethylhexyl octanoate", "2-Ethylhexyl caprylate", "NSC 403894", "Edenor LPL", "Pastell 2H08", "Radia 7126"], "SMILES": "C(COC(CCCCCCC)=O)(CCCC)CC", "physical_data": {"Molecular Weight": "256.42", "Molecular Formula": "C16H32O2", "Boiling Point": "296 \u00b0C"}}