{"cas_no": "63335-24-0", "cn_name": "", "en_name": ["Malabaricone B", "1-Nonanone, 1-(2,6-dihydroxyphenyl)-9-(4-hydroxyphenyl)-", "1-(2,6-Dihydroxyphenyl)-9-(4-hydroxyphenyl)-1-nonanone", "Malabaricone B", "NSC 287967", "NSC 630196"], "SMILES": "C(CCCCCCCCC1=CC=C(O)C=C1)(=O)C2=C(O)C=CC=C2O", "physical_data": {"Molecular Weight": "342.43", "Molecular Formula": "C21H26O4", "Melting Point": "100-102 \u00b0C"}}