{"cas_no": "63335-25-1", "cn_name": "\u9a6c\u62c9\u5df4\u916eC", "en_name": ["Malabaricone C", "1-Nonanone, 1-(2,6-dihydroxyphenyl)-9-(3,4-dihydroxyphenyl)-", "1-(2,6-Dihydroxyphenyl)-9-(3,4-dihydroxyphenyl)-1-nonanone", "Malabaricone C", "NSC 287968"], "SMILES": "C(CCCCCCCCC1=CC(O)=C(O)C=C1)(=O)C2=C(O)C=CC=C2O", "physical_data": {"Molecular Weight": "358.43", "Molecular Formula": "C21H26O5", "Melting Point": "122-124 \u00b0C"}}