{"cas_no": "63333-35-7", "cn_name": "\u6eb4\u9f20\u80fa", "en_name": ["Bromethalin", "Benzenamine, N-methyl-2,4-dinitro-N-(2,4,6-tribromophenyl)-6-(trifluoromethyl)-", "N-Methyl-2,4-dinitro-N-(2,4,6-tribromophenyl)-6-(trifluoromethyl)benzenamine", "EL 614", "Bromethalin", "Rampage", "Rampage (rodenticide)"], "SMILES": "N(C)(C1=C(C(F)(F)F)C=C(N(=O)=O)C=C1N(=O)=O)C2=C(Br)C=C(Br)C=C2Br", "physical_data": {"Molecular Weight": "577.93", "Molecular Formula": "C14H7Br3F3N3O4", "Melting Point": "150-151 \u00b0C"}}