{"cas_no": "6333-54-6", "cn_name": "\u786c\u8102\u9170\u7518\u6c28\u9178", "en_name": ["Stearoylglycine", "Glycine, N-(1-oxooctadecyl)-", "Glycine, N-stearoyl-", "N-(1-Oxooctadecyl)glycine", "N-Octadecanoylglycine", "Stearamidoacetic acid", "N-Stearoylglycine", "Stearoylglycine", "NSC 15863"], "SMILES": "C(CC(NCC(O)=O)=O)CCCCCCCCCCCCCCC", "physical_data": {"Molecular Weight": "341.53", "Molecular Formula": "C20H39NO3", "Melting Point": "125-126 \u00b0C"}}