{"cas_no": "6334-96-9", "cn_name": "\u53cc(4-\u6c2f\u4e01\u57fa)\u919a", "en_name": ["1,1\u2032-Oxybis[4-chlorobutane]", "Butane, 1,1\u2032-oxybis[4-chloro-", "Ether, bis(4-chlorobutyl)", "1,1\u2032-Oxybis[4-chlorobutane]", "Bis(4-chlorobutyl) ether", "4,4\u2032-Dichlorodibutyl ether", "1,9-Dichloro-5-oxanonane", "NSC 26978", "4,4\u2032-Dichlorobutyl ether", "1-Chloro-4-(4-chlorobutoxy)butane"], "SMILES": "O(CCCCCl)CCCCCl", "physical_data": {"Molecular Weight": "199.12", "Molecular Formula": "C8H16Cl2O", "Boiling Point": "125-128 \u00b0C @ Press: 12 Torr", "Density": "1.0747 g/cm\u00b3 @ Temp: 20 \u00b0C"}}