{"cas_no": "6334-18-5", "cn_name": "2,3-\u4e8c\u6c2f\u82ef\u7532\u919b", "en_name": ["2,3-Dichlorobenzaldehyde", "Benzaldehyde, 2,3-dichloro-", "2,3-Dichlorobenzaldehyde", "NSC 28450"], "SMILES": "C(=O)C1=C(Cl)C(Cl)=CC=C1", "physical_data": {"Molecular Weight": "175.01", "Molecular Formula": "C7H4Cl2O", "Melting Point": "65-67 \u00b0C"}}