{"cas_no": "63358-49-6", "cn_name": "\u963f\u6251\u897f\u6797", "en_name": ["Aspoxicillin", "Glycinamide, N-methyl-D-asparaginyl-N-[(2S,5R,6R)-2-carboxy-3,3-dimethyl-7-oxo-4-thia-1-azabicyclo[3.2.0]hept-6-yl]-2-(4-hydroxyphenyl)-, (2R)-", "Glycinamide, N-methyl-D-asparaginyl-N-(2-carboxy-3,3-dimethyl-7-oxo-4-thia-1-azabicyclo[3.2.0]hept-6-yl)-D-2-(4-hydroxyphenyl)-, [2S-(2\u03b1,5\u03b1,6\u03b2)]-", "TA 058", "Aspoxicillin", "ASPC", "Doyle"], "SMILES": "N(C(C(NC(C(CC(NC)=O)N)=O)C1=CC=C(O)C=C1)=O)C2C3N(C(C(O)=O)C(C)(C)S3)C2=O", "physical_data": {"Molecular Weight": "493.53", "Molecular Formula": "C21H27N5O7S", "Melting Point": "195-198 \u00b0C (decomp)"}}