{"cas_no": "6335-76-8", "cn_name": "3-\u6c28\u57fa-3-\u82ef\u57fa\u4e19\u9178\u4e59\u916f", "en_name": ["Ethyl \u03b2-aminobenzenepropanoate", "Benzenepropanoic acid, \u03b2-amino-, ethyl ester", "Hydrocinnamic acid, \u03b2-amino-, ethyl ester", "Ethyl \u03b2-aminobenzenepropanoate", "Ethyl 3-amino-3-phenylpropionate", "3-Amino-3-phenylpropanoic acid ethyl ester", "NSC 38811", "\u03b2-Aminobenzenepropanoic acid ethyl ester", "3-Amino-3-phenyl-propionic acid ethyl ester"], "SMILES": "C(CC(OCC)=O)(N)C1=CC=CC=C1", "physical_data": {"Molecular Weight": "193.24", "Molecular Formula": "C11H15NO2", "Boiling Point": "155 \u00b0C @ Press: 13 Torr", "Melting Point": "111-112 \u00b0C"}}