{"cas_no": "6336-50-1", "cn_name": "6-\u82c4\u57fa-2-\u786b\u8132\u5627\u5576", "en_name": ["6-Benzyl-2-thiouracil", "4(1H)-Pyrimidinone, 2,3-dihydro-6-(phenylmethyl)-2-thioxo-", "Uracil, 6-benzyl-2-thio-", "2,3-Dihydro-6-(phenylmethyl)-2-thioxo-4(1H)-pyrimidinone", "6-Benzyl-2-thiouracil", "Basdene", "NSC 39511", "NSC 6508", "Bentiuracil", "ZINC 08580452"], "SMILES": "C(C1=CC(=O)NC(=S)N1)C2=CC=CC=C2", "physical_data": {"Molecular Weight": "218.27", "Molecular Formula": "C11H10N2OS", "Melting Point": "216-219 \u00b0C"}}