{"cas_no": "6337-43-5", "cn_name": "\u7d2b\u5916\u7ebf\u5438\u6536\u5242988", "en_name": ["1,1\u2032,3,3\u2032-Tetraethyl 2,2\u2032-(1,4-phenylenedimethylidyne)bis[propanedioate]", "Propanedioic acid, 2,2\u2032-(1,4-phenylenedimethylidyne)bis-, 1,1\u2032,3,3\u2032-tetraethyl ester", "Malonic acid, (p-phenylenedimethylidyne)di-, tetraethyl ester", "Propanedioic acid, 2,2\u2032-(1,4-phenylenedimethylidyne)bis-, tetraethyl ester", "1,1\u2032,3,3\u2032-Tetraethyl 2,2\u2032-(1,4-phenylenedimethylidyne)bis[propanedioate]", "p-Phenylenebis(methylenemalonic acid) tetraethyl ester", "NSC 38065", "Hostavin B-CAP", "B-CAP"], "SMILES": "C(=CC1=CC=C(C=C(C(OCC)=O)C(OCC)=O)C=C1)(C(OCC)=O)C(OCC)=O", "physical_data": {"Molecular Weight": "418.44", "Molecular Formula": "C22H26O8", "Melting Point": "136-137 \u00b0C"}}