{"cas_no": "6338-41-6", "cn_name": "5-\u7f9f\u7532\u57fa-2-\u544b\u5583\u7532\u9178", "en_name": ["5-(Hydroxymethyl)-2-furancarboxylic acid", "2-Furancarboxylic acid, 5-(hydroxymethyl)-", "2-Furoic acid, 5-(hydroxymethyl)-", "5-(Hydroxymethyl)-2-furancarboxylic acid", "Sumiki's acid", "5-(Hydroxymethyl)-2-furoic acid", "Sumikis' acid", "2-(Hydroxymethyl)furan-5-carboxylic acid", "NSC 40739", "5-Hydroxymethyl-2-furanoic acid"], "SMILES": "C(O)(=O)C=1OC(CO)=CC1", "physical_data": {"Molecular Weight": "142.11", "Molecular Formula": "C6H6O4", "Melting Point": "165 \u00b0C"}}