{"cas_no": "6338-55-2", "cn_name": "2-[2-(2-\u6c28\u57fa\u4e59\u6c27\u57fa)\u4e59\u6c27\u57fa]\u4e59\u9187", "en_name": ["2-[2-(2-Aminoethoxy)ethoxy]ethanol", "Ethanol, 2-[2-(2-aminoethoxy)ethoxy]-", "2-[2-(2-Aminoethoxy)ethoxy]ethanol", "Triethylene glycol monoamine", "T3EGMA", "8-Amino-3,6-dioxa-1-octanol", "Triglycolamine", "MA 10", "NSC 40760", "8-Amino-3,6-dioxaoctanol", "2-[2-(2-Hydroxyethoxy)ethoxy]ethylamine", "3,6,9-Trioxadecylamine", "2-[2-(2-Aminoethoxy)ethoxy]ethan-1-ol"], "SMILES": "C(COCCO)OCCN", "physical_data": {"Molecular Weight": "149.19", "Molecular Formula": "C6H15NO3", "Boiling Point": "120-130 \u00b0C @ Press: 4 Torr", "Density": "1.0773 g/cm\u00b3 @ Temp: 20 \u00b0C"}}