{"cas_no": "6339-87-3", "cn_name": "2-\u567b\u5429\u78fa\u9170\u80fa", "en_name": ["2-Thiophenesulfonamide", "2-Thiophenesulfonamide", "2-Thienylsulfonamide", "NSC 42521"], "SMILES": "S(N)(=O)(=O)C1=CC=CS1", "physical_data": {"Molecular Weight": "163.22", "Molecular Formula": "C4H5NO2S2", "Melting Point": "147 \u00b0C"}}