{"cas_no": "6339-19-1", "cn_name": "5-\u6c28\u57fa-4-\u6c2f-3-\u54d2\u55ea", "en_name": ["3(2H)-Pyridazinone, 5-amino-4-chloro-", "3(2H)-Pyridazinone, 5-amino-4-chloro-", "3-Pyridazinol, 5-amino-4-chloro-", "5-Amino-4-chloro-3(2H)-pyridazinone", "5-Amino-4-chloro-3(2H)-pyridazone", "5-Amino-4-chloro-3-pyridazinone", "4-Amino-5-chloropyridazin-6(1H)-one", "NSC 38293"], "SMILES": "ClC1=C(N)C=NNC1=O", "physical_data": {"Molecular Weight": "145.55", "Molecular Formula": "C4H4ClN3O", "Melting Point": "292-294 \u00b0C"}}