{"cas_no": "634-83-3", "cn_name": "2,3,4,5-\u56db\u6c2f\u82ef\u80fa", "en_name": ["2,3,4,5-Tetrachloroaniline", "Benzenamine, 2,3,4,5-tetrachloro-", "Aniline, 2,3,4,5-tetrachloro-", "2,3,4,5-Tetrachlorobenzenamine", "2,3,4,5-Tetrachloroaniline"], "SMILES": "ClC1=C(Cl)C(Cl)=C(N)C=C1Cl", "physical_data": {"Molecular Weight": "230.91", "Molecular Formula": "C6H3Cl4N", "Melting Point": "121 \u00b0C"}}