{"cas_no": "634-65-1", "cn_name": "2,4-\u4e8c\u7532\u57fa-1,3-\u82ef\u4e8c\u915a", "en_name": ["2,4-Dimethylresorcinol", "1,3-Benzenediol, 2,4-dimethyl-", "Resorcinol, 2,4-dimethyl-", "2,4-Dimethyl-1,3-benzenediol", "m-Xylene-2,4-diol", "2,6-Dimethylresorcinol", "2,4-Dimethylresorcinol", "2,4-Dimethyl-1,3-dihydroxybenzene", "1,3-Dihydroxy-2,4-dimethylbenzene", "2,6-Dimethyl-1,3-benzenediol", "2,4-Dimethylbenzene-1,3-diol", "3-Hydroxy-2,6-dimethylphenol"], "SMILES": "CC1=C(O)C(C)=CC=C1O", "physical_data": {"Molecular Weight": "138.16", "Molecular Formula": "C8H10O2", "Melting Point": "112 \u00b0C"}}