{"cas_no": "634-66-2", "cn_name": "1,2,3,4-\u56db\u6c2f\u82ef", "en_name": ["1,2,3,4-Tetrachlorobenzene", "Benzene, 1,2,3,4-tetrachloro-", "1,2,3,4-Tetrachlorobenzene", "NSC 50729"], "SMILES": "ClC1=C(Cl)C(Cl)=CC=C1Cl", "physical_data": {"Molecular Weight": "215.89", "Molecular Formula": "C6H2Cl4", "Boiling Point": "254 \u00b0C @ Press: 760 Torr", "Melting Point": "47.5 \u00b0C", "Density": "170 g/cm\u00b3"}}