{"cas_no": "634-97-9", "cn_name": "\u5421\u54af-2-\u7fa7\u9178", "en_name": ["Pyrrole-2-carboxylic acid", "1H-Pyrrole-2-carboxylic acid", "Pyrrole-2-carboxylic acid", "Minaline", "Minalin", "2-Minaline", "2-Mialine", "NSC 48130"], "SMILES": "C(O)(=O)C1=CC=CN1", "physical_data": {"Molecular Weight": "111.10", "Molecular Formula": "C5H5NO2", "Melting Point": "206 \u00b0C (decomp)"}}