{"cas_no": "634-93-5", "cn_name": "2,4,6-\u4e09\u6c2f\u82ef\u80fa", "en_name": ["2,4,6-Trichloroaniline", "Benzenamine, 2,4,6-trichloro-", "Aniline, 2,4,6-trichloro-", "2,4,6-Trichlorobenzenamine", "sym-Trichloroaniline", "2,4,6-Trichloroaniline", "2,4,6-Trichloraniline", "NSC 2114", "2,4,6-Trichlorophenylamine"], "SMILES": "NC1=C(Cl)C=C(Cl)C=C1Cl", "physical_data": {"Molecular Weight": "196.46", "Molecular Formula": "C6H4Cl3N", "Boiling Point": "262 \u00b0C @ Press: 746 Torr", "Melting Point": "78.5 \u00b0C"}}