{"cas_no": "634-43-5", "cn_name": "N-(\u5bf9\u7532\u82ef\u57fa)-1-\u8418\u80fa", "en_name": ["N-(4-Methylphenyl)-1-naphthalenamine", "1-Naphthalenamine, N-(4-methylphenyl)-", "1-Naphthylamine, N-p-tolyl-", "N-(4-Methylphenyl)-1-naphthalenamine", "NSC 37610", "N-(p-Tolyl)-1-naphthylamine", "N-4-Tolyl-1-naphthylamine"], "SMILES": "N(C=1C2=C(C=CC1)C=CC=C2)C3=CC=C(C)C=C3", "physical_data": {"Molecular Weight": "233.31", "Molecular Formula": "C17H15N", "Melting Point": "134-136 \u00b0C"}}