{"cas_no": "634-35-5", "cn_name": "\u55b9\u5549\u7898\u4e59\u70f7", "en_name": ["Quinolinium, 1-ethyl-, iodide (1:1)", "Quinolinium, 1-ethyl-, iodide (1:1)", "Quinolinium, 1-ethyl-, iodide", "1-Ethylquinolinium iodide", "N-Ethylquinolinium iodide", "Quinoline ethiodide", "Ethane, iodo-, addn. compd. with quinoline"], "SMILES": "C(C)[N+]=1C2=C(C=CC1)C=CC=C2.[I-]", "physical_data": {"Molecular Weight": "", "Molecular Formula": "C11H12N.I", "Melting Point": "156 \u00b0C"}}