{"cas_no": "634-47-9", "cn_name": "4-\u7532\u57fa-2-\u6c2f-\u55b9\u5549", "en_name": ["2-Chloro-4-methylquinoline", "Quinoline, 2-chloro-4-methyl-", "Lepidine, 2-chloro-", "2-Chloro-4-methylquinoline", "2-Chlorolepidine", "NSC 96476"], "SMILES": "CC=1C2=C(N=C(Cl)C1)C=CC=C2", "physical_data": {"Molecular Weight": "177.63", "Molecular Formula": "C10H8ClN", "Boiling Point": "296 \u00b0C", "Melting Point": "59 \u00b0C"}}