{"cas_no": "634-95-7", "cn_name": "1,1-\u4e8c\u4e59\u57fa\u8132", "en_name": ["N,N-Diethylurea", "Urea, N,N-diethyl-", "Urea, 1,1-diethyl-", "N,N-Diethylurea", "1,1-Diethylurea", "asym-Diethylurea", "NSC 165657"], "SMILES": "N(C(N)=O)(CC)CC", "physical_data": {"Molecular Weight": "116.16", "Molecular Formula": "C5H12N2O", "Boiling Point": "94-96 \u00b0C @ Press: 0.02 Torr", "Melting Point": "75 \u00b0C"}}