{"cas_no": "634-90-2", "cn_name": "1,2,3,5-\u56db\u6c2f\u82ef", "en_name": ["1,2,3,5-Tetrachlorobenzene", "Benzene, 1,2,3,5-tetrachloro-", "1,2,3,5-Tetrachlorobenzene", "1,2,4,6-Tetrachlorobenzene", "NSC 78934"], "SMILES": "ClC1=C(Cl)C=C(Cl)C=C1Cl", "physical_data": {"Molecular Weight": "215.89", "Molecular Formula": "C6H2Cl4", "Boiling Point": "246 \u00b0C", "Melting Point": "51 \u00b0C"}}