{"cas_no": "634-74-2", "cn_name": "D-\u9f20\u674e\u7cd6", "en_name": ["D-Rhamnose", "D-Mannose, 6-deoxy-", "Rhamnose, D-", "6-Deoxy-D-mannose", "Isodulcite", "D-Rhamnose"], "SMILES": "C(C(C(C)O)O)(C(C=O)O)O", "physical_data": {"Molecular Weight": "164.16", "Molecular Formula": "C6H12O5", "Melting Point": "120-160 \u00b0C"}}