{"cas_no": "634-91-3", "cn_name": "3,4,5-\u4e09\u6c2f\u82ef\u80fa", "en_name": ["3,4,5-Trichloroaniline", "Benzenamine, 3,4,5-trichloro-", "Aniline, 3,4,5-trichloro-", "3,4,5-Trichlorobenzenamine", "3,4,5-Trichloroaniline", "NSC 115260"], "SMILES": "ClC1=C(Cl)C=C(N)C=C1Cl", "physical_data": {"Molecular Weight": "196.46", "Molecular Formula": "C6H4Cl3N", "Melting Point": "99 \u00b0C"}}