{"cas_no": "634-55-9", "cn_name": "2-\u6c30\u57fa\u4e59\u9170\u4e59\u9178\u4e59\u916f", "en_name": ["Butanoic acid, 2-cyano-3-oxo-, ethyl ester", "Butanoic acid, 2-cyano-3-oxo-, ethyl ester", "Acetoacetic acid, 2-cyano-, ethyl ester", "Ethyl \u03b1-cyanoacetoacetate", "Ethyl 2-cyano-3-oxobutanoate"], "SMILES": "C(C(OCC)=O)(C(C)=O)C#N", "physical_data": {"Molecular Weight": "155.15", "Molecular Formula": "C7H9NO3", "Boiling Point": "115 \u00b0C @ Press: 2 Torr"}}