{"cas_no": "634-36-6", "cn_name": "1,2,3-\u4e09\u7532\u6c27\u57fa\u82ef", "en_name": ["1,2,3-Trimethoxybenzene", "Benzene, 1,2,3-trimethoxy-", "1,2,3-Trimethoxybenzene", "Methylsyringol", "Pyrogallol trimethyl ether", "Tri-O-methylpyrogallol", "3,4,5-Trimethoxybenzole", "NSC 10124", "Pyrogallol trimethoxy ether", "1,2,6-Trimethoxybenzene"], "SMILES": "O(C)C1=C(OC)C=CC=C1OC", "physical_data": {"Molecular Weight": "168.19", "Molecular Formula": "C9H12O3", "Boiling Point": "235 \u00b0C", "Melting Point": "48.5 \u00b0C"}}