{"cas_no": "634-67-3", "cn_name": "2,3,4-\u4e09\u6c2f\u82ef\u80fa", "en_name": ["2,3,4-Trichloroaniline", "Benzenamine, 2,3,4-trichloro-", "Aniline, 2,3,4-trichloro-", "2,3,4-Trichlorobenzenamine", "2,3,4-Trichloroaniline", "1-Amino-2,3,4-trichlorobenzene", "NSC 89297"], "SMILES": "ClC1=C(Cl)C(N)=CC=C1Cl", "physical_data": {"Molecular Weight": "196.46", "Molecular Formula": "C6H4Cl3N", "Boiling Point": "292 \u00b0C", "Melting Point": "73 \u00b0C"}}