{"cas_no": "6340-79-0", "cn_name": "3-(4-\u6eb4\u82ef\u7532\u9170)\u4e19\u9178", "en_name": ["4-Bromo-\u03b3-oxobenzenebutanoic acid", "Benzenebutanoic acid, 4-bromo-\u03b3-oxo-", "Propionic acid, 3-(p-bromobenzoyl)-", "4-Bromo-\u03b3-oxobenzenebutanoic acid", "3-(p-Bromobenzoyl)propionic acid", "p-Bromobenzoylpropionic acid", "3-(4-Bromobenzoyl)propanoic acid", "\u03b2-(4-Bromobenzoyl)propionic acid", "3-(4-Bromobenzoyl)propionic acid", "\u03b2-(4-Bromophenyl)propionic acid", "NSC 51068", "4-(4-Bromophenyl)-4-oxobutyric acid", "4-(4-Bromophenyl)-4-oxobutanoic acid"], "SMILES": "C(CCC(O)=O)(=O)C1=CC=C(Br)C=C1", "physical_data": {"Molecular Weight": "257.08", "Molecular Formula": "C10H9BrO3", "Boiling Point": "147-150 \u00b0C @ Press: 760 Torr", "Melting Point": "140 \u00b0C"}}