{"cas_no": "6341-72-6", "cn_name": "\u6c1f\u6bd4\u6d1b\u82ac\u76f8\u5173\u7269\u8d28A", "en_name": ["\u03b1-Methyl[1,1\u2032-biphenyl]-4-acetic acid", "[1,1\u2032-Biphenyl]-4-acetic acid, \u03b1-methyl-", "4-Biphenylacetic acid, \u03b1-methyl-", "Hydratropic acid, p-phenyl-", "\u03b1-Methyl[1,1\u2032-biphenyl]-4-acetic acid", "2-(4-Biphenylyl)propionic acid", "2-(4-Biphenyl)propionic acid", "(\u00b1)-2-(4-Biphenyl)propionic acid", "Biprofen", "NSC 16300", "2-(4-Phenylphenyl)propionic acid", "16300Y1", "2-((1,1\u2032-Biphenyl]-4-yl)propanoic acid", "2-(4-Biphenylyl)propanoic acid", "2-(4-Phenylphenyl)propanoic acid"], "SMILES": "C(C(O)=O)(C)C1=CC=C(C=C1)C2=CC=CC=C2", "physical_data": {"Molecular Weight": "226.27", "Molecular Formula": "C15H14O2", "Melting Point": "145-147 \u00b0C"}}