{"cas_no": "6342-80-9", "cn_name": "4,5-\u4e8c\u7532\u6c27\u57fa-1-\u831a\u916e", "en_name": ["4,5-Dimethoxy-1-indanone", "1H-Inden-1-one, 2,3-dihydro-4,5-dimethoxy-", "1-Indanone, 4,5-dimethoxy-", "2,3-Dihydro-4,5-dimethoxy-1H-inden-1-one", "4,5-Dimethoxy-1-indanone", "NSC 46649"], "SMILES": "O(C)C1=C2C(=CC=C1OC)C(=O)CC2", "physical_data": {"Molecular Weight": "192.21", "Molecular Formula": "C11H12O3", "Boiling Point": "160-161 \u00b0C @ Press: 2 Torr", "Melting Point": "82 \u00b0C"}}