{"cas_no": "6342-60-5", "cn_name": "2-\u6c2f-5-\u7532\u57fa\u82ef\u7532\u9178", "en_name": ["2-Chloro-5-methylbenzoic acid", "Benzoic acid, 2-chloro-5-methyl-", "m-Toluic acid, 6-chloro-", "2-Chloro-5-methylbenzoic acid", "NSC 46623"], "SMILES": "C(O)(=O)C1=C(Cl)C=CC(C)=C1", "physical_data": {"Molecular Weight": "170.59", "Molecular Formula": "C8H7ClO2", "Melting Point": "207-208 \u00b0C"}}