{"cas_no": "6342-64-9", "cn_name": "5-\u6c2f-2-\u7532\u6c27\u57fa\u82ef\u4e59\u916e", "en_name": ["1-(5-Chloro-2-methoxyphenyl)ethanone", "Ethanone, 1-(5-chloro-2-methoxyphenyl)-", "Acetophenone, 5\u2032-chloro-2\u2032-methoxy-", "1-(5-Chloro-2-methoxyphenyl)ethanone", "5\u2032-Chloro-2\u2032-methoxyacetophenone", "NSC 46629"], "SMILES": "C(C)(=O)C1=C(OC)C=CC(Cl)=C1", "physical_data": {"Molecular Weight": "184.62", "Molecular Formula": "C9H9ClO2", "Boiling Point": "135 \u00b0C", "Melting Point": "29-30 \u00b0C"}}