{"cas_no": "6342-63-8", "cn_name": "1-(2-\u6eb4-5-\u7532\u6c27\u57fa\u82ef\u57fa)\u4e59\u916e", "en_name": ["1-(2-Bromo-5-methoxyphenyl)ethanone", "Ethanone, 1-(2-bromo-5-methoxyphenyl)-", "Acetophenone, 2\u2032-bromo-5\u2032-methoxy-", "1-(2-Bromo-5-methoxyphenyl)ethanone", "6\u2032-Bromo-3\u2032-methoxyacetophenone", "2-Bromo-5-methoxyacetophenone", "NSC 46628", "1-(2-Bromo-5-methoxyphenyl)ethan-1-one", "2\u2032-Bromo-5\u2032-methoxyacetophenone"], "SMILES": "C(C)(=O)C1=CC(OC)=CC=C1Br", "physical_data": {"Molecular Weight": "229.07", "Molecular Formula": "C9H9BrO2", "Boiling Point": "102 \u00b0C @ Press: 0.4 Torr"}}