{"cas_no": "6342-56-9", "cn_name": "1,1-\u4e8c\u7532\u6c27\u57fa\u4e19\u916e", "en_name": ["Pyruvic aldehyde dimethyl acetal", "2-Propanone, 1,1-dimethoxy-", "Pyruvaldehyde, 1-(dimethyl acetal)", "1,1-Dimethoxy-2-propanone", "Pyruvaldehyde dimethyl acetal", "Methylglyoxal dimethyl acetal", "Dimethoxymethyl methyl ketone", "1,1-Dimethoxyacetone", "Pyruvic aldehyde dimethyl acetal", "NSC 50127", "Methylglyoxal 1,1-dimethyl acetal"], "SMILES": "C(C(C)=O)(OC)OC", "physical_data": {"Molecular Weight": "118.13", "Molecular Formula": "C5H10O3", "Boiling Point": "56-58 \u00b0C @ Press: 16 Torr"}}