{"cas_no": "6342-77-4", "cn_name": "3-(2-\u7532\u6c27\u57fa\u82ef\u57fa\uff09\u4e19\u9178", "en_name": ["3-(2-Methoxyphenyl)propionic acid", "Benzenepropanoic acid, 2-methoxy-", "Hydrocinnamic acid, o-methoxy-", "2-Methoxybenzenepropanoic acid", "2-Methoxydihydrocinnamic acid", "o-Methoxybenzenepropionic acid", "o-Methoxydihydrocinnamic acid", "3-(2-Methoxyphenyl)propionic acid", "Guaiacylpropionic acid", "3-(o-Methoxyphenyl)propionic acid", "3-(2-Methoxyphenyl)propanoic acid", "NSC 46646", "3-[2-(Methyloxy)phenyl]propanoic acid"], "SMILES": "C(CC(O)=O)C1=C(OC)C=CC=C1", "physical_data": {"Molecular Weight": "180.20", "Molecular Formula": "C10H12O3", "Melting Point": "90 \u00b0C"}}