{"cas_no": "6342-17-2", "cn_name": "1,4-\u4e8c\u4e19\u70ef\u9170\u57fa\u54cc\u55ea", "en_name": ["1,4-Bis(acryloyl)piperazine", "2-Propen-1-one, 1,1\u2032-(1,4-piperazinediyl)bis-", "Piperazine, 1,4-diacryloyl-", "Piperazine, 1,4-bis(1-oxo-2-propenyl)-", "1,1\u2032-(1,4-Piperazinediyl)bis[2-propen-1-one]", "1,4-Diacryloylpiperazine", "N,N\u2032-Bisacryloylpiperazine", "1,4-Bis(acryloyl)piperazine", "Diacrylylpiperazine", "NSC 133364", "NSC 49404", "Piperazine diacrylamide", "N,N\u2032-Diacryloylpiperazine", "1-[4-(Prop-2-enoyl)piperazin-1-yl]prop-2-en-1-one", "1-(4-Prop-2-enoylpiperazin-1-yl)prop-2-en-1-one"], "SMILES": "C(C=C)(=O)N1CCN(C(C=C)=O)CC1", "physical_data": {"Molecular Weight": "194.23", "Molecular Formula": "C10H14N2O2", "Melting Point": "97.8 \u00b0C"}}