{"cas_no": "6342-70-7", "cn_name": "3-\u7532\u6c27\u57fa\u6c34\u6768\u9178\u7532\u916f", "en_name": ["Methyl 2-hydroxy-3-methoxybenzoate", "Benzoic acid, 2-hydroxy-3-methoxy-, methyl ester", "m-Anisic acid, 2-hydroxy-, methyl ester", "Methyl 2-hydroxy-3-methoxybenzoate", "Methyl 3-methoxysalicylate", "2-Hydroxy-3-methoxybenzoic acid methyl ester", "NSC 46637"], "SMILES": "C(OC)(=O)C1=C(O)C(OC)=CC=C1", "physical_data": {"Molecular Weight": "182.17", "Molecular Formula": "C9H10O4", "Boiling Point": "105 \u00b0C @ Press: 2 Torr", "Melting Point": "64 \u00b0C"}}