{"cas_no": "6343-93-7", "cn_name": "4-\u7532\u6c27\u57fa\u82ef\u57fa\u4e59\u9170\u80fa", "en_name": ["(4-Methoxyphenyl)acetamide", "Benzeneacetamide, 4-methoxy-", "Acetamide, 2-(p-methoxyphenyl)-", "4-Methoxybenzeneacetamide", "(p-Methoxyphenyl)acetamide", "(4-Methoxyphenyl)acetamide", "2-(4-Methoxyphenyl)acetamide", "NSC 49779"], "SMILES": "C(C(N)=O)C1=CC=C(OC)C=C1", "physical_data": {"Molecular Weight": "165.19", "Molecular Formula": "C9H11NO2", "Melting Point": "188-189 \u00b0C"}}