{"cas_no": "6343-54-0", "cn_name": "N-\u82c4\u57fa\u7532\u9170\u80fa", "en_name": ["Benzylformamide", "Formamide, N-(phenylmethyl)-", "Formamide, N-benzyl-", "N-(Phenylmethyl)formamide", "Benzylformamide", "N-Benzylformamide", "N-Formylbenzylamine", "NSC 16247"], "SMILES": "C(NC=O)C1=CC=CC=C1", "physical_data": {"Molecular Weight": "135.16", "Molecular Formula": "C8H9NO", "Boiling Point": "142 \u00b0C @ Press: 4 Torr", "Melting Point": "59.8-60.4 \u00b0C"}}