{"cas_no": "63435-16-5", "cn_name": "4-\u6c28\u57fa-3-\u7f9f\u57fa\u82ef\u7532\u9178\u7532\u916f", "en_name": ["Benzoic acid, 4-amino-3-hydroxy-, methyl ester", "Benzoic acid, 4-amino-3-hydroxy-, methyl ester", "Methyl 4-amino-3-hydroxybenzoate", "2-Hydroxy-4-methoxycarbonylaniline", "4-Amino-3-hydroxybenzoic acid methyl ester", "Methyl 3-hydroxy-4-aminobenzoate", "Methyl 4-amino-3-hydroxybenzenecarboxylate", "5-Methoxycarbonyl-2-aminophenol"], "SMILES": "C(OC)(=O)C1=CC(O)=C(N)C=C1", "physical_data": {"Molecular Weight": "167.16", "Molecular Formula": "C8H9NO3", "Melting Point": "119-120 \u00b0C"}}