{"cas_no": "6343-73-3", "cn_name": "\u6708\u6842\u91782-\u8418\u916f", "en_name": ["\u03b2-Naphthyl laurate", "Dodecanoic acid, 2-naphthalenyl ester", "Lauric acid, 2-naphthyl ester", "2-Naphthol, laurate", "\u03b2-Naphthyl laurate", "2-Naphthyl dodecanoate", "2-Naphthyl laurate", "NSC 49742"], "SMILES": "O(C(CCCCCCCCCCC)=O)C1=CC2=C(C=C1)C=CC=C2", "physical_data": {"Molecular Weight": "326.47", "Molecular Formula": "C22H30O2", "Melting Point": "58-60 \u00b0C"}}