{"cas_no": "6343-47-1", "cn_name": "3-\u4e8c\u4e59\u6c28\u57fa-2,2-\u4e8c\u7532\u57fa\u4e19\u919b", "en_name": ["3-(Diethylamino)-2,2-dimethylpropanal", "Propanal, 3-(diethylamino)-2,2-dimethyl-", "Propionaldehyde, 3-(diethylamino)-2,2-dimethyl-", "3-(Diethylamino)-2,2-dimethylpropanal", "\u03b1-Dimethyl-\u03b2-diethylaminopropionaldehyde", "Diethylaminopivalaldehyde", "NSC 46901", "NSC 7515", "2,2-Dimethyl-3-(diethylamino)propanal"], "SMILES": "C(C(C=O)(C)C)N(CC)CC", "physical_data": {"Molecular Weight": "157.25", "Molecular Formula": "C9H19NO", "Boiling Point": "175-177 \u00b0C"}}