{"cas_no": "63449-68-3", "cn_name": "2-\u8418\u915a-2-\u6c28\u57fa\u82ef\u7532\u9178\u916f", "en_name": ["2-Naphthalenol, 2-(2-aminobenzoate)", "2-Naphthalenol, 2-(2-aminobenzoate)", "2-Naphthalenol, 2-aminobenzoate", "Anthranilic acid, 2-naphthyl ester"], "SMILES": "O(C(=O)C1=C(N)C=CC=C1)C2=CC3=C(C=C2)C=CC=C3", "physical_data": {"Molecular Weight": "263.29", "Molecular Formula": "C17H13NO2", "Melting Point": "118 \u00b0C"}}