{"cas_no": "6344-62-3", "cn_name": "1-\u6c28\u57fa-9-\u82b4\u916e", "en_name": ["1-Aminofluorenone", "9H-Fluoren-9-one, 1-amino-", "Fluoren-9-one, 1-amino-", "1-Amino-9H-fluoren-9-one", "1-Aminofluorenone", "1-Aminofluoren-9-one", "NSC 51311"], "SMILES": "O=C1C=2C(C=3C1=CC=CC3)=CC=CC2N", "physical_data": {"Molecular Weight": "195.22", "Molecular Formula": "C13H9NO", "Melting Point": "118-118.5 \u00b0C"}}