{"cas_no": "6345-43-3", "cn_name": "\u5627\u5576-4,6-\u4e8c\u7532\u9178\u4e8c\u7532\u916f", "en_name": ["4,6-Dimethyl 4,6-pyrimidinedicarboxylate", "4,6-Pyrimidinedicarboxylic acid, 4,6-dimethyl ester", "4,6-Pyrimidinedicarboxylic acid, dimethyl ester", "4,6-Dimethyl 4,6-pyrimidinedicarboxylate", "Dimethyl 4,6-pyrimidinedicarboxylate", "NSC 44349", "4,6-Bis(methoxycarbonyl)pyrimidine"], "SMILES": "C(OC)(=O)C=1C=C(C(OC)=O)N=CN1", "physical_data": {"Molecular Weight": "196.16", "Molecular Formula": "C8H8N2O4", "Melting Point": "82-83 \u00b0C"}}