{"cas_no": "63450-84-0", "cn_name": "4-\u6c28\u57fa\u82ef\u7532\u9178\u7532\u916f\u76d0\u9178\u76d0", "en_name": ["Benzoic acid, 4-amino-, methyl ester, hydrochloride (1:1)", "Benzoic acid, 4-amino-, methyl ester, hydrochloride (1:1)", "Benzoic acid, 4-amino-, methyl ester, hydrochloride", "Methyl p-aminobenzoate hydrochloride", "Methyl 4-aminobenzoate hydrochloride"], "SMILES": "C(OC)(=O)C1=CC=C(N)C=C1.Cl", "physical_data": {"Molecular Weight": "", "Molecular Formula": "C8H9NO2.ClH", "Melting Point": "272 \u00b0C"}}