{"cas_no": "6346-05-0", "cn_name": "3-\u82c4\u6c27\u57fa-4-\u7532\u6c27\u57fa\u82ef\u7532\u919b", "en_name": ["3-(Benzyloxy)-4-methoxybenzaldehyde", "Benzaldehyde, 4-methoxy-3-(phenylmethoxy)-", "Benzaldehyde, 3-(benzyloxy)-4-methoxy-", "4-Methoxy-3-(phenylmethoxy)benzaldehyde", "O-Benzylisovanillin", "3-(Benzyloxy)-4-methoxybenzaldehyde", "Benzylisovanillin", "Isovanillin benzyl ether", "NSC 196547", "NSC 43750", "4-Methoxy-3-benzyloxybenzaldehyde"], "SMILES": "O(CC1=CC=CC=C1)C2=C(OC)C=CC(C=O)=C2", "physical_data": {"Molecular Weight": "242.27", "Molecular Formula": "C15H14O3", "Boiling Point": "140-150 \u00b0C", "Melting Point": "63 \u00b0C"}}