{"cas_no": "6346-09-4", "cn_name": "4-\u6c28\u57fa\u4e01\u919b\u7f29\u4e8c\u4e59\u9187", "en_name": ["4,4-Diethoxy-1-butanamine", "1-Butanamine, 4,4-diethoxy-", "Butyraldehyde, 4-amino-, diethyl acetal", "Butylamine, 4,4-diethoxy-", "4,4-Diethoxy-1-butanamine", "4-Aminobutanal diethyl acetal", "4-Aminobutyraldehyde diethyl acetal", "4,4-Diethoxybutylamine", "NSC 43756", "\u03b3-Aminobutryaldehyde diethyl acetal"], "SMILES": "C(CCCN)(OCC)OCC", "physical_data": {"Molecular Weight": "161.24", "Molecular Formula": "C8H19NO2", "Boiling Point": "196 \u00b0C"}}