{"cas_no": "63480-11-5", "cn_name": "4-\u7532\u57fa\u975b\u7ea2\u9178\u9150", "en_name": ["7-Methyl-2H-3,1-benzoxazine-2,4(1H)-dione", "2H-3,1-Benzoxazine-2,4(1H)-dione, 7-methyl-", "Isatoic anhydride, 4-methyl-", "7-Methyl-2H-3,1-benzoxazine-2,4(1H)-dione", "4-Methylisatoic anhydride"], "SMILES": "O=C1C=2C(NC(=O)O1)=CC(C)=CC2", "physical_data": {"Molecular Weight": "177.16", "Molecular Formula": "C9H7NO3", "Melting Point": "228 \u00b0C (decomp)"}}