{"cas_no": "63492-69-3", "cn_name": "\u7d2b\u8349\u6c30\u82f7", "en_name": ["Lithospermoside", "Acetonitrile, 2-[(4R,5S,6S)-6-(\u03b2-D-glucopyranosyloxy)-4,5-dihydroxy-2-cyclohexen-1-ylidene]-, (2Z)-", "Acetonitrile, [6-(\u03b2-D-glucopyranosyloxy)-4,5-dihydroxy-2-cyclohexen-1-ylidene]-, [4R-(1Z,4\u03b1,5\u03b2,6\u03b1)]-", "Acetonitrile, [(4R,5S,6S)-6-(\u03b2-D-glucopyranosyloxy)-4,5-dihydroxy-2-cyclohexen-1-ylidene]-, (2Z)-", "(2Z)-2-[(4R,5S,6S)-6-(\u03b2-D-Glucopyranosyloxy)-4,5-dihydroxy-2-cyclohexen-1-ylidene]acetonitrile", "Lithospermoside", "Griffonin", "NSC 290807"], "SMILES": "O(C1C(=CC#N)C=CC(O)C1O)C2OC(CO)C(O)C(O)C2O", "physical_data": {"Molecular Weight": "329.30", "Molecular Formula": "C14H19NO8", "Melting Point": "271 \u00b0C (decomp)"}}