{"cas_no": "63493-28-7", "cn_name": "2-\u6c28\u57fa\u620a\u70f7", "en_name": ["2-Pentanamine", "2-Pentanamine", "2-Pentanamine, (\u00b1)-", "(\u00b1)-2-Pentylamine", "(\u00b1)-2-Aminopentane", "dl-2-Aminopentane", "(RS)-1-Methylbutylamine", "(\u00b1)-1-Methylbutylamine", "1-Methylbutylamine", "2-Aminopentane", "1-Methyl-n-butylamine", "2-Pentylamine", "1,3-Dimethylpropylamine", "1-Methylbutanamine", "NSC 6367", "\u03b1-Methylbutanamine", "\u03b1-Methylbutylamine"], "SMILES": "C(C(C)N)CC", "physical_data": {"Molecular Weight": "87.16", "Molecular Formula": "C5H13N", "Boiling Point": "87 \u00b0C", "Melting Point": "32-34 \u00b0C"}}