{"cas_no": "635-21-2", "cn_name": "2-\u6c28\u57fa-5-\u6c2f\u82ef\u7532\u9178", "en_name": ["2-Amino-5-chlorobenzoic acid", "Benzoic acid, 2-amino-5-chloro-", "Anthranilic acid, 5-chloro-", "2-Amino-5-chlorobenzoic acid", "5-Chloroanthranilic acid", "5-Chloro-2-aminobenzoic acid", "NSC 404157", "2-Carboxy-4-chloroaniline"], "SMILES": "C(O)(=O)C1=C(N)C=CC(Cl)=C1", "physical_data": {"Molecular Weight": "171.58", "Molecular Formula": "C7H6ClNO2", "Melting Point": "210 \u00b0C (decomp)"}}