{"cas_no": "635-46-1", "cn_name": "1,2,3,4-\u56db\u6c22\u55b9\u5549", "en_name": ["1,2,3,4-Tetrahydroquinoline", "Quinoline, 1,2,3,4-tetrahydro-", "1,2,3,4-Tetrahydroquinoline", "Kusol", "THQ", "NSC 15311", "1,2,3,4-Hydroquinoline", "3,4-Dihydro-2H-quinoline", "1,2,3,4-Tetrahydroquinline"], "SMILES": "C=12C(=CC=CC1)NCCC2", "physical_data": {"Molecular Weight": "133.19", "Molecular Formula": "C9H11N", "Boiling Point": "251 \u00b0C", "Melting Point": "20 \u00b0C", "Density": "1.0599 g/cm\u00b3 @ Temp: 20 \u00b0C"}}