{"cas_no": "635-41-6", "cn_name": "\u4e09\u7532\u6c27\u5549", "en_name": ["Trimetozine", "Methanone, 4-morpholinyl(3,4,5-trimethoxyphenyl)-", "Morpholine, 4-(3,4,5-trimethoxybenzoyl)-", "4-Morpholinyl(3,4,5-trimethoxyphenyl)methanone", "Trimethoxazine", "4-(3,4,5-Trimethoxybenzoyl)morpholine", "Trimetozine", "Trioxazin", "Trioxazine", "Sedoxazine", "N-(3,4,5-Trimethoxybenzoyl)tetrahydro-1,4-oxazine", "Trifenoxazin", "Trimetozin", "PS 2383", "4-(3,4,5-Trimethoxybenzoyl)tetrahydro-1,4-oxazine", "Opalene", "NSC 62939", "V 7", "Abbott 22370"], "SMILES": "C(=O)(C1=CC(OC)=C(OC)C(OC)=C1)N2CCOCC2", "physical_data": {"Molecular Weight": "281.30", "Molecular Formula": "C14H19NO5", "Melting Point": "121 \u00b0C"}}