{"cas_no": "635-51-8", "cn_name": "\u82ef\u57fa\u4e01\u4e8c\u9178", "en_name": ["Phenylsuccinic acid", "Butanedioic acid, 2-phenyl-", "Succinic acid, phenyl-", "Butanedioic acid, phenyl-", "2-Phenylbutanedioic acid", "Phenylsuccinic acid", "2-Phenylsuccinic acid", "\u03b1-Phenylsuccinic acid", "DL-Phenylsuccinic acid", "(RS)-Phenylsuccinic acid", "(\u00b1)-2-Phenylsuccinic acid", "NSC 11342", "NSC 16635", "(\u00b1)-Phenylsuccinic acid"], "SMILES": "C(CC(O)=O)(C(O)=O)C1=CC=CC=C1", "physical_data": {"Molecular Weight": "194.18", "Molecular Formula": "C10H10O4", "Boiling Point": "151-153 \u00b0C @ Press: 1 Torr", "Melting Point": "167 \u00b0C", "Density": "1.1277 g/cm\u00b3 @ Temp: 20 \u00b0C"}}