{"cas_no": "635-12-1", "cn_name": "1,4-\u84bd\u918c", "en_name": ["1,4-Anthraquinone", "1,4-Anthracenedione", "1,4-Anthraquinone", "1,4-Anthracenequinone", "NSC 104530", "1,4-Dihydroanthracene-1,4-dione"], "SMILES": "O=C1C=2C(=CC=3C(C2)=CC=CC3)C(=O)C=C1", "physical_data": {"Molecular Weight": "208.21", "Molecular Formula": "C14H8O2", "Melting Point": "206 \u00b0C (decomp)"}}