{"cas_no": "635-84-7", "cn_name": "2'-\u6c2f\u4ee3\u8054\u82ef\u4e59\u916e", "en_name": ["4-Phenylphenacyl chloride", "Ethanone, 1-[1,1\u2032-biphenyl]-4-yl-2-chloro-", "Acetophenone, 2-chloro-4\u2032-phenyl-", "1-[1,1\u2032-Biphenyl]-4-yl-2-chloroethanone", "p-Phenylphenacyl chloride", "2-Chloro-4\u2032-phenylacetophenone", "4-Phenylphenacyl chloride", "4-(2-Chloroacetyl)biphenyl", "NSC 41668", "4-(Chloroacetyl)biphenyl", "1-Biphenyl-4-yl-2-chloroethanone", "2-Chloro-1-(4-phenylphenyl)ethan-1-one", "2-Chloro-1-(4-phenylphenyl)ethanone", "1-([1,1\u2032-Biphenyl]-4-yl)-2-chloroethan-1-one"], "SMILES": "C(CCl)(=O)C1=CC=C(C=C1)C2=CC=CC=C2", "physical_data": {"Molecular Weight": "230.69", "Molecular Formula": "C14H11ClO", "Melting Point": "124-126 \u00b0C"}}