{"cas_no": "635-26-7", "cn_name": "\u90bb\u7532\u57fa\u82ef\u80bc\u76d0\u9178\u76d0", "en_name": ["2-Methylphenylhydrazine hydrochloride", "Hydrazine, (2-methylphenyl)-, hydrochloride (1:1)", "Hydrazine, o-tolyl-, monohydrochloride", "Hydrazine, (2-methylphenyl)-, monohydrochloride", "o-Tolylhydrazine hydrochloride", "2-Methylphenylhydrazine hydrochloride", "N-(2-Methylphenyl)hydrazine hydrochloride", "2-Tolylhydrazine hydrochloride", "2-Methylbenzenehydrazine hydrochloride", "1-(2-Methylphenyl)hydrazine hydrochloride"], "SMILES": "N(N)C1=C(C)C=CC=C1.Cl", "physical_data": {"Molecular Weight": "", "Molecular Formula": "C7H10N2.ClH", "Melting Point": "195 \u00b0C (decomp)"}}