{"cas_no": "635-67-6", "cn_name": "\u90bb\u82ef\u4e8c\u915a\u4e8c\u4e59\u9178\u916f", "en_name": ["Catechol diacetate", "1,2-Benzenediol, 1,2-diacetate", "Pyrocatechol, diacetate", "1,2-Benzenediol, diacetate", "Catechol diacetate", "1,2-Diacetoxybenzene", "o-Acetoxyphenyl acetate", "o-Phenylene diacetate", "o-Diacetoxybenzene", "1,2-Bis(acetyloxy)benzene", "o-Dihydroxybenzene diacetate", "2-Acetoxyphenyl acetate", "NSC 27802", "Benzene-1,2-diacetate", "1,2-Phenylene diacetate"], "SMILES": "O(C(C)=O)C1=C(OC(C)=O)C=CC=C1", "physical_data": {"Molecular Weight": "194.18", "Molecular Formula": "C10H10O4", "Melting Point": "64.5 \u00b0C"}}