{"cas_no": "635-03-0", "cn_name": "1,1,2,3-\u4e19\u70f7\u56db\u7fa7\u9178\u56db\u4e59\u916f", "en_name": ["1,1,2,3-Tetraethyl 1,1,2,3-propanetetracarboxylate", "1,1,2,3-Propanetetracarboxylic acid, 1,1,2,3-tetraethyl ester", "1,1,2,3-Propanetetracarboxylic acid, tetraethyl ester", "1,1,2,3-Tetraethyl 1,1,2,3-propanetetracarboxylate", "Tetraethyl 1,1,2,3-propanetetracarboxylate", "NSC 2198"], "SMILES": "C(C(C(OCC)=O)C(OCC)=O)(CC(OCC)=O)C(OCC)=O", "physical_data": {"Molecular Weight": "332.35", "Molecular Formula": "C15H24O8", "Boiling Point": "200-201 \u00b0C @ Press: 13 Torr"}}