{"cas_no": "635-93-8", "cn_name": "5-\u6c2f\u4ee3\u6c34\u6768\u919b", "en_name": ["5-Chlorosalicylaldehyde", "Benzaldehyde, 5-chloro-2-hydroxy-", "Salicylaldehyde, 5-chloro-", "5-Chloro-2-hydroxybenzaldehyde", "5-Chlorosalicylaldehyde", "2-Hydroxy-5-chlorobenzaldehyde", "4-Chloro-2-formylphenol", "5-Chloro-o-salicylaldehyde", "3-Chloro-6-hydroxybenzaldehyde", "NSC 3811", "5-Chlorosalicyaldehyde"], "SMILES": "C(=O)C1=C(O)C=CC(Cl)=C1", "physical_data": {"Molecular Weight": "156.57", "Molecular Formula": "C7H5ClO2", "Melting Point": "100.3 \u00b0C"}}