{"cas_no": "635-90-5", "cn_name": "1-\u82ef\u57fa\u5421\u54af", "en_name": ["1-Phenylpyrrole", "1H-Pyrrole, 1-phenyl-", "Pyrrole, 1-phenyl-", "1-Phenyl-1H-pyrrole", "1-Phenylpyrrole", "N-Phenylpyrrole", "N-Pyrrolobenzene", "NSC 16581", "N-Phenyl-1H-pyrrole"], "SMILES": "N1(C=CC=C1)C2=CC=CC=C2", "physical_data": {"Molecular Weight": "143.19", "Molecular Formula": "C10H9N", "Boiling Point": "234 \u00b0C", "Melting Point": "62 \u00b0C"}}