{"cas_no": "635-10-9", "cn_name": "\u5747\u82ef\u56db\u7532\u9178\u56db\u7532\u916f", "en_name": ["Tetramethyl pyromellitate", "1,2,4,5-Benzenetetracarboxylic acid, 1,2,4,5-tetramethyl ester", "1,2,4,5-Benzenetetracarboxylic acid, tetramethyl ester", "Pyromellitic acid tetramethyl ester", "Tetramethyl pyromellitate", "Tetramethyl 1,2,4,5-benzenetetracarboxylate", "1,2,4,5-Tetrakis(methoxycarbonyl)benzene", "NSC 4188", "1,2,4,5-Tetramethyl benzene-1,2,4,5-tetracarboxylate"], "SMILES": "C(OC)(=O)C1=C(C(OC)=O)C=C(C(OC)=O)C(C(OC)=O)=C1", "physical_data": {"Molecular Weight": "310.26", "Molecular Formula": "C14H14O8", "Melting Point": "144 \u00b0C"}}