{"cas_no": "635-53-0", "cn_name": "2-(\u7fa7\u57fa\u7532\u6c27\u57fa)\u82ef\u7532\u9178", "en_name": ["2-(Carboxymethoxy)benzoic acid", "Benzoic acid, 2-(carboxymethoxy)-", "o-Anisic acid, \u03b1-carboxy-", "2-(Carboxymethoxy)benzoic acid", "o-(Carboxymethoxy)benzoic acid", "Acetic acid, (2-carboxyphenoxy)-", "(o-Carboxyphenoxy)acetic acid", "(2-Carboxyphenoxy)acetic acid", "NSC 1335"], "SMILES": "O(CC(O)=O)C1=C(C(O)=O)C=CC=C1", "physical_data": {"Molecular Weight": "196.16", "Molecular Formula": "C9H8O5", "Melting Point": "190 \u00b0C"}}