{"cas_no": "635-22-3", "cn_name": "3-\u785d\u57fa-4-\u6c2f\u82ef\u80fa", "en_name": ["4-Chloro-3-nitroaniline", "Benzenamine, 4-chloro-3-nitro-", "Aniline, 4-chloro-3-nitro-", "4-Chloro-3-nitrobenzenamine", "4-Chloro-3-nitroaniline", "3-Nitro-4-chloroaniline", "4-Amino-2-nitrochlorobenzene", "NSC 37397", "(4-Chloro-3-nitrophenyl)amine", "2-Nitro-4-aminochlorobenzene"], "SMILES": "N(=O)(=O)C1=C(Cl)C=CC(N)=C1", "physical_data": {"Molecular Weight": "172.57", "Molecular Formula": "C6H5ClN2O2", "Melting Point": "103 \u00b0C"}}