{"cas_no": "635-79-0", "cn_name": "2-\u7532\u57fa-3-\u55b9\u5549\u7532\u9178", "en_name": ["2-Methyl-3-quinolinecarboxylic acid", "3-Quinolinecarboxylic acid, 2-methyl-", "2-Methyl-3-quinolinecarboxylic acid"], "SMILES": "C(O)(=O)C1=CC2=C(N=C1C)C=CC=C2", "physical_data": {"Molecular Weight": "187.19", "Molecular Formula": "C11H9NO2", "Melting Point": "251 \u00b0C"}}