{"cas_no": "63500-71-0", "cn_name": "\u94c3\u5170\u5421\u5583", "en_name": ["Tetrahydro-4-methyl-2-(2-methylpropyl)-2H-pyran-4-ol", "2H-Pyran-4-ol, tetrahydro-4-methyl-2-(2-methylpropyl)-", "Tetrahydro-4-methyl-2-(2-methylpropyl)-2H-pyran-4-ol", "Rozanol", "Florosa", "2-(2-Methylpropyl)-4-hydroxy-4-methyltetrahydropyran", "4-Hydroxy-4-methyl-2-(2-methylpropyl)tetrahydropyran", "2-Isobutyl-4-hydroxy-4-methyltetrahydropyran", "2-Isobutyl-4-methyltetrahydropyran-4-ol", "2-Isobutyl-4-methyltetrahydro-2H-pyran-4-ol", "4-Methyl-2-(2-methylpropyl)tetrahydro-2H-pyran-4-ol"], "SMILES": "C(C(C)C)C1CC(C)(O)CCO1", "physical_data": {"Molecular Weight": "172.26", "Molecular Formula": "C10H20O2", "Boiling Point": "93-95 \u00b0C @ Press: 3 Torr", "Density": "0.9516 g/cm\u00b3 @ Temp: 20 \u00b0C"}}