{"cas_no": "6351-10-6", "cn_name": "1-\u7f9f\u57fa\u831a\u6ee1", "en_name": ["1-Indanol", "1H-Inden-1-ol, 2,3-dihydro-", "1-Indanol", "1-Indanol, (\u00b1)-", "2,3-Dihydro-1H-inden-1-ol", "1-Hydroxyindan", "(\u00b1)-2,3-Dihydro-1H-inden-1-ol", "(\u00b1)-1-Indanol", "(RS)-1-Indanol", "NSC 31258", "1-Hydroxyhydrindene"], "SMILES": "OC1C=2C(=CC=CC2)CC1", "physical_data": {"Molecular Weight": "134.18", "Molecular Formula": "C9H10O", "Boiling Point": "220 \u00b0C", "Melting Point": "54.8 \u00b0C"}}