{"cas_no": "63516-07-4", "cn_name": "\u6c1f\u6258\u6eb4\u94f5", "en_name": ["Flutropium bromide", "8-Azoniabicyclo[3.2.1]octane, 8-(2-fluoroethyl)-3-[(2-hydroxy-2,2-diphenylacetyl)oxy]-8-methyl-, bromide (1:1), (3-endo,8-syn)-", "8-Azoniabicyclo[3.2.1]octane, 8-(2-fluoroethyl)-3-[(hydroxydiphenylacetyl)oxy]-8-methyl-, bromide, (endo,syn)-", "8-Azoniabicyclo[3.2.1]octane, 8-(2-fluoroethyl)-3-[(hydroxydiphenylacetyl)oxy]-8-methyl-, bromide, (3-endo,8-syn)-", "Ba 598Br", "Flutropium bromide", "Flubron"], "SMILES": "C(C(OC1CC2[N+](CCF)(C)C(C1)CC2)=O)(O)(C3=CC=CC=C3)C4=CC=CC=C4.[Br-]", "physical_data": {"Molecular Weight": "", "Molecular Formula": "C24H29FNO3.Br", "Melting Point": "192-193 \u00b0C (decomp)"}}