{"cas_no": "635318-11-5", "cn_name": "(1R,4S,5S,6S)-4-\u6c28\u57fa-2-\u786b\u6742\u53cc\u73af[3.1.0]\u5df1\u70f7-4,6-\u4e8c\u7532\u9178 2,2-\u4e8c\u6c27\u5316\u7269", "en_name": ["(1R,4S,5S,6S)-4-Amino-2-thiabicyclo[3.1.0]hexane-4,6-dicarboxylic acid 2,2-dioxide", "2-Thiabicyclo[3.1.0]hexane-4,6-dicarboxylic acid, 4-amino-, 2,2-dioxide, (1R,4S,5S,6S)-", "(1R,4S,5S,6S)-4-Amino-2-thiabicyclo[3.1.0]hexane-4,6-dicarboxylic acid 2,2-dioxide", "LY 404039", "LY 404040", "Pomaglumetad", "CHEMBL 375611"], "SMILES": "C(O)(=O)C1(N)C2C(C2C(O)=O)S(=O)(=O)C1", "physical_data": {"Molecular Weight": "235.21", "Molecular Formula": "C7H9NO6S", "Melting Point": "&gt;250 \u00b0C"}}