{"cas_no": "63547-24-0", "cn_name": "2-\u4e8c\u82ef\u57fa\u7532\u57fa\u4e9a\u781c\u57fa\u4e59\u9178", "en_name": ["Modafinil acid", "Acetic acid, 2-[(diphenylmethyl)sulfinyl]-", "Acetic acid, [(diphenylmethyl)sulfinyl]-", "2-[(Diphenylmethyl)sulfinyl]acetic acid", "(Benzhydrylsulfinyl)acetic acid", "CRL 40467", "Modafinil acid", "(\u00b1)-Modafinic acid", "Modafinilic acid", "2-Benzhydrylsulphinylacetic acid", "2-Diphenylmethanesulfinylacetic acid", "2-(Benzhydrylsulfinyl)acetic acid"], "SMILES": "C(S(CC(O)=O)=O)(C1=CC=CC=C1)C2=CC=CC=C2", "physical_data": {"Molecular Weight": "274.33", "Molecular Formula": "C15H14O3S", "Melting Point": "118-120 \u00b0C"}}