{"cas_no": "63547-22-8", "cn_name": "2-[(\u4e8c\u82ef\u7532\u57fa)\u5def\u57fa]\u4e59\u9178", "en_name": ["2-[(Diphenylmethyl)thio]acetic acid", "Acetic acid, 2-[(diphenylmethyl)thio]-", "Acetic acid, [(diphenylmethyl)thio]-", "2-[(Diphenylmethyl)thio]acetic acid", "(Benzhydrylthio)acetic acid", "2-(Benzhydrylthio)acetic acid", "(Benzhydrylsulfanyl)acetic acid", "2-Benzhydrylsulfanylacetic acid", "2-[(Diphenylmethyl)sulfanyl]acetic acid"], "SMILES": "C(SCC(O)=O)(C1=CC=CC=C1)C2=CC=CC=C2", "physical_data": {"Molecular Weight": "258.34", "Molecular Formula": "C15H14O2S", "Melting Point": "127 \u00b0C"}}