{"cas_no": "63547-13-7", "cn_name": "\u827e\u6349\u975e\u5c3c", "en_name": ["Adrafinil", "Acetamide, 2-[(diphenylmethyl)sulfinyl]-N-hydroxy-", "2-[(Diphenylmethyl)sulfinyl]-N-hydroxyacetamide", "CRL 40028", "Adrafinil", "Olmifon", "2-Benzhydrylsulfinyl-N-hydroxyacetamide"], "SMILES": "C(S(CC(NO)=O)=O)(C1=CC=CC=C1)C2=CC=CC=C2", "physical_data": {"Molecular Weight": "289.35", "Molecular Formula": "C15H15NO3S", "Melting Point": "159-160 \u00b0C"}}