{"cas_no": "63545-55-1", "cn_name": "4-\u5def\u57fa\u7f9f\u57fa\u8089\u6842\u9178", "en_name": ["3-(4-Mercaptophenyl)propanoic acid", "Benzenepropanoic acid, 4-mercapto-", "Hydrocinnamic acid, p-mercapto-", "4-Mercaptobenzenepropanoic acid", "4-Mercaptodihydrocinnamic acid", "3-(4-Mercaptophenyl)propionic acid", "p-Mercaptohydrocinnamic acid", "4-Mercaptohydrocinnamic acid", "3-(4-Mercaptophenyl)propanoic acid"], "SMILES": "C(CC(O)=O)C1=CC=C(S)C=C1", "physical_data": {"Molecular Weight": "182.24", "Molecular Formula": "C9H10O2S", "Melting Point": "100-105 \u00b0C"}}