{"cas_no": "63555-50-0", "cn_name": "3-\u7532\u6c27\u57fa\u7fb0\u57fa\u82ef\u78fa\u9170\u6c2f", "en_name": ["Benzoic acid, 3-(chlorosulfonyl)-, methyl ester", "Benzoic acid, 3-(chlorosulfonyl)-, methyl ester", "Methyl benzoate-3-sulfonyl chloride", "Methyl 3-(chlorosulfonyl)benzoate", "3-(Methoxycarbonyl)benzenesulfonyl chloride", "3-Methoxycarbonylphenylsulfonyl chloride"], "SMILES": "C(OC)(=O)C1=CC(S(Cl)(=O)=O)=CC=C1", "physical_data": {"Molecular Weight": "234.66", "Molecular Formula": "C8H7ClO4S", "Melting Point": "64-66 \u00b0C"}}