{"cas_no": "63550-99-2", "cn_name": "\u745e\u9c8d\u8fea\u7519C", "en_name": ["Rebaudioside C", "Kaur-16-en-18-oic acid, 13-[(O-6-deoxy-\u03b1-L-mannopyranosyl-(1\u21922)-O-[\u03b2-D-glucopyranosyl-(1\u21923)]-\u03b2-D-glucopyranosyl)oxy]-, \u03b2-D-glucopyranosyl ester, (4\u03b1)-", "Rebaudioside C", "Dulcoside B"], "SMILES": "CC12C3C4(CC(OC5C(OC6C(O)C(O)C(O)C(C)O6)C(OC7OC(CO)C(O)C(O)C7O)C(O)C(CO)O5)(C(=C)C4)CC3)CCC1C(C(OC8OC(CO)C(O)C(O)C8O)=O)(C)CCC2", "physical_data": {"Molecular Weight": "", "Molecular Formula": "C44H70O22", "Melting Point": "186-188 \u00b0C"}}