{"cas_no": "63562-33-4", "cn_name": "[(6-\u6c27\u4ee3-6H-\u4e8c\u82ef\u5e76[C,E][1,2]\u6c27\u78f7\u6742\u5df1\u73af-6-\u57fa)\u7532\u57fa]\u4e01\u4e8c\u9178", "en_name": ["2-[(6-Oxido-6H-dibenz[c,e][1,2]oxaphosphorin-6-yl)methyl]butanedioic acid", "Butanedioic acid, 2-[(6-oxido-6H-dibenz[c,e][1,2]oxaphosphorin-6-yl)methyl]-", "Butanedioic acid, (6H-dibenz[c,e][1,2]oxaphosphorin-6-ylmethyl)-, P-oxide", "Butanedioic acid, [(6-oxido-6H-dibenz[c,e][1,2]oxaphosphorin-6-yl)methyl]-", "6H-Dibenz[c,e][1,2]oxaphosphorin, butanedioic acid deriv.", "2-[(6-Oxido-6H-dibenz[c,e][1,2]oxaphosphorin-6-yl)methyl]butanedioic acid", "Ukanol RD", "9,10-Dihydro-9-oxa-10-phosphaphenanthren-10-oxide itaconic acid adduct", "M-Acid", "M-Acid (carboxylic acid)", "ZB 101", "DDP", "10-(9,10-Dihydro-9-oxa-10-phosphaphenanthrene-10-oxide)-2-methylbutanedicarboxylic acid", "Lunastab DDP", "DDP Flame Retardant"], "SMILES": "C(C(CC(O)=O)C(O)=O)P1(=O)C=2C(C=3C(O1)=CC=CC3)=CC=CC2", "physical_data": {"Molecular Weight": "346.27", "Molecular Formula": "C17H15O6P", "Melting Point": "191-192 \u00b0C"}}