{"cas_no": "6358-64-1", "cn_name": "4-\u6c2f-2,5-\u4e8c\u7532\u6c27\u57fa\u82ef\u80fa", "en_name": ["4-Chloro-2,5-dimethoxyaniline", "Benzenamine, 4-chloro-2,5-dimethoxy-", "Aniline, 4-chloro-2,5-dimethoxy-", "4-Chloro-2,5-dimethoxybenzenamine", "4-Chloro-2,5-dimethoxyaniline", "1-Amino-4-chloro-2,5-dimethoxybenzene", "NSC 60154", "2,5-Dimethoxy-4-chloroaniline", "(4-Chloro-2,5-dimethoxyphenyl)amine"], "SMILES": "O(C)C1=C(Cl)C=C(OC)C(N)=C1", "physical_data": {"Molecular Weight": "187.62", "Molecular Formula": "C8H10ClNO2", "Melting Point": "118-119 \u00b0C"}}