{"cas_no": "6358-53-8", "cn_name": "\u67d1\u6854\u7ea22", "en_name": ["C.I. Solvent Red 80", "2-Naphthalenol, 1-[2-(2,5-dimethoxyphenyl)diazenyl]-", "C.I. Solvent Red 80", "2-Naphthalenol, 1-[(2,5-dimethoxyphenyl)azo]-", "2-Naphthol, 1-(2,5-dimethoxyphenylazo)-", "1-[2-(2,5-Dimethoxyphenyl)diazenyl]-2-naphthalenol", "C.I. 12156", "Citrus Red No. 2", "1-(2,5-Dimethoxyphenylazo)-2-naphthol", "Citrus Red 2", "1-[1-(2,5-Dimethoxyphenyl)azo]-2-naphthol", "2,5-Dimethoxybenzeneazo-\u03b2-naphthol", "E 121", "Solvent Red 80", "1-((2,5-Dimethoxyphenyl)diazenyl)naphthalen-2-ol"], "SMILES": "N(=NC1=C(OC)C=CC(OC)=C1)C=2C3=C(C=CC2O)C=CC=C3", "physical_data": {"Molecular Weight": "308.33", "Molecular Formula": "C18H16N2O3", "Melting Point": "155-157 \u00b0C"}}