{"cas_no": "6358-06-1", "cn_name": "2-\u6c2f-5-\u6c28\u57fa\u82ef\u915a", "en_name": ["5-Amino-2-chlorophenol", "Phenol, 5-amino-2-chloro-", "5-Amino-2-chlorophenol", "2-Chloro-5-aminophenol", "3-Amino-6-chlorophenol", "3-Hydroxy-4-chloroaniline"], "SMILES": "OC1=C(Cl)C=CC(N)=C1", "physical_data": {"Molecular Weight": "143.57", "Molecular Formula": "C6H6ClNO", "Melting Point": "97-98 \u00b0C"}}