{"cas_no": "63585-09-1", "cn_name": "\u81a6\u7532\u9178\u94a0", "en_name": ["Foscarnet sodium", "Phosphinecarboxylic acid, 1,1-dihydroxy-, 1-oxide, sodium salt (1:3)", "Phosphinecarboxylic acid, dihydroxy-, oxide, trisodium salt", "Trisodium phosphonoformate", "A 29622", "Phosphonoformic acid trisodium salt", "Foscarnet sodium", "PFA", "Triapten", "EHB 776", "Foscavir", "Gefin", "Trisodium phosphonatoformate"], "SMILES": "P(C(O)=O)(=O)(O)O.[Na]", "physical_data": {"Molecular Weight": "", "Molecular Formula": "CH3O5P.3Na", "Melting Point": "&gt;250 \u00b0C"}}