{"cas_no": "6358-85-6", "cn_name": "2,2'-(3,3'-\u4e8c\u6c2f-1,1'-\u8054\u82ef-4,4'-\u53cc\u5076\u6c2e)\u53cc(N-\u82ef\u57fa-3-\u6c27\u4ee3-\u4e01\u9170\u80fa)", "en_name": ["Pigment Yellow 12", "Butanamide, 2,2\u2032-[(3,3\u2032-dichloro[1,1\u2032-biphenyl]-4,4\u2032-diyl)bis(2,1-diazenediyl)]bis[3-oxo-N-phenyl-", "C.I. Pigment Yellow 12", "Butanamide, 2,2\u2032-[(3,3\u2032-dichloro[1,1\u2032-biphenyl]-4,4\u2032-diyl)bis(azo)]bis[3-oxo-N-phenyl-", "Acetoacetanilide, 2,2\u2032\u2032-(3,3\u2032-dichloro-4,4\u2032-biphenylylenebisazo)bis-", "2,2\u2032-[(3,3\u2032-Dichloro[1,1\u2032-biphenyl]-4,4\u2032-diyl)bis(2,1-diazenediyl)]bis[3-oxo-N-phenylbutanamide]", "C.I. 21090", "Amazon Yellow X 2485", "Benzidine Lacquer Yellow G", "Benzidine Yellow E", "Benzidine Yellow 45-2650", "Benzidine Yellow 45-2685", "Benzidine Yellow 45-2680", "Benzidine Yellow GF", "Benzidine Yellow GT", "Benzidine Yellow GTR", "Benzidine Yellow HG", "Benzidine Yellow HG-Plv", "Benzidine Yellow G", "Benzidine Yellow Toner", "Benzidine Yellow Toner YA 8081", "Benzidine Yellow Toner YT 378", "Bis(acetyl-N-phenylcarbamylmethyl)-4,4\u2032-disazo-3,3\u2032-dichlorobiphenyl", "Brilliant Yellow Slurry", "Carnelio Yellow GX", "Dainichi Benzidine Yellow G", "Dainichi Benzidine Yellow GRT", "Dainichi Benzidine Yellow GT", "Dainichi Benzidine Yellow GY", "Dainichi Benzidine Yellow GYT", "Daltolite Fast Yellow GT", "Eljon Yellow BG", "Hancock Yellow 10010", "Helio Yellow GW", "Helio Yellow GWN", "Irgalite Yellow BO", "Irgalite Yellow BST", "Irgalite Yellow BTR", "Isol Benzidine Yellow G", "Isol Benzidine Yellow G Special", "Kromon Yellow GXT Conc", "Kromon Yellow MTB", "Light Yellow JB", "Light Yellow JBO", "Light Yellow JBT", "Lodestone Yellow YB 57", "Monolite Yellow 2GRA", "Monolite Yellow GRA", "Monolite Yellow GT", "Monolite Yellow GTA", "Monolite Yellow GTN", "Monolite Yellow GTNA", "Permanent Yellow DHG", "Pigment Yellow GT", "Rangoon Yellow", "Recolite Yellow BG", "Recolite Yellow BGT", "Sanyo Benzidine Yellow B", "Segnale Light Yellow 2GR", "Segnale Light Yellow 2GRT", "Siloton Yellow 3GX", "Siloton Yellow GTX", "Symuler Fast Yellow GF", "Verona Yellow X 1791", "Vulcafor Fast Yellow GT", "Vulcafor Fast Yellow GTA", "Vulcol Fast Yellow GR", "Monolite Yellow GTS", "Benzidine Yellow", "Pigment Yellow 12", "Diarylide Yellow YT 553D", "Graphtol Yellow A-HG", "Permanent Yellow GHG", "Isol Benzidine Yellow G 2537", "Benzidine Yellow 1178", "Benzidine Yellow YB 5722", "Benzidine Yellow AAA", "Symuler Fast Yellow 4078", "Symuler Fast Yellow 219", "Symuler Fast Yellow 224", "Seikafast Yellow 2300", "Segnale Yellow HG", "Diarylide Yellow AAMX", "Yellow 205", "Japan Yellow 205", "Yellow No. 205", "Japan Yellow No. 205", "Sumikaprint Yellow 3A-O", "Diarylide Yellow", "Seikafast Yellow H 7055", "Permanent Yellow DHG 80", "Lionol Yellow GR", "KET Yellow 406", "Benzyl Yellow G", "Disazo Yellow", "Lionol Yellow 1206", "Seikafast Yellow 7055", "Diarylide Yellow AAA", "Lionol Yellow GGT", "Benzidine Yellow 1316", "Lionol Yellow SS-OW", "EP 500", "Sun Yellow AAA", "Sunbrite Yellow AAA", "Sunbrite Yellow 273-3556", "Symuler Fast Yellow GTF 219", "Symuler Fast Yellow PDGF 138", "NSC 521237", "2,2\u2032-[(3,3\u2032-Dichloro[1,1\u2032-biphenyl]-4,4\u2032-diyl)bis(azo)]bis[3-oxo-N-phenylbutanamide", "Lutetia Yellow 2JRST", "Lionol Yellow 1245P", "Lionol Yellow 1243P", "Lionol Yellow 1235P", "Lionol Yellow 2RN", "Sanyo Pigment Yellow GRT", "Pigment Yellow GRT", "Lionol Yellow TT 1206", "Pigment Yellow FG", "DY 728", "Laibo 178-1", "Benzidine Yellow 12", "Permanent Yellow DHG-CN 09", "PY 12", "Symuler Fast Yellow GF conc.", "Lionol Yellow TCH 1205", "Benzidine Yellow G 1138", "DTXSID1021451"], "SMILES": "ClC=1C=C(C=CC1N=NC(C(NC2=CC=CC=C2)=O)C(C)=O)C3=CC(Cl)=C(N=NC(C(NC4=CC=CC=C4)=O)C(C)=O)C=C3", "physical_data": {"Molecular Weight": "629.49", "Molecular Formula": "C32H26Cl2N6O4", "Melting Point": "320 \u00b0C"}}