{"cas_no": "63590-64-7", "cn_name": "\u7279\u62c9\u5511\u55ea", "en_name": ["Terazosin", "Methanone, [4-(4-amino-6,7-dimethoxy-2-quinazolinyl)-1-piperazinyl](tetrahydro-2-furanyl)-", "Piperazine, 1-(4-amino-6,7-dimethoxy-2-quinazolinyl)-4-[(tetrahydro-2-furanyl)carbonyl]-", "[4-(4-Amino-6,7-dimethoxy-2-quinazolinyl)-1-piperazinyl](tetrahydro-2-furanyl)methanone", "Terazosin", "1-(4-Amino-6,7-dimethoxy-2-quinazolinyl)-4-(tetrahydro-2-furoyl)piperazine", "1-(4-Amino-6,7-dimethoxyquinazolin-2-yl)-4-[(2,3,4,5-tetrahydrofuran-2-yl)carbonyl]piperazine", "[4-(4-Amino-6,7-dimethoxyquinazolin-2-yl)piperazin-1-yl]-(oxolan-2-yl)methanone"], "SMILES": "NC=1C2=C(N=C(N1)N3CCN(C(=O)C4CCCO4)CC3)C=C(OC)C(OC)=C2", "physical_data": {"Molecular Weight": "387.43", "Molecular Formula": "C19H25N5O4", "Melting Point": "273 \u00b0C"}}