{"cas_no": "636-99-7", "cn_name": "4-\u785d\u57fa\u82ef\u80bc\u76d0\u9178\u76d0", "en_name": ["Hydrazine, (4-nitrophenyl)-, hydrochloride (1:1)", "Hydrazine, (4-nitrophenyl)-, hydrochloride (1:1)", "Hydrazine, (p-nitrophenyl)-, hydrochloride", "Hydrazine, (4-nitrophenyl)-, monohydrochloride", "p-Nitrophenylhydrazine hydrochloride", "4-Nitrophenylhydrazine monohydrochloride", "2-(4-Nitrophenyl)hydrazinium chloride"], "SMILES": "N(=O)(=O)C1=CC=C(NN)C=C1.Cl", "physical_data": {"Molecular Weight": "", "Molecular Formula": "C6H7N3O2.ClH", "Melting Point": "196-197 \u00b0C"}}