{"cas_no": "636-98-6", "cn_name": "4-\u785d\u57fa\u7898\u82ef", "en_name": ["1-Iodo-4-nitrobenzene", "Benzene, 1-iodo-4-nitro-", "1-Iodo-4-nitrobenzene", "p-Iodonitrobenzene", "p-Nitrophenyl iodide", "4-Iodonitrobenzene", "p-Nitroiodobenzene", "4-Nitroiodobenzene", "4-Nitrophenyl iodide", "4-Iodo-1-nitrobenzene", "4-Nitro-1-iodobenzene", "NSC 9794", "1-Nitro-4-iodobenzene"], "SMILES": "N(=O)(=O)C1=CC=C(I)C=C1", "physical_data": {"Molecular Weight": "249.01", "Molecular Formula": "C6H4INO2", "Boiling Point": "288 \u00b0C", "Melting Point": "174.7 \u00b0C"}}