{"cas_no": "636-09-9", "cn_name": "\u5bf9\u82ef\u4e8c\u7532\u9178\u4e8c\u4e59\u916f", "en_name": ["Diethyl terephthalate", "1,4-Benzenedicarboxylic acid, 1,4-diethyl ester", "Terephthalic acid, diethyl ester", "1,4-Benzenedicarboxylic acid, diethyl ester", "Diethyl terephthalate", "p-Benzenedicarboxylic acid diethyl ester", "p-Diethyl phthalate", "NSC 68816", "1,4-Diethyl benzene-1,4-dicarboxylate"], "SMILES": "C(OCC)(=O)C1=CC=C(C(OCC)=O)C=C1", "physical_data": {"Molecular Weight": "222.24", "Molecular Formula": "C12H14O4", "Boiling Point": "302 \u00b0C", "Melting Point": "44 \u00b0C", "Density": "1.0913 g/cm\u00b3 @ Temp: 25 \u00b0C"}}