{"cas_no": "636-30-6", "cn_name": "2,4,5-\u4e09\u6c2f\u82ef\u80fa", "en_name": ["2,4,5-Trichloroaniline", "Benzenamine, 2,4,5-trichloro-", "Aniline, 2,4,5-trichloro-", "2,4,5-Trichlorobenzenamine", "2,4,5-Trichloroaniline", "2,4,5-Trichloraniline", "NSC 64139", "2,4,5-Trichloro-phenylamine", "Benzenamine, 2,4,5-trichloro-3-fluoro-"], "SMILES": "ClC1=C(Cl)C=C(N)C(Cl)=C1", "physical_data": {"Molecular Weight": "196.46", "Molecular Formula": "C6H4Cl3N", "Boiling Point": "270 \u00b0C", "Melting Point": "96.5 \u00b0C"}}