{"cas_no": "636-70-4", "cn_name": "\u4e09\u4e59\u80fa\u6c22\u6eb4\u9178\u76d0", "en_name": ["Triethylammonium bromide", "Ethanamine, N,N-diethyl-, hydrobromide (1:1)", "Triethylamine, hydrobromide", "Ethanamine, N,N-diethyl-, hydrobromide", "Triethylammonium bromide"], "SMILES": "N(CC)(CC)CC.Br", "physical_data": {"Molecular Weight": "", "Molecular Formula": "C6H15N.BrH", "Melting Point": "246 \u00b0C"}}