{"cas_no": "636-04-4", "cn_name": "\u786b\u82ef\u7532\u91af\u80fa\u82ef", "en_name": ["Thiobenzanilide", "Benzenecarbothioamide, N-phenyl-", "Benzanilide, thio-", "N-Phenylbenzenecarbothioamide", "N-Phenylthiobenzamide", "Thiobenzanilide", "N-Thiobenzoylaniline", "NSC 2580", "N-Phenylbenzothioamide"], "SMILES": "C(NC1=CC=CC=C1)(=S)C2=CC=CC=C2", "physical_data": {"Molecular Weight": "213.30", "Molecular Formula": "C13H11NS", "Melting Point": "102 \u00b0C"}}