{"cas_no": "636-46-4", "cn_name": "4-\u7f9f\u57fa\u95f4\u82ef\u4e8c\u7532\u9178", "en_name": ["4-Hydroxyisophthalic acid", "1,3-Benzenedicarboxylic acid, 4-hydroxy-", "Isophthalic acid, 4-hydroxy-", "4-Hydroxy-1,3-benzenedicarboxylic acid", "4-Hydroxyisophthalic acid", "4-Hydroxy-m-phthalic acid", "Eupirina", "NSC 2445"], "SMILES": "C(O)(=O)C1=CC(C(O)=O)=CC=C1O", "physical_data": {"Molecular Weight": "182.13", "Molecular Formula": "C8H6O5", "Melting Point": "310 \u00b0C"}}