{"cas_no": "636-93-1", "cn_name": "2-\u7532\u6c27\u57fa-5-\u785d\u57fa\u82ef\u915a", "en_name": ["5-Nitroguaiacol", "Phenol, 2-methoxy-5-nitro-", "Guaiacol, 5-nitro-", "2-Methoxy-5-nitrophenol", "5-Nitroguaiacol", "3-Hydroxy-4-methoxynitrobenzene", "4-Nitro-2-hydroxyanisole", "3-Nitro-6-methoxyphenol", "2-Hydroxy-4-nitroanisole"], "SMILES": "N(=O)(=O)C1=CC(O)=C(OC)C=C1", "physical_data": {"Molecular Weight": "169.13", "Molecular Formula": "C7H7NO4", "Melting Point": "103-104 \u00b0C"}}