{"cas_no": "636-32-8", "cn_name": "1,2,4,5-\u56db\u7f9f\u57fa\u82ef", "en_name": ["1,2,4,5-Benzenetetrol", "1,2,4,5-Benzenetetrol", "1,2,4,5-Tetrahydroxybenzene", "1,2,4,5-Benzenetetraol", "2,5-Dihydroxyhydroquinone", "NSC 144257"], "SMILES": "OC1=C(O)C=C(O)C(O)=C1", "physical_data": {"Molecular Weight": "142.11", "Molecular Formula": "C6H6O4", "Melting Point": "210 \u00b0C"}}