{"cas_no": "636-72-6", "cn_name": "2-\u567b\u5429\u7532\u9187", "en_name": ["2-Thiophenemethanol", "2-Thiophenemethanol", "2-(Hydroxymethyl)thiophene", "2-Thenyl alcohol", "2-Thienylmethanol", "2-Thienylmethyl alcohol", "2-Thienylcarbinol", "(Thiophen-2-yl)methanol", "NSC 89695"], "SMILES": "C(O)C1=CC=CS1", "physical_data": {"Molecular Weight": "114.17", "Molecular Formula": "C5H6OS", "Boiling Point": "207 \u00b0C", "Melting Point": "28-30 \u00b0C", "Density": "1.2147 g/cm\u00b3 @ Temp: 14.5 \u00b0C"}}