{"cas_no": "636-28-2", "cn_name": "1,2,4,5-\u56db\u6eb4\u82ef", "en_name": ["1,2,4,5-Tetrabromobenzene", "Benzene, 1,2,4,5-tetrabromo-", "1,2,4,5-Tetrabromobenzene", "2,3,5,6-Tetrabromobenzene", "NSC 27002"], "SMILES": "BrC1=C(Br)C=C(Br)C(Br)=C1", "physical_data": {"Molecular Weight": "393.70", "Molecular Formula": "C6H2Br4", "Boiling Point": "3.1 \u00b0C", "Melting Point": "182 \u00b0C"}}