{"cas_no": "636-53-3", "cn_name": "\u95f4\u82ef\u4e8c\u7532\u9178\u4e8c\u4e59\u916f", "en_name": ["1,3-Diethyl 1,3-benzenedicarboxylate", "1,3-Benzenedicarboxylic acid, 1,3-diethyl ester", "Isophthalic acid, diethyl ester", "1,3-Benzenedicarboxylic acid, diethyl ester", "1,3-Diethyl 1,3-benzenedicarboxylate", "Diethyl isophthalate", "Diethyl 1,3-benzenedicarboxylate", "NSC 249815"], "SMILES": "C(OCC)(=O)C1=CC(C(OCC)=O)=CC=C1", "physical_data": {"Molecular Weight": "222.24", "Molecular Formula": "C12H14O4", "Boiling Point": "302 \u00b0C @ Press: 760 Torr", "Melting Point": "11.5 \u00b0C", "Density": "1.1239 g/cm\u00b3 @ Temp: 17 \u00b0C"}}