{"cas_no": "636-01-1", "cn_name": "(E)-3-(2,5-\u4e8c\u7f9f\u82ef\u57fa)\u4e19\u70ef\u9178", "en_name": ["3-(2,5-Dihydroxyphenyl)-2-propenoic acid", "2-Propenoic acid, 3-(2,5-dihydroxyphenyl)-", "Cinnamic acid, 2,5-dihydroxy-", "3-(2,5-Dihydroxyphenyl)-2-propenoic acid", "2,5-Dihydroxycinnamic acid"], "SMILES": "C(=CC(O)=O)C1=C(O)C=CC(O)=C1", "physical_data": {"Molecular Weight": "180.16", "Molecular Formula": "C9H8O4", "Melting Point": "207 \u00b0C"}}