{"cas_no": "636-44-2", "cn_name": "2,5-\u4e8c\u7532\u57fa-3-\u544b\u5583\u9178", "en_name": ["2,5-Dimethyl-3-furancarboxylic acid", "3-Furancarboxylic acid, 2,5-dimethyl-", "3-Furoic acid, 2,5-dimethyl-", "2,5-Dimethyl-3-furancarboxylic acid", "Pyrotritaric acid", "Uvinic acid", "2,5-Dimethyl-3-furoic acid", "NSC 170612"], "SMILES": "C(O)(=O)C=1C=C(C)OC1C", "physical_data": {"Molecular Weight": "140.14", "Molecular Formula": "C7H8O3", "Melting Point": "134 \u00b0C"}}