{"cas_no": "636-21-5", "cn_name": "\u90bb\u7532\u82ef\u80fa\u76d0\u9178\u76d0", "en_name": ["o-Toluidinium chloride", "Benzenamine, 2-methyl-, hydrochloride (1:1)", "o-Toluidine, hydrochloride", "Benzenamine, 2-methyl-, hydrochloride", "2-Methylaniline hydrochloride", "o-Toluidinium chloride", "o-Methylaniline hydrochloride", "2-Methylbenzenamine hydrochloride", "2-Methylphenylammonium chloride"], "SMILES": "CC1=C(N)C=CC=C1.Cl", "physical_data": {"Molecular Weight": "", "Molecular Formula": "C7H9N.ClH", "Boiling Point": "242.2 \u00b0C", "Melting Point": "215 \u00b0C", "Density": "1.288 g/cm\u00b3"}}