{"cas_no": "636-41-9", "cn_name": "2-\u7532\u57fa\u5421\u54af", "en_name": ["2-Methylpyrrole", "1H-Pyrrole, 2-methyl-", "Pyrrole, 2-methyl-", "2-Methyl-1H-pyrrole", "\u03b1-Methylpyrrole", "2-Methylpyrrole", "NSC 81346"], "SMILES": "CC1=CC=CN1", "physical_data": {"Molecular Weight": "81.12", "Molecular Formula": "C5H7N", "Boiling Point": "147 \u00b0C", "Melting Point": "-35.6 \u00b0C", "Density": "0.9438 g/cm\u00b3 @ Temp: 20 \u00b0C"}}