{"cas_no": "636-61-3", "cn_name": "D-(+)-\u82f9\u679c\u9178", "en_name": ["D-Malic acid", "Butanedioic acid, 2-hydroxy-, (2R)-", "Malic acid, D-", "Butanedioic acid, hydroxy-, (R)-", "Butanedioic acid, hydroxy-, (2R)-", "(2R)-2-Hydroxybutanedioic acid", "D-Malic acid", "(+)-Malic acid", "D-(+)-Malic acid", "(R)-(+)-Malic acid", "(R)-Malic acid", "(2R)-Malic acid", "D-(+)-2-Hydroxysuccinic acid", "(R)-2-Hydroxysuccinic acid", "(R)-Malic acid", "(2R)-2-Hydroxysuccinic acid", "(R)-2-Hydroxysuccinate", "(2R)-2-Hydroxybutanedioic acid", "(R)-2-Hydroxysuccinic acid"], "SMILES": "C(CC(O)=O)(C(O)=O)O", "physical_data": {"Molecular Weight": "134.09", "Molecular Formula": "C4H6O5", "Melting Point": "98-100 \u00b0C"}}