{"cas_no": "636-26-0", "cn_name": "4-\u7f9f\u57fa-2-\u5def\u57fa-5-\u7532\u57fa\u5627\u5576", "en_name": ["2-Thiothymine", "4(1H)-Pyrimidinone, 2,3-dihydro-5-methyl-2-thioxo-", "Thymine, 2-thio-", "2,3-Dihydro-5-methyl-2-thioxo-4(1H)-pyrimidinone", "2-Thiothymine", "5-Methyl-2-thiouracil", "Thiothymine", "4-Hydroxy-5-methylpyrimidine-2-thione", "4-Hydroxy-5-methyl-2-mercaptopyrimidine", "NSC 314272", "NSC 9377", "5-Methyl-2-thioxo-2,3-dihydro-1H-pyrimidin-4-one"], "SMILES": "O=C1C(C)=CNC(=S)N1", "physical_data": {"Molecular Weight": "142.18", "Molecular Formula": "C5H6N2OS", "Melting Point": "330 \u00b0C"}}