{"cas_no": "636-58-8", "cn_name": "G-\u8c37\u6c28\u9178-\u534a\u80f1-\u4e09\u6c1f\u4e59\u9178\u76d0", "en_name": ["\u03b3-L-Glutamyl-L-cysteine", "L-Cysteine, L-\u03b3-glutamyl-", "Glutamine, N-(1-carboxy-2-mercaptoethyl)-, L-", "L-Cysteine, N-L-\u03b3-glutamyl-", "Glutamine, N-(1-carboxy-2-mercaptoethyl)-", "Cysteine, \u03b3-glutamyl-", "L-\u03b3-Glutamyl-L-cysteine", "\u03b3-Glutamylcysteine", "\u03b3-L-Glutamyl-L-cysteine", "\u03b3-Glu-Cys", "7: PN: CN107114752 PAGE: 2 claimed sequence", "\u03b3-L-Glutamyl-cysteine"], "SMILES": "C(NC(CCC(C(O)=O)N)=O)(C(O)=O)CS", "physical_data": {"Molecular Weight": "250.27", "Molecular Formula": "C8H14N2O5S", "Melting Point": "167 \u00b0C"}}