{"cas_no": "636-73-7", "cn_name": "3-\u5421\u5576\u78fa\u9178", "en_name": ["3-Pyridinesulfonic acid", "3-Pyridinesulfonic acid", "3-Pyridylsulfonic acid", "\u03b2-Sulfopyridine", "3-Sulfopyridine", "NSC 246058"], "SMILES": "S(=O)(=O)(O)C=1C=CC=NC1", "physical_data": {"Molecular Weight": "159.16", "Molecular Formula": "C5H5NO3S", "Melting Point": "357 \u00b0C (decomp)"}}