{"cas_no": "636-95-3", "cn_name": "3-\u785d\u57fa\u82ef\u80bc\u76d0\u9178\u76d0", "en_name": ["Hydrazine, (3-nitrophenyl)-, hydrochloride (1:1)", "Hydrazine, (3-nitrophenyl)-, hydrochloride (1:1)", "Hydrazine, (m-nitrophenyl)-, hydrochloride", "Hydrazine, (3-nitrophenyl)-, monohydrochloride", "m-Nitrophenylhydrazine hydrochloride", "3-Nitrophenylhydrazine monohydrochloride", "(3-Nitrophenyl)hydrazine hydrochloride", "1-(3-Nitrophenyl)hydrazine hydrochloride"], "SMILES": "N(=O)(=O)C1=CC(NN)=CC=C1.Cl", "physical_data": {"Molecular Weight": "", "Molecular Formula": "C6H7N3O2.ClH", "Melting Point": "208-210 \u00b0C"}}