{"cas_no": "636-80-6", "cn_name": "2-\u7fa7\u9178\u5421\u5576", "en_name": ["2-Pyridinecarboxylic acid, hydrochloride (1:1)", "2-Pyridinecarboxylic acid, hydrochloride (1:1)", "Picolinic acid, hydrochloride", "2-Pyridinecarboxylic acid, hydrochloride", "\u03b1-Picolinic acid hydrochloride", "2-Picolinic acid hydrochloride"], "SMILES": "C(O)(=O)C1=CC=CC=N1.Cl", "physical_data": {"Molecular Weight": "", "Molecular Formula": "C6H5NO2.ClH", "Melting Point": "229 \u00b0C"}}