{"cas_no": "636-82-8", "cn_name": "\u73af\u5df1\u70ef\u7532\u9178", "en_name": ["1-Cyclohexene-1-carboxylic acid", "1-Cyclohexene-1-carboxylic acid", "1-Cyclohexenylcarboxylic acid"], "SMILES": "C(O)(=O)C=1CCCCC1", "physical_data": {"Molecular Weight": "126.15", "Molecular Formula": "C7H10O2", "Boiling Point": "241 \u00b0C", "Melting Point": "38 \u00b0C", "Density": "1.0717 g/cm\u00b3 @ Temp: 47.2 \u00b0C"}}