{"cas_no": "636-31-7", "cn_name": "1,2,4,5-\u56db\u7898\u82ef", "en_name": ["1,2,4,5-Tetraiodobenzene", "Benzene, 1,2,4,5-tetraiodo-", "1,2,4,5-Tetraiodobenzene"], "SMILES": "IC1=C(I)C=C(I)C(I)=C1", "physical_data": {"Molecular Weight": "581.70", "Molecular Formula": "C6H2I4", "Melting Point": "254 \u00b0C"}}