{"cas_no": "636-97-5", "cn_name": "4-\u785d\u57fa\u82ef\u80bc", "en_name": ["4-Nitrobenzoic acid hydrazide", "Benzoic acid, 4-nitro-, hydrazide", "Benzoic acid, p-nitro-, hydrazide", "p-Nitrobenzhydrazide", "(p-Nitrobenzoyl)hydrazine", "p-Nitrobenzohydrazide", "4-Nitrobenzohydrazide", "4-Nitrobenzoyl hydrazide", "4-Nitrobenzoylhydrazine", "p-Nitrobenzoic hydrazide", "p-Nitrobenzoyl hydrazide", "4-Nitrobenzoic acid hydrazide", "4-Nitrobenzenecarboxylic acid hydrazide", "p-Nitrobenzoic acid hydrazide", "4-Nitrobenzoic hydrazide", "NSC 9804", "4-Nitrobenzhydrazide", "INHd 18", "4-Nitrobenzocarboxyhydrazide"], "SMILES": "C(NN)(=O)C1=CC=C(N(=O)=O)C=C1", "physical_data": {"Molecular Weight": "181.15", "Molecular Formula": "C7H7N3O3", "Melting Point": "218 \u00b0C (decomp)"}}