{"cas_no": "63604-94-4", "cn_name": "2-\u6eb4-5-\u7532\u6c27\u57fa\u82ef\u915a", "en_name": ["2-Bromo-5-methoxyphenol", "Phenol, 2-bromo-5-methoxy-", "2-Bromo-5-methoxyphenol", "4-Bromo-3-hydroxyanisole"], "SMILES": "O(C)C1=CC(O)=C(Br)C=C1", "physical_data": {"Molecular Weight": "203.03", "Molecular Formula": "C7H7BrO2", "Melting Point": "152 \u00b0C"}}