{"cas_no": "6361-21-3", "cn_name": "2-\u6c2f-5-\u785d\u57fa\u82ef\u7532\u919b", "en_name": ["2-Chloro-5-nitrobenzaldehyde", "Benzaldehyde, 2-chloro-5-nitro-", "2-Chloro-5-nitrobenzaldehyde", "3-Nitro-6-chlorobenzaldehyde", "6-Chloro-3-nitrobenzaldehyde", "5-Nitro-2-chlorobenzaldehyde", "NSC 129753"], "SMILES": "C(=O)C1=CC(N(=O)=O)=CC=C1Cl", "physical_data": {"Molecular Weight": "185.56", "Molecular Formula": "C7H4ClNO3", "Melting Point": "98 \u00b0C"}}