{"cas_no": "6361-23-5", "cn_name": "2,5-\u4e8c\u6c2f\u82ef\u7532\u919b", "en_name": ["2,5-Dichlorobenzaldehyde", "Benzaldehyde, 2,5-dichloro-", "2,5-Dichlorobenzaldehyde"], "SMILES": "C(=O)C1=C(Cl)C=CC(Cl)=C1", "physical_data": {"Molecular Weight": "175.01", "Molecular Formula": "C7H4Cl2O", "Boiling Point": "232 \u00b0C", "Melting Point": "58 \u00b0C"}}