{"cas_no": "6361-22-4", "cn_name": "2-\u6c2f-6-\u785d\u57fa\u82ef\u7532\u919b", "en_name": ["2-Chloro-6-nitrobenzaldehyde", "Benzaldehyde, 2-chloro-6-nitro-", "2-Chloro-6-nitrobenzaldehyde", "6-Chloro-2-nitrobenzaldehyde", "1-Chloro-2-formyl-3-nitrobenzene"], "SMILES": "C(=O)C1=C(N(=O)=O)C=CC=C1Cl", "physical_data": {"Molecular Weight": "185.56", "Molecular Formula": "C7H4ClNO3", "Melting Point": "71.5-72.5 \u00b0C"}}