{"cas_no": "63612-50-0", "cn_name": "\u5c3c\u9c81\u7c73\u7279", "en_name": ["Nilutamide", "2,4-Imidazolidinedione, 5,5-dimethyl-3-[4-nitro-3-(trifluoromethyl)phenyl]-", "5,5-Dimethyl-3-[4-nitro-3-(trifluoromethyl)phenyl]-2,4-imidazolidinedione", "RU 23908", "Anandron", "Nilutamide", "RU 23908-10", "Nilandron", "1-(3-Trifluoromethyl-4-nitrophenyl)-4,4-dimethylimidazoline-2,5-dione", "Nilandrone", "1-(3-Trifluoromethyl-4-nitrophenyl)-4,4-dimethylimidazolidine-2,5-dione", "5,5-Dimethyl-3-[4-nitro-3-(trifluoromethyl)phenyl]imidazolidine-2,4-dione"], "SMILES": "O=C1N(C(=O)NC1(C)C)C2=CC(C(F)(F)F)=C(N(=O)=O)C=C2", "physical_data": {"Molecular Weight": "317.22", "Molecular Formula": "C12H10F3N3O4", "Melting Point": "152-153 \u00b0C"}}