{"cas_no": "63610-08-2", "cn_name": "\u5432\u54da\u5e03\u82ac", "en_name": ["Indobufen", "Benzeneacetic acid, 4-(1,3-dihydro-1-oxo-2H-isoindol-2-yl)-\u03b1-ethyl-", "Benzeneacetic acid, 4-(1,3-dihydro-1-oxo-2H-isoindol-2-yl)-\u03b1-ethyl-, (\u00b1)-", "4-(1,3-Dihydro-1-oxo-2H-isoindol-2-yl)-\u03b1-ethylbenzeneacetic acid", "Indobufen", "Ibustrin", "1-Oxo-2-[p-[(\u03b1-ethyl)carboxymethyl]phenyl]isoindoline", "K 3920", "K 2930", "2-[p-(1-Oxo-2-isoindolinyl)phenyl]butyric acid", "2-(4-(1-Oxoisoindolin-2-yl)phenyl)butanoic acid"], "SMILES": "O=C1N(CC=2C1=CC=CC2)C3=CC=C(C(C(O)=O)CC)C=C3", "physical_data": {"Molecular Weight": "295.33", "Molecular Formula": "C18H17NO3", "Melting Point": "183 \u00b0C"}}