{"cas_no": "63628-26-2", "cn_name": "(R)-(-)-2-\u7532\u6c27\u57fa-2-(1-\u8418\u57fa)\u4e19\u9178", "en_name": ["(-)-2-Methoxy-2-(1-naphthyl)propionic acid", "1-Naphthaleneacetic acid, \u03b1-methoxy-\u03b1-methyl-, (\u03b1R)-", "(\u03b1R)-\u03b1-Methoxy-\u03b1-methyl-1-naphthaleneacetic acid", "(-)-(R)-2-Methoxy-2-(1-naphthyl)propanoic acid", "(R)-2-Methoxy-2-(1-naphthyl)propanoic acid", "(-)-2-Methoxy-2-(1-naphthyl)propionic acid", "(R)-(-)-2-Methoxy-2-(1-naphthyl)propanoic acid", "(2R)-2-Methoxy-2-naphthalen-1-ylpropanoic acid", "(R)-2-Methoxy-2-(naphthalen-1-yl)propanoicacid"], "SMILES": "C(C(O)=O)(OC)(C)C=1C2=C(C=CC1)C=CC=C2", "physical_data": {"Molecular Weight": "230.26", "Molecular Formula": "C14H14O3", "Melting Point": "106-107 \u00b0C"}}