{"cas_no": "6362-80-7", "cn_name": "2,4-\u4e8c\u82ef\u57fa-4-\u7532\u57fa-1-\u620a\u70ef", "en_name": ["2,4-Diphenyl-4-methyl-1-pentene", "Benzene, 1,1\u2032-(1,1-dimethyl-3-methylene-1,3-propanediyl)bis-", "1-Pentene, 4-methyl-2,4-diphenyl-", "1,1\u2032-(1,1-Dimethyl-3-methylene-1,3-propanediyl)bis[benzene]", "4-Methyl-2,4-diphenyl-1-pentene", "2,4-Diphenyl-4-methyl-1-pentene", "\u03b1-(2-Methyl-2-phenylpropyl)styrene", "Nofmer MSD", "4,4-Dimethyl-2,4-diphenyl-1-butene", "DK 81", "DK 80", "DK 86", "(2-Methyl-4-phenylpent-4-en-2-yl)benzene"], "SMILES": "C(CC(=C)C1=CC=CC=C1)(C)(C)C2=CC=CC=C2", "physical_data": {"Molecular Weight": "236.35", "Molecular Formula": "C18H20", "Boiling Point": "75-82 \u00b0C @ Press: 1 x 10<sup>-4</sup> Torr", "Density": "0.9752 g/cm\u00b3 @ Temp: 20 \u00b0C"}}