{"cas_no": "63624-28-2", "cn_name": "2,4-\u4e8c\u7532\u6c27\u57fa\u82ef\u78fa\u9170\u6c2f", "en_name": ["2,4-Dimethoxybenzenesulfonyl chloride", "Benzenesulfonyl chloride, 2,4-dimethoxy-", "2,4-Dimethoxybenzenesulfonyl chloride", "2,4-Dimethoxyphenylsulfonyl chloride", "2,4-Dimethoxybenzene-1-sulfonyl chloride"], "SMILES": "O(C)C1=C(S(Cl)(=O)=O)C=CC(OC)=C1", "physical_data": {"Molecular Weight": "236.67", "Molecular Formula": "C8H9ClO4S", "Melting Point": "67-69 \u00b0C"}}