{"cas_no": "6363-53-7", "cn_name": "\u9ea6\u82bd\u7cd6\u4e00\u6c34\u5408\u7269", "en_name": ["Maltose, monohydrate", "D-Glucose, 4-O-\u03b1-D-glucopyranosyl-, hydrate (1:1)", "D-Glucose, 4-O-\u03b1-D-glucopyranosyl-, monohydrate", "Maltose, monohydrate", "Maltose monohydrate", "D-(+)-Maltose monohydrate"], "SMILES": "O(C(C(C(C=O)O)O)C(CO)O)C1OC(CO)C(O)C(O)C1O.O", "physical_data": {"Molecular Weight": "", "Molecular Formula": "C12H22O11.H2O", "Melting Point": "106.15 \u00b0C"}}