{"cas_no": "63659-19-8", "cn_name": "\u76d0\u9178\u500d\u4ed6\u6d1b\u5c14", "en_name": ["Betaxolol hydrochloride", "2-Propanol, 1-[4-[2-(cyclopropylmethoxy)ethyl]phenoxy]-3-[(1-methylethyl)amino]-, hydrochloride (1:1)", "2-Propanol, 1-[4-[2-(cyclopropylmethoxy)ethyl]phenoxy]-3-[(1-methylethyl)amino]-, hydrochloride", "Betaxolol hydrochloride", "Betoptic", "SL 75212", "Kerlone", "SLD 212", "Betoptima", "Betapress", "Optipress", "Lusopress"], "SMILES": "O(CC(CNC(C)C)O)C1=CC=C(CCOCC2CC2)C=C1.Cl", "physical_data": {"Molecular Weight": "", "Molecular Formula": "C18H29NO3.ClH", "Melting Point": "116 \u00b0C"}}