{"cas_no": "63655-40-3", "cn_name": "5-\u6c30\u57fa-2-\u6c28\u57fa\u82ef\u5e76\u54aa\u5511", "en_name": ["2-Amino-1H-benzimidazole-6-carbonitrile", "1H-Benzimidazole-6-carbonitrile, 2-amino-", "1H-Benzimidazole-5-carbonitrile, 2-amino-", "2-Amino-1H-benzimidazole-6-carbonitrile", "5-Cyano-2-aminobenzimidazole", "2-Amino-1H-benzimidazole-5-carbonitrile", "2-Amino-5(6)-cyano-1H-benzimidazole", "2-Amino-5-cyanobenzimidazole", "2-Amino-1H-1,3-benzodiazole-6-carbonitrile", "2-Amino-3H-benzimidazole-5-carbonitrile", "2-Amino-1H-1,3-benzodiazole-5-carbonitrile"], "SMILES": "NC=1NC=2C(=CC(C#N)=CC2)N1", "physical_data": {"Molecular Weight": "158.16", "Molecular Formula": "C8H6N4", "Melting Point": "190-192 \u00b0C"}}