{"cas_no": "63659-18-7", "cn_name": "\u500d\u4ed6\u6d1b\u5c14", "en_name": ["Betaxolol", "2-Propanol, 1-[4-[2-(cyclopropylmethoxy)ethyl]phenoxy]-3-[(1-methylethyl)amino]-", "1-[4-[2-(Cyclopropylmethoxy)ethyl]phenoxy]-3-[(1-methylethyl)amino]-2-propanol", "Betaxolol", "1-Isopropylamino-3-[4-(2-cyclopropylmethoxy-ethyl)phenoxy]-2-propanol", "Betoptic S", "(\u00b1)-Betaxolol", "InOrpha", "1-[4-[2-(Cyclopropylmethoxy)ethyl]phenoxy]-3-(propan-2-ylamino)propan-2-ol", "MeSH ID: D015784"], "SMILES": "O(CC(CNC(C)C)O)C1=CC=C(CCOCC2CC2)C=C1", "physical_data": {"Molecular Weight": "307.43", "Molecular Formula": "C18H29NO3", "Melting Point": "70-72 \u00b0C"}}