{"cas_no": "636582-62-2", "cn_name": "\u67b8\u6a7c\u9178\u83ab\u6c99\u5fc5\u5229\u542b\u7ed3\u6676\u6c34", "en_name": ["Mosapride citrate dihydrate", "Benzamide, 4-amino-5-chloro-2-ethoxy-N-[[4-[(4-fluorophenyl)methyl]-2-morpholinyl]methyl]-, 2-hydroxy-1,2,3-propanetricarboxylate, hydrate (1:1:2)", "Benzamide, 4-amino-5-chloro-2-ethoxy-N-[[4-[(4-fluorophenyl)methyl]-2-morpholinyl]methyl]-, 2-hydroxy-1,2,3-propanetricarboxylate (1:1), dihydrate", "Mosapride citrate dihydrate"], "SMILES": "C(CC(O)=O)(CC(O)=O)(C(O)=O)O.C(NCC1CN(CC2=CC=C(F)C=C2)CCO1)(=O)C3=C(OCC)C=C(N)C(Cl)=C3.O", "physical_data": {"Molecular Weight": "", "Molecular Formula": "C21H25ClFN3O3.C6H8O7.2H2O", "Melting Point": "110-113 \u00b0C"}}