{"cas_no": "6366-70-7", "cn_name": "N6-Cbz-L-\u8d56\u6c28\u9178\u82c4\u916f\u76d0\u9178\u76d0", "en_name": ["L-Lysine, N6-[(phenylmethoxy)carbonyl]-, phenylmethyl ester, hydrochloride (1:1)", "L-Lysine, N6-[(phenylmethoxy)carbonyl]-, phenylmethyl ester, hydrochloride (1:1)", "Lysine, N6-carboxy-, dibenzyl ester, hydrochloride, L-", "L-Lysine, N6-[(phenylmethoxy)carbonyl]-, phenylmethyl ester, monohydrochloride", "Lysine, N6-carboxy-, dibenzyl ester, hydrochloride", "N6-Carbobenzoxy-L-lysine benzyl ester hydrochloride", "NSC 88180", "(S)-Benzyl 2-amino-6-(((benzyloxy)carbonyl)amino)hexanoate hydrochloride"], "SMILES": "C(OC(C(CCCCNC(OCC1=CC=CC=C1)=O)N)=O)C2=CC=CC=C2.Cl", "physical_data": {"Molecular Weight": "", "Molecular Formula": "C21H26N2O4.ClH", "Melting Point": "139 \u00b0C"}}