{"cas_no": "63666-11-5", "cn_name": "5-\u6c28\u57fa-1H-1,2,4-\u4e09\u6c2e\u5511-3-\u7532\u9178\u4e59\u916f", "en_name": ["1H-1,2,4-Triazole-3-carboxylic acid, 5-amino-, ethyl ester", "1H-1,2,4-Triazole-3-carboxylic acid, 5-amino-, ethyl ester", "NSC 148474", "Ethyl 5-amino-1H-1,2,4-triazole-3-carboxylate", "Ethyl 2-amino-1,3,4-triazole-5-carboxylate", "Ethyl 5-amino-1,2,4-triazole-3-carboxylate"], "SMILES": "C(OCC)(=O)C1=NN=C(N)N1", "physical_data": {"Molecular Weight": "156.14", "Molecular Formula": "C5H8N4O2", "Melting Point": "242-243 \u00b0C"}}