{"cas_no": "63675-72-9", "cn_name": "\u5c3c\u7d22\u5730\u5e73", "en_name": ["Nisoldipine", "3,5-Pyridinedicarboxylic acid, 1,4-dihydro-2,6-dimethyl-4-(2-nitrophenyl)-, 3-methyl 5-(2-methylpropyl) ester", "3,5-Pyridinedicarboxylic acid, 1,4-dihydro-2,6-dimethyl-4-(2-nitrophenyl)-, methyl 2-methylpropyl ester", "BAY-k 5552", "Nisoldipine", "(\u00b1)-Nisoldipine", "(\u00b1)-BAY k 5552", "Nisoldipin", "Sular", "Zadipina", "Syscor", "Nisocor", "Baymycard", "Geomatrix 16E", "3-Methyl 5-(2-methylpropyl) 2,6-dimethyl-4-(2-nitrophenyl)-1,4-dihydropyridine-3,5-dicarboxylate", "3-O-Methyl 5-O-(2-methylpropyl) 2,6-dimethyl-4-(2-nitrophenyl)-1,4-dihydropyridine-3,5-dicarboxylate", "MeSH ID: D015737"], "SMILES": "C(OCC(C)C)(=O)C=1C(C(C(OC)=O)=C(C)NC1C)C2=C(N(=O)=O)C=CC=C2", "physical_data": {"Molecular Weight": "388.41", "Molecular Formula": "C20H24N2O6", "Melting Point": "151-152 \u00b0C"}}