{"cas_no": "6367-10-8", "cn_name": "(S)-2-\u4e59\u9170\u80fa\u57fa-6-\u6c28\u57fa-N-\u7532\u57fa\u5df1\u9170\u80fa", "en_name": ["(2S)-2-(Acetylamino)-6-amino-N-methylhexanamide", "Hexanamide, 2-(acetylamino)-6-amino-N-methyl-, (2S)-", "Hexanamide, 2-acetamido-6-amino-N-methyl-, L-", "Hexanamide, 2-(acetylamino)-6-amino-N-methyl-, (S)-", "(2S)-2-(Acetylamino)-6-amino-N-methylhexanamide", "N\u03b1-Acetyllysine methylamide", "N-Acetyl-N\u2032-methyllysylamide", "N-Acetyl-L-lysine methylamide", "N\u03b1-Acetyl-L-lysine-N-methylamide", "(2S)-2-Acetamido-6-amino-N-methylhexanamide", "Ac-Lys-NHMe"], "SMILES": "C(C(NC)=O)(NC(C)=O)CCCCN", "physical_data": {"Molecular Weight": "201.27", "Molecular Formula": "C9H19N3O2", "Melting Point": "166 \u00b0C"}}