{"cas_no": "63675-74-1", "cn_name": "6-\u7532\u6c27\u57fa-2-(4-\u7532\u6c27\u82ef\u57fa)\u82ef\u5e76\u567b\u5429", "en_name": ["6-Methoxy-2-(4-methoxyphenyl)benzo[b]thiophene", "Benzo[b]thiophene, 6-methoxy-2-(4-methoxyphenyl)-", "6-Methoxy-2-(4-methoxyphenyl)benzo[b]thiophene", "2-(4-Methoxyphenyl)-6-methoxybenzo[b]thiophene", "2-(4-Methoxyphenyl)-6-methoxybenzothiophene"], "SMILES": "O(C)C1=CC=C(C=2SC=3C(C2)=CC=C(OC)C3)C=C1", "physical_data": {"Molecular Weight": "270.35", "Molecular Formula": "C16H14O2S", "Melting Point": "193-195 \u00b0C"}}