{"cas_no": "63675-73-0", "cn_name": "4-\u7532\u6c27\u57fa-A-[(3-\u7532\u6c27\u57fa\u82ef\u57fa)\u786b]\u82ef\u4e59\u916e", "en_name": ["1-(4-Methoxyphenyl)-2-[(3-methoxyphenyl)thio]ethanone", "Ethanone, 1-(4-methoxyphenyl)-2-[(3-methoxyphenyl)thio]-", "1-(4-Methoxyphenyl)-2-[(3-methoxyphenyl)thio]ethanone", "2-(3-Methoxyphenylthio)-4\u2032-methoxyacetophenone", "1-(4-Methoxyphenyl)-2-(3-methoxyphenyl)sulfanylethanone", "1-(4-Methoxyphenyl)-2-[(3-methoxyphenyl)sulfanyl]ethan-1-one"], "SMILES": "S(CC(=O)C1=CC=C(OC)C=C1)C2=CC(OC)=CC=C2", "physical_data": {"Molecular Weight": "288.36", "Molecular Formula": "C16H16O3S", "Melting Point": "53-55.4 \u00b0C"}}