{"cas_no": "6368-20-3", "cn_name": "Boc-D-\u4e1d\u6c28\u9178", "en_name": ["N-[(1,1-Dimethylethoxy)carbonyl]-D-serine", "D-Serine, N-[(1,1-dimethylethoxy)carbonyl]-", "Serine, N-carboxy-, N-tert-butyl ester, D-", "N-[(1,1-Dimethylethoxy)carbonyl]-D-serine", "N-tert-Butoxycarbonyl-D-serine", "tert-(Butoxycarbonyl)-D-serine", "BOC-D-Serine", "(R)-2-(tert-Butoxycarbonylamino)-3-hydroxypropanoic acid", "N-Boc-D-serine", "(R)-2-(tert-Butoxycarbonylamino)-3-hydroxypropanoic acid", "(R)-tert-Butoxycarbonyl-D-serine", "(2R)-3-Hydroxy-2-[(2-methylpropan-2-yl)oxycarbonylamino]propanoic acid", "(2R)-2-[[(tert-Butoxy)carbonyl]amino]-3-hydroxypropanoic acid"], "SMILES": "C(NC(OC(C)(C)C)=O)(C(O)=O)CO", "physical_data": {"Molecular Weight": "205.21", "Molecular Formula": "C8H15NO5", "Melting Point": "50-52 \u00b0C"}}