{"cas_no": "637-61-6", "cn_name": "\u4e00(\u6c2f\u6c2e)\u918c", "en_name": ["Benzoquinone chlorimine", "2,5-Cyclohexadien-1-one, 4-(chloroimino)-", "p-Benzoquinone imine, N-chloro-", "4-(Chloroimino)-2,5-cyclohexadien-1-one", "N-Chloro-p-benzoquinonimine", "Quinone chlorimide", "p-Benzoquinone N-chloroimine", "Benzoquinone chlorimine", "NSC 448"], "SMILES": "N(Cl)=C1C=CC(=O)C=C1", "physical_data": {"Molecular Weight": "141.56", "Molecular Formula": "C6H4ClNO", "Melting Point": "85 \u00b0C"}}