{"cas_no": "637-97-8", "cn_name": "2-\u7898\u620a\u70f7", "en_name": ["2-Iodopentane", "Pentane, 2-iodo-", "2-Iodopentane", "(\u00b1)-2-Iodopentane", "NSC 7902", "1-Methylbutyl iodide"], "SMILES": "C(C(C)I)CC", "physical_data": {"Molecular Weight": "198.05", "Molecular Formula": "C5H11I", "Boiling Point": "150 \u00b0C", "Melting Point": "-50 \u00b0C", "Density": "1.3251 g/cm\u00b3 @ Temp: 20 \u00b0C"}}