{"cas_no": "637-64-9", "cn_name": "\u56db\u6c22\u7ce0\u9187\u4e59\u9178\u916f", "en_name": ["Tetrahydrofurfuryl acetate", "2-Furanmethanol, tetrahydro-, 2-acetate", "Furfuryl alcohol, tetrahydro-, acetate", "2-Furanmethanol, tetrahydro-, acetate", "Tetrahydrofurfuryl acetate", "2-(Acetoxymethyl)oxolane", "2-(Acetoxymethyl)tetrahydrofuran", "NSC 4872", "(Tetrahydrofuran-2-yl)methyl acetate", "(Oxolan-2-yl)methyl acetate"], "SMILES": "C(OC(C)=O)C1CCCO1", "physical_data": {"Molecular Weight": "144.17", "Molecular Formula": "C7H12O3", "Boiling Point": "193 \u00b0C", "Density": "1.0770 g/cm\u00b3 @ Temp: 23 \u00b0C"}}