{"cas_no": "637-44-5", "cn_name": "\u82ef\u4e19\u7094\u9178", "en_name": ["Phenylpropiolic acid", "2-Propynoic acid, 3-phenyl-", "Propiolic acid, phenyl-", "3-Phenyl-2-propynoic acid", "Phenylpropiolic acid", "3-Phenylpropiolic acid", "Phenylacetylenemonocarboxylic acid", "3-Phenylpropynoic acid", "Phenylpropynoic acid", "Phenylacetylenecarboxylic acid", "\u03b2-Phenylpropargylic acid", "3-Phenylpropargylic acid", "NSC 13669", "Phenyl-2-propynoic acid", "Phenylpropargylic acid", "Benzenepropynoic acid", "4-Phenylpropynoic acid"], "SMILES": "C(#CC(O)=O)C1=CC=CC=C1", "physical_data": {"Molecular Weight": "146.14", "Molecular Formula": "C9H6O2", "Melting Point": "138 \u00b0C"}}