{"cas_no": "637-03-6", "cn_name": "\u6c27\u5316\u82ef\u80c2", "en_name": ["Phenylarsine oxide", "Arsine, oxophenyl-", "Benzene, arsenoso-", "Oxophenylarsine", "Arsenosobenzene", "Arzene", "Phenylarsine oxide", "Phenylarsoxane", "NSC 42470"], "SMILES": "[As](=O)C1=CC=CC=C1", "physical_data": {"Molecular Weight": "168.02", "Molecular Formula": "C6H5AsO", "Melting Point": "145 \u00b0C"}}