{"cas_no": "637-69-4", "cn_name": "4-\u7532\u6c27\u57fa\u82ef\u4e59\u70ef", "en_name": ["4-Methoxystyrene", "Benzene, 1-ethenyl-4-methoxy-", "Anisole, p-vinyl-", "1-Ethenyl-4-methoxybenzene", "4-Methoxystyrene", "p-Vinylanisole", "p-Methoxystyrene", "p-Anisylethylene", "(4-Methoxyphenyl)ethylene", "1-Methoxy-4-vinylbenzene", "(4-Methoxyphenyl)ethene", "NSC 408326", "NSC 42171", "4-Methoxyvinylbenzene", "p-Methoxylstyrene", "4-Methoxystryrene", "4-Methoxystrene", "4-Vinylanisole", "4-Methoxy-1-ethenylbenzene"], "SMILES": "C(=C)C1=CC=C(OC)C=C1", "physical_data": {"Molecular Weight": "134.18", "Molecular Formula": "C9H10O", "Boiling Point": "205 \u00b0C", "Melting Point": "2 \u00b0C", "Density": "1.001 g/cm\u00b3 @ Temp: 18 \u00b0C"}}