{"cas_no": "637-90-1", "cn_name": "1,2-\u73af\u6c27\u57fa-5-\u73af\u8f9b\u70ef", "en_name": ["9-Oxabicyclo[6.1.0]non-4-ene", "9-Oxabicyclo[6.1.0]non-4-ene", "1,5-Cyclooctadiene monoepoxide", "5,6-Epoxy-1-cyclooctene", "1,2-Epoxy-5-cyclooctene", "NSC 61254", "1,5-Cyclooctadiene monoxide", "5,6-Epoxycyclooctene", "Cyclooctene monoepoxide"], "SMILES": "C12C(O1)CCC=CCC2", "physical_data": {"Molecular Weight": "124.18", "Molecular Formula": "C8H12O", "Boiling Point": "73-74 \u00b0C @ Press: 12 Torr"}}