{"cas_no": "637-54-7", "cn_name": "N-\u82ef\u5341\u516b\u91af\u80fa", "en_name": ["N-Phenyloctadecanamide", "Octadecanamide, N-phenyl-", "Stearanilide", "N-Phenyloctadecanamide", "Octadecananilide", "Stearic anilide", "Stearic acid anilide", "N-Phenylstearamide", "N-Phenylstearylamide", "Stearoyl anilide"], "SMILES": "N(C(CCCCCCCCCCCCCCCCC)=O)C1=CC=CC=C1", "physical_data": {"Molecular Weight": "359.59", "Molecular Formula": "C24H41NO", "Melting Point": "95.05 \u00b0C"}}