{"cas_no": "637-07-0", "cn_name": "\u6c2f\u8d1d\u7279", "en_name": ["Clofibrate", "Propanoic acid, 2-(4-chlorophenoxy)-2-methyl-, ethyl ester", "Propionic acid, 2-(p-chlorophenoxy)-2-methyl-, ethyl ester", "ICI 28257", "AY 61123", "Atromid S", "Clofibrate", "CPIB", "EPIB", "Ethyl 2-(p-chlorophenoxy)isobutyrate", "Ethyl 2-(p-chlorophenoxy)-2-methylpropionate", "Ethyl \u03b1-(4-chlorophenoxy)-\u03b1-methylpropionate", "Regelan", "Ethyl \u03b1-(4-chlorophenoxy)isobutyrate", "Ethyl \u03b1-(p-chlorophenoxy)isobutyrate", "Miscleron", "p-Chlorophenoxyisobutyric acid ethyl ester", "Ethyl 2-(4-chlorophenoxy)-2-methylpropionate", "Ethyl \u03b1-(p-chlorophenoxy)-\u03b1-methylpropionate", "Ethyl clofibrate", "2-(p-Chlorophenoxy)-2-methylpropionic acid ethyl ester", "Amotril", "Anparton", "Ateriosan", "Ateculon", "Atheropront", "Atromidin", "Recolip", "Serotinex", "Skleromexe", "Clobren SF", "Normet", "Claripex CPIB", "Lipavlon", "Neo-Atromid", "Hyclorate", "Lipomid", "Clofibrat", "Lipavil", "Azionyl", "Claripex", "Cartagyl", "Ethyl 2-(4-chlorophenoxy)isobutyrate", "Misclerone", "ECPIB", "Ethyl p-chlorophenoxyisobutyrate", "Bioscleran", "Liprinal", "Arteriosan", "Sklerepmexe", "Sklerolip", "Abitrate", "Ticlobran", "Artevil", "Sklero-Tablinene", "Clofinit", "Normolipol", "Xyduril", "Apolan", "NSC 79389", "2-(4-Chlorophenoxy)isobutyric acid ethyl ester", "Ethyl 2-(4-chlorophenoxy)-2-methylpropanoate", "MeSH ID: D002994"], "SMILES": "O(C(C(OCC)=O)(C)C)C1=CC=C(Cl)C=C1", "physical_data": {"Molecular Weight": "242.70", "Molecular Formula": "C12H15ClO3", "Boiling Point": "148-150 \u00b0C @ Press: 20 Torr", "Melting Point": "&lt;25 \u00b0C", "Density": "1.138-1.144 g/cm\u00b3 @ Temp: 20 \u00b0C"}}