{"cas_no": "637-56-9", "cn_name": "\u5bf9\u6c28\u57fa\u82ef\u4e59\u919a\u76d0\u9178\u76d0", "en_name": ["Benzenamine, 4-ethoxy-, hydrochloride (1:1)", "Benzenamine, 4-ethoxy-, hydrochloride (1:1)", "p-Phenetidine, hydrochloride", "Benzenamine, 4-ethoxy-, hydrochloride", "Phenetidine hydrochloride", "4-Ethoxyaniline hydrochloride", "4-Ethoxyanilinium chloride"], "SMILES": "O(CC)C1=CC=C(N)C=C1.Cl", "physical_data": {"Molecular Weight": "", "Molecular Formula": "C8H11NO.ClH", "Melting Point": "234.5-235.0 \u00b0C"}}