{"cas_no": "637-96-7", "cn_name": "\u76d0\u9178\u808c\u6c28\u9178", "en_name": ["Glycine, N-methyl-, hydrochloride (1:1)", "Glycine, N-methyl-, hydrochloride (1:1)", "Sarcosine, hydrochloride", "Glycine, N-methyl-, hydrochloride", "N-Methylglycine hydrochloride", "2-(Methylamino)acetic acid hydrochloride"], "SMILES": "C(C(O)=O)NC.Cl", "physical_data": {"Molecular Weight": "", "Molecular Formula": "C3H7NO2.ClH", "Melting Point": "168-169 \u00b0C", "Density": "1.48 g/cm\u00b3"}}