{"cas_no": "637-21-8", "cn_name": "\u76d0\u9178\u540e\u9a6c\u6258\u54c1", "en_name": ["Homatropine hydrochloride", "Benzeneacetic acid, \u03b1-hydroxy-, (3-endo)-8-methyl-8-azabicyclo[3.2.1]oct-3-yl ester, hydrochloride (1:1)", "1\u03b1H,5\u03b1H-Tropan-3\u03b1-ol, mandelate (ester), hydrochloride", "Homatropine hydrochloride", "Benzeneacetic acid, \u03b1-hydroxy-, 8-methyl-8-azabicyclo[3.2.1]oct-3-yl ester, hydrochloride, endo-(\u00b1)-", "Benzeneacetic acid, \u03b1-hydroxy-, (3-endo)-8-methyl-8-azabicyclo[3.2.1]oct-3-yl ester, hydrochloride", "Benzeneacetic acid, \u03b1-hydroxy-, 8-methyl-8-azabicyclo[3.2.1]oct-3-yl ester, hydrochloride, endo-"], "SMILES": "O(C(C(O)C1=CC=CC=C1)=O)C2CC3N(C)C(C2)CC3.Cl", "physical_data": {"Molecular Weight": "", "Molecular Formula": "C16H21NO3.ClH", "Melting Point": "192 \u00b0C"}}