{"cas_no": "637-31-0", "cn_name": "\u5bbe\u96ea\u5fb7\u62c9\u6c0f\u7eff\u9690\u8272\u78b1", "en_name": ["4,4\u2032-Bis(dimethylamino)diphenylamine", "1,4-Benzenediamine, N4-[4-(dimethylamino)phenyl]-N1,N1-dimethyl-", "Diphenylamine, 4,4\u2032-bis(dimethylamino)-", "1,4-Benzenediamine, N\u2032-[4-(dimethylamino)phenyl]-N,N-dimethyl-", "N4-[4-(Dimethylamino)phenyl]-N1,N1-dimethyl-1,4-benzenediamine", "C.I. 76125", "Bindschedler's green leuco base", "4,4\u2032-Bis(dimethylamino)diphenylamine", "Bis[4-(dimethylamino)phenyl]amine", "NSC 56921", "N,N-Bis(4-dimethylaminophenyl)amine", "N1-(4-(Dimethylamino)phenyl)-N4,N4-dimethylbenzene-1,4-diamine", "1-N-[4-(Dimethylamino)phenyl]-4-N,4-N-dimethylbenzene-1,4-diamine"], "SMILES": "N(C1=CC=C(N(C)C)C=C1)C2=CC=C(N(C)C)C=C2", "physical_data": {"Molecular Weight": "255.36", "Molecular Formula": "C16H21N3", "Melting Point": "115-116 \u00b0C"}}