{"cas_no": "637-59-2", "cn_name": "1-\u6eb4-3-\u82ef\u57fa\u4e19\u70f7", "en_name": ["1-Bromo-3-phenylpropane", "Benzene, (3-bromopropyl)-", "(3-Bromopropyl)benzene", "(\u03b3-Bromopropyl)benzene", "1-Bromo-3-phenylpropane", "3-Phenylpropyl bromide", "3-Bromo-1-phenylpropane", "1-Phenyl-3-bromopropane", "3-Phenyl-1-bromopropane", "NSC 133438"], "SMILES": "C(CCBr)C1=CC=CC=C1", "physical_data": {"Molecular Weight": "199.09", "Molecular Formula": "C9H11Br", "Boiling Point": "219.5 \u00b0C", "Melting Point": "95.7-96.8 \u00b0C", "Density": "1.3106 g/cm\u00b3 @ Temp: 25 \u00b0C"}}