{"cas_no": "637-12-7", "cn_name": "\u786c\u8102\u9178\u94dd", "en_name": ["Aluminum stearate", "Octadecanoic acid, aluminum salt (3:1)", "Aluminum stearate", "Stearic acid, aluminum salt", "Octadecanoic acid, aluminum salt", "Metasap XX", "Tribasic aluminum stearate", "Rofob 3", "Aluminum stearate (1:3)", "Alugel 34TN", "Aluminium stearate", "SA 1500", "Aluminum tristearate", "Aluminum(III) stearate", "SA 1000", "Alugel 44M", "Thompson's Water Seal", "Alugel 30DF", "SA 2000", "SA 100", "SA 100 (stearate)", "Daiwax WA 1", "Arusute 30", "Liga TR", "Aluminum Stearate 900", "Alugel 34TH", "SA 1500 (stearate)", "AL 103", "Aluminum Tristearate 900", "M 132HG", "AL 900"], "SMILES": "C(CCCCCCCCCCC)CCCCCC(O)=O.[Al]", "physical_data": {"Molecular Weight": "", "Molecular Formula": "C18H36O2.<sup>1</sup>/3Al", "Melting Point": "118 \u00b0C", "Density": "1.070 g/cm\u00b3"}}