{"cas_no": "637-39-8", "cn_name": "\u4e09\u4e59\u9187\u80fa\u76d0\u9178\u76d0", "en_name": ["Triethanolamine hydrochloride", "Ethanol, 2,2\u2032,2\u2032\u2032-nitrilotris-, hydrochloride (1:1)", "Ethanol, 2,2\u2032,2\u2032\u2032-nitrilotri-, hydrochloride", "Ethanol, 2,2\u2032,2\u2032\u2032-nitrilotris-, hydrochloride", "Triethanolamine hydrochloride", "Triethanolammonium chloride", "2-[Bis(2-hydroxyethyl)amino]ethanol hydrochloride", "Tris(2-hydroxyethyl)amine hydrochloride", "Triethanolamine hydrochloric acid salt", "Tris(2-hydroxyethyl)ammonium chloride"], "SMILES": "N(CCO)(CCO)CCO.Cl", "physical_data": {"Molecular Weight": "", "Molecular Formula": "C6H15NO3.ClH", "Melting Point": "177 \u00b0C"}}