{"cas_no": "637-58-1", "cn_name": "\u76d0\u9178\u666e\u83ab\u5361\u56e0", "en_name": ["Pramoxine hydrochloride", "Morpholine, 4-[3-(4-butoxyphenoxy)propyl]-, hydrochloride (1:1)", "Morpholine, 4-[3-(p-butoxyphenoxy)propyl]-, hydrochloride", "Pramoxine hydrochloride", "Morpholine, 4-[3-(4-butoxyphenoxy)propyl]-, hydrochloride", "4-[3-(p-Butoxyphenoxy)propyl]morpholine hydrochloride", "Tronothane hydrochloride", "Pramocaine hydrochloride", "Proctofoam", "Tronothan", "Tronothane", "Tronolaine", "Pramacort"], "SMILES": "O(CCCN1CCOCC1)C2=CC=C(OCCCC)C=C2.Cl", "physical_data": {"Molecular Weight": "", "Molecular Formula": "C17H27NO3.ClH", "Melting Point": "181-183 \u00b0C"}}