{"cas_no": "637-81-0", "cn_name": "\u53e0\u6c2e\u4e59\u9178\u4e59\u916f", "en_name": ["Ethyl azidoacetate", "Acetic acid, 2-azido-, ethyl ester", "Acetic acid, azido-, ethyl ester", "Ethyl azidoacetate", "Ethyl \u03b1-azidoacetate", "(Ethoxycarbonyl)methyl azide", "Ethyl 2-azidoacetate", "Azidoacetic acid ethyl ester", "NSC 84132", "2-Azidoacetate ethyl ester"], "SMILES": "C(CN=[N+]=[N-])(OCC)=O", "physical_data": {"Molecular Weight": "", "Molecular Formula": "C4H7N3O2", "Boiling Point": "74-75 \u00b0C @ Press: 23 Torr", "Density": "1.1181 g/cm\u00b3 @ Temp: 25 \u00b0C"}}