{"cas_no": "637-87-6", "cn_name": "\u5bf9\u6c2f\u7898\u82ef", "en_name": ["1-Chloro-4-iodobenzene", "Benzene, 1-chloro-4-iodo-", "1-Chloro-4-iodobenzene", "p-Chloroiodobenzene", "p-Iodochlorobenzene", "4-Chloroiodobenzene", "4-Iodochlorobenzene", "4-Chloro-1-iodobenzene", "p-Iodophenyl chloride", "p-Chlorophenyl iodide", "4-Chlorophenyl iodide", "NSC 32862", "4-Iodo-1-chlorobenzene"], "SMILES": "ClC1=CC=C(I)C=C1", "physical_data": {"Molecular Weight": "238.45", "Molecular Formula": "C6H4ClI", "Boiling Point": "227 \u00b0C", "Melting Point": "57 \u00b0C"}}