{"cas_no": "637-78-5", "cn_name": "\u4e19\u9178\u5f02\u4e19\u916f", "en_name": ["Isopropyl propionate", "Propanoic acid, 1-methylethyl ester", "Propionic acid, isopropyl ester", "Isopropyl propionate", "iso-Propyl propionate", "1-Methylethyl propanoate", "2-Propyl propionate", "2-Propyl propanoate"], "SMILES": "C(OC(C)C)(CC)=O", "physical_data": {"Molecular Weight": "116.16", "Molecular Formula": "C6H12O2", "Boiling Point": "109.5 \u00b0C"}}