{"cas_no": "637-88-7", "cn_name": "1,4-\u73af\u5df1\u4e8c\u916e", "en_name": ["1,4-Cyclohexanedione", "1,4-Cyclohexanedione", "Tetrahydroquinone", "1,4-Dioxocyclohexane", "1,4-Cyclohexadione", "NSC 7192", "Cyclohexan-1,4-dione"], "SMILES": "O=C1CCC(=O)CC1", "physical_data": {"Molecular Weight": "112.13", "Molecular Formula": "C6H8O2", "Boiling Point": "212-213 \u00b0C", "Melting Point": "78 \u00b0C", "Density": "0.9165 g/cm\u00b3 @ Temp: 20 \u00b0C"}}