{"cas_no": "637-50-3", "cn_name": "\u53cd-\u03b2-\u7532\u57fa\u82ef\u4e59\u70ef", "en_name": ["\u03b2-Methylstyrene", "Benzene, 1-propen-1-yl-", "Benzene, propenyl-", "Benzene, 1-propenyl-", "1-Propen-1-ylbenzene", "1-Propene, 1-phenyl-", "\u03b2-Methylstyrene", "1-Propenylbenzene", "1-Phenylpropene", "\u03c9-Methylstyrene", "Isoallylbenzene", "\u03b2-Methylstyrol", "1-Methyl-2-phenylethene", "NSC 65591"], "SMILES": "C(=CC)C1=CC=CC=C1", "physical_data": {"Molecular Weight": "118.18", "Molecular Formula": "C9H10", "Boiling Point": "175.5 \u00b0C", "Melting Point": "-27.3 \u00b0C", "Density": "0.9019 g/cm\u00b3 @ Temp: 25 \u00b0C"}}