{"cas_no": "637-92-3", "cn_name": "\u53d4\u4e01\u57fa\u4e59\u919a", "en_name": ["Ethyl tert-butyl ether", "Propane, 2-ethoxy-2-methyl-", "Ether, tert-butyl ethyl", "2-Ethoxy-2-methylpropane", "tert-Butyl ethyl ether", "Ethyl tert-butyl oxide", "Ethyl 1,1-dimethylethyl ether", "1,1-Dimethylethyl ethyl ether", "Ethyl tert-butyl ether", "NSC 1069"], "SMILES": "O(C(C)(C)C)CC", "physical_data": {"Molecular Weight": "102.17", "Molecular Formula": "C6H14O", "Boiling Point": "73.1 \u00b0C", "Melting Point": "-94 \u00b0C", "Density": "0.7404 g/cm\u00b3 @ Temp: 20 \u00b0C"}}