{"cas_no": "637-04-7", "cn_name": "3-\u7532\u57fa\u82ef\u80bc\u76d0\u9178\u76d0", "en_name": ["Hydrazine, (3-methylphenyl)-, hydrochloride (1:1)", "Hydrazine, (3-methylphenyl)-, hydrochloride (1:1)", "Hydrazine, m-tolyl-, hydrochloride", "Hydrazine, (3-methylphenyl)-, monohydrochloride", "m-Tolylhydrazine hydrochloride", "N-(3-Methylphenyl)hydrazine hydrochloride", "m-Methylphenylhydrazine hydrochloride", "(3-Methylphenyl)hydrazine monohydrochloride", "3-Tolylhydrazine hydrochloride", "(3-Methylphenyl)hydrazine hydrochloride", "1-(3-Methylphenyl)hydrazine hydrochloride", "2-(3-Methylphenyl)hydrazinium chloride"], "SMILES": "N(N)C1=CC(C)=CC=C1.Cl", "physical_data": {"Molecular Weight": "", "Molecular Formula": "C7H10N2.ClH", "Melting Point": "190-193 \u00b0C"}}