{"cas_no": "637-32-1", "cn_name": "\u5409\u975e\u7f57\u9f50\u6742\u8d28A", "en_name": ["Proguanil hydrochloride", "Imidodicarbonimidic diamide, N-(4-chlorophenyl)-N\u2032-(1-methylethyl)-, hydrochloride (1:1)", "Biguanide, 1-(p-chlorophenyl)-5-isopropyl-, monohydrochloride", "Imidodicarbonimidic diamide, N-(4-chlorophenyl)-N\u2032-(1-methylethyl)-, monohydrochloride", "3359 RP", "M 4888", "SN 12,837", "Chloroguanide hydrochloride", "1-(p-Chlorophenyl)-5-isopropylbiguanide hydrochloride", "Diguanyl", "Drinupal hydrochloride", "Guanatol hydrochloride", "Paludrine hydrochloride", "Palusil hydrochloride", "Proguanil hydrochloride", "Tirian hydrochloride", "Paludrine", "Chloroquanil", "Tirian", "Drinupal", "SN 12837", "Palusil", "RP 3359", "Guanatol", "1-[N\u2032-(4-Chlorophenyl)carbamimidamido]-N-(propan-2-yl)methanimidamide hydrochloride"], "SMILES": "N(C(NC(NC(C)C)=N)=N)C1=CC=C(Cl)C=C1.Cl", "physical_data": {"Molecular Weight": "", "Molecular Formula": "C11H16ClN5.ClH", "Melting Point": "243-244 \u00b0C"}}