{"cas_no": "637-65-0", "cn_name": "\u56db\u6c22\u7ce0\u9187\u4e19\u9178\u916f", "en_name": ["Tetrahydrofurfuryl propionate", "2-Furanmethanol, tetrahydro-, 2-propanoate", "Furfuryl alcohol, tetrahydro-, propionate", "2-Furanmethanol, tetrahydro-, propanoate", "Propionic acid, tetrahydrofurfuryl ester", "Tetrahydrofurfuryl propionate", "ENT 4296", "(Oxolan-2-yl)methyl propanoate", "(Tetrahydrofuran-2-yl)methylpropionate"], "SMILES": "C(OC(CC)=O)C1CCCO1", "physical_data": {"Molecular Weight": "158.20", "Molecular Formula": "C8H14O3", "Boiling Point": "205.5 \u00b0C"}}