{"cas_no": "637-60-5", "cn_name": "4-\u7532\u57fa\u82ef\u80bc\u76d0\u9178\u76d0", "en_name": ["4-Methylphenylhydrazine hydrochloride", "Hydrazine, (4-methylphenyl)-, hydrochloride (1:1)", "Hydrazine, p-tolyl-, monohydrochloride", "Hydrazine, (4-methylphenyl)-, monohydrochloride", "Hydrazine, p-tolyl-, hydrochloride", "p-Tolylhydrazine hydrochloride", "4-Methylphenylhydrazine hydrochloride", "N-(4-Methylphenyl)hydrazine hydrochloride", "p-Methylphenylhydrazine hydrochloride", "(4-Methylphenyl)hydrazine monohydrochloride", "4-Tolylhydrazine monohydrochloride", "4-Tolylhydrazine hydrochloride", "1-(4-Methylphenyl)hydrazine hydrochloride", "2-(4-Methylphenyl)hydrazinium chloride"], "SMILES": "N(N)C1=CC=C(C)C=C1.Cl", "physical_data": {"Molecular Weight": "", "Molecular Formula": "C7H10N2.ClH", "Melting Point": "155-160 \u00b0C"}}