{"cas_no": "637-53-6", "cn_name": "\u786b\u4ee3\u4e59\u9170\u82ef\u80fa", "en_name": ["N-Phenylethanethioamide", "Ethanethioamide, N-phenyl-", "Acetanilide, thio-", "N-Phenylethanethioamide", "Thioacetanilide", "N-Phenylthioacetamide", "NSC 36984"], "SMILES": "N(C(C)=S)C1=CC=CC=C1", "physical_data": {"Molecular Weight": "151.23", "Molecular Formula": "C8H9NS", "Melting Point": "76-79 \u00b0C"}}