{"cas_no": "637-27-4", "cn_name": "\u82ef\u4e19\u9178\u53bb\u7532\u777e\u916e", "en_name": ["Phenyl propionate", "Propanoic acid, phenyl ester", "Propionic acid, phenyl ester", "Phenyl propionate", "Phenyl propanoate", "Phenol propionate", "NSC 67977"], "SMILES": "O(C(CC)=O)C1=CC=CC=C1", "physical_data": {"Molecular Weight": "150.17", "Molecular Formula": "C9H10O2", "Boiling Point": "211 \u00b0C", "Melting Point": "20 \u00b0C"}}