{"cas_no": "637-55-8", "cn_name": "\u786c\u8102\u9178\u82ef\u916f", "en_name": ["Octadecanoic acid, phenyl ester", "Octadecanoic acid, phenyl ester", "Stearic acid, phenyl ester", "Phenyl stearate", "Phenyl octadecanoate", "NSC 57588"], "SMILES": "O(C(CCCCCCCCCCCCCCCCC)=O)C1=CC=CC=C1", "physical_data": {"Molecular Weight": "360.57", "Molecular Formula": "C24H40O2", "Boiling Point": "200-205 \u00b0C @ Press: 2 Torr", "Melting Point": "52 \u00b0C"}}