{"cas_no": "637-89-8", "cn_name": "4-\u7f9f\u57fa\u82ef\u786b\u915a", "en_name": ["4-Mercaptophenol", "Phenol, 4-mercapto-", "Phenol, p-mercapto-", "4-Mercaptophenol", "p-Mercaptophenol", "Thiohydroquinone", "4-Hydroxybenzenethiol", "4-Hydroxythiophenol", "p-Hydroxythiophenol", "p-Hydroxybenzenethiol", "Monothiohydroquinone", "NSC 46192", "4-Merpcatophenol", "4-Sulfanylphenol"], "SMILES": "OC1=CC=C(S)C=C1", "physical_data": {"Molecular Weight": "126.18", "Molecular Formula": "C6H6OS", "Boiling Point": "144-146 \u00b0C @ Press: 20 Torr", "Melting Point": "29.5 \u00b0C"}}