{"cas_no": "63701-55-3", "cn_name": "R(+)-\u5df4\u6c2f\u82ac\u76d0\u9178\u76d0", "en_name": ["Benzenepropanoic acid, \u03b2-(aminomethyl)-4-chloro-, hydrochloride (1:1), (\u03b2R)-", "Benzenepropanoic acid, \u03b2-(aminomethyl)-4-chloro-, hydrochloride (1:1), (\u03b2R)-", "Benzenepropanoic acid, \u03b2-(aminomethyl)-4-chloro-, hydrochloride, (R)-", "Benzenepropanoic acid, \u03b2-(aminomethyl)-4-chloro-, hydrochloride, (\u03b2R)-", "d-Baclofen hydrochloride", "(+)-Baclofen hydrochloride", "(R)-Baclofen monohydrochloride", "R-Baclofen hydrochloride", "(R)-4-Amino-3-(4-chlorophenyl)butyric acid hydrochloride", "(R)-4-Amino-3-(4-chlorophenyl)butanoic acid hydrochloride"], "SMILES": "C(CC(O)=O)(CN)C1=CC=C(Cl)C=C1.Cl", "physical_data": {"Molecular Weight": "", "Molecular Formula": "C10H12ClNO2.ClH", "Melting Point": "194-195 \u00b0C"}}