{"cas_no": "637031-88-0", "cn_name": "3,3-\u4e8c\u6c1f\u73af\u4e01\u9187", "en_name": ["3,3-Difluorocyclobutanol", "Cyclobutanol, 3,3-difluoro-", "3,3-Difluorocyclobutanol", "3,3-Difluorocyclobutan-1-ol"], "SMILES": "FC1(F)CC(O)C1", "physical_data": {"Molecular Weight": "108.09", "Molecular Formula": "C4H6F2O", "Boiling Point": "84-86 \u00b0C @ Press: 300 mmHg"}}