{"cas_no": "6372-40-3", "cn_name": "\u5f02\u4e19\u57fa\u8054\u82ef\u81a6", "en_name": ["(1-Methylethyl)diphenylphosphine", "Phosphine, (1-methylethyl)diphenyl-", "Phosphine, isopropyldiphenyl-", "(1-Methylethyl)diphenylphosphine", "Isopropyldiphenylphosphine", "Diphenylisopropylphosphine", "NSC 244305"], "SMILES": "P(C(C)C)(C1=CC=CC=C1)C2=CC=CC=C2", "physical_data": {"Molecular Weight": "228.27", "Molecular Formula": "C15H17P", "Boiling Point": "165 \u00b0C @ Press: 11 Torr", "Melting Point": "33 \u00b0C"}}