{"cas_no": "63721-05-1", "cn_name": "\u8d32\u4ead\u9178\u7532\u916f", "en_name": ["4-Pentenoic acid, 3,3-dimethyl-, methyl ester", "4-Pentenoic acid, 3,3-dimethyl-, methyl ester", "Methyl 3,3-dimethyl-4-pentenoate", "3,3-Dimethyl-4-pentenoic acid methyl ester", "D 2153", "Methyl 3,3-dimethyl-1-pentenoate"], "SMILES": "C(CC(OC)=O)(C=C)(C)C", "physical_data": {"Molecular Weight": "142.20", "Molecular Formula": "C8H14O2", "Boiling Point": "59 \u00b0C @ Press: 33 Torr"}}