{"cas_no": "6372-42-5", "cn_name": "\u4e8c\u82ef\u57fa\u73af\u5df1\u57fa\u81a6", "en_name": ["Cyclohexyldiphenylphosphine", "Phosphine, cyclohexyldiphenyl-", "Cyclohexyldiphenylphosphine", "Diphenylcyclohexylphosphine"], "SMILES": "P(C1CCCCC1)(C2=CC=CC=C2)C3=CC=CC=C3", "physical_data": {"Molecular Weight": "268.33", "Molecular Formula": "C18H21P", "Melting Point": "93-94 \u00b0C"}}