{"cas_no": "6373-93-9", "cn_name": "\u5206\u6563\u7ea258", "en_name": ["Disperse Red 58", "Ethanol, 2,2\u2032-[[4-[2-(6-methoxy-2-benzothiazolyl)diazenyl]phenyl]imino]bis-", "C.I. Disperse Red 58", "Ethanol, 2,2\u2032-[[4-[(6-methoxy-2-benzothiazolyl)azo]phenyl]imino]bis-", "2,2\u2032-[[4-[2-(6-Methoxy-2-benzothiazolyl)diazenyl]phenyl]imino]bis[ethanol]", "C.I. 11135", "Celliton Discharge Pink BRF", "Miketon Fast Pink FR", "Miketon Polyester Pink FR", "Disperse Red 58", "C.I. 11136", "C.I. Disperse Red 64", "C.I. Disperse Red 49"], "SMILES": "N(=NC1=CC=C(N(CCO)CCO)C=C1)C=2SC=3C(N2)=CC=C(OC)C3", "physical_data": {"Molecular Weight": "372.44", "Molecular Formula": "C18H20N4O3S", "Melting Point": "216-218 \u00b0C"}}