{"cas_no": "6373-73-5", "cn_name": "\u5206\u6563\u9ec49", "en_name": ["Disperse Yellow 9", "1,4-Benzenediamine, N1-(2,4-dinitrophenyl)-", "p-Phenylenediamine, N-(2,4-dinitrophenyl)-", "1,4-Benzenediamine, N-(2,4-dinitrophenyl)-", "N1-(2,4-Dinitrophenyl)-1,4-benzenediamine", "C.I. 10375", "C.I. Solvent Orange 53", "2,4-Dinitro-4\u2032-aminodiphenylamine", "Seriplas Yellow PL", "Serisol Fast Yellow PL", "SRA Golden Yellow IX", "Supracet Yellow 5RD", "C.I. Disperse Yellow 9", "4-Amino-2\u2032,4\u2032-dinitrodiphenylamine", "N-(2,4-Dinitrophenyl)-1,4-phenylenediamine", "Serisol Fast Yellow PL 150", "Solvent Orange 53", "Disperse Yellow 9", "NSC 60560", "1-N-(2,4-Dinitrophenyl)benzene-1,4-diamine"], "SMILES": "N(=O)(=O)C1=C(NC2=CC=C(N)C=C2)C=CC(N(=O)=O)=C1", "physical_data": {"Molecular Weight": "274.23", "Molecular Formula": "C12H10N4O4", "Melting Point": "188 \u00b0C"}}