{"cas_no": "6373-46-2", "cn_name": "4-\u82c4\u6c27\u57fa\u82ef\u80fa", "en_name": ["4-(Phenylmethoxy)benzenamine", "Benzenamine, 4-(phenylmethoxy)-", "Aniline, p-(benzyloxy)-", "4-(Phenylmethoxy)benzenamine", "p-(Benzyloxy)aniline", "4-Aminophenyl benzyl ether", "p-Aminophenyl benzyl ether", "NSC 59995", "4-(Phenylmethoxy)aniline", "4-Benzyloxyphenylamine", "4-(Benzyloxy)benzenamine", "4-(Benzyloxy)aniline"], "SMILES": "O(CC1=CC=CC=C1)C2=CC=C(N)C=C2", "physical_data": {"Molecular Weight": "199.25", "Molecular Formula": "C13H13NO", "Boiling Point": "161-164 \u00b0C @ Press: 0.25 Torr", "Melting Point": "54-55 \u00b0C"}}