{"cas_no": "6373-50-8", "cn_name": "4-\u73af\u5df1\u82ef\u80fa", "en_name": ["4-Cyclohexylbenzenamine", "Benzenamine, 4-cyclohexyl-", "Aniline, p-cyclohexyl-", "4-Cyclohexylbenzenamine", "p-Cyclohexylaniline", "4-Cyclohexylaniline", "(4-Cyclohexylphenyl)amine", "(p-Cyclohexylphenyl)amine"], "SMILES": "NC1=CC=C(C=C1)C2CCCCC2", "physical_data": {"Molecular Weight": "175.27", "Molecular Formula": "C12H17N", "Boiling Point": "166 \u00b0C", "Melting Point": "53-56 \u00b0C"}}