{"cas_no": "6374-92-1", "cn_name": "5,7-\u4e8c\u6c2f-1H-\u5432\u54da-2,3-\u4e8c\u916e", "en_name": ["5,7-Dichloroisatin", "1H-Indole-2,3-dione, 5,7-dichloro-", "Indole-2,3-dione, 5,7-dichloro-", "Isatin, 5,7-dichloro-", "5,7-Dichloro-1H-indole-2,3-dione", "5,7-Dichloroisatin", "NSC 26045"], "SMILES": "ClC1=C2C(C(=O)C(=O)N2)=CC(Cl)=C1", "physical_data": {"Molecular Weight": "216.02", "Molecular Formula": "C8H3Cl2NO2", "Melting Point": "313 \u00b0C"}}