{"cas_no": "63746-12-3", "cn_name": "4-\u6c28\u57fa\u95f4\u82ef\u4e8c\u7532\u9178\u4e8c\u7532\u916f", "en_name": ["1,3-Benzenedicarboxylic acid, 4-amino-, 1,3-dimethyl ester", "1,3-Benzenedicarboxylic acid, 4-amino-, 1,3-dimethyl ester", "1,3-Benzenedicarboxylic acid, 4-amino-, dimethyl ester", "Dimethyl 4-aminoisophthalate", "Dimethyl 4-aminobenzene-1,3-dicarboxylate", "1,3-Dimethyl 4-aminobenzene-1,3-dicarboxylate"], "SMILES": "C(OC)(=O)C1=CC(C(OC)=O)=CC=C1N", "physical_data": {"Molecular Weight": "209.20", "Molecular Formula": "C10H11NO4", "Melting Point": "120-123 \u00b0C"}}