{"cas_no": "6374-91-0", "cn_name": "5,7-\u4e8c\u6eb4\u975b\u7ea2", "en_name": ["5,7-Dibromoisatin", "1H-Indole-2,3-dione, 5,7-dibromo-", "Indole-2,3-dione, 5,7-dibromo-", "Isatin, 5,7-dibromo-", "5,7-Dibromo-1H-indole-2,3-dione", "5,7-Dibromoisatin", "SCR 0009418"], "SMILES": "BrC1=C2C(C(=O)C(=O)N2)=CC(Br)=C1", "physical_data": {"Molecular Weight": "304.92", "Molecular Formula": "C8H3Br2NO2", "Melting Point": "253 \u00b0C"}}