{"cas_no": "6375-27-5", "cn_name": "\u4e59\u9170\u4e59\u9170-2,5-\u4e8c\u7532\u6c27\u57fa\u82ef\u80fa", "en_name": ["N-(2,5-Dimethoxyphenyl)-3-oxobutanamide", "Butanamide, N-(2,5-dimethoxyphenyl)-3-oxo-", "Acetoacetanilide, 2\u2032,5\u2032-dimethoxy-", "N-(2,5-Dimethoxyphenyl)-3-oxobutanamide", "2\u2032,5\u2032-Dimethoxyacetoacetanilide", "Acetoacetyl 2,5-dimethoxyanilide", "NSC 50634"], "SMILES": "N(C(CC(C)=O)=O)C1=C(OC)C=CC(OC)=C1", "physical_data": {"Molecular Weight": "237.25", "Molecular Formula": "C12H15NO4", "Melting Point": "67-68 \u00b0C"}}