{"cas_no": "6375-46-8", "cn_name": "3-(N,N-\u4e8c\u4e59\u57fa)\u6c28\u57fa\u4e59\u9170\u82ef\u80fa", "en_name": ["N-[3-(Diethylamino)phenyl]acetamide", "Acetamide, N-[3-(diethylamino)phenyl]-", "Acetanilide, 3\u2032-(diethylamino)-", "N-[3-(Diethylamino)phenyl]acetamide", "3\u2032-(Diethylamino)acetanilide", "(m-Acetamidophenyl)diethylamine", "3-(Acetylamino)-N,N-diethylaniline", "C.I. Developer 9", "Serisol Navy Blue Developer RD", "N-Acetyl-N\u2032,N\u2032-diethyl-1,3-benzenediamine", "N,N-Diethyl-m-aminoacetanilide", "3-Acetamido-N,N-diethylaniline", "m-Acetamido-N,N-diethylaniline", "N-Acetyl-N\u2032,N\u2032-diethyl-1,3-phenylenediamine", "3-(Diethylamino)acetanilide", "3-(N,N-Diethylamino)acetanilide", "m-(Diethylamino)acetanilide", "N-(3-Diethylaminophenyl)acetamide", "N,N-Diethyl-m-acetaminoaniline"], "SMILES": "N(CC)(CC)C1=CC(NC(C)=O)=CC=C1", "physical_data": {"Molecular Weight": "206.28", "Molecular Formula": "C12H18N2O", "Melting Point": "77-79 \u00b0C"}}