{"cas_no": "6375-17-3", "cn_name": "\u90bb\u4e59\u9170\u6c28\u57fa\u5bf9\u7532\u57fa\u82ef\u915a", "en_name": ["N-(2-Hydroxy-5-methylphenyl)acetamide", "Acetamide, N-(2-hydroxy-5-methylphenyl)-", "m-Acetotoluidide, 6\u2032-hydroxy-", "N-(2-Hydroxy-5-methylphenyl)acetamide", "2\u2032-Hydroxy-5\u2032-methylacetanilide", "4-Methyl-6-acetamidophenol", "NSC 158415", "2-Acetylamino-p-cresol", "2-Acetamido-4-methylphenol"], "SMILES": "N(C(C)=O)C1=C(O)C=CC(C)=C1", "physical_data": {"Molecular Weight": "165.19", "Molecular Formula": "C9H11NO2", "Melting Point": "189 \u00b0C"}}