{"cas_no": "63754-96-1", "cn_name": "6-\u6c1f-2(3\u6c22)\u82ef\u567b\u5511\u916e", "en_name": ["6-Fluoro-2(3H)-benzothiazolone", "2(3H)-Benzothiazolone, 6-fluoro-", "6-Fluoro-2(3H)-benzothiazolone", "6-Fluorobenzothiazolin-2-one", "6-Fluoro-1,3-benzothiazol-2(3H)-one"], "SMILES": "O=C1NC=2C(S1)=CC(F)=CC2", "physical_data": {"Molecular Weight": "169.18", "Molecular Formula": "C7H4FNOS", "Melting Point": "188.4 \u00b0C"}}