{"cas_no": "6375-47-9", "cn_name": "3-\u6c28\u57fa-4-\u7532\u6c27\u57fa\u4e59\u9170\u82ef\u80fa", "en_name": ["N-(3-Amino-4-methoxyphenyl)acetamide", "Acetamide, N-(3-amino-4-methoxyphenyl)-", "p-Acetanisidide, 3\u2032-amino-", "N-(3-Amino-4-methoxyphenyl)acetamide", "2-Amino-4-(acetylamino)anisole", "1-Methoxy-4-(N-acetylamino)-2-aminobenzene", "2-Methoxy-5-(acetylamino)aniline", "4-Acetamido-2-aminoanisole", "5-Acetamido-2-methoxyaniline", "4\u2032-Methoxy-3\u2032-aminoacetanilide", "m-Amino-p-methoxyacetanilide", "5-(Acetylamino)-2-methoxyaniline", "4-(Acetylamino)-2-aminoanisole", "3\u2032-Amino-4\u2032-methoxyacetanilide", "2-Amino-4-(acetylamino)phenyl methyl ether", "2-Amino-4-acetaminoanisole", "2-Amino-4-acetamidoanisole"], "SMILES": "O(C)C1=C(N)C=C(NC(C)=O)C=C1", "physical_data": {"Molecular Weight": "180.20", "Molecular Formula": "C9H12N2O2", "Melting Point": "108-109 \u00b0C"}}