{"cas_no": "6376-14-3", "cn_name": "\u6c2f\u5316\u514b\u5229\u897f\u4e01", "en_name": ["4-Chloro-2-methoxy-5-methylaniline", "Benzenamine, 4-chloro-2-methoxy-5-methyl-", "o-Anisidine, 4-chloro-5-methyl-", "4-Chloro-2-methoxy-5-methylbenzenamine", "4-Chloro-2-methoxy-5-methylaniline", "2-Methoxy-4-chloro-5-methylaniline", "(4-Chloro-2-methoxy-5-methylphenyl)amine"], "SMILES": "O(C)C1=C(N)C=C(C)C(Cl)=C1", "physical_data": {"Molecular Weight": "171.62", "Molecular Formula": "C8H10ClNO", "Melting Point": "106 \u00b0C"}}