{"cas_no": "6377-12-4", "cn_name": "3-\u6c28\u57fa\u5494\u5511", "en_name": ["Carbazol-3-amine", "9H-Carbazol-3-amine", "Carbazole, 3-amino-", "3-Aminocarbazole", "SKF 70124", "Carbazol-3-amine", "NSC 49769", "3-Amino-9H-carbazole", "(9H-Carbazol-3-yl)amine"], "SMILES": "NC=1C=C2C=3C(NC2=CC1)=CC=CC3", "physical_data": {"Molecular Weight": "182.22", "Molecular Formula": "C12H10N2", "Melting Point": "247-248 \u00b0C"}}