{"cas_no": "6377-18-0", "cn_name": "\u6559\u9152\u83cc\u7d20", "en_name": ["Chartreusin", "Benzo[h][1]benzopyrano[5,4,3-cde][1]benzopyran-5,12-dione, 10-[[6-deoxy-2-O-(6-deoxy-3-O-methyl-\u03b1-D-galactopyranosyl)-\u03b2-D-galactopyranosyl]oxy]-6-hydroxy-1-methyl-", "Chartreusin", "10-[[6-Deoxy-2-O-(6-deoxy-3-O-methyl-\u03b1-D-galactopyranosyl)-\u03b2-D-galactopyranosyl]oxy]-6-hydroxy-1-methylbenzo[h][1]benzopyrano[5,4,3-cde][1]benzopyran-5,12-dione", "NSC 5159", "Antibiotic X 465A", "Lambdamycin"], "SMILES": "OC=1C2=C3C=4C(C(=O)OC3=C5C1C=CC=C5OC6C(OC7C(O)C(OC)C(O)C(C)O7)C(O)C(O)C(C)O6)=C(C)C=CC4OC2=O", "physical_data": {"Molecular Weight": "640.59", "Molecular Formula": "C32H32O14", "Melting Point": "185 \u00b0C"}}