{"cas_no": "6378-65-0", "cn_name": "\u5df1\u9178\u5df1\u916f", "en_name": ["Hexyl hexanoate", "Hexanoic acid, hexyl ester", "Hexyl hexanoate", "Hexyl caproate", "n-Hexyl hexanoate", "Hexyl hexoate", "1-Hexyl caproate", "1-Hexyl hexanoate", "n-Hexyl n-hexanoate", "NSC 53799", "n-Hexyl caproate"], "SMILES": "C(OCCCCCC)(CCCCC)=O", "physical_data": {"Molecular Weight": "200.32", "Molecular Formula": "C12H24O2", "Boiling Point": "246 \u00b0C", "Melting Point": "-55 \u00b0C", "Density": "0.8689 g/cm\u00b3 @ Temp: 20 \u00b0C"}}