{"cas_no": "6379-72-2", "cn_name": "\u53cd\u5f0f\u7532\u57fa\u5f02\u4e01\u9999\u915a", "en_name": ["trans-Methylisoeugenol", "Benzene, 1,2-dimethoxy-4-(1E)-1-propen-1-yl-", "Benzene, 1,2-dimethoxy-4-propenyl-, (E)-", "Benzene, 1,2-dimethoxy-4-(1-propenyl)-, (E)-", "Benzene, 1,2-dimethoxy-4-(1E)-1-propenyl-", "Veratrole, 4-propenyl-, trans-", "1,2-Dimethoxy-4-(1E)-1-propen-1-ylbenzene", "trans-O-Methylisoeugenol", "trans-1,2-Dimethoxy-4-(1-propenyl)benzene", "trans-Isoeugenol methyl ether", "4-trans-Propenylveratrole", "(E)-1-(3,4-Dimethoxyphenyl)propene", "(E)-Isoeugenol methyl ether", "(E)-O-Methylisoeugenol", "Isohomoeugenol", "O-Methyl-trans-isoeugenol", "(E)-1-Propenyl-3,4-dimethoxybenzene", "(E)-1,2-Dimethoxy-4-(1-propenyl)benzene", "(E)-Methylisoeugenol", "trans-Methylisoeugenol", "1,2-Dimethoxy-4-[(1E)-1-propenyl]benzene", "(E)-3,4-Dimethoxy-1-propenylbenzene", "trans-Isomethyleugenol", "(E)-1,2-Dimethoxy-4-(prop-1-en-1-yl)benzene", "(E)-1,2-Dimethoxy-4-(prop-1-en-1-yl)benzene"], "SMILES": "O(C)C1=C(OC)C=CC(C=CC)=C1", "physical_data": {"Molecular Weight": "178.23", "Molecular Formula": "C11H14O2", "Boiling Point": "260-263 \u00b0C"}}