{"cas_no": "63799-11-1", "cn_name": "4'-(2-\u7532\u57fa\u4e01\u57fa)-4-\u8054\u4e8c\u82ef\u8148", "en_name": ["4\u2032-[(2S)-2-Methylbutyl][1,1\u2032-biphenyl]-4-carbonitrile", "[1,1\u2032-Biphenyl]-4-carbonitrile, 4\u2032-[(2S)-2-methylbutyl]-", "[1,1\u2032-Biphenyl]-4-carbonitrile, 4\u2032-(2-methylbutyl)-, (S)-", "4\u2032-[(2S)-2-Methylbutyl][1,1\u2032-biphenyl]-4-carbonitrile", "CB 15", "(S)-1-Cyano-4\u2032-(2-methylbutyl)biphenyl", "(+)-p-(2-Methylbutyl)-p\u2032-cyanobiphenyl", "Merck CB 15", "4-(S)-2-Methylbutyl-4\u2032-cyanobiphenyl", "(S)-4-(2-Methylbutyl)-4\u2032-cyanobiphenyl", "(S)-4\u2032-(2-Methylbutyl)-[1,1\u2032-biphenyl]-4-carbonitrile", "CB 15 (liq. crystal)"], "SMILES": "C(C(CC)C)C1=CC=C(C=C1)C2=CC=C(C#N)C=C2", "physical_data": {"Molecular Weight": "249.35", "Molecular Formula": "C18H19N", "Melting Point": "6.5 \u00b0C"}}