{"cas_no": "6379-73-3", "cn_name": "2-\u7532\u6c27\u57fa-1-\u7532\u57fa-4-(1-\u7532\u57fa\u4e59\u57fa)\u82ef", "en_name": ["Carvacrol methyl ether", "Benzene, 2-methoxy-1-methyl-4-(1-methylethyl)-", "Anisole, 5-isopropyl-2-methyl-", "2-Methoxy-1-methyl-4-(1-methylethyl)benzene", "Carvacrol methyl ether", "Methyl carvacryl ether", "O-Methylcarvacrol", "Carvacryl methyl ether", "2-Methoxy-p-cymol", "5-Isopropyl-2-methylanisole", "Methylcarvacrol", "NSC 406512", "2-Methoxy-1-methyl-4-(propan-2-yl)benzene"], "SMILES": "O(C)C1=CC(C(C)C)=CC=C1C", "physical_data": {"Molecular Weight": "164.24", "Molecular Formula": "C11H16O", "Boiling Point": "107-108 \u00b0C @ Press: 15 Torr", "Density": "0.938 g/cm\u00b3 @ Temp: 15 \u00b0C"}}