{"cas_no": "638-21-1", "cn_name": "\u82ef\u57fa\u81a6", "en_name": ["Phenylphosphine", "Phosphine, phenyl-", "Phenylphosphine", "Monophenylphosphine", "NSC 511703"], "SMILES": "PC1=CC=CC=C1", "physical_data": {"Molecular Weight": "110.09", "Molecular Formula": "C6H7P", "Boiling Point": "160.5 \u00b0C", "Melting Point": "148-151 \u00b0C", "Density": "1.00 g/cm\u00b3"}}