{"cas_no": "638-94-8", "cn_name": "\u5730\u7d22\u5948\u5fb7", "en_name": ["Desonide", "Pregna-1,4-diene-3,20-dione, 11,21-dihydroxy-16,17-[(1-methylethylidene)bis(oxy)]-, (11\u03b2,16\u03b1)-", "Pregna-1,4-diene-3,20-dione, 11\u03b2,16\u03b1,17,21-tetrahydroxy-, cyclic 16,17-acetal with acetone", "2H-Naphth[2\u2032,1\u2032:4,5]indeno[1,2-d][1,3]dioxole, pregna-1,4-diene-3,20-dione deriv.", "(11\u03b2,16\u03b1)-11,21-Dihydroxy-16,17-[(1-methylethylidene)bis(oxy)]pregna-1,4-diene-3,20-dione", "16\u03b1-Hydroxyprednisolone 16\u03b1,17\u03b1-acetonide", "Desonide", "Prednacinolone", "16\u03b1-Hydroxyprednisolone acetonide", "11\u03b2,16\u03b1,17,21-Tetrahydroxypregna-1,4-diene-3,20-dione 16,17-acetonide", "Tridesilon", "16\u03b1-Hydroxyprednisolone 16,17-acetonide", "16\u03b1,17\u03b1-(Isopropylidenedioxy)prednisolone", "Steroderm", "11\u03b2,21-Dihydroxy-16\u03b1,17\u03b1-(isopropylidenedioxy)pregna-1,4-diene-3,20-dione", "Prednacinolone acetonide", "Apolar", "D 2083", "Locapred", "Topifug", "Sterax", "Budesonide acetonide", "Prenacid", "Tridesonit", "Prednisolone acetonide", "Desowen", "MeSH ID: D003898"], "SMILES": "C(CO)(=O)C12C3(C)C(CC1OC(C)(C)O2)C4C(C(O)C3)C5(C)C(CC4)=CC(=O)C=C5", "physical_data": {"Molecular Weight": "416.51", "Molecular Formula": "C24H32O6", "Melting Point": "274 \u00b0C"}}