{"cas_no": "638-04-0", "cn_name": "\u987a-1,3-\u4e8c\u7532\u57fa\u73af\u5df1\u70f7", "en_name": ["cis-1,3-Dimethylcyclohexane", "Cyclohexane, 1,3-dimethyl-, (1R,3S)-rel-", "Cyclohexane, 1,3-dimethyl-, cis-", "rel-(1R,3S)-1,3-Dimethylcyclohexane", "cis-1,3-Dimethylcyclohexane", "1-cis-3-Dimethylcyclohexane", "NSC 74159"], "SMILES": "CC1CC(C)CCC1", "physical_data": {"Molecular Weight": "112.21", "Molecular Formula": "C8H16", "Boiling Point": "120.1 \u00b0C", "Melting Point": "-75.6 \u00b0C", "Density": "0.772 g/cm\u00b3 @ Temp: 20 \u00b0C"}}