{"cas_no": "638-66-4", "cn_name": "\u5341\u516b\u70f7\u919b", "en_name": ["Octadecanal", "Octadecanal", "Stearaldehyde", "Stearyl aldehyde", "Octadecyl aldehyde", "n-Octadecanal", "Octadecanaldehyde", "1-Oxooctadecane", "1-Octadecanal", "NSC 68100"], "SMILES": "C(CCCCCCCCC)CCCCCCCC=O", "physical_data": {"Molecular Weight": "268.48", "Molecular Formula": "C18H36O", "Boiling Point": "200-215 \u00b0C @ Press: 20 Torr", "Melting Point": "55 \u00b0C"}}