{"cas_no": "638-95-9", "cn_name": "alpha-\u9999\u6811\u7cbe", "en_name": ["\u03b1-Amyrin", "Urs-12-en-3-ol, (3\u03b2)-", "Viminalol", "Urs-12-en-3\u03b2-ol", "(3\u03b2)-Urs-12-en-3-ol", "\u03b1-Amyrenol", "\u03b1-Amyrin", "\u03b1-Amyrine", "3\u03b2-Hydroxyurs-12-ene", "\u03b1-Amirin", "NSC 114787"], "SMILES": "CC12C3(C)C(C4C(C)(CC3)CCC(C)C4C)=CCC1C5(C)C(CC2)C(C)(C)C(O)CC5", "physical_data": {"Molecular Weight": "426.72", "Molecular Formula": "C30H50O", "Melting Point": "186 \u00b0C"}}