{"cas_no": "638-28-8", "cn_name": "2-\u6c2f(\u6b63)\u5df1\u70f7", "en_name": ["2-Chlorohexane", "Hexane, 2-chloro-", "2-Chlorohexane", "2-Hexyl chloride", "(\u00b1)-2-Chlorohexane", "sec-Hexyl chloride"], "SMILES": "C(C(C)Cl)CCC", "physical_data": {"Molecular Weight": "120.62", "Molecular Formula": "C6H13Cl", "Boiling Point": "122.5 \u00b0C", "Density": "0.8720 g/cm\u00b3 @ Temp: 20 \u00b0C"}}