{"cas_no": "638-07-3", "cn_name": "4-\u6c2f\u4e59\u9170\u4e59\u9178\u4e59\u916f", "en_name": ["Ethyl 4-chloroacetoacetate", "Butanoic acid, 4-chloro-3-oxo-, ethyl ester", "Acetoacetic acid, 4-chloro-, ethyl ester", "\u03b3-Chloroacetoacetic acid ethyl ester", "Ethyl 4-chloroacetoacetate", "Ethyl \u03b3-chloroacetoacetate", "Ethyl \u03c9-chloroacetoacetate", "Ethyl 4-chloro-3-oxobutanoate", "Ethyl 4-chloro-3-oxobutyrate", "4-Chloroacetoacetic acid ethyl ester", "Ethyl (chloroacetyl)acetate", "4-Chloro-3-oxobutyric acid ethyl ester", "4-Chloro-3-oxobutanoic acid ethyl ester", "4-Chloro acetoethylacetate", "Ethyl 3-oxo-4-chlorobutanoate", "Ethyl chloroacetoacetate"], "SMILES": "C(C(OCC)=O)C(CCl)=O", "physical_data": {"Molecular Weight": "164.59", "Molecular Formula": "C6H9ClO3", "Boiling Point": "107 \u00b0C @ Press: 14 Torr", "Melting Point": "-8 \u00b0C", "Density": "1.2182 g/cm\u00b3 @ Temp: 16 \u00b0C"}}