{"cas_no": "638-29-9", "cn_name": "\u6b63\u620a\u9170\u6c2f", "en_name": ["Pentanoyl chloride", "Pentanoyl chloride", "Valeryl chloride", "Valeroyl chloride", "n-Pentanoyl chloride", "Pentanoic acid chloride", "n-Butanecarbonyl chloride", "n-Valeryl chloride"], "SMILES": "C(C(Cl)=O)CCC", "physical_data": {"Molecular Weight": "120.58", "Molecular Formula": "C5H9ClO", "Boiling Point": "109 \u00b0C", "Melting Point": "-110 \u00b0C"}}