{"cas_no": "638-03-9", "cn_name": "\u95f4\u7532\u82ef\u80fa\u76d0\u9178\u76d0", "en_name": ["3-Methylaniline hydrochloride", "Benzenamine, 3-methyl-, hydrochloride (1:1)", "m-Toluidine, hydrochloride", "Benzenamine, 3-methyl-, hydrochloride", "3-Methylaniline hydrochloride", "3-Methylanilinium chloride", "3-Methylbenzenamine hydrochloride", "3-Methylphenylamine hydrochloride"], "SMILES": "CC1=CC(N)=CC=C1.Cl", "physical_data": {"Molecular Weight": "", "Molecular Formula": "C7H9N.ClH", "Melting Point": "223-225 \u00b0C"}}