{"cas_no": "638-08-4", "cn_name": "\u786c\u8102\u9178\u9150", "en_name": ["Stearic anhydride", "Octadecanoic acid, 1,1\u2032-anhydride", "Stearic anhydride", "Octadecanoic acid, anhydride", "Stearic acid anhydride", "Cyanasize 400", "Octadecanoic anhydride", "Stearoyl anhydride"], "SMILES": "O(C(CCCCCCCCCCCCCCCCC)=O)C(CCCCCCCCCCCCCCCCC)=O", "physical_data": {"Molecular Weight": "550.94", "Molecular Formula": "C36H70O3", "Melting Point": "72 \u00b0C", "Density": "0.855 g/cm\u00b3 @ Temp: 80 \u00b0C"}}