{"cas_no": "638-36-8", "cn_name": "\u690d\u70f7", "en_name": ["Phytane", "Hexadecane, 2,6,10,14-tetramethyl-", "Phytane", "2,6,10,14-Tetramethylhexadecane", "Phytan", "Tetrahydroneophytadiene"], "SMILES": "C(CCC(CCCC(C)C)C)C(CCCC(CC)C)C", "physical_data": {"Molecular Weight": "282.55", "Molecular Formula": "C20H42", "Boiling Point": "169.5 \u00b0C @ Press: 9.5 Torr", "Density": "0.803 g/cm\u00b3 @ Temp: 0 \u00b0C"}}