{"cas_no": "638-39-1", "cn_name": "\u70c3\u4e19\u9178\u4e19\u916f", "en_name": ["Tin acetate", "Acetic acid, tin(2+) salt (2:1)", "Acetic acid, tin(2+) salt", "Tin acetate (Sn(OAc)2)", "Stannous acetate", "Tin(II) acetate", "Tin diacetate", "Tin acetate (Sn(O2C2H3)2)", "Tin acetate (Sn(MeCO2)2)", "Tin acetate"], "SMILES": "C(C)(O)=O.[Sn]", "physical_data": {"Molecular Weight": "", "Molecular Formula": "C2H4O2.<sup>1</sup>/2Sn", "Melting Point": "182.75 \u00b0C", "Density": "2.310 g/cm\u00b3"}}