{"cas_no": "638-00-6", "cn_name": "2,4-\u4e8c\u7532\u57fa\u567b\u5429", "en_name": ["2,4-Dimethylthiophene", "Thiophene, 2,4-dimethyl-", "2,4-Dimethylthiophene"], "SMILES": "CC=1C=C(C)SC1", "physical_data": {"Molecular Weight": "112.19", "Molecular Formula": "C6H8S", "Boiling Point": "140.7 \u00b0C"}}