{"cas_no": "638-59-5", "cn_name": "\u8089\u8c46\u853b\u9187\u4e59\u9178\u916f", "en_name": ["Tetradecyl acetate", "1-Tetradecanol, 1-acetate", "1-Tetradecanol, acetate", "Tetradecyl acetate", "1-Tetradecyl acetate", "Tetradecanol acetate", "Myristyl acetate", "n-Tetradecyl acetate", "Acetic acid tetradecan-1-yl ester"], "SMILES": "C(CCCCCCCCCC)CCCOC(C)=O", "physical_data": {"Molecular Weight": "256.42", "Molecular Formula": "C16H32O2", "Boiling Point": "130-132 \u00b0C @ Press: 1 mmHg"}}