{"cas_no": "638-32-4", "cn_name": "\u4e01\u9170\u80fa\u9178", "en_name": ["Succinamic acid", "Butanoic acid, 4-amino-4-oxo-", "Succinamic acid", "4-Amino-4-oxobutanoic acid", "Propionic acid, 3-carbamoyl-", "Succinic acid monoamide", "NSC 78416", "3-Carbamoylpropanoic acid"], "SMILES": "C(CC(O)=O)C(N)=O", "physical_data": {"Molecular Weight": "117.10", "Molecular Formula": "C4H7NO3", "Boiling Point": "170 \u00b0C @ Press: 2 Torr", "Melting Point": "207-208 \u00b0C"}}