{"cas_no": "638-79-9", "cn_name": "1-\u7898\u5168\u6c1f\u620a\u70f7", "en_name": ["1,1,1,2,2,3,3,4,4,5,5-Undecafluoro-5-iodopentane", "Pentane, 1,1,1,2,2,3,3,4,4,5,5-undecafluoro-5-iodo-", "Pentane, undecafluoro-1-iodo-", "1,1,1,2,2,3,3,4,4,5,5-Undecafluoro-5-iodopentane", "Perfluoroamyl iodide", "1-Iodoperfluoropentane", "Perfluoropentyliodide", "Iodoundecafluoropentane"], "SMILES": "C(C(C(F)(F)F)(F)F)(C(C(F)(F)I)(F)F)(F)F", "physical_data": {"Molecular Weight": "395.94", "Molecular Formula": "C5F11I", "Boiling Point": "94.4 \u00b0C", "Melting Point": "-50 \u00b0C"}}