{"cas_no": "638-09-5", "cn_name": "1,3,5-\u4e09\u6c28\u57fa\u82ef\u76d0\u9178\u76d0", "en_name": ["1,3,5-Benzenetriamine, hydrochloride (1:3)", "1,3,5-Benzenetriamine, hydrochloride (1:3)", "1,3,5-Benzenetriamine, trihydrochloride", "1,3,5-Triaminobenzene trihydrochloride"], "SMILES": "NC1=CC(N)=CC(N)=C1.Cl", "physical_data": {"Molecular Weight": "", "Molecular Formula": "C6H9N3.3ClH", "Melting Point": "126 \u00b0C"}}