{"cas_no": "638-25-5", "cn_name": "\u8f9b\u9178\u620a\u916f", "en_name": ["Pentyl octanoate", "Octanoic acid, pentyl ester", "Amyl octanoate", "Amyl caprylate", "Pentyl octanoate", "n-Amyl caprylate", "NSC 23940"], "SMILES": "C(C(OCCCCC)=O)CCCCCC", "physical_data": {"Molecular Weight": "214.34", "Molecular Formula": "C13H26O2", "Boiling Point": "260.2 \u00b0C", "Melting Point": "-34.8 \u00b0C"}}