{"cas_no": "638-45-9", "cn_name": "1-\u7898\u5df1\u70f7", "en_name": ["1-Iodohexane", "Hexane, 1-iodo-", "1-Iodohexane", "Hexyl iodide", "1-Hexyl iodide", "n-Hexyl iodide", "NSC 9251", "1-Iodo-n-hexane"], "SMILES": "C(CCC)CCI", "physical_data": {"Molecular Weight": "212.07", "Molecular Formula": "C6H13I", "Boiling Point": "181 \u00b0C", "Melting Point": "-74.2 \u00b0C", "Density": "1.435 g/cm\u00b3 @ Temp: 20 \u00b0C"}}