{"cas_no": "638-58-4", "cn_name": "\u6b63\u5341\u56db\u70f7\u57fa\u94f5", "en_name": ["Tetradecanamide", "Tetradecanamide", "Myristamide", "Myristic amide", "Myristic acid amide", "Tetradecylamide", "Armid 14", "NSC 66436"], "SMILES": "C(CCCCCCCC)CCCCC(N)=O", "physical_data": {"Molecular Weight": "227.39", "Molecular Formula": "C14H29NO", "Melting Point": "104 \u00b0C"}}