{"cas_no": "638-23-3", "cn_name": "S-(\u7fa7\u7532\u57fa)-L-\u534a\u80f1\u6c28\u9178", "en_name": ["Carbocysteine", "L-Cysteine, S-(carboxymethyl)-", "Alanine, 3-[(carboxymethyl)thio]-, L-", "S-(Carboxymethyl)-L-cysteine", "3-[(Carboxymethyl)thio]-L-alanine", "Thiodril", "Rhinathiol", "Mucodyne", "Carbocysteine", "L-(Carboxymethyl)cysteine", "(L)-2-Amino-3-(carboxymethylthio)propionic acid", "Rinatiol", "LJ 206", "(R)-S-(Carboxymethyl)cysteine", "S-(Carboxymethyl)-(R)-cysteine", "S-Carboxylmethyl-L-cysteine", "Mucopront", "Carbocisteine", "Muciclar", "Bronchokod", "Rhinatiol", "DF 1794Y", "Mucofan", "Reomucil", "Lisil", "Pectox", "Mucolase", "Pulmoclase", "Carbocit", "Loviscol", "Mukinyl", "Transbronchin", "Mucocis", "Mucotab", "Lisomucil", "Siroxyl", "AHR 3053", "Mucolex", "NSC 14156", "Chilvax", "(2R)-2-Amino-3-[(carboxymethyl)thio]propionic acid", "Mucosol", "PectDrill", "Carboxymethyl-cysteine", "(2R)-2-Amino-3-[(carboxymethyl)sulfanyl]propanoic acid", "(2R)-2-Amino-3-(carboxymethylsulfanyl)propanoic acid", "(2R)-2-Amino-3-[(carboxymethyl)thio]propionic acid", "MeSH ID: D002233"], "SMILES": "C(C(C(O)=O)N)SCC(O)=O", "physical_data": {"Molecular Weight": "179.19", "Molecular Formula": "C5H9NO4S", "Melting Point": "206 \u00b0C"}}