{"cas_no": "638-02-8", "cn_name": "2,5-\u4e8c\u7532\u57fa\u567b\u5429", "en_name": ["2,5-Dimethylthiophene", "Thiophene, 2,5-dimethyl-", "2,5-Dimethylthiophene", "NSC 60689"], "SMILES": "CC=1SC(C)=CC1", "physical_data": {"Molecular Weight": "112.19", "Molecular Formula": "C6H8S", "Boiling Point": "136.5 \u00b0C", "Melting Point": "-62.6 \u00b0C", "Density": "0.9836 g/cm\u00b3 @ Temp: 20 \u00b0C"}}