{"cas_no": "638-10-8", "cn_name": "3-\u7532\u57fa-2-\u4e01\u70ef\u9178\u4e59\u916f", "en_name": ["Ethyl 3,3-dimethylacrylate", "2-Butenoic acid, 3-methyl-, ethyl ester", "Crotonic acid, 3-methyl-, ethyl ester", "Senecioic acid, ethyl ester", "Ethyl isopropylideneacetate", "Ethyl senecioate", "Ethyl \u03b2,\u03b2-dimethylacrylate", "Ethyl 3-methylcrotonate", "Ethyl 3-methyl-2-butenoate", "Ethyl dimethylacrylate", "Ethyl 3,3-dimethylacrylate", "Ethyl isobutenoate", "Ethyl \u03b2-methylcrotonate", "NSC 61853", "NSC 99208", "3-Methyl-2-butenoic acid ethyl ester", "3,3-Dimethylacrylic acid ethyl ester"], "SMILES": "C(C(OCC)=O)=C(C)C", "physical_data": {"Molecular Weight": "128.17", "Molecular Formula": "C7H12O2", "Boiling Point": "153.5 \u00b0C", "Melting Point": "153-154 \u00b0C", "Density": "0.9171 g/cm\u00b3 @ Temp: 15 \u00b0C"}}