{"cas_no": "638-37-9", "cn_name": "\u4e01\u4e8c\u919b", "en_name": ["Butanedial", "Butanedial", "Succinaldehyde", "Succindialdehyde", "Succinic dialdehyde", "Succinic aldehyde", "1,4-Butanedione", "\u03b2-Formylpropionaldehyde", "1,4-Butanedial", "4-Oxobutyraldehyde", "NSC 11057"], "SMILES": "C(CC=O)C=O", "physical_data": {"Molecular Weight": "86.09", "Molecular Formula": "C4H6O2", "Boiling Point": "56.5 \u00b0C @ Press: 9 Torr", "Density": "1.069 g/cm\u00b3 @ Temp: 18 \u00b0C"}}