{"cas_no": "638-38-0", "cn_name": "\u4e59\u9178\u9530", "en_name": ["Manganese diacetate", "Acetic acid, manganese(2+) salt (2:1)", "Acetic acid, manganese(2+) salt", "Manganese acetate (Mn(OAc)2)", "Manganous acetate", "Diacetylmanganese", "Manganese(II) acetate", "Manganese acetate", "Manganese diacetate", "Manganese(2+) acetate"], "SMILES": "C(C)(O)=O.[Mn]", "physical_data": {"Molecular Weight": "", "Molecular Formula": "C2H4O2.<sup>1</sup>/2Mn", "Melting Point": "102-103 \u00b0C", "Density": "1.74 g/cm\u00b3"}}