{"cas_no": "638-97-1", "cn_name": "\u0392-\u9999\u6811\u8102\u916e", "en_name": ["\u03b2-Amyrone", "Olean-12-en-3-one", "\u03b2-Amyrone", "\u03b2-Amyrenone", "Pulcherrone", "\u03b2-Amyron", "3-Oxoolean-12-ene", "\u03b2-Amirone", "\u03b2-Amirenone"], "SMILES": "CC12C3(C)C(C4C(C)(CC3)CCC(C)(C)C4)=CCC1C5(C)C(CC2)C(C)(C)C(=O)CC5", "physical_data": {"Molecular Weight": "424.70", "Molecular Formula": "C30H48O", "Melting Point": "177-178 \u00b0C"}}