{"cas_no": "638-67-5", "cn_name": "\u6b63\u4e8c\u5341\u4e09\u70f7", "en_name": ["Tricosane", "Tricosane", "n-Tricosane", "NSC 78487"], "SMILES": "C(CCCCCCCCCCC)CCCCCCCCCCC", "physical_data": {"Molecular Weight": "324.63", "Molecular Formula": "C23H48", "Boiling Point": "380 \u00b0C", "Melting Point": "47.6 \u00b0C"}}