{"cas_no": "638-41-5", "cn_name": "\u6c2f\u7532\u9178\u6b63\u620a\u916f", "en_name": ["Pentyl chloroformate", "Carbonochloridic acid, pentyl ester", "Formic acid, chloro-, pentyl ester", "Pentyl chloroformate", "Chloroformic acid amyl ester", "Amyl chloroformate", "n-Pentyl chloroformate", "Pentyloxycarbonyl chloride", "NSC 7913", "Chloroformic acid pentyl ester"], "SMILES": "C(OC(Cl)=O)CCCC", "physical_data": {"Molecular Weight": "150.60", "Molecular Formula": "C6H11ClO2", "Boiling Point": "68-70 \u00b0C @ Press: 25-28 Torr"}}