{"cas_no": "638-56-2", "cn_name": "\u4e8c\u4e59\u4e8c\u9187\u53cc\u6c2f\u4e59\u916f", "en_name": ["1,1\u2032-Oxybis[2-(2-chloroethoxy)ethane]", "Ethane, 1,1\u2032-oxybis[2-(2-chloroethoxy)-", "Ether, bis[2-(2-chloroethoxy)ethyl]", "1,1\u2032-Oxybis[2-(2-chloroethoxy)ethane]", "1,11-Dichloro-3,6,9-trioxaundecane", "Diethylene glycol bis(2-chloroethyl) ether", "\u03b2,\u03b2\u2032-Di(\u03b2-chloroethoxy)diethyl ether", "Tetraethylene glycol dichloride", "Bis(2-(2-chloroethoxy)ethyl) ether", "NSC 39639", "Bis(2-(2-chlorethoxy)ethyl)ether", "1-Chloro-2-[2-[2-(2-chloroethoxy)ethoxy]ethoxy]ethane", "1-(2-Chloroethoxy)-2-[2-(2-chloroethoxy)ethoxy]ethane"], "SMILES": "O(CCOCCCl)CCOCCCl", "physical_data": {"Molecular Weight": "231.12", "Molecular Formula": "C8H16Cl2O3", "Boiling Point": "126-130 \u00b0C @ Press: 1 Torr"}}