{"cas_no": "638-49-3", "cn_name": "\u7532\u9178\u620a\u916f", "en_name": ["Pentyl formate", "Formic acid, pentyl ester", "Amyl formate", "Pentyl formate", "n-Pentyl formate", "n-Amyl formate", "NSC 72023"], "SMILES": "C(COC=O)CCC", "physical_data": {"Molecular Weight": "116.16", "Molecular Formula": "C6H12O2", "Boiling Point": "130.4 \u00b0C", "Melting Point": "-73.5 \u00b0C", "Density": "0.8853 g/cm\u00b3 @ Temp: 20 \u00b0C"}}