{"cas_no": "638-68-6", "cn_name": "\u6b63\u4e09\u5341\u70f7", "en_name": ["Triacontane", "Triacontane", "n-Triacontane", "NSC 158661"], "SMILES": "C(CCCCCCCCCCCCCCC)CCCCCCCCCCCCCC", "physical_data": {"Molecular Weight": "422.81", "Molecular Formula": "C30H62", "Boiling Point": "449.7 \u00b0C", "Melting Point": "65.8 \u00b0C", "Density": "0.7684 g/cm\u00b3 @ Temp: 89 \u00b0C"}}