{"cas_no": "638-17-5", "cn_name": "(2\u03b1,4\u03b1,6\u03b1)-2,4,6-\u4e09\u7532\u57fa-4H-1,3,5-\u4e8c\u567b\u55ea", "en_name": ["Thialdine", "4H-1,3,5-Dithiazine, dihydro-2,4,6-trimethyl-, (2\u03b1,4\u03b1,6\u03b1)-", "(2\u03b1,4\u03b1,6\u03b1)-Dihydro-2,4,6-trimethyl-4H-1,3,5-dithiazine", "Thialdine", "2,4,6-Trimethylperhydro-1,3-dithiazine", "2,4,6-Trimethyldihydro-1,3,5-dithiazine", "2,4,6-Trimethylperhydro-1,3,5-dithiazine"], "SMILES": "CC1NC(C)SC(C)S1", "physical_data": {"Molecular Weight": "163.30", "Molecular Formula": "C6H13NS2", "Melting Point": "46 \u00b0C"}}