{"cas_no": "638-11-9", "cn_name": "\u4e01\u9178\u5f02\u4e19\u57fa\u916f", "en_name": ["Isopropyl butanoate", "Butanoic acid, 1-methylethyl ester", "Butyric acid, isopropyl ester", "Isopropyl butyrate", "Isopropyl butanoate", "1-Methylethyl butanoate", "Isopropyl n-butyrate", "Butanoic acid isopropyl ester", "2-Propyl butanoate", "Butanoic acid 2-propyl ester"], "SMILES": "O(C(CCC)=O)C(C)C", "physical_data": {"Molecular Weight": "130.18", "Molecular Formula": "C7H14O2", "Boiling Point": "130.5 \u00b0C"}}