{"cas_no": "638-53-9", "cn_name": "\u5341\u4e09\u9178", "en_name": ["Tridecanoic acid", "Tridecanoic acid", "n-Tridecoic acid", "Tridecylic acid", "n-Tridecanoic acid", "NSC 25955", "NSC 69131"], "SMILES": "C(CCCCCCCCC)CCC(O)=O", "physical_data": {"Molecular Weight": "214.34", "Molecular Formula": "C13H26O2", "Boiling Point": "312.4 \u00b0C", "Melting Point": "44.5 \u00b0C", "Density": "0.9582 g/cm\u00b3 @ Temp: 20 \u00b0C"}}