{"cas_no": "638-16-4", "cn_name": "\u4e09\u805a\u786b\u6c30\u9178", "en_name": ["Trithiocyanuric acid", "1,3,5-Triazine-2,4,6(1H,3H,5H)-trithione", "s-Triazine-2,4,6-trithiol", "s-Triazine-2,4,6(1H,3H,5H)-trithione", "Cyanuric acid, trithio-", "Trithiocyanuric acid", "2,4,6-Trimercapto-s-triazine", "Thiocyanuric acid", "2,4,6-Triazinetrithiol", "1,3,5-Trimercaptotriazine", "Trimercaptocyanuric acid", "2,4,6-Trimercapto-1,3,5-triazine", "s-Triazinetrithiol", "1,3,5-Triazine-2,4,6-trithiol", "Zisnet F", "OF 100", "TCY-MBA", "Trimercapto-s-triazine", "2,4,6-Trithiol-1,3,5-triazine", "2,4,6-Trithio-5-azauracil", "1,3,5-Triazine-2,4,6-trithione", "Trimercaptotriazine", "Zisnet FPT", "Zeonet A", "TCY", "Nocceler TCA", "2,4,6-Trimercaptotriazine", "NSC 62071", "NSC 65480", "Rhenogran Triazine TM 70ECO", "TM 70ECO", "Actor TSH", "Rhenogran Triazine TM 70AEMD", "Taicros TMT", "Tatcross TMT", "TSH", "Curekind TCY", "TMT", "1,3,5-Triazinane-2,4,6-trithione", "Zisnet F-ET"], "SMILES": "S=C1NC(=S)NC(=S)N1", "physical_data": {"Molecular Weight": "177.27", "Molecular Formula": "C3H3N3S3", "Melting Point": "&gt;300 \u00b0C", "Density": "1.3500 g/cm\u00b3 @ Temp: 20 \u00b0C"}}