{"cas_no": "638-65-3", "cn_name": "\u5341\u516b\u70f7\u8148", "en_name": ["Octadecanenitrile", "Octadecanenitrile", "Stearonitrile", "Octadecanonitrile", "Heptadecyl cyanide", "Stearic nitrile", "n-Octadecanonitrile", "1-Cyanoheptadecane", "NSC 5541"], "SMILES": "C(CCCCCCCCC)CCCCCCCC#N", "physical_data": {"Molecular Weight": "265.48", "Molecular Formula": "C18H35N", "Boiling Point": "362 \u00b0C @ Press: 760 Torr", "Melting Point": "41 \u00b0C", "Density": "0.8325 g/cm\u00b3 @ Temp: 20 \u00b0C"}}