{"cas_no": "6380-28-5", "cn_name": "\u9999\u82b9\u57fa\u4e59\u9178", "en_name": ["Carvacryl acetate", "Phenol, 2-methyl-5-(1-methylethyl)-, 1-acetate", "Carvacrol, acetate", "Phenol, 2-methyl-5-(1-methylethyl)-, acetate", "Carvacryl acetate", "NSC 6601", "5-Isopropyl-2-methylphenyl acetate", "2-Methyl-5-(propan-2-yl)phenyl acetate"], "SMILES": "O(C(C)=O)C1=CC(C(C)C)=CC=C1C", "physical_data": {"Molecular Weight": "192.25", "Molecular Formula": "C12H16O2", "Boiling Point": "246.5 \u00b0C"}}