{"cas_no": "6380-24-1", "cn_name": "\u987a\u5f0f-\u7532\u57fa\u5f02\u4e01\u9999\u6cb9\u915a", "en_name": ["cis-Methylisoeugenol", "Benzene, 1,2-dimethoxy-4-(1Z)-1-propen-1-yl-", "Benzene, 1,2-dimethoxy-4-propenyl-, (Z)-", "Benzene, 1,2-dimethoxy-4-(1-propenyl)-, (Z)-", "Benzene, 1,2-dimethoxy-4-(1Z)-1-propenyl-", "Veratrole, 4-propenyl-, cis-", "1,2-Dimethoxy-4-(1Z)-1-propen-1-ylbenzene", "cis-Methylisoeugenol", "cis-Isoeugenol methyl ether", "4-cis-Propenylveratrole", "(Z)-3,4-Dimethoxy-\u03b2-methylstyrene", "(Z)-Methylisoeugenol", "(Z)-O-Methylisoeugenol", "1,2-Dimethoxy-4-(1-cis-propenyl)benzene", "1,2-Dimethoxy-4-(1\u2032-Z-propenyl)benzene", "cis-O-Methylisoeugenol", "(Z)-1,2-Dimethoxy-4-(prop-1-en-1-yl)benzene"], "SMILES": "O(C)C1=C(OC)C=CC(C=CC)=C1", "physical_data": {"Molecular Weight": "178.23", "Molecular Formula": "C11H14O2", "Boiling Point": "270.5 \u00b0C", "Melting Point": "70 \u00b0C"}}