{"cas_no": "6380-23-0", "cn_name": "3,4-\u4e8c\u7532\u6c27\u57fa\u82ef\u4e59\u70ef", "en_name": ["3,4-Dimethoxystyrene", "Benzene, 4-ethenyl-1,2-dimethoxy-", "Styrene, 3,4-dimethoxy-", "Veratrole, 4-vinyl-", "4-Ethenyl-1,2-dimethoxybenzene", "3,4-Dimethoxystyrene", "4-Vinyl-1,2-dimethoxybenzene", "1,2-Dimethoxy-4-vinylbenzene", "4-Vinylveratrole", "3,4-Dimethoxystyrol"], "SMILES": "O(C)C1=C(OC)C=CC(C=C)=C1", "physical_data": {"Molecular Weight": "164.20", "Molecular Formula": "C10H12O2", "Boiling Point": "113-115 \u00b0C @ Press: 6-7 Torr", "Density": "1.087 g/cm\u00b3 @ Temp: 20 \u00b0C"}}