{"cas_no": "63816-18-2", "cn_name": "6-\u6c2f-2-\u7532\u57fa\u82ef\u5e76\u6076\u5511", "en_name": ["6-Chloro-2-methylbenzoxazole", "Benzoxazole, 6-chloro-2-methyl-", "6-Chloro-2-methylbenzoxazole"], "SMILES": "CC1=NC=2C(O1)=CC(Cl)=CC2", "physical_data": {"Molecular Weight": "167.59", "Molecular Formula": "C8H6ClNO", "Melting Point": "42-43 \u00b0C"}}