{"cas_no": "6382-93-0", "cn_name": "N-\u03b1-\u7fb0\u57fa\u82ef\u6c27\u57fa-D-\u7cbe\u6c28\u9178", "en_name": ["N-Benzyloxycarbonyl-D-arginine", "D-Arginine, N2-[(phenylmethoxy)carbonyl]-", "Arginine, N2-carboxy-, N2-benzyl ester, D-", "N2-[(Phenylmethoxy)carbonyl]-D-arginine", "N-Benzyloxycarbonyl-D-arginine", "(2R)-5-(Diaminomethylideneamino)-2-(phenylmethoxycarbonylamino)pentanoic acid"], "SMILES": "C(OC(NC(CCCNC(=N)N)C(O)=O)=O)C1=CC=CC=C1", "physical_data": {"Molecular Weight": "308.33", "Molecular Formula": "C14H20N4O4", "Melting Point": "175 \u00b0C"}}