{"cas_no": "63837-11-6", "cn_name": "5-\u6eb4-2-\u7532\u57fa\u82ef\u5e76\u567b\u5511", "en_name": ["5-Bromo-2-methylbenzothiazole", "Benzothiazole, 5-bromo-2-methyl-", "5-Bromo-2-methylbenzothiazole", "2-Methyl-5-bromobenzothiazole", "5-Bromo-2-methyl-1,3-benzothiazole", "5-Bromo-2-methylbenzo[d]thiazole"], "SMILES": "CC=1SC=2C(N1)=CC(Br)=CC2", "physical_data": {"Molecular Weight": "228.11", "Molecular Formula": "C8H6BrNS", "Melting Point": "77.8-78.4 \u00b0C"}}