{"cas_no": "63843-89-0", "cn_name": "[[3,5-\u4e8c\u53d4\u4e01\u57fa-4-\u7f9f\u57fa\u82ef\u57fa]\u7532\u57fa]\u4e01\u57fa\u4e19\u4e8c\u9178\u4e8c(1,2,2,6,6-\u4e94\u7532\u57fa-4-\u54cc\u5576\u57fa)\u916f", "en_name": ["Bis(1,2,2,6,6-pentamethyl-4-piperidyl) 2-(3,5-di-tert-butyl-4-hydroxybenzyl)-2-n-butylmalonate", "Propanedioic acid, 2-[[3,5-bis(1,1-dimethylethyl)-4-hydroxyphenyl]methyl]-2-butyl-, 1,3-bis(1,2,2,6,6-pentamethyl-4-piperidinyl) ester", "Propanedioic acid, [[3,5-bis(1,1-dimethylethyl)-4-hydroxyphenyl]methyl]butyl-, bis(1,2,2,6,6-pentamethyl-4-piperidinyl) ester", "Bis(1,2,2,6,6-pentamethyl-4-piperidinyl) butyl(3,5-di-tert-butyl-4-hydroxybenzyl)malonate", "Bis(1,2,2,6,6-pentamethyl-4-piperidyl) butyl(3,5-di-tert-butyl-4-hydroxybenzyl)malonate", "Bis(1,2,2,6,6-pentamethyl-4-piperidyl) \u03b1-(3,5-di-tert-butyl-4-hydroxybenzyl)-\u03b1-butylmalonate", "Tinuvin 144", "Sanol LS 144", "Bis(1,2,2,6,6-pentamethyl-4-piperidyl) 2-(3,5-di-tert-butyl-4-hydroxybenzyl)-2-n-butylmalonate", "Bis(1,2,2,6,6-pentamethyl-4-piperidyl) 2-(3,5-di-tert-butyl-4-hydroxybenzyl)-2-butyl malonate", "Tinuvin 114", "Bis(1,2,2,6,6-pentamethylpiperidin-4-yl) (3,5-di-tert-butyl-4-hydroxybenzyl)butylmalonate", "TN 144", "Bis(1,2,2,6,6-pentamethyl-4-piperidinyl) (3,5-di-tert-butyl-4-hydroxybenzyl)butylpropanedioate", "Bis(1,2,2,6,6-pentamethyl-4-piperidyl) [[3,5-bis(1,1-dimethylethyl)-4-hydroxyphenyl]methyl]butylmalonate", "Bis(1,2,2,6,6-pentamethylpiperidin-4-yl) n-butyl-3,5-di-tert-butyl-4-hydroxybenzylmalonate", "Tinuvin PA 144", "Light Stabilizer 144", "Bis(1,2,2,6,6-pentamethyl-4-piperidinyl) 2-butyl-2-(4-hydroxy-3,5-di-tert-butylbenzyl)propanedioate", "Antioxidant 114", "Bis(1,2,2,6,6-pentamethyl-4-piperidyl) n-butyl-3,5-di-tert-butyl-4-hydroxybenzylmalonate", "2-[[3,5-Bis(1,1-dimethylethyl)-4-hydroxyphenyl]methyl]-2-butylpropanedioic acid 1,3-bis(1,2,2,6,6-pentamethyl-4-piperidinyl) ester", "Bis(1,2,2,6,6-pentamethyl-4-piperidinyl) [3,5-bis(1,1-dimethylethyl-4-hydroxyphenyl)methyl]butylpropandioate", "Light stabilizer 114", "T 144", "Chemsorb LS 144"], "SMILES": "C(C(OC1CC(C)(C)N(C)C(C)(C)C1)=O)(C(OC2CC(C)(C)N(C)C(C)(C)C2)=O)(CC3=CC(C(C)(C)C)=C(O)C(C(C)(C)C)=C3)CCCC", "physical_data": {"Molecular Weight": "685.03", "Molecular Formula": "C42H72N2O5", "Melting Point": "147-149 \u00b0C"}}