{"cas_no": "6384-92-5", "cn_name": "N-\u7532\u57fa-D-\u5929\u51ac\u6c28\u9178", "en_name": ["NMDA", "D-Aspartic acid, N-methyl-", "Aspartic acid, N-methyl-, D-", "N-Methyl-D-aspartic acid", "NMDA", "(2R)-2-(Methylamino)butanedioic acid"], "SMILES": "C(CC(O)=O)(C(O)=O)NC", "physical_data": {"Molecular Weight": "147.13", "Molecular Formula": "C5H9NO4", "Melting Point": "193-195 \u00b0C"}}