{"cas_no": "63843-83-4", "cn_name": "1-\u82c4\u57fa-4-\u82ef\u57fa\u54cc\u5576-4-\u9187", "en_name": ["4-Phenyl-1-(phenylmethyl)-4-piperidinol", "4-Piperidinol, 4-phenyl-1-(phenylmethyl)-", "4-Piperidinol, 1-benzyl-4-phenyl-", "4-Phenyl-1-(phenylmethyl)-4-piperidinol", "1-Benzyl-4-phenyl-4-piperidinol", "1-Benzyl-4-hydroxy-4-phenylpiperidine", "NSC 116051"], "SMILES": "OC1(CCN(CC2=CC=CC=C2)CC1)C3=CC=CC=C3", "physical_data": {"Molecular Weight": "267.37", "Molecular Formula": "C18H21NO", "Boiling Point": "176 \u00b0C @ Press: 0.1 Torr", "Melting Point": "103 \u00b0C"}}