{"cas_no": "6385-02-0", "cn_name": "\u7532\u6c2f\u706d\u9178\u94a0", "en_name": ["Meclofenamate sodium", "Benzoic acid, 2-[(2,6-dichloro-3-methylphenyl)amino]-, sodium salt (1:1)", "Anthranilic acid, N-(2,6-dichloro-m-tolyl)-, monosodium salt", "Benzoic acid, 2-[(2,6-dichloro-3-methylphenyl)amino]-, monosodium salt", "Sodium meclophenamate", "Sodium meclofenamate", "Sodium N-(2,6-dichloro-m-tolyl)anthranilate", "N-(2,6-Dichloro-m-tolyl)anthranilic acid sodium salt", "Meclomen", "CI 583", "Meclofenamate sodium", "Meclofenamic acid sodium salt"], "SMILES": "N(C1=C(Cl)C(C)=CC=C1Cl)C2=C(C(O)=O)C=CC=C2.[Na]", "physical_data": {"Molecular Weight": "", "Molecular Formula": "C14H11Cl2NO2.Na", "Melting Point": "287-291 \u00b0C"}}