{"cas_no": "63857-00-1", "cn_name": "N-[(3-(\u82ef\u80fa\u57fa\u4e9a\u7532\u57fa)-2-\u6c2f-1-\u73af\u5df1\u70ef-1-\u57fa)\u4e9a\u7532\u57fa]\u82ef\u80fa\u76d0\u9178\u76d0", "en_name": ["Benzenamine, N-[[2-chloro-3-[(phenylamino)methylene]-1-cyclohexen-1-yl]methylene]-, hydrochloride (1:1)", "Benzenamine, N-[[2-chloro-3-[(phenylamino)methylene]-1-cyclohexen-1-yl]methylene]-, hydrochloride (1:1)", "Benzenamine, N-[[2-chloro-3-[(phenylamino)methylene]-1-cyclohexen-1-yl]methylene]-, monohydrochloride", "N-[(3-(Anilinomethylene)-2-chloro-1-cyclohexen-1-yl)methylene]aniline monohydrochloride"], "SMILES": "C(NC1=CC=CC=C1)=C2C(Cl)=C(C=NC3=CC=CC=C3)CCC2.Cl", "physical_data": {"Molecular Weight": "", "Molecular Formula": "C20H19ClN2.ClH", "Melting Point": "220 \u00b0C"}}