{"cas_no": "6386-63-6", "cn_name": "\u5750\u679c\u9178", "en_name": ["Cloxyfonac", "Acetic acid, 2-[4-chloro-2-(hydroxymethyl)phenoxy]-", "Acetic acid, [(4-chloro-\u03b1-hydroxy-o-tolyl)oxy]-", "Acetic acid, [4-chloro-2-(hydroxymethyl)phenoxy]-", "2-[4-Chloro-2-(hydroxymethyl)phenoxy]acetic acid", "[2-(Hydroxymethyl)-4-chlorophenoxy]acetic acid", "[4-Chloro-2-(hydroxymethyl)phenoxy]acetic acid", "Trylone", "Cloxyfonac", "2-Hydroxymethyl-4-chlorophenyloxyacetic acid"], "SMILES": "O(CC(O)=O)C1=C(CO)C=C(Cl)C=C1", "physical_data": {"Molecular Weight": "216.62", "Molecular Formula": "C9H9ClO4", "Melting Point": "141 \u00b0C"}}