{"cas_no": "6386-38-5", "cn_name": "3-(3,5-\u4e8c\u53d4\u4e01\u57fa-4-\u7f9f\u57fa\u82ef\u57fa)\u4e19\u9178\u7532\u916f", "en_name": ["Methyl 3-(3,5-di-tert-butyl-4-hydroxyphenyl)propionate", "Benzenepropanoic acid, 3,5-bis(1,1-dimethylethyl)-4-hydroxy-, methyl ester", "Hydrocinnamic acid, 3,5-di-tert-butyl-4-hydroxy-, methyl ester", "Methyl 3,5-di-tert-butyl-4-hydroxyhydrocinnamate", "Methyl \u03b2-3,5-di-tert-butyl-4-hydroxyphenylpropionate", "Methylox", "3-(3,5-Di-tert-butyl-4-hydroxyphenyl)propionic acid methyl ester", "Methyl (3,5-di-tert-butyl-4-hydroxyphenyl)propionate", "Methyl 3-(3,5-di-tert-butyl-4-hydroxyphenyl)propionate", "Methyl 3,5-di-tert-butyl-4-hydroxy-\u03b2-phenylpropionate", "Methyl 3-(3\u2032,5\u2032-di-tert-butyl-4\u2032-hydroxyphenyl)propionate", "Metilox", "Methyl \u03b2-(4-hydroxy-3,5-di-tert-butylphenyl)propionate", "Methyl 3-(4-hydroxy-3,5-di-tert-butylphenyl)propionate", "Fenozan 1", "Methyl \u03b2-(4-hydroxy-3,5-di-tert-butylphenyl)propanoate", "Ralox 35", "Phenosan methyl ester", "3,5-Bis(1,1-dimethylethyl)-4-hydroxybenzenepropanoic acid methyl ester", "Methyl 3-(3,5-di-tert-butyl-4-hydroxyphenyl)propanoate"], "SMILES": "C(C)(C)(C)C1=C(O)C(C(C)(C)C)=CC(CCC(OC)=O)=C1", "physical_data": {"Molecular Weight": "292.41", "Molecular Formula": "C18H28O3", "Boiling Point": "125-130 \u00b0C @ Press: 0.1 Torr", "Melting Point": "66-66.5 \u00b0C"}}