{"cas_no": "63878-73-9", "cn_name": "2-\u6c1f-5-\u785d\u57fa\u82c4\u9187", "en_name": ["2-Fluoro-5-nitrobenzenemethanol", "Benzenemethanol, 2-fluoro-5-nitro-", "2-Fluoro-5-nitrobenzenemethanol", "2-Fluoro-5-nitrobenzyl alcohol", "(2-Fluoro-5-nitrophenyl)methanol"], "SMILES": "C(O)C1=CC(N(=O)=O)=CC=C1F", "physical_data": {"Molecular Weight": "171.13", "Molecular Formula": "C7H6FNO3", "Melting Point": "69-71 \u00b0C"}}