{"cas_no": "63873-61-0", "cn_name": "4-\u6c2f\u567b\u5429\u5e76[2,3-B]\u5421\u5576-5-\u7532\u8148", "en_name": ["4-Chlorothieno[2,3-b]pyridine-5-carbonitrile", "Thieno[2,3-b]pyridine-5-carbonitrile, 4-chloro-", "4-Chlorothieno[2,3-b]pyridine-5-carbonitrile"], "SMILES": "ClC1=C2C(=NC=C1C#N)SC=C2", "physical_data": {"Molecular Weight": "194.64", "Molecular Formula": "C8H3ClN2S", "Melting Point": "100-103 \u00b0C"}}