{"cas_no": "6388-47-2", "cn_name": "2-\u6c28\u57fa-3-\u6c2f\u82ef\u7532\u9178", "en_name": ["2-Amino-3-chlorobenzoic acid", "Benzoic acid, 2-amino-3-chloro-", "Anthranilic acid, 3-chloro-", "2-Amino-3-chlorobenzoic acid", "3-Chloroanthranilic acid", "3-Chloro-2-aminobenzoic acid", "NSC 20671"], "SMILES": "C(O)(=O)C1=C(N)C(Cl)=CC=C1", "physical_data": {"Molecular Weight": "171.58", "Molecular Formula": "C7H6ClNO2", "Melting Point": "190 \u00b0C"}}