{"cas_no": "639-58-7", "cn_name": "\u4e09\u82ef\u57fa\u6c2f\u5316\u9521", "en_name": ["Triphenyltin chloride", "Stannane, chlorotriphenyl-", "Triphenyltin chloride", "Chlorotriphenylstannane", "LS 4442", "GC 8993", "General Chemicals 8993", "TPTC", "HOE 2872", "Brestanol", "Fentin chloride", "Chlorotriphenyltin", "Triphenylchlorostannane", "Triphenylstannyl chloride", "Triphenylchlorotin", "Triphenyltin monochloride", "Aquatin", "Wenqukexing", "NSC 1214", "NSC 43675"], "SMILES": "[Sn](Cl)(C1=CC=CC=C1)(C2=CC=CC=C2)C3=CC=CC=C3", "physical_data": {"Molecular Weight": "385.47", "Molecular Formula": "C18H15ClSn", "Boiling Point": "240 \u00b0C @ Press: 13.5 Torr", "Melting Point": "103.5 \u00b0C", "Density": "1.4 g/cm\u00b3"}}