{"cas_no": "639091-78-4", "cn_name": "2-(BOC-\u6c28\u57fa)-4-(\u6c28\u7532\u57fa)\u5421\u5576", "en_name": ["1,1-Dimethylethyl N-[4-(aminomethyl)-2-pyridinyl]carbamate", "Carbamic acid, N-[4-(aminomethyl)-2-pyridinyl]-, 1,1-dimethylethyl ester", "Carbamic acid, [4-(aminomethyl)-2-pyridinyl]-, 1,1-dimethylethyl ester", "1,1-Dimethylethyl N-[4-(aminomethyl)-2-pyridinyl]carbamate", "(4-Aminomethylpyridin-2-yl)carbamic acid tert-butyl ester"], "SMILES": "N(C(OC(C)(C)C)=O)C1=CC(CN)=CC=N1", "physical_data": {"Molecular Weight": "223.27", "Molecular Formula": "C11H17N3O2", "Melting Point": "131-132 \u00b0C"}}