{"cas_no": "6390-69-8", "cn_name": "3,3',5,5'-\u56db\u53d4\u4e01\u57fa-2,2'-\u8054\u82ef\u4e8c\u915a", "en_name": ["3,3\u2032,5,5\u2032-Tetrakis(1,1-dimethylethyl)[1,1\u2032-biphenyl]-2,2\u2032-diol", "[1,1\u2032-Biphenyl]-2,2\u2032-diol, 3,3\u2032,5,5\u2032-tetrakis(1,1-dimethylethyl)-", "2,2\u2032-Biphenyldiol, 3,3\u2032,5,5\u2032-tetra-tert-butyl-", "o,o\u2032-Biphenol, 4,4\u2032,6,6\u2032-tetra-tert-butyl-", "3,3\u2032,5,5\u2032-Tetrakis(1,1-dimethylethyl)[1,1\u2032-biphenyl]-2,2\u2032-diol", "3,3\u2032,5,5\u2032-Tetra-tert-butyl-2,2\u2032-biphenyldiol", "2,2\u2032-Dihydroxy-3,3\u2032,5,5\u2032-tetra-tert-butylbiphenyl", "3,3\u2032,5,5\u2032-Tetra-tert-butyl-2,2\u2032-dihydroxybiphenyl", "4,4\u2032,6,6\u2032-Tetra-tert-butyl-2,2\u2032-biphenol", "3,3\u2032,5,5\u2032-Tetra-tert-butyl-[1,1\u2032-biphenyl]-2,2\u2032-diol", "3,3\u2032,5,5\u2032-Tetrakis(1,1-dimethylethyl)-[1,1\u2032-biphenyl]-2,2\u2032-diol", "NSC 122714", "2,2\u2032-Dihydroxy-3,3\u2032,5,5\u2032-tetra-tert-butyl-1,1\u2032-biphenyl", "3,3\u2032,5,5\u2032-Tetra-tert-butyl-2,2\u2032-dihydroxy-1,1\u2032-biphenyl", "3,3\u2032,5,5\u2032-Tetrakis(tert-butyl)biphenyl-2,2\u2032-diol", "3,3\u2032,5,5\u2032-Tetra-tert-butyl-2,2\u2032-bis(phenol)", "2,2\u2032-Dihydroxy-3,3\u2032,5,5\u2032-tetra-tert-butyl-1,1\u2032-diphenyl", "2,2\u2032-Dihydroxy-3,3\u2032,5,5\u2032-tetra(t-butyl)biphenyl", "2,4-Ditert-butyl-6-(3,5-ditert-butyl-2-hydroxyphenyl)phenol", "Phenol 3,3\u2032,5,5\u2032-tetra-tert-butyl[1,1\u2032-biphenyl]-2,2\u2032-diol", "3,5,3\u2032,5\u2032-Tetra-tert-butyl-biphenyl-2,2\u2032-diol"], "SMILES": "OC1=C(C=C(C(C)(C)C)C=C1C(C)(C)C)C2=C(O)C(C(C)(C)C)=CC(C(C)(C)C)=C2", "physical_data": {"Molecular Weight": "410.63", "Molecular Formula": "C28H42O2", "Melting Point": "186-188 \u00b0C"}}