{"cas_no": "63909-58-0", "cn_name": "(4-\u6c1f\u82c4\u57fa)\u81a6\u9178\u4e8c\u4e59\u916f", "en_name": ["Diethyl P-[(4-fluorophenyl)methyl]phosphonate", "Phosphonic acid, P-[(4-fluorophenyl)methyl]-, diethyl ester", "Phosphonic acid, [(4-fluorophenyl)methyl]-, diethyl ester", "Diethyl P-[(4-fluorophenyl)methyl]phosphonate", "Diethyl (p-fluorophenyl)methanephosphonate", "Diethyl 4-fluorobenzylphosphonate", "4-Fluorobenzylphosphonic acid diethyl ester", "[(4-Fluorophenyl)methyl]phosphonic acid diethyl ester", "1-(Diethoxyphosphorylmethyl)-4-fluorobenzene"], "SMILES": "C(P(OCC)(OCC)=O)C1=CC=C(F)C=C1", "physical_data": {"Molecular Weight": "246.22", "Molecular Formula": "C11H16FO3P", "Boiling Point": "103 \u00b0C"}}