{"cas_no": "63935-38-6", "cn_name": "\u4e59\u6c30\u83ca\u916f", "en_name": ["Cycloprothrin", "Cyclopropanecarboxylic acid, 2,2-dichloro-1-(4-ethoxyphenyl)-, cyano(3-phenoxyphenyl)methyl ester", "Phencyclate", "NK 8116", "GH 414", "Cycloprothrin", "Cyclosal", "Cyclosal (insecticide)"], "SMILES": "C(OC(C#N)C1=CC(OC2=CC=CC=C2)=CC=C1)(=O)C3(C(Cl)(Cl)C3)C4=CC=C(OCC)C=C4", "physical_data": {"Molecular Weight": "482.36", "Molecular Formula": "C26H21Cl2NO4", "Boiling Point": "142.5 \u00b0C", "Melting Point": "&lt;25 \u00b0C"}}