{"cas_no": "6393-01-7", "cn_name": "2,5-\u4e8c\u7532\u57fa-1,4-\u82ef\u4e8c\u80fa", "en_name": ["2,5-Dimethyl-p-phenylenediamine", "1,4-Benzenediamine, 2,5-dimethyl-", "p-Phenylenediamine, 2,5-dimethyl-", "2,5-Dimethyl-1,4-benzenediamine", "2,5-Dimethyl-1,4-diaminobenzene", "1,4-Diamino-2,5-dimethylbenzene", "2,5-Diamino-p-xylene", "2,5-Dimethyl-p-phenylenediamine", "2,5-Dimethyl-1,4-phenylenediamine", "2,5-Diamino-1,4-dimethylbenzene", "1,4-Dimethylphenylene-2,5-diamine"], "SMILES": "CC1=C(N)C=C(C)C(N)=C1", "physical_data": {"Molecular Weight": "136.19", "Molecular Formula": "C8H12N2", "Melting Point": "141-144 \u00b0C"}}