{"cas_no": "6393-40-4", "cn_name": "4-\u6c28\u57fa-3-\u785d\u57fa\u82ef\u7532\u8148", "en_name": ["4-Amino-3-nitrobenzonitrile", "Benzonitrile, 4-amino-3-nitro-", "4-Amino-3-nitrobenzonitrile", "2-Nitro-4-cyanoaniline", "4-Cyano-2-nitroaniline", "3-Nitro-4-aminobenzonitrile"], "SMILES": "N(=O)(=O)C1=CC(C#N)=CC=C1N", "physical_data": {"Molecular Weight": "163.13", "Molecular Formula": "C7H5N3O2", "Melting Point": "159-160 \u00b0C"}}