{"cas_no": "63938-10-3", "cn_name": "\u6c2f\u56db\u6c1f\u4e59\u70f7", "en_name": ["Chlorotetrafluoroethane", "Ethane, chlorotetrafluoro-", "Chlorotetrafluoroethane", "Tetrafluoromonochloroethane", "Tetrafluorochloroethane"], "SMILES": "", "physical_data": {"Molecular Weight": "", "Molecular Formula": "C2HClF4", "Boiling Point": "-10 \u00b0C"}}