{"cas_no": "6396-76-5", "cn_name": "1-(2,6-\u4e8c\u7532\u82ef\u57fa)\u786b\u8132", "en_name": ["N-(2,6-Dimethylphenyl)thiourea", "Thiourea, N-(2,6-dimethylphenyl)-", "Urea, 2-thio-1-(2,6-xylyl)-", "Thiourea, (2,6-dimethylphenyl)-", "N-(2,6-Dimethylphenyl)thiourea", "2,6-Dimethylphenylthiourea", "1-(2,6-Dimethylphenyl)thiourea", "NSC 202179"], "SMILES": "N(C(N)=S)C1=C(C)C=CC=C1C", "physical_data": {"Molecular Weight": "180.27", "Molecular Formula": "C9H12N2S", "Melting Point": "202-204 \u00b0C"}}