{"cas_no": "6396-07-2", "cn_name": "\u4e09\u82ef\u57fa\u81a6\u4e8c\u7898\u5316\u7269", "en_name": ["Diiodotriphenylphosphorane", "Phosphorane, diiodotriphenyl-", "Diiodotriphenylphosphorane", "Triphenylphosphine diiodide"], "SMILES": "P(I)(I)(C1=CC=CC=C1)(C2=CC=CC=C2)C3=CC=CC=C3", "physical_data": {"Molecular Weight": "516.09", "Molecular Formula": "C18H15I2P", "Melting Point": "171-172 \u00b0C"}}