{"cas_no": "63968-64-9", "cn_name": "\u9752\u84bf\u7d20", "en_name": ["Artemisinin", "3,12-Epoxy-12H-pyrano[4,3-j]-1,2-benzodioxepin-10(3H)-one, octahydro-3,6,9-trimethyl-, (3R,5aS,6R,8aS,9R,12S,12aR)-", "3,12-Epoxy-12H-pyrano[4,3-j]-1,2-benzodioxepin-10(3H)-one, octahydro-3,6,9-trimethyl-, [3R-(3\u03b1,5a\u03b2,6\u03b2,8a\u03b2,9\u03b1,12\u03b2,12aR*)]-", "(3R,5aS,6R,8aS,9R,12S,12aR)-Octahydro-3,6,9-trimethyl-3,12-epoxy-12H-pyrano[4,3-j]-1,2-benzodioxepin-10(3H)-one", "Qing Hau Sau", "Artemisinin", "Arteannuin", "Qinghaosu", "Qing Hau Su", "(+)-Artemisinin", "Qinghosu", "(+)-Arteannuin", "(+)-Qinghaosu", "Huanghuahaosu", "Artemisine", "QHS", "NSC 369397", "Artemef", "Artemisinine", "HC 101A", "ARTIVeda", "PulmoHeal"], "SMILES": "CC1C2C34C(OC(C)(OO3)CCC4C(C)CC2)OC1=O", "physical_data": {"Molecular Weight": "282.33", "Molecular Formula": "C15H22O5", "Melting Point": "156-157 \u00b0C", "Density": "1.300 g/cm\u00b3"}}