{"cas_no": "6397-02-0", "cn_name": "\u9178\u6027\u5170 129", "en_name": ["Acid Blue 129", "2-Anthracenesulfonic acid, 1-amino-9,10-dihydro-9,10-dioxo-4-[(2,4,6-trimethylphenyl)amino]-, sodium salt (1:1)", "2-Anthracenesulfonic acid, 1-amino-9,10-dihydro-9,10-dioxo-4-(2,4,6-trimethylanilino)-, monosodium salt", "2-Anthracenesulfonic acid, 1-amino-9,10-dihydro-9,10-dioxo-4-[(2,4,6-trimethylphenyl)amino]-, monosodium salt", "2-Anthracenesulfonic acid, 1-amino-9,10-dihydro-9,10-dioxo-4-(2,4,6-trimethylanilino)-, sodium salt", "Sodium 1-amino-4-(2,4,6-trimethylanilino)anthraquinone-2-sulfonate", "Acid Blue 129", "C.I. Acid Blue 129", "Erionyl Blue E-BFF", "Eriosin Fast Blue BFF", "Fast Acid Light Blue BRL", "Nylomine Blue A 3R", "Solway Blue RB", "Suminol Fast Blue PR", "Tertracid Fast Blue TR", "Alizarine Fast Blue BE", "Neonyl Blue 4R", "Brilliant Alizarine Sky Blue BS", "Erionyl Blue BFF", "Acid Fast Blue BS", "Endanil Blue R", "Kayanol Blue NR", "Nylosan Blue PRL", "Aminyl Blue E-PRL", "Suminol Fast Blue PR conc", "Midlon Blue E", "Acid Blue NR", "Daedo Acid Blue PR", "Kenamide Blue G 3R", "Weak Acid Brilliant Blue P-RL", "Acid Blue 3R", "Fabracid Blue S-E", "Concorde Acid Blue ARL", "Best Acid Blue TR", "Acid Brilliant Blue P-R", "Vicoacid Blue 129", "Acid Blue P-R", "Dycosweak Acid Brilliant Blue P-R", "Triacid Fast Blue BRW", "Apollo Nylon Fast Blue M-FN", "Relon Blue BS", "Weak Acid Brilliant Blue P-R", "Atanyl blue PRL", "AQN 129"], "SMILES": "N(C1=C2C(C(=O)C=3C(C2=O)=CC=CC3)=C(N)C(S(=O)(=O)O)=C1)C4=C(C)C=C(C)C=C4C.[Na]", "physical_data": {"Molecular Weight": "", "Molecular Formula": "C23H20N2O5S.Na", "Melting Point": "&gt;300 \u00b0C"}}