{"cas_no": "63980-69-8", "cn_name": "5-\u6c2f-2-\u7532\u6c27\u57fa\u82ef\u57fa\u786b\u8132", "en_name": ["N-(5-Chloro-2-methoxyphenyl)thiourea", "Thiourea, N-(5-chloro-2-methoxyphenyl)-", "Thiourea, (5-chloro-2-methoxyphenyl)-", "N-(5-Chloro-2-methoxyphenyl)thiourea", "(5-Chloro-2-methoxyphenyl)thiourea", "1-(2-Methoxy-5-chlorophenyl)thiourea", "NSC 25002", "2-Methoxy-5-chlorophenyl thiourea", "(2-Methoxy-5-chlorophenyl)-2-thiourea", "1-(5-Chloro-2-methoxyphenyl)thiourea"], "SMILES": "N(C(N)=S)C1=C(OC)C=CC(Cl)=C1", "physical_data": {"Molecular Weight": "216.69", "Molecular Formula": "C8H9ClN2OS", "Melting Point": "144-145 \u00b0C"}}