{"cas_no": "6398-51-2", "cn_name": "4-(2-\u544b\u5583\u57fa)-1-\u4e01\u70ef-4-\u9187", "en_name": ["\u03b1-2-Propen-1-yl-2-furanmethanol", "2-Furanmethanol, \u03b1-2-propen-1-yl-", "Furfuryl alcohol, \u03b1-allyl-", "2-Furanmethanol, \u03b1-2-propenyl-", "\u03b1-2-Propen-1-yl-2-furanmethanol", "2-(1-Hydroxy-3-butenyl)furan", "\u03b1-Allylfurfuryl alcohol", "\u03b1-(2-Propenyl)-2-furanmethanol", "1-(2-Furyl)-3-butenol", "NSC 75454", "1-(2-Furyl)-3-buten-1-ol", "1-(Furan-2-yl)but-3-en-1-ol"], "SMILES": "C(CC=C)(O)C1=CC=CO1", "physical_data": {"Molecular Weight": "138.16", "Molecular Formula": "C8H10O2", "Boiling Point": "87-93 \u00b0C @ Press: 3 Torr"}}