{"cas_no": "6399-81-1", "cn_name": "\u4e09\u82ef\u57fa\u81a6\u6c22\u6eb4\u9178\u76d0", "en_name": ["Triphenylphosphonium bromide", "Phosphine, triphenyl-, hydrobromide (1:1)", "Phosphine, triphenyl-, hydrobromide", "Phosphine, triphenyl-, compd. with hydrobromic acid", "Triphenylphosphine hydrobromide", "Triphenylphosphonium bromide"], "SMILES": "P(C1=CC=CC=C1)(C2=CC=CC=C2)C3=CC=CC=C3.Br", "physical_data": {"Molecular Weight": "", "Molecular Formula": "C18H15P.BrH", "Melting Point": "202 \u00b0C"}}