{"cas_no": "64-04-0", "cn_name": "\u82ef\u4e59\u80fa", "en_name": ["Benzeneethanamine", "Benzeneethanamine", "Phenethylamine", "(\u03b2-Aminoethyl)benzene", "1-Amino-2-phenylethane", "\u03b2-Phenylethylamine", "\u03b2-Phenethylamine", "2-Phenylethylamine", "2-Phenethylamine", "Ethanamine, 2-phenyl-", "(2-Aminoethyl)benzene", "2-Amino-1-phenylethane", "2-Phenyl-1-ethylamine", "PEA", "N-(2-Phenylethyl)amine", "o-PEA", "2-Phenylethanamine", "NSC 10811", "2-Phenylethaneamine", "Phenylethylamine", "2-Phenylethan-1-amine"], "SMILES": "C(CN)C1=CC=CC=C1", "physical_data": {"Molecular Weight": "121.18", "Molecular Formula": "C8H11N", "Boiling Point": "194.5-195 \u00b0C", "Melting Point": "-60 \u00b0C", "Density": "1.108 g/cm\u00b3 @ Temp: 13 \u00b0C"}}