{"cas_no": "64-02-8", "cn_name": "\u4e59\u4e8c\u80fa\u56db\u4e59\u9178\u56db\u94a0", "en_name": ["Tetrasodium EDTA", "Glycine, N,N\u2032-1,2-ethanediylbis[N-(carboxymethyl)-, sodium salt (1:4)", "Acetic acid, (ethylenedinitrilo)tetra-, tetrasodium salt", "Glycine, N,N\u2032-1,2-ethanediylbis[N-(carboxymethyl)-, tetrasodium salt", "Aquamollin", "Calsol", "Celon E", "Celon H", "Celon IS", "Cheelox BF", "Cheelox BR 33", "Complexone", "Conigon BC", "Distol 8", "Distol", "Edathanil tetrasodium", "EDTA tetrasodium salt", "Endrate tetrasodium", "Ethylenebis[iminodiacetic acid] tetrasodium salt", "(Ethylenedinitrilo)tetraacetic acid tetrasodium salt", "Irgalon", "Kalex", "Komplexon", "Metaquest C", "Nervanaid B", "Nullapon", "Nullapon BF 12", "Nullapon BF 78", "Nullapon BFC Conc", "Nullapon BFC Conc Beads", "Nullapon BFC liquid", "Questex", "Sequestrene 30A", "Syntes 12a", "Tetracemin", "Tetrasodium ethylenediaminetetraacetate", "Tetrasodium (ethylenedinitrilo)tetraacetate", "TST", "Tyclarosol", "Versene 67", "Versene 100", "Versene Beads", "Versene Powder", "Warkeelate S 42", "Warkeelate PS 42", "Warkeelate PS 43", "Warkeelate PS 47", "Nervanaid B liquid", "Ethylenediaminetetraacetic acid tetrasodium salt", "N,N\u2032-1,2-Ethanediylbis[N-(carboxymethyl)glycine] tetrasodium salt", "Sodium edetate", "Edetic acid tetrasodium salt", "Tetracemate tetrasodium", "Tetrasodium edetate", "Nullapon BFC", "Nullapon B", "Edetate sodium", "Chemcolox 200", "Chemcolox 240 Powder", "Hamp-ene Na4", "Hamp-ene 100", "Hamp-ene 215", "Perma-Kleer Tetra CP", "Versene Flake", "Sequestrene Na4", "Sequestrene ST", "Chelon 100", "Syntron B", "Trilon B", "Tetrasodium ethylenediamine-N,N,N\u2032,N\u2032-tetraacetate", "Versene 220", "Ergon", "Aquamollin BC", "Ergon B", "Sodium ethylenediaminetetraacetate", "Trilon TB", "Tetralon A", "Kutrilon CS", "Trilon BVT", "Chelest 400", "Na4EDTA", "Ethylenediamine-N,N,N\u2032,N\u2032-tetraacetic acid tetrasodium salt", "Sulfalox 100", "Permakleer 100", "Dotite 4NA", "Tetrasodium EDTA", "Clewat T", "Hamp-ene 100S", "Clewat S 2", "Mayoquest 200", "EDTA tetrasodium", "Sequestrene", "Tetrine", "E 39", "E 39 (aminocarboxylate)", "Versene 100LN", "Dissolvine E 39", "TPDC", "Chelest D", "Dissolvine Na4", "Versene Na4EDTA", "Zonon DM 600", "Ethylenediaminetetraacetate tetrasodium salt", "Tetrasodium versenate", "Dissolvine NA", "Dissolvine NA-T", "Zonon NO", "Crabion TS", "Trilon BX", "Chelest 2D", "Hamp-ene 220", "Chelest 2DS", "Boron ST", "Trilon B Powder", "Dissolvine 100S", "Dissolvine 220S", "KK 07", "EDETA B Powder", "EDETA B"], "SMILES": "N(CCN(CC(O)=O)CC(O)=O)(CC(O)=O)CC(O)=O.[Na]", "physical_data": {"Molecular Weight": "", "Molecular Formula": "C10H16N2O8.4Na", "Melting Point": "&gt;300 \u00b0C"}}