{"cas_no": "64-10-8", "cn_name": "\u82ef\u57fa\u8132", "en_name": ["Phenylurea", "Urea, N-phenyl-", "Urea, phenyl-", "N-Phenylurea", "Monophenylurea", "Phenylcarbamide", "Phenylurea", "1-Phenylurea", "Stabilisator VH", "Stabilizer VH", "VH", "NSC 2781", "Ethyl 5-nitro-1H-indole-3-carboxylate", "PMSA 954"], "SMILES": "N(C(N)=O)C1=CC=CC=C1", "physical_data": {"Molecular Weight": "136.15", "Molecular Formula": "C7H8N2O", "Boiling Point": "238 \u00b0C", "Melting Point": "147 \u00b0C"}}