{"cas_no": "64-17-5", "cn_name": "\u4e59\u9187", "en_name": ["Ethanol", "Ethanol", "Ethyl alcohol", "Alcohol", "Algrain", "Anhydrol", "Ethyl hydrate", "Ethyl hydroxide", "Jaysol", "Jaysol S", "Methylcarbinol", "Molasses alcohol", "Potato alcohol", "Tecsol", "Alcohol anhydrous", "Denatured ethanol", "Tecsol C", "Alcare Hand Degermer", "SY Fresh M", "Ethicap", "Synasol", "Desinfektol EL", "Duplicating Fluid 100C.NPA", "100C.NPA", "Anhydrol PM 4085", "SDA 3A", "Esumiru WK 88", "Hinetoless", "IMS 99", "Lux", "AHD 2000", "Sekundasprit", "NSC 85228", "Infinity Pure", "CDA 19", "CDA 19-200", "Sterillium Rub", "Germ-X", "Vinic alcohol", "SD 3A", "Denatured alcohol", "Neocol CQ", "Black Warrant", "Bioethanol", "Surfin 96", "SDA 23A", "Amanol SD", "Alpet E", "Alpet NV", "PM 6193-200", "ICON Dry", "Adechiru 750", "Traceable 95", "Shunkol B", "Prethanol A", "LEK 01", "95PGF2", "ProtectorPlus gel", "THS gel", "SD 29 (alcohol)", "MeSH ID: D000431"], "SMILES": "C(C)O", "physical_data": {"Molecular Weight": "46.07", "Molecular Formula": "C2H6O", "Boiling Point": "78.5 \u00b0C", "Melting Point": "-114.1 \u00b0C", "Density": "0.789 g/cm\u00b3 @ Temp: 20 \u00b0C"}}