{"cas_no": "64-19-7", "cn_name": "\u918b\u9178", "en_name": ["Acetic acid", "Acetic acid", "Ethanoic acid", "Ethylic acid", "Glacial acetic acid", "Methanecarboxylic acid", "Vinegar acid", "Ethanoic acid monomer", "Aci-Jel", "E 260", "NSC 111201", "NSC 112209", "NSC 115870", "NSC 127175", "NSC 132953", "NSC 406306", "Munger Horticultural Vinegar Plus", "Weed Pharm", "Engage Agro", "HACP 85", "Acetic acids", "Cedrosa", "Acetic acid HAC", "HZ 006", "MeSH ID: D019342"], "SMILES": "C(C)(O)=O", "physical_data": {"Molecular Weight": "60.05", "Molecular Formula": "C2H4O2", "Boiling Point": "117.9 \u00b0C", "Melting Point": "16.6 \u00b0C", "Density": "1.0446 g/cm\u00b3 @ Temp: 25 \u00b0C"}}