{"cas_no": "64-18-6", "cn_name": "\u7532\u9178", "en_name": ["Formic acid", "Formic acid", "Aminic acid", "Formylic acid", "Hydrogen carboxylic acid", "Methanoic acid", "Bilorin", "Collo-Bueglatt", "Collo-Didax", "Formisoton", "Myrmicyl", "Formira", "Add-F", "Methanoic acid monomer", "Ameisensaure", "Sybest", "Wonderbond Hardener M 600L", "Ensilox", "Amasil", "Amasil 85", "Add-F (silage additive)", "MeSH ID: D005561"], "SMILES": "C(O)=O", "physical_data": {"Molecular Weight": "46.03", "Molecular Formula": "CH2O2", "Boiling Point": "100.5 \u00b0C", "Melting Point": "8.4 \u00b0C", "Density": "1.220 g/cm\u00b3 @ Temp: 20 \u00b0C"}}