{"cas_no": "64-20-0", "cn_name": "\u56db\u7532\u57fa\u6eb4\u5316\u94f5", "en_name": ["Tetramethylammonium bromide", "Methanaminium, N,N,N-trimethyl-, bromide (1:1)", "Tetramethylammonium bromide", "Ammonium, tetramethyl-, bromide", "Methanaminium, N,N,N-trimethyl-, bromide", "Methyl, (dimethylamino)-, methobromide", "TMAB"], "SMILES": "[N+](C)(C)(C)C.[Br-]", "physical_data": {"Molecular Weight": "", "Molecular Formula": "C4H12N.Br", "Melting Point": "230 \u00b0C (decomp)"}}