{"cas_no": "64-47-1", "cn_name": "\u786b\u9178\u4f9d\u8272\u6797", "en_name": ["Pyrrolo[2,3-b]indol-5-ol, 1,2,3,3a,8,8a-hexahydro-1,3a,8-trimethyl-, 5-(N-methylcarbamate), (3aS,8aR)-, sulfate (2:1)", "Pyrrolo[2,3-b]indol-5-ol, 1,2,3,3a,8,8a-hexahydro-1,3a,8-trimethyl-, 5-(N-methylcarbamate), (3aS,8aR)-, sulfate (2:1)", "Physostigmine, sulfate (2:1)", "Pyrrolo[2,3-b]indol-5-ol, 1,2,3,3a,8,8a-hexahydro-1,3a,8-trimethyl-, methylcarbamate (ester), (3aS-cis)-, sulfate (2:1) (salt)", "Pyrrolo[2,3-b]indol-5-ol, 1,2,3,3a,8,8a-hexahydro-1,3a,8-trimethyl-, methylcarbamate (ester), (3aS,8aR)-, sulfate (2:1) (salt)", "Eserine sulfate", "Eserine sulphate", "Physostigmine sulfate", "Physostigmine sulphate", "Physostigmine hemisulfate"], "SMILES": "CC12C=3C(N(C)C1N(C)CC2)=CC=C(OC(NC)=O)C3.S(=O)(=O)(O)O", "physical_data": {"Molecular Weight": "", "Molecular Formula": "C15H21N3O2.<sup>1</sup>/2H2O4S", "Melting Point": "105-106 \u00b0C"}}