{"cas_no": "64-55-1", "cn_name": "\u7f8e\u5e03\u6c28\u916f", "en_name": ["Mebutamate", "1,3-Propanediol, 2-methyl-2-(1-methylpropyl)-, 1,3-dicarbamate", "1,3-Propanediol, 2-sec-butyl-2-methyl-, dicarbamate", "1,3-Propanediol, 2-methyl-2-(1-methylpropyl)-, dicarbamate", "Carbamic acid, 2-sec-butyl-2-methyltrimethylene ester", "W 583", "Axiten", "2-sec-Butyl-2-methyl-1,3-propanediyl dicarbamate", "2-sec-Butyl-2-methyltrimethylene dicarbamate", "Capla", "2,2-Dicarbamyloxymethyl-3-methylpentane", "Mebutamate", "Vallene", "Mebutamat", "Mebutina", "Mioartrina", "No-Press", "Carbuten", "Encapla", "Preminex", "Sigmafon", "Mega", "Butatensin", "Dicamoylmethane", "Prean", "Dormate", "Ipotensivo", "NSC 163921", "2-Methyl-2-(1-methylpropyl)-1,3-propanediol Dicarbamate"], "SMILES": "C(C(CC)C)(COC(N)=O)(COC(N)=O)C", "physical_data": {"Molecular Weight": "232.28", "Molecular Formula": "C10H20N2O4", "Melting Point": "77 \u00b0C"}}