{"cas_no": "64-69-7", "cn_name": "\u7898\u4e59\u9178", "en_name": ["Iodoacetic acid", "Acetic acid, 2-iodo-", "Acetic acid, iodo-", "2-Iodoacetic acid", "Iodoacetic acid", "MIA", "Monoiodoacetic acid", "NSC 2125", "CH2ICOOH", "Iodoacetates", "MeSH ID: D019807", "MeSH ID: D007461"], "SMILES": "C(CI)(O)=O", "physical_data": {"Molecular Weight": "185.95", "Molecular Formula": "C2H3IO2", "Melting Point": "82-83 \u00b0C"}}