{"cas_no": "64-67-5", "cn_name": "\u786b\u9178\u4e8c\u4e59\u916f", "en_name": ["Diethyl sulfate", "Sulfuric acid, diethyl ester", "Ethyl sulfate (Et2SO4)", "Diethyl sulphate", "Diethyl sulfate", "Ethyl sulfate", "DES", "NSC 56380"], "SMILES": "S(OCC)(OCC)(=O)=O", "physical_data": {"Molecular Weight": "154.18", "Molecular Formula": "C4H10O4S", "Boiling Point": "208 \u00b0C", "Melting Point": "-25 \u00b0C", "Density": "1.172 g/cm\u00b3 @ Temp: 25 \u00b0C"}}