{"cas_no": "64-65-3", "cn_name": "\u8d1d\u7f8e\u683c", "en_name": ["Bemegride", "2,6-Piperidinedione, 4-ethyl-4-methyl-", "Glutarimide, 3-ethyl-3-methyl-", "4-Ethyl-4-methyl-2,6-piperidinedione", "NP 13", "Ahypnon", "Bemegrid", "Bemegride", "2,6-Dioxo-4-methyl-4-ethylpiperidine", "4-Ethyl-4-methyl-2,6-dioxopiperidine", "\u03b2-Ethyl-\u03b2-methylglutarimide", "3-Ethyl-3-methylglutarimide", "Eukraton", "Malysol", "Megimide", "Methetharimide", "4-Methyl-4-ethyl-2,6-dioxopiperidine", "\u03b2-Methyl-\u03b2-ethylglutarimide", "3-Methyl-3-ethylglutarimide", "Mikedimide", "Megimid", "Agipnon", "Etimid", "Megibal", "Antibarbi", "Zentraleptin", "NSC 168667", "NSC 58187", "MeSH ID: D001534"], "SMILES": "C(C)C1(C)CC(=O)NC(=O)C1", "physical_data": {"Molecular Weight": "155.19", "Molecular Formula": "C8H13NO2", "Melting Point": "126.5 \u00b0C"}}