{"cas_no": "64-75-5", "cn_name": "\u76d0\u9178\u56db\u73af\u7d20", "en_name": ["(-)-Tetracycline hydrochloride", "2-Naphthacenecarboxamide, 4-(dimethylamino)-1,4,4a,5,5a,6,11,12a-octahydro-3,6,10,12,12a-pentahydroxy-6-methyl-1,11-dioxo-, hydrochloride (1:1), (4S,4aS,5aS,6S,12aS)-", "2-Naphthacenecarboxamide, 4-(dimethylamino)-1,4,4a,5,5a,6,11,12a-octahydro-3,6,10,12,12a-pentahydroxy-6-methyl-1,11-dioxo-, monohydrochloride", "2-Naphthacenecarboxamide, 4-(dimethylamino)-1,4,4a,5,5a,6,11,12a-octahydro-3,6,10,12,12a-pentahydroxy-6-methyl-1,11-dioxo-, monohydrochloride, [4S-(4\u03b1,4a\u03b1,5a\u03b1,6\u03b2,12a\u03b1)]-", "2-Naphthacenecarboxamide, 4-(dimethylamino)-1,4,4a,5,5a,6,11,12a-octahydro-3,6,10,12,12a-pentahydroxy-6-methyl-1,11-dioxo-, monohydrochloride, (4S,4aS,5aS,6S,12aS)-", "Cancycline-250", "Medamycin", "Paltet", "Panmycin hydrochloride", "Polycycline hydrochloride", "Tet-Cy", "Tetracaps", "Tetracycline hydrochloride", "Achromycin hydrochloride", "Subamycin", "Tetracycline chlorohydrate", "Steclin", "Sanclomycine", "Bristaciclina", "Bristacycline", "Hostacycline", "Polyotic ointment", "Dumocyclin", "Tetrabid", "Hostacyclin", "Neocycline B", "Supramycin", "(-)-Tetracycline hydrochloride", "Tetracyklin", "Ro-Cycline", "Diocyclin", "Remicyclin", "Achro", "Tetracyn", "Tetrabon", "Purocyclina", "Criseociclina", "Cefracycline", "Tefilin", "Ala-Tet", "Cyclopar", "Triphacyclin", "Tetracompren", "Tetrachel", "Tetrabakat", "Imex", "Partrex", "Helvecyclin", "Sustamycin", "Riocyclin", "Topicycline", "Tetramavan", "Unicin", "Tetrablet", "Tetralution", "Robitet", "Tetrosol", "TetraSURE", "Ambracyn", "Tetrakap", "Vetquamycin 324", "Quadracyclin", "Talcin", "Laudin", "Heromycin", "Sumycin"], "SMILES": "OC12C(CC3C(=C1O)C(=O)C=4C(C3(C)O)=CC=CC4O)C(N(C)C)C(O)=C(C(N)=O)C2=O.Cl", "physical_data": {"Molecular Weight": "", "Molecular Formula": "C22H24N2O8.ClH", "Melting Point": "214 \u00b0C"}}