{"cas_no": "64-77-7", "cn_name": "\u7532\u82ef\u78fa\u4e01\u8132", "en_name": ["Tolbutamide", "Benzenesulfonamide, N-[(butylamino)carbonyl]-4-methyl-", "Urea, 1-butyl-3-(p-tolylsulfonyl)-", "N-[(Butylamino)carbonyl]-4-methylbenzenesulfonamide", "D 860", "Artosin", "Butamide", "1-Butyl-3-(p-methylphenylsulfonyl)urea", "N-Butyl-N\u2032-p-toluenesulfonylurea", "1-Butyl-3-(p-tolylsulfonyl)urea", "N-n-Butyl-N\u2032-tosylurea", "Diaben", "Diabuton", "Dolipol", "Ipoglicone", "Mobenol", "Orabet", "Oralin", "Orinase", "Rastinon", "N-(Sulfonyl-p-methylbenzene)-N\u2032-n-butylurea", "Tolbutamide", "Toluina", "N-(p-Tolylsulfonyl)-N\u2032-butylcarbamide", "3-(p-Tolyl-4-sulfonyl)-1-butylurea", "Diabetol", "Butamid", "N-(4-Methylphenylsulfonyl)-N\u2032-butylurea", "N-(4-Methylbenzenesulfonyl)-N\u2032-butylurea", "Tolbutamid", "N-Butyl-N\u2032-(p-tolylsulfonyl)urea", "N-Butyl-N\u2032-(4-methylphenylsulfonyl)urea", "Aglicid", "Arkozal", "Artozin", "Diabetamid", "Orezan", "Orinaz", "Tolumid", "Toluvan", "Oterben", "Tolbusal", "Willbutamide", "HLS 831", "N-(p-Methylbenzenesulfonyl)-N\u2032-butylurea", "Tolumide", "Pramidex", "Diasulfon", "Glyconon", "U 2043", "NSC 23813", "NSC 87833", "1-Butyl-3-(4-methylphenyl)sulfonylurea", "3-Butyl-1-(4-methylbenzenesulfonyl)urea", "MeSH ID: D014044"], "SMILES": "S(NC(NCCCC)=O)(=O)(=O)C1=CC=C(C)C=C1", "physical_data": {"Molecular Weight": "270.35", "Molecular Formula": "C12H18N2O3S", "Melting Point": "128.5-129.5 \u00b0C", "Density": "1.245 g/cm\u00b3 @ Temp: 25 \u00b0C"}}