{"cas_no": "64-86-8", "cn_name": "\u79cb\u6c34\u4ed9\u7d20", "en_name": ["Colchicine", "Acetamide, N-[(7S)-5,6,7,9-tetrahydro-1,2,3,10-tetramethoxy-9-oxobenzo[a]heptalen-7-yl]-", "Colchicine", "Acetamide, N-(5,6,7,9-tetrahydro-1,2,3,10-tetramethoxy-9-oxobenzo[a]heptalen-7-yl)-, (S)-", "Benzo[a]heptalene, acetamide deriv.", "N-[(7S)-5,6,7,9-Tetrahydro-1,2,3,10-tetramethoxy-9-oxobenzo[a]heptalen-7-yl]acetamide", "NSC 757", "(S)-N-(5,6,7,9-Tetrahydro-1,2,3,10-tetramethoxy-9-oxobenzo[a]heptalen-7-yl)acetamide", "Colchineos", "Colchisol", "Colcin", "Colsaloid", "Condylon", "(-)-Colchicine", "Colcrys", "(S)-N-(1,2,3,10-Tetramethoxy-9-oxo-5,6,7,9-tetrahydrobenzo[a]heptalen-7-yl)acetamide", "Mitigare", "Zycolchin", "MeSH ID: D003078"], "SMILES": "O(C)C1=C2C=3C(C(NC(C)=O)CCC2=CC(OC)=C1OC)=CC(=O)C(OC)=CC3", "physical_data": {"Molecular Weight": "399.44", "Molecular Formula": "C22H25NO6", "Melting Point": "142-150 \u00b0C"}}