{"cas_no": "64-85-7", "cn_name": "\u53bb\u6c27\u76ae\u8d28\u916e", "en_name": ["Deoxycorticosterone", "Pregn-4-ene-3,20-dione, 21-hydroxy-", "11-Deoxycorticosterone", "21-Hydroxypregn-4-ene-3,20-dione", "Cortexone", "11-Dehydroxycorticosterone", "Deoxycortone", "Desoxycorticosterone", "11-Desoxycorticosterone", "Desoxycortone", "DOC", "21-Hydroxy-\u03944-pregnene-3,20-dione", "21-Hydroxyprogesterone", "Kendall's desoxy compound B", "4-Pregnen-21-ol-3,20-dione", "Reichstein's substance Q", "Corticosterone, 11-deoxy-", "Deoxycorticosterone", "\u03944-Pregnene-21-ol-3,20-dione", "21-Hydroxy-3,20-dioxopregn-4-ene", "21-Hydroxy-\u03944-pregnane-3,20-dione", "DOC (steroid)", "NSC 11319", "MeSH ID: D003900"], "SMILES": "CC12C(C3C(C4(C)C(CC3)=CC(=O)CC4)CC1)CCC2C(CO)=O", "physical_data": {"Molecular Weight": "330.46", "Molecular Formula": "C21H30O3", "Melting Point": "141.5 \u00b0C", "Density": "1.22 g/cm\u00b3"}}