{"cas_no": "64-99-3", "cn_name": "ETIMIZOL", "en_name": ["Ethimizol", "1H-Imidazole-4,5-dicarboxamide, 1-ethyl-N4,N5-dimethyl-", "Imidazole-4,5-dicarboxamide, 1-ethyl-N,N\u2032-dimethyl-", "1H-Imidazole-4,5-dicarboxamide, 1-ethyl-N,N\u2032-dimethyl-", "1-Ethyl-N4,N5-dimethyl-1H-imidazole-4,5-dicarboxamide", "Ethimizol", "Ethylnorantiffeine", "Antiffine", "Ethymisol", "Ethylnorantifein", "Ethymisole", "Ethimizole", "N,N\u2032-Dimethyl-1-ethylimidazole-4,5-dicarboxamide", "Etimizol", "Etimizole", "Ethylnorantifeine", "1-Ethyl-N4,N5-dimethyl-1H-imidazole-4,5-dicarboxamide", "1-Ethyl-N4,N5-dimethyl-imidazole-4,5-dicarboxamide", "1-Ethyl-4-N,5-N-dimethylimidazole-4,5-dicarboxamide", "MeSH ID: D005042"], "SMILES": "C(NC)(=O)C1=C(C(NC)=O)N=CN1CC", "physical_data": {"Molecular Weight": "210.23", "Molecular Formula": "C9H14N4O2", "Melting Point": "142-143 \u00b0C"}}