{"cas_no": "640-60-8", "cn_name": "\u5bf9\u7532\u82ef\u4e9a\u78fa\u9178\u82ef\u916f", "en_name": ["Phenyl tosylate", "Benzenesulfonic acid, 4-methyl-, phenyl ester", "p-Toluenesulfonic acid, phenyl ester", "Phenyl p-toluenesulfonate", "Phenyl tosylate", "Phenyl 4-toluenesulfonate", "Phenyl toluenesulfonate", "NSC 10407", "NSC 14917", "Phenyl p-methylbenzenesulfonate", "Phenyl 4-methylbenzenesulfonate", "2-[[(4-Methylphenyl)sulfonyl]oxy]benzene"], "SMILES": "S(OC1=CC=CC=C1)(=O)(=O)C2=CC=C(C)C=C2", "physical_data": {"Molecular Weight": "248.30", "Molecular Formula": "C13H12O3S", "Boiling Point": "155-158 \u00b0C @ Press: 7 Torr", "Melting Point": "93 \u00b0C"}}