{"cas_no": "640-87-9", "cn_name": "\u5b55\u753e-4-\u70ef-17\u03b1,21-\u4e8c\u9187-3,20-\u4e8c\u916e-21-\u918b\u9178\u916f", "en_name": ["21-(Acetyloxy)-17-hydroxypregn-4-ene-3,20-dione", "Pregn-4-ene-3,20-dione, 21-(acetyloxy)-17-hydroxy-", "Pregn-4-ene-3,20-dione, 17,21-dihydroxy-, 21-acetate", "Corticosterone, 11-deoxy-17-hydroxy-, 21-acetate", "21-(Acetyloxy)-17-hydroxypregn-4-ene-3,20-dione", "Reichstein-S-acetate", "Reichstein's substance S acetate", "Reichstein's substance S 21-acetate", "21-Acetoxy-17-hydroxypregn-4-ene-3,20-dione", "4-Pregnene-17\u03b1,21-diol-3,20-dione 21-acetate", "17,21-Dihydroxypregn-4-ene-3,20-dione 21-acetate", "17\u03b1-Hydroxy-11-deoxycorticosterone-21-acetate", "Reichstein substance S 21-acetate", "17-Hydroxy-21-acetoxyprogesterone", "11-Deoxycortisol 21-acetate", "Cortodoxon 21-acetate", "21-Acetoxy-17\u03b1-hydroxyprogesterone", "NSC 81196", "Cortexolone 21-acetate"], "SMILES": "CC12C(C3C(C4(C)C(CC3)=CC(=O)CC4)CC1)CCC2(C(COC(C)=O)=O)O", "physical_data": {"Molecular Weight": "388.50", "Molecular Formula": "C23H32O5", "Melting Point": "235-238 \u00b0C", "Density": "1.4 g/cm\u00b3"}}