{"cas_no": "640-19-7", "cn_name": "\u6c1f\u4e59\u9170\u80fa", "en_name": ["Fluoroacetamide", "Acetamide, 2-fluoro-", "2-Fluoroacetamide", "AFL 1081", "Compound 1081", "Fluorakil 100", "Fussol", "Megatox", "Fluoroacetamide", "Monofluoroacetamide", "Fluoroacetic acid amide", "Flutritex 1", "1081", "\u03b1-Fluoroacetamide", "NSC 31876"], "SMILES": "C(CF)(N)=O", "physical_data": {"Molecular Weight": "77.06", "Molecular Formula": "C2H4FNO", "Melting Point": "108 \u00b0C"}}