{"cas_no": "640-61-9", "cn_name": "N-\u7532\u57fa\u5bf9\u7532\u82ef\u78fa\u9170\u80fa", "en_name": ["N-Methyl-p-toluenesulfonamide", "Benzenesulfonamide, N,4-dimethyl-", "p-Toluenesulfonamide, N-methyl-", "N,4-Dimethylbenzenesulfonamide", "N-Methyl-p-toluenesulfonamide", "(p-Tolylsulfonyl)methylamine", "N-Methyl-p-toluenesulphonamide", "N-Methyl-4-methylbenzenesulfonamide", "4,N-Dimethylbenzenesulfonamide", "NSC 2223", "NSC 36991", "N-Methyl-para-toluenesulfonamide", "4-Methyl-N-methylbenzenesulfonamide"], "SMILES": "S(NC)(=O)(=O)C1=CC=C(C)C=C1", "physical_data": {"Molecular Weight": "185.24", "Molecular Formula": "C8H11NO2S", "Melting Point": "78.5 \u00b0C"}}