{"cas_no": "640-15-3", "cn_name": "\u7532\u57fa\u4e59\u62cc\u78f7", "en_name": ["Thiometon", "Phosphorodithioic acid, S-[2-(ethylthio)ethyl] O,O-dimethyl ester", "Ethanethiol, 2-(ethylthio)-, S-ester with O,O-dimethyl phosphorodithioate", "Ekatin aerosol", "S-[2-(Ethylthio)ethyl] O,O-dimethyl phosphorodithioate", "Intrathion", "Intration", "Thiometon", "Ekatin", "M 81", "O,O-Dimethyl S-(2-ethylthioethyl) dithiophosphate", "Veltin", "M 81 (pharmaceutical)", "Dithiometon"], "SMILES": "P(SCCSCC)(OC)(OC)=S", "physical_data": {"Molecular Weight": "246.35", "Molecular Formula": "C6H15O2PS3", "Boiling Point": "110 \u00b0C @ Press: 0.1 Torr", "Melting Point": "&lt;25 \u00b0C", "Density": "1.209 g/cm\u00b3 @ Temp: 20 \u00b0C"}}