{"cas_no": "640-68-6", "cn_name": "D-\u7f2c\u6c28\u9178", "en_name": ["D-Valine", "D-Valine", "Valine, D-", "(R)-Valine", "D-(-)-Valine", "NSC 20654", "(-)-2-Amino-3-methylbutyric acid", "(R)-3-Methyl-2-aminobutanoic acid", "(R)-2-Amino-3-methylbutanoic acid", "(R)-2-Amino-3-methylbutanoic acid", "(2R)-2-Amino-3-methylbutanoic acid"], "SMILES": "C(C(C)C)(C(O)=O)N", "physical_data": {"Molecular Weight": "117.15", "Molecular Formula": "C5H11NO2", "Melting Point": "280 \u00b0C"}}