{"cas_no": "640-57-3", "cn_name": "\u82ef\u57fa\u5bf9\u7532\u82ef\u78fa\u9178", "en_name": ["1-Methyl-4-(phenylsulfonyl)benzene", "Benzene, 1-methyl-4-(phenylsulfonyl)-", "Sulfone, phenyl p-tolyl", "1-Methyl-4-(phenylsulfonyl)benzene", "4-Methyldiphenyl sulfone", "Phenyl p-tolyl sulfone", "p-Tolyl phenyl sulfone", "4-Methylphenyl phenyl sulfone", "4-(Phenylsulfonyl)toluene", "p-Methyldiphenyl sulfone", "NSC 2724", "NSC 633012", "NSC 91059", "p-Methylphenyl phenyl sulfone", "1-(Benzenesulfonyl)-4-methylbenzene", "1-Benzenesulfonyl-4-methyl-benzene"], "SMILES": "S(=O)(=O)(C1=CC=C(C)C=C1)C2=CC=CC=C2", "physical_data": {"Molecular Weight": "232.30", "Molecular Formula": "C13H12O2S", "Melting Point": "125-125.5 \u00b0C"}}