{"cas_no": "64019-93-8", "cn_name": "\u76d0\u9178\u5730\u5339\u798f\u6797", "en_name": ["Dipivefrin hydrochloride", "Propanoic acid, 2,2-dimethyl-, 1,1\u2032-[4-[1-hydroxy-2-(methylamino)ethyl]-1,2-phenylene] ester, hydrochloride (1:1)", "Propanoic acid, 2,2-dimethyl-, 4-[1-hydroxy-2-(methylamino)ethyl]-1,2-phenylene ester, hydrochloride, (\u00b1)-", "Propanoic acid, 2,2-dimethyl-, 4-[1-hydroxy-2-(methylamino)ethyl]-1,2-phenylene ester, hydrochloride", "Dipivefrin hydrochloride", "Pivalephrine", "Diopine", "D Epifrin", "Propine", "Diphemin", "Dipivefrine hydrochloride"], "SMILES": "O(C(C(C)(C)C)=O)C1=C(OC(C(C)(C)C)=O)C=CC(C(CNC)O)=C1.Cl", "physical_data": {"Molecular Weight": "", "Molecular Formula": "C19H29NO5.ClH", "Melting Point": "158-159 \u00b0C"}}