{"cas_no": "6402-36-4", "cn_name": "\u53cd\u5f0f-2-\u5341\u4e8c\u78b3\u70ef\u4e8c\u9178", "en_name": ["Traumatic acid", "2-Dodecenedioic acid, (2E)-", "2-Dodecenedioic acid, (E)-", "Traumatic acid", "2-Dodecenedioic acid, trans-", "(2E)-2-Dodecenedioic acid", "trans-2-Dodecenedioic acid", "(E)-2-Dodecenedioic acid", "trans-Traumatic acid"], "SMILES": "C(CC(O)=O)CCCCCCC=CC(O)=O", "physical_data": {"Molecular Weight": "228.28", "Molecular Formula": "C12H20O4", "Melting Point": "165.5 \u00b0C"}}