{"cas_no": "6402-09-1", "cn_name": "3-\u7532\u57fa-1-(4-\u785d\u57fa\u82ef)-5-\u5421\u5511\u5549\u916e", "en_name": ["1-(4-Nitrophenyl)-3-methyl-5-pyrazolone", "3H-Pyrazol-3-one, 2,4-dihydro-5-methyl-2-(4-nitrophenyl)-", "2-Pyrazolin-5-one, 3-methyl-1-(p-nitrophenyl)-", "2,4-Dihydro-5-methyl-2-(4-nitrophenyl)-3H-pyrazol-3-one", "3-Methyl-N\u2032-(p-nitrophenyl)-5-pyrazolone", "1-p-Nitrophenyl-3-methyl-5-pyrazolone", "3-Methyl-1-(4-nitrophenyl)-5-pyrazolone", "3-Methyl-1-(4-nitrophenyl)-2-pyrazolin-5-one", "1-(4-Nitrophenyl)-3-methyl-5-pyrazolone", "NSC 15353", "1-(4-Nitrophenyl)-3-methyl-2-pyrazolin-5-one", "2,4-Dihydro-2-(p-nitrophenyl)-5-methyl-3H-pyrazol-3-one", "3-Methyl-1-(4-nitrophenyl)-1H-pyrazol-5(4H)-one", "3-Methyl-1-(4-nitrophenyl)-4,5-dihydro-1H-pyrazol-5-one"], "SMILES": "O=C1N(N=C(C)C1)C2=CC=C(N(=O)=O)C=C2", "physical_data": {"Molecular Weight": "219.20", "Molecular Formula": "C10H9N3O3", "Melting Point": "218 \u00b0C"}}