{"cas_no": "64038-64-8", "cn_name": "2-\u5def\u57fa\u54aa\u5511-4-\u7532\u9178\u4e59\u916f", "en_name": ["Ethyl 2,3-dihydro-2-thioxo-1H-imidazole-4-carboxylate", "1H-Imidazole-4-carboxylic acid, 2,3-dihydro-2-thioxo-, ethyl ester", "Imidazole-4(or 5)-carboxylic acid, 2-mercapto-, ethyl ester", "Ethyl 2,3-dihydro-2-thioxo-1H-imidazole-4-carboxylate", "Ethyl 2-mercaptoimidazole-4-carboxylate", "Ethyl 2-mercapto-1H-imidazole-4-carboxylate", "2-Mercapto-1H-imidazole-4-carboxylic acid ethyl ester", "4-Ethoxycarbonyl-2-mercaptoimidazole"], "SMILES": "C(OCC)(=O)C1=CNC(=S)N1", "physical_data": {"Molecular Weight": "172.20", "Molecular Formula": "C6H8N2O2S", "Melting Point": "184 \u00b0C"}}