{"cas_no": "64036-71-1", "cn_name": "4,6-\u4e8c\u7532\u57fa-2-\u6c28\u57fa\u82ef\u5e76\u567b\u5511", "en_name": ["2-Benzothiazolamine, 4,6-dimethyl-", "2-Benzothiazolamine, 4,6-dimethyl-", "4,6-Dimethyl-2-benzothiazolamine", "4,6-Dimethyl-1,3-benzothiazol-2-ylamine", "NSC 158038", "(4,6-Dimethylbenzothiazol-2-yl)amine", "2-Amino-4,6-dimethylbenzothiazole", "4,6-Dimethylbenzo[d]thiazol-2-amine"], "SMILES": "CC1=C2C(SC(N)=N2)=CC(C)=C1", "physical_data": {"Molecular Weight": "178.25", "Molecular Formula": "C9H10N2S", "Melting Point": "138 \u00b0C"}}