{"cas_no": "6403-16-3", "cn_name": "H-SER-GLU-OH", "en_name": ["N-L-Seryl-L-glutamic acid", "L-Glutamic acid, L-seryl-", "Glutamic acid, N-L-seryl-, L-", "L-Glutamic acid, N-L-seryl-", "L-Seryl-L-glutamic acid", "N-L-Seryl-L-glutamic acid", "Serylglutamic acid", "455: PN: WO2005081628 SEQID: 457 claimed protein", "L-Selectin (human clone MMPLNHR_P6 fragment)", "76: PN: US20100075891 SEQID: 76 claimed protein", "47: PN: WO2014063098 TABLE: 5 claimed sequence", "161: PN: US20130123467 SEQID: 193 claimed protein"], "SMILES": "C(NC(C(CO)N)=O)(CCC(O)=O)C(O)=O", "physical_data": {"Molecular Weight": "234.21", "Molecular Formula": "C8H14N2O6", "Melting Point": "192-195 \u00b0C"}}