{"cas_no": "64030-44-0", "cn_name": "(S)-(+)-2-(\u82ef\u80fa\u7532\u57fa)\u5421\u54af\u70f7", "en_name": ["(2S)-N-Phenyl-2-pyrrolidinemethanamine", "2-Pyrrolidinemethanamine, N-phenyl-, (2S)-", "2-Pyrrolidinemethanamine, N-phenyl-, (S)-", "(2S)-N-Phenyl-2-pyrrolidinemethanamine", "(S)-2-(Anilinomethyl)pyrrolidine", "(S)-2-(Phenylaminomethyl)pyrrolidine", "(2S)-(Anilinomethyl)pyrrolidine", "(S)-(+)-2-(Anilinomethyl)pyrrolidine", "(+)-2-(Anilinomethyl)pyrrolidine", "(2S)-2-Phenylaminomethylpyrrolidine", "(S)-N-(Pyrrolidin-2-ylmethyl)aniline", "2-Pyrrolidinemethanamine N-phenyl-, (2S)-"], "SMILES": "N(CC1CCCN1)C2=CC=CC=C2", "physical_data": {"Molecular Weight": "176.26", "Molecular Formula": "C11H16N2", "Boiling Point": "111-112 \u00b0C @ Press: 0.55 Torr"}}