{"cas_no": "6404-31-5", "cn_name": "N-\u82c4\u6c27\u7fb0\u57fa-D-\u812f\u6c28\u9178", "en_name": ["N-(Benzyloxycarbonyl)-D-proline", "1,2-Pyrrolidinedicarboxylic acid, 1-(phenylmethyl) ester, (2R)-", "1,2-Pyrrolidinedicarboxylic acid, 1-benzyl ester, D-", "1,2-Pyrrolidinedicarboxylic acid, 1-(phenylmethyl) ester, (R)-", "(Benzyloxycarbonyl)-D-proline", "N-(Benzyloxycarbonyl)-D-proline", "1-(Benzyloxycarbonyl)-D-proline", "N-(Benzyloxycarbonyl)-(R)-proline", "N-Carbobenzyloxy-D-proline", "(2R)-1-(Benzyloxycarbonyl)pyrrolidine-2-carboxylic acid", "(R)-1-(Benzyloxycarbonyl)pyrrolidine-2-carboxylic acid", "(R)-1-(Benzyloxycarbonyl)pyrrolidine-2-carboxylic acid", "D-Cbz-Proline", "(2R)-1-Phenylmethoxycarbonylpyrrolidine-2-carboxylic acid", "(2R)-1-[(Benzyloxy)carbonyl]pyrrolidine-2-carboxylic acid", "(R)-N-BenzyloxycarbonyLproline"], "SMILES": "C(OCC1=CC=CC=C1)(=O)N2C(C(O)=O)CCC2", "physical_data": {"Molecular Weight": "249.26", "Molecular Formula": "C13H15NO4", "Melting Point": "76.5-77.5 \u00b0C"}}