{"cas_no": "6404-29-1", "cn_name": "\u53d4\u4e01\u6c27\u7fb0\u9170\u57fa6-\u6c28\u57fa\u5df1\u9178", "en_name": ["6-[(tert-Butoxycarbonyl)amino]hexanoic acid", "Hexanoic acid, 6-[[(1,1-dimethylethoxy)carbonyl]amino]-", "Hexanoic acid, 6-(carboxyamino)-, N-tert-butyl ester", "Hexanoic acid, 6-(carboxyamino)-, 6-tert-butyl ester", "6-[[(1,1-Dimethylethoxy)carbonyl]amino]hexanoic acid", "N-(tert-Butyloxycarbonyl)-\u03b5-aminocaproic acid", "N-(tert-Butoxycarbonyl)-6-aminohexanoic acid", "N-(tert-Butoxycarbonyl)-\u03b5-aminohexanoic acid", "tert-Butoxycarbonyl-\u03b5-aminocaproic acid", "N-(tert-Butoxycarbonyl)-\u03b5-aminocaproic acid", "N-(tert-Butoxycarbonyl)-6-aminocaproic acid", "BOC-\u03b5-aminocaproic acid", "6-[N-(tert-Butoxycarbonyl)amino]caproic acid", "N-Boc-aminohexanoic acid", "6-(tert-Butoxycarbonylamino)caproic acid", "Boc-6-aminohexanoic acid", "6-[(tert-Butoxycarbonyl)amino]hexanoic acid", "1-tert-Butoxycarbonylamino-6-hexanoic acid", "N-BOC-6-aminocaproic acid"], "SMILES": "O(C(NCCCCCC(O)=O)=O)C(C)(C)C", "physical_data": {"Molecular Weight": "231.29", "Molecular Formula": "C11H21NO4", "Melting Point": "36 \u00b0C"}}