{"cas_no": "64051-79-2", "cn_name": "3-\u7f9f\u57fa\u54cc\u5576\u76d0\u9178\u76d0", "en_name": ["3-Hydroxypiperidine hydrochloride", "3-Piperidinol, hydrochloride (1:1)", "3-Piperidinol, hydrochloride", "3-Hydroxypiperidine hydrochloride"], "SMILES": "OC1CCCNC1.Cl", "physical_data": {"Molecular Weight": "", "Molecular Formula": "C5H11NO.ClH", "Melting Point": "249-250 \u00b0C"}}