{"cas_no": "64067-99-8", "cn_name": "6-\u6c2f\u54aa\u5511\u5e76[1,2-B]\u54d2\u55ea-2-\u7532\u9178\u4e59\u916f", "en_name": ["Imidazo[1,2-b]pyridazine-2-carboxylic acid, 6-chloro-, ethyl ester", "Imidazo[1,2-b]pyridazine-2-carboxylic acid, 6-chloro-, ethyl ester", "Ethyl 6-chloroimidazo[1,2-b]pyridazine-2-carboxylate", "6-Chloroimidazo[1,2-b]pyridazine-2-carboxylic acid ethyl ester"], "SMILES": "C(OCC)(=O)C1=CN2C(=N1)C=CC(Cl)=N2", "physical_data": {"Molecular Weight": "225.63", "Molecular Formula": "C9H8ClN3O2", "Melting Point": "159-161 \u00b0C"}}