{"cas_no": "64063-37-2", "cn_name": "2,6-\u4e8c\u6c2f-3-\u7532\u57fa\u82ef\u80fa", "en_name": ["2,6-Dichloro-3-methylaniline", "Benzenamine, 2,6-dichloro-3-methyl-", "2,6-Dichloro-3-methylbenzenamine", "2,6-Dichloro-3-methylaniline", "2,6-Dichloro-3-methylphenylamine"], "SMILES": "ClC1=C(N)C(Cl)=CC=C1C", "physical_data": {"Molecular Weight": "176.04", "Molecular Formula": "C7H7Cl2N", "Melting Point": "37-38 \u00b0C"}}