{"cas_no": "6406-74-2", "cn_name": "4-\u6c28\u57fa-N,N-\u4e8c\u7532\u57fa\u82c4\u57fa\u80fa", "en_name": ["4-Amino-N,N-dimethylbenzenemethanamine", "Benzenemethanamine, 4-amino-N,N-dimethyl-", "Toluene-\u03b1,4-diamine, N\u03b1,N\u03b1-dimethyl-", "4-Amino-N,N-dimethylbenzenemethanamine", "N-(p-Aminobenzyl)dimethylamine", "4-Amino-N,N-dimethylbenzylamine", "4-(Dimethylaminomethyl)aniline", "4-[(N,N-Dimethylamino)methyl]aniline", "NSC 207808", "4-(Dimethylaminomethyl)phenylamine"], "SMILES": "C(N(C)C)C1=CC=C(N)C=C1", "physical_data": {"Molecular Weight": "150.22", "Molecular Formula": "C9H14N2", "Boiling Point": "221-223 \u00b0C"}}