{"cas_no": "6408-72-6", "cn_name": "\u5206\u6563\u7d2b26", "en_name": ["Disperse Violet 26", "9,10-Anthracenedione, 1,4-diamino-2,3-diphenoxy-", "C.I. Disperse Violet 26", "1,4-Diamino-2,3-diphenoxy-9,10-anthracenedione", "C.I. 62025", "1,4-Diamino-2,3-diphenoxyanthraquinone", "Mowilith Red 3B", "Mowilith Red TBP", "C.I. Disperse Violet 31", "Sumikaron Bordeaux B", "Resolin Red Violet FBL", "Samaron Violet HFRL", "Dispersol Violet C 4R", "Disperse Violet 26", "PTV 57", "Solvaperm Red Violet R", "Red Violet R", "Macrolex Red Violet R", "Sumiplast Bordeaux HBL", "Kayalon Polyester Red Violet FBL", "Navilene Red Violet IFBL", "Sumikaron Bordeaux SE-BL", "Disperse Violet HFRL", "Navilene Red Violet FBL", "Serene Disperse Violet 26", "Plast Red 8380", "Solvent Violet 59", "C.I. Solvent Violet 59", "Sandoplast Red Violet R", "Disperse Violet 31", "Disperse Violet SE-BL", "Disperse Violet 26/31", "Kenawax Violet 5RP"], "SMILES": "NC1=C2C(=C(N)C(OC3=CC=CC=C3)=C1OC4=CC=CC=C4)C(=O)C=5C(C2=O)=CC=CC5", "physical_data": {"Molecular Weight": "422.43", "Molecular Formula": "C26H18N2O4", "Melting Point": "195 \u00b0C"}}