{"cas_no": "64096-87-3", "cn_name": "1,1-\u4e8c\u6c27\u4ee3-\u516d\u6c22-1L6-\u786b\u57fa\u5421\u5583-4-\u7532\u9178", "en_name": ["Tetrahydro-2H-thiopyran-4-carboxylic acid 1,1-dioxide", "2H-Thiopyran-4-carboxylic acid, tetrahydro-, 1,1-dioxide", "Tetrahydro-2H-thiopyran-4-carboxylic acid 1,1-dioxide", "1,1-Dioxohexahydrothiopyran-4-carboxylic acid", "1,1-Dioxido-tetrahydro-2H-thiopyran-4-carboxylic acid", "Tetrahydrothiopyran-4-carboxylic acid 1,1-dioxide", "1,1-Dioxo-1\u03bb6-thiane-4-carboxylic acid", "1,1-Dioxotetrahydrothiopyran-4-carboxylic acid"], "SMILES": "C(O)(=O)C1CCS(=O)(=O)CC1", "physical_data": {"Molecular Weight": "178.21", "Molecular Formula": "C6H10O4S", "Melting Point": "194-196 \u00b0C"}}