{"cas_no": "641-77-0", "cn_name": "\u8131\u6c27\u76ae\u8d28\u9187", "en_name": ["21-Deoxycortisol", "Pregn-4-ene-3,20-dione, 11,17-dihydroxy-, (11\u03b2)-", "Pregn-4-ene-3,20-dione, 11\u03b2,17-dihydroxy-", "Progesterone, 11\u03b2,17-dihydroxy-", "(11\u03b2)-11,17-Dihydroxypregn-4-ene-3,20-dione", "11\u03b2,17\u03b1-Dihydroxypregn-4-ene-3,20-dione", "Pregn-4-ene-11\u03b2,17\u03b1-diol-3,20-dione", "21-Deoxycortisol", "21-Desoxycortisol", "11\u03b2,17\u03b1-Dihydroxyprogesterone", "21-Dehydrohydrocortisone", "21-Deoxyhydrocortisone"], "SMILES": "CC12C(C3C(C4(C)C(CC3)=CC(=O)CC4)C(O)C1)CCC2(C(C)=O)O", "physical_data": {"Molecular Weight": "346.46", "Molecular Formula": "C21H30O4", "Melting Point": "225-228 \u00b0C"}}