{"cas_no": "641-39-4", "cn_name": "\u69d0\u5b9a\u78b1", "en_name": ["(7aS,13aR,13bR,13cR)-Dodecahydro-1H,5H,10H-dipyrido[2,1-f:3\u2032,2\u2032,1\u2032-ij][1,6]naphthyridin-10-one", "1H,5H,10H-Dipyrido[2,1-f:3\u2032,2\u2032,1\u2032-ij][1,6]naphthyridin-10-one, dodecahydro-, (7aS,13aR,13bR,13cR)-", "Allomatrine", "Matridin-15-one, (6\u03b2)-", "(7aS,13aR,13bR,13cR)-Dodecahydro-1H,5H,10H-dipyrido[2,1-f:3\u2032,2\u2032,1\u2032-ij][1,6]naphthyridin-10-one", "6-Allomatrine", "6\u03b2-Matrine", "(+)-6-Allomatrine", "Tetrahydroisosophoramine", "(+)-Allomatrine", "1H,5H,10H-Dipyrido[2,1-f:3\u2032,2\u2032,1\u2032-ij][1,6]naphthyridin-10-one, dodecahydro-, [7aS-(7a\u03b1,13a\u03b2,13b\u03b1,13c\u03b2)]-", "Allmatrine"], "SMILES": "O=C1N2C(C3C4C(C2)CCCN4CCC3)CCC1", "physical_data": {"Molecular Weight": "248.36", "Molecular Formula": "C15H24N2O", "Melting Point": "103-105 \u00b0C"}}