{"cas_no": "641-74-7", "cn_name": "1,4:3,6-\u53cc\u8131\u6c34\u7518\u9732\u9187", "en_name": ["Isomannide", "D-Mannitol, 1,4:3,6-dianhydro-", "Mannitol, 1,4:3,6-dianhydro-, D-", "1,4:3,6-Dianhydro-D-mannitol", "Furo[3,2-b]furan, D-mannitol deriv.", "Isomannide", "(+)-Isomannide", "1,4:3,6-Dianhydromannitol", "Dianhydromannitol", "NSC 270938", "(3R,3aR,6R,6aR)-Hexahydrofuro[3,2-b]furan-3,6-diol", "D-Isomannide"], "SMILES": "OC1C2C(C(O)CO2)OC1", "physical_data": {"Molecular Weight": "146.14", "Molecular Formula": "C6H10O4", "Boiling Point": "95-99 \u00b0C @ Press: 0.8 Torr", "Melting Point": "88 \u00b0C"}}