{"cas_no": "641-38-3", "cn_name": "\u4ea4\u94fe\u5b62\u915a", "en_name": ["Alternariol", "6H-Dibenzo[b,d]pyran-6-one, 3,7,9-trihydroxy-1-methyl-", "Alternariol", "3,7,9-Trihydroxy-1-methyl-6H-dibenzo[b,d]pyran-6-one", "NSC 638263", "3,7,9-Trihydroxy-1-methylbenzo[c]chromen-6-one"], "SMILES": "CC1=C2C=3C(C(=O)OC2=CC(O)=C1)=C(O)C=C(O)C3", "physical_data": {"Molecular Weight": "258.23", "Molecular Formula": "C14H10O5", "Melting Point": "350 \u00b0C"}}