{"cas_no": "641-70-3", "cn_name": "3-\u785d\u57fa\u90bb\u82ef\u4e8c\u7532\u9178\u9150", "en_name": ["3-Nitrophthalic anhydride", "1,3-Isobenzofurandione, 4-nitro-", "Phthalic anhydride, 3-nitro-", "4-Nitro-1,3-isobenzofurandione", "3-Nitrophthalic anhydride", "3-Nitrophthalic acid anhydride", "NSC 27006", "NSC 4134", "4-Nitroisobenzofuran-1,3-dione", "4-Nitro-2-benzofuran-1,3-dione"], "SMILES": "N(=O)(=O)C1=C2C(C(=O)OC2=O)=CC=C1", "physical_data": {"Molecular Weight": "193.11", "Molecular Formula": "C8H3NO5", "Melting Point": "164 \u00b0C", "Density": "1.364 g/cm\u00b3 @ Temp: 25.00 \u00b0C"}}