{"cas_no": "6410-10-2", "cn_name": "\u5bf9\u4f4d\u7ea2", "en_name": ["Pigment Red 1", "2-Naphthalenol, 1-[2-(4-nitrophenyl)diazenyl]-", "C.I. Pigment Red 1", "2-Naphthalenol, 1-[(4-nitrophenyl)azo]-", "2-Naphthol, 1-(p-nitrophenylazo)-", "1-[2-(4-Nitrophenyl)diazenyl]-2-naphthalenol", "C.I. 12070", "C.P. Britelite Toner RP 9", "Carnelio Para Red BS", "Carnelio Para Red YS", "Conc. Para Red", "Conc. Para Red YS", "Dainichi Para Red Toner", "Duplex Para Red XD 20-2900", "Eljon Para Red", "Federal Red", "Isol Para Red B", "Kromon Para Red BS", "Kromon Para Red YS", "Label Red", "Lacal Red GN", "Lake Red 2R", "Lake Red PN", "Lutetia Red B", "Lutetia Red N", "Monolite Fast Red B", "Monolite Fast Red BA", "No. 7 Conc. Deep Red", "Para Nitraniline Red", "Para Red", "Para Red B 20-2080", "Para Red BS", "Para Red Dark", "Para Red Dark RA 1280", "Para Red Light", "Para Red Light 10333", "Para Red Light RA 1210", "Para Red Toner", "Para Red Toner RPT 52", "Para Red YS", "Para Toner", "Para Toner B", "Para Toner Dark 5065", "Para Toner Deep A 1757", "Para Toner D", "Para Toner Y 20-1150", "C.P. Para Toner Light RP 2", "Para Toner Light A 4329", "Para Toner Light RT 370", "Para Toner Red", "Pigment Red B", "Pigment Red G", "Pigment Red R", "Recolite Para Red B", "Recolite Para Red G", "Sanyo Signal Red Pure", "Siloton Red B", "Siloton Red G", "Symuler Fast Para Red", "Tertropigment Red PAB", "Tolyl Red D", "Tolyl Red M", "Tolyl Red LL", "p-Nitraniline red", "1-[(p-Nitrophenyl)azo]-2-naphthol", "Pigment Red 1", "Pigment Red Zh", "1-[(4-Nitrophenyl)azo]-2-naphthol", "1-(2-Hydroxynaphthyl)-4\u2032-nitroazobenzene", "NSC 210792", "NSC 70812", "Printofix Red HN"], "SMILES": "N(=NC1=CC=C(N(=O)=O)C=C1)C=2C3=C(C=CC2O)C=CC=C3", "physical_data": {"Molecular Weight": "293.28", "Molecular Formula": "C16H11N3O3", "Melting Point": "251 \u00b0C"}}