{"cas_no": "64118-84-9", "cn_name": "2-((2,6-\u4e8c\u6c2f-4-\u7f9f\u57fa\u82ef\u57fa)\u6c28\u57fa)\u82ef\u4e59\u9178", "en_name": ["4\u2032-Hydroxydiclofenac", "Benzeneacetic acid, 2-[(2,6-dichloro-4-hydroxyphenyl)amino]-", "2-[(2,6-Dichloro-4-hydroxyphenyl)amino]benzeneacetic acid", "4\u2032-Hydroxydiclofenac"], "SMILES": "N(C1=C(Cl)C=C(O)C=C1Cl)C2=C(CC(O)=O)C=CC=C2", "physical_data": {"Molecular Weight": "312.15", "Molecular Formula": "C14H11Cl2NO3", "Melting Point": "177-178 \u00b0C"}}