{"cas_no": "64121-98-8", "cn_name": "4-(\u7f9f\u57fa\u7532\u57fa)-2,6-\u4e8c\u7532\u6c27\u57fa\u82ef\u57fa BETA-D-\u5421\u5583\u8461\u8404\u7cd6\u7519", "en_name": ["Di-O-methylcrenatin", "\u03b2-D-Glucopyranoside, 4-(hydroxymethyl)-2,6-dimethoxyphenyl", "4-(Hydroxymethyl)-2,6-dimethoxyphenyl \u03b2-D-glucopyranoside", "Di-O-methylcrenatin"], "SMILES": "O(C1=C(OC)C=C(CO)C=C1OC)C2OC(CO)C(O)C(O)C2O", "physical_data": {"Molecular Weight": "346.33", "Molecular Formula": "C15H22O9", "Melting Point": "175-177 \u00b0C"}}