{"cas_no": "64125-60-6", "cn_name": "3-\u7532\u6c27\u57fa-4-(3-\u7532\u57fa-2-\u4e01\u70ef\u57fa)-5-[(1E)-2-\u82ef\u57fa\u4e59\u70ef\u57fa]\u82ef\u915a", "en_name": ["Longistylin C", "Phenol, 3-methoxy-4-(3-methyl-2-buten-1-yl)-5-[(1E)-2-phenylethenyl]-", "Phenol, 3-methoxy-4-(3-methyl-2-butenyl)-5-(2-phenylethenyl)-, (E)-", "Phenol, 3-methoxy-4-(3-methyl-2-butenyl)-5-[(1E)-2-phenylethenyl]-", "3-Methoxy-4-(3-methyl-2-buten-1-yl)-5-[(1E)-2-phenylethenyl]phenol", "Longistylin C", "Longistyline C"], "SMILES": "C(C=C(C)C)C1=C(C=CC2=CC=CC=C2)C=C(O)C=C1OC", "physical_data": {"Molecular Weight": "294.39", "Molecular Formula": "C20H22O2", "Melting Point": "88-91 \u00b0C"}}