{"cas_no": "6413-10-1", "cn_name": "\u82f9\u679c\u916f", "en_name": ["Fructone", "1,3-Dioxolane-2-acetic acid, 2-methyl-, ethyl ester", "Ethyl acetoacetate 3-ethylene acetal", "Ethyl acetoacetate ethylene ketal", "Ethyl 3-oxobutyrate ethylene ketal", "Fructone", "Ethyl acetoacetate ethylene glycol ketal", "Ethyl 2-methyl-1,3-dioxolane-2-acetate", "NSC 6537", "(2-Methyl-1,3-dioxolan-2-yl)acetic acid ethyl ester", "2-Methyl-2-[(ethoxycarbonyl)methyl]-1,3-dioxolane", "Applinal", "Ethyl 2-(2-methyl-1,3-dioxolan-2-yl)acetate", "Ethyl (2-methyl-1,3-dioxolan-2-yl)acetate", "Jasmaprunate"], "SMILES": "C(C(OCC)=O)C1(C)OCCO1", "physical_data": {"Molecular Weight": "174.19", "Molecular Formula": "C8H14O4", "Boiling Point": "107 \u00b0C @ Press: 11 Torr", "Density": "1.0409 g/cm\u00b3 @ Temp: 20 \u00b0C"}}