{"cas_no": "641571-11-1", "cn_name": "3-(4-\u7532\u57fa-1H-\u54aa\u5511-1-\u57fa)-5-(\u4e09\u6c1f\u7532\u57fa)\u82ef\u80fa", "en_name": ["5-(4-Methyl-1H-imidazol-1-yl)-3-(trifluoromethyl)benzenamine", "Benzenamine, 3-(4-methyl-1H-imidazol-1-yl)-5-(trifluoromethyl)-", "3-(4-Methyl-1H-imidazol-1-yl)-5-(trifluoromethyl)benzenamine", "5-(4-Methyl-1H-imidazol-1-yl)-3-(trifluoromethyl)benzenamine", "1-(3-Amino-5-trifluoromethylphenyl)-4-methylimidazole", "3-(4-Methyl-1H-imidazol-1-yl)-5-trifluoromethylaniline", "3-(4-Methylimidazol-1-yl)-5-trifluoromethylphenylamine", "5-(4-Methyl-1H-imidazol-1-yl)-3-(trifluoromethyl)benzeneamine"], "SMILES": "C(F)(F)(F)C=1C=C(C=C(N)C1)N2C=C(C)N=C2", "physical_data": {"Molecular Weight": "", "Molecular Formula": "C11H10F3N3", "Melting Point": "126-129 \u00b0C"}}