{"cas_no": "641571-10-0", "cn_name": "\u5c3c\u7f57\u66ff\u5c3c", "en_name": ["Nilotinib", "Benzamide, 4-methyl-N-[3-(4-methyl-1H-imidazol-1-yl)-5-(trifluoromethyl)phenyl]-3-[[4-(3-pyridinyl)-2-pyrimidinyl]amino]-", "4-Methyl-N-[3-(4-methyl-1H-imidazol-1-yl)-5-(trifluoromethyl)phenyl]-3-[[4-(3-pyridinyl)-2-pyrimidinyl]amino]benzamide", "4-Methyl-3-[[4-(3-pyridinyl)-2-pyrimidinyl]amino]-N-[5-(4-methyl-1H-imidazol-1-yl)-3-(trifluoromethyl)phenyl]benzamide", "AMN 107", "4-Methyl-N-[3-(4-methylimidazol-1-yl)-5-trifluoromethylphenyl]-3-[[4-(pyridin-3-yl)pyrimidin-2-yl]amino]benzamide", "Nilotinib", "Tasigna"], "SMILES": "C(F)(F)(F)C=1C=C(C=C(NC(=O)C2=CC(NC=3N=C(C=CN3)C=4C=CC=NC4)=C(C)C=C2)C1)N5C=NC(C)=C5", "physical_data": {"Molecular Weight": "", "Molecular Formula": "C28H22F3N7O", "Melting Point": "231-233 \u00b0C"}}