{"cas_no": "64169-34-2", "cn_name": "5-\u6eb4\u82ef\u915e", "en_name": ["5-Bromophthalide", "1(3H)-Isobenzofuranone, 5-bromo-", "5-Bromo-1(3H)-isobenzofuranone", "5-Bromophthalide", "5-Bromo-3H-isobenzofuran-1-one", "5-Bromoisobenzofuran-1(3H)-one", "5-Bromo-2-benzofuran-1(3H)-one", "5-Bromoisobenzofuran-1-one"], "SMILES": "O=C1C=2C(CO1)=CC(Br)=CC2", "physical_data": {"Molecular Weight": "213.03", "Molecular Formula": "C8H5BrO2", "Melting Point": "165 \u00b0C"}}