{"cas_no": "64168-11-2", "cn_name": "4,4'-\u4e09\u4e9a\u7532\u57fa\u53cc(1-\u7532\u57fa\u54cc\u5576)", "en_name": ["4,4\u2032-Trimethylenebis(1-methylpiperidine)", "Piperidine, 4,4\u2032-(1,3-propanediyl)bis[1-methyl-", "4,4\u2032-(1,3-Propanediyl)bis[1-methylpiperidine]", "4,4\u2032-Trimethylenebis(N-methylpiperidine)", "4,4\u2032-Trimethylenebis(1-methylpiperidine)", "1-Methyl-4-[3-(1-methylpiperidin-4-yl)propyl]piperidine"], "SMILES": "C(CCC1CCN(C)CC1)C2CCN(C)CC2", "physical_data": {"Molecular Weight": "238.41", "Molecular Formula": "C15H30N2", "Melting Point": "13.7 \u00b0C"}}