{"cas_no": "64169-67-1", "cn_name": "5-\u6c30\u57fa-1-(4-\u6c1f\u82ef\u57fa)-1,3-\u4e8c\u6c22\u5316-\u5f02\u82ef\u5e76\u544b\u5583", "en_name": ["1-(4-Fluorophenyl)-1,3-dihydro-5-isobenzofurancarbonitrile", "5-Isobenzofurancarbonitrile, 1-(4-fluorophenyl)-1,3-dihydro-", "1-(4-Fluorophenyl)-1,3-dihydro-5-isobenzofurancarbonitrile", "1-(4-Fluorophenyl)-1,3-dihydroisobenzofuran-5-carbonitrile", "LU 17-046", "5-Cyano-1-(4-Fluorophenyl)-1,3-dihydroisobenzofuran", "1-(4-Fluorophenyl)-5-cyanophthalan", "1-(4-Fluorophenyl)-1,3-dihydro-2-benzofuran-5-carbonitrile"], "SMILES": "C(#N)C=1C=C2C(C(OC2)C3=CC=C(F)C=C3)=CC1", "physical_data": {"Molecular Weight": "239.24", "Molecular Formula": "C15H10FNO", "Melting Point": "95-97 \u00b0C"}}