{"cas_no": "6419-19-8", "cn_name": "\u6c28\u57fa\u4e09\u4e9a\u7532\u57fa\u81a6\u9178", "en_name": ["Aminotri(methylenephosphonic acid)", "Phosphonic acid, P,P\u2032,P\u2032\u2032-[nitrilotris(methylene)]tris-", "Phosphonic acid, [nitrilotris(methylene)]tri-", "Phosphonic acid, [nitrilotris(methylene)]tris-", "P,P\u2032,P\u2032\u2032-[Nitrilotris(methylene)]tris[phosphonic acid]", "Nitrilotris(methylenephosphonic acid)", "Tris(methylenephosphonic acid)amine", "Aminotri(methylphosphonic acid)", "Nitrilotri(methylenephosphonic acid)", "Aminotris(methylenephosphonic acid)", "Aminotris(methylphosphonic acid)", "[Nitrilotris(methylene)]triphosphonic acid", "(Nitrilotrimethylene)triphosphonic acid", "Aminotri(methylenephosphonic acid)", "Nitrilotrimethylphosphonic acid", "Tris(phosphonomethyl)amine", "Aminotris(methanephosphonic acid)", "Dowell L 37", "\u03b1,\u03b1\u2032,\u03b1\u2032\u2032-Aminotris(methylphosphonic acid)", "Nitrilo-N,N,N-tris(methylenephosphonic acid)", "[Nitrilotris(methylene)]tris(phosphonic acid)", "Nitrilotris(methylphosphonic acid)", "Dequest 2000", "Nitrilo-N,N,N-trimethylenephosphonic acid", "Nitrilotrimethanephosphonic acid", "Ferrofos 509", "Dequest 2001", "1,1,1-Nitrilotris(methylphosphonic acid)", "Nitrilotris(methanephosphonic acid)", "NTF", "Sequion 20H45", "NTMP", "ATMP", "Sequion OA", "NTP-A", "Unihib 305", "NTP", "Defloc NH 05", "IC 2000", "Nitrilotrimethylenetris(phosphonic acid)", "NTPH", "Briquest 301-50A", "ATMP (phosphonic acid)", "Turpinal D 2", "Briquest 301", "WSI 3300", "WSI 3310", "Mayoquest 1320", "Chelest PH 320", "Cublen AP 1", "Dequest 2000EG", "Cublen AP 5", "Aquacid 1084EX", "Aquacid 108", "Aminotrismethylene phosphonate", "[Bis(phosphonomethyl)amino]methylphosphonic acid"], "SMILES": "C(N(CP(=O)(O)O)CP(=O)(O)O)P(=O)(O)O", "physical_data": {"Molecular Weight": "299.05", "Molecular Formula": "C3H12NO9P3", "Melting Point": "208-210 \u00b0C"}}