{"cas_no": "64195-85-3", "cn_name": "2,4-\u4e8c\u6c27\u4ee3-5-\u7532\u57fa-\u5df1\u9178\u4e59\u916f", "en_name": ["Ethyl 5-methyl-2,4-dioxohexanoate", "Hexanoic acid, 5-methyl-2,4-dioxo-, ethyl ester", "Ethyl 5-methyl-2,4-dioxohexanoate", "Ethyl isobutyrylpyruvate", "5-Methyl-2,4-dioxohexanoic acid ethyl ester", "Ethyl 2,4-dioxo-5-methylhexanoate"], "SMILES": "C(CC(C(C)C)=O)(C(OCC)=O)=O", "physical_data": {"Molecular Weight": "186.21", "Molecular Formula": "C9H14O4", "Boiling Point": "113-116 \u00b0C @ Press: 5 Torr"}}