{"cas_no": "642-38-6", "cn_name": "(-)-\u767d\u96c0\u6728\u9187", "en_name": ["(-)-Quebrachitol", "L-chiro-Inositol, 2-O-methyl-", "Inositol, 2-O-methyl-, L-chiro-", "Inositol, 2-O-methyl-", "2-O-Methyl-L-chiro-inositol", "L-Quebrachitol", "Quebrachitol", "Quebrachitol, (-)-", "L-(-)-2-O-Methylinositol", "Quebrachit", "(-)-Quebrachitol", "NSC 26254", "Brahol"], "SMILES": "O(C)C1C(O)C(O)C(O)C(O)C1O", "physical_data": {"Molecular Weight": "194.18", "Molecular Formula": "C7H14O6", "Melting Point": "192-193 \u00b0C", "Density": "1.54 g/cm\u00b3"}}