{"cas_no": "642-17-1", "cn_name": "AKUAMMIGINE", "en_name": ["Akuammigine", "Oxayohimban-16-carboxylic acid, 16,17-didehydro-19-methyl-, methyl ester, (3\u03b2,19\u03b1,20\u03b1)-", "Akuammigine", "4H-Indolo[2,3-a]pyrano[3,4-g]quinolizine-1-carboxylic acid, 4a,5,7,8,13,13b,14,14a-octahydro-4-methyl-, methyl ester, (4S,4aS,13bR,14aS)-"], "SMILES": "C(OC)(=O)C=1C2CC3C4=C(C=5C(N4)=CC=CC5)CCN3CC2C(C)OC1", "physical_data": {"Molecular Weight": "352.43", "Molecular Formula": "C21H24N2O3", "Melting Point": "122-124 \u00b0C"}}