{"cas_no": "642-72-8", "cn_name": "\u82c4\u8fbe\u660e", "en_name": ["Benzydamine", "1-Propanamine, N,N-dimethyl-3-[[1-(phenylmethyl)-1H-indazol-3-yl]oxy]-", "1H-Indazole, 1-benzyl-3-[3-(dimethylamino)propoxy]-", "N,N-Dimethyl-3-[[1-(phenylmethyl)-1H-indazol-3-yl]oxy]-1-propanamine", "Benzindamine", "1-Benzyl-3-[3-(dimethylamino)propoxy]-1H-indazole", "Benzidamine", "Benzydamine", "1-Benzyl-3-dimethylaminopropoxy-1H-indazole", "1-Benzyl-3-(\u03b3-dimethylaminopropoxy)-1H-indazole", "1-Benzyl-3-[3-(dimethylamino)propoxy]indazole", "3-(1-Benzylindazol-3-yl)oxy-N,N-dimethylpropan-1-amine", "MeSH ID: D001591"], "SMILES": "C(N1C=2C(C(OCCCN(C)C)=N1)=CC=CC2)C3=CC=CC=C3", "physical_data": {"Molecular Weight": "309.41", "Molecular Formula": "C19H23N3O", "Boiling Point": "160 \u00b0C", "Melting Point": "160 \u00b0C"}}