{"cas_no": "642-29-5", "cn_name": "1-\u8418\u57fa\u82ef\u7532\u916e", "en_name": ["1-Benzoylnaphthalene", "Methanone, 1-naphthalenylphenyl-", "Ketone, 1-naphthyl phenyl", "1-Naphthalenylphenylmethanone", "1-Benzoylnaphthalene", "1-Naphthyl phenyl ketone", "\u03b1-Naphthyl phenyl ketone", "Phenyl 1-naphthyl ketone", "\u03b1-Benzoylnaphthalene", "1-Naphthophenone", "(1-Naphthalenyl)phenyl methanone", "NSC 6729"], "SMILES": "C(=O)(C=1C2=C(C=CC1)C=CC=C2)C3=CC=CC=C3", "physical_data": {"Molecular Weight": "232.28", "Molecular Formula": "C17H12O", "Boiling Point": "225 \u00b0C @ Press: 12 Torr", "Melting Point": "75.5 \u00b0C"}}