{"cas_no": "642-05-7", "cn_name": "\u522b\u6b27\u524d\u80e1\u7d20", "en_name": ["Alloimperatorin", "7H-Furo[3,2-g][1]benzopyran-7-one, 9-hydroxy-4-(3-methyl-2-buten-1-yl)-", "Alloimperatorin", "7H-Furo[3,2-g][1]benzopyran-7-one, 9-hydroxy-4-(3-methyl-2-butenyl)-", "5-Benzofuranacrylic acid, 6,7-dihydroxy-4-(3-methyl-2-butenyl)-, \u03b4-lactone", "9-Hydroxy-4-(3-methyl-2-buten-1-yl)-7H-furo[3,2-g][1]benzopyran-7-one", "Prangenidin", "NSC 301051"], "SMILES": "C(C=C(C)C)C=1C2=C(C(O)=C3C1C=CO3)OC(=O)C=C2", "physical_data": {"Molecular Weight": "270.28", "Molecular Formula": "C16H14O4", "Melting Point": "233 \u00b0C"}}