{"cas_no": "642-31-9", "cn_name": "9-\u84bd\u7532\u919b", "en_name": ["9-Anthracenecarboxaldehyde", "9-Anthracenecarboxaldehyde", "9-Anthraldehyde", "9-Anthrylaldehyde", "9-Formylanthracene", "9-Anthrylcarboxaldehyde", "9-Anthracenecarbaldehyde", "NSC 15", "9-Anthracenemethanal", "9-Anthracenaldehyde", "9-Anthracenealdehyde", "Antharacene-1-carboxaldehyde"], "SMILES": "C(=O)C=1C2=C(C=C3C1C=CC=C3)C=CC=C2", "physical_data": {"Molecular Weight": "206.24", "Molecular Formula": "C15H10O", "Melting Point": "104 \u00b0C"}}