{"cas_no": "642-15-9", "cn_name": "\u6297\u9ef4\u7d20A1", "en_name": ["Butanoic acid, 2(or 3)-methyl-, (2R,3S,6S,7R,8R)-3-[[3-(formylamino)-2-hydroxybenzoyl]amino]-8-hexyl-2,6-dimethyl-4,9-dioxo-1,5-dioxonan-7-yl ester", "Butanoic acid, 2(or 3)-methyl-, (2R,3S,6S,7R,8R)-3-[[3-(formylamino)-2-hydroxybenzoyl]amino]-8-hexyl-2,6-dimethyl-4,9-dioxo-1,5-dioxonan-7-yl ester", "Butanoic acid, 2(or 3)-methyl-, 3-[[3-(formylamino)-2-hydroxybenzoyl]amino]-8-hexyl-2,6-dimethyl-4,9-dioxo-1,5-dioxonan-7-yl ester, [2R-(2R*,3S*,6S*,7R*,8R*)]-", "Antimycin A1", "1,5-Dioxonane, butanoic acid deriv."], "SMILES": "", "physical_data": {"Molecular Weight": "", "Molecular Formula": "C28H40N2O9", "Melting Point": "149.5 \u00b0C"}}