{"cas_no": "642-71-7", "cn_name": "3,4,5-\u4e09\u7532\u6c27\u57fa\u82ef\u915a", "en_name": ["3,4,5-Trimethoxyphenol", "Phenol, 3,4,5-trimethoxy-", "3,4,5-Trimethoxyphenol", "Antiarol"], "SMILES": "O(C)C1=C(OC)C=C(O)C=C1OC", "physical_data": {"Molecular Weight": "184.19", "Molecular Formula": "C9H12O4", "Melting Point": "148 \u00b0C"}}