{"cas_no": "64206-54-8", "cn_name": "\u620a\u9170\u57fa\u6c34\u6768\u9178", "en_name": ["2-[(1-Oxopentyl)oxy]benzoic acid", "Benzoic acid, 2-[(1-oxopentyl)oxy]-", "Salicylic acid, valerate", "2-[(1-Oxopentyl)oxy]benzoic acid", "2-Carboxyphenyl pentanoate", "2-Valeryloxybenzoic acid", "Valeroyl salicylate", "Valeryl salicylate", "2-(Pentanoyloxy)benzoic acid"], "SMILES": "C(O)(=O)C1=C(OC(CCCC)=O)C=CC=C1", "physical_data": {"Molecular Weight": "222.24", "Molecular Formula": "C12H14O4", "Melting Point": "143 \u00b0C"}}