{"cas_no": "6421-04-1", "cn_name": "\u6c27\u5316\u5076\u6c2e\u82ef-4,4'-\u4e8c\u7fa7\u9178\u4e8c\u4e59\u916f", "en_name": ["1,1\u2032-Diethyl 4,4\u2032-(1-oxido-1,2-diazenediyl)bis[benzoate]", "Benzoic acid, 4,4\u2032-(1-oxido-1,2-diazenediyl)bis-, 1,1\u2032-diethyl ester", "Benzoic acid, 4,4\u2032-azoxydi-, diethyl ester", "Benzoic acid, 4,4\u2032-azoxybis-, diethyl ester", "Benzoic acid, p,p\u2032-azoxydi-, diethyl ester", "1,1\u2032-Diethyl 4,4\u2032-(1-oxido-1,2-diazenediyl)bis[benzoate]", "Diethyl 4,4\u2032-azoxydibenzoate", "Diethyl azoxybenzene-4,4\u2032-dicarboxylate", "Diethyl p,p\u2032-azoxydibenzoate", "4,4\u2032-Azoxybenzoic acid diethyl ester", "4,4\u2032-(Diethoxycarbonyl)azoxybenzene", "NSC 401032", "NSC 680513"], "SMILES": "N(=NC1=CC=C(C(OCC)=O)C=C1)(=O)C2=CC=C(C(OCC)=O)C=C2", "physical_data": {"Molecular Weight": "342.35", "Molecular Formula": "C18H18N2O5", "Melting Point": "110-112 \u00b0C"}}