{"cas_no": "64211-46-7", "cn_name": "\u785d\u9178\u5965\u6614\u5eb7\u5511", "en_name": ["Oxiconazole nitrate", "Ethanone, 1-(2,4-dichlorophenyl)-2-(1H-imidazol-1-yl)-, O-[(2,4-dichlorophenyl)methyl]oxime, (1Z)-, mononitrate (1:1)", "Ethanone, 1-(2,4-dichlorophenyl)-2-(1H-imidazol-1-yl)-, O-[(2,4-dichlorophenyl)methyl]oxime, (Z)-, mononitrate", "Ethanone, 1-(2,4-dichlorophenyl)-2-(1H-imidazol-1-yl)-, O-[(2,4-dichlorophenyl)methyl]oxime, (1Z)-, mononitrate", "Oxiconazole nitrate", "Oxistat", "Ro 13-8996", "Gyno-Myfungar", "Oceral", "Sgd 301-76", "Myfungar", "ST 813", "Scorba LX"], "SMILES": "N(=O)(=O)O.C(CN1C=CN=C1)(=NOCC2=C(Cl)C=C(Cl)C=C2)C3=C(Cl)C=C(Cl)C=C3", "physical_data": {"Molecular Weight": "", "Molecular Formula": "C18H13Cl4N3O.HNO3", "Melting Point": "137-138 \u00b0C"}}