{"cas_no": "6422-36-2", "cn_name": "\u812f\u6c28\u9170\u4e19\u6c28\u9178", "en_name": ["L-Prolyl-L-alanine", "L-Alanine, L-prolyl-", "Alanine, N-L-prolyl-, L-", "L-Alanine, N-L-prolyl-", "L-Prolyl-L-alanine", "NSC 97933", "108: PN: WO2006024694 SEQID: 108 claimed protein", "99: PN: EP2161028 PAGE: 10 claimed protein", "62: PN: WO2014063098 TABLE: 5 claimed sequence", "28: PN: WO2011146121 PAGE: 114 claimed sequence", "3: PN: WO2011150133 PAGE: 63 claimed sequence", "169: PN: US20130123467 SEQID: 208 claimed protein", "7: PN: WO2014102104 SEQID: 106 claimed protein", "7: PN: WO2014102101 SEQID: 307 claimed protein", "47: PN: WO2014102103 TABLE: 1 claimed protein", "26: PN: WO2014102100 TABLE: 1 claimed protein", "1: PN: US20180142240 PAGE: 82 claimed sequence", "20: PN: WO2020069398 SEQID: 20 claimed protein", "809: PN: WO2022215055 SEQID: 809 claimed protein"], "SMILES": "C(NC(C(O)=O)C)(=O)C1CCCN1", "physical_data": {"Molecular Weight": "186.21", "Molecular Formula": "C8H14N2O3", "Melting Point": "232 \u00b0C"}}