{"cas_no": "64224-21-1", "cn_name": "\u5421\u567b\u786b\u916e", "en_name": ["Oltipraz", "3H-1,2-Dithiole-3-thione, 4-methyl-5-(2-pyrazinyl)-", "3H-1,2-Dithiole-3-thione, 4-methyl-5-pyrazinyl-", "4-Methyl-5-(2-pyrazinyl)-3H-1,2-dithiole-3-thione", "RP 35972", "Oltipraz", "NSC 347901", "4-Methyl-5-pyrazinyl-3H-1,2-dithiole-3-thione"], "SMILES": "CC1=C(SSC1=S)C=2C=NC=CN2", "physical_data": {"Molecular Weight": "226.34", "Molecular Formula": "C8H6N2S3", "Melting Point": "165 \u00b0C"}}