{"cas_no": "6422-86-2", "cn_name": "\u5bf9\u82ef\u4e8c\u7532\u9178\u4e8c\u8f9b\u916f", "en_name": ["Dioctyl terephthalate", "1,4-Benzenedicarboxylic acid, 1,4-bis(2-ethylhexyl) ester", "Terephthalic acid, bis(2-ethylhexyl) ester", "1,4-Benzenedicarboxylic acid, bis(2-ethylhexyl) ester", "Bis(2-ethylhexyl) terephthalate", "Kodaflex DOTP", "Di(2-ethylhexyl) terephthalate", "JP 110", "Eastman 168", "DOTP", "Plasticizer 168", "NEO-T", "ADK Cizer D 810", "Dioctyl terephthalate", "Eastman TM 168", "UN 488", "Palatinol DOTP", "168SG", "Eastman 168SG", "HCCFlex SP 390", "Cizer D 810", "Di(2-ethylhexan-1-yl) terephthalate", "UN 4885", "Oxoplast OT", "SP 390", "LF 30", "LGflex GL 300", "GL 300", "DY 39", "D 810", "A 60 (plasticizer)", "A 60", "Rymsaplas T 4200", "R-DOTP"], "SMILES": "C(OCC(CCCC)CC)(=O)C1=CC=C(C(OCC(CCCC)CC)=O)C=C1", "physical_data": {"Molecular Weight": "390.56", "Molecular Formula": "C24H38O4", "Boiling Point": "383 \u00b0C @ Press: 760 Torr", "Melting Point": "-48 \u00b0C"}}