{"cas_no": "64228-81-5", "cn_name": "\u82ef\u78fa\u9178\u963f\u66f2\u5e93\u94f5", "en_name": ["Atracurium besylate", "Isoquinolinium, 2,2\u2032-[1,5-pentanediylbis[oxy(3-oxo-3,1-propanediyl)]]bis[1-[(3,4-dimethoxyphenyl)methyl]-1,2,3,4-tetrahydro-6,7-dimethoxy-2-methyl-, benzenesulfonate (1:2)", "Isoquinolinium, 2,2\u2032-[1,5-pentanediylbis[oxy(3-oxo-3,1-propanediyl)]]bis[1-[(3,4-dimethoxyphenyl)methyl]-1,2,3,4-tetrahydro-6,7-dimethoxy-2-methyl-, dibenzenesulfonate", "Atracurium besylate", "BW 33A", "Atracurium dibesylate", "Tracrium", "Atracurium besilate", "Atracurium dibesilate", "Wellcome 33A74", "Tracur"], "SMILES": "S(=O)(=O)([O-])C1=CC=CC=C1.C(C1C=2C(=CC(OC)=C(OC)C2)CC[N+]1(CCC(OCCCCCOC(CC[N+]3(C)C(CC4=CC(OC)=C(OC)C=C4)C=5C(CC3)=CC(OC)=C(OC)C5)=O)=O)C)C6=CC(OC)=C(OC)C=C6", "physical_data": {"Molecular Weight": "", "Molecular Formula": "C53H72N2O12.2C6H5O3S", "Melting Point": "85-90 \u00b0C"}}