{"cas_no": "6424-12-0", "cn_name": "D-(-)-\u5341\u4e00\u70f7\u9178\u4e59\u916f\u68c9\u5b50\u7cd6", "en_name": ["\u03b1-D-Glucopyranoside, 1,3,4,6-tetra-O-acetyl-\u03b2-D-fructofuranosyl O-2,3,4,6-tetra-O-acetyl-\u03b1-D-galactopyranosyl-(1\u21926)-, 2,3,4-triacetate", "\u03b1-D-Glucopyranoside, 1,3,4,6-tetra-O-acetyl-\u03b2-D-fructofuranosyl O-2,3,4,6-tetra-O-acetyl-\u03b1-D-galactopyranosyl-(1\u21926)-, 2,3,4-triacetate", "Raffinose, undecaacetate", "\u03b1-D-Glucopyranoside, 1,3,4,6-tetra-O-acetyl-\u03b2-D-fructofuranosyl O-2,3,4,6-tetra-O-acetyl-\u03b1-D-galactopyranosyl-(1\u21926)-, triacetate", "Raffinose hendecaacetate", "Raffinose peracetate"], "SMILES": "O(C1(COC(C)=O)C(OC(C)=O)C(OC(C)=O)C(COC(C)=O)O1)C2C(OC(C)=O)C(OC(C)=O)C(OC(C)=O)C(COC3C(OC(C)=O)C(OC(C)=O)C(OC(C)=O)C(COC(C)=O)O3)O2", "physical_data": {"Molecular Weight": "966.84", "Molecular Formula": "C40H54O27", "Boiling Point": "215-220 \u00b0C @ Press: 3 x 10<sup>-4</sup> Torr", "Melting Point": "99 \u00b0C"}}