{"cas_no": "64249-01-0", "cn_name": "\u838e\u7a17\u78f7", "en_name": ["Anilofos", "Phosphorodithioic acid, S-[2-[(4-chlorophenyl)(1-methylethyl)amino]-2-oxoethyl] O,O-dimethyl ester", "HOE 30374", "HOE 574", "Anilofos", "Arozin", "Aniloguard", "Aniloguard 30EC", "Shabailin"], "SMILES": "N(C(CSP(OC)(OC)=S)=O)(C(C)C)C1=CC=C(Cl)C=C1", "physical_data": {"Molecular Weight": "367.85", "Molecular Formula": "C13H19ClNO3PS2", "Melting Point": "51 \u00b0C"}}