{"cas_no": "6424-85-7", "cn_name": "C.I.\u9178\u6027\u84dd40", "en_name": ["Acid Blue 40", "2-Anthracenesulfonic acid, 4-[[4-(acetylamino)phenyl]amino]-1-amino-9,10-dihydro-9,10-dioxo-, sodium salt (1:1)", "2-Anthracenesulfonic acid, 4-(p-acetamidoanilino)-1-amino-9,10-dihydro-9,10-dioxo-, monosodium salt", "2-Anthracenesulfonic acid, 4-[[4-(acetylamino)phenyl]amino]-1-amino-9,10-dihydro-9,10-dioxo-, monosodium salt", "2-Anthracenesulfonic acid, 4-(p-acetamidoanilino)-1-amino-9,10-dihydro-9,10-dioxo-, sodium salt", "C.I. 62125", "Acid Alizarine Blue A 2G", "Acid Alizarine Sapphire 2JL", "Acidine Fast Blue ADG", "Ahcoquinone Blue A 2G", "Alizarine Blue A 2G", "Alizarine Blue AGG", "Alizarine Direct Blue AGG", "Alizarine Direct Blue AGG-CF", "Alizarine Light Blue 2G", "Alizarine Light Blue 2GH", "Alizarine Light Blue 2GL", "Anthralan Blue G", "Anthraquinone Blue 2GAN", "Aquamine Blue GL", "Calcocid Alizarine Blue A 2G", "C.I. Acid Blue 40", "Curol Blue AN", "Erio Anthracene Brilliant Blue 2GL", "Erio Fast Blue 2GL", "Erionyl Blue E 2GL", "Fenalan Blue G", "Kayacyl Blue AGG", "Kayaku Alizarine Blue AGG", "Kiton Fast Blue 2GL", "Lanaperl Blue G", "Merpacyl Blue 2GA", "Mitsui Alizarine Direct Blue AGG", "Nylomine Acid Blue B 3G", "Propolan Blue 2GX", "Solanol Blue G", "Solway Blue 2G", "Suminol Fast Blue AGG", "Suminol Levelling Blue AGG", "Superian Blue 2G", "Unitertracid Blue GGL", "Unitertracid Fast Blue GGL", "4-(p-Acetamidoanilino)-1-amino-2-anthraquinonesulfonic acid monosodium salt", "Sodium 1-amino-4-(4-acetamidoanilino)anthraquinone-2-sulfonate", "Acid Blue 40", "C.I. Acid Blue 40 sodium salt", "Alizarine Direct Blue A 2G", "Telon Light Blue GGL", "Acid Fast Blue 2G", "Acid Alizarine Blue 2G", "Alizarine Azurol A 2G", "Egacid Blue A 2G", "Kayanol Blue N 2G", "Orbacid Fast Blue AGL", "Nylosan Blue E 2GL", "Telon Blue GGLL", "Aminyl Blue E 2GL", "Acid Brilliant Blue 2GB", "Acid Blue 2GL", "Vicoacid Blue 40", "Acid Blue 2G", "Acid Blue E 2G", "Rifa Acid Fast Blue E-AGG", "Dycosacid Brilliant Blue 2GB", "Covanyl Blue KGL", "Acid Blue AGG", "Triacid Light Blue 2G", "Superlan Blue 2G", "Relon Blue 2G", "Selmacid Blue E 2GL", "Kenamide Blue G 3G", "Apollo Nylon Fast Blue A 2G", "Dyacid Blue 2G", "Daedo Acid Blue 3AGG", "Acid Blue A 2G243", "Conacid Blue DO", "Acid Blue A 2G", "Concorde Acid Blue N 2G", "Colocid Blue E 2G", "Everacid Blue A 2G", "Suracid Blue 2G", "Everacid Levelling Blue A 2G", "Elbenyl Blue B 2G", "Lerui Acid Blue E 2GL", "Daedo Acid Blue C-AGG", "Fabracid Blue A 2G", "Eniacid Light Blue E 2GA", "Multacid Blue 2G", "Naphthazine Blue KGL", "Sellanyl Blue E 2GL", "Best Acid Blue N 2G", "Eniamide Blue E 2GA", "Dinacid Alizarine Blue AZG", "Nylosan Blue E 2GL 200", "Weak Acid Blue 2G"], "SMILES": "N(C1=C2C(C(=O)C=3C(C2=O)=CC=CC3)=C(N)C(S(=O)(=O)O)=C1)C4=CC=C(NC(C)=O)C=C4.[Na]", "physical_data": {"Molecular Weight": "", "Molecular Formula": "C22H17N3O6S.Na", "Melting Point": "&gt;300 \u00b0C"}}