{"cas_no": "64248-64-2", "cn_name": "2,5-\u4e8c\u6c1f\u82ef\u8148", "en_name": ["2,5-Difluorobenzonitrile", "Benzonitrile, 2,5-difluoro-", "2,5-Difluorobenzonitrile"], "SMILES": "C(#N)C1=C(F)C=CC(F)=C1", "physical_data": {"Molecular Weight": "139.10", "Molecular Formula": "C7H3F2N", "Boiling Point": "87-92 \u00b0C @ Press: 30 Torr"}}