{"cas_no": "64248-63-1", "cn_name": "3,5-\u4e8c\u6c1f\u82ef\u7532\u8148", "en_name": ["3,5-Difluorobenzonitrile", "Benzonitrile, 3,5-difluoro-", "3,5-Difluorobenzonitrile", "3,5-Difluorobenzenenitrile"], "SMILES": "C(#N)C1=CC(F)=CC(F)=C1", "physical_data": {"Molecular Weight": "139.10", "Molecular Formula": "C7H3F2N", "Melting Point": "85-86 \u00b0C"}}