{"cas_no": "64248-56-2", "cn_name": "1-\u6eb4-2,6-\u4e8c\u6c1f\u82ef", "en_name": ["2-Bromo-1,3-difluorobenzene", "Benzene, 2-bromo-1,3-difluoro-", "2-Bromo-1,3-difluorobenzene", "2,6-Difluorobromobenzene", "1-Bromo-2,6-difluorobenzene", "(2,6-Difluorophenyl) bromide", "2,6-Difluoro-1-bromobenzene"], "SMILES": "BrC1=C(F)C=CC=C1F", "physical_data": {"Molecular Weight": "192.99", "Molecular Formula": "C6H3BrF2", "Boiling Point": "135-137 \u00b0C @ Press: 760 Torr"}}