{"cas_no": "64248-62-0", "cn_name": "3,4-\u4e8c\u6c1f\u82ef\u8148", "en_name": ["3,4-Difluorobenzonitrile", "Benzonitrile, 3,4-difluoro-", "3,4-Difluorobenzonitrile", "4-Cyano-1,2-difluorobenzene"], "SMILES": "C(#N)C1=CC(F)=C(F)C=C1", "physical_data": {"Molecular Weight": "139.10", "Molecular Formula": "C7H3F2N", "Boiling Point": "77 \u00b0C @ Press: 20 Torr", "Melting Point": "51-53 \u00b0C"}}