{"cas_no": "64241-34-5", "cn_name": "\u5361\u5c48\u55ea", "en_name": ["Cadralazine", "Hydrazinecarboxylic acid, 2-[6-[ethyl(2-hydroxypropyl)amino]-3-pyridazinyl]-, ethyl ester", "ISF 2469", "Cadralazine", "DC 826", "CGP 18684E", "Presmode", "Cadral", "Cadraten", "Cadrilan"], "SMILES": "N(CC(C)O)(CC)C1=CC=C(NNC(OCC)=O)N=N1", "physical_data": {"Molecular Weight": "283.33", "Molecular Formula": "C12H21N5O3", "Melting Point": "160-162 \u00b0C"}}