{"cas_no": "6425-39-4", "cn_name": "2,2-\u4e8c\u5417\u5549\u57fa\u4e8c\u4e59\u57fa\u919a", "en_name": ["Dimorpholinodiethyl ether", "Morpholine, 4,4\u2032-(oxydi-2,1-ethanediyl)bis-", "Morpholine, 4,4\u2032-(oxydiethylene)di-", "4,4\u2032-(Oxydi-2,1-ethanediyl)bis[morpholine]", "Bis(morpholinoethyl) ether", "2,2\u2032-Dimorpholinodiethyl ether", "\u03b2,\u03b2\u2032-Dimorpholinodiethyl ether", "4,4\u2032-(Oxydiethylene)bis[morpholine]", "4,4\u2032-(Oxydiethylene)dimorpholine", "Dimorpholinodiethyl ether", "Texacat DMDEE", "Jeffcat DMDEE", "Di(2-morpholinoethyl) ether", "PC CAT DMDEE", "Bis[2-(4-morpholino)ethyl] ether", "Dabco DMDEE", "NSC 28749", "U-CAT 660M", "Bis(2-morpholinoethyl) ether", "DMDEE", "4,4\u2032-(Oxydi-2,1-ethanediyl)bismorpholine", "Lupragen N 106", "N 106", "JD-DMDEE", "2,2\u2032-Dimorpholinyldiethyl ether", "B 802012", "Maycat DMDEE"], "SMILES": "C(COCCN1CCOCC1)N2CCOCC2", "physical_data": {"Molecular Weight": "244.33", "Molecular Formula": "C12H24N2O3", "Boiling Point": "176-182 \u00b0C @ Press: 8 Torr", "Density": "1.0682 g/cm\u00b3 @ Temp: 20 \u00b0C"}}