{"cas_no": "6425-32-7", "cn_name": "3-(4-\u5417\u5549\u57fa)-1,2-\u4e19\u70f7\u4e8c\u9187", "en_name": ["3-Morpholino-1,2-propanediol", "1,2-Propanediol, 3-(4-morpholinyl)-", "1,2-Propanediol, 3-morpholino-", "3-(4-Morpholinyl)-1,2-propanediol", "3-Morpholino-1,2-propanediol", "(\u00b1)-3-Morpholino-1,2-propanediol", "3-Morpholin-4-ylpropane-1,2-diol", "N-(2,3-Dihydroxypropyl)morpholine"], "SMILES": "C(C(CO)O)N1CCOCC1", "physical_data": {"Molecular Weight": "161.20", "Molecular Formula": "C7H15NO3", "Boiling Point": "145-148 \u00b0C @ Press: 5 Torr", "Melting Point": "162 \u00b0C"}}