{"cas_no": "64257-84-7", "cn_name": "\u7532\u6c30\u83ca\u916f", "en_name": ["Fenpropathrin", "Cyclopropanecarboxylic acid, 2,2,3,3-tetramethyl-, cyano(3-phenoxyphenyl)methyl ester", "SD 41706", "WL 41706", "S 3206", "Fenpropanate", "\u03b1-Cyano-3-phenoxybenzyl 2,2,3,3-tetramethylcyclopropanecarboxylate", "Fenpropathrin", "Meothrin", "Meiothrin", "Danitol", "Miothrin", "Danitol Fiori", "Kilumal", "Smash", "Rody", "XE 938", "Tame", "Danitol 10EC", "(\u00b1)-Fenpropathrin", "Danimen", "2,2,3,3-Tetramethylcyclopropanecarboxylic acid cyano(3-phenoxyphenyl)methyl ester", "Danitol 2.4EC", "Lodi Emulsion"], "SMILES": "C(OC(C#N)C1=CC(OC2=CC=CC=C2)=CC=C1)(=O)C3C(C)(C)C3(C)C", "physical_data": {"Molecular Weight": "349.42", "Molecular Formula": "C22H23NO3", "Melting Point": "47 \u00b0C"}}