{"cas_no": "6426-43-3", "cn_name": "\u84b2\u516c\u82f1\u753e\u9187\u918b\u9178\u916f", "en_name": ["Taraxasteryl acetate", "Urs-20(30)-en-3-ol, 3-acetate, (3\u03b2,18\u03b1,19\u03b1)-", "Urs-20(30)-en-3-ol, acetate, (3\u03b2,18\u03b1,19\u03b1)-", "Taraxasterol acetate", "Pyrethrol, acetate", "Taraxasteryl acetate", "Saussurol acetate", "Isolactucerol acetate", "NSC 401400", "3\u03b2-Acetoxy-20-methylenetaraxastane", "20-Methylenetaraxastan-3\u03b2-yl acetate", "20-Methylenetaraxastan-3\u03b2-ol acetate"], "SMILES": "CC12C3(C)C(C4C(C)(CC3)CCC(=C)C4C)CCC1C5(C)C(CC2)C(C)(C)C(OC(C)=O)CC5", "physical_data": {"Molecular Weight": "468.75", "Molecular Formula": "C32H52O2", "Melting Point": "251-252 \u00b0C"}}