{"cas_no": "64263-81-6", "cn_name": "Boc-N-\u7532\u57fa-O-\u82c4\u57fa-L-\u916a\u6c28\u9178", "en_name": ["N-[(1,1-Dimethylethoxy)carbonyl]-N-methyl-O-(phenylmethyl)-L-tyrosine", "L-Tyrosine, N-[(1,1-dimethylethoxy)carbonyl]-N-methyl-O-(phenylmethyl)-", "N-[(1,1-Dimethylethoxy)carbonyl]-N-methyl-O-(phenylmethyl)-L-tyrosine", "Boc-MeTyr(OBn)-OH", "(2S)-2-[Methyl-[(2-methylpropan-2-yl)oxycarbonyl]amino]-3-(4-phenylmethoxyphenyl)propanoic acid"], "SMILES": "C(C(N(C(OC(C)(C)C)=O)C)C(O)=O)C1=CC=C(OCC2=CC=CC=C2)C=C1", "physical_data": {"Molecular Weight": "385.45", "Molecular Formula": "C22H27NO5", "Melting Point": "130-134 \u00b0C"}}