{"cas_no": "64262-23-3", "cn_name": "1-\u4e19\u57fa\u54cc\u55ea\u4e8c\u6c22\u6eb4\u9178", "en_name": ["Piperazine, 1-propyl-, hydrobromide (1:2)", "Piperazine, 1-propyl-, hydrobromide (1:2)", "Piperazine, 1-propyl-, dihydrobromide", "1-Propylpiperazine dihydrobromide", "1-(1-Propyl)piperazine dihydrobromide", "N-Propylpiperazine dihydrobromide"], "SMILES": "C(CC)N1CCNCC1.Br", "physical_data": {"Molecular Weight": "", "Molecular Formula": "C7H16N2.2BrH", "Melting Point": "224-230 \u00b0C"}}