{"cas_no": "6427-66-3", "cn_name": "\u5bf9\u53e0\u6c2e\u82ef\u7532\u9178", "en_name": ["4-Azidobenzoic acid", "Benzoic acid, 4-azido-", "Benzoic acid, p-azido-", "4-Azidobenzoic acid", "p-Azidobenzoic acid", "4-Carboxyphenyl azide", "NSC 80932"], "SMILES": "C(O)(=O)C1=CC=C(N=[N+]=[N-])C=C1", "physical_data": {"Molecular Weight": "", "Molecular Formula": "C7H5N3O2", "Melting Point": "180 \u00b0C"}}