{"cas_no": "64282-12-8", "cn_name": "DL-\u5bf9\u6c1f\u82ef\u4e19\u6c28\u9178-OME\u76d0\u9178\u76d0", "en_name": ["Phenylalanine, 4-fluoro-, methyl ester, hydrochloride (1:1)", "Phenylalanine, 4-fluoro-, methyl ester, hydrochloride (1:1)", "Phenylalanine, 4-fluoro-, methyl ester, hydrochloride", "4-Fluorophenylalanine methyl ester hydrochloride", "NSC 523088"], "SMILES": "C(C(C(OC)=O)N)C1=CC=C(F)C=C1.Cl", "physical_data": {"Molecular Weight": "", "Molecular Formula": "C10H12FNO2.ClH", "Melting Point": "176.5-178.5 \u00b0C"}}