{"cas_no": "64297-64-9", "cn_name": "2-\u7898\u9170\u82ef\u7532\u9178", "en_name": ["2-Iodoxybenzoic acid", "Benzoic acid, 2-iodyl-", "Benzoic acid, o-iodoxy-", "2-Iodylbenzoic acid", "2-Iodoxybenzoic acid", "o-Iodoxybenzoic acid", "IBX", "SIBX"], "SMILES": "C(O)(=O)C1=C(I(=O)=O)C=CC=C1", "physical_data": {"Molecular Weight": "280.02", "Molecular Formula": "C7H5IO4", "Boiling Point": "153 \u00b0C @ Press: 760 Torr", "Melting Point": "222 \u00b0C (decomp)"}}