{"cas_no": "642928-07-2", "cn_name": "\u8499\u83ab\u897f\u5730\u90a3\u975e", "en_name": ["Homosildenafil", "7H-Pyrazolo[4,3-d]pyrimidin-7-one, 5-[2-ethoxy-5-[(4-ethyl-1-piperazinyl)sulfonyl]phenyl]-1,6-dihydro-1-methyl-3-propyl-", "Piperazine, 1-[[3-(4,7-dihydro-1-methyl-7-oxo-3-propyl-1H-pyrazolo[4,3-d]pyrimidin-5-yl)-4-ethoxyphenyl]sulfonyl]-4-ethyl-", "5-[2-Ethoxy-5-[(4-ethyl-1-piperazinyl)sulfonyl]phenyl]-1,6-dihydro-1-methyl-3-propyl-7H-pyrazolo[4,3-d]pyrimidin-7-one", "Homosildenafil"], "SMILES": "C(CC)C=1C2=C(C(=O)N=C(N2)C3=C(OCC)C=CC(S(=O)(=O)N4CCN(CC)CC4)=C3)N(C)N1", "physical_data": {"Molecular Weight": "", "Molecular Formula": "C23H32N6O4S", "Melting Point": "196.5 \u00b0C"}}