{"cas_no": "6429-04-5", "cn_name": "\u56db\u6c22\u7f42\u7c9f\u78b1\u76d0\u9178\u76d0", "en_name": ["Isoquinoline, 1-[(3,4-dimethoxyphenyl)methyl]-1,2,3,4-tetrahydro-6,7-dimethoxy-, hydrochloride (1:1)", "Isoquinoline, 1-[(3,4-dimethoxyphenyl)methyl]-1,2,3,4-tetrahydro-6,7-dimethoxy-, hydrochloride (1:1)", "Isoquinoline, 1,2,3,4-tetrahydro-6,7-dimethoxy-1-veratryl-, hydrochloride", "Isoquinoline, 1-[(3,4-dimethoxyphenyl)methyl]-1,2,3,4-tetrahydro-6,7-dimethoxy-, hydrochloride", "Tetrahydropapaverine hydrochloride", "1,2,3,4-Tetrahydropapaverine hydrochloride", "(\u00b1)-Tetrahydropapaverine hydrochloride", "(\u00b1)-Norlaudanosine hydrochloride", "NSC 118072", "NZ 54", "1-(3,4-Dimethoxybenzyl)-6,7-dimethoxy-1,2,3,4-tetrahydroisoquinoline hydrochloride"], "SMILES": "C(C1C=2C(=CC(OC)=C(OC)C2)CCN1)C3=CC(OC)=C(OC)C=C3.Cl", "physical_data": {"Molecular Weight": "", "Molecular Formula": "C20H25NO4.ClH", "Melting Point": "216-218 \u00b0C"}}