{"cas_no": "64291-41-4", "cn_name": "\u4e59\u9170\u5929\u9ebb\u7d20", "en_name": ["\u03b2-D-Glucopyranoside, 4-(hydroxymethyl)phenyl, 2,3,4,6-tetraacetate", "\u03b2-D-Glucopyranoside, 4-(hydroxymethyl)phenyl, 2,3,4,6-tetraacetate", "Acetagastrodine", "Acetagastrodin"], "SMILES": "O(C(C)=O)C1C(OC(C)=O)C(OC2=CC=C(CO)C=C2)OC(COC(C)=O)C1OC(C)=O", "physical_data": {"Molecular Weight": "454.42", "Molecular Formula": "C21H26O11", "Melting Point": "170-171 \u00b0C"}}