{"cas_no": "643-58-3", "cn_name": "2-\u82ef\u57fa\u7532\u82ef", "en_name": ["2-Methylbiphenyl", "1,1\u2032-Biphenyl, 2-methyl-", "Biphenyl, 2-methyl-", "2-Methyl-1,1\u2032-biphenyl", "2-Methylbiphenyl", "o-Methylbiphenyl", "o-Phenyltoluene", "2-Phenyltoluene", "NSC 5321", "o-Methylphenyl benzene", "1-Methyl-2-phenylbenzene"], "SMILES": "CC1=C(C2=CC=CC=C2)C=CC=C1", "physical_data": {"Molecular Weight": "168.23", "Molecular Formula": "C13H12", "Boiling Point": "255.5 \u00b0C", "Melting Point": "-0.2 \u00b0C", "Density": "1.01134 g/cm\u00b3 @ Temp: 20 \u00b0C"}}