{"cas_no": "643-28-7", "cn_name": "2-\u5f02\u4e19\u57fa\u82ef\u80fa", "en_name": ["2-Isopropylaniline", "Benzenamine, 2-(1-methylethyl)-", "Aniline, o-isopropyl-", "2-(1-Methylethyl)benzenamine", "2-Isopropylaniline", "o-Isopropylaniline", "o-Cumidine", "2-Aminoisopropylbenzene", "o-Aminoisopropylbenzene", "1-Amino-2-isopropylbenzene", "o-Aminocumene", "2-(1-Methylethyl)aniline", "(2-Isopropylphenyl)amine", "2-Isopropylbenzenamine", "[2-(1-Methylethyl)phenyl]amine", "2-Propan-2-ylaniline", "2-(Propan-2-yl)aniline"], "SMILES": "C(C)(C)C1=C(N)C=CC=C1", "physical_data": {"Molecular Weight": "135.21", "Molecular Formula": "C9H13N", "Boiling Point": "221 \u00b0C", "Density": "0.976 g/cm\u00b3 @ Temp: 12 \u00b0C"}}