{"cas_no": "643-03-8", "cn_name": "D-\u5854\u7f57\u7cd6\u9187", "en_name": ["D-Altritol", "D-Altritol", "Altritol, D-", "D-Talitol"], "SMILES": "C(C(C(CO)O)O)(C(CO)O)O", "physical_data": {"Molecular Weight": "182.17", "Molecular Formula": "C6H14O6", "Melting Point": "66-67 \u00b0C"}}