{"cas_no": "643-10-7", "cn_name": "\u5f02\u808c\u9187", "en_name": ["allo-Inositol", "allo-Inositol", "Inositol, allo-", "Alloinositol"], "SMILES": "OC1C(O)C(O)C(O)C(O)C1O", "physical_data": {"Molecular Weight": "180.16", "Molecular Formula": "C6H12O6", "Melting Point": "310-320 \u00b0C (decomp)"}}