{"cas_no": "643-84-5", "cn_name": "\u6c2f\u5316\u9526\u8475\u8272\u7d20", "en_name": ["Malvidin", "1-Benzopyrylium, 3,5,7-trihydroxy-2-(4-hydroxy-3,5-dimethoxyphenyl)-, chloride (1:1)", "Malvidin", "Flavylium, 3,4\u2032,5,7-tetrahydroxy-3\u2032,5\u2032-dimethoxy-, chloride", "1-Benzopyrylium, 3,5,7-trihydroxy-2-(4-hydroxy-3,5-dimethoxyphenyl)-, chloride", "Enidin", "Malvidin chloride", "Oenidin", "Syringidin", "Syringidin chloride", "3,4\u2032,5,7-Tetrahydroxy-3\u2032,5\u2032-dimethoxyflavylium chloride", "3,4\u2032,5,7-Tetrahydroxy-3\u2032,5\u2032-dimethoxy-2-phenylbenzopyrylium chloride", "Malvidol", "Primulidin", "Malvinidin", "Malvinidol chloride"], "SMILES": "OC=1C(C2=CC(OC)=C(O)C(OC)=C2)=[O+]C3=C(C1)C(O)=CC(O)=C3.[Cl-]", "physical_data": {"Molecular Weight": "", "Molecular Formula": "C17H15O7.Cl", "Melting Point": "&gt;300 \u00b0C"}}