{"cas_no": "643-01-6", "cn_name": "L-\u7518\u9732\u9187", "en_name": ["L-Mannitol", "L-Mannitol", "Mannitol, L-"], "SMILES": "C(C(C(CO)O)O)(C(CO)O)O", "physical_data": {"Molecular Weight": "182.17", "Molecular Formula": "C6H14O6", "Melting Point": "162-163 \u00b0C"}}