{"cas_no": "643-65-2", "cn_name": "3-\u7532\u57fa\u4e8c\u82ef\u7532\u916e", "en_name": ["3-Methylbenzophenone", "Methanone, (3-methylphenyl)phenyl-", "Benzophenone, 3-methyl-", "(3-Methylphenyl)phenylmethanone", "3-Methylbenzophenone", "m-Methylbenzophenone", "Phenyl m-tolyl ketone", "3-Benzoyltoluene", "Phenyl 3-tolyl ketone", "Phenyl(m-tolyl)methanone"], "SMILES": "C(=O)(C1=CC(C)=CC=C1)C2=CC=CC=C2", "physical_data": {"Molecular Weight": "196.24", "Molecular Formula": "C14H12O", "Boiling Point": "317 \u00b0C", "Melting Point": "159-160 \u00b0C", "Density": "1.095 g/cm\u00b3 @ Temp: 20 \u00b0C"}}