{"cas_no": "643-43-6", "cn_name": "2,4-\u4e8c\u785d\u57fa\u82ef\u4e59\u9178", "en_name": ["2,4-Dinitrophenylacetic acid", "Benzeneacetic acid, 2,4-dinitro-", "Acetic acid, (2,4-dinitrophenyl)-", "2,4-Dinitrobenzeneacetic acid", "2,4-Dinitrophenylacetic acid", "NSC 6225", "2-(2,4-Dinitrophenyl)acetic acid"], "SMILES": "N(=O)(=O)C1=C(CC(O)=O)C=CC(N(=O)=O)=C1", "physical_data": {"Molecular Weight": "226.14", "Molecular Formula": "C8H6N2O6", "Melting Point": "172 \u00b0C"}}