{"cas_no": "643-38-9", "cn_name": "2,3-\u55b9\u5549\u4e8c\u7532\u9178", "en_name": ["2,3-Quinolinedicarboxylic acid", "2,3-Quinolinedicarboxylic acid", "Acridinic acid", "NSC 26342"], "SMILES": "C(O)(=O)C=1C(C(O)=O)=NC2=C(C1)C=CC=C2", "physical_data": {"Molecular Weight": "217.18", "Molecular Formula": "C11H7NO4", "Melting Point": "183 \u00b0C"}}