{"cas_no": "643-93-6", "cn_name": "3-\u7532\u57fa\u8054\u82ef", "en_name": ["3-Methylbiphenyl", "1,1\u2032-Biphenyl, 3-methyl-", "Biphenyl, 3-methyl-", "3-Methyl-1,1\u2032-biphenyl", "3-Methylbiphenyl", "3-Methyldiphenyl", "m-Methylbiphenyl", "3-Phenyltoluene", "m-Phenyltoluene", "(3-Methylphenyl)benzene"], "SMILES": "CC=1C=C(C=CC1)C2=CC=CC=C2", "physical_data": {"Molecular Weight": "168.23", "Molecular Formula": "C13H12", "Boiling Point": "272.7 \u00b0C", "Melting Point": "4.5 \u00b0C", "Density": "1.0182 g/cm\u00b3 @ Temp: 16.7 \u00b0C"}}