{"cas_no": "643-12-9", "cn_name": "D-\u624b\u6027\u808c\u9187", "en_name": ["D-chiro-Inositol", "D-chiro-Inositol", "Inositol, D-chiro-", "D-Inositol", "(+)-chiro-Inositol", "D-(+)-chiro-Inositol"], "SMILES": "OC1C(O)C(O)C(O)C(O)C1O", "physical_data": {"Molecular Weight": "180.16", "Molecular Formula": "C6H12O6", "Melting Point": "249.5 \u00b0C", "Density": "1.598 g/cm\u00b3 @ Temp: 20 \u00b0C"}}