{"cas_no": "643-79-8", "cn_name": "\u90bb\u82ef\u4e8c\u7532\u919b", "en_name": ["Phthalaldehyde", "1,2-Benzenedicarboxaldehyde", "Phthalaldehyde", "o-Phthalaldehyde", "o-Phthaldialdehyde", "Phthalic aldehyde", "Phthalic dialdehyde", "Phthalyldicarboxaldehyde", "2-Formylbenzaldehyde", "Benzene-1,2-dicarbaldehyde", "o-Phthalic dialdehyde", "1,2-Diformylbenzene", "o-Diformylbenzene", "CIDEX OPA", "OP 100S", "OP 100SF", "1,2-Phthalaldehyde", "o-Benzenedicarbaldehyde", "NSC 13394", "Phtharal", "2-Phthalaldehyde", "1,2-Formylbenzene"], "SMILES": "C(=O)C1=C(C=O)C=CC=C1", "physical_data": {"Molecular Weight": "134.13", "Molecular Formula": "C8H6O2", "Melting Point": "55-56 \u00b0C"}}