{"cas_no": "6434-78-2", "cn_name": "2-\u58ec\u70ef", "en_name": ["(2E)-2-Nonene", "2-Nonene, (2E)-", "2-Nonene, (E)-", "(2E)-2-Nonene", "trans-2-Nonene", "(E)-2-Nonene", "\u03b2-trans-Nonene", "(E)-2-Nonene"], "SMILES": "C(CCCC)CC=CC", "physical_data": {"Molecular Weight": "126.24", "Molecular Formula": "C9H18", "Boiling Point": "146-148 \u00b0C @ Press: 760 Torr"}}