{"cas_no": "64359-81-5", "cn_name": "4,5-\u4e8c\u6c2f-2-\u6b63\u8f9b\u57fa-3-\u5f02\u567b\u5511\u5549\u916e", "en_name": ["4,5-Dichloro-2-n-octyl-4-isothiazolin-3-one", "3(2H)-Isothiazolone, 4,5-dichloro-2-octyl-", "4,5-Dichloro-2-octyl-3(2H)-isothiazolone", "C 9211", "RH 287", "Kathon 930", "4,5-Dichloro-2-n-octyl-3-isothiazolone", "4,5-Dichloro-2-octyl-3-isothiazolone", "4,5-Dichloro-2-octylisothiazolin-3-one", "4,5-Dichloro-2-octyl-4-isothiazolin-3-one", "Sea-Nine 211", "Kathon RH 287", "Kathon 5287", "Kathon 287T", "4,5-Dichloro-2-n-octylisothiazolin-3-one", "4,5-Dichloro-2-n-octyl-4-isothiazolin-3-one", "Sea-Nine 221", "Dichloro-N-octylisothiazolin-3-one", "Ecoplast T 20", "Kathon 910SB", "Nalco 2894", "Kathon 287tech", "Klarix 4000", "Kathon 287PXE", "Sea-Nine", "4,5-Dichloro-2-N-octyl-3(2H)-isothiazolone", "Sea-Nine 211N", "Rocima 200", "DCOIT", "Rozone 2000", "4,5-Dichloro-n-octylisothiazolin-3-one", "4,5-Dichloro-2-n-octyl-4-isothiazoline-3-one", "Vinyzene DCOIT", "SeaNine CR Marine Anti-Fouling Agent", "Sea-Nine CR 2", "Kathon 287", "DCOIT 30", "Bioban 200", "4,5-Dichloro-2-octyl-isothiazolone", "DCOIT 97", "2-(n-Octyl)-dichloro-3-isothiazolone", "DC 30", "DC 30 (antibacterial)", "4,5-Dichloro-2-n-octylisothiazolyl-3-one", "Dichlorooctylisothiazolinone", "Sea-Nine Ultra", "IT 4008", "Parmetol S 15", "DBX 200B"], "SMILES": "C(CCCCCCC)N1C(=O)C(Cl)=C(Cl)S1", "physical_data": {"Molecular Weight": "282.23", "Molecular Formula": "C11H17Cl2NOS", "Melting Point": "44-46 \u00b0C"}}