{"cas_no": "6436-90-4", "cn_name": "N-\u82c4\u57fa\u7518\u6c28\u9178\u4e59\u916f", "en_name": ["N-Benzylglycine ethyl ester", "Glycine, N-(phenylmethyl)-, ethyl ester", "Glycine, N-benzyl-, ethyl ester", "Ethyl N-benzylglycinate", "N-Benzylglycine ethyl ester", "N-(Ethoxycarbonylmethyl)-N-benzylamine", "N-(Phenylmethyl)glycine ethyl ester", "N-Benzyl-O-ethylglycinate", "Ethyl N-benzylglycine", "(Benzylamino)acetic acid ethyl ester", "Ethyl benzylaminoacetate", "Ethyl 2-(benzylamino)acetate"], "SMILES": "C(NCC(OCC)=O)C1=CC=CC=C1", "physical_data": {"Molecular Weight": "193.24", "Molecular Formula": "C11H15NO2", "Boiling Point": "153-154 \u00b0C @ Press: 13 Torr"}}