{"cas_no": "64372-56-1", "cn_name": "\u897f\u915e\u666e\u5170\u6742\u8d28A", "en_name": ["1-[3-(Dimethylamino)propyl]-1-(4-fluorophenyl)-1,3-dihydro-5-isobenzofurancarboxamide", "5-Isobenzofurancarboxamide, 1-[3-(dimethylamino)propyl]-1-(4-fluorophenyl)-1,3-dihydro-", "1-[3-(Dimethylamino)propyl]-1-(4-fluorophenyl)-1,3-dihydro-5-isobenzofurancarboxamide", "1-[3-(Dimethylamino)propyl]-1-(4-fluorophenyl)-3H-2-benzofuran-5-carboxamide"], "SMILES": "C(CCN(C)C)C1(C=2C(CO1)=CC(C(N)=O)=CC2)C3=CC=C(F)C=C3", "physical_data": {"Molecular Weight": "342.41", "Molecular Formula": "C20H23FN2O2", "Melting Point": "126-128 \u00b0C"}}