{"cas_no": "644-13-3", "cn_name": "2-\u82ef\u7532\u9170\u8418", "en_name": ["2-Benzoylnaphthalene", "Methanone, 2-naphthalenylphenyl-", "Ketone, 2-naphthyl phenyl", "2-Naphthalenylphenylmethanone", "2-Benzoylnaphthalene", "2-Naphthyl phenyl ketone", "2-Benzonaphthone", "\u03b2-Benzoylnaphthalene", "Phenyl 2-naphthyl ketone", "\u03b2-Naphthyl phenyl ketone", "NSC 5190"], "SMILES": "C(=O)(C1=CC2=C(C=C1)C=CC=C2)C3=CC=CC=C3", "physical_data": {"Molecular Weight": "232.28", "Molecular Formula": "C17H12O", "Boiling Point": "398 \u00b0C @ Press: 154 Torr", "Melting Point": "82 \u00b0C"}}