{"cas_no": "644-06-4", "cn_name": "\u65e9\u719f\u7d20\u2161", "en_name": ["Precocene II", "2H-1-Benzopyran, 6,7-dimethoxy-2,2-dimethyl-", "6,7-Dimethoxy-2,2-dimethyl-2H-1-benzopyran", "Ageratochromene", "Precocene 2", "Precocene II", "6,7-Dimethoxy-2,2-dimethyl-2H-chromene", "Ageratochromene II", "NSC 318792"], "SMILES": "O(C)C=1C=C2C(=CC1OC)OC(C)(C)C=C2", "physical_data": {"Molecular Weight": "220.26", "Molecular Formula": "C13H16O3", "Boiling Point": "155-160 \u00b0C @ Press: 9 Torr", "Melting Point": "47.5 \u00b0C"}}