{"cas_no": "644-98-4", "cn_name": "2-\u5f02\u4e19\u57fa\u5421\u5576", "en_name": ["2-Isopropylpyridine", "Pyridine, 2-(1-methylethyl)-", "Pyridine, 2-isopropyl-", "2-(1-Methylethyl)pyridine", "2-Isopropylpyridine", "2-(2-Pyridyl)propane", "NSC 42615", "2-(Propan-2-yl)pyridine", "2-Propan-2-ylpyridine"], "SMILES": "C(C)(C)C1=CC=CC=N1", "physical_data": {"Molecular Weight": "121.18", "Molecular Formula": "C8H11N", "Boiling Point": "154-156 \u00b0C @ Press: 726 Torr", "Melting Point": "-141 \u00b0C", "Density": "1.4910 g/cm\u00b3 @ Temp: 20 \u00b0C"}}