{"cas_no": "644-97-3", "cn_name": "\u82ef\u57fa\u4e8c\u6c2f\u5316\u78f7", "en_name": ["Dichlorophenylphosphine", "Phosphonous dichloride, P-phenyl-", "Phosphonous dichloride, phenyl-", "P-Phenylphosphonous dichloride", "Dichlorophenylphosphine", "Phenyldichlorophosphine", "Phenylphosphonous dichloride", "Phenylphosphine dichloride", "Phosphine, dichlorophenyl-", "Phenyl phosphorus dichloride", "Phenylphosphonous acid dichloride", "Phenylphosphinous dichloride", "NSC 66478"], "SMILES": "P(Cl)(Cl)C1=CC=CC=C1", "physical_data": {"Molecular Weight": "178.98", "Molecular Formula": "C6H5Cl2P", "Boiling Point": "99-101 \u00b0C @ Press: 11 Torr", "Melting Point": "-51 \u00b0C", "Density": "1.356 g/cm\u00b3 @ Temp: 20 \u00b0C"}}