{"cas_no": "644-78-0", "cn_name": "2-\u7f9f\u57fa\u67e5\u916e", "en_name": ["2-Hydroxychalcone", "2-Propen-1-one, 3-(2-hydroxyphenyl)-1-phenyl-", "Chalcone, 2-hydroxy-", "3-(2-Hydroxyphenyl)-1-phenyl-2-propen-1-one", "2-Hydroxychalcone", "3-(o-Hydroxyphenyl)acrylophenone", "o-Hydroxystyryl phenyl ketone", "1-Phenyl-3-(2-hydroxyphenyl)-2-propenone", "Salicylideneacetophenone", "NSC 37432", "NSC 640539", "3-(2-Hydroxyphenyl)-1-phenylpropenone"], "SMILES": "C(=CC(=O)C1=CC=CC=C1)C2=C(O)C=CC=C2", "physical_data": {"Molecular Weight": "224.25", "Molecular Formula": "C15H12O2", "Melting Point": "153-154 \u00b0C"}}