{"cas_no": "644-35-9", "cn_name": "2-\u6b63\u4e19\u57fa\u82ef\u915a", "en_name": ["2-Propylphenol", "Phenol, 2-propyl-", "Phenol, o-propyl-", "2-Propylphenol", "o-Propylphenol", "2-n-Propylphenol", "o-n-Propylphenol", "NSC 65646"], "SMILES": "C(CC)C1=C(O)C=CC=C1", "physical_data": {"Molecular Weight": "136.19", "Molecular Formula": "C9H12O", "Boiling Point": "220 \u00b0C", "Melting Point": "7 \u00b0C", "Density": "1.000 g/cm\u00b3 @ Temp: 16 \u00b0C"}}