{"cas_no": "644-31-5", "cn_name": "\u8fc7\u6c27\u5316\u4e59\u9170\u82ef\u7532\u9170", "en_name": ["Acetyl benzoyl peroxide", "Peroxide, acetyl benzoyl", "Acetyl benzoyl peroxide", "Acetozone", "Benzoyl acetyl peroxide", "Benzozone", "Trigonox P 50S"], "SMILES": "C(OOC(C)=O)(=O)C1=CC=CC=C1", "physical_data": {"Molecular Weight": "180.16", "Molecular Formula": "C9H8O4", "Boiling Point": "130 \u00b0C @ Press: 19 Torr", "Melting Point": "37 \u00b0C"}}