{"cas_no": "644-21-3", "cn_name": "1-\u4e59-1-\u82ef\u80bc", "en_name": ["1-Ethyl-1-phenylhydrazine", "Hydrazine, 1-ethyl-1-phenyl-", "1-Ethyl-1-phenylhydrazine", "1-Phenyl-1-ethylhydrazine", "N-Ethyl-N-phenylhydrazine"], "SMILES": "N(CC)(N)C1=CC=CC=C1", "physical_data": {"Molecular Weight": "136.19", "Molecular Formula": "C8H12N2", "Boiling Point": "237 \u00b0C"}}