{"cas_no": "644-36-0", "cn_name": "\u90bb\u7532\u57fa\u82ef\u4e59\u9178", "en_name": ["(2-Methylphenyl)acetic acid", "Benzeneacetic acid, 2-methyl-", "Acetic acid, o-tolyl-", "2-Methylbenzeneacetic acid", "(2-Methylphenyl)acetic acid", "o-Methylphenylacetic acid", "o-Tolylacetic acid", "2-(o-Tolyl)acetic acid", "2-(2-Tolyl)acetic acid", "NSC 16053", "2-(2-Methylphenyl)acetic acid", "2-(p-Tolyl)acetic acetic"], "SMILES": "C(C(O)=O)C1=C(C)C=CC=C1", "physical_data": {"Molecular Weight": "150.17", "Molecular Formula": "C9H10O2", "Melting Point": "86-89 \u00b0C"}}