{"cas_no": "644-76-8", "cn_name": "1,6-\u5185\u919a-D-\u534a\u4e73\u7cd6", "en_name": ["D-Galactosan", "\u03b2-D-Galactopyranose, 1,6-anhydro-", "Galactopyranose, 1,6-anhydro-, \u03b2-D-", "1,6-Anhydro-\u03b2-D-galactopyranose", "6,8-Dioxabicyclo[3.2.1]octane, \u03b2-D-galactopyranose deriv.", "D-Galactosan", "Levogalactosan", "NSC 1376", "Galactosan"], "SMILES": "OC1C2OC(OC2)C(O)C1O", "physical_data": {"Molecular Weight": "162.14", "Molecular Formula": "C6H10O5", "Melting Point": "220-221 \u00b0C"}}