{"cas_no": "644-08-6", "cn_name": "4-\u7532\u57fa\u8054\u82ef", "en_name": ["4-Methylbiphenyl", "1,1\u2032-Biphenyl, 4-methyl-", "Biphenyl, 4-methyl-", "4-Methyl-1,1\u2032-biphenyl", "4-Methylbiphenyl", "4-Methyldiphenyl", "p-Methylbiphenyl", "p-Methyldiphenyl", "p-Phenyltoluene", "4-Phenyltoluene", "(4-Methylphenyl)benzene", "1-Methyl-4-phenylbenzene", "NSC 407669", "p-Methylphenyl benzene"], "SMILES": "CC1=CC=C(C=C1)C2=CC=CC=C2", "physical_data": {"Molecular Weight": "168.23", "Molecular Formula": "C13H12", "Boiling Point": "267.5 \u00b0C", "Melting Point": "49.5 \u00b0C"}}