{"cas_no": "644-62-2", "cn_name": "\u7532\u6c2f\u82ac\u90a3\u9178", "en_name": ["Meclofenamic acid", "Benzoic acid, 2-[(2,6-dichloro-3-methylphenyl)amino]-", "Anthranilic acid, N-(2,6-dichloro-m-tolyl)-", "2-[(2,6-Dichloro-3-methylphenyl)amino]benzoic acid", "N-(2,6-Dichloro-m-tolyl)anthranilic acid", "Meclofenamic acid", "Meclophenamic acid", "N-(3-Methyl-2,6-dichlorophenyl)anthranilic acid", "INF 4668", "N-(2,6-Dichloro-3-methylphenyl)anthranilic acid", "Arquel", "NSC 95309", "MeSH ID: D008469"], "SMILES": "N(C1=C(Cl)C(C)=CC=C1Cl)C2=C(C(O)=O)C=CC=C2", "physical_data": {"Molecular Weight": "296.15", "Molecular Formula": "C14H11Cl2NO2", "Melting Point": "257 \u00b0C", "Density": "1.43 g/cm\u00b3"}}