{"cas_no": "644-49-5", "cn_name": "2-\u7532\u57fa\u4e19\u9178\u4e19\u916f", "en_name": ["Propyl isobutyrate", "Propanoic acid, 2-methyl-, propyl ester", "Isobutyric acid, propyl ester", "Propyl isobutyrate", "Propyl 2-methylpropanoate", "n-Propyl isobutyrate", "NSC 406702"], "SMILES": "C(C(C)C)(OCCC)=O", "physical_data": {"Molecular Weight": "130.18", "Molecular Formula": "C7H14O2", "Boiling Point": "135.4 \u00b0C"}}