{"cas_no": "644-64-4", "cn_name": "2-\u4e8c\u7532\u57fa\u6c28\u57fa\u7532\u9170\u57fa-3-\u7532\u57fa-5-\u5421\u5511\u57fa-N\uff0cN-\u4e8c\u7532\u57fa\u6c28\u57fa\u7532\u9178\u916f", "en_name": ["Dimetilan", "Carbamic acid, N,N-dimethyl-, 1-[(dimethylamino)carbonyl]-5-methyl-1H-pyrazol-3-yl ester", "Carbamic acid, dimethyl-, ester with 3-hydroxy-N,N,5-trimethylpyrazole-1-carboxamide", "Carbamic acid, dimethyl-, 1-[(dimethylamino)carbonyl]-5-methyl-1H-pyrazol-3-yl ester", "Carbamic acid, dimethyl-, 1-dimethylcarbamoyl-5-methylpyrazol-3-yl ester", "Pyrazole-1-carboxamide, 3-hydroxy-N,N,5-trimethyl-, dimethylcarbamate (ester)", "Geigy 22870", "2-Dimethylcarbamoyl-3-methyl-5-pyrazolyl dimethylcarbamate", "2-(N,N-Dimethylcarbamyl)-3-methylpyrazolyl-5 N,N-dimethylcarbamate", "Snip Fly", "2-Dimethylcarbamyl-3-methylpyrazol-5-yl dimethylcarbamate", "1-Dimethylcarbamoyl-5-methyl-3-pyrazolyl dimethylcarbamate", "Dimetilan", "Dimetilane", "1-(Dimethylcarbamoyl)-5-methyl-3-pyrazolyl N,N-dimethylcarbamate"], "SMILES": "C(N(C)C)(=O)N1N=C(OC(N(C)C)=O)C=C1C", "physical_data": {"Molecular Weight": "240.26", "Molecular Formula": "C10H16N4O3", "Boiling Point": "200-210 \u00b0C @ Press: 13 Torr", "Melting Point": "68-71 \u00b0C"}}