{"cas_no": "6440-58-0", "cn_name": "1,3-\u4e8c\u7f9f\u7532\u57fa-5,5-\u4e8c\u7532\u57fa\u6d77\u56e0", "en_name": ["DMDM Hydantoin", "2,4-Imidazolidinedione, 1,3-bis(hydroxymethyl)-5,5-dimethyl-", "Hydantoin, 1,3-bis(hydroxymethyl)-5,5-dimethyl-", "1,3-Bis(hydroxymethyl)-5,5-dimethyl-2,4-imidazolidinedione", "1,3-Bis(hydroxymethyl)-5,5-dimethylhydantoin", "Dimethylol-5,5-dimethylhydantoin", "N,N\u2032-Dimethylol-5,5-dimethylhydantoin", "DMDMH", "DMDM Hydantoin", "Dantoin DMDMH 55", "1,3-Dimethylol-5,5-dimethylhydantoin", "DMDMH 55", "Glydant", "Glydant XL 1000", "Dantogard 2000", "1,3-Dihydroxymethyl-5,5-dimethylhydantoin", "Gidol", "Dantogard", "Surcide DMH", "Mackstat DM", "Nipaguard DMDMH", "Dekafald", "1,3-Bis(hydroxymethyl)-5,5-dimethylimidazolidine-2,4-dione", "Glydant LTD", "Mergal 395", "K 2000", "K 2000 (preservative)"], "SMILES": "CC1(C)N(CO)C(=O)N(CO)C1=O", "physical_data": {"Molecular Weight": "188.18", "Molecular Formula": "C7H12N2O4", "Melting Point": "1.00-2.5 \u00b0C"}}