{"cas_no": "64407-07-4", "cn_name": "\u95f4\u6c30\u57fa\u6c2f\u82c4", "en_name": ["3-(Chloromethyl)benzonitrile", "Benzonitrile, 3-(chloromethyl)-", "3-(Chloromethyl)benzonitrile", "m-Cyanobenzyl chloride", "m-(Chloromethyl)benzonitrile", "3-Cyanobenzyl chloride", "m-Nitrilebenzyl chloride"], "SMILES": "C(Cl)C1=CC(C#N)=CC=C1", "physical_data": {"Molecular Weight": "151.59", "Molecular Formula": "C8H6ClN", "Melting Point": "68-68.5 \u00b0C"}}