{"cas_no": "64419-24-5", "cn_name": "2,4-\u4e8c\u7f9f\u57fa\u82ef\u8148", "en_name": ["2,4-Dihydroxybenzonitrile", "Benzonitrile, 2,4-dihydroxy-", "2,4-Dihydroxybenzonitrile"], "SMILES": "C(#N)C1=C(O)C=C(O)C=C1", "physical_data": {"Molecular Weight": "135.12", "Molecular Formula": "C7H5NO2", "Melting Point": "179 \u00b0C"}}