{"cas_no": "6443-69-2", "cn_name": "3,4,5-\u4e09\u7532\u6c27\u57fa\u7532\u82ef", "en_name": ["3,4,5-Trimethoxytoluene", "Benzene, 1,2,3-trimethoxy-5-methyl-", "Toluene, 3,4,5-trimethoxy-", "1,2,3-Trimethoxy-5-methylbenzene", "3,4,5-Trimethoxytoluene", "1-Methyl-3,4,5-trimethoxybenzene", "3,4,5-Trimethoxy-1-methylbenzene", "5-Methylpyrogallol trimethyl ether", "2,6-Dimethoxy-4-methylanisole", "5-Methyl-1,2,3-trimethoxybenzene"], "SMILES": "O(C)C1=C(OC)C=C(C)C=C1OC", "physical_data": {"Molecular Weight": "182.22", "Molecular Formula": "C10H14O3", "Boiling Point": "68 \u00b0C @ Press: 0.03 Torr", "Melting Point": "32.7-35.4 \u00b0C"}}