{"cas_no": "6443-85-2", "cn_name": "3-\u5421\u5576\u57fa\u4e59\u8148", "en_name": ["3-Pyridineacetonitrile", "3-Pyridineacetonitrile", "3-Cyanomethylpyridine", "3-Pyridylacetonitrile", "RG 84098", "NSC 83226", "Pyridin-3-ylacetonitrile", "2-(Pyridin-3-yl)acetonitrile", "2-(3-Pyridyl)acetonitrile"], "SMILES": "C(C#N)C=1C=CC=NC1", "physical_data": {"Molecular Weight": "118.14", "Molecular Formula": "C7H6N2", "Boiling Point": "91 \u00b0C @ Press: 2 Torr", "Melting Point": "99-100 \u00b0C"}}