{"cas_no": "6443-72-7", "cn_name": "3,4-\u4e8c\u7532\u6c27\u57fa\u8089\u6842\u9178", "en_name": ["3-(3,4-Dimethoxyphenyl)-2-propenenitrile", "2-Propenenitrile, 3-(3,4-dimethoxyphenyl)-", "Cinnamonitrile, 3,4-dimethoxy-", "3-(3,4-Dimethoxyphenyl)-2-propenenitrile", "\u03b2-(3,4-Dimethoxyphenyl)acrylonitrile", "NSC 51968"], "SMILES": "O(C)C1=C(OC)C=CC(C=CC#N)=C1", "physical_data": {"Molecular Weight": "189.21", "Molecular Formula": "C11H11NO2", "Boiling Point": "172-178 \u00b0C @ Press: 4 Torr", "Melting Point": "98 \u00b0C"}}