{"cas_no": "6443-92-1", "cn_name": "\u987a-2-\u5e9a\u70ef", "en_name": ["cis-2-Heptene", "2-Heptene, (2Z)-", "2-Heptene, (Z)-", "(2Z)-2-Heptene", "cis-2-Heptene", "(Z)-2-Heptene"], "SMILES": "C(CCC)C=CC", "physical_data": {"Molecular Weight": "98.19", "Molecular Formula": "C7H14", "Boiling Point": "98.4 \u00b0C", "Density": "0.705 g/cm\u00b3 @ Temp: 25 \u00b0C"}}