{"cas_no": "64443-05-6", "cn_name": "\u516d\u6c1f\u78f7\u9178\u56db\u4e59\u6c30\u94dc", "en_name": ["Tetrakis(acetonitrile)copper(1+) hexafluorophosphate", "Copper(1+), tetrakis(acetonitrile)-, (T-4)-, hexafluorophosphate(1-) (1:1)", "Copper(1+), tetrakis(acetonitrile)-, (T-4)-, hexafluorophosphate(1-)", "Phosphate(1-), hexafluoro-, (T-4)-tetrakis(acetonitrile)copper(1+)", "Tetrakis(acetonitrile)copper(1+) hexafluorophosphate(1-)", "Tetrakis(acetonitrile)copper(1+) hexafluorophosphate", "Tetrakis(acetonitrile)copper(I) hexafluorophosphate", "Tetrakis(acetonitrile)copper hexafluorophosphate", "Tetra(acetonitrile)copper(1+) hexafluorophosphate", "Cuprous tetrakis(acetonitrile) hexafluorophosphate", "Copper(I) tetrakis(acetonitrile) hexafluorophosphate"], "SMILES": "[Cu+]([N]#CC)([N]#CC)([N]#CC)[N]#CC.[P+5]([F-])([F-])([F-])([F-])([F-])[F-]", "physical_data": {"Molecular Weight": "", "Molecular Formula": "C8H12CuN4.F6P", "Melting Point": "147-152 \u00b0C (decomp)"}}