{"cas_no": "64464-07-9", "cn_name": "2-\u7532\u6c27\u57fa\u82ef\u6c27\u57fa\u4e59\u80fa\u76d0\u9178\u76d0", "en_name": ["Ethanamine, 2-(2-methoxyphenoxy)-, hydrochloride (1:1)", "Ethanamine, 2-(2-methoxyphenoxy)-, hydrochloride (1:1)", "Ethanamine, 2-(2-methoxyphenoxy)-, hydrochloride", "Ethylamine, 2-(o-methoxyphenoxy)-, hydrochloride", "2-(2-Methoxyphenoxy)ethylamine hydrochloride", "2-(2-Methoxyphenoxy)ethan-1-amine hydrochloride"], "SMILES": "O(CCN)C1=C(OC)C=CC=C1.Cl", "physical_data": {"Molecular Weight": "", "Molecular Formula": "C9H13NO2.ClH", "Melting Point": "116-117 \u00b0C"}}