{"cas_no": "64474-51-7", "cn_name": "7,2' - \u4e8c\u7f9f\u57fa - 3',4' - \u4e8c\u7532\u6c27\u57fa\u5f02\u9ec4\u70f7", "en_name": ["Isomucronulatol", "2H-1-Benzopyran-7-ol, 3,4-dihydro-3-(2-hydroxy-3,4-dimethoxyphenyl)-, (3R)-", "2H-1-Benzopyran-7-ol, 3,4-dihydro-3-(2-hydroxy-3,4-dimethoxyphenyl)-, (R)-", "(3R)-3,4-Dihydro-3-(2-hydroxy-3,4-dimethoxyphenyl)-2H-1-benzopyran-7-ol", "Isomucronulatol", "(-)-Isomucronulatol", "(3R)-7,2\u2032-Dihydroxy-3\u2032,4\u2032-dimethoxyisoflavan", "(3R)-7,2\u2032-Dihydroxy-3\u2032,4\u2032-dimethoxyisoflavan", "(R)-3-(2-Hydroxy-3,4-dimethoxyphenyl)chroman-7-ol"], "SMILES": "OC1=C(C2CC=3C(OC2)=CC(O)=CC3)C=CC(OC)=C1OC", "physical_data": {"Molecular Weight": "302.32", "Molecular Formula": "C17H18O5", "Melting Point": "152-153 \u00b0C"}}