{"cas_no": "64473-35-4", "cn_name": "1-(3-\u6eb4\u4e19\u57fa)-4-\u6c2f\u82ef", "en_name": ["1-(3-Bromopropyl)-4-chlorobenzene", "Benzene, 1-(3-bromopropyl)-4-chloro-", "1-(3-Bromopropyl)-4-chlorobenzene", "3-(4-Chlorophenyl)propyl bromide", "1-(3-Bromopropyl)4-chlorobenzene", "3-(4-Chlorophenyl)-1-bromopropane", "1-Chloro-4-(3-bromopropyl)benzene"], "SMILES": "C(CCBr)C1=CC=C(Cl)C=C1", "physical_data": {"Molecular Weight": "233.53", "Molecular Formula": "C9H10BrCl", "Boiling Point": "92 \u00b0C @ Press: 0.3 Torr"}}