{"cas_no": "64485-88-7", "cn_name": "\u6c28\u567b\u809f\u9178\u4e59\u916f", "en_name": ["Ethyl (\u03b1Z)-2-amino-\u03b1-(methoxyimino)-4-thiazoleacetate", "4-Thiazoleacetic acid, 2-amino-\u03b1-(methoxyimino)-, ethyl ester, (\u03b1Z)-", "4-Thiazoleacetic acid, 2-amino-\u03b1-(methoxyimino)-, ethyl ester, (Z)-", "Ethyl (\u03b1Z)-2-amino-\u03b1-(methoxyimino)-4-thiazoleacetate", "2-(2-Amino-4-thiazolyl)-2(Z)(methoxy)imino ethyl acetate", "Ethyl 2-(2-aminothiazol-4-yl)-(Z)-2-(methoxyimino)acetate", "Ethyl (Z)-[2-amino-4-thiazolyl](methoxyimino)acetate", "Ethyl (Z)-(2-aminothiazol-4-yl)-\u03b1-methoxyiminoacetate", "Ethyl (Z)-2-(2-aminothiazole-4-yl)-2-methoxyiminoacetate"], "SMILES": "C(C(OCC)=O)(=NOC)C=1N=C(N)SC1", "physical_data": {"Molecular Weight": "229.26", "Molecular Formula": "C8H11N3O3S", "Melting Point": "161-163 \u00b0C"}}