{"cas_no": "64480-66-6", "cn_name": "\u7518\u6c28\u718a\u80c6\u9178", "en_name": ["Glycoursodeoxycholic acid", "Glycine, N-[(3\u03b1,5\u03b2,7\u03b2)-3,7-dihydroxy-24-oxocholan-24-yl]-", "Glycoursodeoxycholic acid", "N-[(3\u03b1,5\u03b2,7\u03b2)-3,7-Dihydroxy-24-oxocholan-24-yl]glycine", "N-(3\u03b1,7\u03b2-Dihydroxy-5\u03b2-cholan-24-oyl)glycine", "3\u03b1,7\u03b2-Dihydroxy-5\u03b2-cholanoylglycine", "Ursodeoxycholylglycine", "Glycylursodeoxycholic acid"], "SMILES": "CC12C(C3C(C4(C)C(CC3O)CC(O)CC4)CC1)CCC2C(CCC(NCC(O)=O)=O)C", "physical_data": {"Molecular Weight": "", "Molecular Formula": "C26H43NO5", "Melting Point": "228 \u00b0C"}}