{"cas_no": "64481-10-3", "cn_name": "6,8-\u4e8c\u6c2f\u8272\u916e-3-\u7532\u919b\u7532\u6c27\u57fa\u9999\u8c46\u7d20-3-\u7532\u9178", "en_name": ["6,8-Dichloro-4-oxo-4H-1-benzopyran-3-carboxaldehyde", "4H-1-Benzopyran-3-carboxaldehyde, 6,8-dichloro-4-oxo-", "6,8-Dichloro-4-oxo-4H-1-benzopyran-3-carboxaldehyde", "6,8-Dichloro-3-formylchromone"], "SMILES": "ClC1=C2C(C(=O)C(C=O)=CO2)=CC(Cl)=C1", "physical_data": {"Molecular Weight": "243.04", "Molecular Formula": "C10H4Cl2O3", "Melting Point": "170-171 \u00b0C"}}