{"cas_no": "64488-52-4", "cn_name": "N-[4-(2-\u6c2f\u4e59\u9170\u57fa)\u82ef\u57fa]\u7532\u78fa\u9170\u80fa", "en_name": ["N-[4-(2-Chloroacetyl)phenyl]methanesulfonamide", "Methanesulfonamide, N-[4-(2-chloroacetyl)phenyl]-", "Methanesulfonamide, N-[4-(chloroacetyl)phenyl]-", "N-[4-(2-Chloroacetyl)phenyl]methanesulfonamide", "4\u2032-(Chloroacetyl)methanesulfonanilide", "2-Chloro-4\u2032-methanesulfonamidoacetophenone", "4-(Chloroacetyl)methanesulfonanilide"], "SMILES": "N(S(C)(=O)=O)C1=CC=C(C(CCl)=O)C=C1", "physical_data": {"Molecular Weight": "247.70", "Molecular Formula": "C9H10ClNO3S", "Melting Point": "197.5-199.0 \u00b0C"}}