{"cas_no": "645-08-9", "cn_name": "3-\u7f9f\u57fa-4-\u7532\u6c27\u57fa\u82ef\u7532\u9178", "en_name": ["Isovanillic acid", "Benzoic acid, 3-hydroxy-4-methoxy-", "Isovanillic acid", "p-Anisic acid, 3-hydroxy-", "3-Hydroxy-4-methoxybenzoic acid", "3-Hydroxy-p-anisic acid", "5-Carboxy-2-methoxyphenol", "4-Methoxy-3-hydroxybenzoic acid"], "SMILES": "C(O)(=O)C1=CC(O)=C(OC)C=C1", "physical_data": {"Molecular Weight": "168.15", "Molecular Formula": "C8H8O4", "Melting Point": "251 \u00b0C"}}