{"cas_no": "645-09-0", "cn_name": "3-\u785d\u57fa\u82ef\u7532\u9170\u80fa", "en_name": ["3-Nitrobenzamide", "Benzamide, 3-nitro-", "Benzamide, m-nitro-", "3-Nitrobenzamide", "m-Nitrobenzamide", "NSC 37327"], "SMILES": "C(N)(=O)C1=CC(N(=O)=O)=CC=C1", "physical_data": {"Molecular Weight": "166.13", "Molecular Formula": "C7H6N2O3", "Boiling Point": "312.5 \u00b0C", "Melting Point": "142.7 \u00b0C"}}