{"cas_no": "645-92-1", "cn_name": "4,6-\u4e8c\u6c28\u57fa-2-\u7f9f\u57fa-1,3,5-\u4e09\u55ea", "en_name": ["Ammeline", "1,3,5-Triazin-2(1H)-one, 4,6-diamino-", "s-Triazin-2-ol, 4,6-diamino-", "Ammeline", "s-Triazin-2(1H)-one, 4,6-diamino-", "4,6-Diamino-1,3,5-triazin-2(1H)-one", "Ammelin", "2,4-Diamino-6-hydroxy-s-triazine", "2,4-Diamino-6-hydroxy-1,3,5-triazine", "2-Hydroxy-4,6-diamino-s-triazine", "4,6-Diamino-2-hydroxy-s-triazine", "2,4-Diamino-1,3,5-triazin-6-one", "Deethyldeisopropylhydroxyyatrazine", "s-Diaminohydroxytriazine", "2-Hydroxydesethyldesisopropylatrazine", "GS 11791", "NSC 9778", "2,6-Diamino-1H-1,3,5-triazin-4-one"], "SMILES": "NC=1NC(N)=NC(=O)N1", "physical_data": {"Molecular Weight": "127.10", "Molecular Formula": "C3H5N5O", "Melting Point": "&gt;290 \u00b0C"}}