{"cas_no": "645-59-0", "cn_name": "\u82ef\u4ee3\u4e19\u8148", "en_name": ["Benzenepropanenitrile", "Benzenepropanenitrile", "Hydrocinnamonitrile", "\u03b2-Phenylpropionitrile", "Benzenepropionitrile", "3-Phenylpropionitrile", "3-Phenylpropanenitrile", "2-Phenylethyl cyanide", "(2-Cyanoethyl)benzene", "1-Cyano-2-phenylethane", "Phenethyl cyanide", "1-Phenyl-2-cyanoethane", "3-Phenylpropanonitrile", "Benzylacetonitrile", "Dihydrocinnamonitrile", "NSC 16936"], "SMILES": "C(CC#N)C1=CC=CC=C1", "physical_data": {"Molecular Weight": "131.17", "Molecular Formula": "C9H9N", "Boiling Point": "261 \u00b0C", "Melting Point": "-1 \u00b0C", "Density": "1.0016 g/cm\u00b3 @ Temp: 20 \u00b0C"}}