{"cas_no": "645-31-8", "cn_name": "2-(3,4-\u4e8c\u7f9f\u57fa\u82ef\u57fa)\u4e59\u80fa", "en_name": ["1,2-Benzenediol, 4-(2-aminoethyl)-, hydrobromide (1:1)", "1,2-Benzenediol, 4-(2-aminoethyl)-, hydrobromide (1:1)", "Pyrocatechol, 4-(2-aminoethyl)-, hydrobromide", "1,2-Benzenediol, 4-(2-aminoethyl)-, hydrobromide", "Dopamine hydrobromide", "3-Hydroxytyramine hydrobromide", "3,4-Dihydroxy-phenethylamine hydrobromide"], "SMILES": "C(CN)C1=CC(O)=C(O)C=C1.Br", "physical_data": {"Molecular Weight": "", "Molecular Formula": "C8H11NO2.BrH", "Melting Point": "212 \u00b0C"}}