{"cas_no": "645-67-0", "cn_name": "\u4e59\u9170\u4e19\u9178\u6b63\u4e19\u916f", "en_name": ["Propyl 4-oxopentanoate", "Pentanoic acid, 4-oxo-, propyl ester", "Levulinic acid, propyl ester", "Propyl 4-oxopentanoate", "Propyl levulinate", "NSC 4876", "n-Propyl levulinate"], "SMILES": "C(CCC(C)=O)(OCCC)=O", "physical_data": {"Molecular Weight": "158.20", "Molecular Formula": "C8H14O3", "Boiling Point": "214-216 \u00b0C", "Density": "0.98988 g/cm\u00b3 @ Temp: 20 \u00b0C"}}