{"cas_no": "645-62-5", "cn_name": "2-\u4e59\u57fa-2-\u5df1\u70ef\u919b", "en_name": ["2-Ethyl-2-hexenal", "2-Hexenal, 2-ethyl-", "2-Ethyl-2-hexenal", "2-Ethyl-3-propylacrolein", "\u03b1-Ethyl-\u03b2-propylacrolein", "2-Ethyl-2-hexen-1-al", "\u03b1-Ethyl-2-hexenal", "3-Formylhept-3-ene", "CKB 1364", "NSC 4787"], "SMILES": "C(=CCCC)(CC)C=O", "physical_data": {"Molecular Weight": "126.20", "Molecular Formula": "C8H14O", "Boiling Point": "175 \u00b0C", "Density": "0.8518 g/cm\u00b3"}}