{"cas_no": "645-88-5", "cn_name": "2-(\u6c28\u57fa\u6c27\u57fa)\u4e59\u9178", "en_name": ["(Aminooxy)acetic acid", "Acetic acid, 2-(aminooxy)-", "Acetic acid, (aminooxy)-", "2-(Aminooxy)acetic acid", "U 7524", "(Aminooxy)acetic acid", "AOAA", "Hydroxylamine, O-(carboxymethyl)-", "Methoxyamine, 1-carboxy-", "Aminoxyacetic acid", "(Carboxymethoxy)amine", "(O-Carboxymethyl)hydroxylamine", "\u03b1-Aminooxyacetic acid", "AOA", "O-(Carboxymethyl)hydroxyamine", "MeSH ID: D000625"], "SMILES": "C(C(O)=O)ON", "physical_data": {"Molecular Weight": "91.07", "Molecular Formula": "C2H5NO3", "Melting Point": "138 \u00b0C"}}