{"cas_no": "645-36-3", "cn_name": "\u6c28\u57fa\u4e59\u919b\u7f29\u4e8c\u4e59\u9187", "en_name": ["Aminoacetaldehyde diethyl acetal", "Ethanamine, 2,2-diethoxy-", "Acetaldehyde, amino-, diethyl acetal", "2,2-Diethoxyethanamine", "2,2-Diethoxyethylamine", "Glycinaldehyde diethyl acetal", "Aminoacetaldehyde diethyl acetal", "2-Aminoacetaldehyde diethyl acetal", "\u03b1-Aminoacetaldehyde diethyl acetal", "1-Amino-2,2-diethoxyethane", "\u03b2,\u03b2-Diethoxyethylamine", "1,1-Diethoxy-2-aminoethane", "NSC 19501", "2,2-Bis(ethyloxy)ethanamine", "2,2-Diethoxyethan-1-amine"], "SMILES": "C(OCC)(OCC)CN", "physical_data": {"Molecular Weight": "133.19", "Molecular Formula": "C6H15NO2", "Boiling Point": "163 \u00b0C", "Melting Point": "-78 \u00b0C", "Density": "0.9152 g/cm\u00b3 @ Temp: 25 \u00b0C"}}