{"cas_no": "645-69-2", "cn_name": "\u4e01\u4e8c\u9178\u4e8c\u620a\u916f", "en_name": ["Dipentyl succinate", "Butanedioic acid, 1,4-dipentyl ester", "Succinic acid, dipentyl ester", "Butanedioic acid, dipentyl ester", "Diamyl succinate", "Dipentyl succinate", "NSC 1501", "Di(n-pentyl) succinate"], "SMILES": "C(CCC(OCCCCC)=O)(OCCCCC)=O", "physical_data": {"Molecular Weight": "258.35", "Molecular Formula": "C14H26O4", "Boiling Point": "171.5 \u00b0C @ Press: 16 Torr", "Melting Point": "-10.8 \u00b0C"}}