{"cas_no": "645-96-5", "cn_name": "\u82ef\u7852\u915a", "en_name": ["Benzeneselenol", "Benzeneselenol", "Benzene, selenyl-", "Phenol, seleno-", "Phenyl selenol", "Phenyl selenomercaptan", "Selenophenol"], "SMILES": "[SeH]C1=CC=CC=C1", "physical_data": {"Molecular Weight": "157.07", "Molecular Formula": "C6H6Se", "Boiling Point": "183.6 \u00b0C"}}