{"cas_no": "645-48-7", "cn_name": "\u82ef\u80fa\u57fa\u786b\u8132", "en_name": ["Phenylthiosemicarbazide", "Hydrazinecarbothioamide, 2-phenyl-", "Semicarbazide, 1-phenyl-3-thio-", "2-Phenylhydrazinecarbothioamide", "1-Phenylthiosemicarbazide", "Phenylthiosemicarbazide", "1-Phenyl-3-thiosemicarbazide", "NSC 179798", "NSC 25003"], "SMILES": "N(NC(N)=S)C1=CC=CC=C1", "physical_data": {"Molecular Weight": "167.23", "Molecular Formula": "C7H9N3S", "Melting Point": "197-198 \u00b0C", "Density": "1.322 g/cm\u00b3"}}