{"cas_no": "645-45-4", "cn_name": "\u6c22\u5316\u8089\u6842\u9170\u6c2f", "en_name": ["Benzenepropanoyl chloride", "Benzenepropanoyl chloride", "Hydrocinnamoyl chloride", "\u03b2-Phenylpropionyl chloride", "3-Phenylpropionyl chloride", "\u03b2-Phenylpropanoyl chloride", "3-Phenylpropanoyl chloride", "Dihydrocinnamoyl chloride", "Hydrocinnamyl chloride", "3-Phenylpropionic acid chloride", "NSC 2854", "3-Phenylpropanoic acid chloride", "3-Phenylpropionoyl chloride"], "SMILES": "C(CC(Cl)=O)C1=CC=CC=C1", "physical_data": {"Molecular Weight": "168.62", "Molecular Formula": "C9H9ClO", "Boiling Point": "112 \u00b0C @ Press: 5 Torr", "Melting Point": "102-104 \u00b0C"}}