{"cas_no": "645-43-2", "cn_name": "\u5355\u786b\u9178\u80cd\u4e59\u5576", "en_name": ["Guanethidine monosulfate", "Guanidine, N-[2-(hexahydro-1(2H)-azocinyl)ethyl]-, sulfate (1:1)", "Guanidine, [2-(hexahydro-1(2H)-azocinyl)ethyl]-, sulfate (1:1)", "Azocine, guanidine deriv.", "Guanethidine monosulfate", "[2-(Hexahydro-1(2H)-azocinyl)ethyl]guanidine hydrogen sulfate", "Guanethidine sulfate (1:1)", "1-(2-(Azocan-1-yl)ethyl)guanidine sulfate"], "SMILES": "C(CNC(=N)N)N1CCCCCCC1.S(=O)(=O)(O)O", "physical_data": {"Molecular Weight": "", "Molecular Formula": "C10H22N4.H2O4S", "Melting Point": "276-281 \u00b0C"}}