{"cas_no": "645-35-2", "cn_name": "L-\u7ec4\u6c28\u9178\u76d0\u9178\u76d0", "en_name": ["(-)-Histidine monohydrochloride", "L-Histidine, hydrochloride (1:1)", "Histidine, monohydrochloride, L-", "L-Histidine, monohydrochloride", "(-)-Histidine monohydrochloride", "Histidine hydrochloride", "L-Histidine hydrochloride", "Histidine monohydrochloride", "NSC 257867"], "SMILES": "C(C(C(O)=O)N)C1=CN=CN1.Cl", "physical_data": {"Molecular Weight": "", "Molecular Formula": "C6H9N3O2.ClH", "Melting Point": "243-244 \u00b0C"}}