{"cas_no": "645-65-8", "cn_name": "\u54aa\u5511-4-\u4e59\u9178", "en_name": ["1H-Imidazole-5-acetic acid", "1H-Imidazole-5-acetic acid", "Imidazole-4-acetic acid", "1H-Imidazole-4-acetic acid", "Imidazole-4(or 5)-acetic acid", "Imidazoleacetic acid", "(Imidazol-4-yl)acetic acid", "Imidazol-4(5)-ylacetic acid", "NSC 60104", "(3H-Imidazol-4-yl)acetic acid", "I-4-AA", "4-(Carboxymethyl)-1H-imidazole", "(1H-Imidazol-4-yl)acetic acid", "2-(1H-Imidazol-5-yl)acetic acid", "Imidazole-5-acetic acid", "2-(1H-Imidazol-4-yl)acetic acid", "5-(2-Carboxymethyl)imidazole"], "SMILES": "C(C(O)=O)C1=CN=CN1", "physical_data": {"Molecular Weight": "126.11", "Molecular Formula": "C5H6N2O2", "Melting Point": "217-219 \u00b0C (decomp)"}}