{"cas_no": "645-05-6", "cn_name": "\u516d\u7532\u871c\u80fa", "en_name": ["Altretamine", "1,3,5-Triazine-2,4,6-triamine, N2,N2,N4,N4,N6,N6-hexamethyl-", "Melamine, hexamethyl-", "1,3,5-Triazine-2,4,6-triamine, N,N,N\u2032,N\u2032,N\u2032\u2032,N\u2032\u2032-hexamethyl-", "N2,N2,N4,N4,N6,N6-Hexamethyl-1,3,5-triazine-2,4,6-triamine", "NSC 13875", "ENT 50852", "Hemel", "Hexamethylmelamine", "HMM", "2,4,6-Tris(dimethylamino)-s-triazine", "2,4,6-Tris(dimethylamino)-1,3,5-triazine", "Altretamine", "1,3,5-Tris(dimethylamino)-s-triazine", "Hexalen", "Hexylen", "2-N,2-N,4-N,4-N,6-N,6-N-Hexamethyl-1,3,5-triazine-2,4,6-triamine"], "SMILES": "N(C)(C)C=1N=C(N(C)C)N=C(N(C)C)N1", "physical_data": {"Molecular Weight": "210.28", "Molecular Formula": "C9H18N6", "Melting Point": "172-174 \u00b0C"}}