{"cas_no": "645-56-7", "cn_name": "4-\u4e19\u57fa\u82ef\u915a", "en_name": ["4-Propylphenol", "Phenol, 4-propyl-", "Phenol, p-propyl-", "4-Propylphenol", "p-Propylphenol", "4-n-Propylphenol", "p-Hydroxypropylbenzene", "Dihydrochavicol", "p-n-Propylphenol", "p-Hydroxy-n-propylbenzene", "NSC 65647", "Hydrochavicol"], "SMILES": "C(CC)C1=CC=C(O)C=C1", "physical_data": {"Molecular Weight": "136.19", "Molecular Formula": "C9H12O", "Boiling Point": "232.6 \u00b0C", "Melting Point": "22 \u00b0C", "Density": "1.009 g/cm\u00b3 @ Temp: 20 \u00b0C"}}