{"cas_no": "645-12-5", "cn_name": "5-\u785d\u57fa-2-\u7ce0\u9178", "en_name": ["5-Nitro-2-furoic acid", "2-Furancarboxylic acid, 5-nitro-", "2-Furoic acid, 5-nitro-", "5-Nitro-2-furancarboxylic acid", "5-Nitrofuroic acid", "Nitrofuroic acid", "5-Nitro-2-furoic acid", "Nitrofurate", "5-Nitropyromucic acid", "5-Nitro-2-furylcarboxylic acid", "NSC 6452"], "SMILES": "C(O)(=O)C=1OC(N(=O)=O)=CC1", "physical_data": {"Molecular Weight": "157.08", "Molecular Formula": "C5H3NO5", "Melting Point": "186 \u00b0C"}}