{"cas_no": "645-66-9", "cn_name": "\u5341\u4e8c\u9178\u9150", "en_name": ["Lauric anhydride", "Dodecanoic acid, 1,1\u2032-anhydride", "Lauric anhydride", "Dodecanoic acid, anhydride", "Lauric acid anhydride", "Dodecanoic anhydride", "Lauroyl anhydride", "NSC 293871"], "SMILES": "C(OC(CCCCCCCCCCC)=O)(CCCCCCCCCCC)=O", "physical_data": {"Molecular Weight": "382.62", "Molecular Formula": "C24H46O3", "Boiling Point": "205-208 \u00b0C @ Press: 0.5 Torr", "Melting Point": "41.8 \u00b0C", "Density": "0.8552 g/cm\u00b3 @ Temp: 70 \u00b0C"}}