{"cas_no": "645-13-6", "cn_name": "4'-\u5f02\u4e19\u57fa\u82ef\u4e59\u916e", "en_name": ["1-[4-(1-Methylethyl)phenyl]ethanone", "Ethanone, 1-[4-(1-methylethyl)phenyl]-", "Acetophenone, 4\u2032-isopropyl-", "1-[4-(1-Methylethyl)phenyl]ethanone", "Cuminone", "p-Isopropylacetophenone", "4-Isopropylacetophenone", "4\u2032-Isopropylacetophenone", "NSC 9165", "1-(4-Isopropylphenyl)ethanone", "1-(4-Isopropylphenyl)ethan-1-one", "1-(4-Propan-2-ylphenyl)ethanone", "1-[4-(Propan-2-yl)phenyl]ethan-1-one"], "SMILES": "C(C)(C)C1=CC=C(C(C)=O)C=C1", "physical_data": {"Molecular Weight": "162.23", "Molecular Formula": "C11H14O", "Boiling Point": "254 \u00b0C", "Density": "0.9681 g/cm\u00b3"}}