{"cas_no": "645-83-0", "cn_name": "3-(\u7532\u78fa\u9170\u57fa)\u4e19\u9178", "en_name": ["3-(Methylsulfonyl)propanoic acid", "Propanoic acid, 3-(methylsulfonyl)-", "Propionic acid, 3-(methylsulfonyl)-", "3-(Methylsulfonyl)propanoic acid", "3-(Methylsulfonyl)propionic acid", "3-Methanesulfonylpropanoic acid"], "SMILES": "C(S(C)(=O)=O)CC(O)=O", "physical_data": {"Molecular Weight": "152.17", "Molecular Formula": "C4H8O4S", "Melting Point": "105 \u00b0C"}}