{"cas_no": "645-15-8", "cn_name": "\u53cc(\u5bf9\u785d\u57fa\u82ef\u57fa)\u78f7\u9178\u916f", "en_name": ["Bis(p-nitrophenyl) phosphate", "Phosphoric acid, bis(4-nitrophenyl) ester", "Phosphoric acid, bis(p-nitrophenyl) ester", "Phenol, p-nitro-, hydrogen phosphate", "Bis(p-nitrophenyl) phosphate", "Di-p-nitrophenyl phosphate", "BNPP", "p-Nitrophenyl monohydrogen phosphate", "Bis(4-nitrophenyl) phosphate", "Bis(4-nitrophenyl) hydrogen phosphate", "Bis(p-nitrophenyl) hydrogen phosphate", "NSC 59824", "Bis-PNPP"], "SMILES": "O(P(OC1=CC=C(N(=O)=O)C=C1)(=O)O)C2=CC=C(N(=O)=O)C=C2", "physical_data": {"Molecular Weight": "340.18", "Molecular Formula": "C12H9N2O8P", "Melting Point": "175 \u00b0C"}}