{"cas_no": "645-41-0", "cn_name": "\u4e09\u5f02\u620a\u57fa\u80fa", "en_name": ["3-Methyl-N,N-bis(3-methylbutyl)-1-butanamine", "1-Butanamine, 3-methyl-N,N-bis(3-methylbutyl)-", "Triisopentylamine", "3-Methyl-N,N-bis(3-methylbutyl)-1-butanamine", "Tri(3-methylbutyl)amine", "Triisoamylamine", "Tris(3-methylbutyl)amine"], "SMILES": "N(CCC(C)C)(CCC(C)C)CCC(C)C", "physical_data": {"Molecular Weight": "227.43", "Molecular Formula": "C15H33N", "Boiling Point": "235 \u00b0C"}}