{"cas_no": "645-49-8", "cn_name": "\u987a\u5f0f-1,2\u4e8c\u82ef\u4e59\u70ef", "en_name": ["cis-Stilbene", "Benzene, 1,1\u2032-(1Z)-1,2-ethenediylbis-", "Stilbene, (Z)-", "Benzene, 1,1\u2032-(1,2-ethenediyl)bis-, (Z)-", "Stilbene, cis-", "1,1\u2032-(1Z)-1,2-Ethenediylbis[benzene]", "cis-1,2-Diphenylethylene", "Isostilbene", "cis-Stilbene", "cis-Diphenylethene", "cis-1,2-Diphenylethene", "(Z)-1,2-Diphenylethene", "(Z)-1,2-Diphenylethylene", "(Z)-Stilbene", "(Z)-1,2-Diphenylethene"], "SMILES": "C(=CC1=CC=CC=C1)C2=CC=CC=C2", "physical_data": {"Molecular Weight": "180.25", "Molecular Formula": "C14H12", "Boiling Point": "141 \u00b0C", "Melting Point": "1 \u00b0C", "Density": "1.014 g/cm\u00b3 @ Temp: 24 \u00b0C"}}