{"cas_no": "645-00-1", "cn_name": "1-\u7898-3-\u785d\u57fa\u82ef", "en_name": ["1-Iodo-3-nitrobenzene", "Benzene, 1-iodo-3-nitro-", "1-Iodo-3-nitrobenzene", "m-Iodonitrobenzene", "3-Iodonitrobenzene", "m-Nitrophenyl iodide", "3-Iodo-1-nitrobenzene", "3-Nitrophenyl iodide", "3-Nitroiodobenzene", "m-Nitroiodobenzene", "NSC 3538", "3-Nitro-1-iodobenzene"], "SMILES": "N(=O)(=O)C1=CC(I)=CC=C1", "physical_data": {"Molecular Weight": "249.01", "Molecular Formula": "C6H4INO2", "Boiling Point": "280 \u00b0C", "Melting Point": "38.5 \u00b0C"}}