{"cas_no": "645-33-0", "cn_name": "4-\u7532\u6c27\u57fa\u591a\u5df4\u80fa\u76d0\u9178\u76d0", "en_name": ["3-Hydroxy-4-methoxyphenethylamine hydrochloride", "Phenol, 5-(2-aminoethyl)-2-methoxy-, hydrochloride (1:1)", "Phenol, 5-(2-aminoethyl)-2-methoxy-, hydrochloride", "Guaiacol, 5-(2-aminoethyl)-, hydrochloride", "3-Hydroxy-4-methoxyphenethylamine hydrochloride", "4-O-Methyldopamine hydrochloride", "3-Hydroxy-4-methoxy-\u03b2-phenethylamine hydrochloride", "2-(3-Hydroxy-4-methoxyphenyl)ethanamine hydrochloride", "5-(2-Aminoethyl)-2-methoxyphenol hydrochloride"], "SMILES": "C(CN)C1=CC(O)=C(OC)C=C1.Cl", "physical_data": {"Molecular Weight": "", "Molecular Formula": "C9H13NO2.ClH", "Melting Point": "206-207 \u00b0C"}}