{"cas_no": "64506-49-6", "cn_name": "\u7d22\u6cd5\u916e", "en_name": ["Sofalcone", "Acetic acid, 2-[5-[(3-methyl-2-buten-1-yl)oxy]-2-[3-[4-[(3-methyl-2-buten-1-yl)oxy]phenyl]-1-oxo-2-propen-1-yl]phenoxy]-", "Acetic acid, [5-[(3-methyl-2-butenyl)oxy]-2-[3-[4-[(3-methyl-2-butenyl)oxy]phenyl]-1-oxo-2-propenyl]phenoxy]-", "2-[5-[(3-Methyl-2-buten-1-yl)oxy]-2-[3-[4-[(3-methyl-2-buten-1-yl)oxy]phenyl]-1-oxo-2-propen-1-yl]phenoxy]acetic acid", "SU 88", "Sofalcone", "Solon"], "SMILES": "O(CC(O)=O)C1=C(C(C=CC2=CC=C(OCC=C(C)C)C=C2)=O)C=CC(OCC=C(C)C)=C1", "physical_data": {"Molecular Weight": "450.52", "Molecular Formula": "C27H30O6", "Melting Point": "143-144 \u00b0C"}}