{"cas_no": "64501-87-7", "cn_name": "N-(4-\u785d\u57fa\u82ef\u78fa\u9170)-L-\u82ef\u4e19\u6c28\u9178", "en_name": ["L-Phenylalanine, N-[(4-nitrophenyl)sulfonyl]-", "L-Phenylalanine, N-[(4-nitrophenyl)sulfonyl]-", "N-(4-Nitrophenylsulfonyl)-L-phenylalanine", "(S)-2-(4-Nitrophenylsulfonamido)-3-phenylpropanoic acid"], "SMILES": "S(NC(CC1=CC=CC=C1)C(O)=O)(=O)(=O)C2=CC=C(N(=O)=O)C=C2", "physical_data": {"Molecular Weight": "350.35", "Molecular Formula": "C15H14N2O6S", "Melting Point": "163-165 \u00b0C"}}