{"cas_no": "6451-73-6", "cn_name": "\u91d1\u9ec4\u7d2b\u5807\u78b1", "en_name": ["Scoulerine", "6H-Dibenzo[a,g]quinolizine-2,9-diol, 5,8,13,13a-tetrahydro-3,10-dimethoxy-, (13aS)-", "13a\u03b1-Berbine-2,9-diol, 3,10-dimethoxy-", "6H-Dibenzo[a,g]quinolizine-2,9-diol, 5,8,13,13a-tetrahydro-3,10-dimethoxy-, (S)-", "Scoulerine", "(13aS)-5,8,13,13a-Tetrahydro-3,10-dimethoxy-6H-dibenzo[a,g]quinolizine-2,9-diol", "(-)-Scoulerine", "Scoulerine, (-)-", "Alkaloid HF 1, from Hunnemanniafumariaefolia", "l-Scoulerine", "(S)-(-)-Scoulerine", "Scoulerin", "(S)-Scoulerine", "(13AS)-3,10-dimethoxy-6,8,13,13a-tetrahydro-5H-isoquinolino[2,1-b]isoquinoline-2,9-diol"], "SMILES": "OC=1C=C2C3N(CC=4C(C3)=CC=C(OC)C4O)CCC2=CC1OC", "physical_data": {"Molecular Weight": "327.37", "Molecular Formula": "C19H21NO4", "Melting Point": "195-196 \u00b0C"}}