{"cas_no": "6452-61-5", "cn_name": "\u4e8c\u4e01\u57fa\u4e8c\u82ef\u57fa\u9521", "en_name": ["Dibutyldiphenylstannane", "Stannane, dibutyldiphenyl-", "Tin, dibutyldiphenyl-", "Dibutyldiphenylstannane", "Dibutyldiphenyltin", "Diphenyldibutylstannane", "Diphenyldibutyltin", "Di-n-butyldiphenyltin"], "SMILES": "[Sn](CCCC)(CCCC)(C1=CC=CC=C1)C2=CC=CC=C2", "physical_data": {"Molecular Weight": "387.15", "Molecular Formula": "C20H28Sn", "Boiling Point": "137 \u00b0C @ Press: 0.2 Torr"}}