{"cas_no": "6452-73-9", "cn_name": "\u76d0\u9178\u6c27\u70ef\u6d1b\u5c14", "en_name": ["Oxprenolol hydrochloride", "2-Propanol, 1-[(1-methylethyl)amino]-3-[2-(2-propen-1-yloxy)phenoxy]-, hydrochloride (1:1)", "2-Propanol, 1-[o-(allyloxy)phenoxy]-3-(isopropylamino)-, hydrochloride", "2-Propanol, 1-[(1-methylethyl)amino]-3-[2-(2-propenyloxy)phenoxy]-, hydrochloride", "1-(o-Allyloxyphenoxy)-3-isopropylamino-2-propanol hydrochloride", "Ba 39089", "CIBA 39089Ba", "1-Isopropyl-amino-2-hydroxy-3-(O-allyloxyphenoxy)propane hydrochloride", "Oxprenolol hydrochloride", "1-Isopropylamino-3-(o-allyloxyphenoxy)-2-propanol hydrochloride", "1-(2\u2032-Allyloxyphenoxy)-2-hydroxy-3-isopropylaminopropane hydrochloride", "1-(o-Allyloxyphenoxy)-3-isopropylamino-2-propranol-hydrochloride", "1-(2-Allyloxyphenoxy)-2-hydroxy-3-isopropylaminopropane hydrochloride", "Slow-Trasicor", "(\u00b1)-1-[o-(Allyloxy)phenoxy]-3-isopropylamino-2-propanol hydrochloride", "dl-Oxprenolol hydrochloride", "(\u00b1)-Ba 39089", "Trasicor", "(\u00b1)-Oxprenolol hydrochloride", "dl-Alprenolol hydrochloride", "Oxiprenolol hydrochloride", "Trasicor 80", "Laracor", "Paritane", "Trasacor", "Slow-Pren"], "SMILES": "O(CC(CNC(C)C)O)C1=C(OCC=C)C=CC=C1.Cl", "physical_data": {"Molecular Weight": "", "Molecular Formula": "C15H23NO3.ClH", "Melting Point": "107-109 \u00b0C"}}