{"cas_no": "64536-78-3", "cn_name": "\u516d\u6c1f\u78f7\u9178(\u4e09\u73af\u5df2\u57fa\u81a6)(1,5-\u73af\u8f9b\u4e8c\u70ef)(\u5421\u5576)\u5408\u94f1", "en_name": ["Iridium(1+), [(1,2,5,6-\u03b7)-1,5-cyclooctadiene](pyridine)(tricyclohexylphosphine)-, hexafluorophosphate(1-) (1:1)", "Iridium(1+), [(1,2,5,6-\u03b7)-1,5-cyclooctadiene](pyridine)(tricyclohexylphosphine)-, hexafluorophosphate(1-) (1:1)", "Iridium(1+), [(1,2,5,6-\u03b7)-1,5-cyclooctadiene](pyridine)(tricyclohexylphosphine)-, hexafluorophosphate(1-)", "1,5-Cyclooctadiene, iridium complex", "Phosphine, tricyclohexyl-, iridium complex", "Phosphate(1-), hexafluoro-, [(1,2,5,6-\u03b7)-1,5-cyclooctadiene](pyridine)(tricyclohexylphosphine)iridium(1+)", "Felkin-Crabtree catalyst", "(\u03b74-1,5-Cyclooctadiene)(pyridine)(tricyclohexylphosphine)iridium(I) hexafluorophosphate", "(1,5-Cyclooctadiene)pyridine(tricyclohexylphosphine)iridium hexafluorophosphate", "Crabtree's catalyst", "[(1,2,5,6-\u03b7)-1,5-Cyclooctadiene](pyridine)(tricyclohexylphosphine)iridium(1+) hexafluorophosphate(1-)", "(1,5-Cyclooctadiene)(pyridine)(tricyclohexylphosphine)iridium(1+) hexafluorophosphate", "(1,5-Cyclohexadiene)pyridine(tricyclohexylphosphine)iridium hexafluorophosphate"], "SMILES": "[P+5]([F-])([F-])([F-])([F-])([F-])[F-].[P]([Ir+]123([CH]4=[CH]1CC[CH]2=[CH]3CC4)[N]=5C=CC=CC5)(C6CCCCC6)(C7CCCCC7)C8CCCCC8", "physical_data": {"Molecular Weight": "", "Molecular Formula": "C31H50IrNP.F6P", "Melting Point": "173-175 \u00b0C"}}