{"cas_no": "64544-07-6", "cn_name": "\u5934\u5b62\u544b\u8f9b\u916f", "en_name": ["Cefuroxime axetil", "5-Thia-1-azabicyclo[4.2.0]oct-2-ene-2-carboxylic acid, 3-[[(aminocarbonyl)oxy]methyl]-7-[[(2Z)-2-(2-furanyl)-2-(methoxyimino)acetyl]amino]-8-oxo-, 1-(acetyloxy)ethyl ester, (6R,7R)-", "5-Thia-1-azabicyclo[4.2.0]oct-2-ene-2-carboxylic acid, 3-[[(aminocarbonyl)oxy]methyl]-7-[[2-furanyl(methoxyimino)acetyl]amino]-8-oxo-, 1-(acetyloxy)ethyl ester, [6R-[6\u03b1,7\u03b2(Z)]]-", "5-Thia-1-azabicyclo[4.2.0]oct-2-ene-2-carboxylic acid, 3-[[(aminocarbonyl)oxy]methyl]-7-[[(2Z)-2-furanyl(methoxyimino)acetyl]amino]-8-oxo-, 1-(acetyloxy)ethyl ester, (6R,7R)-", "Cefuroxime axetil", "Ceftin", "Elobact", "Cefuroxime 1-acetoxyethyl ester", "Zinnat", "Cefurax", "Oraxim", "CCI 15641", "Cefazine", "Zinat", "Bioracef", "Cefaks", "Altacef", "Forcef", "Bioxime", "Xorimax"], "SMILES": "C(OC(OC(C)=O)C)(=O)C=1N2C(C(NC(C(=NOC)C3=CC=CO3)=O)C2=O)SCC1COC(N)=O", "physical_data": {"Molecular Weight": "510.47", "Molecular Formula": "C20H22N4O10S", "Melting Point": "175-180 \u00b0C"}}