{"cas_no": "645411-16-1", "cn_name": "3-\u7532\u6c28\u57fa-1-(2-\u567b\u5429\u57fa)-1-\u4e19\u916e\u76d0\u9178\u76d0,", "en_name": ["1-Propanone, 3-(methylamino)-1-(2-thienyl)-, hydrochloride (1:1)", "1-Propanone, 3-(methylamino)-1-(2-thienyl)-, hydrochloride (1:1)", "1-Propanone, 3-(methylamino)-1-(2-thienyl)-, hydrochloride", "3-(Methylamino)-1-(thiophen-2-yl)propan-1-one hydrochloride", "3-(N-Methylamino)-1-(2-thienyl)-1-propanone hydrochloride", "3-(Methylamino)-1-(2-thienyl)propan-1-one hydrochloride"], "SMILES": "C(CCNC)(=O)C1=CC=CS1.Cl", "physical_data": {"Molecular Weight": "", "Molecular Formula": "C8H11NOS.ClH", "Melting Point": "139-141 \u00b0C"}}