{"cas_no": "6456-44-6", "cn_name": "1-METHYL-NICOTINAMIDE IODIDE", "en_name": ["Pyridinium, 3-(aminocarbonyl)-1-methyl-, iodide (1:1)", "Pyridinium, 3-(aminocarbonyl)-1-methyl-, iodide (1:1)", "Pyridinium, 3-carbamoyl-1-methyl-, iodide", "Pyridinium, 3-(aminocarbonyl)-1-methyl-, iodide", "3-Carbamoyl-1-methylpyridinium iodide", "Pyridinium, 3-carbamyl-1-methyl-, iodide", "Nicotinamide methiodide", "1-Methylnicotinamide iodide"], "SMILES": "C(N)(=O)C1=C[N+](C)=CC=C1.[I-]", "physical_data": {"Molecular Weight": "", "Molecular Formula": "C7H9N2O.I", "Melting Point": "208-209 \u00b0C"}}