{"cas_no": "6457-49-4", "cn_name": "4-\u7f9f\u7532\u57fa\u54cc\u5576", "en_name": ["4-Piperidinemethanol", "4-Piperidinemethanol", "4-(Hydroxymethyl)piperidine", "(4-Piperidyl)methanol", "(4-Piperidinyl)methanol", "4-Piperidine-1-methanol"], "SMILES": "C(O)C1CCNCC1", "physical_data": {"Molecular Weight": "115.17", "Molecular Formula": "C6H13NO", "Boiling Point": "122 \u00b0C @ Press: 12 Torr", "Melting Point": "56-62 \u00b0C"}}