{"cas_no": "646-25-3", "cn_name": "\u7678\u4e8c\u80fa", "en_name": ["1,10-Decanediamine", "1,10-Decanediamine", "1,10-Diaminodecane", "Decamethylenediamine", "1,10-Decamethylenediamine", "1,10-Decylenediamine", "1,10-Diamino-n-decane", "NSC 10400", "NCI 10400", "Fentamine HP 102"], "SMILES": "C(CCCCCN)CCCCN", "physical_data": {"Molecular Weight": "172.31", "Molecular Formula": "C10H24N2", "Boiling Point": "126-127 \u00b0C @ Press: 5 Torr", "Melting Point": "61-62 \u00b0C"}}