{"cas_no": "646-19-5", "cn_name": "1,7-\u4e8c\u6c28\u57fa\u5e9a\u70f7", "en_name": ["1,7-Heptanediamine", "1,7-Heptanediamine", "1,7-Diaminoheptane", "Heptamethylenediamine", "1,7-Heptamethylenediamine", "1,7-Diamino-n-heptane", "1,9-Diazanonane", "\u03b1,\u03c9-Heptanediamine", "NSC 45777", "(7-Aminoheptyl)amine"], "SMILES": "C(CCCN)CCCN", "physical_data": {"Molecular Weight": "130.23", "Molecular Formula": "C7H18N2", "Boiling Point": "224 \u00b0C", "Melting Point": "28.9 \u00b0C"}}