{"cas_no": "646-06-0", "cn_name": "1,3-\u4e8c\u6c27\u620a\u73af", "en_name": ["1,3-Dioxolane", "1,3-Dioxolane", "Dioxolane", "1,3-Dioxole, dihydro-", "Formal glycol", "Glycolformal", "1,3-Dioxolan", "1,3-Dioxacyclopentane", "Ethylene glycol formal", "5-Crown-2", "DIOX"], "SMILES": "C1COCO1", "physical_data": {"Molecular Weight": "74.08", "Molecular Formula": "C3H6O2", "Boiling Point": "78 \u00b0C @ Press: 765 Torr", "Melting Point": "-95 \u00b0C", "Density": "1.0600 g/cm\u00b3 @ Temp: 20 \u00b0C"}}