{"cas_no": "646-23-1", "cn_name": "\u5316\u5408\u7269 T26605", "en_name": ["Alyssin", "Pentane, 1-isothiocyanato-5-(methylsulfinyl)-", "Isothiocyanic acid, 5-(methylsulfinyl)pentyl ester", "1-Isothiocyanato-5-(methylsulfinyl)pentane", "5-Methylsulfinylpentylisothiocyanate", "Alyssin"], "SMILES": "C(CCN=C=S)CCS(C)=O", "physical_data": {"Molecular Weight": "191.31", "Molecular Formula": "C7H13NOS2", "Boiling Point": "130-135 \u00b0C @ Press: 0.02 Torr"}}