{"cas_no": "646-30-0", "cn_name": "\u6b63\u78b3\u5341\u4e5d\u9178", "en_name": ["Nonadecanoic acid", "Nonadecanoic acid", "n-Nonadecylic acid", "n-Nonadecanoic acid", "NSC 11914", "Nonadecylic acid"], "SMILES": "C(CCCCCCCCCCCC)CCCCCC(O)=O", "physical_data": {"Molecular Weight": "298.50", "Molecular Formula": "C19H38O2", "Boiling Point": "300 \u00b0C", "Melting Point": "69.4 \u00b0C"}}