{"cas_no": "646-14-0", "cn_name": "1-\u785d\u57fa\u5df1\u70f7", "en_name": ["1-Nitrohexane", "Hexane, 1-nitro-", "1-Nitrohexane"], "SMILES": "C(CN(=O)=O)CCCC", "physical_data": {"Molecular Weight": "131.17", "Molecular Formula": "C6H13NO2", "Boiling Point": "193 \u00b0C", "Density": "0.9269 g/cm\u00b3 @ Temp: 25 \u00b0C"}}