{"cas_no": "646-04-8", "cn_name": "\u53cd-2-\u620a\u70ef", "en_name": ["trans-2-Pentene", "2-Pentene, (2E)-", "2-Pentene, (E)-", "2-Pentene, trans-", "(2E)-2-Pentene", "trans-\u03b2-Amylene", "trans-2-Pentene", "(E)-2-Pentene", "2-trans-Pentene"], "SMILES": "C(CC)=CC", "physical_data": {"Molecular Weight": "70.13", "Molecular Formula": "C5H10", "Boiling Point": "36.3 \u00b0C", "Melting Point": "-140.2 \u00b0C", "Density": "0.6431 g/cm\u00b3 @ Temp: 25 \u00b0C"}}