{"cas_no": "646-97-9", "cn_name": "2-\u70ef\u4e19\u516d\u6c1f\u5f02\u4e19\u9187", "en_name": ["1,1,1-Trifluoro-2-(trifluoromethyl)-4-penten-2-ol", "4-Penten-2-ol, 1,1,1-trifluoro-2-(trifluoromethyl)-", "1,1,1-Trifluoro-2-(trifluoromethyl)-4-penten-2-ol", "4,4-Bis(perfluoromethyl)-4-hydroxy-1-butene", "1,1-Bis(trifluoromethyl)-3-buten-1-ol", "NSC 309805"], "SMILES": "C(C(F)(F)F)(C(F)(F)F)(CC=C)O", "physical_data": {"Molecular Weight": "208.10", "Molecular Formula": "C6H6F6O", "Boiling Point": "42.8-43 \u00b0C @ Press: 68 Torr", "Density": "1.3345 g/cm\u00b3 @ Temp: 20 \u00b0C"}}