{"cas_no": "646-07-1", "cn_name": "4-\u7532\u57fa\u620a\u9178", "en_name": ["Isocaproic acid", "Pentanoic acid, 4-methyl-", "Valeric acid, 4-methyl-", "4-Methylpentanoic acid", "Isocaproic acid", "4-Methylvaleric acid", "4,4-Dimethylbutanoic acid", "Isobutylacetic acid", "Isohexanoic acid", "Isohexoic acid", "NSC 4126"], "SMILES": "C(CC(O)=O)C(C)C", "physical_data": {"Molecular Weight": "116.16", "Molecular Formula": "C6H12O2", "Boiling Point": "200.5 \u00b0C", "Melting Point": "-33 \u00b0C", "Density": "0.9392 g/cm\u00b3 @ Temp: 0 \u00b0C"}}