{"cas_no": "646-24-2", "cn_name": "1,9-\u58ec\u4e8c\u80fa", "en_name": ["1,9-Nonanediamine", "1,9-Nonanediamine", "Nonamethylenediamine", "1,9-Diaminononane", "1,9-Nonamethylenediamine"], "SMILES": "C(CCCCN)CCCCN", "physical_data": {"Molecular Weight": "158.28", "Molecular Formula": "C9H22N2", "Boiling Point": "125 \u00b0C @ Press: 4 Torr", "Melting Point": "35-37 \u00b0C"}}