{"cas_no": "646-01-5", "cn_name": "3-\u7532\u57fa\u786b\u4ee3\u4e19\u9178", "en_name": ["3-(Methylthio)propanoic acid", "Propanoic acid, 3-(methylthio)-", "Propionic acid, 3-(methylthio)-", "3-(Methylthio)propanoic acid", "3-(Methylthio)propionic acid", "3-(Methylmercapto)propionic acid", "3-(Methylmercapto)propanoic acid", "3-Methylsulfanylpropionic acid", "3-Methylthio-1-propanic acid", "3-Methylsulfanylpropanoic acid"], "SMILES": "C(C(O)=O)CSC", "physical_data": {"Molecular Weight": "120.17", "Molecular Formula": "C4H8O2S", "Boiling Point": "102-104 \u00b0C @ Press: 0.5 Torr", "Melting Point": "53 \u00b0C", "Density": "1.158 g/cm\u00b3 @ Temp: 20 \u00b0C"}}