{"cas_no": "646-13-9", "cn_name": "\u786c\u8102\u9178\u5f02\u4e01\u916f", "en_name": ["Isobutyl stearate", "Octadecanoic acid, 2-methylpropyl ester", "Stearic acid, isobutyl ester", "Isobutyl stearate", "Isobutyl octadecanoate", "2-Methylpropyl stearate", "Estol 1476", "Emerest 2324"], "SMILES": "C(CC(OCC(C)C)=O)CCCCCCCCCCCCCCC", "physical_data": {"Molecular Weight": "340.58", "Molecular Formula": "C22H44O2", "Boiling Point": "223 \u00b0C @ Press: 15 Torr", "Melting Point": "28.9 \u00b0C", "Density": "0.8498 g/cm\u00b3 @ Temp: 20 \u00b0C"}}