{"cas_no": "646-31-1", "cn_name": "\u6b63\u4e8c\u5341\u56db\u70f7", "en_name": ["Tetracosane", "Tetracosane", "n-Tetracosane", "NSC 2984"], "SMILES": "C(CCCCCCCCCCCC)CCCCCCCCCCC", "physical_data": {"Molecular Weight": "338.65", "Molecular Formula": "C24H50", "Boiling Point": "391.3 \u00b0C", "Melting Point": "54 \u00b0C"}}