{"cas_no": "646-20-8", "cn_name": "1,5-\u4e8c\u6c30\u57fa\u620a\u70f7", "en_name": ["Pimelonitrile", "Heptanedinitrile", "Pimelonitrile", "Pimelic acid dinitrile", "1,5-Dicyanopentane", "NSC 5392", "1,7-Heptanedinitrile"], "SMILES": "C(CCC#N)CCC#N", "physical_data": {"Molecular Weight": "122.17", "Molecular Formula": "C7H10N2", "Boiling Point": "155 \u00b0C", "Melting Point": "-31.4 \u00b0C", "Density": "0.95070 g/cm\u00b3 @ Temp: 15 \u00b0C"}}