{"cas_no": "64603-90-3", "cn_name": "1,2,3,6-\u56db\u6c22-\u5421\u5576-4-\u7fa7\u9178", "en_name": ["Isoguvacine", "4-Pyridinecarboxylic acid, 1,2,3,6-tetrahydro-", "1,2,3,6-Tetrahydro-4-pyridinecarboxylic acid", "Isoguvacine", "1,2,3,6-Tetrahydropyridine-4-carboxylic acid"], "SMILES": "C(O)(=O)C=1CCNCC1", "physical_data": {"Molecular Weight": "127.14", "Molecular Formula": "C6H9NO2", "Melting Point": "220 \u00b0C"}}