{"cas_no": "6461-30-9", "cn_name": "6-\u7532\u57fa\u5c3f\u5627\u5576-5-\u78fa\u9170\u6c2f", "en_name": ["5-Pyrimidinesulfonyl chloride, 1,2,3,4-tetrahydro-6-methyl-2,4-dioxo-", "5-Pyrimidinesulfonyl chloride, 1,2,3,4-tetrahydro-6-methyl-2,4-dioxo-", "5-Pyrimidinesulfonyl chloride, 2,4-dihydroxy-6-methyl-", "6-Methyluracil-5-sulfonyl chloride", "6-Methyluracil-5-sulfochloride", "NSC 46425", "1,2,3,4-Tetrahydro-6-methyl-2,4-dioxo-5-pyrimidinesulfonyl chloride", "2,4-Dihydroxy-6-methylpyrimidine-5-sulfonyl chloride"], "SMILES": "S(Cl)(=O)(=O)C1=C(C)NC(=O)NC1=O", "physical_data": {"Molecular Weight": "224.62", "Molecular Formula": "C5H5ClN2O4S", "Melting Point": "269-270 \u00b0C"}}