{"cas_no": "64614-49-9", "cn_name": "4-[(6-\u6c2f-3-\u5421\u5576\u57fa)\u7fb0\u57fa]\u5417\u5549", "en_name": ["(6-Chloro-3-pyridinyl)-4-morpholinylmethanone", "Methanone, (6-chloro-3-pyridinyl)-4-morpholinyl-", "Morpholine, 4-[(6-chloro-3-pyridinyl)carbonyl]-", "(6-Chloro-3-pyridinyl)-4-morpholinylmethanone", "4-[(6-Chloro-3-pyridinyl)carbonyl]morpholine", "1-(6-Chloropyridin-3-yl)-1-morpholin-4-ylmethanone", "(6-Chloropyridin-3-yl)morpholin-4-ylmethanone"], "SMILES": "C(=O)(C=1C=CC(Cl)=NC1)N2CCOCC2", "physical_data": {"Molecular Weight": "226.66", "Molecular Formula": "C10H11ClN2O2", "Melting Point": "61-62.5 \u00b0C"}}