{"cas_no": "6461-04-7", "cn_name": "D-\u8c37\u6c28\u9178-5-\u7532\u916f", "en_name": ["5-Methyl hydrogen D-glutamate", "D-Glutamic acid, 5-methyl ester", "Glutamic acid, 5-methyl ester, D-", "5-Methyl hydrogen D-glutamate", "\u03b3-Methyl D-glutamate", "5-Methyl D-glutamate", "4(R)-Carboxy-4-aminobutanoic acid methyl ester", "H-D-Glu(OMe)-OH", "(2R)-2-Amino-5-methoxy-5-oxopentanoic acid", "(R)-2-Amino-5-methoxy-5-oxopentanoic acid"], "SMILES": "C(CC(OC)=O)C(C(O)=O)N", "physical_data": {"Molecular Weight": "161.16", "Molecular Formula": "C6H11NO4", "Melting Point": "175-176 \u00b0C"}}