{"cas_no": "64628-44-0", "cn_name": "\u6740\u866b\u8132", "en_name": ["Triflumuron", "Benzamide, 2-chloro-N-[[[4-(trifluoromethoxy)phenyl]amino]carbonyl]-", "2-Chloro-N-[[[4-(trifluoromethoxy)phenyl]amino]carbonyl]benzamide", "BAY-SIR 8514", "SIR 8514", "N-(2-Chlorobenzoyl)-N\u2032-[4-(trifluoromethoxy)phenyl]urea", "Trifluron", "BAY-Vi 7533", "Alsystin", "Triflumuron", "Alsystine", "OMS 2015", "Starycide", "Baycidal", "1-(2-Chlorobenzoyl)-3-[4-(trifluoromethoxy)phenyl]urea", "Baytsidal"], "SMILES": "N(C(NC(=O)C1=C(Cl)C=CC=C1)=O)C2=CC=C(OC(F)(F)F)C=C2", "physical_data": {"Molecular Weight": "358.70", "Molecular Formula": "C15H10ClF3N2O3", "Melting Point": "195 \u00b0C"}}