{"cas_no": "64630-63-3", "cn_name": "3,4-\u73af\u6c27\u73af\u5df1\u57fa\u7532\u57fa\u4e19\u70ef\u9178\u916f", "en_name": ["7-Oxabicyclo[4.1.0]hept-3-ylmethyl 2-propenoate", "2-Propenoic acid, 7-oxabicyclo[4.1.0]hept-3-ylmethyl ester", "Acrylic acid, 7-oxabicyclo[4.1.0]hept-3-ylmethyl ester", "7-Oxabicyclo[4.1.0]heptane, 2-propenoic acid deriv.", "7-Oxabicyclo[4.1.0]hept-3-ylmethyl 2-propenoate", "(3,4-Epoxycyclohexyl)methyl acrylate", "AETHB", "3,4-Epoxyhexahydrobenzyl acrylate", "Cyclomer A 100", "Epolead GK 200", "Cyclomer A 200", "Epolead A 200", "Cyclomer A 400", "A 100", "[7-Oxabicyclo[4.1.0]heptan-3-yl]methyl prop-2-enoate", "TTA 16", "4-Acryloyloxymethyl-1,2-epoxycyclohexane"], "SMILES": "C(OC(C=C)=O)C1CC2C(O2)CC1", "physical_data": {"Molecular Weight": "182.22", "Molecular Formula": "C10H14O3", "Boiling Point": "104 \u00b0C @ Press: 2.4 Torr"}}