{"cas_no": "64657-18-7", "cn_name": "\u798f\u65af\u9ad8\u67971,9-\u4e8c\u8131\u6c27", "en_name": ["(-)-1,9-Dideoxyforskolin", "1H-Naphtho[2,1-b]pyran-1-one, 5-(acetyloxy)-3-ethenyldodecahydro-6-hydroxy-3,4a,7,7,10a-pentamethyl-, (3R,4aS,5S,6S,6aS,10aS,10bR)-", "1H-Naphtho[2,1-b]pyran-1-one, 5-(acetyloxy)-3-ethenyldodecahydro-6-hydroxy-3,4a,7,7,10a-pentamethyl-, [3R-(3\u03b1,4a\u03b2,5\u03b2,6\u03b2,6a\u03b1,10a\u03b2,10b\u03b1)]-", "(3R,4aS,5S,6S,6aS,10aS,10bR)-5-(Acetyloxy)-3-ethenyldodecahydro-6-hydroxy-3,4a,7,7,10a-pentamethyl-1H-naphtho[2,1-b]pyran-1-one", "1,9-Dideoxyforskolin", "(-)-1,9-Dideoxyforskolin"], "SMILES": "CC12C(C3(C)C(C(O)C1OC(C)=O)C(C)(C)CCC3)C(=O)CC(C=C)(C)O2", "physical_data": {"Molecular Weight": "", "Molecular Formula": "C22H34O5", "Melting Point": "158 \u00b0C"}}