{"cas_no": "64657-21-2", "cn_name": "6-\u4e59\u9170\u57fa-7-\u8131\u4e59\u9170\u57fa\u4f5b\u53f8\u53ef\u6797", "en_name": ["Isoforskolin", "1H-Naphtho[2,1-b]pyran-1-one, 6-(acetyloxy)-3-ethenyldodecahydro-5,10,10b-trihydroxy-3,4a,7,7,10a-pentamethyl-, (3R,4aR,5S,6S,6aS,10S,10aR,10bS)-", "1H-Naphtho[2,1-b]pyran-1-one, 6-(acetyloxy)-3-ethenyldodecahydro-5,10,10b-trihydroxy-3,4a,7,7,10a-pentamethyl-, [3R-(3\u03b1,4a\u03b2,5\u03b2,6\u03b2,6a\u03b1,10\u03b1,10a\u03b2,10b\u03b1)]-", "(3R,4aR,5S,6S,6aS,10S,10aR,10bS)-6-(Acetyloxy)-3-ethenyldodecahydro-5,10,10b-trihydroxy-3,4a,7,7,10a-pentamethyl-1H-naphtho[2,1-b]pyran-1-one", "Coleonol B", "Isoforskolin", "Excolabdone C", "(1\u03b1,5\u03b1,6\u03b2,7\u03b2)-6-(Acetyloxy)-8,13-epoxy-1,7,9-trihydroxylabd-14-en-11-one", "6\u03b2-Acetoxy-8,13-epoxy-1\u03b1,7\u03b2,9\u03b1-trihydroxylabd-14-en-11-one"], "SMILES": "CC12C3(O)C(C)(C(O)C(OC(C)=O)C1C(C)(C)CCC2O)OC(C=C)(C)CC3=O", "physical_data": {"Molecular Weight": "410.50", "Molecular Formula": "C22H34O7", "Melting Point": "220-222 \u00b0C"}}