{"cas_no": "64680-84-8", "cn_name": "\u9ec4\u5361\u74e6\u80e1\u6912\u7d20 A", "en_name": ["Flavokawain A", "2-Propen-1-one, 1-(2-hydroxy-4,6-dimethoxyphenyl)-3-(4-methoxyphenyl)-, (2E)-", "2-Propen-1-one, 1-(2-hydroxy-4,6-dimethoxyphenyl)-3-(4-methoxyphenyl)-, (E)-", "(2E)-1-(2-Hydroxy-4,6-dimethoxyphenyl)-3-(4-methoxyphenyl)-2-propen-1-one", "Flavokawain A", "Flavokavin A", "4-Methoxyflavokawain B", "(E)-1-(2-Hydroxy-4,6-dimethoxyphenyl)-3-(4-methoxyphenyl)prop-2-en-1-one"], "SMILES": "O(C)C1=C(C(C=CC2=CC=C(OC)C=C2)=O)C(O)=CC(OC)=C1", "physical_data": {"Molecular Weight": "314.33", "Molecular Formula": "C18H18O5", "Melting Point": "109-110 \u00b0C"}}