{"cas_no": "64690-19-3", "cn_name": "4-(\u8f9b\u57fa\u6c28\u57fa)\u5421\u5576", "en_name": ["N-Octyl-4-pyridinamine", "4-Pyridinamine, N-octyl-", "N-Octyl-4-pyridinamine", "4-(Octylamino)pyridine"], "SMILES": "N(CCCCCCCC)C=1C=CN=CC1", "physical_data": {"Molecular Weight": "206.33", "Molecular Formula": "C13H22N2", "Melting Point": "70-73 \u00b0C"}}