{"cas_no": "64695-79-0", "cn_name": "2-\u6eb4-4,5-\u4e8c\u6c1f\u82ef\u80fa", "en_name": ["2-Bromo-4,5-difluorobenzenamine", "Benzenamine, 2-bromo-4,5-difluoro-", "2-Bromo-4,5-difluorobenzenamine", "2-Bromo-4,5-difluoroaniline", "(2-Bromo-4,5-difluorophenyl)amine"], "SMILES": "BrC1=C(N)C=C(F)C(F)=C1", "physical_data": {"Molecular Weight": "208.00", "Molecular Formula": "C6H4BrF2N", "Boiling Point": "90-93 \u00b0C @ Press: 1 Torr"}}