{"cas_no": "6469-93-8", "cn_name": "\u76d0\u9178\u6c2f\u666e\u567b\u5428", "en_name": ["Chlorprothixene hydrochloride", "1-Propanamine, 3-(2-chloro-9H-thioxanthen-9-ylidene)-N,N-dimethyl-, hydrochloride (1:1), (3Z)-", "Thioxanthene-\u03949,\u03b3-propylamine, 2-chloro-N,N-dimethyl-, hydrochloride, (Z)-", "1-Propanamine, 3-(2-chloro-9H-thioxanthen-9-ylidene)-N,N-dimethyl-, hydrochloride, (Z)-", "1-Propanamine, 3-(2-chloro-9H-thioxanthen-9-ylidene)-N,N-dimethyl-, hydrochloride, (3Z)-", "9H-Thioxanthene, 1-propanamine deriv.", "Truxal hydrochloride", "cis-Chlorprothixene hydrochloride", "Chlorprothixene hydrochloride", "NSC 169899"], "SMILES": "C(CCN(C)C)=C1C=2C(SC=3C1=CC=CC3)=CC=C(Cl)C2.Cl", "physical_data": {"Molecular Weight": "", "Molecular Formula": "C18H18ClNS.ClH", "Melting Point": "207.5-208 \u00b0C"}}