{"cas_no": "64697-40-1", "cn_name": "1-\u7532\u57fa-3-\u8f9b\u57fa\u6c2f\u5316\u54aa\u5511\u7fc1", "en_name": ["1-Octyl-3-methylimidazolium chloride", "1H-Imidazolium, 1-methyl-3-octyl-, chloride (1:1)", "1H-Imidazolium, 1-methyl-3-octyl-, chloride", "1-Methyl-3-octylimidazolium chloride", "1-Octyl-3-methylimidazolium chloride", "1-Methyl-3-octyl-1H-imidazolium chloride", "3-Methyl-1-octylimidazolium chloride", "1-Methyl-3-n-octylimidazolium Chloride"], "SMILES": "C(CCCCCCC)[N+]1=CN(C)C=C1.[Cl-]", "physical_data": {"Molecular Weight": "", "Molecular Formula": "C12H23N2.Cl", "Melting Point": "12.26 \u00b0C", "Density": "1.00594 g/cm\u00b3 @ Temp: 30.00 \u00b0C"}}