{"cas_no": "647-12-1", "cn_name": "\u5168\u6c1f\u8f9b\u8148", "en_name": ["2,2,3,3,4,4,5,5,6,6,7,7,8,8,8-Pentadecafluorooctanenitrile", "Octanenitrile, 2,2,3,3,4,4,5,5,6,6,7,7,8,8,8-pentadecafluoro-", "Octanenitrile, pentadecafluoro-", "2,2,3,3,4,4,5,5,6,6,7,7,8,8,8-Pentadecafluorooctanenitrile", "Perfluorooctanonitrile", "Perfluorooctanenitrile", "NSC 71019"], "SMILES": "C(C(C(C(C#N)(F)F)(F)F)(F)F)(C(C(C(F)(F)F)(F)F)(F)F)(F)F", "physical_data": {"Molecular Weight": "395.07", "Molecular Formula": "C8F15N", "Boiling Point": "103-104 \u00b0C"}}