{"cas_no": "647-42-7", "cn_name": "\u5168\u6c1f\u5df1\u57fa\u4e59\u57fa\u9187", "en_name": ["2-(Perfluorohexyl)ethanol", "1-Octanol, 3,3,4,4,5,5,6,6,7,7,8,8,8-tridecafluoro-", "3,3,4,4,5,5,6,6,7,7,8,8,8-Tridecafluoro-1-octanol", "2-(Perfluorohexyl)ethyl alcohol", "2-(Perfluorohexyl)ethanol", "2-(Tridecafluorohexyl)ethanol", "1,1,2,2-Tetrahydroperfluorooctanol", "1H,1H,2H,2H-Perfluorooctan-1-ol", "Perfluorohexylethanol", "1H,1H,2H,2H-Perfluorooctanol", "Fluowet EA 600", "A 1620", "3,3,4,4,5,5,6,6,7,7,8,8,8-Tridecafluorooctanol", "1H,1H,2H,2H-Tridecafluorooctanol", "1,1,2,2-Tetrahydrotridecafluorooctanol", "1H,1H,2H,2H-Tridecafluoro-n-octanol", "1H,1H,2H,2H-Perfluoro-1-octanol", "1,1,2,2-Tetrahydroperfluorooctan-1-ol", "Foralkyl EOH 6", "6:2 FTOH", "Cheminox FA 6", "6:2 Fluorotelomer alcohol", "1H,1H,2H,2H-Tetrahydroperfluoro-1-octanol", "1H,1H,2H,2H-Tridecafluoro-1-octanol", "TEOH 6", "Capstone 62AL", "S 104", "S 104 (fluorocompound)", "Capstone AL 62", "H 829808"], "SMILES": "C(C(C(C(F)(F)F)(F)F)(F)F)(C(C(CCO)(F)F)(F)F)(F)F", "physical_data": {"Molecular Weight": "364.10", "Molecular Formula": "C8H5F13O", "Boiling Point": "88-95 \u00b0C @ Press: 230-280 Torr", "Density": "1.6782 g/cm\u00b3 @ Temp: 25 \u00b0C"}}