{"cas_no": "6470-18-4", "cn_name": "1-\u4e59\u9170\u6c28\u57fa-7-\u8418\u915a", "en_name": ["N-(7-Hydroxy-1-naphthalenyl)acetamide", "Acetamide, N-(7-hydroxy-1-naphthalenyl)-", "Acetamide, N-(7-hydroxy-1-naphthyl)-", "N-(7-Hydroxy-1-naphthalenyl)acetamide", "1-Acetamido-7-naphthol", "1-Acetylamino-7-naphthol", "1-Acetamido-7-hydroxynaphthalene", "1-Acetylamino-7-hydroxynaphthalene", "N-(7-Hydroxy-1-naphthyl)acetamide", "NSC 7566", "N-(7-Hydroxynaphthalene-1-yl)-acetamide"], "SMILES": "N(C(C)=O)C=1C2=C(C=CC(O)=C2)C=CC1", "physical_data": {"Molecular Weight": "201.22", "Molecular Formula": "C12H11NO2", "Boiling Point": "170-172 \u00b0C @ Press: 16 Torr", "Melting Point": "168-169 \u00b0C"}}