{"cas_no": "64706-54-3", "cn_name": "\u82c4\u666e\u5730\u5c14", "en_name": ["Bepridil", "1-Pyrrolidineethanamine, \u03b2-[(2-methylpropoxy)methyl]-N-phenyl-N-(phenylmethyl)-", "\u03b2-[(2-Methylpropoxy)methyl]-N-phenyl-N-(phenylmethyl)-1-pyrrolidineethanamine", "Bepridil", "Org 5730", "(\u00b1)-Bepridil", "dl-Bepridil", "MeSH ID: D015764"], "SMILES": "N(CC(COCC(C)C)N1CCCC1)(CC2=CC=CC=C2)C3=CC=CC=C3", "physical_data": {"Molecular Weight": "366.54", "Molecular Formula": "C24H34N2O", "Boiling Point": "184 \u00b0C @ Press: 0.1 Torr"}}