{"cas_no": "64709-57-5", "cn_name": "\u6c2f\u4e59\u9170-L-\u8272\u6c28\u9178", "en_name": ["N-(2-Chloroacetyl)-L-tryptophan", "L-Tryptophan, N-(2-chloroacetyl)-", "L-Tryptophan, N-(chloroacetyl)-", "Tryptophan, N-(chloroacetyl)-", "N-(2-Chloroacetyl)-L-tryptophan", "N-Chloroacetyl-L-tryptophan", "NSC 523827"], "SMILES": "C(C(NC(CCl)=O)C(O)=O)C=1C=2C(NC1)=CC=CC2", "physical_data": {"Molecular Weight": "280.71", "Molecular Formula": "C13H13ClN2O3", "Melting Point": "159 \u00b0C"}}