{"cas_no": "64741-65-7", "cn_name": "\u77f3\u8111\u6cb9(\u77f3\u6cb9)\u3001\u91cd\u70f7\u57fa\u7684\u5316\u5408\u7269", "en_name": ["Naphtha (petroleum), heavy alkylate", "Naphtha (petroleum), heavy alkylate", "Heavy alkylate naphtha (petroleum)"], "SMILES": "", "physical_data": {"Molecular Weight": "", "Molecular Formula": "Unspecified", "Boiling Point": "172-215 \u00b0C", "Melting Point": "-30 \u00b0C", "Density": "0.75-0.79 g/cm\u00b3"}}