{"cas_no": "64744-50-9", "cn_name": "3,3'-\u4e9a\u620a\u70ef\u57fa-4-\u4e01\u5185\u9170\u80fa", "en_name": ["2-Azaspiro[4.5]decan-3-one", "2-Azaspiro[4.5]decan-3-one", "Gabapentin-lactam", "Gabapentin-lactams"], "SMILES": "O=C1CC2(CN1)CCCCC2", "physical_data": {"Molecular Weight": "153.22", "Molecular Formula": "C9H15NO", "Melting Point": "84-89 \u00b0C"}}