{"cas_no": "6474-90-4", "cn_name": "\u56db\u6c22\u9e2d\u811a\u6728\u78b1", "en_name": ["Tetrahydroalstonine", "Oxayohimban-16-carboxylic acid, 16,17-didehydro-19-methyl-, methyl ester, (19\u03b1,20\u03b1)-", "Alstonine, 3,4,5,6-tetrahydro-", "Tetrahydroalstonine", "Alstonine, 3,4,5,6-tetrahydro-, (3\u03b1)-", "(-)-Tetrahydroalstonine", "(3\u03b1)-3,4,5,6-Tetrahydroalstonine", "4H-Indolo[2,3-a]pyrano[3,4-g]quinolizine-1-carboxylic acid, 4a,5,7,8,13,13b,14,14a-octahydro-4-methyl-, methyl ester, (4S,4aS,13bS,14aS)-", "NSC 72115"], "SMILES": "C(OC)(=O)C=1C2CC3C4=C(C=5C(N4)=CC=CC5)CCN3CC2C(C)OC1", "physical_data": {"Molecular Weight": "352.43", "Molecular Formula": "C21H24N2O3", "Melting Point": "230-231 \u00b0C"}}