{"cas_no": "6476-36-4", "cn_name": "\u4e09\u5f02\u4e19\u57fa\u78f7", "en_name": ["Triisopropylphosphine", "Phosphine, tris(1-methylethyl)-", "Phosphine, triisopropyl-", "Tris(1-methylethyl)phosphine", "Triisopropylphosphine", "Tris(isopropyl)phosphine", "NSC 244304"], "SMILES": "P(C(C)C)(C(C)C)C(C)C", "physical_data": {"Molecular Weight": "160.24", "Molecular Formula": "C9H21P", "Boiling Point": "64 \u00b0C @ Press: 12 Torr"}}