{"cas_no": "64809-67-2", "cn_name": "\u65b0\u8292\u679c\u82f7", "en_name": ["Neomangiferin", "9H-Xanthen-9-one, 2-\u03b2-D-glucopyranosyl-7-(\u03b2-D-glucopyranosyloxy)-1,3,6-trihydroxy-", "2-\u03b2-D-Glucopyranosyl-7-(\u03b2-D-glucopyranosyloxy)-1,3,6-trihydroxy-9H-xanthen-9-one", "Neomangiferin", "7-O-Glucopyranosylmangiferin"], "SMILES": "OC1=C2C(OC=3C(C2=O)=CC(OC4OC(CO)C(O)C(O)C4O)=C(O)C3)=CC(O)=C1C5OC(CO)C(O)C(O)C5O", "physical_data": {"Molecular Weight": "584.48", "Molecular Formula": "C25H28O16", "Melting Point": "226-227 \u00b0C"}}