{"cas_no": "64806-05-9", "cn_name": "\u5361\u6258\u666e\u5229\u4e8c\u786b\u5316\u7269", "en_name": ["Captopril disulfide", "L-Proline, 1,1\u2032-[dithiobis[(2S)-2-methyl-1-oxo-3,1-propanediyl]]bis-", "L-Proline, 1,1\u2032-[dithiobis(2-methyl-1-oxo-3,1-propanediyl)]bis-, [S-(R*,R*)]-", "1,1\u2032-[Dithiobis[(2S)-2-methyl-1-oxo-3,1-propanediyl]]bis[L-proline]", "Captopril disulfide", "SQ 14551", "CAPTOPRDS"], "SMILES": "C(C(CSSCC(C(=O)N1C(C(O)=O)CCC1)C)C)(=O)N2C(C(O)=O)CCC2", "physical_data": {"Molecular Weight": "432.55", "Molecular Formula": "C18H28N2O6S2", "Melting Point": "224-226 \u00b0C"}}