{"cas_no": "6480-68-8", "cn_name": "\u55b9\u5549-3-\u7fa7\u9178", "en_name": ["3-Quinolinecarboxylic acid", "3-Quinolinecarboxylic acid", "3-Carboxyquinoline", "NSC 403263"], "SMILES": "C(O)(=O)C1=CC2=C(N=C1)C=CC=C2", "physical_data": {"Molecular Weight": "173.17", "Molecular Formula": "C10H7NO2", "Melting Point": "275 \u00b0C"}}