{"cas_no": "64808-48-6", "cn_name": "\u6c2f\u82ef\u624e\u5229\u4e8c\u94a0", "en_name": ["Lobenzarit disodium", "Benzoic acid, 2-[(2-carboxyphenyl)amino]-4-chloro-, sodium salt (1:2)", "Benzoic acid, 2-[(2-carboxyphenyl)amino]-4-chloro-, disodium salt", "Disodium N-(2-carboxyphenyl)-4-chloroanthranilic acid", "CCA", "Lobenzarit sodium", "Lobenzarit disodium", "Lobenzarit disodium salt", "Carfenil"], "SMILES": "N(C1=C(C(O)=O)C=CC(Cl)=C1)C2=C(C(O)=O)C=CC=C2.[Na]", "physical_data": {"Molecular Weight": "", "Molecular Formula": "C14H10ClNO4.2Na", "Melting Point": "388 \u00b0C (decomp)"}}