{"cas_no": "6482-24-2", "cn_name": "2-\u6eb4\u4e59\u57fa\u7532\u57fa\u919a", "en_name": ["Bromoethyl methyl ether", "Ethane, 1-bromo-2-methoxy-", "Ether, 2-bromoethyl methyl", "1-Bromo-2-methoxyethane", "2-Methoxyethyl bromide", "2-Bromoethyl methyl ether", "Methoxyethyl bromide", "\u03b2-Methoxyethyl bromide", "2-Bromo-1-methoxyethane", "NSC 81806", "(2-Methoxy)bromoethane", "2-Methoxy-1-bromoethane", "Bromoethyl methyl ether"], "SMILES": "C(CBr)OC", "physical_data": {"Molecular Weight": "138.99", "Molecular Formula": "C3H7BrO", "Boiling Point": "54-55 \u00b0C @ Press: 30 Torr", "Density": "1.4369 g/cm\u00b3 @ Temp: 25 \u00b0C"}}