{"cas_no": "6483-50-7", "cn_name": "1,4-\u4e8c\u4e59\u57fa\u54cc\u55ea", "en_name": ["1,4-Diethylpiperazine", "Piperazine, 1,4-diethyl-", "1,4-Diethylpiperazine", "N,N\u2032-Diethylpiperazine"], "SMILES": "C(C)N1CCN(CC)CC1", "physical_data": {"Molecular Weight": "142.24", "Molecular Formula": "C8H18N2", "Boiling Point": "172-176 \u00b0C @ Press: 760 Torr"}}