{"cas_no": "64834-63-5", "cn_name": "2-[(4-\u7532\u6c27\u57fa\u82c4\u57fa)\u6c28\u57fa]\u4e59\u9187", "en_name": ["2-[(4-Methoxybenzyl)amino]ethanol", "Ethanol, 2-[[(4-methoxyphenyl)methyl]amino]-", "Ethanol, 2-[(p-methoxybenzyl)amino]-", "2-[[(4-Methoxyphenyl)methyl]amino]ethanol", "NSC 11273", "NSC 173113", "2-[(4-Methoxybenzyl)amino]ethanol", "2-[[(4-Methoxyphenyl)methyl]amino]ethan-1-ol"], "SMILES": "C(NCCO)C1=CC=C(OC)C=C1", "physical_data": {"Molecular Weight": "181.23", "Molecular Formula": "C10H15NO2", "Boiling Point": "142-143 \u00b0C @ Press: 3 Torr", "Melting Point": "38-39 \u00b0C", "Density": "1.1016 g/cm\u00b3 @ Temp: 25 \u00b0C"}}