{"cas_no": "6483-15-4", "cn_name": "\u69d0\u679c\u78b1", "en_name": ["(-)-Sophocarpine", "1H,5H,10H-Dipyrido[2,1-f:3\u2032,2\u2032,1\u2032-ij][1,6]naphthyridin-10-one, 2,3,6,7,7a,8,13,13a,13b,13c-decahydro-, (7aS,13aR,13bR,13cS)-", "Sophocarpine", "Matridin-15-one, 13,14-didehydro-", "(7aS,13aR,13bR,13cS)-2,3,6,7,7a,8,13,13a,13b,13c-Decahydro-1H,5H,10H-dipyrido[2,1-f:3\u2032,2\u2032,1\u2032-ij][1,6]naphthyridin-10-one", "(-)-Sophocarpine", "13,14-Dehydromatrine", "13,14-Didehydromatrine", "1H,5H,10H-Dipyrido[2,1-f:3\u2032,2\u2032,1\u2032-ij][1,6]naphthyridin-10-one, 2,3,6,7,7a,8,13,13a,13b,13c-decahydro-, [7aS-(7a\u03b1,13a\u03b2,13b\u03b1,13c\u03b1)]-", "1H,5H,10H-Dipyrido[2,1-f:3\u2032,2\u2032,1\u2032-ij][1,6]naphthyridin-10-one 2,3,6,7,7a,8,13,13a,13b,13c-decahydro-, (7aS,13aR,13bR,13cS)-"], "SMILES": "O=C1N2C(C3C4C(C2)CCCN4CCC3)CC=C1", "physical_data": {"Molecular Weight": "246.35", "Molecular Formula": "C15H22N2O", "Boiling Point": "170-210 \u00b0C @ Press: 5 Torr", "Melting Point": "54-55 \u00b0C"}}