{"cas_no": "6484-52-2", "cn_name": "\u785d\u9178\u94f5", "en_name": ["Ammonium nitrate", "Nitric acid ammonium salt (1:1)", "Nitric acid ammonium salt", "Ammonium nitrate (1:1)", "Ammonium nitrate", "German saltpeter", "Varioform I", "Nitric acid, ammonium salt", "Norwegian saltpeter", "Norge saltpeter", "Norway saltpeter", "Plenco 12203", "Emulite", "Ammonium nitrate (NH4NO3)", "EXP 200", "ZhVK", "phospho ammonium nitrate"], "SMILES": "N(=O)(=O)O.N", "physical_data": {"Molecular Weight": "", "Molecular Formula": "H3N.HNO3", "Boiling Point": "210 \u00b0C @ Press: 11 Torr", "Melting Point": "169.6 \u00b0C", "Density": "1.725 g/cm\u00b3 @ Temp: 25 \u00b0C"}}