{"cas_no": "6484-25-9", "cn_name": "4-\u6c2f-2-\u82ef\u57fa\u55b9\u5511\u5549", "en_name": ["4-Chloro-2-phenylquinazoline", "Quinazoline, 4-chloro-2-phenyl-", "4-Chloro-2-phenylquinazoline", "2-Phenyl-4-chloroquinazoline", "NSC 400965"], "SMILES": "ClC=1C2=C(N=C(N1)C3=CC=CC=C3)C=CC=C2", "physical_data": {"Molecular Weight": "240.69", "Molecular Formula": "C14H9ClN2", "Melting Point": "124-124.5 \u00b0C"}}