{"cas_no": "6485-79-6", "cn_name": "\u4e09\u5f02\u4e19\u57fa\u7845\u70f7", "en_name": ["Triisopropylsilane", "Silane, tris(1-methylethyl)-", "Silane, triisopropyl-", "Tris(1-methylethyl)silane", "Triisopropylsilane", "Triisopropylhydrosilane", "TIS"], "SMILES": "[SiH](C(C)C)(C(C)C)C(C)C", "physical_data": {"Molecular Weight": "158.36", "Molecular Formula": "C9H22Si", "Boiling Point": "169-170 \u00b0C", "Density": "0.772 g/cm\u00b3"}}