{"cas_no": "6485-40-1", "cn_name": "\u5de6\u65cb\u9999\u82b9\u916e", "en_name": ["(-)-Carvone", "2-Cyclohexen-1-one, 2-methyl-5-(1-methylethenyl)-, (5R)-", "p-Mentha-6,8-dien-2-one, (R)-(-)-", "2-Cyclohexen-1-one, 2-methyl-5-(1-methylethenyl)-, (R)-", "(5R)-2-Methyl-5-(1-methylethenyl)-2-cyclohexen-1-one", "(-)-Carvone", "l-Carvone", "l-1-Methyl-4-isopropenyl-6-cyclohexen-2-one", "(-)-(R)-Carvone", "(-)-p-Mentha-6,8-dien-2-one", "(R)-Carvone", "(R)-(-)-Carvone", "L-(-)-Carvone", "(4R)-(-)-Carvone", "L-Carvone", "R-(-)-Carvone", "(R)-Carvone", "(-)-(5R)-Carvone", "(5R)-2-Methyl-5-(prop-1-en-2-yl)cyclohex-2-en-1-one", "Laevo carvone", "(5R)-2-Methyl-5-prop-1-en-2-ylcyclohex-2-en-1-one"], "SMILES": "C(C)(=C)C1CC(=O)C(C)=CC1", "physical_data": {"Molecular Weight": "150.22", "Molecular Formula": "C10H14O", "Boiling Point": "228.5 \u00b0C", "Melting Point": "&lt;25 \u00b0C", "Density": "0.9543 g/cm\u00b3 @ Temp: 25 \u00b0C"}}