{"cas_no": "6485-55-8", "cn_name": "\u987a\u5f0f-2,6-\u4e8c\u7532\u57fa\u5417\u5549", "en_name": ["cis-2,6-Dimethylmorpholine", "Morpholine, 2,6-dimethyl-, (2R,6S)-rel-", "Morpholine, 2,6-dimethyl-, cis-", "rel-(2R,6S)-2,6-Dimethylmorpholine", "cis-2,6-Dimethylmorpholine", "(2R,6S)-2,6-Dimethylmorpholine", "cis-(2R,6S)-2,6-Dimethylmorpholine", "2,6-cis-Dimethylmorpholine", "(2S*,6R*)-2,6-Dimethylmorpholine", "rel-(2S,6R)-2,6-Dimethylmorpholine", "cis-2,6-Dimethylmorpholin", "2,6-cis-Dimethylmorpholine"], "SMILES": "CC1OC(C)CNC1", "physical_data": {"Molecular Weight": "115.17", "Molecular Formula": "C6H13NO", "Boiling Point": "142 \u00b0C"}}