{"cas_no": "6485-81-0", "cn_name": "\u4e09\u5f02\u4e01\u57fa\u7845\u70f7", "en_name": ["Tris(2-methylpropyl)silane", "Silane, tris(2-methylpropyl)-", "Silane, triisobutyl-", "Tris(2-methylpropyl)silane", "Triisobutylsilane"], "SMILES": "[SiH](CC(C)C)(CC(C)C)CC(C)C", "physical_data": {"Molecular Weight": "200.44", "Molecular Formula": "C12H28Si", "Boiling Point": "204-206 \u00b0C", "Density": "0.764 g/cm\u00b3"}}