{"cas_no": "6485-67-2", "cn_name": "\u5de6\u65cb\u82ef\u7518\u6c28\u9178\u9170\u80fa", "en_name": ["D-Phenylglycine amide", "Benzeneacetamide, \u03b1-amino-, (\u03b1R)-", "Acetamide, 2-amino-2-phenyl-, D-", "Benzeneacetamide, \u03b1-amino-, (R)-", "(\u03b1R)-\u03b1-Aminobenzeneacetamide", "D-Phenylglycinamide", "D-2-Phenylglycinamide", "D-Phenylglycine amide", "(R)-Phenylglycinamide", "(R)-2-Aminophenylacetamide", "(2R)-2-Amino-2-phenylethanamide", "(R)-2-Amino-2-phenylacetamide", "(R)-2-Phenylglycine amide", "(2R)-2-Amino-2-phenylacetamide"], "SMILES": "C(C(N)=O)(N)C1=CC=CC=C1", "physical_data": {"Molecular Weight": "150.18", "Molecular Formula": "C8H10N2O", "Melting Point": "239 \u00b0C"}}