{"cas_no": "64862-96-0", "cn_name": "\u963f\u7f8e\u84bd\u918c", "en_name": ["Ametantrone", "9,10-Anthracenedione, 1,4-bis[[2-[(2-hydroxyethyl)amino]ethyl]amino]-", "1,4-Bis[[2-[(2-hydroxyethyl)amino]ethyl]amino]-9,10-anthracenedione", "Ametantrone", "NSC 196473", "1,4-Bis[2-(2-hydroxyethylamino)ethylamino]anthraquinone", "NSC 290813"], "SMILES": "N(CCNCCO)C1=C2C(=C(NCCNCCO)C=C1)C(=O)C=3C(C2=O)=CC=CC3", "physical_data": {"Molecular Weight": "412.48", "Molecular Formula": "C22H28N4O4", "Melting Point": "156-158 \u00b0C"}}