{"cas_no": "6487-86-1", "cn_name": "2-(3-\u7532\u6c27\u57fa\u82ef\u6c27\u57fa)\u4e59\u80fa", "en_name": ["Ethanamine, 2-(3-methoxyphenoxy)-", "Ethanamine, 2-(3-methoxyphenoxy)-", "Ethylamine, 2-(m-methoxyphenoxy)-", "2-(3-Methoxyphenoxy)ethylamine", "1-(2-Aminoethoxy)-3-methoxybenzene", "2-(3-Methoxyphenoxy)ethan-1-amine", "2-(3-Methoxyphenoxy)ethanamine"], "SMILES": "O(CCN)C1=CC(OC)=CC=C1", "physical_data": {"Molecular Weight": "167.21", "Molecular Formula": "C9H13NO2", "Boiling Point": "152-154 \u00b0C @ Press: 12 Torr"}}