{"cas_no": "64872-76-0", "cn_name": "\u5e03\u5eb7\u5511", "en_name": ["Butoconazole", "1H-Imidazole, 1-[4-(4-chlorophenyl)-2-[(2,6-dichlorophenyl)thio]butyl]-", "1H-Imidazole, 1-[4-(4-chlorophenyl)-2-[(2,6-dichlorophenyl)thio]butyl]-, (\u00b1)-", "1-[4-(4-Chlorophenyl)-2-[(2,6-dichlorophenyl)thio]butyl]-1H-imidazole", "Butoconazole", "Butaconazole", "1-[2-(2,6-Dichlorophenylthio)-4-(4-chlorophenyl)-n-butyl]imidazole"], "SMILES": "C(SC1=C(Cl)C=CC=C1Cl)(CN2C=CN=C2)CCC3=CC=C(Cl)C=C3", "physical_data": {"Molecular Weight": "411.78", "Molecular Formula": "C19H17Cl3N2S", "Melting Point": "68-70.5 \u00b0C"}}