{"cas_no": "6487-99-6", "cn_name": "2-(3-\u7532\u57fa\u82ef\u6c27\u57fa)\u4e59\u80fa", "en_name": ["2-(3-Methylphenoxy)ethanamine", "Ethanamine, 2-(3-methylphenoxy)-", "Ethylamine, 2-(m-tolyloxy)-", "2-(3-Methylphenoxy)ethanamine", "2-(3-Methylphenoxy)ethylamine", "2-m-Tolyloxy-ethylamine", "2-(3-Methylphenoxy)ethan-1-amine"], "SMILES": "O(CCN)C1=CC(C)=CC=C1", "physical_data": {"Molecular Weight": "151.21", "Molecular Formula": "C9H13NO", "Boiling Point": "139-142 \u00b0C @ Press: 13 Torr"}}