{"cas_no": "64872-77-1", "cn_name": "\u785d\u9178\u5e03\u5eb7\u5511", "en_name": ["Butoconazole nitrate", "1H-Imidazole, 1-[4-(4-chlorophenyl)-2-[(2,6-dichlorophenyl)thio]butyl]-, nitrate (1:1)", "1H-Imidazole, 1-[4-(4-chlorophenyl)-2-[(2,6-dichlorophenyl)thio]butyl]-, (\u00b1)-, mononitrate", "1H-Imidazole, 1-[4-(4-chlorophenyl)-2-[(2,6-dichlorophenyl)thio]butyl]-, mononitrate", "Butoconazole nitrate", "(\u00b1)-Butoconazole nitrate", "Gynomyk", "RS 35887", "Femstat", "RS 35887-00-10-3", "Butaconazole nitrate"], "SMILES": "N(=O)(=O)O.C(SC1=C(Cl)C=CC=C1Cl)(CN2C=CN=C2)CCC3=CC=C(Cl)C=C3", "physical_data": {"Molecular Weight": "", "Molecular Formula": "C19H17Cl3N2S.HNO3", "Melting Point": "162-163 \u00b0C"}}