{"cas_no": "649-15-0", "cn_name": "N,N-\u4e8c\u4e59\u57fa\u5bf9\u7532\u82ef\u78fa\u9170\u80fa", "en_name": ["N,N-Diethyl-4-methylbenzenesulfonamide", "Benzenesulfonamide, N,N-diethyl-4-methyl-", "p-Toluenesulfonamide, N,N-diethyl-", "N,N-Diethyl-4-methylbenzenesulfonamide", "N,N-Diethyl-p-toluenesulfonamide", "NSC 22501", "4-Methyl-N,N-diethylbenzenesulfonamide"], "SMILES": "S(N(CC)CC)(=O)(=O)C1=CC=C(C)C=C1", "physical_data": {"Molecular Weight": "227.32", "Molecular Formula": "C11H17NO2S", "Melting Point": "59 \u00b0C"}}