{"cas_no": "64907-22-8", "cn_name": "7\u0391,25-\u4e8c\u7f9f\u57fa\u80c6\u56fa\u9187", "en_name": ["7\u03b1,25-Dihydroxycholesterol", "Cholest-5-ene-3,7,25-triol, (3\u03b2,7\u03b1)-", "(3\u03b2,7\u03b1)-Cholest-5-ene-3,7,25-triol", "3\u03b2,7\u03b1,25-Trihydroxycholest-5-ene", "7\u03b1,25-Dihydroxycholesterol"], "SMILES": "CC12C(C3C(C4(C)C(=CC3O)CC(O)CC4)CC1)CCC2C(CCCC(C)(C)O)C", "physical_data": {"Molecular Weight": "418.65", "Molecular Formula": "C27H46O3", "Melting Point": "235-236 \u00b0C"}}