{"cas_no": "64902-72-3", "cn_name": "\u6c2f\u78fa\u9686", "en_name": ["Chlorsulfuron", "Benzenesulfonamide, 2-chloro-N-[[(4-methoxy-6-methyl-1,3,5-triazin-2-yl)amino]carbonyl]-", "2-Chloro-N-[[(4-methoxy-6-methyl-1,3,5-triazin-2-yl)amino]carbonyl]benzenesulfonamide", "DPX 4189", "Chlorsulfuron", "Glean", "Glean 20DF", "DPX-W 4189", "W 4189", "Tuligen", "N-(2-Chlorophenyl)sulfonyl-N\u2032-(4-methyl-6-methoxy-2-triazinyl)urea", "Khardin", "Glean 75DF", "Glean 75", "Kartes", "Kortes", "Luhuanglong", "Glean XP"], "SMILES": "S(NC(NC=1N=C(OC)N=C(C)N1)=O)(=O)(=O)C2=C(Cl)C=CC=C2", "physical_data": {"Molecular Weight": "357.77", "Molecular Formula": "C12H12ClN5O4S", "Melting Point": "174-178 \u00b0C"}}