{"cas_no": "64900-65-8", "cn_name": "\u90bb\u6c2f\u82ef\u78fa\u9170\u57fa\u5f02\u6c30\u9178\u916f", "en_name": ["2-Chlorobenzenesulfonyl isocyanate", "Benzenesulfonyl isocyanate, 2-chloro-", "2-Chlorobenzenesulfonyl isocyanate", "o-Chlorobenzenesulfonyl isocyanate", "(o-Chlorophenyl)sulfonyl isocyanate", "(2-Chlorophenyl)sulfonyl isocyanate", "1-Chloro-2-(isocyanatosulfonyl)benzene", "2-Chlorobenzene-1-sulfonyl isocyanate"], "SMILES": "S(N=C=O)(=O)(=O)C1=C(Cl)C=CC=C1", "physical_data": {"Molecular Weight": "217.63", "Molecular Formula": "C7H4ClNO3S", "Boiling Point": "160-164 \u00b0C @ Press: 14 Torr"}}