{"cas_no": "64917-82-4", "cn_name": "\u4e94\u5473\u5b50\u916f D", "en_name": ["Schisantherin D", "Cycloocta[1,2-f:3,4-f\u2032]bis[1,3]benzodioxole-5,6-diol, 5,6,7,8-tetrahydro-13,14-dimethoxy-6,7-dimethyl-, 5-benzoate, (5S,6S,7S,13aS)-", "Cycloocta[1,2-f:3,4-f\u2032]bis[1,3]benzodioxole-5,6-diol, 5,6,7,8-tetrahydro-13,14-dimethoxy-6,7-dimethyl-, 5-benzoate, stereoisomer", "Schisantherin D", "Schizantherin D", "Shisantherin D", "(-)-Schisantherin D"], "SMILES": "O(C)C1=C2C=3C(=CC4=C(C3OC)OCO4)CC(C)C(C)(O)C(OC(=O)C5=CC=CC=C5)C2=CC6=C1OCO6", "physical_data": {"Molecular Weight": "520.53", "Molecular Formula": "C29H28O9", "Melting Point": "122-125 \u00b0C"}}