{"cas_no": "64916-48-9", "cn_name": "1,1,1,5,5,5-\u516d\u6c1f\u4e59\u9170\u4e19\u916e\u94af(II)", "en_name": ["Bis(hexafluoroacetylacetonato)palladium", "Palladium, bis(1,1,1,5,5,5-hexafluoro-2,4-pentanedionato-\u03baO2,\u03baO4)-, (SP-4-1)-", "Palladium, bis(1,1,1,5,5,5-hexafluoro-2,4-pentanedionato-O,O\u2032)-, (SP-4-1)-", "2,4-Pentanedione, 1,1,1,5,5,5-hexafluoro-, palladium deriv.", "Palladium, bis(1,1,1,5,5,5-hexafluoro-2,4-pentanedionato-\u03baO,\u03baO\u2032)-, (SP-4-1)-", "(SP-4-1)-Bis(1,1,1,5,5,5-hexafluoro-2,4-pentanedionato-\u03baO2,\u03baO4)palladium", "Palladium bis(1,1,1,5,5,5-hexafluoro-2,4-pentanedionate)", "Bis(hexafluoroacetylacetonato)palladium", "Palladium bis(hexafluoroacetylacetonate)", "Bis(1,1,1,5,5,5-hexafluoroacetylacetonato)palladium", "Bis(1,1,1,5,5,5-hexafluoro-2,4-pentanedionato)palladium", "Palladium (II) hexafluoroacetylacetonate", "Hexafluoroacetylacetonato palladium(II)", "Pd(II) hexafluoroacetylacetonate"], "SMILES": "C(F)(F)(F)C1=O[Pd+2]2(O=C(C(F)(F)F)[CH-]C(C(F)(F)F)=O2)O=C(C(F)(F)F)[CH-]1", "physical_data": {"Molecular Weight": "", "Molecular Formula": "C10H2F12O4Pd", "Melting Point": "95 \u00b0C"}}