{"cas_no": "64910-46-9", "cn_name": "3-\u6c28\u57fa-4-(\u7532\u80fa\u57fa)\u82ef\u8148", "en_name": ["3-Amino-4-(methylamino)benzonitrile", "Benzonitrile, 3-amino-4-(methylamino)-", "3-Amino-4-(methylamino)benzonitrile", "4-Methylamino-3-aminobenzonitrile"], "SMILES": "C(#N)C1=CC(N)=C(NC)C=C1", "physical_data": {"Molecular Weight": "147.18", "Molecular Formula": "C8H9N3", "Melting Point": "140-141 \u00b0C"}}