{"cas_no": "64920-29-2", "cn_name": "2-\u6c27\u4ee3-4-\u82ef\u57fa\u4e01\u9178\u4e59\u916f", "en_name": ["Ethyl \u03b1-oxobenzenebutanoate", "Benzenebutanoic acid, \u03b1-oxo-, ethyl ester", "Ethyl \u03b1-oxobenzenebutanoate", "Ethyl 4-phenyl-2-oxobutanoate", "Ethyl 4-phenyl-2-ketobutyrate", "Ethyl 3-benzylpyruvate", "Ethyl 4-phenyl-2-oxobutyrate", "Ethyl benzylpyruvate", "Ethyl 2-oxo-4-phenylbutanoate", "4-Phenyl-2-oxobutyric acid ethyl ester", "2-Oxo-4-phenylbutyric acid ethyl ester", "Ethyl 2-oxo-4-phenylbutyrate", "2-Oxo-4-phenylbutanoic acid ethyl ester"], "SMILES": "C(CC(C(OCC)=O)=O)C1=CC=CC=C1", "physical_data": {"Molecular Weight": "206.24", "Molecular Formula": "C12H14O3", "Boiling Point": "256-258 \u00b0C @ Press: 760 Torr"}}