{"cas_no": "6492-86-0", "cn_name": "4-\u6c28\u57fa-1,8-\u8418\u4e8c\u7532\u9178\u9150", "en_name": ["4-Amino-1,8-naphthalic anhydride", "1H,3H-Naphtho[1,8-cd]pyran-1,3-dione, 6-amino-", "Naphthalic anhydride, 4-amino-", "6-Amino-1H,3H-naphtho[1,8-cd]pyran-1,3-dione", "4-Amino-1,8-naphthalic anhydride", "4-Amino-1,8-naphthalenedicarboxylic anhydride", "NSC 7564", "4-Amino-1,8-naphthalene anhydride"], "SMILES": "O=C1C=2C=3C(C(=O)O1)=CC=CC3C(N)=CC2", "physical_data": {"Molecular Weight": "213.19", "Molecular Formula": "C12H7NO3", "Melting Point": "&gt;350 \u00b0C"}}