{"cas_no": "64924-67-0", "cn_name": "\u6c22\u6eb4\u9178\u5364\u592b\u916e", "en_name": ["Halofuginone hydrobromide", "4(3H)-Quinazolinone, 7-bromo-6-chloro-3-[3-[(2R,3S)-3-hydroxy-2-piperidinyl]-2-oxopropyl]-, hydrobromide (1:1), rel-", "4(3H)-Quinazolinone, 7-bromo-6-chloro-3-[3-(3-hydroxy-2-piperidinyl)-2-oxopropyl]-, monohydrobromide, trans-(\u00b1)-", "4(3H)-Quinazolinone, 7-bromo-6-chloro-3-[3-[(2R,3S)-3-hydroxy-2-piperidinyl]-2-oxopropyl]-, monohydrobromide, rel-", "RU 19110", "Stenorol", "Halofuginone hydrobromide", "4(3H)-Quinazolinone, 7-bromo-6-chloro-3-[3-(3-hydroxy-2-piperidinyl)-2-oxopropyl]-, monohydrobromide, trans-"], "SMILES": "O=C1C=2C(N=CN1CC(CC3C(O)CCCN3)=O)=CC(Br)=C(Cl)C2.Br", "physical_data": {"Molecular Weight": "", "Molecular Formula": "C16H17BrClN3O3.BrH", "Melting Point": "247 \u00b0C (decomp)"}}