{"cas_no": "6493-05-6", "cn_name": "\u5df1\u916e\u53ef\u53ef\u78b1", "en_name": ["Pentoxifylline", "1H-Purine-2,6-dione, 3,7-dihydro-3,7-dimethyl-1-(5-oxohexyl)-", "Theobromine, 1-(5-oxohexyl)-", "3,7-Dihydro-3,7-dimethyl-1-(5-oxohexyl)-1H-purine-2,6-dione", "1-(5-Oxohexyl)-3,7-dimethylxanthine", "3,7-Dimethyl-1-(5-oxohexyl)xanthine", "BL 191", "Trental", "Pentoxifylline", "Dimethyloxohexylxanthine", "1-(5-Oxohexyl)theobromine", "3,7-Dimethyl-1-(5-oxohexyl)-1H,3H-purin-2,6-dione", "Pentoxifyllin", "Oxpentifylline", "Torental", "Agapurin Retard", "Pentoxiphylline", "PTX", "Vazofirin", "Azupentat", "Rentylin", "Durapental", "NSC 637086", "Agapurin", "Vasotal", "Pexal", "EHT 0202", "Polfilin", "Pentoxyfarm", "Pentoxifilline", "3,7-Dimethyl-1-(5-oxohexyl)-1H-purine-2,6(3H,7H)-dione", "3,7-Dimethyl-1-(5-oxo-hexyl)-3,7-dihydro-purine-2,6-dione", "3,7-Dimethyl-1-(5-oxohexyl)purine-2,6-dione", "MeSH ID: D010431"], "SMILES": "O=C1C2=C(N(C)C(=O)N1CCCCC(C)=O)N=CN2C", "physical_data": {"Molecular Weight": "278.31", "Molecular Formula": "C13H18N4O3", "Melting Point": "105 \u00b0C", "Density": "1.3 g/cm\u00b3"}}