{"cas_no": "6493-77-2", "cn_name": "3-\u73af\u5df1\u70ef-1-\u7fa7\u9178\u7532\u916f", "en_name": ["3-Cyclohexene-1-carboxylic acid, methyl ester", "3-Cyclohexene-1-carboxylic acid, methyl ester", "Methyl 4-cyclohexenecarboxylate", "Methyl 3-cyclohexene-1-carboxylate", "1-Carbomethoxy-3-cyclohexene", "Methyl 3-cyclohexenecarboxylate", "Methyl 1,2,3,6-tetrahydrobenzoate", "4-(Methoxycarbonyl)cyclohexene", "1-(Methoxycarbonyl)cyclohex-3-ene", "NSC 93912"], "SMILES": "C(OC)(=O)C1CCC=CC1", "physical_data": {"Molecular Weight": "140.18", "Molecular Formula": "C8H12O2", "Boiling Point": "70 \u00b0C @ Press: 13 Torr", "Density": "1.0130 g/cm\u00b3 @ Temp: 20 \u00b0C"}}