{"cas_no": "6494-19-5", "cn_name": "3-\u7532\u57fa-6-\u785d\u57fa-1H-\u5432\u5511", "en_name": ["3-Methyl-6-nitro-1H-indazole", "1H-Indazole, 3-methyl-6-nitro-", "3-Methyl-6-nitro-1H-indazole", "3-Methyl-6-nitroindazole", "6-Nitro-3-methylindazole"], "SMILES": "CC=1C=2C(=CC(N(=O)=O)=CC2)NN1", "physical_data": {"Molecular Weight": "177.16", "Molecular Formula": "C8H7N3O2", "Melting Point": "188-188.5 \u00b0C"}}