{"cas_no": "64952-97-2", "cn_name": "\u62c9\u6c27\u5934\u5b62", "en_name": ["Moxalactam", "5-Oxa-1-azabicyclo[4.2.0]oct-2-ene-2-carboxylic acid, 7-[[(2R)-2-carboxy-2-(4-hydroxyphenyl)acetyl]amino]-7-methoxy-3-[[(1-methyl-1H-tetrazol-5-yl)thio]methyl]-8-oxo-, (6R,7R)-", "5-Oxa-1-azabicyclo[4.2.0]oct-2-ene-2-carboxylic acid, 7-[[carboxy(4-hydroxyphenyl)acetyl]amino]-7-methoxy-3-[[(1-methyl-1H-tetrazol-5-yl)thio]methyl]-8-oxo-, [6R-[6\u03b1,7\u03b1,7(R*)]]-", "5-Oxa-1-azabicyclo[4.2.0]oct-2-ene-2-carboxylic acid, 7-[[(2R)-carboxy(4-hydroxyphenyl)acetyl]amino]-7-methoxy-3-[[(1-methyl-1H-tetrazol-5-yl)thio]methyl]-8-oxo-, (6R,7R)-", "(6R,7R)-7-[[(2R)-2-Carboxy-2-(4-hydroxyphenyl)acetyl]amino]-7-methoxy-3-[[(1-methyl-1H-tetrazol-5-yl)thio]methyl]-8-oxo-5-oxa-1-azabicyclo[4.2.0]oct-2-ene-2-carboxylic acid", "Moxalactam", "Oxa-cephem", "Latamoxef", "Lamoxactam", "Moxam"], "SMILES": "N(C(C(C(O)=O)C1=CC=C(O)C=C1)=O)C2(OC)C3N(C2=O)C(C(O)=O)=C(CSC=4N(C)N=NN4)CO3", "physical_data": {"Molecular Weight": "520.47", "Molecular Formula": "C20H20N6O9S", "Melting Point": "117-122 \u00b0C"}}