{"cas_no": "64965-48-6", "cn_name": "4-\u7f9f\u57fa-3-\u7898\u55b9\u5549", "en_name": ["4-Quinolinol, 3-iodo-", "4-Quinolinol, 3-iodo-", "3-Iodo-4-quinolinol"], "SMILES": "OC=1C2=C(N=CC1I)C=CC=C2", "physical_data": {"Molecular Weight": "271.05", "Molecular Formula": "C9H6INO", "Melting Point": "301-302 \u00b0C"}}