{"cas_no": "6497-78-5", "cn_name": "4-(2-(4-NITRO-1H-IMIDAZOL-1-YL)ETHYL)MORPHOLINE", "en_name": ["4-[2-(4-Nitro-1H-imidazol-1-yl)ethyl]morpholine", "Morpholine, 4-[2-(4-nitro-1H-imidazol-1-yl)ethyl]-", "Morpholine, 4-[2-(4-nitroimidazol-1-yl)ethyl]-", "4-[2-(4-Nitro-1H-imidazol-1-yl)ethyl]morpholine", "RGW 611"], "SMILES": "C(CN1CCOCC1)N2C=C(N(=O)=O)N=C2", "physical_data": {"Molecular Weight": "226.23", "Molecular Formula": "C9H14N4O3", "Melting Point": "104-106 \u00b0C"}}