{"cas_no": "649735-63-7", "cn_name": "1-[[4-[(4-\u6c1f-2-\u7532\u57fa-1H-\u5432\u54da-5-\u57fa)\u6c27\u57fa]-5-\u7532\u57fa\u5421\u54af\u5e76[2,1-F][1,2,4]\u4e09\u55ea-6-\u57fa]\u6c27\u57fa]-2-\u4e19\u9187 L-\u4e19\u6c28\u9178\u916f", "en_name": ["Brivanib alaninate", "L-Alanine, (1R)-2-[[4-[(4-fluoro-2-methyl-1H-indol-5-yl)oxy]-5-methylpyrrolo[2,1-f][1,2,4]triazin-6-yl]oxy]-1-methylethyl ester", "BMS 582664", "Brivanib alaninate"], "SMILES": "O(C=1C=2N(C=C(OCC(OC(C(C)N)=O)C)C2C)N=CN1)C=3C(F)=C4C(=CC3)NC(C)=C4", "physical_data": {"Molecular Weight": "441.46", "Molecular Formula": "C22H24FN5O4", "Melting Point": "136-142 \u00b0C"}}