{"cas_no": "649735-46-6", "cn_name": "\u916a\u6c28\u9178\u6fc0\u9176\u6291\u5236\u5242", "en_name": ["Brivanib", "2-Propanol, 1-[[4-[(4-fluoro-2-methyl-1H-indol-5-yl)oxy]-5-methylpyrrolo[2,1-f][1,2,4]triazin-6-yl]oxy]-, (2R)-", "(2R)-1-[[4-[(4-Fluoro-2-methyl-1H-indol-5-yl)oxy]-5-methylpyrrolo[2,1-f][1,2,4]triazin-6-yl]oxy]-2-propanol", "BMS 540215", "Brivanib", "(2R)-1-[4-[(4-Fluoro-2-methyl-1H-indol-5-yl)oxy]-5-methylpyrrolo[2,1-f][1,2,4]triazin-6-yl]oxypropan-2-ol"], "SMILES": "O(C=1C=2N(C=C(OCC(C)O)C2C)N=CN1)C=3C(F)=C4C(=CC3)NC(C)=C4", "physical_data": {"Molecular Weight": "370.38", "Molecular Formula": "C19H19FN4O3", "Melting Point": "208-210 \u00b0C"}}