{"cas_no": "64987-82-2", "cn_name": "4-(N-\u9a6c\u6765\u9170\u4e9a\u80fa\u57fa\u7532\u57fa)\u73af\u5df1\u57fa\u7532\u9178", "en_name": ["4-[(2,5-Dihydro-2,5-dioxo-1H-pyrrol-1-yl)methyl]cyclohexanecarboxylic acid", "Cyclohexanecarboxylic acid, 4-[(2,5-dihydro-2,5-dioxo-1H-pyrrol-1-yl)methyl]-", "4-[(2,5-Dihydro-2,5-dioxo-1H-pyrrol-1-yl)methyl]cyclohexanecarboxylic acid", "N-(4-Carboxycyclohexylmethyl)maleimide"], "SMILES": "C(N1C(=O)C=CC1=O)C2CCC(C(O)=O)CC2", "physical_data": {"Molecular Weight": "237.25", "Molecular Formula": "C12H15NO4", "Melting Point": "89-91 \u00b0C"}}