{"cas_no": "64984-31-2", "cn_name": "PHENYLETHYNSULFONIC ACID AMIDE", "en_name": ["2-Phenylethynesulfonamide", "Ethynesulfonamide, 2-phenyl-", "2-Phenylethynesulfonamide", "NSC 303580", "Pifithrin-\u03bc", "2-Phenylacetylenesulfonamide"], "SMILES": "C(#CS(N)(=O)=O)C1=CC=CC=C1", "physical_data": {"Molecular Weight": "181.21", "Molecular Formula": "C8H7NO2S", "Melting Point": "133 \u00b0C"}}