{"cas_no": "64987-05-9", "cn_name": "2-(2-\u7532\u9170\u6c28\u57fa\u567b\u5511-4-\u57fa)\u4e59\u9178\u4e59\u916f", "en_name": ["Ethyl 2-(formylamino)-4-thiazoleacetate", "4-Thiazoleacetic acid, 2-(formylamino)-, ethyl ester", "Ethyl 2-(formylamino)-4-thiazoleacetate", "4-(Carbethoxymethyl)-2-formamidothiazole", "Ethyl 2-(formylamino)-4-thiazolacetate"], "SMILES": "C(C(OCC)=O)C=1N=C(NC=O)SC1", "physical_data": {"Molecular Weight": "214.24", "Molecular Formula": "C8H10N2O3S", "Melting Point": "119-120 \u00b0C"}}