{"cas_no": "65-04-3", "cn_name": "17\u03b1-\u7532\u57fa\u5f02\u777e\u916e", "en_name": ["Methyl-1-testosterone", "Androst-1-en-3-one, 17-hydroxy-17-methyl-, (5\u03b1,17\u03b2)-", "5\u03b1-Androst-1-en-3-one, 17\u03b2-hydroxy-17-methyl-", "(5\u03b1,17\u03b2)-17-Hydroxy-17-methylandrost-1-en-3-one", "SC 11195", "17\u03b1-Methyl-17\u03b2-hydroxy-5\u03b1-androst-1-en-3-one", "17\u03b2-Hydroxy-17\u03b1-methyl-5\u03b1-androst-1-en-3-one", "17\u03b1-Methyl-17\u03b2-hydroxy-\u03941-5\u03b1-androsten-3-one", "17\u03b2-Hydroxy-17-methyl-5\u03b1-androst-1-en-3-one", "17-Methyl-1-testosterone", "Methyl-1-testosterone", "17\u03b2-Hydroxy-17\u03b1-methyl-5\u03b1-androstan-1-en-3-one", "17\u03b1-Methyl-1-testosterone"], "SMILES": "CC12C3C(C4C(C)(CC3)C(C)(O)CC4)CCC1CC(=O)C=C2", "physical_data": {"Molecular Weight": "302.45", "Molecular Formula": "C20H30O2", "Melting Point": "147-149 \u00b0C"}}