{"cas_no": "65-06-5", "cn_name": "1-\u777e\u916e", "en_name": ["1-Testosterone", "Androst-1-en-3-one, 17-hydroxy-, (5\u03b1,17\u03b2)-", "5\u03b1-Androst-1-en-3-one, 17\u03b2-hydroxy-", "(5\u03b1,17\u03b2)-17-Hydroxyandrost-1-en-3-one", "17\u03b2-Hydroxy-5\u03b1-androst-1-en-3-one", "5\u03b1-Androst-1-en-17\u03b2-ol-3-one", "NSC 121140", "NSC 39366", "1-Testosterone"], "SMILES": "CC12C3C(C4C(C)(CC3)C(O)CC4)CCC1CC(=O)C=C2", "physical_data": {"Molecular Weight": "288.42", "Molecular Formula": "C19H28O2", "Melting Point": "220 \u00b0C"}}