{"cas_no": "65-19-0", "cn_name": "\u76d0\u9178\u80b2\u4ea8\u5bbe", "en_name": ["Yohimbine hydrochloride", "Yohimban-16-carboxylic acid, 17-hydroxy-, methyl ester, hydrochloride (1:1), (16\u03b1,17\u03b1)-", "Yohimban-16\u03b1-carboxylic acid, 17\u03b1-hydroxy-, methyl ester, monohydrochloride", "Yohimban-16-carboxylic acid, 17-hydroxy-, methyl ester, monohydrochloride, (16\u03b1,17\u03b1)-", "Benz[g]indolo[2,3-a]quinolizine, yohimban-16-carboxylic acid deriv.", "Yohimbine hydrochloride", "Yohimbine monohydrochloride", "Yohimbine chloride", "NIH 9689", "Antagonil", "Actibine", "Yohimex", "Erex", "Thybine", "Yocon", "Dayto-Himbin", "Yohimbe", "Aphrodyne", "Yomax", "NSC 19509", "Yohimbex"], "SMILES": "C(OC)(=O)C1C2CC3C4=C(C=5C(N4)=CC=CC5)CCN3CC2CCC1O.Cl", "physical_data": {"Molecular Weight": "", "Molecular Formula": "C21H26N2O3.ClH", "Melting Point": "289 \u00b0C (decomp)"}}