{"cas_no": "65-28-1", "cn_name": "\u7532\u78fa\u9178\u915a\u59a5\u62c9\u660e", "en_name": ["Phentolamine methanesulfonate", "Phenol, 3-[[(4,5-dihydro-1H-imidazol-2-yl)methyl](4-methylphenyl)amino]-, methanesulfonate (1:1)", "Phenol, m-[N-(2-imidazolin-2-ylmethyl)-p-toluidino]-, monomethanesulfonate (salt)", "Phenol, 3-[[(4,5-dihydro-1H-imidazol-2-yl)methyl](4-methylphenyl)amino]-, monomethanesulfonate (salt)", "m-[N-(2-Imidazolin-2-ylmethyl)-p-toluidino]phenol methanesulfonate", "Phentolamine mesylate", "Phentolamine methanesulfonate", "Regitine methanesulfonate", "Regitin methanesulphonate", "Phentolamine methanesulphonate", "Regitine mesylate", "Vasomax", "Rogitine"], "SMILES": "N(CC=1NCCN1)(C2=CC(O)=CC=C2)C3=CC=C(C)C=C3.S(C)(=O)(=O)O", "physical_data": {"Molecular Weight": "", "Molecular Formula": "C17H19N3O.CH4O3S", "Melting Point": "177-181 \u00b0C"}}