{"cas_no": "65-22-5", "cn_name": "\u5421\u54c6\u919b\u76d0\u9178\u76d0", "en_name": ["Pyridoxal, hydrochloride", "4-Pyridinecarboxaldehyde, 3-hydroxy-5-(hydroxymethyl)-2-methyl-, hydrochloride (1:1)", "Pyridoxal, hydrochloride", "4-Pyridinecarboxaldehyde, 3-hydroxy-5-(hydroxymethyl)-2-methyl-, hydrochloride", "2-Methyl-3-hydroxy-4-formyl-5-hydroxymethylpyridine hydrochloride", "3-Hydroxy-5-hydroxymethyl-2-methylisonicotinaldehyde hydrochloride", "3-Hydroxy-5-(hydroxymethyl)-2-methyl-4-pyridinecarboxaldehyde hydrochloride", "3-Hydroxy-5-(hydroxymethyl)-2-methylpyridine-4-carbaldehyde hydrochloride"], "SMILES": "C(=O)C=1C(CO)=CN=C(C)C1O.Cl", "physical_data": {"Molecular Weight": "", "Molecular Formula": "C8H9NO3.ClH", "Melting Point": "165 \u00b0C"}}