{"cas_no": "65-29-2", "cn_name": "\u52a0\u62c9\u7898\u94f5", "en_name": ["Gallamine triethiodide", "Ethanaminium, 2,2\u2032,2\u2032\u2032-[1,2,3-benzenetriyltris(oxy)]tris[N,N,N-triethyl-, iodide (1:3)", "[v-Phenenyltris(oxyethylene)]tris[triethylammonium iodide]", "Ammonium, [v-phenenyltris(oxyethylene)]tris[triethyl-, triiodide", "Ethanaminium, 2,2\u2032,2\u2032\u2032-[1,2,3-benzenetriyltris(oxy)]tris[N,N,N-triethyl-, triiodide", "F 2559", "3697 RP", "RP 3697", "Benzcurine iodide", "Flacedil", "Flaxedil", "Fourneau 2559", "Gallamine iodide", "Gallamine triethiodide", "Gallamine triiodoethylate", "Gallamin triethiodide", "Pyrogallol 1,2,3-(diethylaminoethyl ether) tris(ethyliodide)", "Relaxan", "Remyolan", "Retensin", "Sincurarine", "Syncurarine", "1,2,3-Tri(\u03b2-diethylaminoethoxy)benzene triethiodide", "Tri(\u03b2-diethylaminoethoxy)-1,2,3-benzene tri-iodoethylate", "Tri(diethylaminoethoxy)-1,2,3-benzene triiodoethylate", "1,2,3-Tris(diethylaminoethoxy)benzene triethiodide", "1,2,3-Tris(2-diethylaminoethoxy)benzene triethiodide", "1,2,3-Tris(2-diethylaminoethoxy)benzene tris(ethyliodide)", "1,2,3-Tris(2-triethylammonium ethoxy)benzene triiodide", "Flaxedil iodide", "Gallaflex", "HL 8583", "Miowas G", "Parexyl", "Pyrolaxon", "Gallamone triethiodide", "MeSH ID: D005703"], "SMILES": "O(CC[N+](CC)(CC)CC)C1=C(OCC[N+](CC)(CC)CC)C=CC=C1OCC[N+](CC)(CC)CC.[I-]", "physical_data": {"Molecular Weight": "", "Molecular Formula": "C30H60N3O3.3I", "Melting Point": "147.5 \u00b0C"}}