{"cas_no": "65-23-6", "cn_name": "\u5421\u54c6\u9187", "en_name": ["Pyridoxine", "3,4-Pyridinedimethanol, 5-hydroxy-6-methyl-", "Pyridoxol", "5-Hydroxy-6-methyl-3,4-pyridinedimethanol", "2-Methyl-4,5-bis(hydroxymethyl)-3-hydroxypyridine", "2-Methyl-3-hydroxy-4,5-di(hydroxymethyl)pyridine", "Pyridoxin", "Pyridoxine", "Adermin", "Bezatin", "Pirivitol", "3-Hydroxy-4,5-bis(hydroxymethyl)-2-methylpyridine", "MeSH ID: D011736"], "SMILES": "C(O)C=1C(CO)=CN=C(C)C1O", "physical_data": {"Molecular Weight": "169.18", "Molecular Formula": "C8H11NO3", "Melting Point": "159-162 \u00b0C"}}