{"cas_no": "65-46-3", "cn_name": "\u80de\u82f7", "en_name": ["Cytidine", "Cytidine", "Cytosine, 1-\u03b2-D-ribosyl-", "Cytosine riboside", "1-\u03b2-D-Ribofuranosylcytosine", "\u03b2-D-Ribofuranoside, cytosine-1", "1-(\u03b2-D-Ribofuranosyl)-2-oxo-4-amino-1,2-dihydro-1,3-diazine", "2(1H)-Pyrimidinone, 4-amino-1-\u03b2-D-ribofuranosyl-", "4-Amino-1-\u03b2-D-ribofuranosyl-2(1H)-pyrimidinone", "NSC 20258", "\u03b2-D-Cytidine", "1-((2R,3R,4S,5R)-3,4-Dihydroxy-5-(hydroxymethyl)tetrahydrofuran-2-yl)-4-(amino)pyrimidin-2(1H)-one", "MeSH ID: D003562"], "SMILES": "OC1C(OC(CO)C1O)N2C(=O)N=C(N)C=C2", "physical_data": {"Molecular Weight": "243.22", "Molecular Formula": "C9H13N3O5", "Melting Point": "230.5 \u00b0C (decomp)"}}