{"cas_no": "65-49-6", "cn_name": "4-\u6c28\u57fa\u6c34\u6768\u9178", "en_name": ["4-Aminosalicylic acid", "Benzoic acid, 4-amino-2-hydroxy-", "Salicylic acid, 4-amino-", "4-Amino-2-hydroxybenzoic acid", "Apacil", "Apas", "Deapasil", "Pamacyl", "Para-Pas", "Parasal", "Parasalicil", "Parasalindon", "PAS (acid)", "Pasara", "Pasem", "Pasmed", "Pasnodia", "Propasa", "Rezipas", "PASK", "2-Hydroxy-4-aminobenzoic acid", "Para-aminosalicylic acid", "Pasolac", "Sanipirol-4", "3-Hydroxy-4-carboxyaniline", "Paramycin", "Gabbropas", "Amino-PAS", "Osacyl", "Pasalon", "Entepas", "Pasa", "PAS", "p-Aminosalicylic acid", "4-Aminosalicylic acid", "4-ASA", "4-Carboxy-3-hydroxyaniline", "Pamisyl", "NSC 2083", "NSC 211698", "Monopass", "Paser", "Euteropas", "Granupas"], "SMILES": "C(O)(=O)C1=C(O)C=C(N)C=C1", "physical_data": {"Molecular Weight": "153.14", "Molecular Formula": "C7H7NO3", "Melting Point": "150.5 \u00b0C (decomp)"}}