{"cas_no": "65-45-2", "cn_name": "\u6c34\u6768\u9170\u80fa", "en_name": ["Salicylamide", "Benzamide, 2-hydroxy-", "Salicylamide", "2-Hydroxybenzamide", "Acket", "Afko-Sal", "Algamon", "Algiamida", "Amidosal", "Amid-Sal", "Anamid", "Benesal", "Dropsprin", "o-Hydroxybenzamide", "Liquiprin", "Novecyl", "OHB", "Oramid", "Panithal", "Raspberin", "Salamide", "Saliamin", "Salicim", "Salipur", "Salizell", "Salrin", "Salymid", "Urtosal", "Salicylic acid amide", "Saliamid", "Cymidon", "Morsarinas", "Cetamide", "Allevin", "Serramida", "2-Carbamoylphenol", "2-Carboxamidophenol", "SR 4326", "Salamid", "Samid", "Cidal", "NSC 3115", "NSC 83150"], "SMILES": "C(N)(=O)C1=C(O)C=CC=C1", "physical_data": {"Molecular Weight": "137.14", "Molecular Formula": "C7H7NO2", "Boiling Point": "181.5 \u00b0C @ Press: 14 Torr", "Melting Point": "140 \u00b0C", "Density": "1.175 g/cm\u00b3 @ Temp: 140 \u00b0C"}}