{"cas_no": "65-71-4", "cn_name": "\u80f8\u817a\u5627\u5576", "en_name": ["Thymine", "2,4(1H,3H)-Pyrimidinedione, 5-methyl-", "Thymine", "5-Methyl-2,4(1H,3H)-pyrimidinedione", "2,4-Dihydroxy-5-methylpyrimidine", "5-Methyluracil", "5-Methyl-2,4-dihydroxypyrimidine", "5-Methylpyrimidine-2,4-dione", "5-Methyl-1,2,3,4-tetrahydropyrimidine-2,4-dione", "NSC 14705", "NSC 168663", "4-Hydroxy-5-methylpyrimidin-2(1H)-one", "2-Hydroxy-5-methyl-3,4-dihydropyrimidin-4-one", "2-Hydroxy-5-methyl-1,4-dihydropyrimidin-4-one", "MeSH ID: D013941"], "SMILES": "O=C1C(C)=CNC(=O)N1", "physical_data": {"Molecular Weight": "126.11", "Molecular Formula": "C5H6N2O2", "Melting Point": "316 \u00b0C"}}