{"cas_no": "65-85-0", "cn_name": "\u82ef\u7532\u9178", "en_name": ["Benzoic acid", "Benzoic acid", "Benzenecarboxylic acid", "Carboxybenzene", "Dracylic acid", "Phenylformic acid", "Retarder BA", "Retardex", "Tenn-Plas", "Benzeneformic acid", "Benzenemethanoic acid", "Salvo liquid", "Solvo powder", "Phenylcarboxylic acid", "HA 1", "E 210", "HA 1 (acid)", "NSC 149", "MENNO-Florades", "Purox B", "VevoVitall", "MeSH ID: D019817"], "SMILES": "C(O)(=O)C1=CC=CC=C1", "physical_data": {"Molecular Weight": "122.12", "Molecular Formula": "C7H6O2", "Boiling Point": "249.2 \u00b0C @ Press: 760 Torr", "Melting Point": "122.4 \u00b0C", "Density": "1.2659 g/cm\u00b3 @ Temp: 15 \u00b0C"}}