{"cas_no": "65-86-1", "cn_name": "\u4e73\u6e05\u9178", "en_name": ["Orotic acid", "4-Pyrimidinecarboxylic acid, 1,2,3,6-tetrahydro-2,6-dioxo-", "Orotic acid", "1,2,3,6-Tetrahydro-2,6-dioxo-4-pyrimidinecarboxylic acid", "Animal galactose factor", "6-Carboxyuracil", "6-Uracilcarboxylic acid", "Whey factor", "2,6-Dihydroxy-4-pyrimidinecarboxylic acid", "Oroturic", "Orotyl", "Orodin", "Orotonin", "2,6-Dioxo-1,2,3,6-tetrahydropyrimidine-4-carboxylic acid", "NSC 79560", "NSC 9791", "Vitamin B13", "2,4-Dihydroxypyrimidine-6-carboxylic acid", "2,4-Dioxo-1H-pyrimidine-6-carboxylic acid", "2-Hydroxy-6-oxo-1,6-dihydropyrimidine-4-carboxylic acid", "MeSH ID: D009963"], "SMILES": "C(O)(=O)C1=CC(=O)NC(=O)N1", "physical_data": {"Molecular Weight": "156.10", "Molecular Formula": "C5H4N2O4", "Melting Point": "345-346 \u00b0C"}}