{"cas_no": "65-82-7", "cn_name": "N-\u4e59\u9170-L-\u86cb\u6c28\u9178", "en_name": ["N-Acetyl-L-methionine", "L-Methionine, N-acetyl-", "Methionine, N-acetyl-, L-", "N-Acetyl-L-methionine", "Acetylmethionine", "Methionamine", "N-Acetylmethionine", "L-(N-Acetyl)methionine", "Acetyl-L-methionine", "Methionin", "Thiomedon", "(2S)-2-Acetamido-4-methylsulfanylbutanoic acid", "(2S)-2-Acetamido-4-(methylsulfanyl)butanoic acid", "(S)-2-Acetamido-4-(methylthio)butanoic acid"], "SMILES": "C(NC(C)=O)(C(O)=O)CCSC", "physical_data": {"Molecular Weight": "191.25", "Molecular Formula": "C7H13NO3S", "Boiling Point": "235 \u00b0C @ Press: 12 Torr", "Melting Point": "105.5 \u00b0C"}}