{"cas_no": "650-51-1", "cn_name": "\u4e09\u6c2f\u4e59\u9178\u94a0", "en_name": ["Sodium trichloroacetate", "Acetic acid, 2,2,2-trichloro-, sodium salt (1:1)", "Acetic acid, trichloro-, sodium salt", "Antyperz", "Sodium TCA", "Sodium trichloroacetate", "STCA", "Trichloroacetic acid sodium salt", "TCA sodium salt", "Varitox", "Antiperz", "NaTa", "TCAN", "Remazol Salt FD", "Drimarene Salt FD"], "SMILES": "C(C(O)=O)(Cl)(Cl)Cl.[Na]", "physical_data": {"Molecular Weight": "", "Molecular Formula": "C2HCl3O2.Na", "Melting Point": "165-200 \u00b0C (decomp)", "Density": "0.9 g/cm\u00b3"}}