{"cas_no": "65002-17-7", "cn_name": "\u5e03\u897f\u62c9\u660e", "en_name": ["Bucillamine", "L-Cysteine, N-(2-mercapto-2-methyl-1-oxopropyl)-", "N-(2-Mercapto-2-methyl-1-oxopropyl)-L-cysteine", "SA 96", "N-(2-Mercapto-2-methylpropanoyl)-L-cysteine", "N-(2-Mercapto-2-methylpropionyl)-L-cysteine", "Thiobutarit", "N-(2-Mercaptoisobutyryl)cysteine", "Bucillamine", "Tiobutarit", "Rimatil", "DE 019", "(2R)-2-(2-Methyl-2-sulfanylpropanamido)-3-sulfanylpropanoic acid", "(R)-3-Mercapto-2-(2-mercapto-2-methylpropanamido)propanoic acid"], "SMILES": "C(NC(C(C)(C)S)=O)(C(O)=O)CS", "physical_data": {"Molecular Weight": "223.31", "Molecular Formula": "C7H13NO3S2", "Melting Point": "139-140 \u00b0C"}}