{"cas_no": "65001-80-1", "cn_name": "2,4-\u4e8c\u6c2f-5-\u6eb4\u785d\u57fa\u82ef", "en_name": ["1-Bromo-2,4-dichloro-5-nitrobenzene", "Benzene, 1-bromo-2,4-dichloro-5-nitro-", "1-Bromo-2,4-dichloro-5-nitrobenzene"], "SMILES": "N(=O)(=O)C1=C(Cl)C=C(Cl)C(Br)=C1", "physical_data": {"Molecular Weight": "270.90", "Molecular Formula": "C6H2BrCl2NO2", "Melting Point": "69 \u00b0C"}}