{"cas_no": "65001-79-8", "cn_name": "5-\u6c2f-4-\u6c1f-2-\u785d\u57fa\u82ef\u915a", "en_name": ["Phenol, 5-chloro-4-fluoro-2-nitro-", "Phenol, 5-chloro-4-fluoro-2-nitro-", "5-Chloro-4-fluoro-2-nitrophenol"], "SMILES": "N(=O)(=O)C1=C(O)C=C(Cl)C(F)=C1", "physical_data": {"Molecular Weight": "191.54", "Molecular Formula": "C6H3ClFNO3", "Melting Point": "82-83 \u00b0C"}}