{"cas_no": "65039-08-9", "cn_name": "1-\u4e59\u57fa-3-\u7532\u57fa\u54aa\u5511\u6eb4\u76d0", "en_name": ["1-Ethyl-3-methylimidazolium bromide", "1H-Imidazolium, 3-ethyl-1-methyl-, bromide (1:1)", "1H-Imidazolium, 1-ethyl-3-methyl-, bromide", "1-Ethyl-3-methylimidazolium bromide", "1-Methyl-3-ethylimidazolium bromide", "1-Ethyl-3-methyl-1H-imidazolium bromide", "3-Ethyl-1-methyl-3H-imidazol-1-ium bromide", "3-Ethyl-1-methylimidazolium bromide", "1-Ethyl-3-methylmidazolium bromide", "[C2Mim+][Br-]", "1-Ethyl-3-methyl-1H-imidazol-3-ium bromide"], "SMILES": "C(C)[N+]1=CN(C)C=C1.[Br-]", "physical_data": {"Molecular Weight": "", "Molecular Formula": "C6H11N2.Br", "Melting Point": "76.9 \u00b0C"}}