{"cas_no": "65039-09-0", "cn_name": "\u6c2f\u5316 1-\u4e59\u57fa-3-\u7532\u57fa\u54aa\u5511", "en_name": ["1-Ethyl-3-methylimidazolium chloride", "1H-Imidazolium, 3-ethyl-1-methyl-, chloride (1:1)", "1H-Imidazolium, 1-ethyl-3-methyl-, chloride", "1-Methyl-3-ethylimidazolium chloride", "1-Ethyl-3-methylimidazolium chloride", "3-Ethyl-1-methylimidazolium chloride", "1-Methyl-3-ethylimidazolinium chloride", "1-Ethyl-3-methyl-1H-imidazolium chloride", "N-Methyl-N\u2032-ethylimidazolium chloride", "EMZ-C 1", "EMIMCl", "Basionics ST 80", "[C2Mim+][Cl-]", "IoLiLyt 0093", "1-Ethyl-3-methyl-1H-imidazol-3-ium chloride"], "SMILES": "C(C)[N+]1=CN(C)C=C1.[Cl-]", "physical_data": {"Molecular Weight": "", "Molecular Formula": "C6H11N2.Cl", "Melting Point": "87 \u00b0C", "Density": "1.435 g/cm\u00b3"}}