{"cas_no": "65043-22-3", "cn_name": "\u76d0\u9178\u831a\u6d1b\u79e6", "en_name": ["Indeloxazine hydrochloride", "Morpholine, 2-[(1H-inden-7-yloxy)methyl]-, hydrochloride (1:1)", "Morpholine, 2-[(1H-inden-7-yloxy)methyl]-, hydrochloride", "YM 08054-1", "YM 08054", "Indeloxazine hydrochloride", "Elen", "Noin", "CI 874"], "SMILES": "O(CC1CNCCO1)C2=C3C(C=CC3)=CC=C2.Cl", "physical_data": {"Molecular Weight": "", "Molecular Formula": "C14H17NO2.ClH", "Melting Point": "155-156 \u00b0C"}}