{"cas_no": "6506-37-2", "cn_name": "\u5c3c\u83ab\u62c9\u5511", "en_name": ["Nimorazole", "Morpholine, 4-[2-(5-nitro-1H-imidazol-1-yl)ethyl]-", "Morpholine, 4-[2-(5-nitroimidazol-1-yl)ethyl]-", "4-[2-(5-Nitro-1H-imidazol-1-yl)ethyl]morpholine", "1-(\u03b2-Morpholinoethyl)-5-nitroimidazole", "Nitrimidazine", "Nimorazole", "4-[2-(5-Nitroimidazol-1-yl)ethyl]morpholine", "Naxogin", "K-1900", "Nimorazol", "Naxofem", "Nulogyl", "Acterol", "Esclama", "NSC 107524", "1-(Morpholinoethyl)-5-nitroimidazole"], "SMILES": "C(CN1CCOCC1)N2C(N(=O)=O)=CN=C2", "physical_data": {"Molecular Weight": "226.23", "Molecular Formula": "C9H14N4O3", "Melting Point": "110-111 \u00b0C"}}