{"cas_no": "650638-17-8", "cn_name": "3-\u80bc\u57fa\u5421\u5576\u76d0\u9178\u76d0", "en_name": ["Pyridine, 3-hydrazinyl-, hydrochloride (1:1)", "Pyridine, 3-hydrazinyl-, hydrochloride (1:1)", "Pyridine, 3-hydrazino-, monohydrochloride", "3-[Hydrazino]pyridine hydrochloride", "3-(Hydrazinyl)pyridine hydrochloride"], "SMILES": "N(N)C=1C=CC=NC1.Cl", "physical_data": {"Molecular Weight": "", "Molecular Formula": "C5H7N3.ClH", "Melting Point": "181-183 \u00b0C"}}