{"cas_no": "65078-77-5", "cn_name": "2,3-\u4e8c\u6c2f-6-\u785d\u57fa\u82ef\u80fa", "en_name": ["2,3-Dichloro-6-nitrobenzenamine", "Benzenamine, 2,3-dichloro-6-nitro-", "2,3-Dichloro-6-nitrobenzenamine", "2,3-Dichloro-6-nitroaniline"], "SMILES": "N(=O)(=O)C1=C(N)C(Cl)=C(Cl)C=C1", "physical_data": {"Molecular Weight": "207.01", "Molecular Formula": "C6H4Cl2N2O2", "Melting Point": "166.7 \u00b0C"}}