{"cas_no": "65079-19-8", "cn_name": "6-\u6c28\u57fa-2-\u7532\u57fa\u55b9\u5549", "en_name": ["6-Amino-2-methylquinoline", "6-Quinolinamine, 2-methyl-", "Quinaldine, 6-amino-", "2-Methyl-6-quinolinamine", "2-Methyl-6-aminoquinoline", "6-Aminoquinaldine", "6-Amino-2-methylquinoline", "2-Methylquinolin-6-amine", "(2-Methylquinolin-6-yl)amine"], "SMILES": "NC1=CC2=C(N=C(C)C=C2)C=C1", "physical_data": {"Molecular Weight": "158.20", "Molecular Formula": "C10H10N2", "Melting Point": "185-187 \u00b0C"}}