{"cas_no": "6508-04-9", "cn_name": "\u53cc(4-\u6c30\u82ef\u57fa)\u919a", "en_name": ["4,4\u2032-Oxybis[benzonitrile]", "Benzonitrile, 4,4\u2032-oxybis-", "Benzonitrile, 4,4\u2032-oxydi-", "4,4\u2032-Oxybis[benzonitrile]", "4,4\u2032-Dicyanodiphenyl ether", "4,4\u2032-Oxydi[benzonitrile]", "Bis(4-cyanophenyl) ether", "NSC 87869"], "SMILES": "O(C1=CC=C(C#N)C=C1)C2=CC=C(C#N)C=C2", "physical_data": {"Molecular Weight": "220.23", "Molecular Formula": "C14H8N2O", "Boiling Point": "220 \u00b0C @ Press: 1 Torr", "Melting Point": "176-178 \u00b0C"}}