{"cas_no": "651-06-9", "cn_name": "\u78fa\u80fa\u5bf9\u7532\u6c27\u5627\u5576", "en_name": ["Sulfamethoxydiazine", "Benzenesulfonamide, 4-amino-N-(5-methoxy-2-pyrimidinyl)-", "Sulfanilamide, N1-(5-methoxy-2-pyrimidinyl)-", "4-Amino-N-(5-methoxy-2-pyrimidinyl)benzenesulfonamide", "AHR 857", "BAY 5400", "2-(4-Aminobenzenesulfonamido)-5-methoxypyrimidine", "Bayrena", "Durenat", "Kiron", "Methoxypyrimal", "N1-(5-Methoxy-2-pyrimidinyl)sulfanilamide", "5-Methoxy-2-sulfanilamidopyrimidine", "Sulfameter", "Sulfamethoxine", "Sulfamethoxydiazine", "Sulfamethoxydin", "Sulfamethoxypyrimidine", "Sulfametin", "2-Sulfanilamido-5-methoxypyrimidine", "Sulla", "Sulphamethoxydiazine", "Sulphameter", "Longasulf", "SH 613", "Berlicid", "Kirocid", "Ultrax", "2-Sulfa-5-methoxypyrimidine", "Sulfametoxydiazine", "I 2586", "Kinecid", "Sulfametorine", "5-Methoxysulfadiazine", "NSC 683528", "N-(5-Methoxypyrimidin-2-yl)-4-aminobenzenesulfonamide"], "SMILES": "S(NC=1N=CC(OC)=CN1)(=O)(=O)C2=CC=C(N)C=C2", "physical_data": {"Molecular Weight": "280.30", "Molecular Formula": "C11H12N4O3S", "Melting Point": "214-216 \u00b0C"}}