{"cas_no": "65148-10-9", "cn_name": "6-\u6eb4-2-\u55b9\u5549\u7532\u9178", "en_name": ["6-Bromo-2-quinolinecarboxylic acid", "2-Quinolinecarboxylic acid, 6-bromo-", "6-Bromo-2-quinolinecarboxylic acid", "6-Bromoquinaldic acid", "6-Bromoquinoline-2-carboxylic acid"], "SMILES": "C(O)(=O)C1=NC2=C(C=C(Br)C=C2)C=C1", "physical_data": {"Molecular Weight": "252.06", "Molecular Formula": "C10H6BrNO2", "Melting Point": "226 \u00b0C"}}