{"cas_no": "65146-54-5", "cn_name": "2-\u6c28\u57fa-1-(2,4-\u4e8c\u6c2f\u82ef\u57fa)\u4e59\u916e\u76d0\u9178\u76d0", "en_name": ["Ethanone, 2-amino-1-(2,4-dichlorophenyl)-, hydrochloride (1:1)", "Ethanone, 2-amino-1-(2,4-dichlorophenyl)-, hydrochloride (1:1)", "Ethanone, 2-amino-1-(2,4-dichlorophenyl)-, hydrochloride", "2-Amino-2\u2032,4\u2032-dichloroacetophenone hydrochloride", "2-Amino-1-(2,4-dichlorophenyl)ethan-1-one hydrochloride"], "SMILES": "C(CN)(=O)C1=C(Cl)C=C(Cl)C=C1.Cl", "physical_data": {"Molecular Weight": "", "Molecular Formula": "C8H7Cl2NO.ClH", "Melting Point": "231.5-231.9 \u00b0C"}}