{"cas_no": "65141-46-0", "cn_name": "\u5c3c\u53ef\u5730\u5c14", "en_name": ["Nicorandil", "3-Pyridinecarboxamide, N-[2-(nitrooxy)ethyl]-", "N-[2-(Nitrooxy)ethyl]-3-pyridinecarboxamide", "N-(2-Hydroxyethyl)nicotinamide nitrate", "SG 75", "2-Nicotinamidoethyl nitrate", "Nicorandil", "N-(2-Nitrooxyethyl)nicotinamide", "N-(2-Hydroxyethyl)nicotinamide nitrate ester", "Sigmart", "U 64417", "Perisalol", "Ikorel", "Dancor", "Coronel", "2-[(Pyridin-3-yl)formamido]ethyl nitrate", "2-(Pyridine-3-carbonylamino)ethyl nitrate", "MeSH ID: D020108"], "SMILES": "C(NCCON(=O)=O)(=O)C=1C=CC=NC1", "physical_data": {"Molecular Weight": "211.17", "Molecular Formula": "C8H9N3O4", "Melting Point": "92.5 \u00b0C"}}