{"cas_no": "65145-13-3", "cn_name": "2-\u6c1f-4-\u7f9f\u57fa\u82ef\u7532\u9178", "en_name": ["2-Fluoro-4-hydroxybenzoic acid", "Benzoic acid, 2-fluoro-4-hydroxy-", "2-Fluoro-4-hydroxybenzoic acid", "4-Hydroxy-2-fluorobenzoic acid"], "SMILES": "C(O)(=O)C1=C(F)C=C(O)C=C1", "physical_data": {"Molecular Weight": "156.11", "Molecular Formula": "C7H5FO3", "Melting Point": "200-202 \u00b0C"}}