{"cas_no": "65145-14-4", "cn_name": "N,N-\u8054\u82c4\u57fa-4-\u6eb4\u82ef\u80fa", "en_name": ["N-(4-Bromophenyl)-N-(phenylmethyl)benzenemethanamine", "Benzenemethanamine, N-(4-bromophenyl)-N-(phenylmethyl)-", "Dibenzylamine, N-(p-bromophenyl)-", "N-(4-Bromophenyl)-N-(phenylmethyl)benzenemethanamine", "4-Bromo-N,N-dibenzylaniline", "N,N-Dibenzyl-4-bromoaniline", "N-(p-Bromophenyl)dibenzylamine", "NSC 142300", "N,N-Dibenzyl-4-bromobenzenamine"], "SMILES": "N(CC1=CC=CC=C1)(CC2=CC=CC=C2)C3=CC=C(Br)C=C3", "physical_data": {"Molecular Weight": "352.27", "Molecular Formula": "C20H18BrN", "Melting Point": "125 \u00b0C"}}