{"cas_no": "6515-38-4", "cn_name": "3,5,6-\u4e09\u6c2f\u5421\u5576-2-\u9187", "en_name": ["3,5,6-Trichloro-2-pyridinol", "2(1H)-Pyridinone, 3,5,6-trichloro-", "2(1H)-Pyridone, 3,5,6-trichloro-", "2-Pyridinol, 3,5,6-trichloro-", "3,5,6-Trichloro-2(1H)-pyridinone", "2-Hydroxy-3,5,6-trichloropyridine", "3,5,6-Trichloro-2-hydroxypyridine", "3,5,6-Trichloro-2-pyridinol", "3,5,6-Trichloropyridine-2-ol", "2,3,5-Trichloro-6-hydroxypyridine", "TCP", "2-Hydroxyl-3,5,6-trichloropyridine", "3,5,6-Trichloro-1H-pyridin-2-one"], "SMILES": "ClC1=C(Cl)NC(=O)C(Cl)=C1", "physical_data": {"Molecular Weight": "198.43", "Molecular Formula": "C5H2Cl3NO", "Melting Point": "174-175 \u00b0C"}}