{"cas_no": "6515-09-9", "cn_name": "2,3,6-\u4e09\u6c2f\u5421\u5576", "en_name": ["2,3,6-Trichloropyridine", "Pyridine, 2,3,6-trichloro-", "2,3,6-Trichloropyridine", "2,5,6-Trichloropyridine"], "SMILES": "ClC1=C(Cl)C=CC(Cl)=N1", "physical_data": {"Molecular Weight": "182.44", "Molecular Formula": "C5H2Cl3N", "Melting Point": "66-67 \u00b0C"}}