{"cas_no": "6515-37-3", "cn_name": "4'-\u7f9f\u57fa\u9ec4\u70f7\u916e", "en_name": ["4\u2032-Hydroxyflavanone", "4H-1-Benzopyran-4-one, 2,3-dihydro-2-(4-hydroxyphenyl)-", "Flavanone, 4\u2032-hydroxy-", "2,3-Dihydro-2-(4-hydroxyphenyl)-4H-1-benzopyran-4-one", "4\u2032-Hydroxyflavanone", "(\u00b1)-4\u2032-Hydroxyflavanone", "STX 310", "2-(4-Hydroxyphenyl)chroman-4-one", "2-(4-Hydroxyphenyl)-3,4-dihydro-2H-1-benzopyran-4-one", "2-(4-Hydroxyphenyl)-2,3-dihydrochromen-4-one"], "SMILES": "O=C1CC(OC=2C1=CC=CC2)C3=CC=C(O)C=C3", "physical_data": {"Molecular Weight": "240.25", "Molecular Formula": "C15H12O3", "Melting Point": "191 \u00b0C"}}