{"cas_no": "6515-36-2", "cn_name": "7-\u7f9f\u57fa\u9ec4\u70f7\u916e", "en_name": ["7-Hydroxyflavanone", "4H-1-Benzopyran-4-one, 2,3-dihydro-7-hydroxy-2-phenyl-", "Flavanone, 7-hydroxy-", "2,3-Dihydro-7-hydroxy-2-phenyl-4H-1-benzopyran-4-one", "7-Hydroxyflavanone", "7-Hydroxy-2-phenylchroman-4-one"], "SMILES": "O=C1C=2C(OC(C1)C3=CC=CC=C3)=CC(O)=CC2", "physical_data": {"Molecular Weight": "240.25", "Molecular Formula": "C15H12O3", "Melting Point": "189 \u00b0C"}}