{"cas_no": "65169-64-4", "cn_name": "2-\u6c28\u57fa-6-\u7532\u57fa\u5421\u5576-4-\u7fa7\u9178", "en_name": ["2-Amino-6-methyl-4-pyridinecarboxylic acid", "4-Pyridinecarboxylic acid, 2-amino-6-methyl-", "2-Amino-6-methyl-4-pyridinecarboxylic acid", "2-Amino-6-methylisonicotinic acid"], "SMILES": "C(O)(=O)C=1C=C(C)N=C(N)C1", "physical_data": {"Molecular Weight": "152.15", "Molecular Formula": "C7H8N2O2", "Melting Point": "250 \u00b0C"}}