{"cas_no": "65169-38-2", "cn_name": "2-\u6c2f-3-\u6c30\u57fa-4-\u7532\u57fa\u5421\u5576", "en_name": ["2-Chloro-4-methyl-3-pyridinecarbonitrile", "3-Pyridinecarbonitrile, 2-chloro-4-methyl-", "2-Chloro-4-methyl-3-pyridinecarbonitrile", "2-Chloro-4-methylnicotinotrile", "4-Methyl-2-chloronicotinonitrile", "2-Chloro-3-cyano-4-methylpyridine", "2-Chloro-4-methyl-nicotinonitrile"], "SMILES": "C(#N)C=1C(C)=CC=NC1Cl", "physical_data": {"Molecular Weight": "152.58", "Molecular Formula": "C7H5ClN2", "Melting Point": "105-108 \u00b0C"}}