{"cas_no": "65182-98-1", "cn_name": "N-2,4-\u4e8c\u6c2f-5-\u7532\u6c27\u57fa\u4e59\u9170\u82ef\u80fa", "en_name": ["N-(2,4-Dichloro-5-methoxyphenyl)acetamide", "Acetamide, N-(2,4-dichloro-5-methoxyphenyl)-", "m-Acetanisidide, 4\u2032,6\u2032-dichloro-", "N-(2,4-Dichloro-5-methoxyphenyl)acetamide"], "SMILES": "N(C(C)=O)C1=CC(OC)=C(Cl)C=C1Cl", "physical_data": {"Molecular Weight": "234.08", "Molecular Formula": "C9H9Cl2NO2", "Melting Point": "154 \u00b0C"}}