{"cas_no": "65182-56-1", "cn_name": "3-\u6c28\u57fa-2-\u6c2f-6-\u4e09\u6c1f\u7532\u57fa\u5421\u5576", "en_name": ["2-(1,8-Naphthyridin-2-yl)phenol", "Phenol, 2-(1,8-naphthyridin-2-yl)-", "2-(1,8-Naphthyridin-2-yl)phenol", "2-(o-Hydroxyphenyl)-1,8-naphthyridine", "2-(2-Hydroxyphenyl)-1,8-naphthyridine"], "SMILES": "OC1=C(C2=NC3=C(C=C2)C=CC=N3)C=CC=C1", "physical_data": {"Molecular Weight": "222.24", "Molecular Formula": "C14H10N2O", "Melting Point": "188 \u00b0C"}}