{"cas_no": "6519-27-3", "cn_name": "\u62c9\u5179\u9a6c\u5b81\u78b1", "en_name": ["Isositsirikine", "Indolo[2,3-a]quinolizine-2-acetic acid, 3-ethylidene-1,2,3,4,6,7,12,12b-octahydro-\u03b1-(hydroxymethyl)-, methyl ester, (\u03b1R,2R,3E,12bS)-", "17,18-Secoyohimban-16-carboxylic acid, 19,20-didehydro-17-hydroxy-, methyl ester, (16R,19E)-", "Isositsirikine", "Corynan-16-carboxylic acid, 19,20-didehydro-17-hydroxy-, methyl ester, (16R,19E)-", "16R-Isositsirikine", "(16R)-E-Isositsirikine", "Indolo[2,3-a]quinolizine-2-acetic acid, 3-ethylidene-1,2,3,4,6,7,12,12b-octahydro-\u03b1-(hydroxymethyl)-, methyl ester, [2R-[2\u03b1(R*),3E,12b\u03b2]]-", "Bhimberine", "Rhazimanine", "16(R)-E-Isositsirikine", "NSC 282700", "NSC 338932", "16R,19E-Isositsirikine"], "SMILES": "C(C(OC)=O)(CO)C1CC2C3=C(C=4C(N3)=CC=CC4)CCN2CC1=CC", "physical_data": {"Molecular Weight": "354.44", "Molecular Formula": "C21H26N2O3", "Melting Point": "263.5 \u00b0C"}}