{"cas_no": "6519-67-1", "cn_name": "DL-\u8272\u6c28\u9178\u4e59\u916f\u76d0\u9178\u76d0", "en_name": ["Tryptophan, ethyl ester, hydrochloride (1:1)", "Tryptophan, ethyl ester, hydrochloride (1:1)", "Tryptophan, ethyl ester, monohydrochloride, DL-", "DL-Tryptophan, ethyl ester, monohydrochloride", "Tryptophan, ethyl ester, monohydrochloride", "NSC 34499"], "SMILES": "C(C(C(OCC)=O)N)C=1C=2C(NC1)=CC=CC2.Cl", "physical_data": {"Molecular Weight": "", "Molecular Formula": "C13H16N2O2.ClH", "Melting Point": "233 \u00b0C (decomp)"}}