{"cas_no": "65195-20-2", "cn_name": "2-\u54cc\u5576\u57fa\u82ef\u915a", "en_name": ["2-(1-Piperidinyl)phenol", "Phenol, 2-(1-piperidinyl)-", "Phenol, o-piperidino-", "2-(1-Piperidinyl)phenol", "2-Piperidinophenol", "o-Piperidinophenol", "2-Piperidin-1-ylphenol"], "SMILES": "OC1=C(N2CCCCC2)C=CC=C1", "physical_data": {"Molecular Weight": "177.24", "Molecular Formula": "C11H15NO", "Boiling Point": "150-152 \u00b0C @ Press: 12 Torr", "Melting Point": "71-72 \u00b0C"}}