{"cas_no": "652-03-9", "cn_name": "3,4,5,6-\u56db\u6c1f\u90bb\u82ef\u4e8c\u7532\u9178", "en_name": ["Tetrafluorophthalic acid", "1,2-Benzenedicarboxylic acid, 3,4,5,6-tetrafluoro-", "Phthalic acid, tetrafluoro-", "3,4,5,6-Tetrafluoro-1,2-benzenedicarboxylic acid", "Tetrafluorophthalic acid", "3,4,5,6-Tetrafluorophthalic acid", "o-Tetrafluorobenzenedicarboxylic acid"], "SMILES": "C(O)(=O)C1=C(C(O)=O)C(F)=C(F)C(F)=C1F", "physical_data": {"Molecular Weight": "238.09", "Molecular Formula": "C8H2F4O4", "Melting Point": "163 \u00b0C"}}