{"cas_no": "652-31-3", "cn_name": "2,3,4,5,6-\u4e94\u6c1f\u82ef\u7532\u9170\u80fa", "en_name": ["2,3,4,5,6-Pentafluorobenzamide", "Benzamide, 2,3,4,5,6-pentafluoro-", "2,3,4,5,6-Pentafluorobenzamide", "Pentafluorobenzamide", "NSC 96889"], "SMILES": "C(N)(=O)C1=C(F)C(F)=C(F)C(F)=C1F", "physical_data": {"Molecular Weight": "211.09", "Molecular Formula": "C7H2F5NO", "Melting Point": "147 \u00b0C"}}