{"cas_no": "652-39-1", "cn_name": "3-\u6c1f\u915e\u9150", "en_name": ["3-Fluorophthalic anhydride", "1,3-Isobenzofurandione, 4-fluoro-", "Phthalic anhydride, 3-fluoro-", "4-Fluoro-1,3-isobenzofurandione", "3-Fluorophthalic anhydride", "3-Fluorophthalic acid anhydride", "NSC 402996", "4-Fluoroisobenzofuran-1,3-dione"], "SMILES": "FC1=C2C(C(=O)OC2=O)=CC=C1", "physical_data": {"Molecular Weight": "166.11", "Molecular Formula": "C8H3FO3", "Boiling Point": "220-225 \u00b0C @ Press: 80 Torr", "Melting Point": "123-125 \u00b0C"}}