{"cas_no": "652-67-5", "cn_name": "\u5f02\u5c71\u68a8\u9187", "en_name": ["Isosorbide", "D-Glucitol, 1,4:3,6-dianhydro-", "Glucitol, 1,4:3,6-dianhydro-, D-", "Sorbitol, 1,4:3,6-dianhydro-", "1,4:3,6-Dianhydro-D-glucitol", "Furo[3,2-b]furan, D-glucitol deriv.", "AT 101", "Hydronol", "Isosorbide", "1,4:3,6-Dianhydro-D-sorbitol", "(+)-D-Isosorbide", "1,4:3,6-Dianhydrosorbitol", "Isobide", "Devicoran", "NSC 40725", "Ismotic", "Polysorb P", "Polysorb PS", "Addolink 0312", "Polysorb B", "Polysorb PB", "Isosorbitol", "Polysorb", "Polysorb PBA", "Novosorb P", "Novasorb", "Polysorb PS A", "I 0407", "Polysorb PA", "MeSH ID: D007547"], "SMILES": "OC1C2C(C(O)CO2)OC1", "physical_data": {"Molecular Weight": "146.14", "Molecular Formula": "C6H10O4", "Boiling Point": "160-165 \u00b0C @ Press: 10 Torr", "Melting Point": "61-64 \u00b0C", "Density": "1.3777 g/cm\u00b3 @ Temp: 25 \u00b0C"}}