{"cas_no": "652-12-0", "cn_name": "3,4,5,6-\u56db\u6c1f\u82ef\u9150", "en_name": ["Tetrafluorophthalic anhydride", "1,3-Isobenzofurandione, 4,5,6,7-tetrafluoro-", "Phthalic anhydride, tetrafluoro-", "4,5,6,7-Tetrafluoro-1,3-isobenzofurandione", "Tetrafluorophthalic anhydride", "3,4,5,6-Tetrafluorophthalic anhydride"], "SMILES": "FC1=C2C(=C(F)C(F)=C1F)C(=O)OC2=O", "physical_data": {"Molecular Weight": "220.08", "Molecular Formula": "C8F4O3", "Melting Point": "95 \u00b0C"}}