{"cas_no": "652-37-9", "cn_name": "\u8336\u78b1\u4e59\u9178", "en_name": ["Acefylline", "7H-Purine-7-acetic acid, 1,2,3,6-tetrahydro-1,3-dimethyl-2,6-dioxo-", "Purine-7-acetic acid, 1,2,3,6-tetrahydro-1,3-dimethyl-2,6-dioxo-", "1,2,3,6-Tetrahydro-1,3-dimethyl-2,6-dioxo-7H-purine-7-acetic acid", "7-Theophyllineacetic acid", "7-(Carboxymethyl)theophylline", "1,2,3,6-Tetrahydro-1,3-dimethyl-2,6-dioxopurine-7-acetic acid", "7-Theophyllinylacetic acid", "Theophyllineacetic acid", "Acefylline", "Acephylline", "N-7-Theophyllineacetic acid", "Carboxymethyltheophylline", "NSC 52996", "2-(1,3-Dimethyl-2,6-dioxo-2,3-dihydro-1H-purin-7(6H)-yl)acetic acid", "2-(1,3-Dimethyl-2,6-dioxo-2,3,6,7-tetrahydro-1H-purin-7-yl)acetic acid", "2-(1,3-Dimethyl-2,6-dioxopurin-7-yl)acetic acid", "2-(1,3-Dimethyl-2,6-dioxo-1,2,3,6-tetrahydro-7H-purin-7-yl)acetic acid"], "SMILES": "C(C(O)=O)N1C2=C(N(C)C(=O)N(C)C2=O)N=C1", "physical_data": {"Molecular Weight": "238.20", "Molecular Formula": "C9H10N4O4", "Melting Point": "271 \u00b0C"}}