{"cas_no": "652-78-8", "cn_name": "\u68c9\u7ea4\u7ef4\u7d20", "en_name": ["Gossypin", "4H-1-Benzopyran-4-one, 2-(3,4-dihydroxyphenyl)-8-(\u03b2-D-glucopyranosyloxy)-3,5,7-trihydroxy-", "Gossypin", "2-(3,4-Dihydroxyphenyl)-8-(\u03b2-D-glucopyranosyloxy)-3,5,7-trihydroxy-4H-1-benzopyran-4-one", "Gossypetin 8-glucoside"], "SMILES": "O(C1=C2C(C(=O)C(O)=C(O2)C3=CC(O)=C(O)C=C3)=C(O)C=C1O)C4OC(CO)C(O)C(O)C4O", "physical_data": {"Molecular Weight": "480.38", "Molecular Formula": "C21H20O13", "Melting Point": "230 \u00b0C (decomp)"}}