{"cas_no": "652-18-6", "cn_name": "2,3,5,6-\u56db\u6c1f\u82ef\u7532\u9178", "en_name": ["2,3,5,6-Tetrafluorobenzoic acid", "Benzoic acid, 2,3,5,6-tetrafluoro-", "2,3,5,6-Tetrafluorobenzoic acid"], "SMILES": "C(O)(=O)C1=C(F)C(F)=CC(F)=C1F", "physical_data": {"Molecular Weight": "194.08", "Molecular Formula": "C7H2F4O2", "Melting Point": "151 \u00b0C"}}