{"cas_no": "652-29-9", "cn_name": "2',3',4',5',6'-\u4e94\u6c1f\u82ef\u4e59\u916e", "en_name": ["1-(2,3,4,5,6-Pentafluorophenyl)ethanone", "Ethanone, 1-(2,3,4,5,6-pentafluorophenyl)-", "Acetophenone, 2\u2032,3\u2032,4\u2032,5\u2032,6\u2032-pentafluoro-", "Ethanone, 1-(pentafluorophenyl)-", "1-(2,3,4,5,6-Pentafluorophenyl)ethanone", "2\u2032,3\u2032,4\u2032,5\u2032,6\u2032-Pentafluoroacetophenone", "2,3,4,5,6-Pentafluoroacetophenone", "Pentafluoroacetophenone", "Pentafluorophenyl methyl ketone", "Acetylpentafluorobenzene", "Methyl pentafluorophenyl ketone", "1-Pentafluorophenylethanone", "1-(Pentafluorophenyl)ethan-1-one", "1-(Perfluorophenyl)ethan-1-one"], "SMILES": "C(C)(=O)C1=C(F)C(F)=C(F)C(F)=C1F", "physical_data": {"Molecular Weight": "210.10", "Molecular Formula": "C8H3F5O", "Boiling Point": "130-131 \u00b0C", "Melting Point": "130.5 \u00b0C"}}