{"cas_no": "652-36-8", "cn_name": "2,3,5,6-\u56db\u6c1f\u5bf9\u82ef\u4e8c\u7532\u9178", "en_name": ["2,3,5,6-Tetrafluoro-1,4-benzenedicarboxylic acid", "1,4-Benzenedicarboxylic acid, 2,3,5,6-tetrafluoro-", "Terephthalic acid, tetrafluoro-", "2,3,5,6-Tetrafluoro-1,4-benzenedicarboxylic acid", "Tetrafluoroterephthalic acid", "2,3,5,6-Tetrafluoroterephthalic acid", "NSC 96897", "2,3,5,6-Tetrafluorobenzene-1,4-dioic acid", "2,3,5,6-Tetrafluorobenzene-1,4-dicarboxylic acid", "Tetrafluoro-1,4-benzenedicarboxylic acid", "p-Tetrafluorobenzenedicarboxylic acid"], "SMILES": "C(O)(=O)C1=C(F)C(F)=C(C(O)=O)C(F)=C1F", "physical_data": {"Molecular Weight": "238.09", "Molecular Formula": "C8H2F4O4", "Melting Point": "276 \u00b0C (decomp)"}}