{"cas_no": "65202-51-9", "cn_name": "3-\u6eb4\u54d2\u55ea-6-\u7fa7\u9178", "en_name": ["6-Bromo-3-pyridazinecarboxylic acid", "3-Pyridazinecarboxylic acid, 6-bromo-", "6-Bromo-3-pyridazinecarboxylic acid", "3-Bromopyridazine-6-carboxylic acid", "6-Bromopyridazine-3-carboxylic acid"], "SMILES": "C(O)(=O)C1=CC=C(Br)N=N1", "physical_data": {"Molecular Weight": "202.99", "Molecular Formula": "C5H3BrN2O2", "Melting Point": "149-150 \u00b0C"}}