{"cas_no": "65201-77-6", "cn_name": "\u56db\u4e01\u57fa\u9ad8\u7898\u9178\u94f5", "en_name": ["Tetrabutylammonium periodate", "1-Butanaminium, N,N,N-tributyl-, periodate (1:1)", "1-Butanaminium, N,N,N-tributyl-, salt with periodic acid (HIO4) (1:1)", "Periodate (IO41-), N,N,N-tributyl-1-butanaminium", "Tetrabutylammonium periodate", "Tetrabutylammonium metaperiodate"], "SMILES": "[N+](CCCC)(CCCC)(CCCC)CCCC.I(=O)(=O)(=O)[O-]", "physical_data": {"Molecular Weight": "", "Molecular Formula": "C16H36N.IO4", "Melting Point": "193 \u00b0C (decomp)"}}