{"cas_no": "65202-52-0", "cn_name": "6-\u6eb4\u54d2\u55ea-3-\u7532\u9178\u7532\u916f", "en_name": ["3-Pyridazinecarboxylic acid, 6-bromo-, methyl ester", "3-Pyridazinecarboxylic acid, 6-bromo-, methyl ester", "Methyl 3-bromopyridazine-6-carboxylate", "Methyl 6-bromopyridazine-3-carboxylate"], "SMILES": "C(OC)(=O)C1=CC=C(Br)N=N1", "physical_data": {"Molecular Weight": "217.02", "Molecular Formula": "C6H5BrN2O2", "Melting Point": "159-160 \u00b0C"}}