{"cas_no": "6520-83-8", "cn_name": "2-\u7532\u6c27\u57fa-6-\u7532\u57fa\u82ef\u7532\u9178\u4e59\u916f", "en_name": ["Benzoic acid, 2-methoxy-6-methyl-, ethyl ester", "Benzoic acid, 2-methoxy-6-methyl-, ethyl ester", "o-Anisic acid, 6-methyl-, ethyl ester", "Ethyl 2-methoxy-6-methylbenzoate", "2-Methoxy-6-methylbenzoic acid ethyl ester"], "SMILES": "C(OCC)(=O)C1=C(OC)C=CC=C1C", "physical_data": {"Molecular Weight": "194.23", "Molecular Formula": "C11H14O3", "Boiling Point": "93-95 \u00b0C @ Press: 0.5 Torr"}}