{"cas_no": "65214-82-6", "cn_name": "4-\u7f9f\u57fa\u54cc\u5576-1-\u7532\u9178\u4e59\u916f", "en_name": ["1-Piperidinecarboxylic acid, 4-hydroxy-, ethyl ester", "1-Piperidinecarboxylic acid, 4-hydroxy-, ethyl ester", "Ethyl 4-hydroxy-1-piperidinecarboxylate", "NSC 71891", "4-Oxypiperidine-1-carboxylic acid ethyl ester", "1-(Ethoxycarbonyl)piperidin-4-ol"], "SMILES": "C(OCC)(=O)N1CCC(O)CC1", "physical_data": {"Molecular Weight": "173.21", "Molecular Formula": "C8H15NO3", "Boiling Point": "120-130 \u00b0C @ Press: 0.098 Torr", "Density": "1.1166 g/cm\u00b3 @ Temp: 20 \u00b0C"}}