{"cas_no": "6521-30-8", "cn_name": "\u5bf9\u7f9f\u57fa\u82ef\u7532\u9178\u5f02\u620a\u916f", "en_name": ["Isoamyl 4-hydroxybenzoate", "Benzoic acid, 4-hydroxy-, 3-methylbutyl ester", "Benzoic acid, p-hydroxy-, isopentyl ester", "Isopentyl alcohol, p-hydroxybenzoate", "p-Hydroxybenzoic acid isoamyl ester", "Isopentyl p-hydroxybenzoate", "Isoamyl 4-hydroxybenzoate", "4-Hydroxybenzoic acid isoamyl ester", "Isoamyl p-hydroxybenzoate"], "SMILES": "C(OCCC(C)C)(=O)C1=CC=C(O)C=C1", "physical_data": {"Molecular Weight": "208.25", "Molecular Formula": "C12H16O3", "Melting Point": "51 \u00b0C"}}