{"cas_no": "6521-29-5", "cn_name": "\u5bf9\u7f9f\u57fa\u82ef\u7532\u9178\u6b63\u620a\u916f", "en_name": ["Pentyl p-hydroxybenzoate", "Benzoic acid, 4-hydroxy-, pentyl ester", "Benzoic acid, p-hydroxy-, pentyl ester", "Pentyl 4-hydroxybenzoate", "Pentyl p-hydroxybenzoate", "Amyl p-hydroxybenzoate", "n-Amyl 4-hydroxybenzoate", "Pentyl paraben", "NSC 309817", "4-Hydroxybenzoic acid n-amyl ester"], "SMILES": "C(OCCCCC)(=O)C1=CC=C(O)C=C1", "physical_data": {"Molecular Weight": "208.25", "Molecular Formula": "C12H16O3", "Boiling Point": "165-167 \u00b0C @ Press: 1.5 Torr"}}