{"cas_no": "65232-57-7", "cn_name": "2-\u6eb4-1,3-\u4e8c\u4e59\u57fa\u82ef", "en_name": ["2-Bromo-1,3-diethylbenzene", "Benzene, 2-bromo-1,3-diethyl-", "2-Bromo-1,3-diethylbenzene", "1-Bromo-2,6-diethylbenzene", "2,6-Diethylphenyl bromide", "2,6-Diethyl-1-bromobenzene"], "SMILES": "C(C)C1=C(Br)C(CC)=CC=C1", "physical_data": {"Molecular Weight": "213.11", "Molecular Formula": "C10H13Br", "Boiling Point": "109-114 \u00b0C @ Press: 16 Torr", "Density": "1.264 g/cm\u00b3 @ Temp: 27 \u00b0C"}}