{"cas_no": "6526-72-3", "cn_name": "2-\u785d\u57fa\u67af\u70ef", "en_name": ["1-(1-Methylethyl)-2-nitrobenzene", "Benzene, 1-(1-methylethyl)-2-nitro-", "Cumene, o-nitro-", "1-(1-Methylethyl)-2-nitrobenzene", "o-Isopropylnitrobenzene", "o-Nitrocumene", "2-Nitroisopropylbenzene", "1-Isopropyl-2-nitrobenzene", "2-Isopropylnitrobenzene", "2-Isopropyl-1-nitrobenzene", "o-Nitroisopropylbenzene", "1-Nitro-2-propan-2-ylbenzene", "1-Nitro-2-(propan-2-yl)benzene"], "SMILES": "C(C)(C)C1=C(N(=O)=O)C=CC=C1", "physical_data": {"Molecular Weight": "165.19", "Molecular Formula": "C9H11NO2", "Boiling Point": "103 \u00b0C", "Melting Point": "-9.5 \u00b0C", "Density": "1.0848 g/cm\u00b3 @ Temp: 20 \u00b0C"}}