{"cas_no": "65262-96-6", "cn_name": "3-\u6c2f-5-\u7532\u6c27\u57fa\u82ef\u915a", "en_name": ["3-Chloro-5-methoxyphenol", "Phenol, 3-chloro-5-methoxy-", "3-Chloro-5-methoxyphenol"], "SMILES": "O(C)C1=CC(Cl)=CC(O)=C1", "physical_data": {"Molecular Weight": "158.58", "Molecular Formula": "C7H7ClO2", "Melting Point": "99 \u00b0C"}}