{"cas_no": "65277-42-1", "cn_name": "\u916e\u5eb7\u5511", "en_name": ["Ketoconazole", "Ethanone, 1-[4-[4-[[(2R,4S)-2-(2,4-dichlorophenyl)-2-(1H-imidazol-1-ylmethyl)-1,3-dioxolan-4-yl]methoxy]phenyl]-1-piperazinyl]-, rel-", "Piperazine, 1-acetyl-4-[4-[[2-(2,4-dichlorophenyl)-2-(1H-imidazol-1-ylmethyl)-1,3-dioxolan-4-yl]methoxy]phenyl]-, cis-", "Piperazine, 1-acetyl-4-[4-[[(2R,4S)-2-(2,4-dichlorophenyl)-2-(1H-imidazol-1-ylmethyl)-1,3-dioxolan-4-yl]methoxy]phenyl]-, rel-", "rel-1-[4-[4-[[(2R,4S)-2-(2,4-Dichlorophenyl)-2-(1H-imidazol-1-ylmethyl)-1,3-dioxolan-4-yl]methoxy]phenyl]-1-piperazinyl]ethanone", "Ketoconazole", "R 41400", "Nizoral", "(\u00b1)-Ketoconazole", "Fungoral", "Nizral", "Orifungal M", "Ketoderm", "Panfungol", "Ketoisdin", "Fungarest", "Brizoral", "Onofin K", "Ketozoral", "Phytorol", "Tocon", "Nizaral", "Micosin", "MeSH ID: D007654"], "SMILES": "C(C1(OC(COC2=CC=C(C=C2)N3CCN(C(C)=O)CC3)CO1)C4=C(Cl)C=C(Cl)C=C4)N5C=CN=C5", "physical_data": {"Molecular Weight": "531.43", "Molecular Formula": "C26H28Cl2N4O4", "Melting Point": "146 \u00b0C"}}