{"cas_no": "65271-80-9", "cn_name": "\u7c73\u6258\u84bd\u918c", "en_name": ["Mitoxantrone", "9,10-Anthracenedione, 1,4-dihydroxy-5,8-bis[[2-[(2-hydroxyethyl)amino]ethyl]amino]-", "1,4-Dihydroxy-5,8-bis[[2-[(2-hydroxyethyl)amino]ethyl]amino]-9,10-anthracenedione", "NSC 279836", "DHAQ", "Dihydroxyanthraquinone", "Mitoxantrone", "Mitoxanthrone", "1,4-Bis[(2-(2-hydroxyethylamino)ethyl)amino]-5,8-dihydroxyanthraquinone", "Mitozantrone", "1,4-Dihydroxy-5,8-bis-[[2-[(2-hydroxyethyl)amino]ethyl]amino]anthraquinone", "Novantron", "Ralenova", "Novantrone", "Mitox", "Nimitoxantron", "MeSH ID: D008942"], "SMILES": "N(CCNCCO)C1=C2C(=C(NCCNCCO)C=C1)C(=O)C=3C(C2=O)=C(O)C=CC3O", "physical_data": {"Molecular Weight": "444.48", "Molecular Formula": "C22H28N4O6", "Melting Point": "160-162 \u00b0C"}}