{"cas_no": "6529-53-9", "cn_name": "1-(2-\u6eb4\u4e59\u57fa)-4-\u6c2f\u82ef", "en_name": ["1-(2-Bromoethyl)-4-chlorobenzene", "Benzene, 1-(2-bromoethyl)-4-chloro-", "1-(2-Bromoethyl)-4-chlorobenzene", "p-Chlorophenethyl bromide", "p-Chloro-\u03b2-phenethyl bromide", "4-Chlorophenethyl bromide", "2-(p-Chlorophenyl)ethyl bromide", "1-Bromo-2-(4-chlorophenyl)ethane", "1-Chloro-4-(2-bromoethyl)benzene", "2-(4-Chlorophenyl)ethyl bromide"], "SMILES": "C(CBr)C1=CC=C(Cl)C=C1", "physical_data": {"Molecular Weight": "219.51", "Molecular Formula": "C8H8BrCl", "Boiling Point": "120-121 \u00b0C @ Press: 8 Torr"}}