{"cas_no": "653-35-0", "cn_name": "2,3,4,5,6-\u4e94\u6c1f\u82c4\u57fa\u6c2f", "en_name": ["2,3,4,5,6-Pentafluorobenzyl chloride", "Benzene, 1-(chloromethyl)-2,3,4,5,6-pentafluoro-", "Toluene, \u03b1-chloro-2,3,4,5,6-pentafluoro-", "Benzene, (chloromethyl)pentafluoro-", "1-(Chloromethyl)-2,3,4,5,6-pentafluorobenzene", "\u03b1-Chloro-2,3,4,5,6-pentafluorotoluene", "2,3,4,5,6-Pentafluorobenzyl chloride", "Chloromethylpentafluorobenzene", "(Pentafluorophenyl)methyl chloride"], "SMILES": "C(Cl)C1=C(F)C(F)=C(F)C(F)=C1F", "physical_data": {"Molecular Weight": "216.54", "Molecular Formula": "C7H2ClF5", "Boiling Point": "160-163 \u00b0C"}}