{"cas_no": "653-37-2", "cn_name": "\u4e94\u6c1f\u82ef\u7532\u919b", "en_name": ["Pentafluorobenzaldehyde", "Benzaldehyde, 2,3,4,5,6-pentafluoro-", "Benzaldehyde, pentafluoro-", "2,3,4,5,6-Pentafluorobenzaldehyde", "Pentafluorobenzaldehyde", "Perfluorobenzaldehyde", "Formylpentafluorobenzene", "NSC 96967"], "SMILES": "C(=O)C1=C(F)C(F)=C(F)C(F)=C1F", "physical_data": {"Molecular Weight": "196.07", "Molecular Formula": "C7HF5O", "Boiling Point": "167 \u00b0C", "Melting Point": "20 \u00b0C"}}