{"cas_no": "653-34-9", "cn_name": "2,3,4,5,6-\u4e94\u6c1f\u82ef\u4e59\u70ef", "en_name": ["Pentafluorostyrene", "Benzene, 1-ethenyl-2,3,4,5,6-pentafluoro-", "Styrene, 2,3,4,5,6-pentafluoro-", "Benzene, ethenylpentafluoro-", "1-Ethenyl-2,3,4,5,6-pentafluorobenzene", "2,3,4,5,6-Pentafluorostyrene", "ar-Pentafluorostyrene", "Vinylpentafluorobenzene", "(Perfluorophenyl)ethylene", "Pentafluoro(vinyl)benzene", "Ethenylpentafluorobenzene", "(Pentafluorophenyl)ethene", "Pentafluorostyrene", "NSC 97009", "1,2,3,4,5-Pentafluoro-6-vinylbenzene", "P 0862"], "SMILES": "C(=C)C1=C(F)C(F)=C(F)C(F)=C1F", "physical_data": {"Molecular Weight": "194.10", "Molecular Formula": "C8H3F5", "Boiling Point": "140-141 \u00b0C"}}