{"cas_no": "653-21-4", "cn_name": "5-\u6c1f\u82ef\u4e59\u9178", "en_name": ["2,3,4,5,6-Pentafluorobenzeneacetic acid", "Benzeneacetic acid, 2,3,4,5,6-pentafluoro-", "Acetic acid, (pentafluorophenyl)-", "2,3,4,5,6-Pentafluorobenzeneacetic acid", "(Pentafluorophenyl)acetic acid", "2,3,4,5,6-Pentafluorophenylacetic acid", "2-(Pentafluorophenyl)acetic acid", "2-(2,3,4,5,6-Pentafluorophenyl)acetic acid", "2-(Perfluorophenyl)acetic acid"], "SMILES": "C(C(O)=O)C1=C(F)C(F)=C(F)C(F)=C1F", "physical_data": {"Molecular Weight": "226.10", "Molecular Formula": "C8H3F5O2", "Melting Point": "109 \u00b0C"}}