{"cas_no": "653-31-6", "cn_name": "2-(\u4e94\u6c1f\u82ef\u57fa)\u4e59\u9187", "en_name": ["2,3,4,5,6-Pentafluorobenzeneethanol", "Benzeneethanol, 2,3,4,5,6-pentafluoro-", "Phenethyl alcohol, 2,3,4,5,6-pentafluoro-", "2,3,4,5,6-Pentafluorobenzeneethanol", "2-(Pentafluorophenyl)ethanol", "NSC 96899", "2-(2,3,4,5,6-Pentafluorophenyl)ethanol", "2-(Perfluorophenyl)ethanol", "2-(Pentafluorophenyl)ethan-1-ol"], "SMILES": "C(CO)C1=C(F)C(F)=C(F)C(F)=C1F", "physical_data": {"Molecular Weight": "212.12", "Molecular Formula": "C8H5F5O", "Boiling Point": "85.5-87.0 \u00b0C @ Press: 14 Torr"}}