{"cas_no": "653-11-2", "cn_name": "2,3,5,6-\u56db\u6c1f\u82ef\u80bc", "en_name": ["(2,3,5,6-Tetrafluorophenyl)hydrazine", "Hydrazine, (2,3,5,6-tetrafluorophenyl)-", "(2,3,5,6-Tetrafluorophenyl)hydrazine", "2,3,5,6-Tetrafluorophenylhydrazine", "NSC 97000"], "SMILES": "N(N)C1=C(F)C(F)=CC(F)=C1F", "physical_data": {"Molecular Weight": "180.10", "Molecular Formula": "C6H4F4N2", "Melting Point": "92 \u00b0C"}}