{"cas_no": "653-30-5", "cn_name": "5-\u6c1f\u82ef\u4e59\u775b", "en_name": ["2,3,4,5,6-Pentafluorobenzeneacetonitrile", "Benzeneacetonitrile, 2,3,4,5,6-pentafluoro-", "Acetonitrile, (pentafluorophenyl)-", "2,3,4,5,6-Pentafluorobenzeneacetonitrile", "(Pentafluorophenyl)acetonitrile", "Pentafluorobenzyl cyanide", "2,3,4,5,6-Pentafluorophenylacetonitrile", "NSC 612875", "2,3,4,5,6-Pentafluoro-1-(cyanomethyl)benzene", "2-(Perfluorophenyl)acetonitrile", "2-(2,3,4,5,6-Pentafluorophenyl)acetonitrile", "2-(Pentafluorophenyl)acetonitrile"], "SMILES": "C(C#N)C1=C(F)C(F)=C(F)C(F)=C1F", "physical_data": {"Molecular Weight": "207.10", "Molecular Formula": "C8H2F5N", "Boiling Point": "107-111 \u00b0C @ Press: 17 Torr"}}