{"cas_no": "6530-09-2", "cn_name": "3-\u6c28\u57fa\u594e\u5b81\u73af\u76d0\u9178\u76d0", "en_name": ["1-Azabicyclo[2.2.2]octan-3-amine, hydrochloride (1:2)", "1-Azabicyclo[2.2.2]octan-3-amine, hydrochloride (1:2)", "1-Azabicyclo[2.2.2]octan-3-amine, dihydrochloride", "Quinuclidine, 3-amino-, dihydrochloride", "3-Aminoquinuclidine dihydrochloride", "1-Azabicyclo[2.2.2]oct-3-ylamine dihydrochloride", "3-Amino-1-azabicyclo[2.2.2]octane dihydrochloride", "(\u00b1)-3-Aminoquinuclidine dihydrochloride", "NSC 93906", "Quinuclidin-3-amine dihydrochloride"], "SMILES": "NC1C2CCN(C1)CC2.Cl", "physical_data": {"Molecular Weight": "", "Molecular Formula": "C7H14N2.2ClH", "Melting Point": "&gt;280 \u00b0C"}}