{"cas_no": "6531-35-7", "cn_name": "2,3-\u4e8c\u7532\u57fa\u84bd\u918c", "en_name": ["2,3-Dimethylanthraquinone", "9,10-Anthracenedione, 2,3-dimethyl-", "Anthraquinone, 2,3-dimethyl-", "2,3-Dimethyl-9,10-anthracenedione", "2,3-Dimethylanthraquinone", "2,3-Dimethyl-9,10-anthraquinone", "NSC 76612"], "SMILES": "O=C1C=2C(C(=O)C=3C1=CC=CC3)=CC(C)=C(C)C2", "physical_data": {"Molecular Weight": "236.27", "Molecular Formula": "C16H12O2", "Melting Point": "210.8 \u00b0C"}}