{"cas_no": "6531-38-0", "cn_name": "1,4-\u54cc\u55ea\u4e8c\u4e59\u80fa", "en_name": ["1,4-Piperazinediethanamine", "1,4-Piperazinediethanamine", "Piperazine, 1,4-bis(2-aminoethyl)-", "N,N\u2032-Bis(2-aminoethyl)piperazine", "1,4-Bis(2-aminoethyl)piperazine", "1,4-Piperazinediethylamine", "1,4-Bis(2-aminoethyl)-1,4-diazacyclohexane", "[2-[4-(2-Aminoethyl)piperazin-1-yl]ethyl]amine", "2,2\u2032-(Piperazine-1,4-diyl)diethanamine", "2,2\u2032-(1,4-Piperazinediyl)diethanamine", "2-[4-(2-Aminoethyl)piperazin-1-yl]ethanamine", "2-[4-(2-Aminoethyl)piperazin-1-yl]ethan-1-amine"], "SMILES": "C(CN)N1CCN(CCN)CC1", "physical_data": {"Molecular Weight": "172.27", "Molecular Formula": "C8H20N4", "Boiling Point": "130 \u00b0C @ Press: 12 Torr", "Melting Point": "40 \u00b0C", "Density": "0.9675 g/cm\u00b3 @ Temp: 25 \u00b0C"}}