{"cas_no": "6531-86-8", "cn_name": "2-\u73af\u5df1\u57fa\u73af\u5df1\u9187", "en_name": ["[1,1\u2032-Bicyclohexyl]-2-ol", "[1,1\u2032-Bicyclohexyl]-2-ol", "[Bicyclohexyl]-2-ol", "Cyclohexanol, 2-cyclohexyl-", "2-Cyclohexylcyclohexanol", "NSC 6094"], "SMILES": "OC1C(C2CCCCC2)CCCC1", "physical_data": {"Molecular Weight": "182.30", "Molecular Formula": "C12H22O", "Boiling Point": "267-270 \u00b0C", "Melting Point": "31 \u00b0C", "Density": "0.971 g/cm\u00b3 @ Temp: 18 \u00b0C"}}