{"cas_no": "6533-73-9", "cn_name": "\u78b3\u9178\u4e9a\u94ca", "en_name": ["Carbonic acid, thallium(1+) salt (1:2)", "Carbonic acid, thallium(1+) salt (1:2)", "Carbonic acid, dithallium(1+) salt", "Thallium carbonate", "Thallous carbonate", "Dithallium carbonate", "Thallium carbonate (Tl2CO3)", "Thallium(1+) carbonate"], "SMILES": "C(=O)(O)O.[Tl]", "physical_data": {"Molecular Weight": "", "Molecular Formula": "CH2O3.2Tl", "Melting Point": "272 \u00b0C", "Density": "7.1 g/cm\u00b3"}}