{"cas_no": "6533-00-2", "cn_name": "\u7094\u8bfa\u5b55\u916e", "en_name": ["Norgestrel", "18,19-Dinorpregn-4-en-20-yn-3-one, 13-ethyl-17-hydroxy-, (17\u03b1)-(\u00b1)-", "18,19-Dinor-17\u03b1-pregn-4-en-20-yn-3-one, 13-ethyl-17-hydroxy-, (\u00b1)-", "(17\u03b1)-(\u00b1)-13-Ethyl-17-hydroxy-18,19-dinorpregn-4-en-20-yn-3-one", "Norgestrel", "Wy 3707", "(\u00b1)-17\u03b1-Ethynyl-13\u03b2-ethylgon-4-en-17\u03b2-ol-3-one", "13-Ethyl-17\u03b1-ethynyl-17\u03b2-hydroxy-4-gonen-3-one", "(\u00b1)-Norgestrel", "dl-11\u03b2-Ethyl-17\u03b1-ethynyl-17\u03b2-hydroxygon-4-en-3-one", "\u03b1-Norgestrel", "SH 70850", "FH 122A", "(\u00b1)-13-Ethyl-17\u03b1-ethynyl-17-hydroxygon-4-en-3-one", "dl-13-\u03b2-Ethyl-17-\u03b1-ethynyl-17-\u03b2-hydroxygon-4-en-3-one", "(\u00b1)-17\u03b1-Ethynyl-13-ethyl-17-hydroxygon-4-en-3-one", "Monovar", "SH 850", "Postinor", "dl-Norgestrel", "DL-Norgestrel", "Neogest", "Methylnorethindrone", "Ovrette", "MeSH ID: D009644"], "SMILES": "C(C)C12C(C3C(CC1)C4C(CC3)=CC(=O)CC4)CCC2(C#C)O", "physical_data": {"Molecular Weight": "312.45", "Molecular Formula": "C21H28O2", "Melting Point": "205-207 \u00b0C"}}