{"cas_no": "65347-55-9", "cn_name": "3-(1,2,3,6-\u56db\u6c22\u5421\u5576-4-\u57fa)-1H-\u5432\u54da", "en_name": ["3-(1,2,3,6-Tetrahydro-4-pyridinyl)-1H-indole", "1H-Indole, 3-(1,2,3,6-tetrahydro-4-pyridinyl)-", "3-(1,2,3,6-Tetrahydro-4-pyridinyl)-1H-indole", "RU 24441", "1,2,3,6-Tetrahydro-4-(3-indolyl)pyridine", "3-(1,2,3,6-Tetrahydropyridin-4-yl)-1H-indole", "4-(Indol-3-yl)-1,2,3,6-tetrahydropyridine", "3-(1,2,3,6-Tetrahydro-4-pyridyl)-1H-indole", "3-(1,2,3,6-Tetrahydropyridin-4-yl)indole"], "SMILES": "C=1(C=2C(NC1)=CC=CC2)C=3CCNCC3", "physical_data": {"Molecular Weight": "198.26", "Molecular Formula": "C13H14N2", "Melting Point": "183-185 \u00b0C"}}