{"cas_no": "65343-67-1", "cn_name": "(R)-(+)-2-(4-\u7f9f\u57fa\u82ef\u6c27\u57fa)\u4e19\u9178\u4e59\u916f", "en_name": ["Propanoic acid, 2-(4-hydroxyphenoxy)-, ethyl ester", "Propanoic acid, 2-(4-hydroxyphenoxy)-, ethyl ester", "Ethyl 2-(4-hydroxyphenoxy)propionate", "Ethyl 2-(4-hydroxyphenoxy)propanoate", "Ethyl 2-(p-hydroxyphenoxy)propionate", "2-(4-Hydroxyphenoxy)propionic acid ethyl ester", "2-(4-Hydroxyphenoxy)propanoic acid ethyl ester"], "SMILES": "O(C(C(OCC)=O)C)C1=CC=C(O)C=C1", "physical_data": {"Molecular Weight": "210.23", "Molecular Formula": "C11H14O4", "Boiling Point": "165-167 \u00b0C @ Press: 0.32 Torr", "Melting Point": "30 \u00b0C"}}