{"cas_no": "65340-75-2", "cn_name": "4-\u6c28\u57fa-8-\u6eb4\u55b9\u5549", "en_name": ["8-Bromo-4-quinolinamine", "4-Quinolinamine, 8-bromo-", "8-Bromo-4-quinolinamine", "4-Amino-8-bromoquinoline"], "SMILES": "NC=1C2=C(C(Br)=CC=C2)N=CC1", "physical_data": {"Molecular Weight": "223.07", "Molecular Formula": "C9H7BrN2", "Melting Point": "187-188 \u00b0C"}}