{"cas_no": "65355-30-8", "cn_name": "\u53cd\u5f0f-4-\u620a\u57fa\u73af\u5df1\u57fa\u82ef\u7532\u9178", "en_name": ["4-(trans-4-Pentylcyclohexyl)benzoic acid", "Benzoic acid, 4-(trans-4-pentylcyclohexyl)-", "Benzoic acid, 4-(4-pentylcyclohexyl)-, trans-", "4-(trans-4-Pentylcyclohexyl)benzoic acid", "p-(trans-4-Pentylcyclohexyl)benzoic acid", "4\u2032-(4-trans-Pentylcyclohexyl)benzoic acid", "trans-4-(4-n-Pentylcyclohexyl)benzoic acid"], "SMILES": "C(CCCC)C1CCC(CC1)C2=CC=C(C(O)=O)C=C2", "physical_data": {"Molecular Weight": "274.40", "Molecular Formula": "C18H26O2", "Melting Point": "152-155 \u00b0C"}}