{"cas_no": "653601-27-5", "cn_name": "1,2-\u4e8c\u7532\u57fa-3-\u5df1\u57fa\u54aa\u5511\u516d\u6c1f\u78f7\u9178\u76d0", "en_name": ["1H-Imidazolium, 3-hexyl-1,2-dimethyl-, hexafluorophosphate(1-) (1:1)", "1H-Imidazolium, 3-hexyl-1,2-dimethyl-, hexafluorophosphate(1-) (1:1)", "1H-Imidazolium, 1-hexyl-2,3-dimethyl-, hexafluorophosphate(1-)", "1-Hexyl-2,3-dimethylimidazolium hexafluorophosphate"], "SMILES": "[P+5]([F-])([F-])([F-])([F-])([F-])[F-].C(CCCCC)[N+]1=C(C)N(C)C=C1", "physical_data": {"Molecular Weight": "", "Molecular Formula": "C11H21N2.F6P", "Melting Point": "60 \u00b0C"}}