{"cas_no": "6537-80-0", "cn_name": "\u83ca\u82e3\u9178", "en_name": ["Chicoric acid", "Butanedioic acid, 2,3-bis[[3-(3,4-dihydroxyphenyl)-1-oxo-2-propen-1-yl]oxy]-, (2R,3R)-", "Tartaric acid, bis(3,4-dihydroxycinnamate)", "Butanedioic acid, 2,3-bis[[3-(3,4-dihydroxyphenyl)-1-oxo-2-propenyl]oxy]-, [R-(R*,R*)]-", "Butanedioic acid, 2,3-bis[[3-(3,4-dihydroxyphenyl)-1-oxo-2-propenyl]oxy]-, (2R,3R)-", "(2R,3R)-2,3-Bis[[3-(3,4-dihydroxyphenyl)-1-oxo-2-propen-1-yl]oxy]butanedioic acid", "Chicoric acid", "Dicaffeoyltartaric acid", "Cichoric acid"], "SMILES": "C(C(OC(C=CC1=CC(O)=C(O)C=C1)=O)C(O)=O)(OC(C=CC2=CC(O)=C(O)C=C2)=O)C(O)=O", "physical_data": {"Molecular Weight": "474.37", "Molecular Formula": "C22H18O12", "Melting Point": "206 \u00b0C"}}