{"cas_no": "6538-82-5", "cn_name": "\u5de6\u5361\u5c3c\u6c40\u76f8\u5173\u7269\u8d28A", "en_name": ["2-Propen-1-aminium, 3-carboxy-N,N,N-trimethyl-, chloride (1:1)", "2-Propen-1-aminium, 3-carboxy-N,N,N-trimethyl-, chloride (1:1)", "Ammonium, (3-carboxyallyl)trimethyl-, chloride", "2-Propen-1-aminium, 3-carboxy-N,N,N-trimethyl-, chloride", "(3-Carboxyallyl)trimethylammonium chloride", "Crotonobetaine hydrochloride"], "SMILES": "C(C=CC(O)=O)[N+](C)(C)C.[Cl-]", "physical_data": {"Molecular Weight": "", "Molecular Formula": "C7H14NO2.Cl", "Melting Point": "203-205 \u00b0C (decomp)"}}