{"cas_no": "65399-18-0", "cn_name": "4-\u785d\u57fa\u82ef\u915e", "en_name": ["4-Nitrophthalide", "1(3H)-Isobenzofuranone, 4-nitro-", "4-Nitro-1(3H)-isobenzofuranone", "4-Nitrophthalide"], "SMILES": "N(=O)(=O)C1=C2C(C(=O)OC2)=CC=C1", "physical_data": {"Molecular Weight": "179.13", "Molecular Formula": "C8H5NO4", "Melting Point": "136 \u00b0C"}}