{"cas_no": "65391-42-6", "cn_name": "\u6c28\u80bd\u9176", "en_name": ["L-Leucine, N-[(2S,3R)-3-amino-2-hydroxy-1-oxo-4-phenylbutyl]-, hydrochloride (1:1)", "L-Leucine, N-[(2S,3R)-3-amino-2-hydroxy-1-oxo-4-phenylbutyl]-, hydrochloride (1:1)", "L-Leucine, N-(3-amino-2-hydroxy-1-oxo-4-phenylbutyl)-, monohydrochloride, [S-(R*,S*)]-", "L-Leucine, N-[(2S,3R)-3-amino-2-hydroxy-1-oxo-4-phenylbutyl]-, monohydrochloride", "Bestatin hydrochloride", "(-)-Bestatin hydrochloride"], "SMILES": "C(C(C(C(NC(CC(C)C)C(O)=O)=O)O)N)C1=CC=CC=C1.Cl", "physical_data": {"Molecular Weight": "", "Molecular Formula": "C16H24N2O4.ClH", "Melting Point": "210-214 \u00b0C"}}