{"cas_no": "65399-05-5", "cn_name": "5-\u6c28\u57fa\u82ef\u915e", "en_name": ["5-Aminophthalide", "1(3H)-Isobenzofuranone, 5-amino-", "Phthalide, 5-amino-", "5-Amino-1(3H)-isobenzofuranone", "5-Aminophthalide", "5-Aminoisobenzofuran-1(3H)-one", "5-Amino-2-benzofuran-1(3H)-one", "1-Oxo-1,3-dihydroisobenzofuran-5-amine", "5-Amino-1,3-dihydroisobenzofuran-1-one", "5-Amino-3H-benzofuran-1-one"], "SMILES": "O=C1C=2C(CO1)=CC(N)=CC2", "physical_data": {"Molecular Weight": "149.15", "Molecular Formula": "C8H7NO2", "Melting Point": "178 \u00b0C"}}