{"cas_no": "654-53-5", "cn_name": "2,3,4,5-\u56db\u6c1f\u4e09\u6c1f\u7532\u82ef", "en_name": ["1,2,3,4-Tetrafluoro-5-(trifluoromethyl)benzene", "Benzene, 1,2,3,4-tetrafluoro-5-(trifluoromethyl)-", "Toluene, \u03b1,\u03b1,\u03b1,2,3,4,5-heptafluoro-", "1,2,3,4-Tetrafluoro-5-(trifluoromethyl)benzene", "2,3,4,5-Tetrafluorobenzotrifluoride", "\u03b1,\u03b1,\u03b1,2,3,4,5-Heptafluorotoluene"], "SMILES": "C(F)(F)(F)C1=C(F)C(F)=C(F)C(F)=C1", "physical_data": {"Molecular Weight": "218.07", "Molecular Formula": "C7HF7", "Boiling Point": "102-105.5 \u00b0C"}}