{"cas_no": "654-98-8", "cn_name": "5-\u6c2f-2-\u4e09\u6c1f\u7532)\u82ef\u7532\u9178", "en_name": ["5-Chloro-2-(trifluoromethyl)benzoic acid", "Benzoic acid, 5-chloro-2-(trifluoromethyl)-", "o-Toluic acid, 5-chloro-\u03b1,\u03b1,\u03b1-trifluoro-", "5-Chloro-2-(trifluoromethyl)benzoic acid", "5-Chloro-2-trifluoromethylbenzoic acid", "2-Trifluoromethyl-5-chlorobenzoic acid"], "SMILES": "C(O)(=O)C1=C(C(F)(F)F)C=CC(Cl)=C1", "physical_data": {"Molecular Weight": "224.56", "Molecular Formula": "C8H4ClF3O2", "Melting Point": "84-85 \u00b0C"}}