{"cas_no": "654-76-2", "cn_name": "2-\u7532\u6c27\u57fa-5\u785d\u57fa\u4e09\u6c1f\u7532\u82ef", "en_name": ["1-Methoxy-4-nitro-2-(trifluoromethyl)benzene", "Benzene, 1-methoxy-4-nitro-2-(trifluoromethyl)-", "Anisole, 4-nitro-2-(trifluoromethyl)-", "1-Methoxy-4-nitro-2-(trifluoromethyl)benzene", "2-Methoxy-5-nitrobenzotrifluoride", "NSC 88331", "2-Trifluoromethyl-4-nitroanisole"], "SMILES": "C(F)(F)(F)C1=C(OC)C=CC(N(=O)=O)=C1", "physical_data": {"Molecular Weight": "221.13", "Molecular Formula": "C8H6F3NO3", "Melting Point": "79-79.5 \u00b0C"}}