{"cas_no": "654-62-6", "cn_name": "4-\u6c28\u57fa-6-(\u4e09\u6c1f\u7532\u57fa)\u82ef-1,3-\u4e8c\u78fa\u9170\u80fa", "en_name": ["4-Amino-6-(trifluoromethyl)-1,3-benzenedisulfonamide", "1,3-Benzenedisulfonamide, 4-amino-6-(trifluoromethyl)-", "Toluene-2,4-disulfonamide, 5-amino-\u03b1,\u03b1,\u03b1-trifluoro-", "4-Amino-6-(trifluoromethyl)-1,3-benzenedisulfonamide", "5-Trifluoromethyl-2,4-disulfamoylaniline", "2,4-Disulfamoyl-5-trifluoromethylaniline", "NSC 44625"], "SMILES": "C(F)(F)(F)C1=C(S(N)(=O)=O)C=C(S(N)(=O)=O)C(N)=C1", "physical_data": {"Molecular Weight": "319.28", "Molecular Formula": "C7H8F3N3O4S2", "Melting Point": "239.5-241.5 \u00b0C"}}