{"cas_no": "654-70-6", "cn_name": "4-\u6c28\u57fa-2-\u4e09\u6c1f\u7532\u57fa\u82ef\u7532\u8148", "en_name": ["4-Amino-2-(trifluoromethyl)benzonitrile", "Benzonitrile, 4-amino-2-(trifluoromethyl)-", "o-Tolunitrile, 4-amino-\u03b1,\u03b1,\u03b1-trifluoro-", "4-Amino-2-(trifluoromethyl)benzonitrile", "4-Amino-\u03b1,\u03b1,\u03b1-trifluoro-o-tolunitrile", "4-Cyano-3-(trifluoromethyl)aniline", "5-Amino-2-cyanobenzotrifluoride", "2-Trifluoromethyl-4-aminobenzonitrile"], "SMILES": "C(F)(F)(F)C1=C(C#N)C=CC(N)=C1", "physical_data": {"Molecular Weight": "186.13", "Molecular Formula": "C8H5F3N2", "Melting Point": "143-145 \u00b0C"}}