{"cas_no": "654-42-2", "cn_name": "2,6-\u4e8c\u7532\u57fa-1,4-\u82ef\u4e8c\u915a", "en_name": ["2,6-Dimethylhydroquinone", "1,4-Benzenediol, 2,6-dimethyl-", "Hydroquinone, 2,6-dimethyl-", "2,6-Dimethyl-1,4-benzenediol", "m-XHQ", "m-Xylohydroquinone", "m-Xylene-2,5-diol", "2,6-Dimethylhydroquinone", "2,6-Xylohydroquinone", "2,6-Dimethyl-p-benzohydroquinone", "2,6-Xyloquinol", "3,5-Dimethylhydroquinone", "1,4-Dihydroxy-2,6-dimethylbenzene", "2,6-Dimethyl-1,4-hydroquinone", "NSC 36868", "2,6-Dimethyl-4-hydroxyphenol"], "SMILES": "OC1=C(C)C=C(O)C=C1C", "physical_data": {"Molecular Weight": "138.16", "Molecular Formula": "C8H10O2", "Melting Point": "144-147.5 \u00b0C"}}