{"cas_no": "6540-98-3", "cn_name": "6-\u7f9f\u57fa-5-\u6b63\u7678\u916e", "en_name": ["6-Hydroxy-5-decanone", "5-Decanone, 6-hydroxy-", "6-Hydroxy-5-decanone", "5-Hydroxy-6-decanone", "Decan-5-ol-6-one"], "SMILES": "C(C(CCCC)=O)(CCCC)O", "physical_data": {"Molecular Weight": "172.26", "Molecular Formula": "C10H20O2", "Boiling Point": "205-215 \u00b0C @ Press: 12 Torr", "Melting Point": "151-152 \u00b0C"}}