{"cas_no": "65408-91-5", "cn_name": "ALTHOLACTONE", "en_name": ["Altholactone", "D-xylo-Hept-2-enonic acid, 4,7-anhydro-2,3-dideoxy-7-C-phenyl-, \u03b4-lactone, (7R)-", "2H-Furo[3,2-b]pyran, D-xylo-hept-2-enonic acid deriv.", "Altholactone", "Goniothalenol", "(+)-Altholactone", "(+)-Goniothalenol"], "SMILES": "OC1C(OC2C1OC(=O)C=C2)C3=CC=CC=C3", "physical_data": {"Molecular Weight": "232.23", "Molecular Formula": "C13H12O4", "Melting Point": "108-109 \u00b0C"}}