{"cas_no": "65414-74-6", "cn_name": "L-\u4e1d\u6c28\u9170\u80fa\u76d0\u9178\u76d0", "en_name": ["L-Serinamide hydrochloride", "Propanamide, 2-amino-3-hydroxy-, hydrochloride (1:1), (2S)-", "Propanamide, 2-amino-3-hydroxy-, monohydrochloride, (S)-", "L-Serinamide hydrochloride", "Propanamide, 2-amino-3-hydroxy-, monohydrochloride, (2S)-", "L-Serine amide hydrochloride", "(S)-2-Amino-3-hydroxypropanamide hydrochloride"], "SMILES": "C(C(N)=O)(CO)N.Cl", "physical_data": {"Molecular Weight": "", "Molecular Formula": "C3H8N2O2.ClH", "Melting Point": "187-188 \u00b0C"}}