{"cas_no": "65423-28-1", "cn_name": "N-\u82c4\u57fa-2-\u6c2f\u70df\u9170\u80fa", "en_name": ["3-Pyridinecarboxamide, 2-chloro-N-(phenylmethyl)-", "3-Pyridinecarboxamide, 2-chloro-N-(phenylmethyl)-", "2-Chloronicotinic acid benzylamide", "N-Benzyl-2-chloronicotinamide", "2-Chloro-N-phenylmethyl-3-pyridinecarboxamide"], "SMILES": "C(NCC1=CC=CC=C1)(=O)C2=C(Cl)N=CC=C2", "physical_data": {"Molecular Weight": "246.69", "Molecular Formula": "C13H11ClN2O", "Melting Point": "122-123 \u00b0C"}}