{"cas_no": "65427-54-5", "cn_name": "2,4-\u4e8c\u6c28\u57fa\u4e01\u9178\u76d0\u9178\u76d0", "en_name": ["2,4-Diaminobutyric acid dihydrochloride", "Butanoic acid, 2,4-diamino-, hydrochloride (1:2)", "Butanoic acid, 2,4-diamino-, dihydrochloride, (\u00b1)-", "Butanoic acid, 2,4-diamino-, dihydrochloride", "DL-2,4-Diaminobutyric acid dihydrochloride", "2,4-Diaminobutyric acid dihydrochloride", "dl-2,4-Diaminobutyric acid dihydrochloride", "NSC 41117", "2,4-Diaminobutanoic acid dihydrochloride"], "SMILES": "C(CCN)(C(O)=O)N.Cl", "physical_data": {"Molecular Weight": "", "Molecular Formula": "C4H10N2O2.2ClH", "Melting Point": "202-204 \u00b0C (decomp)"}}