{"cas_no": "65423-25-8", "cn_name": "\u987a\u5341\u4e8c\u78b3-11-\u70ef\u9178", "en_name": ["11-Dodecenoic acid", "11-Dodecenoic acid", "C12:1\u03c911"], "SMILES": "C(CCCCCCC=C)CCC(O)=O", "physical_data": {"Molecular Weight": "198.30", "Molecular Formula": "C12H22O2", "Boiling Point": "143-144 \u00b0C @ Press: 3 Torr", "Density": "0.9030 g/cm\u00b3 @ Temp: 20 \u00b0C"}}