{"cas_no": "6542-37-6", "cn_name": "1H,3H,5H-\u6076\u5511\u5e76[3,4-C]\u6076\u5511-7A(7H)\u7532\u9187", "en_name": ["5-Hydroxymethyl-1-aza-3,7-dioxabicyclo[3.3.0]octane", "1H,3H,5H-Oxazolo[3,4-c]oxazole-7a(7H)-methanol", "1-Aza-5-methylol-3,7-dioxabicyclo[3.3.0]octane", "5-Methylol-1-aza-3,7-dioxabicyclo[3.3.0]octane", "GDUE", "M 3 (curing agent)", "1-Aza-3,7-dioxa-5-hydroxymethylbicyclo[3.3.0]octane", "5-Hydroxymethyl-1-aza-3,7-dioxabicyclo[3.3.0]octane", "M 3", "1-Aza-5-hydroxymethyl-3,7-dioxabicyclo[3.3.0]octane", "1-Aza-3,7-dioxabicyclo[3.3.0]oct-5-ylmethanol", "Bonding agent M 3", "Oxazolidine T", "Zoldine ZT 65", "Zoldine ZT 55", "Zoldine ZT 40", "Zoldine ZT 100", "NSC 270787", "ZT 65", "OXD-II", "1-Aza-3,7-dioxabicyclo[3.3.0]octane-5-methanol", "[Tetrahydro-1H-[1,3]oxazolo[3,4-c][1,3]oxazol-7a-yl]methanol", "(Tetrahydro-1H-oxazolo[3,4-c]oxazol-7a-yl)methanol"], "SMILES": "C(O)C12N(COC1)COC2", "physical_data": {"Molecular Weight": "145.16", "Molecular Formula": "C6H11NO3", "Melting Point": "58 \u00b0C"}}