{"cas_no": "6545-99-9", "cn_name": "\u8131\u6c34\u957f\u53f6\u4e5d\u91cc\u9999\u5185\u916f", "en_name": ["Phebalosin", "2H-1-Benzopyran-2-one, 7-methoxy-8-[(2R,3R)-3-(1-methylethenyl)-2-oxiranyl]-, rel-", "2H-1-Benzopyran-2-one, 7-methoxy-8-[3-(1-methylethenyl)oxiranyl]-, trans-", "Phebalosin", "Coumarin, 8-(1,2-epoxy-3-methyl-3-butenyl)-7-methoxy-, 8-trans-", "2H-1-Benzopyran-2-one, 7-methoxy-8-[(2R,3R)-3-(1-methylethenyl)oxiranyl]-, rel-", "rel-7-Methoxy-8-[(2R,3R)-3-(1-methylethenyl)-2-oxiranyl]-2H-1-benzopyran-2-one", "Alosin"], "SMILES": "O(C)C=1C(=C2C(=CC1)C=CC(=O)O2)C3C(C(C)=C)O3", "physical_data": {"Molecular Weight": "258.27", "Molecular Formula": "C15H14O4", "Melting Point": "120.5-121.5 \u00b0C"}}