{"cas_no": "654671-78-0", "cn_name": "\u78f7\u9178\u897f\u4ed6\u5217\u6c40", "en_name": ["Sitagliptin phosphate", "1-Butanone, 3-amino-1-[5,6-dihydro-3-(trifluoromethyl)-1,2,4-triazolo[4,3-a]pyrazin-7(8H)-yl]-4-(2,4,5-trifluorophenyl)-, (3R)-, phosphate (1:1)", "1,2,4-Triazolo[4,3-a]pyrazine, 7-[(3R)-3-amino-1-oxo-4-(2,4,5-trifluorophenyl)butyl]-5,6,7,8-tetrahydro-3-(trifluoromethyl)-, phosphate (1:1)", "MK 0431", "MK 431", "Sitagliptin phosphate", "Januvia", "Glactiv"], "SMILES": "P(=O)(O)(O)O.C(F)(F)(F)C=1N2C(CN(C(CC(CC3=C(F)C=C(F)C(F)=C3)N)=O)CC2)=NN1", "physical_data": {"Molecular Weight": "", "Molecular Formula": "C16H15F6N5O.H3O4P", "Melting Point": "215-217 \u00b0C"}}