{"cas_no": "654655-69-3", "cn_name": "3-\u82c4\u57fa-6-\u6eb4-2-\u7532\u6c27\u57fa\u55b9\u5549", "en_name": ["3-Benzyl-6-bromo-2-methoxyquinoline", "Quinoline, 6-bromo-2-methoxy-3-(phenylmethyl)-", "6-Bromo-2-methoxy-3-(phenylmethyl)quinoline", "3-Benzyl-6-bromo-2-methoxyquinoline"], "SMILES": "C(C=1C(OC)=NC2=C(C1)C=C(Br)C=C2)C3=CC=CC=C3", "physical_data": {"Molecular Weight": "328.20", "Molecular Formula": "C17H14BrNO", "Melting Point": "82-83 \u00b0C"}}