{"cas_no": "65473-13-4", "cn_name": "N-\u7532\u57fa-1-\u8418\u7532\u80fa\u76d0\u9178\u76d0", "en_name": ["1-Naphthalenemethanamine, N-methyl-, hydrochloride (1:1)", "1-Naphthalenemethanamine, N-methyl-, hydrochloride (1:1)", "1-Naphthalenemethanamine, N-methyl-, hydrochloride", "1-Naphthalenemethylamine, N-methyl-, hydrochloride", "N-Methyl-1-naphthalenemethanamine hydrochloride", "N-Methyl-1-naphthalenemethylamine hydrochloride", "N-Methyl-1-naphthalenemethaneamine hydrochloride", "N-Methyl(1-naphthylmethyl)amine hydrochloride"], "SMILES": "C(NC)C=1C2=C(C=CC1)C=CC=C2.Cl", "physical_data": {"Molecular Weight": "", "Molecular Formula": "C12H13N.ClH", "Melting Point": "170 \u00b0C"}}