{"cas_no": "6547-53-1", "cn_name": "4-\u82c4\u6c27\u57fa\u82ef\u4e59\u9178", "en_name": ["4-Benzyloxyphenylacetic acid", "Benzeneacetic acid, 4-(phenylmethoxy)-", "Acetic acid, [p-(benzyloxy)phenyl]-", "4-(Phenylmethoxy)benzeneacetic acid", "4-Benzyloxyphenylacetic acid", "p-Benzyloxyphenylacetic acid", "2-(4-Benzyloxyphenyl)acetic acid", "NSC 134561", "2-(4-Phenylmethoxyphenyl)acetic acid"], "SMILES": "O(CC1=CC=CC=C1)C2=CC=C(CC(O)=O)C=C2", "physical_data": {"Molecular Weight": "242.27", "Molecular Formula": "C15H14O3", "Melting Point": "114 \u00b0C"}}