{"cas_no": "65472-88-0", "cn_name": "\u8418\u66ff\u82ac", "en_name": ["Naftifine", "1-Naphthalenemethanamine, N-methyl-N-[(2E)-3-phenyl-2-propen-1-yl]-", "1-Naphthalenemethanamine, N-methyl-N-(3-phenyl-2-propenyl)-, (E)-", "1-Naphthalenemethanamine, N-methyl-N-[(2E)-3-phenyl-2-propenyl]-", "N-Methyl-N-[(2E)-3-phenyl-2-propen-1-yl]-1-naphthalenemethanamine", "Naftifine", "Naftifungin", "Nafetifine"], "SMILES": "C(N(CC=CC1=CC=CC=C1)C)C=2C3=C(C=CC2)C=CC=C3", "physical_data": {"Molecular Weight": "287.40", "Molecular Formula": "C21H21N", "Boiling Point": "162-167 \u00b0C @ Press: 0.015 Torr"}}