{"cas_no": "65473-14-5", "cn_name": "\u76d0\u9178\u8418\u66ff\u82ac", "en_name": ["Naftifine hydrochloride", "1-Naphthalenemethanamine, N-methyl-N-[(2E)-3-phenyl-2-propen-1-yl]-, hydrochloride (1:1)", "1-Naphthalenemethanamine, N-methyl-N-(3-phenyl-2-propenyl)-, hydrochloride, (E)-", "1-Naphthalenemethanamine, N-methyl-N-[(2E)-3-phenyl-2-propenyl]-, hydrochloride", "Naftifine hydrochloride", "Exoderil", "Naftin", "AW 105-843", "SN 105-843"], "SMILES": "C(N(CC=CC1=CC=CC=C1)C)C=2C3=C(C=CC2)C=CC=C3.Cl", "physical_data": {"Molecular Weight": "", "Molecular Formula": "C21H21N.ClH", "Melting Point": "177 \u00b0C"}}