{"cas_no": "6548-09-0", "cn_name": "5-\u6eb4-DL-\u8272\u6c28\u9178", "en_name": ["5-Bromo-DL-tryptophan", "Tryptophan, 5-bromo-", "Tryptophan, 5-bromo-, DL-", "DL-Tryptophan, 5-bromo-", "5-Bromotryptophan", "DL-5-Bromotryptophan", "5-Bromo-DL-tryptophan", "NSC 88149", "2-Amino-3-(5-bromo-1H-indol-3-yl)propionic acid", "2-Amino-3-(5-bromo-1H-indol-3-yl)propanoic acid"], "SMILES": "C(C(C(O)=O)N)C=1C=2C(NC1)=CC=C(Br)C2", "physical_data": {"Molecular Weight": "283.12", "Molecular Formula": "C11H11BrN2O2", "Melting Point": "261-262 \u00b0C"}}