{"cas_no": "655-14-1", "cn_name": "2,5-\u4e8c\u6c1f\u5bf9\u82ef\u4e8c\u7532\u9178", "en_name": ["2,5-Difluoro-1,4-benzenedicarboxylic acid", "1,4-Benzenedicarboxylic acid, 2,5-difluoro-", "Terephthalic acid, 2,5-difluoro-", "2,5-Difluoro-1,4-benzenedicarboxylic acid", "2,5-Difluoroterephthalic acid", "2,5-Difluorobenzene-1,4-dicarboxylic acid"], "SMILES": "C(O)(=O)C1=C(F)C=C(C(O)=O)C(F)=C1", "physical_data": {"Molecular Weight": "202.11", "Molecular Formula": "C8H4F2O4", "Melting Point": "325-330 \u00b0C"}}