{"cas_no": "655-32-3", "cn_name": "2,2,2,4'-\u56db\u6c1f\u82ef\u4e59\u916e", "en_name": ["2,2,2-Trifluoro-1-(4-fluorophenyl)ethanone", "Ethanone, 2,2,2-trifluoro-1-(4-fluorophenyl)-", "Acetophenone, 2,2,2,4\u2032-tetrafluoro-", "2,2,2-Trifluoro-1-(4-fluorophenyl)ethanone", "p,\u03b1,\u03b1,\u03b1-Tetrafluoroacetophenone", "2,2,2,4\u2032-Tetrafluoroacetophenone", "p-Fluoro-\u03b1,\u03b1,\u03b1-trifluoroacetophenone", "Trifluoromethyl p-fluorophenyl ketone", "p-Fluorophenyl trifluoromethyl ketone", "NSC 158171", "4-Fluorophenyl trifluoromethyl ketone", "1-(4-Fluorophenyl)-2,2,2-trifluoroethanone", "\u03b1,\u03b1,\u03b1,p-Tetrafluoroacetophenone", "\u03b1,\u03b1,\u03b1,4-Tetrafluoroacetophenone", "1-(4-Fluorophenyl)-2,2,2-trifluoroethan-1-one", "2,2,2-Trifluoro-1-(4-fluorophenyl)ethan-1-one"], "SMILES": "C(C(F)(F)F)(=O)C1=CC=C(F)C=C1", "physical_data": {"Molecular Weight": "192.11", "Molecular Formula": "C8H4F4O", "Boiling Point": "39-40 \u00b0C @ Press: 7 Torr", "Melting Point": "27-29 \u00b0C"}}