{"cas_no": "655-86-7", "cn_name": "2,3-\u4e8c\u6c28\u57fa\u915a\u55ea", "en_name": ["2,3-Diaminophenazine", "2,3-Phenazinediamine", "Phenazine, 2,3-diamino-", "2,3-Diaminophenazine"], "SMILES": "NC1=CC2=C(N=C3C(=N2)C=CC=C3)C=C1N", "physical_data": {"Molecular Weight": "210.23", "Molecular Formula": "C12H10N4", "Melting Point": "264 \u00b0C"}}