{"cas_no": "6552-12-1", "cn_name": "\u500d\u786b\u78f7-\u6c27", "en_name": ["Fenoxon", "Phosphoric acid, dimethyl 3-methyl-4-(methylthio)phenyl ester", "Phosphoric acid, dimethyl 4-(methylthio)-m-tolyl ester", "Bayoxon", "Fenthion oxon", "Fenoxon", "Fenthoxon"], "SMILES": "O(P(OC)(OC)=O)C1=CC(C)=C(SC)C=C1", "physical_data": {"Molecular Weight": "262.26", "Molecular Formula": "C10H15O4PS", "Boiling Point": "108 \u00b0C @ Press: 0.01 Torr"}}