{"cas_no": "6553-80-6", "cn_name": "\u73af\u5df1\u70f7\u7fa7\u9178\u5f02\u4e19\u916f", "en_name": ["Cyclohexanecarboxylic acid, 1-methylethyl ester", "Cyclohexanecarboxylic acid, 1-methylethyl ester", "Cyclohexanecarboxylic acid, isopropyl ester", "Isopropyl cyclohexanecarboxylate"], "SMILES": "C(OC(C)C)(=O)C1CCCCC1", "physical_data": {"Molecular Weight": "170.25", "Molecular Formula": "C10H18O2", "Boiling Point": "72-73 \u00b0C"}}