{"cas_no": "6553-96-4", "cn_name": "2,4,6-\u4e09\u5f02\u4e19\u57fa\u82ef\u78fa\u9170\u6c2f", "en_name": ["2,4,6-Tris(1-methylethyl)benzenesulfonyl chloride", "Benzenesulfonyl chloride, 2,4,6-tris(1-methylethyl)-", "Benzenesulfonyl chloride, 2,4,6-triisopropyl-", "2,4,6-Tris(1-methylethyl)benzenesulfonyl chloride", "2,4,6-Triisopropylbenzenesulfonyl chloride", "2,4,6-Triisopropylphenylsulfonyl chloride", "2,4,6-Tris(isopropyl)benzenesulfonyl chloride", "NSC 102803", "2,4,6-Triisopropylbenzene-1-sulfonyl chloride", "Tripsyl chloride", "2,4,6-Triisopropylbenzenesulfonoyl chloride", "2,4,6-Tri(propan-2-yl)benzenesulfonyl chloride"], "SMILES": "S(Cl)(=O)(=O)C1=C(C(C)C)C=C(C(C)C)C=C1C(C)C", "physical_data": {"Molecular Weight": "302.86", "Molecular Formula": "C15H23ClO2S", "Melting Point": "96.8-97.5 \u00b0C"}}