{"cas_no": "65548-55-2", "cn_name": "3,'4,7,8-\u56db\u7532\u6c27\u57fa\u9ec4\u916e", "en_name": ["3\u2032,4\u2032,7,8-Tetramethoxyflavone", "4H-1-Benzopyran-4-one, 2-(3,4-dimethoxyphenyl)-7,8-dimethoxy-", "Flavone, 3\u2032,4\u2032,7,8-tetramethoxy-", "2-(3,4-Dimethoxyphenyl)-7,8-dimethoxy-4H-1-benzopyran-4-one", "7,8-Dimethoxy-2-(3,4-dimethoxyphenyl)-4H-chromen-4-one", "3\u2032,4\u2032,7,8-Tetramethoxyflavone", "2-(3,4-Dimethoxyphenyl)-7,8-dimethoxy-4H-chromen-4-one", "2-(3,4-Dimethoxyphenyl)-7,8-dimethoxychromen-4-one"], "SMILES": "O(C)C1=C2C(C(=O)C=C(O2)C3=CC(OC)=C(OC)C=C3)=CC=C1OC", "physical_data": {"Molecular Weight": "342.34", "Molecular Formula": "C19H18O6", "Melting Point": "198-199 \u00b0C"}}