{"cas_no": "6554-73-0", "cn_name": "N-\u53d4\u4e01\u57fa\u5f02\u4e01\u70ef\u9170\u80fa(\u542b\u7a33\u5b9a\u5242\u7532\u6c27\u57fa\u6c22\u918c)", "en_name": ["N-(1,1-Dimethylethyl)-2-methyl-2-propenamide", "2-Propenamide, N-(1,1-dimethylethyl)-2-methyl-", "Acrylamide, N-tert-butyl-2-methyl-", "N-(1,1-Dimethylethyl)-2-methyl-2-propenamide", "N-tert-Butylmethacrylamide", "tert-Butylmethacrylamide"], "SMILES": "C(NC(C)(C)C)(C(C)=C)=O", "physical_data": {"Molecular Weight": "141.21", "Molecular Formula": "C8H15NO", "Boiling Point": "111-112 \u00b0C @ Press: 43 Torr", "Melting Point": "59 \u00b0C"}}