{"cas_no": "6554-69-4", "cn_name": "2,4,5-\u4e09\u6c2f-6-\u7532\u57fa\u5627\u5576", "en_name": ["2,4,5-Trichloro-6-methylpyrimidine", "Pyrimidine, 2,4,5-trichloro-6-methyl-", "2,4,5-Trichloro-6-methylpyrimidine", "NSC 26541"], "SMILES": "ClC=1C(C)=NC(Cl)=NC1Cl", "physical_data": {"Molecular Weight": "197.45", "Molecular Formula": "C5H3Cl3N2", "Boiling Point": "55-56 \u00b0C @ Press: 0.02 Torr"}}