{"cas_no": "6554-10-5", "cn_name": "5'-O-\u4e09\u82ef\u7532\u57fa\u5c3f\u82f7", "en_name": ["5\u2032-O-(Triphenylmethyl)uridine", "Uridine, 5\u2032-O-(triphenylmethyl)-", "Uridine, 5\u2032-O-trityl-", "5\u2032-O-(Triphenylmethyl)uridine", "5\u2032-O-Trityluridine", "5\u2032-O-Triphenylmethyluridine", "NSC 97038"], "SMILES": "C(OCC1OC(C(O)C1O)N2C(=O)NC(=O)C=C2)(C3=CC=CC=C3)(C4=CC=CC=C4)C5=CC=CC=C5", "physical_data": {"Molecular Weight": "486.52", "Molecular Formula": "C28H26N2O6", "Melting Point": "207-208 \u00b0C"}}