{"cas_no": "6554-98-9", "cn_name": "\u53cd\u5f0f-4-\u7f9f\u57fa\u82aa", "en_name": ["trans-4-Hydroxystilbene", "Phenol, 4-[(1E)-2-phenylethenyl]-", "4-Stilbenol, (E)-", "Phenol, 4-(2-phenylethenyl)-, (E)-", "4-[(1E)-2-Phenylethenyl]phenol", "trans-4-Hydroxystilbene", "trans-4-Stilbenol", "trans-p-Hydroxystilbene", "4-Hydroxy-trans-stilbene", "(E)-4-Hydroxystilbene", "(E)-1-(4-Hydroxyphenyl)-2-phenylethene", "(E)-4-Hydroxystilbene", "(E)-4-Styrylphenol"], "SMILES": "C(=CC1=CC=CC=C1)C2=CC=C(O)C=C2", "physical_data": {"Molecular Weight": "196.24", "Molecular Formula": "C14H12O", "Melting Point": "189 \u00b0C"}}