{"cas_no": "6555-40-4", "cn_name": "6-\u7532\u57fa\u6c34\u6768\u9178\u4e59\u916f/2-\u7f9f\u57fa-6-\u7532\u57fa\u82ef\u7532\u9178\u4e59\u916f", "en_name": ["Ethyl 2-hydroxy-6-methylbenzoate", "Benzoic acid, 2-hydroxy-6-methyl-, ethyl ester", "2,6-Cresotic acid, ethyl ester", "Ethyl 6-methylsalicylate", "Ethyl 2-hydroxy-6-methylbenzoate", "2-Hydroxy-6-methylbenzoic acid ethyl ester"], "SMILES": "C(OCC)(=O)C1=C(C)C=CC=C1O", "physical_data": {"Molecular Weight": "180.20", "Molecular Formula": "C10H12O3", "Boiling Point": "85-95 \u00b0C @ Press: 0.5 Torr", "Melting Point": "42-45 \u00b0C"}}