{"cas_no": "6556-11-2", "cn_name": "\u808c\u9187\u70df\u9178\u916f", "en_name": ["Inositol nicotinate", "myo-Inositol, hexa-3-pyridinecarboxylate", "Inositol, hexanicotinate, myo-", "Nicotinic acid, hexaester with myo-inositol", "Esantene", "Hexanicit", "Hexanicotinoyl inositol", "Hexanicotol", "Hexopal", "Inositol niacinate", "Linodil", "Inositol nicotinate", "myo-Inositol hexanicotinate", "meso-Inositol hexanicotinate", "Dilcit", "Dilexpal", "Mesotal", "Mesonex", "Palohex", "Inositol hexanicotinate", "3-Pyridinecarboxylic acid, 1,2,3,4,5,6-cyclohexanehexayl ester", "Inositol hexaniacinate", "Hamovannid", "Meso-inositol hexanicotinate"], "SMILES": "O(C(=O)C=1C=CC=NC1)C2C(OC(=O)C=3C=CC=NC3)C(OC(=O)C=4C=CC=NC4)C(OC(=O)C=5C=CC=NC5)C(OC(=O)C=6C=CC=NC6)C2OC(=O)C=7C=CC=NC7", "physical_data": {"Molecular Weight": "810.72", "Molecular Formula": "C42H30N6O12", "Melting Point": "254.6 \u00b0C"}}