{"cas_no": "6556-12-3", "cn_name": "D-\u8461\u8404\u7cd6\u919b\u9178", "en_name": ["D-Glucuronic acid", "D-Glucuronic acid", "Glucuronic acid, D-", "Glucuronic acid", "D-(+)-Glucuronic acid", "Glucosiduronic acid"], "SMILES": "C(C(C(C=O)O)O)(C(C(O)=O)O)O", "physical_data": {"Molecular Weight": "194.14", "Molecular Formula": "C6H10O7", "Melting Point": "165 \u00b0C"}}