{"cas_no": "6559-91-7", "cn_name": "4'-\u53bb\u7532\u57fa\u8868\u9b3c\u81fc\u6bd2\u7d20", "en_name": ["(-)-4\u2032-Demethylepipodophyllotoxin", "Furo[3\u2032,4\u2032:6,7]naphtho[2,3-d]-1,3-dioxol-6(5aH)-one, 5,8,8a,9-tetrahydro-9-hydroxy-5-(4-hydroxy-3,5-dimethoxyphenyl)-, (5R,5aR,8aR,9S)-", "Epipodophyllotoxin, 4\u2032-demethyl-", "Furo[3\u2032,4\u2032:6,7]naphtho[2,3-d]-1,3-dioxol-6(5aH)-one, 5,8,8a,9-tetrahydro-9-hydroxy-5-(4-hydroxy-3,5-dimethoxyphenyl)-, [5R-(5\u03b1,5a\u03b2,8a\u03b1,9\u03b2)]-", "(5R,5aR,8aR,9S)-5,8,8a,9-Tetrahydro-9-hydroxy-5-(4-hydroxy-3,5-dimethoxyphenyl)furo[3\u2032,4\u2032:6,7]naphtho[2,3-d]-1,3-dioxol-6(5aH)-one", "(-)-4\u2032-Demethylepipodophyllotoxin", "4\u2032-Demethylepipodophyllotoxin", "4\u2032-O-demethylepipodophyllotoxin"], "SMILES": "O=C1C2C(C=3C(C(O)C2CO1)=CC4=C(C3)OCO4)C5=CC(OC)=C(O)C(OC)=C5", "physical_data": {"Molecular Weight": "400.38", "Molecular Formula": "C21H20O8", "Melting Point": "228-230 \u00b0C"}}