{"cas_no": "656-31-5", "cn_name": "2-\u6c1f\u82ef\u57fa\u5c3f\u7d20", "en_name": ["N-(2-Fluorophenyl)urea", "Urea, N-(2-fluorophenyl)-", "Urea, (o-fluorophenyl)-", "Urea, (2-fluorophenyl)-", "N-(2-Fluorophenyl)urea", "2-Fluorophenylurea", "NSC 204323", "1-(2-Fluorophenyl)urea"], "SMILES": "N(C(N)=O)C1=C(F)C=CC=C1", "physical_data": {"Molecular Weight": "154.14", "Molecular Formula": "C7H7FN2O", "Melting Point": "187 \u00b0C"}}