{"cas_no": "656-43-9", "cn_name": "2,2,5-\u4e09\u6c1f-1,3-\u82ef\u5e76\u4e8c\u6076\u8302", "en_name": ["2,2,5-Trifluoro-1,3-benzodioxole", "1,3-Benzodioxole, 2,2,5-trifluoro-", "Benzene, 1,2-[(difluoromethylene)dioxy]-4-fluoro-", "2,2,5-Trifluoro-1,3-benzodioxole", "2,2,5-Trifluoro-1,3-dioxaindane"], "SMILES": "FC1(F)OC=2C(O1)=CC(F)=CC2", "physical_data": {"Molecular Weight": "176.09", "Molecular Formula": "C7H3F3O2", "Boiling Point": "128-129 \u00b0C @ Press: 760 Torr"}}