{"cas_no": "656-64-4", "cn_name": "3-\u6eb4-4-\u6c1f\u82ef\u80fa", "en_name": ["3-Bromo-4-fluorobenzenamine", "Benzenamine, 3-bromo-4-fluoro-", "Aniline, 3-bromo-4-fluoro-", "3-Bromo-4-fluorobenzenamine", "3-Bromo-4-fluoroaniline", "3-Bromo-4-fluorophenylamine"], "SMILES": "BrC1=C(F)C=CC(N)=C1", "physical_data": {"Molecular Weight": "190.01", "Molecular Formula": "C6H5BrFN", "Boiling Point": "235 \u00b0C", "Melting Point": "34 \u00b0C"}}