{"cas_no": "656-32-6", "cn_name": "1-(2-\u6c1f\u82ef\u57fa)-2-\u786b\u8132", "en_name": ["N-(2-Fluorophenyl)thiourea", "Thiourea, N-(2-fluorophenyl)-", "Urea, 1-(o-fluorophenyl)-2-thio-", "Thiourea, (2-fluorophenyl)-", "N-(2-Fluorophenyl)thiourea", "(2-Fluorophenyl)thiourea", "1-(2-Fluorophenyl)thiourea", "1-(2-Fluorophenyl)-2-thiourea"], "SMILES": "N(C(N)=S)C1=C(F)C=CC=C1", "physical_data": {"Molecular Weight": "170.21", "Molecular Formula": "C7H7FN2S", "Boiling Point": "139-140 \u00b0C @ Press: 760 Torr", "Melting Point": "138-140 \u00b0C"}}