{"cas_no": "656-53-1", "cn_name": "4-\u7532\u57fa-5-(2-\u4e59\u9170\u6c27\u4e59\u57fa)\u567b\u5511", "en_name": ["5-Thiazoleethanol, 4-methyl-, 5-acetate", "5-Thiazoleethanol, 4-methyl-, 5-acetate", "5-Thiazoleethanol, 4-methyl-, acetate (ester)", "5-Thiazoleethanol, 4-methyl-, acetate", "5-(2-Acetoxyethyl)-4-methylthiazole", "4-Methyl-5-(\u03b2-acetoxyethyl)thiazole", "2-(4-Methylthiazol-5-yl)ethylacetate", "2-(4-Methyl-1,3-thiazol-5-yl)ethyl acetate"], "SMILES": "C(COC(C)=O)C1=C(C)N=CS1", "physical_data": {"Molecular Weight": "185.24", "Molecular Formula": "C8H11NO2S", "Boiling Point": "123 \u00b0C @ Press: 4 Torr", "Melting Point": "112 \u00b0C"}}