{"cas_no": "656-46-2", "cn_name": "2,2-\u4e8c\u6c1f-1,3-\u82ef\u5e76\u4e8c\u6076\u8302-5-\u7532\u9178", "en_name": ["2,2-Difluoro-1,3-benzodioxole-5-carboxylic acid", "1,3-Benzodioxole-5-carboxylic acid, 2,2-difluoro-", "Benzoic acid, 3,4-[(difluoromethylene)dioxy]-", "2,2-Difluoro-1,3-benzodioxole-5-carboxylic acid", "Piperonylic acid, \u03b1,\u03b1-difluoro-", "2,2-Difluoro-benzo[1,3]dioxol-5-carboxylic acid", "2,2-Difluorobenzodioxole-5-carboxylic acid", "2,2-Difluorobenzo[d][1,3]dioxole-5-carboxylic acid", "2,2-Difluoro-2H-1,3-benzodioxole-5-carboxylic acid", "2,2-Difluoro-1,3-dioxaindane-5-carboxylic acid"], "SMILES": "C(O)(=O)C=1C=C2C(OC(F)(F)O2)=CC1", "physical_data": {"Molecular Weight": "202.11", "Molecular Formula": "C8H4F2O4", "Melting Point": "153-154 \u00b0C"}}