{"cas_no": "65615-90-9", "cn_name": "(2S)-3-(4-\u6c28\u57fa\u82ef\u57fa)-2-[(\u53d4\u4e01\u6c27\u57fa\u7fb0\u57fa)\u6c28\u57fa]\u4e19\u9178\u7532\u916f", "en_name": ["4-Amino-N-[(1,1-dimethylethoxy)carbonyl]-L-phenylalanine methyl ester", "L-Phenylalanine, 4-amino-N-[(1,1-dimethylethoxy)carbonyl]-, methyl ester", "4-Amino-N-[(1,1-dimethylethoxy)carbonyl]-L-phenylalanine methyl ester", "Methyl (2S)-3-(4-aminophenyl)-2-[(tert-butoxycarbonyl)amino]propanoate", "(s)-Methyl 3-(4-aminophenyl)-2-((tert-butoxycarbonyl)amino)propanoate"], "SMILES": "C(CC1=CC=C(N)C=C1)(NC(OC(C)(C)C)=O)C(OC)=O", "physical_data": {"Molecular Weight": "294.35", "Molecular Formula": "C15H22N2O4", "Melting Point": "85-87 \u00b0C"}}