{"cas_no": "6564-72-3", "cn_name": "2,3,4,6-\u56db-o-\u82c4\u57fa-D-\u5421\u5583\u8461\u8404\u7cd6", "en_name": ["2,3,4,6-Tetrakis-O-(phenylmethyl)-\u03b1-D-glucopyranose", "\u03b1-D-Glucopyranose, 2,3,4,6-tetrakis-O-(phenylmethyl)-", "Glucopyranose, 2,3,4,6-tetra-O-benzyl-, \u03b1-D-", "2,3,4,6-Tetrakis-O-(phenylmethyl)-\u03b1-D-glucopyranose", "2,3,4,6-Tetra-O-benzyl-\u03b1-D-glucopyranose", "2, 3, 4, 6-Tetra-O-Benzyl-\u03b1-D-glucopyranose", "2,3,4,6-Tetra-O-benzyl-\u03b1-D-glucose"], "SMILES": "O(CC1=CC=CC=C1)C2C(OCC3=CC=CC=C3)C(COCC4=CC=CC=C4)OC(O)C2OCC5=CC=CC=C5", "physical_data": {"Molecular Weight": "540.65", "Molecular Formula": "C34H36O6", "Melting Point": "148 \u00b0C"}}