{"cas_no": "65646-68-6", "cn_name": "\u7ef4\u7532\u9170\u915a\u80fa", "en_name": ["Fenretinide", "Retinamide, N-(4-hydroxyphenyl)-", "N-(4-Hydroxyphenyl)retinamide", "N-(4-Hydroxyphenyl)-all-trans-retinamide", "Retinoic acid p-hydroxyphenylamide", "Fenretinide", "all-trans-N-(4-Hydroxyphenyl)retinamide", "(4-Hydroxyphenyl)retinamide", "Ro 22-4667", "4-HPR", "all-trans-4\u2032-Hydroxyretinanilide", "RII retinamide", "MK 4016", "Retinoic acid p-hydroxyanilide", "ST-001 nanoFenretinide", "MeSH ID: D017313"], "SMILES": "C(=CC(=CC=CC(=CC(NC1=CC=C(O)C=C1)=O)C)C)C=2C(C)(C)CCCC2C", "physical_data": {"Molecular Weight": "391.55", "Molecular Formula": "C26H33NO2", "Melting Point": "173-175 \u00b0C"}}