{"cas_no": "65666-07-1", "cn_name": "\u6c34\u98de\u84df\u7d20", "en_name": ["Silymarin", "Silymarin", "Legalon 70", "Legalon", "Flavobion", "Pluropon", "Silirex", "Silmar", "Silarin", "Apihepar", "Silymarin Group", "Silepar", "Laragon", "Karsilin", "Silistrong", "Silystrong", "Darsil", "Silybon", "MeSH ID: D012838"], "SMILES": "", "physical_data": {"Molecular Weight": "", "Molecular Formula": "Unspecified", "Melting Point": "158 \u00b0C"}}