{"cas_no": "65676-21-3", "cn_name": "\u6c2f\u82ef\u90a3\u654fEP\u6742\u8d28D", "en_name": ["\u03b1-(4-Chlorophenyl)-\u03b1-[2-(dimethylamino)ethyl]-2-pyridineacetonitrile", "2-Pyridineacetonitrile, \u03b1-(4-chlorophenyl)-\u03b1-[2-(dimethylamino)ethyl]-", "2-Pyridineacetonitrile, \u03b1-(p-chlorophenyl)-\u03b1-[2-(dimethylamino)ethyl]-", "\u03b1-(4-Chlorophenyl)-\u03b1-[2-(dimethylamino)ethyl]-2-pyridineacetonitrile", "2-(4-Chlorophenyl)-4-(dimethylamino)-2-pyridin-2-ylbutanenitrile"], "SMILES": "C(CCN(C)C)(C#N)(C1=CC=C(Cl)C=C1)C2=CC=CC=N2", "physical_data": {"Molecular Weight": "299.80", "Molecular Formula": "C17H18ClN3", "Boiling Point": "154-164 \u00b0C @ Press: 0.2 Torr"}}