{"cas_no": "65673-63-4", "cn_name": "\u4e59\u57fa-2-\u6c28\u57fa-6-\u6eb4-4-(1-\u6c30\u57fa-2-\u4e59\u6c27\u57fa-2-\u7532\u9170)-4H-\u82ef\u5e76\u544b\u5583-3-\u7fa7\u9178", "en_name": ["rel-Ethyl (\u03b1R,4R)-2-amino-6-bromo-\u03b1-cyano-3-(ethoxycarbonyl)-4H-1-benzopyran-4-acetate", "4H-1-Benzopyran-4-acetic acid, 2-amino-6-bromo-\u03b1-cyano-3-(ethoxycarbonyl)-, ethyl ester, (\u03b1R,4R)-rel-", "rel-Ethyl (\u03b1R,4R)-2-amino-6-bromo-\u03b1-cyano-3-(ethoxycarbonyl)-4H-1-benzopyran-4-acetate", "HA 14-1", "H 8787"], "SMILES": "C(C(OCC)=O)(C#N)C1C=2C(OC(N)=C1C(OCC)=O)=CC=C(Br)C2", "physical_data": {"Molecular Weight": "409.23", "Molecular Formula": "C17H17BrN2O5", "Melting Point": "107-108 \u00b0C"}}