{"cas_no": "656820-32-5", "cn_name": "REVERSINE", "en_name": ["Reversine", "9H-Purine-2,6-diamine, N6-cyclohexyl-N2-[4-(4-morpholinyl)phenyl]-", "1H-Purine-2,6-diamine, N6-cyclohexyl-N2-[4-(4-morpholinyl)phenyl]-", "N6-Cyclohexyl-N2-[4-(4-morpholinyl)phenyl]-9H-purine-2,6-diamine", "Reversine"], "SMILES": "N(C1=C2C(=NC(NC3=CC=C(C=C3)N4CCOCC4)=N1)N=CN2)C5CCCCC5", "physical_data": {"Molecular Weight": "393.49", "Molecular Formula": "C21H27N7O", "Melting Point": "305 \u00b0C (decomp)"}}