{"cas_no": "65685-51-0", "cn_name": "6-\u6eb4\u82ef\u5e76[D]\u5f02\u6076\u5511-3(2H)-\u916e", "en_name": ["6-Bromo-1,2-benzisoxazol-3(2H)-one", "1,2-Benzisoxazol-3(2H)-one, 6-bromo-", "6-Bromo-1,2-benzisoxazol-3(2H)-one", "6-Bromo-3-hydroxybenzisoxazole", "6-Bromobenzo[d]isoxazol-3-ol"], "SMILES": "O=C1C=2C(ON1)=CC(Br)=CC2", "physical_data": {"Molecular Weight": "214.02", "Molecular Formula": "C7H4BrNO2", "Melting Point": "225-227 \u00b0C"}}