{"cas_no": "657-06-7", "cn_name": "2-\u6c2f-5-(\u4e09\u6c1f\u7532\u57fa)\u82ef\u7532\u9178", "en_name": ["2-Chloro-5-(trifluoromethyl)benzoic acid", "Benzoic acid, 2-chloro-5-(trifluoromethyl)-", "m-Toluic acid, 6-chloro-\u03b1,\u03b1,\u03b1-trifluoro-", "2-Chloro-5-(trifluoromethyl)benzoic acid"], "SMILES": "C(O)(=O)C1=CC(C(F)(F)F)=CC=C1Cl", "physical_data": {"Molecular Weight": "224.56", "Molecular Formula": "C8H4ClF3O2", "Melting Point": "92.5-93.5 \u00b0C"}}