{"cas_no": "657-24-9", "cn_name": "\u4e8c\u7532\u53cc\u80cd", "en_name": ["Metformin", "Imidodicarbonimidic diamide, N,N-dimethyl-", "Biguanide, 1,1-dimethyl-", "N,N-Dimethylimidodicarbonimidic diamide", "N,N-Dimethylbiguanide", "N1,N1-Dimethylbiguanide", "1,1-Dimethylbiguanide", "N,N-Dimethyldiguanide", "Flumamine", "Metformin", "NNDG", "Dimethylbiguanide", "DMGG", "Fluamine", "Gliguanid", "Haurymelin", "Metiguanide", "Siofor", "N\u2032-Dimethylguanylguanidine", "Metphage", "Ficonax", "Emiphage", "Cidophage", "Glucofine", "Glifor", "1-[Amino(dimethylamino)methylidene]guanidine", "1-Carbamimidamido-N,N-dimethylmethanimidamide", "[[Amino(dimethylamino)methylidene]amino]methanimidamide", "Okamet", "MeSH ID: D008687"], "SMILES": "C(NC(=N)N)(N(C)C)=N", "physical_data": {"Molecular Weight": "129.16", "Molecular Formula": "C4H11N5", "Melting Point": "232-233 \u00b0C"}}