{"cas_no": "657-27-2", "cn_name": "L-\u8d56\u6c28\u9178\u76d0\u9178\u76d0", "en_name": ["L-Lysine monohydrochloride", "L-Lysine, hydrochloride (1:1)", "Lysine, monohydrochloride, L-", "L-Lysine, monohydrochloride", "Darvyl", "Lyamine", "Lysine monohydrochloride", "Lysine hydrochloride", "L-Lysine hydrochloride", "L-Gen", "Lysion", "NSC 9253", "L-(+)-Lysine monohydrochloride", "Relys", "Bovi-Lysine", "L-Lysine monohydrochloride", "L 5626", "(2S)-2,6-Diaminohexanoic acid hydrochloride", "(S)-2,6-Diaminohexanoic acid hydrochloride"], "SMILES": "C(CCCCN)(C(O)=O)N.Cl", "physical_data": {"Molecular Weight": "", "Molecular Formula": "C6H14N2O2.ClH", "Melting Point": "251-253 \u00b0C"}}