{"cas_no": "657-36-3", "cn_name": "4-(\u4e09\u6c1f\u7532\u57fa)\u54cc\u5576", "en_name": ["4-(Trifluoromethyl)piperidine", "Piperidine, 4-(trifluoromethyl)-", "4-(Trifluoromethyl)piperidine"], "SMILES": "C(F)(F)(F)C1CCNCC1", "physical_data": {"Molecular Weight": "153.15", "Molecular Formula": "C6H10F3N", "Boiling Point": "133 \u00b0C"}}