{"cas_no": "657-15-8", "cn_name": "3'-\u785d\u57fa-2,2,2-\u4e09\u6c1f\u4e59\u9170\u57fa\u82ef", "en_name": ["2,2,2-Trifluoro-1-(3-nitrophenyl)ethanone", "Ethanone, 2,2,2-trifluoro-1-(3-nitrophenyl)-", "Acetophenone, 2,2,2-trifluoro-3\u2032-nitro-", "2,2,2-Trifluoro-1-(3-nitrophenyl)ethanone", "m-Nitro-\u03b1,\u03b1,\u03b1-trifluoroacetophenone", "3\u2032-Nitro-2,2,2-trifluoroacetophenone", "3-Nitrotrifluoroacetophenone", "1-(3-Nitrophenyl)-2,2,2-trifluoro-ethanone", "2,2,2-Trifluoro-1-(3-nitrophenyl)ethan-1-one"], "SMILES": "C(C(F)(F)F)(=O)C1=CC(N(=O)=O)=CC=C1", "physical_data": {"Molecular Weight": "219.12", "Molecular Formula": "C8H4F3NO3", "Melting Point": "58-59 \u00b0C"}}