{"cas_no": "657-26-1", "cn_name": "L-\u8d56\u6c28\u9178\u4e8c\u76d0\u9178\u76d0", "en_name": ["L-Lysine, dihydrochloride", "L-Lysine, hydrochloride (1:2)", "Lysine, dihydrochloride, L-", "L-Lysine, dihydrochloride", "Lysine dihydrochloride"], "SMILES": "C(CCCCN)(C(O)=O)N.Cl", "physical_data": {"Molecular Weight": "", "Molecular Formula": "C6H14N2O2.2ClH", "Melting Point": "183-185 \u00b0C"}}