{"cas_no": "65717-97-7", "cn_name": "\u5730\u7d22\u82ef\u5b81", "en_name": ["Disofenin", "Glycine, N-[2-[[2,6-bis(1-methylethyl)phenyl]amino]-2-oxoethyl]-N-(carboxymethyl)-", "N-[2-[[2,6-Bis(1-methylethyl)phenyl]amino]-2-oxoethyl]-N-(carboxymethyl)glycine", "Disofenin", "DISIDA", "N-[[(2,6-Diisopropylphenyl)carbamoyl]methyl]iminodiacetic acid", "2-[Carboxymethyl-[2-[2,6-di(propan-2-yl)anilino]-2-oxoethyl]amino]acetic acid"], "SMILES": "N(C(CN(CC(O)=O)CC(O)=O)=O)C1=C(C(C)C)C=CC=C1C(C)C", "physical_data": {"Molecular Weight": "350.41", "Molecular Formula": "C18H26N2O5", "Melting Point": "198-200 \u00b0C"}}