{"cas_no": "6573-11-1", "cn_name": "1,4,7-\u4e09\u786b\u73af\u58ec\u70f7", "en_name": ["1,4,7-Trithiacyclononane", "1,4,7-Trithionane", "1,4,7-Trithiacyclononane", "9-Thiacrown-3", "NSC 650798"], "SMILES": "C1CSCCSCCS1", "physical_data": {"Molecular Weight": "180.35", "Molecular Formula": "C6H12S3", "Boiling Point": "79-80 \u00b0C @ Press: 760 Torr"}}