{"cas_no": "65731-84-2", "cn_name": "\u9ad8\u6548\u6c2f\u6c30\u83ca\u916f", "en_name": ["(S)-Cyano(3-phenoxyphenyl)methyl (1R,3R)-3-(2,2-dichloroethenyl)-2,2-dimethylcyclopropanecarboxylate", "Cyclopropanecarboxylic acid, 3-(2,2-dichloroethenyl)-2,2-dimethyl-, (S)-cyano(3-phenoxyphenyl)methyl ester, (1R,3R)-", "Cyclopropanecarboxylic acid, 3-(2,2-dichloroethenyl)-2,2-dimethyl-, cyano(3-phenoxyphenyl)methyl ester, [1R-[1\u03b1(S*),3\u03b1]]-", "(S)-Cyano(3-phenoxyphenyl)methyl (1R,3R)-3-(2,2-dichloroethenyl)-2,2-dimethylcyclopropanecarboxylate", "NRDC 168S", "RU 24501", "WL 48281"], "SMILES": "C(OC(C#N)C1=CC(OC2=CC=CC=C2)=CC=C1)(=O)C3C(C=C(Cl)Cl)C3(C)C", "physical_data": {"Molecular Weight": "416.30", "Molecular Formula": "C22H19Cl2NO3", "Melting Point": "53-55 \u00b0C"}}