{"cas_no": "6574-97-6", "cn_name": "2,3-\u4e8c\u6c2f\u82ef\u8148", "en_name": ["2,3-Dichlorobenzonitrile", "Benzonitrile, 2,3-dichloro-", "2,3-Dichlorobenzonitrile", "2,3-Dichlorophenyl cyanide"], "SMILES": "C(#N)C1=C(Cl)C(Cl)=CC=C1", "physical_data": {"Molecular Weight": "172.01", "Molecular Formula": "C7H3Cl2N", "Melting Point": "60-61 \u00b0C"}}