{"cas_no": "6574-99-8", "cn_name": "3,4-\u4e8c\u6c2f\u82ef\u8148", "en_name": ["3,4-Dichlorobenzonitrile", "Benzonitrile, 3,4-dichloro-", "3,4-Dichlorobenzonitrile"], "SMILES": "C(#N)C1=CC(Cl)=C(Cl)C=C1", "physical_data": {"Molecular Weight": "172.01", "Molecular Formula": "C7H3Cl2N", "Boiling Point": "129-130 \u00b0C @ Press: 0.01 Torr", "Melting Point": "72.1 \u00b0C"}}