{"cas_no": "657408-07-6", "cn_name": "2-\u53cc\u73af\u5df1\u57fa\u81a6-2',6'-\u4e8c\u7532\u6c27\u57fa\u8054\u82ef", "en_name": ["2-Dicyclohexylphosphino-2\u2032,6\u2032-dimethoxybiphenyl", "Phosphine, dicyclohexyl(2\u2032,6\u2032-dimethoxy[1,1\u2032-biphenyl]-2-yl)-", "Dicyclohexyl(2\u2032,6\u2032-dimethoxy[1,1\u2032-biphenyl]-2-yl)phosphine", "2-Dicyclohexylphosphino-2\u2032,6\u2032-dimethoxybiphenyl", "2-(Dicyclohexylphosphino)-2\u2032,6\u2032-dimethoxy-1,1\u2032-biphenyl", "Dicyclohexyl(2\u2032,6\u2032-dimethoxybiphenyl-2-yl)phosphine", "S-Phos", "(2,6-Dimethoxy-1,1\u2032-biphenyl-2-yl)dicyclohexylphosphine", "(2\u2032,6\u2032-Dimethoxy-[1,1\u2032-Biphenyl]-2-yl)dicyclohexylphosphine"], "SMILES": "P(C1=C(C=CC=C1)C2=C(OC)C=CC=C2OC)(C3CCCCC3)C4CCCCC4", "physical_data": {"Molecular Weight": "410.53", "Molecular Formula": "C26H35O2P", "Melting Point": "125-127 \u00b0C"}}