{"cas_no": "6574-98-7", "cn_name": "2,4-\u4e8c\u6c2f\u82ef\u8148", "en_name": ["2,4-Dichlorobenzonitrile", "Benzonitrile, 2,4-dichloro-", "2,4-Dichlorobenzonitrile"], "SMILES": "C(#N)C1=C(Cl)C=C(Cl)C=C1", "physical_data": {"Molecular Weight": "172.01", "Molecular Formula": "C7H3Cl2N", "Melting Point": "61 \u00b0C"}}