{"cas_no": "6574-15-8", "cn_name": "1-(4-\u785d\u57fa\u82ef\u57fa)\u54cc\u5576", "en_name": ["1-(4-Nitrophenyl)piperidine", "Piperidine, 1-(4-nitrophenyl)-", "Piperidine, 1-(p-nitrophenyl)-", "1-(4-Nitrophenyl)piperidine", "N-(p-Nitrophenyl)piperidine", "p-(1-Piperidinyl)nitrobenzene", "p-Nitropiperidinobenzene", "4-Piperidinonitrobenzene", "N-(4-Nitrophenyl)piperidine", "1-(p-Nitrophenyl)piperidine", "NSC 15441"], "SMILES": "N(=O)(=O)C1=CC=C(C=C1)N2CCCCC2", "physical_data": {"Molecular Weight": "206.24", "Molecular Formula": "C11H14N2O2", "Melting Point": "114 \u00b0C"}}