{"cas_no": "6575-13-9", "cn_name": "2\uff0c 6-\u4e8c\u7532\u57fa\u82c4\u6c30", "en_name": ["2,6-Dimethylbenzonitrile", "Benzonitrile, 2,6-dimethyl-", "2,6-Dimethylbenzonitrile", "2-Cyano-1,3-dimethylbenzene", "NSC 98304"], "SMILES": "C(#N)C1=C(C)C=CC=C1C", "physical_data": {"Molecular Weight": "131.17", "Molecular Formula": "C9H9N", "Boiling Point": "70-75 \u00b0C @ Press: 0.03 Torr", "Melting Point": "89-90 \u00b0C"}}