{"cas_no": "6575-24-2", "cn_name": "2,6-\u4e8c\u6c2f\u82ef\u4e59\u9178", "en_name": ["2,6-Dichlorophenylacetic acid", "Benzeneacetic acid, 2,6-dichloro-", "Acetic acid, (2,6-dichlorophenyl)-", "2,6-Dichlorobenzeneacetic acid", "2,6-Dichlorophenylacetic acid", "2-(2,6-Dichlorophenyl)acetic acid"], "SMILES": "C(C(O)=O)C1=C(Cl)C=CC=C1Cl", "physical_data": {"Molecular Weight": "205.04", "Molecular Formula": "C8H6Cl2O2", "Melting Point": "156-157 \u00b0C"}}