{"cas_no": "65756-41-4", "cn_name": "4-\u4e59\u57fa-4-\u7532\u57fa\u5417\u5549\u6eb4\u76d0", "en_name": ["Morpholinium, 4-ethyl-4-methyl-, bromide (1:1)", "Morpholinium, 4-ethyl-4-methyl-, bromide (1:1)", "Morpholinium, 4-ethyl-4-methyl-, bromide", "N-Ethyl-N-methylmorpholinium bromide", "4-Ethyl-4-methylmorpholinium bromide"], "SMILES": "C(C)[N+]1(C)CCOCC1.[Br-]", "physical_data": {"Molecular Weight": "", "Molecular Formula": "C7H16NO.Br", "Melting Point": "170 \u00b0C"}}