{"cas_no": "6575-10-6", "cn_name": "2-\u6c2f-6-\u7532\u6c27\u57fa\u6c30\u82ef", "en_name": ["2-Chloro-6-methoxybenzonitrile", "Benzonitrile, 2-chloro-6-methoxy-", "o-Anisonitrile, 6-chloro-", "2-Chloro-6-methoxybenzonitrile", "6-Chloro-2-methoxybenzonitrile", "6-Chloro-o-anisonitrile", "2-Methoxy-6-chlorobenzonitrile"], "SMILES": "O(C)C1=C(C#N)C(Cl)=CC=C1", "physical_data": {"Molecular Weight": "167.59", "Molecular Formula": "C8H6ClNO", "Melting Point": "114 \u00b0C"}}