{"cas_no": "6575-09-3", "cn_name": "2-\u6c2f-6-\u7532\u57fa\u82c4\u8148", "en_name": ["2-Chloro-6-methylbenzonitrile", "Benzonitrile, 2-chloro-6-methyl-", "o-Tolunitrile, 6-chloro-", "2-Chloro-6-methylbenzonitrile", "2-Cyano-3-chlorotoluene", "6-Chloro-2-methylbenzonitrile", "1-Cyano-2-chloro-6-methylbenzene", "NSC 80657"], "SMILES": "C(#N)C1=C(C)C=CC=C1Cl", "physical_data": {"Molecular Weight": "151.59", "Molecular Formula": "C8H6ClN", "Melting Point": "83-85 \u00b0C"}}