{"cas_no": "6575-07-1", "cn_name": "2-\u6c2f-6-\u785d\u57fa\u82ef\u7532\u8148", "en_name": ["2-Chloro-6-nitrobenzonitrile", "Benzonitrile, 2-chloro-6-nitro-", "2-Chloro-6-nitrobenzonitrile", "3-Chloro-2-cyanonitrobenzene", "3-Chloro-2-cyano-1-nitrobenzene"], "SMILES": "C(#N)C1=C(N(=O)=O)C=CC=C1Cl", "physical_data": {"Molecular Weight": "182.56", "Molecular Formula": "C7H3ClN2O2", "Melting Point": "122-123 \u00b0C"}}