{"cas_no": "6575-00-4", "cn_name": "3,5-\u4e8c\u6c2f\u82ef\u8148", "en_name": ["3,5-Dichlorobenzonitrile", "Benzonitrile, 3,5-dichloro-", "3,5-Dichlorobenzonitrile", "NSC 109596"], "SMILES": "C(#N)C1=CC(Cl)=CC(Cl)=C1", "physical_data": {"Molecular Weight": "172.01", "Molecular Formula": "C7H3Cl2N", "Melting Point": "64-65 \u00b0C"}}