{"cas_no": "6575-11-7", "cn_name": "2-\u6c28\u57fa-6-\u6c2f\u82ef\u7532\u8148", "en_name": ["2-Amino-6-chlorobenzonitrile", "Benzonitrile, 2-amino-6-chloro-", "Anthranilonitrile, 6-chloro-", "2-Amino-6-chlorobenzonitrile", "6-Amino-2-chlorobenzonitrile", "6-Chloroanthranilonitrile", "NSC 129936", "3-Chloro-2-cyanoaniline"], "SMILES": "C(#N)C1=C(Cl)C=CC=C1N", "physical_data": {"Molecular Weight": "152.58", "Molecular Formula": "C7H5ClN2", "Melting Point": "136-137 \u00b0C"}}