{"cas_no": "6577-41-9", "cn_name": "\u5965\u6c99\u7898\u94f5", "en_name": ["Oxapium iodide", "Piperidinium, 1-[(2-cyclohexyl-2-phenyl-1,3-dioxolan-4-yl)methyl]-1-methyl-, iodide (1:1)", "Piperidinium, 1-[(2-cyclohexyl-2-phenyl-1,3-dioxolan-4-yl)methyl]-1-methyl-, iodide", "1-[(2-Cyclohexyl-2-phenyl-1,3-dioxolan-4-yl)methyl]-1-methylpiperidinium iodide", "1-(2-Phenyl-2-cyclohexyl-1,3-dioxolan-4-ylmethyl)-1-methylpiperidinium iodide", "SH 100", "Cyclonium iodide", "Esperan", "Ciclonium iodide", "Oxapium iodide", "ANC 113"], "SMILES": "C(C1OC(OC1)(C2CCCCC2)C3=CC=CC=C3)[N+]4(C)CCCCC4.[I-]", "physical_data": {"Molecular Weight": "", "Molecular Formula": "C22H34NO2.I", "Melting Point": "150-151 \u00b0C"}}