{"cas_no": "6578-06-9", "cn_name": "5-\u6eb4-4-\u6c2f-3-\u5432\u54da\u57fa\u78f7\u9178\u916f\u5bf9\u7532\u82ef\u80fa\u76d0", "en_name": ["5-Bromo-4-chloro-3-indolyl phosphate p-toluidine salt", "1H-Indol-3-ol, 5-bromo-4-chloro-, 3-(dihydrogen phosphate), compd. with 4-methylbenzenamine (1:1)", "Indol-3-ol, 5-bromo-4-chloro-, dihydrogen phosphate (ester), compd. with p-toluidine (1:1)", "1H-Indol-3-ol, 5-bromo-4-chloro-, dihydrogen phosphate (ester), compd. with 4-methylbenzenamine (1:1)", "Indol-3-ol, 5-bromo-4-chloro-, dihydrogen phosphate, compd. with p-toluidine", "p-Toluidine, compd. with 5-bromo-4-chloroindol-3-ol dihydrogen phosphate (ester) (1:1)", "Benzenamine, 4-methyl-, compd. with 5-bromo-4-chloro-1H-indol-3-yl dihydrogen phosphate (1:1)", "5-Bromo-4-chloro-3-indolol phosphate mono-p-toluidine salt", "5-Bromo-4-chloro-3-indolyl phosphate p-toluidine salt"], "SMILES": "CC1=CC=C(N)C=C1.O(P(=O)(O)O)C=1C=2C(NC1)=CC=C(Br)C2Cl", "physical_data": {"Molecular Weight": "", "Molecular Formula": "C8H6BrClNO4P.C7H9N", "Melting Point": "194-195 \u00b0C"}}