{"cas_no": "6578-07-0", "cn_name": "5-\u6eb4-4-\u6c2f-3-\u5432\u7f9f\u786b\u9178\u94be", "en_name": ["1H-Indol-3-ol, 5-bromo-4-chloro-, 3-(hydrogen sulfate), potassium salt (1:1)", "1H-Indol-3-ol, 5-bromo-4-chloro-, 3-(hydrogen sulfate), potassium salt (1:1)", "Indol-3-ol, 5-bromo-4-chloro-, hydrogen sulfate (ester), K salt", "Indol-3-ol, 5-bromo-4-chloro-, hydrogen sulfate, potassium salt", "1H-Indol-3-ol, 5-bromo-4-chloro-, hydrogen sulfate (ester), monopotassium salt"], "SMILES": "O(S(=O)(=O)O)C=1C=2C(NC1)=CC=C(Br)C2Cl.[K]", "physical_data": {"Molecular Weight": "", "Molecular Formula": "C8H5BrClNO4S.K", "Melting Point": "200-202 \u00b0C"}}