{"cas_no": "65799-47-5", "cn_name": "3-[(2,3)-\u73af\u6c27\u4e19\u6c27]\u4e19\u57fa\u7532\u57fa\u4e8c\u7532\u6c27\u57fa\u7845\u70f7", "en_name": ["(3-Glycidoxypropyl)methyldimethoxysilane", "Oxirane, 2-[[3-(dimethoxymethylsilyl)propoxy]methyl]-", "Silane, dimethoxymethyl[3-(oxiranylmethoxy)propyl]-", "2-[[3-(Dimethoxymethylsilyl)propoxy]methyl]oxirane", "(\u03b3-Glycidoxypropyl)methyldimethoxysilane", "Sila-Ace S 520", "SH 6023", "(3-Glycidoxypropyl)methyldimethoxysilane", "(3-Glycidyloxypropyl)dimethoxymethylsilane", "S 520", "\u03b3-Glycidoxypropyldimethoxymethylsilane", "AY 43-026", "3-Glycidyloxypropylmethyldimethoxysilane", "\u03b3-Glycidyloxypropyldimethoxymethylsilane", "TSL 8355", "AZ 6137", "AP Silane 55", "GOPS MDM", "Z 6044", "WD 61", "SIG 5836.0", "3-Glycidoxypropyldimethoxymethylsilane", "Dimethoxy[3-(2-oxiranylmethoxy)propyl]methylsilane", "LMD 61", "DB 561", "GC 561", "KBM 402", "\u03b3-Glycidyloxypropylmethyldimethoxysilane", "AC 661", "KH 562", "KH 564", "CG 561", "KH 781"], "SMILES": "C(OCCC[Si](OC)(OC)C)C1CO1", "physical_data": {"Molecular Weight": "220.34", "Molecular Formula": "C9H20O4Si", "Boiling Point": "100 \u00b0C @ Press: 4 Torr", "Density": "1.020 g/cm\u00b3"}}