{"cas_no": "6579-55-1", "cn_name": "1-((2-\u7f9f\u57fa\u4e59\u57fa)\u6c28\u57fa)\u4e19-2-\u9187", "en_name": ["Ethanolisopropanolamine", "2-Propanol, 1-[(2-hydroxyethyl)amino]-", "1-[(2-Hydroxyethyl)amino]-2-propanol", "Ethanolisopropanolamine", "NSC 86953"], "SMILES": "C(NCCO)C(C)O", "physical_data": {"Molecular Weight": "119.16", "Molecular Formula": "C5H13NO2", "Boiling Point": "163-166 \u00b0C @ Press: 35 Torr", "Density": "1.042 g/cm\u00b3 @ Temp: 25 \u00b0C"}}