{"cas_no": "658-28-6", "cn_name": "3-\u6c1f\u8334\u9999\u786b\u919a", "en_name": ["1-Fluoro-3-(methylthio)benzene", "Benzene, 1-fluoro-3-(methylthio)-", "Sulfide, m-fluorophenyl methyl", "1-Fluoro-3-(methylthio)benzene", "m-Fluorophenyl methyl sulfide", "3-Fluorophenyl methyl sulfide", "3-Fluorothioanisole", "1-Fluoro-3-(methylsulfanyl)benzene", "1-Fluoro-3-methylsulfanylbenzene"], "SMILES": "S(C)C1=CC(F)=CC=C1", "physical_data": {"Molecular Weight": "142.19", "Molecular Formula": "C7H7FS", "Boiling Point": "70-71 \u00b0C @ Press: 13 Torr"}}