{"cas_no": "658-78-6", "cn_name": "\u5bf9\u785d\u57fa\u4e09\u6c1f\u4e59\u9178\u82ef\u916f", "en_name": ["Acetic acid, 2,2,2-trifluoro-, 4-nitrophenyl ester", "Acetic acid, 2,2,2-trifluoro-, 4-nitrophenyl ester", "Acetic acid, trifluoro-, p-nitrophenyl ester", "Acetic acid, trifluoro-, 4-nitrophenyl ester", "Trifluoroacetic acid p-nitrophenyl ester", "4-Nitrophenyl trifluoroacetate", "p-Nitrophenyl trifluoroacetate", "NSC 93909", "(4-Nitrophenyl) 2,2,2-trifluoroacetate"], "SMILES": "O(C(C(F)(F)F)=O)C1=CC=C(N(=O)=O)C=C1", "physical_data": {"Molecular Weight": "235.12", "Molecular Formula": "C8H4F3NO4", "Melting Point": "37-39 \u00b0C"}}