{"cas_no": "658-93-5", "cn_name": "3,4-\u4e8c\u6c1f\u82ef\u4e59\u9178", "en_name": ["(3,4-Difluorophenyl)acetic acid", "Benzeneacetic acid, 3,4-difluoro-", "Acetic acid, (3,4-difluorophenyl)-", "3,4-Difluorobenzeneacetic acid", "(3,4-Difluorophenyl)acetic acid", "2-(3,4-Difluorophenyl)acetic acid"], "SMILES": "C(C(O)=O)C1=CC(F)=C(F)C=C1", "physical_data": {"Molecular Weight": "172.13", "Molecular Formula": "C8H6F2O2", "Melting Point": "40-42 \u00b0C"}}