{"cas_no": "658-79-7", "cn_name": "\u7518\u6c28\u9170-L-\u916a\u6c28\u9178", "en_name": ["Glycyl-L-tyrosine", "L-Tyrosine, glycyl-", "Tyrosine, N-glycyl-, L-", "L-Tyrosine, N-glycyl-", "Glycyl-L-tyrosine", "Glycyltyrosine", "N-Glycyltyrosine", "Glycine-tyrosine", "NSC 83260", "5: PN: WO2008106043 TABLE: 6 claimed protein", "2: PN: WO2014063098 TABLE: 5 claimed protein", "39: PN: US20130123467 SEQID: 43 claimed protein", "Gly-L-Try", "5: PN: WO2008106043 TABLE: 6 claimed sequence", "1: PN: JP2018014956 PAGE: 2 claimed sequence", "(2S)-2-[(2-Azaniumylacetyl)amino]-3-(4-hydroxyphenyl)propanoate", "(S)-2-(2-Aminoacetamido)-3-(4-hydroxyphenyl)propanoic acid", "(2S)-2-(2-Aminoacetamido)-3-(4-hydroxyphenyl)propanoic acid", "34: PN: WO2022012559 SEQID: 36 claimed protein", "72: PN: WO2022117050 SEQID: 81 claimed protein", "468: PN: WO2022125673 SEQID: 468 claimed protein"], "SMILES": "C(C(NC(CN)=O)C(O)=O)C1=CC=C(O)C=C1", "physical_data": {"Molecular Weight": "238.24", "Molecular Formula": "C11H14N2O4", "Melting Point": "130 \u00b0C (decomp)"}}