{"cas_no": "658-99-1", "cn_name": "3,4-\u4e8c\u6c1f\u82ef\u4e59\u8148", "en_name": ["3,4-Difluorobenzeneacetonitrile", "Benzeneacetonitrile, 3,4-difluoro-", "Acetonitrile, (3,4-difluorophenyl)-", "3,4-Difluorobenzeneacetonitrile", "(3,4-Difluorophenyl)acetonitrile", "3,4-Difluorobenzyl cyanide", "2-(3,4-Difluorophenyl)acetonitrile"], "SMILES": "C(C#N)C1=CC(F)=C(F)C=C1", "physical_data": {"Molecular Weight": "153.13", "Molecular Formula": "C8H5F2N", "Boiling Point": "110-120 \u00b0C @ Press: 13 Torr"}}