{"cas_no": "658-07-1", "cn_name": "2,6-\u4e8c\u6c1f-4-\u785d\u57fa-\u82ef\u915a", "en_name": ["2,6-Difluoro-4-nitrophenol", "Phenol, 2,6-difluoro-4-nitro-", "2,6-Difluoro-4-nitrophenol", "4-Nitro-2,6-difluorophenol"], "SMILES": "N(=O)(=O)C1=CC(F)=C(O)C(F)=C1", "physical_data": {"Molecular Weight": "175.09", "Molecular Formula": "C6H3F2NO3", "Melting Point": "103-105 \u00b0C"}}