{"cas_no": "658-48-0", "cn_name": "(\u5916\u6d88\u65cb)ALPHA-\u7532\u57fa-DL-\u916a\u6c28\u9178", "en_name": ["\u03b1-Methyl-p-tyrosine", "Tyrosine, \u03b1-methyl-", "\u03b1-Methyltyrosine", "\u03b1-Methyl-p-tyrosine", "DL-\u03b1-Methyltyrosine", "DL-\u03b1-Methyl-p-tyrosine", "\u03b1-MPT", "(\u00b1)-\u03b1-Methyl-p-tyrosine", "DL-2-Methyl-p-tyrosine", "\u03b1-Methyl-DL-tyrosine", "Racemetirosine", "dl-Metyrosine", "2-(4-Hydroxybenzyl)-2-aminopropanoic acid", "L 1-79", "SM 88", "(\u00b1)-\u03b1-Methyl-DL-tyrosine", "2-Amino-3-(4-hydroxy-phenyl)-2-methyl-propionic acid", "2-Amino-3-(4-hydroxyphenyl)-2-methylpropanoic acid"], "SMILES": "C(C(C(O)=O)(C)N)C1=CC=C(O)C=C1", "physical_data": {"Molecular Weight": "195.22", "Molecular Formula": "C10H13NO3", "Melting Point": "&gt;300 \u00b0C"}}