{"cas_no": "6581-66-4", "cn_name": "2-\u7532\u6c27\u57fa\u56db\u6c22\u5421\u5583", "en_name": ["Tetrahydro-2-methoxy-2H-pyran", "2H-Pyran, tetrahydro-2-methoxy-", "Pyran, tetrahydro-2-methoxy-", "Tetrahydro-2-methoxy-2H-pyran", "2-Methoxytetrahydropyran", "Tetrahydro-2-methoxypyran", "2-Methoxyoxane"], "SMILES": "O(C)C1CCCCO1", "physical_data": {"Molecular Weight": "116.16", "Molecular Formula": "C6H12O2", "Boiling Point": "128-129 \u00b0C", "Density": "0.969 g/cm\u00b3 @ Temp: 15 \u00b0C"}}