{"cas_no": "65813-55-0", "cn_name": "\u5e03\u6d1b\u82ac\u6742\u8d28J", "en_name": ["2-(4-Isobutyrylphenyl)propionic acid", "Benzeneacetic acid, \u03b1-methyl-4-(2-methyl-1-oxopropyl)-", "\u03b1-Methyl-4-(2-methyl-1-oxopropyl)benzeneacetic acid", "2-(4-Isobutyrylphenyl)propionic acid", "(2Rs)-2-(4-isobutyrylphenyl)propanoic acid", "2-(4-Isobutyrylphenyl)propanoic acid", "2-[4-(2-Methylpropanoyl)phenyl]propanoic acid"], "SMILES": "C(C(O)=O)(C)C1=CC=C(C(C(C)C)=O)C=C1", "physical_data": {"Molecular Weight": "220.26", "Molecular Formula": "C13H16O3", "Melting Point": "82-84 \u00b0C"}}