{"cas_no": "65816-20-8", "cn_name": "\u7d2b\u5916\u7ebf\u5438\u6536\u5242UV-2", "en_name": ["Ethyl 4-[[(ethylphenylamino)methylene]amino]benzoate", "Benzoic acid, 4-[[(ethylphenylamino)methylene]amino]-, ethyl ester", "Ethyl 4-[[(ethylphenylamino)methylene]amino]benzoate", "Givsorb UV 2", "N-(p-Ethoxycarbonylphenyl)-N\u2032-ethyl-N\u2032-phenylformamidine", "N\u2032-(4-Ethoxycarbonylphenyl)-N-ethyl-N-phenylformamidine"], "SMILES": "N(C=NC1=CC=C(C(OCC)=O)C=C1)(CC)C2=CC=CC=C2", "physical_data": {"Molecular Weight": "296.36", "Molecular Formula": "C18H20N2O2", "Boiling Point": "225 \u00b0C @ Press: 1 Torr"}}