{"cas_no": "6582-42-9", "cn_name": "1-\uff083\uff0c4-\u4e8c\u6c2f\u82ef\u57fa\uff09-1-\u4e19\u916e", "en_name": ["1-(3,4-Dichlorophenyl)-1-propanone", "1-Propanone, 1-(3,4-dichlorophenyl)-", "Propiophenone, 3\u2032,4\u2032-dichloro-", "1-(3,4-Dichlorophenyl)-1-propanone", "3\u2032,4\u2032-Dichloropropiophenone"], "SMILES": "C(CC)(=O)C1=CC(Cl)=C(Cl)C=C1", "physical_data": {"Molecular Weight": "203.07", "Molecular Formula": "C9H8Cl2O", "Boiling Point": "136-140 \u00b0C @ Press: 18 Torr"}}