{"cas_no": "6583-06-8", "cn_name": "4-\u785d\u57fa-2,1,3-\u82ef\u5e76\u567b\u4e8c\u5511", "en_name": ["4-Nitro-2,1,3-benzothiadiazole", "2,1,3-Benzothiadiazole, 4-nitro-", "4-Nitro-2,1,3-benzothiadiazole", "NSC 404747"], "SMILES": "N(=O)(=O)C=1C=2C(=NSN2)C=CC1", "physical_data": {"Molecular Weight": "181.17", "Molecular Formula": "C6H3N3O2S", "Melting Point": "107-108 \u00b0C"}}