{"cas_no": "6587-24-2", "cn_name": "\u90bb\u6c30\u57fa\u82ef\u7532\u9178\u7532\u916f", "en_name": ["Benzoic acid, 2-cyano-, methyl ester", "Benzoic acid, 2-cyano-, methyl ester", "Benzoic acid, o-cyano-, methyl ester", "Methyl o-cyanobenzoate", "Methyl 2-cyanobenzoate", "2-Cyanobenzoic acid methyl ester"], "SMILES": "C(OC)(=O)C1=C(C#N)C=CC=C1", "physical_data": {"Molecular Weight": "161.16", "Molecular Formula": "C9H7NO2", "Boiling Point": "147 \u00b0C @ Press: 11 Torr", "Melting Point": "50-51 \u00b0C"}}