{"cas_no": "65873-73-6", "cn_name": "5-\u6eb4-6-\u7532\u6c27\u57fa\u70df\u919b", "en_name": ["3-Pyridinecarboxaldehyde, 5-bromo-6-methoxy-", "3-Pyridinecarboxaldehyde, 5-bromo-6-methoxy-", "5-Bromo-6-methoxynicotinaldehyde", "5-Bromo-6-methoxypyridin-3-carboxaldehyde", "2-Methoxy-3-bromopyridine-5-carboxaldehyde", "5-Bromo-6-methoxypyridine-3-carboxaldehyde"], "SMILES": "C(=O)C=1C=C(Br)C(OC)=NC1", "physical_data": {"Molecular Weight": "216.03", "Molecular Formula": "C7H6BrNO2", "Melting Point": "92-93 \u00b0C"}}