{"cas_no": "65873-72-5", "cn_name": "6-\u7532\u6c27\u57fa-3-\u5421\u5576\u7532\u919b", "en_name": ["6-Methoxy-3-pyridinecarboxaldehyde", "3-Pyridinecarboxaldehyde, 6-methoxy-", "6-Methoxy-3-pyridinecarboxaldehyde", "6-Methoxynicotinaldehyde", "6-Methoxypyridin-3-carboxaldehyde", "2-Methoxypyridine-5-carboxaldehyde", "5-Formyl-2-methoxypyridine", "3-Formyl-6-methoxypyridine"], "SMILES": "C(=O)C=1C=CC(OC)=NC1", "physical_data": {"Molecular Weight": "137.14", "Molecular Formula": "C7H7NO2", "Boiling Point": "65-70 \u00b0C @ Press: 12 Torr", "Melting Point": "48-49 \u00b0C"}}