{"cas_no": "6587-31-1", "cn_name": "4'-\u534a\u4e73\u7cd6\u57fa\u4e73\u7cd6", "en_name": ["4\u2032-Galactosyllactose", "D-Glucose, O-\u03b2-D-galactopyranosyl-(1\u21924)-O-\u03b2-D-galactopyranosyl-(1\u21924)-", "O-\u03b2-D-Galactopyranosyl-(1\u21924)-O-\u03b2-D-galactopyranosyl-(1\u21924)-D-glucose", "4\u2032-Galactosyllactose", "Mucotriose"], "SMILES": "O(C1C(CO)OC(OC(C(C(C=O)O)O)C(CO)O)C(O)C1O)C2OC(CO)C(O)C(O)C2O", "physical_data": {"Molecular Weight": "504.44", "Molecular Formula": "C18H32O16", "Melting Point": "229-231 \u00b0C"}}