{"cas_no": "6589-55-5", "cn_name": "\u03b1-(\u7532\u6c28\u7532\u57fa)\u82ef\u7532\u9187", "en_name": ["2-(Methylamino)-1-phenylethanol", "Benzenemethanol, \u03b1-[(methylamino)methyl]-", "Benzyl alcohol, \u03b1-[(methylamino)methyl]-", "\u03b1-[(Methylamino)methyl]benzenemethanol", "2-(Methylamino)-1-phenylethanol", "N-Methyl-\u03b2-hydroxyphenylethylamine", "\u03b1-(Methylaminomethyl)benzyl alcohol", "dl-Halostachine", "(\u00b1)-Halostachine", "2-Methylamino-1-phenyl-1-ethanol", "Methyl(2-hydroxy-2-phenylethyl)amine", "1-Phenyl-2-(N-methylamino)ethanol", "N-Methyl-\u03b2-hydroxylphenylethylamine", "N-Methyl-2-amino-1-phenylethanol"], "SMILES": "C(CNC)(O)C1=CC=CC=C1", "physical_data": {"Molecular Weight": "151.21", "Molecular Formula": "C9H13NO", "Boiling Point": "132-133 \u00b0C @ Press: 15 Torr", "Melting Point": "78 \u00b0C", "Density": "1.02 g/cm\u00b3 @ Temp: 0 \u00b0C"}}