{"cas_no": "6589-48-6", "cn_name": "2-\u73af\u5df1\u57fa\u6c28\u57fa-1-\u82ef\u57fa\u4e59\u9187", "en_name": ["\u03b1-[(Cyclohexylamino)methyl]benzenemethanol", "Benzenemethanol, \u03b1-[(cyclohexylamino)methyl]-", "Benzyl alcohol, \u03b1-[(cyclohexylamino)methyl]-", "\u03b1-[(Cyclohexylamino)methyl]benzenemethanol", "2-Cyclohexylamino-1-phenylethanol", "dl-1-Phenyl-2-cyclohexylaminoethanol", "(\u00b1)-S 35985-4", "NSC 62916", "2-(Cyclohexylamino)-1-phenylethan-1-ol"], "SMILES": "C(CNC1CCCCC1)(O)C2=CC=CC=C2", "physical_data": {"Molecular Weight": "219.32", "Molecular Formula": "C14H21NO", "Boiling Point": "147 \u00b0C @ Press: 1 Torr", "Melting Point": "89 \u00b0C"}}