{"cas_no": "659-28-9", "cn_name": "\u5bf9\u4e09\u6c1f\u7532\u6c27\u57fa\u82ef\u7532\u919b", "en_name": ["4-(Trifluoromethoxy)benzaldehyde", "Benzaldehyde, 4-(trifluoromethoxy)-", "p-Anisaldehyde, \u03b1,\u03b1,\u03b1-trifluoro-", "4-(Trifluoromethoxy)benzaldehyde", "p-(Trifluoromethoxy)benzaldehyde", "4-(Trifluoromethoxy)benzaldelhyde"], "SMILES": "O(C(F)(F)F)C1=CC=C(C=O)C=C1", "physical_data": {"Molecular Weight": "190.12", "Molecular Formula": "C8H5F3O2", "Boiling Point": "93 \u00b0C @ Press: 27 Torr", "Density": "1.3157 g/cm\u00b3 @ Temp: 20 \u00b0C"}}