{"cas_no": "659-70-1", "cn_name": "\u5f02\u620a\u9178\u5f02\u620a\u916f", "en_name": ["Isoamyl isovalerate", "Butanoic acid, 3-methyl-, 3-methylbutyl ester", "Isovaleric acid, isopentyl ester", "Isopentyl alcohol, isovalerate", "iso-Amyl isovalerate", "Isoamyl isovalerate", "Isopentyl isovalerate", "3-Methylbutyl 3-methylbutyrate", "Isopentyl 3-methylbutyrate", "Solusterol", "Isopentyl 3-methylbutanoate", "3-Methylbutyl 3-methylbutanoate", "3-Methylbutyl isovalerate", "Isoamyl 3-methylbutyrate", "Isoamyl 3-methylbutanoate", "NSC 6565"], "SMILES": "C(OCCC(C)C)(CC(C)C)=O", "physical_data": {"Molecular Weight": "172.26", "Molecular Formula": "C10H20O2", "Boiling Point": "190.4 \u00b0C"}}