{"cas_no": "659-18-7", "cn_name": "\u787c\u9178\u4e09(2,2,2-\u4e09\u6c1f\u4e59\u57fa)\u916f", "en_name": ["Ethanol, 2,2,2-trifluoro-, 1,1\u2032,1\u2032\u2032-triester with boric acid (H3BO3)", "Ethanol, 2,2,2-trifluoro-, 1,1\u2032,1\u2032\u2032-triester with boric acid (H3BO3)", "Ethanol, 2,2,2-trifluoro-, triester with boric acid (H3BO3)", "Ethanol, 2,2,2-trifluoro-, borate", "Tris(2,2,2-trifluoroethoxy)boron", "Tris(2,2,2-trifluoroethyl) borate"], "SMILES": "B(OCC(F)(F)F)(OCC(F)(F)F)OCC(F)(F)F", "physical_data": {"Molecular Weight": "307.91", "Molecular Formula": "C6H6BF9O3", "Boiling Point": "43 \u00b0C @ Press: 60 Torr"}}