{"cas_no": "659-30-3", "cn_name": "4-\u6c1f\u82ef\u8132", "en_name": ["N-(4-Fluorophenyl)urea", "Urea, N-(4-fluorophenyl)-", "Urea, (p-fluorophenyl)-", "Urea, (4-fluorophenyl)-", "N-(4-Fluorophenyl)urea", "4-Fluorophenylurea", "1-(4-Fluorophenyl)urea"], "SMILES": "N(C(N)=O)C1=CC=C(F)C=C1", "physical_data": {"Molecular Weight": "154.14", "Molecular Formula": "C7H7FN2O", "Melting Point": "178-180 \u00b0C"}}