{"cas_no": "659-22-3", "cn_name": "\u4e8c\u82ef\u4e59\u70ef-4,4'-\u4e8c\u9187", "en_name": ["4,4\u2032-(1,2-Ethenediyl)bis[phenol]", "Phenol, 4,4\u2032-(1,2-ethenediyl)bis-", "4,4\u2032-Stilbenediol", "4,4\u2032-(1,2-Ethenediyl)bis[phenol]", "4,4\u2032-Dihydroxystilbene", "p,p\u2032-Dihydroxystilbene", "4,4\u2032-Dioxystilbene", "1,2-Bis(4-hydroxyphenyl)ethene", "NSC 4184"], "SMILES": "C(=CC1=CC=C(O)C=C1)C2=CC=C(O)C=C2", "physical_data": {"Molecular Weight": "212.24", "Molecular Formula": "C14H12O2", "Melting Point": "278 \u00b0C"}}