{"cas_no": "659-41-6", "cn_name": "659-41-6", "en_name": ["Benzenemethanamine, 4-fluoro-, hydrochloride (1:1)", "Benzenemethanamine, 4-fluoro-, hydrochloride (1:1)", "Benzylamine, p-fluoro-, hydrochloride", "Benzenemethanamine, 4-fluoro-, hydrochloride", "p-Fluorobenzylamine hydrochloride", "4-Fluorobenzylamine hydrochloride", "(4-Fluorophenyl)methanamine hydrochloride"], "SMILES": "C(N)C1=CC=C(F)C=C1.Cl", "physical_data": {"Molecular Weight": "", "Molecular Formula": "C7H8FN.ClH", "Melting Point": "265-268 \u00b0C"}}