{"cas_no": "65907-30-4", "cn_name": "\u544b\u7ebf\u5a01", "en_name": ["Furathiocarb", "6-Oxa-3-thia-2,4-diazadecanoic acid, 2,4-dimethyl-5-oxo-, 2,3-dihydro-2,2-dimethyl-7-benzofuranyl ester", "CGA 73102", "Deltanet", "Furathiocarb", "Promet 666SCO", "Promet"], "SMILES": "O(C(N(SN(C(OCCCC)=O)C)C)=O)C1=C2C(CC(C)(C)O2)=CC=C1", "physical_data": {"Molecular Weight": "382.47", "Molecular Formula": "C18H26N2O5S", "Boiling Point": "160 \u00b0C @ Press: 0.01 Torr", "Melting Point": "&lt;25 \u00b0C", "Density": "1.148 g/cm\u00b3 @ Temp: 20 \u00b0C"}}