{"cas_no": "6590-95-0", "cn_name": "2,6-\u4e8c\u6c2f\u5f02\u786b\u6c30\u9178\u82ef\u916f", "en_name": ["2,6-Dichlorophenyl isothiocyanate", "Benzene, 1,3-dichloro-2-isothiocyanato-", "Isothiocyanic acid, 2,6-dichlorophenyl ester", "1,3-Dichloro-2-isothiocyanatobenzene", "2,6-Dichlorophenyl isothiocyanate"], "SMILES": "N(=C=S)C1=C(Cl)C=CC=C1Cl", "physical_data": {"Molecular Weight": "204.08", "Molecular Formula": "C7H3Cl2NS", "Boiling Point": "128-133 \u00b0C @ Press: 2 Torr", "Melting Point": "42-43 \u00b0C"}}