{"cas_no": "6590-94-9", "cn_name": "3,4-\u4e8c\u6c2f\u5f02\u786b\u6c30\u9178\u82ef\u916f", "en_name": ["1,2-Dichloro-4-isothiocyanatobenzene", "Benzene, 1,2-dichloro-4-isothiocyanato-", "Isothiocyanic acid, 3,4-dichlorophenyl ester", "1,2-Dichloro-4-isothiocyanatobenzene", "3,4-Dichlorophenyl isothiocyanate", "NSC 220236", "3,4-Dichloro-1-isothiocyanatobenzene"], "SMILES": "N(=C=S)C1=CC(Cl)=C(Cl)C=C1", "physical_data": {"Molecular Weight": "204.08", "Molecular Formula": "C7H3Cl2NS", "Boiling Point": "134.8-135.9 \u00b0C @ Press: 7 Torr", "Melting Point": "178 \u00b0C"}}