{"cas_no": "65902-59-2", "cn_name": "2-\u6eb4-4-\u785d\u57fa\u54aa\u5511", "en_name": ["2-Bromo-4-nitroimidazole", "1H-Imidazole, 2-bromo-5-nitro-", "1H-Imidazole, 2-bromo-4-nitro-", "2-Bromo-5-nitro-1H-imidazole", "2-Bromo-4-nitro-1H-imidazole", "2-Bromo-4-nitroimidazole"], "SMILES": "N(=O)(=O)C=1NC(Br)=NC1", "physical_data": {"Molecular Weight": "191.97", "Molecular Formula": "C3H2BrN3O2", "Melting Point": "239-241 \u00b0C"}}