{"cas_no": "6590-96-1", "cn_name": "2,4-\u4e8c\u6c2f\u82ef\u57fa\u5f02\u786b\u6c30\u9178\u916f", "en_name": ["2,4-Dichlorophenyl isothiocyanate", "Benzene, 2,4-dichloro-1-isothiocyanato-", "Isothiocyanic acid, 2,4-dichlorophenyl ester", "2,4-Dichloro-1-isothiocyanatobenzene", "2,4-Dichlorophenyl isothiocyanate", "AF 100", "AF 100 (antifouling agent)"], "SMILES": "N(=C=S)C1=C(Cl)C=C(Cl)C=C1", "physical_data": {"Molecular Weight": "204.08", "Molecular Formula": "C7H3Cl2NS", "Boiling Point": "139-142 \u00b0C @ Press: 13 Torr", "Melting Point": "58-59 \u00b0C"}}