{"cas_no": "65915-94-8", "cn_name": "N-BOC-1,6-\u5df1\u4e8c\u80fa\u76d0\u9178\u76d0", "en_name": ["N-tert-Butoxycarbonyl-1,6-diaminohexane hydrochloride", "Carbamic acid, N-(6-aminohexyl)-, 1,1-dimethylethyl ester, hydrochloride (1:1)", "Carbamic acid, (6-aminohexyl)-, 1,1-dimethylethyl ester, monohydrochloride", "N-tert-Butyloxycarbonyl-1,6-diaminohexane hydrochloride", "N-tert-Butoxycarbonyl-1,6-diaminohexane hydrochloride", "N-BOC-1,6-diaminohexane hydrochloride", "tert-Butyl N-(6-aminohexyl)carbamate hydrochloride", "N-BOC-hexane-1,6-diamine hydrochloride", "N-Boc-hexamethylenediamine hydrochloride", "tert-Butyl (6-aminohexyl)carbamate hydrochloride"], "SMILES": "C(NCCCCCCN)(OC(C)(C)C)=O.Cl", "physical_data": {"Molecular Weight": "", "Molecular Formula": "C11H24N2O2.ClH", "Melting Point": "162.5-163.5 \u00b0C"}}