{"cas_no": "65938-79-6", "cn_name": "3-\u7532\u57fa-2-\u5421\u5576\u78fa\u9170\u80fa", "en_name": ["3-Methyl-2-pyridinesulfonamide", "2-Pyridinesulfonamide, 3-methyl-", "3-Methyl-2-pyridinesulfonamide"], "SMILES": "S(N)(=O)(=O)C1=C(C)C=CC=N1", "physical_data": {"Molecular Weight": "172.20", "Molecular Formula": "C6H8N2O2S", "Melting Point": "184-186 \u00b0C"}}