{"cas_no": "65938-88-7", "cn_name": "\u5421\u5576-4-\u78fa\u9170\u80fa", "en_name": ["4-Pyridinesulfonamide", "4-Pyridinesulfonamide"], "SMILES": "S(N)(=O)(=O)C=1C=CN=CC1", "physical_data": {"Molecular Weight": "158.18", "Molecular Formula": "C5H6N2O2S", "Melting Point": "172-173 \u00b0C"}}