{"cas_no": "65948-19-8", "cn_name": "6-\u82ef\u6c27\u57fa\u82ef\u5e76[D]\u567b\u5511-2-\u80fa", "en_name": ["6-Phenoxy-2-benzothiazolamine", "2-Benzothiazolamine, 6-phenoxy-", "6-Phenoxy-2-benzothiazolamine", "2-Amino-6-phenoxybenzothiazole", "SKA 32", "6-Phenoxybenzo[d]thiazol-2-amine"], "SMILES": "O(C=1C=C2C(=CC1)N=C(N)S2)C3=CC=CC=C3", "physical_data": {"Molecular Weight": "242.30", "Molecular Formula": "C13H10N2OS", "Melting Point": "173-174 \u00b0C"}}