{"cas_no": "6596-40-3", "cn_name": "\u6b63\u4e94\u5341\u70f7", "en_name": ["Pentacontane", "Pentacontane", "n-Pentacontane"], "SMILES": "C(CCCCCCCCCCCCCCCCCCCCCCCCC)CCCCCCCCCCCCCCCCCCCCCCCC", "physical_data": {"Molecular Weight": "703.34", "Molecular Formula": "C50H102", "Boiling Point": "420-422 \u00b0C @ Press: 15 Torr", "Melting Point": "93.0 \u00b0C", "Density": "0.7940 g/cm\u00b3 @ Temp: 93.0 \u00b0C"}}