{"cas_no": "66-02-4", "cn_name": "3,5-\u4e8c\u7898\u916a\u6c28\u9178", "en_name": ["3,5-Diiodotyrosine", "Tyrosine, 3,5-diiodo-", "3,5-Diiodotyrosine", "Agontan", "DIT", "Dityrin", "Gorgoic acid, diiodo-", "Gorgonic acid, diiodo-", "Iodogorgoic acid", "Iodogorgonic acid", "\u03b2-(4-Hydroxy-3,5-diiodophenyl)alanine", "Apothyrin", "Cemiod", "Flaianina", "Itir", "Jodgorgon", "3,5-Diiodo-4-hydroxyphenylalanine", "DL-3,5-Diiodotyrosine", "NSC 208959", "NSC 97936", "2-Amino-3-(4-hydroxy-3,5-diiodo-phenyl)-propionic acid", "2-Amino-3-(4-hydroxy-3,5-diiodophenyl)propanoic acid", "2-Amino-3-(4-hydroxy-3,5-diiodophenyl)propanoicacid", "3,5-Diiodo-DL-tyrosine", "MeSH ID: D004105"], "SMILES": "C(C(C(O)=O)N)C1=CC(I)=C(O)C(I)=C1", "physical_data": {"Molecular Weight": "432.98", "Molecular Formula": "C9H9I2NO3", "Melting Point": "213 \u00b0C (decomp)"}}