{"cas_no": "66-22-8", "cn_name": "\u5c3f\u5627\u5576", "en_name": ["Uracil", "2,4(1H,3H)-Pyrimidinedione", "Uracil", "2,4-Dioxopyrimidine", "2,4-Pyrimidinediol", "2,4-Dihydroxypyrimidine", "Pyrod", "Pirod", "2,4-Pyrimidinedione", "Hybar X", "NSC 3970", "4-Hydroxyuracil", "1,2,3,4-Tetrahydropyrimidine-2,4-dione", "MeSH ID: D014498"], "SMILES": "O=C1NC(=O)NC=C1", "physical_data": {"Molecular Weight": "112.09", "Molecular Formula": "C4H4N2O2", "Melting Point": "338 \u00b0C"}}