{"cas_no": "66-28-4", "cn_name": "\u6bd2\u6bdb\u65cb\u82b1\u5b50\u7519\u5143", "en_name": ["Strophanthidin", "Card-20(22)-enolide, 3,5,14-trihydroxy-19-oxo-, (3\u03b2,5\u03b2)-", "Strophanthidin", "5\u03b2-Card-20(22)-enolide, 3\u03b2,5,14-trihydroxy-19-oxo-", "(3\u03b2,5\u03b2)-3,5,14-Trihydroxy-19-oxocard-20(22)-enolide", "Convallatoxigenin", "Corchoside A aglycon", "Corchsularin", "Erysimupicrone", "Erysimupikron", "k-Strophanthidin", "Strophanthidine", "Corchorin", "Strophanthidin K", "NSC 86078", "Apocymarin", "MeSH ID: D013327"], "SMILES": "C(=O)C12C3C(C4(O)C(C)(CC3)C(CC4)C5=CC(=O)OC5)CCC1(O)CC(O)CC2", "physical_data": {"Molecular Weight": "404.50", "Molecular Formula": "C23H32O6", "Melting Point": "173 \u00b0C (decomp)"}}