{"cas_no": "66-27-3", "cn_name": "\u7532\u78fa\u9178\u7532\u916f", "en_name": ["Methyl methanesulfonate", "Methanesulfonic acid, methyl ester", "Methyl methanesulphonate", "MMS", "Methyl methanesulfonate", "Methyl methylsulfonate", "NSC 50256", "Methyl mesylate", "MeSH ID: D008741"], "SMILES": "S(OC)(C)(=O)=O", "physical_data": {"Molecular Weight": "110.13", "Molecular Formula": "C2H6O3S", "Boiling Point": "203 \u00b0C @ Press: 753 Torr", "Melting Point": "20 \u00b0C", "Density": "1.2943 g/cm\u00b3 @ Temp: 20 \u00b0C"}}