{"cas_no": "66-25-1", "cn_name": "\u6b63\u5df1\u919b", "en_name": ["Hexanal", "Hexanal", "Caproaldehyde", "Caproic aldehyde", "Capronaldehyde", "Hexaldehyde", "n-Hexanal", "n-Caproaldehyde", "Hexylaldehyde", "n-Capronaldehyde", "Hexanaldehyde", "n-Hexylaldehyde", "NSC 2596"], "SMILES": "C(CCC)CC=O", "physical_data": {"Molecular Weight": "100.16", "Molecular Formula": "C6H12O", "Boiling Point": "131 \u00b0C @ Press: 760 Torr", "Melting Point": "-56 \u00b0C", "Density": "0.8165 g/cm\u00b3 @ Temp: 20 \u00b0C"}}