{"cas_no": "66-23-9", "cn_name": "\u6eb4\u5316\u4e59\u9170\u80c6\u78b1", "en_name": ["Acetylcholine bromide", "Ethanaminium, 2-(acetyloxy)-N,N,N-trimethyl-, bromide (1:1)", "Choline acetate (ester), bromide", "Ethanaminium, 2-(acetyloxy)-N,N,N-trimethyl-, bromide", "Choline, acetyl-, bromide", "Acetylcholine bromide", "Pragmoline", "Tonocholin B", "Acetylcholine bromhydrate", "N,N,N-Trimethyl-2-acetoxyethylammonium bromide", "Acetylcholine hydrobromide", "Trimethyl(2-acetoxyethyl)ammonium bromide", "(2-Acetyloxyethyl)trimethylammonium bromide", "[2-(Acetyloxy)ethyl]trimethylazanium bromide"], "SMILES": "C(COC(C)=O)[N+](C)(C)C.[Br-]", "physical_data": {"Molecular Weight": "", "Molecular Formula": "C7H16NO2.Br", "Melting Point": "146 \u00b0C"}}