{"cas_no": "66-32-0", "cn_name": "\u9a6c\u94b1\u5b50\u78b1\u785d\u9178\u76d0", "en_name": ["Strychnidin-10-one, nitrate (1:1)", "Strychnidin-10-one, nitrate (1:1)", "Strychnine, mononitrate", "Strychnidin-10-one, mononitrate", "4,6-Methano-6H,14H-indolo[3,2,1-ij]oxepino[2,3,4-de]pyrrolo[2,3-h]quinoline, strychnidin-10-one deriv.", "Strychnine nitrate"], "SMILES": "O=C1N2C3C4(C5N(CC4)CC=6C(C3C(C1)OCC6)C5)C=7C2=CC=CC7.N(=O)(=O)O", "physical_data": {"Molecular Weight": "", "Molecular Formula": "C21H22N2O2.HNO3", "Melting Point": "295 \u00b0C"}}