{"cas_no": "66-56-8", "cn_name": "2,3-\u4e8c\u785d\u57fa\u82ef\u915a", "en_name": ["2,3-Dinitrophenol", "Phenol, 2,3-dinitro-", "2,3-Dinitrophenol", "2,3-DNP", "NSC 156083"], "SMILES": "N(=O)(=O)C1=C(N(=O)=O)C=CC=C1O", "physical_data": {"Molecular Weight": "184.11", "Molecular Formula": "C6H4N2O5", "Melting Point": "144.5 \u00b0C"}}