{"cas_no": "66-72-8", "cn_name": "\u5421\u54c6\u919b", "en_name": ["Pyridoxal", "4-Pyridinecarboxaldehyde, 3-hydroxy-5-(hydroxymethyl)-2-methyl-", "Pyridoxal", "3-Hydroxy-5-(hydroxymethyl)-2-methyl-4-pyridinecarboxaldehyde", "Pyridoxaldehyde", "3-Hydroxy-5-(hydroxymethyl)-2-methylpyridine-4-carboxaldehyde", "3-Hydroxy-5-hydroxymethyl-2-methyl-pyridine-4-carbaldehyde", "3-Hydroxy-5-(hydroxymethyl)-2-methylpyridine-4-carbaldehyde", "3-Hydroxy-5-(hydroxymethyl)-2-methylisonicotinaldehyde", "MeSH ID: D011730"], "SMILES": "C(=O)C=1C(CO)=CN=C(C)C1O", "physical_data": {"Molecular Weight": "167.16", "Molecular Formula": "C8H9NO3", "Melting Point": "165 \u00b0C"}}