{"cas_no": "66-76-2", "cn_name": "\u53cc\u7f9f\u9999\u8c46\u7d20", "en_name": ["Dicoumarol", "2H-1-Benzopyran-2-one, 3,3\u2032-methylenebis[4-hydroxy-", "Coumarin, 3,3\u2032-methylenebis[4-hydroxy-", "3,3\u2032-Methylenebis[4-hydroxy-2H-1-benzopyran-2-one]", "Acadyl", "Bishydroxycoumarin", "Bis(4-hydroxycoumarin-3-yl)methane", "Dicoumarin", "Dicoumarol", "Dicumarine", "Di-4-hydroxy-3,3\u2032-methylenedicoumarin", "3,3\u2032-Methylenebis[4-hydroxy-1,2-benzopyrone]", "3,3\u2032-Methylenebis[4-hydroxycoumarin]", "Dicumarol", "Bis-3,3\u2032-(4-hydroxycoumarinyl)methane", "Cumid", "Dicuman", "Dicumol", "Melitoxin", "Acavyl", "Antitrombosin", "Kumoran", "Baracoumin", "Cuma", "Temparin", "Trombosan", "Dicoumal", "NC 034", "NSC 41834", "Dufalone", "NSC 17860", "NSC 221570", "3,3\u2032-Methylenebis(4-hydroxy-2H-chromen-2-one)", "PB 2-9", "3,3\u2032-Methylene-bis-(4-hydroxy-2H-benzopyran-2-one)"], "SMILES": "OC=1C=2C(OC(=O)C1CC3=C(O)C=4C(OC3=O)=CC=CC4)=CC=CC2", "physical_data": {"Molecular Weight": "336.30", "Molecular Formula": "C19H12O6", "Melting Point": "287-293 \u00b0C"}}