{"cas_no": "66-77-3", "cn_name": "1-\u8418\u7532\u919b", "en_name": ["1-Naphthalenecarboxaldehyde", "1-Naphthalenecarboxaldehyde", "1-Naphthaldehyde", "\u03b1-Naphthaldehyde", "1-Naphthylaldehyde", "1-Formylnaphthalene", "\u03b1-Naphthylaldehyde", "\u03b1-Naphthylcarboxaldehyde", "1-Naphthylcarboxaldehyde", "\u03b1-Naphthalenecarboxaldehyde", "\u03b1-Naphthoaldehyde", "Naphthalene-1-carbaldehyde", "Naphthalene-1-aldehyde", "NSC 6106", "4-Naphthalene-1-carboxaldehyde"], "SMILES": "C(=O)C=1C2=C(C=CC1)C=CC=C2", "physical_data": {"Molecular Weight": "156.18", "Molecular Formula": "C11H8O", "Boiling Point": "292 \u00b0C", "Melting Point": "33.5 \u00b0C", "Density": "1.066 g/cm\u00b3 @ Temp: 30 \u00b0C"}}