{"cas_no": "66-71-7", "cn_name": "1,10-\u83f2\u7f57\u5549", "en_name": ["1,10-Phenanthroline", "1,10-Phenanthroline", "4,5-Diazaphenanthrene", "o-Phenanthroline", "\u03b2-Phenanthroline", "1,10-o-Phenanthroline", "Activ-8", "TS 20", "TS 20 (amine)", "NSC 203545", "11,10-Phenanthroline"], "SMILES": "C12=C3C(=CC=C1C=CC=N2)C=CC=N3", "physical_data": {"Molecular Weight": "180.21", "Molecular Formula": "C12H8N2", "Boiling Point": "&gt;300 \u00b0C", "Melting Point": "117 \u00b0C"}}