{"cas_no": "66-84-2", "cn_name": "D-\u6c28\u57fa\u8461\u8404\u7cd6\u76d0\u9178\u76d0", "en_name": ["Glucosamine hydrochloride", "D-Glucose, 2-amino-2-deoxy-, hydrochloride (1:1)", "D-Glucose, 2-amino-2-deoxy-, hydrochloride", "Glucosamine hydrochloride", "D-Glucosamine hydrochloride", "D-(+)-Glucosamine hydrochloride", "2-Amino-2-deoxy-D-glucose hydrochloride", "Chitosamine hydrochloride", "Cosamin", "2-Deoxy-2-amino-D-glucose hydrochloride", "D-Glucosamine chloride", "NSC 234443", "NSC 758", "Koyo Glucosamine MG", "Glucosamine FM"], "SMILES": "C(C(C(CO)O)O)(C(C=O)N)O.Cl", "physical_data": {"Molecular Weight": "", "Molecular Formula": "C6H13NO5.ClH", "Melting Point": "217.857 \u00b0C"}}