{"cas_no": "66-81-9", "cn_name": "\u653e\u7ebf\u83cc\u916e", "en_name": ["(-)-Cycloheximide", "2,6-Piperidinedione, 4-[(2R)-2-[(1S,3S,5S)-3,5-dimethyl-2-oxocyclohexyl]-2-hydroxyethyl]-", "Naramycin A", "Glutarimide, 3-[2-(3,5-dimethyl-2-oxocyclohexyl)-2-hydroxyethyl]-", "2,6-Piperidinedione, 4-[2-(3,5-dimethyl-2-oxocyclohexyl)-2-hydroxyethyl]-, [1S-[1\u03b1(S*),3\u03b1,5\u03b2]]-", "4-[(2R)-2-[(1S,3S,5S)-3,5-Dimethyl-2-oxocyclohexyl]-2-hydroxyethyl]-2,6-piperidinedione", "Actidion", "Acti-dione", "Cycloheximide", "\u03b2-[2-(3,5-Dimethyl-2-oxocyclohexyl)-2-hydroxyethyl]glutarimide", "3-[2-(3,5-Dimethyl-2-oxocyclohexyl)-2-hydroxyethyl]glutarimide", "U 4527", "TZA", "Naramycin", "NSC 185", "Acti-Aid", "Acti-dione BR", "Acti-dione TGF", "Acti-dione PM", "Naramycin Microcapsule D 80", "Cicloheximide", "NM-MCD 80", "Naramycin NM-MCU 80", "LDN 97549", "FT 3422-2", "CHX", "l-Cycloheximide", "(-)-Cycloheximide", "MeSH ID: D003513"], "SMILES": "C(CC1CC(=O)NC(=O)C1)(O)C2C(=O)C(C)CC(C)C2", "physical_data": {"Molecular Weight": "281.35", "Molecular Formula": "C15H23NO4", "Melting Point": "119.5-121 \u00b0C"}}