{"cas_no": "66-83-1", "cn_name": "5-\u7532\u6c27\u57fa\u8272\u80fa\u76d0\u9178\u76d0", "en_name": ["Mexamine", "1H-Indole-3-ethanamine, 5-methoxy-, hydrochloride (1:1)", "Indole, 3-(2-aminoethyl)-5-methoxy-, monohydrochloride", "1H-Indole-3-ethanamine, 5-methoxy-, monohydrochloride", "5-Methoxytryptamine monohydrochloride", "Mexamine", "Mexamin", "5-Methoxytryptamine chloride", "1H-Indole-3-ethanamine 5-methoxy-, hydrochloride (1:1)", "2-(5-Methoxy-1H-indol-3-yl)ethylamine hydrochloride", "2-(5-Methoxy-1H-indol-3-yl)ethan-1-aminium chloride", "2-(5-Methoxy-1H-indol-3-yl)ethanamine hydrochloride", "5-methoxytryptammonium chloride"], "SMILES": "C(CN)C=1C=2C(NC1)=CC=C(OC)C2.Cl", "physical_data": {"Molecular Weight": "", "Molecular Formula": "C11H14N2O.ClH", "Melting Point": "239-240 \u00b0C"}}