{"cas_no": "66-97-7", "cn_name": "\u8865\u9aa8\u8102\u7d20", "en_name": ["Psoralen", "7H-Furo[3,2-g][1]benzopyran-7-one", "Furocoumarin", "Ficusin", "Furo[4\u2032,5\u2032:6,7]coumarin", "Psoralen", "Psoralene", "2-Propenoic acid, 3-(6-hydroxy-5-benzofuranyl)-, \u03b4-lactone", "Furo[2\u2032,3\u2032:7,6]coumarin", "6,7-Furanocoumarin", "NSC 404562", "Prosuler"], "SMILES": "O=C1OC2=C(C=C3C(=C2)OC=C3)C=C1", "physical_data": {"Molecular Weight": "186.16", "Molecular Formula": "C11H6O3", "Boiling Point": "130-140 \u00b0C", "Melting Point": "163-164 \u00b0C"}}