{"cas_no": "66-98-8", "cn_name": "4,4'-\u8054\u82ef\u4e8c\u7532\u919b", "en_name": ["[1,1\u2032-Biphenyl]-4,4\u2032-dicarboxaldehyde", "[1,1\u2032-Biphenyl]-4,4\u2032-dicarboxaldehyde", "4,4\u2032-Biphenyldicarboxaldehyde", "Biphenyl-4,4\u2032-dialdehyde", "4,4\u2032-Diformylbiphenyl", "p,p\u2032-Diformylbiphenyl", "4,4\u2032-Diformyl-1,1\u2032-biphenyl", "4,4\u2032-Bisformylbiphenyl", "4,4\u2032-Diformyldiphenyl", "4,4\u2032-Biphenyl dicarboxyaldehyde", "[1,1\u2032-Biphenyl]-4,4\u2032-dicarbaldehyde"], "SMILES": "C(=O)C1=CC=C(C=C1)C2=CC=C(C=O)C=C2", "physical_data": {"Molecular Weight": "210.23", "Molecular Formula": "C14H10O2", "Melting Point": "113.9-114.2 \u00b0C"}}