{"cas_no": "66-99-9", "cn_name": "2-\u8418\u7532\u919b", "en_name": ["2-Naphthalenecarboxaldehyde", "2-Naphthalenecarboxaldehyde", "2-Naphthaldehyde", "\u03b2-Naphthaldehyde", "\u03b2-Naphthylcarboxaldehyde", "2-Formylnaphthalene", "\u03b2-Formylnaphthalene", "2-Naphthylcarboxaldehyde", "2-Naphthylaldehyde", "\u03b2-Naphthoaldehyde", "NCR 1 (aldehyde)", "NCR 1", "Naphthalene-2-carbaldehyde", "2-Naphthalenealdehyde", "NSC 8557", "2-Napthaldehyde"], "SMILES": "C(=O)C1=CC2=C(C=C1)C=CC=C2", "physical_data": {"Molecular Weight": "156.18", "Molecular Formula": "C11H8O", "Boiling Point": "95-96 \u00b0C @ Press: 3 Torr", "Melting Point": "62 \u00b0C"}}