{"cas_no": "660-88-8", "cn_name": "5-\u6c28\u57fa\u9889\u8349\u9178", "en_name": ["5-Aminovaleric acid", "Pentanoic acid, 5-amino-", "Valeric acid, 5-amino-", "5-Aminopentanoic acid", "\u03b4-Aminovaleric acid", "5-Aminovaleric acid", "\u03b4-Amino-n-valeric acid", "\u03c9-Aminopentanoic acid", "DAVA", "\u03b4-Aminopentanoic acid", "5-Amino-n-valeric acid", "\u03c9-Aminovaleric acid", "NSC 58383", "NSC 73123", "Aminovaleric acid"], "SMILES": "C(CCCN)C(O)=O", "physical_data": {"Molecular Weight": "117.15", "Molecular Formula": "C5H11NO2", "Melting Point": "157.5 \u00b0C (decomp)"}}