{"cas_no": "660-68-4", "cn_name": "\u4e8c\u4e59\u80fa\u76d0\u9178\u76d0", "en_name": ["Diethylammonium chloride", "Ethanamine, N-ethyl-, hydrochloride (1:1)", "Diethylamine, hydrochloride", "Ethanamine, N-ethyl-, hydrochloride", "Diethylammonium chloride", "N-Ethylethanamine hydrochloride", "Diethylamine hydrochloride", "N,N-Diethylamine hydrochloride"], "SMILES": "N(CC)CC.Cl", "physical_data": {"Molecular Weight": "", "Molecular Formula": "C4H11N.ClH", "Melting Point": "228.5 \u00b0C"}}