{"cas_no": "660-60-6", "cn_name": "\u786c\u8102\u9178\u94dc", "en_name": ["Cupric stearate", "Octadecanoic acid, copper(2+) salt (2:1)", "Stearic acid, copper(2+) salt", "Octadecanoic acid, copper(2+) salt", "Cupric stearate", "Copper(II) stearate", "Copper(2+) stearate", "Copper distearate", "Cupric distearate", "Cupric octadecanoate", "Copper(II) octadecanoate", "Copper bis(octadecanoate)", "Copper dioctadecanoate", "Cu(octanoate)2"], "SMILES": "C(CCCCCCCCCCC)CCCCCC(O)=O.[Cu]", "physical_data": {"Molecular Weight": "", "Molecular Formula": "C18H36O2.<sup>1</sup>/2Cu", "Melting Point": "250 \u00b0C"}}