{"cas_no": "660-27-5", "cn_name": "\u4e8c\u6c2f\u918b\u9178\u4e8c\u5f02\u4e19\u80fa", "en_name": ["Acetic acid, 2,2-dichloro-, compd. with N-(1-methylethyl)-2-propanamine (1:1)", "Acetic acid, 2,2-dichloro-, compd. with N-(1-methylethyl)-2-propanamine (1:1)", "Acetic acid, dichloro-, compd. with diisopropylamine (1:1)", "Acetic acid, dichloro-, compd. with N-(1-methylethyl)-2-propanamine (1:1)", "Acetic acid, dichloro-, compd. with diisopropylamine", "Diisopropylamine, dichloroacetate", "2-Propanamine, N-(1-methylethyl)-, dichloroacetate", "IS 401", "Diisopropylammonium dichloroacetate", "Diisopropylammonium dichloroethanoate", "DADA", "Diisopropylamine dichloroethanoate", "DIPA", "DIEDI", "Dapocel", "Dedyl", "Kalodil", "Tensicor", "Disotat", "\u03b2-Anoxin", "Krino B 15", "Cubisol", "Oxypangam", "Vasculopatina", "Dipromonium", "DIPA-DCA"], "SMILES": "C(C(O)=O)(Cl)Cl.N(C(C)C)C(C)C", "physical_data": {"Molecular Weight": "", "Molecular Formula": "C6H15N.C2H2Cl2O2", "Melting Point": "119-121 \u00b0C"}}