{"cas_no": "66003-76-7", "cn_name": "\u4e8c\u82ef\u57fa\u4e09\u6c1f\u7532\u78fa\u9178\u7898", "en_name": ["Diphenyliodonium triflate", "Iodonium, diphenyl-, 1,1,1-trifluoromethanesulfonate (1:1)", "Iodonium, diphenyl-, salt with trifluoromethanesulfonic acid (1:1)", "Methanesulfonic acid, trifluoro-, ion(1-), diphenyliodonium", "Diphenyliodonium triflate", "Diphenyliodonium trifluoromethanesulfonate", "Diphenyliodonium trifluoromethanesulfonic acid salt", "DPI 105", "Methanesulfonic acid, 1,1,1-trifluoro-, diphenyliodyl ester"], "SMILES": "[I+](C1=CC=CC=C1)C2=CC=CC=C2.C(S(=O)(=O)[O-])(F)(F)F", "physical_data": {"Molecular Weight": "", "Molecular Formula": "C12H10I.CF3O3S", "Melting Point": "176-177 \u00b0C"}}