{"cas_no": "6600-31-3", "cn_name": "3,9-\u4e8c\u73af\u5df1-3-\u70ef\u57fa-2,4,8,10-\u56db\u6c27\u6742\u87ba[5.5]\u5341\u4e00\u70f7", "en_name": ["3,9-Di-3-cyclohexen-1-yl-2,4,8,10-tetraoxaspiro[5.5]undecane", "2,4,8,10-Tetraoxaspiro[5.5]undecane, 3,9-di-3-cyclohexen-1-yl-", "3,9-Di-3-cyclohexen-1-yl-2,4,8,10-tetraoxaspiro[5.5]undecane", "Vulkazon AFS", "NSC 82301", "Vulcazon AFS-LG", "Vulkazon AFS/LG", "3,9-Di-cyclohex-3-enyl-2,4,8,10-tetraoxa-spiro[5.5]undecane"], "SMILES": "C12(COC(OC1)C3CCC=CC3)COC(OC2)C4CCC=CC4", "physical_data": {"Molecular Weight": "320.42", "Molecular Formula": "C19H28O4", "Melting Point": "96-97 \u00b0C"}}