{"cas_no": "6600-40-4", "cn_name": "L-\u6b63\u7f2c\u6c28\u9178", "en_name": ["L-Norvaline", "L-Norvaline", "Norvaline, L-", "Norvaline", "Pentanoic acid, 2-amino-, (S)-", "\u03b1-L-Aminopentanoic acid", "(S)-2-Aminovaleric acid", "(S)-Norvaline", "L-\u03b1-Aminovaleric acid", "(S)-2-Aminopentanoic acid", "L-2-Aminopentanoic acid", "2S-Aminovaleric acid", "NSC 203786", "(S)-(+)-2-Aminopentanoic acid", "(2S)-2-Aminopentanoic acid"], "SMILES": "C(CCC)(C(O)=O)N", "physical_data": {"Molecular Weight": "117.15", "Molecular Formula": "C5H11NO2", "Melting Point": "307 \u00b0C"}}