{"cas_no": "6601-66-7", "cn_name": "4',5,7,8-\u56db\u7532\u6c27\u57fa\u9ec4\u916e", "en_name": ["6-Demethoxytangeretin", "4H-1-Benzopyran-4-one, 5,7,8-trimethoxy-2-(4-methoxyphenyl)-", "Flavone, 4\u2032,5,7,8-tetramethoxy-", "5,7,8-Trimethoxy-2-(4-methoxyphenyl)-4H-1-benzopyran-4-one", "4\u2032,5,7,8-Tetramethoxyflavone", "Tetra-O-methylisoscutellarein", "6-Demethoxytangeritin", "6-Demethoxytangeretin", "5,7,8,4\u2032-Tetramethoxyflavone"], "SMILES": "O(C)C1=C2C(=C(OC)C=C1OC)C(=O)C=C(O2)C3=CC=C(OC)C=C3", "physical_data": {"Molecular Weight": "342.34", "Molecular Formula": "C19H18O6", "Melting Point": "207-208 \u00b0C"}}