{"cas_no": "6601-22-5", "cn_name": "2,4-\u4e8c\u6c2f-6-\u7801\u5549\u4ee3-1,3,5-\u4e09\u55ea", "en_name": ["2,4-Dichloro-6-morpholino-1,3,5-triazine", "1,3,5-Triazine, 2,4-dichloro-6-(4-morpholinyl)-", "s-Triazine, 2,4-dichloro-6-morpholino-", "2,4-Dichloro-6-(4-morpholinyl)-1,3,5-triazine", "2-Morpholino-4,6-dichlorotriazine", "2,4-Dichloro-6-morpholino-1,3,5-triazine", "2,4-Dichloro-6-morpholino-s-triazine", "4,6-Dichloro-2-morpholino-1,3,5-triazine", "2-Morpholino-4,6-dichloro-s-triazine", "2,6-Dichloro-4-morpholino-1,3,5-triazine", "2-(N-Morpholino)-4,6-dichloro-s-triazine", "2,4-Dichloro-6-(morpholin-4-yl)-1,3,5-triazine", "4-(4,6-Dichloro-1,3,5-triazin-2-yl)morpholine", "4-Morpholino-2,6-dichloro-1,3,5-triazine"], "SMILES": "ClC1=NC(=NC(Cl)=N1)N2CCOCC2", "physical_data": {"Molecular Weight": "235.07", "Molecular Formula": "C7H8Cl2N4O", "Melting Point": "157.5-158.5 \u00b0C"}}