{"cas_no": "6601-62-3", "cn_name": "\u84df\u9ec4\u7d20", "en_name": ["Cirsimaritin", "4H-1-Benzopyran-4-one, 5-hydroxy-2-(4-hydroxyphenyl)-6,7-dimethoxy-", "Flavone, 4\u2032,5-dihydroxy-6,7-dimethoxy-", "5-Hydroxy-2-(4-hydroxyphenyl)-6,7-dimethoxy-4H-1-benzopyran-4-one", "Cirsimaritin", "Scrophulein", "6-Methoxygenkwanin", "6,7-Dimethoxyscutellarein", "Circimaritin", "Cirsitakaogenin", "7-Methylcapillarisin", "Cirsumaritin", "6-Methoxyapigenin 7-methyl ether", "5,4\u2032-Dihydroxy-6,7-dimethoxyflavone", "Scutellarein 6,7-dimethyl ether", "Skrofulein", "4\u2032,5-Dihydroxy-6,7-dimethoxyflavone"], "SMILES": "OC1=C2C(OC(=CC2=O)C3=CC=C(O)C=C3)=CC(OC)=C1OC", "physical_data": {"Molecular Weight": "314.29", "Molecular Formula": "C17H14O6", "Melting Point": "257 \u00b0C"}}