{"cas_no": "66018-38-0", "cn_name": "LL Z1640-2", "en_name": ["(3S,5Z,8S,9S,11E)-3,4,9,10-Tetrahydro-8,9,16-trihydroxy-14-methoxy-3-methyl-1H-2-benzoxacyclotetradecin-1,7(8H)-dione", "1H-2-Benzoxacyclotetradecin-1,7(8H)-dione, 3,4,9,10-tetrahydro-8,9,16-trihydroxy-14-methoxy-3-methyl-, (3S,5Z,8S,9S,11E)-", "(3S,5Z,8S,9S,11E)-3,4,9,10-Tetrahydro-8,9,16-trihydroxy-14-methoxy-3-methyl-1H-2-benzoxacyclotetradecin-1,7(8H)-dione", "L 783279", "F 152", "LL-Z 1640-2", "C 292", "f 152 A1", "FR 148083", "(-)-LL-Z 1640-2", "(5Z)-7-Oxozeaenol", "(5Z)-7-Oxozeaenol"], "SMILES": "OC1=C2C(=CC(OC)=C1)C=CCC(O)C(O)C(=O)C=CCC(C)OC2=O", "physical_data": {"Molecular Weight": "362.37", "Molecular Formula": "C19H22O7", "Melting Point": "171-173 \u00b0C"}}