{"cas_no": "6602-54-6", "cn_name": "2-\u6c2f-3-\u6c30\u57fa\u5421\u5576", "en_name": ["2-Chloro-3-cyanopyridine", "3-Pyridinecarbonitrile, 2-chloro-", "Nicotinonitrile, 2-chloro-", "2-Chloro-3-pyridinecarbonitrile", "2-Chloro-3-cyanopyridine", "2-Chloronicotinonitrile", "3-Cyano-2-chloropyridine", "NSC 73287"], "SMILES": "C(#N)C1=C(Cl)N=CC=C1", "physical_data": {"Molecular Weight": "138.55", "Molecular Formula": "C6H3ClN2", "Melting Point": "103-105 \u00b0C"}}