{"cas_no": "6602-32-0", "cn_name": "2-\u6eb4-3-\u7f9f\u57fa\u5421\u5576", "en_name": ["2-Bromo-3-pyridinol", "3-Pyridinol, 2-bromo-", "2-Bromo-3-pyridinol", "2-Bromo-3-hydroxypyridine", "SKF 75250"], "SMILES": "OC1=C(Br)N=CC=C1", "physical_data": {"Molecular Weight": "174.00", "Molecular Formula": "C5H4BrNO", "Melting Point": "186.5-187 \u00b0C"}}