{"cas_no": "6602-34-2", "cn_name": "2,4,6-\u4e09\u6eb4\u5421\u5576-3-\u9187", "en_name": ["2,4,6-Tribromo-3-pyridinol", "3-Pyridinol, 2,4,6-tribromo-", "2,4,6-Tribromo-3-pyridinol", "2,4,6-Tribromo-3-hydroxypyridine"], "SMILES": "OC=1C(Br)=CC(Br)=NC1Br", "physical_data": {"Molecular Weight": "331.79", "Molecular Formula": "C5H2Br3NO", "Melting Point": "90.5-91 \u00b0C"}}