{"cas_no": "6602-28-4", "cn_name": "3-\u7f9f\u57fa\u5421\u5576-N-\u6c27\u5316\u7269", "en_name": ["3-Hydroxypyridine N-oxide", "3-Pyridinol, 1-oxide", "3-Hydroxypyridine 1-oxide", "3-Hydroxypyridine N-oxide", "3-Pyridinol N-oxide", "3-Hydroxypyridine oxide", "NSC 21399", "1-Oxopyridin-3-ol", "1-Oxidopyridin-1-ium-3-ol", "3-Hydroxypyridin-1-ium-1-olate"], "SMILES": "OC1=CN(=O)=CC=C1", "physical_data": {"Molecular Weight": "111.10", "Molecular Formula": "C5H5NO2", "Melting Point": "190-192 \u00b0C"}}