{"cas_no": "6602-33-1", "cn_name": "2,6-\u4e8c\u6eb4-3-\u7f9f\u57fa\u5421\u5576", "en_name": ["2,6-Dibromo-3-pyridinol", "3-Pyridinol, 2,6-dibromo-", "2,6-Dibromo-3-pyridinol", "2,6-Dibromo-3-hydroxypyridine"], "SMILES": "BrC1=C(O)C=CC(Br)=N1", "physical_data": {"Molecular Weight": "252.89", "Molecular Formula": "C5H3Br2NO", "Melting Point": "162-163 \u00b0C"}}