{"cas_no": "6606-59-3", "cn_name": "1,6-\u5df1\u4e8c\u9187\u4e8c\u7532\u57fa\u4e19\u70ef\u9178\u916f", "en_name": ["1,6-Hexanediol, dimethacrylate", "2-Propenoic acid, 2-methyl-, 1,1\u2032-(1,6-hexanediyl) ester", "Methacrylic acid, hexamethylene ester", "2-Propenoic acid, 2-methyl-, 1,6-hexanediyl ester", "1,6-Hexanediol, dimethacrylate", "Hexamethylene dimethacrylate", "Hexamethylene glycol dimethacrylate", "Hexamethylene glycol methacrylate", "1,6-Hexanediyl dimethacrylate", "Hexamethylene methacrylate", "1,6-Hexamethylene glycol dimethacrylate", "1,6-Hexamethylene dimethacrylate", "NK Ester HD", "1,6-Hexyleneglycol dimethacrylate", "Monocizer TD 1520", "HDDMA", "SR 239", "Light Ester 1.6HX", "1,6-Hexamethylenediol dimethacrylate", "Acryester HX", "Sartomer 239", "NK Ester HD-N", "SR 239A", "1,6-Hexaneglycol dimethacrylate", "Miramer M 201", "SR 239NS", "HD-N", "Hexane-1,6-diyl bis(2-methylacrylate)", "Sartomer SR 239EU"], "SMILES": "O(C(C(C)=C)=O)CCCCCCOC(C(C)=C)=O", "physical_data": {"Molecular Weight": "254.32", "Molecular Formula": "C14H22O4", "Melting Point": "&lt;25 \u00b0C"}}