{"cas_no": "6606-65-1", "cn_name": "\u6069\u5e03\u916f", "en_name": ["Butyl cyanoacrylate", "2-Propenoic acid, 2-cyano-, butyl ester", "Acrylic acid, 2-cyano-, butyl ester", "Butyl cyanoacrylate", "Butyl 2-cyanoacrylate", "n-Butyl 2-cyanoacrylate", "Butyl \u03b1-cyanoacrylate", "BK 200", "BK 201", "BK 300", "BK 301 (adhesive)", "BK 301", "Enbucrilate", "BK 201 (adhesive)", "Tisuacryl", "Indermil", "Sicomet 6000", "Histacryl Blue", "InteguSeal Clear", "Integuseal Microbial Sealant", "Integuseal", "Indermil Tissue Adhesive", "Hystoacryl", "Glubranh 1", "Z 26", "1-Butyl 2-cyanoacrylate", "Cyberbond 7000"], "SMILES": "C(OCCCC)(C(C#N)=C)=O", "physical_data": {"Molecular Weight": "153.18", "Molecular Formula": "C8H11NO2", "Boiling Point": "69-72 \u00b0C @ Press: 1.6 Torr", "Density": "0.986 g/cm\u00b3 @ Temp: 20 \u00b0C"}}