{"cas_no": "66067-43-4", "cn_name": "(3-\u4e59\u57fa\u82ef\u57fa)(\u82ef\u57fa)\u7532\u916e", "en_name": ["3-Ethylbenzophenone", "Methanone, (3-ethylphenyl)phenyl-", "(3-Ethylphenyl)phenylmethanone", "3-Ethylbenzophenone", "m-Ethylbenzophenone"], "SMILES": "C(=O)(C1=CC(CC)=CC=C1)C2=CC=CC=C2", "physical_data": {"Molecular Weight": "210.27", "Molecular Formula": "C15H14O", "Boiling Point": "320-333 \u00b0C @ Press: 760 Torr"}}