{"cas_no": "66067-44-5", "cn_name": "3-\u4e59\u9170\u82ef\u7532\u916e", "en_name": ["3-Acetylbenzophenone", "Ethanone, 1-(3-benzoylphenyl)-", "1-(3-Benzoylphenyl)ethanone", "3-Acetylbenzophenone", "m-Benzoylacetophenone", "3-Benzoylacetophenone", "1-(3-Benzoylphenyl)ethenone"], "SMILES": "C(=O)(C1=CC(C(C)=O)=CC=C1)C2=CC=CC=C2", "physical_data": {"Molecular Weight": "224.25", "Molecular Formula": "C15H12O2", "Melting Point": "87-89 \u00b0C"}}