{"cas_no": "66063-05-6", "cn_name": "\u620a\u83cc\u9686", "en_name": ["Pencycuron", "Urea, N-[(4-chlorophenyl)methyl]-N-cyclopentyl-N\u2032-phenyl-", "N-[(4-Chlorophenyl)methyl]-N-cyclopentyl-N\u2032-phenylurea", "Pencycuron", "NTN 19701", "Monceren", "Monceraen 250SC"], "SMILES": "N(CC1=CC=C(Cl)C=C1)(C(NC2=CC=CC=C2)=O)C3CCCC3", "physical_data": {"Molecular Weight": "328.84", "Molecular Formula": "C19H21ClN2O", "Melting Point": "130 \u00b0C"}}