{"cas_no": "6607-34-7", "cn_name": "1,4,7-\u4e09\u6c27\u73af\u5341\u4e09\u70f7-8,13-\u4e8c\u916e", "en_name": ["1,4,7-Trioxacyclotridecane-8,13-dione", "1,4,7-Trioxacyclotridecane-8,13-dione", "Adipic acid, cyclic diester with diethylene glycol", "Adipic acid, cyclic ester with diethylene glycol", "Diethylene glycol, cyclic adipate", "Cyclic diethylene glycol adipate"], "SMILES": "O=C1CCCCC(=O)OCCOCCO1", "physical_data": {"Molecular Weight": "216.23", "Molecular Formula": "C10H16O5", "Melting Point": "79-80 \u00b0C"}}