{"cas_no": "66073-54-9", "cn_name": "2-\u6c2f-6-\u6c1f\u82ef\u7532\u9170\u80fa", "en_name": ["2-Chloro-6-fluorobenzamide", "Benzamide, 2-chloro-6-fluoro-", "2-Chloro-6-fluorobenzamide", "NSC 148353", "2-Fluoro-6-chlorobenzamide"], "SMILES": "C(N)(=O)C1=C(Cl)C=CC=C1F", "physical_data": {"Molecular Weight": "173.57", "Molecular Formula": "C7H5ClFNO", "Melting Point": "141-143 \u00b0C"}}