{"cas_no": "66080-45-3", "cn_name": "2-\u7532\u6c27\u57fa-4-\u5421\u5576\u9187", "en_name": ["2-Methoxy-4-pyridinol", "4-Pyridinol, 2-methoxy-", "2-Methoxy-4-pyridinol", "2-Methoxypyridin-4-ol", "2-Methoxy-1H-pyridin-4-one"], "SMILES": "O(C)C1=CC(O)=CC=N1", "physical_data": {"Molecular Weight": "125.13", "Molecular Formula": "C6H7NO2", "Melting Point": "133.5-134.0 \u00b0C"}}