{"cas_no": "66085-59-4", "cn_name": "\u5c3c\u83ab\u5730\u5e73", "en_name": ["Nimodipine", "3,5-Pyridinedicarboxylic acid, 1,4-dihydro-2,6-dimethyl-4-(3-nitrophenyl)-, 3-(2-methoxyethyl) 5-(1-methylethyl) ester", "3,5-Pyridinedicarboxylic acid, 1,4-dihydro-2,6-dimethyl-4-(3-nitrophenyl)-, 2-methoxyethyl 1-methylethyl ester", "Nimodipine", "BAY-e 9736", "Nimotop", "(\u00b1)-Nimodipine", "Nimodipine AP", "Periplum", "Admon", "Nemotan", "3-O-(2-Methoxyethyl) 5-O-propan-2-yl 2,6-dimethyl-4-(3-nitrophenyl)-1,4-dihydropyridine-3,5-dicarboxylate", "NMP", "MeSH ID: D009553"], "SMILES": "C(OCCOC)(=O)C=1C(C(C(OC(C)C)=O)=C(C)NC1C)C2=CC(N(=O)=O)=CC=C2", "physical_data": {"Molecular Weight": "418.44", "Molecular Formula": "C21H26N2O7", "Melting Point": "125 \u00b0C"}}