{"cas_no": "6609-56-9", "cn_name": "2-\u7532\u6c27\u57fa\u6c30\u82ef", "en_name": ["2-Methoxybenzonitrile", "Benzonitrile, 2-methoxy-", "o-Anisonitrile", "2-Methoxybenzonitrile", "o-Methoxybenzonitrile", "o-Cyanoanisole", "2-Cyanoanisole", "2-(Methyloxy)benzonitrile"], "SMILES": "C(#N)C1=C(OC)C=CC=C1", "physical_data": {"Molecular Weight": "133.15", "Molecular Formula": "C8H7NO", "Boiling Point": "255.5 \u00b0C", "Melting Point": "24.5 \u00b0C", "Density": "1.107 g/cm\u00b3 @ Temp: 20 \u00b0C"}}