{"cas_no": "6609-57-0", "cn_name": "\u90bb\u4e59\u6c27\u57fa\u82ef\u8148", "en_name": ["2-Ethoxybenzonitrile", "Benzonitrile, 2-ethoxy-", "Benzonitrile, o-ethoxy-", "2-Ethoxybenzonitrile", "o-Ethoxybenzonitrile"], "SMILES": "O(CC)C1=C(C#N)C=CC=C1", "physical_data": {"Molecular Weight": "147.17", "Molecular Formula": "C9H9NO", "Melting Point": "120 \u00b0C"}}