{"cas_no": "6609-64-9", "cn_name": "2-\u6c2f-2-\u6c27-1,3,2-\u4e8c\u6c27\u78f7\u6742\u73af\u620a\u70f7", "en_name": ["2-Chloro-2-oxo-1,3,2-dioxaphospholane", "1,3,2-Dioxaphospholane, 2-chloro-, 2-oxide", "Phosphorochloridic acid, cyclic ethylene ester", "Ethylene phosphorochloridate", "2-Chloro-2-oxo-1,3,2-dioxaphospholane", "Cyclic ethylene phosphorochloridate", "Ethylene chlorophosphate", "2-Chloro-1,3,2-dioxaphospholane 2-oxide", "2-Chloro-2-oxido-1,3,2-dioxaphospholane", "2-Chloro-1,3,2\u03bb5-dioxaphospholan-2-one"], "SMILES": "ClP1(=O)OCCO1", "physical_data": {"Molecular Weight": "142.48", "Molecular Formula": "C2H4ClO3P", "Boiling Point": "89-91 \u00b0C @ Press: 0.8 Torr"}}