{"cas_no": "661-95-0", "cn_name": "1,2-\u4e8c\u6eb4\u516d\u6c1f\u4e19\u70f7", "en_name": ["1,2-Dibromo-1,1,2,3,3,3-hexafluoropropane", "Propane, 1,2-dibromo-1,1,2,3,3,3-hexafluoro-", "Propane, 1,2-dibromohexafluoro-", "1,2-Dibromo-1,1,2,3,3,3-hexafluoropropane", "1,2-Dibromohexafluoropropane", "1,2-Dibromoperfluoropropane", "R 216B2"], "SMILES": "C(C(Br)(F)F)(C(F)(F)F)(Br)F", "physical_data": {"Molecular Weight": "309.83", "Molecular Formula": "C3Br2F6", "Boiling Point": "72-73 \u00b0C", "Melting Point": "70-72 \u00b0C", "Density": "2.1693 g/cm\u00b3 @ Temp: 20 \u00b0C"}}