{"cas_no": "661-54-1", "cn_name": "3,3,3-\u4e09\u6c1f-1-\u4e19\u7094", "en_name": ["3,3,3-Trifluoropropyne", "1-Propyne, 3,3,3-trifluoro-", "Propyne, 3,3,3-trifluoro-", "3,3,3-Trifluoro-1-propyne", "3,3,3-Trifluoropropyne", "(Trifluoromethyl)acetylene", "1,1,1-Trifluoropropyne", "1,1,1-Trifluoro-2-propyne", "Trifluoromethylethyne", "TFP"], "SMILES": "C(C#C)(F)(F)F", "physical_data": {"Molecular Weight": "94.04", "Molecular Formula": "C3HF3", "Boiling Point": "-48 \u00b0C"}}