{"cas_no": "661-19-8", "cn_name": "1-\u4e8c\u5341\u4e8c\u9187", "en_name": ["Behenyl alcohol", "1-Docosanol", "Docosyl alcohol", "Behenyl alcohol", "Behenic alcohol", "Tadenan", "IK 2 (alcohol)", "Docosanol", "IK 2", "n-Docosanol", "Stenol 1822", "Lanette 22", "Behenyl 80 Alcohol", "Abreva", "NAA 422", "NSC 8407", "Stenol 1822A", "Nacol 22-97", "Kalcohl 22080", "Kalcol 22080", "Nacol 22-98", "Toho BH 65", "Hainol 22S", "Conol 2265", "Conol 2280", "Kalcohl 220", "1-Docosonol", "Behenyl alc. 80", "Nacol C 22", "Nikkol Behenyl Alcohol 80", "Ginol 22", "Ranette 22", "Kalkol 220-80", "Nikkol Behenyl Alcohol 65", "Behenyl alcohol 65"], "SMILES": "C(CCCCCCCCCCC)CCCCCCCCCCO", "physical_data": {"Molecular Weight": "326.60", "Molecular Formula": "C22H46O", "Boiling Point": "180 \u00b0C @ Press: 0.22 Torr", "Melting Point": "71 \u00b0C"}}