{"cas_no": "661-11-0", "cn_name": "1-\u6c1f\u5e9a\u70f7", "en_name": ["1-Fluoroheptane", "Heptane, 1-fluoro-", "1-Fluoroheptane", "n-Heptyl fluoride", "Heptyl fluoride"], "SMILES": "C(CCCF)CCC", "physical_data": {"Molecular Weight": "118.19", "Molecular Formula": "C7H15F", "Boiling Point": "117.9 \u00b0C", "Melting Point": "-73 \u00b0C", "Density": "0.8029 g/cm\u00b3 @ Temp: 21 \u00b0C"}}