{"cas_no": "661-69-8", "cn_name": "\u516d\u7532\u57fa\u4e8c\u9521", "en_name": ["Hexamethylditin", "Distannane, 1,1,1,2,2,2-hexamethyl-", "Distannane, hexamethyl-", "Tin, hexamethyldi-", "1,1,1,2,2,2-Hexamethyldistannane", "Hexamethylditin", "TD 5032", "Pennsalt TD 5032", "Hexamethyldistannane", "Trimethyltin dimer", "NSC 227328", "Trimethyl (trimethylstannyl)stannane"], "SMILES": "[Sn]([Sn](C)(C)C)(C)(C)C", "physical_data": {"Molecular Weight": "327.63", "Molecular Formula": "C6H18Sn2", "Boiling Point": "85-88 \u00b0C @ Press: 45 Torr", "Melting Point": "23-24 \u00b0C", "Density": "1.57 g/cm\u00b3"}}