{"cas_no": "661-36-9", "cn_name": "\u56db\u6c1f\u787c\u9178\u56db\u70f7\u57fa\u94f5", "en_name": ["Tetramethylammonium tetrafluoroborate", "Methanaminium, N,N,N-trimethyl-, tetrafluoroborate(1-) (1:1)", "Ammonium, tetramethyl-, tetrafluoroborate(1-)", "Methanaminium, N,N,N-trimethyl-, tetrafluoroborate(1-)", "Tetramethylammonium fluoroborate", "Ammonium compounds, substituted, tetramethyl-, tetrafluoroborate", "Borate(1-), tetrafluoro-, tetramethylammonium", "Borate(1-), tetrafluoro-, N,N,N-trimethylmethanaminium", "Tetramethylammonium tetrafluoroborate", "Tetramethylammonium tetrafluoroborate(1-)", "[Me4N][BF4]"], "SMILES": "[N+](C)(C)(C)C.[B+3]([F-])([F-])([F-])[F-]", "physical_data": {"Molecular Weight": "", "Molecular Formula": "C4H12N.BF4", "Melting Point": "310 \u00b0C"}}