{"cas_no": "6610-56-6", "cn_name": "\u7b97\u76d8\u5b50\u4e8c\u9187", "en_name": ["Glochidiol", "Lup-20(29)-ene-1,3-diol, (1\u03b2,3\u03b1)-", "Glochidiol", "Lup-20(29)-ene-1\u03b2,3\u03b1-diol", "(1\u03b2,3\u03b1)-Lup-20(29)-ene-1,3-diol", "Lup-20(30)-ene-1\u03b2,3\u03b1-diol"], "SMILES": "CC12C(C3(C)C(CC1)C(C)(C)C(O)CC3O)CCC4C2(C)CCC5(C)C4C(C(C)=C)CC5", "physical_data": {"Molecular Weight": "442.72", "Molecular Formula": "C30H50O2", "Melting Point": "260-262 \u00b0C"}}