{"cas_no": "6610-29-3", "cn_name": "4-\u7532\u57fa\u6c28\u57fa\u786b\u8132", "en_name": ["Methylthiosemicarbazide", "Hydrazinecarbothioamide, N-methyl-", "Semicarbazide, 4-methyl-3-thio-", "N-Methylhydrazinecarbothioamide", "B 1130", "4-Methylthiosemicarbazide", "Methylthiosemicarbazide", "4-Methyl-3-thiosemicarbazide", "N-Methylthiosemicarbazide", "NSC 56911", "4-N-Methylthiosemicarbazide", "4-Methylthiosemicarbazone", "1-Amino-3-methylthiourea", "3-Amino-1-methylthiourea"], "SMILES": "C(NC)(NN)=S", "physical_data": {"Molecular Weight": "105.16", "Molecular Formula": "C2H7N3S", "Melting Point": "137-138 \u00b0C"}}