{"cas_no": "66108-95-0", "cn_name": "\u7898\u6d77\u9187", "en_name": ["Iohexol", "1,3-Benzenedicarboxamide, 5-[acetyl(2,3-dihydroxypropyl)amino]-N1,N3-bis(2,3-dihydroxypropyl)-2,4,6-triiodo-", "1,3-Benzenedicarboxamide, 5-[acetyl(2,3-dihydroxypropyl)amino]-N,N\u2032-bis(2,3-dihydroxypropyl)-2,4,6-triiodo-", "5-[Acetyl(2,3-dihydroxypropyl)amino]-N1,N3-bis(2,3-dihydroxypropyl)-2,4,6-triiodo-1,3-benzenedicarboxamide", "Iohexol", "Exypaque", "Nycodenz", "Omnipaque", "Omnipaque 240", "Omnipaque 140", "Omnipaque 350", "Omnipaque 300", "Omnipaque R", "Accudenz", "5-(N-2,3-Dihydroxypropylacetamido)-2,4,6-triiodo-N,N\u2032-bis(2,3-dihydroxypropyl)isophthalamide.", "Histodenz", "Accupaque 300", "Iopaque 240", "Iopaque 300", "Ioverin 350", "Iobrix 300", "MeSH ID: D007472"], "SMILES": "N(CC(CO)O)(C(C)=O)C1=C(I)C(C(NCC(CO)O)=O)=C(I)C(C(NCC(CO)O)=O)=C1I", "physical_data": {"Molecular Weight": "821.14", "Molecular Formula": "C19H26I3N3O9", "Melting Point": "174-180 \u00b0C"}}