{"cas_no": "66104-22-1", "cn_name": "\u57f9\u9ad8\u5229\u7279", "en_name": ["Pergolide", "Ergoline, 8-[(methylthio)methyl]-6-propyl-, (8\u03b2)-", "Indolo[4,3-fg]quinoline, ergoline deriv.", "(8\u03b2)-8-[(Methylthio)methyl]-6-propylergoline", "Pergolide", "LY 141B", "D-8\u03b2-[(Methylthio)methyl]-6-propylergoline"], "SMILES": "C(CC)N1C2C(C=3C=4C(C2)=CNC4C=CC3)CC(CSC)C1", "physical_data": {"Molecular Weight": "314.49", "Molecular Formula": "C19H26N2S", "Melting Point": "207.5 \u00b0C"}}