{"cas_no": "6610-31-7", "cn_name": "4-\u4e01\u57fa-3-\u6c28\u57fa\u786b\u8132", "en_name": ["N-Butylhydrazinecarbothioamide", "Hydrazinecarbothioamide, N-butyl-", "Semicarbazide, 4-butyl-3-thio-", "N-Butylhydrazinecarbothioamide", "B 1133", "4-Butyl-3-thiosemicarbazide", "4-Butylthiosemicarbazide", "N4-Butylthiosemicarbazide", "1-Amino-3-butylthiourea", "3-Amino-1-butylthiourea"], "SMILES": "C(NCCCC)(NN)=S", "physical_data": {"Molecular Weight": "147.24", "Molecular Formula": "C5H13N3S", "Melting Point": "74-74.5 \u00b0C"}}