{"cas_no": "66104-23-2", "cn_name": "\u7532\u78fa\u9178\u57f9\u9ad8\u5229\u7279", "en_name": ["Pergolide mesylate", "Ergoline, 8-[(methylthio)methyl]-6-propyl-, (8\u03b2)-, monomethanesulfonate", "Indolo[4,3-fg]quinoline, ergoline deriv.", "Pergolide mesylate", "LY 127809", "Pergolide methanesulfonate", "Permax", "Celance", "NSC 319773"], "SMILES": "S(C)(=O)(=O)O.C(CC)N1C2C(C=3C=4C(C2)=CNC4C=CC3)CC(CSC)C1", "physical_data": {"Molecular Weight": "", "Molecular Formula": "C19H26N2S.CH4O3S", "Melting Point": "225 \u00b0C"}}