{"cas_no": "66127-01-3", "cn_name": "3-\u6eb4-1,10-\u83f2\u7f57\u5549", "en_name": ["3-Bromo-1,10-phenanthroline", "1,10-Phenanthroline, 3-bromo-", "3-Bromo-1,10-phenanthroline"], "SMILES": "BrC1=CC=2C(=C3C(=CC2)C=CC=N3)N=C1", "physical_data": {"Molecular Weight": "259.10", "Molecular Formula": "C12H7BrN2", "Melting Point": "169-170 \u00b0C"}}