{"cas_no": "66137-74-4", "cn_name": "5-\u7898\u516b\u6c1f-3-\u6c27\u620a\u70f7\u78fa\u9170\u6c1f", "en_name": ["1,1,2,2-Tetrafluoro-2-(1,1,2,2-tetrafluoro-2-iodoethoxy)ethanesulfonyl fluoride", "Ethanesulfonyl fluoride, 1,1,2,2-tetrafluoro-2-(1,1,2,2-tetrafluoro-2-iodoethoxy)-", "1,1,2,2-Tetrafluoro-2-(1,1,2,2-tetrafluoro-2-iodoethoxy)ethanesulfonyl fluoride", "2-(2-Iodotetrafluoroethoxy)tetrafluoroethanesulfonyl fluoride", "2-(2-Iodo-1,1,2,2-tetrafluoroethoxy)-1,1,2,2-tetrafluoroethanesulfonyl fluoride", "5-Iodo-octafluoropentyl-3-oxapentanesulfonyl fluoride"], "SMILES": "C(C(S(F)(=O)=O)(F)F)(OC(C(F)(F)I)(F)F)(F)F", "physical_data": {"Molecular Weight": "426.00", "Molecular Formula": "C4F9IO3S", "Boiling Point": "127 \u00b0C @ Press: 760 Torr"}}