{"cas_no": "6613-44-1", "cn_name": "3,5-\u4e8c\u7532\u57fa\u82ef\u7532\u9170\u6c2f", "en_name": ["3,5-Dimethylbenzoyl chloride", "Benzoyl chloride, 3,5-dimethyl-", "3,5-Dimethylbenzoyl chloride"], "SMILES": "C(Cl)(=O)C1=CC(C)=CC(C)=C1", "physical_data": {"Molecular Weight": "168.62", "Molecular Formula": "C9H9ClO", "Boiling Point": "111-112 \u00b0C @ Press: 11 Torr"}}