{"cas_no": "66164-07-6", "cn_name": "\u53bb\u7532\u76d0\u9178\u6d1b\u54cc\u4e01\u80fa", "en_name": ["N-Desmethyl Loperamide", "1-Piperidinebutanamide, 4-(4-chlorophenyl)-4-hydroxy-N-methyl-\u03b1,\u03b1-diphenyl-", "4-(4-Chlorophenyl)-4-hydroxy-N-methyl-\u03b1,\u03b1-diphenyl-1-piperidinebutanamide", "R 20905", "Desmethylloperamide", "N-Desmethyl Loperamide"], "SMILES": "C(CCN1CCC(O)(CC1)C2=CC=C(Cl)C=C2)(C(NC)=O)(C3=CC=CC=C3)C4=CC=CC=C4", "physical_data": {"Molecular Weight": "463.01", "Molecular Formula": "C28H31ClN2O2", "Melting Point": "224-226 \u00b0C"}}