{"cas_no": "66183-71-9", "cn_name": "\u4e59\u57fa5-\u6c27\u4ee3\u5421\u54af\u70f7-2-\u7532\u9178\u916f", "en_name": ["5-Oxoproline ethyl ester", "Proline, 5-oxo-, ethyl ester", "Pyroglutamic acid, ethyl ester, DL-", "DL-Proline, 5-oxo-, ethyl ester", "5-Oxoproline ethyl ester", "5-Oxopyrrolidine-2-carboxylic acid ethyl ester", "Ethyl 5-oxopyrrolidine-2-carboxylate"], "SMILES": "C(OCC)(=O)C1CCC(=O)N1", "physical_data": {"Molecular Weight": "157.17", "Molecular Formula": "C7H11NO3", "Boiling Point": "137-140 \u00b0C @ Press: 0.45 Torr", "Melting Point": "54 \u00b0C"}}