{"cas_no": "662-50-0", "cn_name": "\u5168\u6c1f\u4e01\u80fa", "en_name": ["Heptafluorobutyramide", "Butanamide, 2,2,3,3,4,4,4-heptafluoro-", "Butyramide, 2,2,3,3,4,4,4-heptafluoro-", "2,2,3,3,4,4,4-Heptafluorobutanamide", "Heptafluorobutyramide", "Perfluorobutyramide", "Heptafluorobutanoic acid amide", "NSC 9451", "Heptafluorobutanamide"], "SMILES": "C(C(C(N)=O)(F)F)(C(F)(F)F)(F)F", "physical_data": {"Molecular Weight": "213.05", "Molecular Formula": "C4H2F7NO", "Melting Point": "103 \u00b0C"}}