{"cas_no": "662-01-1", "cn_name": "1,3-\u4e8c\u6c2f-1,1,2,2,3,3-\u516d\u6c1f\u4e19\u70f7", "en_name": ["1,3-Dichloro-1,1,2,2,3,3-hexafluoropropane", "Propane, 1,3-dichloro-1,1,2,2,3,3-hexafluoro-", "Propane, 1,3-dichlorohexafluoro-", "1,3-Dichloro-1,1,2,2,3,3-hexafluoropropane", "1,3-Dichlorohexafluoropropane", "HCFC 216ca"], "SMILES": "C(C(Cl)(F)F)(C(Cl)(F)F)(F)F", "physical_data": {"Molecular Weight": "220.93", "Molecular Formula": "C3Cl2F6", "Boiling Point": "34.6 \u00b0C", "Density": "1.5730 g/cm\u00b3 @ Temp: 20 \u00b0C"}}