{"cas_no": "6620-60-6", "cn_name": "\u4e8c\u4e19\u8c37\u9170\u80fa", "en_name": ["Proglumide", "Pentanoic acid, 4-(benzoylamino)-5-(dipropylamino)-5-oxo-", "Glutaramic acid, 4-benzamido-N,N-dipropyl-, DL-", "Pentanoic acid, 4-(benzoylamino)-5-(dipropylamino)-5-oxo-, (\u00b1)-", "4-(Benzoylamino)-5-(dipropylamino)-5-oxopentanoic acid", "DL-4-Benzamido-N,N-dipropylglutaramic acid", "Proglumide", "CR 242", "Xyde", "Xylamide", "Xylamide (gastroprotective agent)", "Milid", "W 5219", "Binoside", "Gastrotopic", "Midelid", "Milide", "Nulsa", "Ulcutin", "Promide (parasympatholytic)", "(\u00b1)-Proglumide", "DL-Proglumide", "Promid"], "SMILES": "C(C(N(CCC)CCC)=O)(NC(=O)C1=CC=CC=C1)CCC(O)=O", "physical_data": {"Molecular Weight": "334.41", "Molecular Formula": "C18H26N2O4", "Melting Point": "143.5 \u00b0C"}}