{"cas_no": "6620-95-7", "cn_name": "H-SER-SER-OH", "en_name": ["L-Seryl-L-serine", "L-Serine, L-seryl-", "Serine, N-L-seryl-, L-", "L-Serine, N-L-seryl-", "L-Seryl-L-serine", "57: PN: US20070066537 PAGE: 17 claimed protein", "46: PN: EP2071334 SEQID: 50 claimed protein", "46: PN: WO2009077864 SEQID: 50 claimed protein", "137: PN: US20090175867 SEQID: 139 unclaimed protein", "14: PN: WO2012139094 SEQID: 14 unclaimed protein", "8: PN: WO2014018423 PAGE: 215 claimed sequence", "1: PN: WO2014102104 SEQID: 110 claimed sequence", "11: PN: WO2014102101 SEQID: 311 claimed protein", "51: PN: WO2014102103 TABLE: 1 claimed protein", "30: PN: WO2014102100 TABLE: 1 claimed protein", "2: PN: WO2018022936 SEQID: 137 claimed sequence", "12: PN: WO2018075564 PAGE: 122 claimed sequence", "390: PN: WO2019074124 SEQID: 398 claimed protein", "4: PN: WO2020135804 PAGE: 42 claimed sequence", "5: PN: WO2020191289 PAGE: 118 claimed sequence", "5: PN: WO2020237322 SEQID: 22 claimed sequence", "1: PN: WO2021003739 SEQID: 69 claimed sequence", "8: PN: WO2021026336 PAGE: 101 claimed sequence", "H-Ser-Ser-OH", "45: PN: CN110914296 SEQID: 45 claimed protein", "303: PN: WO2021146320 SEQID: 303 claimed protein", "28: PN: WO2021238932 SEQID: 28 claimed protein", "20: PN: WO2022007807 SEQID: 20 claimed protein", "20: PN: WO2022232885 SEQID: 22 claimed protein"], "SMILES": "C(NC(C(CO)N)=O)(C(O)=O)CO", "physical_data": {"Molecular Weight": "192.17", "Molecular Formula": "C6H12N2O5", "Melting Point": "228-230 \u00b0C"}}