{"cas_no": "66215-27-8", "cn_name": "\u73af\u4e19\u6c28\u55ea", "en_name": ["Cyromazine", "1,3,5-Triazine-2,4,6-triamine, N2-cyclopropyl-", "1,3,5-Triazine-2,4,6-triamine, N-cyclopropyl-", "N2-Cyclopropyl-1,3,5-triazine-2,4,6-triamine", "Vetrazin", "Vetrazine", "Vetrazin (pesticide)", "2-Cyclopropylamino-4,6-diamino-s-triazine", "CGA 72662", "Larvadex", "Cyclopropylmelamine", "Cyromazine", "N-Cyclopropyl-1,3,5-triazine-2,4,6-triamine", "Trigard", "2,4-Diamino-6-(cyclopropylamino)-s-triazine", "Neporex", "Citation", "Vetrazin Liquid", "Patron", "Cyromazin", "2,4-Diamino-6-cyclopropylamino-1,3,5-triazine"], "SMILES": "N(C=1N=C(N)N=C(N)N1)C2CC2", "physical_data": {"Molecular Weight": "166.18", "Molecular Formula": "C6H10N6", "Melting Point": "219-222 \u00b0C", "Density": "1.35 g/cm\u00b3 @ Temp: 20 \u00b0C"}}