{"cas_no": "6621-59-6", "cn_name": "6-\u6eb4\u5df1\u8148", "en_name": ["6-Bromohexanenitrile", "Hexanenitrile, 6-bromo-", "6-Bromohexanenitrile", "5-Bromopentyl cyanide", "6-Bromohexanonitrile", "6-Bromocapronitrile", "NSC 59712"], "SMILES": "C(CCC#N)CCBr", "physical_data": {"Molecular Weight": "176.05", "Molecular Formula": "C6H10BrN", "Boiling Point": "134.4 \u00b0C @ Press: 15 Torr", "Density": "1.328 g/cm\u00b3 @ Temp: 24 \u00b0C"}}