{"cas_no": "6622-91-9", "cn_name": "4-\u5421\u5576\u4e59\u9178\u76d0\u9178\u76d0", "en_name": ["4-Pyridylacetic acid hydrochloride", "4-Pyridineacetic acid, hydrochloride (1:1)", "4-Pyridineacetic acid, hydrochloride", "4-Pyridylacetic acid hydrochloride", "2-(Pyridin-4-yl)acetic acid hydrochloride", "Pyridin-4-ylacetic acid hydrochloride"], "SMILES": "C(C(O)=O)C=1C=CN=CC1.Cl", "physical_data": {"Molecular Weight": "", "Molecular Formula": "C7H7NO2.ClH", "Melting Point": "130-131 \u00b0C"}}