{"cas_no": "6622-55-5", "cn_name": "N-\u82c4\u57fa\u90bb\u6c28\u57fa\u82ef\u7532\u9178", "en_name": ["N-Benzylanthranilic acid", "Benzoic acid, 2-[(phenylmethyl)amino]-", "Anthranilic acid, N-benzyl-", "2-[(Phenylmethyl)amino]benzoic acid", "N-Benzylanthranilic acid", "N-Benzyl-o-aminobenzoic acid", "2-(Phenylmethylamino)benzoic acid", "2-(N-Benzylamino)benzoic acid", "NSC 54454", "NSC 54640", "2-(Benzylamino)benzoic acid"], "SMILES": "N(CC1=CC=CC=C1)C2=C(C(O)=O)C=CC=C2", "physical_data": {"Molecular Weight": "227.26", "Molecular Formula": "C14H13NO2", "Melting Point": "175 \u00b0C"}}