{"cas_no": "6622-92-0", "cn_name": "2\uff0c4-\u4e8c\u7532\u57fa-6-\u7f9f\u57fa\u5627\u5576", "en_name": ["2,6-Dimethyl-4(3H)-pyrimidinone", "4(3H)-Pyrimidinone, 2,6-dimethyl-", "4(1H)-Pyrimidinone, 2,6-dimethyl-", "2,6-Dimethyl-4(3H)-pyrimidinone", "2,4-Dimethyl-6-hydroxypyrimidine", "6-Hydroxy-2,4-dimethylpyrimidine", "4-Hydroxy-2,6-dimethylpyrimidine", "2,6-Dimethyl-4-hydroxypyrimidine", "2,6-Dimethylpyrimidin-4-one", "2,6-Dimethyl-4-pyrimidinol", "NSC 54507", "2,6-Dimethyl-1H-pyrimidin-4-one"], "SMILES": "CC1=CC(=O)N=C(C)N1", "physical_data": {"Molecular Weight": "124.14", "Molecular Formula": "C6H8N2O", "Boiling Point": "111 \u00b0C @ Press: 0.5 Torr", "Melting Point": "190-194 \u00b0C"}}