{"cas_no": "6622-76-0", "cn_name": "\u60d5\u5404\u9178\u7532\u916f", "en_name": ["Methyl tiglate", "2-Butenoic acid, 2-methyl-, methyl ester, (2E)-", "Crotonic acid, 2-methyl-, methyl ester, (E)-", "2-Butenoic acid, 2-methyl-, methyl ester, (E)-", "Tiglic acid, methyl ester", "Methyl tiglate", "Methyl (E)-2-methylcrotonate", "Methyl trans-2-methylcrotonate", "Methyl \u03b1-methylcrotonate", "(E)-Methyl 2-methyl-2-butenoate", "NSC 55277", "Methyl trans-2-methyl-2-butenoate"], "SMILES": "C(C(OC)=O)(=CC)C", "physical_data": {"Molecular Weight": "114.14", "Molecular Formula": "C6H10O2", "Boiling Point": "139 \u00b0C", "Melting Point": "124-125 \u00b0C", "Density": "0.94980 g/cm\u00b3 @ Temp: 20 \u00b0C"}}