{"cas_no": "6623-81-0", "cn_name": "5-\u7532\u6c27\u57fa\u5c3f\u5627\u5576", "en_name": ["5-Methoxyuracil", "2,4(1H,3H)-Pyrimidinedione, 5-methoxy-", "Uracil, 5-methoxy-", "5-Methoxy-2,4(1H,3H)-pyrimidinedione", "5-Methoxyuracil", "NSC 55452", "5-Methoxypyrimidine-2,4-diol"], "SMILES": "O(C)C=1C(=O)NC(=O)NC1", "physical_data": {"Molecular Weight": "142.11", "Molecular Formula": "C5H6N2O3", "Melting Point": "336-337 \u00b0C (decomp)"}}