{"cas_no": "66232-56-2", "cn_name": "2-\u6c28\u57fa-6-\u4e59\u57fa\u82ef\u7532\u9178", "en_name": ["2-Amino-6-ethylbenzoic acid", "Benzoic acid, 2-amino-6-ethyl-", "2-Amino-6-ethylbenzoic acid", "6-Ethylanthranilic acid"], "SMILES": "C(O)(=O)C1=C(CC)C=CC=C1N", "physical_data": {"Molecular Weight": "165.19", "Molecular Formula": "C9H11NO2", "Melting Point": "97-99 \u00b0C (decomp)"}}