{"cas_no": "6623-41-2", "cn_name": "2-\u6c28\u57fa-4,5-\u4e8c\u7532\u57fa\u82ef\u915a", "en_name": ["2-Amino-4,5-dimethylphenol", "Phenol, 2-amino-4,5-dimethyl-", "3,4-Xylenol, 6-amino-", "2-Amino-4,5-dimethylphenol", "1-Amino-2-hydroxy-4,5-dimethylbenzene", "4,5-Dimethyl-2-aminophenol", "4-Amino-5-hydroxy-1,2-xylene", "4,5-Dimethyl-2-hydroxyaniline", "NSC 54925"], "SMILES": "CC1=C(C)C=C(O)C(N)=C1", "physical_data": {"Molecular Weight": "137.18", "Molecular Formula": "C8H11NO", "Melting Point": "173-175 \u00b0C (sublm)"}}