{"cas_no": "66230-04-4", "cn_name": "S-\u6c30\u620a\u83ca\u916f", "en_name": ["Esfenvalerate", "Benzeneacetic acid, 4-chloro-\u03b1-(1-methylethyl)-, (S)-cyano(3-phenoxyphenyl)methyl ester, (\u03b1S)-", "Benzeneacetic acid, 4-chloro-\u03b1-(1-methylethyl)-, cyano(3-phenoxyphenyl)methyl ester, [S-(R*,R*)]-", "Fenvalerate \u03b1", "(S)-\u03b1-Cyano-3-phenoxybenzyl (S)-2-(4-chlorophenyl)isovalerate", "S 5602A\u03b1", "Esfenvalerate", "Fenvalerate A\u03b1", "A\u03b1", "OMS 3023", "Sumicidin A\u03b1", "Sumi-alpha", "S 1844", "Sumi-alfa", "Asana", "(S,S)-Fenvalerate", "Asana XL", "Sumidan", "\u03b1-Sum", "1S,1\u2032S-Fenvalerate", "Sumi-Gold", "Soumi Gold"], "SMILES": "C(C(OC(C#N)C1=CC(OC2=CC=CC=C2)=CC=C1)=O)(C(C)C)C3=CC=C(Cl)C=C3", "physical_data": {"Molecular Weight": "419.90", "Molecular Formula": "C25H22ClNO3", "Boiling Point": "151-167 \u00b0C", "Melting Point": "59-60.2 \u00b0C", "Density": "1.175 g/cm\u00b3 @ Temp: 25 \u00b0C"}}