{"cas_no": "66246-88-6", "cn_name": "\u620a\u83cc\u5511", "en_name": ["Penconazole", "1H-1,2,4-Triazole, 1-[2-(2,4-dichlorophenyl)pentyl]-", "1-[2-(2,4-Dichlorophenyl)pentyl]-1H-1,2,4-triazole", "CGA 71818", "Penconazole", "Topaze", "Topas", "Ofir", "Pine gel", "Regal gel", "(\u00b1)-Penconazole", "Omnex", "Omnex WP 10", "Topas (fungicide)", "Erluejunzuo", "Pentos"], "SMILES": "C(CN1C=NC=N1)(CCC)C2=C(Cl)C=C(Cl)C=C2", "physical_data": {"Molecular Weight": "284.18", "Molecular Formula": "C13H15Cl2N3", "Melting Point": "58.5 \u00b0C"}}