{"cas_no": "66254-56-6", "cn_name": "1-\u6c28\u57fa-2-\u7532\u4e19\u57fa\u78f7\u9178", "en_name": ["P-[(1R)-1-amino-2-methylpropyl]phosphonic acid", "Phosphonic acid, P-[(1R)-1-amino-2-methylpropyl]-", "Phosphonic acid, (1-amino-2-methylpropyl)-, (R)-", "Phosphonic acid, [(1R)-1-amino-2-methylpropyl]-", "P-[(1R)-1-amino-2-methylpropyl]phosphonic acid", "(R)-\u03b1-Aminoisobutylphosphonic acid", "(1R)-(+)-(1-Amino-2-methylpropyl)phosphonic acid", "(1R)-(+)-(1-Amino-2-methylpropyl)phosphonic acid"], "SMILES": "C(P(=O)(O)O)(C(C)C)N", "physical_data": {"Molecular Weight": "153.12", "Molecular Formula": "C4H12NO3P", "Melting Point": "272-273 \u00b0C (decomp)"}}