{"cas_no": "6625-74-7", "cn_name": "N-\u4e09\u7532\u57fa\u4e59\u9170\u57fa\u82ef\u80fa", "en_name": ["2,2-Dimethyl-N-phenylpropanamide", "Propanamide, 2,2-dimethyl-N-phenyl-", "Pivalanilide", "2,2-Dimethyl-N-phenylpropanamide", "N-Phenyltrimethylacetamide", "N-Pivaloylaniline", "Pivaloylaminobenzene", "NSC 58513", "NSC 9043", "N-Phenylpivalamide", "PMSA 955"], "SMILES": "N(C(C(C)(C)C)=O)C1=CC=CC=C1", "physical_data": {"Molecular Weight": "177.24", "Molecular Formula": "C11H15NO", "Melting Point": "132 \u00b0C"}}