{"cas_no": "66256-28-8", "cn_name": "2-\u7898-5-\u6c1f\u7532\u82ef", "en_name": ["4-Fluoro-1-iodo-2-methylbenzene", "Benzene, 4-fluoro-1-iodo-2-methyl-", "4-Fluoro-1-iodo-2-methylbenzene", "5-Fluoro-2-iodotoluene", "2-Methyl-4-fluoroiodobenzene", "4-Fluoro-2-methyliodobenzene"], "SMILES": "CC1=C(I)C=CC(F)=C1", "physical_data": {"Molecular Weight": "236.03", "Molecular Formula": "C7H6FI", "Boiling Point": "138-139 \u00b0C @ Press: 9 Torr"}}