{"cas_no": "6626-15-9", "cn_name": "4-\u6eb4\u95f4\u82ef\u4e8c\u915a", "en_name": ["4-Bromoresorcinol", "1,3-Benzenediol, 4-bromo-", "Resorcinol, 4-bromo-", "4-Bromo-1,3-benzenediol", "4-Bromoresorcinol", "4-Bromo-1,3-dihydroxybenzene", "1-Bromo-2,4-dihydroxybenzene", "2,4-Dihydroxybromobenzene", "4-Bromo-3-hydroxyphenol", "4-Bromobenzene-1,3-diol", "NSC 59699"], "SMILES": "OC1=C(Br)C=CC(O)=C1", "physical_data": {"Molecular Weight": "189.01", "Molecular Formula": "C6H5BrO2", "Boiling Point": "155 \u00b0C @ Press: 6 Torr", "Melting Point": "103 \u00b0C"}}