{"cas_no": "6626-40-0", "cn_name": "7,10-\u4e8c\u6c2f-2-\u7532\u6c27\u57fa\u82ef\u5e76[B]-1,5-\u8418\u5576", "en_name": ["7,10-Dichloro-2-methoxybenzo[b]-1,5-naphthyridine", "Benzo[b]-1,5-naphthyridine, 7,10-dichloro-2-methoxy-", "Pyrido[3,2-b]quinoline, 7,10-dichloro-2-methoxy-", "7,10-Dichloro-2-methoxybenzo[b]-1,5-naphthyridine", "7,10-Dichloro-2-methoxypyrido[3,2-b]quinoline", "NSC 59862"], "SMILES": "ClC1=C2C(=NC3=C1C=CC(Cl)=C3)C=CC(OC)=N2", "physical_data": {"Molecular Weight": "279.12", "Molecular Formula": "C13H8Cl2N2O", "Melting Point": "186-187 \u00b0C"}}