{"cas_no": "6626-23-9", "cn_name": "1-\u6c2f\u7532\u57fa-2-\u7532\u57fa\u8418", "en_name": ["1-(Chloromethyl)-2-methylnaphthalene", "Naphthalene, 1-(chloromethyl)-2-methyl-", "1-(Chloromethyl)-2-methylnaphthalene", "1-Chloromethyl-2-methylnaphthalene", "NSC 59830", "2-Methyl-1-chloromethylnaphthalene"], "SMILES": "C(Cl)C=1C2=C(C=CC1C)C=CC=C2", "physical_data": {"Molecular Weight": "190.67", "Molecular Formula": "C12H11Cl", "Boiling Point": "125-126 \u00b0C", "Melting Point": "65 \u00b0C"}}