{"cas_no": "66270-36-8", "cn_name": "BETA,BETA,,BETA-\u4e09\u6c2f\u53d4\u4e01\u57fa\u6c2f\u7532\u9178\u916f", "en_name": ["2,2,2-Trichloro-1,1-dimethylethyl carbonochloridate", "Carbonochloridic acid, 2,2,2-trichloro-1,1-dimethylethyl ester", "2,2,2-Trichloro-1,1-dimethylethyl carbonochloridate", "2,2,2-Trichloro-1,1-dimethylethyl chloroformate", "2,2,2-Trichloro-1,1-dimethylethoxycarbonyl chloride", "1,1-Dimethyl-2,2,2-trichloroethyl chloroformate", "2,2,2-Trichloro-tert-butyl chloroformate", "1,1,1-Trichloro-2-methylpropan-2-yl carbonochloridate", "1,1,1-Trichloro-2-methylpropan-2-yl chloroformate"], "SMILES": "C(OC(Cl)=O)(C(Cl)(Cl)Cl)(C)C", "physical_data": {"Molecular Weight": "239.91", "Molecular Formula": "C5H6Cl4O2", "Melting Point": "62-64 \u00b0C"}}