{"cas_no": "6627-53-8", "cn_name": "5-\u6c2f-2-\u785d\u57fa\u82ef\u7532\u919a(5-\u6c2f-2-\u785d\u57fa\u8334\u9999\u919a)", "en_name": ["4-Chloro-2-methoxy-1-nitrobenzene", "Benzene, 4-chloro-2-methoxy-1-nitro-", "Anisole, 5-chloro-2-nitro-", "4-Chloro-2-methoxy-1-nitrobenzene", "2-Nitro-5-chloroanisole", "4-Chloro-2-methoxynitrobenzene", "5-Chloro-2-nitroanisole", "1-Chloro-3-methoxy-4-nitrobenzene", "2-Methoxy-4-chloronitrobenzene", "5-Chloro-2-nitrophenyl methyl ether", "NSC 60112", "4-Chloro-2-(methyloxy)-1-nitrobenzene", "3-Methoxy-4-nitro-1-chlorobenzene"], "SMILES": "O(C)C1=C(N(=O)=O)C=CC(Cl)=C1", "physical_data": {"Molecular Weight": "187.58", "Molecular Formula": "C7H6ClNO3", "Melting Point": "70 \u00b0C"}}