{"cas_no": "6627-72-1", "cn_name": "\u9f99\u8111\u6cb9", "en_name": ["endo-Borneol", "Bicyclo[2.2.1]heptan-2-ol, 1,7,7-trimethyl-, (1R,2S,4R)-rel-", "Borneol", "Bicyclo[2.2.1]heptan-2-ol, 1,7,7-trimethyl-, endo-", "rel-(1R,2S,4R)-1,7,7-Trimethylbicyclo[2.2.1]heptan-2-ol", "Camphol", "endo-Borneol", "endo-2-Hydroxy-1,7,7-trimethylnorbornane", "2-Borneol", "2-endo-Bornyl alcohol", "dl-Borneol", "(\u00b1)-Borneol", "endo-(\u00b1)-Bornan-2-ol", "NSC 60223", "rel-(1S,2R,4S)-1,7,7-Trimethylbicyclo[2.2.1]heptan-2-ol"], "SMILES": "CC12C(C)(C)C(CC1O)CC2", "physical_data": {"Molecular Weight": "154.25", "Molecular Formula": "C10H18O", "Boiling Point": "213.2 \u00b0C", "Melting Point": "204 \u00b0C", "Density": "0.9864 g/cm\u00b3 @ Temp: 20 \u00b0C"}}