{"cas_no": "6627-88-9", "cn_name": "4-\u70ef\u4e19\u57fa-2,6-\u4e8c\u7532\u6c27\u57fa\u82ef\u915a", "en_name": ["4-Allyl-2,6-dimethoxyphenol", "Phenol, 2,6-dimethoxy-4-(2-propen-1-yl)-", "Phenol, 4-allyl-2,6-dimethoxy-", "Phenol, 2,6-dimethoxy-4-(2-propenyl)-", "Chavicol, 2,6-dimethoxy-", "2,6-Dimethoxy-4-(2-propen-1-yl)phenol", "4-Hydroxy-3,5-dimethoxyallylbenzene", "4-Allyl-2,6-dimethoxyphenol", "2,6-Dimethoxy-4-allylphenol", "Methoxyeugenol", "4-Allylsyringol", "2,6-Dimethoxychavicol", "2,6-Dimethoxy-4-(2-propenyl)phenol", "6-Methoxyeugenol", "4-(2-Propenyl)syringol", "NSC 16953", "NSC 60246", "4-(2-Propenyl)-2,6-dimethoxyphenol", "4-Allenylsyringol"], "SMILES": "O(C)C1=C(O)C(OC)=CC(CC=C)=C1", "physical_data": {"Molecular Weight": "194.23", "Molecular Formula": "C11H14O3", "Boiling Point": "168-169 \u00b0C @ Press: 11 Torr"}}