{"cas_no": "6627-78-7", "cn_name": "1-\u6eb4-4-\u7532\u57fa\u8418", "en_name": ["1-Bromo-4-methylnaphthalene", "Naphthalene, 1-bromo-4-methyl-", "1-Bromo-4-methylnaphthalene", "4-Bromo-1-methylnaphthalene", "4-Methyl-1-bromonaphthalene", "NSC 60231", "1-Methyl-4-bromonaphthalene"], "SMILES": "BrC=1C2=C(C(C)=CC1)C=CC=C2", "physical_data": {"Molecular Weight": "221.09", "Molecular Formula": "C11H9Br", "Boiling Point": "162-164 \u00b0C @ Press: 12 Torr", "Melting Point": "5.5-6.0 \u00b0C"}}