{"cas_no": "6627-60-7", "cn_name": "6-\u7532\u57fa-2-\u5421\u5576\u7532\u80fa", "en_name": ["6-Methyl-2-pyridinemethanamine", "2-Pyridinemethanamine, 6-methyl-", "Pyridine, 2-(aminomethyl)-6-methyl-", "6-Methyl-2-pyridinemethanamine", "2-(Aminomethyl)-6-methylpyridine", "6-Methyl-2-(aminomethyl)pyridine", "2-Aminomethyl-6-picoline", "(6-Methyl-2-pyridyl)methylamine", "2-Methyl-6-aminomethylpyridine", "[(6-Methylpyridin-2-yl)methyl]amine", "NSC 60125", "NSC 63906", "(6-Methylpyridin-2-yl)methanamine", "1-(6-Methylpyridin-2-yl)methanamine"], "SMILES": "C(N)C=1N=C(C)C=CC1", "physical_data": {"Molecular Weight": "122.17", "Molecular Formula": "C7H10N2", "Boiling Point": "55-57 \u00b0C @ Press: 0.1 Torr"}}