{"cas_no": "6627-91-4", "cn_name": "2-(\u6c30\u57fa\u7532\u57fa)\u82ef\u7532\u9178", "en_name": ["2-(Cyanomethyl)benzoic acid", "Benzoic acid, 2-(cyanomethyl)-", "o-Toluic acid, \u03b1-cyano-", "2-(Cyanomethyl)benzoic acid", "o-Carboxyphenylacetonitrile", "NSC 60255", "NSC 631630"], "SMILES": "C(O)(=O)C1=C(CC#N)C=CC=C1", "physical_data": {"Molecular Weight": "161.16", "Molecular Formula": "C9H7NO2", "Melting Point": "126 \u00b0C"}}