{"cas_no": "6627-55-0", "cn_name": "2-\u6eb4-4-\u7532\u57fa\u82ef\u915a", "en_name": ["2-Bromo-4-methylphenol", "Phenol, 2-bromo-4-methyl-", "p-Cresol, 2-bromo-", "2-Bromo-4-methylphenol", "2-Bromo-p-cresol", "3-Bromo-4-hydroxytoluene", "2-Bromo-4-cresol", "NSC 60115"], "SMILES": "BrC1=C(O)C=CC(C)=C1", "physical_data": {"Molecular Weight": "187.03", "Molecular Formula": "C7H7BrO", "Boiling Point": "245-247 \u00b0C", "Melting Point": "54-55 \u00b0C"}}