{"cas_no": "6627-89-0", "cn_name": "\u53d4\u4e01\u57fa\u82ef\u57fa\u78b3\u9178\u916f", "en_name": ["Carbonic acid, 1,1-dimethylethyl phenyl ester", "Carbonic acid, 1,1-dimethylethyl phenyl ester", "Carbonic acid, tert-butyl phenyl ester", "tert-Butyl phenyl carbonate", "Phenyl tert-butyl carbonate", "1-tert-Butoxycarbonyloxybenzene", "NSC 60248", "1,1-Dimethylethyl phenyl carbonate"], "SMILES": "O(C(OC(C)(C)C)=O)C1=CC=CC=C1", "physical_data": {"Molecular Weight": "194.23", "Molecular Formula": "C11H14O3", "Boiling Point": "74-78 \u00b0C @ Press: 0.5 Torr", "Melting Point": "63-65 \u00b0C"}}