{"cas_no": "6627-34-5", "cn_name": "2,5-\u4e8c\u6c2f-4-\u785d\u57fa\u82ef\u80fa", "en_name": ["2,5-Dichloro-4-nitrobenzenamine", "Benzenamine, 2,5-dichloro-4-nitro-", "Aniline, 2,5-dichloro-4-nitro-", "2,5-Dichloro-4-nitrobenzenamine", "2,5-Dichloro-4-nitroaniline", "NSC 60645", "2,5-Dichloro-4-nitrophenylamine"], "SMILES": "N(=O)(=O)C1=C(Cl)C=C(N)C(Cl)=C1", "physical_data": {"Molecular Weight": "207.01", "Molecular Formula": "C6H4Cl2N2O2", "Melting Point": "153 \u00b0C"}}