{"cas_no": "6628-21-3", "cn_name": "2,3-\u4e8c\u6c2f\u4e19\u9178\u4e59\u916f", "en_name": ["Ethyl 2,3-dichloropropanoate", "Propanoic acid, 2,3-dichloro-, ethyl ester", "Propionic acid, 2,3-dichloro-, ethyl ester", "Ethyl \u03b1,\u03b2-dichloropropionate", "Ethyl 2,3-dichloropropionate", "2,3-Dichloropropionic acid ethyl ester", "\u03b1,\u03b2-Dichloropropionic acid ethyl ester", "NSC 60553", "Ethyl 2,3-dichloropropanoate"], "SMILES": "C(C(CCl)Cl)(OCC)=O", "physical_data": {"Molecular Weight": "171.02", "Molecular Formula": "C5H8Cl2O2", "Boiling Point": "183.5 \u00b0C", "Density": "1.2505 g/cm\u00b3 @ Temp: 20 \u00b0C"}}