{"cas_no": "6628-28-0", "cn_name": "6-\u4e59\u6c27\u57fa-2-\u7532\u57fa\u55b9\u5549", "en_name": ["6-Ethoxy-2-methylquinoline", "Quinoline, 6-ethoxy-2-methyl-", "Quinaldine, 6-ethoxy-", "6-Ethoxy-2-methylquinoline", "6-Ethoxyquinaldine", "NSC 60562", "2-Methyl-6-ethoxyquinoline"], "SMILES": "O(CC)C1=CC2=C(C=C1)N=C(C)C=C2", "physical_data": {"Molecular Weight": "187.24", "Molecular Formula": "C12H13NO", "Boiling Point": "173 \u00b0C @ Press: 14 Torr", "Melting Point": "71 \u00b0C"}}