{"cas_no": "6628-83-7", "cn_name": "2-\u7532\u80fa\u57fa\u56db\u6c22\u5421\u5583", "en_name": ["Tetrahydro-2H-pyran-2-methanamine", "2H-Pyran-2-methanamine, tetrahydro-", "2H-Pyran-2-methylamine, tetrahydro-", "Pyran-2-methylamine, tetrahydro-", "Tetrahydro-2H-pyran-2-methanamine", "2-(Aminomethyl)tetrahydropyran", "2-(Aminomethyl)tetrahydro-2H-pyran", "NSC 59724", "[(Tetrahydropyran-2-yl)methyl]amine", "(Tetrahydro-2H-pyran-2-yl)methanamine", "[(3,4,5,6-Tetrahydro-2H-pyran-2-yl)methyl]amine", "(Oxan-2-yl)methylamine", "1-Tetrahydro-2H-pyran-2-ylmethanamine", "(Oxan-2-yl)methanamine"], "SMILES": "C(N)C1CCCCO1", "physical_data": {"Molecular Weight": "115.17", "Molecular Formula": "C6H13NO", "Boiling Point": "45-48 \u00b0C @ Press: 10 Torr", "Melting Point": "136 \u00b0C", "Density": "1.9635 g/cm\u00b3 @ Temp: 20 \u00b0C"}}