{"cas_no": "6628-86-0", "cn_name": "5-\u6c2f-2-\u785d\u57fa\u82ef\u7532\u919b", "en_name": ["5-Chloro-2-nitrobenzaldehyde", "Benzaldehyde, 5-chloro-2-nitro-", "5-Chloro-2-nitrobenzaldehyde", "2-Nitro-5-chlorobenzaldehyde", "3-Chloro-6-nitrobenzaldehyde", "NSC 59734"], "SMILES": "C(=O)C1=C(N(=O)=O)C=CC(Cl)=C1", "physical_data": {"Molecular Weight": "185.56", "Molecular Formula": "C7H4ClNO3", "Melting Point": "78.5-79.5 \u00b0C"}}