{"cas_no": "6628-00-8", "cn_name": "\u70ef\u4e19\u57fa\u73af\u5df1\u80fa", "en_name": ["N-2-Propen-1-ylcyclohexanamine", "Cyclohexanamine, N-2-propen-1-yl-", "Cyclohexanamine, N-2-propenyl-", "N-2-Propen-1-ylcyclohexanamine", "N-Allylcyclohexylamine", "Allylcyclohexylamine", "N-Cyclohexylallylamine", "N-Allylcyclohexanamine", "N-Allyl-N-cyclohexylamine", "(Allylamino)cyclohexane", "Cyclohexyl(2-propenyl)amine", "NSC 60272"], "SMILES": "N(CC=C)C1CCCCC1", "physical_data": {"Molecular Weight": "139.24", "Molecular Formula": "C9H17N", "Boiling Point": "36-41 \u00b0C @ Press: 3.3 Torr"}}