{"cas_no": "66280-25-9", "cn_name": "\u6208\u7c73\u8f9bJ", "en_name": ["Gomisin J", "Dibenzo[a,c]cyclooctene-3,10-diol, 5,6,7,8-tetrahydro-1,2,11,12-tetramethoxy-6,7-dimethyl-, (6R,7S,12aS)-", "Dibenzo[a,c]cyclooctene-3,10-diol, 5,6,7,8-tetrahydro-1,2,11,12-tetramethoxy-6,7-dimethyl-, stereoisomer", "(6R,7S,12aS)-5,6,7,8-Tetrahydro-1,2,11,12-tetramethoxy-6,7-dimethyldibenzo[a,c]cyclooctene-3,10-diol", "Gomisin J", "(-)-Gomisin J"], "SMILES": "O(C)C1=C2C3=C(OC)C(OC)=C(O)C=C3CC(C)C(C)CC2=CC(O)=C1OC", "physical_data": {"Molecular Weight": "388.45", "Molecular Formula": "C22H28O6", "Melting Point": "148-149 \u00b0C"}}