{"cas_no": "6628-04-2", "cn_name": "4-\u6c28\u57fa-2-\u7532\u57fa\u53ef\u5c3c\u6c40", "en_name": ["4-Amino-2-methylquinoline", "4-Quinolinamine, 2-methyl-", "Quinaldine, 4-amino-", "2-Methyl-4-quinolinamine", "4-Aminoquinaldine", "4-Amino-2-methylquinoline", "4-Quinaldinamine", "2-Methyl-4-aminoquinoline", "(2-Methylquinolin-4-yl)amine", "NSC 60281", "2-Methylquinolin-4-amine"], "SMILES": "NC=1C2=C(N=C(C)C1)C=CC=C2", "physical_data": {"Molecular Weight": "158.20", "Molecular Formula": "C10H10N2", "Boiling Point": "333 \u00b0C", "Melting Point": "169 \u00b0C"}}