{"cas_no": "6628-77-9", "cn_name": "5-\u6c28\u57fa-2-\u7532\u6c27\u57fa\u5421\u5576", "en_name": ["5-Amino-2-methoxypyridine", "3-Pyridinamine, 6-methoxy-", "Pyridine, 5-amino-2-methoxy-", "6-Methoxy-3-pyridinamine", "5-Amino-2-methoxypyridine", "3-Amino-6-methoxypyridine", "2-Methoxy-5-aminopyridine", "6-Methoxy-3-pyridinylamine", "NSC 59708", "6-Methoxy-3-aminopyridine", "(2-Methoxypyridin-5-yl)amine", "2-Methoxypyridin-5-amine"], "SMILES": "O(C)C1=CC=C(N)C=N1", "physical_data": {"Molecular Weight": "124.14", "Molecular Formula": "C6H8N2O", "Boiling Point": "125-126 \u00b0C @ Press: 10 Torr", "Melting Point": "30 \u00b0C"}}