{"cas_no": "6628-68-8", "cn_name": "2-\u82ef\u4e59\u57fa\u4e19\u4e8c\u9178\u4e8c\u4e59\u916f", "en_name": ["1,3-Diethyl 2-(2-phenylethyl)propanedioate", "Propanedioic acid, 2-(2-phenylethyl)-, 1,3-diethyl ester", "Malonic acid, phenethyl-, diethyl ester", "Propanedioic acid, (2-phenylethyl)-, diethyl ester", "1,3-Diethyl 2-(2-phenylethyl)propanedioate", "Diethyl 2-phenethylmalonate", "Diethyl phenethylmalonate", "Diethyl (2-phenylethyl)malonate", "Diethyl 2-(2-phenylethyl)propanedioate", "(2-Phenylethyl)propanedioic acid diethyl ester", "NSC 60931"], "SMILES": "C(C(OCC)=O)(C(OCC)=O)CCC1=CC=CC=C1", "physical_data": {"Molecular Weight": "264.32", "Molecular Formula": "C15H20O4", "Boiling Point": "185 \u00b0C @ Press: 15 Torr"}}