{"cas_no": "6629-29-4", "cn_name": "2,4-\u4e8c\u6c28\u57fa-6-\u785d\u57fa\u7532\u82ef", "en_name": ["2,4-Diamino-6-nitrotoluene", "1,3-Benzenediamine, 4-methyl-5-nitro-", "4-Methyl-5-nitro-1,3-benzenediamine", "2-Nitro-4,6-diaminotoluene", "2,4-Diamino-6-nitrotoluene", "NSC 58082", "NSC 58161"], "SMILES": "N(=O)(=O)C1=C(C)C(N)=CC(N)=C1", "physical_data": {"Molecular Weight": "167.17", "Molecular Formula": "C7H9N3O2", "Melting Point": "135 \u00b0C"}}