{"cas_no": "6629-04-5", "cn_name": "N-\u6c30\u57fa\u4e59\u9170\u5c3f\u70f7", "en_name": ["Ethyl N-(2-cyanoacetyl)carbamate", "Carbamic acid, N-(2-cyanoacetyl)-, ethyl ester", "Carbamic acid, (cyanoacetyl)-, ethyl ester", "Ethyl N-(2-cyanoacetyl)carbamate", "N-Cyanoacetylurethane", "Ethyl cyanoacetylcarbamate", "Cyanoacetylurethan", "N-Carbethoxy-2-cyanoacetamide", "Ethyl N-(cyanoacetyl)carbamate", "NSC 59709", "Ethyl (2-cyanoacetamido)formate", "Ethyl (2-cyanoacetyl)carbamate"], "SMILES": "C(NC(OCC)=O)(CC#N)=O", "physical_data": {"Molecular Weight": "156.14", "Molecular Formula": "C6H8N2O3", "Melting Point": "167-168 \u00b0C"}}