{"cas_no": "6629-60-3", "cn_name": "\u4e59\u80bc\u8349\u9178\u76d0", "en_name": ["Hydrazine, ethyl-, ethanedioate (1:1)", "Hydrazine, ethyl-, ethanedioate (1:1)", "Hydrazine, ethyl-, oxalate (1:1)", "Hydrazine, ethyl-, oxalate", "Ethylhydrazine oxalate", "NSC 58182", "Ethylhydrazine ethanedioate"], "SMILES": "C(C(O)=O)(O)=O.C(NN)C", "physical_data": {"Molecular Weight": "", "Molecular Formula": "C2H8N2.C2H2O4", "Melting Point": "170-171 \u00b0C"}}