{"cas_no": "66300-61-6", "cn_name": "1,4-\u53cc(2,2,2-\u4e09\u6c1f\u4e59\u6c27\u57fa)\u82ef", "en_name": ["1,4-Bis(2,2,2-trifluoroethoxy)benzene", "Benzene, 1,4-bis(2,2,2-trifluoroethoxy)-", "1,4-Bis(2,2,2-trifluoroethoxy)benzene"], "SMILES": "O(CC(F)(F)F)C1=CC=C(OCC(F)(F)F)C=C1", "physical_data": {"Molecular Weight": "274.16", "Molecular Formula": "C10H8F6O2", "Melting Point": "70 \u00b0C"}}