{"cas_no": "6630-33-7", "cn_name": "\u90bb\u6eb4\u82ef\u7532\u919b", "en_name": ["2-Bromobenzaldehyde", "Benzaldehyde, 2-bromo-", "Benzaldehyde, o-bromo-", "2-Bromobenzaldehyde", "o-Bromobenzaldehyde", "1-Bromo-2-formylbenzene", "2-Bromobenzenecarboxaldehyde", "NSC 60390", "o-Formylphenyl bromide", "2-Formyl-bromobenzene"], "SMILES": "C(=O)C1=C(Br)C=CC=C1", "physical_data": {"Molecular Weight": "185.02", "Molecular Formula": "C7H5BrO", "Boiling Point": "230 \u00b0C", "Melting Point": "21.5 \u00b0C", "Density": "1.305 g/cm\u00b3 @ Temp: 30 \u00b0C"}}