{"cas_no": "6630-65-5", "cn_name": "9-\u6c2f-9-H-\u82b4", "en_name": ["9-Chlorofluorene", "9H-Fluorene, 9-chloro-", "Fluorene, 9-chloro-", "9-Chloro-9H-fluorene", "9-Chlorofluorene", "NSC 59976"], "SMILES": "ClC1C=2C(C=3C1=CC=CC3)=CC=CC2", "physical_data": {"Molecular Weight": "200.66", "Molecular Formula": "C13H9Cl", "Melting Point": "92 \u00b0C"}}