{"cas_no": "6631-37-4", "cn_name": "2-\u82ef\u57fa\u6c28\u57fa\u5421\u5576", "en_name": ["N-Phenyl-2-pyridinamine", "2-Pyridinamine, N-phenyl-", "Pyridine, 2-anilino-", "Pyridine, 1-ethyl-1,2-dihydro-2-phenylimino-", "N-Phenyl-2-pyridinamine", "2-Anilinopyridine", "2-(Phenylamino)pyridine", "NSC 53090", "N-(2-Pyridyl)aniline"], "SMILES": "N(C1=CC=CC=C1)C2=CC=CC=N2", "physical_data": {"Molecular Weight": "170.21", "Molecular Formula": "C11H10N2", "Melting Point": "108 \u00b0C"}}