{"cas_no": "6631-94-3", "cn_name": "2-\u4e59\u9170\u57fa\u5429\u567b\u55ea", "en_name": ["2-Acetylphenothiazine", "Ethanone, 1-(10H-phenothiazin-2-yl)-", "Ketone, methyl phenothiazin-2-yl", "1-(10H-Phenothiazin-2-yl)ethanone", "2-Acetylphenothiazine", "2-Acetyl-10H-phenothiazine", "NSC 169669", "NSC 57951", "1-(10H-Phenothiazin-2-yl)ethan-1-one"], "SMILES": "C(C)(=O)C=1C=C2C(SC=3C(N2)=CC=CC3)=CC1", "physical_data": {"Molecular Weight": "241.31", "Molecular Formula": "C14H11NOS", "Melting Point": "188-189 \u00b0C"}}