{"cas_no": "66322-34-7", "cn_name": "DIHYDROGUAIARETIC ACID", "en_name": ["meso-Dihydroguaiaretic acid", "Phenol, 4,4\u2032-[(2R,3S)-2,3-dimethyl-1,4-butanediyl]bis[2-methoxy-, rel-", "Phenol, 4,4\u2032-(2,3-dimethyl-1,4-butanediyl)bis[2-methoxy-, (R*,S*)-", "Guaiacol, 4,4\u2032-(2,3-dimethyltetramethylene)di-, meso-", "rel-4,4\u2032-[(2R,3S)-2,3-Dimethyl-1,4-butanediyl]bis[2-methoxyphenol]", "meso-Dihydroguaiaretic acid"], "SMILES": "C(C(C(CC1=CC(OC)=C(O)C=C1)C)C)C2=CC(OC)=C(O)C=C2", "physical_data": {"Molecular Weight": "330.42", "Molecular Formula": "C20H26O4", "Melting Point": "88-89 \u00b0C"}}