{"cas_no": "66335-38-4", "cn_name": "5'-\u8131\u6c27-5-\u6c1f\u80de\u82f7", "en_name": ["5\u2032-Deoxy-5-fluorocytidine", "Cytidine, 5\u2032-deoxy-5-fluoro-", "5\u2032-Deoxy-5-fluorocytidine", "5\u2032-DFCR"], "SMILES": "OC1C(OC(C)C1O)N2C(=O)N=C(N)C(F)=C2", "physical_data": {"Molecular Weight": "245.21", "Molecular Formula": "C9H12FN3O4", "Melting Point": "134-136 \u00b0C"}}