{"cas_no": "66332-96-5", "cn_name": "\u6c1f\u62c5\u83cc\u5b81", "en_name": ["Flutolanil", "Benzamide, N-[3-(1-methylethoxy)phenyl]-2-(trifluoromethyl)-", "N-[3-(1-Methylethoxy)phenyl]-2-(trifluoromethyl)benzamide", "3\u2032-Isopropoxy-2-trifluoromethylbenzanilide", "Flutolanil", "Moncut", "ProStar", "Moncoat"], "SMILES": "C(NC1=CC(OC(C)C)=CC=C1)(=O)C2=C(C(F)(F)F)C=CC=C2", "physical_data": {"Molecular Weight": "323.31", "Molecular Formula": "C17H16F3NO2", "Melting Point": "102 \u00b0C", "Density": "1.3 g/cm\u00b3"}}