{"cas_no": "66346-59-6", "cn_name": "5,7-\u4e8c\u7f9f\u57fa-4-\u4e19\u57fa\u9999\u8c46\u7d20", "en_name": ["5,7-Dihydroxy-4-propyl-2H-1-benzopyran-2-one", "2H-1-Benzopyran-2-one, 5,7-dihydroxy-4-propyl-", "Coumarin, 5,7-dihydroxy-4-propyl-", "5,7-Dihydroxy-4-propyl-2H-1-benzopyran-2-one", "5,7-Dihydroxy-4-propylcoumarin", "5,7-Dihydro-4-propyl-2H-chromen-2-one"], "SMILES": "C(CC)C=1C=2C(=CC(O)=CC2O)OC(=O)C1", "physical_data": {"Molecular Weight": "220.22", "Molecular Formula": "C12H12O4", "Melting Point": "258 \u00b0C"}}