{"cas_no": "66346-87-0", "cn_name": "3-\u6c28\u57fa-5-\u7532\u57fa-6-\u6c2f\u54d2\u55ea", "en_name": ["6-Chloro-5-methylpyridazin-3-amine", "3-Pyridazinamine, 6-chloro-5-methyl-", "Pyridazine, 6-amino-3-chloro-4-methyl-", "6-Chloro-5-methyl-3-pyridazinamine", "6-Chloro-5-methylpyridazin-3-amine", "3-Amino-6-chloro-5-methylpyridazine", "(6-Chloro-5-methylpyridazin-3-yl)amine"], "SMILES": "CC1=C(Cl)N=NC(N)=C1", "physical_data": {"Molecular Weight": "143.57", "Molecular Formula": "C5H6ClN3", "Melting Point": "190-191 \u00b0C"}}