{"cas_no": "66357-59-3", "cn_name": "\u76d0\u9178\u96f7\u5c3c\u66ff\u4e01", "en_name": ["Ranitidine hydrochloride", "1,1-Ethenediamine, N-[2-[[[5-[(dimethylamino)methyl]-2-furanyl]methyl]thio]ethyl]-N\u2032-methyl-2-nitro-, hydrochloride (1:1)", "1,1-Ethenediamine, N-[2-[[[5-[(dimethylamino)methyl]-2-furanyl]methyl]thio]ethyl]-N\u2032-methyl-2-nitro-, monohydrochloride", "Ranitidine hydrochloride", "AH 19065", "Zantac", "Ranigast", "Ranuber", "Normon", "Azantac", "Ultac", "Sostril", "Raniogas", "Urantac", "Rantacid", "Antagonin", "Ranisen", "Ranix", "Ezopta", "Ranacid", "Radinat", "Histac", "Achedos", "Xanidine", "Axoban", "Raticina", "Ratic", "Histak", "Zinetac", "Ranitiget", "Ulcex", "Ulceranin", "Ulceran", "Consec", "Quicran", "Raniplex", "Anistal", "Rosimol", "Simetac", "Lydin", "Apozan", "Rantac", "Aciloc", "Apo-Ranitidine", "Randin", "Ptinolin", "Eltidine", "Gastrosedol", "Raniben", "Zantab", "Zantadin", "Galidrin", "Vesyca", "Microtid", "Ranidil", "Ulcirex", "Coralen", "Rani 2", "Ranimex", "Gastridin", "Gastrial", "Neoceptin R", "Ranial", "Aldin", "Zantic", "Atural", "Weidos", "Ranital", "RND", "Rantin", "Acloral", "Ranin", "Vizerul", "Ulsal", "Ranidine", "Ul-Pep", "Weichilin", "Verlost", "Acidex", "Curan", "Taural", "Quantor", "Trigger", "Melfax", "Terposen", "Noctone", "Ultidine", "Ranitidine-akri", "Rantidol", "Ranitin", "Zintac", "Ranitab"], "SMILES": "C(N(C)C)C=1OC(CSCCNC(=CN(=O)=O)NC)=CC1.Cl", "physical_data": {"Molecular Weight": "", "Molecular Formula": "C13H22N4O3S.ClH", "Melting Point": "133-134 \u00b0C"}}