{"cas_no": "66357-35-5", "cn_name": "\u96f7\u5c3c\u66ff\u4e01", "en_name": ["Ranitidine", "1,1-Ethenediamine, N-[2-[[[5-[(dimethylamino)methyl]-2-furanyl]methyl]thio]ethyl]-N\u2032-methyl-2-nitro-", "N-[2-[[[5-[(Dimethylamino)methyl]-2-furanyl]methyl]thio]ethyl]-N\u2032-methyl-2-nitro-1,1-ethenediamine", "Ranitidine", "Midaven", "Zenetac", "Ulcerit", "Label", "MeSH ID: D011899"], "SMILES": "C(N(C)C)C=1OC(CSCCNC(=CN(=O)=O)NC)=CC1", "physical_data": {"Molecular Weight": "314.40", "Molecular Formula": "C13H22N4O3S", "Melting Point": "69-70 \u00b0C"}}