{"cas_no": "66356-53-4", "cn_name": "5-(((2-\u6c28\u57fa\u4e59\u57fa)\u786b\u4ee3)\u7532\u57fa)-N,N-\u4e8c\u7532\u57fa-2-\u544b\u5583\u7532\u80fa", "en_name": ["5-[[(2-Aminoethyl)thio]methyl]-N,N-dimethyl-2-furanmethanamine", "2-Furanmethanamine, 5-[[(2-aminoethyl)thio]methyl]-N,N-dimethyl-", "5-[[(2-Aminoethyl)thio]methyl]-N,N-dimethyl-2-furanmethanamine", "2-[[5-[(Dimethylamino)methyl]-2-furyl]methylsulfanyl]ethanamine", "2-[[5-[(Dimethylamino)methyl]furan-2-yl]methylsulfanyl]ethanamine"], "SMILES": "C(N(C)C)C=1OC(CSCCN)=CC1", "physical_data": {"Molecular Weight": "214.33", "Molecular Formula": "C10H18N2OS", "Boiling Point": "130-137 \u00b0C"}}