{"cas_no": "6635-91-2", "cn_name": "2-\u7532\u6c27\u57fa-4-\u7532\u57fa-5-\u6c28\u57fa\u5421\u5576", "en_name": ["6-Methoxy-4-methyl-3-pyridinamine", "3-Pyridinamine, 6-methoxy-4-methyl-", "4-Picoline, 5-amino-2-methoxy-", "6-Methoxy-4-methyl-3-pyridinamine", "5-Amino-2-methoxy-4-methylpyridine", "NSC 52458", "6-Methoxy-4-methylpyridin-3-amine"], "SMILES": "O(C)C1=CC(C)=C(N)C=N1", "physical_data": {"Molecular Weight": "138.17", "Molecular Formula": "C7H10N2O", "Melting Point": "97 \u00b0C"}}