{"cas_no": "6635-20-7", "cn_name": "5-\u785d\u57fa\u9999\u5170\u7d20", "en_name": ["5-Nitrovanillin", "Benzaldehyde, 4-hydroxy-3-methoxy-5-nitro-", "Vanillin, 5-nitro-", "4-Hydroxy-3-methoxy-5-nitrobenzaldehyde", "5-Nitrovanillin", "3-Methoxy-4-hydroxy-5-nitrobenzaldehyde", "5-Nitro-4-hydroxy-3-methoxybenzaldehyde", "4-Hydroxy-5-methoxy-3-nitrobenzaldehyde", "3-Nitro-4-hydroxy-5-methoxybenzaldehyde", "NSC 16932", "NSC 35352"], "SMILES": "N(=O)(=O)C1=C(O)C(OC)=CC(C=O)=C1", "physical_data": {"Molecular Weight": "197.14", "Molecular Formula": "C8H7NO5", "Melting Point": "175-176 \u00b0C"}}