{"cas_no": "6635-41-2", "cn_name": "2-\u785d\u57fa\u82ef\u7532\u919b\u809f", "en_name": ["2-Nitrobenzaldehyde oxime", "Benzaldehyde, 2-nitro-, oxime", "Benzaldehyde, o-nitro-, oxime", "o-Nitrobenzaldehyde oxime", "o-Nitrobenzaldoxime", "2-Nitrobenzaldoxime", "2-Nitrobenzaldehyde oxime", "NSC 52215"], "SMILES": "N(=O)(=O)C1=C(C=NO)C=CC=C1", "physical_data": {"Molecular Weight": "166.13", "Molecular Formula": "C7H6N2O3", "Melting Point": "97 \u00b0C"}}