{"cas_no": "6636-78-8", "cn_name": "2-\u6c2f-3-\u7f9f\u57fa\u5421\u5576", "en_name": ["2-Chloro-3-pyridinol", "3-Pyridinol, 2-chloro-", "2-Chloro-3-pyridinol", "2-Chloro-3-hydroxypyridine", "3-Hydroxy-2-chloropyridine", "NSC 18469"], "SMILES": "OC1=C(Cl)N=CC=C1", "physical_data": {"Molecular Weight": "129.54", "Molecular Formula": "C5H4ClNO", "Melting Point": "165 \u00b0C"}}