{"cas_no": "66376-36-1", "cn_name": "\u963f\u4ed1\u81a6\u9178", "en_name": ["Alendronic acid", "Phosphonic acid, P,P\u2032-(4-amino-1-hydroxybutylidene)bis-", "Phosphonic acid, (4-amino-1-hydroxybutylidene)bis-", "P,P\u2032-(4-Amino-1-hydroxybutylidene)bis[phosphonic acid]", "Alendronic acid", "4-Amino-1-hydroxybutane-1,1-diphosphonic acid", "4-Amino-1-hydroxybutane-1,1-diphosphonate", "4-Amino-1-hydroxybutylidene-1,1-bis(phosphonic acid)", "4-Amino-1-hydroxybutane-1,1-diyldiphosphonic acid", "ABDP", "BPH 1", "4-Amino-1-hydroxybutane-1,1-bisphosphonic acid", "Marvil"], "SMILES": "C(P(=O)(O)O)(P(=O)(O)O)(CCCN)O", "physical_data": {"Molecular Weight": "249.10", "Molecular Formula": "C4H13NO7P2", "Melting Point": "234 \u00b0C (decomp)"}}