{"cas_no": "6638-60-4", "cn_name": "2-\u6c28\u57fa-7-\u6eb4\u82b4", "en_name": ["2-Amino-7-bromofluorene", "9H-Fluoren-2-amine, 7-bromo-", "Fluoren-2-amine, 7-bromo-", "7-Bromo-9H-fluoren-2-amine", "2-Amino-7-bromofluorene", "2-Bromo-7-aminofluorene", "NSC 48265", "7-Bromo-9H-fluoren-2-ylamine"], "SMILES": "BrC=1C=C2C(C=3C(C2)=CC(N)=CC3)=CC1", "physical_data": {"Molecular Weight": "260.13", "Molecular Formula": "C13H10BrN", "Melting Point": "146 \u00b0C"}}