{"cas_no": "6638-05-7", "cn_name": "3,5-\u4e8c\u7532\u6c27\u57fa-4-\u7f9f\u57fa\u7532\u82ef", "en_name": ["4-Methylsyringol", "Phenol, 2,6-dimethoxy-4-methyl-", "p-Cresol, 2,6-dimethoxy-", "2,6-Dimethoxy-4-methylphenol", "4-Hydroxy-3,5-dimethoxytoluene", "4-Methyl-2,6-dimethoxyphenol", "4-Methylsyringol", "Methylsyringol", "2,6-Dimethoxy-p-cresol", "3,5-Dimethoxy-4-hydroxytoluene", "1-Methyl-3,5-dimethoxy-4-hydroxybenzene", "2,6-Dimethoxy-4-cresol", "NSC 47901"], "SMILES": "O(C)C1=C(O)C(OC)=CC(C)=C1", "physical_data": {"Molecular Weight": "168.19", "Molecular Formula": "C9H12O3", "Boiling Point": "&lt;100 \u00b0C @ Press: 0.2 Torr", "Melting Point": "41 \u00b0C"}}