{"cas_no": "6638-79-5", "cn_name": "\u4e8c\u7532\u7f9f\u80fa\u76d0\u9178\u76d0", "en_name": ["N,O-Dimethylhydroxylamine hydrochloride", "Methanamine, N-methoxy-, hydrochloride (1:1)", "Methanamine, N-methoxy-, hydrochloride", "O,N-Dimethylhydroxylamine hydrochloride", "N-Methoxymethylamine hydrochloride", "N,O-Dimethylhydroxylamine hydrochloride", "N-Methoxymethanamine hydrochloride", "N-Methoxy-N-methylamine hydrochloride", "Methoxymethylamine hydrochloride", "N-Methyl-N-methoxyamine hydrochloride", "O-Methyl hydroxy(methyl)amine hydrochloride"], "SMILES": "N(OC)C.Cl", "physical_data": {"Molecular Weight": "", "Molecular Formula": "C2H7NO.ClH", "Melting Point": "111-115 \u00b0C"}}