{"cas_no": "6639-36-7", "cn_name": "2-\u785d\u57fa\u53cc\u82ef\u5e76\u567b\u5429", "en_name": ["2-Nitrodibenzothiophene", "Dibenzothiophene, 2-nitro-", "2-Nitrodibenzothiophene", "NSC 16062", "2-Nitrodibenzo[b,d]thiophene"], "SMILES": "N(=O)(=O)C=1C=C2C=3C(SC2=CC1)=CC=CC3", "physical_data": {"Molecular Weight": "229.25", "Molecular Formula": "C12H7NO2S", "Melting Point": "186 \u00b0C"}}