{"cas_no": "6639-30-1", "cn_name": "2,4,5-\u4e09\u6c2f\u7532\u82ef", "en_name": ["2,4,5-Trichlorotoluene", "Benzene, 1,2,4-trichloro-5-methyl-", "Toluene, 2,4,5-trichloro-", "1,2,4-Trichloro-5-methylbenzene", "2,4,5-Trichlorotoluene", "NSC 16047"], "SMILES": "CC1=C(Cl)C=C(Cl)C(Cl)=C1", "physical_data": {"Molecular Weight": "195.47", "Molecular Formula": "C7H5Cl3", "Boiling Point": "231 \u00b0C", "Melting Point": "82.4 \u00b0C"}}