{"cas_no": "6639-79-8", "cn_name": "2,3-\u4e8c\u7f9f\u57fa-6-\u6c2f\u55b9\u5594\u5549", "en_name": ["6-Chloro-1,4-dihydro-2,3-quinoxalinedione", "2,3-Quinoxalinedione, 6-chloro-1,4-dihydro-", "2,3-Quinoxalinediol, 6-chloro-", "6-Chloro-1,4-dihydro-2,3-quinoxalinedione", "6-Chloro-1,4-dihydroquinoxaline-2,3-dione", "NSC 48940", "6-Chloroquinoxaline-2,3(1H,4H)-dione"], "SMILES": "O=C1NC=2C(NC1=O)=CC=C(Cl)C2", "physical_data": {"Molecular Weight": "196.59", "Molecular Formula": "C8H5ClN2O2", "Melting Point": "&gt;350 \u00b0C"}}