{"cas_no": "6639-06-1", "cn_name": "1-\u5432\u54da\u4e19\u9178", "en_name": ["1H-Indole-1-propanoic acid", "1H-Indole-1-propanoic acid", "Indole-1-propionic acid", "NSC 17814", "3-Indol-1-ylpropionic acid", "1-(2-Carboxyethyl)-1H-indole", "3-(1H-Indol-1-yl)propanoic acid", "3-Indol-1-ylpropanoic acid"], "SMILES": "C(CC(O)=O)N1C=2C(C=C1)=CC=CC2", "physical_data": {"Molecular Weight": "189.21", "Molecular Formula": "C11H11NO2", "Boiling Point": "180-197 \u00b0C", "Melting Point": "91 \u00b0C"}}