{"cas_no": "6639-62-9", "cn_name": "methyl 3-oxo1,2-benzisothiazole-2(3H)-acetate 1,1-dioxide", "en_name": ["1,2-Benzisothiazole-2(3H)-acetic acid, 3-oxo-, methyl ester, 1,1-dioxide", "1,2-Benzisothiazole-2(3H)-acetic acid, 3-oxo-, methyl ester, 1,1-dioxide", "1,2-Benzisothiazoline-2-acetic acid, 3-oxo-, methyl ester, 1,1-dioxide", "NSC 49216", "Methyl 3-oxo-2,3-dihydro-1,2-benzothiazole-2-acetate 1,1-dioxide", "Methyl 2-[1,1-dioxido-3-oxobenzo[d]isothiazol-2(3H)-yl]acetate", "3-Oxo-1,2-benzoisothiazoline-2-acetic acid methyl ester 1,1-dioxide"], "SMILES": "O=C1C=2C(S(=O)(=O)N1CC(OC)=O)=CC=CC2", "physical_data": {"Molecular Weight": "255.25", "Molecular Formula": "C10H9NO5S", "Melting Point": "116-117 \u00b0C"}}