{"cas_no": "6640-27-3", "cn_name": "2-\u6c2f-4-\u7532\u57fa\u82ef\u915a", "en_name": ["2-Chloro-4-methylphenol", "Phenol, 2-chloro-4-methyl-", "p-Cresol, 2-chloro-", "2-Chloro-4-methylphenol", "2-Chloro-p-cresol", "3-Chloro-4-hydroxytoluene", "NSC 48848"], "SMILES": "ClC1=C(O)C=CC(C)=C1", "physical_data": {"Molecular Weight": "142.58", "Molecular Formula": "C7H7ClO", "Boiling Point": "195.5 \u00b0C", "Melting Point": "193-195 \u00b0C"}}