{"cas_no": "6640-25-1", "cn_name": "4-\u6c2f\u82ef\u57fa\u73af\u4e19\u57fa\u7532\u57fa\u916e", "en_name": ["(4-Chlorophenyl)cyclopropylmethanone", "Methanone, (4-chlorophenyl)cyclopropyl-", "Ketone, p-chlorophenyl cyclopropyl", "(4-Chlorophenyl)cyclopropylmethanone", "p-Chlorophenyl cyclopropyl ketone", "4-Chlorophenyl cyclopropyl ketone", "(p-Chlorobenzoyl)cyclopropane", "Cyclopropyl 4-chlorophenyl ketone", "NSC 49315"], "SMILES": "C(=O)(C1CC1)C2=CC=C(Cl)C=C2", "physical_data": {"Molecular Weight": "180.63", "Molecular Formula": "C10H9ClO", "Boiling Point": "132-133 \u00b0C @ Press: 10 Torr", "Melting Point": "23-24 \u00b0C"}}