{"cas_no": "6640-24-0", "cn_name": "1-(3-\u6c2f\u82ef\u57fa)\u54cc\u55ea", "en_name": ["1-(3-Chlorophenyl)piperazine", "Piperazine, 1-(3-chlorophenyl)-", "Piperazine, 1-(m-chlorophenyl)-", "1-(3-Chlorophenyl)piperazine", "N-(m-Chlorophenyl)piperazine", "N-(3-Chlorophenyl)piperazine", "1-(m-Chlorophenyl)piperazine", "4-(3-Chlorophenyl)piperazine", "m-CPP", "NSC 49307", "mCPP", "mCPP (pharmaceutical)"], "SMILES": "ClC=1C=C(C=CC1)N2CCNCC2", "physical_data": {"Molecular Weight": "196.68", "Molecular Formula": "C10H13ClN2", "Melting Point": "235-238 \u00b0C"}}