{"cas_no": "6640-09-1", "cn_name": "5-\u82ef\u7532\u6c27\u57fa\u5432\u54da-2-\u7fa7\u9178", "en_name": ["5-(Phenylmethoxy)-1H-indole-2-carboxylic acid", "1H-Indole-2-carboxylic acid, 5-(phenylmethoxy)-", "Indole-2-carboxylic acid, 5-(benzyloxy)-", "5-(Phenylmethoxy)-1H-indole-2-carboxylic acid", "5-Benzyloxyindole-2-carboxylic acid", "5-Benzyloxy-1H-indole-2-carboxylic acid", "NSC 30930", "NSC 49096"], "SMILES": "C(O)(=O)C1=CC=2C(N1)=CC=C(OCC3=CC=CC=C3)C2", "physical_data": {"Molecular Weight": "267.28", "Molecular Formula": "C16H13NO3", "Melting Point": "190 \u00b0C"}}