{"cas_no": "6641-64-1", "cn_name": "4,5-\u4e8c\u6c2f-2-\u785d\u57fa\u82ef\u80fa", "en_name": ["4,5-Dichloro-2-nitrobenzenamine", "Benzenamine, 4,5-dichloro-2-nitro-", "Aniline, 4,5-dichloro-2-nitro-", "4,5-Dichloro-2-nitrobenzenamine", "4,5-Dichloro-2-nitroaniline", "2-Nitro-4,5-dichloroaniline", "3,4-Dichloro-6-nitroaniline", "1-Amino-4,5-dichloro-2-nitrobenzene", "NSC 17012"], "SMILES": "N(=O)(=O)C1=C(N)C=C(Cl)C(Cl)=C1", "physical_data": {"Molecular Weight": "207.01", "Molecular Formula": "C6H4Cl2N2O2", "Melting Point": "164-166 \u00b0C"}}