{"cas_no": "66416-72-6", "cn_name": "4 -\u6eb4- 2 - \u7898\u82ef\u7532\u80fa", "en_name": ["4-Bromo-2-iodoaniline", "Benzenamine, 4-bromo-2-iodo-", "4-Bromo-2-iodobenzenamine", "4-Bromo-2-iodoaniline", "2-Iodo-4-bromoaniline", "4-Bromo-2-iodophenylamine"], "SMILES": "IC1=C(N)C=CC(Br)=C1", "physical_data": {"Molecular Weight": "297.92", "Molecular Formula": "C6H5BrIN", "Melting Point": "71 \u00b0C"}}