{"cas_no": "66415-55-2", "cn_name": "3-\u6c28\u57fa\u4e19\u9187\u4e59\u70ef\u57fa\u919a", "en_name": ["3-(Ethenyloxy)-1-propanamine", "1-Propanamine, 3-(ethenyloxy)-", "Propylamine, 3-(vinyloxy)-", "3-(Ethenyloxy)-1-propanamine", "3-(Vinyloxy)propylamine", "3-Aminopropyl vinyl ether", "3-Vinyloxy-1-propanamine", "3-(Vinyloxy)-1-propylamine", "3-Ethenoxypropan-1-amine"], "SMILES": "C(CCN)OC=C", "physical_data": {"Molecular Weight": "101.15", "Molecular Formula": "C5H11NO", "Boiling Point": "141-142 \u00b0C"}}