{"cas_no": "6642-29-1", "cn_name": "4-\u785d\u57fa-1,8-\u8418\u4e8c\u9178\u9150", "en_name": ["4-Nitro-1,8-naphthalic anhydride", "1H,3H-Naphtho[1,8-cd]pyran-1,3-dione, 6-nitro-", "Naphthalic anhydride, 4-nitro-", "6-Nitro-1H,3H-naphtho[1,8-cd]pyran-1,3-dione", "4-Nitronaphthalene-1,8-dicarboxylic anhydride", "4-Nitronaphthalic anhydride", "4-Nitro-1,8-naphthalic anhydride", "5-Nitronaphthalic anhydride", "NSC 15356", "4-Nitro-N-(3-hydroxyphenyl)-1,8-naphthalimide", "4-Nitro-1,8-naphthalimide anhydride"], "SMILES": "N(=O)(=O)C=1C2=C3C(=CC1)C(=O)OC(=O)C3=CC=C2", "physical_data": {"Molecular Weight": "243.17", "Molecular Formula": "C12H5NO5", "Melting Point": "220 \u00b0C"}}