{"cas_no": "6642-30-4", "cn_name": "\u7532\u57fa\u7532\u57fa\u6c28\u57fa\u7532\u9178\u916f", "en_name": ["Carbamic acid, N-methyl-, methyl ester", "Carbamic acid, N-methyl-, methyl ester", "Carbamic acid, methyl-, methyl ester", "Methyl N-methylcarbamate", "Methyl methylcarbamate", "NSC 15396"], "SMILES": "C(NC)(OC)=O", "physical_data": {"Molecular Weight": "89.09", "Molecular Formula": "C3H7NO2", "Boiling Point": "68 \u00b0C @ Press: 17 Torr", "Melting Point": "173-176 \u00b0C"}}