{"cas_no": "6642-31-5", "cn_name": "1,3-\u4e8c\u7532\u57fa-6-\u6c28\u57fa\u8132\u5627\u5576", "en_name": ["6-Amino-1,3-dimethyluracil", "2,4(1H,3H)-Pyrimidinedione, 6-amino-1,3-dimethyl-", "Uracil, 6-amino-1,3-dimethyl-", "6-Amino-1,3-dimethyl-2,4(1H,3H)-pyrimidinedione", "6-Amino-1,3-dimethyluracil", "1,3-Dimethyl-6-aminouracil", "4-Amino-1,3-dimethyluracil", "1,3-Dimethyl-4-aminouracil", "6-Amino-1,3-dimethyl-2,4-pyrimidinedione", "NSC 15492", "6-Amino-1,3-dimethylpyrimidine-2,4(1H,3H)-dione", "4-Amino-1,3-dimethyl-2,6-pyrimidinedione", "N,N-Dimethyl-6-aminouracil"], "SMILES": "CN1C(=O)N(C)C(=O)C=C1N", "physical_data": {"Molecular Weight": "155.15", "Molecular Formula": "C6H9N3O2", "Melting Point": "305-307 \u00b0C"}}