{"cas_no": "66441-23-4", "cn_name": "\u6076\u5511\u79be\u8349\u7075", "en_name": ["Fenoxaprop-ethyl", "Propanoic acid, 2-[4-[(6-chloro-2-benzoxazolyl)oxy]phenoxy]-, ethyl ester", "Propanoic acid, 2-[4-[(6-chloro-2-benzoxazolyl)oxy]phenoxy]-, ethyl ester, (\u00b1)-", "HOE-A 25-01", "HOE 33171", "Fenoxaprop-ethyl", "Furore", "Whip", "Fenoxaprop ethyl ester", "Acclaim", "Ethyl 2-[4-(6-chlorobenzoxazolyl-2-oxy)phenoxy]propionate", "(\u00b1)-Fenoxaprop-ethyl", "Acclaim (herbicide)"], "SMILES": "O(C1=NC=2C(O1)=CC(Cl)=CC2)C3=CC=C(OC(C(OCC)=O)C)C=C3", "physical_data": {"Molecular Weight": "361.78", "Molecular Formula": "C18H16ClNO5", "Boiling Point": "200 \u00b0C @ Press: 0.750 Torr", "Melting Point": "84-85 \u00b0C"}}