{"cas_no": "6645-46-1", "cn_name": "\u5de6\u65cb\u8089\u78b1\u76d0\u9178\u76d0", "en_name": ["L-(-)-Carnitine hydrochloride", "1-Propanaminium, 3-carboxy-2-hydroxy-N,N,N-trimethyl-, chloride, (2R)-", "Ammonium, (3-carboxy-2-hydroxypropyl)trimethyl-, chloride, (-)-", "1-Propanaminium, 3-carboxy-2-hydroxy-N,N,N-trimethyl-, chloride, (R)-", "l-Carnitine hydrochloride", "L-(-)-Carnitine hydrochloride", "(R)-Carnitine hydrochloride", "l-Carnitine chloride", "LC 80", "Levocarnitine chloride", "(R)-(-)-Carnitine hydrochloride", "(R)-3-Carboxy-2-hydroxy-N,N,N-trimethylpropan-1-aminiumchloride", "(R)-(3-Carboxy-2-hydroxypropyl)trimethylammonium chloride"], "SMILES": "C([N+](C)(C)C)C(CC(O)=O)O.[Cl-]", "physical_data": {"Molecular Weight": "", "Molecular Formula": "C7H16NO3.Cl", "Melting Point": "142 \u00b0C"}}