{"cas_no": "6647-98-9", "cn_name": "4-\u7898-1-\u7532\u57fa\u5421\u5511-3-\u7fa7\u9178", "en_name": ["4-Iodo-1-methyl-1H-pyrazole-3-carboxylic acid", "1H-Pyrazole-3-carboxylic acid, 4-iodo-1-methyl-", "Pyrazole-3-carboxylic acid, 4-iodo-1-methyl-", "4-Iodo-1-methyl-1H-pyrazole-3-carboxylic acid"], "SMILES": "C(O)(=O)C1=NN(C)C=C1I", "physical_data": {"Molecular Weight": "252.01", "Molecular Formula": "C5H5IN2O2", "Melting Point": "256-257 \u00b0C"}}