{"cas_no": "6647-96-7", "cn_name": "4-\u7898-1,5-\u4e8c\u7532\u57fa\u5421\u5511", "en_name": ["4-Iodo-1,5-dimethyl-1H-pyrazole", "1H-Pyrazole, 4-iodo-1,5-dimethyl-", "Pyrazole, 4-iodo-1,5-dimethyl-", "4-Iodo-1,5-dimethyl-1H-pyrazole", "4-Iodo-1,5-dimethylpyrazole"], "SMILES": "CC1=C(I)C=NN1C", "physical_data": {"Molecular Weight": "222.03", "Molecular Formula": "C5H7IN2", "Melting Point": "113-113.5 \u00b0C"}}