{"cas_no": "6647-93-4", "cn_name": "4-\u7898-1H-\u5421\u5511-5-\u7fa7\u9178", "en_name": ["4-Iodo-1H-pyrazole-3-carboxylic acid", "1H-Pyrazole-3-carboxylic acid, 4-iodo-", "Pyrazole-3-carboxylic acid, 4-iodo-", "Pyrazole-3(or 5)-carboxylic acid, 4-iodo-", "4-Iodo-1H-pyrazole-3-carboxylic acid"], "SMILES": "C(O)(=O)C=1C(I)=CNN1", "physical_data": {"Molecular Weight": "237.98", "Molecular Formula": "C4H3IN2O2", "Melting Point": "197 \u00b0C"}}