{"cas_no": "66496-82-0", "cn_name": "3-\u6c2f\u7532\u57fa-1-\u7532\u57fa\u54cc\u5576\u76d0\u9178\u76d0", "en_name": ["Piperidine, 3-(chloromethyl)-1-methyl-, hydrochloride (1:1)", "Piperidine, 3-(chloromethyl)-1-methyl-, hydrochloride (1:1)", "Piperidine, 3-(chloromethyl)-1-methyl-, hydrochloride", "3-(Chloromethyl)-1-methylpiperidine hydrochloride"], "SMILES": "C(Cl)C1CN(C)CCC1.Cl", "physical_data": {"Molecular Weight": "", "Molecular Formula": "C7H14ClN.ClH", "Melting Point": "169.1-170.2 \u00b0C"}}