{"cas_no": "66490-33-3", "cn_name": "4-\u6c2f\u4ee3\u82ef\u5e76\u567b\u5429", "en_name": ["4-Chlorobenzo[b]thiophene", "Benzo[b]thiophene, 4-chloro-", "4-Chlorobenzo[b]thiophene", "4-Chlorobenzothiophene"], "SMILES": "ClC1=C2C(=CC=C1)SC=C2", "physical_data": {"Molecular Weight": "168.64", "Molecular Formula": "C8H5ClS", "Boiling Point": "0.8 \u00b0C @ Press: 155-165 Torr", "Melting Point": "81-82 \u00b0C"}}