{"cas_no": "665-49-6", "cn_name": "\u56db\u4e59\u57fa\u56db\u6c1f\u787c\u9178\u76d0", "en_name": ["Tetraethylphosphonium tetrafluoroborate", "Phosphonium, tetraethyl-, tetrafluoroborate(1-) (1:1)", "Phosphonium, tetraethyl-, tetrafluoroborate(1-)", "Tetraethylphosphonium fluoborate", "Tetraethylphosphonium tetrafluoroborate"], "SMILES": "[P+](CC)(CC)(CC)CC.[B+3]([F-])([F-])([F-])[F-]", "physical_data": {"Molecular Weight": "", "Molecular Formula": "C8H20P.BF4", "Melting Point": "291 \u00b0C"}}