{"cas_no": "665-46-3", "cn_name": "\u56db\u4e59\u57fa\u6c1f\u5316\u94f5(\u4e8c\u6c34)", "en_name": ["Tetraethylammonium fluoride", "Ethanaminium, N,N,N-triethyl-, fluoride (1:1)", "Ammonium, tetraethyl-, fluoride", "Ethanaminium, N,N,N-triethyl-, fluoride", "Tetraethylammonium fluoride"], "SMILES": "[N+](CC)(CC)(CC)CC.[F-]", "physical_data": {"Molecular Weight": "", "Molecular Formula": "C8H20N.F", "Melting Point": "80 \u00b0C (decomp)"}}