{"cas_no": "665-66-7", "cn_name": "\u76d0\u9178\u91d1\u521a\u70f7\u80fa", "en_name": ["Amantadine hydrochloride", "Tricyclo[3.3.1.13,7]decan-1-amine, hydrochloride (1:1)", "1-Adamantanamine, hydrochloride", "Tricyclo[3.3.1.13,7]decan-1-amine, hydrochloride", "Adamantanamine hydrochloride", "EXP 105-1", "NSC 83653", "Symmetrel", "Aminoadamantane hydrochloride", "Mydantane", "Midantane", "1-Aminoadamantane hydrochloride", "1-Adamantylamine hydrochloride", "Adamantylamine hydrochloride", "1-Adamantamine hydrochloride", "Amantadine hydrochloride", "Virasol", "Symadine", "Amazolon", "Mantadine", "Virofral", "Mantadan", "Midantan", "Mantadix", "Adamin", "Adamine", "ADS 5102", "Gocovri"], "SMILES": "NC12CC3CC(C1)CC(C2)C3.Cl", "physical_data": {"Molecular Weight": "", "Molecular Formula": "C10H17N.ClH", "Melting Point": "359-360 \u00b0C"}}