{"cas_no": "665-31-6", "cn_name": "2,2-\u4e8c\u6c1f\u4e01\u4e8c\u919b", "en_name": ["2,2-Difluorobutanedioic acid", "Butanedioic acid, 2,2-difluoro-", "Succinic acid, 2,2-difluoro-", "2,2-Difluorobutanedioic acid", "\u03b1,\u03b1-Difluorosuccinic acid", "2,2-Difluorosuccinic acid", "2,2-Difluorosuccinate"], "SMILES": "C(CC(O)=O)(C(O)=O)(F)F", "physical_data": {"Molecular Weight": "154.07", "Molecular Formula": "C4H4F2O4", "Melting Point": "144-145 \u00b0C"}}