{"cas_no": "66500-55-8", "cn_name": "1,4-\u4e8c\u6c27\u6742\u87ba\u7678\u70f7[4.5]-8-\u7fa7\u9178", "en_name": ["1,4-Dioxaspiro[4.5]decane-8-carboxylic acid", "1,4-Dioxaspiro[4.5]decane-8-carboxylic acid"], "SMILES": "C(O)(=O)C1CCC2(CC1)OCCO2", "physical_data": {"Molecular Weight": "186.21", "Molecular Formula": "C9H14O4", "Boiling Point": "131-136 \u00b0C @ Press: 2 Torr"}}