{"cas_no": "6651-36-1", "cn_name": "1-\u73af\u5df1\u70ef\u6c27\u57fa\u4e09\u7532\u57fa\u7845\u70f7", "en_name": ["1-(Trimethylsiloxy)cyclohexene", "Cyclohexene, 1-[(trimethylsilyl)oxy]-", "Silane, (1-cyclohexen-1-yloxy)trimethyl-", "1-[(Trimethylsilyl)oxy]cyclohexene", "1-(Trimethylsilyloxy)cyclohexene", "1-(Trimethylsiloxy)-1-cyclohexene", "\u03b1-(Trimethylsiloxy)cyclohexene", "1-(Trimethylsiloxy)cyclohexene", "(1-Cyclohexen-1-yloxy)trimethylsilane", "(Cyclohex-1-enyloxy)trimethylsilane", "1-Cyclohexenol trimethylsilyl ether", "Cyclohexanone enol trimethylsilyl ether", "1-(Trimethylsilyloxy)-1-cyclohexene", "1-Cyclohexenyl trimethylsilyl ether", "Cyclohexanone trimethylsilyl enol ether"], "SMILES": "O([Si](C)(C)C)C=1CCCCC1", "physical_data": {"Molecular Weight": "170.32", "Molecular Formula": "C9H18OSi", "Boiling Point": "67-68 \u00b0C @ Press: 16 Torr", "Density": "0.885 g/cm\u00b3"}}