{"cas_no": "66521-54-8", "cn_name": "3-(\u4e8c\u7532\u57fa\u6c28\u57fa)-1-(2-\u5421\u5576)-2-\u4e19\u70ef\u919b-1-\u919b", "en_name": ["3-Dimethylamino-1-(2-pyridyl)prop-2-en-1-one", "2-Propen-1-one, 3-(dimethylamino)-1-(2-pyridinyl)-", "3-(Dimethylamino)-1-(2-pyridinyl)-2-propen-1-one", "1-(2-Pyridyl)-3-dimethylamino-2-propen-1-one", "3-Dimethylamino-1-pyridin-2-ylpropenone", "3-Dimethylamino-1-(2-pyridyl)prop-2-en-1-one", "2-(3-(Dimethylamino)-1-oxoprop-2-en-1-yl)pyridine"], "SMILES": "C(C=CN(C)C)(=O)C1=CC=CC=N1", "physical_data": {"Molecular Weight": "176.22", "Molecular Formula": "C10H12N2O", "Melting Point": "135 \u00b0C"}}