{"cas_no": "66532-85-2", "cn_name": "\u4e19\u5e15\u4ed6\u83ab", "en_name": ["Propacetamol", "Glycine, N,N-diethyl-, 4-(acetylamino)phenyl ester", "4-Acetamidophenyl (diethylamino)acetate", "Propacetamol", "Proparacetamol", "Denogan"], "SMILES": "O(C(CN(CC)CC)=O)C1=CC=C(NC(C)=O)C=C1", "physical_data": {"Molecular Weight": "264.32", "Molecular Formula": "C14H20N2O3", "Melting Point": "55-57 \u00b0C"}}