{"cas_no": "66532-86-3", "cn_name": "\u76d0\u9178\u4e19\u5e15\u4ed6\u83ab", "en_name": ["Glycine, N,N-diethyl-, 4-(acetylamino)phenyl ester, hydrochloride (1:1)", "Glycine, N,N-diethyl-, 4-(acetylamino)phenyl ester, hydrochloride (1:1)", "Glycine, N,N-diethyl-, 4-(acetylamino)phenyl ester, monohydrochloride", "Propacetamol hydrochloride", "UP 34101", "Pro-Dafalgan", "Pro-efferalgan"], "SMILES": "O(C(CN(CC)CC)=O)C1=CC=C(NC(C)=O)C=C1.Cl", "physical_data": {"Molecular Weight": "", "Molecular Formula": "C14H20N2O3.ClH", "Melting Point": "228 \u00b0C"}}