{"cas_no": "6654-36-0", "cn_name": "\u5df1\u4e8c\u9178\u534a\u919b\u7532\u57fa\u916f", "en_name": ["Methyl 6-oxohexanoate", "Hexanoic acid, 6-oxo-, methyl ester", "Adipaldehydic acid, methyl ester", "Methyl 6-oxohexanoate", "Methyl adipaldehydate", "Methyl 5-formylpentanoate", "5-Formylvaleric acid, methyl ester", "5-Formylpentanoic acid, methyl ester", "Methyl 5-formylvalerate", "5-Carbomethoxy-1-pentanal", "Adipic acid semialdehyde methyl ester", "Methyl 6-oxocaproate", "6-Oxohexanoic acid methyl ester"], "SMILES": "C(CCCCC=O)(OC)=O", "physical_data": {"Molecular Weight": "144.17", "Molecular Formula": "C7H12O3", "Boiling Point": "103 \u00b0C @ Press: 0.13 Torr", "Density": "1.0388 g/cm\u00b3"}}