{"cas_no": "66548-69-4", "cn_name": "CL-218872", "en_name": ["3-Methyl-6-[3-(trifluoromethyl)phenyl]-1,2,4-triazolo[4,3-b]pyridazine", "1,2,4-Triazolo[4,3-b]pyridazine, 3-methyl-6-[3-(trifluoromethyl)phenyl]-", "3-Methyl-6-[3-(trifluoromethyl)phenyl]-1,2,4-triazolo[4,3-b]pyridazine", "CL 218872", "CI 218872"], "SMILES": "CC=1N2C(C=CC(=N2)C3=CC(C(F)(F)F)=CC=C3)=NN1", "physical_data": {"Molecular Weight": "278.23", "Molecular Formula": "C13H9F3N4", "Melting Point": "193-194 \u00b0C"}}