{"cas_no": "6656-49-1", "cn_name": "2-\u7532\u57fa-3-\u785d\u57fa\u4e09\u6c1f\u7532\u82ef", "en_name": ["2-Methyl-1-nitro-3-(trifluoromethyl)benzene", "Benzene, 2-methyl-1-nitro-3-(trifluoromethyl)-", "o-Xylene, \u03b11,\u03b11,\u03b11-trifluoro-3-nitro-", "2-Methyl-1-nitro-3-(trifluoromethyl)benzene", "2-Methyl-3-(trifluoromethyl)nitrobenzene", "2-(Trifluoromethyl)-6-nitrotoluene", "2-Nitro-6-trifluoromethyltoluene", "2-Methyl-3-nitrobenzotrifluoride", "2-Methyl-3-nitro-1-trifluoromethylbenzene"], "SMILES": "C(F)(F)(F)C1=C(C)C(N(=O)=O)=CC=C1", "physical_data": {"Molecular Weight": "205.13", "Molecular Formula": "C8H6F3NO2", "Boiling Point": "100 \u00b0C @ Press: 11 Torr"}}