{"cas_no": "66572-55-2", "cn_name": "6-\u7532\u6c27\u57fa\u70df\u9178", "en_name": ["6-Methoxynicotinic acid", "3-Pyridinecarboxylic acid, 6-methoxy-", "6-Methoxy-3-pyridinecarboxylic acid", "3-Carboxy-6-methoxypyridine", "6-Methoxypyridine-3-carboxylic acid", "6-Methoxynicotinic acid", "2-Methoxy-5-pyridinecarboxylic acid"], "SMILES": "C(O)(=O)C=1C=CC(OC)=NC1", "physical_data": {"Molecular Weight": "153.14", "Molecular Formula": "C7H7NO3", "Melting Point": "171.5-172.5 \u00b0C"}}