{"cas_no": "66575-29-9", "cn_name": "\u4f5b\u53f8\u53ef\u6797", "en_name": ["Forskolin", "1H-Naphtho[2,1-b]pyran-1-one, 5-(acetyloxy)-3-ethenyldodecahydro-6,10,10b-trihydroxy-3,4a,7,7,10a-pentamethyl-, (3R,4aR,5S,6S,6aS,10S,10aR,10bS)-", "1H-Naphtho[2,1-b]pyran-1-one, 5-(acetyloxy)-3-ethenyldodecahydro-6,10,10b-trihydroxy-3,4a,7,7,10a-pentamethyl-, [3R-(3\u03b1,4a\u03b2,5\u03b2,6\u03b2,6a\u03b1,10\u03b1,10a\u03b2,10b\u03b1)]-", "(3R,4aR,5S,6S,6aS,10S,10aR,10bS)-5-(Acetyloxy)-3-ethenyldodecahydro-6,10,10b-trihydroxy-3,4a,7,7,10a-pentamethyl-1H-naphtho[2,1-b]pyran-1-one", "Forskolin", "Coleonol", "Colforsin", "HL 362", "L 75-1362B", "ForsLean", "NSC 357088", "NSC 375489", "(-)-Forskolin"], "SMILES": "OC12C3(C)C(C(O)C(OC(C)=O)C1(C)OC(C=C)(C)CC2=O)C(C)(C)CCC3O", "physical_data": {"Molecular Weight": "410.50", "Molecular Formula": "C22H34O7", "Melting Point": "232 \u00b0C"}}