{"cas_no": "66584-32-5", "cn_name": "3-\u6eb4-N-\u7532\u57fa\u82ef\u80fa", "en_name": ["3-Bromo-N-methylbenzenamine", "Benzenamine, 3-bromo-N-methyl-", "3-Bromo-N-methylbenzenamine", "3-Bromo-N-methylaniline", "N-(3-Bromophenyl)-N-methylamine", "(3-Bromophenyl)methylamine", "N-Methyl-3-bromoaniline", "(3-Bromophenyl)-N-methylamine"], "SMILES": "N(C)C1=CC(Br)=CC=C1", "physical_data": {"Molecular Weight": "186.05", "Molecular Formula": "C7H8BrN", "Boiling Point": "~253 \u00b0C (approx) @ Press: 760 Torr"}}