{"cas_no": "66584-72-3", "cn_name": "\u5b89\u4e1d\u83cc\u7d20 P 3", "en_name": ["Ansamitocin P 3", "Maytansine, 2\u2032-de(acetylmethylamino)-2\u2032-methyl-", "4,24-Dioxa-9,22-diazatetracyclo[19.3.1.110,14.03,5]hexacosane, maytansine deriv.", "2\u2032-De(acetylmethylamino)-2\u2032-methylmaytansine", "Maytansinol isobutyrate", "Ansamitocin P 3", "Antibiotic C 15003P3", "Ansamitosin P 3", "NSC 292222"], "SMILES": "CC12C(O1)C(C)C3CC(O)(C(OC)C=CC=C(C)CC4=CC(N(C)C(=O)CC2OC(C(C)C)=O)=C(Cl)C(OC)=C4)NC(=O)O3", "physical_data": {"Molecular Weight": "635.14", "Molecular Formula": "C32H43ClN2O9", "Melting Point": "190-192 \u00b0C"}}