{"cas_no": "66592-87-8", "cn_name": "\u5934\u5b62\u7f9f\u6c28\u82c4", "en_name": ["Cefadroxil monohydrate", "5-Thia-1-azabicyclo[4.2.0]oct-2-ene-2-carboxylic acid, 7-[[(2R)-2-amino-2-(4-hydroxyphenyl)acetyl]amino]-3-methyl-8-oxo-, hydrate (1:1), (6R,7R)-", "5-Thia-1-azabicyclo[4.2.0]oct-2-ene-2-carboxylic acid, 7-[[amino(4-hydroxyphenyl)acetyl]amino]-3-methyl-8-oxo-, monohydrate, [6R-[6\u03b1,7\u03b2(R*)]]-", "5-Thia-1-azabicyclo[4.2.0]oct-2-ene-2-carboxylic acid, 7-[[(2R)-amino(4-hydroxyphenyl)acetyl]amino]-3-methyl-8-oxo-, monohydrate, (6R,7R)-", "Cefadroxil monohydrate", "Duricef"], "SMILES": "C(O)(=O)C=1N2C(C(NC(C(N)C3=CC=C(O)C=C3)=O)C2=O)SCC1C.O", "physical_data": {"Molecular Weight": "", "Molecular Formula": "C16H17N3O5S.H2O", "Melting Point": "197 \u00b0C (decomp)"}}