{"cas_no": "6659-35-4", "cn_name": "6-\u80cd\u57fa\u5df1\u9178\u76d0\u9178\u76d0", "en_name": ["6-[(Aminoiminomethyl)amino]hexanoic acid", "Hexanoic acid, 6-[(aminoiminomethyl)amino]-", "Hexanoic acid, 6-guanidino-", "6-[(Aminoiminomethyl)amino]hexanoic acid", "\u03b5-Guanidinocaproic acid", "6-Guanidinohexanoic acid", "\u03b5-Guanidinohexanoic acid", "Caprocyamine", "6-Guanidinocaproic acid", "N-(6-Hexanoic acid)guanidine"], "SMILES": "C(CC(O)=O)CCCNC(=N)N", "physical_data": {"Molecular Weight": "173.21", "Molecular Formula": "C7H15N3O2", "Melting Point": "&gt;300 \u00b0C"}}