{"cas_no": "6659-45-6", "cn_name": "\u4e8c\u6c22\u9c7c\u85e4\u916e", "en_name": ["(2R,6aS,12aS)-1,2,12,12a-Tetrahydro-8,9-dimethoxy-2-(1-methylethyl)[1]benzopyrano[3,4-b]furo[2,3-h][1]benzopyran-6(6aH)-one", "[1]Benzopyrano[3,4-b]furo[2,3-h][1]benzopyran-6(6aH)-one, 1,2,12,12a-tetrahydro-8,9-dimethoxy-2-(1-methylethyl)-, (2R,6aS,12aS)-", "[1]Benzopyrano[3,4-b]furo[2,3-h][1]benzopyran-6(6a\u03b1H)-one, 1,2,12,12a\u03b1-tetrahydro-2\u03b1-isopropyl-8,9-dimethoxy-", "[1]Benzopyrano[3,4-b]furo[2,3-h][1]benzopyran-6(6aH)-one, 1,2,12,12a-tetrahydro-8,9-dimethoxy-2-(1-methylethyl)-, [2R-(2\u03b1,6a\u03b1,12a\u03b1)]-", "(2R,6aS,12aS)-1,2,12,12a-Tetrahydro-8,9-dimethoxy-2-(1-methylethyl)[1]benzopyrano[3,4-b]furo[2,3-h][1]benzopyran-6(6aH)-one", "Dihydrorotenone", "1\u2032,2\u2032-Dihydrorotenone", "NSC 351138", "NSC 53866"], "SMILES": "O=C1C=2C(=C3C(OC(C(C)C)C3)=CC2)OC4C1C=5C(OC4)=CC(OC)=C(OC)C5", "physical_data": {"Molecular Weight": "396.43", "Molecular Formula": "C23H24O6", "Melting Point": "216 \u00b0C"}}