{"cas_no": "666-52-4", "cn_name": "\u6c18\u4ee3\u4e19\u916e", "en_name": ["Acetone-d6", "2-Propanone-1,1,1,3,3,3-d6", "Acetone-d6", "Hexadeuterioacetone", "Hexadeuteroacetone", "Perdeuterioacetone", "Acetone-d6", "2-Propanone-d6", "Perdeuteroacetone", "1,1,1,3,3,3-Hexadeutero-2-propanone", "1,1,1,3,3,3-Hexadeuteriopropan-2-one"], "SMILES": "C(C([2H])([2H])[2H])(C)=O", "physical_data": {"Molecular Weight": "", "Molecular Formula": "C3D6O", "Boiling Point": "55.5 \u00b0C", "Melting Point": "-98.3 \u00b0C", "Density": "0.8749 g/cm\u00b3 @ Temp: 20 \u00b0C"}}