{"cas_no": "666-99-9", "cn_name": "\u843d\u53f6\u677e\u8548\u9178", "en_name": ["Agaric acid", "1,2,3-Nonadecanetricarboxylic acid, 2-hydroxy-", "Agaric acid", "2-Hydroxy-1,2,3-nonadecanetricarboxylic acid", "Agaricic acid", "Laricic acid", "Agaricin", "\u03b1-Cetylcitric acid", "Agaricinic acid", "NSC 60429", "NSC 65690"], "SMILES": "C(C(CC(O)=O)(C(O)=O)O)(CCCCCCCCCCCCCCCC)C(O)=O", "physical_data": {"Molecular Weight": "416.55", "Molecular Formula": "C22H40O7", "Melting Point": "142 \u00b0C (decomp)"}}