{"cas_no": "66604-31-7", "cn_name": "\u6b63\u5341\u4e8c\u70f7\u57fa\u4e8c\u7532\u57fa\u6c2f\u7845\u70f7", "en_name": ["Dodecyldimethylchlorosilane", "Silane, chlorododecyldimethyl-", "Chlorododecyldimethylsilane", "Dimethyl(dodecyl)chlorosilane", "n-Dodecyldimethylchlorosilane", "Dodecyldimethylchlorosilane", "Dimethyl-n-dodecylchlorosilane", "Chlorodimethyldodecylsilane", "Dimethyldodecylsilyl chloride", "Dodecyldimethylsilyl chloride", "1-Dodecyldimethylchlorosilane"], "SMILES": "C(CCCCCCCCC)CC[Si](C)(C)Cl", "physical_data": {"Molecular Weight": "262.93", "Molecular Formula": "C14H31ClSi", "Boiling Point": "291-293 \u00b0C", "Density": "0.865 g/cm\u00b3"}}