{"cas_no": "66616-72-6", "cn_name": "5-\u82ef\u57fa-1H-\u5432\u54da", "en_name": ["5-Phenyl-1H-indole", "1H-Indole, 5-phenyl-", "5-Phenyl-1H-indole", "5-Phenylindole"], "SMILES": "C=1(C=C2C(=CC1)NC=C2)C3=CC=CC=C3", "physical_data": {"Molecular Weight": "193.24", "Molecular Formula": "C14H11N", "Melting Point": "69.4-70.4 \u00b0C"}}