{"cas_no": "66635-93-6", "cn_name": "(1R)-5-\u82ef\u57fa-2,3-\u4e8c\u6c22-1H-\u5421\u5576-1-\u7fa7\u9178", "en_name": ["(+)-Ketorolac", "1H-Pyrrolizine-1-carboxylic acid, 5-benzoyl-2,3-dihydro-, (1R)-", "1H-Pyrrolizine-1-carboxylic acid, 5-benzoyl-2,3-dihydro-, (R)-", "(1R)-5-Benzoyl-2,3-dihydro-1H-pyrrolizine-1-carboxylic acid", "R-(+)-Ketorolac", "(R)-Ketorolac", "(+)-Ketorolac"], "SMILES": "C(=O)(C=1N2C(C(C(O)=O)CC2)=CC1)C3=CC=CC=C3", "physical_data": {"Molecular Weight": "255.27", "Molecular Formula": "C15H13NO3", "Melting Point": "174 \u00b0C"}}