{"cas_no": "66648-43-9", "cn_name": "N-\u53cd\u5f0f-\u963f\u9b4f\u9170\u916a\u80fa", "en_name": ["N-trans-Feruloyltyramine", "2-Propenamide, 3-(4-hydroxy-3-methoxyphenyl)-N-[2-(4-hydroxyphenyl)ethyl]-, (2E)-", "2-Propenamide, 3-(4-hydroxy-3-methoxyphenyl)-N-[2-(4-hydroxyphenyl)ethyl]-, (E)-", "(2E)-3-(4-Hydroxy-3-methoxyphenyl)-N-[2-(4-hydroxyphenyl)ethyl]-2-propenamide", "N-trans-Feruloyltyramine", "Moupinamide", "trans-N-Feruloyltyramine", "(E)-N-Feruloyltyramine", "(E)-Feruloyltyramine", "trans-Feruloyltyramine", "Alfrutamide", "N-p-trans-Hydroxyphenethyl ferulamine", "N-E-Feruloyl tyramine", "N-p-trans-Feruloyltyramine"], "SMILES": "C(=CC(NCCC1=CC=C(O)C=C1)=O)C2=CC(OC)=C(O)C=C2", "physical_data": {"Molecular Weight": "313.35", "Molecular Formula": "C18H19NO4", "Melting Point": "92-94 \u00b0C"}}