{"cas_no": "66648-50-8", "cn_name": "3,4-\u4e8c\u7f9f\u57fa\u8089\u6842\u9178\u4e59\u916f", "en_name": ["Ethyl trans-caffeate", "2-Propenoic acid, 3-(3,4-dihydroxyphenyl)-, ethyl ester, (2E)-", "2-Propenoic acid, 3-(3,4-dihydroxyphenyl)-, ethyl ester, (E)-", "Ethyl trans-caffeate", "trans-Caffeic acid ethyl ester", "trans-Caffeoyl ethyl ester", "Ethyl trans-caffeate", "(E)-Caffeic acid ethyl ester", "Ethyl caffeate", "Ethyl(E)-3-(3,4-dihydroxyphenyl)acrylate"], "SMILES": "C(=CC(OCC)=O)C1=CC(O)=C(O)C=C1", "physical_data": {"Molecular Weight": "208.21", "Molecular Formula": "C11H12O4", "Boiling Point": "148-149 \u00b0C", "Melting Point": "147-148 \u00b0C"}}