{"cas_no": "6665-74-3", "cn_name": "\u9ad8\u826f\u59dc\u7d20 3-O-\u7532\u919a", "en_name": ["Galangin 3-methyl ether", "4H-1-Benzopyran-4-one, 5,7-dihydroxy-3-methoxy-2-phenyl-", "Flavone, 5,7-dihydroxy-3-methoxy-", "5,7-Dihydroxy-3-methoxy-2-phenyl-4H-1-benzopyran-4-one", "3-O-Methylgalangin", "Galangin 3-methyl ether", "5,7-Dihydroxy-3-methoxyflavone", "Galangin 3-O-methyl ether", "3-Methylgalangin"], "SMILES": "O=C1C=2C(OC(=C1OC)C3=CC=CC=C3)=CC(O)=CC2O", "physical_data": {"Molecular Weight": "284.26", "Molecular Formula": "C16H12O5", "Melting Point": "299 \u00b0C"}}