{"cas_no": "6665-83-4", "cn_name": "6-\u7f9f\u57fa\u9ec4\u916e", "en_name": ["6-Hydroxyflavone", "4H-1-Benzopyran-4-one, 6-hydroxy-2-phenyl-", "Flavone, 6-hydroxy-", "6-Hydroxy-2-phenyl-4H-1-benzopyran-4-one", "6-Hydroxyflavone", "NSC 26744", "6-Hydroxy-2-phenyl-4H-chromen-4-one", "6-Flavonol"], "SMILES": "O=C1C=2C(OC(=C1)C3=CC=CC=C3)=CC=C(O)C2", "physical_data": {"Molecular Weight": "238.24", "Molecular Formula": "C15H10O3", "Melting Point": "239 \u00b0C", "Density": "1.411 g/cm\u00b3"}}