{"cas_no": "6665-97-0", "cn_name": "1,3-\u4e8c\u7532\u6c27\u57fa-2-\u785d\u57fa\u82ef", "en_name": ["1,3-Dimethoxy-2-nitrobenzene", "Benzene, 1,3-dimethoxy-2-nitro-", "1,3-Dimethoxy-2-nitrobenzene", "2-Nitroresorcinol dimethyl ether", "2,6-Dimethoxynitrobenzene"], "SMILES": "N(=O)(=O)C1=C(OC)C=CC=C1OC", "physical_data": {"Molecular Weight": "183.16", "Molecular Formula": "C8H9NO4", "Melting Point": "129-130 \u00b0C"}}