{"cas_no": "6665-67-4", "cn_name": "5,4 '-\u4e8c\u7f9f\u57fa\u9ec4\u916e", "en_name": ["5,4\u2032-Dihydroxyflavone", "4H-1-Benzopyran-4-one, 5-hydroxy-2-(4-hydroxyphenyl)-", "Flavone, 4\u2032,5-dihydroxy-", "5-Hydroxy-2-(4-hydroxyphenyl)-4H-1-benzopyran-4-one", "4\u2032,5-Dihydroxyflavone", "5,4\u2032-Dihydroxyflavone", "5-Hydroxy-2-(4-Hydroxyphenyl)chromen-4-one", "5-Hydroxy-2-(4-hydroxyphenyl)-4H-chromen-4-one"], "SMILES": "O=C1C=2C(OC(=C1)C3=CC=C(O)C=C3)=CC=CC2O", "physical_data": {"Molecular Weight": "254.24", "Molecular Formula": "C15H10O4", "Melting Point": "237-240 \u00b0C"}}