{"cas_no": "6665-98-1", "cn_name": "3-\u785d\u57fa-1,2-\u82ef\u4e8c\u9187", "en_name": ["3-Nitrocatechol", "1,2-Benzenediol, 3-nitro-", "Pyrocatechol, 3-nitro-", "3-Nitro-1,2-benzenediol", "3-Nitrocatechol", "3-Nitropyrocatechol", "2,3-Dihydroxynitrobenzene", "2-Hydroxy-3-nitrophenol", "NSC 407241", "1,2-Dihydroxy-3-nitrobenzene"], "SMILES": "N(=O)(=O)C1=C(O)C(O)=CC=C1", "physical_data": {"Molecular Weight": "155.11", "Molecular Formula": "C6H5NO4", "Melting Point": "156 \u00b0C"}}