{"cas_no": "6665-86-7", "cn_name": "7-\u7f9f\u57fa\u9ec4\u916e", "en_name": ["7-Hydroxyflavone", "4H-1-Benzopyran-4-one, 7-hydroxy-2-phenyl-", "Flavone, 7-hydroxy-", "7-Hydroxy-2-phenyl-4H-1-benzopyran-4-one", "7-Hydroxyflavone", "NSC 94258", "7-Hydroxy-2-phenyl-4H-chromen-4-one", "7-Hydroxy-2-phenylchromone"], "SMILES": "O=C1C=2C(OC(=C1)C3=CC=CC=C3)=CC(O)=CC2", "physical_data": {"Molecular Weight": "238.24", "Molecular Formula": "C15H10O3", "Melting Point": "245-247 \u00b0C"}}