{"cas_no": "66684-57-9", "cn_name": "2,3,5-\u4e09\u6c1f\u785d\u57fa\u82ef", "en_name": ["1,2,5-Trifluoro-3-nitrobenzene", "Benzene, 1,2,5-trifluoro-3-nitro-", "1,2,5-Trifluoro-3-nitrobenzene", "2,3,5-Trifluoronitrobenzene"], "SMILES": "N(=O)(=O)C1=C(F)C(F)=CC(F)=C1", "physical_data": {"Molecular Weight": "177.08", "Molecular Formula": "C6H2F3NO2", "Boiling Point": "187 \u00b0C", "Melting Point": "~-20 \u00b0C (approx)"}}