{"cas_no": "6668-27-5", "cn_name": "2-\u7532\u57fa-1-\u82ef\u57fa\u4e19-1-\u80fa", "en_name": ["\u03b1-(1-Methylethyl)benzenemethanamine", "Benzenemethanamine, \u03b1-(1-methylethyl)-", "Benzylamine, \u03b1-isopropyl-", "\u03b1-(1-Methylethyl)benzenemethanamine", "2-Methyl-1-phenylpropylamine", "\u03b1-Isopropylbenzylamine", "1-Phenyl-2-methylpropylamine", "2-Methyl-1-phenylpropan-1-amine", "2-Methyl-1-phenyl-1-propylamine"], "SMILES": "C(C(C)C)(N)C1=CC=CC=C1", "physical_data": {"Molecular Weight": "149.23", "Molecular Formula": "C10H15N", "Boiling Point": "213-215 \u00b0C", "Melting Point": "289-290 \u00b0C"}}