{"cas_no": "667-84-5", "cn_name": "(R)-(+)-2,4-\u4e8c\u7f9f\u57fa-N-(3-\u4e59\u6c27\u57fa\u4e19\u57fa)-3,3-\u4e8c\u7532\u57fa\u4e01\u9170\u80fa", "en_name": ["N-(3-Ethoxypropyl)-2,4-dihydroxy-3,3-dimethylbutanamide", "Butanamide, N-(3-ethoxypropyl)-2,4-dihydroxy-3,3-dimethyl-", "Butyramide, N-(3-ethoxypropyl)-2,4-dihydroxy-3,3-dimethyl-, (\u00b1)-", "Butanamide, N-(3-ethoxypropyl)-2,4-dihydroxy-3,3-dimethyl-, (\u00b1)-", "N-(3-Ethoxypropyl)-2,4-dihydroxy-3,3-dimethylbutanamide"], "SMILES": "C(C(NCCCOCC)=O)(C(CO)(C)C)O", "physical_data": {"Molecular Weight": "233.30", "Molecular Formula": "C11H23NO4", "Boiling Point": "130-132 \u00b0C @ Press: 760 Torr"}}