{"cas_no": "667-27-6", "cn_name": "\u4e8c\u6c1f\u6eb4\u4e59\u9178\u4e59\u916f", "en_name": ["Ethyl bromodifluoroacetate", "Acetic acid, 2-bromo-2,2-difluoro-, ethyl ester", "Acetic acid, bromodifluoro-, ethyl ester", "Ethyl bromodifluoroacetate", "Ethyl 2-bromo-2,2-difluoroacetate", "Ethyl difluorobromoacetate", "Bromodifluoroacetic acid ethyl ester", "2-Bromo-2,2-difluoroacetic acid ethyl ester"], "SMILES": "C(C(Br)(F)F)(OCC)=O", "physical_data": {"Molecular Weight": "202.98", "Molecular Formula": "C4H5BrF2O2", "Boiling Point": "113 \u00b0C", "Density": "1.583 g/cm\u00b3 @ Temp: 25 \u00b0C"}}