{"cas_no": "6670-13-9", "cn_name": "4,5-\u4e8c\u82ef\u57fa-4\u5641\u5511\u5549", "en_name": ["4,5-Diphenyl-2(3H)-oxazolethione", "2(3H)-Oxazolethione, 4,5-diphenyl-", "4-Oxazoline-2-thione, 4,5-diphenyl-", "4,5-Diphenyl-2(3H)-oxazolethione", "4,5-Diphenyl-\u03944-oxazoline-2-thione", "4,5-Diphenyl-4-oxazoline-2-thione", "4,5-Diphenyl-2-mercaptooxazole", "4,5-Diphenyl-1,3-isoxazole-2-thiol", "2-Mercapto-4,5-diphenyloxazole"], "SMILES": "S=C1NC(=C(O1)C2=CC=CC=C2)C3=CC=CC=C3", "physical_data": {"Molecular Weight": "253.32", "Molecular Formula": "C15H11NOS", "Melting Point": "260 \u00b0C"}}