{"cas_no": "66711-21-5", "cn_name": "\u963f\u53ef\u4e50\u5b9a", "en_name": ["Apraclonidine", "1,4-Benzenediamine, 2,6-dichloro-N1-(4,5-dihydro-1H-imidazol-2-yl)-", "2,6-Dichloro-N1-(4,5-dihydro-1H-imidazol-2-yl)-1,4-benzenediamine", "p-Aminoclonidine", "NC 14", "Apraclonidine", "Aplonidine", "2-(4-Amino-2,6-dichlorophenylamino)-2-imidazoline", "Lopidine", "2,6-Dichloro-N1-(4,5-dihydro-1H-imidazol-2-yl)benzene-1,4-diamine", "2,6-Dichloro-N1-(2-imidazolidinylidene)-1,4-benzenediamine"], "SMILES": "N(C1=C(Cl)C=C(N)C=C1Cl)C=2NCCN2", "physical_data": {"Molecular Weight": "245.11", "Molecular Formula": "C9H10Cl2N4", "Melting Point": "&gt;230 \u00b0C"}}