{"cas_no": "66722-44-9", "cn_name": "\u6bd4\u7d22\u6d1b\u5c14", "en_name": ["Bisoprolol", "2-Propanol, 1-[4-[[2-(1-methylethoxy)ethoxy]methyl]phenoxy]-3-[(1-methylethyl)amino]-", "1-[4-[[2-(1-Methylethoxy)ethoxy]methyl]phenoxy]-3-[(1-methylethyl)amino]-2-propanol", "1-(p-2-Isopropoxyethoxymethylphenoxy)-3-isopropylaminopropan-2-ol", "Bisoprolol", "(\u00b1)-Bisoprolol", "Racemic Bisoprolol", "Konkor", "Cardensiel", "TY 0201", "1-(Propan-2-ylamino)-3-[4-(2-propan-2-yloxyethoxymethyl)phenoxy]propan-2-ol", "1-[4-(2-Isopropoxy-ethoxymethyl)-phenoxy]-3-isopropylamino-propan-2-ol", "MeSH ID: D017298"], "SMILES": "O(CC(CNC(C)C)O)C1=CC=C(COCCOC(C)C)C=C1", "physical_data": {"Molecular Weight": "325.44", "Molecular Formula": "C18H31NO4", "Melting Point": "100 \u00b0C"}}