{"cas_no": "66728-98-1", "cn_name": "4-\u6eb4-1-\u6c2f\u5f02\u55b9\u5549", "en_name": ["4-Bromo-1-chloroisoquinoline", "Isoquinoline, 4-bromo-1-chloro-", "4-Bromo-1-chloroisoquinoline", "1-Chloro-4-bromoisoquinoline"], "SMILES": "BrC=1C2=C(C(Cl)=NC1)C=CC=C2", "physical_data": {"Molecular Weight": "242.50", "Molecular Formula": "C9H5BrClN", "Melting Point": "97 \u00b0C (decomp)"}}