{"cas_no": "66734-13-2", "cn_name": "\u963f\u6c2f\u7c73\u677e\u53cc\u4e19\u9178\u916f", "en_name": ["Alclometasone dipropionate", "Pregna-1,4-diene-3,20-dione, 7-chloro-11-hydroxy-16-methyl-17,21-bis(1-oxopropoxy)-, (7\u03b1,11\u03b2,16\u03b1)-", "(7\u03b1,11\u03b2,16\u03b1)-7-Chloro-11-hydroxy-16-methyl-17,21-bis(1-oxopropoxy)pregna-1,4-diene-3,20-dione", "Alclometasone dipropionate", "Sch 22219", "Delonal", "Almeta", "Vaderm", "Aclovate", "Alclometasone 17,21-dipropionate"], "SMILES": "C(COC(CC)=O)(=O)C1(OC(CC)=O)C2(C)C(CC1C)C3C(C(O)C2)C4(C)C(CC3Cl)=CC(=O)C=C4", "physical_data": {"Molecular Weight": "521.04", "Molecular Formula": "C28H37ClO7", "Melting Point": "212-216 \u00b0C"}}