{"cas_no": "6673-35-4", "cn_name": "\u666e\u62c9\u6d1b\u5c14", "en_name": ["Practolol", "Acetamide, N-[4-[2-hydroxy-3-[(1-methylethyl)amino]propoxy]phenyl]-", "Acetanilide, 4\u2032-[2-hydroxy-3-(isopropylamino)propoxy]-", "N-[4-[2-Hydroxy-3-[(1-methylethyl)amino]propoxy]phenyl]acetamide", "ICI 50172", "Eraldin", "Practolol", "AY 21011", "4\u2032-[2-Hydroxy-3-(isopropylamino)propoxy]acetanilide", "1-(4-Acetamidophenoxy)-3-isopropylamino-2-propanol", "Dalzic", "Teranol", "DL-4\u2032-[2-Hydroxy-3-(isopropylamino)propoxy]acetanilide", "(\u00b1)-Practolol", "dl-Practolol", "Racemic Practolol", "MeSH ID: D011217"], "SMILES": "O(CC(CNC(C)C)O)C1=CC=C(NC(C)=O)C=C1", "physical_data": {"Molecular Weight": "266.34", "Molecular Formula": "C14H22N2O3", "Melting Point": "134-136 \u00b0C"}}