{"cas_no": "667463-62-9", "cn_name": "(2'Z,3'E)-6-\u6eb4\u975b\u7389\u7ea2-3'-\u809f", "en_name": ["6-Bromoindirubin-3\u2032-oxime", "2H-Indol-2-one, 6-bromo-3-[(3E)-1,3-dihydro-3-(hydroxyimino)-2H-indol-2-ylidene]-1,3-dihydro-, (3Z)-", "(3Z)-6-Bromo-3-[(3E)-1,3-dihydro-3-(hydroxyimino)-2H-indol-2-ylidene]-1,3-dihydro-2H-indol-2-one", "(2\u2032Z,3\u2032E)-6-Bromoindirubin-3\u2032-oxime", "GSK 3 Inhibitor IX", "GSK 3 IX", "MLS 2052", "BIO", "6-Bromoindirubin-3\u2032-oxime", "6-BIO", "KIN 001-043", "(2Z,3E)-6\u2032-Bromo-3-(hydroxyimino)-[2,3\u2032-biindolinyliden]-2\u2032-one"], "SMILES": "O=C1C(C=2C(N1)=CC(Br)=CC2)=C3C(=NO)C=4C(N3)=CC=CC4", "physical_data": {"Molecular Weight": "356.17", "Molecular Formula": "C16H10BrN3O2", "Melting Point": "&gt;300 \u00b0C"}}