{"cas_no": "6674-22-2", "cn_name": "DBU", "en_name": ["1,8-Diazabicyclo[5.4.0]undec-7-ene", "Pyrimido[1,2-a]azepine, 2,3,4,6,7,8,9,10-octahydro-", "2,3,4,6,7,8,9,10-Octahydropyrimido[1,2-a]azepine", "1,8-Diazabicyclo[5.4.0]undec-7-ene", "1,8-Diaza-7-bicyclo[5.4.0]undecene", "DBU", "Polycat DBU", "1,8-Diazabicyclo[5.4.0]undecene-7", "NSC 111184", "NSC 230466", "Dabco DBU", "Amicure DBUE", "Alcanpoudre DBU 70-3KG", "1,8-Diazabicyclo[5.4.0]undeca-7-ene", "Lupragen N 700", "PC CAT DBU", "1,8-Diazabicycloundec-7-ene", "Diazabicyclo[5.4.0]undec-7-ene", "Active D 10", "2H,3H,4H,6H,7H,8H,9H,10H-Pyrimido[1,2-a]azepine"], "SMILES": "C=12N(CCCN1)CCCCC2", "physical_data": {"Molecular Weight": "152.24", "Molecular Formula": "C9H16N2", "Boiling Point": "97-98 \u00b0C @ Press: 3 Torr", "Density": "1.0378 g/cm\u00b3 @ Temp: 20 \u00b0C"}}