{"cas_no": "66742-57-2", "cn_name": "4-(3-\u6c1f\u82c4\u6c27\u57fa)\u82ef\u7532\u919b", "en_name": ["4-[(3-Fluorophenyl)methoxy]benzaldehyde", "Benzaldehyde, 4-[(3-fluorophenyl)methoxy]-", "4-[(3-Fluorophenyl)methoxy]benzaldehyde", "4-(3-Fluorobenzyloxy)benzaldehyde"], "SMILES": "O(CC1=CC(F)=CC=C1)C2=CC=C(C=O)C=C2", "physical_data": {"Molecular Weight": "230.23", "Molecular Formula": "C14H11FO2", "Melting Point": "40-41 \u00b0C"}}