{"cas_no": "66750-10-5", "cn_name": "\u82ef\u6742\u6c2e-15-\u51a0-5", "en_name": ["N-Phenylaza-15-crown-5", "1,4,7,10-Tetraoxa-13-azacyclopentadecane, 13-phenyl-", "13-Phenyl-1,4,7,10-tetraoxa-13-azacyclopentadecane", "N-Phenylaza-15-crown-5", "1-N-Phenylaza-15-crown-5", "N-Phenylaza-15-crown-5", "1-Phenyl-4,7,10,13-tetraoxa-1-azacyclopentadecane"], "SMILES": "C1(=CC=CC=C1)N2CCOCCOCCOCCOCC2", "physical_data": {"Molecular Weight": "295.37", "Molecular Formula": "C16H25NO4", "Melting Point": "44-45 \u00b0C"}}