{"cas_no": "66753-64-8", "cn_name": "\u7532\u57fa\u4e19\u70ef\u9170\u6c27\u57fa\u4e19\u57fa\u4e8c\u7532\u57fa\u7532\u6c27\u57fa\u7845\u70f7", "en_name": ["3-Methacryloxypropyldimethylmethoxysilane", "2-Propenoic acid, 2-methyl-, 3-(methoxydimethylsilyl)propyl ester", "(\u03b3-Methacryloxypropyl)dimethylmethoxysilane", "TSL 8375", "Dimethyl[(3-methacryloyloxy)propyl]methoxysilane", "3-Methacryloxypropyldimethylmethoxysilane", "(Methacryloxypropyl)dimethylmethoxysilane", "SIM 6486.5", "3-Methacryloyloxypropyldimethylmethoxysilane", "3-[Methoxydimethylsilyl]propyl methacrylate"], "SMILES": "[Si](CCCOC(C(C)=C)=O)(OC)(C)C", "physical_data": {"Molecular Weight": "216.35", "Molecular Formula": "C10H20O3Si", "Boiling Point": "70-72 \u00b0C @ Press: 0.5 Torr", "Density": "0.944 g/cm\u00b3"}}