{"cas_no": "66787-70-0", "cn_name": "1-\u7532\u57fa\u54aa\u5511-5-\u7532\u9178\u4e59\u916f", "en_name": ["Ethyl 1-methyl-1H-imidazole-5-carboxylate", "1H-Imidazole-5-carboxylic acid, 1-methyl-, ethyl ester", "Imidazole-5-carboxylic acid, 1-methyl-, ethyl ester", "Ethyl 1-methyl-1H-imidazole-5-carboxylate", "Ro 31-0886", "Ethyl 1-methyl-5-imidazolecarboxylate", "3-Methyl-3H-imidazole-4-carboxylic acid ethyl ester"], "SMILES": "C(OCC)(=O)C=1N(C)C=NC1", "physical_data": {"Molecular Weight": "154.17", "Molecular Formula": "C7H10N2O2", "Melting Point": "112-114 \u00b0C"}}