{"cas_no": "66799-97-1", "cn_name": "2-\u4e59\u6c27\u57fa-3-\u7532\u6c27\u57fa\u82ef\u7532\u919b", "en_name": ["2-Ethoxy-3-methoxybenzaldehyde", "Benzaldehyde, 2-ethoxy-3-methoxy-", "2-Ethoxy-3-methoxybenzaldehyde", "NSC 72388"], "SMILES": "O(CC)C1=C(C=O)C=CC=C1OC", "physical_data": {"Molecular Weight": "180.20", "Molecular Formula": "C10H12O3", "Boiling Point": "151-154 \u00b0C @ Press: 22 Torr"}}