{"cas_no": "668-94-0", "cn_name": "4,5-\u4e8c\u82ef\u5e76\u54aa\u5511", "en_name": ["4,5-Diphenylimidazole", "1H-Imidazole, 4,5-diphenyl-", "Imidazole, 4,5-diphenyl-", "4,5-Diphenyl-1H-imidazole", "4,5-Diphenylimidazole", "NSC 59776"], "SMILES": "C1(=C(N=CN1)C2=CC=CC=C2)C3=CC=CC=C3", "physical_data": {"Molecular Weight": "220.27", "Molecular Formula": "C15H12N2", "Melting Point": "232-233 \u00b0C"}}