{"cas_no": "668-45-1", "cn_name": "2-\u6c2f-6-\u6c1f\u82ef\u8148", "en_name": ["2-Chloro-6-fluorobenzonitrile", "Benzonitrile, 2-chloro-6-fluoro-", "2-Chloro-6-fluorobenzonitrile", "2-Chloro-6-fluorocyanobenzene", "2-Fluoro-6-chlorobenzonitrile"], "SMILES": "C(#N)C1=C(Cl)C=CC=C1F", "physical_data": {"Molecular Weight": "155.56", "Molecular Formula": "C7H3ClFN", "Melting Point": "56-59 \u00b0C"}}