{"cas_no": "6681-13-6", "cn_name": "\u9e64\u6c0f\u5510\u677e\u8349\u78b1", "en_name": ["(4aS,16aS)-3,4,4a,5,16a,17,18,19-Octahydro-12,20,21,22,26-pentamethoxy-4,17-dimethyl-16H-1,24:6,9-dietheno-11,15-metheno-2H-pyrido[2\u2032,3\u2032:17,18][1,11]dioxacycloeicosino[2,3,4-ij]isoquinoline", "16H-1,24:6,9-Dietheno-11,15-metheno-2H-pyrido[2\u2032,3\u2032:17,18][1,11]dioxacycloeicosino[2,3,4-ij]isoquinoline, 3,4,4a,5,16a,17,18,19-octahydro-12,20,21,22,26-pentamethoxy-4,17-dimethyl-, (4aS,16aS)-", "Hernandezine", "Berbaman, 5,6,6\u2032,7,12-pentamethoxy-2,2\u2032-dimethyl-, (1\u03b2)-", "16H-1,24:6,9-Dietheno-11,15-metheno-2H-pyrido[2\u2032,3\u2032:17,18][1,11]dioxacycloeicosino[2,3,4-ij]isoquinoline, berbaman deriv.", "(4aS,16aS)-3,4,4a,5,16a,17,18,19-Octahydro-12,20,21,22,26-pentamethoxy-4,17-dimethyl-16H-1,24:6,9-dietheno-11,15-metheno-2H-pyrido[2\u2032,3\u2032:17,18][1,11]dioxacycloeicosino[2,3,4-ij]isoquinoline", "Hernandesine", "(+)-Hernandezine", "Thalicsimine", "SC 161 (alkaloid)"], "SMILES": "O(C)C1=C2C3=C(C(OC)=C1OC)CCN(C)C3CC=4C=C(C(OC)=CC4)OC=5C=CC(CC6C7=CC(O2)=C(OC)C=C7CCN6C)=CC5", "physical_data": {"Molecular Weight": "652.78", "Molecular Formula": "C39H44N2O7", "Melting Point": "192-193 \u00b0C"}}