{"cas_no": "6681-18-1", "cn_name": "\u6728\u5170\u82b1\u78b1(\u6c2f\u5316\u7269)", "en_name": ["Magnoflorine, chloride", "4H-Dibenzo[de,g]quinolinium, 5,6,6a,7-tetrahydro-1,11-dihydroxy-2,10-dimethoxy-6,6-dimethyl-, chloride (1:1), (6aS)-", "6a\u03b1-Aporphinium, 1,11-dihydroxy-2,10-dimethoxy-6-methyl-, chloride", "4H-Dibenzo[de,g]quinolinium, 5,6,6a,7-tetrahydro-1,11-dihydroxy-2,10-dimethoxy-6,6-dimethyl-, chloride, (S)-", "Magnoflorine, chloride", "4H-Dibenzo[de,g]quinolinium, 5,6,6a,7-tetrahydro-1,11-dihydroxy-2,10-dimethoxy-6,6-dimethyl-, chloride, (6aS)-", "Corytuberine methochloride", "Escholine chloride", "Thalictrine chloride", "NSC 150443"], "SMILES": "OC1=C2C=3C(CC=4C2=C(O)C(OC)=CC4)[N+](C)(C)CCC3C=C1OC.[Cl-]", "physical_data": {"Molecular Weight": "", "Molecular Formula": "C20H24NO4.Cl", "Melting Point": "236-237 \u00b0C"}}