{"cas_no": "66817-59-2", "cn_name": "3,5-\u53cc(\u4e8c\u7532\u57fa\u7845\u6c27\u57fa)-1,1,7,7-\u56db\u7532\u57fa-3,5-\u4e8c\u82ef\u57fa\u56db\u7845\u6c27\u70f7", "en_name": ["3,5-Bis[(dimethylsilyl)oxy]-1,1,7,7-tetramethyl-3,5-diphenyltetrasiloxane", "Tetrasiloxane, 3,5-bis[(dimethylsilyl)oxy]-1,1,7,7-tetramethyl-3,5-diphenyl-", "3,5-Bis[(dimethylsilyl)oxy]-1,1,7,7-tetramethyl-3,5-diphenyltetrasiloxane", "D 6170", "PS 129.8 (siloxane)", "PS 129.8", "1,3-Diphenyltetrakis(dimethylsiloxy)disiloxane", "3,5-Bis[(dimethylsilyl)oxy]-1,1,7,7-tetramethyl-3,5-diphenyl-tetrasiloxane", "[Bis(dimethylsilyloxy)-phenylsilyl]oxy-bis(dimethylsilyloxy)-phenylsilane"], "SMILES": "[Si](O[Si](O[SiH](C)C)(O[SiH](C)C)C1=CC=CC=C1)(O[SiH](C)C)(O[SiH](C)C)C2=CC=CC=C2", "physical_data": {"Molecular Weight": "527.03", "Molecular Formula": "C20H38O5Si6", "Boiling Point": "95-96 \u00b0C @ Press: 0.25 Torr"}}