{"cas_no": "6681-15-8", "cn_name": "\u76d0\u9178\u836f\u6839\u78b1", "en_name": ["Jatrorrhizine chloride", "Dibenzo[a,g]quinolizinium, 5,6-dihydro-3-hydroxy-2,9,10-trimethoxy-, chloride (1:1)", "Berbinium, 7,8,13,13a-tetradehydro-3-hydroxy-2,9,10-trimethoxy-, chloride", "Jatrorrhizine chloride", "Dibenzo[a,g]quinolizinium, 5,6-dihydro-3-hydroxy-2,9,10-trimethoxy-, chloride", "Neprotine chloride", "NSC 645313"], "SMILES": "O(C)C=1C=C2C=3[N+](=CC=4C(C3)=CC=C(OC)C4OC)CCC2=CC1O.[Cl-]", "physical_data": {"Molecular Weight": "", "Molecular Formula": "C20H20NO4.Cl", "Melting Point": "208-210 \u00b0C"}}