{"cas_no": "668270-12-0", "cn_name": "\u5229\u62c9\u5229\u6c40", "en_name": ["Linagliptin", "1H-Purine-2,6-dione, 8-[(3R)-3-amino-1-piperidinyl]-7-(2-butyn-1-yl)-3,7-dihydro-3-methyl-1-[(4-methyl-2-quinazolinyl)methyl]-", "1H-Purine-2,6-dione, 8-[(3R)-3-amino-1-piperidinyl]-7-(2-butynyl)-3,7-dihydro-3-methyl-1-[(4-methyl-2-quinazolinyl)methyl]-", "8-[(3R)-3-Amino-1-piperidinyl]-7-(2-butyn-1-yl)-3,7-dihydro-3-methyl-1-[(4-methyl-2-quinazolinyl)methyl]-1H-purine-2,6-dione", "BI 1356", "ONDERO", "Linagliptin", "BI 1356BS", "Tradjenta", "Trazenta", "(R)-8-[3-Aminopiperidin-1-yl]-7-(2-butynyl)-3-methyl-1-(4-methylquinazolin-2-ylmethyl)xanthine", "Trajenta"], "SMILES": "C(C#CC)N1C2=C(N=C1N3CC(N)CCC3)N(C)C(=O)N(CC4=NC5=C(C(C)=N4)C=CC=C5)C2=O", "physical_data": {"Molecular Weight": "472.54", "Molecular Formula": "C25H28N8O2", "Melting Point": "202 \u00b0C"}}