{"cas_no": "6683-19-8", "cn_name": "\u6297\u6c27\u5316\u52421010", "en_name": ["Antioxidant 1010", "Benzenepropanoic acid, 3,5-bis(1,1-dimethylethyl)-4-hydroxy-, 1,1\u2032-[2,2-bis[[3-[3,5-bis(1,1-dimethylethyl)-4-hydroxyphenyl]-1-oxopropoxy]methyl]-1,3-propanediyl] ester", "Hydrocinnamic acid, 3,5-di-tert-butyl-4-hydroxy-, neopentanetetrayl ester", "Benzenepropanoic acid, 3,5-bis(1,1-dimethylethyl)-4-hydroxy-, 2,2-bis[[3-[3,5-bis(1,1-dimethylethyl)-4-hydroxyphenyl]-1-oxopropoxy]methyl]-1,3-propanediyl ester", "Hydrocinnamic acid, 3,5-di-tert-butyl-4-hydroxy-, tetraester with pentaerythritol", "Pentaerythritol, tetrakis(3,5-di-tert-butyl-4-hydroxyhydrocinnamate)", "Tetrakis[methylene(3,5-di-tert-butyl-4-hydroxyhydrocinnamate)]methane", "Pentaerythritol tetrakis[3-(3,5-di-tert-butyl-4-hydroxyphenyl)propionate]", "Pentaerythrityl tetrakis[\u03b2-(4-hydroxy-3,5-di-tert-butylphenyl)propionate]", "Pentaerythritol 4-hydroxy-3,5-di-tert-butylphenylpropionate", "Pentaerythritol tetrakis[\u03b2-(4-hydroxy-3,5-di-tert-butylphenyl)propionate]", "Pentaerythritol tetrakis[(3,5-di-tert-butyl-4-hydroxyphenyl)propionate]", "Tetrakis[3-(3,5-di-tert-butyl-4-hydroxyphenyl)propionyloxymethyl]methane", "Pentaerythritol tetrakis[3-(4-hydroxy-3,5-di-tert-butylphenyl)propionate]", "Pentaerythritol 3-(4-hydroxy-3,5-di-tert-butylphenyl)propionate (1:4)", "Tetrakis(3,5-di-tert-butyl-4-hydroxyhydrocinnamoyloxymethyl)methane", "Tetrakis[3-(4-hydroxy-3,5-di-tert-butylphenyl)propionyloxymethyl]methane", "Pentaerythritol tetrakis(4-hydroxy-3,5-di-tert-butyl)hydrocinnamate", "Pentaerythrityl tetra-\u03b2-(3,5-di-tert-butyl-4-hydroxyphenyl) propionate", "Pentaerythritol tetrakis[\u03b2-(3,5-di-tert-butyl-4-hydroxyphenyl)propionate]", "Pentaerythrityl \u03b2-(3,5-di-tert-butyl-4-hydroxyphenyl)propionate", "Carbyltetramethylene tetrakis(3,5-di-tert-butyl-4-hydroxyhydrocinnamate)", "IRG 1010", "Neopentanetetrayl 3,5-di-tert-butyl-4-hydroxyhydrocinnamate", "Tetrakis[methylene-3-(3\u2032,5\u2032-di-tert-butyl-4\u2032-hydroxyphenyl)propionato]methane", "Tetraalkofen BPE", "Tetrakis[[[\u03b2-(3,5-di-tert-butyl-4-hydroxyphenyl)propionyl]oxy]methyl]methane", "Fenozan 22", "Pentaerythritol tetrakis ester with 3-(3,5-di-tert-butyl-4-hydroxyphenyl)propionic acid", "Irganox 1040", "Fenozan 23", "Phenosane 23", "RA 1010", "Pentaerythrityl tetrakis(4-hydroxy-3,5-di-tert-butylphenylpropionate)", "Pentaerythritol tetrakis[3-(3,5-di-tert-butyl-4-hydroxyphenyl)propanoate]", "Mark AO 60", "Anox 20", "Naugard 10", "Pentaerythrityl tetrakis[3-(3,5-di-tert-butyl-4-hydroxyphenyl)propionate]", "Pentaerythrityl tetrakis[3-(3\u2032,5\u2032-di-tert-butyl-4\u2032-hydroxyphenyl)propionate]", "Irganox 1010FF", "Irganox 1010FP", "BP 101", "Sumilizer BP 101", "Pentaerythrityl tetrakis(3,5-di-tert-butyl-4-hydroxy-phenyl)propionate", "Ralox 630", "Anox 20AM", "AO 1", "ADK Stab AO 60", "AO 60", "Pentaerytrityl tetrakis(3,5-di-tert-butyl-4-hydroxyphenyl)propionate", "Tetrakis[methylene-3-(3,5-di-tert-butyl-4-hydroxyphenyl)propionato]methane", "Tetrakis[methylene-3-(3\u2032,5\u2032-di-tert-butyl-4\u2032-hydroxyphenyl)propionate]methane", "Dovernox 10", "IR 1010", "Tetrakis[methylene-3-(3,5-di-tert-butyl-4-hydroxyphenyl)propionate]methane", "Hostanox O 10", "Antioxidant 1010", "KY 7910", "Tominox TT", "Pentaerythritol tetra[3-(3\u2032,5\u2032-di-tert-butyl-4\u2032-hydroxyphenyl)propanoate]", "Tominox TT 50", "AO 1010", "Ultranox 210", "Irganox RA 1010", "Tetrakis(hydroxymethyl)methane tetrakis[\u03b2-{3,5-di(tert-butyl)-4-hydroxyphenyl}propionate]", "Cyanox 2110", "Arenox A 10", "IX 1010", "Chinox 1010", "A 1010", "A 1010 (antioxidant)", "Iruga 1010", "Stabiace PH 1010", "PH 1010", "Irganox 1010", "Irganox 101", "Pentaerythritol tetrakis[\u03b2-(3,5-di-tert-butyl-4-hydroxyphenyl)propanoate]", "Songnox 1010", "AT 10", "AT 10 (antioxidant)", "Evernox 10", "Tetrakis[methylene-3-(3\u2032,5\u2032-di-tert-butyl-4-hydroxyphenyl)propionate]methane", "Irganox 1066", "BC 1010", "Quantox 1010", "Longnox 10", "Pentaerythritol tetrakis(3,5-tert-butyl-4-hydroxyhydrocinnamate)", "Tinogard TT", "Pentaerythritol tetra[\u03b2-(3\u2032,5\u2032-di-tert-butyl-4\u2032-hydroxyphenyl)propionate]", "TTHP", "Irganox L 101", "Antiox 10", "Fero NF 130", "NF 130", "Ethanox 310", "JY 1010", "Richnox 1010", "Sonox 1010", "Chemnox 1010", "S 1010", "KY 1010", "Antioxidant 7910", "Evernox 1010", "X 001", "A 60", "Pentaerythritol tetra [\u03b2-(3,5-di-tert-butyl-4-hydroxyphenyl)propionate]", "I 1010", "Thanox 1010", "TEX 44", "SK 1010", "ADK-AO 60", "L 101", "Heat Stabilizer 1010", "Tetrakis[methylene(3,5-di-tert-butyl-4-hydroxyhydrocinnamoyloxy)methane", "Pentaerythritol tetrakis[3-[3,5-bis(1,1-dimethylethyl)-4-hydroxyphenyl]]propionate", "Tetra[\u03b2-(3,5-di-tert-butyl-4-hydroxyphenyl)propionate]pentaerythritol", "AT 1010", "Tetrakis[\u03b2-(3,5-di-tert-butyl-4-hydroxyphenyl)propionic acid]pentaerythritol ester", "Pentaerythritol tetrakis (3-(3\u2032,5\u2032-di-tert-butyl-4-hydroxyphenyl)propionate)", "Pentaerythritol tetrakis(3,5-di-tert-butyl-4-hydroxyhydrocinnamate)", "Jyanox 1010", "Pentaerythritol tetrakis[\u03b2-(3,5-di-tert-butyl-4-hydroxyphenyl)propanoate", "ADK Stab AO 60P", "Rianox 1010", "BASF 1010", "Tetrakis(\u03b2-(3,5-tert-butyl-4-hydroxyphenyl)propionic acid)pentaerythritol ester", "2,2-Bis(((3-(3,5-di-tert-butyl-4-hydroxyphenyl)propanoyl)oxy)methyl)propane-1,3-diyl bis(3-(3,5-di-tert-butyl-4-hydroxyphenyl)propanoate)", "[3-[3-(3,5-Ditert-butyl-4-hydroxyphenyl)propanoyloxy]-2,2-bis[3-(3,5-ditert-butyl-4-hydroxyphenyl)propanoyloxymethyl]propyl] 3-(3,5-ditert-butyl-4-hydroxyphenyl)propanoate", "AO 18", "AO 60P", "Antioxidant B 1010", "S 67391", "Sonox 1010T", "Irgafos 1010", "Brad-Chem 391", "Kinox 10", "A 01010", "Cyanox 1010", "Lenox 1010", "K 1010", "Ionol 630", "Adeka Stab AO 60P", "Rianox 1010FF"], "SMILES": "C(COC(CCC1=CC(C(C)(C)C)=C(O)C(C(C)(C)C)=C1)=O)(COC(CCC2=CC(C(C)(C)C)=C(O)C(C(C)(C)C)=C2)=O)(COC(CCC3=CC(C(C)(C)C)=C(O)C(C(C)(C)C)=C3)=O)COC(CCC4=CC(C(C)(C)C)=C(O)C(C(C)(C)C)=C4)=O", "physical_data": {"Molecular Weight": "1177.63", "Molecular Formula": "C73H108O12", "Melting Point": "119-122 \u00b0C", "Density": "0.57 g/cm\u00b3"}}