{"cas_no": "6683-46-1", "cn_name": "1,1,4,4-\u56db\u7532\u57fa-1,2,3,4-\u56db\u6c22\u8418", "en_name": ["1,1,4,4-Tetramethyl-1,2,3,4-tetrahydronaphthalene", "Naphthalene, 1,2,3,4-tetrahydro-1,1,4,4-tetramethyl-", "1,2,3,4-Tetrahydro-1,1,4,4-tetramethylnaphthalene", "1,1,4,4-Tetramethyltetralin", "1,1,4,4-Tetramethyl-1,2,3,4-tetrahydronaphthalene", "NSC 17400", "1,1,4,4-Tetramethyl-2,3-dihydronaphthalene"], "SMILES": "CC1(C)C=2C(C(C)(C)CC1)=CC=CC2", "physical_data": {"Molecular Weight": "188.31", "Molecular Formula": "C14H20", "Boiling Point": "248 \u00b0C", "Melting Point": "115-120 \u00b0C", "Density": "0.9482 g/cm\u00b3 @ Temp: 27 \u00b0C"}}