{"cas_no": "6683-92-7", "cn_name": "1-\u82ef\u57fa-2-\u620a\u916e", "en_name": ["1-Phenyl-2-pentanone", "2-Pentanone, 1-phenyl-", "1-Phenyl-2-pentanone", "Benzyl propyl ketone"], "SMILES": "C(C(CCC)=O)C1=CC=CC=C1", "physical_data": {"Molecular Weight": "162.23", "Molecular Formula": "C11H14O", "Boiling Point": "237-239 \u00b0C", "Density": "0.9889 g/cm\u00b3 @ Temp: 12 \u00b0C"}}