{"cas_no": "6683-48-3", "cn_name": "1,1,4,4,6-\u4e94\u7532\u57fa-1,2,3,4-\u56db\u6c22\u5316\u8418", "en_name": ["1,1,4,4,6-Pentamethyl-1,2,3,4-tetrahydronaphthalene", "Naphthalene, 1,2,3,4-tetrahydro-1,1,4,4,6-pentamethyl-", "1,2,3,4-Tetrahydro-1,1,4,4,6-pentamethylnaphthalene", "1,1,4,4,6-Pentamethyl-1,2,3,4-tetrahydronaphthalene", "1,1,4,4,6-Pentamethyl-2,3-dihydronaphthalene"], "SMILES": "CC1(C)C=2C(C(C)(C)CC1)=CC=C(C)C2", "physical_data": {"Molecular Weight": "202.34", "Molecular Formula": "C15H22", "Boiling Point": "78 \u00b0C @ Press: 1.5 Torr", "Melting Point": "29 \u00b0C"}}