{"cas_no": "66840-71-9", "cn_name": "N,N-\u4e8c\u7532\u57fa\u6c28\u57fa-N-\u7532\u82ef", "en_name": ["N,N-dimethyl-N\u2032-p-tolylsulfamide", "Sulfamide, N,N-dimethyl-N\u2032-(4-methylphenyl)-", "Sulfamide, N,N-dimethyl-N\u2032-p-tolyl-", "N,N-Dimethyl-N\u2032-(4-methylphenyl)sulfamide", "DMST", "N,N-dimethyl-N\u2032-p-tolylsulfamide", "4-Dimethylaminosulfotoluidide", "1-(Dimethylsulfamoylamino)-4-methylbenzene"], "SMILES": "N(S(N(C)C)(=O)=O)C1=CC=C(C)C=C1", "physical_data": {"Molecular Weight": "214.28", "Molecular Formula": "C9H14N2O2S", "Melting Point": "80 \u00b0C"}}