{"cas_no": "66841-25-6", "cn_name": "\u56db\u6eb4\u83ca\u916f", "en_name": ["Tralomethrin", "Cyclopropanecarboxylic acid, 2,2-dimethyl-3-(1,2,2,2-tetrabromoethyl)-, cyano(3-phenoxyphenyl)methyl ester", "Tralomethrin", "HAG 107", "RU 25472", "Scout (insecticide)", "Scout X-tra", "Bengal Fire Ant Killer", "SAGA", "Tracker", "Scout"], "SMILES": "C(C(Br)(Br)Br)(Br)C1C(C(OC(C#N)C2=CC(OC3=CC=CC=C3)=CC=C2)=O)C1(C)C", "physical_data": {"Molecular Weight": "665.01", "Molecular Formula": "C22H19Br4NO3", "Melting Point": "138-148 \u00b0C", "Density": "1.70 g/cm\u00b3 @ Temp: 20 \u00b0C"}}