{"cas_no": "66852-54-8", "cn_name": "\u5364\u8d1d\u4ed6\u7d22\u4e19\u9178\u916f", "en_name": ["Halobetasol propionate", "Pregna-1,4-diene-3,20-dione, 21-chloro-6,9-difluoro-11-hydroxy-16-methyl-17-(1-oxopropoxy)-, (6\u03b1,11\u03b2,16\u03b2)-", "(6\u03b1,11\u03b2,16\u03b2)-21-Chloro-6,9-difluoro-11-hydroxy-16-methyl-17-(1-oxopropoxy)pregna-1,4-diene-3,20-dione", "BMY 30056", "CGP 14458", "Halobetasol propionate", "Ultravate", "Miracorten", "Ulobetasol propionate"], "SMILES": "O(C(CC)=O)C1(C(CCl)=O)C2(C)C(CC1C)C3C(F)(C(O)C2)C4(C)C(C(F)C3)=CC(=O)C=C4", "physical_data": {"Molecular Weight": "484.96", "Molecular Formula": "C25H31ClF2O5", "Melting Point": "220-221 \u00b0C"}}