{"cas_no": "6685-76-3", "cn_name": "\u82ef\u57fa\u80cd\u78b3\u9178\u76d0", "en_name": ["Carbonic acid, compd. with N-phenylguanidine (1:1)", "Carbonic acid, compd. with N-phenylguanidine (1:1)", "Carbonic acid, compd. with phenylguanidine (1:1)", "Guanidine, phenyl-, carbonate (1:1)", "Phenylguanidine bicarbonate", "Phenylguanidine hydrogen carbonate", "N-Phenylguanidinium carbonate", "1-Phenylguanidine carbonate"], "SMILES": "C(=O)(O)O.N(C(=N)N)C1=CC=CC=C1", "physical_data": {"Molecular Weight": "", "Molecular Formula": "C7H9N3.CH2O3", "Melting Point": "220 \u00b0C (decomp)"}}