{"cas_no": "6688-11-5", "cn_name": "\u73af\u8f9b\u70f7\u7532\u919b", "en_name": ["Cyclooctanecarboxaldehyde", "Cyclooctanecarboxaldehyde", "Formylcyclooctane", "Cyclooctanealdehyde"], "SMILES": "C(=O)C1CCCCCCC1", "physical_data": {"Molecular Weight": "140.22", "Molecular Formula": "C9H16O", "Boiling Point": "76-78 \u00b0C @ Press: 16 Torr"}}