{"cas_no": "668984-08-5", "cn_name": "(2-\u8418)\u4e09\u6c1f\u787c\u9178\u94be", "en_name": ["Borate(1-), trifluoro-2-naphthalenyl-, potassium (1:1), (T-4)-", "Borate(1-), trifluoro-2-naphthalenyl-, potassium (1:1), (T-4)-", "Borate(1-), trifluoro-2-naphthalenyl-, potassium, (T-4)-", "Potassium trifluoro(naphthalen-2-yl)borate", "Potassium trifluoro(2-naphthyl)borate", "Potassium 2-naphthyltrifluoroborate"], "SMILES": "[B+3]([F-])([F-])([F-])[C-]1=CC2=C(C=C1)C=CC=C2.[K+]", "physical_data": {"Molecular Weight": "", "Molecular Formula": "C10H7BF3.K", "Melting Point": "&gt;260 \u00b0C"}}