{"cas_no": "66892-34-0", "cn_name": "6-\u6c1f-4-\u4e8c\u6c22\u8272\u539f\u916e", "en_name": ["6-Fluoro-2,3-dihydro-4H-1-benzopyran-4-one", "4H-1-Benzopyran-4-one, 6-fluoro-2,3-dihydro-", "6-Fluoro-2,3-dihydro-4H-1-benzopyran-4-one", "6-Fluoro-4-chromanone", "6-Fluorochromanone", "6-Fluoro-2,3-dihydrochromen-4-one", "6-Fluoro-3,4-dihydro-2H-1-benzopyran-4-one", "6-Fluorodihydrobenzopyran-4-one"], "SMILES": "O=C1C=2C(=CC=C(F)C2)OCC1", "physical_data": {"Molecular Weight": "166.15", "Molecular Formula": "C9H7FO2", "Melting Point": "111-115 \u00b0C"}}