{"cas_no": "66898-62-2", "cn_name": "\u4ed6\u5c3c\u6c1f\u916f", "en_name": ["Talniflumate", "3-Pyridinecarboxylic acid, 2-[[3-(trifluoromethyl)phenyl]amino]-, 1,3-dihydro-3-oxo-1-isobenzofuranyl ester", "Talniflumate", "Somalgen", "BA 7602-06", "(3-Oxo-1H-2-benzofuran-1-yl) 2-[3-(trifluoromethyl)anilino]pyridine-3-carboxylate", "SML 1710", "2-(3-Trifluoromethyl-phenylamino)-nicotinic acid 3-oxo-1,3-dihydro-isobenzofuran-1-yl ester"], "SMILES": "O(C(=O)C1=C(NC2=CC(C(F)(F)F)=CC=C2)N=CC=C1)C3C=4C(C(=O)O3)=CC=CC4", "physical_data": {"Molecular Weight": "414.33", "Molecular Formula": "C21H13F3N2O4", "Melting Point": "165-166 \u00b0C"}}