{"cas_no": "66909-33-9", "cn_name": "2-\u6c2f-5-\u6c30\u57fa-3-\u7532\u57fa\u5421\u5576", "en_name": ["6-Chloro-5-methyl-3-pyridinecarbonitrile", "3-Pyridinecarbonitrile, 6-chloro-5-methyl-", "6-Chloro-5-methyl-3-pyridinecarbonitrile", "2-Chloro-3-methyl-5-pyridinecarbonitrile", "6-Chloro-5-methylnicotinonitrile"], "SMILES": "C(#N)C=1C=C(C)C(Cl)=NC1", "physical_data": {"Molecular Weight": "152.58", "Molecular Formula": "C7H5ClN2", "Melting Point": "114-116 \u00b0C"}}