{"cas_no": "669008-26-8", "cn_name": "1-\u7532\u57fa\u73af\u4e19\u70f7\u78fa\u9170\u80fa", "en_name": ["1-Methylcyclopropanesulfonamide", "Cyclopropanesulfonamide, 1-methyl-", "1-Methylcyclopropanesulfonamide", "1-Methylcyclopropane-1-sulfonamide"], "SMILES": "S(N)(=O)(=O)C1(C)CC1", "physical_data": {"Molecular Weight": "135.18", "Molecular Formula": "C4H9NO2S", "Melting Point": "103-104 \u00b0C"}}