{"cas_no": "66909-35-1", "cn_name": "2-\u6c2f-4-\u7532\u57fa\u5421\u5576-5-\u7532\u8148", "en_name": ["6-Chloro-4-methyl-3-pyridinecarbonitrile", "3-Pyridinecarbonitrile, 6-chloro-4-methyl-", "6-Chloro-4-methyl-3-pyridinecarbonitrile", "2-Chloro-4-methyl-5-pyridinecarbonitrile", "6-Chloro-4-methylpyridine-3-carbonitrile", "6-Chloro-4-methylnicotinonitrile"], "SMILES": "C(#N)C=1C(C)=CC(Cl)=NC1", "physical_data": {"Molecular Weight": "152.58", "Molecular Formula": "C7H5ClN2", "Melting Point": "108-109 \u00b0C"}}