{"cas_no": "66938-86-1", "cn_name": "(3,4-\u4e8c\u6c28\u57fa\u82ef)(4-\u6c1f\u82ef)\u7532\u916e", "en_name": ["(3,4-Diaminophenyl)(4-fluorophenyl)methanone", "Methanone, (3,4-diaminophenyl)(4-fluorophenyl)-", "(3,4-Diaminophenyl)(4-fluorophenyl)methanone", "(3,4-Diaminophenyl)4-fluorophenyl)methanone"], "SMILES": "C(=O)(C1=CC(N)=C(N)C=C1)C2=CC=C(F)C=C2", "physical_data": {"Molecular Weight": "230.24", "Molecular Formula": "C13H11FN2O", "Melting Point": "113-114 \u00b0C"}}