{"cas_no": "66943-05-3", "cn_name": "\u6c2e\u6742-15-\u51a0\u919a-5", "en_name": ["Aza-15-crown-5", "1,4,7,10-Tetraoxa-13-azacyclopentadecane", "Monoaza-15-crown-5", "Aza-15-crown-5", "1-Aza-4,7,10,13-tetraoxacyclopentadecane", "1-Aza-15-crown-5", "1,4,7,10-Tetraoxa-15-azacyclopentadecane", "13-Aza-15-crown-5"], "SMILES": "C1COCCOCCOCCOCCN1", "physical_data": {"Molecular Weight": "219.28", "Molecular Formula": "C10H21NO4", "Boiling Point": "80-82 \u00b0C @ Press: 0.02 Torr", "Melting Point": "29 \u00b0C"}}