{"cas_no": "66952-49-6", "cn_name": "\u78fa\u83cc\u5a01", "en_name": ["Methasulfocarb", "Carbamothioic acid, N-methyl-, S-[4-[(methylsulfonyl)oxy]phenyl] ester", "Carbamothioic acid, methyl-, S-[4-[(methylsulfonyl)oxy]phenyl] ester", "Methasulfocarb", "Kayabest", "[4-(Methylcarbamoylsulfanyl)phenyl] methanesulfonate"], "SMILES": "O(S(C)(=O)=O)C1=CC=C(SC(NC)=O)C=C1", "physical_data": {"Molecular Weight": "261.32", "Molecular Formula": "C9H11NO4S2", "Melting Point": "137 \u00b0C"}}