{"cas_no": "6696-41-9", "cn_name": "L-(-)-\u6d77\u85fb\u7cd6", "en_name": ["\u03b1-L-Fucose", "\u03b1-L-Galactopyranose, 6-deoxy-", "Fucopyranose, \u03b1-L-", "6-Deoxy-\u03b1-L-galactopyranose", "\u03b1-L-Fucopyranose", "\u03b1-L-Fucose"], "SMILES": "OC1C(O)C(O)C(O)OC1C", "physical_data": {"Molecular Weight": "164.16", "Molecular Formula": "C6H12O5", "Melting Point": "143-144 \u00b0C"}}