{"cas_no": "67-03-8", "cn_name": "\u76d0\u9178\u786b\u80fa", "en_name": ["Thiamine hydrochloride", "Thiazolium, 3-[(4-amino-2-methyl-5-pyrimidinyl)methyl]-5-(2-hydroxyethyl)-4-methyl-, chloride, hydrochloride (1:1:1)", "Thiamine, monohydrochloride", "Thiazolium, 3-[(4-amino-2-methyl-5-pyrimidinyl)methyl]-5-(2-hydroxyethyl)-4-methyl-, chloride, monohydrochloride", "3-(4-Amino-2-methylpyrimidyl-5-methyl)-4-methyl-5,\u03b2-hydroxyethylthiazolium chloride hydrochloride", "Aneurine hydrochloride", "Apate drops", "Beatine", "Bedome", "Begiolan", "Benerva", "Bequin", "Berin", "Betabion", "Betalin S", "Betaxin", "Bethiazine", "Beuion", "Bevitine", "Bewon", "Biuno", "Bivatin", "Bivita", "Clotiamina", "Eskapen", "Eskaphen", "Lixa-Beta", "Metabolin", "Slowten", "THD", "Thiadoxine", "Thiaminal", "Thiamine chloride hydrochloride", "Thiamine dichloride", "Thiamine hydrochloride", "Thiamin hydrochloride", "Thiaminium chloride", "Thiaminium chloride hydrochloride", "Thiamol", "Thiavit", "Tiamidon", "Tiaminal", "Trophite", "Vetalin S", "Vinothiam", "Vitamin B1 hydrochloride", "Vitaneuron", "Thiamine chloride", "Thiamin chloride", "Thiamin dichloride", "Biamine", "3-[(4-Amino-2-methylpyrimidin-5-yl)methyl]-5-(2-hydroxyethyl)-4-methyl-1,3-thiazol-3-ium hydrochloride chloride"], "SMILES": "C([N+]=1C(C)=C(CCO)SC1)C=2C(N)=NC(C)=NC2.[Cl-].Cl", "physical_data": {"Molecular Weight": "", "Molecular Formula": "C12H17N4OS.ClH.Cl", "Melting Point": "248 \u00b0C (decomp)"}}