{"cas_no": "67-16-3", "cn_name": "\u4e8c\u786b\u5316\u786b\u80fa", "en_name": ["Thiamine disulfide", "Formamide, N,N\u2032-[dithiobis[2-(2-hydroxyethyl)-1-methyl-2,1-ethenediyl]]bis[N-[(4-amino-2-methyl-5-pyrimidinyl)methyl]-", "Formamide, N,N\u2032-[dithiobis[2-(2-hydroxyethyl)-1-methylvinylene]]bis[N-[(4-amino-2-methyl-5-pyrimidinyl)methyl]-", "N,N\u2032-[Dithiobis[2-(2-hydroxyethyl)-1-methyl-2,1-ethenediyl]]bis[N-[(4-amino-2-methyl-5-pyrimidinyl)methyl]formamide]", "Aneurine disulfide", "N,N\u2032-[Dithiobis[2-(2-hydroxyethyl)-1-methylvinylene]]bis[N-[(4-amino-2-methyl-5-pyrimidinyl)methyl]formamide", "SSB1", "TDS", "Thiamine disulfide", "Vitamin B1 disulfide", "Algoneurina", "Feidmin 5", "Alitia S", "Neolamin", "Apren S", "Thiamidin F", "Daiomin", "Daisazin", "Thiamin disulfide", "TDS (neurotrope)", "Aneurin disulfide", "Aktivin", "Lowei"], "SMILES": "C(N(C(=C(SSC(=C(N(CC=1C(N)=NC(C)=NC1)C=O)C)CCO)CCO)C)C=O)C=2C(N)=NC(C)=NC2", "physical_data": {"Molecular Weight": "562.71", "Molecular Formula": "C24H34N8O4S2", "Melting Point": "177 \u00b0C"}}