{"cas_no": "67-20-9", "cn_name": "\u544b\u5583\u59a5\u56e0", "en_name": ["Furantoin", "2,4-Imidazolidinedione, 1-[[(5-nitro-2-furanyl)methylene]amino]-", "Hydantoin, 1-[(5-nitrofurfurylidene)amino]-", "1-[[(5-Nitro-2-furanyl)methylene]amino]-2,4-imidazolidinedione", "Chemiofuran", "Furadantin", "Furadantoin", "Furadonin", "Furadonine", "Furatoin", "Nifurantin", "Nitrofurantoin", "N-(5-Nitro-2-furfurylidene)-1-aminohydantoin", "1-[(5-Nitrofurfurylidene)amino]hydantoin", "Furantoin", "Ituran", "N-(5-Nitrofurfurylidene)-1-aminohydantoin", "N-(5-Nitro-2-furfurylidine)-1-aminohydantoin", "1-(5-Nitro-2-furfurylideneamino)hydantoin", "Berkfurin", "Furadoine", "Furobactina", "Orafuran", "Urizept", "Trantoin", "Urolong", "Urodin", "Cyantin", "Furachel", "Furalan", "Macrodantin", "Urantoin", "Welfurin", "Zoofurin", "5-Nitrofurantoin", "Furadontin", "Furina", "1-(5-Nitro-2-furfurylidenamino)hydantoin", "Urofurin", "Fur-ren", "Novofuran", "Nitoin", "Macrobid", "Furadantine MC", "Furophen T-Caps", "Furadoin", "Parfuran", "Furantoina", "Cystit", "FuaMed", "Uro-Tablinen", "NSC 2107", "NSC 44150", "Macrofuran", "Uvamin", "1-[[(5-Nitro-2-furyl)methylene]amino]-2,4-imidazolidinone", "1-[(5-Nitrofuran-2-yl)methylideneamino]imidazolidine-2,4-dione", "MeSH ID: D009582"], "SMILES": "N(=CC=1OC(N(=O)=O)=CC1)N2CC(=O)NC2=O", "physical_data": {"Molecular Weight": "238.16", "Molecular Formula": "C8H6N4O5", "Melting Point": "263 \u00b0C"}}