{"cas_no": "67-30-1", "cn_name": "\u56db\u7898\u7532\u72b6\u817a\u4e59\u9178", "en_name": ["Tetraiodothyroacetic acid", "Benzeneacetic acid, 4-(4-hydroxy-3,5-diiodophenoxy)-3,5-diiodo-", "Acetic acid, [4-(4-hydroxy-3,5-diiodophenoxy)-3,5-diiodophenyl]-", "Thyroacetic acid, 3,3\u2032,5,5\u2032-tetraiodo-", "4-(4-Hydroxy-3,5-diiodophenoxy)-3,5-diiodobenzeneacetic acid", "Tetrac", "3,5,3\u2032,5\u2032-Tetraiodothyroacetic acid", "Tetraiodothyroacetic acid", "3,3\u2032,5,5\u2032-Tetraiodothyroacetic acid"], "SMILES": "O(C1=CC(I)=C(O)C(I)=C1)C2=C(I)C=C(CC(O)=O)C=C2I", "physical_data": {"Molecular Weight": "747.83", "Molecular Formula": "C14H8I4O4", "Melting Point": "219-220 \u00b0C (decomp)"}}