{"cas_no": "67-36-7", "cn_name": "4-\u82ef\u6c27\u57fa\u82ef\u7532\u919b", "en_name": ["4-Phenoxybenzaldehyde", "Benzaldehyde, 4-phenoxy-", "Benzaldehyde, p-phenoxy-", "4-Phenoxybenzaldehyde", "p-Phenoxybenzaldehyde", "4-Formyldiphenyl ether", "4-Phenoxybenzenecarboxaldehyde"], "SMILES": "O(C1=CC=C(C=O)C=C1)C2=CC=CC=C2", "physical_data": {"Molecular Weight": "198.22", "Molecular Formula": "C13H10O2", "Boiling Point": "183-185 \u00b0C @ Press: 18 Torr"}}