{"cas_no": "67-45-8", "cn_name": "\u544b\u5583\u5511\u916e", "en_name": ["Furazolidone", "2-Oxazolidinone, 3-[[(5-nitro-2-furanyl)methylene]amino]-", "2-Oxazolidinone, 3-[(5-nitrofurfurylidene)amino]-", "3-(5-aci-Nitro-2(5H)-furylidenemethylimino)-2-oxooxazolidinium hydroxide, inner salt", "3-[[(5-Nitro-2-furanyl)methylene]amino]-2-oxazolidinone", "NF 180", "Furaxone", "Furazol", "Furazolidone", "Furazon", "Furozolidine", "Nifulidone", "3-[(5-Nitrofurfurylidene)amino]-2-oxazolidinone", "N-(5-Nitro-2-furfurylidene)-3-amino-2-oxazolidone", "Nitrofuroxon", "Trifurox", "Furoxone", "2-Furanmethanimine, 5-nitro-N-(2-oxo-3-oxazolidinyl)-", "Giarlam", "Nicolen", "Ortazol", "Roptazol", "Furoxane", "Giardil", "Neftin", "Medaron", "Furoxone Swine Mix", "Furazolidon", "Diafuron", "Furoxon", "Optazol", "Nitrofurazolidone", "Furoxal", "Furaxon", "Puradin", "Furidon", "Furox", "Tikofuran", "Furovag", "NSC 6469", "Furazolidinone", "Foroxone", "Dependal-M", "MeSH ID: D005664"], "SMILES": "C(=NN1C(=O)OCC1)C=2OC(N(=O)=O)=CC2", "physical_data": {"Molecular Weight": "225.16", "Molecular Formula": "C8H7N3O5", "Melting Point": "255 \u00b0C"}}