{"cas_no": "67-48-1", "cn_name": "\u6c2f\u5316\u80c6\u78b1", "en_name": ["Choline chloride", "Ethanaminium, 2-hydroxy-N,N,N-trimethyl-, chloride (1:1)", "Choline, chloride", "Ethanaminium, 2-hydroxy-N,N,N-trimethyl-, chloride", "Biocolina", "Hepacholine", "(2-Hydroxyethyl)trimethylammonium chloride", "Lipotril", "Cholinium chloride", "(\u03b2-Hydroxyethyl)trimethylammonium chloride", "Bilineurin chloride", "Luridin chloride", "Biocoline", "Hormocline", "Neocolina", "Paresan", "Trimethyl(2-hydroxyethyl)ammonium chloride", "Actiron CC 6", "Choline chloride", "Norcol 25", "COL 24", "ReaShure Choline", "Claytreat", "(2-Hydroxyethyl)trimethylazanium chloride", "2-Hydroxy-N,N,N-trimethylethanaminium chloride"], "SMILES": "C([N+](C)(C)C)CO.[Cl-]", "physical_data": {"Molecular Weight": "", "Molecular Formula": "C5H14NO.Cl", "Melting Point": "305 \u00b0C (decomp)"}}