{"cas_no": "67-47-0", "cn_name": "5-\u7f9f\u7532\u57fa\u7ce0\u919b", "en_name": ["5-(Hydroxymethyl)furfural", "2-Furancarboxaldehyde, 5-(hydroxymethyl)-", "2-Furaldehyde, 5-(hydroxymethyl)-", "5-(Hydroxymethyl)-2-furancarboxaldehyde", "HMF", "5-Hydroxymethyl-2-formylfuran", "5-Hydroxymethylfuraldehyde", "5-(Hydroxymethyl)-2-furaldehyde", "5-(Hydroxymethyl)-2-furancarbonal", "5-(Hydroxymethyl)-2-furfural", "5-(Hydroxymethyl)furfural", "5-Oxymethylfurfurole", "5-(Hydroxymethyl)-2-furfuraldehyde", "5-Hydroxymethylfuran-2-aldehyde", "Hydroxymethylfurfuraldehyde", "5-Hydroxymethylfurfuraldehyde", "2-Hydroxymethyl-5-furfural", "Hydroxymethylfurfuralaldehyde", "Hydroxymethylfurfural", "NSC 40738", "5-Hydroxymethylfurfurol", "2-Formyl-5-hydroxymethylfuran", "5-(Hydroxymethyl)furancarboxaldehyde", "Aes 103", "Hydroxymethylfuraldehyde", "BAX 555", "5-Hmf", "5-Hydroxymethylfurfural"], "SMILES": "C(O)C=1OC(C=O)=CC1", "physical_data": {"Molecular Weight": "126.11", "Molecular Formula": "C6H6O3", "Boiling Point": "115-120 \u00b0C @ Press: 0.5 Torr", "Melting Point": "31.5 \u00b0C"}}