{"cas_no": "67-52-7", "cn_name": "\u5df4\u6bd4\u59a5\u9178", "en_name": ["Barbituric acid", "2,4,6(1H,3H,5H)-Pyrimidinetrione", "Barbituric acid", "2,4,6-Trioxohexahydropyrimidine", "Malonylurea", "2,4,6-Pyrimidinetriol", "Urea, N,N\u2032-(1,3-dioxo-1,3-propanediyl)-", "2,4,6-Trihydroxypyrimidine", "Pyrimidinetrione", "6-Hydroxyuracil", "2,4,6-Pyrimidinetrione", "Hexahydropyrimidine-2,4,6-trione", "1,2,3,4,5,6-Hexahydro-2,4,6-pyrimidinetrione", "NSC 7889", "1,3-Diazinane-2,4,6-trione", "2-Hydroxypyrimidine-4,6(1H,5H)-dione"], "SMILES": "O=C1CC(=O)NC(=O)N1", "physical_data": {"Molecular Weight": "128.09", "Molecular Formula": "C4H4N2O3", "Melting Point": "248 \u00b0C", "Density": "1.17 g/cm\u00b3 @ Temp: 236 \u00b0C"}}