{"cas_no": "67-51-6", "cn_name": "3,5-\u4e8c\u7532\u57fa\u5421\u5511", "en_name": ["3,5-Dimethylpyrazole", "1H-Pyrazole, 3,5-dimethyl-", "Pyrazole, 3,5-dimethyl-", "3,5-Dimethyl-1H-pyrazole", "U 6245", "3,5-Dimethylpyrazole", "TH 564", "1H-3,5-Dimethylpyrazole", "Trixene DP 8692", "NSC 8729"], "SMILES": "CC=1C=C(C)NN1", "physical_data": {"Molecular Weight": "96.13", "Molecular Formula": "C5H8N2", "Boiling Point": "218 \u00b0C", "Melting Point": "107.5 \u00b0C"}}