{"cas_no": "67-56-1", "cn_name": "\u7532\u9187", "en_name": ["Methanol", "Methanol", "Carbinol", "Methyl alcohol", "Methyl hydroxide", "Monohydroxymethane", "Wood alcohol", "Methylol", "Bieleski's solution", "Methanol cluster", "Solutions, Bieleski's", "NSC 85232", "Nuclear", "MeSH ID: D000432"], "SMILES": "CO", "physical_data": {"Molecular Weight": "32.04", "Molecular Formula": "CH4O", "Boiling Point": "64.7 \u00b0C @ Press: 760 Torr", "Melting Point": "-97.8 \u00b0C", "Density": "0.8100 g/cm\u00b3 @ Temp: 0 \u00b0C"}}