{"cas_no": "67-63-0", "cn_name": "\u5f02\u4e19\u9187", "en_name": ["Isopropanol", "2-Propanol", "Isopropyl alcohol", "Avantine", "Dimethylcarbinol", "Isohol", "Isopropanol", "Lutosol", "PRO", "Petrohol", "sec-Propyl alcohol", "Alcosolve 2", "iso-Propanol", "1-Methylethyl alcohol", "Imsol A", "Combi-Schutz", "Alcojel", "Avantin", "Hartosol", "Propol", "Takineocol", "n-Propan-2-ol", "2-Hydroxypropane", "2-Propyl alcohol", "Sterisol Hand Disinfectant", "1-Methylethanol", "iso-Propyl alcohol", "sec-Propanol", "IPA", "Autosept", "IPS 1 (alcohol)", "IPS 1", "Virahol", "Tokuso IPA", "NSC 135801", "Steri-Fab", "isopropanol", "MeSH ID: D019840"], "SMILES": "C(C)(C)O", "physical_data": {"Molecular Weight": "60.10", "Molecular Formula": "C3H8O", "Boiling Point": "82.5 \u00b0C @ Press: 760 Torr", "Melting Point": "-88.5 \u00b0C", "Density": "0.78505 g/cm\u00b3 @ Temp: 20 \u00b0C"}}