{"cas_no": "67-66-3", "cn_name": "\u4e09\u6c2f\u7532\u70f7", "en_name": ["Chloroform", "Methane, trichloro-", "Chloroform", "Trichloromethane", "Trichloroform", "R 20", "R 20 (refrigerant)", "HCC 20", "F 20", "NSC 77361", "MeSH ID: D002725"], "SMILES": "C(Cl)(Cl)Cl", "physical_data": {"Molecular Weight": "119.38", "Molecular Formula": "CHCl3", "Boiling Point": "61.2 \u00b0C", "Melting Point": "-63.2 \u00b0C", "Density": "1.4835 g/cm\u00b3 @ Temp: 20 \u00b0C"}}