{"cas_no": "67-68-5", "cn_name": "\u4e8c\u7532\u57fa\u4e9a\u781c", "en_name": ["Dimethyl sulfoxide", "Methane, 1,1\u2032-sulfinylbis-", "Methyl sulfoxide", "Methane, sulfinylbis-", "1,1\u2032-Sulfinylbis[methane]", "SQ 9453", "DMSO", "Dromisol", "Dimethyl sulphoxide", "Dimexide", "Sulfinylbismethane", "Dimethyl sulfoxide", "Dolicur", "DMS 70", "DMS 90", "Hyadur", "Somipront", "Infiltrina", "Dipirartril-tropico", "Demsodrox", "Durasorb", "Dimexidum", "Rimso 50", "Syntexan", "Gamasol 90", "Kemsol", "Domoso", "Sclerosol", "Demavet", "Herpid", "Demeso", "NSC 763", "Dimethylsulfoxide", "Demasorb", "DMSO Evol", "Methylsulfinylmethane", "MeSH ID: D004121"], "SMILES": "S(C)(C)=O", "physical_data": {"Molecular Weight": "78.13", "Molecular Formula": "C2H6OS", "Boiling Point": "189 \u00b0C", "Melting Point": "18.5 \u00b0C", "Density": "1.100 g/cm\u00b3 @ Temp: 20 \u00b0C"}}