{"cas_no": "67-64-1", "cn_name": "\u4e19\u916e", "en_name": ["Acetone", "2-Propanone", "Methyl ketone", "Acetone", "Dimethyl ketone", "\u03b2-Ketopropane", "Pyroacetic ether", "Propanone", "Dimethylformaldehyde", "NSC 135802", "Taimax", "A 1060", "A 0140", "MeSH ID: D000096"], "SMILES": "C(C)(C)=O", "physical_data": {"Molecular Weight": "58.08", "Molecular Formula": "C3H6O", "Boiling Point": "56.0 \u00b0C @ Press: 760 Torr", "Melting Point": "-94.8 \u00b0C", "Density": "0.7899 g/cm\u00b3 @ Temp: 20 \u00b0C"}}