{"cas_no": "67-73-2", "cn_name": "\u918b\u9178\u6c1f\u8f7b\u677e", "en_name": ["Fluocinolone 16,17-acetonide", "Pregna-1,4-diene-3,20-dione, 6,9-difluoro-11,21-dihydroxy-16,17-[(1-methylethylidene)bis(oxy)]-, (6\u03b1,11\u03b2,16\u03b1)-", "Pregna-1,4-diene-3,20-dione, 6\u03b1,9-difluoro-11\u03b2,16\u03b1,17,21-tetrahydroxy-, cyclic 16,17-acetal with acetone", "2H-Naphth[2\u2032,1\u2032:4,5]indeno[1,2-d][1,3]dioxole, pregna-1,4-diene-3,20-dione deriv.", "(6\u03b1,11\u03b2,16\u03b1)-6,9-Difluoro-11,21-dihydroxy-16,17-[(1-methylethylidene)bis(oxy)]pregna-1,4-diene-3,20-dione", "6\u03b1,9\u03b1-Difluoro-16\u03b1,17\u03b1-isopropylidenedioxy-\u03941-hydrocortisone", "6\u03b1,9\u03b1-Difluoro-11\u03b2,16\u03b1,17\u03b1,21-tetrahydroxypregna-1,4-diene-3,20-dione 16,17-acetonide", "6\u03b1,9-Difluoro-11\u03b2,16\u03b1,17,21-tetrahydroxypregna-1,4-diene-3,20-dione cyclic 16,17 acetal with acetone", "Fluocinolone acetonide", "16\u03b1,17\u03b1-Isopropylidene-6\u03b1,9\u03b1-difluoro-1,4-pregnadiene-11\u03b2,16\u03b1,17\u03b1,21-tetrol-3,20-dione", "Synalar", "Fluocinolone 16,17-acetonide", "6\u03b1-Fluorotriamcinolone acetonide", "6\u03b1,9\u03b1-Difluoro-16\u03b1-hydroxyprednisolone 16,17-acetonide", "Dermalar", "Jellin", "Synamol", "Synsac", "Synandone", "Localyn Syntex", "Fluovitif", "6\u03b1,9-Difluoro-11\u03b2,21-dihydroxy-16\u03b1,17\u03b1-(isopropylidenedioxy)pregna-1,4-diene-3,20-dione", "Sinalar", "Radiocin", "RS 1401AT", "Synandrone", "Percutina", "Prodermin", "Dermatin", "Synaflan", "Dermatin (steroid)", "Fluocinolone 16\u03b1,17\u03b1-acetonide", "Fluzon", "Synotic", "Fluovitef", "NSC 92339", "Coriphate", "Fluonid", "Localyn", "Synemol", "Cortiplastol", "Fluvean", "Retisert", "Sinaflan", "Iluvien", "Derma-Smoothe/FS", "MeSH ID: D005446"], "SMILES": "C(CO)(=O)C12C3(C)C(CC1OC(C)(C)O2)C4C(F)(C(O)C3)C5(C)C(C(F)C4)=CC(=O)C=C5", "physical_data": {"Molecular Weight": "452.49", "Molecular Formula": "C24H30F2O6", "Melting Point": "266 \u00b0C"}}