{"cas_no": "67-78-7", "cn_name": "\u66f2\u5b89\u897f\u9f99\u53cc\u918b\u9178\u916f", "en_name": ["Triamcinolone diacetate", "Pregna-1,4-diene-3,20-dione, 16,21-bis(acetyloxy)-9-fluoro-11,17-dihydroxy-, (11\u03b2,16\u03b1)-", "Pregna-1,4-diene-3,20-dione, 9-fluoro-11\u03b2,16\u03b1,17,21-tetrahydroxy-, 16,21-diacetate", "(11\u03b2,16\u03b1)-16,21-Bis(acetyloxy)-9-fluoro-11,17-dihydroxypregna-1,4-diene-3,20-dione", "Aristocort diacetate forte", "Aristocort diacetate parenteral", "Aristocort Forte", "16\u03b1,21-Diacetoxy-9\u03b1-fluoro-11\u03b2,17\u03b1-dihydroxy-1,4-pregnadiene-3,20-dione", "\u03941-9\u03b1-Fluoro-16\u03b1-hydroxyhydrocortisone diacetate", "9\u03b1-Fluoro-16\u03b1-hydroxyprednisolone 16,21-diacetate", "9\u03b1-Fluoro-1,4-pregnadiene-11\u03b2,16\u03b1,17\u03b1,21-tetraol-3,20-dione 16,21-diacetate", "9-Fluoro-11\u03b2,16\u03b1,17,21-tetrahydroxypregna-1,4-diene-3,20-dione 16,21-diacetate", "\u03941-16\u03b1-Hydroxy-9\u03b1-fluorohydrocortisone diacetate", "16\u03b1-Hydroxy-9\u03b1-fluoroprednisolone diacetate", "Kenacourt", "Orion", "Triamcinolone diacetate", "Triamcinolone 16,21-diacetate", "Aristocort Parenterals", "Polcortolon", "8357RP", "Tedarol", "Triamolone 40", "Aristocort Forte Parenteral", "Aristocort Syrup", "Tracilon", "Cenacort", "TAC-D", "Kenacort diacetate Syrup", "CINO 40"], "SMILES": "CC12C(C3C(F)(C(O)C1)C4(C)C(CC3)=CC(=O)C=C4)CC(OC(C)=O)C2(C(COC(C)=O)=O)O", "physical_data": {"Molecular Weight": "478.51", "Molecular Formula": "C25H31FO8", "Melting Point": "235 \u00b0C"}}