{"cas_no": "67-72-1", "cn_name": "\u516d\u6c2f\u4e59\u70f7", "en_name": ["Hexachloroethane", "Ethane, 1,1,1,2,2,2-hexachloro-", "Ethane, hexachloro-", "1,1,1,2,2,2-Hexachloroethane", "Avlothane", "Ethane hexachloride", "Hexachloroethane", "Perchloroethane", "Phenohep", "Hexachlorethane", "Hexachloroethylene", "Fasciolin", "Egitol", "Mottenhexe", "Falkitol", "Distokal", "Distopan", "Distopin", "Fron 110", "NSC 9224", "1,2-Dichloro-1,1,2,2-tetrachloroethane"], "SMILES": "C(C(Cl)(Cl)Cl)(Cl)(Cl)Cl", "physical_data": {"Molecular Weight": "236.74", "Molecular Formula": "C2Cl6", "Boiling Point": "185 \u00b0C", "Melting Point": "183-185 \u00b0C (sublm)", "Density": "2.091 g/cm\u00b3 @ Temp: 20 \u00b0C"}}