{"cas_no": "67-71-0", "cn_name": "\u4e8c\u7532\u57fa\u781c", "en_name": ["Dimethyl sulfone", "Methane, 1,1\u2032-sulfonylbis-", "Methyl sulfone", "Methane, sulfonylbis-", "1,1\u2032-Sulfonylbis[methane]", "Dimethyl sulfone", "Methylsulfonylmethane", "Dimethyl sulphone", "MSM", "Lignisul MSM", "NSC 63345", "Opti MSM", "Opti-dimethyl sulfone"], "SMILES": "S(C)(C)(=O)=O", "physical_data": {"Molecular Weight": "94.13", "Molecular Formula": "C2H6O2S", "Boiling Point": "238 \u00b0C", "Melting Point": "109 \u00b0C"}}