{"cas_no": "67-81-2", "cn_name": "\u620a\u7532\u592b\u9187", "en_name": ["(17\u03b2)-3-(Cyclopentyloxy)-17-methylandrosta-3,5-dien-17-ol", "Androsta-3,5-dien-17-ol, 3-(cyclopentyloxy)-17-methyl-, (17\u03b2)-", "Androsta-3,5-dien-17\u03b2-ol, 3-(cyclopentyloxy)-17-methyl-", "(17\u03b2)-3-(Cyclopentyloxy)-17-methylandrosta-3,5-dien-17-ol", "3-(Cyclopentyloxy)-17-methyl-androsta-3,5-dien-17\u03b2-ol", "17\u03b1-Methyltestosterone 3-cyclopentyl enol ether", "Penmestrol", "Pandrocine", "RP 12222"], "SMILES": "CC12C(C3C(CC1)C4(C)C(=CC3)C=C(OC5CCCC5)CC4)CCC2(C)O", "physical_data": {"Molecular Weight": "370.57", "Molecular Formula": "C25H38O2", "Melting Point": "150 \u00b0C"}}