{"cas_no": "67-97-0", "cn_name": "\u7ef4\u751f\u7d20 D3", "en_name": ["Vitamin D3", "Cyclohexanol, 3-[(2E)-2-[(1R,3aS,7aR)-1-[(1R)-1,5-dimethylhexyl]octahydro-7a-methyl-4H-inden-4-ylidene]ethylidene]-4-methylene-, (1S,3Z)-", "Cholecalciferol", "9,10-Secocholesta-5,7,10(19)-trien-3-ol, (3\u03b2,5Z,7E)-", "(1S,3Z)-3-[(2E)-2-[(1R,3aS,7aR)-1-[(1R)-1,5-Dimethylhexyl]octahydro-7a-methyl-4H-inden-4-ylidene]ethylidene]-4-methylenecyclohexanol", "Delsterol", "Deparal", "Oleovitamin D3", "Ricketon", "Trivitan", "D3-Vigantol", "Vitamin D3", "9,10-Secocholesta-5,7,10(19)-trien-3\u03b2-ol", "Vitinc Dan-Dee-3", "Vigorsan", "Colecalciferol", "Calciol", "Quintox", "Vi-De3", "Arachitol", "Granuvit D3", "Videkhol", "FeraCol", "Devaron", "NSC 375571", "Dry Vitamin D3 100CWS/AM", "Lutavit D", "Riken D3 Oil 20", "Duphafral D3 1000", "Ekostop D3", "Calcirol", "Oleovit D3", "UVEDOSE", "Riken D3 Oil 100", "Decristol", "Minisun", "Vigantoletten", "High-D 2X", "Plivit D3", "Aquadetrim", "Vitamin D3 S 50t", "Devikap", "OsteVit D", "Vigantol", "Rovimix D3 500", "CapsuDar D3 100E"], "SMILES": "CC12C(C(=CC=C3C(=C)CCC(O)C3)CCC1)CCC2C(CCCC(C)C)C", "physical_data": {"Molecular Weight": "384.64", "Molecular Formula": "C27H44O", "Melting Point": "84-85 \u00b0C", "Density": "0.939 g/cm\u00b3"}}