{"cas_no": "67-96-9", "cn_name": "\u591a\u6c99\u5511\u55ea\u6742\u8d28F", "en_name": ["Dihydrotachysterol", "Cyclohexanol, 4-methyl-3-[(2E)-2-[(1R,3aS,7aR)-octahydro-7a-methyl-1-[(1R,2E,4R)-1,4,5-trimethyl-2-hexen-1-yl]-4H-inden-4-ylidene]ethylidene]-, (1S,3E,4S)-", "Tachysterol, dihydro-", "Tachysterol2, dihydro-", "9,10-Secoergosta-5,7,22-trien-3-ol, (3\u03b2,5E,7E,10\u03b1,22E)-", "(1S,3E,4S)-4-Methyl-3-[(2E)-2-[(1R,3aS,7aR)-octahydro-7a-methyl-1-[(1R,2E,4R)-1,4,5-trimethyl-2-hexen-1-yl]-4H-inden-4-ylidene]ethylidene]cyclohexanol", "Antitanil", "Calcamine", "DHT2", "Dichystrolum", "Dihydrotachysterol", "Hytakerol", "24-Methyl-9,10-secocholesta-5,7,22-trien-3\u03b2-ol", "Parterol", "9,10-Secoergosta-5,7,22-trien-3\u03b2-ol", "Anti-tetany substance 10", "A.T. 10", "Dihydrotachysterol2", "Dygratyl", "Tachystin", "A.T. 10 (steroid)", "Tachyrol", "Dihydral", "Dichysterol", "MeSH ID: D004097"], "SMILES": "CC12C(C(=CC=C3C(C)CCC(O)C3)CCC1)CCC2C(C=CC(C(C)C)C)C", "physical_data": {"Molecular Weight": "398.66", "Molecular Formula": "C28H46O", "Melting Point": "125-127 \u00b0C"}}