{"cas_no": "67-92-5", "cn_name": "\u76d0\u9178\u53cc\u73af\u7ef4\u6797", "en_name": ["Dicyclomine hydrochloride", "[1,1\u2032-Bicyclohexyl]-1-carboxylic acid, 2-(diethylamino)ethyl ester, hydrochloride (1:1)", "[Bicyclohexyl]-1-carboxylic acid, 2-(diethylamino)ethyl ester hydrochloride", "[1,1\u2032-Bicyclohexyl]-1-carboxylic acid, 2-(diethylamino)ethyl ester, hydrochloride", "Atumin", "Bentyl hydrochloride", "Dicyclomine hydrochloride", "\u03b2-Diethylaminoethyl 1-cyclohexylcyclohexanecarboxylate hydrochloride", "Diocyl hydrochloride", "Merbentyl", "Wyovin hydrochloride", "Dicycloverin hydrochloride", "Di-Syntramine", "Mamiesan", "Procyclomin", "Benacol", "Bentomine", "Dyspas", "Dicycloverine hydrochloride", "2-(Diethylamino)ethyl [1,1\u2032-bi(cyclohexane)]-1-carboxylate hydrochloride"], "SMILES": "C(OCCN(CC)CC)(=O)C1(CCCCC1)C2CCCCC2.Cl", "physical_data": {"Molecular Weight": "", "Molecular Formula": "C19H35NO2.ClH", "Melting Point": "165 \u00b0C"}}