{"cas_no": "67-99-2", "cn_name": "\u80f6\u9709\u6bd2\u7d20", "en_name": ["Gliotoxin", "10H-3,10a-Epidithiopyrazino[1,2-a]indole-1,4-dione, 2,3,5a,6-tetrahydro-6-hydroxy-3-(hydroxymethyl)-2-methyl-, (3R,5aS,6S,10aR)-", "Gliotoxin", "10H-3,10a-Epidithiopyrazino[1,2-a]indole-1,4-dione, 2,3,5a,6-tetrahydro-6-hydroxy-3-(hydroxymethyl)-2-methyl-, [3R-(3\u03b1,5a\u03b2,6\u03b2,10a\u03b1)]-", "(3R,5aS,6S,10aR)-2,3,5a,6-Tetrahydro-6-hydroxy-3-(hydroxymethyl)-2-methyl-10H-3,10a-epidithiopyrazino[1,2-a]indole-1,4-dione", "Aspergillin", "S. N. 12870", "MeSH ID: D005912"], "SMILES": "O=C1C23N(C4C(C2)=CC=CC4O)C(=O)C(CO)(N1C)SS3", "physical_data": {"Molecular Weight": "326.39", "Molecular Formula": "C13H14N2O4S2", "Melting Point": "195 \u00b0C"}}