{"cas_no": "670-95-1", "cn_name": "4-\u82ef\u57fa\u54aa\u5511", "en_name": ["4-Phenylimidazole", "1H-Imidazole, 5-phenyl-", "Imidazole, 4-phenyl-", "1H-Imidazole, 4-phenyl-", "5-Phenyl-1H-imidazole", "4-Phenylimidazole", "4(5)-Phenylimidazole", "5-Phenylimidazole", "4-Phenyl-1H-imidazole", "NSC 195337"], "SMILES": "C1(=CN=CN1)C2=CC=CC=C2", "physical_data": {"Molecular Weight": "144.17", "Molecular Formula": "C9H8N2", "Melting Point": "132 \u00b0C"}}