{"cas_no": "670-80-4", "cn_name": "1-\u5417\u5549\u57fa-1-\u73af\u5df1\u70ef", "en_name": ["1-Morpholinocyclohexene", "Morpholine, 4-(1-cyclohexen-1-yl)-", "4-(1-Cyclohexen-1-yl)morpholine", "1-Morpholino-1-cyclohexene", "Cyclohexanone morpholine enamine", "1-Morpholinocyclohexene", "4-(1-Cyclohexenyl)morpholine", "1-(N-Morpholino)cyclohexene", "N-Morpholino-1-cyclohexene", "N-Cyclohex-1-enylmorpholine", "1-(N-Morpholinyl)cyclohexene", "N-1\u2032-Cyclohexenylmorpholine", "2-Morpholino-1-cyclohexene", "1-(4-Morpholino)cyclohexene", "1-(Morpholin-4-yl)cyclohexene", "1-(4-Morpholino)-1-cyclohexene", "NSC 42450", "N-(1-Cyclohexen-1-yl)morpholine", "1-(Morpholin-4-yl)cyclohex-1-ene"], "SMILES": "C=1(CCCCC1)N2CCOCC2", "physical_data": {"Molecular Weight": "167.25", "Molecular Formula": "C10H17NO", "Boiling Point": "117-120 \u00b0C @ Press: 10 Torr"}}