{"cas_no": "670-96-2", "cn_name": "2-\u82ef\u57fa\u54aa\u5511", "en_name": ["2-Phenylimidazole", "1H-Imidazole, 2-phenyl-", "Imidazole, 2-phenyl-", "2-Phenyl-1H-imidazole", "2-Phenylimidazole", "Curezol 2PZ", "2PZ", "NSC 255226", "2PZ-PW", "Curezol 2PZ-S", "Curezol 2PZ-PW", "Curesol 2PZ", "803A"], "SMILES": "C=1(NC=CN1)C2=CC=CC=C2", "physical_data": {"Molecular Weight": "144.17", "Molecular Formula": "C9H8N2", "Boiling Point": "340 \u00b0C", "Melting Point": "149.3 \u00b0C"}}