{"cas_no": "670-54-2", "cn_name": "\u56db\u6c30\u57fa\u4e59\u70ef", "en_name": ["Tetracyanoethylene", "1,1,2,2-Ethenetetracarbonitrile", "Ethenetetracarbonitrile", "\u03942,2\u2032-Bimalononitrile", "TCNE", "Tetracyanoethylene", "Ethene, tetracyano-", "Ethylenetetracarbonitrile", "Tetracyanoethene", "1,1,2,2-Tetracyanoethene", "1,1,2,2-Tetracyanoethylene", "NSC 24833"], "SMILES": "C(=C(C#N)C#N)(C#N)C#N", "physical_data": {"Molecular Weight": "128.09", "Molecular Formula": "C6N4", "Boiling Point": "223 \u00b0C", "Melting Point": "199 \u00b0C", "Density": "1.313 g/cm\u00b3"}}