{"cas_no": "67004-64-2", "cn_name": "N-\u7532\u57fa-2-(2-\u7f9f\u4e59\u57fa)\u5421\u54af\u70f7", "en_name": ["1-Methyl-2-pyrrolidineethanol", "2-Pyrrolidineethanol, 1-methyl-", "1-Methyl-2-pyrrolidineethanol", "2-(2-Hydroxyethyl)-1-methylpyrrolidine", "2-(2-Hydroxyethyl)-N-methylpyrrolidine", "2-[N-Methylpyrrolidin-2-yl]ethanol", "N-Methyl-2-(2-hydroxyethyl)pyrrolidine", "2-(1-Methylpyrrolidin-2-yl)ethanol", "N-Methyl-2-pyrrolidineethanol", "2-(1-Methylpyrrolidin-2-yl)ethan-1-ol"], "SMILES": "C(CO)C1N(C)CCC1", "physical_data": {"Molecular Weight": "129.20", "Molecular Formula": "C7H15NO", "Boiling Point": "110-112 \u00b0C @ Press: 14 Torr"}}