{"cas_no": "6701-13-9", "cn_name": "2-\u7532\u57fa-2-\u4e19\u70ef\u9178-1,10-\u7678\u4e8c\u916f", "en_name": ["Decanediol dimethacrylate", "2-Propenoic acid, 2-methyl-, 1,1\u2032-(1,10-decanediyl) ester", "Methacrylic acid, decamethylene ester", "2-Propenoic acid, 2-methyl-, 1,10-decanediyl ester", "1,10-Decanediol, dimethacrylate", "1,1\u2032-(1,10-Decanediyl) bis(2-methyl-2-propenoate)", "1,10-Bis(methacryloyloxy)decane", "Decamethylene dimethacrylate", "Decamethylene glycol dimethacrylate", "Decamethylene methacrylate", "DMM 10", "1,10-Decamethylene glycol dimethacrylate", "1,10-Decamethylene dimethacrylate", "NK Ester DOD-N", "Decanediol dimethacrylate", "D3MA", "DOD-N"], "SMILES": "O(C(C(C)=C)=O)CCCCCCCCCCOC(C(C)=C)=O", "physical_data": {"Molecular Weight": "310.43", "Molecular Formula": "C18H30O4", "Boiling Point": "185-186 \u00b0C @ Press: 0.8 Torr"}}