{"cas_no": "67028-40-4", "cn_name": "\u4e59\u9178-(4-\u7532\u57fa\u82ef\u6c27\u57fa)\u4e59\u916f", "en_name": ["Ethyl 2-(4-methylphenoxy)acetate", "Acetic acid, 2-(4-methylphenoxy)-, ethyl ester", "Acetic acid, (4-methylphenoxy)-, ethyl ester", "Acetic acid, p-tolyloxy-, ethyl ester", "Ethyl 2-(4-methylphenoxy)acetate", "Ethyl 4-methylphenoxyacetate", "p-Tolyloxyacetic acid ethyl ester", "(4-Methylphenoxy) Acetic Acid Ethyl Ester", "Ethyl 2-(p-tolyloxy)acetate"], "SMILES": "O(CC(OCC)=O)C1=CC=C(C)C=C1", "physical_data": {"Molecular Weight": "194.23", "Molecular Formula": "C11H14O3", "Boiling Point": "142-143 \u00b0C @ Press: 11 Torr"}}