{"cas_no": "67035-22-7", "cn_name": "4 - (2\u785d\u57fa\u82ef\u57fa)-2,6 -\u4e8c\u7532\u57fa\u5421\u5576-3,5\u4e8c\u7fa7\u9178\u4e8c\u7532\u916f", "en_name": ["Dehydronifedipine", "3,5-Pyridinedicarboxylic acid, 2,6-dimethyl-4-(2-nitrophenyl)-, 3,5-dimethyl ester", "3,5-Pyridinedicarboxylic acid, 2,6-dimethyl-4-(2-nitrophenyl)-, dimethyl ester", "Dimethyl 2,6-dimethyl-4-(2-nitrophenyl)-3,5-pyridinedicarboxylate", "B 4759", "Dehydronifedipine", "BAY-b 4759"], "SMILES": "C(OC)(=O)C=1C(=C(C(OC)=O)C(C)=NC1C)C2=C(N(=O)=O)C=CC=C2", "physical_data": {"Molecular Weight": "344.32", "Molecular Formula": "C17H16N2O6", "Melting Point": "104-105 \u00b0C"}}