{"cas_no": "67037-37-0", "cn_name": "\u4f9d\u6c1f\u9e1f\u6c28\u9178", "en_name": ["Eflornithine", "Ornithine, 2-(difluoromethyl)-", "2-(Difluoromethyl)ornithine", "\u03b1-(Difluoromethyl)ornithine", "\u03b1,\u03b4-Diamino-\u03b1-(difluoromethyl)valeric acid", "DFMO", "DL-\u03b1-(Difluoromethyl)ornithine", "RMI 71782", "DL-2-(Difluoromethyl)ornithine", "2-(Difluoromethyl)-DL-ornithine", "Eflornithine", "MDL 71782", "Ornidyl", "\u03b1-(Difluoromethyl)-DL-ornithine", "DFMO (growth regulator)", "MDL 71782A", "RFI 71782", "Elfornithine", "Difluromethylornithine", "2,5-Diamino-2-(difluoromethyl)pentanoic acid", "MeSH ID: D000518"], "SMILES": "C(CCCN)(C(F)F)(C(O)=O)N", "physical_data": {"Molecular Weight": "182.17", "Molecular Formula": "C6H12F2N2O2", "Melting Point": "138 \u00b0C"}}