{"cas_no": "6704-31-0", "cn_name": "3-\u6c27\u6742\u73af\u4e01\u916e", "en_name": ["3-Oxetanone", "3-Oxetanone", "2-Propanone, 1,3-epoxy-", "Oxetan-3-one"], "SMILES": "O=C1COC1", "physical_data": {"Molecular Weight": "72.06", "Molecular Formula": "C3H4O2", "Boiling Point": "58-60 \u00b0C @ Press: 150 Torr"}}