{"cas_no": "6704-40-1", "cn_name": "2-\u7f9f\u57fa-3-\u8418\u7532\u9178-2-\u6c2f\u82ef\u80fa", "en_name": ["N-(2-Chlorophenyl)-3-hydroxy-2-naphthalenecarboxamide", "2-Naphthalenecarboxamide, N-(2-chlorophenyl)-3-hydroxy-", "2-Naphthanilide, 2\u2032-chloro-3-hydroxy-", "N-(2-Chlorophenyl)-3-hydroxy-2-naphthalenecarboxamide", "2\u2032-Chloro-3-hydroxy-2-naphthanilide", "2-Hydroxy-3-naphthoic acid o-chloroanilide", "3-Hydroxy-2-naphthoic acid o-chloroanilide"], "SMILES": "C(NC1=C(Cl)C=CC=C1)(=O)C2=CC3=C(C=C2O)C=CC=C3", "physical_data": {"Molecular Weight": "297.74", "Molecular Formula": "C17H12ClNO2", "Melting Point": "214-216 \u00b0C"}}