{"cas_no": "6705-33-5", "cn_name": "2-\u7f9f\u7532\u57fa\u5421\u55ea", "en_name": ["2-Pyrazinemethanol", "2-Pyrazinemethanol", "Pyrazinemethanol", "2-(Hydroxymethyl)pyrazine", "(Hydroxymethyl)pyrazine", "Pyrazin-2-ylmethanol"], "SMILES": "C(O)C=1C=NC=CN1", "physical_data": {"Molecular Weight": "110.11", "Molecular Formula": "C5H6N2O", "Boiling Point": "64-66 \u00b0C @ Press: 0.3 Torr"}}