{"cas_no": "6705-49-3", "cn_name": "2,3-\u73af\u6c27-1-\u73af\u5df1\u916e", "en_name": ["7-Oxabicyclo[4.1.0]heptan-2-one", "7-Oxabicyclo[4.1.0]heptan-2-one", "Cyclohexanone, 2,3-epoxy-", "2,3-Epoxycyclohexanone", "2-Cyclohexenone oxide", "2,3-Epoxy-1-cyclohexanone", "2-Cyclohexen-1-one epoxide", "NSC 316062", "1,2-Epoxycyclohexan-3-one"], "SMILES": "O=C1C2C(O2)CCC1", "physical_data": {"Molecular Weight": "112.13", "Molecular Formula": "C6H8O2", "Boiling Point": "75-78 \u00b0C @ Press: 10 Torr", "Melting Point": "56 \u00b0C"}}