{"cas_no": "6706-59-8", "cn_name": "L-\u5c71\u68a8\u7cd6\u9187", "en_name": ["L-Sorbitol", "L-Glucitol", "Glucitol, L-", "D-Gulitol", "L-Sorbitol", "(2R,3S,4S,5S)-Hexane-1,2,3,4,5,6-hexol"], "SMILES": "C(C(C(CO)O)O)(C(CO)O)O", "physical_data": {"Molecular Weight": "182.17", "Molecular Formula": "C6H14O6", "Melting Point": "89-91 \u00b0C"}}