{"cas_no": "6707-60-4", "cn_name": "12-\u5341\u516d\u6c27\u6742\u5185\u916f", "en_name": ["1,6-Dioxacycloheptadecan-7-one", "1,6-Dioxacycloheptadecan-7-one", "Undecanoic acid, 11-(4-hydroxybutoxy)-, \u03bf-lactone", "12-Oxa-1,16-hexadecanolide", "Cervolide", "Musk 781", "NSC 34741", "12-Oxahexadecanolide"], "SMILES": "O=C1CCCCCCCCCCOCCCCO1", "physical_data": {"Molecular Weight": "256.38", "Molecular Formula": "C15H28O3", "Boiling Point": "143 \u00b0C @ Press: 3 Torr", "Density": "0.9829 g/cm\u00b3 @ Temp: 420 \u00b0C"}}