{"cas_no": "67085-11-4", "cn_name": "1-[4-(4-\u6c2f\u82ef\u57fa)-2-\u7f9f\u57fa\u6b63\u4e01\u57fa]\u54aa\u5511", "en_name": ["\u03b1-[2-(4-Chlorophenyl)ethyl]-1H-imidazole-1-ethanol", "1H-Imidazole-1-ethanol, \u03b1-[2-(4-chlorophenyl)ethyl]-", "\u03b1-[2-(4-Chlorophenyl)ethyl]-1H-imidazole-1-ethanol", "1-[4-(4-Chlorophenyl)-2-hydroxylbutyl]imidazole"], "SMILES": "C(C(CCC1=CC=C(Cl)C=C1)O)N2C=CN=C2", "physical_data": {"Molecular Weight": "250.72", "Molecular Formula": "C13H15ClN2O", "Melting Point": "106-109 \u00b0C"}}