{"cas_no": "67083-28-7", "cn_name": "2,6-\u4e8c\u7532\u57fa-3-\u785d\u57fa\u82ef\u80fa", "en_name": ["2,6-Dimethyl-3-nitrobenzenamine", "Benzenamine, 2,6-dimethyl-3-nitro-", "2,6-Dimethyl-3-nitrobenzenamine", "3-Nitro-2,6-xylidine", "2,6-Dimethyl-3-nitroaniline", "3-Nitro-2,6-dimethylaniline", "NSC 44282", "(2,6-Dimethyl-3-nitrophenyl)amine"], "SMILES": "N(=O)(=O)C1=C(C)C(N)=C(C)C=C1", "physical_data": {"Molecular Weight": "166.18", "Molecular Formula": "C8H10N2O2", "Melting Point": "80-81 \u00b0C"}}