{"cas_no": "671-95-4", "cn_name": "\u6c2f\u975e\u90a3\u80fa", "en_name": ["Clofenamide", "1,3-Benzenedisulfonamide, 4-chloro-", "m-Benzenedisulfonamide, 4-chloro-", "4-Chloro-1,3-benzenedisulfonamide", "Aponiere", "Aquedux", "4-Chloro-m-benzenedisulfonamide", "Clofenamide", "Haflutan", "4-Chlorobenzene-1,3-disulfonamide", "Monochlorphenamide", "Saltron", "Salco", "Soluran", "Clofenamidum", "Diuretic 2822", "Eleklin", "Frictan", "Salzen", "Indigatin", "Macashi", "Diumide", "DS (pharmaceutical)"], "SMILES": "S(N)(=O)(=O)C1=CC(S(N)(=O)=O)=CC=C1Cl", "physical_data": {"Molecular Weight": "270.71", "Molecular Formula": "C6H7ClN2O4S2", "Melting Point": "207 \u00b0C"}}