{"cas_no": "671-89-6", "cn_name": "4-\u6c28\u57fa-6-\u6c2f-1,3-\u82ef\u4e8c\u78fa\u9170\u6c2f", "en_name": ["4-Amino-6-chloro-1,3-benzenedisulfonyl dichloride", "1,3-Benzenedisulfonyl dichloride, 4-amino-6-chloro-", "m-Benzenedisulfonyl chloride, 4-amino-6-chloro-", "4-Amino-6-chloro-1,3-benzenedisulfonyl dichloride", "5-Chloroaniline-2,4-disulfonyl dichloride", "4-Amino-6-chloro-1,3-benzenedisulfonyl chloride", "5-Chloro-2,4-dichlorosulfonylaniline"], "SMILES": "S(Cl)(=O)(=O)C1=CC(S(Cl)(=O)=O)=C(N)C=C1Cl", "physical_data": {"Molecular Weight": "324.59", "Molecular Formula": "C6H4Cl3NO4S2", "Melting Point": "130-132 \u00b0C"}}