{"cas_no": "671-42-1", "cn_name": "DL-\u6c28\u57fa\u5df1\u5185\u9170\u80fa", "en_name": ["3-Aminoazepan-2-one", "2H-Azepin-2-one, 3-aminohexahydro-", "3-Aminohexahydro-2H-azepin-2-one", "\u03b1-Amino-\u03b5-caprolactam", "3-Amino-1-azacycloheptan-2-one", "\u03b1-Aminocaprolactam", "3-Aminoperhydro-2-azepinone", "3-Amino-\u03b5-caprolactam", "DL-\u03b1-Amino-\u03b5-caprolactam", "DL-\u03b1-Aminocaprolactam", "(\u00b1)-\u03b1-Amino-\u03b5-caprolactam", "(\u00b1)-\u03b1-Aminocaprolactam", "dl-\u03b1-Amino-\u03b5-caprolactam", "3-Amino-2-oxohomopiperidine", "NSC 522223", "3-Aminoazepan-2-one", "2-Oxoazepan-3-amine"], "SMILES": "NC1C(=O)NCCCC1", "physical_data": {"Molecular Weight": "128.17", "Molecular Formula": "C6H12N2O", "Boiling Point": "165-168 \u00b0C @ Press: 12 Torr", "Melting Point": "68-69 \u00b0C"}}