{"cas_no": "671-35-2", "cn_name": "4-\u7f9f\u57fa-5-\u6c1f\u5627\u5576", "en_name": ["5-Fluoro-4(3H)-pyrimidinone", "4(3H)-Pyrimidinone, 5-fluoro-", "4(1H)-Pyrimidinone, 5-fluoro-", "4-Pyrimidinol, 5-fluoro-", "5-Fluoro-4(3H)-pyrimidinone", "4-Hydroxy-5-fluoropyrimidine", "5-Fluoro-4-hydroxypyrimidine", "Fluoxydine", "5-Fluoro-4-pyrimidinol", "Fluoxidine", "NSC 529068", "Fluoxydin", "5-Fluoropyrimidin-4(3H)-one"], "SMILES": "FC=1C(=O)NC=NC1", "physical_data": {"Molecular Weight": "114.08", "Molecular Formula": "C4H3FN2O", "Melting Point": "204-205 \u00b0C"}}