{"cas_no": "6711-48-4", "cn_name": "3,3'-\u4e9a\u80fa\u57fa\u53cc(N,N-\u4e8c\u7532\u57fa\u4e19\u80fa)", "en_name": ["3,3\u2032-Iminobis(N,N-dimethylpropylamine)", "1,3-Propanediamine, N3-[3-(dimethylamino)propyl]-N1,N1-dimethyl-", "Dipropylamine, 3,3\u2032-bis(dimethylamino)-", "1,3-Propanediamine, N\u2032-[3-(dimethylamino)propyl]-N,N-dimethyl-", "N3-[3-(Dimethylamino)propyl]-N1,N1-dimethyl-1,3-propanediamine", "2,6,10-Triazaundecane, 2,10-dimethyl-", "Bis[3-(dimethylamino)propyl]amine", "3,3\u2032-Iminobis(N,N-dimethylpropylamine)", "2,10-Dimethyl-2,6,10-triazaundecane", "N\u2032-[3-(Dimethylamino)propyl]-N,N-dimethyl-1,3-propanediamine", "Tetramethyldipropylenetriamine", "Polycat 70/15", "Polycat 15", "1,1,9,9-Tetramethyl-1,5,9-triazanonane", "N,N,N\u2032,N\u2032-Tetramethyliminobispropylamine", "N,N-Bis[3-(dimethylamino)propyl]amine", "3\u2032-Iminobis(N,N-dimethylpropylamine)", "NSC 129937", "Jeffcat Z 130", "Z 130", "Polycat 9", "N-(3-Dimethylaminopropyl)-N\u2032,N\u2032-dimethylpropane-1,3-diamine", "Zeffcat Z 130", "N,N,N\u2032\u2032,N\u2032\u2032-Tetramethyldipropylenetriamine", "CT 18L", "ZR 50B", "PC 9", "N,N,N\u2032,N\u2032-Tetramethyldipropylenetriamine", "PC 15", "(3-[[3-(Dimethylamino)propyl]amino]propyl)dimethylamine", "TMDPT"], "SMILES": "C(CN(C)C)CNCCCN(C)C", "physical_data": {"Molecular Weight": "187.33", "Molecular Formula": "C10H25N3", "Boiling Point": "128-131 \u00b0C @ Press: 20 Torr"}}