{"cas_no": "6712-98-7", "cn_name": "\u4e8c\u4e59\u9187\u5355\u5f02\u4e19\u9187\u80fa", "en_name": ["Diethanolisopropanolamine", "2-Propanol, 1-[bis(2-hydroxyethyl)amino]-", "1-[Bis(2-hydroxyethyl)amino]-2-propanol", "Ethanol, 2,2\u2032-[(2-hydroxypropyl)imino]bis-", "N,N-Bis(2-hydroxyethyl)-2-propanolamine", "N-(2-Hydroxypropyl)diethanolamine", "NSC 30493", "1-[N,N-Bis(2-hydroxyethyl)amino]-2-propanol", "Diethanolisopropanolamine", "Diethanol monoisopropanolamine", "Dihydroxyethyl-monoisopropanolamine", "2,2\u2032-((2-Hydroxypropyl)azanediyl)diethanol"], "SMILES": "N(CC(C)O)(CCO)CCO", "physical_data": {"Molecular Weight": "163.21", "Molecular Formula": "C7H17NO3", "Boiling Point": "145 \u00b0C @ Press: 0.6 Torr", "Melting Point": "30.6 \u00b0C", "Density": "1.079 g/cm\u00b3 @ Temp: 25 \u00b0C"}}