{"cas_no": "67120-39-2", "cn_name": "1-\u6c28\u57fa-5-\u6c2f\u831a\u6ee1", "en_name": ["1-Amino-5-chloroindane", "1H-Inden-1-amine, 5-chloro-2,3-dihydro-", "1-Indanamine, 5-chloro-", "5-Chloro-2,3-dihydro-1H-inden-1-amine", "5-Chloro-1-aminoindan", "1-Amino-5-chloroindan", "(5-Chloro-2,3-dihydro-1H-inden-1-yl)amine", "(5-Chloroindan-1-yl)amine", "1-Amino-5-chloroindane", "5-Chloroindan-1-amine"], "SMILES": "NC1C=2C(CC1)=CC(Cl)=CC2", "physical_data": {"Molecular Weight": "167.64", "Molecular Formula": "C9H10ClN", "Boiling Point": "85 \u00b0C @ Press: 0.5 Torr"}}