{"cas_no": "67129-08-2", "cn_name": "\u5421\u5511\u8349\u80fa", "en_name": ["Metazachlor", "Acetamide, 2-chloro-N-(2,6-dimethylphenyl)-N-(1H-pyrazol-1-ylmethyl)-", "2-Chloro-N-(2,6-dimethylphenyl)-N-(1H-pyrazol-1-ylmethyl)acetamide", "BAS 479H", "BAS 47902H", "Metazachlor", "Butisan S", "Methazachlor", "Pree", "Butisan", "BAS 479", "Butisan 400SC", "Sultan"], "SMILES": "N(CN1C=CC=N1)(C(CCl)=O)C2=C(C)C=CC=C2C", "physical_data": {"Molecular Weight": "277.75", "Molecular Formula": "C14H16ClN3O", "Melting Point": "85 \u00b0C", "Density": "1.237-1.323 g/cm\u00b3 @ Temp: 25 \u00b0C"}}