{"cas_no": "67123-97-1", "cn_name": "(S)-1,2,3,4-\u56db\u6c22-3-\u5f02\u55b9\u5549\u7fa7\u9178", "en_name": ["1,2,3,4-Tetrahydroisoquinoline-3-carboxylic acid", "3-Isoquinolinecarboxylic acid, 1,2,3,4-tetrahydro-", "3-Isoquinolinecarboxylic acid, 1,2,3,4-tetrahydro-, (\u00b1)-", "1,2,3,4-Tetrahydro-3-isoquinolinecarboxylic acid", "DL-3-Carboxy-1,2,3,4-tetrahydroisoquinoline", "DL-1,2,3,4-Tetrahydroisoquinoline-3-carboxylic acid", "3-Carboxy-1,2,3,4-tetrahydroisoquinoline", "1,2,3,4-Tetrahydroisoquinoline-3-carboxylic acid", "NSC 14794"], "SMILES": "C(O)(=O)C1CC=2C(CN1)=CC=CC2", "physical_data": {"Molecular Weight": "177.20", "Molecular Formula": "C10H11NO2", "Melting Point": "311 \u00b0C"}}