{"cas_no": "6713-27-5", "cn_name": "MORONIC ACID", "en_name": ["Moronic acid", "Olean-18-en-28-oic acid, 3-oxo-", "3-Oxoolean-18-en-28-oic acid", "Moronic acid", "Ambronic acid", "(+)-Moronic acid"], "SMILES": "CC12C3(C)C(C=4C(C(O)=O)(CC3)CCC(C)(C)C4)CCC1C5(C)C(CC2)C(C)(C)C(=O)CC5", "physical_data": {"Molecular Weight": "454.68", "Molecular Formula": "C30H46O3", "Melting Point": "192-194 \u00b0C"}}