{"cas_no": "6713-03-7", "cn_name": "1-(2-\u786b\u4ee3\u7f9f\u4e59\u57fa)-2-\u4e19\u9187", "en_name": ["1-[(2-Hydroxyethyl)thio]-2-propanol", "2-Propanol, 1-[(2-hydroxyethyl)thio]-", "1-[(2-Hydroxyethyl)thio]-2-propanol", "1-(2-Hydroxyethylthio)-2-propanol", "SHP 100 (sulfide)", "SHP 100", "2-Hydroxyethyl 2-hydroxypropyl thioether", "1-[(2-Hydroxyethyl)sulfanyl]propan-2-ol", "2-Hydroxypropyl 2-hydroxyethyl sulfide"], "SMILES": "C(SCCO)C(C)O", "physical_data": {"Molecular Weight": "136.21", "Molecular Formula": "C5H12O2S", "Boiling Point": "154 \u00b0C @ Press: 8 Torr", "Density": "1.1281 g/cm\u00b3 @ Temp: 20 \u00b0C"}}