{"cas_no": "67191-93-9", "cn_name": "5-\u6c1f-2-\u7532\u57fa\u82ef\u57fa\u5f02\u6c30\u9178\u916f", "en_name": ["5-Fluoro-2-methylphenyl isocyanate", "Benzene, 4-fluoro-2-isocyanato-1-methyl-", "4-Fluoro-2-isocyanato-1-methylbenzene", "5-Fluoro-2-methylphenyl isocyanate", "1-Fluoro-3-isocyanato-4-methylbenzene"], "SMILES": "N(=C=O)C1=C(C)C=CC(F)=C1", "physical_data": {"Molecular Weight": "151.14", "Molecular Formula": "C8H6FNO", "Boiling Point": "74 \u00b0C @ Press: 14 Torr"}}