{"cas_no": "6719-21-7", "cn_name": "2-\u6c28\u57fa-2-\u6c30\u57fa\u4e59\u9170\u80fa", "en_name": ["2-Amino-2-cyanoacetamide", "Acetamide, 2-amino-2-cyano-", "2-Amino-2-cyanoacetamide", "\u03b1-Amino-\u03b1-cyanoacetamide", "Aminocyanacetamide", "Aminocyanoacetamide", "NSC 108868"], "SMILES": "C(C(N)=O)(C#N)N", "physical_data": {"Molecular Weight": "99.09", "Molecular Formula": "C3H5N3O", "Melting Point": "121 \u00b0C"}}