{"cas_no": "672-15-1", "cn_name": "L-\u9ad8\u4e1d\u6c28\u9178", "en_name": ["L-Homoserine", "L-Homoserine", "Butyric acid, 2-amino-4-hydroxy-, L-", "Homoserine", "Butanoic acid, 2-amino-4-hydroxy-, (S)-", "(S)-2-Amino-4-hydroxybutanoic acid", "(S)-Homoserine", "Butyric acid, 2-amino-4-hydroxy-", "2-Amino-4-hydroxybutanoic acid", "2-Amino-4-hydroxybutyric acid", "NSC 206251", "(2S)-2-Amino-4-hydroxybutanoic acid"], "SMILES": "C(CCO)(C(O)=O)N", "physical_data": {"Molecular Weight": "119.12", "Molecular Formula": "C4H9NO3", "Melting Point": "203 \u00b0C (decomp)"}}