{"cas_no": "672-75-3", "cn_name": "3-\u6eb4-4-\u6c1f\u82ef\u7532\u9170\u6c2f", "en_name": ["3-Bromo-4-fluorobenzoyl chloride", "Benzoyl chloride, 3-bromo-4-fluoro-", "3-Bromo-4-fluorobenzoyl chloride"], "SMILES": "C(Cl)(=O)C1=CC(Br)=C(F)C=C1", "physical_data": {"Molecular Weight": "237.45", "Molecular Formula": "C7H3BrClFO", "Melting Point": "43-45 \u00b0C"}}