{"cas_no": "672-87-7", "cn_name": "\u7532\u916a\u6c28\u9178", "en_name": ["Metyrosine", "L-Tyrosine, \u03b1-methyl-", "Tyrosine, \u03b1-methyl-, L-", "\u03b1-Methyl-L-tyrosine", "L-\u03b1-Methyltyrosine", "L-\u03b1-Methyl-p-tyrosine", "Metyrosine", "(S)-\u03b1-Methyltyrosine", "L(-)-Metyrosine", "Metirosine", "Demser", "L-Metyrosine", "MK 781", "L-\u03b1-MT", "(S)-2-(4-Hydroxybenzyl)-2-aminopropanoic acid", "(2S)-2-Amino-3-(4-hydroxyphenyl)-2-methylpropanoic acid"], "SMILES": "C(C(C(O)=O)(C)N)C1=CC=C(O)C=C1", "physical_data": {"Molecular Weight": "195.22", "Molecular Formula": "C10H13NO3", "Melting Point": "312.5 \u00b0C"}}