{"cas_no": "672-89-9", "cn_name": "4-\u7532\u6c27\u57fa-6-\u7532\u57fa-2H-\u5421\u5583\u916e", "en_name": ["4-Methoxy-6-methyl-2-pyrone", "2H-Pyran-2-one, 4-methoxy-6-methyl-", "Sorbic acid, 5-hydroxy-3-methoxy-, \u03b4-lactone", "4-Methoxy-6-methyl-2H-pyran-2-one", "Methyltriacetolactone", "6-Methyl-4-methoxy-2-pyrone", "4-Methoxy-6-methyl-2-pyrone", "4-Methoxy-6-methyl-2-pyranone", "Triacetic acid lactone methyl ether", "NSC 139216"], "SMILES": "O(C)C=1C=C(C)OC(=O)C1", "physical_data": {"Molecular Weight": "140.14", "Molecular Formula": "C7H8O3", "Melting Point": "88-89 \u00b0C"}}