{"cas_no": "672-13-9", "cn_name": "2-\u7f9f\u57fa-5-\u7532\u6c27\u57fa\u82ef\u7532\u919b", "en_name": ["2-Hydroxy-5-methoxybenzaldehyde", "Benzaldehyde, 2-hydroxy-5-methoxy-", "m-Anisaldehyde, 6-hydroxy-", "2-Hydroxy-5-methoxybenzaldehyde", "5-Methoxysalicylaldehyde", "2-Formyl-4-methoxyphenol", "5-Methoxy-2-hydroxybenzaldehyde", "4-Hydroxy-3-formylanisole", "NSC 30116", "3-Methoxy-6-hydroxybenzaldehyde"], "SMILES": "C(=O)C1=CC(OC)=CC=C1O", "physical_data": {"Molecular Weight": "152.15", "Molecular Formula": "C8H8O3", "Boiling Point": "247.5 \u00b0C", "Melting Point": "4 \u00b0C"}}