{"cas_no": "672-65-1", "cn_name": "1-\u6c2f-1-\u82ef\u4e59\u70f7", "en_name": ["1-Phenylethyl chloride", "Benzene, (1-chloroethyl)-", "Benzene, (\u03b1-chloroethyl)-", "(1-Chloroethyl)benzene", "\u03b1-Methylbenzyl chloride", "\u03b1-Phenylethyl chloride", "1-Phenylethyl chloride", "\u03b1-Phenethyl chloride", "1-Chloro-1-phenylethane", "(\u03b1-Chloroethyl)benzene", "1-Phenyl-1-chloroethane", "1-Phenethyl chloride", "\u03b1-Chloro-\u03b1-methyltoluene", "(\u00b1)-1-Phenylethyl chloride", "(RS)-Phenethyl chloride", "(\u00b1)-1-Chloro-1-phenylethane"], "SMILES": "C(C)(Cl)C1=CC=CC=C1", "physical_data": {"Molecular Weight": "140.61", "Molecular Formula": "C8H9Cl", "Boiling Point": "85 \u00b0C @ Press: 20 Torr", "Melting Point": "46-47 \u00b0C", "Density": "1.0631 g/cm\u00b3 @ Temp: 20 \u00b0C"}}