{"cas_no": "672-66-2", "cn_name": "\u4e8c\u7532\u57fa\u82ef\u57fa\u78f7", "en_name": ["Dimethylphenylphosphine", "Phosphine, dimethylphenyl-", "Dimethylphenylphosphine", "Phenyldimethylphosphine", "NSC 158474"], "SMILES": "P(C)(C)C1=CC=CC=C1", "physical_data": {"Molecular Weight": "138.15", "Molecular Formula": "C8H11P", "Boiling Point": "74-75 \u00b0C", "Melting Point": "102 \u00b0C", "Density": "0.967 g/cm\u00b3 @ Temp: 20 \u00b0C"}}