{"cas_no": "672-57-1", "cn_name": "4-\u6c2f-3-\u7898\u4e09\u6c1f\u7532\u82ef", "en_name": ["4-Chloro-3-iodobenzotrifluoride", "Benzene, 1-chloro-2-iodo-4-(trifluoromethyl)-", "Toluene, 4-chloro-\u03b1,\u03b1,\u03b1-trifluoro-3-iodo-", "1-Chloro-2-iodo-4-(trifluoromethyl)benzene", "1-Chloro-2-iodo-4-trifluoromethylbenzene", "2-Chloro-1-iodo-5-trifluoromethylbenzene", "NSC 89703", "4-Chloro-3-iodobenzotrifluoride"], "SMILES": "C(F)(F)(F)C1=CC(I)=C(Cl)C=C1", "physical_data": {"Molecular Weight": "306.45", "Molecular Formula": "C7H3ClF3I", "Boiling Point": "74-75 \u00b0C @ Press: 5 Torr"}}