{"cas_no": "6722-54-9", "cn_name": "1-(2-\u7532\u6c27\u57fa-2-\u82ef\u4e59\u57fa)\u54cc\u55ea", "en_name": ["1-(2-Methoxy-2-phenylethyl)piperazine", "Piperazine, 1-(2-methoxy-2-phenylethyl)-", "Piperazine, 1-(\u03b2-methoxyphenethyl)-", "1-(2-Methoxy-2-phenylethyl)piperazine"], "SMILES": "C(CN1CCNCC1)(OC)C2=CC=CC=C2", "physical_data": {"Molecular Weight": "220.31", "Molecular Formula": "C13H20N2O", "Boiling Point": "163 \u00b0C", "Melting Point": "11 \u00b0C"}}