{"cas_no": "67227-57-0", "cn_name": "\u7532\u78fa\u9178\u975e\u8bfa\u591a\u6cee", "en_name": ["Fenoldopam mesylate", "1H-3-Benzazepine-7,8-diol, 6-chloro-2,3,4,5-tetrahydro-1-(4-hydroxyphenyl)-, methanesulfonate (1:1)", "1H-3-Benzazepine-7,8-diol, 6-chloro-2,3,4,5-tetrahydro-1-(4-hydroxyphenyl)-, methanesulfonate (salt)", "SKF 82526J", "Fenoldopam mesylate", "Fenoldopam methanesulfonate", "Corlopam", "Fenoldopam monomethanesulfonate"], "SMILES": "S(C)(=O)(=O)O.ClC1=C2C(C(CNCC2)C3=CC=C(O)C=C3)=CC(O)=C1O", "physical_data": {"Molecular Weight": "", "Molecular Formula": "C16H16ClNO3.CH4O3S", "Melting Point": "274 \u00b0C (decomp)"}}