{"cas_no": "67242-60-8", "cn_name": "2-\u7532\u57fa\u5432\u54da-3-\u7532\u9170\u80fa", "en_name": ["2-Methyl-1H-indole-3-carboxamide", "1H-Indole-3-carboxamide, 2-methyl-", "2-Methyl-1H-indole-3-carboxamide", "2-Methyl-3-indolecarboxamide", "3-Carbamoyl-2-methylindole"], "SMILES": "C(N)(=O)C=1C=2C(NC1C)=CC=CC2", "physical_data": {"Molecular Weight": "174.20", "Molecular Formula": "C10H10N2O", "Melting Point": "218 \u00b0C"}}