{"cas_no": "67242-59-5", "cn_name": "N-\u7532\u57fa-N-(2-\u5421\u5576)\u7532\u9170\u80fa", "en_name": ["N-Methyl-N-2-pyridinylformamide", "Formamide, N-methyl-N-2-pyridinyl-", "N-Methyl-N-2-pyridinylformamide", "2-(N-Methyl-N-formylamino)pyridine", "N-Methyl-N-2-pyridylformamide"], "SMILES": "N(C=O)(C)C1=CC=CC=N1", "physical_data": {"Molecular Weight": "136.15", "Molecular Formula": "C7H8N2O", "Boiling Point": "71-72 \u00b0C @ Press: 0.05 Torr"}}