{"cas_no": "6724-53-4", "cn_name": "\u9a6c\u6765\u9178\u54cc\u514b\u6614\u6797", "en_name": ["Perhexiline maleate", "Piperidine, 2-(2,2-dicyclohexylethyl)-, (2Z)-2-butenedioate (1:1)", "Piperidine, 2-(2,2-dicyclohexylethyl)-, maleate (1:1)", "Piperidine, 2-(2,2-dicyclohexylethyl)-, (Z)-2-butenedioate (1:1)", "Piperidine, 2-(2,2-dicyclohexylethyl)-, maleate", "2-(2,2-Dicyclohexylethyl)piperidine maleate", "Perhexiline maleate", "Pexid", "Perhexilene maleate"], "SMILES": "C(=CC(O)=O)C(O)=O.C(CC1CCCCN1)(C2CCCCC2)C3CCCCC3", "physical_data": {"Molecular Weight": "", "Molecular Formula": "C19H35N.C4H4O4", "Melting Point": "188.5-191 \u00b0C"}}