{"cas_no": "67247-12-5", "cn_name": "BOC-MET-LEU-PHE-OH", "en_name": ["N-[(1,1-Dimethylethoxy)carbonyl]-L-methionyl-L-leucyl-L-phenylalanine", "L-Phenylalanine, N-[(1,1-dimethylethoxy)carbonyl]-L-methionyl-L-leucyl-", "L-Phenylalanine, N-[N-[N-[(1,1-dimethylethoxy)carbonyl]-L-methionyl]-L-leucyl]-", "N-[(1,1-Dimethylethoxy)carbonyl]-L-methionyl-L-leucyl-L-phenylalanine", "BOC-MLP"], "SMILES": "C(NC(C(NC(OC(C)(C)C)=O)CCSC)=O)(C(NC(CC1=CC=CC=C1)C(O)=O)=O)CC(C)C", "physical_data": {"Molecular Weight": "509.66", "Molecular Formula": "C25H39N3O6S", "Melting Point": "131-133 \u00b0C"}}