{"cas_no": "67253-30-9", "cn_name": "\u6c2f\u4e59\u9170\u57fa-L-\u5f02\u4eae\u6c28\u9178", "en_name": ["N-(2-Chloroacetyl)-L-isoleucine", "L-Isoleucine, N-(2-chloroacetyl)-", "L-Isoleucine, N-(chloroacetyl)-", "Isoleucine, N-(chloroacetyl)-", "N-(2-Chloroacetyl)-L-isoleucine", "N-Chloroacetyl-L-isoleucine"], "SMILES": "C(NC(CCl)=O)(C(CC)C)C(O)=O", "physical_data": {"Molecular Weight": "207.65", "Molecular Formula": "C8H14ClNO3", "Melting Point": "81 \u00b0C"}}