{"cas_no": "67279-24-7", "cn_name": "1,4-\u4e8c\u6c2f-5,6,7,8-\u56db\u6c22\u4e8c\u6c2e\u6742\u8418", "en_name": ["1,4-Dichloro-5,6,7,8-tetrahydrophthalazine", "Phthalazine, 1,4-dichloro-5,6,7,8-tetrahydro-", "1,4-Dichloro-5,6,7,8-tetrahydrophthalazine"], "SMILES": "ClC1=C2C(=C(Cl)N=N1)CCCC2", "physical_data": {"Molecular Weight": "203.07", "Molecular Formula": "C8H8Cl2N2", "Melting Point": "156 \u00b0C"}}