{"cas_no": "6728-31-0", "cn_name": "CIS-4-\u5e9a\u70ef\u9187", "en_name": ["(Z)-4-Heptenal", "4-Heptenal, (4Z)-", "4-Heptenal, (Z)-", "(4Z)-4-Heptenal", "cis-4-Heptenal", "4-cis-Heptenal", "(Z)-4-Heptenal", "(4Z)-Heptenal"], "SMILES": "C(CCC=O)=CCC", "physical_data": {"Molecular Weight": "112.17", "Molecular Formula": "C7H12O", "Boiling Point": "42 \u00b0C @ Press: 10 Torr"}}