{"cas_no": "67287-53-0", "cn_name": "6-\u6c2f-2,3,4,5-\u56db\u6c22-7,8-\u4e8c\u7532\u6c27\u57fa-1-(4-\u7532\u6c27\u57fa\u82ef\u57fa)-1H-3-\u82ef\u5e76\u6c2e\u6742\u5353", "en_name": ["6-Chloro-2,3,4,5-tetrahydro-7,8-dimethoxy-1-(4-methoxyphenyl)-1H-3-benzazepine", "1H-3-Benzazepine, 6-chloro-2,3,4,5-tetrahydro-7,8-dimethoxy-1-(4-methoxyphenyl)-", "6-Chloro-2,3,4,5-tetrahydro-7,8-dimethoxy-1-(4-methoxyphenyl)-1H-3-benzazepine", "2,3,4,5-Tetrahydro-6-chloro-7,8-dimethoxy-1-(4-methoxyphenyl)-3-benzazepine", "6-Chloro-7,8-dimethoxy-1-(4-methoxyphenyl)-2,3,4,5-tetrahydro-1H-benzo[d]azepine"], "SMILES": "ClC1=C2C(C(CNCC2)C3=CC=C(OC)C=C3)=CC(OC)=C1OC", "physical_data": {"Molecular Weight": "347.84", "Molecular Formula": "C19H22ClNO3", "Melting Point": "141-142 \u00b0C"}}