{"cas_no": "6728-26-3", "cn_name": "2-\u5df2\u70ef\u919b", "en_name": ["trans-2-Hexenal", "2-Hexenal, (2E)-", "2-Hexenal, (E)-", "Leaf aldehyde", "(2E)-2-Hexenal", "trans-2-Hexen-1-al", "(E)-2-Hexenal", "(E)-2-Hexen-1-al", "trans-2-Hexenal", "(2E)-Hexenal", "Green leaf aldehyde", "(E)-Hex-2-enal"], "SMILES": "C(CCC)=CC=O", "physical_data": {"Molecular Weight": "98.14", "Molecular Formula": "C6H10O", "Boiling Point": "146.5 \u00b0C"}}