{"cas_no": "673-49-4", "cn_name": "N-\u03a9-\u4e59\u9170\u57fa\u7ec4\u80fa", "en_name": ["Acetylhistamine", "Acetamide, N-[2-(1H-imidazol-5-yl)ethyl]-", "Acetamide, N-(2-imidazol-4-ylethyl)-", "Acetamide, N-[2-(1H-imidazol-4-yl)ethyl]-", "Acetamide, N-[2-imidazol-4(or 5)-ylethyl]-", "N-[2-(1H-Imidazol-5-yl)ethyl]acetamide", "Acetylhistamine", "N-Acetylhistamine", "N\u2032-Acetylhistamine", "NSC 66356", "N-Omega-acetylhistamine"], "SMILES": "C(CNC(C)=O)C1=CN=CN1", "physical_data": {"Molecular Weight": "153.18", "Molecular Formula": "C7H11N3O", "Melting Point": "143 \u00b0C"}}