{"cas_no": "673-84-7", "cn_name": "2,6-\u4e8c\u7532\u57fa-2,4,6-\u8f9b\u4e09\u70ef", "en_name": ["allo-Ocimene", "2,4,6-Octatriene, 2,6-dimethyl-", "Alloocimene", "2,6-Dimethyl-2,4,6-octatriene", "allo-Ocimene", "NSC 406263", "Allocymene"], "SMILES": "C(C=CC=C(C)C)(=CC)C", "physical_data": {"Molecular Weight": "136.23", "Molecular Formula": "C10H16", "Boiling Point": "112-113 \u00b0C", "Density": "0.8085 g/cm\u00b3 @ Temp: 25 \u00b0C"}}