{"cas_no": "673-66-5", "cn_name": "\u6c2e\u6742\u73af\u8f9b\u916e", "en_name": ["Enantholactam", "2(1H)-Azocinone, hexahydro-", "Hexahydro-2(1H)-azocinone", "Heptanoic acid, 7-amino-, lactam", "\u03c9-Enantholactam", "\u03b6-Enantholactam", "Enantholactam", "Oenantholactam", "7-Aminoheptanoic acid lactam", "Octahydroazocin-2-one", "7-Heptanelactam", "1-Aza-2-cyclooctanone", "Perhydro-2-azocinone", "2-Oxoheptamethyleneimine", "\u03c9-Heptanolactam", "3,4,5,6,7,8-Hexahydro-2(1H)-azocinone", "NSC 77088", "Azocan-2-one", "\u03c9-Heptalactam"], "SMILES": "O=C1CCCCCCN1", "physical_data": {"Molecular Weight": "127.18", "Molecular Formula": "C7H13NO", "Boiling Point": "148-150 \u00b0C", "Melting Point": "35-38 \u00b0C"}}