{"cas_no": "673-32-5", "cn_name": "1-\u82ef\u57fa-1-\u4e19\u7094", "en_name": ["Methylphenylacetylene", "Benzene, 1-propyn-1-yl-", "Benzene, (1-propynyl)-", "Benzene, 1-propynyl-", "Propyne, 1-phenyl-", "Propine, 1-phenyl-", "1-Propyn-1-ylbenzene", "1-Phenylpropyne", "Phenylmethylacetylene", "1-Phenyl-1-propyne", "Methylphenylacetylene", "1-Methyl-2-phenylacetylene", "1-Propynylbenzene", "Methylphenylethyne", "3-Phenyl-2-propyne", "(2-Methylethynyl)benzene"], "SMILES": "C(#CC)C1=CC=CC=C1", "physical_data": {"Molecular Weight": "116.16", "Molecular Formula": "C9H8", "Boiling Point": "183 \u00b0C", "Melting Point": "90 \u00b0C", "Density": "0.9409 g/cm\u00b3 @ Temp: 20 \u00b0C"}}