{"cas_no": "673-40-5", "cn_name": "4-\u6eb4\u787c\u9178\u91cd\u6c2e\u82ef\u56db\u6c1f\u787c\u9178\u76d0", "en_name": ["Benzenediazonium, 4-bromo-, tetrafluoroborate(1-) (1:1)", "Benzenediazonium, 4-bromo-, tetrafluoroborate(1-) (1:1)", "Benzenediazonium, p-bromo-, tetrafluoroborate(1-)", "Benzenediazonium, 4-bromo-, tetrafluoroborate(1-)", "p-Bromobenzenediazonium fluoborate", "Borate(1-), tetrafluoro-, p-bromobenzenediazonium", "Borate(1-), tetrafluoro-, 4-bromobenzenediazonium", "p-Bromobenzenediazonium tetrafluoroborate(1-)", "p-Bromobenzenediazonium fluoroborate", "p-Bromobenzenediazonium tetrafluoroborate", "p-Bromophenyldiazonium tetrafluoroborate", "4-Bromobenzenediazonium tetrafluoroborate", "4-Bromophenyldiazonium tetrafluoroborate", "p-Bromophenyldiazonium tetrafluoroborate(1-)"], "SMILES": "[B+3]([F-])([F-])([F-])[F-].[N+](#N)C1=CC=C(Br)C=C1", "physical_data": {"Molecular Weight": "", "Molecular Formula": "C6H4BrN2.BF4", "Melting Point": "113-115 \u00b0C (decomp)"}}