{"cas_no": "673-06-3", "cn_name": "D-\u82ef\u4e19\u6c28\u9178", "en_name": ["D-Phenylalanine", "D-Phenylalanine", "Alanine, phenyl-, D-", "D-\u03b1-Amino-\u03b2-phenylpropionic acid", "(R)-Phenylalanine", "(R)-(+)-Phenylalanine", "D-(+)-Phenylalanine", "NSC 25005", "Endorphenyl", "(R)-2-Amino-3-phenylpropionic acid", "(R)-3-Phenyl-2-aminopropanoic acid", "(\u03b1S)-\u03b1-Aminobenzeneethanol", "(2R)-2-Amino-3-phenyl-propanoic acid", "(2R)-2-Azaniumyl-3-phenylpropanoate"], "SMILES": "C(C(C(O)=O)N)C1=CC=CC=C1", "physical_data": {"Molecular Weight": "165.19", "Molecular Formula": "C9H11NO2", "Melting Point": "122 \u00b0C"}}