{"cas_no": "673-31-4", "cn_name": "\u82ef\u4e19\u6c28\u916f", "en_name": ["Phenprobamate", "Benzenepropanol, 1-carbamate", "1-Propanol, 3-phenyl-, carbamate", "Benzenepropanol, carbamate", "Carbamic acid, 3-phenylpropyl ester", "MH 532", "Phenprobamate", "3-Phenyl-1-propanol carbamate", "Proformiphen", "3-Phenylpropyl carbamate", "Extacol", "Palmita", "Spantol", "Eirenal", "Tranquil", "\u03b3-Phenylpropyl carbamate", "Gamaquil", "Ansepron", "Quamaquil", "NSC 44682", "NSC 50538", "NSC 64270"], "SMILES": "C(CCOC(N)=O)C1=CC=CC=C1", "physical_data": {"Molecular Weight": "179.22", "Molecular Formula": "C10H13NO2", "Melting Point": "102 \u00b0C"}}