{"cas_no": "673-22-3", "cn_name": "2-\u7f9f\u57fa-4-\u7532\u6c27\u57fa\u82ef\u7532\u919b", "en_name": ["2-Hydroxy-4-methoxybenzaldehyde", "Benzaldehyde, 2-hydroxy-4-methoxy-", "p-Anisaldehyde, 2-hydroxy-", "2-Hydroxy-4-methoxybenzaldehyde", "2-Hydroxy-p-anisaldehyde", "4-Methoxysalicylaldehyde", "o-Hydroxy-p-methoxybenzaldehyde", "2-Formyl-5-methoxyphenol", "NSC 155334", "4-Methoxy-6-hydroxybenzaldehyde", "2-Hydroxy-4-methoxybenazldehyde", "4-Methoxy-2-hydroxybenzaldehyde"], "SMILES": "O(C)C1=CC(O)=C(C=O)C=C1", "physical_data": {"Molecular Weight": "152.15", "Molecular Formula": "C8H8O3", "Boiling Point": "116-126 \u00b0C @ Press: 6 Torr", "Melting Point": "41 \u00b0C"}}