{"cas_no": "67306-00-7", "cn_name": "\u82ef\u9508\u5576", "en_name": ["Fenpropidin", "Piperidine, 1-[3-[4-(1,1-dimethylethyl)phenyl]-2-methylpropyl]-", "1-[3-[4-(1,1-Dimethylethyl)phenyl]-2-methylpropyl]piperidine", "Fenpropidine", "Fenpropidin", "F 3240", "Patrol", "Mildin"], "SMILES": "C(C(CN1CCCCC1)C)C2=CC=C(C(C)(C)C)C=C2", "physical_data": {"Molecular Weight": "273.46", "Molecular Formula": "C19H31N", "Boiling Point": "&gt;250 \u00b0C", "Melting Point": "&lt;25 \u00b0C"}}