{"cas_no": "6730-83-2", "cn_name": "\u5f02\u8d1d\u58f3\u6749\u70ef\u9178", "en_name": ["Kaurenoic acid", "Kaur-16-en-18-oic acid, (4\u03b1)-", "(4\u03b1)-Kaur-16-en-18-oic acid", "Kaurenoic acid", "(-)-Kauren-19-oic acid", "ent-Kaurenoic acid", "(-)-Kaur-16-en-19-oic acid", "Kaurenic acid", "Cunabic acid", "ent-Kaur-16(17)-en-19-oic acid", "ent-Kaur-16-en-19-oic acid", "NSC 339145", "Ent-kaur-16-en-19-oic acid"], "SMILES": "CC12C3C4(CC(CC3)C(=C)C4)CCC1C(C(O)=O)(C)CCC2", "physical_data": {"Molecular Weight": "302.45", "Molecular Formula": "C20H30O2", "Melting Point": "171-172 \u00b0C"}}