{"cas_no": "67314-36-7", "cn_name": "\u516d\u4e59\u9170\u57fa-D-\u7ea4\u7ef4\u4e8c\u7cd6\u70ef", "en_name": ["3,6,2\u2032,3\u2032,4\u2032,6\u2032-Hexa-O-acetyl-D-cellobial", "D-arabino-Hex-1-enitol, 1,5-anhydro-2-deoxy-4-O-(2,3,4,6-tetra-O-acetyl-\u03b2-D-glucopyranosyl)-, 3,6-diacetate", "D-arabino-Hex-1-enitol, 1,5-anhydro-2-deoxy-4-O-(2,3,4,6-tetra-O-acetyl-\u03b2-D-glucopyranosyl)-, diacetate", "Cellobial peracetate", "3,6,2\u2032,3\u2032,4\u2032,6\u2032-Hexa-O-acetyl-D-cellobial"], "SMILES": "O(C1C(OC(C)=O)C(OC(C)=O)C(OC(C)=O)C(COC(C)=O)O1)C2C(COC(C)=O)OC=CC2OC(C)=O", "physical_data": {"Molecular Weight": "560.50", "Molecular Formula": "C24H32O15", "Melting Point": "135-136 \u00b0C"}}