{"cas_no": "6731-36-8", "cn_name": "1,1-\u4e8c\u53d4\u4e01\u57fa\u8fc7\u6c27\u5316-3,3,5-\u4e09\u7532\u57fa\u73af\u5df1\u70f7", "en_name": ["1,1-Bis(tert-butylperoxy)-3,3,5-trimethylcyclohexane", "Peroxide, 1,1\u2032-(3,3,5-trimethylcyclohexylidene)bis[2-(1,1-dimethylethyl)", "Peroxide, (3,3,5-trimethylcyclohexylidene)bis[tert-butyl", "Peroxide, (3,3,5-trimethylcyclohexylidene)bis[(1,1-dimethylethyl)", "1,1\u2032-(3,3,5-Trimethylcyclohexylidene)bis[2-(1,1-dimethylethyl) peroxide]", "1,1-Di-tert-butylperoxy-3,5,5-trimethylcyclohexane", "3,3,5-Trimethyl-1,1-bis(tert-butylperoxy)cyclohexane", "1,1-Bis(tert-butylperoxy)-3,5,5-trimethylcyclohexane", "1,1-Bis(tert-butylperoxy)-3,3,5-trimethylcyclohexane", "Trigonox 29B50", "Lupersol 231", "Trigonox 29/40", "1,1-Bis(tert-butyldioxy)-3,3,5-trimethylcyclohexane", "gem-Bis(tert-butylperoxy)-3,3,5-trimethylcyclohexane", "Luperco 231XL", "1,1-Di-tert-butylperoxy-3,3,5-trimethylcyclohexane", "Trigonox 29B75", "gem-Di-tert-butylperoxy-3,3,5-trimethylcyclohexane", "Perhexa 3M", "Luperox 231", "Luperco 231G", "Trigonox 29", "Luperco 231XLP", "Varox 231XL", "Trigonox 29/40MB", "1,1-Bis(tert-butyl)-3,3,5-trimethylcyclohexane peroxide", "1,1-Di(t-butylperoxy)-3,3,5-trimethylcyclohexane", "Perhexa 3M40", "Trigonox 29C75", "Luperco 231G40", "Tx 29", "Trigonox 29B90", "Lupersol 230XL", "Luperox 231-50", "Interox TMCH 40IC", "Trigonox 29-40B-PD", "Luperox 231XL", "Lupersol L 231", "Trigonox 29A", "Sanperox CY 1.1", "TX 29B50", "Link-Cup TMCH", "Luperox 231XL40SP", "USP 495D", "Varox 231", "Varox 231XL40", "Luperox 231P75", "Perhexa 3M40V", "Trigonox 29-40B-GR", "TX 29/40", "1,1-Bis(tert-butyloxy-oxy)3,3,5-trimethylcyclohexane", "Irgacure 335", "1,2-tert-Butyl 3,3,5-trimethylcyclohexane peroxide", "1,1-Di(di-tert-butyl peroxy)-3,3,5-trimethylcyclohexane", "TMCH", "1,1-Bis(t-butylperoxy)-3,3,5-trimethylcyclohexane", "3M", "1,1-Bis(1,1-dimethylethylperoxy)-3,3,5-trimethylcyclohexane", "1,1,5-Trimethyl-3,3-bis(tert-butylperoxy)cyclohexane", "Trigonox 29E90", "Peroxan PK 295V", "Trigonox 29-40B-GR-E", "TM 40B", "TMCH 40", "CH 335"], "SMILES": "O(OC(C)(C)C)C1(OOC(C)(C)C)CC(C)(C)CC(C)C1", "physical_data": {"Molecular Weight": "302.45", "Molecular Formula": "C17H34O4", "Melting Point": "90 \u00b0C (decomp)"}}