{"cas_no": "6732-85-0", "cn_name": "1,3,5-\u4e09\u7f9f\u57fa\u5495\u5428\u916e", "en_name": ["1,3,5-Trihydroxyxanthone", "9H-Xanthen-9-one, 1,3,5-trihydroxy-", "Xanthen-9-one, 1,3,5-trihydroxy-", "1,3,5-Trihydroxy-9H-xanthen-9-one", "1,3,5-Trihydroxyxanthone", "1,3,5-Trihydroxyxanthen-9-one"], "SMILES": "O=C1C=2C(OC=3C1=CC=CC3O)=CC(O)=CC2O", "physical_data": {"Molecular Weight": "244.20", "Molecular Formula": "C13H8O5", "Melting Point": "255 \u00b0C"}}