{"cas_no": "6732-01-0", "cn_name": "\u90bb\u82ef\u4e8c\u7532\u9178\u80c6\u753e\u9187\u6c22\u916f", "en_name": ["Cholesteryl hydrogen phthalate", "Cholest-5-en-3-ol (3\u03b2)-, 3-(hydrogen 1,2-benzenedicarboxylate)", "Cholesterol, hydrogen phthalate", "Cholest-5-en-3-ol (3\u03b2)-, hydrogen 1,2-benzenedicarboxylate", "Phthalic acid, cholesteryl ester", "Cholesteryl hydrogen phthalate", "NSC 59691"], "SMILES": "CC12C3C(C4C(C)(CC3)C(C(CCCC(C)C)C)CC4)CC=C1CC(OC(=O)C5=C(C(O)=O)C=CC=C5)CC2", "physical_data": {"Molecular Weight": "534.77", "Molecular Formula": "C35H50O4", "Melting Point": "164 \u00b0C"}}