{"cas_no": "67329-11-7", "cn_name": "3,3'-\u4e8c\u6c2f\u7279\u620a\u9178", "en_name": ["3-Chloro-2-(chloromethyl)-2-methylpropanoic acid", "Propanoic acid, 3-chloro-2-(chloromethyl)-2-methyl-", "Propionic acid, 2,2-bis(chloromethyl)-", "3-Chloro-2-(chloromethyl)-2-methylpropanoic acid", "\u03b2,\u03b2\u2032-Dichloropivalic acid", "2,2-Bis(chloromethyl)propionic acid", "3,3\u2032-Dichloropivalic acid", "2,2-Bis(chloromethyl)propanoic acid"], "SMILES": "C(C(O)=O)(CCl)(CCl)C", "physical_data": {"Molecular Weight": "171.02", "Molecular Formula": "C5H8Cl2O2", "Melting Point": "71 \u00b0C"}}