{"cas_no": "67333-70-4", "cn_name": "(1S,2S)-(-)-1,2-\u73af\u5df1\u4e8c\u80fa D-\u9152\u77f3\u9178\u76d0", "en_name": ["1,2-Cyclohexanediamine, (1S,2S)-, (2S,3S)-2,3-dihydroxybutanedioate (1:1)", "1,2-Cyclohexanediamine, (1S,2S)-, (2S,3S)-2,3-dihydroxybutanedioate (1:1)", "1,2-Cyclohexanediamine, (1S-trans)-, [S-(R*,R*)]-2,3-dihydroxybutanedioate (1:1)", "(1S,2S)-1,2-Diaminocyclohexane D-tartaric acid salt"], "SMILES": "C(C(C(O)=O)O)(C(O)=O)O.NC1C(N)CCCC1", "physical_data": {"Molecular Weight": "", "Molecular Formula": "C6H14N2.C4H6O6", "Melting Point": "283-284 \u00b0C"}}