{"cas_no": "67346-49-0", "cn_name": "\u798f\u83ab\u7279\u7f57", "en_name": ["Arformoterol", "Formamide, N-[2-hydroxy-5-[(1R)-1-hydroxy-2-[[(1R)-2-(4-methoxyphenyl)-1-methylethyl]amino]ethyl]phenyl]-", "Formamide, N-[2-hydroxy-5-[1-hydroxy-2-[[2-(4-methoxyphenyl)-1-methylethyl]amino]ethyl]phenyl]-, [R-(R*,R*)]-", "N-[2-Hydroxy-5-[(1R)-1-hydroxy-2-[[(1R)-2-(4-methoxyphenyl)-1-methylethyl]amino]ethyl]phenyl]formamide", "(R,R)-Formoterol", "(-)-Formoterol", "Arformoterol", "(R,R)-Formoterol"], "SMILES": "C(CNC(CC1=CC=C(OC)C=C1)C)(O)C2=CC(NC=O)=C(O)C=C2", "physical_data": {"Molecular Weight": "344.40", "Molecular Formula": "C19H24N2O4", "Melting Point": "73-75 \u00b0C"}}