{"cas_no": "6734-33-4", "cn_name": "4-\u7532\u57fa\u4f1e\u5f62\u916e\u9170-\u0392-D-\u5421\u5583\u6728\u7cd6\u82f7", "en_name": ["4-Methylumbelliferyl \u03b2-D-xyloside", "2H-1-Benzopyran-2-one, 4-methyl-7-(\u03b2-D-xylopyranosyloxy)-", "Coumarin, 4-methyl-7-(\u03b2-D-xylopyranosyloxy)-", "4-Methyl-7-(\u03b2-D-xylopyranosyloxy)-2H-1-benzopyran-2-one", "4-Methylumbelliferyl \u03b2-D-xyloside", "4-Methylumbelliferyl \u03b2-D-xylopyranoside", "4-Methylumbelliferone-\u03b2-D-xyloside"], "SMILES": "CC=1C=2C(=CC(OC3C(O)C(O)C(O)CO3)=CC2)OC(=O)C1", "physical_data": {"Molecular Weight": "308.28", "Molecular Formula": "C15H16O7", "Melting Point": "213-214 \u00b0C"}}