{"cas_no": "6736-85-2", "cn_name": "\u6893\u82f7", "en_name": ["Catalposide", "\u03b2-D-Glucopyranoside, (1aS,1bS,2S,5aR,6S,6aS)-1a,1b,2,5a,6,6a-hexahydro-6-[(4-hydroxybenzoyl)oxy]-1a-(hydroxymethyl)oxireno[4,5]cyclopenta[1,2-c]pyran-2-yl", "Catalposide", "\u03b2-D-Glucopyranoside, 1a,1b,2,5a,6,6a-hexahydro-6-[(4-hydroxybenzoyl)oxy]-1a-(hydroxymethyl)oxireno[4,5]cyclopenta[1,2-c]pyran-2-yl, [1aS-(1a\u03b1,1b\u03b2,2\u03b2,5a\u03b2,6\u03b2,6a\u03b1)]-", "Oxireno[4,5]cyclopenta[1,2-c]pyran, \u03b2-D-glucopyranoside deriv.", "(1aS,1bS,2S,5aR,6S,6aS)-1a,1b,2,5a,6,6a-Hexahydro-6-[(4-hydroxybenzoyl)oxy]-1a-(hydroxymethyl)oxireno[4,5]cyclopenta[1,2-c]pyran-2-yl \u03b2-D-glucopyranoside", "(Hydroxybenzoyl)catalpol", "Catalpol 6-p-hydroxybenzoate"], "SMILES": "C(O)C12C3C(C(OC(=O)C4=CC=C(O)C=C4)C1O2)C=COC3OC5OC(CO)C(O)C(O)C5O", "physical_data": {"Molecular Weight": "482.43", "Molecular Formula": "C22H26O12", "Melting Point": "210-212 \u00b0C (decomp)"}}