{"cas_no": "67367-26-4", "cn_name": "METHYL 2-METHOXYNICOTINATE", "en_name": ["3-Pyridinecarboxylic acid, 2-methoxy-, methyl ester", "3-Pyridinecarboxylic acid, 2-methoxy-, methyl ester", "Methyl 2-methoxy-3-pyridinecarboxylate", "Methyl 2-methoxynicotinate"], "SMILES": "C(OC)(=O)C1=C(OC)N=CC=C1", "physical_data": {"Molecular Weight": "167.16", "Molecular Formula": "C8H9NO3", "Boiling Point": "114-115 \u00b0C @ Press: 12 Torr"}}