{"cas_no": "6737-42-4", "cn_name": "1,3-\u53cc(\u4e8c\u82ef\u57fa\u81a6)\u4e19\u70f7", "en_name": ["1,3-Bis(diphenylphosphino)propane", "Phosphine, 1,1\u2032-(1,3-propanediyl)bis[1,1-diphenyl-", "Phosphine, trimethylenebis[diphenyl-", "Phosphine, 1,3-propanediylbis[diphenyl-", "1,1\u2032-(1,3-Propanediyl)bis[1,1-diphenylphosphine]", "1,3-Bis(diphenylphosphino)propane", "1,3-Propanediylbis[diphenylphosphine]", "Trimethylenebis(diphenylphosphine)", "1,3-DPPP", "1,3-Bis(diphenylphosphine)propane", "1,3-Propylenebis(diphenylphosphine)", "DPPP", "DPPP (phosphine derivative)", "NSC 193753", "1,3-Bis(diphenylphosphanyl)propane", "3-Diphenylphosphanylpropyldiphenylphosphane"], "SMILES": "P(CCCP(C1=CC=CC=C1)C2=CC=CC=C2)(C3=CC=CC=C3)C4=CC=CC=C4", "physical_data": {"Molecular Weight": "412.44", "Molecular Formula": "C27H26P2", "Melting Point": "61-62 \u00b0C"}}