{"cas_no": "67375-30-8", "cn_name": "\u53f3\u65cb\u53cd\u5f0f\u82ef\u919a\u83ca\u916f", "en_name": ["\u03b1-Cypermethrin", "Cyclopropanecarboxylic acid, 3-(2,2-dichloroethenyl)-2,2-dimethyl-, (R)-cyano(3-phenoxyphenyl)methyl ester, (1S,3S)-rel-", "Alfoxylate", "Fastac", "WL 85871", "Alphamethrin", "Alphacypermethrin", "\u03b1-Cypermethrin", "Bestox", "(\u00b1)-Alphamethrin", "Cismix", "Aeralfam", "Ultimate", "Dominex", "Mageos", "Contest", "Fendona", "Alfazot", "Fastac Duo", "Centaur", "Alphaguard", "Fendona 65C", "Fastac 10EC", "Sentry (insecticide)", "Sentry", "BAS 310", "Fastac CS", "Dudu Alpha", "Fastac 100EC", "Fendona 60SC", "Astound Duo"], "SMILES": "C(OC(C#N)C1=CC(OC2=CC=CC=C2)=CC=C1)(=O)C3C(C=C(Cl)Cl)C3(C)C", "physical_data": {"Molecular Weight": "416.30", "Molecular Formula": "C22H19Cl2NO3", "Boiling Point": "200 \u00b0C @ Press: 0.07 Torr", "Melting Point": "78-81 \u00b0C", "Density": "1.28 g/cm\u00b3 @ Temp: 20 \u00b0C"}}