{"cas_no": "6738-04-1", "cn_name": "2-\u82ef\u6c27\u57fa\u8054\u82ef\u57fa", "en_name": ["2-Phenoxy-1,1\u2032-biphenyl", "1,1\u2032-Biphenyl, 2-phenoxy-", "Ether, 2-biphenylyl phenyl", "2-Phenoxy-1,1\u2032-biphenyl", "2-Biphenylyl phenyl ether", "o-Diphenyl phenyl ether", "(2-Phenyloxy)biphenyl", "o-Phenoxybiphenyl", "2-Phenoxybiphenyl", "NSC 66280", "1-Phenoxy-2-phenylbenzene"], "SMILES": "O(C1=C(C=CC=C1)C2=CC=CC=C2)C3=CC=CC=C3", "physical_data": {"Molecular Weight": "246.30", "Molecular Formula": "C18H14O", "Boiling Point": "200-201 \u00b0C", "Melting Point": "49.5 \u00b0C"}}