{"cas_no": "6738-23-4", "cn_name": "2,4-\u4e8c\u7532\u57fa-1-\u7532\u6c27\u57fa\u82ef", "en_name": ["2,4-Dimethylanisole", "Benzene, 1-methoxy-2,4-dimethyl-", "Anisole, 2,4-dimethyl-", "1-Methoxy-2,4-dimethylbenzene", "2,4-Dimethylanisole", "4-Methoxy-m-xylene", "4-Methoxy-1,3-dimethylbenzene", "NSC 137834", "2,4-Dimethylphenyl methyl ether"], "SMILES": "O(C)C1=C(C)C=C(C)C=C1", "physical_data": {"Molecular Weight": "136.19", "Molecular Formula": "C9H12O", "Boiling Point": "192 \u00b0C", "Melting Point": "165 \u00b0C", "Density": "0.974 g/cm\u00b3 @ Temp: 16 \u00b0C"}}