{"cas_no": "67392-87-4", "cn_name": "\u5c48\u87ba\u916e", "en_name": ["Drospirenone", "Spiro[17H-dicyclopropa[6,7:15,16]cyclopenta[a]phenanthrene-17,2\u2032(5\u2032H)-furan]-3,5\u2032(2H)-dione, 1,3\u2032,4\u2032,6,7,8,9,10,11,12,13,14,15,16,20,21-hexadecahydro-10,13-dimethyl-, (2\u2032S,6R,7R,8R,9S,10R,13S,14S,15S,16S)-", "Spiro[17H-dicyclopropa[6,7:15,16]cyclopenta[a]phenanthrene-17,2\u2032(5\u2032H)-furan]-3,5\u2032(2H)-dione, 1,3\u2032,4\u2032,6,7,8,9,10,11,12,13,14,15,16,20,21-hexadecahydro-10,13-dimethyl-, [6R-(6\u03b1,7\u03b1,8\u03b2,9\u03b1,10\u03b2,13\u03b2,14\u03b1,15\u03b1,16\u03b1,17\u03b2)]-", "(2\u2032S,6R,7R,8R,9S,10R,13S,14S,15S,16S)-1,3\u2032,4\u2032,6,7,8,9,10,11,12,13,14,15,16,20,21-Hexadecahydro-10,13-dimethylspiro[17H-dicyclopropa[6,7:15,16]cyclopenta[a]phenanthrene-17,2\u2032(5\u2032H)-furan]-3,5\u2032(2H)-dione", "1,2-Dihydrospirorenone", "Drospirenone", "Dihydrospirorenone", "ZK 30595", "3-Oxo-6\u03b2,7\u03b2:15\u03b2,16\u03b2-dimethylene-17\u03b1-pregn-4-en-21,17-carbolactone", "BRN 4765500", "CCRIS 6523", "Drospirenona", "6\u03b2,7\u03b2:15\u03b2,16\u03b2-Dimethylene-3-oxo-17\u03b1-pregn-4-ene-21,17-carbolactone", "17\u03b2-Hydroxy-6\u03b2,7\u03b2:15\u03b2,16\u03b2-dimethylene-3-oxo-17\u03b1-pregn-4-ene-21-carboxylic acid \u03b3-lactone"], "SMILES": "CC12C3(C4C(C1C5C(CC2)C6(C)C(C7C5C7)=CC(=O)CC6)C4)OC(=O)CC3", "physical_data": {"Molecular Weight": "366.49", "Molecular Formula": "C24H30O3", "Melting Point": "201.3 \u00b0C"}}