{"cas_no": "674-82-8", "cn_name": "\u53cc\u4e59\u70ef\u916e", "en_name": ["Diketene", "2-Oxetanone, 4-methylene-", "3-Butenoic acid, 3-hydroxy-, \u03b2-lactone", "Diketene", "Ethenone, dimer", "4-Methylene-2-oxetanone", "Ketene dimer", "NSC 93783"], "SMILES": "C=C1CC(=O)O1", "physical_data": {"Molecular Weight": "84.07", "Molecular Formula": "C4H4O2", "Boiling Point": "127.4 \u00b0C", "Melting Point": "-6.5 \u00b0C", "Density": "1.0897 g/cm\u00b3"}}