{"cas_no": "674-26-0", "cn_name": "\u7532\u74e6\u9f99\u9178\u5185\u916f", "en_name": ["(\u00b1)-Mevalonolactone", "2H-Pyran-2-one, tetrahydro-4-hydroxy-4-methyl-", "2H-Pyran-2-one, tetrahydro-4-hydroxy-4-methyl-, (\u00b1)-", "Tetrahydro-4-hydroxy-4-methyl-2H-pyran-2-one", "DL-Mevalonic acid lactone", "DL-Mevalonolactone", "(\u00b1)-Mevalolactone", "(RS)-Mevalonolactone", "(\u00b1)-Mevalonolactone", "DL-Mevalonic acid \u03b4-lactone", "\u03b2-Hydroxy-\u03b2-methyl-\u03b4-valerolactone", "Mevalolactone", "Mevalonic acid lactone", "Mevalonic acid \u03b4-lactone", "Mevalonic lactone", "Mevalonolactone", "MVSL", "NSC 90804"], "SMILES": "CC1(O)CC(=O)OCC1", "physical_data": {"Molecular Weight": "130.14", "Molecular Formula": "C6H10O3", "Boiling Point": "148-151 \u00b0C @ Press: 5 Torr", "Melting Point": "27-28 \u00b0C"}}