{"cas_no": "674-76-0", "cn_name": "1-\u4e01\u57fa\u73af\u5df1\u9187", "en_name": ["trans-4-Methyl-2-pentene", "2-Pentene, 4-methyl-, (2E)-", "2-Pentene, 4-methyl-, (E)-", "2-Pentene, 4-methyl-, trans-", "(2E)-4-Methyl-2-pentene", "trans-4-Methyl-2-pentene", "(E)-4-Methyl-2-pentene", "4-Methyl-trans-2-pentene", "trans-2-Methyl-3-pentene", "NSC 73914"], "SMILES": "C(C(C)C)=CC", "physical_data": {"Molecular Weight": "84.16", "Molecular Formula": "C6H12", "Boiling Point": "58.6 \u00b0C", "Melting Point": "-140.8 \u00b0C"}}