{"cas_no": "6740-86-9", "cn_name": "1-\u6eb4\u73af\u620a\u57fa-2-\u6c2f\u82ef\u57fa\u7532\u916e", "en_name": ["(1-Bromocyclopentyl)(2-chlorophenyl)methanone", "Methanone, (1-bromocyclopentyl)(2-chlorophenyl)-", "Ketone, 1-bromocyclopentyl o-chlorophenyl", "(1-Bromocyclopentyl)(2-chlorophenyl)methanone", "1-Bromocyclopentyl o-chlorophenyl ketone", "1-Bromocyclopentyl 2-chlorophenyl ketone"], "SMILES": "C(=O)(C1=C(Cl)C=CC=C1)C2(Br)CCCC2", "physical_data": {"Molecular Weight": "287.58", "Molecular Formula": "C12H12BrClO", "Boiling Point": "111-114 \u00b0C @ Press: 0.1 Torr"}}