{"cas_no": "6740-85-8", "cn_name": "\u90bb\u6c2f\u82ef\u57fa\u73af\u620a\u57fa\u916e", "en_name": ["(2-Chlorophenyl)cyclopentylmethanone", "Methanone, (2-chlorophenyl)cyclopentyl-", "Ketone, o-chlorophenyl cyclopentyl", "(2-Chlorophenyl)cyclopentylmethanone", "Cyclopentyl o-chlorophenyl ketone", "Cyclopentyl 2-chlorophenyl ketone", "2-Chlorophenyl cyclopentyl ketone", "(2-Chlorobenzoyl)cyclopentane", "(2-Chlorophenyl)(cyclopentyl)methanone"], "SMILES": "C(=O)(C1=C(Cl)C=CC=C1)C2CCCC2", "physical_data": {"Molecular Weight": "208.68", "Molecular Formula": "C12H13ClO", "Boiling Point": "96-97 \u00b0C @ Press: 0.3 Torr"}}