{"cas_no": "6740-87-0", "cn_name": "\u6c2f\u6c28\u916e\u76f8\u5173\u7269\u8d28A", "en_name": ["1-[(2-Chlorophenyl)(methylimino)methyl]cyclopentanol", "Cyclopentanol, 1-[(2-chlorophenyl)(methylimino)methyl]-", "Cyclopentanol, 1-(o-chloro-N-methylbenzimidoyl)-", "1-[(2-Chlorophenyl)(methylimino)methyl]cyclopentanol", "1-[(2-Chlorophenyl)(methylimino)methyl]cyclopentan-1-ol"], "SMILES": "C(=NC)(C1=C(Cl)C=CC=C1)C2(O)CCCC2", "physical_data": {"Molecular Weight": "237.73", "Molecular Formula": "C13H16ClNO", "Melting Point": "64-65 \u00b0C"}}