{"cas_no": "67416-61-9", "cn_name": "11-\u7fb0\u57fa-\u0392-\u4e59\u9170\u4e73\u9999\u9178", "en_name": ["Acetyl-11-keto-\u03b2-boswellic acid", "Urs-12-en-23-oic acid, 3-(acetyloxy)-11-oxo-, (3\u03b1,4\u03b2)-", "(3\u03b1,4\u03b2)-3-(Acetyloxy)-11-oxours-12-en-23-oic acid", "Acetyl-11-oxo-\u03b2-boswellic acid", "AKBA", "Acetyl-11-keto-\u03b2-boswellic acid", "3-Acetyl-11-keto-\u03b2-boswellic acid", "11-keto-\u03b2-boswellic acid acetate", "3\u03b1-Acetyl-11-keto-\u03b2-boswellic acid", "3-O-Acetyl-11-keto-\u03b2-boswellic acid", "3\u03b1-Acetoxy-11-oxo-12-ursen-24-oic acid", "Acetylketo-\u03b2-boswellic acid"], "SMILES": "CC12C(C3(C)C(CC1)C(C(O)=O)(C)C(OC(C)=O)CC3)C(=O)C=C4C2(C)CCC5(C)C4C(C)C(C)CC5", "physical_data": {"Molecular Weight": "512.72", "Molecular Formula": "C32H48O5", "Melting Point": "262-265 \u00b0C (decomp)"}}