{"cas_no": "6742-54-7", "cn_name": "\u5341\u4e00\u70f7\u57fa\u82ef", "en_name": ["Undecylbenzene", "Benzene, undecyl-", "Undecane, 1-phenyl-", "Undecylbenzene", "n-Undecylbenzene", "1-Phenylundecane", "NSC 251008"], "SMILES": "C(CCCCCCCCCC)C1=CC=CC=C1", "physical_data": {"Molecular Weight": "232.40", "Molecular Formula": "C17H28", "Boiling Point": "316 \u00b0C", "Melting Point": "-5 \u00b0C", "Density": "0.8553 g/cm\u00b3 @ Temp: 20 \u00b0C"}}