{"cas_no": "67446-07-5", "cn_name": "(Z)-5-\u7678\u70ef-1-\u9187\u4e59\u9178\u916f", "en_name": ["(Z)-5-Decenyl acetate", "5-Decen-1-ol, 1-acetate, (5Z)-", "5-Decen-1-ol, acetate, (Z)-", "5-Decen-1-ol, acetate, (5Z)-", "(Z)-5-Decenyl acetate", "cis-5-Decenyl acetate", "(Z)-5-Decen-1-ol acetate", "cis-5-Decen-1-ol acetate", "(Z)-5-Decen-1-yl acetate", "(5Z)-5-Decen-1-ol acetate"], "SMILES": "C(CCC=CCCCC)COC(C)=O", "physical_data": {"Molecular Weight": "198.30", "Molecular Formula": "C12H22O2", "Boiling Point": "100-101 \u00b0C @ Press: 7 Torr"}}