{"cas_no": "67442-07-3", "cn_name": "2-\u6c2f-\u6b63\u7532\u6c27\u57fa-\u6b63\u7532\u57fa\u4e59\u9170\u80fa", "en_name": ["2-Chloro-N-methoxy-N-methylacetamide", "Acetamide, 2-chloro-N-methoxy-N-methyl-", "2-Chloro-N-methoxy-N-methylacetamide", "N-Methoxy-N-methylchloroacetamide", "\u03b1-Chloro-N-methoxy-N-methylacetamide", "N-Methyl-N-methoxy-2-chloroacetamide"], "SMILES": "C(N(OC)C)(CCl)=O", "physical_data": {"Molecular Weight": "137.56", "Molecular Formula": "C4H8ClNO2", "Boiling Point": "85 \u00b0C @ Press: 6 mmHg", "Melting Point": "38.1-39.0 \u00b0C"}}