{"cas_no": "6745-75-1", "cn_name": "2,5-\u4e8c\u7532\u57fa\u5bf9\u8334\u9999\u919b", "en_name": ["4-Methoxy-2,5-dimethylbenzaldehyde", "Benzaldehyde, 4-methoxy-2,5-dimethyl-", "p-Anisaldehyde, 2,5-dimethyl-", "4-Methoxy-2,5-dimethylbenzaldehyde", "4-Methoxyisoxylaldehyde", "2,5-Dimethylanisaldehyde", "2,5-Dimethyl-4-methoxybenzaldehyde"], "SMILES": "C(=O)C1=C(C)C=C(OC)C(C)=C1", "physical_data": {"Molecular Weight": "164.20", "Molecular Formula": "C10H12O2", "Boiling Point": "147-149 \u00b0C @ Press: 12 Torr", "Melting Point": "34 \u00b0C"}}