{"cas_no": "67468-65-9", "cn_name": "4-\u82c4\u57fa-\u82ef\u7532\u919b", "en_name": ["4-(Phenylmethyl)benzaldehyde", "Benzaldehyde, 4-(phenylmethyl)-", "p-Tolualdehyde, \u03b1-phenyl-", "4-(Phenylmethyl)benzaldehyde", "p-Benzylbenzaldehyde", "4-Formyldiphenylmethane", "4-Benzylbenzaldehyde", "\u03b1-Phenyl-p-tolualdehyde"], "SMILES": "C(C1=CC=C(C=O)C=C1)C2=CC=CC=C2", "physical_data": {"Molecular Weight": "196.24", "Molecular Formula": "C14H12O", "Boiling Point": "130-131 \u00b0C @ Press: 0.5 Torr", "Melting Point": "131-139 \u00b0C"}}