{"cas_no": "6746-94-7", "cn_name": "\u73af\u4e19\u4e59\u7094", "en_name": ["Cyclopropylacetylene", "Cyclopropane, ethynyl-", "Ethynylcyclopropane", "Acetylene, cyclopropyl-", "Ethyne, cyclopropyl-", "Cyclopropylacetylene", "Cyclopropylethyne"], "SMILES": "C(#C)C1CC1", "physical_data": {"Molecular Weight": "66.10", "Molecular Formula": "C5H6", "Boiling Point": "51.5-52.5 \u00b0C", "Density": "0.7792 g/cm\u00b3 @ Temp: 20 \u00b0C"}}