{"cas_no": "67478-47-1", "cn_name": "2-\u6eb4-1-\u4e09\u82ef\u7532\u57fa-1H-\u54aa\u5511", "en_name": ["2-Bromo-1-(triphenylmethyl)-1H-imidazole", "1H-Imidazole, 2-bromo-1-(triphenylmethyl)-", "2-Bromo-1-(triphenylmethyl)-1H-imidazole", "2-Bromo-1-trityl-1H-imidazole", "2-Bromo-1-tritylimidazole"], "SMILES": "C(N1C(Br)=NC=C1)(C2=CC=CC=C2)(C3=CC=CC=C3)C4=CC=CC=C4", "physical_data": {"Molecular Weight": "389.29", "Molecular Formula": "C22H17BrN2", "Melting Point": "208-209 \u00b0C"}}