{"cas_no": "67488-50-0", "cn_name": "3-\u7532\u6c27\u57fa\u7fb0\u57fa-3-\u4e9a\u781c", "en_name": ["3-Thiophenecarboxylic acid, 2,5-dihydro-, methyl ester, 1,1-dioxide", "3-Thiophenecarboxylic acid, 2,5-dihydro-, methyl ester, 1,1-dioxide", "2,5-Dihydro-3-thiophenecarboxylic acid methyl ester 1,1-dioxide", "NSC 640439"], "SMILES": "C(OC)(=O)C=1CS(=O)(=O)CC1", "physical_data": {"Molecular Weight": "176.19", "Molecular Formula": "C6H8O4S", "Melting Point": "57-58 \u00b0C"}}