{"cas_no": "67485-29-4", "cn_name": "\u6c1f\u8681\u8159", "en_name": ["Hydramethylnon", "1,4-Pentadien-3-one, 1,5-bis[4-(trifluoromethyl)phenyl]-, 2-(1,4,5,6-tetrahydro-5,5-dimethyl-2-pyrimidinyl)hydrazone", "2(1H)-Pyrimidinone, tetrahydro-5,5-dimethyl-, [3-[4-(trifluoromethyl)phenyl]-1-[2-[4-(trifluoromethyl)phenyl]ethenyl]-2-propenylidene]hydrazone", "AC 217300", "Amdro", "Hydramethylnon", "Maxforce", "Combat", "NSC 379665", "Maxforce Roach Killer Bait Gel", "Maxforce Gel K"], "SMILES": "C(=CC(C=CC1=CC=C(C(F)(F)F)C=C1)=NNC=2NCC(C)(C)CN2)C3=CC=C(C(F)(F)F)C=C3", "physical_data": {"Molecular Weight": "494.48", "Molecular Formula": "C25H24F6N4", "Melting Point": "190 \u00b0C"}}