{"cas_no": "67490-21-5", "cn_name": "2,4,6-\u4e09\u53d4\u4e01\u57fa\u5627\u5576", "en_name": ["2,4,6-Tris(1,1-dimethylethyl)pyrimidine", "Pyrimidine, 2,4,6-tris(1,1-dimethylethyl)-", "2,4,6-Tris(1,1-dimethylethyl)pyrimidine", "2,4,6-Tri-tert-butylpyrimidine", "2,4,6-Tritert-butylpyrimidine"], "SMILES": "C(C)(C)(C)C=1C=C(C(C)(C)C)N=C(C(C)(C)C)N1", "physical_data": {"Molecular Weight": "248.41", "Molecular Formula": "C16H28N2", "Melting Point": "78-80 \u00b0C"}}