{"cas_no": "67494-15-9", "cn_name": "\u82b1\u67cf\u9178", "en_name": ["(4aR,10aS)-1,3,4,9,10,10a-Hexahydro-6-hydroxy-1,1-dimethyl-7-(1-methylethyl)-4a(2H)-phenanthrenecarboxylic acid", "4a(2H)-Phenanthrenecarboxylic acid, 1,3,4,9,10,10a-hexahydro-6-hydroxy-1,1-dimethyl-7-(1-methylethyl)-, (4aR,10aS)-", "4a(2H)-Phenanthrenecarboxylic acid, 1,3,4,9,10,10a-hexahydro-6-hydroxy-1,1-dimethyl-7-(1-methylethyl)-, (4aR-trans)-", "(4aR,10aS)-1,3,4,9,10,10a-Hexahydro-6-hydroxy-1,1-dimethyl-7-(1-methylethyl)-4a(2H)-phenanthrenecarboxylic acid", "Pisiferic acid", "(+)-Pisiferic acid"], "SMILES": "C(O)(=O)C12C=3C(CCC1C(C)(C)CCC2)=CC(C(C)C)=C(O)C3", "physical_data": {"Molecular Weight": "316.43", "Molecular Formula": "C20H28O3", "Melting Point": "155-160 \u00b0C"}}