{"cas_no": "675-09-2", "cn_name": "4,6-\u4e8c\u7532\u57fa-2-\u5421\u5583\u916e", "en_name": ["Mesitene lactone", "2H-Pyran-2-one, 4,6-dimethyl-", "Sorbic acid, 5-hydroxy-3-methyl-, \u03b4-lactone", "4,6-Dimethyl-2H-pyran-2-one", "4,6-Dimethyl-\u03b1-pyrone", "Mesitene lactone", "2,4-Dimethyl-\u03b1-pyrone", "4,6-Dimethyl-2-pyrone", "4,6-Dimethyl-2-pyranone", "NSC 402790", "4,6-Dimethylpyran-2-one"], "SMILES": "CC=1C=C(C)OC(=O)C1", "physical_data": {"Molecular Weight": "124.14", "Molecular Formula": "C7H8O2", "Boiling Point": "245 \u00b0C", "Melting Point": "51.5 \u00b0C"}}