{"cas_no": "675-10-5", "cn_name": "4-\u7f9f\u57fa-6-\u7532\u57fa-2-\u5421\u5583\u916e", "en_name": ["4-Hydroxy-6-methyl-2-pyrone", "2H-Pyran-2-one, 4-hydroxy-6-methyl-", "Sorbic acid, 3,5-dihydroxy-, \u03b4-lactone", "4-Hydroxy-6-methyl-2H-pyran-2-one", "Triacetic acid lactone", "4-Hydroxy-6-methylpyran-2-one", "4-Hydroxy-6-methyl-\u03b1-pyrone", "4-Hydroxy-6-methyl-2-pyrone", "6-Methyl-4-hydroxy-2-pyrone", "NSC 34625", "4-Hydroxy-6-methylpyrone", "6-Methyl-4-hydroxypyrone"], "SMILES": "OC=1C=C(C)OC(=O)C1", "physical_data": {"Molecular Weight": "126.11", "Molecular Formula": "C6H6O3", "Melting Point": "185 \u00b0C"}}