{"cas_no": "675-62-7", "cn_name": "(3,3,3-\u4e09\u6c1f\u4e19\u57fa)\u4e8c\u6c2f\u7532\u57fa\u7845\u70f7", "en_name": ["Dichloromethyl(3,3,3-trifluoropropyl)silane", "Silane, dichloromethyl(3,3,3-trifluoropropyl)-", "Dichloromethyl(3,3,3-trifluoropropyl)silane", "(3,3,3-Trifluoropropyl)methyldichlorosilane", "Methyl-3,3,3-trifluoropropyldichlorosilane", "(3,3,3-Trifluoropropyl)dichloromethylsilane"], "SMILES": "C(C[Si](C)(Cl)Cl)C(F)(F)F", "physical_data": {"Molecular Weight": "211.09", "Molecular Formula": "C4H7Cl2F3Si", "Boiling Point": "121-122 \u00b0C", "Density": "1.261 g/cm\u00b3"}}