{"cas_no": "675-14-9", "cn_name": "\u4e09\u805a\u6c1f\u6c30", "en_name": ["Cyanuric fluoride", "1,3,5-Triazine, 2,4,6-trifluoro-", "Cyanuric fluoride", "s-Triazine, 2,4,6-trifluoro-", "2,4,6-Trifluoro-1,3,5-triazine", "2,4,6-Trifluoro-s-triazine", "Trifluoro-s-triazine", "Cyanuric trifluoride", "Trifluoro-1,3,5-triazine", "2,4,6-Trifluorotriazine", "1,3,5-Trifluoro-2,4,6-triazine", "2,4,6-Trifluoro-sym-triazine", "NSC 168386"], "SMILES": "FC=1N=C(F)N=C(F)N1", "physical_data": {"Molecular Weight": "135.05", "Molecular Formula": "C3F3N3", "Boiling Point": "72.4 \u00b0C @ Press: 760.00 Torr", "Melting Point": "-38 \u00b0C"}}