{"cas_no": "675-20-7", "cn_name": "2-\u6c2e\u5df1\u73af\u916e", "en_name": ["2-Piperidone", "2-Piperidinone", "2-Piperidone", "\u03b4-Valerolactam", "\u03b1-Piperidone", "Pentanoic acid, 5-amino-, lactam", "Valerolactim", "5-Pentanolactam", "NSC 18894", "NSC 2305", "2-Oxopiperidine", "5-Aminopentanoic acid lactam"], "SMILES": "O=C1CCCCN1", "physical_data": {"Molecular Weight": "99.13", "Molecular Formula": "C5H9NO", "Boiling Point": "256 \u00b0C", "Melting Point": "39.5 \u00b0C"}}