{"cas_no": "675-11-6", "cn_name": "2-\u6c28\u57fa-4,6-\u4e8c\u6c1f\u5627\u5576", "en_name": ["4,6-Difluoro-2-pyrimidinamine", "2-Pyrimidinamine, 4,6-difluoro-", "Pyrimidine, 2-amino-4,6-difluoro-", "4,6-Difluoro-2-pyrimidinamine", "2-Amino-4,6-difluoropyrimidine"], "SMILES": "FC=1C=C(F)N=C(N)N1", "physical_data": {"Molecular Weight": "131.08", "Molecular Formula": "C4H3F2N3", "Melting Point": "214-216 \u00b0C"}}