{"cas_no": "6750-60-3", "cn_name": "\u6849\u6cb9\u70ef\u9187", "en_name": ["Spathulenol", "1H-Cycloprop[e]azulen-7-ol, decahydro-1,1,7-trimethyl-4-methylene-, (1aR,4aR,7S,7aR,7bR)-", "1H-Cycloprop[e]azulen-7-ol, decahydro-1,1,7-trimethyl-4-methylene-, [1aR-(1a\u03b1,4a\u03b1,7\u03b2,7a\u03b2,7b\u03b1)]-", "Spathulenol", "1H-Cycloprop[e]azulen-7-ol, decahydro-1,1,7-trimethyl-4-methylene-", "(1aR,4aR,7S,7aR,7bR)-Decahydro-1,1,7-trimethyl-4-methylene-1H-cycloprop[e]azulen-7-ol", "Espatulenol", "(+)-Spathulenol", "spainulenol", "Sibachun", "(1aR,4aR,7S,7aR,7bR)-1,1,7-trimethyl-4-methylenedecahydro-1H-cyclopropa[e]azulen-7-ol"], "SMILES": "CC1(C)C2C3C(CCC3(C)O)C(=C)CCC21", "physical_data": {"Molecular Weight": "220.35", "Molecular Formula": "C15H24O", "Boiling Point": "284.7 \u00b0C"}}