{"cas_no": "6750-03-4", "cn_name": "2,4-\u58ec\u4e8c\u70ef\u919b", "en_name": ["2,4-Nonadienal", "2,4-Nonadienal", "n-Nona-2,4-dienal"], "SMILES": "C(=CC=CC=O)CCCC", "physical_data": {"Molecular Weight": "138.21", "Molecular Formula": "C9H14O", "Boiling Point": "72-74 \u00b0C @ Press: 3 Torr"}}