{"cas_no": "6750-30-7", "cn_name": "\u5c71\u91d1\u8f66\u4e8c\u9187", "en_name": ["Arnidiol", "Urs-20(30)-ene-3,16-diol, (3\u03b2,16\u03b2,18\u03b1,19\u03b1)-", "18\u03b1,19\u03b2H-Urs-20(30)-ene-3\u03b2,12-diol", "(3\u03b2,16\u03b2,18\u03b1,19\u03b1)-Urs-20(30)-ene-3,16-diol", "Arnidenediol", "Arnidiol", "3\u03b2,16\u03b2-Dihydroxytaraxene"], "SMILES": "CC12C3(C)C(C4(C)C(CC3)C(C)(C)C(O)CC4)CCC1C5C(C)(C(O)C2)CCC(=C)C5C", "physical_data": {"Molecular Weight": "442.72", "Molecular Formula": "C30H50O2", "Melting Point": "256 \u00b0C"}}