{"cas_no": "675126-26-8", "cn_name": "2-\u6c28\u57fa-4-\u7532\u6c27\u57fa-5-(3-\u5417\u5549\u4e19\u6c27\u57fa)\u82ef\u7532\u8148", "en_name": ["4-Methoxy-5-[3-(4-morpholinyl)propoxy]-2-nitrobenzonitrile", "Benzonitrile, 4-methoxy-5-[3-(4-morpholinyl)propoxy]-2-nitro-", "4-Methoxy-5-[3-(4-morpholinyl)propoxy]-2-nitrobenzonitrile", "4-Methoxy-5-(3-morpholinopropoxy)-2-nitrobenzonitrile", "2-Nitro-4-methoxy-5-[3-(morpholin-4-yl)]propoxybenzonitrile"], "SMILES": "O(CCCN1CCOCC1)C2=C(OC)C=C(N(=O)=O)C(C#N)=C2", "physical_data": {"Molecular Weight": "321.33", "Molecular Formula": "C15H19N3O5", "Melting Point": "127 \u00b0C"}}