{"cas_no": "67515-60-0", "cn_name": "4-\u6c1f-3-\u4e09\u6c1f\u7532\u57fa\u82ef\u7532\u919b", "en_name": ["4-Fluoro-3-(trifluoromethyl)benzaldehyde", "Benzaldehyde, 4-fluoro-3-(trifluoromethyl)-", "4-Fluoro-3-(trifluoromethyl)benzaldehyde", "\u03b1,\u03b1,\u03b1,4-Tetrafluoro-m-tolylaldehyde", "4-Fluoro-3-trifluoromethylbenzaldehyde", "4-Fluoro-5-(trifluoromethyl)benzaldehyde", "3-Trifluoromethyl-4-fluorobenzaldehyde"], "SMILES": "C(F)(F)(F)C1=CC(C=O)=CC=C1F", "physical_data": {"Molecular Weight": "192.11", "Molecular Formula": "C8H4F4O", "Boiling Point": "70-72 \u00b0C @ Press: 9.0 Torr"}}