{"cas_no": "675126-28-0", "cn_name": "3-(3-\u5417\u5549\u4e19\u6c27\u57fa)-4-\u7532\u6c27\u57fa\u82c4\u8148", "en_name": ["4-Methoxy-3-[3-(4-morpholinyl)propoxy]benzonitrile", "Benzonitrile, 4-methoxy-3-[3-(4-morpholinyl)propoxy]-", "4-Methoxy-3-[3-(4-morpholinyl)propoxy]benzonitrile", "4-Methoxy-3-(3-morpholinopropoxy)benzonitrile"], "SMILES": "O(CCCN1CCOCC1)C2=C(OC)C=CC(C#N)=C2", "physical_data": {"Molecular Weight": "276.33", "Molecular Formula": "C15H20N2O3", "Melting Point": "52.4 \u00b0C"}}