{"cas_no": "6753-98-6", "cn_name": "ALPHA-\u5f8b\u8349\u70ef", "en_name": ["Humulene", "1,4,8-Cycloundecatriene, 2,6,6,9-tetramethyl-, (1E,4E,8E)-", "1,4,8-Cycloundecatriene, 2,6,6,9-tetramethyl-, (E,E,E)-", "\u03b1-Humulene", "(1E,4E,8E)-2,6,6,9-Tetramethyl-1,4,8-cycloundecatriene", "Humulene", "\u03b1-Caryophyllene", "(\u00b1)-\u03b1-Humulene"], "SMILES": "CC1(C)CC=C(C)CCC=C(C)CC=C1", "physical_data": {"Molecular Weight": "204.35", "Molecular Formula": "C15H24", "Boiling Point": "123 \u00b0C", "Melting Point": "&lt;25 \u00b0C", "Density": "0.8953 g/cm\u00b3 @ Temp: 20 \u00b0C"}}