{"cas_no": "6754-20-7", "cn_name": "\u6c34\u84fc\u4e8c\u919b", "en_name": ["Polygodial", "1,2-Naphthalenedicarboxaldehyde, 1,4,4a,5,6,7,8,8a-octahydro-5,5,8a-trimethyl-, (1R,4aS,8aS)-", "1,2-Naphthalenedicarboxaldehyde, 1\u03b1,4,4a\u03b1,5,6,7,8,8a-octahydro-5,5,8a\u03b2-trimethyl-", "1,2-Naphthalenedicarboxaldehyde, 1,4,4a,5,6,7,8,8a-octahydro-5,5,8a-trimethyl-, [1R-(1\u03b1,4a\u03b2,8a\u03b1)]-", "(1R,4aS,8aS)-1,4,4a,5,6,7,8,8a-Octahydro-5,5,8a-trimethyl-1,2-naphthalenedicarboxaldehyde", "Tadeonal", "Polygodial", "(-)-Tadeonal", "Drim-7-ene-11,12-dial", "(-)-Polygodial", "Poligodial"], "SMILES": "CC12C(CC=C(C=O)C1C=O)C(C)(C)CCC2", "physical_data": {"Molecular Weight": "234.33", "Molecular Formula": "C15H22O2", "Melting Point": "57 \u00b0C"}}