{"cas_no": "6754-13-8", "cn_name": "\u5fc3\u83ca\u5185\u916f", "en_name": ["Helenalin", "Azuleno[6,5-b]furan-2,5-dione, 3,3a,4,4a,7a,8,9,9a-octahydro-4-hydroxy-4a,8-dimethyl-3-methylene-, (3aS,4S,4aR,7aR,8R,9aR)-", "Helenalin", "Ambrosa-2,11(13)-dien-12-oic acid, 6\u03b1,8\u03b2-dihydroxy-4-oxo-, 12,8-lactone", "Azuleno[6,5-b]furan-2,5-dione, 3,3a,4,4a,7a,8,9,9a-octahydro-4-hydroxy-4a,8-dimethyl-3-methylene-, [3aS-(3a\u03b1,4\u03b1,4a\u03b2,7a\u03b1,8\u03b1,9a\u03b1)]-", "(3aS,4S,4aR,7aR,8R,9aR)-3,3a,4,4a,7a,8,9,9a-Octahydro-4-hydroxy-4a,8-dimethyl-3-methyleneazuleno[6,5-b]furan-2,5-dione", "(-)-Helenalin", "NSC 85236", "Helenalin A"], "SMILES": "CC12C(C(C)CC3C(C1O)C(=C)C(=O)O3)C=CC2=O", "physical_data": {"Molecular Weight": "262.30", "Molecular Formula": "C15H18O4", "Melting Point": "167-168 \u00b0C"}}