{"cas_no": "6754-58-1", "cn_name": "\u9ec4\u8150\u9187", "en_name": ["Xanthohumol", "2-Propen-1-one, 1-[2,4-dihydroxy-6-methoxy-3-(3-methyl-2-buten-1-yl)phenyl]-3-(4-hydroxyphenyl)-, (2E)-", "Xanthohumol", "2-Propen-1-one, 1-[2,4-dihydroxy-6-methoxy-3-(3-methyl-2-butenyl)phenyl]-3-(4-hydroxyphenyl)-, (E)-", "2-Propen-1-one, 1-[2,4-dihydroxy-6-methoxy-3-(3-methyl-2-butenyl)phenyl]-3-(4-hydroxyphenyl)-, (2E)-", "(2E)-1-[2,4-Dihydroxy-6-methoxy-3-(3-methyl-2-buten-1-yl)phenyl]-3-(4-hydroxyphenyl)-2-propen-1-one", "Xantho-Flav", "Xantho Flav-Pure", "Xanthopure"], "SMILES": "C(C=CC1=CC=C(O)C=C1)(=O)C2=C(OC)C=C(O)C(CC=C(C)C)=C2O", "physical_data": {"Molecular Weight": "354.40", "Molecular Formula": "C21H22O5", "Melting Point": "172 \u00b0C"}}