{"cas_no": "675576-98-4", "cn_name": "Nutlin 3a", "en_name": ["(-)-Nutlin 3", "2-Piperazinone, 4-[[(4S,5R)-4,5-bis(4-chlorophenyl)-4,5-dihydro-2-[4-methoxy-2-(1-methylethoxy)phenyl]-1H-imidazol-1-yl]carbonyl]-", "Piperazinone, 4-[[(4S,5R)-4,5-bis(4-chlorophenyl)-4,5-dihydro-2-[4-methoxy-2-(1-methylethoxy)phenyl]-1H-imidazol-1-yl]carbonyl]-", "4-[[(4S,5R)-4,5-Bis(4-chlorophenyl)-4,5-dihydro-2-[4-methoxy-2-(1-methylethoxy)phenyl]-1H-imidazol-1-yl]carbonyl]-2-piperazinone", "4-[[(4S,5R)-4,5-Bis(4-chlorophenyl)-2-(2-isopropoxy-4-methoxyphenyl)-4,5-dihydroimidazol-1-yl]carbonyl]piperazin-2-one", "Nutlin 3a", "(-)-Nutlin 3", "SML 0580", "4-[[(4S,5R)-4,5-Bis(4-chlorophenyl)-4,5-dihydro-2-[4-methoxy-2-(1-methylethoxy)phenyl]-1H-imidazol-1-yl]carbonyl]-2-piperazinone", "Rebemadlin"], "SMILES": "C(=O)(N1C(C(N=C1C2=C(OC(C)C)C=C(OC)C=C2)C3=CC=C(Cl)C=C3)C4=CC=C(Cl)C=C4)N5CC(=O)NCC5", "physical_data": {"Molecular Weight": "581.49", "Molecular Formula": "C30H30Cl2N4O4", "Melting Point": "127-129 \u00b0C"}}