{"cas_no": "67564-91-4", "cn_name": "\u987a-4-\u53d4\u4e01\u57fa\u82ef\u57fa(-2-\u7532\u57fa\u4e19\u57fa)-2,6-\u4e8c\u7532\u57fa\u5417\u5549", "en_name": ["Fenpropimorph", "Morpholine, 4-[3-[4-(1,1-dimethylethyl)phenyl]-2-methylpropyl]-2,6-dimethyl-, (2R,6S)-rel-", "Morpholine, 4-[3-[4-(1,1-dimethylethyl)phenyl]-2-methylpropyl]-2,6-dimethyl-, cis-", "rel-(2R,6S)-4-[3-[4-(1,1-Dimethylethyl)phenyl]-2-methylpropyl]-2,6-dimethylmorpholine", "BAS 42100F", "Fenpropimorph", "Forbel 750", "Mistral", "Corbel", "cis-4-[3-(4-tert-Butylphenyl)-2-methylpropyl]-2,6-dimethylmorpholine", "Volley 88OL"], "SMILES": "C(C(CN1CC(C)OC(C)C1)C)C2=CC=C(C(C)(C)C)C=C2", "physical_data": {"Molecular Weight": "303.48", "Molecular Formula": "C20H33NO", "Boiling Point": "&gt;300 \u00b0C", "Melting Point": "&lt;25 \u00b0C"}}