{"cas_no": "6758-40-3", "cn_name": "N-\u5bf9\u785d\u57fa\u82ef\u7532\u9170\u8c37\u6c28\u9178", "en_name": ["N-(4-Nitrobenzoyl)-L-glutamic acid", "L-Glutamic acid, N-(4-nitrobenzoyl)-", "Glutamic acid, N-(p-nitrobenzoyl)-, L-", "N-(4-Nitrobenzoyl)-L-glutamic acid", "p-Nitrobenzoyl-L-glutamic acid", "p-Nitrobenzoylglutamic acid", "N-(p-Nitrobenzoyl)-L(+)-glutamic acid", "NSC 17156", "NSC 83096", "(S)-2-(4-Nitrobenzamido)pentanedioic acid", "(2S)-2-[(4-Nitrophenyl)formamido]pentanedioic acid"], "SMILES": "C(NC(CCC(O)=O)C(O)=O)(=O)C1=CC=C(N(=O)=O)C=C1", "physical_data": {"Molecular Weight": "296.23", "Molecular Formula": "C12H12N2O7", "Melting Point": "113 \u00b0C"}}