{"cas_no": "67592-36-3", "cn_name": "[2-(3-\u73af\u5df1\u70ef\u57fa)\u4e59\u57fa]\u4e09\u7532\u6c27\u57fa\u7845\u70f7", "en_name": ["[2-(3-Cyclohexen-1-yl)ethyl]trimethoxysilane", "Cyclohexene, 4-[2-(trimethoxysilyl)ethyl]-", "Silane, [2-(3-cyclohexen-1-yl)ethyl]trimethoxy-", "[2-(3-Cyclohexen-1-yl)ethyl]trimethoxysilane", "2-(3-Cyclohexenylethyl)trimethoxysilane", "SIC 2460.0"], "SMILES": "[Si](CCC1CCC=CC1)(OC)(OC)OC", "physical_data": {"Molecular Weight": "230.38", "Molecular Formula": "C11H22O3Si", "Boiling Point": "109 \u00b0C @ Press: 6 Torr", "Density": "1.020 g/cm\u00b3"}}