{"cas_no": "676-22-2", "cn_name": "\u53cd,\u53cd,\u53cd-1,5,9-\u73af\u5341\u4e8c\u70f7\u57fa\u4e09\u70ef", "en_name": ["trans,trans,trans-1,5,9-Cyclododecatriene", "1,5,9-Cyclododecatriene, (1E,5E,9E)-", "1,5,9-Cyclododecatriene, (E,E,E)-", "(1E,5E,9E)-1,5,9-Cyclododecatriene", "trans,trans,trans-1,5,9-Cyclododecatriene", "all-trans-1,5,9-Cyclododecatriene", "(E,E,E)-1,5,9-Cyclododecatriene", "(1E,5E,9E)-Cyclododeca-1,5,9-triene"], "SMILES": "C1CC=CCCC=CCCC=C1", "physical_data": {"Molecular Weight": "162.27", "Molecular Formula": "C12H18", "Boiling Point": "92 \u00b0C @ Press: 10 Torr", "Melting Point": "34 \u00b0C"}}