{"cas_no": "676-98-2", "cn_name": "\u4e8c\u6c2f\u7532\u57fa\u786b\u4ee3\u81a6", "en_name": ["Methylphosphonothioic dichloride", "Phosphonothioic dichloride, methyl-", "Dichloromethylphosphine sulfide", "Methylthionophosphonic dichloride", "Methylphosphonothioic dichloride", "Methylphosphonothioyl dichloride", "Methylthiophosphonic dichloride", "Methylthiophosphonic acid dichloride", "Methyldichlorophosphine sulfide", "Methanephosphonothioic dichloride"], "SMILES": "P(C)(Cl)(Cl)=S", "physical_data": {"Molecular Weight": "148.98", "Molecular Formula": "CH3Cl2PS", "Boiling Point": "34-35 \u00b0C @ Press: 8 Torr", "Melting Point": "-25.8 \u00b0C", "Density": "1.4302 g/cm\u00b3 @ Temp: 20 \u00b0C"}}