{"cas_no": "676-96-0", "cn_name": "\u4e09\u7532\u57fa\u6c27\u81a6", "en_name": ["Trimethylphosphine oxide", "Phosphine oxide, trimethyl-", "Trimethylphosphine oxide", "TMPO", "(Dimethylphosphoryl)methane"], "SMILES": "P(C)(C)(C)=O", "physical_data": {"Molecular Weight": "92.08", "Molecular Formula": "C3H9OP", "Melting Point": "140-141 \u00b0C"}}