{"cas_no": "676-97-1", "cn_name": "\u7532\u57fa\u81a6\u915e\u4e8c\u6c2f", "en_name": ["Methylphosphonic dichloride", "Phosphonic dichloride, P-methyl-", "Phosphonic dichloride, methyl-", "P-Methylphosphonic dichloride", "Methanephosphonyl chloride", "Methylphosphonic dichloride", "Methylphosphonic acid dichloride", "Dichloromethylphosphine oxide", "Methylphosphonyl dichloride", "Methylphosphonyl chloride", "Methanephosphonodichloridic acid", "Methylphosphonodichloridic acid", "Methanephosphonyl dichloride"], "SMILES": "P(C)(Cl)(Cl)=O", "physical_data": {"Molecular Weight": "132.91", "Molecular Formula": "CH3Cl2OP", "Boiling Point": "162 \u00b0C @ Press: 760 Torr", "Melting Point": "33 \u00b0C", "Density": "1.445 g/cm\u00b3 @ Temp: 25.3 \u00b0C"}}