{"cas_no": "676-83-5", "cn_name": "\u4e8c\u6c2f\u7532\u57fa\u78f7(\u7981\u8fd0)", "en_name": ["Dichloromethylphosphine", "Phosphonous dichloride, P-methyl-", "Phosphonous dichloride, methyl-", "P-Methylphosphonous dichloride", "Phosphine, dichloromethyl-", "Dichloromethylphosphine", "Methyldichlorophosphine", "Methylphosphonous dichloride", "Methylphosphinic dichloride", "Methylphosphinous dichloride", "Methylphosphorus dichloride", "Methyldichlorophosphane"], "SMILES": "P(C)(Cl)Cl", "physical_data": {"Molecular Weight": "116.91", "Molecular Formula": "CH3Cl2P", "Boiling Point": "77-79 \u00b0C", "Density": "1.3039 g/cm\u00b3 @ Temp: 20 \u00b0C"}}