{"cas_no": "67600-94-6", "cn_name": "\u7ee3\u7403\u915a 8-O-\u8461\u8404\u7cd6\u7519", "en_name": ["8-(\u03b2-D-Glucopyranosyloxy)-3,4-dihydro-3-(4-hydroxyphenyl)-1H-2-benzopyran-1-one", "1H-2-Benzopyran-1-one, 8-(\u03b2-D-glucopyranosyloxy)-3,4-dihydro-3-(4-hydroxyphenyl)-", "8-(\u03b2-D-Glucopyranosyloxy)-3,4-dihydro-3-(4-hydroxyphenyl)-1H-2-benzopyran-1-one", "Hydrangenol 8-O-\u03b2-D-glucopyranoside"], "SMILES": "O(C1=C2C(CC(OC2=O)C3=CC=C(O)C=C3)=CC=C1)C4OC(CO)C(O)C(O)C4O", "physical_data": {"Molecular Weight": "418.39", "Molecular Formula": "C21H22O9", "Melting Point": "190-194 \u00b0C"}}