{"cas_no": "67604-48-2", "cn_name": "\u67da\u76ae\u7d20", "en_name": ["(\u00b1)-Naringenin", "4H-1-Benzopyran-4-one, 2,3-dihydro-5,7-dihydroxy-2-(4-hydroxyphenyl)-", "2,3-Dihydro-5,7-dihydroxy-2-(4-hydroxyphenyl)-4H-1-benzopyran-4-one", "4\u2032,5,7-Trihydroxyflavanone", "5,7,4\u2032-Trihydroxyflavanone", "(R,S)-Naringenin", "(\u00b1)-Naringenin", "(RS)-Naringenin", "(\u00b1)-5,7,4\u2032-Trihydroxyflavanone", "ST 057236", "5,7-Dihydroxy-2-(4-hydroxyphenyl)-4H-chroman-4-one", "5,7-Dihydroxy-2-(4-hydroxyphenyl)chroman-4-one", "TCI-CA 03"], "SMILES": "O=C1C=2C(OC(C1)C3=CC=C(O)C=C3)=CC(O)=CC2O", "physical_data": {"Molecular Weight": "272.25", "Molecular Formula": "C15H12O5", "Melting Point": "248 \u00b0C"}}