{"cas_no": "676128-63-5", "cn_name": "CS-2092", "en_name": ["(S)-1-(2-Fluorophenyl)-3-(2-oxo-5-phenyl-2,3-dihydro-1H-benzo[e][1,4]diazepin-3-yl)urea", "Urea, N-[(3S)-2,3-dihydro-2-oxo-5-phenyl-1H-1,4-benzodiazepin-3-yl]-N\u2032-(2-fluorophenyl)-", "N-[(3S)-2,3-Dihydro-2-oxo-5-phenyl-1H-1,4-benzodiazepin-3-yl]-N\u2032-(2-fluorophenyl)urea", "(S)-1-(2-Fluorophenyl)-3-(2-oxo-5-phenyl-2,3-dihydro-1H-benzo[e][1,4]diazepin-3-yl)urea", "RSV 604", "(S)-N-(2-Fluorophenyl)-N\u2032-(2-oxo-5-phenyl-2,3-dihydro-1H-benzo[e][1,4]diazepin-3-yl)urea", "1-(2-Fluorophenyl)-3-[(3S)-2-oxo-5-phenyl-1,3-dihydro-1,4-benzodiazepin-3-yl]urea"], "SMILES": "N(C(NC1=C(F)C=CC=C1)=O)C2N=C(C=3C(NC2=O)=CC=CC3)C4=CC=CC=C4", "physical_data": {"Molecular Weight": "388.39", "Molecular Formula": "C22H17FN4O2", "Melting Point": "243-245 \u00b0C (decomp)"}}