{"cas_no": "67625-37-0", "cn_name": "6-\u6eb4\u54aa\u5511\u5e76[1,2-A]\u7812\u5576-2-\u7fa7\u9178\u4e59\u916f", "en_name": ["6-Bromoimidazo[1,2-a]pyridine-2-carboxylic acid ethyl ester", "Imidazo[1,2-a]pyridine-2-carboxylic acid, 6-bromo-, ethyl ester", "Ethyl 6-bromoimidazo[1,2-a]pyridine-2-carboxylate", "6-Bromoimidazo[1,2-a]pyridine-2-carboxylic acid ethyl ester"], "SMILES": "C(OCC)(=O)C1=CN2C(=N1)C=CC(Br)=C2", "physical_data": {"Molecular Weight": "269.09", "Molecular Formula": "C10H9BrN2O2", "Melting Point": "63-65 \u00b0C"}}