{"cas_no": "67622-86-0", "cn_name": "2-\u7532\u57fa-4-\u7532\u6c28\u57fa\u5f02\u4e19\u9187", "en_name": ["2-Methyl-1-(methylamino)-2-propanol", "2-Propanol, 2-methyl-1-(methylamino)-", "2-Methyl-1-(methylamino)-2-propanol", "2-Methyl-1-(methylamino)propan-2-ol"], "SMILES": "C(C(C)(C)O)NC", "physical_data": {"Molecular Weight": "103.16", "Molecular Formula": "C5H13NO", "Boiling Point": "142-143 \u00b0C", "Density": "0.8875 g/cm\u00b3 @ Temp: 23 \u00b0C"}}