{"cas_no": "6763-34-4", "cn_name": "D-\u6728\u7cd6", "en_name": ["\u03b1-D-Xylopyranose", "\u03b1-D-Xylopyranose", "Xylopyranose, \u03b1-D-", "Holzzucker", "Losan", "\u03b1-D-Xylose", "\u03b1-Xylose"], "SMILES": "OC1C(O)C(O)OCC1O", "physical_data": {"Molecular Weight": "150.13", "Molecular Formula": "C5H10O5", "Melting Point": "146-147 \u00b0C", "Density": "1.0348952 g/cm\u00b3 @ Temp: 20 \u00b0C"}}