{"cas_no": "676371-65-6", "cn_name": "3-\u6c28\u57fa\u53cc\u73af[1.1.1]\u620a\u70f7-1-\u7fa7\u9178\u7532\u916f\u76d0\u9178\u76d0", "en_name": ["Bicyclo[1.1.1]pentane-1-carboxylic acid, 3-amino-, methyl ester, hydrochloride (1:1)", "Bicyclo[1.1.1]pentane-1-carboxylic acid, 3-amino-, methyl ester, hydrochloride (1:1)", "Bicyclo[1.1.1]pentane-1-carboxylic acid, 3-amino-, methyl ester, hydrochloride", "Methyl 3-aminobicyclo[1.1.1]pentane-1-carboxylate hydrochloride"], "SMILES": "C(OC)(=O)C12CC(N)(C1)C2.Cl", "physical_data": {"Molecular Weight": "", "Molecular Formula": "C7H11NO2.ClH", "Melting Point": "209 \u00b0C (decomp)"}}