{"cas_no": "67633-97-0", "cn_name": "3-\u5def\u57fa-2-\u620a\u916e", "en_name": ["3-Mercapto-2-pentanone", "2-Pentanone, 3-mercapto-", "3-Mercapto-2-pentanone", "3-Sulfanylpentan-2-one"], "SMILES": "C(C(C)=O)(CC)S", "physical_data": {"Molecular Weight": "118.20", "Molecular Formula": "C5H10OS", "Boiling Point": "61-62 \u00b0C @ Press: 19 Torr"}}