{"cas_no": "6764-13-2", "cn_name": "2-(\u82ef\u57fa\u786b\u4ee3)\u82ef\u80fa", "en_name": ["Benzenamine, 2-(phenylthio)-, hydrochloride (1:1)", "Benzenamine, 2-(phenylthio)-, hydrochloride (1:1)", "Aniline, o-(phenylthio)-, hydrochloride", "Benzenamine, 2-(phenylthio)-, hydrochloride", "NSC 633006"], "SMILES": "S(C1=C(N)C=CC=C1)C2=CC=CC=C2.Cl", "physical_data": {"Molecular Weight": "", "Molecular Formula": "C12H11NS.ClH", "Melting Point": "36 \u00b0C"}}