{"cas_no": "67643-17-8", "cn_name": "2,4-\u4e8c\u7f9f\u57fa-6-\u7532\u57fa\u70df\u9178\u8148", "en_name": ["1,2-Dihydro-4-hydroxy-6-methyl-2-oxo-3-pyridinecarbonitrile", "3-Pyridinecarbonitrile, 1,2-dihydro-4-hydroxy-6-methyl-2-oxo-", "1,2-Dihydro-4-hydroxy-6-methyl-2-oxo-3-pyridinecarbonitrile", "4-Hydroxy-6-methyl-2-oxo-1,2-dihydropyridine-3-carbonitrile", "2-Hydroxy-6-methyl-4-oxo-1,4-dihydropyridine-3-carbonitrile"], "SMILES": "C(#N)C1=C(O)C=C(C)NC1=O", "physical_data": {"Molecular Weight": "150.13", "Molecular Formula": "C7H6N2O2", "Melting Point": "300-301 \u00b0C (decomp)"}}