{"cas_no": "67648-61-7", "cn_name": "2-(4-\u7f9f\u57fa\u82ef\u6c27\u57fa)\u4e19\u9178", "en_name": ["2-(4-Hydroxyphenoxy)propionic acid", "Propanoic acid, 2-(4-hydroxyphenoxy)-", "Propionic acid, 2-(p-hydroxyphenoxy)-", "2-(4-Hydroxyphenoxy)propanoic acid", "2-(p-Hydroxyphenoxy)propionic acid", "2-(4-Hydroxyphenoxy)propionic acid", "\u03b1-(p-Hydroxyphenoxy)propionic acid", "(\u00b1)-2-(4-Hydroxyphenoxy)propionic acid", "Methyl (\u00b1)-2-(4-hydroxyphenoxy)propanoate", "O-(4-Hydroxyphenyl)lactic acid", "NSC 522955", "Radianskin PW LS 9918"], "SMILES": "O(C(C(O)=O)C)C1=CC=C(O)C=C1", "physical_data": {"Molecular Weight": "182.17", "Molecular Formula": "C9H10O4", "Melting Point": "144 \u00b0C"}}