{"cas_no": "6764-10-9", "cn_name": "2-\u785d\u57fa-4'-\u6c2f\u4e8c\u82ef\u786b\u919a", "en_name": ["1-[(4-Chlorophenyl)thio]-2-nitrobenzene", "Benzene, 1-[(4-chlorophenyl)thio]-2-nitro-", "Sulfide, p-chlorophenyl o-nitrophenyl", "1-[(4-Chlorophenyl)thio]-2-nitrobenzene", "2-Nitro-4\u2032-chlorodiphenyl sulfide", "NSC 633007", "(4-Chlorophenyl)(2-nitrophenyl)sulfane"], "SMILES": "S(C1=C(N(=O)=O)C=CC=C1)C2=CC=C(Cl)C=C2", "physical_data": {"Molecular Weight": "265.72", "Molecular Formula": "C12H8ClNO2S", "Melting Point": "94 \u00b0C"}}