{"cas_no": "6765-39-5", "cn_name": "\u5341\u4e03\u70ef", "en_name": ["1-Heptadecene", "1-Heptadecene", "Hexahydroaplotaxene", "NSC 77132"], "SMILES": "C(CCCCCCCC)CCCCCCC=C", "physical_data": {"Molecular Weight": "238.45", "Molecular Formula": "C17H34", "Boiling Point": "300 \u00b0C", "Melting Point": "11.5 \u00b0C", "Density": "0.7854 g/cm\u00b3 @ Temp: 20 \u00b0C"}}