{"cas_no": "67656-30-8", "cn_name": "4-\u4e59\u57fa-4,10-\u4e8c\u7f9f\u57fa-1H-\u5421\u5583[3',4':6,7]\u5432\u54da[1,2-B]\u55b9\u5549-3,14(4H,12H)-\u4e8c\u916e", "en_name": ["9-Hydroxycamptothecin", "1H-Pyrano[3\u2032,4\u2032:6,7]indolizino[1,2-b]quinoline-3,14(4H,12H)-dione, 4-ethyl-4,10-dihydroxy-, (4S)-", "1H-Pyrano[3\u2032,4\u2032:6,7]indolizino[1,2-b]quinoline-3,14(4H,12H)-dione, 4-ethyl-4,10-dihydroxy-, (S)-", "(4S)-4-Ethyl-4,10-dihydroxy-1H-pyrano[3\u2032,4\u2032:6,7]indolizino[1,2-b]quinoline-3,14(4H,12H)-dione", "10-Hydroxycamptothecine", "9-Hydroxycamptothecine", "9-Hydroxycamptothecin"], "SMILES": "C(C)C1(O)C2=C(C(=O)N3C(=C2)C=4C(C3)=CC=5C(N4)=CC=CC5O)COC1=O", "physical_data": {"Molecular Weight": "364.35", "Molecular Formula": "C20H16N2O5", "Melting Point": "224 \u00b0C"}}