{"cas_no": "67669-19-6", "cn_name": "N-(2,4-DICHLORO-5-HYDROXYPHENYL)ACETAMIDE", "en_name": ["N-(2,4-Dichloro-5-hydroxyphenyl)acetamide", "Acetamide, N-(2,4-dichloro-5-hydroxyphenyl)-", "N-(2,4-Dichloro-5-hydroxyphenyl)acetamide"], "SMILES": "N(C(C)=O)C1=C(Cl)C=C(Cl)C(O)=C1", "physical_data": {"Molecular Weight": "220.05", "Molecular Formula": "C8H7Cl2NO2", "Melting Point": "226-228 \u00b0C"}}