{"cas_no": "67674-48-0", "cn_name": "1,1,1,3,3,3-\u516d\u6c1f\u5f02\u4e19\u57fa\u5bf9\u7532\u82ef\u78fa\u9178\u76d0", "en_name": ["2-Propanol, 1,1,1,3,3,3-hexafluoro-, 2-(4-methylbenzenesulfonate)", "2-Propanol, 1,1,1,3,3,3-hexafluoro-, 2-(4-methylbenzenesulfonate)", "2-Propanol, 1,1,1,3,3,3-hexafluoro-, 4-methylbenzenesulfonate", "2,2,2-Trifluoro-1-(trifluoromethyl)ethyl tosylate", "NSC 179424", "1,1,1,3,3,3-Hexafluoropropan-2-yl p-toluenesulfonate", "1,1,1,3,3,3-Hexafluoro-2-propyl tosylate", "1,1,1,3,3,3-Hexafluoropropan-2-yl 4-methylbenzene-1-sulfonate"], "SMILES": "C(OS(=O)(=O)C1=CC=C(C)C=C1)(C(F)(F)F)C(F)(F)F", "physical_data": {"Molecular Weight": "322.22", "Molecular Formula": "C10H8F6O3S", "Boiling Point": "133.5-134 \u00b0C @ Press: 30 Torr"}}