{"cas_no": "67676-47-5", "cn_name": "N-\u4e59\u57fa-N-\u82c4\u57fa-4-\u6c28\u57fa\u82ef\u7532\u919b", "en_name": ["4-[Ethyl(phenylmethyl)amino]benzaldehyde", "Benzaldehyde, 4-[ethyl(phenylmethyl)amino]-", "4-[Ethyl(phenylmethyl)amino]benzaldehyde", "4-(Benzylethylamino)benzaldehyde", "NSC 135484"], "SMILES": "N(CC1=CC=CC=C1)(CC)C2=CC=C(C=O)C=C2", "physical_data": {"Molecular Weight": "239.31", "Molecular Formula": "C16H17NO", "Melting Point": "296-298 \u00b0C"}}