{"cas_no": "67686-01-5", "cn_name": "1-\u82c4\u57fa-4-\u54cc\u5576\u7532\u9187", "en_name": ["1-(Phenylmethyl)-4-piperidinemethanol", "4-Piperidinemethanol, 1-(phenylmethyl)-", "1-(Phenylmethyl)-4-piperidinemethanol", "1-Benzyl-4-(hydroxymethyl)piperidine", "1-Benzyl-4-piperidinemethanol", "(1-Benzyl-4-piperidyl)methanol", "N-(Phenylmethyl)piperidine-4-methanol", "4-Hydroxymethyl-1-(phenylmethyl)piperidine", "(1-Benzylpiperidin-4-yl)methanol", "N-Benzyl-4-hydroxymethylpiperidine"], "SMILES": "C(N1CCC(CO)CC1)C2=CC=CC=C2", "physical_data": {"Molecular Weight": "205.30", "Molecular Formula": "C13H19NO", "Boiling Point": "122-123 \u00b0C @ Press: 0.3 Torr"}}