{"cas_no": "6768-23-6", "cn_name": "4-\u7532\u6c27\u57fa\u4e9a\u82c4\u57fa\u4e19\u4e8c\u9178\u4e8c\u4e59\u916f", "en_name": ["Diethyl (4-methoxybenzylidene)malonate", "Propanedioic acid, 2-[(4-methoxyphenyl)methylene]-, 1,3-diethyl ester", "Malonic acid, (p-methoxybenzylidene)-, diethyl ester", "Propanedioic acid, [(4-methoxyphenyl)methylene]-, diethyl ester", "(p-Methoxybenzylidene)malonic acid diethyl ester", "Diethyl (4-methoxybenzylidene)malonate", "Cyasorb UV 3100", "Diethyl (p-methoxybenzylidene)malonate", "p-Methoxy-\u03b2,\u03b2-(diethoxycarbonyl)styrene", "NSC 95160", "Diethyl 2-(4-methoxybenzylidene)malonate"], "SMILES": "C(=CC1=CC=C(OC)C=C1)(C(OCC)=O)C(OCC)=O", "physical_data": {"Molecular Weight": "278.30", "Molecular Formula": "C15H18O5", "Boiling Point": "185-187 \u00b0C @ Press: 3 Torr", "Melting Point": "38-40 \u00b0C"}}