{"cas_no": "677-43-0", "cn_name": "N,N-\u4e8c\u7532\u57fa\u78f7\u6c28\u57fa\u4e8c\u6c2f\u5316\u7269", "en_name": ["Dimethylphosphoramidic dichloride", "Phosphoramidic dichloride, N,N-dimethyl-", "Phosphoramidic dichloride, dimethyl-", "N,N-Dimethylphosphoramidic dichloride", "Dimethylamidophosphoric acid dichloride", "Dimethylphosphoramidic dichloride", "Dichlorophosphoric dimethylamide", "(Dimethylamido)phosphoric dichloride", "Dimethylphosphorodichloridic amide", "Dichloro(dimethylamino)phosphine oxide", "NSC 203138", "N,N-Dimethylaminophosphoryl dichloride", "(Dimethylamino)phosphoric dichloride"], "SMILES": "P(N(C)C)(Cl)(Cl)=O", "physical_data": {"Molecular Weight": "161.95", "Molecular Formula": "C2H6Cl2NOP", "Boiling Point": "80-82 \u00b0C @ Press: 18 Torr", "Density": "1.3500 g/cm\u00b3 @ Temp: 20 \u00b0C; Press: 4 Torr"}}