{"cas_no": "677-25-8", "cn_name": "\u4e59\u70ef\u78fa\u9170\u6c1f", "en_name": ["Ethenesulfonyl fluoride", "Ethenesulfonyl fluoride", "Vinylsulfonyl fluoride"], "SMILES": "S(C=C)(F)(=O)=O", "physical_data": {"Molecular Weight": "110.11", "Molecular Formula": "C2H3FO2S", "Boiling Point": "44-46 \u00b0C @ Press: 50 Torr", "Density": "1.3329 g/cm\u00b3 @ Temp: 20 \u00b0C"}}