{"cas_no": "677-21-4", "cn_name": "\u4e09\u6c1f\u4e19\u70ef", "en_name": ["3,3,3-Trifluoropropene", "1-Propene, 3,3,3-trifluoro-", "Propene, 3,3,3-trifluoro-", "3,3,3-Trifluoro-1-propene", "3,3,3-Trifluoropropylene", "1,1,1-Trifluoropropene", "3,3,3-Trifluoropropene", "(Trifluoromethyl)ethylene", "1,1,1-Trifluoro-2-propene", "R 1243", "(Trifluoromethyl)ethene", "HFC 1243zf", "HFO 1243zf", "R 1243zf", "(Perfluoromethyl)ethylene", "1243zf", "HFO 1343zf"], "SMILES": "C(C=C)(F)(F)F", "physical_data": {"Molecular Weight": "96.05", "Molecular Formula": "C3H3F3", "Boiling Point": "-17 \u00b0C", "Density": "0.9961 g/cm\u00b3"}}