{"cas_no": "677-24-7", "cn_name": "\u4e8c\u6c2f\u78f7\u9178\u7532\u916f", "en_name": ["Methyl dichlorophosphate", "Phosphorodichloridic acid, methyl ester", "Methyl phosphorodichloridate", "Dichloromethoxyphosphine oxide", "Methoxyphosphoryl dichloride", "Methyl dichlorophosphate", "Methyl dichlorophosphinate"], "SMILES": "P(OC)(Cl)(Cl)=O", "physical_data": {"Molecular Weight": "148.91", "Molecular Formula": "CH3Cl2O2P", "Boiling Point": "59.5 \u00b0C @ Press: 12 Torr", "Melting Point": "-59 \u00b0C", "Density": "1.4878 g/cm\u00b3 @ Temp: 26 \u00b0C"}}