{"cas_no": "677-69-0", "cn_name": "\u4e03\u6c1f-2-\u7898\u4ee3\u4e19\u70f7", "en_name": ["Perfluoroisopropyl iodide", "Propane, 1,1,1,2,3,3,3-heptafluoro-2-iodo-", "Propane, heptafluoro-2-iodo-", "1,1,1,2,3,3,3-Heptafluoro-2-iodopropane", "Perfluoroisopropyl iodide", "Heptafluoroisopropyl iodide", "Heptafluoro-2-iodopropane", "Perfluoro-2-iodopropane", "2-Iodoheptafluoropropane", "Isoheptafluoropropyliodide", "2-Iodoperfluoropropane", "Bis(trifluoromethyl)fluoroiodomethane", "Fluoro(iodo)bis(trifluoromethyl)methane", "2-Iodo-1,1,1,2,3,3,3-heptafluoropropane", "1,1,1,2,3,3,3-Heptafluoropropan-2-yl iodide", "1,1,1,2,3,3,3-Heptafluoro-2-propyl iodide"], "SMILES": "C(C(F)(F)F)(C(F)(F)F)(F)I", "physical_data": {"Molecular Weight": "295.93", "Molecular Formula": "C3F7I", "Boiling Point": "40 \u00b0C", "Density": "2.0990 g/cm\u00b3 @ Temp: 20 \u00b0C"}}