{"cas_no": "6770-38-3", "cn_name": "\u5bf9\u82ef\u4e8c\u7532\u57fa\u4e8c\u7532\u919a", "en_name": ["1,4-Bis(methoxymethyl)benzene", "Benzene, 1,4-bis(methoxymethyl)-", "p-Xylene, \u03b1,\u03b1\u2032-dimethoxy-", "1,4-Bis(methoxymethyl)benzene", "p-Xylylene glycol dimethyl ether", "\u03b1,\u03b1\u2032-Dimethoxy-1,4-xylene", "\u03b1,\u03b1\u2032-Dimethoxy-p-xylene", "NSC 137830", "PXDM", "p-Xylene glycol dimethyl ether"], "SMILES": "C(OC)C1=CC=C(COC)C=C1", "physical_data": {"Molecular Weight": "166.22", "Molecular Formula": "C10H14O2", "Boiling Point": "97-100 \u00b0C @ Press: 8 Torr", "Melting Point": "114-116 \u00b0C"}}