{"cas_no": "67747-09-5", "cn_name": "\u54aa\u9c9c\u80fa", "en_name": ["Prochloraz", "1H-Imidazole-1-carboxamide, N-propyl-N-[2-(2,4,6-trichlorophenoxy)ethyl]-", "N-Propyl-N-[2-(2,4,6-trichlorophenoxy)ethyl]-1H-imidazole-1-carboxamide", "BTS 40542", "Prochloraz", "BTS 40542-7877", "Sportak", "KI 835", "Prelude", "DMI", "Sportake", "Mirage", "Mirage (pesticide)", "Plocloraz", "N-Propyl-N-[2-(2,4,6-trichlorophenoxy)ethyl]imidazole-1-carboxamide"], "SMILES": "C(N(CCOC1=C(Cl)C=C(Cl)C=C1Cl)CCC)(=O)N2C=CN=C2", "physical_data": {"Molecular Weight": "376.67", "Molecular Formula": "C15H16Cl3N3O2", "Boiling Point": "209 \u00b0C", "Melting Point": "48 \u00b0C"}}