{"cas_no": "6777-05-5", "cn_name": "N-\u82c4\u57fa\u6d77\u56e0", "en_name": ["1-(Phenylmethyl)-2,4-imidazolidinedione", "2,4-Imidazolidinedione, 1-(phenylmethyl)-", "Hydantoin, 1-benzyl-", "1-(Phenylmethyl)-2,4-imidazolidinedione", "1-Benzylhydantoin", "1-Benzylimidazolidine-2,4-dione"], "SMILES": "C(N1C(=O)NC(=O)C1)C2=CC=CC=C2", "physical_data": {"Molecular Weight": "190.20", "Molecular Formula": "C10H10N2O2", "Melting Point": "252-254 \u00b0C"}}