{"cas_no": "6779-09-5", "cn_name": "\u4e59\u57fa\u78f7\u9178", "en_name": ["Ethylphosphonic acid", "Phosphonic acid, P-ethyl-", "Phosphonic acid, ethyl-", "P-Ethylphosphonic acid", "Ethanephosphonic acid", "Ethylphosphonic acid"], "SMILES": "P(CC)(=O)(O)O", "physical_data": {"Molecular Weight": "110.05", "Molecular Formula": "C2H7O3P", "Boiling Point": "330-340 \u00b0C @ Press: 8 Torr", "Melting Point": "30-35 \u00b0C"}}