{"cas_no": "678-39-7", "cn_name": "2-\u5168\u6c1f\u8f9b\u57fa\u4e59\u9187", "en_name": ["(Perfluorooctyl)ethanol", "1-Decanol, 3,3,4,4,5,5,6,6,7,7,8,8,9,9,10,10,10-heptadecafluoro-", "3,3,4,4,5,5,6,6,7,7,8,8,9,9,10,10,10-Heptadecafluoro-1-decanol", "1,1,2,2-Tetrahydroperfluorodecanol", "2-(Perfluorooctyl)ethanol", "1,1,2,2-Tetrahydroperfluorodecyl alcohol", "1H,1H,2H,2H-Perfluorodecanol", "2-(Heptadecafluorooctyl)ethanol", "PFA 8", "(Perfluorooctyl)ethanol", "2-(Perfluorooctyl)ethyl alcohol", "1H,1H,2H,2H-Perfluorodecan-1-ol", "1,1,2,2-Tetrahydroheptadecafluorodecanol", "A 1820", "\u03b2-(Heptadecafluorooctyl)ethanol", "C 1820", "1,1,2,2-Tetrahydroperfluorodecan-1-ol", "8-2 Telomer B alcohol", "8-2 Fluorotelomer alcohol", "Fluowet EA 800", "Daikin A 1820", "8:2 FTOH", "1H,1H,2H,2H-Heptadecafluoro-1-decanol", "1H,1H,2H,2H-Tetrahydroperfluoro-1-decanol", "H 817023"], "SMILES": "C(C(C(C(C(F)(F)F)(F)F)(F)F)(F)F)(C(C(C(CCO)(F)F)(F)F)(F)F)(F)F", "physical_data": {"Molecular Weight": "464.12", "Molecular Formula": "C10H5F17O", "Boiling Point": "43 \u00b0C", "Melting Point": "43 \u00b0C"}}