{"cas_no": "678-65-9", "cn_name": "1,4-\u4e8c\u4e59\u70ef\u57fa\u5168\u6c1f\u4e01\u70f7", "en_name": ["3,3,4,4,5,5,6,6-Octafluoro-1,7-octadiene", "1,7-Octadiene, 3,3,4,4,5,5,6,6-octafluoro-", "3,3,4,4,5,5,6,6-Octafluoro-1,7-octadiene", "1,4-Divinyloctafluorobutane", "1,4-Divinylperfluorobutane"], "SMILES": "C(C(C(C=C)(F)F)(F)F)(C(C=C)(F)F)(F)F", "physical_data": {"Molecular Weight": "254.12", "Molecular Formula": "C8H6F8", "Boiling Point": "123 \u00b0C", "Density": "1.361 g/cm\u00b3 @ Temp: 20 \u00b0C"}}