{"cas_no": "678-77-3", "cn_name": "\u6c2f\u5316\u516d\u6c1f\u620a\u4e8c\u9178", "en_name": ["2,2,3,3,4,4-Hexafluoropentanedioyl dichloride", "Pentanedioyl dichloride, 2,2,3,3,4,4-hexafluoro-", "Glutaryl chloride, hexafluoro-", "Pentanedioyl dichloride, hexafluoro-", "2,2,3,3,4,4-Hexafluoropentanedioyl dichloride", "Perfluoroglutaryl chloride", "Hexafluoroglutaryl chloride", "Hexafluoroglutaryl dichloride", "NSC 41888"], "SMILES": "C(C(C(Cl)=O)(F)F)(C(C(Cl)=O)(F)F)(F)F", "physical_data": {"Molecular Weight": "276.95", "Molecular Formula": "C5Cl2F6O2", "Boiling Point": "110 \u00b0C"}}