{"cas_no": "678-26-2", "cn_name": "C5-18-\u5168\u6c1f\u70f7", "en_name": ["Perfluoropentane", "Pentane, 1,1,1,2,2,3,3,4,4,5,5,5-dodecafluoro-", "Pentane, dodecafluoro-", "1,1,1,2,2,3,3,4,4,5,5,5-Dodecafluoropentane", "Dodecafluoropentane", "Perfluoropentane", "Perfluoro-n-pentane", "Flutec PP 50", "R 41(12)", "PF 5050", "Fluorinert FC 87", "FC 87", "Perflenapent", "Fluorinert PF 5050", "QW 7437", "R-4112", "PFC 41-12", "FC 4112", "NVX 108"], "SMILES": "C(C(C(F)(F)F)(F)F)(C(C(F)(F)F)(F)F)(F)F", "physical_data": {"Molecular Weight": "288.03", "Molecular Formula": "C5F12", "Boiling Point": "29.2 \u00b0C", "Melting Point": "-100 \u00b0C", "Density": "1.6200 g/cm\u00b3 @ Temp: 20 \u00b0C"}}