{"cas_no": "6780-38-7", "cn_name": "N-\u90bb\u82ef\u4e8c\u7532\u9170\u7518\u6c28\u9170\u6c2f", "en_name": ["Phthalimidoacetyl chloride", "2H-Isoindole-2-acetyl chloride, 1,3-dihydro-1,3-dioxo-", "2-Isoindolineacetyl chloride, 1,3-dioxo-", "1,3-Dihydro-1,3-dioxo-2H-isoindole-2-acetyl chloride", "Phthalimidoacetyl chloride", "Phthalylglycyl chloride", "N-Phthaloylglycyl chloride", "2-Phthalimidoacetyl chloride", "Phthalylglycine acid chloride", "N-(Phthaloyl)glycinoyl chloride", "(1,3-Dioxo-1,3-dihydroisoindol-2-yl)acetyl chloride", "NSC 401729", "(1,3-Dioxo-1,3-dihydro-2H-isoindol-2-yl)acetyl chloride", "2-(1,3-Dioxoisoindolin-2-yl)acetyl chloride", "2-Phthalimidoylacetyl chloride", "2-(1,3-Dioxoisoindol-2-yl)acetyl chloride", "2-(1,3-Dioxo-2,3-dihydro-1H-isoindol-2-yl)acetyl chloride"], "SMILES": "O=C1C=2C(C(=O)N1CC(Cl)=O)=CC=CC2", "physical_data": {"Molecular Weight": "223.61", "Molecular Formula": "C10H6ClNO3", "Boiling Point": "190-192 \u00b0C @ Press: 15 Torr", "Melting Point": "84-85 \u00b0C"}}