{"cas_no": "67808-66-6", "cn_name": "Methyl 2-formyl-4-thiophenecarboxylate", "en_name": ["3-Thiophenecarboxylic acid, 5-formyl-, methyl ester", "3-Thiophenecarboxylic acid, 5-formyl-, methyl ester", "Methyl 5-formylthiophene-3-carboxylate", "5-Formylthiophene-3-carboxylic acid methyl ester", "3-Methoxycarbonyl-thiophene-5-carboxaldehyde"], "SMILES": "C(OC)(=O)C=1C=C(C=O)SC1", "physical_data": {"Molecular Weight": "170.19", "Molecular Formula": "C7H6O3S", "Melting Point": "114-116 \u00b0C"}}