{"cas_no": "67801-07-4", "cn_name": "(E)-3-(\u4e09\u6c1f\u7532\u57fa)\u8089\u6842\u9178", "en_name": ["(2E)-3-[3-(Trifluoromethyl)phenyl]-2-propenoic acid", "2-Propenoic acid, 3-[3-(trifluoromethyl)phenyl]-, (2E)-", "2-Propenoic acid, 3-[3-(trifluoromethyl)phenyl]-, (E)-", "(2E)-3-[3-(Trifluoromethyl)phenyl]-2-propenoic acid", "(E)-m-(Trifluoromethyl)cinnamic acid", "trans-3-(Trifluoromethyl)cinnamic acid", "(E)-3-(Trifluoromethyl)cinnamic acid", "(E)-3-(3-(Trifluoromethyl)phenyl)acrylic acid", "trans-3-(3-Trifluoromethylphenyl)acrylic acid", "(E)-3-(3-Trifluoromethylphenyl)-2-propenoic acid", "trans-3-(3-Trifluoromethylphenyl)-2-propenoic acid", "(E)-3-(3-(Trifluoromethyl)phenyl)acrylic acid"], "SMILES": "C(F)(F)(F)C1=CC(C=CC(O)=O)=CC=C1", "physical_data": {"Molecular Weight": "216.16", "Molecular Formula": "C10H7F3O2", "Melting Point": "135-136 \u00b0C"}}