{"cas_no": "6780-49-0", "cn_name": "\u82ef\u4e9a\u80fa\u4ee3\u7532\u9178\u4e59\u916f", "en_name": ["Ethyl N-phenylmethanimidate", "Methanimidic acid, N-phenyl-, ethyl ester", "Formimidic acid, N-phenyl-, ethyl ester", "Ethyl N-phenylmethanimidate", "Ethyl N-phenylformimidate", "Ethyl isoformanilide", "N-(Ethoxymethylene)aniline", "N-Phenylformimidic acid ethyl ester"], "SMILES": "N(=COCC)C1=CC=CC=C1", "physical_data": {"Molecular Weight": "149.19", "Molecular Formula": "C9H11NO", "Boiling Point": "214 \u00b0C"}}