{"cas_no": "6781-17-5", "cn_name": "2-(2-\u4e59\u6c27\u57fa\u82ef\u6c27\u57fa)\u4e59\u57fa\u80fa", "en_name": ["2-(2-Ethoxyphenoxy)ethylamine", "Ethanamine, 2-(2-ethoxyphenoxy)-", "Ethylamine, 2-(o-ethoxyphenoxy)-", "2-(2-Ethoxyphenoxy)ethanamine", "2-(o-Ethoxyphenoxy)ethylamine", "\u03b2-(o-Ethoxyphenoxy)ethylamine", "2-(2-Ethoxyphenoxy)ethylamine", "1-(2-Aminoethoxy)-2-ethoxybenzene", "2-(2-Ethoxyphenoxy)ethan-1-amine"], "SMILES": "O(CCN)C1=C(OCC)C=CC=C1", "physical_data": {"Molecular Weight": "181.23", "Molecular Formula": "C10H15NO2", "Boiling Point": "96-100 \u00b0C @ Press: 0.6 Torr"}}