{"cas_no": "6781-98-2", "cn_name": "2-\u6c2f-1,3-\u4e8c\u7532\u82ef", "en_name": ["2-Chloro-1,3-dimethylbenzene", "Benzene, 2-chloro-1,3-dimethyl-", "m-Xylene, 2-chloro-", "2-Chloro-1,3-dimethylbenzene", "1-Chloro-2,6-dimethylbenzene", "2-Chloro-m-xylene", "2,6-Dimethylchlorobenzene", "2,6-Dimethylphenyl chloride", "2,6-Dimethyl-1-chlorobenzene"], "SMILES": "ClC1=C(C)C=CC=C1C", "physical_data": {"Molecular Weight": "140.61", "Molecular Formula": "C8H9Cl", "Boiling Point": "186 \u00b0C", "Melting Point": "-35 \u00b0C", "Density": "1.053 g/cm\u00b3 @ Temp: 20 \u00b0C"}}