{"cas_no": "6781-42-6", "cn_name": "1,3-\u4e8c\u4e59\u9170\u57fa\u82ef", "en_name": ["1,3-Diacetylbenzene", "Ethanone, 1,1\u2032-(1,3-phenylene)bis-", "Benzene, m-diacetyl-", "1,1\u2032-(1,3-Phenylene)bis[ethanone]", "m-Diacetylbenzene", "1,3-Diacetylbenzene", "1,3-Bis(1-oxoethyl)benzene", "2,6-Diacetylbenzene", "3-Acetylacetophenone", "1-(3-Acetylphenyl)ethanone", "m-Acetylacetophenone"], "SMILES": "C(C)(=O)C1=CC(C(C)=O)=CC=C1", "physical_data": {"Molecular Weight": "162.19", "Molecular Formula": "C10H10O2", "Boiling Point": "152 \u00b0C", "Melting Point": "32 \u00b0C"}}