{"cas_no": "67843-74-7", "cn_name": "\u53f3\u65cb\u73af\u6c27\u6c2f\u4e19\u70f7", "en_name": ["(+)-Epichlorohydrin", "Oxirane, 2-(chloromethyl)-, (2S)-", "Oxirane, (chloromethyl)-, (S)-", "Oxirane, (chloromethyl)-, (2S)-", "(2S)-2-(Chloromethyl)oxirane", "(S)-Epichlorohydrin", "(S)-(+)-Epichlorohydrin", "(S)-1-Chloro-2,3-epoxypropane", "(S)-(Chloromethyl)oxirane", "(+)-Epichlorohydrin", "2(S)-Epichlorohydrin", "(S)-Epichlorhydrin", "(+)-2-(Chloromethyl)oxirane", "(S)-2-Chloromethyloxirane", "(2S)-2-(Chloromethyl)oxirane"], "SMILES": "C(Cl)C1CO1", "physical_data": {"Molecular Weight": "92.52", "Molecular Formula": "C3H5ClO", "Boiling Point": "116 \u00b0C"}}