{"cas_no": "67852-79-3", "cn_name": "2,3,4,5-\u56db\u6c1f\u82ef\u7532\u9178\u94a0\u76d0", "en_name": ["Benzoic acid, 2,3,4,5-tetrafluoro-, sodium salt (1:1)", "Benzoic acid, 2,3,4,5-tetrafluoro-, sodium salt (1:1)", "Benzoic acid, 2,3,4,5-tetrafluoro-, sodium salt", "Sodium 2,3,4,5-tetrafluorobenzoate"], "SMILES": "C(O)(=O)C1=C(F)C(F)=C(F)C(F)=C1.[Na]", "physical_data": {"Molecular Weight": "", "Molecular Formula": "C7H2F4O2.Na", "Melting Point": "&gt;280 \u00b0C"}}