{"cas_no": "67859-96-5", "cn_name": "3,3,5-\u4e09\u7532\u57fa\u4e59\u9178\u73af\u5df1\u916f", "en_name": ["Cyclohexanol, 3,3,5-trimethyl-, 1-acetate", "Cyclohexanol, 3,3,5-trimethyl-, 1-acetate", "Cyclohexanol, 3,3,5-trimethyl-, acetate", "Homomenthyl acetate", "Homomenthol acetate", "3,3,5-Trimethylcyclohexanol acetate", "Mintonat", "(3,3,5-Trimethylcyclohexyl) acetate"], "SMILES": "O(C(C)=O)C1CC(C)(C)CC(C)C1", "physical_data": {"Molecular Weight": "184.28", "Molecular Formula": "C11H20O2", "Boiling Point": "96-97 \u00b0C @ Press: 27 Torr", "Density": "0.9197 g/cm\u00b3 @ Temp: 19 \u00b0C"}}