{"cas_no": "67859-75-0", "cn_name": "\u7532\u57fa\u5341\u516b\u70f7\u57fa\u4e8c\u4e59\u6c27\u57fa\u7845\u70f7", "en_name": ["Diethoxymethyloctadecylsilane", "Silane, diethoxymethyloctadecyl-", "Diethoxymethyloctadecylsilane", "Octadecyldiethoxymethylsilane", "Methyloctadecyldiethoxysilane", "SIO 6627.0"], "SMILES": "[Si](CCCCCCCCCCCCCCCCCC)(OCC)(OCC)C", "physical_data": {"Molecular Weight": "386.73", "Molecular Formula": "C23H50O2Si", "Boiling Point": "197 \u00b0C @ Press: 2 Torr", "Density": "0.852 g/cm\u00b3"}}