{"cas_no": "6786-36-3", "cn_name": "\u786c\u8102\u82ef\u916e", "en_name": ["Octadecanophenone", "1-Octadecanone, 1-phenyl-", "Stearophenone", "1-Phenyl-1-octadecanone", "Octadecanophenone", "1-Phenyloctadecanone", "NSC 57587"], "SMILES": "C(CCCCCCCCCCCCCCCCC)(=O)C1=CC=CC=C1", "physical_data": {"Molecular Weight": "344.57", "Molecular Formula": "C24H40O", "Boiling Point": "266 \u00b0C @ Press: 13 Torr", "Melting Point": "63.5-64.5 \u00b0C"}}