{"cas_no": "67868-84-2", "cn_name": "2-\u7f9f\u57fa-5-(\u7532\u57fa\u786b\u4ee3)\u82ef\u7532\u919b", "en_name": ["2-Hydroxy-5-(methylthio)benzaldehyde", "Benzaldehyde, 2-hydroxy-5-(methylthio)-", "2-Hydroxy-5-(methylthio)benzaldehyde", "5-(Methylthio)salicylaldehyde", "2-Hydroxy-5-methylsulfanylbenzaldehyde"], "SMILES": "C(=O)C1=CC(SC)=CC=C1O", "physical_data": {"Molecular Weight": "168.21", "Molecular Formula": "C8H8O2S", "Boiling Point": "114-118 \u00b0C @ Press: 4 Torr"}}