{"cas_no": "67868-73-9", "cn_name": "5-\u6eb4-2-\u7532\u57fa\u82ef\u7532\u919a", "en_name": ["4-Bromo-2-methoxy-1-methylbenzene", "Benzene, 4-bromo-2-methoxy-1-methyl-", "4-Bromo-2-methoxy-1-methylbenzene", "5-Bromo-2-methylanisole", "4-Bromo-2-methoxytoluene", "3-Bromo-6-methylanisole", "2-Methoxy-4-bromotoluene", "3-Methoxy-4-methylphenyl bromide", "2-Methyl-5-bromoanisole", "1-Bromo-3-methoxy-4-methylbenzene"], "SMILES": "O(C)C1=C(C)C=CC(Br)=C1", "physical_data": {"Molecular Weight": "201.06", "Molecular Formula": "C8H9BrO", "Boiling Point": "108 \u00b0C @ Press: 15 Torr", "Melting Point": "144-145 \u00b0C"}}