{"cas_no": "67879-58-7", "cn_name": "\u5496\u5561\u9170\u57fa\u9152\u77f3\u9178", "en_name": ["Caftaric acid", "Butanedioic acid, 2-[[(2E)-3-(3,4-dihydroxyphenyl)-1-oxo-2-propen-1-yl]oxy]-3-hydroxy-, (2R,3R)-", "Butanedioic acid, 2-[[3-(3,4-dihydroxyphenyl)-1-oxo-2-propenyl]oxy]-3-hydroxy-, [R-[R*,R*-(E)]]-", "Butanedioic acid, 2-[[(2E)-3-(3,4-dihydroxyphenyl)-1-oxo-2-propenyl]oxy]-3-hydroxy-, (2R,3R)-", "(2R,3R)-2-[[(2E)-3-(3,4-Dihydroxyphenyl)-1-oxo-2-propen-1-yl]oxy]-3-hydroxybutanedioic acid", "Caftaric acid", "trans-Caftaric acid"], "SMILES": "C(OC(C=CC1=CC(O)=C(O)C=C1)=O)(C(C(O)=O)O)C(O)=O", "physical_data": {"Molecular Weight": "312.23", "Molecular Formula": "C13H12O9", "Melting Point": "123-125 \u00b0C"}}