{"cas_no": "6789-94-2", "cn_name": "3-\u6c28\u57fa-N-\u4e59\u57fa\u54cc\u5576", "en_name": ["1-Ethyl-3-piperidinamine", "3-Piperidinamine, 1-ethyl-", "Piperidine, 3-amino-1-ethyl-", "1-Ethyl-3-piperidinamine", "N-Ethyl-3-aminopiperidine", "3-Amino-1-ethylpiperidine", "1-Ethyl-3-aminopiperidine", "3-Amino-N-ethylpiperidine", "1-Ethylpiperidin-3-ylamine", "NSC 76077"], "SMILES": "C(C)N1CC(N)CCC1", "physical_data": {"Molecular Weight": "128.22", "Molecular Formula": "C7H16N2", "Boiling Point": "155 \u00b0C"}}