{"cas_no": "67892-56-2", "cn_name": "\u4e8c\u5341\u4e8c\u70f7\u57fa\u7532\u57fa\u4e8c\u6c2f\u5316\u7845\u70f7", "en_name": ["Dichlorodocosylmethylsilane", "Silane, dichlorodocosylmethyl-", "Dichlorodocosylmethylsilane"], "SMILES": "C(CCCCCCCCCCCCCCCCCCC)CC[Si](C)(Cl)Cl", "physical_data": {"Molecular Weight": "423.62", "Molecular Formula": "C23H48Cl2Si", "Boiling Point": "218-220 \u00b0C @ Press: 0.5 Torr"}}