{"cas_no": "6789-88-4", "cn_name": "\u82ef\u7532\u9178\u5df1\u916f", "en_name": ["Hexyl benzoate", "Benzoic acid, hexyl ester", "Hexyl benzoate", "n-Hexyl benzoate", "1-Hexyl benzoate", "Hexyl alcohol, benzoate"], "SMILES": "C(OCCCCCC)(=O)C1=CC=CC=C1", "physical_data": {"Molecular Weight": "206.28", "Molecular Formula": "C13H18O2", "Boiling Point": "272 \u00b0C @ Press: 770 Torr", "Density": "0.971 g/cm\u00b3 @ Temp: 25 \u00b0C"}}