{"cas_no": "6789-80-6", "cn_name": "(Z)-3-\u5df1\u70ef\u919b", "en_name": ["(Z)-3-Hexenal", "3-Hexenal, (3Z)-", "3-Hexenal, (Z)-", "3-Hexenal, cis-", "(3Z)-3-Hexenal", "cis-3-Hexenal", "3-(Z)-Hexenal", "(Z)-3-Hexenal", "(Z)-Hex-3-enal"], "SMILES": "C(=CCC)CC=O", "physical_data": {"Molecular Weight": "98.14", "Molecular Formula": "C6H10O", "Boiling Point": "121 \u00b0C", "Density": "0.8533 g/cm\u00b3 @ Temp: 20 \u00b0C"}}