{"cas_no": "679-85-6", "cn_name": "1-\u6c2f-2,2,3,3-\u56db\u6c1f\u4e19\u70f7", "en_name": ["3-Chloro-1,1,2,2-tetrafluoropropane", "Propane, 3-chloro-1,1,2,2-tetrafluoro-", "3-Chloro-1,1,2,2-tetrafluoropropane", "R 244ca", "1-Chloro-2,2,3,3-tetrafluoropropane", "HCFC 244ca"], "SMILES": "C(C(F)F)(CCl)(F)F", "physical_data": {"Molecular Weight": "150.50", "Molecular Formula": "C3H3ClF4", "Boiling Point": "50-51 \u00b0C", "Melting Point": "-110 \u00b0C", "Density": "1.43 g/cm\u00b3 @ Temp: 20 \u00b0C"}}