{"cas_no": "679-87-8", "cn_name": "2,2,3,3-\u56db\u6c1f\u7898\u4ee3\u4e19\u70f7", "en_name": ["1,1,2,2-Tetrafluoro-3-iodopropane", "Propane, 1,1,2,2-tetrafluoro-3-iodo-", "1,1,2,2-Tetrafluoro-3-iodopropane", "2,2,3,3-Tetrafluoropropyl iodide", "2,2,3,3-Tetrafluoro-1-iodopropane", "1-Iodo-2,2,3,3-tetrafluoropropane", "3-Iodo-1,1,2,2-tetrafluoropropane"], "SMILES": "C(C(F)F)(CI)(F)F", "physical_data": {"Molecular Weight": "241.95", "Molecular Formula": "C3H3F4I", "Boiling Point": "95 \u00b0C"}}