{"cas_no": "6790-58-5", "cn_name": "\u964d\u9f99\u6d8e\u9999\u919a", "en_name": ["(-)-Ambrox", "Naphtho[2,1-b]furan, dodecahydro-3a,6,6,9a-tetramethyl-, (3aR,5aS,9aS,9bR)-", "Naphtho[2,1-b]furan, dodecahydro-3a,6,6,9a-tetramethyl-, [3aR-(3a\u03b1,5a\u03b2,9a\u03b1,9b\u03b2)]-", "(3aR,5aS,9aS,9bR)-Dodecahydro-3a,6,6,9a-tetramethylnaphtho[2,1-b]furan", "Ambroxide", "Ambrox", "(-)-Ambrox", "(-)-Norlabdane oxide", "(-)-Ambroxide", "Amberlyn Super PM 577", "Amberlyn Super", "Ambroxane", "(-)-Ambroxan", "Ambrafuran", "(3aR,5aS,9aS,9bR)-3a,6,6,9a-Tetramethyldodecahydronaphtho[2,1-b]furan", "(3aR,5aS,9aS,9bR)-3a,6,6,9a-Tetramethyldodecahydronaphtho[2,1-b]furan", "Ambrofix", "Ambermor Ex"], "SMILES": "CC12C3C(C)(CCC1C(C)(C)CCC2)OCC3", "physical_data": {"Molecular Weight": "236.39", "Molecular Formula": "C16H28O", "Melting Point": "74-76 \u00b0C"}}