{"cas_no": "67914-97-0", "cn_name": "1-\u5f02\u4e19\u57fa-4-(4-\u7f9f\u57fa\u82ef\u57fa)\u54cc\u55ea", "en_name": ["4-[4-(1-Methylethyl)-1-piperazinyl]phenol", "Phenol, 4-[4-(1-methylethyl)-1-piperazinyl]-", "4-[4-(1-Methylethyl)-1-piperazinyl]phenol", "4-(4-Isopropylpiperazin-1-yl)phenol"], "SMILES": "C(C)(C)N1CCN(CC1)C2=CC=C(O)C=C2", "physical_data": {"Molecular Weight": "220.31", "Molecular Formula": "C13H20N2O", "Melting Point": "274.4 \u00b0C"}}