{"cas_no": "67914-60-7", "cn_name": "1-\u4e59\u9170\u57fa-4-(4-\u7f9f\u57fa\u82ef\u57fa)\u54cc\u55ea", "en_name": ["1-Acetyl-4-(4-hydroxyphenyl)piperazine", "Ethanone, 1-[4-(4-hydroxyphenyl)-1-piperazinyl]-", "Piperazine, 1-acetyl-4-(4-hydroxyphenyl)-", "1-[4-(4-Hydroxyphenyl)-1-piperazinyl]ethanone", "T 1141", "1-Acetyl-4-(p-hydroxyphenyl)piperazine", "1-Acetyl-4-(4-hydroxyphenyl)piperazine", "4-(4-Acetylpiperazino)phenol", "1-[4-(4-Hydroxyphenyl)piperazin-1-yl]ethanone", "4-(4-Acetylpiperazin-1-yl)phenol", "1-[4-(4-Hydroxyphenyl)piperazin-1-yl]ethan-1-one"], "SMILES": "C(C)(=O)N1CCN(CC1)C2=CC=C(O)C=C2", "physical_data": {"Molecular Weight": "220.27", "Molecular Formula": "C12H16N2O2", "Melting Point": "180 \u00b0C"}}