{"cas_no": "67914-86-7", "cn_name": "cis-\u7532\u78fa\u9178-[2-(2,4-\u4e8c\u6c2f\u82ef\u57fa)-2-(1H-1,2,4-\u4e09\u5511-1-\u57fa\u7532\u57fa)-1,3-\u4e8c\u6c27\u620a\u73af-4-\u57fa]\u7532\u916f", "en_name": ["1,3-Dioxolane-4-methanol, 2-(2,4-dichlorophenyl)-2-(1H-1,2,4-triazol-1-ylmethyl)-, 4-methanesulfonate, (2R,4R)-rel-", "1,3-Dioxolane-4-methanol, 2-(2,4-dichlorophenyl)-2-(1H-1,2,4-triazol-1-ylmethyl)-, 4-methanesulfonate, (2R,4R)-rel-", "1,3-Dioxolane-4-methanol, 2-(2,4-dichlorophenyl)-2-(1H-1,2,4-triazol-1-ylmethyl)-, methanesulfonate (ester), cis-", "1,3-Dioxolane-4-methanol, 2-(2,4-dichlorophenyl)-2-(1H-1,2,4-triazol-1-ylmethyl)-, methanesulfonate (ester), (2R,4R)-rel-"], "SMILES": "C(C1(OC(COS(C)(=O)=O)CO1)C2=C(Cl)C=C(Cl)C=C2)N3C=NC=N3", "physical_data": {"Molecular Weight": "408.26", "Molecular Formula": "C14H15Cl2N3O5S", "Melting Point": "98 \u00b0C"}}