{"cas_no": "67911-21-1", "cn_name": "\u5361\u9f99\u9178\u9150", "en_name": ["6,6-Dimethyl-3-oxabicyclo[3.1.0]hexane-2,4-dione", "3-Oxabicyclo[3.1.0]hexane-2,4-dione, 6,6-dimethyl-", "6,6-Dimethyl-3-oxabicyclo[3.1.0]hexane-2,4-dione", "Caronic anhydride", "cis-Caronic anhydride", "3,3-Dimethyl-1,2-cyclopropanedicarboxylic anhydride"], "SMILES": "CC1(C)C2C1C(=O)OC2=O", "physical_data": {"Molecular Weight": "140.14", "Molecular Formula": "C7H8O3", "Boiling Point": "143 \u00b0C @ Press: 20 Torr", "Melting Point": "56 \u00b0C"}}