{"cas_no": "67914-61-8", "cn_name": "\u916e\u5eb7\u5511\u6742\u8d28D", "en_name": ["Deacetylketoconazole", "Piperazine, 1-[4-[[(2R,4S)-2-(2,4-dichlorophenyl)-2-(1H-imidazol-1-ylmethyl)-1,3-dioxolan-4-yl]methoxy]phenyl]-, rel-", "Piperazine, 1-[4-[[2-(2,4-dichlorophenyl)-2-(1H-imidazol-1-ylmethyl)-1,3-dioxolan-4-yl]methoxy]phenyl]-, cis-", "rel-1-[4-[[(2R,4S)-2-(2,4-Dichlorophenyl)-2-(1H-imidazol-1-ylmethyl)-1,3-dioxolan-4-yl]methoxy]phenyl]piperazine", "Deacylketoconazole", "R 39519", "Deacetylketoconazole", "N-Deacetylketoconazole"], "SMILES": "C(C1(OC(COC2=CC=C(C=C2)N3CCNCC3)CO1)C4=C(Cl)C=C(Cl)C=C4)N5C=CN=C5", "physical_data": {"Molecular Weight": "489.39", "Molecular Formula": "C24H26Cl2N4O3", "Melting Point": "173 \u00b0C"}}