{"cas_no": "67915-31-5", "cn_name": "\u66f2\u5eb7\u5511", "en_name": ["Terconazole", "Piperazine, 1-[4-[[(2R,4S)-2-(2,4-dichlorophenyl)-2-(1H-1,2,4-triazol-1-ylmethyl)-1,3-dioxolan-4-yl]methoxy]phenyl]-4-(1-methylethyl)-, rel-", "Piperazine, 1-[4-[[2-(2,4-dichlorophenyl)-2-(1H-1,2,4-triazol-1-ylmethyl)-1,3-dioxolan-4-yl]methoxy]phenyl]-4-(1-methylethyl)-, cis-", "rel-1-[4-[[(2R,4S)-2-(2,4-Dichlorophenyl)-2-(1H-1,2,4-triazol-1-ylmethyl)-1,3-dioxolan-4-yl]methoxy]phenyl]-4-(1-methylethyl)piperazine", "Triaconazole", "Terconazole", "Gyno-Terazol", "Terazol", "Terazol Cream &", "Suppositories", "R 42470", "Fungistat", "Tercospor", "NSC 331942", "(\u00b1)-Terconazole", "Termayazole"], "SMILES": "C(C1(OC(COC2=CC=C(C=C2)N3CCN(C(C)C)CC3)CO1)C4=C(Cl)C=C(Cl)C=C4)N5C=NC=N5", "physical_data": {"Molecular Weight": "532.46", "Molecular Formula": "C26H31Cl2N5O3", "Melting Point": "126.3 \u00b0C"}}