{"cas_no": "67929-86-6", "cn_name": "5-\u7532\u6c27\u57fa\u5432\u54da-2-\u7fa7\u9178\u7532\u916f", "en_name": ["1H-Indole-2-carboxylic acid, 5-methoxy-, methyl ester", "1H-Indole-2-carboxylic acid, 5-methoxy-, methyl ester", "Methyl 5-methoxy-1H-indole-2-carboxylate", "Methyl 5-methoxy-2-indolecarboxylate", "5-Methoxy-1H-indole-2-carboxylic acid methyl ester"], "SMILES": "C(OC)(=O)C1=CC=2C(N1)=CC=C(OC)C2", "physical_data": {"Molecular Weight": "205.21", "Molecular Formula": "C11H11NO3", "Melting Point": "177 \u00b0C"}}