{"cas_no": "6793-92-6", "cn_name": "4-\u82c4\u6c27\u57fa\u6eb4\u82ef", "en_name": ["1-(Benzyloxy)-4-bromobenzene", "Benzene, 1-bromo-4-(phenylmethoxy)-", "Ether, benzyl p-bromophenyl", "1-Bromo-4-(phenylmethoxy)benzene", "p-Bromophenyl benzyl ether", "4-(Benzyloxy)bromobenzene", "1-(Benzyloxy)-4-bromobenzene", "Benzyl p-bromophenyl ether", "Benzyl 4-bromophenyl ether", "p-(Benzyloxy)bromobenzene", "p-(Benzyloxy)phenyl bromide", "1-Bromo-4-(benzyloxy)benzene", "4-Benzyloxy-1-bromobenzene", "1-Bromo-4-[(phenylmethyl)oxy]benzene", "4-Bromophenyl benzyl ether"], "SMILES": "O(CC1=CC=CC=C1)C2=CC=C(Br)C=C2", "physical_data": {"Molecular Weight": "263.13", "Molecular Formula": "C13H11BrO", "Boiling Point": "164-186 \u00b0C @ Press: 7 Torr", "Melting Point": "64-65 \u00b0C"}}