{"cas_no": "6795-23-9", "cn_name": "\u9ec4\u66f2\u9709\u6bd2\u7d20 M1", "en_name": ["Aflatoxin M1", "Cyclopenta[c]furo[3\u2032,2\u2032:4,5]furo[2,3-h][1]benzopyran-1,11-dione, 2,3,6a,9a-tetrahydro-9a-hydroxy-4-methoxy-, (6aR,9aR)-", "Cyclopenta[c]furo[3\u2032,2\u2032:4,5]furo[2,3-h][1]benzopyran-1,11-dione, 2,3,6a,9a-tetrahydro-9a-hydroxy-4-methoxy-, (6aR-cis)-", "1-Cyclopentene-1-carboxylic acid, 2-(3a,8a-dihydro-3a,4-dihydroxy-6-methoxyfuro[2,3-b]benzofuran-5-yl)-5-oxo-, \u03b4-lactone", "(6aR,9aR)-2,3,6a,9a-Tetrahydro-9a-hydroxy-4-methoxycyclopenta[c]furo[3\u2032,2\u2032:4,5]furo[2,3-h][1]benzopyran-1,11-dione", "AFM1", "Aflatoxin M1", "MeSH ID: D016607"], "SMILES": "OC12C=3C4=C(C5=C(C(=O)O4)C(=O)CC5)C(OC)=CC3OC1OC=C2", "physical_data": {"Molecular Weight": "328.27", "Molecular Formula": "C17H12O7", "Melting Point": "299 \u00b0C"}}