{"cas_no": "6795-87-5", "cn_name": "\u7532\u57fa\u4ef2\u4e01\u57fa\u919a", "en_name": ["2-Methoxybutane", "Butane, 2-methoxy-", "Ether, sec-butyl methyl", "2-Methoxybutane", "Methyl sec-butyl ether", "sec-Butyl methyl ether", "Methyl 1-methylpropyl ether", "2-Butyl methyl ether", "(\u00b1)-2-Methoxybutane", "(\u00b1)-Methyl 2-butyl ether"], "SMILES": "C(CC)(OC)C", "physical_data": {"Molecular Weight": "88.15", "Molecular Formula": "C5H12O", "Boiling Point": "65 \u00b0C", "Melting Point": "-100 \u00b0C", "Density": "0.7621 g/cm\u00b3 @ Temp: 0 \u00b0C"}}