{"cas_no": "67967-14-0", "cn_name": "5-\u6eb4-[1,7]\u8418\u5576-8-\u9187", "en_name": ["5-Bromo-1,7-naphthyridin-8(7H)-one", "1,7-Naphthyridin-8(7H)-one, 5-bromo-", "5-Bromo-1,7-naphthyridin-8(7H)-one", "5-Bromo-8-hydroxy-1,7-naphthyridine"], "SMILES": "BrC=1C=2C(C(=O)NC1)=NC=CC2", "physical_data": {"Molecular Weight": "225.04", "Molecular Formula": "C8H5BrN2O", "Melting Point": "333-335 \u00b0C"}}