{"cas_no": "67979-25-3", "cn_name": "\u6a59\u9ec4\u51b3\u660e\u7d20", "en_name": ["Aurantioobtusin", "9,10-Anthracenedione, 1,3,7-trihydroxy-2,8-dimethoxy-6-methyl-", "1,3,7-Trihydroxy-2,8-dimethoxy-6-methyl-9,10-anthracenedione", "Aurantioobtusin"], "SMILES": "O(C)C1=C2C(C(=O)C=3C(C2=O)=C(O)C(OC)=C(O)C3)=CC(C)=C1O", "physical_data": {"Molecular Weight": "330.29", "Molecular Formula": "C17H14O7", "Melting Point": "265-266 \u00b0C"}}