{"cas_no": "67973-32-4", "cn_name": "3,5-\u4e8c\u6eb4-4-\u7532\u57fa\u82ef\u7532\u9178", "en_name": ["3,5-Dibromo-4-methylbenzoic acid", "Benzoic acid, 3,5-dibromo-4-methyl-", "p-Toluic acid, 3,5-dibromo-", "3,5-Dibromo-4-methylbenzoic acid"], "SMILES": "C(O)(=O)C1=CC(Br)=C(C)C(Br)=C1", "physical_data": {"Molecular Weight": "293.94", "Molecular Formula": "C8H6Br2O2", "Melting Point": "239.5-240.5 \u00b0C"}}