{"cas_no": "6797-79-1", "cn_name": "4-\u6c2f-2-\u6c1f-1-\u7898\u82ef", "en_name": ["4-Chloro-2-fluoro-1-iodobenzene", "Benzene, 4-chloro-2-fluoro-1-iodo-", "4-Chloro-2-fluoro-1-iodobenzene", "4-Chloro-2-fluoroiodobenzene", "2-Fluoro-4-chloroiodobenzene"], "SMILES": "FC1=C(I)C=CC(Cl)=C1", "physical_data": {"Molecular Weight": "256.44", "Molecular Formula": "C6H3ClFI", "Boiling Point": "206 \u00b0C"}}