{"cas_no": "6797-13-3", "cn_name": "2-\u4e59\u57fa\u82ef\u5e76\u6076\u5511", "en_name": ["2-Ethylbenzoxazole", "Benzoxazole, 2-ethyl-", "2-Ethylbenzoxazole", "2-Ethyl-1,3-benzoxazole", "2-Ethylbenzo[d]oxazole"], "SMILES": "C(C)C1=NC=2C(O1)=CC=CC2", "physical_data": {"Molecular Weight": "147.17", "Molecular Formula": "C9H9NO", "Boiling Point": "210 \u00b0C", "Melting Point": "214-217 \u00b0C", "Density": "1.081 g/cm\u00b3 @ Temp: 20 \u00b0C"}}