{"cas_no": "67984-81-0", "cn_name": "2,3-\u4e8c\u7f9f\u57fa\u82ef\u7532\u8148", "en_name": ["2,3-Dihydroxybenzonitrile", "Benzonitrile, 2,3-dihydroxy-", "o-Pyrocatechunitrile", "2,3-Dihydroxybenzonitrile"], "SMILES": "C(#N)C1=C(O)C(O)=CC=C1", "physical_data": {"Molecular Weight": "135.12", "Molecular Formula": "C7H5NO2", "Melting Point": "192-193 \u00b0C"}}