{"cas_no": "67990-66-3", "cn_name": "2-[(2-\u6c28\u57fa-4-\u6c2f\u82ef\u57fa)\u6c28\u57fa]\u82ef\u7532\u9178", "en_name": ["N-(2-Amino-4-chlorophenyl)anthranilic acid", "Benzoic acid, 2-[(2-amino-4-chlorophenyl)amino]-", "Anthranilic acid, N-(2-amino-4-chlorophenyl)-", "2-[(2-Amino-4-chlorophenyl)amino]benzoic acid", "N-(2-Amino-4-chlorophenyl)anthranilic acid", "2-(2-Amino-4-chloroanilino)benzoic acid"], "SMILES": "N(C1=C(C(O)=O)C=CC=C1)C2=C(N)C=C(Cl)C=C2", "physical_data": {"Molecular Weight": "262.69", "Molecular Formula": "C13H11ClN2O2", "Melting Point": "190-195 \u00b0C"}}