{"cas_no": "68-05-3", "cn_name": "\u56db\u4e59\u57fa\u7898\u5316\u94f5", "en_name": ["Tetraethylammonium iodide", "Ethanaminium, N,N,N-triethyl-, iodide (1:1)", "Tetraethylammonium iodide", "Ammonium, tetraethyl-, iodide", "Ethanaminium, N,N,N-triethyl-, iodide", "Tetamon iodide", "Tetramon J", "TEA", "TEA iodide"], "SMILES": "[N+](CC)(CC)(CC)CC.[I-]", "physical_data": {"Molecular Weight": "", "Molecular Formula": "C8H20N.I", "Melting Point": "300 \u00b0C"}}