{"cas_no": "68-12-2", "cn_name": "N,N-\u4e8c\u7532\u57fa\u7532\u9170\u80fa", "en_name": ["Dimethylformamide", "Formamide, N,N-dimethyl-", "N,N-Dimethylformamide", "Dimethylformamide", "DMF", "N-Formyldimethylamine", "DMFA", "DMF (amide)", "N,N-Dimethylmethanamide", "N,N-Dimethylformaldehyde", "Virodene-P 058", "NSC 5356", "D 165635", "MeSH ID: D004126"], "SMILES": "N(C=O)(C)C", "physical_data": {"Molecular Weight": "73.09", "Molecular Formula": "C3H7NO", "Boiling Point": "153 \u00b0C @ Press: 760 Torr", "Melting Point": "-61 \u00b0C", "Density": "0.9445 g/cm\u00b3 @ Temp: 25 \u00b0C"}}