{"cas_no": "68-11-1", "cn_name": "\u5def\u57fa\u4e59\u9178", "en_name": ["Thioglycolic acid", "Acetic acid, 2-mercapto-", "Acetic acid, mercapto-", "2-Mercaptoacetic acid", "Glycolic acid, 2-thio-", "Thiovanic acid", "2-Thioglycolic acid", "Thioglycolic acid", "\u03b1-Mercaptoacetic acid", "Mercaptoacetic acid", "2-Mercaptoethanoic acid", "Sulfhydrylacetic acid", "NSC 1894", "TGA", "2-Sulfanylacetic acid"], "SMILES": "C(CS)(O)=O", "physical_data": {"Molecular Weight": "92.12", "Molecular Formula": "C2H4O2S", "Boiling Point": "120 \u00b0C @ Press: 20 Torr", "Melting Point": "-16.5 \u00b0C", "Density": "1.3253 g/cm\u00b3 @ Temp: 20 \u00b0C"}}