{"cas_no": "68-19-9", "cn_name": "\u7ef4\u751f\u7d20 B12", "en_name": ["Vitamin B12", "Vitamin B12", "Anacobin", "Betalin 12", "Betaline 12", "Byladoce", "Cobalin", "Cotel", "Covit", "Crystamin", "Cyano-B12", "Cyanocobalamin", "Cyanocobalamine", "Cycolamin", "Cykobeminet", "Cytacon", "Cytamen", "Cytobion", "5,6-Dimethylbenzimidazolyl cyanocobamide", "Dobetin", "Docemine", "Docibin", "Docigram", "Dodecabee", "Dodecavite", "Dodex", "Ducobee", "Duodecibin", "Embiol", "Emociclina", "Eritrone", "Erycytol", "Erythrotin", "Euhaemon", "Extrinsic factor", "Fresmin", "Hemo-b-doze", "Hemomin", "Hepagon", "Hepavis", "Hepcovite", "Lactobacillus lactis dorner factor", "LLD factor", "Macrabin", "Megalovel", "Milbedoce", "Nagravon", "Normocytin", "Pernaemon", "Pernaevit", "Pernipuron", "Plecyamin", "Poyamin", "Rebramin", "Redamina", "Redisol", "Rhodacryst", "Rubesol", "Rubramin", "Rubripca", "Rubrocitol", "Sytobex", "B-Twelve", "B-Twelve Ora", "Vibalt", "Vibisone", "Virubra", "Vitarubin", "Vita-rubra", "Vitral", "Cobalamin, cyanide", "Cobalamin, cyano-", "Cobamin", "Cykobemin", "Factor II (vitamin)", "Cobamide, \u03b1-5,6-dimethyl-1H-benzimidazolyl-, cyanide", "1H-Benzimidazole, 5,6-dimethyl-1-(3-O-phosphono-\u03b1-D-ribofuranosyl)-, monoester with cobinamide cyanide, inner salt", "Cobamide, cyano-5,6-dimethyl-1H-benzimidazole-", "Cyano-5,6-dimethylbenzimidazolylcobamide", "5,6-Dimethylbenzimidazolyl-Co-cyanocobamide", "Vitamin B12 preparation", "Betolvex", "Cobalamin, cyano-5,6-dimethylbenzimidazole-", "CN-B12", "Factor II", "Depinar", "Cobinamide, cyanide, dihydrogen phosphate (ester), inner salt, 3\u2032-ester with 5,6-dimethyl-1-\u03b1-D-ribofuranosyl-1H-benzimidazole", "Hepavit", "Docivit", "Behepan", "Bedoz", "Berubigen", "Antipernicin", "Rubramin PC", "Millevit", "Berubi", "Vitasprint B12", "Dicopac Kit", "Betalin 12 Crystalline", "Crystamine", "Bedodeka", "Cyredin", "Cyomin", "SMARTShot B12", "NSC 80365", "Cromatonbic B12", "Regividerm cream", "Rheumazin", "Nascobal", "Rubivamine", "Apikobal", "Eligen B12", "Optovite B12", "Castle's factor", "Castle's extrinsic factor", "Castle's gastric factor"], "SMILES": "[C-](#N)[Co+3]1234[N]=5[C@@]6(C)[C@@]7([N-]1C([C@@](C)([C@H]7CC(N)=O)CCC(=O)NC[C@@H](C)OP(=O)([O-])O[C@H]8C(O)([C@@H](N9C=[N]2C=%10C9=CC(C)=C(C)C%10)O[C@@H]8CO)[H])=C(C)C%11=[N]3C(=CC%12=[N]4C(=C(C)C5[C@@H](CCC(N)=O)[C@@]6(CC(N)=O)C)[C@](CC(N)=O)(C)[C@@H]%12CCC(N)=O)C(C)(C)[C@@H]%11CCC(N)=O)[H]", "physical_data": {"Molecular Weight": "", "Molecular Formula": "C63H88CoN14O14P", "Boiling Point": "&gt;300 \u00b0C", "Melting Point": "&gt;300 \u00b0C"}}