{"cas_no": "68-26-8", "cn_name": "\u89c6\u9ec4\u9187", "en_name": ["Retinol", "Retinol", "Retinol, all-trans-", "Acon", "Afaxin", "Agiolan", "Alphalin", "Alphasterol", "Anatola", "Anti-Infective vitamin", "Antixerophthalmic vitamin", "Anatola A", "Apexol", "Aquasynth", "Aoral", "Atav", "Avibon", "Avita", "Avitol", "Biosterol", "Disatabs Tabs", "Dofsol", "Epiteliol", "Hi-A-Vita", "Lard Factor", "Myvpack", "2,4,6,8-Nonatetraen-1-ol, 3,7-dimethyl-9-(2,6,6-trimethyl-1-cyclohexen-1-yl)-, (all-E)-", "Oleovitamin a", "Ophthalamin", "Prepalin", "Testavol", "Vaflol", "Vi-Alpha", "Vitamin A1", "Vitamin A1 alcohol", "Vitpex", "Vogan", "all-trans-Retinol", "Vitamin A alcohol", "all-trans-Vitamin A alcohol", "Vitamin A alcohol, all-trans-", "Vitamin A1 alcohol, all-trans-", "Vitamin A1, all-trans-", "Axerophthol", "trans-Retinol", "all-trans-Retinyl alcohol", "Apostavit", "Axerol", "Dohyfral A", "Nio-A-Let", "Vitavel A", "Vogan-Neu", "trans-Vitamin A alcohol", "\u03b2-Retinol", "Vitamin A", "Plivit A", "A-Mulsal", "Agoncal", "Alcovit A", "Veroftal", "A-Vi-Pel", "Bentavit A", "all-trans-Vitamin A", "(all-E)-3,7-Dimethyl-9-(2,6,6-trimethyl-1-cyclohexen-1-yl)-2,4,6,8-nonatetraen-1-ol", "all-trans-Vitamin A1", "Thalasphere", "Cylasphere", "Aquasol A Parenteral", "A-Sol", "Vi-Dom-A", "A-Vitan", "NSC 122759", "Retinol 50C", "Retinyl A", "Tegosphere VitA", "Tagravit R 1", "Riken Dry A-S 200PT"], "SMILES": "C(=CC(=CC=CC(=CCO)C)C)C=1C(C)(C)CCCC1C", "physical_data": {"Molecular Weight": "286.45", "Molecular Formula": "C20H30O", "Boiling Point": "137-138 \u00b0C @ Press: 1 x 10<sup>-6</sup> Torr", "Melting Point": "62-64 \u00b0C"}}