{"cas_no": "68-23-5", "cn_name": "\u5f02\u7094\u8bfa\u916e", "en_name": ["Norethynodrel", "19-Norpregn-5(10)-en-20-yn-3-one, 17-hydroxy-, (17\u03b1)-", "19-Nor-17\u03b1-pregn-5(10)-en-20-yn-3-one, 17-hydroxy-", "(17\u03b1)-17-Hydroxy-19-norpregn-5(10)-en-20-yn-3-one", "17\u03b1-Ethinyl-17\u03b2-hydroxy-\u03945(10)-estren-3-one", "17\u03b1-Ethynylestr-5(10)-ene-17\u03b2-ol-3-one", "17\u03b1-Ethynyl-17-hydroxy-5(10)-estren-3-one", "17\u03b1-Ethynyl-17\u03b2-hydroxy-\u03945(10)-estren-3-one", "3-Oxo-17\u03b2-hydroxy-17\u03b1-ethynyl-5(10)-estrene", "17-Hydroxy-19-nor-17\u03b1-pregn-5(10)-en-20-yn-3-one", "17\u03b1-Ethynylestra-5(10)-ene-17\u03b2-ol-3-one", "Norethynodrel", "17\u03b2-Hydroxy-19-nor-17\u03b1-pregn-5(10)-en-20-yn-3-one", "Norethinodrel", "13-Methyl-17-ethynyl-17-hydroxy-1,2,3,4,6,7,8,9,11,12,13,14,16,17-tetradecahydro-15H-cyclopenta[a]phenanthren-3-one", "Enidrel", "17\u03b1-Ethynyl-17\u03b2-hydroxy-5(10)-estrene-3-one", "Noretynodrel", "SC 4642", "NSC 15432", "MeSH ID: D009641"], "SMILES": "CC12C(C3C(CC1)C4=C(CC3)CC(=O)CC4)CCC2(C#C)O", "physical_data": {"Molecular Weight": "298.42", "Molecular Formula": "C20H26O2", "Melting Point": "169-170 \u00b0C"}}