{"cas_no": "68-22-4", "cn_name": "\u7094\u8bfa\u916e", "en_name": ["Norethindrone", "19-Norpregn-4-en-20-yn-3-one, 17-hydroxy-, (17\u03b1)-", "19-Nor-17\u03b1-pregn-4-en-20-yn-3-one, 17-hydroxy-", "(17\u03b1)-17-Hydroxy-19-norpregn-4-en-20-yn-3-one", "17\u03b1-Ethinylestr-4-en-17\u03b2-ol-3-one", "17\u03b1-Ethinyl-17\u03b2-hydroxy-\u03944-estren-3-one", "17\u03b1-Ethinyl-19-nortestosterone", "17\u03b1-Ethynyl-17-hydroxy-4-estrene-3-one", "17\u03b1-Ethynyl-17\u03b2-hydroxyestr-4-en-3-one", "17\u03b1-Ethynyl-17\u03b2-hydroxy-19-norandrost-4-en-3-one", "17\u03b1-Ethynyl-19-nor-androst-4-en-17\u03b2-ol-3-one", "17-Hydroxy-19-nor-17\u03b1-pregn-4-en-20 yn-3-one", "17\u03b1-Ethynyl-19-nortestosterone", "Norethindrone", "Norethisteron", "Norethisterone", "19-Nor-17\u03b1-ethynylandrosten-17\u03b2-ol-3-one", "19-Nor-17\u03b1-ethynyl-17\u03b2-hydroxy-4-androsten-3-one", "19-Nor-17\u03b1-ethynyltestosterone", "Norlutin", "Norluton", "19-Nortestosterone, 17-ethynyl-", "Primolut N", "Norethynodrone", "Ethinylnortestosterone", "Estr-4-ene-17\u03b1-ethynyl-17\u03b2-ol-3-one", "17\u03b1-Ethynyl-17-hydroxyestr-4-en-3-one", "17\u03b1-Ethynyl-17-hydroxyest-4-en-3-one", "19-Norandrost-4-en-3-one, 17\u03b1-ethynyl-17\u03b2-hydroxy-", "Norpregneninolone", "Conludaf", "Micronor", "Micronett", "Mini-Pe", "Micronovum", "Norluten", "Noralutin", "SC 4640", "Ethynylnortestosterone", "17\u03b2-Hydroxy-17\u03b1-ethynylestr-4-en-3-one", "Anovule", "Gestest", "NSC 9564", "Proluteasi", "Norfor", "Norgestin", "17\u03b1-Ethynyl-3-oxo-4-estren-17\u03b2-ol", "Triella", "Normapause", "Conludag", "Utovlan", "Norcolut", "Mini-pill", "Menzol", "Nor-QD", "Noretisterone Dak"], "SMILES": "CC12C(C3C(CC1)C4C(CC3)=CC(=O)CC4)CCC2(C#C)O", "physical_data": {"Molecular Weight": "298.42", "Molecular Formula": "C20H26O2", "Melting Point": "203-204 \u00b0C"}}