{"cas_no": "68-39-3", "cn_name": "DL-\u73af\u4e1d\u6c28\u9178", "en_name": ["4-Amino-3-isoxazolidinone", "3-Isoxazolidinone, 4-amino-", "3-Isoxazolidinone, 4-amino-, (\u00b1)-", "4-Amino-3-isoxazolidinone", "DL-Cycloserine", "3-Oxoisooxazolidin-4-amine"], "SMILES": "NC1C(=O)NOC1", "physical_data": {"Molecular Weight": "102.09", "Molecular Formula": "C3H6N2O2", "Melting Point": "138-141 \u00b0C"}}