{"cas_no": "68-36-0", "cn_name": "1,4-\u53cc(\u4e09\u6c2f\u7532\u57fa)\u82ef", "en_name": ["1,4-Bis(trichloromethyl)benzene", "Benzene, 1,4-bis(trichloromethyl)-", "p-Xylene, \u03b1,\u03b1,\u03b1,\u03b1\u2032,\u03b1\u2032,\u03b1\u2032-hexachloro-", "1,4-Bis(trichloromethyl)benzene", "Chloxyl", "Hetol", "p-Bis(trichloromethyl)benzene", "Bitriben", "\u03b1,\u03b1,\u03b1,\u03b1\u2032,\u03b1\u2032,\u03b1\u2032-Hexachloro-p-xylene", "\u03c9,\u03c9\u2032-Hexachloro-p-xylene", "\u03c9-Hexachloro-p-xylene", "p-Bis(perchloromethyl)benzene", "1,4-di(Trichloromethyl)benzene", "Hexachloroparaxylol", "Chloksil", "Cloxil", "Chloxil", "Khloxil", "Hexachloroxylene", "Hexichol", "NSC 41883", "Geksol", "Chloxyle", "Polytrem"], "SMILES": "C(Cl)(Cl)(Cl)C1=CC=C(C(Cl)(Cl)Cl)C=C1", "physical_data": {"Molecular Weight": "312.84", "Molecular Formula": "C8H4Cl6", "Boiling Point": "213 \u00b0C", "Melting Point": "108-110 \u00b0C", "Density": "1.778 g/cm\u00b3"}}