{"cas_no": "68-35-9", "cn_name": "\u78fa\u80fa\u5627\u5576", "en_name": ["Sulfadiazine", "Benzenesulfonamide, 4-amino-N-2-pyrimidinyl-", "Sulfanilamide, N1-2-pyrimidinyl-", "Sulfanilamide, N1-2(1H)-pyrimidinylidene-", "4-Amino-N-2-pyrimidinylbenzenesulfonamide", "RP 2616", "Adiazine", "Coco-Diazine", "Cremodiazine", "Debenal", "Diazin", "Di-Azo-Mul", "Diazyl", "Eskadiazine", "Honey diazine", "Lipo-Diazine", "Lipo-Levazine", "Microsulfon", "Neazine", "Pyrimal", "N1-2-Pyrimidylsulfanilamide", "SDA", "Spofadrizine", "Sterazine", "Sulfadiazine", "2-Sulfanilamidopyrimidine", "2-Sulfanilylaminopyrimidine", "Sulfazine", "Sulphadiazine", "Sulfapyrimidine", "Theradiazine", "A 306", "Sulfazin (Russian pharmaceutical)", "Sulfazin", "Sulfadiazin", "Adiazin", "Pirimal", "Sulfapirimidin", "N1-2-Pyrimidinylsulfanilamide", "Liquadiazine", "Sanodiazine", "SN 112", "Deltazina", "Piridisir", "Diazolone", "Diazovit", "2-(4-Aminobenzenesulfonamido)pyrimidine", "Sulphadiazine E", "Sulfadiazina Reig Jofre", "Sulfolex", "NSC 35600", "2-(4-Aminobenzenesulfonylamino)pyrimidine", "4-Amino-N-(2-pyrimidyl)benzenesulfonamide", "2-(p-Aminobenzenesulfonamido)pyrimidin", "4-[[(Pyrimidin-2-yl)amino]sulfonyl]aniline", "MeSH ID: D013411"], "SMILES": "S(NC=1N=CC=CN1)(=O)(=O)C2=CC=C(N)C=C2", "physical_data": {"Molecular Weight": "250.28", "Molecular Formula": "C10H10N4O2S", "Melting Point": "255.5 \u00b0C (decomp)", "Density": "1.52 g/cm\u00b3"}}