{"cas_no": "68-34-8", "cn_name": "\u5bf9\u7532\u82ef\u78fa\u9170\u82ef\u80fa", "en_name": ["N-Phenyl-p-toluenesulfonamide", "Benzenesulfonamide, 4-methyl-N-phenyl-", "p-Toluenesulfonanilide", "4-Methyl-N-phenylbenzenesulfonamide", "N-Phenyl-p-toluenesulfonamide", "p-Toluenesulfanilide", "N-Tosylaniline", "p-Toluenesulfonylanilide", "N1-Phenyl-4-toluenesulfonamide", "N-Phenyl-p-toluenesulphonamide", "N-Phenyl-4-methylbenzenesulfonamide", "N-p-Toluenesulfonylaniline", "4-Methylbenzenesulfonanilide", "NSC 2178", "NSC 24629", "Topcizer 108", "N-Tosylbenzenamine"], "SMILES": "S(NC1=CC=CC=C1)(=O)(=O)C2=CC=C(C)C=C2", "physical_data": {"Molecular Weight": "247.31", "Molecular Formula": "C13H13NO2S", "Melting Point": "103 \u00b0C"}}