{"cas_no": "68-41-7", "cn_name": "D-\u73af\u4e1d\u6c28\u9178", "en_name": ["(+)-Cycloserine", "3-Isoxazolidinone, 4-amino-, (4R)-", "3-Isoxazolidinone, 4-amino-, (+)-", "3-Isoxazolidinone, 4-amino-, (R)-", "(4R)-4-Amino-3-isoxazolidinone", "D-4-Amino-3-isoxazolidone", "Cyclo-D-serine", "Oxamycin", "d-4-Amino-3-isoxazolidinone", "D-4-Amino-3-isoxazolidinone", "(+)-Cycloserine", "\u03b1-Cycloserine", "Cycloserine", "Orientomycin", "Cyclorin", "Farmiserina", "Tisomycin", "Miroseryn", "Wasserina", "Novoserin", "D-Cycloserine", "(R)-(+)-Cycloserine", "(R)-Cycloserine", "D-CS", "Seromycin", "(R)-4-Amino-3-isoxazolidinone", "Closerin", "Micoserina", "PA 94", "Closina", "NSC 154851", "NSC 76029", "(R)-4-Aminoisoxazolidin-3-one", "(4R)-4-Amino-1,2-oxazolidin-3-one", "MeSH ID: D003523"], "SMILES": "NC1C(=O)NOC1", "physical_data": {"Molecular Weight": "102.09", "Molecular Formula": "C3H6N2O2", "Melting Point": "155-156 \u00b0C (decomp)"}}