{"cas_no": "68-89-3", "cn_name": "\u5b89\u4e43\u8fd1", "en_name": ["Dipyrone", "Methanesulfonic acid, 1-[(2,3-dihydro-1,5-dimethyl-3-oxo-2-phenyl-1H-pyrazol-4-yl)methylamino]-, sodium salt (1:1)", "Methanesulfonic acid, (antipyrinylmethylamino)-, sodium salt", "Methanesulfonic acid, [(2,3-dihydro-1,5-dimethyl-3-oxo-2-phenyl-1H-pyrazol-4-yl)methylamino]-, sodium salt", "Dipyrone", "Analgin", "Metamizol", "Methylmelubrin", "Noramidopyrine methanesulfonate sodium salt", "Novalgin", "Novaminsulfone sodium", "Pyralgine", "Pyretin (pharmaceutical)", "Sulpyrine", "Sulpyrin", "Novamidazophen", "Sodium 1-phenyl-2,3-dimethyl-5-pyrazolone-4-methylaminomethanesulfonate", "Sodium noramidopyrine methanesulfonate", "Novaminsulfonum", "Novaminophenazone", "Sodium (antipyrinylmethylamino)methanesulfonate", "Metilon", "Noramidopyrine methanesulfonate sodium", "Sodium novaminsulfonate", "Novaminsulfonium", "Neo-melubrine", "Noveltex", "Pharmalgine", "Sulpin", "ARPF", "Optalgin", "Diprofarn", "Noraminophenazone methanesulfonate sodium salt", "Methampyrone", "Novalgetol", "Novaminsulfone", "Metamizole", "Narone", "Gifaril", "Metapyrin", "Metamizole sodium", "Pyretin", "Methamizole sodium", "Algopyrin", "Algocalmin", "Conmel", "Noraminophenazone sodium mesylate", "Analgine", "Andolor", "Lisador", "Anador", "Sodium metamizole", "Metamizole sodium salt", "Restriva"], "SMILES": "O=C1N(N(C)C(C)=C1N(CS(=O)(=O)O)C)C2=CC=CC=C2.[Na]", "physical_data": {"Molecular Weight": "", "Molecular Formula": "C13H17N3O4S.Na", "Melting Point": "50-53 \u00b0C", "Density": "1.388 g/cm\u00b3"}}