{"cas_no": "68-88-2", "cn_name": "\u7f9f\u55ea", "en_name": ["(\u00b1)-Hydroxyzine", "Ethanol, 2-[2-[4-[(4-chlorophenyl)phenylmethyl]-1-piperazinyl]ethoxy]-", "Ethanol, 2-[2-[4-(p-chloro-\u03b1-phenylbenzyl)-1-piperazinyl]ethoxy]-", "Ethanol, 2-[2-[4-(4-chloro-\u03b1-phenylbenzyl)-1-piperazinyl]ethoxy]-", "2-[2-[4-[(4-Chlorophenyl)phenylmethyl]-1-piperazinyl]ethoxy]ethanol", "U.C.B 4492", "1-(p-Chlorobenzhydryl)-4-[2-(2-hydroxyethoxy)ethyl]diethylenediamine", "1-(p-Chlorobenzhydryl)-4-[2-(2-hydroxyethoxy)ethyl]piperazine", "1-(p-Chlorodiphenylmethyl)-4-[2-(2-hydroxyethoxy)ethyl]piperazine", "1-(p-Chloro-\u03b1-phenylbenzyl)-4-[2-((2-hydroxyethoxy)ethyl)]piperazine", "2-[2-[4-(p-Chloro-\u03b1-phenylbenzyl)-1-piperazinyl]ethoxy]ethanol", "Hydroxyzine", "Tran-Q", "Hydroxizine", "Hydroxyzin", "(\u00b1)-Hydroxyzine", "Hydroxyzyne", "Tranquizine", "NSC 169188", "2-(2-[4-[(4-Chlorophenyl)(phenyl)methyl]piperazin-1-yl]ethoxy)ethan-1-ol", "MeSH ID: D006919"], "SMILES": "C(N1CCN(CCOCCO)CC1)(C2=CC=C(Cl)C=C2)C3=CC=CC=C3", "physical_data": {"Molecular Weight": "374.90", "Molecular Formula": "C21H27ClN2O2", "Boiling Point": "250 \u00b0C @ Press: 0.1 Torr"}}