{"cas_no": "68-90-6", "cn_name": "\u82ef\u7898\u8fbe\u9686", "en_name": ["Benziodarone", "Methanone, (2-ethyl-3-benzofuranyl)(4-hydroxy-3,5-diiodophenyl)-", "Ketone, 2-ethyl-3-benzofuranyl 4-hydroxy-3,5-diiodophenyl", "(2-Ethyl-3-benzofuranyl)(4-hydroxy-3,5-diiodophenyl)methanone", "L 2329", "Amplivix", "Benziodarone", "Cardivix", "2-Ethyl-3-(3,5-diiodo-4-hydroxybenzoyl)benzofuran", "2-Ethyl-3-(3,5-diiodo-4-hydroxybenzoyl)-3-coumarone", "2-Ethyl-3-(4-hydroxy-3,5-diiodobenzoyl)benzofuran", "2-Ethyl-3-(4-hydroxy-3,5-diiodobenzoyl)coumarone", "Dilafurane", "Dila-Vasal", "Algocor", "2329 Labaz", "Retrangor", "Corofam", "Coronal-Crinos", "NSC 82133", "(2-Ethyl-1-benzofuran-3-yl)-(4-hydroxy-3,5-diiodophenyl)methanone"], "SMILES": "C(=O)(C=1C=2C(OC1CC)=CC=CC2)C3=CC(I)=C(O)C(I)=C3", "physical_data": {"Molecular Weight": "518.08", "Molecular Formula": "C17H12I2O3", "Melting Point": "167 \u00b0C"}}