{"cas_no": "68-94-0", "cn_name": "\u6b21\u9ec4\u560c\u5464", "en_name": ["Hypoxanthine", "6H-Purin-6-one, 1,9-dihydro-", "Hypoxanthine", "6H-Purin-6-one, 1,7-dihydro-", "1,9-Dihydro-6H-purin-6-one", "Purin-6(3H)-one", "9H-Purin-6(1H)-one", "Sarcine", "Sarkin", "Sarkine", "Purin-6(1H)-one", "6-Hydroxypurine", "6-Oxopurine", "6-Hydroxy-1H-purine", "9H-Purin-6-ol", "Purin-6-ol", "3H-Purin-6-ol", "Hypoxanthine enol", "1H,7H-Hypoxanthine", "NSC 129419", "NSC 14665", "1H,9H-Hypoxanthine", "1H-Purin-6(9H)-one", "1,9-Dihydro-purin-6-one", "MeSH ID: D019271"], "SMILES": "O=C1C2=C(NC=N1)N=CN2", "physical_data": {"Molecular Weight": "136.11", "Molecular Formula": "C5H4N4O", "Melting Point": "150 \u00b0C (decomp)"}}