{"cas_no": "68-95-1", "cn_name": "N-\u4e59\u9170-L-\u812f\u6c28\u9178", "en_name": ["N-Acetyl-L-proline", "L-Proline, 1-acetyl-", "Proline, 1-acetyl-, L-", "1-Acetyl-L-proline", "1-Acetylproline", "N-Acetylproline", "N-Acetyl-L-proline", "L-N-Acetylproline", "(S)-N-Acetylproline", "(S)-(-)-N-Acetylproline", "NSC 280718", "(S)-1-Acetylpyrrolidine-2-carboxylic acid", "(2S)-1-Acetylpyrrolidine-2-carboxylic acid", "(S)-AcetyLproline"], "SMILES": "C(O)(=O)C1N(C(C)=O)CCC1", "physical_data": {"Molecular Weight": "157.17", "Molecular Formula": "C7H11NO3", "Melting Point": "106 \u00b0C"}}