{"cas_no": "68-96-2", "cn_name": "\u7f9f\u5b55\u916e", "en_name": ["17-Hydroxyprogesterone", "Pregn-4-ene-3,20-dione, 17-hydroxy-", "17-Hydroxypregn-4-ene-3,20-dione", "17-Hydroxyprogesterone", "Prodox", "17\u03b1-Hydroxypregn-4-ene-3,20-dione", "Hydroxyprogesterone", "\u03944-Pregnen-17\u03b1-ol-3,20-dione", "Gestageno Gador", "Prodix", "Pregn-4-en-17\u03b1-ol-3,20-dione", "17\u03b1-Hydroxyprogesterone", "U 3096", "Gestageno", "NSC 15468", "17\u03b1-Hydroxylutin", "17\u03b1-Hydroxy-P4", "4-Pregnene-17\u03b1-ol-3,20-dione"], "SMILES": "CC12C(C3C(C4(C)C(CC3)=CC(=O)CC4)CC1)CCC2(C(C)=O)O", "physical_data": {"Molecular Weight": "330.46", "Molecular Formula": "C21H30O3", "Melting Point": "222-223 \u00b0C"}}