{"cas_no": "680-31-9", "cn_name": "\u516d\u7532\u57fa\u78f7\u9170\u4e09\u80fa", "en_name": ["Hexamethylphosphoramide", "Phosphoric triamide, N,N,N\u2032,N\u2032,N\u2032\u2032,N\u2032\u2032-hexamethyl-", "Phosphoric triamide, hexamethyl-", "N,N,N\u2032,N\u2032,N\u2032\u2032,N\u2032\u2032-Hexamethylphosphoric triamide", "ENT 50,882", "Hempa", "Hexametapol", "Hexamethylphosphoramide", "Hexamethylphosphoric acid triamide", "Hexamethylphosphoric triamide", "Hexamethylphosphorotriamide", "HPT", "Phosphoric tris(dimethylamide)", "Phosphoryl hexamethyltriamide", "Tris(dimethylamino)phosphine oxide", "Hexamethylorthophosphoric triamide", "HMPA", "Phosphoric hexamethyltriamide", "Phosphoric acid hexamethyltriamide", "N,N\u2032,N\u2032\u2032-Hexamethylphosphoramide", "Eastman Inhibitor HPT", "HMPTA", "HMPT", "Hexamethyltriamidophosphate", "NSC 113131", "NSC 7967", "Light Stabilizer HPT", "[Bis(dimethylamino)phosphoryl]dimethylamine"], "SMILES": "P(N(C)C)(N(C)C)(N(C)C)=O", "physical_data": {"Molecular Weight": "179.20", "Molecular Formula": "C6H18N3OP", "Boiling Point": "233 \u00b0C @ Press: 760 Torr", "Melting Point": "5-7 \u00b0C", "Density": "1.03 g/cm\u00b3 @ Temp: 20 \u00b0C"}}