{"cas_no": "680-05-7", "cn_name": "NULL", "en_name": ["Methyl 2,3,3,3-tetrafluoro-2-(trifluoromethyl)propanoate", "Propanoic acid, 2,3,3,3-tetrafluoro-2-(trifluoromethyl)-, methyl ester", "Propionic acid, 2,3,3,3-tetrafluoro-2-(trifluoromethyl)-, methyl ester", "Methyl 2,3,3,3-tetrafluoro-2-(trifluoromethyl)propanoate", "Methyl perfluoroisobutyrate"], "SMILES": "C(C(OC)=O)(C(F)(F)F)(C(F)(F)F)F", "physical_data": {"Molecular Weight": "228.06", "Molecular Formula": "C5H3F7O2", "Boiling Point": "57-58 \u00b0C"}}