{"cas_no": "68015-60-1", "cn_name": "4,4'-\u4e8c(2-\u6c28\u57fa-\u82ef\u78fa\u9178)\u53cc\u915a A \u916f", "en_name": ["1,1\u2032-[(1-Methylethylidene)di-4,1-phenylene] bis(2-aminobenzenesulfonate)", "Benzenesulfonic acid, 2-amino-, 1,1\u2032-[(1-methylethylidene)di-4,1-phenylene] ester", "Benzenesulfonic acid, 2-amino-, (1-methylethylidene)di-4,1-phenylene ester", "1,1\u2032-[(1-Methylethylidene)di-4,1-phenylene] bis(2-aminobenzenesulfonate)"], "SMILES": "S(OC1=CC=C(C(C)(C)C2=CC=C(OS(=O)(=O)C3=C(N)C=CC=C3)C=C2)C=C1)(=O)(=O)C4=C(N)C=CC=C4", "physical_data": {"Molecular Weight": "538.64", "Molecular Formula": "C27H26N2O6S2", "Melting Point": "158-159 \u00b0C"}}