{"cas_no": "6801-40-7", "cn_name": "\u6728\u5170\u7bad\u6bd2\u78b1", "en_name": ["Magnocurarine", "Isoquinolinium, 1,2,3,4-tetrahydro-7-hydroxy-1-[(4-hydroxyphenyl)methyl]-6-methoxy-2,2-dimethyl-, (1R)-", "Magnocurarine", "Isoquinolinium, 1,2,3,4-tetrahydro-7-hydroxy-1-[(4-hydroxyphenyl)methyl]-6-methoxy-2,2-dimethyl-, (R)-", "(1R)-1,2,3,4-Tetrahydro-7-hydroxy-1-[(4-hydroxyphenyl)methyl]-6-methoxy-2,2-dimethylisoquinolinium", "(-)-Magnocurarine", "D-(-)-Magnocurarine", "(R)-Magnocurarine", "(1R)-1-[(4-Hydroxyphenyl)methyl]-6-methoxy-2,2-dimethyl-3,4-dihydro-1H-isoquinolin-2-ium-7-ol"], "SMILES": "C(C1C=2C(=CC(OC)=C(O)C2)CC[N+]1(C)C)C3=CC=C(O)C=C3", "physical_data": {"Molecular Weight": "", "Molecular Formula": "C19H24NO3", "Melting Point": "198-199 \u00b0C (decomp)"}}