{"cas_no": "68027-14-5", "cn_name": "3-O-\u0392-D-\u8461\u8404\u7cd6( 1\u21924)-[ A -L-\u9f20\u674e\u7cd6(1\u21922)]- A-L-\u963f\u62c9\u4f2f\u7cd6 \u5e38\u6625\u85e4\u914d\u57fa- 28-O-\u9f20\u674e\u7cd6(1\u21924)\u8461\u8404\u7cd6(1\u21926)\u8461\u8404\u7cd6\u82f7", "en_name": ["Hederacolchiside F", "Olean-12-en-28-oic acid, 3-[(O-6-deoxy-\u03b1-L-mannopyranosyl-(1\u21922)-O-[\u03b2-D-glucopyranosyl-(1\u21924)]-\u03b1-L-arabinopyranosyl)oxy]-23-hydroxy-, O-6-deoxy-\u03b1-L-mannopyranosyl-(1\u21924)-O-\u03b2-D-glucopyranosyl-(1\u21926)-\u03b2-D-glucopyranosyl ester, (3\u03b2,4\u03b1)-", "Pulsatilla saponin H", "Hederacolchiside F", "Hederacholichiside F", "3-O-\u03b1-L-Rhamnopyranosyl-(1\u21922)[\u03b2-D-glucopyranosyl(1\u21924)]-\u03b1-L-arabinopyranosylhederagenin 28-O-\u03b1-L-rhamnopyranosyl-(1\u21924)-\u03b2-D-glucopyranosyl-(1\u21926)-\u03b2-D-glucopyranoside"], "SMILES": "C(OC1OC(COC2OC(CO)C(OC3C(O)C(O)C(O)C(C)O3)C(O)C2O)C(O)C(O)C1O)(=O)C45C(C=6C(C)(CC4)C7(C)C(CC6)C8(C)C(CC7)C(CO)(C)C(OC9C(OC%10C(O)C(O)C(O)C(C)O%10)C(O)C(OC%11OC(CO)C(O)C(O)C%11O)CO9)CC8)CC(C)(C)CC5", "physical_data": {"Molecular Weight": "1383.52", "Molecular Formula": "C65H106O31", "Melting Point": "119-203 \u00b0C"}}