{"cas_no": "68027-15-6", "cn_name": "Hederagenin 3-O-\u03b1-L-rhaMnopyranosyl(1\u21922)-(\u03b2-D-glucopyranosyl(1\u21924))-\u03b1-L-arabinopyranoside", "en_name": ["Pulsatilla saponin D", "Olean-12-en-28-oic acid, 3-[[O-6-deoxy-\u03b1-L-mannopyranosyl-(1\u21922)-O-[\u03b2-D-glucopyranosyl-(1\u21924)]-\u03b1-L-arabinopyranosyl]oxy]-23-hydroxy-, (3\u03b2,4\u03b1)-", "(3\u03b2,4\u03b1)-3-[[O-6-Deoxy-\u03b1-L-mannopyranosyl-(1\u21922)-O-[\u03b2-D-glucopyranosyl-(1\u21924)]-\u03b1-L-arabinopyranosyl]oxy]-23-hydroxyolean-12-en-28-oic acid", "Hederagenin 3-O-\u03b1-L-rhamnopyranosyl-(1 \u2192 2)-[\u03b2-D-glucopyranosyl-(1 \u2192 4)]-\u03b1-L-arabinopyranoside", "Pulsatilla saponin D", "Hederacolchiside A", "SB 365", "Hederagenin 3-O-[\u03b2-D-glucopyranosyl(1\u21924)-[\u03b1-L-rhamnopyranosyl(1\u21922)]]-\u03b1-L-arabinopyranoside", "3\u03b2-[(O-\u03b2-D-Glucopyranosyl-(1\u21924)-O-[\u03b1-L-rhamnopyranosyl-(1\u21922)]-\u03b1-L-arabinopyranosyl)oxy]-23-hydroxyolean-12-en-28-oic acid", "Pulchinenoside B3"], "SMILES": "CC12C3(C)C(C4C(C(O)=O)(CC3)CCC(C)(C)C4)=CCC1C5(C)C(CC2)C(CO)(C)C(OC6C(OC7C(O)C(O)C(O)C(C)O7)C(O)C(OC8OC(CO)C(O)C(O)C8O)CO6)CC5", "physical_data": {"Molecular Weight": "913.10", "Molecular Formula": "C47H76O17", "Melting Point": "239-241 \u00b0C"}}