{"cas_no": "6802-75-1", "cn_name": "\u4e9a\u5f02\u4e19\u57fa\u4e19\u4e8c\u9178\u4e8c\u4e59\u916f", "en_name": ["1,3-Diethyl 2-(1-methylethylidene)propanedioate", "Propanedioic acid, 2-(1-methylethylidene)-, 1,3-diethyl ester", "Malonic acid, isopropylidene-, diethyl ester", "Propanedioic acid, (1-methylethylidene)-, diethyl ester", "1,3-Diethyl 2-(1-methylethylidene)propanedioate", "Diethyl isopropylidenemalonate", "Diethyl 2-(1-methylethylidene)propanedioate", "NSC 127864", "NSC 408244", "Diethyl 2-(1-methylethylidene)malonate", "Diethyl 2-isopropylidenemalonate", "1,3-Diethyl 2-(propan-2-ylidene)propanedioate", "Diethyl 2-(propan-2-ylidene)malonate"], "SMILES": "C(C(OCC)=O)(C(OCC)=O)=C(C)C", "physical_data": {"Molecular Weight": "200.23", "Molecular Formula": "C10H16O4", "Boiling Point": "176.5 \u00b0C", "Melting Point": "93-94 \u00b0C", "Density": "1.0254 g/cm\u00b3 @ Temp: 25 \u00b0C"}}