{"cas_no": "68039-49-6", "cn_name": "\u5973\u8d1e\u919b", "en_name": ["Triplal", "3-Cyclohexene-1-carboxaldehyde, 2,4-dimethyl-", "2,4-Dimethyl-3-cyclohexene-1-carboxaldehyde", "2,4-Dimethyl-3-cyclohexenecarboxaldehyde", "Tripral", "2,4-Dimethyl-3-cyclohexenylcarbaldehyde", "Cyclal C", "Tricyclal", "Triplal", "Ligustral", "Zestover", "(Z)-Vertocitral C", "Nvzhenquan", "2,4-Dimethylcyclohex-3-ene-1-carbaldehyde", "2,4-Dimethyl-cyclohex-3-enecarbaldehyde", "2,4-Ivy carbaldehyde"], "SMILES": "C(=O)C1C(C)C=C(C)CC1", "physical_data": {"Molecular Weight": "138.21", "Molecular Formula": "C9H14O", "Boiling Point": "113-115 \u00b0C @ Press: 31 Torr", "Melting Point": "85-90 \u00b0C"}}