{"cas_no": "6804-07-5", "cn_name": "\u5361\u5df4\u591a", "en_name": ["Carbadox", "Hydrazinecarboxylic acid, 2-[(1,4-dioxido-2-quinoxalinyl)methylene]-, methyl ester", "Carbazic acid, 3-(2-quinoxalinylmethylene)-, methyl ester, N1,N4-dioxide", "Hydrazinecarboxylic acid, (2-quinoxalinylmethylene)-, methyl ester, N,N\u2032-dioxide", "Carbazic acid, 3-(2-quinoxalinylmethylene)-, methyl ester, N,N\u2032-dioxide", "Hydrazinecarboxylic acid, [(1,4-dioxido-2-quinoxalinyl)methylene]-, methyl ester", "Carbadox", "Methyl 3-(2-quinoxalinylmethylene)carbazate N1,N4-dioxide", "GS 6244", "Quinoxaline-2-carbomethoxyhydrazone 1,4-dioxide", "Mecadox", "2-Formylquinoxaline-1,4-dioxide carbomethoxyhydrazone", "Fortigro", "Getroxel"], "SMILES": "O=N=1C2=C(N(=O)=CC1C=NNC(OC)=O)C=CC=C2", "physical_data": {"Molecular Weight": "262.22", "Molecular Formula": "C11H10N4O4", "Melting Point": "239.5-240 \u00b0C"}}