{"cas_no": "68052-43-7", "cn_name": "5-\u7f9f\u57fa\u95f4\u82ef\u4e8c\u9170\u80fa", "en_name": ["5-Hydroxy-1,3-benzenedicarboxamide", "1,3-Benzenedicarboxamide, 5-hydroxy-", "5-Hydroxy-1,3-benzenedicarboxamide"], "SMILES": "C(N)(=O)C1=CC(C(N)=O)=CC(O)=C1", "physical_data": {"Molecular Weight": "180.16", "Molecular Formula": "C8H8N2O3", "Melting Point": "306 \u00b0C"}}