{"cas_no": "6805-41-0", "cn_name": "\u4e03\u53f6\u7682\u82f7", "en_name": ["Escin", "Escin", "Escigenin, 3-(4-O-\u03b2-D-glucopyranosyl-2-O-\u03b2-D-xylopyranosyl-\u03b2-D-glucopyranuronoside), 3-hydroxy-2-methylbutyrate, acetate", "Oleanane, escin deriv.", "3,5-Epoxypicene, escin deriv.", "Aescin", "Ba 2672", "\u03b2-Escinic acid", "Aescusan", "Aescine", "Escusan", "Eskuzan", "Venocin", "Flebostasin Retard", "MeSH ID: D004928"], "SMILES": "", "physical_data": {"Molecular Weight": "", "Molecular Formula": "Unspecified", "Melting Point": "200-210 \u00b0C (decomp)"}}