{"cas_no": "68077-27-0", "cn_name": "\u76d0\u9178\u8bfa\u6c1f\u6c99\u661f", "en_name": ["3-Quinolinecarboxylic acid, 1-ethyl-6-fluoro-1,4-dihydro-4-oxo-7-(1-piperazinyl)-, hydrochloride (1:1)", "3-Quinolinecarboxylic acid, 1-ethyl-6-fluoro-1,4-dihydro-4-oxo-7-(1-piperazinyl)-, hydrochloride (1:1)", "3-Quinolinecarboxylic acid, 1-ethyl-6-fluoro-1,4-dihydro-4-oxo-7-(1-piperazinyl)-, monohydrochloride", "Norfloxacin monohydrochloride", "1-Ethyl-6-fluoro-4-oxo-7-(piperazin-1-yl)-1,4-dihydroquinoline-3-carboxylic acid hydrochloride"], "SMILES": "C(C)N1C=2C(C(=O)C(C(O)=O)=C1)=CC(F)=C(C2)N3CCNCC3.Cl", "physical_data": {"Molecular Weight": "", "Molecular Formula": "C16H18FN3O3.ClH", "Melting Point": "&gt;300 \u00b0C"}}