{"cas_no": "68077-26-9", "cn_name": "7-\u6c2f-1-\u4e59\u57fa-6-\u6c1f-4-\u6c27\u6c22\u55b9\u5549-3-\u7fa7\u9178", "en_name": ["7-Chloro-1-ethyl-6-fluoro-1,4-dihydro-4-oxoquinoline-3-carboxylic acid", "3-Quinolinecarboxylic acid, 7-chloro-1-ethyl-6-fluoro-1,4-dihydro-4-oxo-", "7-Chloro-1-ethyl-6-fluoro-1,4-dihydro-4-oxo-3-quinolinecarboxylic acid", "CGA 78039", "7-Chloro-1-ethyl-6-fluoro-1,4-dihydro-4-oxoquinoline-3-carboxylic acid", "7-Chloro-1,4-dihydro-1-ethyl-6-fluoro-4-oxo-3-quinolinecarboxylic acid", "M 193324", "1-Ethyl-7-chloro-6-fluoro-1,4-dihydro-4-oxo-3-quinolinecarboxylic acid", "1-Ethyl-1,4-dihydro-4-oxo-6-fluoro-7-chloro-3-quinolinecarboxylic acid", "7-Chloro-1-ethyl-6-fluoroquinolin-4-one-3-carboxylic acid", "7-Chloro-1-ethyl-6-fluoro-4-oxo-1,4-dihydroquinoline-3-carboxylic acid", "1-Ethyl-6-fluoro-7-chloro-4-oxo-1,4-dihydro-quinoline-3-carboxylic acid", "1-Ethyl-6-fluoro-7-chloro-1,4-dihydro-4-oxoquinoline-3-carboxylic acid"], "SMILES": "C(C)N1C=2C(C(=O)C(C(O)=O)=C1)=CC(F)=C(Cl)C2", "physical_data": {"Molecular Weight": "269.66", "Molecular Formula": "C12H9ClFNO3", "Melting Point": "208-210 \u00b0C"}}