{"cas_no": "6807-17-6", "cn_name": "4,4'-(1,3-\u4e8c\u7532\u57fa\u4e01\u57fa)\u4e8c\u82ef\u915a", "en_name": ["4,4\u2032-(1,3-Dimethylbutylidene)bis[phenol]", "Phenol, 4,4\u2032-(1,3-dimethylbutylidene)bis-", "Phenol, 4,4\u2032-(1,3-dimethylbutylidene)di-", "4,4\u2032-(1,3-Dimethylbutylidene)bis[phenol]", "2,2-Bis(4-hydroxyphenyl)-4-methylpentane", "2,2-(4-Hydroxyphenyl)-4-methylpentane", "NSC 73727", "Bis MIBK", "4,4\u2032-(1,3-Dimethylbutylidene)bisphenol", "2,2-Bis(4\u2032-hydroxyphenyl)-4-methylpentane", "BisP-MIBK", "Bisphenol MIBK", "4,4\u2032-(1,3-Dimethylbutylidene)diphenol"], "SMILES": "C(CC(C)C)(C)(C1=CC=C(O)C=C1)C2=CC=C(O)C=C2", "physical_data": {"Molecular Weight": "270.37", "Molecular Formula": "C18H22O2", "Melting Point": "150 \u00b0C"}}