{"cas_no": "6807-83-6", "cn_name": "\u7ea2\u8f66\u8f74\u8349\u6839\u7519", "en_name": ["Trifolirhizin", "\u03b2-D-Glucopyranoside, (6aR,12aR)-6a,12a-dihydro-6H-[1,3]dioxolo[5,6]benzofuro[3,2-c][1]benzopyran-3-yl", "Trifolirhizin", "\u03b2-D-Glucopyranoside, 6a,12a-dihydro-6H-[1,3]dioxolo[5,6]benzofuro[3,2-c][1]benzopyran-3-yl, (6aR-cis)-", "6H-[1,3]Dioxolo[5,6]benzofuro[3,2-c][1]benzopyran, \u03b2-D-glucopyranoside deriv.", "(6aR,12aR)-6a,12a-Dihydro-6H-[1,3]dioxolo[5,6]benzofuro[3,2-c][1]benzopyran-3-yl \u03b2-D-glucopyranoside", "Sophojaponicin B1", "(-)-Maackiain-3-O-glucoside", "(6aR,11aR)-Trifolirhizin"], "SMILES": "O(C=1C=C2C(C3C(C=4C(O3)=CC5=C(C4)OCO5)CO2)=CC1)C6OC(CO)C(O)C(O)C6O", "physical_data": {"Molecular Weight": "446.40", "Molecular Formula": "C22H22O10", "Melting Point": "223 \u00b0C"}}