{"cas_no": "68085-85-8", "cn_name": "\u6c2f\u6c1f\u6c30\u83ca\u916f", "en_name": ["Cyhalothrin", "Cyclopropanecarboxylic acid, 3-(2-chloro-3,3,3-trifluoro-1-propen-1-yl)-2,2-dimethyl-, cyano(3-phenoxyphenyl)methyl ester", "Cyclopropanecarboxylic acid, 3-(2-chloro-3,3,3-trifluoro-1-propenyl)-2,2-dimethyl-, cyano(3-phenoxyphenyl)methyl ester", "Cyhalothrin", "ICI-PP 563", "PP 563", "Grenade", "Saber", "\u03b1-Cyano-3-phenoxybenzyl 3-(2-chloro-3,3,3-trifluoroprop-1-en-1-yl)-2,2-dimethylcyclopropanecarboxylate", "Clocythrin", "Gongfu", "Coopertix", "\u03b1-Cyhalothrin", "Cyhalothrin-tea saponin mixt."], "SMILES": "C(=C(C(F)(F)F)Cl)C1C(C(OC(C#N)C2=CC(OC3=CC=CC=C3)=CC=C2)=O)C1(C)C", "physical_data": {"Molecular Weight": "449.85", "Molecular Formula": "C23H19ClF3NO3", "Boiling Point": "187-190 \u00b0C @ Press: 0.2 Torr", "Melting Point": "&lt;10 \u00b0C", "Density": "1.25 g/cm\u00b3 @ Temp: 25 \u00b0C"}}