{"cas_no": "6809-52-5", "cn_name": "\u66ff\u666e\u745e\u916e", "en_name": ["Teprenone", "5,9,13,17-Nonadecatetraen-2-one, 6,10,14,18-tetramethyl-", "6,10,14,18-Tetramethyl-5,9,13,17-nonadecatetraen-2-one", "Teprenone", "Selbex", "Geranylgeranylacetone", "E 36U31", "E 0671", "GGA"], "SMILES": "C(CCC=C(CCC=C(C)C)C)(=CCCC(=CCCC(C)=O)C)C", "physical_data": {"Molecular Weight": "330.55", "Molecular Formula": "C23H38O", "Boiling Point": "155-160 \u00b0C @ Press: 0.01 Torr", "Density": "0.9081 g/cm\u00b3 @ Temp: 20.5 \u00b0C"}}