{"cas_no": "681-57-2", "cn_name": "2,2-\u4e8c\u7532\u57fa\u620a\u4e8c\u9178", "en_name": ["2,2-Dimethylglutaric acid", "Pentanedioic acid, 2,2-dimethyl-", "Glutaric acid, 2,2-dimethyl-", "2,2-Dimethylpentanedioic acid", "2,2-Dimethylglutaric acid", "2,2-dimethylpentanedioic acid", "NSC 61979", "1,1-Dimethyl-1,3-propanedicarboxylic acid"], "SMILES": "C(CCC(O)=O)(C(O)=O)(C)C", "physical_data": {"Molecular Weight": "160.17", "Molecular Formula": "C7H12O4", "Boiling Point": "180-200 \u00b0C @ Press: 2 Torr", "Melting Point": "83-85 \u00b0C"}}