{"cas_no": "681-84-5", "cn_name": "\u6b63\u7845\u9178\u7532\u916f", "en_name": ["Tetramethoxysilane", "Silicic acid (H4SiO4), tetramethyl ester", "Methyl silicate ((MeO)4Si)", "Tetramethoxysilane", "Silane, tetramethoxy-", "Tetramethyl silicate", "Tetramethyl orthosilicate", "Methyl orthosilicate", "Methyl silicate ((CH3)4SiO4)", "Methyl silicate", "Silicon tetramethoxide", "Silicon methoxide (Si(OMe)4)", "TMOS", "KBM 04", "Methyl Silicate 39", "Methyl Silicate 28", "T 1980", "LS 540", "SIT 7510.0", "TSL 8114", "Siluplex", "Dynasil M", "NSC 67383", "OCD-T 2", "MZ 51", "MKC Silicate MS 39", "Methyl Silicate 40", "Methyl Silicate 51L", "WD 931", "TO 588", "NIC-C 5", "Tetramethoxy orthosilicate", "Dynasylan M", "CG 501"], "SMILES": "[Si](OC)(OC)(OC)OC", "physical_data": {"Molecular Weight": "152.22", "Molecular Formula": "C4H12O4Si", "Boiling Point": "121-122 \u00b0C @ Press: 760 Torr", "Melting Point": "-2 \u00b0C", "Density": "1.032 g/cm\u00b3 @ Temp: 20 \u00b0C"}}