{"cas_no": "68104-63-2", "cn_name": "4-\u54cc\u55ea\u57fa\u82ef\u7532\u8148", "en_name": ["4-(1-Piperazinyl)benzonitrile", "Benzonitrile, 4-(1-piperazinyl)-", "4-(1-Piperazinyl)benzonitrile", "1-(4-Cyanophenyl)piperazine", "4-Piperazinylbenzenecarbonitrile", "N-(4-Cyanophenyl)piperazine", "4-Piperazinobenzonitrile"], "SMILES": "C(#N)C1=CC=C(C=C1)N2CCNCC2", "physical_data": {"Molecular Weight": "187.24", "Molecular Formula": "C11H13N3", "Melting Point": "65-66 \u00b0C"}}