{"cas_no": "68109-72-8", "cn_name": "\u4e8c\u4e59\u80fa\u78f7\u9178\u76d0", "en_name": ["Ethanamine, N-ethyl-, phosphate (1:1)", "Ethanamine, N-ethyl-, phosphate (1:1)", "Diethylammonium dihydrogen phosphate"], "SMILES": "N(CC)CC.P(=O)(O)(O)O", "physical_data": {"Molecular Weight": "", "Molecular Formula": "C4H11N.H3O4P", "Boiling Point": "330 \u00b0C", "Melting Point": "120 \u00b0C"}}