{"cas_no": "68104-62-1", "cn_name": "1-(4-\u6eb4\u82ef\u57fa)\u54cc\u55ea\u76d0\u9178\u76d0", "en_name": ["Piperazine, 1-(4-bromophenyl)-, hydrochloride (1:1)", "Piperazine, 1-(4-bromophenyl)-, hydrochloride (1:1)", "Piperazine, 1-(4-bromophenyl)-, monohydrochloride", "1-(4-Bromophenyl)piperazine monohydrochloride", "1-(4-Bromophenyl)piperazine hydrochloride"], "SMILES": "BrC1=CC=C(C=C1)N2CCNCC2.Cl", "physical_data": {"Molecular Weight": "", "Molecular Formula": "C10H13BrN2.ClH", "Melting Point": "240 \u00b0C (decomp)"}}