{"cas_no": "68104-61-0", "cn_name": "1-(4-\u53d4\u4e01\u57fa-\u4e01\u57fa\u82ef\u57fa)\u54cc\u55ea", "en_name": ["1-[4-(1,1-Dimethylethyl)phenyl]piperazine", "Piperazine, 1-[4-(1,1-dimethylethyl)phenyl]-", "Piperazine, 1-(p-tert-butylphenyl)-", "1-[4-(1,1-Dimethylethyl)phenyl]piperazine", "N-(4-tert-Butylphenyl)piperazine", "1-(4-tert-Butylphenyl)piperazine", "1-(p-tert-Butylphenyl)piperazine", "4-(4-tert-Butylphenyl)piperazine"], "SMILES": "C(C)(C)(C)C1=CC=C(C=C1)N2CCNCC2", "physical_data": {"Molecular Weight": "218.34", "Molecular Formula": "C14H22N2", "Melting Point": "48-52 \u00b0C"}}