{"cas_no": "6812-78-8", "cn_name": "3,7-\u4e8c\u7532\u57fa-7-\u8f9b\u70ef\u9187", "en_name": ["Rhodinol", "7-Octen-1-ol, 3,7-dimethyl-, (3S)-", "7-Octen-1-ol, 3,7-dimethyl-, (S)-", "Rhodinol", "(3S)-3,7-Dimethyl-7-octen-1-ol", "Rhodinol, (-)-", "\u03b1-Citronellol, (-)-", "(-)-Rhodinol", "(-)-\u03b1-Citronellol", "(S)-\u03b1-Citronellol", "(3S)-3,7-Dimethyloct-7-en-1-ol"], "SMILES": "C(CCCC(C)=C)(CCO)C", "physical_data": {"Molecular Weight": "156.27", "Molecular Formula": "C10H20O", "Boiling Point": "114.5 \u00b0C", "Melting Point": "&lt;25 \u00b0C", "Density": "0.864 g/cm\u00b3 @ Temp: 15 \u00b0C"}}