{"cas_no": "6812-16-4", "cn_name": "2-\u7f9f\u57fa-3-\u7532\u6c27\u57fa\u82ef\u8148", "en_name": ["2-Hydroxy-3-methoxybenzonitrile", "Benzonitrile, 2-hydroxy-3-methoxy-", "m-Anisonitrile, 2-hydroxy-", "2-Hydroxy-3-methoxybenzonitrile", "3-Methoxysalicylonitrile", "o-Vanillonitrile", "2-Cyano-6-methoxyphenol"], "SMILES": "C(#N)C1=C(O)C(OC)=CC=C1", "physical_data": {"Molecular Weight": "149.15", "Molecular Formula": "C8H7NO2", "Boiling Point": "172-178 \u00b0C @ Press: 2 Torr", "Melting Point": "61 \u00b0C"}}