{"cas_no": "6812-87-9", "cn_name": "\u7f57\u5217\u916e", "en_name": ["Royleanone", "1,4-Phenanthrenedione, 4b,5,6,7,8,8a,9,10-octahydro-3-hydroxy-4b,8,8-trimethyl-2-(1-methylethyl)-, (4bS,8aS)-", "Podocarpa-8,12-diene-11,14-dione, 12-hydroxy-13-isopropyl-", "1,4-Phenanthrenedione, 4b,5,6,7,8,8a,9,10-octahydro-3-hydroxy-4b,8,8-trimethyl-2-(1-methylethyl)-, (4bS-trans)-", "(4bS,8aS)-4b,5,6,7,8,8a,9,10-Octahydro-3-hydroxy-4b,8,8-trimethyl-2-(1-methylethyl)-1,4-phenanthrenedione", "Royleanone", "NSC 122417"], "SMILES": "CC12C3=C(C(=O)C(C(C)C)=C(O)C3=O)CCC1C(C)(C)CCC2", "physical_data": {"Molecular Weight": "316.43", "Molecular Formula": "C20H28O3", "Melting Point": "181.5-183.0 \u00b0C"}}