{"cas_no": "68124-04-9", "cn_name": "CHONGLOU SAPONIN VII", "en_name": ["Paris VII", "\u03b2-D-Glucopyranoside, (3\u03b2,25R)-17-hydroxyspirost-5-en-3-yl O-6-deoxy-\u03b1-L-mannopyranosyl-(1\u21922)-O-[O-6-deoxy-\u03b1-L-mannopyranosyl-(1\u21924)-6-deoxy-\u03b1-L-mannopyranosyl-(1\u21924)]-", "Spirostan, \u03b2-D-glucopyranoside deriv.", "Spiro[8H-naphth[2\u2032,1\u2032:4,5]indeno[2,1-b]furan-8,2\u2032-[2H]pyran], \u03b2-D-glucopyranoside deriv.", "(3\u03b2,25R)-17-Hydroxyspirost-5-en-3-yl O-6-deoxy-\u03b1-L-mannopyranosyl-(1\u21922)-O-[O-6-deoxy-\u03b1-L-mannopyranosyl-(1\u21924)-6-deoxy-\u03b1-L-mannopyranosyl-(1\u21924)]-\u03b2-D-glucopyranoside", "Pennogenin 3-O-rhamnosylchacotrioside", "Pennogenin 3-O-\u03b1-L-rhamnopyranosyl-(1\u21924)-\u03b1-L-rhamnopyranosyl-(1\u21924)-[\u03b1-L-rhamnopyranosyl-(1\u21922)]-\u03b2-D-glucopyranoside", "Dioscinin", "Paris VII", "Saponin Tg", "Pennogenin 3-O-\u03b1-L-rhamnopyranosyl-(1\u21922)-[\u03b1-L-rhamnopyranosyl-(1\u21924)-\u03b1-L-rhamnopyranosyl-(1\u21924)]-\u03b2-D-glucopyranoside", "Chonglouoside VII", "17-Hydroxyparis II", "Paris saponin VII", "(25R)-17\u03b1-Hydroxyspirost-5-en-3\u03b2-yl O-\u03b1-L-rhamnopyranosyl-(1\u21922)-O-[O-\u03b1-L-rhamnopyranosyl-(1\u21924)-\u03b1-L-rhamnopyranosyl-(1\u21924)-\u03b2-D-glucopyranoside", "Pennogenin-3-O-\u03b1-L-rhamnopyranosyl-(1\u21924)-O-\u03b1-L-rhamnopyranosyl-(1\u21924)-O-[\u03b1-L-rhamnopyranosyl-(1\u21922)]-O-\u03b2-D-glucopyranoside", "Pennogenin-3-O-\u03b1-L-rhamnopyranosyl(1\u21924)-\u03b1-L-rhamnopyranosyl(1\u21924)-[\u03b1-L-rhamnopyranosyl(1\u21922)]-\u03b2-D-glucoside"], "SMILES": "OC12C3(C)C(CC1OC4(C2C)CCC(C)CO4)C5C(CC3)C6(C)C(=CC5)CC(OC7C(OC8C(O)C(O)C(O)C(C)O8)C(O)C(OC9C(O)C(O)C(OC%10C(O)C(O)C(O)C(C)O%10)C(C)O9)C(CO)O7)CC6", "physical_data": {"Molecular Weight": "1031.18", "Molecular Formula": "C51H82O21", "Melting Point": "243-245 \u00b0C (decomp)"}}