{"cas_no": "68123-30-8", "cn_name": "2,3-\u4e8c\u6c22-9-\u7f9f\u57fa-7H-\u544b\u5583\u5e76[3,2-G][1]\u82ef\u5e76\u5421\u5583-7-\u916e", "en_name": ["2,3-Dihydro-9-hydroxy-7H-furo[3,2-g][1]benzopyran-7-one", "7H-Furo[3,2-g][1]benzopyran-7-one, 2,3-dihydro-9-hydroxy-", "5-Benzofuranacrylic acid, 2,3-dihydro-6,7-dihydroxy-, \u03b4-lactone", "2,3-Dihydro-9-hydroxy-7H-furo[3,2-g][1]benzopyran-7-one", "2,3-Dihydroxanthotoxol"], "SMILES": "OC=1C2=C(C=C3C1OCC3)C=CC(=O)O2", "physical_data": {"Molecular Weight": "204.18", "Molecular Formula": "C11H8O4", "Melting Point": "202 \u00b0C"}}