{"cas_no": "68141-13-9", "cn_name": "6-(1,1-\u4e8c\u7532\u57fa\u4e59\u57fa)\u55b9\u5549", "en_name": ["6-tert-Butylquinoline", "Quinoline, 6-(1,1-dimethylethyl)-", "6-(1,1-Dimethylethyl)quinoline", "6-tert-Butylquinoline"], "SMILES": "C(C)(C)(C)C1=CC2=C(C=C1)N=CC=C2", "physical_data": {"Molecular Weight": "185.26", "Molecular Formula": "C13H15N", "Boiling Point": "85 \u00b0C @ Press: 0.05 Torr"}}