{"cas_no": "681492-22-8", "cn_name": "(2R)-2,3-\u4e8c\u6c22-2-\u7532\u57fa-6-\u785d\u57fa-2-[[4-[4-[4-(\u4e09\u6c1f\u7532\u6c27\u57fa)\u82ef\u6c27\u57fa]-1-\u54cc\u5576\u57fa]\u82ef\u6c27\u57fa]\u7532\u57fa]\u54aa\u5511\u5e76[2,1-B]\u6076\u5511", "en_name": ["Delamanid", "Imidazo[2,1-b]oxazole, 2,3-dihydro-2-methyl-6-nitro-2-[[4-[4-[4-(trifluoromethoxy)phenoxy]-1-piperidinyl]phenoxy]methyl]-, (2R)-", "(2R)-2,3-Dihydro-2-methyl-6-nitro-2-[[4-[4-[4-(trifluoromethoxy)phenoxy]-1-piperidinyl]phenoxy]methyl]imidazo[2,1-b]oxazole", "OPC 67683", "Delamanid", "(2R)-2-Methyl-6-nitro-2-[[4-[4-[4-(trifluoromethoxy)phenoxy]piperidin-1-yl]phenoxy]methyl]-3H-imidazo[2,1-b][1,3]oxazole", "Deltyba"], "SMILES": "C(OC1=CC=C(C=C1)N2CCC(OC3=CC=C(OC(F)(F)F)C=C3)CC2)C4(C)CN5C(O4)=NC(N(=O)=O)=C5", "physical_data": {"Molecular Weight": "534.48", "Molecular Formula": "C25H25F3N4O6", "Melting Point": "195-196 \u00b0C"}}