{"cas_no": "681457-46-5", "cn_name": "1-O-\u4e59\u9170\u65cb\u8986\u82b1\u5185\u916f", "en_name": ["1-O-Acetylbritannilactone", "2(3H)-Benzofuranone, 5-[(1S)-4-(acetyloxy)-1-methylbutyl]-3a,4,7,7a-tetrahydro-4-hydroxy-6-methyl-3-methylene-, (3aS,4S,7aR)-", "2(3H)-Benzofuranone, 5-[4-(acetyloxy)-1-methylbutyl]-3a,4,7,7a-tetrahydro-4-hydroxy-6-methyl-3-methylene-, [3aS-[3a\u03b1,4\u03b1,5(R*),7a\u03b1]]-", "(3aS,4S,7aR)-5-[(1S)-4-(Acetyloxy)-1-methylbutyl]-3a,4,7,7a-tetrahydro-4-hydroxy-6-methyl-3-methylene-2(3H)-benzofuranone", "Inulicin", "1-O-Acetylbritannilactone", "1-O-Acetylbritannilatone", "Britannilactone 1-O-acetate", "1-Acetoxy-6\u03b1-hydroxyeriolanolide"], "SMILES": "OC1C2C(CC(C)=C1C(CCCOC(C)=O)C)OC(=O)C2=C", "physical_data": {"Molecular Weight": "308.37", "Molecular Formula": "C17H24O5", "Melting Point": "124.0-126.1 \u00b0C"}}