{"cas_no": "6814-58-0", "cn_name": "5-\u6c2f-3-\u7532\u57fa-4-\u785d\u57fa-1H-\u5421\u5511", "en_name": ["5-Chloro-3-methyl-4-nitro-1H-pyrazole", "1H-Pyrazole, 3-chloro-5-methyl-4-nitro-", "Pyrazole, 3(or 5)-chloro-5(or 3)-methyl-4-nitro-", "3-Chloro-5-methyl-4-nitro-1H-pyrazole", "ABG 3030", "Release", "5-Chloro-3-methyl-4-nitro-1H-pyrazole", "CMN-Pyrazole", "3-Chloro-4-nitro-5-methyl-1H-pyrazole"], "SMILES": "N(=O)(=O)C1=C(C)NN=C1Cl", "physical_data": {"Molecular Weight": "161.55", "Molecular Formula": "C4H4ClN3O2", "Melting Point": "111 \u00b0C"}}