{"cas_no": "68157-60-8", "cn_name": "\u6c2f\u5421\u8132", "en_name": ["Forchlorfenuron", "Urea, N-(2-chloro-4-pyridinyl)-N\u2032-phenyl-", "N-(2-Chloro-4-pyridinyl)-N\u2032-phenylurea", "1-(2-Chloro-4-pyridyl)-3-phenylurea", "N-(2-Chloro-4-pyridyl)-N\u2032-phenylurea", "N-Phenyl-N\u2032-(2-chloro-4-pyridyl)urea", "4PU30", "V 3183", "CN 11-3138", "Forchlorfenuron", "KT 30", "CPPU", "KT 30 (plant growth regulator)", "SKW 20010", "Fulmet", "Sitofex", "Chloropyridylphenyl urea", "1-(2-Chloropyridin-4-yl)-3-phenylurea"], "SMILES": "N(C(NC1=CC=CC=C1)=O)C=2C=C(Cl)N=CC2", "physical_data": {"Molecular Weight": "247.68", "Molecular Formula": "C12H10ClN3O", "Melting Point": "167 \u00b0C"}}