{"cas_no": "68155-69-1", "cn_name": "3-\u7532\u57fa-4-\u6eb4\u82ef\u4e59\u919a", "en_name": ["1-Bromo-4-ethoxy-2-methylbenzene", "Benzene, 1-bromo-4-ethoxy-2-methyl-", "1-Bromo-4-ethoxy-2-methylbenzene", "2-Bromo-5-ethoxytoluene"], "SMILES": "O(CC)C1=CC(C)=C(Br)C=C1", "physical_data": {"Molecular Weight": "215.09", "Molecular Formula": "C9H11BrO", "Boiling Point": "129 \u00b0C @ Press: 10 Torr"}}