{"cas_no": "68171-52-8", "cn_name": "\u4e9a\u6cb9\u9187\u4e59\u9187\u80fa", "en_name": ["N-Linoleoylethanolamine", "9,12-Octadecadienamide, N-(2-hydroxyethyl)-, (9Z,12Z)-", "9,12-Octadecadienamide, N-(2-hydroxyethyl)-, (Z,Z)-", "Linoleamide, N-(2-hydroxyethyl)-", "(9Z,12Z)-N-(2-Hydroxyethyl)-9,12-octadecadienamide", "N-Linoleoylethanolamine", "N-(2-Hydroxyethyl)-(Z,Z)-9,12-octadecadienamide", "N-(2-Hydroxyethyl)linoleamide", "Linoleic acid monoethanolamide", "Linoleoyl ethanolamide", "N-Linoleoylethanolamide"], "SMILES": "C(CCCCCC=CCC=CCCCCC)CC(NCCO)=O", "physical_data": {"Molecular Weight": "323.51", "Molecular Formula": "C20H37NO2", "Melting Point": "38-40 \u00b0C"}}