{"cas_no": "6817-41-0", "cn_name": "\u5f02\u83b2\u5fc3\u78b1", "en_name": ["(+)-Isoliensinine", "7-Isoquinolinol, 1,2,3,4-tetrahydro-1-[[4-hydroxy-3-[[(1R)-1,2,3,4-tetrahydro-6-methoxy-1-[(4-methoxyphenyl)methyl]-2-methyl-7-isoquinolinyl]oxy]phenyl]methyl]-6-methoxy-2-methyl-, (1R)-", "Isoliensinine", "7-Isoquinolinol, 1,2,3,4-tetrahydro-1-[[4-hydroxy-3-[[1,2,3,4-tetrahydro-6-methoxy-1-[(4-methoxyphenyl)methyl]-2-methyl-7-isoquinolinyl]oxy]phenyl]methyl]-6-methoxy-2-methyl-, [R-(R*,R*)]-", "(1R)-1,2,3,4-Tetrahydro-1-[[4-hydroxy-3-[[(1R)-1,2,3,4-tetrahydro-6-methoxy-1-[(4-methoxyphenyl)methyl]-2-methyl-7-isoquinolinyl]oxy]phenyl]methyl]-6-methoxy-2-methyl-7-isoquinolinol", "Isoliensinin", "(+)-Isoliensinine"], "SMILES": "C(C1C=2C(=CC(OC)=C(OC3=CC(CC4C=5C(=CC(OC)=C(O)C5)CCN4C)=CC=C3O)C2)CCN1C)C6=CC=C(OC)C=C6", "physical_data": {"Molecular Weight": "610.74", "Molecular Formula": "C37H42N2O6", "Melting Point": "69-71 \u00b0C"}}