{"cas_no": "6818-99-1", "cn_name": "3-\u6c2f-1,2,4-\u4e09\u6c2e\u5511", "en_name": ["5-Chloro-1H-1,2,4-triazole", "1H-1,2,4-Triazole, 5-chloro-", "s-Triazole, 3-chloro-", "1H-1,2,4-Triazole, 3-chloro-", "5-Chloro-1H-1,2,4-triazole", "3-Chloro-1H-1,2,4-triazole", "3-Chloro-s-triazole", "3-Chloro-1,2,4-triazole", "NSC 153381", "5-Chloro-1H-[1,2,4]triazol-3-ylamine"], "SMILES": "ClC=1NC=NN1", "physical_data": {"Molecular Weight": "103.51", "Molecular Formula": "C2H2ClN3", "Melting Point": "167-168 \u00b0C"}}