{"cas_no": "68189-23-1", "cn_name": "4-(\u4e8c\u4e59\u57fa\u6c28\u57fa)\u82ef\u7532\u919b-1,1-\u4e8c\u82ef\u8159", "en_name": ["4-(Diethylamino)benzaldehyde 2,2-diphenylhydrazone", "Benzaldehyde, 4-(diethylamino)-, 2,2-diphenylhydrazone", "Benzaldehyde, 4-(diethylamino)-, diphenylhydrazone", "4-(Diethylamino)benzaldehyde 2,2-diphenylhydrazone", "DEH", "p-(Diethylamino)benzaldehyde 1,1-diphenylhydrazone", "p-(Diethylamino)benzaldehyde diphenylhydrazone", "4-(Diethylamino)benzaldehyde diphenylhydrazone", "ABPH", "CTC 236", "4-(Diethylamino)benzaldehyde N,N-diphenylhydrazone", "4-(Diethylamino)phenyl N,N-diphenylhydrazone"], "SMILES": "N(N=CC1=CC=C(N(CC)CC)C=C1)(C2=CC=CC=C2)C3=CC=CC=C3", "physical_data": {"Molecular Weight": "343.46", "Molecular Formula": "C23H25N3", "Melting Point": "94 \u00b0C"}}