{"cas_no": "682-11-1", "cn_name": "\u4e09\u7532\u57fa\u4e19\u70f7\u5355\u70ef\u4e19\u916f", "en_name": ["Trimethylolpropane monoallyl ether", "1,3-Propanediol, 2-ethyl-2-[(2-propen-1-yloxy)methyl]-", "1,3-Propanediol, 2-[(allyloxy)methyl]-2-ethyl-", "1,3-Propanediol, 2-ethyl-2-[(2-propenyloxy)methyl]-", "2-Ethyl-2-[(2-propen-1-yloxy)methyl]-1,3-propanediol", "Trimethylolpropane monoallyl ether", "2-Allyloxymethyl-2-ethyl-1,3-propanediol", "1,1,1-Trimethylolpropane monoallyl ether", "2-Ethyl-2-allyloxymethyl-1,3-propanediol", "Trimethylolpropane allyl ether"], "SMILES": "C(COCC=C)(CC)(CO)CO", "physical_data": {"Molecular Weight": "174.24", "Molecular Formula": "C9H18O3", "Boiling Point": "122-160 \u00b0C @ Press: 4 Torr"}}