{"cas_no": "682-01-9", "cn_name": "\u56db\u4e19\u6c27\u57fa\u7845\u70f7", "en_name": ["Tetrapropoxysilane", "Silicic acid (H4SiO4), tetrapropyl ester", "Propyl silicate ((PrO)4Si)", "Propyl silicate", "Propyl orthosilicate", "Silane, tetrapropoxy-", "Tetrapropyl orthosilicate", "Tetrapropoxysilane", "Tetra-n-propoxysilane", "Tetrapropyl silicate", "Silicon tetrapropoxide", "Silicon orthopropoxide", "Dynasil P", "N-POS", "Tetra-n-propyl silicate", "Tetra-n-propyl orthosilicate", "SIT 7777.0", "Tetrapropoxy orthosilicate", "Dynasylan P"], "SMILES": "[Si](OCCC)(OCCC)(OCCC)OCCC", "physical_data": {"Molecular Weight": "264.43", "Molecular Formula": "C12H28O4Si", "Boiling Point": "226 \u00b0C", "Melting Point": "&lt;-80 \u00b0C", "Density": "0.915 g/cm\u00b3"}}