{"cas_no": "682-09-7", "cn_name": "\u4e09\u7f9f\u7532\u57fa\u4e19\u70f7\u4e8c\u70ef\u4e19\u57fa\u919a", "en_name": ["Trimethylolpropane diallyl ether", "1-Butanol, 2,2-bis[(2-propen-1-yloxy)methyl]-", "1-Butanol, 2,2-bis[(allyloxy)methyl]-", "1-Butanol, 2,2-bis[(2-propenyloxy)methyl]-", "2,2-Bis[(2-propen-1-yloxy)methyl]-1-butanol", "Trimethylolpropane diallyl ether", "Trimethylpropane diallyl ether", "Diallyl trimethylolpropane ether", "2,2-Bis(allyloxymethyl)-1-butanol", "Neoallyl T 20", "T 20", "TMPDE 80", "TMPDE 90", "Tri(hydroxymethyl)propane diallyl ether", "2,2-Bis(prop-2-enoxymethyl)butan-1-ol"], "SMILES": "C(COCC=C)(COCC=C)(CC)CO", "physical_data": {"Molecular Weight": "214.30", "Molecular Formula": "C12H22O3", "Boiling Point": "132-145 \u00b0C @ Press: 13-15 Torr", "Density": "0.958-0.960 g/cm\u00b3 @ Temp: 25 \u00b0C"}}