{"cas_no": "682-30-4", "cn_name": "\u4e59\u70ef\u57fa\u78f7\u9178\u4e8c\u4e59\u916f", "en_name": ["Diethyl vinylphosphonate", "Phosphonic acid, P-ethenyl-, diethyl ester", "Phosphonic acid, vinyl-, diethyl ester", "Phosphonic acid, ethenyl-, diethyl ester", "Diethyl vinylphosphonate", "O,O-Diethyl vinylphosphonate", "Diethoxyphosphinylethene", "Vinylphosphonic acid diethyl ester", "Diethyl ethenylphosphonate", "1-[Ethenyl(ethoxy)phosphoryl]oxyethane"], "SMILES": "P(OCC)(OCC)(C=C)=O", "physical_data": {"Molecular Weight": "164.14", "Molecular Formula": "C6H13O3P", "Boiling Point": "50 \u00b0C @ Press: 1 Torr", "Density": "1.0529 g/cm\u00b3 @ Temp: 20 \u00b0C"}}