{"cas_no": "68206-94-0", "cn_name": "\u6c2f\u514b\u7f57\u5b5f", "en_name": ["Cloricromen", "Acetic acid, 2-[[8-chloro-3-[2-(diethylamino)ethyl]-4-methyl-2-oxo-2H-1-benzopyran-7-yl]oxy]-, ethyl ester", "Acetic acid, [[8-chloro-3-[2-(diethylamino)ethyl]-4-methyl-2-oxo-2H-1-benzopyran-7-yl]oxy]-, ethyl ester", "AD 6", "AD 6 (pharmaceutical)", "8-Chlorocarbochromen", "Cloricromene", "Cloricromen", "(4-[(5-bromo-1,3-thiazol-2-yl)amino]-N-methylbenzamide)"], "SMILES": "CC=1C=2C(=C(Cl)C(OCC(OCC)=O)=CC2)OC(=O)C1CCN(CC)CC", "physical_data": {"Molecular Weight": "395.88", "Molecular Formula": "C20H26ClNO5", "Melting Point": "147-148 \u00b0C"}}