{"cas_no": "68208-19-5", "cn_name": "3-\u6c28\u57fa-3-(3-\u7532\u6c27\u82ef\u57fa)\u4e19\u9178", "en_name": ["3-Amino-3-(3-methoxyphenyl)propionic acid", "Benzenepropanoic acid, \u03b2-amino-3-methoxy-", "Hydrocinnamic acid, \u03b2-amino-m-methoxy-", "\u03b2-Amino-3-methoxybenzenepropanoic acid", "3-Amino-3-(3-methoxyphenyl)propionic acid", "\u03b2-Amino-m-methoxyhydrocinnamic acid", "3-Azaniumyl-3-(3-methoxyphenyl)propanoate", "3-Amino-3-(3-methoxyphenyl)propanoic acid"], "SMILES": "C(CC(O)=O)(N)C1=CC(OC)=CC=C1", "physical_data": {"Molecular Weight": "195.22", "Molecular Formula": "C10H13NO3", "Melting Point": "216 \u00b0C (decomp)"}}