{"cas_no": "68208-20-8", "cn_name": "3-\u6c28\u57fa-3-(2-\u6c2f\u82ef\u57fa)\u4e19\u9178", "en_name": ["\u03b2-Amino-2-chlorobenzenepropanoic acid", "Benzenepropanoic acid, \u03b2-amino-2-chloro-", "\u03b2-Amino-2-chlorobenzenepropanoic acid", "NSC 45727", "3-Amino-3-(2-chlorophenyl)propanoic acid", "3-Amino-3-(2-chloro-phenyl)-propionic acid", "3-Amino-3-(2-chlorophenyl)propanoicacid"], "SMILES": "C(CC(O)=O)(N)C1=C(Cl)C=CC=C1", "physical_data": {"Molecular Weight": "199.63", "Molecular Formula": "C9H10ClNO2", "Melting Point": "245 \u00b0C (decomp)"}}