{"cas_no": "68208-25-3", "cn_name": "3-\u6c28\u57fa-3-\u95f4\u6c2f\u82ef\u57fa-1-\u4e19\u9187", "en_name": ["\u03b3-Amino-3-chlorobenzenepropanol", "Benzenepropanol, \u03b3-amino-3-chloro-", "1-Propanol, 3-amino-3-(m-chlorophenyl)-", "\u03b3-Amino-3-chlorobenzenepropanol", "3-Amino-3-(3-chlorophenyl)propan-1-ol", "1-(3-Chlorophenyl)-3-hydroxypropylamine"], "SMILES": "C(CCO)(N)C1=CC(Cl)=CC=C1", "physical_data": {"Molecular Weight": "185.65", "Molecular Formula": "C9H12ClNO", "Melting Point": "63-65 \u00b0C"}}