{"cas_no": "68227-51-0", "cn_name": "\u4e01\u9178 2-\u7532\u57fa-5-\u6c27\u4ee3-1-\u73af\u620a\u70ef-1-\u57fa\u916f", "en_name": ["2-Methyl-5-oxo-1-cyclopenten-1-yl butanoate", "Butanoic acid, 2-methyl-5-oxo-1-cyclopenten-1-yl ester", "Butyric acid, 2-methyl-5-oxo-1-cyclopenten-1-yl ester", "2-Methyl-5-oxo-1-cyclopenten-1-yl butanoate", "Cyclotene butyrate", "2-Methyl-5-oxocyclopent-1-en-1-yl butanoate", "2-Methyl-5-oxocyclopent-1-en-1-yl butyrate"], "SMILES": "O(C(CCC)=O)C1=C(C)CCC1=O", "physical_data": {"Molecular Weight": "182.22", "Molecular Formula": "C10H14O3", "Boiling Point": "82.5-85 \u00b0C @ Press: 0.1 Torr"}}