{"cas_no": "68227-69-0", "cn_name": "2-\u6c28\u57fa\u82ef\u78fa\u9178\u82ef\u916f", "en_name": ["Benzenesulfonic acid, 2-amino-, phenyl ester", "Benzenesulfonic acid, 2-amino-, phenyl ester", "Phenyl 2-aminobenzenesulfonate", "2-Aminobenzenesulfonic acid phenyl ester"], "SMILES": "S(OC1=CC=CC=C1)(=O)(=O)C2=C(N)C=CC=C2", "physical_data": {"Molecular Weight": "249.29", "Molecular Formula": "C12H11NO3S", "Melting Point": "69-71 \u00b0C"}}