{"cas_no": "68252-28-8", "cn_name": "(R)-\u5965\u62c9\u897f\u5766", "en_name": ["(4R)-4-Hydroxy-2-oxo-1-pyrrolidineacetamide", "1-Pyrrolidineacetamide, 4-hydroxy-2-oxo-, (4R)-", "1-Pyrrolidineacetamide, 4-hydroxy-2-oxo-, (R)-", "(4R)-4-Hydroxy-2-oxo-1-pyrrolidineacetamide", "(r)-2-(4-Hydroxy-2-oxopyrrolidin-1-yl)acetamide", "R-Oxiracetam", "2-[(4R)-4-Hydroxy-2-oxopyrrolidin-1-yl]acetamide"], "SMILES": "C(C(N)=O)N1CC(O)CC1=O", "physical_data": {"Molecular Weight": "", "Molecular Formula": "C6H10N2O3", "Melting Point": "163-167 \u00b0C"}}