{"cas_no": "68252-19-7", "cn_name": "Pirmenol", "en_name": ["Pirmenol", "2-Pyridinemethanol, \u03b1-[3-[(2R,6S)-2,6-dimethyl-1-piperidinyl]propyl]-\u03b1-phenyl-, rel-", "2-Pyridinemethanol, \u03b1-[3-(2,6-dimethyl-1-piperidinyl)propyl]-\u03b1-phenyl-, cis-(\u00b1)-", "rel-\u03b1-[3-[(2R,6S)-2,6-Dimethyl-1-piperidinyl]propyl]-\u03b1-phenyl-2-pyridinemethanol", "Pirmenol", "(\u00b1)-Pirmenol", "2-Pyridinemethanol, \u03b1-[3-(2,6-dimethyl-1-piperidinyl)propyl]-\u03b1-phenyl-, cis-"], "SMILES": "C(CCCN1C(C)CCCC1C)(O)(C2=CC=CC=C2)C3=CC=CC=N3", "physical_data": {"Molecular Weight": "338.49", "Molecular Formula": "C22H30N2O", "Melting Point": "70-71 \u00b0C"}}