{"cas_no": "68278-23-9", "cn_name": "\u4f9d\u6c1f\u9e1f\u6c28\u9178", "en_name": ["Eflornithine hydrochloride", "Ornithine, 2-(difluoromethyl)-, hydrochloride (1:1)", "DL-Ornithine, 2-(difluoromethyl)-, monohydrochloride", "Ornithine, 2-(difluoromethyl)-, monohydrochloride", "Eflornithine hydrochloride", "Vaniqa", "NSC 270295", "NSC 337250", "DFMO HCl", "2,5-Diamino-2-(difluoromethyl)pentanoic acid hydrochloride"], "SMILES": "C(CCCN)(C(F)F)(C(O)=O)N.Cl", "physical_data": {"Molecular Weight": "", "Molecular Formula": "C6H12F2N2O2.ClH", "Melting Point": "183 \u00b0C"}}