{"cas_no": "68274-97-5", "cn_name": "5-\u5341\u70ef-1-\u9187", "en_name": ["5-Decyn-1-ol", "5-Decyn-1-ol"], "SMILES": "C(#CCCCC)CCCCO", "physical_data": {"Molecular Weight": "154.25", "Molecular Formula": "C10H18O", "Boiling Point": "125 \u00b0C @ Press: 14 Torr"}}