{"cas_no": "68282-49-5", "cn_name": "2-\u4e01\u57fa-1H-\u54aa\u5511-4-\u7532\u919b", "en_name": ["2-Butyl-1H-imidazole-5-carboxaldehyde", "1H-Imidazole-5-carboxaldehyde, 2-butyl-", "1H-Imidazole-4-carboxaldehyde, 2-butyl-", "2-Butyl-1H-imidazole-5-carboxaldehyde", "2-n-Butyl-4-imidazolecarboxaldehyde", "2-Butyl-5-formylimidazole", "2-n-Butyl-5-imidazolecarboxaldehyde", "2-n-Butyl-4-formylimidazole", "2-Butyl-1H-imidazole-4-carboxaldehyde", "2-Butyl-4-formylimidazole", "2-Butyl-3H-imidazole-4-carboxaldehyde", "2-Butyl-1H-imidazole-4-carbaldehyde", "2-Butyl-1H-imidazole-5-carbaldehyde"], "SMILES": "C(CCC)C=1NC(C=O)=CN1", "physical_data": {"Molecular Weight": "152.19", "Molecular Formula": "C8H12N2O", "Melting Point": "118-119 \u00b0C"}}