{"cas_no": "6828-35-9", "cn_name": "5-\u6c2f-2-\u7898\u82ef\u80fa", "en_name": ["5-Chloro-2-iodobenzenamine", "Benzenamine, 5-chloro-2-iodo-", "Aniline, 5-chloro-2-iodo-", "5-Chloro-2-iodobenzenamine", "5-Chloro-2-iodoaniline", "3-Chloro-6-iodoaniline", "2-Iodo-5-chloroaniline"], "SMILES": "NC1=C(I)C=CC(Cl)=C1", "physical_data": {"Molecular Weight": "253.47", "Molecular Formula": "C6H5ClIN", "Melting Point": "64-66 \u00b0C"}}