{"cas_no": "6829-98-7", "cn_name": "\u6c27\u4e19\u54aa\u55ea", "en_name": ["Imipramine N-oxide", "5H-Dibenz[b,f]azepine-5-propanamine, 10,11-dihydro-N,N-dimethyl-, N-oxide", "5H-Dibenz[b,f]azepine, 5-[3-(dimethylamino)propyl]-10,11-dihydro-, N-oxide", "Imipramine N-oxide", "5-[3-(Dimethylamino)propyl]-10,11-dihydro-5H-dibenz[b,f]azepine 5-oxide", "Imipraminoxide"], "SMILES": "C(CCN(C)(C)=O)N1C=2C(CCC=3C1=CC=CC3)=CC=CC2", "physical_data": {"Molecular Weight": "296.41", "Molecular Formula": "C19H24N2O", "Melting Point": "121 \u00b0C (decomp)"}}