{"cas_no": "6829-40-9", "cn_name": "\u6c28\u57fa\u4e19\u4e8c\u9178\u4e59\u916f", "en_name": ["Propanedioic acid, 2-amino-, 1,3-diethyl ester", "Propanedioic acid, 2-amino-, 1,3-diethyl ester", "Malonic acid, amino-, diethyl ester", "Propanedioic acid, amino-, diethyl ester", "Diethyl aminomalonate", "Diethyl 2-aminomalonate", "Aminomalonic acid diethyl ester", "NSC 121992", "1,3-Diethyl 2-aminopropanedioate", "Diethyl aminopropanedioate"], "SMILES": "C(C(OCC)=O)(C(OCC)=O)N", "physical_data": {"Molecular Weight": "175.18", "Molecular Formula": "C7H13NO4", "Boiling Point": "116-118 \u00b0C @ Press: 12 Torr", "Melting Point": "170 \u00b0C"}}