{"cas_no": "68291-97-4", "cn_name": "\u5511\u5c3c\u6c99\u80fa", "en_name": ["Zonisamide", "1,2-Benzisoxazole-3-methanesulfonamide", "3-(Sulfamoylmethyl)-1,2-benzisoxazole", "AD 810", "Zonisamide", "CI 912", "PD 110843", "(1,2-Benzisoxazol-3-yl)methanesulfonamide", "Excegran", "AD 810 (sulfonamide)", "Zonegran", "Exceglan", "Excegram", "1.2-Benzoxazol-3-ylmethanesulfonamide", "MeSH ID: C022189"], "SMILES": "C(S(N)(=O)=O)C=1C=2C(ON1)=CC=CC2", "physical_data": {"Molecular Weight": "212.23", "Molecular Formula": "C8H8N2O3S", "Melting Point": "160-163 \u00b0C"}}