{"cas_no": "6829-22-7", "cn_name": "\u6eb6\u5242\u7ea2 179", "en_name": ["Solvent Red 179", "14H-Benz[4,5]isoquino[2,1-a]perimidin-14-one", "Naphthaloperinone", "14H-Perimidino[2,1-a]benz[de]isoquinolin-14-one", "C.I. Solvent Red 179", "C.I. 564150", "Sumiplast Red H 4GR", "Solvent Red 179", "Macrolex Red E 2G", "Kayaset Red A 2G", "Plast Red 8370", "Sandoplast Red 2G", "Amaplast Red RP", "Lumaplast Red A 2G", "1,8-Naphthaloperinone", "KP Plast Red H 2G", "14H-Benzo[4,5]isoquino[2,1-a]perimidin-14-one", "14H-Benzo[4,5]isoquinolino[2,1-a]perimidin-14-one", "Macrolex Red E 2G Gran"], "SMILES": "O=C1N2C(C=3C=4C1=CC=CC4C=CC3)=NC=5C=6C2=CC=CC6C=CC5", "physical_data": {"Molecular Weight": "320.34", "Molecular Formula": "C22H12N2O", "Melting Point": "253 \u00b0C"}}