{"cas_no": "683-57-8", "cn_name": "2-\u6eb4\u4e59\u9170\u80fa", "en_name": ["Bromoacetamide", "Acetamide, 2-bromo-", "Bromoacetamide", "2-Bromoacetamide", "NSC 77371", "\u03b1-Bromoacetamide"], "SMILES": "C(CBr)(N)=O", "physical_data": {"Molecular Weight": "137.96", "Molecular Formula": "C2H4BrNO", "Melting Point": "88-90 \u00b0C"}}