{"cas_no": "683-72-7", "cn_name": "\u4e8c\u6c2f\u4e59\u9170\u80fa", "en_name": ["Dichloroacetamide", "Acetamide, 2,2-dichloro-", "2,2-Dichloroacetamide", "Dichloroacetamide", "NSC 402025"], "SMILES": "C(C(N)=O)(Cl)Cl", "physical_data": {"Molecular Weight": "127.96", "Molecular Formula": "C2H3Cl2NO", "Boiling Point": "234 \u00b0C", "Melting Point": "99.4 \u00b0C"}}