{"cas_no": "683-08-9", "cn_name": "\u7532\u57fa\u81a6\u9178\u4e8c\u4e59\u916f", "en_name": ["Diethyl methylphosphonate", "Phosphonic acid, P-methyl-, diethyl ester", "Phosphonic acid, methyl-, diethyl ester", "Diethyl methylphosphonate", "Diethyl methanephosphonate", "O,O-Diethyl methylphosphonate", "DEMP", "Diethoxymethylphosphine oxide", "Bis(diethoxyphosphinyl)methane", "1-[Ethoxy(methyl)phosphoryl]oxyethane"], "SMILES": "P(OCC)(OCC)(C)=O", "physical_data": {"Molecular Weight": "152.13", "Molecular Formula": "C5H13O3P", "Boiling Point": "194 \u00b0C", "Density": "1.0726 g/cm\u00b3 @ Temp: 0 \u00b0C"}}