{"cas_no": "683-18-1", "cn_name": "\u4e8c\u4e01\u57fa\u4e8c\u6c2f\u5316\u9521", "en_name": ["Dibutyltin dichloride", "Stannane, dibutyldichloro-", "Dibutyltin dichloride", "Dibutyldichlorostannane", "Dichlorodibutyltin", "Dibutyltin chloride", "Dichlorodibutylstannane", "Dibutyldichlorotin", "Di-n-butyltin dichloride", "NSC 2604", "Dichlorobis(dibutyl)tin", "Di-n-butyltin(II) chloride", "Dibutyltin(IV) dichloride", "KC 1A1"], "SMILES": "[Sn](CCCC)(CCCC)(Cl)Cl", "physical_data": {"Molecular Weight": "303.84", "Molecular Formula": "C8H18Cl2Sn", "Boiling Point": "135 \u00b0C @ Press: 10 Torr", "Melting Point": "43 \u00b0C"}}