{"cas_no": "6830-78-0", "cn_name": "3,6-\u4e8c\u82ef\u57fa-1,2,4,5-\u56db\u55ea", "en_name": ["3,6-Diphenyl-1,2,4,5-tetrazine", "1,2,4,5-Tetrazine, 3,6-diphenyl-", "s-Tetrazine, 3,6-diphenyl-", "s-Tetrazine, diphenyl-", "3,6-Diphenyl-1,2,4,5-tetrazine", "3,6-Diphenyl-s-tetrazine", "Diphenyl-s-tetrazine", "3,6-Diphenyl-sym-tetrazine", "NSC 73054"], "SMILES": "C=1(N=NC(=NN1)C2=CC=CC=C2)C3=CC=CC=C3", "physical_data": {"Molecular Weight": "234.26", "Molecular Formula": "C14H10N4", "Melting Point": "192 \u00b0C"}}