{"cas_no": "6830-82-6", "cn_name": "N-\u7532\u57fa-2-\u82ef\u57fa\u4e59\u9170\u80fa", "en_name": ["N-Methyl-2-phenylacetamide", "Benzeneacetamide, N-methyl-", "Acetamide, N-methyl-2-phenyl-", "N-Methylbenzeneacetamide", "N-Methylphenylacetamide", "N-Methyl-2-phenylacetamide", "NSC 54118"], "SMILES": "C(C(NC)=O)C1=CC=CC=C1", "physical_data": {"Molecular Weight": "149.19", "Molecular Formula": "C9H11NO", "Boiling Point": "165-168 \u00b0C @ Press: 11 Torr", "Melting Point": "56-57 \u00b0C"}}