{"cas_no": "68301-59-7", "cn_name": "4-\u7f9f\u57fa-2-\u6c2f\u82ef\u4e59\u916e", "en_name": ["1-(2-Chloro-4-hydroxyphenyl)ethanone", "Ethanone, 1-(2-chloro-4-hydroxyphenyl)-", "1-(2-Chloro-4-hydroxyphenyl)ethanone", "2\u2032-Chloro-4\u2032-hydroxyacetophenone", "3-Chloro-4-acetylphenol", "1-(2-Chloro-4-hydroxyphenyl)ethan-1-one"], "SMILES": "C(C)(=O)C1=C(Cl)C=C(O)C=C1", "physical_data": {"Molecular Weight": "170.59", "Molecular Formula": "C8H7ClO2", "Melting Point": "110 \u00b0C"}}