{"cas_no": "68302-57-8", "cn_name": "\u6c28\u6765\u8bfa", "en_name": ["Amlexanox", "5H-[1]Benzopyrano[2,3-b]pyridine-3-carboxylic acid, 2-amino-7-(1-methylethyl)-5-oxo-", "2-Amino-7-(1-methylethyl)-5-oxo-5H-[1]benzopyrano[2,3-b]pyridine-3-carboxylic acid", "AA 673", "Amoxanox", "Amlexanox", "Elics", "CHX 3673", "Solfa", "Aphtheal", "Aphthasol", "2-Amino-5-oxo-7-propan-2-ylchromeno[2,3-b]pyridine-3-carboxylic acid", "2-Amino-7-isopropyl-5-oxo-5H-chromeno[2,3-b]pyridine-3-carboxylicacid"], "SMILES": "O=C1C=2C(OC=3C1=CC(C(C)C)=CC3)=NC(N)=C(C(O)=O)C2", "physical_data": {"Molecular Weight": "298.29", "Molecular Formula": "C16H14N2O4", "Melting Point": "&gt;300 \u00b0C"}}