{"cas_no": "6833-84-7", "cn_name": "\u65e0\u6d3b\u83cc\u7d20", "en_name": ["Nonactin", "4,13,22,31,37,38,39,40-Octaoxapentacyclo[32.2.1.17,10.116,19.125,28]tetracontane-3,12,21,30-tetrone, 2,5,11,14,20,23,29,32-octamethyl-, (1R,2R,5R,7R,10S,11S,14S,16S,19R,20R,23R,25R,28S,29S,32S,34S)-", "Nonactin", "4,13,22,31,37,38,39,40-Octaoxapentacyclo[32.2.1.17,10.116,19.125,28]tetracontane-3,12,21,30-tetrone, 2,5,11,14,20,23,29,32-octamethyl-, [1R-(1R*,2R*,5R*,7R*,10S*,11S*,14S*,16S*,19R*,20R*,23R*,25R*,28S*,29S*,32S*,34S*)]-", "4,13,22,31,37,38,39,40-Octaoxapentacyclo[32.2.1.17,10.116,19.125,28]tetracontane, nonactin deriv.", "(1R,2R,5R,7R,10S,11S,14S,16S,19R,20R,23R,25R,28S,29S,32S,34S)-2,5,11,14,20,23,29,32-Octamethyl-4,13,22,31,37,38,39,40-octaoxapentacyclo[32.2.1.17,10.116,19.125,28]tetracontane-3,12,21,30-tetrone", "[1R-(1R*,2R*,5R*,7R*,10S*,11S*,14S*,16S*,19R*,20R*,23R*,25R*,28S*,29S*,32S*,34S*)]-2,5,11,14,20,23,29,32-Octamethyl-4,13,22,31,37,38,39,40-octaoxapentacyclo[32.2.1.17,10.116,19.125,28]tetracontane-3,12,21,30-tetrone", "Ammonium ionophore I", "NSC 52141", "NSC 56409"], "SMILES": "CC1C2OC(CC2)CC(C)OC(=O)C(C)C3OC(CC3)CC(C)OC(=O)C(C)C4OC(CC(C)OC(=O)C(C)C5OC(CC(C)OC1=O)CC5)CC4", "physical_data": {"Molecular Weight": "736.93", "Molecular Formula": "C40H64O12", "Melting Point": "147.5 \u00b0C", "Density": "1.11-1.15 g/cm\u00b3"}}