{"cas_no": "68337-15-5", "cn_name": "4\u2018-\uff081H-1,2,4-\u4e09\u5511\u57fa\uff09\u82ef\u915a", "en_name": ["4-(1,2,4-Triazol-1-yl)phenol", "Phenol, 4-(1H-1,2,4-triazol-1-yl)-", "4-(1H-1,2,4-Triazol-1-yl)phenol", "4-(1,2,4-Triazol-1-yl)phenol", "1-(4-Hydroxyphenyl)-1H-1,2,4-triazole", "4-(5-Methyl-1H-1,2,4-triazol-1-yl)phenol"], "SMILES": "OC1=CC=C(C=C1)N2C=NC=N2", "physical_data": {"Molecular Weight": "161.16", "Molecular Formula": "C8H7N3O", "Melting Point": "216-220 \u00b0C"}}