{"cas_no": "6834-92-0", "cn_name": "\u504f\u7845\u9178\u94a0", "en_name": ["Sodium metasilicate (Na2SiO3)", "Silicic acid (H2SiO3), sodium salt (1:2)", "Silicic acid (H2SiO3), disodium salt", "Orthosil", "Sodium metasilicate", "Sodium silicate (Na2SiO3)", "Sodium metasilicate (Na2SiO3)", "Simet A", "Disodium metasilicate", "Crystamet", "Silicon sodium oxide (SiNa2O3)", "Disodium monosilicate", "Metso Pentabead 20", "Disodium silicate", "Simet AP", "Simet 5G", "Sodium silicon oxide (Na2SiO3)", "Simet GA 5", "P 84 (silicate)", "P 84", "Metso 510", "SP 20", "SMS", "SP 20 (silicate)", "Starso", "Metso 2048", "Simet AG", "Blue Meta", "Metso-Beads 2048", "Sodium silicate (Na2(SiO3))", "Drymet 59", "Purifeed 6N", "Sodium Metasilicate Anhydrous Granular D", "Sodium silicate (Na6(SiO3)3)", "R-SIL", "Stixso NN", "Mead Beads 2048", "Metso 20", "S 108358", "Sodium silicate (Na3(SiO3))"], "SMILES": "[Si](O)(O)=O.[Na]", "physical_data": {"Molecular Weight": "", "Molecular Formula": "H2O3Si.2Na", "Melting Point": "1089 \u00b0C", "Density": "2.614 g/cm\u00b3"}}