{"cas_no": "68359-37-5", "cn_name": "\u6c1f\u6c2f\u6c30\u83ca\u916f", "en_name": ["Cyfluthrin", "Cyclopropanecarboxylic acid, 3-(2,2-dichloroethenyl)-2,2-dimethyl-, cyano(4-fluoro-3-phenoxyphenyl)methyl ester", "Cyfluthrin", "BAY-FCR 1272", "Baythroid", "FCR 1272", "\u03b1-Cyano-3-phenoxy-4-fluorobenzyl 2,2-dimethyl-3-(2,2-dichlorovinyl)cyclopropanecarboxylate", "Eulan SP", "BAY-Vl 1704", "Solfac", "Tempo 2", "Optem PT 600", "Renounce", "Tombstone", "Preventol HS 12", "Tombstone Helios", "\u03b1-Cyano-4-fluoro-3-phenoxybenzyl 3-(2,2-dichlorovinyl)-2,2-dimethylcyclopropanecarboxylate", "Tempo 20WP", "Cyfloxylate", "Solfac 050EW", "Adalticid Solfak", "Cy-Kick"], "SMILES": "C(OC(C#N)C1=CC(OC2=CC=CC=C2)=C(F)C=C1)(=O)C3C(C=C(Cl)Cl)C3(C)C", "physical_data": {"Molecular Weight": "434.29", "Molecular Formula": "C22H18Cl2FNO3", "Melting Point": "60 \u00b0C"}}