{"cas_no": "6835-16-1", "cn_name": "\u83a8\u83ea\u78b1\u786b\u9178\u76d0\u6c34\u5408\u7269", "en_name": ["Benzeneacetic acid, \u03b1-(hydroxymethyl)-, (\u03b1S)-, (3-endo)-8-methyl-8-azabicyclo[3.2.1]oct-3-yl ester, sulfate, hydrate (2:1:2)", "Benzeneacetic acid, \u03b1-(hydroxymethyl)-, (\u03b1S)-, (3-endo)-8-methyl-8-azabicyclo[3.2.1]oct-3-yl ester, sulfate, hydrate (2:1:2)", "1\u03b1H-Tropan-3\u03b1-ol, (-)-tropate (ester), sulfate (2:1), dihydrate", "Benzeneacetic acid, \u03b1-(hydroxymethyl)-, 8-methyl-8-azabicyclo[3.2.1]oct-3-yl ester, [3(S)-endo]-, sulfate (2:1) (salt), dihydrate"], "SMILES": "O(C(C(CO)C1=CC=CC=C1)=O)C2CC3N(C)C(C2)CC3.S(=O)(=O)(O)O.O", "physical_data": {"Molecular Weight": "", "Molecular Formula": "C17H23NO3.<sup>1</sup>/2H2O4S.H2O", "Melting Point": "206 \u00b0C"}}