{"cas_no": "68353-24-2", "cn_name": "1-\u7532\u57fa-2-\u58ec\u57fa-4-\u55b9\u5549\u916e", "en_name": ["1-Methyl-2-nonyl-4(1H)-quinolone", "4(1H)-Quinolinone, 1-methyl-2-nonyl-", "1-Methyl-2-nonyl-4(1H)-quinolinone", "1-Methyl-2-nonyl-4-quinolinone", "1-Methyl-2-n-nonyl-4(1H) quinolone", "1-Methyl-2-nonyl-4(1H)-quinolone"], "SMILES": "CN1C=2C(C(=O)C=C1CCCCCCCCC)=CC=CC2", "physical_data": {"Molecular Weight": "285.42", "Molecular Formula": "C19H27NO", "Melting Point": "69-70 \u00b0C"}}