{"cas_no": "6836-22-2", "cn_name": "7-\u7532\u6c27\u57fa-1-\u8418\u4e59\u9178", "en_name": ["7-Methoxy-1-naphthaleneacetic acid", "1-Naphthaleneacetic acid, 7-methoxy-", "7-Methoxy-1-naphthaleneacetic acid", "(7-Methoxy-1-naphthyl)acetic acid", "2-(7-Methoxynaphthalen-1-yl)acetic acid"], "SMILES": "C(C(O)=O)C=1C2=C(C=CC(OC)=C2)C=CC1", "physical_data": {"Molecular Weight": "216.23", "Molecular Formula": "C13H12O3", "Melting Point": "155-155.5 \u00b0C"}}