{"cas_no": "6836-19-7", "cn_name": "7-\u7532\u6c27\u57fa-1-\u8418\u6ee1\u916e", "en_name": ["7-Methoxy-1-tetralone", "1(2H)-Naphthalenone, 3,4-dihydro-7-methoxy-", "3,4-Dihydro-7-methoxy-1(2H)-naphthalenone", "7-Methoxy-1-tetralone", "7-Methoxy-\u03b1-tetralone", "7-Methoxy-3,4-dihydro-1(2H)-naphthalenone", "7-Methoxytetralone", "7-Methoxy-3,4-dihydro-2H-naphthalen-1-one", "NSC 97611", "7-Methoxy-1,2,3,4-tetrahydro-1-oxonaphthalene", "7-Methoxy-1,2,3,4-tetrahydro-1-naphthalenone", "7-Methoxytetralin-1-one"], "SMILES": "O=C1C=2C(=CC=C(OC)C2)CCC1", "physical_data": {"Molecular Weight": "176.21", "Molecular Formula": "C11H12O2", "Boiling Point": "140 \u00b0C @ Press: 0.1 Torr", "Melting Point": "67-68 \u00b0C"}}