{"cas_no": "6836-11-9", "cn_name": "\u5fb7\u5c14\u5854\u6797", "en_name": ["Deltaline", "Aconitane-6,10-diol, 20-ethyl-1,14,16-trimethoxy-4-methyl-7,8-[methylenebis(oxy)]-, 6-acetate, (1\u03b1,6\u03b2,14\u03b1,16\u03b2)-", "Deltaline", "Eldeline", "Eldelin", "Delphelatine", "Deltamine 6-acetate"], "SMILES": "OC12C34C5C6(C(OC(C)=O)C3C(C)(CN5CC)CCC4OC)C7(C1C(OC)C(C2)C(OC)C7)OCO6", "physical_data": {"Molecular Weight": "507.62", "Molecular Formula": "C27H41NO8", "Melting Point": "180-181 \u00b0C"}}