{"cas_no": "68370-47-8", "cn_name": "\u6728\u9999\u5185\u916f", "en_name": ["Micheliolide", "Azuleno[4,5-b]furan-2(3H)-one, 3a,4,5,7,8,9,9a,9b-octahydro-9-hydroxy-6,9-dimethyl-3-methylene-, (3aS,9R,9aS,9bS)-", "Azuleno[4,5-b]furan-2(3H)-one, 3a,4,5,7,8,9,9a,9b-octahydro-9-hydroxy-6,9-dimethyl-3-methylene-, [3aS-(3a\u03b1,9\u03b1,9a\u03b1,9b\u03b2)]-", "(3aS,9R,9aS,9bS)-3a,4,5,7,8,9,9a,9b-Octahydro-9-hydroxy-6,9-dimethyl-3-methyleneazuleno[4,5-b]furan-2(3H)-one", "Micheliolide"], "SMILES": "CC1(O)C2C3C(C(=C)C(=O)O3)CCC(C)=C2CC1", "physical_data": {"Molecular Weight": "248.32", "Molecular Formula": "C15H20O3", "Melting Point": "131-133 \u00b0C"}}