{"cas_no": "6837-24-7", "cn_name": "N-\u73af\u5df1\u57fa\u5421\u54af\u70f7\u916e", "en_name": ["N-Cyclohexyl-2-pyrrolidone", "2-Pyrrolidinone, 1-cyclohexyl-", "1-Cyclohexyl-2-pyrrolidinone", "N-Cyclohexylpyrrolidone", "N-Cyclohexylpyrrolidinone", "N-Cyclohexyl-2-pyrrolidinone", "1-Cyclohexyl-2-pyrrolidone", "N-Cyclohexyl-2-pyrrolidone", "CHP"], "SMILES": "O=C1N(CCC1)C2CCCCC2", "physical_data": {"Molecular Weight": "167.25", "Molecular Formula": "C10H17NO", "Boiling Point": "94-97 \u00b0C @ Press: 0.5 Torr"}}