{"cas_no": "68377-92-4", "cn_name": "\u963f\u7f57\u6d1b\u5c14", "en_name": ["Arotinolol", "2-Thiophenecarboxamide, 5-[2-[[3-[(1,1-dimethylethyl)amino]-2-hydroxypropyl]thio]-4-thiazolyl]-", "2-Thiophenecarboxamide, 5-[2-[[3-[(1,1-dimethylethyl)amino]-2-hydroxypropyl]thio]-4-thiazolyl]-, (\u00b1)-", "5-[2-[[3-[(1,1-Dimethylethyl)amino]-2-hydroxypropyl]thio]-4-thiazolyl]-2-thiophenecarboxamide", "Arotinolol", "(\u00b1)-Arotinolol", "2-(3-tert-Butylamino-2-hydroxypropylthio)-4-(5-carbamoyl-2-thienyl)thiazole", "NSC 317940"], "SMILES": "C(N)(=O)C=1SC(=CC1)C=2N=C(SCC(CNC(C)(C)C)O)SC2", "physical_data": {"Molecular Weight": "371.54", "Molecular Formula": "C15H21N3O2S3", "Melting Point": "148-149 \u00b0C"}}