{"cas_no": "68377-91-3", "cn_name": "\u76d0\u9178\u963f\u7f57\u6d1b\u5c14", "en_name": ["Arotinolol hydrochloride", "2-Thiophenecarboxamide, 5-[2-[[3-[(1,1-dimethylethyl)amino]-2-hydroxypropyl]thio]-4-thiazolyl]-, hydrochloride (1:1)", "2-Thiophenecarboxamide, 5-[2-[[3-[(1,1-dimethylethyl)amino]-2-hydroxypropyl]thio]-4-thiazolyl]-, monohydrochloride, (\u00b1)-", "2-Thiophenecarboxamide, 5-[2-[[3-[(1,1-dimethylethyl)amino]-2-hydroxypropyl]thio]-4-thiazolyl]-, monohydrochloride", "S 596", "Arotinolol hydrochloride", "ARL", "Almarl"], "SMILES": "C(N)(=O)C=1SC(=CC1)C=2N=C(SCC(CNC(C)(C)C)O)SC2.Cl", "physical_data": {"Molecular Weight": "", "Molecular Formula": "C15H21N3O2S3.ClH", "Melting Point": "234-235.5 \u00b0C"}}