{"cas_no": "68373-14-8", "cn_name": "\u8212\u5df4\u5766\u9178", "en_name": ["Sulbactam", "4-Thia-1-azabicyclo[3.2.0]heptane-2-carboxylic acid, 3,3-dimethyl-7-oxo-, 4,4-dioxide, (2S,5R)-", "4-Thia-1-azabicyclo[3.2.0]heptane-2-carboxylic acid, 3,3-dimethyl-7-oxo-, 4,4-dioxide, (2S-cis)-", "CP 45899", "Penicillanic acid sulfone", "Penicillanic acid 1,1-dioxide", "Sulbactam", "Penicillanic acid dioxide", "Penicillanic acid S,S-dioxide", "Betamaze", "MeSH ID: D013407"], "SMILES": "C(O)(=O)C1N2C(S(=O)(=O)C1(C)C)CC2=O", "physical_data": {"Molecular Weight": "233.24", "Molecular Formula": "C8H11NO5S", "Melting Point": "148-151 \u00b0C"}}