{"cas_no": "68392-35-8", "cn_name": "\u963f\u975e\u6614\u82ac", "en_name": ["4-[1-[4-[2-(Dimethylamino)ethoxy]phenyl]-2-phenyl-1-buten-1-yl]phenol", "Phenol, 4-[1-[4-[2-(dimethylamino)ethoxy]phenyl]-2-phenyl-1-buten-1-yl]-", "Phenol, 4-[1-[4-[2-(dimethylamino)ethoxy]phenyl]-2-phenyl-1-butenyl]-", "4-[1-[4-[2-(Dimethylamino)ethoxy]phenyl]-2-phenyl-1-buten-1-yl]phenol", "4-[1-[4-[2-(Dimethylamino)ethoxy]phenyl]-2-phenyl-1-butenyl]phenol", "4-OHT", "Afimoxifene", "TamoGel"], "SMILES": "C(=C(CC)C1=CC=CC=C1)(C2=CC=C(OCCN(C)C)C=C2)C3=CC=C(O)C=C3", "physical_data": {"Molecular Weight": "387.51", "Molecular Formula": "C26H29NO2", "Melting Point": "157-159 \u00b0C"}}