{"cas_no": "684-78-6", "cn_name": "N,O-\u53cc(\u4e09\u6c1f\u4e59\u9170\u57fa)\u7f9f\u80fa", "en_name": ["(2,2,2-Trifluoroacetyl)azanyl 2,2,2-trifluoroacetate", "Acetic acid, 2,2,2-trifluoro-, (2,2,2-trifluoroacetyl)azanyl ester", "Hydroxylamine, N,O-bis(trifluoroacetyl)-", "Acetamide, 2,2,2-trifluoro-N-[(trifluoroacetyl)oxy]-", "(2,2,2-Trifluoroacetyl)azanyl 2,2,2-trifluoroacetate", "N,O-Bis(trifluoroacetyl)hydroxylamine", "[(2,2,2-Trifluoroacetyl)amino] 2,2,2-trifluoroacetate", "2,2,2-Trifluoro-N-(2,2,2-trifluoroacetoxy)acetamide"], "SMILES": "C(C(F)(F)F)(NOC(C(F)(F)F)=O)=O", "physical_data": {"Molecular Weight": "225.05", "Molecular Formula": "C4HF6NO3", "Melting Point": "62 \u00b0C (sublm)"}}