{"cas_no": "684-16-2", "cn_name": "\u516d\u6c1f\u4e19\u916e", "en_name": ["Hexafluoroacetone", "2-Propanone, 1,1,1,3,3,3-hexafluoro-", "2-Propanone, hexafluoro-", "1,1,1,3,3,3-Hexafluoro-2-propanone", "GC 7887", "Perfluoroacetone", "Hexafluoroacetone", "Perfluoro-2-propanone", "Hexafluoro-2-propanone", "Bis(trifluoromethyl) ketone", "1,1,1,3,3,3-Hexafluoroacetone", "NSC 202438", "Hexafluoropropanone"], "SMILES": "C(C(F)(F)F)(C(F)(F)F)=O", "physical_data": {"Molecular Weight": "166.02", "Molecular Formula": "C3F6O", "Boiling Point": "-27 \u00b0C", "Melting Point": "-129 \u00b0C", "Density": "1.33 g/cm\u00b3 @ Temp: 25 \u00b0C"}}