{"cas_no": "684-93-5", "cn_name": "1-\u7532\u57fa-1-\u4e9a\u785d\u57fa\u8132", "en_name": ["N-Methyl-N-nitrosourea", "Urea, N-methyl-N-nitroso-", "Urea, 1-methyl-1-nitroso-", "N-Methyl-N-nitrosourea", "N-Nitroso-N-methylurea", "Methylnitrosourea", "1-Methyl-1-nitrosourea", "1-Nitroso-1-methylurea", "NSC 23909", "N-Nitroso-N-methylcarbamide", "MNU", "Nitrosomethylurea", "NMM", "NMU", "NMH"], "SMILES": "N(C(N)=O)(N=O)C", "physical_data": {"Molecular Weight": "103.08", "Molecular Formula": "C2H5N3O2", "Melting Point": "124 \u00b0C (decomp)"}}