{"cas_no": "68401-05-8", "cn_name": "\u6851\u76ae\u916eE", "en_name": ["(2S)-2-[5-[(2E)-3,7-Dimethyl-2,6-octadien-1-yl]-2,4-dihydroxyphenyl]-2,3-dihydro-5,7-dihydroxy-4H-1-benzopyran-4-one", "4H-1-Benzopyran-4-one, 2-[5-[(2E)-3,7-dimethyl-2,6-octadien-1-yl]-2,4-dihydroxyphenyl]-2,3-dihydro-5,7-dihydroxy-, (2S)-", "4H-1-Benzopyran-4-one, 2-[5-(3,7-dimethyl-2,6-octadienyl)-2,4-dihydroxyphenyl]-2,3-dihydro-5,7-dihydroxy-, [S-(E)]-", "4H-1-Benzopyran-4-one, 2-[5-[(2E)-3,7-dimethyl-2,6-octadienyl]-2,4-dihydroxyphenyl]-2,3-dihydro-5,7-dihydroxy-, (2S)-", "(2S)-2-[5-[(2E)-3,7-Dimethyl-2,6-octadien-1-yl]-2,4-dihydroxyphenyl]-2,3-dihydro-5,7-dihydroxy-4H-1-benzopyran-4-one", "Kuwanon E"], "SMILES": "O=C1C=2C(OC(C1)C3=CC(CC=C(CCC=C(C)C)C)=C(O)C=C3O)=CC(O)=CC2O", "physical_data": {"Molecular Weight": "424.49", "Molecular Formula": "C25H28O6", "Melting Point": "121 \u00b0C"}}