{"cas_no": "68406-26-8", "cn_name": "\u4eba\u53c2\u7682\u7519 Rb3", "en_name": ["Ginsenoside Rb3", "\u03b2-D-Glucopyranoside, (3\u03b2,12\u03b2)-3-[(2-O-\u03b2-D-glucopyranosyl-\u03b2-D-glucopyranosyl)oxy]-12-hydroxydammar-24-en-20-yl 6-O-\u03b2-D-xylopyranosyl-", "Dammarane, \u03b2-D-glucopyranoside deriv.", "(3\u03b2,12\u03b2)-3-[(2-O-\u03b2-D-Glucopyranosyl-\u03b2-D-glucopyranosyl)oxy]-12-hydroxydammar-24-en-20-yl 6-O-\u03b2-D-xylopyranosyl-\u03b2-D-glucopyranoside", "Ginsenoside Rb3", "Gypenoside IV", "RB 3"], "SMILES": "CC12C3(C)C(C(C(OC4OC(COC5C(O)C(O)C(O)CO5)C(O)C(O)C4O)(CCC=C(C)C)C)CC3)C(O)CC1C6(C)C(CC2)C(C)(C)C(OC7C(OC8OC(CO)C(O)C(O)C8O)C(O)C(O)C(CO)O7)CC6", "physical_data": {"Molecular Weight": "1079.27", "Molecular Formula": "C53H90O22", "Melting Point": "193-195 \u00b0C"}}