{"cas_no": "68401-81-0", "cn_name": "\u5934\u5b62\u5511\u809f", "en_name": ["Ceftizoxime", "5-Thia-1-azabicyclo[4.2.0]oct-2-ene-2-carboxylic acid, 7-[[(2Z)-2-(2-amino-4-thiazolyl)-2-(methoxyimino)acetyl]amino]-8-oxo-, (6R,7R)-", "5-Thia-1-azabicyclo[4.2.0]oct-2-ene-2-carboxylic acid, 7-[[(2-amino-4-thiazolyl)(methoxyimino)acetyl]amino]-8-oxo-, [6R-[6\u03b1,7\u03b2(Z)]]-", "5-Thia-1-azabicyclo[4.2.0]oct-2-ene-2-carboxylic acid, 7-[[(2Z)-(2-amino-4-thiazolyl)(methoxyimino)acetyl]amino]-8-oxo-, (6R,7R)-", "(6R,7R)-7-[[(2Z)-2-(2-Amino-4-thiazolyl)-2-(methoxyimino)acetyl]amino]-8-oxo-5-thia-1-azabicyclo[4.2.0]oct-2-ene-2-carboxylic acid", "Ceftizoxime", "Epocelin", "Ceftisomin", "MeSH ID: D015296"], "SMILES": "O=C1N2C(C1NC(C(=NOC)C3=CSC(N)=N3)=O)SCC=C2C(O)=O", "physical_data": {"Molecular Weight": "383.40", "Molecular Formula": "C13H13N5O5S2", "Melting Point": "227 \u00b0C"}}