{"cas_no": "68418-51-9", "cn_name": "1,4-\u4e8c(4-\u6c1f\u82ef\u7532\u9170\u57fa)\u82ef", "en_name": ["1,1\u2032-(1,4-Phenylene)bis[1-(4-fluorophenyl)methanone]", "Methanone, 1,1\u2032-(1,4-phenylene)bis[1-(4-fluorophenyl)-", "Methanone, 1,4-phenylenebis[(4-fluorophenyl)-", "1,1\u2032-(1,4-Phenylene)bis[1-(4-fluorophenyl)methanone]", "1,4-Bis(4-fluorobenzoyl)benzene", "1,4-Bis(p-fluorobenzoyl)benzene", "1,4-Bis(4\u2032-fluorobenzoyl)benzene", "[4-(4-Fluorobenzoyl)phenyl]-(4-fluorophenyl)methanone"], "SMILES": "C(=O)(C1=CC=C(C(=O)C2=CC=C(F)C=C2)C=C1)C3=CC=C(F)C=C3", "physical_data": {"Molecular Weight": "322.30", "Molecular Formula": "C20H12F2O2", "Melting Point": "208-210 \u00b0C"}}