{"cas_no": "6842-15-5", "cn_name": "\u56db\u805a\u4e19\u70ef", "en_name": ["1-Propene, tetramer", "1-Propene, tetramer", "Propene, tetramer", "Tetrapropylene", "Propylene tetramer", "Light Tetramer"], "SMILES": "C(C)=C", "physical_data": {"Molecular Weight": "", "Molecular Formula": "(C3H6)4", "Boiling Point": "190-210 \u00b0C", "Density": "0.7678 g/cm\u00b3"}}