{"cas_no": "6842-62-2", "cn_name": "3,4'-\u4e8c\u6c2f\u4e8c\u82ef\u919a", "en_name": ["3,4\u2032-Dichlorodiphenyl ether", "Benzene, 1-chloro-3-(4-chlorophenoxy)-", "Ether, m-chlorophenyl p-chlorophenyl", "1-Chloro-3-(4-chlorophenoxy)benzene", "3,4\u2032-Dichlorodiphenyl ether", "PCDE 13"], "SMILES": "O(C1=CC(Cl)=CC=C1)C2=CC=C(Cl)C=C2", "physical_data": {"Molecular Weight": "239.10", "Molecular Formula": "C12H8Cl2O", "Boiling Point": "113 \u00b0C @ Press: 0.5 Torr", "Melting Point": "-10 \u00b0C"}}