{"cas_no": "6843-49-8", "cn_name": "5-\u7532\u57fa-5-\u82ef\u57fa\u4e59\u5185\u9170\u8132", "en_name": ["5-Methyl-5-phenylhydantoin", "2,4-Imidazolidinedione, 5-methyl-5-phenyl-", "Hydantoin, 5-methyl-5-phenyl-", "5-Methyl-5-phenyl-2,4-imidazolidinedione", "5-Methyl-5-phenylhydantoin", "(\u00b1)-5-Methyl-5-phenylhydantoin", "NSC 14839", "5-Methyl-5-phenylimidazolidine-2,4-dione"], "SMILES": "CC1(NC(=O)NC1=O)C2=CC=CC=C2", "physical_data": {"Molecular Weight": "190.20", "Molecular Formula": "C10H10N2O2", "Melting Point": "178 \u00b0C"}}