{"cas_no": "6843-66-9", "cn_name": "\u4e8c\u82ef\u57fa\u4e8c\u7532\u6c27\u57fa\u7845\u70f7", "en_name": ["Diphenyldimethoxysilane", "Benzene, 1,1\u2032-(dimethoxysilylene)bis-", "Silane, dimethoxydiphenyl-", "1,1\u2032-(Dimethoxysilylene)bis[benzene]", "Diphenyldimethoxysilane", "Dimethoxydiphenylsilane", "Z 6074", "KBM 202", "KBM 202LS5300", "TSL 8172", "AY 43-047", "LS 5300", "D 6010", "NSC 93509", "KBM 202SS", "OF 1", "OF 1 (silane)", "AZ 6183", "KBM 202S", "ZH 1106", "D 1731", "KBM 200SS", "CG-P 213", "SID 4535.0", "SCA-P 62M", "Z 6447"], "SMILES": "[Si](OC)(OC)(C1=CC=CC=C1)C2=CC=CC=C2", "physical_data": {"Molecular Weight": "244.36", "Molecular Formula": "C14H16O2Si", "Boiling Point": "161 \u00b0C @ Press: 15 Torr", "Density": "1.077 g/cm\u00b3"}}