{"cas_no": "68432-95-1", "cn_name": "\u916e\u6d1b\u82ac\u76f8\u5173\u7269\u8d28C", "en_name": ["3-Carboxy-\u03b1-methylbenzeneacetic acid", "Benzeneacetic acid, 3-carboxy-\u03b1-methyl-", "3-Carboxy-\u03b1-methylbenzeneacetic acid", "DF 2008Y", "3-(1-Carboxyethyl)benzoic acid"], "SMILES": "C(C(O)=O)(C)C1=CC(C(O)=O)=CC=C1", "physical_data": {"Molecular Weight": "194.18", "Molecular Formula": "C10H10O4", "Melting Point": "158-160 \u00b0C"}}