{"cas_no": "68443-63-0", "cn_name": "2-\u4e59\u57fa\u5df1\u9178\u6b63\u4e01\u916f", "en_name": ["Hexanoic acid, 2-ethyl-, butyl ester", "Hexanoic acid, 2-ethyl-, butyl ester", "Butyl 2-ethylhexanoate", "2-Ethyl-hexanoic acid butyl ester"], "SMILES": "C(C(OCCCC)=O)(CCCC)CC", "physical_data": {"Molecular Weight": "200.32", "Molecular Formula": "C12H24O2", "Boiling Point": "110-111 \u00b0C @ Press: 18 Torr"}}