{"cas_no": "68460-01-5", "cn_name": "\u56db\u6eb4-2-\u78fa\u57fa\u82ef\u7532\u9178\u73af\u9150", "en_name": ["3H-2,1-Benzoxathiol-3-one, 4,5,6,7-tetrabromo-, 1,1-dioxide", "3H-2,1-Benzoxathiol-3-one, 4,5,6,7-tetrabromo-, 1,1-dioxide", "3,4,5,6-Tetrabromo-2-sulfobenzoic acid cyclic anhydride", "Tetrabromo-o-sulfobenzoic anhydride", "Tetrabromo-2-sulfobenzoic acid cycloanhydride", "Tetrabromo-o-sulfobenzoic acid cyclic anhydride", "Tetrabromo-2-sulfobenzoic acid cyclic anhydride"], "SMILES": "O=C1C=2C(S(=O)(=O)O1)=C(Br)C(Br)=C(Br)C2Br", "physical_data": {"Molecular Weight": "499.75", "Molecular Formula": "C7Br4O4S", "Melting Point": "216-217 \u00b0C"}}