{"cas_no": "6846-50-0", "cn_name": "2,2,4-\u4e09\u7532\u57fa-1,3-\u620a\u4e8c\u9187\u4e8c\u5f02\u4e01\u9178\u916f", "en_name": ["2,2,4-Trimethyl-1,3-pentanediol diisobutyrate", "Propanoic acid, 2-methyl-, 1,1\u2032-[2,2-dimethyl-1-(1-methylethyl)-1,3-propanediyl] ester", "Isobutyric acid, 1-isopropyl-2,2-dimethyltrimethylene ester", "Propanoic acid, 2-methyl-, 2,2-dimethyl-1-(1-methylethyl)-1,3-propanediyl ester", "1,3-Pentanediol, 2,2,4-trimethyl-, diisobutyrate", "Kodaflex TXIB", "2,2,4-Trimethyl-1,3-pentanediyl diisobutyrate", "Texanol isobutyrate", "CS 16", "2,2,4-Trimethyl-1,3-pentanediol diisobutyrate", "Kyowanol M", "Kyowanol D", "Eastman TXIB", "2,2,4-Trimethyl-1,3-pentanediol di(isopropylformate)", "TXIB", "Optifilm Enhancer 300", "2,2-Dimethyl-1-(1-methylethyl)-1,3-propanediyl bis(2-methylpropanoate)", "2,2,4-Trimethyl-1,3-pentanediol bis(isobutyrate)", "2,2,4-Trimethylpentane 1,3-diisobutanoate", "Texanol OE 300", "OE 300", "[2,2,4-Trimethyl-3-(2-methylpropanoyloxy)pentyl] 2-methylpropanoate", "RTC 16", "C 16", "NX 800", "1-Isopropyl-2,2-dimethyltrimethylene diisobutyrate", "2,2,4-Trimethyl-1,3-pentanediol 2-methylpropanoic acid diester"], "SMILES": "C(C(COC(C(C)C)=O)(C)C)(OC(C(C)C)=O)C(C)C", "physical_data": {"Molecular Weight": "286.41", "Molecular Formula": "C16H30O4", "Boiling Point": "280 \u00b0C"}}