{"cas_no": "6846-35-1", "cn_name": "\u6c22\u5316\u9ec4\u539f\u7d20", "en_name": ["Amino-3H-1,2,4-dithiazole-3-thione", "3H-1,2,4-Dithiazole-3-thione, amino-", "3H-1,2,4-Dithiazole-3-thione, 5-amino-", "1,2,4-Dithiazolidine-3-thione, 5-imino-", "Amino-3H-1,2,4-dithiazole-3-thione", "Isoperthiocyanic acid", "Xanthanohydrogen", "5-Imino-1,2,4-dithiazolidine-3-thione", "5-Imino-1,2,4-dithiazolidin-3-thione", "Xanthane hydride", "5-Imino-3-thio-1,2,4-dithiazolidine", "5-Amino-1,2,4-dithiazole-3-thione", "5-Amino-3H-1,2,4-dithiazole-3-thione", "NSC 65248", "3-Amino-1,2,4-dithiazol-5-thione", "3-Imino-3H-1,2,4-dithiazole-5-thiol"], "SMILES": "NC1=NC(=S)SS1", "physical_data": {"Molecular Weight": "150.25", "Molecular Formula": "C2H2N2S3", "Melting Point": "200-202 \u00b0C"}}