{"cas_no": "68489-14-5", "cn_name": "N-(\u4e59\u6c27\u7fb0\u57fa\u7532\u57fa)-\u5bf9 \u70f7-3-\u7532\u9170\u80fa", "en_name": ["N-[[(1R,2S,5R)-5-Methyl-2-(1-methylethyl)cyclohexyl]carbonyl]glycine ethyl ester", "Glycine, N-[[(1R,2S,5R)-5-methyl-2-(1-methylethyl)cyclohexyl]carbonyl]-, ethyl ester", "Glycine, N-[[5-methyl-2-(1-methylethyl)cyclohexyl]carbonyl]-, ethyl ester, [1R-(1\u03b1,2\u03b2,5\u03b1)]-", "N-[[(1R,2S,5R)-5-Methyl-2-(1-methylethyl)cyclohexyl]carbonyl]glycine ethyl ester", "CPS 337", "Ethyl 3-(p-menthane-3-carboxamido)acetate", "FEMA 4309"], "SMILES": "C(NCC(OCC)=O)(=O)C1C(C(C)C)CCC(C)C1", "physical_data": {"Molecular Weight": "269.38", "Molecular Formula": "C15H27NO3", "Melting Point": "80.5-81.4 \u00b0C"}}