{"cas_no": "6848-13-1", "cn_name": "3-\u6c2f-N,N-\u4e8c\u7532\u57fa\u82ef\u80fa", "en_name": ["3-Chloro-N,N-dimethylbenzenamine", "Benzenamine, 3-chloro-N,N-dimethyl-", "Aniline, m-chloro-N,N-dimethyl-", "3-Chloro-N,N-dimethylbenzenamine", "m-Chloro-N,N-dimethylaniline", "3-Chloro-N,N-dimethylaniline", "N,N-Dimethyl-m-chloroaniline", "N,N-Dimethyl-3-chloroaniline", "3-Dimethylamino-1-chlorobenzene", "1-Chloro-3-dimethylaminobenzene", "3-(N,N-Dimethylamino)-1-chlorobenzene"], "SMILES": "N(C)(C)C1=CC(Cl)=CC=C1", "physical_data": {"Molecular Weight": "155.62", "Molecular Formula": "C8H10ClN", "Boiling Point": "251-252 \u00b0C"}}