{"cas_no": "68497-62-1", "cn_name": "\u666e\u62c9\u897f\u5766", "en_name": ["Pramiracetam", "1-Pyrrolidineacetamide, N-[2-[bis(1-methylethyl)amino]ethyl]-2-oxo-", "N-[2-[Bis(1-methylethyl)amino]ethyl]-2-oxo-1-pyrrolidineacetamide", "Amacetam", "Pramiracetam", "Vinpotropil"], "SMILES": "C(C(NCCN(C(C)C)C(C)C)=O)N1C(=O)CCC1", "physical_data": {"Molecular Weight": "269.38", "Molecular Formula": "C14H27N3O2", "Boiling Point": "162-164 \u00b0C @ Press: 0.15 Torr"}}