{"cas_no": "685-83-6", "cn_name": "\u53cc(\u4e8c\u4e59\u80fa\u57fa)\u6c2f\u78f7", "en_name": ["Chlorobis(diethylamino)phosphine", "Phosphorodiamidous chloride, N,N,N\u2032,N\u2032-tetraethyl-", "Phosphorodiamidous chloride, tetraethyl-", "N,N,N\u2032,N\u2032-Tetraethylphosphorodiamidous chloride", "Tetraethylphosphorodiamidous chloride", "Bis(diethylamino)chlorophosphine", "Tetraethyldiamidophosphorous chloride", "Chlorobis(diethylamino)phosphine", "Tetraethyldiaminochlorophosphite", "Bis(N,N-diethylamino)chlorophosphine", "Bis(diethylamino)chlorophosphane"], "SMILES": "P(N(CC)CC)(N(CC)CC)Cl", "physical_data": {"Molecular Weight": "210.68", "Molecular Formula": "C8H20ClN2P", "Boiling Point": "87-90 \u00b0C @ Press: 2 Torr"}}