{"cas_no": "685-73-4", "cn_name": "\u534a\u4e73\u7cd6\u919b\u9178", "en_name": ["D-Galacturonic acid", "D-Galacturonic acid", "Galacturonic acid, D-", "Galacturonic acid", "NSC 212542"], "SMILES": "C(C(C(C=O)O)O)(C(C(O)=O)O)O", "physical_data": {"Molecular Weight": "194.14", "Molecular Formula": "C6H10O7", "Melting Point": "166 \u00b0C"}}