{"cas_no": "685-87-0", "cn_name": "\u6eb4\u4ee3\u4e19\u4e8c\u9178\u4e8c\u4e59\u916f", "en_name": ["Diethyl bromomalonate", "Propanedioic acid, 2-bromo-, 1,3-diethyl ester", "Malonic acid, bromo-, diethyl ester", "Propanedioic acid, bromo-, diethyl ester", "Diethyl bromomalonate", "Diethyl \u03b1-bromomalonate", "Bromomalonic acid diethyl ester", "Ethyl bromomalonate", "\u03b1-Bromomalonic ester", "Diethyl 2-bromomalonate", "Diethyl 2-bromopropanedioate", "NSC 1985", "2-Bromomalonic acid diethyl ester", "Diethyl 2-bromo-1,3-propanedioate", "Diethyl bromopropanedioate", "1,3-Diethyl 2-bromopropanedioate"], "SMILES": "C(C(OCC)=O)(C(OCC)=O)Br", "physical_data": {"Molecular Weight": "239.06", "Molecular Formula": "C7H11BrO4", "Boiling Point": "125-132 \u00b0C @ Press: 25 Torr", "Melting Point": "-54 \u00b0C", "Density": "1.4138 g/cm\u00b3 @ Temp: 20 \u00b0C"}}