{"cas_no": "685-91-6", "cn_name": "N,N-\u4e8c\u4e59\u57fa\u4e59\u9170\u80fa", "en_name": ["N,N-Diethylacetamide", "Acetamide, N,N-diethyl-", "N,N-Diethylacetamide", "N,N-Diethylethanamide", "DEA", "NSC 101"], "SMILES": "N(C(C)=O)(CC)CC", "physical_data": {"Molecular Weight": "115.17", "Molecular Formula": "C6H13NO", "Boiling Point": "185.5 \u00b0C", "Melting Point": "&lt;20 \u00b0C", "Density": "0.9130 g/cm\u00b3 @ Temp: 17 \u00b0C"}}