{"cas_no": "685-27-8", "cn_name": "N-\u7532\u57fa\u53cc(\u4e09\u6c1f\u4e59\u9170\u80fa)", "en_name": ["N-Methylbis(trifluoroacetyl)imide", "Acetamide, 2,2,2-trifluoro-N-methyl-N-(2,2,2-trifluoroacetyl)-", "Diacetamide, 2,2,2,2\u2032,2\u2032,2\u2032-hexafluoro-N-methyl-", "Acetamide, 2,2,2-trifluoro-N-methyl-N-(trifluoroacetyl)-", "2,2,2-Trifluoro-N-methyl-N-(2,2,2-trifluoroacetyl)acetamide", "N-Methylbis(trifluoroacetyl)imide", "2,2,2-Trifluoro-N-methyl-N-(trifluoroacetyl)acetamide"], "SMILES": "C(N(C(C(F)(F)F)=O)C)(C(F)(F)F)=O", "physical_data": {"Molecular Weight": "223.07", "Molecular Formula": "C5H3F6NO2", "Boiling Point": "118 \u00b0C"}}