{"cas_no": "685-63-2", "cn_name": "\u516d\u6c1f-1,3-\u4e01\u4e8c\u70ef", "en_name": ["Hexafluoro-1,3-butadiene", "1,3-Butadiene, 1,1,2,3,4,4-hexafluoro-", "1,3-Butadiene, hexafluoro-", "1,1,2,3,4,4-Hexafluoro-1,3-butadiene", "Hexafluoro-1,3-butadiene", "Perfluoro-1,3-butadiene", "Sifren 46", "FC 2316"], "SMILES": "C(C(=C(F)F)F)(=C(F)F)F", "physical_data": {"Molecular Weight": "162.03", "Molecular Formula": "C4F6", "Boiling Point": "6 \u00b0C", "Melting Point": "-132 \u00b0C", "Density": "1.44 g/cm\u00b3 @ Temp: 15 \u00b0C"}}