{"cas_no": "685-88-1", "cn_name": "2-\u6c1f\u4e19\u4e8c\u9178\u4e8c\u4e59\u916f", "en_name": ["Propanedioic acid, 2-fluoro-, 1,3-diethyl ester", "Propanedioic acid, 2-fluoro-, 1,3-diethyl ester", "Malonic acid, fluoro-, diethyl ester", "Propanedioic acid, fluoro-, diethyl ester", "Diethyl fluoromalonate", "Ethyl fluoromalonate", "Diethyl 2-fluoromalonate", "Fluoropropanedioic acid diethyl ester", "NSC 521723", "Fluoromalonic acid diethyl ester", "2-Fluoromalonic acid diethyl ester", "1,3-Diethyl 2-fluoropropanedioate"], "SMILES": "C(C(OCC)=O)(C(OCC)=O)F", "physical_data": {"Molecular Weight": "178.16", "Molecular Formula": "C7H11FO4", "Boiling Point": "121-123 \u00b0C @ Press: 30 Torr", "Density": "1.1475 g/cm\u00b3 @ Temp: 20 \u00b0C"}}