{"cas_no": "6850-57-3", "cn_name": "\u90bb\u7532\u6c27\u57fa\u82c4\u80fa", "en_name": ["2-Methoxybenzylamine", "Benzenemethanamine, 2-methoxy-", "Benzylamine, o-methoxy-", "2-Methoxybenzenemethanamine", "o-Methoxybenzylamine", "2-Methoxybenzylamine", "o-Methoxybenzenemethanamine", "(o-Anisylmethyl)amine", "2-Methoxyphenylmethylamine", "(2-Methoxyphenyl)methanamine", "1-[2-(Methyloxy)phenyl]methanamine", "1-(2-Methoxyphenyl)methanamine", "2-(Aminomethyl)anisole"], "SMILES": "C(N)C1=C(OC)C=CC=C1", "physical_data": {"Molecular Weight": "137.18", "Molecular Formula": "C8H11NO", "Boiling Point": "229 \u00b0C", "Melting Point": "60 \u00b0C"}}