{"cas_no": "6850-23-3", "cn_name": "1-\u7532\u57fa-6-\u785d\u57fa-1H-\u5432\u5511", "en_name": ["1-Methyl-6-nitro-1H-indazole", "1H-Indazole, 1-methyl-6-nitro-", "1-Methyl-6-nitro-1H-indazole", "1-Methyl-6-nitroindazole", "NSC 131654"], "SMILES": "CN1C=2C(=CC=C(N(=O)=O)C2)C=N1", "physical_data": {"Molecular Weight": "177.16", "Molecular Formula": "C8H7N3O2", "Melting Point": "122 \u00b0C"}}