{"cas_no": "6850-35-7", "cn_name": "3-\u7532\u57fa\u73af\u5df1\u80fa", "en_name": ["3-Methylcyclohexanamine", "Cyclohexanamine, 3-methyl-", "Cyclohexylamine, 3-methyl-", "3-Methylcyclohexanamine", "m-Methylcyclohexylamine", "1,3-Aminomethylcyclohexane", "3-Methylcyclohexylamine", "3-Methylcyclohexan-1-amine"], "SMILES": "CC1CC(N)CCC1", "physical_data": {"Molecular Weight": "113.20", "Molecular Formula": "C7H15N", "Boiling Point": "152-153 \u00b0C @ Press: 752 Torr", "Melting Point": "74-75 \u00b0C", "Density": "0.8562 g/cm\u00b3 @ Temp: 19 \u00b0C"}}