{"cas_no": "68506-86-5", "cn_name": "\u6c28\u5df1\u70ef\u9178", "en_name": ["Vigabatrin", "5-Hexenoic acid, 4-amino-", "5-Hexenoic acid, 4-amino-, (\u00b1)-", "4-Amino-5-hexenoic acid", "(\u00b1)-\u03b3-Vinyl GABA", "(\u00b1)-4-Amino-5-hexenoic acid", "RMI 71754", "\u03b3-Vinyl-GABA", "Vigabatrin", "MDL 71754", "\u03b3-Vinyl-\u03b3-aminobutyric acid", "Sabril", "GVG", "CPP 109", "gamma-Vinyl-GABA", "Kigabeq", "MeSH ID: D020888"], "SMILES": "C(CCC(O)=O)(C=C)N", "physical_data": {"Molecular Weight": "129.16", "Molecular Formula": "C6H11NO2", "Melting Point": "209 \u00b0C"}}