{"cas_no": "6850-65-3", "cn_name": "4-\u6c28\u57fa\u73af\u5df1\u9187", "en_name": ["4-Aminocyclohexanol", "Cyclohexanol, 4-amino-", "4-Aminocyclohexanol", "4-Hydroxycyclohexylamine", "4-Amino-1-cyclohexanol", "1-Amino-4-hydroxycyclohexane"], "SMILES": "NC1CCC(O)CC1", "physical_data": {"Molecular Weight": "115.17", "Molecular Formula": "C6H13NO", "Boiling Point": "235-245 \u00b0C", "Melting Point": "64-65 \u00b0C"}}