{"cas_no": "68505-69-1", "cn_name": "2,3-\u4e8c\u6c22-3,3-\u4e8c\u7532\u82ef\u5e76\u544b\u5583-5-\u57fa\u4e59\u70f7\u78fa\u9178\u916f", "en_name": ["Benfuresate", "Ethanesulfonic acid, 2,3-dihydro-3,3-dimethyl-5-benzofuranyl ester", "NC 20484", "Benfuresate", "NS 112", "Zerbex"], "SMILES": "CC1(C)C=2C(OC1)=CC=C(OS(CC)(=O)=O)C2", "physical_data": {"Molecular Weight": "256.32", "Molecular Formula": "C12H16O4S", "Melting Point": "30.1 \u00b0C"}}