{"cas_no": "6850-39-1", "cn_name": "3-\u6c28\u57fa\u73af\u5df1\u9187", "en_name": ["3-Aminocyclohexanol", "Cyclohexanol, 3-amino-", "3-Aminocyclohexanol", "(3-Hydroxycyclohexyl)amine", "1-Amino-3-hydroxycyclohexane", "3-Aminocyclohexan-1-ol"], "SMILES": "NC1CC(O)CCC1", "physical_data": {"Molecular Weight": "115.17", "Molecular Formula": "C6H13NO", "Boiling Point": "115 \u00b0C @ Press: 0.5 Torr"}}