{"cas_no": "6850-22-2", "cn_name": "2-\u7532\u57fa-6-\u785d\u57fa-2H-\u5432\u5511", "en_name": ["2-Methyl-6-nitro-2H-indazole", "2H-Indazole, 2-methyl-6-nitro-", "2-Methyl-6-nitro-2H-indazole", "2-Methyl-6-nitroindazole", "NSC 131653"], "SMILES": "N(=O)(=O)C1=CC=2C(C=C1)=CN(C)N2", "physical_data": {"Molecular Weight": "177.16", "Molecular Formula": "C8H7N3O2", "Melting Point": "158 \u00b0C"}}