{"cas_no": "6851-81-6", "cn_name": "1,5,5-\u4e09\u7532\u57fa\u6d77\u56e0", "en_name": ["1,5,5-Trimethyl-2,4-imidazolidinedione", "2,4-Imidazolidinedione, 1,5,5-trimethyl-", "Hydantoin, 1,5,5-trimethyl-", "1,5,5-Trimethyl-2,4-imidazolidinedione", "1,5,5-Trimethylhydantoin", "3,4,4-Trimethyl-2,5-dioxoimidazolidine", "1,5,5-Trimethylimidazolidine-2,4-dione"], "SMILES": "CC1(C)N(C)C(=O)NC1=O", "physical_data": {"Molecular Weight": "142.16", "Molecular Formula": "C6H10N2O2", "Melting Point": "161-163 \u00b0C"}}