{"cas_no": "6851-80-5", "cn_name": "N-\u7532\u57fa-2-\u7532\u6c27\u57fa\u82c4\u80fa", "en_name": ["2-Methoxy-N-methylbenzenemethanamine", "Benzenemethanamine, 2-methoxy-N-methyl-", "Benzylamine, o-methoxy-N-methyl-", "2-Methoxy-N-methylbenzenemethanamine", "2-Methoxy-N-methylbenzylamine", "(2-Methoxybenzyl)methylamine", "N-Methyl(2-methoxybenzyl)amine", "N-(2-Methoxybenzyl)-N-methylamine", "1-(2-Methoxyphenyl)-N-methylmethanamine", "[(2-Methoxyphenyl)methyl](methyl)amine"], "SMILES": "C(NC)C1=C(OC)C=CC=C1", "physical_data": {"Molecular Weight": "151.21", "Molecular Formula": "C9H13NO", "Boiling Point": "226 \u00b0C"}}