{"cas_no": "68524-30-1", "cn_name": "2-[(\u4e8c\u82ef\u57fa\u7532\u57fa)\u786b\u57fa]\u4e59\u9170\u80fa", "en_name": ["2-[(Diphenylmethyl)thio]acetamide", "Acetamide, 2-[(diphenylmethyl)thio]-", "2-[(Diphenylmethyl)thio]acetamide", "2-(Benzhydrylthio)acetamide", "2-Benzhydrylsulfanylacetamide"], "SMILES": "C(SCC(N)=O)(C1=CC=CC=C1)C2=CC=CC=C2", "physical_data": {"Molecular Weight": "257.35", "Molecular Formula": "C15H15NOS", "Melting Point": "109-110 \u00b0C"}}