{"cas_no": "68528-80-3", "cn_name": "\u53cc\u7425\u73c0\u9170\u4e9a\u80fa\u8f9b\u4e8c\u9178\u916f", "en_name": ["Disuccinimidyl suberate", "Octanedioic acid, 1,8-bis(2,5-dioxo-1-pyrrolidinyl) ester", "2,5-Pyrrolidinedione, 1,1\u2032-[(1,8-dioxo-1,8-octanediyl)bis(oxy)]bis-", "Disuccinimidyl suberate", "Octanedioic acid di-N-hydroxysuccinimide ester", "Suberic acid bis(N-hydroxy succinimide ester)", "NSC 340008"], "SMILES": "O(C(CCCCCCC(ON1C(=O)CCC1=O)=O)=O)N2C(=O)CCC2=O", "physical_data": {"Molecular Weight": "368.34", "Molecular Formula": "C16H20N2O8", "Melting Point": "62-64 \u00b0C", "Density": "1.295 g/cm\u00b3"}}