{"cas_no": "6852-58-0", "cn_name": "N-\u4e8c\u7532\u6c28\u57fa\u82c4\u53d4\u4e01\u80fa", "en_name": ["2-Methyl-N-(phenylmethylene)-2-propanamine", "2-Propanamine, 2-methyl-N-(phenylmethylene)-", "Ethylamine, N-benzylidene-1,1-dimethyl-", "2-Methyl-N-(phenylmethylene)-2-propanamine", "N-Benzylidene-tert-butylamine", "N-tert-Butylbenzylideneamine", "Benzylidene-tert-butylamine", "N-Benzylidene-N-tert-butylamine", "N-Benzylidene-1,1-dimethylethylamine", "N-tert-Butylbenzylimine", "N-t-Butylbenzylideneimine", "Benzaldehyde tert-butylimine", "N-Benzylidene-N-tert-butylimine", "N-(tert-Butyl)benzylideneimine", "N-tert-Butylbenzaldimine", "N-Benzylidene-2-methylpropan-2-amine", "N-tert-Butyl-1-phenylmethanimine"], "SMILES": "C(=NC(C)(C)C)C1=CC=CC=C1", "physical_data": {"Molecular Weight": "161.24", "Molecular Formula": "C11H15N", "Boiling Point": "102-103 \u00b0C @ Press: 20 Torr", "Density": "0.904 g/cm\u00b3 @ Temp: 25 \u00b0C"}}