{"cas_no": "68527-67-3", "cn_name": "6-\u6eb4-8-\u785d\u57fa\u55b9\u5549", "en_name": ["6-Bromo-8-nitroquinoline", "Quinoline, 6-bromo-8-nitro-", "6-Bromo-8-nitroquinoline"], "SMILES": "N(=O)(=O)C=1C2=C(C=C(Br)C1)C=CC=N2", "physical_data": {"Molecular Weight": "253.05", "Molecular Formula": "C9H5BrN2O2", "Melting Point": "170-177 \u00b0C"}}