{"cas_no": "6853-87-8", "cn_name": "S-\u7532\u57fa-L-\u534a\u80f1\u6c28\u9178\u4e9a\u781c", "en_name": ["S-Methyl-L-cysteine sulfoxide", "L-Cysteine, S-methyl-, S-oxide", "Alanine, 3-(methylsulfinyl)-, L-", "L-Alanine, 3-(methylsulfinyl)-", "S-Methyl-L-cysteine sulfoxide", "S-Methylcysteine sulfoxide", "S-Methylcysteine S-oxide", "NSC 226572", "Kale anemia factor", "(2R)-2-Azaniumyl-3-methylsulfinylpropanoate"], "SMILES": "C(CS(C)=O)(C(O)=O)N", "physical_data": {"Molecular Weight": "151.18", "Molecular Formula": "C4H9NO3S", "Melting Point": "169-170 \u00b0C"}}