{"cas_no": "6853-57-2", "cn_name": "4-N-\u620a(\u70f7)\u57fa\u82ef\u7532\u919b", "en_name": ["4-Pentylbenzaldehyde", "Benzaldehyde, 4-pentyl-", "Benzaldehyde, p-pentyl-", "4-Pentylbenzaldehyde", "p-Pentylbenzaldehyde", "p-Amylbenzaldehyde"], "SMILES": "C(CCCC)C1=CC=C(C=O)C=C1", "physical_data": {"Molecular Weight": "176.25", "Molecular Formula": "C12H16O", "Boiling Point": "215 \u00b0C @ Press: 6 Torr", "Melting Point": "-33 \u00b0C"}}