{"cas_no": "68550-75-4", "cn_name": "OPC 3689  \u897f\u6d1b\u9170\u80fa", "en_name": ["Cilostamide", "Butanamide, N-cyclohexyl-4-[(1,2-dihydro-2-oxo-6-quinolinyl)oxy]-N-methyl-", "N-Cyclohexyl-4-[(1,2-dihydro-2-oxo-6-quinolinyl)oxy]-N-methylbutanamide", "Cilostamide", "OPC 3689"], "SMILES": "O(CCCC(N(C)C1CCCCC1)=O)C=2C=C3C(=CC2)NC(=O)C=C3", "physical_data": {"Molecular Weight": "342.43", "Molecular Formula": "C20H26N2O3", "Melting Point": "186-188 \u00b0C"}}