{"cas_no": "6856-31-1", "cn_name": "\u0391,\u0391-\u4e8c\u82ef\u57fa-1-\u54cc\u5576\u4e19\u9187", "en_name": ["Pridinol mesylate", "1-Piperidinepropanol, \u03b1,\u03b1-diphenyl-, methanesulfonate (1:1)", "1-Piperidinepropanol, \u03b1,\u03b1-diphenyl-, methanesulfonate (salt)", "Methanesulfonic acid, compd. with \u03b1,\u03b1-diphenyl-1-piperidinepropanol", "3-(N-Piperidino)-1,1-diphenyl-1-propanol methanesulfonate", "3-Piperidino-1,1-diphenyl-1-propanol methanesulfonate", "Lyseen", "Pridinol mesylate", "Mitanoline", "Loxeen", "Pridinol methanesulfonate", "Konlax"], "SMILES": "S(C)(=O)(=O)O.C(CCN1CCCCC1)(O)(C2=CC=CC=C2)C3=CC=CC=C3", "physical_data": {"Molecular Weight": "", "Molecular Formula": "C20H25NO.CH4O3S", "Melting Point": "152.5-155 \u00b0C"}}