{"cas_no": "68573-23-9", "cn_name": "N-\u963f\u9b4f\u7f9f\u8272\u80fa", "en_name": ["N-Feruloylserotonin", "2-Propenamide, N-[2-(5-hydroxy-1H-indol-3-yl)ethyl]-3-(4-hydroxy-3-methoxyphenyl)-", "N-[2-(5-Hydroxy-1H-indol-3-yl)ethyl]-3-(4-hydroxy-3-methoxyphenyl)-2-propenamide", "N-Feruloylserotonin", "NSC 369502"], "SMILES": "C(CNC(C=CC1=CC(OC)=C(O)C=C1)=O)C=2C=3C(NC2)=CC=C(O)C3", "physical_data": {"Molecular Weight": "352.38", "Molecular Formula": "C20H20N2O4", "Melting Point": "110-114 \u00b0C"}}