{"cas_no": "68573-24-0", "cn_name": "N-(P-\u9999\u8c46\u9170)-\u7f9f\u8272\u80fa", "en_name": ["N-(p-Coumaroyl)serotonin", "2-Propenamide, N-[2-(5-hydroxy-1H-indol-3-yl)ethyl]-3-(4-hydroxyphenyl)-", "N-[2-(5-Hydroxy-1H-indol-3-yl)ethyl]-3-(4-hydroxyphenyl)-2-propenamide", "N-(p-Coumaroyl)serotonin", "NSC 369503"], "SMILES": "C(CNC(C=CC1=CC=C(O)C=C1)=O)C=2C=3C(NC2)=CC=C(O)C3", "physical_data": {"Molecular Weight": "322.36", "Molecular Formula": "C19H18N2O3", "Melting Point": "192-195 \u00b0C"}}