{"cas_no": "6858-44-2", "cn_name": "\u67e0\u6aac\u9178\u4e09\u94a0\u6c34\u5408\u7269", "en_name": ["1,2,3-Propanetricarboxylic acid, 2-hydroxy-, sodium salt, hydrate (2:6:11)", "1,2,3-Propanetricarboxylic acid, 2-hydroxy-, sodium salt, hydrate (2:6:11)", "Citric acid, trisodium salt, hydrate (2:11)", "1,2,3-Propanetricarboxylic acid, 2-hydroxy-, trisodium salt, hydrate (2:11)"], "SMILES": "C(CC(O)=O)(CC(O)=O)(C(O)=O)O.[Na].O", "physical_data": {"Molecular Weight": "", "Molecular Formula": "C6H8O7.<sup>11</sup>/2H2O.3Na", "Melting Point": "150 \u00b0C (decomp)"}}