{"cas_no": "68592-12-1", "cn_name": "2-(3'-\u6c2f\u78fa\u9170\u57fa-4'-\u6c2f\u82ef\u7532\u9170)\u82ef\u7532\u9178", "en_name": ["2-[4-Chloro-3-(chlorosulfonyl)benzoyl]benzoic acid", "Benzoic acid, 2-[4-chloro-3-(chlorosulfonyl)benzoyl]-", "Benzoic acid, o-[4-chloro-3-(chlorosulfonyl)benzoyl]-", "2-[4-Chloro-3-(chlorosulfonyl)benzoyl]benzoic acid"], "SMILES": "C(=O)(C1=C(C(O)=O)C=CC=C1)C2=CC(S(Cl)(=O)=O)=C(Cl)C=C2", "physical_data": {"Molecular Weight": "359.18", "Molecular Formula": "C14H8Cl2O5S", "Melting Point": "178-182 \u00b0C"}}