{"cas_no": "6859-99-0", "cn_name": "3-\u7f9f\u57fa\u54cc\u5576", "en_name": ["3-Hydroxypiperidine", "3-Piperidinol", "3-Piperidinol, (\u00b1)-", "3-Hydroxypiperidine", "3-Hydroxyhexahydropyridine", "(\u00b1)-3-Hydroxypiperidine", "(R,S)-3-Hydroxypiperidine", "NSC 62082"], "SMILES": "OC1CCCNC1", "physical_data": {"Molecular Weight": "101.15", "Molecular Formula": "C5H11NO", "Boiling Point": "113-116 \u00b0C @ Press: 26 Torr", "Melting Point": "60-63 \u00b0C"}}