{"cas_no": "686-31-7", "cn_name": "\u8fc7\u6c27\u5316\u53d4\u620a\u57fa-2-\u4e59\u57fa\u5df1\u9178\u916f", "en_name": ["tert-Amyl peroxy-2-ethylhexanoate", "Hexaneperoxoic acid, 2-ethyl-, 1,1-dimethylpropyl ester", "Peroxyhexanoic acid, 2-ethyl-, tert-pentyl ester", "tert-Pentyl alcohol, 2-ethylperoxyhexanoate", "Lupersol TA 75", "Lupersol 575", "tert-Amyl peroxy-2-ethylhexanoate", "tert-Amyl 2-ethylperoxyhexanoate", "tert-Amyl 2-ethylperhexanoate", "tert-Pentyl peroxy-2-ethylhexanoate", "Trigonox 121", "Trigonox 121-50", "Esperox 570", "Trigonox 121C50", "Trigonox 121LS50", "Trigonox 121-50E", "Luperox 575"], "SMILES": "C(C(OOC(CC)(C)C)=O)(CCCC)CC", "physical_data": {"Molecular Weight": "230.34", "Molecular Formula": "C13H26O3", "Boiling Point": "68 \u00b0C @ Press: 0.5 Torr", "Density": "0.9075 g/cm\u00b3 @ Temp: 20 \u00b0C"}}