{"cas_no": "686-50-0", "cn_name": "L-\u4eae\u6c28\u9170\u7518\u6c28\u9178", "en_name": ["L-Leucylglycine", "Glycine, L-leucyl-", "Glycine, N-L-leucyl-", "L-Leucylglycine", "35: PN: WO0028996 SEQID: 4 unclaimed protein", "436: PN: WO2005081628 SEQID: 438 claimed protein", "1374: PN: EP2071334 SEQID: 1452 claimed protein", "1374: PN: WO2009077864 SEQID: 1452 claimed protein", "210: PN: WO2009114815 SEQID: 222 unclaimed protein", "101: PN: EP2161028 PAGE: 10 claimed protein", "202: PN: WO2011032181 SEQID: 222 unclaimed protein", "30: PN: WO2014063098 TABLE: 5 claimed sequence", "10: PN: WO2011159938 SEQID: 76 claimed protein", "147: PN: US20130123467 SEQID: 176 claimed protein", "1: PN: US20160271151 PAGE: 14 claimed sequence", "(S)-2-(2-Amino-4-methylpentamido)acetic acid", "2-[[(2S)-2-Amino-4-methylpentanoyl]amino]acetic acid", "2-[(2S)-2-Amino-4-methylpentanamido]acetic acid", "263: PN: WO2022177963 SEQID: 364 claimed protein", "2: PN: WO2023056430 PAGE: 59 claimed sequence"], "SMILES": "C(C(NCC(O)=O)=O)(CC(C)C)N", "physical_data": {"Molecular Weight": "188.22", "Molecular Formula": "C8H16N2O3", "Melting Point": "248 \u00b0C"}}