{"cas_no": "686-69-1", "cn_name": "\u6c2f\u5316\u4e8c\u4e59\u57fa\u78f7", "en_name": ["Chlorodiethylphosphine", "Phosphinous chloride, P,P-diethyl-", "Phosphinous chloride, diethyl-", "P,P-Diethylphosphinous chloride", "Chlorodiethylphosphine", "Diethylchlorophosphine", "Diethylphosphine chloride", "Diethylphosphinous chloride", "Chlorodiethylphosphane"], "SMILES": "P(CC)(CC)Cl", "physical_data": {"Molecular Weight": "124.55", "Molecular Formula": "C4H10ClP", "Boiling Point": "131-132 \u00b0C", "Density": "1.0233 g/cm\u00b3 @ Temp: 20 \u00b0C"}}