{"cas_no": "6860-47-5", "cn_name": "\u6728\u4e8c\u7cd6", "en_name": ["Xylobiose", "D-Xylose, 4-O-\u03b2-D-xylopyranosyl-", "Xylobiose", "4-O-\u03b2-D-Xylopyranosyl-D-xylose", "1,4-\u03b2-Xylobiose"], "SMILES": "O(C(C(C(C=O)O)O)CO)C1C(O)C(O)C(O)CO1", "physical_data": {"Molecular Weight": "282.24", "Molecular Formula": "C10H18O9", "Melting Point": "186-187 \u00b0C"}}