{"cas_no": "686344-29-6", "cn_name": "\u5965\u66ff\u90a3\u73ed", "en_name": ["1-[8-(2-Chlorophenyl)-9-(4-chlorophenyl)-9H-purin-6-yl]-4-(ethylamino)-4-piperidinecarboxamide", "4-Piperidinecarboxamide, 1-[8-(2-chlorophenyl)-9-(4-chlorophenyl)-9H-purin-6-yl]-4-(ethylamino)-", "1-[8-(2-Chlorophenyl)-9-(4-chlorophenyl)-9H-purin-6-yl]-4-(ethylamino)-4-piperidinecarboxamide", "1-[9-(4-Chlorophenyl)-8-(2-chlorophenyl)-9H-purin-6-yl]-4-ethylaminopiperidine-4-carboxamide", "Otenabant", "1-[8-(2-Chlorophenyl)-9-(4-chlorophenyl)purin-6-yl]-4-(ethylamino)piperidine-4-carboxamide", "CP 945,598"], "SMILES": "ClC1=C(C=2N(C=3C(N2)=C(N=CN3)N4CCC(NCC)(C(N)=O)CC4)C5=CC=C(Cl)C=C5)C=CC=C1", "physical_data": {"Molecular Weight": "510.42", "Molecular Formula": "C25H25Cl2N7O", "Melting Point": "141-143 \u00b0C"}}