{"cas_no": "686347-12-6", "cn_name": "CP945598", "en_name": ["4-Piperidinecarboxamide, 1-[8-(2-chlorophenyl)-9-(4-chlorophenyl)-9H-purin-6-yl]-4-(ethylamino)-, hydrochloride (1:1)", "4-Piperidinecarboxamide, 1-[8-(2-chlorophenyl)-9-(4-chlorophenyl)-9H-purin-6-yl]-4-(ethylamino)-, hydrochloride (1:1)", "4-Piperidinecarboxamide, 1-[8-(2-chlorophenyl)-9-(4-chlorophenyl)-9H-purin-6-yl]-4-(ethylamino)-, monohydrochloride", "Otenabant hydrochloride", "CP 945598", "CP 945598-01"], "SMILES": "ClC1=C(C=2N(C=3C(N2)=C(N=CN3)N4CCC(NCC)(C(N)=O)CC4)C5=CC=C(Cl)C=C5)C=CC=C1.Cl", "physical_data": {"Molecular Weight": "", "Molecular Formula": "C25H25Cl2N7O.ClH", "Melting Point": "275-276 \u00b0C (decomp)"}}