{"cas_no": "6863-74-7", "cn_name": "6-\u6c30\u57fa-2-\u6c2f\u5421\u55ea", "en_name": ["6-Chloro-2-pyrazinecarbonitrile", "2-Pyrazinecarbonitrile, 6-chloro-", "Pyrazinecarbonitrile, 6-chloro-", "6-Chloro-2-pyrazinecarbonitrile", "2-Cyano-6-chloropyrazine", "6-Chloro-2-cyanopyrazine", "2-Chloro-6-cyanopyrazine", "2-Chloro-6-pyrazinecarbonitrile", "6-Cyano-2-chloropyrazine"], "SMILES": "C(#N)C1=NC(Cl)=CN=C1", "physical_data": {"Molecular Weight": "139.54", "Molecular Formula": "C5H2ClN3", "Boiling Point": "100-102 \u00b0C @ Press: 12 Torr", "Melting Point": "24-26 \u00b0C"}}