{"cas_no": "6863-58-7", "cn_name": "\u4ef2\u4e01\u57fa\u919a", "en_name": ["sec-Butyl ether", "Butane, 2,2\u2032-oxybis-", "sec-Butyl ether", "2,2\u2032-Oxybis[butane]", "Di-sec-Butyl ether", "Bis(2-butyl) ether", "2-Butan-2-yloxybutane", "2-(Butan-2-yloxy)butane"], "SMILES": "O(C(CC)C)C(CC)C", "physical_data": {"Molecular Weight": "130.23", "Molecular Formula": "C8H18O", "Boiling Point": "120-122 \u00b0C @ Press: 748 Torr", "Melting Point": "-100 \u00b0C", "Density": "0.761 g/cm\u00b3 @ Temp: 17 \u00b0C"}}