{"cas_no": "6864-37-5", "cn_name": "3,3'-\u4e8c\u7532\u57fa-4,4-\u4e8c\u6c28\u57fa\u4e8c\u73af\u5df1\u57fa\u7532\u70f7", "en_name": ["Bis(4-amino-3-methylcyclohexyl)methane", "Cyclohexanamine, 4,4\u2032-methylenebis[2-methyl-", "Cyclohexylamine, 4,4\u2032-methylenebis[2-methyl-", "4,4\u2032-Methylenebis[2-methylcyclohexanamine]", "4,4\u2032-Diamino-3,3\u2032-dimethyldicyclohexylmethane", "Bis(3-methyl-4-aminocyclohexyl)methane", "3,3\u2032-Dimethyl-4,4\u2032-diaminodicyclohexylmethane", "4,4\u2032-Methylenebis[2-methylcyclohexylamine]", "Bis(4-amino-3-methylcyclohexyl)methane", "Laromin C 260", "Laromin C", "Hardener SL", "Rutapox SL", "3DCM", "2,2\u2032-Dimethyl-4,4\u2032-methylenebis(cyclohexylamine)", "Ancamine 2049", "Dimethyldicykan", "Ciba 2976", "Eporesit T 58", "RF 24", "SIQ-AMIN 1105", "Epicure 113", "JER Cure 113", "T 58", "C 260", "DMDC", "JER 113", "EC 331", "Baxxodur EC 331", "Aradur 8615", "MACM", "MH 3122", "Baxxodur 331", "4,4\u2032-Methylenebis(2-methycyclohexylamine)", "Epikure 04434", "L 287"], "SMILES": "C(C1CC(C)C(N)CC1)C2CC(C)C(N)CC2", "physical_data": {"Molecular Weight": "238.41", "Molecular Formula": "C15H30N2", "Boiling Point": "342 \u00b0C", "Melting Point": "-7 \u00b0C", "Density": "0.95 g/cm\u00b3"}}