{"cas_no": "68641-49-6", "cn_name": "\u53cc(2-\u6c27\u4ee3-3-\u6076\u5511\u70f7\u57fa)\u6b21\u78f7\u9170\u6c2f", "en_name": ["Bis(2-oxo-3-oxazolidinyl)phosphinic chloride", "Phosphinic chloride, P,P-bis(2-oxo-3-oxazolidinyl)-", "Phosphinic chloride, bis(2-oxo-3-oxazolidinyl)-", "P,P-Bis(2-oxo-3-oxazolidinyl)phosphinic chloride", "BOP-Cl", "Bis(2-oxo-3-oxazolidinyl)phosphinic chloride", "BOPDC", "NSC 377647", "Bis(2-oxo-3-oxazolidinyl)phosphoryl chloride"], "SMILES": "P(Cl)(=O)(N1C(=O)OCC1)N2C(=O)OCC2", "physical_data": {"Molecular Weight": "254.56", "Molecular Formula": "C6H8ClN2O5P", "Melting Point": "191-193 \u00b0C"}}