{"cas_no": "68654-25-1", "cn_name": "3,5-\u53cc\u6eb4\u7532\u57fa-2,6-\u4e8c\u7532\u57fa\u5421\u5511\u5e76[1,2-A]\u5421\u5511-1,7-\u4e8c\u916e", "en_name": ["Dibromobimane", "1H,7H-Pyrazolo[1,2-a]pyrazole-1,7-dione, 3,5-bis(bromomethyl)-2,6-dimethyl-", "3,5-Bis(bromomethyl)-2,6-dimethyl-1H,7H-pyrazolo[1,2-a]pyrazole-1,7-dione", "Thiolyte BB", "Dibromobimane", "NSC 608550", "1,7-Bis(bromomethyl)-2,6-dimethylpyrazolo[1,2-a]pyrazole-3,5-dione", "3,5-Bis(bromomethyl)-2,6-dimethyl-1H,7H-[1,2]diazolo[1,2-a]pyrazole-1,7-dione"], "SMILES": "C(Br)C=1N2N(C(=O)C(C)=C2CBr)C(=O)C1C", "physical_data": {"Molecular Weight": "350.01", "Molecular Formula": "C10H10Br2N2O2", "Melting Point": "176-177 \u00b0C"}}