{"cas_no": "68672-66-2", "cn_name": "(Z)-2-(2-\u4e09\u82ef\u7532\u57fa\u6c28\u57fa\u567b\u5511-4-\u57fa)-2-(2-\u53d4\u4e01\u6c27\u7fb0\u57fa\u4e19-2-\u6c27\u4e9a\u6c28)\u4e59\u9178", "en_name": ["(\u03b1Z)-\u03b1-[[2-(1,1-Dimethylethoxy)-1,1-dimethyl-2-oxoethoxy]imino]-2-[(triphenylmethyl)amino]-4-thiazoleacetic acid", "4-Thiazoleacetic acid, \u03b1-[[2-(1,1-dimethylethoxy)-1,1-dimethyl-2-oxoethoxy]imino]-2-[(triphenylmethyl)amino]-, (\u03b1Z)-", "4-Thiazoleacetic acid, \u03b1-[[2-(1,1-dimethylethoxy)-1,1-dimethyl-2-oxoethoxy]imino]-2-[(triphenylmethyl)amino]-, (Z)-", "(\u03b1Z)-\u03b1-[[2-(1,1-Dimethylethoxy)-1,1-dimethyl-2-oxoethoxy]imino]-2-[(triphenylmethyl)amino]-4-thiazoleacetic acid"], "SMILES": "C(NC1=NC(C(=NOC(C(OC(C)(C)C)=O)(C)C)C(O)=O)=CS1)(C2=CC=CC=C2)(C3=CC=CC=C3)C4=CC=CC=C4", "physical_data": {"Molecular Weight": "571.69", "Molecular Formula": "C32H33N3O5S", "Melting Point": "168-169 \u00b0C"}}