{"cas_no": "68693-11-8", "cn_name": "\u83ab\u8fbe\u975e\u5c3c", "en_name": ["Modafinil", "Acetamide, 2-[(diphenylmethyl)sulfinyl]-", "2-[(Diphenylmethyl)sulfinyl]acetamide", "2-(Benzhydrylsulfinyl)acetamide", "CRL 40476", "Modafinil", "CEP 1538", "Modiodal", "(\u00b1)-Modafinil", "Provigil", "CRC 40476", "DEP 1538", "Modaphonil", "2-(Benzhydrylsulfinyl)acetamide", "2-Diphenylmethanesulfinylacetamide", "2-(Diphenyl-methanesulfinyl)-acetamide", "Alertec", "Modavigil"], "SMILES": "C(S(CC(N)=O)=O)(C1=CC=CC=C1)C2=CC=CC=C2", "physical_data": {"Molecular Weight": "273.35", "Molecular Formula": "C15H15NO2S", "Melting Point": "164-166 \u00b0C"}}