{"cas_no": "687-47-8", "cn_name": "L(-)-\u4e73\u9178\u4e59\u916f", "en_name": ["Ethyl L-lactate", "Propanoic acid, 2-hydroxy-, ethyl ester, (2S)-", "Propanoic acid, 2-hydroxy-, ethyl ester, (S)-", "Lactic acid, ethyl ester, (-)-", "(-)-Ethyl lactate", "Ethyl L-lactate", "(S)-(-)-Ethyl lactate", "(S)-(-)-Lactic acid ethyl ester", "Ethyl (S)-lactate", "(S)-Lactic acid ethyl ester", "Ethyl (-)-(S)-lactate", "(-)-Ethyl 2-hydroxypropionate", "L-Ethyl lactate", "Ethyl (S)-2-hydroxypropionate", "(-)-Ethyl 2-hydroxypropanoate", "(L)-(-)-Ethyl lactate", "Ethyl (S)-2-hydroxypropanoate", "Ethyl (S)-(-)-2-hydroxypropionate", "(2S)-2-Hydroxypropionic acid ethyl ester", "Ethyl L-(-)-lactate", "Ethyl (2S)-(-)-2-hydroxypropanoate", "(2S)-2-Hydroxypropanoic acid ethyl ester", "(S)-2-Hydroxypropanoic acid ethyl ester", "Ethyl (2S)-2-hydroxypropanoate", "Ethyl (2S)-hydroxypropanoate", "Ethyl L-lactate", "(-)-Ethyl L-lactate", "(2S)-Ethyl 2-hydroxypropanoate", "(-)-Ethyl (S)-2-hydroxypropionate"], "SMILES": "C(OCC)(C(C)O)=O", "physical_data": {"Molecular Weight": "118.13", "Molecular Formula": "C5H10O3", "Boiling Point": "154 \u00b0C", "Density": "1.025 g/cm\u00b3 @ Temp: 31 \u00b0C"}}