{"cas_no": "687-38-7", "cn_name": "\u7518\u6c28\u9170-DL-\u4e1d\u6c28\u9178", "en_name": ["Glycylserine", "Serine, glycyl-", "Serine, N-glycyl-, DL-", "DL-Serine, N-glycyl-", "Glycylserine", "Glycyl-DL-serine", "NSC 163326", "2-(2-Aminoacetamido)-3-hydroxypropanoic acid"], "SMILES": "C(NC(CN)=O)(C(O)=O)CO", "physical_data": {"Molecular Weight": "162.14", "Molecular Formula": "C5H10N2O4", "Melting Point": "207 \u00b0C"}}