{"cas_no": "687-69-4", "cn_name": "L-\u4e19\u6c28\u9170\u7518\u6c28\u9178", "en_name": ["L-Alanylglycine", "Glycine, L-alanyl-", "Glycine, N-L-alanyl-", "L-Alanylglycine", "Alanylglycine", "N-L-Alanylglycine", "L-\u03b1-Alanylglycine", "(S)-Alanylglycine", "33: PN: WO03052099 PAGE: 84 claimed protein", "NSC 89597", "52: PN: WO2009086116 SEQID: 27 unclaimed protein", "18: PN: WO2014063098 TABLE: 5 claimed protein", "113: PN: US20130123467 SEQID: 137 claimed protein", "1: PN: US20180169179 SEQID: 1 claimed protein", "3: PN: CN109305994 PAGE: 5 claimed sequence", "(S)-2-(2-Aminopropanamido)acetic acid", "2-[(2S)-2-Aminopropanamido]acetic acid", "2: PN: WO2022099157 PAGE: 113 claimed sequence", "2: PN: WO2022192664 PAGE: 110 claimed sequence", "13: PN: WO2022226242 SEQID: 13 claimed protein", "3: PN: WO2022218941 PAGE: 253 claimed sequence"], "SMILES": "C(NCC(O)=O)(C(C)N)=O", "physical_data": {"Molecular Weight": "146.14", "Molecular Formula": "C5H10N2O3", "Melting Point": "250 \u00b0C"}}