{"cas_no": "687-51-4", "cn_name": "\u4eae\u6c28\u9170\u80fa", "en_name": ["L-Leucinamide", "Pentanamide, 2-amino-4-methyl-, (2S)-", "Leucinamide, L-", "Pentanamide, 2-amino-4-methyl-, (S)-", "(2S)-2-Amino-4-methylpentanamide", "L-Leucinamide", "L-Leucine amide", "Leucine amide", "H-Leu-NH2", "(S)-2-Amino-4-methylpentanamide", "(2S)-2-Amino-4-methylpentanamide"], "SMILES": "C(CC(C)C)(C(N)=O)N", "physical_data": {"Molecular Weight": "130.19", "Molecular Formula": "C6H14N2O", "Melting Point": "84-85 \u00b0C"}}