{"cas_no": "6870-94-6", "cn_name": "\u6c1f\u7532\u677e\u9f99\u76f8\u5173\u7269\u8d28A", "en_name": ["(6\u03b1,11\u03b2)-11,17-Dihydroxy-6-methylpregna-1,4-diene-3,20-dione", "Pregna-1,4-diene-3,20-dione, 11,17-dihydroxy-6-methyl-, (6\u03b1,11\u03b2)-", "Pregna-1,4-diene-3,20-dione, 11\u03b2,17-dihydroxy-6\u03b1-methyl-", "(6\u03b1,11\u03b2)-11,17-Dihydroxy-6-methylpregna-1,4-diene-3,20-dione", "NSC 125051", "11\u03b2,17\u03b1-Dihydroxy-6\u03b1-methylpregna-1,4-diene-3,20-dione"], "SMILES": "CC12C(C3C(C4(C)C(C(C)C3)=CC(=O)C=C4)C(O)C1)CCC2(C(C)=O)O", "physical_data": {"Molecular Weight": "358.47", "Molecular Formula": "C22H30O4", "Melting Point": "222-231 \u00b0C"}}