{"cas_no": "6871-21-2", "cn_name": "\u5df4\u5a46\u78b1", "en_name": ["Asimilobine", "4H-Dibenzo[de,g]quinolin-2-ol, 5,6,6a,7-tetrahydro-1-methoxy-, (6aR)-", "Asimilobine", "6a\u03b2-Noraporphin-2-ol, 1-methoxy-", "4H-Dibenzo[de,g]quinolin-2-ol, 5,6,6a,7-tetrahydro-1-methoxy-, (R)-", "(6aR)-5,6,6a,7-Tetrahydro-1-methoxy-4H-dibenzo[de,g]quinolin-2-ol", "(-)-Asimilobine"], "SMILES": "O(C)C1=C2C=3C(CC=4C2=CC=CC4)NCCC3C=C1O", "physical_data": {"Molecular Weight": "267.32", "Molecular Formula": "C17H17NO2", "Melting Point": "177-179 \u00b0C"}}