{"cas_no": "6871-44-9", "cn_name": "\u57c3\u5947\u80fa", "en_name": ["Echitamine", "13H-3,8a-Methano-1H-azepino[1\u2032,2\u2032:1,2]pyrrolo[2,3-b]indolium, 4-ethylidene-2,3,4,5,7,8-hexahydro-1-hydroxy-14-(hydroxymethyl)-14-(methoxycarbonyl)-6-methyl-, (1S,3S,4E,8aS,13aR,14R)-", "Echitamine", "2,4(1H)-Cyclo-3,4-secoakuammilanium, 3,17-dihydroxy-16-(methoxycarbonyl)-4-methyl-, (3\u03b2,16R)-", "Ditaine", "(1S,3S,4E,8aS,13aR,14R)-4-Ethylidene-2,3,4,5,7,8-hexahydro-1-hydroxy-14-(hydroxymethyl)-14-(methoxycarbonyl)-6-methyl-13H-3,8a-methano-1H-azepino[1\u2032,2\u2032:1,2]pyrrolo[2,3-b]indolium", "13H-3,8a-Methano-1H-azepino[1\u2032,2\u2032:1,2]pyrrolo[2,3-b]indolium, 4-ethylidene-2,3,4,5,7,8-hexahydro-1-hydroxy-14-(hydroxymethyl)-14-(methoxycarbonyl)-6-methyl-, [1S-(1\u03b1,3\u03b2,4E,8a\u03b1,13aS*,14S*)]-", "NSC 296565"], "SMILES": "C(OC)(=O)C1(CO)C23C4([N+](C)(CC2)CC(=CC)C1CC4O)NC=5C3=CC=CC5", "physical_data": {"Molecular Weight": "", "Molecular Formula": "C22H29N2O4", "Melting Point": "139-140 \u00b0C"}}