{"cas_no": "6872-06-6", "cn_name": "2-\u7532\u57fa\u5432\u54da\u5549", "en_name": ["2-Methylindoline", "1H-Indole, 2,3-dihydro-2-methyl-", "Indoline, 2-methyl-", "2,3-Dihydro-2-methyl-1H-indole", "2-Methylindoline", "2-Methyl-2,3-dihydroindole", "2,3-Dihydro-2-methylindole", "\u03b1-Methyldihydroindole", "NSC 65598", "2-Methyl-2,3-dihydro-1H-indole", "2-Methyl-1H-indoline", "(\u00b1)-2-Methylindoline"], "SMILES": "CC1CC=2C(N1)=CC=CC2", "physical_data": {"Molecular Weight": "133.19", "Molecular Formula": "C9H11N", "Boiling Point": "115-117 \u00b0C @ Press: 18 Torr", "Melting Point": "60.0-61.0 \u00b0C"}}