{"cas_no": "6873-09-2", "cn_name": "\u8868\u5c0f\u6a97\u78b1", "en_name": ["Epiberberine", "Benzo[a]-1,3-benzodioxolo[4,5-g]quinolizinium, 11,12-dihydro-8,9-dimethoxy-", "Berbinium, 7,8,13,13a-tetradehydro-2,3-dimethoxy-9,10-(methylenedioxy)-", "11,12-Dihydro-8,9-dimethoxybenzo[a]-1,3-benzodioxolo[4,5-g]quinolizinium", "Epiberberine", "Dehydrosinactine"], "SMILES": "O(C)C=1C=C2C=3[N+](=CC4=C(C3)C=CC5=C4OCO5)CCC2=CC1OC", "physical_data": {"Molecular Weight": "", "Molecular Formula": "C20H18NO4", "Melting Point": "260 \u00b0C"}}