{"cas_no": "6873-15-0", "cn_name": "\u5c71\u67d1\u5b50\u78b1", "en_name": ["Arborine", "4(1H)-Quinazolinone, 1-methyl-2-(phenylmethyl)-", "4(1H)-Quinazolinone, 2-benzyl-1-methyl-", "Arborine", "1-Methyl-2-(phenylmethyl)-4(1H)-quinazolinone", "Glycosine (alkaloid)", "Glycosine", "Arborin", "Glycosin", "NSC 127745", "2-Benzyl-1-methylquinazolin-4-one", "2-Benzyl-1-methylquinazolin-4(1H)-one"], "SMILES": "CN1C=2C(C(=O)N=C1CC3=CC=CC=C3)=CC=CC2", "physical_data": {"Molecular Weight": "250.30", "Molecular Formula": "C16H14N2O", "Melting Point": "155-156 \u00b0C"}}