{"cas_no": "6874-60-8", "cn_name": "1-\u7678\u57fa\u78f7\u9178", "en_name": ["Decylphosphonic acid", "Phosphonic acid, P-decyl-", "Phosphonic acid, decyl-", "P-Decylphosphonic acid", "1-Decanephosphonic acid", "Decanephosphonic acid", "Decylphosphonic acid", "n-Decylphosphonic acid", "NSC 407850"], "SMILES": "C(CCCCCCCC)CP(=O)(O)O", "physical_data": {"Molecular Weight": "222.26", "Molecular Formula": "C10H23O3P", "Melting Point": "102-102.5 \u00b0C"}}