{"cas_no": "68758-68-9", "cn_name": "4-\u7f9f\u57fa\u6241\u6843\u9178\u4e59\u916f", "en_name": ["Ethyl \u03b1,4-dihydroxybenzeneacetate", "Benzeneacetic acid, \u03b1,4-dihydroxy-, ethyl ester", "Mandelic acid, p-hydroxy-, ethyl ester", "Ethyl \u03b1,4-dihydroxybenzeneacetate", "Ethyl 4-hydroxymandelate", "dl-Ethyl p-hydroxymandelate"], "SMILES": "C(C(OCC)=O)(O)C1=CC=C(O)C=C1", "physical_data": {"Molecular Weight": "196.20", "Molecular Formula": "C10H12O4", "Melting Point": "129.20 \u00b0C"}}