{"cas_no": "68751-90-6", "cn_name": "5-\u6c2f-2-\u7f9f\u57fa-4-\u7532\u57fa\u82c4\u82ef\u916e", "en_name": ["(5-Chloro-2-hydroxy-4-methylphenyl)phenylmethanone", "Methanone, (5-chloro-2-hydroxy-4-methylphenyl)phenyl-", "(5-Chloro-2-hydroxy-4-methylphenyl)phenylmethanone", "4-Methyl-5-chloro-2-hydroxybenzophenone", "5-Chloro-2-hydroxy-4-methylbenzophenone", "5-Chloro-4-methyl-2-hydroxybenzophenone", "2-Benzoyl-4-chloro-5-methylphenol"], "SMILES": "C(=O)(C1=C(O)C=C(C)C(Cl)=C1)C2=CC=CC=C2", "physical_data": {"Molecular Weight": "246.69", "Molecular Formula": "C14H11ClO2", "Melting Point": "142 \u00b0C"}}