{"cas_no": "6876-00-2", "cn_name": "3-\u6eb4\u8054\u82ef\u919a", "en_name": ["3-Bromodiphenyl ether", "Benzene, 1-bromo-3-phenoxy-", "Ether, m-bromophenyl phenyl", "1-Bromo-3-phenoxybenzene", "m-Phenoxybromobenzene", "m-Bromodiphenyl ether", "m-Bromophenoxybenzene", "m-Bromophenyl phenyl ether", "3-Bromophenyl phenyl ether", "m-Phenoxyphenyl bromide", "3-Bromodiphenyl ether", "3-Phenoxyphenyl bromide", "3-Phenoxybromobenzene", "BDE 2", "PBDE 2", "NSC 57095", "3-Phenoxy-1-bromobenzene"], "SMILES": "O(C1=CC(Br)=CC=C1)C2=CC=CC=C2", "physical_data": {"Molecular Weight": "249.10", "Molecular Formula": "C12H9BrO", "Boiling Point": "168-171 \u00b0C @ Press: 15 Torr", "Density": "1.3944 g/cm\u00b3 @ Temp: 20 \u00b0C"}}