{"cas_no": "6876-37-5", "cn_name": "\u7532\u57fa\u6eb4\u5316\u80fa", "en_name": ["Methylammonium bromide", "Methanamine, hydrobromide", "Methylamine, hydrobromide", "Methylammonium bromide", "MABr"], "SMILES": "CN.Br", "physical_data": {"Molecular Weight": "", "Molecular Formula": "CH5N.BrH", "Melting Point": "246 \u00b0C"}}