{"cas_no": "68767-14-6", "cn_name": "\u6d1b\u7d22\u6d1b\u82ac", "en_name": ["Loxoprofen", "Benzeneacetic acid, \u03b1-methyl-4-[(2-oxocyclopentyl)methyl]-", "\u03b1-Methyl-4-[(2-oxocyclopentyl)methyl]benzeneacetic acid", "Loxoprofen", "2-[4-[(2-Oxocyclopentan-1-yl)methyl]phenyl]propionic acid", "2-[4-[(2-Oxocyclopentyl)methyl]phenyl]propionic acid", "2-[4-[(2-Oxocyclopentyl)methyl]phenyl]propanoic acid"], "SMILES": "C(C1=CC=C(C(C(O)=O)C)C=C1)C2C(=O)CCC2", "physical_data": {"Molecular Weight": "246.30", "Molecular Formula": "C15H18O3", "Boiling Point": "190-195 \u00b0C @ Press: 0.3 Torr", "Melting Point": "108.5-111 \u00b0C"}}