{"cas_no": "6876-23-9", "cn_name": "\u53cd-1,2-\u4e8c\u7532\u57fa\u73af\u5df1\u70f7", "en_name": ["trans-1,2-Dimethylcyclohexane", "Cyclohexane, 1,2-dimethyl-, (1R,2R)-rel-", "Cyclohexane, 1,2-dimethyl-, trans-", "rel-(1R,2R)-1,2-Dimethylcyclohexane", "trans-1,2-Dimethylcyclohexane", "1,2-trans-Dimethylcyclohexane", "(\u00b1)-trans-1,2-Dimethylcyclohexane", "NSC 74158"], "SMILES": "CC1C(C)CCCC1", "physical_data": {"Molecular Weight": "112.21", "Molecular Formula": "C8H16", "Boiling Point": "123.5 \u00b0C", "Melting Point": "-90 \u00b0C", "Density": "0.77204 g/cm\u00b3 @ Temp: 25 \u00b0C"}}