{"cas_no": "6876-13-7", "cn_name": "\u848e\u70f7", "en_name": ["cis-Pinane", "Bicyclo[3.1.1]heptane, 2,6,6-trimethyl-, (1R,2S,5R)-rel-", "Pinane, stereoisomer", "Bicyclo[3.1.1]heptane, 2,6,6-trimethyl-, (1\u03b1,2\u03b2,5\u03b1)-", "rel-(1R,2S,5R)-2,6,6-Trimethylbicyclo[3.1.1]heptane", "cis-Pinane", "(\u00b1)-trans-Pinane"], "SMILES": "CC1(C)C2CC1CCC2C", "physical_data": {"Molecular Weight": "138.25", "Molecular Formula": "C10H18", "Boiling Point": "167-168 \u00b0C @ Press: 760 Torr", "Density": "0.8590 g/cm\u00b3 @ Temp: 20 \u00b0C"}}