{"cas_no": "68776-62-5", "cn_name": "4-\u6c30\u57fa\u54d2\u55ea", "en_name": ["4-Pyridazinecarbonitrile", "4-Pyridazinecarbonitrile", "4-Cyanopyridazine"], "SMILES": "C(#N)C=1C=CN=NC1", "physical_data": {"Molecular Weight": "105.10", "Molecular Formula": "C5H3N3", "Melting Point": "79-80 \u00b0C"}}