{"cas_no": "6877-32-3", "cn_name": "\u67ef\u8bfa\u8f9b", "en_name": ["Corynoxine", "Spiro[3H-indole-3,1\u2032(5\u2032H)-indolizine]-7\u2032-acetic acid, 6\u2032-ethyl-1,2,2\u2032,3\u2032,6\u2032,7\u2032,8\u2032,8\u2032a-octahydro-\u03b1-(methoxymethylene)-2-oxo-, methyl ester, (\u03b1E,1\u2032S,6\u2032S,7\u2032S,8\u2032aS)-", "Corynoxine", "Corynoxan-16-carboxylic acid, 16,17-didehydro-17-methoxy-2-oxo-, methyl ester, (16E)-", "Spiro[3H-indole-3,1\u2032(5\u2032H)-indolizine]-7\u2032-acetic acid, 6\u2032-ethyl-1,2,2\u2032,3\u2032,6\u2032,7\u2032,8\u2032,8\u2032a-octahydro-\u03b1-(methoxymethylene)-2-oxo-, methyl ester, [1\u2032S-[1\u2032\u03b1,6\u2032\u03b2,7\u2032\u03b2(E),8\u2032a\u03b1]]-"], "SMILES": "O=C1C2(C3N(CC2)CC(CC)C(C(C(OC)=O)=COC)C3)C=4C(N1)=CC=CC4", "physical_data": {"Molecular Weight": "384.47", "Molecular Formula": "C22H28N2O4", "Melting Point": "166-168 \u00b0C"}}