{"cas_no": "68781-13-5", "cn_name": "1-\u6c28\u57fa\u73af\u4e19\u70f7\u7fa7\u9178\u76d0\u9178\u76d0", "en_name": ["Cyclopropanecarboxylic acid, 1-amino-, hydrochloride (1:1)", "Cyclopropanecarboxylic acid, 1-amino-, hydrochloride (1:1)", "Cyclopropanecarboxylic acid, 1-amino-, hydrochloride", "1-Amino-1-cyclopropanecarboxylic acid hydrochloride", "1-Aminocyclopropanecarboxylic acid hydrochloride", "1-Carboxycyclopropanaminium chloride"], "SMILES": "C(O)(=O)C1(N)CC1.Cl", "physical_data": {"Molecular Weight": "", "Molecular Formula": "C4H7NO2.ClH", "Melting Point": "222 \u00b0C (decomp)"}}