{"cas_no": "68786-66-3", "cn_name": "\u4e09\u6c2f\u82ef\u8fbe\u5511", "en_name": ["Triclabendazole", "1H-Benzimidazole, 6-chloro-5-(2,3-dichlorophenoxy)-2-(methylthio)-", "1H-Benzimidazole, 5-chloro-6-(2,3-dichlorophenoxy)-2-(methylthio)-", "6-Chloro-5-(2,3-dichlorophenoxy)-2-(methylthio)-1H-benzimidazole", "5-Chloro-6-(2,3-dichlorophenoxy)-2-methylthiobenzimidazole", "CGA 89317", "Triclabendazole", "5-Chloro-6-(2\u2032,3\u2032-dichlorophenoxy)-2-(methylthio)benzimidazole", "Fasinex", "Egaten"], "SMILES": "O(C=1C=C2C(N=C(SC)N2)=CC1Cl)C3=C(Cl)C(Cl)=CC=C3", "physical_data": {"Molecular Weight": "359.66", "Molecular Formula": "C14H9Cl3N2OS", "Melting Point": "176-178 \u00b0C"}}