{"cas_no": "68797-31-9", "cn_name": "\u785d\u9178\u76ca\u5eb7\u5511", "en_name": ["Econazole nitrate", "1H-Imidazole, 1-[2-[(4-chlorophenyl)methoxy]-2-(2,4-dichlorophenyl)ethyl]-, nitrate (1:1)", "Imidazole, 1-[2,4-dichloro-\u03b2-[(p-chlorobenzyl)oxy]phenethyl]-, mononitrate", "1H-Imidazole, 1-[2-[(4-chlorophenyl)methoxy]-2-(2,4-dichlorophenyl)ethyl]-, mononitrate", "1H-Imidazole, 1-[2-[(4-chlorophenyl)methoxy]-2-(2,4-dichlorophenyl)ethyl]-, (\u00b1)-, mononitrate", "Econazole nitrate", "R 14827", "1-[2-(4-Chlorobenzyloxy)-2-(2,4-dichlorophenyl)ethyl]imidazole nitrate", "Pevaryl", "(\u00b1)-Econazole nitrate", "Spectazole", "Pargin", "Epi-Pevaryl", "Ifenec", "Ecostatin", "Micogin", "SQ 13050", "Gyno-Pevaril", "Palavale", "Micofugal", "NSC 243115", "Gynoryl"], "SMILES": "N(=O)(=O)O.C(CN1C=CN=C1)(OCC2=CC=C(Cl)C=C2)C3=C(Cl)C=C(Cl)C=C3", "physical_data": {"Molecular Weight": "", "Molecular Formula": "C18H15Cl3N2O.HNO3", "Melting Point": "162 \u00b0C"}}