{"cas_no": "6879-01-2", "cn_name": "\u5bf9\u53f6\u767e\u90e8\u78b1", "en_name": ["Tuberostemonine", "Furo[2,3-h]pyrrolo[3,2,1-jk][1]benzazepin-10(2H)-one, 8-ethyldodecahydro-11-methyl-2-[(2S,4S)-tetrahydro-4-methyl-5-oxo-2-furanyl]-, (2S,7aR,8R,8aS,11S,11aS,11bR,11cR)-", "Tuberostemonine", "Stenine, 2-(tetrahydro-4-methyl-5-oxo-2-furanyl)-, [2\u03b2(2S,4S)]-", "Furo[2,3-h]pyrrolo[3,2,1-jk][1]benzazepin-10(2H)-one, 8-ethyldodecahydro-11-methyl-2-[(2S,5S)-tetrahydro-4-methyl-5-oxo-2-furanyl]-, (2S,7aR,8R,8aS,11S,11aS,11bR,11cR)-", "(2S,7aR,8R,8aS,11S,11aS,11bR,11cR)-8-Ethyldodecahydro-11-methyl-2-[(2S,4S)-tetrahydro-4-methyl-5-oxo-2-furanyl]furo[2,3-h]pyrrolo[3,2,1-jk][1]benzazepin-10(2H)-one", "Furo[2,3-h]pyrrolo[3,2,1-jk][1]benzazepin-10(2H)-one, 8-ethyldodecahydro-11-methyl-2-(tetrahydro-4-methyl-5-oxo-2-furanyl)-, [2S-[2\u03b1(2R*,4R*),7a\u03b1,8\u03b1,8a\u03b1,11\u03b1,11a\u03b1,11b\u03b2,11c\u03b1]]-", "Tuberostemonin", "NSC 366235"], "SMILES": "C(C)C1C2C3C(C4C1OC(=O)C4C)CC(N3CCCC2)C5CC(C)C(=O)O5", "physical_data": {"Molecular Weight": "375.50", "Molecular Formula": "C22H33NO4", "Melting Point": "85-88 \u00b0C"}}