{"cas_no": "68797-61-5", "cn_name": "4,6-\u4e8c\u6c2f-5-\u6eb4\u5627\u5576", "en_name": ["5-Bromo-4,6-dichloropyrimidine", "Pyrimidine, 5-bromo-4,6-dichloro-", "5-Bromo-4,6-dichloropyrimidine"], "SMILES": "BrC=1C(Cl)=NC=NC1Cl", "physical_data": {"Molecular Weight": "227.87", "Molecular Formula": "C4HBrCl2N2", "Melting Point": "75-76 \u00b0C"}}