{"cas_no": "688-14-2", "cn_name": "\u7518\u6c28\u9178-DL-\u4eae\u6c28\u9178", "en_name": ["Glycylleucine", "Leucine, glycyl-", "Leucine, N-glycyl-, DL-", "DL-Leucine, N-glycyl-", "Glycylleucine", "Glycyl-DL-leucine", "Glycyl-(RS)-leucine", "Glycyl-D,L-leucine", "2-(2-Amino-acetylamino)-4-methyl-pentanoic acid", "2-(2-Aminoacetamido)-4-methylpentanoic acid", "2-[(2-Azaniumylacetyl)amino]-4-methylpentanoate"], "SMILES": "C(NC(CN)=O)(CC(C)C)C(O)=O", "physical_data": {"Molecular Weight": "188.22", "Molecular Formula": "C8H16N2O3", "Melting Point": "242 \u00b0C (decomp)"}}