{"cas_no": "688-71-1", "cn_name": "\u787c\u9178\u4e09\u4e19\u916f", "en_name": ["Tripropyl borate", "Boric acid (H3BO3), tripropyl ester", "Propyl borate", "Tripropyl borate", "Tripropoxyborane", "Tris(propoxy)borane", "Boron propoxide", "Tripropyl orthoborate", "Propyl orthoborate", "Tri-n-propoxyboron", "NSC 778", "Boron tri-n-propoxide", "Tri-n-propyl borate", "R 002774"], "SMILES": "B(OCCC)(OCCC)OCCC", "physical_data": {"Molecular Weight": "188.07", "Molecular Formula": "C9H21BO3", "Boiling Point": "179.5 \u00b0C", "Density": "0.857 g/cm\u00b3"}}