{"cas_no": "688-84-6", "cn_name": "\u7532\u57fa\u4e19\u70ef\u9178 2-\u4e59\u57fa\u5df1\u916f", "en_name": ["Ethylhexyl methacrylate", "2-Propenoic acid, 2-methyl-, 2-ethylhexyl ester", "Methacrylic acid, 2-ethylhexyl ester", "1-Hexanol, 2-ethyl-, methacrylate", "2-Ethylhexyl methacrylate", "NSC 24173", "NSC 32647", "H 22 (methacrylate)", "H 22", "Acryester EH", "Blemmer EHMA 25", "Light Ester EH", "Ethylhexyl methacrylate", "Visiomer EHMA", "Light Ester 2EH"], "SMILES": "C(COC(C(C)=C)=O)(CCCC)CC", "physical_data": {"Molecular Weight": "198.30", "Molecular Formula": "C12H22O2", "Boiling Point": "110 \u00b0C @ Press: 14 Torr", "Density": "0.880 g/cm\u00b3 @ Temp: 25 \u00b0C"}}