{"cas_no": "688-73-3", "cn_name": "\u4e09\u6b63\u4e01\u57fa\u6c22\u9521", "en_name": ["Tributylstannane", "Stannane, tributyl-", "Tributyltin hydride", "Tributylstannane", "Tributylstannic hydride", "Tri-n-butyltin hydride", "Tributylstannyl hydride", "Tri-n-butylstannane", "Hydridotris(butyl)tin", "SnH(butyl)3"], "SMILES": "[SnH](CCCC)(CCCC)CCCC", "physical_data": {"Molecular Weight": "291.06", "Molecular Formula": "C12H28Sn", "Boiling Point": "76-81 \u00b0C @ Press: 0.7-0.9 Torr", "Density": "1.103 g/cm\u00b3 @ Temp: 20 \u00b0C"}}