{"cas_no": "688-12-0", "cn_name": "\u6c2f\u4e59\u9170-L-\u4eae\u6c28\u9178", "en_name": ["N-(2-Chloroacetyl)-L-leucine", "L-Leucine, N-(2-chloroacetyl)-", "Leucine, N-(chloroacetyl)-, L-", "L-Leucine, N-(chloroacetyl)-", "N-(2-Chloroacetyl)-L-leucine", "Chloroacetyl-L-leucine", "N-Chloroacetyl-L-leucine", "N-(Chloroacetyl)leucine", "NSC 60158", "(2S)-2-[(2-Chloroacetyl)amino]-4-methylpentanoic acid", "(2S)-2-(2-Chloroacetamido)-4-methylpentanoic acid"], "SMILES": "C(NC(CCl)=O)(CC(C)C)C(O)=O", "physical_data": {"Molecular Weight": "207.65", "Molecular Formula": "C8H14ClNO3", "Melting Point": "136 \u00b0C"}}