{"cas_no": "688-74-4", "cn_name": "\u787c\u9178\u4e09\u4e01\u916f", "en_name": ["Tributyl borate", "Boric acid (H3BO3), tributyl ester", "Butyl borate", "Butyl borate, B(OBu)3", "Borester 2", "n-Butyl borate", "Tributoxyborane", "Tri-n-butoxyborane", "Tributyl borate", "Tri-n-butyl borate", "Tributoxyboron", "Tris(butoxy)borane", "Boron tributoxide", "Tributyl orthoborate", "Boron tri-n-butoxide", "Boron tris(butoxide)", "NSC 779", "B(OC4H9)3", "Boric acid tri-n-butyl ester"], "SMILES": "B(OCCCC)(OCCCC)OCCCC", "physical_data": {"Molecular Weight": "230.15", "Molecular Formula": "C12H27BO3", "Boiling Point": "230-231 \u00b0C", "Density": "0.8567 g/cm\u00b3 @ Temp: 20 \u00b0C"}}