{"cas_no": "6880-91-7", "cn_name": "\u4e8c\u6c22\u767d\u5c48\u83dc\u7ea2\u78b1", "en_name": ["Dihydrochelerythrine", "[1,3]Benzodioxolo[5,6-c]phenanthridine, 12,13-dihydro-1,2-dimethoxy-12-methyl-", "Chelerythrine, 12,13-dihydro-", "Chelerythrine, dihydro-", "12,13-Dihydro-1,2-dimethoxy-12-methyl[1,3]benzodioxolo[5,6-c]phenanthridine", "Dihydrochelerythrine", "12,13-Dihydrochelerythrine", "1,2-Dimethoxy-12-methyl-13H-[1,3]benzodioxolo[5,6-c]phenanthridine"], "SMILES": "CN1C2=C(C=3C(C1)=C(OC)C(OC)=CC3)C=CC=4C2=CC5=C(C4)OCO5", "physical_data": {"Molecular Weight": "349.38", "Molecular Formula": "C21H19NO4", "Melting Point": "164-165 \u00b0C"}}