{"cas_no": "68817-71-0", "cn_name": "N-(4-\u6c2f\u82ef)-1,2-\u82ef\u4e8c\u80fa", "en_name": ["N1-(4-Chlorophenyl)-1,2-benzenediamine", "1,2-Benzenediamine, N1-(4-chlorophenyl)-", "1,2-Benzenediamine, N-(4-chlorophenyl)-", "N1-(4-Chlorophenyl)-1,2-benzenediamine", "N-(p-Chlorophenyl)-o-phenylenediamine", "N-(4-Chlorophenyl)-1,2-phenylenediamine", "N-(4-Chlorophenyl)benzene-1,2-diamine", "1-N-(4-Chlorophenyl)benzene-1,2-diamine", "1,2-Benzenediamine N1-(4-chlorophenyl)-", "2-N-(4-Chlorophenyl)benzene-1,2-diamine", "N\u2032-(4-Chlorophenyl)benzene-1,2-diamine"], "SMILES": "N(C1=C(N)C=CC=C1)C2=CC=C(Cl)C=C2", "physical_data": {"Molecular Weight": "218.68", "Molecular Formula": "C12H11ClN2", "Melting Point": "120-121 \u00b0C"}}