{"cas_no": "68818-86-0", "cn_name": "9,10-\u4e8c\u4e59\u6c27\u57fa\u84bd", "en_name": ["9,10-Diethoxyanthracene", "Anthracene, 9,10-diethoxy-", "9,10-Diethoxyanthracene", "DEA", "Adeka Optomer SP 100", "SP 100", "UVS 1101", "Anthracure UVS 1101"], "SMILES": "O(CC)C=1C2=C(C(OCC)=C3C1C=CC=C3)C=CC=C2", "physical_data": {"Molecular Weight": "266.33", "Molecular Formula": "C18H18O2", "Melting Point": "148 \u00b0C"}}