{"cas_no": "68819-84-1", "cn_name": "N-BOC-4-\u6eb4\u82c4\u80fa", "en_name": ["1,1-Dimethylethyl N-[(4-bromophenyl)methyl]carbamate", "Carbamic acid, N-[(4-bromophenyl)methyl]-, 1,1-dimethylethyl ester", "Carbamic acid, [(4-bromophenyl)methyl]-, 1,1-dimethylethyl ester", "1,1-Dimethylethyl N-[(4-bromophenyl)methyl]carbamate", "4-Bromo-N-BOC-benzylamine", "N-Boc-4-bromobenzylamine", "tert-Butyl (4-bromobenzyl)carbamate", "(4-Bromobenzyl)carbamic acid tert-butyl ester", "N-(4-Bromobenzyl)carbamic acid tert-butyl ester", "tert-Butyl N-(4-bromobenzyl)carbamate", "N-tert-Butoxycarbonyl-4-bromobenzylamine", "tert-Butyl N-[(4-bromophenyl)methyl]carbamate"], "SMILES": "C(NC(OC(C)(C)C)=O)C1=CC=C(Br)C=C1", "physical_data": {"Molecular Weight": "286.16", "Molecular Formula": "C12H16BrNO2", "Melting Point": "86-88 \u00b0C"}}