{"cas_no": "6881-57-8", "cn_name": "\u82c4\u57fa\u78f7\u9178", "en_name": ["Benzylphosphonic acid", "Phosphonic acid, P-(phenylmethyl)-", "Phosphonic acid, benzyl-", "Phosphonic acid, (phenylmethyl)-", "P-(Phenylmethyl)phosphonic acid", "\u03b1-Toluenephosphonic acid", "Phenylmethanephosphonic acid", "Benzylphosphonic acid"], "SMILES": "C(P(=O)(O)O)C1=CC=CC=C1", "physical_data": {"Molecular Weight": "172.12", "Molecular Formula": "C7H9O3P", "Melting Point": "165 \u00b0C"}}