{"cas_no": "6882-68-4", "cn_name": "\u69d0\u5b9a\u78b1", "en_name": ["(-)-Sophoridine", "1H,5H,10H-Dipyrido[2,1-f:3\u2032,2\u2032,1\u2032-ij][1,6]naphthyridin-10-one, dodecahydro-, (7aR,13aR,13bR,13cS)-", "Sophoridine", "Matridin-15-one, (5\u03b2)-", "(7aR,13aR,13bR,13cS)-Dodecahydro-1H,5H,10H-dipyrido[2,1-f:3\u2032,2\u2032,1\u2032-ij][1,6]naphthyridin-10-one", "l-Sophoridine", "Sophoridin", "Dihydro-5-episophocarpine", "5-Epidihydrosophocarpine", "(-)-Sophoridine", "1H,5H,10H-Dipyrido[2,1-f:3\u2032,2\u2032,1\u2032-ij][1,6]naphthyridin-10-one, dodecahydro-, [7aR-(7a\u03b1,13a\u03b1,13b\u03b2,13c\u03b2)]-"], "SMILES": "O=C1N2C(C3C4C(C2)CCCN4CCC3)CCC1", "physical_data": {"Molecular Weight": "248.36", "Molecular Formula": "C15H24N2O", "Melting Point": "109-110 \u00b0C"}}