{"cas_no": "6882-66-2", "cn_name": "\u69d0\u80fa", "en_name": ["(-)-Sophoramine", "1H,5H,10H-Dipyrido[2,1-f:3\u2032,2\u2032,1\u2032-ij][1,6]naphthyridin-10-one, 2,3,6,7,7a,8,13b,13c-octahydro-, (7aS,13bS,13cS)-", "Matridin-15-one, 11,12,13,14-tetradehydro-", "Sophoramine", "(7aS,13bS,13cS)-2,3,6,7,7a,8,13b,13c-Octahydro-1H,5H,10H-dipyrido[2,1-f:3\u2032,2\u2032,1\u2032-ij][1,6]naphthyridin-10-one", "(-)-Sophoramine", "1H,5H,10H-Dipyrido[2,1-f:3\u2032,2\u2032,1\u2032-ij][1,6]naphthyridin-10-one, 2,3,6,7,7a,8,13b,13c-octahydro-, [7aS-(7a\u03b1,13b\u03b1,13c\u03b1)]-"], "SMILES": "O=C1N2C(C3C4C(C2)CCCN4CCC3)=CC=C1", "physical_data": {"Molecular Weight": "244.33", "Molecular Formula": "C15H20N2O", "Melting Point": "164-165 \u00b0C"}}