{"cas_no": "68837-59-2", "cn_name": "4-\u6eb4-2-\u7532\u57fa\u82ef\u7532\u9178", "en_name": ["4-Bromo-2-methylbenzoic acid", "Benzoic acid, 4-bromo-2-methyl-", "o-Toluic acid, 4-bromo-", "4-Bromo-2-methylbenzoic acid", "4-Bromo-o-toluic acid", "2-Methyl-4-bromobenzoic acid", "NSC 243710"], "SMILES": "C(O)(=O)C1=C(C)C=C(Br)C=C1", "physical_data": {"Molecular Weight": "215.04", "Molecular Formula": "C8H7BrO2", "Melting Point": "181-182 \u00b0C"}}