{"cas_no": "68844-77-9", "cn_name": "\u963f\u53f8\u54aa\u5511", "en_name": ["Astemizole", "1H-Benzimidazol-2-amine, 1-[(4-fluorophenyl)methyl]-N-[1-[2-(4-methoxyphenyl)ethyl]-4-piperidinyl]-", "1-[(4-Fluorophenyl)methyl]-N-[1-[2-(4-methoxyphenyl)ethyl]-4-piperidinyl]-1H-benzimidazol-2-amine", "Astemizole", "Hismanal", "Novo-Nastizol A", "Retolen", "Astemisan", "Histamen", "Histaminos", "Laridal", "Kelp", "Paralergin", "Histazol", "Metodik", "R 43512", "Waruzol", "NSC 329963", "Stemiz", "1-(4-Fluorobenzyl)-2-(1-(4-methoxyphenethyl)piperidin-4-yl)aminobenzimidazole", "MeSH ID: D016589"], "SMILES": "C(N1C=2C(N=C1NC3CCN(CCC4=CC=C(OC)C=C4)CC3)=CC=CC2)C5=CC=C(F)C=C5", "physical_data": {"Molecular Weight": "458.57", "Molecular Formula": "C28H31FN4O", "Melting Point": "149.1 \u00b0C"}}