{"cas_no": "68858-20-8", "cn_name": "Fmoc-L-\u7f2c\u6c28\u9178", "en_name": ["FMOC-L-valine", "L-Valine, N-[(9H-fluoren-9-ylmethoxy)carbonyl]-", "N-[(9H-Fluoren-9-ylmethoxy)carbonyl]-L-valine", "N-(9-Fluorenylmethoxycarbonyl)-L-valine", "N-(9-Fluorenylmethoxycarbonyl)valine", "(9-Fluorenylmethoxycarbonyl)valine", "FMOC-L-valine", "(S)-N-Fmoc-valine", "Fmoc-valine", "NSC 334304", "125: PN: WO2004099237 PAGE: 36 claimed protein", "912: PN: WO2006135786 PAGE: 59 claimed protein", "221: PN: US20070042401 PAGE: 29 claimed protein", "(S)-2-(9H-Fluoren-9-ylmethoxycarbonylamino)-3-methylbutanoic acid", "(2S)-2-[[[(9H-Fluoren-9-yl)methoxy]carbonyl]amino]-3-methylbutanoic acid", "Fmoc-L-Val-OH"], "SMILES": "C(OC(NC(C(C)C)C(O)=O)=O)C1C=2C(C=3C1=CC=CC3)=CC=CC2", "physical_data": {"Molecular Weight": "339.39", "Molecular Formula": "C20H21NO4", "Melting Point": "144-145 \u00b0C (decomp)"}}