{"cas_no": "6885-57-0", "cn_name": "\u9ec4\u66f2\u9709\u7d20M2", "en_name": ["Aflatoxin M2", "Cyclopenta[c]furo[3\u2032,2\u2032:4,5]furo[2,3-h][1]benzopyran-1,11-dione, 2,3,6a,8,9,9a-hexahydro-9a-hydroxy-4-methoxy-", "Aflatoxin M2", "2,3,6a,8,9,9a-Hexahydro-9a-hydroxy-4-methoxycyclopenta[c]furo[3\u2032,2\u2032:4,5]furo[2,3-h][1]benzopyran-1,11-dione"], "SMILES": "OC12C=3C4=C(C5=C(C(=O)O4)C(=O)CC5)C(OC)=CC3OC1OCC2", "physical_data": {"Molecular Weight": "330.29", "Molecular Formula": "C17H14O7", "Melting Point": "293 \u00b0C"}}