{"cas_no": "68892-07-9", "cn_name": "1-\u7532\u57fa-2-\u786b\u57fa-1H-\u54aa\u5511-5-\u7fa7\u9178\u7532\u916f", "en_name": ["Methyl 2,3-dihydro-3-methyl-2-thioxo-1H-imidazole-4-carboxylate", "1H-Imidazole-4-carboxylic acid, 2,3-dihydro-3-methyl-2-thioxo-, methyl ester", "Imidazole-5-carboxylic acid, 2-mercapto-1-methyl-, methyl ester", "Methyl 2,3-dihydro-3-methyl-2-thioxo-1H-imidazole-4-carboxylate", "NSC 313360", "1-Methyl-2-sulfanylimidazole-5-carboxylic acid methyl ester"], "SMILES": "C(OC)(=O)C=1N(C)C(=S)NC1", "physical_data": {"Molecular Weight": "172.20", "Molecular Formula": "C6H8N2O2S", "Melting Point": "193-194 \u00b0C"}}