{"cas_no": "689-89-4", "cn_name": "\u5c71\u68a8\u9178\u7532\u916f", "en_name": ["Methyl sorbate", "2,4-Hexadienoic acid, methyl ester, (2E,4E)-", "Sorbic acid, methyl ester, (E,E)-", "2,4-Hexadienoic acid, methyl ester, (E,E)-", "Sorbic acid, methyl ester", "Methyl trans,trans-sorbate", "2-trans-4-trans-Methyl sorbate", "Methyl (E,E)-sorbate", "Methyl sorbate", "Methyl (2E,4E)-hexadienoate", "Methyl (E,E)-2,4-hexadienoate", "(E,E)-2,4-Hexadienoic acid methyl ester", "(2E,4E)-Hexa-2,4-dienoic acid methyl ester", "Methyl (2E,4E)-2,4-hexadienoate"], "SMILES": "C(C=CC=CC)(OC)=O", "physical_data": {"Molecular Weight": "126.15", "Molecular Formula": "C7H10O2", "Boiling Point": "180 \u00b0C", "Melting Point": "15 \u00b0C", "Density": "0.9605 g/cm\u00b3 @ Temp: 25 \u00b0C"}}