{"cas_no": "689-12-3", "cn_name": "\u4e19\u70ef\u9178\u5f02\u4e19\u916f", "en_name": ["Isopropyl acrylate", "2-Propenoic acid, 1-methylethyl ester", "Acrylic acid, isopropyl ester", "Isopropyl acrylate", "Isopropyl 2-propenoate", "NSC 32619"], "SMILES": "C(OC(C)C)(C=C)=O", "physical_data": {"Molecular Weight": "114.14", "Molecular Formula": "C6H10O2", "Boiling Point": "108-112 \u00b0C", "Density": "0.8935 g/cm\u00b3 @ Temp: 22 \u00b0C"}}