{"cas_no": "689-97-4", "cn_name": "\u4e59\u70ef\u57fa\u4e59\u7094", "en_name": ["1-Buten-3-yne", "1-Buten-3-yne", "Vinylacetylene", "Ethene, ethynyl-", "Monovinylacetylene", "1-Butyn-3-ene", "3-Buten-1-yne", "Butenyne", "1-Butenyne", "3-Butyn-1-ene", "Vinylethyne"], "SMILES": "C(C#C)=C", "physical_data": {"Molecular Weight": "52.07", "Molecular Formula": "C4H4", "Boiling Point": "5.1 \u00b0C @ Press: 760 Torr", "Density": "0.7095 g/cm\u00b3 @ Temp: 0 \u00b0C"}}