{"cas_no": "689-31-6", "cn_name": "3-\u6c27\u4ee3\u5df1\u4e8c\u9178", "en_name": ["\u03b2-Ketoadipic acid", "Hexanedioic acid, 3-oxo-", "3-Oxohexanedioic acid", "\u03b2-Ketoadipic acid", "\u03b2-Oxoadipic acid", "3-Oxoadipic acid", "3-Ketoadipic acid", "NSC 18511"], "SMILES": "C(CCC(O)=O)(CC(O)=O)=O", "physical_data": {"Molecular Weight": "160.12", "Molecular Formula": "C6H8O5", "Melting Point": "124-125 \u00b0C"}}