{"cas_no": "689-11-2", "cn_name": "N-(1-\u7532\u57fa\u4e19\u57fa)\u8132", "en_name": ["sec-Butylurea", "Urea, N-(1-methylpropyl)-", "Urea, sec-butyl-", "Urea, (1-methylpropyl)-", "N-(1-Methylpropyl)urea", "sec-Butylurea", "N-sec-Butylurea", "NSC 27458", "(Butan-2-yl)urea"], "SMILES": "C(NC(N)=O)(CC)C", "physical_data": {"Molecular Weight": "116.16", "Molecular Formula": "C5H12N2O", "Melting Point": "165-166 \u00b0C"}}