{"cas_no": "689-67-8", "cn_name": "6,10-\u4e8c\u7532\u57fa-5,9-\u5341\u4e00\u53cc\u70ef-2-\u916e", "en_name": ["6,10-Dimethyl-5,9-undecadien-2-one", "5,9-Undecadien-2-one, 6,10-dimethyl-", "5,9-Hendecadien-2-one, 6,10-dimethyl-", "6,10-Dimethyl-5,9-undecadien-2-one", "2,6-Dimethylundeca-2,6-dien-10-one", "Dihydropseudoionone", "6,10-Dimethyl-5,9-undecadiene-2-one", "NSC 406679", "6,10-Dimethyl-5,9-undec-2-one"], "SMILES": "C(CCC=C(C)C)(=CCCC(C)=O)C", "physical_data": {"Molecular Weight": "194.31", "Molecular Formula": "C13H22O", "Boiling Point": "141-143 \u00b0C @ Press: 13 Torr", "Density": "0.871 g/cm\u00b3 @ Temp: 23 \u00b0C"}}