{"cas_no": "6892-68-8", "cn_name": "\u4e8c\u786b\u4ee3\u8d64\u85d3\u9187", "en_name": ["Dithioerythritol", "2,3-Butanediol, 1,4-dimercapto-, (2R,3S)-rel-", "Erythritol, 1,4-dithio-", "2,3-Butanediol, 1,4-dimercapto-, (R*,S*)-", "rel-(2R,3S)-1,4-Dimercapto-2,3-butanediol", "1,4-Dithioerythritol", "Dithioerythritol", "DTE", "erythro-1,4,-Dimercapto-2,3-butanediol", "Dithioerythreitol", "MeSH ID: D004226"], "SMILES": "C(C(CS)O)(CS)O", "physical_data": {"Molecular Weight": "154.25", "Molecular Formula": "C4H10O2S2", "Melting Point": "83 \u00b0C"}}