{"cas_no": "68922-18-9", "cn_name": "2-(2-\u5421\u5576\u57fa)\u4e59\u78fa\u9178", "en_name": ["2-Pyridineethanesulfonic acid", "2-Pyridineethanesulfonic acid", "2-Pyridylethanesulfonic acid", "NSC 87861", "2-Pyridin-2-ylethanesulfonic acid", "2-(2-Pyridyl)ethanesulfonic acid"], "SMILES": "C(CS(=O)(=O)O)C1=CC=CC=N1", "physical_data": {"Molecular Weight": "187.22", "Molecular Formula": "C7H9NO3S", "Melting Point": "265-266.5 \u00b0C"}}