{"cas_no": "68931-30-6", "cn_name": "\u9999\u53f6\u57fa\u9187", "en_name": ["3,7,11,15-Tetramethyl-1,6,10,14-hexadecatetraen-3-ol", "1,6,10,14-Hexadecatetraen-3-ol, 3,7,11,15-tetramethyl-", "3,7,11,15-Tetramethyl-1,6,10,14-hexadecatetraen-3-ol", "3,7,11,15-Tetramethyl-3-hydroxy-1,6,10,14-hexadecatetraene", "3,7,11,15-Tetramethyl-1,6,10,14-cetene-3-ol"], "SMILES": "C(CC(C=C)(C)O)C=C(CCC=C(CCC=C(C)C)C)C", "physical_data": {"Molecular Weight": "290.48", "Molecular Formula": "C20H34O", "Boiling Point": "115-116 \u00b0C @ Press: 0.3 Torr", "Density": "0.8744 g/cm\u00b3 @ Temp: 20 \u00b0C"}}