{"cas_no": "6893-26-1", "cn_name": "D-\u8c37\u6c28\u9178", "en_name": ["(-)-Glutamic acid", "D-Glutamic acid", "Glutamic acid, D-", "(R)-(-)-Glutamic acid", "(R)-Glutamic acid", "(2R)-2-Aminopentanedioic acid", "(-)-Glutamic acid", "D-(-)-Glutamic acid", "(2R)-Glutamic acid", "NSC 77686", "(2R)-2-Aminopentanedioic acid"], "SMILES": "C(CCC(O)=O)(C(O)=O)N", "physical_data": {"Molecular Weight": "147.13", "Molecular Formula": "C5H9NO4", "Melting Point": "201 \u00b0C"}}