{"cas_no": "6893-02-3", "cn_name": "\u4e09\u7898\u7532\u72b6\u817a\u539f\u6c28\u9178", "en_name": ["Triiodothyronine", "L-Tyrosine, O-(4-hydroxy-3-iodophenyl)-3,5-diiodo-", "Alanine, 3-[4-(4-hydroxy-3-iodophenoxy)-3,5-diiodophenyl]-, L-", "Thyronine, 3,3\u2032,5-triiodo-, L-", "O-(4-Hydroxy-3-iodophenyl)-3,5-diiodo-L-tyrosine", "T3 (amino acid)", "Liothyronine", "Tresitope", "L-3,3\u2032,5-Triiodothyronine", "Triiodothyronine", "3,5,3\u2032-Triiodothyronine", "Triiodo-L-thyronine", "3,3\u2032,5-Triiodothyronine", "3,3\u2032,5-Triiodo-L-thyronine", "L-Liothyronine", "Liothyronin", "L-T3", "L-Triiodothyronine", "T3", "T3 (Hormone)", "4-(4-Hydroxy-3-iodophenoxy)-3,5-diiodophenylalanine", "NSC 80203", "Cyronine", "(2S)-2-Azaniumyl-3-[4-(4-hydroxy-3-iodophenoxy)-3,5-diiodophenyl]propanoate", "(S)-2-Amino-3-(4-(4-hydroxy-3-iodophenoxy)-3,5-diiodophenyl)propanoicacid"], "SMILES": "O(C1=C(I)C=C(CC(C(O)=O)N)C=C1I)C2=CC(I)=C(O)C=C2", "physical_data": {"Molecular Weight": "650.97", "Molecular Formula": "C15H12I3NO4", "Melting Point": "236.5 \u00b0C (decomp)"}}