{"cas_no": "6894-43-5", "cn_name": "\u5496\u5561\u8c46\u9187", "en_name": ["Kahweol", "5a,8-Methano-5aH-cyclohepta[5,6]naphtho[2,1-b]furan-7-methanol, 3b,4,5,6,7,8,9,10,10a,10b-decahydro-7-hydroxy-10b-methyl-, (3bS,5aS,7R,8R,10aR,10bS)-", "5a,8-Methano-5aH-cyclohepta[5,6]naphtho[2,1-b]furan-7-methanol, 3b\u03b1,4,5,6,7,8\u03b1,9,10,10a,10b-decahydro-7-hydroxy-10b\u03b2-methyl-", "5a,8-Methano-5aH-cyclohepta[5,6]naphtho[2,1-b]furan-7-methanol, 3b,4,5,6,7,8,9,10,10a,10b-decahydro-7-hydroxy-10b-methyl-, [3bS-(3b\u03b1,5a\u03b2,7\u03b2,8\u03b2,10a\u03b1,10b\u03b2)]-", "Kahweol", "(3bS,5aS,7R,8R,10aR,10bS)-3b,4,5,6,7,8,9,10,10a,10b-Decahydro-7-hydroxy-10b-methyl-5a,8-methano-5aH-cyclohepta[5,6]naphtho[2,1-b]furan-7-methanol"], "SMILES": "CC12C3C4(CC(C(CO)(O)C4)CC3)CCC1C5=C(C=C2)OC=C5", "physical_data": {"Molecular Weight": "314.42", "Molecular Formula": "C20H26O3", "Melting Point": "88-90 \u00b0C"}}