{"cas_no": "6894-38-8", "cn_name": "(+-)-\u8309\u8389\u9178", "en_name": ["Jasmonic acid", "Cyclopentaneacetic acid, 3-oxo-2-(2Z)-2-penten-1-yl-, (1R,2R)-", "Cyclopentaneacetic acid, 3-oxo-2-(2-pentenyl)-, (Z)-trans-", "Cyclopentaneacetic acid, 3-oxo-2-(2-pentenyl)-, [1R-[1\u03b1,2\u03b2(Z)]]-", "Cyclopentaneacetic acid, 3-oxo-2-(2Z)-2-pentenyl-, (1R,2R)-", "(1R,2R)-3-Oxo-2-(2Z)-2-penten-1-ylcyclopentaneacetic acid", "Jasmonic acid", "(-)-Jasmonic acid", "(3R,7R)(-)-Jasmonic acid", "(1R,2R)-Jasmonic acid"], "SMILES": "C(C(O)=O)C1C(CC=CCC)C(=O)CC1", "physical_data": {"Molecular Weight": "210.27", "Molecular Formula": "C12H18O3", "Boiling Point": "160 \u00b0C @ Press: 0.7 Torr"}}