{"cas_no": "68957-50-6", "cn_name": "2-\u6c28\u57fa-3-\u785d\u57fa-5-\u6eb4-6-\u7532\u57fa\u5421\u5576", "en_name": ["5-Bromo-6-methyl-3-nitro-2-pyridinamine", "2-Pyridinamine, 5-bromo-6-methyl-3-nitro-", "2-Picoline, 6-amino-3-bromo-5-nitro-", "5-Bromo-6-methyl-3-nitro-2-pyridinamine", "3-Bromo-5-nitro-6-amino-2-picoline", "2-Amino-5-bromo-6-methyl-3-nitropyridine", "5-Bromo-6-methyl-3-nitropyridin-2-amine"], "SMILES": "N(=O)(=O)C1=C(N)N=C(C)C(Br)=C1", "physical_data": {"Molecular Weight": "232.03", "Molecular Formula": "C6H6BrN3O2", "Melting Point": "211-213 \u00b0C"}}