{"cas_no": "68971-82-4", "cn_name": "\u5bf9\u53d4\u4e01\u57fa8\u676f\u82b3\u70c3", "en_name": ["tert-Butylcalix[8]arene", "Nonacyclo[43.3.1.13,7.19,13.115,19.121,25.127,31.133,37.139,43]hexapentaconta-1(49),3,5,7(56),9,11,13(55),15,17,19(54),21,23,25(53),27,29,31(52),33,35,37(51),39,41,43(50),45,47-tetracosaene-49,50,51,52,53,54,55,56-octol, 5,11,17,23,29,35,41,47-octakis(1,1-dimethylethyl)-", "5,11,17,23,29,35,41,47-Octakis(1,1-dimethylethyl)nonacyclo[43.3.1.13,7.19,13.115,19.121,25.127,31.133,37.139,43]hexapentaconta-1(49),3,5,7(56),9,11,13(55),15,17,19(54),21,23,25(53),27,29,31(52),33,35,37(51),39,41,43(50),45,47-tetracosaene-49,50,51,52,53,54,55,56-octol", "p-tert-Butylcalix[8]arene", "4-(1,1-Dimethylethyl)calix[8]arene", "4-tert-Butylcalix[8]arene", "5,11,17,23,29,35,41,47-Octa-tert-butylcalix[8]arene-49,50,51,52,53,54,55,56-octol", "p-tert-Butylhydroxycalix[8]arene", "tert-Butylcalix[8]arene", "NSC 344028", "Bontron E 89", "E 89", "CALX-B 8"], "SMILES": "OC=1C=2CC=3C(O)=C(CC=4C(O)=C(CC=5C(O)=C(CC=6C(O)=C(CC7=C(O)C(CC8=C(O)C(CC9=C(O)C(CC1C=C(C(C)(C)C)C2)=CC(C(C)(C)C)=C9)=CC(C(C)(C)C)=C8)=CC(C(C)(C)C)=C7)C=C(C(C)(C)C)C6)C=C(C(C)(C)C)C5)C=C(C(C)(C)C)C4)C=C(C(C)(C)C)C3", "physical_data": {"Molecular Weight": "1297.83", "Molecular Formula": "C88H112O8", "Melting Point": "418 \u00b0C (decomp)"}}