{"cas_no": "6899-03-2", "cn_name": "\u5929\u51ac\u6c28\u9178", "en_name": ["L-Aspartic acid", "L-Aspartic acid", "Aspartic acid, L-", "L-Aminosuccinic acid", "Asparagic acid", "Asparaginic acid", "Butanedioic acid, amino-, (S)-", "Aspartic acid", "L-Asparaginic acid", "(S)-Aspartic acid", "L-Asparagic acid", "L-(+)-Aspartic acid", "(S)-Aminobutanedioic acid", "(+)-Aspartic acid", "H-Asp-OH", "NSC 3973", "NSC 79553", "(S)-2-Aminobutanedioic acid", "(+)-L-Aspartic acid", "387: PN: WO2022056313 SEQID: 393 claimed protein", "12: PN: WO2023056433 PAGE: 60 claimed sequence", "MeSH ID: D001224"], "SMILES": "C(CC(O)=O)(C(O)=O)N", "physical_data": {"Molecular Weight": "133.10", "Molecular Formula": "C4H7NO4", "Melting Point": "270-271 \u00b0C", "Density": "1.661 g/cm\u00b3 @ Temp: 12.5 \u00b0C"}}