{"cas_no": "69-05-6", "cn_name": "\u4e8c\u76d0\u9178\u594e\u5416\u56e0\u6c34\u5408\u7269", "en_name": ["Quinacrine dihydrochloride", "1,4-Pentanediamine, N4-(6-chloro-2-methoxy-9-acridinyl)-N1,N1-diethyl-, hydrochloride (1:2)", "Acridine, 6-chloro-9-[[4-(diethylamino)-1-methylbutyl]amino]-2-methoxy-, dihydrochloride", "1,4-Pentanediamine, N4-(6-chloro-2-methoxy-9-acridinyl)-N1,N1-diethyl-, dihydrochloride", "SN 390", "866RP", "Atabrine hydrochloride", "Chemiochin", "Chinacrin hydrochloride", "3-Chloro-9-(4\u2032-diethylamino-1\u2032-methylbutylamino)-7-methoxyacridine dihydrochloride", "6-Chloro-9-[[4-(diethylamino)-1-methylbutyl]amino]-2-methoxyacridine dihydrochloride", "2-Chloro-5-(\u03c9-diethylamino-\u03b1-methylbutylamino)-7-methoxyacridine dihydrochloride", "3-Chloro-7-methoxy-9-(1-methyl-4-diethylaminobutylamino)acridine dihydrochloride", "Crinodora", "Malaricida", "Mecryl", "Mepacrine dihydrochloride", "Mepacrine hydrochloride", "Methoquine", "2-Methoxy-6-chloro-9-(4-diethylamino-1-methylbutylamino)acridine dihydrochloride", "Metochin", "Metoquin", "Metoquine", "Palacrin", "Palusan", "Pentilen", "Quinacrine dihydrochloride", "Quinacrine hydrochloride", "Erion", "Atebrin", "Atebrine", "Atebrine hydrochloride", "Acrichin dihydrochloride", "NSC 14229"], "SMILES": "N(C(CCCN(CC)CC)C)C=1C2=C(N=C3C1C=CC(Cl)=C3)C=CC(OC)=C2.Cl", "physical_data": {"Molecular Weight": "", "Molecular Formula": "C23H30ClN3O.2ClH", "Melting Point": "246-248 \u00b0C"}}