{"cas_no": "69-09-0", "cn_name": "\u76d0\u9178\u6c2f\u4e19\u55ea", "en_name": ["Chlorpromazine hydrochloride", "10H-Phenothiazine-10-propanamine, 2-chloro-N,N-dimethyl-, hydrochloride (1:1)", "Phenothiazine, 2-chloro-10-[3-(dimethylamino)propyl]-, monohydrochloride", "10H-Phenothiazine-10-propanamine, 2-chloro-N,N-dimethyl-, monohydrochloride", "2-Chloro-10-(3-dimethylaminopropyl)phenothiazine monohydrochloride", "Chloropromazine monohydrochloride", "Chlorpromazine monohydrochloride", "Chlorpromazinium chloride", "CPZ", "10-(3-Dimethylaminopropyl)-2-chlorophenothiazine monohydrochloride", "Largactil monohydrochloride", "Thorazine hydrochloride", "Chlorpromazine hydrochloride", "Chloropromazine hydrochloride", "Plegomazin", "Neurazine", "Aminazin monohydrochloride", "Ampliactil monohydrochloride", "Norcozine", "Propaphen", "Propaphenin hydrochloride", "Klorpromex", "Hebanil", "Klorproman", "Aminazin hydrochloride", "Hibernal", "Megatil", "Chlorazin", "Taroctyl", "Chloractil", "Sonazine", "Largaktyl", "Promacid", "Hibanil", "Marazine", "Tranzene", "Promapar", "Torazina", "Largactil", "Contomin", "3-(2-Chloro-10H-phenothiazin-10-yl)-N,N-dimethylpropan-1-amine hydrochloride", "[3-(2-Chloro-10H-phenothiazin-10-yl)propyl]dimethylamine hydrochloride", "2-Chloro-10-(3-dimethylaminopropyl)-phenothiazine hydrochloride"], "SMILES": "C(CCN(C)C)N1C=2C(SC=3C1=CC=CC3)=CC=C(Cl)C2.Cl", "physical_data": {"Molecular Weight": "", "Molecular Formula": "C17H19ClN2S.ClH", "Melting Point": "180 \u00b0C"}}