{"cas_no": "69-23-8", "cn_name": "\u6c1f\u594b\u4e43\u9759", "en_name": ["Fluphenazine", "1-Piperazineethanol, 4-[3-[2-(trifluoromethyl)-10H-phenothiazin-10-yl]propyl]-", "1-Piperazineethanol, 4-[3-[2-(trifluoromethyl)phenothiazin-10-yl]propyl]-", "4-[3-[2-(Trifluoromethyl)-10H-phenothiazin-10-yl]propyl]-1-piperazineethanol", "Fluphenazine", "10-[3-(2-Hydroxyethyl)piperazinopropyl]-2-(trifluoromethyl)phenothiazine", "Pacinol", "Triflumethazine", "4-[3-(2-Trifluoromethyl-10-phenothiazyl)-propyl]-1-piperazineethanol", "Fluorfenazine", "Vespazine", "4-[3-[2-(Trifluoromethyl)phenothiazin-10-yl]propyl]-1-piperazine ethanol", "1-(2-Hydroxyethyl)-4-[3-(trifluoromethyl-10-phenothiazinyl)propyl]piperazine", "S 94", "SQ 4918", "Elinol", "Siqualine", "Siqualon", "Fluorophenazine", "Fluorphenazine", "Ftorphenazine", "Phthorphenazine", "2-[4-[3-[2-(Trifluoromethyl)phenothiazin-10-yl]propyl]piperazin-1-yl]ethanol", "2-(4-(3-(2-(Trifluoromethyl)-10H-phenothiazin-10-yl)propyl)piperazin-1-yl)ethanol", "2-[4-[3-(2-Trifluoromethyl-phenothiazin-10-yl)-propyl]-piperazin-1-yl]-ethanol", "MeSH ID: D005476"], "SMILES": "C(CCN1CCN(CCO)CC1)N2C=3C(SC=4C2=CC=CC4)=CC=C(C(F)(F)F)C3", "physical_data": {"Molecular Weight": "437.52", "Molecular Formula": "C22H26F3N3OS", "Boiling Point": "268-274 \u00b0C @ Press: 0.5 Torr", "Melting Point": "&lt;25 \u00b0C"}}