{"cas_no": "69-33-0", "cn_name": "\u6740\u7ed3\u6838\u83cc\u7d20", "en_name": ["Tubercidin", "7H-Pyrrolo[2,3-d]pyrimidin-4-amine, 7-\u03b2-D-ribofuranosyl-", "Tubercidin", "7H-Pyrrolo[2,3-d]pyrimidine, 4-amino-7-\u03b2-D-ribofuranosyl-", "7-\u03b2-D-Ribofuranosyl-7H-pyrrolo[2,3-d]pyrimidin-4-amine", "Adenosine, 7-deaza-", "7-Deazaadenosine", "Sparsomycin A", "Tubercidine", "U 10071", "6-Amino-9-D-ribofuranosyl-7-desazapurine", "NSC 56408", "4-Amino-7-(\u03b2-D-ribofuranosyl)pyrrolo[2,3-d]pyrimidine", "Antibiotic XK 101-1", "N7-Deazaadenosine", "Sparsamycin A", "NQZ-003", "MeSH ID: D014372"], "SMILES": "OC1C(N2C=3C(C=C2)=C(N)N=CN3)OC(CO)C1O", "physical_data": {"Molecular Weight": "266.25", "Molecular Formula": "C11H14N4O4", "Melting Point": "247-248 \u00b0C (decomp)"}}