{"cas_no": "69-57-8", "cn_name": "\u9752\u9709\u7d20\u94a0", "en_name": ["Penicillin G sodium", "4-Thia-1-azabicyclo[3.2.0]heptane-2-carboxylic acid, 3,3-dimethyl-7-oxo-6-[(2-phenylacetyl)amino]- (2S,5R,6R)-, sodium salt (1:1)", "4-Thia-1-azabicyclo[3.2.0]heptane-2-carboxylic acid, 3,3-dimethyl-7-oxo-6-(2-phenylacetamido)-, monosodium salt", "4-Thia-1-azabicyclo[3.2.0]heptane-2-carboxylic acid, 3,3-dimethyl-7-oxo-6-[(phenylacetyl)amino]-[2S-(2\u03b1,5\u03b1,6\u03b2)]-, monosodium salt", "4-Thia-1-azabicyclo[3.2.0]heptane-2-carboxylic acid, 3,3-dimethyl-7-oxo-6-[(phenylacetyl)amino]- (2S,5R,6R)-, monosodium salt", "Benzylpenicillinic acid sodium salt", "Benzylpenicillin sodium", "Benzylpenicillin sodium salt", "Novocillin", "Penicillin G sodium", "Penilaryn", "Sodium benzylpenicillin", "Sodium benzylpenicillinate", "Sodium penicillin G", "Sodium penicillin II", "Veticillin", "Penicillin G sodium salt", "Sodium benzylpenicillin G", "Pen-A-Brasive", "Sodium penicillin", "Sodium 6-(phenylacetamido)penicillanate", "Mycofarm", "Crystapen", "Monosodium benzylpenicillin", "Monocillin", "American penicillin", "Nalpen G", "Nobak", "Ethacillin"], "SMILES": "C(O)(=O)C1N2C(C(NC(CC3=CC=CC=C3)=O)C2=O)SC1(C)C.[Na]", "physical_data": {"Molecular Weight": "", "Molecular Formula": "C16H18N2O4S.Na", "Melting Point": "222 \u00b0C (decomp)"}}