{"cas_no": "69-53-4", "cn_name": "\u6c28\u82c4\u897f\u6797", "en_name": ["Ampicillin", "4-Thia-1-azabicyclo[3.2.0]heptane-2-carboxylic acid, 6-[[(2R)-2-amino-2-phenylacetyl]amino]-3,3-dimethyl-7-oxo-, (2S,5R,6R)-", "4-Thia-1-azabicyclo[3.2.0]heptane-2-carboxylic acid, 6-(2-amino-2-phenylacetamido)-3,3-dimethyl-7-oxo-, D-(-)-", "4-Thia-1-azabicyclo[3.2.0]heptane-2-carboxylic acid, 6-[(aminophenylacetyl)amino]-3,3-dimethyl-7-oxo-, [2S-[2\u03b1,5\u03b1,6\u03b2(S*)]]-", "4-Thia-1-azabicyclo[3.2.0]heptane-2-carboxylic acid, 6-(D-2-amino-2-phenylacetamido)-3,3-dimethyl-7-oxo-", "4-Thia-1-azabicyclo[3.2.0]heptane-2-carboxylic acid, 6-[[(2R)-aminophenylacetyl]amino]-3,3-dimethyl-7-oxo-, (2S,5R,6R)-", "(2S,5R,6R)-6-[[(2R)-2-Amino-2-phenylacetyl]amino]-3,3-dimethyl-7-oxo-4-thia-1-azabicyclo[3.2.0]heptane-2-carboxylic acid", "(-)-6-(2-Amino-2-phenylacetamido)-3,3-dimethyl-7-oxo-4-thia-1-azabicyclo[3.2.0]heptane-2-carboxylic acid", "6-[D-(-)-\u03b1-Aminophenylacetamido]penicillanic acid", "Ampicillin", "Binotal", "Penbritin", "Viccillin", "Penicline", "Aminobenzylpenicillin", "Omnipen", "D-(-)-\u03b1-Aminobenzylpenicillin", "D-(-)-\u03b1-Aminopenicillin", "Penbritin paediatric", "Penbritin syrup", "Ampicillin acid", "Penicillin, (aminophenylmethyl)-", "Ampicillin A", "Amblosin", "Amplital", "Austrapen", "Britacil", "BRL 1341", "Doktacillin", "Penbristol", "Totapen", "Amfipen", "Nuvapen", "Ultrabron", "Amplisom", "Ampimed", "Guicitrina", "D-Ampicillin", "D-(-)-Ampicillin", "6-[D-(-)-2-Amino-2-phenylacetamido]penicillanic acid", "Ampicillin anhydrate", "Wy 5103", "Penbrock", "AY 6108", "Semicillin", "Viccillin S", "Tolomol", "D-(-)-6-(\u03b1-Aminophenylacetamido)penicillanic acid", "Ampivet", "Amotital", "Roscillin", "Synpenin", "Olin Kid", "Ampisyn", "Alpen", "P 50", "Bonapicillin", "Grampenil", "Copharcilin", "Ultrabion", "Ampipenin", "Totalciclina", "Pentrexyl", "Totacillin", "Ampi-Bol", "QIDamp", "Tokiocillin", "Marisilan", "Amipenix S", "Ponecil", "Adobacillin", "Campicillin", "Ficillin", "Redicilin", "Ampi-kel", "Polyflex", "Polyflex (antibiotic)", "Ampicilina", "Bacipen", "Amipenix", "Dumopen", "Albipen", "Ampitab", "Domicillin", "NSC 528986", "A-Pen", "Omnipe", "Amcillin", "Reichlin", "Cincillin", "Gobemicina", "Britapen", "Hiperbiotico", "Unacim", "MeSH ID: D000667"], "SMILES": "C(O)(=O)C1N2C(C(NC(C(N)C3=CC=CC=C3)=O)C2=O)SC1(C)C", "physical_data": {"Molecular Weight": "349.40", "Molecular Formula": "C16H19N3O4S", "Melting Point": "202 \u00b0C (decomp)"}}