{"cas_no": "69-65-8", "cn_name": "D-\u7518\u9732\u7cd6\u9187", "en_name": ["Mannitol", "D-Mannitol", "Mannitol, D-", "Cordycepic acid", "Mannite", "Osmitrol", "Mannitol", "D-(-)-Mannitol", "Manna sugar", "Mannidex", "Diosmol", "Osmosal", "Mannit", "Isotol", "Mannigen", "Mannistol", "Maniton S", "Mannitolum", "Mannogem 2080", "Marine Crystal", "Manicol", "Resectisol", "Mannit P", "E 421", "Mannogem EZ", "Cerestar 16700", "Pearlitol 100SD", "Mannit 60", "D-Mannit", "Pearlitol 200SD", "Parteck M 200", "Mannit S", "Pearlitol 50C", "Pearlitol SD 100", "Mannidex 16700", "Parteck M 100", "Perlitol SD 200", "Nonpareil 108(200)", "Partek M", "Pearlitol", "Nonpareil 108", "Pearlitol 160C", "Pearlitol 25C", "Parteck M 300", "Perteck M", "Parteck Delta M", "Mannitol P 60", "Mannitol 35", "Mannitol 60", "Brightmoon", "Orocell 200", "Parteck 300", "Bronchitol", "Pearlitol 2005D", "Pearlitol 100", "PharmMannidex", "PharmMannidex 16701", "Mannitol SD 200", "Granutol R", "M 100", "(2R,3R,4R,5R)-Hexane-1,2,3,4,5,6-hexaol", "Mannit Q", "Granutol S", "Granutol F", "Granitol S", "Mannitol 300DC", "Mannitol 25C"], "SMILES": "C(C(C(CO)O)O)(C(CO)O)O", "physical_data": {"Molecular Weight": "182.17", "Molecular Formula": "C6H14O6", "Boiling Point": "290-295 \u00b0C @ Press: 3.5 Torr", "Melting Point": "166-168 \u00b0C", "Density": "1.52 g/cm\u00b3 @ Temp: 20 \u00b0C"}}