{"cas_no": "69-78-3", "cn_name": "5,5'-\u4e8c\u786b\u53cc(2-\u785d\u57fa\u82ef\u7532\u9178)", "en_name": ["5,5\u2032-Dithiobis[2-nitrobenzoic acid]", "Benzoic acid, 3,3\u2032-dithiobis[6-nitro-", "3,3\u2032-Dithiobis[6-nitrobenzoic acid]", "5,5\u2032-Dithiobis[2-nitrobenzoic acid]", "DTNB", "Ba 2767", "Named reagents and solutions, Ellman's", "2,2\u2032-Dinitro-5,5\u2032-dithiodibenzoic acid", "Ellmans reagent", "Reagents, Ellman's", "3-Carboxy-4-nitrophenyl disulfide"], "SMILES": "C(O)(=O)C1=C(N(=O)=O)C=CC(SSC2=CC(C(O)=O)=C(N(=O)=O)C=C2)=C1", "physical_data": {"Molecular Weight": "396.35", "Molecular Formula": "C14H8N2O8S2", "Melting Point": "237-238 \u00b0C (decomp)"}}