{"cas_no": "69-79-4", "cn_name": "\u9ea6\u82bd\u7cd6", "en_name": ["Maltose", "D-Glucose, 4-O-\u03b1-D-glucopyranosyl-", "Maltose", "4-O-\u03b1-D-Glucopyranosyl-D-glucose", "Maltobiose", "Malt sugar", "D-Maltose", "Maltodiose", "D-(+)-Maltose", "Finetose", "Sunmalt", "Sunmalt S", "Advantose 100", "Finetose F", "Maltose HH", "Maltose HHH", "Flolys D 5780", "Maltose OM", "MP 21", "Sunmalt Midori", "Maxisal", "High Maltose 70n", "MR 70", "Maltose PH", "Hi-Maltose M 70-75C", "MeSH ID: D008320"], "SMILES": "O(C(C(C(C=O)O)O)C(CO)O)C1OC(CO)C(O)C(O)C1O", "physical_data": {"Molecular Weight": "342.30", "Molecular Formula": "C12H22O11", "Melting Point": "102-103 \u00b0C", "Density": "1.009 g/cm\u00b3 @ Temp: 25.00 \u00b0C"}}