{"cas_no": "69-74-9", "cn_name": "\u76d0\u9178\u963f\u7cd6\u80de\u82f7", "en_name": ["Cytarabine hydrochloride", "2(1H)-Pyrimidinone, 4-amino-1-\u03b2-D-arabinofuranosyl-, hydrochloride (1:1)", "Cytosine, 1-\u03b2-D-arabinofuranosyl-, monohydrochloride", "2(1H)-Pyrimidinone, 4-amino-1-\u03b2-D-arabinofuranosyl-, monohydrochloride", "U 19920A", "1-\u03b2-D-Arabinofuranosylcytosine hydrochloride", "Cytarabine hydrochloride", "Cytosine arabinoside hydrochloride", "Aracytidine hydrochloride", "1-\u03b2-D-Arabinofuranosylcytosine monohydrochloride", "Arabinofuranosylcytosine hydrochloride", "Arabinosylcytosine hydrochloride", "Spongocytidine-hydrochloride"], "SMILES": "OC1C(OC(CO)C1O)N2C(=O)N=C(N)C=C2.Cl", "physical_data": {"Molecular Weight": "", "Molecular Formula": "C9H13N3O5.ClH", "Melting Point": "186-188 \u00b0C"}}