{"cas_no": "69-72-7", "cn_name": "\u6c34\u6768\u9178", "en_name": ["Salicylic acid", "Benzoic acid, 2-hydroxy-", "Salicylic acid", "2-Hydroxybenzoic acid", "o-Hydroxybenzoic acid", "Retarder W", "Salicylic acid collodion", "Rutranex", "Salonil", "Psoriacid-S-Stift", "Phenol-2-carboxylic acid", "2-Hydroxybenzenecarboxylic acid", "2-Carboxyphenol", "o-Carboxyphenol", "Duoplant", "Salicylic Acid Soap", "337", "Advanced Pain Relief Callus Removers", "380", "Dr. Scholl's Callus Removers", "311", "51", "334", "Stri-Dex", "Compound W", "Freezone", "Clear away Wart Remover", "171", "Duofil Wart Remover", "Saligel", "Advanced Pain Relief Corn Removers", "Dr. Scholl's Wart Remover Kit", "Ionil Plus", "K 557", "Ionil", "K 537", "Dr. Scholl's Corn Removers", "NSC 180", "Trans-Ver-Sal", "Salvona Nanosal", "Verrugon", "salicylic acid", "MeSH ID: D020156"], "SMILES": "C(O)(=O)C1=C(O)C=CC=C1", "physical_data": {"Molecular Weight": "138.12", "Molecular Formula": "C7H6O3", "Boiling Point": "~211 \u00b0C (approx) @ Press: 20 Torr", "Melting Point": "157-159 \u00b0C", "Density": "1.443 g/cm\u00b3 @ Temp: 20 \u00b0C"}}