{"cas_no": "69-89-6", "cn_name": "2,6-\u4e8c\u7f9f\u57fa\u560c\u5464", "en_name": ["Xanthine", "1H-Purine-2,6-dione, 3,9-dihydro-", "1H-Purine-2,6-dione, 3,7-dihydro-", "Xanthine", "3,9-Dihydro-1H-purine-2,6-dione", "2,6-Dioxopurine", "Isoxanthine", "Purine-2,6(1H,3H)-dione", "Xanthic oxide", "9H-Purine-2,6(1H,3H)-dione", "Pseudoxanthine", "1H-Purine-2,6-diol", "2,6-Dioxo-1,2,3,6-tetrahydropurine", "Xanthin", "Xan", "1H,3H,7H-Xanthine", "3,9-Dihydropurine-2,6-dione", "NSC 14664", "1H,3H,9H-Xanthine", "1H-Purine-2,6(3H,7H)-dione", "2,3,6,9-Tetrahydro-1H-purine-2,6-dione", "2-Hydroxy-6,7-dihydro-1H-purin-6-one", "3,7-Dihydropurine-2,6-dione", "2-Hydroxy-6,9-dihydro-1H-purin-6-one", "MeSH ID: D019820"], "SMILES": "O=C1C2=C(NC(=O)N1)N=CN2", "physical_data": {"Molecular Weight": "152.11", "Molecular Formula": "C5H4N4O2", "Melting Point": "345 \u00b0C (decomp)"}}