{"cas_no": "69-81-8", "cn_name": "\u5361\u5df4\u514b\u7edc", "en_name": ["Carbazochrome", "Hydrazinecarboxamide, 2-(1,2,3,6-tetrahydro-3-hydroxy-1-methyl-6-oxo-5H-indol-5-ylidene)-", "Adrenochrome semicarbazone", "5,6-Indolinedione, 3-hydroxy-1-methyl-, 5-semicarbazone", "2-(1,2,3,6-Tetrahydro-3-hydroxy-1-methyl-6-oxo-5H-indol-5-ylidene)hydrazinecarboxamide", "Adrenoxyl", "Carbazochrome", "Adrenostazin", "Adrokson", "Adroxon", "Sangostazin", "3-Hydroxy-1-methyl-5,6-indolindione 5-semicarbazone", "Adchnon", "Cromadrenal", "Adedolon", "Adrezon", "Sangostasin", "Carbazochrom", "Cartabes", "Adrenochrome monosemicarbazone", "Cromosil", "NSC 73742", "2-(3-Hydroxy-1-methyl-6-oxo-2,3-dihydro-1H-indol-5(6H)-ylidene)hydrazinecarboxamide"], "SMILES": "OC1C=2C(=CC(=O)C(=NNC(N)=O)C2)N(C)C1", "physical_data": {"Molecular Weight": "236.23", "Molecular Formula": "C10H12N4O3", "Melting Point": "212-213 \u00b0C (decomp)"}}