{"cas_no": "69-96-5", "cn_name": "DL-\u0392-\u82ef\u57fa\u4e1d\u6c28\u9178", "en_name": ["DL-Phenylserine", "Phenylalanine, \u03b2-hydroxy-", "Serine, 3-phenyl-, DL-", "DL-Phenylalanine, \u03b2-hydroxy-", "\u03b2-Hydroxyphenylalanine", "DL-Phenylserine", "\u03b2-Phenyl-DL-serine", "DL-\u03b2-Phenylserine", "Phenylserine", "DL-3-Phenylserine", "\u03b2-Phenylserine", "3-Phenylserine", "2-Amino-3-hydroxy-3-phenylpropionic acid", "NSC 10123", "2-Azaniumyl-3-hydroxy-3-phenylpropanoate", "2-Amino-3-hydroxy-3-phenyl-propanoic acid"], "SMILES": "C(C(C(O)=O)N)(O)C1=CC=CC=C1", "physical_data": {"Molecular Weight": "181.19", "Molecular Formula": "C9H11NO3", "Melting Point": "192 \u00b0C (decomp)"}}