{"cas_no": "69-93-2", "cn_name": "\u5c3f\u9178", "en_name": ["Uric acid", "1H-Purine-2,6,8(3H)-trione, 7,9-dihydro-", "Uric acid", "7,9-Dihydro-1H-purine-2,6,8(3H)-trione", "Lithic acid", "Purine-2,6,8(1H,3H,9H)-trione", "2,6,8-Trioxypurine", "1H-Purine-2,6,8-triol", "2,6,8-Trioxopurine", "2,6,8-Trihydroxypurine", "NSC 3975", "2,3,6,7,8,9-Hexahydro-1H-purine-2,6,8-trione", "MeSH ID: D014527"], "SMILES": "O=C1C2=C(NC(=O)N2)NC(=O)N1", "physical_data": {"Molecular Weight": "168.11", "Molecular Formula": "C5H4N4O3", "Melting Point": "310 \u00b0C (decomp)", "Density": "1.003-1.010 g/cm\u00b3"}}