{"cas_no": "690-27-7", "cn_name": "1,1,3,3,3-\u4e94\u6c1f-1-\u4e19\u70ef", "en_name": ["1,1,3,3,3-Pentafluoropropene", "1-Propene, 1,1,3,3,3-pentafluoro-", "Propene, 1,1,3,3,3-pentafluoro-", "1,1,3,3,3-Pentafluoro-1-propene", "2-Hydropentafluoropropylene", "2H-Pentafluoropropene", "1,1,3,3,3-Pentafluoropropene", "HFC 1225zc", "1,1,1,3,3-Pentafluoropropene", "1,1,3,3,3-Pentafluoropropylene", "R 1225zc", "HFO 1225zc", "1,1,1,3,3-Pentafluoro-2-propene", "FC 1223ZC"], "SMILES": "C(C(F)(F)F)=C(F)F", "physical_data": {"Molecular Weight": "132.03", "Molecular Formula": "C3HF5", "Boiling Point": "-21 \u00b0C"}}