{"cas_no": "690-39-1", "cn_name": "1,1,1,3,3,3-\u516d\u6c1f\u4e19\u70f7", "en_name": ["1,1,1,3,3,3-Hexafluoropropane", "Propane, 1,1,1,3,3,3-hexafluoro-", "1,1,1,3,3,3-Hexafluoropropane", "Bistrifluoromethylmethane", "2,2-Dihydroperfluoropropane", "R 236fa", "HFC 236fa", "HCFC 236fa", "SUVA 236fa", "236fa"], "SMILES": "C(C(F)(F)F)C(F)(F)F", "physical_data": {"Molecular Weight": "152.04", "Molecular Formula": "C3H2F6", "Boiling Point": "-0.7 \u00b0C"}}