{"cas_no": "690-95-9", "cn_name": "4,4,4-\u4e09\u6c1f\u4e01\u8148", "en_name": ["4,4,4-Trifluorobutanenitrile", "Butanenitrile, 4,4,4-trifluoro-", "Butyronitrile, 4,4,4-trifluoro-", "4,4,4-Trifluorobutanenitrile", "4,4,4-Trifluorobutyronitrile"], "SMILES": "C(C(F)(F)F)CC#N", "physical_data": {"Molecular Weight": "123.08", "Molecular Formula": "C4H4F3N", "Boiling Point": "140 \u00b0C", "Density": "1.21 g/cm\u00b3 @ Temp: 24.5 \u00b0C"}}