{"cas_no": "6900-99-8", "cn_name": "\u53bb\u7532\u767d\u5c48\u83dc\u7ea2\u78b1", "en_name": ["Norchelerythrine", "[1,3]Benzodioxolo[5,6-c]phenanthridine, 1,2-dimethoxy-", "Chelerythrine, 12-demethyl-", "Norchelerythrine", "1,2-Dimethoxy[1,3]benzodioxolo[5,6-c]phenanthridine", "De-N-methylchelerythrine", "Des-N-methylchelerythrine", "Norchelerythrin", "O-Methyldecarine", "N-Norchelerythrine", "Norbroussonpapyrine", "O-Methylisodecarine", "O-Methylzanthoxyline", "Demethylchelerythrine", "1,2-Dimethoxy-[1,3]dioxolo[4\u2032,5\u2032:4,5]benzo[1,2-c]phenanthridine"], "SMILES": "O(C)C1=C2C(C=3C(=C4C(=CC3)C=C5C(=C4)OCO5)N=C2)=CC=C1OC", "physical_data": {"Molecular Weight": "333.34", "Molecular Formula": "C20H15NO4", "Melting Point": "221.5-222.5 \u00b0C"}}