{"cas_no": "6900-87-4", "cn_name": "\u6b21\u4e4c\u78b1", "en_name": ["Hypaconitine", "Aconitane-8,13,14,15-tetrol, 1,6,16-trimethoxy-4-(methoxymethyl)-20-methyl-, 8-acetate 14-benzoate, (1\u03b1,6\u03b1,14\u03b1,15\u03b1,16\u03b2)-", "Hypaconitine", "2H-12,3,6a-Ethanylylidene-7,9-methanonaphth[2,3-b]azocine, aconitane-8,13,14,15-tetrol deriv."], "SMILES": "O(C)C1C23C4C5C(OC(C)=O)(C6C2N(C)CC(COC)(C3C6OC)CC1)C(O)C(OC)C(O)(C4)C5OC(=O)C7=CC=CC=C7", "physical_data": {"Molecular Weight": "615.71", "Molecular Formula": "C33H45NO10", "Melting Point": "197-198 \u00b0C (decomp)"}}