{"cas_no": "69002-84-2", "cn_name": "5-\u7f9f\u57fa\u53cc\u6c2f\u82ac\u9178", "en_name": ["5-Hydroxydiclofenac", "Benzeneacetic acid, 2-[(2,6-dichlorophenyl)amino]-5-hydroxy-", "2-[(2,6-Dichlorophenyl)amino]-5-hydroxybenzeneacetic acid", "5-Hydroxydiclofenac", "2-[2-(2,6-Dichloroanilino)-5-hydroxyphenyl]acetic acid", "2-(2-((2,6-Dichlorophenyl)amino)-5-hydroxyphenyl)acetic acid"], "SMILES": "N(C1=C(CC(O)=O)C=C(O)C=C1)C2=C(Cl)C=CC=C2Cl", "physical_data": {"Molecular Weight": "312.15", "Molecular Formula": "C14H11Cl2NO3", "Melting Point": "176-178 \u00b0C"}}