{"cas_no": "6901-14-0", "cn_name": "gamma-\u5149\u79cb\u6c34\u4ed9\u78b1", "en_name": ["N-[(7S,7bS,10aR)-5,6,7,7b,8,10a-Hexahydro-1,2,3,9-tetramethoxy-8-oxobenzo[a]cyclopenta[3,4]cyclobuta[1,2-c]cyclohepten-7-yl]acetamide", "Acetamide, N-[(7S,7bS,10aR)-5,6,7,7b,8,10a-hexahydro-1,2,3,9-tetramethoxy-8-oxobenzo[a]cyclopenta[3,4]cyclobuta[1,2-c]cyclohepten-7-yl]-", "\u03b3-Lumicolchicine", "Acetamide, N-(5,6,7,7b,8,10a-hexahydro-1,2,3,9-tetramethoxy-8-oxobenzo[a]cyclopenta[3,4]cyclobuta[1,2-c]cyclohepten-7-yl)-, [7S-(7\u03b1,7b\u03b1,10a\u03b1)]-", "N-[(7S,7bS,10aR)-5,6,7,7b,8,10a-Hexahydro-1,2,3,9-tetramethoxy-8-oxobenzo[a]cyclopenta[3,4]cyclobuta[1,2-c]cyclohepten-7-yl]acetamide"], "SMILES": "N(C(C)=O)C1C2=C(C3C2C(=O)C(OC)=C3)C=4C(=CC(OC)=C(OC)C4OC)CC1", "physical_data": {"Molecular Weight": "399.44", "Molecular Formula": "C22H25NO6", "Melting Point": "208 \u00b0C"}}