{"cas_no": "6902-77-8", "cn_name": "\u4eac\u5c3c\u5e73", "en_name": ["(+)-Genipin", "Cyclopenta[c]pyran-4-carboxylic acid, 1,4a,5,7a-tetrahydro-1-hydroxy-7-(hydroxymethyl)-, methyl ester, (1R,4aS,7aS)-", "Cyclopenta[c]pyran-4-carboxylic acid, 1,4a\u03b1,5,7a\u03b1-tetrahydro-1-hydroxy-7-(hydroxymethyl)-, methyl ester", "Genipin", "Cyclopenta[c]pyran-4-carboxylic acid, 1,4a,5,7a-tetrahydro-1-hydroxy-7-(hydroxymethyl)-, methyl ester, [1R-(1\u03b1,4a\u03b1,7a\u03b1)]-", "(+)-Genipin"], "SMILES": "C(O)C=1C2C(C(C(OC)=O)=COC2O)CC1", "physical_data": {"Molecular Weight": "226.23", "Molecular Formula": "C11H14O5", "Melting Point": "120-121 \u00b0C"}}