{"cas_no": "6902-91-6", "cn_name": "\u5409\u9a6c\u916e", "en_name": ["Germacrone", "3,7-Cyclodecadien-1-one, 3,7-dimethyl-10-(1-methylethylidene)-, (3E,7E)-", "Germacrone", "3,7-Cyclodecadien-1-one, 3,7-dimethyl-10-(1-methylethylidene)-, (E,E)-", "Germacra-3,7(11),9-trien-6-one, (E,E)-", "(3E,7E)-3,7-Dimethyl-10-(1-methylethylidene)-3,7-cyclodecadien-1-one", "Germacron", "(E,E)-Germacrone"], "SMILES": "C(C)(C)=C1C(=O)CC(C)=CCCC(C)=CC1", "physical_data": {"Molecular Weight": "218.33", "Molecular Formula": "C15H22O", "Boiling Point": "153-157 \u00b0C @ Press: 13 Torr", "Melting Point": "55.5-56.0 \u00b0C", "Density": "0.9908 g/cm\u00b3 @ Temp: 20 \u00b0C"}}