{"cas_no": "69038-81-9", "cn_name": "2-\u4e59\u6c27\u57fa\u8089\u6842\u9178", "en_name": ["3-(2-Ethoxyphenyl)-2-propenoic acid", "2-Propenoic acid, 3-(2-ethoxyphenyl)-", "Cinnamic acid, o-ethoxy-", "3-(2-Ethoxyphenyl)-2-propenoic acid", "2-Ethoxycinnamic acid", "NSC 98551"], "SMILES": "C(=CC(O)=O)C1=C(OCC)C=CC=C1", "physical_data": {"Molecular Weight": "192.21", "Molecular Formula": "C11H12O3", "Melting Point": "133-134 \u00b0C"}}