{"cas_no": "69049-73-6", "cn_name": "\u5c3c\u591a\u514b\u7f57", "en_name": ["Nedocromil", "4H-Pyrano[3,2-g]quinoline-2,8-dicarboxylic acid, 9-ethyl-6,9-dihydro-4,6-dioxo-10-propyl-", "9-Ethyl-6,9-dihydro-4,6-dioxo-10-propyl-4H-pyrano[3,2-g]quinoline-2,8-dicarboxylic acid", "Nedocromil", "FPL 59002"], "SMILES": "C(CC)C1=C2C(=CC3=C1OC(C(O)=O)=CC3=O)C(=O)C=C(C(O)=O)N2CC", "physical_data": {"Molecular Weight": "371.34", "Molecular Formula": "C19H17NO7", "Melting Point": "299 \u00b0C (decomp)"}}