{"cas_no": "69045-84-7", "cn_name": "2,3-\u4e8c\u6c2f-5-\u4e09\u6c1f\u7532\u57fa\u5421\u5576", "en_name": ["2,3-Dichloro-5-(trifluoromethyl)pyridine", "Pyridine, 2,3-dichloro-5-(trifluoromethyl)-", "2,3-Dichloro-5-(trifluoromethyl)pyridine", "5,6-Dichloro-3-(trifluoromethyl)pyridine"], "SMILES": "C(F)(F)(F)C=1C=C(Cl)C(Cl)=NC1", "physical_data": {"Molecular Weight": "215.99", "Molecular Formula": "C6H2Cl2F3N", "Boiling Point": "50-51 \u00b0C @ Press: 21 Torr"}}