{"cas_no": "69045-78-9", "cn_name": "2-\u6c2f-5-\u4e09\u6c2f\u7532\u57fa\u5421\u5576", "en_name": ["2-Chloro-5-trichloromethylpyridine", "Pyridine, 2-chloro-5-(trichloromethyl)-", "2-Chloro-5-(trichloromethyl)pyridine", "2-Chloro-5-trichloromethylpyridine"], "SMILES": "C(Cl)(Cl)(Cl)C=1C=CC(Cl)=NC1", "physical_data": {"Molecular Weight": "230.91", "Molecular Formula": "C6H3Cl4N", "Melting Point": "-18.14 \u00b0C"}}