{"cas_no": "69048-98-2", "cn_name": "1-\u4e59\u57fa-1,4-\u4e8c\u6c22-5H-\u56db\u5511-5-\u916e", "en_name": ["1-Ethyl-1,2-dihydro-5H-tetrazol-5-one", "5H-Tetrazol-5-one, 1-ethyl-1,2-dihydro-", "1H-Tetrazol-5-ol, 1-ethyl-", "1-Ethyl-1,2-dihydro-5H-tetrazol-5-one", "1-Ethyl-1H-tetrazol-5(4H)-one", "1-Ethyl-1H-1,2,3,4-tetrazol-5-ol", "1-Ethyl-4,5-dihydro-1H-1,2,3,4-tetrazol-5-one", "1-Ethyl-1,4-dihydro-5H-tetrazol-5-one", "1-Ethyl-2,5-dihydro-1H-1,2,3,4-tetrazol-5-one", "1-Ethyl-2H-tetrazol-5-one"], "SMILES": "C(C)N1C(=O)NN=N1", "physical_data": {"Molecular Weight": "114.11", "Molecular Formula": "C3H6N4O", "Boiling Point": "133 \u00b0C @ Press: 1 Torr", "Melting Point": "79.7 \u00b0C"}}