{"cas_no": "69045-79-0", "cn_name": "2-\u6c2f-5-\u7898\u5421\u5576", "en_name": ["2-Chloro-5-iodopyridine", "Pyridine, 2-chloro-5-iodo-", "2-Chloro-5-iodopyridine", "5-Iodo-2-chloropyridine"], "SMILES": "IC=1C=CC(Cl)=NC1", "physical_data": {"Molecular Weight": "239.44", "Molecular Formula": "C5H3ClIN", "Melting Point": "99 \u00b0C"}}