{"cas_no": "69056-38-8", "cn_name": "(6R)-5,6,7,8-\u56db\u6c22\u751f\u7269\u8776\u5464 \u4e8c\u76d0\u9178\u76d0", "en_name": ["Sapropterin dihydrochloride", "4(3H)-Pteridinone, 2-amino-6-[(1R,2S)-1,2-dihydroxypropyl]-5,6,7,8-tetrahydro-, hydrochloride (1:2), (6R)-", "4(1H)-Pteridinone, 2-amino-6-(1,2-dihydroxypropyl)-5,6,7,8-tetrahydro-, dihydrochloride, [6R-[6R*(1R*,2S*)]]-", "4(1H)-Pteridinone, 2-amino-6-[(1R,2S)-1,2-dihydroxypropyl]-5,6,7,8-tetrahydro-, dihydrochloride, (6R)-", "SUN 0588", "(6\u03b2)-5,6,7,8-Tetrahydro-L-biopterin dihydrochloride", "Biopten", "Sapropterin dihydrochloride", "Shiratori SN 0588", "BioMarin T 1401", "Kuvan"], "SMILES": "O=C1C2=C(NCC(C(C(C)O)O)N2)NC(N)=N1.Cl", "physical_data": {"Molecular Weight": "", "Molecular Formula": "C9H15N5O3.2ClH", "Melting Point": "245-246 \u00b0C (decomp)"}}