{"cas_no": "69056-67-3", "cn_name": "3-(\u4e09\u6c1f\u7532\u57fa)\u4e01\u70ef\u9178", "en_name": ["4,4,4-Trifluoro-3-methyl-2-butenoic acid", "2-Butenoic acid, 4,4,4-trifluoro-3-methyl-", "Crotonic acid, 4,4,4-trifluoro-3-methyl-", "4,4,4-Trifluoro-3-methyl-2-butenoic acid", "\u03b2-(Trifluoromethyl)crotonic acid"], "SMILES": "C(=CC(O)=O)(C(F)(F)F)C", "physical_data": {"Molecular Weight": "154.09", "Molecular Formula": "C5H5F3O2", "Boiling Point": "160-166 \u00b0C"}}