{"cas_no": "69064-37-5", "cn_name": "\u53cd-2-\u5341\u4e8c\u70ef-1-\u9187", "en_name": ["trans-2-Dodecen-1-ol", "2-Dodecen-1-ol, (2E)-", "2-Dodecen-1-ol, (E)-", "(2E)-2-Dodecen-1-ol", "(E)-2-Dodecen-1-ol", "trans-2-Dodecen-1-ol", "(E)-Dodec-2-en-1-ol"], "SMILES": "C(CCCCCC)CCC=CCO", "physical_data": {"Molecular Weight": "184.32", "Molecular Formula": "C12H24O", "Boiling Point": "104 \u00b0C @ Press: 4 Torr"}}