{"cas_no": "69088-96-6", "cn_name": "4-(3-\u6c28\u82ef\u57fa)-2-\u7532\u57fa-3-\u4e01\u7094-2-\u9187", "en_name": ["4-(3-Aminophenyl)-2-methyl-3-butyn-2-ol", "3-Butyn-2-ol, 4-(3-aminophenyl)-2-methyl-", "4-(3-Aminophenyl)-2-methyl-3-butyn-2-ol", "1-(3-Aminophenyl)-3-hydroxy-3-methyl-1-butyne", "M-APACB", "3-(3-Hydroxy-3-methylbutyn-1-yl)aniline", "2-Methyl-4-(3-aminophenyl)-3-butyn-2-ol"], "SMILES": "C(#CC(C)(C)O)C1=CC(N)=CC=C1", "physical_data": {"Molecular Weight": "175.23", "Molecular Formula": "C11H13NO", "Melting Point": "117-118 \u00b0C"}}