{"cas_no": "6908-41-4", "cn_name": "4-(\u7f9f\u7532\u57fa)\u82ef\u7532\u9178\u7532\u916f", "en_name": ["Methyl 4-(hydroxymethyl)benzoate", "Benzoic acid, 4-(hydroxymethyl)-, methyl ester", "p-Toluic acid, \u03b1-hydroxy-, methyl ester", "Methyl p-(hydroxymethyl)benzoate", "Methyl 4-(hydroxymethyl)benzoate", "p-(Methoxycarbonyl)benzyl alcohol", "4-(Carbomethoxy)benzyl alcohol", "4-(Methoxycarbonyl)benzyl alcohol", "4-Hydroxymethylbenzoic acid methyl ester", "1,4-Benzenedimethanol, \u03b11-methoxy-"], "SMILES": "C(OC)(=O)C1=CC=C(CO)C=C1", "physical_data": {"Molecular Weight": "166.17", "Molecular Formula": "C9H10O3", "Boiling Point": "129-133 \u00b0C @ Press: 0.8 Torr", "Melting Point": "48.5-49.5 \u00b0C"}}