{"cas_no": "69082-76-4", "cn_name": "\u516d\u4e59\u57fa\u80cd\u6c27\u5316\u7269", "en_name": ["Hexaethylguanidinium chloride", "Ethanaminium, N-[bis(diethylamino)methylene]-N-ethyl-, chloride (1:1)", "Ethanaminium, N-[bis(diethylamino)methylene]-N-ethyl-, chloride", "Hexaethylguanidinium chloride"], "SMILES": "C(N(CC)CC)(N(CC)CC)=[N+](CC)CC.[Cl-]", "physical_data": {"Molecular Weight": "", "Molecular Formula": "C13H30N3.Cl", "Melting Point": "134 \u00b0C"}}