{"cas_no": "69094-18-4", "cn_name": "2,2-\u4e8c\u6eb4-2-\u785d\u57fa\u4e59\u9187", "en_name": ["2,2-Dibromo-2-nitroethanol", "Ethanol, 2,2-dibromo-2-nitro-", "2,2-Dibromo-2-nitroethanol", "2,2-Dibromo-2-nitro-1-ethanol", "Dibnirol A 75", "N 60", "N 60 (antimicrobial)", "Dibnirol", "DBNE 75", "DBNE 75P"], "SMILES": "C(N(=O)=O)(CO)(Br)Br", "physical_data": {"Molecular Weight": "248.86", "Molecular Formula": "C2H3Br2NO3", "Boiling Point": "121 \u00b0C @ Press: 19 Torr", "Melting Point": "30 \u00b0C"}}