{"cas_no": "69097-20-7", "cn_name": "\u4e09(\u4e09\u7532\u57fa\u7845\u6c27\u57fa)\u4e59\u70ef", "en_name": ["2,2,7,7-Tetramethyl-4-[(trimethylsilyl)oxy]-3,6-dioxa-2,7-disilaoct-4-ene", "3,6-Dioxa-2,7-disilaoct-4-ene, 2,2,7,7-tetramethyl-4-[(trimethylsilyl)oxy]-", "2,2,7,7-Tetramethyl-4-[(trimethylsilyl)oxy]-3,6-dioxa-2,7-disilaoct-4-ene", "Tris[(trimethylsilyl)oxy]ethylene", "Tris(trimethylsiloxy)ethylene", "Tris(trimethylsiloxy)ethene", "1,1,2-Tris(trimethylsilyloxy)ethene", "1,2-Bis(trimethylsilyloxy)ethenoxy-trimethylsilane"], "SMILES": "C(=CO[Si](C)(C)C)(O[Si](C)(C)C)O[Si](C)(C)C", "physical_data": {"Molecular Weight": "292.59", "Molecular Formula": "C11H28O3Si3", "Boiling Point": "90 \u00b0C @ Press: 1 Torr", "Density": "0.885 g/cm\u00b3"}}