{"cas_no": "691-60-1", "cn_name": "\u5f02\u4e19\u57fa\u8132", "en_name": ["Isopropylurea", "Urea, N-(1-methylethyl)-", "Urea, isopropyl-", "Urea, (1-methylethyl)-", "N-(1-Methylethyl)urea", "Isopropylurea", "1-Isopropylurea", "N-Isopropylurea", "NSC 14349", "(Propan-2-yl)urea"], "SMILES": "N(C(C)C)C(N)=O", "physical_data": {"Molecular Weight": "102.14", "Molecular Formula": "C4H10N2O", "Melting Point": "119-120 \u00b0C"}}