{"cas_no": "691-38-3", "cn_name": "\u987a\u5f0f-4-\u7532\u57fa-2-\u620a\u70ef", "en_name": ["cis-4-Methyl-2-pentene", "2-Pentene, 4-methyl-, (2Z)-", "2-Pentene, 4-methyl-, (Z)-", "2-Pentene, 4-methyl-, cis-", "(2Z)-4-Methyl-2-pentene", "cis-4-Methyl-2-pentene", "(Z)-4-Methyl-2-pentene", "cis-2-Methyl-3-pentene", "cis-1-Isopropylpropene"], "SMILES": "C(C(C)C)=CC", "physical_data": {"Molecular Weight": "84.16", "Molecular Formula": "C6H12", "Boiling Point": "56.3 \u00b0C", "Melting Point": "-134.8 \u00b0C", "Density": "0.663 g/cm\u00b3 @ Temp: 24 \u00b0C"}}