{"cas_no": "691-24-7", "cn_name": "N,N-\u4e8c\u53d4\u4e01\u57fa\u78b3\u4e8c\u4e9a\u80fa", "en_name": ["N,N\u2032-Methanetetraylbis[2-methyl-2-propanamine]", "2-Propanamine, N,N\u2032-methanetetraylbis[2-methyl-", "Carbodiimide, di-tert-butyl-", "N,N\u2032-Methanetetraylbis[2-methyl-2-propanamine]", "N,N\u2032-Di-tert-butylcarbodiimide", "Di-tert-butylcarbodiimide", "1,3-Di-tert-butylcarbodiimide", "Bis(tert-butyl)carbodiimide", "N,N\u2032-Di-tert-butylmethanediimine"], "SMILES": "N(C(C)(C)C)=C=NC(C)(C)C", "physical_data": {"Molecular Weight": "154.25", "Molecular Formula": "C9H18N2", "Boiling Point": "47.5-48.5 \u00b0C @ Press: 10 Torr"}}