{"cas_no": "691-37-2", "cn_name": "4-\u7532\u57fa-1-\u620a\u70ef", "en_name": ["4-Methyl-1-pentene", "1-Pentene, 4-methyl-", "4-Methyl-1-pentene", "Isobutylethene", "4-Methylpentene-1", "NSC 15091", "4-Methyl-1-amylene"], "SMILES": "C(C(C)C)C=C", "physical_data": {"Molecular Weight": "84.16", "Molecular Formula": "C6H12", "Boiling Point": "53.9 \u00b0C", "Melting Point": "-153.6 \u00b0C", "Density": "0.6718 g/cm\u00b3 @ Temp: 20 \u00b0C"}}