{"cas_no": "691-64-5", "cn_name": "\u4e8c\u53d4\u4e01\u57fa\u8349\u9178\u916f", "en_name": ["1,2-Bis(1,1-dimethylethyl) ethanedioate", "Ethanedioic acid, 1,2-bis(1,1-dimethylethyl) ester", "Oxalic acid, di-tert-butyl ester", "Ethanedioic acid, bis(1,1-dimethylethyl) ester", "1,2-Bis(1,1-dimethylethyl) ethanedioate", "Di-tert-butyl oxalate", "Bis(1,1-dimethylethyl) oxalate"], "SMILES": "O(C(C(OC(C)(C)C)=O)=O)C(C)(C)C", "physical_data": {"Molecular Weight": "202.25", "Molecular Formula": "C10H18O4", "Boiling Point": "229 \u00b0C", "Melting Point": "71 \u00b0C"}}