{"cas_no": "6911-51-9", "cn_name": "\u53cc(2-\u567b\u5429\u57fa)\u4e8c\u786b\u919a", "en_name": ["2,2\u2032-Dithiobis[thiophene]", "Thiophene, 2,2\u2032-dithiobis-", "Thiophene, 2,2\u2032-dithiodi-", "2,2\u2032-Dithiobis[thiophene]", "\u03b1,\u03b1\u2032-Dithienyl disulfide", "2,2\u2032-Bis(thienyl) disulfide", "Di-2-thienyl disulfide", "Bis(2-thienyl) disulfide", "1,2-Di(thien-2-yl)disulfane", "2,2\u2032-Dithiodithiophene", "2-(Thiophen-2-yldisulfanyl)thiophene", "2-Thienyl disulfide"], "SMILES": "S(SC1=CC=CS1)C2=CC=CS2", "physical_data": {"Molecular Weight": "230.39", "Molecular Formula": "C8H6S4", "Boiling Point": "115-145 \u00b0C @ Press: 0.02 Torr", "Melting Point": "56 \u00b0C"}}