{"cas_no": "69123-94-0", "cn_name": "1-(2-\u8131\u6c27-2-\u6c1f-beta-D-\u963f\u62c9\u4f2f\u544b\u5583\u57fa)\u5c3f\u5627\u5576", "en_name": ["1-(2-Deoxy-2-fluoro-\u03b2-D-arabinofuranosyl)-2,4(1H,3H)-pyrimidinedione", "2,4(1H,3H)-Pyrimidinedione, 1-(2-deoxy-2-fluoro-\u03b2-D-arabinofuranosyl)-", "1-(2-Deoxy-2-fluoro-\u03b2-D-arabinofuranosyl)-2,4(1H,3H)-pyrimidinedione", "NUK-7"], "SMILES": "FC1C(OC(CO)C1O)N2C(=O)NC(=O)C=C2", "physical_data": {"Molecular Weight": "246.19", "Molecular Formula": "C9H11FN2O5", "Melting Point": "161-162 \u00b0C"}}