{"cas_no": "69123-98-4", "cn_name": "\u975e\u963f\u5c3f\u82f7", "en_name": ["Fialuridine", "2,4(1H,3H)-Pyrimidinedione, 1-(2-deoxy-2-fluoro-\u03b2-D-arabinofuranosyl)-5-iodo-", "1-(2-Deoxy-2-fluoro-\u03b2-D-arabinofuranosyl)-5-iodo-2,4(1H,3H)-pyrimidinedione", "1-(2\u2032-Deoxy-2\u2032-fluoro-\u03b2-D-arabinofuranosyl)-5-iodouracil", "5-Iodo-2\u2032-fluoroarauracil", "1-(2-Deoxy-2-fluoro-\u03b2-D-arabinofuranosyl)-5-iodouracil", "FIAU", "Fialuridine", "Fluoroiodoarauracil", "NSC 678514"], "SMILES": "FC1C(OC(CO)C1O)N2C(=O)NC(=O)C(I)=C2", "physical_data": {"Molecular Weight": "372.09", "Molecular Formula": "C9H10FIN2O5", "Melting Point": "216-217 \u00b0C"}}