{"cas_no": "69120-07-6", "cn_name": "\u6851\u8f9b\u7d20 D", "en_name": ["7-(6-Hydroxy-2-benzofuranyl)-2,2-dimethyl-2H-1-benzopyran-5-ol", "2H-1-Benzopyran-5-ol, 7-(6-hydroxy-2-benzofuranyl)-2,2-dimethyl-", "7-(6-Hydroxy-2-benzofuranyl)-2,2-dimethyl-2H-1-benzopyran-5-ol", "Moracin D"], "SMILES": "OC1=C2C(=CC(=C1)C=3OC=4C(C3)=CC=C(O)C4)OC(C)(C)C=C2", "physical_data": {"Molecular Weight": "308.33", "Molecular Formula": "C19H16O4", "Melting Point": "122-124 \u00b0C"}}