{"cas_no": "6912-12-5", "cn_name": "\u4e8c\u7532\u57fa\u6eb4\u5316\u6c28", "en_name": ["Dimethylammonium bromide", "Methanamine, N-methyl-, hydrobromide", "Dimethylamine, hydrobromide", "Dimethylammonium bromide"], "SMILES": "N(C)C.Br", "physical_data": {"Molecular Weight": "", "Molecular Formula": "C2H7N.BrH", "Melting Point": "131-131.5 \u00b0C"}}