{"cas_no": "6914-76-7", "cn_name": "1-\u7532\u57fa\u73af\u4e19\u70f7-1-\u7fa7\u9178", "en_name": ["1-Methylcyclopropanecarboxylic acid", "Cyclopropanecarboxylic acid, 1-methyl-", "1-Methylcyclopropanecarboxylic acid", "1-Methylcyclopropane-1-carboxylic acid", "1-Methylcyclopropanoic acid", "1-Methylcyclopropan-1-carboxylic acid"], "SMILES": "C(O)(=O)C1(C)CC1", "physical_data": {"Molecular Weight": "100.12", "Molecular Formula": "C5H8O2", "Boiling Point": "110 \u00b0C @ Press: 15 Torr", "Melting Point": "29-30 \u00b0C"}}