{"cas_no": "6914-71-2", "cn_name": "1,1-\u73af\u4e19\u70f7\u4e8c\u7532\u9178\u4e8c\u7532\u916f", "en_name": ["1,1-Cyclopropanedicarboxylic acid, 1,1-dimethyl ester", "1,1-Cyclopropanedicarboxylic acid, 1,1-dimethyl ester", "1,1-Cyclopropanedicarboxylic acid, dimethyl ester", "Dimethyl 1,1-cyclopropanedicarboxylate", "1,1-Dimethyl cyclopropane-1,1-dicarboxylate"], "SMILES": "C(OC)(=O)C1(C(OC)=O)CC1", "physical_data": {"Molecular Weight": "158.15", "Molecular Formula": "C7H10O4", "Boiling Point": "98 \u00b0C @ Press: 22 Torr"}}