{"cas_no": "6914-73-4", "cn_name": "1-CYANO-CYCLOPROPANECARBOXYLIC ACIDMETHYL ESTER", "en_name": ["Cyclopropanecarboxylic acid, 1-cyano-, methyl ester", "Cyclopropanecarboxylic acid, 1-cyano-, methyl ester", "Methyl 1-cyanocyclopropanecarboxylate", "NSC 600026"], "SMILES": "C(OC)(=O)C1(C#N)CC1", "physical_data": {"Molecular Weight": "125.13", "Molecular Formula": "C6H7NO2", "Boiling Point": "92 \u00b0C @ Press: 18 Torr"}}