{"cas_no": "6914-79-0", "cn_name": "1-\u6c30\u57fa-1-\u73af\u4e19\u70f7\u7fa7\u9178", "en_name": ["1-Cyanocyclopropanecarboxylic acid", "Cyclopropanecarboxylic acid, 1-cyano-", "1-Cyanocyclopropanecarboxylic acid", "1-Cyano-1-cyclopropanecarboxylic acid"], "SMILES": "C(O)(=O)C1(C#N)CC1", "physical_data": {"Molecular Weight": "111.10", "Molecular Formula": "C5H5NO2", "Melting Point": "135-136 \u00b0C"}}