{"cas_no": "6914-74-5", "cn_name": "1-\u7532\u9170\u80fa\u57fa-1-\u73af\u4e19\u70f7\u7fa7\u9178", "en_name": ["1-Carbamoylcyclopropanecarboxylic acid", "Cyclopropanecarboxylic acid, 1-(aminocarbonyl)-", "Cyclopropanecarboxylic acid, 1-carbamoyl-", "1-(Aminocarbonyl)cyclopropanecarboxylic acid", "1-Carbamoylcyclopropanecarboxylic acid", "1-(Aminocarbonyl)-1-cyclopropanecarboxylic acid", "1-Carbamoyl-1-cyclopropanecarboxylic acid", "Cyclopropanamide-1-carboxylic acid", "1-Carbamylcyclopropane-1-carboxylic acid", "1-Carboxycyclopropane-1-carboxamide", "1-Carboxycyclopropanecarboxamide"], "SMILES": "C(N)(=O)C1(C(O)=O)CC1", "physical_data": {"Molecular Weight": "129.11", "Molecular Formula": "C5H7NO3", "Melting Point": "188-189 \u00b0C"}}