{"cas_no": "6915-15-7", "cn_name": "DL-\u82f9\u679c\u9178", "en_name": ["Malic acid", "Butanedioic acid, 2-hydroxy-", "Malic acid", "Butanedioic acid, hydroxy-", "2-Hydroxybutanedioic acid", "\u03b1-Hydroxysuccinic acid", "Hydroxysuccinic acid", "2-Hydroxyethane-1,2-dicarboxylic acid", "Pomalus Acid", "Deoxytetraric acid", "2-Hydroxysuccinic acid", "Musashi-no-Ringosan", "Hydroxybutanedioic acid", "dl-Malic acid", "FDA 2018", "(\u00b1)-Malic acid", "DL-Malic acid", "R,S(\u00b1)-Malic acid", "E 296", "NSC 25941", "Nanoveson M", "Xeros", "Monohydroxybutanedioic acid", "Purac Powder MA", "Purac MA", "Fuso M", "DN 1992", "MeSH ID: D008293"], "SMILES": "C(CC(O)=O)(C(O)=O)O", "physical_data": {"Molecular Weight": "134.09", "Molecular Formula": "C4H6O5", "Melting Point": "131 \u00b0C"}}