{"cas_no": "69159-50-8", "cn_name": "1-\u4e8c\u82ef\u73af\u5e9a\u57fa\u54cc\u55ea", "en_name": ["1-(10,11-Dihydro-5H-dibenzo[a,d]cyclohepten-5-yl)piperazine", "Piperazine, 1-(10,11-dihydro-5H-dibenzo[a,d]cyclohepten-5-yl)-", "1-(10,11-Dihydro-5H-dibenzo[a,d]cyclohepten-5-yl)piperazine", "5-(Suberan-5-yl)piperazine"], "SMILES": "C1(C=2C(CCC=3C1=CC=CC3)=CC=CC2)N4CCNCC4", "physical_data": {"Molecular Weight": "278.39", "Molecular Formula": "C19H22N2", "Melting Point": "109 \u00b0C"}}