{"cas_no": "6917-35-7", "cn_name": "\u73af\u5df1\u516d\u9187", "en_name": ["Hexahydroxycyclohexane", "Inositol", "Inosite", "NSC 25142", "NSC 55551", "NSC 8101", "Hexahydroxycyclohexane", "Cyclohexane-1,2,3,4,5,6-hexol"], "SMILES": "OC1C(O)C(O)C(O)C(O)C1O", "physical_data": {"Molecular Weight": "180.16", "Molecular Formula": "C6H12O6", "Melting Point": "252 \u00b0C"}}