{"cas_no": "69176-52-9", "cn_name": "\u6208\u7c73\u8f9bN", "en_name": ["Gomisin N", "Benzo[3,4]cycloocta[1,2-f][1,3]benzodioxole, 5,6,7,8-tetrahydro-1,2,3,13-tetramethoxy-6,7-dimethyl-, (6R,7S,13aS)-", "Benzo[3,4]cycloocta[1,2-f][1,3]benzodioxole, 5,6,7,8-tetrahydro-1,2,3,13-tetramethoxy-6,7-dimethyl-, stereoisomer", "(6R,7S,13aS)-5,6,7,8-Tetrahydro-1,2,3,13-tetramethoxy-6,7-dimethylbenzo[3,4]cycloocta[1,2-f][1,3]benzodioxole", "Gomisin N", "(-)-Gomisin N"], "SMILES": "O(C)C1=C2C=3C(=CC(OC)=C(OC)C3OC)CC(C)C(C)CC2=CC4=C1OCO4", "physical_data": {"Molecular Weight": "400.46", "Molecular Formula": "C23H28O6", "Melting Point": "104-108 \u00b0C"}}