{"cas_no": "6918-49-6", "cn_name": "D-ERYTHRO-SPHINGOSINE (C20 BASE);SPHINGOSINE (D20:1)", "en_name": ["C20-Sphingosine", "4-Eicosene-1,3-diol, 2-amino-, (2S,3R,4E)-", "4-Eicosene-1,3-diol, 2-amino-, (E)-D-erythro-", "4-Eicosene-1,3-diol, 2-amino-, [R-[R*,S*-(E)]]-", "(2S,3R,4E)-2-Amino-4-eicosene-1,3-diol", "C20-Sphingosine", "D-erythro-1,3-Dihydroxy-2-amino-trans-4-eicosene", "Eicosaphingenine", "Gangliosphingosine"], "SMILES": "C(CCCCCCCCCCCCCCC)=CC(C(CO)N)O", "physical_data": {"Molecular Weight": "327.55", "Molecular Formula": "C20H41NO2", "Melting Point": "72-74 \u00b0C"}}