{"cas_no": "69190-62-1", "cn_name": "2-\u4e01\u57fa-4,4,5,5-\u7532\u7532\u57fa-[1,3,2]\u4e8c\u5641\u5511\u73af\u620a\u787c\u70f7", "en_name": ["2-Butyl-4,4,5,5-tetramethyl-1,3,2-dioxaborolane", "1,3,2-Dioxaborolane, 2-butyl-4,4,5,5-tetramethyl-", "2-Butyl-4,4,5,5-tetramethyl-1,3,2-dioxaborolane"], "SMILES": "CC1(C)C(C)(C)OB(CCCC)O1", "physical_data": {"Molecular Weight": "184.08", "Molecular Formula": "C10H21BO2", "Boiling Point": "32-36 \u00b0C @ Press: 760 Torr"}}