{"cas_no": "6919-61-5", "cn_name": "N-\u7532\u57fa-N-\u7532\u57fa\u82ef\u7532\u9170\u80fa", "en_name": ["N-Methoxy-N-methylbenzamide", "Benzamide, N-methoxy-N-methyl-", "N-Methoxy-N-methylbenzamide", "N-Methoxy-N-methylbenzenecarboxamide", "N-Benzoyl-N-methyl-O-methylhydroxylamine"], "SMILES": "C(N(OC)C)(=O)C1=CC=CC=C1", "physical_data": {"Molecular Weight": "165.19", "Molecular Formula": "C9H11NO2", "Boiling Point": "95 \u00b0C @ Press: 1 Torr"}}