{"cas_no": "692-49-9", "cn_name": "\u987a\u5f0f-1,1,1,4,4,4-\u516d\u6c1f-2-\u4e01\u70ef", "en_name": ["cis-1,1,1,4,4,4-Hexafluoro-2-butene", "2-Butene, 1,1,1,4,4,4-hexafluoro-, (2Z)-", "2-Butene, 1,1,1,4,4,4-hexafluoro-, (Z)-", "(2Z)-1,1,1,4,4,4-Hexafluoro-2-butene", "cis-1,1,1,4,4,4-Hexafluoro-2-butene", "HFC 1336mzz", "Z-FC 1336mzz", "HFO 1336mzzm(z)", "Z-1,1,1,4,4,4-Hexafluoro-2-butene", "Z-F 11E", "HCFO-1336mzz(Z)", "(Z)-HFO 1336", "Z-HFO 1336mzz", "HFO-Z 1336mzz", "1336mzzZ", "HFO 1336mzz-Z", "Opteon 1100", "Formacel 1100", "Formacel FEA 1100", "FEA 1100", "R 1336mzz(Z)", "HFO-1336mzz(Z)", "Opteon SF 33", "(Z)-HFO 1336mzz"], "SMILES": "C(=CC(F)(F)F)C(F)(F)F", "physical_data": {"Molecular Weight": "164.05", "Molecular Formula": "C4H2F6", "Boiling Point": "34-36 \u00b0C"}}