{"cas_no": "692-50-2", "cn_name": "\u516d\u6c1f-2-\u4e01\u7094", "en_name": ["Hexafluoro-2-butyne", "2-Butyne, 1,1,1,4,4,4-hexafluoro-", "2-Butyne, hexafluoro-", "1,1,1,4,4,4-Hexafluoro-2-butyne", "Hexafluoro-2-butyne", "Perfluoro-2-butyne", "Bis(trifluoromethyl)acetylene"], "SMILES": "C(#CC(F)(F)F)C(F)(F)F", "physical_data": {"Molecular Weight": "162.03", "Molecular Formula": "C4F6", "Boiling Point": "-24.6 \u00b0C", "Melting Point": "-117.4 \u00b0C"}}