{"cas_no": "692-29-5", "cn_name": "\u7425\u73c0\u534a\u919b", "en_name": ["4-Oxobutanoic acid", "Butanoic acid, 4-oxo-", "Succinaldehydic acid", "4-Oxobutanoic acid", "Succinic semialdehyde", "Succinic acid semialdehyde", "Propanoic acid, 3-formyl-", "Butyraldehydic acid", "\u03b2-Formylpropionic acid", "3-Formylpropionic acid", "\u03b3-Oxybutyric acid", "3-Formylpropanoic acid", "4-Oxobutyric acid"], "SMILES": "C(C(O)=O)CC=O", "physical_data": {"Molecular Weight": "102.09", "Molecular Formula": "C4H6O3", "Boiling Point": "142-143 \u00b0C @ Press: 13 Torr", "Melting Point": "202-203 \u00b0C", "Density": "1.163 g/cm\u00b3 @ Temp: 19 \u00b0C"}}