{"cas_no": "692-45-5", "cn_name": "\u7532\u9178\u4e59\u70ef\u916f", "en_name": ["Vinyl formate", "Formic acid, ethenyl ester", "Formic acid, vinyl ester", "Vinyl formate", "NSC 8403"], "SMILES": "O(C=C)C=O", "physical_data": {"Molecular Weight": "72.06", "Molecular Formula": "C3H4O2", "Boiling Point": "46.8-47.0 \u00b0C @ Press: 766 Torr", "Density": "0.963 g/cm\u00b3 @ Temp: 20 \u00b0C"}}