{"cas_no": "692-04-6", "cn_name": "N-EPSILON-\u4e59\u9170-L-\u8d56\u80fa\u57fa\u4e59\u9178", "en_name": ["\u03b5-Acetyl-L-lysine", "L-Lysine, N6-acetyl-", "Lysine, N6-acetyl-, L-", "Lysine, N6-acetyl-", "N6-Acetyl-L-lysine", "\u03b5-N-Acetyl-L-lysine", "\u03c9-N-Acetyl-L-lysine", "N\u03b5-Acetyllysine", "\u03b5-N-Acetyllysine", "N\u03b5-Acetyl-L-lysine", "L-\u03b5-N-Acetyllysine", "N6-Acetyllysine", "\u03b5-Acetyl-L-lysine", "NSC 102777", "6-Acetamido-2-aminohexanoic acid", "N6-Acetyllysine", "(2S)-6-Acetamido-2-aminohexanoic acid"], "SMILES": "C(C(C(O)=O)N)CCCNC(C)=O", "physical_data": {"Molecular Weight": "188.22", "Molecular Formula": "C8H16N2O3", "Melting Point": "246-253 \u00b0C"}}