{"cas_no": "692-86-4", "cn_name": "10-\u5341\u4e00\u70ef\u9178\u4e59\u916f", "en_name": ["Ethyl 10-undecenoate", "10-Undecenoic acid, ethyl ester", "Ethyl 10-undecenoate", "Ethyl undecenoate"], "SMILES": "C(CCCCCCCC=C)C(OCC)=O", "physical_data": {"Molecular Weight": "212.33", "Molecular Formula": "C13H24O2", "Boiling Point": "264.5 \u00b0C", "Melting Point": "-38 \u00b0C"}}