{"cas_no": "6920-22-5", "cn_name": "DL-1,2-\u5df1\u4e8c\u9187", "en_name": ["1,2-Hexanediol", "1,2-Hexanediol", "5,6-Dihydroxyhexane", "1,2-Dihydroxyhexane", "(\u00b1)-Hexane-1,2-diol", "DL-1,2-Hexanediol", "1,2-Hexyleneglycol", "KMO 6", "Hydrolite 6", "Dermosoft Hexiol", "Dermasoft Hexiol"], "SMILES": "C(CCCC)(CO)O", "physical_data": {"Molecular Weight": "118.17", "Molecular Formula": "C6H14O2", "Boiling Point": "96-98 \u00b0C @ Press: 1.0 Torr"}}