{"cas_no": "6920-38-3", "cn_name": "\u85e4\u9ec4\u83cc\u7d20-4' -O-\u8461\u7cd6\u82f7", "en_name": ["Luteolin 4\u2032-O-glucoside", "4H-1-Benzopyran-4-one, 2-[4-(\u03b2-D-glucopyranosyloxy)-3-hydroxyphenyl]-5,7-dihydroxy-", "Flavone, 3\u2032,4\u2032,5,7-tetrahydroxy-, 4\u2032-\u03b2-D-glucopyranoside", "Luteolin 4\u2032-glucoside", "Glucopyranoside, luteolin-4\u2032, \u03b2-D-", "2-[4-(\u03b2-D-Glucopyranosyloxy)-3-hydroxyphenyl]-5,7-dihydroxy-4H-1-benzopyran-4-one", "Luteolin 4\u2032-O-\u03b2-D-glucoside", "Luteolin 4\u2032-O-\u03b2-D-glucopyranoside", "Juncein", "4\u2032-\u03b2-D-Glucosylluteolin", "Luteolin 4\u2032-O-glucoside", "3\u2032,4\u2032,5,7-Tetrahydroxyflavone 4\u2032-\u03b2-D-glucoside"], "SMILES": "O=C1C=2C(OC(=C1)C3=CC(O)=C(OC4OC(CO)C(O)C(O)C4O)C=C3)=CC(O)=CC2O", "physical_data": {"Molecular Weight": "448.38", "Molecular Formula": "C21H20O11", "Melting Point": "178-179 \u00b0C"}}