{"cas_no": "6920-24-7", "cn_name": "1,2-\u5341\u516d\u70f7\u4e8c\u9187", "en_name": ["1,2-Hexadecanediol", "1,2-Hexadecanediol", "1,2-Dihydroxyhexadecane", "2-Hydroxycetyl alcohol", "1,2-Hexadecylene glycol", "NSC 71525"], "SMILES": "C(CCCCCCCCCCC)CCC(CO)O", "physical_data": {"Molecular Weight": "258.44", "Molecular Formula": "C16H34O2", "Melting Point": "73.5-73.6 \u00b0C"}}