{"cas_no": "6921-66-0", "cn_name": "4'-\u6c2f-2'-\u7f9f\u57fa\u82ef\u4e59\u916e", "en_name": ["1-(4-Chloro-2-hydroxyphenyl)ethanone", "Ethanone, 1-(4-chloro-2-hydroxyphenyl)-", "Acetophenone, 4\u2032-chloro-2\u2032-hydroxy-", "1-(4-Chloro-2-hydroxyphenyl)ethanone", "4\u2032-Chloro-2\u2032-hydroxyacetophenone", "2\u2032-Hydroxy-4\u2032-chloroacetophenone", "4-Chloro-o-hydroxyacetophenone", "1-(4-Chloro-2-hydroxyphenyl)ethan-1-one"], "SMILES": "C(C)(=O)C1=C(O)C=C(Cl)C=C1", "physical_data": {"Molecular Weight": "170.59", "Molecular Formula": "C8H7ClO2", "Boiling Point": "126 \u00b0C @ Press: 16 Torr", "Melting Point": "50-51 \u00b0C"}}