{"cas_no": "6921-98-8", "cn_name": "\u4e9a\u7532\u57fa\u4e8c\u7532\u916f", "en_name": ["N,N\u2032-Methylenebis[formamide]", "Formamide, N,N\u2032-methylenebis-", "N,N\u2032-Methylenebis[formamide]", "Methylenebisformamide", "Methylenediformamide", "N,N\u2032-Methylenebisformamide", "N,N\u2032-Methylenediformamide", "Bis(formylamino)methane", "NSC 21313"], "SMILES": "C(NC=O)NC=O", "physical_data": {"Molecular Weight": "102.09", "Molecular Formula": "C3H6N2O2", "Melting Point": "142-143 \u00b0C"}}