{"cas_no": "6921-64-8", "cn_name": "2'-\u7f9f\u57fa-4'-\u7532\u57fa\u82ef\u4e59\u916e", "en_name": ["2\u2032-Hydroxy-4\u2032-methylacetophenone", "Ethanone, 1-(2-hydroxy-4-methylphenyl)-", "Acetophenone, 2\u2032-hydroxy-4\u2032-methyl-", "1-(2-Hydroxy-4-methylphenyl)ethanone", "2\u2032-Hydroxy-4\u2032-methylacetophenone", "2-Acetyl-5-methylphenol", "4\u2032-Methyl-2\u2032-hydroxyacetophenone", "2-Hydroxy-4-methylphenyl methyl ketone", "BP 3 (light stabilizer)", "BP 3", "1-(2-Hydroxy-4-methylphenyl)ethan-1-one"], "SMILES": "C(C)(=O)C1=C(O)C=C(C)C=C1", "physical_data": {"Molecular Weight": "150.17", "Molecular Formula": "C9H10O2", "Boiling Point": "245 \u00b0C", "Melting Point": "21 \u00b0C"}}