{"cas_no": "6921-27-3", "cn_name": "\u4e8c\u4e19\u7094\u57fa\u919a", "en_name": ["3,3\u2032-Oxybis[1-propyne]", "1-Propyne, 3,3\u2032-oxybis-", "2-Propynyl ether", "3,3\u2032-Oxybis[1-propyne]", "Propargyl ether", "Dipropargyl ether", "Dipropargyl oxide", "3-[(Prop-2-ynyl)oxy]propyne", "4-Oxa-1,6-heptadiyne", "Bis(2-propynyl) ether", "3-Prop-2-ynoxyprop-1-yne"], "SMILES": "O(CC#C)CC#C", "physical_data": {"Molecular Weight": "94.11", "Molecular Formula": "C6H6O", "Boiling Point": "119-120 \u00b0C", "Density": "0.9266 g/cm\u00b3 @ Temp: 20 \u00b0C"}}