{"cas_no": "6921-29-5", "cn_name": "\u4e09\u7094\u4e19\u57fa\u80fa", "en_name": ["Tripropargylamine", "2-Propyn-1-amine, N,N-di-2-propyn-1-yl-", "Tri-2-propynylamine", "2-Propyn-1-amine, N,N-di-2-propynyl-", "N,N-Di-2-propyn-1-yl-2-propyn-1-amine", "Tripropargylamine", "NSC 76089", "Tri(prop-2-yn-1-yl)amine"], "SMILES": "N(CC#C)(CC#C)CC#C", "physical_data": {"Molecular Weight": "131.17", "Molecular Formula": "C9H9N", "Boiling Point": "79-85 \u00b0C", "Density": "0.922 g/cm\u00b3 @ Temp: 16 \u00b0C"}}