{"cas_no": "6921-35-3", "cn_name": "3,3-\u4e8c\u7532\u57fa\u4e59\u6c27", "en_name": ["3,3-Dimethyloxetane", "Oxetane, 3,3-dimethyl-", "Propane, 1,3-epoxy-2,2-dimethyl-", "3,3-Dimethyloxetane", "3,3-Dimethyltrimethylene oxide", "3,3-Dimethyloxacyclobutane", "\u03b2,\u03b2-Dimethyloxetane"], "SMILES": "CC1(C)COC1", "physical_data": {"Molecular Weight": "86.13", "Molecular Formula": "C5H10O", "Boiling Point": "80.6 \u00b0C", "Density": "0.8348 g/cm\u00b3 @ Temp: 20 \u00b0C"}}