{"cas_no": "6921-45-5", "cn_name": "1-(4-\u73af\u4e19\u57fa\u82ef\u57fa)\u4e59\u916e", "en_name": ["1-(4-Cyclopropylphenyl)ethanone", "Ethanone, 1-(4-cyclopropylphenyl)-", "Acetophenone, 4\u2032-cyclopropyl-", "1-(4-Cyclopropylphenyl)ethanone", "p-Cyclopropylacetophenone", "4\u2032-Cyclopropylacetophenone", "NSC 98349", "1-Acetyl-4-cyclopropylbenzene"], "SMILES": "C(C)(=O)C1=CC=C(C2CC2)C=C1", "physical_data": {"Molecular Weight": "160.21", "Molecular Formula": "C11H12O", "Boiling Point": "114-119 \u00b0C @ Press: 2.5-2.9 Torr", "Melting Point": "35-36 \u00b0C"}}