{"cas_no": "69214-19-3", "cn_name": "2-\u6c28\u57fa-6-\u6c2f-3-\u82ef\u57fa\u5421\u5576", "en_name": ["6-Chloro-3-phenyl-2-pyridinamine", "2-Pyridinamine, 6-chloro-3-phenyl-", "6-Chloro-3-phenyl-2-pyridinamine", "2-Amino-6-chloro-3-phenylpyridine", "6-Chloro-3-phenylpyridin-2-amine"], "SMILES": "NC1=C(C2=CC=CC=C2)C=CC(Cl)=N1", "physical_data": {"Molecular Weight": "204.66", "Molecular Formula": "C11H9ClN2", "Melting Point": "155-157 \u00b0C"}}