{"cas_no": "6921-28-4", "cn_name": "\u4e8c\u7094\u4e19\u80fa", "en_name": ["Dipropargylamine", "2-Propyn-1-amine, N-2-propyn-1-yl-", "Di-2-propynylamine", "2-Propyn-1-amine, N-2-propynyl-", "N-2-Propyn-1-yl-2-propyn-1-amine", "Dipropargylamine", "4-Azahepta-1,6-diyne", "NSC 80652", "N,N-Di(prop-2-ynyl)amine", "Di(prop-2-yn-1-yl)amine"], "SMILES": "N(CC#C)CC#C", "physical_data": {"Molecular Weight": "93.13", "Molecular Formula": "C6H7N", "Boiling Point": "51 \u00b0C @ Press: 10 Torr", "Density": "0.901 g/cm\u00b3 @ Temp: 16 \u00b0C"}}