{"cas_no": "6921-34-2", "cn_name": "\u82c4\u57fa\u6c2f\u5316\u9541", "en_name": ["Chloro(phenylmethyl)magnesium", "Magnesium, chloro(phenylmethyl)-", "Magnesium, benzylchloro-", "Benzylmagnesium chloride", "Benzene, methyl-, magnesium complex", "Chloro(phenylmethyl)magnesium", "Benzylchloromagnesium", "(Phenylmethyl)magnesium chloride"], "SMILES": "C([Mg]Cl)C1=CC=CC=C1", "physical_data": {"Molecular Weight": "", "Molecular Formula": "C7H7ClMg", "Boiling Point": "182 \u00b0C @ Press: 16 Torr"}}