{"cas_no": "69225-59-8", "cn_name": "3,3-\u4e8c\u7532\u57fa-1,5-\u4e8c\u6c27\u6742\u87ba[5.5]\u5341\u4e00\u70f7-9-\u916e", "en_name": ["3,3-Dimethyl-1,5-dioxaspiro[5.5]undecan-9-one", "1,5-Dioxaspiro[5.5]undecan-9-one, 3,3-dimethyl-", "3,3-Dimethyl-1,5-dioxaspiro[5.5]undecan-9-one", "1,4-Cyclohexanedione mono(2,2-dimethyltrimethylene ketal)"], "SMILES": "CC1(C)COC2(OC1)CCC(=O)CC2", "physical_data": {"Molecular Weight": "198.26", "Molecular Formula": "C11H18O3", "Boiling Point": "70 \u00b0C @ Press: 0.05 Torr", "Melting Point": "48-49.5 \u00b0C"}}