{"cas_no": "69227-93-6", "cn_name": "\u5341\u4e8c\u70f7\u57fa-\u03b2-D-\u9ea6\u82bd\u7cd6\u82f7", "en_name": ["Dodecyl \u03b2-D-maltoside", "\u03b2-D-Glucopyranoside, dodecyl 4-O-\u03b1-D-glucopyranosyl-", "Dodecyl 4-O-\u03b1-D-glucopyranosyl-\u03b2-D-glucopyranoside", "Dodecyl \u03b2-maltoside", "1-Dodecyl-\u03b2-D-maltoside", "Dodecyl O-\u03b2-D-maltoside", "Dodecyl \u03b2-D-maltopyranoside", "Dodecyl maltoside", "Lauryl \u03b2-D-maltoside", "Dodecyl \u03b2-D-maltoside", "\u03b2-1-n-Dodecyl-D-maltoside", "Lauryl \u03b2-maltoside", "n-Dodecyl \u03b2-D-maltoside", "Dodecyl \u03b2-maltopyranoside", "Lauryl maltoside", "Lauryl \u03b2-D-maltopyranoside", "Lauryl \u03b2-maltopyranoside", "n-Dodecyl \u03b2-D-maltopyranoside", "DDM", "DDM (detergent)", "D 316"], "SMILES": "O(C1C(CO)OC(OCCCCCCCCCCCC)C(O)C1O)C2OC(CO)C(O)C(O)C2O", "physical_data": {"Molecular Weight": "510.62", "Molecular Formula": "C24H46O11", "Melting Point": "240 \u00b0C"}}