{"cas_no": "69221-14-3", "cn_name": "N-\u82c4\u57fa\u6c2f\u5316\u8f9b\u53ef\u5b81", "en_name": ["Cinchonanium, 9-hydroxy-1-(phenylmethyl)-, chloride, (9S)-", "Cinchonanium, 9-hydroxy-1-(phenylmethyl)-, chloride, (9S)-", "(+)-1-Benzylcinchoninium chloride", "1-Benzylcinchoninium chloride", "N-Benzylcinchoninium chloride", "(+)-N-Benzylcinchoninium chloride", "(+)-N-Benzylcinchonine chloride", "N-Benzylcinchonium chloride", "(+)-N-Benzylcinchonadinium chloride"], "SMILES": "C([N+]12C(C(O)C=3C4=C(N=CC3)C=CC=C4)CC(C(C=C)C1)CC2)C5=CC=CC=C5.[Cl-]", "physical_data": {"Molecular Weight": "", "Molecular Formula": "C26H29N2O.Cl", "Melting Point": "256 \u00b0C"}}