{"cas_no": "69227-51-6", "cn_name": "1-\u7532\u57fa-1-\u4e59\u57fa\u6eb4\u5316\u5421\u54af\u70f7", "en_name": ["N-Ethyl-N-methylpyrrolidinium bromide", "Pyrrolidinium, 1-ethyl-1-methyl-, bromide (1:1)", "Pyrrolidinium, 1-ethyl-1-methyl-, bromide", "N-Ethyl-N-methylpyrrolidinium bromide", "1-Ethyl-1-methylpyrrolidinium bromide"], "SMILES": "C(C)[N+]1(C)CCCC1.[Br-]", "physical_data": {"Molecular Weight": "", "Molecular Formula": "C7H16N.Br", "Melting Point": "106 \u00b0C"}}