{"cas_no": "6923-22-4", "cn_name": "\u4e45\u6548\u78f7", "en_name": ["Monocrotophos", "Phosphoric acid, dimethyl (1E)-1-methyl-3-(methylamino)-3-oxo-1-propen-1-yl ester", "Phosphoric acid, dimethyl ester, ester with 3-hydroxy-N-methylcrotonamide, (E)-", "Phosphoric acid, dimethyl 1-methyl-3-(methylamino)-3-oxo-1-propenyl ester, (E)-", "Phosphoric acid, dimethyl (1E)-1-methyl-3-(methylamino)-3-oxo-1-propenyl ester", "C 1414", "Azodrin", "Nuvacron", "SD 9129", "Monocrotophos", "Monochrotophos", "3-Hydroxy-N-methyl-cis-crotonamide dimethyl phosphate", "Nuvacron 20", "Monocil 40", "Corophos", "Croton 36", "Monocil", "Monicil", "Monostar", "Monocron", "Azodrin 60", "Parryfos", "Apadrin", "Monocos", "Nuvacron 36SL", "Azodrin 202R", "Kadett 36", "Kadett", "Monokrotofos", "Sufos", "Monodhan", "Devi", "Phytofos", "Jiuxiaolin", "MeSH ID: D008999"], "SMILES": "P(OC(=CC(NC)=O)C)(OC)(OC)=O", "physical_data": {"Molecular Weight": "223.16", "Molecular Formula": "C7H14NO5P", "Boiling Point": "125 \u00b0C @ Press: 760 Torr", "Melting Point": "54-55 \u00b0C", "Density": "122 g/cm\u00b3 @ Temp: 20 \u00b0C"}}