{"cas_no": "6924-72-7", "cn_name": "\u4e59\u57fa\u55b9\u5641\u5549-6-\u7fa7\u9178", "en_name": ["Ethyl 6-quinoxalinecarboxylate", "6-Quinoxalinecarboxylic acid, ethyl ester", "Ethyl 6-quinoxalinecarboxylate"], "SMILES": "C(OCC)(=O)C1=CC2=C(C=C1)N=CC=N2", "physical_data": {"Molecular Weight": "202.21", "Molecular Formula": "C11H10N2O2", "Melting Point": "66 \u00b0C"}}