{"cas_no": "6924-68-1", "cn_name": "\u5421\u55ea-2-\u7fa7\u9178\u4e59\u916f", "en_name": ["2-Pyrazinecarboxylic acid, ethyl ester", "2-Pyrazinecarboxylic acid, ethyl ester", "Pyrazinecarboxylic acid, ethyl ester", "Pyrazinoic acid, ethyl ester", "Ethyl pyrazinecarboxylate", "Ethyl 2-pyrazinecarboxylate", "Ethyl pyrazinoate"], "SMILES": "C(OCC)(=O)C=1C=NC=CN1", "physical_data": {"Molecular Weight": "152.15", "Molecular Formula": "C7H8N2O2", "Boiling Point": "120-122 \u00b0C @ Press: 6 Torr", "Melting Point": "49 \u00b0C"}}