{"cas_no": "69257-04-1", "cn_name": "N-\u82c4\u57fa\u6c2f\u5316\u8f9b\u53ef\u5b81\u4e01", "en_name": ["Cinchonanium, 9-hydroxy-1-(phenylmethyl)-, chloride, (8\u03b1,9R)-", "Cinchonanium, 9-hydroxy-1-(phenylmethyl)-, chloride, (8\u03b1,9R)-", "(-)-1-Benzylcinchonidinium chloride", "1-Benzylcinchonidinium chloride", "(-)-N-Benzylcinchonidinium chloride", "N-Benzylcinchonidinium chloride", "(8S,9R)-(-)-N-Benzylcinchonidinium chloride", "(-)-N-Benzylcinchonadinium chloride"], "SMILES": "C([N+]12C(C(O)C=3C4=C(N=CC3)C=CC=C4)CC(C(C=C)C1)CC2)C5=CC=CC=C5.[Cl-]", "physical_data": {"Molecular Weight": "", "Molecular Formula": "C26H29N2O.Cl", "Melting Point": "173 \u00b0C"}}