{"cas_no": "6926-08-5", "cn_name": "\u54c8\u5df4\u82f7", "en_name": ["Harpagide", "\u03b2-D-Glucopyranoside, (1S,4aS,5R,7S,7aR)-1,4a,5,6,7,7a-hexahydro-4a,5,7-trihydroxy-7-methylcyclopenta[c]pyran-1-yl", "Glucopyranoside, 1\u03b2,4a,5,6,7,7a\u03b1-hexahydro-4a\u03b1,5\u03b1,7\u03b1-trihydroxy-7-methylcyclopenta[c]pyran-1-yl, \u03b2-D-", "Harpagide", "\u03b2-D-Glucopyranoside, 1,4a,5,6,7,7a-hexahydro-4a,5,7-trihydroxy-7-methylcyclopenta[c]pyran-1-yl, [1S-(1\u03b1,4a\u03b1,5\u03b1,7\u03b1,7a\u03b1)]-", "(1S,4aS,5R,7S,7aR)-1,4a,5,6,7,7a-Hexahydro-4a,5,7-trihydroxy-7-methylcyclopenta[c]pyran-1-yl \u03b2-D-glucopyranoside"], "SMILES": "OC12C(C(OC3OC(CO)C(O)C(O)C3O)OC=C1)C(C)(O)CC2O", "physical_data": {"Molecular Weight": "364.35", "Molecular Formula": "C15H24O10", "Melting Point": "129-130 \u00b0C"}}