{"cas_no": "6926-14-3", "cn_name": "8-O-\u4e59\u9170\u54c8\u5df4\u82f7", "en_name": ["8-O-Acetylharpagide", "\u03b2-D-Glucopyranoside, (1S,4aS,5R,7S,7aS)-7-(acetyloxy)-1,4a,5,6,7,7a-hexahydro-4a,5-dihydroxy-7-methylcyclopenta[c]pyran-1-yl", "Glucopyranoside, 1\u03b2,4a,5,6,7,7a\u03b1-hexahydro-4a\u03b1,5\u03b1,7\u03b1-trihydroxy-7-methylcyclopenta[c]pyran-1-yl, 7-acetate, \u03b2-D-", "\u03b2-D-Glucopyranoside, 7-(acetyloxy)-1,4a,5,6,7,7a-hexahydro-4a,5-dihydroxy-7-methylcyclopenta[c]pyran-1-yl, [1S-(1\u03b1,4a\u03b1,5\u03b1,7\u03b1,7a\u03b1)]-", "Harpagide, 8-acetate", "(1S,4aS,5R,7S,7aS)-7-(Acetyloxy)-1,4a,5,6,7,7a-hexahydro-4a,5-dihydroxy-7-methylcyclopenta[c]pyran-1-yl \u03b2-D-glucopyranoside", "8-O-Acetylharpagide", "8-Acetylharpagide", "Harpagide acetate"], "SMILES": "OC12C(C(OC3OC(CO)C(O)C(O)C3O)OC=C1)C(OC(C)=O)(C)CC2O", "physical_data": {"Molecular Weight": "406.38", "Molecular Formula": "C17H26O11", "Melting Point": "225-228 \u00b0C"}}