{"cas_no": "6926-51-8", "cn_name": "5-(4-\u7532\u6c27\u57fa\u82ef\u57fa)-1H-\u56db\u5511", "en_name": ["5-(4-Methoxyphenyl)-2H-tetrazole", "2H-Tetrazole, 5-(4-methoxyphenyl)-", "1H-Tetrazole, 5-(p-methoxyphenyl)-", "1H-Tetrazole, 5-(4-methoxyphenyl)-", "5-(4-Methoxyphenyl)-2H-tetrazole", "5-(p-Methoxyphenyl)tetrazole", "5-(p-Methoxyphenyl)-1H-tetrazole", "5-(4-Methoxyphenyl)tetrazole", "5-p-Anisyltetrazole", "5-(4-Methoxyphenyl)-1H-tetrazole", "NSC 206225"], "SMILES": "O(C)C1=CC=C(C=C1)C=2NN=NN2", "physical_data": {"Molecular Weight": "176.18", "Molecular Formula": "C8H8N4O", "Melting Point": "231-232 \u00b0C"}}