{"cas_no": "6928-85-4", "cn_name": "1-\u6c28\u57fa-4-\u7532\u57fa\u54cc\u55ea", "en_name": ["1-Amino-4-methylpiperazine", "1-Piperazinamine, 4-methyl-", "Piperazine, 1-amino-4-methyl-", "4-Methyl-1-piperazinamine", "1-Amino-4-methylpiperazine", "1-Methyl-4-aminopiperazine", "4-Methyl-1-aminopiperazine", "N-Amino-N\u2032-methylpiperazine", "N1-Methyl-N4-aminopiperazine", "NSC 80649", "(4-Methylpiperazin-1-yl)amine", "4-Amino-1-methylpiperazine"], "SMILES": "CN1CCN(N)CC1", "physical_data": {"Molecular Weight": "115.18", "Molecular Formula": "C5H13N3", "Boiling Point": "172-175 \u00b0C @ Press: 760 Torr"}}