{"cas_no": "6928-67-2", "cn_name": "\u56db\u6c2f\u90bb\u82ef\u4e8c\u7532\u9178\u4e8c\u4e19\u916f", "en_name": ["Dipropyl tetrachlorophthalate", "1,2-Benzenedicarboxylic acid, 3,4,5,6-tetrachloro-, 1,2-dipropyl ester", "Phthalic acid, tetrachloro-, dipropyl ester", "1,2-Benzenedicarboxylic acid, 3,4,5,6-tetrachloro-, dipropyl ester", "Dipropyl tetrachlorophthalate", "NSC 83596", "1,2-Dipropyl 3,4,5,6-tetrachlorobenzene-1,2-dicarboxylate"], "SMILES": "C(OCCC)(=O)C1=C(C(OCCC)=O)C(Cl)=C(Cl)C(Cl)=C1Cl", "physical_data": {"Molecular Weight": "388.07", "Molecular Formula": "C14H14Cl4O4", "Boiling Point": "191 \u00b0C @ Press: 2 Torr", "Melting Point": "26 \u00b0C", "Density": "1.37 g/cm\u00b3 @ Temp: 20 \u00b0C"}}