{"cas_no": "6929-08-4", "cn_name": "3-\u5341\u4e00\u9187", "en_name": ["3-Undecanol", "3-Undecanol", "dl-Undecan-3-ol", "(\u00b1)-3-Undecanol", "NSC 158504"], "SMILES": "C(CCC(CC)O)CCCCC", "physical_data": {"Molecular Weight": "172.31", "Molecular Formula": "C11H24O", "Boiling Point": "82-84 \u00b0C @ Press: 0.6 Torr"}}