{"cas_no": "693-13-0", "cn_name": "N,N'-\u4e8c\u5f02\u4e19\u57fa\u78b3\u4e8c\u4e9a\u80fa", "en_name": ["Diisopropylcarbodiimide", "2-Propanamine, N,N\u2032-methanetetraylbis-", "Carbodiimide, diisopropyl-", "N,N\u2032-Methanetetraylbis[2-propanamine]", "N,N\u2032-Diisopropylcarbodiimide", "Diisopropylcarbodiimide", "1,3-Diisopropylcarbodiimide", "DIC", "DIPC", "NSC 42080", "DIPCDI", "DIPCI", "N,N\u2032-Diisopropylmethanediimine", "(Propan-2-yl)([[(propan-2-yl)imino]methylidene])amine", "N,N\u2032-Methane-tetraylbis(1-methylethylamine)"], "SMILES": "C(=NC(C)C)=NC(C)C", "physical_data": {"Molecular Weight": "126.20", "Molecular Formula": "C7H14N2", "Boiling Point": "147 \u00b0C"}}