{"cas_no": "693-16-3", "cn_name": "2-\u8f9b\u80fa", "en_name": ["(\u00b1)-2-Octanamine", "2-Octanamine", "Heptylamine, 1-methyl-", "2-Aminooctane", "2-Octylamine", "1-Methylheptylamine", "(\u00b1)-2-Octanamine", "(\u00b1)-2-Aminooctane", "dl-2-Octylamine", "dl-2-Aminooctane", "(RS)-1-methylheptylamine", "(RS)-2-Octylamine", "(\u00b1)-2-Octylamine", "NSC 76546"], "SMILES": "C(CC(C)N)CCCC", "physical_data": {"Molecular Weight": "129.24", "Molecular Formula": "C8H19N", "Boiling Point": "48 \u00b0C @ Press: 9 Torr", "Melting Point": "82-83 \u00b0C", "Density": "0.7829 g/cm\u00b3 @ Temp: 20 \u00b0C"}}