{"cas_no": "693-80-1", "cn_name": "\u6cb9\u9187\u4e59\u9178\u916f", "en_name": ["Oleyl acetate", "9-Octadecen-1-ol, 1-acetate, (9Z)-", "9-Octadecen-1-ol, acetate, (Z)-", "9-Octadecen-1-ol, acetate, (9Z)-", "cis-9-Octadecen-1-yl acetate", "cis-9-Octadecenyl acetate", "(Z)-9-Octadecenyl acetate", "Oleyl acetate", "(Z)-9-Octadecenyl acetate"], "SMILES": "C(CCC=CCCCCCCCC)CCCCCOC(C)=O", "physical_data": {"Molecular Weight": "310.51", "Molecular Formula": "C20H38O2", "Boiling Point": "217-220 \u00b0C @ Press: 15 Torr"}}