{"cas_no": "693-93-6", "cn_name": "4-\u7532\u57fa\u6076\u5511", "en_name": ["4-Methyloxazole", "Oxazole, 4-methyl-", "4-Methyloxazole"], "SMILES": "CC1=COC=N1", "physical_data": {"Molecular Weight": "83.09", "Molecular Formula": "C4H5NO", "Boiling Point": "88 \u00b0C"}}