{"cas_no": "693-21-0", "cn_name": "\u4e8c\u7518\u9187\u4e8c\u785d\u9178\u916f", "en_name": ["Diethylene glycol dinitrate", "Ethanol, 2,2\u2032-oxybis-, 1,1\u2032-dinitrate", "Diethylene glycol, dinitrate", "Ethanol, 2,2\u2032-oxybis-, dinitrate", "Diglycol dinitrate", "Dinitrodiglycol", "Oxydiethylene nitrate", "2,2\u2032-Oxydiethanol dinitrate", "DEGDN", "DEGN", "Diethylene glycol dinitrate", "2-(2-Nitrooxyethoxy)ethyl Nitrate"], "SMILES": "C(ON(=O)=O)COCCON(=O)=O", "physical_data": {"Molecular Weight": "196.12", "Molecular Formula": "C4H8N2O7", "Boiling Point": "139 \u00b0C @ Press: 7 Torr", "Melting Point": "2 \u00b0C", "Density": "1.3890 g/cm\u00b3 @ Temp: 16 \u00b0C"}}