{"cas_no": "693-23-2", "cn_name": "\u5341\u4e8c\u70f7\u4e8c\u9178", "en_name": ["Dodecanedioic acid", "Dodecanedioic acid", "1,10-Decanedicarboxylic acid", "1,12-Dodecanedioic acid", "Decamethylenedicarboxylic acid", "1,10-Dicarboxydecane", "n-Dodecanedioic acid", "SL-AH", "Corfree M 2", "n-Dodecane-\u03b1,\u03c9-dioic acid", "NSC 400242", "LCA 141"], "SMILES": "C(CC(O)=O)CCCCCCCCC(O)=O", "physical_data": {"Molecular Weight": "230.30", "Molecular Formula": "C12H22O4", "Boiling Point": "205-210 \u00b0C @ Press: 1 Torr", "Melting Point": "130-132 \u00b0C"}}