{"cas_no": "693-38-9", "cn_name": "\u68d5\u6988\u9178\u4e59\u70ef\u916f", "en_name": ["Vinyl palmitate", "Hexadecanoic acid, ethenyl ester", "Palmitic acid, vinyl ester", "Vinyl palmitate", "Vinyl hexadecanoate"], "SMILES": "C(CCCCCCCCCCCCC)CC(OC=C)=O", "physical_data": {"Molecular Weight": "282.46", "Molecular Formula": "C18H34O2", "Boiling Point": "165 \u00b0C", "Melting Point": "26-27 \u00b0C", "Density": "0.8612 g/cm\u00b3 @ Temp: 20 \u00b0C"}}