{"cas_no": "693-95-8", "cn_name": "4-\u7532\u57fa\u567b\u5511", "en_name": ["4-Methylthiazole", "Thiazole, 4-methyl-", "4-Methylthiazole", "NSC 42976", "4-Methyl-1,3-thiazole"], "SMILES": "CC1=CSC=N1", "physical_data": {"Molecular Weight": "99.15", "Molecular Formula": "C4H5NS", "Boiling Point": "132 \u00b0C @ Press: 743 Torr", "Density": "1.112 g/cm\u00b3 @ Temp: 25 \u00b0C"}}