{"cas_no": "693-54-9", "cn_name": "2-\u7678\u916e", "en_name": ["2-Decanone", "2-Decanone", "Methyl octyl ketone", "Methyl n-octyl ketone", "Octyl methyl ketone"], "SMILES": "C(CCCCC)CCC(C)=O", "physical_data": {"Molecular Weight": "156.27", "Molecular Formula": "C10H20O", "Boiling Point": "210 \u00b0C", "Melting Point": "14 \u00b0C", "Density": "0.8230 g/cm\u00b3 @ Temp: 22 \u00b0C"}}