{"cas_no": "693-07-2", "cn_name": "2-\u6c2f\u4e59\u57fa\u4e59\u57fa\u786b\u919a", "en_name": ["2-Chloroethyl ethyl sulfide", "Ethane, 1-chloro-2-(ethylthio)-", "Sulfide, 2-chloroethyl ethyl", "1-Chloro-2-(ethylthio)ethane", "2-Chloroethyl ethyl sulfide", "Ethyl 2-chloroethyl sulfide", "2-Ethylthioethyl chloride", "2-(Ethylthio)chloroethane", "2-Chloroethyl ethyl thioether", "2-Chlorodiethyl sulfide", "H-MG", "Half-sulfur mustard", "1-Chloro-2-(ethylsulfanyl)ethane", "NSC 10977"], "SMILES": "C(SCC)CCl", "physical_data": {"Molecular Weight": "124.63", "Molecular Formula": "C4H9ClS", "Boiling Point": "156 \u00b0C", "Density": "1.0663 g/cm\u00b3 @ Temp: 20 \u00b0C"}}