{"cas_no": "693-55-0", "cn_name": "\u7678\u4e8c\u9178\u6c22\u4e59\u916f", "en_name": ["1-Ethyl decanedioate", "Decanedioic acid, 1-ethyl ester", "Sebacic acid, monoethyl ester", "Decanedioic acid, monoethyl ester", "Sebacic acid, ethyl ester", "1-Ethyl decanedioate", "Monoethyl sebacate", "Ethyl hydrogen sebacate", "Ethyl sebacate", "NSC 53961", "10-Ethoxy-10-oxodecanoic acid"], "SMILES": "C(CCCCCC(O)=O)CCC(OCC)=O", "physical_data": {"Molecular Weight": "230.30", "Molecular Formula": "C12H22O4", "Boiling Point": "210 \u00b0C @ Press: 18 Torr", "Melting Point": "36 \u00b0C"}}