{"cas_no": "693-65-2", "cn_name": "\u620a\u919a(\u620a\u4e8c\u919a)", "en_name": ["Pentyl ether", "Pentane, 1,1\u2032-oxybis-", "Pentyl ether", "1,1\u2032-Oxybis[pentane]", "Amyl ether", "n-Amyl ether", "Diamyl ether", "Di-n-amyl ether", "Dipentyl ether", "n-Pentyl ether", "Di-n-Pentyl ether", "Bis(1-pentyl) ether", "1,1-Dipentyl ether", "NSC 6571", "1-Pentoxypentane"], "SMILES": "O(CCCCC)CCCCC", "physical_data": {"Molecular Weight": "158.28", "Molecular Formula": "C10H22O", "Boiling Point": "190 \u00b0C", "Melting Point": "-69 \u00b0C", "Density": "0.7864 g/cm\u00b3 @ Temp: 15 \u00b0C"}}