{"cas_no": "693-03-8", "cn_name": "\u4e01\u57fa\u6eb4\u5316\u9541", "en_name": ["Butylmagnesium bromide", "Magnesium, bromobutyl-", "Butylmagnesium bromide", "Bromobutylmagnesium", "n-Butylmagnesium bromide", "1-Butylmagnesium bromide"], "SMILES": "C(C[Mg]Br)CC", "physical_data": {"Molecular Weight": "", "Molecular Formula": "C4H9BrMg", "Boiling Point": "128-131 \u00b0C @ Press: 0.2 Torr", "Melting Point": "80.5-81 \u00b0C"}}