{"cas_no": "693-89-0", "cn_name": "1-\u7532\u57fa\u73af\u620a\u70ef", "en_name": ["1-Methylcyclopentene", "Cyclopentene, 1-methyl-", "1-Methylcyclopentene", "1-Methyl-1-cyclopentene", "NSC 64657"], "SMILES": "CC=1CCCC1", "physical_data": {"Molecular Weight": "82.14", "Molecular Formula": "C6H10", "Boiling Point": "75.5 \u00b0C", "Melting Point": "-126.5 \u00b0C", "Density": "0.7979 g/cm\u00b3 @ Temp: 0 \u00b0C"}}