{"cas_no": "693-57-2", "cn_name": "12-\u6c28\u57fa\u5341\u4e8c\u9178", "en_name": ["12-Aminododecanoic acid", "Dodecanoic acid, 12-amino-", "12-Aminododecanoic acid", "\u03bb-Aminolauric acid", "\u03c9-Aminolauric acid", "12-Aminolauric acid", "\u03c9-Aminododecanoic acid", "ADA", "12-Amindodecanoic acid"], "SMILES": "C(CCCCCCCCN)CCC(O)=O", "physical_data": {"Molecular Weight": "215.33", "Molecular Formula": "C12H25NO2", "Melting Point": "184 \u00b0C"}}