{"cas_no": "693-04-9", "cn_name": "\u6b63\u4e01\u57fa\u6c2f\u5316\u9541", "en_name": ["Butylmagnesium chloride", "Magnesium, butylchloro-", "Butylmagnesium chloride", "Butylchloromagnesium", "n-Butylmagnesium chloride", "Butylmagnesiumm chloride"], "SMILES": "C(C[Mg]Cl)CC", "physical_data": {"Molecular Weight": "", "Molecular Formula": "C4H9ClMg", "Boiling Point": "132-134 \u00b0C @ Press: 1 Torr", "Melting Point": "210 \u00b0C (decomp)"}}