{"cas_no": "693-72-1", "cn_name": "\u53cd\u5f0f-11-\u5341\u516b\u70ef\u9178", "en_name": ["Vaccenic acid", "11-Octadecenoic acid, (11E)-", "11-Octadecenoic acid, (E)-", "Vaccenic acid", "(11E)-11-Octadecenoic acid", "trans-11-Octadecenoic acid", "trans-Vaccenic acid", "(E)-11-Octadecenoic acid", "trans-\u039411-Octadecenoic acid", "11-trans-Octadecenoic acid", "11(E)-Octadecenoic acid", "(E)-Octadec-11-enoic acid"], "SMILES": "C(CCCC=CCCCCCC)CCCCCC(O)=O", "physical_data": {"Molecular Weight": "282.46", "Molecular Formula": "C18H34O2", "Boiling Point": "125 \u00b0C @ Press: 0.1 Torr", "Melting Point": "44 \u00b0C"}}