{"cas_no": "693-98-1", "cn_name": "2-\u7532\u57fa\u54aa\u5511", "en_name": ["2-Methylimidazole", "1H-Imidazole, 2-methyl-", "Imidazole, 2-methyl-", "2-Methyl-1H-imidazole", "2-Methylimidazole", "Curezol 2MZ", "2MZ", "Denka CN 25", "Actiron 2MI", "NSC 21394", "1H-2-Methylimidazole", "Curezol 2MZ-P", "Epicure MI 2", "Epikure MI 2", "Imicure AMI 2", "2MZ-H", "2MZ-PW", "Dyhard MI-FF", "2MI", "Curezol 2MZ-H", "MI 2"], "SMILES": "CC=1NC=CN1", "physical_data": {"Molecular Weight": "82.10", "Molecular Formula": "C4H6N2", "Boiling Point": "267 \u00b0C", "Melting Point": "144 \u00b0C"}}