{"cas_no": "693-83-4", "cn_name": "\u4e8c\u7678\u57fa\u786b\u9178\u916f", "en_name": ["1,1\u2032-Thiobis[decane]", "Decane, 1,1\u2032-thiobis-", "Decyl sulfide", "1,1\u2032-Thiobis[decane]", "Didecyl sulfide", "Di-n-decyl sulfide", "Di-n-decyl thioether", "NSC 408645", "Didecyl thioether", "1-Decylsulfanyldecane"], "SMILES": "S(CCCCCCCCCC)CCCCCCCCCC", "physical_data": {"Molecular Weight": "314.61", "Molecular Formula": "C20H42S", "Boiling Point": "206 \u00b0C @ Press: 8 Torr", "Melting Point": "27-27.5 \u00b0C", "Density": "0.8527 g/cm\u00b3 @ Temp: 20 \u00b0C"}}