{"cas_no": "693-58-3", "cn_name": "1-\u6eb4\u58ec\u70f7", "en_name": ["1-Bromononane", "Nonane, 1-bromo-", "1-Bromononane", "Nonyl bromide", "n-Nonyl bromide", "1-n-Nonyl bromide", "1-Nonyl bromide", "1-Bromo-n-nonane", "NSC 5519"], "SMILES": "C(CCCCC)CCCBr", "physical_data": {"Molecular Weight": "207.15", "Molecular Formula": "C9H19Br", "Boiling Point": "88 \u00b0C", "Melting Point": "-29.06 \u00b0C", "Density": "1.0864 g/cm\u00b3 @ Temp: 20 \u00b0C"}}