{"cas_no": "693-67-4", "cn_name": "1-\u6eb4\u7678\u70f7", "en_name": ["1-Bromoundecane", "Undecane, 1-bromo-", "1-Bromoundecane", "Undecyl bromide", "n-Undecyl bromide", "1-Undecyl bromide", "1-Bromo-n-undecane"], "SMILES": "C(CCCCCC)CCCCBr", "physical_data": {"Molecular Weight": "235.20", "Molecular Formula": "C11H23Br", "Boiling Point": "137-138 \u00b0C", "Melting Point": "-9 \u00b0C", "Density": "1.0521 g/cm\u00b3 @ Temp: 20 \u00b0C"}}