{"cas_no": "693-25-4", "cn_name": "\u620a\u70f7\u6eb4\u5316\u9541", "en_name": ["Pentylmagnesium bromide", "Magnesium, bromopentyl-", "Pentylmagnesium bromide", "Bromopentylmagnesium", "1-Pentylmagnesium bromide", "n-Pentylmagnesium bromide", "Amylmagnesium bromide"], "SMILES": "C(CCC)C[Mg]Br", "physical_data": {"Molecular Weight": "", "Molecular Formula": "C5H11BrMg", "Boiling Point": "135-137 \u00b0C @ Press: 0.2 Torr", "Melting Point": "76.5-77.5 \u00b0C"}}