{"cas_no": "693-05-0", "cn_name": "3-\u7532\u80fa\u57fa\u4e19\u8148", "en_name": ["3-(Methylamino)propanenitrile", "Propanenitrile, 3-(methylamino)-", "Propionitrile, 3-(methylamino)-", "3-(Methylamino)propanenitrile", "\u03b2-(Methylamino)propionitrile", "N-(\u03b2-Cyanoethyl)methylamine", "3-(Methylamino)propionitrile", "(2-Cyanoethyl)methylamine", "N-Methyl-\u03b2-aminopropionitrile", "N-Methyl-2-cyanoethylamine", "N-Methyl-\u03b2-alaninenitrile", "N-Methyl-N-(2-cyanoethyl)amine", "3-(N-Methylamino)propionitrile", "N-(2-Cyanoethyl)methylamine", "Methyl(2-cyanoethyl)amine", "NSC 8399", "N-(2-Cyanoethyl)-N-methylamine", "3-Methylaminopropiononitrile"], "SMILES": "C(CNC)C#N", "physical_data": {"Molecular Weight": "84.12", "Molecular Formula": "C4H8N2", "Boiling Point": "101-104 \u00b0C @ Press: 49 Torr", "Melting Point": "49-50 \u00b0C"}}