{"cas_no": "693-02-7", "cn_name": "1-\u5df1\u7094", "en_name": ["1-Hexyne", "1-Hexyne", "Butylacetylene", "n-Butylacetylene", "NSC 9709"], "SMILES": "C(CC#C)CC", "physical_data": {"Molecular Weight": "82.14", "Molecular Formula": "C6H10", "Boiling Point": "71.3 \u00b0C", "Melting Point": "-131.9 \u00b0C", "Density": "0.7193 g/cm\u00b3 @ Temp: 15 \u00b0C"}}