{"cas_no": "693-19-6", "cn_name": "\u5f02\u58ec\u9178", "en_name": ["7-Methyloctanoic acid", "Octanoic acid, 7-methyl-", "7-Methyloctanoic acid", "Isopelargonic acid", "Isononanoic acid"], "SMILES": "C(CC(C)C)CCCC(O)=O", "physical_data": {"Molecular Weight": "158.24", "Molecular Formula": "C9H18O2", "Boiling Point": "140.5 \u00b0C @ Press: 15 Torr", "Melting Point": "3-5 \u00b0C"}}