{"cas_no": "693-36-7", "cn_name": "\u6297\u6c27\u5316\u5242DSTP", "en_name": ["Distearyl thiodipropionate", "Propanoic acid, 3,3\u2032-thiobis-, 1,1\u2032-dioctadecyl ester", "Propionic acid, 3,3\u2032-thiodi-, dioctadecyl ester", "Propanoic acid, 3,3\u2032-thiobis-, dioctadecyl ester", "Distearyl thiodipropionate", "Distearyl \u03b2,\u03b2\u2032-thiodipropionate", "Distearyl 3,3\u2032-thiodipropionate", "PS 802", "Plastanox STDP Antioxidant", "Advastab PS 802", "Dioctadecyl thiodipropionate", "Stearyl 3,3\u2032-thiodipropionate", "Plastanox STDP", "Dioctadecyl 3,3\u2032-thiodipropionate", "Advastab 802", "Distearyl \u03b2-thiodipropionate", "Cyanox STDP", "DSTDP", "Hostanox VP-SE 2", "Yoshinox DSTDP", "Irganox PS 802", "DSTP", "Hostanox SE 2", "Lusmit SS", "Naugard DSTDP", "Arbestab DSTDP", "Sumilizer TPS", "Seenox DS", "Antiox S", "Varox DSTDP", "Thio 1", "Evanstab 18", "Hostanox SE 4", "Irganox PS 802FL", "NSC 65493", "Distearyl-3,3-thiodipropionate", "Negonox DSTP", "Carstab DSTDP", "Yoshinox DSTP", "Lowinox DSTDP", "PS 802FL", "Irganox 802FD", "Antioxidant 802", "Cyanox OTDP", "DSTP Yoshitomi", "Irganox PS 802FD", "Songnox DSTDP", "Lasumit SG", "Antioxidant DSTP", "AO 180T", "Arenox DS", "Antioxidant DSTDP", "Rianox DSTP", "Mark DSTDP", "Jyanox DSTDP"], "SMILES": "C(SCCC(OCCCCCCCCCCCCCCCCCC)=O)CC(OCCCCCCCCCCCCCCCCCC)=O", "physical_data": {"Molecular Weight": "683.16", "Molecular Formula": "C42H82O4S", "Melting Point": "60 \u00b0C"}}