{"cas_no": "69308-37-8", "cn_name": "(R)-\u5df4\u6c2f\u82ac", "en_name": ["(-)-Baclofen", "Benzenepropanoic acid, \u03b2-(aminomethyl)-4-chloro-, (\u03b2R)-", "Benzenepropanoic acid, \u03b2-(aminomethyl)-4-chloro-, (R)-", "(\u03b2R)-\u03b2-(Aminomethyl)-4-chlorobenzenepropanoic acid", "l-Baclofen", "(-)-Baclofen", "(R)-Baclofen", "(R)-(-)-Baclofen", "(R)-4-Amino-3-(4-chlorophenyl)butanoic acid", "D-Baclofen", "R-(-)-Baclofen", "(R)-4-Amino-3-(4-chlorophenyl)butyric acid", "Arbaclofen", "STX 209", "AGI 006", "(R)-4-Amino-3-(4-chlorophenyl)butanoic acid", "(3R)-4-Amino-3-(4-chlorophenyl)butanoic acid"], "SMILES": "C(CC(O)=O)(CN)C1=CC=C(Cl)C=C1", "physical_data": {"Molecular Weight": "213.66", "Molecular Formula": "C10H12ClNO2", "Melting Point": "188-189 \u00b0C"}}