{"cas_no": "69304-45-6", "cn_name": "3,5-O-(1,1,3,3-\u56db\u5f02\u4e19\u57fa-1,3-\u4e8c\u7845\u6c27\u70f7)\u817a\u82f7", "en_name": ["3\u2032,5\u2032-O-[1,1,3,3-Tetrakis(1-methylethyl)-1,3-disiloxanediyl]adenosine", "Adenosine, 3\u2032,5\u2032-O-[1,1,3,3-tetrakis(1-methylethyl)-1,3-disiloxanediyl]-", "6H-Furo[3,2-f]-1,3,5,2,4-trioxadisilocin, adenosine deriv.", "3\u2032,5\u2032-O-[1,1,3,3-Tetrakis(1-methylethyl)-1,3-disiloxanediyl]adenosine"], "SMILES": "C(C)(C)[Si]1(C(C)C)O[Si](C(C)C)(C(C)C)OCC2C(O1)C(O)C(O2)N3C=4C(N=C3)=C(N)N=CN4", "physical_data": {"Molecular Weight": "509.75", "Molecular Formula": "C22H39N5O5Si2", "Melting Point": "143-145 \u00b0C"}}