{"cas_no": "69304-47-8", "cn_name": "\u6eb4\u592b\u5b9a", "en_name": ["Brivudine", "Uridine, 5-[(1E)-2-bromoethenyl]-2\u2032-deoxy-", "Uridine, 5-(2-bromoethenyl)-2\u2032-deoxy-, (E)-", "5-[(1E)-2-Bromoethenyl]-2\u2032-deoxyuridine", "BVDU", "(E)-5-(2-Bromovinyl)deoxyuridine", "(E)-5-O-(2-bromoethenyl)-2\u2032-deoxyuridine", "Brivudine", "5-[(E)-2-Bromoethenyl]-2\u2032-deoxyuridine", "Helpin", "(E)-5-(2-Bromovinyl)-2\u2032-deoxyuridine", "Brivudin", "Bromovinyldeoxyuridine", "RP 101"], "SMILES": "O=C1N(C2OC(CO)C(O)C2)C=C(C=CBr)C(=O)N1", "physical_data": {"Molecular Weight": "333.14", "Molecular Formula": "C11H13BrN2O5", "Melting Point": "164-166 \u00b0C"}}