{"cas_no": "69304-38-7", "cn_name": "3',5'-O-(1,1,3,3-\u56db\u5f02\u4e19\u57fa-1,3-\u4e8c\u7845\u6c27\u70f7)\u5c3f\u82f7", "en_name": ["3\u2032,5\u2032-O-[1,1,3,3-Tetrakis(1-methylethyl)-1,3-disiloxanediyl]uridine", "Uridine, 3\u2032,5\u2032-O-[1,1,3,3-tetrakis(1-methylethyl)-1,3-disiloxanediyl]-", "6H-Furo[3,2-f]-1,3,5,2,4-trioxadisilocin, uridine deriv.", "3\u2032,5\u2032-O-[1,1,3,3-Tetrakis(1-methylethyl)-1,3-disiloxanediyl]uridine", "3\u2032,5\u2032-O-(Tetraisopropyldisiloxanediyl)uridine", "3\u2032,5\u2032-O-(1,1,3,3-Tetraisopropyldisiloxan-1,3-diyl)uridine"], "SMILES": "C(C)(C)[Si]1(C(C)C)O[Si](C(C)C)(C(C)C)OCC2C(O1)C(O)C(O2)N3C(=O)NC(=O)C=C3", "physical_data": {"Molecular Weight": "486.71", "Molecular Formula": "C21H38N2O7Si2", "Melting Point": "75-76 \u00b0C"}}