{"cas_no": "6931-17-5", "cn_name": "3-\u7532\u6c27\u57fa\u55b9\u5549", "en_name": ["3-Methoxyquinoline", "Quinoline, 3-methoxy-", "3-Methoxyquinoline"], "SMILES": "O(C)C1=CC2=C(N=C1)C=CC=C2", "physical_data": {"Molecular Weight": "159.18", "Molecular Formula": "C10H9NO", "Boiling Point": "94 \u00b0C @ Press: 0.1 Torr"}}