{"cas_no": "69327-76-0", "cn_name": "\u567b\u55ea\u916e", "en_name": ["Buprofezin", "4H-1,3,5-Thiadiazin-4-one, 2-[(1,1-dimethylethyl)imino]tetrahydro-3-(1-methylethyl)-5-phenyl-", "2-[(1,1-Dimethylethyl)imino]tetrahydro-3-(1-methylethyl)-5-phenyl-4H-1,3,5-thiadiazin-4-one", "NNI 750", "Buprofezin", "Applaud", "Stater", "Courier", "Talus", "Applaud 40SC"], "SMILES": "C(C)(C)N1C(=NC(C)(C)C)SCN(C1=O)C2=CC=CC=C2", "physical_data": {"Molecular Weight": "305.44", "Molecular Formula": "C16H23N3OS", "Melting Point": "105 \u00b0C"}}