{"cas_no": "6933-10-4", "cn_name": "4-\u6eb4-3-\u7532\u57fa\u82ef\u80fa", "en_name": ["4-Bromo-3-methylaniline", "Benzenamine, 4-bromo-3-methyl-", "m-Toluidine, 4-bromo-", "4-Bromo-3-methylbenzenamine", "5-Amino-2-bromotoluene", "4-Bromo-m-toluidine", "4-Bromo-3-methylaniline", "3-Methyl-4-bromoaniline"], "SMILES": "CC1=C(Br)C=CC(N)=C1", "physical_data": {"Molecular Weight": "186.05", "Molecular Formula": "C7H8BrN", "Boiling Point": "240 \u00b0C", "Melting Point": "81 \u00b0C"}}