{"cas_no": "69335-91-7", "cn_name": "\u6c1f\u8349\u7075", "en_name": ["Fluazifop", "Propanoic acid, 2-[4-[[5-(trifluoromethyl)-2-pyridinyl]oxy]phenoxy]-", "2-[4-[[5-(Trifluoromethyl)-2-pyridinyl]oxy]phenoxy]propanoic acid", "Fluazifop", "(\u00b1)-Fluazifop"], "SMILES": "O(C1=CC=C(C(F)(F)F)C=N1)C2=CC=C(OC(C(O)=O)C)C=C2", "physical_data": {"Molecular Weight": "327.26", "Molecular Formula": "C15H12F3NO4", "Melting Point": "97-100 \u00b0C"}}