{"cas_no": "69340-97-2", "cn_name": "4\uff0c6-\u4e8c\u7f9f\u57fa-5-\u6c28\u57fa\u5627\u5576", "en_name": ["5-Amino-6-hydroxy-4(3H)-pyrimidinone", "4(3H)-Pyrimidinone, 5-amino-6-hydroxy-", "4(1H)-Pyrimidinone, 5-amino-6-hydroxy-", "4,6-Pyrimidinediol, 5-amino-", "5-Amino-6-hydroxy-4(3H)-pyrimidinone", "NSC 160795", "NSC 160797", "5-Amino-4,6-pyrimidinediol", "4,6-Dihydroxy-5-aminopyrimidine"], "SMILES": "NC=1C(=O)NC=NC1O", "physical_data": {"Molecular Weight": "127.10", "Molecular Formula": "C4H5N3O2", "Melting Point": "&gt;300 \u00b0C"}}