{"cas_no": "6935-27-9", "cn_name": "2-\u82c4\u6c28\u57fa\u5421\u5576", "en_name": ["2-(Benzylamino)pyridine", "2-Pyridinamine, N-(phenylmethyl)-", "Pyridine, 2-(benzylamino)-", "N-(Phenylmethyl)-2-pyridinamine", "2-(Benzylamino)pyridine", "N-Benzyl-2-pyridinamine", "N-Benzyl-2-aminopyridine", "NSC 59833", "N-Benzylpyridine-2-amine", "Benzyl(2-pyridyl)amine", "1(2H)-Pyridinamine, N-(phenylmethyl)-"], "SMILES": "C(NC1=CC=CC=N1)C2=CC=CC=C2", "physical_data": {"Molecular Weight": "184.24", "Molecular Formula": "C12H12N2", "Boiling Point": "147-150 \u00b0C @ Press: 2.5 Torr", "Melting Point": "93-94 \u00b0C"}}