{"cas_no": "6936-48-7", "cn_name": "N-\u7532\u57fa\u9a6c\u6765\u9178", "en_name": ["(2Z)-4-(Methylamino)-4-oxo-2-butenoic acid", "2-Butenoic acid, 4-(methylamino)-4-oxo-, (2Z)-", "Maleamic acid, N-methyl-", "2-Butenoic acid, 4-(methylamino)-4-oxo-, (Z)-", "(2Z)-4-(Methylamino)-4-oxo-2-butenoic acid", "N-Methylmaleamic acid"], "SMILES": "C(C=CC(O)=O)(NC)=O", "physical_data": {"Molecular Weight": "129.11", "Molecular Formula": "C5H7NO3", "Melting Point": "154 \u00b0C"}}