{"cas_no": "69377-81-7", "cn_name": "\u6c2f\u6c1f\u5421\u6c27\u4e59\u9178", "en_name": ["Fluroxypyr", "Acetic acid, 2-[(4-amino-3,5-dichloro-6-fluoro-2-pyridinyl)oxy]-", "Acetic acid, [(4-amino-3,5-dichloro-6-fluoro-2-pyridinyl)oxy]-", "2-[(4-Amino-3,5-dichloro-6-fluoro-2-pyridinyl)oxy]acetic acid", "[(4-Amino-3,5-dichloro-6-fluoro-2-pyridyl)oxy]acetic acid", "Fluroxypyr", "EF 689", "Shuangzhiling", "Starane Advanced", "StareDown", "Vista XRT", "Vista", "Tandus 200EC"], "SMILES": "O(CC(O)=O)C1=C(Cl)C(N)=C(Cl)C(F)=N1", "physical_data": {"Molecular Weight": "255.03", "Molecular Formula": "C7H5Cl2FN2O3", "Melting Point": "232 \u00b0C", "Density": "1.09 g/cm\u00b3 @ Temp: 24 \u00b0C"}}