{"cas_no": "6937-16-2", "cn_name": "\u4e59\u57fa4-\u6c28\u57fa\u4e01\u916f\u76d0\u9178\u76d0", "en_name": ["Butanoic acid, 4-amino-, ethyl ester, hydrochloride (1:1)", "Butanoic acid, 4-amino-, ethyl ester, hydrochloride (1:1)", "Butyric acid, 4-amino-, ethyl ester, hydrochloride", "Butanoic acid, 4-amino-, ethyl ester, hydrochloride", "4-Aminobutyric acid ethyl ester hydrochloride", "Ethyl \u03b3-aminobutyrate hydrochloride", "Ethyl 4-aminobutyrate hydrochloride", "Ethyl 4-aminobutanoate hydrochloride", "4-Aminobutanoic acid ethyl ester hydrochloride", "4-Amino ethyl butyrate hydrochloride"], "SMILES": "C(CCCN)(OCC)=O.Cl", "physical_data": {"Molecular Weight": "", "Molecular Formula": "C6H13NO2.ClH", "Melting Point": "38 \u00b0C"}}