{"cas_no": "69372-19-6", "cn_name": "\u5421\u5627\u53f8\u7279", "en_name": ["Pemirolast", "4H-Pyrido[1,2-a]pyrimidin-4-one, 9-methyl-3-(2H-tetrazol-5-yl)-", "4H-Pyrido[1,2-a]pyrimidin-4-one, 9-methyl-3-(1H-tetrazol-5-yl)-", "9-Methyl-3-(2H-tetrazol-5-yl)-4H-pyrido[1,2-a]pyrimidin-4-one", "9-Methyl-3-(1H-tetrazol-5-yl)-4H-pyrido[1,2-a]pyrimidin-4-one", "Pemirolast"], "SMILES": "O=C1N2C(C(C)=CC=C2)=NC=C1C=3NN=NN3", "physical_data": {"Molecular Weight": "228.21", "Molecular Formula": "C10H8N6O", "Melting Point": "310-311 \u00b0C (decomp)"}}