{"cas_no": "69386-35-2", "cn_name": "2.7-\u4e8c\u53d4\u4e01\u57fa-9H-\u5494\u5511", "en_name": ["2,7-Bis(1,1-dimethylethyl)-9H-carbazole", "9H-Carbazole, 2,7-bis(1,1-dimethylethyl)-", "2,7-Bis(1,1-dimethylethyl)-9H-carbazole", "2,7-Di-tert-butylcarbazole", "2,7-Di-tert-butyl-9H-carbazole"], "SMILES": "C(C)(C)(C)C=1C=C2C(C=3C(N2)=CC(C(C)(C)C)=CC3)=CC1", "physical_data": {"Molecular Weight": "279.42", "Molecular Formula": "C20H25N", "Melting Point": "155-156 \u00b0C"}}