{"cas_no": "6938-94-9", "cn_name": "\u5df1\u4e8c\u9178\u4e8c\u5f02\u4e19\u916f", "en_name": ["Diisopropyl adipate", "Hexanedioic acid, 1,6-bis(1-methylethyl) ester", "Adipic acid, diisopropyl ester", "Hexanedioic acid, bis(1-methylethyl) ester", "Diisopropyl adipate", "Isopropyl adipate", "Ceraphyl 230", "Wickenol 116", "Standamul DIPA", "Nikkol DID", "NSC 56587", "Crodamol DA", "Schercemol DIA", "Iso Adipat", "Crodamol DA-LQ-(JP)", "Hexanedioic acid diisopropyl ester", "Dermol DIA", "Pelemol DIA"], "SMILES": "O(C(CCCCC(OC(C)C)=O)=O)C(C)C", "physical_data": {"Molecular Weight": "230.30", "Molecular Formula": "C12H22O4", "Boiling Point": "113-115 \u00b0C @ Press: 1.5 Torr", "Melting Point": "-1.1 \u00b0C"}}