{"cas_no": "69383-60-4", "cn_name": "5-\u6eb4-2.4-\u7532\u57fa\u82ef\u80fa", "en_name": ["5-Bromo-2,4-dimethylbenzenamine", "Benzenamine, 5-bromo-2,4-dimethyl-", "5-Bromo-2,4-dimethylbenzenamine", "NSC 159240", "5-Bromo-2,4-dimethylaniline"], "SMILES": "BrC1=C(C)C=C(C)C(N)=C1", "physical_data": {"Molecular Weight": "200.08", "Molecular Formula": "C8H10BrN", "Melting Point": "96 \u00b0C"}}