{"cas_no": "6938-68-7", "cn_name": "2-\u7532\u57fa\u6c28\u57fa\u786b\u8132", "en_name": ["1-Methylhydrazinecarbothioamide", "Hydrazinecarbothioamide, 1-methyl-", "Semicarbazide, 2-methyl-3-thio-", "1-Methylhydrazinecarbothioamide", "2-Methyl-3-thiosemicarbazide", "NSC 53998", "2N-Methylthiosemicarbazide", "1-Amino-1-methylthiourea"], "SMILES": "C(N(C)N)(N)=S", "physical_data": {"Molecular Weight": "105.16", "Molecular Formula": "C2H7N3S", "Melting Point": "183-184 \u00b0C"}}