{"cas_no": "6938-45-0", "cn_name": "\u5df1\u9178\u82c4\u916f", "en_name": ["Benzyl hexanoate", "Hexanoic acid, phenylmethyl ester", "Hexanoic acid, benzyl ester", "Benzyl caproate", "Benzyl hexanoate", "NSC 53964"], "SMILES": "C(OC(CCCCC)=O)C1=CC=CC=C1", "physical_data": {"Molecular Weight": "206.28", "Molecular Formula": "C13H18O2", "Boiling Point": "270 \u00b0C"}}