{"cas_no": "6938-06-3", "cn_name": "\u70df\u9178\u4e01\u916f", "en_name": ["Butyl nicotinate", "3-Pyridinecarboxylic acid, butyl ester", "Nicotinic acid, butyl ester", "Ba 2674", "Butyl nicotinate", "Butyl 3-pyridinecarboxylate", "n-Butyl nicotinate", "Nicotinic acid n-butyl ester", "NSC 27863", "NSC 53506"], "SMILES": "C(OCCCC)(=O)C=1C=CC=NC1", "physical_data": {"Molecular Weight": "179.22", "Molecular Formula": "C10H13NO2", "Boiling Point": "252 \u00b0C", "Density": "1.0600 g/cm\u00b3 @ Temp: 20 \u00b0C"}}