{"cas_no": "6938-66-5", "cn_name": "1-\u6eb4\u4e8c\u5341\u4e8c\u70f7", "en_name": ["1-Bromodocosane", "Docosane, 1-bromo-", "1-Bromodocosane", "Docosyl bromide", "Behenyl bromide", "NSC 53991", "S 71281"], "SMILES": "C(CCCCCCCCCCBr)CCCCCCCCCCC", "physical_data": {"Molecular Weight": "389.50", "Molecular Formula": "C22H45Br", "Boiling Point": "225 \u00b0C @ Press: 0.8 Torr", "Melting Point": "44 \u00b0C"}}