{"cas_no": "6938-26-7", "cn_name": "2-\u7f9f\u57fa\u620a\u9178\u4e59\u916f", "en_name": ["Ethyl 2-hydroxypentanoate", "Pentanoic acid, 2-hydroxy-, ethyl ester", "Ethyl \u03b1-hydroxyvalerate", "Ethyl 2-hydroxypentanoate", "2-Hydroxypentanoic acid ethyl ester", "2-Hydroxyvaleric acid ethyl ester", "NSC 53939"], "SMILES": "C(C(OCC)=O)(CCC)O", "physical_data": {"Molecular Weight": "146.18", "Molecular Formula": "C7H14O3", "Boiling Point": "170-180 \u00b0C @ Press: 760 Torr"}}