{"cas_no": "6939-93-1", "cn_name": "4-\u6eb4-1,3-\u82ef\u4e8c\u7532\u9178", "en_name": ["4-Bromo-1,3-benzenedicarboxylic acid", "1,3-Benzenedicarboxylic acid, 4-bromo-", "Isophthalic acid, 4-bromo-", "4-Bromo-1,3-benzenedicarboxylic acid", "4-Bromoisophthalic acid", "1,3-Dicarboxy-4-bromobenzene", "NSC 38770", "1-Bromobenzene-2,4-dicarboxylic acid", "2-Bromobenzene-1,5-dicarboxylic acid"], "SMILES": "C(O)(=O)C1=CC(C(O)=O)=CC=C1Br", "physical_data": {"Molecular Weight": "245.03", "Molecular Formula": "C8H5BrO4", "Melting Point": "303-304 \u00b0C"}}