{"cas_no": "69399-79-7", "cn_name": "3-(2-\u6c2f-6-\u6c1f\u82ef\u57fa)-5-\u7532\u57fa\u5f02\u5511-4-\u7532\u9170\u6c2f", "en_name": ["3-(2-Chloro-6-fluorophenyl)-5-methylisoxazole-4-carbonyl chloride", "4-Isoxazolecarbonyl chloride, 3-(2-chloro-6-fluorophenyl)-5-methyl-", "3-(2-Chloro-6-fluorophenyl)-5-methyl-4-isoxazolecarbonyl chloride", "3-(2-Chloro-6-fluorophenyl)-5-methylisoxazol-4-oyl chloride", "3-(6-Fluoro-2-chlorophenyl)-5-methylisoxazol-4-carbonyl chloride", "3-(2-Chloro-6-fluorophenyl)-5-methylisoxazole-4-carbonyl chloride", "4-(Chlorocarbonyl)-3-(2-Chloro-6-fluorophenyl)-5-methylisoxazole"], "SMILES": "ClC1=C(C(F)=CC=C1)C=2C(C(Cl)=O)=C(C)ON2", "physical_data": {"Molecular Weight": "274.08", "Molecular Formula": "C11H6Cl2FNO2", "Melting Point": "181-184 \u00b0C"}}