{"cas_no": "6939-95-3", "cn_name": "1-(3-\u6c2f\u82ef\u57fa)-1-\u4e59\u9187", "en_name": ["3-Chloro-\u03b1-methylbenzenemethanol", "Benzenemethanol, 3-chloro-\u03b1-methyl-", "Benzyl alcohol, m-chloro-\u03b1-methyl-", "3-Chloro-\u03b1-methylbenzenemethanol", "1-(m-Chlorophenyl)ethanol", "(3-Chlorophenyl)methylcarbinol", "1-(3-Chlorophenyl)ethanol", "NSC 38772", "(\u00b1)-1-(m-Chlorophenyl)ethanol", "1-(3-Chlorophenyl)ethan-1-ol", "1-(3-Chlorophenyl)-1-ethanol"], "SMILES": "C(C)(O)C1=CC(Cl)=CC=C1", "physical_data": {"Molecular Weight": "156.61", "Molecular Formula": "C8H9ClO", "Boiling Point": "240-246 \u00b0C @ Press: 748 Torr", "Density": "1.174 g/cm\u00b3 @ Temp: 20 \u00b0C"}}