{"cas_no": "6939-35-1", "cn_name": "3,4-\u4e8c\u6c22\u5316-5-\u7532\u57fa-1(2H)-\u8418\u916e", "en_name": ["5-Methyl-1-tetralone", "1(2H)-Naphthalenone, 3,4-dihydro-5-methyl-", "3,4-Dihydro-5-methyl-1(2H)-naphthalenone", "5-Methyl-1-tetralone", "NSC 57011", "5-Methyl-3,4-dihydro-2H-naphthalen-1-one", "5-Methyl-3,4-dihydronaphthalen-1(2H)-one"], "SMILES": "CC1=C2C(C(=O)CCC2)=CC=C1", "physical_data": {"Molecular Weight": "160.21", "Molecular Formula": "C11H12O", "Boiling Point": "143-145 \u00b0C @ Press: 10 Torr", "Melting Point": "50-51 \u00b0C"}}