{"cas_no": "6939-89-5", "cn_name": "2-\u78fa\u57fa\u5b62\u83cc\u7d20\u94f5\u76d0", "en_name": ["Benzoic acid, 2-sulfo-, ammonium salt (1:1)", "Benzoic acid, 2-sulfo-, ammonium salt (1:1)", "Benzoic acid, o-sulfo-, S-monoammonium salt", "Benzoic acid, 2-sulfo-, monoammonium salt", "Ammonium o-carboxybenzenesulfonate", "Ammonium o-sulfobenzoic acid", "Ammonium o-sulfobenzoate", "2-Sulfobenzoic Acid Monoammonium Salt"], "SMILES": "S(=O)(=O)(O)C1=C(C(O)=O)C=CC=C1.N", "physical_data": {"Molecular Weight": "", "Molecular Formula": "C7H6O5S.H3N", "Melting Point": "264-266 \u00b0C"}}