{"cas_no": "694-87-1", "cn_name": "\u82ef\u5e76\u73af\u4e01\u70ef", "en_name": ["Benzocyclobutene", "Bicyclo[4.2.0]octa-1,3,5-triene", "Cardene", "1,2-Dihydrobenzocyclobutene", "Benzocyclobutane", "Cyclobutabenzene", "Bicyclo[4.2.0]octa-2,4,6-triene", "1,2-Dihydrocyclobutabenzene", "Benzocyclobutene"], "SMILES": "C1=2C(CC1)=CC=CC2", "physical_data": {"Molecular Weight": "104.15", "Molecular Formula": "C8H8", "Boiling Point": "77 \u00b0C @ Press: 70 Torr"}}