{"cas_no": "694-32-6", "cn_name": "1-\u7532\u57fa-2-\u54aa\u5511\u5549\u916e", "en_name": ["1-Methyl-2-imidazolidinone", "2-Imidazolidinone, 1-methyl-", "1-Methyl-2-imidazolidinone", "1-Methyl-2-imidazolidone", "N-Methyl-1,3-propanediamine cyclic urea", "3-Methylimidazolidin-2-one", "N-Methyl-2-imidazolidone", "1-Methylimidazolidine-2-one"], "SMILES": "O=C1N(C)CCN1", "physical_data": {"Molecular Weight": "100.12", "Molecular Formula": "C4H8N2O", "Boiling Point": "100-190 \u00b0C @ Press: 13 Torr", "Melting Point": "115-116 \u00b0C"}}