{"cas_no": "694-80-4", "cn_name": "2-\u6eb4\u6c2f\u82ef", "en_name": ["1-Bromo-2-chlorobenzene", "Benzene, 1-bromo-2-chloro-", "1-Bromo-2-chlorobenzene", "o-Chlorobromobenzene", "1-Chloro-2-bromobenzene", "o-Bromochlorobenzene", "2-Chlorobromobenzene", "2-Bromo-1-chlorobenzene", "2-Chlorophenyl bromide", "2-Bromochlorobenzene", "o-Bromophenyl chloride", "NSC 59694", "2-Bromophenyl chloride", "2-Chloro-1-bromobenzene"], "SMILES": "BrC1=C(Cl)C=CC=C1", "physical_data": {"Molecular Weight": "191.45", "Molecular Formula": "C6H4BrCl", "Boiling Point": "204 \u00b0C", "Melting Point": "-12.3 \u00b0C", "Density": "1.6444 g/cm\u00b3 @ Temp: 20.4 \u00b0C"}}