{"cas_no": "694-28-0", "cn_name": "2-\u6c2f\u73af\u620a\u916e", "en_name": ["2-Chlorocyclopentanone", "Cyclopentanone, 2-chloro-", "Cyclopentanone, 2-chloro-, (\u00b1)-", "2-Chlorocyclopentanone", "2-Chloro-1-cyclopentanone", "\u03b1-Chlorocyclopentanone", "(\u00b1)-2-Chlorocyclopentanone", "NSC 60206"], "SMILES": "ClC1C(=O)CCC1", "physical_data": {"Molecular Weight": "118.56", "Molecular Formula": "C5H7ClO", "Boiling Point": "80 \u00b0C @ Press: 10 Torr", "Density": "1.870 g/cm\u00b3 @ Temp: 14 \u00b0C"}}