{"cas_no": "694-05-3", "cn_name": "1\uff0c2\uff0c5\uff0c6-\u56db\u6c22\u5421\u5576", "en_name": ["1,2,3,6-Tetrahydropyridine", "Pyridine, 1,2,3,6-tetrahydro-", "1,2,3,6-Tetrahydropyridine", "1,2,5,6-Tetrahydropyridine", "\u03943-Piperidine", "NSC 65443", "3,6-Dihydro-2H-pyridine"], "SMILES": "C=1CCNCC1", "physical_data": {"Molecular Weight": "83.13", "Molecular Formula": "C5H9N", "Boiling Point": "108 \u00b0C", "Melting Point": "-48 \u00b0C", "Density": "0.9153 g/cm\u00b3 @ Temp: 20 \u00b0C"}}