{"cas_no": "694-85-9", "cn_name": "1-\u7532\u57fa-2-\u5421\u5576\u916e", "en_name": ["1-Methyl-2(1H)-pyridinone", "2(1H)-Pyridinone, 1-methyl-", "2(1H)-Pyridone, 1-methyl-", "1-Methyl-2(1H)-pyridinone", "N-Methyl-2-pyridone", "1-Methyl-2(1H)-pyridone", "1-Methyl-2-pyridone", "1-Methyl-2-pyridinone", "1-Methyl-1,2-dihydro-2-pyridinone", "1-Methyl-2-oxopyridine", "NSC 9383", "1-Methyl-1H-pyridin-2-one", "1-Methylpyridin-1-ium-2-olate"], "SMILES": "O=C1N(C)C=CC=C1", "physical_data": {"Molecular Weight": "109.13", "Molecular Formula": "C6H7NO", "Boiling Point": "250 \u00b0C", "Melting Point": "31 \u00b0C"}}