{"cas_no": "694-53-1", "cn_name": "\u82ef\u7845\u70f7", "en_name": ["Phenylsilane", "Benzene, silyl-", "Silane, phenyl-", "Silylbenzene", "Phenylsilane", "Monophenylsilane", "NSC 179699", "Z 6047", "SIP 6750.0"], "SMILES": "[SiH3]C1=CC=CC=C1", "physical_data": {"Molecular Weight": "108.21", "Molecular Formula": "C6H8Si", "Boiling Point": "119 \u00b0C", "Melting Point": "-68--64 \u00b0C", "Density": "0.868 g/cm\u00b3"}}