{"cas_no": "694-82-6", "cn_name": "\u90bb\u6c1f\u73af\u5df1\u916e", "en_name": ["2-Fluorocyclohexanone", "Cyclohexanone, 2-fluoro-", "2-Fluorocyclohexanone", "\u03b1-Fluorocyclohexanone", "2-Fluorocyclohexan-1-one"], "SMILES": "FC1C(=O)CCCC1", "physical_data": {"Molecular Weight": "116.13", "Molecular Formula": "C6H9FO", "Boiling Point": "76-77 \u00b0C @ Press: 17 Torr"}}