{"cas_no": "694-31-5", "cn_name": "1,5-\u4e8c\u7532\u57fa-1H-\u5421\u5511", "en_name": ["1,5-Dimethylpyrazole", "1H-Pyrazole, 1,5-dimethyl-", "Pyrazole, 1,5-dimethyl-", "1,5-Dimethyl-1H-pyrazole", "1,5-Dimethylpyrazole"], "SMILES": "CC=1N(C)N=CC1", "physical_data": {"Molecular Weight": "96.13", "Molecular Formula": "C5H8N2", "Boiling Point": "145-155 \u00b0C", "Melting Point": "35-38 \u00b0C", "Density": "0.9852 g/cm\u00b3 @ Temp: 20 \u00b0C"}}