{"cas_no": "694-83-7", "cn_name": "1,2-\u4e8c\u6c28\u57fa\u73af\u5df1\u70f7", "en_name": ["1,2-Diaminocyclohexane", "1,2-Cyclohexanediamine", "1,2-Diaminocyclohexane", "Dytek DCH 99", "DHC 99", "DCH 99", "Resoltech 1805"], "SMILES": "NC1C(N)CCCC1", "physical_data": {"Molecular Weight": "114.19", "Molecular Formula": "C6H14N2", "Boiling Point": "79-81 \u00b0C @ Press: 15 Torr"}}