{"cas_no": "694-59-7", "cn_name": "\u5421\u5576-N-\u6c27\u5316\u7269", "en_name": ["Pyridine N-oxide", "Pyridine, 1-oxide", "Pyridine N-oxide", "Pyridine oxide", "NSC 18250", "1-Oxidopyridin-1-ium"], "SMILES": "O=N=1C=CC=CC1", "physical_data": {"Molecular Weight": "95.10", "Molecular Formula": "C5H5NO", "Boiling Point": "100-105 \u00b0C", "Melting Point": "65.5 \u00b0C"}}