{"cas_no": "6940-78-9", "cn_name": "1-\u6eb4-4-\u6c2f\u4e01\u70f7", "en_name": ["1-Bromo-4-chlorobutane", "Butane, 1-bromo-4-chloro-", "1-Bromo-4-chlorobutane", "Tetramethylenechlorobromide", "1-Chloro-4-bromobutane", "4-Bromo-1-chlorobutane", "4-Bromobutyl chloride", "4-Chlorobutyl bromide", "4-Chloro-1-bromobutane", "NSC 60193"], "SMILES": "C(CCCl)CBr", "physical_data": {"Molecular Weight": "171.46", "Molecular Formula": "C4H8BrCl", "Boiling Point": "175 \u00b0C", "Melting Point": "96-97 \u00b0C", "Density": "1.488 g/cm\u00b3 @ Temp: 20 \u00b0C"}}