{"cas_no": "6940-76-7", "cn_name": "1-\u6c2f-3-\u7898\u4e19\u70f7", "en_name": ["1-Chloro-3-iodopropane", "Propane, 1-chloro-3-iodo-", "1-Chloro-3-iodopropane", "3-Chloropropyl iodide", "3-Iodo-1-chloropropane", "3-Iodopropyl chloride", "1-Iodo-3-chloropropane", "3-Chloro-1-iodopropane", "NSC 60189", "3-Chloro-4-iodopropane"], "SMILES": "C(CCl)CI", "physical_data": {"Molecular Weight": "204.44", "Molecular Formula": "C3H6ClI", "Boiling Point": "171 \u00b0C"}}