{"cas_no": "69408-81-7", "cn_name": "\u6c28\u8418\u975e\u7279", "en_name": ["Amonafide", "1H-Benz[de]isoquinoline-1,3(2H)-dione, 5-amino-2-[2-(dimethylamino)ethyl]-", "5-Amino-2-[2-(dimethylamino)ethyl]-1H-benz[de]isoquinoline-1,3(2H)-dione", "M-FA 142", "FA 142", "NSC 308847", "Nafidimide", "MADE-FA 142", "Amonafide", "NCI 308847"], "SMILES": "O=C1C=2C=3C(C(=O)N1CCN(C)C)=CC=CC3C=C(N)C2", "physical_data": {"Molecular Weight": "283.33", "Molecular Formula": "C16H17N3O2", "Melting Point": "169-171 \u00b0C"}}