{"cas_no": "69409-94-5", "cn_name": "\u6c1f\u80fa\u6c30\u83ca\u916f\u6eb6\u6db2\u6807\u51c6\u7269\u8d28", "en_name": ["Fluvalinate", "Valine, N-[2-chloro-4-(trifluoromethyl)phenyl]-, cyano(3-phenoxyphenyl)methyl ester", "DL-Valine, N-[2-chloro-4-(trifluoromethyl)phenyl]-, cyano(3-phenoxyphenyl)methyl ester", "Fluvalinate", "ZR 3210", "Fluvalinate I", "Fluvalinate II"], "SMILES": "C(OC(C(NC1=C(Cl)C=C(C(F)(F)F)C=C1)C(C)C)=O)(C#N)C2=CC(OC3=CC=CC=C3)=CC=C2", "physical_data": {"Molecular Weight": "502.91", "Molecular Formula": "C26H22ClF3N2O3", "Boiling Point": "&gt;450 \u00b0C", "Melting Point": "&lt;25 \u00b0C", "Density": "1.29 g/cm\u00b3 @ Temp: 25 \u00b0C"}}