{"cas_no": "6940-58-5", "cn_name": "1,3,5-\u4e09\u7fa7\u57fa\u620a\u70f7", "en_name": ["1,3,5-Pentanetricarboxylic acid", "1,3,5-Pentanetricarboxylic acid", "Octric acid", "1,3,5-Tricarboxypentane", "4-Carboxypimelic acid", "Pentric acid", "4-Carboxyheptanedioic acid", "NSC 60156", "1,3,5-Pentanecarboxylic acid"], "SMILES": "C(CCC(O)=O)(CCC(O)=O)C(O)=O", "physical_data": {"Molecular Weight": "204.18", "Molecular Formula": "C8H12O6", "Melting Point": "111-115 \u00b0C"}}