{"cas_no": "6940-49-4", "cn_name": "3-\u6eb4\u82ef\u915e", "en_name": ["3-Bromophthalide", "1(3H)-Isobenzofuranone, 3-bromo-", "Phthalide, 3-bromo-", "1(3H)-Isobenzofuranone, 3-bromo-, (\u00b1)-", "3-Bromo-1(3H)-isobenzofuranone", "Phthalidyl bromide", "3-Bromophthalide", "(\u00b1)-3-Bromophthalide", "(\u00b1)-3-Bromo-1(3H)-isobenzofuranone", "NSC 60137", "3-Bromo-3H-isobenzofuran-1-one", "3-Bromo-3H-2-benzofuran-1-one", "3-Bromo-1,3-dihydro-2-benzofuran-1-one"], "SMILES": "BrC1C=2C(C(=O)O1)=CC=CC2", "physical_data": {"Molecular Weight": "213.03", "Molecular Formula": "C8H5BrO2", "Boiling Point": "114-116 \u00b0C @ Press: 0.3 Torr", "Melting Point": "78 \u00b0C"}}