{"cas_no": "6940-53-0", "cn_name": "4-\u6c2f-2,5-\u4e8c\u7532\u6c27\u57fa\u785d\u57fa\u82ef", "en_name": ["1-Chloro-2,5-dimethoxy-4-nitrobenzene", "Benzene, 1-chloro-2,5-dimethoxy-4-nitro-", "1-Chloro-2,5-dimethoxy-4-nitrobenzene", "4-Chloro-2,5-dimethoxynitrobenzene", "NSC 60143", "1-Chloro-2,5-bis(methyloxy)-4-nitrobenzene", "2,5-Dimethoxy-4-chloronitrobenzene"], "SMILES": "N(=O)(=O)C1=C(OC)C=C(Cl)C(OC)=C1", "physical_data": {"Molecular Weight": "217.61", "Molecular Formula": "C8H8ClNO4", "Melting Point": "144-145 \u00b0C"}}