{"cas_no": "6940-57-4", "cn_name": "2-\u4e59\u9170\u57fa-6-\u7532\u57fa\u5421\u5576", "en_name": ["1-(6-Methyl-2-pyridinyl)ethanone", "Ethanone, 1-(6-methyl-2-pyridinyl)-", "Ketone, methyl 6-methyl-2-pyridyl", "1-(6-Methyl-2-pyridinyl)ethanone", "2-Acetyl-6-methylpyridine", "6-Methyl-2-acetylpyridine", "NSC 60153", "1-(6-Methylpyridin-2-yl)ethanone", "1-(6-Methylpyridin-2-yl)ethan-1-one"], "SMILES": "C(C)(=O)C=1N=C(C)C=CC1", "physical_data": {"Molecular Weight": "135.16", "Molecular Formula": "C8H9NO", "Boiling Point": "82-83 \u00b0C @ Press: 11 Torr"}}