{"cas_no": "6940-50-7", "cn_name": "\u5bf9\u6eb4\u6241\u6843\u9178", "en_name": ["4-Bromomandelic acid", "Benzeneacetic acid, 4-bromo-\u03b1-hydroxy-", "Mandelic acid, p-bromo-", "4-Bromo-\u03b1-hydroxybenzeneacetic acid", "p-Bromomandelic acid", "2-Hydroxy-2-(4-bromophenyl)acetic acid", "4-Bromomandelic acid", "DL-p-Bromomandelic acid", "NSC 60138", "DL-4-Bromomandelic acid", "4-Bromo-DL-mandelic acid", "2-(4-Bromophenyl)-2-hydroxyacetic acid"], "SMILES": "C(C(O)=O)(O)C1=CC=C(Br)C=C1", "physical_data": {"Molecular Weight": "231.04", "Molecular Formula": "C8H7BrO3", "Melting Point": "117.5 \u00b0C"}}