{"cas_no": "6941-69-1", "cn_name": "\u4e59\u4e8c\u9187\u4e8c\u5355\u6c2f\u4e59\u9178\u916f", "en_name": ["Acetic acid, 2-chloro-, 1,1\u2032-(1,2-ethanediyl) ester", "Acetic acid, 2-chloro-, 1,1\u2032-(1,2-ethanediyl) ester", "Acetic acid, chloro-, 1,2-ethanediyl ester", "Acetic acid, chloro-, ethylene ester", "Ethylene glycol, bis(chloroacetate)", "1,2-Bis(chloroacetoxy)ethane", "Bis(chloroacetyl)ethylene glycol", "NSC 22574", "2-(2-Chloro-acetoxy)ethyl chloroacetate", "Ethylene glycol di(2-chloroacetate)", "2-[(2-Chloroacetyl)oxy]ethyl 2-chloroacetate", "2-(2-Chloroacetyl)oxyethyl 2-chloroacetate"], "SMILES": "O(CCOC(CCl)=O)C(CCl)=O", "physical_data": {"Molecular Weight": "215.03", "Molecular Formula": "C6H8Cl2O4", "Boiling Point": "142-144 \u00b0C @ Press: 2 Torr", "Melting Point": "45.5 \u00b0C"}}