{"cas_no": "69427-46-9", "cn_name": "9-(4-\u7532\u6c27\u57fa-2,3,6-\u4e09\u7532\u57fa\u82ef\u57fa)-3,7-\u4e8c\u7532\u57fa-2,4,6,8-\u4e01\u70ef\u9178", "en_name": ["13-cis-Acitretin", "2,4,6,8-Nonatetraenoic acid, 9-(4-methoxy-2,3,6-trimethylphenyl)-3,7-dimethyl-, (2Z,4E,6E,8E)-", "2,4,6,8-Nonatetraenoic acid, 9-(4-methoxy-2,3,6-trimethylphenyl)-3,7-dimethyl-, (Z,E,E,E)-", "(2Z,4E,6E,8E)-9-(4-Methoxy-2,3,6-trimethylphenyl)-3,7-dimethyl-2,4,6,8-nonatetraenoic acid", "Ro 13-7652", "13-cis-Etretin", "Isoetretin", "13-cis-Acitretin", "Isoacitretin"], "SMILES": "C(=CC(=CC=CC(=CC(O)=O)C)C)C1=C(C)C(C)=C(OC)C=C1C", "physical_data": {"Molecular Weight": "326.43", "Molecular Formula": "C21H26O3", "Melting Point": "182-183 \u00b0C"}}