{"cas_no": "6942-99-0", "cn_name": "2,4-\u4e8c\u6eb4\u4e09\u7532\u57fa\u82ef", "en_name": ["2,4-Dibromo-1,3,5-trimethylbenzene", "Benzene, 2,4-dibromo-1,3,5-trimethyl-", "Mesitylene, 2,4-dibromo-", "2,4-Dibromo-1,3,5-trimethylbenzene", "2,4-Dibromomesitylene", "NSC 51629", "1,3-Dibromo-2,4,6-trimethylbenzene"], "SMILES": "BrC1=C(C)C(Br)=C(C)C=C1C", "physical_data": {"Molecular Weight": "277.98", "Molecular Formula": "C9H10Br2", "Boiling Point": "285 \u00b0C", "Melting Point": "65.5 \u00b0C"}}