{"cas_no": "69444-47-9", "cn_name": "\u4e09\u4e59\u57fa\u7532\u57fa\u94f5\u56db\u6c1f\u787c\u9178\u76d0", "en_name": ["Ethanaminium, N,N-diethyl-N-methyl-, tetrafluoroborate(1-) (1:1)", "Ethanaminium, N,N-diethyl-N-methyl-, tetrafluoroborate(1-) (1:1)", "Ethanaminium, N,N-diethyl-N-methyl-, tetrafluoroborate(1-)", "Borate(1-), tetrafluoro-, N,N-diethyl-N-methylethanaminium", "Triethylmethylammonium tetrafluoroborate", "Methyltriethylammonium tetrafluoroborate", "Lipaste P/TEMAF 14N"], "SMILES": "[N+](CC)(CC)(CC)C.[B+3]([F-])([F-])([F-])[F-]", "physical_data": {"Molecular Weight": "", "Molecular Formula": "C7H18N.BF4", "Melting Point": "336 \u00b0C"}}