{"cas_no": "6945-92-2", "cn_name": "\u80bc\u57fa\u4e59\u9178\u4e59\u916f\u76d0\u9178\u76d0", "en_name": ["Acetic acid, 2-hydrazinyl-, ethyl ester, hydrochloride (1:1)", "Acetic acid, 2-hydrazinyl-, ethyl ester, hydrochloride (1:1)", "Acetic acid, hydrazino-, ethyl ester, monohydrochloride", "Acetic acid, hydrazino-, ethyl ester, hydrochloride", "Ethyl hydrazineacetate monohydrochloride", "Hydrazineacetic acid ethyl ester hydrochloride", "(Carbethoxymethyl)hydrazine hydrochloride", "Ethyl hydrazinoacetate hydrochloride", "Ethyl hydrazineacetate hydrochloride", "Hydrazinoacetic acid ethyl ester hydrochloride", "2-Hydrazinylacetic acid ethyl ester hydrochloride", "Ethyl 2-(hydrazinyl)acetate hydrochloride", "Ethyl hydrazinoacetate monohydrochloride", "Ethyl 2-hydrazinoacetate hydrochloride"], "SMILES": "C(CNN)(OCC)=O.Cl", "physical_data": {"Molecular Weight": "", "Molecular Formula": "C4H10N2O2.ClH", "Melting Point": "152-153 \u00b0C"}}