{"cas_no": "6945-68-2", "cn_name": "2-\u6c28\u57fa-5-\u6eb4-3-\u785d\u57fa\u5421\u5576", "en_name": ["5-Bromo-3-nitro-2-pyridinamine", "2-Pyridinamine, 5-bromo-3-nitro-", "Pyridine, 2-amino-5-bromo-3-nitro-", "5-Bromo-3-nitro-2-pyridinamine", "2-Amino-5-bromo-3-nitropyridine", "5-Bromo-3-nitropyridin-2-ylamine", "NSC 52200", "5-Bromo-3-nitropyridin-2-amine"], "SMILES": "N(=O)(=O)C1=C(N)N=CC(Br)=C1", "physical_data": {"Molecular Weight": "218.01", "Molecular Formula": "C5H4BrN3O2", "Melting Point": "205 \u00b0C"}}