{"cas_no": "6946-15-2", "cn_name": "3-\u7f9f\u57fa-4-\u7532\u57fa-2-\u785d\u57fa\u82ef\u7532\u9178", "en_name": ["3-Hydroxy-4-methyl-2-nitrobenzoic acid", "Benzoic acid, 3-hydroxy-4-methyl-2-nitro-", "3,4-Cresotic acid, 2-nitro-", "3-Hydroxy-4-methyl-2-nitrobenzoic acid", "2-Nitro-3-hydroxy-4-methylbenzoic acid", "NSC 53198"], "SMILES": "N(=O)(=O)C1=C(C(O)=O)C=CC(C)=C1O", "physical_data": {"Molecular Weight": "197.14", "Molecular Formula": "C8H7NO5", "Melting Point": "186 \u00b0C"}}