{"cas_no": "6946-29-8", "cn_name": "4-\u6c28\u57fa\u6c34\u6768\u9170\u80bc", "en_name": ["p-Aminosalicylic acid hydrazide", "Benzoic acid, 4-amino-2-hydroxy-, hydrazide", "Salicylic acid, 4-amino-, hydrazide", "p-Aminosalicylic acid hydrazide", "4-Aminosalicylic acid hydrazide", "Apacizin", "Pasdrazide", "PAS-Hydrazid", "Apacizina", "NSC 57125", "4-Amino-2-hydroxybenzohydrazide"], "SMILES": "C(NN)(=O)C1=C(O)C=C(N)C=C1", "physical_data": {"Molecular Weight": "167.17", "Molecular Formula": "C7H9N3O2", "Melting Point": "195 \u00b0C"}}