{"cas_no": "6946-22-1", "cn_name": "3-\u6c28\u57fa\u90bb\u82ef\u4e8c\u7532\u9178\u76d0\u9178\u4e8c\u6c34\u5408\u7269", "en_name": ["1,2-Benzenedicarboxylic acid, 3-amino-, hydrochloride (1:1)", "1,2-Benzenedicarboxylic acid, 3-amino-, hydrochloride (1:1)", "Phthalic acid, 3-amino-, hydrochloride", "1,2-Benzenedicarboxylic acid, 3-amino-, hydrochloride", "3-Aminophthalic acid hydrochloride"], "SMILES": "C(O)(=O)C1=C(C(O)=O)C=CC=C1N.Cl", "physical_data": {"Molecular Weight": "", "Molecular Formula": "C8H7NO4.ClH", "Melting Point": "174-175 \u00b0C"}}