{"cas_no": "6947-94-0", "cn_name": "2-\u7532\u57fa-3-\u7ce0\u9178", "en_name": ["2-Methyl-3-furancarboxylic acid", "3-Furancarboxylic acid, 2-methyl-", "3-Furoic acid, 2-methyl-", "2-Methyl-3-furancarboxylic acid", "2-Methyl-3-furoic acid", "NSC 55881"], "SMILES": "C(O)(=O)C1=C(C)OC=C1", "physical_data": {"Molecular Weight": "126.11", "Molecular Formula": "C6H6O3", "Melting Point": "101 \u00b0C"}}