{"cas_no": "6948-34-1", "cn_name": "6-\u7532\u57fa\u82ef\u5e76\u567b\u5583-4(4H)-\u916e", "en_name": ["2,3-Dihydro-6-methyl-4H-1-benzothiopyran-4-one", "4H-1-Benzothiopyran-4-one, 2,3-dihydro-6-methyl-", "Thiochroman-4-one, 6-methyl-", "2,3-Dihydro-6-methyl-4H-1-benzothiopyran-4-one", "6-Methylthiochroman-4-one", "NSC 55761", "6-Methyl-2,3-dihydro-4H-[1]benzothiopyran-4-one"], "SMILES": "O=C1C=2C(=CC=C(C)C2)SCC1", "physical_data": {"Molecular Weight": "178.25", "Molecular Formula": "C10H10OS", "Boiling Point": "174 \u00b0C @ Press: 10 Torr", "Melting Point": "41 \u00b0C"}}