{"cas_no": "6948-30-7", "cn_name": "3-\u6eb4-4,5-\u4e8c\u7532\u6c27\u57fa\u82ef\u7532\u919b", "en_name": ["3-Bromo-4,5-dimethoxybenzaldehyde", "Benzaldehyde, 3-bromo-4,5-dimethoxy-", "Veratraldehyde, 5-bromo-", "3-Bromo-4,5-dimethoxybenzaldehyde", "3,4-Dimethoxy-5-bromobenzaldehyde", "5-Bromo-3,4-dimethoxybenzaldehyde", "5-Bromoveratraldehyde", "NSC 55757"], "SMILES": "O(C)C1=C(OC)C(Br)=CC(C=O)=C1", "physical_data": {"Molecular Weight": "245.07", "Molecular Formula": "C9H9BrO3", "Melting Point": "59.5 \u00b0C"}}