{"cas_no": "6949-23-1", "cn_name": "4-\u7532\u57fa-3-\u785d\u57fa\u82ef\u78fa\u9170\u6c28", "en_name": ["4-Methyl-3-nitrobenzenesulfonamide", "Benzenesulfonamide, 4-methyl-3-nitro-", "p-Toluenesulfonamide, 3-nitro-", "4-Methyl-3-nitrobenzenesulfonamide", "m-Nitro-p-toluenesulfonamide", "NSC 25155", "NSC 64475"], "SMILES": "N(=O)(=O)C1=CC(S(N)(=O)=O)=CC=C1C", "physical_data": {"Molecular Weight": "216.21", "Molecular Formula": "C7H8N2O4S", "Melting Point": "142 \u00b0C"}}