{"cas_no": "6949-77-5", "cn_name": "1-\u6c28\u57fa\u73af\u5e9a\u70f7\u7532\u9178", "en_name": ["1-Aminocycloheptanecarboxylic acid", "Cycloheptanecarboxylic acid, 1-amino-", "1-Aminocycloheptanecarboxylic acid", "1-Aminocycloheptane-1-carboxylic acid", "NSC 22849", "1-Azaniumylcycloheptane-1-carboxylate"], "SMILES": "C(O)(=O)C1(N)CCCCCC1", "physical_data": {"Molecular Weight": "157.21", "Molecular Formula": "C8H15NO2", "Melting Point": "320 \u00b0C (decomp)"}}