{"cas_no": "6949-73-1", "cn_name": "2-\u7f9f\u57fa-9-\u82b4", "en_name": ["2-Hydroxyfluorenone", "9H-Fluoren-9-one, 2-hydroxy-", "Fluoren-9-one, 2-hydroxy-", "2-Hydroxy-9H-fluoren-9-one", "2-Hydroxyfluorenone", "2-Hydroxyfluoren-9-one", "NSC 22835"], "SMILES": "O=C1C=2C(C=3C1=CC=CC3)=CC=C(O)C2", "physical_data": {"Molecular Weight": "196.20", "Molecular Formula": "C13H8O2", "Melting Point": "205 \u00b0C"}}