{"cas_no": "695-56-7", "cn_name": "2-\u73af\u620a\u70ef-1-\u916e\u7f29\u4e59\u919b", "en_name": ["1,4-Dioxaspiro[4.4]non-6-ene", "1,4-Dioxaspiro[4.4]non-6-ene", "2-Cyclopenten-1-one, cyclic 1,2-ethanediyl acetal", "2-Cyclopenten-1-one ethylene acetal", "2-Cyclopentenone ethylene acetal", "2-Cyclopenten-1-one ethylene ketal", "NSC 160533"], "SMILES": "C12(CCC=C1)OCCO2", "physical_data": {"Molecular Weight": "126.15", "Molecular Formula": "C7H10O2", "Boiling Point": "55 \u00b0C @ Press: 11 Torr", "Density": "1.061 g/cm\u00b3 @ Temp: 20 \u00b0C"}}