{"cas_no": "695-53-4", "cn_name": "5,5-\u4e8c\u7532\u57fa\u5641\u5511\u70f7-2,4-\u4e8c\u916e", "en_name": ["Dimethadione", "2,4-Oxazolidinedione, 5,5-dimethyl-", "5,5-Dimethyl-2,4-oxazolidinedione", "AC 1198", "BAY 1400Z", "Dimethadione", "DMO", "Eupractone", "Dimethadion", "5,5-Dimethyloxazolidinedione", "Nortrimethadione", "BAX 1400Z", "NSC 30152", "5,5-Dimethyl-1,3-oxazolidine-2,4-dione", "MeSH ID: D004114"], "SMILES": "CC1(C)C(=O)NC(=O)O1", "physical_data": {"Molecular Weight": "129.11", "Molecular Formula": "C5H7NO3", "Melting Point": "76.5 \u00b0C"}}