{"cas_no": "695-96-5", "cn_name": "2-\u6eb4-4-\u6c2f\u82ef\u915a", "en_name": ["2-Bromo-4-chlorophenol", "Phenol, 2-bromo-4-chloro-", "2-Bromo-4-chlorophenol", "NSC 59695"], "SMILES": "BrC1=C(O)C=CC(Cl)=C1", "physical_data": {"Molecular Weight": "207.45", "Molecular Formula": "C6H4BrClO", "Boiling Point": "228-235 \u00b0C", "Melting Point": "31 \u00b0C"}}