{"cas_no": "695-99-8", "cn_name": "2-\u6c2f-1,4-\u82ef\u918c", "en_name": ["Chloro-1,4-benzoquinone", "2,5-Cyclohexadiene-1,4-dione, 2-chloro-", "p-Benzoquinone, 2-chloro-", "p-Benzoquinone, chloro-", "2-Chloro-2,5-cyclohexadiene-1,4-dione", "Monochloro-p-benzoquinone", "2-Chloro-p-benzoquinone", "2-Chloro-1,4-benzoquinone", "Chloro-p-benzoquinone", "Monochloroquinone", "Chloroquinone", "Chloro-1,4-benzoquinone", "2-Chloroquinone", "NSC 526777"], "SMILES": "ClC=1C(=O)C=CC(=O)C1", "physical_data": {"Molecular Weight": "142.54", "Molecular Formula": "C6H3ClO2", "Melting Point": "56-56.5 \u00b0C"}}