{"cas_no": "695-34-1", "cn_name": "2-\u6c28\u57fa-4-\u7532\u57fa\u5421\u5576", "en_name": ["2-Amino-4-methylpyridine", "2-Pyridinamine, 4-methyl-", "4-Picoline, 2-amino-", "4-Methyl-2-pyridinamine", "W 45", "RA 1226", "2-Amino-4-methylpyridine", "2-Amino-4-picoline", "Ascensil", "4-Methyl-2-pyridylamine", "VMI 20-4", "W 45 Raschig", "4-Methyl-2-aminopyridine", "2-Amino-\u03b3-picoline", "(4-Methylpyridin-2-yl)amine", "Aminopicoline", "NSC 1490", "NSC 176165", "NSC 6972", "4-Methylpyridin-2-amine"], "SMILES": "CC=1C=C(N)N=CC1", "physical_data": {"Molecular Weight": "108.14", "Molecular Formula": "C6H8N2", "Boiling Point": "115-117 \u00b0C @ Press: 11 Torr", "Melting Point": "100 \u00b0C"}}