{"cas_no": "695-12-5", "cn_name": "\u4e59\u70ef\u57fa\u73af\u5df1\u70f7", "en_name": ["Vinylcyclohexane", "Cyclohexane, ethenyl-", "Cyclohexane, vinyl-", "Ethenylcyclohexane", "Vinylcyclohexane", "Cyclohexylethylene", "Cyclohexylethene", "NSC 73939", "Hexahydrostyrene", "4-Vinylcyclohexane", "1-Cyclohexylethene"], "SMILES": "C(=C)C1CCCCC1", "physical_data": {"Molecular Weight": "110.20", "Molecular Formula": "C8H14", "Boiling Point": "128 \u00b0C", "Melting Point": "121 \u00b0C", "Density": "0.842 g/cm\u00b3 @ Temp: 0 \u00b0C"}}