{"cas_no": "695-85-2", "cn_name": "4-\u6c2f-5-\u7532\u6c27\u57fa\u5627\u5576", "en_name": ["4-Chloro-5-methoxypyrimidine", "Pyrimidine, 4-chloro-5-methoxy-", "4-Chloro-5-methoxypyrimidine"], "SMILES": "O(C)C=1C(Cl)=NC=NC1", "physical_data": {"Molecular Weight": "144.56", "Molecular Formula": "C5H5ClN2O", "Melting Point": "63-64 \u00b0C (sublm)"}}