{"cas_no": "695-06-7", "cn_name": "gamma-\u5df1\u5185\u916f", "en_name": ["\u03b3-Hexalactone", "2(3H)-Furanone, 5-ethyldihydro-", "Hexanoic acid, 4-hydroxy-, \u03b3-lactone", "Hexanoic acid, 4-hydroxy-, lactone", "Caproic acid, \u03b3-hydroxy-, lactone", "5-Ethyldihydro-2(3H)-furanone", "\u03b3-Caprolactone", "\u03b3-Hexalactone", "\u03b3-Ethyl-\u03b3-butyrolactone", "\u03b3-Ethylbutyrolactone", "4-Hydroxyhexanoic acid lactone", "\u03b3-Hexanolactone", "6-Caprolactone", "4-Ethyl-4-butanolide", "4-Hexanolide", "\u03b3-Hexanolide", "5-Ethyltetrahydro-2-furanone", "(\u00b1)-\u03b3-Ethyl-\u03b3-butyrolactone", "(\u00b1)-4-Ethylbutyrolactone", "(RS)-\u03b3-Hexalactone", "(\u00b1)-\u03b3-Hexalactone", "NSC 134769", "NSC 24255"], "SMILES": "C(C)C1OC(=O)CC1", "physical_data": {"Molecular Weight": "114.14", "Molecular Formula": "C6H10O2", "Boiling Point": "215.5 \u00b0C", "Melting Point": "-18 \u00b0C", "Density": "1.027 g/cm\u00b3 @ Temp: 20 \u00b0C"}}