{"cas_no": "695-86-3", "cn_name": "4-\u6c28\u57fa-5-\u7532\u6c27\u57fa\u5627\u5576", "en_name": ["5-Methoxy-4-pyrimidinamine", "4-Pyrimidinamine, 5-methoxy-", "Pyrimidine, 4-amino-5-methoxy-", "5-Methoxy-4-pyrimidinamine"], "SMILES": "O(C)C=1C(N)=NC=NC1", "physical_data": {"Molecular Weight": "125.13", "Molecular Formula": "C5H7N3O", "Melting Point": "118.5-119.0 \u00b0C"}}