{"cas_no": "695-98-7", "cn_name": "2,3,5-\u4e09\u7532\u57fa\u5421\u5576", "en_name": ["2,3,5-Trimethylpyridine", "Pyridine, 2,3,5-trimethyl-", "2,3,5-Trimethylpyridine", "2,3,5-Collidine"], "SMILES": "CC1=C(C)N=CC(C)=C1", "physical_data": {"Molecular Weight": "121.18", "Molecular Formula": "C8H11N", "Boiling Point": "184 \u00b0C", "Melting Point": "183 \u00b0C", "Density": "0.9485 g/cm\u00b3 @ Temp: 0 \u00b0C"}}