{"cas_no": "6950-92-1", "cn_name": "2-\u5f02\u4e9a\u4e19\u57fa\u4e19\u916e\u4e59\u9187", "en_name": ["2,4,6-Trimethylbenzeneethanol", "Benzeneethanol, 2,4,6-trimethyl-", "Phenethyl alcohol, 2,4,6-trimethyl-", "2,4,6-Trimethylbenzeneethanol", "2-Mesitylethanol", "NSC 65639", "2-(2,4,6-Trimethylphenyl)ethanol", "2-(2,4,6-Trimethylphenyl)ethan-1-ol", "2-Mesitylethan-1-ol"], "SMILES": "C(CO)C1=C(C)C=C(C)C=C1C", "physical_data": {"Molecular Weight": "164.24", "Molecular Formula": "C11H16O", "Boiling Point": "141 \u00b0C @ Press: 14 Torr", "Melting Point": "79.0-81.4 \u00b0C"}}