{"cas_no": "6950-88-5", "cn_name": "4-(3-\u7532\u6c27\u57fa-4-\u785d\u57fa\u82ef\u57fa)\u5417\u5549", "en_name": ["4-(3-Methoxy-4-nitrophenyl)morpholine", "Morpholine, 4-(3-methoxy-4-nitrophenyl)-", "4-(3-Methoxy-4-nitrophenyl)morpholine", "NSC 65635"], "SMILES": "O(C)C=1C=C(C=CC1N(=O)=O)N2CCOCC2", "physical_data": {"Molecular Weight": "238.24", "Molecular Formula": "C11H14N2O4", "Melting Point": "158.9-160.2 \u00b0C"}}