{"cas_no": "69506-86-1", "cn_name": "\u53cc\u54aa\u5511\u4e01\u70f7", "en_name": ["1,1\u2032-(1,4-Butanediyl)bis(imidazole)", "1H-Imidazole, 1,1\u2032-(1,4-butanediyl)bis-", "Imidazole, 1,1\u2032-tetramethylenedi-", "1,1\u2032-(1,4-Butanediyl)bis[1H-imidazole]", "1,1\u2032-Tetramethylenebis[imidazole]", "N,N\u2032-Butylenebis(imidazole)", "1,4-Bis(1-imidazolyl)butane", "1,1\u2032-(1,4-Butanediyl)diimidazole", "1,1\u2032-(1,4-Butanediyl)bis(imidazole)", "1,4-Bis(N-imidazolyl)butane", "1,4-Bis(1H-imidazol-1-yl)butane", "1,4-Di(1H-imidazol-1-yl)butane", "1,1\u2032-(Butane-1,4-diyl)di-1H-imidazole", "1,4-Di(1-imidazolyl)butane", "1,4-Bis(imidazole-1-yl)butane"], "SMILES": "C(CCCN1C=CN=C1)N2C=CN=C2", "physical_data": {"Molecular Weight": "190.24", "Molecular Formula": "C10H14N4", "Boiling Point": "220-225 \u00b0C @ Press: 3 Torr", "Melting Point": "61-63 \u00b0C"}}