{"cas_no": "6952-93-8", "cn_name": "\u73af\u4e19\u7532\u9170\u80bc", "en_name": ["Cyclopropanecarbohydrazide", "Cyclopropanecarboxylic acid, hydrazide", "1-(Cyclopropylcarbonyl)hydrazine", "Cyclopropanecarbohydrazide", "(Cyclopropylcarbonyl)hydrazine", "NSC 70850", "Cyclopropanecarboxylic hydrazide", "N-(Cyclopropylcarbonyl)hydrazine"], "SMILES": "C(NN)(=O)C1CC1", "physical_data": {"Molecular Weight": "100.12", "Molecular Formula": "C4H8N2O", "Melting Point": "98-99 \u00b0C"}}