{"cas_no": "6952-89-2", "cn_name": "(4-\u6eb4\u82ef\u57fa)\u73af\u4e19\u57fa\u7532\u916e", "en_name": ["(4-Bromophenyl)cyclopropylmethanone", "Methanone, (4-bromophenyl)cyclopropyl-", "Ketone, p-bromophenyl cyclopropyl", "(4-Bromophenyl)cyclopropylmethanone", "p-Bromophenyl cyclopropyl ketone", "4-Bromophenyl cyclopropyl ketone", "Cyclopropyl 4-bromophenyl ketone", "NSC 70846"], "SMILES": "C(=O)(C1CC1)C2=CC=C(Br)C=C2", "physical_data": {"Molecular Weight": "225.08", "Molecular Formula": "C10H9BrO", "Boiling Point": "108-110 \u00b0C @ Press: 4-5 Torr", "Melting Point": "41-43 \u00b0C"}}