{"cas_no": "6952-59-6", "cn_name": "\u95f4\u6eb4\u82ef\u7532\u8148", "en_name": ["3-Bromobenzonitrile", "Benzonitrile, 3-bromo-", "Benzonitrile, m-bromo-", "3-Bromobenzonitrile", "m-Bromobenzonitrile", "1-Bromo-3-cyanobenzene", "m-Bromobenzonitrile", "3-Cyanophenyl bromide", "NSC 59731", "3-Cyano-1-bromobenzene"], "SMILES": "C(#N)C1=CC(Br)=CC=C1", "physical_data": {"Molecular Weight": "182.02", "Molecular Formula": "C7H4BrN", "Boiling Point": "225 \u00b0C", "Melting Point": "39.5 \u00b0C"}}