{"cas_no": "695213-59-3", "cn_name": "SDB-006", "en_name": ["1-Pentyl-N-(phenylmethyl)-1H-indole-3-carboxamide", "1H-Indole-3-carboxamide, 1-pentyl-N-(phenylmethyl)-", "1-Pentyl-N-(phenylmethyl)-1H-indole-3-carboxamide"], "SMILES": "C(NCC1=CC=CC=C1)(=O)C=2C=3C(N(CCCCC)C2)=CC=CC3", "physical_data": {"Molecular Weight": "320.43", "Molecular Formula": "C21H24N2O", "Melting Point": "101-102 \u00b0C"}}