{"cas_no": "6953-60-2", "cn_name": "S-\u4e59\u9170\u5def\u57fa\u4e01\u4e8c\u9178\u9150", "en_name": ["S-Acetylmercaptosuccinic anhydride", "Ethanethioic acid, S-(tetrahydro-2,5-dioxo-3-furanyl) ester", "Succinic anhydride, mercapto-, acetate", "Acetic acid, thio-, S-ester with mercaptosuccinic anhydride", "Acetylthiosuccinic anhydride", "S-Acetylmercaptosuccinic acid anhydride", "S-Acetylmercaptosuccinic anhydride", "NSC 57456", "2-(Acetylthio)succinic anhydride"], "SMILES": "S(C(C)=O)C1CC(=O)OC1=O", "physical_data": {"Molecular Weight": "174.17", "Molecular Formula": "C6H6O4S", "Melting Point": "84-86 \u00b0C"}}