{"cas_no": "6953-22-6", "cn_name": "5-\u82c4\u6c27\u57fa\u5432\u54da-3-\u7532\u919b", "en_name": ["5-(Phenylmethoxy)-1H-indole-3-carboxaldehyde", "1H-Indole-3-carboxaldehyde, 5-(phenylmethoxy)-", "Indole-3-carboxaldehyde, 5-(benzyloxy)-", "5-(Phenylmethoxy)-1H-indole-3-carboxaldehyde", "5-Benzyloxy-3-formylindole", "5-Benzyloxy-3-indolecarboxaldehyde", "NSC 71049", "5-Benzyloxy-1H-indole-3-carboxaldehyde"], "SMILES": "C(=O)C=1C=2C(NC1)=CC=C(OCC3=CC=CC=C3)C2", "physical_data": {"Molecular Weight": "251.28", "Molecular Formula": "C16H13NO2", "Melting Point": "240-241 \u00b0C"}}