{"cas_no": "6953-65-7", "cn_name": "2-\u7f9f\u7532\u57fa-5-\u6c2f\u82ef\u5e76\u54aa\u5511", "en_name": ["6-Chloro-1H-benzimidazole-2-methanol", "1H-Benzimidazole-2-methanol, 6-chloro-", "2-Benzimidazolemethanol, 5-chloro-", "1H-Benzimidazole-2-methanol, 5-chloro-", "6-Chloro-1H-benzimidazole-2-methanol", "NSC 38854", "5-Chlorobenzimidazole-2-methanol", "(5-Chloro-1H-1,3-benzodiazol-2-yl)methanol", "(6-Chloro-1H-benzimidazol-2-yl)methanol", "(5-Chloro-1H-benzimidazol-2-yl)methanol"], "SMILES": "C(O)C=1NC=2C(N1)=CC(Cl)=CC2", "physical_data": {"Molecular Weight": "182.61", "Molecular Formula": "C8H7ClN2O", "Melting Point": "205 \u00b0C"}}