{"cas_no": "6953-61-3", "cn_name": "1-\u8418\u7f9f\u809f\u9178", "en_name": ["N-Hydroxy-1-naphthalenecarboxamide", "1-Naphthalenecarboxamide, N-hydroxy-", "1-Naphthohydroxamic acid", "N-Hydroxy-1-naphthalenecarboxamide", "\u03b1-Naphthohydroxamic acid", "NSC 57457"], "SMILES": "C(NO)(=O)C=1C2=C(C=CC1)C=CC=C2", "physical_data": {"Molecular Weight": "187.19", "Molecular Formula": "C11H9NO2", "Melting Point": "176-178 \u00b0C"}}