{"cas_no": "6954-55-8", "cn_name": "\u82b4-4-\u7fa7\u9178", "en_name": ["9H-Fluorene-4-carboxylic acid", "9H-Fluorene-4-carboxylic acid", "Fluorene-4-carboxylic acid", "Fluorene-5-carboxylic acid", "NSC 67686", "4-Carboxyfluorene"], "SMILES": "C(O)(=O)C1=C2C=3C(CC2=CC=C1)=CC=CC3", "physical_data": {"Molecular Weight": "210.23", "Molecular Formula": "C14H10O2", "Melting Point": "189-191 \u00b0C"}}