{"cas_no": "6954-27-4", "cn_name": "\u8054\u82ef-4,4'-\u4e8c\u786b\u9187", "en_name": ["[1,1\u2032-Biphenyl]-4,4\u2032-dithiol", "[1,1\u2032-Biphenyl]-4,4\u2032-dithiol", "4,4\u2032-Biphenyldithiol", "4,4\u2032-Dimercaptobiphenyl", "4,4\u2032-Diphenyldithiol", "4,4\u2032-Dimercaptodiphenyl", "NSC 38039"], "SMILES": "SC1=CC=C(C=C1)C2=CC=C(S)C=C2", "physical_data": {"Molecular Weight": "218.34", "Molecular Formula": "C12H10S2", "Melting Point": "179-181 \u00b0C"}}