{"cas_no": "69559-11-1", "cn_name": "5-(N-\u4e59\u57fa-N-2-\u7f9f\u4e59\u57fa\u80fa)-2-\u620a\u80fa", "en_name": ["2-[(4-Aminopentyl)ethylamino]ethanol", "Ethanol, 2-[(4-aminopentyl)ethylamino]-", "2-[(4-Aminopentyl)ethylamino]ethanol", "(\u00b1)-2-[(4-Aminopentyl)ethylamino]ethanol", "5-[N-Ethyl-N-(2-hydroxyethyl)amino]-2-aminopentane", "N-Ethyl-N-(2-hydroxyethyl)-4-aminopentylamine", "2-[(4-Aminopentyl)(ethyl)amino]ethan-1-ol"], "SMILES": "N(CCCC(C)N)(CCO)CC", "physical_data": {"Molecular Weight": "174.28", "Molecular Formula": "C9H22N2O", "Boiling Point": "93 \u00b0C @ Press: 0.6 Torr"}}