{"cas_no": "69555-14-2", "cn_name": "\u4e8c\u82ef\u4e9a\u7532\u57fa\u7518\u6c28\u9178\u4e59\u916f", "en_name": ["N-(Diphenylmethylene)glycine ethyl ester", "Glycine, N-(diphenylmethylene)-, ethyl ester", "Ethyl N-benzhydrylideneglycinate", "Ethyl N-(diphenylmethylene)glycinate", "N-(Diphenylmethylene)glycine ethyl ester", "Ethyl (benzhydrylideneamino)acetate", "NSC 263808", "(Benzhydrylideneamino)acetic acid ethyl ester", "Ethyl 2-[(diphenylmethylene)amino]acetate", "N-(Diphenylmethylidene)glycine ethyl ester", "Ethyl 2-(benzhydrylideneamino)acetate"], "SMILES": "C(=NCC(OCC)=O)(C1=CC=CC=C1)C2=CC=CC=C2", "physical_data": {"Molecular Weight": "267.32", "Molecular Formula": "C17H17NO2", "Melting Point": "50-52 \u00b0C"}}