{"cas_no": "6956-96-3", "cn_name": "DMNQ", "en_name": ["2,3-Dimethoxy-1,4-naphthoquinone", "1,4-Naphthalenedione, 2,3-dimethoxy-", "1,4-Naphthoquinone, 2,3-dimethoxy-", "2,3-Dimethoxy-1,4-naphthalenedione", "2,3-Dimethoxy-1,4-naphthoquinone", "2,3-Dimethoxy-p-naphthoquinone", "2,3-Dimethoxynaphthoquinone", "NSC 69355", "2,3-Dimethoxy-1,4-dihydronaphthalene-1,4-dione"], "SMILES": "O=C1C=2C(C(=O)C(OC)=C1OC)=CC=CC2", "physical_data": {"Molecular Weight": "218.21", "Molecular Formula": "C12H10O4", "Melting Point": "112-114 \u00b0C"}}