{"cas_no": "69567-10-8", "cn_name": "\u4e19\u4e8c\u8148", "en_name": ["N-Methyl-1-deoxynojirimycin", "3,4,5-Piperidinetriol, 2-(hydroxymethyl)-1-methyl-, (2R,3R,4R,5S)-", "3,4,5-Piperidinetriol, 2-(hydroxymethyl)-1-methyl-, [2R-(2\u03b1,3\u03b2,4\u03b1,5\u03b2)]-", "(2R,3R,4R,5S)-2-(Hydroxymethyl)-1-methyl-3,4,5-piperidinetriol", "N-Methylmoranoline", "N-Methylmoranolin", "N-Methyl-1-deoxynojirimycin", "MOR 14"], "SMILES": "C(O)C1C(O)C(O)C(O)CN1C", "physical_data": {"Molecular Weight": "177.20", "Molecular Formula": "C7H15NO4", "Melting Point": "152-153 \u00b0C"}}