{"cas_no": "6957-22-8", "cn_name": "isonicotinaldehyde (4-pyridylmethylene)hydrazone", "en_name": ["1,4-Bis(4-pyridyl)-2,3-diaza-1,3-butadiene", "4-Pyridinecarboxaldehyde, 2-(4-pyridinylmethylene)hydrazone", "Isonicotinaldehyde, azine", "4-Pyridinecarboxaldehyde, (4-pyridinylmethylene)hydrazone", "4-Pyridinaldazine", "Pyridine-4-carboxaldazine", "NSC 66165", "N,N\u2032-Bis(1-(4-pyridyl)methylene)hydrazine", "4-Pyridinecarboxaldehyde azine", "1,4-Bis(4-pyridyl)-2,3-diaza-1,3-butadiene"], "SMILES": "C(=NN=CC=1C=CN=CC1)C=2C=CN=CC2", "physical_data": {"Molecular Weight": "210.23", "Molecular Formula": "C12H10N4", "Melting Point": "178 \u00b0C"}}