{"cas_no": "69574-07-8", "cn_name": "3,5-\u4e8c\u4e59\u57fa-4-\u7f9f\u57fa\u82ef\u7532\u919b", "en_name": ["3,5-Diethyl-4-hydroxybenzaldehyde", "Benzaldehyde, 3,5-diethyl-4-hydroxy-", "3,5-Diethyl-4-hydroxybenzaldehyde"], "SMILES": "C(C)C1=C(O)C(CC)=CC(C=O)=C1", "physical_data": {"Molecular Weight": "178.23", "Molecular Formula": "C11H14O2", "Melting Point": "93.6-94.2 \u00b0C"}}