{"cas_no": "6957-27-3", "cn_name": "3,4-\u4e8c\u6c22\u7f42\u7c9f\u78b1", "en_name": ["1-[(3,4-Dimethoxyphenyl)methyl]-3,4-dihydro-6,7-dimethoxyisoquinoline", "Isoquinoline, 1-[(3,4-dimethoxyphenyl)methyl]-3,4-dihydro-6,7-dimethoxy-", "Isoquinoline, 3,4-dihydro-6,7-dimethoxy-1-veratryl-", "1-[(3,4-Dimethoxyphenyl)methyl]-3,4-dihydro-6,7-dimethoxyisoquinoline", "1-(3,4-Dimethoxybenzyl)-6,7-dimethoxy-3,4-dihydroisoquinoline", "1-(3,4-Dimethoxybenzyl)-3,4-dihydro-6,7-dimethoxyisoquinoline", "3,4-Dihydropapaverine", "Paverin", "Dihydropapaverine", "NSC 66154", "1-[(3,4-Dimethoxyphenyl)methyl]-6,7-dimethoxy-3,4-dihydroisoquinoline"], "SMILES": "C(C=1C=2C(=CC(OC)=C(OC)C2)CCN1)C3=CC(OC)=C(OC)C=C3", "physical_data": {"Molecular Weight": "341.40", "Molecular Formula": "C20H23NO4", "Melting Point": "98-99 \u00b0C"}}