{"cas_no": "69581-33-5", "cn_name": "\u916f\u83cc\u80fa", "en_name": ["Cyprofuram", "Cyclopropanecarboxamide, N-(3-chlorophenyl)-N-(tetrahydro-2-oxo-3-furanyl)-", "N-(3-Chlorophenyl)-N-(tetrahydro-2-oxo-3-furanyl)cyclopropanecarboxamide", "Cyprofuram", "Vinicur"], "SMILES": "N(C(=O)C1CC1)(C2=CC(Cl)=CC=C2)C3C(=O)OCC3", "physical_data": {"Molecular Weight": "279.72", "Molecular Formula": "C14H14ClNO3", "Melting Point": "95 \u00b0C"}}