{"cas_no": "6959-71-3", "cn_name": "3-\u6b63\u4e01\u6c27\u57fa\u4e19\u8148", "en_name": ["3-Butoxypropanenitrile", "Propanenitrile, 3-butoxy-", "Propionitrile, 3-butoxy-", "3-Butoxypropanenitrile", "3-Butoxypropionitrile", "\u03b2-Butoxypropionitrile", "NSC 65452"], "SMILES": "O(CCCC)CCC#N", "physical_data": {"Molecular Weight": "127.18", "Molecular Formula": "C7H13NO", "Boiling Point": "170-172 \u00b0C @ Press: 750 Torr", "Density": "0.8616 g/cm\u00b3"}}