{"cas_no": "6959-66-6", "cn_name": "2-\u5def\u57fa-4-\u7532\u57fa\u5627\u5576\u76d0\u9178\u76d0", "en_name": ["2(1H)-Pyrimidinethione, 4-methyl-, hydrochloride (1:1)", "2(1H)-Pyrimidinethione, 4-methyl-, hydrochloride (1:1)", "2-Pyrimidinethiol, 4-methyl-, monohydrochloride", "2(1H)-Pyrimidinethione, 4-methyl-, monohydrochloride", "2-Pyrimidinethiol, 4-methyl-, hydrochloride", "2-Mercapto-4-methylpyrimidine hydrochloride", "4-Methyl-2-pyrimidinethiol hydrochloride", "2-Mercapto-4-methylpyrimidinium chloride", "4-Methyl-2(1H)-pyrimidinethione hydrochloride", "2-Mercapto-4-methylpyrimidine monohydrochloride"], "SMILES": "CC=1NC(=S)N=CC1.Cl", "physical_data": {"Molecular Weight": "", "Molecular Formula": "C5H6N2S.ClH", "Melting Point": "259 \u00b0C"}}