{"cas_no": "6959-47-3", "cn_name": "2-\u6c2f\u7532\u57fa\u5421\u5576\u76d0\u9178\u76d0", "en_name": ["Picolyl chloride hydrochloride", "Pyridine, 2-(chloromethyl)-, hydrochloride (1:1)", "Pyridine, 2-(chloromethyl)-, hydrochloride", "2-Picolyl chloride hydrochloride", "2-(Chloromethyl)pyridine hydrochloride", "Picolyl chloride hydrochloride", "2-Pyridylmethyl chloride hydrochloride", "2-Chloromethylpyridine hydrochloride salt", "2-Chloromethylpyridine chlorohydrate", "(Pyridin-2-yl)methyl chloride hydrochloride", "2-Chloromethylpridine hydrochloride"], "SMILES": "C(Cl)C1=CC=CC=N1.Cl", "physical_data": {"Molecular Weight": "", "Molecular Formula": "C6H6ClN.ClH", "Melting Point": "166-173 \u00b0C"}}