{"cas_no": "6959-48-4", "cn_name": "3-\u6c2f\u7532\u57fa\u5421\u5576\u76d0\u9178\u76d0", "en_name": ["3-(Chloromethyl)pyridine hydrochloride", "Pyridine, 3-(chloromethyl)-, hydrochloride (1:1)", "Pyridine, 3-(chloromethyl)-, hydrochloride", "3-(Chloromethyl)pyridine hydrochloride", "3-Pyridylmethyl chloride hydrochloride", "3-(Chloromethyl)pyridine monohydrochloride", "3-Picolyl chloride hydrochloride", "(Pyridin-3-yl)methyl chloride hydrochloride", "3-(Chloromethyl)pyridinium chloride"], "SMILES": "C(Cl)C=1C=CC=NC1.Cl", "physical_data": {"Molecular Weight": "", "Molecular Formula": "C6H6ClN.ClH", "Melting Point": "137-143 \u00b0C"}}