{"cas_no": "696-71-9", "cn_name": "\u73af\u8f9b\u9187", "en_name": ["Cyclooctanol", "Cyclooctanol", "NSC 60162", "Cyclooctyl alcohol"], "SMILES": "OC1CCCCCCC1", "physical_data": {"Molecular Weight": "128.21", "Molecular Formula": "C8H16O", "Boiling Point": "106-108 \u00b0C @ Press: 22 Torr", "Melting Point": "25.1 \u00b0C", "Density": "0.9663 g/cm\u00b3 @ Temp: 17 \u00b0C"}}