{"cas_no": "696-59-3", "cn_name": "2,5-\u4e8c\u7532\u6c27\u57fa\u56db\u6c22\u544b\u5583", "en_name": ["2,5-Dimethoxytetrahydrofuran", "Furan, tetrahydro-2,5-dimethoxy-", "Tetrahydro-2,5-dimethoxyfuran", "2,5-Dimethoxytetrahydrofuran", "Dimethoxytetrahydrofuran", "NSC 7911", "2,5-Bis(methyloxy)tetrahydrofuran", "2,5-Dimethoxyoxolane", "2,5-Dimethoxytetrahydrofurane"], "SMILES": "O(C)C1OC(OC)CC1", "physical_data": {"Molecular Weight": "132.16", "Molecular Formula": "C6H12O3", "Boiling Point": "145.7 \u00b0C", "Density": "1.022 g/cm\u00b3 @ Temp: 20 \u00b0C"}}