{"cas_no": "696-63-9", "cn_name": "4-\u7532\u6c27\u57fa\u82ef\u786b\u915a", "en_name": ["4-Methoxybenzenethiol", "Benzenethiol, 4-methoxy-", "Benzenethiol, p-methoxy-", "4-Methoxybenzenethiol", "p-Methoxythiophenol", "p-Methoxybenzenethiol", "4-Methoxythiophenol", "4-Mercaptoanisole", "p-Methoxyphenyl mercaptan", "p-Mercaptoanisole", "p-Methoxyphenylthiol", "4-Methoxyphenylthiol", "NSC 100727", "4-Methoxyphenyl mercaptan", "4-Methoxybenzene-1-thiol"], "SMILES": "O(C)C1=CC=C(S)C=C1", "physical_data": {"Molecular Weight": "140.20", "Molecular Formula": "C7H8OS", "Boiling Point": "228 \u00b0C", "Melting Point": "291.7-295.8 \u00b0C (decomp)", "Density": "1.1313 g/cm\u00b3 @ Temp: 25 \u00b0C"}}