{"cas_no": "696-54-8", "cn_name": "4-\u5421\u5576\u7532\u919b\u809f", "en_name": ["4-Pyridinealdoxime", "4-Pyridinecarboxaldehyde, oxime", "Isonicotinaldehyde, oxime", "4-Pyridinealdoxime", "4-(Hydroxyiminomethyl)pyridine", "NSC 63847", "4-Pyridinaldoxime", "Pyridine-4-carboxaldoxime"], "SMILES": "C(=NO)C=1C=CN=CC1", "physical_data": {"Molecular Weight": "122.12", "Molecular Formula": "C6H6N2O", "Melting Point": "130-133 \u00b0C"}}