{"cas_no": "696-62-8", "cn_name": "4-\u7898\u82ef\u7532\u919a", "en_name": ["4-Iodoanisole", "Benzene, 1-iodo-4-methoxy-", "Anisole, p-iodo-", "Anisole, 4-iodo-", "1-Iodo-4-methoxybenzene", "p-Methoxyiodobenzene", "p-Iodoanisole", "4-Iodoanisole", "4-Iodomethoxybenzene", "p-Iodophenyl methyl ether", "p-Methoxyphenyl iodide", "p-Iodomethoxybenzene", "4-Methoxyphenyl iodide", "4-Methoxyiodobenzene", "4-Methoxy-1-iodobenzene", "4-Iodophenyl methyl ether", "NSC 60727", "1-Methoxy-4-iodobenzene"], "SMILES": "O(C)C1=CC=C(I)C=C1", "physical_data": {"Molecular Weight": "234.03", "Molecular Formula": "C7H7IO", "Boiling Point": "238 \u00b0C", "Melting Point": "53 \u00b0C"}}