{"cas_no": "696-60-6", "cn_name": "4-\u7f9f\u57fa\u82c4\u80fa", "en_name": ["4-Hydroxybenzylamine", "Phenol, 4-(aminomethyl)-", "p-Cresol, \u03b1-amino-", "4-(Aminomethyl)phenol", "4-Hydroxybenzylamine", "p-Hydroxybenzylamine", "p-(Aminomethyl)phenol", "4-Hydroxybenzenemethanamine", "p-Hydroxybenzenemethanamine", "NSC 125720", "[(4-Hydroxyphenyl)methyl]amine", "(4-Hydroxyphenyl)methanamine"], "SMILES": "C(N)C1=CC=C(O)C=C1", "physical_data": {"Molecular Weight": "123.15", "Molecular Formula": "C7H9NO", "Melting Point": "114-115 \u00b0C"}}