{"cas_no": "696-02-6", "cn_name": "3,4-\u4e8c\u6c1f\u6c2f\u82ef", "en_name": ["4-Chloro-1,2-difluorobenzene", "Benzene, 4-chloro-1,2-difluoro-", "4-Chloro-1,2-difluorobenzene", "3,4-Difluorochlorobenzene", "1-Chloro-3,4-difluorobenzene", "NSC 10255"], "SMILES": "FC1=C(F)C=CC(Cl)=C1", "physical_data": {"Molecular Weight": "148.54", "Molecular Formula": "C6H3ClF2", "Boiling Point": "127 \u00b0C"}}