{"cas_no": "696-45-7", "cn_name": "4-\u6c28\u57fa-6-\u7532\u6c27\u57fa\u5627\u5576", "en_name": ["6-Methoxy-4-pyrimidinamine", "4-Pyrimidinamine, 6-methoxy-", "Pyrimidine, 4-amino-6-methoxy-", "6-Methoxy-4-pyrimidinamine", "4-Amino-6-methoxypyrimidine", "6-Methoxy-4-aminopyrimidine", "6-Methoxypyrimidin-4-amine"], "SMILES": "O(C)C=1C=C(N)N=CN1", "physical_data": {"Molecular Weight": "125.13", "Molecular Formula": "C5H7N3O", "Melting Point": "150-151 \u00b0C"}}