{"cas_no": "696-28-6", "cn_name": "\u4e8c\u6c2f\u82ef\u80c2", "en_name": ["Phenyldichloroarsine", "Arsonous dichloride, As-phenyl-", "Arsine, dichlorophenyl-", "Arsonous dichloride, phenyl-", "As-Phenylarsonous dichloride", "Dichlorophenylarsine", "Phenyldichloroarsine", "Phenylarsinedichloride", "Phenylarsenic dichloride", "Pfiffikus", "Phenylarsonous dichloride"], "SMILES": "[As](Cl)(Cl)C1=CC=CC=C1", "physical_data": {"Molecular Weight": "222.93", "Molecular Formula": "C6H5AsCl2", "Boiling Point": "255 \u00b0C", "Melting Point": "-19 \u00b0C", "Density": "1.6516 g/cm\u00b3 @ Temp: 20 \u00b0C"}}