{"cas_no": "696-82-2", "cn_name": "2,4,6-\u4e09\u6c1f\u5627\u5576", "en_name": ["2,4,6-Trifluoropyrimidine", "Pyrimidine, 2,4,6-trifluoro-", "2,4,6-Trifluoropyrimidine"], "SMILES": "FC=1C=C(F)N=C(F)N1", "physical_data": {"Molecular Weight": "134.06", "Molecular Formula": "C4HF3N2", "Boiling Point": "98 \u00b0C"}}