{"cas_no": "696-29-7", "cn_name": "\u5f02\u4e19\u57fa\u73af\u5df1\u70f7", "en_name": ["Isopropylcyclohexane", "Cyclohexane, (1-methylethyl)-", "Cyclohexane, isopropyl-", "(1-Methylethyl)cyclohexane", "Isopropylcyclohexane", "NSC 73963", "(Propan-2-yl)cyclohexane"], "SMILES": "C(C)(C)C1CCCCC1", "physical_data": {"Molecular Weight": "126.24", "Molecular Formula": "C9H18", "Boiling Point": "154.8 \u00b0C", "Melting Point": "-89.4 \u00b0C", "Density": "0.7974 g/cm\u00b3 @ Temp: 20 \u00b0C"}}