{"cas_no": "696-07-1", "cn_name": "5-\u7898\u5c3f\u5627\u5576", "en_name": ["5-Iodouracil", "2,4(1H,3H)-Pyrimidinedione, 5-iodo-", "Uracil, 5-iodo-", "5-Iodo-2,4(1H,3H)-pyrimidinedione", "5-Iodouracil", "5-Iodo-2,4-dihydroxypyrimidine", "NSC 57848", "5-Iodo-2,4-pyrimidinedione", "5-Iodopyrimidine-2,4-diol", "5-Iodopyrimidine-2,4(1H,3H)-dione"], "SMILES": "O=C1C(I)=CNC(=O)N1", "physical_data": {"Molecular Weight": "237.98", "Molecular Formula": "C4H3IN2O2", "Melting Point": "275 \u00b0C (decomp)"}}