{"cas_no": "696-44-6", "cn_name": "3-(\u7532\u6c28\u57fa)\u7532\u82ef", "en_name": ["N,3-Dimethylaniline", "Benzenamine, N,3-dimethyl-", "m-Toluidine, N-methyl-", "N,3-Dimethylbenzenamine", "N-Methyl-m-toluidine", "N,3-Dimethylaniline", "m,N-Dimethylaniline", "N-Methyl-N-(3-methylphenyl)amine", "NSC 9396", "N-Methyl(3-methylphenyl)amine", "N-(3-Methylphenyl)methylamine", "N-Methyl-N-(m-tolyl)amine", "3-Methyl-N-methylaniline", "Methyl(3-methylphenyl)amine"], "SMILES": "N(C)C1=CC(C)=CC=C1", "physical_data": {"Molecular Weight": "121.18", "Molecular Formula": "C8H11N", "Boiling Point": "206.5 \u00b0C", "Melting Point": "123 \u00b0C"}}