{"cas_no": "696-30-0", "cn_name": "4-\u5f02\u4e19\u57fa\u5421\u5576", "en_name": ["4-Isopropylpyridine", "Pyridine, 4-(1-methylethyl)-", "Pyridine, 4-isopropyl-", "4-(1-Methylethyl)pyridine", "4-Isopropylpyridine"], "SMILES": "C(C)(C)C=1C=CN=CC1", "physical_data": {"Molecular Weight": "121.18", "Molecular Formula": "C8H11N", "Boiling Point": "178 \u00b0C", "Melting Point": "-54.9 \u00b0C"}}