{"cas_no": "696-04-8", "cn_name": "\u4e8c\u6c22\u80f8\u817a\u5627\u5576", "en_name": ["Dihydrothymine", "2,4(1H,3H)-Pyrimidinedione, dihydro-5-methyl-", "Hydrouracil, 5-methyl-", "Dihydro-5-methyl-2,4(1H,3H)-pyrimidinedione", "5-Methyl-5,6-dihydrouracil", "5,6-Dihydrothymine", "Dihydrothymine", "5,6-Dihydro-5-methyluracil", "NSC 44131", "5-Methyldihydropyrimidine-2,4(1H,3H)-dione", "2-Hydroxy-5-methyl-5,6-dihydro-1H-pyrimidin-4-one"], "SMILES": "O=C1C(C)CNC(=O)N1", "physical_data": {"Molecular Weight": "128.13", "Molecular Formula": "C5H8N2O2", "Melting Point": "260 \u00b0C"}}