{"cas_no": "696-40-2", "cn_name": "3-\u7898\u82c4\u80fa", "en_name": ["3-Iodobenzylamine", "Benzenemethanamine, 3-iodo-", "Benzylamine, m-iodo-", "3-Iodobenzenemethanamine", "m-Iodobenzylamine", "3-Iodobenzylamine", "NSC 96895", "(3-Iodophenyl)methanamine"], "SMILES": "C(N)C1=CC(I)=CC=C1", "physical_data": {"Molecular Weight": "233.05", "Molecular Formula": "C7H8IN", "Boiling Point": "132 \u00b0C @ Press: 8 Torr", "Melting Point": "248-249 \u00b0C"}}