{"cas_no": "6960-42-5", "cn_name": "7-\u785d\u57fa\u5432\u54da", "en_name": ["7-Nitroindole", "1H-Indole, 7-nitro-", "Indole, 7-nitro-", "7-Nitro-1H-indole", "7-Nitroindole", "NSC 69874"], "SMILES": "N(=O)(=O)C1=C2C(C=CN2)=CC=C1", "physical_data": {"Molecular Weight": "162.15", "Molecular Formula": "C8H6N2O2", "Boiling Point": "170-175 \u00b0C", "Melting Point": "113 \u00b0C"}}