{"cas_no": "69604-00-8", "cn_name": "5-\u785d\u57fa\u82ef\u5e76\u544b\u5583-2-\u7fa7\u9178\u4e59\u916f", "en_name": ["2-Benzofurancarboxylic acid, 5-nitro-, ethyl ester", "2-Benzofurancarboxylic acid, 5-nitro-, ethyl ester", "Ethyl 5-nitrobenzofuran-2-carboxylate", "5-Nitro-2-benzofurancarboxylic acid ethyl ester", "Ethyl 5-nitrobenzo[d]furan-2-carboxylate", "Ethyl 5-nitrobenzo[b]furan-2-carboxylate", "Ethyl 5-nitro-1-benzofuran-2-carboxylate", "Ethyl 5-nitrobenzofuran-2-formate"], "SMILES": "C(OCC)(=O)C1=CC=2C(O1)=CC=C(N(=O)=O)C2", "physical_data": {"Molecular Weight": "235.19", "Molecular Formula": "C11H9NO5", "Melting Point": "152-153 \u00b0C"}}