{"cas_no": "6960-45-8", "cn_name": "7-\u785d\u57fa\u5432\u54da-2-\u7532\u9178", "en_name": ["7-Nitro-1H-indole-2-carboxylic acid", "1H-Indole-2-carboxylic acid, 7-nitro-", "Indole-2-carboxylic acid, 7-nitro-", "7-Nitro-1H-indole-2-carboxylic acid", "7-Nitroindol-2-carboxylic acid", "7-Nitro-2-indolecarboxylic acid", "NSC 69877", "CRT 0044876"], "SMILES": "N(=O)(=O)C1=C2C(C=C(C(O)=O)N2)=CC=C1", "physical_data": {"Molecular Weight": "206.15", "Molecular Formula": "C9H6N2O4", "Melting Point": "231 \u00b0C"}}