{"cas_no": "6960-46-9", "cn_name": "7-\u785d\u57fa\u5432\u54da-2-\u7532\u9178\u4e59\u916f", "en_name": ["1H-Indole-2-carboxylic acid, 7-nitro-, ethyl ester", "1H-Indole-2-carboxylic acid, 7-nitro-, ethyl ester", "Indole-2-carboxylic acid, 7-nitro-, ethyl ester", "NSC 69878", "Ethyl 7-nitroindole-2-carboxylate", "Ethyl 7-nitro-1H-indole-2-carboxylate"], "SMILES": "N(=O)(=O)C1=C2C(C=C(C(OCC)=O)N2)=CC=C1", "physical_data": {"Molecular Weight": "234.21", "Molecular Formula": "C11H10N2O4", "Melting Point": "92-93 \u00b0C"}}