{"cas_no": "6960-17-4", "cn_name": "2,5-\u4e8c\u7532\u6c27\u57fa-4-\u80fa\u57fa\u5627\u5576", "en_name": ["2,5-Dimethoxy-4-pyrimidinamine", "4-Pyrimidinamine, 2,5-dimethoxy-", "Pyrimidine, 4-amino-2,5-dimethoxy-", "2,5-Dimethoxy-4-pyrimidinamine", "NSC 69792", "2,5-Dimethoxypyrimidin-4-amine", "4-Amino-2,5-dimethoxypyrimidine"], "SMILES": "O(C)C=1N=C(N)C(OC)=CN1", "physical_data": {"Molecular Weight": "155.15", "Molecular Formula": "C6H9N3O2", "Melting Point": "180-181 \u00b0C"}}