{"cas_no": "6960-22-1", "cn_name": "6-\u7532\u57fa\u70df\u9170\u80fa", "en_name": ["6-Methylnicotinamide", "3-Pyridinecarboxamide, 6-methyl-", "Nicotinamide, 6-methyl-", "6-Methyl-3-pyridinecarboxamide", "6-Methylnicotinic acid amide", "6-Methylnicotinamide", "NSC 69797", "6-Methylpyridine-3-carboxamide"], "SMILES": "C(N)(=O)C=1C=CC(C)=NC1", "physical_data": {"Molecular Weight": "136.15", "Molecular Formula": "C7H8N2O", "Melting Point": "196-198 \u00b0C"}}