{"cas_no": "69617-84-1", "cn_name": "\u675c\u9e43\u9187", "en_name": ["4-Hydroxy-\u03b1-methylbenzenepropanol", "Benzenepropanol, 4-hydroxy-\u03b1-methyl-", "4-Hydroxy-\u03b1-methylbenzenepropanol", "Frambinol", "NSC 40514", "(\u00b1)-Rhododendrol", "4-(p-Hydroxyphenyl)-2-butanol", "Rhododenol", "Betulegenol", "4-(3-Hydroxybutyl)phenol", "4-(4-Hydroxyphenyl)-butan-2-ol"], "SMILES": "C(CC(C)O)C1=CC=C(O)C=C1", "physical_data": {"Molecular Weight": "166.22", "Molecular Formula": "C10H14O2", "Melting Point": "69-70 \u00b0C"}}