{"cas_no": "6961-46-2", "cn_name": "\u7f9f\u4e59\u6842\u80fa", "en_name": ["Idrocilamide", "2-Propenamide, N-(2-hydroxyethyl)-3-phenyl-", "Cinnamamide, N-(2-hydroxyethyl)-", "N-(2-Hydroxyethyl)-3-phenyl-2-propenamide", "N-(2-Hydroxyethyl)cinnamide", "LCB 29", "Idrocilamide", "Brolitene", "N-(2-Hydroxyethyl)cinnamamide", "Srilane", "NSC 44979", "NSC 58207", "NSC 63229"], "SMILES": "C(=CC(NCCO)=O)C1=CC=CC=C1", "physical_data": {"Molecular Weight": "191.23", "Molecular Formula": "C11H13NO2", "Melting Point": "101 \u00b0C"}}