{"cas_no": "69610-41-9", "cn_name": "N-BOC-L-\u812f\u6c28\u919b", "en_name": ["1,1-Dimethylethyl (2S)-2-formyl-1-pyrrolidinecarboxylate", "1-Pyrrolidinecarboxylic acid, 2-formyl-, 1,1-dimethylethyl ester, (2S)-", "1-Pyrrolidinecarboxylic acid, 2-formyl-, 1,1-dimethylethyl ester, (S)-", "1,1-Dimethylethyl (2S)-2-formyl-1-pyrrolidinecarboxylate", "N-tert-Butoxycarbonyl-(S)-prolinal", "tert-Butoxycarbonyl-L-prolinal", "N-(tert-Butoxycarbonyl)prolinal", "N-(tert-Butoxycarbonyl)-L-prolinal", "N-(tert-Butyloxycarbonyl)-(S)-prolinal", "(S)-1-tert-Butoxycarbonylpyrrolidine-2-carboxaldehyde", "Boc-prolinal", "N-Boc-L-prolinal", "tert-Butyl (2S)-2-formylpyrrolidine-1-carboxylate", "tert-Butyl (2S)-2-formyl-1-pyrrolidinecarboxylate", "(S)-2-Formylpyrrolidine-1-carboxylic acid tert-butyl ester", "(S)-1-Boc-2-formylpyrrolidine", "Boc-L-prolinal", "tert-Butyl (S)-2-formylpyrrolidine-1-carboxylate", "(S)-tert-Butyl 2-formylpyrrolidine-1-carboxylate", "1-Pyrrolidinecarboxylic acid 2-formyl-, 1,1-dimethylethyl ester (2S)-"], "SMILES": "C(OC(C)(C)C)(=O)N1C(C=O)CCC1", "physical_data": {"Molecular Weight": "199.25", "Molecular Formula": "C10H17NO3", "Boiling Point": "165 \u00b0C @ Press: 0.6 Torr"}}