{"cas_no": "6961-82-6", "cn_name": "\u90bb\u6c2f\u82ef\u78fa\u9170\u80fa", "en_name": ["2-Chlorobenzenesulfonamide", "Benzenesulfonamide, 2-chloro-", "Benzenesulfonamide, o-chloro-", "2-Chlorobenzenesulfonamide", "o-Chlorobenzenesulfonamide", "A 4097", "2-Chlorophenylsulfonamide", "2-Chlorobenzensulfonamide", "NSC 62927", "2-Chlorobenzene-1-sulfonamide"], "SMILES": "S(N)(=O)(=O)C1=C(Cl)C=CC=C1", "physical_data": {"Molecular Weight": "191.64", "Molecular Formula": "C6H6ClNO2S", "Melting Point": "187-188 \u00b0C"}}