{"cas_no": "6962-44-3", "cn_name": "\u4e59\u9170\u514b\u5229\u897f\u4e01", "en_name": ["N-(2-Methoxy-5-methylphenyl)acetamide", "Acetamide, N-(2-methoxy-5-methylphenyl)-", "o-Acetanisidide, 5\u2032-methyl-", "N-(2-Methoxy-5-methylphenyl)acetamide", "2\u2032-Methoxy-5\u2032-methylacetanilide", "3-Acetamido-4-methoxytoluene", "NSC 109456", "NSC 37057"], "SMILES": "N(C(C)=O)C1=C(OC)C=CC(C)=C1", "physical_data": {"Molecular Weight": "179.22", "Molecular Formula": "C10H13NO2", "Melting Point": "112 \u00b0C"}}