{"cas_no": "69628-98-4", "cn_name": "2-(4-\u785d\u57fa\u82ef\u57fa)\u4e59\u57fa\u7532\u919a", "en_name": ["1-(2-Methoxyethyl)-4-nitrobenzene", "Benzene, 1-(2-methoxyethyl)-4-nitro-", "Ether, methyl p-nitrophenethyl", "1-(2-Methoxyethyl)-4-nitrobenzene", "p-Nitrophenethyl methyl ether", "Methyl p-nitrophenethyl ether", "1-Methoxy-2-(4-nitrophenyl)ethane", "2-(4-Nitrophenyl)ethyl methyl ether"], "SMILES": "N(=O)(=O)C1=CC=C(CCOC)C=C1", "physical_data": {"Molecular Weight": "181.19", "Molecular Formula": "C9H11NO3", "Boiling Point": "62.5-63 \u00b0C", "Melting Point": "60-61 \u00b0C"}}