{"cas_no": "6962-92-1", "cn_name": "4-\u6c2f\u4e01\u9187\u918b\u9178\u916f", "en_name": ["1-Butanol, 4-chloro-, 1-acetate", "1-Butanol, 4-chloro-, 1-acetate", "1-Butanol, 4-chloro-, acetate", "4-Chlorobutyl acetate", "\u03b4-Chlorobutyl acetate", "1-Chloro-4-acetoxybutane", "1-Acetoxy-4-chlorobutane", "NSC 53492", "NSC 54074", "Acetic acid 4-chlorobutyl ester"], "SMILES": "C(OC(C)=O)CCCCl", "physical_data": {"Molecular Weight": "150.60", "Molecular Formula": "C6H11ClO2", "Boiling Point": "87 \u00b0C @ Press: 17 Torr", "Density": "1.1024 g/cm\u00b3 @ Temp: 0 \u00b0C"}}