{"cas_no": "6963-56-0", "cn_name": "\u4e01\u9178\u8334\u9999\u916f", "en_name": ["Anisyl butyrate", "Butanoic acid, (4-methoxyphenyl)methyl ester", "Butyric acid, p-methoxybenzyl ester", "Benzyl alcohol, p-methoxy-, butyrate", "Anisyl butyrate", "4-Methoxybenzyl butyrate", "NSC 53797", "4-Methoxybenzyl butanoate"], "SMILES": "C(OC(CCC)=O)C1=CC=C(OC)C=C1", "physical_data": {"Molecular Weight": "208.25", "Molecular Formula": "C12H16O3", "Boiling Point": "130-132 \u00b0C @ Press: 10-12 Torr"}}