{"cas_no": "6963-44-6", "cn_name": "1,5-\u4e8c\u4e59\u9170\u6c27\u57fa\u620a\u70f7", "en_name": ["1,5-Diacetoxypentane", "1,5-Pentanediol, 1,5-diacetate", "1,5-Pentanediol, diacetate", "1,5-Pentylene glycol diacetate", "1,5-Pentanediyl diacetate", "Pentamethylene diacetate", "NSC 53781", "1,5-Diacetoxypentane"], "SMILES": "C(OC(C)=O)CCCCOC(C)=O", "physical_data": {"Molecular Weight": "188.22", "Molecular Formula": "C9H16O4", "Boiling Point": "244 \u00b0C", "Density": "1.020 g/cm\u00b3 @ Temp: 26 \u00b0C"}}