{"cas_no": "6964-21-2", "cn_name": "3-\u567b\u5429\u4e59\u9178", "en_name": ["3-Thiopheneacetic acid", "3-Thiopheneacetic acid", "3-Thienylacetic acid", "3-Thiopheneethanoic acid", "2-(Thiophen-3-yl)acetic acid", "Thiophen-3-ylacetic acid", "NSC 66315", "2-(3-Thienyl)acetic acid", "3-Thiophenacetic acid"], "SMILES": "C(C(O)=O)C=1C=CSC1", "physical_data": {"Molecular Weight": "142.18", "Molecular Formula": "C6H6O2S", "Melting Point": "79-80 \u00b0C"}}