{"cas_no": "69655-05-6", "cn_name": "\u5730\u8fbe\u8bfa\u8f9b", "en_name": ["Didanosine", "Inosine, 2\u2032,3\u2032-dideoxy-", "2\u2032,3\u2032-Dideoxyinosine", "NSC 612049", "Didanosine", "BMY 40900", "DdI", "Videx", "Dideoxyinosine", "DdI (nucleoside)", "Videx EC"], "SMILES": "O=C1C2=C(N(C=N2)C3OC(CO)CC3)NC=N1", "physical_data": {"Molecular Weight": "236.23", "Molecular Formula": "C10H12N4O3", "Melting Point": "160-163 \u00b0C"}}