{"cas_no": "6966-10-5", "cn_name": "3,4-\u4e8c\u7532\u57fa\u82ef\u7532\u9187", "en_name": ["3,4-Dimethylbenzyl alcohol", "Benzenemethanol, 3,4-dimethyl-", "Benzyl alcohol, 3,4-dimethyl-", "3,4-Dimethylbenzenemethanol", "3,4-Dimethylbenzyl alcohol", "3,4-Dimethylphenylmethanol", "NSC 18728"], "SMILES": "C(O)C1=CC(C)=C(C)C=C1", "physical_data": {"Molecular Weight": "136.19", "Molecular Formula": "C9H12O", "Melting Point": "61-62 \u00b0C"}}