{"cas_no": "6966-45-6", "cn_name": "4-\u6c2f\u82ef\u57fa\u7532\u78fa\u9170\u6c2f", "en_name": ["(4-Chlorophenyl)methanesulfonyl chloride", "Benzenemethanesulfonyl chloride, 4-chloro-", "\u03b1-Toluenesulfonyl chloride, p-chloro-", "4-Chlorobenzenemethanesulfonyl chloride", "(p-Chlorophenyl)methanesulfonyl chloride", "p-Chlorobenzylsulfonyl chloride", "(4-Chlorophenyl)methanesulfonyl chloride", "4-Chlorobenzylsulfonyl chloride", "NSC 18788", "(4-Chlorophenyl)methanesulfonic acid chloride"], "SMILES": "C(S(Cl)(=O)=O)C1=CC=C(Cl)C=C1", "physical_data": {"Molecular Weight": "225.09", "Molecular Formula": "C7H6Cl2O2S", "Melting Point": "90-91 \u00b0C"}}