{"cas_no": "6967-29-9", "cn_name": "2,6-\u4e8c\u7532\u57fa\u6c2f\u4ee3\u4e59\u9170\u82ef\u80fa", "en_name": ["2-Chloro-N-(2,6-diethylphenyl)acetamide", "Acetamide, 2-chloro-N-(2,6-diethylphenyl)-", "Acetanilide, 2-chloro-2\u2032,6\u2032-diethyl-", "2-Chloro-N-(2,6-diethylphenyl)acetamide", "2-Chloro-2\u2032,6\u2032-diethylacetanilide", "2\u2032,6\u2032-Diethyl-2-chloroacetanilide", "2\u2032,6\u2032-Diethylchloroacetanilide", "\u03c9-Chloro-2\u2032,6\u2032-diethylacetanilide", "NSC 68291", "N-(2,6-Diethylphenyl)chloroacetamide", "N-(2,6-Diethylphenyl)-2-chloroacetamide"], "SMILES": "N(C(CCl)=O)C1=C(CC)C=CC=C1CC", "physical_data": {"Molecular Weight": "225.71", "Molecular Formula": "C12H16ClNO", "Melting Point": "125-128 \u00b0C"}}