{"cas_no": "6967-12-0", "cn_name": "6-\u6c28\u57fa\u5432\u5511", "en_name": ["1H-Indazol-6-amine", "1H-Indazol-6-amine", "1H-Indazole, 6-amino-", "6-Aminoindazole", "6-Amino-1H-indazole", "6-Indazolamine", "NSC 208700", "NSC 68265", "1H-Indazol-6-ylamine"], "SMILES": "NC=1C=C2C(=CC1)C=NN2", "physical_data": {"Molecular Weight": "133.15", "Molecular Formula": "C7H7N3", "Melting Point": "207-208 \u00b0C"}}