{"cas_no": "6968-28-1", "cn_name": "4-\u6eb4\u90bb\u82ef\u4e8c\u7532\u9178", "en_name": ["4-Bromophthalic acid", "1,2-Benzenedicarboxylic acid, 4-bromo-", "Phthalic acid, 4-bromo-", "4-Bromo-1,2-benzenedicarboxylic acid", "4-Bromophthalic acid", "NSC 20682", "4-Bromobenzene-1,2-dioic acid"], "SMILES": "C(O)(=O)C1=C(C(O)=O)C=C(Br)C=C1", "physical_data": {"Molecular Weight": "245.03", "Molecular Formula": "C8H5BrO4", "Melting Point": "170.5 \u00b0C"}}