{"cas_no": "6968-24-7", "cn_name": "2,6-\u4e8c\u6eb4-4-\u7532\u57fa\u82ef\u80fa", "en_name": ["2,6-Dibromo-4-methylaniline", "Benzenamine, 2,6-dibromo-4-methyl-", "p-Toluidine, 2,6-dibromo-", "2,6-Dibromo-4-methylbenzenamine", "2,6-Dibromo-4-methylaniline", "2,6-Dibromo-p-toluidine", "3,5-Dibromo-4-aminotoluene", "2,6-Dibromo-4-toluidine", "4-Amino-3,5-dibromotoluene", "NSC 20674"], "SMILES": "NC1=C(Br)C=C(C)C=C1Br", "physical_data": {"Molecular Weight": "264.95", "Molecular Formula": "C7H7Br2N", "Melting Point": "79 \u00b0C"}}