{"cas_no": "6968-11-2", "cn_name": "N,N'-\u4e8c(\u82c4\u6c27\u7fb0\u57fa)-L-\u80f1\u6c28\u9178", "en_name": ["N,N\u2032-Bis[(phenylmethoxy)carbonyl]-L-cystine", "L-Cystine, N,N\u2032-bis[(phenylmethoxy)carbonyl]-", "Cystine, N,N\u2032-dicarboxy-, N,N\u2032-dibenzyl ester, L-", "L-Cystine, N,N\u2032-dicarboxy-, N,N\u2032-dibenzyl ester", "N,N\u2032-Bis[(phenylmethoxy)carbonyl]-L-cystine", "Dicarbobenzoxy-L-cystine", "N,N\u2032-Dicarbobenzoxy-L-cystine", "N,N\u2032-Bis(benzyloxycarbonyl)cystine", "N,N\u2032-Dicarboxy-L-cystine N,N\u2032-dibenzyl ester", "N,N\u2032-Dicarboxycystine N,N\u2032-dibenzyl ester", "N,N\u2032-Bis(benzyloxycarbonyl)-L-cystine", "N,N\u2032-Dicarbobenzoxycystine", "NSC 154939", "NSC 20645", "NSC 88480", "N-Cbz-N\u2032-Cbz-L-cystine"], "SMILES": "C(OC(NC(CSSCC(NC(OCC1=CC=CC=C1)=O)C(O)=O)C(O)=O)=O)C2=CC=CC=C2", "physical_data": {"Molecular Weight": "508.56", "Molecular Formula": "C22H24N2O8S2", "Melting Point": "119-120 \u00b0C"}}