{"cas_no": "6968-72-5", "cn_name": "3-\u5421\u5576\u57fa\u7532\u9187\u6c2e\u6c27\u5316\u7269", "en_name": ["3-Pyridinemethanol, 1-oxide", "3-Pyridinemethanol, 1-oxide", "3-(Hydroxymethyl)pyridine N-oxide", "Mepiroxol", "3-(Hydroxymethyl)pyridine 1-oxide", "Lysateril", "Mepyroxol", "3-Pyridylcarbinol N-oxide", "3-Pyridinemethanol N-oxide", "NSC 66283", "(1-Oxidopyridin-1-ium-3-yl)methanol"], "SMILES": "C(O)C1=CN(=O)=CC=C1", "physical_data": {"Molecular Weight": "125.13", "Molecular Formula": "C6H7NO2", "Melting Point": "93-94 \u00b0C"}}