{"cas_no": "6969-71-7", "cn_name": "\u5421\u5576\u4e09\u5511\u916e", "en_name": ["1,2,4-Triazolo[4,3-a]pyridin-3(2H)-one", "1,2,4-Triazolo[4,3-a]pyridin-3(2H)-one", "s-Triazolo[4,3-a]pyridin-3-ol", "3-Hydroxytriazolo[4,3-a]pyridine", "NSC 68462", "[1,2,4]Triazolo[4,3-a]pyridin-3-ol", "2H,3H-[1,2,4]Triazolo[4,3-a]pyridin-3-one", "2H-[1,2,4]Triazolo[4,3-a]pyridin-3-one"], "SMILES": "O=C1N2C(C=CC=C2)=NN1", "physical_data": {"Molecular Weight": "135.12", "Molecular Formula": "C6H5N3O", "Melting Point": "229 \u00b0C"}}