{"cas_no": "697-82-5", "cn_name": "2,3,5-\u4e09\u7532\u57fa\u82ef\u915a", "en_name": ["2,3,5-Trimethylphenol", "Phenol, 2,3,5-trimethyl-", "2,3,5-Trimethylphenol", "Isopseudocumenol", "1-Hydroxy-2,3,5-trimethylbenzene", "6-Hydroxypseudocumene", "NSC 5296", "3,5,6-Trimethylphenol"], "SMILES": "CC1=C(C)C=C(C)C=C1O", "physical_data": {"Molecular Weight": "136.19", "Molecular Formula": "C9H12O", "Boiling Point": "230.5 \u00b0C", "Melting Point": "93.5 \u00b0C"}}