{"cas_no": "697-73-4", "cn_name": "2,6-\u4e8c\u6c1f\u6c2f\u82c4", "en_name": ["2,6-Difluorobenzyl chloride", "Benzene, 2-(chloromethyl)-1,3-difluoro-", "Toluene, \u03b1-chloro-2,6-difluoro-", "2-(Chloromethyl)-1,3-difluorobenzene", "2,6-Difluorobenzyl chloride"], "SMILES": "C(Cl)C1=C(F)C=CC=C1F", "physical_data": {"Molecular Weight": "162.56", "Molecular Formula": "C7H5ClF2", "Boiling Point": "54-55 \u00b0C @ Press: 10 mmHg"}}