{"cas_no": "697-83-6", "cn_name": "2,4,6-\u4e09\u6c1f-5-\u6c2f\u5627\u5576", "en_name": ["5-Chloro-2,4,6-trifluoropyrimidine", "Pyrimidine, 5-chloro-2,4,6-trifluoro-", "5-Chloro-2,4,6-trifluoropyrimidine", "2,4,6-Trifluoro-5-chloropyrimidine", "Trifluoro-5-chloropyrimidine", "5-Chloroperfluoropyrimidine"], "SMILES": "ClC=1C(F)=NC(F)=NC1F", "physical_data": {"Molecular Weight": "168.50", "Molecular Formula": "C4ClF3N2", "Boiling Point": "114.5 \u00b0C"}}