{"cas_no": "697-17-6", "cn_name": "\u4e09\u6c2f-\u4e09\u6c2f\u73af\u4e01\u70f7", "en_name": ["1,1,2-Trichloro-2,3,3-trifluorocyclobutane", "Cyclobutane, 1,1,2-trichloro-2,3,3-trifluoro-", "1,1,2-Trichloro-2,3,3-trifluorocyclobutane", "1,4,4-Trichloro-1,2,2-trifluorocyclobutane"], "SMILES": "ClC1(Cl)C(Cl)(F)C(F)(F)C1", "physical_data": {"Molecular Weight": "213.41", "Molecular Formula": "C4H2Cl3F3", "Boiling Point": "120-121 \u00b0C"}}