{"cas_no": "697-86-9", "cn_name": "2-\u6eb4-4,6-\u4e8c\u6c2f\u82ef\u80fa", "en_name": ["2-Bromo-4,6-dichloroaniline", "Benzenamine, 2-bromo-4,6-dichloro-", "Aniline, 2-bromo-4,6-dichloro-", "2-Bromo-4,6-dichlorobenzenamine", "2,4-Dichloro-6-bromoaniline", "6-Bromo-2,4-dichloroaniline", "2-Bromo-4,6-dichloroaniline"], "SMILES": "NC1=C(Br)C=C(Cl)C=C1Cl", "physical_data": {"Molecular Weight": "240.91", "Molecular Formula": "C6H4BrCl2N", "Boiling Point": "273 \u00b0C", "Melting Point": "83.5 \u00b0C"}}