{"cas_no": "697-90-5", "cn_name": "2,4-\u4e8c\u6c2f-6-\u7898\u82ef\u80fa", "en_name": ["2,4-Dichloro-6-iodobenzenamine", "Benzenamine, 2,4-dichloro-6-iodo-", "Aniline, 2,4-dichloro-6-iodo-", "2,4-Dichloro-6-iodobenzenamine", "2,4-Dichloro-6-iodoaniline", "2,4-Dichloro-6-iodophenylamine"], "SMILES": "NC1=C(Cl)C=C(Cl)C=C1I", "physical_data": {"Molecular Weight": "287.91", "Molecular Formula": "C6H4Cl2IN", "Melting Point": "84 \u00b0C"}}