{"cas_no": "697-18-7", "cn_name": "\u56db\u6c1f\u4e59\u70f7-beta-\u78fa\u5185\u916f", "en_name": ["1,2-Oxathietane, 3,3,4,4-tetrafluoro-, 2,2-dioxide", "1,2-Oxathietane, 3,3,4,4-tetrafluoro-, 2,2-dioxide", "Ethanesulfonic acid, 1,1,2,2-tetrafluoro-2-hydroxy-, \u03b2-sultone", "2-Hydroxytetrafluoroethanesulfonic acid \u03b2-sultone", "Tetrafluoroethane-\u03b2-sultone", "Tetrafluoroethanesultone", "3,3,4,4-Tetrafluoro-1,2-oxathietane-2,2-dioxide"], "SMILES": "FC1(F)C(F)(F)S(=O)(=O)O1", "physical_data": {"Molecular Weight": "180.08", "Molecular Formula": "C2F4O3S", "Boiling Point": "42 \u00b0C", "Melting Point": "-35 \u00b0C", "Density": "1.6219 g/cm\u00b3 @ Temp: 20 \u00b0C"}}