{"cas_no": "697-91-6", "cn_name": "2\u30016\u4e00\u4e8c\u6c2f-P-\u82ef\u918c", "en_name": ["2,6-Dichloro-1,4-benzoquinone", "2,5-Cyclohexadiene-1,4-dione, 2,6-dichloro-", "p-Benzoquinone, 2,6-dichloro-", "Quinone, 2,6-dichloro-", "2,6-Dichloro-2,5-cyclohexadiene-1,4-dione", "2,6-Dichloro-p-benzoquinone", "2,6-Dichlorobenzoquinone", "2,6-Dichloro-1,4-benzoquinone", "2,6-Dichloroquinone", "NSC 6211"], "SMILES": "O=C1C(Cl)=CC(=O)C=C1Cl", "physical_data": {"Molecular Weight": "176.98", "Molecular Formula": "C6H2Cl2O2", "Melting Point": "120-121 \u00b0C"}}