{"cas_no": "697-88-1", "cn_name": "4-\u6eb4-2,6-\u4e8c\u6c2f\u82ef\u80fa", "en_name": ["4-Bromo-2,6-dichloroaniline", "Benzenamine, 4-bromo-2,6-dichloro-", "Aniline, 4-bromo-2,6-dichloro-", "4-Bromo-2,6-dichlorobenzenamine", "4-Bromo-2,6-dichloroaniline", "2,6-Dichloro-4-bromoaniline", "(4-Bromo-2,6-dichlorophenyl)amine"], "SMILES": "NC1=C(Cl)C=C(Br)C=C1Cl", "physical_data": {"Molecular Weight": "240.91", "Molecular Formula": "C6H4BrCl2N", "Melting Point": "86-87 \u00b0C"}}