{"cas_no": "6970-19-0", "cn_name": "3,4,5-\u4e09\u4e59\u6c27\u57fa\u82ef\u7532\u9178", "en_name": ["3,4,5-Triethoxybenzoic acid", "Benzoic acid, 3,4,5-triethoxy-", "3,4,5-Triethoxybenzoic acid", "NSC 66202"], "SMILES": "O(CC)C1=C(OCC)C=C(C(O)=O)C=C1OCC", "physical_data": {"Molecular Weight": "254.28", "Molecular Formula": "C13H18O5", "Melting Point": "108-110 \u00b0C"}}