{"cas_no": "6971-44-4", "cn_name": "N-\u7532\u57fa-N-(4-\u5421\u5576\u7532\u57fa)\u80fa", "en_name": ["N-Methyl-4-pyridinemethanamine", "4-Pyridinemethanamine, N-methyl-", "Pyridine, 4-[(methylamino)methyl]-", "N-Methyl-4-pyridinemethanamine", "4-(Methylaminomethyl)pyridine", "N-Methyl-N-(4-pyridylmethyl)amine", "4-(N-Methylaminomethyl)pyridine", "N-Methyl-N-(pyridin-4-ylmethyl)amine", "NSC 66533", "Methyl(pyridin-4-ylmethyl)amine", "N-[(Pyridin-4-yl)methyl]methylamine", "N-Methyl-1-(pyridin-4-yl)methanamine"], "SMILES": "C(NC)C=1C=CN=CC1", "physical_data": {"Molecular Weight": "122.17", "Molecular Formula": "C7H10N2", "Boiling Point": "84 \u00b0C"}}