{"cas_no": "6971-38-6", "cn_name": "5-\u4e9a\u785d\u57fa-2-\u7532(\u82ef)\u915a", "en_name": ["2-Methyl-4-nitrosophenol", "Phenol, 2-methyl-4-nitroso-", "o-Cresol, 4-nitroso-", "2-Methyl-4-nitrosophenol", "p-Nitroso-o-cresol", "NSC 66508", "NSC 677555"], "SMILES": "N(=O)C1=CC(C)=C(O)C=C1", "physical_data": {"Molecular Weight": "137.14", "Molecular Formula": "C7H7NO2", "Melting Point": "133-134 \u00b0C"}}