{"cas_no": "6971-51-3", "cn_name": "\u95f4\u7532\u6c27\u57fa\u82ef\u7532\u9187", "en_name": ["3-Methoxybenzyl alcohol", "Benzenemethanol, 3-methoxy-", "Benzyl alcohol, m-methoxy-", "3-Methoxybenzenemethanol", "m-Methoxybenzyl alcohol", "3-Methoxybenzyl alcohol", "(3-Methoxyphenyl)methanol", "m-Anisalcohol", "1-(Hydroxymethyl)-3-methoxybenzene", "NSC 66559", "[3-(Methyloxy)phenyl]methanol"], "SMILES": "C(O)C1=CC(OC)=CC=C1", "physical_data": {"Molecular Weight": "138.16", "Molecular Formula": "C8H10O2", "Boiling Point": "252 \u00b0C", "Melting Point": "29-30 \u00b0C"}}