{"cas_no": "69716-05-8", "cn_name": "2-(6-\u7532\u6c27\u57fa-1-\u82ef\u5e76\u544b\u5583-3-\u57fa)\u4e59\u9178", "en_name": ["6-Methoxy-3-benzofuranacetic acid", "3-Benzofuranacetic acid, 6-methoxy-", "6-Methoxy-3-benzofuranacetic acid", "(6-Methoxybenzofuran-3-yl)acetic acid", "2-(5-Methoxybenzofuran-1-yl)ethanoic acid", "2-(6-Methoxy-1-benzofuran-3-yl) acetic acid", "2-(6-Methoxybenzofuran-3-yl)acetic acid"], "SMILES": "C(C(O)=O)C=1C=2C(=CC(OC)=CC2)OC1", "physical_data": {"Molecular Weight": "206.19", "Molecular Formula": "C11H10O4", "Melting Point": "124.6-126.0 \u00b0C"}}