{"cas_no": "6972-61-8", "cn_name": "2,4-\u4e8c\u7532\u6c27\u57fa\u8089\u6842\u9178", "en_name": ["2,4-Dimethoxycinnamic acid", "2-Propenoic acid, 3-(2,4-dimethoxyphenyl)-", "Cinnamic acid, 2,4-dimethoxy-", "3-(2,4-Dimethoxyphenyl)-2-propenoic acid", "2,4-Dimethoxycinnamic acid", "NSC 62137"], "SMILES": "C(=CC(O)=O)C1=C(OC)C=C(OC)C=C1", "physical_data": {"Molecular Weight": "208.21", "Molecular Formula": "C11H12O4", "Melting Point": "182-184 \u00b0C"}}