{"cas_no": "6972-69-6", "cn_name": "N,N-\u4e8c\u7532\u57fa\u70df\u9170\u80fa", "en_name": ["N,N-Dimethylnicotinamide", "3-Pyridinecarboxamide, N,N-dimethyl-", "Nicotinamide, N,N-dimethyl-", "N,N-Dimethyl-3-pyridinecarboxamide", "N,N-Dimethylnicotinamide", "Nicotinic acid dimethylamide", "NSC 62007", "3-Dimethylcarbamoyl pyridine"], "SMILES": "C(N(C)C)(=O)C=1C=CC=NC1", "physical_data": {"Molecular Weight": "150.18", "Molecular Formula": "C8H10N2O", "Boiling Point": "146-147 \u00b0C @ Press: 9 Torr", "Melting Point": "43-45 \u00b0C"}}