{"cas_no": "697235-38-4", "cn_name": "(1R,2R,3S,3AR,8BS)-6-[[(2S,3R,6R)-6-[(1R)-1,2-\u4e8c\u7f9f\u57fa\u4e59\u57fa]-3-\u7532\u6c27\u57fa-1,4-\u4e8c\u6c27\u5df1\u73af-2-\u57fa]\u6c27\u57fa]-2,3,3A,8B-\u56db\u6c22-1,8B-\u4e8c\u7f9f\u57fa-8-\u7532\u6c27\u57fa-3A-(4-\u7532\u6c27\u57fa\u82ef\u57fa)-3-\u82ef\u57fa-1H-\u73af\u620a\u70ef\u5e76[B]\u82ef\u5e76\u544b\u5583-2-\u7fa7\u9178\u7532\u916f", "en_name": ["(-)-Silvestrol", "1H-Cyclopenta[b]benzofuran-2-carboxylic acid, 6-[[(2S,3R,6R)-6-[(1R)-1,2-dihydroxyethyl]-3-methoxy-1,4-dioxan-2-yl]oxy]-2,3,3a,8b-tetrahydro-1,8b-dihydroxy-8-methoxy-3a-(4-methoxyphenyl)-3-phenyl-, methyl ester, (1R,2R,3S,3aR,8bS)-", "Silvestrol", "(-)-Silvestrol"], "SMILES": "OC12C(C(C(C(OC)=O)C1O)C3=CC=CC=C3)(OC=4C2=C(OC)C=C(OC5C(OC)OCC(C(CO)O)O5)C4)C6=CC=C(OC)C=C6", "physical_data": {"Molecular Weight": "654.66", "Molecular Formula": "C34H38O13", "Melting Point": "119-123 \u00b0C"}}