{"cas_no": "6972-79-8", "cn_name": "1,3-\u53cc\uff08\u82c4\u6c27\u57fa\uff09-2-\u4e19\u9187", "en_name": ["1,3-Bis(phenylmethoxy)-2-propanol", "2-Propanol, 1,3-bis(phenylmethoxy)-", "2-Propanol, 1,3-bis(benzyloxy)-", "1,3-Bis(phenylmethoxy)-2-propanol", "1,3-Dibenzyloxy-2-hydroxypropane", "1,3-Di-O-benzylglycerol", "1,3-Dibenzyloxy-2-propanol", "1,3-Dibenzyl glycerol", "1,3-O-Dibenzylglycerin", "1,3-Dibenzylglycerin", "1,3-Benzyloxy-2-propanol", "1,3-Bis(benzyloxy)-2-propanol", "NSC 62583"], "SMILES": "C(OCC(COCC1=CC=CC=C1)O)C2=CC=CC=C2", "physical_data": {"Molecular Weight": "272.34", "Molecular Formula": "C17H20O3", "Boiling Point": "226-227 \u00b0C @ Press: 13 Torr"}}