{"cas_no": "6972-05-0", "cn_name": "N,N-\u4e8c\u7532\u57fa\u786b\u8132", "en_name": ["N,N-Dimethylthiourea", "Thiourea, N,N-dimethyl-", "Urea, 1,1-dimethyl-2-thio-", "N,N-Dimethylthiourea", "1,1-Dimethylthiourea", "NSC 67246"], "SMILES": "C(N(C)C)(N)=S", "physical_data": {"Molecular Weight": "104.17", "Molecular Formula": "C3H8N2S", "Melting Point": "163-164 \u00b0C"}}