{"cas_no": "6972-27-6", "cn_name": "6-\u6c2f-1,3-\u4e8c\u7532\u57fa\u8132\u5627\u5576", "en_name": ["6-Chloro-1,3-dimethyl-2,4(1H,3H)-pyrimidinedione", "2,4(1H,3H)-Pyrimidinedione, 6-chloro-1,3-dimethyl-", "Uracil, 6-chloro-1,3-dimethyl-", "6-Chloro-1,3-dimethyl-2,4(1H,3H)-pyrimidinedione", "1,3-Dimethyl-6-chlorouracil", "6-Chloro-1,3-dimethyluracil", "4-Chloro-1,3-dimethyluracil", "6-Chloro-1,3-dimethyl-2,4-dioxopyrimidine", "6-Chloro-1,3-dimethylpyrimidine-2,4-dione", "NSC 61919", "6-Chloro-1,3-dimethylpyrimidine-2,4(1H,3H)-dione"], "SMILES": "CN1C(=O)N(C)C(=O)C=C1Cl", "physical_data": {"Molecular Weight": "174.59", "Molecular Formula": "C6H7ClN2O2", "Melting Point": "111 \u00b0C"}}