{"cas_no": "6972-71-0", "cn_name": "4\uff0c5-\u4e8c\u7532-2-\u785d\u57fa\u82ef\u80fa", "en_name": ["4,5-Dimethyl-2-nitrobenzenamine", "Benzenamine, 4,5-dimethyl-2-nitro-", "3,4-Xylidine, 6-nitro-", "4,5-Dimethyl-2-nitrobenzenamine", "4,5-Dimethyl-2-nitroaniline", "2-Nitro-4,5-dimethylaniline", "6-Nitro-3,4-dimethylaniline", "3,4-Dimethyl-6-nitroaniline", "NSC 62010", "1-Amino-3,4-dimethyl-6-nitrobenzene"], "SMILES": "N(=O)(=O)C1=C(N)C=C(C)C(C)=C1", "physical_data": {"Molecular Weight": "166.18", "Molecular Formula": "C8H10N2O2", "Melting Point": "140 \u00b0C"}}