{"cas_no": "6973-60-0", "cn_name": "N-\u7532\u57fa-2-\u5421\u54af\u7fa7\u9178", "en_name": ["1-Methyl-1H-pyrrole-2-carboxylic acid", "1H-Pyrrole-2-carboxylic acid, 1-methyl-", "Pyrrole-2-carboxylic acid, 1-methyl-", "1-Methyl-1H-pyrrole-2-carboxylic acid", "N-Methyl-2-pyrrolecarboxylic acid", "1-Methyl-2-pyrrolecarboxylic acid", "NSC 40289", "N-Methyl-2-pyrrolcarboxylic acid"], "SMILES": "C(O)(=O)C=1N(C)C=CC1", "physical_data": {"Molecular Weight": "125.13", "Molecular Formula": "C6H7NO2", "Melting Point": "135-136 \u00b0C"}}