{"cas_no": "697300-73-5", "cn_name": "3-\u6eb4-5-\u7898-2-\u5421\u5576\u80fa", "en_name": ["3-Bromo-5-iodo-2-pyridinamine", "2-Pyridinamine, 3-bromo-5-iodo-", "3-Bromo-5-iodo-2-pyridinamine", "3-Bromo-5-iodopyridin-2-amine", "3-Bromo-5-iodo-pyridin-2-ylamine"], "SMILES": "BrC1=C(N)N=CC(I)=C1", "physical_data": {"Molecular Weight": "298.91", "Molecular Formula": "C5H4BrIN2", "Melting Point": "106-110 \u00b0C"}}