{"cas_no": "69739-34-0", "cn_name": "\u53d4\u4e01\u57fa\u4e8c\u7532\u7845\u57fa\u4e09\u6c1f\u7532\u78fa\u9178\u916f", "en_name": ["(1,1-Dimethylethyl)dimethylsilyl 1,1,1-trifluoromethanesulfonate", "Methanesulfonic acid, 1,1,1-trifluoro-, (1,1-dimethylethyl)dimethylsilyl ester", "Methanesulfonic acid, trifluoro-, (1,1-dimethylethyl)dimethylsilyl ester", "(1,1-Dimethylethyl)dimethylsilyl 1,1,1-trifluoromethanesulfonate", "tert-Butyldimethylsilyl triflate", "tert-Butyldimethylsilyl trifluoromethanesulfonate", "Trifluoromethanesulfonic acid (1,1-dimethylethyl)dimethylsilyl ester", "Trifluoromethanesulfonic acid tert-butyldimethylsilyl ester", "(1,1-Dimethylethyl)dimethylsilyl trifluoromethanesulfonate", "tert-Butyldimethylsilyl trifluoromethanesulfonate", "tert-Butyldimethylsilyl triflate", "Dimethyl(2-methyl-2-propanyl)silyl trifluoromethanesulfonate"], "SMILES": "S(O[Si](C(C)(C)C)(C)C)(C(F)(F)F)(=O)=O", "physical_data": {"Molecular Weight": "264.34", "Molecular Formula": "C7H15F3O3SSi", "Boiling Point": "65 \u00b0C @ Press: 10 Torr", "Density": "1.151 g/cm\u00b3"}}