{"cas_no": "6974-78-3", "cn_name": "8-\u6eb4\u817a\u560c\u5464", "en_name": ["8-Bromo-9H-purin-6-amine", "9H-Purin-6-amine, 8-bromo-", "Adenine, 8-bromo-", "1H-Purin-6-amine, 8-bromo-", "8-Bromo-9H-purin-6-amine", "8-Bromoadenine", "6-Amino-8-bromopurine", "NSC 21697"], "SMILES": "NC1=C2C(N=C(Br)N2)=NC=N1", "physical_data": {"Molecular Weight": "214.02", "Molecular Formula": "C5H4BrN5", "Melting Point": "&gt;260 \u00b0C"}}