{"cas_no": "6974-77-2", "cn_name": "1-\u6eb4-3-\u6c2f-2-\u7532\u57fa\u4e19\u70f7", "en_name": ["1-Bromo-3-chloro-2-methylpropane", "Propane, 1-bromo-3-chloro-2-methyl-", "1-Bromo-3-chloro-2-methylpropane", "2-Methyl-1-chloro-3-bromopropane", "3-Bromo-2-methyl-1-chloropropane", "1-Chloro-3-bromo-2-methylpropane", "NSC 21695", "2-Methyl-1-bromo-3-chloropropane"], "SMILES": "C(CBr)(CCl)C", "physical_data": {"Molecular Weight": "171.46", "Molecular Formula": "C4H8BrCl", "Boiling Point": "155 \u00b0C", "Density": "1.4845 g/cm\u00b3 @ Temp: 20 \u00b0C"}}