{"cas_no": "6974-12-5", "cn_name": "1,4-\u4e8c\u6eb4\u4e01\u70ef-2", "en_name": ["1,4-Dibromo-2-butene", "2-Butene, 1,4-dibromo-", "1,4-Dibromo-2-butene", "NSC 23187"], "SMILES": "C(=CCBr)CBr", "physical_data": {"Molecular Weight": "213.90", "Molecular Formula": "C4H6Br2", "Boiling Point": "47-48.2 \u00b0C", "Melting Point": "53-54 \u00b0C", "Density": "1.3777 g/cm\u00b3 @ Temp: 20 \u00b0C"}}