{"cas_no": "6974-32-9", "cn_name": "1-\u4e59\u9170\u6c27\u57fa-2,3,5-\u4e09\u82ef\u7532\u9170\u6c27\u57fa-1-beta-D-\u544b\u5583\u6838\u7cd6", "en_name": ["1-O-Acetyl-2,3,5-tri-O-benzoyl-\u03b2-D-ribofuranose", "\u03b2-D-Ribofuranose, 1-acetate 2,3,5-tribenzoate", "Ribofuranose, 1-acetate 2,3,5-tribenzoate, \u03b2-D-", "1-O-Acetyl-2,3,5-tri-O-benzoyl-\u03b2-D-ribose", "1-O-Acetyltri-O-benzoyl-\u03b2-D-ribofuranose", "1-O-Acetyl-2,3,5-tri-O-benzoyl-\u03b2-D-ribofuranose", "2,3,5-Tri-O-benzoyl-\u03b2-D-ribofuranosyl acetate", "ABR", "NSC 23349", "1-O-Acetyl-2,3,4-tri-O-benzoyl-\u03b2-D-ribofuranose", "1-0-Acetyl-2,3,5-tri-O-benzoyl-\u03b2-D-ribofuranose"], "SMILES": "O(C(=O)C1=CC=CC=C1)C2C(OC(=O)C3=CC=CC=C3)C(OC(C)=O)OC2COC(=O)C4=CC=CC=C4", "physical_data": {"Molecular Weight": "504.48", "Molecular Formula": "C28H24O9", "Melting Point": "128-129 \u00b0C"}}