{"cas_no": "6974-97-6", "cn_name": "4,7-\u4e8c\u7532\u57fa\u831a", "en_name": ["4,7-Dimethyl-1H-indene", "1H-Indene, 4,7-dimethyl-", "Indene, 4,7-dimethyl-", "4,7-Dimethyl-1H-indene", "4,7-Dimethylindene", "NSC 22051"], "SMILES": "CC1=C2C(=C(C)C=C1)C=CC2", "physical_data": {"Molecular Weight": "144.21", "Molecular Formula": "C11H12", "Boiling Point": "63-65 \u00b0C @ Press: 1.7 Torr"}}