{"cas_no": "69759-61-1", "cn_name": "ALPHA-(\u4e8c\u6b63\u4e01\u80fa\u7532\u57fa)-2,7-\u4e8c\u6c2f\u82b4-4-\u7532\u9187", "en_name": ["2,7-Dichloro-\u03b1-[(dibutylamino)methyl]-9H-fluorene-4-methanol", "9H-Fluorene-4-methanol, 2,7-dichloro-\u03b1-[(dibutylamino)methyl]-", "2,7-Dichloro-\u03b1-[(dibutylamino)methyl]-9H-fluorene-4-methanol", "2-(Dibutylamino)-1-(2,7-dichloro-9H-fluoren-4-yl)ethanol"], "SMILES": "C(CN(CCCC)CCCC)(O)C1=C2C=3C(CC2=CC(Cl)=C1)=CC(Cl)=CC3", "physical_data": {"Molecular Weight": "406.39", "Molecular Formula": "C23H29Cl2NO", "Melting Point": "79-81 \u00b0C"}}