{"cas_no": "6975-73-1", "cn_name": "\u6258\u5339\u53f8\u4ed6\u6742\u8d28E", "en_name": ["4-Pyridinecarboxylic acid, hydrazide, 1-oxide", "4-Pyridinecarboxylic acid, hydrazide, 1-oxide", "Isonicotinic acid, hydrazide, 1-oxide", "Isoniazid, 1-oxide", "Isonicotinic acid 1-oxide hydrazide", "Isoniazide-N-oxide", "NSC 21650"], "SMILES": "C(NN)(=O)C=1C=CN(=O)=CC1", "physical_data": {"Molecular Weight": "153.14", "Molecular Formula": "C6H7N3O2", "Melting Point": "212-213 \u00b0C"}}