{"cas_no": "6975-92-4", "cn_name": "2,5-\u4e8c\u7532\u57fa-1-\u5df1\u70ef", "en_name": ["2,5-Dimethyl-1-hexene", "1-Hexene, 2,5-dimethyl-", "2,5-Dimethyl-1-hexene", "NSC 20555"], "SMILES": "C(CC(C)=C)C(C)C", "physical_data": {"Molecular Weight": "112.21", "Molecular Formula": "C8H16", "Boiling Point": "111.6 \u00b0C"}}