{"cas_no": "6975-60-6", "cn_name": "2-\u544b\u5583\u57fa\u4e59\u916e", "en_name": ["1-(2-Furyl)-2-propanone", "2-Propanone, 1-(2-furanyl)-", "2-Propanone, 1-(2-furyl)-", "2-Propanone, (2-furyl)-", "1-(2-Furanyl)-2-propanone", "Furfuryl methyl ketone", "2-Furfuryl methyl ketone", "1-(2-Furyl)-2-propanone", "2-Acetonylfuran", "2-Furyl-1-propan-2-one", "2-Furylacetone", "Methyl furfuryl ketone", "NSC 21607", "2-(2-Oxopropyl)furan"], "SMILES": "C(C(C)=O)C1=CC=CO1", "physical_data": {"Molecular Weight": "124.14", "Molecular Formula": "C7H8O2", "Boiling Point": "179.5 \u00b0C", "Melting Point": "29 \u00b0C", "Density": "1.0488 g/cm\u00b3 @ Temp: 20 \u00b0C"}}