{"cas_no": "6975-98-0", "cn_name": "2-\u7532\u57fa\u7678\u70f7", "en_name": ["2-Methyldecane", "Decane, 2-methyl-", "2-Methyldecane", "NSC 20567"], "SMILES": "C(CCCCC)CCC(C)C", "physical_data": {"Molecular Weight": "156.31", "Molecular Formula": "C11H24", "Boiling Point": "189.3 \u00b0C", "Melting Point": "-48.9 \u00b0C"}}