{"cas_no": "6975-29-7", "cn_name": "2,4-\u4e8c\u6c2f-N-\u4e59\u9170\u82ef\u80fa", "en_name": ["N-(2,4-Dichlorophenyl)acetamide", "Acetamide, N-(2,4-dichlorophenyl)-", "Acetanilide, 2\u2032,4\u2032-dichloro-", "N-(2,4-Dichlorophenyl)acetamide", "2,4-Dichloroacetanilide", "2\u2032,4\u2032-Dichloroacetanilide", "NSC 22365", "N-Acetyl-2,4-dichloroaniline"], "SMILES": "N(C(C)=O)C1=C(Cl)C=C(Cl)C=C1", "physical_data": {"Molecular Weight": "204.05", "Molecular Formula": "C8H7Cl2NO", "Melting Point": "146.400078125 \u00b0C"}}