{"cas_no": "6975-71-9", "cn_name": "1-\u73af\u5df1\u70ef\u4e59\u8148", "en_name": ["1-Cyclohexene-1-acetonitrile", "1-Cyclohexene-1-acetonitrile", "1-Cyclohexen-1-ylacetonitrile", "2-(1-Cyclohexenyl)acetonitrile", "1-Cyclohexenylacetonitrile", "NSC 21642", "2-(Cyclohex-1-en-1-yl)acetonitrile"], "SMILES": "C(C#N)C=1CCCCC1", "physical_data": {"Molecular Weight": "121.18", "Molecular Formula": "C8H11N", "Boiling Point": "112 \u00b0C @ Press: 27 Torr", "Melting Point": "225-227 \u00b0C", "Density": "0.94727 g/cm\u00b3 @ Temp: 21.1 \u00b0C"}}