{"cas_no": "6976-93-8", "cn_name": "\u7532\u57fa\u4e19\u70ef\u9178\u7532\u6c27\u57fa\u4e59\u916f", "en_name": ["Methoxyethyl methacrylate", "2-Propenoic acid, 2-methyl-, 2-methoxyethyl ester", "Methacrylic acid, 2-methoxyethyl ester", "Ethanol, 2-methoxy-, methacrylate", "\u03b2-Methoxyethyl methacrylate", "2-Methoxyethyl methacrylate", "Methoxyethyl methacrylate", "Acryics C 1", "Blemmer PME 50", "NSC 24157", "Acryester MT", "EGMEMA", "Ethylene glycol methacrylate methyl ether", "2-Methoxyethylene glycol methacrylate", "Ethylene glycol monomethyl ether methacrylate", "Ethylene glycol methyl ether methacrylate", "2-Methoxyethyl 2-methylprop-2-enoate", "Methylmonoglycol methacrylate"], "SMILES": "C(OCCOC)(C(C)=C)=O", "physical_data": {"Molecular Weight": "144.17", "Molecular Formula": "C7H12O3", "Boiling Point": "65 \u00b0C @ Press: 12 Torr"}}