{"cas_no": "6976-91-6", "cn_name": "N,N-\u4e8c\u7532\u57fa\u7532\u57fa\u4e19\u70ef\u9170\u80fa", "en_name": ["Dimethylmethacrylamide", "2-Propenamide, N,N,2-trimethyl-", "Acrylamide, N,N,2-trimethyl-", "N,N,2-Trimethyl-2-propenamide", "N,N-Dimethylmethacrylamide", "NSC 24154", "Dimethylmethacrylamide"], "SMILES": "C(C(C)=C)(N(C)C)=O", "physical_data": {"Molecular Weight": "113.16", "Molecular Formula": "C6H11NO", "Boiling Point": "66-67 \u00b0C @ Press: 10 Torr", "Density": "0.9272 g/cm\u00b3 @ Temp: 20 \u00b0C"}}