{"cas_no": "697739-03-0", "cn_name": "5-\u6c1f-2-\u7532\u57fa-3-\u785d\u57fa\u82ef\u7532\u9178\u7532\u916f", "en_name": ["Benzoic acid, 5-fluoro-2-methyl-3-nitro-, methyl ester", "Benzoic acid, 5-fluoro-2-methyl-3-nitro-, methyl ester", "Methyl 5-fluoro-2-methyl-3-nitrobenzoate", "5-Fluoro-2-methyl-3-nitrobenzoic acid methyl ester", "Methyl 2-methyl-5-fluoro-3-nitrobenzoate"], "SMILES": "C(OC)(=O)C1=C(C)C(N(=O)=O)=CC(F)=C1", "physical_data": {"Molecular Weight": "213.16", "Molecular Formula": "C9H8FNO4", "Melting Point": "69 \u00b0C"}}