{"cas_no": "697761-98-1", "cn_name": "\u57c3\u66ff\u62c9\u97e6", "en_name": ["Elvitegravir", "3-Quinolinecarboxylic acid, 6-[(3-chloro-2-fluorophenyl)methyl]-1,4-dihydro-1-[(1S)-1-(hydroxymethyl)-2-methylpropyl]-7-methoxy-4-oxo-", "6-[(3-Chloro-2-fluorophenyl)methyl]-1,4-dihydro-1-[(1S)-1-(hydroxymethyl)-2-methylpropyl]-7-methoxy-4-oxo-3-quinolinecarboxylic acid", "1,4-Dihydro-6-(3-chloro-2-fluorobenzyl)-7-methoxy-1-[(1S)-1-(hydroxymethyl)-2-methylpropyl]-4-oxo-3-quinolinecarboxylic acid", "JTK 303", "GS 9137", "Elvitegravir", "6-(3-Chloro-2-fluorobenzyl)-1-[(S)-1-hydroxymethyl-2-methylpropyl]-7-methoxy-4-oxo-1,4-dihydroquinoline-3-carboxylic acid", "Vitekta"], "SMILES": "C(C(C)C)(CO)N1C=2C(=CC(CC3=C(F)C(Cl)=CC=C3)=C(OC)C2)C(=O)C(C(O)=O)=C1", "physical_data": {"Molecular Weight": "447.88", "Molecular Formula": "C23H23ClFNO5", "Melting Point": "151-152 \u00b0C"}}