{"cas_no": "69770-45-2", "cn_name": "\u6c1f\u6c2f\u82ef\u83ca\u916f", "en_name": ["Flumethrin", "Cyclopropanecarboxylic acid, 3-[2-chloro-2-(4-chlorophenyl)ethenyl]-2,2-dimethyl-, cyano(4-fluoro-3-phenoxyphenyl)methyl ester", "Flumethrin", "Bayticol", "FCR 2769", "Bayticol Pour-on", "Bayvarol"], "SMILES": "C(OC(C#N)C1=CC(OC2=CC=CC=C2)=C(F)C=C1)(=O)C3C(C=C(Cl)C4=CC=C(Cl)C=C4)C3(C)C", "physical_data": {"Molecular Weight": "510.38", "Molecular Formula": "C28H22Cl2FNO3", "Melting Point": "&lt;25 \u00b0C"}}