{"cas_no": "69788-75-6", "cn_name": "4-\u6c2f\u4e01\u57fa-3,4-\u4e8c\u7532\u6c27\u57fa\u82ef\u7532\u9178", "en_name": ["4-Chlorobutyl 3,4-dimethoxybenzoate", "Benzoic acid, 3,4-dimethoxy-, 4-chlorobutyl ester", "Veratric acid, 4-chlorobutyl ester", "4-Chlorobutyl 3,4-dimethoxybenzoate"], "SMILES": "C(OCCCCCl)(=O)C1=CC(OC)=C(OC)C=C1", "physical_data": {"Molecular Weight": "272.72", "Molecular Formula": "C13H17ClO4", "Boiling Point": "175-184 \u00b0C @ Press: 0.5 Torr"}}