{"cas_no": "6979-94-8", "cn_name": "2',3',5'-\u4e09\u4e59\u9170\u9e1f\u82f7", "en_name": ["Tri-O-acetylguanosine", "Guanosine, 2\u2032,3\u2032,5\u2032-triacetate", "Triacetylguanosine", "Guanosine triacetate", "2\u2032,3\u2032,5\u2032-Tri-O-acetylguanosine", "Tri-O-acetylguanosine", "NSC 66387"], "SMILES": "O(C(C)=O)C1C(OC(COC(C)=O)C1OC(C)=O)N2C3=C(N=C2)C(=O)N=C(N)N3", "physical_data": {"Molecular Weight": "409.35", "Molecular Formula": "C16H19N5O8", "Melting Point": "226 \u00b0C"}}