{"cas_no": "6979-97-1", "cn_name": "3',5'-\u90b8-O-\u4e59\u9170\u80f8\u82f7", "en_name": ["Thymidine, 3\u2032,5\u2032-diacetate", "Thymidine, 3\u2032,5\u2032-diacetate", "3\u2032,5\u2032-Di-O-acetylthymidine", "3\u2032,5\u2032-Diacetylthymidine", "3\u2032,5\u2032-Diacetyl-5-methyl-2\u2032-deoxyuridine", "Di-O-acetylthymidine", "NSC 526766", "NSC 67672"], "SMILES": "O=C1N(C2OC(COC(C)=O)C(OC(C)=O)C2)C=C(C)C(=O)N1", "physical_data": {"Molecular Weight": "326.30", "Molecular Formula": "C14H18N2O7", "Melting Point": "126-127 \u00b0C"}}