{"cas_no": "698-76-0", "cn_name": "\u4e01\u4f4d\u8f9b\u5185\u916f", "en_name": ["\u03b4-Octalactone", "2H-Pyran-2-one, tetrahydro-6-propyl-", "Octanoic acid, 5-hydroxy-, \u03b4-lactone", "Octanoic acid, 5-hydroxy-, lactone", "Tetrahydro-6-propyl-2H-pyran-2-one", "5-Hydroxyoctanoic acid lactone", "5-Hydroxyoctanoic acid \u03b4-lactone", "\u03b4-Octalactone", "\u03b4-Propyl-\u03b4-valerolactone", "5-Octanolide", "(\u00b1)-\u03b4-Octalactone", "(RS)-\u03b4-Octalactone", "\u03b4-Octanolactone"], "SMILES": "C(CC)C1OC(=O)CCC1", "physical_data": {"Molecular Weight": "142.20", "Molecular Formula": "C8H14O2", "Boiling Point": "115-117 \u00b0C @ Press: 12 Torr"}}