{"cas_no": "698-69-1", "cn_name": "4-\u6c2f-N,N-\u4e8c\u7532\u57fa\u82ef\u80fa", "en_name": ["4-Chloro-N,N-dimethylbenzenamine", "Benzenamine, 4-chloro-N,N-dimethyl-", "Aniline, p-chloro-N,N-dimethyl-", "4-Chloro-N,N-dimethylbenzenamine", "N,N-Dimethyl-p-chloroaniline", "p-Chloro-N,N-dimethylaniline", "p-Chlorophenyldimethylamine", "4-Chloro-N,N-dimethylaniline", "N,N-Dimethyl-4-chloroaniline", "p-N,N-Dimethylaminochlorobenzene", "4-(Dimethylamino)chlorobenzene", "1-Chloro-4-(dimethylamino)benzene"], "SMILES": "N(C)(C)C1=CC=C(Cl)C=C1", "physical_data": {"Molecular Weight": "155.62", "Molecular Formula": "C8H10ClN", "Boiling Point": "231 \u00b0C", "Melting Point": "35.5 \u00b0C"}}