{"cas_no": "698-01-1", "cn_name": "2-\u6c2f-N,N-\u4e8c\u7532\u57fa\u82ef\u80fa", "en_name": ["2-Chloro-N,N-dimethylbenzenamine", "Benzenamine, 2-chloro-N,N-dimethyl-", "Aniline, o-chloro-N,N-dimethyl-", "2-Chloro-N,N-dimethylbenzenamine", "o-Chloro-N,N-dimethylaniline", "2-Chloro-N,N-dimethylaniline"], "SMILES": "N(C)(C)C1=C(Cl)C=CC=C1", "physical_data": {"Molecular Weight": "155.62", "Molecular Formula": "C8H10ClN", "Boiling Point": "205 \u00b0C", "Melting Point": "145 \u00b0C", "Density": "1.1067 g/cm\u00b3"}}