{"cas_no": "698-70-4", "cn_name": "4-N,N-\u4e8c\u7532\u6c28\u57fa\u7898\u82ef", "en_name": ["4-Iodo-N,N-dimethylaniline", "Benzenamine, 4-iodo-N,N-dimethyl-", "Aniline, p-iodo-N,N-dimethyl-", "4-Iodo-N,N-dimethylbenzenamine", "N,N-Dimethyl-4-iodoaniline", "p-(N,N-Dimethylamino)iodobenzene", "4-Iodo-N,N-dimethylaniline", "p-Iodo-N,N-dimethylaniline", "p-(Dimethylamino)phenyl iodide", "4-(N,N-Dimethylamino)iodobenzene", "4-(Dimethylamino)iodobenzene", "1-Dimethylamino-4-iodobenzene", "p-(Dimethylamino)iodobenzene", "(4-Iodophenyl)dimethylamine", "NSC 223072", "4-Dimethylaminophenyl iodide", "4-Iodo-N,N-dimethylaminobenzene", "4-Dimethylamino-1-iodobenzene"], "SMILES": "N(C)(C)C1=CC=C(I)C=C1", "physical_data": {"Molecular Weight": "247.08", "Molecular Formula": "C8H10IN", "Melting Point": "79.5 \u00b0C"}}