{"cas_no": "698-67-9", "cn_name": "\u5bf9\u6eb4\u82ef\u7532\u80fa", "en_name": ["4-Bromobenzamide", "Benzamide, 4-bromo-", "Benzamide, p-bromo-", "4-Bromobenzamide", "p-Bromobenzoic acid amide", "p-Bromobenzamide", "NSC 404792"], "SMILES": "C(N)(=O)C1=CC=C(Br)C=C1", "physical_data": {"Molecular Weight": "200.03", "Molecular Formula": "C7H6BrNO", "Melting Point": "190-193 \u00b0C"}}