{"cas_no": "698-87-3", "cn_name": "1-\u82ef\u57fa-2-\u4e19\u9187", "en_name": ["1-Phenyl-2-propanol", "Benzeneethanol, \u03b1-methyl-", "Phenethyl alcohol, \u03b1-methyl-", "\u03b1-Methylbenzeneethanol", "Benzyl methyl carbinol", "1-Phenyl-2-propanol", "2-Propanol, 1-phenyl-", "\u03b1-Methylphenethyl alcohol", "2-Hydroxy-1-phenylpropane", "3-Phenyl-2-propanol", "(\u00b1)-\u03b1-Methylbenzeneethanol", "(\u00b1)-\u03b1-Methylphenethyl alcohol", "(\u00b1)-1-Phenylpropan-2-ol", "3-Phenyl-2-hydroxypropane", "NSC 53553", "Benzylethyl alcohol"], "SMILES": "C(C(C)O)C1=CC=CC=C1", "physical_data": {"Molecular Weight": "136.19", "Molecular Formula": "C9H12O", "Boiling Point": "205-207 \u00b0C", "Melting Point": "65-67 \u00b0C", "Density": "0.9988 g/cm\u00b3 @ Temp: 14.5 \u00b0C"}}