{"cas_no": "698-00-0", "cn_name": "2-\u6eb4-N,N-\u4e8c\u7532\u57fa\u82ef\u80fa", "en_name": ["2-Bromo-N,N-dimethylbenzenamine", "Benzenamine, 2-bromo-N,N-dimethyl-", "Aniline, o-bromo-N,N-dimethyl-", "2-Bromo-N,N-dimethylbenzenamine", "o-Bromo-N,N-dimethylaniline", "2-Bromo-N,N-dimethylaniline", "2-(Dimethylamino)bromobenzene", "2-(Dimethylamino)phenyl bromide", "NSC 33816", "N,N-Dimethyl-2-bromoaniline", "2-Dimethylamino-1-bromobenzene", "2-(N,N-Dimethylamino)bromobenzene", "1-Bromo-2-dimethylaminobenzene", "(2-Bromophenyl)dimethylamine"], "SMILES": "N(C)(C)C1=C(Br)C=CC=C1", "physical_data": {"Molecular Weight": "200.08", "Molecular Formula": "C8H10BrN", "Boiling Point": "107-108 \u00b0C @ Press: 14 Torr", "Melting Point": "51.5-53 \u00b0C", "Density": "1.3880 g/cm\u00b3 @ Temp: 25 \u00b0C"}}