{"cas_no": "698-63-5", "cn_name": "5-\u785d\u57fa\u7ce0\u919b", "en_name": ["5-Nitrofurfural", "2-Furancarboxaldehyde, 5-nitro-", "2-Furaldehyde, 5-nitro-", "5-Nitro-2-furancarboxaldehyde", "5-Nitro-2-furaldehyde", "5-Nitrofurfural", "5-Nitrofurfuraldehyde", "5-Nitro-2-furylcarboxaldehyde", "2-Formyl-5-nitrofuran", "Furadoxyl", "NSC 111144", "NSC 5574", "5-Nitro-2-furylaldehyde"], "SMILES": "N(=O)(=O)C=1OC(C=O)=CC1", "physical_data": {"Molecular Weight": "141.08", "Molecular Formula": "C5H3NO4", "Boiling Point": "128-132 \u00b0C @ Press: 10 Torr", "Melting Point": "35-36 \u00b0C"}}