{"cas_no": "698-10-2", "cn_name": "3-\u7f9f\u57fa-4-\u7532\u57fa-5-\u4e59\u57fa-2(5H)\u544b\u5583\u916e", "en_name": ["5-Ethyl-3-hydroxy-4-methyl-2(5H)-furanone", "2(5H)-Furanone, 5-ethyl-3-hydroxy-4-methyl-", "2-Hexenoic acid, 2,4-dihydroxy-3-methyl-, \u03b3-lactone", "5-Ethyl-3-hydroxy-4-methyl-2(5H)-furanone", "\u03b1-Hydroxy-\u03b2-methyl-\u0394\u03b1,\u03b2-\u03b3-hexenolactone", "Abhexone", "\u03b1-Hydroxy-\u03b2-methyl-\u03b3-hexenolactone", "Homosotolone", "3-Hydroxy-4-methyl-5-ethyl-2(5H)-furanone", "Abhexon", "2-Ethyl-4-hydroxy-3-methyl-2H-furan-5-one", "Maple furanone"], "SMILES": "C(C)C1C(C)=C(O)C(=O)O1", "physical_data": {"Molecular Weight": "142.15", "Molecular Formula": "C7H10O3", "Boiling Point": "135-137 \u00b0C @ Press: 4 Torr", "Melting Point": "31-33 \u00b0C"}}