{"cas_no": "698-29-3", "cn_name": "2-\u7532\u57fa-4-\u6c28\u57fa\u5627\u5576-5-\u8148", "en_name": ["4-Amino-2-methyl-5-pyrimidinecarbonitrile", "5-Pyrimidinecarbonitrile, 4-amino-2-methyl-", "4-Amino-2-methyl-5-pyrimidinecarbonitrile", "4-Amino-5-cyano-2-methylpyrimidine", "5-Cyano-4-amino-2-methylpyrimidine", "2-Methyl-4-amino-5-cyanopyrimidine", "NSC 459", "Pynitrile"], "SMILES": "C(#N)C=1C(N)=NC(C)=NC1", "physical_data": {"Molecular Weight": "134.14", "Molecular Formula": "C6H6N4", "Melting Point": "249 \u00b0C"}}