{"cas_no": "698-71-5", "cn_name": "3-\u4e59\u57fa-5-\u7532\u57fa\u82ef\u915a", "en_name": ["3-Ethyl-5-methylphenol", "Phenol, 3-ethyl-5-methyl-", "m-Cresol, 5-ethyl-", "3-Ethyl-5-methylphenol", "3-Methyl-5-ethylphenol", "NSC 62673", "NSC 8885", "SCP 110", "SCP 110 (phenol)"], "SMILES": "C(C)C1=CC(C)=CC(O)=C1", "physical_data": {"Molecular Weight": "136.19", "Molecular Formula": "C9H12O", "Boiling Point": "235.7 \u00b0C", "Melting Point": "51.6 \u00b0C"}}