{"cas_no": "698-27-1", "cn_name": "2-\u7f9f\u57fa-4-\u7532\u57fa\u82ef\u7532\u919b", "en_name": ["2-Hydroxy-4-methylbenzaldehyde", "Benzaldehyde, 2-hydroxy-4-methyl-", "2,4-Cresotaldehyde", "2-Hydroxy-4-methylbenzaldehyde", "m-Homosalicylaldehyde", "4-Methylsalicylaldehyde", "2-Formyl-5-methylphenol", "4-Methyl-2-hydroxybenzaldehyde"], "SMILES": "C(=O)C1=C(O)C=C(C)C=C1", "physical_data": {"Molecular Weight": "136.15", "Molecular Formula": "C8H8O2", "Boiling Point": "223 \u00b0C", "Melting Point": "60.5 \u00b0C"}}