{"cas_no": "698-26-0", "cn_name": "5-\u6c2f-1H-\u5432\u5511", "en_name": ["5-Chloro-1H-indazole", "1H-Indazole, 5-chloro-", "5-Chloro-1H-indazole", "5-Chloroindazole", "NSC 78434"], "SMILES": "ClC=1C=C2C(=CC1)NN=C2", "physical_data": {"Molecular Weight": "152.58", "Molecular Formula": "C7H5ClN2", "Melting Point": "119-120 \u00b0C"}}