{"cas_no": "698-90-8", "cn_name": "N-\u73af\u5df1\u57fa\u8132", "en_name": ["Cyclohexylurea", "Urea, N-cyclohexyl-", "Urea, cyclohexyl-", "N-Cyclohexylurea", "Cyclohexylurea", "1-Cyclohexylurea", "Monocyclohexyl urea", "NSC 23790", "NSC 27454"], "SMILES": "N(C(N)=O)C1CCCCC1", "physical_data": {"Molecular Weight": "142.20", "Molecular Formula": "C7H14N2O", "Melting Point": "184 \u00b0C"}}