{"cas_no": "69806-34-4", "cn_name": "\u5421\u6c1f\u6c2f\u79be\u7075", "en_name": ["Haloxyfop", "Propanoic acid, 2-[4-[[3-chloro-5-(trifluoromethyl)-2-pyridinyl]oxy]phenoxy]-", "2-[4-[[3-Chloro-5-(trifluoromethyl)-2-pyridinyl]oxy]phenoxy]propanoic acid", "Haloxyfop", "Haloxyfop acid", "(\u00b1)-Haloxyfop"], "SMILES": "O(C1=C(Cl)C=C(C(F)(F)F)C=N1)C2=CC=C(OC(C(O)=O)C)C=C2", "physical_data": {"Molecular Weight": "361.70", "Molecular Formula": "C15H11ClF3NO4", "Melting Point": "107.5 \u00b0C"}}