{"cas_no": "69806-50-4", "cn_name": "\u5421\u6c1f\u79be\u8349\u7075", "en_name": ["Fluazifop-butyl", "Propanoic acid, 2-[4-[[5-(trifluoromethyl)-2-pyridinyl]oxy]phenoxy]-, butyl ester", "Fluazifop-butyl", "PP 009", "TF 1169", "Fusilade", "Onecide", "Butyl \u03b1-[4-(5-trifluoromethyl-2-pyridyloxy)phenoxy]propionate", "Fusilade W", "Halokon"], "SMILES": "O(C1=CC=C(C(F)(F)F)C=N1)C2=CC=C(OC(C(OCCCC)=O)C)C=C2", "physical_data": {"Molecular Weight": "383.36", "Molecular Formula": "C19H20F3NO4", "Boiling Point": "165 \u00b0C @ Press: 0.02 Torr", "Melting Point": "13 \u00b0C", "Density": "1.21 g/cm\u00b3 @ Temp: 20 \u00b0C"}}