{"cas_no": "6980-25-2", "cn_name": "\u65e5\u5f53\u836f\u9ec4\u7d20", "en_name": ["Swertiajaponin", "4H-1-Benzopyran-4-one, 2-(3,4-dihydroxyphenyl)-6-\u03b2-D-glucopyranosyl-5-hydroxy-7-methoxy-", "Swertiajaponin", "Flavone, 6-\u03b2-D-glucopyranosyl-3\u2032,4\u2032,5-trihydroxy-7-methoxy-", "2-(3,4-Dihydroxyphenyl)-6-\u03b2-D-glucopyranosyl-5-hydroxy-7-methoxy-4H-1-benzopyran-4-one", "Leucanthoside"], "SMILES": "O(C)C1=C(C(O)=C2C(=C1)OC(=CC2=O)C3=CC(O)=C(O)C=C3)C4OC(CO)C(O)C(O)C4O", "physical_data": {"Molecular Weight": "462.40", "Molecular Formula": "C22H22O11", "Melting Point": "270 \u00b0C"}}