{"cas_no": "69806-40-2", "cn_name": "2-[4-(3-\u6c2f-5-\u4e09\u6c1f\u7532\u57fa-2-\u5421\u5576\u6c27\u57fa)\u82ef\u6c27\u57fa]\u4e19\u9178\u7532\u916f", "en_name": ["Haloxyfop-methyl", "Propanoic acid, 2-[4-[[3-chloro-5-(trifluoromethyl)-2-pyridinyl]oxy]phenoxy]-, methyl ester", "Dowco 453", "Dowco 453ME", "Haloxyfop-methyl", "Verdict", "Haloxyfop-Me", "Haloxyfop methyl ester", "Verdict R", "Dowco 453 methyl ester"], "SMILES": "O(C1=C(Cl)C=C(C(F)(F)F)C=N1)C2=CC=C(OC(C(OC)=O)C)C=C2", "physical_data": {"Molecular Weight": "375.73", "Molecular Formula": "C16H13ClF3NO4", "Melting Point": "56 \u00b0C"}}