{"cas_no": "69816-37-1", "cn_name": "2-\u6c28\u57fa\u4e59\u8112\u6c22\u6eb4\u9178\u76d0", "en_name": ["Ethanimidamide, 2-amino-, dihydrobromide", "Ethanimidamide, 2-amino-, dihydrobromide", "Acetamidine, 2-amino-, dihydrobromide", "2-Aminoacetamidine dihydrobromide"], "SMILES": "C(CN)(=N)N.Br", "physical_data": {"Molecular Weight": "", "Molecular Formula": "C2H7N3.2BrH", "Melting Point": "220 \u00b0C"}}