{"cas_no": "6981-18-6", "cn_name": "5-(4,5-\u4e8c\u7532\u6c27\u57fa-2-\u7532\u57fa\u82c4\u57fa)-2,4-\u4e8c\u6c28\u5627\u5576", "en_name": ["Ormetoprim", "2,4-Pyrimidinediamine, 5-[(4,5-dimethoxy-2-methylphenyl)methyl]-", "Pyrimidine, 2,4-diamino-5-(6-methylveratryl)-", "5-[(4,5-Dimethoxy-2-methylphenyl)methyl]-2,4-pyrimidinediamine", "2,4-Diamino-5-(4,5-dimethoxy-2-methylbenzyl)pyrimidine", "2,4-Diamino-5-(2-methyl-4,5-dimethoxybenzyl)pyrimidine", "Ormetoprim", "2,4-Diamino-5-(6-methylveratryl)pyrimidine", "2,4-Diamino-5-(2\u2032-methyl-4\u2032,5\u2032-dimethoxybenzyl)pyrimidine", "2,4-Diamino-5-(4\u2032,5\u2032-dimethoxy-2\u2032-methylbenzyl)pyrimidine", "2,4-Diamino-5-(3,4-dimethoxy-6-methylbenzyl)pyrimidine", "Ormethoprim", "Ro 5-9754", "NSC 95072"], "SMILES": "C(C1=CC(OC)=C(OC)C=C1C)C=2C(N)=NC(N)=NC2", "physical_data": {"Molecular Weight": "274.32", "Molecular Formula": "C14H18N4O2", "Melting Point": "230 \u00b0C"}}