{"cas_no": "69812-29-9", "cn_name": "2-\u4e59\u9170\u80fa\u57fa-4-\u7532\u57fa\u567b\u5511-5-\u78fa\u9170\u6c2f", "en_name": ["2-Acetamido-4-methyl-5-thiazolesulfonyl chloride", "5-Thiazolesulfonyl chloride, 2-(acetylamino)-4-methyl-", "5-Thiazolesulfonyl chloride, 2-acetamido-4-methyl-", "2-(Acetylamino)-4-methyl-5-thiazolesulfonyl chloride", "2-Acetamido-4-methyl-5-thiazolesulfonyl chloride", "2-Acetylamino-4-methyl-5-thiazolesulfonyl chloride", "NSC 95414", "2-(Acetylamino)-4-methyl-1,3-thiazole-5-sulfonyl chloride", "2-Acetamido-4-methyl-1,3-thiazole-5-sulfonyl chloride"], "SMILES": "S(Cl)(=O)(=O)C=1SC(NC(C)=O)=NC1C", "physical_data": {"Molecular Weight": "254.71", "Molecular Formula": "C6H7ClN2O3S2", "Melting Point": "159-160 \u00b0C"}}