{"cas_no": "6983-79-5", "cn_name": "\u80ed\u8102\u6811\u6a59", "en_name": ["Bixin", "2,4,6,8,10,12,14,16,18-Eicosanonaenedioic acid, 4,8,13,17-tetramethyl-, 1-methyl ester, (2E,4Z,6E,8E,10E,12E,14E,16E,18E)-", "Bixin", "6,6\u2032-Diapo-\u03c8,\u03c8-carotenedioic acid, 6-methyl ester, 9-cis-", "Bixin, cis-", "2,4,6,8,10,12,14,16,18-Eicosanonaenedioic acid, 4,8,13,17-tetramethyl-, monomethyl ester, (2E,4Z,6E,8E,10E,12E,14E,16E,18E)-", "Bixinol", "cis-Bixin", "\u03b1-Bixin", "9\u2032-cis-Bixin", "AlcabixP"], "SMILES": "C(=CC(=CC=CC=C(C=CC=C(C=CC(O)=O)C)C)C)C=C(C=CC(OC)=O)C", "physical_data": {"Molecular Weight": "394.50", "Molecular Formula": "C25H30O4", "Melting Point": "198 \u00b0C"}}