{"cas_no": "698387-09-6", "cn_name": "\u6765\u90a3\u66ff\u5c3c", "en_name": ["Neratinib", "2-Butenamide, N-[4-[[3-chloro-4-(2-pyridinylmethoxy)phenyl]amino]-3-cyano-7-ethoxy-6-quinolinyl]-4-(dimethylamino)-, (2E)-", "(2E)-N-[4-[[3-Chloro-4-(2-pyridinylmethoxy)phenyl]amino]-3-cyano-7-ethoxy-6-quinolinyl]-4-(dimethylamino)-2-butenamide", "HKI 272", "(E)-N-[4-[3-Chloro-4-[(2-pyridinyl)methoxy]anilino]-3-cyano-7-ethoxy-6-quinolinyl]-4-(dimethylamino)-2-butenamide", "Neratinib", "(E)-N-[4-[[3-Chloro-4-((pyridin-2-yl)methoxy)phenyl]amino]-3-cyano-7-ethoxyquinolin-6-yl]-4-(dimethylamino)-2-butenamide"], "SMILES": "N(C=1C2=C(C=C(OCC)C(NC(C=CCN(C)C)=O)=C2)N=CC1C#N)C3=CC(Cl)=C(OCC4=CC=CC=N4)C=C3", "physical_data": {"Molecular Weight": "557.04", "Molecular Formula": "C30H29ClN6O3", "Melting Point": "182-184 \u00b0C"}}