{"cas_no": "69839-83-4", "cn_name": "3,4-\u4e8c\u7f9f\u57fa\u82ef\u7532\u7f9f\u809f\u9178", "en_name": ["N,3,4-Trihydroxybenzamide", "Benzamide, N,3,4-trihydroxy-", "N,3,4-Trihydroxybenzamide", "3,4-Dihydroxybenzohydroxamic acid", "3,4-Dihydroxyphenylhydroxamic acid", "VF 147", "Didox", "NSC 324360"], "SMILES": "C(NO)(=O)C1=CC(O)=C(O)C=C1", "physical_data": {"Molecular Weight": "169.13", "Molecular Formula": "C7H7NO4", "Melting Point": "207 \u00b0C"}}