{"cas_no": "69876-37-5", "cn_name": "N-\u0391-Z-L-TRYPTOPHAN BENZYL ESTER", "en_name": ["N-[(Phenylmethoxy)carbonyl]-L-tryptophan phenylmethyl ester", "L-Tryptophan, N-[(phenylmethoxy)carbonyl]-, phenylmethyl ester", "N-[(Phenylmethoxy)carbonyl]-L-tryptophan phenylmethyl ester", "Benzyl (S)-2-(benzyloxycarbonylamino)-3-(1H-indol-3-yl)propanoate"], "SMILES": "C(C(C(OCC1=CC=CC=C1)=O)NC(OCC2=CC=CC=C2)=O)C=3C=4C(NC3)=CC=CC4", "physical_data": {"Molecular Weight": "428.48", "Molecular Formula": "C26H24N2O4", "Melting Point": "105-108 \u00b0C"}}