{"cas_no": "69888-86-4", "cn_name": "N-\u7425\u73c0\u9170\u4e9a\u80fa\u57fa\u8c46\u853b\u9178", "en_name": ["Tetradecanoic acid, 2,5-dioxo-1-pyrrolidinyl ester", "Tetradecanoic acid, 2,5-dioxo-1-pyrrolidinyl ester", "2,5-Pyrrolidinedione, 1-[(1-oxotetradecyl)oxy]-", "N-Hydroxysuccinimide myristate", "Tetradecanoic acid N-hydroxysuccinimide ester", "Myristic acid N-hydroxysuccinimide ester", "Succinimidyl tetradecanoate", "2,5-Dioxopyrrolidin-1-yl tetradecanoate"], "SMILES": "O(C(CCCCCCCCCCCCC)=O)N1C(=O)CCC1=O", "physical_data": {"Molecular Weight": "325.44", "Molecular Formula": "C18H31NO4", "Melting Point": "85-86 \u00b0C"}}