{"cas_no": "6988-21-2", "cn_name": "\u4e8c\u6c27\u5a01", "en_name": ["Dioxacarb", "Phenol, 2-(1,3-dioxolan-2-yl)-, 1-(N-methylcarbamate)", "Carbamic acid, methyl-, o-1,3-dioxolan-2-ylphenyl ester", "Phenol, 2-(1,3-dioxolan-2-yl)-, methylcarbamate", "C 8353", "CIBA 8353", "2-(1,3-Dioxolane-2-yl)-phenyl N-methylcarbamate", "o-(1,3-Dioxolan-2-yl)phenyl methylcarbamate", "CIBA C 8353", "Dioxacarb", "Famid", "Du Pont 1519", "2-(1,3-Dioxolan-2-yl)phenyl N-methylcarbamate", "Elocron", "Elocron 50WP", "MCDP", "Elocron 8353", "2-(1,3-Dioxolan-2-yl)phenyl methylcarbamate", "Rovlinka"], "SMILES": "O(C(NC)=O)C1=C(C=CC=C1)C2OCCO2", "physical_data": {"Molecular Weight": "223.23", "Molecular Formula": "C11H13NO4", "Melting Point": "114.5 \u00b0C"}}