{"cas_no": "6989-21-5", "cn_name": "\u82cd\u672f\u916e", "en_name": ["Atractylon", "Naphtho[2,3-b]furan, 4,4a,5,6,7,8,8a,9-octahydro-3,8a-dimethyl-5-methylene-, (4aS,8aR)-", "Naphtho[2,3-b]furan, 4,4a\u03b1,5,6,7,8,8a,9-octahydro-3,8a\u03b2-dimethyl-5-methylene-", "Naphtho[2,3-b]furan, 4,4a,5,6,7,8,8a,9-octahydro-3,8a-dimethyl-5-methylene-, (4aS-trans)-", "Atractylone", "(4aS,8aR)-4,4a,5,6,7,8,8a,9-Octahydro-3,8a-dimethyl-5-methylenenaphtho[2,3-b]furan", "Atractylon", "Atractyloxide", "Atractylol"], "SMILES": "CC12C(CC3=C(C1)OC=C3C)C(=C)CCC2", "physical_data": {"Molecular Weight": "216.32", "Molecular Formula": "C15H20O", "Melting Point": "61-63 \u00b0C"}}