{"cas_no": "6989-24-8", "cn_name": "\u8d1d\u843c\u7682\u82f7\u5143", "en_name": ["Bayogenin", "Olean-12-en-28-oic acid, 2,3,23-trihydroxy-, (2\u03b2,3\u03b2,4\u03b1)-", "Olean-12-en-28-oic acid, 2\u03b2,3\u03b2,23-trihydroxy-", "(2\u03b2,3\u03b2,4\u03b1)-2,3,23-Trihydroxyolean-12-en-28-oic acid", "Bayogenin", "Bayogenine", "2\u03b2,3\u03b2,23\u03b1-Trihydroxy-12-oleanen-28-oic acid"], "SMILES": "CC12C3(C)C(C4C(C(O)=O)(CC3)CCC(C)(C)C4)=CCC1C5(C)C(CC2)C(CO)(C)C(O)C(O)C5", "physical_data": {"Molecular Weight": "488.70", "Molecular Formula": "C30H48O5", "Melting Point": "&gt;300 \u00b0C (decomp)"}}