{"cas_no": "699-04-7", "cn_name": "N-\u7532\u57fa-N-(4-\u7532\u57fa\u82c4\u57fa)\u80fa", "en_name": ["N,4-Dimethylbenzylamine", "Benzenemethanamine, N,4-dimethyl-", "Benzylamine, N,p-dimethyl-", "N,4-Dimethylbenzenemethanamine", "N,4-Dimethylbenzylamine", "N-Methyl-N-(4-methylbenzyl)amine", "N-Methyl-4-methylbenzylamine", "N-(4-Methylbenzyl)-N-methylamine", "4-Methyl-N-methylbenzylamine", "1-(4-Methylphenyl)-N-methylmethanamine"], "SMILES": "C(NC)C1=CC=C(C)C=C1", "physical_data": {"Molecular Weight": "135.21", "Molecular Formula": "C9H13N", "Boiling Point": "83 \u00b0C @ Press: 11 Torr"}}