{"cas_no": "699-83-2", "cn_name": "2,6-\u4e8c\u7f9f\u57fa\u82ef\u4e59\u916e", "en_name": ["2\u2032,6\u2032-Dihydroxyacetophenone", "Ethanone, 1-(2,6-dihydroxyphenyl)-", "Acetophenone, 2\u2032,6\u2032-dihydroxy-", "Acetophenone, 2,6-dihydroxy-", "1-(2,6-Dihydroxyphenyl)ethanone", "\u03b3-Resacetophenone", "1,3-Benzenediol, 2-acetyl-", "2-Acetylresorcinol", "2\u2032,6\u2032-Dihydroxyacetophenone", "2-Acetylbenzene-1,3-diol", "NSC 615", "1-(2,6-Dihydroxyphenyl)ethan-1-one"], "SMILES": "C(C)(=O)C1=C(O)C=CC=C1O", "physical_data": {"Molecular Weight": "152.15", "Molecular Formula": "C8H8O3", "Boiling Point": "120-130 \u00b0C @ Press: 0.01 Torr", "Melting Point": "157-158 \u00b0C"}}