{"cas_no": "699-30-9", "cn_name": "\u56db\u6c1f\u7425\u73c0\u9178\u9150", "en_name": ["3,3,4,4-Tetrafluorodihydro-2,5-furandione", "2,5-Furandione, 3,3,4,4-tetrafluorodihydro-", "Succinic anhydride, tetrafluoro-", "3,3,4,4-Tetrafluorodihydro-2,5-furandione", "Tetrafluorosuccinic anhydride", "Perfluorosuccinic anhydride", "Perfluorosuccinic acid anhydride", "C 4ANHD", "Tetrafluorofuran-2,5-dione", "3,3,4,4-Tetrafluorodihydrofuran-2,5-dione", "3,3,4,4-Tetrafluorodihydrofuran-2,5-dion", "3,3,4,4-Tetrafluorooxolane-2,5-dione"], "SMILES": "FC1(F)C(F)(F)C(=O)OC1=O", "physical_data": {"Molecular Weight": "172.03", "Molecular Formula": "C4F4O3", "Boiling Point": "54.5 \u00b0C", "Density": "1.6209 g/cm\u00b3 @ Temp: 20 \u00b0C"}}