{"cas_no": "699-10-5", "cn_name": "\u7532\u57fa\u82ef\u7532\u57fa\u4e8c\u786b\u919a", "en_name": ["Benzyl methyl disulfide", "Disulfide, methyl phenylmethyl", "Disulfide, benzyl methyl", "Methyl phenylmethyl disulfide", "Methyl benzyl disulfide", "Benzyl methyl disulfide", "NSC 677547", "[(Methyldisulfanyl)methyl]benzene"], "SMILES": "C(SSC)C1=CC=CC=C1", "physical_data": {"Molecular Weight": "170.29", "Molecular Formula": "C8H10S2", "Boiling Point": "66 \u00b0C @ Press: 0.2 Torr"}}