{"cas_no": "699-90-1", "cn_name": "3-\u6c1f-2-\u7532\u57fa\u82ef\u7532\u9178", "en_name": ["3-Fluoro-2-methylbenzoic acid", "Benzoic acid, 3-fluoro-2-methyl-", "o-Toluic acid, 3-fluoro-", "3-Fluoro-2-methylbenzoic acid", "NSC 60050"], "SMILES": "C(O)(=O)C1=C(C)C(F)=CC=C1", "physical_data": {"Molecular Weight": "154.14", "Molecular Formula": "C8H7FO2", "Melting Point": "156-157 \u00b0C"}}