{"cas_no": "699-92-3", "cn_name": "1-(3-\u6c1f-2-\u7f9f\u82ef\u57fa)\u4e59\u916e", "en_name": ["1-(3-Fluoro-2-hydroxyphenyl)ethanone", "Ethanone, 1-(3-fluoro-2-hydroxyphenyl)-", "Acetophenone, 3\u2032-fluoro-2\u2032-hydroxy-", "1-(3-Fluoro-2-hydroxyphenyl)ethanone", "1-(5-Fluoro-6-hydroxyphenyl)ethanone", "3\u2032-Fluoro-2\u2032-hydroxyacetophenone", "2-Hydroxy-3-fluoroacetophenone", "1-(3-Fluoro-2-hydroxyphenyl)ethan-1-one"], "SMILES": "C(C)(=O)C1=C(O)C(F)=CC=C1", "physical_data": {"Molecular Weight": "154.14", "Molecular Formula": "C8H7FO2", "Melting Point": "72-73 \u00b0C"}}