{"cas_no": "699-02-5", "cn_name": "\u70df\u82c4\u916f", "en_name": ["4-Methylbenzeneethanol", "Benzeneethanol, 4-methyl-", "Phenethyl alcohol, p-methyl-", "4-Methylbenzeneethanol", "4-Methylphenethyl alcohol", "2-(p-Methylphenyl)ethanol", "2-(4-Methylphenyl)ethanol", "p-Methylphenethyl alcohol", "2-p-Tolylethanol", "p-Methylphenylethyl alcohol", "p-(2-Hydroxyethyl)toluene", "4-Methyl-1-(2-hydroxyethyl)benzene", "NSC 5295", "NSC 54360", "4-Methylphenethanol", "2-(4-Methylphenyl)-1-ethanol", "2-(p-Tolyl)ethan-1-ol"], "SMILES": "C(CO)C1=CC=C(C)C=C1", "physical_data": {"Molecular Weight": "136.19", "Molecular Formula": "C9H12O", "Boiling Point": "244.5 \u00b0C", "Melting Point": "165.2-166.3 \u00b0C", "Density": "1.0008 g/cm\u00b3 @ Temp: 20 \u00b0C"}}