{"cas_no": "699-51-4", "cn_name": "1,3-\u4e8c\u6c2e\u6742\u87ba[4.4]\u58ec\u70f7-2,4-\u4e8c\u916e", "en_name": ["1,3-Diazaspiro[4.4]nonane-2,4-dione", "1,3-Diazaspiro[4.4]nonane-2,4-dione", "Spiro[cyclopentane-1,5\u2032-hydantoin]", "5,5-Tetramethylenehydantoin", "Ba 2839", "5,5\u2032-Cyclopentanespirohydantoin", "Hydantoin-5-spirocyclopentane", "NSC 1024"], "SMILES": "O=C1C2(NC(=O)N1)CCCC2", "physical_data": {"Molecular Weight": "154.17", "Molecular Formula": "C7H10N2O2", "Melting Point": "206 \u00b0C"}}