{"cas_no": "699-08-1", "cn_name": "4-\u7898\u82ef\u4e59\u919a", "en_name": ["1-Ethoxy-4-iodobenzene", "Benzene, 1-ethoxy-4-iodo-", "Phenetole, p-iodo-", "1-Ethoxy-4-iodobenzene", "p-Ethoxyiodobenzene", "p-Iodophenetole", "4-Iodophenetole", "4-Iodoethoxybenzene", "NSC 3781", "4-(Ethyloxy)iodobenzene", "4-Ethoxyphenyl iodide", "4-Iodo-1-ethoxybenzene", "4-Ethoxy-1-iodobenzene"], "SMILES": "O(CC)C1=CC=C(I)C=C1", "physical_data": {"Molecular Weight": "248.06", "Molecular Formula": "C8H9IO", "Boiling Point": "250 \u00b0C", "Melting Point": "29 \u00b0C"}}