{"cas_no": "699-18-3", "cn_name": "1-(2-\u7ce0\u9170)-2-\u785d\u57fa\u4e59\u70ef", "en_name": ["2-(2-Nitroethenyl)furan", "Furan, 2-(2-nitroethenyl)-", "Furan, 2-(2-nitrovinyl)-", "2-(2-Nitroethenyl)furan", "2-(2-Nitrovinyl)furan", "2-Furylnitroethylene", "1-(\u03b1-Furyl)-2-nitroethylene", "1-(2-Furyl)-2-nitroethene", "NSC 5650", "G 0", "2-(Furan-2-yl)nitroethylene"], "SMILES": "C(=CN(=O)=O)C1=CC=CO1", "physical_data": {"Molecular Weight": "139.11", "Molecular Formula": "C6H5NO3", "Melting Point": "74-75 \u00b0C"}}