{"cas_no": "699-98-9", "cn_name": "2,3-\u5421\u5576\u4e8c\u7fa7\u9178\u9150", "en_name": ["Furo[3,4-b]pyridine-5,7-dione", "Furo[3,4-b]pyridine-5,7-dione", "2,3-Pyridinedicarboxylic anhydride", "Quinolinic anhydride", "2,3-Pyridinedicarboxylic acid anhydride", "Quinolinic acid anhydride", "Pyridinic anhydride", "NSC 44309", "1,3-Dioxolo[4,5-b]pyridin-2-one"], "SMILES": "O=C1C=2C(C(=O)O1)=NC=CC2", "physical_data": {"Molecular Weight": "149.10", "Molecular Formula": "C7H3NO3", "Melting Point": "133-134 \u00b0C"}}