{"cas_no": "699-12-7", "cn_name": "2-\u82ef\u786b\u57fa\u4e59\u9187", "en_name": ["2-(Phenylthio)ethanol", "Ethanol, 2-(phenylthio)-", "2-(Phenylthio)ethanol", "2-Hydroxyethyl phenyl sulfide", "\u03b2-Phenylthioethyl alcohol", "2-Phenylsulfanylethanol", "NSC 57851", "Phenyl 2-hydroxyethyl sulfide", "2-(Phenylsulfanyl)ethan-1-ol"], "SMILES": "S(CCO)C1=CC=CC=C1", "physical_data": {"Molecular Weight": "154.23", "Molecular Formula": "C8H10OS", "Boiling Point": "120-199 \u00b0C @ Press: 4 Torr", "Density": "1.1145 g/cm\u00b3 @ Temp: 24 \u00b0C"}}