{"cas_no": "6990-43-8", "cn_name": "O,O-\u4e8c\u4e01\u57fa\u4e8c\u786b\u4ee3\u78f7\u9178\u950c", "en_name": ["(T-4)-Bis(O,O-dibutyl phosphorodithioato-\u03baS,\u03baS\u2032)zinc", "Zinc, bis(O,O-dibutyl phosphorodithioato-\u03baS,\u03baS\u2032)-, (T-4)-", "Phosphorodithioic acid, O,O-dibutyl ester, zinc salt", "Butyl zinc phosphorodithioate (Zn[(BuO)2(S)PS]2)", "Zinc, bis(O,O-dibutyl phosphorodithioato-S,S\u2032)-, (T-4)-", "Phosphorodithioic acid, O,O-dibutyl ester, zinc complex", "(T-4)-Bis(O,O-dibutyl phosphorodithioato-\u03baS,\u03baS\u2032)zinc", "Zinc bis(O,O-dibutyl dithiophosphate)", "Zinc dibutyl dithiophosphate", "Zinc O,O-dibutyl dithiophosphate", "Zinc bis(O,O-dibutylphosphorodithioate)", "Zinc O,O\u2032-dibutylphosphorodithioate", "Zinc dibutyl phosphorodithioate", "Rhenocure TP", "Rhenocure TP/S", "Vocol", "Vocol 5", "Zinc O,O-dibutyl phosphorodithioate", "Zinc bis(dibutyl dithiophosphate)", "Meraphos P", "Vocol S 75", "S 75", "Vocol ZBPD", "Vocol S", "Rhenogran TP 50", "ZBPD", "TP/S", "ZBPD 50GE", "ZBPD 75", "TP 50", "Zinc O,O-di-n-butyl phosphorodithioate", "ZBPD 50"], "SMILES": "O(CCCC)P=1(OCCCC)[S-][Zn+2]2([S-]P(OCCCC)(OCCCC)=[S]2)[S]1", "physical_data": {"Molecular Weight": "", "Molecular Formula": "C16H36O4P2S4Zn", "Melting Point": "36.8 \u00b0C"}}