{"cas_no": "69901-85-5", "cn_name": "CBZ-D-\u73af\u5df1\u57fa\u7518\u6c28\u9178", "en_name": ["(\u03b1R)-\u03b1-[[(Phenylmethoxy)carbonyl]amino]cyclohexaneacetic acid", "Cyclohexaneacetic acid, \u03b1-[[(phenylmethoxy)carbonyl]amino]-, (\u03b1R)-", "Cyclohexaneacetic acid, \u03b1-[[(phenylmethoxy)carbonyl]amino]-, (R)-", "(\u03b1R)-\u03b1-[[(Phenylmethoxy)carbonyl]amino]cyclohexaneacetic acid", "(R)-2-(((Benzyloxy)carbonyl)amino)-2-cyclohexylaceticacid", "(R)-2-(((Benzyloxy)carbonyl)amino)-2-cyclohexylacetic acid"], "SMILES": "C(NC(OCC1=CC=CC=C1)=O)(C(O)=O)C2CCCCC2", "physical_data": {"Molecular Weight": "291.34", "Molecular Formula": "C16H21NO4", "Melting Point": "103 \u00b0C"}}