{"cas_no": "6990-06-3", "cn_name": "\u592b\u897f\u5730\u9178", "en_name": ["Fusidic acid", "29-Nordammara-17(20),24-dien-21-oic acid, 16-(acetyloxy)-3,11-dihydroxy-, (3\u03b1,4\u03b1,8\u03b1,9\u03b2,11\u03b1,13\u03b1,14\u03b2,16\u03b2,17Z)-", "29-Nor-8\u03b1,9\u03b2,13\u03b1,14\u03b2-dammara-17(20),24-dien-21-oic acid, 3\u03b1,11\u03b1,16\u03b2-trihydroxy-, 16-acetate, (Z)-", "Fusidic acid", "(3\u03b1,4\u03b1,8\u03b1,9\u03b2,11\u03b1,13\u03b1,14\u03b2,16\u03b2,17Z)-16-(Acetyloxy)-3,11-dihydroxy-29-nordammara-17(20),24-dien-21-oic acid", "Ramycin", "SQ 16603", "Fucithalmic", "Fusidinic acid", "NSC 56192", "Flucidin", "Foban", "Fugen", "Optifucin", "Phudicin", "Usidin", "MeSH ID: D005672"], "SMILES": "CC12C3(C)C(C(=C(CCC=C(C)C)C(O)=O)C(OC(C)=O)C3)CC(O)C1C4(C)C(CC2)C(C)C(O)CC4", "physical_data": {"Molecular Weight": "516.71", "Molecular Formula": "C31H48O6", "Melting Point": "192.5 \u00b0C"}}