{"cas_no": "6991-10-2", "cn_name": "\u5f53\u836f\u9ec4\u7d20", "en_name": ["Swertisin", "4H-1-Benzopyran-4-one, 6-\u03b2-D-glucopyranosyl-5-hydroxy-2-(4-hydroxyphenyl)-7-methoxy-", "Swertisin", "6-\u03b2-D-Glucopyranosyl-5-hydroxy-2-(4-hydroxyphenyl)-7-methoxy-4H-1-benzopyran-4-one", "Flavocommelitin", "6-\u03b2-D-Glucopyranosyl-4\u2032,5-dihydroxy-7-methoxyflavone", "7-O-Methylapigenin 6-C-\u03b2-D-glucopyranoside", "NSC 641547", "Genkwanin 6-C-glucoside"], "SMILES": "O(C)C1=C(C(O)=C2C(=C1)OC(=CC2=O)C3=CC=C(O)C=C3)C4OC(CO)C(O)C(O)C4O", "physical_data": {"Molecular Weight": "446.40", "Molecular Formula": "C22H22O10", "Melting Point": "243 \u00b0C (decomp)"}}