{"cas_no": "69938-76-7", "cn_name": "1,6-\u516d\u4e9a\u7532\u57fa-\u53cc(N,N-\u4e8c\u7532\u57fa\u6c28\u57fa\u8132)", "en_name": ["N,N\u2032-1,6-Hexanediylbis[2,2-dimethylhydrazinecarboxamide]", "Hydrazinecarboxamide, N,N\u2032-1,6-hexanediylbis[2,2-dimethyl-", "N,N\u2032-1,6-Hexanediylbis[2,2-dimethylhydrazinecarboxamide]", "1,6-Hexamethylenebis(N,N-dimethylsemicarbazide)", "1,6-Hexamethylenebis(dimethylsemicarbazide)", "HN 130", "HN 200", "AF 24", "Antifade 3000", "HK 130"], "SMILES": "N(C(NCCCCCCNC(NN(C)C)=O)=O)N(C)C", "physical_data": {"Molecular Weight": "288.39", "Molecular Formula": "C12H28N6O2", "Melting Point": "145-148 \u00b0C"}}