{"cas_no": "6994-46-3", "cn_name": "\u6eb6\u5242\u84dd 59", "en_name": ["Solvent Blue 59", "9,10-Anthracenedione, 1,4-bis(ethylamino)-", "Anthraquinone, 1,4-bis(ethylamino)-", "1,4-Bis(ethylamino)-9,10-anthracenedione", "C.I. Solvent Blue 59", "Calco Oil Blue N", "1,4-Bis(ethylamino)anthraquinone", "Solvent Blue 59", "1,4-Bis(ethylamino)-9,10-anthraquinone", "Kayaset Blue FR", "C.I. Solvent Blue 105", "C.I. 61552", "Solvent Blue 105", "Ceres Blue N"], "SMILES": "N(CC)C1=C2C(=C(NCC)C=C1)C(=O)C=3C(C2=O)=CC=CC3", "physical_data": {"Molecular Weight": "294.35", "Molecular Formula": "C18H18N2O2", "Melting Point": "197-198 \u00b0C"}}