{"cas_no": "69951-02-6", "cn_name": "6-\u6c2f-2-\u7532\u57fa-4-\u785d\u57fa\u82ef\u6c28", "en_name": ["2-Chloro-6-methyl-4-nitrobenzenamine", "Benzenamine, 2-chloro-6-methyl-4-nitro-", "o-Toluidine, 6-chloro-4-nitro-", "2-Chloro-6-methyl-4-nitrobenzenamine", "2-Chloro-6-methyl-4-nitroaniline", "6-Chloro-2-methyl-4-nitroaniline", "2-Chloro-6-methyl-4-nitrophenylamine"], "SMILES": "N(=O)(=O)C1=CC(C)=C(N)C(Cl)=C1", "physical_data": {"Molecular Weight": "186.60", "Molecular Formula": "C7H7ClN2O2", "Melting Point": "168 \u00b0C"}}