{"cas_no": "6995-79-5", "cn_name": "\u53cd\u5f0f-1,4-\u73af\u5df1\u4e8c\u9187", "en_name": ["trans-1,4-Cyclohexanediol", "1,4-Cyclohexanediol, trans-", "trans-1,4-Cyclohexanediol", "trans-1,4-Dihydroxycyclohexane"], "SMILES": "OC1CCC(O)CC1", "physical_data": {"Molecular Weight": "116.16", "Molecular Formula": "C6H12O2", "Melting Point": "143 \u00b0C"}}