{"cas_no": "6996-92-5", "cn_name": "\u82ef\u4e9a\u7852\u9178", "en_name": ["Benzeneseleninic acid", "Benzeneseleninic acid", "Phenylseleninic acid", "Benzeneselenic acid"], "SMILES": "[Se](=O)(O)C1=CC=CC=C1", "physical_data": {"Molecular Weight": "189.07", "Molecular Formula": "C6H6O2Se", "Melting Point": "124.5 \u00b0C"}}