{"cas_no": "69975-66-2", "cn_name": "6-\u6c30\u57fa-1-\u831a\u916e", "en_name": ["2,3-Dihydro-3-oxo-1H-indene-5-carbonitrile", "1H-Indene-5-carbonitrile, 2,3-dihydro-3-oxo-", "2,3-Dihydro-3-oxo-1H-indene-5-carbonitrile", "6-Cyano-1-indanone", "3-Oxo-1,2-dihydroindene-5-carbonitrile", "3-Oxo-2,3-dihydro-1H-indene-5-carbonitrile", "3-Oxo-indan-5-carbonitrile"], "SMILES": "O=C1C=2C(=CC=C(C#N)C2)CC1", "physical_data": {"Molecular Weight": "157.17", "Molecular Formula": "C10H7NO", "Melting Point": "109 \u00b0C"}}