{"cas_no": "69975-86-6", "cn_name": "\u591a\u7d22\u8336\u78b1", "en_name": ["Doxofylline", "1H-Purine-2,6-dione, 7-(1,3-dioxolan-2-ylmethyl)-3,7-dihydro-1,3-dimethyl-", "Theophylline, 7-(1,3-dioxolan-2-ylmethyl)-", "7-(1,3-Dioxolan-2-ylmethyl)-3,7-dihydro-1,3-dimethyl-1H-purine-2,6-dione", "2-(7\u2032-Theophyllinemethyl)-1,3-dioxolane", "ABC 1213", "Dioxyfilline", "Doxophylline", "Doxofylline", "Ansimar", "Maxivent", "ABC 12/3", "Ventax", "Synasma"], "SMILES": "C(N1C2=C(N(C)C(=O)N(C)C2=O)N=C1)C3OCCO3", "physical_data": {"Molecular Weight": "266.25", "Molecular Formula": "C11H14N4O4", "Melting Point": "144-145.5 \u00b0C"}}