{"cas_no": "69984-73-2", "cn_name": "\u58ec\u57fa-\u0392-D-\u8461\u8404\u5421\u5583\u7cd6\u7519", "en_name": ["Nonyl \u03b2-D-glucopyranoside", "\u03b2-D-Glucopyranoside, nonyl", "Nonyl \u03b2-D-glucopyranoside", "Nonyl \u03b2-glucopyranoside", "n-Nonyl \u03b2-D-glucopyranoside", "Nonyl glucoside", "Nonyl \u03b2-D-glucoside", "n-Nonyl \u03b2-glucoside"], "SMILES": "O(CCCCCCCCC)C1OC(CO)C(O)C(O)C1O", "physical_data": {"Molecular Weight": "306.40", "Molecular Formula": "C15H30O6", "Melting Point": "65-118 \u00b0C"}}