{"cas_no": "6998-60-3", "cn_name": "\u5229\u798f\u9709\u7d20", "en_name": ["Rifamycin", "Rifamycin", "Rifomycin SV", "2,7-(Epoxypentadeca[1,11,13]trienimino)naphtho[2,1-b]furan-1,11(2H)-dione, 5,6,9,17,19,21-hexahydroxy-23-methoxy-2,4,12,16,18,20,22-heptamethyl-, 21-acetate", "2,7-(Epoxypentadeca[1,11,13]trienimino)naphtho[2,1-b]furan, rifamycin deriv.", "Rifamycin SV", "Rifocin", "Rifomycin", "[2S-(2R*,12Z,14E,16R*,17R*,18S*,19S*,20S*,21R*,22S*,23R*,24E)]-21-(Acetyloxy)-5,6,9,17,19-pentahydroxy-23-methoxy-2,4,12,16,18,20,22-heptamethyl-2,7-(epoxypentadeca[1,11,13]trienimino)naphtho[2,1-b]furan-1,11(2H)-dione", "NSC 133100", "(2S,12Z,14E,16S,17S,18R,19R,20R,21S,22R,23S,24E)-21-(Acetyloxy)-5,6,9,17,19-pentahydroxy-23-methoxy-2,4,12,16,18,20,22-heptamethyl-2,7-(epoxypentadeca[1,11,13]trienimino)naphtho[2,1-b]furan-1,11(2H)-dione", "2,7-(Epoxypentadeca[1,11,13]trienimino)naphtho[2,1-b]furan-1,11(2H)-dione, 21-(acetyloxy)-5,6,9,17,19-pentahydroxy-23-methoxy-2,4,12,16,18,20,22-heptamethyl-, (2S,12Z,14E,16S,17S,18R,19R,20R,21S,22R,23S,24E)-", "Riphogal", "Rifogal", "Rifamicine SV", "Rifampin SV", "Rifocine", "Rifamycin SV MMX"], "SMILES": "O=C1C=2C=3C4=C(O)C(=CC3O)NC(=O)C(C)=CC=CC(C)C(O)C(C)C(O)C(C)C(OC(C)=O)C(C)C(OC)C=COC1(C)OC2C(C)=C4O", "physical_data": {"Molecular Weight": "697.77", "Molecular Formula": "C37H47NO12", "Melting Point": "300 \u00b0C"}}