{"cas_no": "69999-16-2", "cn_name": "2,3-\u4e8c\u6c22\u82ef\u5e76\u544b\u5583-5-\u4e59\u9178", "en_name": ["2,3-Dihydro-5-benzofuranacetic acid", "5-Benzofuranacetic acid, 2,3-dihydro-", "2,3-Dihydro-5-benzofuranacetic acid", "(2,3-Dihydrobenzofuran-5-yl)acetic acid", "2,3-Dihydrobenzofuran-5-acetic acid", "2-(2,3-Dihydrobenzofuran-5-yl)acetic acid", "2,3-Dihydro-1-benzofuran-5-ylacetic acid", "2-(2,3-Dihydro-1-benzofuran-5-yl)acetic acid"], "SMILES": "C(C(O)=O)C=1C=C2C(=CC1)OCC2", "physical_data": {"Molecular Weight": "178.18", "Molecular Formula": "C10H10O3", "Melting Point": "96 \u00b0C"}}