{"cas_no": "70-00-8", "cn_name": "\u4e09\u6c1f\u80f8\u82f7", "en_name": ["Trifluridine", "Thymidine, \u03b1,\u03b1,\u03b1-trifluoro-", "Uridine, 2\u2032-deoxy-5-(trifluoromethyl)-", "\u03b1,\u03b1,\u03b1-Trifluorothymidine", "5-(Trifluoromethyl)-2\u2032-deoxyuridine", "Trifluorothymidine", "2\u2032-Deoxy-5-(trifluoromethyl)uridine", "5-(Trifluoromethyl)deoxyuridine", "Trifluridine", "Viroptic", "5-Trifluoromethyl-2\u2032-deoxy-\u03b2-uridine", "5-Trifluorothymidine", "NSC 529182", "NSC 75520", "MeSH ID: D014271"], "SMILES": "O=C1N(C2OC(CO)C(O)C2)C=C(C(F)(F)F)C(=O)N1", "physical_data": {"Molecular Weight": "296.20", "Molecular Formula": "C10H11F3N2O5", "Melting Point": "186-189 \u00b0C"}}