{"cas_no": "70-07-5", "cn_name": "\u7f8e\u82ac\u8bfa\u916e", "en_name": ["Mephenoxalone", "2-Oxazolidinone, 5-[(2-methoxyphenoxy)methyl]-", "2-Oxazolidinone, 5-[(o-methoxyphenoxy)methyl]-", "5-[(2-Methoxyphenoxy)methyl]-2-oxazolidinone", "AHR 233", "Ekilan", "Lenetranat", "Lenetran Tab", "Methoxydon", "5-(o-Methoxyphenoxymethyl)-2-oxazolidinone", "5-(o-Methoxyphenoxymethyl)-2-oxazolidone", "Trepidone", "Mephenoxalone", "Lenetran", "Metoxadone", "Methoxydone", "Methoxadone", "Dorsiflex", "Tranpoise", "Dorsilon", "Placidex", "OM-518", "Riself", "Xerene", "Moderamin", "Valans", "Metoxadon", "Control-OM", "(\u00b1)-Mephenoxalone"], "SMILES": "O(CC1CNC(=O)O1)C2=C(OC)C=CC=C2", "physical_data": {"Molecular Weight": "223.23", "Molecular Formula": "C11H13NO4", "Boiling Point": "220-225 \u00b0C @ Press: 0.1 Torr", "Melting Point": "144 \u00b0C"}}