{"cas_no": "70-10-0", "cn_name": "\u66ff\u514b\u62c9\u916e", "en_name": ["Ticlatone", "1,2-Benzisothiazol-3(2H)-one, 6-chloro-", "1,2-Benzisothiazolin-3-one, 6-chloro-", "6-Chloro-1,2-benzisothiazol-3(2H)-one", "FER 1443", "Ticlatone", "Landromil", "Ticlaton", "6-Chloro-1,2-benzoisothiazol-3-one", "6-Chloro-1,2-benzisothiazolin-3-one", "6-Chloro-1,2-benzisothiazole-3-one", "3-Hydroxy-6-chloro-1,2-benzisothiazole"], "SMILES": "O=C1C=2C(SN1)=CC(Cl)=CC2", "physical_data": {"Molecular Weight": "185.63", "Molecular Formula": "C7H4ClNOS", "Melting Point": "270-272 \u00b0C"}}