{"cas_no": "70-11-1", "cn_name": "2-\u6eb4\u82ef\u4e59\u916e", "en_name": ["Phenacyl bromide", "Ethanone, 2-bromo-1-phenyl-", "Acetophenone, 2-bromo-", "Acetophenone, \u03b1-bromo-", "2-Bromo-1-phenylethanone", "\u03b1-Bromoacetophenone", "\u03c9-Bromoacetophenone", "Phenacyl bromide", "Stauffer 4644", "2-Bromacetophenone", "Bromomethyl phenyl ketone", "\u03c9-Bromacetophenone", "2-Bromoacetophenone", "2-Bromo-1-phenylethan-1-one", "Benzoylmethyl bromide", "\u03b2-Bromoacetophenone", "Phenyl bromomethyl ketone", "Bromoacetophenone", "NSC 9807", "1-Bromo-2-phenylethan-2-one", "1-Phenyl-2-bromoethanone", "2-Phenyl-2-oxoethyl bromide"], "SMILES": "C(CBr)(=O)C1=CC=CC=C1", "physical_data": {"Molecular Weight": "199.04", "Molecular Formula": "C8H7BrO", "Boiling Point": "135 \u00b0C", "Melting Point": "50.5 \u00b0C"}}