{"cas_no": "70-18-8", "cn_name": "\u8c37\u80f1\u7518\u80bd", "en_name": ["Glutathione", "Glycine, L-\u03b3-glutamyl-L-cysteinyl-", "Glutathione", "Glycine, N-(N-L-\u03b3-glutamyl-L-cysteinyl)-", "L-\u03b3-Glutamyl-L-cysteinylglycine", "\u03b3-L-Glutamyl-L-cysteinylglycine", "Glutathione-SH", "GSH", "L-Glutathione", "Reduced glutathione", "Triptide", "Glutide", "Tathion", "Tathione", "Copren", "Deltathione", "Glutathion", "Glutinal", "Isethion", "Neuthion", "Agifutol S", "\u03b3-Glutamylcysteinylglycine", "N-(N-L-\u03b3-Glutamyl-L-cysteinyl)glycine", "Bakezyme RX", "ReadiSorb", "Atomolan", "High Thione Extract YH 15", "N5-((R)-1-((Carboxymethyl)amino)-3-mercapto-1-oxopropan-2-yl)-L-glutamine", "TAD 600", "MeSH ID: D005978"], "SMILES": "C(C(NCC(O)=O)=O)(NC(CCC(C(O)=O)N)=O)CS", "physical_data": {"Molecular Weight": "307.32", "Molecular Formula": "C10H17N3O6S", "Melting Point": "195 \u00b0C"}}