{"cas_no": "70-26-8", "cn_name": "\u9e1f\u6c28\u9178", "en_name": ["L-(-)-Ornithine", "L-Ornithine", "Ornithine, L-", "Pentanoic acid, 2,5-diamino-, (S)-", "Ornithine", "L-(-)-Ornithine", "(S)-2,5-Diaminopentanoic acid", "(S)-Ornithine", "(S)-\u03b1,\u03b4-Diaminovaleric acid", "(+)-S-Ornithine", "L-Norvaline, 5-amino-", "(2S)-2,5-Diaminopentanoic acid", "MeSH ID: D009952"], "SMILES": "C(C(O)=O)(CCCN)N", "physical_data": {"Molecular Weight": "132.16", "Molecular Formula": "C5H12N2O2", "Melting Point": "140 \u00b0C"}}