{"cas_no": "70-23-5", "cn_name": "3-\u6eb4\u4e19\u916e\u9178\u4e59\u916f", "en_name": ["Ethyl bromopyruvate", "Propanoic acid, 3-bromo-2-oxo-, ethyl ester", "Pyruvic acid, bromo-, ethyl ester", "Ethyl bromopyruvate", "\u03b2-Bromopyruvic acid ethyl ester", "Ethyl 3-bromopyruvate", "Bromopyruvic acid ethyl ester", "Ethyl \u03b1-bromopyruvate", "3-Bromopyruvic acid ethyl ester", "Ethyl 3-bromo-2-oxopropanoate", "Ethyl 3-bromo-2-oxopropionate", "3-Bromo-2-oxopropanoic acid ethyl ester", "NSC 62182", "3-Bromo-2-(oxo)propionic acid ethyl ester"], "SMILES": "C(C(CBr)=O)(OCC)=O", "physical_data": {"Molecular Weight": "195.01", "Molecular Formula": "C5H7BrO3", "Boiling Point": "116-121 \u00b0C @ Press: 27 Torr", "Density": "1.561 g/cm\u00b3 @ Temp: 20 \u00b0C"}}