{"cas_no": "70-29-1", "cn_name": "\u4e59\u4e9a\u78fa\u9170\u4e59\u70f7", "en_name": ["Diethyl sulfoxide", "Ethane, 1,1\u2032-sulfinylbis-", "Ethyl sulfoxide", "1,1\u2032-Sulfinylbis[ethane]", "Diethyl sulfoxide", "Diethyl sulphoxide", "1,1\u2032-Sulfinylbis(ethane)", "NSC 139125", "(Ethanesulfinyl)ethane"], "SMILES": "S(CC)(CC)=O", "physical_data": {"Molecular Weight": "106.19", "Molecular Formula": "C4H10OS", "Boiling Point": "88-89 \u00b0C @ Press: 15 Torr", "Melting Point": "14 \u00b0C", "Density": "1.104 g/cm\u00b3 @ Temp: 20 \u00b0C"}}