{"cas_no": "70-25-7", "cn_name": "1-\u7532\u57fa-3-\u785d\u57fa-1-\u4e9a\u785d\u57fa\u80cd", "en_name": ["N-Methyl-N\u2032-nitro-N-nitrosoguanidine", "Guanidine, N-methyl-N\u2032-nitro-N-nitroso-", "Guanidine, 1-methyl-3-nitro-1-nitroso-", "N-Methyl-N\u2032-nitro-N-nitrosoguanidine", "1-Methyl-3-nitro-1-nitrosoguanidine", "N-Nitroso-N-methyl-N\u2032-nitroguanidine", "1-Nitroso-3-nitro-1-methylguanidine", "N-Methyl-N-nitroso-N\u2032-nitroguanidine", "MNNG", "N-Nitroso-N-methylnitroguanidine", "N-Nitroso-N\u2032-nitro-N-methylguanidine", "N-Methyl-N1-nitro-N-nitrosoguanidine", "Methylnitronitrosoguanidine", "NSC 9369", "N-Methyl-N\u2032-nitro-N-nitrosoguanadine", "1-Methyl-1-nitroso-3-nitroguanidine", "Nitrosoguanidine", "1-Methyl-1-nitroso-2-nitroguanidine", "NTG", "N-Methyl-nitroso-N\u2032-nitroguanidine", "N-Nitrosoguanidine", "1-Methyl-2-nitro-1-nitrosoguanidine"], "SMILES": "C(N(N=O)C)(NN(=O)=O)=N", "physical_data": {"Molecular Weight": "147.09", "Molecular Formula": "C2H5N5O3", "Melting Point": "118-123.5 \u00b0C (decomp)"}}