{"cas_no": "70-34-8", "cn_name": "2,4-\u4e8c\u785d\u57fa\u6c1f\u82ef", "en_name": ["Dinitrofluorobenzene", "Benzene, 1-fluoro-2,4-dinitro-", "1-Fluoro-2,4-dinitrobenzene", "DFB", "2,4-Dinitrofluorobenzene", "2,4-Dinitro-1-fluorobenzene", "DNFB", "FDNB", "Dinitrofluorobenzene", "Fluorodinitrobenzene", "2,4-Dinitrobenzene fluoride", "2,4-Dinitrophenyl fluoride", "4-Fluoro-1,3-dinitrobenzene", "NSC 33519", "Sanger's reagent"], "SMILES": "N(=O)(=O)C1=CC(N(=O)=O)=CC=C1F", "physical_data": {"Molecular Weight": "186.10", "Molecular Formula": "C6H3FN2O4", "Boiling Point": "296 \u00b0C", "Melting Point": "25.8 \u00b0C", "Density": "1.4718 g/cm\u00b3 @ Temp: 54 \u00b0C"}}