{"cas_no": "70-30-4", "cn_name": "\u516d\u6c2f\u82ac", "en_name": ["Hexachlorophene", "Phenol, 2,2\u2032-methylenebis[3,4,6-trichloro-", "2,2\u2032-Methylenebis[3,4,6-trichlorophenol]", "AT 7", "G 11 (bactericide)", "Almederm", "Bis(3,5,6-trichloro-2-hydroxyphenyl)methane", "2,2\u2032-Dihydroxy-3,3\u2032,5,5\u2032,6,6\u2032-hexachlorodiphenylmethane", "2,2\u2032-Dihydroxy-3,5,6,3\u2032,5\u2032,6\u2032-hexachlorodiphenylmethane", "Exofene", "Fostril", "Gamophen", "Gamophene", "Germa-Medica", "Hexachlorophen", "Hexachlorophene", "Hexophene", "Hexosan", "Septisol", "Steral", "Surgi-Cen", "Surofene", "Nabac", "Bis(2-hydroxy-3,5,6-trichlorophenyl)methane", "Neosept V", "pHisoHex", "Cotofilm", "2,2\u2032,3,3\u2032,5,5\u2032-Hexachloro-6,6\u2032-dihydroxydiphenylmethane", "B 32", "Ritosept", "Hexachlorofen", "Acigena", "Tersaseptic", "Hexabalm", "Septofen", "Hexafen", "Steraskin", "Distodin", "Fesia-sin", "G 11", "Dermadex", "Bilevon", "Soy-Dome", "NSC 49115", "NSC 9887", "MeSH ID: D006582"], "SMILES": "C(C1=C(Cl)C(Cl)=CC(Cl)=C1O)C2=C(Cl)C(Cl)=CC(Cl)=C2O", "physical_data": {"Molecular Weight": "406.90", "Molecular Formula": "C13H6Cl6O2", "Boiling Point": "479 \u00b0C", "Melting Point": "164-165 \u00b0C"}}