{"cas_no": "70-47-3", "cn_name": "L-\u5929\u51ac\u9170\u80fa", "en_name": ["(-)-Asparagine", "L-Asparagine", "Asparagine, L-", "Agedoite", "Altheine", "\u03b1-Aminosuccinamic acid", "L-\u03b2-Asparagine", "Asparagine acid", "Asparamide", "Aspartamic acid", "Aspartic acid amide", "Aspartic acid \u03b2-amide", "Asparagine", "Butanoic acid, 2,4-diamino-4-oxo-, (S)-", "(-)-Asparagine", "Asn", "(S)-2,4-Diamino-4-oxobutanoic acid", "l-Asparagine", "(S)-Asparagine", "L-2,4-Diamino-4-oxobutanoic acid", "L-Aspartamine", "Crystal VI", "NSC 82391", "(2S)-2-Amino-3-carbamoylpropanoic acid", "(2S)-4-Amino-2-azaniumyl-4-oxobutanoate", "MeSH ID: D001216"], "SMILES": "C(CC(N)=O)(C(O)=O)N", "physical_data": {"Molecular Weight": "132.12", "Molecular Formula": "C4H8N2O3", "Melting Point": "234-235 \u00b0C"}}