{"cas_no": "70-49-5", "cn_name": "\u5def\u57fa\u4e01\u4e8c\u9178", "en_name": ["(\u00b1)-Mercaptosuccinic acid", "Butanedioic acid, 2-mercapto-", "Succinic acid, mercapto-", "Butanedioic acid, mercapto-", "2-Mercaptobutanedioic acid", "Mercaptosuccinic acid", "Thiomalic acid", "2-Thiomalic acid", "\u03b1-Mercaptosuccinic acid", "2-Mercaptosuccinic acid", "Monomercaptosuccinic acid", "DL-Mercaptosuccinic acid", "DL-Thiomalic acid", "(\u00b1)-Mercaptosuccinic acid", "Mercaptobutanedioic acid", "NSC 7302", "2-Sulfanylbutanedioic acid"], "SMILES": "C(CC(O)=O)(C(O)=O)S", "physical_data": {"Molecular Weight": "150.15", "Molecular Formula": "C4H6O4S", "Melting Point": "149 \u00b0C"}}