{"cas_no": "70-55-3", "cn_name": "\u5bf9\u7532\u82ef\u78fa\u9170\u80fa", "en_name": ["p-Toluenesulfonamide", "Benzenesulfonamide, 4-methyl-", "p-Toluenesulfonamide", "4-Methylbenzenesulfonamide", "p-Tosylamide", "p-Methylbenzenesulfonamide", "Toluene-4-sulfonamide", "p-Tolylsulfonamide", "Tolylsulfonamide", "Tosylamide", "Plasticizer 15", "4-Tolylsulfonamide", "Uniplex 173", "4-Methylphenylsulfonamide", "NSC 9908", "Topcizer 1S", "4-Methylbenzene-1-sulfonamide", "4-Methylbenzensulfonamide", "GWA 101"], "SMILES": "S(N)(=O)(=O)C1=CC=C(C)C=C1", "physical_data": {"Molecular Weight": "171.22", "Molecular Formula": "C7H9NO2S", "Boiling Point": "214 \u00b0C @ Press: 9.98 Torr", "Melting Point": "138.5 \u00b0C"}}