{"cas_no": "70-54-2", "cn_name": "DL-\u8d56\u6c28\u9178", "en_name": ["(\u00b1)-Lysine", "Lysine", "Lysine, DL-", "DL-Lysine", "DL-\u03b1,\u03b5-Diaminocaproic acid", "2,6-Diaminohexanoic acid", "(\u00b1)-Lysine", "(RS)-Lysine", "(\u00b1)-2,6-Diaminohexanoic acid", "AminoShure-L"], "SMILES": "C(CCCCN)(C(O)=O)N", "physical_data": {"Molecular Weight": "146.19", "Molecular Formula": "C6H14N2O2", "Melting Point": "224 \u00b0C"}}