{"cas_no": "70-53-1", "cn_name": "DL-\u8d56\u6c28\u9178\u76d0\u9178\u76d0", "en_name": ["Lysine, hydrochloride (1:1)", "Lysine, hydrochloride (1:1)", "Lysine, monohydrochloride, DL-", "DL-Lysine, monohydrochloride", "Lysine, monohydrochloride", "DL-Lysine hydrochloride", "NSC 46705", "2,6-Diaminohexanoic acid hydrochloride"], "SMILES": "C(CCCCN)(C(O)=O)N.Cl", "physical_data": {"Molecular Weight": "", "Molecular Formula": "C6H14N2O2.ClH", "Melting Point": "235-236 \u00b0C"}}