{"cas_no": "70-51-9", "cn_name": "\u53bb\u94c1\u80fa", "en_name": ["Deferoxamine", "Butanediamide, N4-[5-[[4-[[5-(acetylhydroxyamino)pentyl]amino]-1,4-dioxobutyl]hydroxyamino]pentyl]-N1-(5-aminopentyl)-N1-hydroxy-", "Propionohydroxamic acid, N-[5-[3-[(5-aminopentyl)hydroxycarbamoyl]propionamido]pentyl]-3-[[5-(N-hydroxyacetamido)pentyl]carbamoyl]-", "Butanediamide, N\u2032-[5-[[4-[[5-(acetylhydroxyamino)pentyl]amino]-1,4-dioxobutyl]hydroxyamino]pentyl]-N-(5-aminopentyl)-N-hydroxy-", "N4-[5-[[4-[[5-(Acetylhydroxyamino)pentyl]amino]-1,4-dioxobutyl]hydroxyamino]pentyl]-N1-(5-aminopentyl)-N1-hydroxybutanediamide", "N-[5-[3-[(5-Aminopentyl)hydroxycarbamoyl]propionamido]pentyl]-3-[[5-(N-hydroxyacetamido)pentyl]carbamoyl]propionohydroxamic acid", "30-Amino-3,14,25-trihydroxy-3,9,14,20,25 pentaazatriacontane-2,10,13,21,24-pentaone", "3,9,14,20,25-Pentaazatriacontane-2,10,13,21,24-pentone, 30-amino-3,14,25-trihydroxy-", "Deferoxamine B", "Deferoxamine", "Deferrioxamine B", "Deferrioxamine", "Desferrin", "Desferrioxamine B", "Desferrioxamine", "Deferoxamin", "Desferan", "Desferex", "Desferin", "Deferriferrioxamine B", "Desferioxamine B", "NSC 527604", "Desferoxime", "DFO", "N\u2032-[5-[Acetyl(hydroxy)amino]pentyl]-N-7-[5-([4-[(5-aminopentyl)(hydroxy)amino]-4-oxobutanoyl]amino)pentyl]-N-hydroxysuccinamide", "DFO-B", "MeSH ID: D003676"], "SMILES": "C(CCC(NCCCCCN(C(C)=O)O)=O)(N(CCCCCNC(CCC(N(CCCCCN)O)=O)=O)O)=O", "physical_data": {"Molecular Weight": "560.68", "Molecular Formula": "C25H48N6O8", "Melting Point": "140 \u00b0C"}}