{"cas_no": "70-58-6", "cn_name": "5-\u6c1f\u70df\u9170\u80fa", "en_name": ["5-Fluoro-3-pyridinecarboxamide", "3-Pyridinecarboxamide, 5-fluoro-", "Nicotinamide, 5-fluoro-", "5-Fluoro-3-pyridinecarboxamide", "5-Fluoronicotinamide", "NSC 403725"], "SMILES": "C(N)(=O)C=1C=C(F)C=NC1", "physical_data": {"Molecular Weight": "140.12", "Molecular Formula": "C6H5FN2O", "Melting Point": "173-175 \u00b0C"}}