{"cas_no": "70-69-9", "cn_name": "4-\u80fa\u57fa\u4e19\u82ef\u916e", "en_name": ["p-Aminopropiophenone", "1-Propanone, 1-(4-aminophenyl)-", "Propiophenone, 4\u2032-amino-", "1-(4-Aminophenyl)-1-propanone", "PAPP", "p-Aminopropiophenone", "4\u2032-Aminopropiophenone", "NSC 3187", "NSC 404994", "4-Propionylaniline", "4-Propanoylaniline"], "SMILES": "C(CC)(=O)C1=CC=C(N)C=C1", "physical_data": {"Molecular Weight": "149.19", "Molecular Formula": "C9H11NO", "Boiling Point": "482 \u00b0C", "Melting Point": "140 \u00b0C"}}