{"cas_no": "70-70-2", "cn_name": "4-\u7f9f\u57fa\u82ef\u4e19\u916e", "en_name": ["4\u2032-Hydroxypropiophenone", "1-Propanone, 1-(4-hydroxyphenyl)-", "Propiophenone, 4\u2032-hydroxy-", "Propiophenone, p-hydroxy-", "1-(4-Hydroxyphenyl)-1-propanone", "B 360", "H 365", "Ethyl p-hydroxyphenyl ketone", "Frenantol", "Frenohypon", "p-Hydroxyphenyl-1-propanone", "p-Hydroxypropiophenone", "Hypophenon", "Paroxon", "Paroxypropione", "POP", "Profenone", "p-Propionylphenol", "1-(p-Hydroxyphenyl)-1-propanone", "p-Propiophenol", "4\u2032-Hydroxypropiophenone", "Possipione", "Hypostat", "4-Propionylphenol", "Bio-fren", "Proxiphenon", "Paroxypropion", "Ibiopopp", "Frenon", "Frenormon", "Mepal", "4-Propanoylphenol", "Possipion", "NSC 2834", "NSC 33949", "Ethyl 4-hydroxyphenyl ketone", "4-Hydroxyphenyl ethyl ketone", "1-(4-Hydroxyphenyl)propanone", "4-Hydroxyphenyl-1-propanone"], "SMILES": "C(CC)(=O)C1=CC=C(O)C=C1", "physical_data": {"Molecular Weight": "150.17", "Molecular Formula": "C9H10O2", "Boiling Point": "140-145 \u00b0C @ Press: 0.5 Torr", "Melting Point": "149 \u00b0C"}}