{"cas_no": "70-78-0", "cn_name": "3-\u7898-L-\u916a\u6c28\u9178", "en_name": ["3-Iodo-L-tyrosine", "L-Tyrosine, 3-iodo-", "Tyrosine, 3-iodo-, L-", "3-Iodo-L-tyrosine", "MIT", "3-Iodotyrosine", "3-Iodo-4-hydroxyphenylalanine", "MIT (amino acid)", "4-Hydroxy-3-iodophenylalanine", "NSC 210787", "(2S)-2-Amino-3-(4-hydroxy-3-iodophenyl)propanoic acid", "MeSH ID: D007470"], "SMILES": "C(C(C(O)=O)N)C1=CC(I)=C(O)C=C1", "physical_data": {"Molecular Weight": "307.09", "Molecular Formula": "C9H10INO3", "Melting Point": "205 \u00b0C (decomp)"}}