{"cas_no": "700-58-3", "cn_name": "\u91d1\u521a\u70f7\u916e", "en_name": ["Adamantanone", "Tricyclo[3.3.1.13,7]decan-2-one", "2-Adamantanone", "Tricyclo[3.3.1.13,7]decanone", "Adamantanone", "2-Oxoadamantane", "2-Adamantone", "NSC 126345", "2-Adamantaneone"], "SMILES": "O=C1C2CC3CC1CC(C2)C3", "physical_data": {"Molecular Weight": "150.22", "Molecular Formula": "C10H14O", "Melting Point": "224.0-225.0 \u00b0C"}}