{"cas_no": "700-49-2", "cn_name": "2-\u6c1f-6-\u6c28\u57fa\u560c\u5464", "en_name": ["2-Fluoroadenine", "9H-Purin-6-amine, 2-fluoro-", "Adenine, 2-fluoro-", "1H-Purin-6-amine, 2-fluoro-", "2-Fluoro-9H-purin-6-amine", "2-Fluoro-6-aminopurine", "2-Fluoroadenine", "NSC 27364", "2-Fluoro-1H-purin-6-amine", "2-Fluoro-7H-purin-6-amine"], "SMILES": "NC1=C2C(=NC(F)=N1)N=CN2", "physical_data": {"Molecular Weight": "153.12", "Molecular Formula": "C5H4FN5", "Melting Point": "&gt;350 \u00b0C (decomp)"}}