{"cas_no": "700-17-4", "cn_name": "2,3,5,6-\u56db\u6c1f\u82ef\u80fa", "en_name": ["2,3,5,6-Tetrafluorobenzenamine", "Benzenamine, 2,3,5,6-tetrafluoro-", "Aniline, 2,3,5,6-tetrafluoro-", "2,3,5,6-Tetrafluorobenzenamine", "2,3,5,6-Tetrafluoroaniline", "NSC 88347", "2,3,5,6-Tetrafluorophenylamine"], "SMILES": "FC1=C(N)C(F)=C(F)C=C1F", "physical_data": {"Molecular Weight": "165.09", "Molecular Formula": "C6H3F4N", "Boiling Point": "158 \u00b0C", "Melting Point": "31.5 \u00b0C"}}