{"cas_no": "700-13-0", "cn_name": "\u4e09\u7532\u57fa\u6c22\u918c", "en_name": ["Trimethylhydroquinone", "1,4-Benzenediol, 2,3,5-trimethyl-", "Hydroquinone, trimethyl-", "2,3,5-Trimethyl-1,4-benzenediol", "\u03c8-Cumohydroquinone", "Pseudocumohydroquinone", "Trimethyl-p-hydroquinone", "2,3,5-Trimethylhydroquinone", "1,4-Dihydroxy-2,3,5-trimethylbenzene", "Trimethylhydroquinone", "2,3,5-Trimethyl-1,4-hydroquinone", "2,3,5-Trimethyl-p-hydroquinone", "NSC 401617"], "SMILES": "CC1=C(C)C(O)=C(C)C=C1O", "physical_data": {"Molecular Weight": "152.19", "Molecular Formula": "C9H12O2", "Melting Point": "170-171 \u00b0C"}}