{"cas_no": "700-12-9", "cn_name": "\u4e94\u7532\u57fa\u82ef", "en_name": ["Pentamethylbenzene", "Benzene, 1,2,3,4,5-pentamethyl-", "Benzene, pentamethyl-", "1,2,3,4,5-Pentamethylbenzene", "Pentamethylbenzene", "NSC 1889", "WJB"], "SMILES": "CC1=C(C)C(C)=C(C)C=C1C", "physical_data": {"Molecular Weight": "148.24", "Molecular Formula": "C11H16", "Boiling Point": "232 \u00b0C", "Melting Point": "54.5 \u00b0C", "Density": "0.921 g/cm\u00b3 @ Temp: 20 \u00b0C"}}