{"cas_no": "700-00-5", "cn_name": "9-\u7532\u57fa\u817a\u560c\u5464", "en_name": ["9-Methyladenine", "9H-Purin-6-amine, 9-methyl-", "Adenine, 9-methyl-", "9-Methyl-9H-purin-6-amine", "9-Methyladenine", "6-Amino-9-methylpurine", "9-Methyl-9H-adenine", "N9-Methyladenine", "N 838", "NSC 7843", "ST 088036"], "SMILES": "NC1=C2C(N(C)C=N2)=NC=N1", "physical_data": {"Molecular Weight": "149.15", "Molecular Formula": "C6H7N5", "Melting Point": "300 \u00b0C (sublm)", "Density": "1.471 g/cm\u00b3"}}