{"cas_no": "700-36-7", "cn_name": "2-\u6eb4-4-\u6c1f-1-\u785d\u57fa\u82ef", "en_name": ["2-Bromo-4-fluoro-1-nitrobenzene", "Benzene, 2-bromo-4-fluoro-1-nitro-", "2-Bromo-4-fluoro-1-nitrobenzene", "1-Bromo-5-fluoro-2-nitrobenzene", "2-Bromo-4-fluoronitrobenzene"], "SMILES": "N(=O)(=O)C1=C(Br)C=C(F)C=C1", "physical_data": {"Molecular Weight": "220.00", "Molecular Formula": "C6H3BrFNO2", "Boiling Point": "70-75 \u00b0C @ Press: 0.4 Torr", "Melting Point": "42 \u00b0C"}}