{"cas_no": "700-84-5", "cn_name": "5-\u6c1f-1-\u831a\u916e", "en_name": ["5-Fluoro-1-indanone", "1H-Inden-1-one, 5-fluoro-2,3-dihydro-", "1-Indanone, 5-fluoro-", "5-Fluoro-2,3-dihydro-1H-inden-1-one", "5-Fluoro-1-indanone", "5-Fluoro-2,3-dihydroinden-1-one"], "SMILES": "O=C1C=2C(CC1)=CC(F)=CC2", "physical_data": {"Molecular Weight": "150.15", "Molecular Formula": "C9H7FO", "Boiling Point": "61-66 \u00b0C @ Press: 0.15-0.2 Torr"}}