{"cas_no": "700-63-0", "cn_name": "2-\u6c28\u57fa-2-\u82ef\u57fa\u4e59\u9170\u80fa", "en_name": ["2-Amino-2-phenylacetamide", "Benzeneacetamide, \u03b1-amino-", "Acetamide, 2-amino-2-phenyl-", "\u03b1-Aminobenzeneacetamide", "\u03b1-Amino-\u03b1-phenylacetamide", "2-Amino-2-phenylacetamide", "DL-Phenylglycinamide", "DL-Phenylglycine amide", "DL-\u03b1-Phenylglycine amide", "(\u00b1)-\u03b1-Aminobenzeneacetamide", "NSC 47695"], "SMILES": "C(C(N)=O)(N)C1=CC=CC=C1", "physical_data": {"Molecular Weight": "150.18", "Molecular Formula": "C8H10N2O", "Melting Point": "128-129 \u00b0C"}}