{"cas_no": "700-37-8", "cn_name": "4-\u6c2f-2-\u6c1f\u785d\u57fa\u82ef", "en_name": ["4-Chloro-2-fluoro-1-nitrobenzene", "Benzene, 4-chloro-2-fluoro-1-nitro-", "4-Chloro-2-fluoro-1-nitrobenzene", "4-Chloro-2-fluoronitrobenzene", "1-Chloro-3-fluoro-4-nitrobenzene", "5-Chloro-2-nitro-1-fluorobenzene"], "SMILES": "N(=O)(=O)C1=C(F)C=C(Cl)C=C1", "physical_data": {"Molecular Weight": "175.54", "Molecular Formula": "C6H3ClFNO2", "Melting Point": "48-49 \u00b0C"}}