{"cas_no": "700-87-8", "cn_name": "2-\u7532\u6c27\u57fa\u82ef\u57fa\u5f02\u6c30\u9178\u916f", "en_name": ["2-Methoxyphenyl isocyanate", "Benzene, 1-isocyanato-2-methoxy-", "Isocyanic acid, o-methoxyphenyl ester", "1-Isocyanato-2-methoxybenzene", "o-Methoxyphenyl isocyanate", "2-Methoxyphenyl isocyanate", "o-Anisyl isocyanate"], "SMILES": "N(=C=O)C1=C(OC)C=CC=C1", "physical_data": {"Molecular Weight": "149.15", "Molecular Formula": "C8H7NO2", "Boiling Point": "94.8-95.5 \u00b0C @ Press: 10 Torr"}}