{"cas_no": "700-16-3", "cn_name": "\u4e94\u6c1f\u5421\u5576", "en_name": ["Pentafluoropyridine", "Pyridine, 2,3,4,5,6-pentafluoro-", "Pyridine, pentafluoro-", "2,3,4,5,6-Pentafluoropyridine", "Pentafluoropyridine", "Perfluoropyridine"], "SMILES": "FC=1C(F)=C(F)C(F)=NC1F", "physical_data": {"Molecular Weight": "169.05", "Molecular Formula": "C5F5N", "Boiling Point": "83.5 \u00b0C", "Melting Point": "-42 \u00b0C"}}