{"cas_no": "700-44-7", "cn_name": "2-\u7f9f\u57fa-4-\u7532\u6c27\u57fa\u82ef\u7532\u919b", "en_name": ["2-Hydroxy-6-methoxybenzaldehyde", "Benzaldehyde, 2-hydroxy-6-methoxy-", "o-Anisaldehyde, 6-hydroxy-", "2-Hydroxy-6-methoxybenzaldehyde", "Ramal", "6-Methoxysalicylaldehyde", "6-Hydroxy-2-methoxybenzaldehyde"], "SMILES": "O(C)C1=C(C=O)C(O)=CC=C1", "physical_data": {"Molecular Weight": "152.15", "Molecular Formula": "C8H8O3", "Melting Point": "75 \u00b0C"}}