{"cas_no": "700-38-9", "cn_name": "6-\u785d\u57fa\u95f4\u7532\u915a", "en_name": ["5-Methyl-2-nitrophenol", "Phenol, 5-methyl-2-nitro-", "m-Cresol, 6-nitro-", "5-Methyl-2-nitrophenol", "2-Nitro-5-methylphenol", "3-Methyl-6-nitrophenol", "6-Nitro-m-cresol", "3-Hydroxy-4-nitrotoluene", "6-Nitro-3-methylphenol", "NSC 3142", "2-Hydroxy-4-methyl-1-nitrobenzene"], "SMILES": "N(=O)(=O)C1=C(O)C=C(C)C=C1", "physical_data": {"Molecular Weight": "153.14", "Molecular Formula": "C7H7NO3", "Melting Point": "53 \u00b0C"}}