{"cas_no": "700-57-2", "cn_name": "2-\u91d1\u521a\u70f7\u9187", "en_name": ["2-Adamantanol", "Tricyclo[3.3.1.13,7]decan-2-ol", "2-Adamantanol", "2-Hydroxyadamantane", "NSC 193480", "2-Tricyclo[3.3.1.13,7]decanol"], "SMILES": "OC1C2CC3CC1CC(C2)C3", "physical_data": {"Molecular Weight": "152.23", "Molecular Formula": "C10H16O", "Melting Point": "296-300 \u00b0C"}}