{"cas_no": "700-06-1", "cn_name": "\u5432\u54da-3-\u7532\u9187", "en_name": ["Indole-3-carbinol", "1H-Indole-3-methanol", "Indole-3-methanol", "Indole-3-carbinol", "3-(Hydroxymethyl)indole", "3-Indolylcarbinol", "3-Indolylmethanol", "NSC 525801", "Indinol", "1H-Indol-3-ylmethanol", "(1H-Indol-3-yl)methanol"], "SMILES": "C(O)C=1C=2C(NC1)=CC=CC2", "physical_data": {"Molecular Weight": "147.17", "Molecular Formula": "C9H9NO", "Melting Point": "90 \u00b0C"}}