{"cas_no": "70006-24-5", "cn_name": "2 - [(4-\u5421\u5576-2-\u57fa\u54cc\u55ea-1-\u57fa)\u7532\u57fa]-1H-\u82ef\u5e76\u54aa\u5511", "en_name": ["2-[[4-(2-Pyridinyl)-1-piperazinyl]methyl]-1H-benzimidazole", "1H-Benzimidazole, 2-[[4-(2-pyridinyl)-1-piperazinyl]methyl]-", "2-[[4-(2-Pyridinyl)-1-piperazinyl]methyl]-1H-benzimidazole", "2-[[4-(Pyridin-2-yl)piperazin-1-yl]methyl]-1H-benzimidazole", "ABT 724", "2-[[4-(Pyridin-2-yl)piperazin-1-yl]methyl]-1H-1,3-benzodiazole"], "SMILES": "C(C=1NC=2C(N1)=CC=CC2)N3CCN(CC3)C4=CC=CC=N4", "physical_data": {"Molecular Weight": "293.37", "Molecular Formula": "C17H19N5", "Melting Point": "220-221 \u00b0C"}}