{"cas_no": "70024-40-7", "cn_name": "\u76d0\u9178\u7279\u62c9\u5511\u55ea(\u4e8c\u6c34\u5408\u7269)", "en_name": ["Terazosin monohydrochloride dihydrate", "Methanone, [4-(4-amino-6,7-dimethoxy-2-quinazolinyl)-1-piperazinyl](tetrahydro-2-furanyl)-, hydrochloride, hydrate (1:1:2)", "Piperazine, 1-(4-amino-6,7-dimethoxy-2-quinazolinyl)-4-[(tetrahydro-2-furanyl)carbonyl]-, monohydrochloride, dihydrate", "Terazosin monohydrochloride dihydrate", "Terazosin hydrochloride dihydrate"], "SMILES": "NC=1C2=C(N=C(N1)N3CCN(C(=O)C4CCCO4)CC3)C=C(OC)C(OC)=C2.Cl.O", "physical_data": {"Molecular Weight": "", "Molecular Formula": "C19H25N5O4.ClH.2H2O", "Melting Point": "271-274 \u00b0C"}}