{"cas_no": "7003-80-7", "cn_name": "4-\u82ef\u80fa\u57fa\u4e09\u4e59\u6c27\u57fa\u7845\u70f7", "en_name": ["4-(Triethoxysilyl)benzenamine", "Benzenamine, 4-(triethoxysilyl)-", "Aniline, p-(triethoxysilyl)-", "4-(Triethoxysilyl)benzenamine", "(p-Aminophenyl)triethoxysilane", "4-(Triethoxysilyl)aniline", "(4-Aminophenyl)triethoxysilane", "p-(Triethoxysilyl)aniline"], "SMILES": "[Si](OCC)(OCC)(OCC)C1=CC=C(N)C=C1", "physical_data": {"Molecular Weight": "255.39", "Molecular Formula": "C12H21NO3Si", "Boiling Point": "145-150 \u00b0C @ Press: 14 Torr"}}