{"cas_no": "7003-32-9", "cn_name": "2-\u7532\u57fa\u73af\u5df1\u80fa", "en_name": ["2-Methylcyclohexylamine", "Cyclohexanamine, 2-methyl-", "Cyclohexylamine, 2-methyl-", "2-Methylcyclohexanamine", "o-Methylcyclohexylamine", "2-Methylcyclohexylamine", "NSC 27455", "1-Amino-2-methylcyclohexane", "2-Methylcyclohexan-1-amine"], "SMILES": "CC1C(N)CCCC1", "physical_data": {"Molecular Weight": "113.20", "Molecular Formula": "C7H15N", "Boiling Point": "150 \u00b0C", "Density": "0.8836 g/cm\u00b3"}}