{"cas_no": "7004-03-7", "cn_name": "\u7f2c\u6c28\u9178", "en_name": ["L-Valine", "L-Valine", "Valine, L-", "L-(+)-\u03b1-Aminoisovaleric acid", "Valine", "Butanoic acid, 2-amino-3-methyl-, (S)-", "(S)-2-Amino-3-methylbutyric acid", "2-Amino-3-methylbutanoic acid", "(S)-Valine", "(S)-2-Amino-3-methylbutanoic acid", "(S)-\u03b1-Amino-\u03b2-methylbutyric acid", "L-\u03b1-Amino-\u03b2-methylbutyric acid", "NSC 76038", "(2S)-2-Amino-3-methylbutanoic acid", "(+)-2-Amino-3-methylbutyric acid", "(2S)-2-Amino-3-methylbutanoic acid", "(2S)-2-Azaniumyl-3-methylbutanoate", "MeSH ID: D014633"], "SMILES": "C(C(C)C)(C(O)=O)N", "physical_data": {"Molecular Weight": "117.15", "Molecular Formula": "C5H11NO2", "Melting Point": "315 \u00b0C", "Density": "1.32 g/cm\u00b3"}}