{"cas_no": "70049-77-3", "cn_name": "4-\u6c2f-3-\u6c28\u78fa\u9170\u57fa\u82ef\u7532\u9170\u6c2f", "en_name": ["3-(Aminosulfonyl)-4-chlorobenzoyl chloride", "Benzoyl chloride, 3-(aminosulfonyl)-4-chloro-", "Benzoyl chloride, 4-chloro-3-sulfamoyl-", "3-(Aminosulfonyl)-4-chlorobenzoyl chloride", "4-Chloro-3-sulfamoylbenzoyl chloride"], "SMILES": "S(N)(=O)(=O)C1=CC(C(Cl)=O)=CC=C1Cl", "physical_data": {"Molecular Weight": "254.09", "Molecular Formula": "C7H5Cl2NO3S", "Melting Point": "158-160 \u00b0C"}}