{"cas_no": "70051-38-6", "cn_name": "4,10-\u9999\u6728\u5170\u70f7\u4e8c\u9187", "en_name": ["(1aR,4R,4aR,7S,7aS,7bR)-Decahydro-1,1,4,7-tetramethyl-1H-cycloprop[e]azulene-4,7-diol", "1H-Cycloprop[e]azulene-4,7-diol, decahydro-1,1,4,7-tetramethyl-, (1aR,4R,4aR,7S,7aS,7bR)-", "1H-Cycloprop[e]azulene-4,7-diol, decahydro-1,1,4,7-tetramethyl-, [1aR-(1a\u03b1,4\u03b1,4a\u03b1,7\u03b2,7a\u03b2,7b\u03b1)]-", "(1aR,4R,4aR,7S,7aS,7bR)-Decahydro-1,1,4,7-tetramethyl-1H-cycloprop[e]azulene-4,7-diol", "D-Aromadendrane-4\u03b2,10\u03b1-diol", "4\u03b2,10\u03b1-Dihydroxyaromadendrane", "(-)-4\u03b2,10\u03b1-Aromadendranediol", "Aromadendrane-4\u03b2,10\u03b1-diol", "(-)-4\u03b1,10\u03b2-Aromadendranediol", "4\u03b1,10\u03b2-Dihydroxyaromadendrane"], "SMILES": "CC1(C)C2C3C(C(C)(O)CCC21)CCC3(C)O", "physical_data": {"Molecular Weight": "238.37", "Molecular Formula": "C15H26O2", "Melting Point": "133-134 \u00b0C"}}