{"cas_no": "7005-47-2", "cn_name": "2-\u4e8c\u7532\u6c28\u57fa-2-\u7532\u57fa-1-\u4e19\u9187", "en_name": ["2-(Dimethylamino)-2-methyl-1-propanol", "1-Propanol, 2-(dimethylamino)-2-methyl-", "2-(Dimethylamino)-2-methyl-1-propanol", "2-(N,N-Dimethylamino)-2-methyl-1-propanol", "2-(Dimethylamino)-2-methylpropyl alcohol", "DMAMP", "N,N-Dimethyl-2-amino-2-methylpropan-1-ol", "DMAMP 80", "T-Amine WR 500", "NSC 17706"], "SMILES": "C(N(C)C)(CO)(C)C", "physical_data": {"Molecular Weight": "117.19", "Molecular Formula": "C6H15NO", "Boiling Point": "160 \u00b0C", "Melting Point": "19 \u00b0C", "Density": "0.9007 g/cm\u00b3 @ Temp: 27 \u00b0C"}}