{"cas_no": "7005-72-3", "cn_name": "4-\u6c2f\u4e8c\u82ef\u919a", "en_name": ["4-Chlorophenyl phenyl ether", "Benzene, 1-chloro-4-phenoxy-", "Ether, p-chlorophenyl phenyl", "1-Chloro-4-phenoxybenzene", "p-Chlorodiphenyl oxide", "p-Chlorophenyl phenyl ether", "4-Chlorophenyl phenyl ether", "4-Chlorodiphenyl ether", "NSC 61839", "PCDE 3", "p-Phenoxychlorobenzene", "CDE 3"], "SMILES": "O(C1=CC=C(Cl)C=C1)C2=CC=CC=C2", "physical_data": {"Molecular Weight": "204.65", "Molecular Formula": "C12H9ClO", "Boiling Point": "284.5 \u00b0C", "Melting Point": "-8 \u00b0C", "Density": "1.2026 g/cm\u00b3 @ Temp: 15 \u00b0C"}}