{"cas_no": "70060-13-8", "cn_name": "5-\u6c1f-1-\u82ef\u5e76\u567b\u5429-2-\u7fa7\u9178", "en_name": ["5-Fluorobenzo[b]thiophene-2-carboxylic acid", "Benzo[b]thiophene-2-carboxylic acid, 5-fluoro-", "5-Fluorobenzo[b]thiophene-2-carboxylic acid", "5-Fluorobenzothiophene-2-carboxylic acid", "5-Fluoro-1-benzothiophene-2-carboxylic acid"], "SMILES": "C(O)(=O)C=1SC=2C(C1)=CC(F)=CC2", "physical_data": {"Molecular Weight": "196.20", "Molecular Formula": "C9H5FO2S", "Melting Point": "229-230 \u00b0C (decomp)"}}