{"cas_no": "70069-04-4", "cn_name": "2-\u7f9f\u7532\u57fa-18-\u51a0-6", "en_name": ["Hydroxymethyl-18-crown-6", "1,4,7,10,13,16-Hexaoxacyclooctadecane-2-methanol", "2-Hydroxymethyl-18-crown-6", "18-Crown-6-methanol", "Hydroxymethyl-18-crown-6", "1,4,7,10,13,16-Hexaoxacyclooctadec-2-ylmethanol"], "SMILES": "C(O)C1COCCOCCOCCOCCOCCO1", "physical_data": {"Molecular Weight": "294.34", "Molecular Formula": "C13H26O7", "Boiling Point": "208 \u00b0C @ Press: 760 Torr"}}