{"cas_no": "700874-72-2", "cn_name": "LY 2157299", "en_name": ["Galunisertib", "6-Quinolinecarboxamide, 4-[5,6-dihydro-2-(6-methyl-2-pyridinyl)-4H-pyrrolo[1,2-b]pyrazol-3-yl]-", "4-[5,6-Dihydro-2-(6-methyl-2-pyridinyl)-4H-pyrrolo[1,2-b]pyrazol-3-yl]-6-quinolinecarboxamide", "LY 2157299", "Galunisertib"], "SMILES": "CC1=NC(C=2C(=C3N(N2)CCC3)C=4C5=C(C=CC(C(N)=O)=C5)N=CC4)=CC=C1", "physical_data": {"Molecular Weight": "369.42", "Molecular Formula": "C22H19N5O", "Melting Point": "137 \u00b0C"}}