{"cas_no": "70097-45-9", "cn_name": "7-\u6c2f\u82ef\u915e", "en_name": ["7-Chlorophthalide", "1(3H)-Isobenzofuranone, 7-chloro-", "Phthalide, 7-chloro-", "7-Chloro-1(3H)-isobenzofuranone", "7-Chlorophthalide", "NSC 171642"], "SMILES": "ClC1=C2C(=CC=C1)COC2=O", "physical_data": {"Molecular Weight": "168.58", "Molecular Formula": "C8H5ClO2", "Melting Point": "149 \u00b0C"}}