{"cas_no": "70097-64-2", "cn_name": "1-BENZYLOXY-3-TRIFLUOROMETHYLBENZENE", "en_name": ["1-(Phenylmethoxy)-3-(trifluoromethyl)benzene", "Benzene, 1-(phenylmethoxy)-3-(trifluoromethyl)-", "1-(Phenylmethoxy)-3-(trifluoromethyl)benzene", "1-Trifluoromethyl-3-(phenylmethoxy)benzene", "1-(Benzyloxy)-3-(trifluoromethyl)benzene", "1-Benzyloxy-3-trifluoromethylbenzene", "Benzyl 3-(trifluoromethyl)phenyl ether"], "SMILES": "O(CC1=CC=CC=C1)C2=CC(C(F)(F)F)=CC=C2", "physical_data": {"Molecular Weight": "252.23", "Molecular Formula": "C14H11F3O", "Melting Point": "62-64 \u00b0C"}}