{"cas_no": "701-44-0", "cn_name": "1-\u7532\u57fa-6-\u6c27\u4ee3\u5421\u5576-3-\u7532\u9170\u80fa", "en_name": ["N1-Methyl-2-pyridone-5-carboxamide", "3-Pyridinecarboxamide, 1,6-dihydro-1-methyl-6-oxo-", "Nicotinamide, 1,6-dihydro-1-methyl-6-oxo-", "Nudifloramide", "1,6-Dihydro-1-methyl-6-oxo-3-pyridinecarboxamide", "3-Carbamoyl-1-methyl-6-pyridone", "1,6-Dihydro-1-methyl-6-oxonicotinamide", "1-Methyl-3-carboxamide-6-pyridone", "1-Methyl-6-oxo-1,6-dihydronicotinamide", "N1-Methyl-2-pyridone-5-carboxamide", "N-Methyl-2-pyridone-5-carboxamide", "N-Methyl-2-pyridinone-5-carboxamide", "N1-Methyl-2-pyridone-5-carboxamide", "N-Methyl-5-carboxamide-2-pyridone", "5-Aminocarbonyl-1-methyl-2(1H)-pyridone", "1-Methyl-6-pyridone-3-carboxylamide", "N1-Methyl-2-pyridone-5-carboxyamide", "1-Methyl-6-oxopyridine-3-carboxamide", "1-Methyl-6-oxo-1,6-dihydropyridine-3-carboxamide"], "SMILES": "C(N)(=O)C1=CN(C)C(=O)C=C1", "physical_data": {"Molecular Weight": "152.15", "Molecular Formula": "C7H8N2O2", "Melting Point": "210-210.5 \u00b0C"}}