{"cas_no": "701-56-4", "cn_name": "(4-\u7532\u6c27\u57fa\u82ef\u57fa)-\u4e8c\u7532\u80fa", "en_name": ["4-Methoxy-N,N-dimethylbenzenamine", "Benzenamine, 4-methoxy-N,N-dimethyl-", "p-Anisidine, N,N-dimethyl-", "4-Methoxy-N,N-dimethylbenzenamine", "N,N-Dimethyl-p-anisidine", "p-(Dimethylamino)anisole", "p-Methoxy-N,N-dimethylaniline", "4-Methoxy-N,N-dimethylaniline", "N,N-Dimethyl-4-methoxyaniline", "4-(Dimethylamino)methoxybenzene", "N,N-Dimethyl-p-methoxyaniline", "4-(N,N\u2032-Dimethylamino)methoxybenzene", "4-Dimethylaminoanisole", "NSC 86670", "N,N-Dimethylanisidine"], "SMILES": "N(C)(C)C1=CC=C(OC)C=C1", "physical_data": {"Molecular Weight": "151.21", "Molecular Formula": "C9H13NO", "Boiling Point": "237 \u00b0C", "Melting Point": "48 \u00b0C"}}