{"cas_no": "701-97-3", "cn_name": "3-\u73af\u5df1\u57fa\u4e19\u9178", "en_name": ["Cyclohexanepropanoic acid", "Cyclohexanepropanoic acid", "Cyclohexanepropionic acid", "3-Cyclohexanepropionic acid", "3-Cyclohexylpropanoic acid", "3-Cyclohexylpropionic acid", "Cyclohexylpropionic acid", "NSC 404945", "3-Cyclohexanepropanoic acid"], "SMILES": "C(CC(O)=O)C1CCCCC1", "physical_data": {"Molecular Weight": "156.22", "Molecular Formula": "C9H16O2", "Boiling Point": "276.5 \u00b0C", "Melting Point": "16 \u00b0C", "Density": "0.9848 g/cm\u00b3 @ Temp: 38 \u00b0C"}}