{"cas_no": "701-34-8", "cn_name": "4-\u6eb4\u82ef\u78fa\u9170\u80fa", "en_name": ["4-Bromobenzenesulfonamide", "Benzenesulfonamide, 4-bromo-", "Benzenesulfonamide, p-bromo-", "4-Bromobenzenesulfonamide", "p-Bromobenzenesulfonamide", "(4-Bromophenyl)sulfonamide", "4-Aminosulfonyl-1-bromobenzene", "NSC 31049"], "SMILES": "S(N)(=O)(=O)C1=CC=C(Br)C=C1", "physical_data": {"Molecular Weight": "236.09", "Molecular Formula": "C6H6BrNO2S", "Melting Point": "166.5 \u00b0C"}}