{"cas_no": "701-45-1", "cn_name": "3-\u6eb4-4-\u6c1f\u785d\u57fa\u82ef", "en_name": ["2-Bromo-1-fluoro-4-nitrobenzene", "Benzene, 2-bromo-1-fluoro-4-nitro-", "2-Bromo-1-fluoro-4-nitrobenzene", "3-Bromo-4-fluoronitrobenzene", "3-Bromo-4-fluoro-1-nitrobenzene", "1-Bromo-2-fluoro-5-nitrobenzene", "4-Fluoro-3-bromonitrobenzene"], "SMILES": "N(=O)(=O)C1=CC(Br)=C(F)C=C1", "physical_data": {"Molecular Weight": "220.00", "Molecular Formula": "C6H3BrFNO2", "Melting Point": "60-62 \u00b0C"}}