{"cas_no": "701-54-2", "cn_name": "4-(\u6c28\u57fa\u7532\u57fa)\u73af\u5df1\u70f7\u7fa7\u9178", "en_name": ["4-(Aminomethyl)cyclohexanecarboxylic acid", "Cyclohexanecarboxylic acid, 4-(aminomethyl)-", "4-(Aminomethyl)cyclohexanecarboxylic acid", "AMCA", "4-(Aminomethyl)-1-cyclohexanecarboxylic acid", "1-(Aminomethyl)cyclohexane-4-carboxylic acid", "p-(Aminomethyl)cyclohexanecarboxylic acid"], "SMILES": "C(O)(=O)C1CCC(CN)CC1", "physical_data": {"Molecular Weight": "157.21", "Molecular Formula": "C8H15NO2", "Melting Point": "237-240 \u00b0C"}}