{"cas_no": "701-35-9", "cn_name": "\u5bf9\u7532\u82ef\u4e09\u6c2f\u7845\u70f7", "en_name": ["1-Methyl-4-(trichlorosilyl)benzene", "Benzene, 1-methyl-4-(trichlorosilyl)-", "Silane, trichloro-p-tolyl-", "Silane, trichloro(4-methylphenyl)-", "1-Methyl-4-(trichlorosilyl)benzene", "p-Tolyltrichlorosilane", "p-Tolylsilyl trichloride", "Trichloro-p-tolylsilane", "Trichloro(4-methylphenyl)silane", "p-Methylphenyltrichlorosilane"], "SMILES": "[Si](Cl)(Cl)(Cl)C1=CC=C(C)C=C1", "physical_data": {"Molecular Weight": "225.57", "Molecular Formula": "C7H7Cl3Si", "Boiling Point": "218-220 \u00b0C", "Density": "1.280 g/cm\u00b3"}}