{"cas_no": "701-70-2", "cn_name": "\u4e59\u57fa\u82ef\u4e59\u9187", "en_name": ["1-Phenyl-2-butanol", "Benzeneethanol, \u03b1-ethyl-", "Phenethyl alcohol, \u03b1-ethyl-", "\u03b1-Ethylbenzeneethanol", "Benzyl ethyl carbinol", "2-Butanol, 1-phenyl-", "1-Phenyl-2-butanol", "(\u00b1)-1-Phenyl-2-butanol", "NSC 11004", "NSC 406921"], "SMILES": "C(C(CC)O)C1=CC=CC=C1", "physical_data": {"Molecular Weight": "150.22", "Molecular Formula": "C10H14O", "Boiling Point": "215 \u00b0C", "Density": "0.989 g/cm\u00b3 @ Temp: 16 \u00b0C"}}