{"cas_no": "701-82-6", "cn_name": "3-\u7f9f\u57fa\u82ef\u57fa\u8132", "en_name": ["N-(3-Hydroxyphenyl)urea", "Urea, N-(3-hydroxyphenyl)-", "Urea, (m-hydroxyphenyl)-", "Urea, (3-hydroxyphenyl)-", "N-(3-Hydroxyphenyl)urea", "(3-Hydroxyphenyl)urea", "m-Hydroxyphenylurea", "3-Ureidophenol", "1-(3-Hydroxyphenyl)urea", "NSC 14672", "NSC 60733"], "SMILES": "N(C(N)=O)C1=CC(O)=CC=C1", "physical_data": {"Molecular Weight": "152.15", "Molecular Formula": "C7H8N2O2", "Melting Point": "175-177 \u00b0C"}}