{"cas_no": "701-83-7", "cn_name": "\u4e59\u91783-\u6c1f\u82ef\u57fa", "en_name": ["Phenol, 3-fluoro-, 1-acetate", "Phenol, 3-fluoro-, 1-acetate", "Phenol, m-fluoro-, acetate", "Phenol, 3-fluoro-, acetate", "3-Fluorophenyl acetate", "Acetic acid 3-fluorophenyl ester", "m-Fluorophenyl acetate", "m-Fluorophenyl acetate", "1-Acetoxy-3-fluorobenzene"], "SMILES": "O(C(C)=O)C1=CC(F)=CC=C1", "physical_data": {"Molecular Weight": "154.14", "Molecular Formula": "C8H7FO2", "Boiling Point": "77-78 \u00b0C @ Press: 13 Torr"}}