{"cas_no": "701-07-5", "cn_name": "2-2'-\u6eb4\u82ef\u6c27\u4e19\u70f7", "en_name": ["1-Bromo-2-(1-methylethoxy)benzene", "Benzene, 1-bromo-2-(1-methylethoxy)-", "Ether, o-bromophenyl isopropyl", "1-Bromo-2-(1-methylethoxy)benzene", "2-Isopropoxyphenyl bromide", "o-Isopropoxyphenyl bromide", "2-Bromo-1-isopropoxybenzene", "1-Bromo-2-isopropoxybenzene", "1-Bromo-2-propan-2-yloxybenzene", "1-Bromo-2-(propan-2-yloxy)benzene", "2-(2\u2032-Bromophenoxy)propane"], "SMILES": "O(C(C)C)C1=C(Br)C=CC=C1", "physical_data": {"Molecular Weight": "215.09", "Molecular Formula": "C9H11BrO", "Boiling Point": "73 \u00b0C @ Press: 2 Torr", "Density": "1.322 g/cm\u00b3 @ Temp: 20 \u00b0C"}}