{"cas_no": "701-64-4", "cn_name": "\u78f7\u9178\u5355\u82ef\u916f", "en_name": ["Phenyl phosphate", "Phosphoric acid, monophenyl ester", "Phenyl phosphate", "Phenyl phosphate ((PhO)(HO)2PO)", "Monophenyl phosphate", "Phenyl dihydrogen phosphate", "Dihydrogen phenyl phosphate", "Phenyl acid phosphate", "PA 75", "Nacure XP 333"], "SMILES": "O(P(=O)(O)O)C1=CC=CC=C1", "physical_data": {"Molecular Weight": "174.09", "Molecular Formula": "C6H7O4P", "Melting Point": "99.5 \u00b0C"}}