{"cas_no": "701-99-5", "cn_name": "\u82ef\u6c27\u4e59\u9170\u6c2f", "en_name": ["2-Phenoxyacetyl chloride", "Acetyl chloride, 2-phenoxy-", "Acetyl chloride, phenoxy-", "2-Phenoxyacetyl chloride", "Phenoxyacetyl chloride", "Phenyloxyacetyl chloride", "Phenoxyethanoyl chloride", "Phenoxyacetic acid chloride", "NSC 9808"], "SMILES": "O(CC(Cl)=O)C1=CC=CC=C1", "physical_data": {"Molecular Weight": "170.59", "Molecular Formula": "C8H7ClO2", "Boiling Point": "95 \u00b0C @ Press: 16 Torr", "Melting Point": "100-100.5 \u00b0C"}}