{"cas_no": "70110-60-0", "cn_name": "5-\u4e8c\u5341\u4e09\u70f7\u57fa\u95f4\u82ef\u4e8c\u915a", "en_name": ["5-n-Tricosylresorcinol", "1,3-Benzenediol, 5-tricosyl-", "5-Tricosyl-1,3-benzenediol", "5-Tricosylresorcinol", "5-n-Tricosylresorcinol", "1,3-Dihydroxy-5-tricosylbenzene"], "SMILES": "C(CCCCCCCCCCCCCCCCCCCCCC)C1=CC(O)=CC(O)=C1", "physical_data": {"Molecular Weight": "432.72", "Molecular Formula": "C29H52O2", "Melting Point": "100 \u00b0C"}}