{"cas_no": "7011-83-8", "cn_name": "\u4e8c\u6c22\u8309\u8389\u5185\u916f", "en_name": ["5-Hexyldihydro-5-methyl-2(3H)-furanone", "2(3H)-Furanone, 5-hexyldihydro-5-methyl-", "Decanoic acid, 4-hydroxy-4-methyl-, \u03b3-lactone", "Capric acid, \u03b3-hydroxy-\u03b3-methyl-, lactone", "5-Hexyldihydro-5-methyl-2(3H)-furanone", "4-Methyldecanolide", "\u03b3-Methyl-\u03b3-decalactone", "\u03b3-Methyl-\u03b3-decanolactone", "4-Methyl-4-decanolide", "NSC 141822", "Lactojamon", "Lactojasmone", "5-Hexyl-5-methyldihydrofuran-2(3H)-one"], "SMILES": "C(CCCCC)C1(C)OC(=O)CC1", "physical_data": {"Molecular Weight": "184.28", "Molecular Formula": "C11H20O2", "Boiling Point": "120-125 \u00b0C @ Press: 4-5 Torr", "Density": "0.950 g/cm\u00b3 @ Temp: 20 \u00b0C"}}