{"cas_no": "70110-59-7", "cn_name": "5-\u4e8c\u5341\u4e00\u70f7\u57fa\u95f4\u82ef\u4e8c\u915a", "en_name": ["5-n-Heneicosylresorcinol", "1,3-Benzenediol, 5-heneicosyl-", "Resorcinol, 5-heneicosyl-", "5-Heneicosyl-1,3-benzenediol", "5-Heneicosylresorcinol", "5-n-Heneicosylresorcinol", "1,3-Dihydroxy-5-n-heneicosylbenzene", "1,3-Dihydroxy-5-heneicosylbenzene"], "SMILES": "C(CCCCCCCCCCCCCCCCCCCC)C1=CC(O)=CC(O)=C1", "physical_data": {"Molecular Weight": "404.67", "Molecular Formula": "C27H48O2", "Melting Point": "99 \u00b0C"}}