{"cas_no": "701232-20-4", "cn_name": "\u53cd\u5f0f-4-[4-(4-\u6c28\u57fa-7,7-\u4e8c\u7532\u57fa-7H-\u5627\u5576\u5e76[4,5-B][1,4]\u5641\u5511-6-\u57fa)\u82ef\u57fa]-\u73af\u5df1\u57fa\u4e59\u9170\u80fa", "en_name": ["trans-4-[4-(4-Amino-7,7-dimethyl-7H-pyrimido[4,5-b][1,4]oxazin-6-yl)phenyl]cyclohexaneacetic acid", "Cyclohexaneacetic acid, 4-[4-(4-amino-7,7-dimethyl-7H-pyrimido[4,5-b][1,4]oxazin-6-yl)phenyl]-, trans-", "trans-4-[4-(4-Amino-7,7-dimethyl-7H-pyrimido[4,5-b][1,4]oxazin-6-yl)phenyl]cyclohexaneacetic acid", "T 863"], "SMILES": "CC1(C)C(=NC=2C(O1)=NC=NC2N)C3=CC=C(C=C3)C4CCC(CC(O)=O)CC4", "physical_data": {"Molecular Weight": "394.47", "Molecular Formula": "C22H26N4O3", "Melting Point": "&gt;270 \u00b0C"}}