{"cas_no": "70124-77-5", "cn_name": "\u6c1f\u6c30\u620a\u83ca\u916f", "en_name": ["Flucythrinate", "Benzeneacetic acid, 4-(difluoromethoxy)-\u03b1-(1-methylethyl)-, cyano(3-phenoxyphenyl)methyl ester", "AC 222705", "CyBolt", "Pay-Off", "Flucythrinate", "Fluorocythrin", "\u03b1-Cyano-3-phenoxybenzyl 2-[p-(difluoromethoxy)phenyl]isovalerate", "Flucythrinate I", "Flucythrinate II"], "SMILES": "C(C(OC(C#N)C1=CC(OC2=CC=CC=C2)=CC=C1)=O)(C(C)C)C3=CC=C(OC(F)F)C=C3", "physical_data": {"Molecular Weight": "451.46", "Molecular Formula": "C26H23F2NO4", "Boiling Point": "108 \u00b0C @ Press: 0.35 Torr", "Melting Point": "&lt;25 \u00b0C", "Density": "1.189 g/cm\u00b3 @ Temp: 22 \u00b0C"}}