{"cas_no": "7012-37-5", "cn_name": "2,4,4\u2032-\u4e09\u6c2f\u8054\u82ef", "en_name": ["2,4,4\u2032-Trichlorobiphenyl", "1,1\u2032-Biphenyl, 2,4,4\u2032-trichloro-", "Biphenyl, 2,4,4\u2032-trichloro-", "2,4,4\u2032-Trichloro-1,1\u2032-biphenyl", "2,4,4\u2032-Trichlorobiphenyl", "4,2\u2032,4\u2032-Trichloro-1,1\u2032-biphenyl", "2\u2032,4,4\u2032-Trichlorobiphenyl", "PCB 28", "4,2\u2032,4\u2032-Trichlorobiphenyl", "K 28", "CB 28", "2,4,4\u2032-PCB", "2,4-Dichloro-1-(4-chlorophenyl)benzene"], "SMILES": "ClC1=C(C2=CC=C(Cl)C=C2)C=CC(Cl)=C1", "physical_data": {"Molecular Weight": "257.54", "Molecular Formula": "C12H7Cl3", "Melting Point": "56 \u00b0C"}}