{"cas_no": "7013-16-3", "cn_name": "\u963f\u7cd6\u808c\u82f7", "en_name": ["9-\u03b2-D-Arabinofuranosyl-1,9-dihydro-6H-purin-6-one", "6H-Purin-6-one, 9-\u03b2-D-arabinofuranosyl-1,9-dihydro-", "Hypoxanthine, 9-\u03b2-D-arabinofuranosyl-", "9-\u03b2-D-Arabinofuranosyl-1,9-dihydro-6H-purin-6-one", "9-\u03b2-D-Arabinofuranosylhypoxanthine", "Hypoxanthine arabinoside", "Arabinosylhypoxanthine", "Arainosine", "NSC 405122", "Ara-H"], "SMILES": "OC1C(N2C3=C(N=C2)C(=O)N=CN3)OC(CO)C1O", "physical_data": {"Molecular Weight": "268.23", "Molecular Formula": "C10H12N4O5", "Melting Point": "259-260 \u00b0C"}}