{"cas_no": "70155-90-7", "cn_name": "N,N-\u4e8c\u4e59\u57fa\u4e19\u7094\u80fa\u4e19\u70f7\u78fa\u9178\u5185\u76d0", "en_name": ["2-Propyn-1-aminium, N,N-diethyl-N-(3-sulfopropyl)-, inner salt", "2-Propyn-1-aminium, N,N-diethyl-N-(3-sulfopropyl)-, inner salt"], "SMILES": "[N+](CCCS(=O)(=O)[O-])(CC#C)(CC)CC", "physical_data": {"Molecular Weight": "", "Molecular Formula": "C10H19NO3S", "Melting Point": "230-235 \u00b0C (decomp)"}}