{"cas_no": "701977-09-5", "cn_name": "N-[(1S,2S)-3-(4-\u6c2f\u82ef\u57fa)-2-(3-\u6c30\u57fa\u82ef\u57fa)-1-\u7532\u57fa\u4e19\u57fa]-2-\u7532\u57fa-2-[(5-(\u4e09\u6c1f\u7532\u57fa)\u5421\u5576-2-\u57fa)\u6c27\u57fa]\u4e19\u9170\u80fa", "en_name": ["Taranabant", "Propanamide, N-[(1S,2S)-3-(4-chlorophenyl)-2-(3-cyanophenyl)-1-methylpropyl]-2-methyl-2-[[5-(trifluoromethyl)-2-pyridinyl]oxy]-", "N-[(1S,2S)-3-(4-Chlorophenyl)-2-(3-cyanophenyl)-1-methylpropyl]-2-methyl-2-[[5-(trifluoromethyl)-2-pyridinyl]oxy]propanamide", "N-[(1S,2S)-3-(4-Chlorophenyl)-2-(3-cyanophenyl)-1-methylpropyl]-2-methyl-2-[(5-(trifluoromethyl)pyridin-2-yl)oxy]propanamide", "N-[(1S,2S)-3-(4-Chlorophenyl)-2-(3-cyanophenyl)-1-methylpropyl]-2-methyl-2-[[5-(trifluoromethyl)pyridin-2-yl]oxy]propanamide", "Taranabant", "MK 0364"], "SMILES": "C(CC1=CC=C(Cl)C=C1)(C(NC(C(OC2=CC=C(C(F)(F)F)C=N2)(C)C)=O)C)C3=CC(C#N)=CC=C3", "physical_data": {"Molecular Weight": "515.95", "Molecular Formula": "C27H25ClF3N3O2", "Melting Point": "106.0-106.3 \u00b0C"}}