{"cas_no": "702-62-5", "cn_name": "1,3-\u4e8c\u6c2e\u6742\u87ba[4,5]\u7678\u70f7-2,4-\u4e8c\u916e", "en_name": ["1,3-Diazaspiro[4.5]decane-2,4-dione", "1,3-Diazaspiro[4.5]decane-2,4-dione", "5,5-Pentamethylenehydantoin", "Spiro[cyclohexane-1,5\u2032-hydantoin]", "Ba 2840", "5,5-Pentamethylenespirohydantoin", "5,5\u2032-Cyclohexanespirohydantoin", "NSC 16617", "NSC 172110"], "SMILES": "O=C1C2(NC(=O)N1)CCCCC2", "physical_data": {"Molecular Weight": "168.19", "Molecular Formula": "C8H12N2O2", "Melting Point": "215 \u00b0C"}}