{"cas_no": "702-82-9", "cn_name": "3-\u80fa\u57fa-1-\u91d1\u521a\u70f7\u9187", "en_name": ["3-Amino-1-adamantanol", "Tricyclo[3.3.1.13,7]decan-1-ol, 3-amino-", "1-Adamantanol, 3-amino-", "3-Aminotricyclo[3.3.1.13,7]decan-1-ol", "1-Amino-3-hydroxyadamantane", "3-Amino-1-adamantanol", "1-Amino-3-adamantanol", "(3-Hydroxyadamantan-1-yl)amine", "3-Amino-1-hydroxyadamantane"], "SMILES": "NC12CC3(O)CC(C1)CC(C2)C3", "physical_data": {"Molecular Weight": "167.25", "Molecular Formula": "C10H17NO", "Melting Point": "267 \u00b0C"}}