{"cas_no": "702-96-5", "cn_name": "2,2,5,5-\u56db\u7532\u57fa-3-\u5421\u54af\u70f7\u7fa7\u9170\u80fa", "en_name": ["2,2,5,5-Tetramethyl-3-pyrrolidinecarboxamide", "3-Pyrrolidinecarboxamide, 2,2,5,5-tetramethyl-", "2,2,5,5-Tetramethyl-3-pyrrolidinecarboxamide", "3-Aminocarbonyl-2,2,5,5-tetramethylpyrrolidine", "3-Carbamoyl-2,2,5,5-tetramethylpyrrolidine", "2,2,5,5-Tetramethylpyrrolidine-3-carboxamide", "2,2,5,5-Tetramethyl-pyrrolidine-3-carboxylic acid amide"], "SMILES": "C(N)(=O)C1C(C)(C)NC(C)(C)C1", "physical_data": {"Molecular Weight": "170.25", "Molecular Formula": "C9H18N2O", "Melting Point": "126-129 \u00b0C"}}