{"cas_no": "702-98-7", "cn_name": "2-\u7532\u57fa-2-\u91d1\u521a\u70f7\u9187", "en_name": ["2-Methyl-2-adamantanol", "Tricyclo[3.3.1.13,7]decan-2-ol, 2-methyl-", "2-Adamantanol, 2-methyl-", "2-Methyltricyclo[3.3.1.13,7]decan-2-ol", "2-Methyl-2-adamantanol", "2-Hydroxy-2-methyladamantane", "NSC 193482"], "SMILES": "CC1(O)C2CC3CC1CC(C2)C3", "physical_data": {"Molecular Weight": "166.26", "Molecular Formula": "C11H18O", "Melting Point": "214.7-216.5 \u00b0C"}}