{"cas_no": "702-24-9", "cn_name": "N-(4-\u7532\u6c27\u57fa\u82c4\u57fa)-N-\u7532\u80fa", "en_name": ["N-Methyl-4-methoxybenzylamine", "Benzenemethanamine, 4-methoxy-N-methyl-", "Benzylamine, p-methoxy-N-methyl-", "4-Methoxy-N-methylbenzenemethanamine", "N-Benzyl-N-methyl-p-anisidine", "p-Methoxy-N-methylbenzylamine", "N-Methyl-4-methoxybenzylamine", "(p-Methoxybenzyl)methylamine", "N-Methyl-p-methoxybenzylamine", "(4-Methoxyphenyl)-N-methylmethanamine", "N-(4-Methoxybenzyl)-N-methylamine", "4-Methoxybenzyl-N-methylamine", "1-(4-Methoxyphenyl)-N-methylmethanamine", "4-Methoxy-N-methylbenzylamine", "[(4-Methoxyphenyl)methyl](methyl)amine", "N-[(4-Methoxyphenyl)methyl]methylamine", "(4-Methoxybenzyl)methylamine"], "SMILES": "C(NC)C1=CC=C(OC)C=C1", "physical_data": {"Molecular Weight": "151.21", "Molecular Formula": "C9H13NO", "Boiling Point": "121 \u00b0C @ Press: 14 Torr", "Melting Point": "238 \u00b0C", "Density": "1.025 g/cm\u00b3 @ Temp: 0 \u00b0C"}}