{"cas_no": "702-03-4", "cn_name": "3-(\u73af\u5df1\u6c28\u57fa)\u4e19\u8148", "en_name": ["3-(Cyclohexylamino)propanenitrile", "Propanenitrile, 3-(cyclohexylamino)-", "Propionitrile, 3-(cyclohexylamino)-", "3-(Cyclohexylamino)propanenitrile", "N-(2-Cyanoethyl)cyclohexylamine", "3-(Cyclohexylamino)propionitrile", "N-(2-Cyanoethyl)-N-cyclohexylamine"], "SMILES": "N(CCC#N)C1CCCCC1", "physical_data": {"Molecular Weight": "152.24", "Molecular Formula": "C9H16N2", "Boiling Point": "149-151 \u00b0C @ Press: 11 Torr"}}