{"cas_no": "702-23-8", "cn_name": "\u5bf9\u7532\u6c27\u57fa\u82ef\u4e59\u9187", "en_name": ["2-(4-Methoxyphenyl)ethanol", "Benzeneethanol, 4-methoxy-", "Phenethyl alcohol, p-methoxy-", "4-Methoxybenzeneethanol", "p-Methoxyphenethyl alcohol", "\u03b2-(p-Methoxyphenyl)ethanol", "2-(p-Methoxyphenyl)ethanol", "2-(p-Anisyl)ethanol", "2-(4-Methoxyphenyl)ethanol", "4-Methoxyphenethyl alcohol", "p-(Methoxyphenyl)ethyl alcohol", "2-(4-Methoxyphenyl)-1-ethanol", "1-Methoxy-4-(2-hydroxyethyl)benzene", "NSC 408325", "4-Methoxyphenethanol"], "SMILES": "C(CO)C1=CC=C(OC)C=C1", "physical_data": {"Molecular Weight": "152.19", "Molecular Formula": "C9H12O2", "Boiling Point": "121 \u00b0C @ Press: 5 Torr", "Melting Point": "28 \u00b0C"}}