{"cas_no": "702-79-4", "cn_name": "1,3-\u4e8c\u7532\u57fa\u91d1\u521a\u70f7", "en_name": ["1,3-Dimethyladamantane", "Tricyclo[3.3.1.13,7]decane, 1,3-dimethyl-", "Adamantane, 1,3-dimethyl-", "1,3-Dimethyltricyclo[3.3.1.13,7]decane", "1,3-Dimethyladamantane", "3,5-Dimethyladamantane"], "SMILES": "CC12CC3(C)CC(C1)CC(C2)C3", "physical_data": {"Molecular Weight": "164.29", "Molecular Formula": "C12H20", "Boiling Point": "203-213 \u00b0C @ Press: 746 Torr"}}