{"cas_no": "7021-09-2", "cn_name": "DL-alpha-\u7532\u6c27\u57fa\u82ef\u4e59\u9178", "en_name": ["Methoxyphenylacetic acid", "Benzeneacetic acid, \u03b1-methoxy-", "Acetic acid, methoxyphenyl-, (\u00b1)-", "Benzeneacetic acid, \u03b1-methoxy-, (\u00b1)-", "\u03b1-Methoxybenzeneacetic acid", "DL-Methoxyphenylacetic acid", "(\u00b1)-\u03b1-Methoxyphenylacetic acid", "DL-\u03b1-Methoxyphenylacetic acid", "Methoxyphenylacetic acid", "MOPA", "\u03b1-Methoxyphenylacetic acid", "2-Methoxy-2-phenylacetic acid", "(\u00b1)-2-Methoxy-2-phenylacetic acid", "(RS)-\u03b1-Methoxyphenylacetic acid", "NSC 5665", "(RS)-2-Methoxy-2-phenylacetic acid"], "SMILES": "C(C(O)=O)(OC)C1=CC=CC=C1", "physical_data": {"Molecular Weight": "166.17", "Molecular Formula": "C9H10O3", "Melting Point": "70-71 \u00b0C"}}