{"cas_no": "7021-11-6", "cn_name": "4-(4-\u7f9f\u57fa\u82ef\u57fa)\u4e01\u9178", "en_name": ["4-Hydroxybenzenebutanoic acid", "Benzenebutanoic acid, 4-hydroxy-", "Butyric acid, 4-(p-hydroxyphenyl)-", "4-Hydroxybenzenebutanoic acid", "4-Carboxypropylphenol", "NSC 131303"], "SMILES": "C(CCC(O)=O)C1=CC=C(O)C=C1", "physical_data": {"Molecular Weight": "180.20", "Molecular Formula": "C10H12O3", "Boiling Point": "128-200 \u00b0C @ Press: 0.4 Torr", "Melting Point": "110-111 \u00b0C"}}