{"cas_no": "7025-19-6", "cn_name": "\u7ed5\u4e39\u5b81-3-\u4e19\u9178", "en_name": ["3-(4-Oxo-2-thioxothiazolidin-3-yl)propanoic acid", "3-Thiazolidinepropanoic acid, 4-oxo-2-thioxo-", "3-Thiazolidinepropionic acid, 4-oxo-2-thioxo-", "4-Oxo-2-thioxo-3-thiazolidinepropanoic acid", "3-(\u03b2-Carboxyethyl)rhodanine", "N-(2-Carboxyethyl)rhodanine", "NSC 97091", "3-(4-Oxo-2-thioxothiazolidin-3-yl)propanoic acid"], "SMILES": "C(CC(O)=O)N1C(=O)CSC1=S", "physical_data": {"Molecular Weight": "205.25", "Molecular Formula": "C6H7NO3S2", "Melting Point": "159 \u00b0C"}}