{"cas_no": "70258-18-3", "cn_name": "2-\u6c2f-5-\u6c2f\u7532\u57fa\u5421\u5576", "en_name": ["2-Chloro-5-(chloromethyl)pyridine", "Pyridine, 2-chloro-5-(chloromethyl)-", "2-Chloro-5-(chloromethyl)pyridine", "3-(Chloromethyl)-6-chloropyridine", "5-(Chloromethyl)-2-chloropyridine", "2-Chloropyridin-5-ylmethyl chloride", "6-Chloro-3-(chloromethyl)pyridine", "2-Chloro-5-pyridylmethyl chloride", "(6-Chloro-3-pyridyl)methyl chloride"], "SMILES": "C(Cl)C=1C=CC(Cl)=NC1", "physical_data": {"Molecular Weight": "162.02", "Molecular Formula": "C6H5Cl2N", "Boiling Point": "50 \u00b0C @ Press: 0.5 Torr", "Melting Point": "96-98 \u00b0C"}}