{"cas_no": "70264-94-7", "cn_name": "3-\u7532\u6c27\u57fa-4-\u6eb4\u7532\u57fa\u82ef\u7532\u9178\u7532\u916f", "en_name": ["Methyl 4-(bromomethyl)-3-methoxybenzoate", "Benzoic acid, 4-(bromomethyl)-3-methoxy-, methyl ester", "Methyl 4-(bromomethyl)-3-methoxybenzoate", "4-(Bromomethyl)-3-methoxybenzoic acid methyl ester", "3-Methoxy-4-(bromomethyl)benzoic acid methyl ester", "Methyl 4-(bromomethyl)-3-(methyloxy)benzoate", "Methyl 4-(2-bromoethyl)-3-methoxybenzoate"], "SMILES": "O(C)C1=C(CBr)C=CC(C(OC)=O)=C1", "physical_data": {"Molecular Weight": "259.10", "Molecular Formula": "C10H11BrO3", "Melting Point": "87-89 \u00b0C"}}