{"cas_no": "70260-17-2", "cn_name": "(3-\u6eb4-2-\u567b\u5429\u57fa)\u7532\u9187", "en_name": ["3-Bromo-2-thiophenemethanol", "2-Thiophenemethanol, 3-bromo-", "3-Bromo-2-thiophenemethanol", "3-Bromo-2-(hydroxymethyl)thiophene", "(3-Bromothiophen-2-yl)methanol"], "SMILES": "C(O)C1=C(Br)C=CS1", "physical_data": {"Molecular Weight": "193.06", "Molecular Formula": "C5H5BrOS", "Boiling Point": "147-148 \u00b0C @ Press: 20 Torr"}}