{"cas_no": "70298-89-4", "cn_name": "2\uff0c2-\u4e8c\u7532\u57fa-N-\uff084-\u5421\u5576\u57fa\uff09\u4e19\u9170\u80fa", "en_name": ["N-(Pyridin-4-yl)pivalamide", "Propanamide, 2,2-dimethyl-N-4-pyridinyl-", "2,2-Dimethyl-N-4-pyridinylpropanamide", "4-(tert-Butylcarbonylamino)pyridine", "2,2-Dimethyl-N-(4-pyridinyl)propanamide", "NSC 206407", "4-(Pivaloylamino)pyridine", "N-(Pyridin-4-yl)pivalamide"], "SMILES": "N(C(C(C)(C)C)=O)C=1C=CN=CC1", "physical_data": {"Molecular Weight": "178.23", "Molecular Formula": "C10H14N2O", "Melting Point": "133-135 \u00b0C"}}