{"cas_no": "703-33-3", "cn_name": "5,8-\u4e8c\u6c2f\u5421\u5576\u5e76[3,2-D]\u54d2\u55ea", "en_name": ["5,8-Dichloropyrido[2,3-d]pyridazine", "Pyrido[2,3-d]pyridazine, 5,8-dichloro-", "5,8-Dichloropyrido[2,3-d]pyridazine", "1,4-Dichloro-5-azaphthalazine", "NSC 131225", "5,8-Dichloropyrido[3,2-d]pyridazine"], "SMILES": "ClC=1C2=C(C(Cl)=NN1)N=CC=C2", "physical_data": {"Molecular Weight": "200.02", "Molecular Formula": "C7H3Cl2N3", "Melting Point": "169 \u00b0C"}}