{"cas_no": "703-12-8", "cn_name": "N-\u7532\u57fa-4-\u6eb4\u82ef\u78fa\u9170\u80fa", "en_name": ["4-Bromo-N-methylbenzenesulfonamide", "Benzenesulfonamide, 4-bromo-N-methyl-", "Benzenesulfonamide, p-bromo-N-methyl-", "4-Bromo-N-methylbenzenesulfonamide", "N-Methyl-p-bromobenzenesulfonamide", "p-Bromo-N-methylbenzenesulfonamide", "NSC 400647", "N-Methyl-4-bromobenzenesulfonamide", "1-Bromo-4-(methylsulfamoyl)benzene"], "SMILES": "S(NC)(=O)(=O)C1=CC=C(Br)C=C1", "physical_data": {"Molecular Weight": "250.11", "Molecular Formula": "C7H8BrNO2S", "Melting Point": "76-77 \u00b0C"}}