{"cas_no": "703-59-3", "cn_name": "\u9ad8\u90bb\u82ef\u4e8c\u7532\u9178\u9150", "en_name": ["Homophthalic anhydride", "1H-2-Benzopyran-1,3(4H)-dione", "o-Toluic acid, \u03b1-carboxy-, cyclic anhydride", "1,3-Isochromandione", "Benzeneacetic acid, 2-carboxy-, cyclic anhydride", "Homophthalic acid anhydride", "Homophthalic anhydride", "NSC 2825", "NSC 401693", "1H-Isochromene-1,3(4H)-dione", "Homophtalic anhydride", "3,4-Dihydro-1H-2-benzopyran-1,3-dione", "Isochromene-1,3-dione"], "SMILES": "O=C1C=2C(CC(=O)O1)=CC=CC2", "physical_data": {"Molecular Weight": "162.14", "Molecular Formula": "C9H6O3", "Boiling Point": "100-134 \u00b0C @ Press: 0.25 Torr", "Melting Point": "189 \u00b0C"}}