{"cas_no": "703-80-0", "cn_name": "3-\u4e59\u9170\u5432\u54da", "en_name": ["3-Acetylindole", "Ethanone, 1-(1H-indol-3-yl)-", "Ketone, indol-3-yl methyl", "1-(1H-Indol-3-yl)ethanone", "3-Acetylindole", "3-Acetyl-1H-indole", "3-Indolyl methyl ketone", "NSC 47180", "NSC 58084", "1-(1H-Indol-3-yl)ethan-1-one"], "SMILES": "C(C)(=O)C=1C=2C(NC1)=CC=CC2", "physical_data": {"Molecular Weight": "159.18", "Molecular Formula": "C10H9NO", "Melting Point": "192.3 \u00b0C"}}