{"cas_no": "703-95-7", "cn_name": "5-\u6c1f\u4e73\u6e05\u9178", "en_name": ["Fluoroorotic acid", "4-Pyrimidinecarboxylic acid, 5-fluoro-1,2,3,6-tetrahydro-2,6-dioxo-", "Orotic acid, 5-fluoro-", "5-Fluoro-1,2,3,6-tetrahydro-2,6-dioxo-4-pyrimidinecarboxylic acid", "5-Fluoroorotic acid", "Fluoroorotic acid", "ENT 26398", "NSC 31712", "WR 152520", "5-Fluoroorotate", "NSC 143130", "5-Fluoro-2,6-dihydroxypyrimidine-4-carboxylic acid"], "SMILES": "C(O)(=O)C1=C(F)C(=O)NC(=O)N1", "physical_data": {"Molecular Weight": "174.09", "Molecular Formula": "C5H3FN2O4", "Melting Point": "255 \u00b0C (decomp)"}}