{"cas_no": "703-23-1", "cn_name": "1-(2-\u7f9f\u57fa-6-\u7532\u6c27\u57fa\u82ef\u57fa)\u4e59\u57fa-1-\u916e", "en_name": ["1-(2-Hydroxy-6-methoxyphenyl)ethanone", "Ethanone, 1-(2-hydroxy-6-methoxyphenyl)-", "Acetophenone, 2\u2032-hydroxy-6\u2032-methoxy-", "1-(2-Hydroxy-6-methoxyphenyl)ethanone", "2\u2032-Hydroxy-6\u2032-methoxyacetophenone", "6\u2032-Hydroxy-2\u2032-methoxyacetophenone", "6-Methoxy-2-hydroxyacetophenone", "2-Hydroxy-6-methoxyacetophenone", "1-(2-Hydroxy-6-methoxyphenyl)ethan-1-one"], "SMILES": "C(C)(=O)C1=C(OC)C=CC=C1O", "physical_data": {"Molecular Weight": "166.17", "Molecular Formula": "C9H10O3", "Melting Point": "60 \u00b0C"}}