{"cas_no": "70315-69-4", "cn_name": "3-\u7898-5-\u785d\u57fa-1H-\u5432\u5511", "en_name": ["3-Iodo-5-nitro-1H-indazole", "1H-Indazole, 3-iodo-5-nitro-", "3-Iodo-5-nitro-1H-indazole", "3-Iodo-5-nitro-2H-indazole"], "SMILES": "IC=1C=2C(=CC=C(N(=O)=O)C2)NN1", "physical_data": {"Molecular Weight": "289.03", "Molecular Formula": "C7H4IN3O2", "Melting Point": "214 \u00b0C"}}