{"cas_no": "70331-94-1", "cn_name": "\u6297\u6c27\u5242 697", "en_name": ["2,2\u2032-Oxamidobis[ethyl 3-(3,5-di-tert-butyl-4-hydroxyphenyl)propionate]", "Benzenepropanoic acid, 3,5-bis(1,1-dimethylethyl)-4-hydroxy-, 1,1\u2032-[(1,2-dioxo-1,2-ethanediyl)bis(imino-2,1-ethanediyl)] ester", "Benzenepropanoic acid, 3,5-bis(1,1-dimethylethyl)-4-hydroxy-, (1,2-dioxo-1,2-ethanediyl)bis(imino-2,1-ethanediyl) ester", "XL 1", "Naugard XL 1", "2,2\u2032-Oxamidodiethyl bis[3-(3,5-di-tert-butyl-4-hydroxyphenyl)propionate]", "2,2\u2032-Oxamidobis[ethyl 3-(3,5-di-tert-butyl-4-hydroxyphenyl)propionate]", "N,N\u2032-Bis(2-hydroxyethyl)oxamide bis[\u03b2-(3,5-di-tert-butyl-4-hydroxyphenyl)propionate]", "MD 697", "MD 697 (antioxidant)", "ST 697", "Naugard XL-I", "Omnistab AN 697", "(oxalylbis(azanediyl))bis(ethane-2,1-diyl) bis(3-(3,5-di-tert-butyl-4-hydroxyphenyl)propanoate)", "Thanox MD 1060"], "SMILES": "C(CC(OCCNC(C(NCCOC(CCC1=CC(C(C)(C)C)=C(O)C(C(C)(C)C)=C1)=O)=O)=O)=O)C2=CC(C(C)(C)C)=C(O)C(C(C)(C)C)=C2", "physical_data": {"Molecular Weight": "696.91", "Molecular Formula": "C40H60N2O8", "Melting Point": "178 \u00b0C"}}