{"cas_no": "70340-04-4", "cn_name": "(2-\u7f9f\u57fa\u82c4\u57fa)\u4e09\u82ef\u57fa\u6eb4\u5316\u81a6", "en_name": ["Phosphonium, [(2-hydroxyphenyl)methyl]triphenyl-, bromide (1:1)", "Phosphonium, [(2-hydroxyphenyl)methyl]triphenyl-, bromide (1:1)", "Phosphonium, [(2-hydroxyphenyl)methyl]triphenyl-, bromide", "(2-Hydroxybenzyl)triphenylphosphonium bromide", "(o-Hydroxybenzyl)triphenylphosphonium bromide"], "SMILES": "[P+](CC1=C(O)C=CC=C1)(C2=CC=CC=C2)(C3=CC=CC=C3)C4=CC=CC=C4.[Br-]", "physical_data": {"Molecular Weight": "", "Molecular Formula": "C25H22OP.Br", "Melting Point": "248-252 \u00b0C"}}