{"cas_no": "7035-03-2", "cn_name": "2-\u7532\u6c27\u57fa\u82ef\u4e59\u8148", "en_name": ["2-Methoxybenzeneacetonitrile", "Benzeneacetonitrile, 2-methoxy-", "Acetonitrile, (o-methoxyphenyl)-", "2-Methoxybenzeneacetonitrile", "o-Methoxyphenylacetonitrile", "2-Methoxyphenylacetonitrile", "2-Methoxybenzyl cyanide", "o-Methoxybenzyl cyanide", "2-(o-Methoxyphenyl)acetonitrile", "2-(2-Methoxyphenyl)acetonitrile"], "SMILES": "C(C#N)C1=C(OC)C=CC=C1", "physical_data": {"Molecular Weight": "147.17", "Molecular Formula": "C9H9NO", "Boiling Point": "114 \u00b0C @ Press: 3 Torr", "Melting Point": "69.8 \u00b0C"}}