{"cas_no": "70356-09-1", "cn_name": "\u963f\u4f0f\u82ef\u5b97", "en_name": ["Avobenzone", "1,3-Propanedione, 1-[4-(1,1-dimethylethyl)phenyl]-3-(4-methoxyphenyl)-", "1-[4-(1,1-Dimethylethyl)phenyl]-3-(4-methoxyphenyl)-1,3-propanedione", "Parsol 1789", "Parsol A", "Avobenzone", "4-(1,1-Dimethylethyl)-4\u2032-methoxydibenzoylmethane", "Photoplex", "4-tert-Butyl-4\u2032-methoxydibenzoylmethane", "4-Methoxy-4\u2032-tert-butyldibenzoylmethane", "1-(4-tert-Butylphenyl)-3-(4-methoxyphenyl)propane-1,3-dione", "Butylmethoxydibenzoylmethane", "Eusolex 9020", "Uvinul BMBM", "Parsol RTM 1789", "NeoHeliopan 357", "1-(4-Methoxyphenyl)-3-(4-tert-butylphenyl)propane-1,3-dione", "Escalol 517", "1-(4-tert-Butylphenyl)-3-(4-methoxyphenyl)propan-1,3-dione", "1-(4-tert-Butylphenyl)-3-(4-methoxyphenyl)propane-1,3-dione", "Solarom BMBM", "1-(4\u2032-tert-Butylphenyl)-3-(4\u2032-methoxyphenyl)propane-1,3-dione", "3-(4-Methoxyphenyl)-1-(4-tert-butylphenyl)-1,3-propanedione", "Milestab 1789"], "SMILES": "C(CC(=O)C1=CC=C(OC)C=C1)(=O)C2=CC=C(C(C)(C)C)C=C2", "physical_data": {"Molecular Weight": "310.39", "Molecular Formula": "C20H22O3", "Melting Point": "83.5 \u00b0C"}}