{"cas_no": "7035-02-1", "cn_name": "2-\u7532\u6c27\u57fa\u6c2f\u5316\u82c4", "en_name": ["2-Methoxybenzyl chloride", "Benzene, 1-(chloromethyl)-2-methoxy-", "Anisole, o-(chloromethyl)-", "1-(Chloromethyl)-2-methoxybenzene", "2-Methoxybenzyl chloride", "o-Methoxybenzyl chloride", "2-(Chloromethyl)anisole"], "SMILES": "C(Cl)C1=C(OC)C=CC=C1", "physical_data": {"Molecular Weight": "156.61", "Molecular Formula": "C8H9ClO", "Boiling Point": "111-112 \u00b0C @ Press: 11 Torr", "Melting Point": "29-30 \u00b0C"}}