{"cas_no": "7035-09-8", "cn_name": "5-\u6c2f-2-\u7532\u6c27\u57fa\u82ef\u7532\u919b", "en_name": ["5-Chloro-2-methoxybenzaldehyde", "Benzaldehyde, 5-chloro-2-methoxy-", "o-Anisaldehyde, 5-chloro-", "5-Chloro-2-methoxybenzaldehyde", "3-Chloro-6-methoxybenzaldehyde", "2-Methoxy-5-chlorobenzaldehyde"], "SMILES": "O(C)C1=C(C=O)C=C(Cl)C=C1", "physical_data": {"Molecular Weight": "170.59", "Molecular Formula": "C8H7ClO2", "Boiling Point": "152 \u00b0C @ Press: 15 Torr", "Melting Point": "81 \u00b0C"}}