{"cas_no": "70359-46-5", "cn_name": "\u9152\u77f3\u9178\u6eb4\u83ab\u5c3c\u5b9a", "en_name": ["Brimonidine tartrate", "6-Quinoxalinamine, 5-bromo-N-(4,5-dihydro-1H-imidazol-2-yl)-, (2R,3R)-2,3-dihydroxybutanedioate (1:1)", "6-Quinoxalinamine, 5-bromo-N-(4,5-dihydro-1H-imidazol-2-yl)-, [R-(R*,R*)]-2,3-dihydroxybutanedioate (1:1)", "Brimonidine tartrate", "AGN 190342LF", "Brominide tartrate", "Alphagan", "Alphagan P", "Brimonidine Purite", "Mirvaso", "(5-Bromo-quinoxalin-6-yl)-(4,5-dihydro-1H-imidazol-2-yl)-amine L-tartrate", "Lumify"], "SMILES": "C(C(C(O)=O)O)(C(O)=O)O.BrC=1C2=C(C=CC1NC=3NCCN3)N=CC=N2", "physical_data": {"Molecular Weight": "", "Molecular Formula": "C11H10BrN5.C4H6O6", "Melting Point": "207.5 \u00b0C"}}