{"cas_no": "7037-49-2", "cn_name": "4-(3-\u7f9f\u4e19\u57fa)-\u54cc\u5576", "en_name": ["4-Piperidinepropanol", "4-Piperidinepropanol", "3-(4-Piperidinyl)-1-propanol", "4-(3-Hydroxypropyl)piperidine", "3-(4-Piperidinyl)propanol", "3-(4-Piperidyl)propan-1-ol"], "SMILES": "C(CCO)C1CCNCC1", "physical_data": {"Molecular Weight": "143.23", "Molecular Formula": "C8H17NO", "Boiling Point": "130-131 \u00b0C @ Press: 1.5 Torr", "Melting Point": "65 \u00b0C"}}