{"cas_no": "70374-39-9", "cn_name": "\u6c2f\u8bfa\u6614\u5eb7", "en_name": ["Lornoxicam", "2H-Thieno[2,3-e]-1,2-thiazine-3-carboxamide, 6-chloro-4-hydroxy-2-methyl-N-2-pyridinyl-, 1,1-dioxide", "Lornoxicam", "Chlortenoxicam", "Ro 13-9297", "TS 110", "Telos", "Xefo", "Xefocam", "Lorcam", "Lofecam", "Fulactive"], "SMILES": "OC=1C2=C(S(=O)(=O)N(C)C1C(NC3=CC=CC=N3)=O)C=C(Cl)S2", "physical_data": {"Molecular Weight": "371.82", "Molecular Formula": "C13H10ClN3O4S2", "Melting Point": "225-230 \u00b0C (decomp)"}}