{"cas_no": "704-15-4", "cn_name": "\u7518\u6cb9-L-\u812f\u6c28\u9178", "en_name": ["Glycyl-L-proline", "L-Proline, glycyl-", "Proline, 1-glycyl-, L-", "L-Proline, 1-glycyl-", "Glycyl-L-proline", "N-Glycyl-L-proline", "N-Glycylproline", "1-Glycylproline", "7: PN: WO03052099 PAGE: 83 claimed protein", "NSC 97929", "(S)-1-(2-Aminoacetyl)pyrrolidine-2-carboxylic acid", "152: PN: EP2161028 PAGE: 10 claimed protein", "11: PN: CN101988058 SEQID: 11 claimed sequence", "12: PN: WO2014063098 TABLE: 5 claimed sequence", "81: PN: WO2011146121 PAGE: 115 claimed sequence", "2: PN: WO2011150133 PAGE: 63 claimed sequence", "132: PN: US20130123467 SEQID: 158 claimed protein", "2: PN: TWI417385 SEQID: 11 claimed sequence", "15: PN: WO2015153838 PAGE: 89 claimed sequence", "4: PN: WO2016023974 PAGE: 31 claimed sequence", "1: PN: WO2017060857 PAGE: 93 claimed sequence", "GP (peptide)", "1: PN: JP2018145111 PAGE: 3 claimed sequence", "19: PN: WO2020009548 SEQID: 19 claimed protein", "3: PN: WO2020023418 PAGE: 66 claimed sequence", "5: PN: WO2021055880 SEQID: 5 claimed protein", "2: PN: WO2022051536 PAGE: 64 claimed sequence", "514: PN: WO2022056313 SEQID: 530 claimed protein", "35: PN: WO2022087255 SEQID: 35 claimed protein", "360: PN: US20220128567 SEQID: 530 claimed protein", "360: PN: US20220178935 SEQID: 530 claimed protein"], "SMILES": "C(CN)(=O)N1C(C(O)=O)CCC1", "physical_data": {"Molecular Weight": "172.18", "Molecular Formula": "C7H12N2O3", "Melting Point": "185 \u00b0C"}}