{"cas_no": "704-13-2", "cn_name": "3-\u7f9f\u57fa-4-\u785d\u57fa\u82ef\u7532\u919b", "en_name": ["3-Hydroxy-4-nitrobenzaldehyde", "Benzaldehyde, 3-hydroxy-4-nitro-", "3-Hydroxy-4-nitrobenzaldehyde", "3-Formyl-6-nitrophenol", "5-Formyl-2-nitrophenol", "3-Hydroxy-4-nitrobenzoaldehyde"], "SMILES": "N(=O)(=O)C1=C(O)C=C(C=O)C=C1", "physical_data": {"Molecular Weight": "167.12", "Molecular Formula": "C7H5NO4", "Melting Point": "128-129 \u00b0C"}}