{"cas_no": "704-14-3", "cn_name": "5-\u7532\u6c27\u57fa-2-\u785d\u57fa\u82ef\u915a", "en_name": ["5-Methoxy-2-nitrophenol", "Phenol, 5-methoxy-2-nitro-", "5-Methoxy-2-nitrophenol", "3-Methoxy-6-nitrophenol", "2-Nitro-5-methoxyphenol", "2-Hydroxy-4-methoxynitrobenzene", "NSC 1167"], "SMILES": "N(=O)(=O)C1=C(O)C=C(OC)C=C1", "physical_data": {"Molecular Weight": "169.13", "Molecular Formula": "C7H7NO4", "Melting Point": "95 \u00b0C"}}