{"cas_no": "704-00-7", "cn_name": "1,2-\u4e8c\u4e59\u9170\u82ef", "en_name": ["1,2-Diacetylbenzene", "Ethanone, 1,1\u2032-(1,2-phenylene)bis-", "Benzene, o-diacetyl-", "1,1\u2032-(1,2-Phenylene)bis[ethanone]", "o-Diacetylbenzene", "1,2-Diacetylbenzene", "1-(2-Acetylphenyl)ethanone"], "SMILES": "C(C)(=O)C1=C(C(C)=O)C=CC=C1", "physical_data": {"Molecular Weight": "162.19", "Molecular Formula": "C10H10O2", "Boiling Point": "110 \u00b0C @ Press: 0.1 Torr", "Melting Point": "38.5 \u00b0C"}}