{"cas_no": "704-10-9", "cn_name": "2,4-\u4e8c\u6c2f-5-\u6c1f\u82ef\u4e59\u916e", "en_name": ["2\u2032,4\u2032-Dichloro-5\u2032-fluoroacetophenone", "Ethanone, 1-(2,4-dichloro-5-fluorophenyl)-", "Acetophenone, 2\u2032,4\u2032-dichloro-5\u2032-fluoro-", "1-(2,4-Dichloro-5-fluorophenyl)ethanone", "2\u2032,4\u2032-Dichloro-5\u2032-fluoroacetophenone", "1-(2,4-Dichloro-5-fluorophenyl)ethan-1-one"], "SMILES": "C(C)(=O)C1=C(Cl)C=C(Cl)C(F)=C1", "physical_data": {"Molecular Weight": "207.03", "Molecular Formula": "C8H5Cl2FO", "Boiling Point": "112-115 \u00b0C @ Press: 5 Torr", "Melting Point": "35-36 \u00b0C"}}