{"cas_no": "7040-23-5", "cn_name": "\u4e00\u7f29\u4e8c\u7518\u9187\u9178,\u4e8c\u7532\u916f", "en_name": ["1,1\u2032-Dimethyl 2,2\u2032-oxybis[acetate]", "Acetic acid, 2,2\u2032-oxybis-, 1,1\u2032-dimethyl ester", "Acetic acid, oxydi-, dimethyl ester", "Acetic acid, 2,2\u2032-oxybis-, dimethyl ester", "Diglycolic acid, dimethyl ester", "1,1\u2032-Dimethyl 2,2\u2032-oxybis[acetate]", "Dimethyl diglycolate", "Dimethyl 2,2\u2032-oxydiacetate", "Dimethyl oxydiacetate", "Dimethyl 2,2\u2032-oxybisacetate"], "SMILES": "C(OCC(OC)=O)C(OC)=O", "physical_data": {"Molecular Weight": "162.14", "Molecular Formula": "C6H10O5", "Boiling Point": "130 \u00b0C @ Press: 13 Torr", "Melting Point": "36 \u00b0C"}}