{"cas_no": "70415-86-0", "cn_name": "1-(\u5f02\u4e19\u57fa\u78fa\u9170\u57fa)-2-\u785d\u57fa\u82ef", "en_name": ["1-[(1-Methylethyl)sulfonyl]-2-nitrobenzene", "Benzene, 1-[(1-methylethyl)sulfonyl]-2-nitro-", "1-[(1-Methylethyl)sulfonyl]-2-nitrobenzene", "Isopropyl 2-nitrophenyl sulfone", "1-(Isopropylsulfonyl)-2-nitrobenzene"], "SMILES": "S(C(C)C)(=O)(=O)C1=C(N(=O)=O)C=CC=C1", "physical_data": {"Molecular Weight": "229.25", "Molecular Formula": "C9H11NO4S", "Melting Point": "59.5 \u00b0C"}}