{"cas_no": "7044-91-9", "cn_name": "9,10-\u84bd\u4e8c\u7fa7\u919b", "en_name": ["9,10-Anthracenedicarboxaldehyde", "9,10-Anthracenedicarboxaldehyde", "9,10-Anthracenedialdehyde", "9,10-Anthracenedicarbaldehyde", "9,10-Diformylanthracene", "NSC 529667"], "SMILES": "C(=O)C=1C2=C(C(C=O)=C3C1C=CC=C3)C=CC=C2", "physical_data": {"Molecular Weight": "234.25", "Molecular Formula": "C16H10O2", "Melting Point": "244-245 \u00b0C"}}