{"cas_no": "7045-71-8", "cn_name": "2-\u7532\u57fa\u5341\u4e00\u70f7", "en_name": ["2-Methylundecane", "Undecane, 2-methyl-", "2-Methylundecane"], "SMILES": "C(CCCCCC)CCC(C)C", "physical_data": {"Molecular Weight": "170.33", "Molecular Formula": "C12H26", "Boiling Point": "70-75 \u00b0C @ Press: 20 Torr", "Density": "0.7473 g/cm\u00b3 @ Temp: 20 \u00b0C"}}