{"cas_no": "70458-96-7", "cn_name": "\u8bfa\u6c1f\u6c99\u661f", "en_name": ["Norfloxacin", "3-Quinolinecarboxylic acid, 1-ethyl-6-fluoro-1,4-dihydro-4-oxo-7-(1-piperazinyl)-", "1-Ethyl-6-fluoro-1,4-dihydro-4-oxo-7-(1-piperazinyl)-3-quinolinecarboxylic acid", "AM 715", "Mk 0366", "Norfloxacin", "4803P", "N-Demethylpefloxacin", "Baccidal", "N-Desmethylpefloxacin", "Norphloxacine", "Chibroxin", "Noroxin", "Norfloxacine", "Floxacin 400", "Noflo", "Spectrama", "Noroxine", "Barazan", "Floxacin", "Utinor", "Fulgram", "Gonorcin", "Sebercim", "Chibroxine", "Noraxin", "Norxacin", "Chibroxol", "Lexinor", "Zoroxin", "Uroxacin", "Norocin", "Noracin", "Nolicin", "1-Ethyl-6-fluoro-1,4-dihydro-7-(1-piperazinyl)-4-oxo-3-quinolinecarboxylic acid", "Norflox 400", "Norbid", "Uroflox", "Esclebin", "Amicrobin", "Neofloxacin", "Utin", "Norfloxin", "Neofloxin", "Urekacin", "Barotham", "Renosept", "Nofocin", "Norfloxacin Bayvit", "Norfloxacine Teva", "Norfloxacine Ratiopharm", "Norfloxacine EG", "Noroxacine", "Norflox", "Uriflox", "Normax", "Norilet", "Urotrobel", "1-Ethyl-6-fluoro-4-oxo-7-(piperazin-1-yl)-1,4-dihydroquinoline-3-carboxylic acid", "1-Ethyl-6-fluoro-4-oxo-7-piperazin-1-yl-1,4-dihydro-quinoline-3-carboxylic acid", "1-Ethyl-6-fluoro-4-oxo-7-piperazin-1-ylquinoline-3-carboxylic acid", "MeSH ID: D009643"], "SMILES": "C(C)N1C=2C(C(=O)C(C(O)=O)=C1)=CC(F)=C(C2)N3CCNCC3", "physical_data": {"Molecular Weight": "319.33", "Molecular Formula": "C16H18FN3O3", "Melting Point": "227-228 \u00b0C"}}