{"cas_no": "70458-95-6", "cn_name": "\u7532\u78fa\u9178\u57f9\u6c1f\u6c99\u661f", "en_name": ["Pefloxacin mesylate", "3-Quinolinecarboxylic acid, 1-ethyl-6-fluoro-1,4-dihydro-7-(4-methyl-1-piperazinyl)-4-oxo-, methanesulfonate (1:1)", "3-Quinolinecarboxylic acid, 1-ethyl-6-fluoro-1,4-dihydro-7-(4-methyl-1-piperazinyl)-4-oxo-, monomethanesulfonate", "Pefloxacin mesylate", "Pefloxacin methanesulfonate", "41-982RP", "Peflacin"], "SMILES": "S(C)(=O)(=O)O.C(C)N1C=2C(C(=O)C(C(O)=O)=C1)=CC(F)=C(C2)N3CCN(C)CC3", "physical_data": {"Molecular Weight": "", "Molecular Formula": "C17H20FN3O3.CH4O3S", "Melting Point": "&gt;250 \u00b0C"}}