{"cas_no": "70458-92-3", "cn_name": "\u57f9\u6c1f\u6c99\u661f", "en_name": ["Pefloxacin", "3-Quinolinecarboxylic acid, 1-ethyl-6-fluoro-1,4-dihydro-7-(4-methyl-1-piperazinyl)-4-oxo-", "1-Ethyl-6-fluoro-1,4-dihydro-7-(4-methyl-1-piperazinyl)-4-oxo-3-quinolinecarboxylic acid", "1584RB", "Pefloxacine", "Pefloxacin", "AM 725", "Peflacine", "N\u2032-Methylnorfloxacin", "Abaktal", "Abactal", "1589RB", "EU 5306", "Pelox", "Perti", "Pefbid", "Globacin", "Perflacin", "1-Ethyl-6-fluoro-7-(4-methyl-piperazin-1-yl)-4-oxo-1,4-dihydro-quinoline-3-carboxylic acid", "MeSH ID: D015366"], "SMILES": "C(C)N1C=2C(C(=O)C(C(O)=O)=C1)=CC(F)=C(C2)N3CCN(C)CC3", "physical_data": {"Molecular Weight": "333.36", "Molecular Formula": "C17H20FN3O3", "Melting Point": "271 \u00b0C (decomp)"}}