{"cas_no": "70459-04-0", "cn_name": "\u8bfa\u6c1f\u6c99\u661fEP\u6742\u8d28G", "en_name": ["N-Formylnorfloxacin", "3-Quinolinecarboxylic acid, 1-ethyl-6-fluoro-7-(4-formyl-1-piperazinyl)-1,4-dihydro-4-oxo-", "1-Ethyl-6-fluoro-7-(4-formyl-1-piperazinyl)-1,4-dihydro-4-oxo-3-quinolinecarboxylic acid", "N-Formylnorfloxacin", "1-Ethyl-6-fluoro-7-(4-formylpiperazin-1-yl)-4-oxo-1,4-dihydroquinoline-3-carboxylic acid"], "SMILES": "C(C)N1C=2C(C(=O)C(C(O)=O)=C1)=CC(F)=C(C2)N3CCN(C=O)CC3", "physical_data": {"Molecular Weight": "347.34", "Molecular Formula": "C17H18FN3O4", "Melting Point": "292-293 \u00b0C"}}