{"cas_no": "7047-84-9", "cn_name": "\u5355\u786c\u8102\u9178\u94dd", "en_name": ["Aluminum monostearate", "Aluminum, dihydroxy(octadecanoato-\u03baO)-", "Aluminum, dihydroxy(stearato)-", "Aluminum, dihydroxy(octadecanoato-O)-", "Octadecanoic acid, aluminum complex", "Dihydroxy(octadecanoato-\u03baO)aluminum", "Aluminum monostearate", "Dihydroxyaluminum stearate", "Aluminum dihydroxide stearate", "Dibasic aluminum stearate", "Al-St 103", "Aluminum Stearate 300", "Aluminum Monostearate 300", "Aluminum dihydroxy stearate"], "SMILES": "C(CCCCCCCCCCCCCC)CCC(O[Al](O)O)=O", "physical_data": {"Molecular Weight": "", "Molecular Formula": "C18H37AlO4", "Melting Point": "155 \u00b0C"}}