{"cas_no": "70476-82-3", "cn_name": "\u76d0\u9178\u7c73\u6258\u84bd\u918c", "en_name": ["Mitoxantrone hydrochloride", "9,10-Anthracenedione, 1,4-dihydroxy-5,8-bis[[2-[(2-hydroxyethyl)amino]ethyl]amino]-, hydrochloride (1:2)", "9,10-Anthracenedione, 1,4-dihydroxy-5,8-bis[[2-[(2-hydroxyethyl)amino]ethyl]amino]-, dihydrochloride", "CL 232315", "Mitoxantrone hydrochloride", "NSC 301739", "DHAD", "Novantrone", "Mitoxantrone dihydrochloride", "Bisantrone", "Novatrone", "Immunex", "NCI 301739", "Novantron", "Mitoxantrone HCl", "PW 3405"], "SMILES": "N(CCNCCO)C1=C2C(=C(NCCNCCO)C=C1)C(=O)C=3C(C2=O)=C(O)C=CC3O.Cl", "physical_data": {"Molecular Weight": "", "Molecular Formula": "C22H28N4O6.2ClH", "Melting Point": "204 \u00b0C"}}