{"cas_no": "705-76-0", "cn_name": "3,5-\u4e8c\u7532\u6c27\u57fa\u82c4\u9187", "en_name": ["3,5-Dimethoxybenzenemethanol", "Benzenemethanol, 3,5-dimethoxy-", "Benzyl alcohol, 3,5-dimethoxy-", "3,5-Dimethoxybenzenemethanol", "3,5-Dimethoxybenzyl alcohol", "(3,5-Dimethoxyphenyl)methanol"], "SMILES": "C(O)C1=CC(OC)=CC(OC)=C1", "physical_data": {"Molecular Weight": "168.19", "Molecular Formula": "C9H12O3", "Boiling Point": "132 \u00b0C @ Press: 18 Torr", "Melting Point": "47-48 \u00b0C"}}