{"cas_no": "705-86-2", "cn_name": "\u4e01\u4f4d\u7678\u5185\u916f", "en_name": ["\u03b4-Decalactone", "2H-Pyran-2-one, tetrahydro-6-pentyl-", "Decanoic acid, 5-hydroxy-, \u03b4-lactone", "Capric acid, \u03b4-hydroxy-, lactone", "Tetrahydro-6-pentyl-2H-pyran-2-one", "\u03b4-Decalactone", "5-Decanolide", "5-Hydroxydecanoic acid \u03b4-lactone", "\u03b4-Amylvalerolactone", "5-Pentyl-5-pentanolide", "\u03b4-Pentyl-\u03b4-valerolactone", "6-Pentyltetrahydro-2H-pyran-2-one", "Dihydrojasmin lactone", "\u03b4-Decanolactone", "(\u00b1)-5-Hydroxydecanoic acid lactone", "(\u00b1)-\u03b4-Decalactone", "(RS)-\u03b4-Decalactone", "(\u00b1)-\u03b4-Decanolactone", "\u03b4-Amyl-\u03b4-valerolactone", "\u03b4-Decane lactone", "6-Pentyloxan-2-one"], "SMILES": "C(CCCC)C1OC(=O)CCC1", "physical_data": {"Molecular Weight": "170.25", "Molecular Formula": "C10H18O2", "Boiling Point": "113 \u00b0C @ Press: 0.5 Torr"}}