{"cas_no": "705-60-2", "cn_name": "1-\u82ef\u57fa-2-\u785d\u57fa\u4e19\u70ef", "en_name": ["1-Phenyl-2-nitropropene", "Benzene, (2-nitro-1-propen-1-yl)-", "Benzene, (2-nitropropenyl)-", "Benzene, (2-nitro-1-propenyl)-", "(2-Nitro-1-propen-1-yl)benzene", "(2-Nitropropenyl)benzene", "\u03b2-Methyl-\u03b2-nitrostyrene", "1-Phenyl-2-nitro-2-methylethene", "1-Phenyl-2-nitro-1-propene", "2-Nitro-1-phenyl-1-propene", "1-Phenyl-2-nitropropene", "2-Nitro-1-phenylpropene", "(2-Nitro-1-propenyl)benzene", "2-Nitro-3-phenyl-2-propene", "NSC 2014", "1-(2-Nitropropenyl)benzene", "1-(2-Nitroprop-1-enyl)benzene", "trans-\u03b2-Methyl nitrostyrene"], "SMILES": "C(=C(N(=O)=O)C)C1=CC=CC=C1", "physical_data": {"Molecular Weight": "163.17", "Molecular Formula": "C9H9NO2", "Melting Point": "65-66 \u00b0C"}}