{"cas_no": "705-15-7", "cn_name": "2'-\u7f9f\u57fa-5'-\u7532\u6c27\u57fa\u82ef\u4e59\u916e", "en_name": ["2\u2032-Hydroxy-5\u2032-methoxyacetophenone", "Ethanone, 1-(2-hydroxy-5-methoxyphenyl)-", "Acetophenone, 2\u2032-hydroxy-5\u2032-methoxy-", "1-(2-Hydroxy-5-methoxyphenyl)ethanone", "2-Hydroxy-5-methoxyacetophenone", "2\u2032-Hydroxy-5\u2032-methoxyacetophenone", "5-Methoxy-2-hydroxyacetophenone", "2-Acetyl-4-methoxyphenol", "1-(2-hydroxy-5-methoxyphenyl)ethanone", "NSC 338218", "2-Hydroxy-5-Methyloxyacetophenone", "1-(2-Hydroxy-5-methoxyphenyl)ethan-1-one"], "SMILES": "C(C)(=O)C1=CC(OC)=CC=C1O", "physical_data": {"Molecular Weight": "166.17", "Molecular Formula": "C9H10O3", "Boiling Point": "78-86 \u00b0C @ Press: 0.1 Torr", "Melting Point": "52 \u00b0C"}}