{"cas_no": "705-29-3", "cn_name": "1-\u6c2f\u7532\u57fa-3-\u4e09\u6c1f\u7532\u57fa\u82ef", "en_name": ["3-(Trifluoromethyl)benzyl chloride", "Benzene, 1-(chloromethyl)-3-(trifluoromethyl)-", "m-Xylene, \u03b1\u2032-chloro-\u03b1,\u03b1,\u03b1-trifluoro-", "1-(Chloromethyl)-3-(trifluoromethyl)benzene", "m-(Trifluoromethyl)benzyl chloride", "\u03b1-Chloro-3-(trifluoromethyl)toluene", "3-(Trifluoromethyl)benzyl chloride", "\u03b1\u2032-Chloro-\u03b1,\u03b1,\u03b1-trifluoro-m-xylene", "m-(\u03b1,\u03b1,\u03b1-Trifluoromethyl)benzyl chloride", "NSC 5227"], "SMILES": "C(F)(F)(F)C1=CC(CCl)=CC=C1", "physical_data": {"Molecular Weight": "194.58", "Molecular Formula": "C8H6ClF3", "Boiling Point": "105-106 \u00b0C @ Press: 0.7 Torr", "Melting Point": "32-36 \u00b0C"}}