{"cas_no": "705-19-1", "cn_name": "\u5f02\u7532\u785d\u5511", "en_name": ["Isometronidazole", "1H-Imidazole-1-ethanol, 2-methyl-4-nitro-", "Imidazole-1-ethanol, 2-methyl-4-nitro-", "2-Methyl-4-nitro-1H-imidazole-1-ethanol", "Isometronidazole", "Izoklion", "RP 8979", "Mizonidazole", "SC-16427", "1-(2-Hydroxyethyl)-2-methyl-4-nitroimidazole", "1-(2-Hydroxyethyl)-2-methyl-4-nitro-1H-imidazole", "2-(2-Methyl-4-nitroimidazol-1-yl)ethanol", "2-(2-Methyl-4-nitro-imidazol-1-yl)-ethanol"], "SMILES": "C(CO)N1C=C(N(=O)=O)N=C1C", "physical_data": {"Molecular Weight": "171.15", "Molecular Formula": "C6H9N3O3", "Melting Point": "140 \u00b0C"}}