{"cas_no": "70504-01-7", "cn_name": "N,N-\u4e8c\u7532\u57fa-6-\u4e19\u9170-2-\u8418\u80fa", "en_name": ["1-[6-(Dimethylamino)-2-naphthalenyl]-1-propanone", "1-Propanone, 1-[6-(dimethylamino)-2-naphthalenyl]-", "1-[6-(Dimethylamino)-2-naphthalenyl]-1-propanone", "Prodan (fluorophore)", "Prodan", "6-Propionyl-2-(dimethylamino)naphthalene", "6-propanoyl-2-(N,N-dimethylamino)naphthalene", "6-Propionyl-2-(N,N-dimethylamino)naphthalene", "2-Propionyl-6-dimethylaminonaphthalene", "2-(N,N-Dimethylamino)-6-propionylnaphthalene"], "SMILES": "C(CC)(=O)C1=CC2=C(C=C(N(C)C)C=C2)C=C1", "physical_data": {"Molecular Weight": "227.30", "Molecular Formula": "C15H17NO", "Melting Point": "142-143 \u00b0C"}}