{"cas_no": "70500-72-0", "cn_name": "7-\u7f9f\u57fa-2-\u55b9\u8bfa\u916e", "en_name": ["7-Hydroxy-2(1H)-quinolinone", "2(1H)-Quinolinone, 7-hydroxy-", "7-Hydroxy-2(1H)-quinolinone", "7-Hydroxycarbostyril", "7-Hydroxy-1H-quinolin-2-one", "2,7-Dihydroxyquinoline", "Quinoline-2,7-diol"], "SMILES": "OC=1C=C2C(C=CC(=O)N2)=CC1", "physical_data": {"Molecular Weight": "161.16", "Molecular Formula": "C9H7NO2", "Melting Point": "308-315 \u00b0C (decomp)"}}