{"cas_no": "70516-41-5", "cn_name": "3-N-\u5f02\u620a\u57fa-N-\u4e59\u6c28\u57fa-6-\u7532\u57fa-7-\u82ef\u6c28\u57fa\u8367\u70f7", "en_name": ["6\u2032-[Ethyl(3-methylbutyl)amino]-3\u2032-methyl-2\u2032-(phenylamino)spiro[isobenzofuran-1(3H),9\u2032-[9H]xanthen]-3-one", "Spiro[isobenzofuran-1(3H),9\u2032-[9H]xanthen]-3-one, 6\u2032-[ethyl(3-methylbutyl)amino]-3\u2032-methyl-2\u2032-(phenylamino)-", "6\u2032-[Ethyl(3-methylbutyl)amino]-3\u2032-methyl-2\u2032-(phenylamino)spiro[isobenzofuran-1(3H),9\u2032-[9H]xanthen]-3-one", "3-(N-Ethyl-N-isoamylamino)-6-methyl-7-anilinofluoran", "6\u2032-(N-Isoamyl-N-ethylamino)-3\u2032-methyl-2\u2032-phenylaminofluoran", "3\u2032-(N-Ethyl-N-isoamylamino)-6\u2032-methyl-7\u2032-(phenylamino)fluoran", "3\u2032-(N-Ethyl-N-isoamylamino)-6\u2032-methyl-7\u2032-anilinofluoran", "S 205", "S 205 (dye)", "3-(N-Ethyl-N-isoamylamino)-6-methyl-7-phenylaminofluoran", "3-(N-Isoamyl-N-ethylamino)-6-methyl-7-anilinofluoran", "3-(N-Ethyl-N-isopentylamino)-6-methyl-7-anilinofluoran", "3-(N-Isopentyl-N-ethylamino)-6-methyl-7-anilinofluoran", "2-Anilino-3-methyl-6-(N-ethyl-N-isoamylamino)fluoran", "S 205 Black", "Yamada S 205", "6-(N-Iso-amyl-N-ethylamino)-3-methyl-2-anilinofluoran", "Wincon 205", "2\u2032-Anilino-6\u2032-[ethyl(3-methylbutyl)amino]-3\u2032-methylspiro[2-benzofuran-3,9\u2032-xanthene]-1-one", "R 401", "R 401 (dye)"], "SMILES": "O=C1OC2(C=3C(OC=4C2=CC=C(N(CCC(C)C)CC)C4)=CC(C)=C(NC5=CC=CC=C5)C3)C=6C1=CC=CC6", "physical_data": {"Molecular Weight": "518.65", "Molecular Formula": "C34H34N2O3", "Melting Point": "166-168 \u00b0C"}}