{"cas_no": "7051-34-5", "cn_name": "\u6eb4\u7532\u57fa\u73af\u4e19\u70f7", "en_name": ["(Bromomethyl)cyclopropane", "Cyclopropane, (bromomethyl)-", "(Bromomethyl)cyclopropane", "Cyclopropylmethyl bromide", "Cyclopropanemethyl bromide", "Cyclopropylcarbinyl bromide", "1-(Bromomethyl)cyclopropane", "(Bromo)(cyclopropyl)methane"], "SMILES": "C(Br)C1CC1", "physical_data": {"Molecular Weight": "135.00", "Molecular Formula": "C4H7Br", "Boiling Point": "101.5-102.0 \u00b0C @ Press: 627 Torr", "Melting Point": "87-90 \u00b0C", "Density": "1.433 g/cm\u00b3 @ Temp: 26.5 \u00b0C"}}