{"cas_no": "7051-16-3", "cn_name": "1-\u6c2f-3,5-\u4e8c\u7532\u6c27\u57fa\u82ef", "en_name": ["1-Chloro-3,5-dimethoxybenzene", "Benzene, 1-chloro-3,5-dimethoxy-", "1-Chloro-3,5-dimethoxybenzene", "5-Chloro-1,3-dimethoxybenzene", "3,5-Dimethoxychlorobenzene", "5-Chlororesorcinol dimethyl ether", "1,3-Dimethoxy-5-chlorobenzene", "NSC 220095"], "SMILES": "O(C)C1=CC(OC)=CC(Cl)=C1", "physical_data": {"Molecular Weight": "172.61", "Molecular Formula": "C8H9ClO2", "Boiling Point": "113 \u00b0C @ Press: 5-6 Torr", "Melting Point": "38 \u00b0C"}}