{"cas_no": "70528-90-4", "cn_name": "\u5206\u6563\u9ec4211", "en_name": ["Disperse Yellow 211", "3-Pyridinecarbonitrile, 5-[2-(4-chloro-2-nitrophenyl)diazenyl]-1-ethyl-1,2-dihydro-6-hydroxy-4-methyl-2-oxo-", "3-Pyridinecarbonitrile, 5-[(4-chloro-2-nitrophenyl)azo]-1-ethyl-1,2-dihydro-6-hydroxy-4-methyl-2-oxo-", "5-[2-(4-Chloro-2-nitrophenyl)diazenyl]-1-ethyl-1,2-dihydro-6-hydroxy-4-methyl-2-oxo-3-pyridinecarbonitrile", "C.I. 12755", "C.I. Disperse Yellow 211", "Terasil Yellow 4G", "Disperse Yellow 211", "Terasil Yellow W 4G", "Cbene Yellow GNL", "Disperse Yellow M 4GL"], "SMILES": "N(=NC1=C(N(=O)=O)C=C(Cl)C=C1)C=2C(C)=C(C#N)C(=O)N(CC)C2O", "physical_data": {"Molecular Weight": "361.74", "Molecular Formula": "C15H12ClN5O4", "Melting Point": "227-229 \u00b0C"}}