{"cas_no": "705254-34-8", "cn_name": "(4-\u7532\u6c27\u7fb0\u57fa\u82ef\u57fa)\u4e09\u6c1f\u787c\u9178\u94be", "en_name": ["Borate(1-), trifluoro[4-(methoxycarbonyl)phenyl]-, potassium (1:1), (T-4)-", "Borate(1-), trifluoro[4-(methoxycarbonyl)phenyl]-, potassium (1:1), (T-4)-", "Borate(1-), trifluoro[4-(methoxycarbonyl)phenyl]-, potassium, (T-4)-", "Potassium (4-methoxycarbonylphenyl)trifluoroborate"], "SMILES": "[B+3]([F-])([F-])([F-])[C-]=1C=CC(C(OC)=O)=CC1.[K+]", "physical_data": {"Molecular Weight": "", "Molecular Formula": "C8H7BF3O2.K", "Melting Point": "&gt;225 \u00b0C"}}