{"cas_no": "7053-88-5", "cn_name": "\u6c34\u6768\u9178\u5f02\u4e19\u916f", "en_name": ["2-Hydroxy-3-isopropylbenzoic acid", "Benzoic acid, 2-hydroxy-3-(1-methylethyl)-", "Salicylic acid, 3-isopropyl-", "2-Hydroxy-3-(1-methylethyl)benzoic acid", "3-Isopropylsalicylic acid", "2-Hydroxy-3-isopropylbenzoic acid", "3-Isopropyl-2-hydroxybenzoic acid", "2-Hydroxy-3-propan-2-ylbenzoic acid", "2-Hydroxy-3-(propan-2-yl)benzoic acid"], "SMILES": "C(C)(C)C1=C(O)C(C(O)=O)=CC=C1", "physical_data": {"Molecular Weight": "180.20", "Molecular Formula": "C10H12O3", "Melting Point": "71-72 \u00b0C"}}