{"cas_no": "7054-25-3", "cn_name": "\u8461\u8404\u7cd6\u9178\u594e\u5c3c\u4e01", "en_name": ["Quinate", "D-Gluconic acid, compd. with (9S)-6\u2032-methoxycinchonan-9-ol (1:1)", "Gluconic acid, D-, compd. with quinidine (1:1)", "Quinidine gluconate", "Quinidine, mono-D-gluconate (salt)", "Cinchonan-9-ol, 6\u2032-methoxy-, (9S)-, mono-D-gluconate (salt)", "Quinaglute", "Dura-Tab", "Gluquinate", "Quinate", "Duraquin"], "SMILES": "C(O)(C=1C2=C(C=CC(OC)=C2)N=CC1)C3N4CC(C=C)C(C3)CC4.C(C(C(CO)O)O)(C(C(O)=O)O)O", "physical_data": {"Molecular Weight": "", "Molecular Formula": "C20H24N2O2.C6H12O7", "Melting Point": "175-176.5 \u00b0C"}}