{"cas_no": "7055-03-0", "cn_name": "\u706d\u840e\u7075", "en_name": ["Mebenil", "Benzamide, 2-methyl-N-phenyl-", "o-Toluanilide", "2-Methyl-N-phenylbenzamide", "BAS 3050F", "2-Methylbenzoic acid anilide", "Mebenil", "2-Methylbenzanilide", "F 368", "2-Methylbenzoanilide", "BAS 3050", "BAS 305", "Bebenil", "o-Methylbenzanilide", "SHA 458100", "NSC 227402", "NSC 26404"], "SMILES": "C(NC1=CC=CC=C1)(=O)C2=C(C)C=CC=C2", "physical_data": {"Molecular Weight": "211.26", "Molecular Formula": "C14H13NO", "Melting Point": "125 \u00b0C"}}