{"cas_no": "70563-58-5", "cn_name": "\u9664\u83a0\u9709\u7d20A", "en_name": ["Herbimycin A", "Geldanamycin, 17-demethoxy-15-methoxy-11-O-methyl-, (15R)-", "2-Azabicyclo[16.3.1]docosane, geldanamycin deriv.", "(15R)-17-Demethoxy-15-methoxy-11-O-methylgeldanamycin", "Herbimycin A", "Antibiotic TAN 420F", "NSC 305978"], "SMILES": "O(C)C1C=2C(=O)C(=CC(=O)C2)NC(=O)C(C)=CC=CC(OC)C(OC(N)=O)C(C)=CC(C)C(OC)C(OC)CC1C", "physical_data": {"Molecular Weight": "574.66", "Molecular Formula": "C30H42N2O9", "Melting Point": "229-231 \u00b0C"}}