{"cas_no": "70578-24-4", "cn_name": "\u6ec7\u4e4c\u5934\u78b1", "en_name": ["Yunaconitine", "Aconitane-3,8,13,14-tetrol, 20-ethyl-1,6,16-trimethoxy-4-(methoxymethyl)-, 8-acetate 14-(4-methoxybenzoate), (1\u03b1,3\u03b1,6\u03b1,14\u03b1,16\u03b2)-", "Vilmorrianine B", "Isoaconitine", "11aH-12,3,6a-Ethanylylidene-7,9-methanonaphth[2,3-b]azocine, aconitane-3,8,13,14-tetrol deriv.", "Yunaconitine", "Guayewuanine B", "3\u03b1,13-Dihydroxyforesaconitine", "Yunnaconitine"], "SMILES": "O(C)C1C23C4C(COC)(CN(CC)C2C(C4OC)C5(OC(C)=O)C6C3CC(O)(C6OC(=O)C7=CC=C(OC)C=C7)C(OC)C5)C(O)C1", "physical_data": {"Molecular Weight": "659.76", "Molecular Formula": "C35H49NO11", "Melting Point": "142-144 \u00b0C"}}