{"cas_no": "7057-48-9", "cn_name": "2',3'-\u4e8c\u8131\u6c27-2',3'-\u4e8c\u6c22\u817a\u82f7", "en_name": ["2\u2032,3\u2032-Didehydro-2\u2032,3\u2032-dideoxyadenosine", "Adenosine, 2\u2032,3\u2032-didehydro-2\u2032,3\u2032-dideoxy-", "Adenine, 9-(2,3-dideoxy-\u03b2-D-glycero-pent-2-enofuranosyl)-", "2\u2032,3\u2032-Didehydro-2\u2032,3\u2032-dideoxyadenosine", "2\u2032,3\u2032-Dideoxy-2\u2032,3\u2032-didehydroadenosine", "Pent-2-enofuranoside, adenine-9 2,3-dideoxy-", "NSC 108602"], "SMILES": "NC1=C2C(N(C=N2)C3OC(CO)C=C3)=NC=N1", "physical_data": {"Molecular Weight": "233.23", "Molecular Formula": "C10H11N5O2", "Melting Point": "191-192 \u00b0C"}}