{"cas_no": "7057-33-2", "cn_name": "3'-\u8131\u6c27\u80de\u82f7", "en_name": ["3\u2032-Deoxycytidine", "Cytidine, 3\u2032-deoxy-", "3\u2032-Deoxycytidine"], "SMILES": "OC1C(OC(CO)C1)N2C(=O)N=C(N)C=C2", "physical_data": {"Molecular Weight": "227.22", "Molecular Formula": "C9H13N3O4", "Melting Point": "230-232 \u00b0C"}}