{"cas_no": "70588-05-5", "cn_name": "1,7-\u4e8c\u7f9f\u57fa-2,3,8-\u4e09\u7532\u6c27\u57fa-6-\u7532\u57fa\u84bd-9,10-\u4e8c\u916e", "en_name": ["Obtusin", "9,10-Anthracenedione, 1,7-dihydroxy-2,3,8-trimethoxy-6-methyl-", "Obtusin", "1,7-Dihydroxy-2,3,8-trimethoxy-6-methyl-9,10-anthracenedione", "Obtusin (Cassia)", "2,8-Dihydroxy-1,6,7-trimethoxy-3-methylanthraquinone"], "SMILES": "O=C1C=2C(C(=O)C=3C1=C(O)C(OC)=C(OC)C3)=CC(C)=C(O)C2OC", "physical_data": {"Molecular Weight": "344.32", "Molecular Formula": "C18H16O7", "Melting Point": "244.5-246.0 \u00b0C"}}