{"cas_no": "70588-06-6", "cn_name": "\u9ec4\u51b3\u660e\u7d20", "en_name": ["Chrysoobtusin", "9,10-Anthracenedione, 2-hydroxy-1,6,7,8-tetramethoxy-3-methyl-", "Anthraquinone, 2-hydroxy-1,6,7,8-tetramethoxy-3-methyl-", "2-Hydroxy-1,6,7,8-tetramethoxy-3-methyl-9,10-anthracenedione", "Chrysoobtusin", "2-Hydroxy-1,6,7,8-tetramethoxy-3-methylanthraquinone"], "SMILES": "O(C)C1=C2C(C(=O)C=3C(C2=O)=C(OC)C(O)=C(C)C3)=CC(OC)=C1OC", "physical_data": {"Molecular Weight": "358.34", "Molecular Formula": "C19H18O7", "Melting Point": "214-215 \u00b0C"}}