{"cas_no": "70591-20-7", "cn_name": "\u4e8c\u82ef\u4e9a\u7532\u57fa\u6c28\u57fa\u4e59\u8148", "en_name": ["[(Diphenylmethylene)amino]acetonitrile", "Acetonitrile, 2-[(diphenylmethylene)amino]-", "Acetonitrile, [(diphenylmethylene)amino]-", "2-[(Diphenylmethylene)amino]acetonitrile", "[(Diphenylmethylene)amino]acetonitrile", "Diphenylmethyleniminoacetonitrile", "[(Diphenylmethylene)amino]methyl cyanide", "(Benzhydrylideneamino)acetonitrile", "2-(Benzhydrylideneamino)acetonitrile", "2-[(Diphenylmethylidene)amino]acetonitrile"], "SMILES": "C(=NCC#N)(C1=CC=CC=C1)C2=CC=CC=C2", "physical_data": {"Molecular Weight": "220.27", "Molecular Formula": "C15H12N2", "Melting Point": "83-84 \u00b0C"}}