{"cas_no": "7059-24-7", "cn_name": "\u8272\u9709\u7d20A3", "en_name": ["Chromomycin A3", "D-threo-2-Pentulose, 1-C-[(2S,3S)-7-[[4-O-acetyl-2,6-dideoxy-3-O-(2,6-dideoxy-4-O-methyl-\u03b1-D-lyxo-hexopyranosyl)-\u03b2-D-lyxo-hexopyranosyl]oxy]-3-[[O-4-O-acetyl-2,6-dideoxy-3-C-methyl-\u03b1-L-arabino-hexopyranosyl-(1\u21923)-O-2,6-dideoxy-\u03b2-D-arabino-hexopyranosyl-(1\u21923)-2,6-dideoxy-\u03b2-D-arabino-hexopyranosyl]oxy]-1,2,3,4-tetrahydro-5,10-dihydroxy-6-methyl-4-oxo-2-anthracenyl]-5-deoxy-1-O-methyl-, (1S)-", "Olivomycin D, 3D-O-(4-O-acetyl-2,6-dideoxy-3-C-methyl-\u03b1-L-arabino-hexopyranosyl)-7-methyl-", "Chromomycin A3", "(1S)-1-C-[(2S,3S)-7-[[4-O-Acetyl-2,6-dideoxy-3-O-(2,6-dideoxy-4-O-methyl-\u03b1-D-lyxo-hexopyranosyl)-\u03b2-D-lyxo-hexopyranosyl]oxy]-3-[[O-4-O-acetyl-2,6-dideoxy-3-C-methyl-\u03b1-L-arabino-hexopyranosyl-(1\u21923)-O-2,6-dideoxy-\u03b2-D-arabino-hexopyranosyl-(1\u21923)-2,6-dideoxy-\u03b2-D-arabino-hexopyranosyl]oxy]-1,2,3,4-tetrahydro-5,10-dihydroxy-6-methyl-4-oxo-2-anthracenyl]-5-deoxy-1-O-methyl-D-threo-2-pentulose", "Toyomycin", "Aburamycin B", "Antibiotic B 599", "CMA3", "NSC 58514"], "SMILES": "O=C1C=2C(CC(C(C(C(C(C)O)O)=O)OC)C1OC3CC(OC4CC(OC5CC(C)(O)C(OC(C)=O)C(C)O5)C(O)C(C)O4)C(O)C(C)O3)=CC=6C(C2O)=C(O)C(C)=C(OC7CC(OC8CC(O)C(OC)C(C)O8)C(OC(C)=O)C(C)O7)C6", "physical_data": {"Molecular Weight": "1183.25", "Molecular Formula": "C57H82O26", "Melting Point": "185 \u00b0C (decomp)"}}