{"cas_no": "706-14-9", "cn_name": "\u4e19\u4f4d\u7678\u5185\u916f", "en_name": ["\u03b3-Decalactone", "2(3H)-Furanone, 5-hexyldihydro-", "Decanoic acid, 4-hydroxy-, \u03b3-lactone", "Capric acid, \u03b3-hydroxy-, lactone", "5-Hexyldihydro-2(3H)-furanone", "\u03b3-Decanolactone", "Decanolactone", "\u03b3-Decalactone", "\u03b3-Hexylbutyrolactone", "4-Hexyl-\u03b3-butyrolactone", "4-Decanolide", "4-Hexyl-4-butanolide", "4-Hydroxydecanoic acid \u03b3-lactone", "2-Decalactone", "\u03b3-Hexyl-\u03b3-butyrolactone", "4-Hydroxydecanoic acid lactone", "\u03b3-n-Hexyl-\u03b3-butyrolactone", "\u03b3-Decanolide", "5-Hexyltetrahydro-2-furanone", "(\u00b1)-4-n-Hexylbutyrolactone", "(RS)-\u03b3-Decalactone", "(\u00b1)-\u03b3-Decanolactone", "(\u00b1)-\u03b3-Decalactone", "NSC 24248", "NSC 26510", "5-Hexyloxolan-2-one"], "SMILES": "C(CCCCC)C1OC(=O)CC1", "physical_data": {"Molecular Weight": "170.25", "Molecular Formula": "C10H18O2", "Boiling Point": "125-127 \u00b0C @ Press: 3.5 Torr", "Density": "0.9482 g/cm\u00b3 @ Temp: 20 \u00b0C"}}