{"cas_no": "706-78-5", "cn_name": "\u516b\u6c2f\u73af\u620a-1-\u70ef", "en_name": ["Octachlorocyclopentene", "Cyclopentene, 1,2,3,3,4,4,5,5-octachloro-", "Cyclopentene, octachloro-", "1,2,3,3,4,4,5,5-Octachlorocyclopentene", "Octachlorocyclopentene", "Perchlorocyclopentene", "NSC 4736"], "SMILES": "ClC1(Cl)C(Cl)(Cl)C(Cl)=C(Cl)C1(Cl)Cl", "physical_data": {"Molecular Weight": "343.68", "Molecular Formula": "C5Cl8", "Boiling Point": "283 \u00b0C", "Melting Point": "40 \u00b0C", "Density": "1.822 g/cm\u00b3 @ Temp: 41 \u00b0C"}}