{"cas_no": "706-79-6", "cn_name": "1,2-\u4e8c\u6c2f\u516d\u6c1f\u73af\u620a\u70ef", "en_name": ["1,2-Dichloro-3,3,4,4,5,5-hexafluorocyclopentene", "Cyclopentene, 1,2-dichloro-3,3,4,4,5,5-hexafluoro-", "Cyclopentene, 1,2-dichlorohexafluoro-", "1,2-Dichloro-3,3,4,4,5,5-hexafluorocyclopentene", "1,2-Dichloroperfluorocyclopentene", "1,2-Dichlorohexafluorocyclopentene", "1,2-Dichloro-3,3,4,4,5,5-hexafluoro-1-cyclopentene", "NSC 41877", "1,2-Dichlorohexafluorocyclopent-1-ene", "3,3,4,4,5,5-Hexafluoro-1,2-dichlorocyclopentene"], "SMILES": "FC1(F)C(F)(F)C(Cl)=C(Cl)C1(F)F", "physical_data": {"Molecular Weight": "244.95", "Molecular Formula": "C5Cl2F6", "Boiling Point": "90.7 \u00b0C", "Melting Point": "-105.8 \u00b0C", "Density": "1.6546 g/cm\u00b3 @ Temp: 20 \u00b0C"}}