{"cas_no": "706-31-0", "cn_name": "1,5,9-\u73af\u5341\u4e8c\u78b3\u4e09\u70ef", "en_name": ["trans,trans,cis-1,5,9-Cyclododecatriene", "1,5,9-Cyclododecatriene, (1E,5E,9Z)-", "1,5,9-Cyclododecatriene, (E,E,Z)-", "(1E,5E,9Z)-1,5,9-Cyclododecatriene", "1-cis-5-trans-9-trans-Cyclododecatriene", "trans,trans,cis-1,5,9-Cyclododecatriene", "cis,trans,trans-1,5,9-Cyclododecatriene", "(E,E,Z)-1,5,9-Cyclododecatriene", "(Z,E,E)-1,5,9-Cyclododecatriene", "(1Z,5E,9E)-Cyclododecatriene"], "SMILES": "C1CC=CCCC=CCCC=C1", "physical_data": {"Molecular Weight": "162.27", "Molecular Formula": "C12H18", "Boiling Point": "96 \u00b0C @ Press: 10 Torr", "Melting Point": "-18 \u00b0C", "Density": "0.8895 g/cm\u00b3 @ Temp: 25 \u00b0C"}}