{"cas_no": "706-07-0", "cn_name": "1-(4-\u6c2f\u82ef\u57fa)-2-\u785d\u57fa\u4e59\u70ef", "en_name": ["1-Chloro-4-(2-nitroethenyl)benzene", "Benzene, 1-chloro-4-(2-nitroethenyl)-", "Styrene, p-chloro-\u03b2-nitro-", "1-Chloro-4-(2-nitroethenyl)benzene", "p-Chloro-\u03b2-nitrostyrene", "4-Chloro-\u03b2-nitrostyrene", "4-Chloro-\u03c9-nitrostyrene", "1-(p-Chlorophenyl)-2-nitroethene", "NSC 2547", "1-(2-Nitrovinyl)-4-chlorobenzene", "2-(4-Chlorophenyl)-1-nitroethene", "1-(4-Chlorophenyl)-2-nitroethene", "1-Chloro-4-(2-nitrovinyl)benzene", "1-Nitro-2-(4-chlorophenyl)ethylene", "4-Chloromethyl-\u03b2-nitrostyrene"], "SMILES": "C(=CN(=O)=O)C1=CC=C(Cl)C=C1", "physical_data": {"Molecular Weight": "183.59", "Molecular Formula": "C8H6ClNO2", "Melting Point": "111-112 \u00b0C"}}