{"cas_no": "706-08-1", "cn_name": "1-(4-\u6c1f\u82ef\u57fa)-2-\u785d\u57fa\u4e59\u70ef", "en_name": ["1-Fluoro-4-(2-nitroethenyl)benzene", "Benzene, 1-fluoro-4-(2-nitroethenyl)-", "Styrene, p-fluoro-\u03b2-nitro-", "1-Fluoro-4-(2-nitroethenyl)benzene", "p-Fluoro-\u03b2-nitrostyrene", "p-Fluoro-\u03c9-nitrostyrene", "4-Fluoro-\u03b2-nitrostyrene", "1-Fluoro-4-(2-nitrovinyl)benzene", "NSC 121154", "2-(4-Fluorophenyl)-1-nitroethene", "1-(4-Fluorophenyl)-2-nitroethene", "1-Nitro-2-(4-fluorophenyl)ethene"], "SMILES": "C(=CN(=O)=O)C1=CC=C(F)C=C1", "physical_data": {"Molecular Weight": "167.14", "Molecular Formula": "C8H6FNO2", "Melting Point": "101-102.5 \u00b0C"}}