{"cas_no": "706-03-6", "cn_name": "3-\uff08\u82c4\u6c28\u57fa\uff09\u4e19\u8148", "en_name": ["3-[(Phenylmethyl)amino]propanenitrile", "Propanenitrile, 3-[(phenylmethyl)amino]-", "Propionitrile, 3-(benzylamino)-", "3-[(Phenylmethyl)amino]propanenitrile", "3-(Benzylamino)propionitrile", "N-Benzyl-2-cyanoethylamine", "\u03b2-(Benzylamino)propionitrile", "N-(2-Cyanoethyl)benzylamine", "(2-Cyanoethyl)(phenylmethyl)amine", "Benzyl(2-cyanoethyl)amine", "3-(Benzylamino)propanenitrile"], "SMILES": "C(NCCC#N)C1=CC=CC=C1", "physical_data": {"Molecular Weight": "160.22", "Molecular Formula": "C10H12N2", "Boiling Point": "184-185 \u00b0C @ Press: 23 Torr", "Melting Point": "70 \u00b0C", "Density": "1.0265 g/cm\u00b3 @ Temp: 20 \u00b0C"}}