{"cas_no": "7060-74-4", "cn_name": "\u78f7\u9178\u7af9\u6843\u9709\u7d20", "en_name": ["Oleandomycin phosphate", "Oleandomycin, phosphate (1:1) (salt)", "Oleandomycin phosphate", "1,9-Dioxaspiro[2.13]hexadecane, oleandomycin deriv.", "Matromycin"], "SMILES": "O=C1C2(CO2)CC(C)C(OC3C(O)C(N(C)C)CC(C)O3)C(C)C(OC4CC(OC)C(O)C(C)O4)C(C)C(=O)OC(C)C(C)C(O)C1C.P(=O)(O)(O)O", "physical_data": {"Molecular Weight": "", "Molecular Formula": "C35H61NO12.H3O4P", "Melting Point": "145-147 \u00b0C"}}