{"cas_no": "70627-52-0", "cn_name": "4-\u82c4\u6c27\u57fa\u82ef\u4e9a\u7532\u57fa-4-\u6c1f\u82ef\u80fa", "en_name": ["4-Fluoro-N-[[4-(phenylmethoxy)phenyl]methylene]benzenamine", "Benzenamine, 4-fluoro-N-[[4-(phenylmethoxy)phenyl]methylene]-", "4-Fluoro-N-[[4-(phenylmethoxy)phenyl]methylene]benzenamine", "4-Benzyloxybenzylidene 4-fluoroaniline", "N-(4-(Benzyloxy)benzylidene)-4-fluoroaniline", "1-(4-(Benzyloxy)phenyl)-N-(4-fluorophenyl)methanimine"], "SMILES": "C(=NC1=CC=C(F)C=C1)C2=CC=C(OCC3=CC=CC=C3)C=C2", "physical_data": {"Molecular Weight": "305.35", "Molecular Formula": "C20H16FNO", "Melting Point": "132-133 \u00b0C"}}