{"cas_no": "70639-77-9", "cn_name": "2-\u7fb0\u57fa-1 ,2,3,4-\u56db\u6c22\u55b9\u5549-6-\u7fa7\u9178", "en_name": ["1,2,3,4-Tetrahydro-2-oxo-6-quinolinecarboxylic acid", "6-Quinolinecarboxylic acid, 1,2,3,4-tetrahydro-2-oxo-", "1,2,3,4-Tetrahydro-2-oxo-6-quinolinecarboxylic acid", "2-Oxo-1,2,3,4-tetrahydroquinoline-6-carboxylic acid", "2-Oxo-3,4-dihydro-1H-quinoline-6-carboxylic acid"], "SMILES": "C(O)(=O)C=1C=C2C(NC(=O)CC2)=CC1", "physical_data": {"Molecular Weight": "191.18", "Molecular Formula": "C10H9NO3", "Melting Point": "&gt;300 \u00b0C"}}