{"cas_no": "70639-78-0", "cn_name": "(S)-3-\u6c28\u57fa\u56db\u6c22\u544b\u5583", "en_name": ["6-Carboxycarbostyril", "6-Quinolinecarboxylic acid, 1,2-dihydro-2-oxo-", "6-Quinolinecarboxylic acid, 2-hydroxy-", "1,2-Dihydro-2-oxo-6-quinolinecarboxylic acid", "6-Carboxycarbostyril", "2-Hydroxyquinoline-6-carboxylic acid", "2-Oxo-1,2-dihydroquinoline-6-carboxylic acid"], "SMILES": "C(O)(=O)C=1C=C2C(NC(=O)C=C2)=CC1", "physical_data": {"Molecular Weight": "189.17", "Molecular Formula": "C10H7NO3", "Melting Point": "&gt;300 \u00b0C (decomp)"}}