{"cas_no": "70630-17-0", "cn_name": "\u7cbe\u7532\u971c\u7075", "en_name": ["(R)-Metalaxyl", "D-Alanine, N-(2,6-dimethylphenyl)-N-(2-methoxyacetyl)-, methyl ester", "D-Alanine, N-(2,6-dimethylphenyl)-N-(methoxyacetyl)-, methyl ester", "D-(-)-Metalaxyl", "(R)-Metalaxyl", "CGA 329351", "Metalaxyl-M", "Mefenoxam", "Tega Bion", "(-)-Metalaxyl", "Ridomil Gold", "Apron XL", "R-(-)-Metalaxyl", "Ridomil Gold Bravo", "Subdue Maxx", "(-)-(R)-Metalaxyl", "Fonganil Gold", "Santhal TC"], "SMILES": "N(C(C(OC)=O)C)(C(COC)=O)C1=C(C)C=CC=C1C", "physical_data": {"Molecular Weight": "279.33", "Molecular Formula": "C15H21NO4", "Melting Point": "-38.7 \u00b0C"}}