{"cas_no": "7063-99-2", "cn_name": "5-\u82ef\u57fa\u5f02\u5641\u5511-3-\u7532\u9178\u4e59\u916f", "en_name": ["Ethyl 5-phenylisoxazole-3-carboxylate", "3-Isoxazolecarboxylic acid, 5-phenyl-, ethyl ester", "3-Ethoxycarbonyl-5-phenylisoxazole", "Ethyl 5-phenylisoxazole-3-carboxylate", "Ethyl 5-phenylisoxazle-3-carboxylate"], "SMILES": "C(OCC)(=O)C=1C=C(ON1)C2=CC=CC=C2", "physical_data": {"Molecular Weight": "217.22", "Molecular Formula": "C12H11NO3", "Melting Point": "52 \u00b0C"}}