{"cas_no": "7064-38-2", "cn_name": "4-\u7898-5-\u7532\u57fa\u5f02\u6076\u5511", "en_name": ["4-Iodo-5-methylisoxazole", "Isoxazole, 4-iodo-5-methyl-", "4-Iodo-5-methylisoxazole", "4-Iodo-5-methyl-1,2-oxazole"], "SMILES": "IC1=C(C)ON=C1", "physical_data": {"Molecular Weight": "208.99", "Molecular Formula": "C4H4INO", "Melting Point": "28-29 \u00b0C"}}