{"cas_no": "7065-46-5", "cn_name": "3,3-\u4e8c\u7532\u57fa\u4e01\u9170\u6c2f", "en_name": ["3,3-Dimethylbutanoyl chloride", "Butanoyl chloride, 3,3-dimethyl-", "Butyryl chloride, 3,3-dimethyl-", "3,3-Dimethylbutanoyl chloride", "tert-Butylacetyl chloride", "3,3-Dimethylbutyryl chloride", "3,3-Dimethylbutyric acid chloride", "3,3-Dimethylbutanoic acid chloride", "Tert-butylacetyl chloride"], "SMILES": "C(C(C)(C)C)C(Cl)=O", "physical_data": {"Molecular Weight": "134.60", "Molecular Formula": "C6H11ClO", "Boiling Point": "130 \u00b0C", "Density": "0.964 g/cm\u00b3 @ Temp: 20 \u00b0C"}}