{"cas_no": "706811-25-8", "cn_name": "5-(4-\u6eb4\u82ef\u57fa)-6-\u7f9f\u57fa\u5627\u5576-4(1H)-\u916e", "en_name": ["5-(4-Bromophenyl)-6-hydroxy-4(1H)-pyrimidinone", "4(1H)-Pyrimidinone, 5-(4-bromophenyl)-6-hydroxy-", "5-(4-Bromophenyl)-6-hydroxy-4(1H)-pyrimidinone", "5-(4-Bromophenyl)pyrimidine-4,6-diol"], "SMILES": "O=C1C(=C(O)N=CN1)C2=CC=C(Br)C=C2", "physical_data": {"Molecular Weight": "267.08", "Molecular Formula": "C10H7BrN2O2", "Melting Point": "176-180 \u00b0C"}}