{"cas_no": "70693-56-0", "cn_name": "\u4e09\u4e59\u70ef\u57fa\u4e59\u6c27\u57fa\u7845\u70f7", "en_name": ["Triethenylethoxysilane", "Silane, triethenylethoxy-", "Triethenylethoxysilane", "Trivinylethoxysilane", "Ethoxytrivinylsilane"], "SMILES": "[Si](OCC)(C=C)(C=C)C=C", "physical_data": {"Molecular Weight": "154.28", "Molecular Formula": "C8H14OSi", "Boiling Point": "146-147 \u00b0C", "Density": "0.847 g/cm\u00b3"}}