{"cas_no": "70693-47-9", "cn_name": "1,1,1,3,3-\u4e94\u7532\u57fa-3-\u4e59\u9170\u6c27\u57fa\u4e8c\u7845\u6c27\u70f7", "en_name": ["1-Disiloxanol, 1,1,3,3,3-pentamethyl-, 1-acetate", "1-Disiloxanol, 1,1,3,3,3-pentamethyl-, 1-acetate", "Disiloxanol, pentamethyl-, acetate", "Acetoxypentamethyldisiloxane", "1-Acetoxy-1,1,3,3,3-pentamethyldisiloxane", "O-Acetylpentamethyldisiloxanol", "Pentamethyl-1-acetoxydisiloxane", "1,1,1,3,3-Pentamethyl-3-acetoxydisiloxane", "Dimethyl(trimethylsiloxy)silyl acetate", "Acetic acid 1,1,3,3,3-pentamethyldisiloxan-1-yl ester", "[Dimethyl(trimethylsilyloxy)silyl] acetate"], "SMILES": "O([Si](OC(C)=O)(C)C)[Si](C)(C)C", "physical_data": {"Molecular Weight": "206.39", "Molecular Formula": "C7H18O3Si2", "Boiling Point": "149-150 \u00b0C", "Density": "0.900 g/cm\u00b3"}}