{"cas_no": "707-36-8", "cn_name": "1-\u6c2f-3,5-\u4e8c\u7532\u57fa\u91d1\u521a\u70f7", "en_name": ["1-Chloro-3,5-dimethyladamantane", "Tricyclo[3.3.1.13,7]decane, 1-chloro-3,5-dimethyl-", "Adamantane, 1-chloro-3,5-dimethyl-", "1-Chloro-3,5-dimethyltricyclo[3.3.1.13,7]decane", "1-Chloro-3,5-dimethyladamantane", "1,3-Dimethyl-5-chloroadamantane", "5-Chloro-1,3-dimethyladamantane", "3-Chloro-1,5-dimethyl-adamantane"], "SMILES": "CC12CC3(C)CC(Cl)(C1)CC(C2)C3", "physical_data": {"Molecular Weight": "198.73", "Molecular Formula": "C12H19Cl", "Boiling Point": "84-87 \u00b0C @ Press: 4 Torr"}}