{"cas_no": "707-60-8", "cn_name": "N,N-\u4e8c\u7532\u57fa-4-\u6eb4\u82ef\u78fa\u9170\u80fa", "en_name": ["4-Bromo-N,N-dimethylbenzenesulfonamide", "Benzenesulfonamide, 4-bromo-N,N-dimethyl-", "Benzenesulfonamide, p-bromo-N,N-dimethyl-", "4-Bromo-N,N-dimethylbenzenesulfonamide", "p-Bromo-N,N-dimethylbenzenesulfonamide", "N,N-Dimethyl-4-bromobenzenesulfonamide", "NSC 406130"], "SMILES": "S(N(C)C)(=O)(=O)C1=CC=C(Br)C=C1", "physical_data": {"Molecular Weight": "264.14", "Molecular Formula": "C8H10BrNO2S", "Melting Point": "85-108 \u00b0C"}}