{"cas_no": "707-37-9", "cn_name": "3,5-\u4e8c\u7532\u57fa-1-\u91d1\u521a\u70f7\u9187", "en_name": ["1-Hydroxy-3,5-dimethyladamantane", "Tricyclo[3.3.1.13,7]decan-1-ol, 3,5-dimethyl-", "1-Adamantanol, 3,5-dimethyl-", "3,5-Dimethyltricyclo[3.3.1.13,7]decan-1-ol", "3,5-Dimethyl-1-adamantanol", "1-Hydroxy-3,5-dimethyladamantane", "1,3-Dimethyl-5-hydroxyadamantane", "3,5-Dimethyl-1-hydroxyadamantane", "1,3-Dimethyl-5-adamantanol", "NSC 102294", "5,7-Dimethyl-3-adamantanol"], "SMILES": "CC12CC3(C)CC(O)(C1)CC(C2)C3", "physical_data": {"Molecular Weight": "180.29", "Molecular Formula": "C12H20O", "Melting Point": "94 \u00b0C"}}