{"cas_no": "707-07-3", "cn_name": "\u539f\u82ef\u7532\u9178\u4e09\u7532\u916f", "en_name": ["Trimethyl orthobenzoate", "Benzene, (trimethoxymethyl)-", "Orthobenzoic acid, trimethyl ester", "(Trimethoxymethyl)benzene", "Trimethyl orthobenzoate", "Methyl orthobenzoate", "Trimethoxyphenylmethane", "\u03b1,\u03b1,\u03b1-Trimethoxytoluene", "NSC 67391"], "SMILES": "C(OC)(OC)(OC)C1=CC=CC=C1", "physical_data": {"Molecular Weight": "182.22", "Molecular Formula": "C10H14O3", "Boiling Point": "90 \u00b0C @ Press: 35 Torr"}}