{"cas_no": "707-72-2", "cn_name": "2-(\u4e09\u6c1f\u7532\u57fa)\u82c4\u57fa\u4e8c\u6c2f", "en_name": ["1-(Dichloromethyl)-2-(trifluoromethyl)benzene", "Benzene, 1-(dichloromethyl)-2-(trifluoromethyl)-", "o-Xylene, \u03b1\u2032,\u03b1\u2032-dichloro-\u03b1,\u03b1,\u03b1-trifluoro-", "1-(Dichloromethyl)-2-(trifluoromethyl)benzene", "o-Trifluoromethylbenzal chloride", "2-Trifluoromethylbenzal chloride"], "SMILES": "C(F)(F)(F)C1=C(C(Cl)Cl)C=CC=C1", "physical_data": {"Molecular Weight": "229.03", "Molecular Formula": "C8H5Cl2F3", "Boiling Point": "188-190 \u00b0C"}}