{"cas_no": "707-99-3", "cn_name": "9-(2-\u7f9f\u4e59\u57fa)\u817a\u560c\u5464", "en_name": ["9-(2-Hydroxyethyl)adenine", "9H-Purine-9-ethanol, 6-amino-", "6-Amino-9H-purine-9-ethanol", "9-(2-Hydroxyethyl)adenine", "9-(\u03b2-Hydroxyethyl)adenine", "NSC 51467", "2-(6-Amino-9H-purin-9-yl)ethanol", "2-(6-Amino-9H-purin-9-yl)ethan-1-ol", "2-(6-Aminopurin-9-yl)ethanol"], "SMILES": "C(CO)N1C=2C(=C(N)N=CN2)N=C1", "physical_data": {"Molecular Weight": "179.18", "Molecular Formula": "C7H9N5O", "Melting Point": "238-239 \u00b0C"}}