{"cas_no": "707-61-9", "cn_name": "3-\u7532\u57fa-1-\u82ef\u57fa-2-\u78f7 1-\u6c27\u5316\u7269", "en_name": ["3-Methyl-1-phenyl-2-phospholene 1-oxide", "1H-Phosphole, 2,3-dihydro-4-methyl-1-phenyl-, 1-oxide", "2-Phospholene, 3-methyl-1-phenyl-, 1-oxide", "1-Oxo-1-phenyl-3-methyl-2-phospholene", "1-Phenyl-3-methyl-2-phospholene 1-oxide", "1-Oxo-3-methyl-1-phenyl-2-phospholene", "3-Methyl-1-phenyl-2-phospholene 1-oxide", "2,3-Dihydro-4-methyl-1-phenyl-1H-phosphole 1-oxide", "NSC 107634", "3-Methyl-1-phenyl-2-phospholen 1-oxide"], "SMILES": "O=P1(C2=CC=CC=C2)C=C(C)CC1", "physical_data": {"Molecular Weight": "192.19", "Molecular Formula": "C11H13OP", "Boiling Point": "150 \u00b0C @ Press: 0.15 Torr"}}