{"cas_no": "707-35-7", "cn_name": "1,3,5-\u4e09\u7532\u57fa\u91d1\u521a\u70f7", "en_name": ["1,3,5-Trimethyladamantane", "Tricyclo[3.3.1.13,7]decane, 1,3,5-trimethyl-", "Adamantane, 1,3,5-trimethyl-", "1,3,5-Trimethyltricyclo[3.3.1.13,7]decane", "1,3,5-Trimethyladamantane"], "SMILES": "CC12CC3(C)CC(C)(C1)CC(C2)C3", "physical_data": {"Molecular Weight": "178.31", "Molecular Formula": "C13H22", "Boiling Point": "88.0-89.5 \u00b0C @ Press: 19 Torr"}}