{"cas_no": "70702-47-5", "cn_name": "3-(3-\u5421\u5576\u57fa)-D-\u4e19\u6c28\u9178", "en_name": ["(\u03b1R)-\u03b1-Amino-3-pyridinepropanoic acid", "3-Pyridinepropanoic acid, \u03b1-amino-, (\u03b1R)-", "3-Pyridinepropanoic acid, \u03b1-amino-, (R)-", "(\u03b1R)-\u03b1-Amino-3-pyridinepropanoic acid", "3-(3-Pyridyl)-D-alanine", "\u03b2-(3-Pyridyl)-D-alanine", "(2R)-2-Amino-3-(pyridin-3-yl)propanoic acid", "(2R)-2-Azaniumyl-3-pyridin-3-ylpropanoate"], "SMILES": "C(C(C(O)=O)N)C=1C=CC=NC1", "physical_data": {"Molecular Weight": "166.18", "Molecular Formula": "C8H10N2O2", "Melting Point": "167-168 \u00b0C"}}