{"cas_no": "7072-00-6", "cn_name": "10-\u7532\u57fa\u84bd-9-\u7532\u919b", "en_name": ["10-Methyl-9-anthracenecarboxaldehyde", "9-Anthracenecarboxaldehyde, 10-methyl-", "9-Anthraldehyde, 10-methyl-", "10-Methyl-9-anthracenecarboxaldehyde", "10-Methyl-9-anthraldehyde", "10-Methyl-9-anthracenecarbaldehyde", "9-Formyl-10-methylanthracene", "NSC 97075"], "SMILES": "C(=O)C=1C2=C(C(C)=C3C1C=CC=C3)C=CC=C2", "physical_data": {"Molecular Weight": "220.27", "Molecular Formula": "C16H12O", "Melting Point": "171.9-172.6 \u00b0C"}}