{"cas_no": "70735-79-4", "cn_name": "4-\u4e59\u9170\u57fa-2-\u82ef\u5e76\u6076\u5511\u916e", "en_name": ["4-Acetyl-2(3H)-benzoxazolone", "2(3H)-Benzoxazolone, 4-acetyl-", "2-Benzoxazolinone, 4-acetyl-", "4-Acetyl-2(3H)-benzoxazolone", "1-(2-Hydroxy-1,3-benzoxazol-4-yl)ethan-1-one"], "SMILES": "C(C)(=O)C1=C2C(OC(=O)N2)=CC=C1", "physical_data": {"Molecular Weight": "177.16", "Molecular Formula": "C9H7NO3", "Melting Point": "203-204 \u00b0C"}}