{"cas_no": "7073-94-1", "cn_name": "1-\u6eb4-2-\u5f02\u4e19\u57fa\u82ef", "en_name": ["1-Bromo-2-(1-methylethyl)benzene", "Benzene, 1-bromo-2-(1-methylethyl)-", "Cumene, o-bromo-", "1-Bromo-2-(1-methylethyl)benzene", "1-Bromo-2-isopropylbenzene", "2-Isopropylbromobenzene", "o-Bromocumene", "o-Isopropylphenyl bromide", "2-Bromoisopropylbenzene", "o-Isopropylbromobenzene", "o-Bromoisopropylbenzene", "2-Isopropylphenyl bromide", "2-Bromocumene", "2-Isopropyl-1-bromobenzene", "1-Bromo-2-propan-2-ylbenzene", "1-Bromo-2-(propan-2-yl)benzene"], "SMILES": "C(C)(C)C1=C(Br)C=CC=C1", "physical_data": {"Molecular Weight": "199.09", "Molecular Formula": "C9H11Br", "Boiling Point": "90 \u00b0C @ Press: 15 Torr", "Melting Point": "-58.90 \u00b0C", "Density": "1.3035 g/cm\u00b3 @ Temp: 20 \u00b0C"}}