{"cas_no": "70755-47-4", "cn_name": "\u53cc\u5341\u516d\u70f7\u57fa\u4e8c\u7532\u57fa\u6eb4\u5316\u94f5", "en_name": ["Dihexadecyldimethylammonium bromide", "1-Hexadecanaminium, N-hexadecyl-N,N-dimethyl-, bromide (1:1)", "1-Hexadecanaminium, N-hexadecyl-N,N-dimethyl-, bromide", "Dihexadecyldimethylammonium bromide", "Dimethyldihexadecylammonium bromide", "Di-n-hexadecyldimethylammonium bromide", "Dicetyldimethylammonium bromide", "Dipalmityldimethylammonium bromide", "Dicetyldimonium bromide", "Dimethyldipalmitylammonium bromide", "Konstanta A", "Bis(hexadecyl) dimethyl ammonium bromide"], "SMILES": "[N+](CCCCCCCCCCCCCCCC)(CCCCCCCCCCCCCCCC)(C)C.[Br-]", "physical_data": {"Molecular Weight": "", "Molecular Formula": "C34H72N.Br", "Melting Point": "159-162 \u00b0C"}}