{"cas_no": "7077-05-6", "cn_name": "\u53cd\u5f0f\u5bf9\u5f02\u4e19\u57fa\u73af\u5df1\u57fa\u7532\u9178", "en_name": ["trans-4-(1-Methylethyl)cyclohexanecarboxylic acid", "Cyclohexanecarboxylic acid, 4-(1-methylethyl)-, trans-", "Cyclohexanecarboxylic acid, 4-isopropyl-, trans-", "trans-4-(1-Methylethyl)cyclohexanecarboxylic acid", "trans-p-Menthan-7-oic acid", "trans-4-Isopropylcyclohexanecarboxylic acid"], "SMILES": "C(C)(C)C1CCC(C(O)=O)CC1", "physical_data": {"Molecular Weight": "170.25", "Molecular Formula": "C10H18O2", "Melting Point": "94.0-94.5 \u00b0C"}}