{"cas_no": "70775-75-6", "cn_name": "\u5965\u66ff\u5c3c\u5576\u76d0\u9178\u76d0", "en_name": ["Octenidine dihydrochloride", "1-Octanamine, N,N\u2032-(1,10-decanediyldi-1(4H)-pyridinyl-4-ylidene)bis-, hydrochloride (1:2)", "1-Octanamine, N,N\u2032-(1,10-decanediyldi-1(4H)-pyridinyl-4-ylidene)bis-, dihydrochloride", "Octenidine hydrochloride", "Octeniderm", "Octenidine dihydrochloride", "Neo Kodan", "Win 41464-2", "Octenilin", "Octenidol", "Octenidine 2HCl", "Pyridinium, 1,1\u2032-(1,10-decanediyl)bis[4-(octylamino)-, dichloride", "Pyridinium, 1,1\u2032-(1,10-decanediyl)bis[4-(octylamino)-, chloride (1:2)"], "SMILES": "C(CCCCCCCCCN1C=CC(=NCCCCCCCC)C=C1)N2C=CC(=NCCCCCCCC)C=C2.Cl", "physical_data": {"Molecular Weight": "", "Molecular Formula": "C36H62N4.2ClH", "Melting Point": "215-217 \u00b0C"}}