{"cas_no": "70783-75-4", "cn_name": "2-\u6c2f-4-\u4e09\u6c1f\u7532\u6c27\u57fa\u82ef\u915a", "en_name": ["2-Chloro-4-(trifluoromethoxy)phenol", "Phenol, 2-chloro-4-(trifluoromethoxy)-", "2-Chloro-4-(trifluoromethoxy)phenol"], "SMILES": "O(C(F)(F)F)C1=CC(Cl)=C(O)C=C1", "physical_data": {"Molecular Weight": "212.55", "Molecular Formula": "C7H4ClF3O2", "Boiling Point": "67-70 \u00b0C @ Press: 18 Torr"}}