{"cas_no": "7078-98-0", "cn_name": "4-\u82ef\u57fa\u4e9a\u7532\u57fa-2,6-\u4e8c\u53d4\u4e01\u57fa-2,5-\u73af\u5df1\u4e8c\u70ef-1-\u916e", "en_name": ["4-Benzylidene-2,6-di-tert-butylcyclohexa-2,5-dienone", "2,5-Cyclohexadien-1-one, 2,6-bis(1,1-dimethylethyl)-4-(phenylmethylene)-", "2,5-Cyclohexadien-1-one, 4-benzylidene-2,6-di-tert-butyl-", "2,6-Bis(1,1-dimethylethyl)-4-(phenylmethylene)-2,5-cyclohexadien-1-one", "4-Benzylidene-2,6-di-tert-butyl-2,5-cyclohexadien-1-one", "4-Benzylidene-2,6-di-tert-butylcyclohexa-2,5-dienone", "2,6-Di-tert-butyl-4-benzylidene-cyclohexa-2,5-dienone", "4-Phenylmethylene-2,6-di-tert-butyl-2,5-cyclohexadien-1-one", "Genorad 24"], "SMILES": "C(=C1C=C(C(C)(C)C)C(=O)C(C(C)(C)C)=C1)C2=CC=CC=C2", "physical_data": {"Molecular Weight": "294.43", "Molecular Formula": "C21H26O", "Boiling Point": "186 \u00b0C @ Press: 1 Torr", "Melting Point": "74-75 \u00b0C"}}