{"cas_no": "70797-11-4", "cn_name": "\u5934\u5b62\u5339\u80fa", "en_name": ["Cefpiramide", "5-Thia-1-azabicyclo[4.2.0]oct-2-ene-2-carboxylic acid, 7-[[(2R)-2-[[(4-hydroxy-6-methyl-3-pyridinyl)carbonyl]amino]-2-(4-hydroxyphenyl)acetyl]amino]-3-[[(1-methyl-1H-tetrazol-5-yl)thio]methyl]-8-oxo-, (6R,7R)-", "5-Thia-1-azabicyclo[4.2.0]oct-2-ene-2-carboxylic acid, 7-[[[[(4-hydroxy-6-methyl-3-pyridinyl)carbonyl]amino](4-hydroxyphenyl)acetyl]amino]-3-[[(1-methyl-1H-tetrazol-5-yl)thio]methyl]-8-oxo-, [6R-[6\u03b1,7\u03b2(R*)]]-", "5-Thia-1-azabicyclo[4.2.0]oct-2-ene-2-carboxylic acid, 7-[[(2R)-[[(4-hydroxy-6-methyl-3-pyridinyl)carbonyl]amino](4-hydroxyphenyl)acetyl]amino]-3-[[(1-methyl-1H-tetrazol-5-yl)thio]methyl]-8-oxo-, (6R,7R)-", "(6R,7R)-7-[[(2R)-2-[[(4-Hydroxy-6-methyl-3-pyridinyl)carbonyl]amino]-2-(4-hydroxyphenyl)acetyl]amino]-3-[[(1-methyl-1H-tetrazol-5-yl)thio]methyl]-8-oxo-5-thia-1-azabicyclo[4.2.0]oct-2-ene-2-carboxylic acid", "Cefpiramide"], "SMILES": "C(O)(=O)C=1N2C(C(NC(C(NC(=O)C=3C(O)=CC(C)=NC3)C4=CC=C(O)C=C4)=O)C2=O)SCC1CSC=5N(C)N=NN5", "physical_data": {"Molecular Weight": "612.64", "Molecular Formula": "C25H24N8O7S2", "Melting Point": "213-215 \u00b0C"}}