{"cas_no": "708-25-8", "cn_name": "2,5-\u4e8c\u6c1f\u82ef\u7532\u9178\u4e59\u916f", "en_name": ["Benzoic acid, 2,5-difluoro-, ethyl ester", "Benzoic acid, 2,5-difluoro-, ethyl ester", "Ethyl 2,5-difluorobenzoate", "Ethyl 2-fluoro-5-fluorobenzoate"], "SMILES": "C(OCC)(=O)C1=C(F)C=CC(F)=C1", "physical_data": {"Molecular Weight": "186.16", "Molecular Formula": "C9H8F2O2", "Boiling Point": "98-99 \u00b0C @ Press: 18 Torr"}}