{"cas_no": "708-79-2", "cn_name": "1-\u7532\u57fa\u5c3f\u9178", "en_name": ["1-Methyluric acid", "1H-Purine-2,6,8(3H)-trione, 7,9-dihydro-1-methyl-", "Uric acid, 1-methyl-", "7,9-Dihydro-1-methyl-1H-purine-2,6,8(3H)-trione", "1-Methyluric acid", "N1-Methyluric acid", "1-Methyl-2,3,6,7,8,9-hexahydro-1H-purine-2,6,8-trione", "1-Methyl-1H-purine-2,6,8(3H,7H,9H)-trione", "1-Methyl-7,9-dihydro-3H-purine-2,6,8-trione"], "SMILES": "O=C1C2=C(NC(=O)N1C)NC(=O)N2", "physical_data": {"Molecular Weight": "182.14", "Molecular Formula": "C6H6N4O3", "Melting Point": "202-203 \u00b0C"}}