{"cas_no": "708-76-9", "cn_name": "4,6-\u4e8c\u7532\u6c27\u57fa\u6c34\u6768\u919b", "en_name": ["4,6-Dimethoxysalicylaldehyde", "Benzaldehyde, 2-hydroxy-4,6-dimethoxy-", "Salicylaldehyde, 4,6-dimethoxy-", "2-Hydroxy-4,6-dimethoxybenzaldehyde", "4,6-Dimethoxysalicylaldehyde", "2,4-Dimethoxy-6-hydroxybenzaldehyde", "4,6-Dimethoxy-2-hydroxybenzaldehyde", "2-Formyl-3,5-dimethoxyphenol"], "SMILES": "O(C)C1=C(C=O)C(O)=CC(OC)=C1", "physical_data": {"Molecular Weight": "182.17", "Molecular Formula": "C9H10O4", "Melting Point": "70 \u00b0C"}}