{"cas_no": "708-06-5", "cn_name": "2-\u7f9f\u57fa-1-\u8418\u7532\u919b", "en_name": ["2-Hydroxy-1-naphthaldehyde", "1-Naphthalenecarboxaldehyde, 2-hydroxy-", "1-Naphthaldehyde, 2-hydroxy-", "2-Hydroxy-1-naphthalenecarboxaldehyde", "2-Hydroxy-\u03b1-naphthaldehyde", "2-Hydroxynaphthaldehyde", "1-Formyl-2-naphthol", "\u03b2-Hydroxynaphthaldehyde", "\u03b2-Hydroxy-\u03b1-naphthaldehyde", "NC 014", "2-Hydroxy-1-naphthaldehyde", "1-Formyl-2-hydroxynaphthalene", "2-Hydroxynaphthalenecarboxaldehyde", "NSC 2104", "NSC 402586", "2-Hydroxy-1-naphthalenealdehyde", "1-Formylnaphthalen-2-ol", "2-Hydroxy-1-formylnaphthalene", "2-Hydroxynaphthyl-1-carboxaldehyde"], "SMILES": "C(=O)C=1C2=C(C=CC1O)C=CC=C2", "physical_data": {"Molecular Weight": "172.18", "Molecular Formula": "C11H8O2", "Boiling Point": "185-187 \u00b0C @ Press: 25-27 Torr", "Melting Point": "83 \u00b0C", "Density": "1.41 g/cm\u00b3"}}