{"cas_no": "708-15-6", "cn_name": "2-\u6c28\u57fa-8-\u7532\u6c27\u57fa\u55b9\u5511\u5549", "en_name": ["8-Methoxy-2-quinazolinamine", "2-Quinazolinamine, 8-methoxy-", "Quinazoline, 2-amino-8-methoxy-", "8-Methoxy-2-quinazolinamine", "2-Amino-8-methoxyquinazoline"], "SMILES": "O(C)C=1C2=C(C=NC(N)=N2)C=CC1", "physical_data": {"Molecular Weight": "175.19", "Molecular Formula": "C9H9N3O", "Melting Point": "150-152 \u00b0C"}}