{"cas_no": "70810-24-1", "cn_name": "1,7-\u4e8c\u6c2f\u5f02\u55b9\u5549", "en_name": ["1,7-Dichloroisoquinoline", "Isoquinoline, 1,7-dichloro-", "1,7-Dichloroisoquinoline"], "SMILES": "ClC=1C2=C(C=CC(Cl)=C2)C=CN1", "physical_data": {"Molecular Weight": "198.05", "Molecular Formula": "C9H5Cl2N", "Melting Point": "138 \u00b0C"}}