{"cas_no": "7081-40-5", "cn_name": "1-\u7532\u57fa-3-(9H-\u567b\u5428-9-\u7532\u57fa)\u54cc\u5576\u76d0\u9178\u76d0\u4e00\u6c34\u5408\u7269", "en_name": ["Piperidine, 1-methyl-3-(9H-thioxanthen-9-ylmethyl)-, hydrochloride, hydrate (1:1:1)", "Piperidine, 1-methyl-3-(9H-thioxanthen-9-ylmethyl)-, hydrochloride, hydrate (1:1:1)", "Piperidine, 1-methyl-3-(thioxanthen-9-ylmethyl)-, hydrochloride, monohydrate", "Piperidine, 1-methyl-3-(9H-thioxanthen-9-ylmethyl)-, hydrochloride, monohydrate", "9H-Thioxanthene, piperidine deriv.", "SJ 1977", "Methixene hydrochloride hydrate", "1-Methyl-3-(thioxanthen-9-ylmethyl)piperidine hydrochloride hydrate", "Methixene monohydrochloride monohydrate", "3-((9H-Thioxanthen-9-yl)methyl)-1-methylpiperidine hydrochloride hydrate"], "SMILES": "C(C1C=2C(SC=3C1=CC=CC3)=CC=CC2)C4CN(C)CCC4.Cl.O", "physical_data": {"Molecular Weight": "", "Molecular Formula": "C20H23NS.ClH.H2O", "Melting Point": "215-217 \u00b0C"}}