{"cas_no": "7081-44-9", "cn_name": "\u6c2f\u5511\u897f\u6797\u94a0\u4e00\u6c34\u5408\u7269", "en_name": ["Sodium cloxacillin monohydrate", "4-Thia-1-azabicyclo[3.2.0]heptane-2-carboxylic acid, 6-[[[3-(2-chlorophenyl)-5-methyl-4-isoxazolyl]carbonyl]amino]-3,3-dimethyl-7-oxo-, sodium salt, hydrate (1:1:1), (2S,5R,6R)-", "4-Thia-1-azabicyclo[3.2.0]heptane-2-carboxylic acid, 6-[3-(o-chlorophenyl)-5-methyl-4-isoxazolecarboxamido]-3,3-dimethyl-7-oxo-, monosodium salt, monohydrate", "4-Thia-1-azabicyclo[3.2.0]heptane-2-carboxylic acid, 6-[[[3-(2-chlorophenyl)-5-methyl-4-isoxazolyl]carbonyl]amino]-3,3-dimethyl-7-oxo-, monosodium salt, monohydrate, [2S-(2\u03b1,5\u03b1,6\u03b2)]-", "4-Thia-1-azabicyclo[3.2.0]heptane-2-carboxylic acid, 6-[[[3-(2-chlorophenyl)-5-methyl-4-isoxazolyl]carbonyl]amino]-3,3-dimethyl-7-oxo-, monosodium salt, monohydrate, (2S,5R,6R)-", "3-(o-Chlorophenyl)-5-methyl-4-isoxazolyl penicillin sodium salt monohydrate", "Sodium 6-[3-(o-Chlorophenyl)-5-methyl-4-isoxazolecarboxamido]-3,3-dimethyl-7-oxo-4-thia-1-azabicyclo[3.2.0]heptane-2-carboxylate hydrate", "Sodium cloxacillin monohydrate", "Cloxacillin sodium hydrate"], "SMILES": "N(C(=O)C=1C(=NOC1C)C2=C(Cl)C=CC=C2)C3C4N(C(C(O)=O)C(C)(C)S4)C3=O.[Na].O", "physical_data": {"Molecular Weight": "", "Molecular Formula": "C19H18ClN3O5S.H2O.Na", "Melting Point": "170 \u00b0C (decomp)"}}