{"cas_no": "7081-53-0", "cn_name": "\u76d0\u9178\u591a\u6c99\u666e\u4ed1", "en_name": ["2-Pyrrolidinone, 1-ethyl-4-[2-(4-morpholinyl)ethyl]-3,3-diphenyl-, hydrochloride, hydrate (1:1:1)", "2-Pyrrolidinone, 1-ethyl-4-[2-(4-morpholinyl)ethyl]-3,3-diphenyl-, hydrochloride, hydrate (1:1:1)", "2-Pyrrolidinone, 1-ethyl-4-(2-morpholinoethyl)-3,3-diphenyl-, monohydrochloride, monohydrate", "2-Pyrrolidinone, 1-ethyl-4-[2-(4-morpholinyl)ethyl]-3,3-diphenyl-, monohydrochloride, monohydrate", "AHR 619", "Doxapram hydrochloride hydrate", "1-Ethyl-4-(2-morpholinoethyl)-3,3-diphenyl-2-pyrrolidinone hydrochloride hydrate", "Doxapram hydrochloride monohydrate", "1-Ethyl-4-[2-(morpholin-4-yl)ethyl]-3,3-diphenylpyrrolidin-2-one hydrate hydrochloride"], "SMILES": "C(CN1CCOCC1)C2C(C(=O)N(CC)C2)(C3=CC=CC=C3)C4=CC=CC=C4.Cl.O", "physical_data": {"Molecular Weight": "", "Molecular Formula": "C24H30N2O2.ClH.H2O", "Melting Point": "217-219 \u00b0C"}}