{"cas_no": "7082-71-5", "cn_name": "\u7570\u83f8\u9e7c[\u9178]\u9150", "en_name": ["4-Pyridinecarboxylic acid, anhydride with 4-pyridinecarboxylic acid", "4-Pyridinecarboxylic acid, anhydride with 4-pyridinecarboxylic acid", "Isonicotinic anhydride", "4-Pyridinecarboxylic acid, anhydride", "Isonicotinic acid anhydride", "NSC 139658"], "SMILES": "C(OC(=O)C=1C=CN=CC1)(=O)C=2C=CN=CC2", "physical_data": {"Molecular Weight": "228.20", "Molecular Formula": "C12H8N2O3", "Melting Point": "103-104 \u00b0C"}}