{"cas_no": "7083-19-4", "cn_name": "2-\u7532\u6c27\u57fa-5-\u7532\u57fa\u82ef\u7532\u919b", "en_name": ["2-Methoxy-5-methylbenzaldehyde", "Benzaldehyde, 2-methoxy-5-methyl-", "o-Anisaldehyde, 5-methyl-", "2-Methoxy-5-methylbenzaldehyde", "5-Methyl-2-methoxybenzaldehyde"], "SMILES": "O(C)C1=C(C=O)C=C(C)C=C1", "physical_data": {"Molecular Weight": "150.17", "Molecular Formula": "C9H10O2", "Boiling Point": "138-139 \u00b0C @ Press: 19 Torr", "Density": "1.0056 g/cm\u00b3 @ Temp: 20 \u00b0C"}}