{"cas_no": "7085-19-0", "cn_name": "2-\u7532\u57fa-4-\u6c2f\u620a\u6c27\u57fa\u4e19\u9178", "en_name": ["Mecoprop", "Propanoic acid, 2-(4-chloro-2-methylphenoxy)-", "Propionic acid, 2-[(4-chloro-o-tolyl)oxy]-", "2-(4-Chloro-2-methylphenoxy)propanoic acid", "\u03b1-(2-Methyl-4-chlorophenoxy)propionic acid", "2-(2-Methyl-4-chlorophenoxy)propionic acid", "2-(4-Chloro-2-methylphenoxy)propionic acid", "2-(p-Chloro-o-tolyloxy)propionic acid", "2-(2-Methyl-4-chlorophenoxy)propanoic acid", "2M4KhP", "Anicon B", "2-(4-Chloro-o-tolyloxy)propionic acid", "(\u00b1)-2-(4-Chloro-2-methylphenoxy)propionic acid", "Mecoprop", "Isocarnox", "MCPP", "CMPP", "Mechlorprop", "Rankotex", "Compitox", "Anicon P", "Celatox CMPP", "Okultin MP", "(\u00b1)-2-(4-Chloro-2-methylphenoxy)propanoic acid", "SYS 67 Mecmin", "U 46 KV Fluid", "Morogal", "(\u00b1)-Mecoprop", "NSC 60282", "MCPP (herbicide)"], "SMILES": "O(C(C(O)=O)C)C1=C(C)C=C(Cl)C=C1", "physical_data": {"Molecular Weight": "214.65", "Molecular Formula": "C10H11ClO3", "Boiling Point": "298 \u00b0C", "Melting Point": "94-95 \u00b0C"}}