{"cas_no": "70851-50-2", "cn_name": "\u5341\u516b\u70f7\u57fa\u7532\u57fa\u4e8c\u7532\u6c27\u57fa\u7845\u70f7", "en_name": ["Dimethoxymethyloctadecylsilane", "Silane, dimethoxymethyloctadecyl-", "Dimethoxymethyloctadecylsilane", "LSX 6816", "Octadecylmethyldimethoxysilane", "HD 118", "SIO 6629.1"], "SMILES": "[Si](CCCCCCCCCCCCCCCCCC)(OC)(OC)C", "physical_data": {"Molecular Weight": "358.67", "Molecular Formula": "C21H46O2Si", "Boiling Point": "190 \u00b0C @ Press: 3 Torr", "Melting Point": "12-18 \u00b0C", "Density": "0.85 g/cm\u00b3"}}