{"cas_no": "70851-49-9", "cn_name": "\u4e8c\u7532\u57fa\u7845\u6742-14-\u51a0\u919a-5", "en_name": ["Dimethylsila-14-crown-5", "1,3,6,9,12-Pentaoxa-2-silacyclotetradecane, 2,2-dimethyl-", "2,2-Dimethyl-1,3,6,9,12-pentaoxa-2-silacyclotetradecane", "Dimethylsila-14-crown-5"], "SMILES": "C[Si]1(C)OCCOCCOCCOCCO1", "physical_data": {"Molecular Weight": "250.36", "Molecular Formula": "C10H22O5Si", "Boiling Point": "125-129 \u00b0C @ Press: 0.5 Torr", "Density": "1.080 g/cm\u00b3"}}