{"cas_no": "70851-52-4", "cn_name": "\u6b63\u4e09\u5341\u70f7\u57fa\u4e8c\u7532\u57fa\u6c2f\u7845\u70f7", "en_name": ["Triacontyldimethylchlorosilane", "Silane, chlorodimethyltriacontyl-", "Chlorodimethyltriacontylsilane", "Dimethyltriacontylchlorosilane", "Triacontyldimethylchlorosilane"], "SMILES": "C(CCCCCCCCCCCCCCCCCCCCCCCCCCC)CC[Si](C)(C)Cl", "physical_data": {"Molecular Weight": "515.41", "Molecular Formula": "C32H67ClSi", "Melting Point": "60-82 \u00b0C"}}