{"cas_no": "7085-55-4", "cn_name": "\u66f2\u514b\u82a6\u4e01", "en_name": ["Troxerutin", "4H-1-Benzopyran-4-one, 2-[3,4-bis(2-hydroxyethoxy)phenyl]-3-[[6-O-(6-deoxy-\u03b1-L-mannopyranosyl)-\u03b2-D-glucopyranosyl]oxy]-5-hydroxy-7-(2-hydroxyethoxy)-", "Flavone, 3,5-dihydroxy-3\u2032,4\u2032,7-tris(2-hydroxyethoxy)-, 3-[6-O-(6-deoxy-\u03b1-L-mannopyranosyl)-\u03b2-D-glucopyranoside]", "2-[3,4-Bis(2-hydroxyethoxy)phenyl]-3-[[6-O-(6-deoxy-\u03b1-L-mannopyranosyl)-\u03b2-D-glucopyranosyl]oxy]-5-hydroxy-7-(2-hydroxyethoxy)-4H-1-benzopyran-4-one", "3\u2032,4\u2032,7-Tris(hydroxyethyl)rutin", "Troxerutin", "Vitamin P4", "Z 6000", "3,5-Dihydroxy-3\u2032,4\u2032,7-tris(2-hydroxyethoxy)flavone 3-rutinoside", "3\u2032,4\u2032,7-Tri-O-(\u03b2-hydroxyethyl)rutoside", "Tris(hydroxyethyl)rutoside", "Venoruton P4", "Tris-O-(\u03b2-hydroxyethyl)rutoside", "Factor P-Zyma", "Rufen-P4", "Tris(hydroxyethyl)rutin", "Tris-O-(2-hydroxyethyl)rutin", "TriHER", "Troxerutine", "Ruven", "Vastribil", "THR", "Trioxyethylrutin", "Veinamitol", "Veniten", "Posorutin", "Troxevazin"], "SMILES": "O(C1=C(OC=2C(C1=O)=C(O)C=C(OCCO)C2)C3=CC(OCCO)=C(OCCO)C=C3)C4OC(COC5C(O)C(O)C(O)C(C)O5)C(O)C(O)C4O", "physical_data": {"Molecular Weight": "742.68", "Molecular Formula": "C33H42O19", "Melting Point": "181 \u00b0C"}}