{"cas_no": "7085-85-0", "cn_name": "\u6c30\u57fa\u4e19\u70ef\u9178\u4e59\u916f", "en_name": ["Ethyl cyanoacrylate", "2-Propenoic acid, 2-cyano-, ethyl ester", "Acrylic acid, 2-cyano-, ethyl ester", "Ethyl \u03b1-cyanoacrylate", "Ethyl 2-cyanoacrylate", "Ethyl cyanoacrylate", "N 135", "910EM", "DA 737S", "Cyanobond W 300", "Cemedine 3000RP", "Cemedine 3000RP Type-II", "Cemedine 3000RS", "Cemedine 3000RS Type-II", "Adhesive 502", "Cyanobond W 100", "PTR-E 3", "PTR-E 40", "Super 3-1000", "CN 2", "ACE-EE", "ACE-E 50", "CN 4", "CA 3 (adhesive)", "CA 3", "CA 8-3A", "Cyanon 5MSP", "Super Glue", "Aron Alpha D", "Black Max", "TK 200", "TK 201", "Aron Alpha 402X", "Cyanon S", "Sicomet 8400", "Super Bonder 498", "N 135 (acrylate)", "TB 1741", "Three Bond 1741", "2-Cyanoacrylic acid ethyl ester", "TB 1743", "Three Bond 1743", "Cyanobond RP-X", "Sicomet Smart Power 100", "Diabond 8200", "TK 200 (adhesive)", "Sicomet 5195", "QX 4", "RP-QS", "Anacure 3020", "2-Cyano-2-propenoic acid ethyl ester", "Cyanon SL", "Loctite E 406", "E 50", "Phyx-All", "Loctite 409", "Loctite 409 Super Bonder", "Sicomet 40", "Epiglue", "Cyanobloom", "Loctite 4305", "Three Bond 1771E", "Loctite 4304", "Three Bond 1773E", "Three Bond 3056F", "Loctite Super Glue", "Ethyl 2-cyanopropenoate", "Loctite 454", "EZ 300", "Loctite 406", "Bostik Super Glue", "EC 5 clear", "Super Bonder 409", "409 Super Bonder"], "SMILES": "C(C(C#N)=C)(OCC)=O", "physical_data": {"Molecular Weight": "125.13", "Molecular Formula": "C6H7NO2", "Boiling Point": "54-56 \u00b0C", "Density": "1.0565 g/cm\u00b3 @ Temp: 20 \u00b0C"}}