{"cas_no": "70872-29-6", "cn_name": "2,3-\u4e8c\u6c22-7-\u7f9f\u57fa-2-(4-\u7f9f\u57fa\u82ef\u57fa)-5-\u7532\u6c27\u57fa-8-(3-\u7532\u57fa-2-\u4e01\u70ef\u57fa)-4H-1-\u82ef\u5e76\u5421\u5583-4-\u916e", "en_name": ["Isoxanthohumol", "4H-1-Benzopyran-4-one, 2,3-dihydro-7-hydroxy-2-(4-hydroxyphenyl)-5-methoxy-8-(3-methyl-2-buten-1-yl)-, (2S)-", "4H-1-Benzopyran-4-one, 2,3-dihydro-7-hydroxy-2-(4-hydroxyphenyl)-5-methoxy-8-(3-methyl-2-butenyl)-, (S)-", "4H-1-Benzopyran-4-one, 2,3-dihydro-7-hydroxy-2-(4-hydroxyphenyl)-5-methoxy-8-(3-methyl-2-butenyl)-, (2S)-", "(2S)-2,3-Dihydro-7-hydroxy-2-(4-hydroxyphenyl)-5-methoxy-8-(3-methyl-2-buten-1-yl)-4H-1-benzopyran-4-one", "Isoxanthohumol", "Isoxanthohumol (Sophora)", "(2S)-7,4\u2032-Dihydroxy-5-methoxy-8-(\u03b3,\u03b3-dimethylallyl)flavanone", "(-)-Isoxanthohumol", "(2S)-7-Hydroxy-2-(4-hydroxyphenyl)-5-methoxy-8-(3-methylbut-2-enyl)-2,3-dihydrochromen-4-one"], "SMILES": "C(C=C(C)C)C1=C2C(=C(OC)C=C1O)C(=O)CC(O2)C3=CC=C(O)C=C3", "physical_data": {"Molecular Weight": "354.40", "Molecular Formula": "C21H22O5", "Melting Point": "196-208 \u00b0C"}}