{"cas_no": "7087-68-5", "cn_name": "N,N-\u4e8c\u5f02\u4e19\u57fa\u4e59\u80fa", "en_name": ["Diisopropylethylamine", "2-Propanamine, N-ethyl-N-(1-methylethyl)-", "Triethylamine, 1,1\u2032-dimethyl-", "N-Ethyl-N-(1-methylethyl)-2-propanamine", "N-Ethyldiisopropylamine", "Ethyldiisopropylamine", "N-Ethyl-N,N-diisopropylamine", "N,N-Diisopropylethylamine", "Diisopropylethylamine", "1,1\u2032-Dimethyltriethylamine", "Huenig's base", "Hunig's base", "DIEA", "Hunig's reagent", "Bis(1-methylethyl)ethylamine", "NSC 147491", "Ethyl-N,N-diisopropylamine", "N,N-Bis(1-methylethyl)-N-ethylamine", "N-Ethyl-N-isopropylpropan-2-amine", "DIPEA", "N-Ethyl-N-propan-2-ylpropan-2-amine", "Ethylbis(propan-2-yl)amine"], "SMILES": "N(C(C)C)(C(C)C)CC", "physical_data": {"Molecular Weight": "129.24", "Molecular Formula": "C8H19N", "Boiling Point": "126.5 \u00b0C", "Melting Point": "126-128 \u00b0C"}}