{"cas_no": "70877-75-7", "cn_name": "(9S)- CINCHONAN-6',9-DIOL", "en_name": ["Cupreidine", "Cinchonan-6\u2032,9-diol, (9S)-", "(9S)-Cinchonan-6\u2032,9-diol", "6\u2032-Hydroxycinchonine", "Cupreidine", "O-Desmethylquinidine", "O-Demethylquinidine", "Demethylquinidine"], "SMILES": "C(O)(C1N2CC(C=C)C(C1)CC2)C=3C4=C(N=CC3)C=CC(O)=C4", "physical_data": {"Molecular Weight": "310.39", "Molecular Formula": "C19H22N2O2", "Melting Point": "186-190 \u00b0C"}}