{"cas_no": "7089-68-1", "cn_name": "2-\u6c2f-1,10-\u83f2\u54af\u5549", "en_name": ["2-Chloro-1,10-phenanthroline", "1,10-Phenanthroline, 2-chloro-", "2-Chloro-1,10-phenanthroline", "2-Chloro-1,10-diazaphenanthrene", "VUF 7730"], "SMILES": "ClC1=NC2=C3C(=CC=C2C=C1)C=CC=N3", "physical_data": {"Molecular Weight": "214.65", "Molecular Formula": "C12H7ClN2", "Melting Point": "151 \u00b0C"}}