{"cas_no": "709-49-9", "cn_name": "2,4-\u4e8c\u785d\u57fa\u7898\u82ef", "en_name": ["2,4-Dinitroiodobenzene", "Benzene, 1-iodo-2,4-dinitro-", "1-Iodo-2,4-dinitrobenzene", "2,4-Dinitroiodobenzene", "1,3-Dinitro-4-iodobenzene", "2,4-Dinitrophenyl iodide", "4-Iodo-1,3-dinitrobenzene", "NSC 10266", "2,4-Dinitro-1-iodobenzene", "6-Iodo-1,3-dinitrobenzene"], "SMILES": "N(=O)(=O)C1=CC(N(=O)=O)=CC=C1I", "physical_data": {"Molecular Weight": "294.00", "Molecular Formula": "C6H3IN2O4", "Melting Point": "88.7 \u00b0C"}}