{"cas_no": "709-50-2", "cn_name": "\u7532\u57fa \u0392-D-\u5421\u5583\u8461\u8404\u7cd6\u82f7", "en_name": ["Methyl \u03b2-D-glucopyranoside", "\u03b2-D-Glucopyranoside, methyl", "Glucopyranoside, methyl, \u03b2-D-", "Methyl \u03b2-D-glucopyranoside", "Methyl \u03b2-D-glucoside", "NSC 403457", "1-O-Methyl-\u03b2-D-glucopyranoside", "\u03b2-Methyl glucoside", "Methylglucopyranoside"], "SMILES": "C(O)C1OC(OC)C(O)C(O)C1O", "physical_data": {"Molecular Weight": "194.18", "Molecular Formula": "C7H14O6", "Melting Point": "102-104 \u00b0C", "Density": "1.030670 g/cm\u00b3 @ Temp: 20 \u00b0C"}}