{"cas_no": "709-98-8", "cn_name": "\u654c\u7a17", "en_name": ["Propanil", "Propanamide, N-(3,4-dichlorophenyl)-", "Propionanilide, 3\u2032,4\u2032-dichloro-", "N-(3,4-Dichlorophenyl)propanamide", "Stam F 34", "FW 734", "N-(3,4-Dichlorophenyl)propionamide", "3\u2032,4\u2032-Dichloropropionanilide", "DPA", "Propanil", "Propionic acid 3,4-dichloroanilide", "Rogue", "Surcopur", "Propanide", "Stam", "Stam LV 10", "DCPA", "Propanid", "Synpran N", "Chem Rice", "Strel", "Propagrin 36", "Propanex", "Stampede 360", "Riverside propanil 60DF", "Wham EZ", "Stam 80EDF", "Stam M 4", "NSC 31312", "Stam Novel Flo 480", "Propasint", "Riceshot", "Stam 480EC", "MeSH ID: D011411"], "SMILES": "N(C(CC)=O)C1=CC(Cl)=C(Cl)C=C1", "physical_data": {"Molecular Weight": "218.08", "Molecular Formula": "C9H9Cl2NO", "Melting Point": "85-89 \u00b0C", "Density": "1.054 g/cm\u00b3 @ Temp: 25 \u00b0C"}}