{"cas_no": "709-09-1", "cn_name": "3,4-\u4e8c\u7532\u6c27\u57fa\u785d\u57fa\u82ef", "en_name": ["1,2-Dimethoxy-4-nitrobenzene", "Benzene, 1,2-dimethoxy-4-nitro-", "Veratrole, 4-nitro-", "1,2-Dimethoxy-4-nitrobenzene", "3,4-Dimethoxynitrobenzene", "4-Nitroveratrole", "4-Nitro-1,2-dimethoxybenzene", "NSC 10116", "NSC 27974", "NSC 93382"], "SMILES": "O(C)C1=C(OC)C=CC(N(=O)=O)=C1", "physical_data": {"Molecular Weight": "183.16", "Molecular Formula": "C8H9NO4", "Melting Point": "98 \u00b0C"}}