{"cas_no": "709-72-8", "cn_name": "1-(3-\u785d\u57fa\u82ef\u57fa)-2-\u786b\u8132", "en_name": ["(3-Nitrophenyl)thiourea", "Thiourea, N-(3-nitrophenyl)-", "Urea, 1-(m-nitrophenyl)-2-thio-", "Thiourea, (3-nitrophenyl)-", "N-(3-Nitrophenyl)thiourea", "(m-Nitrophenyl)thiourea", "(3-Nitrophenyl)thiourea", "1-(3-Nitrophenyl)thiourea", "NSC 407996", "1-(3-Nitrophenyl)-2-thiourea"], "SMILES": "N(C(N)=S)C1=CC(N(=O)=O)=CC=C1", "physical_data": {"Molecular Weight": "197.21", "Molecular Formula": "C7H7N3O2S", "Melting Point": "156 \u00b0C"}}