{"cas_no": "709-63-7", "cn_name": "4'-\u4e09\u6c1f\u7532\u57fa\u82ef\u4e59\u916e", "en_name": ["4-(Trifluoromethyl)acetophenone", "Ethanone, 1-[4-(trifluoromethyl)phenyl]-", "Acetophenone, 4\u2032-(trifluoromethyl)-", "1-[4-(Trifluoromethyl)phenyl]ethanone", "4-(Trifluoromethyl)acetophenone", "p-(Trifluoromethyl)acetophenone", "4\u2032-(Trifluoromethyl)acetophenone", "(4-Trifluoromethylphenyl) methyl ketone", "1-[4-(Trifluoromethyl)phenyl]-1-ethanone", "NSC 88346", "1-Acetyl-4-(trifluoromethyl)benzene", "Methyl 4-trifluoromethylphenyl ketone", "4-Acetylbenzotrifluoride"], "SMILES": "C(F)(F)(F)C1=CC=C(C(C)=O)C=C1", "physical_data": {"Molecular Weight": "188.15", "Molecular Formula": "C9H7F3O", "Boiling Point": "79.5 \u00b0C", "Melting Point": "31 \u00b0C"}}