{"cas_no": "709031-28-7", "cn_name": "2-(3-\u7f9f\u57fa-1-\u91d1\u521a\u70f7)-2-\u6c27\u4ee3\u4e59\u9178", "en_name": ["2-(3-Hydroxy-1-adamantyl)-2-oxoacetic acid", "Tricyclo[3.3.1.13,7]decane-1-acetic acid, 3-hydroxy-\u03b1-oxo-", "3-Hydroxy-\u03b1-oxotricyclo[3.3.1.13,7]decane-1-acetic acid", "2-(3-Hydroxy-1-adamantyl)-2-oxoacetic acid", "2-(3-Hydroxyadamantan-1-yl)-2-oxoacetic acid"], "SMILES": "C(C(O)=O)(=O)C12CC3(O)CC(C1)CC(C2)C3", "physical_data": {"Molecular Weight": "224.25", "Molecular Formula": "C12H16O4", "Melting Point": "164-165 \u00b0C"}}