{"cas_no": "70918-74-0", "cn_name": "N-[(1,4-\u82ef\u5e76\u4e8c\u70f7-2-\u57fa)\u7fb0\u57fa]\u54cc\u55ea\u76d0\u9178\u76d0", "en_name": ["Methanone, (2,3-dihydro-1,4-benzodioxin-2-yl)-1-piperazinyl-, hydrochloride (1:1)", "Methanone, (2,3-dihydro-1,4-benzodioxin-2-yl)-1-piperazinyl-, hydrochloride (1:1)", "Piperazine, 1-[(2,3-dihydro-1,4-benzodioxin-2-yl)carbonyl]-, monohydrochloride", "1,4-Benzodioxin, piperazine deriv.", "1-(2,3-Dihydro-1,4-benzodioxin-2-ylcarbonyl)piperazine hydrochloride", "1-(2,3-Dihydro-1,4-benzodioxine-2-carbonyl)piperazine hydrochloride"], "SMILES": "C(=O)(C1OC=2C(OC1)=CC=CC2)N3CCNCC3.Cl", "physical_data": {"Molecular Weight": "", "Molecular Formula": "C13H16N2O3.ClH", "Melting Point": "262-263 \u00b0C"}}