{"cas_no": "70918-00-2", "cn_name": "N-(1,4-\u82ef\u5e76\u4e8c\u70f7-2-\u7fb0\u57fa)\u54cc\u55ea", "en_name": ["1-[(2,3-Dihydro-1,4-benzodioxin-2-yl)carbonyl]piperazine", "Methanone, (2,3-dihydro-1,4-benzodioxin-2-yl)-1-piperazinyl-", "Piperazine, 1-[(2,3-dihydro-1,4-benzodioxin-2-yl)carbonyl]-", "1,4-Benzodioxin, piperazine deriv.", "(2,3-Dihydro-1,4-benzodioxin-2-yl)-1-piperazinylmethanone", "1-(1,4-Benzodioxan-2-ylcarbonyl)piperazine", "1-[(2,3-Dihydro-1,4-benzodioxin-2-yl)carbonyl]piperazine", "(2,3-Dihydrobenzo[b][1,4]dioxin-2-yl)(piperazin-1-yl)methanone", "1-(2,3-Dihydro-1,4-benzodioxine-2-carbonyl)piperazine", "2,3-Dihydro-1,4-benzodioxin-3-yl(piperazin-1-yl)methanone"], "SMILES": "C(=O)(C1OC=2C(OC1)=CC=CC2)N3CCNCC3", "physical_data": {"Molecular Weight": "248.28", "Molecular Formula": "C13H16N2O3", "Melting Point": "85-87 \u00b0C"}}