{"cas_no": "70918-01-3", "cn_name": "\u76d0\u9178\u591a\u6c99\u5511\u55ea", "en_name": ["Methanone, [4-(4-amino-6,7-dimethoxy-2-quinazolinyl)-1-piperazinyl](2,3-dihydro-1,4-benzodioxin-2-yl)-, hydrochloride (1:1)", "Methanone, [4-(4-amino-6,7-dimethoxy-2-quinazolinyl)-1-piperazinyl](2,3-dihydro-1,4-benzodioxin-2-yl)-, hydrochloride (1:1)", "Piperazine, 1-(4-amino-6,7-dimethoxy-2-quinazolinyl)-4-[(2,3-dihydro-1,4-benzodioxin-2-yl)carbonyl]-, monohydrochloride", "1,4-Benzodioxin, piperazine deriv."], "SMILES": "NC=1C2=C(N=C(N1)N3CCN(C(=O)C4OC=5C(OC4)=CC=CC5)CC3)C=C(OC)C(OC)=C2.Cl", "physical_data": {"Molecular Weight": "", "Molecular Formula": "C23H25N5O5.ClH", "Melting Point": "289-290 \u00b0C"}}