{"cas_no": "7094-27-1", "cn_name": "1,1,4-\u4e09\u7532\u57fa\u73af\u5df1\u70f7", "en_name": ["1,1,4-Trimethylcyclohexane", "Cyclohexane, 1,1,4-trimethyl-", "1,1,4-Trimethylcyclohexane"], "SMILES": "CC1(C)CCC(C)CC1", "physical_data": {"Molecular Weight": "126.24", "Molecular Formula": "C9H18", "Boiling Point": "134.2-134.9 \u00b0C", "Density": "0.7722 g/cm\u00b3 @ Temp: 20 \u00b0C"}}