{"cas_no": "7095-16-1", "cn_name": "\u7532\u57fa\u4e19\u70ef\u9178\u9541", "en_name": ["2-Propenoic acid, 2-methyl-, magnesium salt (2:1)", "2-Propenoic acid, 2-methyl-, magnesium salt (2:1)", "Magnesium methacrylate", "Methacrylic acid, magnesium salt", "2-Propenoic acid, 2-methyl-, magnesium salt", "Magnesium dimethacrylate", "San Ester SK 13", "Hi-Cross GT", "SK 13", "R-MMA 2"], "SMILES": "C(C(O)=O)(C)=C.[Mg]", "physical_data": {"Molecular Weight": "", "Molecular Formula": "C4H6O2.<sup>1</sup>/2Mg", "Melting Point": "490 \u00b0C (decomp)"}}