{"cas_no": "70958-20-2", "cn_name": "2-(5-\u6c2f-2-\u82ef\u6c27\u57fa\u82ef\u57fa)\u4e59\u9178", "en_name": ["5-Chloro-2-phenoxybenzeneacetic acid", "Benzeneacetic acid, 5-chloro-2-phenoxy-", "5-Chloro-2-phenoxybenzeneacetic acid", "(5-Chloro-2-phenoxyphenyl)acetic acid", "2-(5-Chloro-2-phenoxyphenyl)acetic acid"], "SMILES": "O(C1=C(CC(O)=O)C=C(Cl)C=C1)C2=CC=CC=C2", "physical_data": {"Molecular Weight": "262.69", "Molecular Formula": "C14H11ClO3", "Melting Point": "124-125 \u00b0C"}}