{"cas_no": "70977-72-9", "cn_name": "3-\u6c28\u57fa-2-\u7f9f\u57fa\u82ef\u4e59\u916e", "en_name": ["3-Amino-2-hydroxyacetophenone", "Ethanone, 1-(3-amino-2-hydroxyphenyl)-", "Acetophenone, 3\u2032-amino-2\u2032-hydroxy-", "1-(3-Amino-2-hydroxyphenyl)ethanone", "2-Acetyl-6-aminophenol", "3-Amino-2-hydroxyacetophenone"], "SMILES": "C(C)(=O)C1=C(O)C(N)=CC=C1", "physical_data": {"Molecular Weight": "151.16", "Molecular Formula": "C8H9NO2", "Melting Point": "95-96 \u00b0C"}}