{"cas_no": "70982-53-5", "cn_name": "L-\u4e59\u70ef\u57fa\u7518\u6c28\u9178", "en_name": ["(2S)-2-Amino-3-butenoic acid", "3-Butenoic acid, 2-amino-, (2S)-", "3-Butenoic acid, 2-amino-, (S)-", "(2S)-2-Amino-3-butenoic acid", "L-Vinylglycine", "L-2-Vinylglycine", "(S)-Vinylglycine", "(S)-2-Amino-3-butenoic acid", "3-Butenoic acid 2-amino-, (2S)-"], "SMILES": "C(C(O)=O)(C=C)N", "physical_data": {"Molecular Weight": "101.10", "Molecular Formula": "C4H7NO2", "Melting Point": "217 \u00b0C"}}