{"cas_no": "70988-04-4", "cn_name": "3,5-\u4e8c\u7532\u6c27\u57fa-BETA-\u6c27\u4ee3-\u82ef\u4e19\u8148", "en_name": ["3,5-Dimethoxy-\u03b2-oxobenzenepropanenitrile", "Benzenepropanenitrile, 3,5-dimethoxy-\u03b2-oxo-", "3,5-Dimethoxy-\u03b2-oxobenzenepropanenitrile", "3,5-Dimethoxybenzoylacetonitrile"], "SMILES": "C(CC#N)(=O)C1=CC(OC)=CC(OC)=C1", "physical_data": {"Molecular Weight": "205.21", "Molecular Formula": "C11H11NO3", "Melting Point": "123.2-124.4 \u00b0C"}}