{"cas_no": "70989-04-7", "cn_name": "\u7532\u79e6\u76ae\u7d20", "en_name": ["(+)-Mephenytoin", "2,4-Imidazolidinedione, 5-ethyl-3-methyl-5-phenyl-, (5S)-", "2,4-Imidazolidinedione, 5-ethyl-3-methyl-5-phenyl-, (S)-", "(5S)-5-Ethyl-3-methyl-5-phenyl-2,4-imidazolidinedione", "(S)-Mephenytoin", "d-Mephenytoin", "(+)-Mephenytoin", "(+)-S-Mephenytoin", "(+)-5-Ethyl-3-methyl-5-phenylhydantoin", "(+)-Mesantoin", "(S)-5-Ethyl-3-methyl-5-phenylimidazolidine-2,4-dione"], "SMILES": "C(C)C1(C(=O)N(C)C(=O)N1)C2=CC=CC=C2", "physical_data": {"Molecular Weight": "218.25", "Molecular Formula": "C12H14N2O2", "Melting Point": "135 \u00b0C"}}