{"cas_no": "7098-22-8", "cn_name": "\u56db\u5341\u56db\u70f7", "en_name": ["Tetratetracontane", "Tetratetracontane", "n-Tetratetracontane", "NSC 102262"], "SMILES": "C(CCCCCCCCCCCCCCCCCCCCCC)CCCCCCCCCCCCCCCCCCCCC", "physical_data": {"Molecular Weight": "619.19", "Molecular Formula": "C44H90", "Boiling Point": "548 \u00b0C", "Melting Point": "87-88 \u00b0C"}}