{"cas_no": "7098-07-9", "cn_name": "1-\u4e59\u57fa\u54aa\u5511", "en_name": ["1-Ethylimidazole", "1H-Imidazole, 1-ethyl-", "Imidazole, 1-ethyl-", "1-Ethyl-1H-imidazole", "N-Ethylimidazole", "1-Ethylimidazole"], "SMILES": "C(C)N1C=CN=C1", "physical_data": {"Molecular Weight": "96.13", "Molecular Formula": "C5H8N2", "Boiling Point": "208 \u00b0C", "Density": "0.9986 g/cm\u00b3 @ Temp: 20.00 \u00b0C"}}