{"cas_no": "7098-80-8", "cn_name": "\u7532\u57fa\u4e19\u70ef\u9178 2,2-\u4e8c\u7532\u57fa-1,3-\u4e8c\u6c27\u73af\u620a\u70f7-4-\u7532\u9187\u916f", "en_name": ["(2,2-Dimethyl-1,3-dioxolan-4-yl)methyl 2-methyl-2-propenoate", "2-Propenoic acid, 2-methyl-, (2,2-dimethyl-1,3-dioxolan-4-yl)methyl ester", "Methacrylic acid, (2,2-dimethyl-1,3-dioxolan-4-yl)methyl ester", "(2,2-Dimethyl-1,3-dioxolan-4-yl)methyl 2-methyl-2-propenoate", "(2,2-Dimethyl-1,3-dioxolan-4-yl)methyl methacrylate", "Solketal methacrylate", "MMDOL 30", "(2,2-Dimethyl-1,3-dioxolan-4-yl)methyl 2-methylprop-2-enoate", "Isopropylideneglycerol methacrylate"], "SMILES": "C(OC(C(C)=C)=O)C1COC(C)(C)O1", "physical_data": {"Molecular Weight": "200.23", "Molecular Formula": "C10H16O4", "Boiling Point": "65 \u00b0C @ Press: 0.2 Torr", "Density": "1.0511 g/cm\u00b3 @ Temp: 20 \u00b0C"}}