{"cas_no": "70987-78-9", "cn_name": "(S)-(+)-\u5bf9\u7532\u82ef\u78fa\u9178\u7f29\u6c34\u7518\u6cb9\u916f", "en_name": ["(S)-Glycidyl tosylate", "2-Oxiranemethanol, 2-(4-methylbenzenesulfonate), (2S)-", "Oxiranemethanol, 4-methylbenzenesulfonate, (S)-", "Oxiranemethanol, 4-methylbenzenesulfonate, (2S)-", "(S)-Glycidyl tosylate", "(+)-Glycidyl tosylate", "(2S)-(+)-Glycidyl tosylate", "(S)-Glycidol tosylate", "2(S)-Glycidyl tosylate", "(2S)-Oxiranemethanol 4-methylbenzenesulfonate", "(S)-(+)-Glycidyl 4-methylbenzenesulfonate", "Toluene-4-sulfonic acid (S)-oxiranylmethyl ester", "(S)-(2,3-Epoxypropan-1-yl) 4-methylbenzenesulfonate", "(S)-(+)-Glycidyl tosylate", "(S)-Oxiranylmethyl toluene-4-sulfonate", "(S)-Toluene-4-sulfonic acid oxiranylmethyl ester", "(S)-Glycidyl p-toluenesulfonate", "(2S)-Glycidyl toslyate", "[(2S)-Oxiran-2-yl]methyl 4-methylbenzenesulfonate", "[(2S)-Oxiran-2-yl]methyl 4-methylbenzene-1-sulfonate"], "SMILES": "S(OCC1CO1)(=O)(=O)C2=CC=C(C)C=C2", "physical_data": {"Molecular Weight": "228.26", "Molecular Formula": "C10H12O4S", "Melting Point": "46.0-48.5 \u00b0C"}}