{"cas_no": "71-00-1", "cn_name": "L-\u7ec4\u6c28\u9178", "en_name": ["L-Histidine", "L-Histidine", "Histidine, L-", "Histidine", "1H-Imidazole-4-propanoic acid, \u03b1-amino-, (S)-", "(S)-4-(2-Amino-2-carboxyethyl)imidazole", "Glyoxaline-5-alanine", "L-(-)-Histidine", "(S)-Histidine", "(S)-\u03b1-Amino-1H-imidazole-4-propanoic acid", "1H-Imidazole-4-alanine, (S)-", "L-Alanine, 3-(1H-imidazol-4-yl)-", "NSC 137773", "(2S)-2-Amino-3-(1H-imidazol-4-yl)propanoic acid", "8: PN: EP2878667 TABLE: 5 claimed sequence", "(S)-2-Amino-3-(1H-imidazol-4-yl)propanoic acid", "(2S)-2-Azaniumyl-3-(1H-imidazol-5-yl)propanoate", "(2S)-2-Amino-3-(1H-imidazol-4-yl)propanoic acid", "124: PN: WO2020191245 SEQID: 252 claimed protein", "103: PN: WO2021061872 SEQID: 103 claimed protein", "177: PN: WO2021226558 SEQID: 252 claimed protein", "88: PN: WO2022204151 SEQID: 88 claimed protein", "MeSH ID: D006639"], "SMILES": "C(C(C(O)=O)N)C1=CN=CN1", "physical_data": {"Molecular Weight": "155.15", "Molecular Formula": "C6H9N3O2", "Melting Point": "287 \u00b0C (decomp)"}}