{"cas_no": "71-23-8", "cn_name": "\u6b63\u4e19\u9187", "en_name": ["1-Propanol", "1-Propanol", "Propyl alcohol", "Ethylcarbinol", "Optal", "Osmosol extra", "Propanol", "n-Propanol", "n-Propyl alcohol", "1-Hydroxypropane", "NSC 30300", "MeSH ID: D000433"], "SMILES": "C(CO)C", "physical_data": {"Molecular Weight": "60.10", "Molecular Formula": "C3H8O", "Boiling Point": "97.2 \u00b0C", "Melting Point": "-127 \u00b0C", "Density": "0.8053 g/cm\u00b3 @ Temp: 20 \u00b0C"}}