{"cas_no": "71-27-2", "cn_name": "\u6c2f\u5316\u7425\u73c0\u80c6\u78b1", "en_name": ["Succinylcholine chloride", "Ethanaminium, 2,2\u2032-[(1,4-dioxo-1,4-butanediyl)bis(oxy)]bis[N,N,N-trimethyl-, chloride (1:2)", "Choline, chloride succinate", "Choline, chloride, succinate (2:1)", "Ethanaminium, 2,2\u2032-[(1,4-dioxo-1,4-butanediyl)bis(oxy)]bis[N,N,N-trimethyl-, dichloride", "Succinic acid, diester with choline chloride", "Anectine chloride", "Bis(2-dimethylaminoethyl) succinate bis(methochloride)", "Choline succinate dichloride", "2-Dimethylaminoethyl succinate dimethochloride", "(2-Hydroxyethyl)trimethylammonium chloride succinate", "Lysthenon", "Lysthenone", "Midarine", "Quelicin chloride", "Scoline chloride", "Succicuran", "Succinic acid bis[\u03b2-dimethylaminoethyl] ester dimethochloride", "Succinoylcholine chloride", "Succinyl-asta", "Succinyl bischoline chloride", "Succinylcholine chloride", "Succinylcholine dichloride", "Succinyldicholine chloride", "Succinylforte", "Sucostrin chloride", "Suxamethonium chloride", "Anectine", "Succinylbischoline dichloride", "Scoline", "Suxamethonium dichloride", "Quelicin", "Skolin", "Pantolax", "Myoplegine", "Succin", "Sukolin", "Sucostrin", "Diacetylcholine dichloride", "Querlicin", "Succinolin"], "SMILES": "C([N+](C)(C)C)COC(CCC(OCC[N+](C)(C)C)=O)=O.[Cl-]", "physical_data": {"Molecular Weight": "", "Molecular Formula": "C14H30N2O4.2Cl", "Melting Point": "190 \u00b0C"}}