{"cas_no": "71-36-3", "cn_name": "\u6b63\u4e01\u9187", "en_name": ["1-Butanol", "1-Butanol", "Butyl alcohol", "Butanol", "n-Butanol", "n-Butyl alcohol", "Butyl hydroxide", "CCS 203", "Methylolpropane", "Propylcarbinol", "Hemostyp", "1-Butyl alcohol", "NSC 62782", "MeSH ID: D020001"], "SMILES": "C(CC)CO", "physical_data": {"Molecular Weight": "74.12", "Molecular Formula": "C4H10O", "Boiling Point": "117.7 \u00b0C", "Melting Point": "-89.8 \u00b0C", "Density": "0.8098 g/cm\u00b3 @ Temp: 20 \u00b0C"}}