{"cas_no": "71-30-7", "cn_name": "\u80de\u5627\u5576", "en_name": ["Cytosine", "2(1H)-Pyrimidinone, 6-amino-", "2(1H)-Pyrimidinone, 4-amino-", "Cytosine", "6-Amino-2(1H)-pyrimidinone", "4-Amino-2-hydroxypyrimidine", "4-Amino-2-oxo-1,2-dihydropyrimidine", "4-Amino-2(1H)-pyrimidinone", "Cytosinimine", "4-Aminouracil", "NSC 27787", "4-Amino-1H-pyrimidin-2-one", "Cytosines", "2-Hydroxy-4-pyrimidinamine", "MeSH ID: D003596"], "SMILES": "NC=1NC(=O)N=CC1", "physical_data": {"Molecular Weight": "111.10", "Molecular Formula": "C4H5N3O", "Melting Point": "322.5 \u00b0C (decomp)"}}