{"cas_no": "71-33-0", "cn_name": "5-\u6c2e\u6742\u5c3f\u5627\u5576", "en_name": ["1,3,5-Triazine-2,4(1H,3H)-dione", "1,3,5-Triazine-2,4(1H,3H)-dione", "s-Triazine-2,4(1H,3H)-dione", "s-Triazine-2,4-diol", "Allantoxaidin", "Allantoxaidine", "5-Azauracil", "Oxaidin", "NSC 56901", "1H-[1,3,5]Triazine-2,4-dione", "1,2,3,4-Tetrahydro-1,3,5-triazine-2,4-dione", "1,3,5-Triazine-2,4-diol"], "SMILES": "O=C1NC(=O)N=CN1", "physical_data": {"Molecular Weight": "113.07", "Molecular Formula": "C3H3N3O2", "Melting Point": "292-293 \u00b0C"}}