{"cas_no": "71-41-0", "cn_name": "1-\u620a\u9187", "en_name": ["1-Pentanol", "1-Pentanol", "Pentyl alcohol", "Amyl alcohol", "n-Amyl alcohol", "Amylol", "n-Butyl carbinol", "n-Pentanol", "Pentanol", "n-Pentyl alcohol", "1-Pentyl alcohol", "n-Pentan-1-ol", "Butyl carbinol", "NSC 5707"], "SMILES": "C(CCO)CC", "physical_data": {"Molecular Weight": "88.15", "Molecular Formula": "C5H12O", "Boiling Point": "137.5 \u00b0C", "Melting Point": "-79 \u00b0C", "Density": "0.8146 g/cm\u00b3 @ Temp: 20 \u00b0C"}}