{"cas_no": "71-44-3", "cn_name": "\u7cbe\u80fa", "en_name": ["Spermine", "1,4-Butanediamine, N1,N4-bis(3-aminopropyl)-", "Spermine", "1,4-Butanediamine, N,N\u2032-bis(3-aminopropyl)-", "N1,N4-Bis(3-aminopropyl)-1,4-butanediamine", "Gerontine", "Musculamine", "Neuridine", "4,9-Diazadodecane-1,12-diamine", "Spermin", "N,N\u2032-Bis(3-aminopropyl)-1,4-tetramethylenediamine", "1,5,10,14-Tetraazatetradecane", "N,N\u2032-Bis(3-aminopropyl)-1,4-butanediamine", "NSC 268508", "N,N\u2032-Bis(3-aminopropyl)butanediamine", "N,N\u2032-Bis(3-Aminopropyl)-1,4-diaminobutane", "MeSH ID: D013096"], "SMILES": "C(CCNCCCN)CNCCCN", "physical_data": {"Molecular Weight": "202.34", "Molecular Formula": "C10H26N4", "Boiling Point": "172-176 \u00b0C @ Press: 40 Torr", "Melting Point": "29 \u00b0C"}}