{"cas_no": "71-43-2", "cn_name": "\u82ef", "en_name": ["Benzene", "Benzene", "Benzol", "Coal naphtha", "Cyclohexatriene", "Phene", "Phenyl hydride", "Pyrobenzol", "Benzole", "Pyrobenzole", "[6]Annulene", "1,3,5-Cyclohexatriene", "NSC 67315", "MeSH ID: D001554"], "SMILES": "C=1C=CC=CC1", "physical_data": {"Molecular Weight": "78.11", "Molecular Formula": "C6H6", "Boiling Point": "80.1 \u00b0C", "Melting Point": "5.5 \u00b0C", "Density": "0.8787 g/cm\u00b3 @ Temp: 15 \u00b0C"}}