{"cas_no": "71-55-6", "cn_name": "1,1,1-\u4e09\u6c2f\u4e59\u70f7", "en_name": ["1,1,1-Trichloroethane", "Ethane, 1,1,1-trichloro-", "Chlorten", "1,1,1-Trichloroethane", "Chlorothene", "Methylchloroform", "\u03b1-Trichloroethane", "Aerothene TT", "Inhibisol", "Trichloroethane", "Chlorothene NU", "Methyltrichloromethane", "Chlorothene VG", "Chlorotene", "\u03b1-T", "CF 2", "ICI-CF 2", "Trichloromethylmethane", "1,1,1-Trichlorethane", "Chlorothene SM", "Ethana NU", "Tafclean", "Cleanite", "Three One S", "Three One A", "HCC 140a", "F 140a", "Genklene LB", "TCA", "NSC 9367"], "SMILES": "C(C)(Cl)(Cl)Cl", "physical_data": {"Molecular Weight": "133.40", "Molecular Formula": "C2H3Cl3", "Boiling Point": "74.0 \u00b0C @ Press: 760 Torr", "Melting Point": "-30.4 \u00b0C", "Density": "1.3376 g/cm\u00b3 @ Temp: 20 \u00b0C"}}