{"cas_no": "71-58-9", "cn_name": "\u918b\u9178\u7532\u7f9f\u5b55\u916e", "en_name": ["Medroxyprogesterone acetate", "Pregn-4-ene-3,20-dione, 17-(acetyloxy)-6-methyl-, (6\u03b1)-", "Pregn-4-ene-3,20-dione, 17-hydroxy-6\u03b1-methyl-, acetate", "Progesterone, 17-hydroxy-6\u03b1-methyl-, acetate", "(6\u03b1)-17-(Acetyloxy)-6-methylpregn-4-ene-3,20-dione", "17\u03b1-Acetoxy-6\u03b1-methylpregn-4-ene-3,20-dione", "17\u03b1-Acetoxy-6\u03b1-methylprogesterone", "Depo-Provera", "Farlutin", "17\u03b1-Hydroxy-6\u03b1-methylpregn-4-ene-3,20-dione acetate", "17\u03b1-Hydroxy-6\u03b1-methylprogesterone acetate", "MAP", "Medroxyprogesterone acetate", "6\u03b1-Methyl-17\u03b1-acetoxy-\u03944-pregnene-3,20-dione", "6\u03b1-Methyl-17\u03b1-acetoxypregn-4-ene-3,20-dione", "6\u03b1-Methyl-17\u03b1-hydroxyprogesterone acetate", "MPA", "Oragest", "Perlutex", "Provera", "Repromix", "U 8839", "Depomedroxyprogesterone acetate", "6\u03b1-Methyl-17-acetoxyprogesterone", "Veramix", "Progevera", "Lutopolar", "Lutoral", "Metigestrona", "Proverone", "Sirprogen", "Gestapuran", "Prodasone", "Progestalfa", "6\u03b1-Methyl-17\u03b1-Hydroxy-4-pregnene-3,20-dione acetate", "Depot-medroxyprogesterone acetate", "DMPA", "Medroxyprogesterone 17-acetate", "Repromap", "17\u03b1-Hydroxy-6\u03b1-methyl-4-pregnene-3,20-dione 17-acetate", "Clinovir", "Depo-progestin", "Farlutal", "MAP (steroid)", "Cycrin", "Hysron", "Medroprogesterone acetate", "Indivina", "CBP 1011", "Colirest", "Hematrol", "Perlutex Leo", "Amen", "Depo-Prodasone", "Meprate", "Asconale", "Med-Pro", "Progeston", "MPA Gyn 5", "Ralovera", "Aragest 5", "Clinofem", "Novo-Medrone", "Aragest", "Curretab", "Sodelut G", "Depo-Clinovir", "Nadigest", "Nidaxin", "G-Farlutal", "Depo-promone", "NSC 21171", "NSC 26386", "Depo-Ralovera", "Progespon", "6\u03b1-Methyl-17R-hydroxyprogesterone acetate", "Depo-SubQ Provera 104", "Prempack C", "MeSH ID: D017258"], "SMILES": "O(C(C)=O)C1(C(C)=O)C2(C)C(CC1)C3C(CC2)C4(C)C(C(C)C3)=CC(=O)CC4", "physical_data": {"Molecular Weight": "386.52", "Molecular Formula": "C24H34O4", "Melting Point": "207-209 \u00b0C"}}