{"cas_no": "71-63-6", "cn_name": "\u6d0b\u5730\u9ec4\u6bd2\u7519", "en_name": ["Digitoxin", "Card-20(22)-enolide, 3-[(O-2,6-dideoxy-\u03b2-D-ribo-hexopyranosyl-(1\u21924)-O-2,6-dideoxy-\u03b2-D-ribo-hexopyranosyl-(1\u21924)-2,6-dideoxy-\u03b2-D-ribo-hexopyranosyl)oxy]-14-hydroxy-, (3\u03b2,5\u03b2)-", "Digitoxin", "Digitoxoside", "(3\u03b2,5\u03b2)-3-[(O-2,6-Dideoxy-\u03b2-D-ribo-hexopyranosyl-(1\u21924)-O-2,6-dideoxy-\u03b2-D-ribo-hexopyranosyl-(1\u21924)-2,6-dideoxy-\u03b2-D-ribo-hexopyranosyl)oxy]-14-hydroxycard-20(22)-enolide", "Crystalline digitalin", "Crystodigin", "Digimerck", "Digisidin", "Digitoxigenin tridigitoxoside", "Glucodigin", "Cardigin", "Purodigin", "Purpurid", "Unidigin", "Digitophyllin", "Carditoxin", "Digitrin", "Digimed", "Digicor", "Tradigal", "Myodigin", "Cristapurat", "Digipural", "Digitaline Nativelle", "Ditaven", "Lanatoxin", "Digilong", "Coramedan", "Cardidigin", "NSC 7529", "MeSH ID: D004074"], "SMILES": "OC12C3C(C4(C)C(CC3)CC(OC5CC(O)C(OC6CC(O)C(OC7CC(O)C(O)C(C)O7)C(C)O6)C(C)O5)CC4)CCC1(C)C(CC2)C=8COC(=O)C8", "physical_data": {"Molecular Weight": "764.94", "Molecular Formula": "C41H64O13", "Melting Point": "256-257 \u00b0C"}}