{"cas_no": "71-62-5", "cn_name": "\u85dc\u82a6\u5b9a/\u85dc\u82a6\u78b1I", "en_name": ["Veratridine", "Cevane-3,4,12,14,16,17,20-heptol, 4,9-epoxy-, 3-(3,4-dimethoxybenzoate), (3\u03b2,4\u03b1,16\u03b2)-", "Veratridine", "3-Veratroylveracevine", "Veracevine, veratrate", "NSC 7524", "MeSH ID: D014701"], "SMILES": "CC12C34C(C5(O)C(O)(C3)C6C(O)(C(O)C5)C(C)(O)C7N(C6)CC(C)CC7)CCC1C(O)(O4)C(OC(=O)C8=CC(OC)=C(OC)C=C8)CC2", "physical_data": {"Molecular Weight": "673.79", "Molecular Formula": "C36H51NO11", "Melting Point": "180 \u00b0C"}}