{"cas_no": "71-81-8", "cn_name": "\u5f02\u4e19\u7898\u80fa", "en_name": ["Isopropamide iodide", "Benzenepropanaminium, \u03b3-(aminocarbonyl)-N-methyl-N,N-bis(1-methylethyl)-\u03b3-phenyl-, iodide (1:1)", "(3-Carbamoyl-3,3-diphenylpropyl)diisopropylmethylammonium iodide", "Ammonium, (3-carbamoyl-3,3-diphenylpropyl)diisopropylmethyl-, iodide", "Benzenepropanaminium, \u03b3-(aminocarbonyl)-N-methyl-N,N-bis(1-methylethyl)-\u03b3-phenyl-, iodide", "R 79", "SKF 4740", "Darbid", "2,2-Diphenyl-4-diisopropylaminobutyramide methiodide", "Isopropamide iodide", "Priamide", "Dipramid", "Dipramide", "Sanulcin", "Tyrimide", "Isamid", "Marygin-M", "5579 MD", "Piaccamide", "Priazimide", "Isoproponum iodide"], "SMILES": "C(CC[N+](C(C)C)(C(C)C)C)(C(N)=O)(C1=CC=CC=C1)C2=CC=CC=C2.[I-]", "physical_data": {"Molecular Weight": "", "Molecular Formula": "C23H33N2O.I", "Melting Point": "199 \u00b0C (decomp)"}}