{"cas_no": "71-91-0", "cn_name": "\u56db\u4e59\u57fa\u6eb4\u5316\u94f5", "en_name": ["Tetraethylammonium bromide", "Ethanaminium, N,N,N-triethyl-, bromide (1:1)", "Tetraethylammonium bromide", "Ammonium, tetraethyl-, bromide", "Ethanaminium, N,N,N-triethyl-, bromide", "TMD 10", "Beparon", "Etambro", "Etylon", "Sympatektoman", "TEAB", "TEA bromide", "Tetranium", "Tetrylammonium bromide", "Teamon", "Bromethyl", "Etamon", "Ethylon"], "SMILES": "[N+](CC)(CC)(CC)CC.[Br-]", "physical_data": {"Molecular Weight": "", "Molecular Formula": "C8H20N.Br", "Melting Point": "286 \u00b0C (decomp)"}}