{"cas_no": "71-90-9", "cn_name": "ALFA-\u7532\u57fa\u8c37\u6c28\u9178", "en_name": ["2-Methylglutamic acid", "Glutamic acid, 2-methyl-", "Glutamic acid, 2-methyl-, DL-", "DL-Glutamic acid, 2-methyl-", "2-Methylglutamic acid", "\u03b1-Methyl-DL-glutamic acid", "2-Methyl-DL-glutamic acid", "\u03b1-Methylglutamic acid", "2-Amino-2-methylpentanedioic acid", "NSC 11704", "NSC 226144", "NSC 9968"], "SMILES": "C(CCC(O)=O)(C(O)=O)(C)N", "physical_data": {"Molecular Weight": "161.16", "Molecular Formula": "C6H11NO4", "Melting Point": "165 \u00b0C"}}