{"cas_no": "710-14-5", "cn_name": "2-(\u56db\u6c22\u7ce0\u6c27\u57fa)\u56db\u6c22\u5421\u5583", "en_name": ["Tetrahydro-2-[(tetrahydro-2-furanyl)methoxy]-2H-pyran", "2H-Pyran, tetrahydro-2-[(tetrahydro-2-furanyl)methoxy]-", "2H-Pyran, tetrahydro-2-[(tetrahydrofurfuryl)oxy]-", "Pyran, tetrahydro-2-[(tetrahydrofurfuryl)oxy]-", "Tetrahydro-2-[(tetrahydro-2-furanyl)methoxy]-2H-pyran", "2-(Tetrahydrofurfuryloxy)tetrahydropyran", "2-Tetrahydrofurylmethyl THP ether", "Tetrahydrofurfuryl tetrahydropyranyl ether", "NSC 65618", "3,4,5,6-Tetrahydro-2-(tetrahydrofurfuryloxy)-2H-pyran", "2-[(Oxolan-2-yl)methoxy]oxane"], "SMILES": "O(CC1CCCO1)C2CCCCO2", "physical_data": {"Molecular Weight": "186.25", "Molecular Formula": "C10H18O3", "Boiling Point": "97 \u00b0C @ Press: 6 Torr", "Density": "1.058 g/cm\u00b3 @ Temp: 11 \u00b0C"}}