{"cas_no": "710-18-9", "cn_name": "4-(\u4e09\u6c1f\u7532\u6c27\u57fa)\u82ef\u7532\u919a", "en_name": ["1-Methoxy-4-(trifluoromethoxy)benzene", "Benzene, 1-methoxy-4-(trifluoromethoxy)-", "1-Methoxy-4-(trifluoromethoxy)benzene", "4-(Trifluoromethoxy)anisole"], "SMILES": "O(C(F)(F)F)C1=CC=C(OC)C=C1", "physical_data": {"Molecular Weight": "192.14", "Molecular Formula": "C8H7F3O2", "Boiling Point": "162 \u00b0C"}}