{"cas_no": "710-04-3", "cn_name": "\u4e01\u4f4d\u5341\u4e00\u5185\u916f", "en_name": ["\u03b4-Undecalactone", "2H-Pyran-2-one, 6-hexyltetrahydro-", "Undecanoic acid, 5-hydroxy-, \u03b4-lactone", "Hendecanoic acid, 5-hydroxy-, lactone", "6-Hexyltetrahydro-2H-pyran-2-one", "\u03b4-Hexylvalerolactone", "\u0394-Hexyl-\u0394-valerolactone", "5-Hydroxyundecanoic acid lactone", "\u03b4-Undecalactone", "5-Undecanolide", "(\u00b1)-\u03b4-Undecalactone", "(RS)-\u03b4-Undecalactone", "\u03b4-Undecanolactone", "6-Hexyl-2H-tetrahydropyran-2-one", "Undecanoic-\u03b4-lactone", "6-Hexyloxan-2-one"], "SMILES": "C(CCCCC)C1OC(=O)CCC1", "physical_data": {"Molecular Weight": "184.28", "Molecular Formula": "C11H20O2", "Boiling Point": "145 \u00b0C @ Press: 8 Torr"}}