{"cas_no": "710-11-2", "cn_name": "2-\u6c27\u4ee3-4-\u82ef\u57fa\u4e01\u9178", "en_name": ["\u03b1-Oxobenzenebutanoic acid", "Benzenebutanoic acid, \u03b1-oxo-", "Butyric acid, 2-oxo-4-phenyl-", "\u03b1-Oxobenzenebutanoic acid", "Benzylpyruvic acid", "2-Oxo-4-phenylbutanoic acid", "2-Oxo-4-phenylbutyric acid", "4-Phenyl-2-oxobutyric acid", "4-Phenyl-2-oxobutanoic acid"], "SMILES": "C(CC(C(O)=O)=O)C1=CC=CC=C1", "physical_data": {"Molecular Weight": "178.18", "Molecular Formula": "C10H10O3", "Melting Point": "45 \u00b0C"}}