{"cas_no": "71005-12-4", "cn_name": "2,3-\u4e8c\u6c22-3-\u6c27\u4ee3-1H-\u831a-4-\u7fa7\u9178", "en_name": ["2,3-Dihydro-3-oxo-1H-indene-4-carboxylic acid", "1H-Indene-4-carboxylic acid, 2,3-dihydro-3-oxo-", "4-Indancarboxylic acid, 3-oxo-", "2,3-Dihydro-3-oxo-1H-indene-4-carboxylic acid", "3-Oxoindan-4-carboxylic acid", "3-Oxo-2,3-dihydro-1H-indene-4-carboxylic acid"], "SMILES": "C(O)(=O)C1=C2C(=CC=C1)CCC2=O", "physical_data": {"Molecular Weight": "176.17", "Molecular Formula": "C10H8O3", "Melting Point": "159.5-161.5 \u00b0C"}}