{"cas_no": "7101-31-7", "cn_name": "\u4e8c\u7532\u57fa\u4e8c\u7852\u919a", "en_name": ["Dimethyl diselenide", "Diselenide, dimethyl", "Methyl diselenide", "Dimethyl diselenide", "(Methyldiselanyl)methane"], "SMILES": "[Se]([Se]C)C", "physical_data": {"Molecular Weight": "187.99", "Molecular Formula": "C2H6Se2", "Boiling Point": "156 \u00b0C", "Density": "2.009 g/cm\u00b3 @ Temp: 20 \u00b0C"}}