{"cas_no": "71022-43-0", "cn_name": "3,5-\u4e8c\u785d\u57fa\u82ef\u7532\u9187", "en_name": ["3,5-Dinitrobenzenemethanol", "Benzenemethanol, 3,5-dinitro-", "Benzyl alcohol, 3,5-dinitro-", "3,5-Dinitrobenzenemethanol", "3,5-Dinitrobenzyl alcohol", "(3,5-Dinitro-phenyl)-methanol"], "SMILES": "N(=O)(=O)C1=CC(N(=O)=O)=CC(CO)=C1", "physical_data": {"Molecular Weight": "198.13", "Molecular Formula": "C7H6N2O5", "Melting Point": "89 \u00b0C"}}