{"cas_no": "71026-66-9", "cn_name": "N-BOC-\u5bf9\u82ef\u4e8c\u80fa", "en_name": ["tert-Butyl (4-aminophenyl)carbamate", "Carbamic acid, N-(4-aminophenyl)-, 1,1-dimethylethyl ester", "Carbamic acid, (4-aminophenyl)-, 1,1-dimethylethyl ester", "O-(1,1-Dimethylethyl) N-(4-aminophenyl)carbamate", "tert-Butyl (4-aminophenyl)carbamate", "4-(tert-Butoxycarbonylamino)aniline", "N-(tert-Butoxycarbonyl)-1,4-phenylenediamine", "N-(t-Butoxycarbonyl)-4-aminoaniline", "(4-Aminophenyl)carbamic acid tert-butyl ester", "(4-Aminophenyl)carbamic acid 1,1-dimethylethyl ester", "N-(4-Aminophenyl)carbamic acid 1,1-dimethylethyl ester", "tert-Butyl N-(4-anilino)carbamate", "4-t-Butoxycarbonylaminoaniline", "4-tert-Butoxycarbonylaminophenylamine", "1,1-Dimethylethyl (4-aminophenyl)carbamate", "N-(tert-Butoxycarbonyl)-p-phenylenediamine", "4-Amino-N-tert-butoxycarbonylaniline"], "SMILES": "N(C(OC(C)(C)C)=O)C1=CC=C(N)C=C1", "physical_data": {"Molecular Weight": "208.26", "Molecular Formula": "C11H16N2O2", "Melting Point": "112-114 \u00b0C"}}