{"cas_no": "71031-02-2", "cn_name": "(R)-\u82ef\u6c27\u7532\u57fa\u73af\u6c27\u4e59\u70f7", "en_name": ["(2R)-2-(Phenoxymethyl)oxirane", "Oxirane, 2-(phenoxymethyl)-, (2R)-", "Oxirane, (phenoxymethyl)-, (R)-", "Oxirane, (phenoxymethyl)-, (2R)-", "(2R)-2-(Phenoxymethyl)oxirane", "(R)-Phenyl glycidyl ether", "(R)-(-)-3-(Phenyloxy)-1,2-epoxypropane", "(R)-Phenoxymethyloxirane", "(R)-Glycidyl phenyl ether", "(R)-2-(Phenoxymethyl)oxirane", "(2R)-2-(Phenoxymethyl)oxirane", "(R)-2-(Phenoxymethyl)oxirane"], "SMILES": "O(CC1CO1)C2=CC=CC=C2", "physical_data": {"Molecular Weight": "150.17", "Molecular Formula": "C9H10O2", "Boiling Point": "85-86 \u00b0C @ Press: 0.8 Torr"}}