{"cas_no": "71042-72-3", "cn_name": "\u4e59\u57fa-7\u7532\u57fa-2,3-\u4e8c\u6c22-1H-\u831a-4-\u7fa7\u9178\u916f", "en_name": ["Ethyl 2,3-dihydro-7-methyl-1H-indene-4-carboxylate", "1H-Indene-4-carboxylic acid, 2,3-dihydro-7-methyl-, ethyl ester", "Ethyl 2,3-dihydro-7-methyl-1H-indene-4-carboxylate"], "SMILES": "C(OCC)(=O)C1=C2C(=C(C)C=C1)CCC2", "physical_data": {"Molecular Weight": "204.26", "Molecular Formula": "C13H16O2", "Boiling Point": "110-112 \u00b0C @ Press: 0.45 Torr"}}