{"cas_no": "71058-35-0", "cn_name": "4-2,6-\u4e8c\u6c2f\u82ef-3-\u6c28\u57fa\u786b\u8132", "en_name": ["N-(2,6-Dimethylphenyl)hydrazinecarbothioamide", "Hydrazinecarbothioamide, N-(2,6-dimethylphenyl)-", "N-(2,6-Dimethylphenyl)hydrazinecarbothioamide", "4-(2,6-Dimethylphenyl)thiosemicarbazide", "1-Amino-3-(2,6-dimethylphenyl)thiourea", "4-(2,6-Dimethylphenyl)-3-thiosemicarbazide", "3-Amino-1-(2,6-dimethylphenyl)thiourea", "N-(2,6-Dimethylphenyl)thiosemicarbazide"], "SMILES": "N(C(NN)=S)C1=C(C)C=CC=C1C", "physical_data": {"Molecular Weight": "195.28", "Molecular Formula": "C9H13N3S", "Melting Point": "204 \u00b0C"}}