{"cas_no": "71083-06-2", "cn_name": "1,4-\u4e8c\u7f9f\u57fa-8-\u6c1f-4-\u7fb0\u57fa\u55b9\u5549-3-\u7fa7\u9178\u4e59\u916f", "en_name": ["Ethyl 8-fluoro-4-oxo-1,4-dihydroquinoline-3-carboxylate", "3-Quinolinecarboxylic acid, 8-fluoro-1,4-dihydro-4-oxo-, ethyl ester", "Ethyl 8-fluoro-4-oxo-1,4-dihydroquinoline-3-carboxylate"], "SMILES": "O=C1C=2C(NC=C1C(OCC)=O)=C(F)C=CC2", "physical_data": {"Molecular Weight": "235.21", "Molecular Formula": "C12H10FNO3", "Melting Point": "178 \u00b0C"}}