{"cas_no": "71089-74-2", "cn_name": "1,4,8,11-\u56db[(4-\u7532\u57fa\u82ef\u57fa)\u78fa\u9170\u57fa]-1,4,8,11-\u56db\u6c2e\u6742\u73af\u5341\u56db\u70f7", "en_name": ["1,4,8,11-Tetrakis[(4-methylphenyl)sulfonyl]-1,4,8,11-tetraazacyclotetradecane", "1,4,8,11-Tetraazacyclotetradecane, 1,4,8,11-tetrakis[(4-methylphenyl)sulfonyl]-", "1,4,8,11-Tetraazacyclotetradecane, 1,4,8,11-tetrakis(p-tolylsulfonyl)-", "1,4,8,11-Tetrakis[(4-methylphenyl)sulfonyl]-1,4,8,11-tetraazacyclotetradecane", "1,4,8,11-Tetratosyl-1,4,8,11-tetraazacyclotetradecane"], "SMILES": "S(=O)(=O)(N1CCN(S(=O)(=O)C2=CC=C(C)C=C2)CCCN(S(=O)(=O)C3=CC=C(C)C=C3)CCN(S(=O)(=O)C4=CC=C(C)C=C4)CCC1)C5=CC=C(C)C=C5", "physical_data": {"Molecular Weight": "817.07", "Molecular Formula": "C38H48N4O8S4", "Melting Point": "284-287 \u00b0C"}}