{"cas_no": "71082-47-8", "cn_name": "6-\u7532\u6c27\u57fa\u55b9\u5549-3-\u7532\u9178", "en_name": ["6-Methoxyquinoline-3-carboxylic acid", "3-Quinolinecarboxylic acid, 6-methoxy-", "6-Methoxy-3-quinolinecarboxylic acid", "6-Methoxyquinoline-3-carboxylic acid"], "SMILES": "C(O)(=O)C1=CC2=C(C=CC(OC)=C2)N=C1", "physical_data": {"Molecular Weight": "203.19", "Molecular Formula": "C11H9NO3", "Melting Point": "273 \u00b0C"}}