{"cas_no": "711-79-5", "cn_name": "2-\u4e59\u9170\u57fa-1-\u8418\u915a", "en_name": ["2-Acetyl-1-naphthol", "Ethanone, 1-(1-hydroxy-2-naphthalenyl)-", "2\u2032-Acetonaphthone, 1\u2032-hydroxy-", "2-Acetonaphthone, 1-hydroxy-", "1-(1-Hydroxy-2-naphthalenyl)ethanone", "2-Acetyl-1-naphthol", "1-Hydroxy-2-acetylnaphthalene", "2-Acetyl-1-hydroxynaphthalene", "1-Hydroxy-2-naphthyl methyl ketone", "1\u2032-Hydroxy-2\u2032-acetonaphthone", "2-Acetyl-1-naphthalenol", "2-Aceto-1-naphthol", "1\u2032-Hydroxy-2-acetonapthone", "NSC 4973", "1-(1-Hydroxynaphthalen-2-yl)ethan-1-one"], "SMILES": "OC=1C2=C(C=CC1C(C)=O)C=CC=C2", "physical_data": {"Molecular Weight": "186.21", "Molecular Formula": "C12H10O2", "Melting Point": "101 \u00b0C"}}