{"cas_no": "71125-38-7", "cn_name": "\u7f8e\u6d1b\u6614\u5eb7", "en_name": ["Meloxicam", "2H-1,2-Benzothiazine-3-carboxamide, 4-hydroxy-2-methyl-N-(5-methyl-2-thiazolyl)-, 1,1-dioxide", "Meloxicam", "UH-AC 62XX", "Mobec", "Metacam", "Mobic", "Mobicox", "Movalis", "Melonex", "Coxflam", "Revmoksikam", "Movatec", "Maxicam", "Melfax", "Melfax (NSAID)", "Coxicam", "Novem 5", "Rheumocam", "Recocam", "RevitaCAM", "Novaquin", "Novem", "Meloxivet", "Meloxoral", "Emdocam", "Contacera", "Meloxidyl", "Acticam", "Melosus", "Loxicom", "Inflacam", "Flexicam", "Meloxidolor", "Melovem", "Petcam", "MoSEIC Meloxicam"], "SMILES": "OC=1C=2C(S(=O)(=O)N(C)C1C(NC3=NC=C(C)S3)=O)=CC=CC2", "physical_data": {"Molecular Weight": "351.40", "Molecular Formula": "C14H13N3O4S2", "Melting Point": "254 \u00b0C (decomp)"}}