{"cas_no": "7115-91-5", "cn_name": "2-\u6eb4\u7532\u57fa\u82ef\u7532\u9178\u4e59\u916f", "en_name": ["Benzoic acid, 2-(bromomethyl)-, ethyl ester", "Benzoic acid, 2-(bromomethyl)-, ethyl ester", "o-Toluic acid, \u03b1-bromo-, ethyl ester", "\u03b1-Bromo-o-toluic acid ethyl ester", "Ethyl 2-(bromomethyl)benzoate", "Ethyl o-(bromomethyl)benzoate", "Ethyl \u03b1-bromo-o-toluate", "o-(Bromomethyl)benzoic acid ethyl ester", "2-(Ethoxycarbonyl)benzyl bromide", "2-(Bromomethyl)benzoic acid ethyl ester"], "SMILES": "C(OCC)(=O)C1=C(CBr)C=CC=C1", "physical_data": {"Molecular Weight": "243.10", "Molecular Formula": "C10H11BrO2", "Boiling Point": "90-95 \u00b0C @ Press: 0.15 Torr"}}