{"cas_no": "7116-95-2", "cn_name": "4-\u5f02\u4e19\u57fa\u8054\u82ef", "en_name": ["4-Isopropylbiphenyl", "1,1\u2032-Biphenyl, 4-(1-methylethyl)-", "Biphenyl, 4-isopropyl-", "4-(1-Methylethyl)-1,1\u2032-biphenyl", "p-Isopropylbiphenyl", "4-Isopropylbiphenyl", "4-Isopropyl-1,1\u2032-biphenyl", "4-Isopropyldiphenyl"], "SMILES": "C(C)(C)C1=CC=C(C=C1)C2=CC=CC=C2", "physical_data": {"Molecular Weight": "196.29", "Molecular Formula": "C15H16", "Boiling Point": "125-126 \u00b0C @ Press: 2 Torr", "Melting Point": "92 \u00b0C", "Density": "0.9651 g/cm\u00b3 @ Temp: 20 \u00b0C"}}