{"cas_no": "7116-96-3", "cn_name": "\u5bf9\u620a\u57fa\u8054\u82ef", "en_name": ["4-Pentyl-1,1\u2032-biphenyl", "1,1\u2032-Biphenyl, 4-pentyl-", "Biphenyl, 4-pentyl-", "4-Pentyl-1,1\u2032-biphenyl", "4-Pentylbiphenyl", "p-Amylbiphenyl", "1-Pentyl-4-phenylbenzene"], "SMILES": "C(CCCC)C1=CC=C(C=C1)C2=CC=CC=C2", "physical_data": {"Molecular Weight": "224.34", "Molecular Formula": "C17H20", "Boiling Point": "142 \u00b0C @ Press: 3 Torr", "Melting Point": "9-10.5 \u00b0C"}}