{"cas_no": "71176-55-1", "cn_name": "5-\u785d\u57fa\u95f4\u4e8c\u7532\u82ef-\u03b1,\u03b1\u2032-\u4e8c\u9187", "en_name": ["5-Nitro-1,3-benzenedimethanol", "1,3-Benzenedimethanol, 5-nitro-", "5-Nitro-1,3-benzenedimethanol", "3-(Hydroxymethyl)-5-nitrobenzyl alcohol", "5-Nitro-1,3-di(hydroxymethyl)benzene", "3,5-Bis-(hydroxymethyl)nitroxylylene", "[3-(Hydroxymethyl)-5-nitrophenyl]methanol", "3,5-Bis(hydroxymethyl)-1-nitrobenzene"], "SMILES": "N(=O)(=O)C1=CC(CO)=CC(CO)=C1", "physical_data": {"Molecular Weight": "183.16", "Molecular Formula": "C8H9NO4", "Melting Point": "91-92 \u00b0C"}}