{"cas_no": "71173-62-1", "cn_name": "L-\u7cbe\u6c28\u9178\u918b\u9178\u76d0", "en_name": ["Arginine acetate", "L-Arginine, acetate (1:1)", "L-Arginine, monoacetate", "Arginine, acetate, L-", "Arginine acetate"], "SMILES": "C(C)(O)=O.C(CCNC(=N)N)C(C(O)=O)N", "physical_data": {"Molecular Weight": "", "Molecular Formula": "C6H14N4O2.C2H4O2", "Melting Point": "222-225 \u00b0C"}}