{"cas_no": "712-50-5", "cn_name": "\u73af\u5df1\u57fa\u82ef\u57fa\u7532\u916e", "en_name": ["Cyclohexyl phenyl ketone", "Methanone, cyclohexylphenyl-", "Ketone, cyclohexyl phenyl", "Cyclohexylphenylmethanone", "Cyclohexyl phenyl ketone", "Benzoyl cyclohexane", "Phenyl cyclohexyl ketone", "NSC 818"], "SMILES": "C(=O)(C1CCCCC1)C2=CC=CC=C2", "physical_data": {"Molecular Weight": "188.27", "Molecular Formula": "C13H16O", "Boiling Point": "136 \u00b0C @ Press: 9 Torr", "Melting Point": "51 \u00b0C"}}