{"cas_no": "712-29-8", "cn_name": "6-hydroxymethylpterin", "en_name": ["6-(Hydroxymethyl)pterin", "4(3H)-Pteridinone, 2-amino-6-(hydroxymethyl)-", "4(1H)-Pteridinone, 2-amino-6-(hydroxymethyl)-", "Ranachrome 3", "6-Pteridinemethanol, 2-amino-4-hydroxy-", "2-Amino-6-(hydroxymethyl)-4(3H)-pteridinone", "2-Amino-4-hydroxy-6-(hydroxymethyl)pteridine", "Rana-pterin 3", "6-(Hydroxymethyl)pterin", "Pterin-6-methanol", "2-Amino-4-hydroxy-6-pteridinemethanol", "NSC 123888", "NSC 91688", "2-Amino-6-(hydroxymethyl)-3,4-dihydropteridin-4-one", "2-Amino-6-(hydroxymethyl)-4-oxopteridine", "2-Amino-6-(hydroxymethyl)pteridin-4-ol"], "SMILES": "O=C1C=2C(=NC(N)=N1)NC=C(CO)N2", "physical_data": {"Molecular Weight": "193.16", "Molecular Formula": "C7H7N5O2", "Melting Point": "300 \u00b0C (decomp)"}}