{"cas_no": "712-48-1", "cn_name": "\u6c2f\u5316\u4e8c\u82ef\u57fa\u80c2", "en_name": ["Diphenylchloroarsine", "Arsinous chloride, As,As-diphenyl-", "Arsine, chlorodiphenyl-", "Arsinous chloride, diphenyl-", "As,As-Diphenylarsinous chloride", "Chlorodiphenylarsine", "Diphenylchloroarsine", "Diphenylarsenic chloride", "Clark 1", "CLARK I", "Diphenylarsinous chloride"], "SMILES": "[As](Cl)(C1=CC=CC=C1)C2=CC=CC=C2", "physical_data": {"Molecular Weight": "264.58", "Molecular Formula": "C12H10AsCl", "Boiling Point": "337 \u00b0C", "Melting Point": "44 \u00b0C"}}