{"cas_no": "712-97-0", "cn_name": "6-\u785d\u57fa\u80e1\u6912\u919b", "en_name": ["6-Nitro-1,3-benzodioxole-5-carboxaldehyde", "1,3-Benzodioxole-5-carboxaldehyde, 6-nitro-", "Piperonal, 6-nitro-", "6-Nitro-1,3-benzodioxole-5-carboxaldehyde", "6-Nitropiperonal", "o-Nitropiperonal", "4,5-(Methylenedioxy)-2-nitrobenzaldehyde", "3,4-(Methylenedioxy)-6-nitrobenzaldehyde", "6-Nitrobenzo[1,3]dioxole-5-carboxaldehyde", "NSC 40550", "NSC 66217", "6-Nitrobenzo[d][1,3]dioxole-5-carbaldehyde", "6-Nitro-2H-1,3-benzodioxole-5-carboxaldehyde"], "SMILES": "C(=O)C=1C=C2C(=CC1N(=O)=O)OCO2", "physical_data": {"Molecular Weight": "195.13", "Molecular Formula": "C8H5NO5", "Melting Point": "98.5 \u00b0C"}}