{"cas_no": "712-09-4", "cn_name": "5-\u7532\u6c27\u57fa\u8272\u9187", "en_name": ["5-Methoxytryptophol", "1H-Indole-3-ethanol, 5-methoxy-", "Indole-3-ethanol, 5-methoxy-", "5-Methoxy-1H-indole-3-ethanol", "5-Methoxytryptophol", "3-(2-Hydroxyethyl)-5-methoxyindole", "2-(5-Methoxy-1H-indol-3-yl)ethanol", "2-(5-Methoxy-1H-indol-3-yl)ethan-1-ol"], "SMILES": "C(CO)C=1C=2C(NC1)=CC=C(OC)C2", "physical_data": {"Molecular Weight": "191.23", "Molecular Formula": "C11H13NO2", "Boiling Point": "194 \u00b0C"}}