{"cas_no": "712-30-1", "cn_name": "2-\u6c28\u57fa-4-\u6c27\u4ee3-3,4-\u4e8c\u6c22\u8776\u5576-6-\u7532\u919b", "en_name": ["6-Formylpterin", "6-Pteridinecarboxaldehyde, 2-amino-3,4-dihydro-4-oxo-", "6-Pteridinecarboxaldehyde, 2-amino-4-hydroxy-", "6-Pteridinecarboxaldehyde, 2-amino-1,4-dihydro-4-oxo-", "2-Amino-3,4-dihydro-4-oxo-6-pteridinecarboxaldehyde", "2-Amino-4-hydroxypteridine-6-carboxaldehyde", "2-Amino-4-hydroxy-6-formylpteridine", "2-Amino-4-hydroxy-6-pteridylcarboxaldehyde", "2-Amino-6-formylpteridin-4-one", "6-Formylpterin", "2-Amino-4-oxo-3,4-dihydropteridine-6-carbaldehyde", "2-Amino-4-oxo-1,4-dihydropteridine-6-carbaldehyde", "2-Amino-4-oxo-1H-pteridine-6-carbaldehyde", "2-Amino-4-hydroxypteridine-6-carbaldehyde"], "SMILES": "O=C1C=2C(=NC(N)=N1)NC=C(C=O)N2", "physical_data": {"Molecular Weight": "191.15", "Molecular Formula": "C7H5N5O2", "Melting Point": "280 \u00b0C (decomp)"}}