{"cas_no": "712-74-3", "cn_name": "1,2,4,5-\u82ef\u56db\u7532\u8148", "en_name": ["1,2,4,5-Benzenetetracarbonitrile", "1,2,4,5-Benzenetetracarbonitrile", "Pyromellitonitrile", "Pyromellitic tetranitrile", "1,2,4,5-Tetracyanobenzene", "1,2,4,5-Benzenetetranitrile", "Pyromellitotetranitrile", "sym-Tetracyanobenzene", "Pyromellitic acid tetranitrile", "Pyromellitic nitrile", "TCNB"], "SMILES": "C(#N)C1=C(C#N)C=C(C#N)C(C#N)=C1", "physical_data": {"Molecular Weight": "178.15", "Molecular Formula": "C10H2N4", "Melting Point": "258 \u00b0C", "Density": "1.35 g/cm\u00b3"}}