{"cas_no": "712-61-8", "cn_name": "2,2'-\u4e8c\u7532\u57fa-4,4'-\u8054\u5421\u5576", "en_name": ["2,2\u2032-Dimethyl-4,4\u2032-bipyridine", "4,4\u2032-Bipyridine, 2,2\u2032-dimethyl-", "4,4\u2032-Bi-2-picoline", "2,2\u2032-Dimethyl-4,4\u2032-bipyridine", "2,2\u2032-Dimethyl-4,4\u2032-bipyridyl", "2-Methyl-4-(2-methylpyridin-4-yl)pyridine"], "SMILES": "CC1=CC(=CC=N1)C=2C=C(C)N=CC2", "physical_data": {"Molecular Weight": "184.24", "Molecular Formula": "C12H12N2", "Melting Point": "83 \u00b0C"}}