{"cas_no": "7120-13-0", "cn_name": "6-(4-\u6eb4\u82ef\u57fa)\u54aa\u5511[2,1-B-1,3]\u567b\u5511", "en_name": ["6-(4-Bromophenyl)imidazo[2,1-b]thiazole", "Imidazo[2,1-b]thiazole, 6-(4-bromophenyl)-", "Imidazo[2,1-b]thiazole, 6-(p-bromophenyl)-", "6-(4-Bromophenyl)imidazo[2,1-b]thiazole", "6-(4-Bromophenyl)imidazo[2,1-b][1,3]thiazole"], "SMILES": "BrC1=CC=C(C2=CN3C(=N2)SC=C3)C=C1", "physical_data": {"Molecular Weight": "279.16", "Molecular Formula": "C11H7BrN2S", "Melting Point": "179-180 \u00b0C"}}