{"cas_no": "71209-71-7", "cn_name": "\u4e01\u57fa\u82ef\u4e19\u916e", "en_name": ["1-[4-(1,1-Dimethylethyl)phenyl]-1-propanone", "1-Propanone, 1-[4-(1,1-dimethylethyl)phenyl]-", "Propiophenone, 4\u2032-tert-butyl-", "1-[4-(1,1-Dimethylethyl)phenyl]-1-propanone", "4-(1,1-Dimethylethyl)propiophenone", "4\u2032-tert-Butylpropiophenone", "p-tert-Butylpropiophenone", "4-tert-Butylpropiophenone", "1-[4-(tert-Butyl)phenyl]propan-1-one", "1-(4-tert-Butylphenyl)propan-1-one"], "SMILES": "C(C)(C)(C)C1=CC=C(C(CC)=O)C=C1", "physical_data": {"Molecular Weight": "190.28", "Molecular Formula": "C13H18O", "Boiling Point": "83 \u00b0C @ Press: 0.15 Torr"}}