{"cas_no": "7120-41-4", "cn_name": "\u7532\u57fa 5-\u6eb4-2-\u7532\u6c27\u57fa\u82ef\u7532\u9178\u916f", "en_name": ["Methyl 5-bromo-2-methoxybenzoate", "Benzoic acid, 5-bromo-2-methoxy-, methyl ester", "o-Anisic acid, 5-bromo-, methyl ester", "Methyl 5-bromo-o-anisate", "5-Bromo-2-methoxybenzoic acid methyl ester", "Methyl 2-methoxy-5-bromobenzoate", "Methyl 5-bromo-2-methoxybenzoate", "Methyl 3-bromo-6-methoxybenzoate"], "SMILES": "C(OC)(=O)C1=C(OC)C=CC(Br)=C1", "physical_data": {"Molecular Weight": "245.07", "Molecular Formula": "C9H9BrO3", "Melting Point": "39-40 \u00b0C"}}