{"cas_no": "7120-43-6", "cn_name": "5-\u6c2f\u6c34\u6768\u9170\u80fa", "en_name": ["5-Chloro-2-hydroxybenzamide", "Benzamide, 5-chloro-2-hydroxy-", "Salicylamide, 5-chloro-", "5-Chloro-2-hydroxybenzamide", "5-Chlorosalicylamide", "2-Hydroxy-5-chlorobenzamide", "NSC 407139"], "SMILES": "C(N)(=O)C1=C(O)C=CC(Cl)=C1", "physical_data": {"Molecular Weight": "171.58", "Molecular Formula": "C7H6ClNO2", "Melting Point": "200-202 \u00b0C"}}