{"cas_no": "71215-89-9", "cn_name": "2-\u7532\u57fa-5-\u82ef\u57fa\u82ef\u5e76\u567b\u5511", "en_name": ["2-Methyl-5-phenylbenzothiazole", "Benzothiazole, 2-methyl-5-phenyl-", "2-Methyl-5-phenylbenzothiazole", "2-Methyl-5-phenyl-1,3-benzothiazole"], "SMILES": "CC1=NC=2C(=CC=C(C2)C3=CC=CC=C3)S1", "physical_data": {"Molecular Weight": "225.31", "Molecular Formula": "C14H11NS", "Boiling Point": "209-210 \u00b0C @ Press: 8 Torr", "Melting Point": "89 \u00b0C"}}