{"cas_no": "71235-92-2", "cn_name": "1-\u7532\u57fa\u54cc\u5576-4-\u7fa7\u9178 \u76d0\u9178\u76d0", "en_name": ["4-Piperidinecarboxylic acid, 1-methyl-, hydrochloride (1:1)", "4-Piperidinecarboxylic acid, 1-methyl-, hydrochloride (1:1)", "4-Piperidinecarboxylic acid, 1-methyl-, hydrochloride", "Isonipecotic acid, 1-methyl-, hydrochloride", "1-Methylisonipecotic acid hydrochloride", "1-Methylpiperidine-4-carboxylic acid hydrochloride", "4-Carboxy-1-methylpiperidinium chloride", "N-Methylpiperidine-4-carboxylic acid hydrochloride"], "SMILES": "C(O)(=O)C1CCN(C)CC1.Cl", "physical_data": {"Molecular Weight": "", "Molecular Formula": "C7H13NO2.ClH", "Melting Point": "231-232 \u00b0C"}}