{"cas_no": "71258-18-9", "cn_name": "1-\u82c4\u57fa-4-\u6c30\u57fa-4-\u82ef\u57fa\u54cc\u5576\u76d0\u9178\u76d0", "en_name": ["4-Piperidinecarbonitrile, 4-phenyl-1-(phenylmethyl)-, hydrochloride (1:1)", "4-Piperidinecarbonitrile, 4-phenyl-1-(phenylmethyl)-, hydrochloride (1:1)", "4-Piperidinecarbonitrile, 4-phenyl-1-(phenylmethyl)-, monohydrochloride", "1-Benzyl-4-cyano-4-phenylpiperidine hydrochloride", "1-Benzyl-4-phenylpiperidine-4-carbonitrile hydrochloride", "1-N-Benzyl-4-cyano-4-phenylpiperidine hydrochloride"], "SMILES": "C(#N)C1(CCN(CC2=CC=CC=C2)CC1)C3=CC=CC=C3.Cl", "physical_data": {"Molecular Weight": "", "Molecular Formula": "C19H20N2.ClH", "Melting Point": "259-260 \u00b0C"}}