{"cas_no": "71255-78-2", "cn_name": "2-(1,3-\u82ef\u5e76\u4e8c\u6c27\u620a\u73af-5-\u57fa)-4,6-\u53cc(\u4e09\u6c2f\u7532\u57fa)-1,3,5-\u4e09\u55ea", "en_name": ["2-(1,3-Benzodioxol-5-yl)-4,6-bis(trichloromethyl)-1,3,5-triazine", "1,3,5-Triazine, 2-(1,3-benzodioxol-5-yl)-4,6-bis(trichloromethyl)-", "2-(1,3-Benzodioxol-5-yl)-4,6-bis(trichloromethyl)-1,3,5-triazine", "2,6-Bis(trichloromethyl)-4-(3,4-methylenedioxyphenyl)-1,3,5-triazine", "2-(3,4-Methylenedioxyphenyl)-4,6-bis(trichloromethyl)-s-triazine", "TAZ 107", "2-(3,4-Methylenedioxyphenyl)-4,6-bis(trichloromethyl)-1,3,5-triazine"], "SMILES": "C(Cl)(Cl)(Cl)C1=NC(=NC(C(Cl)(Cl)Cl)=N1)C=2C=C3C(=CC2)OCO3", "physical_data": {"Molecular Weight": "435.90", "Molecular Formula": "C12H5Cl6N3O2", "Melting Point": "131.2-133.0 \u00b0C"}}