{"cas_no": "7126-44-5", "cn_name": "3-\u6c30\u57fa-1H-\u5421\u54af-2-\u7532\u9178\u4e59\u916f", "en_name": ["Ethyl 3-cyano-1H-pyrrole-2-carboxylate", "1H-Pyrrole-2-carboxylic acid, 3-cyano-, ethyl ester", "Pyrrole-2-carboxylic acid, 3-cyano-, ethyl ester", "Ethyl 3-cyano-1H-pyrrole-2-carboxylate"], "SMILES": "C(OCC)(=O)C1=C(C#N)C=CN1", "physical_data": {"Molecular Weight": "164.16", "Molecular Formula": "C8H8N2O2", "Boiling Point": "130-140 \u00b0C @ Press: 0.01 Torr", "Melting Point": "92-93 \u00b0C"}}