{"cas_no": "7126-51-4", "cn_name": "5-\u7532\u9170\u57fa-1H-\u5421\u54af-2-\u7fa7\u9178", "en_name": ["5-Formyl-1H-pyrrole-2-carboxylic acid", "1H-Pyrrole-2-carboxylic acid, 5-formyl-", "Pyrrole-2-carboxylic acid, 5-formyl-", "5-Formyl-1H-pyrrole-2-carboxylic acid", "5-Formylpyrrole-2-carboxylic acid"], "SMILES": "C(O)(=O)C=1NC(C=O)=CC1", "physical_data": {"Molecular Weight": "139.11", "Molecular Formula": "C6H5NO3", "Melting Point": "202-203 \u00b0C"}}