{"cas_no": "7126-39-8", "cn_name": "\u5421\u54af-3-\u7532\u919b", "en_name": ["Pyrrole-3-carboxaldehyde", "1H-Pyrrole-3-carboxaldehyde", "Pyrrole-3-carboxaldehyde", "3-Formylpyrrole", "1H-Pyrrole-3-carbaldehyde"], "SMILES": "C(=O)C=1C=CNC1", "physical_data": {"Molecular Weight": "95.10", "Molecular Formula": "C5H5NO", "Melting Point": "64 \u00b0C"}}