{"cas_no": "7126-57-0", "cn_name": "4-\u7532\u9170\u57fa-1H-\u5421\u54af-2-\u7532\u9178\u4e59\u916f", "en_name": ["Ethyl 4-formyl-1H-pyrrole-2-carboxylate", "1H-Pyrrole-2-carboxylic acid, 4-formyl-, ethyl ester", "Pyrrole-2-carboxylic acid, 4-formyl-, ethyl ester", "Ethyl 4-formyl-1H-pyrrole-2-carboxylate", "2-Ethoxycarbonyl-4-formylpyrrole", "NSC 272668", "4-Formylpyrrole-2-carboxylic acid ethyl ester", "Ethyl 4-formyl-2-pyrrolecarboxylate", "4-Formyl-1H-pyrrole-2-carboxylic acid ethyl ester"], "SMILES": "C(OCC)(=O)C1=CC(C=O)=CN1", "physical_data": {"Molecular Weight": "167.16", "Molecular Formula": "C8H9NO3", "Boiling Point": "126-127 \u00b0C @ Press: 0.05 Torr", "Melting Point": "106-107 \u00b0C"}}