{"cas_no": "7127-19-7", "cn_name": "2-\u82ef\u57fa-2-\u6076\u5511\u5549", "en_name": ["2-Phenyl-2-oxazoline", "Oxazole, 4,5-dihydro-2-phenyl-", "2-Oxazoline, 2-phenyl-", "4,5-Dihydro-2-phenyloxazole", "2-Phenyl-2-oxazoline", "2-Phenyl-4,5-dihydrooxazole", "2-Phenyl-1,3-oxazoline", "2-Phenyl-4,5-dihydro-1,3-oxazole"], "SMILES": "C1(=NCCO1)C2=CC=CC=C2", "physical_data": {"Molecular Weight": "147.17", "Molecular Formula": "C9H9NO", "Boiling Point": "80 \u00b0C @ Press: 1.5-2 Torr", "Melting Point": "112 \u00b0C"}}