{"cas_no": "7128-64-5", "cn_name": "2,5-\u53cc(5-\u53d4\u4e01\u57fa-2-\u82ef\u5e76\u6076\u5511\u57fa)\u567b\u5429", "en_name": ["2,5-Bis(5\u2032-tert-butyl-2-benzoxazolyl)thiophene", "Benzoxazole, 2,2\u2032-(2,5-thiophenediyl)bis[5-(1,1-dimethylethyl)-", "Benzoxazole, 2,2\u2032-(2,5-thiophenediyl)bis[5-tert-butyl-", "2,2\u2032-(2,5-Thiophenediyl)bis[5-(1,1-dimethylethyl)benzoxazole]", "2,5-Di(5-tert-butylbenzoxazol-2-yl)thiophene", "2,5-Bis(5-tert-butyl-2-benzoxazolyl)thiophene", "2,2\u2032-(2,5-Thiophenediyl)bis[5-tert-butylbenzoxazole]", "BBOT", "2,5-Bis(5\u2032-tert-butyl-2-benzoxazolyl)thiophene", "Uvitex OB", "BBOT 150", "Uvitex 3BSA", "C.I. Fluorescent Brightening Agent 184", "C.I. Fluorescent Brightener 184", "C.I. 515245", "Fluorescent Brightener 184", "Keyfluor White PL", "O-B TECH", "Uvitex OB 55", "NSC 158163", "C.I. FBA 184", "OB", "TBO", "2,5-Bis(5-tert-butylbenzooxazol-2-yl)thiophene", "Tinopal OB", "B 0047", "OB-FBA 184", "Hitex OB", "Brightener OB", "MPI Bright 100", "Benetex OB", "Helios SC", "SpeedBright OB 184", "OB 184", "Fluorescent brightener OB", "2,2\u2032-(2,5-Thiophenediyl)bis(5-tert-butylbenzoxazole)", "S-FN", "Telalux OB", "Tinopal OB-CO", "Mayzo OB Plus", "Benetex OB+", "Benetex OB Plus"], "SMILES": "C(C)(C)(C)C=1C=C2N=C(OC2=CC1)C=3SC(=CC3)C4=NC=5C(O4)=CC=C(C(C)(C)C)C5", "physical_data": {"Molecular Weight": "430.56", "Molecular Formula": "C26H26N2O2S", "Melting Point": "201-202 \u00b0C"}}