{"cas_no": "71283-80-2", "cn_name": "\u7cbe\u6076\u5511\u79be\u8349\u7075", "en_name": ["Fenoxaprop P-ethyl", "Propanoic acid, 2-[4-[(6-chloro-2-benzoxazolyl)oxy]phenoxy]-, ethyl ester, (2R)-", "Propanoic acid, 2-[4-[(6-chloro-2-benzoxazolyl)oxy]phenoxy]-, ethyl ester, (R)-", "Fenoxaprop-P ethyl ester", "HOE 046360", "Fenoxaprop P-ethyl", "Furore Super", "(R)-Ethyl fenoxaprop", "Isomero", "Cheetah", "Whip Super", "Ricestar", "Whip S", "Ethyl (2R)-2-[4-(6-chloro-2-benzoxazolyloxy)phenoxy]propionate", "Super Whip", "Option Super", "Exel Super", "Aclaim", "Acclaim Extra", "Proper Energy", "Ralon super", "Whip 360", "XL 71AG", "Primera Super", "(+)-(R)-Fenoxaprop-ethyl", "Pujing", "AEF 046360", "AEF 04-6360", "Imaspro", "Puma", "Puma (herbicide)"], "SMILES": "O(C1=NC=2C(O1)=CC(Cl)=CC2)C3=CC=C(OC(C(OCC)=O)C)C=C3", "physical_data": {"Molecular Weight": "361.78", "Molecular Formula": "C18H16ClNO5", "Boiling Point": "&gt;300 \u00b0C", "Melting Point": "90 \u00b0C"}}