{"cas_no": "71294-03-6", "cn_name": "7-\u6c1f-2-\u5432\u54da\u916e", "en_name": ["7-Fluoro-1,3-dihydro-2H-indol-2-one", "2H-Indol-2-one, 7-fluoro-1,3-dihydro-", "7-Fluoro-1,3-dihydro-2H-indol-2-one", "7-Fluorooxindole", "7-Fluoro-2-oxindole", "7-Fluoro-1,3-dihydroindol-2-one", "7-Fluoroindolin-2-one"], "SMILES": "FC1=C2C(CC(=O)N2)=CC=C1", "physical_data": {"Molecular Weight": "151.14", "Molecular Formula": "C8H6FNO", "Melting Point": "192-196 \u00b0C"}}