{"cas_no": "713-68-8", "cn_name": "3-\u82ef\u6c27\u57fa\u82ef\u915a", "en_name": ["3-Phenoxyphenol", "Phenol, 3-phenoxy-", "Phenol, m-phenoxy-", "3-Phenoxyphenol", "m-Phenoxyphenol", "3-Hydroxydiphenyl ether", "NSC 57079"], "SMILES": "O(C1=CC(O)=CC=C1)C2=CC=CC=C2", "physical_data": {"Molecular Weight": "186.21", "Molecular Formula": "C12H10O2", "Boiling Point": "143-146 \u00b0C @ Press: 2 Torr", "Melting Point": "105 \u00b0C"}}