{"cas_no": "713-95-1", "cn_name": "\u4e01\u4f4d\u5341\u4e8c\u5185\u916f", "en_name": ["\u03b4-Dodecalactone", "2H-Pyran-2-one, 6-heptyltetrahydro-", "Dodecanoic acid, 5-hydroxy-, \u03b4-lactone", "6-Heptyltetrahydro-2H-pyran-2-one", "\u03b4-Dodecalactone", "5-Hydroxydodecanoic acid \u03b4-lactone", "5-Hydroxydodecanoic acid lactone", "\u03b4-Heptyl-\u03b4-valerolactone", "5-Dodecanolide", "AI 3-36030", "\u03b4-Dodecanolactone", "(\u00b1)-\u03b4-Dodecalactone", "(R,S)-\u03b4-Dodecalactone", "\u03b4-Dodecane lactone"], "SMILES": "C(CCCCCC)C1OC(=O)CCC1", "physical_data": {"Molecular Weight": "198.30", "Molecular Formula": "C12H22O2", "Boiling Point": "126 \u00b0C @ Press: 1 Torr", "Density": "0.9536 g/cm\u00b3 @ Temp: 20 \u00b0C"}}