{"cas_no": "713-36-0", "cn_name": "2-\u7532\u57fa\u4e8c\u82ef\u57fa\u7532\u70f7", "en_name": ["1-Methyl-2-(phenylmethyl)benzene", "Benzene, 1-methyl-2-(phenylmethyl)-", "Methane, phenyl-o-tolyl-", "1-Methyl-2-(phenylmethyl)benzene", "2-Methyldiphenylmethane", "o-Benzyltoluene", "Phenyl-o-tolylmethane", "o-Tolylphenylmethane", "\u03b1-Phenyl-o-xylene", "2-Benzyltoluene", "Phenyl-2-tolylmethane", "(2-Methylphenyl)phenylmethane", "o-Methyldiphenylmethane", "Phenyl(o-methylphenyl)methane", "1-Benzyl-2-methylbenzene", "NSC 75366"], "SMILES": "C(C1=C(C)C=CC=C1)C2=CC=CC=C2", "physical_data": {"Molecular Weight": "182.26", "Molecular Formula": "C14H14", "Boiling Point": "280.5 \u00b0C", "Melting Point": "6.6 \u00b0C", "Density": "0.9945 g/cm\u00b3 @ Temp: 20 \u00b0C"}}