{"cas_no": "71301-98-9", "cn_name": "R-(+)-2-(4-\u7f9f\u57fa\u82ef\u6c27\u57fa)\u4e19\u9178\u4e59\u916f", "en_name": ["Ethyl (2R)-2-(4-hydroxyphenoxy)propanoate", "Propanoic acid, 2-(4-hydroxyphenoxy)-, ethyl ester, (2R)-", "Propanoic acid, 2-(4-hydroxyphenoxy)-, ethyl ester, (R)-", "Ethyl (2R)-2-(4-hydroxyphenoxy)propanoate", "Ethyl (R)-2-(4-hydroxyphenoxy)propionate", "(R)-2-(4-Hydroxyphenoxy)propionic acid ethyl ester", "(R)-2-(p-Hydroxyphenoxy)propionic acid ethyl ester", "(R)-Ethyl 2-(4-hydroxyphenoxy)propanoate"], "SMILES": "O(C(C(OCC)=O)C)C1=CC=C(O)C=C1", "physical_data": {"Molecular Weight": "210.23", "Molecular Formula": "C11H14O4", "Melting Point": "36-37 \u00b0C"}}