{"cas_no": "71310-21-9", "cn_name": "11-\u5def\u57fa\u5341\u4e00\u70f7\u9178", "en_name": ["11-Mercaptoundecanoic acid", "Undecanoic acid, 11-mercapto-", "11-Mercaptoundecanoic acid", "\u03c9-Mercaptoundecanoic acid", "11-Thioundecanoic acid", "11-Mercaptoundecylic acid"], "SMILES": "C(CCCCCCCS)CCC(O)=O", "physical_data": {"Molecular Weight": "218.36", "Molecular Formula": "C11H22O2S", "Boiling Point": "159 \u00b0C @ Press: 1 Torr", "Melting Point": "94-95 \u00b0C"}}