{"cas_no": "7132-64-1", "cn_name": "\u5341\u4e94\u70f7\u9178\u7532\u919a", "en_name": ["Methyl pentadecanoate", "Pentadecanoic acid, methyl ester", "Methyl pentadecanoate", "Methyl n-pentadecanoate"], "SMILES": "C(CCCCCCCCCCC)CCC(OC)=O", "physical_data": {"Molecular Weight": "256.42", "Molecular Formula": "C16H32O2", "Boiling Point": "141.5 \u00b0C", "Melting Point": "18.5 \u00b0C"}}