{"cas_no": "71320-77-9", "cn_name": "\u5417\u6c2f\u8d1d\u80fa", "en_name": ["Moclobemide", "Benzamide, 4-chloro-N-[2-(4-morpholinyl)ethyl]-", "4-Chloro-N-[2-(4-morpholinyl)ethyl]benzamide", "Ro 11-1163", "Moclobemide", "4-Chloro-N-(2-morpholin-4-ylethyl)benzamide", "Aurorix", "4-Chloro-N-(2-morpholinoethyl)benzamide", "Moclaime", "Ro 11-1163/000", "Manerix", "p-Chloro-N-(2-morpholinoethyl)-benzamide", "Auromid", "MeSH ID: D020912"], "SMILES": "C(NCCN1CCOCC1)(=O)C2=CC=C(Cl)C=C2", "physical_data": {"Molecular Weight": "268.74", "Molecular Formula": "C13H17ClN2O2", "Melting Point": "137 \u00b0C"}}