{"cas_no": "7133-90-6", "cn_name": "2-\u7f9f\u57fa\u786b\u4ee3\u82ef\u7532\u9170\u80fa", "en_name": ["2-Hydroxybenzenecarbothioamide", "Benzenecarbothioamide, 2-hydroxy-", "Salicylamide, thio-", "2-Hydroxybenzenecarbothioamide", "2-Hydroxythiobenzamide", "Thiosalicylamide", "2-Hydroxybenzothiamide", "Salicylthioamide", "2-Hydroxybenzene-1-carbothioamide"], "SMILES": "C(N)(=S)C1=C(O)C=CC=C1", "physical_data": {"Molecular Weight": "153.20", "Molecular Formula": "C7H7NOS", "Melting Point": "118-120 \u00b0C"}}