{"cas_no": "71368-80-4", "cn_name": "8-\u6eb4-1-\u7532\u57fa-6-\u82ef\u57fa-4H-[1,2,4]\u4e09\u6c2e\u5511\u5e76[4,3-A][1,4]\u82ef\u5e76\u4e8c\u6c2e\u6742\u5353", "en_name": ["8-Bromo-1-methyl-6-phenyl-4H-[1,2,4]triazolo[4,3-a][1,4]benzodiazepine", "4H-[1,2,4]Triazolo[4,3-a][1,4]benzodiazepine, 8-bromo-1-methyl-6-phenyl-", "8-Bromo-1-methyl-6-phenyl-4H-[1,2,4]triazolo[4,3-a][1,4]benzodiazepine", "8-Bromo-1-methyl-6-phenyl-4H-s-triazolo[4,3-a][1,4]benzodiazepine"], "SMILES": "CC=1N2C=3C(C(=NCC2=NN1)C4=CC=CC=C4)=CC(Br)=CC3", "physical_data": {"Molecular Weight": "353.22", "Molecular Formula": "C17H13BrN4", "Melting Point": "272.0-275 \u00b0C"}}