{"cas_no": "7138-40-1", "cn_name": "\u4e8c\u5341\u4e03\u70f7\u9178", "en_name": ["Heptacosanoic acid", "Heptacosanoic acid", "Carboceric acid", "Heptacosylic acid"], "SMILES": "C(CCCCCCCCCCCCCCCCCC)CCCCCCCC(O)=O", "physical_data": {"Molecular Weight": "410.72", "Molecular Formula": "C27H54O2", "Melting Point": "86.8 \u00b0C"}}