{"cas_no": "7139-02-8", "cn_name": "2,6-\u4e8c\u6c2f-4,8-\u4e8c\u54cc\u5576\u5b50\u57fa\u5627\u5576\u5e76[5,4-D]\u5627\u5576", "en_name": ["2,6-Dichloro-4,8-di-1-piperidinylpyrimido[5,4-d]pyrimidine", "Pyrimido[5,4-d]pyrimidine, 2,6-dichloro-4,8-di-1-piperidinyl-", "Pyrimido[5,4-d]pyrimidine, 2,6-dichloro-4,8-dipiperidino-", "2,6-Dichloro-4,8-di-1-piperidinylpyrimido[5,4-d]pyrimidine"], "SMILES": "ClC1=NC2=C(C(=N1)N3CCCCC3)N=C(Cl)N=C2N4CCCCC4", "physical_data": {"Molecular Weight": "367.28", "Molecular Formula": "C16H20Cl2N6", "Melting Point": "245-246 \u00b0C"}}