{"cas_no": "71418-44-5", "cn_name": "\u8367\u5149\u4e13\u7528\u8bd5\u5242", "en_name": ["Monobromobimane", "1H,7H-Pyrazolo[1,2-a]pyrazole-1,7-dione, 3-(bromomethyl)-2,5,6-trimethyl-", "3-(Bromomethyl)-2,5,6-trimethyl-1H,7H-pyrazolo[1,2-a]pyrazole-1,7-dione", "Monobromobimane", "Thiolyte MB", "Bromobimane", "NSC 608544"], "SMILES": "C(Br)C=1N2N(C(=O)C1C)C(=O)C(C)=C2C", "physical_data": {"Molecular Weight": "271.11", "Molecular Formula": "C10H11BrN2O2", "Melting Point": "142 \u00b0C"}}