{"cas_no": "714272-27-2", "cn_name": "(3Z,6Z)-3-[(5-\u53d4\u4e01\u57fa-1H-\u54aa\u5511-4-\u57fa)\u4e9a\u7532\u57fa]-6-(\u82ef\u4e9a\u7532\u57fa)-2,5-\u54cc\u55ea\u4e8c\u916e", "en_name": ["Plinabulin", "2,5-Piperazinedione, 3-[[5-(1,1-dimethylethyl)-1H-imidazol-4-yl]methylene]-6-(phenylmethylene)-, (3Z,6Z)-", "(3Z,6Z)-3-[[5-(1,1-Dimethylethyl)-1H-imidazol-4-yl]methylene]-6-(phenylmethylene)-2,5-piperazinedione", "NPI 2358", "Plinabulin", "BPI 2358"], "SMILES": "C(C1=C(C(C)(C)C)N=CN1)=C2C(=O)NC(=CC3=CC=CC=C3)C(=O)N2", "physical_data": {"Molecular Weight": "336.39", "Molecular Formula": "C19H20N4O2", "Melting Point": "160-162 \u00b0C"}}