{"cas_no": "7142-09-8", "cn_name": "6-\u6c2f-2-\u7532\u57fa-4-\u7f9f\u57fa\u55b9\u5511\u5549", "en_name": ["6-Chloro-2-methyl-4(3H)-quinazolinone", "4(3H)-Quinazolinone, 6-chloro-2-methyl-", "4(1H)-Quinazolinone, 6-chloro-2-methyl-", "6-Chloro-2-methyl-4(3H)-quinazolinone", "6-Chloro-2-methylquinazolin-4(3H)-one", "NSC 45786", "6-Chloro-4-hydroxy-2-methylquinazoline"], "SMILES": "O=C1C=2C(NC(C)=N1)=CC=C(Cl)C2", "physical_data": {"Molecular Weight": "194.62", "Molecular Formula": "C9H7ClN2O", "Melting Point": "287 \u00b0C"}}