{"cas_no": "71422-67-8", "cn_name": "\u6c1f\u5576\u8132", "en_name": ["Chlorfluazuron", "Benzamide, N-[[[3,5-dichloro-4-[[3-chloro-5-(trifluoromethyl)-2-pyridinyl]oxy]phenyl]amino]carbonyl]-2,6-difluoro-", "N-[[[3,5-Dichloro-4-[[3-chloro-5-(trifluoromethyl)-2-pyridinyl]oxy]phenyl]amino]carbonyl]-2,6-difluorobenzamide", "UC 62644", "CGA 112913", "PP 145", "IKI 7899", "Chlorfluazuron", "Atabron", "AI 3-29785", "Jupiter (pesticide)", "Jupiter", "Aim", "Aim (insecticide)", "PP 145 (insecticide)", "N-(2,6-Difluorobenzoyl)-N\u2032-[3,5-dichloro-4-(3-chloro-5-trifluoromethyl-2-pyridyloxy)phenyl]urea"], "SMILES": "O(C1=C(Cl)C=C(NC(NC(=O)C2=C(F)C=CC=C2F)=O)C=C1Cl)C3=C(Cl)C=C(C(F)(F)F)C=N3", "physical_data": {"Molecular Weight": "540.65", "Molecular Formula": "C20H9Cl3F5N3O3", "Melting Point": "226.5 \u00b0C (decomp)"}}