{"cas_no": "71432-55-8", "cn_name": "O-\u53d4\u4e01\u57fa-N,N'-\u4e8c\u5f02\u4e19\u57fa\u5f02\u8132", "en_name": ["1,1-Dimethylethyl N,N\u2032-bis(1-methylethyl)carbamimidate", "Carbamimidic acid, N,N\u2032-bis(1-methylethyl)-, 1,1-dimethylethyl ester", "1,1-Dimethylethyl N,N\u2032-bis(1-methylethyl)carbamimidate", "O-tert-Butyl-N,N\u2032-diisopropylisourea", "N,N\u2032-Diisopropyl-O-tert-butylisourea", "2-tert-Butyl-1,3-diisopropylpseudourea", "2-tert-Butyl-1,3-diisopropylisourea", "tert-Butyl N,N\u2032-dipropan-2-ylcarbamimidate"], "SMILES": "O(C(=NC(C)C)NC(C)C)C(C)(C)C", "physical_data": {"Molecular Weight": "200.32", "Molecular Formula": "C11H24N2O", "Boiling Point": "86 \u00b0C @ Press: 0.24 Torr"}}