{"cas_no": "7143-01-3", "cn_name": "\u7532\u57fa\u78fa\u9178\u9150", "en_name": ["Methanesulfonic anhydride", "Methanesulfonic acid, 1,1\u2032-anhydride", "Methanesulfonic anhydride", "Methanesulfonic acid, anhydride", "Mesyl anhydride", "Methanesulfonyl anhydride", "NSC 65906", "Mesylic anhydride", "Methylsulfonyl methanesulfonate"], "SMILES": "O(S(C)(=O)=O)S(C)(=O)=O", "physical_data": {"Molecular Weight": "174.20", "Molecular Formula": "C2H6O5S2", "Boiling Point": "105-109 \u00b0C @ Press: 1 Torr", "Melting Point": "63-63.5 \u00b0C"}}