{"cas_no": "71441-28-6", "cn_name": "TTNPB (Arotinoid Acid)", "en_name": ["TTNPB", "Benzoic acid, 4-[(1E)-2-(5,6,7,8-tetrahydro-5,5,8,8-tetramethyl-2-naphthalenyl)-1-propen-1-yl]-", "Benzoic acid, 4-[2-(5,6,7,8-tetrahydro-5,5,8,8-tetramethyl-2-naphthalenyl)-1-propenyl]-, (E)-", "Benzoic acid, 4-[(1E)-2-(5,6,7,8-tetrahydro-5,5,8,8-tetramethyl-2-naphthalenyl)-1-propenyl]-", "4-[(1E)-2-(5,6,7,8-Tetrahydro-5,5,8,8-tetramethyl-2-naphthalenyl)-1-propen-1-yl]benzoic acid", "Ro 13-7410", "Arotinoid acid", "Arotinoid free acid", "TTNPB", "AGN 191183", "TTNB", "4-[(E)-2-(5,6,7,8-Tetrahydro-5,5,8,8-tetramethyl-2-naphthalenyl)-1-propenyl]benzoic acid"], "SMILES": "CC1(C)C=2C(C(C)(C)CC1)=CC=C(C(=CC3=CC=C(C(O)=O)C=C3)C)C2", "physical_data": {"Molecular Weight": "348.48", "Molecular Formula": "C24H28O2", "Melting Point": "239-240 \u00b0C"}}