{"cas_no": "71449-78-0", "cn_name": "\u4e8c\u82ef\u57fa-(4-\u82ef\u57fa\u786b)\u82ef\u57fa\u950d\u516d\u6c1f\u9511\u9178\u76d0", "en_name": ["Sulfonium, diphenyl[4-(phenylthio)phenyl]-, (OC-6-11)-hexafluoroantimonate(1-) (1:1)", "Sulfonium, diphenyl[4-(phenylthio)phenyl]-, (OC-6-11)-hexafluoroantimonate(1-) (1:1)", "Sulfonium, diphenyl[4-(phenylthio)phenyl]-, hexafluoroantimonate(1-)", "Sulfonium, diphenyl[4-(phenylthio)phenyl]-, (OC-6-11)-hexafluoroantimonate(1-)", "Antimonate(1-), hexafluoro-, diphenyl[4-(phenylthio)phenyl]sulfonium", "Antimonate(1-), hexafluoro-, (OC-6-11)-, diphenyl[4-(phenylthio)phenyl]sulfonium", "(p-Thiophenoxyphenyl)diphenylsulfonium hexafluoroantimonate", "Diphenyl(p-thiophenoxyphenyl)sulfonium hexafluoroantimonate", "Diphenyl[p-(phenylthio)phenyl]sulfonium hexafluoroantimonate", "Diphenyl(4-phenylthiophenyl)sulfonium hexafluoroantimonate", "S,S-Diphenyl-S-4-thiophenoxyphenylsulfoniumhexafluoroantimonate", "4-(Phenylthio)phenyldiphenylsulfonium hexafluoroantimonate", "(4-Thiophenoxyphenyl)diphenylsulfonium hexafluoroantimonate", "DTS 103", "CPI 100A", "CPI 110A", "CPI 101A", "PAG 201", "Aceto PI 6976", "Photoinitiator 6976", "UV 6976", "Easepi 6976", "PAG 002"], "SMILES": "[Sb+5]([F-])([F-])([F-])([F-])([F-])[F-].[S+](C1=CC=C(SC2=CC=CC=C2)C=C1)(C3=CC=CC=C3)C4=CC=CC=C4", "physical_data": {"Molecular Weight": "", "Molecular Formula": "C24H19S2.F6Sb", "Melting Point": "118-119 \u00b0C"}}