{"cas_no": "7144-65-2", "cn_name": "\u90bb\u82ef\u57fa\u82ef\u915a\u7f29\u6c34\u7518\u6cb9\u919a", "en_name": ["2-[([1,1\u2032-Biphenyl]-2-yloxy)methyl]oxirane", "Oxirane, 2-[([1,1\u2032-biphenyl]-2-yloxy)methyl]-", "Propane, 1-(2-biphenylyloxy)-2,3-epoxy-", "Oxirane, [([1,1\u2032-biphenyl]-2-yloxy)methyl]-", "Propane, 3-[2-biphenylyloxy]-1,2-epoxy-", "2-[([1,1\u2032-Biphenyl]-2-yloxy)methyl]oxirane", "2-(2,3-Epoxypropoxy)biphenyl", "3-(2-Xenyloxy)propylene oxide", "3-(2-Biphenylyloxy)propylene oxide", "3-(2-Xenyloxy)-1,2-epoxypropane", "2-Biphenylyl glycidyl ether", "OPP-G", "Glycidyl o-phenylphenol ether", "o-Phenylphenyl glycidyl ether", "3-(Biphenyl-2-oxy)-1,2-epoxypropane", "NSC 52971", "Glycidyl 2-phenylphenyl ether", "G 0098", "SY-OPG", "Denacol EX 142", "EX 142", "2-(2-Phenylphenoxymethyl)oxirane", "OPP-EP"], "SMILES": "O(CC1CO1)C2=C(C=CC=C2)C3=CC=CC=C3", "physical_data": {"Molecular Weight": "226.27", "Molecular Formula": "C15H14O2", "Boiling Point": "132 \u00b0C @ Press: 0.1 Torr"}}