{"cas_no": "7144-08-3", "cn_name": "\u80c6\u56fa\u9187\u7532\u9170\u6c2f", "en_name": ["Cholesteryl chloroformate", "Cholest-5-en-3-ol (3\u03b2)-, 3-(carbonochloridate)", "Cholesterol, chloroformate", "Cholest-5-en-3-ol (3\u03b2)-, carbonochloridate", "Formic acid, chloro-, cholesteryl ester", "Cholesteryl chloroformate", "(Cholesteryloxy)carbonyl chloride", "3-Cholesteryl chloroformate", "Cholesteryl chlorocarbonate", "Cholesterol carbonochloridate", "Cholesterol chlorocarbonate", "Cholest-5-en-3\u03b2-ol chloroformate", "NSC 59689", "3\u03b2-[(Chlorocarbonyl)oxy]-5-cholestene"], "SMILES": "CC12C3C(C4C(C)(CC3)C(C(CCCC(C)C)C)CC4)CC=C1CC(OC(Cl)=O)CC2", "physical_data": {"Molecular Weight": "449.11", "Molecular Formula": "C28H45ClO2", "Melting Point": "117-118 \u00b0C"}}