{"cas_no": "71441-76-4", "cn_name": "1-\u7532\u57fa\u73af\u4e19\u70f7-1-\u7532\u9178\u4e59\u916f", "en_name": ["Cyclopropanecarboxylic acid, 1-methyl-, ethyl ester", "Cyclopropanecarboxylic acid, 1-methyl-, ethyl ester", "Ethyl 1-methylcyclopropanecarboxylate", "1-Methylcyclopropanecarboxylic acid ethyl ester"], "SMILES": "C(OCC)(=O)C1(C)CC1", "physical_data": {"Molecular Weight": "128.17", "Molecular Formula": "C7H12O2", "Boiling Point": "136-138 \u00b0C"}}