{"cas_no": "7144-05-0", "cn_name": "4-\u6c28\u7532\u57fa\u54cc\u5576", "en_name": ["4-(Aminomethyl)piperidine", "4-Piperidinemethanamine", "Piperidine, 4-(aminomethyl)-", "4-(Aminomethyl)piperidine", "NSC 194294", "NSC 62826", "1-(Piperidin-4-yl)methanamine", "(Piperidin-4-ylmethyl)amine", "Piperidin-4-ylmethanamine"], "SMILES": "C(N)C1CCNCC1", "physical_data": {"Molecular Weight": "114.19", "Molecular Formula": "C6H14N2", "Boiling Point": "200 \u00b0C", "Melting Point": "25 \u00b0C"}}