{"cas_no": "7145-82-6", "cn_name": "1-\u7898-2,4,5-\u4e09\u6c2f\u82ef,", "en_name": ["1,2,4-Trichloro-5-iodobenzene", "Benzene, 1,2,4-trichloro-5-iodo-", "1,2,4-Trichloro-5-iodobenzene", "2,4,5-Trichloroiodobenzene", "NSC 74997", "2,4,5-Trichloro-1-iodobenzene", "1-Iodo-2,4,5-trichlorobenzene"], "SMILES": "ClC1=C(Cl)C=C(I)C(Cl)=C1", "physical_data": {"Molecular Weight": "307.34", "Molecular Formula": "C6H2Cl3I", "Melting Point": "107 \u00b0C"}}