{"cas_no": "7145-99-5", "cn_name": "3,4-(\u4e9a\u7532\u4e8c\u6c27\u57fa)\u7532\u82ef", "en_name": ["5-Methyl-1,3-benzodioxole", "1,3-Benzodioxole, 5-methyl-", "Toluene, 3,4-(methylenedioxy)-", "5-Methyl-1,3-benzodioxole", "3,4-(Methylenedioxy)toluene", "5-Methylbenzo[d][1,3]dioxole", "NSC 15642", "4-Methyl-1,2-methylenedioxybenzene"], "SMILES": "CC=1C=C2C(=CC1)OCO2", "physical_data": {"Molecular Weight": "136.15", "Molecular Formula": "C8H8O2", "Boiling Point": "193-195 \u00b0C"}}