{"cas_no": "7146-67-0", "cn_name": "N,N-\u53cc-(2-\u7f9f\u4e59\u57fa)-\u5bf9\u7532\u82ef\u78fa\u9170\u80fa", "en_name": ["N,N-Bis(2-hydroxyethyl)-4-methylbenzenesulfonamide", "Benzenesulfonamide, N,N-bis(2-hydroxyethyl)-4-methyl-", "p-Toluenesulfonamide, N,N-bis(2-hydroxyethyl)-", "N,N-Bis(2-hydroxyethyl)-4-methylbenzenesulfonamide", "N,N-Bis(2-hydroxyethyl)-p-toluenesulfonamide", "NSC 23811", "NSC 46865", "(p-Tolylsulfonyl)diethanolamine", "PTSA 40X"], "SMILES": "S(N(CCO)CCO)(=O)(=O)C1=CC=C(C)C=C1", "physical_data": {"Molecular Weight": "259.32", "Molecular Formula": "C11H17NO4S", "Melting Point": "101 \u00b0C"}}