{"cas_no": "7146-68-1", "cn_name": "4-((4-\u6c2f\u82ef\u57fa)\u78fa\u9170\u57fa)\u82ef\u80fa", "en_name": ["4-[(4-Chlorophenyl)sulfonyl]benzenamine", "Benzenamine, 4-[(4-chlorophenyl)sulfonyl]-", "Aniline, p-[(p-chlorophenyl)sulfonyl]-", "4-[(4-Chlorophenyl)sulfonyl]benzenamine", "4-Amino-4\u2032-chlorodiphenyl sulfone", "4-Aminophenyl 4-chlorophenyl sulfone", "p-(p-Chlorophenylsulfonyl)aniline", "p-Aminophenyl p-chlorophenyl sulfone", "4-(4-Chlorobenzenesulfonyl)phenylamine", "NSC 23812", "NSC 51990"], "SMILES": "S(=O)(=O)(C1=CC=C(Cl)C=C1)C2=CC=C(N)C=C2", "physical_data": {"Molecular Weight": "267.73", "Molecular Formula": "C12H10ClNO2S", "Melting Point": "184-185 \u00b0C"}}