{"cas_no": "7146-15-8", "cn_name": "D-\u7f2c\u6c28\u9178\u7532\u916f\u76d0\u9178\u76d0", "en_name": ["D-Valine, methyl ester, hydrochloride (1:1)", "D-Valine, methyl ester, hydrochloride (1:1)", "Valine, methyl ester, hydrochloride, D-", "D-Valine, methyl ester, hydrochloride", "Methyl D-valinate hydrochloride", "(R)-2-Amino-3-methylbutyric acid methyl ester hydrochloride", "NSC 22921", "(R)-2-Amino-3-methylbutanoic acid methyl ester hydrochloride", "Methyl (R)-2-amino-3-methylbutanoate hydrochloride", "(R)-Methyl 2-amino-3-methylbutanoate hydrochloride"], "SMILES": "C(C(OC)=O)(C(C)C)N.Cl", "physical_data": {"Molecular Weight": "", "Molecular Formula": "C6H13NO2.ClH", "Melting Point": "167.5-168 \u00b0C"}}