{"cas_no": "7147-77-5", "cn_name": "5-\u5bf9\u785d\u57fa\u82ef\u57fa\u7ce0\u919b", "en_name": ["5-(4-Nitrophenyl)-2-furancarboxaldehyde", "2-Furancarboxaldehyde, 5-(4-nitrophenyl)-", "2-Furaldehyde, 5-(p-nitrophenyl)-", "5-(4-Nitrophenyl)-2-furancarboxaldehyde", "5-(p-Nitrophenyl)-2-furaldehyde", "5-(4-Nitrophenyl)-2-furaldehyde", "5-(4-Nitrophenyl)furfural", "5-(4-Nitrophenyl)furfuraldehyde", "5-(p-Nitrophenyl)-2-furancarboxaldehyde", "5-(p-Nitrophenyl)furfural", "NSC 31431"], "SMILES": "C(=O)C=1OC(=CC1)C2=CC=C(N(=O)=O)C=C2", "physical_data": {"Molecular Weight": "217.18", "Molecular Formula": "C11H7NO4", "Melting Point": "205-208 \u00b0C"}}