{"cas_no": "7147-89-9", "cn_name": "4-\u6c2f-5-\u7532\u57fa-2-\u785d\u57fa\u82ef\u915a", "en_name": ["4-Chloro-5-methyl-2-nitrophenol", "Phenol, 4-chloro-5-methyl-2-nitro-", "m-Cresol, 4-chloro-6-nitro-", "4-Chloro-5-methyl-2-nitrophenol", "4-Chloro-3-methyl-6-nitrophenol", "4-Chloro-6-nitro-m-cresol", "4-Chloro-6-nitro-3-methylphenol", "NSC 28451", "4-Chloro-6-nitro-3-cresol"], "SMILES": "N(=O)(=O)C1=C(O)C=C(C)C(Cl)=C1", "physical_data": {"Molecular Weight": "187.58", "Molecular Formula": "C7H6ClNO3", "Melting Point": "133 \u00b0C"}}