{"cas_no": "7148-06-3", "cn_name": "N,N-\u4e8c\u7532\u57fa\u7518\u6c28\u9178\u7532\u916f", "en_name": ["N,N-Dimethylglycine methyl ester", "Glycine, N,N-dimethyl-, methyl ester", "N,N-Dimethylglycine methyl ester", "Methyl (dimethylamino)acetate", "NSC 29651"], "SMILES": "C(CN(C)C)(OC)=O", "physical_data": {"Molecular Weight": "117.15", "Molecular Formula": "C5H11NO2", "Boiling Point": "50-53 \u00b0C @ Press: 30 Torr"}}