{"cas_no": "7148-78-9", "cn_name": "\u8089\u6842\u919b\u4e8c\u4e59\u7f29\u919b", "en_name": ["(3,3-Diethoxy-1-propen-1-yl)benzene", "Benzene, (3,3-diethoxy-1-propen-1-yl)-", "Cinnamaldehyde, diethyl acetal", "Benzene, (3,3-diethoxy-1-propenyl)-", "(3,3-Diethoxy-1-propen-1-yl)benzene", "Benzene, (3,3-diethoxypropenyl)-", "(3,3-Diethoxy-1-propenyl)benzene", "NSC 53852"], "SMILES": "C(=CC(OCC)OCC)C1=CC=CC=C1", "physical_data": {"Molecular Weight": "206.28", "Molecular Formula": "C13H18O2", "Boiling Point": "126-127 \u00b0C @ Press: 10 Torr"}}