{"cas_no": "7148-74-5", "cn_name": "2-\u6eb4\u4e19\u9170\u6c2f", "en_name": ["2-Bromopropanoyl chloride", "Propanoyl chloride, 2-bromo-", "Propionyl chloride, 2-bromo-", "2-Bromopropanoyl chloride", "\u03b1-Bromopropionyl chloride", "2-Bromopropionyl chloride", "\u03b1-Bromopropionic acid chloride", "\u03b1-Bromopropanoyl chloride", "2-Bromopropionic acid chloride", "(\u00b1)-2-Bromopropionyl chloride", "NSC 64455"], "SMILES": "C(C(Cl)=O)(Br)C", "physical_data": {"Molecular Weight": "171.42", "Molecular Formula": "C3H4BrClO", "Boiling Point": "132 \u00b0C"}}