{"cas_no": "7148-03-0", "cn_name": "4'-\u7532\u57fa\u8054\u82ef-2-\u7fa7\u9178", "en_name": ["4\u2032-Methyl[1,1\u2032-biphenyl]-2-carboxylic acid", "[1,1\u2032-Biphenyl]-2-carboxylic acid, 4\u2032-methyl-", "2-Biphenylcarboxylic acid, 4\u2032-methyl-", "4\u2032-Methyl[1,1\u2032-biphenyl]-2-carboxylic acid", "2-(4-Methylphenyl)benzoic acid", "4\u2032-Methyl-2-biphenylcarboxylic acid", "2-(p-Tolyl)benzoic acid", "4\u2032-Methyl-2-biphenylylcarboxylic acid", "NSC 26069", "4-Methyl-2\u2032-biphenylcarboxylic acid", "2-Carboxy-4\u2032-methylbiphenyl"], "SMILES": "C(O)(=O)C1=C(C=CC=C1)C2=CC=C(C)C=C2", "physical_data": {"Molecular Weight": "212.24", "Molecular Formula": "C14H12O2", "Melting Point": "169-170 \u00b0C"}}