{"cas_no": "7148-51-8", "cn_name": "5ALPHA-16-\u70ef-3BETA-\u96c4\u753e\u9187", "en_name": ["5\u03b1-Androst-16-en-3\u03b2-ol", "Androst-16-en-3-ol, (3\u03b2,5\u03b1)-", "5\u03b1-Androst-16-en-3\u03b2-ol", "(3\u03b2,5\u03b1)-Androst-16-en-3-ol", "3\u03b2-Hydroxy-5\u03b1-androst-16-ene", "JNF 55", "NSC 65888", "16,(5\u03b1)-Androsten-3\u03b2-ol"], "SMILES": "CC12C3C(C4C(C)(CC3)C=CC4)CCC1CC(O)CC2", "physical_data": {"Molecular Weight": "274.44", "Molecular Formula": "C19H30O", "Melting Point": "123-124 \u00b0C"}}