{"cas_no": "7148-50-7", "cn_name": "5-\u7532\u57fa-5-\u4e19\u57fa-1,3-\u4e8c\u6076\u70f7-2-\u916e", "en_name": ["5-Methyl-5-propyl-1,3-dioxan-2-one", "1,3-Dioxan-2-one, 5-methyl-5-propyl-", "Carbonic acid, cyclic 2-methyl-2-propyltrimethylene ester", "1,3-Propanediol, 2-methyl-2-propyl-, cyclic carbonate", "5-Methyl-5-propyl-1,3-dioxan-2-one", "Carbonic acid, 2-methyl-2-propyltrimethylene ester", "NSC 65885"], "SMILES": "C(CC)C1(C)COC(=O)OC1", "physical_data": {"Molecular Weight": "158.20", "Molecular Formula": "C8H14O3", "Boiling Point": "125-130 \u00b0C @ Press: 0.1 Torr"}}