{"cas_no": "7148-07-4", "cn_name": "1-(1-\u5421\u54af\u70f7)\u73af\u620a\u70ef", "en_name": ["1-(1-Cyclopenten-1-yl)pyrrolidine", "Pyrrolidine, 1-(1-cyclopenten-1-yl)-", "1-(1-Cyclopenten-1-yl)pyrrolidine", "1-Pyrrolidinocyclopentene", "1-(Cyclopent-1\u2032-enyl)pyrrolidine", "1-Cyclopentenylpyrrolidine", "1-(1-Pyrrolidinyl)-1-cyclopentene", "1-(1-Pyrrolidinyl)cyclopentene", "N-(1-Cyclopenten-1-yl)pyrrolidine", "1-(1-Cyclopentenyl)pyrrolidine", "Cyclopentanone pyrrolidine enamine", "1-Pyrrolidinylcyclopentene", "N-(1-Cyclopentenyl)pyrrolidine", "NSC 29653"], "SMILES": "C=1(CCCC1)N2CCCC2", "physical_data": {"Molecular Weight": "137.22", "Molecular Formula": "C9H15N", "Boiling Point": "101-102 \u00b0C @ Press: 22 Torr"}}