{"cas_no": "7149-65-7", "cn_name": "L-\u7126\u8c37\u6c28\u9178\u4e59\u916f", "en_name": ["L-Pyroglutamic acid ethyl ester", "L-Proline, 5-oxo-, ethyl ester", "Proline, 5-oxo-, ethyl ester, L-", "Ethyl pyroglutamate", "Ethyl L-pyroglutamate", "L-2-Ethoxycarbonyl-5-pyrrolidone", "Ethyl L-2-oxo-5-pyrrolidinecarboxylate", "Ethyl L-2-pyrrolidone-5-carboxylate", "L-Pyroglutamic acid ethyl ester", "Ethyl (S)-pyroglutamate", "Pyroglutamic acid ethyl ester", "NSC 166529", "NSC 72279", "Ethyl (2S)-5-oxopyrrolidine-2-carboxylate", "(S)-(+)-Ethyl 2-pyrrolidone-5-carboxylate", "Ethyl 5-oxo-L-prolinate", "(2S)-5-Oxopyrrolidine-2-carboxylic acid ethyl ester", "Ethyl L-pyroglutamate", "(S)-Ethyl 5-oxopyrrolidine-2-carboxylate"], "SMILES": "C(OCC)(=O)C1CCC(=O)N1", "physical_data": {"Molecular Weight": "157.17", "Molecular Formula": "C7H11NO3", "Boiling Point": "140-145 \u00b0C @ Press: 1 Torr", "Melting Point": "55 \u00b0C"}}