{"cas_no": "7149-80-6", "cn_name": "5-\u6c2f-4-\u7532\u57fa-2-\u785d\u57fa\u82ef\u80fa", "en_name": ["5-Chloro-4-methyl-2-nitrobenzenamine", "Benzenamine, 5-chloro-4-methyl-2-nitro-", "5-Chloro-4-methyl-2-nitrobenzenamine", "5-Chloro-2-nitro-p-toluidine", "5-Chloro-4-methyl-2-nitroaniline", "NSC 72334", "5-Chloro-4-methyl-1-amino-2-nitrobenzene", "4-Amino-2-chloro-5-nitrotoluene"], "SMILES": "N(=O)(=O)C1=C(N)C=C(Cl)C(C)=C1", "physical_data": {"Molecular Weight": "186.60", "Molecular Formula": "C7H7ClN2O2", "Melting Point": "167-168 \u00b0C"}}