{"cas_no": "7149-59-9", "cn_name": "3-\u6c27\u4ee3\u5df1\u4e8c\u9178\u4e8c\u4e59\u916f", "en_name": ["Hexanedioic acid, 3-oxo-, 1,6-diethyl ester", "Hexanedioic acid, 3-oxo-, 1,6-diethyl ester", "Hexanedioic acid, 3-oxo-, diethyl ester", "Diethyl \u03b2-oxoadipate", "3-Oxohexanedioic acid diethyl ester", "Diethyl 3-oxohexanedioate", "3-Oxoadipic acid diethyl ester", "Diethyl 4-oxohexanedioate", "NSC 72263", "1,6-Diethyl 3-oxohexanedioate"], "SMILES": "C(CCC(OCC)=O)(CC(OCC)=O)=O", "physical_data": {"Molecular Weight": "216.23", "Molecular Formula": "C10H16O5", "Boiling Point": "65-70 \u00b0C @ Press: 1 x 10<sup>-3</sup> Torr"}}