{"cas_no": "7149-75-9", "cn_name": "4-\u6c2f-3-\u7532\u57fa\u82ef\u80fa", "en_name": ["4-Chloro-3-methylaniline", "Benzenamine, 4-chloro-3-methyl-", "m-Toluidine, 4-chloro-", "4-Chloro-3-methylbenzenamine", "5-Amino-2-chlorotoluene", "4-Chloro-3-methylaniline", "3-Methyl-4-chloroaniline", "4-Chloro-m-toluidine", "2-Chloro-5-aminotoluene", "(4-Chloro-3-methylphenyl)amine", "NSC 72329"], "SMILES": "CC1=C(Cl)C=CC(N)=C1", "physical_data": {"Molecular Weight": "141.60", "Molecular Formula": "C7H8ClN", "Boiling Point": "241 \u00b0C", "Melting Point": "83.5 \u00b0C"}}