{"cas_no": "7149-42-0", "cn_name": "(1-\u7532\u57fa-4-\u54cc\u5576-)\u7532\u80fa", "en_name": ["(1-Methylpiperidin-4-yl)methanamine", "4-Piperidinemethanamine, 1-methyl-", "Piperidine, 4-(aminomethyl)-1-methyl-", "1-Methyl-4-piperidinemethanamine", "4-Aminomethyl-1-methylpiperidine", "NSC 72092", "1-Methyl-4-(aminomethyl)piperidine", "1-(1-Methylpiperidin-4-yl)methanamine", "(1-Methylpiperidin-4-yl)methanamine", "[(1-Methylpiperidin-4-yl)methyl]amine", "(1-Methyl-4-piperidyl)methanamine", "(1-Methylpiperidin-4-yl)methaneamine"], "SMILES": "C(N)C1CCN(C)CC1", "physical_data": {"Molecular Weight": "128.22", "Molecular Formula": "C7H16N2", "Boiling Point": "80-81 \u00b0C @ Press: 20 Torr"}}