{"cas_no": "7149-79-3", "cn_name": "3-\u6c1f-4-\u7532\u57fa\u4e59\u9170\u82ef\u80fa", "en_name": ["N-(3-Chloro-4-methylphenyl)acetamide", "Acetamide, N-(3-chloro-4-methylphenyl)-", "p-Acetotoluidide, 3\u2032-chloro-", "N-(3-Chloro-4-methylphenyl)acetamide", "3\u2032-Chloro-4\u2032-acetotoluidide", "4-(Acetylamino)-2-chlorotoluene", "DRC 2698", "N-Acetyl-3-chloro-4-methylaniline", "3\u2032-Chloro-4\u2032-methylacetanilide", "NSC 72333"], "SMILES": "N(C(C)=O)C1=CC(Cl)=C(C)C=C1", "physical_data": {"Molecular Weight": "183.63", "Molecular Formula": "C9H10ClNO", "Melting Point": "105 \u00b0C"}}