{"cas_no": "7149-70-4", "cn_name": "2-\u6eb4-5-\u785d\u7532\u82ef", "en_name": ["1-Bromo-2-methyl-4-nitrobenzene", "Benzene, 1-bromo-2-methyl-4-nitro-", "Toluene, 2-bromo-5-nitro-", "1-Bromo-2-methyl-4-nitrobenzene", "2-Methyl-4-nitro-1-bromobenzene", "2-Bromo-5-nitrotoluene", "4-Bromo-3-methylnitrobenzene", "3-Methyl-4-bromonitrobenzene", "NSC 72323"], "SMILES": "N(=O)(=O)C1=CC(C)=C(Br)C=C1", "physical_data": {"Molecular Weight": "216.03", "Molecular Formula": "C7H6BrNO2", "Melting Point": "78 \u00b0C"}}