{"cas_no": "7149-10-2", "cn_name": "\u9999\u5170\u7d20\u80fa\u76d0\u9178\u76d0", "en_name": ["Phenol, 4-(aminomethyl)-2-methoxy-, hydrochloride (1:1)", "Phenol, 4-(aminomethyl)-2-methoxy-, hydrochloride (1:1)", "p-Cresol, \u03b1-amino-2-methoxy-, hydrochloride", "Phenol, 4-(aminomethyl)-2-methoxy-, hydrochloride", "Creosol, \u03b1-amino-, hydrochloride", "Vanillylamine hydrochloride", "3-Methoxy-4-hydroxybenzylamine hydrochloride", "4-(Aminomethyl)-2-methoxyphenol hydrochloride", "\u03b1-Aminocreosol hydrochloride", "\u03b1-Amino-2-methoxy-p-cresol hydrochloride", "4-Hydroxy-3-methoxybenzylamine hydrochloride", "4-Hydroxy-3-methoxybenzylamine monohydrochloride", "(4-Hydroxy-3-methoxyphenyl)methanaminium chloride"], "SMILES": "O(C)C1=CC(CN)=CC=C1O.Cl", "physical_data": {"Molecular Weight": "", "Molecular Formula": "C8H11NO2.ClH", "Melting Point": "227 \u00b0C"}}