{"cas_no": "7150-55-2", "cn_name": "4-\u6c2f-4'-\u7f9f\u57fa\u4e01\u82ef\u916e", "en_name": ["4-Chloro-1-(4-hydroxyphenyl)-1-butanone", "1-Butanone, 4-chloro-1-(4-hydroxyphenyl)-", "Butyrophenone, 4-chloro-4\u2032-hydroxy-", "4-Chloro-1-(4-hydroxyphenyl)-1-butanone", "p-(4-Chlorobutyryl)phenol", "4-Chloro-4\u2032-hydroxybutyrophenone", "NSC 71882"], "SMILES": "C(CCCCl)(=O)C1=CC=C(O)C=C1", "physical_data": {"Molecular Weight": "198.65", "Molecular Formula": "C10H11ClO2", "Melting Point": "114-115.2 \u00b0C"}}