{"cas_no": "7151-68-0", "cn_name": "3-\u7532\u6c27\u57fa-4-\u7532\u57fa\u82ef\u7532\u9178", "en_name": ["3-Methoxy-4-methylbenzoic acid", "Benzoic acid, 3-methoxy-4-methyl-", "m-Anisic acid, 4-methyl-", "3-Methoxy-4-methylbenzoic acid", "4-Methyl-3-methoxybenzoic acid", "NSC 70224"], "SMILES": "O(C)C1=CC(C(O)=O)=CC=C1C", "physical_data": {"Molecular Weight": "166.17", "Molecular Formula": "C9H10O3", "Boiling Point": "168-170 \u00b0C @ Press: 11 Torr", "Melting Point": "158 \u00b0C"}}