{"cas_no": "7152-03-6", "cn_name": "4-\u7532\u6c27\u57fa\u82ef\u57fa\u73af\u4e19\u57fa\u7532\u916e", "en_name": ["Cyclopropyl(4-methoxyphenyl)methanone", "Methanone, cyclopropyl(4-methoxyphenyl)-", "Ketone, cyclopropyl p-methoxyphenyl", "Cyclopropyl(4-methoxyphenyl)methanone", "Cyclopropyl 4-methoxyphenyl ketone", "p-Anisoylcyclopropane", "p-Anisyl cyclopropyl ketone", "Cyclopropyl p-methoxyphenyl ketone", "4-Methoxyphenyl cyclopropyl ketone", "NSC 71980"], "SMILES": "C(=O)(C1=CC=C(OC)C=C1)C2CC2", "physical_data": {"Molecular Weight": "176.21", "Molecular Formula": "C11H12O2", "Melting Point": "41-42 \u00b0C"}}