{"cas_no": "7152-15-0", "cn_name": "\u5f02\u4e01\u9170\u4e59\u9178\u4e59\u916f", "en_name": ["Ethyl isobutyrylacetate", "Pentanoic acid, 4-methyl-3-oxo-, ethyl ester", "Valeric acid, 4-methyl-3-oxo-, ethyl ester", "\u03b3,\u03b3-Dimethylacetoacetic acid ethyl ester", "Ethyl isobutyrylacetate", "Ethyl 4-methyl-3-oxopentanoate", "Ethyl 3-oxo-4-methylvalerate", "4-Methyl-3-oxo-pentanoic acid ethyl ester", "Ethyl 3-oxo-4-methylpentanoate", "4-Methyl-3-oxovaleric acid ethyl ester", "NSC 62029", "Ethyl 4-methyl-3-oxovalerate", "Isobutyrylacetic acid ethyl ester", "Ethyl 2-isobutyrylacetate", "Ethyl 3-isopropyl-3-oxopropanoate", "3-Oxo-4-methylpentanoic acid ethyl ester"], "SMILES": "C(CC(C(C)C)=O)(OCC)=O", "physical_data": {"Molecular Weight": "158.20", "Molecular Formula": "C8H14O3", "Boiling Point": "173 \u00b0C", "Melting Point": "-9 \u00b0C", "Density": "0.9854 g/cm\u00b3 @ Temp: 25 \u00b0C"}}