{"cas_no": "7152-24-1", "cn_name": "2-\u7532\u5def\u57fa\u82ef\u5e76\u54aa\u5511", "en_name": ["2-(Methylthio)benzimidazole", "1H-Benzimidazole, 2-(methylthio)-", "Benzimidazole, 2-(methylthio)-", "2-(Methylthio)-1H-benzimidazole", "S-Methyl-2-mercaptobenzimidazole", "2-Methylmercaptobenzimidazole", "2-(Methylthio)benzimidazole", "NSC 21699", "2-(Methylsulfanyl)benzimidazole", "2-(Methylsulfanyl)-1H-benzimidazole", "2-(Methylsulfanyl)-1H-1,3-benzodiazole"], "SMILES": "S(C)C=1NC=2C(N1)=CC=CC2", "physical_data": {"Molecular Weight": "164.23", "Molecular Formula": "C8H8N2S", "Melting Point": "203 \u00b0C"}}