{"cas_no": "7152-42-3", "cn_name": "10-\u82ef\u57fa\u5429\u567b\u55ea", "en_name": ["10-Phenylphenothiazine", "10H-Phenothiazine, 10-phenyl-", "Phenothiazine, 10-phenyl-", "10-Phenyl-10H-phenothiazine", "10-Phenylphenothiazine", "N-Phenylphenothiazine", "NSC 23181"], "SMILES": "N1(C=2C(SC=3C1=CC=CC3)=CC=CC2)C4=CC=CC=C4", "physical_data": {"Molecular Weight": "275.37", "Molecular Formula": "C18H13NS", "Melting Point": "94 \u00b0C"}}