{"cas_no": "7152-40-1", "cn_name": "5-\u6c28\u57fa-4-\u8148\u57fa-1-\u82ef\u57fa-3-\u4e59\u8148\u5421\u5511", "en_name": ["5-Amino-4-cyano-1-phenyl-1H-pyrazole-3-acetonitrile", "1H-Pyrazole-3-acetonitrile, 5-amino-4-cyano-1-phenyl-", "Pyrazole-3-acetonitrile, 5-amino-4-cyano-1-phenyl-", "5-Amino-4-cyano-1-phenyl-1H-pyrazole-3-acetonitrile", "5-Amino-4-cyano-3-cyanomethyl-1-phenylpyrazole", "NSC 22494"], "SMILES": "NC=1N(N=C(CC#N)C1C#N)C2=CC=CC=C2", "physical_data": {"Molecular Weight": "223.23", "Molecular Formula": "C12H9N5", "Melting Point": "166-167 \u00b0C"}}