{"cas_no": "7153-22-2", "cn_name": "4-\u6c30\u57fa\u82ef\u7532\u9178\u4e59\u916f", "en_name": ["Benzoic acid, 4-cyano-, ethyl ester", "Benzoic acid, 4-cyano-, ethyl ester", "Benzoic acid, p-cyano-, ethyl ester", "Ethyl p-cyanobenzoate", "Ethyl 4-cyanobenzoate", "NSC 62689", "4-(Ethoxycarbonyl)benzonitrile", "4-Cyanobenzoic acid ethyl ester"], "SMILES": "C(OCC)(=O)C1=CC=C(C#N)C=C1", "physical_data": {"Molecular Weight": "175.18", "Molecular Formula": "C10H9NO2", "Boiling Point": "139-140 \u00b0C @ Press: 11 Torr", "Melting Point": "54 \u00b0C"}}