{"cas_no": "7154-66-7", "cn_name": "2-\u6eb4\u82ef\u7532\u9170\u6c2f", "en_name": ["2-Bromobenzoyl chloride", "Benzoyl chloride, 2-bromo-", "Benzoyl chloride, o-bromo-", "2-Bromobenzoyl chloride", "o-Bromobenzoyl chloride", "2-Bromobenzoic acid chloride", "NSC 73706", "2-Bromobenzene-1-carbonyl chloride"], "SMILES": "C(Cl)(=O)C1=C(Br)C=CC=C1", "physical_data": {"Molecular Weight": "219.46", "Molecular Formula": "C7H4BrClO", "Boiling Point": "243 \u00b0C", "Melting Point": "11 \u00b0C"}}