{"cas_no": "7154-73-6", "cn_name": "1-(2-\u6c28\u4e59\u57fa)\u5421\u54af\u70f7", "en_name": ["1-Pyrrolidineethanamine", "1-Pyrrolidineethanamine", "Pyrrolidine, 1-(2-aminoethyl)-", "2-(1-Pyrrolidinyl)ethylamine", "1-(2-Aminoethyl)pyrrolidine", "2-Pyrrolidinoethyl amine", "N-(2-Aminoethyl)pyrrolidine", "Pyrrolidinoethanamine", "Pyrrolidinoethylamine", "N-(2\u2032-Aminoethyl)pyrrolidine", "N-Aminoethylpyrrolidine", "2-(1-Pyrrolidinyl)ethanamine", "NSC 73740", "2-(Pyrrolidino)ethanamine", "N-[2-(Pyrrolidin-1-yl)ethyl]amine", "2-(Pyrrolidin-1-yl)ethan-1-amine"], "SMILES": "C(CN)N1CCCC1", "physical_data": {"Molecular Weight": "114.19", "Molecular Formula": "C6H14N2", "Boiling Point": "166-167 \u00b0C", "Melting Point": "213-214 \u00b0C"}}