{"cas_no": "71556-70-2", "cn_name": "\u7f8e\u666e\u4ed6\u915a\u7684\u4e2d\u95f4\u4f532", "en_name": ["Hexahydro-1-methyl-3-(3-oxo-1-cyclohexen-1-yl)-2H-azepin-2-one", "2H-Azepin-2-one, hexahydro-1-methyl-3-(3-oxo-1-cyclohexen-1-yl)-", "Hexahydro-1-methyl-3-(3-oxo-1-cyclohexen-1-yl)-2H-azepin-2-one", "1-Methyl-3-(3-oxocyclohex-1-en-1-yl)azepan-2-one", "1-Methyl-3-(3-oxo-1-cyclohexen-1-yl)-2-azepanone", "1-Methyl-3-(3-oxocyclohexen-1-yl)azepan-2-one"], "SMILES": "O=C1C(C2=CC(=O)CCC2)CCCCN1C", "physical_data": {"Molecular Weight": "221.30", "Molecular Formula": "C13H19NO2", "Melting Point": "109-110 \u00b0C"}}