{"cas_no": "71556-74-6", "cn_name": "3-\u4e59\u57fa\u516d\u6c22-3-(3-\u7f9f\u57fa\u82ef\u57fa)-1-\u7532\u57fa-2H-\u6c2e\u6742\u5353-2-\u916e", "en_name": ["3-Ethylhexahydro-3-(3-hydroxyphenyl)-1-methyl-2H-azepin-2-one", "2H-Azepin-2-one, 3-ethylhexahydro-3-(3-hydroxyphenyl)-1-methyl-", "3-Ethylhexahydro-3-(3-hydroxyphenyl)-1-methyl-2H-azepin-2-one", "3-Ethyl-3-(3-hydroxyphenyl)-1-methylazepan-2-one"], "SMILES": "C(C)C1(C(=O)N(C)CCCC1)C2=CC(O)=CC=C2", "physical_data": {"Molecular Weight": "247.33", "Molecular Formula": "C15H21NO2", "Melting Point": "172-180 \u00b0C"}}