{"cas_no": "71550-63-5", "cn_name": "3-\u4e19\u70ef\u9170\u6c27\u57fa\u4e19\u57fa\u7532\u57fa\u4e8c\u6c2f\u7845\u70f7", "en_name": ["3-(Dichloromethylsilyl)propyl 2-propenoate", "2-Propenoic acid, 3-(dichloromethylsilyl)propyl ester", "3-(Dichloromethylsilyl)propyl 2-propenoate", "[3-(Acryloyloxy)propyl]methyldichlorosilane", "(3-Acryloyloxypropyl)dichloromethylsilane", "(3-Acryloxypropyl)methyldichlorosilane"], "SMILES": "C([Si](C)(Cl)Cl)CCOC(C=C)=O", "physical_data": {"Molecular Weight": "227.16", "Molecular Formula": "C7H12Cl2O2Si", "Boiling Point": "73 \u00b0C @ Press: 0.1 Torr", "Density": "1.150 g/cm\u00b3"}}