{"cas_no": "71555-25-4", "cn_name": "NSC319726", "en_name": ["1-Azetidinecarbothioic acid 2-[1-(2-pyridinyl)ethylidene]hydrazide", "1-Azetidinecarbothioic acid, 2-[1-(2-pyridinyl)ethylidene]hydrazide", "1-Azetidinecarbothioic acid, [1-(2-pyridinyl)ethylidene]hydrazide", "1-Azetidinecarbothioic acid 2-[1-(2-pyridinyl)ethylidene]hydrazide", "NSC 319726", "ZMC 1"], "SMILES": "C(=NNC(=S)N1CCC1)(C)C2=CC=CC=N2", "physical_data": {"Molecular Weight": "234.32", "Molecular Formula": "C11H14N4S", "Melting Point": "175-176 \u00b0C"}}