{"cas_no": "71561-11-0", "cn_name": "\u82c4\u8349\u5511", "en_name": ["Pyrazoxyfen", "Ethanone, 2-[[4-(2,4-dichlorobenzoyl)-1,3-dimethyl-1H-pyrazol-5-yl]oxy]-1-phenyl-", "2-[[4-(2,4-Dichlorobenzoyl)-1,3-dimethyl-1H-pyrazol-5-yl]oxy]-1-phenylethanone", "1,3-Dimethyl-4-(2,4-dichlorobenzoyl)-5-phenacyloxypyrazole", "Pyrazoxyfen", "SL 49", "Paicer", "SL 49 (herbicide)"], "SMILES": "C(=O)(C1=C(OCC(=O)C2=CC=CC=C2)N(C)N=C1C)C3=C(Cl)C=C(Cl)C=C3", "physical_data": {"Molecular Weight": "403.26", "Molecular Formula": "C20H16Cl2N2O3", "Melting Point": "111.5 \u00b0C"}}