{"cas_no": "7158-32-9", "cn_name": "4,4-\u6c2f\u7532\u9170\u57fa\u82ef\u919a", "en_name": ["4,4\u2032-Oxydibenzoyl chloride", "Benzoyl chloride, 4,4\u2032-oxybis-", "Benzoyl chloride, 4,4\u2032-oxydi-", "4,4\u2032-Oxybis[benzoyl chloride]", "Oxydi-p-phenylenedicarbonyl chloride", "4,4\u2032-Oxydibenzoyl chloride", "Diphenyl oxide 4,4\u2032-dicarbonyl chloride", "4-(Chlorocarbonyl)phenyl ether", "4,4\u2032-Oxybisbenzoyl chloride", "p-(Chlorocarbonyl)phenyl oxide", "4,4\u2032-Di(chloroformyl)diphenyl oxide", "4,4\u2032-Bis(chlorocarbonyl)diphenyl ether", "Diphenyl ether 4,4\u2032-dicarbonyl dichloride", "4,4\u2032-Diphenyl ether dicarboxylic acid dichloride", "4,4\u2032-Oxybisbenzoic acid dichloride", "4,4\u2032-Oxybisbenzoic dichloride", "4,4\u2032-Dicarboxydiphenyl ether dichloride", "Diphenyl ether-4,4\u2032-dicarboxylic chloride", "Benzoic acid dichloride"], "SMILES": "O(C1=CC=C(C(Cl)=O)C=C1)C2=CC=C(C(Cl)=O)C=C2", "physical_data": {"Molecular Weight": "295.12", "Molecular Formula": "C14H8Cl2O3", "Boiling Point": "186-187 \u00b0C @ Press: 14 Torr", "Melting Point": "22-23 \u00b0C"}}