{"cas_no": "7159-96-8", "cn_name": "N-(3-\u7f9f\u82ef\u57fa)\u6c28\u57fa\u7532\u9178\u4e59\u916f", "en_name": ["Ethyl 3-hydroxyphenylcarbamate", "Carbamic acid, N-(3-hydroxyphenyl)-, ethyl ester", "Carbanilic acid, m-hydroxy-, ethyl ester", "Carbamic acid, (3-hydroxyphenyl)-, ethyl ester", "Carbanilic acid, m-hydroxy-, ethyl esters", "Ethyl N-(3-hydroxyphenyl)carbamate", "Ethyl 3-hydroxycarbanilate", "3-Carbethoxyaminophenol", "Ethyl 3-hydroxyphenylcarbamate", "(3-Hydroxyphenyl)carbamic acid ethyl ester", "m-(Ethoxycarbonylamino)phenol", "Ethyl (m-hydroxyphenyl)carbamate", "3-(Ethoxycarbonylamino)phenol", "3-Ethyloxycarbonylaminophenol", "NSC 222551"], "SMILES": "N(C(OCC)=O)C1=CC(O)=CC=C1", "physical_data": {"Molecular Weight": "181.19", "Molecular Formula": "C9H11NO3", "Melting Point": "95 \u00b0C"}}