{"cas_no": "716-53-0", "cn_name": "9-\u6c2f\u84bd", "en_name": ["9-Chloroanthracene", "Anthracene, 9-chloro-", "9-Chloroanthracene", "10-Chloroanthracene"], "SMILES": "ClC=1C2=C(C=C3C1C=CC=C3)C=CC=C2", "physical_data": {"Molecular Weight": "212.67", "Molecular Formula": "C14H9Cl", "Melting Point": "104-106 \u00b0C"}}