{"cas_no": "716-79-0", "cn_name": "2-\u82ef\u57fa\u82ef\u5e76\u54aa\u5511", "en_name": ["2-Phenylbenzimidazole", "1H-Benzimidazole, 2-phenyl-", "Benzimidazole, 2-phenyl-", "2-Phenyl-1H-benzimidazole", "2-Phenylbenzimidazole", "Phenzidole", "Phenzidol", "Phenizidole", "Gainex", "G 570", "NSC 251956", "2-Phenyl-1H-benzo[d]imidazole", "2-Phenyl-1H-1,3-benzodiazole"], "SMILES": "C=1(NC=2C(N1)=CC=CC2)C3=CC=CC=C3", "physical_data": {"Molecular Weight": "194.23", "Molecular Formula": "C13H10N2", "Melting Point": "293 \u00b0C", "Density": "1.06 g/cm\u00b3 @ Temp: 25.00 \u00b0C"}}