{"cas_no": "716-76-7", "cn_name": "3-\u82ef\u57fa\u82ef\u7532\u9178", "en_name": ["[1,1\u2032-Biphenyl]-3-carboxylic acid", "[1,1\u2032-Biphenyl]-3-carboxylic acid", "3-Biphenylcarboxylic acid", "Benzoic acid, m-phenyl-", "3-Phenylbenzoic acid", "m-Phenylbenzoic acid", "NSC 178898", "NSC 408030", "1-Carboxy-3-phenylbenzene"], "SMILES": "C(O)(=O)C=1C=C(C=CC1)C2=CC=CC=C2", "physical_data": {"Molecular Weight": "198.22", "Molecular Formula": "C13H10O2", "Boiling Point": "107 \u00b0C @ Press: 2 Torr", "Melting Point": "161 \u00b0C"}}