{"cas_no": "716-61-0", "cn_name": "\u7cbe\u5236\u5de6\u65cb\u6c28\u57fa\u7269", "en_name": ["Chloramphenicol base", "1,3-Propanediol, 2-amino-1-(4-nitrophenyl)-, (1R,2R)-", "1,3-Propanediol, 2-amino-1-(p-nitrophenyl)-, D-threo-(-)-", "1,3-Propanediol, 2-amino-1-(4-nitrophenyl)-, [R-(R*,R*)]-", "(1R,2R)-2-Amino-1-(4-nitrophenyl)-1,3-propanediol", "(-)-threo-1-(p-Nitrophenyl)-2-amino-1,3-propanediol", "D-(-)-trans-1-p-Nitrophenyl-2-amino-1,3-propanediol", "D-threo-2-Amino-1-(p-nitrophenyl)-1,3-propanediol", "D-threo-(1R,2R)-1-p-Nitrophenyl-2-amino-1,3-propanediol", "D-(-)-threo-1-p-Nitrophenyl-2-amino-1,3-propanediol", "Chloramphenicol base", "Levoamine", "Chloramphenicol D base", "D-threo-(-)-2-Amino-1-(4-nitrophenyl)-1,3-propanediol", "D-threo-2-Amino-1-(4-nitrophenyl)-1,3-propanediol", "D-1-(p-Nitrophenyl)-2-aminopropane-1,3-diol", "(1R,2R)-(-)-2-Amino-1-(4-nitrophenyl)-1,3-propanediol", "(1R,2R)-threo-(-)-1-(4-Nitrophenyl)-2-amino-1,3-propanediol", "(1R,2R)-(-)-2-Amino-1-(4-nitrophenyl)-1,3-propanediol", "(1R,2R)-2-Amino-1-(4-nitrophenyl)-1,3-propanediol"], "SMILES": "C(C(CO)N)(O)C1=CC=C(N(=O)=O)C=C1", "physical_data": {"Molecular Weight": "212.20", "Molecular Formula": "C9H12N2O4", "Melting Point": "162-163 \u00b0C"}}