{"cas_no": "716-39-2", "cn_name": "2\uff0c3-\u8418\u4e8c\u9150", "en_name": ["2,3-Naphthalenedicarboxylic anhydride", "Naphtho[2,3-c]furan-1,3-dione", "2,3-Naphthalenedicarboxylic anhydride", "1,3-\u03b2\u03b2-Isonaphthofurandione", "2,3-Naphthalenedicarboxylic acid anhydride", "2,3-Naphthalic anhydride"], "SMILES": "O=C1C=2C(=CC=3C(C2)=CC=CC3)C(=O)O1", "physical_data": {"Molecular Weight": "198.17", "Molecular Formula": "C12H6O3", "Boiling Point": "275-280 \u00b0C @ Press: 100 Torr", "Melting Point": "246 \u00b0C"}}