{"cas_no": "71607-31-3", "cn_name": "L-\u5bf9\u7532\u57fa\u4e8c\u82ef\u7532\u9170\u9152\u77f3\u9178\u4e00\u6c34\u7269", "en_name": ["Butanedioic acid, 2,3-bis[(4-methylbenzoyl)oxy]-, hydrate (1:1), (2S,3S)-", "Butanedioic acid, 2,3-bis[(4-methylbenzoyl)oxy]-, hydrate (1:1), (2S,3S)-", "Butanedioic acid, 2,3-bis[(4-methylbenzoyl)oxy]-, monohydrate, [S-(R*,R*)]-", "Butanedioic acid, 2,3-bis[(4-methylbenzoyl)oxy]-, monohydrate, (2S,3S)-"], "SMILES": "C(C(OC(=O)C1=CC=C(C)C=C1)C(O)=O)(OC(=O)C2=CC=C(C)C=C2)C(O)=O.O", "physical_data": {"Molecular Weight": "", "Molecular Formula": "C20H18O8.H2O", "Melting Point": "170 \u00b0C"}}