{"cas_no": "7160-22-7", "cn_name": "3,4-\u4e8c\u6c2f-N-\u7279\u620a\u9170\u57fa\u82ef\u80fa", "en_name": ["N-(3,4-Dichlorophenyl)-2,2-dimethylpropanamide", "Propanamide, N-(3,4-dichlorophenyl)-2,2-dimethyl-", "Propionanilide, 3\u2032,4\u2032-dichloro-2,2-dimethyl-", "N-(3,4-Dichlorophenyl)-2,2-dimethylpropanamide", "N-(3,4-Dichlorophenyl)-2,2,2-trimethylacetamide"], "SMILES": "N(C(C(C)(C)C)=O)C1=CC(Cl)=C(Cl)C=C1", "physical_data": {"Molecular Weight": "246.13", "Molecular Formula": "C11H13Cl2NO", "Melting Point": "145-146 \u00b0C"}}