{"cas_no": "71626-11-4", "cn_name": "\u82ef\u971c\u7075", "en_name": ["Benalaxyl", "Alanine, N-(2,6-dimethylphenyl)-N-(2-phenylacetyl)-, methyl ester", "Alanine, N-(2,6-dimethylphenyl)-N-(phenylacetyl)-, methyl ester", "DL-Alanine, N-(2,6-dimethylphenyl)-N-(phenylacetyl)-, methyl ester", "M 9834", "Galben", "Benalaxyl", "Galben R 4-33 Blu", "(\u00b1)-Benalaxyl"], "SMILES": "N(C(C(OC)=O)C)(C(CC1=CC=CC=C1)=O)C2=C(C)C=CC=C2C", "physical_data": {"Molecular Weight": "325.40", "Molecular Formula": "C20H23NO3", "Melting Point": "79 \u00b0C"}}