{"cas_no": "71637-34-8", "cn_name": "3-\u567b\u5429\u7532\u9187", "en_name": ["3-Thiophenemethanol", "3-Thiophenemethanol", "3-(Hydroxymethyl)thiophene", "3-Thienylcarbinol", "3-Thienylmethanol", "Thiophene-3-ylmethanol", "Thiophen-3-ylmethanol", "1-(Thiophen-3-yl)methanol"], "SMILES": "C(O)C=1C=CSC1", "physical_data": {"Molecular Weight": "114.17", "Molecular Formula": "C5H6OS", "Boiling Point": "106-115 \u00b0C @ Press: 20 Torr"}}