{"cas_no": "71636-38-9", "cn_name": "N-[2-\u7f9f\u57fa-2-(4-\u7532\u6c27\u57fa\u82ef\u57fa)\u4e59\u57fa]-2-(2-\u6c2f-3,4-\u4e8c\u7532\u6c27\u57fa\u82ef\u57fa)\u4e59\u80fa", "en_name": ["\u03b1-[[[2-(2-Chloro-3,4-dimethoxyphenyl)ethyl]amino]methyl]-4-methoxybenzenemethanol", "Benzenemethanol, \u03b1-[[[2-(2-chloro-3,4-dimethoxyphenyl)ethyl]amino]methyl]-4-methoxy-", "\u03b1-[[[2-(2-Chloro-3,4-dimethoxyphenyl)ethyl]amino]methyl]-4-methoxybenzenemethanol", "2-(2-Chloro-3,4-dimethoxyphenethylamino)-1-(4-methoxyphenyl)ethanol", "2-[2-(2-Chloro-3,4-dimethoxyphenyl)ethylamino]-1-(4-methoxyphenyl)ethanol"], "SMILES": "O(C)C1=C(OC)C=CC(CCNCC(O)C2=CC=C(OC)C=C2)=C1Cl", "physical_data": {"Molecular Weight": "365.85", "Molecular Formula": "C19H24ClNO4", "Melting Point": "118.5-121.0 \u00b0C"}}