{"cas_no": "71643-66-8", "cn_name": "4-\u6c2f-2-\u7898\u82ef\u915a", "en_name": ["4-Chloro-2-iodophenol", "Phenol, 4-chloro-2-iodo-", "4-Chloro-2-iodophenol", "2-Iodo-4-chlorophenol"], "SMILES": "IC1=C(O)C=CC(Cl)=C1", "physical_data": {"Molecular Weight": "254.45", "Molecular Formula": "C6H4ClIO", "Melting Point": "78 \u00b0C"}}