{"cas_no": "71653-64-0", "cn_name": "2-(\u4e8c\u6c1f\u7532\u6c27\u57fa)\u82ef\u7532\u919b", "en_name": ["2-(Difluoromethoxy)benzaldehyde", "Benzaldehyde, 2-(difluoromethoxy)-", "2-(Difluoromethoxy)benzaldehyde", "o-(Difluoromethoxy)benzaldehyde"], "SMILES": "O(C(F)F)C1=C(C=O)C=CC=C1", "physical_data": {"Molecular Weight": "172.13", "Molecular Formula": "C8H6F2O2", "Boiling Point": "94-96 \u00b0C @ Press: 10 Torr"}}