{"cas_no": "71653-06-0", "cn_name": "3-\u7f9f\u57fa\u5929\u51ac\u6c28\u9178", "en_name": ["3-Hydroxyaspartic acid", "Aspartic acid, 3-hydroxy-", "DL-Aspartic acid, 3-hydroxy-", "3-Hydroxyaspartic acid", "\u03b2-Hydroxyaspartic acid", "3-Aminomalic acid", "NSC 84663"], "SMILES": "C(C(C(O)=O)O)(C(O)=O)N", "physical_data": {"Molecular Weight": "149.10", "Molecular Formula": "C4H7NO5", "Melting Point": "287-288 \u00b0C (decomp)"}}