{"cas_no": "71666-95-0", "cn_name": "L-\u7ec4\u6c28\u9178\u9170\u80fa\u76d0\u9178\u76d0", "en_name": ["1H-Imidazole-5-propanamide, \u03b1-amino-, hydrochloride (1:2), (\u03b1S)-", "1H-Imidazole-5-propanamide, \u03b1-amino-, hydrochloride (1:2), (\u03b1S)-", "1H-Imidazole-4-propanamide, \u03b1-amino-, dihydrochloride, (S)-", "1H-Imidazole-4-propanamide, \u03b1-amino-, dihydrochloride, (\u03b1S)-", "(2S)-2-Amino-3-(1H-imidazol-4-yl)propanamide dihydrochloride", "(2S)-2-Amino-3-(1H-imidazol-4-yl)propanamide dihydrochloride"], "SMILES": "C(C(C(N)=O)N)C1=CN=CN1.Cl", "physical_data": {"Molecular Weight": "", "Molecular Formula": "C6H10N4O.2ClH", "Melting Point": "257-258 \u00b0C"}}