{"cas_no": "71678-03-0", "cn_name": "3-[(\u5341\u6c22-1\u0392,2\u0392,4A\u0392-\u4e09\u7532\u57fa-5-\u4e9a\u7532\u57fa-1-\u8418\u57fa)\u7532\u57fa]-2-\u7f9f\u57fa-5-\u7532\u6c27\u57fa\u82ef\u918c", "en_name": ["Ilimaquinone", "2,5-Cyclohexadiene-1,4-dione, 3-[[(1R,2S,4aS,8aS)-decahydro-1,2,4a-trimethyl-5-methylene-1-naphthalenyl]methyl]-2-hydroxy-5-methoxy-", "2,5-Cyclohexadiene-1,4-dione, 3-[(decahydro-1,2,4a-trimethyl-5-methylene-1-naphthalenyl)methyl]-2-hydroxy-5-methoxy-, [1R-(1\u03b1,2\u03b2,4a\u03b2,8a\u03b1)]-", "3-[[(1R,2S,4aS,8aS)-Decahydro-1,2,4a-trimethyl-5-methylene-1-naphthalenyl]methyl]-2-hydroxy-5-methoxy-2,5-cyclohexadiene-1,4-dione", "Ilimaquinone", "Illimaquinone", "(-)-Ilimaquinone"], "SMILES": "C(C1(C)C2C(C)(CCC1C)C(=C)CCC2)C=3C(=O)C(OC)=CC(=O)C3O", "physical_data": {"Molecular Weight": "358.47", "Molecular Formula": "C22H30O4", "Melting Point": "108-110 \u00b0C"}}