{"cas_no": "71675-85-9", "cn_name": "\u963f\u7c73\u8212\u5fc5\u5229", "en_name": ["Amisulpride", "Benzamide, 4-amino-N-[(1-ethyl-2-pyrrolidinyl)methyl]-5-(ethylsulfonyl)-2-methoxy-", "4-Amino-N-[(1-ethyl-2-pyrrolidinyl)methyl]-5-(ethylsulfonyl)-2-methoxybenzamide", "Amisulpride", "(\u00b1)-Amisulpride", "DAN 2163", "Aminosultopride", "Solian", "Socian", "Deniban", "4-Amino-N-[(1-ethylpyrrolidin-2-yl)methyl]-5-(ethylsulfonyl)-2-methoxybenzamide", "Amipride", "Paxiprid", "Joykem", "Barhemsys"], "SMILES": "C(NCC1N(CC)CCC1)(=O)C2=C(OC)C=C(N)C(S(CC)(=O)=O)=C2", "physical_data": {"Molecular Weight": "369.48", "Molecular Formula": "C17H27N3O4S", "Melting Point": "126-127 \u00b0C"}}