{"cas_no": "71672-75-8", "cn_name": "\u90bb\u4e59\u6c27\u57fa\u82ef\u7532\u9187", "en_name": ["2-Ethoxybenzenemethanol", "Benzenemethanol, 2-ethoxy-", "Benzyl alcohol, o-ethoxy-", "2-Ethoxybenzenemethanol", "o-Ethoxybenzyl alcohol", "2-Ethoxybenzyl alcohol", "(2-Ethoxyphenyl)methanol"], "SMILES": "O(CC)C1=C(CO)C=CC=C1", "physical_data": {"Molecular Weight": "152.19", "Molecular Formula": "C9H12O2", "Melting Point": "31-32 \u00b0C"}}