{"cas_no": "7169-95-1", "cn_name": "6-\u6eb4-2-\u7532\u57fa-[1,2,4]\u4e09\u5511\u5e76[1,5-A]\u5421\u5576", "en_name": ["6-Bromo-2-methyl[1,2,4]triazolo[1,5-a]pyridine", "[1,2,4]Triazolo[1,5-a]pyridine, 6-bromo-2-methyl-", "s-Triazolo[1,5-a]pyridine, 6-bromo-2-methyl-", "6-Bromo-2-methyl[1,2,4]triazolo[1,5-a]pyridine"], "SMILES": "CC=1N=C2N(N1)C=C(Br)C=C2", "physical_data": {"Molecular Weight": "212.05", "Molecular Formula": "C7H6BrN3", "Melting Point": "153-155 \u00b0C"}}