{"cas_no": "71690-05-6", "cn_name": "2,3-\u4e8c\u6c2f-5-\u7532\u9170\u57fa\u5421\u5576", "en_name": ["5,6-Dichloronicotinaldehyde", "3-Pyridinecarboxaldehyde, 5,6-dichloro-", "5,6-Dichloro-3-pyridinecarboxaldehyde", "5,6-Dichloronicotinaldehyde", "5,6-Dichloropyridyl-3-carboxaldehyde", "2,3-Dichloropyridine-5-carboxaldehyde", "2,3-Dichloro-5-formylpyridine"], "SMILES": "C(=O)C=1C=C(Cl)C(Cl)=NC1", "physical_data": {"Molecular Weight": "176.00", "Molecular Formula": "C6H3Cl2NO", "Melting Point": "69-70 \u00b0C"}}