{"cas_no": "717-01-1", "cn_name": "3-\u7f9f\u57fa-4-\u785d\u57fa\u82ef\u7532\u9178\u4e59\u916f", "en_name": ["Benzoic acid, 3-hydroxy-4-nitro-, ethyl ester", "Benzoic acid, 3-hydroxy-4-nitro-, ethyl ester", "Ethyl 3-hydroxy-4-nitrobenzoate", "3-Hydroxy-4-nitrobenzoic acid ethyl ester"], "SMILES": "C(OCC)(=O)C1=CC(O)=C(N(=O)=O)C=C1", "physical_data": {"Molecular Weight": "211.17", "Molecular Formula": "C9H9NO5", "Melting Point": "84 \u00b0C"}}