{"cas_no": "717-74-8", "cn_name": "1,3,5-\u4e09\u5f02\u4e19\u57fa\u82ef", "en_name": ["1,3,5-Triisopropylbenzene", "Benzene, 1,3,5-tris(1-methylethyl)-", "Benzene, 1,3,5-triisopropyl-", "1,3,5-Tris(1-methylethyl)benzene", "2,4,6-Triisopropylbenzene", "1,3,5-Triisopropylbenzene", "1,3,5-Tris(isopropyl)benzene", "NSC 403075", "1,3,5-Tri(propan-2-yl)benzene", "1,3,5-Tris(propan-2-yl)benzene"], "SMILES": "C(C)(C)C1=CC(C(C)C)=CC(C(C)C)=C1", "physical_data": {"Molecular Weight": "204.35", "Molecular Formula": "C15H24", "Boiling Point": "238 \u00b0C", "Melting Point": "-7.4 \u00b0C", "Density": "0.8547 g/cm\u00b3 @ Temp: 20 \u00b0C"}}