{"cas_no": "7170-40-3", "cn_name": "5-\u82ef\u6c27\u57fa\u6b63\u620a\u9178", "en_name": ["5-Phenoxypentanoic acid", "Pentanoic acid, 5-phenoxy-", "Valeric acid, 5-phenoxy-", "5-Phenoxypentanoic acid", "5-Phenoxyvaleric acid", "NSC 192711"], "SMILES": "O(CCCCC(O)=O)C1=CC=CC=C1", "physical_data": {"Molecular Weight": "194.23", "Molecular Formula": "C11H14O3", "Boiling Point": "140 \u00b0C @ Press: 0.1 Torr", "Melting Point": "55-56 \u00b0C"}}