{"cas_no": "7170-38-9", "cn_name": "3-\u82ef\u6c27\u57fa\u4e19\u9178", "en_name": ["3-Phenoxypropionic acid", "Propanoic acid, 3-phenoxy-", "Propionic acid, 3-phenoxy-", "3-Phenoxypropanoic acid", "\u03b2-Phenoxypropionic acid", "3-Phenoxypropionic acid"], "SMILES": "O(CCC(O)=O)C1=CC=CC=C1", "physical_data": {"Molecular Weight": "166.17", "Molecular Formula": "C9H10O3", "Boiling Point": "240 \u00b0C", "Melting Point": "97.5 \u00b0C"}}