{"cas_no": "7170-01-6", "cn_name": "3-\u7532\u57fa-1H-1,2,4-\u567b\u5511", "en_name": ["3-Methyl-1,2,4-triazole", "1H-1,2,4-Triazole, 5-methyl-", "s-Triazole, 3-methyl-", "1H-1,2,4-Triazole, 3-methyl-", "5-Methyl-1H-1,2,4-triazole", "3-Methyl-4H-1,2,4-triazole", "3-Methyl-1,2,4-triazole", "3-Methyltriazole", "3-Methyl-1H-1,2,4-triazole", "NSC 202575", "3-Methyl-1,2,4-1H-triazole", "5-Methyl-1H-[1,2,4]triazole"], "SMILES": "CC=1NC=NN1", "physical_data": {"Molecular Weight": "83.09", "Molecular Formula": "C3H5N3", "Boiling Point": "138 \u00b0C @ Press: 8 Torr", "Melting Point": "94 \u00b0C"}}