{"cas_no": "7170-77-6", "cn_name": "2-\u6c28\u57fa-6-\u786b\u6c30\u57fa\u82ef\u5e76\u567b\u5511", "en_name": ["2-Amino-6-benzothiazolyl thiocyanate", "Thiocyanic acid, 2-amino-6-benzothiazolyl ester", "2-Amino-6-benzothiazolyl thiocyanate", "2-Amino-6-thiocyanatobenzothiazole", "NSC 327380", "2-Amino-6-thiocyanato-1,3-benzothiazole", "[(2-Amino-1,3-benzothiazol-6-yl)sulfanyl]formonitrile"], "SMILES": "NC1=NC=2C(=CC(SC#N)=CC2)S1", "physical_data": {"Molecular Weight": "207.28", "Molecular Formula": "C8H5N3S2", "Melting Point": "198 \u00b0C"}}