{"cas_no": "7170-76-5", "cn_name": "2-\u6c28\u57fa-4,5-\u4e8c\u7532\u57fa\u567b\u5511\u6eb4\u9178\u76d0", "en_name": ["2-Thiazolamine, 4,5-dimethyl-, hydrobromide (1:1)", "2-Thiazolamine, 4,5-dimethyl-, hydrobromide (1:1)", "Thiazole, 2-amino-4,5-dimethyl-, hydrobromide", "2-Thiazolamine, 4,5-dimethyl-, monohydrobromide", "2-Amino-4,5-dimethylthiazole hydrobromide", "4,5-Dimethylthiazol-2-amine hydrobromide", "4,5-Dimethyl-1,3-thiazol-2-amine hydrobromide"], "SMILES": "CC1=C(C)SC(N)=N1.Br", "physical_data": {"Molecular Weight": "", "Molecular Formula": "C5H8N2S.BrH", "Melting Point": "282.2-290.1 \u00b0C"}}