{"cas_no": "7170-50-5", "cn_name": "3-(3-\u6c2f\u82ef\u6c27\u57fa)\u4e19\u9178", "en_name": ["3-(3-Chlorophenoxy)propanoic acid", "Propanoic acid, 3-(3-chlorophenoxy)-", "Propionic acid, 3-(m-chlorophenoxy)-", "3-(3-Chlorophenoxy)propanoic acid"], "SMILES": "O(CCC(O)=O)C1=CC(Cl)=CC=C1", "physical_data": {"Molecular Weight": "200.62", "Molecular Formula": "C9H9ClO3", "Melting Point": "82-83 \u00b0C"}}