{"cas_no": "7173-51-5", "cn_name": "\u53cc\u5341\u70f7\u57fa\u4e8c\u7532\u57fa\u6c2f\u5316\u94f5", "en_name": ["Didecyldimethylammonium chloride", "1-Decanaminium, N-decyl-N,N-dimethyl-, chloride (1:1)", "Ammonium, didecyldimethyl-, chloride", "Didecyldimethylammonium chloride", "1-Decanaminium, N-decyl-N,N-dimethyl-, chloride", "Dimethyldidecylammonium chloride", "Bardac 22", "Quaternium 12", "BTC 1010", "Querton 210CL", "Dodigen 1881", "Arquad 10", "Tret-O-Lite XC 507", "Bardac 2250", "Bardac 2280", "Nissan Cation 2DB", "Calgon H 130", "Astop", "Bio-Dac", "Arquad 210-50", "Bardac 2270E", "H 130", "H 130 (molluscicide)", "DDAC", "DDC 80", "Timbercote 2000", "Slaoff 91", "Britewood Q", "BTC 99", "Didecyldimethylammounium chloride", "Maquat 4480E", "Quartamin D 10E", "Quartamin D 10P", "D 10P", "Cation DDC", "BTC 2250", "Britewood XL", "Catiogen DDM", "Arquad 210-50E", "AQ 210", "Microbiocide B 74", "Arquad 210", "Arquad 210-80E", "Kamin RM 2D50A", "Macrotrol MT 200", "Sporekill", "Arquad 210-80", "Stenquat 1010", "Asepas 3", "Acticide DDQ", "Arquad 210-85E", "Nissan Cation 2DB500E", "K-Sanit BP 80", "Bardac 2240", "KleenGrow", "Cation DDC 50", "Acticide DDQ 40", "M 21080", "Catiogen DDM-PG", "2DB 500E", "Acticide", "Microbiocide N 750", "N,N-Didecyl-N,N-dimethylammonium chloride", "Septapav KhS 70", "New Des 50", "Cation DDC 80", "Nissan Cation 2DB800E", "Fentacare 1021-80", "Bardac 2270ETM", "Bardac 50", "Lipoquad 210-80E", "Bardac 2250R", "Bardac 2280R", "BTC 1010E", "Bardac 2280G", "Maquat 4450T", "Bardac 2250J", "Arquad 210-70HFP", "Uniquat 2240", "Di-n-decyl-dimethylammonium chloride", "DDAC 80", "Acticide DDQ 80", "Fentacare D 1021", "Arquad 2.1-80"], "SMILES": "C([N+](CCCCCCCCCC)(C)C)CCCCCCCCC.[Cl-]", "physical_data": {"Molecular Weight": "", "Molecular Formula": "C22H48N.Cl", "Melting Point": "88 \u00b0C"}}