{"cas_no": "71731-58-3", "cn_name": "\u66ff\u55b9\u6eb4\u94f5", "en_name": ["Tiquizium bromide", "2H-Quinolizinium, 3-(di-2-thienylmethylene)octahydro-5-methyl-, bromide (1:1), (5R,9aR)-rel-", "2H-Quinolizinium, 3-(di-2-thienylmethylene)octahydro-5-methyl-, bromide, trans-", "2H-Quinolizinium, 3-(di-2-thienylmethylene)octahydro-5-methyl-, bromide, (5R,9aR)-rel-", "HSR 902", "Tiquizium bromide", "Thiaton", "HS 902"], "SMILES": "C(=C1C[N+]2(C)C(CC1)CCCC2)(C3=CC=CS3)C4=CC=CS4.[Br-]", "physical_data": {"Molecular Weight": "", "Molecular Formula": "C19H24NS2.Br", "Melting Point": "278-281 \u00b0C (decomp)"}}