{"cas_no": "71748-58-8", "cn_name": "4-\u916e13-\u987a\u5f0f\u7ef4\u7532\u9178", "en_name": ["13-cis-4-Oxoretinoic acid", "Retinoic acid, 4-oxo-, 13-cis-", "13-cis-4-Oxoretinoic acid", "4-Oxoisotretinoin", "Ro 22-6595"], "SMILES": "C(=CC(=CC=CC(=CC(O)=O)C)C)C=1C(C)(C)CCC(=O)C1C", "physical_data": {"Molecular Weight": "314.42", "Molecular Formula": "C20H26O3", "Melting Point": "134-136 \u00b0C"}}