{"cas_no": "71759-88-1", "cn_name": "5-\u7898-1-\u7532\u57fa-1H-\u54aa\u5511", "en_name": ["5-Iodo-1-methyl-1H-imidazole", "1H-Imidazole, 5-iodo-1-methyl-", "5-Iodo-1-methyl-1H-imidazole", "5-Iodo-1-methylimidazole", "1-Methyl-5-iodoimidazole"], "SMILES": "IC=1N(C)C=NC1", "physical_data": {"Molecular Weight": "208.00", "Molecular Formula": "C4H5IN2", "Melting Point": "106-107 \u00b0C"}}