{"cas_no": "71751-41-2", "cn_name": "\u963f\u7ef4\u83cc\u7d20", "en_name": ["Abamectin", "Avermectin B1", "Spiro[11,15-methano-2H,13H,17H-furo[4,3,2-pq][2,6]benzodioxacyclooctadecin-13,2\u2032-[2H]pyran], avermectin B1 deriv.", "MK 936", "Abamectin", "Avermectin B1a-Avermectin B1b mixt.", "L 676", "Vertimec", "Avid", "Agri-Mek", "PT 310", "Avert", "Zephyr", "Abamektin", "Vermitec", "Aversectin S", "Phytoverm", "Rustomectin", "Fitoverm", "Agrimec", "Abamitel", "Genesis Oral Drench", "Lirosect", "Avicta", "STAN", "A 14906", "A 8612", "CHA 2061", "CHA 2062", "Lyrosekt", "Mectin", "Abba", "Avicta 400FS", "Zoro", "AgMectin", "Temprano", "Epi-Mek", "Abastate", "Abastate EW", "Genesis Pour-on for Cattle and Deer", "Kraft", "Abarex", "Vertigo 018EC", "Vertigo (pesticide)", "Vertimec 018SC", "Avid 0.15EC", "Agador", "Dalamectin", "Dalamektin", "Fitoverm M", "KRAFT 36 EC", "Abathor", "Agri-Mek SC"], "SMILES": "", "physical_data": {"Molecular Weight": "", "Molecular Formula": "Unspecified", "Melting Point": "150-155 \u00b0C", "Density": "1.16 g/cm\u00b3 @ Temp: 21 \u00b0C"}}