{"cas_no": "7175-49-7", "cn_name": "N-\u4e59\u57fa\u4e8c\u73af\u5df1\u80fa", "en_name": ["N-Cyclohexyl-N-ethylcyclohexanamine", "Cyclohexanamine, N-cyclohexyl-N-ethyl-", "Dicyclohexylamine, N-ethyl-", "N-Cyclohexyl-N-ethylcyclohexanamine", "N-Ethyldicyclohexylamine", "Ethyldicyclohexylamine", "Dicyclohexylethylamine", "NSC 221147"], "SMILES": "N(CC)(C1CCCCC1)C2CCCCC2", "physical_data": {"Molecular Weight": "209.37", "Molecular Formula": "C14H27N", "Boiling Point": "268 \u00b0C", "Density": "0.9087 g/cm\u00b3 @ Temp: 20 \u00b0C"}}