{"cas_no": "71771-90-9", "cn_name": "\u7532\u6c27\u4e01\u5df4\u80fa", "en_name": ["Denopamine", "Benzenemethanol, \u03b1-[[[2-(3,4-dimethoxyphenyl)ethyl]amino]methyl]-4-hydroxy-, (\u03b1R)-", "Benzenemethanol, \u03b1-[[[2-(3,4-dimethoxyphenyl)ethyl]amino]methyl]-4-hydroxy-, (R)-", "(\u03b1R)-\u03b1-[[[2-(3,4-Dimethoxyphenyl)ethyl]amino]methyl]-4-hydroxybenzenemethanol", "TA 064", "Denopamine", "(-)-Denopamine", "Carguto", "Kalgut", "(R)-(-)-Denopamine"], "SMILES": "C(CNCC(O)C1=CC=C(O)C=C1)C2=CC(OC)=C(OC)C=C2", "physical_data": {"Molecular Weight": "317.38", "Molecular Formula": "C18H23NO4", "Melting Point": "160-161 \u00b0C"}}