{"cas_no": "7177-48-2", "cn_name": "\u6c28\u82c4\u9752\u9709\u7d20", "en_name": ["Ampicillin trihydrate", "4-Thia-1-azabicyclo[3.2.0]heptane-2-carboxylic acid, 6-[[(2R)-2-amino-2-phenylacetyl]amino]-3,3-dimethyl-7-oxo-, hydrate (1:3), (2S,5R,6R)-", "4-Thia-1-azabicyclo[3.2.0]heptane-2-carboxylic acid, 6-(2-amino-2-phenylacetamido)-3,3-dimethyl-7-oxo-, trihydrate, D-(-)-", "4-Thia-1-azabicyclo[3.2.0]heptane-2-carboxylic acid, 6-[(aminophenylacetyl)amino]-3,3-dimethyl-7-oxo-, trihydrate, [2S-[2\u03b1,5\u03b1,6\u03b2(S*)]]-", "4-Thia-1-azabicyclo[3.2.0]heptane-2-carboxylic acid, 6-[[(2R)-aminophenylacetyl]amino]-3,3-dimethyl-7-oxo-, trihydrate, (2S,5R,6R)-", "Ampicillin trihydrate", "Polycillin", "[D-(-)-\u03b1-Aminobenzyl]penicillin trihydrate", "\u03b1-Aminobenzylpenicillin trihydrate", "Aminobenzylpenicillin trihydrate", "Principen"], "SMILES": "C(O)(=O)C1N2C(C(NC(C(N)C3=CC=CC=C3)=O)C2=O)SC1(C)C.O", "physical_data": {"Molecular Weight": "", "Molecular Formula": "C16H19N3O4S.3H2O", "Melting Point": "198 \u00b0C"}}