{"cas_no": "71786-67-9", "cn_name": "1-(3-\u7f9f\u57fa\u82ef\u57fa)-2-[\u7532\u57fa(\u82ef\u7532\u57fa)\u6c28\u57fa]-\u4e59\u916e\u76d0\u9178\u76d0", "en_name": ["Ethanone, 1-(3-hydroxyphenyl)-2-[methyl(phenylmethyl)amino]-, hydrochloride (1:1)", "Ethanone, 1-(3-hydroxyphenyl)-2-[methyl(phenylmethyl)amino]-, hydrochloride (1:1)", "Ethanone, 1-(3-hydroxyphenyl)-2-[methyl(phenylmethyl)amino]-, hydrochloride"], "SMILES": "C(CN(CC1=CC=CC=C1)C)(=O)C2=CC(O)=CC=C2.Cl", "physical_data": {"Molecular Weight": "", "Molecular Formula": "C16H17NO2.ClH", "Melting Point": "202-203 \u00b0C"}}