{"cas_no": "7179-96-6", "cn_name": "\u7532\u57fa-(\u56db\u6c22\u5421\u5583-2-\u7532\u57fa)\u80fa", "en_name": ["Tetrahydro-N-methyl-2H-pyran-2-methanamine", "2H-Pyran-2-methanamine, tetrahydro-N-methyl-", "2H-Pyran-2-methylamine, tetrahydro-N-methyl-", "Pyran-2-methylamine, tetrahydro-N-methyl-", "Tetrahydro-N-methyl-2H-pyran-2-methanamine", "N-[(Tetrahydro-2H-pyran-2-yl)methyl]-N-methylamine", "N-Methyl-1-(tetrahydro-2H-pyran-2-yl)methanamine", "Methyl(oxan-2-ylmethyl)amine"], "SMILES": "C(NC)C1CCCCO1", "physical_data": {"Molecular Weight": "129.20", "Molecular Formula": "C7H15NO", "Boiling Point": "60-64 \u00b0C @ Press: 12 Torr", "Melting Point": "156 \u00b0C"}}