{"cas_no": "7179-49-9", "cn_name": "\u76d0\u9178\u6797\u53ef\u9709\u7d20(\u4e00\u6c34\u7269)", "en_name": ["Lincomycin hydrochloride monohydrate", "D-erythro-\u03b1-D-galacto-Octopyranoside, methyl 6,8-dideoxy-6-[[[(2S,4R)-1-methyl-4-propyl-2-pyrrolidinyl]carbonyl]amino]-1-thio-, hydrochloride, hydrate (1:1:1)", "D-erythro-D-galacto-Octopyranoside, methyl 6,8-dideoxy-6-(1-methyl-4-propyl-L-2-pyrrolidinecarboxamido)-1-thio-, monohydrochloride, monohydrate, trans-\u03b1-", "D-erythro-\u03b1-D-galacto-Octopyranoside, methyl 6,8-dideoxy-6-[[(1-methyl-4-propyl-2-pyrrolidinyl)carbonyl]amino]-1-thio-, monohydrochloride, monohydrate, (2S-trans)-", "D-erythro-\u03b1-D-galacto-Octopyranoside, methyl 6,8-dideoxy-6-[[[(2S,4R)-1-methyl-4-propyl-2-pyrrolidinyl]carbonyl]amino]-1-thio-, monohydrochloride, monohydrate", "Lincomycin hydrochloride monohydrate", "Lincomycin hydrochloride hydrate"], "SMILES": "C(NC(=O)C1CC(CCC)CN1C)(C(C)O)C2OC(SC)C(O)C(O)C2O.Cl.O", "physical_data": {"Molecular Weight": "", "Molecular Formula": "C18H34N2O6S.ClH.H2O", "Melting Point": "145-147 \u00b0C"}}