{"cas_no": "718-64-9", "cn_name": "1,1,1,3,3,3-\u516d\u6c1f\u4ee3-2-\u82ef\u57fa-2-\u4e19\u9187", "en_name": ["\u03b1,\u03b1-Bis(trifluoromethyl)benzenemethanol", "Benzenemethanol, \u03b1,\u03b1-bis(trifluoromethyl)-", "Benzyl alcohol, \u03b1,\u03b1-bis(trifluoromethyl)-", "\u03b1,\u03b1-Bis(trifluoromethyl)benzenemethanol", "Hexafluoro-2-phenyl-2-propanol", "1,1,1,3,3,3-Hexafluoro-2-phenyl-2-propanol", "Bis(trifluoromethyl)phenylcarbinol", "(2-Hydroxyhexafluoro-2-propyl)benzene", "Bis(trifluoromethyl)benzyl alcohol", "1,3-Bis(1,1,1,3,3,3-hexafluoro-2-hydroxy-2-propyl)benzene", "Hexafluoro-2-phenylisopropanol", "1-Phenyl-2,2,2-trifluoro-1-trifluoromethylethanol", "\u03b1,\u03b1-Bis(trifluoromethyl)benzyl alcohol", "2-Phenyl-1,1,1,3,3,3-hexafluoropropan-2-ol", "(Hexafluoro-2-hydroxyisopropyl)benzene"], "SMILES": "C(C(F)(F)F)(C(F)(F)F)(O)C1=CC=CC=C1", "physical_data": {"Molecular Weight": "244.13", "Molecular Formula": "C9H6F6O", "Boiling Point": "160 \u00b0C", "Density": "1.4510 g/cm\u00b3 @ Temp: 20 \u00b0C"}}