{"cas_no": "718-71-8", "cn_name": "2-\u6c30\u57fa-2-\u82ef\u57fa\u4e01\u9178\u4e59\u916f", "en_name": ["Ethyl \u03b1-cyano-\u03b1-ethylbenzeneacetate", "Benzeneacetic acid, \u03b1-cyano-\u03b1-ethyl-, ethyl ester", "Butyric acid, 2-cyano-2-phenyl-, ethyl ester", "Ethyl \u03b1-cyano-\u03b1-ethylbenzeneacetate", "Ethyl cyanoethylphenylacetate", "NSC 69121"], "SMILES": "C(C(OCC)=O)(CC)(C#N)C1=CC=CC=C1", "physical_data": {"Molecular Weight": "217.26", "Molecular Formula": "C13H15NO2", "Boiling Point": "100-140 \u00b0C @ Press: 0.2 Torr", "Density": "1.036-1.040 g/cm\u00b3 @ Temp: 20 \u00b0C"}}