{"cas_no": "71808-65-6", "cn_name": "\u5341\u516b\u70f7\u57fa\u4e8c\u7532\u57fa\u7532\u6c27\u57fa\u7845\u70f7", "en_name": ["Octadecyldimethylmethoxysilane", "Silane, methoxydimethyloctadecyl-", "Methoxydimethyloctadecylsilane", "Dimethyl(octadecyl)methoxysilane", "Octadecyldimethylmethoxysilane", "Dimethyl(methoxy)octadecylsilane", "n-Octadecyldimethylmethoxysilane"], "SMILES": "C(CCCCCCCCCCCCCCC)CC[Si](OC)(C)C", "physical_data": {"Molecular Weight": "342.67", "Molecular Formula": "C21H46OSi", "Boiling Point": "184-186 \u00b0C @ Press: 0.2 Torr", "Density": "0.830 g/cm\u00b3 @ Temp: 25 \u00b0C"}}