{"cas_no": "71830-08-5", "cn_name": "(1R,3S)-3-\u6c28\u57fa\u73af\u620a\u7fa7\u9178", "en_name": ["(1R,3S)-3-Aminocyclopentanecarboxylic acid", "Cyclopentanecarboxylic acid, 3-amino-, (1R,3S)-", "Cyclopentanecarboxylic acid, 3-amino-, (1R-cis)-", "(1R,3S)-3-Aminocyclopentanecarboxylic acid", "(-)-cis-3-Aminocyclopentanecarboxylic acid", "(1R,3S)-3-Aminocyclopentanecarboxylic acid"], "SMILES": "C(O)(=O)C1CC(N)CC1", "physical_data": {"Molecular Weight": "129.16", "Molecular Formula": "C6H11NO2", "Melting Point": "&gt;260 \u00b0C (decomp)"}}