{"cas_no": "71839-12-8", "cn_name": "4-\u4e01\u6c28\u57fa\u82ef\u7532\u9178\u7532\u916f", "en_name": ["Benzoic acid, 4-(butylamino)-, methyl ester", "Benzoic acid, 4-(butylamino)-, methyl ester", "N-Butyl-4-(methoxycarbonyl)aniline", "Methyl 4-(butylamino)benzoate"], "SMILES": "C(OC)(=O)C1=CC=C(NCCCC)C=C1", "physical_data": {"Molecular Weight": "207.27", "Molecular Formula": "C12H17NO2", "Melting Point": "104 \u00b0C"}}