{"cas_no": "7184-60-3", "cn_name": "\u758f\u87ba\u65cb\u4f53\u7d20", "en_name": ["Borrelidin", "Cyclopentanecarboxylic acid, 2-[(2S,4E,6Z,8R,9S,11R,13S,15S,16S)-7-cyano-8,16-dihydroxy-9,11,13,15-tetramethyl-18-oxooxacyclooctadeca-4,6-dien-2-yl]-, (1R,2R)-", "Cyclopentanecarboxylic acid, 2-(7-cyano-8,16-dihydroxy-9,11,13,15-tetramethyl-18-oxooxacyclooctadeca-4,6-dien-2-yl)-, [2S-[2R*(1S*,2S*),4E,6Z,8S*,9R*,11S*,13R*,15R*,16R*]]-", "Borrelidin", "Oxacyclooctadecane, cyclopentanecarboxylic acid deriv.", "(1R,2R)-2-[(2S,4E,6Z,8R,9S,11R,13S,15S,16S)-7-Cyano-8,16-dihydroxy-9,11,13,15-tetramethyl-18-oxooxacyclooctadeca-4,6-dien-2-yl]cyclopentanecarboxylic acid", "Borrelidine", "Treponemycin", "NSC 216128", "(-)-Borrelidin", "B 3061", "Borrelidin A"], "SMILES": "C(O)(=O)C1C(CCC1)C2OC(=O)CC(O)C(C)CC(C)CC(C)CC(C)C(O)C(C#N)=CC=CC2", "physical_data": {"Molecular Weight": "489.64", "Molecular Formula": "C28H43NO6", "Melting Point": "143-145 \u00b0C"}}