{"cas_no": "7188-38-7", "cn_name": "\u5f02\u6c30\u9178\u53d4\u4e01\u916f", "en_name": ["tert-Butyl isocyanide", "Propane, 2-isocyano-2-methyl-", "tert-Butyl isocyanide", "2-Isocyano-2-methylpropane", "tert-Butylisonitrile", "1,1-Dimethylethyl isocyanide", "t-Butylisocyanide", "t-Butylisonitrile", "1-tert-Butylisonitrile"], "SMILES": "C([N+]#[C-])(C)(C)C", "physical_data": {"Molecular Weight": "", "Molecular Formula": "C5H9N", "Melting Point": "148-150 \u00b0C"}}