{"cas_no": "7189-82-4", "cn_name": "\u53cc\u54aa\u5511", "en_name": ["2,2\u2032-Bis(2-chlorophenyl)-4,4\u2032,5,5\u2032-tetraphenyl-1,2\u2032-biimidazole", "1H-Imidazole, 2-(2-chlorophenyl)-1-[2-(2-chlorophenyl)-4,5-diphenyl-2H-imidazol-2-yl]-4,5-diphenyl-", "Imidazole, 2-(o-chlorophenyl)-1-[2-(o-chlorophenyl)-4,5-diphenyl-2H-imidazol-2-yl]-4,5-diphenyl-", "2-(2-Chlorophenyl)-1-[2-(2-chlorophenyl)-4,5-diphenyl-2H-imidazol-2-yl]-4,5-diphenyl-1H-imidazole", "2,2\u2032-Bis(o-chlorophenyl)-4,4\u2032,5,5\u2032-tetraphenyl-1,2\u2032-biimidazole", "2,2\u2032-Bis(2-chlorophenyl)-4,4\u2032,5,5\u2032-tetraphenyl-1,2\u2032-biimidazole", "2,2\u2032-Bis(o-chlorophenyl)-4,4\u2032,5,5\u2032-tetraphenyl-1,2\u2032-diimidazole", "2,2\u2032-Bis(2-chlorophenyl)-4,5,4\u2032,5\u2032-tetraphenyl-1,2\u2032-biimidazole", "2-(2-Chlorophenyl)-1-[2-(2-chlorophenyl)-4,5-diphenyl-1,3-diazol-2-yl]-4,5-diphenylimidazole", "2,2\u2032-Bis(o-chlorophenyl)-4,5,4\u2032,5\u2032-tetraphenyl-1,2\u2032-biimidazole", "o-Cl-HABI", "o-Cl-HABI", "BIMD", "Speedcure BCIM", "2,2-Bis-(2-chlorophenyl)-4,5,4\u2032,5\u2032-tetraphenyl-2\u2032H-[1,2]biimidazolyl", "2-(2-Chlorophenyl)-1-[2-(2-chlorophenyl)-4,5-diphenylimidazol-2-yl]-4,5-diphenylimidazole", "HABI 1-2"], "SMILES": "ClC1=C(C2(N=C(C(=N2)C3=CC=CC=C3)C4=CC=CC=C4)N5C(=C(N=C5C6=C(Cl)C=CC=C6)C7=CC=CC=C7)C8=CC=CC=C8)C=CC=C1", "physical_data": {"Molecular Weight": "659.60", "Molecular Formula": "C42H28Cl2N4", "Melting Point": "208.5 \u00b0C"}}