{"cas_no": "7189-69-7", "cn_name": "N,N'-\u786b\u9170\u4e8c\u54aa\u5511", "en_name": ["1,1\u2032-Sulfonyldiimidazole", "1H-Imidazole, 1,1\u2032-sulfonylbis-", "Imidazole, 1,1\u2032-sulfonyldi-", "1,1\u2032-Sulfonylbis[1H-imidazole]", "1,1\u2032-Sulfonyldiimidazole", "N,N\u2032-Sulfuryldiimidazole", "1-Imidazol-1-ylsulfonylimidazole"], "SMILES": "S(=O)(=O)(N1C=CN=C1)N2C=CN=C2", "physical_data": {"Molecular Weight": "198.20", "Molecular Formula": "C6H6N4O2S", "Melting Point": "140.1-140.6 \u00b0C"}}