{"cas_no": "719-60-8", "cn_name": "\u65e0\u6c1f\u8089\u6842\u9178", "en_name": ["3-(2,3,4,5,6-Pentafluorophenyl)-2-propenoic acid", "2-Propenoic acid, 3-(2,3,4,5,6-pentafluorophenyl)-", "Cinnamic acid, 2,3,4,5,6-pentafluoro-", "2-Propenoic acid, 3-(pentafluorophenyl)-", "3-(2,3,4,5,6-Pentafluorophenyl)-2-propenoic acid", "2,3,4,5,6-Pentafluorocinnamic acid", "3-(Pentafluorophenyl)-2-propenoic acid"], "SMILES": "C(=CC(O)=O)C1=C(F)C(F)=C(F)C(F)=C1F", "physical_data": {"Molecular Weight": "238.11", "Molecular Formula": "C9H3F5O2", "Melting Point": "64-65 \u00b0C"}}