{"cas_no": "719-64-2", "cn_name": "5-\u6c2f-3-\u82ef\u57fa\u82ef\u5e76-2,1-\u5f02\u5641\u5511", "en_name": ["5-Chloro-3-phenyl-2,1-benzisoxazole", "2,1-Benzisoxazole, 5-chloro-3-phenyl-", "5-Chloro-3-phenyl-2,1-benzisoxazole", "3-Phenyl-5-chloro-2,1-benzisoxazole", "5-Chloro-3-phenylanthranil", "3-Phenyl-5-chloroanthranil", "5-Chloro-3-phenylbenz[c]isoxazole", "5-Chloro-3-phenyl-2,1-benzisoxazoles", "NSC 405896", "5-Chloro-3-phenylbenzo[c]isoxazole"], "SMILES": "ClC1=CC2=C(ON=C2C=C1)C3=CC=CC=C3", "physical_data": {"Molecular Weight": "229.66", "Molecular Formula": "C13H8ClNO", "Melting Point": "115-117 \u00b0C"}}