{"cas_no": "719-22-2", "cn_name": "2,6-\u4e8c\u53d4\u4e01\u57fa\u82ef\u918c", "en_name": ["2,6-Di-tert-butyl-1,4-benzoquinone", "2,5-Cyclohexadiene-1,4-dione, 2,6-bis(1,1-dimethylethyl)-", "p-Benzoquinone, 2,6-di-tert-butyl-", "2,6-Bis(1,1-dimethylethyl)-2,5-cyclohexadiene-1,4-dione", "2,6-Di-tert-butyl-1,4-benzoquinone", "2,6-Di-tert-butyl-p-quinone", "2,6-Di-tert-butylbenzoquinone", "2,6-Di-tert-butyl-p-benzoquinone", "2,6-Di-tert-butylquinone", "3,5-Di-tert-butyl-p-benzoquinone", "3,5-Di-tert-butylquinone", "2,6-Di-tert-butyl-2,5-cyclohexadiene-1,4-dione", "NSC 14448", "2,6-Di-tert-butyl-2,5-cyclohexadien-1,4-dione", "2,6-Bis[1,1-dimethyl ethyl]quinone", "2,6-Ditert-butylcyclohexa-2,5-diene-1,4-dione"], "SMILES": "C(C)(C)(C)C=1C(=O)C(C(C)(C)C)=CC(=O)C1", "physical_data": {"Molecular Weight": "220.31", "Molecular Formula": "C14H20O2", "Boiling Point": "65-67 \u00b0C @ Press: 1 Torr", "Melting Point": "65-67 \u00b0C"}}