{"cas_no": "719-59-5", "cn_name": "2-\u6c28\u57fa-5-\u6c2f\u4e8c\u82ef\u7532\u916e", "en_name": ["2-Amino-5-chlorobenzophenone", "Methanone, (2-amino-5-chlorophenyl)phenyl-", "Benzophenone, 2-amino-5-chloro-", "(2-Amino-5-chlorophenyl)phenylmethanone", "2-Amino-5-chlorobenzophenone", "5-Chloro-2-aminobenzophenone", "2-Benzoyl-4-chloroaniline", "2-Amino-5-chlorbenzophenone", "2-Amino-5-chlorobenzylphenone", "Oxazepam benzophenone", "NSC 84157"], "SMILES": "C(=O)(C1=C(N)C=CC(Cl)=C1)C2=CC=CC=C2", "physical_data": {"Molecular Weight": "231.68", "Molecular Formula": "C13H10ClNO", "Melting Point": "99 \u00b0C"}}