{"cas_no": "719-32-4", "cn_name": "2,3,5,6-\u56db\u6c2f\u5bf9\u82ef\u4e8c\u7532\u9170\u6c2f", "en_name": ["2,3,5,6-Tetrachloro-1,4-benzenedicarbonyl dichloride", "1,4-Benzenedicarbonyl dichloride, 2,3,5,6-tetrachloro-", "Terephthaloyl chloride, tetrachloro-", "2,3,5,6-Tetrachloro-1,4-benzenedicarbonyl dichloride", "Tetrachloroterephthaloyl chloride", "2,3,5,6-Tetrachloroterephthaloyl chloride", "Tetrachloroterephthalic dichloride", "2,3,5,6-Tetrachloroterephthaloyl dichloride", "Perchloroterephthaloyl chloride", "Tetrachloroterephthaloyl dichloride", "2,3,5,6-Tetrachloroterephthalic dichloride"], "SMILES": "C(Cl)(=O)C1=C(Cl)C(Cl)=C(C(Cl)=O)C(Cl)=C1Cl", "physical_data": {"Molecular Weight": "340.80", "Molecular Formula": "C8Cl6O2", "Melting Point": "144-145 \u00b0C"}}