{"cas_no": "719-80-2", "cn_name": "\u4e8c\u82ef\u57fa\u4e59\u6c27\u57fa\u81a6", "en_name": ["Ethyl P,P-diphenylphosphinite", "Phosphinous acid, P,P-diphenyl-, ethyl ester", "Phosphinous acid, diphenyl-, ethyl ester", "Ethyl P,P-diphenylphosphinite", "Diphenylphosphinous acid ethyl ester", "Ethoxydiphenylphosphine", "Diphenylethoxyphosphine", "Ethyl diphenylphosphinite"], "SMILES": "P(OCC)(C1=CC=CC=C1)C2=CC=CC=C2", "physical_data": {"Molecular Weight": "230.24", "Molecular Formula": "C14H15OP", "Boiling Point": "152 \u00b0C @ Press: 1.5 Torr", "Melting Point": "164-167 \u00b0C", "Density": "1.0716 g/cm\u00b3 @ Temp: 20 \u00b0C"}}