{"cas_no": "719-54-0", "cn_name": "N-\u7532\u57fa-9-\u5416\u5576\u916e", "en_name": ["N-Methylacridone", "9(10H)-Acridinone, 10-methyl-", "9-Acridanone, 10-methyl-", "10-Methyl-9(10H)-acridinone", "N-Methylacridone", "10-Methyl-9-acridanone", "10-Methylacridin-9-one", "N-Methyl-9-acridone", "10-Methyl-9(10H)-acridone", "10-Methylacridone", "10-Methyl-9-acridone", "NSC 1189", "NSC 54142", "9,10-Dihydro-9-methyl-10-acridinone", "10-Methyl-10H-acridin-9-one", "9-Methyl-9-azaanthracen-10-one"], "SMILES": "O=C1C=2C(N(C)C=3C1=CC=CC3)=CC=CC2", "physical_data": {"Molecular Weight": "209.24", "Molecular Formula": "C14H11NO", "Melting Point": "203 \u00b0C"}}