{"cas_no": "71939-51-0", "cn_name": "\u84bf\u7532\u919a\u76f8\u5173\u7269\u8d28B", "en_name": ["\u03b1-Artemether", "3,12-Epoxy-12H-pyrano[4,3-j]-1,2-benzodioxepin, decahydro-10-methoxy-3,6,9-trimethyl-, (3R,5aS,6R,8aS,9R,10R,12R,12aR)-", "3,12-Epoxy-12H-pyrano[4,3-j]-1,2-benzodioxepin, decahydro-10-methoxy-3,6,9-trimethyl-, [3R-(3\u03b1,5a\u03b2,6\u03b2,8a\u03b2,9\u03b1,10\u03b2,12\u03b2,12aR*)]-", "(3R,5aS,6R,8aS,9R,10R,12R,12aR)-Decahydro-10-methoxy-3,6,9-trimethyl-3,12-epoxy-12H-pyrano[4,3-j]-1,2-benzodioxepin", "SM 229", "\u03b1-Artemether", "(+)-\u03b1-Artemether", "\u03b1-Dihydroartemisinin methyl ether"], "SMILES": "CC1C2C34C(OC1OC)OC(C)(OO3)CCC4C(C)CC2", "physical_data": {"Molecular Weight": "298.37", "Molecular Formula": "C16H26O5", "Melting Point": "88 \u00b0C"}}