{"cas_no": "71939-50-9", "cn_name": "\u53cc\u6c22\u9752\u84bf\u7d20", "en_name": ["Dihydroartemisinin", "3,12-Epoxy-12H-pyrano[4,3-j]-1,2-benzodioxepin-10-ol, decahydro-3,6,9-trimethyl-, (3R,5aS,6R,8aS,9R,10S,12R,12aR)-", "3,12-Epoxy-12H-pyrano[4,3-j]-1,2-benzodioxepin-10-ol, decahydro-3,6,9-trimethyl-, [3R-(3\u03b1,5a\u03b2,6\u03b2,8a\u03b2,9\u03b1,10\u03b1,12\u03b2,12aR*)]-", "(3R,5aS,6R,8aS,9R,10S,12R,12aR)-Decahydro-3,6,9-trimethyl-3,12-epoxy-12H-pyrano[4,3-j]-1,2-benzodioxepin-10-ol", "Dihydroartemisinine", "Dihydroartemisinin", "Dihydroqinghaosu", "\u03b2-Dihydroartemisinin", "Cotecxin", "DHQHS 2", "Cotexin", "Salaxin", "Alaxin", "Santecxin", "Dynamax", "Artenimol", "Artemisinin deriv. DHA", "HC 101C", "DHA", "CID 3000518"], "SMILES": "CC1C2C34C(OC(C)(OO3)CCC4C(C)CC2)OC1O", "physical_data": {"Molecular Weight": "284.35", "Molecular Formula": "C15H24O5", "Melting Point": "159.00 \u00b0C"}}