{"cas_no": "7194-85-6", "cn_name": "\u4e09\u5341\u516b\u70f7", "en_name": ["Octatriacontane", "Octatriacontane", "n-Octatriacontane"], "SMILES": "C(CCCCCCCCCCCCCCCCCCC)CCCCCCCCCCCCCCCCCC", "physical_data": {"Molecular Weight": "535.03", "Molecular Formula": "C38H78", "Boiling Point": "512 \u00b0C", "Melting Point": "80-81 \u00b0C"}}