{"cas_no": "7194-84-5", "cn_name": "\u4e09\u5341\u4e03\u70f7", "en_name": ["Heptatriacontane", "Heptatriacontane", "n-Heptatriacontane"], "SMILES": "C(CCCCCCCCCCCCCCCCCC)CCCCCCCCCCCCCCCCCC", "physical_data": {"Molecular Weight": "521.00", "Molecular Formula": "C37H76", "Boiling Point": "505 \u00b0C"}}