{"cas_no": "71963-77-4", "cn_name": "\u84bf\u7532\u919a", "en_name": ["Artemether", "3,12-Epoxy-12H-pyrano[4,3-j]-1,2-benzodioxepin, decahydro-10-methoxy-3,6,9-trimethyl-, (3R,5aS,6R,8aS,9R,10S,12R,12aR)-", "3,12-Epoxy-12H-pyrano[4,3-j]-1,2-benzodioxepin, decahydro-10-methoxy-3,6,9-trimethyl-, [3R-(3\u03b1,5a\u03b2,6\u03b2,8a\u03b2,9\u03b1,10\u03b1,12\u03b2,12aR*)]-", "(3R,5aS,6R,8aS,9R,10S,12R,12aR)-Decahydro-10-methoxy-3,6,9-trimethyl-3,12-epoxy-12H-pyrano[4,3-j]-1,2-benzodioxepin", "Artemether", "SM 224", "Dihydroartemisinin methyl ether", "\u03b2-Artemether", "\u03b2-Dihydroartemisinin methyl ether", "Artesian", "Gvither", "Artenam", "Malartem", "Artesaph", "Artemos", "Larither", "Falcidol", "Paluther", "(+)-Artemether"], "SMILES": "CC1C2C34C(OC1OC)OC(C)(OO3)CCC4C(C)CC2", "physical_data": {"Molecular Weight": "298.37", "Molecular Formula": "C16H26O5", "Melting Point": "86-88 \u00b0C"}}