{"cas_no": "7197-96-8", "cn_name": "2,3-\u73af\u5df1\u5421\u5576", "en_name": ["6,7,8,9-Tetrahydro-5H-cyclohepta[b]pyridine", "5H-Cyclohepta[b]pyridine, 6,7,8,9-tetrahydro-", "6,7,8,9-Tetrahydro-5H-cyclohepta[b]pyridine", "2,3-Cycloheptenopyridine"], "SMILES": "C=12C(=NC=CC1)CCCCC2", "physical_data": {"Molecular Weight": "147.22", "Molecular Formula": "C10H13N", "Boiling Point": "238 \u00b0C", "Density": "1.013 g/cm\u00b3 @ Temp: 20 \u00b0C"}}