{"cas_no": "71987-67-2", "cn_name": "(5-\u6c1f-2-\u7532\u57fa-1H-\u5432\u54da-3-\u57fa)\u4e59\u9178", "en_name": ["(5-Fluoro-2-methyl-1H-indol-3-yl)acetic acid", "1H-Indole-3-acetic acid, 5-fluoro-2-methyl-", "5-Fluoro-2-methyl-1H-indole-3-acetic acid", "5-Fluoro-2-methyl-3-indoleacetic acid", "SR 036", "(5-Fluoro-2-methyl-1H-indol-3-yl)acetic acid", "2-(5-Fluoro-2-methyl-1H-indol-3-yl)acetic acid"], "SMILES": "C(C(O)=O)C=1C=2C(NC1C)=CC=C(F)C2", "physical_data": {"Molecular Weight": "207.20", "Molecular Formula": "C11H10FNO2", "Melting Point": "179-182 \u00b0C"}}