{"cas_no": "71989-14-5", "cn_name": "Fmoc-L-\u5929\u51ac\u6c28\u9178 beta-\u53d4\u4e01\u916f", "en_name": ["Fmoc-L-Asp(OtBu)-OH", "L-Aspartic acid, N-[(9H-fluoren-9-ylmethoxy)carbonyl]-, 4-(1,1-dimethylethyl) ester", "N-(9-Fluorenylmethoxycarbonyl)-L-aspartic acid \u03b2-tert-butyl ester", "N-(9-Fluorenylmethoxycarbonyl)aspartic acid 4-tert-butyl ester", "(S)-2-((((9H-Fluoren-9-yl)methoxy)carbonyl)amino)-4-tert-butoxy-4-oxo-butanoic acid", "(2S)-4-tert-Butoxy-2-[[[(9H-fluoren-9-yl)methoxy]carbonyl]amino]-4-oxobutanoic acid", "4-tert-Butyl N-(fluoren-9-ylmethoxycarbonyl)-L-aspartate", "Fmoc-L-Asp(OtBu)-OH", "Fmoc-Asp(tBu)-OH", "Fmoc-L-Asp(OtBu)", "(2S)-4-(tert-Butoxy)-2-([[(9H-fluoren-9-yl)methoxy]carbonyl]amino)-4-oxobutanoic acid", "(2S)-2-(9H-Fluoren-9-ylmethoxycarbonylamino)-4-[(2-methylpropan-2-yl)oxy]-4-oxobutanoic acid", "(2S)-4-tert-Butoxy-2-(9H-fluoren-9-ylmethoxycarbonylamino)-4-oxo-butanoic acid"], "SMILES": "C(OC(NC(CC(OC(C)(C)C)=O)C(O)=O)=O)C1C=2C(C=3C1=CC=CC3)=CC=CC2", "physical_data": {"Molecular Weight": "411.45", "Molecular Formula": "C23H25NO6", "Melting Point": "149-152 \u00b0C"}}