{"cas_no": "71989-23-6", "cn_name": "Fmoc-L-\u5f02\u4eae\u6c28\u9178", "en_name": ["N-Fmoc-L-isoleucine", "L-Isoleucine, N-[(9H-fluoren-9-ylmethoxy)carbonyl]-", "N-[(9H-Fluoren-9-ylmethoxy)carbonyl]-L-isoleucine", "N-(9-Fluorenylmethoxycarbonyl)isoleucine", "N-(9-Fluorenylmethoxycarbonyl)-L-isoleucine", "(2S,3S)-2-(((9-Fluorenylmethoxy)carbonyl)amino)-3-methylpentanoic acid", "NSC 334289", "N-Fmoc-L-isoleucine"], "SMILES": "C(OC(NC(C(CC)C)C(O)=O)=O)C1C=2C(C=3C1=CC=CC3)=CC=CC2", "physical_data": {"Molecular Weight": "353.41", "Molecular Formula": "C21H23NO4", "Melting Point": "138-140 \u00b0C (decomp)"}}