{"cas_no": "71989-35-0", "cn_name": "Fmoc-O-\u53d4\u4e01\u57fa-L-\u82cf\u6c28\u9178", "en_name": ["N-(9-Fluorenylmethoxycarbonyl)-O-tert-butylthreonine", "L-Threonine, O-(1,1-dimethylethyl)-N-[(9H-fluoren-9-ylmethoxy)carbonyl]-", "O-(1,1-Dimethylethyl)-N-[(9H-fluoren-9-ylmethoxy)carbonyl]-L-threonine", "N-(9-Fluorenylmethoxycarbonyl)-O-tert-butylthreonine", "(2S,3R)-2-(((9-Fluorenylmethoxy)carbonyl)amino)-3-(tert-butoxy)butanoic acid", "(2S,3R)-3-tert-Butoxy-2-[[[[9H-fluoren-9-yl]methoxy]carbonyl]amino)butanoic acid", "Fmoc-L-Thr(tBu)-OH", "Fmoc-O-tert-butyl-L-threonine"], "SMILES": "C(OC(NC(C(OC(C)(C)C)C)C(O)=O)=O)C1C=2C(C=3C1=CC=CC3)=CC=CC2", "physical_data": {"Molecular Weight": "397.46", "Molecular Formula": "C23H27NO5", "Melting Point": "131-132 \u00b0C"}}