{"cas_no": "71989-33-8", "cn_name": "FMOC-O-\u53d4\u4e01\u57fa-L-\u4e1d\u6c28\u9178", "en_name": ["N-(9-Fluorenylmethoxycarbonyl)-O-tert-butylserine", "L-Serine, O-(1,1-dimethylethyl)-N-[(9H-fluoren-9-ylmethoxy)carbonyl]-", "O-(1,1-Dimethylethyl)-N-[(9H-fluoren-9-ylmethoxy)carbonyl]-L-serine", "N-(9-Fluorenylmethoxycarbonyl)-O-tert-butylserine", "O-tert-Butyl-N-(9-fluorenylmethoxycarbonyl)serine", "(2S)-3-tert-Butoxy-2-[[[(9H-fluoren-9-yl)methoxy]carbonyl]amino]propanoic acid", "Fmoc-Ser(OtBu)-OH", "Fmoc-L-Ser(tBu)-OH", "(2S)-3-(tert-Butoxy)-2-([[(9H-fluoren-9-yl)methoxy]carbonyl]amino)propanoic acid", "(2S)-2-(9H-Fluoren-9-ylmethoxycarbonylamino)-3-[(2-methylpropan-2-yl)oxy]propanoic acid"], "SMILES": "C(OC(NC(COC(C)(C)C)C(O)=O)=O)C1C=2C(C=3C1=CC=CC3)=CC=CC2", "physical_data": {"Molecular Weight": "383.44", "Molecular Formula": "C22H25NO5", "Melting Point": "128-131 \u00b0C"}}