{"cas_no": "71985-81-4", "cn_name": "3-\u54cc\u5576\u4e59\u9178\u76d0\u9178\u76d0", "en_name": ["3-Piperidineacetic acid, hydrochloride (1:1)", "3-Piperidineacetic acid, hydrochloride (1:1)", "3-Piperidineacetic acid, hydrochloride", "3-Piperidylacetic Acid Hydrochloride", "2-(Piperidin-3-yl)acetic acid hydrochloride"], "SMILES": "C(C(O)=O)C1CCCNC1.Cl", "physical_data": {"Molecular Weight": "", "Molecular Formula": "C7H13NO2.ClH", "Melting Point": "202-204 \u00b0C"}}