{"cas_no": "71989-26-9", "cn_name": "N-alpha-\u82b4\u7532\u6c27\u7fb0\u57fa-N-epsilon-\u53d4\u4e01\u6c27\u7fb0\u57fa-L-\u8d56\u6c28\u9178", "en_name": ["Fmoc-Lys(Boc)-OH", "L-Lysine, N6-[(1,1-dimethylethoxy)carbonyl]-N2-[(9H-fluoren-9-ylmethoxy)carbonyl]-", "N6-[(1,1-Dimethylethoxy)carbonyl]-N2-[(9H-fluoren-9-ylmethoxy)carbonyl]-L-lysine", "Fmoc-Lys(Boc)-OH", "N\u03b1-(9-Fluorenylmethoxycarbonyl)-N\u03b5-(tert-butoxycarbonyl)lysine", "N-\u03b1-(Fmoc)-N-\u03b5-(t-boc)-L-Lysine-OH", "NSC 334302", "(S)-6-[(tert-Butoxycarbonyl)amino]-2-[[[(9H-fluoren-9-yl)methoxy]carbonyl]amino]hexanoic acid", "(2S)-6-(tert-Butoxycarbonylamino)-2-[[[(9H-fluoren-9-yl)methoxy]carbonyl]amino]hexanoic acid", "(S)-2-[[[(9H-Fluoren-9-yl)methoxy]carbonyl]amino]-6-(tert-butoxycarbonylamino)hexanoic acid", "N-\u03b1-Fluorenylmethoxycarbonyl-N-\u03b5-tert-butoxycarbonyl-L-lysine", "(2S)-2-(9H-Fluoren-9-ylmethoxycarbonylamino)-6-[(2-methylpropan-2-yl)oxycarbonylamino]hexanoic acid", "N2-Fmoc-N6-BOC-L-lysine"], "SMILES": "C(OC(NC(CCCCNC(OC(C)(C)C)=O)C(O)=O)=O)C1C=2C(C=3C1=CC=CC3)=CC=CC2", "physical_data": {"Molecular Weight": "468.54", "Molecular Formula": "C26H32N2O6", "Melting Point": "132-134 \u00b0C"}}