{"cas_no": "71989-28-1", "cn_name": "Fmoc-L-\u86cb\u6c28\u9178", "en_name": ["N-[(9H-Fluoren-9-ylmethoxy)carbonyl]-L-methionine", "L-Methionine, N-[(9H-fluoren-9-ylmethoxy)carbonyl]-", "N-[(9H-Fluoren-9-ylmethoxy)carbonyl]-L-methionine", "N-(9-Fluorenylmethoxycarbonyl)methionine", "N-Fluorenylmethoxycarbonyl-L-methionine", "N-(9-Fluorenylmethoxycarbonyl)-L-methionine", "NSC 334292", "(S)-N-Fmoc-methionine", "915: PN: WO2006135786 PAGE: 59 claimed protein", "(S)-2-[[[(9H-Fluoren-9-yl)methoxy]carbonyl]amino]-4-methylsulfanylbutanoic acid", "224: PN: US20070042401 PAGE: 30 claimed protein", "L-Fmoc-Methionine", "(2S)-2-(9H-Fluoren-9-ylmethoxycarbonylamino)-4-methylsulfanylbutanoic acid", "(2S)-2-[[(9H-Fluoren-9-ylmethoxy)carbonyl]amino]-4-(methylsulfanyl)butanoic acid", "(2S)-2-([[(9H-Fluoren-9-yl)methoxy]carbonyl]amino)-4-(methylsulfanyl)butanoic acid"], "SMILES": "C(OC(NC(CCSC)C(O)=O)=O)C1C=2C(C=3C1=CC=CC3)=CC=CC2", "physical_data": {"Molecular Weight": "371.45", "Molecular Formula": "C20H21NO4S", "Melting Point": "132-136 \u00b0C"}}