{"cas_no": "71989-20-3", "cn_name": "Fmoc-L-\u8c37\u6c28\u9170\u80fa", "en_name": ["N2-(9-Fluorenylmethoxycarbonyl)-L-glutamine", "L-Glutamine, N2-[(9H-fluoren-9-ylmethoxy)carbonyl]-", "N2-[(9H-Fluoren-9-ylmethoxy)carbonyl]-L-glutamine", "N2-(9-Fluorenylmethoxycarbonyl)-L-glutamine", "FMOC-Gln-OH", "N-(9-Fluorenylmethoxycarbonyl)glutamine", "Fmoc-L-Gln-OH", "N2-FMOC-L-glutamine", "NSC 334303", "Fmoc-L-glutamine", "(2S)-4-Carbamoyl-2-([[(9H-fluoren-9-yl)methoxy]carbonyl]amino)butanoic acid", "(2S)-5-Amino-2-(9H-fluoren-9-ylmethoxycarbonylamino)-5-oxopentanoic acid", "(2S)-4-Carbamoyl-2-[[(9H-fluoren-9-ylmethoxy)carbonyl]amino]butanoic acid"], "SMILES": "C(OC(NC(CCC(N)=O)C(O)=O)=O)C1C=2C(C=3C1=CC=CC3)=CC=CC2", "physical_data": {"Molecular Weight": "368.38", "Molecular Formula": "C20H20N2O5", "Melting Point": "219-220 \u00b0C"}}