{"cas_no": "71989-38-3", "cn_name": "Fmoc-O-\u53d4\u4e01\u57fa-L-\u916a\u6c28\u9178", "en_name": ["Fmoc-L-Tyr(tBu)-OH", "L-Tyrosine, O-(1,1-dimethylethyl)-N-[(9H-fluoren-9-ylmethoxy)carbonyl]-", "O-(1,1-Dimethylethyl)-N-[(9H-fluoren-9-ylmethoxy)carbonyl]-L-tyrosine", "NSC 334301", "(S)-3-(4-tert-Butoxyphenyl)-2-[[[(9H-fluoren-9-yl)methoxy]carbonyl]amino]propionic acid", "Fmoc-L-Tyr(tBu)-OH", "(2S)-2-(9H-Fluoren-9-ylmethoxycarbonylamino)-3-[4-[(2-methylpropan-2-yl)oxy]phenyl]propanoic acid", "(2S)-3-[4-(tert-Butoxy)phenyl]-2-([[(9H-fluoren-9-yl)methoxy]carbonyl]amino)propanoic acid"], "SMILES": "C(OC(NC(CC1=CC=C(OC(C)(C)C)C=C1)C(O)=O)=O)C2C=3C(C=4C2=CC=CC4)=CC=CC3", "physical_data": {"Molecular Weight": "459.53", "Molecular Formula": "C28H29NO5", "Melting Point": "150-152 \u00b0C"}}