{"cas_no": "71989-96-3", "cn_name": "2,3,4-\u4e09\u7532\u6c27\u57fa\u82ef\u7532\u9187", "en_name": ["2,3,4-Trimethoxybenzyl alcohol", "Benzenemethanol, 2,3,4-trimethoxy-", "2,3,4-Trimethoxybenzenemethanol", "1-Hydroxymethyl-2,3,4-trimethoxybenzene", "2,3,4-Trimethoxybenzyl alcohol", "(2,3,4-Trimethoxyphenyl)methanol"], "SMILES": "O(C)C1=C(OC)C(OC)=CC=C1CO", "physical_data": {"Molecular Weight": "198.22", "Molecular Formula": "C10H14O4", "Boiling Point": "105 \u00b0C @ Press: 0.25 Torr"}}