{"cas_no": "71989-18-9", "cn_name": "Fmoc-O-\u53d4\u4e01\u57fa-L-\u8c37\u6c28\u9178", "en_name": ["N-(9-Fluorenylmethoxycarbonyl)-L-glutamic acid \u03b3-tert-butyl ester", "L-Glutamic acid, N-[(9H-fluoren-9-ylmethoxy)carbonyl]-, 5-(1,1-dimethylethyl) ester", "N-(9-Fluorenylmethoxycarbonyl)-L-glutamic acid \u03b3-tert-butyl ester", "N-(9-Fluorenylmethoxycarbonyl)glutamic acid \u03b3-tert-butyl ester", "(2S)-5-tert-Butoxy-2-[[[(9H-fluoren-9-yl)methoxy]carbonyl]amino]-5-oxopentanoic acid", "(2S)-5-(tert-Butoxy)-2-([[(9H-fluoren-9-yl)methoxy]carbonyl]amino)-5-oxopentanoic acid", "(2S)-2-(9H-Fluoren-9-ylmethoxycarbonylamino)-5-[(2-methylpropan-2-yl)oxy]-5-oxopentanoic acid", "(2S)-5-tert-Butoxy-2-(9H-fluoren-9-ylmethoxycarbonylamino)-5-oxo-pentanoic acid"], "SMILES": "C(OC(NC(CCC(OC(C)(C)C)=O)C(O)=O)=O)C1C=2C(C=3C1=CC=CC3)=CC=CC2", "physical_data": {"Molecular Weight": "425.47", "Molecular Formula": "C24H27NO6", "Melting Point": "83-90 \u00b0C"}}