{"cas_no": "71989-31-6", "cn_name": "Fmoc-L-\u812f\u6c28\u9178", "en_name": ["Fmoc-Pro-OH", "1,2-Pyrrolidinedicarboxylic acid, 1-(9H-fluoren-9-ylmethyl) ester, (2S)-", "1,2-Pyrrolidinedicarboxylic acid, 1-(9H-fluoren-9-ylmethyl) ester, (S)-", "N-(9-Fluorenylmethoxycarbonyl)proline", "Fmoc-Pro-OH", "Fluorenylmethoxycarbonylproline", "N-(9-Fluorenylmethoxycarbonyl)-L-proline", "(S)-N-(9-Fluorenylmethoxycarbonyl)proline", "N-FMOC-L-proline", "NSC 334294", "Fmoc-L-proline", "Fmoc-L-Pro-OH", "(2S)-1-[(9H-Fluoren-9-ylmethoxy)carbonyl]pyrrolidine-2-carboxylic acid", "(2S)-1-[[(9H-Fluoren-9-yl)methoxy]carbonyl]pyrrolidine-2-carboxylic acid"], "SMILES": "C(OC(=O)N1C(C(O)=O)CCC1)C2C=3C(C=4C2=CC=CC4)=CC=CC3", "physical_data": {"Molecular Weight": "337.37", "Molecular Formula": "C20H19NO4", "Melting Point": "134-136 \u00b0C (decomp)"}}