{"cas_no": "71989-16-7", "cn_name": "Fmoc-L-\u5929\u51ac\u9170\u80fa", "en_name": ["FMOC-L-asparagine", "L-Asparagine, N2-[(9H-fluoren-9-ylmethoxy)carbonyl]-", "N2-[(9H-Fluoren-9-ylmethoxy)carbonyl]-L-asparagine", "N2-(9-Fluorenylmethoxycarbonyl)asparagine", "N-(9-Fluorenylmethoxycarbonyl)asparagine", "FMOC-L-asparagine", "N-FMOC-L-asparagine", "NSC 334297", "(2S)-3-Carbamoyl-2-([[(9H-fluoren-9-yl)methoxy]carbonyl]amino)propanoic acid", "(2S)-4-Amino-2-(9H-fluoren-9-ylmethoxycarbonylamino)-4-oxobutanoic acid"], "SMILES": "C(OC(NC(CC(N)=O)C(O)=O)=O)C1C=2C(C=3C1=CC=CC3)=CC=CC2", "physical_data": {"Molecular Weight": "354.36", "Molecular Formula": "C19H18N2O5", "Melting Point": "187-188 \u00b0C"}}