{"cas_no": "7199-29-3", "cn_name": "\u73af\u5e9a\u7c73\u7279", "en_name": ["Cyheptamide", "5H-Dibenzo[a,d]cycloheptene-5-carboxamide, 10,11-dihydro-", "10,11-Dihydro-5H-dibenzo[a,d]cycloheptene-5-carboxamide", "AY 8682", "Cyheptamide", "BS 7029", "ICI 51426", "Carbamazepam", "10,11-Dihydro-5H-dibenzo[a,d][7]annulene-5-carboxamide"], "SMILES": "C(N)(=O)C1C=2C(=CC=CC2)CCC=3C1=CC=CC3", "physical_data": {"Molecular Weight": "237.30", "Molecular Formula": "C16H15NO", "Melting Point": "193.5 \u00b0C"}}