{"cas_no": "72-14-0", "cn_name": "\u78fa\u80fa\u567b\u5511", "en_name": ["Sulfathiazole", "Benzenesulfonamide, 4-amino-N-2-thiazolyl-", "Sulfanilamide, N1-2-thiazolyl-", "Sulfanilamide, N1-4-thiazolin-2-ylidene-", "4-Amino-N-2-thiazolylbenzenesulfonamide", "M&", "B 760", "2090 R.P.", "Ciba 3714", "2-(p-Aminobenzenesulphonamido)thiazole", "Azoseptale", "Chemosept", "Cibazol", "Duatok", "Eleudron", "Neostrepsan", "Norsulfasol", "Norsulfazole", "Planomide", "Poliseptil", "Streptosilthiazole", "2-Sulfanilamidothiazole", "2-(Sulfanilylamino)thiazole", "Sulfathiazol", "Sulfathiazole", "Sulphathiazole", "Sulzol", "Thiacoccine", "Thiazamide", "Thiozamide", "Sulfanilamidothiazole", "Norsulfazol", "N1-(2-Thiazolyl)sulfanilamide", "Estafilol", "Azoquimiol", "Thiasulfol", "Dulana", "Wintrazole", "Sanotiazol", "Sulfocerol", "2-(p-Aminobenzenesulfonamido)thiazole", "2-Sulfathiazole", "Sulfavitina", "M and B 760", "Sulfamul", "Enterobiocine", "NSC 31812", "NSC 683531", "4-[(1,3-Thiazol-2-yl)aminosulfonyl]aniline", "N-(Thiazol-2-yl)-4-aminobenzenesulfonamide", "4-Amino-N-(1,3-thiazol-2-yl)benzenesulfonamide", "p-Amino-N-(2-thiazolyl)benzenesulfonamide"], "SMILES": "S(NC1=NC=CS1)(=O)(=O)C2=CC=C(N)C=C2", "physical_data": {"Molecular Weight": "255.32", "Molecular Formula": "C9H9N3O2S2", "Melting Point": "202-202.5 \u00b0C", "Density": "1.53 g/cm\u00b3"}}