{"cas_no": "72-19-5", "cn_name": "L-\u82cf\u6c28\u9178", "en_name": ["L-Threonine", "L-Threonine", "Threonine, L-", "Butanoic acid, 2-amino-3-hydroxy-, [R-(R*,S*)]-", "Threonine", "Threonin", "[R-(R*,S*)]-2-Amino-3-hydroxybutanoic acid", "(S)-Threonine", "L-(-)-Threonine", "2-Amino-3-hydroxybutyric acid", "NSC 16589", "NSC 46701", "48: PN: WO2004076659 FIGURE: 7 claimed protein", "46: PN: WO2005016244 PAGE: 70 claimed protein", "49: PN: WO2005016244 PAGE: 70 claimed protein", "3046: PN: WO2004111636 SEQID: 516 unclaimed protein", "2: PN: US20090069547 PAGE: 10 claimed protein", "17: PN: WO2011044089 SEQID: 18 claimed protein", "4: PN: WO2012076822 PAGE: 51 claimed sequence", "(2S,3R)-2-Amino-3-hydroxybutanoic acid", "515: PN: WO2022056313 SEQID: 531 claimed protein", "361: PN: US20220128567 SEQID: 531 claimed protein", "361: PN: US20220178935 SEQID: 531 claimed protein", "MeSH ID: D013912"], "SMILES": "C(C(C)O)(C(O)=O)N", "physical_data": {"Molecular Weight": "119.12", "Molecular Formula": "C4H9NO3", "Melting Point": "256 \u00b0C (decomp)"}}