{"cas_no": "72-20-8", "cn_name": "\u5b89\u7279\u7075(\u5f02\u72c4\u6c0f\u5242)", "en_name": ["Endrin", "2,7:3,6-Dimethanonaphth[2,3-b]oxirene, 3,4,5,6,9,9-hexachloro-1a,2,2a,3,6,6a,7,7a-octahydro-, (1aR,2R,2aR,3R,6S,6aS,7S,7aS)-rel-", "1,4:5,8-Dimethanonaphthalene, 1,2,3,4,10,10-hexachloro-6,7-epoxy-1,4,4a,5,6,7,8,8a-octahydro-, endo,endo-", "2,7:3,6-Dimethanonaphth[2,3-b]oxirene, 3,4,5,6,9,9-hexachloro-1a,2,2a,3,6,6a,7,7a-octahydro-, (1a\u03b1,2\u03b2,2a\u03b2,3\u03b1,6\u03b1,6a\u03b2,7\u03b2,7a\u03b1)-", "rel-(1aR,2R,2aR,3R,6S,6aS,7S,7aS)-3,4,5,6,9,9-Hexachloro-1a,2,2a,3,6,6a,7,7a-octahydro-2,7:3,6-dimethanonaphth[2,3-b]oxirene", "Endrin", "Experimental Insecticide 269", "1,2,3,4,10,10-Hexachloro-6,7-epoxy-1,4,4a,5,6,7,8,8a-octahydro-endo-1,4-endo-5,8-dimethanonaphthalene", "Mendrin", "Compd. 269", "1,2,3,4,10,10-Hexachloro-6,7-epoxy-1,4,4a,5,6,7,8,8a-octahydro-endo-endo-1,4:5,8-dimethanonaphthalene", "SD 3419", "EN 57", "Endricol", "Oktanex", "Endrex", "Hexadrin", "Stardrin 20", "Stardrin", "MeSH ID: D004732"], "SMILES": "ClC12C3C(C(Cl)(C1(Cl)Cl)C(Cl)=C2Cl)C4CC3C5C4O5", "physical_data": {"Molecular Weight": "380.91", "Molecular Formula": "C12H8Cl6O", "Melting Point": "200 \u00b0C", "Density": "1.7 g/cm\u00b3 @ Temp: 20 \u00b0C"}}