{"cas_no": "72-33-3", "cn_name": "\u7f8e\u96cc\u9187", "en_name": ["Mestranol", "19-Norpregna-1,3,5(10)-trien-20-yn-17-ol, 3-methoxy-, (17\u03b1)-", "19-Nor-17\u03b1-pregna-1,3,5(10)-trien-20-yn-17-ol, 3-methoxy-", "(17\u03b1)-3-Methoxy-19-norpregna-1,3,5(10)-trien-20-yn-17-ol", "33355", "Ethynylestradiol 3-methyl ether", "17\u03b1-Ethynylestradiol 3-methyl ether", "17-Ethynyl-3-methoxy-1,3,5(10)-estratrien-17\u03b2-o1", "17\u03b1-Ethynyl-3-methoxy-17\u03b2-hydroxy-\u03941,3,5(10)-estratriene", "Mestranol", "3-Methoxy-17\u03b1-ethinylestradiol", "3-Methoxyethynylestradiol", "3-Methoxy-19-nor-17\u03b1-pregna-1,3,5(10)-trien-20-yn-17-ol", "\u03b4-MVE", "3-Methoxy-17\u03b1-ethynylestradiol", "SC 4725", "17\u03b1-Ethinylestradiol 3-methyl ether", "Ethinylestradiol 3-methyl ether", "3-Methoxy-19-nor-17\u03b1-pregna-1,3,5(10)-trien-20-yn-17\u03b2-ol", "17\u03b1-Ethynylestradiol methyl ether", "17-Ethynylestradiol 3-methyl ether", "17-Ethynyl-3-methoxyestra-1,3,5(10)-trien-17\u03b2-ol", "17\u03b1-Ethynyl-3-methoxy-1,3,5(10)-estratrien-17\u03b2-ol", "Norquen", "Ovastol", "3-Methylethynylestradiol", "Ethynylestradiol methyl ether", "3-O-Methylethynylestradiol", "8027 C. B.", "Devocin", "Inostral", "Ethynylestradiol 3-monomethyl ether", "Menophase", "EE 3ME", "NSC 84032", "3-O-Methyl-17\u03b1-ethynylestradiol", "(8R,9S,13S,14S,17R)-17-Ethynyl-3-methoxy-13-methyl-7,8,9,11,12,13,14,15,16,17-decahydro-6H-cyclopenta[a]phenanthren-17-ol", "MeSH ID: D008656"], "SMILES": "CC12C(C3C(C=4C(CC3)=CC(OC)=CC4)CC1)CCC2(C#C)O", "physical_data": {"Molecular Weight": "310.43", "Molecular Formula": "C21H26O2", "Melting Point": "150-151 \u00b0C"}}