{"cas_no": "72-40-2", "cn_name": "4-\u6c28\u57fa-5-\u54aa\u5511\u7532\u9170\u80fa\u76d0\u9178\u76d0", "en_name": ["5-Aminoimidazole-4-carboxamide hydrochloride", "1H-Imidazole-4-carboxamide, 5-amino-, hydrochloride (1:1)", "Imidazole-4-carboxamide, 5-amino-, monohydrochloride", "1H-Imidazole-4-carboxamide, 5-amino-, monohydrochloride", "4-Aminoimidazole-5-carboxamide hydrochloride", "5-Aminoimidazole-4-carboxamide hydrochloride", "4-Amino-5-carbamoylimidazole hydrochloride", "5-Amino-1H-imidazole-4-carboxamide hydrochloride"], "SMILES": "C(N)(=O)C1=C(N)N=CN1.Cl", "physical_data": {"Molecular Weight": "", "Molecular Formula": "C4H6N4O.ClH", "Melting Point": "255-256 \u00b0C"}}