{"cas_no": "72-43-5", "cn_name": "\u7532\u6c27\u6ef4\u6ef4\u6d95,\u7532\u6c27\u6c2f", "en_name": ["Methoxychlor", "Benzene, 1,1\u2032-(2,2,2-trichloroethylidene)bis[4-methoxy-", "Ethane, 1,1,1-trichloro-2,2-bis(p-methoxyphenyl)-", "1,1\u2032-(2,2,2-Trichloroethylidene)bis[4-methoxybenzene]", "2,2-Bis(p-methoxyphenyl)-1,1,1-trichloroethane", "2,2-Di-p-anisyl-1,1,1-trichloroethane", "Dimethoxy-DDT", "Di(p-methoxyphenyl)(trichloromethyl)methane", "DMDT", "Marlate", "Methoxychlor", "Methoxy-DDT", "1,1,1-Trichloro-2,2-bis(p-methoxyphenyl)ethane", "1,1,1-Trichloro-2,2-di(4-methoxyphenyl)ethane", "p,p\u2032-Dimethoxydiphenyltrichloroethane", "p,p\u2032-Methoxychlor", "Metox", "p,p\u2032-DMDT", "1,1-Bis(p-methoxyphenyl)-2,2,2-trichloroethane", "4,4\u2032-(2,2,2-Trichloroethylidene)dianisole", "1,1,1-Trichloro-2,2-bis(4-methoxyphenyl)ethane", "2,2,2-Trichloro-1,1-bis(4-methoxyphenyl)ethane", "Mezox K", "Mesox K", "Methoxcide", "Metox plynny", "2,2-Bis(4-methoxyphenyl)-1,1,1-trichloroethane", "NSC 8945", "1,1,1-Trichloro-2,2-bis(4-methoxyphenyl)ethylene", "MeSH ID: D008731"], "SMILES": "C(C(Cl)(Cl)Cl)(C1=CC=C(OC)C=C1)C2=CC=C(OC)C=C2", "physical_data": {"Molecular Weight": "345.65", "Molecular Formula": "C16H15Cl3O2", "Boiling Point": "346 \u00b0C", "Melting Point": "87 \u00b0C", "Density": "1.41 g/cm\u00b3 @ Temp: 25 \u00b0C"}}