{"cas_no": "72-48-0", "cn_name": "1,2-\u4e8c\u7f9f\u57fa\u84bd\u918c", "en_name": ["Alizarin", "9,10-Anthracenedione, 1,2-dihydroxy-", "Alizarin B", "Anthraquinone, 1,2-dihydroxy-", "1,2-Dihydroxy-9,10-anthracenedione", "C.I. 58000", "Alizarin", "Alizarina", "Alizarine", "Alizarine B", "Alizarine 3B", "Alizarine Indicator", "Alizarine Lake Red 2P", "Alizarine Lake Red IPX", "Alizarine NAC", "Alizarine L Paste", "Alizarine Paste 20 percent Bluish", "Alizarine Red", "Alizarine Red B", "Alizarine Red B2", "Alizarine Red L", "Alizarine Red IP", "Alizarine Red IPP", "1,2-Anthraquinonediol", "Alizarine Lake Red 3P", "Certiqual Alizarine", "C.I. Mordant Red 11", "1,2-Dihydroxyanthraquinone", "Eljon Madder", "Mitsui Alizarine B", "Turkey red", "Alizarin Red", "D And C Orange Number 15", "Deep Crimson Madder 10821", "1,2-Dihydroxy-9,10-anthraquinone", "Mordant Red 11", "C Ext. Red 62", "Acid Metachrome Red B", "Acid Mordant Red B", "NSC 7212", "Qiansu", "CSU-1585", "CSU 1585", "Rubican", "1,2-Dihydroxy-9,10-dihydroanthracene-9,10-dione"], "SMILES": "O=C1C=2C(C(=O)C=3C1=CC=CC3)=CC=C(O)C2O", "physical_data": {"Molecular Weight": "240.21", "Molecular Formula": "C14H8O4", "Boiling Point": "430 \u00b0C", "Melting Point": "289.5 \u00b0C"}}