{"cas_no": "72-55-9", "cn_name": "2\uff0c2-\u53cc\uff084-\u6c2f\u82ef\u57fa\uff09-1\uff0c1-\u4e8c\u6c2f\u4e59\u70ef", "en_name": ["p,p\u2032-DDE", "Benzene, 1,1\u2032-(2,2-dichloroethenylidene)bis[4-chloro-", "Ethylene, 1,1-dichloro-2,2-bis(p-chlorophenyl)-", "Benzene, 1,1\u2032-(dichloroethenylidene)bis[4-chloro-", "1,1\u2032-(2,2-Dichloroethenylidene)bis[4-chlorobenzene]", "1,1-Dichloro-2,2-bis(p-chlorophenyl)ethylene", "DDE", "p,p\u2032-DDE", "p,p\u2032-Dichlorodiphenyldichloroethylene", "1,1-Dichloro-2,2-di(p-chlorophenyl)ethylene", "4,4\u2032-DDE", "2,2-Bis(4-chlorophenyl)-1,1-dichloroethylene", "1,1-Bis(p-chlorophenyl)-2,2-dichloroethylene", "2,2-Dichloro-1,1-bis(4-chlorophenyl)ethylene", "4,4\u2032-Dichlorodiphenyldichloroethylene", "1,1-Bis(4-chlorophenyl)-2,2-dichloroethene", "NSC 1153", "2,2-Di(p-chlorophenyl)-1,1-dichloroethylene", "1,1\u2032-Dichloro-2,2-bis(4-chlorophenyl)ethane", "2,2-Bis(4-chlorophenyl)-1,1-dichloroethene", "1-Chloro-4-[2,2-dichloro-1-(4-chlorophenyl)ethenyl]benzene"], "SMILES": "C(=C(Cl)Cl)(C1=CC=C(Cl)C=C1)C2=CC=C(Cl)C=C2", "physical_data": {"Molecular Weight": "318.03", "Molecular Formula": "C14H8Cl4", "Boiling Point": "336 \u00b0C", "Melting Point": "89 \u00b0C"}}