{"cas_no": "72-57-1", "cn_name": "\u53f0\u76fc\u84dd", "en_name": ["Trypan blue", "2,7-Naphthalenedisulfonic acid, 3,3\u2032-[(3,3\u2032-dimethyl[1,1\u2032-biphenyl]-4,4\u2032-diyl)bis(2,1-diazenediyl)]bis[5-amino-4-hydroxy-, sodium salt (1:4)", "C.I. Direct Blue 14, tetrasodium salt", "2,7-Naphthalenedisulfonic acid, 3,3\u2032-[(3,3\u2032-dimethyl[1,1\u2032-biphenyl]-4,4\u2032-diyl)bis(azo)]bis[5-amino-4-hydroxy-, tetrasodium salt", "Diphenyl Blue", "Blue 3B", "C.I. 23850", "Amanil Sky Blue R", "Bencidal Blue 3B", "Benzamine blue", "Benzanil Blue 3BN", "Benzo blue", "Benzo Blue 3BS", "Blue EMB", "Brasilamina Blue 3B", "Chloramine Blue 3B", "Chrome Leather Blue 3B", "C.I. Direct Blue 14", "Congo blue", "Cresotine Blue 3B", "Diamineblue", "Diamine Blue 3B", "Diaphtamine Blue TH", "Diazine Blue 3B", "Diazol Blue 3B", "Diphenyl Blue 3B", "Direct Blue M 3B", "Direct Blue 3B", "Hispamin Blue 3BX", "Naphthylamine blue", "Niagara Blue", "Niagara Blue 3B", "Paramine Blue 3B", "Pontamine Blue 3BX", "Sodium ditolyldisazobis-8-amino-1-naphthol-3,6-disulfonate", "Trypan Blue BPC", "Trypane blue", "Trypan blue", "Direct Blue 14", "Trypan (Congo) Blue", "MeSH ID: D014343"], "SMILES": "OC=1C2=C(C=C(S(=O)(=O)O)C1N=NC3=C(C)C=C(C=C3)C4=CC(C)=C(N=NC=5C(S(=O)(=O)O)=CC6=C(C5O)C(N)=CC(S(=O)(=O)O)=C6)C=C4)C=C(S(=O)(=O)O)C=C2N.[Na]", "physical_data": {"Molecular Weight": "", "Molecular Formula": "C34H28N6O14S4.4Na", "Melting Point": "&gt;300 \u00b0C"}}