{"cas_no": "72-56-0", "cn_name": "\u4e59\u6ef4\u6d95", "en_name": ["Perthane", "Benzene, 1,1\u2032-(2,2-dichloroethylidene)bis[4-ethyl-", "Ethane, 1,1-dichloro-2,2-bis(p-ethylphenyl)-", "1,1\u2032-(2,2-Dichloroethylidene)bis[4-ethylbenzene]", "Q 137", "1,1-Bis(p-ethylphenyl)-2,2-dichloroethane", "2,2-Bis(p-ethylphenyl)-1,1-dichloroethane", "1,1-Dichloro-2,2-bis(p-ethylphenyl)ethane", "2,2-Dichloro-1,1-bis(p-ethylphenyl)ethane", "Di(p-ethylphenyl)dichloroethane", "Ethylan (insecticide)", "Perthane", "ENT 17082", "p,p\u2032-Perthane", "1,1-Dichloro-2,2-bis(4-ethylphenyl)ethane", "Ethylan", "Ethyl-DDD", "1-[2,2-Dichloro-1-(4-ethylphenyl)ethyl]-4-ethylbenzene"], "SMILES": "C(C(Cl)Cl)(C1=CC=C(CC)C=C1)C2=CC=C(CC)C=C2", "physical_data": {"Molecular Weight": "307.26", "Molecular Formula": "C18H20Cl2", "Melting Point": "56 \u00b0C"}}