{"cas_no": "72-54-8", "cn_name": "4,4-\u6ef4\u6ef4\u6ef4", "en_name": ["p,p\u2032-DDD", "Benzene, 1,1\u2032-(2,2-dichloroethylidene)bis[4-chloro-", "Ethane, 1,1-dichloro-2,2-bis(p-chlorophenyl)-", "1,1\u2032-(2,2-Dichloroethylidene)bis[4-chlorobenzene]", "ME 1700", "1,1-Bis(p-chlorophenyl)-2,2-dichloroethane", "1,1-Bis(4-chlorophenyl)-2,2-dichloroethane", "DDD", "1,1-Dichloro-2,2-bis(p-chlorophenyl)ethane", "Dichlorodiphenyldichloroethane", "p,p\u2032-Dichlorodiphenyldichloroethane", "Dilene", "Rhothane", "TDE", "2,2-Bis(p-chlorophenyl)-1,1-dichloroethane", "p,p\u2032-TDE", "1,1-Dichloro-2,2-bis(4-chlorophenyl)ethane", "p,p\u2032-DDD", "p,p\u2032-Dichlorodiphenylethylene dichloride", "4,4\u2032-DDD", "2,2-Bis(4-chlorophenyl)-1,1-dichloroethane", "4,4\u2032-TDE", "4,4\u2032-Dichlorodiphenyldichloroethane", "NSC 8941", "2,2-Di(p-chlorophenyl)-1,1-dichloroethane", "4,4\u2032-1,1-Dichloro-2,2-bis(p-chlorophenyl)ethane"], "SMILES": "C(C(Cl)Cl)(C1=CC=C(Cl)C=C1)C2=CC=C(Cl)C=C2", "physical_data": {"Molecular Weight": "320.04", "Molecular Formula": "C14H10Cl4", "Boiling Point": "193 \u00b0C @ Press: 1 Torr", "Melting Point": "109-110 \u00b0C", "Density": "1.385 g/cm\u00b3"}}