{"cas_no": "72-63-9", "cn_name": "\u7f8e\u96c4\u916e", "en_name": ["Methandrostenolone", "Androsta-1,4-dien-3-one, 17-hydroxy-17-methyl-, (17\u03b2)-", "Androsta-1,4-dien-3-one, 17\u03b2-hydroxy-17-methyl-", "(17\u03b2)-17-Hydroxy-17-methylandrosta-1,4-dien-3-one", "Abirol", "Anabolin", "Ciba 17309-Ba", "Compound 17309", "Danabol", "Dehydromethyltestosterone", "1-Dehydro-17\u03b1-methyltestosterone", "1-Dehydromethyltestosterone", "Dianabol", "17\u03b2-Hydroxy-17\u03b1-methylandrosta-1,4-dien-3-one", "MA", "Methandienone", "Methandrostenolone", "17-Methylandrosta-1,4-dien-17\u03b2-ol-3-one", "17\u03b1-Methyl-1-dehydrotestosterone", "17\u03b1-Methyl-17\u03b2-hydroxyandrosta-1,4-dien-3-one", "\u03941-17\u03b1-Methyltestosterone", "Nerobol", "Nerobolettes", "Stenolon", "Methandrolone", "Dianabole", "Metandrostenolone", "1,2-Dehydro-17-methyltestosterone", "Stenolone", "Metanabol", "17\u03b1-Methyl-17\u03b2-hydroxyandrost-1,4-dien-3-one", "17\u03b2-Hydroxy-17-methylandrosta-1,4-dien-3-one", "Metandienonum", "Metandrostenolon", "17\u03b1-Methylandrosta-1,4-dien-17\u03b2-ol-3-one", "Metandienone", "Geabol", "Protobolin", "Metastenol", "Crein", "NSC-42722", "Metandienon", "Naposim", "17\u03b2-Hydroxy-17\u03b1-methyl-1,4-androstadiene-3-one", "Methandon", "1,4-Androstadien-17\u03b1-methyl-17\u03b2-ol-3-one", "Nabolin", "Sterolon", "NSC 51180", "Methylboldenone"], "SMILES": "CC12C3C(C4C(C)(CC3)C(C)(O)CC4)CCC1=CC(=O)C=C2", "physical_data": {"Molecular Weight": "300.44", "Molecular Formula": "C20H28O2", "Melting Point": "163-164 \u00b0C"}}