{"cas_no": "72-69-5", "cn_name": "\u53bb\u7532\u66ff\u6797", "en_name": ["Nortriptyline", "1-Propanamine, 3-(10,11-dihydro-5H-dibenzo[a,d]cyclohepten-5-ylidene)-N-methyl-", "5H-Dibenzo[a,d]cycloheptene-\u03945,\u03b3-propylamine, 10,11-dihydro-N-methyl-", "3-(10,11-Dihydro-5H-dibenzo[a,d]cyclohepten-5-ylidene)-N-methyl-1-propanamine", "Avantyl", "Aventyl", "Demethylamitriptyline", "Desmethylamitriptyline", "10,11-Dihydro-N-methyl-5H-dibenzo[a,d]cycloheptane-\u0394\u03b3propylamine", "5-[3-(Methylamino)propylidene]dibenzo[a,e]cyclohepta[1,5]diene", "5-(3-Methylaminopropylidene)-10,11-dihydro-5H-dibenzo[a,d]cycloheptene", "Noramitriptyline", "Nortriptyline", "10,11-Dihydro-N-methyl-5H-dibenzo[a,d]cycloheptene-\u03945,\u03b3-propylamine", "3-(10,11-Dihydro-5H-dibenzo[a,d]cyclohepten-5-ylidene)-N-methylpropylamine", "10,11-Dihydro-5-(3-methylaminopropylidene)-5H-dibenzo[a,d][1,4]cycloheptene", "Desitriptilina", "Ateben", "Lumbeck", "Sesaval", "NCI 169453", "MeSH ID: D009661"], "SMILES": "C(CCNC)=C1C=2C(CCC=3C1=CC=CC3)=CC=CC2", "physical_data": {"Molecular Weight": "263.38", "Molecular Formula": "C19H21N", "Boiling Point": "150-160 \u00b0C @ Press: 0.03 Torr", "Melting Point": "58 \u00b0C"}}