{"cas_no": "72-80-0", "cn_name": "\u6c2f\u55b9\u90a3\u591a", "en_name": ["Chlorquinaldol", "8-Quinolinol, 5,7-dichloro-2-methyl-", "5,7-Dichloro-2-methyl-8-quinolinol", "Chlorquinaldol", "5,7-Dichloro-8-hydroxyquinaldine", "5,7-Dichloro-2-methyl-8-hydroxyquinoline", "5,7-Dichloro-8-quinaldinol", "Gyno-Sterosan", "Siogene", "Siosteran", "Sterosan", "Steroxin", "Saprosan", "Siogen", "Siogeno", "Siogenon", "Chlorchinaldol", "Afungil", "Siogenal", "Sterozan", "Vagisteran", "Chloquinan", "Siosept", "Florabina", "Chlorguinaldon", "Chlorchinaldin", "Acnosan", "5,7-Dichloro-8-hydroxy-2-methylquinoline", "Hydroxydichloroquinaldinol", "Gynotherax", "Quesil", "5,7-Dichloro-2-styrylquinoline", "MeSH ID: D002750"], "SMILES": "OC=1C2=C(C(Cl)=CC1Cl)C=CC(C)=N2", "physical_data": {"Molecular Weight": "228.07", "Molecular Formula": "C10H7Cl2NO", "Melting Point": "114.5 \u00b0C"}}