{"cas_no": "720-75-2", "cn_name": "\u8054\u82ef-4-\u7532\u9178\u7532\u916f", "en_name": ["[1,1\u2032-Biphenyl]-4-carboxylic acid, methyl ester", "[1,1\u2032-Biphenyl]-4-carboxylic acid, methyl ester", "4-Biphenylcarboxylic acid, methyl ester", "Methyl 4-biphenylcarboxylate", "Methyl p-phenylbenzoate", "Methyl 4-phenylbenzoate", "4-Carbomethoxybiphenyl", "4-Methoxycarbonylbiphenyl", "NSC 16285", "NSC 234749", "Methyl 1,1\u2032-biphenyl-4-carboxylate", "4-(Methoxycarbonyl)-1,1\u2032-biphenyl"], "SMILES": "C(OC)(=O)C1=CC=C(C=C1)C2=CC=CC=C2", "physical_data": {"Molecular Weight": "212.24", "Molecular Formula": "C14H12O2", "Boiling Point": "110-130 \u00b0C @ Press: 3 Torr", "Melting Point": "118 \u00b0C"}}