{"cas_no": "720-44-5", "cn_name": "4-\u7532\u6c27\u57fa\u4e8c\u82ef\u7532\u9187", "en_name": ["4-Methoxybenzhydrol", "Benzenemethanol, 4-methoxy-\u03b1-phenyl-", "Benzyl alcohol, p-methoxy-\u03b1-phenyl-", "Benzhydrol, 4-methoxy-", "4-Methoxy-\u03b1-phenylbenzenemethanol", "4-Methoxybenzhydrol", "p-Methoxy-\u03b1-phenylbenzyl alcohol", "\u03b1-Phenyl-p-anisyl alcohol", "p-Methoxybenzhydrol", "\u03b1-Phenyl-4-methoxybenzenemethanol", "(4-Methoxyphenyl)phenylmethanol", "NSC 5186", "4-Methoxydiphenylmethanol", "\u03b1-(4-Methoxyphenyl)benzyl alcohol"], "SMILES": "C(O)(C1=CC=C(OC)C=C1)C2=CC=CC=C2", "physical_data": {"Molecular Weight": "214.26", "Molecular Formula": "C14H14O2", "Boiling Point": "98 \u00b0C", "Melting Point": "58 \u00b0C"}}