{"cas_no": "720-94-5", "cn_name": "4,4,4-\u4e09\u6c1f-1-(4-\u7532\u82ef\u57fa)-1,3-\u4e01\u4e8c\u916e", "en_name": ["1-(4-Methylphenyl)-4,4,4-trifluorobutane-1,3-dione", "1,3-Butanedione, 4,4,4-trifluoro-1-(4-methylphenyl)-", "1,3-Butanedione, 4,4,4-trifluoro-1-p-tolyl-", "4,4,4-Trifluoro-1-(4-methylphenyl)-1,3-butanedione", "1,1,1-Trifluoro-4-(4-methylphenyl)-2,4-butanedione", "4-(4-Methylphenyl)-1,1,1-trifluorobutane-2,4-dione", "(4-Methylbenzoyl)trifluoroacetone", "1-(4-Methylphenyl)-4,4,4-trifluorobutane-1,3-dione", "4-Methyl-1-(4,4,4-trifluoro-3-oxobutanoyl)benzene", "4,4,4-Trifluoro-1-(p-tolyl)butane-1,3-dione", "4,4,4-Trifluoro-1-(p-tolyl)butan-1,3-dione", "4,4,4-Trifluoro-1-(4-tolyl)-1,3-butanedione"], "SMILES": "C(CC(C(F)(F)F)=O)(=O)C1=CC=C(C)C=C1", "physical_data": {"Molecular Weight": "230.18", "Molecular Formula": "C11H9F3O2", "Melting Point": "44-45 \u00b0C"}}