{"cas_no": "7200-25-1", "cn_name": "DL-\u7cbe\u6c28\u9178", "en_name": ["(\u00b1)-Arginine", "Arginine", "Arginine, DL-", "DL-Arginine", "(\u00b1)-Arginine", "2-Amino-5-(carbamimidamido)pentanoic acid", "2-Amino-5-guanidinopentanoic acid", "2-Amino-5-(diaminomethylideneazaniumyl)pentanoate", "2-Amino-5-[(diaminomethylidene)amino]pentanoic acid"], "SMILES": "C(CCNC(=N)N)C(C(O)=O)N", "physical_data": {"Molecular Weight": "174.20", "Molecular Formula": "C6H14N4O2", "Melting Point": "217 \u00b0C (decomp)"}}