{"cas_no": "7202-43-9", "cn_name": "(R)-2-\u56db\u6c22\u7ce0\u80fa", "en_name": ["(R)-(-)-Tetrahydrofurfurylamine", "2-Furanmethanamine, tetrahydro-, (2R)-", "Furfurylamine, tetrahydro-, (R)-", "2-Furanmethanamine, tetrahydro-, (R)-", "(2R)-Tetrahydro-2-furanmethanamine", "(-)-(R)-Tetrahydrofurfurylamine", "(R)-Tetrahydrofurfurylamine", "(R)-(-)-Tetrahydrofurfurylamine", "(2R)-Tetrahydrofuran-2-methanamine", "[((R)-Tetrahydrofuran-2-yl)methyl]amine", "[[(2R)-Tetrahydro-2-furanyl]methyl]amine", "(R)-1-(Tetrahydrofuran-2-yl)methylamine", "(R)-(Tetrahydrofuran-2-yl)methanamine", "(2R)-2-Aminomethyltetrahydrofuran", "[(R)-1-(Tetrahydro-furan-2-yl)]-methylamine", "(R)-Tetrahydrofuran-2-ylmethylamine", "(R)-1-(Tetrahydrofuran-2-yl)methanamine", "(R)-(-)-Tetrahydrofurfurylamine", "1-[(2R)-Tetrahydrofuran-2-yl]methanamine", "[(2R)-Oxolan-2-yl]methanamine", "(R)-Tetrahydrofurfurylamine", "1-[(2R)-Oxolan-2-yl]methanamine", "2-Furanmethanamine tetrahydro-, (2R)-"], "SMILES": "C(N)C1CCCO1", "physical_data": {"Molecular Weight": "101.15", "Molecular Formula": "C5H11NO", "Boiling Point": "152-153 \u00b0C", "Density": "0.98 g/cm\u00b3"}}