{"cas_no": "7203-96-5", "cn_name": "\u0395-\u786b\u4ee3\u5df1\u5185\u9170\u80fa", "en_name": ["Thiocaprolactam", "2H-Azepine-2-thione, hexahydro-", "Hexahydro-2H-azepine-2-thione", "Thiocaprolactam", "\u03b5-Caprothiolactam", "\u03c9-Thiocaprolactam", "\u03b5-Thiocaprolactam", "1-Aza-2-cycloheptanethione", "Perhydroazepine-2-thione", "NSC 14023", "Azepane-2-thione"], "SMILES": "S=C1CCCCCN1", "physical_data": {"Molecular Weight": "129.22", "Molecular Formula": "C6H11NS", "Boiling Point": "188-190 \u00b0C @ Press: 18 Torr", "Melting Point": "107-110 \u00b0C"}}