{"cas_no": "7204-48-0", "cn_name": "\u53d4\u4e01\u57fa\u786b\u8132", "en_name": ["N-(1,1-Dimethylethyl)thiourea", "Thiourea, N-(1,1-dimethylethyl)-", "Urea, 1-tert-butyl-2-thio-", "Thiourea, (1,1-dimethylethyl)-", "N-(1,1-Dimethylethyl)thiourea", "1-tert-Butylthiourea", "1-tert-Butyl-2-thiourea", "N-tert-Butylthiourea", "tert-Butylthiourea"], "SMILES": "N(C(C)(C)C)C(N)=S", "physical_data": {"Molecular Weight": "132.23", "Molecular Formula": "C5H12N2S", "Melting Point": "171-172 \u00b0C (decomp)"}}