{"cas_no": "72040-64-3", "cn_name": "N-\u751f\u7269\u7d20\u5df1\u9178", "en_name": ["6-[[5-[(3aS,4S,6aR)-Hexahydro-2-oxo-1H-thieno[3,4-d]imidazol-4-yl]-1-oxopentyl]amino]hexanoic acid", "Hexanoic acid, 6-[[5-[(3aS,4S,6aR)-hexahydro-2-oxo-1H-thieno[3,4-d]imidazol-4-yl]-1-oxopentyl]amino]-", "Hexanoic acid, 6-[[5-(hexahydro-2-oxo-1H-thieno[3,4-d]imidazol-4-yl)-1-oxopentyl]amino]-, [3aS-(3a\u03b1,4\u03b2,6a\u03b1)]-", "Hexanoic acid, 6-[5-(tetrahydro-2-oxothieno[3,4-d]imidazolin-4-yl)valeramido]-", "1H-Thieno[3,4-d]imidazole, hexanoic acid deriv.", "6-[[5-[(3aS,4S,6aR)-Hexahydro-2-oxo-1H-thieno[3,4-d]imidazol-4-yl]-1-oxopentyl]amino]hexanoic acid", "6-Biotinamidocaproic acid", "6-[(Biotinyl)amino]hexanoic acid", "Biotin X", "6-(Biotinylamino)caproic acid", "N-Biotinyl-6-aminohexanoic acid"], "SMILES": "C(CCCC(NCCCCCC(O)=O)=O)C1C2C(CS1)NC(=O)N2", "physical_data": {"Molecular Weight": "357.47", "Molecular Formula": "C16H27N3O4S", "Melting Point": "156 \u00b0C"}}