{"cas_no": "7205-91-6", "cn_name": "\u6c2f\u7532\u57fa\u82ef\u786b\u919a", "en_name": ["[(Chloromethyl)thio]benzene", "Benzene, [(chloromethyl)thio]-", "Sulfide, chloromethyl phenyl", "[(Chloromethyl)thio]benzene", "Chloromethyl phenyl sulfide", "(Chloromethylthio)benzene", "(Phenylthio)methyl chloride", "Phenyl chloromethyl sulfide", "Chloromethyl phenyl thioether", "Chloro(phenylthio)methane", "\u03b1-Chlorothioanisole", "NSC 203003"], "SMILES": "S(CCl)C1=CC=CC=C1", "physical_data": {"Molecular Weight": "158.65", "Molecular Formula": "C7H7ClS", "Boiling Point": "98 \u00b0C @ Press: 12 Torr"}}