{"cas_no": "7205-80-3", "cn_name": "\u5bf9\u4e59\u781c\u57fa\u6c2f\u82ef", "en_name": ["1-Chloro-4-(ethylsulfonyl)benzene", "Benzene, 1-chloro-4-(ethylsulfonyl)-", "Sulfone, p-chlorophenyl ethyl", "1-Chloro-4-(ethylsulfonyl)benzene", "p-Chlorophenyl ethyl sulfone", "4-Chlorophenyl ethyl sulfone", "1-Chloro-4-ethanesulfonyl-benzene"], "SMILES": "S(CC)(=O)(=O)C1=CC=C(Cl)C=C1", "physical_data": {"Molecular Weight": "204.67", "Molecular Formula": "C8H9ClO2S", "Boiling Point": "95-97 \u00b0C @ Press: 3 Torr", "Melting Point": "43 \u00b0C", "Density": "1.1688 g/cm\u00b3 @ Temp: 20 \u00b0C"}}