{"cas_no": "7205-98-3", "cn_name": "\u6c2f\u7532\u57fa\u82ef\u781c", "en_name": ["[(Chloromethyl)sulfonyl]benzene", "Benzene, [(chloromethyl)sulfonyl]-", "Sulfone, chloromethyl phenyl", "[(Chloromethyl)sulfonyl]benzene", "Phenyl chloromethyl sulfone", "(Phenylsulfonyl)methyl chloride", "Chloromethyl phenyl sulfone", "NSC 41586", "1-Chloromethylsulfonylbenzene"], "SMILES": "S(CCl)(=O)(=O)C1=CC=CC=C1", "physical_data": {"Molecular Weight": "190.65", "Molecular Formula": "C7H7ClO2S", "Melting Point": "53-55 \u00b0C"}}