{"cas_no": "7205-90-5", "cn_name": "\u5bf9\u6c2f\u82ef\u6c2f\u7532\u57fa\u786b\u919a", "en_name": ["1-Chloro-4-[(chloromethyl)thio]benzene", "Benzene, 1-chloro-4-[(chloromethyl)thio]-", "Sulfide, chloromethyl p-chlorophenyl", "1-Chloro-4-[(chloromethyl)thio]benzene", "Chloromethyl p-chlorophenyl sulfide", "Chloromethyl 4-chlorophenyl sulfide", "(4-Chlorophenyl)thiomethyl chloride", "(p-Chlorophenylthio)methyl chloride", "p-Chlorophenyl chloromethyl sulfide", "1-Chloro-4-[(chloromethyl)sulfanyl]benzene"], "SMILES": "S(CCl)C1=CC=C(Cl)C=C1", "physical_data": {"Molecular Weight": "193.09", "Molecular Formula": "C7H6Cl2S", "Boiling Point": "147.5-148.5 \u00b0C @ Press: 22 Torr", "Melting Point": "19-21.5 \u00b0C"}}