{"cas_no": "72063-39-9", "cn_name": "\u65af\u76ae\u8bfa\u7d20", "en_name": ["Spinosin", "4H-1-Benzopyran-4-one, 6-(2-O-\u03b2-D-glucopyranosyl-\u03b2-D-glucopyranosyl)-5-hydroxy-2-(4-hydroxyphenyl)-7-methoxy-", "6-(2-O-\u03b2-D-Glucopyranosyl-\u03b2-D-glucopyranosyl)-5-hydroxy-2-(4-hydroxyphenyl)-7-methoxy-4H-1-benzopyran-4-one", "Spinosin", "Flavoayamenin", "Swertisin 2\u2032\u2032-O-glucoside"], "SMILES": "O(C)C1=C(C(O)=C2C(=C1)OC(=CC2=O)C3=CC=C(O)C=C3)C4C(OC5OC(CO)C(O)C(O)C5O)C(O)C(O)C(CO)O4", "physical_data": {"Molecular Weight": "608.54", "Molecular Formula": "C28H32O15", "Melting Point": "149 \u00b0C"}}