{"cas_no": "7206-76-0", "cn_name": "2-\u4e59\u57fa-2-\u82ef\u57fa\u4e19\u4e8c\u9170\u80fa", "en_name": ["Phenylethylmalonamide", "Propanediamide, 2-ethyl-2-phenyl-", "Malonamide, 2-ethyl-2-phenyl-", "2-Ethyl-2-phenylpropanediamide", "Ethylphenylmalondiamide", "Phenylethylmalonamide", "2-Ethyl-2-phenylmalondiamide", "Phenylethylmalondiamide", "2-Ethyl-2-phenylmalonamide", "PEMA", "PEMA (amide)", "2-Phenyl-2-ethylmalondiamide"], "SMILES": "C(C(N)=O)(C(N)=O)(CC)C1=CC=CC=C1", "physical_data": {"Molecular Weight": "206.24", "Molecular Formula": "C11H14N2O2", "Melting Point": "121 \u00b0C"}}