{"cas_no": "7207-92-3", "cn_name": "\u4e19\u9178\u8bfa\u9f99", "en_name": ["Nandrolone propionate", "Estr-4-en-3-one, 17-(1-oxopropoxy)-, (17\u03b2)-", "Estr-4-en-3-one, 17\u03b2-hydroxy-, propionate", "(17\u03b2)-17-(1-Oxopropoxy)estr-4-en-3-one", "Nandrolone propionate", "19-Nortestosterone propionate", "Nortestosterone propionate", "Nandrolone 17-propionate", "Anabolicus", "Nor-Anabol", "Nortesto", "Norybol 19", "Pondus", "Testobolin", "Norandrostenolone propionate"], "SMILES": "CC12C(C3C(C4C(CC3)=CC(=O)CC4)CC1)CCC2OC(CC)=O", "physical_data": {"Molecular Weight": "330.46", "Molecular Formula": "C21H30O3", "Melting Point": "55-60 \u00b0C"}}