{"cas_no": "7208-47-1", "cn_name": "\u5c71\u68a8\u9187\u516d\u4e59\u9178\u916f", "en_name": ["Sorbitol hexaacetate", "D-Glucitol, 1,2,3,4,5,6-hexaacetate", "Glucitol, hexaacetate, D-", "D-Glucitol, hexaacetate", "Sorbitol hexaacetate", "Hexa-O-acetylglucitol", "Sorbityl hexaacetate", "L-Gulitol hexaacetate", "1,2,3,4,5,6-Hexa-O-acetyl-D-glucitol", "Pagosten 3", "NSC 170204"], "SMILES": "C(C(C(COC(C)=O)OC(C)=O)OC(C)=O)(C(COC(C)=O)OC(C)=O)OC(C)=O", "physical_data": {"Molecular Weight": "434.39", "Molecular Formula": "C18H26O12", "Melting Point": "98-99 \u00b0C"}}