{"cas_no": "7208-05-1", "cn_name": "2,4-\u4e8c\u7532\u57fa\u6076\u5511", "en_name": ["2,4-Dimethyloxazole", "Oxazole, 2,4-dimethyl-", "2,4-Dimethyloxazole", "2,4-Dimethyl-1,3-oxazole"], "SMILES": "CC=1N=C(C)OC1", "physical_data": {"Molecular Weight": "97.12", "Molecular Formula": "C5H7NO", "Boiling Point": "108 \u00b0C", "Density": "0.9757 g/cm\u00b3 @ Temp: 20 \u00b0C"}}