{"cas_no": "72093-04-0", "cn_name": "3-\u6c2f-4-\u7532\u57fa\u5421\u5576", "en_name": ["3-Chloro-4-methylpyridine", "Pyridine, 3-chloro-4-methyl-", "4-Picoline, 3-chloro-", "3-Chloro-4-methylpyridine", "3-Chloro-4-picoline"], "SMILES": "CC=1C(Cl)=CN=CC1", "physical_data": {"Molecular Weight": "127.57", "Molecular Formula": "C6H6ClN", "Boiling Point": "178 \u00b0C"}}