{"cas_no": "7209-38-3", "cn_name": "1,4-\u53cc(3-\u6c28\u57fa\u4e19\u57fa)\u54cc\u55ea", "en_name": ["1,4-Bis(3\u2032-aminopropyl)piperazine", "1,4-Piperazinedipropanamine", "Piperazine, 1,4-bis(3-aminopropyl)-", "N,N\u2032-Bis(\u03b3-aminopropyl)piperazine", "N,N\u2032-Bis(3-aminopropyl)piperazine", "1,4-Piperazinebis(propylamine)", "1,4-Bis(3-aminopropyl)piperazine", "1,4-Piperazinedipropylamine", "1,4-Bis(3\u2032-aminopropyl)piperazine", "1,4-(3-Aminopropyl)piperazine", "[3-[4-(3-Aminopropyl)piperazin-1-yl]propyl]amine", "N,N\u2032-Bis(N-aminopropyl)piperazine", "Bis(3-aminopropyl)piperazine"], "SMILES": "C(CCN)N1CCN(CCCN)CC1", "physical_data": {"Molecular Weight": "200.32", "Molecular Formula": "C10H24N4", "Boiling Point": "150-152 \u00b0C", "Melting Point": "15 \u00b0C"}}