{"cas_no": "721-66-4", "cn_name": "\u7518\u6c28\u9178-DL-\u82ef\u4e19\u6c28\u9178", "en_name": ["Glycylphenylalanine", "Phenylalanine, glycyl-", "Alanine, N-glycyl-3-phenyl-, DL-", "Phenylalanine, N-glycyl-", "Glycylphenylalanine", "Glycyl-DL-phenylalanine", "NSC 122028", "2-((2-Aminoacetyl)amino)-3-phenylpropanoic acid", "2-(2-Aminoacetamido)-3-phenylpropanoic acid"], "SMILES": "C(CC1=CC=CC=C1)(NC(CN)=O)C(O)=O", "physical_data": {"Molecular Weight": "222.24", "Molecular Formula": "C11H14N2O3", "Melting Point": "260 \u00b0C (decomp)"}}