{"cas_no": "721-04-0", "cn_name": "2'-\u82ef\u6c27\u57fa\u82ef\u4e59\u916e", "en_name": ["2-Phenoxy-1-phenylethanone", "Ethanone, 2-phenoxy-1-phenyl-", "Acetophenone, 2-phenoxy-", "2-Phenoxy-1-phenylethanone", "\u03b1-Phenoxyacetophenone", "\u03c9-Phenoxyacetophenone", "2-Phenoxyacetophenone", "Phenyl phenacyl ether", "NSC 7586", "2-Phenoxy-1-phenyl-1-ethanone"], "SMILES": "C(COC1=CC=CC=C1)(=O)C2=CC=CC=C2", "physical_data": {"Molecular Weight": "212.24", "Molecular Formula": "C14H12O2", "Boiling Point": "187 \u00b0C @ Press: 8 Torr", "Melting Point": "74 \u00b0C"}}