{"cas_no": "721-90-4", "cn_name": "L-\u82ef\u4e19\u6c28\u9170-\u7518\u6c28\u9178", "en_name": ["Phenylalanylglycine", "Glycine, L-phenylalanyl-", "Glycine, N-(3-phenyl-L-alanyl)-", "Glycine, N-L-phenylalanyl-", "L-Phenylalanylglycine", "Phenylalanylglycine", "NSC 89182", "10: PN: WO2014063098 TABLE: 5 claimed protein", "105: PN: US20130123467 SEQID: 128 claimed protein", "3: PN: RU2506269 PAGE: 14 claimed sequence", "28: PN: WO2016049036 SEQID: 69 claimed protein", "2-[[(2S)-2-Amino-3-phenylpropanoyl]amino]acetic acid", "2-[(2S)-2-Amino-3-phenylpropanamido]acetic acid"], "SMILES": "C(C(C(NCC(O)=O)=O)N)C1=CC=CC=C1", "physical_data": {"Molecular Weight": "222.24", "Molecular Formula": "C11H14N2O3", "Melting Point": "224 \u00b0C"}}