{"cas_no": "721-50-6", "cn_name": "\u4e19\u80fa\u5361\u56e0", "en_name": ["Prilocaine", "Propanamide, N-(2-methylphenyl)-2-(propylamino)-", "o-Propionotoluidide, 2-(propylamino)-", "N-(2-Methylphenyl)-2-(propylamino)propanamide", "Astra 1512", "Citanest", "o-Methyl-2-propylaminopropionanilide", "2-Methyl-\u03b1-propylaminopropionanilide", "Prilocaine", "Propitocaine", "Astra 1515", "(\u00b1)-N-(2-Propylaminopropionyl)-2-toluidine", "DL-(\u00b1)-Prilocaine", "(\u00b1)-Prilocaine", "NSC 40027", "2-Propylamino-N-o-tolyl-propionamide", "2-(Propylamino)-N-(o-tolyl)propanamide", "MeSH ID: D011318"], "SMILES": "N(C(C(NCCC)C)=O)C1=C(C)C=CC=C1", "physical_data": {"Molecular Weight": "220.31", "Molecular Formula": "C13H20N2O", "Boiling Point": "159-162 \u00b0C @ Press: 1 Torr", "Melting Point": "37-38 \u00b0C"}}