{"cas_no": "7210-77-7", "cn_name": "2\uff0c4-\u4e8c\u7532\u57fa\u567b\u5511-5-\u7fa7\u9178\u4e59\u916f", "en_name": ["Ethyl 2,4-dimethyl-5-thiazolecarboxylate", "5-Thiazolecarboxylic acid, 2,4-dimethyl-, ethyl ester", "Ethyl 2,4-dimethyl-5-thiazolecarboxylate", "2,4-Dimethyl-thiazole-5-carboxylic acid ethyl ester"], "SMILES": "C(OCC)(=O)C1=C(C)N=C(C)S1", "physical_data": {"Molecular Weight": "185.24", "Molecular Formula": "C8H11NO2S", "Melting Point": "50-51 \u00b0C"}}