{"cas_no": "7211-39-4", "cn_name": "\u4e8c\u7532\u57fa\u6c27\u5316\u81a6", "en_name": ["Phosphine oxide, dimethyl-", "Phosphine oxide, dimethyl-", "Dimethylphosphine oxide", "Dimethylphosphinous acid"], "SMILES": "P(C)(C)=O", "physical_data": {"Molecular Weight": "78.05", "Molecular Formula": "C2H7OP", "Boiling Point": "65-67 \u00b0C @ Press: 6 Torr"}}