{"cas_no": "7211-54-3", "cn_name": "3-\u6c28\u57fa\u4e19\u786b\u9187\u76d0\u9178\u76d0", "en_name": ["1-Propanethiol, 3-amino-, hydrochloride", "1-Propanethiol, 3-amino-, hydrochloride", "3-Mercaptopropylamine hydrochloride", "Homocysteamine hydrochloride", "3-Aminopropanethiol hydrochloride", "3-Amino-1-propanethiol hydrochloride"], "SMILES": "C(CN)CS.Cl", "physical_data": {"Molecular Weight": "", "Molecular Formula": "C3H9NS.ClH", "Melting Point": "79-80 \u00b0C"}}