{"cas_no": "72120-71-9", "cn_name": "H-3-ALA(3-\u82ef\u5e76\u567b\u5429)-OH", "en_name": ["(\u03b1S)-\u03b1-Aminobenzo[b]thiophene-3-propanoic acid", "Benzo[b]thiophene-3-propanoic acid, \u03b1-amino-, (\u03b1S)-", "Benzo[b]thiophene-3-propanoic acid, \u03b1-amino-, (S)-", "(\u03b1S)-\u03b1-Aminobenzo[b]thiophene-3-propanoic acid", "L-Thiotryptophan", "(-)-2-Amino(benzo[b]thiophen-3-yl)propionic acid", "(2S)-2-Amino-3-(1-benzothiophen-3-yl)propanoic acid"], "SMILES": "C(C(C(O)=O)N)C=1C=2C(SC1)=CC=CC2", "physical_data": {"Molecular Weight": "221.28", "Molecular Formula": "C11H11NO2S", "Melting Point": "248-250 \u00b0C (decomp)"}}