{"cas_no": "7212-44-4", "cn_name": "\u6a59\u82b1\u53d4\u9187", "en_name": ["Nerolidol", "1,6,10-Dodecatrien-3-ol, 3,7,11-trimethyl-", "Nerolidol", "3,7,11-Trimethyl-1,6,10-dodecatrien-3-ol", "FCI 119b", "(\u00b1)-Nerolidol", "Nerodilol"], "SMILES": "C(CCC(C=C)(C)O)=C(CCC=C(C)C)C", "physical_data": {"Molecular Weight": "222.37", "Molecular Formula": "C15H26O", "Boiling Point": "75-76 \u00b0C @ Press: 0.1 Torr", "Melting Point": "&lt;25 \u00b0C", "Density": "0.8739 g/cm\u00b3 @ Temp: 22 \u00b0C"}}