{"cas_no": "72135-36-5", "cn_name": "2-\u7532\u6c27\u57fa-4-\u6eb4\u82ef\u7532\u9178", "en_name": ["4-Bromo-2-methoxybenzoic acid", "Benzoic acid, 4-bromo-2-methoxy-", "4-Bromo-2-methoxybenzoic acid", "2-Methoxy-4-bromobenzoic acid", "Methyl 4-bromosalicylate"], "SMILES": "O(C)C1=C(C(O)=O)C=CC(Br)=C1", "physical_data": {"Molecular Weight": "231.04", "Molecular Formula": "C8H7BrO3", "Melting Point": "155 \u00b0C"}}