{"cas_no": "72156-70-8", "cn_name": "\u5bf9\u4e59\u9170\u6c28\u57fa\u82ef\u7532\u919a(\u7532\u6c27\u57fa-13C)", "en_name": ["N-[4-(Methoxy-13C)phenyl]acetamide", "Acetamide, N-[4-(methoxy-13C)phenyl]-", "N-[4-(Methoxy-13C)phenyl]acetamide"], "SMILES": "N(C(C)=O)C1=CC=C(O[13CH3])C=C1", "physical_data": {"Molecular Weight": "", "Molecular Formula": "C9H11NO2", "Melting Point": "127-129 \u00b0C"}}