{"cas_no": "7216-69-5", "cn_name": "\u7532\u57fa 4-O-BETA-D-\u534a\u4e73\u7cd6\u57fa-BETA-D-\u5421\u5583\u8461\u8404\u7cd6\u82f7", "en_name": ["Methyl \u03b2-lactoside", "\u03b2-D-Glucopyranoside, methyl 4-O-\u03b2-D-galactopyranosyl-", "Glucopyranoside, methyl 4-O-\u03b2-D-galactopyranosyl-, \u03b2-D-", "Lactoside, methyl", "Methyl 4-O-\u03b2-D-galactopyranosyl-\u03b2-D-glucopyranoside", "Methyl \u03b2-lactoside", "Methyl \u03b2-D-lactopyranoside"], "SMILES": "O(C1C(CO)OC(OC)C(O)C1O)C2OC(CO)C(O)C(O)C2O", "physical_data": {"Molecular Weight": "356.32", "Molecular Formula": "C13H24O11", "Melting Point": "205 \u00b0C"}}