{"cas_no": "7216-42-4", "cn_name": "4-\u5421\u5576\u919b N-\u6c27\u5316\u7269", "en_name": ["4-Pyridinecarboxaldehyde, 1-oxide", "4-Pyridinecarboxaldehyde, 1-oxide", "Isonicotinaldehyde, 1-oxide", "4-Pyridinecarboxaldehyde N-oxide", "4-Formylpyridine N-oxide", "1-Oxy-4-pyridinecarboxaldehyde", "Pyridine-4-aldehyde N-oxide", "N-Oxopyridine-4-carboxaldehyde"], "SMILES": "C(=O)C=1C=CN(=O)=CC1", "physical_data": {"Molecular Weight": "123.11", "Molecular Formula": "C6H5NO2", "Melting Point": "148-150 \u00b0C"}}