{"cas_no": "7216-18-4", "cn_name": "3,4-\u4e8c\u6c22-2H-1,5-\u82ef\u5e76\u4e8c\u6c27\u6742\u73af\u5e9a\u70f7", "en_name": ["3,4-Dihydro-2H-1,5-benzodioxepin", "2H-1,5-Benzodioxepin, 3,4-dihydro-", "3,4-Dihydro-2H-1,5-benzodioxepin", "Pyrocatechol trimethylene ether", "1,2-Trimethylenedioxybenzene", "3,4-Dihydro-2H-benzo[b][1,4]dioxepine", "3,4-Dihydro-2H-1,5-benzodioxepine"], "SMILES": "C=12C(=CC=CC1)OCCCO2", "physical_data": {"Molecular Weight": "150.17", "Molecular Formula": "C9H10O2", "Boiling Point": "110-114 \u00b0C @ Press: 18 Torr", "Melting Point": "14-15 \u00b0C"}}