{"cas_no": "72178-02-0", "cn_name": "\u6c1f\u78fa\u80fa\u8349\u919a", "en_name": ["Fomesafen", "Benzamide, 5-[2-chloro-4-(trifluoromethyl)phenoxy]-N-(methylsulfonyl)-2-nitro-", "5-[2-Chloro-4-(trifluoromethyl)phenoxy]-N-(methylsulfonyl)-2-nitrobenzamide", "Fomesafen", "Flex", "N-Methanesulfonyl-5-[(2-chloro-\u03b1,\u03b1,\u03b1-trifluoro-4-tolyl)oxy]-2-nitrobenzamide", "Reflex", "Flexstar", "PP021", "Reflex (herbicide)"], "SMILES": "C(NS(C)(=O)=O)(=O)C1=C(N(=O)=O)C=CC(OC2=C(Cl)C=C(C(F)(F)F)C=C2)=C1", "physical_data": {"Molecular Weight": "438.76", "Molecular Formula": "C15H10ClF3N2O6S", "Melting Point": "220-221 \u00b0C", "Density": "1.28 g/cm\u00b3 @ Temp: 20 \u00b0C"}}