{"cas_no": "7217-59-6", "cn_name": "2-\u7532\u6c27\u57fa\u82ef\u786b\u915a", "en_name": ["2-Methoxybenzenethiol", "Benzenethiol, 2-methoxy-", "Benzenethiol, o-methoxy-", "2-Methoxybenzenethiol", "o-Methoxybenzenethiol", "2-Methoxythiophenol", "2-Mercaptoanisole", "o-Methoxythiophenol", "2-(Methoxy)benzothiol", "2-Methoxyphenylthiol", "2-Methoxybenzene-1-thiol"], "SMILES": "O(C)C1=C(S)C=CC=C1", "physical_data": {"Molecular Weight": "140.20", "Molecular Formula": "C7H8OS", "Boiling Point": "99 \u00b0C @ Press: 8 Torr", "Melting Point": "306.7-313.7 \u00b0C (decomp)"}}