{"cas_no": "7218-43-1", "cn_name": "\u4e19\u7094\u57fa-\u4e8c\u805a\u4e59\u4e8c\u9187", "en_name": ["2-[2-(2-Propyn-1-yloxy)ethoxy]ethanol", "Ethanol, 2-[2-(2-propyn-1-yloxy)ethoxy]-", "Ethanol, 2-[2-(2-propynyloxy)ethoxy]-", "2-[2-(2-Propyn-1-yloxy)ethoxy]ethanol", "Diethylene glycol monopropargyl ether", "3,6-Dioxa-8-nonyn-1-ol", "SR3-062", "2-(2-(Prop-2-ynyloxy)ethoxy)ethanol", "2-(2-Prop-2-ynoxyethoxy)ethanol", "Diethylene glycol propargyl ether"], "SMILES": "C(COCCO)OCC#C", "physical_data": {"Molecular Weight": "144.17", "Molecular Formula": "C7H12O3", "Boiling Point": "76-77 \u00b0C @ Press: 12 Torr", "Density": "1.0583 g/cm\u00b3 @ Temp: 20 \u00b0C"}}