{"cas_no": "722-27-0", "cn_name": "4,4'-\u4e8c\u786b\u4ee3\u4e8c\u82ef\u80fa", "en_name": ["4-Aminophenyl disulfide", "Benzenamine, 4,4\u2032-dithiobis-", "Aniline, 4,4\u2032-dithiodi-", "Aniline, p,p\u2032-dithiobis-", "4,4\u2032-Dithiobis[benzenamine]", "Bis(4-aminophenyl) disulfide", "4,4\u2032-Dithiodianiline", "Bis(p-aminophenyl) disulfide", "Bis(p-aniline)disulfide", "4,4\u2032-Dithiobisaniline", "p,p\u2032-Diaminodiphenyl disulfide", "4,4\u2032-Diaminodiphenyl disulfide", "p,p\u2032-Dithiobisaniline", "4,4\u2032-Diaminophenyl disulfide", "Dithiobis[4-aminobenzene]", "VTI 8", "4-Aminophenyl disulfide", "p-Aminophenyl disulfide", "NSC 62984", "NSC 677451", "Di(4-aminophenyl) disulfide", "4,4\u2032-Disulfanediyldianiline", "DTDA"], "SMILES": "S(SC1=CC=C(N)C=C1)C2=CC=C(N)C=C2", "physical_data": {"Molecular Weight": "248.37", "Molecular Formula": "C12H12N2S2", "Melting Point": "76-77 \u00b0C"}}