{"cas_no": "7220-81-7", "cn_name": "\u9ec4\u66f2\u9709\u6bd2\u7d20 B2", "en_name": ["Aflatoxin B2", "Cyclopenta[c]furo[3\u2032,2\u2032:4,5]furo[2,3-h][1]benzopyran-1,11-dione, 2,3,6a,8,9,9a-hexahydro-4-methoxy-, (6aR,9aS)-", "Aflatoxin B2", "Cyclopenta[c]furo[3\u2032,2\u2032:4,5]furo[2,3-h][1]benzopyran-1,11-dione, 2,3,6a\u03b1,8,9,9a\u03b1-hexahydro-4-methoxy-", "Cyclopenta[c]furo[3\u2032,2\u2032:4,5]furo[2,3-h][1]benzopyran-1,11-dione, 2,3,6a,8,9,9a-hexahydro-4-methoxy-, (6aR-cis)-", "(6aR,9aS)-2,3,6a,8,9,9a-Hexahydro-4-methoxycyclopenta[c]furo[3\u2032,2\u2032:4,5]furo[2,3-h][1]benzopyran-1,11-dione", "Dihydroaflatoxin B1", "Dihydroaflatoxine B1"], "SMILES": "O(C)C=1C2=C(C=3C4C(OC3C1)OCC4)OC(=O)C5=C2CCC5=O", "physical_data": {"Molecular Weight": "314.29", "Molecular Formula": "C17H14O6", "Melting Point": "286-289 \u00b0C"}}