{"cas_no": "72207-94-4", "cn_name": "2-\u4e59\u6c27\u57fa-4-\u7532\u9178\u57fa-\u82ef\u57fa \u4e59\u916f", "en_name": ["4-Acetoxy-3-ethoxybenzaldehyde", "Benzaldehyde, 4-(acetyloxy)-3-ethoxy-", "Benzaldehyde, 3-ethoxy-4-hydroxy-, acetate", "4-(Acetyloxy)-3-ethoxybenzaldehyde", "4-Acetoxy-3-ethoxybenzaldehyde", "Ethylvanillin acetate", "(2-Ethoxy-4-formylphenyl) acetate"], "SMILES": "O(CC)C1=C(OC(C)=O)C=CC(C=O)=C1", "physical_data": {"Molecular Weight": "208.21", "Molecular Formula": "C11H12O4", "Melting Point": "48-49 \u00b0C"}}