{"cas_no": "7223-38-3", "cn_name": "1-\u4e8c\u7532\u57fa\u80fa-2-\u4e19\u7094", "en_name": ["N,N-Dimethylpropargylamine", "2-Propyn-1-amine, N,N-dimethyl-", "2-Propynylamine, N,N-dimethyl-", "N,N-Dimethyl-2-propyn-1-amine", "3-(Dimethylamino)-1-propyne", "N,N-Dimethylpropargylamine", "N,N-Dimethyl-2-propynylamine", "3-(Dimethylamino)propyne", "3-(N,N-Dimethylamino)propyne", "Propargyldimethylamine", "3-(N,N-Dimethylamino)-1-propyne", "1-Dimethylaminoprop-2-yne", "N,N-Dimethyl-2-propynamine", "N,N-Dimethyl-N-(2-propynyl)amine", "Dimethyl-prop-2-ynylamine", "N-Propargyldimethylamine", "Dimethyl(2-propyn-1-yl)amine"], "SMILES": "C(N(C)C)C#C", "physical_data": {"Molecular Weight": "83.13", "Molecular Formula": "C5H9N", "Boiling Point": "82 \u00b0C", "Density": "0.7792 g/cm\u00b3 @ Temp: 420 \u00b0C"}}