{"cas_no": "7223-50-9", "cn_name": "N-\u4e19\u7094\u57fa\u90bb\u82ef\u4e8c\u7532\u9178\u80fa", "en_name": ["2-(2-Propyn-1-yl)-1H-isoindole-1,3(2H)-dione", "1H-Isoindole-1,3(2H)-dione, 2-(2-propyn-1-yl)-", "Phthalimide, N-2-propynyl-", "1H-Isoindole-1,3(2H)-dione, 2-(2-propynyl)-", "2-(2-Propyn-1-yl)-1H-isoindole-1,3(2H)-dione", "N-Propargylphthalimide", "N-2-Propynylphthalimide", "1-(N-Phthalimido)-2-propyne", "NSC 404555", "NSC 45254", "(Phthalimidomethyl)acetylene", "2-(2-Propynyl)-1H-isoindole-1,3(2H)-dione", "2-(Prop-2-ynyl)isoindole-1,3-dione", "2-(Prop-2-yn-1-yl)isoindoline-1,3-dione", "2-(Prop-2-yn-1-yl)-2,3-dihydro-1H-isoindole-1,3-dione", "2-(Prop-2-ynyl)isoindoline-1,3-dione"], "SMILES": "O=C1C=2C(C(=O)N1CC#C)=CC=CC2", "physical_data": {"Molecular Weight": "185.18", "Molecular Formula": "C11H7NO2", "Melting Point": "147 \u00b0C"}}