{"cas_no": "72235-52-0", "cn_name": "2,4-\u4e8c\u6c1f\u82c4\u80fa", "en_name": ["2,4-Difluorobenzylamine", "Benzenemethanamine, 2,4-difluoro-", "2,4-Difluorobenzenemethanamine", "2,4-Difluorobenzylamine", "[(2,4-Difluorophenyl)methyl]amine", "(2,4-Difluorophenyl)methanamine", "1-(2,4-Difluorophenyl)methanamine"], "SMILES": "C(N)C1=C(F)C=C(F)C=C1", "physical_data": {"Molecular Weight": "143.13", "Molecular Formula": "C7H7F2N", "Melting Point": "255-256 \u00b0C"}}