{"cas_no": "7226-23-5", "cn_name": "N,N-\u4e8c\u7532\u57fa\u4e19\u70ef\u57fa\u8132", "en_name": ["1,3-Dimethyl-3,4,5,6-tetrahydro-2(1H)-pyrimidinone", "2(1H)-Pyrimidinone, tetrahydro-1,3-dimethyl-", "Tetrahydro-1,3-dimethyl-2(1H)-pyrimidinone", "N,N\u2032-Dimethyltrimethyleneurea", "1,3-Dimethylpropyleneurea", "N,N\u2032-Dimethyl-N,N\u2032-propyleneurea", "1,3-Dimethyl-3,4,5,6-tetrahydro-2(1H)-pyrimidinone", "DMPU", "N,N\u2032-Dimethyl-3,4,5,6-tetrahydro-2(1H)-pyrimidinone", "DMPU (solvent)", "1,3-Dimethyl-3,4,5,6-tetrahydro-2-pyrimidinone", "1,3-Dimethyl-2-oxohexahydropyrimidine", "1,3-Dimethyl-3,4,5,6-tetrahydro-2(1H)-pyrimidone", "N,N\u2032-Dimethyl-1,3-propanediamine cyclic urea", "1,3-Dimethyl-1,3-diazinan-2-one", "N,N-Dimethylpropylene urea", "1,3-Dimethyltetrahydropyrimidin-2(1H)-one"], "SMILES": "O=C1N(C)CCCN1C", "physical_data": {"Molecular Weight": "128.17", "Molecular Formula": "C6H12N2O", "Boiling Point": "140 \u00b0C @ Press: 44 Torr"}}