{"cas_no": "7228-38-8", "cn_name": "5-\u6c2f-1,3-\u82ef\u5e76\u4e8c\u6076\u5511", "en_name": ["5-Chloro-1,3-benzodioxole", "1,3-Benzodioxole, 5-chloro-", "Benzene, 4-chloro-1,2-(methylenedioxy)-", "5-Chloro-1,3-benzodioxole", "1-Chloro-3,4-methylenedioxybenzene", "NSC 400867", "4-Chloro-1,2-methylenedioxybenzene", "6-Chloro-1,3-benzodioxole", "5-Chlorobenzo[d][1,3]dioxole", "3,4-Methylenedioxyphenyl chloride"], "SMILES": "ClC=1C=C2C(=CC1)OCO2", "physical_data": {"Molecular Weight": "156.57", "Molecular Formula": "C7H5ClO2", "Boiling Point": "65-69 \u00b0C"}}