{"cas_no": "7228-47-9", "cn_name": "2-\u8418\u4e59\u9187", "en_name": ["1-(2-Naphthyl)ethanol", "2-Naphthalenemethanol, \u03b1-methyl-", "\u03b1-Methyl-2-naphthalenemethanol", "2-(1-Hydroxyethyl)naphthalene", "1-\u03b2-Naphthylethanol", "1-(2-Naphthyl)-1-ethanol", "Methyl 2-naphthyl carbinol", "1-(2-Naphthyl)ethanol", "(\u00b1)-\u03b1-Methyl-2-naphthalenemethanol", "(\u00b1)-1-(2-Naphthyl)ethanol", "1-(2-Naphthalenyl)ethanol", "NSC 92277", "1-(Naphthalen-2-yl)ethanol", "1-(Naphthalen-2-yl)ethan-1-ol"], "SMILES": "C(C)(O)C1=CC2=C(C=C1)C=CC=C2", "physical_data": {"Molecular Weight": "172.22", "Molecular Formula": "C12H12O", "Boiling Point": "145 \u00b0C @ Press: 8 Torr", "Melting Point": "72 \u00b0C"}}