{"cas_no": "72291-30-6", "cn_name": "2-\u6c30\u57fa-2-\u7532\u57fa\u4e19\u9178\u7532\u916f", "en_name": ["Propanoic acid, 2-cyano-2-methyl-, methyl ester", "Propanoic acid, 2-cyano-2-methyl-, methyl ester", "Propionic acid, 2-cyano-2-methyl-, methyl ester", "Methyl 2,2-dimethylcyanoacetate", "2,2-Dimethyl-2-cyanoacetic acid methyl ester", "2-Cyano-2,2-dimethylacetic acid methyl ester", "Methyl 2-cyano-2-methylpropanoate", "Methyl 2-cyano-2,2-dimethylacetate"], "SMILES": "C(C(OC)=O)(C#N)(C)C", "physical_data": {"Molecular Weight": "127.14", "Molecular Formula": "C6H9NO2", "Boiling Point": "70-72 \u00b0C @ Press: 17 Torr"}}