{"cas_no": "723-46-6", "cn_name": "\u78fa\u80fa\u7532\u6076\u5511", "en_name": ["Sulfamethoxazole", "Benzenesulfonamide, 4-amino-N-(5-methyl-3-isoxazolyl)-", "Sulfanilamide, N1-(5-methyl-3-isoxazolyl)-", "4-Amino-N-(5-methyl-3-isoxazolyl)benzenesulfonamide", "MS 53", "Ro 4-2130", "Gantanol", "N1-(5-Methyl-3-isoxazolyl)sulfanilamide", "5-Methyl-3-sulfanilamidoisoxazole", "Sinomin", "Sulfamethalazole", "Sulfamethoxazole", "3-Sulfanilamido-5-methylisoxazole", "Sulfisomezole", "Sulphamethoxazole", "Radonil", "Sulfamethoxazol", "4-Amino-N-(5-methyl-3-isoxazolyl)benzensulfonamide", "NSC 147832", "STX 608", "3-(p-Aminobenzenesulfonamido)-5-methylisoxazole", "N-(5-Methylisoxazol-3-yl)-4-aminobenzenesulfonamide", "MeSH ID: D013420"], "SMILES": "S(NC=1C=C(C)ON1)(=O)(=O)C2=CC=C(N)C=C2", "physical_data": {"Molecular Weight": "253.28", "Molecular Formula": "C10H11N3O3S", "Melting Point": "167 \u00b0C", "Density": "1.4895 g/cm\u00b3"}}