{"cas_no": "723-89-7", "cn_name": "1-\u82ef\u57fa\u975b\u7ea2", "en_name": ["1-Phenylisatin", "1H-Indole-2,3-dione, 1-phenyl-", "Indole-2,3-dione, 1-phenyl-", "Isatin, 1-phenyl-", "1-Phenyl-1H-indole-2,3-dione", "1-Phenylisatin", "N-Phenylisatin", "NSC 100013", "1-Phenyl-2,3-indolinedione", "1-Phenylindole-2,3-dione", "1-Phenyl-2,3-dihydro-1H-indole-2,3-dione"], "SMILES": "O=C1N(C=2C(C1=O)=CC=CC2)C3=CC=CC=C3", "physical_data": {"Molecular Weight": "223.23", "Molecular Formula": "C14H9NO2", "Melting Point": "138 \u00b0C"}}