{"cas_no": "723-62-6", "cn_name": "9-\u84bd\u7532\u9178", "en_name": ["9-Anthracenecarboxylic acid", "9-Anthracenecarboxylic acid", "9-Anthroic acid", "9-Carboxyanthracene", "9-Anthracenylcarboxylic acid", "NSC 151909", "9-Anthraceneformic acid"], "SMILES": "C(O)(=O)C=1C2=C(C=C3C1C=CC=C3)C=CC=C2", "physical_data": {"Molecular Weight": "222.24", "Molecular Formula": "C15H10O2", "Melting Point": "217 \u00b0C (decomp)"}}