{"cas_no": "72300-69-7", "cn_name": "(R)-2-(\u6c28\u7532\u57fa)\u5421\u54af\u70f7", "en_name": ["(2R)-2-Pyrrolidinemethanamine", "2-Pyrrolidinemethanamine, (2R)-", "2-Pyrrolidinemethanamine, (R)-", "(2R)-2-Pyrrolidinemethanamine", "(R)-2-(Aminomethyl)pyrrolidine", "(R)-2-Pyrrolidinemethanamine", "[(2R)-2-Pyrrolidinylmethyl]amine", "(R)-Pyrrolidin-2-ylmethanamine", "[((2R)-2-Pyrrolidinyl)methyl]amine", "(R)-2-Aminomethylpyrrolidine", "[(2R)-Pyrrolidin-2-yl]methanamine", "1-[(2R)-2-Pyrrolidinyl]methanamine"], "SMILES": "C(N)C1CCCN1", "physical_data": {"Molecular Weight": "100.16", "Molecular Formula": "C5H12N2", "Boiling Point": "79-85 \u00b0C @ Press: 20 Torr"}}