{"cas_no": "72324-18-6", "cn_name": "\u53f8\u66ff\u7f57\u5b81", "en_name": ["Stepronin", "Glycine, N-[1-oxo-2-[(2-thienylcarbonyl)thio]propyl]-", "N-[1-Oxo-2-[(2-thienylcarbonyl)thio]propyl]glycine", "Prostenoglycine", "Stepronin", "Tiase", "Bronco-plus", "TTPG"], "SMILES": "C(SC(C(NCC(O)=O)=O)C)(=O)C1=CC=CS1", "physical_data": {"Molecular Weight": "273.33", "Molecular Formula": "C10H11NO4S2", "Melting Point": "168-170 \u00b0C"}}