{"cas_no": "723284-79-5", "cn_name": "(S)-3-\u6c28\u57fa-3-(3-\u6c1f\u82ef\u57fa)\u4e19\u9178", "en_name": ["(\u03b2S)-\u03b2-Amino-3-fluorobenzenepropanoic acid", "Benzenepropanoic acid, \u03b2-amino-3-fluoro-, (\u03b2S)-", "(\u03b2S)-\u03b2-Amino-3-fluorobenzenepropanoic acid", "(S)-3-Amino-3-(3-fluorophenyl)propanoicacid", "(S)-3-Amino-3-(3-fluoro-phenyl)-propionic acid", "(3S)-3-Amino-3-(3-fluorophenyl)propanoic acid"], "SMILES": "C(CC(O)=O)(N)C1=CC(F)=CC=C1", "physical_data": {"Molecular Weight": "183.18", "Molecular Formula": "C9H10FNO2", "Melting Point": "226-229 \u00b0C"}}