{"cas_no": "723281-72-9", "cn_name": "6-\u6eb4-4-\u6c2f-3-\u785d\u57fa\u55b9\u5549", "en_name": ["6-Bromo-4-chloro-3-nitroquinoline", "Quinoline, 6-bromo-4-chloro-3-nitro-", "6-Bromo-4-chloro-3-nitroquinoline"], "SMILES": "ClC=1C2=C(N=CC1N(=O)=O)C=CC(Br)=C2", "physical_data": {"Molecular Weight": "287.50", "Molecular Formula": "C9H4BrClN2O2", "Melting Point": "134-135 \u00b0C"}}