{"cas_no": "7232-21-5", "cn_name": "\u76d0\u9178\u7532\u6c27\u6c2f\u666e\u80fa", "en_name": ["Metoclopramide hydrochloride", "Benzamide, 4-amino-5-chloro-N-[2-(diethylamino)ethyl]-2-methoxy-, hydrochloride (1:1)", "o-Anisamide, 4-amino-5-chloro-N-[2-(diethylamino)ethyl]-, monohydrochloride", "Benzamide, 4-amino-5-chloro-N-[2-(diethylamino)ethyl]-2-methoxy-, monohydrochloride", "4-Amino-5-chloro-N-[2-(diethylamino)ethyl]-o-anisamide hydrochloride", "Metoclopramide hydrochloride", "Maxolon", "Paspertin", "Cerucal", "Primperan", "Primperan (tablet)", "Rimetin", "Metoclopramide monohydrochloride", "Reglan", "AHR 3070-C", "NSC 354467", "Tserulan", "Perinorm", "Mexeron", "Metpamid", "Ami-metoclopramide", "Metoclopramide-Hakim", "Plazilin", "Telperane"], "SMILES": "C(NCCN(CC)CC)(=O)C1=C(OC)C=C(N)C(Cl)=C1.Cl", "physical_data": {"Molecular Weight": "", "Molecular Formula": "C14H22ClN3O2.ClH", "Melting Point": "182.5-184 \u00b0C"}}