{"cas_no": "723286-98-4", "cn_name": "5-\u6c2f\u7532\u57fa-2-\u4e09\u6c1f\u7532\u57fa-1,3,4-\u5641\u4e8c\u5511", "en_name": ["5-(Trifluoromethyl)-2-(chloromethyl)-1,3,4-oxadiazole", "1,3,4-Oxadiazole, 2-(chloromethyl)-5-(trifluoromethyl)-", "2-(Chloromethyl)-5-(trifluoromethyl)-1,3,4-oxadiazole", "5-(Trifluoromethyl)-2-(chloromethyl)-1,3,4-oxadiazole", "2-Chloromethyl-5-trifluoromethyl-1,3,4-oxadiazole", "5-(Chloromethyl)-2-(trifluoromethyl)-1,3,4-oxadiazole"], "SMILES": "C(F)(F)(F)C=1OC(CCl)=NN1", "physical_data": {"Molecular Weight": "186.52", "Molecular Formula": "C4H2ClF3N2O", "Boiling Point": "55-60 \u00b0C @ Press: 10 Torr"}}