{"cas_no": "72324-39-1", "cn_name": "5-\u4e59\u9170\u57fa-2,2-\u4e8c\u7532\u57fa-1,3-\u4e8c\u6076\u70f7-4,6-\u4e8c\u916e", "en_name": ["5-Acetyl-2,2-dimethyl-1,3-dioxane-4,6-dione", "1,3-Dioxane-4,6-dione, 5-acetyl-2,2-dimethyl-", "5-Acetyl-2,2-dimethyl-1,3-dioxane-4,6-dione"], "SMILES": "C(C)(=O)C1C(=O)OC(C)(C)OC1=O", "physical_data": {"Molecular Weight": "186.16", "Molecular Formula": "C8H10O5", "Melting Point": "82-85 \u00b0C"}}