{"cas_no": "7235-40-7", "cn_name": "\u03b2-\u80e1\u841d\u535c\u7d20", "en_name": ["\u03b2-Carotene", "\u03b2,\u03b2-Carotene", "\u03b2-Carotene, all-trans-", "\u03b2-Carotene", "Cyclohexene, 1,1\u2032-(3,7,12,16-tetramethyl-1,3,5,7,9,11,13,15,17-octadecanonaene-1,18-diyl)bis[2,6,6-trimethyl-, (all-E)-", "all-trans-\u03b2-Carotene", "Serlabo", "(all-E)-1,1\u2032-(3,7,12,16-Tetramethyl-1,3,5,7,9,11,13,15,17-octadecanonaene-1,18-diyl)bis[2,6,6-trimethylcyclohexene]", "KPMK", "all-E-\u03b2-Carotene", "C.I. Food Orange 5", "Betacarotene", "Food Orange 5", "Provatenol", "Rovimix \u03b2-carotene", "Lucarotin", "Lucaratin", "Solatene", "Provatene", "BetaVit", "Carotaben", "NSC 62794", "Carotene Base 80S", "Lurotin", "C.I. 40800", "Lucarotin 10CWD/O", "CoroCare", "Lucarotin 30SUN", "Caroten Base 35468", "Carofertin", "Lucarotin 20MCT", "Carotene Base 80", "Carotene Base 80SV", "Natpure COL Red LC318L", "MeSH ID: D019207"], "SMILES": "C(=CC(=CC=CC(=CC=CC=C(C=CC=C(C=CC=1C(C)(C)CCCC1C)C)C)C)C)C=2C(C)(C)CCCC2C", "physical_data": {"Molecular Weight": "536.87", "Molecular Formula": "C40H56", "Melting Point": "183 \u00b0C", "Density": "1.00 g/cm\u00b3 @ Temp: 20 \u00b0C"}}