{"cas_no": "7236-47-7", "cn_name": "3-\u82ef\u4e9a\u7532\u57fa\u6b63\u4e01\u9170\u80fa", "en_name": ["3-Methyl-4-phenyl-3-butenamide", "3-Butenamide, 3-methyl-4-phenyl-", "3-Methyl-4-phenyl-3-butenamide", "\u03b2-Benzalbutyramide", "3-Methyl-4-phenyl-3-butenoic acid amide", "Kata-Lipid", "Lipidemol", "Lipobeta", "3-Benzylidene-N-butyramide"], "SMILES": "C(=C(CC(N)=O)C)C1=CC=CC=C1", "physical_data": {"Molecular Weight": "175.23", "Molecular Formula": "C11H13NO", "Melting Point": "133 \u00b0C"}}