{"cas_no": "724-98-1", "cn_name": "2-(\u82ef\u6c27\u57fa\u7532\u57fa)\u82ef\u7532\u9178", "en_name": ["2-(Phenoxymethyl)benzoic acid", "Benzoic acid, 2-(phenoxymethyl)-", "o-Toluic acid, \u03b1-phenoxy-", "2-(Phenoxymethyl)benzoic acid"], "SMILES": "C(OC1=CC=CC=C1)C2=C(C(O)=O)C=CC=C2", "physical_data": {"Molecular Weight": "228.24", "Molecular Formula": "C14H12O3", "Boiling Point": "155-158 \u00b0C @ Press: 0.03 Torr", "Melting Point": "123-124 \u00b0C"}}