{"cas_no": "7240-38-2", "cn_name": "\u82ef\u5511\u9752\u9709\u7d20\u94a0", "en_name": ["Sodium oxacillin monohydrate", "4-Thia-1-azabicyclo[3.2.0]heptane-2-carboxylic acid, 3,3-dimethyl-6-[[(5-methyl-3-phenyl-4-isoxazolyl)carbonyl]amino]-7-oxo-, sodium salt, hydrate (1:1:1), (2S,5R,6R)-", "4-Thia-1-azabicyclo[3.2.0]heptane-2-carboxylic acid, 3,3-dimethyl-6-(5-methyl-3-phenyl-4-isoxazolecarboxamido)-7-oxo-, monosodium salt, monohydrate", "4-Thia-1-azabicyclo[3.2.0]heptane-2-carboxylic acid, 3,3-dimethyl-6-[[(5-methyl-3-phenyl-4-isoxazolyl)carbonyl]amino]-7-oxo-, monosodium salt, monohydrate, [2S-(2\u03b1,5\u03b1,6\u03b2)]-", "Sodium oxacillin monohydrate", "Stapenor sodium", "Oxacillin sodium hydrate"], "SMILES": "C(O)(=O)C1N2C(C(NC(=O)C=3C(=NOC3C)C4=CC=CC=C4)C2=O)SC1(C)C.[Na].O", "physical_data": {"Molecular Weight": "", "Molecular Formula": "C19H19N3O5S.H2O.Na", "Melting Point": "188 \u00b0C (decomp)"}}