{"cas_no": "7240-90-6", "cn_name": "5-\u6eb4-4-\u6c2f-3-\u5432\u54da\u534a\u4e73\u7cd6\u82f7", "en_name": ["X-gal", "\u03b2-D-Galactopyranoside, 5-bromo-4-chloro-1H-indol-3-yl", "Galactopyranoside, 5-bromo-4-chloroindol-3-yl, \u03b2-D-", "Indole, 5-bromo-4-chloro-3-(\u03b2-D-galactopyranosyloxy)-", "5-Bromo-4-chloro-1H-indol-3-yl \u03b2-D-galactopyranoside", "5-Bromo-4-chloroindol-3-yl \u03b2-D-galactopyranoside", "5-Bromo-4-chloroindol-3-yl \u03b2-D-galactoside", "X-gal", "5-Bromo-4-chloro-3-C-indolyl-\u03b2-D-galactopyranose", "5-Bromo-4-chloro-3-indoyl-\u03b2-galactopyranoside"], "SMILES": "O(C=1C=2C(NC1)=CC=C(Br)C2Cl)C3OC(CO)C(O)C(O)C3O", "physical_data": {"Molecular Weight": "408.63", "Molecular Formula": "C14H15BrClNO6", "Melting Point": "178-179 \u00b0C (decomp)"}}