{"cas_no": "7241-98-7", "cn_name": "\u9ec4\u66f2\u9709\u6bd2\u7d20 G2", "en_name": ["Aflatoxin G2", "1H,12H-Furo[3\u2032,2\u2032:4,5]furo[2,3-h]pyrano[3,4-c][1]benzopyran-1,12-dione, 3,4,7a,9,10,10a-hexahydro-5-methoxy-, (7aR,10aS)-", "Aflatoxin G2", "1H,12H-Furo[3\u2032,2\u2032:4,5]furo[2,3-h]pyrano[3,4-c][1]benzopyran-1,12-dione, 3,4,7a\u03b1,9,10,10a\u03b1-hexahydro-5-methoxy-", "1H,12H-Furo[3\u2032,2\u2032:4,5]furo[2,3-h]pyrano[3,4-c][1]benzopyran-1,12-dione, 3,4,7a,9,10,10a-hexahydro-5-methoxy-, (7aR-cis)-", "(7aR,10aS)-3,4,7a,9,10,10a-Hexahydro-5-methoxy-1H,12H-furo[3\u2032,2\u2032:4,5]furo[2,3-h]pyrano[3,4-c][1]benzopyran-1,12-dione", "Dihydroaflatoxin G1"], "SMILES": "O(C)C=1C2=C(C3=C(OC4C3CCO4)C1)OC(=O)C5=C2CCOC5=O", "physical_data": {"Molecular Weight": "330.29", "Molecular Formula": "C17H14O7", "Melting Point": "237-240 \u00b0C"}}