{"cas_no": "72411-89-3", "cn_name": "4-\u7532\u6c27\u57fa\u5627\u5576-5-\u7532\u9178", "en_name": ["4-Methoxy-5-pyrimidinecarboxylic acid", "5-Pyrimidinecarboxylic acid, 4-methoxy-", "4-Methoxy-5-pyrimidinecarboxylic acid"], "SMILES": "O(C)C=1C(C(O)=O)=CN=CN1", "physical_data": {"Molecular Weight": "154.12", "Molecular Formula": "C6H6N2O3", "Melting Point": "200 \u00b0C"}}