{"cas_no": "72411-52-0", "cn_name": "5-\u6c28\u57fa-3-(4-\u6c1f\u82ef\u57fa)\u5421\u5511", "en_name": ["5-(4-Fluorophenyl)-1H-pyrazol-3-amine", "1H-Pyrazol-3-amine, 5-(4-fluorophenyl)-", "5-(4-Fluorophenyl)-1H-pyrazol-3-amine", "5-(4-Fluorophenyl)-1H-pyrazol-3-ylamine", "3-Amino-5-(4-fluorophenyl)-1H-pyrazole", "5-(4-Fluorophenyl)-3-aminopyrazole", "3-Amino-5-(4-fluorophenyl)pyrazole"], "SMILES": "NC=1C=C(C2=CC=C(F)C=C2)NN1", "physical_data": {"Molecular Weight": "177.18", "Molecular Formula": "C9H8FN3", "Melting Point": "154 \u00b0C"}}