{"cas_no": "7242-92-4", "cn_name": "\u5916-2-\u6c28\u57fa\u964d\u51b0\u7247\u70f7", "en_name": ["exo-2-Aminonorbornane", "Bicyclo[2.2.1]heptan-2-amine, (1R,2R,4S)-rel-", "2-Norbornanamine, exo-", "Bicyclo[2.2.1]heptan-2-amine, exo-", "rel-(1R,2R,4S)-Bicyclo[2.2.1]heptan-2-amine", "exo-2-Norbornylamine", "exo-2-Aminonorbornane", "exo-2-Norbornanamine", "(\u00b1)-exo-2-Aminonorbornane", "exo-2-Aminobicyclo[2.2.1]heptane", "exo-Norbornylamine"], "SMILES": "NC1C2CC(C1)CC2", "physical_data": {"Molecular Weight": "111.18", "Molecular Formula": "C7H13N", "Melting Point": "&gt;345 \u00b0C"}}