{"cas_no": "72420-38-3", "cn_name": "\u963f\u897f\u5f17\u5170", "en_name": ["Acifran", "2-Furancarboxylic acid, 4,5-dihydro-5-methyl-4-oxo-5-phenyl-", "4,5-Dihydro-5-methyl-4-oxo-5-phenyl-2-furancarboxylic acid", "AY 25712", "Acifran", "(\u00b1)-Acifran", "Reductol"], "SMILES": "CC1(OC(C(O)=O)=CC1=O)C2=CC=CC=C2", "physical_data": {"Molecular Weight": "218.21", "Molecular Formula": "C12H10O4", "Melting Point": "176 \u00b0C"}}