{"cas_no": "72432-10-1", "cn_name": "\u963f\u5c3c\u897f\u5766", "en_name": ["Aniracetam", "2-Pyrrolidinone, 1-(4-methoxybenzoyl)-", "1-(4-Methoxybenzoyl)-2-pyrrolidinone", "Aniracetam", "Ro 13-5057/001", "Ro 13-5057", "Draganon", "Ro 13-3057", "Sarpul", "Ampamet"], "SMILES": "C(=O)(N1C(=O)CCC1)C2=CC=C(OC)C=C2", "physical_data": {"Molecular Weight": "219.24", "Molecular Formula": "C12H13NO3", "Melting Point": "121-122 \u00b0C"}}