{"cas_no": "72432-03-2", "cn_name": "\u7c73\u683c\u5217\u9187", "en_name": ["Miglitol", "3,4,5-Piperidinetriol, 1-(2-hydroxyethyl)-2-(hydroxymethyl)-, (2R,3R,4R,5S)-", "3,4,5-Piperidinetriol, 1-(2-hydroxyethyl)-2-(hydroxymethyl)-, [2R-(2\u03b1,3\u03b2,4\u03b1,5\u03b2)]-", "(2R,3R,4R,5S)-1-(2-Hydroxyethyl)-2-(hydroxymethyl)-3,4,5-piperidinetriol", "BAY-m 1099", "Miglitol", "N-(2-Hydroxyethyl)moranoline", "BAY 1099", "N-(2-Hydroxyethyl)-1-deoxynojirimycin", "Glyset", "Diastabol", "Seibule", "(2R,3R,4R,5S)-1-(2-Hydroxyethyl)-2-(hydroxymethyl)piperidine-3,4,5-triol", "Plumarol", "N-(2-Hydroethyl)deoxynojirimycin", "Miglitose"], "SMILES": "C(CO)N1C(CO)C(O)C(O)C(O)C1", "physical_data": {"Molecular Weight": "207.22", "Molecular Formula": "C8H17NO5", "Melting Point": "114 \u00b0C"}}