{"cas_no": "7244-78-2", "cn_name": "1-\u4e01\u6c27\u57fa-4-\u785d\u57fa\u82ef", "en_name": ["1-Butoxy-4-nitrobenzene", "Benzene, 1-butoxy-4-nitro-", "Ether, butyl p-nitrophenyl", "1-Butoxy-4-nitrobenzene", "Butyl p-nitrophenyl ether", "Ba 2692", "p-Nitrophenyl butyl ether", "p-Nitrobutoxybenzene", "Butyl 4-nitrophenyl ether", "4-Butoxynitrobenzene", "p-(Butoxy)nitrobenzene", "NSC 86583"], "SMILES": "O(CCCC)C1=CC=C(N(=O)=O)C=C1", "physical_data": {"Molecular Weight": "195.22", "Molecular Formula": "C10H13NO3", "Boiling Point": "150-154 \u00b0C @ Press: 5 Torr", "Melting Point": "32 \u00b0C"}}