{"cas_no": "7244-67-9", "cn_name": "N-\u82ef\u7532\u9170\u57fa-L-\u4e19\u6c28\u9178\u7532\u916f", "en_name": ["L-Alanine, N-benzoyl-, methyl ester", "L-Alanine, N-benzoyl-, methyl ester", "Alanine, N-benzoyl-, methyl ester, L-", "N-Benzoyl-L-alanine methyl ester", "N-Benzoyl-L-alanyl methyl ester", "Benzoylalanine methyl ester", "N-Benzoylalanine methyl ester"], "SMILES": "C(NC(C(OC)=O)C)(=O)C1=CC=CC=C1", "physical_data": {"Molecular Weight": "207.23", "Molecular Formula": "C11H13NO3", "Melting Point": "56.5-57.5 \u00b0C"}}