{"cas_no": "72459-58-6", "cn_name": "\u54aa\u5511\u55ea", "en_name": ["Triazoxide", "1,2,4-Benzotriazine, 7-chloro-3-(1H-imidazol-1-yl)-, 1-oxide", "Triazoxide"], "SMILES": "O=N=1C2=C(N=C(N1)N3C=CN=C3)C=CC(Cl)=C2", "physical_data": {"Molecular Weight": "247.64", "Molecular Formula": "C10H6ClN5O", "Melting Point": "182 \u00b0C"}}