{"cas_no": "72463-77-5", "cn_name": "\u767d\u82b1\u524d\u80e1\u7d20E", "en_name": ["2-Butenoic acid, 2-methyl-, (9R,10R)-9,10-dihydro-8,8-dimethyl-10-(3-methyl-1-oxobutoxy)-2-oxo-2H,8H-benzo[1,2-b:3,4-b\u2032]dipyran-9-yl ester, (2Z)-", "2-Butenoic acid, 2-methyl-, (9R,10R)-9,10-dihydro-8,8-dimethyl-10-(3-methyl-1-oxobutoxy)-2-oxo-2H,8H-benzo[1,2-b:3,4-b\u2032]dipyran-9-yl ester, (2Z)-", "2-Butenoic acid, 2-methyl-, 9,10-dihydro-8,8-dimethyl-10-(3-methyl-1-oxobutoxy)-2-oxo-2H,8H-benzo[1,2-b:3,4-b\u2032]dipyran-9-yl ester, [9R-[9\u03b1(Z),10\u03b1]]-", "2H,8H-Benzo[1,2-b:3,4-b\u2032]dipyran, 2-butenoic acid deriv.", "Praeruptorin C", "Wulongensin A"], "SMILES": "O(C(CC(C)C)=O)C1C=2C3=C(C=CC2OC(C)(C)C1OC(C(=CC)C)=O)C=CC(=O)O3", "physical_data": {"Molecular Weight": "428.47", "Molecular Formula": "C24H28O7", "Melting Point": "132.0-133.5 \u00b0C"}}