{"cas_no": "72482-64-5", "cn_name": "2,4-\u4e8c\u6c1f\u82ef\u7532\u9170\u6c2f", "en_name": ["2,4-Difluorobenzoyl chloride", "Benzoyl chloride, 2,4-difluoro-", "2,4-Difluorobenzoyl chloride", "2,4-Difluorobenzoyl chloride acid chloride", "2,4-Difluorobenzoic acid chloride"], "SMILES": "C(Cl)(=O)C1=C(F)C=C(F)C=C1", "physical_data": {"Molecular Weight": "176.55", "Molecular Formula": "C7H3ClF2O", "Boiling Point": "68-70 \u00b0C @ Press: 19 Torr", "Melting Point": "70-71 \u00b0C"}}