{"cas_no": "7249-87-8", "cn_name": "3-\u4e19\u6c28\u57fa\u4e19\u8148", "en_name": ["3-(Propylamino)propanenitrile", "Propanenitrile, 3-(propylamino)-", "Propionitrile, 3-(propylamino)-", "3-(Propylamino)propanenitrile", "N-(\u03b2-Cyanoethyl)propylamine", "3-(Propylamino)propionitrile", "N-Cyanoethyl-N-propylamine", "Propyl(2-cyanoethyl)amine", "NSC 41194", "N-(2-Cyanoethyl)-N-propylamine"], "SMILES": "C(NCCC)CC#N", "physical_data": {"Molecular Weight": "112.17", "Molecular Formula": "C6H12N2", "Boiling Point": "119-121 \u00b0C @ Press: 30 Torr", "Density": "0.8889 g/cm\u00b3 @ Temp: 20 \u00b0C"}}