{"cas_no": "72490-01-8", "cn_name": "\u53cc\u6c27\u5a01", "en_name": ["Fenoxycarb", "Carbamic acid, N-[2-(4-phenoxyphenoxy)ethyl]-, ethyl ester", "Carbamic acid, [2-(4-phenoxyphenoxy)ethyl]-, ethyl ester", "Ro 13-5223", "Ethyl [2-(4-phenoxyphenoxy)ethyl]carbamate", "Fenoxycarb", "Insegar", "ABG 6215", "Logic", "Eclipse", "Eclipse (growth regulator)", "Phenoxycarb", "Logic (growth regulator)", "Et 2-(p-phenoxyphenoxy)ethylcarbamate"], "SMILES": "O(C1=CC=C(OCCNC(OCC)=O)C=C1)C2=CC=CC=C2", "physical_data": {"Molecular Weight": "301.34", "Molecular Formula": "C17H19NO4", "Melting Point": "53-54 \u00b0C"}}