{"cas_no": "72496-41-4", "cn_name": "\u5421\u67d4\u6bd4\u661f", "en_name": ["Pirarubicin", "5,12-Naphthacenedione, 10-[[3-amino-2,3,6-trideoxy-4-O-[(2R)-tetrahydro-2H-pyran-2-yl]-\u03b1-L-lyxo-hexopyranosyl]oxy]-7,8,9,10-tetrahydro-6,8,11-trihydroxy-8-(2-hydroxyacetyl)-1-methoxy-, (8S,10S)-", "5,12-Naphthacenedione, 10-[[3-amino-2,3,6-trideoxy-4-O-(tetrahydro-2H-pyran-2-yl)-\u03b1-L-lyxo-hexopyranosyl]oxy]-7,8,9,10-tetrahydro-6,8,11-trihydroxy-8-(hydroxyacetyl)-1-methoxy-, [8S-[8\u03b1,10\u03b1(S*)]]-", "5,12-Naphthacenedione, 10-[[3-amino-2,3,6-trideoxy-4-O-[(2R)-tetrahydro-2H-pyran-2-yl]-\u03b1-L-lyxo-hexopyranosyl]oxy]-7,8,9,10-tetrahydro-6,8,11-trihydroxy-8-(hydroxyacetyl)-1-methoxy-, (8S,10S)-", "(8S,10S)-10-[[3-Amino-2,3,6-trideoxy-4-O-[(2R)-tetrahydro-2H-pyran-2-yl]-\u03b1-L-lyxo-hexopyranosyl]oxy]-7,8,9,10-tetrahydro-6,8,11-trihydroxy-8-(2-hydroxyacetyl)-1-methoxy-5,12-naphthacenedione", "4\u2032-O-Tetrahydropyranyladriamycin", "THP-Adriamycin", "(2\u2032\u2032R)-4\u2032-O-Tetrahydropyranyladriamycin", "Pirarubicin", "Pinorubicin", "(2\u2032\u2032R)-4\u2032-O-Tetrahydropyranyldoxorubicin", "Therarubicin"], "SMILES": "O(C1C2=C(C(O)=C3C(=C2O)C(=O)C=4C(C3=O)=CC=CC4OC)CC(C(CO)=O)(O)C1)C5CC(N)C(OC6CCCCO6)C(C)O5", "physical_data": {"Molecular Weight": "627.64", "Molecular Formula": "C32H37NO12", "Melting Point": "184-186 \u00b0C (decomp)"}}