{"cas_no": "725-89-3", "cn_name": "3,5-\u53cc\u4e09\u6c1f\u7532\u57fa\u82ef\u7532\u9178", "en_name": ["3,5-Bis(trifluoromethyl)benzoic acid", "Benzoic acid, 3,5-bis(trifluoromethyl)-", "3,5-Bis(trifluoromethyl)benzoic acid", "NSC 88282", "3,5-Di(trifluoromethyl)benzoic acid"], "SMILES": "C(F)(F)(F)C1=CC(C(F)(F)F)=CC(C(O)=O)=C1", "physical_data": {"Molecular Weight": "258.12", "Molecular Formula": "C9H4F6O2", "Melting Point": "142-143 \u00b0C (sublm)"}}