{"cas_no": "725-12-2", "cn_name": "2,5-\u4e8c\u82ef\u57fa-1,3,4-\u6076\u4e8c\u5511", "en_name": ["2,5-Diphenyl-1,3,4-oxadiazole", "1,3,4-Oxadiazole, 2,5-diphenyl-", "2,5-Diphenyl-1,3,4-oxadiazole", "PPD", "2,5-Diphenyloxadiazole", "PPD (scintillator)", "NSC 53152"], "SMILES": "C=1(OC(=NN1)C2=CC=CC=C2)C3=CC=CC=C3", "physical_data": {"Molecular Weight": "222.24", "Molecular Formula": "C14H10N2O", "Boiling Point": "248 \u00b0C @ Press: 16 Torr", "Melting Point": "138 \u00b0C"}}