{"cas_no": "72509-76-3", "cn_name": "\u975e\u6d1b\u5730\u5e73", "en_name": ["Felodipine", "3,5-Pyridinedicarboxylic acid, 4-(2,3-dichlorophenyl)-1,4-dihydro-2,6-dimethyl-, 3-ethyl 5-methyl ester", "3,5-Pyridinedicarboxylic acid, 4-(2,3-dichlorophenyl)-1,4-dihydro-2,6-dimethyl-, ethyl methyl ester", "Felodipine", "Plendil", "H 154/82", "(\u00b1)-Felodipine", "(RS)-Felodipine", "Prevex", "Hydac", "Splendil", "dl-Felodipine", "Munobal", "Flodil", "Agon", "Feloday", "Delmuno", "3-Ethyl 5-methyl 4-(2,3-dichlorophenyl)-2,6-dimethyl-1,4-dihydropyridine-3,5-dicarboxylate", "MeSH ID: D015736"], "SMILES": "C(OCC)(=O)C=1C(C(C(OC)=O)=C(C)NC1C)C2=C(Cl)C(Cl)=CC=C2", "physical_data": {"Molecular Weight": "384.25", "Molecular Formula": "C18H19Cl2NO4", "Melting Point": "145 \u00b0C"}}