{"cas_no": "7250-67-1", "cn_name": "N-(2-\u6c2f\u4e59\u57fa)\u5421\u54af\u70f7\u76d0\u9178\u76d0", "en_name": ["1-(2-Chloroethyl)pyrrolidine hydrochloride", "Pyrrolidine, 1-(2-chloroethyl)-, hydrochloride (1:1)", "Pyrrolidine, 1-(2-chloroethyl)-, hydrochloride", "N-(\u03b2-Chloroethyl)pyrrolidine hydrochloride", "2-Pyrrolidinyl-1-chloroethane hydrochloride", "1-(2-Chloroethyl)pyrrolidine hydrochloride", "Pyrrolidinoethyl chloride hydrochloride", "2-Pyrrolidinoethyl chloride hydrochloride", "1-(2-Chloroethyl)pyrrolidine monohydrochloride", "\u03b2-Pyrrolidinoethyl chloride hydrochloride", "N-(2-Chloroethyl)pyrrolidinium chloride", "N-(2-Chloroethyl)pyrrolidine hydrochloride", "2-(1-Pyrrolidinyl)ethyl chloride hydrochloride", "2-(1-Pyrrolidino)ethyl chloride hydrochloride", "1-(2-Chloroethyl)pyrrolidinium chloride", "1-(2-Chloroethyl)pyrrolidin-1-ium chloride"], "SMILES": "C(CCl)N1CCCC1.Cl", "physical_data": {"Molecular Weight": "", "Molecular Formula": "C6H12ClN.ClH", "Melting Point": "173.5-174 \u00b0C"}}