{"cas_no": "72505-21-6", "cn_name": "4-(\u4e09\u6c1f\u7532\u57fa)\u786b\u4ee3\u82ef\u7532\u9170\u80fa", "en_name": ["4-(Trifluoromethyl)benzenecarbothioamide", "Benzenecarbothioamide, 4-(trifluoromethyl)-", "4-(Trifluoromethyl)benzenecarbothioamide", "4-(Trifluoromethyl)thiobenzamide", "p-(Trifluoromethyl)thiobenzamide", "4-(Trifluoromethyl)benzene-1-carbothioamide", "4-(Trifluoromethyl)benzothioamide"], "SMILES": "C(F)(F)(F)C1=CC=C(C(N)=S)C=C1", "physical_data": {"Molecular Weight": "205.20", "Molecular Formula": "C8H6F3NS", "Melting Point": "135-136 \u00b0C"}}