{"cas_no": "7250-52-4", "cn_name": "4-\u7532\u57fa\u5421\u5576-3-\u7532\u9170\u80fa", "en_name": ["4-Methyl-3-pyridinecarboxamide", "3-Pyridinecarboxamide, 4-methyl-", "Nicotinamide, 4-methyl-", "4-Methyl-3-pyridinecarboxamide", "4-Methylnicotinamide", "NSC 131712", "NSC 30041", "4-Methylpyridine-3-carboxamide"], "SMILES": "C(N)(=O)C=1C(C)=CC=NC1", "physical_data": {"Molecular Weight": "136.15", "Molecular Formula": "C7H8N2O", "Melting Point": "167-167.5 \u00b0C"}}