{"cas_no": "7250-55-7", "cn_name": "3-\u7f9f\u57fa\u620a\u4e8c\u9178\u4e8c\u7532\u916f", "en_name": ["1,5-Dimethyl 3-hydroxypentanedioate", "Pentanedioic acid, 3-hydroxy-, 1,5-dimethyl ester", "Glutaric acid, 3-hydroxy-, dimethyl ester", "Pentanedioic acid, 3-hydroxy-, dimethyl ester", "1,5-Dimethyl 3-hydroxypentanedioate", "Dimethyl \u03b2-hydroxyglutarate", "NSC 30047", "3-Hydroxyglutaric acid dimethyl ester", "Dimethyl 3-hydroxyglutarate", "3-Hydroxypentanedioic acid dimethyl ester", "Dimethyl 3-hydroxypentanedioate"], "SMILES": "C(CC(OC)=O)(CC(OC)=O)O", "physical_data": {"Molecular Weight": "176.17", "Molecular Formula": "C7H12O5", "Boiling Point": "135-138 \u00b0C @ Press: 12.5 Torr"}}