{"cas_no": "7250-19-3", "cn_name": "3-\u6c28\u57fa\u5432\u54da", "en_name": ["1H-Indol-3-amine", "1H-Indol-3-amine", "Indole, 3-amino-", "3-Aminoindole", "NSC 24933", "1H-Indol-3-yl amine", "1H-Indol-3-ylamine", "3-Amino-1H-indole"], "SMILES": "NC=1C=2C(=CC=CC2)NC1", "physical_data": {"Molecular Weight": "132.16", "Molecular Formula": "C8H8N2", "Melting Point": "115-117 \u00b0C"}}