{"cas_no": "7251-53-8", "cn_name": "3-\u7f9f\u57fa\u5f02\u6076\u5511-4-\u7532\u9178\u4e59\u916f", "en_name": ["Ethyl 2,3-dihydro-3-oxo-1H-pyrazole-4-carboxylate", "1H-Pyrazole-4-carboxylic acid, 2,3-dihydro-3-oxo-, ethyl ester", "Ethyl 2,3-dihydro-3-oxo-1H-pyrazole-4-carboxylate", "4-Ethoxycarbonyl-5-hydroxypyrazole", "4-Ethoxycarbonyl-\u03943-pyrazol-5-one", "Ethyl 3-hydroxy-1H-pyrazole-4-carboxylate", "NSC 43546", "3-Oxo-2,3-dihydro-1H-pyrazole-4-carboxylic acid ethyl ester", "3-Oxo-2,3-dihydro-1H-pyrazole-4-carboxylic acid ethyl ester", "3-Hydroxypyrazole-4-carboxylic acid ethyl ester", "Ethyl 3-oxo-1,2-dihydropyrazole-4-carboxylate", "Ethyl 3-oxo-2,3-dihydro-1H-pyrazole-4-carboxylate"], "SMILES": "C(OCC)(=O)C=1C(=O)NNC1", "physical_data": {"Molecular Weight": "156.14", "Molecular Formula": "C6H8N2O3", "Melting Point": "140-142 \u00b0C"}}