{"cas_no": "7251-61-8", "cn_name": "2-\u7532\u57fa\u55b9\u5594\u5549", "en_name": ["2-Methylquinoxaline", "Quinoxaline, 2-methyl-", "2-Methylquinoxaline", "NSC 65587"], "SMILES": "CC1=NC2=C(N=C1)C=CC=C2", "physical_data": {"Molecular Weight": "144.17", "Molecular Formula": "C9H8N2", "Boiling Point": "244 \u00b0C", "Melting Point": "180.5 \u00b0C"}}