{"cas_no": "7251-52-7", "cn_name": "\u82ef\u57fa-(2-\u5421\u5576\u57fa)\u4e59\u9170\u80fa", "en_name": ["\u03b1-Phenyl-2-pyridineacetamide", "2-Pyridineacetamide, \u03b1-phenyl-", "\u03b1-Phenyl-2-pyridineacetamide", "2-Phenyl-2-(2-pyridyl)acetamide", "SC 16571", "\u03b1-(2-Pyridyl)benzeneacetamide", "NSC 62572", "2-Phenyl-2-pyridin-2-yl-acetamide", "2-Phenyl-2-pyridin-2-ylacetamide", "2-Phenyl-2-(pyridin-2-yl)acetamide"], "SMILES": "C(C(N)=O)(C1=CC=CC=C1)C2=CC=CC=N2", "physical_data": {"Molecular Weight": "212.25", "Molecular Formula": "C13H12N2O", "Melting Point": "134 \u00b0C"}}