{"cas_no": "72517-23-8", "cn_name": "5-\u6eb4-2,3-\u4e8c\u7532\u6c27\u57fa\u82ef\u7532\u9178", "en_name": ["5-Bromo-2,3-dimethoxybenzoic acid", "Benzoic acid, 5-bromo-2,3-dimethoxy-", "5-Bromo-2,3-dimethoxybenzoic acid", "NSC 281247", "2,3-Dimethoxy-5-bromobenzoic acid"], "SMILES": "O(C)C1=C(C(O)=O)C=C(Br)C=C1OC", "physical_data": {"Molecular Weight": "261.07", "Molecular Formula": "C9H9BrO4", "Melting Point": "120 \u00b0C"}}