{"cas_no": "7252-83-7", "cn_name": "2-\u6eb4-1,1-\u4e8c\u7532\u6c27\u57fa\u4e59\u70f7", "en_name": ["2-Bromo-1,1-dimethoxyethane", "Ethane, 2-bromo-1,1-dimethoxy-", "Acetaldehyde, bromo-, dimethyl acetal", "2-Bromo-1,1-dimethoxyethane", "Bromoacetaldehyde dimethyl acetal", "2,2-Dimethoxybromoethane", "2,2-Dimethoxyethyl bromide", "1-Bromo-2,2-dimethoxyethane", "2-Bromoacetaldehyde dimethyl acetal", "1,1-Dimethoxy-2-bromoethane", "NSC 73700", "2,2-Dimethoxy-1-bromoethane", "Bromoacetoaldehyde dimethyl acetal"], "SMILES": "C(CBr)(OC)OC", "physical_data": {"Molecular Weight": "169.02", "Molecular Formula": "C4H9BrO2", "Boiling Point": "149 \u00b0C", "Density": "1.430 g/cm\u00b3 @ Temp: 20 \u00b0C"}}