{"cas_no": "7252-84-8", "cn_name": "3-\u6c28\u57fa-6-\u7532\u6c27\u57fa\u54d2\u55ea", "en_name": ["3-Amino-6-methoxypyridazine", "3-Pyridazinamine, 6-methoxy-", "Pyridazine, 3-amino-6-methoxy-", "6-Methoxy-3-pyridazinamine", "3-Amino-6-methoxypyridazine", "6-Methoxypyridazin-3-amine", "NSC 73703", "3-Methoxy-6-aminopyridazine", "6-Amino-3-methoxypyridazine", "(6-Methoxypyridazin-3-yl)amine"], "SMILES": "O(C)C1=CC=C(N)N=N1", "physical_data": {"Molecular Weight": "125.13", "Molecular Formula": "C5H7N3O", "Melting Point": "107 \u00b0C"}}