{"cas_no": "7252-53-1", "cn_name": "\u73af\u4e19\u7532\u80fa\u76d0\u9178\u76d0", "en_name": ["Cyclopropanemethanamine, hydrochloride (1:1)", "Cyclopropanemethanamine, hydrochloride (1:1)", "Cyclopropanemethanamine, hydrochloride", "Cyclopropanemethylamine, hydrochloride", "Cyclopropylmethylamine hydrochloride", "(Aminomethyl)cyclopropane hydrochloride", "Cyclopropylmethanamine hydrochloride", "1-Cyclopropylmethanamine hydrochloride"], "SMILES": "C(N)C1CC1.Cl", "physical_data": {"Molecular Weight": "", "Molecular Formula": "C4H9N.ClH", "Melting Point": "206-207.5 \u00b0C"}}