{"cas_no": "7253-07-8", "cn_name": "(9-\u82b4\u57fa)\u4e09\u82ef\u57fa\u6eb4\u5316\u78f7", "en_name": ["Phosphonium, 9H-fluoren-9-yltriphenyl-, bromide (1:1)", "Phosphonium, 9H-fluoren-9-yltriphenyl-, bromide (1:1)", "Phosphonium, fluoren-9-yltriphenyl-, bromide", "Phosphonium, 9H-fluoren-9-yltriphenyl-, bromide", "9-Fluorenyltriphenylphosphonium bromide", "NSC 67714", "(9H-Fluoren-9-yl)triphenylphosphonium bromide"], "SMILES": "[P+](C1C=2C(C=3C1=CC=CC3)=CC=CC2)(C4=CC=CC=C4)(C5=CC=CC=C5)C6=CC=CC=C6.[Br-]", "physical_data": {"Molecular Weight": "", "Molecular Formula": "C31H24P.Br", "Melting Point": "303 \u00b0C (decomp)"}}