{"cas_no": "72544-16-2", "cn_name": "N-\u5f02\u4e01\u57fa-4-\u54cc\u5576\u916e", "en_name": ["1-Isobutyl-4-piperidinone", "4-Piperidinone, 1-(2-methylpropyl)-", "1-(2-Methylpropyl)-4-piperidinone", "1-Isobutyl-4-piperidinone", "1-Isobutyl-4-piperidone", "1-(2-Methylpropyl)-4-piperidone", "N-Isobutyl-4-piperidinone", "1-(2-Methylpropyl)piperidin-4-one"], "SMILES": "C(C(C)C)N1CCC(=O)CC1", "physical_data": {"Molecular Weight": "155.24", "Molecular Formula": "C9H17NO", "Boiling Point": "105 \u00b0C @ Press: 22 Torr"}}