{"cas_no": "7254-34-4", "cn_name": "3-\u6c30\u57fa-2-\u7532\u6c27\u57fa\u5421\u5576", "en_name": ["2-Methoxy-3-pyridinecarbonitrile", "3-Pyridinecarbonitrile, 2-methoxy-", "Nicotinonitrile, 2-methoxy-", "2-Methoxy-3-pyridinecarbonitrile", "3-Cyano-2-methoxypyridine", "NSC 73298", "2-Methoxynicotinonitrile", "2-Methoxypyridine-3-carbonitrile", "2-Methoxy-3-cyanopyridine"], "SMILES": "C(#N)C1=C(OC)N=CC=C1", "physical_data": {"Molecular Weight": "134.14", "Molecular Formula": "C7H6N2O", "Melting Point": "78 \u00b0C"}}