{"cas_no": "72571-06-3", "cn_name": "5-(4-\u6eb4\u82ef\u57fa)-1,3-\u5641\u5511", "en_name": ["5-(4-Bromophenyl)oxazole", "Oxazole, 5-(4-bromophenyl)-", "5-(4-Bromophenyl)oxazole", "5-(p-Bromophenyl)oxazole", "5-(4-Bromophenyl)-1,3-oxazole"], "SMILES": "BrC1=CC=C(C=C1)C2=CN=CO2", "physical_data": {"Molecular Weight": "224.05", "Molecular Formula": "C9H6BrNO", "Melting Point": "78.1-78.4 \u00b0C"}}