{"cas_no": "72571-82-5", "cn_name": "\u5421\u54cc\u9178\u4e09\u6c34\u5408\u7269", "en_name": ["Pipemidic acid trihydrate", "Pyrido[2,3-d]pyrimidine-6-carboxylic acid, 8-ethyl-5,8-dihydro-5-oxo-2-(1-piperazinyl)-, hydrate (1:3)", "Pyrido[2,3-d]pyrimidine-6-carboxylic acid, 8-ethyl-5,8-dihydro-5-oxo-2-(1-piperazinyl)-, trihydrate", "Pipemidic acid trihydrate"], "SMILES": "C(C)N1C=2C(C(=O)C(C(O)=O)=C1)=CN=C(N2)N3CCNCC3.O", "physical_data": {"Molecular Weight": "", "Molecular Formula": "C14H17N5O3.3H2O", "Melting Point": "253-255 \u00b0C", "Density": "1.41 g/cm\u00b3"}}