{"cas_no": "726-42-1", "cn_name": "1,3-\u4e8c\u5bf9\u7532\u82ef\u57fa\u78b3\u4e8c\u9170\u4e9a\u80fa", "en_name": ["N,N\u2032-Methanetetraylbis[4-methylbenzenamine]", "Benzenamine, N,N\u2032-methanetetraylbis[4-methyl-", "Carbodiimide, di-p-tolyl-", "N,N\u2032-Methanetetraylbis[4-methylbenzenamine]", "Di-p-tolylcarbodiimide", "N,N\u2032-Bis(p-tolyl)carbodiimide", "N,N\u2032-Di-p-tolylcarbodiimide", "Bis(4-methylphenyl)carbodiimide", "4,4\u2032-Bitolylcarbodiimide", "4,4\u2032-Ditolylcarbodiimide", "1,3-Di-p-tolylcarbodiimide", "Bis(4-tolyl)carbodiimide", "NSC 20627", "1,3-Di-o-tolyl carbodiimide"], "SMILES": "N(=C=NC1=CC=C(C)C=C1)C2=CC=C(C)C=C2", "physical_data": {"Molecular Weight": "222.29", "Molecular Formula": "C15H14N2", "Boiling Point": "165 \u00b0C @ Press: 2.4 Torr", "Melting Point": "58.5 \u00b0C", "Density": "1.15 g/cm\u00b3"}}