{"cas_no": "7261-97-4", "cn_name": "\u65e6\u8457\u80fd", "en_name": ["Dantrolene", "2,4-Imidazolidinedione, 1-[[[5-(4-nitrophenyl)-2-furanyl]methylene]amino]-", "Hydantoin, 1-[[5-(p-nitrophenyl)furfurylidene]amino]-", "1-[[[5-(4-Nitrophenyl)-2-furanyl]methylene]amino]-2,4-imidazolidinedione", "Dantrolene", "1-[[5-(p-Nitrophenyl)furfurylidene]amino]hydantoin", "F 368", "1-([[5-(4-Nitrophenyl)furan-2-yl]methylidene]amino)imidazolidine-2,4-dione", "MeSH ID: D003620"], "SMILES": "C(=NN1CC(=O)NC1=O)C=2OC(=CC2)C3=CC=C(N(=O)=O)C=C3", "physical_data": {"Molecular Weight": "314.25", "Molecular Formula": "C14H10N4O5", "Melting Point": "279 \u00b0C"}}