{"cas_no": "7262-80-8", "cn_name": "\u8089\u8c46\u853b\u91782-\u8418\u916f", "en_name": ["2-Naphthyl myristate", "Tetradecanoic acid, 2-naphthalenyl ester", "Myristic acid, 2-naphthyl ester", "\u03b2-Naphthyl myristate", "2-Naphthalenyl tetradecanoate", "NSC 122046", "2-Naphthyl myristate"], "SMILES": "O(C(CCCCCCCCCCCCC)=O)C1=CC2=C(C=C1)C=CC=C2", "physical_data": {"Molecular Weight": "354.53", "Molecular Formula": "C24H34O2", "Melting Point": "64-65 \u00b0C"}}