{"cas_no": "72626-61-0", "cn_name": "4-\u7532\u57fa\u4f1e\u5f62\u916e-\u0392-D-\u7ea4\u7ef4\u7d20\u4e8c\u7cd6\u82f7", "en_name": ["4-Methylumbelliferyl \u03b2-cellobioside", "2H-1-Benzopyran-2-one, 7-[(4-O-\u03b2-D-glucopyranosyl-\u03b2-D-glucopyranosyl)oxy]-4-methyl-", "Coumarin, 7-(\u03b2-cellobiosyloxy)-4-methyl-", "7-[(4-O-\u03b2-D-Glucopyranosyl-\u03b2-D-glucopyranosyl)oxy]-4-methyl-2H-1-benzopyran-2-one", "4-Methylumbelliferyl cellobiopyranoside", "4-Methylumbelliferyl \u03b2-cellobioside"], "SMILES": "CC=1C=2C(=CC(OC3OC(CO)C(OC4OC(CO)C(O)C(O)C4O)C(O)C3O)=CC2)OC(=O)C1", "physical_data": {"Molecular Weight": "500.45", "Molecular Formula": "C22H28O13", "Melting Point": "101-102 \u00b0C"}}