{"cas_no": "72679-02-8", "cn_name": "(S)-(-)-3-\u82ef\u7532\u9170\u5def\u57fa-2-\u7532\u57fa\u4e19\u9178", "en_name": ["(2S)-3-(Benzoylthio)-2-methylpropanoic acid", "Propanoic acid, 3-(benzoylthio)-2-methyl-, (2S)-", "Propanoic acid, 3-(benzoylthio)-2-methyl-, (S)-", "(2S)-3-(Benzoylthio)-2-methylpropanoic acid", "(S)-(-)-3-(Benzoylthio)-2-methylpropanoic acid", "(2S)-3-(Benzoylthio)-2-methylpropionic acid", "(2S)-3-Benzoylthio-2-methylpropanoic acid", "(2S)-3-Benzoylsulfanyl-2-methylpropanoic acid", "(2S)-3-(Benzoylsulfanyl)-2-methylpropanoic acid"], "SMILES": "C(SCC(C(O)=O)C)(=O)C1=CC=CC=C1", "physical_data": {"Molecular Weight": "224.28", "Molecular Formula": "C11H12O3S", "Melting Point": "69-71.5 \u00b0C"}}