{"cas_no": "727-99-1", "cn_name": "2-(\u4e09\u6c1f\u7532\u57fa)\u82ef\u7532\u916e", "en_name": ["Phenyl[2-(trifluoromethyl)phenyl]methanone", "Methanone, phenyl[2-(trifluoromethyl)phenyl]-", "Benzophenone, 2-(trifluoromethyl)-", "Phenyl[2-(trifluoromethyl)phenyl]methanone", "2-(Trifluoromethyl)benzophenone"], "SMILES": "C(=O)(C1=C(C(F)(F)F)C=CC=C1)C2=CC=CC=C2", "physical_data": {"Molecular Weight": "250.22", "Molecular Formula": "C14H9F3O", "Boiling Point": "175-178 \u00b0C @ Press: 31 Torr", "Melting Point": "61 \u00b0C"}}