{"cas_no": "727-71-9", "cn_name": "2-\u82ef\u57fa-2',4',6'-\u4e09\u7f9f\u57fa\u82ef\u4e59\u916e", "en_name": ["2-Phenyl-1-(2,4,6-trihydroxyphenyl)ethanone", "Ethanone, 2-phenyl-1-(2,4,6-trihydroxyphenyl)-", "Acetophenone, 2\u2032,4\u2032,6\u2032-trihydroxy-2-phenyl-", "Phloroacetophenone, 2-phenyl-", "2-Phenyl-1-(2,4,6-trihydroxyphenyl)ethanone", "2,4,6-Trihydroxydeoxybenzoin", "2,4,6-Trihydroxyphenyl benzyl ketone", "2-Phenyl-2\u2032,4\u2032,6\u2032-trihydroxyacetophenone", "2-Phenyl-1-(2,4,6-trihydroxyphenyl)ethan-1-one"], "SMILES": "C(CC1=CC=CC=C1)(=O)C2=C(O)C=C(O)C=C2O", "physical_data": {"Molecular Weight": "244.24", "Molecular Formula": "C14H12O4", "Melting Point": "162 \u00b0C"}}