{"cas_no": "72707-66-5", "cn_name": "2-(\u6eb4\u7532\u57fa)\u4e19\u70ef\u9178", "en_name": ["2-(Bromomethyl)acrylic acid", "2-Propenoic acid, 2-(bromomethyl)-", "2-(Bromomethyl)-2-propenoic acid", "2-(Bromomethyl)acrylic acid", "\u03b1-(Bromomethyl)acrylic acid", "\u03b1-Bromomethacrylic acid", "2-(Bromomethyl)propenoic acid", "Bromomethylacrylic acid"], "SMILES": "C(C(O)=O)(CBr)=C", "physical_data": {"Molecular Weight": "164.99", "Molecular Formula": "C4H5BrO2", "Melting Point": "74.0-75.0 \u00b0C"}}