{"cas_no": "72721-10-9", "cn_name": "\u7532\u57fa\u4e59\u70ef\u57fa\u4e8c(\u4e01\u916e\u809f\u57fa)\u7845\u70f7", "en_name": ["Methylvinyldi(methylethylketoxime)silane", "2-Butanone, O,O\u2032-(ethenylmethylsilylene)dioxime", "Methylvinyldi(methylethylketoxime)silane", "Methylvinyldibutanoximesilane"], "SMILES": "[Si](ON=C(CC)C)(ON=C(CC)C)(C=C)C", "physical_data": {"Molecular Weight": "242.39", "Molecular Formula": "C11H22N2O2Si", "Melting Point": "-40 \u00b0C", "Density": "0.920 g/cm\u00b3"}}