{"cas_no": "72738-09-1", "cn_name": "3-\u6c27\u4ee3\u54cc\u5576-4-\u7532\u9178\u4e59\u916f\u76d0\u9178\u76d0", "en_name": ["4-Piperidinecarboxylic acid, 3-oxo-, ethyl ester, hydrochloride (1:1)", "4-Piperidinecarboxylic acid, 3-oxo-, ethyl ester, hydrochloride (1:1)", "4-Piperidinecarboxylic acid, 3-oxo-, ethyl ester, hydrochloride", "4-(Ethoxycarbonyl)-3-oxopiperidinium chloride"], "SMILES": "C(OCC)(=O)C1C(=O)CNCC1.Cl", "physical_data": {"Molecular Weight": "", "Molecular Formula": "C8H13NO3.ClH", "Melting Point": "200-202 \u00b0C"}}