{"cas_no": "72741-87-8", "cn_name": "\u516b\u503e\u5432\u55ea\u4e09\u9187", "en_name": ["Swainsonine", "1,2,8-Indolizinetriol, octahydro-, (1S,2R,8R,8aR)-", "1,2,8-Indolizinetriol, octahydro-, [1S-(1\u03b1,2\u03b1,8\u03b2,8a\u03b2)]-", "(1S,2R,8R,8aR)-Octahydro-1,2,8-indolizinetriol", "Swainsonine", "(-)-Swainsonine", "Tridolgosir", "D-Swainsonine"], "SMILES": "OC1C2N(CC1O)CCCC2O", "physical_data": {"Molecular Weight": "173.21", "Molecular Formula": "C8H15NO3", "Melting Point": "138-142 \u00b0C"}}