{"cas_no": "7275-43-6", "cn_name": "N,N'-\u4e8c\u6c27\u5316-2,2'-\u8054\u5421\u5576", "en_name": ["2,2\u2032-Bipyridine N,N\u2032-dioxide", "2,2\u2032-Bipyridine, 1,1\u2032-dioxide", "2,2\u2032-Bipyridine N,N\u2032-dioxide", "2,2\u2032-Dipyridyl N,N\u2032-dioxide", "2,2\u2032-Dipyridyl dioxide", "2,2\u2032-Bipyridyl-1,1\u2032-di-N-oxide", "2,2\u2032-Bipyridyl N,N\u2032-dioxide", "2,2\u2032-Bipyridine di-N-oxide", "NSC 351883", "2-(1-Oxidopyridin-1-ium-2-yl)pyridin-1-ium-1-olate"], "SMILES": "O=N=1C(=CC=CC1)C=2N(=O)=CC=CC2", "physical_data": {"Molecular Weight": "188.18", "Molecular Formula": "C10H8N2O2", "Melting Point": "307-309 \u00b0C"}}