{"cas_no": "72755-25-0", "cn_name": "SENECIVERNIN", "en_name": ["Senecivernine", "[1,6]Dioxacyclododecino[2,3,4-gh]pyrrolizine-2,7-dione, 3,4,5,6,9,11,13,14,14a,14b-decahydro-6-hydroxy-4,5,6-trimethyl-3-methylene-, (4R,5R,6R,14aR,14bR)-", "21-Norsenecionan-11,16-dione, 12-hydroxy-14-methyl-, (14\u03b1)-", "(4R,5R,6R,14aR,14bR)-3,4,5,6,9,11,13,14,14a,14b-Decahydro-6-hydroxy-4,5,6-trimethyl-3-methylene[1,6]dioxacyclododecino[2,3,4-gh]pyrrolizine-2,7-dione", "Senecivernine", "[1,6]Dioxacyclododecino[2,3,4-gh]pyrrolizine-2,7-dione, 3,4,5,6,9,11,13,14,14a,14b-decahydro-6-hydroxy-4,5,6-trimethyl-3-methylene-, [4R-(4R*,5R*,6R*,14aR*,14bR*)]-"], "SMILES": "O=C1OC2C3N(CC2)CC=C3COC(=O)C(C)(O)C(C)C(C)C1=C", "physical_data": {"Molecular Weight": "335.39", "Molecular Formula": "C18H25NO5", "Melting Point": "105-107 \u00b0C"}}