{"cas_no": "72752-52-4", "cn_name": "2-(1-\u54cc\u5576\u57fa)\u82ef\u7532\u8148", "en_name": ["2-(1-Piperidinyl)benzonitrile", "Benzonitrile, 2-(1-piperidinyl)-", "2-(1-Piperidinyl)benzonitrile", "2-Piperidinobenzonitrile", "2-(Piperidin-1-yl)benzonitrile"], "SMILES": "C(#N)C1=C(C=CC=C1)N2CCCCC2", "physical_data": {"Molecular Weight": "186.25", "Molecular Formula": "C12H14N2", "Melting Point": "37-39 \u00b0C"}}