{"cas_no": "72798-66-4", "cn_name": "1-(2-\u4e19\u70ef\u57fa)-2-\u82ef\u5e76\u54aa\u5511\u916e", "en_name": ["1,3-Dihydro-1-(2-propen-1-yl)-2H-benzimidazol-2-one", "2H-Benzimidazol-2-one, 1,3-dihydro-1-(2-propen-1-yl)-", "2H-Benzimidazol-2-one, 1,3-dihydro-1-(2-propenyl)-", "2-Benzimidazolinone, 1-allyl-", "1,3-Dihydro-1-(2-propen-1-yl)-2H-benzimidazol-2-one", "1-(Allyl)-1H-benzo[d]imidazol-2(3H)-one", "1-(Prop-2-en-1-yl)-2,3-dihydro-1H-1,3-benzodiazol-2-one", "1-Allyl-1,3-dihydro-benzoimidazol-2-one", "3-Prop-2-enyl-1H-benzimidazol-2-one"], "SMILES": "C(C=C)N1C=2C(NC1=O)=CC=CC2", "physical_data": {"Molecular Weight": "174.20", "Molecular Formula": "C10H10N2O", "Melting Point": "99-100 \u00b0C"}}