{"cas_no": "728-86-9", "cn_name": "4-\uff08\u4e09\u6c1f\u7532\u57fa\uff09\u82ef\u7532\u916e", "en_name": ["4\u2032-Trifluoromethylbenzophenone", "Methanone, phenyl[4-(trifluoromethyl)phenyl]-", "Benzophenone, 4-(trifluoromethyl)-", "Phenyl[4-(trifluoromethyl)phenyl]methanone", "p-(Trifluoromethyl)benzophenone", "(4-Trifluoromethylphenyl) phenyl ketone", "4-(Trifluoromethyl)benzophenone", "NSC 88328", "4\u2032-Trifluoromethylbenzophenone"], "SMILES": "C(=O)(C1=CC=C(C(F)(F)F)C=C1)C2=CC=CC=C2", "physical_data": {"Molecular Weight": "250.22", "Molecular Formula": "C14H9F3O", "Melting Point": "115 \u00b0C"}}