{"cas_no": "728-61-0", "cn_name": "\u5f02\u4e4c\u836f\u5185\u916f", "en_name": ["Linderalactone", "6H-4,7-Methenofuro[3,2-c]oxacycloundecin-6-one, 4,8,9,12-tetrahydro-3,11-dimethyl-, (4R,10E)-", "Germacra-1(10),4,7,11-tetraen-15-oic acid, 8,12-epoxy-6\u03b1-hydroxy-, \u03b3-lactone, (E)-(+)-", "Linderalactone", "6H-4,7-Methenofuro[3,2-c]oxacycloundecin-6-one, 4,8,9,12-tetrahydro-3,11-dimethyl-, [R-(E)]-", "(4R,10E)-4,8,9,12-Tetrahydro-3,11-dimethyl-6H-4,7-methenofuro[3,2-c]oxacycloundecin-6-one"], "SMILES": "CC=1C=2C3C=C(C(=O)O3)CCC=C(C)CC2OC1", "physical_data": {"Molecular Weight": "244.29", "Molecular Formula": "C15H16O3", "Melting Point": "136-138 \u00b0C"}}