{"cas_no": "728-56-3", "cn_name": "[2-\u785d\u57fa-4-(\u4e09\u6c1f\u7532\u57fa)\u82ef\u57fa]-\u5def\u57fa\u4e59\u9178", "en_name": ["2-[[2-Nitro-4-(trifluoromethyl)phenyl]thio]acetic acid", "Acetic acid, 2-[[2-nitro-4-(trifluoromethyl)phenyl]thio]-", "Acetic acid, [(\u03b1,\u03b1,\u03b1-trifluoro-2-nitro-p-tolyl)thio]-", "Acetic acid, [[2-nitro-4-(trifluoromethyl)phenyl]thio]-", "2-[[2-Nitro-4-(trifluoromethyl)phenyl]thio]acetic acid", "(2-Nitro-4-trifluoromethyl-phenylsulfanyl)-acetic acid", "2-[[2-Nitro-4-(trifluoromethyl)phenyl]sulfanyl]acetic acid"], "SMILES": "N(=O)(=O)C1=C(SCC(O)=O)C=CC(C(F)(F)F)=C1", "physical_data": {"Molecular Weight": "281.21", "Molecular Formula": "C9H6F3NO4S", "Melting Point": "154-155 \u00b0C"}}