{"cas_no": "728-88-1", "cn_name": "\u6258\u54cc\u916e", "en_name": ["(\u00b1)-Tolperisone", "1-Propanone, 2-methyl-1-(4-methylphenyl)-3-(1-piperidinyl)-", "Propiophenone, 2,4\u2032-dimethyl-3-piperidino-", "2-Methyl-1-(4-methylphenyl)-3-(1-piperidinyl)-1-propanone", "2,4\u2032-Dimethyl-3-piperidinopropiophenone", "Mydeton", "Tolperisone", "Mideton", "(\u00b1)-Tolperisone", "dl-Tolperisone", "Mydetone", "NSC 107321", "MeSH ID: D014049"], "SMILES": "C(C(CN1CCCCC1)C)(=O)C2=CC=C(C)C=C2", "physical_data": {"Molecular Weight": "245.36", "Molecular Formula": "C16H23NO", "Melting Point": "176-177 \u00b0C"}}