{"cas_no": "728-81-4", "cn_name": "3- (\u4e09\u6c1f\u7532\u57fa) \u4e8c\u82ef\u916e", "en_name": ["3-(Trifluoromethyl)benzophenone", "Methanone, phenyl[3-(trifluoromethyl)phenyl]-", "Benzophenone, 3-(trifluoromethyl)-", "Phenyl[3-(trifluoromethyl)phenyl]methanone", "3-(Trifluoromethyl)benzophenone", "m-(Trifluoromethyl)benzophenone", "Phenyl(3-(trifluoromethyl)phenyl)methanone"], "SMILES": "C(=O)(C1=CC(C(F)(F)F)=CC=C1)C2=CC=CC=C2", "physical_data": {"Molecular Weight": "250.22", "Molecular Formula": "C14H9F3O", "Boiling Point": "122 \u00b0C", "Melting Point": "52.5 \u00b0C"}}