{"cas_no": "728-40-5", "cn_name": "2,6-\u4e8c\u53d4\u4e01\u57fa-4-\u785d\u57fa\u82ef\u915a", "en_name": ["2,6-Di-tert-butyl-4-nitrophenol", "Phenol, 2,6-bis(1,1-dimethylethyl)-4-nitro-", "Phenol, 2,6-di-tert-butyl-4-nitro-", "2,6-Bis(1,1-dimethylethyl)-4-nitrophenol", "BAY 28589", "2,6-Di-tert-butyl-4-nitrophenol", "Bayer 28589", "4-Nitro-2,6-di-tert-butylphenol", "4-Nitro-2,6-bis-(1,1-dimethylethyl)phenol", "NSC 81682", "2,6-Ditert-butyl-4-nitrophenol"], "SMILES": "C(C)(C)(C)C1=C(O)C(C(C)(C)C)=CC(N(=O)=O)=C1", "physical_data": {"Molecular Weight": "251.32", "Molecular Formula": "C14H21NO3", "Melting Point": "157.5 \u00b0C (decomp)"}}