{"cas_no": "728-87-0", "cn_name": "\u4e8c\u7532\u6c27\u57fa\u82ef\u7532\u9187", "en_name": ["4-Methoxy-\u03b1-(4-methoxyphenyl)benzenemethanol", "Benzenemethanol, 4-methoxy-\u03b1-(4-methoxyphenyl)-", "Benzhydrol, 4,4\u2032-dimethoxy-", "4-Methoxy-\u03b1-(4-methoxyphenyl)benzenemethanol", "4-Methoxy-4\u2032-methoxybenzhydrol", "4,4\u2032-Dimethoxybenzhydrol", "Bis(p-methoxyphenyl)carbinol", "p,p\u2032-Dimethoxybenzhydrol", "Bis(4-methoxyphenyl)methanol", "4,4\u2032-Dimethoxydiphenylcarbinol", "Bis(p-methoxyphenyl)methanol", "NSC 5256", "4-methoxy-\u03b1-(4-methoxyphenyl)benzenemethanol"], "SMILES": "C(O)(C1=CC=C(OC)C=C1)C2=CC=C(OC)C=C2", "physical_data": {"Molecular Weight": "244.29", "Molecular Formula": "C15H16O3", "Melting Point": "71 \u00b0C"}}