{"cas_no": "728-90-5", "cn_name": "\u9130\u785d\u82ef\u7532\u91af\u80fa\u82ef", "en_name": ["N-(2-Nitrophenyl)benzamide", "Benzamide, N-(2-nitrophenyl)-", "Benzanilide, 2\u2032-nitro-", "N-(2-Nitrophenyl)benzamide", "o\u2032-Nitrobenzanilide", "2\u2032-Nitrobenzanilide", "N-(o-Nitrophenyl)benzamide", "NSC 406275", "N-Benzoyl-2-nitroaniline"], "SMILES": "N(C(=O)C1=CC=CC=C1)C2=C(N(=O)=O)C=CC=C2", "physical_data": {"Molecular Weight": "242.23", "Molecular Formula": "C13H10N2O3", "Melting Point": "93 \u00b0C"}}