{"cas_no": "7280-37-7", "cn_name": "\u96cc\u916e\u786b\u9178\u916f\u54cc\u55ea", "en_name": ["Ogen", "Estra-1,3,5(10)-trien-17-one, 3-(sulfooxy)-, compd. with piperazine (1:1)", "Estrone, hydrogen sulfate, compd. with piperazine (1:1)", "Piperazine, compd. with estrone hydrogen sulfate (1:1)", "Piperazine, compd. with 3-(sulfooxy)estra-1,3,5(10)-trien-17-one (1:1)", "Sulestrex", "Piperazine estrone sulfate", "Harmogen", "Estropipate", "Ogen", "3-Sulfatoxyestra-1,3,5(10)-trien-17-one piperazine salt", "Estrone sulfate piperazine salt", "Sulestrex piperazine"], "SMILES": "C1CNCCN1.CC12C(C3C(C=4C(CC3)=CC(OS(=O)(=O)O)=CC4)CC1)CCC2=O", "physical_data": {"Molecular Weight": "", "Molecular Formula": "C18H22O5S.C4H10N2", "Melting Point": "190 \u00b0C"}}