{"cas_no": "7280-77-5", "cn_name": "\u73af(L-\u4eae\u6c28\u9170-L-\u82ef\u4e19\u6c28\u9170)", "en_name": ["Cyclo(L-Phe-L-Leu)", "2,5-Piperazinedione, 3-(2-methylpropyl)-6-(phenylmethyl)-, (3S,6S)-", "2,5-Piperazinedione, 3-benzyl-6-isobutyl-, (3S,6S)-", "2,5-Piperazinedione, 3-(2-methylpropyl)-6-(phenylmethyl)-, (3S-cis)-", "Cyclo(L-leucyl-L-phenylalanyl)", "(3S,6S)-3-(2-Methylpropyl)-6-(phenylmethyl)-2,5-piperazinedione", "3-Benzyl-6-isobutyl-2,5-dioxopiperazine", "Cyclo-L-leucyl-L-phenylalanine", "L-Phenylalanyl-L-leucine diketopiperazine", "Cyclo(L-Phe-L-Leu)", "Cyclo(L-Leu-L-Phe)"], "SMILES": "C(C1C(=O)NC(CC(C)C)C(=O)N1)C2=CC=CC=C2", "physical_data": {"Molecular Weight": "260.33", "Molecular Formula": "C15H20N2O2", "Melting Point": "282-284 \u00b0C"}}