{"cas_no": "72811-73-5", "cn_name": "4-(3-\u7532\u57fa\u82ef\u57fa)\u6c28\u57fa\u5421\u5576-3-\u78fa\u9170\u80fa", "en_name": ["BM 960102", "3-Pyridinesulfonamide, 4-[(3-methylphenyl)amino]-", "4-[(3-Methylphenyl)amino]-3-pyridinesulfonamide", "3-Sulfonamido-4-(3-methylanilino)pyridine", "BM 960102"], "SMILES": "N(C=1C(S(N)(=O)=O)=CN=CC1)C2=CC(C)=CC=C2", "physical_data": {"Molecular Weight": "263.32", "Molecular Formula": "C12H13N3O2S", "Melting Point": "166-168 \u00b0C"}}