{"cas_no": "7281-04-1", "cn_name": "\u82ef\u624e\u6eb4\u94f5", "en_name": ["Benzyldimethyldodecylammonium bromide", "Benzenemethanaminium, N-dodecyl-N,N-dimethyl-, bromide (1:1)", "Ammonium, benzyldodecyldimethyl-, bromide", "Benzenemethanaminium, N-dodecyl-N,N-dimethyl-, bromide", "Benzyldodecyldimethylammonium bromide", "Dimethyllaurylbenzylammonium bromide", "Sterinol", "Dodecylbenzyldimethylammonium bromide", "Dimethylbenzyllaurylammonium bromide", "Dodecyldimethylbenzylammonium bromide", "Benzyllauryldimethylammonium bromide", "Dimethylbenzyldodecylammonium bromide", "Amonyl BR 1244", "Lauryldimethylbenzylammonium bromide", "Sinnoquat BL 80", "Sinnoquat BL 95", "Benzododecinium bromide", "N-Benzyl-N,N-dimethyl-N-dodecylammonium bromide", "Bacfor BL", "Benzyldimethyldodecylammonium bromide", "Cequartyl 50", "AACL 6", "Dimethyldodecylbenzylammonium bromide", "N,N-Dimethyl-N-benzyldodecylammonium bromide", "Benzyldimethyllaurylammonium bromide", "N,N-Dimethyl-N-dodecylbenzylammonium bromide", "Xinjieermie", "Lauralkonium bromide", "Benzalkonium bromide(C12)"], "SMILES": "C([N+](CCCCCCCCCCCC)(C)C)C1=CC=CC=C1.[Br-]", "physical_data": {"Molecular Weight": "", "Molecular Formula": "C21H38N.Br", "Melting Point": "38-43 \u00b0C"}}