{"cas_no": "72826-63-2", "cn_name": "\u8131\u6c27\u9752\u84bf\u7d20", "en_name": ["Deoxyartemisinin", "10aH-9,10b-Epoxypyrano[4,3,2-jk][2]benzoxepin-2(3H)-one, octahydro-3,6,9-trimethyl-, (3R,3aS,6R,6aS,9S,10aS,10bR)-", "10aH-9,10b-Epoxypyrano[4,3,2-jk][2]benzoxepin-2(3H)-one, octahydro-3,6,9-trimethyl-, [3R-(3\u03b1,3a\u03b2,6\u03b2,6a\u03b2,9\u03b2,10a\u03b1,10b\u03b2)]-", "(3R,3aS,6R,6aS,9S,10aS,10bR)-Octahydro-3,6,9-trimethyl-10aH-9,10b-epoxypyrano[4,3,2-jk][2]benzoxepin-2(3H)-one", "Hydroarteannuin", "Qing Hau Sau III", "Deoxyarteannuin", "Deoxyartemisinin", "Desoxyartemisinin", "Deoxyqinghaosu", "Qinghaosu III", "2-Deoxyartemisinin", "2-Desoxyartemisinin"], "SMILES": "CC1C2C34C(OC(C)(O3)CCC4C(C)CC2)OC1=O", "physical_data": {"Molecular Weight": "266.33", "Molecular Formula": "C15H22O4", "Melting Point": "107-108 \u00b0C"}}