{"cas_no": "72822-13-0", "cn_name": "\u76d0\u9178\u8fbe\u54cc\u5511", "en_name": ["Dapiprazole hydrochloride", "1,2,4-Triazolo[4,3-a]pyridine, 5,6,7,8-tetrahydro-3-[2-[4-(2-methylphenyl)-1-piperazinyl]ethyl]-, hydrochloride (1:1)", "1,2,4-Triazolo[4,3-a]pyridine, 5,6,7,8-tetrahydro-3-[2-[4-(2-methylphenyl)-1-piperazinyl]ethyl]-, monohydrochloride", "AF 2139", "Dapiprazole hydrochloride", "Rev-Eyes", "Reversil", "Glamidolo"], "SMILES": "C(CN1CCN(CC1)C2=C(C)C=CC=C2)C=3N4C(=NN3)CCCC4.Cl", "physical_data": {"Molecular Weight": "", "Molecular Formula": "C19H27N5.ClH", "Melting Point": "206-207 \u00b0C"}}