{"cas_no": "72822-12-9", "cn_name": "\u8fbe\u54cc\u5511", "en_name": ["Dapiprazole", "1,2,4-Triazolo[4,3-a]pyridine, 5,6,7,8-tetrahydro-3-[2-[4-(2-methylphenyl)-1-piperazinyl]ethyl]-", "5,6,7,8-Tetrahydro-3-[2-[4-(2-methylphenyl)-1-piperazinyl]ethyl]-1,2,4-triazolo[4,3-a]pyridine", "Dapiprazole"], "SMILES": "C(CN1CCN(CC1)C2=C(C)C=CC=C2)C=3N4C(=NN3)CCCC4", "physical_data": {"Molecular Weight": "325.45", "Molecular Formula": "C19H27N5", "Melting Point": "158-160 \u00b0C"}}