{"cas_no": "7283-70-7", "cn_name": "\u5bcc\u9a6c\u9178\u4e8c\u5f02\u4e19\u916f", "en_name": ["Diisopropyl fumarate", "2-Butenedioic acid (2E)-, 1,4-bis(1-methylethyl) ester", "Fumaric acid, diisopropyl ester", "2-Butenedioic acid (E)-, bis(1-methylethyl) ester", "2-Butenedioic acid (2E)-, bis(1-methylethyl) ester", "Diisopropyl fumarate", "NSC 70161", "Diisopropyl trans-2-butenedioate"], "SMILES": "C(C=CC(OC(C)C)=O)(OC(C)C)=O", "physical_data": {"Molecular Weight": "200.23", "Molecular Formula": "C10H16O4", "Boiling Point": "280 \u00b0C", "Melting Point": "2.1 \u00b0C"}}