{"cas_no": "7283-96-7", "cn_name": "5-\u6c2f\u567b\u5429-2-\u7532\u919b", "en_name": ["5-Chloro-2-thiophenecarboxaldehyde", "2-Thiophenecarboxaldehyde, 5-chloro-", "5-Chloro-2-thiophenecarboxaldehyde", "5-Chloro-2-formylthiophene", "2-Chloro-5-formylthiophene", "2-Chloro-5-thiophenecarboxaldehyde", "5-Chlorothiophene-2-aldehyde"], "SMILES": "C(=O)C=1SC(Cl)=CC1", "physical_data": {"Molecular Weight": "146.59", "Molecular Formula": "C5H3ClOS", "Boiling Point": "63-64 \u00b0C @ Press: 0.7 Torr"}}