{"cas_no": "7283-09-2", "cn_name": "\u0392-D-\u522b\u5421\u5583\u7cd6", "en_name": ["\u03b2-D-Allopyranose", "\u03b2-D-Allopyranose", "Allopyranose, \u03b2-D-", "\u03b2-D-Allose", "6-Deoxy-6-fluoro-D-\u03b2-allopyranose"], "SMILES": "C(O)C1C(O)C(O)C(O)C(O)O1", "physical_data": {"Molecular Weight": "180.16", "Molecular Formula": "C6H12O6", "Melting Point": "128-128.5 \u00b0C"}}