{"cas_no": "7286-84-2", "cn_name": "\u8349\u706d\u5e73 2E", "en_name": ["Chloramben methyl", "Benzoic acid, 3-amino-2,5-dichloro-, methyl ester", "Amiben methyl ester", "Chloramben methyl ester", "Methyl 3-amino-2,5-dichlorobenzoate", "Chloramben methyl", "3-Amino-2,5-dichlorobenzoic acid methyl ester", "NSC 190368"], "SMILES": "C(OC)(=O)C1=C(Cl)C(N)=CC(Cl)=C1", "physical_data": {"Molecular Weight": "220.05", "Molecular Formula": "C8H7Cl2NO2", "Melting Point": "58-60 \u00b0C"}}