{"cas_no": "7287-19-6", "cn_name": "\u6251\u8349\u51c0", "en_name": ["Prometryn", "1,3,5-Triazine-2,4-diamine, N2,N4-bis(1-methylethyl)-6-(methylthio)-", "s-Triazine, 2,4-bis(isopropylamino)-6-(methylthio)-", "1,3,5-Triazine-2,4-diamine, N,N\u2032-bis(1-methylethyl)-6-(methylthio)-", "N2,N4-Bis(1-methylethyl)-6-(methylthio)-1,3,5-triazine-2,4-diamine", "G 34161", "2,4-Bis(isopropylamino)-6-(methylthio)-s-triazine", "Caparol", "2-Methylmercapto-4,6-bis(isopropylamino)-s-triazine", "2-Methylthio-4,6-bis(isopropylamino)-s-triazine", "Prometryn", "A 1114", "Gesagard 50", "Gesagard", "Prometryne", "Selectin 50", "Uvon", "4,6-Bis(isopropylamino)-2-(methylthio)-1,3,5-triazine", "Mercazin", "Selectin", "2,4-Bis(isopropylamino)-6-methylmercapto-s-triazine", "2-Methylthio-4,6-bis(isopropylamino)-1,3,5-triazine", "4,6-Bis(isopropylamino)-2-(methylthio)-s-triazine", "2-Methylmercapto-4,6-bis(isopropylamino)-1,3,5-triazine", "2-(Methylthio)-4,6-diisopropylamino-1,3,5-triazine", "Selektin", "Promepin", "Prohelan", "2-Methylthio-4,6-bis(isopropylamino)-sym-triazine", "Cosatrin", "Prometrin S 50", "Cotogard", "Selectin (herbicide)", "Azogard", "Prometrex", "NSC 163049", "N,N\u2032-Bis(1-methylethyl)-6-methylthio-1,3,5-triazine-2,4-diamine", "Promethryn", "Promethrin"], "SMILES": "N(C(C)C)C=1N=C(NC(C)C)N=C(SC)N1", "physical_data": {"Molecular Weight": "241.36", "Molecular Formula": "C10H19N5S", "Boiling Point": "&gt;300 \u00b0C", "Melting Point": "118-120 \u00b0C", "Density": "1.15 g/cm\u00b3 @ Temp: 20 \u00b0C"}}