{"cas_no": "7287-82-3", "cn_name": "1-(2-\u7532\u57fa\u82ef\u57fa)\u4e59\u9187", "en_name": ["1-(2-Methylphenyl)ethanol", "Benzenemethanol, \u03b1,2-dimethyl-", "Benzyl alcohol, o,\u03b1-dimethyl-", "\u03b1,2-Dimethylbenzenemethanol", "1-(2-Methylphenyl)ethanol", "\u03b1,2-Dimethylbenzyl alcohol", "1-(o-Tolyl)ethanol", "\u03b1-(2-Methylphenyl)ethanol", "1-(o-Methylphenyl)ethanol", "1-(2-Tolyl)ethanol", "o-Methyl-\u03b1-methylbenzyl alcohol", "(\u00b1)-1-(2-Methylphenyl)ethanol", "1-(2-Methylphenyl)ethan-1-ol"], "SMILES": "C(C)(O)C1=C(C)C=CC=C1", "physical_data": {"Molecular Weight": "136.19", "Molecular Formula": "C9H12O", "Boiling Point": "64-65 \u00b0C @ Press: 0.7 Torr"}}