{"cas_no": "7287-36-7", "cn_name": "\u5e9a\u9170\u8349\u80fa", "en_name": ["Monalide", "Pentanamide, N-(4-chlorophenyl)-2,2-dimethyl-", "Valeranilide, 4\u2032-chloro-2,2-dimethyl-", "N-(4-Chlorophenyl)-2,2-dimethylpentanamide", "Potablan", "D 90A", "Monalide", "N-(4-Chlorophenyl)-\u03b1,\u03b1-dimethylvaleramide", "Potablan D 85"], "SMILES": "N(C(C(CCC)(C)C)=O)C1=CC=C(Cl)C=C1", "physical_data": {"Molecular Weight": "239.74", "Molecular Formula": "C13H18ClNO", "Melting Point": "87-88 \u00b0C"}}