{"cas_no": "7288-11-1", "cn_name": "AGATHARESINOL", "en_name": ["Agatharesinol", "4-Pentene-1,2-diol, 3,5-bis(4-hydroxyphenyl)-, (2S,3S,4E)-", "4-Pentene-1,2-diol, 3,5-bis(p-hydroxyphenyl)-, (E)-(2S,3S)-", "Agatharesinol", "4-Pentene-1,2-diol, 3,5-bis(4-hydroxyphenyl)-, [S-[R*,R*-(E)]]-", "(2S,3S,4E)-3,5-Bis(4-hydroxyphenyl)-4-pentene-1,2-diol"], "SMILES": "C(C=CC1=CC=C(O)C=C1)(C(CO)O)C2=CC=C(O)C=C2", "physical_data": {"Molecular Weight": "286.32", "Molecular Formula": "C17H18O4", "Melting Point": "105-116 \u00b0C"}}