{"cas_no": "7288-28-0", "cn_name": "O,O-\u4e8c(\u4e09\u7532\u57fa\u7532\u7845\u70f7\u57fa)\u80f8\u82f7", "en_name": ["5-Methyl-2,4-bis[(trimethylsilyl)oxy]pyrimidine", "Pyrimidine, 5-methyl-2,4-bis[(trimethylsilyl)oxy]-", "Pyrimidine, 5-methyl-2,4-bis(trimethylsiloxy)-", "5-Methyl-2,4-bis[(trimethylsilyl)oxy]pyrimidine", "O,O-Bis(trimethylsilyl)thymine", "2,4-Bis(trimethylsiloxy)-5-methylpyrimidine", "2,4-Bis(trimethylsilyloxy)-5-methylpyrimidine", "Thymine bis(trimethylsilyl) ether", "5-Methyl-2,4-bis(trimethylsilyloxy)pyrimidine", "Bis-O-(trimethylsilyl)thymine", "2,4-Bis-O-(trimethylsilyl)thymine", "2,4-Di-O-(trimethylsilyl)thymine", "2,4-Bis(trimethylsilyl)-5-methyluracil", "5-Methyl-2,4-bis(trimethylsiloxy)pyrimidine", "O,O\u2032-Bis(trimethylsilyl)thymine", "NSC 154616"], "SMILES": "O([Si](C)(C)C)C1=NC(O[Si](C)(C)C)=NC=C1C", "physical_data": {"Molecular Weight": "270.48", "Molecular Formula": "C11H22N2O2Si2", "Boiling Point": "124 \u00b0C @ Press: 19 Torr", "Melting Point": "73-75 \u00b0C"}}