{"cas_no": "7289-52-3", "cn_name": "\u7532\u7678\u919a", "en_name": ["1-Methoxydecane", "Decane, 1-methoxy-", "Ether, decyl methyl", "1-Methoxydecane", "Decyl methyl ether", "Methyl decyl ether", "Methyl n-decyl ether"], "SMILES": "C(CCCCOC)CCCCC", "physical_data": {"Molecular Weight": "172.31", "Molecular Formula": "C11H24O", "Boiling Point": "213.2-213.5 \u00b0C @ Press: 750 Torr", "Melting Point": "189 \u00b0C", "Density": "0.7973 g/cm\u00b3 @ Temp: 20 \u00b0C"}}