{"cas_no": "728919-25-3", "cn_name": "3-\u8418\u57fa-1-\u57fa-\u82ef\u80fa", "en_name": ["3-(1-Naphthalenyl)benzenamine", "Benzenamine, 3-(1-naphthalenyl)-", "3-(1-Naphthalenyl)benzenamine", "3-(Naphthalen-1-yl)aniline"], "SMILES": "NC=1C=C(C=2C3=C(C=CC2)C=CC=C3)C=CC1", "physical_data": {"Molecular Weight": "219.28", "Molecular Formula": "C16H13N", "Melting Point": "77-78 \u00b0C"}}