{"cas_no": "729-24-8", "cn_name": "H-VAL-BETANA", "en_name": ["Valine \u03b2-naphthylamide", "Butanamide, 2-amino-3-methyl-N-2-naphthalenyl-, (2S)-", "Butyramide, 2-amino-3-methyl-N-2-naphthyl-, L-", "Butanamide, 2-amino-3-methyl-N-2-naphthalenyl-, (S)-", "(2S)-2-Amino-3-methyl-N-2-naphthalenylbutanamide", "L-Valyl \u03b2-naphthylamide", "L-Valine \u03b2-naphthylamide", "Valine \u03b2-naphthylamide", "Valyl-\u03b2-naphthylamide", "(2S)-2-Amino-3-methyl-N-(naphthalen-2-yl)butanamide", "(2S)-2-Amino-3-methyl-N-naphthalen-2-ylbutanamide"], "SMILES": "N(C(C(C(C)C)N)=O)C1=CC2=C(C=C1)C=CC=C2", "physical_data": {"Molecular Weight": "242.32", "Molecular Formula": "C15H18N2O", "Melting Point": "100-102 \u00b0C"}}