{"cas_no": "729-43-1", "cn_name": "\u4e8c\u82ef\u4e59\u916e\u8159", "en_name": ["1-Phenylethanone 2-(1-phenylethylidene)hydrazone", "Ethanone, 1-phenyl-, 2-(1-phenylethylidene)hydrazone", "Acetophenone, azine", "Ethanone, 1-phenyl-, (1-phenylethylidene)hydrazone", "1-Phenylethanone 2-(1-phenylethylidene)hydrazone", "Methylphenyl ketazine", "NSC 25772"], "SMILES": "C(=NN=C(C)C1=CC=CC=C1)(C)C2=CC=CC=C2", "physical_data": {"Molecular Weight": "236.31", "Molecular Formula": "C16H16N2", "Melting Point": "129-130 \u00b0C"}}