{"cas_no": "729-99-7", "cn_name": "\u78fa\u80fa\u4e8c\u7532\u5511", "en_name": ["Sulfamoxole", "Benzenesulfonamide, 4-amino-N-(4,5-dimethyl-2-oxazolyl)-", "Sulfanilamide, N1-(4,5-dimethyl-2-oxazolyl)-", "4-Amino-N-(4,5-dimethyl-2-oxazolyl)benzenesulfonamide", "N1-(4,5-Dimethyl-2-oxazolyl)sulfanilamide", "Sulfamoxole", "2-Sulfanilamido-4,5-dimethyloxazole", "Sulfano", "Sulfmidil", "Sulfuno", "Tardamid", "Sulfadimethyloxazole", "2-(p-Aminobenzolsulfonamido)-4,5-dimethyloxazole", "N\u2032-(4,5-Dimethyl-2-oxazolyl)sulfanilamide", "Tardamide", "Sulfamoxolum", "Oxasulfa", "Sulfabutin", "Sulfavigor", "Justamil", "Sulfune", "Sulfono", "NSC 683535", "MeSH ID: D013423"], "SMILES": "N(S(=O)(=O)C1=CC=C(N)C=C1)C2=NC(C)=C(C)O2", "physical_data": {"Molecular Weight": "267.30", "Molecular Formula": "C11H13N3O3S", "Melting Point": "193 \u00b0C", "Density": "1.3786 g/cm\u00b3"}}