{"cas_no": "72909-34-3", "cn_name": "\u5421\u54af\u55b9\u5549\u918c\u9178", "en_name": ["Pyrroloquinoline quinone", "1H-Pyrrolo[2,3-f]quinoline-2,7,9-tricarboxylic acid, 4,5-dihydro-4,5-dioxo-", "4,5-Dihydro-4,5-dioxo-1H-pyrrolo[2,3-f]quinoline-2,7,9-tricarboxylic acid", "Methoxatine", "Methoxatin", "PQQ", "Coenzyme PQQ", "Pyrroloquinoline quinone", "2,7,9-Tricarboxy-4,5-dihydro-4,5-dioxo-1H-pyrrolo[2,3-f]quinoline"], "SMILES": "C(O)(=O)C1=C2C3=C(C(=O)C(=O)C2=NC(C(O)=O)=C1)C=C(C(O)=O)N3", "physical_data": {"Molecular Weight": "330.21", "Molecular Formula": "C14H6N2O8", "Melting Point": "&gt;250 \u00b0C"}}