{"cas_no": "72903-27-6", "cn_name": "1,4-\u73af\u5df1\u70f7\u4e8c\u7532\u9178\u4e8c\u4e59\u916f", "en_name": ["Diethyl 1,4-cyclohexanedicarboxylate", "1,4-Cyclohexanedicarboxylic acid, 1,4-diethyl ester", "1,4-Cyclohexanedicarboxylic acid, diethyl ester", "Diethyl 1,4-cyclohexanedicarboxylate", "NSC 78975", "Fructalate", "1,4-Cyclohexane dicarboxylic diethyl ester", "Fructalate 943871"], "SMILES": "C(OCC)(=O)C1CCC(C(OCC)=O)CC1", "physical_data": {"Molecular Weight": "228.28", "Molecular Formula": "C12H20O4", "Boiling Point": "108-110 \u00b0C @ Press: 1.2 Torr", "Density": "1.0521 g/cm\u00b3 @ Temp: 20 \u00b0C"}}