{"cas_no": "7292-74-2", "cn_name": "DL-3-\u6c1f\u82ef\u57fa\u7518\u6c28\u9178", "en_name": ["\u03b1-Amino-3-fluorobenzeneacetic acid", "Benzeneacetic acid, \u03b1-amino-3-fluoro-", "Glycine, 2-(m-fluorophenyl)-, DL-", "Benzeneacetic acid, \u03b1-amino-3-fluoro-, (\u00b1)-", "\u03b1-Amino-3-fluorobenzeneacetic acid", "DL-\u03b1-Amino-3-fluorophenylacetic acid", "3-Fluorophenylglycine", "NSC 101465", "DL-3-Fluorophenylglycine", "Amino(3-fluorophenyl)acetic acid", "2-Amino-2-(3-fluorophenyl)acetic acid"], "SMILES": "C(C(O)=O)(N)C1=CC(F)=CC=C1", "physical_data": {"Molecular Weight": "169.15", "Molecular Formula": "C8H8FNO2", "Melting Point": "250 \u00b0C"}}