{"cas_no": "72925-16-7", "cn_name": "(R)-1-Boc-3-\u7fa7\u57fa\u5421\u54af\u70f7", "en_name": ["1-(1,1-Dimethylethyl) (3R)-1,3-pyrrolidinedicarboxylate", "1,3-Pyrrolidinedicarboxylic acid, 1-(1,1-dimethylethyl) ester, (3R)-", "1,3-Pyrrolidinedicarboxylic acid, 1-(1,1-dimethylethyl) ester, (R)-", "1-(1,1-Dimethylethyl) (3R)-1,3-pyrrolidinedicarboxylate", "(3R)-1-(tert-Butoxycarbonyl)-3-pyrrolidinecarboxylic acid", "(R)-1-(tert-Butoxycarbonyl)pyrrolidine-3-carboxylic acid", "(3R)-1-[[(1,1-Dimethylethyl)oxy]carbonyl]-3-pyrrolidinecarboxylic acid", "(R)-1-(tert-Butoxycarbonyl)pyrrolidine-3-carboxylic acid", "(3R)-1-[(2-Methylpropan-2-yl)oxycarbonyl]pyrrolidine-3-carboxylic acid", "(3R)-1-tert-Butoxycarbonylpyrrolidine-3-carboxylic acid", "(R)-1-Boc-pyrrolidine-3-carboxylic Acid", "(3R)-1,3-Pyrrolidinedicarboxylic acid 1-(1,1-dimethylethyl) ester"], "SMILES": "C(OC(C)(C)C)(=O)N1CC(C(O)=O)CC1", "physical_data": {"Molecular Weight": "215.25", "Molecular Formula": "C10H17NO4", "Melting Point": "139-141 \u00b0C"}}