{"cas_no": "7292-70-8", "cn_name": "DL-2-(4-\u6c2f\u82ef\u57fa)\u7518\u6c28\u9178", "en_name": ["\u03b1-Amino-4-chlorobenzeneacetic acid", "Benzeneacetic acid, \u03b1-amino-4-chloro-", "Glycine, 2-(p-chlorophenyl)-", "\u03b1-Amino-4-chlorobenzeneacetic acid", "4-Chlorophenylglycine", "2-(4-Chlorophenyl)glycine", "DL-2-(p-Chlorophenyl)glycine", "DL-(4-Chlorophenyl)glycine", "2-Amino-2-(4-chlorophenyl)acetic acid", "\u03b1-(p-Chlorophenyl)glycine"], "SMILES": "C(C(O)=O)(N)C1=CC=C(Cl)C=C1", "physical_data": {"Molecular Weight": "185.61", "Molecular Formula": "C8H8ClNO2", "Melting Point": "141 \u00b0C"}}