{"cas_no": "7292-73-1", "cn_name": "DL-4-\u6c1f\u82ef\u7518\u6c28\u9178", "en_name": ["4-Fluorophenylglycine", "Benzeneacetic acid, \u03b1-amino-4-fluoro-", "Glycine, 2-(p-fluorophenyl)-, DL-", "Benzeneacetic acid, \u03b1-amino-4-fluoro-, (\u00b1)-", "\u03b1-Amino-4-fluorobenzeneacetic acid", "DL-2-(p-Fluorophenyl)glycine", "DL-\u03b1-Amino-p-fluorophenylacetic acid", "Glycine, 2-(p-fluorophenyl)-", "4-Fluorophenylglycine", "NSC 101466", "2-Amino-2-(4-fluorophenyl)acetic acid", "DL-4-Fluorophenylglycine", "\u03b1-Amino-4-fluorophenylacetic acid", "2-Azaniumyl-2-(4-fluorophenyl)acetate", "2-(4-Fluorophenyl)glycine"], "SMILES": "C(C(O)=O)(N)C1=CC=C(F)C=C1", "physical_data": {"Molecular Weight": "169.15", "Molecular Formula": "C8H8FNO2", "Melting Point": "270-271 \u00b0C"}}