{"cas_no": "7292-16-2", "cn_name": "\u4e19\u866b\u78f7", "en_name": ["Propaphos", "Phosphoric acid, 4-(methylthio)phenyl dipropyl ester", "Phosphoric acid, p-(methylthio)phenyl dipropyl ester", "Propaphos", "O,O-Dipropyl O-4-methylthiophenyl phosphate", "Kayaphos", "Kayphosnac"], "SMILES": "P(OC1=CC=C(SC)C=C1)(OCCC)(OCCC)=O", "physical_data": {"Molecular Weight": "304.34", "Molecular Formula": "C13H21O4PS", "Boiling Point": "175-177 \u00b0C @ Press: 0.85 Torr", "Melting Point": "&lt;25 \u00b0C", "Density": "1.1504 g/cm\u00b3 @ Temp: 20 \u00b0C"}}