{"cas_no": "72934-37-3", "cn_name": "1-(4-\u6c2f\u82ef\u57fa)-1-\u73af\u4e19\u70f7\u7fa7\u9178", "en_name": ["1-(4-Chlorophenyl)cyclopropanecarboxylic acid", "Cyclopropanecarboxylic acid, 1-(4-chlorophenyl)-", "1-(4-Chlorophenyl)cyclopropanecarboxylic acid", "1-(4-Chlorophenyl)-1-cyclopropanecarboxylic acid", "NSC 152142"], "SMILES": "C(O)(=O)C1(CC1)C2=CC=C(Cl)C=C2", "physical_data": {"Molecular Weight": "196.63", "Molecular Formula": "C10H9ClO2", "Melting Point": "154-156 \u00b0C"}}