{"cas_no": "7295-76-3", "cn_name": "3-\u7532\u6c27\u57fa\u5421\u5576", "en_name": ["3-Methoxypyridine", "Pyridine, 3-methoxy-", "3-Methoxypyridine", "\u03b2-Methoxypyridine"], "SMILES": "O(C)C=1C=CC=NC1", "physical_data": {"Molecular Weight": "109.13", "Molecular Formula": "C6H7NO", "Boiling Point": "179 \u00b0C"}}