{"cas_no": "7295-44-5", "cn_name": "4'-\u6eb4\u82ef\u620a\u916e", "en_name": ["1-(4-Bromophenyl)-1-pentanone", "1-Pentanone, 1-(4-bromophenyl)-", "Valerophenone, 4\u2032-bromo-", "1-(4-Bromophenyl)-1-pentanone", "p-Bromovalerophenone", "p-Bromophenyl butyl ketone", "4\u2032-Bromovalerophenone", "p-Pentanoylbromobenzene", "1-Bromo-4-pentanoylbenzene", "4\u2032-Bromopentanophenone", "NSC 76560"], "SMILES": "C(CCCC)(=O)C1=CC=C(Br)C=C1", "physical_data": {"Molecular Weight": "241.12", "Molecular Formula": "C11H13BrO", "Boiling Point": "168-169 \u00b0C", "Melting Point": "37-38 \u00b0C"}}