{"cas_no": "7295-85-4", "cn_name": "\u513f\u8336\u7d20", "en_name": ["(\u00b1)-Catechol", "2H-1-Benzopyran-3,5,7-triol, 2-(3,4-dihydroxyphenyl)-3,4-dihydro-, (2R,3S)-rel-", "Catechol, (\u00b1)-", "2H-1-Benzopyran-3,5,7-triol, 2-(3,4-dihydroxyphenyl)-3,4-dihydro-, trans-(\u00b1)-", "rel-(2R,3S)-2-(3,4-Dihydroxyphenyl)-3,4-dihydro-2H-1-benzopyran-3,5,7-triol", "dl-Catechin", "dl-Catechol", "(\u00b1)-Catechol", "(\u00b1)-Catechin", "DL-Catechin", "rac-Catechin", "Racemic catechin", "2H-1-Benzopyran-3,5,7-triol, 2-(3,4-dihydroxyphenyl)-3,4-dihydro-, trans-"], "SMILES": "OC1C(OC=2C(C1)=C(O)C=C(O)C2)C3=CC(O)=C(O)C=C3", "physical_data": {"Molecular Weight": "290.27", "Molecular Formula": "C15H14O6", "Melting Point": "212-216 \u00b0C"}}