{"cas_no": "72956-09-3", "cn_name": "\u5361\u7ef4\u5730\u6d1b", "en_name": ["Carvedilol", "2-Propanol, 1-(9H-carbazol-4-yloxy)-3-[[2-(2-methoxyphenoxy)ethyl]amino]-", "1-(9H-Carbazol-4-yloxy)-3-[[2-(2-methoxyphenoxy)ethyl]amino]-2-propanol", "BM 14190", "Carvedilol", "DQ 2466", "SKF 105517", "(\u00b1)-Carvedilol", "Coreg", "Dilatrend", "Eucardic", "Querto", "Carvediol", "Kredex", "Dimitone", "Artist", "1-(9H-Carbazol-4-yloxy)-3-[[2-(2-methoxyphenoxy)ethyl]amino]propan-2-ol", "Cardivas", "Carca", "Carloc", "Korvasan", "Carvas", "Talliton", "Cadilan", "Carvexal", "Coronis", "Carvil"], "SMILES": "O(CC(CNCCOC1=C(OC)C=CC=C1)O)C2=C3C=4C(NC3=CC=C2)=CC=CC4", "physical_data": {"Molecular Weight": "406.47", "Molecular Formula": "C24H26N2O4", "Melting Point": "114-115 \u00b0C"}}