{"cas_no": "72963-77-0", "cn_name": "\u798f\u53f8\u53ef\u6797", "en_name": ["(3R,4aR,5S,6S,6aS,10aS,10bS)-5-(Acetyloxy)-3-ethenyldodecahydro-6,10b-dihydroxy-3,4a,7,7,10a-pentamethyl-1H-naphtho[2,1-b]pyran-1-one", "1H-Naphtho[2,1-b]pyran-1-one, 5-(acetyloxy)-3-ethenyldodecahydro-6,10b-dihydroxy-3,4a,7,7,10a-pentamethyl-, (3R,4aR,5S,6S,6aS,10aS,10bS)-", "1H-Naphtho[2,1-b]pyran-1-one, 5-(acetyloxy)-3-ethenyldodecahydro-6,10b-dihydroxy-3,4a,7,7,10a-pentamethyl-, [3R-(3\u03b1,4a\u03b2,5\u03b2,6\u03b2,6a\u03b1,10a\u03b2,10b\u03b1)]-", "(3R,4aR,5S,6S,6aS,10aS,10bS)-5-(Acetyloxy)-3-ethenyldodecahydro-6,10b-dihydroxy-3,4a,7,7,10a-pentamethyl-1H-naphtho[2,1-b]pyran-1-one", "Coleonol D", "1-Deoxyforskolin", "Forskolin F"], "SMILES": "CC12C(O)(C3(C)C(C(O)C1OC(C)=O)C(C)(C)CCC3)C(=O)CC(C=C)(C)O2", "physical_data": {"Molecular Weight": "394.50", "Molecular Formula": "C22H34O6", "Melting Point": "135-136 \u00b0C"}}