{"cas_no": "72962-43-7", "cn_name": "\u82b8\u82d4\u7d20\u5185\u916f", "en_name": ["Brassinolide", "6H-Benz[c]indeno[5,4-e]oxepin-6-one, 1-[(1S,2R,3R,4S)-2,3-dihydroxy-1,4,5-trimethylhexyl]hexadecahydro-8,9-dihydroxy-10a,12a-dimethyl-, (1R,3aS,3bS,6aS,8S,9R,10aR,10bS,12aS)-", "B-Homo-7-oxaergostan-6-one, 2,3,22,23-tetrahydroxy-, (2\u03b1,3\u03b1,5\u03b1,22R,23R,24S)-", "(1R,3aS,3bS,6aS,8S,9R,10aR,10bS,12aS)-1-[(1S,2R,3R,4S)-2,3-Dihydroxy-1,4,5-trimethylhexyl]hexadecahydro-8,9-dihydroxy-10a,12a-dimethyl-6H-benz[c]indeno[5,4-e]oxepin-6-one", "Brassinolide", "6H-Benz[c]indeno[5,4-e]oxepin-6-one, 1-(2,3-dihydroxy-1,4,5-trimethylhexyl)hexadecahydro-8,9-dihydroxy-10a,12a-dimethyl-, [1R-[1\u03b1(1S*,2R*,3R*,4S*),3a\u03b2,3b\u03b1,6a\u03b2,8\u03b2,9\u03b2,10a\u03b1,10b\u03b2,12a\u03b1]]-", "Brassin lactone"], "SMILES": "CC12C(C3C(C4(C)C(C(=O)OC3)CC(O)C(O)C4)CC1)CCC2C(C(C(C(C(C)C)C)O)O)C", "physical_data": {"Molecular Weight": "480.68", "Molecular Formula": "C28H48O6", "Melting Point": "274-278 \u00b0C"}}