{"cas_no": "72963-72-5", "cn_name": "\u7094\u54aa\u83ca\u916f", "en_name": ["Imiprothrin", "Cyclopropanecarboxylic acid, 2,2-dimethyl-3-(2-methyl-1-propen-1-yl)-, [2,5-dioxo-3-(2-propyn-1-yl)-1-imidazolidinyl]methyl ester", "Cyclopropanecarboxylic acid, 2,2-dimethyl-3-(2-methyl-1-propenyl)-, [2,5-dioxo-3-(2-propynyl)-1-imidazolidinyl]methyl ester", "Imiprothrin", "S 4056F", "S 41311", "Pralle T"], "SMILES": "C(=C(C)C)C1C(C(OCN2C(=O)N(CC#C)CC2=O)=O)C1(C)C", "physical_data": {"Molecular Weight": "318.37", "Molecular Formula": "C17H22N2O4", "Melting Point": "&lt;25 \u00b0C", "Density": "1.1 g/cm\u00b3"}}