{"cas_no": "7296-56-2", "cn_name": "L-(+)-\u963f\u62c9\u4f2f\u7cd6", "en_name": ["\u03b2-L-Arabinopyranose", "\u03b2-L-Arabinopyranose", "Arabinopyranose, \u03b2-L-", "\u03b2-L-Arabinose"], "SMILES": "OC1C(O)C(O)OCC1O", "physical_data": {"Molecular Weight": "150.13", "Molecular Formula": "C5H10O5", "Melting Point": "157 \u00b0C"}}