{"cas_no": "7298-65-9", "cn_name": "\u8367\u5149\u7d20\u4e8c\u4e01\u9178\u916f", "en_name": ["Butanoic acid, 1,1\u2032-(3-oxospiro[isobenzofuran-1(3H),9\u2032-[9H]xanthene]-3\u2032,6\u2032-diyl) ester", "Butanoic acid, 1,1\u2032-(3-oxospiro[isobenzofuran-1(3H),9\u2032-[9H]xanthene]-3\u2032,6\u2032-diyl) ester", "Butanoic acid, 3-oxospiro[isobenzofuran-1(3H),9\u2032-[9H]xanthene]-3\u2032,6\u2032-diyl ester", "Fluorescein, dibutyrate", "Butyric acid, diester with fluorescein", "Spiro[isobenzofuran-1(3H),9\u2032-[9H]xanthene], butanoic acid deriv.", "NSC 83608"], "SMILES": "O=C1OC2(C=3C(OC=4C2=CC=C(OC(CCC)=O)C4)=CC(OC(CCC)=O)=CC3)C=5C1=CC=CC5", "physical_data": {"Molecular Weight": "472.49", "Molecular Formula": "C28H24O7", "Melting Point": "123 \u00b0C"}}