{"cas_no": "7298-67-1", "cn_name": "2-\u7f9f\u57fa-5-\u4e59\u9170\u6c28\u57fa\u82ef\u4e59\u916e", "en_name": ["N-(3-Acetyl-4-hydroxyphenyl)acetamide", "Acetamide, N-(3-acetyl-4-hydroxyphenyl)-", "Acetanilide, 3\u2032-acetyl-4\u2032-hydroxy-", "N-(3-Acetyl-4-hydroxyphenyl)acetamide", "5\u2032-Acetamido-2\u2032-hydroxyacetophenone", "2-Acetyl-4-acetamidophenol", "5-Acetamido-2-hydroxyacetophenone", "3-Acetyl-4-hydroxyacetanilide", "5\u2032-(Acetylamino)-2\u2032-hydroxyacetophenone", "2-Acetyl-4-acetylamino-5-nitrophenol"], "SMILES": "N(C(C)=O)C1=CC(C(C)=O)=C(O)C=C1", "physical_data": {"Molecular Weight": "193.20", "Molecular Formula": "C10H11NO3", "Melting Point": "165 \u00b0C"}}