{"cas_no": "7298-84-2", "cn_name": "L-\u4eae\u6c28\u9178-L-\u4e19\u6c28\u9178", "en_name": ["L-Leucyl-L-alanine", "L-Alanine, L-leucyl-", "Alanine, N-L-leucyl-, L-", "L-Alanine, N-L-leucyl-", "Alanine, N-leucyl-", "L-Leucyl-L-alanine", "Leucylalanine", "NSC 89180", "1970: PN: EP2071334 SEQID: 2077 claimed protein", "1970: PN: WO2009077864 SEQID: 2077 claimed protein", "1: PN: US20090239809 SEQID: 1 claimed protein", "90: PN: EP2161028 PAGE: 10 claimed protein", "25: PN: WO2011146121 PAGE: 114 claimed sequence", "104: PN: WO2013044298 SEQID: 131 unclaimed protein", "109: PN: WO2014102104 SEQID: 208 claimed protein", "109: PN: WO2014102101 SEQID: 409 claimed protein", "149: PN: WO2014102103 TABLE: 1 claimed protein", "128: PN: WO2014102100 TABLE: 1 claimed protein", "68: PN: WO2020097235 SEQID: 297 claimed protein", "52: PN: WO2021068040 SEQID: 67 claimed protein", "336: PN: WO2021146320 SEQID: 336 claimed protein", "168: PN: WO2022105914 SEQID: 174 claimed protein", "362: PN: WO2022175413 SEQID: 478 claimed protein"], "SMILES": "C(NC(C(O)=O)C)(C(CC(C)C)N)=O", "physical_data": {"Molecular Weight": "202.25", "Molecular Formula": "C9H18N2O3", "Melting Point": "255-256 \u00b0C (decomp)"}}