{"cas_no": "7299-91-4", "cn_name": "\u5df4\u8c46\u9178\u6b63\u4e01\u916f", "en_name": ["Butyl 2-butenoate", "2-Butenoic acid, butyl ester", "Crotonic acid, butyl ester", "Butyl 2-butenoate", "Butyl crotonate", "n-Butyl crotonate", "n-Butyl 2-butenoate"], "SMILES": "O(C(C=CC)=O)CCCC", "physical_data": {"Molecular Weight": "142.20", "Molecular Formula": "C8H14O2", "Boiling Point": "75-76 \u00b0C @ Press: 13 Torr"}}