{"cas_no": "73-05-2", "cn_name": "\u76d0\u9178\u915a\u59a5\u62c9\u660e", "en_name": ["Phentolamine hydrochloride", "Phenol, 3-[[(4,5-dihydro-1H-imidazol-2-yl)methyl](4-methylphenyl)amino]-, hydrochloride (1:1)", "Phenol, m-[N-(2-imidazolin-2-ylmethyl)-p-toluidino]-, monohydrochloride", "Phenol, 3-[[(4,5-dihydro-1H-imidazol-2-yl)methyl](4-methylphenyl)amino]-, monohydrochloride", "DNP", "m-[N-(2-Imidazolin-2-ylmethyl)-p-toluidino]phenol hydrochloride", "Phentolamine hydrochloride", "Regitine hydrochloride", "Phentolamine chloride"], "SMILES": "N(CC=1NCCN1)(C2=CC(O)=CC=C2)C3=CC=C(C)C=C3.Cl", "physical_data": {"Molecular Weight": "", "Molecular Formula": "C17H19N3O.ClH", "Melting Point": "239-240 \u00b0C"}}