{"cas_no": "73-03-0", "cn_name": "\u866b\u8349\u7d20", "en_name": ["Cordycepin", "Adenosine, 3\u2032-deoxy-", "Cordycepin", "3\u2032-Deoxyadenosine", "9-Cordyceposidoadenine", "9H-Purin-6-amine, 9-(3-deoxy-\u03b2-D-erythro-pentofuranosyl)-", "\u03b2-D-erythro-Pentofuranoside, adenine-9 3-deoxy-", "Cordycepine", "9-(3-Deoxy-\u03b2-D-ribofuranosyl)adenine", "NSC 63984", "NSC 401022", "NQZ-001"], "SMILES": "OC1C(N2C=3C(N=C2)=C(N)N=CN3)OC(CO)C1", "physical_data": {"Molecular Weight": "251.24", "Molecular Formula": "C10H13N5O3", "Melting Point": "225.5 \u00b0C"}}