{"cas_no": "73-22-3", "cn_name": "L-\u8272\u6c28\u9178", "en_name": ["L-Tryptophan", "L-Tryptophan", "Tryptophan, L-", "l-\u03b2-3-Indolylalanine", "Tryptophane", "Tryptophan", "L-Tryptophane", "1H-Indole-3-propanoic acid, \u03b1-amino-, (S)-", "L-(-)-Tryptophan", "l-\u03b1-Aminoindole-3-propionic acid", "2-Amino-3-indolylpropanoic acid", "(S)-\u03b1-Aminoindole-3-propionic acid", "(-)-Tryptophan", "1H-Indole-3-alanine, (S)-", "EH 121", "(S)-Tryptophan", "(S)-\u03b1-Amino-1H-indole-3-propanoic acid", "(S)-\u03b1-Amino-\u03b2-indolepropionic acid", "3-Indol-3-ylalanine", "L-Alanine, 3-(1H-indol-3-yl)-", "Lyphan", "NSC 13119", "(2S)-2-Amino-3-(1H-indol-3-yl)propanoic acid", "(S)-2-Amino-3-(1H-indol-3-yl)propanoic acid", "(2S)-2-Amino-3-(1H-indol-3-yl)propanoic acid", "(2S)-2-Azaniumyl-3-(1H-indol-3-yl)propanoate", "MeSH ID: D014364"], "SMILES": "C(C(C(O)=O)N)C=1C=2C(NC1)=CC=CC2", "physical_data": {"Molecular Weight": "204.23", "Molecular Formula": "C11H12N2O2", "Melting Point": "282 \u00b0C"}}