{"cas_no": "73-24-5", "cn_name": "\u817a\u560c\u5464", "en_name": ["Adenine", "9H-Purin-6-amine", "Adenine", "1H-Purin-6-amine", "6-Aminopurine", "Vitamin B4", "Adeninimine", "6-Amino-1H-purine", "6-Amino-3H-purine", "6-Amino-9H-purine", "1,6-Dihydro-6-iminopurine", "Leuco 4", "3,6-Dihydro-6-iminopurine", "Pedatisectine B", "NSC 14666", "9H-Adenine", "3H-Purin-6-amine", "7H-Purin-6-amine", "(9H-Purin-6-yl)amine", "MeSH ID: D000225"], "SMILES": "NC1=C2C(=NC=N1)N=CN2", "physical_data": {"Molecular Weight": "135.13", "Molecular Formula": "C5H5N5", "Melting Point": "360 \u00b0C (decomp)"}}