{"cas_no": "73-32-5", "cn_name": "L-\u5f02\u4eae\u6c28\u9178", "en_name": ["L-Isoleucine", "L-Isoleucine", "Isoleucine, L-", "Isoleucine", "erythro-L-Isoleucine", "2-Amino-3-methylvaleric acid", "(2S,3S)-\u03b1-Amino-\u03b2-methylvaleric acid", "L-(+)-Isoleucine", "[S-(R*,R*)]-2-Amino-3-methylpentanoic acid", "(S)-Isoleucine", "(2S,3S)-\u03b1-Amino-\u03b2-methyl-n-valeric acid", "(2S,3S)-2-Amino-3-methylpentanoic acid", "(S,S)-Isoleucine", "2S,3S-Isoleucine", "L-Norvaline, 3-methyl-, erythro-", "L-Ile", "Pentanoic acid, 2-amino-3-methyl-, (2S,3S)-", "NSC 46708", "Isoleucine, (2S,3\u03be)-", "516: PN: WO2022056313 SEQID: 532 claimed protein", "362: PN: US20220128567 SEQID: 532 claimed protein", "362: PN: US20220178935 SEQID: 532 claimed protein", "MeSH ID: D007532"], "SMILES": "C(C(CC)C)(C(O)=O)N", "physical_data": {"Molecular Weight": "131.17", "Molecular Formula": "C6H13NO2", "Melting Point": "285.5 \u00b0C (decomp)"}}