{"cas_no": "73-31-4", "cn_name": "\u892a\u9ed1\u7d20", "en_name": ["Melatonin", "Acetamide, N-[2-(5-methoxy-1H-indol-3-yl)ethyl]-", "Acetamide, N-[2-(5-methoxyindol-3-yl)ethyl]-", "N-[2-(5-Methoxy-1H-indol-3-yl)ethyl]acetamide", "N-Acetyl-5-methoxytryptamine", "Melatonin", "Melatonine", "5-Methoxy-N-acetyltryptamine", "N-[2-(5-Methoxyindol-3-yl)ethyl]acetamide", "Regulin", "Melovine", "Circadin", "Melatol", "NSC 113928", "NSC 56423", "3-(2-Acetamidoethyl)-5-methoxyindole", "Melaxen", "Slenyto", "MeSH ID: D008550"], "SMILES": "C(CNC(C)=O)C=1C=2C(NC1)=CC=C(OC)C2", "physical_data": {"Molecular Weight": "232.28", "Molecular Formula": "C13H16N2O2", "Melting Point": "117 \u00b0C", "Density": "1.269 g/cm\u00b3"}}