{"cas_no": "73-49-4", "cn_name": "\u55b9\u567b\u916e", "en_name": ["Quinethazone", "6-Quinazolinesulfonamide, 7-chloro-2-ethyl-1,2,3,4-tetrahydro-4-oxo-", "7-Chloro-2-ethyl-1,2,3,4-tetrahydro-4-oxo-6-quinazolinesulfonamide", "Aquamox", "7-Chloro-2-ethyl-2,3-dihydro-4-oxo-(1H)-quinazoline-6-sulfonamide", "7-Chloro-2-ethyl-6-sulfamyl-1,2,3,4-tetrahydro-4-quinazolinone", "7-Chloro-2-ethyl-1,2,3,4-tetrahydro-4-oxo-6-sulfamoylquinazoline", "2-Ethyl-7-chloro-2,3-dihydro-4(1H)-quinazolone-6-sulfonamide", "Hydromox", "Quinethazone", "Quinethazonum", "2-Ethyl-7-chloro-1,2,3,4-tetrahydro-4-oxoquinazoline-6-sulfonamide", "CL 36010", "Idrokin", "Quinethazon", "Quimethazin"], "SMILES": "O=C1C=2C(NC(CC)N1)=CC(Cl)=C(S(N)(=O)=O)C2", "physical_data": {"Molecular Weight": "289.74", "Molecular Formula": "C10H12ClN3O3S", "Melting Point": "250-252 \u00b0C"}}