{"cas_no": "73-48-3", "cn_name": "\u82c4\u6c1f\u567b\u55ea", "en_name": ["Bendroflumethiazide", "2H-1,2,4-Benzothiadiazine-7-sulfonamide, 3,4-dihydro-3-(phenylmethyl)-6-(trifluoromethyl)-, 1,1-dioxide", "2H-1,2,4-Benzothiadiazine-7-sulfonamide, 3-benzyl-3,4-dihydro-6-(trifluoromethyl)-, 1,1-dioxide", "Aprinox", "Bendrofluazide", "Bendroflumethiazide", "Bentride", "Benuron", "Benzhydroflumethiazide", "3-Benzyl-3,4-dihydro-7-sulfamoyl-6-trifluoromethylbenzo-1,2,4-thiadiazine 1,1-dioxide", "3-Benzyl-3,4-dihydro-7-sulphamoyl-6-trifluoromethylbenzo-1,2,4-thiadiazine 1,1-dioxide", "3-Benzyl-3,4-dihydro-6-(trifluoromethyl)-2H-1,2,4-benzothiadiazine-7-sulfonamide 1,1-dioxide", "Benzylhydroflumethiazide", "Benzylrodiuran", "3-Benzyl-6-trifluoromethyl-7-sulfamoyl-3,4-dihydro-1,2,4-benzothiadiazine 1,1-dioxide", "Centyl", "Intolex", "Nateretin", "Naturetin", "Naturine", "Neonaclex", "Pluryl", "Plusuril", "Repicin", "Salures", "Thiazidico", "6-Trifluoromethyl-3-benzyl-7-sulfamyl-3,4-dihydro-1,2,4-benzothiadiazine 1,1-dioxide", "Benzidroflumetiazide", "Bristuric", "Bristuron", "Flumesil", "Niagaril", "Pluryle", "Poliuron", "Relan", "Salural", "Sodiuretic", "Urlea", "Orsile", "Livesan", "FT 81", "Be 724A", "Sinesalin", "Neo-Rontyl", "Sinesaline", "(\u00b1)-Bendroflumethiazide", "Racemic bendroflumethiazide", "Rauzide", "Benzy-Rodiuran", "Benzydroflumethiazide", "Corzide", "Naigaril", "Nikion", "Berkozide", "Relan Beta", "Flumersil", "MeSH ID: D001539"], "SMILES": "O=S1(=O)C=2C(=CC(C(F)(F)F)=C(S(N)(=O)=O)C2)NC(CC3=CC=CC=C3)N1", "physical_data": {"Molecular Weight": "421.41", "Molecular Formula": "C15H14F3N3O4S2", "Melting Point": "221-223 \u00b0C"}}