{"cas_no": "73-40-5", "cn_name": "\u9e1f\u560c\u5464", "en_name": ["Guanine", "6H-Purin-6-one, 2-amino-1,9-dihydro-", "Guanine", "6H-Purin-6-one, 2-amino-1,7-dihydro-", "2-Amino-1,9-dihydro-6H-purin-6-one", "C.I. 75170", "2-Aminohypoxanthine", "C.I. Natural White 1", "Hypoxanthine, 2-amino-", "Pearl Essence", "Stella Polaris", "2-Amino-6-hydroxypurine", "2-Amino-6-hydroxy-1H-purine", "Guanine enol", "Dew Pearl", "Naturon", "Guanin", "Mearlmaid", "Natural Pearl Essence", "Natural White 1", "Mearlmaid AA", "9H-Guanine", "2-Amino-6,7-dihydro-1H-purin-6-one", "2-Imino-2,3-dihydro-1H-purin-6-ol", "2-Amino-6,7-dihydro-3H-purin-6-one", "2-Amino-1H-purin-6(7H)-one", "2-Amino-9H-purin-6-ol", "2-Amino-3,7-dihydropurin-6-one", "2-Amino-6,9-dihydro-3H-purin-6-one", "2-Amino-1,9-dihydro-purin-6-one", "2-Amino-6,9-dihydro-1H-purin-6-one", "MeSH ID: D006147"], "SMILES": "O=C1C2=C(NC(N)=N1)N=CN2", "physical_data": {"Molecular Weight": "151.13", "Molecular Formula": "C5H5N5O", "Melting Point": "360 \u00b0C (decomp)"}}