{"cas_no": "73-67-6", "cn_name": "4-\u6c28\u57fa-5-\u7f9f\u57fa\u7532\u57fa-2-\u7532\u57fa\u5627\u5576", "en_name": ["4-Amino-2-methyl-5-pyrimidinemethanol", "5-Pyrimidinemethanol, 4-amino-2-methyl-", "4-Amino-2-methyl-5-pyrimidinemethanol", "4-Amino-5-hydroxymethyl-2-methylpyrimidine", "6-Amino-5-hydroxymethyl-2-methylpyrimidine", "2-Methyl-4-amino-5-pyrimidinemethanol", "2-Methyl-4-amino-5-(hydroxymethyl)pyrimidine", "OMPM", "Pyramin", "Toxopyrimidine", "TXP", "Pyramine", "Pyrazan", "2-Methyl-5-hydroxymethyl-6-aminopyrimidine", "2-Methyl-6-amino-5-hydroxymethylpyrimidine", "Pyramine (pyridoxine antagonist)", "NSC 28247", "4-Amino-2-methyl-5-hydroxymethylpyrimidine", "(4-Imino-2-methyl-1,4-dihydropyrimidin-5-yl)methanol", "(4-Amino-2-methyl-pyrimidin-5-yl)-methanol"], "SMILES": "C(O)C=1C(N)=NC(C)=NC1", "physical_data": {"Molecular Weight": "139.16", "Molecular Formula": "C6H9N3O", "Melting Point": "198 \u00b0C"}}