{"cas_no": "73-63-2", "cn_name": "\u0392-\u54cc\u5576\u5b50\u57fa\u82ef\u4e19\u916e", "en_name": ["1-Phenyl-3-(1-piperidinyl)-1-propanone", "1-Propanone, 1-phenyl-3-(1-piperidinyl)-", "Propiophenone, 3-piperidino-", "1-Phenyl-3-(1-piperidinyl)-1-propanone", "NA 65", "3-Piperidinopropiophenone", "\u03b2-Piperidinopropiophenone", "N-(\u03b2-Benzoylethyl)piperidine", "3-Piperidino-1-phenylpropan-1-one", "1-Phenyl-3-piperidinopropan-1-one", "NSC 5755"], "SMILES": "C(CCN1CCCCC1)(=O)C2=CC=CC=C2", "physical_data": {"Molecular Weight": "217.31", "Molecular Formula": "C14H19NO", "Boiling Point": "135-136 \u00b0C @ Press: 1.0 Torr", "Melting Point": "192-193 \u00b0C"}}