{"cas_no": "73-78-9", "cn_name": "\u76d0\u9178\u5229\u591a\u5361\u56e0", "en_name": ["Lidocaine hydrochloride", "Acetamide, 2-(diethylamino)-N-(2,6-dimethylphenyl)-, hydrochloride (1:1)", "2\u2032,6\u2032-Acetoxylidide, 2-(diethylamino)-, monohydrochloride", "Acetamide, 2-(diethylamino)-N-(2,6-dimethylphenyl)-, monohydrochloride", "2-(Diethylamino)-2\u2032,6\u2032-acetoxylidide hydrochloride", "2-(Diethylamino)-2\u2032,6\u2032-dimethylacetanilide hydrochloride", "Lignocaine hydrochloride", "Xylocaine hydrochloride", "Lidocaine hydrochloride", "Xycaine hydrochloride", "Lidocain hydrochloride", "Xylocard", "Metaclopromide hydrochloride", "Xilina hydrochloride", "Lidothesin", "Xylotox", "Alphacaine", "DioCaine", "Lidocaine monohydrochloride", "Irtopan", "Odontalg", "Lidesthesin", "Xyloneural", "Versicane", "Lignavet", "Sedagul", "Xylocaine Astra", "Luan", "Proliferol", "Rapidocaine", "Xylanaest purum", "Jetmonal", "2-(Diethylamino)-N-(2,6-dimethylphenyl)acetamide hydrochloride", "Otipax", "Otirelax", "Akten"], "SMILES": "N(C(CN(CC)CC)=O)C1=C(C)C=CC=C1C.Cl", "physical_data": {"Molecular Weight": "", "Molecular Formula": "C14H22N2O.ClH", "Melting Point": "77-78 \u00b0C"}}