{"cas_no": "73-70-1", "cn_name": "2,5-\u4e8c\u7532\u57fa\u5627\u5576-4-\u80fa", "en_name": ["2,5-Dimethyl-4-pyrimidinamine", "4-Pyrimidinamine, 2,5-dimethyl-", "Pyrimidine, 4-amino-2,5-dimethyl-", "2,5-Dimethyl-4-pyrimidinamine", "4-Amino-2,5-dimethylpyrimidine", "2,5-Dimethyl-4-aminopyrimidine", "2,5-Dimethylpyrimidin-4-amine"], "SMILES": "NC=1C(C)=CN=C(C)N1", "physical_data": {"Molecular Weight": "123.16", "Molecular Formula": "C6H9N3", "Melting Point": "201-202 \u00b0C"}}