{"cas_no": "730-08-5", "cn_name": "H-TYR-ALA-OH", "en_name": ["Tyrosylalanine", "L-Alanine, L-tyrosyl-", "Alanine, N-L-tyrosyl-, L-", "L-Alanine, N-L-tyrosyl-", "Alanine, N-tyrosyl-", "L-Tyrosyl-L-alanine", "Tyrosylalanine", "46: PN: WO2007067983 SEQID: 195 unclaimed protein", "477: PN: EP2161028 TABLE: 5 claimed protein", "35: PN: WO2011146121 PAGE: 114 claimed sequence", "4: PN: KR20160105022 PAGE: 4 claimed sequence", "317: PN: WO2021146320 SEQID: 317 claimed protein", "26: PN: WO2021147954 SEQID: 26 claimed protein", "53: PN: WO2021244721 SEQID: 68 claimed protein", "159: PN: WO2022152282 SEQID: 219 claimed protein", "90: PN: WO2022240360 SEQID: 98 claimed protein"], "SMILES": "C(C(C(NC(C(O)=O)C)=O)N)C1=CC=C(O)C=C1", "physical_data": {"Molecular Weight": "252.27", "Molecular Formula": "C12H16N2O4", "Melting Point": "230 \u00b0C (decomp)"}}