{"cas_no": "730-40-5", "cn_name": "\u5206\u6563\u6a593 C.I.11005", "en_name": ["4-Amino-4\u2032-nitroazobenzene", "Benzenamine, 4-[2-(4-nitrophenyl)diazenyl]-", "C.I. Disperse Orange 3", "Benzenamine, 4-[(4-nitrophenyl)azo]-", "4-[2-(4-Nitrophenyl)diazenyl]benzenamine", "C.I. 11005", "Acetamine Orange GR", "Acetate Fast Orange G", "Acetate Fast Orange GR", "Acetoquinone Light Orange JRL", "Altocyl Orange GR", "Amacel Orange GR", "Artisil Direct Orange 2R", "Artisil Orange 2R", "Celliton Discharge Orange GRL", "Celliton Fast Orange GR", "Celliton Orange GR", "Celliton Orange GRA", "Celutate Orange GRH", "Cibacete Orange 2RN", "Cibacet Orange 2R", "Cilla Fast Orange GR", "Diacelliton Fast Orange GL", "Disperse Orange GR", "Dispersol Fast Orange G", "Durgacet Orange GR", "Eastman Orange GRN", "Eastone Orange 2R", "Eniacyl Orange GR", "Fenacet Orange G", "Interchem Acetate Orange GL", "Kayalon Fast Orange GR", "Microsetile Orange GR", "Miketon Fast Orange GR", "Nacelan Orange GR", "Neosetile Orange GR", "p-Nitro-p\u2032-aminoazobenzene", "Nyloquinone Orange 2R", "Oracet Orange 2R", "Perliton Orange 6R", "Reliton Orange GR", "Serilic Orange GXD", "Setacyl Orange GR", "Setacyl Orange RE", "Silotras Orange TSGR", "Supracet Fast Orange G", "Vonteryl Orange GS", "Disperse Orange 3", "4-Amino-4\u2032-nitroazobenzene", "4\u2032-Nitro-4-aminoazobenzene", "4-Nitro-4\u2032-aminoazobenzene", "C.I. Solvent Orange 9", "Disperse Orange Zh", "Transetile Orange P-GR", "Dispersol Orange AG", "p-(p-Nitrophenylazo)aniline", "Synten Orange 2R", "Ostacet Orange P 2R", "Atlantic Disperse Orange GRA", "4-(4-Nitrophenylazo)aniline", "4-[(4-Nitrophenyl)azo]benzenamine", "Akasperse Orange RBA", "4-(4\u2032-Nitrophenylazo)aniline"], "SMILES": "N(=NC1=CC=C(N)C=C1)C2=CC=C(N(=O)=O)C=C2", "physical_data": {"Molecular Weight": "242.23", "Molecular Formula": "C12H10N4O2", "Melting Point": "215 \u00b0C"}}