{"cas_no": "7300-91-6", "cn_name": "4-\u9a6c\u6765\u9170\u4e9a\u80fa\u57fa\u82ef\u915a", "en_name": ["N-(4-Hydroxyphenyl)maleimide", "1H-Pyrrole-2,5-dione, 1-(4-hydroxyphenyl)-", "Maleimide, N-(p-hydroxyphenyl)-", "1-(4-Hydroxyphenyl)-1H-pyrrole-2,5-dione", "N-(4-Hydroxyphenyl)maleimide", "N-(p-Hydroxyphenyl)maleimide", "p-Maleimidophenol", "4-Maleimidophenol", "NSC 148152", "NSC 39735", "1-(4-Hydroxy-phenyl)pyrrole-2,5-dione", "1-(4-Hydroxyphenyl)-2,5-dihydro-1H-pyrrole-2,5-dione"], "SMILES": "O=C1N(C(=O)C=C1)C2=CC=C(O)C=C2", "physical_data": {"Molecular Weight": "189.17", "Molecular Formula": "C10H7NO3", "Melting Point": "154-155 \u00b0C"}}