{"cas_no": "73003-80-2", "cn_name": "2,2-\u4e8c\u6eb4-\u4e19\u4e8c\u9170\u80fa", "en_name": ["2,2-Dibromomalonamide", "Propanediamide, 2,2-dibromo-", "Malonamide, 2,2-dibromo-", "2,2-Dibromopropanediamide", "Dibromomalonic acid diamide", "2,2-Dibromomalonamide"], "SMILES": "C(C(N)=O)(C(N)=O)(Br)Br", "physical_data": {"Molecular Weight": "259.88", "Molecular Formula": "C3H4Br2N2O2", "Melting Point": "203 \u00b0C"}}