{"cas_no": "7300-34-7", "cn_name": "4,9-\u4e8c\u5641-1,12\u5341\u4e8c\u70f7\u4e8c\u80fa", "en_name": ["4,9-Dioxa-1,12-dodecanediamine", "1-Propanamine, 3,3\u2032-[1,4-butanediylbis(oxy)]bis-", "Propylamine, 3,3\u2032-(tetramethylenedioxy)bis-", "3,3\u2032-[1,4-Butanediylbis(oxy)]bis[1-propanamine]", "\u03b1,\u03c9-Diamino-4,9-dioxadodecane", "1,4-Butanediol bis(3-aminopropyl) ether", "1,4-Bis(3-aminopropoxy)butane", "3,3\u2032-(Tetramethylenedioxy)bis(propylamine)", "1,4-Bis(\u03b3-aminopropoxy)butane", "4,9-Dioxa-1,12-dodecanediamine", "3,3\u2032-(Tetramethylenedioxy)di(propanamine)", "1,12-Diamino-4,9-dioxadodecane", "4,9-Dioxa-1,12-diaminododecane", "NSC 36635", "1,12-Diamine-4,9-dioxadodecane", "B 12", "Baxxodur EC 280", "EC 280", "NDPA 12", "3,3\u2032-(Butane-1,4-diylbis(oxy))bis(propan-1-amine)"], "SMILES": "C(CCOCCCN)COCCCN", "physical_data": {"Molecular Weight": "204.31", "Molecular Formula": "C10H24N2O2", "Boiling Point": "125-130 \u00b0C @ Press: 4 Torr", "Density": "0.9324 g/cm\u00b3 @ Temp: 20 \u00b0C"}}