{"cas_no": "73013-68-0", "cn_name": "6-\u4e59\u9170\u57fa\u55b9\u5549", "en_name": ["1-(6-Quinolinyl)ethanone", "Ethanone, 1-(6-quinolinyl)-", "Ketone, methyl 6-quinolyl", "1-(6-Quinolinyl)ethanone", "6-Acetylquinoline", "NSC 87613"], "SMILES": "C(C)(=O)C1=CC2=C(C=C1)N=CC=C2", "physical_data": {"Molecular Weight": "171.20", "Molecular Formula": "C11H9NO", "Boiling Point": "145 \u00b0C @ Press: 2 Torr", "Melting Point": "77 \u00b0C"}}