{"cas_no": "73027-79-9", "cn_name": "4,6-\u4e8c\u6c2f\u70df\u9178", "en_name": ["4,6-Dichloronicotinic acid", "3-Pyridinecarboxylic acid, 4,6-dichloro-", "4,6-Dichloro-3-pyridinecarboxylic acid", "4,6-Dichloronicotinic acid", "4,6-Dichloropyridine-3-carboxylic acid"], "SMILES": "C(O)(=O)C=1C(Cl)=CC(Cl)=NC1", "physical_data": {"Molecular Weight": "192.00", "Molecular Formula": "C6H3Cl2NO2", "Melting Point": "152-153 \u00b0C"}}