{"cas_no": "7303-50-6", "cn_name": "7-\u6c2e\u6742\u8272\u6c28\u9178\u4e00\u6c34\u5408\u7269", "en_name": ["\u03b1-Amino-1H-pyrrolo[2,3-b]pyridine-3-propanoic acid", "1H-Pyrrolo[2,3-b]pyridine-3-propanoic acid, \u03b1-amino-", "1H-Pyrrolo[2,3-b]pyridine-3-propionic acid, \u03b1-amino-, DL-", "1H-Pyrrolo[2,3-b]pyridine-3-propanoic acid, \u03b1-amino-, (\u00b1)-", "\u03b1-Amino-1H-pyrrolo[2,3-b]pyridine-3-propanoic acid", "1H-Pyrrolo[2,3-b]pyridine-3-alanine", "NSC 19495", "Azatryptophan", "DL-Azatryptophan", "7-Aza-DL-tryptophan", "7-Azatryptophan", "Aza-T", "DL-7-Azatryptophan", "2-Azaniumyl-3-(1H-pyrrolo[2,3-b]pyridin-3-yl)propanoate", "2-Amino-3-[1H-pyrrolo[2,3-b]pyridin-3-yl]propanoic acid"], "SMILES": "C(C(C(O)=O)N)C=1C=2C(NC1)=NC=CC2", "physical_data": {"Molecular Weight": "205.21", "Molecular Formula": "C10H11N3O2", "Melting Point": "257-259 \u00b0C (decomp)"}}