{"cas_no": "73030-71-4", "cn_name": "\u767d\u672f\u5185\u916f III", "en_name": ["Atractylenolide III", "Naphtho[2,3-b]furan-2(4H)-one, 4a,5,6,7,8,8a,9,9a-octahydro-9a-hydroxy-3,8a-dimethyl-5-methylene-, (4aS,8aR,9aS)-", "Naphtho[2,3-b]furan-2(4H)-one, 4a,5,6,7,8,8a,9,9a-octahydro-9a-hydroxy-3,8a-dimethyl-5-methylene-, [4aS-(4a\u03b1,8a\u03b2,9a\u03b2)]-", "(4aS,8aR,9aS)-4a,5,6,7,8,8a,9,9a-Octahydro-9a-hydroxy-3,8a-dimethyl-5-methylenenaphtho[2,3-b]furan-2(4H)-one", "Atractylenolide III", "Codonolactone", "8\u03b2-Hydroxyasterolide", "Atractylenolide \u03b2"], "SMILES": "OC12C(CC3C(C)(C1)CCCC3=C)=C(C)C(=O)O2", "physical_data": {"Molecular Weight": "248.32", "Molecular Formula": "C15H20O3", "Melting Point": "166-169 \u00b0C"}}