{"cas_no": "73033-58-6", "cn_name": "5-\u6c2f-2-\u785d\u57fa\u82ef\u7532\u9187", "en_name": ["5-Chloro-2-nitrobenzenemethanol", "Benzenemethanol, 5-chloro-2-nitro-", "5-Chloro-2-nitrobenzenemethanol", "5-Chloro-2-nitrobenzyl alcohol", "(5-Chloro-2-nitrophenyl)methanol"], "SMILES": "C(O)C1=C(N(=O)=O)C=CC(Cl)=C1", "physical_data": {"Molecular Weight": "187.58", "Molecular Formula": "C7H6ClNO3", "Melting Point": "79.8-80.2 \u00b0C"}}