{"cas_no": "73043-80-8", "cn_name": "1-METHYL-7-NITRO-2H-3,1-BENZOXAZINE-2,4(1H)-DIONE", "en_name": ["1-Methyl-7-nitroisatoic anhydride", "2H-3,1-Benzoxazine-2,4(1H)-dione, 1-methyl-7-nitro-", "1-Methyl-7-nitro-2H-3,1-benzoxazine-2,4(1H)-dione", "1-Methyl-7-nitroisatoic anhydride", "1-Methyl-7-nitro-3,1-benzoxazine-2,4-dione"], "SMILES": "CN1C=2C(C(=O)OC1=O)=CC=C(N(=O)=O)C2", "physical_data": {"Molecular Weight": "222.15", "Molecular Formula": "C9H6N2O5", "Melting Point": "203-206 \u00b0C"}}