{"cas_no": "7305-71-7", "cn_name": "2-\u6c28\u57fa-5-\u7532\u57fa\u567b\u5511", "en_name": ["2-Amino-5-methylthiazole", "2-Thiazolamine, 5-methyl-", "Thiazole, 2-amino-5-methyl-", "5-Methyl-2-thiazolamine", "2-Amino-5-methylthiazole", "5-Methyl-2-aminothiazole", "5-Methyl-1,3-thiazol-2-ylamine", "NSC 523150", "(5-Methylthiazol-2-yl)amine", "5-Methyl-1,3-thiazol-2-amine"], "SMILES": "CC=1SC(N)=NC1", "physical_data": {"Molecular Weight": "114.17", "Molecular Formula": "C4H6N2S", "Melting Point": "95-96.5 \u00b0C"}}