{"cas_no": "73069-13-3", "cn_name": "\u767d\u672f\u5185\u916f I", "en_name": ["Atractylenolide I", "Naphtho[2,3-b]furan-2(4H)-one, 4a,5,6,7,8,8a-hexahydro-3,8a-dimethyl-5-methylene-, (4aS,8aS)-", "Naphtho[2,3-b]furan-2(4H)-one, 4a,5,6,7,8,8a-hexahydro-3,8a-dimethyl-5-methylene-, (4aS-trans)-", "(4aS,8aS)-4a,5,6,7,8,8a-Hexahydro-3,8a-dimethyl-5-methylenenaphtho[2,3-b]furan-2(4H)-one", "Atractylenolide I"], "SMILES": "CC12C(CC=3C(=C1)OC(=O)C3C)C(=C)CCC2", "physical_data": {"Molecular Weight": "230.30", "Molecular Formula": "C15H18O2", "Melting Point": "121-123 \u00b0C"}}