{"cas_no": "7306-68-5", "cn_name": "6-\u6c2f-9-(\u56db\u6c22-2-\u5421\u5583\u57fa)\u560c\u5464", "en_name": ["6-Chloro-9-(tetrahydro-2H-pyran-2-yl)-9H-purine", "9H-Purine, 6-chloro-9-(tetrahydro-2H-pyran-2-yl)-", "9H-Purine, 6-chloro-9-(tetrahydropyran-2-yl)-", "6-Chloro-9-(tetrahydro-2H-pyran-2-yl)-9H-purine", "6-Chloro-9-(tetrahydropyran-2-yl)purine", "NSC 33187", "6-Chloro-9-(tetrahydropyran-2-yl)-9H-purine", "9-(Tetrahydropyran-2-yl)-6-chloropurine", "6-chloro-9-(tetrahydro-2H-pyran-2-yl)-9H-purine"], "SMILES": "ClC1=C2C(N(C=N2)C3CCCCO3)=NC=N1", "physical_data": {"Molecular Weight": "238.67", "Molecular Formula": "C10H11ClN4O", "Melting Point": "69-71 \u00b0C"}}