{"cas_no": "73069-14-4", "cn_name": "\u767d\u672f\u5185\u916f II", "en_name": ["Atractylenolide II", "Naphtho[2,3-b]furan-2(4H)-one, 4a,5,6,7,8,8a,9,9a-octahydro-3,8a-dimethyl-5-methylene-, (4aS,8aR,9aS)-", "Naphtho[2,3-b]furan-2(4H)-one, 4a,5,6,7,8,8a,9,9a-octahydro-3,8a-dimethyl-5-methylene-, [4aS-(4a\u03b1,8a\u03b2,9a\u03b2)]-", "(4aS,8aR,9aS)-4a,5,6,7,8,8a,9,9a-Octahydro-3,8a-dimethyl-5-methylenenaphtho[2,3-b]furan-2(4H)-one", "Atractylenolide II", "Asterolide", "Eudesma-4(15),7(11)-dien-8\u03b1,12-olide"], "SMILES": "CC12C(CC=3C(C1)OC(=O)C3C)C(=C)CCC2", "physical_data": {"Molecular Weight": "232.32", "Molecular Formula": "C15H20O2", "Melting Point": "150-152 \u00b0C"}}