{"cas_no": "73069-28-0", "cn_name": "\u767d\u82b1\u524d\u80e1\u4e59\u7d20", "en_name": ["Praeruptorin B", "2-Butenoic acid, 2-methyl-, (9S,10S)-9,10-dihydro-8,8-dimethyl-2-oxo-2H,8H-benzo[1,2-b:3,4-b\u2032]dipyran-9,10-diyl ester, (2Z,2\u2032Z)-", "2-Butenoic acid, 2-methyl-, 9,10-dihydro-8,8-dimethyl-2-oxo-2H,8H-benzo[1,2-b:3,4-b\u2032]dipyran-9,10-diyl ester, [9S-[9\u03b1(Z),10\u03b1(Z)]]-", "2H,8H-Benzo[1,2-b:3,4-b\u2032]dipyran, 2-butenoic acid deriv.", "Praeruptorin B", "(+)-Praeruptorin B", "(+)-Anomalin", "Pd II", "(+) Pareruptorin B", "Praeruptorin D"], "SMILES": "O(C(C(=CC)C)=O)C1C=2C3=C(C=CC2OC(C)(C)C1OC(C(=CC)C)=O)C=CC(=O)O3", "physical_data": {"Molecular Weight": "426.46", "Molecular Formula": "C24H26O7", "Melting Point": "166-168 \u00b0C"}}