{"cas_no": "7306-46-9", "cn_name": "3,4-\u4e8c\u7532\u6c27\u57fa\u82c4\u57fa\u6c2f", "en_name": ["Veratryl chloride", "Benzene, 4-(chloromethyl)-1,2-dimethoxy-", "Toluene, \u03b1-chloro-3,4-dimethoxy-", "Veratrole, 4-(chloromethyl)-", "4-(Chloromethyl)-1,2-dimethoxybenzene", "Veratryl chloride", "3,4-Dimethoxybenzyl chloride", "\u03b1-Chloro-3,4-dimethoxytoluene", "1-Chloromethyl-3,4-dimethoxybenzene"], "SMILES": "O(C)C1=C(OC)C=CC(CCl)=C1", "physical_data": {"Molecular Weight": "186.64", "Molecular Formula": "C9H11ClO2", "Boiling Point": "152-156 \u00b0C", "Melting Point": "48-49 \u00b0C"}}