{"cas_no": "7307-04-2", "cn_name": "5,5-\u4e8c\u7532\u5df1\u70f72,4-\u4e8c\u916e", "en_name": ["5,5-Dimethyl-2,4-hexanedione", "2,4-Hexanedione, 5,5-dimethyl-", "5,5-Dimethyl-2,4-hexanedione", "Pivaloylacetone", "Pivaloylacetylmethane", "2,2-Dimethyl-3,5-hexanedione", "1-(tert-Butoxy)-1,3-dioxobutane", "5,5-Dimethylhexan-2,4-dione"], "SMILES": "C(CC(C)=O)(C(C)(C)C)=O", "physical_data": {"Molecular Weight": "142.20", "Molecular Formula": "C8H14O2", "Boiling Point": "70-71 \u00b0C @ Press: 20 Torr", "Melting Point": "105-106 \u00b0C", "Density": "0.9412 g/cm\u00b3 @ Temp: 20 \u00b0C"}}