{"cas_no": "7307-55-3", "cn_name": "\u6b63\u5341\u4e00\u80fa", "en_name": ["Undecylamine", "1-Undecanamine", "Undecylamine", "n-Undecylamine", "Hendecylamine", "1-Undecylamine", "1-Aminoundecane", "Monoundecylamine", "NSC 3398"], "SMILES": "C(CCCCCN)CCCCC", "physical_data": {"Molecular Weight": "171.32", "Molecular Formula": "C11H25N", "Boiling Point": "242 \u00b0C", "Melting Point": "17 \u00b0C"}}