{"cas_no": "73080-51-0", "cn_name": "\u745e\u5421\u53f8\u7279", "en_name": ["Repirinast", "4H-Pyrano[3,2-c]quinoline-2-carboxylic acid, 5,6-dihydro-7,8-dimethyl-4,5-dioxo-, 3-methylbutyl ester", "MY 5116", "Repirinast", "Romet"], "SMILES": "O=C1C2=C(C=3C(N1)=C(C)C(C)=CC3)OC(C(OCCC(C)C)=O)=CC2=O", "physical_data": {"Molecular Weight": "355.38", "Molecular Formula": "C20H21NO5", "Melting Point": "236-241 \u00b0C"}}