{"cas_no": "7308-90-9", "cn_name": "\u8367\u5149\u7d20\u4e8c\u6708\u6842\u916f", "en_name": ["1,1\u2032-(3-Oxospiro[isobenzofuran-1(3H),9\u2032-[9H]xanthene]-3\u2032,6\u2032-diyl) didodecanoate", "Dodecanoic acid, 1,1\u2032-(3-oxospiro[isobenzofuran-1(3H),9\u2032-[9H]xanthene]-3\u2032,6\u2032-diyl) ester", "Fluorescein, dilaurate", "Dodecanoic acid, 3-oxospiro[isobenzofuran-1(3H),9\u2032-[9H]xanthene]-3\u2032,6\u2032-diyl ester", "Lauric acid, diester with fluorescein", "1,1\u2032-(3-Oxospiro[isobenzofuran-1(3H),9\u2032-[9H]xanthene]-3\u2032,6\u2032-diyl) didodecanoate", "Fluorescein dilauric acid ester", "Fluorescein didodecanoate", "3-Oxo-3H-spiro[isobenzofuran-1,9\u2032-xanthene]-3\u2032,6\u2032-diyl didodecanoate"], "SMILES": "O=C1OC2(C=3C(OC=4C2=CC=C(OC(CCCCCCCCCCC)=O)C4)=CC(OC(CCCCCCCCCCC)=O)=CC3)C=5C1=CC=CC5", "physical_data": {"Molecular Weight": "696.91", "Molecular Formula": "C44H56O7", "Melting Point": "83 \u00b0C"}}