{"cas_no": "73096-42-1", "cn_name": "\u90bb\u6eb4\u56db\u5511", "en_name": ["5-(2-Bromophenyl)-2H-tetrazole", "2H-Tetrazole, 5-(2-bromophenyl)-", "1H-Tetrazole, 5-(2-bromophenyl)-", "Tetrazole, 5-(o-bromophenyl)-", "5-(2-Bromophenyl)-2H-tetrazole", "5-(o-Bromophenyl)tetrazole", "5-(2-Bromophenyl)-1H-tetrazole", "5-(2-Bromophenyl)tetrazole", "5-(2-Bromophenyl)-1H-1,2,3,4-tetrazole"], "SMILES": "BrC1=C(C=2NN=NN2)C=CC=C1", "physical_data": {"Molecular Weight": "225.05", "Molecular Formula": "C7H5BrN4", "Melting Point": "174-176 \u00b0C"}}