{"cas_no": "731-27-1", "cn_name": "\u7532\u82ef\u6c1f\u78fa\u80fa", "en_name": ["Tolylfluanid", "Methanesulfenamide, 1,1-dichloro-N-[(dimethylamino)sulfonyl]-1-fluoro-N-(4-methylphenyl)-", "Sulfamide, N-[(dichlorofluoromethyl)thio]-N\u2032,N\u2032-dimethyl-N-p-tolyl-", "1,1-Dichloro-N-[(dimethylamino)sulfonyl]-1-fluoro-N-(4-methylphenyl)methanesulfenamide", "Euparen M", "Bayer 5712a", "BAY 5712a", "Tolylfluanid", "Dichlofluanid-methyl", "Tolilfluanide", "Melody Multi", "Euparen Multi", "N-Dichlorofluoromethylthio-N\u2032,N\u2032-dimethyl-N-p-tolylsulfamide", "Tolylfluanide", "GORI 28", "N\u2032-Dichlorofluoromethylthio-N,N-dimethyl-N\u2032(p-tolyl)sulfamide", "Preventol A 5S", "N,N-Dimethyl-N\u2032-tolyl-N\u2032-(fluorodichloromethylthio)sulfamide"], "SMILES": "N(S(N(C)C)(=O)=O)(SC(Cl)(Cl)F)C1=CC=C(C)C=C1", "physical_data": {"Molecular Weight": "347.26", "Molecular Formula": "C10H13Cl2FN2O2S2", "Melting Point": "96 \u00b0C"}}