{"cas_no": "7310-95-4", "cn_name": "2,6-\u4e8c\u7532\u9170-4-\u7532\u57fa\u82ef\u915a", "en_name": ["2,6-Diformyl-4-methylphenol", "1,3-Benzenedicarboxaldehyde, 2-hydroxy-5-methyl-", "Isophthalaldehyde, 2-hydroxy-5-methyl-", "2-Hydroxy-5-methyl-1,3-benzenedicarboxaldehyde", "5-Methyl-2-hydroxyisophthalaldehyde", "2,6-Diformyl-4-methylphenol", "3-Formyl-5-methylsalicylaldehyde", "2-Hydroxy-5-methylisophthalaldehyde", "2,6-Diformyl-p-cresol", "2-Hydroxy-5-methylbenzene-1,3-dicarbaldehyde", "4-Methyl-2,6-diformylphenol", "2-Hydroxy-5-methylisophthaldehyde", "NSC 243727", "2-Hydroxy-5-methyl-1,3-benzenedicarboxyaldehyde", "2,6-Diformyl-4-cresol"], "SMILES": "C(=O)C1=C(O)C(C=O)=CC(C)=C1", "physical_data": {"Molecular Weight": "164.16", "Molecular Formula": "C9H8O3", "Melting Point": "113 \u00b0C"}}