{"cas_no": "7311-63-9", "cn_name": "5-\u6eb4-2-\u7fa7\u57fa\u567b\u5429", "en_name": ["5-Bromo-2-thiophenecarboxylic acid", "2-Thiophenecarboxylic acid, 5-bromo-", "5-Bromo-2-thiophenecarboxylic acid", "2-Bromo-5-thiophenecarboxylic acid", "NSC 408675", "2-Bromo-5-carboxythiophene"], "SMILES": "C(O)(=O)C=1SC(Br)=CC1", "physical_data": {"Molecular Weight": "207.05", "Molecular Formula": "C5H3BrO2S", "Melting Point": "142 \u00b0C"}}