{"cas_no": "7311-30-0", "cn_name": "N-\u5341\u4e8c\u70f7\u57fa\u7532\u80fa", "en_name": ["N-Methyl-1-dodecanamine", "1-Dodecanamine, N-methyl-", "Dodecylamine, N-methyl-", "N-Methyl-1-dodecanamine", "N-Methyldodecylamine", "Laurylmethylamine", "Dodecylmethylamine", "N-n-Dodecyl-N-methylamine", "N-n-Dodecylmethylamine", "N-Methyldodecanamine", "N-Dodecylmethylamine", "N-Lauryl-N-methylamine", "N-Methyl-N-dodecylamine", "NSC 165791", "N-Methyl-1-aminododecane"], "SMILES": "C(CCCCCNC)CCCCCC", "physical_data": {"Molecular Weight": "199.38", "Molecular Formula": "C13H29N", "Boiling Point": "108-110 \u00b0C", "Melting Point": "18-19 \u00b0C"}}