{"cas_no": "7311-34-4", "cn_name": "3,5-\u4e8c\u7532\u6c27\u57fa\u82ef\u7532\u919b", "en_name": ["3,5-Dimethoxybenzaldehyde", "Benzaldehyde, 3,5-dimethoxy-", "3,5-Dimethoxybenzaldehyde", "NSC 62667"], "SMILES": "C(=O)C1=CC(OC)=CC(OC)=C1", "physical_data": {"Molecular Weight": "166.17", "Molecular Formula": "C9H10O3", "Boiling Point": "125-130 \u00b0C @ Press: 1-2 Torr", "Melting Point": "46.3 \u00b0C"}}