{"cas_no": "7312-11-0", "cn_name": "5-\u6eb4-1-\u82ef\u5e76\u567b\u5429-2-\u7fa7\u9178\u7532\u916f", "en_name": ["Methyl 5-bromobenzo[b]thiophene-2-carboxylate", "Benzo[b]thiophene-2-carboxylic acid, 5-bromo-, methyl ester", "5-Bromobenzothiophene-2-carboxylic acid methyl ester", "Methyl 5-bromobenzo[b]thiophen-2-carboxylate", "Methyl 5-bromobenzo[b]thiophene-2-carboxylate", "5-Bromobenzo[b]thiophene-2-carboxylic acid methyl ester"], "SMILES": "C(OC)(=O)C=1SC=2C(C1)=CC(Br)=CC2", "physical_data": {"Molecular Weight": "271.13", "Molecular Formula": "C10H7BrO2S", "Melting Point": "97-98 \u00b0C"}}