{"cas_no": "7314-85-4", "cn_name": "2-\u6eb4\u4ee3\u91d1\u521a\u70f7", "en_name": ["2-Bromoadamantane", "Tricyclo[3.3.1.13,7]decane, 2-bromo-", "Adamantane, 2-bromo-", "2-Bromotricyclo[3.3.1.13,7]decane", "2-Bromoadamantane", "2-Adamantyl bromide"], "SMILES": "BrC1C2CC3CC1CC(C2)C3", "physical_data": {"Molecular Weight": "215.13", "Molecular Formula": "C10H15Br", "Melting Point": "135-136 \u00b0C"}}