{"cas_no": "7314-44-5", "cn_name": "2,4-\u4e8c\u7532\u6c27\u57fa\u82c4\u9187", "en_name": ["2,4-Dimethoxybenzyl alcohol", "Benzenemethanol, 2,4-dimethoxy-", "Benzyl alcohol, 2,4-dimethoxy-", "2,4-Dimethoxybenzenemethanol", "2,4-Dimethoxybenzyl alcohol", "2,4-Dimethoxyphenylmethanol"], "SMILES": "O(C)C1=C(CO)C=CC(OC)=C1", "physical_data": {"Molecular Weight": "168.19", "Molecular Formula": "C9H12O3", "Boiling Point": "177-179 \u00b0C @ Press: 10 Torr", "Melting Point": "34-34.5 \u00b0C"}}