{"cas_no": "7314-32-1", "cn_name": "L-\u86cb\u6c28\u9178\u781c", "en_name": ["L-Methionine sulfone", "L-Methionine, S,S-dioxide", "Butyric acid, 2-amino-4-(methylsulfonyl)-, L-", "Butanoic acid, 2-amino-4-(methylsulfonyl)-, (S)-", "Butanoic acid, 2-amino-4-(methylsulfonyl)-, (2S)-", "Methionine sulfone", "L-Methionine sulfone", "L-Methionine-S-dioxide", "(S)-Methionine sulfone", "(2S)-2-Amino-4-methanesulfonylbutanoic acid", "(2S)-2-Azaniumyl-4-methylsulfonylbutanoate"], "SMILES": "C(C(C(O)=O)N)CS(C)(=O)=O", "physical_data": {"Molecular Weight": "181.21", "Molecular Formula": "C5H11NO4S", "Melting Point": "250-251 \u00b0C"}}