{"cas_no": "73151-29-8", "cn_name": "\u785d\u9178\u82ac\u66ff\u5eb7\u5511", "en_name": ["Fenticonazole nitrate", "1H-Imidazole, 1-[2-(2,4-dichlorophenyl)-2-[[4-(phenylthio)phenyl]methoxy]ethyl]-, nitrate (1:1)", "1H-Imidazole, 1-[2-(2,4-dichlorophenyl)-2-[[4-(phenylthio)phenyl]methoxy]ethyl]-, mononitrate", "Feniconazole nitrate", "REC 15-1476", "Fentiderm", "Fenticonazole nitrate", "Falvin"], "SMILES": "N(=O)(=O)O.C(CN1C=CN=C1)(OCC2=CC=C(SC3=CC=CC=C3)C=C2)C4=C(Cl)C=C(Cl)C=C4", "physical_data": {"Molecular Weight": "", "Molecular Formula": "C24H20Cl2N2OS.HNO3", "Melting Point": "136 \u00b0C"}}