{"cas_no": "7318-00-5", "cn_name": "3-\u6c28\u57fa\u5df4\u8c46\u9178\u4e59\u916f", "en_name": ["2-Butenoic acid, 3-amino-, ethyl ester", "2-Butenoic acid, 3-amino-, ethyl ester", "Crotonic acid, 3-amino-, ethyl ester", "Crotonic acid, \u03b2-amino-, ethyl ester", "Ethyl \u03b2-aminocrotonate", "\u03b2-Aminocrotonic acid ethyl ester", "Ethyl 3-amino-2-butenoate", "3-Aminocrotonic acid ethyl ester", "Ethyl 3-aminocrotonate", "Ethyl \u03b2-amino-\u03b2-methylacrylate", "3-Amino-2-butenoic acid ethyl ester", "NSC 1086"], "SMILES": "C(C(OCC)=O)=C(C)N", "physical_data": {"Molecular Weight": "129.16", "Molecular Formula": "C6H11NO2", "Boiling Point": "105.4-107.0 \u00b0C @ Press: 14.6 Torr", "Melting Point": "20-21 \u00b0C", "Density": "1.0219 g/cm\u00b3 @ Temp: 18.8 \u00b0C"}}