{"cas_no": "73183-34-3", "cn_name": "\u8054\u787c\u9178\u9891\u90a3\u9187\u916f", "en_name": ["Bis(pinacolato)diborane", "2,2\u2032-Bi-1,3,2-dioxaborolane, 4,4,4\u2032,4\u2032,5,5,5\u2032,5\u2032-octamethyl-", "1,3,2-Dioxaborolane, bimol. deriv.", "4,4,4\u2032,4\u2032,5,5,5\u2032,5\u2032-Octamethyl-2,2\u2032-bi-1,3,2-dioxaborolane", "Bis(pinacolato)diborane", "B2Pin2", "Bis(pinacolato)diborane(4)", "4,4,5,5,4\u2032,4\u2032,5\u2032,5\u2032-Octamethyl-[2,2\u2032]bi[[1,3,2]dioxaborolanyl]", "Diboron pinacol ester", "Pinacol diborane", "4,4,5,5-Tetramethyl-2-(4,4,5,5-tetramethyl-1,3,2-dioxaborolan-2-yl)-1,3,2-dioxaborolane", "2-(4,4,5,5-Tetramethyl-1,3,2-dioxaborolan-2-yl)-4,4,5,5-tetramethyl-1,3,2-dioxaborolane", "4,4,4\u2032,4\u2032,5,5,5\u2032,5\u2032-Octamethyl-2,2\u2032-bi-1,3,2-dioxaborolan", "Bis(pinacolate)diboron", "Bis(pinacolato) diborate", "4,4\u2032,5,5\u2032-Octamethyl-2,2\u2032-bi-1,3,2-dioxaborolane", "Dipinacoldiboron", "4,4,4\u2032,4\u2032,5,5,5\u2032,5\u2032-Octamethyl-2,2\u2032-bis(1,3,2-dioxaborolane)", "4,4,5,5,4\u2032,4\u2032,5\u2032,5\u2032-Octamethyl-2,2\u2032-bis(1,3,2-dioxaborolane)", "Bis-pinacoldiboron", "4,4,5,5-Tetramethyl-2-(tetramethyl-1,3,2-dioxaborolan-2-yl)-1,3,2-dioxaborolane", "Bis(4,4,5,5-tetramethyl-[1,3]dioxolan-2-yl)borane", "4,4,4\u2032,4\u2032,5,5,5\u2032,5\u2032-Octamethyl-2,2\u2032-bi-1,3,2-dioxaborolane [B2(pin)2]", "4,4,5,5-Tetramethyl-1,3,2-dioxaborane", "4,4,5,5,4\u2032,4\u2032,5\u2032,5\u2032-octamethyl-2,2\u2032-bi(1,3,2-dioxaborolane)", "Bis(pinanolato)diboron", "4,4,5,5-Tetramethyl-2-(tetramethyl-1,3,2-dioxaborolan-2-yl)-1,3,2-dioxaborolan", "Octamethyl-2,2\u2032-bi(1,3,2-dioxaborolane)", "Bispinacol", "4,4,4\u2032,4\u2032,5,5,5\u2032,5\u2032-Octamethyl-2,2\u2032-bi(1,3,2-dioxaborolane)", "Borane pinacolate"], "SMILES": "CC1(C)OB(OC1(C)C)B2OC(C)(C)C(C)(C)O2", "physical_data": {"Molecular Weight": "253.94", "Molecular Formula": "C12H24B2O4", "Melting Point": "115-117 \u00b0C"}}