{"cas_no": "7319-16-6", "cn_name": "\u7532\u57fa 1-\u4e19\u70ef\u57fa\u919a", "en_name": ["1-Propene, 1-methoxy-", "1-Propene, 1-methoxy-", "Ether, methyl propenyl", "Methyl 1-propenyl ether", "1-Methoxypropene", "1-Methoxy-1-propene", "Methyl propenyl ether"], "SMILES": "C(=CC)OC", "physical_data": {"Molecular Weight": "72.11", "Molecular Formula": "C4H8O", "Boiling Point": "48.3-48.4 \u00b0C @ Press: 760 Torr"}}