{"cas_no": "732-11-6", "cn_name": "\u4e9a\u80fa\u786b\u78f7", "en_name": ["Phosmet", "Phosphorodithioic acid, S-[(1,3-dihydro-1,3-dioxo-2H-isoindol-2-yl)methyl] O,O-dimethyl ester", "Phosphorodithioic acid, O,O-dimethyl ester, S-ester with N-(mercaptomethyl)phthalimide", "Phosphorodithioic acid, O,O-dimethyl S-phthalimidomethyl ester", "R 1504", "O,O-Dimethyl S-phthalimidomethyl phosphorodithioate", "Imidan", "Phthalophos", "Prolate", "Stauffer R 1504", "N-(Mercaptomethyl)phthalimide S-(O,O-dimethyl phosphorodithioate)", "Decemthion", "Phosmet", "O,O-Dimethyl S-phthalimidomethyl phosphorodithioate", "O,O-Dimethyl S-(phthalimidomethyl) dithiophosphate", "PMP (pesticide)", "S-Phthalimidomethyl O,O-dimethyl phosphorodithioate", "Ftalophos", "Decemthion P-6", "Safidon", "PMP", "Imidathion", "Simidan", "Orbisect", "Porect", "Decemthion EK 20", "Decemtion", "Ordatox", "Fosmet", "Starbar GX 118", "GWN 1976", "Imidan 70WP", "MeSH ID: D010706"], "SMILES": "O=C1C=2C(C(=O)N1CSP(OC)(OC)=S)=CC=CC2", "physical_data": {"Molecular Weight": "317.32", "Molecular Formula": "C11H12NO4PS2", "Melting Point": "71.9 \u00b0C", "Density": "1.03 g/cm\u00b3 @ Temp: 20 \u00b0C"}}