{"cas_no": "732-26-3", "cn_name": "2,4,6-\u4e09\u53d4\u4e01\u57fa\u82ef\u915a", "en_name": ["2,4,6-Tri-tert-butylphenol", "Phenol, 2,4,6-tris(1,1-dimethylethyl)-", "Phenol, 2,4,6-tri-tert-butyl-", "2,4,6-Tris(1,1-dimethylethyl)phenol", "2,4,6-Tri-tert-butylphenol", "P 23", "Alkofen B", "2,4,6-Tri-tert-butyl-1-hydroxybenzene", "TM 02", "2,4,6-Tris(tert-butyl)phenol", "Voidox", "Tri-tert-butylphenol", "P 23 (phenol)", "NSC 14459", "2,4,6-Tri-t-butylphenol", "Antioxidant 333", "Antioxidant Q 46", "2,4,6-Tritert-butylphenol", "Antioxidant 246"], "SMILES": "C(C)(C)(C)C1=C(O)C(C(C)(C)C)=CC(C(C)(C)C)=C1", "physical_data": {"Molecular Weight": "262.43", "Molecular Formula": "C18H30O", "Boiling Point": "278 \u00b0C", "Melting Point": "131 \u00b0C"}}