{"cas_no": "7320-37-8", "cn_name": "1,2-\u73af\u6c27\u5341\u516d\u70f7", "en_name": ["1,2-Epoxyhexadecane", "Oxirane, 2-tetradecyl-", "Hexadecane, 1,2-epoxy-", "Oxirane, tetradecyl-", "2-Tetradecyloxirane", "1,2-Epoxyhexadecane", "Hexadecylene oxide", "1,2-Hexadecene epoxide", "Tetradecyloxirane", "Vikolox 16", "1,2-Hexadecylene oxide", "1,2-Epoxyhexadecene", "Cyracure UVR 6216", "1-Hexadecene oxide", "UVR 6216", "1,2-Hexadecene oxide"], "SMILES": "C(CCCCCCCCCCCCC)C1CO1", "physical_data": {"Molecular Weight": "240.42", "Molecular Formula": "C16H32O", "Boiling Point": "175-180 \u00b0C @ Press: 12 Torr", "Melting Point": "21-22 \u00b0C", "Density": "0.8457 g/cm\u00b3 @ Temp: 20 \u00b0C"}}