{"cas_no": "7320-34-5", "cn_name": "\u7126\u78f7\u9178\u94be", "en_name": ["Potassium pyrophosphate", "Diphosphoric acid, potassium salt (1:4)", "Pyrophosphoric acid, tetrapotassium salt", "Diphosphoric acid, tetrapotassium salt", "Phosphosol", "Potassium pyrophosphate", "Tetrapotassium pyrophosphate", "Tetrakalium pyrophosphate", "Tetrapotassium diphosphate", "Potassium phosphate (K4P2O7)", "Potassium diphosphate (K4P2O7)", "E 450v", "Potassium metaphosphate oxide (K4(PO3)2O)", "S 11152"], "SMILES": "O(P(=O)(O)O)P(=O)(O)O.[K]", "physical_data": {"Molecular Weight": "", "Molecular Formula": "H4O7P2.4K", "Melting Point": "1090 \u00b0C"}}