{"cas_no": "73210-73-8", "cn_name": "\u5bcc\u9a6c\u9178\u624e\u83ab\u7279\u7f57", "en_name": ["4-Morpholinecarboxamide, N-[2-[[2-hydroxy-3-(4-hydroxyphenoxy)propyl]amino]ethyl]-, (E)-2-butenedioate (2:1)", "4-Morpholinecarboxamide, N-[2-[[2-hydroxy-3-(4-hydroxyphenoxy)propyl]amino]ethyl]-, (E)-2-butenedioate (2:1)", "4-Morpholinecarboxamide, N-[2-[[2-hydroxy-3-(4-hydroxyphenoxy)propyl]amino]ethyl]-, (E)-2-butenedioate (2:1) (salt)", "4-Morpholinecarboxamide, N-[2-[[2-hydroxy-3-(4-hydroxyphenoxy)propyl]amino]ethyl]-, (2E)-2-butenedioate (2:1) (salt)", "ICI 118587", "Xamoterol hemifumarate", "Corwin", "Xamoterol fumarate", "Carwin", "Xamtol"], "SMILES": "C(=CC(O)=O)C(O)=O.C(NCCNCC(COC1=CC=C(O)C=C1)O)(=O)N2CCOCC2", "physical_data": {"Molecular Weight": "", "Molecular Formula": "C16H25N3O5.<sup>1</sup>/2C4H4O4", "Melting Point": "168-169 \u00b0C (decomp)"}}