{"cas_no": "7321-55-3", "cn_name": "\u4e8c\u7532\u57fa\u4e19\u4e8c\u8148", "en_name": ["2,2-Dimethylpropanedinitrile", "Propanedinitrile, 2,2-dimethyl-", "Malononitrile, dimethyl-", "Propanedinitrile, dimethyl-", "2,2-Dimethylpropanedinitrile", "Dimethylmalononitrile", "2,2-Dicyanopropane", "Dimethylpropanedinitrile", "NSC 86109", "Dimethyldicyanomethane", "2,2-Dimethylmalononitrile"], "SMILES": "C(C#N)(C#N)(C)C", "physical_data": {"Molecular Weight": "94.11", "Molecular Formula": "C5H6N2", "Boiling Point": "169.5 \u00b0C", "Melting Point": "31.5 \u00b0C"}}