{"cas_no": "73220-03-8", "cn_name": "\u745e\u83ab\u5fc5\u5229\u76d0\u9178\u76d0", "en_name": ["Remoxipride hydrochloride", "Benzamide, 3-bromo-N-[[(2S)-1-ethyl-2-pyrrolidinyl]methyl]-2,6-dimethoxy-, hydrochloride (1:1)", "Benzamide, 3-bromo-N-[(1-ethyl-2-pyrrolidinyl)methyl]-2,6-dimethoxy-, monohydrochloride, (S)-", "Benzamide, 3-bromo-N-[[(2S)-1-ethyl-2-pyrrolidinyl]methyl]-2,6-dimethoxy-, monohydrochloride", "FLA 731, (-)-", "(-)-FLA 731", "Remoxipride hydrochloride", "A 33547 hydrochloride", "Roxiam", "A 33547", "FLA 731"], "SMILES": "C(NCC1N(CC)CCC1)(=O)C2=C(OC)C(Br)=CC=C2OC.Cl", "physical_data": {"Molecular Weight": "", "Molecular Formula": "C16H23BrN2O3.ClH", "Melting Point": "168-169 \u00b0C"}}