{"cas_no": "7323-63-9", "cn_name": "2,5-\u4e8c\u53d4\u4e01\u57fa1,4-\u4e8c\u7532\u6c27\u57fa\u82ef", "en_name": ["1,4-Bis(1,1-dimethylethyl)-2,5-dimethoxybenzene", "Benzene, 1,4-bis(1,1-dimethylethyl)-2,5-dimethoxy-", "Benzene, 1,4-di-tert-butyl-2,5-dimethoxy-", "1,4-Bis(1,1-dimethylethyl)-2,5-dimethoxybenzene", "1,4-Dimethoxy-2,5-di-tert-butylbenzene", "2,5-Di-tert-butyl-1,4-dimethoxybenzene", "1,4-Di-tert-butyl-2,5-dimethoxybenzene", "NSC 124045", "1,4-Ditert-butyl-2,5-dimethoxybenzene"], "SMILES": "C(C)(C)(C)C1=C(OC)C=C(C(C)(C)C)C(OC)=C1", "physical_data": {"Molecular Weight": "250.38", "Molecular Formula": "C16H26O2", "Melting Point": "103-104 \u00b0C"}}