{"cas_no": "73231-34-2", "cn_name": "\u6c1f\u82ef\u5c3c\u8003", "en_name": ["Florfenicol", "Acetamide, 2,2-dichloro-N-[(1S,2R)-1-(fluoromethyl)-2-hydroxy-2-[4-(methylsulfonyl)phenyl]ethyl]-", "Acetamide, 2,2-dichloro-N-[1-(fluoromethyl)-2-hydroxy-2-[4-(methylsulfonyl)phenyl]ethyl]-, [R-(R*,S*)]-", "2,2-Dichloro-N-[(1S,2R)-1-(fluoromethyl)-2-hydroxy-2-[4-(methylsulfonyl)phenyl]ethyl]acetamide", "Sch 25298", "Florfenicol", "(-)-Florfenicol", "Nuflor", "Aquafen", "Aquaflor", "Floron", "Flonicol", "Topazone", "Florgane", "Selectan"], "SMILES": "C(C(NC(C(Cl)Cl)=O)CF)(O)C1=CC=C(S(C)(=O)=O)C=C1", "physical_data": {"Molecular Weight": "358.21", "Molecular Formula": "C12H14Cl2FNO4S", "Melting Point": "153-154 \u00b0C"}}