{"cas_no": "7325-46-4", "cn_name": "1,4-\u82ef\u4e8c\u4e59\u9178", "en_name": ["1,4-Benzenediacetic acid", "1,4-Benzenediacetic acid", "p-Benzenediacetic acid", "p-Phenylenediacetic acid", "1,4-Phenylenediacetic acid", "2-[4-(Carboxymethyl)phenyl]acetic acid"], "SMILES": "C(C(O)=O)C1=CC=C(CC(O)=O)C=C1", "physical_data": {"Molecular Weight": "194.18", "Molecular Formula": "C10H10O4", "Melting Point": "253-254 \u00b0C"}}