{"cas_no": "73250-68-7", "cn_name": "\u82ef\u567b\u8349\u80fa", "en_name": ["2-(2-Benzothiazolyloxy)-N-methyl-N-phenylacetamide", "Acetamide, 2-(2-benzothiazolyloxy)-N-methyl-N-phenyl-", "2-(2-Benzothiazolyloxy)-N-methyl-N-phenylacetamide", "FOE 1976", "Mefenacet", "NTN 801", "Rancho", "BTMPA", "2-(Benzo[d]thiazol-2-yloxy)-N-methyl-N-phenylacetamide"], "SMILES": "O(CC(N(C)C1=CC=CC=C1)=O)C2=NC=3C(S2)=CC=CC3", "physical_data": {"Molecular Weight": "298.36", "Molecular Formula": "C16H14N2O2S", "Melting Point": "134.8 \u00b0C"}}