{"cas_no": "7326-19-4", "cn_name": "D-3-\u82ef\u4e73\u9178", "en_name": ["(+)-3-Phenyllactic acid", "Benzenepropanoic acid, \u03b1-hydroxy-, (\u03b1R)-", "Lactic acid, 3-phenyl-, (R)-", "Benzenepropanoic acid, \u03b1-hydroxy-, (R)-", "(\u03b1R)-\u03b1-Hydroxybenzenepropanoic acid", "D-\u03b2-Phenyllactic acid", "D-Phenyllactic acid", "D-3-Phenyllactic acid", "D-2-Hydroxy-3-phenylpropionic acid", "(+)-\u03b2-Phenyllactic acid", "(R)-\u03b2-Phenyllactic acid", "(+)-3-Phenyllactic acid", "(R)-2-Hydroxy-3-phenylpropionic acid", "(R)-3-Phenyl-2-hydroxypropanoic acid", "\u03b2-Phenyl-D-lactic acid", "(2R)-2-Hydroxy-3-phenylpropionic acid", "(R)-\u03b1-Hydroxy-3-phenylpropionic acid", "(+)-2-Hydroxy-3-phenylpropionic acid", "(R)-3-Phenyllactic acid", "(2R)-2-Hydroxy-3-phenylpropanoic acid", "(R)-Phenyllactic acid", "(+)-2-Hydroxy-3-phenylpropanoic acid", "3-(R)-Phenyl lactic acid", "D-(+)-3-Phenyllactic acid", "(2R)-3-Phenyl-2-hydroxypropanoic acid", "(R)-3-Phenyl-2-hydroxypropionic acid", "(2R)-2-Hydroxy-3-phenylpropanoic acid", "(R)-2-Hydroxy-3-phenylpropanoic acid"], "SMILES": "C(C(C(O)=O)O)C1=CC=CC=C1", "physical_data": {"Molecular Weight": "166.17", "Molecular Formula": "C9H10O3", "Melting Point": "121 \u00b0C"}}