{"cas_no": "7328-91-8", "cn_name": "\u4e8c\u7532\u57fa\u4e19\u4e8c\u80fa", "en_name": ["2,2-Dimethyl-1,3-propanediamine", "1,3-Propanediamine, 2,2-dimethyl-", "2,2-Dimethyl-1,3-propanediamine", "2,2-Dimethyl-1,3-diaminopropane", "1,3-Diamino-2,2-dimethylpropane", "2,2-Dimethyltrimethylenediamine", "1,2-Diamino-2,2-dimethylpropane", "NSC 17719", "2,2-Dimethyl-1,3-propylenediamine", "(3-Amino-2,2-dimethylpropyl)amine", "2,2-Dimethylpropanediamine"], "SMILES": "C(CN)(CN)(C)C", "physical_data": {"Molecular Weight": "102.18", "Molecular Formula": "C5H14N2", "Boiling Point": "153 \u00b0C @ Press: 760 Torr"}}