{"cas_no": "73286-70-1", "cn_name": "N-Boc-3-\u5421\u54af\u5549", "en_name": ["N-(tert-Butoxycarbonyl)-2,5-dihydro-1H-pyrrole", "1H-Pyrrole-1-carboxylic acid, 2,5-dihydro-, 1,1-dimethylethyl ester", "1-tert-Butoxycarbonylpyrroline", "2,5-Dihydro-1H-pyrrole-1-carboxylic acid 1,1-dimethylethyl ester", "1-(tert-Butoxycarbonyl)-3-pyrroline", "1-tert-Butyloxycarbonyl-3-pyrroline", "2,5-Dihydro-1H-pyrrole-1-carboxylic acid tert-butyl ester", "tert-Butyl 3-pyrroline-1-carboxylate", "2,5-Dihydropyrrole-1-carboxylic acid tert-butyl ester", "1-t-Butoxycarbonyl-3-pyrroline", "N-Boc-2,5-dihydropyrrole", "N-Boc-3-pyrroline", "N-(tert-Butoxycarbonyl)-2,5-dihydro-1H-pyrrole", "tert-Butyl 2,5-dihydro-1H-pyrrole-1-carboxylate", "tert-Butyl 2,5-pyrroline-1-carboxylate", "tert-Butyl 2,5-dihydropyrrole-1-carboxylate"], "SMILES": "C(OC(C)(C)C)(=O)N1CC=CC1", "physical_data": {"Molecular Weight": "169.22", "Molecular Formula": "C9H15NO2", "Boiling Point": "65-75 \u00b0C @ Press: 1.5 Torr"}}