{"cas_no": "7328-17-8", "cn_name": "\u4e59\u6c27\u57fa\u4e59\u6c27\u57fa\u4e59\u57fa\u4e19\u70ef\u9178\u916f", "en_name": ["2-(2-Ethoxyethoxy)ethyl acrylate", "2-Propenoic acid, 2-(2-ethoxyethoxy)ethyl ester", "Acrylic acid, 2-(2-ethoxyethoxy)ethyl ester", "Ethanol, 2-(2-ethoxyethoxy)-, acrylate", "2-(2-Ethoxyethoxy)ethyl acrylate", "Carbitol acrylate", "Diethylene glycol ethyl ether acrylate", "RC 20", "Reactomer RC 20", "Ethylcarbitol acrylate", "SR 256", "R 672", "Viscoat 190", "Light Acrylate EC-A", "Sartomer 256", "Sartomer SR 256", "SR 2564", "IRR 184", "Miramer M 170", "V 190", "Miramer 170", "EC-A", "Ethoxy(diethylene glycol) acrylate", "SR 2562", "Diethylene glycol acrylate ethyl ether", "Ethyl diglycol acrylate", "M 170", "AgiSyn 2880", "2-(2-Ethoxyethoxy)ethyl prop-2-enoate", "JCM 102E"], "SMILES": "O(CCOCCOCC)C(C=C)=O", "physical_data": {"Molecular Weight": "188.22", "Molecular Formula": "C9H16O4", "Boiling Point": "95 \u00b0C @ Press: 4.8 Torr", "Density": "1.0184 g/cm\u00b3 @ Temp: 20 \u00b0C"}}