{"cas_no": "73285-50-4", "cn_name": "\u53bb\u6c27\u91ce\u827d\u9709\u7d20\u76d0\u9178\u76d0", "en_name": ["1-Deoxynojirimycin hydrochloride", "3,4,5-Piperidinetriol, 2-(hydroxymethyl)-, hydrochloride (1:1), (2R,3R,4R,5S)-", "3,4,5-Piperidinetriol, 2-(hydroxymethyl)-, hydrochloride, [2R-(2\u03b1,3\u03b2,4\u03b1,5\u03b2)]-", "3,4,5-Piperidinetriol, 2-(hydroxymethyl)-, hydrochloride, (2R,3R,4R,5S)-", "1-Deoxynojirimycin hydrochloride", "Moranoline hydrochloride", "(+)-1-Deoxynojirimycin hydrochloride", "AT 2220", "Duvoglustat hydrochloride"], "SMILES": "C(O)C1C(O)C(O)C(O)CN1.Cl", "physical_data": {"Molecular Weight": "", "Molecular Formula": "C6H13NO4.ClH", "Melting Point": "201-202 \u00b0C"}}