{"cas_no": "733-44-8", "cn_name": "\u56db\u4e59\u57fa\u80fa\u5bf9\u7532\u82ef\u78fa\u9178\u916f", "en_name": ["Tetraethylammonium p-toluenesulfonate", "Ethanaminium, N,N,N-triethyl-, 4-methylbenzenesulfonate (1:1)", "Ammonium, tetraethyl-, p-toluenesulfonate", "Ethanaminium, N,N,N-triethyl-, salt with 4-methylbenzenesulfonic acid (1:1)", "Tetraethylammonium p-toluenesulfonate", "Tetraethylammonium p-tolylsulfonate", "Tetraethylammonium tosylate", "Tetraethylammonium p-toluenesulphonate", "Tetraethylammonium toluenesulfonate", "Tetraethylammonium p-tosylate"], "SMILES": "[N+](CC)(CC)(CC)CC.S(=O)(=O)([O-])C1=CC=C(C)C=C1", "physical_data": {"Molecular Weight": "", "Molecular Formula": "C8H20N.C7H7O3S", "Melting Point": "103-104 \u00b0C"}}