{"cas_no": "7330-46-3", "cn_name": "6,6'-\u53cc\u6c28\u57fa-3,3'-\u7532\u53c9\u57fa\u4e8c\u82ef\u7532\u9178", "en_name": ["3,3\u2032-Dicarboxy-4,4\u2032-diaminodiphenylmethane", "Benzoic acid, 3,3\u2032-methylenebis[6-amino-", "Anthranilic acid, 5,5\u2032-methylenedi-", "3,3\u2032-Methylenebis[6-aminobenzoic acid]", "4,4\u2032-Diaminodiphenylmethane-3,3\u2032-dicarboxylic acid", "3,3\u2032-Dicarboxy-4,4\u2032-diaminodiphenylmethane", "5,5\u2032-Methylenedianthranilic acid", "5,5\u2032-Methylenebis[2-aminobenzoic acid]", "4,4\u2032-Diamino-3,3\u2032-dicarboxydiphenylmethane", "Bis(4-amino-3-carboxyphenyl)methane", "Benzoic acid, 5,5\u2032-methylenebis[2-amino-", "NCI 37136", "CB 37136", "MBAA", "NSC 37136"], "SMILES": "C(C1=CC(C(O)=O)=C(N)C=C1)C2=CC(C(O)=O)=C(N)C=C2", "physical_data": {"Molecular Weight": "286.28", "Molecular Formula": "C15H14N2O4", "Melting Point": "245-248 \u00b0C"}}