{"cas_no": "733039-20-8", "cn_name": "5-\u6eb4-2-\u6c2f-N-\u73af\u620a\u80fa\u5627\u5576-4\u80fa", "en_name": ["5-Bromo-2-chloro-N-cyclopentyl-4-pyrimidinamine", "4-Pyrimidinamine, 5-bromo-2-chloro-N-cyclopentyl-", "5-Bromo-2-chloro-N-cyclopentyl-4-pyrimidinamine", "N-(5-Bromo-2-chloropyrimidin-4-yl)(cyclopentyl)amine", "5-Bromo-2-chloro-4-(cyclopentylamino)pyrimidine"], "SMILES": "N(C=1C(Br)=CN=C(Cl)N1)C2CCCC2", "physical_data": {"Molecular Weight": "276.56", "Molecular Formula": "C9H11BrClN3", "Melting Point": "95-96 \u00b0C"}}