{"cas_no": "73305-12-1", "cn_name": "4-(2-\u785d\u57fa\u82ef\u57fa)-3-\u6c28\u57fa\u786b\u8132", "en_name": ["N-(2-Nitrophenyl)hydrazinecarbothioamide", "Hydrazinecarbothioamide, N-(2-nitrophenyl)-", "N-(2-Nitrophenyl)hydrazinecarbothioamide", "4-(2-Nitrophenyl)-3-thiosemicarbazide", "1-Amino-3-(2-nitrophenyl)thiourea", "3-Amino-1-(2-nitrophenyl)thiourea"], "SMILES": "N(=O)(=O)C1=C(NC(NN)=S)C=CC=C1", "physical_data": {"Molecular Weight": "212.23", "Molecular Formula": "C7H8N4O2S", "Melting Point": "72 \u00b0C"}}