{"cas_no": "7331-52-4", "cn_name": "(S)-3-\u7f9f\u57fa-gamma-\u4e01\u5185\u916f", "en_name": ["(S)-3-Hydroxy-\u03b3-butyrolactone", "2(3H)-Furanone, dihydro-4-hydroxy-, (4S)-", "Butyric acid, 3,4-dihydroxy-, \u03b3-lactone, D-glycero-", "2(3H)-Furanone, dihydro-4-hydroxy-, (S)-", "(4S)-Dihydro-4-hydroxy-2(3H)-furanone", "(S)-3-Hydroxybutyrolactone", "(3S)-Hydroxy-\u03b3-butyrolactone", "(S)-3-Hydroxy-\u03b3-butyrolactone", "(S)-\u03b2-Hydroxy-\u03b3-butyrolactone", "(S)-(-)-\u03b2-Hydroxy-\u03b3-butyrolactone", "3S-Hydroxy butyrolactone", "(4S)-4-Hydroxyoxolan-2-one", "3-(S)-Hydroxy-4-butanolide"], "SMILES": "OC1CC(=O)OC1", "physical_data": {"Molecular Weight": "102.09", "Molecular Formula": "C4H6O3", "Boiling Point": "140 \u00b0C @ Press: 1 Torr"}}