{"cas_no": "7333-67-7", "cn_name": "\u4e09\u4e9a\u7532\u57fa\u53cc(\u4e09\u82ef\u57fa\u6eb4\u5316\u81a6)", "en_name": ["Phosphonium, 1,1\u2032-(1,3-propanediyl)bis[1,1,1-triphenyl-, bromide (1:2)", "Phosphonium, 1,1\u2032-(1,3-propanediyl)bis[1,1,1-triphenyl-, bromide (1:2)", "Phosphonium, trimethylenebis[triphenyl-, dibromide", "Phosphonium, 1,3-propanediylbis[triphenyl-, dibromide", "Trimethylenebis(triphenylphosphonium bromide)", "1,3-Bis(triphenylphosphonium)propane dibromide", "Trimethylene-1,3-bis(triphenylphosphonium) dibromide", "Trimethylenebis(triphenylphosphonium) dibromide", "1,3-Propanediylbis(triphenylphosphonium) dibromide", "NSC 84073"], "SMILES": "[P+](CCC[P+](C1=CC=CC=C1)(C2=CC=CC=C2)C3=CC=CC=C3)(C4=CC=CC=C4)(C5=CC=CC=C5)C6=CC=CC=C6.[Br-]", "physical_data": {"Molecular Weight": "", "Molecular Formula": "C39H36P2.2Br", "Melting Point": "334 \u00b0C"}}