{"cas_no": "7333-51-9", "cn_name": "\u73af\u5df1\u57fa\u4e09\u82ef\u57fa\u6eb4\u5316\u81a6", "en_name": ["Cyclohexyltriphenylphosphonium bromide", "Phosphonium, cyclohexyltriphenyl-, bromide (1:1)", "Phosphonium, cyclohexyltriphenyl-, bromide", "Cyclohexyltriphenylphosphonium bromide", "Bromo(cyclohexyl)triphenylphosphorane"], "SMILES": "[P+](C1CCCCC1)(C2=CC=CC=C2)(C3=CC=CC=C3)C4=CC=CC=C4.[Br-]", "physical_data": {"Molecular Weight": "", "Molecular Formula": "C24H26P.Br", "Melting Point": "255-259 \u00b0C"}}