{"cas_no": "7333-52-0", "cn_name": "\u6eb4\u4ee3\u4e09\u82ef\u57fa\u81a6\u73af\u620a\u916f", "en_name": ["Cyclopentyltriphenylphosphonium bromide", "Phosphonium, cyclopentyltriphenyl-, bromide (1:1)", "Phosphonium, cyclopentyltriphenyl-, bromide", "Cyclopentyltriphenylphosphonium bromide"], "SMILES": "[P+](C1CCCC1)(C2=CC=CC=C2)(C3=CC=CC=C3)C4=CC=CC=C4.[Br-]", "physical_data": {"Molecular Weight": "", "Molecular Formula": "C23H24P.Br", "Melting Point": "261-263 \u00b0C"}}