{"cas_no": "73346-74-4", "cn_name": "(-)-2,3-O-\u4e9a\u5f02\u4e19\u57fa-D-\u82cf\u529b\u7cd6\u9187", "en_name": ["(4R,5R)-2,2-Dimethyl-1,3-dioxolane-4,5-dimethanol", "1,3-Dioxolane-4,5-dimethanol, 2,2-dimethyl-, (4R,5R)-", "1,3-Dioxolane-4,5-dimethanol, 2,2-dimethyl-, (4R-trans)-", "(4R,5R)-2,2-Dimethyl-1,3-dioxolane-4,5-dimethanol", "2,3-O-Isopropylidene-D-threitol", "(-)-2,3-O-Isopropylidene-D-threitol", "[(4R,5R)-5-Hydroxymethyl-2,2-dimethyl-1,3-dioxolan-4-yl]methanol"], "SMILES": "C(O)C1C(CO)OC(C)(C)O1", "physical_data": {"Molecular Weight": "162.18", "Molecular Formula": "C7H14O4", "Boiling Point": "91-93 \u00b0C @ Press: 0.01-0.02 Torr", "Melting Point": "48-51 \u00b0C"}}