{"cas_no": "7335-26-4", "cn_name": "\u90bb\u7532\u6c27\u57fa\u82ef\u7532\u9178\u4e59\u916f", "en_name": ["Ethyl 2-methoxybenzoate", "Benzoic acid, 2-methoxy-, ethyl ester", "o-Anisic acid, ethyl ester", "Ethyl 2-methoxybenzoate", "Ethyl o-methoxybenzoate", "2-Methoxybenzoic acid ethyl ester"], "SMILES": "C(OCC)(=O)C1=C(OC)C=CC=C1", "physical_data": {"Molecular Weight": "180.20", "Molecular Formula": "C10H12O3", "Boiling Point": "261 \u00b0C", "Density": "1.1124 g/cm\u00b3 @ Temp: 20 \u00b0C"}}