{"cas_no": "7335-06-0", "cn_name": "N-\u4e59\u57fa\u5421\u54af\u70f7", "en_name": ["1-Ethylpyrrolidine", "Pyrrolidine, 1-ethyl-", "1-Ethylpyrrolidine", "N-Ethylpyrrolidine", "N-Ethyltetrahydropyrrole"], "SMILES": "C(C)N1CCCC1", "physical_data": {"Molecular Weight": "99.17", "Molecular Formula": "C6H13N", "Boiling Point": "104 \u00b0C", "Melting Point": "102-104 \u00b0C", "Density": "0.8156 g/cm\u00b3 @ Temp: 20 \u00b0C"}}