{"cas_no": "7335-25-3", "cn_name": "\u90bb\u6c2f\u82ef\u7532\u9178\u4e59\u916f", "en_name": ["Benzoic acid, 2-chloro-, ethyl ester", "Benzoic acid, 2-chloro-, ethyl ester", "Benzoic acid, o-chloro-, ethyl ester", "Ethyl o-chlorobenzoate", "Ethyl 2-chlorobenzoate", "2-Chlorobenzoic acid ethyl ester"], "SMILES": "C(OCC)(=O)C1=C(Cl)C=CC=C1", "physical_data": {"Molecular Weight": "184.62", "Molecular Formula": "C9H9ClO2", "Boiling Point": "243 \u00b0C"}}