{"cas_no": "7335-27-5", "cn_name": "4-\u6c2f\u82ef\u7532\u9178\u4e59\u916f", "en_name": ["Ethyl 4-chlorobenzoate", "Benzoic acid, 4-chloro-, ethyl ester", "Benzoic acid, p-chloro-, ethyl ester", "Ethyl p-chlorobenzoate", "p-(Ethoxycarbonyl)phenyl chloride", "Ethyl 4-chlorobenzoate", "4-Chlorobenzoic acid ethyl ester", "NSC 10859", "4-(Ethoxycarbonyl)chlorobenzene", "4-(Ethoxycarbonyl)phenyl chloride"], "SMILES": "C(OCC)(=O)C1=CC=C(Cl)C=C1", "physical_data": {"Molecular Weight": "184.62", "Molecular Formula": "C9H9ClO2", "Boiling Point": "237.5 \u00b0C", "Melting Point": "71-73 \u00b0C"}}