{"cas_no": "7336-33-6", "cn_name": "3-\u53bb\u7532\u57fa\u79cb\u6c34\u4ed9\u78b1", "en_name": ["3-Demethylcolchicine", "Acetamide, N-[(7S)-5,6,7,9-tetrahydro-3-hydroxy-1,2,10-trimethoxy-9-oxobenzo[a]heptalen-7-yl]-", "Colchicine, O3-demethyl-", "Acetamide, N-(5,6,7,9-tetrahydro-3-hydroxy-1,2,10-trimethoxy-9-oxobenzo[a]heptalen-7-yl)-, (S)-", "Colchicine, 2-demethyl-", "Benzo[a]heptalene, acetamide deriv.", "N-[(7S)-5,6,7,9-Tetrahydro-3-hydroxy-1,2,10-trimethoxy-9-oxobenzo[a]heptalen-7-yl]acetamide", "3-Demethylcolchicine", "3-Desmethylcolchicine", "O3-Demethylcolchicine", "3-Demethyl-(-)-colchicine"], "SMILES": "O(C)C1=C2C=3C(C(NC(C)=O)CCC2=CC(O)=C1OC)=CC(=O)C(OC)=CC3", "physical_data": {"Molecular Weight": "385.41", "Molecular Formula": "C21H23NO6", "Melting Point": "177-180 \u00b0C"}}