{"cas_no": "73367-80-3", "cn_name": "12-\u6eb4\u5341\u4e8c\u70f7\u9178", "en_name": ["12-Bromododecanoic acid", "Dodecanoic acid, 12-bromo-", "12-Bromododecanoic acid", "12-Bromolauric acid", "\u03c9-Bromododecanoic acid", "NSC 660375"], "SMILES": "C(CCCCCCCCBr)CCC(O)=O", "physical_data": {"Molecular Weight": "279.21", "Molecular Formula": "C12H23BrO2", "Boiling Point": "140-143 \u00b0C @ Press: 20 Torr", "Melting Point": "53 \u00b0C"}}