{"cas_no": "73364-10-0", "cn_name": "\u53cc(\u6b63\u4e01\u57fa\u73af\u620a\u4e8c\u70ef\u57fa)\u4e8c\u6c2f\u5316\u9506", "en_name": ["Bis(butylcyclopentadienyl)zirconium dichloride", "Zirconium, bis[(1,2,3,4,5-\u03b7)-1-butyl-2,4-cyclopentadien-1-yl]dichloro-", "1,3-Cyclopentadiene, 1-butyl-, zirconium complex", "Bis[(1,2,3,4,5-\u03b7)-1-butyl-2,4-cyclopentadien-1-yl]dichlorozirconium", "Bis(butylcyclopentadienyl)zirconium dichloride", "Bis(butylcyclopentadienyl)dichlorozirconium", "Bis(n-butylcyclopentadienyl)zirconium dichloride", "1,1\u2032-Dibutylzirconocene dichloride", "Eurecen 5031", "Bis(\u03b75-butylcyclopentadienyl)dichlorozirconium", "Eurocene 5031", "Dibutylzirconocene dichloride", "Dichlorobis(n-butylcyclopentadienyl)zirconium", "Bis(butylcyclopentadienyl) zirconium (IV) dichloride", "Bis(n-butylcyclopentadienyl)zirconium(IV) dichloride", "H 27576"], "SMILES": "[Cl-][Zr+4]12345678([Cl-])([C-]9(CCCC)[CH]1=[CH]2[CH]3=[CH]49)[C-]%10(CCCC)[CH]5=[CH]6[CH]7=[CH]8%10", "physical_data": {"Molecular Weight": "", "Molecular Formula": "C18H26Cl2Zr", "Melting Point": "98-99 \u00b0C"}}