{"cas_no": "7337-45-3", "cn_name": "\u787c\u70f7-\u53d4\u4e01\u57fa\u80fa", "en_name": ["tert-Butylamine borane", "Boron, trihydro(2-methyl-2-propanamine)-, (T-4)-", "2-Propanamine, 2-methyl-, compd. with borane (1:1)", "tert-Butylamine, compd. with BH3 (1:1)", "tert-Butylamine, compd. with BH3", "Borane, compd. with tert-butylamine (1:1)", "Borane, compd. with 2-methyl-2-propanamine (1:1)", "(T-4)-Trihydro(2-methyl-2-propanamine)boron", "tert-Butylamine borane", "tert-Butylamine-borane (1:1)", "(tert-Butylamine)trihydroboron", "NSC 114045", "Borane-tert-butylamine", "tert-Butylamine, compd. with borane(1) (1:1)", "2-Propanamine, 2-methyl-, boron complex"], "SMILES": "[NH2]([B+3]([H-])([H-])[H-])C(C)(C)C", "physical_data": {"Molecular Weight": "", "Molecular Formula": "C4H14BN", "Melting Point": "96 \u00b0C"}}