{"cas_no": "73387-52-7", "cn_name": "5-(4-BROMOPHENYL)-1-METHYL-1H-PYRAZOLE", "en_name": ["5-(4-Bromophenyl)-1-methyl-1H-pyrazole", "1H-Pyrazole, 5-(4-bromophenyl)-1-methyl-", "5-(4-Bromophenyl)-1-methyl-1H-pyrazole", "5-(4-Bromophenyl)-1-methylpyrazole"], "SMILES": "CN1C(=CC=N1)C2=CC=C(Br)C=C2", "physical_data": {"Molecular Weight": "237.10", "Molecular Formula": "C10H9BrN2", "Melting Point": "58 \u00b0C"}}