{"cas_no": "7338-27-4", "cn_name": "\u8863\u5eb7\u9178\u5355\u7532\u916f", "en_name": ["Methyl itaconate", "Butanedioic acid, 2-methylene-, 4-methyl ester", "Succinic acid, methylene-, 4-methyl ester", "Butanedioic acid, methylene-, 4-methyl ester", "Methyl itaconate", "Itaconic acid \u03b2-methyl ester", "Methyl 3-carboxy-3-butenoate", "\u03b2-Methyl itaconate", "NSC 144957", "Methyl 1-carboxy-1-(methylene)-3-propanoate", "Itaconic acid 4-methyl ester", "\u03b2-Methyl hydrogen itaconate", "4-Methoxy-2-methylene-4-oxobutanoic acid", "4-Methoxy-2-methylidene-4-oxobutanoic acid", "4-Methyl itaconate", "3-Methoxycarbonyl-2-methylene propanoic acid"], "SMILES": "C(C(C(O)=O)=C)C(OC)=O", "physical_data": {"Molecular Weight": "144.13", "Molecular Formula": "C6H8O4", "Boiling Point": "149-151 \u00b0C @ Press: 10 Torr", "Melting Point": "67-70 \u00b0C"}}