{"cas_no": "7339-87-9", "cn_name": "4-\u7f9f\u57fa\u82ef\u4e59\u919b", "en_name": ["4-Hydroxyphenylacetaldehyde", "Benzeneacetaldehyde, 4-hydroxy-", "Acetaldehyde, (p-hydroxyphenyl)-", "4-Hydroxybenzeneacetaldehyde", "(p-Hydroxyphenyl)acetaldehyde", "4-Hydroxyphenylacetaldehyde", "4-Hydroxyphenylacetadehyde", "2-(4-Hydroxyphenyl)acetaldehyde"], "SMILES": "C(C=O)C1=CC=C(O)C=C1", "physical_data": {"Molecular Weight": "136.15", "Molecular Formula": "C8H8O2", "Melting Point": "118 \u00b0C"}}