{"cas_no": "734-32-7", "cn_name": "19-\u53bb\u7532-4-\u96c4\u70ef\u4e8c\u916e", "en_name": ["(+)-Estr-4-ene-3,17-dione", "Estr-4-ene-3,17-dione", "3,17-Dioxo-19-norandrost-4-ene", "\u03944-Estrene-3,17-dione", "19-Norandrost-4-ene-3,17-dione", "19-Norandrostenedione", "(+)-19-Norandrost-4-en-3,17-dione", "d-19-Norandrost-4-ene-3,17-dione", "(+)-Estr-4-ene-3,17-dione", "(+)-19-Norandrost-4-ene-3,17-dione", "19-Nor-4-androstenedione", "NSC 12164", "Nordione"], "SMILES": "CC12C(C3C(C4C(CC3)=CC(=O)CC4)CC1)CCC2=O", "physical_data": {"Molecular Weight": "272.38", "Molecular Formula": "C18H24O2", "Melting Point": "169-170.5 \u00b0C"}}