{"cas_no": "734-25-8", "cn_name": "4'-\u785d\u57fa\u82ef\u78fa\u8418", "en_name": ["4-Methyl-N-(4-nitrophenyl)benzenesulfonamide", "Benzenesulfonamide, 4-methyl-N-(4-nitrophenyl)-", "p-Toluenesulfonanilide, 4\u2032-nitro-", "4-Methyl-N-(4-nitrophenyl)benzenesulfonamide", "N-Tosyl-4-nitroaniline", "N-Tosyl-p-nitroaniline", "N-(4-Nitrophenyl)-p-toluenesulfonamide", "NSC 49573", "1-Tosylamino-4-nitrobenzene"], "SMILES": "S(NC1=CC=C(N(=O)=O)C=C1)(=O)(=O)C2=CC=C(C)C=C2", "physical_data": {"Molecular Weight": "292.31", "Molecular Formula": "C13H12N2O4S", "Melting Point": "188 \u00b0C"}}