{"cas_no": "73404-00-9", "cn_name": "1-(4-(2-(\u4e8c\u4e59\u57fa\u6c28\u57fa)\u4e59\u6c27\u57fa)\u82ef\u57fa)-1,2-\u4e8c\u82ef\u57fa\u4e59\u9187", "en_name": ["\u03b1-[4-[2-(Diethylamino)ethoxy]phenyl]-\u03b1-phenylbenzeneethanol", "Benzeneethanol, \u03b1-[4-[2-(diethylamino)ethoxy]phenyl]-\u03b1-phenyl-", "Ethanol, 1-[p-[2-(diethylamino)ethoxy]phenyl]-1,2-diphenyl-", "\u03b1-[4-[2-(Diethylamino)ethoxy]phenyl]-\u03b1-phenylbenzeneethanol", "1-[4-[2-(Diethylamino)ethoxy]phenyl]-1,2-diphenylethanol"], "SMILES": "C(CC1=CC=CC=C1)(O)(C2=CC=C(OCCN(CC)CC)C=C2)C3=CC=CC=C3", "physical_data": {"Molecular Weight": "389.53", "Molecular Formula": "C26H31NO2", "Melting Point": "95-96 \u00b0C"}}