{"cas_no": "7340-22-9", "cn_name": "\u5421\u5576-2-\u4e19\u70ef\u9178", "en_name": ["3-(2-Pyridinyl)-2-propenoic acid", "2-Propenoic acid, 3-(2-pyridinyl)-", "2-Pyridineacrylic acid", "3-(2-Pyridinyl)-2-propenoic acid", "3-(2-Pyridyl)-2-propenoic acid", "NSC 63239", "3-(2-Pyridyl)acrylic acid", "3-(Pyridin-2-yl)acrylic acid"], "SMILES": "C(=CC(O)=O)C1=CC=CC=N1", "physical_data": {"Molecular Weight": "149.15", "Molecular Formula": "C8H7NO2", "Melting Point": "194-197 \u00b0C (decomp)"}}