{"cas_no": "7341-24-4", "cn_name": "2-\u7532\u82ef\u57fa\u7532\u786b\u9187", "en_name": ["2-Methylbenzenemethanethiol", "Benzenemethanethiol, 2-methyl-", "Methanethiol, o-tolyl-", "2-Methylbenzenemethanethiol", "o-Xylene-\u03b1-thiol", "2-Methylbenzyl mercaptan", "2-Methyltoluene-\u03b1-thiol", "o-Methylbenzyl mercaptan", "o-Tolylmethyl mercaptan", "NSC 148323", "o-Tolylmethanethiol", "(2-Methylphenyl)methanethiol"], "SMILES": "C(S)C1=C(C)C=CC=C1", "physical_data": {"Molecular Weight": "138.23", "Molecular Formula": "C8H10S", "Boiling Point": "86 \u00b0C @ Press: 0.3 Torr", "Density": "1.057 g/cm\u00b3 @ Temp: 22.5 \u00b0C"}}