{"cas_no": "7341-96-0", "cn_name": "\u4e19\u7094\u9170\u80fa", "en_name": ["2-Propynamide", "2-Propynamide", "Propiolamide", "Propiolic acid amide", "NSC 520954", "Propynamide"], "SMILES": "C(C#C)(N)=O", "physical_data": {"Molecular Weight": "69.06", "Molecular Formula": "C3H3NO", "Melting Point": "61-62 \u00b0C"}}