{"cas_no": "7341-17-5", "cn_name": "2-\u4e59\u57fa\u5df1\u57fa\u786b\u9187", "en_name": ["2-Ethyl-1-hexanethiol", "1-Hexanethiol, 2-ethyl-", "2-Ethyl-1-hexanethiol", "2-Ethylhexylmercaptan", "2-Ethylhexanethiol"], "SMILES": "C(CCCC)(CC)CS", "physical_data": {"Molecular Weight": "146.29", "Molecular Formula": "C8H18S", "Boiling Point": "80 \u00b0C @ Press: 19 Torr", "Density": "0.8467 g/cm\u00b3 @ Temp: 25 \u00b0C"}}