{"cas_no": "7346-41-0", "cn_name": "2-\u6c2f\u4ee3\u91d1\u521a\u70f7", "en_name": ["2-Chloroadamantane", "Tricyclo[3.3.1.13,7]decane, 2-chloro-", "Adamantane, 2-chloro-", "2-Chlorotricyclo[3.3.1.13,7]decane", "2-Chloroadamantane", "2-Adamantyl chloride", "2-Chloradamantane"], "SMILES": "ClC1C2CC3CC1CC(C2)C3", "physical_data": {"Molecular Weight": "170.68", "Molecular Formula": "C10H15Cl", "Melting Point": "186-188 \u00b0C"}}