{"cas_no": "735-06-8", "cn_name": "2-\u7532\u6c28\u57fa-5-\u785d\u57fa-2'-\u6c1f\u4e8c\u82ef\u7532\u916e", "en_name": ["(2-Fluorophenyl)[2-(methylamino)-5-nitrophenyl]methanone", "Methanone, (2-fluorophenyl)[2-(methylamino)-5-nitrophenyl]-", "Benzophenone, 2\u2032-fluoro-2-(methylamino)-5-nitro-", "(2-Fluorophenyl)[2-(methylamino)-5-nitrophenyl]methanone", "2\u2032-Fluoro-2-methylamino-5-nitrobenzophenone", "2-(Methylamino)-5-nitro-2\u2032-fluorobenzophenone", "Ro 05-5114"], "SMILES": "C(=O)(C1=C(NC)C=CC(N(=O)=O)=C1)C2=C(F)C=CC=C2", "physical_data": {"Molecular Weight": "274.25", "Molecular Formula": "C14H11FN2O3", "Melting Point": "186-187 \u00b0C"}}