{"cas_no": "7351-61-3", "cn_name": "2-\u7532\u57fa-2-\u4e19\u70ef\u91783-(\u4e09\u6c2f\u7845\u57fa)\u4e19\u916f", "en_name": ["3-(Trichlorosilyl)propyl methacrylate", "2-Propenoic acid, 2-methyl-, 3-(trichlorosilyl)propyl ester", "Methacrylic acid, 3-(trichlorosilyl)propyl ester", "1-Propanol, 3-(trichlorosilyl)-, methacrylate", "3-(Trichlorosilyl)propyl methacrylate", "(\u03b3-Methacryloxypropyl)trichlorosilane", "(3-Methacryloxypropyl)trichlorosilane", "(3-Methacryloyloxypropyl)trichlorosilane", "Trichloro(3-methacryloxypropyl)silane", "(\u03b3-Methacryloyloxypropyl)trichlorosilane", "3-Trichlorosilylpropyl 2-methylprop-2-enoate"], "SMILES": "O(CCC[Si](Cl)(Cl)Cl)C(C(C)=C)=O", "physical_data": {"Molecular Weight": "261.61", "Molecular Formula": "C7H11Cl3O2Si", "Boiling Point": "96-98 \u00b0C @ Press: 1 Torr", "Density": "1.251 g/cm\u00b3"}}