{"cas_no": "73536-69-3", "cn_name": "\u8054\u82ef\u53cc\u916f", "en_name": ["Bifendate", "[4,4\u2032-Bi-1,3-benzodioxole]-5,5\u2032-dicarboxylic acid, 7,7\u2032-dimethoxy-, 5,5\u2032-dimethyl ester", "[4,4\u2032-Bi-1,3-benzodioxole]-5,5\u2032-dicarboxylic acid, 7,7\u2032-dimethoxy-, dimethyl ester", "Bifendate", "DDB", "Dimethyl 4,4\u2032-dimethoxy-5,6,5\u2032,6\u2032-di(methylenedioxy)biphenyl-2,2\u2032-dicarboxylate", "DDB (pharmaceutical)", "\u03b1-DDB", "Dimethyl dicarboxylate biphenyl", "Diphenyl dimethyl bicarboxylate", "Bifendatatum"], "SMILES": "C(OC)(=O)C=1C(=C2C(=C(OC)C1)OCO2)C3=C4C(=C(OC)C=C3C(OC)=O)OCO4", "physical_data": {"Molecular Weight": "418.35", "Molecular Formula": "C20H18O10", "Melting Point": "179-181 \u00b0C"}}