{"cas_no": "7353-91-5", "cn_name": "4-(N,N-\u4e8c\u7532\u57fa)\u82ef\u80fa\u6eb4\u5316\u9541", "en_name": ["4-(Dimethylamino)phenylmagnesium bromide", "Magnesium, bromo[4-(dimethylamino)phenyl]-", "Magnesium, bromo[p-(dimethylamino)phenyl]-", "Aniline, N,N-dimethyl-, p-bromomagnesium deriv.", "(p-Dimethylaminophenyl)magnesium bromide", "Benzenamine, N,N-dimethyl-, magnesium complex", "Bromo[4-(dimethylamino)phenyl]magnesium", "4-(Dimethylamino)phenylmagnesium bromide", "4-N,N-Dimethylaminophenylmagnesium bromide", "Bromo(4-(dimethylamino)phenyl)magnesium", "4-(N,N-Dimethyl)aniline magnesium bromide"], "SMILES": "N(C)(C)C1=CC=C([Mg]Br)C=C1", "physical_data": {"Molecular Weight": "", "Molecular Formula": "C8H10BrMgN", "Melting Point": "53-54 \u00b0C"}}