{"cas_no": "7355-18-2", "cn_name": "1,2,3,4-\u56db-O-\u4e59\u9170\u57fa-\u0392-D-\u8461\u8404\u7cd6\u919b\u9178\u7532\u916f", "en_name": ["Methyl 1,2,3,4-tetra-O-acetyl-\u03b2-D-glucopyranuronate", "\u03b2-D-Glucopyranuronic acid, methyl ester, 1,2,3,4-tetraacetate", "Glucopyranuronic acid, methyl ester, tetraacetate, \u03b2-D-", "\u03b2-D-Glucopyranuronic acid, methyl ester, tetraacetate", "Methyl tetra-O-acetyl-\u03b2-D-glucopyranuronate", "1,2,3,4-Tetra-O-acetyl-\u03b2-D-glucopyranuronic acid methyl ester", "Methyl 1,2,3,4-tetra-O-acetyl-\u03b2-D-glucopyranuronate", "NSC 16925", "NSC 82042"], "SMILES": "O(C(C)=O)C1C(OC(C)=O)C(C(OC)=O)OC(OC(C)=O)C1OC(C)=O", "physical_data": {"Molecular Weight": "376.31", "Molecular Formula": "C15H20O11", "Melting Point": "178 \u00b0C"}}