{"cas_no": "7355-58-0", "cn_name": "N-(2-\u6c2f\u4e59\u57fa)\u4e59\u9170\u80fa", "en_name": ["N-(2-Chloroethyl)acetamide", "Acetamide, N-(2-chloroethyl)-", "N-(2-Chloroethyl)acetamide", "N-Acetyl-2-chloroethylamine", "NSC 30247"], "SMILES": "N(C(C)=O)CCCl", "physical_data": {"Molecular Weight": "121.57", "Molecular Formula": "C4H8ClNO", "Boiling Point": "135-136 \u00b0C @ Press: 10 Torr", "Density": "1.163 g/cm\u00b3 @ Temp: 20 \u00b0C"}}