{"cas_no": "7355-22-8", "cn_name": "5-\u6eb4-2,4-\u4e8c\u7f9f\u57fa\u82ef\u9178", "en_name": ["5-Bromo-2,4-dihydroxybenzoic acid", "Benzoic acid, 5-bromo-2,4-dihydroxy-", "\u03b2-Resorcylic acid, 5-bromo-", "5-Bromo-2,4-dihydroxybenzoic acid", "2,4-Dihydroxy-5-bromobenzoic acid", "NSC 60106", "5-Bromo-4-hydroxysalicylic acid"], "SMILES": "C(O)(=O)C1=C(O)C=C(O)C(Br)=C1", "physical_data": {"Molecular Weight": "233.02", "Molecular Formula": "C7H5BrO4", "Melting Point": "204 \u00b0C"}}