{"cas_no": "73568-29-3", "cn_name": "2-\u6c2f-6-\u7532\u6c27\u57fa\u55b9\u5549-3-\u7532\u919b", "en_name": ["2-Chloro-6-methoxyquinoline-3-carboxaldehyde", "3-Quinolinecarboxaldehyde, 2-chloro-6-methoxy-", "2-Chloro-6-methoxy-3-quinolinecarboxaldehyde", "2-Chloro-6-methoxyquinoline-3-carboxaldehyde", "2-Chloro-3-formyl-6-methoxyquinoline", "2-Chloro-6-methoxyquinoline-3-carbaldehyde"], "SMILES": "C(=O)C1=CC2=C(N=C1Cl)C=CC(OC)=C2", "physical_data": {"Molecular Weight": "221.64", "Molecular Formula": "C11H8ClNO2", "Melting Point": "143-144 \u00b0C"}}