{"cas_no": "7356-11-8", "cn_name": "4-\u7532\u57fa-3-\u785d\u57fa\u82ef\u7532\u9178\u7532\u916f", "en_name": ["Benzoic acid, 4-methyl-3-nitro-, methyl ester", "Benzoic acid, 4-methyl-3-nitro-, methyl ester", "p-Toluic acid, 3-nitro-, methyl ester", "Methyl 3-nitro-4-methylbenzoate", "Methyl 4-methyl-3-nitrobenzoate", "NSC 29086", "4-Methyl-3-nitrobenzoic acid methyl ester"], "SMILES": "C(OC)(=O)C1=CC(N(=O)=O)=C(C)C=C1", "physical_data": {"Molecular Weight": "195.17", "Molecular Formula": "C9H9NO4", "Melting Point": "71 \u00b0C"}}