{"cas_no": "7356-60-7", "cn_name": "3-\u5421\u5576\u5055\u80fa\u809f\u76d0\u9178\u76d0", "en_name": ["3-Pyridinecarboximidamide, hydrochloride (1:1)", "3-Pyridinecarboximidamide, hydrochloride (1:1)", "Nicotinamidine, monohydrochloride", "3-Pyridinecarboximidamide, monohydrochloride", "Nicotinamidine, hydrochloride", "3-Guanylpyridine hydrochloride", "3-Pyridinecarboxamidine hydrochloride", "3-Amidinopyridine hydrochloride", "3-Amidinopyridine monohydrochloride", "Nicotinimidamide hydrochloride", "3-Amidinopyridinium chloride", "Pyridine-5-carboximidamide hydrochloride"], "SMILES": "C(=N)(N)C=1C=CC=NC1.Cl", "physical_data": {"Molecular Weight": "", "Molecular Formula": "C6H7N3.ClH", "Melting Point": "189-190 \u00b0C"}}