{"cas_no": "73568-26-0", "cn_name": "2-\u6c2f-8-\u7532\u57fa\u55b9\u5549-3-\u7532\u919b", "en_name": ["2-Chloro-8-methylquinoline-3-carboxaldehyde", "3-Quinolinecarboxaldehyde, 2-chloro-8-methyl-", "2-Chloro-8-methyl-3-quinolinecarboxaldehyde", "2-Chloro-3-formyl-8-methylquinoline", "2-Chloro-8-methyl-3-quinolinecarbaldehyde", "2-Chloro-8-methylquinoline-3-carboxaldehyde"], "SMILES": "CC=1C2=C(C=C(C=O)C(Cl)=N2)C=CC1", "physical_data": {"Molecular Weight": "205.64", "Molecular Formula": "C11H8ClNO", "Melting Point": "138 \u00b0C"}}