{"cas_no": "73568-27-1", "cn_name": "2-\u6c2f-6-\u7532\u57fa\u55b9\u5549-3-\u7532\u919b", "en_name": ["2-Chloro-3-formyl-6-methylquinoline", "3-Quinolinecarboxaldehyde, 2-chloro-6-methyl-", "2-Chloro-6-methyl-3-quinolinecarboxaldehyde", "2-Chloro-3-formyl-6-methylquinoline", "2-Chloro-6-methylquinoline-3-carbaldehyde", "2-Chloro-6-methyl-3-quinolinecarbaldehyde"], "SMILES": "C(=O)C1=CC2=C(N=C1Cl)C=CC(C)=C2", "physical_data": {"Molecular Weight": "205.64", "Molecular Formula": "C11H8ClNO", "Melting Point": "123 \u00b0C"}}