{"cas_no": "7356-41-4", "cn_name": "2,5-\u4e8c\u7532\u57fa\u82ef\u6c27\u57fa\u4e59\u9178", "en_name": ["2-(2,5-Dimethylphenoxy)acetic acid", "Acetic acid, 2-(2,5-dimethylphenoxy)-", "Acetic acid, (2,5-xylyloxy)-", "Acetic acid, (2,5-dimethylphenoxy)-", "2-(2,5-Dimethylphenoxy)acetic acid", "(2,5-Dimethylphenoxy)acetic acid", "NSC 48915", "NSC 62096"], "SMILES": "O(CC(O)=O)C1=C(C)C=CC(C)=C1", "physical_data": {"Molecular Weight": "180.20", "Molecular Formula": "C10H12O3", "Melting Point": "195-197 \u00b0C"}}