{"cas_no": "73576-33-7", "cn_name": "2-\u6c28\u57fa-4-\u5f02\u4e19\u57fa-6-\u6c2f\u5627\u5576", "en_name": ["4-Chloro-6-(1-methylethyl)-2-pyrimidinamine", "2-Pyrimidinamine, 4-chloro-6-(1-methylethyl)-", "4-Chloro-6-(1-methylethyl)-2-pyrimidinamine", "2-Amino-4-chloro-6-isopropylpyrimidine", "4-Chloro-6-isopropylpyrimidin-2-amine"], "SMILES": "C(C)(C)C=1C=C(Cl)N=C(N)N1", "physical_data": {"Molecular Weight": "171.63", "Molecular Formula": "C7H10ClN3", "Melting Point": "99-102 \u00b0C"}}