{"cas_no": "7357-70-2", "cn_name": "2-\u6c30\u57fa\u786b\u4ee3\u4e59\u9170\u80fa", "en_name": ["Cyanothioacetamide", "Ethanethioamide, 2-cyano-", "Acetamide, 2-cyanothio-", "2-Cyanoethanethioamide", "Cyanothioacetamide", "\u03b1-Cyanothioacetamide", "(Thiocarbamoyl)acetonitrile", "2-Cyanothioacetamide", "NSC 53405"], "SMILES": "C(C(N)=S)C#N", "physical_data": {"Molecular Weight": "100.14", "Molecular Formula": "C3H4N2S", "Melting Point": "121-123 \u00b0C"}}