{"cas_no": "73576-32-6", "cn_name": "2-\u6c28\u57fa-4-\u7f9f\u57fa-6-\u5f02\u4e19\u57fa\u5627\u5576", "en_name": ["2-Amino-6-(1-methylethyl)-4(3H)-pyrimidinone", "4(3H)-Pyrimidinone, 2-amino-6-(1-methylethyl)-", "4(1H)-Pyrimidinone, 2-amino-6-(1-methylethyl)-", "2-Amino-6-(1-methylethyl)-4(3H)-pyrimidinone", "2-Amino-6-isopropylpyrimidin-4-ol", "2-Amino-6-(propan-2-yl)pyrimidin-4-ol", "2-Amino-6-(propan-2-yl)-3,4-dihydropyrimidin-4-one", "2-Amino-6-propan-2-yl-1H-pyrimidin-4-one", "2-Amino-6-isopropyl-3H-pyrimidin-4-one"], "SMILES": "C(C)(C)C1=CC(=O)N=C(N)N1", "physical_data": {"Molecular Weight": "153.18", "Molecular Formula": "C7H11N3O", "Melting Point": "246-248 \u00b0C"}}