{"cas_no": "73570-52-2", "cn_name": "\u78b1\u6027\u84dd 3", "en_name": ["Phenoxazin-5-ium, 3,7-bis(diethylamino)-, nitrate (1:1)", "Phenoxazin-5-ium, 3,7-bis(diethylamino)-, nitrate (1:1)", "Phenoxazin-5-ium, 3,7-bis(diethylamino)-, nitrate"], "SMILES": "N(=O)(=O)[O-].N(CC)(CC)C1=CC2=C(N=C3C(=[O+]2)C=C(N(CC)CC)C=C3)C=C1", "physical_data": {"Molecular Weight": "", "Molecular Formula": "C20H26N3O.NO3", "Melting Point": "193-194 \u00b0C"}}