{"cas_no": "73573-88-3", "cn_name": "\u7f8e\u4f10\u4ed6\u6c40", "en_name": ["Mevastatin", "Butanoic acid, 2-methyl-, (1S,7S,8S,8aR)-1,2,3,7,8,8a-hexahydro-7-methyl-8-[2-[(2R,4R)-tetrahydro-4-hydroxy-6-oxo-2H-pyran-2-yl]ethyl]-1-naphthalenyl ester, (2S)-", "Butanoic acid, 2-methyl-, 1,2,3,7,8,8a-hexahydro-7-methyl-8-[2-(tetrahydro-4-hydroxy-6-oxo-2H-pyran-2-yl)ethyl]-1-naphthalenyl ester, [1S-[1\u03b1(R*),7\u03b2,8\u03b2(2S*,4S*),8a\u03b2]]-", "Compactin (Penicillium)", "ML 236B", "CS 500", "(+)-Compactin", "ML 236B lactone", "Antibiotic ML 236B", "Compactin", "Mevastatin", "CS 500 (antibiotic)", "L 637312", "Statin I", "NSC 281245"], "SMILES": "C(CC1CC(O)CC(=O)O1)C2C3C(OC(C(CC)C)=O)CCC=C3C=CC2C", "physical_data": {"Molecular Weight": "390.51", "Molecular Formula": "C23H34O5", "Melting Point": "152 \u00b0C"}}