{"cas_no": "7357-67-7", "cn_name": "N-(3-\u6c2f\u4e19\u57fa)\u5417\u5549", "en_name": ["4-(3-Chloropropyl)morpholine", "Morpholine, 4-(3-chloropropyl)-", "4-(3-Chloropropyl)morpholine", "3-Morpholinopropyl chloride", "N-(3-Chloropropyl)morpholine", "1-Chloro-3-morpholinopropane", "NSC 28831", "NSC 38889", "3-Chloro-1-(morpholin-4-yl)propane", "3-(Morpholin-4-yl)propyl chloride"], "SMILES": "C(CCCl)N1CCOCC1", "physical_data": {"Molecular Weight": "163.65", "Molecular Formula": "C7H14ClNO", "Boiling Point": "110-115 \u00b0C @ Press: 25 Torr", "Density": "1.0409 g/cm\u00b3 @ Temp: 20 \u00b0C"}}