{"cas_no": "7359-72-0", "cn_name": "2,3,4-\u4e09\u6c2f\u7532\u82ef", "en_name": ["1,2,3-Trichloro-4-methylbenzene", "Benzene, 1,2,3-trichloro-4-methyl-", "Toluene, 2,3,4-trichloro-", "1,2,3-Trichloro-4-methylbenzene", "2,3,4-Trichlorotoluene"], "SMILES": "ClC1=C(Cl)C(Cl)=CC=C1C", "physical_data": {"Molecular Weight": "195.47", "Molecular Formula": "C7H5Cl3", "Boiling Point": "244 \u00b0C", "Melting Point": "43.5 \u00b0C"}}