{"cas_no": "73590-58-6", "cn_name": "\u5965\u7f8e\u62c9\u5511", "en_name": ["Omeprazole", "1H-Benzimidazole, 6-methoxy-2-[[(4-methoxy-3,5-dimethyl-2-pyridinyl)methyl]sulfinyl]-", "1H-Benzimidazole, 5-methoxy-2-[[(4-methoxy-3,5-dimethyl-2-pyridinyl)methyl]sulfinyl]-", "6-Methoxy-2-[[(4-methoxy-3,5-dimethyl-2-pyridinyl)methyl]sulfinyl]-1H-benzimidazole", "Omeprazole", "H 168/68", "Losec", "Prilosec", "Audazol", "Aulcer", "Belmazol", "Ceprandal", "Elgam", "Emeproton", "Gastrimut", "Indurgan", "Miol", "Mopral", "Omapren", "Ompanyt", "Parizac", "Pepticum", "Prysma", "Sanamidol", "Secrepina", "Ulceral", "Ulcesep", "Ulcometion", "Zimor", "Omepral", "Gastrozole", "(\u00b1)-Omeprazole", "Antra", "Antra MUPS", "Ultop", "2-[[(3,5-Dimethyl-4-methoxy-2-pyridyl)methyl]sulfinyl]-5-methoxy-1H-benzimidazole", "Omebeta 20", "Dizprazol", "Dudencer", "Epirazole", "Gastroloc", "Gibancer", "Acidex", "Desec", "Logastric", "Lomac", "Miracid", "Ocid", "Omed", "Omedar", "OMEP", "Omepril", "Omeprazon", "Omezol", "Omezzol", "Omid", "Omizac", "Omisec", "OMP", "OMZ", "Oprax", "Opraz", "Ozoken", "Peptilcer", "Prazidec", "Ramezol", "Roweprazol", "Ulcozol", "Ulsen", "Ulzone", "Zefxon", "Zoltum", "Inhibitron", "Inhipump", "Omepradex", "Mepral", "Omeprazen", "5-Methoxy-2-[[(4-methoxy-3,5-dimethyl-2-pyridyl)methyl]sulfinyl]-1H-benzimidazole", "GastroGard", "Megazole", "Omeprol", "Omeprazole-Towa", "Ovulanze", "Omerap", "Emilok", "5-Methoxy-2-[[(4-methoxy-3,5-dimethyl-2-pyridinyl)methyl]sulfinyl]-1H-benzimidazole", "Omelac", "Petprazol 20", "Equiprazole", "Zegerid", "Gastroguard", "RS-omeprazole", "MeSH ID: D009853"], "SMILES": "S(CC1=C(C)C(OC)=C(C)C=N1)(=O)C=2NC=3C(N2)=CC=C(OC)C3", "physical_data": {"Molecular Weight": "345.42", "Molecular Formula": "C17H19N3O3S", "Melting Point": "156 \u00b0C", "Density": "1.332 g/cm\u00b3"}}