{"cas_no": "73590-85-9", "cn_name": "\u5965\u7f8e\u62c9\u5511\u786b\u919a", "en_name": ["Omeprazole sulfide", "1H-Benzimidazole, 6-methoxy-2-[[(4-methoxy-3,5-dimethyl-2-pyridinyl)methyl]thio]-", "1H-Benzimidazole, 5-methoxy-2-[[(4-methoxy-3,5-dimethyl-2-pyridinyl)methyl]thio]-", "6-Methoxy-2-[[(4-methoxy-3,5-dimethyl-2-pyridinyl)methyl]thio]-1H-benzimidazole", "Omeprazole sulfide", "H 168/22", "Ufiprazole", "2-[[(3,5-Dimethyl-4-methoxy-2-pyridyl)methyl]thio]-5-methoxybenzimidazole", "Pyrmetazole", "2-[[(3,5-Dimethyl-4-methoxy-2-pyridyl)methyl]thio]-5-methoxy-1H-benzimidazole", "5-Methoxy-2-[[(4-methoxy-3,5-dimethyl-2-pyridinyl)methyl]thio]-1H-benzimidazole", "5-Methoxy-2-[[(4-methoxy-3,5-dimethyl-2-pyridyl)methyl]thio]-1H-benzimidazole", "2-[(4-Methoxy-3,5-dimethylpyridin-2-ylmethyl)thio]-5-methoxybenzimidazole"], "SMILES": "S(CC1=C(C)C(OC)=C(C)C=N1)C=2NC=3C(N2)=CC=C(OC)C3", "physical_data": {"Molecular Weight": "329.42", "Molecular Formula": "C17H19N3O2S", "Melting Point": "120-121.8 \u00b0C"}}