{"cas_no": "736-53-8", "cn_name": "\u785d\u544b\u592a\u5c14\u6742\u8d28B", "en_name": ["5-Nitro-2-furancarboxaldehyde 2-[(5-nitro-2-furanyl)methylene]hydrazone", "2-Furancarboxaldehyde, 5-nitro-, 2-[(5-nitro-2-furanyl)methylene]hydrazone", "2-Furaldehyde, 5-nitro-, azine", "2-Furancarboxaldehyde, 5-nitro-, [(5-nitro-2-furanyl)methylene]hydrazone", "5-Nitro-2-furancarboxaldehyde 2-[(5-nitro-2-furanyl)methylene]hydrazone"], "SMILES": "C(=NN=CC=1OC(N(=O)=O)=CC1)C=2OC(N(=O)=O)=CC2", "physical_data": {"Molecular Weight": "278.18", "Molecular Formula": "C10H6N4O6", "Melting Point": "240-241 \u00b0C"}}