{"cas_no": "736-30-1", "cn_name": "4,4`-\u4e8c\u785d\u57fa\u8054\u82c4", "en_name": ["1,2-Bis(4-nitrophenyl)ethane", "Benzene, 1,1\u2032-(1,2-ethanediyl)bis[4-nitro-", "Bibenzyl, 4,4\u2032-dinitro-", "1,1\u2032-(1,2-Ethanediyl)bis[4-nitrobenzene]", "1,2-Bis(p-nitrophenyl)ethane", "p,p\u2032-Dinitrodibenzyl", "p,p\u2032-Dinitrobibenzyl", "4,4\u2032-Dinitrobibenzyl", "4,4\u2032-Dinitrodibenzyl", "1,2-Ethanediylbis[4-nitrobenzene]", "1,2-Bis(4-nitrophenyl)ethane", "4,4\u2032-Dinitrodihydrostilbene", "Bis(p-nitrobenzyl)", "NSC 60022", "NSC 608", "1,1\u2032-ethane-1,2-diylbis(4-nitrobenzene)", "1-Nitro-4-[2-(4-nitrophenyl)ethyl]benzene"], "SMILES": "N(=O)(=O)C1=CC=C(CCC2=CC=C(N(=O)=O)C=C2)C=C1", "physical_data": {"Molecular Weight": "272.26", "Molecular Formula": "C14H12N2O4", "Melting Point": "180.5 \u00b0C"}}