{"cas_no": "73602-61-6", "cn_name": "\u4e09\u4e59\u80fa\u4e09\u6c22\u6c1f\u9178\u76d0", "en_name": ["Triethylamine trihydrofluoride", "Ethanamine, N,N-diethyl-, hydrofluoride (1:3)", "Ethanamine, N,N-diethyl-, trihydrofluoride", "Triethylamine trihydrofluoride", "Triethylamine tris(hydrogen fluoride)", "Triethylamine tri(hydrogen fluoride)", "Fluoride (H2F31-), hydrogen, compd. with N,N-diethylethanamine (1:1:1)", "TR 867"], "SMILES": "N(CC)(CC)CC.F", "physical_data": {"Molecular Weight": "", "Molecular Formula": "C6H15N.3FH", "Melting Point": "-27 \u00b0C", "Density": "1.007 g/cm\u00b3 @ Temp: 20 \u00b0C"}}