{"cas_no": "7360-09-0", "cn_name": "TRP-GLY", "en_name": ["L-Tryptophanylglycine", "Glycine, L-tryptophyl-", "Glycine, N-L-tryptophyl-", "L-Tryptophylglycine", "L-Tryptophanylglycine", "NSC 97945", "473: PN: EP2161028 TABLE: 5 claimed protein", "24: PN: WO2014063098 TABLE: 5 claimed protein", "121: PN: US20130123467 SEQID: 145 claimed protein", "8: PN: JP2014079213 TABLE: 2 claimed sequence", "1: PN: CN109627344 SEQID: 5 claimed sequence", "(S)-2-(2-Amino-3-(1H-indol-3-yl)propanamido)acetic acid", "11: PN: WO2019231175 SEQID: 17 claimed protein", "2-[[(2S)-2-Azaniumyl-3-(1H-indol-3-yl)propanoyl]amino]acetate", "2-[(2S)-2-Amino-3-(1H-indol-3-yl)propanamido]acetic acid", "42: PN: WO2020097235 SEQID: 271 claimed protein"], "SMILES": "C(C(C(NCC(O)=O)=O)N)C=1C=2C(NC1)=CC=CC2", "physical_data": {"Molecular Weight": "261.28", "Molecular Formula": "C13H15N3O3", "Melting Point": "176-178 \u00b0C"}}