{"cas_no": "73609-36-6", "cn_name": "1H,1H,2H,2H-\u5168\u6c1f\u8f9b\u57fa\u7532\u57fa\u4e8c\u6c2f\u7845\u70f7", "en_name": ["1H,1H,2H,2H-Perfluorooctylmethyldichlorosilane", "Silane, dichloromethyl(3,3,4,4,5,5,6,6,7,7,8,8,8-tridecafluorooctyl)-", "Dichloromethyl(3,3,4,4,5,5,6,6,7,7,8,8,8-tridecafluorooctyl)silane", "T 2491", "3,3,4,4,5,5,6,6,7,7,8,8,8-Tridecafluorooctylmethyldichlorosilane", "1H,1H,2H,2H-Perfluorooctylmethyldichlorosilane", "(Tridecafluoro-1,1,2,2-tetrahydrooctyl)methyldichlorosilane", "Dichloromethyl(1H,1H,2H,2H-perfluorooctyl)silane"], "SMILES": "C(C(C(C(F)(F)F)(F)F)(F)F)(C(C(CC[Si](C)(Cl)Cl)(F)F)(F)F)(F)F", "physical_data": {"Molecular Weight": "461.12", "Molecular Formula": "C9H7Cl2F13Si", "Boiling Point": "189-190 \u00b0C", "Density": "1.55 g/cm\u00b3 @ Temp: 25 \u00b0C"}}