{"cas_no": "73616-27-0", "cn_name": "2-(5-\u6c28\u57fa-1H-\u5421\u5511-1-\u57fa)\u4e59\u9187", "en_name": ["5-Amino-1H-pyrazole-1-ethanol", "1H-Pyrazole-1-ethanol, 5-amino-", "Pyrazole-1-ethanol, 5-amino-", "5-Amino-1H-pyrazole-1-ethanol", "5-Amino-1-(2-hydroxyethyl)pyrazole", "NSC 267219", "2-(5-Amino-1H-pyrazol-1-yl)ethanol", "2-(5-Amino-1H-pyrazol-1-yl)ethan-1-ol", "2-(5-Aminopyrazol-1-yl)ethanol"], "SMILES": "C(CO)N1C(N)=CC=N1", "physical_data": {"Molecular Weight": "127.14", "Molecular Formula": "C5H9N3O", "Boiling Point": "133-140 \u00b0C @ Press: 0.04 Torr", "Melting Point": "108-109 \u00b0C"}}