{"cas_no": "7361-61-7", "cn_name": "\u8d5b\u62c9\u55ea", "en_name": ["Xylazine", "4H-1,3-Thiazin-2-amine, N-(2,6-dimethylphenyl)-5,6-dihydro-", "4H-1,3-Thiazine, 5,6-dihydro-2-(2,6-xylidino)-", "N-(2,6-Dimethylphenyl)-5,6-dihydro-4H-1,3-thiazin-2-amine", "BAY 1470", "Xylazine", "2-(2,6-Dimethylphenylamino)-5,6-dihydro-4H-1,3-thiazine", "Xylazin", "Wh 7286", "Primazine", "Sedomin", "Anased", "Rometar", "Xylazil", "Xylaz", "Cervizine 300", "MeSH ID: D014991"], "SMILES": "N(C1=C(C)C=CC=C1C)C2=NCCCS2", "physical_data": {"Molecular Weight": "220.33", "Molecular Formula": "C12H16N2S", "Melting Point": "140 \u00b0C"}}