{"cas_no": "7364-33-2", "cn_name": "6-\u785d\u57fa-3-\u7f9f\u57fa\u5432\u5511", "en_name": ["1,2-Dihydro-6-nitro-3H-indazol-3-one", "3H-Indazol-3-one, 1,2-dihydro-6-nitro-", "3-Indazolinone, 6-nitro-", "1,2-Dihydro-6-nitro-3H-indazol-3-one", "6-Nitro-3-indazolinone", "NSC 87549", "6-Nitro-1,2-dihydroindazol-3-one", "3-Hydroxy-6-nitro (1H)indazole"], "SMILES": "O=C1C=2C(=CC(N(=O)=O)=CC2)NN1", "physical_data": {"Molecular Weight": "179.13", "Molecular Formula": "C7H5N3O3", "Melting Point": "243 \u00b0C"}}