{"cas_no": "7364-25-2", "cn_name": "3-\u5432\u5511\u5549\u916e", "en_name": ["Indazolinone", "3H-Indazol-3-one, 1,2-dihydro-", "3-Indazolinone", "1,2-Dihydro-3H-indazol-3-one", "1H-Indazol-3-ol", "3-Hydroxy-1H-indazole", "Indazolinone", "3-Indazolone", "2,3-Dihydro-1H-indazol-3-one", "NSC 9352", "1,2-Dihydroindazol-3-one", "1H-Indazol-3(2H)-one"], "SMILES": "O=C1C=2C(=CC=CC2)NN1", "physical_data": {"Molecular Weight": "134.14", "Molecular Formula": "C7H6N2O", "Melting Point": "246-249 \u00b0C"}}