{"cas_no": "7365-45-9", "cn_name": "4-\u7f9f\u4e59\u57fa\u54cc\u55ea\u4e59\u78fa\u9178", "en_name": ["4-(2-Hydroxyethyl)-1-piperazineethanesulfonic acid", "1-Piperazineethanesulfonic acid, 4-(2-hydroxyethyl)-", "4-(2-Hydroxyethyl)-1-piperazineethanesulfonic acid", "HEPES", "N-2-Hydroxyethylpiperazino-N\u2032-2-ethanesulfonic acid", "N-(2-Hydroxyethyl)piperazine-N\u2032-2-ethanesulfonic acid", "N-(2-Hydroxyethyl)piperazine-N\u2032-2\u2032-ethanesulfonic acid", "1-[4-(2-Hydroxyethyl)-1-piperazinyl]ethane-2-sulfonic acid", "2-[4-(2-Hydroxyethyl)piperazin-1-yl]ethanesulfonic acid", "N-(2-Hydroxyethyl)piperazine-N\u2032-ethanesulfonic acid", "2-[4-(2-Hydroxyethyl)piperazinyl]ethanesulfonic acid", "N\u2032-2-Hydroxyethylpiperazine-N-2-ethanesulfonic acid", "WAS 13", "TVZ 7", "NSC 166663", "N\u2032-(2-Hydroxyethyl)piperazine-N-(2-ethanesulfonic acid)", "4-(2-Hydroxyethyl)piperazine-1-(2-ethanesulfonic acid)", "2-[4-(2-Hydroxyethyl)piperazin-1-yl]ethane-1-sulfonic acid"], "SMILES": "C(CS(=O)(=O)O)N1CCN(CCO)CC1", "physical_data": {"Molecular Weight": "238.30", "Molecular Formula": "C8H18N2O4S", "Melting Point": "234 \u00b0C"}}