{"cas_no": "7366-56-5", "cn_name": "(4-\u7fa7\u82ef\u57fa)\u786b\u8132", "en_name": ["4-[(Aminothioxomethyl)amino]benzoic acid", "Benzoic acid, 4-[(aminothioxomethyl)amino]-", "Benzoic acid, p-(thioureido)-", "4-[(Aminothioxomethyl)amino]benzoic acid", "(p-Carboxyphenyl)thiourea", "4-Thioureidobenzoic acid", "N-(4-Carboxyphenyl)thiourea", "NSC 49255", "Thiourea, 4-carboxyphenyl-", "4-Carboxyphenylthiourea"], "SMILES": "N(C(N)=S)C1=CC=C(C(O)=O)C=C1", "physical_data": {"Molecular Weight": "196.23", "Molecular Formula": "C8H8N2O2S", "Melting Point": "&lt;330 \u00b0C"}}