{"cas_no": "7367-82-0", "cn_name": "\u53cd\u5f0f-2-\u8f9b\u70ef\u9178\u4e59\u916f", "en_name": ["Ethyl (E)-2-octenoate", "2-Octenoic acid, ethyl ester, (2E)-", "2-Octenoic acid, ethyl ester, (E)-", "Ethyl trans-2-octenoate", "Ethyl (E)-2-octenoate", "(2E)-2-Octenoic acid ethyl ester", "Ethyl oct-(2E)-enoate"], "SMILES": "C(C=CCCCCC)(OCC)=O", "physical_data": {"Molecular Weight": "170.25", "Molecular Formula": "C10H18O2", "Boiling Point": "55 \u00b0C @ Press: 0.03 Torr"}}