{"cas_no": "7367-88-6", "cn_name": "\u53cd\u5f0f-2-\u7678\u70ef\u9178\u4e59\u916f", "en_name": ["Ethyl trans-2-decenoate", "2-Decenoic acid, ethyl ester, (2E)-", "2-Decenoic acid, ethyl ester, (E)-", "Ethyl 2-(E)-decenoate", "Ethyl trans-2-decenoate"], "SMILES": "C(=CCCCCCCC)C(OCC)=O", "physical_data": {"Molecular Weight": "198.30", "Molecular Formula": "C12H22O2", "Boiling Point": "87-88.5 \u00b0C @ Press: 2 Torr"}}