{"cas_no": "7367-78-4", "cn_name": "\u5c71\u68a8\u9178\u4e01\u916f", "en_name": ["Butyl (2E,4E)-2,4-hexadienoate", "2,4-Hexadienoic acid, butyl ester, (2E,4E)-", "Sorbic acid, butyl ester", "2,4-Hexadienoic acid, butyl ester, (E,E)-", "Butyl (2E,4E)-2,4-hexadienoate", "n-Butyl sorbate", "Butyl sorbate", "NSC 19181", "(2E,4E)-2,4-Hexadienoic acid butyl ester"], "SMILES": "C(C(OCCCC)=O)=CC=CC", "physical_data": {"Molecular Weight": "168.23", "Molecular Formula": "C10H16O2", "Boiling Point": "125-128 \u00b0C @ Press: 30 Torr", "Melting Point": "120-140 \u00b0C", "Density": "0.9216 g/cm\u00b3 @ Temp: 20 \u00b0C"}}