{"cas_no": "7367-81-9", "cn_name": "\u53cd\u5f0f-2-\u8f9b\u70ef\u7532\u916f", "en_name": ["Methyl (E)-2-octenoate", "2-Octenoic acid, methyl ester, (2E)-", "2-Octenoic acid, methyl ester, (E)-", "Methyl trans-2-octenoate", "Methyl (E)-2-octenoate", "(E)-Methyl oct-2-enoate", "Methyl trans-2-octenoate"], "SMILES": "C(=CC(OC)=O)CCCCC", "physical_data": {"Molecular Weight": "156.22", "Molecular Formula": "C9H16O2", "Boiling Point": "77 \u00b0C @ Press: 12 Torr", "Density": "0.9010 g/cm\u00b3 @ Temp: 20 \u00b0C"}}