{"cas_no": "73692-50-9", "cn_name": "\u67da\u76ae\u7d20\u67e5\u8033\u916e", "en_name": ["2\u2032,4,4\u2032,6\u2032-Tetrahydroxychalcone", "2-Propen-1-one, 3-(4-hydroxyphenyl)-1-(2,4,6-trihydroxyphenyl)-", "Chalcone, 2\u2032,4,4\u2032,6\u2032-tetrahydroxy-", "3-(4-Hydroxyphenyl)-1-(2,4,6-trihydroxyphenyl)-2-propen-1-one", "4,2\u2032,4\u2032,6\u2032-Tetrahydroxychalcone", "2\u2032,4,4\u2032,6\u2032-Tetrahydroxychalcone"], "SMILES": "C(C=CC1=CC=C(O)C=C1)(=O)C2=C(O)C=C(O)C=C2O", "physical_data": {"Molecular Weight": "272.25", "Molecular Formula": "C15H12O5", "Melting Point": "173-174 \u00b0C"}}