{"cas_no": "7369-69-9", "cn_name": "4\u2013\u6c2f\u5429\u567b\u55ea", "en_name": ["4-Chloro-10H-phenothiazine", "10H-Phenothiazine, 4-chloro-", "Phenothiazine, 4-chloro-", "4-Chloro-10H-phenothiazine", "4-Chlorophenothiazine"], "SMILES": "ClC1=C2C(NC=3C(S2)=CC=CC3)=CC=C1", "physical_data": {"Molecular Weight": "233.72", "Molecular Formula": "C12H8ClNS", "Melting Point": "116-117 \u00b0C"}}