{"cas_no": "737-86-0", "cn_name": "PYRIDOXAL ISONICOTINOYL HYDRAZONE", "en_name": ["Pyridoxal isonicotinoyl hydrazone", "4-Pyridinecarboxylic acid, 2-[[3-hydroxy-5-(hydroxymethyl)-2-methyl-4-pyridinyl]methylene]hydrazide", "Isonicotinic acid, [[3-hydroxy-5-(hydroxymethyl)-2-methyl-4-pyridyl]methylene]hydrazide", "4-Pyridinecarboxylic acid, [[3-hydroxy-5-(hydroxymethyl)-2-methyl-4-pyridinyl]methylene]hydrazide", "Isonicotinic acid, hydrazide, hydrazone with pyridoxal", "Pyridoxal isonicotinoyl hydrazone", "PIH", "NSC 77674"], "SMILES": "C(=NNC(=O)C=1C=CN=CC1)C=2C(CO)=CN=C(C)C2O", "physical_data": {"Molecular Weight": "286.29", "Molecular Formula": "C14H14N4O3", "Melting Point": "261-262 \u00b0C (decomp)"}}