{"cas_no": "737-31-5", "cn_name": "\u6cdb\u5f71\u9178\u94a0", "en_name": ["Sodium diatrizoate", "Benzoic acid, 3,5-bis(acetylamino)-2,4,6-triiodo-, sodium salt (1:1)", "Benzoic acid, 3,5-diacetamido-2,4,6-triiodo-, monosodium salt", "Benzoic acid, 3,5-bis(acetylamino)-2,4,6-triiodo-, monosodium salt", "Benzoic acid, 3,5-diacetamido-2,4,6-triiodo-, sodium salt", "Diatrizoate sodium", "Hypaque", "Hypaque sodium", "Sodium amidotrizoate", "Sodium 3,5-diacetamido-2,4,6-triiodobenzoate", "Sodium diatrizoate", "Triombrine", "Triombrin", "Hypaque 50", "3,5-Diacetamido-2,4,6-triiodobenzoic acid sodium salt", "Urografic acid sodium salt", "Radioselectan", "Urografin S", "Urovist 300", "Urographing 370", "Urovist sodium", "Urovist sodium 300"], "SMILES": "N(C(C)=O)C1=C(I)C(C(O)=O)=C(I)C(NC(C)=O)=C1I.[Na]", "physical_data": {"Molecular Weight": "", "Molecular Formula": "C11H9I3N2O4.Na", "Melting Point": "261 \u00b0C"}}