{"cas_no": "7370-92-5", "cn_name": "\u56db\u6c22-6-\u8f9b\u57fa-2H-\u5421\u5583-2-\u916e", "en_name": ["\u03b4-Tridecalactone", "2H-Pyran-2-one, tetrahydro-6-octyl-", "Tridecanoic acid, 5-hydroxy-, \u03b4-lactone", "Tetrahydro-6-octyl-2H-pyran-2-one", "5-Hydroxytridecanoic acid \u03b4-lactone", "\u03b4-Octyl-\u03b4-valerolactone", "(R,S)-\u03b4-Tridecalactone", "5-Tridecanolide", "\u03b4-Tridecalactone", "\u03b4-Tridecanolactone", "6-Octyltetrahydro-2H-pyran-2-one", "6-Octyltetrahydropyran-2-one"], "SMILES": "C(CCCCCCC)C1OC(=O)CCC1", "physical_data": {"Molecular Weight": "212.33", "Molecular Formula": "C13H24O2", "Boiling Point": "188 \u00b0C @ Press: 11 Torr", "Melting Point": "42-43 \u00b0C"}}