{"cas_no": "73713-79-8", "cn_name": "\u82ef\u5e76[1\uff0c2\uff0c5]\u567b\u4e8c\u5511-4-\u78fa\u9170\u6c2f", "en_name": ["2,1,3-Benzothiadiazole-4-sulfonyl chloride", "2,1,3-Benzothiadiazole-4-sulfonyl chloride", "Benzo[c]-1,2,5-thiadiazole-4-sulfonyl chloride", "4-Chlorosulfonyl-2,1,3-benzothiadiazole", "2\u03bb4\u03b42-2,1,3-Benzothiadiazole-4-sulfonyl chloride"], "SMILES": "S(Cl)(=O)(=O)C=1C=2C(C=CC1)=NSN2", "physical_data": {"Molecular Weight": "234.68", "Molecular Formula": "C6H3ClN2O2S2", "Melting Point": "163-165 \u00b0C"}}