{"cas_no": "73724-46-6", "cn_name": "Fmoc-O-\u82c4\u57fa-L-\u4e1d\u6c28\u9178", "en_name": ["N-[(9H-Fluoren-9-ylmethoxy)carbonyl]-L-serine phenylmethyl ester", "L-Serine, N-[(9H-fluoren-9-ylmethoxy)carbonyl]-, phenylmethyl ester", "N-[(9H-Fluoren-9-ylmethoxy)carbonyl]-L-serine phenylmethyl ester", "Fmoc-L-serine benzyl ester", "Fmoc-Ser-OBn", "N-Fmoc-L-serine benzyl ester", "(S)-Benzyl 2-((((9H-fluoren-9-yl)methoxy)carbonyl)amino)-3-hydroxypropanoate"], "SMILES": "C(OC(NC(C(OCC1=CC=CC=C1)=O)CO)=O)C2C=3C(C=4C2=CC=CC4)=CC=CC3", "physical_data": {"Molecular Weight": "417.45", "Molecular Formula": "C25H23NO5", "Melting Point": "98-100 \u00b0C"}}