{"cas_no": "7372-30-7", "cn_name": "\u718a\u679c\u9178\u4e59\u9178\u916f", "en_name": ["3-O-Acetylursolic acid", "Urs-12-en-28-oic acid, 3-(acetyloxy)-, (3\u03b2)-", "Urs-12-en-28-oic acid, 3\u03b2-hydroxy-, acetate", "(3\u03b2)-3-(Acetyloxy)urs-12-en-28-oic acid", "Ursolic acid acetate", "Acetylursolic acid", "3-O-Acetylursolic acid", "Ursolic acetate", "Ursolic acid 3-O-acetate", "Ursolic acid 3-acetate", "3-Acetylursolic acid"], "SMILES": "CC12C3(C)C(C4C(C(O)=O)(CC3)CCC(C)C4C)=CCC1C5(C)C(CC2)C(C)(C)C(OC(C)=O)CC5", "physical_data": {"Molecular Weight": "498.74", "Molecular Formula": "C32H50O4", "Melting Point": "279-280 \u00b0C"}}