{"cas_no": "7372-88-5", "cn_name": "4-\u7532\u57fa\u4e8c\u82ef\u5e76\u567b\u5429", "en_name": ["4-Methyldibenzothiophene", "Dibenzothiophene, 4-methyl-", "4-Methyldibenzothiophene", "4-Methyldibenzo[b,d]thiophene", "4-MDBT"], "SMILES": "CC1=C2C(C=3C(S2)=CC=CC3)=CC=C1", "physical_data": {"Molecular Weight": "198.28", "Molecular Formula": "C13H10S", "Boiling Point": "&gt;334 \u00b0C", "Melting Point": "66.5 \u00b0C"}}