{"cas_no": "73732-51-1", "cn_name": "5-(3-\u6c28\u57fa\u82ef\u57fa)\u56db\u5511", "en_name": ["5-(3-Aminophenyl)tetrazole", "Benzenamine, 3-(2H-tetrazol-5-yl)-", "Benzenamine, 3-(1H-tetrazol-5-yl)-", "Tetrazole, 5-(m-aminophenyl)-", "3-(2H-Tetrazol-5-yl)benzenamine", "5-(m-Aminophenyl)tetrazole", "5-(3-Aminophenyl)tetrazole", "3-(1H-Tetrazol-5-yl)aniline", "NSC 338110", "3-(Tetrazol-5-yl)aniline", "3-(1H-Tetrazol-5-yl)phenylamine"], "SMILES": "NC=1C=C(C=CC1)C=2NN=NN2", "physical_data": {"Molecular Weight": "161.16", "Molecular Formula": "C7H7N5", "Melting Point": "199-200 \u00b0C"}}