{"cas_no": "7374-79-0", "cn_name": "\u523a\u4e94\u52a0\u63d0\u53d6\u7269", "en_name": ["Acanthoside B", "\u03b2-D-Glucopyranoside, 2,6-dimethoxy-4-[(1S,3aR,4S,6aR)-tetrahydro-4-(4-hydroxy-3,5-dimethoxyphenyl)-1H,3H-furo[3,4-c]furan-1-yl]phenyl", "Glucopyranoside, 2,6-dimethoxy-4-[tetrahydro-4-(4-hydroxy-3,5-dimethoxyphenyl)-1H,3H-furo[3,4-c]furan-1-yl]phenyl, \u03b2-D-", "Acanthoside B", "\u03b2-D-Glucopyranoside, 2,6-dimethoxy-4-[tetrahydro-4-(4-hydroxy-3,5-dimethoxyphenyl)-1H,3H-furo[3,4-c]furan-1-yl]phenyl, [1S-(1\u03b1,3a\u03b1,4\u03b1,6a\u03b1)]-", "1H,3H-Furo[3,4-c]furan, \u03b2-D-glucopyranoside deriv.", "2,6-Dimethoxy-4-[(1S,3aR,4S,6aR)-tetrahydro-4-(4-hydroxy-3,5-dimethoxyphenyl)-1H,3H-furo[3,4-c]furan-1-yl]phenyl \u03b2-D-glucopyranoside", "Eleutheroside E1", "(+)-Syringaresinol \u03b2-D-glucoside", "(+)-Syringaresinol \u03b2-D-glucopyranoside", "(+)-Syringaresinol O-\u03b2-D-glucopyranoside", "(+)-Syringaresinol 4\u2032-O-\u03b2-glucopyranoside", "Syringaresinol 4\u2032-O-\u03b2-D-glucopyranoside", "Syringaresinol \u03b2-D-glucoside", "Syringaresinol-4-O-\u03b2-D-monoglucoside", "(+)-Springaresinol-4\u2032\u2032-O-\u03b2-D-monoglucopyranoside"], "SMILES": "O(C)C=1C=C(C2C3C(C(OC3)C4=CC(OC)=C(O)C(OC)=C4)CO2)C=C(OC)C1OC5OC(CO)C(O)C(O)C5O", "physical_data": {"Molecular Weight": "580.58", "Molecular Formula": "C28H36O13", "Melting Point": "182-183 \u00b0C"}}