{"cas_no": "73746-44-8", "cn_name": "4,5-\u4e8c\u7898-2-\u7532\u57fa\u54aa\u5511", "en_name": ["4,5-Diiodo-2-methyl-1H-imidazole", "1H-Imidazole, 4,5-diiodo-2-methyl-", "4,5-Diiodo-2-methyl-1H-imidazole", "4,5-Diiodo-2-methylimidazole"], "SMILES": "IC1=C(I)N=C(C)N1", "physical_data": {"Molecular Weight": "333.90", "Molecular Formula": "C4H4I2N2", "Melting Point": "193-195 \u00b0C"}}