{"cas_no": "73746-45-9", "cn_name": "4-\u7898-2-\u7532\u57fa-1H-\u54aa\u5511", "en_name": ["5-Iodo-2-methyl-1H-imidazole", "1H-Imidazole, 5-iodo-2-methyl-", "1H-Imidazole, 4-iodo-2-methyl-", "5-Iodo-2-methyl-1H-imidazole", "4-Iodo-2-methylimidazole", "4-Iodo-2-methyl-1H-imidazole"], "SMILES": "IC=1NC(C)=NC1", "physical_data": {"Molecular Weight": "208.00", "Molecular Formula": "C4H5IN2", "Melting Point": "144-145 \u00b0C"}}