{"cas_no": "7377-26-6", "cn_name": "4-\u6c2f\u7532\u9170\u57fa\u82ef\u7532\u9178\u7532\u916f", "en_name": ["Methyl 4-(chlorocarbonyl)benzoate", "Benzoic acid, 4-(chlorocarbonyl)-, methyl ester", "Benzoic acid, p-(chloroformyl)-, methyl ester", "p-(Carbomethoxy)benzoyl chloride", "4-(Carbomethoxy)benzoyl chloride", "Terephthaloyl chloride methyl ester", "p-(Methoxycarbonyl)benzoyl chloride", "Methyl 4-(chlorocarbonyl)benzoate", "4-(Methoxycarbonyl)benzoyl chloride", "Methyl p-(chlorocarbonyl)benzoate", "Methyl 4-(chloroformyl)benzoate", "Methyl p-(chloroformyl)benzoate", "Terephthalic acid chloride monomethyl ester", "Methyl terephthaloyl chloride", "Terephthalic acid monomethyl ester chloride", "Methyl terephthalyl chloride", "Monomethyl terephthaloyl chloride", "Methyl terephthalic chloride", "Monomethyl terephthalate acid chloride", "1-(Chloroformyl)-4-(methoxycarbonyl)benzene", "Methyl 4-carboxybenzoyl chloride", "4-Chlorocarbonylbenzoic acid methyl ester", "Methyl 4-(chlorocarbonyl)benzote", "Methyl 4-(carbonochloridoyl)benzoate", "4-(Chloroformyl)benzoic acid methyl ester"], "SMILES": "C(OC)(=O)C1=CC=C(C(Cl)=O)C=C1", "physical_data": {"Molecular Weight": "198.60", "Molecular Formula": "C9H7ClO3", "Boiling Point": "135-170 \u00b0C @ Press: 12 Torr", "Melting Point": "38-40 \u00b0C"}}