{"cas_no": "73771-04-7", "cn_name": "\u6cfc\u5c3c\u5361\u916f", "en_name": ["Prednicarbate", "Pregna-1,4-diene-3,20-dione, 17-[(ethoxycarbonyl)oxy]-11-hydroxy-21-(1-oxopropoxy)-, (11\u03b2)-", "(11\u03b2)-17-[(Ethoxycarbonyl)oxy]-11-hydroxy-21-(1-oxopropoxy)pregna-1,4-diene-3,20-dione", "Prednicarbate", "HOE 777", "Regenit", "EsCort", "S 77-0777", "Dermatop", "Prednitop", "Prednisolone 17-(ethyl carbonate) 21-propionate", "BRD-K46137903"], "SMILES": "C(COC(CC)=O)(=O)C1(OC(OCC)=O)C2(C)C(CC1)C3C(C(O)C2)C4(C)C(CC3)=CC(=O)C=C4", "physical_data": {"Molecular Weight": "488.57", "Molecular Formula": "C27H36O8", "Melting Point": "110-112 \u00b0C"}}