{"cas_no": "7377-08-4", "cn_name": "\u5bf9\u6c28\u57fa\u82ef\u7532\u9170-beta-\u4e19\u6c28\u9178", "en_name": ["N-(4-Aminobenzoyl)-\u03b2-alanine", "\u03b2-Alanine, N-(4-aminobenzoyl)-", "\u03b2-Alanine, N-(p-aminobenzoyl)-", "N-(4-Aminobenzoyl)-\u03b2-alanine", "p-Amino-N-benzoyl-\u03b2-alanine", "3-(4-Aminobenzoylamino)propionic acid", "3-[(4-Aminobenzoyl)amino]propanoic acid", "3-[(4-Aminophenyl)formamido]propanoic acid"], "SMILES": "C(NCCC(O)=O)(=O)C1=CC=C(N)C=C1", "physical_data": {"Molecular Weight": "208.21", "Molecular Formula": "C10H12N2O3", "Melting Point": "148-149 \u00b0C"}}