{"cas_no": "737789-87-6", "cn_name": "\u745e\u5362\u6208\u5229", "en_name": ["N-[4-[1-[(2,6-Difluorophenyl)methyl]-5-[(dimethylamino)methyl]-1,2,3,4-tetrahydro-3-(6-methoxy-3-pyridazinyl)-2,4-dioxothieno[2,3-d]pyrimidin-6-yl]phenyl]-N\u2032-methoxyurea", "Urea, N-[4-[1-[(2,6-difluorophenyl)methyl]-5-[(dimethylamino)methyl]-1,2,3,4-tetrahydro-3-(6-methoxy-3-pyridazinyl)-2,4-dioxothieno[2,3-d]pyrimidin-6-yl]phenyl]-N\u2032-methoxy-", "N-[4-[1-[(2,6-Difluorophenyl)methyl]-5-[(dimethylamino)methyl]-1,2,3,4-tetrahydro-3-(6-methoxy-3-pyridazinyl)-2,4-dioxothieno[2,3-d]pyrimidin-6-yl]phenyl]-N\u2032-methoxyurea", "TAK 385", "Relugolix", "1-[4-[1-[(2,6-Difluorophenyl)methyl]-5-[(dimethylamino)methyl]-3-(6-methoxypyridazin-3-yl)-2,4-dioxothieno[2,3-d]pyrimidin-6-yl]phenyl]-3-methoxyurea", "RVT 601", "Orgovyx", "N-(4-(1-(2,6-Difluorobenzyl)-5-((dimethylamino)methyl)-3-(6-methoxy-3-pyridazinyl)-2,4-dioxo-1,2,3,4-tetrahydrothieno[2,3-d]pyrimidin-6-yl)phenyl)-N\u2032-methoxyurea"], "SMILES": "C(N1C2=C(C(CN(C)C)=C(S2)C3=CC=C(NC(NOC)=O)C=C3)C(=O)N(C1=O)C4=CC=C(OC)N=N4)C5=C(F)C=CC=C5F", "physical_data": {"Molecular Weight": "623.63", "Molecular Formula": "C29H27F2N7O5S", "Melting Point": "228 \u00b0C (decomp)"}}