{"cas_no": "7377-03-9", "cn_name": "\u8f9b\u9170\u6c27\u809f\u9178", "en_name": ["Octanohydroxamic acid", "Octanamide, N-hydroxy-", "Octanohydroxamic acid", "N-Hydroxyoctanamide", "Caprylohydroxamic acid", "Octanoylhydroxamic acid", "Taselin", "Caprylhydroxamic acid"], "SMILES": "C(CC(NO)=O)CCCCC", "physical_data": {"Molecular Weight": "159.23", "Molecular Formula": "C8H17NO2", "Melting Point": "78.75 \u00b0C"}}