{"cas_no": "73776-25-7", "cn_name": "2-\u6c2f-3-\u55b9\u5549\u7fa7\u9178", "en_name": ["2-Chloro-3-quinolinecarboxylic acid", "3-Quinolinecarboxylic acid, 2-chloro-", "2-Chloro-3-quinolinecarboxylic acid"], "SMILES": "C(O)(=O)C1=CC2=C(N=C1Cl)C=CC=C2", "physical_data": {"Molecular Weight": "207.61", "Molecular Formula": "C10H6ClNO2", "Melting Point": "200 \u00b0C (decomp)"}}