{"cas_no": "7378-99-6", "cn_name": "N,N-\u4e8c\u7532\u57fa\u6b63\u8f9b\u80fa", "en_name": ["Dimethyloctylamine", "1-Octanamine, N,N-dimethyl-", "Octylamine, N,N-dimethyl-", "N,N-Dimethyl-1-octanamine", "Dimethyloctylamine", "N,N-Dimethyloctylamine", "N,N-Dimethyl-n-octylamine", "Octyldimethylamine", "N-Octyldimethylamine", "Dimethyl-n-octylamine", "Farmin DM 08P", "1-(Dimethylamino)octane", "Adma 8", "N-Octyl-N,N-dimethylamine", "Farmin DM 0898", "NSC 63928"], "SMILES": "C(CCCCC)CCN(C)C", "physical_data": {"Molecular Weight": "157.30", "Molecular Formula": "C10H23N", "Boiling Point": "194 \u00b0C", "Density": "0.7688 g/cm\u00b3 @ Temp: 20 \u00b0C"}}