{"cas_no": "7379-12-6", "cn_name": "2-\u7532\u57fa-3-\u5df1\u916e", "en_name": ["2-Methyl-3-hexanone", "3-Hexanone, 2-methyl-", "2-Methyl-3-hexanone", "Isopropyl propyl ketone", "Propyl isopropyl ketone"], "SMILES": "C(CCC)(C(C)C)=O", "physical_data": {"Molecular Weight": "114.19", "Molecular Formula": "C7H14O", "Boiling Point": "135 \u00b0C", "Density": "0.8216 g/cm\u00b3 @ Temp: 15 \u00b0C"}}