{"cas_no": "7379-35-3", "cn_name": "4-\u6c2f\u5421\u5576\u76d0\u9178\u76d0", "en_name": ["4-Chloropyridine hydrochloride", "Pyridine, 4-chloro-, hydrochloride (1:1)", "Pyridine, 4-chloro-, hydrochloride", "TH 336N", "TH 336", "4-Chloropyridine hydrochloride", "4-Chloropyridinium monohydrochloride", "4-Chlorpyridinium hydrochloride", "4-Chloropyridine-HCl", "4-Chloropyridinium chloride", "4-Chloropyridinium hydrochloride"], "SMILES": "ClC=1C=CN=CC1.Cl", "physical_data": {"Molecular Weight": "", "Molecular Formula": "C5H4ClN.ClH", "Melting Point": "223 \u00b0C"}}