{"cas_no": "73792-22-0", "cn_name": "4'-\u6c28\u57fa-3'-\u6c1f\u82ef\u4e59\u916e", "en_name": ["1-(4-Amino-3-fluorophenyl)ethanone", "Ethanone, 1-(4-amino-3-fluorophenyl)-", "1-(4-Amino-3-fluorophenyl)ethanone", "4\u2032-Amino-3\u2032-fluoroacetophenone", "3-Fluoro-4-aminoacetophenone", "4-Acetyl-2-fluoroaniline", "1-(4-Amino-3-fluorophenyl)ethan-1-one"], "SMILES": "C(C)(=O)C1=CC(F)=C(N)C=C1", "physical_data": {"Molecular Weight": "153.15", "Molecular Formula": "C8H8FNO", "Melting Point": "86-88 \u00b0C"}}