{"cas_no": "7379-51-3", "cn_name": "4-\u7532\u786b\u57fa-3,5-\u4e8c\u7532\u57fa\u82ef\u915a", "en_name": ["3,5-Dimethyl-4-(methylthio)phenol", "Phenol, 3,5-dimethyl-4-(methylthio)-", "3,5-Xylenol, 4-(methylthio)-", "3,5-Dimethyl-4-(methylthio)phenol", "4-Methylsulfanyl-3,5-dimethylphenol", "3,5-Dimethyl-4-methylsulfanylphenol"], "SMILES": "S(C)C1=C(C)C=C(O)C=C1C", "physical_data": {"Molecular Weight": "168.26", "Molecular Formula": "C9H12OS", "Boiling Point": "155-160 \u00b0C @ Press: 12 Torr", "Melting Point": "64-65.5 \u00b0C"}}