{"cas_no": "738-70-5", "cn_name": "\u7532\u6c27\u82c4\u5576", "en_name": ["Trimethoprim", "2,4-Pyrimidinediamine, 5-[(3,4,5-trimethoxyphenyl)methyl]-", "Pyrimidine, 2,4-diamino-5-(3,4,5-trimethoxybenzyl)-", "5-[(3,4,5-Trimethoxyphenyl)methyl]-2,4-pyrimidinediamine", "BW 56-72", "2,4-Diamino-5-(3,4,5-trimethoxybenzyl)pyrimidine", "Syraprim", "Trimethoprim", "NIH 204", "2,4-Diamino-5-(3\u2032,4\u2032,5\u2032-trimethoxybenzyl)pyrimidine", "Trimethioprim", "Trimetoprim", "Triprim", "Trimpex", "Trimanyl", "Instalac", "Trimogal", "Wellcoprim", "Monotrim", "Proloprim", "Tiempe", "Trimopan", "Uretrim", "NSC 106568", "Infectotrimet", "MeSH ID: D014295"], "SMILES": "C(C1=CC(OC)=C(OC)C(OC)=C1)C=2C(N)=NC(N)=NC2", "physical_data": {"Molecular Weight": "290.32", "Molecular Formula": "C14H18N4O3", "Melting Point": "199-203 \u00b0C"}}