{"cas_no": "738-75-0", "cn_name": "N-(PHENYLACETYL)-L-PHENYLALANINE", "en_name": ["Phenylacetyl-L-phenylalanine", "L-Phenylalanine, N-(2-phenylacetyl)-", "Alanine, 3-phenyl-N-(phenylacetyl)-, L-", "L-Phenylalanine, N-(phenylacetyl)-", "Alanine, 3-phenyl-N-(phenylacetyl)-", "N-(2-Phenylacetyl)-L-phenylalanine", "Phenylacetyl-L-phenylalanine", "(2S)-3-Phenyl-2-[(2-phenylacetyl)amino]propanoic acid", "(2S)-3-Phenyl-2-(2-phenylacetamido)propanoic acid"], "SMILES": "C(C(NC(CC1=CC=CC=C1)=O)C(O)=O)C2=CC=CC=C2", "physical_data": {"Molecular Weight": "283.32", "Molecular Formula": "C17H17NO3", "Melting Point": "140-142 \u00b0C"}}