{"cas_no": "738-87-4", "cn_name": "\u82f9\u5a46\u9178", "en_name": ["Sterculic acid", "1-Cyclopropene-1-octanoic acid, 2-octyl-", "2-Octyl-1-cyclopropene-1-octanoic acid", "Sterculic acid", "Sterculinic acid"], "SMILES": "C(CCCCCCC(O)=O)C1=C(CCCCCCCC)C1", "physical_data": {"Molecular Weight": "294.47", "Molecular Formula": "C19H34O2", "Melting Point": "19 \u00b0C"}}