{"cas_no": "7380-40-7", "cn_name": "\u4f5b\u624b\u67d1\u7d20", "en_name": ["Bergamottin", "7H-Furo[3,2-g][1]benzopyran-7-one, 4-[[(2E)-3,7-dimethyl-2,6-octadien-1-yl]oxy]-", "7H-Furo[3,2-g][1]benzopyran-7-one, 4-[(3,7-dimethyl-2,6-octadienyl)oxy]-, (E)-", "Bergamottin", "7H-Furo[3,2-g][1]benzopyran-7-one, 4-[[(2E)-3,7-dimethyl-2,6-octadienyl]oxy]-", "4-[[(2E)-3,7-Dimethyl-2,6-octadien-1-yl]oxy]-7H-furo[3,2-g][1]benzopyran-7-one", "Bergamotine", "Bergaptin", "5-Geranoxypsoralen"], "SMILES": "O(CC=C(CCC=C(C)C)C)C=1C2=C(C=C3C1C=CO3)OC(=O)C=C2", "physical_data": {"Molecular Weight": "338.40", "Molecular Formula": "C21H22O4", "Melting Point": "53.5-54.5 \u00b0C"}}