{"cas_no": "7380-39-4", "cn_name": "5\u9999\u53f6\u6c27\u57fa-7-\u7532\u6c27\u57fa\u9999\u8c46\u7d20", "en_name": ["5-(Geranyloxy)-7-methoxycoumarin", "2H-1-Benzopyran-2-one, 5-[[(2E)-3,7-dimethyl-2,6-octadien-1-yl]oxy]-7-methoxy-", "Coumarin, 5-[(3,7-dimethyl-2,6-octadienyl)oxy]-7-methoxy-, (E)-", "2H-1-Benzopyran-2-one, 5-[(3,7-dimethyl-2,6-octadienyl)oxy]-7-methoxy-, (E)-", "Herniarin, 5-(geranyloxy)-", "2H-1-Benzopyran-2-one, 5-[[(2E)-3,7-dimethyl-2,6-octadienyl]oxy]-7-methoxy-", "5-[[(2E)-3,7-Dimethyl-2,6-octadien-1-yl]oxy]-7-methoxy-2H-1-benzopyran-2-one", "7-Methoxy-5-geranoxycoumarin", "7-Methoxy-5-geranoxycoumarine", "5-(Geranyloxy)-7-methoxycoumarin", "5-Geranoxy-7-methoxycoumarin", "Same"], "SMILES": "O(CC=C(CCC=C(C)C)C)C1=C2C(=CC(OC)=C1)OC(=O)C=C2", "physical_data": {"Molecular Weight": "328.40", "Molecular Formula": "C20H24O4", "Melting Point": "86-87 \u00b0C"}}