{"cas_no": "73815-21-1", "cn_name": "2,6-\u4e8c\u7532\u57fa-7-\u8f9b\u70ef-2,3,6-\u4e09\u9187", "en_name": ["2,6-Dimethyl-7-octene-2,3,6-triol", "7-Octene-2,3,6-triol, 2,6-dimethyl-", "2,6-Dimethyl-7-octene-2,3,6-triol", "3,7-Dimethyloct-1-ene-3,6,7-triol"], "SMILES": "C(CC(C(C)(C)O)O)C(C=C)(C)O", "physical_data": {"Molecular Weight": "188.26", "Molecular Formula": "C10H20O3", "Boiling Point": "53-53.5 \u00b0C @ Press: 3.5 Torr", "Density": "0.952 g/cm\u00b3 @ Temp: 16 \u00b0C"}}