{"cas_no": "7381-30-8", "cn_name": "1,2-\u53cc(\u4e09\u7532\u57fa\u7845\u6c27\u57fa)\u4e59\u70f7", "en_name": ["1,2-Bis(trimethylsiloxy)ethane", "3,6-Dioxa-2,7-disilaoctane, 2,2,7,7-tetramethyl-", "2,2,7,7-Tetramethyl-3,6-dioxa-2,7-disilaoctane", "1,2-Bis(trimethylsiloxy)ethane", "1,2-Bis(trimethylsilyloxy)ethane", "Ethylene glycol bis(trimethylsilyl) ether", "1,2-Ethanediol bis(trimethylsilyl) ether", "Trimethyl(2-(trimethylsilyloxy)ethoxy)silane", "2,2,7,7-Tetramethy1-3,6-dioxa-2,7-disilaoctane"], "SMILES": "O([Si](C)(C)C)CCO[Si](C)(C)C", "physical_data": {"Molecular Weight": "206.43", "Molecular Formula": "C8H22O2Si2", "Boiling Point": "70 \u00b0C @ Press: 25 Torr", "Density": "0.842 g/cm\u00b3"}}