{"cas_no": "73821-97-3", "cn_name": "\u53d4\u4e01\u6c27\u7fb0\u57fa-L-\u8c37\u6c28\u9178 5-\u73af\u5df1\u916f", "en_name": ["5-Cyclohexyl hydrogen N-[(1,1-dimethylethoxy)carbonyl]-L-glutamate", "L-Glutamic acid, N-[(1,1-dimethylethoxy)carbonyl]-, 5-cyclohexyl ester", "5-Cyclohexyl hydrogen N-[(1,1-dimethylethoxy)carbonyl]-L-glutamate", "N-tert-Butoxycarbonyl-L-glutamic acid \u03b3-cyclohexyl ester", "N-tert-Butyloxycarbonyl-L-glutamic acid \u03b3-cyclohexyl ester", "Boc-L-Glu(OcHx)-OH", "(2S)-5-Cyclohexyloxy-2-[(2-methylpropan-2-yl)oxycarbonylamino]-5-oxopentanoic acid"], "SMILES": "O(C(CCC(NC(OC(C)(C)C)=O)C(O)=O)=O)C1CCCCC1", "physical_data": {"Molecular Weight": "329.39", "Molecular Formula": "C16H27NO6", "Melting Point": "129-132 \u00b0C"}}