{"cas_no": "73834-77-2", "cn_name": "3-AMINO-9H-PYRIDO[3,4-B]INDOLE", "en_name": ["9H-Pyrido[3,4-b]indol-3-amine", "9H-Pyrido[3,4-b]indol-3-amine", "3-Amino-9H-pyrido[3,4-b]indole", "3-Amino-\u03b2-carboline"], "SMILES": "NC=1C=C2C=3C(NC2=CN1)=CC=CC3", "physical_data": {"Molecular Weight": "183.21", "Molecular Formula": "C11H9N3", "Melting Point": "289-291 \u00b0C"}}