{"cas_no": "7383-71-3", "cn_name": "\u4e19\u70ef\u9178\u56db\u6c1f\u4e19\u916f", "en_name": ["2,2,3,3-Tetrafluoropropyl acrylate", "2-Propenoic acid, 2,2,3,3-tetrafluoropropyl ester", "Acrylic acid, 2,2,3,3-tetrafluoropropyl ester", "1-Propanol, 2,2,3,3-tetrafluoro-, acrylate", "1,1,3-Trihydroperfluoropropyl acrylate", "Viscoat 4F", "2,2,3,3-Tetrafluoropropyl acrylate", "FA 2 (acrylate)", "FA 2", "Tetrafluoropropyl acrylate", "R 5210", "V 4F", "1H,1H,3H-Perfluoropropyl acrylate", "2,2,3,3-Tetrafluoropropyl prop-2-enoate", "2,2,3,3-Tetrafluropropyl acrylate"], "SMILES": "C(COC(C=C)=O)(C(F)F)(F)F", "physical_data": {"Molecular Weight": "186.10", "Molecular Formula": "C6H6F4O2", "Boiling Point": "132.5 \u00b0C", "Density": "1.2532 g/cm\u00b3 @ Temp: 20 \u00b0C"}}