{"cas_no": "7383-19-9", "cn_name": "1-\u5e9a\u7094-3-\u9187", "en_name": ["1-Heptyn-3-ol", "1-Heptyn-3-ol", "Butylethynylcarbinol", "3-Hydroxy-1-heptyne", "(3RS)-1-Heptyn-3-ol", "(RS)-1-Heptyn-3-ol"], "SMILES": "C(CCCC)(C#C)O", "physical_data": {"Molecular Weight": "112.17", "Molecular Formula": "C7H12O", "Boiling Point": "60 \u00b0C @ Press: 5 Torr"}}