{"cas_no": "7385-67-3", "cn_name": "\u5c3c\u7f57\u7ea2", "en_name": ["Nile red", "5H-Benzo[a]phenoxazin-5-one, 9-(diethylamino)-", "9-(Diethylamino)-5H-benzo[a]phenoxazin-5-one", "Nile Blue A oxazone", "Nile red", "Phenoxazone 9", "A 84655", "9-(Diethylamino)-5H-benzo[a]phenoxazinone"], "SMILES": "O=C1C=2C(C=3C(OC=4C(N3)=CC=C(N(CC)CC)C4)=C1)=CC=CC2", "physical_data": {"Molecular Weight": "318.37", "Molecular Formula": "C20H18N2O2", "Melting Point": "212 \u00b0C"}}