{"cas_no": "7386-21-2", "cn_name": "N-(4-\u6c2f\u82ef\u57fa)\u915e\u4e9a\u9178", "en_name": ["2-(4-Chlorophenyl)-1H-isoindole-1,3(2H)-dione", "1H-Isoindole-1,3(2H)-dione, 2-(4-chlorophenyl)-", "Phthalimide, N-(p-chlorophenyl)-", "2-(4-Chlorophenyl)-1H-isoindole-1,3(2H)-dione", "N-(p-Chlorophenyl)phthalimide", "N-(4-Chlorophenyl)phthalimide", "NSC 406154", "2-(4-Chlorophenyl)isoindole-1,3-dione", "2-(4-Chlorophenyl)isoindoline-1,3-dione", "2-(4-Chlorophenyl)-2,3-dihydro-1H-isoindole-1,3-dione"], "SMILES": "O=C1N(C(=O)C=2C1=CC=CC2)C3=CC=C(Cl)C=C3", "physical_data": {"Molecular Weight": "257.67", "Molecular Formula": "C14H8ClNO2", "Melting Point": "182-183 \u00b0C"}}