{"cas_no": "73866-23-6", "cn_name": "5-\u6eb4\u4e59\u9170\u6c34\u6768\u9170\u80fa", "en_name": ["5-(2-Bromoacetyl)-2-hydroxybenzamide", "Benzamide, 5-(2-bromoacetyl)-2-hydroxy-", "Benzamide, 5-(bromoacetyl)-2-hydroxy-", "5-(2-Bromoacetyl)-2-hydroxybenzamide", "5-(Bromoacetyl)salicylamide", "5-Bromoacetyl-2-hydroxybenzamide"], "SMILES": "C(CBr)(=O)C1=CC(C(N)=O)=C(O)C=C1", "physical_data": {"Molecular Weight": "258.07", "Molecular Formula": "C9H8BrNO3", "Melting Point": "196 \u00b0C"}}