{"cas_no": "73896-36-3", "cn_name": "2-\u6c28\u57fa-3-\u785d\u57fa-6-\u7532\u6c27\u57fa\u5421\u5576", "en_name": ["6-Methoxy-3-nitro-2-pyridinamine", "2-Pyridinamine, 6-methoxy-3-nitro-", "6-Methoxy-3-nitro-2-pyridinamine", "2-Amino-6-methoxy-3-nitropyridine", "(6-Methoxy-3-nitropyridin-2-yl)amine", "2-Amino-3-nitro-6-methoxypyridine", "6-Methoxy-3-nitro-2-aminopyridine"], "SMILES": "N(=O)(=O)C1=C(N)N=C(OC)C=C1", "physical_data": {"Molecular Weight": "169.14", "Molecular Formula": "C6H7N3O3", "Melting Point": "169-171 \u00b0C"}}