{"cas_no": "7389-87-9", "cn_name": "L-\u7ec4\u6c28\u9178\u7532\u916f\u4e8c\u76d0\u9178\u76d0", "en_name": ["L-Histidine, methyl ester, hydrochloride (1:2)", "L-Histidine, methyl ester, hydrochloride (1:2)", "Histidine, methyl ester, dihydrochloride, L-", "L-Histidine, methyl ester, dihydrochloride", "Histidine methyl ester dihydrochloride", "(S)-Histidine methyl ester dihydrochloride", "Methyl L-histidinate dihydrochloride", "NSC 522221"], "SMILES": "C(C(C(OC)=O)N)C1=CN=CN1.Cl", "physical_data": {"Molecular Weight": "", "Molecular Formula": "C7H11N3O2.2ClH", "Melting Point": "200-201 \u00b0C"}}