{"cas_no": "739-27-5", "cn_name": "11-\u916e\u672c\u80c6\u70f7\u9187\u916e", "en_name": ["11-Ketoetiocholanolone", "Androstane-11,17-dione, 3-hydroxy-, (3\u03b1,5\u03b2)-", "5\u03b2-Androstane-11,17-dione, 3\u03b1-hydroxy-", "(3\u03b1,5\u03b2)-3-Hydroxyandrostane-11,17-dione", "3\u03b1-Hydroxy-5\u03b2-androstane-11,17-dione", "3\u03b1-Hydroxy-11,17-dioxo-5\u03b2-androstane", "11-Ketoetiocholanolone", "11-Oxoetiocholanolone", "5\u03b2-Androstan-3\u03b1-ol-11,17-dione", "Ba 2684", "Etiocholanol-11-one", "5\u03b2-Androstane-3\u03b1-ol-11,17-dione", "11-Oxoaetiocholanolone", "3\u03b1-Hydroxy-5\u03b2-androstan-11,17-dione", "11-Ketoaetiocholanolone", "NSC 53896"], "SMILES": "CC12C3C(C4C(C)(CC3=O)C(=O)CC4)CCC1CC(O)CC2", "physical_data": {"Molecular Weight": "304.42", "Molecular Formula": "C19H28O3", "Melting Point": "187-188 \u00b0C"}}