{"cas_no": "739-71-9", "cn_name": "\u66f2\u7c73\u5e15\u660e", "en_name": ["Trimipramine", "5H-Dibenz[b,f]azepine-5-propanamine, 10,11-dihydro-N,N,\u03b2-trimethyl-", "5H-Dibenz[b,f]azepine, 5-[3-(dimethylamino)-2-methylpropyl]-10,11-dihydro-", "10,11-Dihydro-N,N,\u03b2-trimethyl-5H-dibenz[b,f]azepine-5-propanamine", "IL 6001", "7162 RP", "10,11-Dihydro-5-(3-dimethylamino-2-methylpropyl)-5H-dibenz[b,f]azepine", "5-[3-(Dimethylamino)-2-methylpropyl]-10,11-dihydro-5H-dibenz[b,f]azepine", "5-(\u03b3-Dimethylamino-\u03b2-methylpropyl)-10,11-dihydro-5H-dibenzo[b,f]azepine", "Trimeprimine", "Trimipramine", "Surmontil", "\u03b2-Methylimipramine", "Sapilent", "Trimeproprimine", "RP 7162", "(\u00b1)-Trimipramine", "Rhotrimine", "MeSH ID: D014299"], "SMILES": "C(C(CN(C)C)C)N1C=2C(CCC=3C1=CC=CC3)=CC=CC2", "physical_data": {"Molecular Weight": "294.43", "Molecular Formula": "C20H26N2", "Boiling Point": "153-154 \u00b0C @ Press: 0.4 Torr", "Melting Point": "45 \u00b0C"}}