{"cas_no": "73909-16-7", "cn_name": "1-CHLORO-2-METHOXY-4-METHYLBENZENE", "en_name": ["1-Chloro-2-methoxy-4-methylbenzene", "Benzene, 1-chloro-2-methoxy-4-methyl-", "Anisole, 2-chloro-5-methyl-", "1-Chloro-2-methoxy-4-methylbenzene", "2-Chloro-5-methylanisole", "4-Chloro-3-methoxytoluene", "3-Methoxy-4-chlorotoluene", "NSC 220096", "1-Chloro-4-methyl-2-methoxybenzene"], "SMILES": "O(C)C1=C(Cl)C=CC(C)=C1", "physical_data": {"Molecular Weight": "156.61", "Molecular Formula": "C8H9ClO", "Boiling Point": "75 \u00b0C @ Press: 0.5 Torr"}}