{"cas_no": "7390-62-7", "cn_name": "8-\u5def\u57fa\u817a\u560c\u5464", "en_name": ["6-Amino-7,9-dihydro-8H-purine-8-thione", "8H-Purine-8-thione, 6-amino-7,9-dihydro-", "Purine-8-thiol, 6-amino-", "8H-Purine-8-thione, 6-amino-1,7-dihydro-", "6-Amino-7,9-dihydro-8H-purine-8-thione", "6-Amino-8-mercaptopurine", "8-Mercaptoadenine", "Meradine", "Meradin", "NSC 22721", "6-Amino-8-purinethiol"], "SMILES": "NC1=C2C(NC(=S)N2)=NC=N1", "physical_data": {"Molecular Weight": "167.19", "Molecular Formula": "C5H5N5S", "Melting Point": "320 \u00b0C"}}