{"cas_no": "7390-81-0", "cn_name": "1,2-\u73af\u6c27\u5341\u516b\u70f7", "en_name": ["1,2-Epoxyoctadecane", "Oxirane, 2-hexadecyl-", "Octadecane, 1,2-epoxy-", "Oxirane, hexadecyl-", "2-Hexadecyloxirane", "1,2-Epoxyoctadecane", "Octadecylene oxide", "1,2-Octadecylene oxide", "1,2-Octadecene epoxide", "Hexadecyloxirane", "Vikolox 18", "Epoxide C 18", "Vilolox C16", "1,2-Octadecene oxide"], "SMILES": "C(CCCCCCCCCCCCCCC)C1CO1", "physical_data": {"Molecular Weight": "268.48", "Molecular Formula": "C18H36O", "Boiling Point": "137 \u00b0C @ Press: 0.5 Torr"}}