{"cas_no": "73907-95-6", "cn_name": "6-\u6c28\u57fa-1H-\u5432\u5511-7-\u7532\u9178", "en_name": ["6-Amino-1H-indazole-7-carboxylic acid", "1H-Indazole-7-carboxylic acid, 6-amino-", "6-Amino-1H-indazole-7-carboxylic acid"], "SMILES": "C(O)(=O)C1=C2C(=CC=C1N)C=NN2", "physical_data": {"Molecular Weight": "177.16", "Molecular Formula": "C8H7N3O2", "Melting Point": "177 \u00b0C (decomp)"}}