{"cas_no": "7391-69-7", "cn_name": "5-\u5f02\u4e19\u57fa\u5df4\u6bd4\u571f\u9178", "en_name": ["5-(1-Methylethyl)-2,4,6(1H,3H,5H)-pyrimidinetrione", "2,4,6(1H,3H,5H)-Pyrimidinetrione, 5-(1-methylethyl)-", "Barbituric acid, 5-isopropyl-", "5-(1-Methylethyl)-2,4,6(1H,3H,5H)-pyrimidinetrione", "5-Isopropylbarbituric acid"], "SMILES": "C(C)(C)C1C(=O)NC(=O)NC1=O", "physical_data": {"Molecular Weight": "170.17", "Molecular Formula": "C7H10N2O3", "Melting Point": "212-213 \u00b0C"}}