{"cas_no": "7391-66-4", "cn_name": "1,3-\u4e8c\u7532\u57fa-5-\u82ef\u57fa\u5df4\u6bd4\u59a5\u9178", "en_name": ["1,3-Dimethyl-5-phenyl-2,4,6(1H,3H,5H)-pyrimidinetrione", "2,4,6(1H,3H,5H)-Pyrimidinetrione, 1,3-dimethyl-5-phenyl-", "Barbituric acid, 1,3-dimethyl-5-phenyl-", "1,3-Dimethyl-5-phenyl-2,4,6(1H,3H,5H)-pyrimidinetrione", "1,3-Dimethyl-5-phenylbarbituric acid", "NSC 125776", "NSC 128098", "1,3-Dimethyl-5-phenyl-1,3-diazinane-2,4,6-trione", "1,3-Dimethyl-5-phenyl-pyrimidine-2,4,6-trione"], "SMILES": "O=C1C(C(=O)N(C)C(=O)N1C)C2=CC=CC=C2", "physical_data": {"Molecular Weight": "232.24", "Molecular Formula": "C12H12N2O3", "Melting Point": "140.0-140.5 \u00b0C"}}