{"cas_no": "73913-64-1", "cn_name": "D-\u7f2c\u6c28\u9178\u4e59\u916f\u76d0\u9178\u76d0", "en_name": ["D-Valine, ethyl ester, hydrochloride (1:1)", "D-Valine, ethyl ester, hydrochloride (1:1)", "D-Valine, ethyl ester, hydrochloride", "Ethyl D-valinate hydrochloride"], "SMILES": "C(C(OCC)=O)(C(C)C)N.Cl", "physical_data": {"Molecular Weight": "", "Molecular Formula": "C7H15NO2.ClH", "Melting Point": "120 \u00b0C"}}