{"cas_no": "7393-43-3", "cn_name": "\u56db\u70ef\u4e19\u57fa\u9521", "en_name": ["Tetraallyltin", "Stannane, tetra-2-propen-1-yl-", "Stannane, tetraallyl-", "Stannane, tetra-2-propenyl-", "Tin, tetraallyl-", "Tetra-2-propen-1-ylstannane", "Tetraallyltin", "Tetraallylstannane", "Tetrakis(2-propenyl)stannane", "Tetra(2-propenyl)stannane"], "SMILES": "[Sn](CC=C)(CC=C)(CC=C)CC=C", "physical_data": {"Molecular Weight": "283.00", "Molecular Formula": "C12H20Sn", "Boiling Point": "69-70 \u00b0C @ Press: 1.5 Torr", "Density": "1.179 g/cm\u00b3"}}