{"cas_no": "73945-46-7", "cn_name": "7-\u6c2f-L-\u8272\u6c28\u9178", "en_name": ["7-Chloro-L-tryptophan", "L-Tryptophan, 7-chloro-", "7-Chloro-L-tryptophan", "(2S)-2-Amino-3-(7-chloro-1H-indol-3-yl)propanoic acid"], "SMILES": "C(C(C(O)=O)N)C=1C=2C(NC1)=C(Cl)C=CC2", "physical_data": {"Molecular Weight": "238.67", "Molecular Formula": "C11H11ClN2O2", "Melting Point": "290-291 \u00b0C"}}