{"cas_no": "73942-87-7", "cn_name": "7,8-\u4e8c\u7532\u6c27\u57fa-1,3-\u4e8c\u6c22-2H-3-\u82ef\u5e76\u6c2e\u6742\u5353-2-\u916e", "en_name": ["1,3-Dihydro-7,8-dimethoxy-2H-3-benzazepin-2-one", "2H-3-Benzazepin-2-one, 1,3-dihydro-7,8-dimethoxy-", "1,3-Dihydro-7,8-dimethoxy-2H-3-benzazepin-2-one", "7,8-Dimethoxy-1,2-dihydro-3H-3-benzazepin-2-one"], "SMILES": "O(C)C=1C=C2C(=CC1OC)C=CNC(=O)C2", "physical_data": {"Molecular Weight": "219.24", "Molecular Formula": "C12H13NO3", "Melting Point": "236-238 \u00b0C"}}