{"cas_no": "73956-17-9", "cn_name": "2-\u7532\u919b\u57fa\u567b\u5511-4-\u7fa7\u9178\u4e59\u916f", "en_name": ["4-Thiazolecarboxylic acid, 2-formyl-, ethyl ester", "4-Thiazolecarboxylic acid, 2-formyl-, ethyl ester", "2-Formylthiazole-4-carboxylic acid ethyl ester", "Ethyl 2-formylthiazole-4-carboxylate", "Ethyl 2-formyl-1,3-thiazole-4-carboxylate"], "SMILES": "C(OCC)(=O)C=1N=C(C=O)SC1", "physical_data": {"Molecular Weight": "185.20", "Molecular Formula": "C7H7NO3S", "Melting Point": "64.3-65.6 \u00b0C"}}