{"cas_no": "73963-42-5", "cn_name": "5-\uff084-\u6c2f\u4e01\u57fa\uff09-1-\u73af\u5df1\u57fa-1H-\u56db\u6c2e\u5511", "en_name": ["5-(4-Chlorobutyl)-1-cyclohexyl-1H-tetrazole", "1H-Tetrazole, 5-(4-chlorobutyl)-1-cyclohexyl-", "5-(4-Chlorobutyl)-1-cyclohexyl-1H-tetrazole", "1-Cyclohexyl-5-(4-chlorobutyl)-1,2,3,4-tetrazole", "1-Cyclohexyl-5-(4-chlorobutyl)tetrazole"], "SMILES": "C(CCCCl)C=1N(N=NN1)C2CCCCC2", "physical_data": {"Molecular Weight": "242.75", "Molecular Formula": "C11H19ClN4", "Melting Point": "84.5-86.5 \u00b0C"}}