{"cas_no": "73963-72-1", "cn_name": "\u897f\u6d1b\u4ed6\u5511", "en_name": ["Cilostazol", "2(1H)-Quinolinone, 6-[4-(1-cyclohexyl-1H-tetrazol-5-yl)butoxy]-3,4-dihydro-", "6-[4-(1-Cyclohexyl-1H-tetrazol-5-yl)butoxy]-3,4-dihydro-2(1H)-quinolinone", "Cilostazol", "Cilostazole", "Pletaal", "OPC 21", "OPC 13013", "Pletal", "6-[4-(1-Cyclohexyl-1,2,3,4-tetrazol-5-yl)butoxy]-3,4-dihydrocarbostyril", "6-[4-(1-Cyclohexyl-1H-tetrazol-5-yl)butoxy]-3,4-dihydroquinolin-2(1H)-one"], "SMILES": "C(CCCOC=1C=C2C(=CC1)NC(=O)CC2)C=3N(N=NN3)C4CCCCC4", "physical_data": {"Molecular Weight": "369.46", "Molecular Formula": "C20H27N5O2", "Melting Point": "160 \u00b0C"}}