{"cas_no": "73960-07-3", "cn_name": "4-(\u4e8c\u6c1f\u7532\u6c27\u57fa)\u82ef\u7532\u919b", "en_name": ["4-(Difluoromethoxy)benzaldehyde", "Benzaldehyde, 4-(difluoromethoxy)-", "4-(Difluoromethoxy)benzaldehyde", "p-Difluoromethoxybenzaldehyde", "Difluoromethyl 4-Formylphenyl ether"], "SMILES": "O(C(F)F)C1=CC=C(C=O)C=C1", "physical_data": {"Molecular Weight": "172.13", "Molecular Formula": "C8H6F2O2", "Boiling Point": "87 \u00b0C @ Press: 3 Torr"}}