{"cas_no": "7396-58-9", "cn_name": "N-\u7532\u57fa\u4e8c\u7678\u57fa\u80fa", "en_name": ["Didecylmethylamine", "1-Decanamine, N-decyl-N-methyl-", "Didecylamine, N-methyl-", "N-Decyl-N-methyl-1-decanamine", "Methyldidecylamine", "Didecylmethylamine", "N-Methyldidecylamine", "N,N-Didecyl-N-methylamine", "DAMA 1010", "Radiamine 6310", "Armeen M 210D", "N-Decyl-N-methyldecan-1-amine", "N,N-Didecylmethylamine", "Lipomin M 210D"], "SMILES": "C(N(CCCCCCCCCC)C)CCCCCCCCC", "physical_data": {"Molecular Weight": "311.59", "Molecular Formula": "C21H45N", "Boiling Point": "139 \u00b0C @ Press: 1 Torr"}}