{"cas_no": "73978-41-3", "cn_name": "2,4-\u4e8c\u6c28\u57fa-6-\u7f9f\u7532\u57fa\u8776\u5576\u76d0\u9178\u76d0", "en_name": ["6-Pteridinemethanol, 2,4-diamino-, hydrochloride (1:1)", "6-Pteridinemethanol, 2,4-diamino-, hydrochloride (1:1)", "6-Pteridinemethanol, 2,4-diamino-, monohydrochloride", "2,4-Diamino-6-(hydroxymethyl)pteridine hydrochloride", "2,4-Diaminopyrimido[4,5-b]pyrazine-6-methanol monohydrochloride"], "SMILES": "NC=1C2=C(N=C(N)N1)N=CC(CO)=N2.Cl", "physical_data": {"Molecular Weight": "", "Molecular Formula": "C7H8N6O.ClH", "Melting Point": "&gt;300 \u00b0C"}}