{"cas_no": "7397-46-8", "cn_name": "\u4e8c\u4e59\u57fa\u7532\u6c27\u57fa\u787c\u70f7", "en_name": ["Diethylmethoxyborane", "Borinic acid, B,B-diethyl-, methyl ester", "Borinic acid, diethyl-, methyl ester", "Methoxydiethylborane", "Diethylmethoxyborane", "Methyl diethylborinate", "Diethylboron methoxide"], "SMILES": "B(CC)(CC)OC", "physical_data": {"Molecular Weight": "99.97", "Molecular Formula": "C5H13BO", "Boiling Point": "89-90 \u00b0C @ Press: 760 Torr"}}