{"cas_no": "7397-06-0", "cn_name": "4-\u53d4\u4e01\u57fa\u90bb\u4e8c\u7532\u82ef", "en_name": ["4-(1,1-Dimethylethyl)-1,2-dimethylbenzene", "Benzene, 4-(1,1-dimethylethyl)-1,2-dimethyl-", "o-Xylene, 4-tert-butyl-", "4-(1,1-Dimethylethyl)-1,2-dimethylbenzene", "4-tert-Butyl-1,2-dimethylbenzene", "4-tert-Butyl-o-xylene", "3,4-Dimethyl-1-tert-butylbenzene", "1-tert-Butyl-3,4-dimethylbenzene", "1,2-Dimethyl-4-tert-butylbenzene", "1,2-Dimethyl-4-(1,1-dimethylethyl)benzene"], "SMILES": "C(C)(C)(C)C1=CC(C)=C(C)C=C1", "physical_data": {"Molecular Weight": "162.27", "Molecular Formula": "C12H18", "Boiling Point": "83-85 \u00b0C @ Press: 3 Torr", "Melting Point": "-25.6 \u00b0C", "Density": "0.8733 g/cm\u00b3 @ Temp: 20 \u00b0C"}}