{"cas_no": "7397-62-8", "cn_name": "\u7f9f\u57fa\u4e59\u9178\u4e01\u916f", "en_name": ["Butyl glycolate", "Acetic acid, 2-hydroxy-, butyl ester", "Glycolic acid, butyl ester", "Acetic acid, hydroxy-, butyl ester", "Butyl glycolate", "Butoxycarbonylmethanol", "Butyl hydroxyacetate", "Polysolvan O", "n-Butyl glycolate", "Butyl 2-hydroxyacetate"], "SMILES": "C(OCCCC)(CO)=O", "physical_data": {"Molecular Weight": "132.16", "Molecular Formula": "C6H12O3", "Boiling Point": "87-88 \u00b0C @ Press: 20.5 Torr"}}