{"cas_no": "7397-43-5", "cn_name": "\u4e09\u53d4\u4e01\u57fa\u787c\u9178\u916f", "en_name": ["tert-Butyl borate", "Boric acid, tris(1,1-dimethylethyl) ester", "Boric acid (H3BO3), tri-tert-butyl ester", "Boric acid (H3BO3), tris(1,1-dimethylethyl) ester", "tert-Butyl borate", "Tris(tert-butyloxy)borane", "Tri-tert-butyl borate", "Tris(tert-butyl) borate", "Tri-tert-butoxyborane", "NSC 151952", "Boron tri-tert-butoxide"], "SMILES": "O(B(OC(C)(C)C)OC(C)(C)C)C(C)(C)C", "physical_data": {"Molecular Weight": "230.15", "Molecular Formula": "C12H27BO3", "Boiling Point": "101 \u00b0C @ Press: 74 Torr", "Melting Point": "18-19 \u00b0C", "Density": "0.811 g/cm\u00b3"}}