{"cas_no": "7398-69-8", "cn_name": "\u4e8c\u70ef\u4e19\u57fa\u4e8c\u7532\u57fa\u6c2f\u5316\u94f5", "en_name": ["Diallyldimethylammonium chloride", "2-Propen-1-aminium, N,N-dimethyl-N-2-propen-1-yl-, chloride (1:1)", "Ammonium, diallyldimethyl-, chloride", "2-Propen-1-aminium, N,N-dimethyl-N-2-propenyl-, chloride", "Diallyldimethylammonium chloride", "Dimethyldiallylammonium chloride", "N,N-Diallyl-N,N-dimethylammonium chloride", "C 1615", "Nalco 7544", "DADMAC", "C 1615M-BR 30", "M-DADMAC", "Nalco TX 13645", "LYFM 205-65", "Newfrontier C 1615", "Hercules D 1259", "D 1259", "AG Fix M 80", "FC 704", "Flocryl 4007Q"], "SMILES": "[N+](CC=C)(CC=C)(C)C.[Cl-]", "physical_data": {"Molecular Weight": "", "Molecular Formula": "C8H16N.Cl", "Melting Point": "164-167 \u00b0C"}}