{"cas_no": "73987-38-9", "cn_name": "6-\u55b9\u5549\u7532\u9178\u4e59\u916f", "en_name": ["6-Quinolinecarboxylic acid, ethyl ester", "6-Quinolinecarboxylic acid, ethyl ester", "NSC 138319", "NSC 85328", "Ethyl 6-quinolinecarboxylate"], "SMILES": "C(OCC)(=O)C1=CC2=C(C=C1)N=CC=C2", "physical_data": {"Molecular Weight": "201.22", "Molecular Formula": "C12H11NO2", "Melting Point": "59-60 \u00b0C"}}