{"cas_no": "7398-82-5", "cn_name": "\u5bf9\u56db\u6c2f\u82c4", "en_name": ["1,4-Bis(dichloromethyl)benzene", "Benzene, 1,4-bis(dichloromethyl)-", "p-Xylene, \u03b1,\u03b1,\u03b1\u2032,\u03b1\u2032-tetrachloro-", "1,4-Bis(dichloromethyl)benzene", "\u03b1,\u03b1,\u03b1\u2032,\u03b1\u2032-Tetrachloro-p-xylene", "p-(Dichloromethyl)benzal chloride"], "SMILES": "C(Cl)(Cl)C1=CC=C(C(Cl)Cl)C=C1", "physical_data": {"Molecular Weight": "243.95", "Molecular Formula": "C8H6Cl4", "Melting Point": "9.5 \u00b0C"}}