{"cas_no": "7399-50-0", "cn_name": "2-(1-\u4e59\u4e19\u57fa)\u5627\u5576", "en_name": ["2-(1-Ethylpropyl)pyridine", "Pyridine, 2-(1-ethylpropyl)-", "2-(1-Ethylpropyl)pyridine", "3-(2-Pyridyl)pentane", "2-(3-Pentyl)pyridine", "NSC 54364", "2-(Pentan-3-yl)pyridine"], "SMILES": "C(CC)(CC)C1=CC=CC=N1", "physical_data": {"Molecular Weight": "149.23", "Molecular Formula": "C10H15N", "Boiling Point": "195.4 \u00b0C", "Density": "0.9017 g/cm\u00b3 @ Temp: 20 \u00b0C"}}