{"cas_no": "7399-00-0", "cn_name": "\u4e09\u4e59\u6c27\u57fa\u5341\u516b\u70f7\u7845\u70f7", "en_name": ["Octadecyltriethoxysilane", "Silane, triethoxyoctadecyl-", "Triethoxyoctadecylsilane", "Octadecyltriethoxysilane", "P 09775", "ODES", "Stearyltriethoxysilane", "LS 6970", "Si 118", "n-Octadecyltriethoxysilane", "SIO 6645.0", "S 12325"], "SMILES": "[Si](CCCCCCCCCCCCCCCCCC)(OCC)(OCC)OCC", "physical_data": {"Molecular Weight": "416.75", "Molecular Formula": "C24H52O3Si", "Boiling Point": "165-169 \u00b0C @ Press: 2 Torr", "Melting Point": "10-12 \u00b0C", "Density": "0.870 g/cm\u00b3"}}