{"cas_no": "7399-49-7", "cn_name": "\u5f02\u4e19\u70ef\u57fa\u7532\u82ef", "en_name": ["o-Isopropenyltoluene", "Benzene, 1-methyl-2-(1-methylethenyl)-", "Styrene, o,\u03b1-dimethyl-", "1-Methyl-2-(1-methylethenyl)benzene", "o-Methyl-\u03b1-methylstyrene", "o-Isopropenyltoluene", "o,\u03b1-Dimethylstyrene", "2-Isopropenyltoluene", "1-Methyl-2-isopropenylbenzene", "\u03b1,o-Dimethylstyrene", "NSC 54362", "\u03b1,2-Dimethylstyrene", "1-Methyl-2-(prop-1-en-2-yl)benzene", "2-(1-Methylethenyl)toluene"], "SMILES": "C(C)(=C)C1=C(C)C=CC=C1", "physical_data": {"Molecular Weight": "132.20", "Molecular Formula": "C10H12", "Boiling Point": "175 \u00b0C", "Density": "0.8890 g/cm\u00b3 @ Temp: 20 \u00b0C"}}