{"cas_no": "74-11-3", "cn_name": "\u5bf9\u6c2f\u82ef\u7532\u9178", "en_name": ["4-Chlorobenzoic acid", "Benzoic acid, 4-chloro-", "Benzoic acid, p-chloro-", "4-Chlorobenzoic acid", "p-Chlorbenzoic acid", "p-Chlorobenzoic acid", "p-Carboxychlorobenzene", "Mycosid", "NSC 143358", "NSC 32738", "NSC 8444", "4-CBA"], "SMILES": "C(O)(=O)C1=CC=C(Cl)C=C1", "physical_data": {"Molecular Weight": "156.57", "Molecular Formula": "C7H5ClO2", "Boiling Point": "275 \u00b0C", "Melting Point": "243 \u00b0C", "Density": "1.5 g/cm\u00b3"}}