{"cas_no": "74-39-5", "cn_name": "\u5076\u6c27\u7d2b", "en_name": ["Magneson", "1,3-Benzenediol, 4-[2-(4-nitrophenyl)diazenyl]-", "Resorcinol, 4-[(p-nitrophenyl)azo]-", "1,3-Benzenediol, 4-[(4-nitrophenyl)azo]-", "4-[2-(4-Nitrophenyl)diazenyl]-1,3-benzenediol", "Magneson I", "p-Nitrobenzeneazoresorcinol", "2,4-Dihydroxy-4\u2032-nitroazobenzene", "p-Diazoviolet", "Magneson", "4-[(4-Nitrophenyl)azo]-1,3-benzenediol", "p-(2,4-Dihydroxyphenylazo)nitrobenzene", "4-(4-Nitrophenyl)azoresorcinol", "4-(p-Nitrophenylazo)resorcinol", "NSC 3914", "Diazo Violet"], "SMILES": "N(=NC1=C(O)C=C(O)C=C1)C2=CC=C(N(=O)=O)C=C2", "physical_data": {"Molecular Weight": "259.22", "Molecular Formula": "C12H9N3O4", "Melting Point": "200 \u00b0C"}}