{"cas_no": "74-31-7", "cn_name": "N,N'-\u4e8c\u82ef\u57fa-1,4-\u82ef\u4e8c\u80fa", "en_name": ["N,N\u2032-Diphenyl-p-phenylenediamine", "1,4-Benzenediamine, N1,N4-diphenyl-", "p-Phenylenediamine, N,N\u2032-diphenyl-", "1,4-Benzenediamine, N,N\u2032-diphenyl-", "N1,N4-Diphenyl-1,4-benzenediamine", "AgeRite DPPD", "1,4-Bis(phenylamino)benzene", "1,4-Dianilinobenzene", "N,N\u2032-Diphenyl-p-phenylenediamine", "4,4\u2032-Diphenyl-p-phenylenediamine", "DPPD", "Flexamine G", "JZF", "Nonox DPPD", "4-Phenylaminodiphenylamine", "p-Phenylaminodiphenylamine", "Diafen FF", "Diphenyl-p-phenylenediamine", "N,N\u2032-Diphenyl-1,4-phenylenediamine", "Altofane DIP", "Nonflex H", "Permanax 18", "Stabilizer DPPD", "p-Bis(phenylamino)benzene", "Nocrac DP", "Permanax DPPD", "DFFD", "Antage DP", "Ekaland DPPD", "Naugard J", "Antigen P", "Antigene P", "Antioxidant H", "N,N\u2032-Diphenyl-1,4-benzenediamine", "NSC 5761", "Diafen FF-T", "PPD", "Antioxidant PPD", "Antioxidant 7PPD", "1,4-Benzenediamine N1,N4-diphenyl-", "1-N,4-N-Diphenylbenzene-1,4-diamine", "Vulkanox DPPD", "DAPD"], "SMILES": "N(C1=CC=C(NC2=CC=CC=C2)C=C1)C3=CC=CC=C3", "physical_data": {"Molecular Weight": "260.33", "Molecular Formula": "C18H16N2", "Boiling Point": "220-225 \u00b0C @ Press: 0.5 Torr", "Melting Point": "150-151 \u00b0C", "Density": "1.20 g/cm\u00b3"}}