{"cas_no": "74-55-5", "cn_name": "\u4e59\u80fa\u4e01\u9187", "en_name": ["(+)-Ethambutol", "1-Butanol, 2,2\u2032-(1,2-ethanediyldiimino)bis-, (2S,2\u2032S)-", "1-Butanol, 2,2\u2032-(ethylenediimino)di-, (+)-", "1-Butanol, 2,2\u2032-(1,2-ethanediyldiimino)bis-, [S-(R*,R*)]-", "(2S,2\u2032S)-2,2\u2032-(1,2-Ethanediyldiimino)bis[1-butanol]", "Ethambutol", "d-2,2\u2032-(Ethylenediimino)di-1-butanol", "d-Ethambutol", "d-2,2\u2032-(Ethylenediimino)bis(1-butanol)", "Diambutol", "(+)-N,N\u2032-Bis[1-(hydroxymethyl)propyl]ethylenediamine", "d-N,N\u2032-Bis(1-hydroxymethylpropyl)ethylenediamine", "EMB", "(+)-Ethambutol", "(+)-S,S-Ethambutol", "Etambutol", "(2S,7S)-2,7-Diethyl-3,6-diazaoctane-1,8-diol", "Purderal", "(S,S)-Ethambutol", "MeSH ID: D004977"], "SMILES": "C(NCCNC(CC)CO)(CC)CO", "physical_data": {"Molecular Weight": "204.31", "Molecular Formula": "C10H24N2O2", "Melting Point": "87.5-88.8 \u00b0C"}}