{"cas_no": "74-79-3", "cn_name": "L-\u7cbe\u6c28\u9178", "en_name": ["L-Arginine", "L-Arginine", "Arginine, L-", "Arginine", "Pentanoic acid, 2-amino-5-[(aminoiminomethyl)amino]-, (S)-", "L-(+)-Arginine", "(S)-2-Amino-5-[(aminoiminomethyl)amino]pentanoic acid", "L-Norvaline, 5-[(aminoiminomethyl)amino]-", "L-Ornithine, N5-(aminoiminomethyl)-", "L-\u03b1-Amino-\u03b4-guanidinovaleric acid", "L-Arg", "NSC 206269", "L-arginine C Grade", "A 0526", "(2S)-2-Amino-5-(diaminomethylideneamino)pentanoic acid", "42: PN: WO2020027640 SEQID: 105 claimed protein", "42: PN: KR20200014684 SEQID: 105 claimed sequence", "117: PN: WO2021061872 SEQID: 117 claimed protein", "87: PN: WO2022010798 SEQID: 89 claimed protein", "381: PN: WO2022056313 SEQID: 385 claimed protein", "42: PN: WO2022204326 SEQID: 76 claimed protein", "102: PN: WO2022204151 SEQID: 102 claimed protein", "11: PN: WO2022235295 SEQID: 117 claimed protein", "3: PN: WO2022269549 PAGE: 98 claimed sequence", "MeSH ID: D001120"], "SMILES": "C(CCNC(=N)N)C(C(O)=O)N", "physical_data": {"Molecular Weight": "174.20", "Molecular Formula": "C6H14N4O2", "Melting Point": "244 \u00b0C", "Density": "1.10 g/cm\u00b3"}}