{"cas_no": "74-82-8", "cn_name": "\u7532\u70f7", "en_name": ["Methane", "Methane", "Marsh gas", "Methyl hydride", "R 50 (refrigerant)", "R 50", "MeSH ID: D008697"], "SMILES": "C", "physical_data": {"Molecular Weight": "", "Molecular Formula": "CH4", "Boiling Point": "-161.4 \u00b0C", "Melting Point": "-182.6 \u00b0C", "Density": "0.466-0.477 g/cm\u00b3"}}