{"cas_no": "74-89-5", "cn_name": "\u4e00\u7532\u80fa", "en_name": ["Methylamine", "Methanamine", "Methylamine", "Aminomethane", "Carbinamine", "Monomethylamine", "MMA", "R 630", "MeSH ID: D008744"], "SMILES": "CN", "physical_data": {"Molecular Weight": "31.06", "Molecular Formula": "CH5N", "Boiling Point": "-6.3 \u00b0C @ Press: 760 Torr", "Melting Point": "-93.5 \u00b0C", "Density": "0.6624 g/cm\u00b3 @ Temp: 25 \u00b0C"}}