{"cas_no": "74-87-3", "cn_name": "\u4e00\u6c2f\u7532\u70f7", "en_name": ["Methyl chloride", "Methane, chloro-", "Chloromethane", "Artic", "Methyl chloride", "Monochloromethane", "R 40", "HCC 40", "R 40 (refrigerant)", "F 40", "Chloromethane dimer", "Methane, chloro-, dimer", "MeSH ID: D008737"], "SMILES": "CCl", "physical_data": {"Molecular Weight": "50.49", "Molecular Formula": "CH3Cl", "Boiling Point": "-23.7 \u00b0C", "Melting Point": "-97 \u00b0C", "Density": "0.911 g/cm\u00b3 @ Temp: 25 \u00b0C"}}