{"cas_no": "74-88-4", "cn_name": "\u7898\u7532\u70f7", "en_name": ["Methyl iodide", "Methane, iodo-", "Iodomethane", "Methyl iodide", "Methyl iodide (CH3I)", "Monoiodomethane", "NSC 9366", "Ioguard"], "SMILES": "CI", "physical_data": {"Molecular Weight": "141.94", "Molecular Formula": "CH3I", "Boiling Point": "42.5 \u00b0C", "Melting Point": "-66.5 \u00b0C", "Density": "2.28 g/cm\u00b3 @ Temp: 20 \u00b0C"}}