{"cas_no": "74-86-2", "cn_name": "\u4e59\u7094", "en_name": ["Acetylene", "Ethyne", "Acetylene", "Vinylene", "Ethine", "Narcylen", "MeSH ID: D000114"], "SMILES": "C#C", "physical_data": {"Molecular Weight": "26.04", "Molecular Formula": "C2H2", "Boiling Point": "-84.0 \u00b0C @ Press: 760 Torr", "Melting Point": "-80.8 \u00b0C", "Density": "0.6208 g/cm\u00b3 @ Temp: -82 \u00b0C"}}