{"cas_no": "74-84-0", "cn_name": "\u4e59\u70f7", "en_name": ["Ethane", "Ethane", "Bimethyl", "Dimethyl", "Ethyl hydride", "Methylmethane", "R 170", "R 170 (hydrocarbon)", "MeSH ID: D004980"], "SMILES": "CC", "physical_data": {"Molecular Weight": "30.07", "Molecular Formula": "C2H6", "Boiling Point": "-88 \u00b0C", "Melting Point": "-172 \u00b0C", "Density": "0.5490 g/cm\u00b3"}}