{"cas_no": "74-83-9", "cn_name": "\u6eb4\u7532\u70f7", "en_name": ["Methyl bromide", "Methane, bromo-", "Bromomethane", "Embafume", "Iscobrome", "Methyl bromide", "Monobromomethane", "Terabol", "Haltox", "Halon 1001", "Curafume", "R 40B1", "1-Bromomethane", "Brom-O-Gas", "Methybrom", "F 40B1"], "SMILES": "BrC", "physical_data": {"Molecular Weight": "94.94", "Molecular Formula": "CH3Br", "Boiling Point": "3.5 \u00b0C", "Melting Point": "-93.66 \u00b0C", "Density": "1.7 g/cm\u00b3"}}