{"cas_no": "74-85-1", "cn_name": "\u4e59\u70ef", "en_name": ["Ethylene", "Ethene", "Ethylene", "Acetene", "Bicarburetted hydrogen", "Elayl", "Olefiant gas", "R 1150", "218W050", "Betafoam AFI-G 1", "N 25", "EGF 34"], "SMILES": "C=C", "physical_data": {"Molecular Weight": "28.05", "Molecular Formula": "C2H4", "Boiling Point": "-102.4 \u00b0C @ Press: 700 Torr", "Melting Point": "-169 \u00b0C", "Density": "0.56737 g/cm\u00b3 @ Temp: -103.8 \u00b0C"}}