{"cas_no": "74-93-1", "cn_name": "\u7532\u786b\u9187", "en_name": ["Methanethiol", "Methanethiol", "Mercaptomethane", "Methyl mercaptan"], "SMILES": "CS", "physical_data": {"Molecular Weight": "48.11", "Molecular Formula": "CH4S", "Boiling Point": "5.95 \u00b0C @ Press: 760 Torr", "Melting Point": "-123 \u00b0C", "Density": "0.9600 g/cm\u00b3 @ Temp: 25 \u00b0C"}}