{"cas_no": "74-90-8", "cn_name": "\u6c22\u6c30\u9178", "en_name": ["Hydrogen cyanide", "Hydrocyanic acid", "Formic anammonide", "Formonitrile", "Hydrogen cyanide", "Prussic acid", "Carbon hydride nitride (CHN)", "Evercyn", "Zyklon B", "Agent AC", "AC", "AC (chemical warfare agent)", "MeSH ID: D006856"], "SMILES": "C#N", "physical_data": {"Molecular Weight": "27.03", "Molecular Formula": "CHN", "Boiling Point": "25.6 \u00b0C", "Melting Point": "-13.4 \u00b0C", "Density": "0.687 g/cm\u00b3"}}