{"cas_no": "74-98-6", "cn_name": "\u4e19\u70f7", "en_name": ["Propane", "Propane", "Dimethylmethane", "Propyl hydride", "R 290", "n-Propane", "Liquefied petroleum gas", "LPG", "HC 290", "Purifrigor P 2", "Purifrigor P 2.5", "Purifrigor P 3", "Purifrigor P 3.5", "R 280", "MeSH ID: D011407"], "SMILES": "C(C)C", "physical_data": {"Molecular Weight": "44.10", "Molecular Formula": "C3H8", "Boiling Point": "-42.1 \u00b0C @ Press: 800 Torr", "Melting Point": "-189.7 \u00b0C", "Density": "0.5853 g/cm\u00b3 @ Temp: -45 \u00b0C"}}