{"cas_no": "74-97-5", "cn_name": "\u6eb4\u6c2f\u7532\u70f7", "en_name": ["Bromochloromethane", "Methane, bromochloro-", "Bromochloromethane", "Halon 1011", "Chlorobromomethane", "Monochloromonobromomethane", "Fluorocarbon 1011", "Methylene bromide chloride", "NSC 7294", "Cathay HL 52", "HL 52"], "SMILES": "C(Br)Cl", "physical_data": {"Molecular Weight": "129.38", "Molecular Formula": "CH2BrCl", "Boiling Point": "68.0 \u00b0C", "Melting Point": "-87.9 \u00b0C", "Density": "1.9344 g/cm\u00b3 @ Temp: 20 \u00b0C"}}