{"cas_no": "74-96-4", "cn_name": "\u6eb4\u4e59\u70f7", "en_name": ["Ethyl bromide", "Ethane, bromo-", "Bromoethane", "Bromic ether", "Hydrobromic ether", "Monobromoethane", "Ethyl bromide", "F 160B1", "NSC 8824", "2-Bromoethane"], "SMILES": "C(Br)C", "physical_data": {"Molecular Weight": "108.97", "Molecular Formula": "C2H5Br", "Boiling Point": "38.2 \u00b0C", "Melting Point": "-119 \u00b0C", "Density": "1.4612 g/cm\u00b3 @ Temp: 20 \u00b0C"}}