{"cas_no": "74-95-3", "cn_name": "\u4e8c\u6eb4\u7532\u70f7", "en_name": ["Dibromomethane", "Methane, dibromo-", "Dibromomethane", "Methylene bromide", "Methylene dibromide", "NSC 7293"], "SMILES": "C(Br)Br", "physical_data": {"Molecular Weight": "173.83", "Molecular Formula": "CH2Br2", "Boiling Point": "97 \u00b0C", "Melting Point": "-52.5 \u00b0C", "Density": "2.4969 g/cm\u00b3 @ Temp: 20 \u00b0C"}}