{"cas_no": "74-99-7", "cn_name": "\u4e19\u7094", "en_name": ["Propyne", "1-Propyne", "Propyne", "Methylacetylene", "Propine", "Allylene"], "SMILES": "C(C)#C", "physical_data": {"Molecular Weight": "40.06", "Molecular Formula": "C3H4", "Boiling Point": "-23.2 \u00b0C @ Press: 760 Torr", "Melting Point": "-102.7 \u00b0C", "Density": "0.7062 g/cm\u00b3 @ Temp: -50 \u00b0C"}}