{"cas_no": "74-94-2", "cn_name": "\u4e8c\u7532\u80fa\u57fa\u7532\u787c\u70f7", "en_name": ["Dimethylamine-borane", "Boron, trihydro(N-methylmethanamine)-, (T-4)-", "Dimethylamine, compd. with borane (1:1)", "Methanamine, N-methyl-, compd. with borane (1:1)", "Dimethylamine, compd. with BH3", "Borane, compd. with dimethylamine (1:1)", "Borane, compd. with N-methylmethanamine (1:1)", "Methanamine, N-methyl-, boron complex", "(T-4)-Trihydro(N-methylmethanamine)boron", "Dimethylamine-borane", "Dimethylamine compound with borane (1:1)", "NSC 10218", "NSC 53321", "(Dimethylamine)trihydroboron"], "SMILES": "[B+3]([NH](C)C)([H-])([H-])[H-]", "physical_data": {"Molecular Weight": "", "Molecular Formula": "C2H10BN", "Boiling Point": "59-60 \u00b0C @ Press: 1-2 Torr", "Melting Point": "36 \u00b0C"}}