{"cas_no": "740-57-8", "cn_name": "N-2-\u8418\u57fa\u82ef\u57fa\u4e19\u6c28\u9178\u9170\u80fa", "en_name": ["Phenylalanine \u03b2-naphthylamide", "Benzenepropanamide, \u03b1-amino-N-2-naphthalenyl-, (\u03b1S)-", "Hydrocinnamamide, \u03b1-amino-N-2-naphthyl-, L-", "Benzenepropanamide, \u03b1-amino-N-2-naphthalenyl-, (S)-", "(\u03b1S)-\u03b1-Amino-N-2-naphthalenylbenzenepropanamide", "L-Phenylalanyl-\u03b2-naphthylamide", "Phenylalanyl-\u03b2-naphthylamide", "N-L-Phenylalanyl-2-naphthylamide", "Phenylalanine \u03b2-naphthylamide", "L-Phenylalanine-\u03b2-naphthylamide", "L-Phenylalanine-2-naphthylamide"], "SMILES": "N(C(C(CC1=CC=CC=C1)N)=O)C2=CC3=C(C=C2)C=CC=C3", "physical_data": {"Molecular Weight": "290.36", "Molecular Formula": "C19H18N2O", "Melting Point": "102-103 \u00b0C"}}