{"cas_no": "7400-45-5", "cn_name": "3-[(2-\u7532\u6c27\u57fa-2-\u6c27\u4e59\u57fa)\u786b\u4ee3]\u4e19\u9178\u7532\u916f", "en_name": ["Propanoic acid, 3-[(2-methoxy-2-oxoethyl)thio]-, methyl ester", "Propanoic acid, 3-[(2-methoxy-2-oxoethyl)thio]-, methyl ester", "Propionic acid, 3-[(carboxymethyl)thio]-, dimethyl ester", "Methyl 3-(methoxycarbonylmethylthio)propionate", "NSC 59279", "Methyl 3-[(2-methoxy-2-oxoethyl)thio]propanoate", "3-[[(Methoxycarbonyl)methyl]sulfanyl]propionic acid methyl ester"], "SMILES": "C(CSCC(OC)=O)C(OC)=O", "physical_data": {"Molecular Weight": "192.23", "Molecular Formula": "C7H12O4S", "Boiling Point": "115-117 \u00b0C @ Press: 3 Torr"}}