{"cas_no": "7400-08-0", "cn_name": "\u5bf9\u7f9f\u57fa\u8089\u6842\u9178", "en_name": ["p-Coumaric acid", "2-Propenoic acid, 3-(4-hydroxyphenyl)-", "Cinnamic acid, p-hydroxy-", "3-(4-Hydroxyphenyl)-2-propenoic acid", "p-Coumaric acid", "p-Hydroxycinnamic acid", "p-Hydroxyphenylacrylic acid", "4-Hydroxycinnamic acid", "p-Cumaric acid", "\u03b2-[4-Hydroxyphenyl]acrylic acid", "4-Coumaric acid", "4\u2032-Hydroxycinnamic acid", "NSC 59260", "NSC 674321", "3-(4-Hydroxyphenyl)acrylic acid", "4-Hydroxyphenyl acrylic acid", "B 19092"], "SMILES": "C(=CC(O)=O)C1=CC=C(O)C=C1", "physical_data": {"Molecular Weight": "164.16", "Molecular Formula": "C9H8O3", "Melting Point": "211.5 \u00b0C"}}