{"cas_no": "74003-18-2", "cn_name": "\u76d0\u9178\u5965\u624e\u683c\u96f7", "en_name": ["Ozagrel hydrochloride", "2-Propenoic acid, 3-[4-(1H-imidazol-1-ylmethyl)phenyl]-, hydrochloride (1:1), (2E)-", "2-Propenoic acid, 3-[4-(1H-imidazol-1-ylmethyl)phenyl]-, monohydrochloride, (E)-", "2-Propenoic acid, 3-[4-(1H-imidazol-1-ylmethyl)phenyl]-, monohydrochloride, (2E)-", "OKY 046", "Ozagrel hydrochloride", "Xanbon"], "SMILES": "C(C1=CC=C(C=CC(O)=O)C=C1)N2C=CN=C2.Cl", "physical_data": {"Molecular Weight": "", "Molecular Formula": "C13H12N2O2.ClH", "Melting Point": "214-217 \u00b0C"}}