{"cas_no": "7400-27-3", "cn_name": "\u53d4\u4e01\u57fa\u80bc\u76d0\u9178\u76d0", "en_name": ["Hydrazine, (1,1-dimethylethyl)-, hydrochloride (1:1)", "Hydrazine, (1,1-dimethylethyl)-, hydrochloride (1:1)", "Hydrazine, tert-butyl-, monohydrochloride", "Hydrazine, (1,1-dimethylethyl)-, monohydrochloride", "Hydrazine, tert-butyl-, hydrochloride", "tert-Butylhydrazinium chloride", "tert-Butylhydrazine hydrochloride", "tert-Butylhydrazine monohydrochloride", "(1,1-Dimethylethyl)hydrazine hydrochloride", "N\u2032-tert-Butylhydrazine hydrochloride", "t-Butylhydrazine hydrochloride", "N-tert-Butyl hydrazine hydrochloride"], "SMILES": "C(NN)(C)(C)C.Cl", "physical_data": {"Molecular Weight": "", "Molecular Formula": "C4H12N2.ClH", "Melting Point": "191-192 \u00b0C"}}