{"cas_no": "74011-58-8", "cn_name": "\u4f9d\u8bfa\u6c99\u661f", "en_name": ["Enoxacin", "1,8-Naphthyridine-3-carboxylic acid, 1-ethyl-6-fluoro-1,4-dihydro-4-oxo-7-(1-piperazinyl)-", "1-Ethyl-6-fluoro-1,4-dihydro-4-oxo-7-(1-piperazinyl)-1,8-naphthyridine-3-carboxylic acid", "AT 2266", "Enoxacin", "Enoxacine", "Flumark", "Penetrex", "Penetrex (pharmaceutical)", "Enoksetin", "PD 107779", "CI 919", "NSC 629661", "Enofloxacin", "ENOXOR", "Enofloxacine", "1-Ethyl-6-fluoro-4-oxo-7-piperazin-4-ium-1-yl-1,8-naphthyridine-3-carboxylate", "1-Ethyl-6-fluoro-4-oxo-7-(piperazin-1-yl)-1,4-dihydro-1,8-naphthyridine-3-carboxylic acid", "MeSH ID: D015365"], "SMILES": "C(C)N1C=2C(C(=O)C(C(O)=O)=C1)=CC(F)=C(N2)N3CCNCC3", "physical_data": {"Molecular Weight": "320.32", "Molecular Formula": "C15H17FN4O3", "Melting Point": "220-224 \u00b0C"}}