{"cas_no": "7403-42-1", "cn_name": "4-\u7532\u57fa-4-\u82ef\u57fa-2-\u620a\u916e", "en_name": ["4-Methyl-4-phenyl-2-pentanone", "2-Pentanone, 4-methyl-4-phenyl-", "4-Methyl-4-phenyl-2-pentanone", "Methyl 2-methyl-2-phenylpropyl ketone", "2-Methyl-2-phenylpentan-4-one", "4-Phenyl-4-methyl-2-pentanone", "NSC 200696", "NSC 54368", "Vetikon"], "SMILES": "C(CC(C)=O)(C)(C)C1=CC=CC=C1", "physical_data": {"Molecular Weight": "176.25", "Molecular Formula": "C12H16O", "Boiling Point": "134 \u00b0C @ Press: 22 Torr", "Density": "0.972 g/cm\u00b3 @ Temp: 25 \u00b0C"}}