{"cas_no": "74046-07-4", "cn_name": "S(+)-\u0393-VIGABATRIN", "en_name": ["(S)-Vigabatrin", "5-Hexenoic acid, 4-amino-, (4S)-", "5-Hexenoic acid, 4-amino-, (S)-", "(4S)-4-Amino-5-hexenoic acid", "(+)-\u03b3-Vinyl GABA", "RMI 71890", "S-(+)-Vigabatrin", "(S)-Vigabatrin", "4(S)-Amino-5-hexenoic acid", "(S)-4-Amino-5-hexenoic acid", "(S)-(+)-Gamma-vinyl-GABA", "(4S)-4-Aminohex-5-enoic acid"], "SMILES": "C(CCC(O)=O)(C=C)N", "physical_data": {"Molecular Weight": "129.16", "Molecular Formula": "C6H11NO2", "Melting Point": "162-165 \u00b0C"}}