{"cas_no": "74051-80-2", "cn_name": "\u7a00\u79be\u5b9a", "en_name": ["Sethoxydim", "2-Cyclohexen-1-one, 2-[1-(ethoxyimino)butyl]-5-[2-(ethylthio)propyl]-3-hydroxy-", "2-[1-(Ethoxyimino)butyl]-5-[2-(ethylthio)propyl]-3-hydroxy-2-cyclohexen-1-one", "BAS 9052", "NP 55", "Cyethoxydim", "Poast", "BAS 90520H", "Sethoxydim", "ARD 34/02", "Nabu", "Alloxol S", "Expand", "BASF 9052", "Nabu S", "Expand Plus", "Fervinal", "Grasidim", "Poast Plus", "Fervinal plus", "Sertin", "Segment", "2-(1-(Ethoxyimino)butyl)-5-(2-(ethylthio)propyl)-3-hydroxycyclohex-2-enone"], "SMILES": "C(=NOCC)(CCC)C=1C(=O)CC(CC(SCC)C)CC1O", "physical_data": {"Molecular Weight": "327.48", "Molecular Formula": "C17H29NO3S", "Melting Point": "&lt;25 \u00b0C"}}