{"cas_no": "74050-98-9", "cn_name": "\u51ef\u4ed6\u8272\u6797", "en_name": ["Ketanserin", "2,4(1H,3H)-Quinazolinedione, 3-[2-[4-(4-fluorobenzoyl)-1-piperidinyl]ethyl]-", "3-[2-[4-(4-Fluorobenzoyl)-1-piperidinyl]ethyl]-2,4(1H,3H)-quinazolinedione", "R 41468", "Ketanserin", "Ketensin", "Vulketan Gel", "Suffrexal", "MeSH ID: D007650"], "SMILES": "O=C1C=2C(NC(=O)N1CCN3CCC(C(=O)C4=CC=C(F)C=C4)CC3)=CC=CC2", "physical_data": {"Molecular Weight": "395.43", "Molecular Formula": "C22H22FN3O3", "Melting Point": "231 \u00b0C"}}