{"cas_no": "74058-71-2", "cn_name": "N-\u82c4\u57fa\u68d5\u6988\u9170\u80fa", "en_name": ["N-(Phenylmethyl)hexadecanamide", "Hexadecanamide, N-(phenylmethyl)-", "Hexadecanamide, N-benzyl-", "N-(Phenylmethyl)hexadecanamide", "N-Benzylpalmitamide", "N-Benzylhexadecanamide", "Macamide 1"], "SMILES": "C(NC(CCCCCCCCCCCCCCC)=O)C1=CC=CC=C1", "physical_data": {"Molecular Weight": "345.56", "Molecular Formula": "C23H39NO", "Melting Point": "94.5-95 \u00b0C"}}