{"cas_no": "74070-46-5", "cn_name": "\u82ef\u8349\u919a", "en_name": ["Aclonifen", "Benzenamine, 2-chloro-6-nitro-3-phenoxy-", "2-Chloro-6-nitro-3-phenoxybenzenamine", "CME 127", "Aclonifen", "2-Chloro-6-nitro-3-phenoxyaniline", "Bandren", "Bandur", "KUB 3359", "Challenge 600"], "SMILES": "O(C1=C(Cl)C(N)=C(N(=O)=O)C=C1)C2=CC=CC=C2", "physical_data": {"Molecular Weight": "264.66", "Molecular Formula": "C12H9ClN2O3", "Melting Point": "81.5 \u00b0C"}}