{"cas_no": "740815-37-6", "cn_name": "2-\u4e8c\u53d4\u4e01\u57fa\u81a6-1-\u82ef\u57fa\u5432\u54da", "en_name": ["2-[Bis(1,1-dimethylethyl)phosphino]-1-phenyl-1H-indole", "1H-Indole, 2-[bis(1,1-dimethylethyl)phosphino]-1-phenyl-", "2-[Bis(1,1-dimethylethyl)phosphino]-1-phenyl-1H-indole", "N-Phenylindol-2-yl-di-tert-butylphosphine", "N-Phenyl-2-(di-tert-butylphosphino)indole", "2-(Di-tert-butylphosphino)-1-phenylindole"], "SMILES": "P(C(C)(C)C)(C(C)(C)C)C=1N(C=2C(C1)=CC=CC2)C3=CC=CC=C3", "physical_data": {"Molecular Weight": "337.44", "Molecular Formula": "C22H28NP", "Melting Point": "90-92 \u00b0C"}}