{"cas_no": "740810-42-8", "cn_name": "\u67d8\u6811\u53e3\u5c71\u916e A", "en_name": ["5-(1,1-Dimethyl-2-propen-1-yl)-2,3,6,8-tetrahydroxy-1-(3-methyl-2-buten-1-yl)-9H-xanthen-9-one", "9H-Xanthen-9-one, 5-(1,1-dimethyl-2-propen-1-yl)-2,3,6,8-tetrahydroxy-1-(3-methyl-2-buten-1-yl)-", "9H-Xanthen-9-one, 5-(1,1-dimethyl-2-propenyl)-2,3,6,8-tetrahydroxy-1-(3-methyl-2-butenyl)-", "5-(1,1-Dimethyl-2-propen-1-yl)-2,3,6,8-tetrahydroxy-1-(3-methyl-2-buten-1-yl)-9H-xanthen-9-one", "Cudratricusxanthone A"], "SMILES": "C(C=C(C)C)C1=C2C(OC=3C(C2=O)=C(O)C=C(O)C3C(C=C)(C)C)=CC(O)=C1O", "physical_data": {"Molecular Weight": "396.43", "Molecular Formula": "C23H24O6", "Melting Point": "145 \u00b0C"}}