{"cas_no": "741-58-2", "cn_name": "\u5730\u6563\u78f7", "en_name": ["Bensulide", "Phosphorodithioic acid, O,O-bis(1-methylethyl) S-[2-[(phenylsulfonyl)amino]ethyl] ester", "Phosphorodithioic acid, O,O-diisopropyl ester, S-ester with N-(2-mercaptoethyl)benzenesulfonamide", "R 4461", "Bensulide", "Betasan", "N-[2-(O,O-Diisopropyldithiophosphoryl)ethyl]benzenesulfonamide", "Disan (pesticide)", "Prefar", "S-\u03b2-(Benzenesulfonamido)ethyl O,O-diisopropyl dithiophosphate", "Disan", "O,O-Diisopropyl 2-(benzenesulfonamido)ethyl dithiophosphate", "SAP (herbicide)", "SAP", "O,O-Diisopropyl S-(2-benzenesulfonylaminoethyl) phosphorodithioate"], "SMILES": "S(NCCSP(OC(C)C)(OC(C)C)=S)(=O)(=O)C1=CC=CC=C1", "physical_data": {"Molecular Weight": "397.51", "Molecular Formula": "C14H24NO4PS3", "Melting Point": "34.4 \u00b0C", "Density": "1.23 g/cm\u00b3 @ Temp: 20 \u00b0C"}}