{"cas_no": "74103-06-3", "cn_name": "\u916e\u54af\u9178", "en_name": ["Ketorolac", "1H-Pyrrolizine-1-carboxylic acid, 5-benzoyl-2,3-dihydro-", "1H-Pyrrolizine-1-carboxylic acid, 5-benzoyl-2,3-dihydro-, (\u00b1)-", "5-Benzoyl-2,3-dihydro-1H-pyrrolizine-1-carboxylic acid", "RS 37619", "Ketorolac", "(\u00b1)-Ketorolac", "Acular LS", "Sprix", "Keromin", "Sukerin", "AAGN 199584", "MeSH ID: D020910"], "SMILES": "C(=O)(C=1N2C(C(C(O)=O)CC2)=CC1)C3=CC=CC=C3", "physical_data": {"Molecular Weight": "255.27", "Molecular Formula": "C15H13NO3", "Melting Point": "160.5 \u00b0C"}}