{"cas_no": "74115-12-1", "cn_name": "5-\u6c2f-3-\u7f9f\u57fa\u5421\u5576", "en_name": ["5-Chloro-3-pyridinol", "3-Pyridinol, 5-chloro-", "5-Chloro-3-pyridinol", "3-Hydroxy-5-chloropyridine", "5-Chloro-3-hydroxypyridine", "3-Chloro-5-hydroxypyridine", "3-Chloropyridin-5-ol"], "SMILES": "ClC=1C=C(O)C=NC1", "physical_data": {"Molecular Weight": "129.54", "Molecular Formula": "C5H4ClNO", "Melting Point": "158 \u00b0C"}}