{"cas_no": "7411-12-3", "cn_name": "N-\u7532\u9170\u8131\u4e59\u9170\u79cb\u6c34\u4ed9\u78b1", "en_name": ["N-Deacetyl-N-formylcolchicine", "Formamide, N-[(7S)-5,6,7,9-tetrahydro-1,2,3,10-tetramethoxy-9-oxobenzo[a]heptalen-7-yl]-", "Colchicine, N-deacetyl-N-formyl-", "Formamide, N-(5,6,7,9-tetrahydro-1,2,3,10-tetramethoxy-9-oxobenzo[a]heptalen-7-yl)-, (S)-", "Colchicine, deacetyl-N-formyl-", "Benzo[a]heptalene, formamide deriv.", "N-[(7S)-5,6,7,9-Tetrahydro-1,2,3,10-tetramethoxy-9-oxobenzo[a]heptalen-7-yl]formamide", "N-Deacetyl-N-formylcolchicine", "N-Formyldeacetylcolchicine", "N-Formyl-N-deacetylcolchicine", "Gloriosine", "N-Formyl-N-desacetylcolchicine", "NSC 403142"], "SMILES": "O(C)C1=C2C=3C(C(NC=O)CCC2=CC(OC)=C1OC)=CC(=O)C(OC)=CC3", "physical_data": {"Molecular Weight": "385.41", "Molecular Formula": "C21H23NO6", "Melting Point": "260-262 \u00b0C"}}