{"cas_no": "74115-13-2", "cn_name": "3-\u6eb4-5-\u7f9f\u57fa\u5421\u5576", "en_name": ["5-Bromo-3-pyridinol", "3-Pyridinol, 5-bromo-", "5-Bromo-3-pyridinol", "3-Bromo-5-hydroxypyridine", "5-Bromo-3-hydroxypyridine", "3-Bromopyridin-5-ol", "3-Hydroxyl-5-bromopyridine"], "SMILES": "BrC=1C=C(O)C=NC1", "physical_data": {"Molecular Weight": "174.00", "Molecular Formula": "C5H4BrNO", "Melting Point": "166.5-167.5 \u00b0C"}}