{"cas_no": "7411-23-6", "cn_name": "3,5-\u4e8c\u6eb4-1H-1,2,4-\u4e09\u5511", "en_name": ["3,5-Dibromo-1H-1,2,4-triazole", "1H-1,2,4-Triazole, 3,5-dibromo-", "s-Triazole, 3,5-dibromo-", "3,5-Dibromo-1H-1,2,4-triazole", "3,5-Dibromo-1,2,4-triazole", "NSC 222386"], "SMILES": "BrC=1NC(Br)=NN1", "physical_data": {"Molecular Weight": "226.86", "Molecular Formula": "C2HBr2N3", "Melting Point": "211-212 \u00b0C"}}