{"cas_no": "7411-49-6", "cn_name": "3,3'-\u4e8c\u6c28\u57fa\u8054\u82ef\u80fa\u56db\u76d0\u9178\u76d0", "en_name": ["3,3\u2032-Diaminobenzidine tetrahydrochloride", "[1,1\u2032-Biphenyl]-3,3\u2032,4,4\u2032-tetramine, hydrochloride (1:4)", "3,3\u2032,4,4\u2032-Biphenyltetramine, tetrahydrochloride", "[1,1\u2032-Biphenyl]-3,3\u2032,4,4\u2032-tetramine, tetrahydrochloride", "3,3\u2032-Diammoniumbenzidinium tetrachloride", "3,3\u2032-Diaminobenzidine tetrahydrochloride", "3,3\u2032-Diaminobenzidine hydrochloride", "3,3\u2032,4,4\u2032-Tetraaminobiphenyl tetrahydrochloride", "3,4,3\u2032,4\u2032-Tetraaminobiphenyl tetrahydrochloride"], "SMILES": "NC=1C=C(C=CC1N)C2=CC(N)=C(N)C=C2.Cl", "physical_data": {"Molecular Weight": "", "Molecular Formula": "C12H14N4.4ClH", "Melting Point": "178-180 \u00b0C"}}