{"cas_no": "74115-24-5", "cn_name": "\u56db\u87a8\u55ea", "en_name": ["Clofentezine", "1,2,4,5-Tetrazine, 3,6-bis(2-chlorophenyl)-", "3,6-Bis(2-chlorophenyl)-1,2,4,5-tetrazine", "NC 21314", "Apollo", "Apollo 50W", "Bisclofentezin", "Apollo (pesticide)", "Clofentezine", "Bisclofentezine", "Acaristop", "Apollo SOSC", "ManSiJing", "3,6-Di-2-chlorophenyl-1,2,4,5-tetrazine"], "SMILES": "ClC1=C(C=CC=C1)C=2N=NC(=NN2)C3=C(Cl)C=CC=C3", "physical_data": {"Molecular Weight": "303.15", "Molecular Formula": "C14H8Cl2N4", "Melting Point": "182 \u00b0C"}}