{"cas_no": "7412-78-4", "cn_name": "\u7518\u6c28\u9170\u8c37\u6c28\u9178", "en_name": ["Glycyl-L-glutamic acid", "L-Glutamic acid, glycyl-", "Glutamic acid, N-glycyl-, L-", "L-Glutamic acid, N-glycyl-", "Glycyl-L-glutamic acid", "Glycylglutamic acid", "NSC 203441", "437: PN: WO2005081628 SEQID: 1546 claimed protein", "534: PN: WO2006090389 SEQID: 550 unclaimed protein", "44: PN: EP2161028 PAGE: 10 claimed protein", "L-Selectin (human clone MMPLNHR_P2 fragment)", "70: PN: US20100075891 SEQID: 70 claimed protein", "63: PN: WO2014063098 TABLE: 5 claimed sequence", "15: PN: WO2011146121 PAGE: 113 claimed sequence", "112: PN: WO2012050923 SEQID: 139 unclaimed protein", "DNA (human amyloid A\u03b2(1-42)-specifying)", "170: PN: US20130123467 SEQID: 209 claimed protein", "78: PN: WO2014170713 SEQID: 184 claimed protein", "(2S)-2-(2-Aminoacetamido)pentanedioic acid", "(2S)-2-[(2-Aminoacetyl)amino]pentanedioic acid", "9: PN: KR20200105339 PAGE: 3 claimed sequence", "14: PN: WO2021055880 SEQID: 15 claimed protein", "1: PN: WO2022192664 PAGE: 110 claimed sequence"], "SMILES": "C(NC(CN)=O)(CCC(O)=O)C(O)=O", "physical_data": {"Molecular Weight": "204.18", "Molecular Formula": "C7H12N2O5", "Melting Point": "160 \u00b0C"}}