{"cas_no": "74124-79-1", "cn_name": "N,N'-\u4e8c\u7425\u73c0\u9170\u4e9a\u80fa\u57fa\u78b3\u9178\u916f", "en_name": ["Disuccinimidyl carbonate", "Carbonic acid, bis(2,5-dioxo-1-pyrrolidinyl) ester", "2,5-Pyrrolidinedione, 1,1\u2032-[carbonylbis(oxy)]bis-", "Disuccinimidyl carbonate", "N,N\u2032-Disuccinimidyl carbonate", "N,N\u2032-Disuccinimido carbonate", "Disuccimidyl carbonate", "Bis(N-succinimidyl) carbonate", "1-[[[(2,5-Dioxo-1-pyrrolidinyl)oxy]carbonyl]oxy]-2,5-pyrrolidinedione", "Carbonic acid bis(2,5-dioxopyrrolidin-1-yl) ester", "Di(2,5-dioxopyrrolidin-1-yl) carbonate", "Bis(succinimidyl) carbonate", "N,N-Disuccinimidyl carbonate", "Bis(2,5-dioxopyrrolidin-1-yl) carbonate", "DSC", "Carbonic acid disuccinimidyl ester", "Disuccinimide carbonate", "Di(N-succinimidyl) carbonate"], "SMILES": "O(C(ON1C(=O)CCC1=O)=O)N2C(=O)CCC2=O", "physical_data": {"Molecular Weight": "256.17", "Molecular Formula": "C9H8N2O7", "Melting Point": "209-211 \u00b0C"}}