{"cas_no": "74137-36-3", "cn_name": "3,5-\u4e8c\u6eb4\u82ef\u7532\u919a", "en_name": ["1,3-Dibromo-5-methoxybenzene", "Benzene, 1,3-dibromo-5-methoxy-", "1,3-Dibromo-5-methoxybenzene", "3,5-Dibromoanisole", "3,5-Bromo-1-methoxyphenyl"], "SMILES": "O(C)C1=CC(Br)=CC(Br)=C1", "physical_data": {"Molecular Weight": "265.93", "Molecular Formula": "C7H6Br2O", "Melting Point": "38 \u00b0C"}}