{"cas_no": "74144-49-3", "cn_name": "DL-\u6c28\u57fa\u4e19\u9178 \u03b2-\u6c22\u6c2f\u5316\u8418\u57fa\u9170\u80fa", "en_name": ["Propanamide, 2-amino-N-2-naphthalenyl-, hydrochloride (1:1)", "Propanamide, 2-amino-N-2-naphthalenyl-, hydrochloride (1:1)", "Propanamide, 2-amino-N-2-naphthalenyl-, monohydrochloride, (\u00b1)-", "Propanamide, 2-amino-N-2-naphthalenyl-, monohydrochloride", "2-Amino-N-(naphthalen-2-yl)propanamide hydrochloride"], "SMILES": "N(C(C(C)N)=O)C1=CC2=C(C=C1)C=CC=C2.Cl", "physical_data": {"Molecular Weight": "", "Molecular Formula": "C13H14N2O.ClH", "Melting Point": "244-245 \u00b0C"}}