{"cas_no": "74150-27-9", "cn_name": "\u5339\u83ab\u82ef\u4e39", "en_name": ["Pimobendan", "3(2H)-Pyridazinone, 4,5-dihydro-6-[2-(4-methoxyphenyl)-1H-benzimidazol-6-yl]-5-methyl-", "3(2H)-Pyridazinone, 4,5-dihydro-6-[2-(4-methoxyphenyl)-1H-benzimidazol-5-yl]-5-methyl-", "4,5-Dihydro-6-[2-(4-methoxyphenyl)-1H-benzimidazol-6-yl]-5-methyl-3(2H)-pyridazinone", "UD-CG 115", "UD-CG 115BS", "dl-Pimobendan", "Racemic pimobendan", "Pimobendan", "Vetmedin", "Acardi"], "SMILES": "CC1C(C=2C=C3C(N=C(N3)C4=CC=C(OC)C=C4)=CC2)=NNC(=O)C1", "physical_data": {"Molecular Weight": "334.37", "Molecular Formula": "C19H18N4O2", "Melting Point": "147-150 \u00b0C"}}