{"cas_no": "74159-80-1", "cn_name": "2-\u785d\u57fa-4-\u4e59\u781c\u57fa\u6c2f\u82ef", "en_name": ["1-Chloro-4-(ethylsulfonyl)-2-nitrobenzene", "Benzene, 1-chloro-4-(ethylsulfonyl)-2-nitro-", "Sulfone, 4-chloro-3-nitrophenyl ethyl", "1-Chloro-4-(ethylsulfonyl)-2-nitrobenzene", "2-Chloro-5-ethylsulfonylnitrobenzene", "4-Chloro-3-nitrophenyl ethyl sulfone", "1-Chloro-4-ethylsulfonyl-2-nitrobenzene", "1-Chloro-4-ethanesulfonyl-2-nitro-benzene"], "SMILES": "S(CC)(=O)(=O)C1=CC(N(=O)=O)=C(Cl)C=C1", "physical_data": {"Molecular Weight": "249.67", "Molecular Formula": "C8H8ClNO4S", "Melting Point": "98-100 \u00b0C"}}