{"cas_no": "74163-81-8", "cn_name": "(S)-(-)-1,2,3,4-\u56db\u6c22\u5f02\u55b9\u5549-3-\u7fa7\u9178", "en_name": ["(-)-1,2,3,4-Tetrahydroisoquinoline-3-carboxylic acid", "3-Isoquinolinecarboxylic acid, 1,2,3,4-tetrahydro-, (3S)-", "3-Isoquinolinecarboxylic acid, 1,2,3,4-tetrahydro-, (S)-", "(3S)-1,2,3,4-Tetrahydro-3-isoquinolinecarboxylic acid", "L-3-Carboxy-1,2,3,4-tetrahydroisoquinoline", "L-Porretine", "L-1,2,3,4-Tetrahydroisoquinoline-3-carboxylic acid", "(S)-1,2,3,4-Tetrahydroisoquinoline-3-carboxylic acid", "(-)-1,2,3,4-Tetrahydroisoquinoline-3-carboxylic acid", "(3S)-1,2,3,4-Tetrahydroisoquinolin-2-ium-3-carboxylate"], "SMILES": "C(O)(=O)C1CC=2C(CN1)=CC=CC2", "physical_data": {"Molecular Weight": "177.20", "Molecular Formula": "C10H11NO2", "Melting Point": "&gt;300 \u00b0C"}}