{"cas_no": "74165-74-5", "cn_name": "3-\u6c28\u57fa-5-\u7532\u6c27\u57fa\u82ef\u7532\u9178", "en_name": ["3-Amino-5-methoxybenzoic acid", "Benzoic acid, 3-amino-5-methoxy-", "3-Amino-5-methoxybenzoic acid"], "SMILES": "C(O)(=O)C1=CC(OC)=CC(N)=C1", "physical_data": {"Molecular Weight": "167.16", "Molecular Formula": "C8H9NO3", "Melting Point": "194-197 \u00b0C"}}