{"cas_no": "7416-34-4", "cn_name": "3-\u4e59\u57fa-2-\u7532\u57fa-5-(\u5417\u5549-4-\u57fa\u7532\u57fa)-1,5,6,7-\u56db\u6c22\u5432\u54da-4-\u916e", "en_name": ["(\u00b1)-Molindone", "4H-Indol-4-one, 3-ethyl-1,5,6,7-tetrahydro-2-methyl-5-(4-morpholinylmethyl)-", "Indol-4(5H)-one, 3-ethyl-6,7-dihydro-2-methyl-5-(morpholinomethyl)-", "3-Ethyl-1,5,6,7-tetrahydro-2-methyl-5-(4-morpholinylmethyl)-4H-indol-4-one", "3-Ethyl-6,7-dihydro-2-methyl-5-(morpholinomethyl)indol-4(5H)-one", "Molindone", "(\u00b1)-Molindone", "3-Ethyl-2-methyl-5-[(morpholin-4-yl)methyl]-4,5,6,7-tetrahydro-1H-indol-4-one", "3-Ethyl-2-methyl-5-(morpholin-4-ylmethyl)-4,5,6,7-tetrahydro-1H-indol-4-one"], "SMILES": "C(C)C=1C2=C(NC1C)CCC(CN3CCOCC3)C2=O", "physical_data": {"Molecular Weight": "276.37", "Molecular Formula": "C16H24N2O2", "Melting Point": "180-181 \u00b0C"}}