{"cas_no": "741683-19-2", "cn_name": "3-CHLORO-2-FLUOROISONICOTINIC ACID", "en_name": ["3-Chloro-2-fluoro-4-pyridinecarboxylic acid", "4-Pyridinecarboxylic acid, 3-chloro-2-fluoro-", "3-Chloro-2-fluoro-4-pyridinecarboxylic acid", "2-Fluoro-3-chloroisonicotinic acid", "3-Chloro-2-fluoroisonicotinic acid", "2-Fluoro-3-chloro-4-pyridinecarboxylic acid"], "SMILES": "C(O)(=O)C=1C(Cl)=C(F)N=CC1", "physical_data": {"Molecular Weight": "175.54", "Molecular Formula": "C6H3ClFNO2", "Melting Point": "154 \u00b0C (decomp)"}}