{"cas_no": "7417-21-2", "cn_name": "3,4-\u4e8c\u7532\u6c27\u57fa\u82ef\u4e59\u9187", "en_name": ["2-(3,4-Dimethoxyphenyl)ethanol", "Benzeneethanol, 3,4-dimethoxy-", "Phenethyl alcohol, 3,4-dimethoxy-", "3,4-Dimethoxybenzeneethanol", "3,4-Dimethoxyphenethanol", "2-(3,4-Dimethoxyphenyl)ethanol", "3,4-Dimethoxyphenethyl alcohol", "3,4-Dimethoxy-\u03b2-phenethyl alcohol", "1-(2-Hydroxyethyl)-3,4-dimethoxybenzene", "Homoveratryl alcohol", "AF 821", "NSC 101852", "NSC 179202", "1,2-Dimethoxy-4-(2-hydroxyethyl)benzene", "2-(3,4-Dimethoxyphenyl)ethan-1-ol"], "SMILES": "O(C)C1=C(OC)C=CC(CCO)=C1", "physical_data": {"Molecular Weight": "182.22", "Molecular Formula": "C10H14O3", "Boiling Point": "140-150 \u00b0C @ Press: 0.1 Torr", "Melting Point": "47-48 \u00b0C", "Density": "1.1403 g/cm\u00b3 @ Temp: 20 \u00b0C"}}