{"cas_no": "7417-99-4", "cn_name": "N,N'-(\u4e9a\u7532\u57fa\u53cc-P-\u82ef\u57fa)\u53cc(\u6c2e\u4e19\u5576-1-\u7532\u9170\u80fa)", "en_name": ["4,4\u2032-Bis(ethyleneiminocarbonylamino)diphenylmethane", "1-Aziridinecarboxamide, N,N\u2032-(methylenedi-4,1-phenylene)bis-", "1-Aziridinecarboxanilide, 4\u2032,4\u2032\u2032\u2032-methylenebis-", "N,N\u2032-(Methylenedi-4,1-phenylene)bis[1-aziridinecarboxamide]", "Diphenylmethane-4,4\u2032-bis(ethyleneurea)", "p,p\u2032-Bis(ethyleneureido)diphenylmethane", "4,4\u2032-Bis(3,3-ethyleneureido)diphenylmethane", "Diphenylmethane-4,4\u2032-bis(N,N-ethyleneurea)", "4,4\u2032-Bis(N\u2032,N\u2032-ethyleneureido)diphenylmethane", "N,N\u2032-(Methylenedi-4,1-phenylene)bis(1-aziridinecarboxamide)", "4,4\u2032-Diphenylmethanebis(ethyleneurea)", "Diphenylmethane 4,4\u2032-diethyleneurea", "FS 50", "4,4\u2032-Bis(ethyleneiminocarbonylamino)diphenylmethane", "Chemitite DZ 22", "Millionate MEW", "Chemitite DZ 22E", "Chemitite DZ 22N", "DZ 22", "Millionate MEW-A", "FS 50 (crosslinking agent)", "Diphenylmethane-4,4\u2032-bis(N,N-diethyleneurea)", "NSC 26234", "SU 125F", "XC 205", "4,4\u2032-Methylene bis(phenyl-N,N-ethyleneurea)", "DZ 22E", "N,N\u2032-(Methylene di-p-phenylene)bis(aziridine-1-carboxamide)", "HDU-P 25"], "SMILES": "C(NC1=CC=C(CC2=CC=C(NC(=O)N3CC3)C=C2)C=C1)(=O)N4CC4", "physical_data": {"Molecular Weight": "336.39", "Molecular Formula": "C19H20N4O2", "Melting Point": "168-169 \u00b0C"}}