{"cas_no": "7417-18-7", "cn_name": "1-(2-\u7532\u6c27\u57fa\u82ef\u57fa)\u4e59\u9187", "en_name": ["2-(2-Methoxyphenyl)ethanol", "Benzeneethanol, 2-methoxy-", "Phenethyl alcohol, o-methoxy-", "2-Methoxybenzeneethanol", "2-Methoxyphenethyl alcohol", "2-(2-Methoxyphenyl)ethanol", "2-(o-Methoxyphenyl)ethanol", "2-(2-Methoxyphenyl)-1-ethanol", "NSC 101847", "2-(2-Methoxyphenyl)ethyl alcohol"], "SMILES": "C(CO)C1=C(OC)C=CC=C1", "physical_data": {"Molecular Weight": "152.19", "Molecular Formula": "C9H12O2", "Boiling Point": "130-131 \u00b0C @ Press: 11 Torr", "Density": "1.0939 g/cm\u00b3 @ Temp: 25 \u00b0C"}}