{"cas_no": "741709-62-6", "cn_name": "2-\u6c30\u57fa\u5421\u5576-4-\u787c\u9178\u9891\u54ea\u9187\u916f", "en_name": ["4-(4,4,5,5-Tetramethyl-1,3,2-dioxaborolan-2-yl)picolinonitrile", "2-Pyridinecarbonitrile, 4-(4,4,5,5-tetramethyl-1,3,2-dioxaborolan-2-yl)-", "4-(4,4,5,5-Tetramethyl-1,3,2-dioxaborolan-2-yl)-2-pyridinecarbonitrile", "2-(2-Cyanopyridin-4-yl)-4,4,5,5-tetramethyl-1,3,2-dioxaborolane", "4-(4,4,5,5-Tetramethyl-1,3,2-dioxaborolan-2-yl)picolinonitrile", "4-(Tetramethyl-1,3,2-dioxaborolan-2-yl)pyridine-2-carbonitrile", "2-Cyanopyridine-4-boronic acid pinacol ester"], "SMILES": "CC1(C)OB(OC1(C)C)C=2C=C(C#N)N=CC2", "physical_data": {"Molecular Weight": "230.07", "Molecular Formula": "C12H15BN2O2", "Melting Point": "60-61 \u00b0C"}}