{"cas_no": "7418-66-8", "cn_name": "4-\u6c28\u57fa-3-\u5421\u5576\u7532\u80fa", "en_name": ["4-Amino-3-pyridinecarboxamide", "3-Pyridinecarboxamide, 4-amino-", "Nicotinamide, 4-amino-", "4-Amino-3-pyridinecarboxamide", "4-Aminonicotinamide"], "SMILES": "C(N)(=O)C=1C(N)=CC=NC1", "physical_data": {"Molecular Weight": "137.14", "Molecular Formula": "C6H7N3O", "Melting Point": "229.5-230.5 \u00b0C"}}