{"cas_no": "7418-20-4", "cn_name": "2,2,5,5-\u56db\u7532\u57fa-2,5-\u4e8c\u7845\u57fa-1-\u6742\u6c27\u73af\u620a\u70f7", "en_name": ["2,2,5,5-Tetramethyl-1-oxa-2,5-disilacyclopentane", "1-Oxa-2,5-disilacyclopentane, 2,2,5,5-tetramethyl-", "2,2,5,5-Tetramethyl-1-oxa-2,5-disilacyclopentane", "1,1,3,3-Tetramethyl-2-oxa-1,3-disilacyclopentane", "2,2,5,5-Tetramethyl-2,5-disila-1-oxacyclopentane", "2,2,5,5-Tetramethyl-tetrahydro-2,5-disilafura", "2,2,5,5-Tetramethyl-1,2,5-oxadisilolane"], "SMILES": "C[Si]1(C)O[Si](C)(C)CC1", "physical_data": {"Molecular Weight": "160.36", "Molecular Formula": "C6H16OSi2", "Boiling Point": "124 \u00b0C", "Density": "0.855 g/cm\u00b3"}}