{"cas_no": "7418-65-7", "cn_name": "4-\u6c28\u57fa\u5421\u5576-3-\u7fa7\u9178", "en_name": ["4-Aminonicotinic acid", "3-Pyridinecarboxylic acid, 4-amino-", "Nicotinic acid, 4-amino-", "4-Amino-3-pyridinecarboxylic acid", "4-Aminonicotinic acid", "4-Aminopyridine-3-carboxylic acid", "NSC 266130"], "SMILES": "C(O)(=O)C=1C(N)=CC=NC1", "physical_data": {"Molecular Weight": "138.12", "Molecular Formula": "C6H6N2O2", "Melting Point": "328 \u00b0C (decomp)"}}