{"cas_no": "7418-19-1", "cn_name": "2,2,5,5-\u56db\u7532\u57fa-2,5-\u4e8c\u7845\u57fa-1-\u6742\u6c2e\u73af\u620a\u70f7", "en_name": ["2,2,5,5-Tetramethyl-1-aza-2,5-disilacyclopentane", "1-Aza-2,5-disilacyclopentane, 2,2,5,5-tetramethyl-", "2,2,5,5-Tetramethyl-1-aza-2,5-disilacyclopentane", "2,2,5,5-Tetramethyl-2,5-disilapyrrolidine", "1,1,3,3-Tetramethyl-1,3-disila-2-azacyclopentane", "2,2,5,5-Tetramethyl-2,5,1-disilazole", "2,2,5,5-Tetramethyl-2,5-disila-1-azacyclopentane", "2,2,5,5-Tetramethyl-1,2,5-azadisilolidine"], "SMILES": "C[Si]1(C)N[Si](C)(C)CC1", "physical_data": {"Molecular Weight": "159.38", "Molecular Formula": "C6H17NSi2", "Boiling Point": "92 \u00b0C @ Press: 185 Torr", "Density": "0.842 g/cm\u00b3"}}