{"cas_no": "7418-16-8", "cn_name": "2,2-\u4e8c(4-\u73af\u5df1\u916e\u57fa)\u4e19\u70f7", "en_name": ["4,4\u2032-(1-Methylethylidene)bis[cyclohexanone]", "Cyclohexanone, 4,4\u2032-(1-methylethylidene)bis-", "Cyclohexanone, 4,4\u2032-isopropylidenedi-", "4,4\u2032-(1-Methylethylidene)bis[cyclohexanone]", "2,2-Bis(4-oxocyclohexyl)propane", "4,4\u2032-Isopropylidenedicyclohexanone", "NSC 36631"], "SMILES": "C(C)(C)(C1CCC(=O)CC1)C2CCC(=O)CC2", "physical_data": {"Molecular Weight": "236.35", "Molecular Formula": "C15H24O2", "Melting Point": "162.5-163 \u00b0C"}}