{"cas_no": "74199-16-9", "cn_name": "CIS-\u5341\u6c22-1H,6H-3A,5A,8A,10A-\u56db\u6c2e\u6742\u8298", "en_name": ["cis-Decahydro-1H,6H-3a,5a,8a,10a-tetraazapyrene", "1H,6H-3a,5a,8a,10a-Tetraazapyrene, decahydro-, cis-", "cis-Decahydro-1H,6H-3a,5a,8a,10a-tetraazapyrene"], "SMILES": "C12C3N4CCN1CCCN2CCN3CCC4", "physical_data": {"Molecular Weight": "222.33", "Molecular Formula": "C12H22N4", "Melting Point": "82-84 \u00b0C"}}