{"cas_no": "74191-85-8", "cn_name": "\u591a\u6c99\u5511\u55ea", "en_name": ["Doxazosin", "Methanone, [4-(4-amino-6,7-dimethoxy-2-quinazolinyl)-1-piperazinyl](2,3-dihydro-1,4-benzodioxin-2-yl)-", "Piperazine, 1-(4-amino-6,7-dimethoxy-2-quinazolinyl)-4-[(2,3-dihydro-1,4-benzodioxin-2-yl)carbonyl]-", "1,4-Benzodioxin, piperazine deriv.", "[4-(4-Amino-6,7-dimethoxy-2-quinazolinyl)-1-piperazinyl](2,3-dihydro-1,4-benzodioxin-2-yl)methanone", "UK 33274", "Doxazosin", "(\u00b1)-Doxazosin", "Doxazosine", "Doxuran", "1-(4-Amino-6,7-dimethoxy-2-quinazolinyl)-4-[(2,3-dihydro-1,4-benzodioxin-2-yl)carbonyl]piperazine", "[4-(4-Amino-6,7-dimethoxyquinazolin-2-yl)piperazin-1-yl]-(2,3-dihydro-1,4-benzodioxin-3-yl)methanone", "2-[4-(2,3-Dihydro-1,4-benzodioxine-2-carbonyl)piperazin-1-yl]-6,7-dimethoxyquinazolin-4-amine", "MeSH ID: D017292"], "SMILES": "NC=1C2=C(N=C(N1)N3CCN(C(=O)C4OC=5C(OC4)=CC=CC5)CC3)C=C(OC)C(OC)=C2", "physical_data": {"Molecular Weight": "451.48", "Molecular Formula": "C23H25N5O5", "Melting Point": "249-251 \u00b0C"}}