{"cas_no": "742-20-1", "cn_name": "\u73af\u620a\u567b\u55ea", "en_name": ["Cyclopenthiazide", "2H-1,2,4-Benzothiadiazine-7-sulfonamide, 6-chloro-3-(cyclopentylmethyl)-3,4-dihydro-, 1,1-dioxide", "Su 8341", "6-Chloro-3-(cyclopentylmethyl)-3,4-dihydro-2H-1,2,4-benzothiadiazine-7-sulfonamide 1,1-dioxide", "6-Chloro-3-(cyclopentylmethyl)-3,4-dihydro-7-sulfamyl-2H-1,2,4-benzothiadiazine 1,1-dioxide", "Cyclopenthiazide", "Navidrex", "Salimed", "Cyclomethiazide", "6-Chloro-3-cyclopentylmethyl-7-sulfamoyl-3,4-dihydro-1,2,4-benzothiadiazine 1,1-dioxide", "Cyclometiazid", "Cyclopentiazid", "Navidreks", "Benesal", "Ciba 8341-Su", "Salurilo-C", "Ultra-Minzil", "Navidrix", "Salimid", "Tsiklometiazid", "NSC 107679"], "SMILES": "O=S1(=O)C=2C(NC(CC3CCCC3)N1)=CC(Cl)=C(S(N)(=O)=O)C2", "physical_data": {"Molecular Weight": "379.88", "Molecular Formula": "C13H18ClN3O4S2", "Melting Point": "238 \u00b0C"}}