{"cas_no": "74209-25-9", "cn_name": "3-\u6eb4-1-\u7532\u57fa-5-\u785d\u57fa-1H-\u54aa\u5511", "en_name": ["3-Bromo-1-methyl-5-nitro-1H-indazole", "1H-Indazole, 3-bromo-1-methyl-5-nitro-", "3-Bromo-1-methyl-5-nitro-1H-indazole", "3-Bromo-1-methyl-5-nitroindazole"], "SMILES": "BrC=1C=2C(N(C)N1)=CC=C(N(=O)=O)C2", "physical_data": {"Molecular Weight": "256.06", "Molecular Formula": "C8H6BrN3O2", "Melting Point": "225 \u00b0C"}}