{"cas_no": "74214-62-3", "cn_name": "\u0392-\u5494\u5549-3-\u7fa7\u9178\u4e59\u916f", "en_name": ["Ethyl \u03b2-carboline-3-carboxylate", "9H-Pyrido[3,4-b]indole-3-carboxylic acid, ethyl ester", "\u03b2-Carboline-3-carboxylic acid ethyl ester", "Ro 15-2538", "Norharman-3-carboxylic acid ethyl ester", "\u03b2-CCE", "Ethyl \u03b2-carboline-3-carboxylate", "3-Carboxy-\u03b2-carboline ethyl ester", "3-(Ethoxycarbonyl)-\u03b2-carboline", "NSC 610937", "Ethyl 9H-\u03b2-carboline-3-carboxylate", "3-Carboethoxy-9H-pyrido[3,4-b]indole", "Ethyl 9H-pyrido[3,4-b]indole-3-carboxylate"], "SMILES": "C(OCC)(=O)C=1C=C2C=3C(NC2=CN1)=CC=CC3", "physical_data": {"Molecular Weight": "240.26", "Molecular Formula": "C14H12N2O2", "Melting Point": "225-227 \u00b0C"}}