{"cas_no": "74227-35-3", "cn_name": "\u53cc(4-(\u4e8c\u82ef\u57fa\u950d)\u82ef\u57fa)\u786b\u919a-\u53cc\u516d\u6c1f\u78f7\u9178\u76d0", "en_name": ["Bis[4-(diphenylsulfonio)phenyl] sulfide bis(hexafluorophosphate)", "Sulfonium, S,S\u2032-(thiodi-4,1-phenylene)bis[S,S-diphenyl-, hexafluorophosphate(1-) (1:2)", "Sulfonium, (thiodi-4,1-phenylene)bis[diphenyl-, bis[hexafluorophosphate(1-)]", "Phosphate(1-), hexafluoro-, (thiodi-4,1-phenylene)bis[diphenylsulfonium] (2:1)", "Bis[4-(diphenylsulfonio)phenyl] sulfide bis(hexafluorophosphate)", "KI 85", "Degacure KI 85", "Adeka Optomer SP 55", "SP 55", "Bis[4-(diphenylsulfonium)phenyl] sulfide bis(hexafluorophosphate)", "Degacure KI 85B", "Thiobis(4,1-phenylene)-S,S,S\u2032,S\u2032-(tetraphenyldisulfonium) bis(hexafluorophosphate)"], "SMILES": "[P+5]([F-])([F-])([F-])([F-])([F-])[F-].[S+](C1=CC=C(SC2=CC=C([S+](C3=CC=CC=C3)C4=CC=CC=C4)C=C2)C=C1)(C5=CC=CC=C5)C6=CC=CC=C6", "physical_data": {"Molecular Weight": "", "Molecular Formula": "C36H28S3.2F6P", "Melting Point": "230-240 \u00b0C"}}