{"cas_no": "74222-97-2", "cn_name": "\u7532\u5627\u78fa\u9686", "en_name": ["Sulfometuron-methyl", "Benzoic acid, 2-[[[[(4,6-dimethyl-2-pyrimidinyl)amino]carbonyl]amino]sulfonyl]-, methyl ester", "DPX 5648", "Oust", "Sulfometuron-methyl", "Sulfomethuron-methyl", "SMM", "Curavial", "Oust XP"], "SMILES": "S(NC(NC=1N=C(C)C=C(C)N1)=O)(=O)(=O)C2=C(C(OC)=O)C=CC=C2", "physical_data": {"Molecular Weight": "364.38", "Molecular Formula": "C15H16N4O5S", "Melting Point": "204 \u00b0C"}}