{"cas_no": "7422-52-8", "cn_name": "1,1,1,3,5,5,5-\u4e03\u7532\u57fa-3-(3-\u7f29\u6c34\u7518\u6cb9\u919a\u6c27\u57fa\u4e19\u57fa)\u4e09\u7845\u6c27\u70f7", "en_name": ["1,1,1,3,5,5,5-Heptamethyl-3-[3-(2-oxiranylmethoxy)propyl]trisiloxane", "Trisiloxane, 1,1,1,3,5,5,5-heptamethyl-3-[3-(2-oxiranylmethoxy)propyl]-", "Trisiloxane, 3-[3-(2,3-epoxypropoxy)propyl]-1,1,1,3,5,5,5-heptamethyl-", "Trisiloxane, 1,1,1,3,5,5,5-heptamethyl-3-[3-(oxiranylmethoxy)propyl]-", "1,1,1,3,5,5,5-Heptamethyl-3-[3-(2-oxiranylmethoxy)propyl]trisiloxane", "(3-Glycidyloxypropyl)bis(trimethylsiloxy)methylsilane", "(3-Glycidoxypropyl)bis(trimethylsiloxy)methylsilane", "(3-Glycidoxypropyl)methylbis(trimethylsiloxy)silane", "1,1,1,3,5,5,5-Heptamethyl-3-[3-(glycidyloxy)propyl]trisiloxane", "3-[3-(Glycidyloxy)propyl]-1,1,1,3,5,5,5-heptamethyltrisiloxane", "3-[3-(Glycidyloxy)propyl]heptamethyltrisiloxane", "3-(Glycidyloxypropyl)-1,1,1,3,5,5,5-heptamethyltrisiloxane"], "SMILES": "[Si](O[Si](C)(C)C)(O[Si](C)(C)C)(CCCOCC1CO1)C", "physical_data": {"Molecular Weight": "336.65", "Molecular Formula": "C13H32O4Si3", "Boiling Point": "96 \u00b0C @ Press: 0.5 Torr", "Density": "0.91 g/cm\u00b3"}}