{"cas_no": "74223-64-6", "cn_name": "\u7532\u78fa\u9686", "en_name": ["Metsulfuron-methyl", "Benzoic acid, 2-[[[[(4-methoxy-6-methyl-1,3,5-triazin-2-yl)amino]carbonyl]amino]sulfonyl]-, methyl ester", "DPD 63760H", "DPX 6376", "Metsulfuron-methyl", "DPX-T 6376", "Gropper", "Escort", "Ally 20DF", "Ally", "T 6376", "Brush-off", "N-[(2-Methoxycarbonyl)phenyl]sulfonyl-N\u2032-(6-methoxy-4-methyl-2-triazinyl)urea", "HCHA 92HA", "Escort (pesticide)", "Saber DF", "Strech 60VP", "Grench", "Laren", "Ally XP", "Algrip", "Cimarron", "MSM Turf", "Accurate 60VG", "Allie SX", "Zinger", "Zinger WP"], "SMILES": "S(NC(NC=1N=C(OC)N=C(C)N1)=O)(=O)(=O)C2=C(C(OC)=O)C=CC=C2", "physical_data": {"Molecular Weight": "381.36", "Molecular Formula": "C14H15N5O6S", "Melting Point": "163-166 \u00b0C"}}