{"cas_no": "74235-78-2", "cn_name": "MMB", "en_name": ["3-(Bromomethyl)-2,6,7-trimethyl-1H,5H-pyrazolo[1,2-a]pyrazole-1,5-dione", "1H,5H-Pyrazolo[1,2-a]pyrazole-1,5-dione, 3-(bromomethyl)-2,6,7-trimethyl-", "3-(Bromomethyl)-2,6,7-trimethyl-1H,5H-pyrazolo[1,2-a]pyrazole-1,5-dione"], "SMILES": "C(Br)C=1N2N(C(=O)C1C)C(C)=C(C)C2=O", "physical_data": {"Molecular Weight": "271.11", "Molecular Formula": "C10H11BrN2O2", "Melting Point": "110 \u00b0C"}}