{"cas_no": "7423-96-3", "cn_name": "3-\u6c1f-L-\u916a\u6c28\u9178", "en_name": ["3-Fluoro-L-tyrosine", "L-Tyrosine, 3-fluoro-", "Tyrosine, 3-fluoro-, L-", "3-Fluoro-L-tyrosine", "L-m-Fluorotyrosine", "(S)-2-Amino-3-(3-fluoro-4-hydroxyphenyl)propanoic acid", "(2S)-2-Azaniumyl-3-(3-fluoro-4-hydroxyphenyl)propanoate", "(2S)-2-Amino-3-(3-fluoro-4-hydroxyphenyl)propanoic acid"], "SMILES": "C(C(C(O)=O)N)C1=CC(F)=C(O)C=C1", "physical_data": {"Molecular Weight": "199.18", "Molecular Formula": "C9H10FNO3", "Melting Point": "278-279 \u00b0C (decomp)"}}