{"cas_no": "7423-42-9", "cn_name": "(Z)-\u9a6c\u6765\u9178\u5355(2-\u4e59\u57fa\u5df1\u57fa)\u916f", "en_name": ["2-Ethylhexyl maleate", "2-Butenedioic acid (2Z)-, 1-(2-ethylhexyl) ester", "Maleic acid, 2-ethylhexyl ester", "2-Butenedioic acid (Z)-, mono(2-ethylhexyl) ester", "2-Butenedioic acid (2Z)-, mono(2-ethylhexyl) ester", "Mono(2-ethylhexyl) maleate", "2-Ethylhexyl maleate", "2-Ethylhexyl hydrogen maleate", "Monooctyl maleate"], "SMILES": "C(COC(C=CC(O)=O)=O)(CCCC)CC", "physical_data": {"Molecular Weight": "228.28", "Molecular Formula": "C12H20O4", "Boiling Point": "156 \u00b0C @ Press: 0.7 Torr", "Density": "0.9437 g/cm\u00b3 @ Temp: 20 \u00b0C"}}