{"cas_no": "7423-92-9", "cn_name": "DL-\u0392-\u82ef\u4e1d\u6c28\u9178", "en_name": ["(-)-o-Tyrosine", "L-Phenylalanine, 2-hydroxy-", "o-Tyrosine, L-", "2-Hydroxy-L-phenylalanine", "L-o-Tyrosine", "L-3-(2-Hydroxyphenyl)alanine", "L-o-Hydroxyphenylalanine", "o-L-Tyrosine", "(-)-o-Tyrosine", "L-2-Hydroxyphenylalanine", "(S)-2-Amino-3-(2-hydroxyphenyl)propanoicacid"], "SMILES": "C(C(C(O)=O)N)C1=C(O)C=CC=C1", "physical_data": {"Molecular Weight": "181.19", "Molecular Formula": "C9H11NO3", "Melting Point": "249-250 \u00b0C"}}