{"cas_no": "7423-55-4", "cn_name": "3-\u9a6c\u6765\u9170\u4e9a\u80fa\u57fa\u4e19\u9178", "en_name": ["3-Maleimidopropionic acid", "1H-Pyrrole-1-propanoic acid, 2,5-dihydro-2,5-dioxo-", "3-Pyrroline-1-propionic acid, 2,5-dioxo-", "2,5-Dihydro-2,5-dioxo-1H-pyrrole-1-propanoic acid", "N-(2-Carboxyethyl)maleimide", "3-Maleimidopropionic acid", "\u03b2-Maleimidopropionic acid", "N-Maleoyl-\u03b2-alanine", "3-(Maleimido)propanoic acid", "3-(2,5-Dioxo-2,5-dihydro-pyrrol-1-yl)-propionic acid", "BMPA", "BMPA (imide)", "3-(2,5-Dioxo-2H-pyrrol-1(5H)-yl)propanoic acid", "2,5-Dioxopyrrole-1-propanoic acid"], "SMILES": "C(CC(O)=O)N1C(=O)C=CC1=O", "physical_data": {"Molecular Weight": "169.13", "Molecular Formula": "C7H7NO4", "Melting Point": "103-106 \u00b0C"}}