{"cas_no": "7423-31-6", "cn_name": "\u7740\u8272\u5242-ALL", "en_name": ["Stains-all", "Naphtho[1,2-d]thiazolium, 1-ethyl-2-[3-(1-ethylnaphtho[1,2-d]thiazol-2(1H)-ylidene)-2-methyl-1-propen-1-yl]-, bromide (1:1)", "Naphtho[1,2-d]thiazolium, 1-ethyl-2-[3-(1-ethylnaphtho[1,2-d]thiazolin-2-ylidene)-2-methylpropenyl]-, bromide", "Naphtho[1,2-d]thiazolium, 1-ethyl-2-[3-(1-ethylnaphtho[1,2-d]thiazol-2(1H)-ylidene)-2-methyl-1-propenyl]-, bromide", "1-Ethyl-2-[3-(1-ethylnaphtho[1,2-d]thiazolin-2-ylidene)-2-methylpropenyl]naphtho[1,2-d]thiazolium bromide", "4,5,4\u2032,5\u2032-Dibenzothiacarbocyanine bromide, 3,3\u2032-diethyl-9-methyl-", "3,3\u2032-Diethyl-9-methyl-4,5,4\u2032,5\u2032-dibenzothiacarbocyanine bromide", "Stains-all", "Carbocyanin DBTC", "DBTC", "4,5,4\u2032,5\u2032-Dibenzo-3,3\u2032-diethyl-9-methylthiacarbocyanine bromide", "3,3\u2032-Diethyl-9-methyl-4,5,4\u2032,5\u2032-naphthothiacarbocyanine bromide", "1-Ethyl-2-(3-(1-ethylnaphtho[1,2-d]thiazol-2(1H)-ylidene)-2-methylprop-1-en-1-yl)naphtho[1,2-d]thiazol-1-ium bromide"], "SMILES": "C(C)N1C=2C=3C(C=CC2SC1=CC(=CC4=[N+](CC)C5=C(S4)C=CC=6C5=CC=CC6)C)=CC=CC3.[Br-]", "physical_data": {"Molecular Weight": "", "Molecular Formula": "C30H27N2S2.Br", "Melting Point": "236-238 \u00b0C"}}