{"cas_no": "7424-91-1", "cn_name": "3\uff0c3-\u4e8c\u7532\u6c27\u57fa\u4e19\u9178\u7532\u916f", "en_name": ["Methyl 3,3-dimethoxypropionate", "Propanoic acid, 3,3-dimethoxy-, methyl ester", "Malonaldehydic acid, methyl ester dimethyl acetal", "Propionic acid, 3,3-dimethoxy-, methyl ester", "Methyl 3,3-dimethoxypropionate", "Methyl \u03b2,\u03b2-dimethoxypropionate", "Methyl formylacetate dimethyl acetal", "Methyl 3,3-dimethoxypropanoate", "3,3-Dimethoxypropionic acid methyl ester", "NSC 92715", "Methyl 3,3-bis(methoxy)propanoate"], "SMILES": "C(CC(OC)=O)(OC)OC", "physical_data": {"Molecular Weight": "148.16", "Molecular Formula": "C6H12O4", "Boiling Point": "77 \u00b0C @ Press: 20 Torr", "Density": "1.0445 g/cm\u00b3 @ Temp: 20 \u00b0C"}}