{"cas_no": "7424-00-2", "cn_name": "DL-4-\u6c2f\u82ef\u4e19\u6c28\u9178", "en_name": ["4-Chloro-DL-phenylalanine", "Phenylalanine, 4-chloro-", "Alanine, 3-(p-chlorophenyl)-, DL-", "DL-Phenylalanine, 4-chloro-", "4-Chlorophenylalanine", "CP 10188", "Fenclonine", "DL-p-Chlorophenylalanine", "Fenchlonine", "DL-4-Chlorophenylalanine", "p-Chloro-DL-phenylalanine", "(\u00b1)-p-Chlorophenylalanine", "4-Chloro-DL-phenylalanine", "DL-3-(p-Chlorophenyl)alanine", "Fenclonin", "3-(p-Chlorophenyl)alanine", "p-Chlorophenylalanine", "NSC 77370", "2-Amino-3-(4-chlorophenyl)propanoic acid", "2-Amino-3-(4-chloro-phenyl)-propionic acid"], "SMILES": "C(C(C(O)=O)N)C1=CC=C(Cl)C=C1", "physical_data": {"Molecular Weight": "199.63", "Molecular Formula": "C9H10ClNO2", "Melting Point": "243-244 \u00b0C"}}