{"cas_no": "7424-54-6", "cn_name": "3,5-\u5e9a\u70f7\u4e8c\u916e", "en_name": ["3,5-Heptanedione", "3,5-Heptanedione", "Dipropionylmethane"], "SMILES": "C(C(CC)=O)C(CC)=O", "physical_data": {"Molecular Weight": "128.17", "Molecular Formula": "C7H12O2", "Boiling Point": "172-173 \u00b0C @ Press: 711 Torr", "Density": "0.9445 g/cm\u00b3 @ Temp: 20 \u00b0C"}}