{"cas_no": "7425-49-2", "cn_name": "3-\u6eb4\u4e01\u9178\u4e59\u916f", "en_name": ["Butanoic acid, 3-bromo-, ethyl ester", "Butanoic acid, 3-bromo-, ethyl ester", "Butyric acid, 3-bromo-, ethyl ester", "\u03b2-Bromobutyric acid ethyl ester", "Ethyl 3-bromobutyrate", "Ethyl 3-bromobutanoate", "NSC 8856"], "SMILES": "C(C(OCC)=O)C(Br)C", "physical_data": {"Molecular Weight": "195.05", "Molecular Formula": "C6H11BrO2", "Boiling Point": "41-42 \u00b0C @ Press: 2 Torr", "Density": "1.3103 g/cm\u00b3 @ Temp: 25 \u00b0C"}}