{"cas_no": "74258-86-9", "cn_name": "\u963f\u62c9\u666e\u5229", "en_name": ["Alacepril", "L-Phenylalanine, 1-[(2S)-3-(acetylthio)-2-methyl-1-oxopropyl]-L-prolyl-", "L-Phenylalanine, N-[1-[3-(acetylthio)-2-methyl-1-oxopropyl]-L-prolyl]-, (S)-", "1-[(2S)-3-(Acetylthio)-2-methyl-1-oxopropyl]-L-prolyl-L-phenylalanine", "DU 1219", "Alacepril", "Cetapril"], "SMILES": "C(C(CSC(C)=O)C)(=O)N1C(C(NC(CC2=CC=CC=C2)C(O)=O)=O)CCC1", "physical_data": {"Molecular Weight": "406.50", "Molecular Formula": "C20H26N2O5S", "Melting Point": "155-156 \u00b0C"}}