{"cas_no": "7425-80-1", "cn_name": "\u539f\u949b\u9178\u56db\u5f02\u4e01\u916f", "en_name": ["1-Propanol, 2-methyl-, titanium(4+) salt (4:1)", "1-Propanol, 2-methyl-, titanium(4+) salt (4:1)", "Isobutyl alcohol, titanium(4+) salt", "1-Propanol, 2-methyl-, titanium(4+) salt", "Isobutyl titanate(IV)", "Tetraisobutyl titanate", "Isobutyl titanate", "Tetrakis(isobutoxy)titanium", "Titanium tetraisobutoxide", "Titanic acid isobutyl ester", "Titanium tetraisobutylate", "Titanium isobutoxide", "2-Methyl-1-propanol titanium(4+) salt", "Tetraisobutyl orthotitanate", "Titanium(IV) isobutoxide"], "SMILES": "C(CO)(C)C.[Ti]", "physical_data": {"Molecular Weight": "", "Molecular Formula": "C4H10O.<sup>1</sup>/4Ti", "Boiling Point": "141 \u00b0C @ Press: 1 Torr", "Melting Point": "30-31 \u00b0C", "Density": "1.020 g/cm\u00b3"}}