{"cas_no": "74266-68-5", "cn_name": "3-\u6c1f-2-\u7532\u6c27\u57fa\u82ef\u7532\u919b", "en_name": ["3-Fluoro-2-methoxybenzaldehyde", "Benzaldehyde, 3-fluoro-2-methoxy-", "3-Fluoro-2-methoxybenzaldehyde"], "SMILES": "C(=O)C1=C(OC)C(F)=CC=C1", "physical_data": {"Molecular Weight": "154.14", "Molecular Formula": "C8H7FO2", "Boiling Point": "82 \u00b0C @ Press: 12 Torr", "Melting Point": "47-48 \u00b0C"}}