{"cas_no": "7426-75-7", "cn_name": "\u53cc\u6076\u5511\u5549\u57fa\u82ef", "en_name": ["2,2\u2032-(1,4-Phenylene)bis(2-oxazoline)", "Oxazole, 2,2\u2032-(1,4-phenylene)bis[4,5-dihydro-", "2-Oxazoline, 2,2\u2032-p-phenylenebis-", "2,2\u2032-(1,4-Phenylene)bis[4,5-dihydrooxazole]", "1,4-Bis(2-oxazolin-2-yl)benzene", "2,2\u2032-p-Phenylenebis(2-oxazoline)", "2,2\u2032-(1,4-Phenylene)bis(2-oxazoline)", "BOX 220", "1,4-PBO", "1,4-Bis(4,5-dihydro-2-oxazolyl)benzene", "1,4-Phenylenebisoxazoline", "Allinco TMPBO", "2-[4-(4,5-Dihydro-1,3-oxazol-2-yl)phenyl]-4,5-dihydro-1,3-oxazole"], "SMILES": "C1(=CC=C(C=C1)C2=NCCO2)C3=NCCO3", "physical_data": {"Molecular Weight": "216.24", "Molecular Formula": "C12H12N2O2", "Melting Point": "238-240 \u00b0C"}}