{"cas_no": "7428-99-1", "cn_name": "2-(4-\u7532\u6c27\u57fa\u82ef\u57fa)\u4e19-2-\u9187", "en_name": ["4-Methoxy-\u03b1,\u03b1-dimethylbenzenemethanol", "Benzenemethanol, 4-methoxy-\u03b1,\u03b1-dimethyl-", "Benzyl alcohol, p-methoxy-\u03b1,\u03b1-dimethyl-", "p-Anisyl alcohol, \u03b1,\u03b1-dimethyl-", "4-Methoxy-\u03b1,\u03b1-dimethylbenzenemethanol", "Dimethyl(p-methoxyphenyl)carbinol", "(p-Methoxyphenyl)dimethylcarbinol", "2-(4-Methoxyphenyl)propan-2-ol", "2-p-Anisyl-2-propanol", "4-Methoxycumyl alcohol"], "SMILES": "C(C)(C)(O)C1=CC=C(OC)C=C1", "physical_data": {"Molecular Weight": "166.22", "Molecular Formula": "C10H14O2", "Boiling Point": "130 \u00b0C @ Press: 14 Torr"}}