{"cas_no": "7429-91-6", "cn_name": "\u955d", "en_name": ["Dysprosium", "Dysprosium", "MeSH ID: D004419"], "SMILES": "[Dy]", "physical_data": {"Molecular Weight": "", "Molecular Formula": "Dy", "Melting Point": "1412 \u00b0C (polymorph)", "Density": "8.54 g/cm\u00b3"}}