{"cas_no": "7429-44-9", "cn_name": "2-\u7532\u6c27\u57fa\u73af\u5df1\u916e", "en_name": ["2-Methoxycyclohexanone", "Cyclohexanone, 2-methoxy-", "2-Methoxycyclohexanone", "\u03b1-Methoxycyclohexanone", "2-Methoxy-1-cyclohexanone", "(\u00b1)-2-Methoxycyclohexanone"], "SMILES": "O(C)C1C(=O)CCCC1", "physical_data": {"Molecular Weight": "128.17", "Molecular Formula": "C7H12O2", "Boiling Point": "185 \u00b0C", "Melting Point": "163 \u00b0C", "Density": "1.013 g/cm\u00b3 @ Temp: 20 \u00b0C"}}