{"cas_no": "74291-57-9", "cn_name": "1,2,3,4-\u56db\u6c22-2-(\u4e09\u6c1f\u4e59\u9170\u57fa)\u5f02\u55b9\u5549-7-\u78fa\u9170\u6c2f", "en_name": ["2-(Trifluoroacetyl)-1,2,3,4-tetrahydroisoquinoline-7-sulfonyl chloride", "7-Isoquinolinesulfonyl chloride, 1,2,3,4-tetrahydro-2-(2,2,2-trifluoroacetyl)-", "7-Isoquinolinesulfonyl chloride, 1,2,3,4-tetrahydro-2-(trifluoroacetyl)-", "1,2,3,4-Tetrahydro-2-(2,2,2-trifluoroacetyl)-7-isoquinolinesulfonyl chloride", "N-Trifluoroacetyl-1,2,3,4-tetrahydroisoquinoline-7-sulfonyl chloride", "1,2,3,4-Tetrahydro-2-(trifluoroacetyl)isoquinoline-7-sulfonyl chloride", "2-(2,2,2-Trifluoroacetyl)-1,2,3,4-tetrahydroisoquinoline-7-sulfonyl chloride", "2-(Trifluoroacetyl)-1,2,3,4-tetrahydroisoquinoline-7-sulfonyl chloride", "2-Trifluoroacetyl-1,2,3,4-tetrahydro-7-quinolinesulfonyl chloride", "2-(2,2,2-Trifluoroacetyl)-3,4-dihydro-1H-isoquinoline-7-sulfonyl chloride"], "SMILES": "C(C(F)(F)F)(=O)N1CC=2C(=CC=C(S(Cl)(=O)=O)C2)CC1", "physical_data": {"Molecular Weight": "327.71", "Molecular Formula": "C11H9ClF3NO3S", "Melting Point": "108-109 \u00b0C"}}