{"cas_no": "7429-37-0", "cn_name": "1.2-\u4e8c\u6eb4\u73af\u5df2\u70f7", "en_name": ["trans-1,2-Dibromocyclohexane", "Cyclohexane, 1,2-dibromo-, (1R,2R)-rel-", "Cyclohexane, 1,2-dibromo-, trans-", "rel-(1R,2R)-1,2-Dibromocyclohexane", "trans-1,2-Dibromocyclohexane", "(\u00b1)-trans-1,2-Dibromocyclohexane", "1,2-trans-Dibromocyclohexane", "NSC 92176"], "SMILES": "BrC1C(Br)CCCC1", "physical_data": {"Molecular Weight": "241.95", "Molecular Formula": "C6H10Br2", "Boiling Point": "101 \u00b0C @ Press: 14 Torr", "Melting Point": "-5 \u00b0C", "Density": "1.7701 g/cm\u00b3 @ Temp: 30 \u00b0C"}}