{"cas_no": "74290-68-9", "cn_name": "2-AMINO-6-BROMO-5-METHYLPYRAZINE", "en_name": ["6-Bromo-5-methyl-2-pyrazinamine", "2-Pyrazinamine, 6-bromo-5-methyl-", "Pyrazinamine, 6-bromo-5-methyl-", "6-Bromo-5-methyl-2-pyrazinamine", "2-Amino-6-bromo-5-methylpyrazine", "6-Bromo-5-methylpyrazin-2-amine"], "SMILES": "BrC=1C(C)=NC=C(N)N1", "physical_data": {"Molecular Weight": "188.03", "Molecular Formula": "C5H6BrN3", "Melting Point": "154-157 \u00b0C"}}