{"cas_no": "74290-66-7", "cn_name": "2-\u6c28\u57fa-3,5-\u4e8c\u6eb4-6-\u7532\u57fa\u5421\u55ea", "en_name": ["3,5-Dibromo-6-methyl-2-pyrazinamine", "2-Pyrazinamine, 3,5-dibromo-6-methyl-", "Pyrazinamine, 3,5-dibromo-6-methyl-", "3,5-Dibromo-6-methyl-2-pyrazinamine", "2-Amino-3,5-dibromo-6-methylpyrazine", "3,5-Dibromo-6-methylpyrazin-2-ylamine"], "SMILES": "BrC=1C(C)=NC(N)=C(Br)N1", "physical_data": {"Molecular Weight": "266.92", "Molecular Formula": "C5H5Br2N3", "Melting Point": "167-168 \u00b0C"}}