{"cas_no": "7431-83-6", "cn_name": "\u69f2\u76ae\u7d20-3-\u9f99\u80c6\u4e8c\u7cd6\u82f7", "en_name": ["Quercetin 3-O-gentiobioside", "4H-1-Benzopyran-4-one, 2-(3,4-dihydroxyphenyl)-3-[(6-O-\u03b2-D-glucopyranosyl-\u03b2-D-glucopyranosyl)oxy]-5,7-dihydroxy-", "Flavone, 3,3\u2032,4\u2032,5,7-pentahydroxy-, 3-(6-O-\u03b2-D-glucopyranosyl-\u03b2-D-glucopyranoside)", "2-(3,4-Dihydroxyphenyl)-3-[(6-O-\u03b2-D-glucopyranosyl-\u03b2-D-glucopyranosyl)oxy]-5,7-dihydroxy-4H-1-benzopyran-4-one", "3,3\u2032,4\u2032,5,7-Pentahydroxyflavone 3-gentiobioside", "Quercetin 3\u03b2-gentiobioside", "Quercetin 3-gentiobioside", "Q3", "Quercetin 3-O-\u03b2-gentiobioside", "Quercetin 3-O-gentiobioside", "Quercetin 3-O-[\u03b2-D-glucosyl-(1\u21926)-\u03b2-D-glucoside]", "Quercetin 3-O-(6\u2032\u2032-O-glucosyl)glucoside"], "SMILES": "O(C1=C(OC=2C(C1=O)=C(O)C=C(O)C2)C3=CC(O)=C(O)C=C3)C4OC(COC5OC(CO)C(O)C(O)C5O)C(O)C(O)C4O", "physical_data": {"Molecular Weight": "626.52", "Molecular Formula": "C27H30O17", "Melting Point": "205-207 \u00b0C"}}