{"cas_no": "7432-28-2", "cn_name": "\u4e94\u5473\u5b50\u9187\u7532", "en_name": ["Schisandrin", "Dibenzo[a,c]cycloocten-6-ol, 5,6,7,8-tetrahydro-1,2,3,10,11,12-hexamethoxy-6,7-dimethyl-, (6S,7S,12aR)-", "Schizandrin", "(6S,7S,12aR)-5,6,7,8-Tetrahydro-1,2,3,10,11,12-hexamethoxy-6,7-dimethyldibenzo[a,c]cycloocten-6-ol", "Schisandrin", "Schisandrine", "Schizandrine", "Wuweizichun A", "Wuweizi alcohol A", "(+)-Schizandrin", "Schizandrol", "Schisandrol A"], "SMILES": "O(C)C1=C2C=3C(=CC(OC)=C(OC)C3OC)CC(C)C(C)(O)CC2=CC(OC)=C1OC", "physical_data": {"Molecular Weight": "432.51", "Molecular Formula": "C24H32O7", "Melting Point": "128-129 \u00b0C"}}