{"cas_no": "7432-24-8", "cn_name": "H-GLU(PHE-OH)-OH", "en_name": ["\u03b3-L-Glutamyl-L-phenylalanine", "L-Phenylalanine, L-\u03b3-glutamyl-", "Glutamine, N-(\u03b1-carboxyphenethyl)-, L-", "L-Phenylalanine, N-L-\u03b3-glutamyl-", "Glutamine, N-(\u03b1-carboxyphenethyl)-", "L-\u03b3-Glutamyl-L-phenylalanine", "\u03b3-Glutamylphenylalanine", "\u03b3-Glutamyl-L-phenylalanine", "\u03b3-L-Glutamyl-L-phenylalanine", "8: PN: WO2011158590 PAGE: 34 claimed sequence", "\u03b3-Glu-Phe"], "SMILES": "C(C(NC(CCC(C(O)=O)N)=O)C(O)=O)C1=CC=CC=C1", "physical_data": {"Molecular Weight": "294.30", "Molecular Formula": "C14H18N2O5", "Melting Point": "194-197 \u00b0C"}}