{"cas_no": "7432-21-5", "cn_name": "N-\u82c4\u6c27\u7fb0\u57fa-L-\u8272\u6c28\u9178", "en_name": ["Benzyloxycarbonyl-L-tryptophan", "L-Tryptophan, N-[(phenylmethoxy)carbonyl]-", "Tryptophan, N-carboxy-, N-benzyl ester, L-", "N-[(Phenylmethoxy)carbonyl]-L-tryptophan", "Carbobenzoxy-L-tryptophan", "N-Carbobenzoxy-L-tryptophan", "N-Benzyloxycarbonyl-L-tryptophan", "Benzyloxycarbonyl-L-tryptophan", "N-(Benzyloxycarbonyl)tryptophan", "N\u03b1-Benzyloxycarbonyl-L-tryptophan", "L-(Carbobenzyloxy)tryptophan", "N-Cbz-L-Tryptophan", "N-Carbobenzyloxy-L-tryptophan", "NSC 521831", "(S)-2-(((Benzyloxy)carbonyl)amino)-3-(1H-indol-3-yl)propanoic acid", "N-Cbz-L-Trp-Oh", "(2S)-2-[[(Benzyloxy)carbonyl]amino]-3-(1H-indol-3-yl)propanoic acid", "(2S)-3-(1H-Indol-3-yl)-2-(phenylmethoxycarbonylamino)propanoic acid"], "SMILES": "C(C(NC(OCC1=CC=CC=C1)=O)C(O)=O)C=2C=3C(NC2)=CC=CC3", "physical_data": {"Molecular Weight": "338.36", "Molecular Formula": "C19H18N2O4", "Melting Point": "123-125 \u00b0C"}}