{"cas_no": "7432-23-7", "cn_name": "H-GLU(TYR-OH)-OH", "en_name": ["Glutamyltyrosine", "L-Tyrosine, L-\u03b3-glutamyl-", "Tyrosine, N-L-\u03b3-glutamyl-, L-", "L-Tyrosine, N-L-\u03b3-glutamyl-", "Tyrosine, N-L-\u03b3-glutamyl-", "L-\u03b3-Glutamyl-L-tyrosine", "Glutamyltyrosine", "\u03b3-L-Glutamyl-L-tyrosine", "\u03b3-Glutamyltyrosine", "\u03b3-Glutamyl-L-tyrosine", "\u03b3-Glu-Tyr"], "SMILES": "C(C(NC(CCC(C(O)=O)N)=O)C(O)=O)C1=CC=C(O)C=C1", "physical_data": {"Molecular Weight": "310.30", "Molecular Formula": "C14H18N2O6", "Melting Point": "219-221 \u00b0C"}}