{"cas_no": "7433-56-9", "cn_name": "\u53cd\u5f0f-5-\u7678\u70ef", "en_name": ["(5E)-5-Decene", "5-Decene, (5E)-", "5-Decene, (E)-", "(5E)-5-Decene", "trans-5-Decene", "(E)-5-Decene", "\u03b5-trans-Decene", "5-trans-Decene", "NSC 95430", "(E)-Dec-5-ene"], "SMILES": "C(=CCCCC)CCCC", "physical_data": {"Molecular Weight": "140.27", "Molecular Formula": "C10H20", "Boiling Point": "171 \u00b0C", "Melting Point": "-73 \u00b0C", "Density": "0.73626 g/cm\u00b3 @ Temp: 25 \u00b0C"}}