{"cas_no": "7433-78-5", "cn_name": "\u987a\u5f0f-5-\u7678\u70ef", "en_name": ["(5Z)-5-Decene", "5-Decene, (5Z)-", "5-Decene, (Z)-", "(5Z)-5-Decene", "cis-5-Decene", "(Z)-5-Decene", "\u03b5-cis-Decene", "5-cis-Decene", "(Z)-5-Decene"], "SMILES": "C(=CCCCC)CCCC", "physical_data": {"Molecular Weight": "140.27", "Molecular Formula": "C10H20", "Boiling Point": "171 \u00b0C", "Melting Point": "-112 \u00b0C", "Density": "0.74063 g/cm\u00b3 @ Temp: 25 \u00b0C"}}