{"cas_no": "74341-63-2", "cn_name": "(\u00b1)-\u0391-\u6c28\u57fa-3-\u7f9f\u57fa-5-\u7532\u57fa\u5f02\u6076\u5511-4-\u4e19\u9178", "en_name": ["\u03b1-Amino-3-hydroxy-5-methylisoxazole-4-propionic acid", "4-Isoxazolepropanoic acid, \u03b1-amino-2,3-dihydro-5-methyl-3-oxo-", "\u03b1-Amino-2,3-dihydro-5-methyl-3-oxo-4-isoxazolepropanoic acid", "AMPA", "\u03b1-Amino-3-hydroxy-5-methylisoxazole-4-propionic acid", "\u03b3-Amino-3-hydroxy-5-methylisoxazole-4-propionic acid", "\u03b1-Amino-2,3-dihydro-5-methyl-3-oxoisoxazole-4-propionic acid", "\u03b1-Amino-3-hydroxy-5-methyl-4-isoxazolepropionate", "(RS)-\u03b1-Amino-3-hydroxy-5-methyl-4-isoxazolepropionic acid", "(R,S)-\u03b1-Amino-3-hydroxy-5-methyl-4-isoxazolepropionic acid", "dl-\u03b1-Amino-3-hydroxy-5-methylisoxazole-4-propionic acid", "(\u00b1)-\u03b1-Amino-3-hydroxy-5-methyl-4-isoxazolepropionic acid", "D,L-\u03b1-Amino-3-hydroxy-5-methylisoxazole-4-propionic acid", "AMPA (pharmaceutical)", "2-Amino-3-(5-methyl-3-oxo-2,3-dihydroisoxazol-4-yl)propanoic acid", "2-Amino-3-(5-methyl-3-oxo-2,3-dihydro-1,2-oxazol-4-yl)propanoic acid", "2-Amino-3-(3-hydroxy-5-methyl-1,2-oxazol-4-yl)propanoic acid"], "SMILES": "C(C(C(O)=O)N)C=1C(=O)NOC1C", "physical_data": {"Molecular Weight": "186.17", "Molecular Formula": "C7H10N2O4", "Melting Point": "149-150 \u00b0C"}}