{"cas_no": "7435-83-8", "cn_name": "2,3,5,6-\u56db\u7532\u57fa\u82c4\u57fa\u6c2f", "en_name": ["2,3,5,6-Tetramethylbenzyl chloride", "Benzene, 3-(chloromethyl)-1,2,4,5-tetramethyl-", "3-(Chloromethyl)-1,2,4,5-tetramethylbenzene", "(Chloromethyl)durene", "2,3,5,6-Tetramethylbenzyl chloride", "m,m,o,o-Tetramethylbenzyl chloride", "NSC 85458", "1,2,4,5-Tetramethyl-3-(chloromethyl)benzene"], "SMILES": "C(Cl)C1=C(C)C(C)=CC(C)=C1C", "physical_data": {"Molecular Weight": "182.69", "Molecular Formula": "C11H15Cl", "Boiling Point": "143-144 \u00b0C @ Press: 18 Torr", "Melting Point": "67-68 \u00b0C"}}