{"cas_no": "7436-07-9", "cn_name": "4-(5)-\u785d\u57fa\u831a\u6ee1", "en_name": ["2,3-Dihydro-5-nitro-1H-indene", "1H-Indene, 2,3-dihydro-5-nitro-", "Indan, 5-nitro-", "2,3-Dihydro-5-nitro-1H-indene", "\u03b2-Nitroindan", "5-Nitroindane", "5-Nitroindan"], "SMILES": "N(=O)(=O)C=1C=C2C(=CC1)CCC2", "physical_data": {"Molecular Weight": "163.17", "Molecular Formula": "C9H9NO2", "Boiling Point": "105.5-108.5 \u00b0C @ Press: 4 Torr", "Melting Point": "39.5-40 \u00b0C", "Density": "0.9398 g/cm\u00b3 @ Temp: 20 \u00b0C"}}