{"cas_no": "74367-78-5", "cn_name": "3,5-\u4e8c\u785d\u57fa\u82c4\u6c2f", "en_name": ["3,5-Dinitrobenzyl chloride", "Benzene, 1-(chloromethyl)-3,5-dinitro-", "Toluene, \u03b1-chloro-3,5-dinitro-", "1-(Chloromethyl)-3,5-dinitrobenzene", "3,5-Dinitrobenzyl chloride", "1-Chloromethyl-3,5-dinitrobenzene"], "SMILES": "N(=O)(=O)C1=CC(N(=O)=O)=CC(CCl)=C1", "physical_data": {"Molecular Weight": "216.58", "Molecular Formula": "C7H5ClN2O4", "Melting Point": "46-47 \u00b0C"}}