{"cas_no": "7436-22-8", "cn_name": "\u6c18\u4ee3\u7532\u80fa\u76d0\u9178\u76d0", "en_name": ["Methan-d3-amine, hydrochloride", "Methan-d3-amine, hydrochloride", "Methyl-d3-amine, hydrochloride", "Methyl-d3-ammonium chloride", "Methyl-d3-amine monohydrochloride", "Monomethyl-d3-ammonium chloride"], "SMILES": "C(N)([2H])([2H])[2H]", "physical_data": {"Molecular Weight": "", "Molecular Formula": "CH2D3N.ClH", "Melting Point": "215-220 \u00b0C"}}