{"cas_no": "74365-74-5", "cn_name": "ENT-16\u039117-\u4e8c\u7f9f\u57fa\u8d1d\u58f3\u6749\u70f7-18-\u7fa7\u9178", "en_name": ["(-)-16\u03b1,17-Dihydroxy-ent-kauran-19-oic acid", "Kauran-18-oic acid, 16,17-dihydroxy-, (4\u03b1,16\u03b1)-", "(4\u03b1,16\u03b1)-16,17-Dihydroxykauran-18-oic acid", "16\u03b1,17-Dihydroxy-ent-kauran-19-oic acid", "(-)-16\u03b1,17-Dihydroxy-ent-kauran-19-oic acid", "16\u03b1,17-Dihydroxy-ent-kauran-19-oic acid"], "SMILES": "CC12C3C4(CC(CO)(O)C(C4)CC3)CCC1C(C(O)=O)(C)CCC2", "physical_data": {"Molecular Weight": "336.47", "Molecular Formula": "C20H32O4", "Melting Point": "297-299 \u00b0C"}}