{"cas_no": "7437-55-0", "cn_name": "8-\u9999\u53f6\u8349\u6c27\u57fa\u8865\u9aa8\u8102\u7d20", "en_name": ["8-Geranyloxypsoralen", "7H-Furo[3,2-g][1]benzopyran-7-one, 9-[[(2E)-3,7-dimethyl-2,6-octadien-1-yl]oxy]-", "7H-Furo[3,2-g][1]benzopyran-7-one, 9-[(3,7-dimethyl-2,6-octadienyl)oxy]-, (E)-", "5-Benzofuranacrylic acid, 7-(geranyloxy)-6-hydroxy-, \u03b4-lactone", "7H-Furo[3,2-g][1]benzopyran-7-one, 9-[[(2E)-3,7-dimethyl-2,6-octadienyl]oxy]-", "9-[[(2E)-3,7-Dimethyl-2,6-octadien-1-yl]oxy]-7H-furo[3,2-g][1]benzopyran-7-one", "8-Geranyloxypsoralen"], "SMILES": "O(CC=C(CCC=C(C)C)C)C=1C2=C(C=C3C1OC=C3)C=CC(=O)O2", "physical_data": {"Molecular Weight": "338.40", "Molecular Formula": "C21H22O4", "Melting Point": "53-54 \u00b0C"}}