{"cas_no": "74389-68-7", "cn_name": "\u0392-\u4e59\u9170\u57fa-\u0393-O-\u5341\u516d\u70f7\u57fa-L-\u0391-\u5375\u78f7\u8102", "en_name": ["Platelet-activating factor", "3,5,9-Trioxa-4-phosphapentacosan-1-aminium, 7-(acetyloxy)-4-hydroxy-N,N,N-trimethyl-, inner salt, 4-oxide, (7R)-", "3,5,9-Trioxa-4-phosphapentacosan-1-aminium, 7-(acetyloxy)-4-hydroxy-N,N,N-trimethyl-, inner salt, 4-oxide, (R)-", "1-O-Hexadecyl-2-O-acetyl-sn-glycero-3-phosphocholine", "1-O-Hexadecyl-2-O-acetyl-sn-glyceryl-3-phosphorylcholine", "PAF acether", "Blood platelet-activating factor acether", "Platelet-activating factor acether", "Platelet-activating factor", "Blood platelet-activating factor", "1-O-Hexadecyl-2-acetyl-sn-glycero-3-phosphocholine", "C16-PAF acether", "1-Hexadecyl-2-acetyl-sn-glycero-3-phosphocholine", "1-O-Hexadecyl-2-acetyl-sn-glycerophosphocholine", "C16-PAF", "1-O-Hexadecyl-platelet-activating factor", "PAF", "1-O-Hexadecyl-2-acetyl-sn-glyceryl-3-phosphorylcholine", "PAF 16", "Platelet-activating factor (1-O-hexadecyl)", "PAF C 16"], "SMILES": "C(COP(OCC[N+](C)(C)C)(=O)[O-])(COCCCCCCCCCCCCCCCC)OC(C)=O", "physical_data": {"Molecular Weight": "", "Molecular Formula": "C26H54NO7P", "Melting Point": "247 \u00b0C"}}