{"cas_no": "7439-97-6", "cn_name": "\u6c5e", "en_name": ["Mercury", "Mercury", "Quicksilver", "Mercury element", "Hydrargyrum", "Blue ointment", "Diluted mercurial ointment", "Mercurius vivus", "Mercurius", "Mercurius solubilis", "MeSH ID: D008628"], "SMILES": "[Hg]", "physical_data": {"Molecular Weight": "", "Molecular Formula": "Hg", "Boiling Point": "356.73 \u00b0C", "Melting Point": "-38.87 \u00b0C", "Density": "13.534 g/cm\u00b3 @ Temp: 25 \u00b0C"}}