{"cas_no": "7439-92-1", "cn_name": "\u94c5", "en_name": ["Lead", "Lead", "C.I. Pigment Metal 4", "Lead Flake", "Lead S 2", "Pb-S 100", "Lead element", "SSO 1", "C.I. 77575", "PS 2 (metal)", "PS 2", "SRM 981", "Lead poisoning", "MeSH ID: D007854", "DK-Pb 01"], "SMILES": "[Pb]", "physical_data": {"Molecular Weight": "", "Molecular Formula": "Pb", "Boiling Point": "1740 \u00b0C", "Melting Point": "327.4 \u00b0C", "Density": "11.34 g/cm\u00b3 @ Temp: 20 \u00b0C"}}