{"cas_no": "7439-98-7", "cn_name": "\u94bc", "en_name": ["Molybdenum", "Molybdenum", "TsM1", "MChVL", "TMOIO", "Molybdenum element", "Metco 63", "Amperit 106.2", "Amperit 105.054", "NSC 600660", "NSC 600661", "NSC 600665", "NSC 603570", "NSC 603571", "NSC 603572", "SGC 15", "3N5", "TMO 10", "TMO 30", "TMO 50", "MeSH ID: D008982"], "SMILES": "[Mo]", "physical_data": {"Molecular Weight": "", "Molecular Formula": "Mo", "Boiling Point": "~4825 \u00b0C (approx)", "Melting Point": "2622 \u00b0C", "Density": "10.28 g/cm\u00b3"}}