{"cas_no": "7439-90-9", "cn_name": "\u6c2a\u6c14", "en_name": ["Krypton", "Krypton", "MeSH ID: D007726"], "SMILES": "[Kr]", "physical_data": {"Molecular Weight": "", "Molecular Formula": "Kr", "Boiling Point": "-153 \u00b0C", "Melting Point": "-157 \u00b0C"}}