{"cas_no": "7439-93-2", "cn_name": "\u9502", "en_name": ["Lithium", "Lithium", "Lithium element", "Lithium atom", "Lectro Max Powder 150", "NP 03", "LectroMax 100", "MeSH ID: D008094"], "SMILES": "[Li]", "physical_data": {"Molecular Weight": "", "Molecular Formula": "Li", "Boiling Point": "1342 \u00b0C", "Melting Point": "180.54 \u00b0C", "Density": "0.534 g/cm\u00b3 @ Temp: 20 \u00b0C"}}