{"cas_no": "7439-96-5", "cn_name": "\u9530", "en_name": ["Manganese", "Manganese", "Colloidal manganese", "Cutaval", "Manganese-55", "JIS-G 1213", "Manganese element", "Teprosyn Mn", "Ele-Max Manganese", "MNE 06PB", "Amiplus Mn", "Basfoliar Manganes", "SuperMan", "Oligo-Mn", "MeSH ID: D008345"], "SMILES": "[Mn]", "physical_data": {"Molecular Weight": "", "Molecular Formula": "Mn", "Boiling Point": "2095 \u00b0C", "Melting Point": "1244 \u00b0C", "Density": "7.44 g/cm\u00b3"}}