{"cas_no": "7439-95-4", "cn_name": "\u9541", "en_name": ["Magnesium", "Magnesium", "Rieke's active magnesium", "Magnesium element", "PK 31", "Ecka Granules PK 51", "Ecka Granules PK 31", "PK 51", "Mg 3820", "Magnum Forte", "Ozone magnez", "Magnesium 100", "Magnesium Shot", "Hypermagnesemia", "Tervalloy", "MG96", "XH-Mg 010", "MeSH ID: D008274"], "SMILES": "[Mg]", "physical_data": {"Molecular Weight": "", "Molecular Formula": "Mg", "Boiling Point": "1100 \u00b0C", "Melting Point": "651 \u00b0C", "Density": "1.738 g/cm\u00b3 @ Temp: 20 \u00b0C"}}