{"cas_no": "7439-88-5", "cn_name": "\u94f1", "en_name": ["Iridium", "Iridium", "Iridium black", "MeSH ID: D007495"], "SMILES": "[Ir]", "physical_data": {"Molecular Weight": "", "Molecular Formula": "Ir", "Boiling Point": "4428 \u00b0C", "Melting Point": "2446 \u00b0C", "Density": "22.42 g/cm\u00b3 @ Temp: 17 \u00b0C"}}