{"cas_no": "7439-91-0", "cn_name": "\u9567", "en_name": ["Lanthanum", "Lanthanum", "MeSH ID: D007811"], "SMILES": "[La]", "physical_data": {"Molecular Weight": "", "Molecular Formula": "La", "Melting Point": "826 \u00b0C", "Density": "6.1598 g/cm\u00b3 @ Temp: 15 \u00b0C"}}