{"cas_no": "744-46-7", "cn_name": "BZ-GLY-ARG", "en_name": ["N-Benzoylglycyl-L-arginine", "L-Arginine, N-benzoylglycyl-", "Arginine, N2-hippuroyl-, L-", "L-Arginine, N2-(N-benzoylglycyl)-", "Arginine, N2-hippuroyl-", "N-Benzoylglycyl-L-arginine", "N-\u03b1-Benzoylglycyl-L-arginine", "N2-Hippuroyl-L-arginine", "NSC 89637", "(2S)-2-[(2-Benzamidoacetyl)amino]-5-(diaminomethylideneazaniumyl)pentanoate"], "SMILES": "C(NCC(NC(CCCNC(=N)N)C(O)=O)=O)(=O)C1=CC=CC=C1", "physical_data": {"Molecular Weight": "335.36", "Molecular Formula": "C15H21N5O4", "Melting Point": "182-196 \u00b0C"}}