{"cas_no": "744-80-9", "cn_name": "\u82ef\u7532\u9170\u82ef\u5df4\u6bd4\u59a5", "en_name": ["Benzonal", "2,4,6(1H,3H,5H)-Pyrimidinetrione, 1-benzoyl-5-ethyl-5-phenyl-", "Barbituric acid, 1-benzoyl-5-ethyl-5-phenyl-", "1-Benzoyl-5-ethyl-5-phenyl-2,4,6(1H,3H,5H)-pyrimidinetrione", "Benzonal", "1-Benzoyl-5-phenyl-5-ethylbarbituric acid", "1-Benzoyl-5-ethyl-5-phenylbarbituric acid", "Benzobarbital", "Benzoylluminal", "1-Benzoyl-5-ethyl-5-phenyl-1,3-diazinane-2,4,6-trione"], "SMILES": "C(C)C1(C(=O)N(C(=O)C2=CC=CC=C2)C(=O)NC1=O)C3=CC=CC=C3", "physical_data": {"Molecular Weight": "336.34", "Molecular Formula": "C19H16N2O4", "Melting Point": "134-135 \u00b0C"}}