{"cas_no": "744-45-6", "cn_name": "\u95f4\u82ef\u4e8c\u7532\u9178\u4e8c\u82ef\u916f", "en_name": ["Diphenyl isophthalate", "1,3-Benzenedicarboxylic acid, 1,3-diphenyl ester", "Isophthalic acid, diphenyl ester", "1,3-Benzenedicarboxylic acid, diphenyl ester", "Diphenyl isophthalate", "Diphenyl m-phthalate", "Diphenyl 1,3-benzenedicarboxylate", "NSC 16430", "NSC 631622"], "SMILES": "C(OC1=CC=CC=C1)(=O)C2=CC(C(OC3=CC=CC=C3)=O)=CC=C2", "physical_data": {"Molecular Weight": "318.32", "Molecular Formula": "C20H14O4", "Melting Point": "137 \u00b0C"}}