{"cas_no": "744-59-2", "cn_name": "HIPPURYL-PHE-OH", "en_name": ["N-Benzoylglycyl-L-phenylalanine", "L-Phenylalanine, N-benzoylglycyl-", "Alanine, N-hippuroyl-3-phenyl-, L-", "L-Phenylalanine, N-(N-benzoylglycyl)-", "Alanine, N-hippuroyl-3-phenyl-", "N-Benzoylglycyl-L-phenylalanine", "Hippuryl-L-phenylalanine", "Benzoylglycyl-L-phenylalanine", "N-(N-Benzoylglycyl)-L-phenylalanine", "NSC 83250", "(2S)-2-[(2-Benzamidoacetyl)amino]-3-phenylpropanoic acid", "(S)-2-(2-Benzamidoacetamido)-3-phenylpropanoicacid"], "SMILES": "C(C(NC(CNC(=O)C1=CC=CC=C1)=O)C(O)=O)C2=CC=CC=C2", "physical_data": {"Molecular Weight": "326.35", "Molecular Formula": "C18H18N2O4", "Melting Point": "174 \u00b0C"}}