{"cas_no": "7440-31-5", "cn_name": "\u9521", "en_name": ["Tin", "Tin", "C.I. 77860", "C.I. Pigment Metal 5", "Metallic tin", "Silver Matt Powder", "Tin Flake", "Tin Powder", "Wang", "Tin element", "Tin Paste 62-1177", "Sn-S 200", "SNE 06PB", "TEGO 30", "TEGO 60", "AT-SN", "Sn-HWQ", "Sn-S-HWQ", "PO 1", "PO 2", "W-Sn", "G-Sn", "FSn 2", "AT-Sn600", "Y-Sn100-Q2510", "SNE 04PB", "AH 302", "Lecocel 501-059", "ST-M 011-5", "Sn99.90AA", "Sn-HPN", "Tin Powder 325", "MeSH ID: D014001"], "SMILES": "[Sn]", "physical_data": {"Molecular Weight": "", "Molecular Formula": "Sn", "Boiling Point": "2507 \u00b0C", "Melting Point": "231.9 \u00b0C", "Density": "7.31 g/cm\u00b3"}}