{"cas_no": "7440-58-6", "cn_name": "\u94ea", "en_name": ["Hafnium", "Hafnium", "Celtium", "Hafnium element", "GFE 1", "MeSH ID: D006195"], "SMILES": "[Hf]", "physical_data": {"Molecular Weight": "", "Molecular Formula": "Hf", "Boiling Point": "4602 \u00b0C", "Melting Point": "2227 \u00b0C", "Density": "13.31 g/cm\u00b3 @ Temp: 20 \u00b0C"}}