{"cas_no": "7440-60-0", "cn_name": "\u94ac", "en_name": ["Holmium", "Holmium", "Holmium-165", "MeSH ID: D006695"], "SMILES": "[Ho]", "physical_data": {"Molecular Weight": "", "Molecular Formula": "Ho", "Melting Point": "1474 \u00b0C (polymorph)", "Density": "8.33 g/cm\u00b3"}}