{"cas_no": "74409-42-0", "cn_name": "2,3,5-\u4e09\u7532\u57fa\u5421\u5576\u6c27\u5316\u7269", "en_name": ["Pyridine, 2,3,5-trimethyl-, 1-oxide", "Pyridine, 2,3,5-trimethyl-, 1-oxide", "2,3,5-Trimethylpyridine 1-oxide", "2,3,5-Trimethylpyridine N-oxide", "2,3,5-Collidine N-oxide", "2,3,5-Trimethyl-1-oxidopyridin-1-ium"], "SMILES": "CC1=C(C)C=C(C)C=N1=O", "physical_data": {"Molecular Weight": "137.18", "Molecular Formula": "C8H11NO", "Boiling Point": "95-98 \u00b0C @ Press: 9.98 x 10<sup>-3</sup> Torr", "Melting Point": "40-41 \u00b0C"}}