{"cas_no": "7440-43-9", "cn_name": "\u9549", "en_name": ["Cadmium", "Cadmium", "C.I. 77180", "MeSH ID: D002104"], "SMILES": "[Cd]", "physical_data": {"Molecular Weight": "", "Molecular Formula": "Cd", "Boiling Point": "765 \u00b0C", "Melting Point": "321 \u00b0C", "Density": "8.65 g/cm\u00b3 @ Temp: 25 \u00b0C"}}