{"cas_no": "7440-63-3", "cn_name": "\u6c19\u6c14", "en_name": ["Xenon", "Xenon", "Xenon atom", "MeSH ID: D014978"], "SMILES": "[Xe]", "physical_data": {"Molecular Weight": "", "Molecular Formula": "Xe", "Boiling Point": "-108 \u00b0C", "Melting Point": "-112 \u00b0C", "Density": "&gt;9.5 g/cm\u00b3"}}