{"cas_no": "7440-37-1", "cn_name": "\u6c29", "en_name": ["Argon", "Argon", "Argon-40", "Argon, isotope of mass 40", "R 740", "Khladon R 740", "40Ar", "MeSH ID: D001128"], "SMILES": "[Ar]", "physical_data": {"Molecular Weight": "", "Molecular Formula": "Ar", "Boiling Point": "-185.9 \u00b0C", "Melting Point": "-189.2 \u00b0C", "Density": "3.424 g/cm\u00b3"}}