{"cas_no": "7440-19-9", "cn_name": "\u9490", "en_name": ["Samarium", "Samarium", "MeSH ID: D012493"], "SMILES": "[Sm]", "physical_data": {"Molecular Weight": "", "Molecular Formula": "Sm", "Boiling Point": "1024 \u00b0C", "Melting Point": "1025-1050 \u00b0C", "Density": "7.53 g/cm\u00b3"}}