{"cas_no": "7440-28-0", "cn_name": "\u94ca", "en_name": ["Thallium", "Thallium", "Ramor", "Thallium element", "MeSH ID: D013793"], "SMILES": "[Tl]", "physical_data": {"Molecular Weight": "", "Molecular Formula": "Tl", "Boiling Point": "1473 \u00b0C", "Melting Point": "304 \u00b0C", "Density": "11.8 g/cm\u00b3"}}