{"cas_no": "7440-53-1", "cn_name": "\u94d5", "en_name": ["Europium", "Europium", "MeSH ID: D005063"], "SMILES": "[Eu]", "physical_data": {"Molecular Weight": "", "Molecular Formula": "Eu", "Boiling Point": "1489 \u00b0C", "Melting Point": "1100-1200 \u00b0C", "Density": "5.245 g/cm\u00b3"}}