{"cas_no": "7440-10-0", "cn_name": "\u9568", "en_name": ["Praseodymium", "Praseodymium", "Praseodymium-141", "MeSH ID: D011221"], "SMILES": "[Pr]", "physical_data": {"Molecular Weight": "", "Molecular Formula": "Pr", "Melting Point": "950 \u00b0C", "Density": "6.75 g/cm\u00b3 @ Temp: 18 \u00b0C"}}