{"cas_no": "7440-01-9", "cn_name": "\u6c16\u6c14", "en_name": ["Neon", "Neon", "MeSH ID: D009356"], "SMILES": "[Ne]", "physical_data": {"Molecular Weight": "", "Molecular Formula": "Ne", "Boiling Point": "-246 \u00b0C", "Melting Point": "-248.7 \u00b0C"}}