{"cas_no": "7440-47-3", "cn_name": "\u94ec", "en_name": ["Chromium", "Chromium", "Chrome", "Chromium element", "Alpaste RRA 030", "Alpaste RRA 050", "Sun Ti-Cr", "BioChrome", "BioChrome (feed additive)", "Dinakrome", "SunshineBabe D 9", "Lanxess BF", "MeSH ID: D002857"], "SMILES": "[Cr]", "physical_data": {"Molecular Weight": "", "Molecular Formula": "Cr", "Boiling Point": "2642 \u00b0C", "Melting Point": "1900 \u00b0C", "Density": "7.14 g/cm\u00b3"}}