{"cas_no": "7440-54-2", "cn_name": "\u9486", "en_name": ["Gadolinium", "Gadolinium", "Gado CELLTrack", "MeSH ID: D005682"], "SMILES": "[Gd]", "physical_data": {"Molecular Weight": "", "Molecular Formula": "Gd", "Melting Point": "1313 \u00b0C (polymorph)", "Density": "4.71 g/cm\u00b3"}}