{"cas_no": "7440-64-4", "cn_name": "\u9571", "en_name": ["Ytterbium", "Ytterbium", "MeSH ID: D015018"], "SMILES": "[Yb]", "physical_data": {"Molecular Weight": "", "Molecular Formula": "Yb", "Boiling Point": "1193 \u00b0C", "Melting Point": "824 \u00b0C (polymorph)", "Density": "6.965 g/cm\u00b3"}}