{"cas_no": "7440-41-7", "cn_name": "\u94cd", "en_name": ["Beryllium", "Beryllium", "Glucinium", "Beryllium-9", "Beryllium element", "Beryllium atom", "Beryllium poisoning", "MeSH ID: D001608"], "SMILES": "[Be]", "physical_data": {"Molecular Weight": "", "Molecular Formula": "Be", "Boiling Point": "2970 \u00b0C", "Melting Point": "1287 \u00b0C", "Density": "1.85 g/cm\u00b3 @ Temp: 20 \u00b0C"}}