{"cas_no": "7440-56-4", "cn_name": "\u9517", "en_name": ["Germanium", "Germanium", "Germanium element", "MeSH ID: D005857"], "SMILES": "[Ge]", "physical_data": {"Molecular Weight": "", "Molecular Formula": "Ge", "Boiling Point": "2700 \u00b0C", "Melting Point": "937.2 \u00b0C", "Density": "5.323 g/cm\u00b3 @ Temp: 25 \u00b0C"}}