{"cas_no": "7440-32-6", "cn_name": "\u949b", "en_name": ["Titanium", "Titanium", "C.P. Titanium", "Smelloff-Cutter Titanium", "TG-Tv", "Titanium element", "Ventron 00901", "TPS 350", "Alpaste RTA 030", "Elgard 210", "M 350 (metal)", "M 350", "Dentcraft Titan Ingot", "TR 28C", "TP 270H", "Timet 115", "N 233", "EBT", "TC 459", "Titan 20A", "TW 340", "EBT (metal)", "Titan 100", "DAT 1", "DAT 5E", "Tiunite", "TB 340", "Tritan Til/31", "Tritanium", "TR 270C", "KS 40", "Titan ingot JS3", "I 131E", "PTKh 2", "ER711", "ER712", "OKE 80", "Catamold Ti", "Tritanium Dimensionalized Metal", "Tiporous 45", "Stiktite", "PTKh 76", "Vulcano Actives", "TI 453441", "SIKA-R 15AX", "TS 450", "TS 450 (oxide)", "TC 450", "Tigran", "Tigran PTG", "TP270H", "SYNTHEGRA", "8020 Pure Titan", "TSH 350", "TPP-7", "N 485II", "TIE 14PB", "TC 200", "TI 227924", "T 453460", "TiXos", "TS 1374", "CP 40", "CP 40 (metal)", "MeSH ID: D014025"], "SMILES": "[Ti]", "physical_data": {"Molecular Weight": "", "Molecular Formula": "Ti", "Boiling Point": "3287 \u00b0C", "Melting Point": "1668 \u00b0C", "Density": "4.506 g/cm\u00b3 @ Temp: 20 \u00b0C"}}