{"cas_no": "7440-59-7", "cn_name": "\u6c26\u6c14", "en_name": ["Helium", "Helium", "Helium-4", "o-Helium", "p-Helium", "Atomic helium", "MeSH ID: D006371"], "SMILES": "[He]", "physical_data": {"Molecular Weight": "", "Molecular Formula": "He", "Boiling Point": "-268.9 \u00b0C", "Melting Point": "-272.2 \u00b0C", "Density": "3.13 g/cm\u00b3"}}