{"cas_no": "7440-74-6", "cn_name": "\u94df", "en_name": ["Indium", "Indium", "Indium element", "INE 07PB", "INE 06PB", "MeSH ID: D007204"], "SMILES": "[In]", "physical_data": {"Molecular Weight": "", "Molecular Formula": "In", "Boiling Point": "2072 \u00b0C", "Melting Point": "156.60 \u00b0C", "Density": "7.31 g/cm\u00b3 @ Temp: 20 \u00b0C"}}