{"cas_no": "7440-48-4", "cn_name": "\u94b4", "en_name": ["Cobalt", "Cobalt", "C.I. 77320", "Cobalt-59", "Cobalt element", "Raney cobalt", "ACO 4", "Co 0138E", "R 401", "N 354Di", "R 401 (metal)", "COE 03PB", "Cobalt (nanoparticles)", "Ra-Co 2724", "B 2112Z", "Raney Co 2786", "Raney 2786", "Actica 3100", "Acticat 3400", "Acticat 3300", "EGEDry 12162XC1", "R 2724", "Raney cobalt 2724", "S 80", "Acticat 3100", "Acticat TM3100", "Acticat 1100", "cobalt", "MeSH ID: D003035"], "SMILES": "[Co]", "physical_data": {"Molecular Weight": "", "Molecular Formula": "Co", "Boiling Point": "2927 \u00b0C", "Melting Point": "1495 \u00b0C", "Density": "9 x 10<sup>-6</sup> g/cm\u00b3"}}