{"cas_no": "7440-25-7", "cn_name": "\u94bd", "en_name": ["Tantalum", "Tantalum", "Tantalum-181", "JIS H4701 TaH", "JIS TaH", "C 606", "Trabecular Metal", "VFI 70KD", "QR 7", "S 506", "STA 100 (metal)", "S 700 (metal)", "STA 150", "S 700", "STA 100", "NH 175", "TU 4D", "C 255 (metal)", "C 255", "STA 150KA", "Trabeculite", "Tantal Nodular", "MeSH ID: D013635"], "SMILES": "[Ta]", "physical_data": {"Molecular Weight": "", "Molecular Formula": "Ta", "Boiling Point": "5429 \u00b0C", "Melting Point": "2996 \u00b0C", "Density": "16.64 g/cm\u00b3"}}