{"cas_no": "7440-16-6", "cn_name": "\u94d1", "en_name": ["Rhodium", "Rhodium", "Rhodium-103", "Rhodium black", "Rhodium (nanoparticles)", "MeSH ID: D012238"], "SMILES": "[Rh]", "physical_data": {"Molecular Weight": "", "Molecular Formula": "Rh", "Boiling Point": "3695 \u00b0C", "Melting Point": "1964 \u00b0C", "Density": "12.41 g/cm\u00b3 @ Temp: 20 \u00b0C"}}