{"cas_no": "7440-55-3", "cn_name": "\u9553", "en_name": ["Gallium", "Gallium", "Gallium element", "MeSH ID: D005708"], "SMILES": "[Ga]", "physical_data": {"Molecular Weight": "", "Molecular Formula": "Ga", "Boiling Point": "~2400 \u00b0C (approx)", "Melting Point": "29.78 \u00b0C", "Density": "5.91 g/cm\u00b3 @ Temp: 20 \u00b0C"}}