{"cas_no": "7440-06-4", "cn_name": "\u94c2", "en_name": ["Platinum", "Platinum", "C.I. 77795", "Liquid Bright Platinum", "Platinum black", "PR 0", "Platinum element", "Furuuchi 8105", "TP 1 (metal)", "TR 706", "TP 1", "TPT 200", "A 3788A", "Engelhard A 3788A", "IASO", "APS-WM 100CA", "TCT 241", "TEC 90330", "HTP 020", "TR 7902", "Metalor 6082", "Platinum gray", "AY 1050", "TR 7091T", "9410DX", "OK-PT 10", "VUVU 500", "Pt M579B", "MeSH ID: D010984"], "SMILES": "[Pt]", "physical_data": {"Molecular Weight": "", "Molecular Formula": "Pt", "Boiling Point": "3825 \u00b0C", "Melting Point": "1768.4 \u00b0C", "Density": "21.45 g/cm\u00b3"}}