{"cas_no": "7440-52-0", "cn_name": "\u94d2", "en_name": ["Erbium", "Erbium", "MeSH ID: D004871"], "SMILES": "[Er]", "physical_data": {"Molecular Weight": "", "Molecular Formula": "Er", "Melting Point": "153 \u00b0C"}}