{"cas_no": "7440-42-8", "cn_name": "\u787c", "en_name": ["Boron", "Boron", "Boron element", "Boron atom", "Trona", "Trona (element)", "SB 95", "SB 95 (boron)", "V 99", "Borfast", "Borotrac", "Power 7B", "Bortrac", "B-99A", "V 99 (element)", "Boron 112070", "MeSH ID: D001895"], "SMILES": "[B]", "physical_data": {"Molecular Weight": "", "Molecular Formula": "B", "Boiling Point": "2550 \u00b0C", "Melting Point": "2300 \u00b0C", "Density": "2.35 g/cm\u00b3"}}