{"cas_no": "7440-67-7", "cn_name": "\u9506\u7b94", "en_name": ["Zirconium", "Zirconium", "Zirconium element", "ZREO 2PB", "MeSH ID: D015040"], "SMILES": "[Zr]", "physical_data": {"Molecular Weight": "", "Molecular Formula": "Zr", "Boiling Point": "3577 \u00b0C", "Melting Point": "1857 \u00b0C", "Density": "6.49 g/cm\u00b3"}}