{"cas_no": "7440-04-2", "cn_name": "\u9507", "en_name": ["Osmium", "Osmium", "NSC 607770", "NSC 607771", "NSC 607772", "MeSH ID: D009992"], "SMILES": "[Os]", "physical_data": {"Molecular Weight": "", "Molecular Formula": "Os", "Melting Point": "3033 \u00b0C"}}