{"cas_no": "7440-00-8", "cn_name": "\u9495", "en_name": ["Neodymium", "Neodymium", "MeSH ID: D009354"], "SMILES": "[Nd]", "physical_data": {"Molecular Weight": "", "Molecular Formula": "Nd", "Melting Point": "979 \u00b0C"}}