{"cas_no": "7440-17-7", "cn_name": "\u94f7", "en_name": ["Rubidium", "Rubidium", "MeSH ID: D012413"], "SMILES": "[Rb]", "physical_data": {"Molecular Weight": "", "Molecular Formula": "Rb", "Boiling Point": "688 \u00b0C", "Melting Point": "39 \u00b0C", "Density": "1.532 g/cm\u00b3"}}