{"cas_no": "7440-24-6", "cn_name": "\u9536", "en_name": ["Strontium", "Strontium", "Strontium element", "MeSH ID: D013324"], "SMILES": "[Sr]", "physical_data": {"Molecular Weight": "", "Molecular Formula": "Sr", "Boiling Point": "1382 \u00b0C", "Melting Point": "777 \u00b0C", "Density": "2.64 g/cm\u00b3"}}