{"cas_no": "7440-45-1", "cn_name": "\u94c8", "en_name": ["Cerium", "Cerium", "NSC 158935", "MeSH ID: D002563"], "SMILES": "[Ce]", "physical_data": {"Molecular Weight": "", "Molecular Formula": "Ce", "Melting Point": "775 \u00b0C", "Density": "6.78 g/cm\u00b3 @ Temp: 18 \u00b0C"}}