{"cas_no": "7440-05-3", "cn_name": "\u94af\u78b3", "en_name": ["Palladium", "Palladium", "Palladium black", "Palladex 600", "Palladium element", "P 50 (metal)", "P 50", "MPP 030", "MPP 080", "MPP 050", "SFP 1001P", "IG 0218A", "Palladium (powder)", "TCP 211", "Palladium (nanoparticles)", "HPS 3000", "E 1010W", "O 345", "Pd 0343251", "MeSH ID: D010165"], "SMILES": "[Pd]", "physical_data": {"Molecular Weight": "", "Molecular Formula": "Pd", "Boiling Point": "3167 \u00b0C", "Melting Point": "1555 \u00b0C", "Density": "12.02 g/cm\u00b3"}}