{"cas_no": "7440-09-7", "cn_name": "\u94be", "en_name": ["Potassium", "Potassium", "K element", "Atomic potassium", "Potassium hyperkalemia", "MeSH ID: D011188"], "SMILES": "[K]", "physical_data": {"Molecular Weight": "", "Molecular Formula": "K", "Boiling Point": "765.5 \u00b0C", "Melting Point": "63.2 \u00b0C", "Density": "0.856 g/cm\u00b3 @ Temp: 20 \u00b0C"}}