{"cas_no": "7440-62-2", "cn_name": "\u9492\u7c89", "en_name": ["Vanadium", "Vanadium", "Vanadium-51", "Vanadium element", "Atomic vanadium", "VN 200", "MeSH ID: D014639"], "SMILES": "[V]", "physical_data": {"Molecular Weight": "", "Molecular Formula": "V", "Boiling Point": "3407 \u00b0C", "Melting Point": "1917 \u00b0C", "Density": "6.11 g/cm\u00b3 @ Temp: 18.7 \u00b0C"}}