{"cas_no": "7440-15-5", "cn_name": "\u94fc", "en_name": ["Rhenium", "Rhenium", "Rhenium element", "NSC 600662", "MeSH ID: D012211"], "SMILES": "[Re]", "physical_data": {"Molecular Weight": "", "Molecular Formula": "Re", "Melting Point": "3440 \u00b0C", "Density": "20.9 g/cm\u00b3"}}