{"cas_no": "7440-69-9", "cn_name": "\u94cb", "en_name": ["Bismuth", "Bismuth", "Bismuth-209", "Bismuth element", "BIE11PB", "MeSH ID: D001729"], "SMILES": "[Bi]", "physical_data": {"Molecular Weight": "", "Molecular Formula": "Bi", "Boiling Point": "1420 \u00b0C", "Melting Point": "271 \u00b0C", "Density": "9.78 g/cm\u00b3 @ Temp: 20 \u00b0C"}}