{"cas_no": "7440-27-9", "cn_name": "\u94fd", "en_name": ["Terbium", "Terbium", "Terbium-159", "MeSH ID: D013725"], "SMILES": "[Tb]", "physical_data": {"Molecular Weight": "", "Molecular Formula": "Tb", "Boiling Point": "255 \u00b0C", "Melting Point": "1356 \u00b0C (polymorph)"}}