{"cas_no": "7440-36-0", "cn_name": "\u9511", "en_name": ["Antimony", "Antimony", "C.I. 77050", "Antimony black", "Stibium", "Antimony element", "SBE 03PB", "MeSH ID: D000965"], "SMILES": "[Sb]", "physical_data": {"Molecular Weight": "", "Molecular Formula": "Sb", "Boiling Point": "1635 \u00b0C", "Melting Point": "630 \u00b0C", "Density": "6.684 g/cm\u00b3 @ Temp: 25 \u00b0C"}}