{"cas_no": "7440-23-5", "cn_name": "\u94a0", "en_name": ["Sodium", "Sodium", "Sodium metal", "Sodium-23", "Sodium atom", "Atomic sodium", "Natrium", "sodium", "MeSH ID: D012964"], "SMILES": "[Na]", "physical_data": {"Molecular Weight": "", "Molecular Formula": "Na", "Boiling Point": "881.4 \u00b0C", "Melting Point": "97.82 \u00b0C", "Density": "0.968 g/cm\u00b3 @ Temp: 20 \u00b0C"}}