{"cas_no": "7440-38-2", "cn_name": "\u7837", "en_name": ["Arsenic", "Arsenic", "Arsenic-75", "Arsenic black", "MeSH ID: D001151"], "SMILES": "[As]", "physical_data": {"Molecular Weight": "", "Molecular Formula": "As", "Boiling Point": "615 \u00b0C", "Melting Point": "613 \u00b0C (sublm)", "Density": "5.778 g/cm\u00b3 @ Temp: 25 \u00b0C"}}