{"cas_no": "7440-46-2", "cn_name": "\u94ef", "en_name": ["Cesium", "Cesium", "Cesium-133", "MeSH ID: D002586"], "SMILES": "[Cs]", "physical_data": {"Molecular Weight": "", "Molecular Formula": "Cs", "Boiling Point": "685 \u00b0C", "Melting Point": "29 \u00b0C", "Density": "1.87 g/cm\u00b3"}}