{"cas_no": "7440-39-3", "cn_name": "\u94a1", "en_name": ["Barium", "Barium", "Barium element", "MeSH ID: D001464"], "SMILES": "[Ba]", "physical_data": {"Molecular Weight": "", "Molecular Formula": "Ba", "Boiling Point": "1897 \u00b0C", "Melting Point": "727 \u00b0C", "Density": "3.62 g/cm\u00b3"}}