{"cas_no": "7440-61-1", "cn_name": "\u94c0", "en_name": ["Uranium", "Uranium", "Uranium-238", "Uranium I (238U)", "U element", "Uranium, isotope of mass 238", "238U", "238U element", "U 238", "MeSH ID: D014501"], "SMILES": "[U]", "physical_data": {"Molecular Weight": "", "Molecular Formula": "U", "Boiling Point": "4131 \u00b0C", "Melting Point": "1135 \u00b0C", "Density": "19.1 g/cm\u00b3"}}