{"cas_no": "7440-70-2", "cn_name": "\u9499", "en_name": ["Calcium", "Calcium", "Praval", "Calcium atom", "Calcium element", "Atomic calcium", "Blood-coagulation factor IV", "Vivinal MCA 26", "Aquacal", "Vistacal", "ASP 1250", "Alcaplant", "Calcium KM", "T 1-101A", "Omyacarb T 1", "MeSH ID: D002118"], "SMILES": "[Ca]", "physical_data": {"Molecular Weight": "", "Molecular Formula": "Ca", "Boiling Point": "1484 \u00b0C", "Melting Point": "842 \u00b0C", "Density": "1.54 g/cm\u00b3 @ Temp: 20 \u00b0C"}}