{"cas_no": "7440-21-3", "cn_name": "\u7845", "en_name": ["Silicon", "Silicon", "Silicon element", "Sicomill Grade 2", "KDB 20", "Sicomill 4C-P", "Silgrain Standard", "SILSO", "Polysilicon", "HGH 600", "Metasilicon 325A", "Hexsil", "CZ-N Polished wafer", "SI 1059", "GKO 3516A", "KR 1", "KDB 10", "4FY", "Silgrain HQ", "Si(100) wafer", "Biosilicon", "Silgrain", "Silicon 100", "PHC 20", "KDB 0.5", "KDB 0.1", "Aldrich 267414-25G", "Sharp 80W", "FEB 450D", "JT 02", "SIE 23PB", "Sicomill E 4", "PSi-C 2", "\u03c8-C 2", "SIE 20PB", "KTC", "KTC (element)", "Silicon 600", "SI 500443", "SI 500444", "KEF 100", "AgroSilicio", "Sili-K", "Si-S 10\u03bcm", "6PW-A1", "Silicon 200", "SI 500452", "a-Si 11", "a-Si 12", "a-Si 13", "M-Si 600", "Silgrain E-Si 400", "T 2", "T 2 (filler)", "SI 006031", "WFP 6005", "SAF 184", "SI 100", "KR-2", "Wafer World 119", "S 308", "P 100", "HY-G 10", "PC 300 (element)", "PC 300", "350WB", "1HDX2", "M-Si Fine WB", "M-Si 350WB", "V 8294", "MeSH ID: D012825"], "SMILES": "[Si]", "physical_data": {"Molecular Weight": "", "Molecular Formula": "Si", "Boiling Point": "2355 \u00b0C", "Melting Point": "1410 \u00b0C", "Density": "2.33 g/cm\u00b3 @ Temp: 25 \u00b0C"}}