{"cas_no": "74420-02-3", "cn_name": "4-\u7f9f\u57fa-7-\u6c2e\u6742\u5432\u54da", "en_name": ["1H-Pyrrolo[2,3-b]pyridin-4-ol", "1H-Pyrrolo[2,3-b]pyridin-4-ol", "1,7-Dideazahypoxanthine", "1,7-Dihydropyrrolo[2,3-b]pyridin-4-one"], "SMILES": "OC1=C2C(=NC=C1)NC=C2", "physical_data": {"Molecular Weight": "134.14", "Molecular Formula": "C7H6N2O", "Melting Point": "238-239 \u00b0C (decomp)"}}