{"cas_no": "7442-07-1", "cn_name": "6-\u6c28\u57fa-2-\u5def\u57fa\u82ef\u5e76\u567b\u5511", "en_name": ["6-Amino-2-mercaptobenzothiazole", "2(3H)-Benzothiazolethione, 6-amino-", "2-Benzothiazolethiol, 6-amino-", "Benzothiazole, 6-amino-2-mercapto-", "6-Amino-2(3H)-benzothiazolethione", "6-Amino-2-mercaptobenzothiazole", "6-Amino-2-benzothiazolethiol", "6-Amino-2-benzothiazolinethione", "6-Amino-1,3-benzothiazole-2-thiol", "NSC 45347", "NSC 7916", "6-Amino-1,3-benzothiazole-2(3H)-thione", "2-Mercaptobenzothiazol-6-amine"], "SMILES": "S=C1NC=2C(S1)=CC(N)=CC2", "physical_data": {"Molecular Weight": "182.27", "Molecular Formula": "C7H6N2S2", "Melting Point": "260-262 \u00b0C"}}