{"cas_no": "74420-51-2", "cn_name": "5-\u6eb4-2-\u7532\u57fa\u54aa\u5511\u5e76[1,2-A]\u5421\u5576", "en_name": ["5-Bromo-2-methylimidazo[1,2-a]pyridine", "Imidazo[1,2-a]pyridine, 5-bromo-2-methyl-", "5-Bromo-2-methylimidazo[1,2-a]pyridine"], "SMILES": "BrC=1N2C(=NC(C)=C2)C=CC1", "physical_data": {"Molecular Weight": "211.06", "Molecular Formula": "C8H7BrN2", "Melting Point": "55.0-56.5 \u00b0C"}}