{"cas_no": "7443-25-6", "cn_name": "4-\u7532\u6c27\u57fa\u82ef\u4e9a\u7532\u57fa\u4e19\u4e8c\u9178\u4e8c\u7532\u916f", "en_name": ["1,3-Dimethyl 2-[(4-methoxyphenyl)methylene]propanedioate", "Propanedioic acid, 2-[(4-methoxyphenyl)methylene]-, 1,3-dimethyl ester", "Malonic acid, (p-methoxybenzylidene)-, dimethyl ester", "Propanedioic acid, [(4-methoxyphenyl)methylene]-, dimethyl ester", "1,3-Dimethyl 2-[(4-methoxyphenyl)methylene]propanedioate", "Cyasorb UV 1988", "Dimethyl (p-methoxybenzylidene)malonate", "p-Methoxybenzylidenemalonic acid dimethyl ester", "Dimethyl 4-methoxybenzylidenemalonate", "Sanduvor PR 25", "NSC 306435", "[(4-Methoxyphenyl)methylene]malonic acid dimethyl ester", "Hostavin PR 25", "PR 25", "Hostavin BRE 25", "Dimethyl 2-(p-methoxybenzylidene)malonate", "Chisorb 2025"], "SMILES": "C(=CC1=CC=C(OC)C=C1)(C(OC)=O)C(OC)=O", "physical_data": {"Molecular Weight": "250.25", "Molecular Formula": "C13H14O5", "Boiling Point": "144-145 \u00b0C @ Press: 0.17 Torr", "Melting Point": "45 \u00b0C"}}