{"cas_no": "7443-52-9", "cn_name": "\u53cd-2-\u7532\u57fa\u73af\u5df2\u9187", "en_name": ["trans-2-Methylcyclohexanol", "Cyclohexanol, 2-methyl-, (1R,2R)-rel-", "Cyclohexanol, 2-methyl-, trans-", "rel-(1R,2R)-2-Methylcyclohexanol", "trans-2-Methylcyclohexanol", "trans-2-Methyl-1-cyclohexanol", "(\u00b1)-trans-2-Methylcyclohexanol", "trans-1-Hydroxy-2-methylcyclohexane", "NSC 244887", "NSC 245854", "rel-(1S,2S)-2-Methylcyclohexanol"], "SMILES": "CC1C(O)CCCC1", "physical_data": {"Molecular Weight": "114.19", "Molecular Formula": "C7H14O", "Boiling Point": "167.4 \u00b0C", "Melting Point": "-21 \u00b0C", "Density": "0.9238 g/cm\u00b3 @ Temp: 20 \u00b0C"}}