{"cas_no": "7443-70-1", "cn_name": "cis-2-\u7532\u57fa\u73af\u5df1\u9187", "en_name": ["cis-2-Methylcyclohexanol", "Cyclohexanol, 2-methyl-, (1R,2S)-rel-", "Cyclohexanol, 2-methyl-, cis-", "rel-(1R,2S)-2-Methylcyclohexanol", "cis-2-Methylcyclohexanol", "cis-2-Methyl-1-cyclohexanol", "(\u00b1)-cis-2-Methylcyclohexanol", "NSC 100902", "rel-(1R,2S)-2-Methylcyclohexanol"], "SMILES": "CC1C(O)CCCC1", "physical_data": {"Molecular Weight": "114.19", "Molecular Formula": "C7H14O", "Boiling Point": "165 \u00b0C", "Melting Point": "7 \u00b0C", "Density": "0.9280 g/cm\u00b3 @ Temp: 20 \u00b0C"}}