{"cas_no": "74448-92-3", "cn_name": "4-(4-\u6c2f\u82ef\u6c27\u57fa)\u82ef\u7532\u8148", "en_name": ["4-(4-Chlorophenoxy)benzonitrile", "Benzonitrile, 4-(4-chlorophenoxy)-", "4-(4-Chlorophenoxy)benzonitrile"], "SMILES": "O(C1=CC=C(C#N)C=C1)C2=CC=C(Cl)C=C2", "physical_data": {"Molecular Weight": "229.66", "Molecular Formula": "C13H8ClNO", "Boiling Point": "160 \u00b0C @ Press: 0.6 Torr", "Melting Point": "81-83 \u00b0C"}}