{"cas_no": "7446-27-7", "cn_name": "\u78f7\u9178\u94c5", "en_name": ["Phosphoric acid, lead(2+) salt (2:3)", "Phosphoric acid, lead(2+) salt (2:3)", "Lead phosphate (Pb3P2O8)", "C.I. 77622", "Lead orthophosphate", "Lead phosphate", "Perlex Paste 500", "Perlex Paste 600A", "Trilead phosphate", "Lead phosphate (3:2)", "Lead phosphate (Pb3(PO4)2)", "Lead(2+) phosphate (Pb3(PO4)2)", "Lead diphosphate", "Lead orthophosphate (Pb3(PO4)2)", "Lead(II) phosphate", "Pigment White 30", "C.I. Pigment White 30"], "SMILES": "P(=O)(O)(O)O.[Pb]", "physical_data": {"Molecular Weight": "", "Molecular Formula": "H3O4P.<sup>3</sup>/2Pb", "Melting Point": "1014 \u00b0C", "Density": "6.9 g/cm\u00b3"}}