{"cas_no": "7446-70-0", "cn_name": "\u4e09\u6c2f\u5316\u94dd", "en_name": ["Aluminum chloride", "Aluminum chloride (AlCl3)", "Aluminum chloride", "Aluminum trichloride", "Aluminium chloride", "Aluminium trichloride", "Trichloroaluminum", "Aluminum(III) chloride", "TK Flock", "Lutan FN", "NSC 143015", "NSC 143016", "Hemogin L", "Takibine 100", "Hemostop"], "SMILES": "[Al](Cl)(Cl)Cl", "physical_data": {"Molecular Weight": "", "Molecular Formula": "AlCl3", "Boiling Point": "182.7 \u00b0C @ Press: 752 Torr", "Melting Point": "192.6 \u00b0C", "Density": "2.48 g/cm\u00b3"}}