{"cas_no": "7446-81-3", "cn_name": "\u4e19\u70ef\u9178\u94a0", "en_name": ["Sodium acrylate", "2-Propenoic acid, sodium salt (1:1)", "Acrylic acid, sodium salt", "2-Propenoic acid, sodium salt", "Sodium acrylate", "Sodium 2-propenoate", "Webac 240A1", "Flexisperse 450N", "CI 05K", "Longhai 1240"], "SMILES": "C(C=C)(O)=O.[Na]", "physical_data": {"Molecular Weight": "", "Molecular Formula": "C3H4O2.Na", "Melting Point": "&gt;300 \u00b0C"}}