{"cas_no": "7446-20-0", "cn_name": "\u4e03\u6c34\u786b\u9178\u950c", "en_name": ["Zinc sulfate heptahydrate", "Sulfuric acid, zinc salt, hydrate (1:1:7)", "Sulfuric acid, zinc salt (1:1), heptahydrate", "White vitriol", "Zinc sulfate heptahydrate", "Zinc vitriol", "Zinc sulfate (ZnSO4) heptahydrate", "Zinc(II) sulfate heptahydrate", "ZnSO4\u00b77H2O", "Zinc sulfate heptahydrate ZnSO4\u00b77H2O"], "SMILES": "S(=O)(=O)(O)O.O.[Zn]", "physical_data": {"Molecular Weight": "", "Molecular Formula": "H2O4S.7H2O.Zn", "Melting Point": "100 \u00b0C", "Density": "1.97 g/cm\u00b3"}}