{"cas_no": "7446-18-6", "cn_name": "\u786b\u9178\u94ca", "en_name": ["Thallous sulfate", "Sulfuric acid, thallium(1+) salt (1:2)", "Sulfuric acid, dithallium(1+) salt", "Thallium sulfate (Tl2(SO4))", "Thallous sulfate", "Thallium sulfate", "Dithallium sulfate", "Thallium(I) sulfate", "Dithallium(1+) sulfate", "C.F.S.", "CSF-Giftweizen", "M 7-Giftkoerner", "Rattengiftkonserve", "Zelio", "Dithallium(I) sulfate"], "SMILES": "S(=O)(=O)(O)O.[Tl]", "physical_data": {"Molecular Weight": "", "Molecular Formula": "H2O4S.2Tl", "Melting Point": "632 \u00b0C", "Density": "6.77 g/cm\u00b3"}}