{"cas_no": "7446-11-9", "cn_name": "\u4e09\u6c27\u5316\u786b", "en_name": ["Sulfur trioxide", "Sulfur trioxide", "Sulfur oxide (SO3)", "Sulfuric anhydride", "Nisso Sulfan"], "SMILES": "S(=O)(=O)=O", "physical_data": {"Molecular Weight": "80.06", "Molecular Formula": "O3S", "Boiling Point": "45 \u00b0C", "Melting Point": "16.8 \u00b0C", "Density": "1.9 g/cm\u00b3"}}