{"cas_no": "7446-08-4", "cn_name": "\u4e8c\u6c27\u5316\u7852", "en_name": ["Selenium dioxide", "Selenium oxide (SeO2)", "NSC 56753", "Selenium(IV) oxide", "Selenium dioxide"], "SMILES": "[Se](=O)=O", "physical_data": {"Molecular Weight": "110.96", "Molecular Formula": "O2Se", "Melting Point": "340 \u00b0C", "Density": "3.954 g/cm\u00b3 @ Temp: 15 \u00b0C"}}