{"cas_no": "7446-07-3", "cn_name": "\u4e8c\u6c27\u5316\u78b2", "en_name": ["Tellurium dioxide", "Tellurium oxide (TeO2)", "Tellurium(IV) oxide", "Telluria", "Tellurium oxide", "Tellurium dioxide"], "SMILES": "[Te](=O)=O", "physical_data": {"Molecular Weight": "", "Molecular Formula": "O2Te", "Melting Point": "&gt;600 \u00b0C", "Density": "5.99 g/cm\u00b3"}}