{"cas_no": "7446-14-2", "cn_name": "\u786b\u9178\u94c5", "en_name": ["Lead sulfate (PbSO4)", "Sulfuric acid, lead(2+) salt (1:1)", "C.I. 77630", "Anglislite", "C.I. Pigment White 3", "Fast White", "Freemans White Lead", "Lead Bottoms", "Lead sulfate", "Milk White", "Mulhouse White", "Lead(2+) sulfate", "Lead monosulfate", "Lead sulfate (1:1)", "Lead sulfate (PbSO4)", "Lead(II) sulfate", "Pigment White 3", "HB 2000", "TS 100 (sulfate)", "TS 100", "PbSO4", "TS-E", "Dibasic lead sulfate", "Akstab PB-KLSS", "Plumbous sulfate", "Lead sulfate (Pb(SO4))"], "SMILES": "S(=O)(=O)(O)O.[Pb]", "physical_data": {"Molecular Weight": "", "Molecular Formula": "H2O4S.Pb", "Melting Point": "1170 \u00b0C", "Density": "6.2 g/cm\u00b3"}}