{"cas_no": "7446-09-5", "cn_name": "\u4e8c\u6c27\u5316\u786b", "en_name": ["Sulfur dioxide", "Sulfur dioxide", "Sulfur superoxide", "Sulfurous acid anhydride", "Sulfurous anhydride", "Sulfurous oxide", "Sulfur oxide (SO2)", "Fermenticide liquid", "Sulfur dioxide (SO2)", "Sulfur oxide", "Sulphur dioxide", "E 220", "MeSH ID: D013458"], "SMILES": "S(=O)=O", "physical_data": {"Molecular Weight": "64.06", "Molecular Formula": "O2S", "Boiling Point": "-10.05 \u00b0C", "Melting Point": "-75.5 \u00b0C", "Density": "2.811 x 10<sup>-3</sup> g/cm\u00b3"}}