{"cas_no": "7447-40-7", "cn_name": "\u6c2f\u5316\u94be", "en_name": ["Potassium chloride", "Potassium chloride (KCl)", "Potassium chloride", "Potassium monochloride", "Enseal", "Chloropotassuril", "Kalitabs", "Potavescent", "Rekawan", "Klotrix", "Kaon-Cl", "Slow K", "Super K (salt)", "Super K", "Neobakasal", "K-Dur", "Muriate of potash", "KCL Retard", "Klor-Con", "Nu-K", "Kaliglutol", "Rekawan Retard", "Kalinor-Retard P", "K-SR", "Cena-K", "Apo-K", "Klorvess", "Enpott", "Kaleorid", "Durules", "Durekal", "Diffu-K", "Chlorvescent", "Kay-Cee-L", "Plus Kalium Retard", "Kaliduron", "Lento-Kalium", "K-Lease", "Kalipor", "Acronitol", "Rum-K", "Clor-K-Zaf", "Ten-K", "Micro-K Extentcaps", "Kalium Duriles", "Kalitrans Retard", "Celeka", "Leo-K", "Addi-K", "Kalium-R", "K-Contin", "Durules-K", "Potasion", "Kalium Retard", "Kaliolite", "Keylyte", "K-Tab", "Kay-Ciel", "Kalium-Durettes", "Kolyum", "Kalilente", "Micro-K", "Kadalex", "K-Care", "Micro-Kalium Retard", "K-Lor", "K-Lyte Cl", "Kalinorm Depottab", "Kaochlor", "Miopotasio", "K-Norm", "Ultra-K-Chlor", "K 10", "Span-K", "Kalipoz", "Kalinorm", "Peter-Kal", "Repone K", "Kaon-Cl 10", "Emplets potassium chloride", "Kaskay", "PfiKlor", "Kato", "Kaysay", "Kayback", "E 508", "NSC 77368", "Dyna-K", "Potassium(I) chloride", "Shirubin", "MOP", "MOP (fertilizer)", "P 9541", "MeSH ID: D011189"], "SMILES": "Cl[K]", "physical_data": {"Molecular Weight": "", "Molecular Formula": "ClK", "Melting Point": "770 \u00b0C", "Density": "1.984 g/cm\u00b3"}}