{"cas_no": "74472-37-0", "cn_name": "2,3,4,4\u2032,5-\u4e94\u6c2f\u8054\u82ef", "en_name": ["PCB 114", "1,1\u2032-Biphenyl, 2,3,4,4\u2032,5-pentachloro-", "2,3,4,4\u2032,5-Pentachloro-1,1\u2032-biphenyl", "2,3,4,4\u2032,5-Pentachlorobiphenyl", "4\u2032-Chloro-2,3,4,5-tetrachlorobiphenyl", "PCB 114", "2,3,4,5,4\u2032-Pentachlorobiphenyl", "CB 114"], "SMILES": "ClC1=C(C=C(Cl)C(Cl)=C1Cl)C2=CC=C(Cl)C=C2", "physical_data": {"Molecular Weight": "326.43", "Molecular Formula": "C12H5Cl5", "Melting Point": "98 \u00b0C"}}