{"cas_no": "7447-39-4", "cn_name": "\u4e8c\u6c2f\u5316\u94dc", "en_name": ["Cupric chloride", "Copper chloride (CuCl2)", "Copper bichloride", "Copper(II) chloride", "Copper dichloride", "Cupric chloride", "Copper chloride", "Cupric dichloride", "Copper(2+) chloride", "NSC 165706", "GBC 4L"], "SMILES": "[Cu](Cl)Cl", "physical_data": {"Molecular Weight": "", "Molecular Formula": "Cl2Cu", "Melting Point": "181 \u00b0C (sublm)", "Density": "3.39 g/cm\u00b3 @ Temp: 25 \u00b0C"}}