{"cas_no": "7447-41-8", "cn_name": "\u6c2f\u5316\u9502", "en_name": ["Lithium chloride", "Lithium chloride (LiCl)", "Lithium chloride", "Lithium monochloride", "NSC 327172", "Lithium Chloride Solution N", "MeSH ID: D018021"], "SMILES": "Cl[Li]", "physical_data": {"Molecular Weight": "", "Molecular Formula": "ClLi", "Boiling Point": "1360 \u00b0C", "Melting Point": "613 \u00b0C", "Density": "2.07 g/cm\u00b3"}}