{"cas_no": "7449-74-3", "cn_name": "N-\u7532\u57fa-N-(\u4e09\u7532\u57fa\u7845\u57fa)\u4e59\u9170\u80fa", "en_name": ["N-Methyl-N-(trimethylsilyl)acetamide", "Acetamide, N-methyl-N-(trimethylsilyl)-", "N-Methyl-N-(trimethylsilyl)acetamide", "N-Trimethylsilyl-N-methylacetamide", "NSC 142435"], "SMILES": "N([Si](C)(C)C)(C(C)=O)C", "physical_data": {"Molecular Weight": "145.27", "Molecular Formula": "C6H15NOSi", "Boiling Point": "48-49 \u00b0C @ Press: 11 Torr", "Density": "0.9009 g/cm\u00b3 @ Temp: 20 \u00b0C"}}