{"cas_no": "74494-52-3", "cn_name": "3-\u54cc\u5576\u4e59\u9178", "en_name": ["3-Piperidineacetic acid", "3-Piperidineacetic acid", "NSC 138735", "(Piperidin-3-yl)acetic acid", "2-(Piperidin-3-yl)acetic acid"], "SMILES": "C(C(O)=O)C1CCCNC1", "physical_data": {"Molecular Weight": "143.18", "Molecular Formula": "C7H13NO2", "Melting Point": "276-278 \u00b0C"}}