{"cas_no": "74495-70-8", "cn_name": "4-\u7f9f\u57fa-3-(\u7532\u6c27\u57fa-D3)\u6241\u6843\u9178", "en_name": ["Benzeneacetic acid, \u03b1,4-dihydroxy-3-(methoxy-d3)-", "Benzeneacetic acid, \u03b1,4-dihydroxy-3-(methoxy-d3)-"], "SMILES": "C(C(O)=O)(O)C1=CC(OC([2H])([2H])[2H])=C(O)C=C1", "physical_data": {"Molecular Weight": "", "Molecular Formula": "C9H7D3O5", "Melting Point": "127-129 \u00b0C"}}