{"cas_no": "745-65-3", "cn_name": "\u524d\u5217\u817a\u7d20E1", "en_name": ["Prostaglandin E1", "Prost-13-en-1-oic acid, 11,15-dihydroxy-9-oxo-, (11\u03b1,13E,15S)-", "Cyclopentaneheptanoic acid, 3-hydroxy-2-(3-hydroxy-1-octenyl)-5-oxo-, (-)-", "Cyclopentaneheptanoic acid, 3\u03b1-hydroxy-2-(3-hydroxy-1-octenyl)-5-oxo-", "(11\u03b1,13E,15S)-11,15-Dihydroxy-9-oxoprost-13-en-1-oic acid", "PGE1", "Prostaglandin E1", "11\u03b1,15(S)-Dihydroxy-9-oxo-13-trans-prostenoic acid", "(-)-Prostaglandin E1", "l-Prostaglandin E1", "11\u03b1,15\u03b1-Dihydroxy-9-oxo-13-trans-prostenoic acid", "Alprostadil", "U 10136", "Prostandin", "l-PGE1", "Prostandin 500", "Caverject", "Alprox TD", "Palux", "ONO 1608", "Lipoprost", "Topiglan", "SEPA-PGE1", "SEPA-alprostadil", "SEPA-prostaglandin E1", "Minprog", "Prostivas", "Prostin VR Pediatric", "Liple", "NSC 165559", "Caveject", "Vasaprostan", "Liprostin", "Eglandin", "Lipo PGE1", "Alprostan", "Edex"], "SMILES": "C(CCCCCC(O)=O)C1C(C=CC(CCCCC)O)C(O)CC1=O", "physical_data": {"Molecular Weight": "354.48", "Molecular Formula": "C20H34O5", "Melting Point": "115-116 \u00b0C"}}