{"cas_no": "745-62-0", "cn_name": "PGF1\u0391", "en_name": ["PGF1\u03b1", "Prost-13-en-1-oic acid, 9,11,15-trihydroxy-, (9\u03b1,11\u03b1,13E,15S)-", "Cyclopentaneheptanoic acid, 3,5-dihydroxy-2-(3-hydroxy-1-octenyl)-", "Prostaglandin F1", "(9\u03b1,11\u03b1,13E,15S)-9,11,15-Trihydroxyprost-13-en-1-oic acid", "PGF1\u03b1", "Prostaglandin F1\u03b1", "9\u03b1,11\u03b1,15(S)-Trihydroxy-13-trans-prostenoic acid", "U 18714"], "SMILES": "C(CCCCCC(O)=O)C1C(C=CC(CCCCC)O)C(O)CC1O", "physical_data": {"Molecular Weight": "356.50", "Molecular Formula": "C20H36O5", "Melting Point": "100-102 \u00b0C"}}