{"cas_no": "745055-91-8", "cn_name": "UBP302, PUBCHEM CID: 6420161", "en_name": ["(\u03b1S)-\u03b1-Amino-3-[(2-carboxyphenyl)methyl]-3,4-dihydro-2,4-dioxo-1(2H)-pyrimidinepropanoic acid", "1(2H)-Pyrimidinepropanoic acid, \u03b1-amino-3-[(2-carboxyphenyl)methyl]-3,4-dihydro-2,4-dioxo-, (\u03b1S)-", "(\u03b1S)-\u03b1-Amino-3-[(2-carboxyphenyl)methyl]-3,4-dihydro-2,4-dioxo-1(2H)-pyrimidinepropanoic acid", "UBP 302"], "SMILES": "C(N1C(=O)N(CC(C(O)=O)N)C=CC1=O)C2=C(C(O)=O)C=CC=C2", "physical_data": {"Molecular Weight": "333.30", "Molecular Formula": "C15H15N3O6", "Melting Point": "207.9-208.5 \u00b0C (decomp)"}}