{"cas_no": "7450-57-9", "cn_name": "3-\u6c28\u57fa-4-\u7f9f\u57fa\u82ef\u7532\u9178", "en_name": ["3-Amino-4-hydroxybenzoic acid hydrazide", "Benzoic acid, 3-amino-4-hydroxy-, hydrazide", "3-Amino-4-hydroxybenzoic acid hydrazide", "(3-Amino-4-hydroxybenzoyl)hydrazine", "3-Amino-4-hydroxybenzhydrazide", "3-Amino-4-hydroxybenzohydrazide"], "SMILES": "C(NN)(=O)C1=CC(N)=C(O)C=C1", "physical_data": {"Molecular Weight": "167.17", "Molecular Formula": "C7H9N3O2", "Melting Point": "243 \u00b0C (decomp)"}}