{"cas_no": "74503-07-4", "cn_name": "\u8349\u9170\u6c2f\u5355\u70ef\u4e19\u916f", "en_name": ["2-Propen-1-yl 2-chloro-2-oxoacetate", "Acetic acid, 2-chloro-2-oxo-, 2-propen-1-yl ester", "Acetic acid, chlorooxo-, 2-propenyl ester", "2-Propen-1-yl 2-chloro-2-oxoacetate", "Allyl oxalyl chloride", "Allyl 2-chloro-2-oxoacetate"], "SMILES": "C(C(Cl)=O)(OCC=C)=O", "physical_data": {"Molecular Weight": "148.54", "Molecular Formula": "C5H5ClO3", "Boiling Point": "50-51 \u00b0C @ Press: 12 Torr"}}