{"cas_no": "7450-69-3", "cn_name": "\u82ef\u57fa\u78f7\u4e8c\u9170\u80fa", "en_name": ["Phenyl phosphorodiamidate", "Phosphorodiamidic acid, phenyl ester", "Phenyl phosphorodiamidate", "Diamidophosphoric acid phenyl ester", "Phenyl diamidophosphate", "Phenyl phosphate diamide", "Phosphoric acid phenyl ester diamide", "[(Diaminophosphoryl)oxy]benzene"], "SMILES": "O(P(N)(N)=O)C1=CC=CC=C1", "physical_data": {"Molecular Weight": "172.12", "Molecular Formula": "C6H9N2O2P", "Melting Point": "185 \u00b0C"}}