{"cas_no": "74509-79-8", "cn_name": "\u7f9f\u6c2f\u55b9\u6742\u8d28G", "en_name": ["5-[Ethyl(2-hydroxyethyl)amino]-2-pentanone", "2-Pentanone, 5-[ethyl(2-hydroxyethyl)amino]-", "5-[Ethyl(2-hydroxyethyl)amino]-2-pentanone", "5-[N-Ethyl-N-(2-hydroxyethyl)amino]-2-pentanone"], "SMILES": "N(CCCC(C)=O)(CCO)CC", "physical_data": {"Molecular Weight": "173.25", "Molecular Formula": "C9H19NO2", "Boiling Point": "89-90 \u00b0C @ Press: 0.35 Torr"}}