{"cas_no": "745047-53-4", "cn_name": "N1-2,4-\u4e8c\u7532\u6c27\u57fa\u82c4\u57fa-N2-2-\u5421\u5576\u57fa\u4e59\u57fa\u8349\u9170\u80fa", "en_name": ["N1-[(2,4-Dimethoxyphenyl)methyl]-N2-[2-(2-pyridinyl)ethyl]ethanediamide", "Ethanediamide, N1-[(2,4-dimethoxyphenyl)methyl]-N2-[2-(2-pyridinyl)ethyl]-", "Ethanediamide, N-[(2,4-dimethoxyphenyl)methyl]-N\u2032-[2-(2-pyridinyl)ethyl]-", "N1-[(2,4-Dimethoxyphenyl)methyl]-N2-[2-(2-pyridinyl)ethyl]ethanediamide"], "SMILES": "C(NC(C(NCCC1=CC=CC=N1)=O)=O)C2=C(OC)C=C(OC)C=C2", "physical_data": {"Molecular Weight": "343.38", "Molecular Formula": "C18H21N3O4", "Melting Point": "123-124 \u00b0C"}}