{"cas_no": "7451-98-1", "cn_name": "3,4-\u4e8c\u7f9f\u57fa\u82ef\u4e19\u916e", "en_name": ["3\u2032,4\u2032-Dihydroxypropiophenone", "1-Propanone, 1-(3,4-dihydroxyphenyl)-", "Propiophenone, 3\u2032,4\u2032-dihydroxy-", "1-(3,4-Dihydroxyphenyl)-1-propanone", "3,4-Dihydroxypropiophenone", "1,2-Dihydroxy-4-propionylbenzene", "NSC 63842", "3\u2032,4\u2032-Dihydroxypropiophenone"], "SMILES": "C(CC)(=O)C1=CC(O)=C(O)C=C1", "physical_data": {"Molecular Weight": "166.17", "Molecular Formula": "C9H10O3", "Melting Point": "146 \u00b0C"}}