{"cas_no": "7452-59-7", "cn_name": "\u6c2f\u7532\u9178\u6b63\u8f9b\u916f", "en_name": ["Octyl carbonochloridate", "Carbonochloridic acid, octyl ester", "Formic acid, chloro-, octyl ester", "Octyl carbonochloridate", "Octyl chloroformate", "1-Octyl chloroformate", "n-Octyl chloroformate"], "SMILES": "C(CCCCCC)COC(Cl)=O", "physical_data": {"Molecular Weight": "192.68", "Molecular Formula": "C9H17ClO2", "Boiling Point": "119-123 \u00b0C @ Press: 30 Torr"}}