{"cas_no": "7452-79-1", "cn_name": "2-\u7532\u57fa\u4e01\u9178\u4e59\u916f", "en_name": ["Ethyl 2-methylbutanoate", "Butanoic acid, 2-methyl-, ethyl ester", "Butyric acid, 2-methyl-, ethyl ester", "Ethyl 2-methylbutyrate", "Ethyl \u03b1-methylbutyrate", "Ethyl 2-methylbutanoate", "2-Methylbutyric acid ethyl ester", "NSC 1103", "2-Methylbutanoic acid ethyl ester", "(\u00b1)-Ethyl 2-methylbutanoate"], "SMILES": "C(C(CC)C)(OCC)=O", "physical_data": {"Molecular Weight": "130.18", "Molecular Formula": "C7H14O2", "Boiling Point": "133.1 \u00b0C", "Density": "0.8687 g/cm\u00b3 @ Temp: 20 \u00b0C"}}