{"cas_no": "7453-26-1", "cn_name": "1,3-\u4e8c\u7532\u57fa-1,1,3,3-\u56db\u82ef\u57fa\u4e8c\u7532\u7845\u57fa\u80fa", "en_name": ["1-Methyl-N-(methyldiphenylsilyl)-1,1-diphenylsilanamine", "Silanamine, 1-methyl-N-(methyldiphenylsilyl)-1,1-diphenyl-", "Disilazane, 1,3-dimethyl-1,1,3,3-tetraphenyl-", "1-Methyl-N-(methyldiphenylsilyl)-1,1-diphenylsilanamine", "1,3-Dimethyl-1,1,3,3-tetraphenyldisilazane", "Bis(methyldiphenylsilyl)amine", "1,1,3,3-Tetraphenyl-1,3-dimethyldisilazane"], "SMILES": "[Si](N[Si](C)(C1=CC=CC=C1)C2=CC=CC=C2)(C)(C3=CC=CC=C3)C4=CC=CC=C4", "physical_data": {"Molecular Weight": "409.67", "Molecular Formula": "C26H27NSi2", "Boiling Point": "218-231 \u00b0C @ Press: 1-2 Torr", "Melting Point": "90.5-91.5 \u00b0C"}}