{"cas_no": "74563-64-7", "cn_name": "\u690d\u70f7\u4e09\u9187 (\u5f02\u6784\u4f53\u6df7\u548c\u7269)", "en_name": ["Phytantriol", "1,2,3-Hexadecanetriol, 3,7,11,15-tetramethyl-", "3,7,11,15-Tetramethyl-1,2,3-hexadecanetriol", "Phytanetriol", "Phytantriol"], "SMILES": "C(CCCC(CCCC(CCCC(C)C)C)C)(C(CO)O)(C)O", "physical_data": {"Molecular Weight": "330.55", "Molecular Formula": "C20H42O3", "Boiling Point": "130 \u00b0C @ Press: 0.01 Torr"}}