{"cas_no": "74568-07-3", "cn_name": "\u676f[4]\u82b3\u70c3", "en_name": ["25,26,27,28-Tetrahydroxycalix[4]arene", "Pentacyclo[19.3.1.13,7.19,13.115,19]octacosa-1(25),3,5,7(28),9,11,13(27),15,17,19(26),21,23-dodecaene-25,26,27,28-tetrol", "25,26,27,28-Tetrahydroxycalix[4]arene", "Calix[4]arene-25,26,27,28-tetrol", "Calix[4]arenetetrol", "Calix[4]arene", "Pentacyclo[19.3.1.13,7.19,13.115,19]octacosa-1(25),3,5,7(28),9,11,13(27),15,17,19(26),21,23-dodecaene-5,25,26,27-tetrol", "CALX 4", "Pentacyclo[19.3.1.13,7.19,13.115,19]octacosa-1(25),3,5,7(28),9,11,13(27),15,17,19(26),21,23-dodecaene-5,17,25,27-tetrol"], "SMILES": "OC=1C=2CC=3C(O)=C(CC=4C(O)=C(CC5=C(O)C(CC1C=CC2)=CC=C5)C=CC4)C=CC3", "physical_data": {"Molecular Weight": "424.49", "Molecular Formula": "C28H24O4", "Melting Point": "313 \u00b0C"}}