{"cas_no": "74586-53-1", "cn_name": "3-\u6eb4-5-\u7532\u57fa\u82ef\u80fa", "en_name": ["3-Bromo-5-methylbenzenamine", "Benzenamine, 3-bromo-5-methyl-", "3-Bromo-5-methylbenzenamine", "3-Bromo-5-methylaniline", "(3-Bromo-5-methylphenyl)amine"], "SMILES": "BrC1=CC(C)=CC(N)=C1", "physical_data": {"Molecular Weight": "186.05", "Molecular Formula": "C7H8BrN", "Boiling Point": "150-151 \u00b0C @ Press: 15 Torr"}}