{"cas_no": "7459-46-3", "cn_name": "1,1,2-\u4e59\u70f7\u4e09\u7fa7\u9178\u4e09\u4e59\u916f", "en_name": ["Triethyl 1,1,2-ethanetricarboxylate", "1,1,2-Ethanetricarboxylic acid, 1,1,2-triethyl ester", "1,1,2-Ethanetricarboxylic acid, triethyl ester", "Triethyl ethane-1,2,2-tricarboxylate", "1,1,2-Tricarbethoxyethane", "Triethyl ethanetricarboxylate", "Diethyl 2-carbethoxysuccinate", "Triethyl 1,1,2-ethanetricarboxylate", "2-Ethoxycarbonylsuccinic acid diethyl ester", "NSC 78463", "1,1,2-Triethyl ethane-1,1,2-tricarboxylate"], "SMILES": "C(CC(OCC)=O)(C(OCC)=O)C(OCC)=O", "physical_data": {"Molecular Weight": "246.26", "Molecular Formula": "C11H18O6", "Boiling Point": "139-142 \u00b0C @ Press: 7 Torr", "Density": "1.1018 g/cm\u00b3 @ Temp: 22 \u00b0C"}}