{"cas_no": "7459-63-4", "cn_name": "2,4-\u4e8c\u7f9f\u57fa-6-\u82ef\u57fa-1,3,5-\u4e09\u55ea", "en_name": ["6-Phenyl-1,3,5-triazine-2,4(1H,3H)-dione", "1,3,5-Triazine-2,4(1H,3H)-dione, 6-phenyl-", "s-Triazine-2,4-diol, 6-phenyl-", "s-Triazine-2,4(1H,3H)-dione, 6-phenyl-", "6-Phenyl-1,3,5-triazine-2,4(1H,3H)-dione", "2,4-Dihydroxy-6-phenyl-s-triazine"], "SMILES": "O=C1NC(=NC(=O)N1)C2=CC=CC=C2", "physical_data": {"Molecular Weight": "189.17", "Molecular Formula": "C9H7N3O2", "Melting Point": "283-284 \u00b0C"}}