{"cas_no": "7459-33-8", "cn_name": "\u4e9a\u9ebb\u9170\u6c2f", "en_name": ["Linoleoyl chloride", "9,12-Octadecadienoyl chloride, (9Z,12Z)-", "Linoleoyl chloride", "9,12-Octadecadienoyl chloride, (Z,Z)-", "(9Z,12Z)-9,12-Octadecadienoyl chloride", "Linoleic acid chloride", "(Z,Z)-Octadeca-9,12-dienoyl chloride", "(9Z,12Z)-Octadeca-9,12-dienoyl chloride"], "SMILES": "C(CC=CCC=CCCCCC)CCCCCC(Cl)=O", "physical_data": {"Molecular Weight": "298.89", "Molecular Formula": "C18H31ClO", "Boiling Point": "163-164 \u00b0C @ Press: 0.5-1.0 Torr", "Density": "0.91 g/cm\u00b3 @ Temp: 20 \u00b0C"}}