{"cas_no": "7460-84-6", "cn_name": "\u786c\u8102\u9178\u7f29\u6c34\u7518\u6cb9\u57fa\u916f", "en_name": ["Glycidyl stearate", "Octadecanoic acid, 2-oxiranylmethyl ester", "Stearic acid, 2,3-epoxypropyl ester", "Octadecanoic acid, oxiranylmethyl ester", "1-Propanol, 2,3-epoxy-, stearate", "Glycidyl stearate", "Stearic acid glycidyl ester", "Glycidol stearate", "Glycidyl octadecanoate", "NSC 404228"], "SMILES": "C(OC(CCCCCCCCCCCCCCCCC)=O)C1CO1", "physical_data": {"Molecular Weight": "340.54", "Molecular Formula": "C21H40O3", "Boiling Point": "193 \u00b0C @ Press: 1 Torr", "Melting Point": "50.5-51.3 \u00b0C", "Density": "0.8867 g/cm\u00b3 @ Temp: 60 \u00b0C"}}