{"cas_no": "7460-43-7", "cn_name": "3-\u7f9f\u57fa-1-\u7532\u6c27\u57fa-2-\u7532\u57fa\u84bd\u918c", "en_name": ["Rubiadin 1-methyl ether", "9,10-Anthracenedione, 3-hydroxy-1-methoxy-2-methyl-", "Anthraquinone, 3-hydroxy-1-methoxy-2-methyl-", "3-Hydroxy-1-methoxy-2-methyl-9,10-anthracenedione", "Rubiadin 1-methyl ether", "NSC 59063", "3-Hydroxy-1-methoxy-2-methylanthraquinone"], "SMILES": "O(C)C1=C2C(C(=O)C=3C(C2=O)=CC=CC3)=CC(O)=C1C", "physical_data": {"Molecular Weight": "268.26", "Molecular Formula": "C16H12O4", "Melting Point": "291 \u00b0C"}}