{"cas_no": "7460-82-4", "cn_name": "\u4e8c\u4e59\u4e8c\u9187\u53cc\u5bf9\u7532\u82ef\u78fa\u9178\u916f", "en_name": ["Ethanol, 2,2\u2032-oxybis-, 1,1\u2032-bis(4-methylbenzenesulfonate)", "Ethanol, 2,2\u2032-oxybis-, 1,1\u2032-bis(4-methylbenzenesulfonate)", "Ethanol, 2,2\u2032-oxybis-, bis(4-methylbenzenesulfonate)", "Diethylene glycol di-p-toluenesulfonate", "Diethylene glycol ditosylate", "Bis[\u03b2-(4-toluenesulfonyloxy)ethyl] ether", "2,2\u2032-Oxybis(ethyl tosylate)", "3-Oxapentane-1,5-diol ditosylate", "Bis(2-tosyloxyethyl) ether", "Diethylene glycol bis(4-toluenesulfonate)", "3-Oxa-1,5-pentanediyl bis(p-toluenesulfonate)", "1,5-Bis(p-tolylsulfonyloxy)-3-oxapentane", "1,5-Bis(tosyloxy)-3-oxapentane", "Diethylene glycol di-p-tosylate", "Diethylene glycol bis(p-toluenesulfonate)", "Diethylene glycol bis(p-tosylate)", "2,2\u2032-Oxybisethanol bis(4-methylbenzenesulfonate)", "Di(2-tosyloxyethyl) ether", "NSC 404215", "2-[2-(4-Methylphenyl)sulfonyloxyethoxy]ethyl 4-methylphenylsulfonate", "2-[2-(4-Methylphenyl)sulfonyloxyethoxy]ethyl 4-methylbenzenesulfonate"], "SMILES": "S(OCCOCCOS(=O)(=O)C1=CC=C(C)C=C1)(=O)(=O)C2=CC=C(C)C=C2", "physical_data": {"Molecular Weight": "414.49", "Molecular Formula": "C18H22O7S2", "Melting Point": "87-89 \u00b0C"}}