{"cas_no": "74610-55-2", "cn_name": "\u9152\u77f3\u9178\u6cf0\u4e50\u83cc\u7d20", "en_name": ["Tylosin tartrate", "Tylosin, (2R,3R)-2,3-dihydroxybutanedioate (1:1)", "Tylosin, [R-(R*,R*)]-2,3-dihydroxybutanedioate (1:1) (salt)", "Tylosin, (2R,3R)-2,3-dihydroxybutanedioate (1:1) (salt)", "Oxacyclohexadecane, tylosin deriv.", "Pharmasin", "Tylan Injectable", "Tylan Soluble", "Tylosin tartrate"], "SMILES": "C(C(C(O)=O)O)(C(O)=O)O.O(C1C(N(C)C)C(O)C(OC2C(CC=O)CC(C)C(=O)C=CC(C)=CC(COC3C(OC)C(OC)C(O)C(C)O3)C(CC)OC(=O)CC(O)C2C)OC1C)C4CC(C)(O)C(O)C(C)O4", "physical_data": {"Molecular Weight": "", "Molecular Formula": "C46H77NO17.C4H6O6", "Melting Point": "140-146 \u00b0C"}}