{"cas_no": "7461-60-1", "cn_name": "2,3-\u4e8c\u7532\u6c27\u57fa\u8089\u6842\u9178", "en_name": ["3-(2,3-Dimethoxyphenyl)-2-propenoic acid", "2-Propenoic acid, 3-(2,3-dimethoxyphenyl)-", "Cinnamic acid, 2,3-dimethoxy-", "3-(2,3-Dimethoxyphenyl)-2-propenoic acid", "2,3-Dimethoxycinnamic acid", "NSC 235795", "NSC 403612"], "SMILES": "O(C)C1=C(C=CC(O)=O)C=CC=C1OC", "physical_data": {"Molecular Weight": "208.21", "Molecular Formula": "C11H12O4", "Melting Point": "180 \u00b0C"}}