{"cas_no": "7461-02-1", "cn_name": "\u56db\u6c22\u9ec4\u8fde\u78b1", "en_name": ["(\u00b1)-Stylopine", "4H-Bis[1,3]benzodioxolo[5,6-a:4\u2032,5\u2032-g]quinolizine, 6,7,12b,13-tetrahydro-", "Berbine, 2,3:9,10-bis(methylenedioxy)-, (\u00b1)-", "6,7,12b,13-Tetrahydro-4H-bis[1,3]benzodioxolo[5,6-a:4\u2032,5\u2032-g]quinolizine", "(\u00b1)-Tetrahydrocoptisine", "(RS)-Stylopine", "dl-Stylopine", "(\u00b1)-Stylopine", "dl-Tetrahydrocoptisine", "Tetrahydrocoptisine", "2,3:9,10-Bis(methylenedioxy)berbine", "NSC 110382", "NSC 404529", "Chelidamine"], "SMILES": "C12C=3C(=CC4=C(C3)OCO4)CCN1CC=5C(C2)=CC=C6C5OCO6", "physical_data": {"Molecular Weight": "323.34", "Molecular Formula": "C19H17NO4", "Melting Point": "217-218 \u00b0C"}}