{"cas_no": "7462-86-4", "cn_name": "4-\u54cc\u5576\u7532\u9178\u7532\u916f", "en_name": ["4-Piperidinecarboxylic acid, methyl ester, hydrochloride (1:1)", "4-Piperidinecarboxylic acid, methyl ester, hydrochloride (1:1)", "4-Piperidinecarboxylic acid, methyl ester, hydrochloride", "Methyl isonipecotate hydrochloride", "Methyl piperidine-4-carboxylate hydrochloride", "Piperidin-4-carboxylic acid methyl ester hydrochloride"], "SMILES": "C(OC)(=O)C1CCNCC1.Cl", "physical_data": {"Molecular Weight": "", "Molecular Formula": "C7H13NO2.ClH", "Melting Point": "160-161 \u00b0C"}}