{"cas_no": "7463-53-8", "cn_name": "2-(4-\u785d\u57fa\u82ef\u57fa)\u4e01\u9178", "en_name": ["\u03b1-Ethyl-4-nitrobenzeneacetic acid", "Benzeneacetic acid, \u03b1-ethyl-4-nitro-", "Butyric acid, 2-(p-nitrophenyl)-", "\u03b1-Ethyl-4-nitrobenzeneacetic acid", "2-(p-Nitrophenyl)butyric acid", "2-(4-Nitrophenyl)butyric acid", "2-(4-Nitrophenyl)butanoic acid", "DL-\u03b1-(p-Nitrophenyl)butyric acid", "NSC 404387", "NSC 68215"], "SMILES": "C(C(O)=O)(CC)C1=CC=C(N(=O)=O)C=C1", "physical_data": {"Molecular Weight": "209.20", "Molecular Formula": "C10H11NO4", "Melting Point": "122-123 \u00b0C"}}