{"cas_no": "7463-51-6", "cn_name": "4-\u6eb4-3,5-\u4e8c\u7532\u915a", "en_name": ["4-Bromo-3,5-dimethylphenol", "Phenol, 4-bromo-3,5-dimethyl-", "3,5-Xylenol, 4-bromo-", "4-Bromo-3,5-dimethylphenol", "4-Bromo-3,5-xylenol", "NSC 404385", "3,5-Dimethyl-4-bromophenol", "2-Bromo-3-methyl-5-hydroxytoluene"], "SMILES": "BrC1=C(C)C=C(O)C=C1C", "physical_data": {"Molecular Weight": "201.06", "Molecular Formula": "C8H9BrO", "Melting Point": "116 \u00b0C"}}