{"cas_no": "7463-35-6", "cn_name": "3-\u6c2f-2-\u7532\u57fa\u4e59\u9170\u82ef\u80fa", "en_name": ["N-(3-Chloro-2-methylphenyl)acetamide", "Acetamide, N-(3-chloro-2-methylphenyl)-", "o-Acetotoluidide, 3\u2032-chloro-", "N-(3-Chloro-2-methylphenyl)acetamide", "3\u2032-Chloro-2\u2032-methylacetanilide", "2-Methyl-3-chloroacetanilide", "NSC 404347", "N-Acetyl-3-chloro-2-methylaniline", "3-Chloro-2-methyl-N-acetylaniline"], "SMILES": "N(C(C)=O)C1=C(C)C(Cl)=CC=C1", "physical_data": {"Molecular Weight": "183.63", "Molecular Formula": "C9H10ClNO", "Melting Point": "156 \u00b0C"}}