{"cas_no": "7463-31-2", "cn_name": "3-\u4e59\u9170\u80fa\u57fa\u82ef\u4e59\u916e", "en_name": ["N-(3-Acetylphenyl)acetamide", "Acetamide, N-(3-acetylphenyl)-", "Acetanilide, 3\u2032-acetyl-", "N-(3-Acetylphenyl)acetamide", "3\u2032-Acetamidoacetophenone", "3\u2032-(Acetylamino)acetophenone", "1-[3-(Acetylamino)phenyl]ethanone", "3\u2032-Acetylacetanilide", "m-Acetamidoacetophenone", "3-Acetamidoacetophenone", "NSC 404340", "3-Acetylacetanilide"], "SMILES": "N(C(C)=O)C1=CC(C(C)=O)=CC=C1", "physical_data": {"Molecular Weight": "177.20", "Molecular Formula": "C10H11NO2", "Melting Point": "127-128 \u00b0C"}}