{"cas_no": "7464-56-4", "cn_name": "\u70ef\u4e19\u57fa-ALPHA-D-\u5421\u5583\u8461\u8404\u7cd6\u82f7", "en_name": ["Allyl \u03b1-D-glucopyranoside", "\u03b1-D-Glucopyranoside, 2-propen-1-yl", "Glucopyranoside, allyl, \u03b1-D-", "\u03b1-D-Glucopyranoside, 2-propenyl", "2-Propen-1-yl \u03b1-D-glucopyranoside", "Allyl \u03b1-D-glucopyranoside", "NSC 404076", "\u03b1-D-Glucose monoallyl ether"], "SMILES": "O(CC=C)C1OC(CO)C(O)C(O)C1O", "physical_data": {"Molecular Weight": "220.22", "Molecular Formula": "C9H16O6", "Melting Point": "100.5-101.5 \u00b0C"}}