{"cas_no": "74654-07-2", "cn_name": "3,6,9-\u4e09\u6c27\u6742-1-\u6c28\u57fa\u7678\u70f7", "en_name": ["2-[2-(2-Methoxyethoxy)ethoxy]ethanamine", "Ethanamine, 2-[2-(2-methoxyethoxy)ethoxy]-", "Ethylamine, 2-[2-(2-methoxyethoxy)ethoxy]-", "2-[2-(2-Methoxyethoxy)ethoxy]ethanamine", "3,6,9-Trioxa-1-aminodecane", "2-[2-(2-Methoxyethoxy)ethoxy]ethylamine", "Tri(ethylene glycol) methyl ether amine", "1-[2-(2-Aminoethoxy)ethoxy]-2-methoxyethane", "2-(2-(2-Methoxyethoxy)ethoxy)ethan-1-amine"], "SMILES": "C(COCCN)OCCOC", "physical_data": {"Molecular Weight": "163.21", "Molecular Formula": "C7H17NO3", "Boiling Point": "106 \u00b0C @ Press: 11 Torr"}}