{"cas_no": "74654-06-1", "cn_name": "\u53e0\u6c2e\u4e09\u7518\u9187\u5355\u7532\u919a", "en_name": ["1-(2-Azidoethoxy)-2-(2-methoxyethoxy)ethane", "Ethane, 1-(2-azidoethoxy)-2-(2-methoxyethoxy)-", "1-(2-Azidoethoxy)-2-(2-methoxyethoxy)ethane", "1-Azido-2-[2-(2-methoxyethoxy)ethoxy]ethane", "2-(2-(2-Methoxyethoxy)ethoxy)ethyl azide", "Triethylene glycol methyl ether azide"], "SMILES": "C(COCCOC)OCCN=[N+]=[N-]", "physical_data": {"Molecular Weight": "", "Molecular Formula": "C7H15N3O3", "Boiling Point": "58 \u00b0C @ Press: 0.01 Torr"}}