{"cas_no": "74650-71-8", "cn_name": "2-\u6c2f-5-\u7532\u6c27\u57fa\u70df\u9178", "en_name": ["2-Chloro-5-methoxy-3-pyridinecarboxylic acid", "3-Pyridinecarboxylic acid, 2-chloro-5-methoxy-", "2-Chloro-5-methoxy-3-pyridinecarboxylic acid", "2-Chloro-5-methoxynicotinic acid"], "SMILES": "C(O)(=O)C=1C=C(OC)C=NC1Cl", "physical_data": {"Molecular Weight": "187.58", "Molecular Formula": "C7H6ClNO3", "Melting Point": "167.2-168.7 \u00b0C"}}