{"cas_no": "746658-74-2", "cn_name": "1-(\u53d4\u4e01\u6c27\u7fb0\u57fa)-2-\u7532\u57fa\u54cc\u5576-2-\u7fa7\u9178", "en_name": ["1,2-Piperidinedicarboxylic acid, 2-methyl-, 1-(1,1-dimethylethyl) ester", "1,2-Piperidinedicarboxylic acid, 2-methyl-, 1-(1,1-dimethylethyl) ester", "1-[(tert-Butoxy)carbonyl]-2-methylpiperidine-2-carboxylic acid", "1-(tert-Butoxycarbonyl)-2-methylpiperidine-2-carboxylic acid", "2-Methyl-1-[(2-methylpropan-2-yl)oxycarbonyl]piperidine-2-carboxylic acid"], "SMILES": "C(O)(=O)C1(C)N(C(OC(C)(C)C)=O)CCCC1", "physical_data": {"Molecular Weight": "243.30", "Molecular Formula": "C12H21NO4", "Melting Point": "92-94 \u00b0C"}}