{"cas_no": "7466-54-8", "cn_name": "2-\u7532\u6c27\u57fa\u4e9a\u82ef\u57fa\u80bc", "en_name": ["2-Methoxybenzohydrazide", "Benzoic acid, 2-methoxy-, hydrazide", "o-Anisic acid, hydrazide", "(2-Methoxybenzoyl)hydrazine", "o-Methoxybenzoic acid hydrazide", "o-Methoxybenzohydrazide", "o-Methoxybenzoyl hydrazide", "2-Methoxybenzoic acid hydrazide", "(o-Methoxybenzoyl)hydrazine", "2-Methoxybenzohydrazide", "2-Methoxybenzhydrazide", "NSC 402658"], "SMILES": "C(NN)(=O)C1=C(OC)C=CC=C1", "physical_data": {"Molecular Weight": "166.18", "Molecular Formula": "C8H10N2O2", "Melting Point": "80-81 \u00b0C"}}