{"cas_no": "7469-77-4", "cn_name": "2-\u7532\u57fa-1-\u8418\u915a", "en_name": ["2-Methyl-1-naphthol", "1-Naphthalenol, 2-methyl-", "1-Naphthol, 2-methyl-", "2-Methyl-1-naphthalenol", "2-Methyl-1-naphthol", "2-Methyl-\u03b1-naphthol", "1-Hydroxy-2-methylnaphthalene", "1-Hydroxy-2-methylnaphththalene", "NSC 402211"], "SMILES": "OC=1C2=C(C=CC1C)C=CC=C2", "physical_data": {"Molecular Weight": "158.20", "Molecular Formula": "C11H10O", "Melting Point": "62.4 \u00b0C"}}