{"cas_no": "7470-14-6", "cn_name": "3-\u83f2\u7532\u9178", "en_name": ["3-Phenanthrenecarboxylic acid", "3-Phenanthrenecarboxylic acid", "NSC 402374"], "SMILES": "C(O)(=O)C1=CC2=C3C(=CC=C2C=C1)C=CC=C3", "physical_data": {"Molecular Weight": "222.24", "Molecular Formula": "C15H10O2", "Melting Point": "270 \u00b0C"}}