{"cas_no": "7471-63-8", "cn_name": "7-\u7532\u57fa-8-\u785d\u57fa\u55b9\u5549", "en_name": ["7-Methyl-8-nitroquinoline", "Quinoline, 7-methyl-8-nitro-", "7-Methyl-8-nitroquinoline", "8-Nitro-7-methylquinoline", "NSC 401260"], "SMILES": "N(=O)(=O)C=1C2=C(C=CC1C)C=CC=N2", "physical_data": {"Molecular Weight": "188.18", "Molecular Formula": "C10H8N2O2", "Melting Point": "183 \u00b0C"}}