{"cas_no": "7471-03-6", "cn_name": "4-\u7f9f\u57fa-2-\u6c28\u57fa\u82ef\u5e76\u567b\u5511", "en_name": ["2-Amino-4-benzothiazolol", "4-Benzothiazolol, 2-amino-", "2-Amino-4-benzothiazolol", "NSC 403535", "2-Amino-4-hydroxybenzothiazole", "2-Amino-1,3-benzothiazol-4-ol", "2-Aminobenzothiazol-4-ol"], "SMILES": "OC1=C2C(SC(N)=N2)=CC=C1", "physical_data": {"Molecular Weight": "166.20", "Molecular Formula": "C7H6N2OS", "Melting Point": "186 \u00b0C"}}