{"cas_no": "74712-19-9", "cn_name": "\u6eb4\u4e01\u9170\u8349\u80fa", "en_name": ["Bromobutide", "Butanamide, 2-bromo-3,3-dimethyl-N-(1-methyl-1-phenylethyl)-", "2-Bromo-3,3-dimethyl-N-(1-methyl-1-phenylethyl)butanamide", "S 47", "S 47 (pesticide)", "Bromobutide", "S 4347", "Sumiherb", "2-Bromo-3,3-dimethyl-N-(\u03b1,\u03b1-dimethylbenzyl)butyramide", "2-Bromo-N-(\u03b1,\u03b1-dimethylbenzyl)-3,3-dimethylbutanamide"], "SMILES": "C(NC(C(C(C)(C)C)Br)=O)(C)(C)C1=CC=CC=C1", "physical_data": {"Molecular Weight": "312.25", "Molecular Formula": "C15H22BrNO", "Melting Point": "180.1 \u00b0C"}}