{"cas_no": "7472-43-7", "cn_name": "6-\u82ef\u9170\u5df1\u9178", "en_name": ["\u03b6-Oxobenzeneheptanoic acid", "Benzeneheptanoic acid, \u03b6-oxo-", "Hexanoic acid, 6-benzoyl-", "\u03b6-Oxobenzeneheptanoic acid", "7-Oxo-7-phenylheptanoic acid", "7-Phenyl-7-oxoheptanoic acid", "6-Benzoylhexanoic acid", "NSC 401949"], "SMILES": "C(CCCCCC(O)=O)(=O)C1=CC=CC=C1", "physical_data": {"Molecular Weight": "220.26", "Molecular Formula": "C13H16O3", "Melting Point": "82-83 \u00b0C"}}