{"cas_no": "74728-65-7", "cn_name": "1-\u7532\u57fa-6-\u6c28\u57fa-1H-\u5432\u5511", "en_name": ["1-Methyl-1H-indazol-6-amine", "1H-Indazol-6-amine, 1-methyl-", "1H-Indazole, 6-amino-1-methyl-", "1-Methyl-1H-indazol-6-amine", "1-Methyl-6-indazolamine", "6-Amino-1-methylindazole", "1-Methyl-6-amino-1H-indazole", "(1-Methyl-1H-indazol-6-yl)amine", "(1-Methylindazol-6-yl)amine"], "SMILES": "CN1C=2C(=CC=C(N)C2)C=N1", "physical_data": {"Molecular Weight": "147.18", "Molecular Formula": "C8H9N3", "Melting Point": "172-173 \u00b0C"}}