{"cas_no": "74738-17-3", "cn_name": "\u62cc\u79cd\u54af", "en_name": ["Fenpiclonil", "1H-Pyrrole-3-carbonitrile, 4-(2,3-dichlorophenyl)-", "4-(2,3-Dichlorophenyl)-1H-pyrrole-3-carbonitrile", "3-(2,3-Dichlorophenyl)-4-cyanopyrrole", "4-Cyano-3-(2,3-dichlorophenyl)pyrrole", "Fenpiclonil", "CGA 142705", "Beret"], "SMILES": "C(#N)C=1C(=CNC1)C2=C(Cl)C(Cl)=CC=C2", "physical_data": {"Molecular Weight": "237.08", "Molecular Formula": "C11H6Cl2N2", "Melting Point": "147 \u00b0C"}}