{"cas_no": "74733-30-5", "cn_name": "4-(\u6eb4\u7532\u57fa)-3-\u6c2f\u82ef\u7532\u9178\u7532\u916f", "en_name": ["Benzoic acid, 4-(bromomethyl)-3-chloro-, methyl ester", "Benzoic acid, 4-(bromomethyl)-3-chloro-, methyl ester", "Methyl 4-bromomethyl-3-chlorobenzoate", "4-(Bromomethyl)-3-chlorobenzoic acid methyl ester"], "SMILES": "C(OC)(=O)C1=CC(Cl)=C(CBr)C=C1", "physical_data": {"Molecular Weight": "263.52", "Molecular Formula": "C9H8BrClO2", "Melting Point": "65 \u00b0C"}}