{"cas_no": "7473-98-5", "cn_name": "\u5149\u5f15\u53d1\u5242 1173", "en_name": ["2-Hydroxy-2-methyl-1-phenylpropan-1-one", "1-Propanone, 2-hydroxy-2-methyl-1-phenyl-", "Propiophenone, 2-hydroxy-2-methyl-", "2-Hydroxy-2-methyl-1-phenyl-1-propanone", "2-Hydroxy-2-methylpropiophenone", "\u03b1-Hydroxyisobutyrophenone", "2-Benzoyl-2-propanol", "1-Phenyl-2-hydroxy-2-methyl-1-propanone", "2-Hydroxy-2-benzoylpropane", "2-Hydroxy-2-methyl-1-phenylpropanone", "2-Hydroxy-2,2-dimethylacetophenone", "1-Hydroxy-1-methylethyl phenyl ketone", "\u03b1-Hydroxy-\u03b1-methylpropiophenone", "UV 1173", "EM 1173", "Darocur 1173", "2-Hydroxy-2-methyl-1-phenylpropane-1-one", "DC 1173", "Irgacure 1173", "\u03b1-Hydroxy-\u03b1,\u03b1-dimethylacetophenone", "2-Benzoyl-2-hydroxypropane", "I 1173", "1-Phenyl-2-methyl-2-hydroxypropanone", "Chivacure 173", "NSC 401744", "FirstCure HMPP", "Benacure 1173", "D 1173", "Darocur 173", "SR 1121", "Sarcure 1121", "Micure HP 8", "IHT-PI 1173", "2-Methyl-2-hydroxy-1-phenyl-1-propanone", "Omnirad 73", "Runtecure 1103", "Additol HDMAP", "DAR 1173", "\u03b1,\u03b1-Dimethyl-\u03b1-hydroxyacetophenone", "Runtecure 1173", "Ciba 1173", "Photocure 1173", "Genocure DMHA", "2-Hydroxy-2-methyl-1-propiophenone", "2-Hydroxy-2-methyl-propylphenone", "Doublecure 173", "IHT-PI 6022", "IHT-PI PBZ", "UV 636", "Genocure DHMA", "Esacure KL 200", "H 0991", "Darocur DR 1173", "2-Hydroxy-2-methyl-1-phenylpropan-1-one", "Chemcure 73", "1173HMPE", "Photoinitiator 1173", "AgiSyn 1810", "IRG 1173", "HMPP", "Methyl-1-phenylpropan-1-one", "JRCure 1103", "2,2-Dimethyl-2-hydroxyacetophenone", "Boxing 1173", "Doublecure 1173", "JRcure 1173", "2-Hydroxy-methylphenylpropan-1-one", "2-Hydroxy-2-methylphenylpropanone", "API 1173", "Hydroxy dimethyl acetophenone", "2-Methyl-3-phenyl-3-oxopropan-2-ol", "Omnirad 1173", "IC 1173", "MV 5002", "Photo 1173", "Darocur 1137", "Gencure 1173", "Darocur 1173D", "Photoinitiator 1173D", "IGM 1173", "PI 1173", "Lunacure 100", "Omnicure 1173", "Speedcure 73", "Darocur 1172", "Omnirad 102", "KL 200", "Photocure 50", "H 15540"], "SMILES": "C(C(C)(C)O)(=O)C1=CC=CC=C1", "physical_data": {"Molecular Weight": "164.20", "Molecular Formula": "C10H12O2", "Boiling Point": "116-118 \u00b0C @ Press: 11 Torr", "Melting Point": "&gt;186 \u00b0C", "Density": "1.0775 g/cm\u00b3 @ Temp: 20 \u00b0C"}}