{"cas_no": "7473-38-3", "cn_name": "\u82c4\u57fa-\u0392-L-\u5421\u5583\u963f\u62c9\u4f2f\u7cd6\u82f7", "en_name": ["Phenylmethyl \u03b2-L-arabinopyranoside", "\u03b2-L-Arabinopyranoside, phenylmethyl", "Arabinopyranoside, benzyl, \u03b2-L-", "Phenylmethyl \u03b2-L-arabinopyranoside", "Benzyl \u03b2-L-arabinopyranoside", "NSC 400277"], "SMILES": "O(CC1=CC=CC=C1)C2C(O)C(O)C(O)CO2", "physical_data": {"Molecular Weight": "240.25", "Molecular Formula": "C12H16O5", "Melting Point": "172-173 \u00b0C"}}