{"cas_no": "7473-45-2", "cn_name": "\u7532\u57fa-beta-D-\u544b\u5583\u6838\u7cd6\u82f7", "en_name": ["Methyl \u03b2-D-ribofuranoside", "\u03b2-D-Ribofuranoside, methyl", "Ribofuranoside, methyl, \u03b2-D-", "Methyl \u03b2-D-ribofuranoside", "NSC 400285"], "SMILES": "C(O)C1C(O)C(O)C(OC)O1", "physical_data": {"Molecular Weight": "164.16", "Molecular Formula": "C6H12O5", "Melting Point": "80 \u00b0C"}}