{"cas_no": "74743-23-0", "cn_name": "L-3-(4-\u6c28\u57fa\u82ef\u57fa)-2-\u90bb\u82ef\u4e8c\u7532\u9170\u4e9a\u6c28\u57fa\u4e19\u9178\u4e59\u916f", "en_name": ["Ethyl (\u03b1S)-\u03b1-[(4-aminophenyl)methyl]-1,3-dihydro-1,3-dioxo-2H-isoindole-2-acetate", "2H-Isoindole-2-acetic acid, \u03b1-[(4-aminophenyl)methyl]-1,3-dihydro-1,3-dioxo-, ethyl ester, (\u03b1S)-", "2H-Isoindole-2-acetic acid, \u03b1-[(4-aminophenyl)methyl]-1,3-dihydro-1,3-dioxo-, ethyl ester, (S)-", "Ethyl (\u03b1S)-\u03b1-[(4-aminophenyl)methyl]-1,3-dihydro-1,3-dioxo-2H-isoindole-2-acetate", "NSC 313359", "(S)-Ethyl3-(4-aminophenyl)-2-(1,3-dioxoisoindolin-2-yl)propanoate"], "SMILES": "C(CC1=CC=C(N)C=C1)(C(OCC)=O)N2C(=O)C=3C(C2=O)=CC=CC3", "physical_data": {"Molecular Weight": "338.36", "Molecular Formula": "C19H18N2O4", "Melting Point": "102-103 \u00b0C"}}