{"cas_no": "7474-78-4", "cn_name": "3,4-\u4e8c\u6c28\u57fa\u82ef\u78fa\u9178", "en_name": ["3,4-Diaminobenzenesulfonic acid", "Benzenesulfonic acid, 3,4-diamino-", "3,4-Diaminobenzenesulfonic acid", "NSC 401086", "4-Amino-3-ammoniobenzenesulfonate"], "SMILES": "S(=O)(=O)(O)C1=CC(N)=C(N)C=C1", "physical_data": {"Molecular Weight": "188.20", "Molecular Formula": "C6H8N2O3S", "Melting Point": "&gt;300 \u00b0C"}}