{"cas_no": "7477-67-0", "cn_name": "\u53cc(3-\u7532\u57fa-1-\u82ef\u57fa-5-\u5421\u5511\u5549\u916e)", "en_name": ["4,4\u2032-Bis(1-phenyl-3-methyl-5-pyrazolone)", "[4,4\u2032-Bi-3H-pyrazole]-3,3\u2032-dione, 2,2\u2032,4,4\u2032-tetrahydro-5,5\u2032-dimethyl-2,2\u2032-diphenyl-", "[4,4\u2032-Bi-2-pyrazoline]-5,5\u2032-dione, 3,3\u2032-dimethyl-1,1\u2032-diphenyl-", "2,2\u2032,4,4\u2032-Tetrahydro-5,5\u2032-dimethyl-2,2\u2032-diphenyl[4,4\u2032-bi-3H-pyrazole]-3,3\u2032-dione", "4,4\u2032-Bis(1-phenyl-3-methyl-5-pyrazolone)", "NSC 37393", "NSC 401001", "3-Methyl-4-(3-methyl-5-oxo-1-phenyl-4,5-dihydro-1H-pyrazol-4-yl)-1-phenyl-4,5-dihydro-1H-pyrazol-5-one"], "SMILES": "O=C1C(C(C)=NN1C2=CC=CC=C2)C3C(=O)N(N=C3C)C4=CC=CC=C4", "physical_data": {"Molecular Weight": "346.38", "Molecular Formula": "C20H18N4O2", "Melting Point": "&gt;320 \u00b0C"}}