{"cas_no": "74772-78-4", "cn_name": "5-(4-\u7f9f\u57fa\u82c4\u57fa)\u567b\u5511\u70f7-2,4-\u4e8c\u916e", "en_name": ["5-(4-Hydroxybenzyl)thiazolidine-2,4-dione", "2,4-Thiazolidinedione, 5-[(4-hydroxyphenyl)methyl]-", "5-[(4-Hydroxyphenyl)methyl]-2,4-thiazolidinedione", "U 90441", "5-(4-Hydroxybenzyl)thiazolidine-2,4-dione", "5-(4-Hydroxybenzyl)thiazolidin-2,4-dione"], "SMILES": "C(C1SC(=O)NC1=O)C2=CC=C(O)C=C2", "physical_data": {"Molecular Weight": "223.25", "Molecular Formula": "C10H9NO3S", "Melting Point": "140.7-144.0 \u00b0C"}}