{"cas_no": "74772-17-1", "cn_name": "3-(1H-\u5421\u6d1b-1-\u57fa\uff09\u567b\u5429-2-\u7fa7\u9178", "en_name": ["3-(1H-Pyrrol-1-yl)-2-thiophenecarboxylic acid", "2-Thiophenecarboxylic acid, 3-(1H-pyrrol-1-yl)-", "3-(1H-Pyrrol-1-yl)-2-thiophenecarboxylic acid", "3-(Pyrrol-1-yl)thiophene-2-carboxylic acid", "CC 22101"], "SMILES": "C(O)(=O)C1=C(C=CS1)N2C=CC=C2", "physical_data": {"Molecular Weight": "193.22", "Molecular Formula": "C9H7NO2S", "Melting Point": "185 \u00b0C"}}