{"cas_no": "74772-77-3", "cn_name": "\u916a\u91cc\u8fbe\u5511", "en_name": ["Ciglitazone", "2,4-Thiazolidinedione, 5-[[4-[(1-methylcyclohexyl)methoxy]phenyl]methyl]-", "5-[[4-[(1-Methylcyclohexyl)methoxy]phenyl]methyl]-2,4-thiazolidinedione", "ADD 3878", "Ciglitazone", "U 63287"], "SMILES": "C(C1SC(=O)NC1=O)C2=CC=C(OCC3(C)CCCCC3)C=C2", "physical_data": {"Molecular Weight": "333.45", "Molecular Formula": "C18H23NO3S", "Melting Point": "130-131 \u00b0C"}}