{"cas_no": "74782-23-3", "cn_name": "\u89e3\u8349\u8148", "en_name": ["Oxabetrinil", "Benzeneacetonitrile, \u03b1-[(1,3-dioxolan-2-ylmethoxy)imino]-", "\u03b1-[(1,3-Dioxolan-2-ylmethoxy)imino]benzeneacetonitrile", "CGA 92194", "Concep II", "Oxabetrinil"], "SMILES": "C(=NOCC1OCCO1)(C#N)C2=CC=CC=C2", "physical_data": {"Molecular Weight": "232.24", "Molecular Formula": "C12H12N2O3", "Melting Point": "77.7 \u00b0C"}}