{"cas_no": "7478-69-5", "cn_name": "4'-VIN\u4e9a\u57fa\u53cc(N,N-\u4e8c\u7532\u57fa\u82ef\u80fa)", "en_name": ["4,4\u2032-Ethenylidenebis[N,N-dimethylbenzenamine]", "Benzenamine, 4,4\u2032-ethenylidenebis[N,N-dimethyl-", "Aniline, 4,4\u2032-vinylidenebis[N,N-dimethyl-", "4,4\u2032-Ethenylidenebis[N,N-dimethylbenzenamine]", "4,4\u2032-Vinylidenebis(N,N-dimethylaniline)", "1,1-Bis[p-(dimethylamino)phenyl]ethene", "1,1-Bis(4-dimethylaminophenyl)ethylene", "1,1-Bis[p-(dimethylamino)phenyl]ethylene", "Michler's ethylene", "1,1-Bis[4-(dimethylamino)phenyl]ethene", "NSC 401519"], "SMILES": "C(=C)(C1=CC=C(N(C)C)C=C1)C2=CC=C(N(C)C)C=C2", "physical_data": {"Molecular Weight": "266.38", "Molecular Formula": "C18H22N2", "Melting Point": "121-122 \u00b0C"}}