{"cas_no": "748-97-0", "cn_name": ")-1,2-\u4e8c\u82ef\u57fa-1-[4-[2-(\u4e8c\u7532\u57fa\u6c28\u57fa)\u4e59\u6c27\u57fa]\u82ef\u57fa]\u4e01\u70f7-1-\u9187", "en_name": ["\u03b1-[4-[2-(Dimethylamino)ethoxy]phenyl]-\u03b2-ethyl-\u03b1-phenylbenzeneethanol", "Benzeneethanol, \u03b1-[4-[2-(dimethylamino)ethoxy]phenyl]-\u03b2-ethyl-\u03b1-phenyl-", "1-Butanol, 1-[p-[2-(dimethylamino)ethoxy]phenyl]-1,2-diphenyl-", "\u03b1-[4-[2-(Dimethylamino)ethoxy]phenyl]-\u03b2-ethyl-\u03b1-phenylbenzeneethanol", "(\u00b1)-1,2-Diphenyl-1-[4-[2-(dimethylamino)ethoxy]phenyl]butan-1-ol"], "SMILES": "C(C(CC)C1=CC=CC=C1)(O)(C2=CC=C(OCCN(C)C)C=C2)C3=CC=CC=C3", "physical_data": {"Molecular Weight": "389.53", "Molecular Formula": "C26H31NO2", "Melting Point": "120-121 \u00b0C"}}