{"cas_no": "74805-92-8", "cn_name": "\u9ea6\u51ac\u9ad8\u5f02\u9ec4\u916eA", "en_name": ["Methylophiopogonanone A", "4H-1-Benzopyran-4-one, 3-(1,3-benzodioxol-5-ylmethyl)-2,3-dihydro-5,7-dihydroxy-6,8-dimethyl-, (3R)-", "(3R)-3-(1,3-Benzodioxol-5-ylmethyl)-2,3-dihydro-5,7-dihydroxy-6,8-dimethyl-4H-1-benzopyran-4-one", "Methylophiopogonanone A", "NE-III", "R-Methylophiopogonanone A"], "SMILES": "O=C1C=2C(=C(C)C(O)=C(C)C2O)OCC1CC=3C=C4C(=CC3)OCO4", "physical_data": {"Molecular Weight": "342.34", "Molecular Formula": "C19H18O6", "Melting Point": "142-143 \u00b0C"}}