{"cas_no": "7480-35-5", "cn_name": "(1R,2S)-1-\u6c28\u57fa-2-\u831a\u6ee1\u9187", "en_name": ["cis-1-Amino-2-indanol", "1H-Inden-2-ol, 1-amino-2,3-dihydro-, (1R,2S)-rel-", "2-Indanol, 1-amino-, cis-", "1H-Inden-2-ol, 1-amino-2,3-dihydro-, cis-", "rel-(1R,2S)-1-Amino-2,3-dihydro-1H-inden-2-ol", "(\u00b1)-cis-1-Amino-2-indanol", "cis-1-Amino-2-indanol", "cis-1-Amino-2-hydroxyindan"], "SMILES": "NC1C=2C(CC1O)=CC=CC2", "physical_data": {"Molecular Weight": "149.19", "Molecular Formula": "C9H11NO", "Melting Point": "129-130 \u00b0C"}}