{"cas_no": "74808-10-9", "cn_name": "2,3,4,6-\u56db-O-\u4e59\u9170\u57fa-\u03b1-D-\u5421\u5583\u8461\u8404\u7cd6\u57fa\u4e09\u6c2f\u4e59\u9170\u4e9a\u80fa\u916f", "en_name": ["\u03b1-D-Glucopyranose, 2,3,4,6-tetraacetate 1-(2,2,2-trichloroethanimidate)", "\u03b1-D-Glucopyranose, 2,3,4,6-tetraacetate 1-(2,2,2-trichloroethanimidate)", "2,3,4,6-Tetra-O-acetyl-\u03b1-D-glucopyranosyl trichloroacetimidate", "Tetra-O-acetyl-\u03b1-D-glucose trichloroacetimidate"], "SMILES": "O(C(C)=O)C1C(OC(C)=O)C(OC(C(Cl)(Cl)Cl)=N)OC(COC(C)=O)C1OC(C)=O", "physical_data": {"Molecular Weight": "492.69", "Molecular Formula": "C16H20Cl3NO10", "Melting Point": "66-68 \u00b0C"}}