{"cas_no": "7481-89-2", "cn_name": "\u624e\u897f\u4ed6\u6ee8", "en_name": ["Dideoxycytidine", "Cytidine, 2\u2032,3\u2032-dideoxy-", "2\u2032,3\u2032-Dideoxycytidine", "NSC 606170", "ddC", "Dideoxycytidine", "Ro 24-2027/000", "Zalcitabine", "D 2C", "Hivid", "Dideoxycytosine"], "SMILES": "O=C1N(C2OC(CO)CC2)C=CC(N)=N1", "physical_data": {"Molecular Weight": "211.22", "Molecular Formula": "C9H13N3O3", "Melting Point": "217-218 \u00b0C"}}