{"cas_no": "74844-91-0", "cn_name": "N-Boc-\u53cd\u5f0f-4-\u7f9f\u57fa-L-\u812f\u6c28\u9178\u7532\u916f", "en_name": ["(2S,4R)-4-Hydroxypyrrolidine-1,2-dicarboxylic acid 1-tert-butyl ester 2-methyl ester", "1,2-Pyrrolidinedicarboxylic acid, 4-hydroxy-, 1-(1,1-dimethylethyl) 2-methyl ester, (2S,4R)-", "1,2-Pyrrolidinedicarboxylic acid, 4-hydroxy-, 1-(1,1-dimethylethyl) 2-methyl ester, (2S-trans)-", "N-tert-Butoxycarbonyl-L-hydroxyproline methyl ester", "Methyl N-tert-butoxycarbonyl-L-hydroxyprolinate", "N-Boc-4-hydroxy-L-proline methyl ester", "(2S,4R)-1-tert-Butoxycarbonyl-4-hydroxypyrrolidine-2-carboxylic acid methyl ester", "1-tert-Butyl 2-methyl 4(R)-hydroxypyrrolidine-1,2(S)-dicarboxylate", "tert-Butyl (2S,4R)-2-(methoxycarbonyl)-4-hydroxypyrrolidine-1-carboxylate", "1-tert-Butyl 2-methyl (2S,4R)-4-hydroxy-1,2-pyrrolidinedicarboxylate", "Methyl (2S,4R)-N-tert-Butoxycarbonyl-4-hydroxy-2-pyrrolidinecarboxylate", "(2S,4R)-4-Hydroxypyrrolidine-1,2-dicarboxylic acid 1-tert-butyl ester 2-methyl ester", "N-(tert-Butoxycarbonyl)-(2S,4R)-4-hydroxyproline methyl ester", "Methyl (2S,4R)-N-tert-butoxycarbonyl-4-hydroxy-2-pyrrolidinecarboxylate", "Methyl (4R)-N-Boc-4-hydroxy-L-prolinate", "Methyl (2S,4R)-1-(tert-butoxycarbonyl)-4-hydroxypyrrolidine-2-carboxylate", "tert-Butyl methyl (2S,4R)-4-hydroxypyrrolidine-1,2-dicarboxylate", "N-(tert-Butoxycarbonyl)-(2S,4R)-4-hydroxyproline methyl ester", "(2S,4R)-1-tert-Butoxycarbonyl-2-(methoxycarbonyl)-4-hydroxypyrrolidine", "N-Boc-trans-4-hydroxyproline methyl ester", "(2S,4R)-Methyl 1-(tert-butyloxycarbonyl)-4-hydroxypyrrolidine-2-carboxylate", "1-(tert-Butyl) 2-methyl (2S,4R)-4-hydroxypyrrolidine-1,2-dicarboxylate"], "SMILES": "C(OC(C)(C)C)(=O)N1C(C(OC)=O)CC(O)C1", "physical_data": {"Molecular Weight": "245.27", "Molecular Formula": "C11H19NO5", "Boiling Point": "130-132 \u00b0C @ Press: 0.05 Torr", "Melting Point": "91-94 \u00b0C"}}