{"cas_no": "7484-37-9", "cn_name": "(3-\u82ef\u4e19\u57fa)\u4e09\u82ef\u57fa\u6eb4\u5316\u81a6", "en_name": ["Phosphonium, triphenyl(3-phenylpropyl)-, bromide (1:1)", "Phosphonium, triphenyl(3-phenylpropyl)-, bromide (1:1)", "Phosphonium, triphenyl(3-phenylpropyl)-, bromide", "Triphenyl(3-phenylpropyl)phosphonium bromide", "(3-Phenylpropyl)triphenylphosphonium bromide", "NSC 110598"], "SMILES": "[P+](CCCC1=CC=CC=C1)(C2=CC=CC=C2)(C3=CC=CC=C3)C4=CC=CC=C4.[Br-]", "physical_data": {"Molecular Weight": "", "Molecular Formula": "C27H26P.Br", "Melting Point": "205 \u00b0C"}}