{"cas_no": "74852-61-2", "cn_name": "1-(4-\u7532\u6c27\u57fa\u82ef\u57fa)-4-(4-\u785d\u57fa\u82ef\u57fa)\u54cc\u55ea", "en_name": ["1-(4-Methoxyphenyl)-4-(4-nitrophenyl)piperazine", "Piperazine, 1-(4-methoxyphenyl)-4-(4-nitrophenyl)-", "1-(4-Methoxyphenyl)-4-(4-nitrophenyl)piperazine"], "SMILES": "N(=O)(=O)C1=CC=C(N2CCN(CC2)C3=CC=C(OC)C=C3)C=C1", "physical_data": {"Molecular Weight": "313.35", "Molecular Formula": "C17H19N3O3", "Melting Point": "189-190 \u00b0C"}}