{"cas_no": "74852-62-3", "cn_name": "4-(4-(4-\u7532\u6c27\u57fa\u82ef\u57fa)-1-\u54cc\u55ea\u57fa)\u82ef\u80fa", "en_name": ["4-[4-(4-Methoxyphenyl)-1-piperazinyl]benzenamine", "Benzenamine, 4-[4-(4-methoxyphenyl)-1-piperazinyl]-", "4-[4-(4-Methoxyphenyl)-1-piperazinyl]benzenamine", "1-(4-Aminophenyl)-4-(4-methoxyphenyl)piperazine", "4-(4-(4-Methoxyphenyl)piperazin-1-yl)aniline"], "SMILES": "O(C)C1=CC=C(N2CCN(CC2)C3=CC=C(N)C=C3)C=C1", "physical_data": {"Molecular Weight": "283.37", "Molecular Formula": "C17H21N3O", "Melting Point": "175-180 \u00b0C (decomp)"}}