{"cas_no": "7486-35-3", "cn_name": "\u4e09\u4e01\u57fa\u4e59\u70ef\u57fa\u9521", "en_name": ["Tributylvinyltin", "Stannane, tributylethenyl-", "Stannane, tributylvinyl-", "Tin, tributylvinyl-", "Tributylethenylstannane", "Tributylvinylstannane", "Vinyltributylstannane", "Tributylvinyltin", "Vinyltributyltin", "Ethenyltributylstannane", "(Tributylstannyl)ethene", "(Tributylstannyl)ethylene", "(Ethenyl)tributyltin", "Tributyl(vinyl)stannane"], "SMILES": "[Sn](CCCC)(CCCC)(CCCC)C=C", "physical_data": {"Molecular Weight": "317.10", "Molecular Formula": "C14H30Sn", "Boiling Point": "95 \u00b0C @ Press: 1.5 Torr", "Density": "1.081 g/cm\u00b3 @ Temp: 25 \u00b0C"}}