{"cas_no": "74860-00-7", "cn_name": "\u4f9d\u5339\u65af\u6c40\u6742\u8d285", "en_name": ["2-(11H-Dibenz[b,e]azepin-6-ylmethyl)-1H-isoindole-1,3(2H)-dione", "1H-Isoindole-1,3(2H)-dione, 2-(11H-dibenz[b,e]azepin-6-ylmethyl)-", "11H-Dibenz[b,e]azepine, 1H-isoindole-1,3(2H)-dione deriv.", "2-(11H-Dibenz[b,e]azepin-6-ylmethyl)-1H-isoindole-1,3(2H)-dione"], "SMILES": "C(C=1C=2C(CC=3C(N1)=CC=CC3)=CC=CC2)N4C(=O)C=5C(C4=O)=CC=CC5", "physical_data": {"Molecular Weight": "352.39", "Molecular Formula": "C23H16N2O2", "Melting Point": "205.5-207.5 \u00b0C"}}