{"cas_no": "74877-08-0", "cn_name": "1-(3-\u6eb4\u82ef\u57fa)\u4e59\u80fa", "en_name": ["3-Bromo-\u03b1-methylbenzenemethanamine", "Benzenemethanamine, 3-bromo-\u03b1-methyl-", "Benzylamine, m-bromo-\u03b1-methyl-", "3-Bromo-\u03b1-methylbenzenemethanamine", "\u03b1-Methyl-3-bromobenzenemethanamine", "1-(3-Bromophenyl)ethylamine", "1-(3-Bromophenyl)ethanamine", "1-(3-Bromophenyl)ethan-1-amine", "3-Bromo-\u03b1-methylbenzylamine"], "SMILES": "C(C)(N)C1=CC(Br)=CC=C1", "physical_data": {"Molecular Weight": "200.08", "Molecular Formula": "C8H10BrN", "Boiling Point": "96-97 \u00b0C @ Press: 4 Torr"}}