{"cas_no": "7487-94-7", "cn_name": "\u6c2f\u5316\u6c5e", "en_name": ["Mercuric chloride", "Mercury chloride (HgCl2)", "Mercury chloromercurate(II) (HgCl2)", "Bichloride of mercury", "Calochlor", "Mercuric chloride", "Mercury bichloride", "Mercury perchloride", "Mercury dichloride", "Mercuric bichloride", "Sulem", "Sublimate", "Dichloromercury", "Mercury(II) chloride", "Mercury chloride", "Corrosive sublimate", "CRC", "Mercury dichloride (HgCl2)", "Mercury(2+) chloride", "NSC 353255", "MeSH ID: D008627"], "SMILES": "[Hg](Cl)Cl", "physical_data": {"Molecular Weight": "", "Molecular Formula": "Cl2Hg", "Boiling Point": "302 \u00b0C", "Melting Point": "277 \u00b0C", "Density": "5.6 g/cm\u00b3 @ Temp: 20 \u00b0C"}}