{"cas_no": "7487-88-9", "cn_name": "\u65e0\u6c34\u786b\u9178\u9541", "en_name": ["Sulfuric acid magnesium salt (1:1)", "Sulfuric acid magnesium salt (1:1)", "Magnesium sulfate (1:1)", "Magnesium sulfate", "Sulfuric acid magnesium salt", "Epsom salts", "Epsom salt", "Magnesium sulphate", "Tomix OT", "OT-S", "OT-S (drying agent)", "Mg-OK", "MN 00", "MG-OK 100", "Sulfuric acid, magnesium salt (1:1)", "MN 30", "Arrosalt 2327", "SN 00", "M-HOS", "Magnesii sulfas", "TC-P", "MG 3K", "Epso Top", "WS 1S", "NP-YW 1", "USN 00", "MN 70", "SSN 00", "MG-N", "Sunmate", "MeSH ID: D008278"], "SMILES": "S(=O)(=O)(O)O.[Mg]", "physical_data": {"Molecular Weight": "", "Molecular Formula": "H2O4S.Mg", "Melting Point": "1124 \u00b0C (decomp)", "Density": "2.66 g/cm\u00b3"}}