{"cas_no": "7488-56-4", "cn_name": "\u786b\u5316\u7852", "en_name": ["Selenium sulfide", "Selenium sulfide (SeS2)", "Selenium disulfide", "Selenium sulfide", "Selsun", "Seleen", "Exsel", "Seledruff"], "SMILES": "[Se](=S)=S", "physical_data": {"Molecular Weight": "143.09", "Molecular Formula": "S2Se", "Melting Point": "&lt;100 \u00b0C"}}