{"cas_no": "7488-54-2", "cn_name": "\u786b\u9178\u94f7", "en_name": ["Rubidium sulfate", "Sulfuric acid, rubidium salt (1:2)", "Sulfuric acid, dirubidium salt", "Rubidium sulfate (Rb2SO4)", "Dirubidium sulfate", "Rubidium sulfate"], "SMILES": "S(=O)(=O)(O)O.[Rb]", "physical_data": {"Molecular Weight": "", "Molecular Formula": "H2O4S.2Rb", "Melting Point": "1074 \u00b0C"}}