{"cas_no": "7488-55-3", "cn_name": "\u786b\u9178\u4e9a\u9521", "en_name": ["Stannous sulfate", "Sulfuric acid, tin(2+) salt (1:1)", "Tin sulfate (SnSO4)", "Stannous sulfate", "Tin(II) sulfate", "Tin(2+) sulfate"], "SMILES": "S(=O)(=O)(O)O.[Sn]", "physical_data": {"Molecular Weight": "", "Molecular Formula": "H2O4S.Sn", "Melting Point": "360 \u00b0C (decomp)", "Density": "1.35 g/cm\u00b3"}}