{"cas_no": "748810-28-8", "cn_name": "\u76d0\u9178\u7ef4\u90a3\u5361\u5170", "en_name": ["Vernakalant hydrochloride", "3-Pyrrolidinol, 1-[(1R,2R)-2-[2-(3,4-dimethoxyphenyl)ethoxy]cyclohexyl]-, hydrochloride (1:1), (3R)-", "3-Pyrrolidinol, 1-[(1R,2R)-2-[2-(3,4-dimethoxyphenyl)ethoxy]cyclohexyl]-, hydrochloride, (3R)-", "(1R,2R)-2-((3R)-Hydroxypyrrolidinyl)-1-[2-(3,4-dimethoxyphenyl)ethoxy]cyclohexane monohydrochloride", "Vernakalant hydrochloride", "RSD 1235", "(3R)-1-[(1R,2R)-2-[2-(3,4-Dimethoxyphenyl)ethoxy]cyclohexyl]-3-pyrrolidinol monohydrochloride", "(1R,2R)-2-((3R)-Hydroxypyrrolidinyl)-1-(3,4-dimethoxyphenethoxy)cyclohexane monohydrochloride", "Brinavess"], "SMILES": "O(CCC1=CC(OC)=C(OC)C=C1)C2C(CCCC2)N3CCC(O)C3.Cl", "physical_data": {"Molecular Weight": "", "Molecular Formula": "C20H31NO4.ClH", "Melting Point": "152-154 \u00b0C"}}