{"cas_no": "7488-99-5", "cn_name": "alpha-\u80e1\u841d\u535c\u7d20", "en_name": ["\u03b1-Carotene (natural)", "\u03b2,\u03b5-Carotene, (6\u2032R)-", "\u03b1-Carotene (natural)", "(6\u2032R)-\u03b2,\u03b5-Carotene", "\u03b1-Carotene", "(+)-\u03b1-Carotene", "all-trans-\u03b1-Carotene", "(6\u2032R)-\u03b1-Carotene"], "SMILES": "C(=CC(=CC=CC(=CC=CC=C(C=CC=C(C=CC=1C(C)(C)CCCC1C)C)C)C)C)C2C(C)(C)CCC=C2C", "physical_data": {"Molecular Weight": "536.87", "Molecular Formula": "C40H56", "Melting Point": "187.5 \u00b0C"}}