{"cas_no": "74896-24-5", "cn_name": "4-\u6c28\u57fa-3,5-\u4e8c\u7532\u57fa\u82ef\u6c30", "en_name": ["4-Amino-3,5-dimethylbenzonitrile", "Benzonitrile, 4-amino-3,5-dimethyl-", "4-Amino-3,5-dimethylbenzonitrile", "NSC 128902"], "SMILES": "C(#N)C1=CC(C)=C(N)C(C)=C1", "physical_data": {"Molecular Weight": "146.19", "Molecular Formula": "C9H10N2", "Melting Point": "106.0-107.5 \u00b0C"}}