{"cas_no": "74896-14-3", "cn_name": "\u53cc\u73af[3.2.1]\u8f9b\u70f7-2,4-\u4e8c\u916e", "en_name": ["Bicyclo[3.2.1]octane-2,4-dione", "Bicyclo[3.2.1]octane-2,4-dione"], "SMILES": "O=C1C2CC(CC2)C(=O)C1", "physical_data": {"Molecular Weight": "138.16", "Molecular Formula": "C8H10O2", "Melting Point": "123.5 \u00b0C"}}