{"cas_no": "74896-66-5", "cn_name": "3,5-\u4e8c\u6eb4-4-\u7532\u57fa\u82ef\u7532\u9178\u7532\u916f", "en_name": ["Methyl 3,5-dibromo-4-methylbenzoate", "Benzoic acid, 3,5-dibromo-4-methyl-, methyl ester", "p-Toluic acid, 3,5-dibromo-, methyl ester", "Methyl 3,5-dibromo-4-methylbenzoate", "3,5-Dibromo-4-methyl-benzoic acid methyl ester"], "SMILES": "C(OC)(=O)C1=CC(Br)=C(C)C(Br)=C1", "physical_data": {"Molecular Weight": "307.97", "Molecular Formula": "C9H8Br2O2", "Melting Point": "86-88 \u00b0C"}}