{"cas_no": "749-02-0", "cn_name": "\u87ba\u54cc\u9686", "en_name": ["Spiperone", "1,3,8-Triazaspiro[4.5]decan-4-one, 8-[4-(4-fluorophenyl)-4-oxobutyl]-1-phenyl-", "1,3,8-Triazaspiro[4.5]decan-4-one, 8-[3-(p-fluorobenzoyl)propyl]-1-phenyl-", "8-[4-(4-Fluorophenyl)-4-oxobutyl]-1-phenyl-1,3,8-triazaspiro[4.5]decan-4-one", "R 5147", "8-[3-(4-Fluorobenzoyl)propyl]-4-oxo-1-phenyl-1,3,8-triazaspiro[4,5]decane", "8-[3-(p-Fluorobenzoyl)propyl]-1-phenyl-1,3,8-triazaspiro[4.5]decan-4-one", "Spiperone", "Spiroperidol", "Spiropitan", "Spiroperidone", "NSC 170983", "MeSH ID: D013134"], "SMILES": "O=C1C2(N(CN1)C3=CC=CC=C3)CCN(CCCC(=O)C4=CC=C(F)C=C4)CC2", "physical_data": {"Molecular Weight": "395.47", "Molecular Formula": "C23H26FN3O2", "Melting Point": "93.6-190 \u00b0C"}}