{"cas_no": "7491-74-9", "cn_name": "\u5421\u62c9\u897f\u5766", "en_name": ["Piracetam", "1-Pyrrolidineacetamide, 2-oxo-", "2-Oxo-1-pyrrolidineacetamide", "UCB 6215", "Piracetam", "Nootropil", "2-Pyrrolidoneacetamide", "2-Pyrrolidinoneacetamide", "Euvifor", "Nootropyl", "Pirazetam", "2-Oxo-1-pyrrolidinylacetamide", "Pyracetam", "Normabrain", "Pyramem", "Piramem", "Prima", "(2-Oxopyrrolidino)acetamide", "2-Ketopyrrolidine-1-acetamide", "Prima (pharmaceutical)", "Myocalm", "Gabacet", "Nootrop", "Geram", "Nootron", "Avigilen", "Encetrop", "Pirroxil", "Cl 781", "Axonyl", "Norzetam", "Genogris", "Cerebroforte", "Nootobril", "Nootobryl", "2-(2-Oxopyrrolidin-1-yl)acetamide", "Neuracetam", "MeSH ID: D010889"], "SMILES": "C(C(N)=O)N1C(=O)CCC1", "physical_data": {"Molecular Weight": "142.16", "Molecular Formula": "C6H10N2O2", "Melting Point": "151.5-152.5 \u00b0C", "Density": "1.36 g/cm\u00b3"}}