{"cas_no": "7492-44-6", "cn_name": "2-\u82ef\u4e9a\u7532\u57fa\u5df1\u919b", "en_name": ["\u03b1-Butylcinnamaldehyde", "Hexanal, 2-(phenylmethylene)-", "Cinnamaldehyde, \u03b1-butyl-", "2-(Phenylmethylene)hexanal", "\u03b1-Butylcinnamaldehyde", "\u03b1-Butylcinnamic aldehyde", "NSC 406674"], "SMILES": "C(=C(CCCC)C=O)C1=CC=CC=C1", "physical_data": {"Molecular Weight": "188.27", "Molecular Formula": "C13H16O", "Boiling Point": "84-87 \u00b0C @ Press: 0.15 Torr"}}