{"cas_no": "7492-88-8", "cn_name": "3-\u54cc\u5576\u7532\u8148", "en_name": ["3-Piperidinecarbonitrile", "3-Piperidinecarbonitrile", "Nipecotonitrile", "3-Cyanopiperidine"], "SMILES": "C(#N)C1CCCNC1", "physical_data": {"Molecular Weight": "110.16", "Molecular Formula": "C6H10N2", "Boiling Point": "107.5 \u00b0C @ Press: 12 Torr"}}