{"cas_no": "7492-66-2", "cn_name": "1,1-\u4e8c\u4e59\u6c27\u57fa-3,7-\u4e8c\u7532\u57fa-2,6-\u8f9b\u4e8c\u70ef", "en_name": ["Citral diethyl acetal", "2,6-Octadiene, 1,1-diethoxy-3,7-dimethyl-", "2,6-Octadienal, 3,7-dimethyl-, diethyl acetal", "Citral diethyl acetal", "1,1-Diethoxy-3,7-dimethyl-2,6-octadiene", "1,1-Diethoxy-3,7-dimethylocta-2,6-diene", "Citrathal R"], "SMILES": "C(C=C(CCC=C(C)C)C)(OCC)OCC", "physical_data": {"Molecular Weight": "226.35", "Molecular Formula": "C14H26O2", "Boiling Point": "117-118 \u00b0C @ Press: 10 Torr", "Density": "0.8730 g/cm\u00b3 @ Temp: 20 \u00b0C"}}