{"cas_no": "7493-69-8", "cn_name": "2-\u4e59\u57fa\u4e01\u9178\u70ef\u4e19\u916f", "en_name": ["Allyl 2-ethylbutyrate", "Butanoic acid, 2-ethyl-, 2-propen-1-yl ester", "Butyric acid, 2-ethyl-, allyl ester", "Butanoic acid, 2-ethyl-, 2-propenyl ester", "Allyl 2-ethylbutyrate", "NSC 32637", "2-Ethylbutanoate-2-propene ester", "2-Ethyl-butyric acid allyl ester"], "SMILES": "C(C(OCC=C)=O)(CC)CC", "physical_data": {"Molecular Weight": "156.22", "Molecular Formula": "C9H16O2", "Boiling Point": "165-167 \u00b0C"}}