{"cas_no": "7493-74-5", "cn_name": "\u82ef\u6c27\u4e59\u9178\u70ef\u4e19\u916f", "en_name": ["Allyl phenoxyacetate", "Acetic acid, 2-phenoxy-, 2-propen-1-yl ester", "Acetic acid, phenoxy-, allyl ester", "Acetic acid, phenoxy-, 2-propenyl ester", "Allyl phenoxyacetate", "NSC 408892", "Allyl 2-phenoxyacetate"], "SMILES": "O(CC(OCC=C)=O)C1=CC=CC=C1", "physical_data": {"Molecular Weight": "192.21", "Molecular Formula": "C11H12O3", "Boiling Point": "137 \u00b0C @ Press: 1 Torr", "Density": "1.0820 g/cm\u00b3 @ Temp: 20 \u00b0C"}}