{"cas_no": "7493-95-0", "cn_name": "4-\u785d\u57fa\u82ef-\u03b1-D-\u5421\u5583\u534a\u4e73\u7cd6\u82f7", "en_name": ["p-Nitrophenyl \u03b1-D-galactopyranoside", "\u03b1-D-Galactopyranoside, 4-nitrophenyl", "Galactopyranoside, p-nitrophenyl, \u03b1-D-", "4-Nitrophenyl \u03b1-D-galactopyranoside", "p-Nitrophenyl \u03b1-D-galactoside", "p-Nitrophenyl \u03b1-D-galactopyranoside", "p-Nitrophenyl \u03b1-galactoside", "p-Nitrophenyl \u03b1-galactopyranoside", "4-Nitrophenyl \u03b1-D-galactoside", "NSC 89286", "PNPG"], "SMILES": "O(C1C(O)C(O)C(O)C(CO)O1)C2=CC=C(N(=O)=O)C=C2", "physical_data": {"Molecular Weight": "301.25", "Molecular Formula": "C12H15NO8", "Melting Point": "136-140 \u00b0C"}}