{"cas_no": "74936-72-4", "cn_name": "1,4-\u4e8c\u6c22-2,6-\u4e8c\u7532\u57fa-4-(3-\u785d\u57fa\u82ef\u57fa)\u5421\u5576-3,5-\u4e8c\u7532\u9178\u5355\u7532\u916f", "en_name": ["2,6-Dimethyl-4-(3-nitrophenyl)-1,4-dihydropyridine-3,5-dicarboxylic acid monomethyl ester", "3,5-Pyridinedicarboxylic acid, 1,4-dihydro-2,6-dimethyl-4-(3-nitrophenyl)-, 3-methyl ester", "3,5-Pyridinedicarboxylic acid, 1,4-dihydro-2,6-dimethyl-4-(3-nitrophenyl)-, monomethyl ester", "2,6-Dimethyl-5-methoxycarbonyl-4-(3-nitrophenyl)-1,4-dihydropyridine-3-carboxylic acid", "(\u00b1)-1,4-Dihydro-2,6-dimethyl-4-(3-nitrophenyl)-3,5-pyridinedicarboxylic acid monomethyl ester", "(\u00b1)-1,4-Dihydro-5-methoxycarbonyl-2,6-dimethyl-4-(3-nitrophenyl)-3-pyridinecarboxylic acid", "2,6-Dimethyl-4-(3-nitrophenyl)-1,4-dihydropyridine-3,5-dicarboxylic acid monomethyl ester"], "SMILES": "C(OC)(=O)C=1C(C(C(O)=O)=C(C)NC1C)C2=CC(N(=O)=O)=CC=C2", "physical_data": {"Molecular Weight": "332.31", "Molecular Formula": "C16H16N2O6", "Melting Point": "189-190 \u00b0C"}}