{"cas_no": "7493-63-2", "cn_name": "\u90bb\u6c28\u57fa\u82ef\u7532\u9178\u70ef\u4e19\u916f", "en_name": ["Allyl anthranilate", "Benzoic acid, 2-amino-, 2-propen-1-yl ester", "Anthranilic acid, allyl ester", "Benzoic acid, 2-amino-, 2-propenyl ester", "Allyl anthranilate", "Allyl 2-aminobenzoate", "NSC 147476"], "SMILES": "C(OCC=C)(=O)C1=C(N)C=CC=C1", "physical_data": {"Molecular Weight": "177.20", "Molecular Formula": "C10H11NO2", "Boiling Point": "104-105 \u00b0C @ Press: 0.4 Torr"}}