{"cas_no": "7493-72-3", "cn_name": "\u58ec\u9178-2-\u4e19\u70ef\u916f", "en_name": ["Allyl nonanoate", "Nonanoic acid, 2-propen-1-yl ester", "Nonanoic acid, allyl ester", "Nonanoic acid, 2-propenyl ester", "Allyl nonanoate", "Allyl pelargonate", "NSC 20974"], "SMILES": "C(CCCCCCCC)(OCC=C)=O", "physical_data": {"Molecular Weight": "198.30", "Molecular Formula": "C12H22O2", "Boiling Point": "87 \u00b0C", "Density": "0.8963 g/cm\u00b3 @ Temp: 20 \u00b0C"}}