{"cas_no": "7495-78-5", "cn_name": "\u5bf9\u4e8c\u5f02\u4e19\u6c27\u57fa\u82ef", "en_name": ["1,4-Diisopropoxybenzene", "Benzene, 1,4-bis(1-methylethoxy)-", "Benzene, p-diisopropoxy-", "1,4-Bis(1-methylethoxy)benzene", "p-Diisopropoxybenzene", "1,4-Diisopropoxybenzene", "NSC 407768"], "SMILES": "O(C(C)C)C1=CC=C(OC(C)C)C=C1", "physical_data": {"Molecular Weight": "194.27", "Molecular Formula": "C12H18O2", "Boiling Point": "235 \u00b0C @ Press: 40 Torr", "Density": "1.065 g/cm\u00b3 @ Temp: 34 \u00b0C"}}