{"cas_no": "7496-02-8", "cn_name": "6-\u785d\u57fa\u8054\u82ef", "en_name": ["6-Nitrochrysene", "Chrysene, 6-nitro-", "6-Nitrochrysene", "NSC 407609"], "SMILES": "N(=O)(=O)C1=CC2=C(C=3C1=CC=CC3)C=CC=4C2=CC=CC4", "physical_data": {"Molecular Weight": "273.29", "Molecular Formula": "C18H11NO2", "Melting Point": "214-214.6 \u00b0C"}}