{"cas_no": "7497-60-1", "cn_name": "(4-\u6c2f\u82ef\u57fa)(4-\u785d\u57fa\u82ef\u57fa)-\u7532\u916e", "en_name": ["4-Chloro-4\u2032-nitrobenzophenone", "Methanone, (4-chlorophenyl)(4-nitrophenyl)-", "Benzophenone, 4-chloro-4\u2032-nitro-", "(4-Chlorophenyl)(4-nitrophenyl)methanone", "4-Chloro-4\u2032-nitrobenzophenone", "4-Nitro-4\u2032-chlorobenzophenone", "4\u2032-Chloro-4-nitrobenzophenone", "NSC 406624"], "SMILES": "C(=O)(C1=CC=C(N(=O)=O)C=C1)C2=CC=C(Cl)C=C2", "physical_data": {"Molecular Weight": "261.66", "Molecular Formula": "C13H8ClNO3", "Melting Point": "90-94 \u00b0C"}}