{"cas_no": "749875-07-8", "cn_name": "2-\u6eb4-6-\u4e09\u6c1f\u7532\u57fa\u70df\u9178", "en_name": ["2-Bromo-6-(trifluoromethyl)-3-pyridinecarboxylic acid", "3-Pyridinecarboxylic acid, 2-bromo-6-(trifluoromethyl)-", "2-Bromo-6-(trifluoromethyl)-3-pyridinecarboxylic acid", "2-Bromo-6-(trifluoromethyl)nicotinic acid"], "SMILES": "C(F)(F)(F)C=1N=C(Br)C(C(O)=O)=CC1", "physical_data": {"Molecular Weight": "270.00", "Molecular Formula": "C7H3BrF3NO2", "Melting Point": "116-119 \u00b0C"}}