{"cas_no": "749886-87-1", "cn_name": "4-\u7532\u57fa-N1-(3-\u82ef\u57fa\u4e19\u57fa)-1,2-\u82ef\u4e8c\u80fa", "en_name": ["4-Methyl-N1-(3-phenylpropyl)-1,2-benzenediamine", "1,2-Benzenediamine, 4-methyl-N1-(3-phenylpropyl)-", "4-Methyl-N1-(3-phenylpropyl)-1,2-benzenediamine", "JSH 23"], "SMILES": "N(CCCC1=CC=CC=C1)C2=C(N)C=C(C)C=C2", "physical_data": {"Molecular Weight": "240.34", "Molecular Formula": "C16H20N2", "Melting Point": "104.4-105.0 \u00b0C"}}