{"cas_no": "7498-57-9", "cn_name": "2-\u8418\u4e59\u8148", "en_name": ["2-Naphthaleneacetonitrile", "2-Naphthaleneacetonitrile", "2-(Cyanomethyl)naphthalene", "2-Naphthylacetonitrile", "(\u03b2-Naphthyl)acetonitrile", "NSC 407556", "Naphthalen-2-ylacetonitrile", "2-Naphthalen-2-ylacetonitrile", "2-(Naphthalen-2-yl)acetonitrile"], "SMILES": "C(C#N)C1=CC2=C(C=C1)C=CC=C2", "physical_data": {"Molecular Weight": "167.21", "Molecular Formula": "C12H9N", "Boiling Point": "303 \u00b0C", "Melting Point": "83 \u00b0C"}}