{"cas_no": "7499-56-1", "cn_name": "2-\u6eb4\u8089\u6842\u9178", "en_name": ["3-(2-Bromophenyl)-2-propenoic acid", "2-Propenoic acid, 3-(2-bromophenyl)-", "Cinnamic acid, o-bromo-", "3-(2-Bromophenyl)-2-propenoic acid", "o-Bromocinnamic acid", "2-Bromocinnamic acid", "NSC 407679", "3-(2-Bromophenyl)acrylic acid"], "SMILES": "C(=CC(O)=O)C1=C(Br)C=CC=C1", "physical_data": {"Molecular Weight": "227.05", "Molecular Formula": "C9H7BrO2", "Melting Point": "84-86 \u00b0C"}}