{"cas_no": "7499-60-7", "cn_name": "4-\u6c27\u4ee3-4-\u8298-1-\u57fa\u4e01\u9178", "en_name": ["\u03b3-Oxo-1-pyrenebutyric acid", "1-Pyrenebutanoic acid, \u03b3-oxo-", "1-Pyrenebutyric acid, \u03b3-oxo-", "\u03b3-Oxo-1-pyrenebutanoic acid", "\u03b2-(1-Pyrenoyl)propionic acid", "NSC 407628", "\u03b3-Oxo-1-pyrenebutyric acid"], "SMILES": "C(CCC(O)=O)(=O)C1=C2C3=C4C(C=C2)=CC=CC4=CC=C3C=C1", "physical_data": {"Molecular Weight": "302.32", "Molecular Formula": "C20H14O3", "Melting Point": "183 \u00b0C"}}