{"cas_no": "7499-08-3", "cn_name": "3-\u6c2f-2-\u7532\u57fa\u82ef\u7532\u9178", "en_name": ["3-Chloro-2-methylbenzoic acid", "Benzoic acid, 3-chloro-2-methyl-", "o-Toluic acid, 3-chloro-", "3-Chloro-2-methylbenzoic acid", "2-Methyl-3-chlorobenzoic acid", "NSC 407522"], "SMILES": "C(O)(=O)C1=C(C)C(Cl)=CC=C1", "physical_data": {"Molecular Weight": "170.59", "Molecular Formula": "C8H7ClO2", "Melting Point": "102 \u00b0C"}}