{"cas_no": "7499-07-2", "cn_name": "4-\u6c2f-2-\u7532\u57fa\u82ef\u7532\u9178", "en_name": ["4-Chloro-2-methylbenzoic acid", "Benzoic acid, 4-chloro-2-methyl-", "o-Toluic acid, 4-chloro-", "4-Chloro-2-methylbenzoic acid", "4-Chloro-o-toluic acid", "NSC 407521"], "SMILES": "C(O)(=O)C1=C(C)C=C(Cl)C=C1", "physical_data": {"Molecular Weight": "170.59", "Molecular Formula": "C8H7ClO2", "Melting Point": "166-167 \u00b0C"}}