{"cas_no": "74991-91-6", "cn_name": "9-\u7532\u6c27\u57fa\u94c1\u5c4e\u7c73\u916e", "en_name": ["9-Methoxy-6H-indolo[3,2,1-de][1,5]naphthyridin-6-one", "6H-Indolo[3,2,1-de][1,5]naphthyridin-6-one, 9-methoxy-", "9-Methoxy-6H-indolo[3,2,1-de][1,5]naphthyridin-6-one", "9-Methoxycanthin-6-one"], "SMILES": "O=C1N2C=3C(C=4C2=CC(OC)=CC4)=CC=NC3C=C1", "physical_data": {"Molecular Weight": "250.25", "Molecular Formula": "C15H10N2O2", "Melting Point": "180.1 \u00b0C"}}