{"cas_no": "7499-06-1", "cn_name": "5-\u6c2f-2-\u7532\u57fa\u82ef\u7532\u9178", "en_name": ["5-Chloro-2-methylbenzoic acid", "Benzoic acid, 5-chloro-2-methyl-", "o-Toluic acid, 5-chloro-", "5-Chloro-2-methylbenzoic acid", "5-Chloro-o-toluic acid", "NSC 407520", "3-Chloro-6-methylbenzoic acid"], "SMILES": "C(O)(=O)C1=C(C)C=CC(Cl)=C1", "physical_data": {"Molecular Weight": "170.59", "Molecular Formula": "C8H7ClO2", "Melting Point": "169.5-171.0 \u00b0C"}}