{"cas_no": "75-08-1", "cn_name": "\u4e59\u786b\u9187", "en_name": ["Ethanethiol", "Ethanethiol", "Ethyl hydrosulfide", "Ethyl mercaptan", "Ethyl thioalcohol", "Thioethanol", "Thioethyl alcohol", "Mercaptoethane", "NSC 93877"], "SMILES": "C(C)S", "physical_data": {"Molecular Weight": "62.13", "Molecular Formula": "C2H6S", "Boiling Point": "35 \u00b0C @ Press: 760 Torr", "Melting Point": "-144.4 \u00b0C", "Density": "0.83907 g/cm\u00b3 @ Temp: 20 \u00b0C"}}