{"cas_no": "75-03-6", "cn_name": "\u7898\u4e59\u70f7", "en_name": ["Iodoethane", "Ethane, iodo-", "Iodoethane", "Ethyl iodide", "Hydriodic ether", "1-Iodoethane", "Monoiodoethane", "NSC 8825"], "SMILES": "C(C)I", "physical_data": {"Molecular Weight": "155.97", "Molecular Formula": "C2H5I", "Boiling Point": "72 \u00b0C", "Melting Point": "-108 \u00b0C", "Density": "1.9358 g/cm\u00b3"}}