{"cas_no": "75-04-7", "cn_name": "\u4e59\u80fa", "en_name": ["Ethylamine", "Ethanamine", "Ethylamine", "Aminoethane", "Monoethylamine", "n-Ethylamine", "1-Aminoethane", "R 631"], "SMILES": "C(C)N", "physical_data": {"Molecular Weight": "45.08", "Molecular Formula": "C2H7N", "Boiling Point": "16.6 \u00b0C", "Melting Point": "-81 \u00b0C", "Density": "0.689 g/cm\u00b3 @ Temp: 15 \u00b0C"}}