{"cas_no": "75-07-0", "cn_name": "\u4e59\u919b", "en_name": ["Acetaldehyde", "Acetaldehyde", "Acetic aldehyde", "Ethanal", "Ethyl aldehyde", "NSC 7594", "MeSH ID: D000079"], "SMILES": "C(C)=O", "physical_data": {"Molecular Weight": "44.05", "Molecular Formula": "C2H4O", "Boiling Point": "21 \u00b0C", "Melting Point": "-123.5 \u00b0C", "Density": "0.788 g/cm\u00b3 @ Temp: 16 \u00b0C"}}