{"cas_no": "75-02-5", "cn_name": "\u6c1f\u5316\u4e59\u70ef", "en_name": ["Fluoroethylene", "Ethene, fluoro-", "Ethylene, fluoro-", "Fluoroethene", "Fluoroethylene", "Vinyl fluoride", "Monofluoroethylene", "Monofluoroethene", "1-Fluoroethene", "1-Fluoroethylene", "R 1141", "FC 1141", "HFO-1141"], "SMILES": "C(=C)F", "physical_data": {"Molecular Weight": "46.04", "Molecular Formula": "C2H3F", "Boiling Point": "-72 \u00b0C", "Melting Point": "-160.5 \u00b0C"}}