{"cas_no": "75-09-2", "cn_name": "\u4e8c\u6c2f\u7532\u70f7", "en_name": ["Dichloromethane", "Methane, dichloro-", "Dichloromethane", "Methylene chloride", "Methylene dichloride", "Solaesthin", "Aerothene MM", "Freon 30", "Narkotil", "Solmethine", "R 30 (refrigerant)", "Methane dichloride", "R 30", "HCC 30", "Khladon 30", "Soleana VDA", "F 30", "F 30 (chlorocarbon)", "Metaclen", "NSC 406122", "DCM", "Methaclean U", "A 3000", "MeSH ID: D008752"], "SMILES": "C(Cl)Cl", "physical_data": {"Molecular Weight": "84.93", "Molecular Formula": "CH2Cl2", "Boiling Point": "39.75 \u00b0C @ Press: 760 Torr", "Melting Point": "-95 \u00b0C", "Density": "1.3255 g/cm\u00b3 @ Temp: 20 \u00b0C"}}