{"cas_no": "75-00-3", "cn_name": "\u6c2f\u4e59\u70f7", "en_name": ["Chloroethane", "Ethane, chloro-", "Chloroethane", "Aethylis", "Aethylis chloridum", "Anodynon", "Chelen", "Chlorethyl", "Chloridum", "Chloryl", "Chloryl Anesthetic", "Ether chloratus", "Ether hydrochloric", "Ether muriatic", "Hydrochloric ether", "Kelene", "Monochlorethane", "Muriatic ether", "Narcotile", "Ethyl chloride", "Chlorene", "Cloretilo", "Dublofix", "Monochloroethane", "R 160", "F 160", "Chloryle anesthetic", "Freon 160"], "SMILES": "C(C)Cl", "physical_data": {"Molecular Weight": "64.51", "Molecular Formula": "C2H5Cl", "Boiling Point": "12.3 \u00b0C @ Press: 760 Torr", "Melting Point": "-138.7 \u00b0C", "Density": "0.9214 g/cm\u00b3 @ Temp: 0 \u00b0C"}}