{"cas_no": "75-05-8", "cn_name": "\u4e59\u8148", "en_name": ["Acetonitrile", "Acetonitrile", "Cyanomethane", "Ethanenitrile", "Ethyl nitrile", "Methane, cyano-", "Methanecarbonitrile", "Methyl cyanide", "Methyl cyanide (MeCN)", "Acetonitrile cluster", "NSC 7593", "ACN"], "SMILES": "C(C)#N", "physical_data": {"Molecular Weight": "41.05", "Molecular Formula": "C2H3N", "Boiling Point": "81.6 \u00b0C @ Press: 760 Torr", "Melting Point": "-45 \u00b0C", "Density": "0.78745 g/cm\u00b3 @ Temp: 15 \u00b0C"}}