{"cas_no": "75-01-4", "cn_name": "\u6c2f\u4e59\u70ef", "en_name": ["Vinyl chloride", "Ethene, chloro-", "Ethylene, chloro-", "Chloroethene", "Chloroethylene", "Vinyl C monomer", "Monochloroethylene", "Vinyl chloride", "Vinyl chloride monomer", "VCM", "1-Chloroethene", "1-Chloroethylene", "F 1140", "HCO 1140", "MeSH ID: D014752"], "SMILES": "C(=C)Cl", "physical_data": {"Molecular Weight": "62.50", "Molecular Formula": "C2H3Cl", "Boiling Point": "-13.3 \u00b0C", "Melting Point": "-153.7 \u00b0C", "Density": "0.9106 g/cm\u00b3 @ Temp: 20 \u00b0C"}}