{"cas_no": "75-15-0", "cn_name": "\u4e8c\u786b\u5316\u78b3", "en_name": ["Carbon disulfide", "Carbon disulfide", "Carbon bisulfide", "Carbon bisulphide", "Carbon disulphide", "Dithiocarbonic anhydride", "Carbon sulfide (CS2)", "MeSH ID: D002246"], "SMILES": "C(=S)=S", "physical_data": {"Molecular Weight": "76.14", "Molecular Formula": "CS2", "Boiling Point": "46 \u00b0C @ Press: 760 Torr", "Melting Point": "-111.5 \u00b0C", "Density": "1.2632 g/cm\u00b3 @ Temp: 20 \u00b0C"}}