{"cas_no": "75-18-3", "cn_name": "\u4e8c\u7532\u57fa\u786b", "en_name": ["Dimethyl sulfide", "Methane, 1,1\u2032-thiobis-", "Methyl sulfide", "Methane, thiobis-", "1,1\u2032-Thiobis[methane]", "Dimethyl sulfide", "DMS", "2-Thiapropane", "Dimethyl thioether", "Methyl monosulfide", "Dimethyl monosulfide", "Dimethyl sulphide", "Thiobis(methane)", "Methylthiomethane", "Dimethylsulfane", "(Methylsulfanyl)methane"], "SMILES": "S(C)C", "physical_data": {"Molecular Weight": "62.13", "Molecular Formula": "C2H6S", "Boiling Point": "37.3 \u00b0C", "Melting Point": "-98.3 \u00b0C", "Density": "0.8483 g/cm\u00b3 @ Temp: 20 \u00b0C"}}