{"cas_no": "75-13-8", "cn_name": "\u5f02\u6c30\u9178\u916f", "en_name": ["Isocyanic acid", "Isocyanic acid", "Carbimide", "Hydrogen isocyanate", "Isocyanic acid (HNCO)", "HNCO"], "SMILES": "C(=N)=O", "physical_data": {"Molecular Weight": "43.02", "Molecular Formula": "CHNO", "Melting Point": "-86 \u00b0C"}}