{"cas_no": "75-19-4", "cn_name": "\u73af\u4e19\u70f7", "en_name": ["Cyclopropane", "Cyclopropane", "Trimethylene", "Trimethylene (cyclic)", "RC 270", "RC 0270"], "SMILES": "C1CC1", "physical_data": {"Molecular Weight": "42.08", "Molecular Formula": "C3H6", "Boiling Point": "-32.8 \u00b0C @ Press: 760 Torr", "Melting Point": "-127.4 \u00b0C", "Density": "1.1358 g/cm\u00b3 @ Temp: 20 \u00b0C"}}