{"cas_no": "75-11-6", "cn_name": "\u4e8c\u7898\u7532\u70f7", "en_name": ["Diiodomethane", "Methane, diiodo-", "Diiodomethane", "Methylene iodide", "Methylene diiodide", "NSC 35804"], "SMILES": "C(I)I", "physical_data": {"Molecular Weight": "267.84", "Molecular Formula": "CH2I2", "Boiling Point": "182 \u00b0C", "Melting Point": "6.1 \u00b0C", "Density": "3.10 g/cm\u00b3"}}