{"cas_no": "75-17-2", "cn_name": "\u7532\u919b\u809f", "en_name": ["Nitrone", "Formaldehyde, oxime", "Formaldoxime", "Formoxime", "Methyleneamine N-oxide", "Methylenenitrone", "Nitrone"], "SMILES": "N(=C)O", "physical_data": {"Molecular Weight": "45.04", "Molecular Formula": "CH3NO", "Boiling Point": "109 \u00b0C", "Melting Point": "2.5 \u00b0C", "Density": "1.434 g/cm\u00b3 @ Temp: -5 \u00b0C"}}