{"cas_no": "75-10-5", "cn_name": "\u4e8c\u6c1f\u7532\u70f7", "en_name": ["Difluoromethane", "Methane, difluoro-", "Difluoromethane", "Freon 32", "Genetron 32", "Methylene difluoride", "R 32 (refrigerant)", "FC 32", "HFC 32", "R 32", "Ecolo Ace 32", "F 32", "HFA 32", "Forane 32", "HFO 32", "Freon R 32"], "SMILES": "C(F)F", "physical_data": {"Molecular Weight": "52.02", "Molecular Formula": "CH2F2", "Boiling Point": "-51.6 \u00b0C", "Melting Point": "-136 \u00b0C", "Density": "0.5265 g/cm\u00b3"}}