{"cas_no": "75-12-7", "cn_name": "\u7532\u9170\u80fa", "en_name": ["Formamide", "Formamide", "Carbamaldehyde", "Methanamide", "Formimidic acid", "NSC 748"], "SMILES": "C(N)=O", "physical_data": {"Molecular Weight": "45.04", "Molecular Formula": "CH3NO", "Boiling Point": "210.5 \u00b0C @ Press: 760 Torr", "Melting Point": "2.55 \u00b0C", "Density": "1.1334 g/cm\u00b3 @ Temp: 20 \u00b0C"}}