{"cas_no": "75-29-6", "cn_name": "2-\u6c2f\u4e19\u70f7", "en_name": ["2-Chloropropane", "Propane, 2-chloro-", "2-Chloropropane", "Isoprid", "Isopropyl chloride", "Narcosop", "2-Propyl chloride", "sec-Propyl chloride", "Chlorodimethylmethane", "R 280da", "LBL 2"], "SMILES": "C(C)(C)Cl", "physical_data": {"Molecular Weight": "78.54", "Molecular Formula": "C3H7Cl", "Boiling Point": "35.7 \u00b0C", "Melting Point": "-117.2 \u00b0C", "Density": "0.8617 g/cm\u00b3 @ Temp: 20 \u00b0C"}}