{"cas_no": "75-26-3", "cn_name": "2-\u6eb4\u4e19\u70f7", "en_name": ["2-Bromopropane", "Propane, 2-bromo-", "2-Bromopropane", "Isopropyl bromide", "sec-Propyl bromide"], "SMILES": "C(Br)(C)C", "physical_data": {"Molecular Weight": "122.99", "Molecular Formula": "C3H7Br", "Boiling Point": "59.38 \u00b0C @ Press: 760 Torr", "Melting Point": "-89.0 \u00b0C", "Density": "1.31 g/cm\u00b3 @ Temp: 20 \u00b0C"}}