{"cas_no": "75-25-2", "cn_name": "\u4e09\u6eb4\u7532\u70f7", "en_name": ["Bromoform", "Methane, tribromo-", "Tribromomethane", "Bromoform", "Methenyl tribromide", "NSC 8019"], "SMILES": "C(Br)(Br)Br", "physical_data": {"Molecular Weight": "252.73", "Molecular Formula": "CHBr3", "Boiling Point": "149.1 \u00b0C", "Melting Point": "8.0 \u00b0C", "Density": "2.8899 g/cm\u00b3 @ Temp: 15 \u00b0C"}}