{"cas_no": "75-27-4", "cn_name": "\u4e00\u6eb4\u4e8c\u6c2f\u7532\u70f7", "en_name": ["Bromodichloromethane", "Methane, bromodichloro-", "Bromodichloromethane", "Dichlorobromomethane", "Monobromodichloromethane", "Dichloromonobromomethane", "NSC 8018", "BDCM"], "SMILES": "C(Br)(Cl)Cl", "physical_data": {"Molecular Weight": "163.83", "Molecular Formula": "CHBrCl2", "Boiling Point": "90 \u00b0C", "Melting Point": "-57 \u00b0C", "Density": "1.980 g/cm\u00b3 @ Temp: 20 \u00b0C"}}