{"cas_no": "75-28-5", "cn_name": "\u5f02\u4e01\u70f7", "en_name": ["Isobutane", "Propane, 2-methyl-", "2-Methylpropane", "Isobutane", "iso-Butane", "Trimethylmethane", "1,1-Dimethylethane", "A 31", "A 31 (hydrocarbon)", "R 600a", "Purifrigor Iso 2", "Purifrigor Iso 2.5", "Purifrigor Iso 3", "Purifrigor Iso 3.5"], "SMILES": "C(C)(C)C", "physical_data": {"Molecular Weight": "58.12", "Molecular Formula": "C4H10", "Boiling Point": "-11.7 \u00b0C", "Melting Point": "-138.3 \u00b0C", "Density": "0.61415 g/cm\u00b3 @ Temp: -29.5 \u00b0C"}}