{"cas_no": "75-21-8", "cn_name": "\u73af\u6c27\u4e59\u70f7", "en_name": ["Ethylene oxide", "Oxirane", "Ethylene oxide", "Ethyleneoxy", "Dihydrooxirene", "Dimethylene oxide", "1,2-Epoxyethane", "ETO", "Oxacyclopropane", "Oxane", "Oxidoethane", "Oxirene, dihydro-", "T-Gas", "Oxyfume 12", "Oxyfume", "Epoxyethane", "Ethene oxide", "Ciba-Geigy 9138", "12/88", "Mirror Ox", "Oxyfume 2002", "E 105779", "MeSH ID: D005027"], "SMILES": "C1CO1", "physical_data": {"Molecular Weight": "44.05", "Molecular Formula": "C2H4O", "Boiling Point": "10.7 \u00b0C @ Press: 760 Torr", "Melting Point": "-111 \u00b0C", "Density": "0.882 g/cm\u00b3 @ Temp: 10 \u00b0C"}}