{"cas_no": "75-20-7", "cn_name": "\u78b3\u5316\u9499", "en_name": ["Calcium carbide", "Calcium carbide (Ca(C2))", "Acetylenogen", "Calcium acetylide (Ca(C2))", "Calcium dicarbide", "Calcium carbide", "Calcium acetylide", "Ethyne, calcium deriv."], "SMILES": "C1#C[Ca]1", "physical_data": {"Molecular Weight": "", "Molecular Formula": "C2Ca", "Boiling Point": "138-140 \u00b0C @ Press: 3 Torr", "Melting Point": "2300 \u00b0C", "Density": "2.22 g/cm\u00b3"}}