{"cas_no": "75-22-9", "cn_name": "\u787c\u70f7-\u4e09\u7532\u80fa\u7edc\u5408\u7269", "en_name": ["Trimethylamineborane", "Boron, (N,N-dimethylmethanamine)trihydro-, (T-4)-", "Trimethylamine, compd. with borane (1:1)", "Methanamine, N,N-dimethyl-, compd. with borane (1:1)", "Borine, compd. with Me3N (1:1)", "Borane, compd. with trimethylamine (1:1)", "Borane, compd. with N,N-dimethylmethanamine (1:1)", "(T-4)-(N,N-Dimethylmethanamine)trihydroboron", "Borane complex with trimethylamine (1:1)", "Trimethylamine-borane (1:1)", "Borane-trimethylamine (1:1)", "Trimethylamineborane", "Trimethylamine borane(3)", "Trihydro(trimethylamine)boron", "NSC 10220", "NSC 145941", "NSC 53323", "Trimethylamine compound with borane (1:1)", "Me3NBH3", "(Trimethylazaniumyl)boranuide", "Borane(2), (N,N,N-trimethylammonio)-"], "SMILES": "[B+3]([N](C)(C)C)([H-])([H-])[H-]", "physical_data": {"Molecular Weight": "", "Molecular Formula": "C3H12BN", "Boiling Point": "172 \u00b0C", "Melting Point": "94 \u00b0C"}}