{"cas_no": "75-24-1", "cn_name": "\u4e09\u7532\u57fa\u94dd", "en_name": ["Trimethylaluminum", "Aluminum, trimethyl-", "Trimethylaluminum", "Alane, trimethyl-", "Trimethylaluminium", "Trimethylalane", "Trimethylaluminum (Al(CH3)3)"], "SMILES": "[Al](C)(C)C", "physical_data": {"Molecular Weight": "", "Molecular Formula": "C3H9Al", "Boiling Point": "130 \u00b0C", "Melting Point": "15.4 \u00b0C", "Density": "0.752 g/cm\u00b3 @ Temp: 20 \u00b0C"}}