{"cas_no": "75-31-0", "cn_name": "\u5f02\u4e19\u80fa", "en_name": ["Isopropylamine", "2-Propanamine", "Isopropylamine", "2-Aminopropane", "Monoisopropylamine", "2-Propylamine", "sec-Propylamine", "1-Methylethylamine", "NSC 62775", "Propan-2-ylamine", "2-Isopropylamine", "Propan-2-amine"], "SMILES": "C(C)(C)N", "physical_data": {"Molecular Weight": "59.11", "Molecular Formula": "C3H9N", "Boiling Point": "33-34 \u00b0C", "Melting Point": "-101 \u00b0C", "Density": "0.694 g/cm\u00b3 @ Temp: 15 \u00b0C"}}