{"cas_no": "75-35-4", "cn_name": "1\uff0c1-\u4e8c\u6c2f\u4e59\u70ef", "en_name": ["Vinylidene chloride", "Ethene, 1,1-dichloro-", "Ethylene, 1,1-dichloro-", "1,1-Dichloroethene", "Vinylidene chloride", "1,1-Dichloroethylene", "HCC 1130a", "F 1130a", "R 1130a", "Iso-dichloroethylene", "Diofan A 565S", "XAN 10", "HCO 1130a"], "SMILES": "C(=C)(Cl)Cl", "physical_data": {"Molecular Weight": "96.94", "Molecular Formula": "C2H2Cl2", "Boiling Point": "31.7 \u00b0C @ Press: 760 Torr", "Melting Point": "-122.5 \u00b0C", "Density": "1.2129 g/cm\u00b3 @ Temp: 20 \u00b0C"}}