{"cas_no": "75-36-5", "cn_name": "\u4e59\u9170\u6c2f", "en_name": ["Acetyl chloride", "Acetyl chloride", "Ethanoyl chloride", "Acetic chloride", "Acetic acid chloride"], "SMILES": "C(C)(Cl)=O", "physical_data": {"Molecular Weight": "78.50", "Molecular Formula": "C2H3ClO", "Boiling Point": "52 \u00b0C", "Melting Point": "-112 \u00b0C", "Density": "1.1051 g/cm\u00b3 @ Temp: 20 \u00b0C"}}