{"cas_no": "75-39-8", "cn_name": "1-\u6c28\u57fa\u4e59\u9187", "en_name": ["Ethanol, 1-amino-", "Ethanol, 1-amino-", "Acetaldehyde ammonia", "1-Aminoethanol", "\u03b1-Aminoethyl alcohol", "Aldehyde ammonia", "Accelerator AA", "Acetaldehyde, monoammoniate", "Acetaldehyde, compd. with NH3", "1-Aminoethan-1-ol"], "SMILES": "C(C)(N)O", "physical_data": {"Molecular Weight": "61.08", "Molecular Formula": "C2H7NO", "Melting Point": "97 \u00b0C"}}