{"cas_no": "75-37-6", "cn_name": "1,1-\u4e8c\u6c1f\u4e59\u70f7", "en_name": ["1,1-Difluoroethane", "Ethane, 1,1-difluoro-", "1,1-Difluoroethane", "Algofrene 67", "Ethylidene fluoride", "Genetron 152A", "FC 152a", "R 152a", "Dymel 152", "FKW 152a", "HFC 152a", "Fron 152a", "F 152A", "Dymel 152A", "HCFC 152a", "HFA 152a", "TG 152a", "Solkane 152a", "Propellant 152A", "Formacel Z 2", "HFO 152a", "152a", "Freon R 152a"], "SMILES": "C(C)(F)F", "physical_data": {"Molecular Weight": "66.05", "Molecular Formula": "C2H4F2", "Boiling Point": "-24.7 \u00b0C", "Melting Point": "-117 \u00b0C", "Density": "0.91 g/cm\u00b3 @ Temp: 21 \u00b0C"}}