{"cas_no": "75-33-2", "cn_name": "\u5f02\u4e19\u786b\u9187", "en_name": ["2-Propanethiol", "2-Propanethiol", "Isopropyl mercaptan", "Isopropanethiol", "Isopropylthiol", "2-Mercaptopropane", "1-Methylethanethiol", "2-Propylmercaptan", "i-Propylthiol", "NSC 87537", "i-Propanethiol", "BHR 6986"], "SMILES": "C(C)(C)S", "physical_data": {"Molecular Weight": "76.16", "Molecular Formula": "C3H8S", "Boiling Point": "52.5 \u00b0C @ Press: 760 Torr", "Melting Point": "-130.5 \u00b0C", "Density": "0.8143 g/cm\u00b3 @ Temp: 20 \u00b0C"}}