{"cas_no": "75-30-9", "cn_name": "2-\u7898\u4ee3\u4e19\u70f7", "en_name": ["Isopropyl iodide", "Propane, 2-iodo-", "2-Iodopropane", "Isopropyl iodide", "sec-Propyl iodide", "2-Propyl iodide", "1-Methylethyl iodide"], "SMILES": "C(C)(C)I", "physical_data": {"Molecular Weight": "169.99", "Molecular Formula": "C3H7I", "Boiling Point": "89.5 \u00b0C", "Melting Point": "-90 \u00b0C", "Density": "1.68503 g/cm\u00b3 @ Temp: 30 \u00b0C"}}