{"cas_no": "75-34-3", "cn_name": "1,1-\u4e8c\u6c2f\u4e59\u70f7", "en_name": ["1,1-Dichloroethane", "Ethane, 1,1-dichloro-", "1,1-Dichloroethane", "Ethylidene chloride", "Ethylidene dichloride", "Dichloromethylmethane", "1,1-Ethylene dichloride", "HCC 150a", "F 150a"], "SMILES": "C(C)(Cl)Cl", "physical_data": {"Molecular Weight": "98.96", "Molecular Formula": "C2H4Cl2", "Boiling Point": "57.4 \u00b0C", "Melting Point": "-96.9 \u00b0C", "Density": "1.1680 g/cm\u00b3 @ Temp: 25 \u00b0C"}}