{"cas_no": "75-38-7", "cn_name": "1,1-\u4e8c\u6c1f\u4e59\u70ef(\u504f\u6c1f\u4e59\u70ef)", "en_name": ["Vinylidene fluoride", "Ethene, 1,1-difluoro-", "Ethylene, 1,1-difluoro-", "1,1-Difluoroethene", "1,1-Difluoroethylene", "Genetron 1132a", "Vinylidene fluoride", "Vinylidene difluoride", "HFC 1132a", "R 1132a", "CA 16", "FC 1132a", "Fluorovinylidene", "HFO 1132A"], "SMILES": "C(=C)(F)F", "physical_data": {"Molecular Weight": "64.03", "Molecular Formula": "C2H2F2", "Boiling Point": "-83 \u00b0C", "Melting Point": "-144 \u00b0C", "Density": "0.6 g/cm\u00b3"}}