{"cas_no": "75-45-6", "cn_name": "\u4e00\u6c2f\u4e8c\u6c1f\u7532\u70f7", "en_name": ["Chlorodifluoromethane", "Methane, chlorodifluoro-", "Chlorodifluoromethane", "Ucon 22", "Algofrene 6", "Arcton 4", "Difluorochloromethane", "Electro-CF 22", "Freon 22", "Frigen 22", "Genetron 22", "Isotron 22", "Monochlorodifluoromethane", "R 22", "Difluoromonochloromethane", "Algeon 22", "FC 22", "Khladon 22", "Daiflon 22", "Dymel 22", "Arcton 22", "Flugene 22", "Isceon 22", "Haltron 22", "Forane 22", "Algofrene 22", "Propellant 22", "Refrigerant 22", "CFC 22", "Fron 22", "FKW 22", "Refrigerant R 22", "HCFC 22", "F 22 (halocarbon)", "HFA 22", "Solkane 22", "Halon 22", "FC 22 (halocarbon)", "Korfron 22", "Difluoromethyl chloride", "Freon R 22"], "SMILES": "C(Cl)(F)F", "physical_data": {"Molecular Weight": "86.47", "Molecular Formula": "CHClF2", "Boiling Point": "-40.8 \u00b0C @ Press: 760 Torr", "Melting Point": "-157.4 \u00b0C", "Density": "1.194 g/cm\u00b3 @ Temp: 25 \u00b0C"}}