{"cas_no": "75-43-4", "cn_name": "\u4e8c\u6c2f\u4e00\u6c1f\u7532\u70f7", "en_name": ["Dichlorofluoromethane", "Methane, dichlorofluoro-", "Dichlorofluoromethane", "F 21", "Algofrene Type 5", "Arcton 7", "Dichloromonofluoromethane", "Fluorodichloromethane", "Freon 21", "Genetron 21", "Monofluorodichloromethane", "FC 21", "Fluorocarbon-21", "R 21", "R 21 (refrigerant)", "CFC 21", "HCFC 21", "AF 22", "AF 22 (fluorocarbon)", "F 21 (fluorocarbon)", "FCFC 141b"], "SMILES": "C(Cl)(Cl)F", "physical_data": {"Molecular Weight": "102.92", "Molecular Formula": "CHCl2F", "Boiling Point": "8.9 \u00b0C @ Press: 760 Torr", "Melting Point": "-135 \u00b0C", "Density": "1.405 g/cm\u00b3 @ Temp: 9 \u00b0C"}}