{"cas_no": "75-47-8", "cn_name": "\u7898\u4eff", "en_name": ["Iodoform", "Methane, triiodo-", "Triiodomethane", "Iodoform", "Carbon triiodide", "Dezinfekt V", "NSC 26251"], "SMILES": "C(I)(I)I", "physical_data": {"Molecular Weight": "393.73", "Molecular Formula": "CHI3", "Boiling Point": "218 \u00b0C", "Melting Point": "119 \u00b0C", "Density": "4.008 g/cm\u00b3 @ Temp: 25 \u00b0C"}}