{"cas_no": "75-46-7", "cn_name": "\u4e09\u6c1f\u7532\u70f7", "en_name": ["Trifluoromethane", "Methane, trifluoro-", "Trifluoromethane", "Arcton 1", "Carbon trifluoride", "Fluoroform", "Freon 23", "Genetron 23", "R 23 (halocarbon)", "Methyl trifluoride", "Fluoryl", "R 23", "FC 23", "FC 23 (fluorocarbon)", "Fron 23", "Trifluoromethane (CHF3)", "HFC 23", "HCFC 23", "Ecolo Ace 23", "FE 13"], "SMILES": "C(F)(F)F", "physical_data": {"Molecular Weight": "70.01", "Molecular Formula": "CHF3", "Boiling Point": "-84.4 \u00b0C", "Melting Point": "-160 \u00b0C", "Density": "1.44 g/cm\u00b3"}}