{"cas_no": "75-44-5", "cn_name": "\u5149\u6c14", "en_name": ["Phosgene", "Carbonic dichloride", "Phosgene", "CG", "Chloroformyl chloride", "Carbon oxychloride", "Carbonyl chloride", "Carbonyl dichloride", "Phosgen", "Carbon dichloride oxide", "Dichloroformaldehyde", "MeSH ID: D010705"], "SMILES": "C(Cl)(Cl)=O", "physical_data": {"Molecular Weight": "98.92", "Molecular Formula": "CCl2O", "Boiling Point": "8.2 \u00b0C @ Press: 760 Torr", "Melting Point": "-118 \u00b0C", "Density": "1.3719 g/cm\u00b3 @ Temp: 25 \u00b0C"}}