{"cas_no": "75-56-9", "cn_name": "\u73af\u6c27\u4e19\u70f7", "en_name": ["(\u00b1)-Propylene oxide", "Oxirane, 2-methyl-", "Oxirane, methyl-", "Propylene oxide", "Propane, 1,2-epoxy-", "Oxypropylene", "2-Methyloxirane", "1,2-Epoxypropane", "Propene oxide", "1,2-Propylene oxide", "Epoxypropane", "Methyloxirane", "2,3-Epoxypropane", "Propylene epoxide", "AD 6 (suspending agent)", "AD 6", "Methyloxacyclopropane", "Epihydrin", "dl-Propylene oxide", "DL-1,2-Epoxypropane", "(\u00b1)-Methyloxirane", "(\u00b1)-2-Methyloxirane", "(\u00b1)-Epoxypropane", "(\u00b1)-Propylene oxide", "(\u00b1)-1,2-Epoxypropane", "Propozone", "rac-Propylene oxide", "Chemogas NV", "SK 8613L", "APA 0888", "APA 0308", "PO 8380", "P 109309"], "SMILES": "CC1CO1", "physical_data": {"Molecular Weight": "58.08", "Molecular Formula": "C3H6O", "Boiling Point": "34.23 \u00b0C", "Melting Point": "-112.13 \u00b0C", "Density": "0.8 g/cm\u00b3"}}