{"cas_no": "75-50-3", "cn_name": "\u4e09\u7532\u80fa", "en_name": ["Trimethylamine", "Methanamine, N,N-dimethyl-", "Trimethylamine", "N,N-Dimethylmethanamine", "N-Trimethylamine", "N,N,N-Trimethylamine", "TM-CP 350"], "SMILES": "N(C)(C)C", "physical_data": {"Molecular Weight": "59.11", "Molecular Formula": "C3H9N", "Boiling Point": "2.8 \u00b0C", "Melting Point": "-117.1 \u00b0C", "Density": "0.627 g/cm\u00b3 @ Temp: 25 \u00b0C"}}