{"cas_no": "75-54-7", "cn_name": "\u7532\u57fa\u4e8c\u6c2f\u7845\u70f7", "en_name": ["Methyldichlorosilane", "Silane, dichloromethyl-", "Methylsilicon dichloride", "Dichloromethylsilane", "Methyldichlorosilane", "Dichlorohydridomethylsilicon", "Monomethyldichlorosilane", "LS 50", "Methylhydrodichlorosilane"], "SMILES": "[SiH](C)(Cl)Cl", "physical_data": {"Molecular Weight": "115.03", "Molecular Formula": "CH4Cl2Si", "Boiling Point": "41 \u00b0C", "Melting Point": "-93 \u00b0C", "Density": "1.10 g/cm\u00b3 @ Temp: 27 \u00b0C"}}