{"cas_no": "75-55-8", "cn_name": "2-\u7532\u57fa\u6c2e\u4e19\u5576", "en_name": ["2-Methylaziridine", "Aziridine, 2-methyl-", "2-Methylaziridine", "Propylenimine", "1,2-Propylenimine", "2-Methylethylenimine", "DL-2-Methylaziridine", "NSC 20655"], "SMILES": "CC1CN1", "physical_data": {"Molecular Weight": "57.09", "Molecular Formula": "C3H7N", "Boiling Point": "66-67 \u00b0C @ Press: 760 Torr", "Melting Point": "-65 \u00b0C", "Density": "0.812 g/cm\u00b3 @ Temp: 16 \u00b0C"}}