{"cas_no": "75-52-5", "cn_name": "\u785d\u57fa\u7532\u70f7", "en_name": ["Nitromethane", "Methane, nitro-", "Nitromethane", "Nitrocarbol", "NSC 428", "NM"], "SMILES": "N(C)(=O)=O", "physical_data": {"Molecular Weight": "61.04", "Molecular Formula": "CH3NO2", "Boiling Point": "101.2 \u00b0C @ Press: 760 Torr", "Melting Point": "-29 \u00b0C", "Density": "1.1322 g/cm\u00b3 @ Temp: 25 \u00b0C"}}