{"cas_no": "75-58-1", "cn_name": "\u56db\u7532\u57fa\u7898\u5316\u94f5", "en_name": ["Tetramethylammonium iodide", "Methanaminium, N,N,N-trimethyl-, iodide (1:1)", "Tetramethylammonium iodide", "Ammonium, tetramethyl-, iodide", "Methanaminium, N,N,N-trimethyl-, iodide", "Artilacer", "Banikol", "TMAI", "Yodurtan"], "SMILES": "[N+](C)(C)(C)C.[I-]", "physical_data": {"Molecular Weight": "", "Molecular Formula": "C4H12N.I", "Melting Point": "&gt;230 \u00b0C"}}