{"cas_no": "75-57-0", "cn_name": "\u56db\u7532\u57fa\u6c2f\u5316\u94f5", "en_name": ["Tetramethylammonium chloride", "Methanaminium, N,N,N-trimethyl-, chloride (1:1)", "Tetramethylammonium chloride", "Ammonium, tetramethyl-, chloride", "Methanaminium, N,N,N-trimethyl-, chloride", "Tetramine chloride", "Tetramine", "TMAC 100"], "SMILES": "[N+](C)(C)(C)C.[Cl-]", "physical_data": {"Molecular Weight": "", "Molecular Formula": "C4H12N.Cl", "Melting Point": "368-370 \u00b0C (decomp)", "Density": "1.17 g/cm\u00b3"}}