{"cas_no": "75-65-0", "cn_name": "\u53d4\u4e01\u9187", "en_name": ["tert-Butanol", "2-Propanol, 2-methyl-", "tert-Butyl alcohol", "2-Methyl-2-propanol", "tert-Butanol", "1,1-Dimethylethanol", "Trimethylcarbinol", "Trimethylmethanol", "t-Butanol", "t-Butanol", "2-Hydroxy-2-methylpropane", "Tert-Bu-OH"], "SMILES": "C(C)(C)(C)O", "physical_data": {"Molecular Weight": "74.12", "Molecular Formula": "C4H10O", "Boiling Point": "82.41 \u00b0C", "Melting Point": "25.7 \u00b0C", "Density": "0.8 g/cm\u00b3"}}