{"cas_no": "75-63-8", "cn_name": "\u4e09\u6c1f\u6eb4\u7532\u70f7", "en_name": ["Bromotrifluoromethane", "Methane, bromotrifluoro-", "Bromotrifluoromethane", "Halon 1301", "Bromofluoroform", "Freon 13B1", "Trifluoromonobromomethane", "Trifluorobromomethane", "Trifluoromethyl bromide", "F 13B1", "Monobromotrifluoromethane", "R 13B1", "FC 13B1", "Fluorocarbon 1301", "Flugex 13B1", "Carbon monobromide trifluoride", "Khladon 13B1", "Refrigerant 13B1", "FKWR 13B1", "CFC 13B1", "Daiflon 13B1", "Carbon bromide fluoride (CBrF3)", "Perfluoromethyl bromide", "Halon 13B1"], "SMILES": "C(Br)(F)(F)F", "physical_data": {"Molecular Weight": "148.91", "Molecular Formula": "CBrF3", "Boiling Point": "-57.8 \u00b0C @ Press: 760 Torr", "Melting Point": "-172 \u00b0C", "Density": "1.5 g/cm\u00b3"}}