{"cas_no": "75-69-4", "cn_name": "\u4e09\u6c2f\u6c1f\u7532\u70f7", "en_name": ["Trichlorofluoromethane", "Methane, trichlorofluoro-", "Trichlorofluoromethane", "Algofrene Type 1", "Electro CF 11", "Fluorotrichloromethane", "Frigen 11", "Genetron 11", "Isceon 131", "Ledon 11", "Monofluorotrichloromethane", "Isotron 11", "Trichloromonofluoromethane", "Freon MF", "Freon 11", "Frigen 11A", "Propellant 11", "R 11", "Trichlorofluorocarbon", "FC 11 (halocarbon)", "FKW 11", "Fluorochloroform", "R 11 (refrigerant)", "FC 11", "Kaltron 11", "Khladon 11", "F 11 (halocarbon)", "F 11", "Halon 11", "Refrigerant 11", "Daiflon S 1", "Daiflon 11", "Arcton 11", "Frigen S 11", "Refrigerant R 11", "Fron 11", "CFC 11", "Genetron 11SBA", "Asahifron 11", "Trichloromethyl fluoride", "R 11SS", "Dymel 11", "Freon 11A", "Fluon 11", "Chladone 11", "F 211"], "SMILES": "C(Cl)(Cl)(Cl)F", "physical_data": {"Molecular Weight": "137.37", "Molecular Formula": "CCl3F", "Boiling Point": "23.7 \u00b0C @ Press: 760 Torr", "Melting Point": "-111 \u00b0C", "Density": "1.494 g/cm\u00b3 @ Temp: 17.2 \u00b0C"}}