{"cas_no": "75-61-6", "cn_name": "\u4e8c\u6eb4\u4e8c\u6c1f\u70f7", "en_name": ["Dibromodifluoromethane", "Methane, dibromodifluoro-", "Dibromodifluoromethane", "Halon 1202", "Difluorodibromomethane", "Freon 12B2", "R 12B2", "Carbon dibromide difluoride", "Carbon bromide fluoride (CBr2F2)", "F 12B2"], "SMILES": "C(Br)(Br)(F)F", "physical_data": {"Molecular Weight": "209.82", "Molecular Formula": "CBr2F2", "Boiling Point": "25 \u00b0C @ Press: 760 Torr", "Melting Point": "-110.1 \u00b0C", "Density": "2 x 10<sup>-6</sup> g/cm\u00b3 @ Temp: 15 \u00b0C"}}