{"cas_no": "75-62-7", "cn_name": "\u4e09\u6c2f\u6eb4\u7532\u70f7", "en_name": ["Bromotrichloromethane", "Methane, bromotrichloro-", "Bromotrichloromethane", "Trichlorobromomethane", "Carbon bromotrichloride", "Monobromotrichloromethane", "Trichloromethyl bromide", "Carbon trichlorobromide", "Carbon bromide trichloride (CBrCl3)", "Bromotrichlormethane", "NSC 8017", "MeSH ID: D001975"], "SMILES": "C(Br)(Cl)(Cl)Cl", "physical_data": {"Molecular Weight": "198.27", "Molecular Formula": "CBrCl3", "Boiling Point": "105 \u00b0C", "Melting Point": "-5.7 \u00b0C", "Density": "2.012 g/cm\u00b3 @ Temp: 25 \u00b0C"}}