{"cas_no": "75-60-5", "cn_name": "\u4e8c\u7532\u6b21\u80c2\u9178", "en_name": ["Dimethylarsinic acid", "Arsinic acid, As,As-dimethyl-", "Cacodylic acid", "Arsine oxide, hydroxydimethyl-", "Arsinic acid, dimethyl-", "As,As-Dimethylarsinic acid", "Ansar 138", "Arsan", "Dimethylarsinic acid", "Hydroxydimethylarsine oxide", "Silvisar 510", "Dimethylarsenic acid", "Sylvicor", "Phytar", "NSC 103115", "NSC 71157", "NSC 71158"], "SMILES": "[As](C)(C)(=O)O", "physical_data": {"Molecular Weight": "138.00", "Molecular Formula": "C2H7AsO2", "Boiling Point": "&gt;200 \u00b0C", "Melting Point": "195 \u00b0C"}}