{"cas_no": "75-66-1", "cn_name": "\u53d4\u4e01\u57fa\u786b\u9187", "en_name": ["tert-Butyl mercaptan", "2-Propanethiol, 2-methyl-", "2-Methyl-2-propanethiol", "tert-Butanethiol", "tert-Butylthiol", "1,1-Dimethylethanethiol", "2-Isobutanethiol", "t-Butylmercaptan", "t-Butylthiol", "t-Butanethiol", "tert-Butyl mercaptan", "TBM"], "SMILES": "C(C)(C)(C)S", "physical_data": {"Molecular Weight": "90.19", "Molecular Formula": "C4H10S", "Boiling Point": "-63.7-64.2 \u00b0C @ Press: 760 Torr", "Melting Point": "-0.5 \u00b0C", "Density": "0.80 g/cm\u00b3"}}