{"cas_no": "75-64-9", "cn_name": "\u53d4\u4e01\u80fa", "en_name": ["tert-Butylamine", "2-Propanamine, 2-methyl-", "tert-Butylamine", "2-Methyl-2-propanamine", "2-Aminoisobutane", "2-Amino-2-methylpropane", "Trimethylaminomethane", "2-Methyl-2-aminopropane", "1,1-Dimethylethylamine", "t-Butylamine", "1,1-Dimethylethanamine", "Erbumine", "1-Amino-1,1-dimethylethane", "tert-Butylamine", "2-Methyl-2-propylamine", "N-tert-Butylamine", "NSC 9571", "TB Amine"], "SMILES": "C(C)(C)(C)N", "physical_data": {"Molecular Weight": "73.14", "Molecular Formula": "C4H11N", "Boiling Point": "44 \u00b0C", "Melting Point": "-66.9 \u00b0C", "Density": "0.6958 g/cm\u00b3 @ Temp: 20 \u00b0C"}}