{"cas_no": "75-68-3", "cn_name": "1-\u6c2f-1,1-\u4e8c\u6c1f\u4e59\u70f7", "en_name": ["1-Chloro-1,1-difluoroethane", "Ethane, 1-chloro-1,1-difluoro-", "1-Chloro-1,1-difluoroethane", "\u03b1-Chloroethylidene fluoride", "Genetron 101", "Genetron 142b", "1,1-Difluoro-1-chloroethane", "FC 142b", "Freon 142b", "R 142b", "Dymel 142", "F 142b", "CFC 142b", "FKW 142b", "Fron 142b", "HCFC 142b", "HFA 142b", "Daiflon 142b", "Solkane 142b", "Propellant 142B"], "SMILES": "C(C)(Cl)(F)F", "physical_data": {"Molecular Weight": "100.50", "Molecular Formula": "C2H3ClF2", "Boiling Point": "-9.7 \u00b0C", "Melting Point": "-130.8 \u00b0C", "Density": "1 x 10<sup>-6</sup> g/cm\u00b3 @ Temp: 25 \u00b0C"}}