{"cas_no": "75-74-1", "cn_name": "\u56db\u7532\u57fa\u94c5", "en_name": ["Tetramethyllead", "Plumbane, tetramethyl-", "Lead, tetramethyl-", "Tetramethylplumbane", "Tetramethyllead"], "SMILES": "[Pb](C)(C)(C)C", "physical_data": {"Molecular Weight": "267.34", "Molecular Formula": "C4H12Pb", "Boiling Point": "110 \u00b0C @ Press: 10 Torr", "Melting Point": "-27.5 \u00b0C", "Density": "199.5 g/cm\u00b3"}}