{"cas_no": "75-72-9", "cn_name": "\u6c2f\u4e09\u6c1f\u7532\u70f7", "en_name": ["Chlorotrifluoromethane", "Methane, chlorotrifluoro-", "Chlorotrifluoromethane", "F 13", "Freon 13", "Arcton 3", "Genetron 13", "Trifluorochloromethane", "Trifluoromonochlorocarbon", "R 13 (refrigerant)", "Trifluoromethyl chloride", "Monochlorotrifluoromethane", "FC 13", "Frigen 13", "Refrigerant 13", "Freon R 13", "CFC 13", "FKW 13", "Khladon 13", "R 13", "Refrigerant R 13", "F 13 (refrigerant)", "HFC 13"], "SMILES": "C(Cl)(F)(F)F", "physical_data": {"Molecular Weight": "104.46", "Molecular Formula": "CClF3", "Boiling Point": "-81.4 \u00b0C @ Press: 760 Torr", "Melting Point": "-181 \u00b0C", "Density": "1.3 g/cm\u00b3"}}