{"cas_no": "75-77-4", "cn_name": "\u4e09\u7532\u57fa\u6c2f\u7845\u70f7", "en_name": ["Chlorotrimethylsilane", "Silane, chlorotrimethyl-", "Chlorotrimethylsilane", "Trimethylchlorosilane", "Trimethylsilyl chloride", "Trimethylsilicon chloride", "Monochlorotrimethylsilicon", "Trimethylsilane chloride", "TSL 8031", "Monochlorotrimethylsilane", "KA 31", "KA 31 (silane)", "NSC 15750", "TMCS", "LS 260", "TMSCl"], "SMILES": "[Si](C)(C)(C)Cl", "physical_data": {"Molecular Weight": "108.64", "Molecular Formula": "C3H9ClSi", "Boiling Point": "57 \u00b0C", "Melting Point": "-57.7 \u00b0C", "Density": "0.854 g/cm\u00b3 @ Temp: 25 \u00b0C"}}