{"cas_no": "75-73-0", "cn_name": "\u56db\u6c1f\u5316\u78b3", "en_name": ["Carbon tetrafluoride", "Methane, tetrafluoro-", "Carbon tetrafluoride", "Tetrafluoromethane", "Arcton 0", "Freon 14", "Carbon fluoride (CF4)", "Perfluoromethane", "FC 14", "R 14", "R 14 (refrigerant)", "Refrigerant 14", "Carbon tetrafluoride (CF4)", "Refrigerant R 14", "Freon R 14", "CFC 14", "Khladon 14", "FC 14 (refrigerant)", "DF 14", "PFC 14"], "SMILES": "C(F)(F)(F)F", "physical_data": {"Molecular Weight": "88.00", "Molecular Formula": "CF4", "Boiling Point": "-127.8 \u00b0C", "Melting Point": "-183.6 \u00b0C", "Density": "3.034 g/cm\u00b3 @ Temp: 25 \u00b0C"}}