{"cas_no": "75-71-8", "cn_name": "\u4e8c\u6c2f\u4e8c\u6c1f\u7532\u70f7", "en_name": ["Dichlorodifluoromethane", "Methane, dichlorodifluoro-", "Dichlorodifluoromethane", "Freon 12", "Algofrene Type 2", "Arcton 6", "Difluorodichloromethane", "Electro-CF 12", "Frigen 12", "Genetron 12", "Isceon 122", "Isotron 12", "Ledon 12", "FC 12", "R 12 (refrigerant)", "Arcton 12", "R 12", "Chlorofluorocarbon 12", "F 12", "CF 12", "Forane 12", "CFC 12", "Khladon 12", "FKW 12", "Dichlorodifluoromethane (CCl2F2)", "FCC 12", "F 12 (halocarbon)", "Fron 12", "Refrigerant R 12", "Carbon dichloride difluoride", "Frigen R12", "Dymel 12", "CF 12 (halocarbon)", "SDD 100", "Chladone 12", "HC 12", "FC 12 (refrigerant)"], "SMILES": "C(Cl)(Cl)(F)F", "physical_data": {"Molecular Weight": "120.91", "Molecular Formula": "CCl2F2", "Boiling Point": "-29.8 \u00b0C @ Press: 760 Torr", "Melting Point": "-158 \u00b0C", "Density": "1.486 g/cm\u00b3 @ Temp: -29.8 \u00b0C"}}