{"cas_no": "75-75-2", "cn_name": "\u7532\u57fa\u78fa\u9178", "en_name": ["Methanesulfonic acid", "Methanesulfonic acid", "Methylsulfonic acid", "MCAT 1201", "NSC 3718", "Scaleva", "Mesylic acid", "Lutropure MAS", "Lutropur MSA", "Lutropur G 100", "Circuposit Neutralizer 3319/4190", "Methanesulfonic acids", "Mesylates", "Lutropur MSA 100", "Lutropur M"], "SMILES": "S(C)(=O)(=O)O", "physical_data": {"Molecular Weight": "96.11", "Molecular Formula": "CH4O3S", "Boiling Point": "167 \u00b0C @ Press: 10 Torr", "Melting Point": "20 \u00b0C", "Density": "1.4812 g/cm\u00b3 @ Temp: 18 \u00b0C"}}