{"cas_no": "75-79-6", "cn_name": "\u7532\u57fa\u4e09\u6c2f\u7845\u70f7", "en_name": ["Trichloromethylsilane", "Silane, trichloromethyl-", "Trichloromethylsilane", "Methyltrichlorosilane", "Methylsilyl trichloride", "Trichloromethylsilicon", "Methylsilicon trichloride", "TSL 8003", "LS 40", "LS 40 (silane)", "KA 13", "NSC 77069", "A 154", "A 154 (silane)"], "SMILES": "[Si](C)(Cl)(Cl)Cl", "physical_data": {"Molecular Weight": "149.48", "Molecular Formula": "CH3Cl3Si", "Boiling Point": "66.4 \u00b0C", "Melting Point": "-90 \u00b0C", "Density": "1.27 g/cm\u00b3 @ Temp: 25 \u00b0C"}}