{"cas_no": "75-78-5", "cn_name": "\u4e8c\u7532\u57fa\u4e8c\u6c2f\u7845\u70f7", "en_name": ["Dichlorodimethylsilane", "Silane, dichlorodimethyl-", "Dichlorodimethylsilane", "Dimethyldichlorosilane", "Inerton AW-DMCS", "Dichlorodimethylsilicon", "Dimethylsilane dichloride", "Repel-Silane", "LS 130", "M 2 (silane)", "M 2", "KA 22", "NSC 77070", "LS 130 (silane)", "DCDMS", "KA 12", "SID 4120.0", "TSL 8032"], "SMILES": "[Si](C)(C)(Cl)Cl", "physical_data": {"Molecular Weight": "129.06", "Molecular Formula": "C2H6Cl2Si", "Boiling Point": "70.5 \u00b0C", "Melting Point": "&lt;-70 \u00b0C", "Density": "1.07 g/cm\u00b3"}}