{"cas_no": "75-76-3", "cn_name": "\u56db\u7532\u57fa\u7845\u70f7", "en_name": ["Tetramethylsilane", "Silane, tetramethyl-", "Tetramethylsilane", "TMS", "TMS (silane derivative)", "NSC 5210", "T 2050"], "SMILES": "[Si](C)(C)(C)C", "physical_data": {"Molecular Weight": "88.22", "Molecular Formula": "C4H12Si", "Boiling Point": "26.6 \u00b0C", "Melting Point": "-99 \u00b0C", "Density": "0.641 g/cm\u00b3"}}