{"cas_no": "75-82-1", "cn_name": "1,2-\u4e8c\u6eb4-1,1-\u4e8c\u6c1f\u4e59\u70f7", "en_name": ["1,2-Dibromo-1,1-difluoroethane", "Ethane, 1,2-dibromo-1,1-difluoro-", "1,2-Dibromo-1,1-difluoroethane", "Genetron 132b-B2", "1,1-Difluoro-1,2-dibromoethane"], "SMILES": "C(CBr)(Br)(F)F", "physical_data": {"Molecular Weight": "223.84", "Molecular Formula": "C2H2Br2F2", "Boiling Point": "92.5 \u00b0C", "Melting Point": "-61.3 \u00b0C", "Density": "2.2238 g/cm\u00b3 @ Temp: 20.0 \u00b0C"}}