{"cas_no": "75-89-8", "cn_name": "2,2,2-\u4e09\u6c1f\u4e59\u9187", "en_name": ["2,2,2-Trifluoroethanol", "Ethanol, 2,2,2-trifluoro-", "2,2,2-Trifluoroethanol", "\u03b2,\u03b2,\u03b2-Trifluoroethyl alcohol", "2,2,2-Trifluoroethyl alcohol", "TFE", "NSC 451", "2,2,2-Trifluoroethan-1-ol", "MeSH ID: D014270"], "SMILES": "C(CO)(F)(F)F", "physical_data": {"Molecular Weight": "100.04", "Molecular Formula": "C2H3F3O", "Boiling Point": "74 \u00b0C", "Melting Point": "-43.5 \u00b0C", "Density": "1.4106 g/cm\u00b3 @ Temp: 0 \u00b0C"}}