{"cas_no": "75-83-2", "cn_name": "2,2-\u4e8c\u7532\u57fa\u4e01\u70f7", "en_name": ["2,2-Dimethylbutane", "Butane, 2,2-dimethyl-", "2,2-Dimethylbutane", "Neohexane", "3,3-Dimethylbutane", "NSC 74126", "tert-Butylethane"], "SMILES": "C(CC)(C)(C)C", "physical_data": {"Molecular Weight": "86.18", "Molecular Formula": "C6H14", "Boiling Point": "49.7 \u00b0C @ Press: 760 Torr", "Melting Point": "-99.9 \u00b0C", "Density": "0.6485 g/cm\u00b3 @ Temp: 20 \u00b0C"}}