{"cas_no": "75-85-4", "cn_name": "\u53d4\u620a\u9187", "en_name": ["2-Methyl-2-butanol", "2-Butanol, 2-methyl-", "tert-Pentyl alcohol", "2-Methyl-2-butanol", "tert-Amyl alcohol", "Amylene hydrate", "Dimethylethylcarbinol", "tert-Pentanol", "Ethyldimethylcarbinol", "1,1-Dimethyl-1-propanol", "2-Methyl-2-hydroxybutane", "2-Ethyl-2-propanol", "2-Hydroxy-2-methylbutane", "NSC 25498"], "SMILES": "C(CC)(C)(C)O", "physical_data": {"Molecular Weight": "88.15", "Molecular Formula": "C5H12O", "Boiling Point": "102.4 \u00b0C @ Press: 760 Torr", "Melting Point": "-8.8 \u00b0C", "Density": "0.8096 g/cm\u00b3 @ Temp: 20 \u00b0C"}}