{"cas_no": "75-81-0", "cn_name": "1,2-\u4e8c\u6eb4-1,1-\u4e8c\u6c2f\u4e59\u70f7", "en_name": ["1,2-Dibromo-1,1-dichloroethane", "Ethane, 1,2-dibromo-1,1-dichloro-", "1,2-Dibromo-1,1-dichloroethane", "1,2-Dibromo-2,2-dichloroethane", "1,1-Dichloro-1,2-dibromoethane", "NSC 6199"], "SMILES": "C(CBr)(Br)(Cl)Cl", "physical_data": {"Molecular Weight": "256.75", "Molecular Formula": "C2H2Br2Cl2", "Boiling Point": "195 \u00b0C", "Melting Point": "-26 \u00b0C", "Density": "2.135 g/cm\u00b3"}}