{"cas_no": "75-86-5", "cn_name": "\u4e19\u916e\u6c30\u9187", "en_name": ["Acetone cyanohydrin", "Propanenitrile, 2-hydroxy-2-methyl-", "Lactonitrile, 2-methyl-", "2-Hydroxy-2-methylpropanenitrile", "\u03b1-Hydroxyisobutyronitrile", "2-Methyllactonitrile", "Acetone cyanohydrin", "2-Hydroxyisobutyronitrile", "2-Hydroxy-2-methylpropionitrile", "2-Cyano-2-propanol", "2-Cyano-2-hydroxypropane", "2-Hydroxy-2-cyanopropane", "2-Methyl-2-hydroxypropionitrile", "2-Propanone, cyanohydrin", "Dimethyl ketone cyanohydrin", "NSC 131093", "NSC 7080", "NSC 977", "2-Methyl-2-hydroxypropanenitrile"], "SMILES": "C(C#N)(C)(C)O", "physical_data": {"Molecular Weight": "85.10", "Molecular Formula": "C4H7NO", "Boiling Point": "95 \u00b0C @ Press: 760 Torr", "Melting Point": "-19 \u00b0C", "Density": "0.9267 g/cm\u00b3 @ Temp: 25 \u00b0C"}}