{"cas_no": "75-84-3", "cn_name": "\u65b0\u620a\u9187", "en_name": ["Neopentyl alcohol", "1-Propanol, 2,2-dimethyl-", "2,2-Dimethyl-1-propanol", "tert-Butylcarbinol", "Neoamyl alcohol", "Neopentanol", "Neopentyl alcohol", "2,2-Dimethylpropyl alcohol", "\u03b1,\u03b1-Dimethylpropanol", "2,2,2-Trimethylethanol"], "SMILES": "C(CO)(C)(C)C", "physical_data": {"Molecular Weight": "88.15", "Molecular Formula": "C5H12O", "Boiling Point": "114 \u00b0C", "Melting Point": "53 \u00b0C", "Density": "0.812 g/cm\u00b3 @ Temp: 20 \u00b0C"}}