{"cas_no": "75-88-7", "cn_name": "2-\u6c2f-1,1,1-\u6c1f\u4e59\u70f7", "en_name": ["2-Chloro-1,1,1-trifluoroethane", "Ethane, 2-chloro-1,1,1-trifluoro-", "2-Chloro-1,1,1-trifluoroethane", "1,1,1-Trifluoroethyl chloride", "Genetron 133a", "1-Chloro-2,2,2-trifluoroethane", "1,1,1-Trifluoro-2-chloroethane", "R 133a", "2,2,2-Trifluorochloroethane", "FC 133a", "Freon 133a", "2,2,2-Trifluoroethyl chloride", "1,1,1-Trifluorochloroethane", "(Chloromethyl)trifluoromethane", "HCFC 133a", "F 133a", "Forane 133a", "2,2,2-Trifluoro-1-chloroethane"], "SMILES": "C(CCl)(F)(F)F", "physical_data": {"Molecular Weight": "118.49", "Molecular Formula": "C2H2ClF3", "Boiling Point": "6.1 \u00b0C", "Melting Point": "-105.3 \u00b0C", "Density": "1.389 g/cm\u00b3 @ Temp: 0 \u00b0C"}}