{"cas_no": "75-80-9", "cn_name": "\u4e09\u6eb4\u4e59\u9187", "en_name": ["Tribromoethanol", "Ethanol, 2,2,2-tribromo-", "2,2,2-Tribromoethanol", "Bromethol", "Avertin", "Ethobrom", "Narcolan", "Narkolan", "2,2,2-Tribromoethyl alcohol", "Tribromoethanol", "\u03b2-Tribromoethanol", "Rectanol", "Basibrol", "Ethobrome", "Narcotyl", "NSC 2189", "2,2,2-Tribromoethan-1-ol"], "SMILES": "C(CO)(Br)(Br)Br", "physical_data": {"Molecular Weight": "282.76", "Molecular Formula": "C2H3Br3O", "Boiling Point": "92-93 \u00b0C", "Melting Point": "81 \u00b0C"}}