{"cas_no": "75-87-6", "cn_name": "\u4e09\u6c2f\u4e59\u919b", "en_name": ["Chloral", "Acetaldehyde, 2,2,2-trichloro-", "Chloral", "Acetaldehyde, trichloro-", "2,2,2-Trichloroacetaldehyde", "Anhydrous chloral", "Trichloroacetaldehyde", "Trichloroethanal", "Grasex", "Sporotal 100", "2,2,2-Trichloroethanal"], "SMILES": "C(C=O)(Cl)(Cl)Cl", "physical_data": {"Molecular Weight": "147.39", "Molecular Formula": "C2HCl3O", "Boiling Point": "97.8 \u00b0C @ Press: 760 Torr", "Melting Point": "-57.5 \u00b0C", "Density": "1.5121 g/cm\u00b3 @ Temp: 20 \u00b0C"}}