{"cas_no": "75-91-2", "cn_name": "\u53d4\u4e01\u57fa\u8fc7\u6c27\u5316\u6c22", "en_name": ["tert-Butyl hydroperoxide", "Hydroperoxide, 1,1-dimethylethyl", "tert-Butyl hydroperoxide", "1,1-Dimethylethyl hydroperoxide", "Cadox TBH", "Perbutyl H", "2-Hydroperoxy-2-methylpropane", "Trigonox A-W 70", "Kayabutyl H", "Perbutyl H 69T", "t-Butyl hydroperoxide", "Perbutyl H 80", "tert-Butyl hydrogen peroxide", "TBHP", "Perbutyl H 69", "Luperox TBH 70X", "NSC 672", "Luperox H 70", "Kayabutyl H 70", "T-HYDRO", "Luperox TBHP", "Peroxan BHP 10", "Luperox TBH", "H 70", "2-Methylpropane-2-peroxol", "Luperox TBH 68X", "MeSH ID: D020122"], "SMILES": "C(OO)(C)(C)C", "physical_data": {"Molecular Weight": "90.12", "Molecular Formula": "C4H10O2", "Boiling Point": "35 \u00b0C @ Press: 20 Torr", "Melting Point": "-8 \u00b0C", "Density": "0.8960 g/cm\u00b3 @ Temp: 20 \u00b0C"}}