{"cas_no": "75-94-5", "cn_name": "\u4e59\u70ef\u57fa\u4e09\u6c2f\u7845\u70f7", "en_name": ["Vinyltrichlorosilane", "Silane, trichloroethenyl-", "Silane, trichlorovinyl-", "Trichloroethenylsilane", "Trichlorovinylsilane", "Vinylsilicon trichloride", "Vinyltrichlorosilane", "VTCS", "A 150", "Trichlorovinylsilicon", "A 150 (silane)", "KA 1003", "Vinylsilyl trichloride", "TSL 8303", "NSC 93872", "Dynasylan VTC", "3-Vinyltrichlorosilane", "Silquest A 150"], "SMILES": "[Si](C=C)(Cl)(Cl)Cl", "physical_data": {"Molecular Weight": "161.49", "Molecular Formula": "C2H3Cl3Si", "Boiling Point": "91.5 \u00b0C", "Melting Point": "-95 \u00b0C", "Density": "1.2426 g/cm\u00b3 @ Temp: 20 \u00b0C"}}