{"cas_no": "75-97-8", "cn_name": "\u9891\u54ea\u916e", "en_name": ["Pinacolone", "2-Butanone, 3,3-dimethyl-", "3,3-Dimethyl-2-butanone", "tert-Butyl methyl ketone", "Methyl tert-butyl ketone", "Pinacolin", "Pinacoline", "Pinacolone", "2,2-Dimethyl-3-butanone", "1,1,1-Trimethylacetone", "1,1-Dimethylethyl methyl ketone", "Methyl-t-butylketone", "NSC 935"], "SMILES": "C(C(C)=O)(C)(C)C", "physical_data": {"Molecular Weight": "100.16", "Molecular Formula": "C6H12O", "Boiling Point": "106.1 \u00b0C", "Melting Point": "-52.5 \u00b0C", "Density": "0.7229 g/cm\u00b3 @ Temp: 25 \u00b0C"}}