{"cas_no": "75-96-7", "cn_name": "\u4e09\u6eb4\u4e59\u9178", "en_name": ["Tribromoacetic acid", "Acetic acid, 2,2,2-tribromo-", "Acetic acid, tribromo-", "2,2,2-Tribromoacetic acid", "Tribromoacetic acid", "NSC 171102"], "SMILES": "C(C(O)=O)(Br)(Br)Br", "physical_data": {"Molecular Weight": "296.74", "Molecular Formula": "C2HBr3O2", "Melting Point": "132 \u00b0C"}}