{"cas_no": "75-90-1", "cn_name": "2,2,2-\u4e09\u6c1f\u4e59\u919b", "en_name": ["Trifluoroacetaldehyde", "Acetaldehyde, 2,2,2-trifluoro-", "Acetaldehyde, trifluoro-", "Fluoral", "2,2,2-Trifluoroacetaldehyde", "Fluoral (aldehyde)", "Trifluoroacetaldehyde", "Trifluoroethanal", "Trifluoromethyl aldehyde", "NSC 9446"], "SMILES": "C(C=O)(F)(F)F", "physical_data": {"Molecular Weight": "98.02", "Molecular Formula": "C2HF3O", "Boiling Point": "-20 \u00b0C"}}