{"cas_no": "75-98-9", "cn_name": "\u4e09\u7532\u57fa\u4e59\u9178", "en_name": ["Pivalic acid", "Propanoic acid, 2,2-dimethyl-", "Pivalic acid", "2,2-Dimethylpropanoic acid", "\u03b1,\u03b1-Dimethylpropionic acid", "Neopentanoic acid", "Trimethylacetic acid", "2,2-Dimethylpropionic acid", "tert-Pentanoic acid", "2,2,2-Trimethylacetic acid", "Versatic 5 acid", "Trimethylmethanecarboxylic acid", "NSC 65449", "Neovaleric acid", "Versatic Acid 5"], "SMILES": "C(C(O)=O)(C)(C)C", "physical_data": {"Molecular Weight": "102.13", "Molecular Formula": "C5H10O2", "Boiling Point": "163.8 \u00b0C", "Melting Point": "35.5 \u00b0C", "Density": "0.905 g/cm\u00b3 @ Temp: 50 \u00b0C"}}