{"cas_no": "75-99-0", "cn_name": "2,2-\u4e8c\u6c2f\u4e19\u9178", "en_name": ["Dalapon", "Propanoic acid, 2,2-dichloro-", "Propionic acid, 2,2-dichloro-", "2,2-Dichloropropanoic acid", "Dalapon", "\u03b1,\u03b1-Dichloropropionic acid", "2,2-Dichloropropionic acid", "DPA", "2,2-DPA", "Alatex", "Basinex P", "S 95", "S 95 (herbicide)", "S 1315", "\u03b1,\u03b1-Dichloropropanoic acid", "Proprop", "Tripon", "Dalascam", "NSC 56352", "Dalapon 740"], "SMILES": "C(C(O)=O)(C)(Cl)Cl", "physical_data": {"Molecular Weight": "142.97", "Molecular Formula": "C3H4Cl2O2", "Boiling Point": "190 \u00b0C", "Melting Point": "20 \u00b0C", "Density": "1.4014 g/cm\u00b3 @ Temp: 20 \u00b0C"}}