{"cas_no": "75-95-6", "cn_name": "\u4e94\u6eb4\u4e59\u70f7", "en_name": ["1,1,1,2,2-Pentabromoethane", "Ethane, 1,1,1,2,2-pentabromo-", "Ethane, pentabromo-", "1,1,1,2,2-Pentabromoethane", "Pentabromoethane"], "SMILES": "C(C(Br)Br)(Br)(Br)Br", "physical_data": {"Molecular Weight": "424.55", "Molecular Formula": "C2HBr5", "Boiling Point": "140 \u00b0C @ Press: 15 Torr", "Melting Point": "56.5 \u00b0C"}}