{"cas_no": "7500-53-0", "cn_name": "1,2-\u82ef\u4e8c\u4e59\u9178", "en_name": ["1,2-Benzenediacetic acid", "1,2-Benzenediacetic acid", "o-Benzenediacetic acid", "o-Phenylenediacetic acid", "1,2-Phenylenediacetic acid", "NSC 401681", "(2-Carboxymethylphenyl)acetic acid", "2,2\u2032-(1,2-Phenylene)diacetic acid", "2-[2-(Carboxymethyl)phenyl]acetic acid"], "SMILES": "C(C(O)=O)C1=C(CC(O)=O)C=CC=C1", "physical_data": {"Molecular Weight": "194.18", "Molecular Formula": "C10H10O4", "Melting Point": "150-152 \u00b0C"}}