{"cas_no": "75001-31-9", "cn_name": "2-(\u4e8c\u4e59\u80fa\u57fa)-1,3-\u567b\u5511\u7532\u919b", "en_name": ["6-Methylimidazo[2,1-b]thiazole-5-carboxaldehyde", "Imidazo[2,1-b]thiazole-5-carboxaldehyde, 6-methyl-", "6-Methylimidazo[2,1-b]thiazole-5-carboxaldehyde", "5-Formyl-6-methylimidazo[2,1-b]thiazole", "NSC 315206", "6-Methylimidazo[2,1-b][1,3]thiazole-5-carboxaldehyde"], "SMILES": "C(=O)C=1N2C(=NC1C)SC=C2", "physical_data": {"Molecular Weight": "166.20", "Molecular Formula": "C7H6N2OS", "Melting Point": "140-142 \u00b0C"}}