{"cas_no": "75011-65-3", "cn_name": "\u76d0\u9178\u5f02\u6ce2\u5e15\u80fa", "en_name": ["Ibopamine hydrochloride", "Propanoic acid, 2-methyl-, 1,1\u2032-[4-[2-(methylamino)ethyl]-1,2-phenylene] ester, hydrochloride (1:1)", "Propanoic acid, 2-methyl-, 4-[2-(methylamino)ethyl]-1,2-phenylene ester, hydrochloride", "3,4-Di-O-isobutyrylepinine hydrochloride", "Ibopamine hydrochloride", "Inopamil", "Scandine"], "SMILES": "O(C(C(C)C)=O)C1=C(OC(C(C)C)=O)C=C(CCNC)C=C1.Cl", "physical_data": {"Molecular Weight": "", "Molecular Formula": "C17H25NO4.ClH", "Melting Point": "132 \u00b0C"}}