{"cas_no": "75028-24-9", "cn_name": "(Z)-2-(5-\u6c28\u57fa-1,2,4-\u567b\u4e8c\u5511-3-\u57fa)-2-\u4e59\u6c27\u4e9a\u6c28\u57fa\u4e59\u9178", "en_name": ["(\u03b1Z)-5-Amino-\u03b1-(ethoxyimino)-1,2,4-thiadiazole-3-acetic acid", "1,2,4-Thiadiazole-3-acetic acid, 5-amino-\u03b1-(ethoxyimino)-, (\u03b1Z)-", "1,2,4-Thiadiazole-3-acetic acid, 5-amino-\u03b1-(ethoxyimino)-, (Z)-", "(\u03b1Z)-5-Amino-\u03b1-(ethoxyimino)-1,2,4-thiadiazole-3-acetic acid"], "SMILES": "C(C(O)=O)(=NOCC)C=1N=C(N)SN1", "physical_data": {"Molecular Weight": "216.22", "Molecular Formula": "C6H8N4O3S", "Melting Point": "180-185 \u00b0C"}}