{"cas_no": "7505-81-9", "cn_name": "2-\u7532\u57fa\u6c28\u57fa\u82ef\u7532\u9170\u80fa", "en_name": ["2-(Methylamino)benzamide", "Benzamide, 2-(methylamino)-", "Benzamide, o-(methylamino)-", "2-(Methylamino)benzamide", "NSC 401247", "2-Carbamoyl-N-methylaniline"], "SMILES": "N(C)C1=C(C(N)=O)C=CC=C1", "physical_data": {"Molecular Weight": "150.18", "Molecular Formula": "C8H10N2O", "Melting Point": "162 \u00b0C"}}