{"cas_no": "7506-66-3", "cn_name": "\u987a\u5f0f\u73af\u5df1-1,2-\u4e8c\u7532\u9170\u4e9a\u80fa", "en_name": ["rel-(3aR,7aS)-Hexahydro-1H-isoindole-1,3(2H)-dione", "1H-Isoindole-1,3(2H)-dione, hexahydro-, (3aR,7aS)-rel-", "1,2-Cyclohexanedicarboximide, cis-", "1H-Isoindole-1,3(2H)-dione, hexahydro-, cis-", "rel-(3aR,7aS)-Hexahydro-1H-isoindole-1,3(2H)-dione", "cis-1,2-Cyclohexanedicarboximide", "cis-Hexahydro-1H-isoindole-1,3(2H)-dione", "cis-Hexahydrophthalimide", "cis-Perhydrophthalimide"], "SMILES": "O=C1C2C(C(=O)N1)CCCC2", "physical_data": {"Molecular Weight": "153.18", "Molecular Formula": "C8H11NO2", "Melting Point": "132 \u00b0C"}}