{"cas_no": "7507-89-3", "cn_name": "1 - (2,6 -\u4e8c\u7f9f\u57fa- 4 -\u7532\u6c27\u57fa\u82ef\u57fa)\u4e59\u916e", "en_name": ["1-(2,6-Dihydroxy-4-methoxyphenyl)ethanone", "Ethanone, 1-(2,6-dihydroxy-4-methoxyphenyl)-", "Acetophenone, 2\u2032,6\u2032-dihydroxy-4\u2032-methoxy-", "1-(2,6-Dihydroxy-4-methoxyphenyl)ethanone", "4-O-Methylphloroacetophenone", "2\u2032,6\u2032-Dihydroxy-4\u2032-methoxyacetophenone", "NSC 401443", "1-(2,6-Dihydroxy-4-methoxyphenyl)ethan-1-one"], "SMILES": "C(C)(=O)C1=C(O)C=C(OC)C=C1O", "physical_data": {"Molecular Weight": "182.17", "Molecular Formula": "C9H10O4", "Melting Point": "130-137 \u00b0C"}}