{"cas_no": "7507-48-4", "cn_name": "\u53d4\u4e01\u57fa\u6c22\u918c\u4e8c\u4e59\u916f", "en_name": ["1,4-Benzenediol, 2-(1,1-dimethylethyl)-, 1,4-diacetate", "1,4-Benzenediol, 2-(1,1-dimethylethyl)-, 1,4-diacetate", "1,4-Benzenediol, 2-(1,1-dimethylethyl)-, diacetate", "Hydroquinone, tert-butyl-, diacetate", "NSC 407992"], "SMILES": "O(C(C)=O)C1=C(C(C)(C)C)C=C(OC(C)=O)C=C1", "physical_data": {"Molecular Weight": "250.29", "Molecular Formula": "C14H18O4", "Melting Point": "63.5-64.5 \u00b0C"}}