{"cas_no": "7509-13-9", "cn_name": "1-OXO-1,2-DIHYDRO-ISOQUINOLINE-3-CARBOXYLIC ACID", "en_name": ["1,2-Dihydro-1-oxo-3-isoquinolinecarboxylic acid", "3-Isoquinolinecarboxylic acid, 1,2-dihydro-1-oxo-", "1,2-Dihydro-1-oxo-3-isoquinolinecarboxylic acid", "Isocarbostyril-3-carboxylic acid", "1-Oxo-1,2-dihydroisoquinoline-3-carboxylic acid", "NSC 131339", "NSC 407253", "1-Hydroxyisoquinoline-3-carboxylic acid"], "SMILES": "O=C1C=2C(C=C(C(O)=O)N1)=CC=CC2", "physical_data": {"Molecular Weight": "189.17", "Molecular Formula": "C10H7NO3", "Melting Point": "326-328 \u00b0C"}}