{"cas_no": "751-38-2", "cn_name": "1,2,3,4-\u56db\u82ef\u57fa\u8418", "en_name": ["1,2,3,4-Tetraphenylnaphthalene", "Naphthalene, 1,2,3,4-tetraphenyl-", "1,2,3,4-Tetraphenylnaphthalene", "NSC 63121"], "SMILES": "C=1(C(=C(C2=C(C1C3=CC=CC=C3)C=CC=C2)C4=CC=CC=C4)C5=CC=CC=C5)C6=CC=CC=C6", "physical_data": {"Molecular Weight": "432.55", "Molecular Formula": "C34H24", "Melting Point": "200-202 \u00b0C"}}