{"cas_no": "751-03-1", "cn_name": "\u9ec4\u67cf\u916e", "en_name": ["Obacunone", "Oxireno[4,4a]-2-benzopyrano[6,5-g][2]benzoxepin-3,5,9(3aH,4bH,6H)-trione, 1-(3-furanyl)-1,6a,7,11a,11b,12,13,13a-octahydro-4b,7,7,11a,13a-pentamethyl-, (1S,3aS,4aR,4bR,6aR,11aR,11bR,13aS)-", "Oxireno[4,4a]-2-benzopyrano[6,5-g][2]benzoxepin-3,5,9(3a\u03b1H,4bH,6H)-trione, 1\u03b1-(3-furyl)-1,6a\u03b1,7,11a,11b\u03b1,12,13,13a-octahydro-4b\u03b2,7,7,11a\u03b2,13a\u03b1-pentamethyl-", "Obacunone", "Obacunoic acid, \u03b5-lactone", "(1S,3aS,4aR,4bR,6aR,11aR,11bR,13aS)-1-(3-Furanyl)-1,6a,7,11a,11b,12,13,13a-octahydro-4b,7,7,11a,13a-pentamethyloxireno[4,4a]-2-benzopyrano[6,5-g][2]benzoxepin-3,5,9(3aH,4bH,6H)-trione", "Tricoccin S3", "Oxireno[4,4a]-2-benzopyrano[6,5-g][2]benzoxepin-3,5,9(3aH,4bH,6H)-trione, 1-(3-furanyl)-1,6a,7,11a,11b,12,13,13a-octahydro-4b,7,7,11a,13a-pentamethyl-, [1S-(1\u03b1,3a\u03b1,4aS*,4b\u03b2,6a\u03b1,11a\u03b2,11b\u03b1,13a\u03b1)]-", "[1S-(1\u03b1,3a\u03b1,4aS*,4b\u03b2,6a\u03b1,11a\u03b2,11b\u03b1,13a\u03b1)]-1-(3-Furanyl)-1,6a,7,11a,11b,12,13,13a-octahydro-4b,7,7,11a,13a-pentamethyloxireno[4,4a]-2-benzopyrano[6,5-g][2]benzoxepin-3,5,9(3aH,4bH,6H)-trione", "Obacunoic acid 3,4-lactone", "14,15:21,23-Diepoxy-4,4,8-trimethyl-A,D-dihomo-24-nor-4,17-dioxachola-1,20,22-triene-3,7,16-trione", "Obakunone"], "SMILES": "CC12C34C(O3)C(=O)OC(C4(C)CCC1C5(C)C(CC2=O)C(C)(C)OC(=O)C=C5)C=6C=COC6", "physical_data": {"Molecular Weight": "454.51", "Molecular Formula": "C26H30O7", "Melting Point": "130-229 \u00b0C"}}