{"cas_no": "751-97-3", "cn_name": "\u7f57\u5229\u73af\u7d20", "en_name": ["Rolitetracycline", "2-Naphthacenecarboxamide, 4-(dimethylamino)-1,4,4a,5,5a,6,11,12a-octahydro-3,6,10,12,12a-pentahydroxy-6-methyl-1,11-dioxo-N-(1-pyrrolidinylmethyl)-, (4S,4aS,5aS,6S,12aS)-", "2-Naphthacenecarboxamide, 4-(dimethylamino)-1,4,4a,5,5a,6,11,12a-octahydro-3,6,10,12,12a-pentahydroxy-6-methyl-1,11-dioxo-N-(1-pyrrolidinylmethyl)-", "2-Naphthacenecarboxamide, 4-(dimethylamino)-1,4,4a,5,5a,6,11,12a-octahydro-3,6,10,12,12a-pentahydroxy-6-methyl-1,11-dioxo-N-(1-pyrrolidinylmethyl)-, [4S-(4\u03b1,4a\u03b1,5a\u03b1,6\u03b2,12a\u03b1)]-", "(4S,4aS,5aS,6S,12aS)-4-(Dimethylamino)-1,4,4a,5,5a,6,11,12a-octahydro-3,6,10,12,12a-pentahydroxy-6-methyl-1,11-dioxo-N-(1-pyrrolidinylmethyl)-2-naphthacenecarboxamide", "SQ 15659", "4-(Dimethylamino)-1,4,4a,5,5a,6,11,12a-octahydro-3,6,10,12,12a-pentahydroxy-6-methyl-1,11-dioxo-N-(1-pyrrolidinylmethyl)-2-naphthacenecarboxamide", "N-(Pyrrolidinomethyl)tetracycline", "N-(1-Pyrrolidinylmethyl)tetracycline", "Reverin", "Rolitetracycline", "Syntetrin", "Velacycline", "Abricycline", "Tetraverin", "Bristacin", "Superciclin", "Synotodecin", "Transcycline", "Pyrrolidinylmethyltetracycline"], "SMILES": "OC12C(C(N(C)C)C(O)=C(C(NCN3CCCC3)=O)C1=O)CC4C(=C2O)C(=O)C=5C(C4(C)O)=CC=CC5O", "physical_data": {"Molecular Weight": "527.57", "Molecular Formula": "C27H33N3O8", "Melting Point": "160-165 \u00b0C (decomp)"}}