{"cas_no": "75128-73-3", "cn_name": "\u53cc\u4e59\u9170\u963f\u6614\u6d1b\u97e6", "en_name": ["N2-Acetyl-9-(2-acetoxyethoxymethyl)guanine", "Acetamide, N-[9-[[2-(acetyloxy)ethoxy]methyl]-6,9-dihydro-6-oxo-1H-purin-2-yl]-", "N-[9-[[2-(Acetyloxy)ethoxy]methyl]-6,9-dihydro-6-oxo-1H-purin-2-yl]acetamide", "9-[(2-Acetoxyethoxy)methyl]-N2-acetylguanine", "N2-Acetyl-9-(2-acetoxyethoxymethyl)guanine", "N,O-Diacetylacyclovir"], "SMILES": "C(OCCOC(C)=O)N1C2=C(C(=O)N=C(NC(C)=O)N2)N=C1", "physical_data": {"Molecular Weight": "309.28", "Molecular Formula": "C12H15N5O5", "Melting Point": "204 \u00b0C"}}