{"cas_no": "75143-89-4", "cn_name": "3-\u4e01\u57fa\u620a\u4e8c\u9178", "en_name": ["3-Isobutylglutaric acid", "Pentanedioic acid, 3-(2-methylpropyl)-", "3-(2-Methylpropyl)pentanedioic acid", "3-Isobutylglutaric acid"], "SMILES": "C(CC(C)C)(CC(O)=O)CC(O)=O", "physical_data": {"Molecular Weight": "188.22", "Molecular Formula": "C9H16O4", "Melting Point": "47 \u00b0C"}}