{"cas_no": "75144-60-4", "cn_name": "\u516d\u4e59\u70ef\u57fa\u4e8c\u7845\u6c27\u70f7", "en_name": ["1,1,1,3,3,3-Hexaethenyldisiloxane", "Disiloxane, 1,1,1,3,3,3-hexaethenyl-", "Disiloxane, hexaethenyl-", "1,1,1,3,3,3-Hexaethenyldisiloxane", "Hexavinyldisiloxane"], "SMILES": "[Si](O[Si](C=C)(C=C)C=C)(C=C)(C=C)C=C", "physical_data": {"Molecular Weight": "234.44", "Molecular Formula": "C12H18OSi2", "Boiling Point": "115-116 \u00b0C @ Press: 20 Torr", "Density": "0.840 g/cm\u00b3"}}