{"cas_no": "7515-80-2", "cn_name": "N-\u53d4\u4e01\u57fa\u5f02\u4e19\u80fa", "en_name": ["2-Methyl-N-(1-methylethyl)-2-propanamine", "2-Propanamine, 2-methyl-N-(1-methylethyl)-", "Diethylamine, 1,1,1\u2032-trimethyl-", "2-Methyl-N-(1-methylethyl)-2-propanamine", "tert-Butylisopropylamine", "Isopropyl-tert-butylamine", "N-tert-Butylisopropylamine", "N-tert-Butyl-N-isopropylamine", "N-Isopropyl-N-tert-butylamine", "N-Isopropyl-tert-butylamine", "2-Methyl-N-propan-2-ylpropan-2-amine"], "SMILES": "N(C(C)(C)C)C(C)C", "physical_data": {"Molecular Weight": "115.22", "Molecular Formula": "C7H17N", "Boiling Point": "98 \u00b0C"}}