{"cas_no": "7516-48-5", "cn_name": "(+/-)-\u4e8c\u6c22\u786b\u8f9b\u9178", "en_name": ["Dihydrolipoic acid", "Octanoic acid, 6,8-dimercapto-", "6,8-Dimercaptooctanoic acid", "Dihydrolipoic acid", "Dihydrothioctic acid", "6,8-Dihydrothioctic acid", "\u03b1-Lipoic acid, dihydro-", "Reduced lipoic acid", "Reduced thioctic acid", "Thioctic acid, dihydro-", "6,8-Dithiooctanoic acid", "DL-Dihydro-\u03b1-lipoic acid", "dl-Dihydrolipoic acid", "(\u00b1)-Dihydrolipoic acid", "(\u00b1)-Dihydro-\u03b1-lipoic acid", "\u03b3-Lipoic acid"], "SMILES": "C(C(CCS)S)CCCC(O)=O", "physical_data": {"Molecular Weight": "208.34", "Molecular Formula": "C8H16O2S2", "Boiling Point": "161.5 \u00b0C @ Press: 0.7 Torr", "Melting Point": "62 \u00b0C", "Density": "1.132 g/cm\u00b3 @ Temp: 20 \u00b0C"}}