{"cas_no": "75172-81-5", "cn_name": "\u8131\u6c27\u534a\u4e73\u7cd6\u91ce\u751f\u9709\u7d20 \u76d0\u9178\u76d0", "en_name": ["Migalastat hydrochloride", "3,4,5-Piperidinetriol, 2-(hydroxymethyl)-, hydrochloride (1:1), (2R,3S,4R,5S)-", "3,4,5-Piperidinetriol, 2-(hydroxymethyl)-, hydrochloride, [2R-(2\u03b1,3\u03b1,4\u03b1,5\u03b2)]-", "3,4,5-Piperidinetriol, 2-(hydroxymethyl)-, hydrochloride, (2R,3S,4R,5S)-", "Migalastat hydrochloride", "1-Deoxygalactonojirimycin hydrochloride", "Galafold"], "SMILES": "C(O)C1C(O)C(O)C(O)CN1.Cl", "physical_data": {"Molecular Weight": "", "Molecular Formula": "C6H13NO4.ClH", "Melting Point": "243-245 \u00b0C (decomp)"}}