{"cas_no": "7517-76-2", "cn_name": "\u53cd-1,4-\u73af\u5df1\u57fa\u4e8c\u5f02\u6c30\u9178\u916f", "en_name": ["trans-1,4-Diisocyanatocyclohexane", "Cyclohexane, 1,4-diisocyanato-, trans-", "Isocyanic acid, 1,4-cyclohexylene ester, trans-", "trans-1,4-Diisocyanatocyclohexane", "trans-1,4-Cyclohexanediisocyanate", "trans-1,4-Cyclohexylene diisocyanate", "trans-1,4-Cyclohexylene isocyanate", "trans-1,4-Cyclohexadiylbis(isocyanate)"], "SMILES": "N(=C=O)C1CCC(N=C=O)CC1", "physical_data": {"Molecular Weight": "166.18", "Molecular Formula": "C8H10N2O2", "Boiling Point": "145-146 \u00b0C @ Press: 32 Torr"}}