{"cas_no": "75178-96-0", "cn_name": "N-\u53d4\u4e01\u6c27\u7fb0\u57fa-1,3-\u4e19\u4e8c\u80fa", "en_name": ["tert-Butyl (3-aminopropyl)carbamate", "Carbamic acid, N-(3-aminopropyl)-, 1,1-dimethylethyl ester", "Carbamic acid, (3-aminopropyl)-, 1,1-dimethylethyl ester", "N-(tert-Butoxycarbonyl)-1,3-propanediamine", "N-(tert-Butyloxycarbonyl)-1,3-propanediamine", "3-[(tert-Butoxycarbonyl)amino]-1-propylamine", "N-tert-Butoxycarbonyl-1,3-diaminopropane", "1-[(tert-Butoxycarbonyl)amino]-3-aminopropane", "tert-Butyl (3-aminopropyl)carbamate", "tert-Butyl N-(3-aminopropyl)carbamate", "3-(tert-Butoxycarbonylamino)propylamine", "N-BOC-1,3-diaminopropane", "3-[N-tert-Butoxycarbonylamino]propylamine", "1-[(tert-Butoxycarbonyl)amino]-3-propylamine", "N-(3-Aminopropyl)carbamic acid tert-butyl ester", "3-Aminopropylcarbamic acid tert-butyl ester", "3-Aminopropylcarbamic acid 1,1-dimethylethyl ester", "N-(3-Aminopropyl)carbamic acid tert-butyl ester", "N-BOC-1,3-propanediamine", "1,1-Dimethylethyl (3-aminopropyl)carbamate", "(3-Aminopropyl)-carbamic acid tert-butyl ester", "2-methylpropan-2-yl (3-aminopropyl)carbamate", "N-Boc-1,3-propylenediamine", "Boc-1,3-diaminopropane", "3-(Boc-amino)propylamine"], "SMILES": "O(C(NCCCN)=O)C(C)(C)C", "physical_data": {"Molecular Weight": "174.24", "Molecular Formula": "C8H18N2O2", "Melting Point": "106-108 \u00b0C"}}