{"cas_no": "7517-99-9", "cn_name": "5-\u7f9f\u7532\u57fa-1,3-\u5641\u5511\u70f7-2-\u916e", "en_name": ["5-(Hydroxymethyl)oxazolidin-2-one", "2-Oxazolidinone, 5-(hydroxymethyl)-", "5-(Hydroxymethyl)-2-oxazolidinone", "5-(Hydroxymethyl)oxazolidin-2-one", "5-(Hydroxymethyl)-1,3-oxazolidin-2-one"], "SMILES": "C(O)C1OC(=O)NC1", "physical_data": {"Molecular Weight": "117.10", "Molecular Formula": "C4H7NO3", "Melting Point": "36 \u00b0C"}}