{"cas_no": "7517-19-3", "cn_name": "L-\u4eae\u6c28\u9178\u7532\u916f\u76d0\u9178\u76d0", "en_name": ["Leucine methyl ester hydrochloride", "L-Leucine, methyl ester, hydrochloride (1:1)", "L-Leucine, methyl ester, hydrochloride", "Leucine, methyl ester, hydrochloride, L-", "Methyl leucinate hydrochloride", "Leucine methyl ester hydrochloride", "Methyl L-leucinate hydrochloride", "(S)-Leucine methyl ester hydrochloride", "Methyl (S)-leucinate hydrochloride", "NSC 522233", "Methyl (S)-2-amino-4-methylpentanoate hydrochloride", "(S)-2-Amino-4-methylpentanoic acid methyl ester hydrochloride", "L-Leu-OMe\u00b7HCl"], "SMILES": "C(C(OC)=O)(CC(C)C)N.Cl", "physical_data": {"Molecular Weight": "", "Molecular Formula": "C7H15NO2.ClH", "Melting Point": "118 \u00b0C"}}