{"cas_no": "75184-71-3", "cn_name": "2-[(4-\u7f9f\u57fa-6-\u82ef\u57fa\u5627\u5576-2-\u57fa)\u786b\u4ee3]-1-(4-\u785d\u57fa\u82ef)\u4e59\u57fa-1-\u916e", "en_name": ["Albendazole sulfone", "Carbamic acid, N-[6-(propylsulfonyl)-1H-benzimidazol-2-yl]-, methyl ester", "Carbamic acid, [5-(propylsulfonyl)-1H-benzimidazol-2-yl]-, methyl ester", "Albendazole sulfone", "Methyl [5-(propylsulfonyl)-1H-benzimidazol-2-yl]carbamate", "[5-(Propane-1-sulfonyl)-1H-benzoimidazol-2-yl]-carbamic acid methyl ester"], "SMILES": "S(CCC)(=O)(=O)C=1C=C2C(N=C(NC(OC)=O)N2)=CC1", "physical_data": {"Molecular Weight": "297.33", "Molecular Formula": "C12H15N3O4S", "Melting Point": "226-227 \u00b0C"}}