{"cas_no": "7518-21-0", "cn_name": "1-\u7532\u57fa\u8272\u80fa", "en_name": ["1-Methyltryptamine", "1H-Indole-3-ethanamine, 1-methyl-", "Indole, 3-(2-aminoethyl)-1-methyl-", "1-Methyl-1H-indole-3-ethanamine", "1-Methyltryptamine", "1-N-Methyltryptamine", "1-Methyl-3-(2-aminoethyl)indole", "2-(1-Methyl-1H-indol-3-yl)ethanamine", "2-(1-Methyl-1H-indol-3-yl)ethylamine", "2-(1-Methyl-1H-indol-3-yl)ethan-1-amine", "2-(1-Methylindol-3-yl)ethanamine"], "SMILES": "C(CN)C=1C=2C(N(C)C1)=CC=CC2", "physical_data": {"Molecular Weight": "174.24", "Molecular Formula": "C11H14N2", "Boiling Point": "140-170 \u00b0C"}}