{"cas_no": "7518-22-1", "cn_name": "\u6728\u7682\u82f7A", "en_name": ["Chikusetsusaponin IV", "\u03b2-D-Glucopyranosiduronic acid, (3\u03b2)-28-(\u03b2-D-glucopyranosyloxy)-28-oxoolean-12-en-3-yl 4-O-\u03b1-L-arabinofuranosyl-", "Araloside A", "Chikusetsusaponin IV", "Oleanane, \u03b2-D-glucopyranosiduronic acid deriv.", "(3\u03b2)-28-(\u03b2-D-Glucopyranosyloxy)-28-oxoolean-12-en-3-yl 4-O-\u03b1-L-arabinofuranosyl-\u03b2-D-glucopyranosiduronic acid", "Chikusetsusaponin 4", "Oleanoside E"], "SMILES": "C(OC1OC(CO)C(O)C(O)C1O)(=O)C23C(C=4C(C)(CC2)C5(C)C(CC4)C6(C)C(CC5)C(C)(C)C(OC7OC(C(O)=O)C(OC8OC(CO)C(O)C8O)C(O)C7O)CC6)CC(C)(C)CC3", "physical_data": {"Molecular Weight": "927.08", "Molecular Formula": "C47H74O18", "Melting Point": "196-200 \u00b0C (decomp)"}}