{"cas_no": "75187-63-2", "cn_name": "7,8-\u4e8c\u7f9f\u57fa-3-(4-\u7f9f\u57fa\u82ef\u57fa)\u82ef\u5e76\u5421\u5583-4-\u916e", "en_name": ["8-Hydroxydaidzein", "4H-1-Benzopyran-4-one, 7,8-dihydroxy-3-(4-hydroxyphenyl)-", "7,8-Dihydroxy-3-(4-hydroxyphenyl)-4H-1-benzopyran-4-one", "4\u2032,7,8-Trihydroxyisoflavone", "7,8,4\u2032-Trihydroxyisoflavone", "NSC 678112", "8-Hydroxydaidzein"], "SMILES": "O=C1C=2C(=C(O)C(O)=CC2)OC=C1C3=CC=C(O)C=C3", "physical_data": {"Molecular Weight": "270.24", "Molecular Formula": "C15H10O5", "Melting Point": "&gt;180 \u00b0C"}}