{"cas_no": "7519-36-0", "cn_name": "N -\u4e9a\u785d\u57fa- L -\u812f\u6c28\u9178", "en_name": ["N-Nitroso-L-proline", "L-Proline, 1-nitroso-", "Proline, 1-nitroso-, L-", "1-Nitroso-L-proline", "N-Nitrosoproline", "N-Nitroso-L-proline", "NSC 109545"], "SMILES": "N(=O)N1C(C(O)=O)CCC1", "physical_data": {"Molecular Weight": "144.13", "Molecular Formula": "C5H8N2O3", "Melting Point": "100-102 \u00b0C"}}