{"cas_no": "752-56-7", "cn_name": "\u56db\u4e01\u9178\u6838\u7cd6\u9ec4\u7d20\u916f", "en_name": ["Hibon", "Riboflavin, 2\u2032,3\u2032,4\u2032,5\u2032-tetrabutanoate", "Riboflavine, 2\u2032,3\u2032,4\u2032,5\u2032-tetrabutyrate", "Benzo[g]pteridine, riboflavin deriv.", "Riboflavine tetrabutyrate", "Riboflavin tetrabutyrate", "Vitamin B2 tetrabutyrate", "Vitamin B2 2\u2032,3\u2032,4\u2032,5\u2032-tetrabutyrate", "Riboflavin-2\u2032,3\u2032,4\u2032,5\u2032-tetrabutyrate", "Hibon", "Tetra-O-butyrylriboflavin", "Ribolact", "Lacflavin", "Wakaflavin L", "Eyekas", "Bituvitan", "Viras", "Riboflavin tetrabutylate"], "SMILES": "C(C(C(C(COC(CCC)=O)OC(CCC)=O)OC(CCC)=O)OC(CCC)=O)N1C=2C(N=C3C1=NC(=O)NC3=O)=CC(C)=C(C)C2", "physical_data": {"Molecular Weight": "656.72", "Molecular Formula": "C33H44N4O10", "Melting Point": "145-147 \u00b0C", "Density": "1.250 g/cm\u00b3"}}