{"cas_no": "7521-80-4", "cn_name": "\u6b63\u4e01\u57fa\u4e09\u6c2f\u7845\u70f7", "en_name": ["Butyltrichlorosilane", "Silane, butyltrichloro-", "Butyltrichlorosilane", "Trichlorobutylsilane", "NSC 93881"], "SMILES": "C([Si](Cl)(Cl)Cl)CCC", "physical_data": {"Molecular Weight": "191.56", "Molecular Formula": "C4H9Cl3Si", "Boiling Point": "148.5 \u00b0C", "Melting Point": "147-149 \u00b0C", "Density": "1.1606 g/cm\u00b3 @ Temp: 20 \u00b0C"}}