{"cas_no": "7522-62-5", "cn_name": "3,6-\u4e8c(\u7f9f\u57fa\u7532\u57fa)\u675c\u70ef", "en_name": ["2,3,5,6-Tetramethyl-1,4-benzenedimethanol", "1,4-Benzenedimethanol, 2,3,5,6-tetramethyl-", "p-Xylene-\u03b1,\u03b1\u2032-diol, 2,3,5,6-tetramethyl-", "2,3,5,6-Tetramethyl-1,4-benzenedimethanol", "2,3,5,6-Tetramethylbenzene-1,4-dimethanol", "2,3,5,6-Tetramethyl-p-xylene-\u03b1,\u03b1\u2032-diol", "1,4-Bis(hydroxymethyl)-2,3,5,6-tetramethylbenzene", "NSC 158279", "[4-(Hydroxymethyl)-2,3,5,6-tetramethylphenyl]methanol", "3,6-Bis(hydroxymethyl)durene"], "SMILES": "C(O)C1=C(C)C(C)=C(CO)C(C)=C1C", "physical_data": {"Molecular Weight": "194.27", "Molecular Formula": "C12H18O2", "Melting Point": "245-247 \u00b0C"}}