{"cas_no": "7524-50-7", "cn_name": "L-\u82ef\u4e19\u6c28\u9178\u7532\u916f\u76d0\u9178\u76d0", "en_name": ["L-Phenylalanine, methyl ester, hydrochloride", "L-Phenylalanine, methyl ester, hydrochloride (1:1)", "Alanine, phenyl-, methyl ester, hydrochloride, L-", "L-Phenylalanine, methyl ester, hydrochloride", "Methyl L-phenylalaninate hydrochloride", "Phenylalanine hydrochloride methyl ester", "Phenylalanine methyl ester hydrochloride", "(S)-Phenylalanine methyl ester hydrochloride", "Methyl (S)-phenylalaninate hydrochloride", "Methyl (2S)-2-amino-3-phenylpropanoate hydrochloride", "NSC 194642", "(S)-2-Amino-3-phenylpropionic acid methyl ester hydrochloride", "(2S)-2-Amino-3-phenylpropionic acid methyl ester hydrochloride", "Methyl (S)-2-amino-3-phenylpropanoate hydrochloride", "L-Phenylanine methyl ester hydrochloride"], "SMILES": "C(C(C(OC)=O)N)C1=CC=CC=C1.Cl", "physical_data": {"Molecular Weight": "", "Molecular Formula": "C10H13NO2.ClH", "Melting Point": "160 \u00b0C"}}