{"cas_no": "7524-52-9", "cn_name": "L-\u8272\u6c28\u9178\u7532\u916f\u76d0\u9178\u76d0", "en_name": ["L-Tryptophan, methyl ester, hydrochloride (1:1)", "L-Tryptophan, methyl ester, hydrochloride (1:1)", "Tryptophan, methyl ester, monohydrochloride, L-", "L-Tryptophan, methyl ester, monohydrochloride", "Tryptophan methyl ester hydrochloride", "L-Tryptophan methyl ester hydrochloride", "Methyl L-tryptophanate hydrochloride", "Tryptophan methyl ester monohydrochloride", "L-(-)-Tryptophan methyl ester hydrochloride", "(S)-Tryptophan methyl ester monohydrochloride", "(S)-Tryptophan methyl ester hydrochloride", "H-(L)-Trp-OMe hydrochloride", "Methyl-L-tryptophan hydrochloride", "(S)-Methyl 2-amino-3-(1H-indol-3-yl)propanoate hydrochloride"], "SMILES": "C(C(C(OC)=O)N)C=1C=2C(NC1)=CC=CC2.Cl", "physical_data": {"Molecular Weight": "", "Molecular Formula": "C12H14N2O2.ClH", "Melting Point": "220-223 \u00b0C"}}