{"cas_no": "7525-64-6", "cn_name": "4-\u7532\u57fa\u56db\u6c22-2H-\u5421\u5583-4-\u9187", "en_name": ["Tetrahydro-4-methyl-2H-pyran-4-ol", "2H-Pyran-4-ol, tetrahydro-4-methyl-", "Pyran-4-ol, tetrahydro-4-methyl-", "Tetrahydro-4-methyl-2H-pyran-4-ol", "Tetrahydro-4-hydroxy-4-methyl-2H-pyran", "4-Methyl-4-hydroxytetrahydropyran", "Tetrahydro-4-methyl-4-pyranol", "4-Hydroxy-4-methyltetrahydropyran", "4-Methyltetrahydropyran-4-ol", "4-Methyltetrahydro-4H-pyran-4-ol", "4-Methyltetrahydro-2H-pyran-4-ol"], "SMILES": "CC1(O)CCOCC1", "physical_data": {"Molecular Weight": "116.16", "Molecular Formula": "C6H12O2", "Boiling Point": "66-70 \u00b0C @ Press: 1.5 Torr", "Density": "1.0215 g/cm\u00b3 @ Temp: 20 \u00b0C"}}