{"cas_no": "7526-26-3", "cn_name": "\u78f7\u9178\u7532\u57fa\u4e8c\u82ef\u57fa\u916f", "en_name": ["Diphenyl methylphosphonate", "Phosphonic acid, P-methyl-, diphenyl ester", "Phosphonic acid, methyl-, diphenyl ester", "Diphenyl methylphosphonate", "Diphenyl methanephosphonate", "[Methyl(phenoxy)phosphoryl]oxybenzene"], "SMILES": "O(P(OC1=CC=CC=C1)(C)=O)C2=CC=CC=C2", "physical_data": {"Molecular Weight": "248.21", "Molecular Formula": "C13H13O3P", "Boiling Point": "151 \u00b0C @ Press: 0.8 Torr", "Melting Point": "35 \u00b0C", "Density": "1.2058 g/cm\u00b3 @ Temp: 20 \u00b0C"}}