{"cas_no": "75272-39-8", "cn_name": "\u987a-5-\u6c2f-2-\u7532\u6c27\u57fa-4-(\u7532\u57fa\u6c28\u57fa)-N-[2-\u7532\u57fa-2-(\u82ef\u57fa\u7532\u57fa)-3-\u5421\u54af\u70f7\u57fa]\u82ef\u7532\u9170\u80fa", "en_name": ["Nemonapride", "Benzamide, 5-chloro-2-methoxy-4-(methylamino)-N-[(2R,3R)-2-methyl-1-(phenylmethyl)-3-pyrrolidinyl]-, rel-", "Benzamide, 5-chloro-2-methoxy-4-(methylamino)-N-[2-methyl-1-(phenylmethyl)-3-pyrrolidinyl]-, cis-", "rel-5-Chloro-2-methoxy-4-(methylamino)-N-[(2R,3R)-2-methyl-1-(phenylmethyl)-3-pyrrolidinyl]benzamide", "YM 09151-2", "YM 09151", "Emonapride", "Nemonapride", "Emilace"], "SMILES": "C(NC1C(C)N(CC2=CC=CC=C2)CC1)(=O)C3=C(OC)C=C(NC)C(Cl)=C3", "physical_data": {"Molecular Weight": "387.90", "Molecular Formula": "C21H26ClN3O2", "Melting Point": "152-153 \u00b0C"}}