{"cas_no": "7528-78-1", "cn_name": "\u4e09(2-\u6c30\u4e59\u57fa)\u80fa", "en_name": ["3,3\u2032,3\u2032\u2032-Nitrilotris[propanenitrile]", "Propanenitrile, 3,3\u2032,3\u2032\u2032-nitrilotris-", "Propionitrile, 3,3\u2032,3\u2032\u2032-nitrilotri-", "3,3\u2032,3\u2032\u2032-Nitrilotris[propanenitrile]", "3,3\u2032,3\u2032\u2032-Nitrilotripropionitrile", "Tris(2-cyanoethyl)amine", "Tris(\u03b2-cyanoethyl)amine", "NSC 61541", "3,3\u2032,3\u2032\u2032-Nitrilotripropanenitrile"], "SMILES": "N(CCC#N)(CCC#N)CCC#N", "physical_data": {"Molecular Weight": "176.22", "Molecular Formula": "C9H12N4", "Melting Point": "57-58 \u00b0C"}}