{"cas_no": "7529-22-8", "cn_name": "N-\u7532\u57fa\u5417\u5549\u6c27\u5316\u7269", "en_name": ["N-methylmorpholine N-oxide", "Morpholine, 4-methyl-, 4-oxide", "N-Methylmorpholine oxide", "N-Methylmorpholine N-oxide", "4-Methylmorpholine N-oxide", "4-Methylmorpholine oxide", "4-Methylmorpholine 4-oxide", "NMO", "NMMO", "N-methylmorpholine N-oxide", "NSC 73198", "NSC 82153"], "SMILES": "CN1(=O)CCOCC1", "physical_data": {"Molecular Weight": "117.15", "Molecular Formula": "C5H11NO2", "Melting Point": "74-76 \u00b0C"}}