{"cas_no": "7529-16-0", "cn_name": "5-\u4e59\u70ef\u57fa-2-\u5421\u54af\u70f7\u916e", "en_name": ["5-Ethenyl-2-pyrrolidinone", "2-Pyrrolidinone, 5-ethenyl-", "2-Pyrrolidinone, 5-vinyl-", "5-Ethenyl-2-pyrrolidinone", "5-Vinyl-2-pyrrolidinone", "MDL 17637-03", "(\u00b1)-5-Vinylpyrrolidin-2-one"], "SMILES": "C(=C)C1NC(=O)CC1", "physical_data": {"Molecular Weight": "111.14", "Molecular Formula": "C6H9NO", "Boiling Point": "85-90 \u00b0C @ Press: 0.1 Torr"}}