{"cas_no": "753-90-2", "cn_name": "2\uff0c2\uff0c2-\u4e09\u6c1f\u4e59\u57fa\u80fa", "en_name": ["2,2,2-Trifluoroethylamine", "Ethanamine, 2,2,2-trifluoro-", "Ethylamine, 2,2,2-trifluoro-", "2,2,2-Trifluoroethanamine", "Trifluoroethylamine", "2,2,2-Trifluoroethylamine", "TFEA", "\u03b2,\u03b2,\u03b2-Trifluoroethylamine", "1-Amino-2,2,2-trifluoroethane", "2,2,2-Trifluoro-1-ethanamine", "2,2,2-Trifluoro-1-aminoethane", "2,2,2-Trifluoroethaneamine"], "SMILES": "C(CN)(F)(F)F", "physical_data": {"Molecular Weight": "99.06", "Molecular Formula": "C2H4F3N", "Boiling Point": "37.5 \u00b0C", "Density": "1.2452 g/cm\u00b3 @ Temp: 25 \u00b0C"}}