{"cas_no": "753-73-1", "cn_name": "\u4e8c\u7532\u57fa\u4e8c\u6c2f\u5316\u9521", "en_name": ["Dimethyltin dichloride", "Stannane, dichlorodimethyl-", "Tin, dimethyl-, dichloride", "Dichlorodimethylstannane", "Dimethyltin dichloride", "Dichlorodimethyltin", "Dimethyldichlorostannane", "Dimethyldichlorotin", "Dimethylstannyl dichloride", "Cotin 210", "NSC 55159", "Dimethyltin(IV) dichloride", "Nesstin P"], "SMILES": "[Sn](C)(C)(Cl)Cl", "physical_data": {"Molecular Weight": "219.68", "Molecular Formula": "C2H6Cl2Sn", "Boiling Point": "189 \u00b0C", "Melting Point": "106.5 \u00b0C", "Density": "1.397 g/cm\u00b3"}}