{"cas_no": "753-89-9", "cn_name": "\u6c2f\u5316\u65b0\u620a\u70f7", "en_name": ["1-Chloro-2,2-dimethylpropane", "Propane, 1-chloro-2,2-dimethyl-", "1-Chloro-2,2-dimethylpropane", "Neopentyl chloride", "2,2-Dimethylpropyl chloride", "(Chloromethyl)trimethylmethane"], "SMILES": "C(CCl)(C)(C)C", "physical_data": {"Molecular Weight": "106.59", "Molecular Formula": "C5H11Cl", "Boiling Point": "84.3 \u00b0C", "Melting Point": "-20 \u00b0C", "Density": "0.8659 g/cm\u00b3 @ Temp: 20 \u00b0C"}}