{"cas_no": "75319-48-1", "cn_name": "\u785d\u9178\u54aa\u5eb7\u5511", "en_name": ["Miconazole nitrate", "1H-Imidazole, 1-[2-(2,4-dichlorophenyl)-2-[(2,4-dichlorophenyl)methoxy]ethyl]-, nitrate (1:1)", "Imidazole, 1-[2,4-dichloro-\u03b2-[(2,4-dichlorobenzyl)oxy]phenethyl]-, mononitrate", "1H-Imidazole, 1-[2-(2,4-dichlorophenyl)-2-[(2,4-dichlorophenyl)methoxy]ethyl]-, mononitrate", "[2,4-Dichloro-\u03b2-(2,4-dichlorobenzyloxy)phenethyl]imidazole nitrate", "Miconazole nitrate", "R 14889", "Daktarin talc", "Daktarin", "Monistat", "(\u00b1)-Miconazole nitrate", "Monistat-Derm", "Micatin", "Epi-Monistat", "Vodol", "Zeasorb AF", "Lotrimin AF Powder Aerosol", "Gyno-Daktarin", "Andergin", "Albistat", "Gyno-Monistat", "Ecobi", "Prilagin", "Lotrimin AF Powder", "Daktar", "Brentan", "Conoderm", "Conofite", "Aflorix", "Miconal", "Lotrimin AF Spray Liquid", "Micotef", "Fungiderm", "Deralbine", "Loptrimin AF Jock-Itch Powder Aerosol", "Antifungal Cream", "Fungisdin", "Dermonistat", "Florid", "Monistat Cream and Suppositories", "Hi-Pick", "NSC 169434", "Zimycan", "Priconazole", "Miconaz", "Dactrine"], "SMILES": "N(=O)(=O)O.C(CN1C=CN=C1)(OCC2=C(Cl)C=C(Cl)C=C2)C3=C(Cl)C=C(Cl)C=C3", "physical_data": {"Molecular Weight": "", "Molecular Formula": "C18H14Cl4N2O.HNO3", "Melting Point": "170.5 \u00b0C"}}