{"cas_no": "7531-52-4", "cn_name": "L-\u812f\u6c28\u9170\u80fa", "en_name": ["L-Prolinamide", "2-Pyrrolidinecarboxamide, (2S)-", "Prolinamide, L-", "2-Pyrrolidinecarboxamide, (S)-", "(2S)-2-Pyrrolidinecarboxamide", "L-Proline amide", "L-Prolinamide", "(-)-Prolinamide", "(S)-Prolinamide", "(S)-Pyrrolidine-2-carboxamide", "(S)-Proline amide", "(S)-2-(Aminocarbonyl)pyrrolidine", "(2S)-Pyrrolidine-2-carboxylic acid amide", "(2S)-2-Carbamoylpyrrolidine", "(S)-Pyrrolidine-2-carboxylic acid amide", "(2S)-Pyrrolidine-2-carboxamide"], "SMILES": "C(N)(=O)C1CCCN1", "physical_data": {"Molecular Weight": "114.15", "Molecular Formula": "C5H10N2O", "Melting Point": "93 \u00b0C"}}