{"cas_no": "7532-85-6", "cn_name": "\u4e8c\u4e59\u70ef\u57fa\u4e8c\u6c2f\u5316\u9521", "en_name": ["Dichlorodiethenylstannane", "Stannane, dichlorodiethenyl-", "Stannane, dichlorodivinyl-", "Tin, dichlorodivinyl-", "Divinyltin dichloride", "Dichlorodiethenylstannane", "Dichlorodivinylstannane", "Dichlorodivinyltin"], "SMILES": "[Sn](C=C)(C=C)(Cl)Cl", "physical_data": {"Molecular Weight": "243.71", "Molecular Formula": "C4H6Cl2Sn", "Boiling Point": "54-56 \u00b0C @ Press: 3 Torr", "Melting Point": "74.5-75.5 \u00b0C", "Density": "1.7645 g/cm\u00b3 @ Temp: 20 \u00b0C"}}