{"cas_no": "75330-75-5", "cn_name": "\u6d1b\u4f10\u4ed6\u6c40", "en_name": ["Lovastatin", "Butanoic acid, 2-methyl-, (1S,3R,7S,8S,8aR)-1,2,3,7,8,8a-hexahydro-3,7-dimethyl-8-[2-[(2R,4R)-tetrahydro-4-hydroxy-6-oxo-2H-pyran-2-yl]ethyl]-1-naphthalenyl ester, (2S)-", "Butanoic acid, 2-methyl-, 1,2,3,7,8,8a-hexahydro-3,7-dimethyl-8-[2-(tetrahydro-4-hydroxy-6-oxo-2H-pyran-2-yl)ethyl]-1-naphthalenyl ester, [1S-[1\u03b1(R*),3\u03b1,7\u03b2,8\u03b2(2S*,4S*),8a\u03b2]]-", "Mevinolin", "MSD 803", "Monacolin K", "Antibiotic MB 530B", "MK 803", "Monacolin K lactone", "Lovastatin", "Mevacor", "L 154803", "(+)-Mevinolin", "6\u03b1-Methylcompactin", "Sivlor", "Mevlor", "Lovalip", "Mevinacor", "Altocor", "Lovastatin lactone", "Lostatin", "Lestric", "Lovacard", "Lovex", "Altoprev", "NSC 633781", "MeSH ID: D008148"], "SMILES": "O(C(C(CC)C)=O)C1C2C(C=CC(C)C2CCC3CC(O)CC(=O)O3)=CC(C)C1", "physical_data": {"Molecular Weight": "404.54", "Molecular Formula": "C24H36O5", "Melting Point": "174 \u00b0C"}}