{"cas_no": "7533-40-6", "cn_name": "L-\u4eae\u6c28\u9187", "en_name": ["L-Leucinol", "1-Pentanol, 2-amino-4-methyl-, (2S)-", "1-Pentanol, 2-amino-4-methyl-, (S)-", "1-Pentanol, 2-amino-4-methyl-, L-", "(2S)-2-Amino-4-methyl-1-pentanol", "L-Leucinol", "(2S)-1-Hydroxy-4-methylpentan-2-amine", "L-(+)-Leucinol", "(S)-2-Amino-4-methylpentanol", "(S)-2-Amino-4-methyl-1-pentanol", "(S)-Leucinol", "(+)-Leucinol", "(S)-(+)-2-Amino-4-methyl-1-pentanol", "(1S)-1-(Hydroxymethyl)-3-methylbutylamine", "(S)-(+)-Leucinol", "((S)-1-(Hydroxymethyl)-3-methylbutyl)amine", "(2S)-2-Amino-4-methylpentan-1-ol", "(2S)-1-Hydroxy-4-methylpentan-2-amine"], "SMILES": "C(CC(C)C)(CO)N", "physical_data": {"Molecular Weight": "117.19", "Molecular Formula": "C6H15NO", "Boiling Point": "100-105 \u00b0C @ Press: 10 Torr", "Melting Point": "56-58 \u00b0C"}}