{"cas_no": "75338-42-0", "cn_name": "1-\u4e59\u57fa-6,7,8-\u4e09\u6c1f-1,4-\u4e8c\u6c22-4-\u6c27\u4ee3\u55b9\u5549-3-\u7fa7\u9178", "en_name": ["1-Ethyl-6,7,8-trifluoro-1,4-dihydro-4-oxo-3-quinolinecarboxylic acid", "3-Quinolinecarboxylic acid, 1-ethyl-6,7,8-trifluoro-1,4-dihydro-4-oxo-", "1-Ethyl-6,7,8-trifluoro-1,4-dihydro-4-oxo-3-quinolinecarboxylic acid", "1-Ethyl-1,4-dihydro-4-oxo-6,7,8-trifluoro-3-quinolinecarboxylic acid", "1-Ethyl-6,7,8-trifluoro-4-oxo-1,4-dihydroquinoline-3-carboxylic acid"], "SMILES": "C(C)N1C=2C(C(=O)C(C(O)=O)=C1)=CC(F)=C(F)C2F", "physical_data": {"Molecular Weight": "271.19", "Molecular Formula": "C12H8F3NO3", "Melting Point": "211-213 \u00b0C"}}