{"cas_no": "7534-94-3", "cn_name": "\u7532\u57fa\u4e19\u70ef\u9178\u5f02\u51b0\u7247\u916f", "en_name": ["Isobornyl methacrylate", "2-Propenoic acid, 2-methyl-, (1R,2R,4R)-1,7,7-trimethylbicyclo[2.2.1]hept-2-yl ester, rel-", "Methacrylic acid, isobornyl ester", "2-Propenoic acid, 2-methyl-, 1,7,7-trimethylbicyclo[2.2.1]hept-2-yl ester, exo-", "Isoborneol methacrylate", "Isobornyl methacrylate", "SR 423", "Light Ester IB-X", "Acryester IBX", "SR 423A", "IBXMA", "NK Ester IB", "Ageflex IBOMA", "Sipomer IBOMA", "Eternal EM 90", "EM 90", "Light Ester IB-XM", "IBOMA", "Photomer 2012", "Visiomer Terra IBOMA", "Visiomer IBOMA", "Sarbio 6105", "SR 423D", "U 90 (methacrylate)", "U 90", "IB-X", "Genomer 1121M"], "SMILES": "CC12C(OC(C(C)=C)=O)CC(C1(C)C)CC2", "physical_data": {"Molecular Weight": "222.32", "Molecular Formula": "C14H22O2", "Boiling Point": "112-117 \u00b0C @ Press: 2.5 Torr", "Density": "0.980 g/cm\u00b3 @ Temp: 25 \u00b0C"}}