{"cas_no": "7536-58-5", "cn_name": "Boc-L-\u5929\u51ac\u6c28\u9178 4-\u82c4\u916f", "en_name": ["N-tert-Butoxycarbonyl-L-aspartic acid \u03b2-benzyl ester", "L-Aspartic acid, N-[(1,1-dimethylethoxy)carbonyl]-, 4-(phenylmethyl) ester", "Aspartic acid, N-carboxy-, 4-benzyl N-tert-butyl ester, L-", "N-(tert-Butyloxycarbonyl)-\u03b2-benzyl-L-aspartic acid", "N-(tert-Butyloxycarbonyl)-L-aspartic acid \u03b2-benzyl ester", "N-tert-Butoxycarbonyl-L-aspartic acid 4-benzyl ester", "N-tert-Butoxycarbonyl-L-aspartic acid \u03b2-benzyl ester", "N-(tert-Butoxycarbonyl)aspartic acid \u03b2-benzyl ester", "\u03b2-Benzyl N-tert-butoxycarbonylaspartate", "(S)-2-tert-Butoxycarbonylaminosuccinic acid 4-benzyl ester", "N-[(1,1-Dimethylethoxy)carbonyl]-L-aspartic acid 4-(phenylmethyl) ester", "(2S)-4-(Benzyloxy)-2-[(tert-butoxycarbonyl)amino]-4-oxobutanoic acid", "N-tert.-Butoxycarbonyl-L-aspartic acid 4-phenylmethyl ester", "(S)-4-(Benzyloxy)-2-[(tert-butoxycarbonyl)amino]-4-oxobutanoic acid", "Boc-L-Asp(OBn)-OH", "(2S)-2-[(2-Methylpropan-2-yl)oxycarbonylamino]-4-oxo-4-phenylmethoxybutanoic acid"], "SMILES": "C(OC(CC(NC(OC(C)(C)C)=O)C(O)=O)=O)C1=CC=CC=C1", "physical_data": {"Molecular Weight": "323.34", "Molecular Formula": "C16H21NO6", "Melting Point": "98-101 \u00b0C"}}