{"cas_no": "7536-55-2", "cn_name": "BOC-L-\u5929\u51ac\u9170\u80fa", "en_name": ["tert-Butoxycarbonyl-L-asparagine", "L-Asparagine, N2-[(1,1-dimethylethoxy)carbonyl]-", "Asparagine, N2-carboxy-, N2-tert-butyl ester, L-", "N2-[(1,1-Dimethylethoxy)carbonyl]-L-asparagine", "tert-Butoxycarbonyl-L-asparagine", "tert-Butyloxycarbonyl-L-asparagine", "N\u03b1-tert-Butoxycarbonyl-L-asparagine", "N2-tert-Butoxycarbonyl-L-asparagine", "N-(tert-Butoxycarbonyl)-L-asparagine", "BOC-Asparagine", "BOC-L-asparagine", "N\u03b1-(tert-Butoxycarbonyl)asparagine", "(2S)-2-((tert-Butoxycarbonyl)amino)-3-carbamoylpropanoic acid", "N-Boc-L-asparagine", "NSC 154980", "(S)-4-Amino-2-[(tert-butoxycarbonyl)amino]-4-oxobutanoic acid", "Boc-L-Asn-OH", "(2S)-2-[[(tert-Butoxy)carbonyl]amino]-3-carbamoylpropanoic acid", "(2S)-4-Amino-2-[(2-methylpropan-2-yl)oxycarbonylamino]-4-oxobutanoic acid"], "SMILES": "C(NC(OC(C)(C)C)=O)(CC(N)=O)C(O)=O", "physical_data": {"Molecular Weight": "232.23", "Molecular Formula": "C9H16N2O5", "Melting Point": "182 \u00b0C"}}