{"cas_no": "7539-12-0", "cn_name": "\u70ef\u4e19\u57fa\u4e01\u4e8c\u9178\u9150", "en_name": ["Dihydro-3-(2-propen-1-yl)-2,5-furandione", "2,5-Furandione, dihydro-3-(2-propen-1-yl)-", "Succinic anhydride, allyl-", "2,5-Furandione, dihydro-3-(2-propenyl)-", "Dihydro-3-(2-propen-1-yl)-2,5-furandione", "Allylsuccinic anhydride", "Allylsuccinic acid anhydride", "Ally succinic acid anhydride", "3-Prop-2-enyloxolane-2,5-dione"], "SMILES": "C(C=C)C1C(=O)OC(=O)C1", "physical_data": {"Molecular Weight": "140.14", "Molecular Formula": "C7H8O3", "Boiling Point": "135-142 \u00b0C @ Press: 16 Torr"}}