{"cas_no": "754-91-6", "cn_name": "\u5168\u6c1f\u8f9b\u57fa\u78fa\u9170\u80fa", "en_name": ["Perfluorooctanesulfonamide", "1-Octanesulfonamide, 1,1,2,2,3,3,4,4,5,5,6,6,7,7,8,8,8-heptadecafluoro-", "1,1,2,2,3,3,4,4,5,5,6,6,7,7,8,8,8-Heptadecafluoro-1-octanesulfonamide", "Perfluorooctanesulfonic acid amide", "Perfluorooctanesulfonamide", "Perfluoroctylsulfonamide", "AI 3-29759", "Desethylsulfluramid", "Perfluorooctylsulfonamide", "PFOSA", "1,1,2,2,3,3,4,4,5,5,6,6,7,7,8,8,8-Heptadecafluorooctan-1-sulfonamide"], "SMILES": "C(C(C(C(C(F)(F)F)(F)F)(F)F)(F)F)(C(C(C(S(N)(=O)=O)(F)F)(F)F)(F)F)(F)F", "physical_data": {"Molecular Weight": "499.14", "Molecular Formula": "C8H2F17NO2S", "Melting Point": "151-152 \u00b0C"}}