{"cas_no": "754-96-1", "cn_name": "\u5341\u516d\u6c1f-1\uff0c10-\u7678\u4e8c\u9187", "en_name": ["2,2,3,3,4,4,5,5,6,6,7,7,8,8,9,9-Hexadecafluoro-1,10-decanediol", "1,10-Decanediol, 2,2,3,3,4,4,5,5,6,6,7,7,8,8,9,9-hexadecafluoro-", "2,2,3,3,4,4,5,5,6,6,7,7,8,8,9,9-Hexadecafluoro-1,10-decanediol", "1,8-Dimethylol perfluorooctane", "1H,1H,10H,10H-Perfluoro-1,10-decanediol"], "SMILES": "C(C(C(C(C(CO)(F)F)(F)F)(F)F)(F)F)(C(C(C(CO)(F)F)(F)F)(F)F)(F)F", "physical_data": {"Molecular Weight": "462.13", "Molecular Formula": "C10H6F16O2", "Boiling Point": "132 \u00b0C @ Press: 4 Torr", "Melting Point": "135-136 \u00b0C"}}