{"cas_no": "754-34-7", "cn_name": "\u5168\u6c1f\u7898\u4ee3\u4e19\u70f7", "en_name": ["Perfluoropropyl iodide", "Propane, 1,1,1,2,2,3,3-heptafluoro-3-iodo-", "Propane, heptafluoro-1-iodo-", "1,1,1,2,2,3,3-Heptafluoro-3-iodopropane", "Heptafluoro-1-iodopropane", "1-Iodoperfluoropropane", "Perfluoropropyl iodide", "1-Iodoheptafluoropropane", "Heptafluoropropyl iodide", "n-Heptafluoropropyl iodide", "R 217I1", "1,1,2,2,3,3,3-Heptafluoro-1-iodopropane", "NSC 66409", "1,1,2,2,3,3,3-Heptafluoropropyl iodide"], "SMILES": "C(C(F)(F)F)(C(F)(F)I)(F)F", "physical_data": {"Molecular Weight": "295.93", "Molecular Formula": "C3F7I", "Boiling Point": "41.2 \u00b0C", "Melting Point": "-95 \u00b0C", "Density": "2.0626 g/cm\u00b3 @ Temp: 20 \u00b0C"}}