{"cas_no": "754-05-2", "cn_name": "\u4e59\u70ef\u57fa\u4e09\u7532\u57fa\u7845\u70f7", "en_name": ["Vinyltrimethylsilane", "Silane, ethenyltrimethyl-", "Silane, trimethylvinyl-", "Ethenyltrimethylsilane", "Vinyltrimethylsilane", "Trimethylvinylsilane", "(Trimethylsilyl)ethylene", "(Trimethylsilyl)ethene", "NSC 93553", "W 139"], "SMILES": "[Si](C=C)(C)(C)C", "physical_data": {"Molecular Weight": "100.23", "Molecular Formula": "C5H12Si", "Boiling Point": "55 \u00b0C", "Melting Point": "-132 \u00b0C", "Density": "0.690 g/cm\u00b3"}}