{"cas_no": "754-12-1", "cn_name": "2,3,3,3-\u56db\u6c1f-1-\u4e19\u70ef", "en_name": ["2,3,3,3-Tetrafluoropropene", "1-Propene, 2,3,3,3-tetrafluoro-", "Propene, 2,3,3,3-tetrafluoro-", "2,3,3,3-Tetrafluoro-1-propene", "2,3,3,3-Tetrafluoropropene", "1,1,1,2-Tetrafluoro-2-propene", "HFO 1234yf", "HFC 1234yf", "HFC 1134yf", "R 1234yf", "1234yf", "1,1,1,2-Tetrafluoropropene", "2,3,3,3-Tetrafluoropropylene", "Solstice 1234yf", "HFC 1234fy", "1,1,1,2-Tetrafluoro-2-propylene"], "SMILES": "C(C(=C)F)(F)(F)F", "physical_data": {"Molecular Weight": "114.04", "Molecular Formula": "C3H2F4", "Boiling Point": "-28.3 \u00b0C"}}