{"cas_no": "754-10-9", "cn_name": "\u4e09\u7532\u57fa\u4e59\u9170\u80fa", "en_name": ["2,2-Dimethylpropanamide", "Propanamide, 2,2-dimethyl-", "Pivalamide", "2,2-Dimethylpropanamide", "Trimethylacetamide", "2,2-Dimethylpropionamide", "\u03b1,\u03b1-Dimethylpropionamide", "Pivalic acid amide", "NSC 17584", "Neopentanamide"], "SMILES": "C(C(N)=O)(C)(C)C", "physical_data": {"Molecular Weight": "101.15", "Molecular Formula": "C5H11NO", "Melting Point": "154 \u00b0C", "Density": "1.1 g/cm\u00b3"}}