{"cas_no": "7540-51-4", "cn_name": "B-\u9999\u8305\u9187", "en_name": ["L-Citronellol", "6-Octen-1-ol, 3,7-dimethyl-, (3S)-", "6-Octen-1-ol, 3,7-dimethyl-, (-)-", "6-Octen-1-ol, 3,7-dimethyl-, (S)-", "(3S)-3,7-Dimethyl-6-octen-1-ol", "l-Citronellol", "(-)-Citronellol", "(S)-(-)-Citronellol", "(S)-Citronellol", "(S)-\u03b2-Citronellol", "(S)-(-)-\u03b2-Citronellol", "(-)-(S)-Citronellol", "(-)-\u03b2-Citronellol", "L-Citronellol", "(S)-3,7-Dimethyl-6-octen-1-ol", "(3S)-3,7-Dimethyloct-6-en-1-ol"], "SMILES": "C(CCC=C(C)C)(CCO)C", "physical_data": {"Molecular Weight": "156.27", "Molecular Formula": "C10H20O", "Boiling Point": "120 \u00b0C @ Press: 16 Torr"}}