{"cas_no": "7541-49-3", "cn_name": "3,7,11,15-\u56db\u7532\u57fa\u5df2\u70ef-1-\u9187", "en_name": ["3,7,11,15-Tetramethyl-2-hexadecen-1-ol", "2-Hexadecen-1-ol, 3,7,11,15-tetramethyl-", "3,7,11,15-Tetramethyl-2-hexadecen-1-ol", "3,7,11,15-Tetramethyl-2-hexadecene-1-ol"], "SMILES": "C(CCCC(CCCC(C)C)C)(CCCC(=CCO)C)C", "physical_data": {"Molecular Weight": "296.53", "Molecular Formula": "C20H40O", "Boiling Point": "202-204 \u00b0C @ Press: 10 Torr", "Density": "0.856 g/cm\u00b3 @ Temp: 20 \u00b0C"}}