{"cas_no": "75415-78-0", "cn_name": "1,2-\u4e8c\u6eb4\u73af\u620a\u70ef", "en_name": ["1,2-Dibromocyclopentene", "Cyclopentene, 1,2-dibromo-", "1,2-Dibromocyclopentene", "1,2-Dibromo-1-cyclopentene"], "SMILES": "BrC1=C(Br)CCC1", "physical_data": {"Molecular Weight": "225.91", "Molecular Formula": "C5H6Br2", "Boiling Point": "78-79 \u00b0C @ Press: 5 Torr", "Density": "1.8867 g/cm\u00b3 @ Temp: 20 \u00b0C"}}