{"cas_no": "75438-57-2", "cn_name": "\u83ab\u7d22\u5c3c\u5576", "en_name": ["Moxonidine", "5-Pyrimidinamine, 4-chloro-N-(4,5-dihydro-1H-imidazol-2-yl)-6-methoxy-2-methyl-", "4-Chloro-N-(4,5-dihydro-1H-imidazol-2-yl)-6-methoxy-2-methyl-5-pyrimidinamine", "BE 5895", "Moxonidine", "BDF 5895", "2-(6-Chloro-4-methoxy-2-methylpyrimidin-5-ylamino)-2-imidazoline", "Cynt", "Lomox", "Moxon", "Normoxocin", "Physiotens", "LY 326869", "Nucynt", "Norcynt", "Moxogamma", "(4-Chloro-6-methoxy-2-methyl-pyrimidin-5-yl)-imidazolidin-2-ylidene-amine"], "SMILES": "N(C=1C(OC)=NC(C)=NC1Cl)C=2NCCN2", "physical_data": {"Molecular Weight": "241.68", "Molecular Formula": "C9H12ClN5O", "Melting Point": "217-219 \u00b0C (decomp)"}}