{"cas_no": "7545-50-8", "cn_name": "3,3'-\u4e8c\u6c28\u57fa-4,4'-\u4e8c\u7f9f\u57fa\u4e8c\u82ef\u781c", "en_name": ["ABPS", "Phenol, 4,4\u2032-sulfonylbis[2-amino-", "4,4\u2032-Sulfonylbis[2-aminophenol]", "3,3\u2032-Diamino-4,4\u2032-dihydroxydiphenyl sulfone", "Bis(3-amino-4-hydroxyphenyl)sulfone", "4,4\u2032-Sulfonylbis(o-aminophenol)", "2,2\u2032-Diamino-4,4\u2032-sulfonyldiphenol", "NSC 155173", "2,2\u2032-Bis(3-amino-4-hydroxyphenyl) sulfone", "ABPS", "4,4\u2032-Dihydroxy-3,3\u2032-diaminophenylsulfone", "DABS", "2-Amino-4-(3-amino-4-hydroxyphenyl)sulfonylphenol"], "SMILES": "S(=O)(=O)(C1=CC(N)=C(O)C=C1)C2=CC(N)=C(O)C=C2", "physical_data": {"Molecular Weight": "280.30", "Molecular Formula": "C12H12N2O4S", "Melting Point": "227-228 \u00b0C (decomp)"}}