{"cas_no": "75462-59-8", "cn_name": "3,5-\u53cc\u4e09\u6c1f\u7532\u57fa\u82c4\u57fa\u6c2f", "en_name": ["3,5-Bis(trifluoromethyl)benzyl chloride", "Benzene, 1-(chloromethyl)-3,5-bis(trifluoromethyl)-", "1-(Chloromethyl)-3,5-bis(trifluoromethyl)benzene", "3,5-Bis(trifluoromethyl)benzyl chloride", "3,5-Ditrifluoromethylbenzyl chloride", "1,3-Ditrifluoromethyl-5-chloromethylbenzene"], "SMILES": "C(F)(F)(F)C1=CC(C(F)(F)F)=CC(CCl)=C1", "physical_data": {"Molecular Weight": "262.58", "Molecular Formula": "C9H5ClF6", "Melting Point": "47-48.5 \u00b0C"}}