{"cas_no": "75498-96-3", "cn_name": "\u5934\u5b62\u7c73\u8bfa\u94a0\u76d0", "en_name": ["Cefminox sodium", "5-Thia-1-azabicyclo[4.2.0]oct-2-ene-2-carboxylic acid, 7-[[2-[[(2S)-2-amino-2-carboxyethyl]thio]acetyl]amino]-7-methoxy-3-[[(1-methyl-1H-tetrazol-5-yl)thio]methyl]-8-oxo-, sodium salt (1:1), (6R,7S)-", "5-Thia-1-azabicyclo[4.2.0]oct-2-ene-2-carboxylic acid, 7-[[[(2-amino-2-carboxyethyl)thio]acetyl]amino]-7-methoxy-3-[[(1-methyl-1H-tetrazol-5-yl)thio]methyl]-8-oxo-, monosodium salt, [6R-[6\u03b1,7\u03b1,7(S*)]]-", "5-Thia-1-azabicyclo[4.2.0]oct-2-ene-2-carboxylic acid, 7-[[[[(2S)-2-amino-2-carboxyethyl]thio]acetyl]amino]-7-methoxy-3-[[(1-methyl-1H-tetrazol-5-yl)thio]methyl]-8-oxo-, monosodium salt, (6R,7S)-", "Cefminox sodium", "Meicelin", "Cefminox sodium salt"], "SMILES": "N(C(CSCC(C(O)=O)N)=O)C1(OC)C2N(C1=O)C(C(O)=O)=C(CSC=3N(C)N=NN3)CS2.[Na]", "physical_data": {"Molecular Weight": "", "Molecular Formula": "C16H21N7O7S3.Na", "Melting Point": "90-91 \u00b0C"}}