{"cas_no": "7549-33-9", "cn_name": "\u4e19\u9178\u8334\u9999\u916f", "en_name": ["Anisyl propionate", "Benzenemethanol, 4-methoxy-, 1-propanoate", "Benzyl alcohol, p-methoxy-, propionate", "Benzenemethanol, 4-methoxy-, propanoate", "Propionic acid, p-methoxybenzyl ester", "Anisyl propionate", "p-Methoxybenzyl propionate", "NSC 46113", "4-Methoxybenzyl propanoate"], "SMILES": "C(OC(CC)=O)C1=CC=C(OC)C=C1", "physical_data": {"Molecular Weight": "194.23", "Molecular Formula": "C11H14O3", "Boiling Point": "227 \u00b0C"}}