{"cas_no": "7549-37-3", "cn_name": "1,1-\u4e8c\u7532\u6c27\u57fa-3,7-\u4e8c\u7532\u57fa-2,6-\u8f9b\u4e8c\u70ef", "en_name": ["Citral dimethyl acetal", "2,6-Octadiene, 1,1-dimethoxy-3,7-dimethyl-", "2,6-Octadienal, 3,7-dimethyl-, dimethyl acetal", "Citral dimethyl acetal", "1,1-Dimethoxy-3,7-dimethyl-2,6-octadiene", "3,7-Dimethyl-2,6-octadienal dimethyl acetal"], "SMILES": "C(C=C(CCC=C(C)C)C)(OC)OC", "physical_data": {"Molecular Weight": "198.30", "Molecular Formula": "C12H22O2", "Boiling Point": "105-106 \u00b0C @ Press: 10 Torr", "Density": "0.8984 g/cm\u00b3 @ Temp: 20 \u00b0C"}}