{"cas_no": "755-73-7", "cn_name": "2,2,3,3-\u56db\u6c1f-3-\u7532\u6c27\u57fa\u4e19\u9178\u7532\u916f", "en_name": ["Methyl 2,2,3,3-tetrafluoro-3-methoxypropanoate", "Propanoic acid, 2,2,3,3-tetrafluoro-3-methoxy-, methyl ester", "Propionic acid, 2,2,3,3-tetrafluoro-3-methoxy-, methyl ester", "Methyl 2,2,3,3-tetrafluoro-3-methoxypropanoate", "Methyl 3-methoxyperfluoropropionate", "Methyl 3-methoxytetrafluoropropionate", "Methyl 2,2,3,3-tetrafluoro-3-methoxypropionate"], "SMILES": "C(C(OC)(F)F)(C(OC)=O)(F)F", "physical_data": {"Molecular Weight": "190.09", "Molecular Formula": "C5H6F4O3", "Boiling Point": "66-71 \u00b0C @ Press: 49 Torr"}}