{"cas_no": "755027-18-0", "cn_name": "2-\u6eb4-5-\u7898\u82ef\u7532\u919a", "en_name": ["1-Bromo-4-iodo-2-methoxybenzene", "Benzene, 1-bromo-4-iodo-2-methoxy-", "1-Bromo-4-iodo-2-methoxybenzene", "2-Bromo-5-iodoanisole"], "SMILES": "O(C)C1=C(Br)C=CC(I)=C1", "physical_data": {"Molecular Weight": "312.93", "Molecular Formula": "C7H6BrIO", "Melting Point": "53.1-55.6 \u00b0C"}}