{"cas_no": "75507-68-5", "cn_name": "\u9a6c\u6765\u9178\u6c1f\u5421\u6c40", "en_name": ["Flupirtine maleate", "Carbamic acid, N-[2-amino-6-[[(4-fluorophenyl)methyl]amino]-3-pyridinyl]-, ethyl ester, (2Z)-2-butenedioate (1:1)", "Carbamic acid, [2-amino-6-[[(4-fluorophenyl)methyl]amino]-3-pyridinyl]-, ethyl ester, (Z)-2-butenedioate (1:1)", "Carbamic acid, [2-amino-6-[[(4-fluorophenyl)methyl]amino]-3-pyridinyl]-, ethyl ester, (2Z)-2-butenedioate (1:1)", "Flupirtine maleate", "W 2964M", "Efiret"], "SMILES": "C(=CC(O)=O)C(O)=O.N(C(OCC)=O)C1=C(N)N=C(NCC2=CC=C(F)C=C2)C=C1", "physical_data": {"Molecular Weight": "", "Molecular Formula": "C15H17FN4O2.C4H4O4", "Melting Point": "175.5-176 \u00b0C"}}