{"cas_no": "755037-03-7", "cn_name": "\u745e\u683c\u975e\u5c3c", "en_name": ["Regorafenib", "2-Pyridinecarboxamide, 4-[4-[[[[4-chloro-3-(trifluoromethyl)phenyl]amino]carbonyl]amino]-3-fluorophenoxy]-N-methyl-", "4-[4-[[[[4-Chloro-3-(trifluoromethyl)phenyl]amino]carbonyl]amino]-3-fluorophenoxy]-N-methyl-2-pyridinecarboxamide", "4-[4-[N\u2032-(4-Chloro-3-trifluoromethylphenyl)ureido]-3-fluorophenoxy]pyridine-2-carboxylic acid methylamide", "Regorafenib", "BAY 73-4506", "Stivarga", "Stivargo"], "SMILES": "O(C=1C=C(C(NC)=O)N=CC1)C2=CC(F)=C(NC(NC3=CC(C(F)(F)F)=C(Cl)C=C3)=O)C=C2", "physical_data": {"Molecular Weight": "482.82", "Molecular Formula": "C21H15ClF4N4O3", "Melting Point": "206-207 \u00b0C"}}