{"cas_no": "7550-35-8", "cn_name": "\u6eb4\u5316\u9502", "en_name": ["Lithium bromide", "Lithium bromide (LiBr)", "Lithium bromide", "Lithium monobromide"], "SMILES": "Br[Li]", "physical_data": {"Molecular Weight": "", "Molecular Formula": "BrLi", "Melting Point": "547 \u00b0C"}}