{"cas_no": "7550-45-0", "cn_name": "\u56db\u6c2f\u5316\u949b", "en_name": ["Titanium tetrachloride", "Titanium chloride (TiCl4) (T-4)-", "Titanium chloride (TiCl4)", "Titanium tetrachloride", "Tetrachlorotitanium", "Titanium chloride", "Titanium(IV) chloride", "TC 36"], "SMILES": "[Ti](Cl)(Cl)(Cl)Cl", "physical_data": {"Molecular Weight": "", "Molecular Formula": "Cl4Ti", "Boiling Point": "136.4 \u00b0C", "Melting Point": "-24.1 \u00b0C", "Density": "1.726 g/cm\u00b3"}}