{"cas_no": "75507-25-4", "cn_name": "2-\u7f9f\u7532\u57fa-15-\u51a0-5", "en_name": ["2-Hydroxymethyl-15-crown-5", "1,4,7,10,13-Pentaoxacyclopentadecane-2-methanol", "2-Hydroxymethyl-15-crown-5", "1,4,7,10,13-Pentaoxacyclopentadecan-2-ylmethanol", "1,4,7,10,13-Pentaoxacyclopentadec-2-ylmethanol"], "SMILES": "C(O)C1COCCOCCOCCOCCO1", "physical_data": {"Molecular Weight": "250.29", "Molecular Formula": "C11H22O6", "Boiling Point": "113 \u00b0C @ Press: 0.01 Torr"}}