{"cas_no": "75507-26-5", "cn_name": "2-\u7f9f\u7532\u57fa-12-\u51a0-4", "en_name": ["1,4,7,10-Tetraoxacyclododecane-2-methanol", "1,4,7,10-Tetraoxacyclododecane-2-methanol", "Hydroxymethyl-12-crown-4", "(1,4,7,10-Tetraoxacyclododecan-2-yl)methyl alcohol", "2-(Hydroxymethyl)-12-crown-4", "(1,4,7,10-Tetraoxacyclododecan-2-yl)methanol", "1,4,7,10-Tetraoxacyclododecan-2-methanol", "1,4,7,10-Tetraoxacyclododec-2-ylmethanol", "2-Hydroxymethyl-1,4,7,10-tetraoxacyclododecane"], "SMILES": "C(O)C1COCCOCCOCCO1", "physical_data": {"Molecular Weight": "206.24", "Molecular Formula": "C9H18O5", "Boiling Point": "115 \u00b0C @ Press: 0.04 Torr"}}