{"cas_no": "75530-68-6", "cn_name": "\u5c3c\u4f10\u5730\u5e73", "en_name": ["Nilvadipine", "3,5-Pyridinedicarboxylic acid, 2-cyano-1,4-dihydro-6-methyl-4-(3-nitrophenyl)-, 3-methyl 5-(1-methylethyl) ester", "FR 34235", "FK 235", "Nilvadipine", "(\u00b1)-Nilvadipine", "dl-Nilvadipine", "Nivadil", "SKF 102362", "Escor", "Nivaldipine", "CL 287389", "Nivadip", "3-O-Methyl 5-O-propan-2-yl 2-cyano-6-methyl-4-(3-nitrophenyl)-1,4-dihydropyridine-3,5-dicarboxylate"], "SMILES": "C(OC)(=O)C=1C(C(C(OC(C)C)=O)=C(C)NC1C#N)C2=CC(N(=O)=O)=CC=C2", "physical_data": {"Molecular Weight": "385.37", "Molecular Formula": "C19H19N3O6", "Melting Point": "148-150 \u00b0C"}}