{"cas_no": "7553-56-2", "cn_name": "\u7898", "en_name": ["Iodine", "Iodine", "Iodine crystals", "Iodine sublimed", "Iodine colloidal", "Eranol", "Iodine (127I2)", "Molecular iodine", "Iosan Superdip", "Actomar", "Diiodine", "Jodosan", "Diatomic iodine", "Iodine molecule (I2)", "Iodel FD", "NSC 42355", "Tegodyne", "DentaPure DP 90", "eXIA 160", "Iodosteryl", "Biojodis", "Yoddar", "MeSH ID: D007455"], "SMILES": "II", "physical_data": {"Molecular Weight": "253.81", "Molecular Formula": "I2", "Boiling Point": "184.4 \u00b0C @ Press: 800 Torr", "Melting Point": "113.7 \u00b0C", "Density": "4.9 g/cm\u00b3"}}