{"cas_no": "7554-12-3", "cn_name": "DL-\u82f9\u679c\u9178\u4e8c\u4e59\u916f", "en_name": ["Diethyl malate", "Butanedioic acid, 2-hydroxy-, 1,4-diethyl ester", "Malic acid, diethyl ester", "Butanedioic acid, hydroxy-, diethyl ester", "Diethyl malate", "Diethyl DL-malate", "(\u00b1)-Diethyl malate", "Diethyl 2-hydroxysuccinate", "1,4-Diethyl 2-hydroxybutanedioate"], "SMILES": "C(C(C(OCC)=O)O)C(OCC)=O", "physical_data": {"Molecular Weight": "190.19", "Molecular Formula": "C8H14O5", "Boiling Point": "128-136 \u00b0C"}}