{"cas_no": "7554-65-6", "cn_name": "4-\u7532\u57fa\u5421\u5511", "en_name": ["4-Methylpyrazole", "1H-Pyrazole, 4-methyl-", "Pyrazole, 4-methyl-", "4-Methyl-1H-pyrazole", "4-Methylpyrazole", "4-MP", "Fomepizole", "Antizol"], "SMILES": "CC=1C=NNC1", "physical_data": {"Molecular Weight": "82.10", "Molecular Formula": "C4H6N2", "Boiling Point": "206 \u00b0C", "Melting Point": "15.5-18.5 \u00b0C"}}