{"cas_no": "7554-28-1", "cn_name": "D-(+)-\u82f9\u679c\u9178\u4e8c\u4e59\u916f", "en_name": ["Diethyl D-malate", "Butanedioic acid, 2-hydroxy-, 1,4-diethyl ester, (2R)-", "Malic acid, diethyl ester, D-(+)-", "Butanedioic acid, hydroxy-, diethyl ester, (R)-", "Butanedioic acid, hydroxy-, diethyl ester, (2R)-", "Diethyl D-malate", "Diethyl (2R)-malate", "Diethyl (R)-malate", "Diethyl (R)-2-hydroxysuccinate", "(2R)-2-Hydroxybutanedioic acid diethyl ester", "1,4-Diethyl (2R)-2-hydroxybutanedioate"], "SMILES": "C(C(C(OCC)=O)O)C(OCC)=O", "physical_data": {"Molecular Weight": "190.19", "Molecular Formula": "C8H14O5", "Boiling Point": "80 \u00b0C @ Press: 8 x 10<sup>-3</sup> Torr"}}