{"cas_no": "7556-37-8", "cn_name": "1-\u7532\u57fa-4-\u7f9f\u57fa\u5432\u54da", "en_name": ["4-Hydroxy-N-methylindole", "1H-Indol-4-ol, 1-methyl-", "Indol-4-ol, 1-methyl-", "1-Methyl-1H-indol-4-ol", "4-Hydroxy-1-methylindole", "4-Hydroxy-N-methylindole"], "SMILES": "OC1=C2C(N(C)C=C2)=CC=C1", "physical_data": {"Molecular Weight": "147.17", "Molecular Formula": "C9H9NO", "Melting Point": "90 \u00b0C"}}