{"cas_no": "75581-11-2", "cn_name": "4-\u7898-2-\u7532\u57fa\u82ef\u7532\u919a", "en_name": ["4-Iodo-1-methoxy-2-methylbenzene", "Benzene, 4-iodo-1-methoxy-2-methyl-", "4-Iodo-1-methoxy-2-methylbenzene", "5-Iodo-2-methoxytoluene", "4-Iodo-2-methylanisole", "4-Methoxy-3-methyliodobenzene", "4-Iodo-2-methyl-1-methoxybenzene", "1-Iodo-4-methoxy-3-methylbenzene"], "SMILES": "O(C)C1=C(C)C=C(I)C=C1", "physical_data": {"Molecular Weight": "248.06", "Molecular Formula": "C8H9IO", "Melting Point": "75-76 \u00b0C"}}