{"cas_no": "7558-63-6", "cn_name": "\u8c37\u6c28\u9178\u4e00\u94f5", "en_name": ["Ammonium glutamate", "L-Glutamic acid, ammonium salt (1:1)", "Glutamic acid, monoammonium salt, L-", "L-Glutamic acid, monoammonium salt", "Monoammonium glutamate", "Ammonium glutamate", "Glutamic acid monoammonium salt", "Monoammonium L-glutamate", "E 624"], "SMILES": "C(CCC(O)=O)(C(O)=O)N.N", "physical_data": {"Molecular Weight": "", "Molecular Formula": "C5H9NO4.H3N", "Melting Point": "61-64 \u00b0C"}}