{"cas_no": "7559-04-8", "cn_name": "\u6258\u53ef\u918c", "en_name": ["Tocopherol quinone", "2,5-Cyclohexadiene-1,4-dione, 2-[(3R,7R,11R)-3-hydroxy-3,7,11,15-tetramethylhexadecyl]-3,5,6-trimethyl-", "p-Benzoquinone, 2-(3-hydroxy-3,7,11,15-tetramethylhexadecyl)-3,5,6-trimethyl-", "2,5-Cyclohexadiene-1,4-dione, 2-(3-hydroxy-3,7,11,15-tetramethylhexadecyl)-3,5,6-trimethyl-, [3R-(3R*,7R*,11R*)]-", "2-[(3R,7R,11R)-3-Hydroxy-3,7,11,15-tetramethylhexadecyl]-3,5,6-trimethyl-2,5-cyclohexadiene-1,4-dione", "\u03b1-Tocopherol quinone", "\u03b1-Tocoquinone", "\u03b1-Tocopherylquinone", "Metarene", "Tocopherol quinone", "Tocopheryl quinone", "Vitamin E quinone", "d-\u03b1-Tocopherol quinone", "2-((3R,7R,11R)-3-Hydroxy-3,7,11,15-tetramethylhexadecyl)-3,5,6-trimethylcyclohexa-2,5-diene-1,4-dione", "Tocopherolquine"], "SMILES": "C(CC(CCCC(CCCC(CCCC(C)C)C)C)(C)O)C1=C(C)C(=O)C(C)=C(C)C1=O", "physical_data": {"Molecular Weight": "446.71", "Molecular Formula": "C29H50O3", "Boiling Point": "120 \u00b0C @ Press: 2 x 10<sup>-3</sup> Torr"}}