{"cas_no": "756-13-8", "cn_name": "\u5168\u6c1f\u5df1\u916e", "en_name": ["1,1,1,2,2,4,5,5,5-Nonafluoro-4-(trifluoromethyl)-3-pentanone", "3-Pentanone, 1,1,1,2,2,4,5,5,5-nonafluoro-4-(trifluoromethyl)-", "1,1,1,2,2,4,5,5,5-Nonafluoro-4-(trifluoromethyl)-3-pentanone", "Perfluoro-2-methyl-3-pentanone", "Perfluoro(ethyl isopropyl ketone)", "Heptafluoroisopropyl pentafluoroethyl ketone", "Perfluoro-(4-methylpentan-3-one)", "L 18543", "Novec 1230", "Dodecafluoro-2-methylpentan-3-one", "Novec 649", "Khaldon PFK 49", "HFE 649"], "SMILES": "C(C(C(C(F)(F)F)(F)F)=O)(C(F)(F)F)(C(F)(F)F)F", "physical_data": {"Molecular Weight": "316.04", "Molecular Formula": "C6F12O", "Boiling Point": "48-49 \u00b0C @ Press: 760 Torr"}}