{"cas_no": "756-80-9", "cn_name": "\u4e8c\u7532\u57fa\u4e8c\u786b\u4ee3\u78f7\u9178\u916f", "en_name": ["O,O-Dimethyl phosphorodithioate", "Phosphorodithioic acid, O,O-dimethyl ester", "Methyl phosphorodithioate", "O,O-Dimethyl dithiophosphate", "O,O-Dimethyl phosphorodithioic acid", "O,O-Dimethyl hydrogen dithiophosphate", "O,O-Dimethyl dithiophosphoric acid", "O,O-Dimethyl phosphorodithioate", "O,O\u2032-Dimethyl hydrogen dithiophosphate", "O,O\u2032-Dimethyl dithiophosphate"], "SMILES": "P(OC)(OC)(=S)S", "physical_data": {"Molecular Weight": "158.18", "Molecular Formula": "C2H7O2PS2", "Boiling Point": "62-63 \u00b0C @ Press: 4.5 Torr", "Density": "1.2888 g/cm\u00b3 @ Temp: 20 \u00b0C"}}