{"cas_no": "756-79-6", "cn_name": "\u7532\u57fa\u81a6\u9178\u4e8c\u7532\u916f", "en_name": ["Dimethyl methylphosphonate", "Phosphonic acid, P-methyl-, dimethyl ester", "Phosphonic acid, methyl-, dimethyl ester", "Dimethyl methylphosphonate", "DMMP", "Methanephosphonic acid dimethyl ester", "Dimethyl methanephosphonate", "Dimethoxymethyl phosphine oxide", "Fyrol DMMP", "Methylphosphonic acid dimethyl ester", "O,O-Dimethyl methylphosphonate", "Fran TF 2000", "Metaran", "Reoflam DMMP", "NSC 62240", "D 169102", "JY 48K", "QN 6"], "SMILES": "P(OC)(OC)(C)=O", "physical_data": {"Molecular Weight": "124.08", "Molecular Formula": "C3H9O3P", "Boiling Point": "181 \u00b0C @ Press: 754 Torr", "Density": "1.150 g/cm\u00b3 @ Temp: 20 \u00b0C"}}