{"cas_no": "756-09-2", "cn_name": "3H-\u56db\u6c1f\u4e19\u9178", "en_name": ["Flupropanate", "Propanoic acid, 2,2,3,3-tetrafluoro-", "Propionic acid, 2,2,3,3-tetrafluoro-", "2,2,3,3-Tetrafluoropropanoic acid", "2,2,3,3-Tetrafluoropropionic acid", "\u03c9-Hydrotetrafluoropropionic acid", "Flupropanate", "\u03c9-Hydroperfluoropropionic acid"], "SMILES": "C(C(F)F)(C(O)=O)(F)F", "physical_data": {"Molecular Weight": "146.04", "Molecular Formula": "C3H2F4O2", "Boiling Point": "134 \u00b0C"}}