{"cas_no": "7560-50-1", "cn_name": "4-\u7532\u9170\u57fa\u8089\u6842\u9178\u7532\u916f", "en_name": ["Methyl 3-(4-formylphenyl)-2-propenoate", "2-Propenoic acid, 3-(4-formylphenyl)-, methyl ester", "Cinnamic acid, p-formyl-, methyl ester", "Methyl 3-(4-formylphenyl)-2-propenoate", "Methyl p-formylcinnamate", "Methyl 4-formylcinnamate", "3-(4-Formylphenyl)acrylic acid methyl ester", "Methyl 3-(4-formylphenyl)acrylate"], "SMILES": "C(=CC(OC)=O)C1=CC=C(C=O)C=C1", "physical_data": {"Molecular Weight": "190.20", "Molecular Formula": "C11H10O3", "Melting Point": "79-81 \u00b0C"}}