{"cas_no": "7560-83-0", "cn_name": "N-\u7532\u57fa\u4e8c\u73af\u5df1\u57fa\u80fa", "en_name": ["Methyldicyclohexylamine", "Cyclohexanamine, N-cyclohexyl-N-methyl-", "Dicyclohexylamine, N-methyl-", "N-Cyclohexyl-N-methylcyclohexanamine", "N-Methyldicyclohexylamine", "N,N-Dicyclohexylmethylamine", "Methyldicyclohexylamine", "NSC 133262", "NSC 166513", "Dicyclohexyl(methyl)amine", "N,N-Dicyclohexyl-N-methylamine", "PC 12", "D 0820", "N,N\u2032-Dicyclohexylmethylamine", "PC CAT NP 112"], "SMILES": "N(C)(C1CCCCC1)C2CCCCC2", "physical_data": {"Molecular Weight": "195.34", "Molecular Formula": "C13H25N", "Boiling Point": "265 \u00b0C", "Melting Point": "193-194 \u00b0C"}}