{"cas_no": "7560-44-3", "cn_name": "4-\u6c2f\u8089\u6842\u9178\u7532\u916f", "en_name": ["Methyl 3-(4-chlorophenyl)-2-propenoate", "2-Propenoic acid, 3-(4-chlorophenyl)-, methyl ester", "Cinnamic acid, p-chloro-, methyl ester", "Methyl 3-(4-chlorophenyl)-2-propenoate", "Methyl p-chlorocinnamate", "Methyl 4-chlorocinnamate", "4-Chlorocinnamic acid methyl ester", "3-(4-Chlorophenyl)-2-propenoic acid methyl ester", "NSC 155559", "Methyl 3-(4-chlorophenyl)acrylate", "3-(4-Chlorophenyl)acrylic acid methyl ester", "Methyl 3-(4-chlorophenyl)propenoate"], "SMILES": "C(=CC(OC)=O)C1=CC=C(Cl)C=C1", "physical_data": {"Molecular Weight": "196.63", "Molecular Formula": "C10H9ClO2", "Melting Point": "76-76.5 \u00b0C"}}