{"cas_no": "75625-99-9", "cn_name": "2-[4-(2-\u7532\u57fa-\u4e19\u70ef\u57fa)\u82ef\u57fa]\u4e19\u9178", "en_name": ["\u03b1-Methyl-4-(2-methyl-1-propen-1-yl)benzeneacetic acid", "Benzeneacetic acid, \u03b1-methyl-4-(2-methyl-1-propen-1-yl)-", "Benzeneacetic acid, \u03b1-methyl-4-(2-methyl-1-propenyl)-", "\u03b1-Methyl-4-(2-methyl-1-propen-1-yl)benzeneacetic acid", "Gx 258", "2-[4-(2-Methylpropenyl)phenyl]propionic Acid", "2-[4-(2-Methylprop-1-en-1-yl)phenyl]propanoic acid"], "SMILES": "C(C(O)=O)(C)C1=CC=C(C=C(C)C)C=C1", "physical_data": {"Molecular Weight": "204.26", "Molecular Formula": "C13H16O2", "Melting Point": "50-52 \u00b0C"}}