{"cas_no": "7562-61-0", "cn_name": "\u677e\u841d\u9178", "en_name": ["(R)-Usnic acid", "1,3(2H,9bH)-Dibenzofurandione, 2,6-diacetyl-7,9-dihydroxy-8,9b-dimethyl-, (9bR)-", "Usnic acid, (R)-", "(9bR)-2,6-Diacetyl-7,9-dihydroxy-8,9b-dimethyl-1,3(2H,9bH)-dibenzofurandione", "(+)-Usninic acid", "d-Usnic acid", "d-Usninic acid", "(+)-Usnic acid", "NSC 685596", "(R)-Usnic acid", "(9BR)-2,6-diacetyl-7,9-dihydroxy-8,9b-dimethyldibenzofuran-1,3-dione", "Usnic acid, (+)-"], "SMILES": "CC12C=3C(OC1=CC(=O)C(C(C)=O)C2=O)=C(C(C)=O)C(O)=C(C)C3O", "physical_data": {"Molecular Weight": "344.32", "Molecular Formula": "C18H16O7", "Melting Point": "206 \u00b0C"}}