{"cas_no": "75626-17-4", "cn_name": "2,5-\u4e8c\u6c1f\u82ef\u7532\u919a", "en_name": ["1,4-Difluoro-2-methoxybenzene", "Benzene, 1,4-difluoro-2-methoxy-", "1,4-Difluoro-2-methoxybenzene", "2,5-Difluoroanisole", "2,5-Difluoroanisol"], "SMILES": "O(C)C1=C(F)C=CC(F)=C1", "physical_data": {"Molecular Weight": "144.12", "Molecular Formula": "C7H6F2O", "Boiling Point": "72-73 \u00b0C @ Press: 25 Torr", "Melting Point": "59-60 \u00b0C"}}