{"cas_no": "756491-54-0", "cn_name": "(R)-(+)-3,3\u2032-\u53cc(3,5-\u53cc(\u4e09\u6c1f\u7532\u57fa)\u82ef\u57fa)-1,1\u2032-\u4e8c-2-\u8418\u915a", "en_name": ["(1R)-3,3\u2032-Bis[3,5-bis(trifluoromethyl)phenyl][1,1\u2032-binaphthalene]-2,2\u2032-diol", "[1,1\u2032-Binaphthalene]-2,2\u2032-diol, 3,3\u2032-bis[3,5-bis(trifluoromethyl)phenyl]-, (1R)-", "(1R)-3,3\u2032-Bis[3,5-bis(trifluoromethyl)phenyl][1,1\u2032-binaphthalene]-2,2\u2032-diol", "(R)-3,3\u2032-Bis[3,5-bis(trifluoromethyl)phenyl]-1,1\u2032-binaphthol"], "SMILES": "OC1=C(C2=C(C=C1C3=CC(C(F)(F)F)=CC(C(F)(F)F)=C3)C=CC=C2)C=4C5=C(C=C(C4O)C6=CC(C(F)(F)F)=CC(C(F)(F)F)=C6)C=CC=C5", "physical_data": {"Molecular Weight": "710.51", "Molecular Formula": "C36H18F12O2", "Melting Point": "97-99 \u00b0C"}}