{"cas_no": "7564-51-4", "cn_name": "2,5-\u4e8c\u6c22-3-\u7532\u57fa-1-\u82ef\u57fa-1-\u6c27\u5316\u78f7", "en_name": ["3-Methyl-1-phenyl-3-phospholene 1-oxide", "1H-Phosphole, 2,5-dihydro-3-methyl-1-phenyl-, 1-oxide", "3-Phospholene, 3-methyl-1-phenyl-, 1-oxide", "1-Phenyl-3-methyl-3-phospholene 1-oxide", "3-Methyl-1-phenyl-3-phospholene 1-oxide", "3-Methyl-1-phenyl-3-phospholene oxide", "1-Phenyl-3-methyl-3-phospholene oxide", "1-Phenyl-3-methyl-1-oxo-3-phospholine", "(RS)-3-Methyl-1-phenylphospholene 1-oxide", "2,5-Dihydro-3-methyl-1-phenylphosphole 1-oxide", "NSC 33505", "Lubio Polykat 1", "2,5-Dihydro-3-methyl-1-phenyl-1H-phosphole 1-oxide", "3-Methyl-1-phenyl-2,5-dihydro-1H-phosphol-1-ium-1-olate", "3-Methyl-1-phenyl-2,5-dihydro-1H-phosphole 1-oxide", "3-Methyl-1-phenyl-2,5-dihydro-1H-phosphole1-oxide"], "SMILES": "O=P1(C2=CC=CC=C2)CC(C)=CC1", "physical_data": {"Molecular Weight": "192.19", "Molecular Formula": "C11H13OP", "Boiling Point": "133-134 \u00b0C @ Press: 0.24 Torr"}}