{"cas_no": "7568-93-6", "cn_name": "2-\u6c28\u57fa-1-\u82ef\u4e59\u9187", "en_name": ["(\u00b1)-Phenylethanolamine", "Benzenemethanol, \u03b1-(aminomethyl)-", "Benzyl alcohol, \u03b1-(aminomethyl)-", "\u03b1-(Aminomethyl)benzenemethanol", "\u03b2-Phenylethanolamine", "Bisnorephedrine", "\u03b2-Hydroxyphenylethylamine", "Benzeneethanamine, \u03b2-hydroxy-", "2-Hydroxy-2-phenylethylamine", "2-Phenyl-2-hydroxyethylamine", "Phenylethanolamine", "\u03b2-Hydroxyphenethylamine", "\u03b2-Phenethanolamine", "2-Amino-1-phenylethanol", "\u03b1-(Aminomethyl)benzyl alcohol", "Phenethanolamine", "\u03b2-Hydroxy-\u03b2-phenylethylamine", "1-Phenyl-2-aminoethanol", "Apophedrin", "2-Amino-1-phenyl-1-ethanol", "1-Phenyl-1-hydroxy-2-aminoethane", "(\u00b1)-Phenylethanolamine", "DL-\u03b2-Hydroxy-\u03b2-phenethylamine", "(\u00b1)-2-Amino-1-phenylethanol", "dl-Phenylethanolamine", "dl-\u03b2-Hydroxyphenylethylamine", "(\u00b1)-\u03b1-Phenylglycinol", "(\u00b1)-1-Phenylethanolamine", "(\u00b1)-\u03b2-Hydroxyphenethylamine", "1-Phenylethanolamine", "rac-2-Amino-1-phenylethanol", "NSC 46837", "NSC 5021", "(RS)-2-Amino-1-phenylethanol"], "SMILES": "C(CN)(O)C1=CC=CC=C1", "physical_data": {"Molecular Weight": "137.18", "Molecular Formula": "C8H11NO", "Boiling Point": "160 \u00b0C", "Melting Point": "56.5 \u00b0C"}}