{"cas_no": "75680-92-1", "cn_name": "6-\u6c2f\u54d2\u55ea3-\u7fa7\u9178\u4e59\u916f", "en_name": ["Ethyl 6-chloro-3-pyridazinecarboxylate", "3-Pyridazinecarboxylic acid, 6-chloro-, ethyl ester", "Ethyl 6-chloro-3-pyridazinecarboxylate"], "SMILES": "C(OCC)(=O)C1=CC=C(Cl)N=N1", "physical_data": {"Molecular Weight": "186.60", "Molecular Formula": "C7H7ClN2O2", "Melting Point": "147-149 \u00b0C"}}