{"cas_no": "7568-92-5", "cn_name": "DL-\u82ef\u7518\u6c28\u9187", "en_name": ["Phenylglycinol", "Benzeneethanol, \u03b2-amino-", "Phenethyl alcohol, \u03b2-amino-", "\u03b2-Aminobenzeneethanol", "2-Amino-2-phenylethanol", "2-Phenyl-2-aminoethanol", "Phenylglycinol", "2-Hydroxy-1-phenylethylamine", "\u03b2-Aminophenethyl alcohol", "\u03b1-(Hydroxymethyl)benzylamine", "2-Phenylglycinol", "(\u00b1)-2-Amino-2-phenylethanol", "(\u00b1)-Phenylglycinol", "DL-\u03b1-Phenylglycinol", "(RS)-Phenylglycinol", "2-Hydroxy-1-phenylethanamine", "2-Amino-2-phenylethan-1-ol"], "SMILES": "C(CO)(N)C1=CC=CC=C1", "physical_data": {"Molecular Weight": "137.18", "Molecular Formula": "C8H11NO", "Boiling Point": "115-126 \u00b0C @ Press: 3 Torr", "Melting Point": "47-49 \u00b0C"}}