{"cas_no": "75695-93-1", "cn_name": "\u4f0a\u62c9\u5730\u5e73", "en_name": ["Isradipine", "3,5-Pyridinedicarboxylic acid, 4-(2,1,3-benzoxadiazol-4-yl)-1,4-dihydro-2,6-dimethyl-, 3-methyl 5-(1-methylethyl) ester", "3,5-Pyridinedicarboxylic acid, 4-(4-benzofurazanyl)-1,4-dihydro-2,6-dimethyl-, methyl 1-methylethyl ester", "3,5-Pyridinedicarboxylic acid, 4-(2,1,3-benzoxadiazol-4-yl)-1,4-dihydro-2,6-dimethyl-, methyl 1-methylethyl ester", "2,1,3-Benzoxadiazole, 3,5-pyridinedicarboxylic acid deriv.", "Isradipin", "Isradipine", "PN 200-110", "Lomir", "PN 200", "(\u00b1)-Isradipine", "DynaCire", "DynaCire CR", "Esradin", "Clivoten", "Prescal", "Rebriden", "Isrodipine", "DynaCirc", "Dynacrine", "3-O-Methyl 5-O-propan-2-yl 4-(2,1,3-benzoxadiazol-4-yl)-2,6-dimethyl-1,4-dihydropyridine-3,5-dicarboxylate", "MeSH ID: D017275"], "SMILES": "C(OC(C)C)(=O)C=1C(C(C(OC)=O)=C(C)NC1C)C=2C=3C(C=CC2)=NON3", "physical_data": {"Molecular Weight": "371.39", "Molecular Formula": "C19H21N3O5", "Melting Point": "168-170 \u00b0C"}}