{"cas_no": "7569-62-2", "cn_name": "(2-\u7532\u6c27\u57fa-5-\u6c2f\u82ef\u57fa)\u4e59\u9178", "en_name": ["5-Chloro-2-methoxybenzeneacetic acid", "Benzeneacetic acid, 5-chloro-2-methoxy-", "Acetic acid, (5-chloro-2-methoxyphenyl)-", "5-Chloro-2-methoxybenzeneacetic acid", "(5-Chloro-2-methoxyphenyl)acetic acid", "[5-Chloro-2-(methyloxy)phenyl]acetic acid", "2-(5-Chloro-2-methoxyphenyl)acetic acid"], "SMILES": "C(C(O)=O)C1=C(OC)C=CC(Cl)=C1", "physical_data": {"Molecular Weight": "200.62", "Molecular Formula": "C9H9ClO3", "Melting Point": "129 \u00b0C"}}