{"cas_no": "757-44-8", "cn_name": "\u4e8c\u4e59\u57fa\u78f7\u9170\u4e59\u57fa\u4e09\u4e59\u6c27\u57fa\u7845\u70f7", "en_name": ["Diethyl P-[2-(triethoxysilyl)ethyl]phosphonate", "Phosphonic acid, P-[2-(triethoxysilyl)ethyl]-, diethyl ester", "Phosphonic acid, [2-(triethoxysilyl)ethyl]-, diethyl ester", "Diethyl P-[2-(triethoxysilyl)ethyl]phosphonate", "Diethyl [2-(triethoxysilyl)ethane]phosphonate", "Diethoxyphosphorylethyltriethoxysilane", "Diethyl [\u03b2-(triethoxysilyl)ethyl]phosphonate", "(2-Diethylphosphonatoethyl)triethoxylsilane", "Diethyl [2-(triethoxysilyl)ethyl]phosphonate", "2-Diethoxyphosphorylethyl(triethoxy)silane"], "SMILES": "[Si](CCP(OCC)(OCC)=O)(OCC)(OCC)OCC", "physical_data": {"Molecular Weight": "328.41", "Molecular Formula": "C12H29O6PSi", "Boiling Point": "141 \u00b0C @ Press: 2 Torr", "Density": "1.03125 g/cm\u00b3 @ Temp: 25 \u00b0C"}}