{"cas_no": "757-86-8", "cn_name": "\u4e8c\u7532\u6c27\u57fa\u4e8c\u786b\u4ee3\u78f7\u9178\u57fa\u4e59\u9178\u7532\u916f", "en_name": ["Acetic acid, 2-[(dimethoxyphosphinothioyl)thio]-, methyl ester", "Acetic acid, 2-[(dimethoxyphosphinothioyl)thio]-, methyl ester", "Acetic acid, [(dimethoxyphosphinothioyl)thio]-, methyl ester", "Acetic acid, mercapto-, methyl ester, O,O-dimethyl phosphorodithioate", "Acetic acid, mercapto-, methyl ester, S-ester with O,O-dimethyl phosphorodithioate", "Acetic acid, mercapto-, S-ester with O,O-dimethyl phosphorodithioate, methyl ester", "Phosphorodithioic acid, O,O-dimethyl ester, S-ester with methyl mercaptoacetate", "O,O-Dimethyl S-(methoxycarbonylmethyl)phosphorodithioate", "O,O-Dimethyl-S-(methoxycarbonylmethyl)dithiophosphate", "S-[(Methoxycarbonyl)methyl] O,O-dimethyl phosphorodithioate", "Dimethoic acid methyl ester"], "SMILES": "P(SCC(OC)=O)(OC)(OC)=S", "physical_data": {"Molecular Weight": "230.24", "Molecular Formula": "C5H11O4PS2", "Boiling Point": "110 \u00b0C @ Press: 0.1 Torr", "Density": "1.3094 g/cm\u00b3 @ Temp: 20 \u00b0C"}}