{"cas_no": "757-58-4", "cn_name": "\u56db\u78f7\u9178\u516d\u4e59\u916f", "en_name": ["Tetraphosphoric acid, hexaethyl ester", "Tetraphosphoric acid, hexaethyl ester", "Ethyl tetraphosphate", "Hexaethyl tetraphosphate", "HET", "Bladan"], "SMILES": "P(OP(OP(OCC)(OCC)=O)(OCC)=O)(OP(OCC)(OCC)=O)(OCC)=O", "physical_data": {"Molecular Weight": "506.25", "Molecular Formula": "C12H30O13P4", "Melting Point": "~-40 \u00b0C (approx)", "Density": "1.2917 g/cm\u00b3 @ Temp: 27 \u00b0C"}}