{"cas_no": "7570-37-8", "cn_name": "4-\u6c28\u57fa-4'-\u7532\u6c27\u57fa\u4e8c\u82ef\u4e59\u70ef", "en_name": ["4-Amino-4\u2032-methoxystilbene", "Benzenamine, 4-[2-(4-methoxyphenyl)ethenyl]-", "4-Stilbenamine, 4\u2032-methoxy-", "Aniline, p-(p-methoxystyryl)-", "4-[2-(4-Methoxyphenyl)ethenyl]benzenamine", "4-Amino-4\u2032-methoxystilbene"], "SMILES": "C(=CC1=CC=C(N)C=C1)C2=CC=C(OC)C=C2", "physical_data": {"Molecular Weight": "225.29", "Molecular Formula": "C15H15NO", "Melting Point": "173-174 \u00b0C"}}