{"cas_no": "7570-47-0", "cn_name": "2-\u7532\u57fa-5-\u785d\u57fa\u5432\u54da", "en_name": ["2-Methyl-5-nitroindole", "1H-Indole, 2-methyl-5-nitro-", "Indole, 2-methyl-5-nitro-", "2-Methyl-5-nitro-1H-indole", "2-Methyl-5-nitroindole", "NSC 131898"], "SMILES": "N(=O)(=O)C=1C=C2C(=CC1)NC(C)=C2", "physical_data": {"Molecular Weight": "176.17", "Molecular Formula": "C9H8N2O2", "Melting Point": "171.5-172.5 \u00b0C"}}