{"cas_no": "75706-12-6", "cn_name": "\u6765\u6c1f\u7c73\u7279", "en_name": ["Leflunomide", "4-Isoxazolecarboxamide, 5-methyl-N-[4-(trifluoromethyl)phenyl]-", "5-Methyl-N-[4-(trifluoromethyl)phenyl]-4-isoxazolecarboxamide", "HWA 486", "Leflunomide", "SU 101", "SU 101 (pharmaceutical)", "Arava", "Leflunomida", "Leflunomidum", "Avara", "Lefumide", "Cleft", "Repso"], "SMILES": "C(NC1=CC=C(C(F)(F)F)C=C1)(=O)C2=C(C)ON=C2", "physical_data": {"Molecular Weight": "270.21", "Molecular Formula": "C12H9F3N2O2", "Melting Point": "165-166 \u00b0C"}}