{"cas_no": "7572-29-4", "cn_name": "\u4e8c\u6c2f\u4e59\u7094", "en_name": ["Ethyne, dichloro-", "Ethyne, dichloro-", "Acetylene, dichloro-", "Dichloroacetylene", "Dichloroethyne", "1,2-Dichloroethyne", "1,2-Dichloroacetylene"], "SMILES": "C(#CCl)Cl", "physical_data": {"Molecular Weight": "94.93", "Molecular Formula": "C2Cl2", "Boiling Point": "33 \u00b0C", "Melting Point": "-66--64 \u00b0C", "Density": "1.261 g/cm\u00b3 @ Temp: 20 \u00b0C"}}