{"cas_no": "757251-39-1", "cn_name": "4-(4-\u6c28\u57fa-3-\u6c1f\u82ef\u6c27\u57fa)\u5421\u5576-2-\u7fa7\u9178\u7532\u80fa", "en_name": ["4-(4-Amino-3-fluorophenoxy)-N-methylpyridine-2-carboxamide", "2-Pyridinecarboxamide, 4-(4-amino-3-fluorophenoxy)-N-methyl-", "4-(4-Amino-3-fluorophenoxy)-N-methyl-2-pyridinecarboxamide", "4-(4-Amino-3-fluorophenoxy)-N-methylpyridine-2-carboxamide", "4-(4-Amino-3-fluorophenoxy)pyridine-2-carboxylic acid methylamide", "APS-5-27"], "SMILES": "O(C=1C=C(C(NC)=O)N=CC1)C2=CC(F)=C(N)C=C2", "physical_data": {"Molecular Weight": "261.25", "Molecular Formula": "C13H12FN3O2", "Melting Point": "140-141 \u00b0C"}}