{"cas_no": "75736-33-3", "cn_name": "\u82c4\u6c2f\u4e09\u5511\u9187", "en_name": ["Diclobutrazol", "1H-1,2,4-Triazole-1-ethanol, \u03b2-[(2,4-dichlorophenyl)methyl]-\u03b1-(1,1-dimethylethyl)-, (\u03b1R,\u03b2R)-rel-", "1H-1,2,4-Triazole-1-ethanol, \u03b2-[(2,4-dichlorophenyl)methyl]-\u03b1-(1,1-dimethylethyl)-, (R*,R*)-(\u00b1)-", "rel-(\u03b1R,\u03b2R)-\u03b2-[(2,4-Dichlorophenyl)methyl]-\u03b1-(1,1-dimethylethyl)-1H-1,2,4-triazole-1-ethanol", "Diclobutrazol", "Vigil", "PP 296", "Vigilex", "Dicyclobutrazole"], "SMILES": "C(CC1=C(Cl)C=C(Cl)C=C1)(C(C(C)(C)C)O)N2C=NC=N2", "physical_data": {"Molecular Weight": "328.24", "Molecular Formula": "C15H19Cl2N3O", "Melting Point": "147-149 \u00b0C"}}