{"cas_no": "7576-65-0", "cn_name": "\u5206\u6563\u9ec454", "en_name": ["Disperse Yellow 54", "1H-Indene-1,3(2H)-dione, 2-(3-hydroxy-2-quinolinyl)-", "1,3-Indandione, 2-(3-hydroxy-2-quinolyl)-", "2-(3-Hydroxy-2-quinolinyl)-1H-indene-1,3(2H)-dione", "3\u2032-Hydroxyquinophthalone", "3-Hydroxyquinophthalone", "2-(3-Hydroxyquinolin-2-yl)-1H-indene-1,3(2H)-dione", "C.I. Disperse Yellow 54", "Amacron Yellow L 3G", "Dispersol Fast Yellow T 3G", "Foron Brilliant Yellow E 3GFL", "Samaron Yellow 3GL", "Terasil Yellow 2GW", "Resiren Yellow TGL", "Latyl Yellow 3G", "Disperse Yellow 54", "Tersetile Yellow 3GLE", "Teraprint Yellow 2G", "Kayaset Yellow A-G", "Palanil Yellow 3GE", "C.I. 47020", "Sumiplast Yellow HLR", "Miketon Polyester Yellow F 3G", "Plast Yellow 8040", "Disperse Yellow F 3G", "C.I. Solvent Yellow 114", "Diaresin Yellow HG", "PS Yellow GG", "Solvent Yellow 114", "Macrolex Yellow G", "Sandoplast Yellow 2G", "Resolin Yellow 4GL", "Disperse Yellow E 2G", "NSC 64849", "Disperse Yellow SE 3GE", "Disperse Yellow E 3GL", "Disperse Yellow 3GE", "Serilene Yellow 3GL", "Oil Yellow 54", "Sumikaron Yellow E-RPD", "Y 54", "2-(3-Hydroxy-quinolin-2-yl)-indan-1,3-dione", "DY 54"], "SMILES": "O=C1C(C(=O)C=2C1=CC=CC2)C3=NC4=C(C=C3O)C=CC=C4", "physical_data": {"Molecular Weight": "289.28", "Molecular Formula": "C18H11NO3", "Melting Point": "265 \u00b0C"}}