{"cas_no": "7579-36-4", "cn_name": "\u8349\u9178\u4e8c\u82c4\u916f", "en_name": ["Dibenzyl oxalate", "Ethanedioic acid, 1,2-bis(phenylmethyl) ester", "Oxalic acid, dibenzyl ester", "Ethanedioic acid, bis(phenylmethyl) ester", "Dibenzyl oxalate", "Benzyl oxalate", "HS 2046", "NSC 52550"], "SMILES": "C(OC(C(OCC1=CC=CC=C1)=O)=O)C2=CC=CC=C2", "physical_data": {"Molecular Weight": "270.28", "Molecular Formula": "C16H14O4", "Melting Point": "80 \u00b0C"}}