{"cas_no": "758-21-4", "cn_name": "\u4e8c\u7532\u57fa\u4e59\u57fa\u7845\u70f7", "en_name": ["Ethyldimethylsilane", "Silane, ethyldimethyl-", "Ethyldimethylsilane", "Dimethylethylsilane"], "SMILES": "[SiH](CC)(C)C", "physical_data": {"Molecular Weight": "88.22", "Molecular Formula": "C4H12Si", "Boiling Point": "45-46 \u00b0C", "Density": "0.668 g/cm\u00b3"}}