{"cas_no": "758-42-9", "cn_name": "1\uff0c1\uff0c3-\u4e09\u6c2f-1\uff0c3\uff0c3-\u4e09\u6c1f\u4e19\u916e", "en_name": ["1,1,1-Trichloro-3,3,3-trifluoro-2-propanone", "2-Propanone, 1,1,1-trichloro-3,3,3-trifluoro-", "1,1,1-Trichloro-3,3,3-trifluoro-2-propanone", "1,1,1-Trichloro-3,3,3-trifluoroacetone", "3,3,3-Trichloro-1,1,1-trifluoroacetone", "1,1,1-Trichlorotrifluoroacetone"], "SMILES": "C(C(Cl)(Cl)Cl)(C(F)(F)F)=O", "physical_data": {"Molecular Weight": "215.39", "Molecular Formula": "C3Cl3F3O", "Boiling Point": "83.5-84.5 \u00b0C"}}