{"cas_no": "758-12-3", "cn_name": "\u6c18\u4ee3\u4e59\u9178", "en_name": ["Acetic acid-d", "Acetic acid-d"], "SMILES": "C(C)(O[2H])=O", "physical_data": {"Molecular Weight": "", "Molecular Formula": "C2H3DO2", "Melting Point": "15.66 \u00b0C", "Density": "1.0588 g/cm\u00b3 @ Temp: 25 \u00b0C"}}