{"cas_no": "758-08-7", "cn_name": "2-\u5def\u57fa\u4e59\u80fa", "en_name": ["Mercaptoacetamide", "Acetamide, 2-mercapto-", "\u03b1-Mercaptoacetamide", "Mercaptoacetamide", "Thioglycolamide", "2-Mercaptoacetamide", "Thiolacetamide", "NSC 524366", "2-Sulfanylacetamide"], "SMILES": "C(CS)(N)=O", "physical_data": {"Molecular Weight": "91.13", "Molecular Formula": "C2H5NOS", "Melting Point": "157.5-158.5 \u00b0C"}}