{"cas_no": "758-16-7", "cn_name": "\u4e8c\u7532\u57fa\u786b\u4ee3\u7532\u9170\u80fa", "en_name": ["N,N-Dimethylthioformamide", "Methanethioamide, N,N-dimethyl-", "Formamide, N,N-dimethylthio-", "N,N-Dimethylmethanethioamide", "Dimethylthioformamide", "N,N-Dimethylthioformamide", "NSC 402082"], "SMILES": "N(C=S)(C)C", "physical_data": {"Molecular Weight": "89.16", "Molecular Formula": "C3H7NS", "Boiling Point": "227-228 \u00b0C", "Density": "1.047 g/cm\u00b3 @ Temp: 0 \u00b0C"}}