{"cas_no": "758-96-3", "cn_name": "N,N-\u4e8c\u7532\u57fa\u4e19\u9170\u80fa", "en_name": ["N,N-Dimethylpropionamide", "Propanamide, N,N-dimethyl-", "Propionamide, N,N-dimethyl-", "N,N-Dimethylpropanamide", "N,N-Dimethylpropionamide", "DMP", "N,N-Di-methyl-3-propanamide"], "SMILES": "C(N(C)C)(CC)=O", "physical_data": {"Molecular Weight": "101.15", "Molecular Formula": "C5H11NO", "Boiling Point": "174.5 \u00b0C", "Melting Point": "-45 \u00b0C", "Density": "0.9429 g/cm\u00b3 @ Temp: 0 \u00b0C"}}