{"cas_no": "75806-85-8", "cn_name": "2,3,5-\u4e09\u6eb4\u5421\u5576", "en_name": ["2,3,5-Tribromopyridine", "Pyridine, 2,3,5-tribromo-", "2,3,5-Tribromopyridine"], "SMILES": "BrC1=C(Br)N=CC(Br)=C1", "physical_data": {"Molecular Weight": "315.79", "Molecular Formula": "C5H2Br3N", "Boiling Point": "160 \u00b0C", "Melting Point": "46 \u00b0C"}}