{"cas_no": "7580-12-3", "cn_name": "2,4,6-\u4e09\u5f02\u4e19\u57fa-1,3,5-\u4e09\u6c27\u6742\u73af\u5df1\u70f7", "en_name": ["2,4,6-Triisopropyl-1,3,5-trioxane", "1,3,5-Trioxane, 2,4,6-tris(1-methylethyl)-", "s-Trioxane, 2,4,6-triisopropyl-", "2,4,6-Tris(1-methylethyl)-1,3,5-trioxane", "2,4,6-Triisopropyl-1,3,5-trioxane", "Triisopropyl-s-trioxane", "Sunsubly B", "2,4,6-Triisopropyltrioxane", "NSC 67871", "Sunsubly"], "SMILES": "C(C)(C)C1OC(C(C)C)OC(C(C)C)O1", "physical_data": {"Molecular Weight": "216.32", "Molecular Formula": "C12H24O3", "Melting Point": "64 \u00b0C"}}