{"cas_no": "7580-67-8", "cn_name": "\u6c22\u5316\u9502", "en_name": ["Lithium hydride", "Lithium hydride (LiH)", "Lithium monohydride", "Lithium hydride"], "SMILES": "[LiH]", "physical_data": {"Molecular Weight": "", "Molecular Formula": "HLi", "Melting Point": "680 \u00b0C", "Density": "0.76-0.77 g/cm\u00b3"}}