{"cas_no": "7580-85-0", "cn_name": "\u4e59\u4e8c\u9187\u5355\u53d4\u4e01\u919a", "en_name": ["Ethylene glycol mono-tert-butyl ether", "Ethanol, 2-(1,1-dimethylethoxy)-", "Ethanol, 2-tert-butoxy-", "2-(1,1-Dimethylethoxy)ethanol", "Ethylene glycol mono-tert-butyl ether", "Swasolve ETB", "2-tert-Butoxyethanol", "tert-Butyl 2-hydroxyethyl ether", "tert-Butyl Cellosolve", "Ethylene glycol tert-butyl ether", "2-tert-Butoxyethyl alcohol", "2-(tert-Butoxy)ethan-1-ol", "2-[(2-Methylpropan-2-yl)oxy]ethanol"], "SMILES": "O(C(C)(C)C)CCO", "physical_data": {"Molecular Weight": "118.17", "Molecular Formula": "C6H14O2", "Boiling Point": "153 \u00b0C", "Density": "0.8970 g/cm\u00b3 @ Temp: 20 \u00b0C"}}