{"cas_no": "75815-22-4", "cn_name": "2'-\u6eb4-2-\u6c2f\u82ef\u4e19\u916e", "en_name": ["2-Bromo-1-(2-chlorophenyl)-1-propanone", "1-Propanone, 2-bromo-1-(2-chlorophenyl)-", "Propiophenone, 2-bromo-2\u2032-chloro-", "2-Bromo-1-(2-chlorophenyl)-1-propanone"], "SMILES": "C(C(Br)C)(=O)C1=C(Cl)C=CC=C1", "physical_data": {"Molecular Weight": "247.52", "Molecular Formula": "C9H8BrClO", "Boiling Point": "115-116 \u00b0C @ Press: 4 Torr", "Density": "1.5233 g/cm\u00b3 @ Temp: 22 \u00b0C"}}