{"cas_no": "7581-97-7", "cn_name": "2,3-\u4e8c\u6c2f\u4e01\u70f7", "en_name": ["2,3-Dichlorobutane", "Butane, 2,3-dichloro-", "2,3-Dichlorobutane"], "SMILES": "C(C(C)Cl)(C)Cl", "physical_data": {"Molecular Weight": "127.01", "Molecular Formula": "C4H8Cl2", "Boiling Point": "118 \u00b0C", "Melting Point": "-80 \u00b0C", "Density": "1.1051 g/cm\u00b3 @ Temp: 25 \u00b0C"}}