{"cas_no": "75824-03-2", "cn_name": "3-\u7532\u786b\u57fa-5-\u6c2f-6-\u7532\u9178\u4e59\u916f-1,2,4-\u4e09\u55ea", "en_name": ["1,2,4-Triazine-6-carboxylic acid, 5-chloro-3-(methylthio)-, ethyl ester", "1,2,4-Triazine-6-carboxylic acid, 5-chloro-3-(methylthio)-, ethyl ester", "Ethyl 5-chloro-3-(methylthio)-1,2,4-triazine-6-carboxylate", "5-Chloro-3-(methylthio)-1,2,4-triazine-6-carboxylic acid ethyl ester", "Ethyl 5-chloro-3-methylsulfanyl-1,2,4-triazine-6-carboxylate"], "SMILES": "C(OCC)(=O)C=1C(Cl)=NC(SC)=NN1", "physical_data": {"Molecular Weight": "233.68", "Molecular Formula": "C7H8ClN3O2S", "Melting Point": "65 \u00b0C"}}