{"cas_no": "7583-53-1", "cn_name": "1-\u7532\u57fa\u54cc\u5576-3-\u7532\u9187", "en_name": ["1-Methyl-3-piperidinemethanol", "3-Piperidinemethanol, 1-methyl-", "1-Methyl-3-piperidinemethanol", "3-(Hydroxymethyl)-1-methylpiperidine", "N-Methylpiperidine-3-methanol", "(1-Methylpiperidin-3-yl)methanol", "3-Hydroxymethyl-N-methylpiperidine", "NSC 66541", "N-Methyl-3-hydroxymethylpiperidine", "1-Methyl-3-hydroxymethylpiperidine"], "SMILES": "C(O)C1CN(C)CCC1", "physical_data": {"Molecular Weight": "129.20", "Molecular Formula": "C7H15NO", "Boiling Point": "142.5 \u00b0C", "Density": "0.9649 g/cm\u00b3"}}