{"cas_no": "75847-73-3", "cn_name": "\u4f9d\u90a3\u666e\u5229", "en_name": ["Enalapril", "L-Proline, N-[(1S)-1-(ethoxycarbonyl)-3-phenylpropyl]-L-alanyl-", "L-Proline, 1-[N-[1-(ethoxycarbonyl)-3-phenylpropyl]-L-alanyl]-, (S)-", "N-[(1S)-1-(Ethoxycarbonyl)-3-phenylpropyl]-L-alanyl-L-proline", "Enalapril", "Enarenal", "MeSH ID: D004656"], "SMILES": "C(C(NC(CCC1=CC=CC=C1)C(OCC)=O)C)(=O)N2C(C(O)=O)CCC2", "physical_data": {"Molecular Weight": "376.45", "Molecular Formula": "C20H28N2O5", "Melting Point": "143-144 \u00b0C"}}