{"cas_no": "75844-41-6", "cn_name": "5-\u7532\u57fa\u55b9\u5511\u5549-4(1H)-\u916e", "en_name": ["5-Methyl-4(3H)-quinazolinone", "4(3H)-Quinazolinone, 5-methyl-", "4(1H)-Quinazolinone, 5-methyl-", "5-Methyl-4(3H)-quinazolinone", "5-Methyl-4-quinazolone", "4-Hydroxy-5-methylquinazoline", "5-Methylquinazolin-4(3H)-one"], "SMILES": "O=C1C=2C(=CC=CC2C)NC=N1", "physical_data": {"Molecular Weight": "160.17", "Molecular Formula": "C9H8N2O", "Melting Point": "224 \u00b0C"}}