{"cas_no": "7584-05-6", "cn_name": "3-\u7532\u57fa-4-\u6c30\u57fa\u5421\u5576", "en_name": ["3-Methyl-4-pyridinecarbonitrile", "4-Pyridinecarbonitrile, 3-methyl-", "Isonicotinonitrile, 3-methyl-", "3-Methyl-4-pyridinecarbonitrile", "4-Cyano-3-methylpyridine", "3-Methyl-4-cyanopyridine", "4-Cyano-3-picoline", "3-Methylisonicotinonitrile"], "SMILES": "C(#N)C=1C(C)=CN=CC1", "physical_data": {"Molecular Weight": "118.14", "Molecular Formula": "C7H6N2", "Boiling Point": "90-100 \u00b0C @ Press: 14 Torr", "Melting Point": "51-52 \u00b0C"}}