{"cas_no": "75844-69-8", "cn_name": "1-Boc-\u54cc\u5576", "en_name": ["1,1-Dimethylethyl 1-piperidinecarboxylate", "1-Piperidinecarboxylic acid, 1,1-dimethylethyl ester", "1,1-Dimethylethyl 1-piperidinecarboxylate", "tert-Butyl 1-piperidinecarboxylate", "Piperidine-1-carboxylic acid tert-butyl ester", "1-(tert-Butoxycarbonyl)piperidine", "N-(tert-Butoxycarbonyl)piperidine", "Boc-piperidine", "1-Boc-Piperidine"], "SMILES": "C(OC(C)(C)C)(=O)N1CCCCC1", "physical_data": {"Molecular Weight": "185.26", "Molecular Formula": "C10H19NO2", "Boiling Point": "110-120 \u00b0C @ Press: 2 Torr"}}