{"cas_no": "75853-49-5", "cn_name": "12-\u7532\u57fa\u5341\u4e09\u919b", "en_name": ["12-Methyltridecanal", "Tridecanal, 12-methyl-", "12-Methyltridecanal"], "SMILES": "C(CCCCCCCC=O)CCC(C)C", "physical_data": {"Molecular Weight": "212.37", "Molecular Formula": "C14H28O", "Boiling Point": "86-88 \u00b0C @ Press: 0.3 Torr"}}