{"cas_no": "7585-39-9", "cn_name": "\u03b2-\u73af\u7cca\u7cbe", "en_name": ["\u03b2-Cyclodextrin", "\u03b2-Cyclodextrin", "Cycloheptaamylose", "2,4,7,9,12,14,17,19,22,24,27,29,32,34-Tetradecaoxaoctacyclo[31.2.2.23,6.28,11.213,16.218,21.223,26.228,31]nonatetracontane, \u03b2-cyclodextrin deriv.", "Dextrin, \u03b2-cyclo", "Cycloheptaglucosan", "Cycloheptaglucan", "\u03b2-Cycloamylose", "Cyclomaltoheptaose", "\u03b2-Cycloheptaamylose", "Schardinger \u03b2-dextrin", "\u03b2-Dextrin", "Stereoisomer of 5,10,15,20,25,30,35-heptakis(hydroxymethyl)-2,4,7,9,12,14,17,19,22,24,27,29,32,34-tetradecaoxaoctacyclo[31.2.2.23,6.28,11.213,16.218,21.223,26.228,31]nonatetracontane-36,37,38,39,40,41,42,43,44,45,46,47,48,49-tetradecol", "NSC 314334", "Celdex N", "Ringdex B", "Ringdex BL", "Rhodocap N", "Betadex", "Kleptose", "Kleptose B", "Celdex B 100", "Cavamax W 7", "BW 7", "NSC 269471", "BW 7 (polysaccharide)", "Cyclodextrin Beta W 7M1.8", "Celdex B 100z", "Cibatex OC-CLD", "Rindex B", "Celdex B 100H", "Dexy Pearl 100", "CAVAMAX W7 Pharma", "Cavamax W 7 Food", "Cawatex W 7", "CYL 3190", "B 100H", "Cavatex W 7", "Dexipar \u03b2-100", "HP-\u03b2-CD", "VTS 270", "Kleptose STD", "BCD", "Adrabetadex", "Cavitron W7 HP5", "Cavitron W7 HP7", "Trappsol Cyclo", "HRBS-Q 009", "VAR 200"], "SMILES": "C(O)C1C2C(O)C(O)C(O1)OC3C(CO)OC(C(O)C3O)OC4C(CO)OC(C(O)C4O)OC5C(CO)OC(OC6C(O)C(O)C(OC7C(O)C(O)C(OC8C(O)C(O)C(O2)OC8CO)OC7CO)OC6CO)C(O)C5O", "physical_data": {"Molecular Weight": "1134.98", "Molecular Formula": "C42H70O35", "Melting Point": "293-294 \u00b0C (decomp)"}}