{"cas_no": "75887-54-6", "cn_name": "\u84bf\u4e59\u919a", "en_name": ["Arteether", "3,12-Epoxy-12H-pyrano[4,3-j]-1,2-benzodioxepin, 10-ethoxydecahydro-3,6,9-trimethyl-, (3R,5aS,6R,8aS,9R,10S,12R,12aR)-", "3,12-Epoxy-12H-pyrano[4,3-j]-1,2-benzodioxepin, 10-ethoxydecahydro-3,6,9-trimethyl-, [3R-(3\u03b1,5a\u03b2,6\u03b2,8a\u03b2,9\u03b1,10\u03b1,12\u03b2,12aR*)]-", "(3R,5aS,6R,8aS,9R,10S,12R,12aR)-10-Ethoxydecahydro-3,6,9-trimethyl-3,12-epoxy-12H-pyrano[4,3-j]-1,2-benzodioxepin", "SM 227", "Arteether", "\u03b2-Arteether", "Artemotil", "Dihydroqinghaosu ethyl ether", "Dihydroartemisinin ethyl ether", "NSC 665971", "\u03b2-Dihydroartemisinin ethyl ether", "(+)-Arteether"], "SMILES": "CC1C2C34C(OC1OCC)OC(C)(OO3)CCC4C(C)CC2", "physical_data": {"Molecular Weight": "312.40", "Molecular Formula": "C17H28O5", "Melting Point": "80-82 \u00b0C"}}