{"cas_no": "7588-36-5", "cn_name": "5-\u7532\u6c27\u57fa-2-\u7532\u57fa-3-\u5432\u54da\u4e59\u9178\u7532\u916f", "en_name": ["5-Methoxy-2-methylindole-3-acetic acid methyl ester", "1H-Indole-3-acetic acid, 5-methoxy-2-methyl-, methyl ester", "Indole-3-acetic acid, 5-methoxy-2-methyl-, methyl ester", "Methyl 5-methoxy-2-methylindole-3-acetate", "5-Methoxy-2-methylindole-3-acetic acid methyl ester", "Methyl 2-(5-methoxy-2-methyl-1H-indol-3-yl)acetate"], "SMILES": "C(C(OC)=O)C=1C=2C(NC1C)=CC=C(OC)C2", "physical_data": {"Molecular Weight": "233.26", "Molecular Formula": "C13H15NO3", "Melting Point": "54-56 \u00b0C"}}