{"cas_no": "7589-27-7", "cn_name": "\u5bf9\u6c1f\u82ef\u4e59\u9187", "en_name": ["4-Fluorobenzeneethanol", "Benzeneethanol, 4-fluoro-", "Phenethyl alcohol, p-fluoro-", "4-Fluorobenzeneethanol", "p-Fluorophenethyl alcohol", "2-(4-Fluorophenyl)ethanol", "4-Fluorophenethyl alcohol", "2-(4-Fluorophenyl)ethyl alcohol", "2-(4-Fluorophenyl)ethan-1-ol"], "SMILES": "C(CO)C1=CC=C(F)C=C1", "physical_data": {"Molecular Weight": "140.15", "Molecular Formula": "C8H9FO", "Boiling Point": "117-118 \u00b0C @ Press: 20 Torr", "Density": "1.137 g/cm\u00b3 @ Temp: 20 \u00b0C"}}