{"cas_no": "759-24-0", "cn_name": "\u53d4\u4e01\u57fa\u4e19\u4e8c\u9178\u4e8c\u4e59\u916f", "en_name": ["1,3-Diethyl 2-(1,1-dimethylethyl)propanedioate", "Propanedioic acid, 2-(1,1-dimethylethyl)-, 1,3-diethyl ester", "Malonic acid, tert-butyl-, diethyl ester", "Propanedioic acid, (1,1-dimethylethyl)-, diethyl ester", "1,3-Diethyl 2-(1,1-dimethylethyl)propanedioate", "Diethyl (1,1-dimethylethyl)propanedioate", "tert-Butylmalonic acid diethyl ester", "Diethyl tert-butylmalonate", "Diethyl tert-butylmalonate", "NSC 5178", "1,3-Diethyl 2-tert-butylpropanedioate"], "SMILES": "C(C(OCC)=O)(C(OCC)=O)C(C)(C)C", "physical_data": {"Molecular Weight": "216.27", "Molecular Formula": "C11H20O4", "Boiling Point": "102-104 \u00b0C @ Press: 11 Torr"}}