{"cas_no": "759-65-9", "cn_name": "\u8349\u9170\u4e19\u9178\u4e8c\u4e59\u916f", "en_name": ["1,4-Diethyl 2-methyl-3-oxobutanedioate", "Butanedioic acid, 2-methyl-3-oxo-, 1,4-diethyl ester", "Oxalacetic acid, methyl-, diethyl ester", "Butanedioic acid, methyloxo-, diethyl ester", "1,4-Diethyl 2-methyl-3-oxobutanedioate", "Diethyl 3-methyl-2-oxosuccinate", "Ethyl \u03b1-ethoxalylpropionate", "Diethyl 2-methyl-3-oxosuccinate", "Diethyl oxalopropionate", "Diethyl 2-oxo-3-methylsuccinate", "Diethyl 2-methyl-3-oxo-1,4-butanedioate", "Diethyl methyloxalacetate", "NSC 33946", "2-Methyl-3-(oxo)succinic acid diethyl ester", "Diethyl 2-methyl-3-oxobutanedioate"], "SMILES": "C(C(C(OCC)=O)=O)(C(OCC)=O)C", "physical_data": {"Molecular Weight": "202.20", "Molecular Formula": "C9H14O5", "Boiling Point": "116-119 \u00b0C @ Press: 12 Torr"}}