{"cas_no": "759-05-7", "cn_name": "3-\u7532\u57fa-2-\u6c27\u4e01\u9178", "en_name": ["3-Methyl-2-oxobutanoic acid", "Butanoic acid, 3-methyl-2-oxo-", "Butyric acid, 3-methyl-2-oxo-", "3-Methyl-2-oxobutanoic acid", "\u03b1-Ketoisovaleric acid", "2-Ketoisovaleric acid", "\u03b1-Oxoisovaleric acid", "2-Oxoisovaleric acid", "Dimethylpyruvic acid", "\u03b1-Oxo-\u03b2-methylbutyric acid", "2-Oxo-3-methylbutanoic acid", "2-Oxo-3-methylbutyric acid", "\u03b1-keto-\u03b2-Methylbutyric acid", "\u03b1-keto-Isovaleric acid", "3-Methyl-2-oxobutyric acid", "Ketovaline", "3-Methyl-2-oxobutyrate", "Isopropylglyoxylic acid", "2-keto-3-Methylbutyric acid", "2-keto-Isovaleric acid"], "SMILES": "C(C(C)C)(C(O)=O)=O", "physical_data": {"Molecular Weight": "116.12", "Molecular Formula": "C5H8O3", "Boiling Point": "170.5 \u00b0C", "Melting Point": "31.5 \u00b0C"}}