{"cas_no": "759-36-4", "cn_name": "\u5f02\u4e19\u57fa\u4e19\u4e8c\u9178\u4e8c\u4e59\u916f", "en_name": ["1,3-Diethyl 2-(1-methylethyl)propanedioate", "Propanedioic acid, 2-(1-methylethyl)-, 1,3-diethyl ester", "Malonic acid, isopropyl-, diethyl ester", "Propanedioic acid, (1-methylethyl)-, diethyl ester", "1,3-Diethyl 2-(1-methylethyl)propanedioate", "Diethyl isopropylmalonate", "Ethyl isopropylmalonate", "Diethyl 2-isopropylmalonate", "Diethyl 2-(1-methylethyl)propanedioate", "(1-Methylethyl)propanedioic acid diethyl ester", "NSC 1007", "Isopropylmalonic acid diethyl ester", "1,3-Diethyl 2-(propan-2-yl)propanedioate", "Diethyl 2-isopropylpropanedioate"], "SMILES": "C(C(OCC)=O)(C(OCC)=O)C(C)C", "physical_data": {"Molecular Weight": "202.25", "Molecular Formula": "C10H18O4", "Boiling Point": "215 \u00b0C"}}