{"cas_no": "759-73-9", "cn_name": "N-\u4e9a\u785d\u57fa-N-\u4e59\u57fa\u8132", "en_name": ["N-Ethyl-N-nitrosourea", "Urea, N-ethyl-N-nitroso-", "Urea, 1-ethyl-1-nitroso-", "N-Ethyl-N-nitrosourea", "N-Nitroso-N-ethylurea", "1-Ethyl-1-nitrosourea", "NSC 45403", "ENU"], "SMILES": "N(C(N)=O)(CC)N=O", "physical_data": {"Molecular Weight": "117.11", "Molecular Formula": "C3H7N3O2", "Melting Point": "103-104 \u00b0C (decomp)"}}