{"cas_no": "759-94-4", "cn_name": "\u8335\u8349\u654c", "en_name": ["S-Ethyl dipropylthiocarbamate", "Carbamothioic acid, N,N-dipropyl-, S-ethyl ester", "Carbamic acid, dipropylthio-, S-ethyl ester", "Carbamothioic acid, dipropyl-, S-ethyl ester", "R 1608", "Eptam", "S-Ethyl dipropylthiocarbamate", "Stauffer R 1608", "EPTC (herbicide)", "FDA 1541", "Eptam 6E", "Torbin", "Niptan", "Alirox", "EPTC", "NSC 40486"], "SMILES": "N(C(SCC)=O)(CCC)CCC", "physical_data": {"Molecular Weight": "189.32", "Molecular Formula": "C9H19NOS", "Boiling Point": "232 \u00b0C", "Melting Point": "&lt;25 \u00b0C", "Density": "0.955 g/cm\u00b3 @ Temp: 30 \u00b0C"}}