{"cas_no": "75903-62-7", "cn_name": "4-\u6c28\u57fa\u5421\u5576-3-\u78fa\u9170\u80fa", "en_name": ["4-Amino-3-pyridinesulfonamide", "3-Pyridinesulfonamide, 4-amino-", "4-Amino-3-pyridinesulfonamide", "4-Amino-3-pyridylsulfonamide", "4-Aminopyridine-3-sulfonic acid amide"], "SMILES": "S(N)(=O)(=O)C=1C(N)=CC=NC1", "physical_data": {"Molecular Weight": "173.19", "Molecular Formula": "C5H7N3O2S", "Melting Point": "213-215 \u00b0C"}}