{"cas_no": "7597-18-4", "cn_name": "6-\u785d\u57fa\u5432\u5511", "en_name": ["6-Nitroindazole", "1H-Indazole, 6-nitro-", "Indazole, 6-nitro-", "6-Nitro-1H-indazole", "6-Nitroindazole", "6-Nitroisoindazole", "NSC 35066", "NSC 56816"], "SMILES": "N(=O)(=O)C=1C=C2C(=CC1)C=NN2", "physical_data": {"Molecular Weight": "163.13", "Molecular Formula": "C7H5N3O2", "Melting Point": "181 \u00b0C"}}