{"cas_no": "7597-60-6", "cn_name": "6-\u6c28\u57fa-5-\u7532\u9170\u6c28\u57fa-1,3-\u4e8c\u7532\u57fa\u5c3f\u5627\u5576", "en_name": ["N-(6-Amino-1,2,3,4-tetrahydro-1,3-dimethyl-2,4-dioxo-5-pyrimidinyl)formamide", "Formamide, N-(6-amino-1,2,3,4-tetrahydro-1,3-dimethyl-2,4-dioxo-5-pyrimidinyl)-", "Uracil, 6-amino-5-formamido-1,3-dimethyl-", "N-(6-Amino-1,2,3,4-tetrahydro-1,3-dimethyl-2,4-dioxo-5-pyrimidinyl)formamide", "1,3-Dimethyl-4-amino-5-(formylamino)uracil", "6-Amino-1,3-dimethyl-5-(formylamino)pyrimidine-2,4-dione", "NSC 42307"], "SMILES": "N(C=O)C1=C(N)N(C)C(=O)N(C)C1=O", "physical_data": {"Molecular Weight": "198.18", "Molecular Formula": "C7H10N4O3", "Melting Point": "250-258 \u00b0C"}}