{"cas_no": "7598-61-0", "cn_name": "2,2-\u4e8c\u4e59\u6c27\u57fa\u4e59\u57fa\u78f7\u9178\u4e8c\u4e59\u916f", "en_name": ["Diethyl P-(2,2-diethoxyethyl)phosphonate", "Phosphonic acid, P-(2,2-diethoxyethyl)-, diethyl ester", "Phosphonic acid, (formylmethyl)-, diethyl ester, diethyl acetal", "Phosphonic acid, (2,2-diethoxyethyl)-, diethyl ester", "Diethyl P-(2,2-diethoxyethyl)phosphonate", "Diethylphosphonoacetaldehyde diethyl acetal", "Diethyl (2,2-diethoxyethyl)phosphonate", "NSC 407851", "NSC 77101", "2-Diethoxyphosphoryl-1,1-diethoxyethane"], "SMILES": "P(CC(OCC)OCC)(OCC)(OCC)=O", "physical_data": {"Molecular Weight": "254.26", "Molecular Formula": "C10H23O5P", "Boiling Point": "146-149 \u00b0C", "Density": "1.0515 g/cm\u00b3 @ Temp: 20 \u00b0C"}}