{"cas_no": "7598-80-3", "cn_name": "\u8054\u82ef\u82c4\u5511\u6742\u8d28A", "en_name": ["\u03b1-Phenyl[1,1\u2032-biphenyl]-4-methanol", "[1,1\u2032-Biphenyl]-4-methanol, \u03b1-phenyl-", "Benzhydrol, 4-phenyl-", "\u03b1-Phenyl[1,1\u2032-biphenyl]-4-methanol", "4-Phenylbenzhydrol", "\u03b1-Phenyl-4-biphenylmethanol", "p-Phenylbenzhydrol", "4-Biphenylylphenylcarbinol", "NSC 16333", "Biphenyl-4-yl phenyl methanol", "[1,1\u2032-Biphenyl]-4-yl(phenyl)methanol"], "SMILES": "C(O)(C1=CC=C(C=C1)C2=CC=CC=C2)C3=CC=CC=C3", "physical_data": {"Molecular Weight": "260.33", "Molecular Formula": "C19H16O", "Boiling Point": "258-260 \u00b0C @ Press: 17 Torr", "Melting Point": "95-96 \u00b0C"}}