{"cas_no": "7598-91-6", "cn_name": "5-\u7f9f\u57fa-2-\u7532\u57fa\u5432\u54da-3-\u7fa7\u9178\u4e59\u916f", "en_name": ["Ethyl 5-hydroxy-2-methylindole-3-carboxylate", "1H-Indole-3-carboxylic acid, 5-hydroxy-2-methyl-, ethyl ester", "Indole-3-carboxylic acid, 5-hydroxy-2-methyl-, ethyl ester", "3-Ethoxycarbonyl-5-hydroxy-2-methylindole", "3-(Ethoxycarbonyl)-2-methyl-5-hydroxyindole", "Ethyl 5-hydroxy-2-methyl-1H-indole-3-carboxylate", "Ethyl 5-hydroxy-2-methylindole-3-carboxylate", "NSC 405600", "5-Hydroxy-2-methyl-1H-indole-3-carboxylic acid ethyl ester", "2-Methyl-3-carbethoxy-5-hydroxyindole"], "SMILES": "C(OCC)(=O)C=1C=2C(NC1C)=CC=C(O)C2", "physical_data": {"Molecular Weight": "219.24", "Molecular Formula": "C12H13NO3", "Melting Point": "205 \u00b0C"}}