{"cas_no": "75980-60-8", "cn_name": "\u5149\u5f15\u53d1\u5242TPO", "en_name": ["(2,4,6-Trimethylbenzoyl)diphenylphosphine oxide", "Methanone, (diphenylphosphinyl)(2,4,6-trimethylphenyl)-", "Phosphine oxide, diphenyl(2,4,6-trimethylbenzoyl)-", "(Diphenylphosphinyl)(2,4,6-trimethylphenyl)methanone", "Lucirin LR 8728", "Diphenyl(2,4,6-trimethylbenzoyl)phosphine oxide", "(2,4,6-Trimethylbenzoyl)diphenylphosphine oxide", "Lucirin LR 8893", "Lucirin 8893X", "Chivacure TPO", "Irgacure TPO", "Photocure TPO", "Darocur TPO", "Speedcure TPO", "L-TPO", "Lucirin TPO Solid", "Lucirin TPO-X", "TPO-X", "Genocure TPO", "Lucirin TPO", "Lucirin LR 8953", "TPO", "Esacure TPO", "D-TPO", "UV-Cure APO", "Lucirin LR 8953X", "Doublecure TPO", "Chemcure TPO", "DCTPO", "TPO 173", "Genocure LTM", "D 3358", "Micure TPO", "Additol TPO", "Ciba TPO", "Irganox 819", "Omnirad TPO", "JRCure 1108", "I-TPO", "Diphenyl (2,4,6-trimethylbenzoyl)phosphine oxide", "IHT-PI TPO", "Photoinitiator TPO", "JRcure TPO", "Genocure TPO-L", "Lunacure TPO", "IGR 819", "Omnirad TPO-H", "Ryoji TPO", "2,4,6-(Trimethylbenzoyl)diphenylphosphorus oxide", "(Diphenylphosphoryl)(mesityl)methanone", "SB-PI 718", "LR 8953", "Gencure TPO", "OR TPO-H", "UV-Cure TPO", "Daido UV-Cure TPO", "IGM TPO", "TPO-H", "Kaiji 3033A", "3033A", "Omnirad TPO-G", "Chemark TPO"], "SMILES": "P(C(=O)C1=C(C)C=C(C)C=C1C)(=O)(C2=CC=CC=C2)C3=CC=CC=C3", "physical_data": {"Molecular Weight": "348.37", "Molecular Formula": "C22H21O2P", "Melting Point": "87-89 \u00b0C"}}