{"cas_no": "76-06-2", "cn_name": "\u6c2f\u5316\u82e6", "en_name": ["Chloropicrin", "Methane, trichloronitro-", "Trichloronitromethane", "G 25", "Acquinite", "Larvacide", "Microlysin", "Nitrochloroform", "Nitrotrichloromethane", "Picfume", "PS", "Chloropicrin", "Chlorpicrin", "NSC 8743", "Quasar", "Chlor-O-Pic"], "SMILES": "C(N(=O)=O)(Cl)(Cl)Cl", "physical_data": {"Molecular Weight": "164.38", "Molecular Formula": "CCl3NO2", "Boiling Point": "112 \u00b0C @ Press: 757 Torr", "Melting Point": "-64 \u00b0C", "Density": "1.6558 g/cm\u00b3 @ Temp: 20 \u00b0C"}}