{"cas_no": "76-09-5", "cn_name": "\u9891\u54ea\u9187", "en_name": ["Pinacol", "2,3-Butanediol, 2,3-dimethyl-", "2,3-Dimethyl-2,3-butanediol", "Pinacol", "Pinacone", "Tetramethylethylene glycol", "2,3-Dihydroxy-2,3-dimethylbutane", "2,3-Dimethyl-2,3-dihydroxybutane", "1,1,2,2-Tetramethylethylene glycol", "NSC 25943", "1,1,2,2-Tetramethylethane-1,2-diol"], "SMILES": "C(C(C)(C)O)(C)(C)O", "physical_data": {"Molecular Weight": "118.17", "Molecular Formula": "C6H14O2", "Boiling Point": "174.4 \u00b0C", "Melting Point": "43 \u00b0C"}}