{"cas_no": "76-03-9", "cn_name": "\u4e09\u6c2f\u4e59\u9178", "en_name": ["Trichloroacetic acid", "Acetic acid, 2,2,2-trichloro-", "Acetic acid, trichloro-", "2,2,2-Trichloroacetic acid", "Aceto-Caustin", "Amchem Grass Killer", "TCA (acid)", "Trichloracetic acid", "Trichloroacetic acid", "Trichloroethanoic acid", "TKhUK", "TKhU", "TCA", "NSC 215204", "NSC 77363", "TCAA", "MeSH ID: D014238"], "SMILES": "C(C(O)=O)(Cl)(Cl)Cl", "physical_data": {"Molecular Weight": "163.39", "Molecular Formula": "C2HCl3O2", "Boiling Point": "195.5 \u00b0C", "Melting Point": "57.5 \u00b0C", "Density": "1.6126 g/cm\u00b3 @ Temp: 64 \u00b0C"}}