{"cas_no": "76-01-7", "cn_name": "\u4e94\u6c2f\u4e59\u70f7", "en_name": ["Pentachloroethane", "Ethane, 1,1,1,2,2-pentachloro-", "Ethane, pentachloro-", "1,1,1,2,2-Pentachloroethane", "Pentachloroethane", "Pentalin", "HCC 120"], "SMILES": "C(C(Cl)Cl)(Cl)(Cl)Cl", "physical_data": {"Molecular Weight": "202.29", "Molecular Formula": "C2HCl5", "Boiling Point": "159.8 \u00b0C", "Melting Point": "-29 \u00b0C", "Density": "1.6796 g/cm\u00b3 @ Temp: 20 \u00b0C"}}