{"cas_no": "76-02-8", "cn_name": "\u4e09\u6c2f\u4e59\u9170\u6c2f", "en_name": ["2,2,2-Trichloroacetyl chloride", "Acetyl chloride, 2,2,2-trichloro-", "Acetyl chloride, trichloro-", "2,2,2-Trichloroacetyl chloride", "Trichloroacetyl chloride", "Trichloroacetochloride", "Trichloroacetic acid chloride", "NSC 190466"], "SMILES": "C(C(Cl)=O)(Cl)(Cl)Cl", "physical_data": {"Molecular Weight": "181.83", "Molecular Formula": "C2Cl4O", "Boiling Point": "117.9 \u00b0C", "Melting Point": "-31.8 \u00b0C", "Density": "1.6202 g/cm\u00b3 @ Temp: 20 \u00b0C"}}