{"cas_no": "76-05-1", "cn_name": "\u4e09\u6c1f\u4e59\u9178", "en_name": ["Trifluoroacetic acid", "Acetic acid, 2,2,2-trifluoro-", "Acetic acid, trifluoro-", "2,2,2-Trifluoroacetic acid", "Trifluoroacetic acid", "Perfluoroacetic acid", "Trifluoroethanoic acid", "TFA", "NSC 77366", "MeSH ID: D014269"], "SMILES": "C(C(O)=O)(F)(F)F", "physical_data": {"Molecular Weight": "114.02", "Molecular Formula": "C2HF3O2", "Boiling Point": "73 \u00b0C", "Melting Point": "-15.2 \u00b0C", "Density": "1.489 g/cm\u00b3 @ Temp: 20 \u00b0C"}}