{"cas_no": "76-04-0", "cn_name": "\u4e8c\u6c1f\u6c2f\u4e59\u9178", "en_name": ["Chlorodifluoroacetic acid", "Acetic acid, 2-chloro-2,2-difluoro-", "Acetic acid, chlorodifluoro-", "2-Chloro-2,2-difluoroacetic acid", "Chlorodifluoroacetic acid", "Monochlorodifluoroacetic acid", "NSC 60298", "2,2-Difluoro-2-chloroacetic acid"], "SMILES": "C(C(O)=O)(Cl)(F)F", "physical_data": {"Molecular Weight": "130.48", "Molecular Formula": "C2HClF2O2", "Boiling Point": "122 \u00b0C", "Melting Point": "25 \u00b0C"}}