{"cas_no": "76-16-4", "cn_name": "\u516d\u6c1f\u4e59\u70f7", "en_name": ["Hexafluoroethane", "Ethane, 1,1,1,2,2,2-hexafluoro-", "Ethane, hexafluoro-", "1,1,1,2,2,2-Hexafluoroethane", "F 116", "Freon 116", "Hexafluoroethane", "Perfluoroethane", "R 116", "Ethyl hexafluoride", "Perfluorocarbon 116", "PFC 116", "FC 1160", "FC 116", "F 116 (fluorocarbon)", "HFC 116", "CFC 116"], "SMILES": "C(C(F)(F)F)(F)(F)F", "physical_data": {"Molecular Weight": "138.01", "Molecular Formula": "C2F6", "Boiling Point": "-78.1 \u00b0C", "Melting Point": "-100.7 \u00b0C", "Density": "1.85 g/cm\u00b3 @ Temp: -192 \u00b0C"}}