{"cas_no": "76-14-2", "cn_name": "1,2-\u4e8c\u6c2f\u56db\u6c1f\u4e59\u70f7", "en_name": ["CFC 114", "Ethane, 1,2-dichloro-1,1,2,2-tetrafluoro-", "Ethane, 1,2-dichlorotetrafluoro-", "1,2-Dichloro-1,1,2,2-tetrafluoroethane", "F 114 (halocarbon)", "Ucon 114", "Arcton 33", "Cryofluorane", "sym-Dichlorotetrafluoroethane", "1,2-Dichlorotetrafluoroethane", "Frigen 114", "Genetron 114", "1,1,2,2-Tetrafluoro-1,2-dichloroethane", "Freon 114", "Ledon 114", "1,2-Dichloroperfluoroethane", "Fluorocarbon 114", "R 114 (halocarbon)", "FC 114", "Propellant 114", "Frigiderm", "Genetron 316", "Cryofluoran", "Arcton 114", "Refrigerant 114", "CFC 114", "F 114", "FKW 114", "Fron 114", "R 114", "Dichloro-1,1,2,2-tetrafluoroethane"], "SMILES": "C(C(Cl)(F)F)(Cl)(F)F", "physical_data": {"Molecular Weight": "170.92", "Molecular Formula": "C2Cl2F4", "Boiling Point": "3.8 \u00b0C @ Press: 760 Torr", "Melting Point": "-94 \u00b0C", "Density": "1.455 g/cm\u00b3 @ Temp: 25 \u00b0C"}}