{"cas_no": "76-12-0", "cn_name": "1,2-\u4e8c\u6c1f\u56db\u6c2f\u4e59\u70f7", "en_name": ["Tetrachloro-1,2-difluoroethane", "Ethane, 1,1,2,2-tetrachloro-1,2-difluoro-", "1,1,2,2-Tetrachloro-1,2-difluoroethane", "F 112", "Freon 112", "1,2-Difluoro-1,1,2,2-tetrachloroethane", "Genetron 112", "1,1,2,2-Tetrachlorodifluoroethane", "1,2-Difluorotetrachloroethane", "sym-Tetrachlorodifluoroethane", "Ucon 112", "Tetrachloro-1,2-difluoroethane", "FC 112", "Daiflon S 2", "Daiflon 112", "R 112", "CFC 112", "Fron 112", "CFC 122"], "SMILES": "C(C(Cl)(Cl)F)(Cl)(Cl)F", "physical_data": {"Molecular Weight": "203.83", "Molecular Formula": "C2Cl4F2", "Boiling Point": "93 \u00b0C", "Melting Point": "26 \u00b0C", "Density": "1.6447 g/cm\u00b3 @ Temp: 25 \u00b0C"}}