{"cas_no": "76-15-3", "cn_name": "\u4e94\u6c1f\u6c2f\u4e59\u70f7", "en_name": ["1-Chloro-1,1,2,2,2-pentafluoroethane", "Ethane, 1-chloro-1,1,2,2,2-pentafluoro-", "Ethane, chloropentafluoro-", "1-Chloro-1,1,2,2,2-pentafluoroethane", "F 115", "Freon 115", "Genetron 115", "R 115", "Chloroperfluoroethane", "Pentafluorochloroethane", "FC 115", "Propellant 115", "Fluorocarbon 115", "Monochloropentafluoroethane", "Perfluoroethyl chloride", "1-Chloropentafluoroethane", "Pentafluoroethyl chloride", "CFC 115", "FKW 115", "Refrigerant R115"], "SMILES": "C(C(F)(F)F)(Cl)(F)F", "physical_data": {"Molecular Weight": "154.47", "Molecular Formula": "C2ClF5", "Boiling Point": "-37.7 \u00b0C @ Press: 760 Torr", "Melting Point": "-106 \u00b0C", "Density": "1.3 g/cm\u00b3"}}