{"cas_no": "76-13-1", "cn_name": "1,1,2-\u4e09\u6c1f\u4e09\u6c2f\u4e59\u70f7", "en_name": ["CFC 113", "Ethane, 1,1,2-trichloro-1,2,2-trifluoro-", "1,1,2-Trichloro-1,2,2-trifluoroethane", "Arklone P", "Freon TF", "Freon 113", "Genetron 113", "1,1,2-Trifluorotrichloroethane", "1,1,2-Trifluoro-1,2,2-trichloroethane", "F 113", "Fluorocarbon 113", "1,1,2-Trichlorotrifluoroethane", "FC 113", "R 113 (halocarbon)", "Forane 113", "Frigen 113TR", "Frigen 113TR-T", "Frigen 113TR-N", "1,2,2-Trichlorotrifluoroethane", "Freon 113TR-T", "Frigen 113", "Frigen 113A", "Khladon 113", "Daiflon S 3", "Isceon 113", "Refrigerant R 113", "R 113", "Ledon 113", "Asahifron 113", "Refrigerant 113", "CFC 113", "Fronsolve 113", "FKW 113", "Daiflon 113", "Fron 113", "P 113", "Fridohna", "Fronsolve AD 9", "Freon TS", "Delifrene 113", "Delifrene LS", "F 113 (refrigerant)", "Arcton 113", "Halon 113", "Chlorofluorocarbon 113", "Hladon 113", "A 113"], "SMILES": "C(C(Cl)(F)F)(Cl)(Cl)F", "physical_data": {"Molecular Weight": "187.38", "Molecular Formula": "C2Cl3F3", "Boiling Point": "47.7 \u00b0C", "Melting Point": "-35 \u00b0C", "Density": "1.5635 g/cm\u00b3 @ Temp: 25 \u00b0C"}}