{"cas_no": "76-19-7", "cn_name": "\u516b\u6c1f\u4e19\u70f7", "en_name": ["Perfluoropropane", "Propane, 1,1,1,2,2,3,3,3-octafluoro-", "Propane, octafluoro-", "1,1,1,2,2,3,3,3-Octafluoropropane", "Octafluoropropane", "Freon 218", "Perfluoropropane", "Genetron 218", "R 218", "FC 218", "FC 218 (refrigerant)", "HFC 218", "FS 069", "PFC 218", "Perflutren", "Definity", "Optison", "Meforex 218", "DMP 115", "MRX 115", "UN 2424", "F 218", "MRH 815H", "YM 454", "Khladon 218"], "SMILES": "C(C(F)(F)F)(C(F)(F)F)(F)F", "physical_data": {"Molecular Weight": "188.02", "Molecular Formula": "C3F8", "Boiling Point": "-36.6 \u00b0C", "Melting Point": "-147.6 \u00b0C"}}