{"cas_no": "76-29-9", "cn_name": "3-\u6eb4-1,7,7-\u4e09\u7532\u57fa\u4e8c\u73af[2.2.1]\u5e9a\u70f7-2-\u916e", "en_name": ["3-Bromocamphor", "Bicyclo[2.2.1]heptan-2-one, 3-bromo-1,7,7-trimethyl-", "2-Bornanone, 3-bromo-", "Camphor, 3-bromo-", "3-Bromo-1,7,7-trimethylbicyclo[2.2.1]heptan-2-one", "3-Bromocamphor", "Camphor bromide", "NSC 26355"], "SMILES": "CC12C(C)(C)C(C(Br)C1=O)CC2", "physical_data": {"Molecular Weight": "231.13", "Molecular Formula": "C10H15BrO", "Boiling Point": "274 \u00b0C", "Melting Point": "77 \u00b0C", "Density": "1.484 g/cm\u00b3 @ Temp: 14 \u00b0C"}}