{"cas_no": "76-21-1", "cn_name": "9H-\u5341\u516d\u6c1f\u58ec\u9178", "en_name": ["2,2,3,3,4,4,5,5,6,6,7,7,8,8,9,9-Hexadecafluorononanoic acid", "Nonanoic acid, 2,2,3,3,4,4,5,5,6,6,7,7,8,8,9,9-hexadecafluoro-", "2,2,3,3,4,4,5,5,6,6,7,7,8,8,9,9-Hexadecafluorononanoic acid", "9-H-Hexadecafluorononanoic acid", "C 5800"], "SMILES": "C(C(C(C(C(F)F)(F)F)(F)F)(F)F)(C(C(C(C(O)=O)(F)F)(F)F)(F)F)(F)F", "physical_data": {"Molecular Weight": "446.09", "Molecular Formula": "C9H2F16O2", "Boiling Point": "220-230 \u00b0C", "Melting Point": "62-68 \u00b0C"}}