{"cas_no": "76-24-4", "cn_name": "\u53cc\u963f\u8132", "en_name": ["Alloxantin", "[5,5\u2032-Bipyrimidine]-2,2\u2032,4,4\u2032,6,6\u2032(1H,1\u2032H,3H,3\u2032H,5H,5\u2032H)-hexone, 5,5\u2032-dihydroxy-", "5,5\u2032-Bibarbituric acid, 5,5\u2032-dihydroxy-", "Alloxantin", "5,5\u2032-Dihydroxy[5,5\u2032-bipyrimidine]-2,2\u2032,4,4\u2032,6,6\u2032(1H,1\u2032H,3H,3\u2032H,5H,5\u2032H)-hexone", "Uroxin", "Uroxine", "NSC 118963", "NSC 7634"], "SMILES": "OC1(C(=O)NC(=O)NC1=O)C2(O)C(=O)NC(=O)NC2=O", "physical_data": {"Molecular Weight": "286.16", "Molecular Formula": "C8H6N4O8", "Melting Point": "254 \u00b0C (decomp)"}}