{"cas_no": "76-25-5", "cn_name": "\u66f2\u5b89\u5948\u5fb7", "en_name": ["Triamcinolone acetonide", "Pregna-1,4-diene-3,20-dione, 9-fluoro-11,21-dihydroxy-16,17-[(1-methylethylidene)bis(oxy)]-, (11\u03b2,16\u03b1)-", "Pregna-1,4-diene-3,20-dione, 9-fluoro-11\u03b2,16\u03b1,17,21-tetrahydroxy-, cyclic 16,17-acetal with acetone", "(11\u03b2,16\u03b1)-9-Fluoro-11,21-dihydroxy-16,17-[(1-methylethylidene)bis(oxy)]pregna-1,4-diene-3,20-dione", "Aristocort acetonide", "Aristoderm", "9\u03b1-Fluoro-11\u03b2,21-dihydroxy-16\u03b1,17\u03b1-isopropylidenedioxy-1,4-pregnadiene-3,20-dione", "9\u03b1-Fluoro-16\u03b1-hydroxyprednisolone 16\u03b1,17\u03b1-acetonide", "Kenalog", "Triamcinolone acetonide", "Triamcinolone 16,17-acetonide", "Paralen", "Kenacort A", "9-Fluoro-11\u03b2,16\u03b1,17,21-tetrahydroxypregna-1,4-diene-3,20-dione-16,17-acetonide", "9-Fluoro-11\u03b2,21-dihydroxy-16\u03b1,17-(isopropylidenedioxy)pregna-1,4-diene-3,20-dione", "9-Fluoro-11\u03b2,21-dihydroxy-16\u03b1,17\u03b1-(isopropylidenedioxy)pregna-1,4-diene-3,20-dione", "Volon A", "Adcortyl A", "Solodelf", "Vetalog", "Omcilon A", "Queyanshusong A", "Triamcinolone 16\u03b1,17\u03b1-acetonide", "Kenalog 10", "Trianopollon", "Azmacort", "Kenacort 80", "Aftach", "Nasacort", "Triam", "Extracort", "Trymex", "TAC 40", "Tramacin", "Respicort", "Rineton", "TAC 3", "Ftorocort", "Triamonide 40", "Volonimat", "Tricinolon", "Triacet", "Ledercort Cream", "Delphicort", "Adcortyl", "Tri-Nasal", "NSC 21916", "Triamcort-Depot", "Aristocort A", "Kenacort A 40", "Aristicort", "Lichtena", "Triamhexal", "Vetazine", "Kenalog 40", "Tamceton", "Berlicort", "Kenacort 40", "Pol'kortolon", "Triakort", "Trivaris", "Triesence", "I-Vation", "Valon A 10", "MaQuaid", "Rheudenolone", "MeSH ID: D014222"], "SMILES": "C(CO)(=O)C12C3(C)C(CC1OC(C)(C)O2)C4C(F)(C(O)C3)C5(C)C(CC4)=CC(=O)C=C5", "physical_data": {"Molecular Weight": "434.50", "Molecular Formula": "C24H31FO6", "Melting Point": "293 \u00b0C"}}