{"cas_no": "76-38-0", "cn_name": "\u7532\u6c27\u6c1f\u70f7", "en_name": ["Methoxyflurane", "Ethane, 2,2-dichloro-1,1-difluoro-1-methoxy-", "Ether, 2,2-dichloro-1,1-difluoroethyl methyl", "2,2-Dichloro-1,1-difluoro-1-methoxyethane", "2,2-Dichloro-1,1-difluoroethyl methyl ether", "1,1-Dichloro-2,2-difluoro-2-methoxyethane", "Methoxane", "Methoxyfluran", "Methoxyflurane", "Methyl 1,1-difluoro-2,2-dichloroethyl ether", "Penthrane", "Pentrane", "Inhalan", "Metoxfluran", "Metoxifluran", "Pentran", "Analgizer", "Anecotan", "Methoflurane", "Metofane", "NSC 110432", "DA 759", "Penthrox", "MeSH ID: D008733"], "SMILES": "C(C(Cl)Cl)(OC)(F)F", "physical_data": {"Molecular Weight": "164.97", "Molecular Formula": "C3H4Cl2F2O", "Boiling Point": "105 \u00b0C", "Melting Point": "-35 \u00b0C", "Density": "1.4226 g/cm\u00b3 @ Temp: 20 \u00b0C"}}