{"cas_no": "76-37-9", "cn_name": "\u56db\u6c1f\u4e19\u9187", "en_name": ["2,2,3,3-Tetrafluoro-1-propanol", "1-Propanol, 2,2,3,3-tetrafluoro-", "2,2,3,3-Tetrafluoro-1-propanol", "2,2,3,3-Tetrafluoropropyl alcohol", "1,1,3-Trihydroperfluoro-1-propanol", "1,1,2,2-Tetrafluoro-3-hydroxypropane", "2,2,3,3-Tetrafluoropropanol-1", "1H,1H,3H-Tetrafluoro-1-propanol", "\u03b1,\u03b1,\u03c9-Trihydroperfluoropropanol", "1-Hydroxy-2,2,3,3-tetrafluoropropane", "NSC 113", "1H,1H,3H-Perfluoropropanol"], "SMILES": "C(C(F)F)(CO)(F)F", "physical_data": {"Molecular Weight": "132.06", "Molecular Formula": "C3H4F4O", "Boiling Point": "109.5 \u00b0C", "Melting Point": "-15 \u00b0C"}}