{"cas_no": "76-39-1", "cn_name": "2-\u7532\u57fa-2-\u785d\u57fa-1-\u4e19\u9187", "en_name": ["2-Methyl-2-nitro-1-propanol", "1-Propanol, 2-methyl-2-nitro-", "2-Methyl-2-nitro-1-propanol", "2-Nitro-2-methyl-1-propanol", "2-Nitro-2-methylpropanol", "2-Methyl-2-nitropropanol", "NSC 17676"], "SMILES": "C(N(=O)=O)(CO)(C)C", "physical_data": {"Molecular Weight": "119.12", "Molecular Formula": "C4H9NO3", "Boiling Point": "94 \u00b0C", "Melting Point": "89.5 \u00b0C"}}