{"cas_no": "76-43-7", "cn_name": "\u6c1f\u7532\u777e\u916e", "en_name": ["Fluoxymesterone", "Androst-4-en-3-one, 9-fluoro-11,17-dihydroxy-17-methyl-, (11\u03b2,17\u03b2)-", "Androst-4-en-3-one, 9-fluoro-11\u03b2,17\u03b2-dihydroxy-17-methyl-", "(11\u03b2,17\u03b2)-9-Fluoro-11,17-dihydroxy-17-methylandrost-4-en-3-one", "11\u03b2,17\u03b2-Dihydroxy-9\u03b1-fluoro-17\u03b1-methyl-4-androsten-3-one", "9\u03b1-Fluoro-11\u03b2,17\u03b2-dihydroxy-17\u03b1-methylandrost-4-ene-3-one", "9-Fluoro-11\u03b2,17\u03b2-dihydroxy-17-methylandrost-4-en-3-one", "9\u03b1-Fluoro-11\u03b2,17\u03b2-dihydroxy-17\u03b1-methyl-4-androsten-3-one", "9\u03b1-Fluoro-11\u03b2-hydroxy-17-methyltestosterone", "9\u03b1-Fluoro-11\u03b2-hydroxy-17\u03b1-methyltestosterone", "Fluoximesterone", "Fluoxymesterone", "Halotestin", "17\u03b1-Methyl-9\u03b1-fluoro-11\u03b2-hydroxytestosterone", "Ultandren", "Ultandrene", "U 6040", "Androsterolo", "Androfluorene", "Androfluorone", "Fluotestin", "Testoral", "Oratestin", "Ora Testryl", "Oralsterone", "Flusteron", "Flutestos", "Neo-Ormonal", "NSC-12165", "9\u03b1-Fluoro-11\u03b2,17\u03b2-dihydroxy-17-methyl-4-androsten-3-one", "NSC 10704", "MeSH ID: D005474"], "SMILES": "FC12C(C3C(C)(CC1O)C(C)(O)CC3)CCC=4C2(C)CCC(=O)C4", "physical_data": {"Molecular Weight": "336.44", "Molecular Formula": "C20H29FO3", "Melting Point": "270 \u00b0C"}}