{"cas_no": "76-44-8", "cn_name": "\u4e03\u6c2f", "en_name": ["Heptachlor", "4,7-Methano-1H-indene, 1,4,5,6,7,8,8-heptachloro-3a,4,7,7a-tetrahydro-", "4,7-Methanoindene, 1,4,5,6,7,8,8-heptachloro-3a,4,7,7a-tetrahydro-", "1,4,5,6,7,8,8-Heptachloro-3a,4,7,7a-tetrahydro-4,7-methano-1H-indene", "E 3314", "ENT 15,152", "Heptachlor", "1,4,5,6,7,8,8-Heptachloro-3a,4,7,7a-tetrahydro-4,7-methanoindene", "1,4,5,6,7,10,10-Heptachloro-4,7,8,9-tetrahydro-4,7-methyleneindene", "Velsicol 104", "Agroceres", "Heptachlorane", "Rhodiachlor", "3-Chlorochlordene", "1,4,5,6,7,8,8-Heptachloro-3\u03b1,4,7,7\u03b1-tetrahydro-4,7-endo-methanoindene", "Aahepta", "GPKh", "Hepta", "Arbinex 30TN", "Heptox", "NSC 8930", "MeSH ID: D006533"], "SMILES": "ClC12C3C(C(Cl)(C1(Cl)Cl)C(Cl)=C2Cl)C=CC3Cl", "physical_data": {"Molecular Weight": "373.32", "Molecular Formula": "C10H5Cl7", "Boiling Point": "145 \u00b0C @ Press: 1.5 Torr", "Melting Point": "95-96 \u00b0C", "Density": "1.57 g/cm\u00b3 @ Temp: 9 \u00b0C"}}