{"cas_no": "76-49-3", "cn_name": "\u4e59\u9178\u9f99\u8111\u916f", "en_name": ["(\u00b1)-Bornyl acetate", "Bicyclo[2.2.1]heptan-2-ol, 1,7,7-trimethyl-, 2-acetate, (1R,2S,4R)-rel-", "Borneol, acetate", "Bicyclo[2.2.1]heptan-2-ol, 1,7,7-trimethyl-, acetate, endo-", "Bicyclo[2.2.1]heptan-2-ol, 1,7,7-trimethyl-, acetate, (1R,2S,4R)-rel-", "Bornyl acetate", "Bornyl acetic ester", "Bornyl ethanoate", "Borneyl acetate", "endo-Bornyl acetate", "dl-Bornyl acetate", "(\u00b1)-Bornyl acetate"], "SMILES": "CC12C(OC(C)=O)CC(C1(C)C)CC2", "physical_data": {"Molecular Weight": "196.29", "Molecular Formula": "C12H20O2", "Boiling Point": "221 \u00b0C", "Melting Point": "29 \u00b0C", "Density": "0.97715 g/cm\u00b3 @ Temp: 30 \u00b0C"}}