{"cas_no": "76-59-5", "cn_name": "\u6eb4\u767e\u91cc\u915a\u84dd", "en_name": ["Bromothymol blue", "Phenol, 4,4\u2032-(1,1-dioxido-3H-2,1-benzoxathiol-3-ylidene)bis[2-bromo-3-methyl-6-(1-methylethyl)-", "Bromothymol blue", "Thymol, 6,6\u2032-(3H-2,1-benzoxathiol-3-ylidene)bis[2-bromo-, S,S-dioxide", "Phenol, 4,4\u2032-(3H-2,1-benzoxathiol-3-ylidene)bis[2-bromo-3-methyl-6-(1-methylethyl)-, S,S-dioxide", "3H-2,1-Benzoxathiole, phenol deriv.", "4,4\u2032-(1,1-Dioxido-3H-2,1-benzoxathiol-3-ylidene)bis[2-bromo-3-methyl-6-(1-methylethyl)phenol]", "3,3\u2032-Dibromothymolsulfonphthalein", "Dibromothymolsulfophthalein", "Bromthymol blue", "3,3\u2032-Dibromothymolsulfophthalein", "NSC 7819", "Bromothymolsulfonephthalein", "MeSH ID: D001979"], "SMILES": "CC1=C(C2(C=3C(S(=O)(=O)O2)=CC=CC3)C4=C(C)C(Br)=C(O)C(C(C)C)=C4)C=C(C(C)C)C(O)=C1Br", "physical_data": {"Molecular Weight": "624.38", "Molecular Formula": "C27H28Br2O5S", "Melting Point": "201 \u00b0C"}}