{"cas_no": "76-67-5", "cn_name": "\u82ef\u57fa\u4e59\u57fa\u4e19\u4e8c\u9178\u4e8c\u4e59\u916f", "en_name": ["1,3-Diethyl 2-ethyl-2-phenylpropanedioate", "Propanedioic acid, 2-ethyl-2-phenyl-, 1,3-diethyl ester", "Malonic acid, ethylphenyl-, diethyl ester", "Propanedioic acid, ethylphenyl-, diethyl ester", "1,3-Diethyl 2-ethyl-2-phenylpropanedioate", "Diethyl ethylphenylmalonate", "Diethyl 2-ethyl-2-phenylmalonate", "NSC 5631"], "SMILES": "C(C(OCC)=O)(C(OCC)=O)(CC)C1=CC=CC=C1", "physical_data": {"Molecular Weight": "264.32", "Molecular Formula": "C15H20O4", "Boiling Point": "146-150 \u00b0C @ Press: 5-6 Torr", "Melting Point": "-9--7 \u00b0C", "Density": "1.068 g/cm\u00b3 @ Temp: 20 \u00b0C"}}