{"cas_no": "76-62-0", "cn_name": "\u56db\u6eb4\u915a\u915e", "en_name": ["Tetrabromophenolphthalein", "1(3H)-Isobenzofuranone, 3,3-bis(3,5-dibromo-4-hydroxyphenyl)-", "Phenolphthalein, 3\u2032,3\u2032\u2032,5\u2032,5\u2032\u2032-tetrabromo-", "3,3-Bis(3,5-dibromo-4-hydroxyphenyl)-1(3H)-isobenzofuranone", "Tetrabromophenolphthalein", "3\u2032,3\u2032\u2032,5\u2032,5\u2032\u2032-Tetrabromophenolphthalein", "NSC 21261", "A 84568", "3,3-Bis(3,5-dibromo-4-hydroxyphenyl)-2-benzofuran-1-one"], "SMILES": "O=C1OC(C=2C1=CC=CC2)(C3=CC(Br)=C(O)C(Br)=C3)C4=CC(Br)=C(O)C(Br)=C4", "physical_data": {"Molecular Weight": "633.91", "Molecular Formula": "C20H10Br4O4", "Melting Point": "296 \u00b0C"}}