{"cas_no": "76-61-9", "cn_name": "\u767e\u91cc\u915a\u84dd", "en_name": ["Thymol blue", "Phenol, 4,4\u2032-(1,1-dioxido-3H-2,1-benzoxathiol-3-ylidene)bis[5-methyl-2-(1-methylethyl)-", "Thymolsulfonephthalein", "Thymol, 6,6\u2032-(3H-2,1-benzoxathiol-3-ylidene)di-, S,S-dioxide", "Phenol, 4,4\u2032-(3H-2,1-benzoxathiol-3-ylidene)bis[5-methyl-2-(1-methylethyl)-, S,S-dioxide", "3H-2,1-Benzoxathiole, phenol deriv.", "4,4\u2032-(1,1-Dioxido-3H-2,1-benzoxathiol-3-ylidene)bis[5-methyl-2-(1-methylethyl)phenol]", "Thymol blue", "Thymolsulfophthalein", "NSC 11238"], "SMILES": "CC=1C(C2(C=3C(S(=O)(=O)O2)=CC=CC3)C4=CC(C(C)C)=C(O)C=C4C)=CC(C(C)C)=C(O)C1", "physical_data": {"Molecular Weight": "466.59", "Molecular Formula": "C27H30O5S", "Melting Point": "223 \u00b0C (decomp)"}}