{"cas_no": "76-60-8", "cn_name": "\u6eb4\u7532\u915a\u7eff", "en_name": ["Bromocresol green", "Phenol, 4,4\u2032-(1,1-dioxido-3H-2,1-benzoxathiol-3-ylidene)bis[2,6-dibromo-3-methyl-", "m-Cresol, 4,4\u2032-(3H-2,1-benzoxathiol-3-ylidene)bis[2,6-dibromo-, S,S-dioxide", "Bromocresol green", "Phenol, 4,4\u2032-(3H-2,1-benzoxathiol-3-ylidene)bis[2,6-dibromo-3-methyl-, S,S-dioxide", "o-Toluenesulfonic acid, \u03b1,\u03b1-bis(3,5-dibromo-4-hydroxy-o-tolyl)-\u03b1-hydroxy-, \u03b3-sultone", "3H-2,1-Benzoxathiole, phenol deriv.", "4,4\u2032-(1,1-Dioxido-3H-2,1-benzoxathiol-3-ylidene)bis[2,6-dibromo-3-methylphenol]", "BCG", "Tetrabromo-m-cresolphthalein sulfone", "3\u2032,3\u2032\u2032,5\u2032,5\u2032\u2032-Tetrabromo-m-cresolsulfonephthalein", "Bromcresol green", "NSC 7817", "MeSH ID: D001961"], "SMILES": "CC1=C(C2(C=3C(S(=O)(=O)O2)=CC=CC3)C4=C(C)C(Br)=C(O)C(Br)=C4)C=C(Br)C(O)=C1Br", "physical_data": {"Molecular Weight": "698.01", "Molecular Formula": "C21H14Br4O5S", "Melting Point": "218.5 \u00b0C"}}