{"cas_no": "76-63-1", "cn_name": "\u4e19\u70ef\u57fa\u4e09\u82ef\u57fa\u9521", "en_name": ["Triphenyl-2-propen-1-ylstannane", "Stannane, triphenyl-2-propen-1-yl-", "Stannane, allyltriphenyl-", "Stannane, triphenyl-2-propenyl-", "Tin, allyltriphenyl-", "Triphenyl-2-propen-1-ylstannane", "Dowco 187", "Allyltriphenyltin", "ENT 50909", "Allyltriphenylstannane", "3-(Triphenylstannyl)-1-propene", "NSC 227360", "NSC 99168", "Triphenyl(2-propenyl)stannane"], "SMILES": "[Sn](CC=C)(C1=CC=CC=C1)(C2=CC=CC=C2)C3=CC=CC=C3", "physical_data": {"Molecular Weight": "391.09", "Molecular Formula": "C21H20Sn", "Melting Point": "71-73 \u00b0C"}}