{"cas_no": "76-72-2", "cn_name": "\u4e59\u57fa(1-\u7532\u57fa\u4e01\u57fa)\u4e19\u4e8c\u9178\u4e8c\u4e59\u916f", "en_name": ["1,3-Diethyl 2-ethyl-2-(1-methylbutyl)propanedioate", "Propanedioic acid, 2-ethyl-2-(1-methylbutyl)-, 1,3-diethyl ester", "Malonic acid, ethyl(1-methylbutyl)-, diethyl ester", "Propanedioic acid, ethyl(1-methylbutyl)-, diethyl ester", "Malonic acid, ethyl(\u03b1-methylbutyl)-, diethyl ester", "1,3-Diethyl 2-ethyl-2-(1-methylbutyl)propanedioate", "NSC 10824"], "SMILES": "C(C(CCC)C)(C(OCC)=O)(C(OCC)=O)CC", "physical_data": {"Molecular Weight": "258.35", "Molecular Formula": "C14H26O4", "Boiling Point": "120-122 \u00b0C @ Press: 8 Torr", "Density": "0.986 g/cm\u00b3 @ Temp: 20 \u00b0C"}}