{"cas_no": "76-77-7", "cn_name": "\u65b0\u82e6\u6728\u82f7", "en_name": ["Neoquassin", "Picrasa-2,12-diene-1,11-dione, 16-hydroxy-2,12-dimethoxy-", "Neoquassin", "Phenanthro[10,1-bc]pyran-1,11-dione, 3a,4,5,6a,7,7a,8,11a,11b,11c-decahydro-5-hydroxy-2,10-dimethoxy-3,8,11a,11c-tetramethyl-", "Phenanthro[10,1-bc]pyran, picrasa-2,12-diene-1,11-dione deriv.", "16-Hydroxy-2,12-dimethoxypicrasa-2,12-diene-1,11-dione", "Nigakihemiacetal B", "Simalikahemiacetal A", "Neoquassine", "NSC 139168"], "SMILES": "CC12C3C4(C)C(CC1OC(O)CC2C(C)=C(OC)C3=O)C(C)C=C(OC)C4=O", "physical_data": {"Molecular Weight": "390.47", "Molecular Formula": "C22H30O6", "Melting Point": "227 \u00b0C"}}