{"cas_no": "76-75-5", "cn_name": "\u620a\u786b\u4ee3\u5df4\u6bd4\u59a5", "en_name": ["(\u00b1)-Thiopental", "4,6(1H,5H)-Pyrimidinedione, 5-ethyldihydro-5-(1-methylbutyl)-2-thioxo-", "Barbituric acid, 5-ethyl-5-(1-methylbutyl)-2-thio-", "5-Ethyldihydro-5-(1-methylbutyl)-2-thioxo-4,6(1H,5H)-pyrimidinedione", "Intraval", "Penthiobarbital", "Thiomebumal", "Thiopental", "Thiopentone", "Thiothal", "5-Ethyl-5-(1-methylbutyl)-2-thiobarbituric acid", "Thiopentobarbital", "2-Thio-5-ethyl-5-sec-pentylbarbituric acid", "Thiopentobarbituric acid", "Pentothiobarbital", "Thiopentobarbitone", "Thionembutal", "(\u00b1)-Thiopental", "MeSH ID: D013874"], "SMILES": "C(CCC)(C)C1(CC)C(=O)NC(=S)NC1=O", "physical_data": {"Molecular Weight": "242.34", "Molecular Formula": "C11H18N2O2S", "Melting Point": "158-159 \u00b0C"}}