{"cas_no": "76-74-4", "cn_name": "\u620a\u5df4\u6bd4\u59a5", "en_name": ["(\u00b1)-Pentobarbital", "2,4,6(1H,3H,5H)-Pyrimidinetrione, 5-ethyl-5-(1-methylbutyl)-", "Barbituric acid, 5-ethyl-5-(1-methylbutyl)-", "5-Ethyl-5-(1-methylbutyl)-2,4,6(1H,3H,5H)-pyrimidinetrione", "Ethaminal", "5-Ethyl-5-(1-methylbutyl)barbituric acid", "Pentobarbital", "Pentobarbitone", "Rivadorm", "5-Ethyl-5-(sec-pentyl)barbituric acid", "Nembutal", "Mebubarbital", "Pentabarbitone", "Pentobarbituric acid", "Neodorm (new)", "Neodorm", "Phetobarbitone", "(RS)-Pentobarbital", "(\u00b1)-Pentobarbital", "(\u00b1)-Pentobarbitone", "NSC 28708", "MeSH ID: D010424"], "SMILES": "C(CCC)(C)C1(CC)C(=O)NC(=O)NC1=O", "physical_data": {"Molecular Weight": "226.27", "Molecular Formula": "C11H18N2O3", "Melting Point": "130 \u00b0C"}}