{"cas_no": "76-78-8", "cn_name": "\u82e6\u6728\u7d20", "en_name": ["(+)-Quassin", "Picrasa-2,12-diene-1,11,16-trione, 2,12-dimethoxy-", "Phenanthro[10,1-bc]pyran-1,5,11(4H)-trione, 3a\u03b2,6a\u03b2,7,7a\u03b1,8,11a,11b\u03b1,11c-octahydro-2,10-dimethoxy-3,8\u03b1,11a\u03b2,11c\u03b2-tetramethyl-", "Quassin", "Phenanthro[10,1-bc]pyran, picrasa-2,12-diene-1,11,16-trione deriv.", "2,12-Dimethoxypicrasa-2,12-diene-1,11,16-trione", "Nigakilactone D", "Quassine", "(+)-Quassin", "NSC 36342"], "SMILES": "CC12C3C4(C)C(CC1OC(=O)CC2C(C)=C(OC)C3=O)C(C)C=C(OC)C4=O", "physical_data": {"Molecular Weight": "388.45", "Molecular Formula": "C22H28O6", "Melting Point": "222 \u00b0C"}}