{"cas_no": "76-86-8", "cn_name": "\u4e09\u82ef\u57fa\u6c2f\u7845\u70f7", "en_name": ["1,1\u2032,1\u2032\u2032-(Chlorosilylidyne)tris[benzene]", "Benzene, 1,1\u2032,1\u2032\u2032-(chlorosilylidyne)tris-", "Silane, chlorotriphenyl-", "1,1\u2032,1\u2032\u2032-(Chlorosilylidyne)tris[benzene]", "Chlorotriphenylsilane", "Triphenylchlorosilane", "Triphenylsilicon chloride", "Triphenylsilyl chloride", "TSL 8061", "NSC 102804"], "SMILES": "[Si](Cl)(C1=CC=CC=C1)(C2=CC=CC=C2)C3=CC=CC=C3", "physical_data": {"Molecular Weight": "294.85", "Molecular Formula": "C18H15ClSi", "Boiling Point": "188-189 \u00b0C @ Press: 3 Torr", "Melting Point": "91-92 \u00b0C"}}