{"cas_no": "76-84-6", "cn_name": "\u4e09\u82ef\u57fa\u7532\u9187", "en_name": ["Triphenylmethanol", "Benzenemethanol, \u03b1,\u03b1-diphenyl-", "Methanol, triphenyl-", "\u03b1,\u03b1-Diphenylbenzenemethanol", "Triphenylcarbinol", "Triphenylmethanol", "Tritanol", "Trityl alcohol", "Triphenylmethyl alcohol", "BL 3756", "Hydroxytriphenylmethane", "U 45483", "NSC 4050", "TrtOH"], "SMILES": "C(O)(C1=CC=CC=C1)(C2=CC=CC=C2)C3=CC=CC=C3", "physical_data": {"Molecular Weight": "260.33", "Molecular Formula": "C19H16O", "Boiling Point": "380 \u00b0C", "Melting Point": "164.2 \u00b0C"}}