{"cas_no": "76-80-2", "cn_name": "\u7f9f\u57fa\u9c7c\u85e4\u7d20", "en_name": ["Tephrosin", "3H-Bis[1]benzopyrano[3,4-b:6\u2032,5\u2032-e]pyran-7(7aH)-one, 13,13a-dihydro-7a-hydroxy-9,10-dimethoxy-3,3-dimethyl-, (7aR,13aR)-", "Tephrosin", "3H-Bis[1]benzopyrano[3,4-b:6\u2032,5\u2032-e]pyran-7(7aH)-one, 13,13a-dihydro-7a-hydroxy-9,10-dimethoxy-3,3-dimethyl-, (7aR-cis)-", "(7aR,13aR)-13,13a-Dihydro-7a-hydroxy-9,10-dimethoxy-3,3-dimethyl-3H-bis[1]benzopyrano[3,4-b:6\u2032,5\u2032-e]pyran-7(7aH)-one", "Deguelinol I", "Hydroxydeguelin", "(-)-Tephrosin"], "SMILES": "OC12C=3C(=CC(OC)=C(OC)C3)OCC1OC=4C(C2=O)=CC=C5C4C=CC(C)(C)O5", "physical_data": {"Molecular Weight": "410.42", "Molecular Formula": "C23H22O7", "Melting Point": "198 \u00b0C"}}