{"cas_no": "76-89-1", "cn_name": "\u4e8c\u82ef\u4e59\u9187\u9178\u7532\u916f", "en_name": ["Methyl benzilate", "Benzeneacetic acid, \u03b1-hydroxy-\u03b1-phenyl-, methyl ester", "Benzilic acid, methyl ester", "Methyl benzilate", "Methyl diphenylglycolate", "Methyl \u03b1-phenylmandelate", "Methyl 2-hydroxy-2,2-diphenylacetate", "Methyl hydroxydiphenylacetate", "Methyl \u03b1-hydroxydiphenylacetate", "NSC 57672", "NSC 624", "2-Hydroxy-2,2-diphenylacetic acid methyl ester"], "SMILES": "C(C(OC)=O)(O)(C1=CC=CC=C1)C2=CC=CC=C2", "physical_data": {"Molecular Weight": "242.27", "Molecular Formula": "C15H14O3", "Boiling Point": "187 \u00b0C @ Press: 13 Torr", "Melting Point": "75.8 \u00b0C"}}