{"cas_no": "76-87-9", "cn_name": "\u4e09\u82ef\u57fa\u6c22\u6c27\u5316\u9521", "en_name": ["Triphenyltin hydroxide", "Stannane, hydroxytriphenyl-", "Triphenyltin hydroxide", "Hydroxytriphenylstannane", "Dowco 186", "ENT 28009", "Du-Ter", "Fentin hydroxide", "Hydroxytriphenyltin", "TPTH", "Triphenylstannanol", "K 19", "Tenhide", "Fenolovo", "Erithane", "Vancide KS", "Triphenylhydroxytin", "Triphenylstannyl hydroxide", "Sunitron H", "Triphenyl(hydroxo)stannane", "SuperTin", "NSC 113243", "Triphenylhydroxystannane"], "SMILES": "[Sn](O)(C1=CC=CC=C1)(C2=CC=CC=C2)C3=CC=CC=C3", "physical_data": {"Molecular Weight": "367.03", "Molecular Formula": "C18H16OSn", "Melting Point": "119 \u00b0C", "Density": "1.54 g/cm\u00b3 @ Temp: 20 \u00b0C"}}