{"cas_no": "76-83-5", "cn_name": "\u4e09\u82ef\u57fa\u6c2f\u7532\u70f7", "en_name": ["Trityl chloride", "Benzene, 1,1\u2032,1\u2032\u2032-(chloromethylidyne)tris-", "Methane, chlorotriphenyl-", "1,1\u2032,1\u2032\u2032-(Chloromethylidyne)tris[benzene]", "Chlorotriphenylmethane", "Triphenylchloromethane", "Triphenylmethyl chloride", "Trityl chloride", "NSC 435", "(Chlorodiphenylmethyl)benzene", "(Chloromethanetriyl)tribenzene"], "SMILES": "C(Cl)(C1=CC=CC=C1)(C2=CC=CC=C2)C3=CC=CC=C3", "physical_data": {"Molecular Weight": "278.78", "Molecular Formula": "C19H15Cl", "Boiling Point": "310 \u00b0C @ Press: 760 Torr", "Melting Point": "113-114 \u00b0C"}}