{"cas_no": "76-90-4", "cn_name": "\u6eb4\u7f8e\u55b7\u916f", "en_name": ["Mepenzolate bromide", "Piperidinium, 3-[(2-hydroxy-2,2-diphenylacetyl)oxy]-1,1-dimethyl-, bromide (1:1)", "Piperidinium, 3-hydroxy-1,1-dimethyl-, bromide, benzilate", "3-Hydroxy-1,1-dimethylpiperidinium bromide benzilate", "Piperidinium, 3-[(hydroxydiphenylacetyl)oxy]-1,1-dimethyl-, bromide", "Benzilic acid, ester with 3-hydroxy-1,1-dimethylpiperidinium bromide", "JB 340", "Cantil", "Mepenzolate bromide", "N-Methyl-3-piperidyl benzilate methyl bromide", "1-Methyl-3-piperidyl benzilate methylbromide", "N-Methyl-3-piperidyldiphenylglycolate methobromide", "Gastropidil", "Cantilaque", "Cantilon", "Trancolon", "Cantril", "Colibantil", "Colopiril", "Colum", "Delevil", "NSC 4358", "Glycophenylate"], "SMILES": "C(C(OC1C[N+](C)(C)CCC1)=O)(O)(C2=CC=CC=C2)C3=CC=CC=C3.[Br-]", "physical_data": {"Molecular Weight": "", "Molecular Formula": "C21H26NO3.Br", "Melting Point": "228 \u00b0C (decomp)"}}