{"cas_no": "76-93-7", "cn_name": "\u4e8c\u82ef\u57fa\u4e59\u9187\u9178", "en_name": ["Benzilic acid", "Benzeneacetic acid, \u03b1-hydroxy-\u03b1-phenyl-", "Benzilic acid", "\u03b1-Hydroxy-\u03b1-phenylbenzeneacetic acid", "Diphenylglycolic acid", "Diphenylhydroxyacetic acid", "\u03b1-Hydroxy-2,2-diphenylacetic acid", "\u03b1,\u03b1-Diphenyl-\u03b1-hydroxyacetic acid", "Hydroxydiphenylacetic acid", "\u03b1,\u03b1-Diphenylglycolic acid", "2-Hydroxy-2,2-diphenylacetic acid", "2,2-Diphenyl-2-hydroxyacetic acid", "\u03b1-Hydroxydiphenylacetic acid", "NSC 2830", "2,2-Diphenylglycolic acid", "2,2-Diphenyl-2-hydroxyethanoic acid", "Benzilate", "Benzilates"], "SMILES": "C(C(O)=O)(O)(C1=CC=CC=C1)C2=CC=CC=C2", "physical_data": {"Molecular Weight": "228.24", "Molecular Formula": "C14H12O3", "Boiling Point": "187 \u00b0C", "Melting Point": "151 \u00b0C"}}