{"cas_no": "76-98-2", "cn_name": "\u69b4\u82b1\u78b1", "en_name": ["Ibogamine-18-carboxylic acid, 12,13-dimethoxy-, methyl ester", "Ibogamine-18-carboxylic acid, 12,13-dimethoxy-, methyl ester", "Conopharyngine", "6,9-Methano-5H-pyrido[1\u2032,2\u2032:1,2]azepino[4,5-b]indole, ibogamine-18-carboxylic acid deriv.", "Conopharyngine (Iboga)", "Coronaridine, 12,13-dimethoxy-"], "SMILES": "C(OC)(=O)C12C3=C(C=4C(N3)=CC(OC)=C(OC)C4)CCN5C1C(CC)CC(C2)C5", "physical_data": {"Molecular Weight": "398.50", "Molecular Formula": "C23H30N2O4", "Melting Point": "141-143 \u00b0C"}}