{"cas_no": "760-32-7", "cn_name": "\u4e8c\u4e59\u57fa\u7532\u57fa\u7845\u70f7", "en_name": ["Diethylmethylsilane", "Silane, diethylmethyl-", "Diethylmethylsilane", "Methyldiethylsilane"], "SMILES": "[SiH](CC)(CC)C", "physical_data": {"Molecular Weight": "102.25", "Molecular Formula": "C5H14Si", "Boiling Point": "78 \u00b0C", "Density": "0.705 g/cm\u00b3"}}