{"cas_no": "760-78-1", "cn_name": "DL-\u6b63\u7f2c\u6c28\u9178", "en_name": ["(\u00b1)-Norvaline", "Norvaline", "Norvaline, DL-", "DL-Norvaline", "DL-\u03b1-Aminovaleric acid", "DL-2-Aminovaleric acid", "\u03b1-DL-Aminopentanoic acid", "(\u00b1)-Norvaline", "(\u00b1)-2-Aminopentanoic acid", "NSC 7904", "20: PN: WO2005055994 PAGE: 50 claimed protein", "2-Amino-pentanoic acid", "2-Aminopentanoic acid"], "SMILES": "C(CCC)(C(O)=O)N", "physical_data": {"Molecular Weight": "117.15", "Molecular Formula": "C5H11NO2", "Melting Point": "303 \u00b0C"}}