{"cas_no": "760-93-0", "cn_name": "2-\u7532\u57fa\u4e19\u70ef\u9178\u9150", "en_name": ["Methacrylic anhydride", "2-Propenoic acid, 2-methyl-, 1,1\u2032-anhydride", "Methacrylic anhydride", "2-Propenoic acid, 2-methyl-, anhydride", "Methacrylic acid anhydride", "Methacryloyl anhydride", "NSC 24159", "Bis(methacrylic acid) anhydride", "Dimethacrylic acid anhydride", "Norsocryl 500", "2-Methylprop-2-enoyl 2-methylprop-2-enoate"], "SMILES": "C(OC(C(C)=C)=O)(C(C)=C)=O", "physical_data": {"Molecular Weight": "154.16", "Molecular Formula": "C8H10O3", "Boiling Point": "89 \u00b0C @ Press: 5 Torr", "Density": "1.035 g/cm\u00b3"}}