{"cas_no": "760-20-3", "cn_name": "3-\u7532\u57fa-1-\u620a\u70ef", "en_name": ["3-Methyl-1-pentene", "1-Pentene, 3-methyl-", "3-Methyl-1-pentene", "sec-Butylethene", "3-Ethyl-1-butene", "(RS)-3-Methyl-1-pentene", "NSC 73909", "3-Methylpentene-1"], "SMILES": "C(CC)(C=C)C", "physical_data": {"Molecular Weight": "84.16", "Molecular Formula": "C6H12", "Boiling Point": "54.2 \u00b0C", "Melting Point": "-153 \u00b0C", "Density": "0.06700 g/cm\u00b3 @ Temp: 20 \u00b0C"}}