{"cas_no": "760-79-2", "cn_name": "N,N-\u4e8c\u7532\u57fa\u4e01\u9170\u80fa", "en_name": ["N,N-Dimethylbutanamide", "Butanamide, N,N-dimethyl-", "Butyramide, N,N-dimethyl-", "N,N-Dimethylbutanamide", "N,N-Dimethylbutyramide", "N,N-Dimethyl-n-butyramide", "NSC 54115"], "SMILES": "C(CCC)(N(C)C)=O", "physical_data": {"Molecular Weight": "115.17", "Molecular Formula": "C6H13NO", "Boiling Point": "186 \u00b0C", "Melting Point": "-40 \u00b0C", "Density": "0.9064 g/cm\u00b3 @ Temp: 25 \u00b0C"}}