{"cas_no": "760-23-6", "cn_name": "3,4-\u4e8c\u6c2f-1-\u4e01\u70ef", "en_name": ["3,4-Dichloro-1-butene", "1-Butene, 3,4-dichloro-", "3,4-Dichloro-1-butene", "1,2-Dichloro-3-butene"], "SMILES": "C(C=C)(CCl)Cl", "physical_data": {"Molecular Weight": "125.00", "Molecular Formula": "C4H6Cl2", "Boiling Point": "118.6 \u00b0C", "Melting Point": "-61 \u00b0C", "Density": "1.153 g/cm\u00b3 @ Temp: 25 \u00b0C"}}