{"cas_no": "760-80-5", "cn_name": "2-\u6c1f\u4ee3\u4e19\u70ef\u9178\u4e59\u916f", "en_name": ["Ethyl 2-fluoro-2-propenoate", "2-Propenoic acid, 2-fluoro-, ethyl ester", "Acrylic acid, 2-fluoro-, ethyl ester", "Ethyl 2-fluoro-2-propenoate", "Ethyl \u03b1-fluoroacrylate", "Ethyl 2-fluoroacrylate", "2-Fluoroacrylic acid ethyl ester"], "SMILES": "C(OCC)(C(=C)F)=O", "physical_data": {"Molecular Weight": "118.11", "Molecular Formula": "C5H7FO2", "Boiling Point": "80-82 \u00b0C", "Density": "1.0555 g/cm\u00b3 @ Temp: 20 \u00b0C"}}