{"cas_no": "760-21-4", "cn_name": "\u7532\u57fa\u4e19\u70ef\u9178\u4e59\u916f", "en_name": ["3-Methylenepentane", "Pentane, 3-methylene-", "1-Butene, 2-ethyl-", "3-Methylenepentane", "2-Ethyl-1-butene", "1,1-Diethylethene", "1,1-Diethylethylene", "NSC 74120", "3-Methylidenepentane"], "SMILES": "C(CC)(CC)=C", "physical_data": {"Molecular Weight": "84.16", "Molecular Formula": "C6H12", "Boiling Point": "64.7 \u00b0C", "Melting Point": "-131.5 \u00b0C", "Density": "1.028 g/cm\u00b3 @ Temp: 21 \u00b0C"}}