{"cas_no": "760-67-8", "cn_name": "2-\u4e59\u57fa\u5df1\u9170\u6c2f", "en_name": ["2-Ethylhexanoyl chloride", "Hexanoyl chloride, 2-ethyl-", "2-Ethylhexanoyl chloride", "2-Ethylhexanoic acid chloride", "2-Ethylcaproyl chloride", "NSC 87892"], "SMILES": "C(CCCC)(C(Cl)=O)CC", "physical_data": {"Molecular Weight": "162.66", "Molecular Formula": "C8H15ClO", "Boiling Point": "88 \u00b0C @ Press: 30 Torr", "Density": "0.944 g/cm\u00b3 @ Temp: 24 \u00b0C"}}