{"cas_no": "76006-14-9", "cn_name": "3-\u6c2f-1H-\u5421\u5511\u5e76[3,4-C]\u5421\u5576", "en_name": ["3-Chloro-1H-pyrazolo[3,4-c]pyridine", "1H-Pyrazolo[3,4-c]pyridine, 3-chloro-", "3-Chloro-1H-pyrazolo[3,4-c]pyridine", "3-Chloro-2H-pyrazolo[3,4-c]pyridine"], "SMILES": "ClC=1C=2C(=CN=CC2)NN1", "physical_data": {"Molecular Weight": "153.57", "Molecular Formula": "C6H4ClN3", "Melting Point": "212.0-212.5 \u00b0C (sublm)"}}