{"cas_no": "76006-10-5", "cn_name": "7-\u7532\u6c27\u57fa-1H-\u5421\u5511\u5e76[3,4-C]\u5421\u5576", "en_name": ["7-Methoxy-1H-pyrazolo[3,4-c]pyridine", "1H-Pyrazolo[3,4-c]pyridine, 7-methoxy-", "7-Methoxy-1H-pyrazolo[3,4-c]pyridine"], "SMILES": "O(C)C1=C2C(C=NN2)=CC=N1", "physical_data": {"Molecular Weight": "149.15", "Molecular Formula": "C7H7N3O", "Melting Point": "153-154 \u00b0C"}}