{"cas_no": "76008-73-6", "cn_name": "5-\u6eb4-2-\u6c2f\u82ef\u7532\u9178\u4e59\u916f", "en_name": ["Ethyl 5-bromo-2-chlorobenzoate", "Benzoic acid, 5-bromo-2-chloro-, ethyl ester", "Ethyl 5-bromo-2-chlorobenzoate", "5-Bromo-2-chlorobenzoic acid ethyl ester"], "SMILES": "C(OCC)(=O)C1=C(Cl)C=CC(Br)=C1", "physical_data": {"Molecular Weight": "263.52", "Molecular Formula": "C9H8BrClO2", "Boiling Point": "128-130 \u00b0C @ Press: 1 Torr"}}