{"cas_no": "76015-11-7", "cn_name": "3-\u7532\u6c27\u57fa-2-\u7532\u57fa-1H-\u5421\u5576-4-\u916e", "en_name": ["3-Methoxy-2-methyl-4(1H)-pyridone", "4(1H)-Pyridinone, 3-methoxy-2-methyl-", "4(1H)-Pyridone, 3-methoxy-2-methyl-", "3-Methoxy-2-methyl-4(1H)-pyridinone", "3-Methoxy-2-methyl-4(1H)-pyridone", "NSC 283471", "3-Methoxy-2-methyl-1,4-dihydropyridin-4-one", "3-Methoxy-2-methyl-1H-pyridin-4-one"], "SMILES": "O(C)C=1C(=O)C=CNC1C", "physical_data": {"Molecular Weight": "139.15", "Molecular Formula": "C7H9NO2", "Melting Point": "153-154 \u00b0C"}}