{"cas_no": "7601-90-3", "cn_name": "\u9ad8\u6c2f\u9178", "en_name": ["Perchloric acid", "Perchloric acid", "Perchloric acid (HClO4)"], "SMILES": "Cl(=O)(=O)(=O)O", "physical_data": {"Molecular Weight": "100.46", "Molecular Formula": "ClHO4", "Boiling Point": "19 \u00b0C @ Press: 11 Torr", "Melting Point": "-112 \u00b0C", "Density": "1.768 g/cm\u00b3 @ Temp: 22 \u00b0C"}}