{"cas_no": "7601-54-9", "cn_name": "\u78f7\u9178\u4e09\u94a0", "en_name": ["Trisodium phosphate", "Phosphoric acid, sodium salt (1:3)", "Phosphoric acid, trisodium salt", "Dri-Tri", "Sodium phosphate", "Tribasic sodium phosphate", "Trisodium orthophosphate", "Trisodium phosphate", "Tromete", "Sodium phosphate (Na3PO4)", "Sodium phosphate, tribasic", "Sodium tertiary phosphate", "Antisal 4", "Tribasic sodium orthophosphate", "Laston RP", "AvGard", "JR 50A", "Prayphos TSP-FG", "Na3PO4", "Joha T Neu", "Sodium phosphorotetrathioate (Na3(PS4))"], "SMILES": "P(=O)(O)(O)O.[Na]", "physical_data": {"Molecular Weight": "", "Molecular Formula": "H3O4P.3Na", "Melting Point": "75 \u00b0C (decomp)", "Density": "2.536 g/cm\u00b3 @ Temp: 17.5 \u00b0C"}}