{"cas_no": "7601-89-0", "cn_name": "\u9ad8\u6c2f\u9178\u94a0", "en_name": ["Sodium perchlorate", "Perchloric acid, sodium salt (1:1)", "Perchloric acid, sodium salt", "Sodium perchlorate", "CPL 46", "Irenat", "CL 500", "CL 510", "MP 100", "MP 100 (perchlorate)", "CX 1", "CX 1 (perchlorate)"], "SMILES": "Cl(=O)(=O)(=O)O.[Na]", "physical_data": {"Molecular Weight": "", "Molecular Formula": "ClHO4.Na", "Melting Point": "480 \u00b0C (decomp)", "Density": "2.52 g/cm\u00b3"}}