{"cas_no": "76035-62-6", "cn_name": "3-EPIKATONIC ACID", "en_name": ["Epikatonic acid", "Olean-12-en-29-oic acid, 3-hydroxy-, (3\u03b2,20\u03b1)-", "(3\u03b2,20\u03b1)-3-Hydroxyolean-12-en-29-oic acid", "3-Epikatonic acid", "Epikatonic acid"], "SMILES": "CC12C(C3(C)C(CC1)C(C)(C)C(O)CC3)CC=C4C2(C)CCC5(C)C4CC(C(O)=O)(C)CC5", "physical_data": {"Molecular Weight": "456.70", "Molecular Formula": "C30H48O3", "Melting Point": "284-286 \u00b0C"}}