{"cas_no": "76045-71-1", "cn_name": "3-\u6c28\u57fa-5-\u7f9f\u57fa\u82ef\u7532\u9178", "en_name": ["3-Amino-5-hydroxybenzoic acid", "Benzoic acid, 3-amino-5-hydroxy-", "3-Amino-5-hydroxybenzoic acid", "3-Hydroxy-5-aminobenzoic acid", "5-Amino-3-hydroxybenzoic acid"], "SMILES": "C(O)(=O)C1=CC(N)=CC(O)=C1", "physical_data": {"Molecular Weight": "153.14", "Molecular Formula": "C7H7NO3", "Melting Point": "242 \u00b0C"}}