{"cas_no": "7605-28-9", "cn_name": "\u82ef\u78fa\u9170\u4e59\u8148", "en_name": ["(Phenylsulfonyl)acetonitrile", "Acetonitrile, 2-(phenylsulfonyl)-", "Acetonitrile, (phenylsulfonyl)-", "2-(Phenylsulfonyl)acetonitrile", "Cyano(phenylsulfonyl)methane", "(Phenylsulfonyl)acetonitrile", "(Benzenesulfonyl)acetonitrile", "Cyanomethyl phenyl sulfone", "NSC 51007", "2-(Benzenesulfonyl)acetonitrile"], "SMILES": "S(CC#N)(=O)(=O)C1=CC=CC=C1", "physical_data": {"Molecular Weight": "181.21", "Molecular Formula": "C8H7NO2S", "Melting Point": "112.5-113.0 \u00b0C"}}