{"cas_no": "7605-30-3", "cn_name": "\u82ef\u78fa\u9170\u4e59\u9178\u4e59\u916f", "en_name": ["Acetic acid, 2-(phenylsulfonyl)-, ethyl ester", "Acetic acid, 2-(phenylsulfonyl)-, ethyl ester", "Acetic acid, (phenylsulfonyl)-, ethyl ester", "Ethyl phenylsulfonylacetate", "Ethyl benzenesulfonylacetate", "(Phenylsulfonyl)acetic acid ethyl ester", "Ethyl 2-(phenylsulfonyl)acetate"], "SMILES": "S(CC(OCC)=O)(=O)(=O)C1=CC=CC=C1", "physical_data": {"Molecular Weight": "228.26", "Molecular Formula": "C10H12O4S", "Melting Point": "42.5-43.5 \u00b0C"}}