{"cas_no": "76060-35-0", "cn_name": "1-\u8131\u6c22-6-\u59dc\u916e", "en_name": ["[6]-Dehydrogingerdione", "1-Decene-3,5-dione, 1-(4-hydroxy-3-methoxyphenyl)-, (1E)-", "1-Decene-3,5-dione, 1-(4-hydroxy-3-methoxyphenyl)-, (E)-", "(1E)-1-(4-Hydroxy-3-methoxyphenyl)-1-decene-3,5-dione", "[6]-Dehydrogingerdione"], "SMILES": "C(=CC(CC(CCCCC)=O)=O)C1=CC(OC)=C(O)C=C1", "physical_data": {"Molecular Weight": "290.35", "Molecular Formula": "C17H22O4", "Melting Point": "84 \u00b0C"}}