{"cas_no": "76095-16-4", "cn_name": "\u9a6c\u6765\u9178\u4f9d\u90a3\u666e\u5229", "en_name": ["Enalapril maleate", "L-Proline, N-[(1S)-1-(ethoxycarbonyl)-3-phenylpropyl]-L-alanyl-, (2Z)-2-butenedioate (1:1)", "L-Proline, 1-[N-[1-(ethoxycarbonyl)-3-phenylpropyl]-L-alanyl]-, (S)-, (Z)-2-butenedioate (1:1)", "MK 421 maleate", "Enalapril maleate", "MK 421", "Vasotec", "Pressotec", "Xanef", "Enapren", "Biocronil", "Renitec", "Pres", "Elfonal", "Vasopril", "Invoril", "Innovace", "Enaril", "Minipril", "Kenopril", "Inoprilat", "Unaril", "Envas", "Enaprin", "Analept", "Sintec", "Naprilene", "Alphrin", "Lotrial", "BQL", "Tenace", "Acetensil", "Convertin", "Repantril", "Amprace", "Renitek", "Nuril", "Hytrol", "Enaloc", "Enaladil", "Benalipril", "Unipril", "Controlvas", "Lapril", "Innovade", "Ednyt", "Reniten", "Renavace", "Naritec", "Presil", "Glioten", "Converten", "Renivace", "Enapril", "Enacard", "Olivin", "Hipoartel", "Cardiovet", "Bitensil", "Antiprex", "Enace", "Ezapril", "Acapril", "ENAP", "Enalapril LPH"], "SMILES": "C(=CC(O)=O)C(O)=O.C(C(NC(CCC1=CC=CC=C1)C(OCC)=O)C)(=O)N2C(C(O)=O)CCC2", "physical_data": {"Molecular Weight": "", "Molecular Formula": "C20H28N2O5.C4H4O4", "Melting Point": "143-144.5 \u00b0C"}}