{"cas_no": "761-65-9", "cn_name": "N,N-\u4e8c\u4e01\u57fa\u7532\u9170\u80fa", "en_name": ["N,N-Dibutylformamide", "Formamide, N,N-dibutyl-", "N,N-Dibutylformamide", "Dibutylformamide", "N,N-Di-n-butylformamide", "NSC 404525", "N-Formyldibutylamine"], "SMILES": "N(CCCC)(CCCC)C=O", "physical_data": {"Molecular Weight": "157.25", "Molecular Formula": "C9H19NO", "Boiling Point": "76-78 \u00b0C @ Press: 0.25 Torr", "Melting Point": "60-100 \u00b0C", "Density": "0.8932 g/cm\u00b3 @ Temp: 20 \u00b0C"}}