{"cas_no": "761-35-3", "cn_name": "(\u00b1)-1,2-\u4e8c\u68d5\u6988\u7cbe", "en_name": ["(\u00b1)-1,2-Dipalmitoylglycerol", "Hexadecanoic acid, 1,1\u2032-[1-(hydroxymethyl)-1,2-ethanediyl] ester", "Hexadecanoic acid, 1-(hydroxymethyl)-1,2-ethanediyl ester, (\u00b1)-", "Hexadecanoic acid, 1-(hydroxymethyl)-1,2-ethanediyl ester", "rac-Glycerol 1,2-dipalmitate", "(\u00b1)-1,2-Dipalmitoylglycerol", "1,2-Dipalmitoyl-DL-glycerol", "(RS)-1,2-Dipalmitin", "(\u00b1)-1,2-Dipalmitoylglycerin", "rac-1,2-Dipalmitoylglycerol", "1,2-Dipalmitoyl-rac-glycerol", "(\u00b1)-1,2-Dipalmitin", "1,2-Dipalmitin", "Glycerol 1,2-dipalmitate", "1,2-Dipalmitoylglycerol", "2,3-Dipalmitin", "(\u00b1)-1-(Hydroxymethyl)ethane-1,2-diyl dipalmitate", "Glycerol 1,2-dihexadecanoate", "1-(Hexadecanoyloxy)-3-hydroxypropan-2-yl hexadecanoate"], "SMILES": "C(OC(CCCCCCCCCCCCCCC)=O)(COC(CCCCCCCCCCCCCCC)=O)CO", "physical_data": {"Molecular Weight": "568.91", "Molecular Formula": "C35H68O5", "Melting Point": "64 \u00b0C"}}