{"cas_no": "76101-30-9", "cn_name": "2-\u6c30\u4e59\u57fa\u4e8c\u6c2f\u78f7\u9178\u916f", "en_name": ["Phosphorodichloridous acid, 2-cyanoethyl ester", "Phosphorodichloridous acid, 2-cyanoethyl ester", "2-Cyanoethyl phosphorodichloridite", "(2-Cyanoethoxy)dichlorophosphine", "3-Dichlorophosphanyloxypropanenitrile"], "SMILES": "O(CCC#N)P(Cl)Cl", "physical_data": {"Molecular Weight": "171.95", "Molecular Formula": "C3H4Cl2NOP", "Boiling Point": "110-112 \u00b0C @ Press: 9 Torr", "Density": "1.3919 g/cm\u00b3 @ Temp: 20 \u00b0C"}}