{"cas_no": "76114-73-3", "cn_name": "2-\u7094\u4e19\u57fa-N-\u4e01\u57fa\u6c28\u57fa\u7532\u9178\u916f", "en_name": ["2-Propyn-1-yl N-butylcarbamate", "Carbamic acid, N-butyl-, 2-propyn-1-yl ester", "Carbamic acid, butyl-, 2-propynyl ester", "2-Propyn-1-yl N-butylcarbamate", "N-Butyl propargyl carbamate", "2-Propynyl butylcarbamate", "Propargyl butylcarbamate"], "SMILES": "N(C(OCC#C)=O)CCCC", "physical_data": {"Molecular Weight": "155.19", "Molecular Formula": "C8H13NO2", "Boiling Point": "90-91 \u00b0C @ Press: 0.5 Torr"}}