{"cas_no": "7612-98-8", "cn_name": "4-N,N-\u4e8c\u7532\u57fa\u6c28\u57fa\u5076\u6c2e\u82ef-4`-\u5f02\u786b-\u6c30\u5316\u7269", "en_name": ["4-N,N-Dimethylaminoazobenzene-4\u2032-isothiocyanate", "Benzenamine, 4-[2-(4-isothiocyanatophenyl)diazenyl]-N,N-dimethyl-", "Isothiocyanic acid, p-[[p-(dimethylamino)phenyl]azo]phenyl ester", "Benzenamine, 4-[(4-isothiocyanatophenyl)azo]-N,N-dimethyl-", "Aniline, p-[(p-isothiocyanatophenyl)azo]-N,N-dimethyl-", "4-[2-(4-Isothiocyanatophenyl)diazenyl]-N,N-dimethylbenzenamine", "4\u2032-Dimethylaminoazobenzene-4-isothiocyanate", "4-Dimethylamino-4\u2032-isothiocyanatoazobenzene", "4-N,N-Dimethylaminoazobenzene-4\u2032-isothiocyanate", "DABITC", "4-Dimethylaminophenylazophenyl-4\u2032-isothiocyanate"], "SMILES": "N(=NC1=CC=C(N=C=S)C=C1)C2=CC=C(N(C)C)C=C2", "physical_data": {"Molecular Weight": "282.36", "Molecular Formula": "C15H14N4S", "Melting Point": "220 \u00b0C"}}