{"cas_no": "7612-96-6", "cn_name": "4-\u82ef\u5076\u6c2e\u786b\u6c30\u9178\u916f", "en_name": ["1-(4-Isothiocyanatophenyl)-2-phenyldiazene", "Diazene, 1-(4-isothiocyanatophenyl)-2-phenyl-", "Isothiocyanic acid, p-(phenylazo)phenyl ester", "Diazene, (4-isothiocyanatophenyl)phenyl-", "1-(4-Isothiocyanatophenyl)-2-phenyldiazene", "Isothiocyanic acid, ester with C.I. Solvent Yellow 7", "Azobenzene-4-isothiocyanate", "4-Isothiocyanatoazobenzene", "4-Phenylazophenyl isothiocyanate", "p-Phenylazophenyl isothiocyanate"], "SMILES": "N(=NC1=CC=CC=C1)C2=CC=C(N=C=S)C=C2", "physical_data": {"Molecular Weight": "239.30", "Molecular Formula": "C13H9N3S", "Melting Point": "95 \u00b0C"}}