{"cas_no": "76135-31-4", "cn_name": "7-(\u4e8c\u4e19\u57fa\u6c28\u57fa)-5,6,7,8-\u56db\u6c22-1-\u8418\u915a\u6c22\u6eb4\u9178\u76d0", "en_name": ["1-Naphthalenol, 7-(dipropylamino)-5,6,7,8-tetrahydro-, hydrobromide (1:1)", "1-Naphthalenol, 7-(dipropylamino)-5,6,7,8-tetrahydro-, hydrobromide (1:1)", "1-Naphthalenol, 7-(dipropylamino)-5,6,7,8-tetrahydro-, hydrobromide", "8-Hydroxy(N,N-dipropyl-2-amino)tetralin hydrobromide", "(\u00b1)-8-OH-DPAT-HBr", "8-Hydroxy-2-dipropylaminotetralin hydrobromide", "2-Dipropylamino-8-hydroxy-1,2,3,4-tetrahydronaphthalene hydrobromide", "8-Hydroxy-DPAT hydrobromide", "ETI 385"], "SMILES": "OC1=C2C(CCC(N(CCC)CCC)C2)=CC=C1.Br", "physical_data": {"Molecular Weight": "", "Molecular Formula": "C16H25NO.BrH", "Melting Point": "221.5-222.0 \u00b0C"}}