{"cas_no": "761446-44-0", "cn_name": "1-\u7532\u57fa-4-(4,4,5,5-\u56db\u7532\u57fa-1,3,2-\u4e8c\u6c27\u6742\u620a\u787c\u70f7-2-\u57fa)-1H-\u5421\u5511", "en_name": ["1-Methyl-4-(4,4,5,5-tetramethyl-1,3,2-dioxaborolan-2-yl)-1H-pyrazole", "1H-Pyrazole, 1-methyl-4-(4,4,5,5-tetramethyl-1,3,2-dioxaborolan-2-yl)-", "1-Methyl-4-(4,4,5,5-tetramethyl-1,3,2-dioxaborolan-2-yl)-1H-pyrazole", "1-Methyl-4-(4,4,5,5-tetramethyl-1,3,2-dioxaborolan-2-yl)pyrazole", "1-Methylpyrazole-4-boronic acid pinacol ester", "2-(1-Methylpyrazol-4-yl)-4,4,5,5-tetramethyl-1,3,2-dioxaborolane", "4-(4,4,5,5-Tetramethyl-1,3,2-dioxaborolan-2-yl)-1-methyl-1H-pyrazole", "1-Methyl-4-(4,4,5,5-tetramethyl-1,3,2-dioxaborolan-2-yl)-1H-pyrazole", "4-(4,4,5,5-Tetramethyl-1,3,2-dioxaborolan-2-yl)-1-methylpyrazole", "1-Methyl-4-(tetramethyl-1,3,2-dioxaborolan-2-yl)-1H-pyrazole", "(1-Methyl-1H-pyrazol-4-yl)boronic acid pinacol ester", "1-Methyl-1H-pyrazole-4-boronic acid pinacol ester", "1-Methyl-4-(4,4,5,5-Tetramethyl-1,3,2-dioxaborolan-2-yl)-1H-pyrazole", "2-(1-Methyl-1H-pyrazol-4-yl)-4,4,5,5-tetramethyl-1,3,2-dioxaborolane"], "SMILES": "CC1(C)OB(OC1(C)C)C2=CN(C)N=C2", "physical_data": {"Molecular Weight": "208.07", "Molecular Formula": "C10H17BN2O2", "Melting Point": "67-69 \u00b0C"}}