{"cas_no": "76141-89-4", "cn_name": "1-(4-\u6c1f\u82c4\u57fa)\u9ad8\u54cc\u55ea", "en_name": ["1-[(4-Fluorophenyl)methyl]hexahydro-1H-1,4-diazepine", "1H-1,4-Diazepine, 1-[(4-fluorophenyl)methyl]hexahydro-", "1-[(4-Fluorophenyl)methyl]hexahydro-1H-1,4-diazepine", "1-(4-Fluorobenzyl)-1,4-diazepane", "1-[(4-Fluorophenyl)methyl]-1,4-diazepane", "1-(4-Fluorobenzyl)homopiperazine"], "SMILES": "C(C1=CC=C(F)C=C1)N2CCCNCC2", "physical_data": {"Molecular Weight": "208.28", "Molecular Formula": "C12H17FN2", "Melting Point": "51-53 \u00b0C"}}