{"cas_no": "761460-03-1", "cn_name": "(R)-4-BOC-3-\u5417\u5549\u4e59\u9178", "en_name": ["(3R)-4-[(1,1-Dimethylethoxy)carbonyl]-3-morpholineacetic acid", "3-Morpholineacetic acid, 4-[(1,1-dimethylethoxy)carbonyl]-, (3R)-", "(3R)-4-[(1,1-Dimethylethoxy)carbonyl]-3-morpholineacetic acid", "(R)-2-[4-(tert-Butoxycarbonyl)morpholin-3-yl]ethanoic acid", "(R)-N-Boc-3-Morpholineaceticacid", "(R)-2-(4-(tert-Butoxycarbonyl)morpholin-3-yl)acetic acid", "2-[(3R)-4-[(2-Methylpropan-2-yl)oxycarbonyl]morpholin-3-yl]acetic acid"], "SMILES": "C(OC(C)(C)C)(=O)N1C(CC(O)=O)COCC1", "physical_data": {"Molecular Weight": "245.27", "Molecular Formula": "C11H19NO5", "Melting Point": "82 \u00b0C"}}