{"cas_no": "7616-94-6", "cn_name": "\u8fc7\u6c2f\u9170\u6c1f", "en_name": ["Perchloryl fluoride", "Perchloryl fluoride ((ClO3)F)", "Perchloryl fluoride", "Chlorine fluoride oxide (ClO3F)", "Chlorine oxyfluoride (ClO3F)", "Trioxychlorofluoride", "Perchloroyl fluoride"], "SMILES": "Cl(F)(=O)(=O)=O", "physical_data": {"Molecular Weight": "102.45", "Molecular Formula": "ClFO3", "Boiling Point": "-46.8 \u00b0C", "Melting Point": "-146 \u00b0C", "Density": "1.4 g/cm\u00b3"}}