{"cas_no": "7617-74-5", "cn_name": "3-\u5341\u4e8c\u70f7\u6c27\u57fa\u4e19\u80fa", "en_name": ["3-(Dodecyloxy)propylamine", "1-Propanamine, 3-(dodecyloxy)-", "Propylamine, 3-(dodecyloxy)-", "3-(Dodecyloxy)-1-propanamine", "3-(Dodecyloxy)propylamine", "3-(Lauryloxy)propylamine", "3-(Dodecyloxy)propanamine", "3-Aminopropyl dodecyl ether", "Laurixamine", "NSC 166448", "Adogen 182", "Dodecyl 3-aminopropyl ether", "3-Dodecoxypropan-1-amine"], "SMILES": "C(CCCCCCCC)CCCOCCCN", "physical_data": {"Molecular Weight": "243.43", "Molecular Formula": "C15H33NO", "Boiling Point": "140 \u00b0C @ Press: 3 Torr"}}