{"cas_no": "76179-40-3", "cn_name": "4,5-\u4e8c\u6c1f\u82ef-1,2-\u4e8c\u80fa", "en_name": ["4,5-Difluoro-1,2-phenylenediamine", "1,2-Benzenediamine, 4,5-difluoro-", "4,5-Difluoro-1,2-benzenediamine", "4,5-Difluoro-o-phenylenediamine", "4,5-Difluoro-1,2-phenylenediamine", "2-Amino-4,5-difluoroaniline", "1,2-Diamino-4,5-difluorobenzene", "1,2-Diamine-4,5-difluorobenzene", "4,5-Difluoro-1,2-diaminobenzene"], "SMILES": "FC1=C(F)C=C(N)C(N)=C1", "physical_data": {"Molecular Weight": "144.12", "Molecular Formula": "C6H6F2N2", "Melting Point": "131-132 \u00b0C"}}