{"cas_no": "76185-65-4", "cn_name": "N,N,N',N'-\u56db(4-\u7532\u82ef\u57fa)-1,1'-\u8054\u82ef-4,4'-\u4e8c\u80fa", "en_name": ["N,N,N\u2032,N\u2032-Tetra(4-methylphenyl)-1,1\u2032-biphenyl-4,4\u2032-diamine", "[1,1\u2032-Biphenyl]-4,4\u2032-diamine, N4,N4,N4\u2032,N4\u2032-tetrakis(4-methylphenyl)-", "[1,1\u2032-Biphenyl]-4,4\u2032-diamine, N,N,N\u2032,N\u2032-tetrakis(4-methylphenyl)-", "Benzidine, N,N,N\u2032,N\u2032-tetra-p-tolyl-", "N,N\u2032,N\u2032\u2032,N\u2032\u2032\u2032-Tetrakis(4-methylphenyl)-(1,1\u2032-biphenyl)-4,4\u2032-diamine", "N,N,N\u2032,N\u2032-Tetra-p-tolyl-(1,1\u2032-biphenyl)-4,4\u2032-diamine", "TTB", "N,N,N\u2032,N\u2032-Tetrakis(4-methylphenyl)benzidine", "OSA 6140", "N,N,N\u2032,N\u2032-Tetra(4-methylphenyl)-1,1\u2032-biphenyl-4,4\u2032-diamine", "Tetra-p-tolylbiphenyl-4,4\u2032-diamine", "T 2269"], "SMILES": "N(C1=CC=C(C=C1)C2=CC=C(N(C3=CC=C(C)C=C3)C4=CC=C(C)C=C4)C=C2)(C5=CC=C(C)C=C5)C6=CC=C(C)C=C6", "physical_data": {"Molecular Weight": "544.73", "Molecular Formula": "C40H36N2", "Melting Point": "210 \u00b0C"}}