{"cas_no": "76189-56-5", "cn_name": "S-(-)-1,1'-\u8054\u8418-2,2'-\u53cc\u4e8c\u82ef\u81a6", "en_name": ["(-)-BINAP", "Phosphine, 1,1\u2032-[(1S)-[1,1\u2032-binaphthalene]-2,2\u2032-diyl]bis[1,1-diphenyl-", "Phosphine, [1,1\u2032-binaphthalene]-2,2\u2032-diylbis[diphenyl-, (S)-", "Phosphine, (1S)-[1,1\u2032-binaphthalene]-2,2\u2032-diylbis[diphenyl-", "1,1\u2032-[(1S)-[1,1\u2032-Binaphthalene]-2,2\u2032-diyl]bis[1,1-diphenylphosphine]", "(-)-BINAP", "(S)-BINAP", "(S)-2,2\u2032-Bis(diphenylphosphino)-1,1\u2032-binaphthyl", "(S)-(-)-2,2\u2032-Bis(diphenylphosphino)-1,1\u2032-binaphthyl", "(S)-(-)-BINAP", "(1S)-[1,1\u2032-Binaphthalene]-2,2\u2032-diylbis[diphenylphosphine]", "(S)-(-)-2,2\u2032-Bis(diphenylphosphino)-1,1\u2032-binaphthalene", "(S)-(-)-(1,1\u2032-Binaphthalene-2,2\u2032-diyl)bis(diphenylphosphine)"], "SMILES": "P(C1=C(C2=C(C=C1)C=CC=C2)C3=C(P(C4=CC=CC=C4)C5=CC=CC=C5)C=CC6=C3C=CC=C6)(C7=CC=CC=C7)C8=CC=CC=C8", "physical_data": {"Molecular Weight": "622.67", "Molecular Formula": "C44H32P2", "Melting Point": "239-241 \u00b0C"}}