{"cas_no": "76180-96-6", "cn_name": "2-\u6c28\u57fa-3-\u7532\u57fa-3H-\u54aa\u5511\u5e76\u55b9\u5549", "en_name": ["2-Amino-3-methylimidazo[4,5-f]quinoline", "3H-Imidazo[4,5-f]quinolin-2-amine, 3-methyl-", "3-Methyl-3H-imidazo[4,5-f]quinolin-2-amine", "2-Amino-3-methylimidazo[4,5-f]quinoline", "IQ", "2-Amino-3-methyl-3H-imidazo[4,5-f]quinoline"], "SMILES": "CN1C2=C(C=3C(C=C2)=NC=CC3)N=C1N", "physical_data": {"Molecular Weight": "198.22", "Molecular Formula": "C11H10N4", "Melting Point": "&gt;300 \u00b0C"}}