{"cas_no": "76196-79-7", "cn_name": "\u4e59\u57fa6-\u6c30\u57fa\u70df\u9178\u916f", "en_name": ["Ethyl 6-cyano-3-pyridinecarboxylate", "3-Pyridinecarboxylic acid, 6-cyano-, ethyl ester", "Nicotinic acid, 6-cyano-, ethyl ester", "Ethyl 6-cyano-3-pyridinecarboxylate", "6-Cyanopyridine-3-carboxylic acid ethyl ester"], "SMILES": "C(OCC)(=O)C=1C=CC(C#N)=NC1", "physical_data": {"Molecular Weight": "176.17", "Molecular Formula": "C9H8N2O2", "Boiling Point": "125 \u00b0C @ Press: 3 Torr", "Melting Point": "55.5-56.5 \u00b0C"}}