{"cas_no": "762-62-9", "cn_name": "4,4-\u4e8c\u7532\u57fa-1-\u620a\u70ef", "en_name": ["4,4-Dimethyl-1-pentene", "1-Pentene, 4,4-dimethyl-", "4,4-Dimethyl-1-pentene", "2,2-Dimethyl-4-pentene", "Neopentylethylene", "4,4-Dimethylpentene-1", "4,4\u2032-Dimethylpentene", "NSC 73923"], "SMILES": "C(C(C)(C)C)C=C", "physical_data": {"Molecular Weight": "98.19", "Molecular Formula": "C7H14", "Boiling Point": "72.5 \u00b0C", "Melting Point": "-136.6 \u00b0C", "Density": "0.6827 g/cm\u00b3 @ Temp: 20 \u00b0C"}}