{"cas_no": "762-99-2", "cn_name": "\u4e8c\u5f02\u4e19\u6c27\u57fa\u4e8c\u6c2f\u5316\u949b", "en_name": ["(T-4)-Dichlorobis(2-propanolato)titanium", "Titanium, dichlorobis(2-propanolato)-, (T-4)-", "Titanium, dichlorodiisopropoxy-", "(T-4)-Dichlorobis(2-propanolato)titanium", "Dichlorodiisopropoxytitanium", "Diisopropoxytitanium dichloride", "Dichlorotitanium diisopropoxide", "Titanium dichloride diisopropoxide", "Bis(isopropoxy)titanium dichloride", "Dichlorobis(isopropoxy)titanium", "Dichlorobis(isopropoxo)titanium", "Dichlorobis(isopropanolato)titanium", "Titanium diisopropoxide dichloride", "Dichlorobis(2-propanolato)titanium", "Dichlorodiisopropoxotitanium", "Titanium dichloride diisopropylate"], "SMILES": "O([Ti](OC(C)C)(Cl)Cl)C(C)C", "physical_data": {"Molecular Weight": "", "Molecular Formula": "C6H14Cl2O2Ti", "Melting Point": "42-43 \u00b0C"}}