{"cas_no": "762-72-1", "cn_name": "\u70ef\u4e19\u57fa\u4e09\u7532\u57fa\u7845\u70f7", "en_name": ["Allyltrimethylsilane", "Silane, trimethyl-2-propen-1-yl-", "Silane, allyltrimethyl-", "Silane, trimethyl-2-propenyl-", "Trimethyl-2-propen-1-ylsilane", "Allyltrimethylsilane", "Trimethylallylsilane", "3-(Trimethylsilyl)propene", "3-(Trimethylsilyl)-1-propene", "Trimethyl(2-propenyl)silane", "SIA 0555.0"], "SMILES": "C([Si](C)(C)C)C=C", "physical_data": {"Molecular Weight": "114.26", "Molecular Formula": "C6H14Si", "Boiling Point": "86 \u00b0C", "Density": "0.719 g/cm\u00b3"}}