{"cas_no": "762-21-0", "cn_name": "\u4e01\u7094\u4e8c\u9178\u4e8c\u4e59\u916f", "en_name": ["Diethyl acetylenedicarboxylate", "2-Butynedioic acid, 1,4-diethyl ester", "Acetylenedicarboxylic acid, diethyl ester", "2-Butynedioic acid, diethyl ester", "Diethyl acetylenedicarboxylate", "Bis(ethoxycarbonyl)acetylene", "Diethyl 2-butynedioate", "Bis(carboethoxy)acetylene", "Diethyl acetylenedicarboxylic acid", "NSC 674446", "NSC 67975", "Diethyl 1,2-acetylenedicarboxylate", "Diethyl butynedioate", "1,4-Diethyl but-2-ynedioate"], "SMILES": "C(C#CC(OCC)=O)(OCC)=O", "physical_data": {"Molecular Weight": "170.16", "Molecular Formula": "C8H10O4", "Boiling Point": "108-118 \u00b0C @ Press: 10 Torr", "Melting Point": "1.5 \u00b0C"}}