{"cas_no": "762-42-5", "cn_name": "\u4e01\u7094\u4e8c\u9178\u4e8c\u7532\u916f", "en_name": ["Dimethyl acetylenedicarboxylate", "2-Butynedioic acid, 1,4-dimethyl ester", "Acetylenedicarboxylic acid, dimethyl ester", "2-Butynedioic acid, dimethyl ester", "Dimethyl acetylenedicarboxylate", "Dimethyl butynedioate", "Dimethyl 2-butynedioate", "Dimethyl 1,2-acetylenedicarboxylate", "1,2-Bis(methoxycarbonyl)acetylene", "Bis(carbomethoxy)acetylene", "Dimethyl butyne-1,4-dioate", "Dimethyl ethynedicarboxylate", "1,2-Bis(methoxycarbonyl)ethyne", "Butynedioic acid dimethyl ester", "Di(carbomethoxy)acetylene", "Bis(methoxycarbonyl)acetylene", "NSC 101119", "NSC 14912", "1,4-Dimethyl but-2-ynedioate"], "SMILES": "C(C#CC(OC)=O)(OC)=O", "physical_data": {"Molecular Weight": "142.11", "Molecular Formula": "C6H6O4", "Boiling Point": "83 \u00b0C @ Press: 5 Torr", "Melting Point": "50-53 \u00b0C"}}