{"cas_no": "762-49-2", "cn_name": "1-\u6eb4-2-\u6c1f\u4e59\u70f7", "en_name": ["Ethane, 1-bromo-2-fluoro-", "Ethane, 1-bromo-2-fluoro-", "1-Bromo-2-fluoroethane", "1-Fluoro-2-bromoethane", "2-Fluoroethyl bromide", "2-Bromofluoroethane", "NSC 172603"], "SMILES": "C(CF)Br", "physical_data": {"Molecular Weight": "126.96", "Molecular Formula": "C2H4BrF", "Boiling Point": "71-72 \u00b0C @ Press: 760 Torr", "Melting Point": "70-72 \u00b0C", "Density": "1.7044 g/cm\u00b3 @ Temp: 25 \u00b0C"}}