{"cas_no": "762-29-8", "cn_name": "\u91d1\u5408\u6b22\u57fa\u4e19\u916e", "en_name": ["6,10,14-Trimethyl-5,9,13-pentadecatrien-2-one", "5,9,13-Pentadecatrien-2-one, 6,10,14-trimethyl-", "6,10,14-Trimethyl-5,9,13-pentadecatrien-2-one", "Farnesalacetone"], "SMILES": "C(=CCCC(=CCCC(C)=O)C)(CCC=C(C)C)C", "physical_data": {"Molecular Weight": "262.43", "Molecular Formula": "C18H30O", "Boiling Point": "120-121 \u00b0C @ Press: 0.45 Torr", "Melting Point": "80.5-81.5 \u00b0C", "Density": "0.8835 g/cm\u00b3 @ Temp: 20 \u00b0C"}}