{"cas_no": "762-51-6", "cn_name": "1-\u6c1f-2-\u7898\u4e59\u70f7", "en_name": ["Ethane, 1-fluoro-2-iodo-", "Ethane, 1-fluoro-2-iodo-", "1-Iodo-2-fluoroethane", "1-Fluoro-2-iodoethane", "2-Iodoethyl fluoride", "2-Fluoroethyl iodide", "2-Fluoro-1-iodoethane"], "SMILES": "C(CI)F", "physical_data": {"Molecular Weight": "173.96", "Molecular Formula": "C2H4FI", "Boiling Point": "98-102 \u00b0C @ Press: 760 Torr", "Density": "2.136 g/cm\u00b3 @ Temp: 25 \u00b0C"}}