{"cas_no": "762-04-9", "cn_name": "\u4e9a\u78f7\u9178\u4e8c\u4e59\u916f", "en_name": ["Diethyl phosphite", "Phosphonic acid, diethyl ester", "Ethyl phosphite, (EtO)2(HO)P", "Diethyl phosphite", "Diethyl hydrogen phosphite", "Diethyl phosphonate", "Hydrogen diethyl phosphite", "Diethyl acid phosphite", "Diethoxyphosphine oxide", "NSC 2665"], "SMILES": "P(OCC)(OCC)=O", "physical_data": {"Molecular Weight": "138.10", "Molecular Formula": "C4H11O3P", "Boiling Point": "138 \u00b0C", "Melting Point": "&lt;25 \u00b0C", "Density": "1.072 g/cm\u00b3"}}