{"cas_no": "762-75-4", "cn_name": "\u7532\u9178\u53d4\u4e01\u916f", "en_name": ["tert-Butyl formate", "Formic acid, 1,1-dimethylethyl ester", "Formic acid, tert-butyl ester", "tert-Butyl alcohol, formate", "tert-Butyl formate", "2-Methyl-2-propyl formate"], "SMILES": "O(C(C)(C)C)C=O", "physical_data": {"Molecular Weight": "102.13", "Molecular Formula": "C5H10O2", "Boiling Point": "75-76 \u00b0C"}}