{"cas_no": "76205-19-1", "cn_name": "1-(4-\u6c2f\u82ef\u57fa)-2H-\u5421\u5511\u5549-3-\u916e", "en_name": ["1-(4-Chlorophenyl)-1,2-dihydro-3H-pyrazol-3-one", "3H-Pyrazol-3-one, 1-(4-chlorophenyl)-1,2-dihydro-", "1-(4-Chlorophenyl)-1,2-dihydro-3H-pyrazol-3-one", "1-(4-Chlorophenyl)-2H-pyrazolin-3-one", "1-(4-Chlorophenyl)-1,2-dihydropyrazol-3-one", "1-(4-Chlorophenyl)pyrazol-3-ol", "1-(4-Chlorophenyl)-3-hydroxypyrazole", "1-(4-Chlorophenyl)-1H-pyrazol-3-ol", "1-(Para-chlorophenyl)-3-hydroxypyrazole", "2-(4-Chlorophenyl)-1H-pyrazol-5-one"], "SMILES": "O=C1NN(C2=CC=C(Cl)C=C2)C=C1", "physical_data": {"Molecular Weight": "194.62", "Molecular Formula": "C9H7ClN2O", "Melting Point": "189-191 \u00b0C (decomp)"}}