{"cas_no": "7620-28-2", "cn_name": "D-2-\u6c28\u57fa\u5df1\u4e8c\u9178", "en_name": ["D-\u03b1-Aminoadipic acid", "Hexanedioic acid, 2-amino-, (2R)-", "Hexanedioic acid, 2-amino-, (R)-(-)-", "Hexanedioic acid, 2-amino-, (R)-", "(2R)-2-Aminohexanedioic acid", "D-(-)-2-Aminohexanedioic acid", "D-\u03b1-Aminoadipic acid", "D-2-Aminoadipic acid", "(R)-2-Aminoadipic acid", "D-Aminoadipic acid", "(R)-2-Aminohexanedioic acid", "(2R)-2-Aminohexanedioic acid"], "SMILES": "C(C(C(O)=O)N)CCC(O)=O", "physical_data": {"Molecular Weight": "161.16", "Molecular Formula": "C6H11NO4", "Melting Point": "205-207 \u00b0C"}}