{"cas_no": "7620-77-1", "cn_name": "12-\u7f9f\u57fa\u5341\u516b\u70f7\u9178\u5355\u9502", "en_name": ["Lithium 12-hydroxystearate", "Octadecanoic acid, 12-hydroxy-, lithium salt (1:1)", "Octadecanoic acid, 12-hydroxy-, monolithium salt", "Lithium 12-hydroxystearate", "12-Hydroxystearic acid lithium salt", "Lithium 12-hydroxyoctadecanoate", "Daiwax OHL", "OHL", "S 700H", "LS 6", "S 7000H", "NLGI 3", "Ligastar LI 12 OXY"], "SMILES": "C(CCCCCCCCCCC(O)=O)(CCCCCC)O.[Li]", "physical_data": {"Molecular Weight": "", "Molecular Formula": "C18H36O3.Li", "Melting Point": "200 \u00b0C"}}