{"cas_no": "7621-86-5", "cn_name": "2-(4-\u6c28\u57fa\u82ef\u57fa)-5-\u6c28\u57fa\u82ef\u5e76\u54aa\u5511(APBIA)", "en_name": ["2-(4-Aminophenyl)-5-aminobenzimidazole", "1H-Benzimidazol-6-amine, 2-(4-aminophenyl)-", "Benzimidazole, 5-amino-2-(p-aminophenyl)-", "1H-Benzimidazol-5-amine, 2-(4-aminophenyl)-", "Benzimidazole, 5(or 6)-amino-2-(p-aminophenyl)-", "2-(4-Aminophenyl)-1H-benzimidazol-6-amine", "5-Amino-2-(p-aminophenyl)benzimidazole", "5,4\u2032-Diamino-2-phenylbenzimidazole", "2-(4-Aminophenyl)-5-aminobenzimidazole", "5-Amino-2-(4-aminophenyl)benzimidazole", "5(6)-Amino-2-(p-aminophenyl)benzimidazole", "5(6)-Amino-2-(4\u2032-aminophenyl)benzimidazole", "NSC 408148", "6,4\u2032-Diamino-2-phenylbenzimidazole", "5-Amino-2-(4-aminobenzene)benzimidazole", "5-Amino-2-(4-aminophenyl)-1H-benzimidazole", "BIA", "2-(4-Aminophenyl)-1H-benzimidazol-5-amine", "2-(4-Aminophenyl)-1H-benzimidazole-5-amine", "5-Amino-2-(4-aminophenyl)benzylimidazole", "2-(4-Aminophenyl)-1H-1,3-benzodiazol-6-amine", "2-(4-Amino-phenyl)-1H-benzoimidazol-5-ylamine", "2-(4-Aminophenyl)-1H-1,3-benzodiazol-5-amine", "2-(4-Aminophenyl)-3H-benzimidazol-5-amine", "2-(4-Aminophenyl)-1H-benzo[d]imidazol-5-amine", "2-(4-Aminophenyl)-1H-benzo[d]imidazol-6-amine"], "SMILES": "NC1=CC=C(C=2NC=3C(N2)=CC(N)=CC3)C=C1", "physical_data": {"Molecular Weight": "224.26", "Molecular Formula": "C13H12N4", "Melting Point": "&gt;320 \u00b0C"}}