{"cas_no": "762240-92-6", "cn_name": "3-(\u4e09\u6c1f\u7532\u57fa)-5,6,7,8-\u56db\u6c22-[1,2,4]\u4e09\u5511\u5e76[4,3-a]\u5421\u55ea\u76d0\u9178\u76d0", "en_name": ["3-(Trifluoromethyl)-5,6,7,8-tetrahydro-[1,2,4]triazolo[4,3-a]pyrazine hydrochloride", "1,2,4-Triazolo[4,3-a]pyrazine, 5,6,7,8-tetrahydro-3-(trifluoromethyl)-, hydrochloride (1:1)", "1,2,4-Triazolo[4,3-a]pyrazine, 5,6,7,8-tetrahydro-3-(trifluoromethyl)-, monohydrochloride", "3-(Trifluoromethyl)-5,6,7,8-tetrahydro-[1,2,4]triazolo[4,3-a]pyrazine hydrochloride", "3-(Trifluoromethyl)-5,6,7,8-tetrahydro[1,2,4]triazolo[4,3-a]pyrazine monohydrochloride"], "SMILES": "C(F)(F)(F)C=1N2C(=NN1)CNCC2.Cl", "physical_data": {"Molecular Weight": "", "Molecular Formula": "C6H7F3N4.ClH", "Melting Point": "264 \u00b0C (decomp)"}}