{"cas_no": "762287-58-1", "cn_name": "2-\u6c1f-3-\u7532\u57fa\u82ef\u787c\u9178", "en_name": ["2-Fluoro-3-methylphenylboronic acid", "Boronic acid, B-(2-fluoro-3-methylphenyl)-", "Boronic acid, (2-fluoro-3-methylphenyl)-", "B-(2-Fluoro-3-methylphenyl)boronic acid", "2-Fluoro-3-methylphenylboronic acid"], "SMILES": "B(O)(O)C1=C(F)C(C)=CC=C1", "physical_data": {"Molecular Weight": "153.95", "Molecular Formula": "C7H8BFO2", "Melting Point": "160-161 \u00b0C"}}