{"cas_no": "7622-29-9", "cn_name": ".", "en_name": ["L-Lysine, N6-methyl-, hydrochloride (1:1)", "L-Lysine, N6-methyl-, hydrochloride (1:1)", "Lysine, N6-methyl-, monohydrochloride, L-", "L-Lysine, N6-methyl-, monohydrochloride", "Lysine, N6-methyl-, hydrochloride"], "SMILES": "C(CCCCNC)(C(O)=O)N.Cl", "physical_data": {"Molecular Weight": "", "Molecular Formula": "C7H16N2O2.ClH", "Melting Point": "254-255 \u00b0C (decomp)"}}