{"cas_no": "7623-13-4", "cn_name": "2,3-\u4e8c\u6c2f\u4e19\u9170\u6c2f", "en_name": ["2,3-Dichloropropanoyl chloride", "Propanoyl chloride, 2,3-dichloro-", "Propionyl chloride, 2,3-dichloro-", "2,3-Dichloropropanoyl chloride", "2,3-Dichloropropionyl chloride", "\u03b1,\u03b2-Dichloropropionyl chloride", "\u03b1,\u03b2-Dichloropropionic acid chloride"], "SMILES": "C(C(Cl)=O)(CCl)Cl", "physical_data": {"Molecular Weight": "161.41", "Molecular Formula": "C3H3Cl3O", "Boiling Point": "140-144 \u00b0C @ Press: 720 Torr"}}