{"cas_no": "7623-09-8", "cn_name": "2-\u6c2f\u4e19\u9170\u6c2f", "en_name": ["2-Chloropropanoyl chloride", "Propanoyl chloride, 2-chloro-", "Propionyl chloride, 2-chloro-", "2-Chloropropanoyl chloride", "2-Chloropropionyl chloride", "\u03b1-Chloropropionyl chloride", "\u03b1-Chloropropanoyl chloride", "\u03b1-Chloropropionic acid chloride", "\u03b1-Methylchloroacetyl chloride", "(\u00b1)-2-Chloropropionyl chloride", "2-Chloro-2-methylacetyl chloride"], "SMILES": "C(C(Cl)=O)(C)Cl", "physical_data": {"Molecular Weight": "126.97", "Molecular Formula": "C3H4Cl2O", "Boiling Point": "107-110 \u00b0C"}}