{"cas_no": "76241-79-7", "cn_name": "3-\u6c2f\u90bb\u82ef\u4e8c\u8148", "en_name": ["3-Chloro-1,2-benzenedicarbonitrile", "1,2-Benzenedicarbonitrile, 3-chloro-", "3-Chloro-1,2-benzenedicarbonitrile", "3-Chlorophthalonitrile", "3-Chlorophthalodinitrile", "3-Chloro-1,2-dicyanobenzene"], "SMILES": "C(#N)C1=C(C#N)C(Cl)=CC=C1", "physical_data": {"Molecular Weight": "162.58", "Molecular Formula": "C8H3ClN2", "Melting Point": "111-112.6 \u00b0C"}}