{"cas_no": "7627-38-5", "cn_name": "2,4-\u4e8c\u6c2f-5-(\u6c2f\u7532\u57fa)\u5627\u5576", "en_name": ["2,4-Dichloro-5-(chloromethyl)pyrimidine", "Pyrimidine, 2,4-dichloro-5-(chloromethyl)-", "2,4-Dichloro-5-(chloromethyl)pyrimidine", "2,4-Dichloro-5-chloromethylpyrimidine"], "SMILES": "C(Cl)C=1C(Cl)=NC(Cl)=NC1", "physical_data": {"Molecular Weight": "197.45", "Molecular Formula": "C5H3Cl3N2", "Boiling Point": "90-100 \u00b0C @ Press: 1 x 10<sup>-3</sup> Torr", "Melting Point": "62-63 \u00b0C"}}