{"cas_no": "7627-39-6", "cn_name": "2,4-\u4e8c\u6c2f-5-(\u4e59\u6c27\u57fa\u7532\u57fa)\u5627\u5576", "en_name": ["2,4-Dichloro-5-(ethoxymethyl)pyrimidine", "Pyrimidine, 2,4-dichloro-5-(ethoxymethyl)-", "2,4-Dichloro-5-(ethoxymethyl)pyrimidine"], "SMILES": "C(OCC)C=1C(Cl)=NC(Cl)=NC1", "physical_data": {"Molecular Weight": "207.06", "Molecular Formula": "C7H8Cl2N2O", "Boiling Point": "80-90 \u00b0C @ Press: 1 x 10<sup>-3</sup> Torr"}}