{"cas_no": "76272-34-9", "cn_name": "N-\u82c4\u57fa\u6258\u54c1\u916e\u809f", "en_name": ["8-Benzyl-8-azabicyclo[3.2.1]octan-3-one oxime", "8-Azabicyclo[3.2.1]octan-3-one, 8-(phenylmethyl)-, oxime", "8-Benzyl-3-nortropanone oxime", "8-Benzyl-8-azabicyclo[3.2.1]octan-3-one oxime", "N-Benzyltropinone oxime"], "SMILES": "C(N1C2CC(=NO)CC1CC2)C3=CC=CC=C3", "physical_data": {"Molecular Weight": "230.31", "Molecular Formula": "C14H18N2O", "Melting Point": "124 \u00b0C"}}