{"cas_no": "76280-91-6", "cn_name": "\u53f6\u67af\u915e", "en_name": ["Tecloftalam", "Benzoic acid, 2,3,4,5-tetrachloro-6-[[(2,3-dichlorophenyl)amino]carbonyl]-", "2,3,4,5-Tetrachloro-6-[[(2,3-dichlorophenyl)amino]carbonyl]benzoic acid", "Techlofthalam", "Shirahagen S", "Tecloftalam", "2,3,4,5-Tetrachloro-6-((2,3-dichlorophenyl)carbamoyl)benzoicacid"], "SMILES": "C(NC1=C(Cl)C(Cl)=CC=C1)(=O)C2=C(C(O)=O)C(Cl)=C(Cl)C(Cl)=C2Cl", "physical_data": {"Molecular Weight": "447.91", "Molecular Formula": "C14H5Cl6NO3", "Melting Point": "198.5 \u00b0C"}}