{"cas_no": "763-30-4", "cn_name": "2-\u7532\u57fa-1,4-\u620a\u4e8c\u70ef", "en_name": ["2-Methyl-1,4-pentadiene", "1,4-Pentadiene, 2-methyl-", "2-Methyl-1,4-pentadiene"], "SMILES": "C(C(C)=C)C=C", "physical_data": {"Molecular Weight": "82.14", "Molecular Formula": "C6H10", "Boiling Point": "56 \u00b0C", "Density": "0.6932 g/cm\u00b3 @ Temp: 20 \u00b0C"}}