{"cas_no": "763-32-6", "cn_name": "3-\u7532\u57fa-3-\u4e01\u70ef-1-\u9187", "en_name": ["3-Methyl-3-buten-1-ol", "3-Buten-1-ol, 3-methyl-", "3-Methyl-3-buten-1-ol", "3-Isopentenyl alcohol", "2-Methyl-1-buten-4-ol", "Isobutenylcarbinol", "Isopropenylethyl alcohol", "Methallylcarbinol", "3-Methylenebutan-1-ol", "3-Methyl-3-butenol", "2-Methyl-4-hydroxy-1-butene", "Isoprenol", "3-Methyl-3-butene-1-ol", "4-Hydroxy-2-methyl-1-butene", "NSC 122673", "Isoprenyl alcohol"], "SMILES": "C(C(C)=C)CO", "physical_data": {"Molecular Weight": "86.13", "Molecular Formula": "C5H10O", "Boiling Point": "132 \u00b0C", "Melting Point": "128-129 \u00b0C", "Density": "0.8509 g/cm\u00b3 @ Temp: 20 \u00b0C"}}