{"cas_no": "763-29-1", "cn_name": "2-\u7532\u57fa-1-\u620a\u70ef", "en_name": ["2-Methyl-1-pentene", "1-Pentene, 2-methyl-", "2-Methyl-1-pentene", "4-Methyl-4-pentene", "NSC 73908"], "SMILES": "C(C(C)=C)CC", "physical_data": {"Molecular Weight": "84.16", "Molecular Formula": "C6H12", "Boiling Point": "62.1 \u00b0C", "Melting Point": "-135.7 \u00b0C", "Density": "0.6831 g/cm\u00b3 @ Temp: 20 \u00b0C"}}