{"cas_no": "763-69-9", "cn_name": "3-\u4e59\u6c27\u57fa\u4e19\u9178\u4e59\u916f", "en_name": ["Ethyl 3-ethoxypropionate", "Propanoic acid, 3-ethoxy-, ethyl ester", "Propionic acid, 3-ethoxy-, ethyl ester", "Ethyl \u03b2-ethoxypropionate", "Ethyl 3-ethoxypropionate", "3-Ethoxypropionic acid ethyl ester", "Ethyl 3-ethoxypropanoate", "Ethyl 4-oxahexanoate", "Ektapro EEP", "Ucar Ester EEP", "NSC 8870", "Sankio EEP", "Ethyl ethoxypropionate", "Solfine EP", "\u03b2-Ethoxypropionic acid ethyl ester", "Powerblox SV 33"], "SMILES": "C(C(OCC)=O)COCC", "physical_data": {"Molecular Weight": "146.18", "Molecular Formula": "C7H14O3", "Boiling Point": "49.5-49.8 \u00b0C @ Press: 7 Torr", "Density": "0.9536 g/cm\u00b3 @ Temp: 15 \u00b0C"}}