{"cas_no": "76308-26-4", "cn_name": "\u53cd\u5f0f-2-(4-\u6c28\u57fa\u73af\u5df1\u57fa)\u4e59\u9178\u4e59\u916f\u76d0\u9178\u76d0", "en_name": ["(trans-4-Aminocyclohexyl)acetic acid ethyl ester hydrochloride", "Cyclohexaneacetic acid, 4-amino-, ethyl ester, hydrochloride (1:1), trans-", "Cyclohexaneacetic acid, 4-amino-, ethyl ester, hydrochloride, trans-", "(trans-4-Aminocyclohexyl)acetic acid ethyl ester hydrochloride", "trans-2-(4-Aminocyclohexyl)acetic acid ethyl ester hydrochloride", "Ethyl 2-(trans-4-aminocyclohexyl)acetate hydrochloride"], "SMILES": "C(C(OCC)=O)C1CCC(N)CC1.Cl", "physical_data": {"Molecular Weight": "", "Molecular Formula": "C10H19NO2.ClH", "Melting Point": "173-176 \u00b0C"}}