{"cas_no": "7631-99-4", "cn_name": "\u785d\u9178\u94a0", "en_name": ["Sodium nitrate", "Nitric acid sodium salt (1:1)", "Nitric acid sodium salt", "Sodium nitrate (1:1)", "Soda niter", "Sodium nitrate", "Saltpeter (Chile)", "Chile saltpeter", "Nitric acid, sodium salt", "E 251", "Chile niter", "Niter (Chile)", "Na2NO3"], "SMILES": "N(=O)(=O)O.[Na]", "physical_data": {"Molecular Weight": "", "Molecular Formula": "HNO3.Na", "Melting Point": "308 \u00b0C", "Density": "2.26 g/cm\u00b3"}}