{"cas_no": "763114-26-7", "cn_name": "5-[(3,4-\u4e8c\u6c22-4-\u6c27\u4ee3-1-\u915e\u55ea\u57fa)\u7532\u57fa]-2-\u6c1f\u82ef\u7532\u9178", "en_name": ["2-Fluoro-5-(4-oxo-3,4-dihydrophthalazin-1-ylmethyl)benzoic acid", "Benzoic acid, 5-[(3,4-dihydro-4-oxo-1-phthalazinyl)methyl]-2-fluoro-", "5-[(3,4-Dihydro-4-oxo-1-phthalazinyl)methyl]-2-fluorobenzoic acid", "2-Fluoro-5-(4-oxo-3,4-dihydrophthalazin-1-ylmethyl)benzoic acid", "2-Fluoro-5-[(4-oxo-3H-phthalazin-1-yl)methyl]benzoic acid"], "SMILES": "C(C=1C=2C(C(=O)NN1)=CC=CC2)C3=CC(C(O)=O)=C(F)C=C3", "physical_data": {"Molecular Weight": "298.27", "Molecular Formula": "C16H11FN2O3", "Melting Point": "&gt;300 \u00b0C"}}