{"cas_no": "7631-95-0", "cn_name": "\u94bc\u9178\u94a0", "en_name": ["Sodium molybdate (Na2MoO4)", "Molybdate (MoO42-), sodium (1:2), (T-4)-", "Molybdic acid (H2MoO4), disodium salt", "Molybdate (MoO42-), disodium, (T-4)-", "Disodium molybdate", "Sodium molybdenum oxide (Na2MoO4)", "Sodium molybdate (Na2MoO4)", "Disodium molybdate (Na2MoO4)", "Disodium tetraoxomolybdate(2-)", "Sodium molybdate", "Sodium tetraoxomolybdate(2-)", "Sodium molybdenate (Na2MoO4)", "Disodium tetraoxomolybdate", "Molybdenum sodium oxide (Na2MoO4)", "NSC 77389", "Molybdenum sodium oxide (MoNa2O4)", "HS 458"], "SMILES": "[Mo-2](=O)(=O)(=O)=O.[Na+]", "physical_data": {"Molecular Weight": "", "Molecular Formula": "MoO4.2Na", "Melting Point": "685 \u00b0C"}}