{"cas_no": "7632-00-0", "cn_name": "\u4e9a\u785d\u9178\u94a0", "en_name": ["Sodium nitrite", "Nitrous acid, sodium salt (1:1)", "Nitrous acid, sodium salt", "Anti-Rust", "Filmerine", "Sodium nitrite", "Synfat 1004", "Sodium nitrite (NaNO2)", "Erinitrit", "M 138C", "E 250", "SNS 40", "Nitrous Acid Soda", "Nitrogen dioxide, sodium salt (1:1)", "Accel XP", "Accel 2000H", "SN 1305", "MeSH ID: D012977"], "SMILES": "N(=O)O.[Na]", "physical_data": {"Molecular Weight": "", "Molecular Formula": "HNO2.Na", "Melting Point": "271 \u00b0C", "Density": "2.26 g/cm\u00b3"}}