{"cas_no": "7632-51-1", "cn_name": "\u56db\u6c2f\u5316\u9492", "en_name": ["Vanadium tetrachloride", "Vanadium chloride (VCl4), (T-4)-", "Vanadium chloride (VCl4)", "Vanadium tetrachloride", "Vanadium(IV) chloride", "Tetrachlorovanadium"], "SMILES": "[V](Cl)(Cl)(Cl)Cl", "physical_data": {"Molecular Weight": "", "Molecular Formula": "Cl4V", "Boiling Point": "148 \u00b0C", "Melting Point": "-25.7 \u00b0C", "Density": "1.816 g/cm\u00b3 @ Temp: 20 \u00b0C"}}