{"cas_no": "76350-90-8", "cn_name": "3-\u7f9f\u7532\u57fa-2-\u7532\u57fa\u8054\u82ef", "en_name": ["2-Methyl[1,1\u2032-biphenyl]-3-methanol", "[1,1\u2032-Biphenyl]-3-methanol, 2-methyl-", "2-Methyl[1,1\u2032-biphenyl]-3-methanol", "3-Hydroxymethyl-2-methylbiphenyl", "2-Methyl-3-phenylbenzyl alcohol", "2-Methylbiphenyl-3-ylmethanol", "(2-Methyl-3-phenylphenyl)methanol", "(2-Methyl-[1,1\u2032-biphenyl]-3-yl)methanol"], "SMILES": "CC1=C(C=CC=C1CO)C2=CC=CC=C2", "physical_data": {"Molecular Weight": "198.26", "Molecular Formula": "C14H14O", "Melting Point": "59-60 \u00b0C"}}