{"cas_no": "7635-29-2", "cn_name": "4-\u7532\u6c27\u57fa\u82ef\u4e19\u6c28\u9178", "en_name": ["O-Methyltyrosine", "Tyrosine, O-methyl-", "Alanine, 3-(p-methoxyphenyl)-, DL-", "DL-Tyrosine, O-methyl-", "O-Methyltyrosine", "p-Methoxy-DL-phenylalanine", "O-Methyl-DL-tyrosine", "Phenylalanine, 4-methoxy-", "4-Methoxyphenylalanine", "DL-o-Methyltyrosine", "DL-4-Methoxyphenylalanine", "NSC 101132", "\u03b1-Amino-4-methoxybenzenepropanoic acid", "2-Amino-3-(4-methoxyphenyl)propanoic acid", "2-Amino-3-(4-methoxyphenyl)propanoicacid"], "SMILES": "C(C(C(O)=O)N)C1=CC=C(OC)C=C1", "physical_data": {"Molecular Weight": "195.22", "Molecular Formula": "C10H13NO3", "Melting Point": "285-287 \u00b0C (decomp)"}}