{"cas_no": "7635-11-2", "cn_name": "L-\u963f\u6d1b\u7cd6", "en_name": ["L-Allose", "L-Allose", "Allose, L-"], "SMILES": "C(C(C(C=O)O)O)(C(CO)O)O", "physical_data": {"Molecular Weight": "180.16", "Molecular Formula": "C6H12O6", "Melting Point": "128-129 \u00b0C"}}