{"cas_no": "7636-26-2", "cn_name": "2-\u6c28\u57fa-3-(4-\u7f9f\u57fa-3-\u7532\u6c27\u57fa\u82ef\u57fa)\u4e19\u9178", "en_name": ["3-Methoxy-dl-tyrosine", "Tyrosine, 3-methoxy-", "Alanine, 3-(4-hydroxy-3-methoxyphenyl)-", "3-Methoxytyrosine", "3-Methoxy-4-hydroxyphenylalanine", "3-(4-Hydroxy-3-methoxyphenyl)alanine", "4-Hydroxy-3-methoxyphenylalanine", "DL-3-Methoxy-4-hydroxyphenylalanine", "3-Methoxy-dl-tyrosine", "DL-3-O-Methyldopa", "DL-3-Methoxytyrosine", "NSC 122476", "2-Amino-3-(4-hydroxy-3-methoxyphenyl)propanoic acid", "3-Methoxy-D,L-tyrosine"], "SMILES": "C(C(C(O)=O)N)C1=CC(OC)=C(O)C=C1", "physical_data": {"Molecular Weight": "211.21", "Molecular Formula": "C10H13NO4", "Melting Point": "268 \u00b0C (decomp)"}}