{"cas_no": "7637-07-2", "cn_name": "\u4e09\u6c1f\u5316\u787c", "en_name": ["Boron trifluoride", "Borane, trifluoro-", "Boron fluoride (BF3)", "Trifluoroborane", "Boron fluoride", "Boron trifluoride", "Trifluoroboron", "ANCA 1040"], "SMILES": "B(F)(F)F", "physical_data": {"Molecular Weight": "67.81", "Molecular Formula": "BF3", "Boiling Point": "-99.9 \u00b0C", "Melting Point": "-126.8 \u00b0C"}}