{"cas_no": "764-01-2", "cn_name": "2-\u4e01\u7094-1-\u9187", "en_name": ["2-Butyn-1-ol", "2-Butyn-1-ol", "2-Butynol", "2-Butynyl alcohol", "1-Hydroxybut-2-yne", "NSC 222371", "3-Methylprop-2-yn-1-ol"], "SMILES": "C(#CC)CO", "physical_data": {"Molecular Weight": "70.09", "Molecular Formula": "C4H6O", "Boiling Point": "148 \u00b0C", "Melting Point": "-2.2 \u00b0C", "Density": "0.958 g/cm\u00b3 @ Temp: 21 \u00b0C"}}