{"cas_no": "764-48-7", "cn_name": "2-\u4e59\u70ef\u6c27\u57fa\u4e59\u9187", "en_name": ["Hydroxyethyl vinyl ether", "Ethanol, 2-(ethenyloxy)-", "Ethanol, 2-(vinyloxy)-", "2-(Ethenyloxy)ethanol", "Ethylene glycol vinyl ether", "Ethylene glycol monovinyl ether", "2-(Vinyloxy)ethanol", "2-Hydroxyethyl vinyl ether", "Vinyloxyethanol", "Monovinyl glycol ether", "Hydroxyethyl vinyl ether", "2-Vinyloxy-1-ethanol", "2-(Ethenyloxy)ethan-1-ol", "2-Ethenoxyethanol"], "SMILES": "C(OC=C)CO", "physical_data": {"Molecular Weight": "88.11", "Molecular Formula": "C4H8O2", "Boiling Point": "141.6 \u00b0C", "Density": "0.9821 g/cm\u00b3 @ Temp: 20 \u00b0C"}}