{"cas_no": "764-67-0", "cn_name": "2-\u7f9f\u57fa\u5341\u516d\u70f7\u9178", "en_name": ["2-Hydroxyhexadecanoic acid", "Hexadecanoic acid, 2-hydroxy-", "2-Hydroxyhexadecanoic acid", "\u03b1-Hydroxypalmitic acid", "2-Hydroxypalmitic acid", "\u03b1-Hydroxyhexadecanoic acid", "(\u00b1)-\u03b1-Hydroxypalmitic acid", "DL-2-Hydroxypalmitic acid", "(\u00b1)-2-Hydroxyhexadecanoic acid", "DL-2-Hydroxyhexadecanoic acid", "NSC 2097"], "SMILES": "C(CCCCCCCCCCCC)CC(C(O)=O)O", "physical_data": {"Molecular Weight": "272.42", "Molecular Formula": "C16H32O3", "Melting Point": "93.5 \u00b0C"}}