{"cas_no": "764-42-1", "cn_name": "\u53cd\u4e01\u70ef\u4e8c\u8148", "en_name": ["(2E)-2-Butenedinitrile", "2-Butenedinitrile, (2E)-", "Fumaronitrile", "2-Butenedinitrile, (E)-", "(2E)-2-Butenedinitrile", "trans-Dicyanoethylene", "Fumaric nitrile", "trans-1,2-Dicyanoethylene", "Fumarodinitrile", "trans-1,2-Dicyanoethene", "(E)-1,2-Dicyanoethylene", "trans-Butenedinitrile", "trans-Dicyanobutene", "Fumaric dinitrile", "NSC 17555", "(E)-2-Butenedinitrile"], "SMILES": "C(=CC#N)C#N", "physical_data": {"Molecular Weight": "78.07", "Molecular Formula": "C4H2N2", "Boiling Point": "186 \u00b0C", "Melting Point": "96.8 \u00b0C", "Density": "0.9416 g/cm\u00b3 @ Temp: 110.8 \u00b0C"}}