{"cas_no": "764-37-4", "cn_name": "OXY-3-PENTENE", "en_name": ["(3E)-3-Penten-1-ol", "3-Penten-1-ol, (3E)-", "3-Penten-1-ol, (E)-", "3-Penten-1-ol, trans-", "(3E)-3-Penten-1-ol", "trans-3-Penten-1-ol", "(E)-3-Penten-1-ol", "(E)-Pent-3-en-1-ol"], "SMILES": "C(CCO)=CC", "physical_data": {"Molecular Weight": "86.13", "Molecular Formula": "C5H10O", "Boiling Point": "136-137 \u00b0C", "Density": "0.8467 g/cm\u00b3 @ Temp: 20 \u00b0C"}}