{"cas_no": "764-99-8", "cn_name": "\u4e8c\u4e59\u4e8c\u9187\u4e8c\u4e59\u70ef\u57fa\u919a", "en_name": ["Diethylene glycol divinyl ether", "Ethene, 1,1\u2032-[oxybis(2,1-ethanediyloxy)]bis-", "Ether, bis[2-(vinyloxy)ethyl]", "1,1\u2032-[Oxybis(2,1-ethanediyloxy)]bis[ethene]", "Diethylene glycol divinyl ether", "3,6,9-Trioxaundeca-1,10-diene", "Bis[2-(vinyloxy)ethyl] ether", "Divinylcarbitol", "Rapi-Cure DVE 2", "NSC 6117", "DEGV", "DEGDVE", "1-Ethenoxy-2-(2-ethenoxyethoxy)ethane", "D 0498", "DVE 2"], "SMILES": "O(CCOC=C)CCOC=C", "physical_data": {"Molecular Weight": "158.20", "Molecular Formula": "C8H14O3", "Boiling Point": "100-110 \u00b0C @ Press: 18 Torr", "Density": "0.9712 g/cm\u00b3 @ Temp: 20 \u00b0C"}}