{"cas_no": "764-52-3", "cn_name": "TRIFLUOROMETHIONINE", "en_name": ["S-(Trifluoromethyl)-L-homocysteine", "L-Homocysteine, S-(trifluoromethyl)-", "Butyric acid, 2-amino-4-[(trifluoromethyl)thio]-, (S)-", "Butyric acid, 2-amino-4-[(trifluoromethyl)thio]-", "S-(Trifluoromethyl)-L-homocysteine", "S-Trifluoromethyl-L-homocysteine", "Trifluoro-L-methionine", "Trifluoromethionine", "(2S)-2-Amino-4-[(trifluoromethyl)sulfanyl]butanoic acid"], "SMILES": "C(CC(C(O)=O)N)SC(F)(F)F", "physical_data": {"Molecular Weight": "203.18", "Molecular Formula": "C5H8F3NO2S", "Melting Point": "227-228 \u00b0C"}}