{"cas_no": "764-89-6", "cn_name": "8-\u7f9f\u57fa\u8f9b\u9178", "en_name": ["8-Hydroxyoctanoic acid", "Octanoic acid, 8-hydroxy-", "8-Hydroxyoctanoic acid", "8-Hydroxycaprylic acid"], "SMILES": "C(CCCCO)CCC(O)=O", "physical_data": {"Molecular Weight": "160.21", "Molecular Formula": "C8H16O3", "Melting Point": "51-51.5 \u00b0C"}}