{"cas_no": "764-47-6", "cn_name": "\u6b63\u4e19\u57fa\u4e59\u70ef\u57fa\u919a", "en_name": ["Propyl vinyl ether", "Propane, 1-(ethenyloxy)-", "Ether, propyl vinyl", "1-(Ethenyloxy)propane", "Propyl vinyl ether", "Propoxyethene", "Vinyl propyl ether", "Propoxyethylene", "n-Propyl vinyl ether", "1-(Vinyloxy)propane", "1-Ethenoxypropane"], "SMILES": "C(OC=C)CC", "physical_data": {"Molecular Weight": "86.13", "Molecular Formula": "C5H10O", "Boiling Point": "65 \u00b0C", "Density": "0.7668 g/cm\u00b3 @ Temp: 20 \u00b0C"}}