{"cas_no": "764-35-2", "cn_name": "2-\u5df2\u7094", "en_name": ["2-Hexyne", "2-Hexyne", "1-Methyl-2-propylacetylene", "Methyl(propyl)acetylene"], "SMILES": "C(C#CC)CC", "physical_data": {"Molecular Weight": "82.14", "Molecular Formula": "C6H10", "Boiling Point": "84.5 \u00b0C", "Melting Point": "-89.6 \u00b0C", "Density": "0.7352 g/cm\u00b3 @ Temp: 15 \u00b0C"}}