{"cas_no": "764-41-0", "cn_name": "1,4-\u4e8c\u6c2f-2-\u4e01\u70ef", "en_name": ["1,4-Dichloro-2-butene", "2-Butene, 1,4-dichloro-", "1,4-Dichloro-2-butene", "NSC 9452"], "SMILES": "C(=CCCl)CCl", "physical_data": {"Molecular Weight": "125.00", "Molecular Formula": "C4H6Cl2", "Boiling Point": "158 \u00b0C", "Melting Point": "3.5 \u00b0C", "Density": "1.1858 g/cm\u00b3"}}