{"cas_no": "764-60-3", "cn_name": "2-\u5df1\u7094-1-\u9187", "en_name": ["2-Hexyn-1-ol", "2-Hexyn-1-ol", "2-Hexynol"], "SMILES": "C(CCC)#CCO", "physical_data": {"Molecular Weight": "98.14", "Molecular Formula": "C6H10O", "Boiling Point": "87-89 \u00b0C @ Press: 58 Torr", "Density": "0.8943 g/cm\u00b3 @ Temp: 20 \u00b0C"}}