{"cas_no": "764-13-6", "cn_name": "2,5-\u4e8c\u7532\u57fa-2,4-\u5df1\u4e8c\u70ef", "en_name": ["2,5-Dimethyl-2,4-hexadiene", "2,4-Hexadiene, 2,5-dimethyl-", "2,5-Dimethyl-2,4-hexadiene", "Biisobutenyl", "Biisocrotyl", "Diisocrotyl", "NSC 10812", "1,1,4,4-Tetramethylbuta-1,3-diene"], "SMILES": "C(C=C(C)C)=C(C)C", "physical_data": {"Molecular Weight": "110.20", "Molecular Formula": "C8H14", "Boiling Point": "134.5 \u00b0C", "Melting Point": "14 \u00b0C", "Density": "0.7646 g/cm\u00b3 @ Temp: 17.8 \u00b0C"}}