{"cas_no": "764-93-2", "cn_name": "1-\u7678\u7094", "en_name": ["1-Decyne", "1-Decyne", "Octylacetylene", "n-Octylacetylene"], "SMILES": "C(CCCC#C)CCCC", "physical_data": {"Molecular Weight": "138.25", "Molecular Formula": "C10H18", "Boiling Point": "174 \u00b0C", "Melting Point": "-44 \u00b0C", "Density": "0.791 g/cm\u00b3"}}