{"cas_no": "764-33-0", "cn_name": "2-\u5df1\u7094\u9178", "en_name": ["2-Hexynoic acid", "2-Hexynoic acid"], "SMILES": "C(#CCCC)C(O)=O", "physical_data": {"Molecular Weight": "112.13", "Molecular Formula": "C6H8O2", "Boiling Point": "119-120 \u00b0C @ Press: 16 Torr", "Melting Point": "27 \u00b0C"}}