{"cas_no": "764-85-2", "cn_name": "\u58ec\u9170\u6c2f", "en_name": ["Nonanoyl chloride", "Nonanoyl chloride", "Pelargonoyl chloride", "Nonanoic acid chloride", "n-Nonanoyl chloride", "Pelargonic acid chloride", "Pelargonyl chloride", "NSC 9829"], "SMILES": "C(CCCCC)CCC(Cl)=O", "physical_data": {"Molecular Weight": "176.68", "Molecular Formula": "C9H17ClO", "Boiling Point": "215.3 \u00b0C", "Melting Point": "-60.5 \u00b0C", "Density": "0.93353 g/cm\u00b3 @ Temp: 30 \u00b0C"}}