{"cas_no": "764-22-7", "cn_name": "D-\u8d64\u5f0f-C 18 - \u4e8c\u6c22-D-\u795e\u7ecf\u9798\u6c28\u9187", "en_name": ["Sphinganine", "1,3-Octadecanediol, 2-amino-, (2S,3R)-", "1,3-Octadecanediol, 2-amino-, D-erythro-", "1,3-Octadecanediol, 2-amino-, [R-(R*,S*)]-", "(2S,3R)-2-Amino-1,3-octadecanediol", "C18-Dihydrosphingosine", "C18-Sphingosine, dihydro-", "Sphinganine", "Dihydrosphingosine", "D-erythro-2-Amino-1,3-octadecanediol", "D-erythro-Sphinganine", "erythro-Sphinganine", "Octadecasphinganine", "D-erythro-C18-Dihydrosphingosine", "D-erythro-1,3-Dihydroxy-2-aminooctadecane", "Dihydro-C18-sphingosine", "SPC 102860", "D-erythro-Dihydrosphingosine", "(2S,3R)-Sphinganine", "Sphinganine d18:1", "C18-Sphinganine"], "SMILES": "C(CCCCCCCCCCCCCC)C(C(CO)N)O", "physical_data": {"Molecular Weight": "301.51", "Molecular Formula": "C18H39NO2", "Melting Point": "65-105 \u00b0C"}}