{"cas_no": "7640-33-7", "cn_name": "7-\u6eb4-5-\u6c2f-8-\u7f9f\u57fa\u55b9\u5549", "en_name": ["5-Chloro-7-bromo-8-hydroxyquinoline", "8-Quinolinol, 7-bromo-5-chloro-", "7-Bromo-5-chloro-8-quinolinol", "5-Chloro-7-bromo-8-quinolinol", "7-Bromo-5-chloro-8-hydroxyquinoline", "5-Chloro-7-bromo-8-hydroxyquinoline"], "SMILES": "OC=1C2=C(C(Cl)=CC1Br)C=CC=N2", "physical_data": {"Molecular Weight": "258.50", "Molecular Formula": "C9H5BrClNO", "Melting Point": "177-178 \u00b0C"}}