{"cas_no": "76410-58-7", "cn_name": "4-\u787c-L-\u82ef\u57fa\u4e19\u6c28\u9178", "en_name": ["L-p-Boronophenylalanine", "L-Phenylalanine, 4-borono-", "4-Borono-L-phenylalanine", "L-p-Boronophenylalanine", "L-BPA", "4-(Dihydroxyboryl)-L-phenylalanine", "4-Dihydroxyborylphenylalanine"], "SMILES": "C(C(C(O)=O)N)C1=CC=C(B(O)O)C=C1", "physical_data": {"Molecular Weight": "209.01", "Molecular Formula": "C9H12BNO4", "Melting Point": "285-293 \u00b0C (decomp)"}}