{"cas_no": "7642-15-1", "cn_name": "\u987a-4-\u8f9b\u70ef", "en_name": ["cis-4-Octene", "4-Octene, (4Z)-", "4-Octene, (Z)-", "4-Octene, cis-", "(4Z)-4-Octene", "cis-4-Octene", "(Z)-4-Octene", "\u03b4-cis-Octene", "cis-1,2-Dipropylethylene"], "SMILES": "C(=CCCC)CCC", "physical_data": {"Molecular Weight": "112.21", "Molecular Formula": "C8H16", "Boiling Point": "122.5 \u00b0C", "Melting Point": "-118.7 \u00b0C", "Density": "0.7186 g/cm\u00b3 @ Temp: 20 \u00b0C"}}