{"cas_no": "7642-04-8", "cn_name": "\u987a\u5f0f-2-\u8f9b\u70ef", "en_name": ["cis-2-Octene", "2-Octene, (2Z)-", "2-Octene, (Z)-", "2-Octene, cis-", "(2Z)-2-Octene", "cis-2-Octene", "(Z)-2-Octene", "\u03b2-cis-Octene"], "SMILES": "C(CC=CC)CCC", "physical_data": {"Molecular Weight": "112.21", "Molecular Formula": "C8H16", "Boiling Point": "125.6 \u00b0C", "Melting Point": "-100.2 \u00b0C"}}