{"cas_no": "76420-72-9", "cn_name": "\u4f9d\u90a3\u666e\u5229\u62c9", "en_name": ["Enalaprilat", "L-Proline, N-[(1S)-1-carboxy-3-phenylpropyl]-L-alanyl-", "L-Proline, 1-[N-(1-carboxy-3-phenylpropyl)-L-alanyl]-, (S)-", "N-[(1S)-1-Carboxy-3-phenylpropyl]-L-alanyl-L-proline", "MK 422", "MK 421 diacid", "N-[1(S)-Carboxy-3-phenylpropyl]-L-alanyl-L-proline", "Enalaprilic acid", "Enalaprilat", "Enalapril acid", "Enalapril diacid", "Enalaprilate", "MeSH ID: D015773"], "SMILES": "C(C(NC(CCC1=CC=CC=C1)C(O)=O)C)(=O)N2C(C(O)=O)CCC2", "physical_data": {"Molecular Weight": "348.39", "Molecular Formula": "C18H24N2O5", "Melting Point": "148-151 \u00b0C"}}