{"cas_no": "7643-08-5", "cn_name": "2-\u7532\u5def\u57fa\u5429\u567b\u55ea", "en_name": ["2-(Methylthio)-10H-phenothiazine", "10H-Phenothiazine, 2-(methylthio)-", "Phenothiazine, 2-(methylthio)-", "2-(Methylthio)-10H-phenothiazine", "3-(Methylthio)phenothiazine", "2-(Methylthio)phenothiazine", "2-Methylthio-10H-phenothiazine", "2-(Methylsulfanyl)-10H-phenothiazine", "2-Methylsulfanyl-10H-phenothiazine"], "SMILES": "S(C)C=1C=C2C(SC=3C(N2)=CC=CC3)=CC1", "physical_data": {"Molecular Weight": "245.36", "Molecular Formula": "C13H11NS2", "Boiling Point": "190-200 \u00b0C @ Press: 0.05 Torr", "Melting Point": "137.5-139.5 \u00b0C"}}