{"cas_no": "7643-75-6", "cn_name": "L-(-)-\u963f\u62c9\u4f2f\u7cd6\u9187", "en_name": ["L-Arabitol", "L-Arabinitol", "Arabinitol, L-", "L-Arabitol", "L-(-)-Arabitol", "(-)-Arabitol", "NSC 83253", "L-Lyxitol", "L-arabino-Pentitol"], "SMILES": "C(C(CO)O)(C(CO)O)O", "physical_data": {"Molecular Weight": "152.15", "Molecular Formula": "C5H12O5", "Melting Point": "99-101 \u00b0C"}}