{"cas_no": "7646-78-8", "cn_name": "\u56db\u6c2f\u5316\u9521", "en_name": ["Tin tetrachloride", "Stannane, tetrachloro-", "Tin chloride (SnCl4)", "Tetrachlorostannane", "Libavius Fuming spirit", "Stannic chloride", "Tin tetrachloride", "Tin(IV) chloride", "Stannic tetrachloride", "Tin(IV) tetrachloride", "Tetrachlorotin", "NSC 209802"], "SMILES": "[Sn](Cl)(Cl)(Cl)Cl", "physical_data": {"Molecular Weight": "260.52", "Molecular Formula": "Cl4Sn", "Boiling Point": "114.15 \u00b0C", "Melting Point": "-33 \u00b0C", "Density": "2.34 g/cm\u00b3"}}