{"cas_no": "7646-67-5", "cn_name": "N-(2-\u7f9f\u4e59\u57fa)\u4e19\u70ef\u9170\u80fa(\u542b\u7a33\u5b9a\u5242\u7532\u6c27\u57fa\u6c22\u918c)", "en_name": ["(2-Hydroxyethyl)acrylamide", "2-Propenamide, N-(2-hydroxyethyl)-", "Acrylamide, N-(2-hydroxyethyl)-", "N-(2-Hydroxyethyl)-2-propenamide", "N-Ethanolacrylamide", "N-Ethylolacrylamide", "N-(2-Hydroxyethyl)acrylamide", "(2-Hydroxyethyl)acrylamide", "Duramide", "HEAA", "N-Hydroxyethylacrylamide", "N-2-Hydroxythylacrylamide", "Hydroxyethyl acrylamide", "N-Hydroxylethyl acrylamide", "2-Acrylamidoethanol", "Kohshylmer HEAA"], "SMILES": "C(NCCO)(C=C)=O", "physical_data": {"Molecular Weight": "115.13", "Molecular Formula": "C5H9NO2", "Boiling Point": "135-140 \u00b0C @ Press: 1.5 Torr"}}