{"cas_no": "7646-85-7", "cn_name": "\u6c2f\u5316\u950c", "en_name": ["Zinc chloride", "Zinc chloride (ZnCl2)", "Zinc chloride", "Butter of zinc", "Zinc Butter", "Zinc dichloride", "Zinc(II) chloride", "Knittex ZH", "NSC 529648", "Z 0014"], "SMILES": "[Zn](Cl)Cl", "physical_data": {"Molecular Weight": "", "Molecular Formula": "Cl2Zn", "Boiling Point": "732 \u00b0C", "Melting Point": "290 \u00b0C", "Density": "2.907 g/cm\u00b3 @ Temp: 25 \u00b0C"}}