{"cas_no": "7646-79-9", "cn_name": "\u6c2f\u5316\u94b4", "en_name": ["Cobalt chloride (CoCl2)", "Cobalt chloride (CoCl2)", "Cobaltous chloride", "Cobalt(II) chloride", "Cobalt dichloride", "Cobaltous dichloride", "Cobalt chloride", "Cobalt dichloride (CoCl2)", "Cobalt(2+) chloride", "Dichlorocobalt", "NSC 51149"], "SMILES": "[Co](Cl)Cl", "physical_data": {"Molecular Weight": "", "Molecular Formula": "Cl2Co", "Boiling Point": "1049 \u00b0C", "Melting Point": "735 \u00b0C", "Density": "3.36 g/cm\u00b3 @ Temp: 25 \u00b0C"}}