{"cas_no": "76469-88-0", "cn_name": "\u5bf9\u6c30\u7532\u57fa\u82ef\u7532\u9178\u7532\u916f", "en_name": ["Benzoic acid, 4-(cyanomethyl)-, methyl ester", "Benzoic acid, 4-(cyanomethyl)-, methyl ester", "p-Toluic acid, \u03b1-cyano-, methyl ester", "Methyl 4-cyanomethylbenzoate", "Methyl p-(cyanomethyl)benzoate", "Methyl \u03b1-cyano-p-toluate", "[p-(Methoxycarbonyl)phenyl]acetonitrile", "4-Cyanomethylbenzoic acid methyl ester"], "SMILES": "C(OC)(=O)C1=CC=C(CC#N)C=C1", "physical_data": {"Molecular Weight": "175.18", "Molecular Formula": "C10H9NO2", "Boiling Point": "150-155 \u00b0C @ Press: 0.5 Torr", "Melting Point": "60 \u00b0C"}}