{"cas_no": "7646-69-7", "cn_name": "\u6c22\u5316\u94a0", "en_name": ["Sodium hydride", "Sodium hydride (NaH)", "Sodium hydride", "Sodium monohydride", "NSC 605606", "NSC 609472"], "SMILES": "[NaH]", "physical_data": {"Molecular Weight": "", "Molecular Formula": "HNa", "Melting Point": "800 \u00b0C (decomp)", "Density": "0.92 g/cm\u00b3"}}