{"cas_no": "764667-65-4", "cn_name": "(2Z)-4-\u6c27\u4ee3-4-[3-(\u4e09\u6c1f\u7532\u57fa)-5,6-\u4e8c\u6c22-[1,2,4]\u4e09\u5511\u5e76[4,3-a]\u5421\u55ea-7-(8H)-\u57fa]-1-(2,4,5-\u4e09\u6c1f\u82ef\u57fa)\u4e01-2-\u916e", "en_name": ["1-[5,6-Dihydro-3-(trifluoromethyl)-1,2,4-triazolo[4,3-a]pyrazin-7(8H)-yl]-4-(2,4,5-trifluorophenyl)-1,3-butanedione", "1,3-Butanedione, 1-[5,6-dihydro-3-(trifluoromethyl)-1,2,4-triazolo[4,3-a]pyrazin-7(8H)-yl]-4-(2,4,5-trifluorophenyl)-", "1,2,4-Triazolo[4,3-a]pyrazine, 7-[1,3-dioxo-4-(2,4,5-trifluorophenyl)butyl]-5,6,7,8-tetrahydro-3-(trifluoromethyl)-", "1-[5,6-Dihydro-3-(trifluoromethyl)-1,2,4-triazolo[4,3-a]pyrazin-7(8H)-yl]-4-(2,4,5-trifluorophenyl)-1,3-butanedione", "4-Oxo-4-[3-(trifluoromethyl)-5,6-dihydro-[1,2,4]triazolo[4,3-a]pyrazin-7(8H)-yl]-1-(2,4,5-trifluorophenyl)butan-2-one", "7-[1,3-Dioxo-4-(2,4,5-trifluorophenyl)butyl]-3-trifluoromethyl-5,6,7,8-tetrahydro-1,2,4-triazolo[4,3-a]pyrazine", "Prositagliptin ketone", "1-(3-Trifluoromethyl-5,6-dihydro-8H-[1,2,4]triazolo[4,3-a]pyrazin-7-yl)-4-(2,4,5-trifluoro-phenyl)-butan-1,3-dione", "4-Oxo-4-[3-(trifluoromethyl)-5,6-dihydro[1,2,4]triazolo[4,3-a]pyrazin-7(8H)-yl]-1-(2,4,5-trifluorophenyl)butane-2-one", "1-[3-(Trifluoromethyl)-6,8-dihydro-5H-[1,2,4]triazolo[4,3-a]pyrazin-7-yl]-4-(2,4,5-trifluorophenyl)butane-1,3-dione"], "SMILES": "C(F)(F)(F)C=1N2C(CN(C(CC(CC3=C(F)C=C(F)C(F)=C3)=O)=O)CC2)=NN1", "physical_data": {"Molecular Weight": "406.28", "Molecular Formula": "C16H12F6N4O2", "Melting Point": "92.5 \u00b0C"}}