{"cas_no": "7646-93-7", "cn_name": "\u786b\u9178\u6c22\u94be", "en_name": ["Potassium bisulfate", "Sulfuric acid, potassium salt (1:1)", "Sulfuric acid, monopotassium salt", "Potassium acid sulfate", "Potassium bisulfate", "Potassium hydrogen sulfate", "Sal enixum", "Monopotassium sulfate", "Acid potassium sulfate", "Potassium sulfate (KHSO4)", "Potassium bisulphate", "Hydrogen potassium sulfate"], "SMILES": "S(=O)(=O)(O)O.[K]", "physical_data": {"Molecular Weight": "", "Molecular Formula": "H2O4S.K", "Melting Point": "197 \u00b0C", "Density": "2.24 g/cm\u00b3"}}