{"cas_no": "7647-15-6", "cn_name": "\u6eb4\u5316\u94a0", "en_name": ["Sodium bromide", "Sodium bromide (NaBr)", "Sodium bromide", "Sedoneural", "NSC 77384", "Sanibrom 40"], "SMILES": "Br[Na]", "physical_data": {"Molecular Weight": "", "Molecular Formula": "BrNa", "Boiling Point": "1390 \u00b0C", "Melting Point": "755 \u00b0C", "Density": "3.21 g/cm\u00b3"}}