{"cas_no": "7647-17-8", "cn_name": "\u6c2f\u5316\u94ef", "en_name": ["Cesium chloride", "Cesium chloride (CsCl)", "Cesium monochloride", "Cesium chloride", "NSC 15198"], "SMILES": "Cl[Cs]", "physical_data": {"Molecular Weight": "", "Molecular Formula": "ClCs", "Melting Point": "646 \u00b0C", "Density": "3.988 g/cm\u00b3"}}