{"cas_no": "7647-01-0", "cn_name": "\u76d0\u9178", "en_name": ["Hydrochloric acid", "Hydrochloric acid", "Anhydrous hydrochloric acid", "Chlorohydric acid", "Dilute hydrochloric acid", "Hydrogen chloride", "Muriatic acid", "Hydrogen chloride (HCl)", "Hydrochloric acid gas", "Enplate PO 236", "Chloridric acid", "NSC 77365", "Baume HCL", "ICON Etch"], "SMILES": "Cl", "physical_data": {"Molecular Weight": "", "Molecular Formula": "ClH", "Boiling Point": "-85 \u00b0C", "Melting Point": "-114 \u00b0C", "Density": "1.09620 g/cm\u00b3 @ Press: 760 Torr"}}