{"cas_no": "7647-10-1", "cn_name": "\u6c2f\u5316\u94af", "en_name": ["Palladium chloride", "Palladium chloride (PdCl2)", "Palladium(II) chloride", "Palladium dichloride", "Palladous chloride", "Dichloropalladium", "Enplate Activator 440", "Palladium chloride", "Niklad 262", "NSC 146183"], "SMILES": "[Pd](Cl)Cl", "physical_data": {"Molecular Weight": "", "Molecular Formula": "Cl2Pd", "Melting Point": "678-680 \u00b0C", "Density": "4 x 10<sup>-6</sup> g/cm\u00b3 @ Temp: 18 \u00b0C"}}