{"cas_no": "76470-66-1", "cn_name": "\u6c2f\u78b3\u5934\u5b62", "en_name": ["Loracarbef", "1-Azabicyclo[4.2.0]oct-2-ene-2-carboxylic acid, 7-[[(2R)-2-amino-2-phenylacetyl]amino]-3-chloro-8-oxo-, (6R,7S)-", "1-Azabicyclo[4.2.0]oct-2-ene-2-carboxylic acid, 7-[(aminophenylacetyl)amino]-3-chloro-8-oxo-, [6R-[6\u03b1,7\u03b2(R*)]]-", "1-Azabicyclo[4.2.0]oct-2-ene-2-carboxylic acid, 7-[[(2R)-aminophenylacetyl]amino]-3-chloro-8-oxo-, (6R,7S)-", "(6R,7S)-7-[[(2R)-2-Amino-2-phenylacetyl]amino]-3-chloro-8-oxo-1-azabicyclo[4.2.0]oct-2-ene-2-carboxylic acid", "LY 163892", "Loracarbef", "KT 3777", "Loribid", "Lorabid", "Loracarbacef"], "SMILES": "O=C1N2C(C1NC(C(N)C3=CC=CC=C3)=O)CCC(Cl)=C2C(O)=O", "physical_data": {"Molecular Weight": "349.77", "Molecular Formula": "C16H16ClN3O4", "Melting Point": "205-215 \u00b0C"}}