{"cas_no": "7647-14-5", "cn_name": "\u6c2f\u5316\u94a0", "en_name": ["Sodium chloride", "Sodium chloride (NaCl)", "Sodium chloride", "Salt", "Iodized salt", "Sodium monochloride", "Common salt", "SS Salt", "BCD", "Watesal A", "Brinewate Superfine", "Mafiron", "Special Salt 100/95", "Natrum mur", "Titrisol", "Uzushio Biryuu M", "Adsorbanac", "Ayr", "NSC 77364", "Dendritic salt", "Solsel", "Canners 999", "Naruto Shokuen", "Cap-Shure 70 Salt", "Cap-Shure 85 Salt", "Dendritis", "Gingivyl", "Top flake", "Hypersal", "Flexivial", "Natritope chloride", "Sodium chloric", "Kochsalz", "Extra Fine 200 Salt", "Extra Fine 325 Salt", "Slow Sodium", "Arm-A-Vial", "LS 1700", "H.G. Blending", "D 02056", "Soft Salt S 50", "Nissei-no Yakishio S", "Suprasel", "Suprasel Nitrite", "Nakuru N", "Nakuru UM 5", "MARSEL", "Natrum muriaticum", "Esco PDV Table Salt", "Adios Ambros", "EF 40", "EF 40 (salt)", "Iodised salt", "Mediterra salt", "Alberger salt", "Culinox 999 Salt", "Aladdin C111533", "Tomita Salt", "7: PN: CN114214436 PAGE: 3 claimed sequence", "Yakishio P", "MeSH ID: D012965", "Nakuru UM 10"], "SMILES": "Cl[Na]", "physical_data": {"Molecular Weight": "", "Molecular Formula": "ClNa", "Boiling Point": "1413 \u00b0C", "Melting Point": "801 \u00b0C", "Density": "2.165 g/cm\u00b3 @ Temp: 25 \u00b0C"}}