{"cas_no": "76474-56-1", "cn_name": "\u4e8c\u6c22\u59dc\u9ec4\u7d20", "en_name": ["Dihydrocurcumin", "4,6-Heptadien-3-one, 5-hydroxy-1,7-bis(4-hydroxy-3-methoxyphenyl)-, (4Z,6E)-", "4,6-Heptadien-3-one, 5-hydroxy-1,7-bis(4-hydroxy-3-methoxyphenyl)-, (Z,E)-", "(4Z,6E)-5-Hydroxy-1,7-bis(4-hydroxy-3-methoxyphenyl)-4,6-heptadien-3-one", "Dihydrocurcumin", "Letestuianin B"], "SMILES": "C(CC(C=C(C=CC1=CC(OC)=C(O)C=C1)O)=O)C2=CC(OC)=C(O)C=C2", "physical_data": {"Molecular Weight": "370.40", "Molecular Formula": "C21H22O6", "Melting Point": "179-180 \u00b0C"}}