{"cas_no": "7647-19-0", "cn_name": "\u4e94\u6c1f\u5316\u78f7", "en_name": ["Pentafluorophosphorane", "Phosphorane, pentafluoro-", "Phosphorus fluoride (PF5)", "Pentafluorophosphorane", "Phosphorus pentafluoride", "Pentafluorophosphorus"], "SMILES": "P(F)(F)(F)(F)F", "physical_data": {"Molecular Weight": "125.97", "Molecular Formula": "F5P", "Boiling Point": "-84.6 \u00b0C", "Melting Point": "-93.8 \u00b0C"}}