{"cas_no": "7647-18-9", "cn_name": "\u4e94\u6c2f\u5316\u9511", "en_name": ["Antimony pentachloride", "Antimony chloride (SbCl5)", "Antimony pentachloride", "Antimony perchloride", "Antimony(V) chloride", "Antimony pentachloride (SbCl5)", "Pentachloroantimony"], "SMILES": "[Sb](Cl)(Cl)(Cl)(Cl)Cl", "physical_data": {"Molecular Weight": "", "Molecular Formula": "Cl5Sb", "Boiling Point": "79 \u00b0C @ Press: 22 Torr", "Melting Point": "2.8 \u00b0C", "Density": "2.3356 g/cm\u00b3 @ Temp: 20 \u00b0C"}}