{"cas_no": "7648-01-3", "cn_name": "3-\u4e59\u57fa-2-\u786b\u4ee3-4-\u567b\u5511\u70f7\u4e8c\u916e", "en_name": ["3-Ethylrhodanine", "4-Thiazolidinone, 3-ethyl-2-thioxo-", "Rhodanine, 3-ethyl-", "3-Ethyl-2-thioxo-4-thiazolidinone", "3-Ethylrhodanine", "N-Ethylrhodanine", "3-Ethylrhodamine", "3-Ethyl-2-thioxothiazolidin-4-one", "3-Ethylthiazolidin-4-one-2-thione", "NSC 81656", "3-Ethyl-2-thioxo-1,3-thiazolidin-4-one", "3-Ethyl-2-sulfanylidene-1,3-thiazolidin-4-one", "2-(1,1-Dicyanomethylene)rhodamine"], "SMILES": "C(C)N1C(=O)CSC1=S", "physical_data": {"Molecular Weight": "161.25", "Molecular Formula": "C5H7NOS2", "Melting Point": "68 \u00b0C"}}