{"cas_no": "7649-92-5", "cn_name": "2-(4-\u6c1f\u82ef\u9170\u57fa)\u82ef\u7532\u9178", "en_name": ["2-(4-Fluorobenzoyl)benzoic acid", "Benzoic acid, 2-(4-fluorobenzoyl)-", "Benzoic acid, o-(p-fluorobenzoyl)-", "2-(4-Fluorobenzoyl)benzoic acid", "2-(p-Fluorobenzoyl)benzoic acid", "o-(p-Fluorobenzoyl)benzoic acid", "2-(4-Fluorophenylcarbonyl)benzoic acid", "NSC 111165"], "SMILES": "C(=O)(C1=C(C(O)=O)C=CC=C1)C2=CC=C(F)C=C2", "physical_data": {"Molecular Weight": "244.22", "Molecular Formula": "C14H9FO3", "Melting Point": "120-123 \u00b0C"}}