{"cas_no": "76497-39-7", "cn_name": "D-3-\u4e59\u9170\u5def\u57fa-2-\u7532\u57fa\u4e19\u9178", "en_name": ["D-\u03b2-Acetylthioisobutyric acid", "Propanoic acid, 3-(acetylthio)-2-methyl-, (2S)-", "Propanoic acid, 3-(acetylthio)-2-methyl-, (S)-", "(2S)-3-(Acetylthio)-2-methylpropanoic acid", "D-3-Acetylthio-2-methylpropionic acid", "(S)-3-(Acetylthio)-2-methylpropanoic acid", "(S)-3-Acetylthio-2-methylpropionic acid", "D-\u03b2-Acetylthioisobutyric acid", "D-(-)-3-Acetylthio-2-methylpropionic acid", "(S)-3-Acetylsulfanyl-2-methylpropionic acid", "(2S)-3-Acetylsulfanyl-2-methylpropanoic acid", "(2S)-3-(Acetylsulfanyl)-2-methylpropanoic acid"], "SMILES": "C(CSC(C)=O)(C(O)=O)C", "physical_data": {"Molecular Weight": "162.21", "Molecular Formula": "C6H10O3S", "Melting Point": "131-132 \u00b0C"}}