{"cas_no": "765-42-4", "cn_name": "\u73af\u4e19\u57fa\u7532\u57fa\u7532\u9187", "en_name": ["1-Cyclopropylethanol", "Cyclopropanemethanol, \u03b1-methyl-", "\u03b1-Methylcyclopropanemethanol", "1-Cyclopropylethanol", "Cyclopropylmethylcarbinol", "1-Cyclopropyl-1-ethanol", "Cyclopropylmethylmethanol", "rac-1-Cyclopropylethanol", "NSC 77076", "1-Cyclopropylethyl alcohol"], "SMILES": "C(C)(O)C1CC1", "physical_data": {"Molecular Weight": "86.13", "Molecular Formula": "C5H10O", "Boiling Point": "123.5 \u00b0C", "Melting Point": "-32.1 \u00b0C", "Density": "0.88778 g/cm\u00b3 @ Temp: 20 \u00b0C"}}