{"cas_no": "765-58-2", "cn_name": "2-\u6eb4-5-\u7532\u57fa\u567b\u5429", "en_name": ["2-Bromo-5-methylthiophene", "Thiophene, 2-bromo-5-methyl-", "2-Bromo-5-methylthiophene", "5-Bromo-2-methylthiophene", "5-Methyl-2-bromothiophene"], "SMILES": "BrC=1SC(C)=CC1", "physical_data": {"Molecular Weight": "177.06", "Molecular Formula": "C5H5BrS", "Boiling Point": "178 \u00b0C", "Density": "1.552 g/cm\u00b3 @ Temp: 20 \u00b0C"}}