{"cas_no": "765-04-8", "cn_name": "1,11-\u5341\u4e00\u70f7\u4e8c\u9187", "en_name": ["1,11-Undecanediol", "1,11-Undecanediol", "1,11-Hendecanediol", "NSC 4030", "1,11-Dihydroxyundecane", "Undecamethylene glycol"], "SMILES": "C(CCCCCO)CCCCCO", "physical_data": {"Molecular Weight": "188.31", "Molecular Formula": "C11H24O2", "Melting Point": "61-61.5 \u00b0C"}}