{"cas_no": "765-30-0", "cn_name": "\u73af\u4e19\u80fa", "en_name": ["Cyclopropylamine", "Cyclopropanamine", "Cyclopropylamine", "Aminocyclopropane", "NSC 56127"], "SMILES": "NC1CC1", "physical_data": {"Molecular Weight": "57.09", "Molecular Formula": "C3H7N", "Boiling Point": "50.5 \u00b0C", "Melting Point": "-35.4 \u00b0C"}}