{"cas_no": "765-38-8", "cn_name": "2-\u7532\u57fa\u5421\u54af\u70f7", "en_name": ["2-Methylpyrrolidine", "Pyrrolidine, 2-methyl-", "Pyrrolidine, 2-methyl-, (\u00b1)-", "2-Methylpyrrolidine", "\u03b1-Methylpyrrolidine", "(\u00b1)-2-Methylpyrrolidine"], "SMILES": "CC1CCCN1", "physical_data": {"Molecular Weight": "85.15", "Molecular Formula": "C5H11N", "Boiling Point": "100 \u00b0C @ Press: 768 Torr", "Density": "0.8307 g/cm\u00b3 @ Temp: 20 \u00b0C"}}