{"cas_no": "765-09-3", "cn_name": "1-\u6eb4\u5341\u4e09\u70f7", "en_name": ["1-Bromotridecane", "Tridecane, 1-bromo-", "1-Bromotridecane", "Tridecyl bromide", "n-Tridecyl bromide", "1-Bromo-n-tridecane", "NSC 87870"], "SMILES": "C(CCCCCCC)CCCCCBr", "physical_data": {"Molecular Weight": "263.26", "Molecular Formula": "C13H27Br", "Boiling Point": "296 \u00b0C", "Melting Point": "6.2 \u00b0C"}}