{"cas_no": "765-70-8", "cn_name": "3-\u7532\u57fa\u73af\u620a\u70f7-1,2-\u4e8c\u916e", "en_name": ["3-Methyl-1,2-cyclopentanedione", "1,2-Cyclopentanedione, 3-methyl-", "3-Methyl-1,2-cyclopentanedione", "3-Methyl-1,2-cyclopentadione"], "SMILES": "O=C1C(C)CCC1=O", "physical_data": {"Molecular Weight": "112.13", "Molecular Formula": "C6H8O2", "Melting Point": "104.5 \u00b0C"}}