{"cas_no": "765-69-5", "cn_name": "2-\u7532\u57fa-1,3-\u73af\u620a\u4e8c\u916e", "en_name": ["2-Methyl-1,3-cyclopentanedione", "1,3-Cyclopentanedione, 2-methyl-", "2-Methyl-1,3-cyclopentanedione", "2-Methyl-1,3-cyclopentadione", "NSC 54458"], "SMILES": "CC1C(=O)CCC1=O", "physical_data": {"Molecular Weight": "112.13", "Molecular Formula": "C6H8O2", "Melting Point": "212-214 \u00b0C"}}