{"cas_no": "765-43-5", "cn_name": "\u73af\u4e19\u7532\u57fa\u916e", "en_name": ["Cyclopropyl methyl ketone", "Ethanone, 1-cyclopropyl-", "Ketone, cyclopropyl methyl", "1-Cyclopropylethanone", "Cyclopropyl methyl ketone", "Methyl cyclopropyl ketone", "Acetylcyclopropane", "NSC 1940", "Cyclopropylethanone", "1-Cyclopropylethan-1-one"], "SMILES": "C(C)(=O)C1CC1", "physical_data": {"Molecular Weight": "84.12", "Molecular Formula": "C5H8O", "Boiling Point": "111.3 \u00b0C", "Melting Point": "-68.3 \u00b0C", "Density": "0.8988 g/cm\u00b3 @ Temp: 20 \u00b0C"}}