{"cas_no": "765-13-9", "cn_name": "1-\u5341\u4e94\u7094", "en_name": ["1-Pentadecyne", "1-Pentadecyne"], "SMILES": "C(CCCCCCC)CCCCCC#C", "physical_data": {"Molecular Weight": "208.38", "Molecular Formula": "C15H28", "Boiling Point": "268 \u00b0C", "Melting Point": "10 \u00b0C"}}