{"cas_no": "765-50-4", "cn_name": "2-\u6c2f\u7532\u57fa\u567b\u5429", "en_name": ["2-(Chloromethyl)thiophene", "Thiophene, 2-(chloromethyl)-", "2-(Chloromethyl)thiophene", "Thenyl chloride", "2-Thenyl chloride", "2-Thienylmethyl chloride", "2-Thiophenemethyl chloride"], "SMILES": "C(Cl)C1=CC=CS1", "physical_data": {"Molecular Weight": "132.61", "Molecular Formula": "C5H5ClS", "Boiling Point": "80-81 \u00b0C @ Press: 18 Torr"}}