{"cas_no": "765-39-9", "cn_name": "1-\u6c28\u57fa\u5421\u54af", "en_name": ["1H-Pyrrol-1-amine", "1H-Pyrrol-1-amine", "Pyrrole, 1-amino-", "1-Aminopyrrole", "N-Aminopyrrole", "1-Pyrrolylamine", "(1H-Pyrrol-1-yl)amine"], "SMILES": "NN1C=CC=C1", "physical_data": {"Molecular Weight": "82.10", "Molecular Formula": "C4H6N2", "Boiling Point": "174-174.5 \u00b0C @ Press: 750 Torr", "Melting Point": "77-78 \u00b0C"}}