{"cas_no": "765-14-0", "cn_name": "\u5341\u4e8c\u70f7\u57fa\u4e59\u70ef\u57fa\u919a", "en_name": ["Dodecyl vinyl ether", "Dodecane, 1-(ethenyloxy)-", "Ether, dodecyl vinyl", "1-(Ethenyloxy)dodecane", "Dodecyl vinyl ether", "Lauryl vinyl ether", "Rapi-Cure DDVE"], "SMILES": "C(CCCCCCC)CCCCOC=C", "physical_data": {"Molecular Weight": "212.37", "Molecular Formula": "C14H28O", "Boiling Point": "120 \u00b0C @ Press: 4 Torr"}}