{"cas_no": "765-34-4", "cn_name": "\u7f29\u6c34\u7518\u6cb9\u919b", "en_name": ["Glycidaldehyde", "2-Oxiranecarboxaldehyde", "Glycidaldehyde", "Oxiranecarboxaldehyde", "Epihydrinaldehyde", "Glycidal", "2,3-Epoxypropanal", "Epoxypropanal", "Formyloxirane", "NSC 521506"], "SMILES": "C(=O)C1CO1", "physical_data": {"Molecular Weight": "72.06", "Molecular Formula": "C3H4O2", "Boiling Point": "112.5 \u00b0C", "Melting Point": "-62 \u00b0C", "Density": "1.1403 g/cm\u00b3 @ Temp: 20 \u00b0C"}}