{"cas_no": "765-87-7", "cn_name": "1,2-\u73af\u5df1\u4e8c\u916e", "en_name": ["1,2-Cyclohexanedione", "1,2-Cyclohexanedione", "1,2-Dioxocyclohexane", "NSC 32950", "NSC 627435", "Cyclohexan-1,2-dione"], "SMILES": "O=C1C(=O)CCCC1", "physical_data": {"Molecular Weight": "112.13", "Molecular Formula": "C6H8O2", "Boiling Point": "194 \u00b0C", "Melting Point": "40 \u00b0C", "Density": "1.1305 g/cm\u00b3 @ Temp: 20 \u00b0C"}}