{"cas_no": "765-12-8", "cn_name": "\u4e09\u4e59\u4e8c\u9187\u4e8c\u4e59\u70ef\u57fa\u919a", "en_name": ["Triethylene glycol divinyl ether", "3,6,9,12-Tetraoxatetradeca-1,13-diene", "Ethane, 1,2-bis[2-(vinyloxy)ethoxy]-", "Triethylene glycol divinyl ether", "Rapi-Cure DVE 3", "Rapi-Cure DVF", "Rapidcure CHVE 3", "DVE 3", "TEGDVE"], "SMILES": "C(COCCOC=C)OCCOC=C", "physical_data": {"Molecular Weight": "202.25", "Molecular Formula": "C10H18O4", "Boiling Point": "126 \u00b0C @ Press: 18 Torr", "Density": "1.0016 g/cm\u00b3 @ Temp: 20 \u00b0C"}}