{"cas_no": "765-03-7", "cn_name": "1-\u5341\u4e8c\u7094", "en_name": ["1-Dodecyne", "1-Dodecyne", "Decylacetylene", "n-Decylacetylene"], "SMILES": "C(CCCCC#C)CCCCC", "physical_data": {"Molecular Weight": "166.30", "Molecular Formula": "C12H22", "Boiling Point": "215 \u00b0C", "Melting Point": "-19 \u00b0C"}}