{"cas_no": "765-10-6", "cn_name": "1-\u5341\u56db\u7094", "en_name": ["1-Tetradecyne", "1-Tetradecyne"], "SMILES": "C(CCCCCC#C)CCCCCC", "physical_data": {"Molecular Weight": "194.36", "Molecular Formula": "C14H26", "Boiling Point": "132-134 \u00b0C @ Press: 14 Torr"}}