{"cas_no": "765-01-5", "cn_name": "10-\u7f9f\u57fa-2-\u7678\u70ef\u9178", "en_name": ["10-Hydroxy-2-decenoic acid", "2-Decenoic acid, 10-hydroxy-", "10-Hydroxy-2-decenoic acid", "10-Hydroxy-\u03942-decenoic acid"], "SMILES": "C(CCCCCO)CC=CC(O)=O", "physical_data": {"Molecular Weight": "186.25", "Molecular Formula": "C10H18O3", "Melting Point": "55 \u00b0C"}}