{"cas_no": "7650-89-7", "cn_name": "\u4e09\u82c4\u57fa\u81a6", "en_name": ["Tribenzylphosphine", "Phosphine, tris(phenylmethyl)-", "Phosphine, tribenzyl-", "Tris(phenylmethyl)phosphine", "Tribenzylphosphine"], "SMILES": "P(CC1=CC=CC=C1)(CC2=CC=CC=C2)CC3=CC=CC=C3", "physical_data": {"Molecular Weight": "304.37", "Molecular Formula": "C21H21P", "Boiling Point": "203-210 \u00b0C @ Press: 0.5 Torr", "Melting Point": "92-95 \u00b0C (sublm)"}}