{"cas_no": "7650-84-2", "cn_name": "\u4e8c\u82ef\u57fa\u4e19\u57fa\u78f7", "en_name": ["Diphenylpropylphosphine", "Phosphine, diphenylpropyl-", "Diphenylpropylphosphine", "Propyldiphenylphosphine", "n-Propyldiphenylphosphine"], "SMILES": "P(CCC)(C1=CC=CC=C1)C2=CC=CC=C2", "physical_data": {"Molecular Weight": "228.27", "Molecular Formula": "C15H17P", "Boiling Point": "163-165 \u00b0C @ Press: 13 Torr"}}