{"cas_no": "7651-02-7", "cn_name": "N-[3-(\u4e8c\u7532\u57fa\u6c28\u57fa)\u4e19\u57fa]\u5341\u516b\u70f7\u9170\u80fa", "en_name": ["Stearamidopropyl dimethylamine", "Octadecanamide, N-[3-(dimethylamino)propyl]-", "N-[3-(Dimethylamino)propyl]octadecanamide", "N,N-Dimethyl-3-(octadecanoylamino)propylamine", "N-[3-(Dimethylamino)propyl]stearamide", "Tegamine S 13", "Lexamine S 13", "N,N-Dimethyl-N\u2032-stearoyl-1,3-propanediamine", "N-[3-(Dimethylamino)-1-propyl]octadecanamide", "Stearic acid 3-(dimethylaminopropyl)amide", "Adogen S 18V", "N\u2032,N\u2032-Dimethyl-N-octadecanoyl-1,3-diaminopropane", "Catinal MPAS", "SAPDMA", "Stearamidopropyl dimethylamine", "NSC 86167", "Stearic acid dimethylaminopropylamide", "Incromine SB", "Armeen APA 168E", "Stearylamidopropyldimethylamine", "Tego Amid S 18", "Stepan SAA", "Armeen APA 168-65E", "Nikkol Amidoamine MPS", "Catiogen SPA", "ASCO-SAPDA", "Palner SDPA", "N-(3-Stearoylaminopropyl)-N,N-dimethylamine", "Chemidex S", "Lipomin APA 168-65E", "Incromine SD", "Incromine SD-PA-MH", "Chamide PKO-S", "SP Polawax NF-MBAL-PA-RB", "Dehyquart S 18"], "SMILES": "C(C(NCCCN(C)C)=O)CCCCCCCCCCCCCCCC", "physical_data": {"Molecular Weight": "368.64", "Molecular Formula": "C23H48N2O", "Boiling Point": "208-215 \u00b0C @ Press: 1-2 Torr", "Melting Point": "49-50 \u00b0C"}}