{"cas_no": "7651-81-2", "cn_name": "3-\u7f9f\u57fa\u5f02\u55b9\u5549", "en_name": ["3(2H)-Isoquinolinone", "3(2H)-Isoquinolinone", "3-Isoquinolinol", "3(2H)-Isoquinolone", "3-Hydroxyisoquinoline", "2,3-Dihydroisoquinolin-3-one"], "SMILES": "O=C1C=C2C(=CN1)C=CC=C2", "physical_data": {"Molecular Weight": "145.16", "Molecular Formula": "C9H7NO", "Melting Point": "195-196 \u00b0C"}}