{"cas_no": "7651-83-4", "cn_name": "7-\u7f9f\u57fa\u5f02\u55b9\u5549", "en_name": ["7-Isoquinolinol", "7-Isoquinolinol", "7-Hydroxyisoquinoline"], "SMILES": "OC1=CC2=C(C=C1)C=CN=C2", "physical_data": {"Molecular Weight": "145.16", "Molecular Formula": "C9H7NO", "Melting Point": "228-230 \u00b0C"}}