{"cas_no": "76513-69-4", "cn_name": "2-(\u4e09\u7532\u57fa\u7845\u70f7\u57fa)\u4e59\u6c27\u7532\u57fa\u6c2f", "en_name": ["2-(Trimethylsilyl)ethoxymethyl chloride", "Silane, [2-(chloromethoxy)ethyl]trimethyl-", "[2-(Chloromethoxy)ethyl]trimethylsilane", "2-(Trimethylsilyl)ethoxymethyl chloride", "Chloromethyl 2-(trimethylsilyl)ethyl ether", "\u03b2-(Trimethylsilyl)ethoxymethyl chloride", "Chloromethyl trimethylsilylethyl ether", "SEM chloride", "2-(Trimethylsilanyl)ethoxymethyl chloride", "[2-[(Chloromethyl)oxy]ethyl]trimethylsilane", "[[2-(Trimethylsilyl)ethyl]oxy]methyl chloride", "SEM Cl", "[[\u03b2-(Trimethylsilyl)ethyl]oxy]methyl chloride", "(2-(Chloromethoxy)ethyl)trimethylsilane", "Hypochlorous acid, 2-(trimethylsilyl)ethyl ester", "2-(Trimethylsilyl)ethyl hypochlorite"], "SMILES": "C([Si](C)(C)C)COCCl", "physical_data": {"Molecular Weight": "166.72", "Molecular Formula": "C6H15ClOSi", "Boiling Point": "57.00 \u00b0C"}}