{"cas_no": "7651-82-3", "cn_name": "6-\u7f9f\u57fa\u5f02\u55b9\u5549", "en_name": ["6-Isoquinolinol", "6-Isoquinolinol", "6-Hydroxyisoquinoline"], "SMILES": "OC1=CC2=C(C=C1)C=NC=C2", "physical_data": {"Molecular Weight": "145.16", "Molecular Formula": "C9H7NO", "Melting Point": "220 \u00b0C"}}