{"cas_no": "76527-25-8", "cn_name": "3, 3-\u4e8c\u82ef\u57fa-2,3-\u73af\u6c27\u4e19\u9178\u7532\u916f(\u5b89\u500d\u751f\u5766\u4e2d\u95f4\u4f53)", "en_name": ["2-Oxiranecarboxylic acid, 3,3-diphenyl-, methyl ester", "2-Oxiranecarboxylic acid, 3,3-diphenyl-, methyl ester", "Oxiranecarboxylic acid, 3,3-diphenyl-, methyl ester", "Methyl 3,3-diphenyl-2,3-epoxypropionate", "Methyl 3,3-diphenyloxirane-2-carboxylate", "3,3-Diphenyl-2,3-epoxypropanoic acid methyl ester"], "SMILES": "C(OC)(=O)C1C(O1)(C2=CC=CC=C2)C3=CC=CC=C3", "physical_data": {"Molecular Weight": "254.28", "Molecular Formula": "C16H14O3", "Boiling Point": "174-175 \u00b0C @ Press: 5 Torr", "Melting Point": "56-57 \u00b0C"}}