{"cas_no": "76537-18-3", "cn_name": "2-\u6c28\u57fa-3-\u6eb4-5-\u6c2f\u5421\u55ea", "en_name": ["3-Bromo-5-chloro-2-pyrazinamine", "2-Pyrazinamine, 3-bromo-5-chloro-", "Pyrazinamine, 3-bromo-5-chloro-", "3-Bromo-5-chloro-2-pyrazinamine", "2-Amino-3-bromo-5-chloropyrazine", "3-Bromo-5-chloro-2-aminopyrazine", "(3-Bromo-5-chloropyrazin-2-yl)amine", "3-Bromo-5-chloropyrazin-2-amine"], "SMILES": "BrC=1C(N)=NC=C(Cl)N1", "physical_data": {"Molecular Weight": "208.44", "Molecular Formula": "C4H3BrClN3", "Melting Point": "108-110 \u00b0C"}}