{"cas_no": "76547-98-3", "cn_name": "\u8d56\u8bfa\u666e\u5229", "en_name": ["Lisinopril", "L-Proline, N2-[(1S)-1-carboxy-3-phenylpropyl]-L-lysyl-", "L-Proline, 1-[N2-(1-carboxy-3-phenylpropyl)-L-lysyl]-, (S)-", "N2-[(1S)-1-Carboxy-3-phenylpropyl]-L-lysyl-L-proline", "MK 521", "N-(1(S)-Carboxy-3-phenylpropyl)-L-lysyl-L-proline", "Lisinopril", "MK 522", "Zestril", "Prinivil", "N2-[(S)-1-Carboxy-3-phenylpropyl]-L-lysyl-L-proline", "Carace", "Cipral", "Cipril", "Coric", "Inopril", "Acerbon", "Alapril", "Lipril", "Lisipril", "Lisoril", "Lispril", "Listril", "Noperten", "Novatec", "Presiten", "Prinil", "Prinvil", "Tensopril", "Tensyn", "Vivatec", "Linopril", "Linvas", "Lisopril", "Lizonoton", "Nanopril", "Diroton", "Longes", "Lisitec", "Loril", "Skopryl", "Amicor", "Irumed", "Laaven", "Lizinopril", "Optimon", "Vitopril", "Lisigamma", "Lisinopril Sandoz", "Ranolip", "MeSH ID: D017706"], "SMILES": "C(C(NC(CCC1=CC=CC=C1)C(O)=O)CCCCN)(=O)N2C(C(O)=O)CCC2", "physical_data": {"Molecular Weight": "405.49", "Molecular Formula": "C21H31N3O5", "Melting Point": "162-165 \u00b0C"}}