{"cas_no": "7657-09-2", "cn_name": "2,5-\u4e8c\u6eb4\u4e09\u6c1f\u5316\u82ef", "en_name": ["1,4-Dibromo-2-(trifluoromethyl)benzene", "Benzene, 1,4-dibromo-2-(trifluoromethyl)-", "Toluene, 2,5-dibromo-\u03b1,\u03b1,\u03b1-trifluoro-", "1,4-Dibromo-2-(trifluoromethyl)benzene", "2,5-Dibromobenzotrifluoride", "2,5-Dibromo-\u03b1,\u03b1,\u03b1-trifluorotoluene", "2,5-Dibromo-1-(trifluoromethyl)benzene", "2,5-Dibromo(trifluoromethyl)benzene", "NSC 88275"], "SMILES": "C(F)(F)(F)C1=C(Br)C=CC(Br)=C1", "physical_data": {"Molecular Weight": "303.90", "Molecular Formula": "C7H3Br2F3", "Boiling Point": "206-207 \u00b0C @ Press: 760 Torr", "Melting Point": "49-50 \u00b0C"}}