{"cas_no": "76578-14-8", "cn_name": "\u55b9\u79be\u7075", "en_name": ["Quizalofop-ethyl", "Propanoic acid, 2-[4-[(6-chloro-2-quinoxalinyl)oxy]phenoxy]-, ethyl ester", "Ethyl 2-[4-(6-chloro-2-quinoxalyloxy)phenoxy]propionate", "DPX-Y 6202", "NCI 96683", "Quinofop-ethyl", "Targa", "NC 302", "Quizalofop-ethyl", "Assure", "Xylofop-ethyl", "DPX 6202", "DPX-Y 6202-3", "Miura"], "SMILES": "O(C1=NC2=C(N=C1)C=C(Cl)C=C2)C3=CC=C(OC(C(OCC)=O)C)C=C3", "physical_data": {"Molecular Weight": "372.80", "Molecular Formula": "C19H17ClN2O4", "Boiling Point": "220 \u00b0C @ Press: 0.2 Torr", "Melting Point": "91.7-92.1 \u00b0C", "Density": "1.35 g/cm\u00b3 @ Temp: 20 \u00b0C"}}