{"cas_no": "7658-80-2", "cn_name": "2-\u7532\u82ef\u7532\u9170\u80bc", "en_name": ["2-Methylbenzohydrazide", "Benzoic acid, 2-methyl-, hydrazide", "o-Toluic acid, hydrazide", "(o-Methylbenzoyl)hydrazine", "o-Methylbenzoic acid hydrazide", "2-Methylbenzoic acid hydrazide", "(2-Methylbenzoyl)hydrazine", "o-Toluoylhydrazine", "2-Methylbenzohydrazide", "2-Methylbenzenecarboxylic acid hydrazide", "o-Methylbenzoyl hydrazide", "2-Toluoylhydrazine", "2-Methylbenzoic hydrazide", "o-Toluic hydrazide", "NSC 61566", "2-Methylbenzocarbohydrazide"], "SMILES": "C(NN)(=O)C1=C(C)C=CC=C1", "physical_data": {"Molecular Weight": "150.18", "Molecular Formula": "C8H10N2O", "Melting Point": "153 \u00b0C"}}