{"cas_no": "7658-08-4", "cn_name": "6-\u8131\u6c27-D-\u8461\u8404\u7cd6", "en_name": ["6-Deoxy-D-glucose", "D-Glucose, 6-deoxy-", "6-Deoxy-D-glucose", "Glucomethylose", "Quinovose", "Epirhamnose, D-", "Isorhamnose", "Isorhodeose", "6-Deoxyglucose", "D-Chinovose", "D-Quinovose", "D-6-Deoxyglucose", "D-Isorhamnose"], "SMILES": "C(C(C(C)O)O)(C(C=O)O)O", "physical_data": {"Molecular Weight": "164.16", "Molecular Formula": "C6H12O5", "Melting Point": "139.5 \u00b0C"}}