{"cas_no": "7659-06-5", "cn_name": "5-\u544b\u5583-2-\u57fa-1,3,4-\u6076\u4e8c\u5511-2-\u80fa", "en_name": ["5-(2-Furanyl)-1,3,4-oxadiazol-2-amine", "1,3,4-Oxadiazol-2-amine, 5-(2-furanyl)-", "1,3,4-Oxadiazole, 2-amino-5-(2-furyl)-", "5-(2-Furanyl)-1,3,4-oxadiazol-2-amine", "2-Amino-5-(2-furyl)-1,3,4-oxadiazole", "2-Amino-5-furyl-1,3,4-oxadiazole", "2-Amino-5-(furan-2-yl)-1,3,4-oxadiazole", "2-Amino-5-(furan-2-yl)-1,3,4-oxadiazol"], "SMILES": "NC=1OC(=NN1)C2=CC=CO2", "physical_data": {"Molecular Weight": "151.12", "Molecular Formula": "C6H5N3O2", "Melting Point": "225-226 \u00b0C"}}