{"cas_no": "7659-29-2", "cn_name": "3,5-\u4e8c\u785d\u5152\u8336\u915a", "en_name": ["3,5-Dinitrocatechol", "1,2-Benzenediol, 3,5-dinitro-", "Pyrocatechol, 3,5-dinitro-", "3,5-Dinitro-1,2-benzenediol", "3,5-Dinitropyrocatechol", "3,5-Dinitrocatechol", "1,2-Dihydroxy-3,5-dinitrobenzene", "OR 486"], "SMILES": "N(=O)(=O)C1=CC(N(=O)=O)=CC(O)=C1O", "physical_data": {"Molecular Weight": "200.11", "Molecular Formula": "C6H4N2O6", "Melting Point": "166-166.5 \u00b0C"}}