{"cas_no": "766-85-8", "cn_name": "3-\u7898\u82ef\u7532\u919a", "en_name": ["3-Iodoanisole", "Benzene, 1-iodo-3-methoxy-", "Anisole, m-iodo-", "1-Iodo-3-methoxybenzene", "m-Methoxyiodobenzene", "3-Iodoanisole", "m-Iodoanisole", "3-Methoxyphenyl iodide", "3-Iodophenyl methyl ether", "3-Methoxyiodobenzene", "NSC 60726", "3-Methoxy-1-iodobenzene", "m-Methoxyphenyl iodide"], "SMILES": "O(C)C1=CC(I)=CC=C1", "physical_data": {"Molecular Weight": "234.03", "Molecular Formula": "C7H7IO", "Boiling Point": "130-135 \u00b0C", "Melting Point": "94 \u00b0C"}}