{"cas_no": "766-97-2", "cn_name": "4-\u7532\u82ef\u57fa\u4e59\u7094", "en_name": ["4-Methylphenylacetylene", "Benzene, 1-ethynyl-4-methyl-", "Toluene, p-ethynyl-", "1-Ethynyl-4-methylbenzene", "p-Methylphenylacetylene", "p-Ethynyltoluene", "p-Tolylacetylene", "4-Methylphenylacetylene", "4-Tolylacetylene", "p-Tolylethyne", "4-Ethynyltoluene", "(4-Methylphenyl)ethyne", "(p-Methylphenyl)ethyne", "1-Methyl-4-ethynylbenzene", "4-Methylethynylbenzene", "2-(4-Methylphenyl)acetylene"], "SMILES": "C(#C)C1=CC=C(C)C=C1", "physical_data": {"Molecular Weight": "116.16", "Molecular Formula": "C9H8", "Boiling Point": "64-66.5 \u00b0C @ Press: 16 Torr", "Melting Point": "95-97 \u00b0C"}}