{"cas_no": "766-08-5", "cn_name": "\u7532\u57fa\u82ef\u57fa\u7845\u70f7", "en_name": ["Methylphenylsilane", "Benzene, (methylsilyl)-", "Silane, methylphenyl-", "(Methylsilyl)benzene", "Methylphenylsilane", "Phenylmethylsilane"], "SMILES": "[SiH2](C)C1=CC=CC=C1", "physical_data": {"Molecular Weight": "122.24", "Molecular Formula": "C7H10Si", "Boiling Point": "140 \u00b0C", "Density": "0.889 g/cm\u00b3"}}