{"cas_no": "766-05-2", "cn_name": "\u73af\u5df1\u7532\u8148", "en_name": ["Cyclohexanecarbonitrile", "Cyclohexanecarbonitrile", "Hexahydrobenzonitrile", "Cyanocyclohexane", "Cyclohexyl cyanide", "Cyclohexanecarboxylic acid nitrile", "Cyclohexanenitrile", "NSC 17557"], "SMILES": "C(#N)C1CCCCC1", "physical_data": {"Molecular Weight": "109.17", "Molecular Formula": "C7H11N", "Boiling Point": "75-77 \u00b0C @ Press: 16 Torr", "Melting Point": "11 \u00b0C", "Density": "0.919 g/cm\u00b3 @ Temp: 19 \u00b0C"}}