{"cas_no": "766-82-5", "cn_name": "3-\u7532\u57fa\u82ef\u4e59\u7094", "en_name": ["3-Methylphenylacetylene", "Benzene, 1-ethynyl-3-methyl-", "Toluene, m-ethynyl-", "1-Ethynyl-3-methylbenzene", "m-Ethynyltoluene", "m-Tolylacetylene", "3-Tolylacetylene", "3-Methylphenylacetylene", "m-Methylphenylacetylene", "3-Ethynyltoluene", "1-Methyl-3-ethynylbenzene", "3-Methylethynylbenzene", "(3-Methylphenyl)ethyne"], "SMILES": "C(#C)C1=CC(C)=CC=C1", "physical_data": {"Molecular Weight": "116.16", "Molecular Formula": "C9H8", "Boiling Point": "58-59 \u00b0C @ Press: 14 Torr"}}