{"cas_no": "766-00-7", "cn_name": "2-\u73af\u620a\u70f7\u4e59\u9187", "en_name": ["Cyclopentaneethanol", "Cyclopentaneethanol", "2-Cyclopentylethanol", "2-Cyclopentylethyl alcohol", "2-Cyclopentaneethanol", "2-Cyclopentylethan-1-ol"], "SMILES": "C(CO)C1CCCC1", "physical_data": {"Molecular Weight": "114.19", "Molecular Formula": "C7H14O", "Boiling Point": "183 \u00b0C", "Density": "0.9189 g/cm\u00b3 @ Temp: 22.3 \u00b0C"}}