{"cas_no": "766-93-8", "cn_name": "N-\u73af\u5df1\u57fa\u7532\u9170\u6c28", "en_name": ["Cyclohexylformamide", "Formamide, N-cyclohexyl-", "N-Cyclohexylformamide", "Cyclohexylformamide", "Formamidocyclohexane", "N-Formylcyclohexylamine", "NSC 76127", "Formylaminocyclohexane"], "SMILES": "N(C=O)C1CCCCC1", "physical_data": {"Molecular Weight": "127.18", "Molecular Formula": "C7H13NO", "Boiling Point": "260 \u00b0C", "Melting Point": "39.5 \u00b0C", "Density": "1.0123 g/cm\u00b3 @ Temp: 17 \u00b0C"}}