{"cas_no": "766-36-9", "cn_name": "3-\u4e59\u57fa-4-\u7532\u57fa-3-\u5421\u54af\u5549-2-\u916e", "en_name": ["3-Ethyl-1,5-dihydro-4-methyl-2H-pyrrol-2-one", "2H-Pyrrol-2-one, 3-ethyl-1,5-dihydro-4-methyl-", "3-Pyrrolin-2-one, 3-ethyl-4-methyl-", "3-Ethyl-1,5-dihydro-4-methyl-2H-pyrrol-2-one", "3-Ethyl-4-methyl-3-pyrrolin-2-one", "3-Ethyl-4-methyl-2-oxo-3-pyrroline", "3-Ethyl-4-methyl-1,5-dihydropyrrol-2-one", "3-Ethyl-4-methylpyrrolin-2-one", "3-Ethyl-4-methyl-2,5-dihydro-1H-pyrrol-2-one", "3-Ethyl-1,2-dihydro-4-methyl-5H-pyrrol-2-one"], "SMILES": "C(C)C1=C(C)CNC1=O", "physical_data": {"Molecular Weight": "125.17", "Molecular Formula": "C7H11NO", "Melting Point": "100-101 \u00b0C"}}