{"cas_no": "766-40-5", "cn_name": "3,4-\u4e8c\u6c2f-5-\u7f9f\u57fa-5H-\u544b\u5583-2-\u916e", "en_name": ["3,4-Dichloro-5-hydroxy-2(5H)-furanone", "2(5H)-Furanone, 3,4-dichloro-5-hydroxy-", "Crotonic acid, 2,3-dichloro-4,4-dihydroxy-, \u03b3-lactone", "3,4-Dichloro-5-hydroxy-2(5H)-furanone", "Mucochloric acid lactone", "NSC 179787", "5-Hydroxy-3,4-dichloro-2-(5H)-furanone", "3,4-Dichloro-5-hydroxy-5H-furan-2-one", "3,4-Dichloro-2-hydroxy-2H-furan-5-one", "3,4-Dichloro-5-hydroxy-2,5-dihydrofuran-2-one"], "SMILES": "ClC1=C(Cl)C(=O)OC1O", "physical_data": {"Molecular Weight": "168.96", "Molecular Formula": "C4H2Cl2O3", "Melting Point": "127 \u00b0C"}}