{"cas_no": "766-77-8", "cn_name": "\u4e8c\u7532\u57fa\u82ef\u70f7", "en_name": ["Dimethylphenylsilane", "Benzene, (dimethylsilyl)-", "Silane, dimethylphenyl-", "(Dimethylsilyl)benzene", "Phenyldimethylsilane", "Dimethylphenylsilane", "Dimethylphenylhydrosilane", "SIP 6729", "LS 2010"], "SMILES": "[SiH](C)(C)C1=CC=CC=C1", "physical_data": {"Molecular Weight": "136.27", "Molecular Formula": "C8H12Si", "Boiling Point": "156.5 \u00b0C", "Melting Point": "-124 \u00b0C", "Density": "0.889 g/cm\u00b3"}}