{"cas_no": "766-84-7", "cn_name": "3-\u6c2f\u82ef\u8148", "en_name": ["3-Chlorobenzonitrile", "Benzonitrile, 3-chloro-", "Benzonitrile, m-chloro-", "3-Chlorobenzonitrile", "m-Chlorobenzonitrile", "m-Cyanochlorobenzene", "m-Chlorocyanobenzene", "m-Chlorobenzonitrile", "NSC 59733"], "SMILES": "C(#N)C1=CC(Cl)=CC=C1", "physical_data": {"Molecular Weight": "137.57", "Molecular Formula": "C7H4ClN", "Melting Point": "41 \u00b0C"}}