{"cas_no": "766-80-3", "cn_name": "3-\u6c2f\u82c4\u6eb4", "en_name": ["3-Chlorobenzyl bromide", "Benzene, 1-(bromomethyl)-3-chloro-", "Toluene, \u03b1-bromo-m-chloro-", "1-(Bromomethyl)-3-chlorobenzene", "m-Chlorobenzyl bromide", "3-Chlorobenzyl bromide", "\u03b1-Bromo-m-chlorotoluene", "\u03b1-Bromo-3-chlorotoluene", "NSC 60110", "2-(Bromomethyl)-4-chlorobenzene", "1-Chloro-3-bromomethylbenzene"], "SMILES": "C(Br)C1=CC(Cl)=CC=C1", "physical_data": {"Molecular Weight": "205.48", "Molecular Formula": "C7H6BrCl", "Boiling Point": "109 \u00b0C @ Press: 10 Torr", "Melting Point": "15 \u00b0C"}}