{"cas_no": "766-09-6", "cn_name": "N-\u4e59\u57fa\u54cc\u5576", "en_name": ["N-Ethylpiperidine", "Piperidine, 1-ethyl-", "1-Ethylpiperidine", "N-Ethylpiperidine", "NSC 2090"], "SMILES": "C(C)N1CCCCC1", "physical_data": {"Molecular Weight": "113.20", "Molecular Formula": "C7H15N", "Boiling Point": "130.8 \u00b0C", "Density": "0.8232 g/cm\u00b3 @ Temp: 20 \u00b0C"}}