{"cas_no": "766-92-7", "cn_name": "\u82c4\u57fa\u7532\u57fa\u786b\u919a", "en_name": ["Benzyl methyl sulfide", "Benzene, [(methylthio)methyl]-", "Sulfide, benzyl methyl", "[(Methylthio)methyl]benzene", "Methyl benzyl sulfide", "Benzyl methyl sulfide", "1-Phenyl-2-thiapropane", "NSC 75125", "Benzyl methyl thioether", "[(Methylsulfanyl)methyl]benzene"], "SMILES": "C(SC)C1=CC=CC=C1", "physical_data": {"Molecular Weight": "138.23", "Molecular Formula": "C8H10S", "Boiling Point": "210 \u00b0C", "Melting Point": "-30 \u00b0C", "Density": "1.0274 g/cm\u00b3 @ Temp: 20 \u00b0C"}}