{"cas_no": "766-98-3", "cn_name": "4-\u6c1f\u82ef\u4e59\u7094", "en_name": ["1-Ethynyl-4-fluorobenzene", "Benzene, 1-ethynyl-4-fluoro-", "1-Ethynyl-4-fluorobenzene", "(p-Fluorophenyl)acetylene", "(4-Fluorophenyl)acetylene", "(p-Fluorophenyl)ethyne", "(4-Fluorophenyl)ethyne", "1-Fluoro-4-ethynylbenzene", "4-Ethynyl-1-fluorobenzene", "4-Ethynylfluorobenzene", "4-Fluoroethynylbenzene", "2-(4-Fluorophenyl)acetylene"], "SMILES": "C(#C)C1=CC=C(F)C=C1", "physical_data": {"Molecular Weight": "120.12", "Molecular Formula": "C8H5F", "Boiling Point": "34-35 \u00b0C @ Press: 10 Torr", "Melting Point": "26-27 \u00b0C"}}