{"cas_no": "766-17-6", "cn_name": "\u987a\u5f0f-2,6-\u4e8c\u7532\u57fa\u54cc\u5576", "en_name": ["rel-(2R,6S)-2,6-Dimethylpiperidine", "Piperidine, 2,6-dimethyl-, (2R,6S)-rel-", "2,6-Lupetidine, cis-", "Piperidine, 2,6-dimethyl-, cis-", "rel-(2R,6S)-2,6-Dimethylpiperidine", "cis-2,6-Dimethylpiperidine", "cis-2,6-Lupetidine", "(2R,6S)-2,6-Dimethylpiperidine", "meso-2,6-Lupetidine"], "SMILES": "CC1NC(C)CCC1", "physical_data": {"Molecular Weight": "113.20", "Molecular Formula": "C7H15N", "Boiling Point": "127 \u00b0C"}}