{"cas_no": "766-83-6", "cn_name": "3-\u6c2f\u82ef\u4e59\u7094", "en_name": ["3-Chlorophenylacetylene", "Benzene, 1-chloro-3-ethynyl-", "1-Chloro-3-ethynylbenzene", "m-Chlorophenylacetylene", "3-Chlorophenylacetylene", "1-Ethynyl-3-chlorobenzene", "3-Chloro-1-ethynylbenzene", "3-Chloroethynylbenzene", "(3-Chlorophenyl)ethyne"], "SMILES": "C(#C)C1=CC(Cl)=CC=C1", "physical_data": {"Molecular Weight": "136.58", "Molecular Formula": "C8H5Cl", "Boiling Point": "71 \u00b0C @ Press: 15 Torr"}}