{"cas_no": "766-39-2", "cn_name": "2,3-\u4e8c\u7532\u57fa\u9a6c\u6765\u9178\u9150", "en_name": ["Dimethylmaleic anhydride", "2,5-Furandione, 3,4-dimethyl-", "Maleic anhydride, dimethyl-", "Pyrocinchonic anhydride", "3,4-Dimethyl-2,5-furandione", "2,3-Dimethylmaleic anhydride", "Dimethylmaleic anhydride", "Dimethylmaleic acid anhydride", "NSC 92512", "2,3-Dimethylmalonic anhydride"], "SMILES": "CC1=C(C)C(=O)OC1=O", "physical_data": {"Molecular Weight": "126.11", "Molecular Formula": "C6H6O3", "Boiling Point": "223 \u00b0C", "Melting Point": "96 \u00b0C", "Density": "1.107 g/cm\u00b3 @ Temp: 100 \u00b0C"}}