{"cas_no": "766-15-4", "cn_name": "4\uff0c4\u2032-\u4e8c\u7532\u57fa1\uff0c3-\u4e8c\u5641\u70f7", "en_name": ["4,4-Dimethyl-1,3-dioxane", "1,3-Dioxane, 4,4-dimethyl-", "m-Dioxane, 4,4-dimethyl-", "4,4-Dimethyl-1,3-dioxane", "4,4-Dimethyl-m-dioxane"], "SMILES": "CC1(C)CCOCO1", "physical_data": {"Molecular Weight": "116.16", "Molecular Formula": "C6H12O2", "Boiling Point": "131.0-132.5 \u00b0C", "Density": "0.9634 g/cm\u00b3 @ Temp: 20 \u00b0C"}}