{"cas_no": "766-20-1", "cn_name": "2,4-\u4e8c\u7532\u57fa-1,3-\u4e8c\u6c27\u6742\u73af\u5df1\u70f7", "en_name": ["2,4-Dimethyl-1,3-dioxane", "1,3-Dioxane, 2,4-dimethyl-", "m-Dioxane, 2,4-dimethyl-", "2,4-Dimethyl-1,3-dioxane", "2,4-Dimethyl-m-dioxane", "NSC 60701"], "SMILES": "CC1OC(C)OCC1", "physical_data": {"Molecular Weight": "116.16", "Molecular Formula": "C6H12O2", "Boiling Point": "116.5 \u00b0C", "Density": "0.9354 g/cm\u00b3 @ Temp: 20 \u00b0C"}}