{"cas_no": "766-81-4", "cn_name": "3'-\u6eb4\u82ef\u4e59\u7094", "en_name": ["1-Bromo-3-ethynylbenzene", "Benzene, 1-bromo-3-ethynyl-", "1-Bromo-3-ethynylbenzene", "m-Bromophenylacetylene", "(3-Bromophenyl)acetylene"], "SMILES": "C(#C)C1=CC(Br)=CC=C1", "physical_data": {"Molecular Weight": "181.03", "Molecular Formula": "C8H5Br", "Boiling Point": "87 \u00b0C @ Press: 15 Torr"}}