{"cas_no": "766-51-8", "cn_name": "2-\u6c2f\u82ef\u7532\u919a", "en_name": ["2-Chloroanisole", "Benzene, 1-chloro-2-methoxy-", "Anisole, o-chloro-", "1-Chloro-2-methoxybenzene", "o-Chloroanisole", "o-Chlorophenyl methyl ether", "2-Chloroanisole", "2-Chlorophenol methyl ether", "o-Chloromethoxybenzene", "2-Chloromethoxybenzene", "o-Methoxychlorobenzene", "NSC 155175", "2-Methoxyphenyl chloride", "2-Methoxy-1-chlorobenzene"], "SMILES": "O(C)C1=C(Cl)C=CC=C1", "physical_data": {"Molecular Weight": "142.58", "Molecular Formula": "C7H7ClO", "Boiling Point": "198.5 \u00b0C", "Melting Point": "-26.8 \u00b0C", "Density": "1.248 g/cm\u00b3 @ Temp: 20 \u00b0C"}}