{"cas_no": "76608-88-3", "cn_name": "\u6291\u82bd\u5511", "en_name": ["Triapenthenol", "1H-1,2,4-Triazole-1-ethanol, \u03b2-(cyclohexylmethylene)-\u03b1-(1,1-dimethylethyl)-, (\u03b2E)-", "1H-1,2,4-Triazole-1-ethanol, \u03b2-(cyclohexylmethylene)-\u03b1-(1,1-dimethylethyl)-, (E)-", "(\u03b2E)-\u03b2-(Cyclohexylmethylene)-\u03b1-(1,1-dimethylethyl)-1H-1,2,4-triazole-1-ethanol", "NTN 811", "RSW 0411", "Triapenthenol", "UK 140", "Triazethanol", "Triazethan", "(E)-1-Cyclohexyl-4,4-dimethyl-2-(1,2,4-triazol-1-yl)-1-penten-3-ol", "Baronet"], "SMILES": "C(C(C(C)(C)C)O)(=CC1CCCCC1)N2C=NC=N2", "physical_data": {"Molecular Weight": "263.38", "Molecular Formula": "C15H25N3O", "Melting Point": "132-134 \u00b0C"}}