{"cas_no": "7660-25-5", "cn_name": "\u679c\u7cd6", "en_name": ["\u03b2-D-Fructopyranose", "\u03b2-D-Fructopyranose", "Fructopyranose, \u03b2-D-", "Frutabs", "Laevoral", "Laevosan", "Levugen"], "SMILES": "C(O)C1(O)C(O)C(O)C(O)CO1", "physical_data": {"Molecular Weight": "180.16", "Molecular Formula": "C6H12O6", "Melting Point": "103.8 \u00b0C"}}