{"cas_no": "76619-89-1", "cn_name": "3-\u6c28\u57fa-5-\u7532\u57fa\u82ef\u915a", "en_name": ["3-Amino-5-methylphenol", "Phenol, 3-amino-5-methyl-", "m-Cresol, 5-amino-", "3-Amino-5-methylphenol", "3-Hydroxy-5-methylaniline", "5-Methyl-3-aminophenol"], "SMILES": "CC1=CC(N)=CC(O)=C1", "physical_data": {"Molecular Weight": "123.15", "Molecular Formula": "C7H9NO", "Melting Point": "137-138 \u00b0C"}}