{"cas_no": "76610-84-9", "cn_name": "\u5934\u5b62\u62c9\u5b97", "en_name": ["Cefbuperazone", "5-Thia-1-azabicyclo[4.2.0]oct-2-ene-2-carboxylic acid, 7-[[(2R,3S)-2-[[(4-ethyl-2,3-dioxo-1-piperazinyl)carbonyl]amino]-3-hydroxy-1-oxobutyl]amino]-7-methoxy-3-[[(1-methyl-1H-tetrazol-5-yl)thio]methyl]-8-oxo-, (6R,7S)-", "5-Thia-1-azabicyclo[4.2.0]oct-2-ene-2-carboxylic acid, 7-[[2-[[(4-ethyl-2,3-dioxo-1-piperazinyl)carbonyl]amino]-3-hydroxy-1-oxobutyl]amino]-7-methoxy-3-[[(1-methyl-1H-tetrazol-5-yl)thio]methyl]-8-oxo-, [6R-[6\u03b1,7\u03b1,7(2R*,3S*)]]-", "(6R,7S)-7-[[(2R,3S)-2-[[(4-Ethyl-2,3-dioxo-1-piperazinyl)carbonyl]amino]-3-hydroxy-1-oxobutyl]amino]-7-methoxy-3-[[(1-methyl-1H-tetrazol-5-yl)thio]methyl]-8-oxo-5-thia-1-azabicyclo[4.2.0]oct-2-ene-2-carboxylic acid", "Cefbuperazone"], "SMILES": "N(C(C(NC(=O)N1C(=O)C(=O)N(CC)CC1)C(C)O)=O)C2(OC)C3N(C2=O)C(C(O)=O)=C(CSC=4N(C)N=NN4)CS3", "physical_data": {"Molecular Weight": "627.65", "Molecular Formula": "C22H29N9O9S2", "Melting Point": "118-120 \u00b0C"}}