{"cas_no": "7661-33-8", "cn_name": "1-(4-\u6c2f\u82ef\u57fa)-2-\u5421\u54af\u70f7\u916e", "en_name": ["1-(4-Chlorophenyl)-2-pyrrolidinone", "2-Pyrrolidinone, 1-(4-chlorophenyl)-", "2-Pyrrolidinone, 1-(p-chlorophenyl)-", "1-(4-Chlorophenyl)-2-pyrrolidinone"], "SMILES": "O=C1N(CCC1)C2=CC=C(Cl)C=C2", "physical_data": {"Molecular Weight": "195.65", "Molecular Formula": "C10H10ClNO", "Melting Point": "95-97 \u00b0C"}}