{"cas_no": "7661-55-4", "cn_name": "5-\u7532\u57fa\u55b9\u5549", "en_name": ["5-Methylquinoline", "Quinoline, 5-methyl-", "5-Methylquinoline"], "SMILES": "CC=1C2=C(C=CC1)N=CC=C2", "physical_data": {"Molecular Weight": "143.19", "Molecular Formula": "C10H9N", "Boiling Point": "262.7 \u00b0C", "Melting Point": "19 \u00b0C"}}