{"cas_no": "7662-51-3", "cn_name": "l-\u916a\u80fa\u57fa\u4e59\u9178\u80bc", "en_name": ["L-Tyrosine hydrazide", "L-Tyrosine, hydrazide", "Tyrosine, hydrazide, L-", "L-Tyrosine hydrazide", "Tyrosine hydrazide", "NSC 337746", "L-(-)-Tyrosine hydrazide", "L-(+)-Tyrosine hydrazide", "(2S)-2-Amino-3-(4-hydroxyphenyl)propanehydrazide", "(S)-2-Amino-3-(4-hydroxyphenyl)propanehydrazide"], "SMILES": "C(C(C(NN)=O)N)C1=CC=C(O)C=C1", "physical_data": {"Molecular Weight": "195.22", "Molecular Formula": "C9H13N3O2", "Melting Point": "194 \u00b0C"}}