{"cas_no": "7663-77-6", "cn_name": "N-(3'-\u4e19\u80fa\u57fa)-2-\u5421\u54af\u70f7\u916e", "en_name": ["1-(3-Aminopropyl)-2-pyrrolidinone", "2-Pyrrolidinone, 1-(3-aminopropyl)-", "1-(3-Aminopropyl)-2-pyrrolidinone", "N-(3-Aminopropyl)-\u03b3-butyrolactam", "N-(3-Aminopropyl)-2-pyrrolidinone", "N-(3-Aminopropyl)-2-pyrrolidone", "Acisoga", "1-(3-Aminopropyl)-2-pyrrolidone", "3-(2-Oxo-1-pyrrolidinyl)propylamine", "1-(3-Aminopropyl)-2-oxopyrrolidine", "[3-(2-Oxopyrrolidino)propyl]amine", "NSC 108683", "1-(3-Aminopropyl)pyrrolidin-2-one", "2-Oxo-1-pyrrolidinepropanamine"], "SMILES": "C(CCN)N1C(=O)CCC1", "physical_data": {"Molecular Weight": "142.20", "Molecular Formula": "C7H14N2O", "Boiling Point": "121-124 \u00b0C @ Press: 1.5 Torr"}}