{"cas_no": "76631-46-4", "cn_name": "\u5730\u6258\u54aa\u5b9a", "en_name": ["Detomidine", "1H-Imidazole, 5-[(2,3-dimethylphenyl)methyl]-", "1H-Imidazole, 4-[(2,3-dimethylphenyl)methyl]-", "5-[(2,3-Dimethylphenyl)methyl]-1H-imidazole", "Detomidine", "MPV 252AII"], "SMILES": "C(C1=C(C)C(C)=CC=C1)C2=CN=CN2", "physical_data": {"Molecular Weight": "186.25", "Molecular Formula": "C12H14N2", "Melting Point": "114-116 \u00b0C"}}