{"cas_no": "7664-93-9", "cn_name": "\u786b\u9178", "en_name": ["Sulfuric acid", "Sulfuric acid", "BOV", "Dipping acid", "Oil of vitriol", "Sulphuric acid", "Vitriol brown oil", "Dihydrogen sulfate", "Contact acid", "Brimstone acid", "NSC 248648", "NSC 38965", "Ridolene 123", "Aftec 3000", "Sulfuric acids", "Alkyl sulfates", "Top Lucina HV-QB", "ADWL 02", "Top ADD 100", "Exodo"], "SMILES": "S(=O)(=O)(O)O", "physical_data": {"Molecular Weight": "98.08", "Molecular Formula": "H2O4S", "Boiling Point": "~290 \u00b0C (approx)", "Melting Point": "10.31 \u00b0C", "Density": "1.8 g/cm\u00b3"}}