{"cas_no": "7664-38-2", "cn_name": "\u78f7\u9178", "en_name": ["Phosphoric acid", "Phosphoric acid", "Orthophosphoric acid", "EVITs", "WC-Reiniger", "Sonac", "Decon 4512", "Kefo", "3M Etching Liquid", "C 134 (acid)", "C 434 (acid)", "C 134", "C 434", "Mikro Klene DF", "K-etchant", "SPA 2 (catalyst)", "SPA 2", "TG 434", "Ultra-Etch Gel", "Uni-Etch", "Ultraetch", "Amberphos 54", "HQ 54", "Panavia Etching Agent", "Conditioner 36", "E 338", "Total Etch", "NSC 80804", "Etchalite", "Kerr Etchant", "Y 11A06", "Ultradent", "K Etchant Gel", "Acidum phosphoricum", "Vococid", "PC 400", "SF 1", "SF 1 (acid)", "Nacure XC 296B"], "SMILES": "P(=O)(O)(O)O", "physical_data": {"Molecular Weight": "98.00", "Molecular Formula": "H3O4P", "Melting Point": "42.35 \u00b0C", "Density": "1.834 g/cm\u00b3 @ Temp: 18 \u00b0C"}}