{"cas_no": "76646-91-8", "cn_name": "\u8212\u5df4\u5766\u76f8\u5173\u7269\u8d28E", "en_name": ["4-Thia-1-azabicyclo[3.2.0]heptane-2-carboxylic acid, 6,6-dibromo-3,3-dimethyl-7-oxo-, 4,4-dioxide, (2S,5R)-", "4-Thia-1-azabicyclo[3.2.0]heptane-2-carboxylic acid, 6,6-dibromo-3,3-dimethyl-7-oxo-, 4,4-dioxide, (2S,5R)-", "4-Thia-1-azabicyclo[3.2.0]heptane-2-carboxylic acid, 6,6-dibromo-3,3-dimethyl-7-oxo-, 4,4-dioxide, (2S-cis)-", "6,6-Dibromopenicillanic acid 1,1-dioxide", "6,6-Dibromopenicillanic acid S,S-dioxide"], "SMILES": "O=S1(=O)C2N(C(C(O)=O)C1(C)C)C(=O)C2(Br)Br", "physical_data": {"Molecular Weight": "391.03", "Molecular Formula": "C8H9Br2NO5S", "Melting Point": "177-178 \u00b0C (decomp)"}}