{"cas_no": "7664-41-7", "cn_name": "\u6c28", "en_name": ["Ammonia", "Ammonia", "Ammonia gas", "Spirit of Hartshorn", "Nitro-Sil", "R 717 (ammonia)", "Refrigerent R717", "Ammonia-14N", "R 717", "Busan 1474", "Spirits of hartshorn", "MeSH ID: D000641"], "SMILES": "N", "physical_data": {"Molecular Weight": "", "Molecular Formula": "H3N", "Boiling Point": "-33.35 \u00b0C", "Melting Point": "-77.7 \u00b0C", "Density": "0.7 g/cm\u00b3 @ Temp: -33 \u00b0C"}}