{"cas_no": "7664-66-6", "cn_name": "4-\u5f02\u4e19\u6c27\u57fa\u82ef\u80fa", "en_name": ["4-(1-Methylethoxy)benzenamine", "Benzenamine, 4-(1-methylethoxy)-", "Aniline, p-isopropoxy-", "4-(1-Methylethoxy)benzenamine", "4-Isopropoxyaniline", "p-Isopropoxyaniline", "4-Isopropoxyphenylamine", "4-[(1-Methylethyl)oxy]aniline"], "SMILES": "O(C(C)C)C1=CC=C(N)C=C1", "physical_data": {"Molecular Weight": "151.21", "Molecular Formula": "C9H13NO", "Boiling Point": "136 \u00b0C @ Press: 19 Torr", "Melting Point": "244 \u00b0C (decomp)"}}