{"cas_no": "7665-72-7", "cn_name": "\u53d4\u4e01\u57fa\u7f29\u6c34\u7518\u6cb9\u57fa\u919a", "en_name": ["2-[(1,1-Dimethylethoxy)methyl]oxirane", "Oxirane, 2-[(1,1-dimethylethoxy)methyl]-", "Oxirane, [(1,1-dimethylethoxy)methyl]-", "Propane, 1-tert-butoxy-2,3-epoxy-", "2-[(1,1-Dimethylethoxy)methyl]oxirane", "tert-Butyl glycidyl ether", "1,1-Dimethylethyl glycidyl ether", "(tert-Butoxymethyl)oxirane", "1-tert-Butoxy-2,3-epoxypropane", "2,3-Epoxypropyl-tert-butyl ether", "tert-Butyl 2,3-epoxypropyl ether", "(\u00b1)-tert-Butylglycidyl ether", "Glycidyl tert-butyl ether", "2-(tert-Butoxymethyl)oxirane", "3-tert-Butoxy-1,2-epoxypropane", "2-Trimethylmethoxymethyloxirane", "p-tert-Butyl glycidyl ether", "2-[(2-Methylpropan-2-yl)oxymethyl]oxirane"], "SMILES": "C(OC(C)(C)C)C1CO1", "physical_data": {"Molecular Weight": "130.18", "Molecular Formula": "C7H14O2", "Boiling Point": "152 \u00b0C", "Melting Point": "-70 \u00b0C", "Density": "0.9208 g/cm\u00b3 @ Temp: 20 \u00b0C"}}