{"cas_no": "76674-21-0", "cn_name": "\u7c89\u5511\u9187", "en_name": ["Flutriafol", "1H-1,2,4-Triazole-1-ethanol, \u03b1-(2-fluorophenyl)-\u03b1-(4-fluorophenyl)-", "\u03b1-(2-Fluorophenyl)-\u03b1-(4-fluorophenyl)-1H-1,2,4-triazole-1-ethanol", "Flutriafol", "R 152450", "PP 450-5", "PP 450", "Impact", "Impact (fungicide)", "Sinker"], "SMILES": "C(CN1C=NC=N1)(O)(C2=C(F)C=CC=C2)C3=CC=C(F)C=C3", "physical_data": {"Molecular Weight": "301.29", "Molecular Formula": "C16H13F2N3O", "Melting Point": "130 \u00b0C"}}