{"cas_no": "7667-80-3", "cn_name": "\u6b63\u516d\u5341\u70f7", "en_name": ["Hexacontane", "Hexacontane", "n-Hexacontane"], "SMILES": "C(CCCCCCCCCCCCCCCCCCCCCCCCCCCCCC)CCCCCCCCCCCCCCCCCCCCCCCCCCCCC", "physical_data": {"Molecular Weight": "843.61", "Molecular Formula": "C60H122", "Boiling Point": "250 \u00b0C", "Melting Point": "98.5-99.3 \u00b0C"}}