{"cas_no": "7669-54-7", "cn_name": "2-\u785d\u57fa\u82ef\u786b\u6c2f", "en_name": ["2-Nitrobenzenesulfenyl chloride", "Benzenesulfenyl chloride, 2-nitro-", "Benzenesulfenyl chloride, o-nitro-", "2-Nitrobenzenesulfenyl chloride", "2-Nitrophenylsulfenyl chloride", "o-Nitrophenylsulfenyl chloride", "o-Nitrobenzenesulfenyl chloride", "o-Nitrobenzenesulphenyl chloride", "2-Nitrophenylsulphenyl chloride", "2-Nitrobenzenesulfenic acid chloride", "NSC 16179", "1-(Chlorosulfanyl)-2-nitrobenzene", "(2-Nitrophenyl) thiohypochlorite"], "SMILES": "S(Cl)C1=C(N(=O)=O)C=CC=C1", "physical_data": {"Molecular Weight": "189.62", "Molecular Formula": "C6H4ClNO2S", "Melting Point": "75 \u00b0C"}}