{"cas_no": "7669-65-0", "cn_name": "H-PHE-PRO-OH", "en_name": ["L-Phenylalanyl-L-proline", "L-Proline, L-phenylalanyl-", "Proline, 1-(3-phenyl-L-alanyl)-, L-", "L-Proline, 1-L-phenylalanyl-", "Proline, 1-(3-phenyl-L-alanyl)-", "L-Phenylalanyl-L-proline", "9: PN: WO2014063098 TABLE: 5 claimed protein", "26: PN: WO2021055880 SEQID: 27 claimed protein"], "SMILES": "C(C(CC1=CC=CC=C1)N)(=O)N2C(C(O)=O)CCC2", "physical_data": {"Molecular Weight": "262.30", "Molecular Formula": "C14H18N2O3", "Melting Point": "127-129 \u00b0C"}}