{"cas_no": "767-10-2", "cn_name": "1-\u4e01\u57fa\u5421\u54af\u70f7", "en_name": ["1-Butylpyrrolidine", "Pyrrolidine, 1-butyl-", "1-Butylpyrrolidine", "N-Butylpyrrolidine", "N-Butyltetrahydropyrrole"], "SMILES": "C(CCC)N1CCCC1", "physical_data": {"Molecular Weight": "127.23", "Molecular Formula": "C8H17N", "Boiling Point": "154.5 \u00b0C", "Density": "0.8143 g/cm\u00b3 @ Temp: 20 \u00b0C"}}