{"cas_no": "767-59-9", "cn_name": "1-\u7532\u57fa\u831a", "en_name": ["1-Methylindene", "1H-Indene, 1-methyl-", "Indene, 1-methyl-", "1-Methyl-1H-indene", "1-Methylindene", "\u03b1-Methylindene", "NSC 38857"], "SMILES": "CC1C=2C(=CC=CC2)C=C1", "physical_data": {"Molecular Weight": "130.19", "Molecular Formula": "C10H10", "Boiling Point": "199 \u00b0C", "Density": "0.9640 g/cm\u00b3 @ Temp: 20 \u00b0C"}}