{"cas_no": "767-91-9", "cn_name": "2-\u4e59\u7094\u57fa\u82ef\u7532\u919a", "en_name": ["1-Ethynyl-2-methoxybenzene", "Benzene, 1-ethynyl-2-methoxy-", "Anisole, o-ethynyl-", "1-Ethynyl-2-methoxybenzene", "(2-Methoxyphenyl)acetylene", "(o-Methoxyphenyl)acetylene", "o-Anisylacetylene", "o-Ethynylanisole", "(2-Methoxyphenyl)ethyne", "2-Ethynylanisole"], "SMILES": "C(#C)C1=C(OC)C=CC=C1", "physical_data": {"Molecular Weight": "132.16", "Molecular Formula": "C9H8O", "Boiling Point": "92 \u00b0C"}}