{"cas_no": "767-70-4", "cn_name": "7-\u6eb4\u82ef\u5e76\u567b\u5511", "en_name": ["7-Bromobenzothiazole", "Benzothiazole, 7-bromo-", "7-Bromobenzothiazole", "7-Bromobenzo[d]thiazole", "7-Bromo-1,3-benzothiazole"], "SMILES": "BrC1=C2C(=CC=C1)N=CS2", "physical_data": {"Molecular Weight": "214.08", "Molecular Formula": "C7H4BrNS", "Melting Point": "82 \u00b0C"}}