{"cas_no": "767-92-0", "cn_name": "\u53cd-\u5341\u6c22\u55b9\u5549", "en_name": ["rel-(4aR,8aS)-Decahydroquinoline", "Quinoline, decahydro-, (4aR,8aS)-rel-", "Quinoline, decahydro-, trans-", "rel-(4aR,8aS)-Decahydroquinoline", "trans-Decahydroquinoline"], "SMILES": "C12C(CCCC1)NCCC2", "physical_data": {"Molecular Weight": "139.24", "Molecular Formula": "C9H17N", "Boiling Point": "203 \u00b0C @ Press: 735 Torr", "Melting Point": "48 \u00b0C", "Density": "0.9021 g/cm\u00b3 @ Temp: 56.5 \u00b0C"}}