{"cas_no": "767-64-6", "cn_name": "4-\u6c28\u57fa-2,1,3-\u82ef\u5e76\u567b\u4e8c\u5511", "en_name": ["2,1,3-Benzothiadiazol-4-amine", "2,1,3-Benzothiadiazol-4-amine", "2,1,3-Benzothiadiazole, 4-amino-", "4-Amino-2,1,3-benzothiadiazole", "NSC 73013", "Benzo[c][1,2,5]thiadiazol-4-amine", "(Benzo[2,1,3]thiadiazol-4-yl)amine", "Benzo[1,2,5]thiadiazol-4-ylamine", "2\u03bb4\u03b42-2,1,3-Benzothiadiazol-4-amine"], "SMILES": "NC=1C=2C(C=CC1)=NSN2", "physical_data": {"Molecular Weight": "151.19", "Molecular Formula": "C6H5N3S", "Melting Point": "68 \u00b0C"}}