{"cas_no": "767-63-5", "cn_name": "2,1,3-\u82ef\u5e76\u567b\u4e8c\u5511-4-\u80fa", "en_name": ["2,1,3-Benzoxadiazol-4-amine", "2,1,3-Benzoxadiazol-4-amine", "Benzofurazan, 4-amino-", "4-Benzofurazanamine", "4-Aminobenzofurazan", "4-Amino-2,1,3-benzoxadiazole", "2,1,3-Benzooxadiazol-4-ylamine"], "SMILES": "NC=1C=2C(C=CC1)=NON2", "physical_data": {"Molecular Weight": "135.12", "Molecular Formula": "C6H5N3O", "Melting Point": "110-111 \u00b0C"}}