{"cas_no": "767-00-0", "cn_name": "4-\u7f9f\u57fa\u82ef\u7532\u8148", "en_name": ["4-Cyanophenol", "Benzonitrile, 4-hydroxy-", "Benzonitrile, p-hydroxy-", "4-Hydroxybenzonitrile", "p-Cyanophenol", "p-Hydroxybenzonitrile", "4-Cyanophenol", "NSC 400524", "4-Hydroxycyanobenzene"], "SMILES": "C(#N)C1=CC=C(O)C=C1", "physical_data": {"Molecular Weight": "119.12", "Molecular Formula": "C7H5NO", "Boiling Point": "148 \u00b0C @ Press: 1 Torr", "Melting Point": "110-113 \u00b0C"}}