{"cas_no": "767-15-7", "cn_name": "2-\u6c28\u57fa-4,6-\u4e8c\u7532\u57fa\u5627\u5576", "en_name": ["2-Amino-4,6-dimethylpyrimidine", "2-Pyrimidinamine, 4,6-dimethyl-", "Pyrimidine, 2-amino-4,6-dimethyl-", "4,6-Dimethyl-2-pyrimidinamine", "2-Amino-4,6-dimethylpyrimidine", "4,6-Dimethyl-2-aminopyrimidine", "NSC 3278", "(4,6-Dimethylpyrimidin-2-yl)amine"], "SMILES": "CC=1C=C(C)N=C(N)N1", "physical_data": {"Molecular Weight": "123.16", "Molecular Formula": "C6H9N3", "Melting Point": "151-153 \u00b0C"}}