{"cas_no": "767-16-8", "cn_name": "4-\u6c28\u57fa-6-\u7f9f\u57fa-2-\u7532\u57fa\u5627\u5576", "en_name": ["6-Amino-2-methyl-4(3H)-pyrimidinone", "4(3H)-Pyrimidinone, 6-amino-2-methyl-", "4-Pyrimidinol, 6-amino-2-methyl-", "4(1H)-Pyrimidinone, 6-amino-2-methyl-", "6-Amino-2-methyl-4(3H)-pyrimidinone", "2-Methyl-4-amino-6-hydroxypyrimidine", "2-Methyl-4-amino-6-oxypyrimidine", "4-Amino-6-hydroxy-2-methylpyrimidine", "NSC 171558", "NSC 26362", "6-Amino-2-methylpyrimidin-4-ol"], "SMILES": "NC1=CC(=O)N=C(C)N1", "physical_data": {"Molecular Weight": "125.13", "Molecular Formula": "C5H7N3O", "Melting Point": "290 \u00b0C"}}