{"cas_no": "767-54-4", "cn_name": "\u4e09\u7532\u57fa\u73af\u5df1\u9187", "en_name": ["rel-(1R,5S)-3,3,5-Trimethylcyclohexanol", "Cyclohexanol, 3,3,5-trimethyl-, (1R,5S)-rel-", "Cyclohexanol, 3,3,5-trimethyl-, trans-", "rel-(1R,5S)-3,3,5-Trimethylcyclohexanol", "trans-3,5,5-Trimethylcyclohexanol", "trans-3,3,5-Trimethylcyclohexanol"], "SMILES": "CC1(C)CC(C)CC(O)C1", "physical_data": {"Molecular Weight": "142.24", "Molecular Formula": "C9H18O", "Boiling Point": "189.2 \u00b0C", "Melting Point": "55.8 \u00b0C"}}