{"cas_no": "767-05-5", "cn_name": "3-\u73af\u620a\u57fa-1-\u4e19\u9187", "en_name": ["Cyclopentanepropanol", "Cyclopentanepropanol", "3-Cyclopentylpropanol", "\u03b3-Cyclopentylpropanol", "3-Cyclopentyl-1-propanol"], "SMILES": "C(CCO)C1CCCC1", "physical_data": {"Molecular Weight": "128.21", "Molecular Formula": "C8H16O", "Boiling Point": "125-127 \u00b0C @ Press: 125 Torr", "Density": "0.9137 g/cm\u00b3 @ Temp: 20 \u00b0C"}}