{"cas_no": "76714-88-0", "cn_name": "\u70ef\u5511\u9187", "en_name": ["Diniconazole", "1H-1,2,4-Triazole-1-ethanol, \u03b2-[(2,4-dichlorophenyl)methylene]-\u03b1-(1,1-dimethylethyl)-, (\u03b2E)-", "1H-1,2,4-Triazole-1-ethanol, \u03b2-[(2,4-dichlorophenyl)methylene]-\u03b1-(1,1-dimethylethyl)-, (E)-(\u00b1)-", "(\u03b2E)-\u03b2-[(2,4-Dichlorophenyl)methylene]-\u03b1-(1,1-dimethylethyl)-1H-1,2,4-triazole-1-ethanol", "Diniconazole", "S 3308-10", "Sumi 8", "XE 779", "Nb 2", "S 3308", "S 3308L", "Spotless", "Nb 2 (pesticide)", "Sumi", "Mixor", "Sumi 8-12.5WP", "1H-1,2,4-Triazole-1-ethanol, \u03b2-[(2,4-dichlorophenyl)methylene]-\u03b1-(1,1-dimethylethyl)-, (E)-", "(E)-1-(2,4-Dichlorophenyl)-4,4-dimethyl-2-(1,2,4-triazol-1-yl)-1-penten-3-ol", "Sumi 8-020FS", "Rac-diniconazole"], "SMILES": "C(=CC1=C(Cl)C=C(Cl)C=C1)(C(C(C)(C)C)O)N2C=NC=N2", "physical_data": {"Molecular Weight": "326.22", "Molecular Formula": "C15H17Cl2N3O", "Melting Point": "148-149 \u00b0C"}}