{"cas_no": "76738-62-0", "cn_name": "\u591a\u6548\u5511", "en_name": ["Paclobutrazol", "1H-1,2,4-Triazole-1-ethanol, \u03b2-[(4-chlorophenyl)methyl]-\u03b1-(1,1-dimethylethyl)-, (\u03b1R,\u03b2R)-rel-", "1H-1,2,4-Triazole-1-ethanol, \u03b2-[(4-chlorophenyl)methyl]-\u03b1-(1,1-dimethylethyl)-, (R*,R*)-(\u00b1)-", "rel-(\u03b1R,\u03b2R)-\u03b2-[(4-Chlorophenyl)methyl]-\u03b1-(1,1-dimethylethyl)-1H-1,2,4-triazole-1-ethanol", "PP 333", "Paclobutrazol", "ICI-PP 333", "Cultar", "Bonzi", "Parlay", "Trimmit", "Clipper", "MET (Triazole)", "(2-RS,3RS)-1-(4-Chlorophenyl)-4,4-dimethyl-2-(1H-1,2,4-triazol-1-yl)pentan-3-ol", "Duo Xiao Zuo", "Multi-effect triazole", "1H-1,2,4-Triazole-1-ethanol, \u03b2-[(4-chlorophenyl)methyl]-\u03b1-(1,1-dimethylethyl)-, (R*,R*)-", "Friazole", "Smarect", "PP 333 (plant growth regulator)", "Bounty Flowable", "AuStar", "Clipper (triazole)", "Trimtect", "Cambistat", "PPP 333"], "SMILES": "C(CC1=CC=C(Cl)C=C1)(C(C(C)(C)C)O)N2C=NC=N2", "physical_data": {"Molecular Weight": "293.79", "Molecular Formula": "C15H20ClN3O", "Melting Point": "165.5 \u00b0C"}}