{"cas_no": "76748-86-2", "cn_name": "4-[(7-\u6c2f-2-\u7532\u6c27\u57fa-1,5-\u4e8c\u6c22\u5421\u5576\u5e76[3,2-b]\u55b9\u5549-10-\u57fa)\u4e9a\u6c28]-2,6-\u4e8c(\u5421\u54af\u70f7-1-\u57fa\u7532\u57fa)\u73af\u5df1-2,5-\u4e8c\u70ef-1-\u916e\u78f7\u9178\u76d0 (1:4)", "en_name": ["4-[(7-Chloro-2-methoxybenzo[b]-1,5-naphthyridin-10-yl)amino]-2,6-bis(1-pyrrolidinylmethyl)phenyl phosphate (1:4)", "Phenol, 4-[(7-chloro-2-methoxybenzo[b]-1,5-naphthyridin-10-yl)amino]-2,6-bis(1-pyrrolidinylmethyl)-, phosphate (1:4)", "Phenol, 4-[(7-chloro-2-methoxybenzo[b]-1,5-naphthyridin-10-yl)amino]-2,6-bis(1-pyrrolidinylmethyl)-, phosphate (1:4) (salt)", "4-[(7-Chloro-2-methoxybenzo[b]-1,5-naphthyridin-10-yl)amino]-2,6-bis(1-pyrrolidinylmethyl)phenyl phosphate (1:4)", "Pyronaridine tetraphosphate"], "SMILES": "P(=O)(O)(O)O.N(C1=C2C(=NC3=C1C=CC(Cl)=C3)C=CC(OC)=N2)C4=CC(CN5CCCC5)=C(O)C(CN6CCCC6)=C4", "physical_data": {"Molecular Weight": "", "Molecular Formula": "C29H32ClN5O2.4H3O4P", "Melting Point": "180-182 \u00b0C"}}