{"cas_no": "76757-92-1", "cn_name": "N-\u53d4\u4e01\u6c27\u7fb0\u57fa-O-\u4e59\u57fa-D-\u916a\u6c28\u9178", "en_name": ["N-[(1,1-Dimethylethoxy)carbonyl]-O-ethyl-D-tyrosine", "D-Tyrosine, N-[(1,1-dimethylethoxy)carbonyl]-O-ethyl-", "N-[(1,1-Dimethylethoxy)carbonyl]-O-ethyl-D-tyrosine", "(2R)-3-(4-Ethoxyphenyl)-2-[(2-methylpropan-2-yl)oxycarbonylamino]propanoic acid"], "SMILES": "C(C(NC(OC(C)(C)C)=O)C(O)=O)C1=CC=C(OCC)C=C1", "physical_data": {"Molecular Weight": "309.36", "Molecular Formula": "C16H23NO5", "Melting Point": "80-81 \u00b0C"}}