{"cas_no": "7675-57-2", "cn_name": "N-2-\u785d\u57fa\u82ef\u4e9a\u78fa\u9170\u57fa-L-\u7f2c\u6c28\u9178\u53cc\u73af\u5df1\u94f5\u76d0", "en_name": ["L-Valine, N-[(2-nitrophenyl)thio]-, compd. with N-cyclohexylcyclohexanamine (1:1)", "L-Valine, N-[(2-nitrophenyl)thio]-, compd. with N-cyclohexylcyclohexanamine (1:1)", "Valine, N-[(o-nitrophenyl)thio]-, compd. with dicyclohexylamine (1:1), L-", "Dicyclohexylamine, compd. with N-[(o-nitrophenyl)thio]-L-valine (1:1)"], "SMILES": "N(C1CCCCC1)C2CCCCC2.S(NC(C(C)C)C(O)=O)C1=C(N(=O)=O)C=CC=C1", "physical_data": {"Molecular Weight": "", "Molecular Formula": "C12H23N.C11H14N2O4S", "Melting Point": "191-193 \u00b0C"}}