{"cas_no": "7675-83-4", "cn_name": "L-\u7cbe\u6c28\u9178 L-\u5929\u95e8\u51ac\u6c28\u9178", "en_name": ["Arginine aspartate", "L-Aspartic acid, compd. with L-arginine (1:1)", "Aspartic acid, L-, compd. with L-arginine (1:1)", "Arginine, L-, L-aspartate (1:1)", "L-Arginine, L-aspartate (1:1)", "Arginine aspartate"], "SMILES": "C(CC(O)=O)(C(O)=O)N.C(CCNC(=N)N)C(C(O)=O)N", "physical_data": {"Molecular Weight": "", "Molecular Formula": "C6H14N4O2.C4H7NO4", "Melting Point": "220-221 \u00b0C"}}