{"cas_no": "7677-24-9", "cn_name": "\u4e09\u7532\u57fa\u6c30\u7845\u70f7", "en_name": ["Trimethylsilyl cyanide", "Silanecarbonitrile, trimethyl-", "Silane, cyanotrimethyl-", "Trimethylsilanecarbonitrile", "Trimethylsilyl cyanide", "Cyanotrimethylsilane", "Trimethylcyanosilane", "Trimethylsilylcarbonitrile", "Trimethylsilyl nitrile", "Trimethylsilylformonitrile"], "SMILES": "[Si](C#N)(C)(C)C", "physical_data": {"Molecular Weight": "99.21", "Molecular Formula": "C4H9NSi", "Boiling Point": "118-119 \u00b0C", "Melting Point": "11-12 \u00b0C", "Density": "0.744 g/cm\u00b3"}}