{"cas_no": "76783-59-0", "cn_name": "3-(\u4e09\u6c1f\u7532\u57fa)\u82ef\u7532\u9178\u4e59\u916f", "en_name": ["Benzoic acid, 3-(trifluoromethyl)-, ethyl ester", "Benzoic acid, 3-(trifluoromethyl)-, ethyl ester", "Ethyl 3-(trifluoromethyl)benzoate", "Ethyl m-(trifluoromethyl)benzoate", "3-(Trifluoromethyl)benzoic acid ethyl ester"], "SMILES": "C(OCC)(=O)C1=CC(C(F)(F)F)=CC=C1", "physical_data": {"Molecular Weight": "218.17", "Molecular Formula": "C10H9F3O2", "Boiling Point": "28-29 \u00b0C @ Press: 0.19 Torr"}}