{"cas_no": "7678-85-5", "cn_name": "7,2',4'-\u4e09\u7f9f\u57fa\u5f02\u9ec4\u916e", "en_name": ["2\u2032-Hydroxydaidzein", "4H-1-Benzopyran-4-one, 3-(2,4-dihydroxyphenyl)-7-hydroxy-", "Isoflavone, 2\u2032,4\u2032,7-trihydroxy-", "3-(2,4-Dihydroxyphenyl)-7-hydroxy-4H-1-benzopyran-4-one", "2\u2032,4\u2032,7-Trihydroxyisoflavone", "7,2\u2032,4\u2032-Trihydroxyisoflavone", "2\u2032-Hydroxydaidzein", "3-(2,4-Dihydroxyphenyl)-7-hydroxychromen-4-one"], "SMILES": "O=C1C(=COC=2C1=CC=C(O)C2)C3=C(O)C=C(O)C=C3", "physical_data": {"Molecular Weight": "270.24", "Molecular Formula": "C15H10O5", "Melting Point": "284 \u00b0C"}}