{"cas_no": "76784-40-2", "cn_name": "2,5-\u53cc(2,2,2-\u4e09\u6c1f\u4e59\u6c27\u57fa)\u82ef\u4e59\u916e", "en_name": ["1-[2,5-Bis(2,2,2-trifluoroethoxy)phenyl]ethanone", "Ethanone, 1-[2,5-bis(2,2,2-trifluoroethoxy)phenyl]-", "1-[2,5-Bis(2,2,2-trifluoroethoxy)phenyl]ethanone", "1-[2,5-Bis(2,2,2-trifluoroethoxy)phenyl]ethan-1-one"], "SMILES": "O(CC(F)(F)F)C1=C(C(C)=O)C=C(OCC(F)(F)F)C=C1", "physical_data": {"Molecular Weight": "316.20", "Molecular Formula": "C12H10F6O3", "Melting Point": "84-86 \u00b0C"}}