{"cas_no": "768-90-1", "cn_name": "1-\u6eb4\u91d1\u521a\u70f7", "en_name": ["1-Bromoadamantane", "Tricyclo[3.3.1.13,7]decane, 1-bromo-", "Adamantane, 1-bromo-", "1-Bromotricyclo[3.3.1.13,7]decane", "1-Bromoadamantane", "1-Adamantyl bromide", "Adamantyl bromide", "NSC 527914"], "SMILES": "BrC12CC3CC(C1)CC(C2)C3", "physical_data": {"Molecular Weight": "215.13", "Molecular Formula": "C10H15Br", "Melting Point": "118 \u00b0C"}}