{"cas_no": "768-05-8", "cn_name": "\u5421\u55ea-2-\u7532\u9170\u80bc", "en_name": ["2-Pyrazinecarboxylic acid, hydrazide", "2-Pyrazinecarboxylic acid, hydrazide", "Pyrazinecarboxylic acid, hydrazide", "NSC 8810", "Pyrazinylcarbonylhydrazine", "Pyrazinoic acid hydrazide", "2-(Hydrazinocarbonyl)pyrazine", "Pyrazinecarbohydrazide", "2-Pyrazinoyl hydrazide", "NSC 88100", "Idv 128", "Pyrazinic acid hydrazide", "Pyrazine-2-carboxylic hydrazide", "Pyrazine-2-carbohydrazide"], "SMILES": "C(NN)(=O)C=1C=NC=CN1", "physical_data": {"Molecular Weight": "138.13", "Molecular Formula": "C5H6N4O", "Melting Point": "169 \u00b0C"}}