{"cas_no": "768-33-2", "cn_name": "\u82ef\u57fa\u4e8c\u7532\u57fa\u6c2f\u7845\u70f7", "en_name": ["Chlorodimethylphenylsilane", "Benzene, (chlorodimethylsilyl)-", "Silane, chlorodimethylphenyl-", "(Chlorodimethylsilyl)benzene", "Dimethylphenylchlorosilane", "Chlorodimethylphenylsilane", "Phenyldimethylchlorosilane", "Dimethylphenylsilyl chloride", "Phenyldimethylsilyl chloride", "NSC 95425", "Phenylchlorodimethylsilane", "LS 2000"], "SMILES": "[Si](C)(C)(Cl)C1=CC=CC=C1", "physical_data": {"Molecular Weight": "170.71", "Molecular Formula": "C8H11ClSi", "Boiling Point": "192-193 \u00b0C", "Density": "1.032 g/cm\u00b3"}}