{"cas_no": "768-56-9", "cn_name": "4-\u82ef\u57fa-1-\u4e01\u70ef", "en_name": ["4-Phenyl-1-butene", "Benzene, 3-buten-1-yl-", "1-Butene, 4-phenyl-", "Benzene, 3-butenyl-", "3-Buten-1-ylbenzene", "4-Phenyl-1-butene", "1-Phenyl-3-butene", "3-Butenylbenzene", "NSC 65603", "Homoallylbenzene"], "SMILES": "C(CC=C)C1=CC=CC=C1", "physical_data": {"Molecular Weight": "132.20", "Molecular Formula": "C10H12", "Boiling Point": "177 \u00b0C", "Melting Point": "-70 \u00b0C", "Density": "0.8915 g/cm\u00b3 @ Temp: 20 \u00b0C"}}