{"cas_no": "768-70-7", "cn_name": "3-\u4e59\u7094\u57fa\u82ef\u7532\u919a", "en_name": ["3-Methoxyphenylacetylene", "Benzene, 1-ethynyl-3-methoxy-", "Anisole, m-ethynyl-", "1-Ethynyl-3-methoxybenzene", "m-Methoxyphenylacetylene", "m-Ethynylanisole", "3-Methoxyphenylacetylene", "3-Ethynylanisole", "m-Methoxyphenylethyne", "3-Methoxyphenylethyne", "m-Anisylacetylene", "1-Methoxy-3-ethynylbenzene"], "SMILES": "C(#C)C1=CC(OC)=CC=C1", "physical_data": {"Molecular Weight": "132.16", "Molecular Formula": "C9H8O", "Boiling Point": "88-89 \u00b0C @ Press: 16 Torr", "Density": "1.0224 g/cm\u00b3 @ Temp: 20 \u00b0C"}}