{"cas_no": "768-60-5", "cn_name": "4-\u4e59\u7094\u57fa\u82ef\u7532\u919a", "en_name": ["1-Ethynyl-4-methoxybenzene", "Benzene, 1-ethynyl-4-methoxy-", "Anisole, p-ethynyl-", "1-Ethynyl-4-methoxybenzene", "(p-Methoxyphenyl)acetylene", "Anisylacetylene", "p-Anisylacetylene", "p-Ethynylanisole", "(4-Methoxyphenyl)acetylene", "4-Ethynylanisole", "p-Methoxyphenylethyne", "p-Anisylethyne", "4-Methoxyphenylethyne", "1-Methoxy-4-ethynylbenzene", "4-Ethynyl-1-methoxybenzene", "NSC 71091", "4-Methoxy-1-ethynylbenzene", "p-Methoxyethynylbenzene", "p-Methoxylphenylacetylene", "2-(4-Methoxyphenyl)acetylene", "4-Ethylnylanisole", "1-Ethynyl-4-methoxybenzne"], "SMILES": "C(#C)C1=CC=C(OC)C=C1", "physical_data": {"Molecular Weight": "132.16", "Molecular Formula": "C9H8O", "Boiling Point": "85-90 \u00b0C @ Press: 11 Torr", "Melting Point": "26-27 \u00b0C", "Density": "1.008 g/cm\u00b3 @ Temp: 17 \u00b0C"}}