{"cas_no": "768-03-6", "cn_name": "1-\u82ef\u57fa-2-\u4e19\u70ef\u57fa-1-\u916e", "en_name": ["1-Phenyl-2-propen-1-one", "2-Propen-1-one, 1-phenyl-", "Acrylophenone", "1-Phenyl-2-propen-1-one", "2-Methyleneacetophenone", "Benzoylethylene", "Vinyl phenyl ketone", "Phenyl vinyl ketone", "3-Oxo-3-phenylpropene", "1-Phenylprop-2-enone", "NSC 174109", "1-Phenylpropenone"], "SMILES": "C(C=C)(=O)C1=CC=CC=C1", "physical_data": {"Molecular Weight": "132.16", "Molecular Formula": "C9H8O", "Boiling Point": "115 \u00b0C @ Press: 18 Torr", "Melting Point": "183-185 \u00b0C"}}