{"cas_no": "768-93-4", "cn_name": "1-\u7898\u4ee3\u91d1\u521a\u70f7", "en_name": ["1-Iodoadamantane", "Tricyclo[3.3.1.13,7]decane, 1-iodo-", "Adamantane, 1-iodo-", "1-Iodotricyclo[3.3.1.13,7]decane", "Adamantyl iodide", "1-Adamantyl iodide", "1-Iodoadamantane", "NSC 169440"], "SMILES": "IC12CC3CC(C1)CC(C2)C3", "physical_data": {"Molecular Weight": "262.13", "Molecular Formula": "C10H15I", "Melting Point": "74 \u00b0C"}}