{"cas_no": "768-91-2", "cn_name": "1-\u7532\u57fa\u91d1\u521a\u70f7", "en_name": ["1-Methyladamantane", "Tricyclo[3.3.1.13,7]decane, 1-methyl-", "Adamantane, 1-methyl-", "1-Methyltricyclo[3.3.1.13,7]decane", "1-Methyladamantane"], "SMILES": "CC12CC3CC(C1)CC(C2)C3", "physical_data": {"Molecular Weight": "150.26", "Molecular Formula": "C11H18", "Melting Point": "95.0-97.8 \u00b0C"}}