{"cas_no": "768-66-1", "cn_name": "2,2,6,6-\u56db\u7532\u57fa\u54cc\u5576", "en_name": ["2,2,6,6-Tetramethylpiperidine", "Piperidine, 2,2,6,6-tetramethyl-", "2,2,6,6-Tetramethylpiperidine", "Norpempidine", "TEMP", "NSC 102838", "TMPH"], "SMILES": "CC1(C)NC(C)(C)CCC1", "physical_data": {"Molecular Weight": "141.25", "Molecular Formula": "C9H19N", "Boiling Point": "156 \u00b0C", "Melting Point": "28 \u00b0C"}}