{"cas_no": "768-94-5", "cn_name": "\u91d1\u521a\u70f7\u80fa", "en_name": ["Amantadine", "Tricyclo[3.3.1.13,7]decan-1-amine", "1-Adamantanamine", "Amantadine", "1-Aminoadamantane", "1-Adamantamine", "Adamantylamine", "1-Adamantylamine", "1-Amantadine", "Adamantamine", "Adamantanamine", "NSC 341865", "Tricyclo[3.3.1.13,7]decane-1-amine", "(Adamantan-1-yl)amine", "MeSH ID: D000547"], "SMILES": "NC12CC3CC(C1)CC(C2)C3", "physical_data": {"Molecular Weight": "151.25", "Molecular Formula": "C10H17N", "Melting Point": "180 \u00b0C"}}