{"cas_no": "768-42-3", "cn_name": "2-\u6c28\u57fa-6-\u4e59\u6c27\u57fa\u5421\u5576", "en_name": ["6-Ethoxy-2-pyridinamine", "2-Pyridinamine, 6-ethoxy-", "Pyridine, 2-amino-6-ethoxy-", "6-Ethoxy-2-pyridinamine", "6-Ethoxypyridin-2-amine", "2-Amino-6-ethoxypyridine"], "SMILES": "O(CC)C=1N=C(N)C=CC1", "physical_data": {"Molecular Weight": "138.17", "Molecular Formula": "C7H10N2O", "Boiling Point": "238 \u00b0C"}}