{"cas_no": "768-52-5", "cn_name": "N-\u5f02\u4e19\u57fa\u82ef\u80fa", "en_name": ["N-Isopropylaniline", "Benzenamine, N-(1-methylethyl)-", "Aniline, N-isopropyl-", "N-(1-Methylethyl)benzenamine", "N-Isopropylaniline", "N-Phenylisopropylamine", "N-Isopropylbenzenamine", "Isopropylphenylamine", "N-Phenyl-N-(1-methylethyl)amine", "N-(1-Methylethyl)phenylamine"], "SMILES": "N(C(C)C)C1=CC=CC=C1", "physical_data": {"Molecular Weight": "135.21", "Molecular Formula": "C9H13N", "Boiling Point": "203 \u00b0C @ Press: 760 Torr", "Melting Point": "-10 \u00b0C", "Density": "0.9526 g/cm\u00b3"}}