{"cas_no": "768-49-0", "cn_name": "2-\u7532\u57fa-1-\u82ef\u57fa\u4e19\u70ef", "en_name": ["(2-Methyl-1-propen-1-yl)benzene", "Benzene, (2-methyl-1-propen-1-yl)-", "Benzene, (2-methylpropenyl)-", "Benzene, (2-methyl-1-propenyl)-", "Benzene, isobutenyl-", "(2-Methyl-1-propen-1-yl)benzene", "1-Propene, 2-methyl-1-phenyl-", "1-Phenyl-2-methyl-1-propene", "\u03b2,\u03b2-Dimethylstyrene", "1,1-Dimethyl-2-phenylethylene", "2-Methyl-1-phenyl-1-propene", "(2-Methylpropenyl)benzene", "1-Phenyl-2-methylpropene", "\u03b2-Methylisoallylbenzene", "2-Methyl-1-phenylpropene", "2-Benzylidenepropane", "Isobutenylbenzene", "2-Methyl-3-phenyl-2-propene", "\u03b2-Dimethylstyrene", "NSC 163349", "(2-Methyl-1-propenyl)benzene"], "SMILES": "C(=C(C)C)C1=CC=CC=C1", "physical_data": {"Molecular Weight": "132.20", "Molecular Formula": "C10H12", "Boiling Point": "63.5 \u00b0C @ Press: 10 Torr", "Melting Point": "-52--51 \u00b0C", "Density": "0.9006 g/cm\u00b3 @ Temp: 20 \u00b0C"}}