{"cas_no": "768-32-1", "cn_name": "\u4e09\u7532\u57fa\u82ef\u7845\u70f7", "en_name": ["(Trimethylsilyl)benzene", "Benzene, (trimethylsilyl)-", "Silane, trimethylphenyl-", "(Trimethylsilyl)benzene", "Phenyltrimethylsilane", "Trimethylphenylsilane", "Phenyltrimethylsilicon", "NSC 96828"], "SMILES": "[Si](C)(C)(C)C1=CC=CC=C1", "physical_data": {"Molecular Weight": "150.29", "Molecular Formula": "C9H14Si", "Boiling Point": "169.5 \u00b0C", "Melting Point": "166-169 \u00b0C", "Density": "0.872 g/cm\u00b3"}}