{"cas_no": "768-95-6", "cn_name": "1-\u91d1\u521a\u70f7\u9187", "en_name": ["1-Adamantanol", "Tricyclo[3.3.1.13,7]decan-1-ol", "1-Adamantanol", "1-Hydroxyadamantane", "1-Adamantyl alcohol", "NSC 108837", "NSC 91633"], "SMILES": "OC12CC3CC(C1)CC(C2)C3", "physical_data": {"Molecular Weight": "152.23", "Molecular Formula": "C10H16O", "Melting Point": "282 \u00b0C"}}