{"cas_no": "768-11-6", "cn_name": "5-\u6eb4\u82ef\u5e76\u567b\u5511", "en_name": ["5-Bromobenzothiazole", "Benzothiazole, 5-bromo-", "5-Bromobenzothiazole", "5-Bromobenzo[d]thiazole", "5-Bromo-1,3-benzothiazole"], "SMILES": "BrC=1C=C2C(=CC1)SC=N2", "physical_data": {"Molecular Weight": "214.08", "Molecular Formula": "C7H4BrNS", "Melting Point": "106 \u00b0C"}}