{"cas_no": "768-59-2", "cn_name": "4-\u4e59\u57fa\u82c4\u9187", "en_name": ["4-Ethylbenzyl alcohol", "Benzenemethanol, 4-ethyl-", "Benzyl alcohol, p-ethyl-", "4-Ethylbenzenemethanol", "p-Ethylbenzyl alcohol", "4-Ethylbenzyl alcohol", "(4-Ethylphenyl)methanol"], "SMILES": "C(C)C1=CC=C(CO)C=C1", "physical_data": {"Molecular Weight": "136.19", "Molecular Formula": "C9H12O", "Boiling Point": "115-117 \u00b0C @ Press: 9 Torr", "Melting Point": "85-86.5 \u00b0C"}}