{"cas_no": "7680-73-1", "cn_name": "1-\u7532\u57fa\u6c2f\u5316\u5421\u5576", "en_name": ["Pyridinium, 1-methyl-, chloride (1:1)", "Pyridinium, 1-methyl-, chloride (1:1)", "Pyridinium, 1-methyl-, chloride", "1-Methylpyridinium chloride", "N-Methylpyridinium chloride", "Methylpyridinium chloride"], "SMILES": "C[N+]=1C=CC=CC1.[Cl-]", "physical_data": {"Molecular Weight": "", "Molecular Formula": "C6H8N.Cl", "Melting Point": "136-138 \u00b0C"}}