{"cas_no": "76808-15-6", "cn_name": "", "en_name": ["Ebelactone B", "2-Oxetanone, 3-ethyl-4-[(1S,3E,5R,7S,8R,9R)-8-hydroxy-1,3,5,7,9-pentamethyl-6-oxo-3-undecen-1-yl]-, (3S,4S)-", "2-Oxetanone, 3-ethyl-4-(8-hydroxy-1,3,5,7,9-pentamethyl-6-oxo-3-undecenyl)-, [3S-[3\u03b1,4\u03b2(1R*,3E,5S*,7R*,8S*,9S*)]]-", "2-Oxetanone, 3-ethyl-4-[(1S,3E,5R,7S,8R,9R)-8-hydroxy-1,3,5,7,9-pentamethyl-6-oxo-3-undecenyl]-, (3S,4S)-", "(3S,4S)-3-Ethyl-4-[(1S,3E,5R,7S,8R,9R)-8-hydroxy-1,3,5,7,9-pentamethyl-6-oxo-3-undecen-1-yl]-2-oxetanone", "Ebelactone B", "(-)-Ebelactone B", "NSC 335651"], "SMILES": "C(CC(=CC(C(C(C(C(CC)C)O)C)=O)C)C)(C)C1C(CC)C(=O)O1", "physical_data": {"Molecular Weight": "352.51", "Molecular Formula": "C21H36O4", "Melting Point": "71-72 \u00b0C"}}