{"cas_no": "76801-85-9", "cn_name": "\u963f\u5947\u9709\u7d20 A", "en_name": ["9-Deoxo-9a-aza-9a-homoerythromycin A", "1-Oxa-6-azacyclopentadecan-15-one, 13-[(2,6-dideoxy-3-C-methyl-3-O-methyl-\u03b1-L-ribo-hexopyranosyl)oxy]-2-ethyl-3,4,10-trihydroxy-3,5,8,10,12,14-hexamethyl-11-[[3,4,6-trideoxy-3-(dimethylamino)-\u03b2-D-xylo-hexopyranosyl]oxy]-, (2R,3S,4R,5R,8R,10R,11R,12S,13S,14R)-", "1-Oxa-6-azacyclopentadecan-15-one, 13-[(2,6-dideoxy-3-C-methyl-3-O-methyl-\u03b1-L-ribo-hexopyranosyl)oxy]-2-ethyl-3,4,10-trihydroxy-3,5,8,10,12,14-hexamethyl-11-[[3,4,6-trideoxy-3-(dimethylamino)-\u03b2-D-xylo-hexopyranosyl]oxy]-, [2R-(2R*,3S*,4R*,5R*,8R*,10R*,11R*,12S*,13S*,14R*)]-", "(2R,3S,4R,5R,8R,10R,11R,12S,13S,14R)-13-[(2,6-Dideoxy-3-C-methyl-3-O-methyl-\u03b1-L-ribo-hexopyranosyl)oxy]-2-ethyl-3,4,10-trihydroxy-3,5,8,10,12,14-hexamethyl-11-[[3,4,6-trideoxy-3-(dimethylamino)-\u03b2-D-xylo-hexopyranosyl]oxy]-1-oxa-6-azacyclopentadecan-15-one", "Azathramycin", "9-Deoxo-9a-aza-9a-homoerythromycin A", "Azaerythromycin A", "Azahomoerythromycin"], "SMILES": "O(C1C(C)C(OC2C(O)C(N(C)C)CC(C)O2)C(C)(O)CC(C)CNC(C)C(O)C(C)(O)C(CC)OC(=O)C1C)C3CC(OC)(C)C(O)C(C)O3", "physical_data": {"Molecular Weight": "734.96", "Molecular Formula": "C37H70N2O12", "Melting Point": "115 \u00b0C"}}