{"cas_no": "76801-93-9", "cn_name": "\u7898\u6d77\u9187\u7898\u5316\u7269", "en_name": ["5-Amino-N,N\u2032-bis(2,3-dihydroxypropyl)-2,4,6-triiodoisophthalamide", "1,3-Benzenedicarboxamide, 5-amino-N1,N3-bis(2,3-dihydroxypropyl)-2,4,6-triiodo-", "1,3-Benzenedicarboxamide, 5-amino-N,N\u2032-bis(2,3-dihydroxypropyl)-2,4,6-triiodo-", "5-Amino-N1,N3-bis(2,3-dihydroxypropyl)-2,4,6-triiodo-1,3-benzenedicarboxamide", "5-Amino-N,N\u2032-bis(2,3-dihydroxypropyl)-2,4,6-triiodoisophthalamide", "3,5-Bis(2,3-dihydroxypropylaminocarbonyl)-2,4,6-triiodoaniline", "5-Amino-2,4,6-triiodo-N,N\u2032-bis(2,3-dihydroxypropyl)isophthalamide"], "SMILES": "C(NCC(CO)O)(=O)C1=C(I)C(C(NCC(CO)O)=O)=C(I)C(N)=C1I", "physical_data": {"Molecular Weight": "705.02", "Molecular Formula": "C14H18I3N3O6", "Melting Point": "195 \u00b0C (decomp)"}}