{"cas_no": "7681-49-4", "cn_name": "\u6c1f\u5316\u94a0", "en_name": ["Sodium fluoride", "Sodium fluoride (NaF)", "Sodium fluoride", "FDA 0101", "Floridine", "Florocid", "T-Fluoride", "Flura Drops", "Flursol", "Karidium", "Pergantene", "Sodium monofluoride", "Fungol B", "Antibulit", "Fluorol", "Zymafluor", "Ossin", "Fluoraday", "Thera Flur", "Act", "Fluorigard", "Duraphat", "Fludent", "Osteofluor", "Flurexal", "Prodent", "Sodium monofluoride (NaF)", "Prevident", "Karigel N", "Fluorzoin", "Neosten", "Miranol", "Ora-Bliss", "Act (mouthwash)", "Prevident 5000 Plus", "Winterfresh Gel", "Neutra-Care", "Ossalin", "Chemifluor", "Osteoflur", "Dentalfluoro", "Luride SF", "Osteo F", "Minute-Gel", "Pediaflor", "Lemoflur", "Florinse", "Slow-Fluoride", "Fuoros", "NSC 77385", "Apoflux", "Fluossen", "Duofluorid F", "Flor-Opal", "Wako 194-01971", "Fluocal", "Duofluorid", "Flutop Gel", "RKX 32", "DuraShield", "MeSH ID: D012969"], "SMILES": "F[Na]", "physical_data": {"Molecular Weight": "", "Molecular Formula": "FNa", "Boiling Point": "1704 \u00b0C", "Melting Point": "993 \u00b0C", "Density": "2.78 g/cm\u00b3"}}