{"cas_no": "7681-65-4", "cn_name": "\u7898\u5316\u4e9a\u94dc", "en_name": ["Cuprous iodide", "Copper iodide (CuI)", "Cuprous iodide", "Copper monoiodide", "Copper(I) iodide", "Cuprous iodide (CuI)", "Copper(1+) iodide", "TH-V", "Copper iodide (Cu0.5I0.5)"], "SMILES": "[Cu]I", "physical_data": {"Molecular Weight": "", "Molecular Formula": "CuI", "Boiling Point": "~1290 \u00b0C (approx)", "Melting Point": "606 \u00b0C", "Density": "5.67 g/cm\u00b3"}}