{"cas_no": "76811-98-8", "cn_name": "4-((4-(4-\u7f9f\u57fa\u4e8c\u82ef\u7532\u57fa)-1-\u54cc\u5576\u57fa)-1-\u6c27\u4ee3\u4e01\u57fa)-A,A-\u4e8c\u7532\u57fa\u82ef\u4e59\u9178", "en_name": ["2-[4-[4-[4-(Hydroxydiphenylmethyl)-1-piperidinyl]-1-oxobutyl]phenyl]-2,2-dimethylacetic acid", "Benzeneacetic acid, 4-[4-[4-(hydroxydiphenylmethyl)-1-piperidinyl]-1-oxobutyl]-\u03b1,\u03b1-dimethyl-", "4-[4-[4-(Hydroxydiphenylmethyl)-1-piperidinyl]-1-oxobutyl]-\u03b1,\u03b1-dimethylbenzeneacetic acid", "4-[4-[4-(Hydroxydiphenylmethyl)-1-piperidinyl]-1-oxobutyl]-\u03b1,\u03b1-dimethylphenylacetic acid", "2-[4-[4-[4-(Hydroxydiphenylmethyl)-1-piperidinyl]-1-oxobutyl]phenyl]-2,2-dimethylacetic acid", "4-[1-Oxo-4-[4-(hydroxydiphenylmethyl)-1-piperidinyl]butyl]-\u03b1,\u03b1-dimethylbenzeneacetic acid", "Fexofenadinone", "2-(4-(4-(4-(Hydroxydiphenylmethyl)piperidin-1-yl)butanoyl)phenyl)-2-methylpropanoic acid"], "SMILES": "C(O)(C1CCN(CCCC(=O)C2=CC=C(C(C(O)=O)(C)C)C=C2)CC1)(C3=CC=CC=C3)C4=CC=CC=C4", "physical_data": {"Molecular Weight": "499.64", "Molecular Formula": "C32H37NO4", "Melting Point": "164-166 \u00b0C"}}