{"cas_no": "7681-14-3", "cn_name": "\u4e01\u4e59\u9178\u6cfc\u5c3c\u677e\u9f99", "en_name": ["Prednisolone tebutate", "Pregna-1,4-diene-3,20-dione, 21-(3,3-dimethyl-1-oxobutoxy)-11,17-dihydroxy-, (11\u03b2)-", "Pregna-1,4-diene-3,20-dione, 11\u03b2,17,21-trihydroxy-, 21-(3,3-dimethylbutyrate)", "Butyric acid, 3,3-dimethyl-, 21-ester with 11\u03b2,17,21-trihydroxypregna-1,4-diene-3,20-dione", "(11\u03b2)-21-(3,3-Dimethyl-1-oxobutoxy)-11,17-dihydroxypregna-1,4-diene-3,20-dione", "Prednisolone 21-tert-butylacetate", "11\u03b2,17,21-Trihydroxypregna-1,4-diene-3,20-dione 21-(3,3-dimethylbutyrate)", "Codelcortone TBA", "Prednisolone tert-butylacetate", "Hydeltra TBA", "Prednisolone tebutate", "Prednisolone TBA", "Predalone TBA"], "SMILES": "CC12C(C3C(C(O)C1)C4(C)C(CC3)=CC(=O)C=C4)CCC2(C(COC(CC(C)(C)C)=O)=O)O", "physical_data": {"Molecular Weight": "458.59", "Molecular Formula": "C27H38O6", "Melting Point": "266-273 \u00b0C"}}