{"cas_no": "7681-57-4", "cn_name": "\u7126\u4e9a\u786b\u9178\u94a0", "en_name": ["Sodium pyrosulfite", "Disulfurous acid, sodium salt (1:2)", "Pyrosulfurous acid, disodium salt", "Disulfurous acid, disodium salt", "Sodium pyrosulfite (Na2S2O5)", "Sodium pyrosulfite", "Sodium metabisulfite", "Sodium metabisulfite (Na2S2O5)", "Disodium pyrosulfite", "Fertisilo", "Disodium disulfite", "Sodium disulfite (Na2S2O5)", "Disodium metabisulfite", "Disodium pyrosulfite (Na2S2O5)", "Campden Tablets", "Colorstrip Catalyst 100", "E 223", "Sobis", "Sobisu", "Sodium sulfur oxide (Na2S2O5)", "NSC 158277", "NSC 227243"], "SMILES": "S(S(=O)O)(=O)(=O)O.[Na]", "physical_data": {"Molecular Weight": "", "Molecular Formula": "H2O5S2.2Na", "Melting Point": "150 \u00b0C (decomp)", "Density": "1.4 g/cm\u00b3"}}