{"cas_no": "7681-52-9", "cn_name": "\u6b21\u6c2f\u9178\u94a0", "en_name": ["Sodium hypochlorite", "Hypochlorous acid, sodium salt (1:1)", "Hypochlorous acid, sodium salt", "Hyclorite", "B-K Liquid", "Sodium hypochlorite", "Clorox", "Antiformin", "Sodium hypochlorite (NaOCl)", "Carrel-Dakin solution", "Modified Dakin's solution", "Milton", "Chloros", "Javex", "Deosan", "Neo-cleaner", "Purin B", "Klorocin", "Dakin's solution", "Sodium hypochloride", "Parozone", "Sodium hypochlorite (NaClO)", "Neoseptal CL", "XY 12", "Sunnysol 150", "Javel water", "Javelle water", "Solutions, Dakin's", "Hypure", "Hypure N", "Dispatch", "Sodium chloride oxide (NaClO)", "Youxiaolin", "AD Gel", "Cloralex", "Super White L", "Dispatch (salt)", "AgClor 310", "ActiPlus N 2818", "Sodium oxychloride", "Linely", "Hishikurin S", "Fox-Chlor", "Purelox", "Aron Clean", "Parazone", "Belizna", "Comfor", "Belkina", "Tsurukuron", "Sanrack P", "Jomax Mold &", "Mildew Stain Remover", "Baso agri+", "Milton Sterilising Fluid", "Javex 5", "Nades", "Aron Clean LB 10", "Raverrack D", "Purelex", "Hypex", "Histolith", "DanKlorix", "Tsurukuron N 40", "Tsurukuron TW", "Cloralex NL", "Purelox S", "Sodium chloride oxide", "Deccoklor", "Neolux Super", "Sodium hypochlorite (Na(ClO))", "Lavanox", "Kerrasol", "ActiMaris Forte", "Avol ACT", "B 14993", "MeSH ID: D012973"], "SMILES": "ClO.[Na]", "physical_data": {"Molecular Weight": "", "Molecular Formula": "ClHO.Na", "Melting Point": "18 \u00b0C"}}