{"cas_no": "7681-76-7", "cn_name": "\u6d1b\u785d\u54d2\u5511", "en_name": ["1-Methyl-2-carbamoyloxymethyl-5-nitroimidazole", "1H-Imidazole-2-methanol, 1-methyl-5-nitro-, 2-carbamate", "Imidazole-2-methanol, 1-methyl-5-nitro-, carbamate (ester)", "1H-Imidazole-2-methanol, 1-methyl-5-nitro-, carbamate (ester)", "1-Methyl-2-carbamoyloxymethyl-5-nitroimidazole", "(1-Methyl-5-nitroimidazol-2-yl)methyl carbamate", "Ronidazole", "Ridzole", "Ridzol P", "Ridzol", "Dugro", "MCMN", "Ronida BT", "(1-Methyl-5-nitro-1H-imidazol-2-yl)methyl carbamate"], "SMILES": "C(OC(N)=O)C=1N(C)C(N(=O)=O)=CN1", "physical_data": {"Molecular Weight": "200.15", "Molecular Formula": "C6H8N4O4", "Melting Point": "168 \u00b0C"}}