{"cas_no": "7681-11-0", "cn_name": "\u7898\u5316\u94be", "en_name": ["Potassium iodide", "Potassium iodide (KI)", "K1-N", "Potassium monoiodide", "Knollide", "Asmofug E", "Kaiod", "Pherajod", "Potassium iodide", "Ceoiodin", "Antistrumin", "Iodostin", "Jodid", "Thyrojod", "Thyro-Block", "NSC 77362", "Kalium iodidum", "Zeoiodine", "Iod-active", "Iodomarin", "iOsat", "SSKI", "ThyroSafe", "ThyroShield", "Iosat", "thyroshield", "IOsat", "S 5070", "MeSH ID: D011193"], "SMILES": "I[K]", "physical_data": {"Molecular Weight": "", "Molecular Formula": "IK", "Boiling Point": "1330 \u00b0C", "Melting Point": "680 \u00b0C", "Density": "3.13 g/cm\u00b3"}}