{"cas_no": "7681-93-8", "cn_name": "\u7eb3\u4ed6\u9709\u7d20", "en_name": ["Natamycin", "6,11,28-Trioxatricyclo[22.3.1.05,7]octacosa-8,14,16,18,20-pentaene-25-carboxylic acid, 22-[(3-amino-3,6-dideoxy-\u03b2-D-mannopyranosyl)oxy]-1,3,26-trihydroxy-12-methyl-10-oxo-, (1R,3S,5R,7R,8E,12R,14E,16E,18E,20E,22R,24S,25R,26S)-", "Pimaricin", "6,11,28-Trioxatricyclo[22.3.1.05,7]octacosa-8,14,16,18,20-pentaene-25-carboxylic acid, 22-[(3-amino-3,6-dideoxy-\u03b2-D-mannopyranosyl)oxy]-1,3,26-trihydroxy-12-methyl-10-oxo-, [1R-(1R*,3S*,5R*,7R*,8E,12R*,14E,16E,18E,20E,22R*,24S*,25R*,26S*)]-", "Tennecetin", "6,11,28-Trioxatricyclo[22.3.1.05,7]octacosane, pimaricin deriv.", "(1R,3S,5R,7R,8E,12R,14E,16E,18E,20E,22R,24S,25R,26S)-22-[(3-Amino-3,6-dideoxy-\u03b2-D-mannopyranosyl)oxy]-1,3,26-trihydroxy-12-methyl-10-oxo-6,11,28-trioxatricyclo[22.3.1.05,7]octacosa-8,14,16,18,20-pentaene-25-carboxylic acid", "Myprozine", "Natamycin", "Pimafucin", "[1R-(1R*,3S*,5R*,7R*,8E,12R*,14E,16E,18E,20E,22R*,24S*,25R*,26S*)]-22-[(3-Amino-3,6-dideoxy-\u03b2-D-mannopyranosyl)oxy]-1,3,26-trihydroxy-12-methyl-10-oxo-6,11,28-trioxatricyclo[22.3.1.05,7]octacosa-8,14,16,18,20-pentaene-25-carboxylic acid", "\u03b4-Natamycin", "Myuprozine", "CL 12625", "Antibiotic A 5283", "Synogil", "Natacyn", "Mycophyt", "E 235", "Natamax lactose", "Natamax SF", "Natamax", "Delvocid", "Natajen", "Natamatrix", "Fungin", "MeSH ID: D010866"], "SMILES": "C(O)(=O)C1C2OC(O)(CC1O)CC(O)CC3C(O3)C=CC(=O)OC(C)CC=CC=CC=CC=CC(OC4C(O)C(N)C(O)C(C)O4)C2", "physical_data": {"Molecular Weight": "665.73", "Molecular Formula": "C33H47NO13", "Melting Point": "290 \u00b0C (decomp)"}}