{"cas_no": "7681-84-7", "cn_name": "\u56db\u6c22-2-\u544b\u5583\u7532\u919b", "en_name": ["Tetrahydro-2-furancarboxaldehyde", "2-Furancarboxaldehyde, tetrahydro-", "2-Furaldehyde, tetrahydro-", "Tetrahydro-2-furancarboxaldehyde", "Tetrahydrofurfural", "2-Formyltetrahydrofuran", "NSC 97502", "Tetrahydro-2-furaldehyde", "Tetrahydrofuran-2-carbaldehyde"], "SMILES": "C(=O)C1CCCO1", "physical_data": {"Molecular Weight": "100.12", "Molecular Formula": "C5H8O2", "Boiling Point": "142 \u00b0C", "Density": "1.0749 g/cm\u00b3 @ Temp: 20 \u00b0C"}}