{"cas_no": "7681-82-5", "cn_name": "\u7898\u5316\u94a0", "en_name": ["Sodium iodide", "Sodium iodide (NaI)", "Sodium iodide", "Ioduril", "Sodium monoiodide", "Soiodin", "Anayodin", "NSC 77388", "MeSH ID: D012974"], "SMILES": "I[Na]", "physical_data": {"Molecular Weight": "", "Molecular Formula": "INa", "Boiling Point": "1304 \u00b0C", "Melting Point": "651 \u00b0C", "Density": "3.67 g/cm\u00b3"}}