{"cas_no": "76823-03-5", "cn_name": "5-\u7fa7\u57fa\u8367\u5149\u7d20", "en_name": ["5-FAM", "Spiro[isobenzofuran-1(3H),9\u2032-[9H]xanthene]-5-carboxylic acid, 3\u2032,6\u2032-dihydroxy-3-oxo-", "3\u2032,6\u2032-Dihydroxy-3-oxospiro[isobenzofuran-1(3H),9\u2032-[9H]xanthene]-5-carboxylic acid", "5-Carboxyfluorescein", "FAM", "FAM (dye)", "FAM 494/520", "5-FAM", "73: PN: WO2016072662 SEQID: 73 claimed sequence", "Flamma 456 Carboxylic acid", "Hydroxyfluorescein", "3\u2032,6\u2032-Dihydroxy-3-oxospiro[2-benzofuran-1,9\u2032-xanthene]-5-carboxylic acid", "3\u2032,6\u2032-Dihydroxy-3-oxo-3H-spiro[isobenzofuran-1,9\u2032-xanthene]-5-carboxylic acid"], "SMILES": "O=C1OC2(C=3C1=CC(C(O)=O)=CC3)C=4C(OC=5C2=CC=C(O)C5)=CC(O)=CC4", "physical_data": {"Molecular Weight": "376.32", "Molecular Formula": "C21H12O7", "Melting Point": "&gt;300 \u00b0C"}}