{"cas_no": "76822-34-9", "cn_name": "\u6a1f\u67f3\u78b1\u6c22\u6eb4\u9178\u76d0", "en_name": ["Anisodine hydrobromide", "Benzeneacetic acid, \u03b1-hydroxy-\u03b1-(hydroxymethyl)-, (1\u03b1,2\u03b2,4\u03b2,5\u03b1,7\u03b2)-9-methyl-3-oxa-9-azatricyclo[3.3.1.02,4]non-7-yl ester, hydrobromide (1:1), (\u03b1S)-", "Benzeneacetic acid, \u03b1-hydroxy-\u03b1-(hydroxymethyl)-, 9-methyl-3-oxa-9-azatricyclo[3.3.1.02,4]non-7-yl ester, hydrobromide, [7(S)-(1\u03b1,2\u03b2,4\u03b2,5\u03b1,7\u03b2)]-", "Benzeneacetic acid, \u03b1-hydroxy-\u03b1-(hydroxymethyl)-, (1\u03b1,2\u03b2,4\u03b2,5\u03b1,7\u03b2)-9-methyl-3-oxa-9-azatricyclo[3.3.1.02,4]non-7-yl ester, hydrobromide, (\u03b1S)-", "3-Oxa-9-azatricyclo[3.3.1.02,4]nonane, benzeneacetic acid deriv.", "Anisodine hydrobromide"], "SMILES": "CN1C2C3C(O3)C1CC(OC(C(CO)(O)C4=CC=CC=C4)=O)C2.Br", "physical_data": {"Molecular Weight": "", "Molecular Formula": "C17H21NO5.BrH", "Melting Point": "&gt;192 \u00b0C (decomp)"}}