{"cas_no": "76820-34-3", "cn_name": "5-\u785d\u57fa-N,N'-\u53cc(2,3-\u4e8c\u7f9f\u57fa\u4e19\u57fa)-1,3-\u82ef\u4e8c\u7532\u9170\u80fa", "en_name": ["N1,N3-Bis(2,3-dihydroxypropyl)-5-nitro-1,3-benzenedicarboxamide", "1,3-Benzenedicarboxamide, N1,N3-bis(2,3-dihydroxypropyl)-5-nitro-", "1,3-Benzenedicarboxamide, N,N\u2032-bis(2,3-dihydroxypropyl)-5-nitro-", "N1,N3-Bis(2,3-dihydroxypropyl)-5-nitro-1,3-benzenedicarboxamide", "1-N,3-N-Bis(2,3-dihydroxypropyl)-5-nitrobenzene-1,3-dicarboxamide"], "SMILES": "C(NCC(CO)O)(=O)C1=CC(C(NCC(CO)O)=O)=CC(N(=O)=O)=C1", "physical_data": {"Molecular Weight": "357.32", "Molecular Formula": "C14H19N3O8", "Melting Point": "128-132 \u00b0C"}}