{"cas_no": "7682-18-0", "cn_name": "DL-2-\u6c28\u57fa\u6b63\u4e01\u9178\u7532\u916f\u76d0\u9178\u76d0", "en_name": ["Butanoic acid, 2-amino-, methyl ester, hydrochloride (1:1)", "Butanoic acid, 2-amino-, methyl ester, hydrochloride (1:1)", "Butyric acid, 2-amino-, methyl ester, hydrochloride, DL-", "Butanoic acid, 2-amino-, methyl ester, hydrochloride, (\u00b1)-", "Butanoic acid, 2-amino-, methyl ester, hydrochloride", "Methyl DL-2-aminobutyrate hydrochloride", "Methyl \u03b1-aminobutyrate hydrochloride", "2-Aminobutyric acid methyl ester hydrochloride", "DL-\u03b1-Aminobutyric acid methyl ester hydrochloride", "Methyl 2-aminobutanoate hydrochloride", "Methyl 2-aminobutyrate hydrochloride", "DL-Methyl 2-aminobutanoate hydrochloride"], "SMILES": "C(C(OC)=O)(CC)N.Cl", "physical_data": {"Molecular Weight": "", "Molecular Formula": "C5H11NO2.ClH", "Melting Point": "136-138 \u00b0C"}}