{"cas_no": "76824-17-4", "cn_name": "\u6cd5\u83ab\u66ff\u4e01EP\u6742\u8d28C", "en_name": ["Propanamide, 3-[[[2-[(aminoiminomethyl)amino]-4-thiazolyl]methyl]thio]-N-(aminosulfonyl)-, hydrochloride (1:1)", "Propanamide, 3-[[[2-[(aminoiminomethyl)amino]-4-thiazolyl]methyl]thio]-N-(aminosulfonyl)-, hydrochloride (1:1)", "Propanamide, 3-[[[2-[(aminoiminomethyl)amino]-4-thiazolyl]methyl]thio]-N-(aminosulfonyl)-, monohydrochloride"], "SMILES": "N(C(=N)N)C1=NC(CSCCC(NS(N)(=O)=O)=O)=CS1.Cl", "physical_data": {"Molecular Weight": "", "Molecular Formula": "C8H14N6O3S3.ClH", "Melting Point": "166-167 \u00b0C"}}