{"cas_no": "76824-35-6", "cn_name": "\u6cd5\u83ab\u66ff\u4e01", "en_name": ["Famotidine", "Propanimidamide, 3-[[[2-[(aminoiminomethyl)amino]-4-thiazolyl]methyl]thio]-N-(aminosulfonyl)-", "3-[[[2-[(Aminoiminomethyl)amino]-4-thiazolyl]methyl]thio]-N-(aminosulfonyl)propanimidamide", "YM 11170", "3-[(2-Diaminomethyleneaminothiazol-4-yl)methylthio]-N-sulfamoylpropionamidine", "Famotidine", "MK 208", "N-(Aminosulfonyl)-3-[[[2-[(diaminomethylene)amino]-4-thiazolyl]methyl]thio]propanimidamide", "Gaster", "Gastridin", "Ulfinol", "Motiax", "Ulcetrax", "Ganor", "Ulfamid", "Famodil", "Famoxal", "Nulcerin", "Amfamox", "Pepcidina", "Pepcidine", "Dispromil", "Lecedil", "Pepcid", "Pepdine", "Fanosin", "Fibonel", "Famosan", "Peptan", "Gastropen", "Muclox", "Pepcid PM", "Pepdul", "Ifada", "Famodine", "Pepcid AC", "Pepdul mite", "Ganor mite", "Nevofam", "Famogast", "Fadine", "Ulcatif", "Famopsin", "Sedanium R", "Apogastine", "H 2 Bloc", "Supertidine", "Tamin", "Famodar", "Famox", "Quamatel", "Digervin", "FamoABZ", "Quamtel", "Ulped", "Ulcedine", "Ulcidine", "Fuweidin", "Mosul", "Ulceran", "Apo-Famotidine", "Purifam", "Famo", "Logos", "Peptifam", "Fenox", "Famonerton", "Famos", "Gastro", "Durater", "Panalba", "Famodin", "Gastrodomina", "Restadin", "Pepfamin", "Dispronil", "Ulfagel", "Weimok", "Pepcidin", "Fudone", "Fagastine", "Famowal", "Famotin", "Famotal", "Gastrion", "Fanox", "Topcid", "Ulped AR", "Ulcofam", "Fadin", "Bestidine", "Pepzan", "Kemofam", "Brolin", "Famotep", "Pepdif", "Ulfam", "Dibrit 40", "Rogasti", "Pepcidin Rapitab", "Agufam", "Antodine", "Famogard", "Facid", "Farmotex", "Fadyn", "Cepal", "Famocid", "Famostagine-D", "Servipep", "Peptec", "Famolta", "Famoser", "Mabo", "3-[[2-(Diaminomethylideneamino)-1,3-thiazol-4-yl]methylsulfanyl]-N\u2032-sulfamoylpropanimidamide", "3-[([2-[(Diaminomethylidene)amino]-1,3-thiazol-4-yl]methyl)sulfanyl]-N-sulfamoylpropanimidamide", "MeSH ID: D015738"], "SMILES": "N(C(=N)N)C1=NC(CSCCC(NS(N)(=O)=O)=N)=CS1", "physical_data": {"Molecular Weight": "337.45", "Molecular Formula": "C8H15N7O2S3", "Melting Point": "163-164 \u00b0C"}}