{"cas_no": "76835-20-6", "cn_name": "5-\u6c2f-2-\u7532\u57fa\u82ef\u57fa\u54cc\u55ea", "en_name": ["1-(5-Chloro-2-methylphenyl)piperazine", "Piperazine, 1-(5-chloro-2-methylphenyl)-", "1-(5-Chloro-2-methylphenyl)piperazine", "4-(2-Methyl-5-chlorophenyl)piperazine", "1-(5-Chloro-o-tolyl)piperazine", "N-(5-Chloro-2-methylphenyl)piperazine"], "SMILES": "CC1=C(C=C(Cl)C=C1)N2CCNCC2", "physical_data": {"Molecular Weight": "210.70", "Molecular Formula": "C11H15ClN2", "Boiling Point": "123-124 \u00b0C @ Press: 1 Torr"}}