{"cas_no": "7683-59-2", "cn_name": "\u5f02\u4e19\u80be\u4e0a\u817a\u7d20", "en_name": ["Isoproterenol", "1,2-Benzenediol, 4-[1-hydroxy-2-[(1-methylethyl)amino]ethyl]-", "Benzyl alcohol, 3,4-dihydroxy-\u03b1-[(isopropylamino)methyl]-", "4-[1-Hydroxy-2-[(1-methylethyl)amino]ethyl]-1,2-benzenediol", "Isoproterenol", "Isoprenaline", "Isopropylarterenol", "Isopropylnoradrenaline", "Isopropylnorepinephrine", "N-Isopropylnorepinephrine", "Aludrine", "3,4-Dihydroxy-\u03b1-[(isopropylamino)methyl]benzyl alcohol", "\u03b1-(Isopropylaminomoethyl)protocatechuyl alcohol", "Isopropylaminomethyl(3,4-dihydroxyphenyl)carbinol", "N-Isopropyl-\u03b2-dihydroxyphenyl-\u03b2-hydroxyethylamine", "N-Isopropylnoradrenaline", "Aludrin", "Norisodrine", "Asiprenol", "Asmalar", "Lomupren", "Isopropydrin", "Assiprenol", "Respifral", "Bellasthman", "1-(3,4-Dihydroxyphenyl)-2-(isopropylamino)ethanol", "Isoprenalin", "ICI 46399", "(\u00b1)-Isoproterenol", "(\u00b1)-Isoprenaline", "dl-Isoprenaline", "Racemic isoprenaline", "dl-Isopropylnoradrenaline", "dl-N-Isopropylnoradrenaline", "DL-Isopropylnorepinephrine", "dl-Isadrine", "Racemic isoproterenol", "DL(\u00b1)-Isoproterenol", "DL-Isoproterenol", "dl-Isoproterenol", "Isorenin", "Isupren", "Epinephrine isopropyl homolog", "Vapo-N-Iso", "Neo-Epinine", "Neodrenal", "Isonorin", "A 21", "NSC 33791", "NSC 9975", "MeSH ID: D007545"], "SMILES": "C(CNC(C)C)(O)C1=CC(O)=C(O)C=C1", "physical_data": {"Molecular Weight": "211.26", "Molecular Formula": "C11H17NO3", "Melting Point": "170.5 \u00b0C", "Density": "1.32 g/cm\u00b3"}}