{"cas_no": "76855-69-1", "cn_name": "4-\u4e59\u9170\u6c27\u57fa\u6c2e\u6742\u73af\u4e01\u916e", "en_name": ["Azetidon", "2-Azetidinone, 4-(acetyloxy)-3-[(1R)-1-[[(1,1-dimethylethyl)dimethylsilyl]oxy]ethyl]-, (3R,4R)-", "2-Azetidinone, 4-(acetyloxy)-3-[1-[[(1,1-dimethylethyl)dimethylsilyl]oxy]ethyl]-, [3R-[3\u03b1(R*),4\u03b2]]-", "(3R,4R)-4-(Acetyloxy)-3-[(1R)-1-[[(1,1-dimethylethyl)dimethylsilyl]oxy]ethyl]-2-azetidinone", "(1\u2032R,3R,4R)-4-acetoxy-3-(1\u2032-tert-butyldimethylsilyloxyethyl)-2-azetidinone", "(3R,4R)-4-Acetoxy-3-[(R)-1-(tert-butyldimethylsilyloxy)ethyl]azetidinone", "Azetidon", "(3R,4R)-4-Acetoxy-3-[(R)-1-(tert-butyldimethylsiloxy)ethyl]azetidin-2-one", "(3R,4R)-4-Acetoxy-3-[(R)-1-(tert-butyldimethylsilyloxy)ethyl]-2-azetidinone", "(2R,3R)-3-((R)-1-(tert-Butyldimethylsiloxy)ethyl)-4-oxoazetidin-2-yl acetate"], "SMILES": "O(C(C)=O)C1C(C(O[Si](C(C)(C)C)(C)C)C)C(=O)N1", "physical_data": {"Molecular Weight": "287.43", "Molecular Formula": "C13H25NO4Si", "Melting Point": "107.5-108.3 \u00b0C"}}