{"cas_no": "7685-44-1", "cn_name": "DL-2-\u6c28\u57fa-4-\u620a\u70ef\u9178", "en_name": ["2-Amino-4-pentenoic acid", "4-Pentenoic acid, 2-amino-", "4-Pentenoic acid, 2-amino-, DL-", "4-Pentenoic acid, 2-amino-, (\u00b1)-", "2-Amino-4-pentenoic acid", "DL-Allylglycine", "DL-2-Amino-4-pentenoic acid", "DL-C-Allylglycine", "DL-\u03b1-Allylglycine", "Allylglycine", "2-Allylglycine", "Allyl-C-glycine", "NSC 20898", "\u03b1-Allylglycine"], "SMILES": "C(CC=C)(C(O)=O)N", "physical_data": {"Molecular Weight": "115.13", "Molecular Formula": "C5H9NO2", "Melting Point": "255-258 \u00b0C (decomp)"}}