{"cas_no": "7686-78-4", "cn_name": "2-\u4e59\u70ef\u57fa\u73af\u4e19\u70f7-1,1-\u4e8c\u7532\u9178\u4e8c\u4e59\u916f", "en_name": ["1,1-Diethyl 2-ethenyl-1,1-cyclopropanedicarboxylate", "1,1-Cyclopropanedicarboxylic acid, 2-ethenyl-, 1,1-diethyl ester", "1,1-Cyclopropanedicarboxylic acid, 2-vinyl-, diethyl ester", "1,1-Cyclopropanedicarboxylic acid, 2-ethenyl-, diethyl ester", "1,1-Cyclopropanedicarboxylic acid, vinyl-, diethyl ester", "1,1-Diethyl 2-ethenyl-1,1-cyclopropanedicarboxylate", "Diethyl 2-vinylcyclopropane-1,1-dicarboxylate", "1,1-Bis(ethoxycarbonyl)-2-vinylcyclopropane", "Diethyl 2-ethenylcyclopropane-1,1-dicarboxylate", "1,1-Diethoxycarbonyl-2-vinylcyclopropane"], "SMILES": "C(OCC)(=O)C1(C(OCC)=O)C(C=C)C1", "physical_data": {"Molecular Weight": "212.24", "Molecular Formula": "C11H16O4", "Boiling Point": "69-72 \u00b0C @ Press: 0.5 Torr", "Density": "1.0381 g/cm\u00b3 @ Temp: 425 \u00b0C"}}