{"cas_no": "7686-77-3", "cn_name": "3-\u73af\u620a\u70ef\u7532\u9178", "en_name": ["3-Cyclopentene-1-carboxylic acid", "3-Cyclopentene-1-carboxylic acid", "4-Carboxycyclopentene", "3-Cyclopentenecarboxylic acid", "Cyclopent-1-ene-4-carboxylic acid", "3-Cyclopentenylcarboxylic acid", "Cyclopent-3-ene-1-carboxylic acid"], "SMILES": "C(O)(=O)C1CC=CC1", "physical_data": {"Molecular Weight": "112.13", "Molecular Formula": "C6H8O2", "Boiling Point": "67 \u00b0C @ Press: 14 Torr"}}