{"cas_no": "7688-21-3", "cn_name": "\u987a-2-\u5df2\u70ef", "en_name": ["cis-2-Hexene", "2-Hexene, (2Z)-", "2-Hexene, (Z)-", "2-Hexene, cis-", "(2Z)-2-Hexene", "cis-2-Hexene", "(Z)-2-Hexene"], "SMILES": "C(C=CC)CC", "physical_data": {"Molecular Weight": "84.16", "Molecular Formula": "C6H12", "Boiling Point": "68.8 \u00b0C", "Melting Point": "-141.1 \u00b0C", "Density": "0.683 g/cm\u00b3 @ Temp: 25 \u00b0C"}}