{"cas_no": "7688-25-7", "cn_name": "1,4-\u53cc(\u4e8c\u82ef\u57fa\u81a6)\u4e01\u70f7", "en_name": ["1,4-Bis(diphenylphosphino)butane", "Phosphine, 1,1\u2032-(1,4-butanediyl)bis[1,1-diphenyl-", "Phosphine, tetramethylenebis[diphenyl-", "Phosphine, 1,4-butanediylbis[diphenyl-", "1,1\u2032-(1,4-Butanediyl)bis[1,1-diphenylphosphine]", "Tetramethylenebis(diphenylphosphine)", "1,4-Bis(diphenylphosphino)butane", "1,4-Butanediylbis[diphenylphosphine]", "1,4-Butylenebis(diphenylphosphine)", "DPPB (catalyst precursor)", "DPPB", "1,4-Bis(diphenylphosphanyl)butane", "[4-(Diphenylphosphanyl)butyl]diphenylphosphane"], "SMILES": "P(CCCCP(C1=CC=CC=C1)C2=CC=CC=C2)(C3=CC=CC=C3)C4=CC=CC=C4", "physical_data": {"Molecular Weight": "426.47", "Molecular Formula": "C28H28P2", "Melting Point": "135-136 \u00b0C"}}