{"cas_no": "76884-34-9", "cn_name": "3-\u7532\u9187\u5f02\u55b9\u5549", "en_name": ["3-Isoquinolinemethanol", "3-Isoquinolinemethanol", "3-(Hydroxymethyl)isoquinoline", "Isoquinolin-3-ylmethanol"], "SMILES": "C(O)C1=CC2=C(C=N1)C=CC=C2", "physical_data": {"Molecular Weight": "159.18", "Molecular Formula": "C10H9NO", "Melting Point": "81 \u00b0C"}}