{"cas_no": "7688-51-9", "cn_name": "N-\u70ef\u4e19\u57fa-N,N-\u53cc(\u4e09\u7532\u57fa\u7532\u7845\u70f7\u57fa)\u80fa", "en_name": ["1,1,1-Trimethyl-N-2-propen-1-yl-N-(trimethylsilyl)silanamine", "Silanamine, 1,1,1-trimethyl-N-2-propen-1-yl-N-(trimethylsilyl)-", "Silanamine, 1,1,1-trimethyl-N-2-propenyl-N-(trimethylsilyl)-", "1,1,1-Trimethyl-N-2-propen-1-yl-N-(trimethylsilyl)silanamine", "N,N-Bis(trimethylsilyl)allylamine", "N,N-Bis(trimethylsilyl)-2-propen-1-amine", "N-Allyl-N,N-bis(trimethylsilyl)amine", "3-Bis(trimethylsilyl)amino-1-propene", "N-Allyl-1,1,1-trimethyl-N-(trimethylsilyl)silanamine", "Bis(trimethylsilyl)allylamine", "(Prop-2-en-1-yl)bis(trimethylsilyl)amine"], "SMILES": "N([Si](C)(C)C)([Si](C)(C)C)CC=C", "physical_data": {"Molecular Weight": "201.46", "Molecular Formula": "C9H23NSi2", "Boiling Point": "179 \u00b0C @ Press: 741 Torr", "Density": "0.820 g/cm\u00b3 @ Temp: 25 \u00b0C"}}