{"cas_no": "7689-03-4", "cn_name": "\u559c\u6811\u78b1", "en_name": ["Camptothecin", "1H-Pyrano[3\u2032,4\u2032:6,7]indolizino[1,2-b]quinoline-3,14(4H,12H)-dione, 4-ethyl-4-hydroxy-, (4S)-", "Camptothecine", "1H-Pyrano[3\u2032,4\u2032:6,7]indolizino[1,2-b]quinoline-3,14(4H,12H)-dione, 4-ethyl-4-hydroxy-, (S)-", "(4S)-4-Ethyl-4-hydroxy-1H-pyrano[3\u2032,4\u2032:6,7]indolizino[1,2-b]quinoline-3,14(4H,12H)-dione", "Camptothecin", "20(S)-Camptothecine", "d-Camptothecin", "NSC 94600", "(S)-Camptothecin", "20(S)-Camptothecin", "(+)-Camptothecin", "(+)-Camptothecine", "MAG-CPT", "Campathecin", "(S)-(+)-Camptothecin", "S-CKD 602", "(19S)-19-ethyl-19-hydroxy-17-oxa-3,13-diazapentacyclo[11.8.0.02,11.04,9.015,20]henicosa-1(21),2,4,6,8,10,15(20)-heptaene-14,18-dione", "ZINC 105309", "MeSH ID: D002166"], "SMILES": "C(C)C1(O)C2=C(C(=O)N3C(=C2)C=4C(C3)=CC=5C(N4)=CC=CC5)COC1=O", "physical_data": {"Molecular Weight": "348.35", "Molecular Formula": "C20H16N2O4", "Melting Point": "255-277 \u00b0C (decomp)"}}