{"cas_no": "7689-63-6", "cn_name": "4-\u6c2f-1,5-\u8418\u5576", "en_name": ["4-Chloro-1,5-naphthyridine", "1,5-Naphthyridine, 4-chloro-", "4-Chloro-1,5-naphthyridine"], "SMILES": "ClC=1C2=C(N=CC1)C=CC=N2", "physical_data": {"Molecular Weight": "164.59", "Molecular Formula": "C8H5ClN2", "Melting Point": "102-102.5 \u00b0C"}}