{"cas_no": "769-40-4", "cn_name": "2,3,5,6-\u56db\u6c1f\u82ef\u786b\u915a", "en_name": ["2,3,5,6-Tetrafluorothiophenol", "Benzenethiol, 2,3,5,6-tetrafluoro-", "2,3,5,6-Tetrafluorobenzenethiol", "2,3,5,6-Tetrafluorothiophenol", "NSC 96887", "2,3,5,6-Tetrafluorophenylthiol", "2,3,5,6-Tetrafluorobenzene-1-thiol"], "SMILES": "FC1=C(S)C(F)=C(F)C=C1F", "physical_data": {"Molecular Weight": "182.14", "Molecular Formula": "C6H2F4S", "Boiling Point": "147 \u00b0C"}}