{"cas_no": "769-20-0", "cn_name": "6-\u6c28\u57fa-7-\u6eb4\u82ef\u5e76\u567b\u5511", "en_name": ["7-Bromo-6-benzothiazolamine", "6-Benzothiazolamine, 7-bromo-", "Benzothiazole, 6-amino-7-bromo-", "7-Bromo-6-benzothiazolamine", "7-Bromobenzo[d]thiazol-6-amine"], "SMILES": "BrC1=C2C(=CC=C1N)N=CS2", "physical_data": {"Molecular Weight": "229.10", "Molecular Formula": "C7H5BrN2S", "Melting Point": "123 \u00b0C"}}