{"cas_no": "769-25-5", "cn_name": "2,4,6-\u4e09\u7532\u57fa\u82ef\u4e59\u70ef", "en_name": ["2-Ethenyl-1,3,5-trimethylbenzene", "Benzene, 2-ethenyl-1,3,5-trimethyl-", "Styrene, 2,4,6-trimethyl-", "2-Ethenyl-1,3,5-trimethylbenzene", "2,4,6-Trimethylstyrene", "Mesitylethylene", "Vinylmesitylene", "2-Vinylmesitylene", "NSC 51012", "1,3,5-Trimethyl-2-vinylbenzene"], "SMILES": "C(=C)C1=C(C)C=C(C)C=C1C", "physical_data": {"Molecular Weight": "146.23", "Molecular Formula": "C11H14", "Boiling Point": "209 \u00b0C", "Melting Point": "-37 \u00b0C", "Density": "0.906 g/cm\u00b3 @ Temp: 21 \u00b0C"}}