{"cas_no": "769-42-6", "cn_name": "1,3-\u4e8c\u7532\u57fa\u5df4\u6bd4\u59a5\u9178", "en_name": ["Dimethylbarbituric acid", "2,4,6(1H,3H,5H)-Pyrimidinetrione, 1,3-dimethyl-", "Barbituric acid, 1,3-dimethyl-", "1,3-Dimethyl-2,4,6(1H,3H,5H)-pyrimidinetrione", "N,N\u2032-Dimethylbarbituric acid", "1,3-Dimethylbarbituric acid", "N,N\u2032-Dimethyl-2,4,6-pyrimidinetrione", "Dimethylbarbituric acid", "6-Hydroxy-1,3-dimethyluracil", "N,N-Dimethylbarbituric acid", "NSC 61918", "1,3-Dimethyl-1,3-diazacyclohexane-2,4,6-trione", "N\u2032,N-Dimethylbarbituric acid", "1,3-Dimethyl-pyrimidine-2,4,6-trione", "1,3-Dimethyl-1,3-diazinane-2,4,6-trione"], "SMILES": "CN1C(=O)N(C)C(=O)CC1=O", "physical_data": {"Molecular Weight": "156.14", "Molecular Formula": "C6H8N2O3", "Melting Point": "119-121 \u00b0C"}}