{"cas_no": "769-54-0", "cn_name": "3-\u6c1f-4-\u785d\u57fa-N-\u6c27\u5316\u5421\u5576", "en_name": ["Pyridine, 3-fluoro-4-nitro-, 1-oxide", "Pyridine, 3-fluoro-4-nitro-, 1-oxide", "3-Fluoro-4-nitropyridine N-oxide", "3-Fluoro-4-nitropyridine 1-oxide", "3-Fluoro-4-nitro-1-oxidopyridin-1-ium", "3-Fluoro-4-nitropyridin-1-ium-1-olate"], "SMILES": "N(=O)(=O)C=1C(F)=CN(=O)=CC1", "physical_data": {"Molecular Weight": "158.09", "Molecular Formula": "C5H3FN2O3", "Melting Point": "122 \u00b0C"}}