{"cas_no": "769-78-8", "cn_name": "\u82ef\u7532\u9178\u4e59\u70ef\u916f", "en_name": ["Vinyl benzoate", "Benzoic acid, ethenyl ester", "Benzoic acid, vinyl ester", "Vinyl benzoate", "Ethenyl benzoate", "NSC 2296"], "SMILES": "C(OC=C)(=O)C1=CC=CC=C1", "physical_data": {"Molecular Weight": "148.16", "Molecular Formula": "C9H8O2", "Boiling Point": "72-74 \u00b0C @ Press: 3 Torr", "Density": "1.068 g/cm\u00b3 @ Temp: 20 \u00b0C"}}