{"cas_no": "769-68-6", "cn_name": "\u03b1-\u82ef\u57fa\u4e01\u8148", "en_name": ["\u03b1-Ethylbenzeneacetonitrile", "Benzeneacetonitrile, \u03b1-ethyl-", "Butyronitrile, 2-phenyl-", "\u03b1-Ethylbenzeneacetonitrile", "Butanenitrile, 2-phenyl-", "2-Phenylbutyronitrile", "1-Cyano-1-phenylpropane", "\u03b1-Phenylbutyronitrile", "2-Phenylbutanenitrile", "(\u00b1)-2-Phenylbutyronitrile", "NSC 11272", "NSC 2373"], "SMILES": "C(CC)(C#N)C1=CC=CC=C1", "physical_data": {"Molecular Weight": "145.20", "Molecular Formula": "C10H11N", "Boiling Point": "241 \u00b0C", "Density": "0.977 g/cm\u00b3 @ Temp: 14 \u00b0C"}}