{"cas_no": "769-39-1", "cn_name": "2,3,5,6-\u56db\u6c1f\u82ef\u915a", "en_name": ["2,3,5,6-Tetrafluorophenol", "Phenol, 2,3,5,6-tetrafluoro-", "2,3,5,6-Tetrafluorophenol", "1,2,4,5-Tetrafluoro-3-hydroxybenzene", "NSC 88309"], "SMILES": "FC1=C(O)C(F)=C(F)C=C1F", "physical_data": {"Molecular Weight": "166.07", "Molecular Formula": "C6H2F4O", "Boiling Point": "140 \u00b0C", "Melting Point": "38 \u00b0C"}}