{"cas_no": "769-28-8", "cn_name": "3-\u6c30\u57fa-4,6-\u4e8c\u7532\u57fa-2-\u7f9f\u57fa\u5421\u5576", "en_name": ["3-Cyano-4,6-dimethyl-2-hydroxypyridine", "3-Pyridinecarbonitrile, 1,2-dihydro-4,6-dimethyl-2-oxo-", "Nicotinonitrile, 1,2-dihydro-4,6-dimethyl-2-oxo-", "1,2-Dihydro-4,6-dimethyl-2-oxo-3-pyridinecarbonitrile", "3-Cyano-4,6-dimethyl-2(1H)-pyridone", "3-Cyano-4,6-dimethyl-2-hydroxypyridine", "3-Cyano-4,6-dimethyl-2(1H)-pyridinone", "3-Cyano-4,6-dimethyl-2-pyridone", "NSC 52066", "NSC 54161", "2-Hydroxy-4,6-dimethylpyridine-3-carbonitrile", "4,6-Dimethyl-2-oxo-1,2-dihydropyridine-3-carbonitrile"], "SMILES": "C(#N)C1=C(C)C=C(C)NC1=O", "physical_data": {"Molecular Weight": "148.16", "Molecular Formula": "C8H8N2O", "Melting Point": "286 \u00b0C"}}