{"cas_no": "769-26-6", "cn_name": "2,4,6-\u4e09\u7ea7\u7532\u57fa\u82ef\u4e59\u7094", "en_name": ["2-Ethynyl-1,3,5-trimethylbenzene", "Benzene, 2-ethynyl-1,3,5-trimethyl-", "Mesitylene, 2-ethynyl-", "2-Ethynyl-1,3,5-trimethylbenzene", "Ethynylmesitylene", "Mesitylacetylene", "(2,4,6-Trimethylphenyl)acetylene", "2-Ethynylmesitylene", "Mesitylethyne", "1-Ethynyl-2,4,6-trimethylbenzene"], "SMILES": "C(#C)C1=C(C)C=C(C)C=C1C", "physical_data": {"Molecular Weight": "144.21", "Molecular Formula": "C11H12", "Boiling Point": "100.6-101.5 \u00b0C @ Press: 20 Torr", "Melting Point": "2.7-3.5 \u00b0C", "Density": "0.9185 g/cm\u00b3 @ Temp: 25 \u00b0C"}}