{"cas_no": "769-92-6", "cn_name": "4-\u53d4\u4e01\u57fa\u82ef\u80fa", "en_name": ["4-tert-Butylaniline", "Benzenamine, 4-(1,1-dimethylethyl)-", "Aniline, p-tert-butyl-", "4-(1,1-Dimethylethyl)benzenamine", "4-tert-Butylaniline", "p-tert-Butylaniline", "4-Amino-tert-butylbenzene", "4-tert-Butylbenzenamine", "4-tert-Butylphenylamine", "4-(1,1-Dimethylethyl)aniline", "p-(tert-Butyl)phenylamine", "4-t-Butylphenylamine"], "SMILES": "C(C)(C)(C)C1=CC=C(N)C=C1", "physical_data": {"Molecular Weight": "149.23", "Molecular Formula": "C10H15N", "Boiling Point": "241 \u00b0C", "Melting Point": "17 \u00b0C", "Density": "0.9414 g/cm\u00b3 @ Temp: 25 \u00b0C"}}