{"cas_no": "769-11-9", "cn_name": "2-\u6c2f-6-\u785d\u57fa\u82ef\u80fa", "en_name": ["2-Chloro-6-nitrobenzenamine", "Benzenamine, 2-chloro-6-nitro-", "Aniline, 2-chloro-6-nitro-", "2-Chloro-6-nitrobenzenamine", "2-Chloro-6-nitroaniline", "6-Chloro-2-nitroaniline", "NSC 37398", "2-Chloro-6-nitro-phenylamine"], "SMILES": "N(=O)(=O)C1=C(N)C(Cl)=CC=C1", "physical_data": {"Molecular Weight": "172.57", "Molecular Formula": "C6H5ClN2O2", "Melting Point": "74-75 \u00b0C"}}