{"cas_no": "769-10-8", "cn_name": "2-\u6c1f-6-\u785d\u57fa\u7532\u82ef", "en_name": ["1-Fluoro-2-methyl-3-nitrobenzene", "Benzene, 1-fluoro-2-methyl-3-nitro-", "Toluene, 2-fluoro-6-nitro-", "1-Fluoro-2-methyl-3-nitrobenzene", "6-Fluoro-2-nitrotoluene", "6-Nitro-2-fluorotoluene", "2-Fluoro-6-nitrotoluene", "2-Methyl-3-fluoronitrobenzene", "NSC 10333"], "SMILES": "N(=O)(=O)C1=C(C)C(F)=CC=C1", "physical_data": {"Molecular Weight": "155.13", "Molecular Formula": "C7H6FNO2", "Boiling Point": "91-92 \u00b0C @ Press: 8 Torr"}}