{"cas_no": "76903-88-3", "cn_name": "3,4-\u4e8c\u6c1f\u82ef\u7532\u9170\u6c2f", "en_name": ["3,4-Difluorobenzoyl chloride", "Benzoyl chloride, 3,4-difluoro-", "3,4-Difluorobenzoyl chloride"], "SMILES": "C(Cl)(=O)C1=CC(F)=C(F)C=C1", "physical_data": {"Molecular Weight": "176.55", "Molecular Formula": "C7H3ClF2O", "Boiling Point": "61-63 \u00b0C @ Press: 15 Torr", "Melting Point": "53-54 \u00b0C"}}