{"cas_no": "7691-02-3", "cn_name": "1,1,3,3-\u56db\u7532\u57fa-1,3-\u4e8c\u4e59\u70ef\u57fa\u4e8c\u7845\u6c2e\u70f7", "en_name": ["1-Ethenyl-N-(ethenyldimethylsilyl)-1,1-dimethylsilanamine", "Silanamine, 1-ethenyl-N-(ethenyldimethylsilyl)-1,1-dimethyl-", "Disilazane, 1,1,3,3-tetramethyl-1,3-divinyl-", "1-Ethenyl-N-(ethenyldimethylsilyl)-1,1-dimethylsilanamine", "1,3-Divinyltetramethyldisilazane", "Bis(vinyldimethylsilyl)amine", "1,1,3,3-Tetramethyl-1,3-divinyldisilazane", "1,3-Divinyl-1,1,3,3-tetramethyldisilazane", "Bis(dimethyl(vinyl)silyl)amine", "ZHMDS 100", "SID 4612.0", "[[[Ethenyl(dimethyl)silyl]amino]-dimethylsilyl]ethene", "Divinyltetramethyldisilazane"], "SMILES": "N([Si](C=C)(C)C)[Si](C=C)(C)C", "physical_data": {"Molecular Weight": "185.41", "Molecular Formula": "C8H19NSi2", "Boiling Point": "160-161 \u00b0C", "Density": "0.819 g/cm\u00b3"}}