{"cas_no": "7693-13-2", "cn_name": "\u67e0\u6aac\u9178\u9499", "en_name": ["Calcium citrate", "1,2,3-Propanetricarboxylic acid, 2-hydroxy-, calcium salt (1:?)", "Citric acid, calcium salt", "Calcium citrate", "1,2,3-Propanetricarboxylic acid, 2-hydroxy-, calcium salt", "Citramar", "E 333", "Calcit", "Calcitrat", "MeSH ID: D019355"], "SMILES": "C(CC(O)=O)(CC(O)=O)(C(O)=O)O.[Ca]", "physical_data": {"Molecular Weight": "", "Molecular Formula": "C6H8O7.xCa", "Melting Point": "100 \u00b0C (decomp)"}}