{"cas_no": "7693-27-8", "cn_name": "\u4e8c\u6c22\u5316\u9541", "en_name": ["Magnesium hydride", "Magnesium hydride (MgH2)", "Magnesium dihydride", "Magnesium hydride", "Tego Magnan"], "SMILES": "[MgH2]", "physical_data": {"Molecular Weight": "", "Molecular Formula": "H2Mg", "Melting Point": "&gt;250 \u00b0C (decomp)"}}