{"cas_no": "7693-41-6", "cn_name": "\u6c2f\u7532\u91784-\u7532\u6c27\u57fa\u82ef\u916f", "en_name": ["4-Methoxyphenyl carbonochloridate", "Carbonochloridic acid, 4-methoxyphenyl ester", "Formic acid, chloro-, p-methoxyphenyl ester", "Phenol, p-methoxy-, chloroformate", "4-Methoxyphenyl carbonochloridate", "p-Methoxyphenyl chloroformate", "4-Methoxyphenyl chloroformate", "p-Methoxyphenoxycarbonyl chloride", "p-Methoxyphenol chloroformate", "4-Methoxyohenyl chloroformate"], "SMILES": "O(C(Cl)=O)C1=CC=C(OC)C=C1", "physical_data": {"Molecular Weight": "186.59", "Molecular Formula": "C8H7ClO3", "Boiling Point": "74 \u00b0C @ Press: 3 Torr"}}