{"cas_no": "7693-46-1", "cn_name": "\u5bf9\u785d\u57fa\u82ef\u57fa\u6c2f\u7532\u9178\u916f", "en_name": ["4-Nitrophenyl chloroformate", "Carbonochloridic acid, 4-nitrophenyl ester", "Formic acid, chloro-, p-nitrophenyl ester", "p-Nitrophenyl chloroformate", "(p-Nitrophenoxy)carbonyl chloride", "4-Nitrophenyl chloroformate", "Chloroformic acid p-nitrophenyl ester", "p-Nitrophenyl chlorocarbonate", "p-Nitrophenol chloroformate", "(4-Nitrophenoxy)carbonyl chloride", "Chloroformic acid 4-nitrophenyl ester", "4-Nitrophenyl carbonochloridate", "4-Nitrophenyl chlorocarbonate", "Hypochlorous acid, 4-nitrophenyl ester"], "SMILES": "O(C(Cl)=O)C1=CC=C(N(=O)=O)C=C1", "physical_data": {"Molecular Weight": "201.56", "Molecular Formula": "C7H4ClNO4", "Boiling Point": "115-128 \u00b0C @ Press: 0.8-2.5 Torr", "Melting Point": "81-82 \u00b0C"}}