{"cas_no": "7693-52-9", "cn_name": "4-\u6eb4-2-\u785d\u57fa\u82ef\u915a", "en_name": ["4-Bromo-2-nitrophenol", "Phenol, 4-bromo-2-nitro-", "4-Bromo-2-nitrophenol", "NSC 402972"], "SMILES": "N(=O)(=O)C1=C(O)C=CC(Br)=C1", "physical_data": {"Molecular Weight": "218.00", "Molecular Formula": "C6H4BrNO3", "Boiling Point": "82-83 \u00b0C", "Melting Point": "92 \u00b0C"}}