{"cas_no": "7694-45-3", "cn_name": "\u7d2b\u82cf\u9178", "en_name": ["Perillic acid", "1-Cyclohexene-1-carboxylic acid, 4-(1-methylethenyl)-", "1-Cyclohexene-1-carboxylic acid, 4-isopropenyl-", "Perillic acid", "4-(1-Methylethenyl)-1-cyclohexene-1-carboxylic acid", "4-Isopropenyl-1-cyclohexene-1-carboxylic acid", "(\u00b1)-Perrillic acid", "4-(Prop-1-en-2-yl)cyclohex-1-ene-1-carboxylic acid"], "SMILES": "C(C)(=C)C1CCC(C(O)=O)=CC1", "physical_data": {"Molecular Weight": "166.22", "Molecular Formula": "C10H14O2", "Boiling Point": "164-165 \u00b0C @ Press: 10 Torr", "Melting Point": "130-131 \u00b0C"}}