{"cas_no": "76948-72-6", "cn_name": "\u9ec4\u82b1\u83dc\u6728\u8102\u7d20A", "en_name": ["Cleomiscosin A", "9H-Pyrano[2,3-f]-1,4-benzodioxin-9-one, 2,3-dihydro-3-(4-hydroxy-3-methoxyphenyl)-2-(hydroxymethyl)-5-methoxy-, (2R,3R)-rel-", "9H-Pyrano[2,3-f]-1,4-benzodioxin-9-one, 2,3-dihydro-3-(4-hydroxy-3-methoxyphenyl)-2-(hydroxymethyl)-5-methoxy-, trans-(\u00b1)-", "rel-(2R,3R)-2,3-Dihydro-3-(4-hydroxy-3-methoxyphenyl)-2-(hydroxymethyl)-5-methoxy-9H-pyrano[2,3-f]-1,4-benzodioxin-9-one", "Cleomiscosin A", "NSC 346197"], "SMILES": "O(C)C=1C2=C(C3=C(C1)C=CC(=O)O3)OC(CO)C(O2)C4=CC(OC)=C(O)C=C4", "physical_data": {"Molecular Weight": "386.35", "Molecular Formula": "C20H18O8", "Melting Point": "245-247 \u00b0C"}}