{"cas_no": "7695-56-9", "cn_name": "2-\u80fa\u57fa-3-\u7f9f\u57fa-3-\u82ef\u57fa-\u4e19\u9178\u916f", "en_name": ["rel-(\u03b2S)-\u03b2-Hydroxy-D-phenylalanine", "D-Phenylalanine, \u03b2-hydroxy-, (\u03b2S)-rel-", "Serine, 3-phenyl-, threo-", "Phenylalanine, \u03b2-hydroxy-, threo-", "rel-(\u03b2S)-\u03b2-Hydroxy-D-phenylalanine", "threo-3-Phenylserine", "DL-threo-\u03b2-Phenylserine", "threo-3-Phenyl-DL-serine", "threo-\u03b2-Hydroxy-DL-phenylalanine", "threo-DL-\u03b2-Phenylserine", "DL-threo-3-Phenylserine"], "SMILES": "C(C(C(O)=O)N)(O)C1=CC=CC=C1", "physical_data": {"Molecular Weight": "181.19", "Molecular Formula": "C9H11NO3", "Melting Point": "230-232 \u00b0C (decomp)"}}