{"cas_no": "7696-12-0", "cn_name": "\u80fa\u83ca\u916f", "en_name": ["Tetramethrin", "Cyclopropanecarboxylic acid, 2,2-dimethyl-3-(2-methyl-1-propen-1-yl)-, (1,3,4,5,6,7-hexahydro-1,3-dioxo-2H-isoindol-2-yl)methyl ester", "Cyclopropanecarboxylic acid, 2,2-dimethyl-3-(2-methylpropenyl)-, ester with N-(hydroxymethyl)-1-cyclohexene-1,2-dicarboximide", "Cyclopropanecarboxylic acid, 2,2-dimethyl-3-(2-methyl-1-propenyl)-, (1,3,4,5,6,7-hexahydro-1,3-dioxo-2H-isoindol-2-yl)methyl ester", "Neo-Pynamin", "Tetramethrin", "(1-Cyclohexene-1,2-dicarboximido)methyl chrysanthemumate", "Phthalthrin", "(1-Cyclohexene-1,2-dicarboximido)methyl chrysanthemate", "Bioneo-Pynamin", "Insectol", "Neo-Pynamin Forte", "Pibutox", "Pyrethrol L", "d-Tetramethrin", "Pion 1", "(1,3-Dioxo-4,5,6,7-tetrahydro-1H-isoindol-2(3H)-yl)methyl 2,2-dimethyl-3-(2-methylprop-1-en-1-yl)cyclopropanecarboxylate"], "SMILES": "C(=C(C)C)C1C(C(OCN2C(=O)C3=C(C2=O)CCCC3)=O)C1(C)C", "physical_data": {"Molecular Weight": "331.41", "Molecular Formula": "C19H25NO4", "Boiling Point": "180-190 \u00b0C @ Press: 0.1 Torr", "Melting Point": "68-70 \u00b0C", "Density": "1.108 g/cm\u00b3 @ Temp: 20 \u00b0C"}}