{"cas_no": "76963-41-2", "cn_name": "\u5c3c\u624e\u66ff\u4e01", "en_name": ["Nizatidine", "1,1-Ethenediamine, N\u2032-[2-[[[2-[(dimethylamino)methyl]-4-thiazolyl]methyl]thio]ethyl]-N-methyl-2-nitro-", "1,1-Ethenediamine, N-[2-[[[2-[(dimethylamino)methyl]-4-thiazolyl]methyl]thio]ethyl]-N\u2032-methyl-2-nitro-", "N\u2032-[2-[[[2-[(Dimethylamino)methyl]-4-thiazolyl]methyl]thio]ethyl]-N-methyl-2-nitro-1,1-ethenediamine", "Nizatidine", "LY 139037", "Axid", "Acinon", "Tazac", "Bonacid", "Distaxid", "Calmaxid", "ZL 101", "Nizax", "Naxidine", "Nizaxid", "Cronizat", "Zanizal", "Gastrax", "MeSH ID: D016567"], "SMILES": "C(N(C)C)C1=NC(CSCCNC(=CN(=O)=O)NC)=CS1", "physical_data": {"Molecular Weight": "331.46", "Molecular Formula": "C12H21N5O2S2", "Melting Point": "130-132 \u00b0C"}}