{"cas_no": "7697-27-0", "cn_name": "2-\u6eb4-4-\u7532\u57fa\u82ef\u7532\u9178", "en_name": ["2-Bromo-4-methylbenzoic acid", "Benzoic acid, 2-bromo-4-methyl-", "p-Toluic acid, 2-bromo-", "2-Bromo-4-methylbenzoic acid", "NSC 16629"], "SMILES": "C(O)(=O)C1=C(Br)C=C(C)C=C1", "physical_data": {"Molecular Weight": "215.04", "Molecular Formula": "C8H7BrO2", "Melting Point": "141-142 \u00b0C"}}