{"cas_no": "7697-26-9", "cn_name": "3-\u6eb4-4-\u7532\u57fa\u82ef\u7532\u9178", "en_name": ["3-Bromo-4-methylbenzoic acid", "Benzoic acid, 3-bromo-4-methyl-", "p-Toluic acid, 3-bromo-", "3-Bromo-4-methylbenzoic acid", "4-Methyl-3-bromobenzoic acid", "3-Bromo-p-toluic acid", "NSC 243715", "3-Bromo-4-methylbenzenecarboxylic acid"], "SMILES": "C(O)(=O)C1=CC(Br)=C(C)C=C1", "physical_data": {"Molecular Weight": "215.04", "Molecular Formula": "C8H7BrO2", "Melting Point": "209.5-210 \u00b0C"}}