{"cas_no": "7697-46-3", "cn_name": "2-\u82ef\u7532\u9170\u57fa\u5421\u54af", "en_name": ["2-Benzoylpyrrole", "Methanone, phenyl-1H-pyrrol-2-yl-", "Ketone, phenyl pyrrol-2-yl", "Phenyl-1H-pyrrol-2-ylmethanone", "2-Benzoylpyrrole", "Pyrrol-2-yl phenyl ketone", "Phenyl(1H-pyrrol-2-yl)methanone", "NSC 75585", "2-Benzoyl-1H-pyrrole", "Phenyl pyrrol-2-yl ketone"], "SMILES": "C(=O)(C1=CC=CN1)C2=CC=CC=C2", "physical_data": {"Molecular Weight": "171.20", "Molecular Formula": "C11H9NO", "Boiling Point": "175-180 \u00b0C @ Press: 0.25 Torr", "Melting Point": "78-79 \u00b0C"}}