{"cas_no": "7697-25-8", "cn_name": "2-\u6c2f-4-\u7532\u57fa\u82ef\u7532\u9178", "en_name": ["2-Chloro-4-methylbenzoic acid", "Benzoic acid, 2-chloro-4-methyl-", "p-Toluic acid, 2-chloro-", "2-Chloro-4-methylbenzoic acid", "2-Chloro-p-toluic acid", "4-Methyl-2-chlorobenzoic acid"], "SMILES": "C(O)(=O)C1=C(Cl)C=C(C)C=C1", "physical_data": {"Molecular Weight": "170.59", "Molecular Formula": "C8H7ClO2", "Melting Point": "195 \u00b0C"}}