{"cas_no": "7697-29-2", "cn_name": "4-\u6c2f-3-\u7532\u57fa\u82ef\u7532\u9178", "en_name": ["4-Chloro-3-methylbenzoic acid", "Benzoic acid, 4-chloro-3-methyl-", "m-Toluic acid, 4-chloro-", "4-Chloro-3-methylbenzoic acid", "4-Chloro-m-toluic acid", "NSC 137157"], "SMILES": "C(O)(=O)C1=CC(C)=C(Cl)C=C1", "physical_data": {"Molecular Weight": "170.59", "Molecular Formula": "C8H7ClO2", "Melting Point": "208 \u00b0C"}}