{"cas_no": "7697-37-2", "cn_name": "\u785d\u9178", "en_name": ["Nitric acid", "Nitric acid", "Aqua fortis", "Azotic acid", "Hydrogen nitrate", "Nitryl hydroxide", "Nital", "Nitric acid (HONO2)", "Fumic acid", "NSC 147791", "NSC 15203", "MeSH ID: D017942"], "SMILES": "N(=O)(=O)O", "physical_data": {"Molecular Weight": "63.01", "Molecular Formula": "HNO3", "Boiling Point": "83 \u00b0C", "Melting Point": "-41.6 \u00b0C", "Density": "1.55 g/cm\u00b3"}}