{"cas_no": "7697-28-1", "cn_name": "3-\u7532\u57fa-4-\u6eb4\u82ef\u7532\u9178", "en_name": ["4-Bromo-3-methylbenzoic acid", "Benzoic acid, 4-bromo-3-methyl-", "m-Toluic acid, 4-bromo-", "4-Bromo-3-methylbenzoic acid", "3-Methyl-4-bromobenzoic acid"], "SMILES": "C(O)(=O)C1=CC(C)=C(Br)C=C1", "physical_data": {"Molecular Weight": "215.04", "Molecular Formula": "C8H7BrO2", "Melting Point": "212-212.5 \u00b0C"}}