{"cas_no": "76981-71-0", "cn_name": "2-\u6c28\u57fa-6-\u7532\u57fa-4,5,6,7-\u56db\u6c22-\u82ef\u5e76\u567b\u5429-3-\u7532\u9178\u4e59\u916f", "en_name": ["Ethyl 2-amino-4,5,6,7-tetrahydro-6-methylbenzo[b]thiophene-3-carboxylate", "Benzo[b]thiophene-3-carboxylic acid, 2-amino-4,5,6,7-tetrahydro-6-methyl-, ethyl ester", "Ethyl 2-amino-4,5,6,7-tetrahydro-6-methylbenzo[b]thiophene-3-carboxylate", "(RS)-Ethyl 2-amino-6-methyl-4,5,6,7-tetrahydro-1-benzothiophene-3-carboxylate", "Ethyl 2-amino-6-methyl-4,5,6,7-tetrahydrobenzo[b]thiophene-3-carboxylate", "Ethyl 2-amino-6-methyl-4,5,6,7-tetrahydro-1-benzothiophene-3-carboxylate", "2-Amino-6-methyl-4,5,6,7-tetrahydro-benzo[b]thiophene-3-carboxylic acid ethyl ester"], "SMILES": "C(OCC)(=O)C=1C2=C(SC1N)CC(C)CC2", "physical_data": {"Molecular Weight": "239.33", "Molecular Formula": "C12H17NO2S", "Melting Point": "110 \u00b0C"}}