{"cas_no": "76985-10-9", "cn_name": "Boc-3-(2-\u8418\u57fa)-D-\u4e19\u6c28\u9178", "en_name": ["(\u03b1R)-\u03b1-[[(1,1-Dimethylethoxy)carbonyl]amino]-2-naphthalenepropanoic acid", "2-Naphthalenepropanoic acid, \u03b1-[[(1,1-dimethylethoxy)carbonyl]amino]-, (\u03b1R)-", "2-Naphthalenepropanoic acid, \u03b1-[[(1,1-dimethylethoxy)carbonyl]amino]-, (R)-", "(\u03b1R)-\u03b1-[[(1,1-Dimethylethoxy)carbonyl]amino]-2-naphthalenepropanoic acid", "BOC-(2-naphthyl)-D-alanine", "N-(tert-Butoxycarbonyl)-3-(2-naphthyl)-D-alanine", "(R)-2-[(tert-Butoxycarbonyl)amino]-3-(naphthalen-2-yl)propionic acid", "(2R)-2-[(2-Methylpropan-2-yl)oxycarbonylamino]-3-naphthalen-2-ylpropanoic acid", "2-Naphthalenepropanoic acid \u03b1-[[(1,1-dimethylethoxy)carbonyl]amino]-, (\u03b1R)-", "Boc-3-(2-naphthyl)-D-alanine"], "SMILES": "C(C(NC(OC(C)(C)C)=O)C(O)=O)C1=CC2=C(C=C1)C=CC=C2", "physical_data": {"Molecular Weight": "315.36", "Molecular Formula": "C18H21NO4", "Melting Point": "91-93 \u00b0C"}}