{"cas_no": "7698-93-3", "cn_name": "beta-\u96cc\u4e8c\u9187 17-\u534a\u7425\u73c0\u9178\u916f", "en_name": ["Estradiol hemisuccinate", "Estra-1,3,5(10)-triene-3,17-diol (17\u03b2)-, 17-(hydrogen butanedioate)", "Estradiol, 17-(hydrogen succinate)", "Succinic acid, 17-monoester with estradiol", "Estradiol 17\u03b2-hemisuccinate", "Estra-1,3,5(10)-triene-3,17\u03b2-diol 17-(hydrogen succinate)", "17\u03b2-Estradiol 17-hemisuccinate", "Estradiol-17-hemisuccinate", "17\u03b2-Estradiol succinate", "Estradiol hemisuccinate"], "SMILES": "CC12C(C3C(C=4C(CC3)=CC(O)=CC4)CC1)CCC2OC(CCC(O)=O)=O", "physical_data": {"Molecular Weight": "372.45", "Molecular Formula": "C22H28O5", "Melting Point": "150-155 \u00b0C"}}