{"cas_no": "7699-45-8", "cn_name": "\u6eb4\u5316\u950c", "en_name": ["Zinc bromide", "Zinc bromide (ZnBr2)", "Zinc bromide", "Zinc dibromide"], "SMILES": "[Zn](Br)Br", "physical_data": {"Molecular Weight": "", "Molecular Formula": "Br2Zn", "Boiling Point": "697 \u00b0C", "Melting Point": "394 \u00b0C", "Density": "4.3 g/cm\u00b3"}}