{"cas_no": "7699-18-5", "cn_name": "5-\u7532\u6c27\u57fa\u5432\u54da\u916e", "en_name": ["5-Methoxyoxindole", "2H-Indol-2-one, 1,3-dihydro-5-methoxy-", "2-Indolinone, 5-methoxy-", "1,3-Dihydro-5-methoxy-2H-indol-2-one", "5-Methoxy-2-oxindole", "5-Methoxyoxindole", "5-Methoxy-2-oxoindoline", "5-Methoxy-2-indolinone", "1,3-Dihydro-5-methoxyindol-2-one", "5-Methoxy-1,3-dihydroindol-2-one"], "SMILES": "O=C1NC=2C(=CC(OC)=CC2)C1", "physical_data": {"Molecular Weight": "163.17", "Molecular Formula": "C9H9NO2", "Melting Point": "152-154 \u00b0C"}}