{"cas_no": "7699-43-6", "cn_name": "\u6c27\u6c2f\u5316\u9506", "en_name": ["Zirconium oxychloride", "Zirconium, dichlorooxo-", "Dichlorooxozirconium", "Basic zirconium chloride", "Zirconium chloride oxide (ZrOCl2)", "Zirconium oxychloride (ZrOCl2)", "Zirconyl chloride (ZrOCl2)", "Zirconium oxydichloride", "Zirconium oxide chloride (ZrOCl2)", "Zirconium chloride, basic", "Zirconyl chloride", "Zirconium oxychloride", "Zirconium dichloride monoxide", "Zirconium dichloride oxide", "Zirconium(IV) oxychloride", "Zirconyl dichloride", "Zircosol ZC", "Zirconium dichloride oxide (ZrCl2O)", "Zirconium oxide dichloride", "Oxozirconium(IV) chloride", "NSC 115914", "ZC", "Zircosol ZC 20", "Zirconium chloride oxide (ZrCl2O)", "Orgatix ZC 126"], "SMILES": "[Zr](Cl)(Cl)=O", "physical_data": {"Molecular Weight": "", "Molecular Formula": "Cl2OZr", "Melting Point": "260 \u00b0C"}}