{"cas_no": "7699-31-2", "cn_name": "N,N'-\u4e8c\u4e59\u57fa\u80bc\u4e8c\u76d0\u9178\u76d0", "en_name": ["Hydrazine, 1,2-diethyl-, hydrochloride (1:2)", "Hydrazine, 1,2-diethyl-, hydrochloride (1:2)", "Hydrazine, 1,2-diethyl-, dihydrochloride", "1,2-Diethylhydrazine dihydrochloride", "N,N\u2032-Diethylhydrazine dihydrochloride"], "SMILES": "N(NCC)CC.Cl", "physical_data": {"Molecular Weight": "", "Molecular Formula": "C4H12N2.2ClH", "Melting Point": "168-169 \u00b0C"}}