{"cas_no": "7699-41-4", "cn_name": "\u7845\u9178", "en_name": ["Silicic acid (H2SiO3)", "Silicic acid (H2SiO3)", "Metasilicic acid", "Silicon hydroxide oxide (Si(OH)2O)"], "SMILES": "[Si](O)(O)=O", "physical_data": {"Molecular Weight": "78.10", "Molecular Formula": "H2O3Si", "Melting Point": "203-205 \u00b0C"}}