{"cas_no": "77-08-7", "cn_name": "5,5',6,6'-\u56db\u7f9f\u57fa-3,3,3',3'-\u56db\u7532\u57fa-1,1'-\u87ba\u65cb\u8054\u5432\u54da", "en_name": ["5,5\u2032,6,6\u2032-Tetrahydroxy-3,3,3\u2032,3\u2032-tetramethyl-1,1\u2032-spirobisindane", "1,1\u2032-Spirobi[1H-indene]-5,5\u2032,6,6\u2032-tetrol, 2,2\u2032,3,3\u2032-tetrahydro-3,3,3\u2032,3\u2032-tetramethyl-", "1,1\u2032-Spirobi[indan]-5,5\u2032,6,6\u2032-tetrol, 3,3,3\u2032,3\u2032-tetramethyl-", "2,2\u2032,3,3\u2032-Tetrahydro-3,3,3\u2032,3\u2032-tetramethyl-1,1\u2032-spirobi[1H-indene]-5,5\u2032,6,6\u2032-tetrol", "TTS 5", "3,3,3\u2032,3\u2032-Tetramethyl-5,6,5\u2032,6\u2032-tetrahydroxy-1,1\u2032-spirobiindan", "3,3,3\u2032,3\u2032-Tetramethyl-1,1\u2032-spirobi[indan]-5,5\u2032,6,6\u2032-tetrol", "3,3,3\u2032,3\u2032-Tetramethyl-1,1\u2032-spirobiindan-5,6,5\u2032,6\u2032-tetrol", "5,6,5\u2032,6\u2032-Tetrahydroxy-3,3,3\u2032,3\u2032-tetramethyl-1,1\u2032-spirobiindan", "5,5\u2032,6,6\u2032-Tetrahydroxy-3,3,3\u2032,3\u2032-tetramethyl-1,1\u2032-spirobihydrindene", "5,5\u2032,6,6\u2032-Tetrahydroxy-3,3,3\u2032,3\u2032-tetramethyl-1,1\u2032-spirobiindan", "3,3,3\u2032,3\u2032-Tetramethyl-1,1\u2032-spirobisindan-5,5\u2032,6,6\u2032-tetrol", "(\u00b1)-5,5\u2032,6,6\u2032-Tetrahydroxy-3,3,3\u2032,3\u2032-tetramethyl-1,1\u2032-spirobis(indan)", "NSC 512922", "NSC 82063", "3,3,3\u2032,3\u2032-Tetramethyl-1,1\u2032-spirobisindane-5,5\u2032,6,6\u2032-tetrol", "5,5\u2032,6,6\u2032-Tetrahydroxy-3,3,3\u2032,3\u2032-tetramethyl-1,1\u2032-spirobisindane", "1,1,1\u2032,1\u2032-Tetramethyl-3,3\u2032-spirobi[2H-indene]-5,5\u2032,6,6\u2032-tetrol", "3,3,3\u2032,3\u2032-Tetramethyl-2,2\u2032,3,3\u2032-tetrahydro-1,1\u2032-spirobi[indene]-5,5\u2032,6,6\u2032-tetraol", "3,3,3\u2032,3\u2032-Tetramethyl-2,2\u2032,3,3\u2032-tetrahydro-1,1\u2032-spirobi[indene]-5,5\u2032,6,6\u2032-tetrol", "5,5\u2032,6,6\u2032-Tetrahydroxy-3,3,3\u2032,3\u2032-tetramethyl-1,1\u2032-spirobiindane", "5,5\u2032,6,6\u2032-Tetrahydroxy-3,3,3\u2032,3\u2032-tetramethylspirobisindane"], "SMILES": "CC1(C)CC2(C=3C(C(C)(C)C2)=CC(O)=C(O)C3)C=4C1=CC(O)=C(O)C4", "physical_data": {"Molecular Weight": "340.41", "Molecular Formula": "C21H24O4", "Melting Point": "315 \u00b0C"}}