{"cas_no": "77-09-8", "cn_name": "\u915a\u915e", "en_name": ["3,3-Bis(4-hydroxyphenyl)phthalide", "1(3H)-Isobenzofuranone, 3,3-bis(4-hydroxyphenyl)-", "Phenolphthalein", "3,3-Bis(4-hydroxyphenyl)-1(3H)-isobenzofuranone", "3,3-Bis(4-hydroxyphenyl)phthalide", "Purga", "Laxogen", "Spulmako-lax", "Lilo", "Trilax", "Koprol", "Purgophen", "Euchessina", "Phthalimetten", "Purgen", "Phthalin", "3,3-Bis(p-hydroxyphenyl)phthalide", "NSC 10464", "NSC 215214", "TY 9", "PX 0520-1", "3,3-Bis-(4-hydroxy-phenyl)-3H-isobenzofuran-1-one", "3,3-Bis(4-hydroxyphenyl)-2-benzofuran-1-one", "MeSH ID: D020113"], "SMILES": "O=C1OC(C=2C1=CC=CC2)(C3=CC=C(O)C=C3)C4=CC=C(O)C=C4", "physical_data": {"Molecular Weight": "318.32", "Molecular Formula": "C20H14O4", "Melting Point": "262.5 \u00b0C", "Density": "1.277 g/cm\u00b3 @ Temp: 32 \u00b0C"}}