{"cas_no": "77-06-5", "cn_name": "\u8d64\u9709\u7d20", "en_name": ["(+)-Gibberellic acid", "Gibb-3-ene-1,10-dicarboxylic acid, 2,4a,7-trihydroxy-1-methyl-8-methylene-, 1,4a-lactone, (1\u03b1,2\u03b2,4a\u03b1,4b\u03b2,10\u03b2)-", "Gibberellin A3", "Gibberellic acid", "GA3", "GA", "Gibberellic acid GA3", "Berelex", "Gibreskol", "Pro-Gibb Plus", "Gibrescol", "Pro-Gibb", "TU 64-3-103-75", "(+)-Gibberellin A3", "Release LC", "RyzUp", "Ralex", "(+)-Gibberellic acid", "Maxon", "Maxon (plant growth regulator)", "Activol", "NSC 14190", "NSC 19450", "Arbostim", "Grocel GA3", "GibGro", "Gibberellin GA3", "Giberllon", "Clemencuaje", "ProGib", "Berelex L", "RyzUp SmartGrass", "Release"], "SMILES": "C(O)(=O)C1C2C3(C4C15CC(O)(CC4)C(=C)C5)OC(=O)C2(C)C(O)C=C3", "physical_data": {"Molecular Weight": "346.37", "Molecular Formula": "C19H22O6", "Melting Point": "234 \u00b0C"}}