{"cas_no": "77-21-4", "cn_name": "\u683c\u9c81\u7c73\u7279", "en_name": ["(\u00b1)-Glutethimide", "2,6-Piperidinedione, 3-ethyl-3-phenyl-", "Glutarimide, 2-ethyl-2-phenyl-", "3-Ethyl-3-phenyl-2,6-piperidinedione", "Doriden", "Elrodorm", "3-Ethyl-3-phenyl-2,6-diketopiperidine", "3-Ethyl-3-phenyl-2,6-dioxopiperidine", "\u03b1-Ethyl-\u03b1-phenylglutarimide", "2-Ethyl-2-phenylglutarimide", "Glutethimid", "Glutethimide", "Noxyron", "3-Phenyl-3-ethyl-2,6-diketopiperidine", "3-Phenyl-3-ethyl-2,6-dioxopiperidine", "\u03b1-Phenyl-\u03b1-ethylglutaric acid imide", "2-Phenyl-2-ethylglutaric acid imide", "\u03b1-Phenyl-\u03b1-ethylglutarimide", "Sarodormin", "Doriden-Sed", "Noxiron", "Glutetimid", "Rigenox", "Glimid", "3-Ethyl-3-phenylglutarimide", "(\u00b1)-Glutethimide", "(\u00b1)-2-Ethyl-2-phenylglutarimide", "(\u00b1)-3-Ethyl-3-phenyl-2,6-piperidinedione", "NSC 95239", "MeSH ID: D005984"], "SMILES": "C(C)C1(C(=O)NC(=O)CC1)C2=CC=CC=C2", "physical_data": {"Molecular Weight": "217.26", "Molecular Formula": "C13H15NO2", "Boiling Point": "168 \u00b0C @ Press: 0.3 Torr", "Melting Point": "84 \u00b0C"}}