{"cas_no": "77-23-6", "cn_name": "\u67b8\u6a7c\u9178\u55b7\u6258\u7ef4\u6797", "en_name": ["Carbetapentane", "Cyclopentanecarboxylic acid, 1-phenyl-, 2-[2-(diethylamino)ethoxy]ethyl ester", "Carbetapentane", "2-(Diethylaminoethoxy)ethyl 1-phenyl-1-cyclopentanecarboxylate", "2-(2-Diethylaminoethoxy)ethyl 1-phenylcyclopentanecarboxylate", "Pentoxyverine", "1-Phenylcyclopentane-1-carboxylic acid diethylaminoethoxyethyl ester", "Atussil", "Pentoxiverine"], "SMILES": "C(OCCOCCN(CC)CC)(=O)C1(CCCC1)C2=CC=CC=C2", "physical_data": {"Molecular Weight": "333.46", "Molecular Formula": "C20H31NO3", "Boiling Point": "165-170 \u00b0C @ Press: 0.01 Torr"}}