{"cas_no": "77-25-8", "cn_name": "\u4e8c\u4e59\u57fa\u4e19\u4e8c\u9178\u4e8c\u4e59\u916f", "en_name": ["Propanedioic acid, 2,2-diethyl-, 1,3-diethyl ester", "Propanedioic acid, 2,2-diethyl-, 1,3-diethyl ester", "Malonic acid, diethyl-, diethyl ester", "Propanedioic acid, diethyl-, diethyl ester", "Diethylmalonic acid diethyl ester", "Diethyl diethylmalonate", "Diethyl 3,3-pentanedicarboxylate", "Diethyl 2,2-diethylmalonate", "NSC 8710", "1,3-Diethyl 2,2-diethylpropanedioate"], "SMILES": "C(C(OCC)=O)(C(OCC)=O)(CC)CC", "physical_data": {"Molecular Weight": "216.27", "Molecular Formula": "C11H20O4", "Boiling Point": "230 \u00b0C", "Melting Point": "128-130 \u00b0C", "Density": "0.989 g/cm\u00b3 @ Temp: 20 \u00b0C"}}