{"cas_no": "77-24-7", "cn_name": "\u4e59\u57fa(\u5f02\u620a\u57fa)\u4e19\u4e8c\u9178\u4e8c\u4e59\u916f", "en_name": ["Propanedioic acid, 2-ethyl-2-(3-methylbutyl)-, 1,3-diethyl ester", "Propanedioic acid, 2-ethyl-2-(3-methylbutyl)-, 1,3-diethyl ester", "Malonic acid, ethylisopentyl-, diethyl ester", "Propanedioic acid, ethyl(3-methylbutyl)-, diethyl ester", "Malonic acid, ethylisoamyl-, diethyl ester", "Diethyl ethylisoamylmalonate", "NSC 8721", "1,3-Diethyl 2-ethyl-2-(3-methylbutyl)propanedioate"], "SMILES": "C(C(OCC)=O)(C(OCC)=O)(CCC(C)C)CC", "physical_data": {"Molecular Weight": "258.35", "Molecular Formula": "C14H26O4", "Boiling Point": "248-253 \u00b0C", "Melting Point": "116-118 \u00b0C", "Density": "0.931 g/cm\u00b3 @ Temp: 20 \u00b0C"}}