{"cas_no": "77-38-3", "cn_name": "\u6c2f\u82ef\u6c99\u660e", "en_name": ["Chlorphenoxamine", "Ethanamine, 2-[1-(4-chlorophenyl)-1-phenylethoxy]-N,N-dimethyl-", "Ethylamine, 2-[(p-chloro-\u03b1-methyl-\u03b1-phenylbenzyl)oxy]-N,N-dimethyl-", "2-[1-(4-Chlorophenyl)-1-phenylethoxy]-N,N-dimethylethanamine", "p-Chloro-\u03b1-methyldiphenhydramine", "2-(p-Chloro-\u03b1-methyl-\u03b1-phenylbenzyloxy)-N,N-dimethylethylamine", "[1-(p-Chlorophenyl)-1-phenylethyl] (\u03b2-dimethylaminoethyl) ether", "\u03b2-Dimethylaminoethyl (p-chloro-\u03b1-methylbenzhydryl) ether", "Chlorphenoxamine"], "SMILES": "C(OCCN(C)C)(C)(C1=CC=C(Cl)C=C1)C2=CC=CC=C2", "physical_data": {"Molecular Weight": "303.83", "Molecular Formula": "C18H22ClNO", "Boiling Point": "152.5 \u00b0C"}}