{"cas_no": "77-36-1", "cn_name": "\u6c2f\u585e\u916e", "en_name": ["Chlorthalidone", "Benzenesulfonamide, 2-chloro-5-(2,3-dihydro-1-hydroxy-3-oxo-1H-isoindol-1-yl)-", "Benzenesulfonamide, 2-chloro-5-(1-hydroxy-3-oxo-1-isoindolinyl)-", "2-Chloro-5-(2,3-dihydro-1-hydroxy-3-oxo-1H-isoindol-1-yl)benzenesulfonamide", "G 33182", "2-Chloro-5-(1-hydroxy-3-oxo-1-isoindolinyl)benzenesulfonamide", "3-(4\u2032-Chloro-3\u2032-sulfamoylphenyl)-3-hydroxyphthalimidine", "Chlorothalidone", "Chlortalidone", "Chlorthalidon", "Chlorthalidone", "3-Hydroxy-3-[4-chloro-3-sulfamylphenyl]phthalimidine", "Hygroton", "1-Oxo-3-(3-sulfamyl-4-chlorophenyl)-3-hydroxyisoindoline", "1-Oxo-3-(3-sulfamyl-4-chlorophenyl)-3-hydroxy-isoindolinum", "Phthalamudine", "1-keto-3-(3\u2032-Sulfamyl-4\u2032-chlorophenyl)-3-hydroxyisoindoline", "2-Chloro-5-(3-hydroxy-1-oxoisoindol-3-yl)benzenesulfonamide", "Isoren", "Natriuran", "Oradil", "Renon", "Saluretin", "Zambesil", "Igroton", "Oxodolin", "(\u00b1)-Chlorthalidone", "(\u00b1)-Hygroton", "Racemic chlorthalidone", "Thalitone", "Demi-Regroton", "NSC 69200", "Higrotona", "Higroton", "ZINC 00020253", "2-Chloro-5-(1-hydroxy-3-oxo-2,3-dihydro-1H-isoindol-1-yl)benzenesulfonamide", "2-Chloro-5-(1-hydroxy-3-oxo-2H-isoindol-1-yl)benzenesulfonamide", "MeSH ID: D002752"], "SMILES": "OC1(C=2C(C(=O)N1)=CC=CC2)C3=CC(S(N)(=O)=O)=C(Cl)C=C3", "physical_data": {"Molecular Weight": "338.77", "Molecular Formula": "C14H11ClN2O4S", "Melting Point": "239 \u00b0C"}}