{"cas_no": "77-48-5", "cn_name": "\u4e8c\u6eb4\u6d77\u56e0", "en_name": ["1,3-Dibromo-5,5-dimethylhydantoin", "2,4-Imidazolidinedione, 1,3-dibromo-5,5-dimethyl-", "Hydantoin, 1,3-dibromo-5,5-dimethyl-", "1,3-Dibromo-5,5-dimethyl-2,4-imidazolidinedione", "1,3-Dibromo-5,5-dimethylhydantoin", "N,N\u2032-Dibromodimethylhydantoin", "Dibromantin", "Dibromantine", "5,5-Dimethyl-1,3-dibromohydantoin", "N,N\u2032-Dibromo-5,5-dimethylhydantoin", "NSC 33305", "1,3-Dibromo-5,5-dimethylimidazolidine-2,4-dione", "1,3-Dibromo-5,5-dimethylimidazolidin-2,4-dione", "Dibromohydantoin"], "SMILES": "CC1(C)C(=O)N(Br)C(=O)N1Br", "physical_data": {"Molecular Weight": "285.92", "Molecular Formula": "C5H6Br2N2O2", "Melting Point": "198 \u00b0C (decomp)"}}