{"cas_no": "77-47-4", "cn_name": "\u516d\u6c2f\u73af\u620a\u4e8c\u70ef", "en_name": ["Hexachlorocyclopentadiene", "1,3-Cyclopentadiene, 1,2,3,4,5,5-hexachloro-", "Cyclopentadiene, hexachloro-", "1,2,3,4,5,5-Hexachloro-1,3-cyclopentadiene", "C 56", "HRS 1655", "Graphlox", "Hexachlorocyclopentadiene", "Perchlorocyclopentadiene", "Hexachloro-1,3-cyclopentadiene", "NSC 9235", "1,2,3,4,5,5-Hexachlorocyclopentadiene"], "SMILES": "ClC1(Cl)C(Cl)=C(Cl)C(Cl)=C1Cl", "physical_data": {"Molecular Weight": "272.77", "Molecular Formula": "C5Cl6", "Boiling Point": "239 \u00b0C", "Melting Point": "-9 \u00b0C", "Density": "1.7019 g/cm\u00b3 @ Temp: 25 \u00b0C"}}