{"cas_no": "77-40-7", "cn_name": "\u53cc\u915aB", "en_name": ["Bisphenol B", "Phenol, 4,4\u2032-(1-methylpropylidene)bis-", "Phenol, 4,4\u2032-sec-butylidenedi-", "4,4\u2032-(1-Methylpropylidene)bis[phenol]", "2,2-Bis(p-hydroxyphenyl)butane", "2,2-Bis(4-hydroxyphenyl)butane", "Bis(4-hydroxyphenyl)methylethylmethane", "Bisphenol B", "p,p\u2032-sec-Butylidenediphenol", "4,4\u2032-sec-Butylidenediphenol", "p,p\u2032-Dihydroxy-2,2-diphenylbutane", "4,4\u2032-Dihydroxy-2,2-diphenylbutane", "Butane, 2,2-bis(4-hydroxyphenyl)-", "NSC 1775"], "SMILES": "C(CC)(C)(C1=CC=C(O)C=C1)C2=CC=C(O)C=C2", "physical_data": {"Molecular Weight": "242.31", "Molecular Formula": "C16H18O2", "Boiling Point": "204-207 \u00b0C @ Press: 5 Torr", "Melting Point": "120.5 \u00b0C"}}