{"cas_no": "77-41-8", "cn_name": "\u7532\u7425\u80fa", "en_name": ["Methsuximide", "2,5-Pyrrolidinedione, 1,3-dimethyl-3-phenyl-", "Succinimide, N,2-dimethyl-2-phenyl-", "1,3-Dimethyl-3-phenyl-2,5-pyrrolidinedione", "PM 396", "Celontin", "N,2-Dimethyl-2-phenylsuccinimide", "Mesuximide", "Methsuximide", "Petinutin", "Mesuximidum", "Methsuximid", "1,3-Dimethyl-3-phenylsuccinimide", "(\u00b1)-Mesuximide", "Racemic methsuximide", "1,3-Dimethyl-3-phenylpyrrolidine-2,5-dione"], "SMILES": "CC1(C(=O)N(C)C(=O)C1)C2=CC=CC=C2", "physical_data": {"Molecular Weight": "203.24", "Molecular Formula": "C12H13NO2", "Boiling Point": "121-122 \u00b0C @ Press: 0.1 Torr", "Melting Point": "52-53 \u00b0C"}}