{"cas_no": "77-49-6", "cn_name": "2-\u785d\u57fa-2-\u7532\u57fa-1,3-\u4e19\u4e8c\u9187", "en_name": ["2-Methyl-2-nitro-1,3-propanediol", "1,3-Propanediol, 2-methyl-2-nitro-", "2-Methyl-2-nitro-1,3-propanediol", "1,1-Dimethylol-1-nitroethane", "2-Nitro-2-methyl-1,3-propanediol", "NMPD", "Nitroisobutylglycol", "NSC 5372"], "SMILES": "C(N(=O)=O)(CO)(CO)C", "physical_data": {"Molecular Weight": "135.12", "Molecular Formula": "C4H9NO4", "Melting Point": "150.1 \u00b0C"}}