{"cas_no": "77-52-1", "cn_name": "\u718a\u679c\u9178", "en_name": ["(+)-Ursolic acid", "Urs-12-en-28-oic acid, 3-hydroxy-, (3\u03b2)-", "Urs-12-en-28-oic acid, 3\u03b2-hydroxy-", "(3\u03b2)-3-Hydroxyurs-12-en-28-oic acid", "Malol", "Prunol", "Ursolic acid", "Urson", "\u03b2-Ursolic acid", "Bungeolic acid", "(+)-Ursolic acid", "3\u03b2-Hydroxyurs-12-en-28-oic acid", "Merotaine", "NSC 167406", "NSC 4060", "Ursolisome", "Neoage UR"], "SMILES": "C(O)(=O)C12C(C=3C(C)(CC1)C4(C)C(CC3)C5(C)C(CC4)C(C)(C)C(O)CC5)C(C)C(C)CC2", "physical_data": {"Molecular Weight": "456.70", "Molecular Formula": "C30H48O3", "Melting Point": "284 \u00b0C"}}