{"cas_no": "77-59-8", "cn_name": "\u756a\u8304\u78b1", "en_name": ["Tomatidine", "Spirosolan-3-ol, (3\u03b2,5\u03b1,22\u03b2,25S)-", "5\u03b1-Tomatidan-3\u03b2-ol", "Tomatidine", "(3\u03b2,5\u03b1,22\u03b2,25S)-Spirosolan-3-ol", "Tomatidin", "NSC 226903", "Spirosolan-3-ol, (3\u03b2,5\u03b1,22\u03b1)-"], "SMILES": "CC1C2(OC3C1C4(C)C(C3)C5C(CC4)C6(C)C(CC5)CC(O)CC6)CCC(C)CN2", "physical_data": {"Molecular Weight": "415.65", "Molecular Formula": "C27H45NO2", "Melting Point": "210.5 \u00b0C"}}