{"cas_no": "77-53-2", "cn_name": "\u67cf\u6728\u8111", "en_name": ["(+)-Cedrol", "1H-3a,7-Methanoazulen-6-ol, octahydro-3,6,8,8-tetramethyl-, (3R,3aS,6R,7R,8aS)-", "8\u03b2H-Cedran-8-ol", "Cedrol", "1H-3a,7-Methanoazulen-6-ol, octahydro-3,6,8,8-tetramethyl-, [3R-(3\u03b1,3a\u03b2,6\u03b1,7\u03b2,8a\u03b1)]-", "(3R,3aS,6R,7R,8aS)-Octahydro-3,6,8,8-tetramethyl-1H-3a,7-methanoazulen-6-ol", "\u03b1-Cedrol", "(+)-Cedrol", "Cedrol Nanomedicin", "(3R,3AS,6R,7R,8aS)-3,6,8,8-tetramethyloctahydro-1H-3a,7-methanoazulen-6-ol"], "SMILES": "CC1C23C(C(C)(C)C(C2)C(C)(O)CC3)CC1", "physical_data": {"Molecular Weight": "222.37", "Molecular Formula": "C15H26O", "Melting Point": "86 \u00b0C"}}