{"cas_no": "77-55-4", "cn_name": "1-\u82ef\u57fa\u73af\u620a\u70f7\u7fa7\u9178", "en_name": ["1-Phenylcyclopentanecarboxylic acid", "Cyclopentanecarboxylic acid, 1-phenyl-", "1-Phenylcyclopentanecarboxylic acid", "1-Phenylcyclopentane-1-carboxylic acid", "NSC 19462", "1-Phenylcyclopentan-1-carboxylic acid"], "SMILES": "C(O)(=O)C1(CCCC1)C2=CC=CC=C2", "physical_data": {"Molecular Weight": "190.24", "Molecular Formula": "C12H14O2", "Boiling Point": "107-108 \u00b0C @ Press: 0.3 Torr", "Melting Point": "158-159 \u00b0C"}}