{"cas_no": "77-54-3", "cn_name": "\u4e59\u9178\u67cf\u6728\u916f", "en_name": ["Cedryl acetate", "1H-3a,7-Methanoazulen-6-ol, octahydro-3,6,8,8-tetramethyl-, 6-acetate, (3R,3aS,6R,7R,8aS)-", "8\u03b2H-Cedran-8-ol, acetate", "1H-3a,7-Methanoazulen-6-ol, octahydro-3,6,8,8-tetramethyl-, acetate, [3R-(3\u03b1,3a\u03b2,6\u03b1,7\u03b2,8a\u03b1)]-", "Cedrol, acetate", "1H-3a,7-Methanoazulen-6-ol, octahydro-3,6,8,8-tetramethyl-, acetate, (3R,3aS,6R,7R,8aS)-", "Cedryl acetate"], "SMILES": "CC1C23C(C(C)(C)C(C2)C(OC(C)=O)(C)CC3)CC1", "physical_data": {"Molecular Weight": "264.40", "Molecular Formula": "C17H28O2", "Melting Point": "40-42 \u00b0C"}}