{"cas_no": "77-57-6", "cn_name": "1-\u82ef\u57fa-1-\u6c30\u57fa\u73af\u620a\u70f7", "en_name": ["1-Phenylcyclopentanecarbonitrile", "Cyclopentanecarbonitrile, 1-phenyl-", "1-Phenylcyclopentanecarbonitrile", "1-Phenylcyclopentanenitrile", "1-Cyano-1-phenylcyclopentane", "NSC 18928", "1-Phenylcyclopentane-1-carbonitrile"], "SMILES": "C(#N)C1(CCCC1)C2=CC=CC=C2", "physical_data": {"Molecular Weight": "171.24", "Molecular Formula": "C12H13N", "Boiling Point": "145-160 \u00b0C @ Press: 25-30 Torr"}}