{"cas_no": "77-67-8", "cn_name": "\u4e59\u7425\u80fa", "en_name": ["Ethosuximide", "2,5-Pyrrolidinedione, 3-ethyl-3-methyl-", "Succinimide, 2-ethyl-2-methyl-", "3-Ethyl-3-methyl-2,5-pyrrolidinedione", "C.I. 366", "PM 671", "Emeside", "Ethosuxide", "Ethosuximide", "3-Ethyl-3-methylpyrrolidine-2,5-dione", "2-Ethyl-2-methylsuccinimide", "Petinimid", "Petnidan", "Succimitin", "Suxinutin", "Zarodan", "Zarondan-Saft", "Zarontin", "\u03b1-Ethyl-\u03b1-methylsuccinimide", "Simatin", "Ronton", "3-Methyl-3-ethylpyrrolidine-2,5-dione", "Pyknolepsinum", "Succimal", "Capitus", "Atysmal", "Ethymal", "Pemal", "Mesentol", "Suxilep", "Suximal", "Etosuximid", "Piknolepsin", "H 940", "Zarondan", "3-Ethyl-3-methylsuccinimide", "\u03b1-Methyl-\u03b1-ethylsuccinimide", "3-Methyl-3-ethylsuccinimide", "2-Methyl-2-ethylsuccinimide", "Epileo Petitmal", "CN 10395", "Peptinimid", "NSC 64013", "(\u00b1)-Ethosuximide", "MeSH ID: D005013"], "SMILES": "C(C)C1(C)C(=O)NC(=O)C1", "physical_data": {"Molecular Weight": "141.17", "Molecular Formula": "C7H11NO2", "Boiling Point": "129 \u00b0C", "Melting Point": "64.5 \u00b0C"}}