{"cas_no": "77-60-1", "cn_name": "\u5251\u9ebb\u7682\u82f7\u5143", "en_name": ["Tigogenin", "Spirostan-3-ol, (3\u03b2,5\u03b1,25R)-", "Tigogenin", "5\u03b1-Spirostan-3\u03b2-ol, (25R)-", "5\u03b1-Spirostan-3\u03b2-ol", "(3\u03b2,5\u03b1,25R)-Spirostan-3-ol", "(25R)-5\u03b1-Spirostan-3\u03b2-ol", "Ticogenin", "NSC 93754"], "SMILES": "CC1C2(OC3C1C4(C)C(C3)C5C(CC4)C6(C)C(CC5)CC(O)CC6)CCC(C)CO2", "physical_data": {"Molecular Weight": "416.64", "Molecular Formula": "C27H44O3", "Melting Point": "205.5 \u00b0C"}}