{"cas_no": "77-63-4", "cn_name": "\u56db\u7532\u57fa\u56db\u82ef\u57fa\u73af\u56db\u7845\u6c27\u70f7", "en_name": ["2,4,6,8-Tetramethyl-2,4,6,8-tetraphenylcyclotetrasiloxane", "Cyclotetrasiloxane, 2,4,6,8-tetramethyl-2,4,6,8-tetraphenyl-", "2,4,6,8-Tetramethyl-2,4,6,8-tetraphenylcyclotetrasiloxane", "1,3,5,7-Tetramethyltetraphenylcyclotetrasiloxane", "Tetramethyltetraphenylcyclotetrasiloane", "2,4,6,8-Tetramethyl-2,4,6,8-tetraphenyl-1,3,5,7,2,4,6,8-tetraoxatetrasilocane"], "SMILES": "C[Si]1(O[Si](C)(O[Si](C)(O[Si](C)(O1)C2=CC=CC=C2)C3=CC=CC=C3)C4=CC=CC=C4)C5=CC=CC=C5", "physical_data": {"Molecular Weight": "544.89", "Molecular Formula": "C28H32O4Si4", "Boiling Point": "237 \u00b0C", "Melting Point": "99 \u00b0C", "Density": "1.125 g/cm\u00b3 @ Temp: 20 \u00b0C"}}