{"cas_no": "77-78-1", "cn_name": "\u786b\u9178\u4e8c\u7532\u916f", "en_name": ["Dimethyl sulfate", "Sulfuric acid, dimethyl ester", "Dimethyl sulfate", "Methyl sulfate", "Dimethyl sulphate", "NSC 56194"], "SMILES": "S(OC)(OC)(=O)=O", "physical_data": {"Molecular Weight": "126.13", "Molecular Formula": "C2H6O4S", "Boiling Point": "187.5 \u00b0C @ Press: 769 Torr", "Melting Point": "-27 \u00b0C", "Density": "1.3322 g/cm\u00b3 @ Temp: 20 \u00b0C"}}