{"cas_no": "77-76-9", "cn_name": "2,2-\u4e8c\u7532\u6c27\u57fa\u4e19\u70f7", "en_name": ["2,2-Dimethoxypropane", "Propane, 2,2-dimethoxy-", "Acetone, dimethyl acetal", "2,2-Dimethoxypropane", "Acetone dimethyl ketal", "NSC 62085", "2,2-Bis(methyloxy)propane", "2,2-DMP"], "SMILES": "C(OC)(OC)(C)C", "physical_data": {"Molecular Weight": "104.15", "Molecular Formula": "C5H12O2", "Boiling Point": "83 \u00b0C", "Melting Point": "-47 \u00b0C", "Density": "0.8448 g/cm\u00b3 @ Temp: 20 \u00b0C"}}