{"cas_no": "77-75-8", "cn_name": "3-\u7532\u57fa-1-\u620a\u7094-3-\u9187", "en_name": ["3-Methyl-1-pentyn-3-ol", "1-Pentyn-3-ol, 3-methyl-", "3-Methyl-1-pentyn-3-ol", "Allotropal", "Apridol", "Atempol", "2-Butanol, 2-ethynyl-", "Dormidin", "Dormigen", "Dormiphen", "Dormison", "Dormosan", "2-Ethynyl-2-butanol", "Formison", "Hexofen", "Imnudorm", "Meparfynol", "Methylparafynol", "3-Methylpent-1-yn-3-ol", "Oblivon", "Pentadorm", "Pentinol", "Perlopal", "Riposon", "Seral", "Somnesin", "Methylpentynol", "3-Hydroxy-3-methyl-1-pentyne", "3-Methyl-4-pentyn-3-ol", "3-Methyl-1-pentyne-3-ol", "\u03b1-Ethyl-\u03b1-methylpropargyl alcohol", "Pentydorm", "Melpintol", "Citodorm", "Sedapercut", "Ethynylethylmethylcarbinol", "Olfine P", "(\u00b1)-3-Methylpent-1-yn-3-ol", "Dormalest", "Hesofen", "Atemorin", "Dorison", "Dalgol", "Anti-stress", "NSC 28797", "NSC 975"], "SMILES": "C(CC)(C#C)(C)O", "physical_data": {"Molecular Weight": "98.14", "Molecular Formula": "C6H10O", "Boiling Point": "120.5 \u00b0C", "Melting Point": "30.5 \u00b0C", "Density": "0.869 g/cm\u00b3 @ Temp: 19 \u00b0C"}}