{"cas_no": "77-77-0", "cn_name": "\u4e59\u70ef\u781c", "en_name": ["Divinyl sulfone", "Ethene, 1,1\u2032-sulfonylbis-", "Vinyl sulfone", "1,1\u2032-Sulfonylbis[ethene]", "Divinyl sulfone", "Bis(ethenyl)sulfone", "NSC 133793", "NSC 18590", "NSC 57304", "Ethenylsulfonylethene", "1-Vinylsulfonylethylene", "Vinylsulfonylethene", "(Ethenesulfonyl)ethene", "V 3700 (crosslinker)"], "SMILES": "S(C=C)(C=C)(=O)=O", "physical_data": {"Molecular Weight": "118.15", "Molecular Formula": "C4H6O2S", "Boiling Point": "234.5 \u00b0C", "Melting Point": "-26 \u00b0C", "Density": "1.177 g/cm\u00b3 @ Temp: 25 \u00b0C"}}