{"cas_no": "77-73-6", "cn_name": "\u53cc\u73af\u620a\u4e8c\u70ef", "en_name": ["Dicyclopentadiene", "4,7-Methano-1H-indene, 3a,4,7,7a-tetrahydro-", "4,7-Methanoindene, 3a,4,7,7a-tetrahydro-", "3a,4,7,7a-Tetrahydro-4,7-methano-1H-indene", "Bicyclopentadiene", "Biscyclopentadiene", "3a,4,7,7a-Tetrahydro-4,7-methanoindene", "Dicyclopentadiene", "Cyclopentadiene dimer", "Tricyclo[5.2.1.02,6]deca-3,8-diene", "NSC 7352", "DCPD 103", "Tricyclo[4.3.1.02,5]deca-3,7-diene", "Prometa XP 100", "Ultrene", "Tricyclodecadiene", "DCPD", "Ultrene 99", "Ultrene DCPD", "Tricyclo[4.3.0.12,5]deca-3,7-diene", "3a,4,7,7a-Tetrahydro-4,7-methanoindene", "Ultrene 97", "Ultrene 99X", "Ultrene 99-6", "KDCPD 130"], "SMILES": "C12C(C3CC1C=C3)C=CC2", "physical_data": {"Molecular Weight": "132.20", "Molecular Formula": "C10H12", "Boiling Point": "64-65 \u00b0C @ Press: 14 Torr", "Melting Point": "32 \u00b0C", "Density": "0.9302 g/cm\u00b3 @ Temp: 35 \u00b0C"}}