{"cas_no": "77-79-2", "cn_name": "3-\u73af\u4e01\u70ef\u781c", "en_name": ["3-Sulfolene", "Thiophene, 2,5-dihydro-, 1,1-dioxide", "2,5-Dihydrothiophene 1,1-dioxide", "3-Sulfolene", "2,5-Dihydrothiophene sulfone", "2,5-Dihydrothiophene dioxide", "\u03b2-Sulfolene", "2,5-Dihydrothiophene S,S-dioxide", "Sulfolene", "Sulpholene", "NSC 48532", "NSC 56373", "2,5-Dihydrothiophen-1,1-dioxide", "Butadiene sulfone", "2,5-Dihydro-1\u03bb6-thiophene-1,1-dione"], "SMILES": "O=S1(=O)CC=CC1", "physical_data": {"Molecular Weight": "118.15", "Molecular Formula": "C4H6O2S", "Boiling Point": "149.5-150 \u00b0C @ Press: 15 Torr", "Melting Point": "64-65.5 \u00b0C"}}