{"cas_no": "77-74-7", "cn_name": "3-\u7532\u57fa-3-\u620a\u9187", "en_name": ["3-Methyl-3-pentanol", "3-Pentanol, 3-methyl-", "3-Methyl-3-pentanol", "3-Hydroxy-3-methylpentane", "1-Ethyl-1-methyl-1-propanol", "3-Methyl-3-pentyl alcohol", "2-Ethyl-2-butanol", "NSC 75837"], "SMILES": "C(CC)(CC)(C)O", "physical_data": {"Molecular Weight": "102.17", "Molecular Formula": "C6H14O", "Boiling Point": "122.4 \u00b0C", "Melting Point": "-23.6 \u00b0C", "Density": "0.8452 g/cm\u00b3 @ Temp: 0 \u00b0C"}}