{"cas_no": "77-71-4", "cn_name": "5,5-\u4e8c\u7532\u57fa\u6d77\u56e0", "en_name": ["Dimethylhydantoin", "2,4-Imidazolidinedione, 5,5-dimethyl-", "Hydantoin, 5,5-dimethyl-", "5,5-Dimethyl-2,4-imidazolidinedione", "5,5-Dimethylhydantoin", "Dimethylhydantoin", "DM Hydantoin", "Dantoin DMH", "DMH", "Dantoin 736", "4,4-Dimethyl-2,5-dioxoimidazolidine", "NSC 8652", "Fennosurf 300"], "SMILES": "CC1(C)C(=O)NC(=O)N1", "physical_data": {"Molecular Weight": "128.13", "Molecular Formula": "C5H8N2O2", "Melting Point": "178 \u00b0C", "Density": "1.261 g/cm\u00b3"}}