{"cas_no": "77-83-8", "cn_name": "\u6768\u6885\u919b", "en_name": ["Ethyl 3-methyl-3-phenylglycidate", "2-Oxiranecarboxylic acid, 3-methyl-3-phenyl-, ethyl ester", "Hydrocinnamic acid, \u03b1,\u03b2-epoxy-\u03b2-methyl-, ethyl ester", "Oxiranecarboxylic acid, 3-methyl-3-phenyl-, ethyl ester", "Aldehyde C16", "Ethyl \u03b1,\u03b2-epoxy-\u03b2-methylhydrocinnamate", "Ethyl methylphenylglycidate", "Fraeseol", "3-Methyl-3-phenylglycidic acid ethyl ester", "Strawberry aldehyde", "Ethyl 3-methyl-3-phenylglycidate", "NSC 27905", "Ethyl 3-methyl-3-phenyloxirane-2-carboxylate", "FRAISE PURE"], "SMILES": "CC1(C(C(OCC)=O)O1)C2=CC=CC=C2", "physical_data": {"Molecular Weight": "206.24", "Molecular Formula": "C12H14O3", "Boiling Point": "272-275 \u00b0C", "Density": "1.0442 g/cm\u00b3 @ Temp: 20 \u00b0C"}}