{"cas_no": "77-86-1", "cn_name": "\u4e09\u7f9f\u7532\u57fa\u6c28\u57fa\u7532\u70f7", "en_name": ["Tris(hydroxymethyl)aminomethane", "1,3-Propanediol, 2-amino-2-(hydroxymethyl)-", "2-Amino-2-(hydroxymethyl)-1,3-propanediol", "2-Amino-2-(hydroxymethyl)propane-1,3-diol", "Aminotris(hydroxymethyl)methane", "Talatrol", "THAM", "Trimethylolaminomethane", "Tris", "Trisamine", "Tris buffer", "Tris(hydroxymethyl)methylamine", "Trizma", "Trometamol", "Tromethamine", "2-Amino-2-methylol-1,3-propanediol", "Tris(hydroxymethyl)aminomethane", "Methanamine, 1,1,1-tris(hydroxymethyl)-", "Aminotrimethylolmethane", "Trometamole", "Tromethane", "Tris Amino", "Tris-steril", "Tris(hydroxymethyl)methanamine", "Pehanorm", "Tutofusin tris", "Trisamin", "Tromethanmin", "Addex-Tham", "Trisaminol", "Tris (buffering agent)", "Triladyl", "Tris(methylolamino)methane", "Trigmo base", "TAM", "Aminotri(hydroxymethyl)methane", "Tris Amino Crystal", "TAM (buffering agent)", "NSC 103026", "NSC 6365", "NSC 65434", "Tri(hydroxymethyl)methylamine", "Tri Amino", "2-Amino-1,3-dihydroxy-2-(hydroxymethyl)propane", "2-Amino-2-hydroxymethylpropan-1,3-diol", "[2-Hydroxy-1,1-bis(hydroxymethyl)ethyl]amine", "Tris base", "Tri(hydroxymethyl)aminomethane", "Trizma Base", "Ricrolin TE", "A 0321", "2-Amino-2-(hydroxymethyl)propanediol", "1,3-Dihydroxy-2-(hydroxymethyl)propan-2-amine", "Tris Amino Ultra PC (J) tromethamine", "Tris Amino Ultra", "Toris Amino Ultra PC", "T 1503", "MeSH ID: D014325"], "SMILES": "C(CO)(CO)(CO)N", "physical_data": {"Molecular Weight": "121.14", "Molecular Formula": "C4H11NO3", "Boiling Point": "219-220 \u00b0C @ Press: 10 Torr", "Melting Point": "171-172 \u00b0C", "Density": "0.6181 g/cm\u00b3 @ Temp: 25 \u00b0C"}}