{"cas_no": "77-84-9", "cn_name": "2-\u4e59\u57fa-2-\u7532\u57fa-1,3-\u4e19\u4e8c\u9187", "en_name": ["2-Ethyl-2-methyl-1,3-propanediol", "1,3-Propanediol, 2-ethyl-2-methyl-", "2-Ethyl-2-methyl-1,3-propanediol", "2-Methyl-2-ethyl-1,3-propanediol", "NSC 35408", "2,2-Dimethylol butane"], "SMILES": "C(CC)(CO)(CO)C", "physical_data": {"Molecular Weight": "118.17", "Molecular Formula": "C6H14O2", "Boiling Point": "225.8 \u00b0C", "Melting Point": "40.3 \u00b0C"}}