{"cas_no": "77-85-0", "cn_name": "1,1,1-\u4e09(\u7f9f\u7532\u57fa)\u4e59\u70f7", "en_name": ["Trimethylolethane", "1,3-Propanediol, 2-(hydroxymethyl)-2-methyl-", "2-(Hydroxymethyl)-2-methyl-1,3-propanediol", "Ethane, 1,1,1-tris(hydroxymethyl)-", "Methyltrimethanolmethane", "Metriol", "TME", "Trimet", "Trimethylolethane", "1,1,1-Trimethylolethane", "1,1,1-Tris(hydroxymethyl)ethane", "2-Methyl-2-hydroxymethyl-1,3-propanediol", "1,1,1-Tris(methylol)ethane", "1,1,1-Trimethanolethane", "Methriol", "2,2-Di(hydroxymethyl)propanol", "Pentaglycerine", "2,2-Bis(hydroxymethyl)-1-propanol", "NSC 65581", "1,1,1-Tris(hydroxylmethyl)ethane", "2-Hydroxymethylene-2-methyl-1,3-propanediol", "2-Hydroxymethyl-2-methylpropan-1,3-diol", "Isopentanetriol", "2-(Hydroxymethyl)-2-methyl-propanediol", "Lullaby DMK 030"], "SMILES": "C(CO)(CO)(CO)C", "physical_data": {"Molecular Weight": "120.15", "Molecular Formula": "C5H12O3", "Boiling Point": "137 \u00b0C @ Press: 15 Torr", "Melting Point": "204 \u00b0C", "Density": "1.498 g/cm\u00b3 @ Temp: 25 \u00b0C"}}