{"cas_no": "77-89-4", "cn_name": "\u4e59\u9170\u67e0\u6aac\u9178\u4e09\u4e59\u916f", "en_name": ["Acetyl triethyl citrate", "1,2,3-Propanetricarboxylic acid, 2-(acetyloxy)-, 1,2,3-triethyl ester", "Citric acid, triethyl ester, acetate", "1,2,3-Propanetricarboxylic acid, 2-(acetyloxy)-, triethyl ester", "Acetyl triethyl citrate", "Triethyl acetylcitrate", "Triethyl citrate acetate", "Triethyl 2-acetoxy-1,2,3-propanetricarboxylate", "Citroflex A 2", "ATEC", "NSC 3887", "Citrofol AII", "Morflex ATEC", "Citrofol A 2"], "SMILES": "C(CC(OCC)=O)(CC(OCC)=O)(C(OCC)=O)OC(C)=O", "physical_data": {"Molecular Weight": "318.32", "Molecular Formula": "C14H22O8", "Boiling Point": "92-93 \u00b0C @ Press: 0.045 Torr"}}