{"cas_no": "77-94-1", "cn_name": "\u67e0\u6aac\u9178\u4e09\u4e01\u916f", "en_name": ["Tributyl citrate", "1,2,3-Propanetricarboxylic acid, 2-hydroxy-, 1,2,3-tributyl ester", "Citric acid, tributyl ester", "1,2,3-Propanetricarboxylic acid, 2-hydroxy-, tributyl ester", "Citroflex 4", "Tributyl citrate", "Tri-n-butyl citrate", "Butyl citrate", "2-Hydroxy-1,2,3-propanetricarboxylic acid tributyl ester", "Citroflex C 4", "NSC 8491", "Morflex TBC", "Citrofol BI", "Citrofol B 1", "Scandinol SP 21", "Uniplex 83", "TBC", "BN 63", "LM 30 (ester)", "LM 30"], "SMILES": "C(CC(OCCCC)=O)(CC(OCCCC)=O)(C(OCCCC)=O)O", "physical_data": {"Molecular Weight": "360.44", "Molecular Formula": "C18H32O7", "Boiling Point": "170-180 \u00b0C @ Press: 11 Torr", "Melting Point": "-20 \u00b0C"}}