{"cas_no": "77-99-6", "cn_name": "\u4e09\u7f9f\u7532\u57fa\u4e19\u70f7", "en_name": ["Trimethylolpropane", "1,3-Propanediol, 2-ethyl-2-(hydroxymethyl)-", "2-Ethyl-2-(hydroxymethyl)-1,3-propanediol", "Ethyltrimethylolmethane", "Propane, 1,1,1-tris(hydroxymethyl)-", "TMP", "1,1,1-Trimethylolpropane", "1,1,1-Tris(hydroxymethyl)propane", "2-Ethyl-2-(hydroxymethyl)propanediol", "Ettriol", "Trimethylolpropane", "Tris(hydroxymethyl)propane", "2,2-Bis(hydroxymethyl)-1-butanol", "Ethriol", "TMP (alcohol)", "1,1,1-Tri(hydroxymethyl)propane", "RC Crosslinker TR", "NSC 3576", "Addolink TR", "2-(Hydroxymethyl)-2-ethyl-1,3-propanediol", "T 0480", "2-Ethyl-2-hydroxymethyl-1,3-propandiol", "2,2-Bis(hydroxymethyl)butanol", "9U02", "G 36"], "SMILES": "C(CC)(CO)(CO)CO", "physical_data": {"Molecular Weight": "134.17", "Molecular Formula": "C6H14O3", "Boiling Point": "160 \u00b0C @ Press: 5 Torr", "Melting Point": "58 \u00b0C"}}