{"cas_no": "77-91-8", "cn_name": "\u67e0\u6aac\u9178\u4e8c\u6c22\u80c6\u78b1", "en_name": ["Choline dihydrogen citrate", "Ethanaminium, 2-hydroxy-N,N,N-trimethyl-, 2-hydroxy-1,2,3-propanetricarboxylate (1:1)", "Choline, citrate (1:1) (salt)", "Ethanaminium, 2-hydroxy-N,N,N-trimethyl-, salt with 2-hydroxy-1,2,3-propanetricarboxylic acid (1:1)", "Choline, citrate", "Citric acid, ion(1-), choline", "1,2,3-Propanetricarboxylic acid, 2-hydroxy-, ion(1-), 2-hydroxy-N,N,N-trimethylethanaminium", "Cholex", "Choline dihydrogen citrate", "Chothyn", "Cirrocolina", "Citracholine", "Citrocholine", "Neurotropan", "2-Hydroxyethyltrimethylammonium dihydrogen citrate", "Delichol", "Cholinvel", "Citracholin", "Citrocol", "Colicitrin"], "SMILES": "C([N+](C)(C)C)CO.C(CC([O-])=O)(CC(O)=O)(C(O)=O)O", "physical_data": {"Molecular Weight": "", "Molecular Formula": "C6H7O7.C5H14NO", "Melting Point": "106 \u00b0C"}}