{"cas_no": "77-90-7", "cn_name": "\u4e59\u9170\u67e0\u6aac\u9178\u4e09\u4e01\u916f", "en_name": ["Acetyl tributyl citrate", "1,2,3-Propanetricarboxylic acid, 2-(acetyloxy)-, 1,2,3-tributyl ester", "Citric acid, tributyl ester, acetate", "1,2,3-Propanetricarboxylic acid, 2-(acetyloxy)-, tributyl ester", "2-Acetoxy-1,2,3-propanetricarboxylic acid tributyl ester", "Acetyl tributyl citrate", "Citroflex A 4", "Tributyl 2-acetoxy-1,2,3-propanetricarboxylate", "Citroflex A", "Tributyl acetylcitrate", "Tributyl citrate acetate", "Tributyl 2-(acetyloxy)-1,2,3-propanetricarboxylic acid", "Tributyl O-acetylcitrate", "Blo-trol", "Acetylcitric acid tributyl ester", "Acetyl butyl citrate", "ATBC", "Estaflex ATC", "Citroflex 4A-S", "Sansocizer ATBC", "NSC 3894", "Monocizer ATBC", "Morflex ATBC", "Citrofol BII", "Acetyl tris-n-butyl citrate", "Pacizer 6412", "Tributyl 2-acetyl citrate", "Scandinol SP 22", "Acetyl tri-n-butyl citrate", "Kanatol 3400AC", "ADK Cizer PN 6810", "Citrofol B 2", "LC 18", "LC 18 (plasticizer)", "FF 454", "Proviplast 2624", "Plasticizer 40T", "SP 22S", "SP-22 S"], "SMILES": "C(CC(OCCCC)=O)(CC(OCCCC)=O)(C(OCCCC)=O)OC(C)=O", "physical_data": {"Molecular Weight": "402.48", "Molecular Formula": "C20H34O8", "Boiling Point": "172-174 \u00b0C @ Press: 1 Torr", "Melting Point": "-80 \u00b0C", "Density": "1.046 g/cm\u00b3 @ Temp: 25 \u00b0C"}}