{"cas_no": "77-93-0", "cn_name": "\u67e0\u6aac\u9178\u4e09\u4e59\u916f", "en_name": ["Triethyl citrate", "1,2,3-Propanetricarboxylic acid, 2-hydroxy-, 1,2,3-triethyl ester", "Citric acid, triethyl ester", "1,2,3-Propanetricarboxylic acid, 2-hydroxy-, triethyl ester", "Citroflex 2", "Ethyl citrate", "Triethyl citrate", "Hydragen CAT", "Eudraflex", "Citroflex C 2", "Citroflex EC", "NSC 8907", "Morflex C 2", "Citrofol AI", "Citroflex SC 60", "Morflex TEC", "Naugalube 810", "Triethyl 2-hydroxypropane-1,2,3-tricarboxylate", "Citroflex 2SC60", "Dermofeel TEC Eco"], "SMILES": "C(CC(OCC)=O)(CC(OCC)=O)(C(OCC)=O)O", "physical_data": {"Molecular Weight": "276.28", "Molecular Formula": "C12H20O7", "Boiling Point": "294 \u00b0C", "Melting Point": "-55 \u00b0C", "Density": "1.1369 g/cm\u00b3 @ Temp: 20 \u00b0C"}}