{"cas_no": "77-95-2", "cn_name": "\u53f3\u65cb\u594e\u5b81\u9178", "en_name": ["(-)-Quinic acid", "Cyclohexanecarboxylic acid, 1,3,4,5-tetrahydroxy-, (1\u03b1,3R,4\u03b1,5R)-", "Cyclohexanecarboxylic acid, 1,3,4,5-tetrahydroxy-, (-)-", "Cyclohexanecarboxylic acid, 1,3,4,5-tetrahydroxy-, [1R-(1\u03b1,3\u03b1,4\u03b1,5\u03b2)]-", "(1\u03b1,3R,4\u03b1,5R)-1,3,4,5-Tetrahydroxycyclohexanecarboxylic acid", "D-Quinic acid", "(-)-Quinic acid", "D-(-)-Quinic acid", "Quinic acid", "Quinic acid, (-)-", "MeSH ID: D011801"], "SMILES": "C(O)(=O)C1(O)CC(O)C(O)C(O)C1", "physical_data": {"Molecular Weight": "192.17", "Molecular Formula": "C7H12O6", "Melting Point": "162.5 \u00b0C"}}