{"cas_no": "77-92-9", "cn_name": "\u67e0\u6aac\u9178", "en_name": ["Citric acid", "1,2,3-Propanetricarboxylic acid, 2-hydroxy-", "Citric acid", "2-Hydroxy-1,2,3-propanetricarboxylic acid", "Aciletten", "Citretten", "Citro", "Hydrocerol A", "Chemfill", "3-Carboxy-3-hydroxypentane-1,5-dioic acid", "F 0001 (polycarboxylic acid)", "Uro-trainer", "E 330", "Suby G", "NSC 112226", "NSC 30279", "NSC 626579", "Celenex 3P6", "2-Hydroxy-1,2,3-propanetricarboxyic acid", "2-Hydroxypropan-1,2,3-tricarboxylic acid", "INS 330", "FE 2", "F 4020", "Grindsted Pro Tex TR 100", "Citric acid monoglyceride", "Monoglyceride citrate", "Jet Setter", "EL 4", "EL 4 (polycarboxylic acid)", "Cellborn SC-C", "KK 120", "BioLink Acidifier", "TBA 80", "PAS 33", "8: PN: WO2017048620 SEQID: 13 claimed sequence", "F 3500", "C 1949", "3-Hydroxy-3-carboxy-1,5-pentanedioic acid", "3-Hydroxy-pentane-1,3-5-trioic acid", "3-Carboxy-3-hydroxy-pentanedioic acid", "Liquinat L 50", "SH 74", "EMPROVE Essential Ph Eur, BP,JP,USP, E 330, FCC", "MeSH ID: D019343"], "SMILES": "C(CC(O)=O)(CC(O)=O)(C(O)=O)O", "physical_data": {"Molecular Weight": "192.12", "Molecular Formula": "C6H8O7", "Boiling Point": "142-143 \u00b0C", "Melting Point": "153 \u00b0C", "Density": "1.665 g/cm\u00b3 @ Temp: 20 \u00b0C"}}