{"cas_no": "770-71-8", "cn_name": "1-\u91d1\u521a\u70f7\u7532\u9187", "en_name": ["Tricyclo[3.3.1.13,7]decane-1-methanol", "Tricyclo[3.3.1.13,7]decane-1-methanol", "1-Adamantanemethanol", "1-(Hydroxymethyl)adamantane", "3-(Hydroxymethyl)adamantane", "1-Adamantylmethanol", "1-Adamantylcarbinol", "(Adamantan-1-yl)methanol", "(1s,3s)-Adamantan-1-ylmethanol"], "SMILES": "C(O)C12CC3CC(C1)CC(C2)C3", "physical_data": {"Molecular Weight": "166.26", "Molecular Formula": "C11H18O", "Melting Point": "115 \u00b0C"}}