{"cas_no": "770-10-5", "cn_name": "\u82c4\u57fa\u4e09\u6c2f\u7845\u70f7", "en_name": ["[(Trichlorosilyl)methyl]benzene", "Benzene, [(trichlorosilyl)methyl]-", "Silane, benzyltrichloro-", "Silane, trichloro(phenylmethyl)-", "[(Trichlorosilyl)methyl]benzene", "Benzyltrichlorosilane"], "SMILES": "C([Si](Cl)(Cl)Cl)C1=CC=CC=C1", "physical_data": {"Molecular Weight": "225.57", "Molecular Formula": "C7H7Cl3Si", "Boiling Point": "140-142 \u00b0C @ Press: 10 Torr", "Density": "1.288 g/cm\u00b3"}}