{"cas_no": "770-12-7", "cn_name": "\u4e8c\u6c2f\u78f7\u9178\u82ef\u916f", "en_name": ["Phosphorodichloridic acid, phenyl ester", "Phosphorodichloridic acid, phenyl ester", "Phenyl phosphorodichloridate", "Phenylphosphoric dichloride", "Phenoxydichlorophosphine oxide", "Phenyl dichlorophosphate", "Dichlorophenoxyphosphine oxide", "Phenoxyphosphoryl dichloride", "Phenyl dichlorophosphinate", "NSC 44412"], "SMILES": "O(P(Cl)(Cl)=O)C1=CC=CC=C1", "physical_data": {"Molecular Weight": "210.98", "Molecular Formula": "C6H5Cl2O2P", "Boiling Point": "242 \u00b0C", "Density": "1.4145 g/cm\u00b3 @ Temp: 20 \u00b0C"}}