{"cas_no": "770-09-2", "cn_name": "\u82c4\u57fa\u4e09\u7532\u57fa\u7845\u70f7", "en_name": ["Benzyltrimethylsilane", "Benzene, [(trimethylsilyl)methyl]-", "Silane, benzyltrimethyl-", "Silane, trimethyl(phenylmethyl)-", "[(Trimethylsilyl)methyl]benzene", "Benzyltrimethylsilane", "\u03b1-Trimethylsilyltoluene", "Trimethylbenzylsilane", "(Trimethylsilyl)phenylmethane", "Trimethyl(phenylmethyl)silane", "NSC 107", "(Phenylmethyl)trimethylsilane"], "SMILES": "C([Si](C)(C)C)C1=CC=CC=C1", "physical_data": {"Molecular Weight": "164.32", "Molecular Formula": "C10H16Si", "Boiling Point": "190.5 \u00b0C", "Density": "0.893 g/cm\u00b3"}}