{"cas_no": "770-05-8", "cn_name": "\u7ae0\u80fa\u76d0\u9178\u76d0", "en_name": ["(\u00b1)-Octopamine hydrochloride", "Benzenemethanol, \u03b1-(aminomethyl)-4-hydroxy-, hydrochloride (1:1)", "Benzyl alcohol, \u03b1-(aminomethyl)-p-hydroxy-, hydrochloride, (\u00b1)-", "Benzenemethanol, \u03b1-(aminomethyl)-4-hydroxy-, hydrochloride, (\u00b1)-", "Benzenemethanol, \u03b1-(aminomethyl)-4-hydroxy-, hydrochloride", "dl-Octopamine hydrochloride", "(\u00b1)-Octopamine hydrochloride", "DL-2-Amino-1-(4-hydroxyphenyl)ethanol hydrochloride", "DL-Octopamine hydrochloride", "(\u00b1)-p-Octopamaine hydrochloride", "Octopamine hydrochloride", "2-Amino-1-(4-hydroxyphenyl)ethanol hydrochloride", "Epirenor", "Norfen", "NSC 108685", "4-(2-Amino-1-hydroxyethyl)phenol hydrochloride", "M 790"], "SMILES": "C(CN)(O)C1=CC=C(O)C=C1.Cl", "physical_data": {"Molecular Weight": "", "Molecular Formula": "C8H11NO2.ClH", "Melting Point": "170 \u00b0C (decomp)"}}