{"cas_no": "770-40-1", "cn_name": "N-\u5f02\u4e19\u57fa\u5bf9\u6c2f\u82ef\u80fa", "en_name": ["4-Chloro-N-isopropylaniline", "Benzenamine, 4-chloro-N-(1-methylethyl)-", "Aniline, p-chloro-N-isopropyl-", "4-Chloro-N-(1-methylethyl)benzenamine", "4-Chloro-N-isopropylaniline", "N-Isopropyl-4-chloroaniline", "p-Chloro-N-isopropylaniline", "N-Isopropyl-p-chloroaniline"], "SMILES": "N(C(C)C)C1=CC=C(Cl)C=C1", "physical_data": {"Molecular Weight": "169.65", "Molecular Formula": "C9H12ClN", "Boiling Point": "100 \u00b0C @ Press: 5 Torr", "Melting Point": "8-9 \u00b0C"}}