{"cas_no": "770-08-1", "cn_name": "5-\u4e59\u57fa\u5421\u5576-2-\u7fa7\u9178", "en_name": ["5-Ethylpicolinic acid", "2-Pyridinecarboxylic acid, 5-ethyl-", "Picolinic acid, 5-ethyl-", "5-Ethyl-2-pyridinecarboxylic acid", "5-Ethylpicolinic acid", "5-Ethyl-2-picolinic acid"], "SMILES": "C(O)(=O)C1=CC=C(CC)C=N1", "physical_data": {"Molecular Weight": "151.16", "Molecular Formula": "C8H9NO2", "Melting Point": "110 \u00b0C"}}