{"cas_no": "770-35-4", "cn_name": "1-\u82ef\u6c27\u57fa-2-\u4e19\u9187", "en_name": ["1-Phenoxy-2-propanol", "2-Propanol, 1-phenoxy-", "1-Phenoxy-2-propanol", "Propylene phenoxetol", "2-Phenoxy-1-methylethanol", "Phenoxyisopropanol", "\u03b2-Phenoxyisopropanol", "(\u00b1)-1-Phenoxy-2-propanol", "rac-1-Phenoxy-2-propanol", "NSC 24015", "2-Hydroxypropyl phenyl ether"], "SMILES": "O(CC(C)O)C1=CC=CC=C1", "physical_data": {"Molecular Weight": "152.19", "Molecular Formula": "C9H12O2", "Boiling Point": "242.7 \u00b0C", "Melting Point": "&lt;25 \u00b0C", "Density": "1.0622 g/cm\u00b3 @ Temp: 20 \u00b0C"}}