{"cas_no": "770-39-8", "cn_name": "4-\u7f9f\u57fa\u82ef\u57fa\u4e19\u916e", "en_name": ["4-Hydroxyphenylacetone", "2-Propanone, 1-(4-hydroxyphenyl)-", "2-Propanone, 1-(p-hydroxyphenyl)-", "2-Propanone, (p-hydroxyphenyl)-", "1-(4-Hydroxyphenyl)-2-propanone", "p-Hydroxyphenylacetone", "4-Hydroxyphenylacetone", "p-Hydroxyphenyl-2-propanone", "4-Hydroxyphenyl-2-propanone", "1-(p-Hydroxyphenyl)-2-propanone", "4-Hydroxybenzyl methyl ketone", "1-(4-Hydroxyphenyl)acetone", "4-Acetonylphenol"], "SMILES": "C(C(C)=O)C1=CC=C(O)C=C1", "physical_data": {"Molecular Weight": "150.17", "Molecular Formula": "C9H10O2", "Boiling Point": "130-150 \u00b0C @ Press: 0.5 Torr", "Melting Point": "35.5 \u00b0C", "Density": "1.1159 g/cm\u00b3 @ Temp: 20 \u00b0C"}}