{"cas_no": "7700-17-6", "cn_name": "\u5df4\u6bd2\u78f7", "en_name": ["Crotoxyphos", "2-Butenoic acid, 3-[(dimethoxyphosphinyl)oxy]-, 1-phenylethyl ester, (2E)-", "Crotonic acid, 3-hydroxy-, \u03b1-methylbenzyl ester, dimethyl phosphate, (E)-", "2-Butenoic acid, 3-[(dimethoxyphosphinyl)oxy]-, 1-phenylethyl ester, (E)-", "Ciodrin", "SD 4294", "Crotoxyphos", "3-Hydroxycrotonic acid \u03b1-methylbenzyl ester dimethyl phosphate", "O,O-Dimethyl O-[1-methyl-2-(1-phenylcarbethoxy)vinyl] phosphate", "Dimethyl 2-(\u03b1-methylbenzyloxycarbonyl)-1-methylvinyl phosphate", "Cyodrin", "Volfazol", "Pantozol 1", "trans-Crotoxyphos", "Crotoxyfos"], "SMILES": "C(OC(C=C(OP(OC)(OC)=O)C)=O)(C)C1=CC=CC=C1", "physical_data": {"Molecular Weight": "314.27", "Molecular Formula": "C14H19O6P", "Boiling Point": "135 \u00b0C @ Press: 0.03 Torr", "Density": "1.19 g/cm\u00b3 @ Temp: 25 \u00b0C"}}