{"cas_no": "77017-20-0", "cn_name": "\u5e03\u5730\u5948\u5fb7\u6742\u8d2812", "en_name": ["(16\u03b1)-21-(Acetyloxy)-16,17-dihydroxypregna-1,4,9(11)-triene-3,20-dione", "Pregna-1,4,9(11)-triene-3,20-dione, 21-(acetyloxy)-16,17-dihydroxy-, (16\u03b1)-", "Pregna-1,4,9(11)-triene-3,20-dione, 16\u03b1,17,21-trihydroxy-, 21-acetate", "(16\u03b1)-21-(Acetyloxy)-16,17-dihydroxypregna-1,4,9(11)-triene-3,20-dione", "(16a)-21-Acetyloxy-16,17-dihydroxy-pregna-1,4,9(11)-triene-3,20-dione"], "SMILES": "CC12C(C3C(=CC1)C4(C)C(CC3)=CC(=O)C=C4)CC(O)C2(C(COC(C)=O)=O)O", "physical_data": {"Molecular Weight": "400.46", "Molecular Formula": "C23H28O6", "Melting Point": "213-215 \u00b0C"}}