{"cas_no": "77029-83-5", "cn_name": "\u7af9\u7ea2\u83cc\u7532\u7d20", "en_name": ["Hypocrellin A", "1H-Cyclohepta[ghi]perylene-5,12-dione, 1-acetyl-2,3-dihydro-2,6,11-trihydroxy-4,8,9,13-tetramethoxy-2-methyl-, stereoisomer", "stereoisomer of 1-acetyl-2,3-dihydro-2,6,11-trihydroxy-4,8,9,13-tetramethoxy-2-methyl-1H-cyclohepta[ghi]perylene-5,12-dione", "Hypocrellin A", "Hypocrellin", "(1R,2S,P)-Hypocrellin A", "[P(S),14S,15R]-Hypocrellin A"], "SMILES": "O(C)C1=C2C=3C4=C5C(=C6C3C(C1=O)=C(O)C=C6OC)C(OC)=CC(O)=C5C(=O)C(OC)=C4CC(C)(O)C2C(C)=O", "physical_data": {"Molecular Weight": "546.52", "Molecular Formula": "C30H26O10", "Melting Point": "209-210 \u00b0C"}}