{"cas_no": "7704-67-8", "cn_name": "\u786b\u6c30\u9178\u7ea2\u9709\u7d20", "en_name": ["Erythromycin thiocyanate", "Erythromycin, thiocyanate (salt)", "Erythromycin thiocyanate", "Thiocyanic acid, compd. with erythromycin (1:1)", "Oxacyclotetradecane, erythromycin deriv.", "Gallimycin 10", "Gallimycin 50", "Erytrovet", "Pro-Gallimycin 10", "Bactenix V 300", "Erythrocin thiocyanate"], "SMILES": "O(C1C(C)C(OC2CC(OC)(C)C(O)C(C)O2)C(C)C(=O)OC(CC)C(C)(O)C(O)C(C)C(=O)C(C)CC1(C)O)C3C(O)C(N(C)C)CC(C)O3.C(#N)S", "physical_data": {"Molecular Weight": "", "Molecular Formula": "C37H67NO13.CHNS", "Melting Point": "166-167 \u00b0C"}}