{"cas_no": "7705-07-9", "cn_name": "\u4e09\u6c2f\u5316\u949b", "en_name": ["Titanium chloride (TiCl3)", "Titanium chloride (TiCl3)", "Titanium trichloride", "Titanous chloride", "Titanium(III) chloride", "Titanium chloride", "TAC 121", "Trichlorotitanium", "TAC 132", "TGY 24", "TAS 101", "TAC 140", "TAC 144", "Lynx 900", "TEN 12", "TOS 17", "MSK-TiCl3", "TAS 101 (inorganic compound)"], "SMILES": "[Ti](Cl)(Cl)Cl", "physical_data": {"Molecular Weight": "", "Molecular Formula": "Cl3Ti", "Melting Point": "150-208 \u00b0C"}}