{"cas_no": "7705-08-0", "cn_name": "\u4e09\u6c2f\u5316\u94c1", "en_name": ["Iron chloride (FeCl3)", "Iron chloride (FeCl3)", "Ferric chloride", "Flores martis", "Iron(III) chloride", "Iron perchloride", "Iron trichloride", "Ferric trichloride", "Iron chloride", "Clayfec", "Trifloc", "NSC 135798", "NSC 51150", "ViscoStat Plus", "Ferrisol Cl 130", "Riedel 12322", "FC-Pix", "Bellair green plus", "Danube clear classic", "Donau klar classic", "Clarfer", "PIX 311", "Kemira PIX-111"], "SMILES": "[Fe](Cl)(Cl)Cl", "physical_data": {"Molecular Weight": "", "Molecular Formula": "Cl3Fe", "Boiling Point": "~316 \u00b0C (approx)", "Melting Point": "~300 \u00b0C (approx)", "Density": "2.898 g/cm\u00b3 @ Temp: 25 \u00b0C"}}