{"cas_no": "7706-67-4", "cn_name": "\u5730\u7f8e\u7f57\u9178", "en_name": ["3-(2,4-Dimethoxyphenyl)-2-butenoic acid", "2-Butenoic acid, 3-(2,4-dimethoxyphenyl)-", "Cinnamic acid, 2,4-dimethoxy-\u03b2-methyl-", "3-(2,4-Dimethoxyphenyl)-2-butenoic acid", "Dimecrotic acid", "2,4-Dimethoxy-\u03b2-methylcinnamic acid", "3-(2,4-Dimethoxyphenyl)crotonic acid"], "SMILES": "C(=CC(O)=O)(C)C1=C(OC)C=C(OC)C=C1", "physical_data": {"Molecular Weight": "222.24", "Molecular Formula": "C12H14O4", "Melting Point": "149 \u00b0C"}}