{"cas_no": "77086-21-6", "cn_name": "\u5730\u4f50\u73af\u5e73", "en_name": ["Dizocilpine", "5H-Dibenzo[a,d]cyclohepten-5,10-imine, 10,11-dihydro-5-methyl-, (5S,10R)-", "5H-Dibenzo[a,d]cyclohepten-5,10-imine, 10,11-dihydro-5-methyl-, (5S)-", "(5S,10R)-10,11-Dihydro-5-methyl-5H-dibenzo[a,d]cyclohepten-5,10-imine", "Dizocilpine", "(+)-MK 801"], "SMILES": "CC12C=3C(C(N1)CC=4C2=CC=CC4)=CC=CC3", "physical_data": {"Molecular Weight": "221.30", "Molecular Formula": "C16H15N", "Melting Point": "68.75 \u00b0C"}}