{"cas_no": "77094-11-2", "cn_name": "2-\u6c28\u57fa-3,4-\u4e8c\u7532\u57fa-3H-\u54aa\u5511\u5e76\u55b9\u5549", "en_name": ["2-Amino-3,4-dimethylimidazo[4,5-f]quinoline", "3H-Imidazo[4,5-f]quinolin-2-amine, 3,4-dimethyl-", "3,4-Dimethyl-3H-imidazo[4,5-f]quinolin-2-amine", "2-Amino-3,4-dimethylimidazo[4,5-f]quinoline", "Methyl-IQ", "MeIQ", "2-Amino-3,4-dimethyl-3H-imidazo[4,5-f]quinoline"], "SMILES": "CC=1C2=C(C=3C(C1)=NC=CC3)N=C(N)N2C", "physical_data": {"Molecular Weight": "212.25", "Molecular Formula": "C12H12N4", "Melting Point": "295-297 \u00b0C"}}