{"cas_no": "771-56-2", "cn_name": "2,3,4,5,6-\u4e94\u6c1f\u7532\u82ef", "en_name": ["2,3,4,5,6-Pentafluorotoluene", "Benzene, 1,2,3,4,5-pentafluoro-6-methyl-", "Toluene, 2,3,4,5,6-pentafluoro-", "Benzene, pentafluoromethyl-", "1,2,3,4,5-Pentafluoro-6-methylbenzene", "2,3,4,5,6-Pentafluorotoluene", "Methylpentafluorobenzene", "NSC 88285", "Pentafluoro(methyl)benzene"], "SMILES": "CC1=C(F)C(F)=C(F)C(F)=C1F", "physical_data": {"Molecular Weight": "182.09", "Molecular Formula": "C7H3F5", "Boiling Point": "117.5 \u00b0C", "Melting Point": "-29.8 \u00b0C"}}