{"cas_no": "771-63-1", "cn_name": "2,3,5,6-\u56db\u6c1f\u5bf9\u82ef\u4e8c\u915a", "en_name": ["Tetrafluorohydroquinone", "1,4-Benzenediol, 2,3,5,6-tetrafluoro-", "Hydroquinone, tetrafluoro-", "2,3,5,6-Tetrafluoro-1,4-benzenediol", "Tetrafluoro-1,4-hydroquinone", "Tetrafluorohydroquinone", "Tetrafluoro-1,4-dihydroquinone", "2,3,5,6-Tetrafluorohydroquinone", "2,3,5,6-Tetrafluorobenzene-1,4-diol", "2,3,5,6-Tetrafluorodihydroquinone"], "SMILES": "FC1=C(F)C(O)=C(F)C(F)=C1O", "physical_data": {"Molecular Weight": "182.07", "Molecular Formula": "C6H2F4O2", "Melting Point": "166-167 \u00b0C"}}