{"cas_no": "771-99-3", "cn_name": "4-\u82ef\u57fa\u54cc\u5576", "en_name": ["4-Phenylpiperidine", "Piperidine, 4-phenyl-", "4-Phenylpiperidine", "NSC 89743"], "SMILES": "C1(=CC=CC=C1)C2CCNCC2", "physical_data": {"Molecular Weight": "161.24", "Molecular Formula": "C11H15N", "Boiling Point": "257 \u00b0C", "Melting Point": "60.5 \u00b0C"}}