{"cas_no": "771-50-6", "cn_name": "3-\u5432\u54da\u7532\u9178", "en_name": ["Indole-3-carboxylic acid", "1H-Indole-3-carboxylic acid", "Indole-3-carboxylic acid", "\u03b2-Indolylcarboxylic acid", "3-Indolylcarboxylic acid", "3-Carboxyindole", "3-Indoleformic acid", "Indole-\u03b2-carboxylic acid", "Indol-3-carboxylic acid"], "SMILES": "C(O)(=O)C=1C=2C(NC1)=CC=CC2", "physical_data": {"Molecular Weight": "161.16", "Molecular Formula": "C9H7NO2", "Melting Point": "206.5 \u00b0C"}}