{"cas_no": "771-98-2", "cn_name": "1-\u82ef\u57fa-1-\u73af\u5df1\u70ef", "en_name": ["1-Phenylcyclohexene", "Benzene, 1-cyclohexen-1-yl-", "Cyclohexene, 1-phenyl-", "1-Cyclohexen-1-ylbenzene", "1-Phenylcyclohexene", "1-Phenyl-1-cyclohexene", "2-Phenylcyclohexene", "Cyclohex-1-en-1-ylbenzene", "NSC 403862", "NSC 44834", "2,3,4,5-Tetrahydro-1,1\u2032-biphenyl"], "SMILES": "C=1(CCCCC1)C2=CC=CC=C2", "physical_data": {"Molecular Weight": "158.24", "Molecular Formula": "C12H14", "Boiling Point": "252 \u00b0C", "Melting Point": "-11 \u00b0C", "Density": "0.988 g/cm\u00b3 @ Temp: 20 \u00b0C"}}