{"cas_no": "771-61-9", "cn_name": "\u4e94\u6c1f\u82ef\u915a", "en_name": ["Pentafluorophenol", "Phenol, 2,3,4,5,6-pentafluoro-", "Phenol, pentafluoro-", "2,3,4,5,6-Pentafluorophenol", "Pentafluorophenol", "Hydroxypentafluorobenzene", "Perfluorophenol", "Pentafluorohydroxybenzene", "NSC 21627"], "SMILES": "FC1=C(F)C(F)=C(O)C(F)=C1F", "physical_data": {"Molecular Weight": "184.06", "Molecular Formula": "C6HF5O", "Boiling Point": "145.6 \u00b0C", "Melting Point": "32.8 \u00b0C"}}