{"cas_no": "771-60-8", "cn_name": "2,3,4,5,6-\u4e94\u6c1f\u82ef\u80fa", "en_name": ["Pentafluoroaniline", "Benzenamine, 2,3,4,5,6-pentafluoro-", "Aniline, 2,3,4,5,6-pentafluoro-", "2,3,4,5,6-Pentafluorobenzenamine", "2,3,4,5,6-Pentafluoroaniline", "Pentafluorophenylamine", "Pentafluoroaniline", "Aminopentafluorobenzene", "1-Amino-2,3,4,5,6-pentafluorobenzene", "NSC 88320"], "SMILES": "FC1=C(F)C(F)=C(N)C(F)=C1F", "physical_data": {"Molecular Weight": "183.08", "Molecular Formula": "C6H2F5N", "Boiling Point": "153 \u00b0C", "Melting Point": "35-36 \u00b0C"}}