{"cas_no": "771-51-7", "cn_name": "\u5432\u54da-3-\u4e59\u8148", "en_name": ["Indole-3-acetonitrile", "1H-Indole-3-acetonitrile", "Indole-3-acetonitrile", "3-Indolylacetonitrile", "Indoleacetonitrile", "Indolylacetonitrile", "3-(Cyanomethyl)indole", "IAN", "3-Cyanomethyl-1H-indole", "NSC 523272", "(1H-Indol-3-yl)acetonitrile", "2-(1H-Indol-3-yl)acetonitrile"], "SMILES": "C(C#N)C=1C=2C(NC1)=CC=CC2", "physical_data": {"Molecular Weight": "156.18", "Molecular Formula": "C10H8N2", "Boiling Point": "160 \u00b0C @ Press: 0.2 Torr", "Melting Point": "34.5-36.0 \u00b0C"}}