{"cas_no": "771-62-0", "cn_name": "\u4e94\u6c1f\u786b\u915a", "en_name": ["Pentafluorobenzenethiol", "Benzenethiol, 2,3,4,5,6-pentafluoro-", "Benzenethiol, pentafluoro-", "2,3,4,5,6-Pentafluorobenzenethiol", "Pentafluorothiophenol", "Pentafluorobenzenethiol", "2,3,4,5,6-Pentafluorothiophenol", "Perfluorothiophenol", "Mercapto(pentafluoro)benzene", "(Pentafluorophenyl)thiol", "NSC 88286", "PFBT", "Pentafluorophenyl mercaptan", "P 0861"], "SMILES": "FC1=C(F)C(F)=C(S)C(F)=C1F", "physical_data": {"Molecular Weight": "200.13", "Molecular Formula": "C6HF5S", "Boiling Point": "143 \u00b0C", "Melting Point": "-24 \u00b0C"}}