{"cas_no": "771-69-7", "cn_name": "2,3,4-\u4e09\u6c1f\u785d\u57fa\u82ef", "en_name": ["1,2,3-Trifluoro-4-nitrobenzene", "Benzene, 1,2,3-trifluoro-4-nitro-", "1,2,3-Trifluoro-4-nitrobenzene", "2,3,4-Trifluoronitrobenzene", "4-Nitro-1,2,3-trifluorobenzene", "2,3,4-Trifluoro-1-nitrobenzene"], "SMILES": "N(=O)(=O)C1=C(F)C(F)=C(F)C=C1", "physical_data": {"Molecular Weight": "177.08", "Molecular Formula": "C6H2F3NO2", "Boiling Point": "92 \u00b0C @ Press: 20 Torr"}}