{"cas_no": "771-97-1", "cn_name": "2,3-\u4e8c\u6c28\u57fa\u8418", "en_name": ["2,3-Diaminonaphthalene", "2,3-Naphthalenediamine", "2,3-Diaminonaphthalene", "NSC 62692"], "SMILES": "NC1=CC2=C(C=C1N)C=CC=C2", "physical_data": {"Molecular Weight": "158.20", "Molecular Formula": "C10H10N2", "Melting Point": "199 \u00b0C"}}