{"cas_no": "77112-53-9", "cn_name": "\u54aa\u5511\u5e76[1,2-A]\u5421\u55ea-2-\u7532\u9178", "en_name": ["Imidazo[1,2-a]pyrazine-2-carboxylic acid", "Imidazo[1,2-a]pyrazine-2-carboxylic acid"], "SMILES": "C(O)(=O)C=1N=C2N(C1)C=CN=C2", "physical_data": {"Molecular Weight": "163.13", "Molecular Formula": "C7H5N3O2", "Melting Point": "280 \u00b0C (decomp)"}}