{"cas_no": "77117-48-7", "cn_name": "1H,1H,2H-\u5168\u6c1f-1-\u7678\u70f7", "en_name": ["Perfluorooctylethane", "Decane, 1,1,1,2,2,3,3,4,4,5,5,6,6,7,7,8,8-heptadecafluoro-", "1,1,1,2,2,3,3,4,4,5,5,6,6,7,7,8,8-Heptadecafluorodecane", "Perfluorooctylethane", "(Perfluoro-n-octyl)ethane"], "SMILES": "C(C(C(C(C(F)(F)F)(F)F)(F)F)(F)F)(C(C(C(CC)(F)F)(F)F)(F)F)(F)F", "physical_data": {"Molecular Weight": "448.12", "Molecular Formula": "C10H5F17", "Boiling Point": "155 \u00b0C", "Melting Point": "-37.7 \u00b0C"}}