{"cas_no": "77123-58-1", "cn_name": "2-[(\u4e09\u7532\u57fa\u7532\u7845\u70f7\u57fa)\u4e59\u7094\u57fa]\u82ef\u7532\u919b", "en_name": ["2-[2-(Trimethylsilyl)ethynyl]benzaldehyde", "Benzaldehyde, 2-[2-(trimethylsilyl)ethynyl]-", "Benzaldehyde, 2-[(trimethylsilyl)ethynyl]-", "2-[2-(Trimethylsilyl)ethynyl]benzaldehyde", "2-[(Trimethylsilyl)ethynyl]benzaldehyde", "2-Trimethylsilanylethynylbenzaldehyde"], "SMILES": "C(#C[Si](C)(C)C)C1=C(C=O)C=CC=C1", "physical_data": {"Molecular Weight": "202.32", "Molecular Formula": "C12H14OSi", "Boiling Point": "105 \u00b0C @ Press: 3 Torr", "Melting Point": "47-48 \u00b0C"}}