{"cas_no": "77123-56-9", "cn_name": "3-ETHYNYLBENZALDEHYDE", "en_name": ["3-Ethynylbenzaldehyde", "Benzaldehyde, 3-ethynyl-", "3-Ethynylbenzaldehyde", "m-Ethynylbenzaldehyde", "3-Formylphenylacetylene"], "SMILES": "C(#C)C1=CC(C=O)=CC=C1", "physical_data": {"Molecular Weight": "130.14", "Molecular Formula": "C9H6O", "Melting Point": "76-76.5 \u00b0C"}}