{"cas_no": "77128-70-2", "cn_name": "\u82b4\u7532\u6c27\u7fb0\u9170\u57fa\u808c\u6c28\u9178", "en_name": ["N-(9-Fluorenylmethoxycarbonyl)-N-methylglycine", "Glycine, N-[(9H-fluoren-9-ylmethoxy)carbonyl]-N-methyl-", "N-[(9H-Fluoren-9-ylmethoxy)carbonyl]-N-methylglycine", "N-(9-Fluorenylmethoxycarbonyl)-N-methylglycine", "990: PN: WO2006135786 PAGE: 71 claimed protein", "298: PN: US20070042401 PAGE: 38 claimed protein", "2-([[(9H-Fluoren-9-yl)methoxy]carbonyl](methyl)amino)acetic acid", "2-[9H-Fluoren-9-ylmethoxycarbonyl(methyl)amino]acetic acid", "2-[[(9H-Fluoren-9-ylmethoxy)carbonyl](methyl)amino]acetic acid", "Fmoc-NMeGly-OH"], "SMILES": "C(OC(N(CC(O)=O)C)=O)C1C=2C(C=3C1=CC=CC3)=CC=CC2", "physical_data": {"Molecular Weight": "311.33", "Molecular Formula": "C18H17NO4", "Melting Point": "118-120 \u00b0C"}}