{"cas_no": "7713-69-1", "cn_name": "N-\u7532\u57fa-2-\u4e01\u80fa", "en_name": ["N-Methyl-2-butanamine", "2-Butanamine, N-methyl-", "Propylamine, N,1-dimethyl-", "N-Methyl-2-butanamine", "N-Methyl-sec-butylamine", "N-Methyl-N-sec-butylamine", "N,1-Dimethylpropylamine", "N-Methyl-2-butylamine", "sec-Butylmethylamine", "2-(Methylamino)butane", "Methyl-sec-butylamine", "N-sec-Butyl-N-methylamine", "(Butan-2-yl)(methyl)amine"], "SMILES": "C(CC)(NC)C", "physical_data": {"Molecular Weight": "87.16", "Molecular Formula": "C5H13N", "Boiling Point": "85-120 \u00b0C"}}