{"cas_no": "77168-83-3", "cn_name": "4,5-\u4e8c\u6c22-6-\u7532\u57fa-5-\u6c27\u4ee3-2-\u5421\u55ea\u7532\u9178", "en_name": ["4,5-Dihydro-6-methyl-5-oxo-2-pyrazinecarboxylic acid", "2-Pyrazinecarboxylic acid, 4,5-dihydro-6-methyl-5-oxo-", "Pyrazinecarboxylic acid, 4,5-dihydro-6-methyl-5-oxo-", "4,5-Dihydro-6-methyl-5-oxo-2-pyrazinecarboxylic acid"], "SMILES": "C(O)(=O)C=1N=C(C)C(=O)NC1", "physical_data": {"Molecular Weight": "154.12", "Molecular Formula": "C6H6N2O3", "Melting Point": "&gt;300 \u00b0C"}}