{"cas_no": "77168-63-9", "cn_name": "2-\u5def\u57fa-4-(4-\u5421\u5576\u57fa)\u567b\u5511", "en_name": ["4-(4-Pyridinyl)-2(3H)-thiazolethione", "2(3H)-Thiazolethione, 4-(4-pyridinyl)-", "4-(4-Pyridinyl)-2(3H)-thiazolethione", "4-(Pyridin-4-yl)thiazole-2-thiol", "4-(Pyridin-4-yl)-1,3-thiazole-2-thiol"], "SMILES": "S=C1NC(=CS1)C=2C=CN=CC2", "physical_data": {"Molecular Weight": "194.28", "Molecular Formula": "C8H6N2S2", "Melting Point": "280 \u00b0C"}}