{"cas_no": "77168-85-5", "cn_name": "5-\u6c2f-6-\u7532\u57fa\u5421\u55ea-2-\u7532\u9178\u7532\u916f", "en_name": ["2-Pyrazinecarboxylic acid, 5-chloro-6-methyl-, methyl ester", "2-Pyrazinecarboxylic acid, 5-chloro-6-methyl-, methyl ester", "Pyrazinecarboxylic acid, 5-chloro-6-methyl-, methyl ester", "Methyl 5-chloro-6-methylpyrazine-2-carboxylate"], "SMILES": "C(OC)(=O)C1=NC(C)=C(Cl)N=C1", "physical_data": {"Molecular Weight": "186.60", "Molecular Formula": "C7H7ClN2O2", "Melting Point": "40-43 \u00b0C"}}