{"cas_no": "7716-66-7", "cn_name": "3-\u6c2f-1,2-\u82ef\u5e76\u5f02\u567b\u5511", "en_name": ["3-Chloro-1,2-benzisothiazole", "1,2-Benzisothiazole, 3-chloro-", "3-Chloro-1,2-benzisothiazole", "3-Chlorobenzo[d]isothiazole", "3-Chloro-1,2-benzothiazole"], "SMILES": "ClC=1C=2C(=CC=CC2)SN1", "physical_data": {"Molecular Weight": "169.63", "Molecular Formula": "C7H4ClNS", "Boiling Point": "122 \u00b0C @ Press: 10 Torr", "Melting Point": "40 \u00b0C"}}