{"cas_no": "7717-76-2", "cn_name": "4,4-\u6c27\u53cc\u90bb\u82ef\u4e8c\u7532\u9178", "en_name": ["4,4\u2032-Oxydiphthalic acid", "1,2-Benzenedicarboxylic acid, 4,4\u2032-oxybis-", "Phthalic acid, 4,4\u2032-oxydi-", "4,4\u2032-Oxybis[1,2-benzenedicarboxylic acid]", "4,4\u2032-Oxydiphthalic acid", "3,3\u2032,4,4\u2032-Tetracarboxydiphenyl oxide", "Bis(3,4-dicarboxyphenyl) ether", "4,4\u2032-Oxybisphthalic acid", "3,3\u2032,4,4\u2032-Oxydiphthalic acid", "3,3\u2032,4,4\u2032-Diphenyl ether tetracarboxylic acid"], "SMILES": "C(O)(=O)C1=C(C(O)=O)C=CC(OC2=CC(C(O)=O)=C(C(O)=O)C=C2)=C1", "physical_data": {"Molecular Weight": "346.25", "Molecular Formula": "C16H10O9", "Melting Point": "229-231.5 \u00b0C (decomp)"}}