{"cas_no": "77174-66-4", "cn_name": "\u76d0\u9178\u6c2f\u5eb7\u5511", "en_name": ["Croconazole hydrochloride", "1H-Imidazole, 1-[1-[2-[(3-chlorophenyl)methoxy]phenyl]ethenyl]-, hydrochloride (1:1)", "1H-Imidazole, 1-[1-[2-[(3-chlorophenyl)methoxy]phenyl]ethenyl]-, monohydrochloride", "710674S", "Croconazole hydrochloride", "Croconazole monohydrochloride", "Pilzcin"], "SMILES": "C(=C)(C1=C(OCC2=CC(Cl)=CC=C2)C=CC=C1)N3C=CN=C3.Cl", "physical_data": {"Molecular Weight": "", "Molecular Formula": "C18H15ClN2O.ClH", "Melting Point": "148.5-150 \u00b0C"}}