{"cas_no": "77175-51-0", "cn_name": "\u6c2f\u5eb7\u5511", "en_name": ["Croconazole", "1H-Imidazole, 1-[1-[2-[(3-chlorophenyl)methoxy]phenyl]ethenyl]-", "1-[1-[2-[(3-Chlorophenyl)methoxy]phenyl]ethenyl]-1H-imidazole", "Croconazole", "Viniconazole", "1-(1-(2-((3-Chlorobenzyl)oxy)phenyl)vinyl)-1H-imidazole"], "SMILES": "C(=C)(C1=C(OCC2=CC(Cl)=CC=C2)C=CC=C1)N3C=CN=C3", "physical_data": {"Molecular Weight": "310.78", "Molecular Formula": "C18H15ClN2O", "Melting Point": "72-73 \u00b0C"}}