{"cas_no": "7718-54-9", "cn_name": "\u6c2f\u5316\u954d", "en_name": ["Nickel dichloride", "Nickel chloride (NiCl2)", "Nickel dichloride", "Nickel(II) chloride", "Nickelous chloride", "Nickel chloride", "Nickel(2+) chloride", "Nickel dichloride (NiCl2)", "NSC 254532"], "SMILES": "[Ni](Cl)Cl", "physical_data": {"Molecular Weight": "", "Molecular Formula": "Cl2Ni", "Boiling Point": "970 \u00b0C", "Melting Point": "1001 \u00b0C", "Density": "3.51 g/cm\u00b3"}}