{"cas_no": "77182-82-2", "cn_name": "\u8349\u94f5\u81a6", "en_name": ["Glufosinate-ammonium", "Butanoic acid, 2-amino-4-(hydroxymethylphosphinyl)-, ammonium salt (1:1)", "Butanoic acid, 2-amino-4-(hydroxymethylphosphinyl)-, monoammonium salt", "Basta", "HOE 00661", "Glufosinate-ammonium", "HOE 39866", "Ammonium glufosinate", "Finale", "Finale 14SL", "Basta LS", "Ignite", "Glufosinate monoammonium salt", "Liberty", "Liberty (pesticide)", "Dash", "Basta Fl", "Buster", "Basta 150SL", "BASTA 15", "Ignite 280", "Glufosinate ammonium salt", "Liberty 280SL", "Fascinate DRY", "Fascinate", "Fascinate 280SL", "Fascinate 500 SG", "Liberty 280"], "SMILES": "C(C(C(O)=O)N)CP(C)(=O)O.N", "physical_data": {"Molecular Weight": "", "Molecular Formula": "C5H12NO4P.H3N", "Melting Point": "215 \u00b0C", "Density": "1.4 g/cm\u00b3 @ Temp: 20 \u00b0C"}}