{"cas_no": "77181-26-1", "cn_name": "\u4e59\u9170\u4e4c\u5934\u78b1", "en_name": ["3-Acetylaconitine", "Aconitane-3,8,13,14,15-pentol, 20-ethyl-1,6,16-trimethoxy-4-(methoxymethyl)-, 3,8-diacetate 14-benzoate, (1\u03b1,3\u03b1,6\u03b1,14\u03b1,15\u03b1,16\u03b2)-", "11aH-12,3,6a-Ethanylylidene-7,9-methanonaphth[2,3-b]azocine, aconitane-3,8,13,14,15-pentol deriv.", "Aconitine 3-acetate", "3-Acetylaconitine", "Aconitine 3-monoacetate", "Flaconitine", "Aconine 3,8-diacetate 14-benzoate", "3-O-Acetylaconitine", "Monoacetylaconitine"], "SMILES": "O(C)C1C23C4C(COC)(C(OC(C)=O)C1)CN(CC)C2C(C4OC)C5(OC(C)=O)C6C3CC(O)(C6OC(=O)C7=CC=CC=C7)C(OC)C5O", "physical_data": {"Molecular Weight": "687.77", "Molecular Formula": "C36H49NO12", "Melting Point": "196-197 \u00b0C"}}