{"cas_no": "7719-12-2", "cn_name": "\u4e09\u6c2f\u5316\u78f7", "en_name": ["Phosphorus trichloride", "Phosphorous trichloride", "Phosphorus chloride (PCl3)", "Phosphorous chloride", "Phosphine, trichloro-", "Trichlorophosphine", "Phosphorus chloride (Cl6P2)", "Phosphorus trichloride", "Phosphanyl trichloride"], "SMILES": "P(Cl)(Cl)Cl", "physical_data": {"Molecular Weight": "137.33", "Molecular Formula": "Cl3P", "Boiling Point": "76 \u00b0C", "Melting Point": "-112 \u00b0C", "Density": "1.574 g/cm\u00b3 @ Temp: 21 \u00b0C"}}