{"cas_no": "7719-09-7", "cn_name": "\u6c2f\u5316\u4e9a\u781c", "en_name": ["Thionyl chloride", "Thionyl chloride", "Sulfurous oxychloride", "Sulfurous dichloride", "Sulfinyl chloride", "Thionyl chloride (SOCl2)", "Sulfur chloride oxide (Cl2SO)", "Thionyl dichloride", "Sulfur oxychloride (SOCl2)", "Sulfinyl dichloride", "Sulfur oxychloride", "Sulfur chloride oxide (SCl2O)"], "SMILES": "S(Cl)(Cl)=O", "physical_data": {"Molecular Weight": "118.97", "Molecular Formula": "Cl2OS", "Boiling Point": "76 \u00b0C @ Press: 760 Torr", "Melting Point": "-104.5 \u00b0C", "Density": "1.638 g/cm\u00b3 @ Temp: 20 \u00b0C"}}