{"cas_no": "77191-36-7", "cn_name": "\u5948\u975e\u897f\u5766", "en_name": ["Nefiracetam", "1-Pyrrolidineacetamide, N-(2,6-dimethylphenyl)-2-oxo-", "N-(2,6-Dimethylphenyl)-2-oxo-1-pyrrolidineacetamide", "DM 9384", "DMPPA", "Nefiracetam", "2-(2-Oxo-1-pyrrolidinyl)-N-(2,6-dimethylphenyl)acetamide", "N-(2,6-Dimethylphenyl)-2-(2-oxo-1-pyrrolidinyl)acetamide", "Translon", "DZL 221", "DMMPA"], "SMILES": "N(C(CN1C(=O)CCC1)=O)C2=C(C)C=CC=C2C", "physical_data": {"Molecular Weight": "246.30", "Molecular Formula": "C14H18N2O2", "Melting Point": "153 \u00b0C"}}