{"cas_no": "7719-02-0", "cn_name": "\u4e59\u70ef\u57fa\u82ef\u57fa\u4e8c\u6c2f\u7845\u70f7", "en_name": ["(Dichloroethenylsilyl)benzene", "Benzene, (dichloroethenylsilyl)-", "Silane, dichlorophenylvinyl-", "Silane, dichloroethenylphenyl-", "(Dichloroethenylsilyl)benzene", "Dichlorophenylvinylsilane", "Dichloro(vinyl)phenylsilane", "Vinylphenyldichlorosilane", "Phenylvinyldichlorosilane", "NSC 270717"], "SMILES": "[Si](C=C)(Cl)(Cl)C1=CC=CC=C1", "physical_data": {"Molecular Weight": "203.14", "Molecular Formula": "C8H8Cl2Si", "Boiling Point": "84-87 \u00b0C @ Press: 1.5 Torr", "Melting Point": "-43 \u00b0C", "Density": "1.196 g/cm\u00b3 @ Temp: 25 \u00b0C"}}