{"cas_no": "772-03-2", "cn_name": "2-\u4e59\u70ef\u57fa\u55b9\u5549", "en_name": ["2-Ethenylquinoline", "Quinoline, 2-ethenyl-", "Quinoline, 2-vinyl-", "2-Ethenylquinoline", "2-Vinylquinoline", "NSC 99356"], "SMILES": "C(=C)C1=NC2=C(C=C1)C=CC=C2", "physical_data": {"Molecular Weight": "155.20", "Molecular Formula": "C11H9N", "Boiling Point": "120-125 \u00b0C @ Press: 7 Torr", "Melting Point": "284-285 \u00b0C", "Density": "1.0692 g/cm\u00b3 @ Temp: 25 \u00b0C"}}