{"cas_no": "772-54-3", "cn_name": "N-\u82c4\u57fa\u4e8c\u4e59\u80fa", "en_name": ["N,N-Diethylbenzenemethanamine", "Benzenemethanamine, N,N-diethyl-", "Benzylamine, N,N-diethyl-", "N,N-Diethylbenzenemethanamine", "Benzyldiethylamine", "Diethylbenzylamine", "N,N-Diethylbenzylamine", "N-Benzyldiethylamine", "N-(Phenylmethyl)diethylamine", "N-Benzyl-N,N-diethylamine", "NSC 128147", "N-Benzyl-N-ethylethanamine"], "SMILES": "C(N(CC)CC)C1=CC=CC=C1", "physical_data": {"Molecular Weight": "163.26", "Molecular Formula": "C11H17N", "Boiling Point": "211-212 \u00b0C", "Density": "0.9049 g/cm\u00b3 @ Temp: 20 \u00b0C"}}