{"cas_no": "772-79-2", "cn_name": "4-\u6c2f\u82ef\u57fa\u4e8c\u6c2f\u78f7\u9178\u916f", "en_name": ["4-Chlorophenyl phosphorodichloridate", "Phosphorodichloridic acid, 4-chlorophenyl ester", "Phosphorodichloridic acid, p-chlorophenyl ester", "Phenol, p-chloro-, phosphorodichloridate", "p-Chlorophenyl dichlorophosphate", "p-Chlorophenyl phosphorodichloridate", "4-Chlorophenyl phosphorodichloridate", "4-Chlorophenyl dichlorophosphate", "4-Chlorophenyl dichlorophosphinate", "1-Chloro-4-dichlorophosphoryloxybenzen", "(4-Chlorophenoxy)phosphonoyl dichloride", "1-Chloro-4-dichlorophosphoryloxybenzene"], "SMILES": "O(P(Cl)(Cl)=O)C1=CC=C(Cl)C=C1", "physical_data": {"Molecular Weight": "245.43", "Molecular Formula": "C6H4Cl3O2P", "Boiling Point": "95-115 \u00b0C @ Press: 0.1 Torr", "Melting Point": "130-134 \u00b0C", "Density": "1.5236 g/cm\u00b3 @ Temp: 20 \u00b0C"}}