{"cas_no": "772-31-6", "cn_name": "4-\u6c1f\u82ef\u57fa\u73af\u4e19\u57fa\u7532\u916e", "en_name": ["Cyclopropyl(4-fluorophenyl)methanone", "Methanone, cyclopropyl(4-fluorophenyl)-", "Ketone, cyclopropyl p-fluorophenyl", "Cyclopropyl(4-fluorophenyl)methanone", "Cyclopropyl 4-fluorophenyl ketone", "Cyclopropyl p-fluorophenyl ketone", "p-Fluorophenyl cyclopropyl ketone", "4-Fluorophenyl cyclopropyl ketone", "NSC 70847"], "SMILES": "C(=O)(C1CC1)C2=CC=C(F)C=C2", "physical_data": {"Molecular Weight": "164.18", "Molecular Formula": "C10H9FO", "Boiling Point": "108-112 \u00b0C @ Press: 12 Torr"}}