{"cas_no": "772-65-6", "cn_name": "\u82ef\u4e59\u57fa\u7532\u57fa\u4e8c\u6c2f\u5316\u7845\u70f7", "en_name": ["Dichloromethylphenethylsilane", "Benzene, [2-(dichloromethylsilyl)ethyl]-", "Silane, dichloromethylphenethyl-", "Silane, dichloromethyl(2-phenylethyl)-", "[2-(Dichloromethylsilyl)ethyl]benzene", "Dichloromethylphenethylsilane", "Methyl(2-phenethyl)dichlorosilane", "[2-[Dichloro(methyl)silyl]ethyl]benzene", "Phenethylmethyldichlorosilane", "Dichloromethyl(2-phenylethyl)silane"], "SMILES": "C(C[Si](C)(Cl)Cl)C1=CC=CC=C1", "physical_data": {"Molecular Weight": "219.18", "Molecular Formula": "C9H12Cl2Si", "Boiling Point": "99 \u00b0C @ Press: 6 Torr", "Density": "1.127 g/cm\u00b3"}}