{"cas_no": "772-00-9", "cn_name": "4-\u82ef\u57fa-1,3-\u4e8c\u6c27\u6742\u73af\u4e59\u70f7", "en_name": ["4-Phenyl-1,3-dioxane", "1,3-Dioxane, 4-phenyl-", "m-Dioxane, 4-phenyl-", "4-Phenyl-1,3-dioxane", "4-Phenyl-m-dioxane", "(\u00b1)-4-Phenyl-m-dioxane", "(\u00b1)-4-Phenyl-1,3-dioxane", "NSC 406730"], "SMILES": "C1(=CC=CC=C1)C2CCOCO2", "physical_data": {"Molecular Weight": "164.20", "Molecular Formula": "C10H12O2", "Boiling Point": "247 \u00b0C", "Density": "1.101 g/cm\u00b3 @ Temp: 25 \u00b0C"}}