{"cas_no": "772-46-3", "cn_name": "2-\u82c4\u57fa-2-\u4e01\u9187", "en_name": ["\u03b1-Ethyl-\u03b1-methylbenzeneethanol", "Benzeneethanol, \u03b1-ethyl-\u03b1-methyl-", "Phenethyl alcohol, \u03b1-ethyl-\u03b1-methyl-", "\u03b1-Ethyl-\u03b1-methylbenzeneethanol", "2-Benzyl-2-butanol", "Benzylethylmethylcarbinol", "2-(Phenylmethyl)butan-2-ol", "NSC 404644", "2-Methyl-1-phenylbutan-2-ol"], "SMILES": "C(C(CC)(C)O)C1=CC=CC=C1", "physical_data": {"Molecular Weight": "164.24", "Molecular Formula": "C11H16O", "Boiling Point": "115 \u00b0C @ Press: 14 Torr", "Melting Point": "83.5-84 \u00b0C", "Density": "0.9746 g/cm\u00b3 @ Temp: 19 \u00b0C"}}