{"cas_no": "7720-83-4", "cn_name": "\u7898\u5316\u949b(IV)", "en_name": ["Titanium iodide (TiI4), (T-4)-", "Titanium iodide (TiI4), (T-4)-", "Titanium iodide (TiI4)", "Titanium tetraiodide", "Tetraiodotitanium", "Titanium(IV) iodide"], "SMILES": "[Ti](I)(I)(I)I", "physical_data": {"Molecular Weight": "", "Molecular Formula": "I4Ti", "Boiling Point": "379 \u00b0C", "Melting Point": "150 \u00b0C"}}