{"cas_no": "7721-62-2", "cn_name": "4,5-\u4e8c\u7532\u6c27\u57fa-2-\u7532\u57fa\u82ef\u7532\u919b", "en_name": ["4,5-Dimethoxy-2-methylbenzaldehyde", "Benzaldehyde, 4,5-dimethoxy-2-methyl-", "Veratraldehyde, 6-methyl-", "4,5-Dimethoxy-2-methylbenzaldehyde", "2-Methyl-4,5-dimethoxybenzaldehyde", "6-Methylveratraldehyde", "NSC 109346"], "SMILES": "O(C)C1=C(OC)C=C(C)C(C=O)=C1", "physical_data": {"Molecular Weight": "180.20", "Molecular Formula": "C10H12O3", "Boiling Point": "110-111 \u00b0C @ Press: 0.2 Torr", "Melting Point": "76 \u00b0C"}}