{"cas_no": "7721-01-9", "cn_name": "\u4e94\u6c2f\u5316\u94bd", "en_name": ["Tantalum pentachloride", "Tantalum chloride (TaCl5)", "Tantalum pentachloride", "Pentachlorotantalum", "Tantalum pentachloride (TaCl5)", "Tantalum chloride", "Tantalum(V) chloride"], "SMILES": "[Ta](Cl)(Cl)(Cl)(Cl)Cl", "physical_data": {"Molecular Weight": "", "Molecular Formula": "Cl5Ta", "Boiling Point": "233 \u00b0C", "Melting Point": "216.5-220 \u00b0C"}}