{"cas_no": "77214-82-5", "cn_name": "\u5bf9\u7532\u82ef\u78fa\u9178\u94c1", "en_name": ["Ferric p-toluenesulfonate", "Benzenesulfonic acid, 4-methyl-, iron(3+) salt (3:1)", "Benzenesulfonic acid, 4-methyl-, iron(3+) salt", "Iron(III) p-toluenesulfonate", "p-Toluenesulfonic acid ferric salt", "Ferric p-toluenesulfonate", "Ferric tosylate", "Iron tris(4-toluenesulfonate)", "Iron(3+) tosylate", "Tris(toluenesulfonate)iron(III)", "Iron(III) tris(toluenesulfonate)", "Baytron C-B 40", "Baytron C", "Baytron C-E", "Baytron C-B 50", "Baytron C-B 40 High Fe", "Iron(III) tosylate", "Fe(III) p-toluenesulfonate", "Clevios C-B 40", "Clevios C-W", "Clevios C-B 40V2", "Iron tris(p-toluenesulfonate)", "FTS", "Clevios C-E 60", "Taycatron AF 60E", "Taycatron AF 55B", "Clevios C", "Clevios C-E 40", "OS-DO 55", "C-B 40V2", "Clevios C-B 54V3", "Clevios CB 54"], "SMILES": "S(=O)(=O)(O)C1=CC=C(C)C=C1.[Fe]", "physical_data": {"Molecular Weight": "", "Molecular Formula": "C7H8O3S.<sup>1</sup>/3Fe", "Melting Point": "279-283 \u00b0C"}}