{"cas_no": "7722-84-1", "cn_name": "\u8fc7\u6c27\u5316\u6c22", "en_name": ["Hydrogen peroxide", "Hydrogen peroxide (H2O2)", "Hydrogen peroxide", "Albone", "Inhibine", "Perhydrol", "Peroxaan", "Hydrogen dioxide", "T-Stuff", "Superoxol", "Albone DS", "Oxysept I", "Oxyfull", "Odosat D", "Hybrite", "Select Bleach", "Albone 35", "Perone", "Oxydol", "Baquashock", "Hipox", "Metrokur", "CIX", "Peroxclean", "Anti-Keim 50", "Hioxyl", "Oxysept", "Mirasept", "Lensan A", "Pegasyl", "Asepticper", "NSC 19892", "Crystacide", "Dentasept", "Oxigenal", "Adeka Super EL", "Crestal Whitestrips", "Xtra White", "Opalescence Xtra", "Deslime LP", "Quasar Brite", "Clarigel Gold", "Whitespeed", "Nite White Excel 2", "Magic Bleaching", "Whiteness HP", "Lase Peroxide", "OxiDate", "Crest whitestrips", "Zerosil", "Interox ST 50", "Opalescence Xtra Boost", "Dioxy 100L", "EcoClearProx", "Virox", "Poladay", "Opalescence Boost PF", "Dezinbak Super", "B-Cap 35", "B-Cap 50", "M 70", "M 70 (peroxide)", "Whiteness HP/FGM", "TerraClean", "Corega Extradent", "Day White", "Interox Paramove 50", "Peroxy-Blend PB 33", "Peroxy-Blend PB 31", "Whiteness HP Maxx", "Neoseptal D", "Perhidrol", "Oxidol", "Opalescence BOOST", "ZOOM 2", "Interox ST 60", "Arion Cronos", "Oxysept Comfort", "OX-AGUA AL25", "Peroxal 50", "Diapower HP", "UELM 35", "B 296644", "FQ 301", "Hyprox 350", "MeSH ID: D006861"], "SMILES": "OO", "physical_data": {"Molecular Weight": "34.01", "Molecular Formula": "H2O2", "Boiling Point": "152 \u00b0C", "Melting Point": "-0.43 \u00b0C", "Density": "1.4425 g/cm\u00b3 @ Temp: 25 \u00b0C"}}