{"cas_no": "7722-88-5", "cn_name": "\u7126\u78f7\u9178\u94a0", "en_name": ["Tetrasodium pyrophosphate", "Diphosphoric acid, sodium salt (1:4)", "Pyrophosphoric acid, tetrasodium salt", "Diphosphoric acid, tetrasodium salt", "Anhydrous tetrasodium pyrophosphate", "Phosphotex", "Tetrasodium diphosphate", "Tetrasodium pyrophosphate", "TSPP", "Victor TSPP", "Sodium pyrophosphate (Na4P2O7)", "Sodium pyrophosphate", "Sodium diphosphate (Na4P2O7)", "Sodium phosphate (Na4P2O7)", "Tetrasodium pyrophosphate (Na4P2O7)", "Tetrasodium diphosphate (Na4P2O7)", "Sodium diphosphate", "Accoline 126", "SPP (phosphate)", "SPP", "Thermphos Pyro E 450", "Sodium phosphorus oxide (Na4P2O7)", "Phosphomix 110", "Nankarin S 1"], "SMILES": "O(P(=O)(O)O)P(=O)(O)O.[Na]", "physical_data": {"Molecular Weight": "", "Molecular Formula": "H4O7P2.4Na", "Melting Point": "988 \u00b0C", "Density": "2.534 g/cm\u00b3"}}