{"cas_no": "7722-76-1", "cn_name": "\u78f7\u9178\u4e8c\u6c22\u94f5", "en_name": ["Ammonium dihydrogen phosphate", "Phosphoric acid, ammonium salt (1:1)", "Phosphoric acid, monoammonium salt", "Ammonium biphosphate", "Monoammonium phosphate", "Monobasic ammonium phosphate", "Ammonium phosphate (NH4H2PO4)", "Ammonium phosphate", "Ammonium dihydrogen phosphate", "Ammonium dihydrogen orthophosphate", "Monoammonium orthophosphate", "Ammonium dihydrophosphate", "Monoammonium hydrogen phosphate", "Monoammonium dihydrogen phosphate", "Monoammonium acid phosphate", "Ammonium monobasic phosphate", "Ammonium diacid phosphate", "Monoammonium dihydrogen phosphate ((NH4)H2PO4)", "VTI 57", "Ammonium monobasic phosphate (NH4H2PO4)", "Dihydrogen ammonium phosphate", "Ammonium dihydrogen phosphate ((NH4)H2PO4)", "Ammonium primary phosphate", "Monoammonium dihydrogen orthophosphate", "ABC", "ABC (fire extinguisher)", "Furex 770", "Ammonium hydrogen phosphate ((NH4)H2PO4)", "ADP", "ADP (filter)", "Ammonium orthophosphate monobasic", "MAP-B", "PoliFAM NP 1452", "P-FKChS 2", "Feniks AVS 70", "Feniks AVS 40", "Vekson AVS 25", "Vekson AVS 30", "Vekson AVS 50", "Rongchuang P 501", "P 501", "Phos-Chek MVP-Fx"], "SMILES": "P(=O)(O)(O)O.N", "physical_data": {"Molecular Weight": "", "Molecular Formula": "H3N.H3O4P", "Boiling Point": "376.1 \u00b0C", "Melting Point": "190 \u00b0C", "Density": "1.803 g/cm\u00b3"}}