{"cas_no": "7722-64-7", "cn_name": "\u9ad8\u9530\u9178\u94be", "en_name": ["Permanganic acid (HMnO4), potassium salt (1:1)", "Permanganic acid (HMnO4), potassium salt (1:1)", "Permanganic acid (HMnO4), potassium salt", "C.I. 77755", "Chameleon mineral", "Condy's crystals", "Permanganic acid potassium salt", "Cairox", "Pure Light E 2", "GS-KP", "Turco 4338C", "Tarco 4338C", "Allways Fresh", "HY 5", "Concentrate Compact CP", "Promoter 213", "Potassium permanganate", "Circuposit Promoter 3310/4140", "MeSH ID: D011196"], "SMILES": "[Mn](O)(=O)(=O)=O.[K]", "physical_data": {"Molecular Weight": "", "Molecular Formula": "HMnO4.K", "Melting Point": "240 \u00b0C (decomp)", "Density": "2.7 g/cm\u00b3"}}