{"cas_no": "7724-76-7", "cn_name": "\u5229\u6ce2\u817a\u82f7", "en_name": ["Isopentenyladenosine", "Adenosine, N-(3-methyl-2-buten-1-yl)-", "Adenosine, N-(3-methyl-2-butenyl)-", "N-(3-Methyl-2-buten-1-yl)adenosine", "N-(3-Methyl-2-butenyl)adenosine", "Riboprine", "N6-(\u03942-Isopentenyl)adenosine", "N6-(2-Isopentenyl)adenosine", "6-(3-Methyl-2-butenylamino)-9-\u03b2-D-ribofuranosylpurine", "6-(3-Methyl-2-butenylamino)purine riboside", "N-Isopentenyladenosine", "Isopentenyladenosine", "N6-(3-Methyl-2-butenyl)adenosine", "6-(\u03b3,\u03b3-Dimethylallylamino)purine riboside", "6-(3-Methyl-2-butenylamino)-\u03b2,D-ribofuranosylpurine", "Isopentenyladenine riboside", "2iPA", "SQ 22558", "6-(3-Methyl-2-butenylamino)-9-\u03b2-ribofuranosylpurine", "N6-(Dimethylallyl)adenosine", "N6-(\u03942-Isopentenyl)adenine riboside", "Isopentenyladenosine riboside", "N6-(\u03b3,\u03b3-Dimethylallyl)adenosine", "2iPR", "6-(2-Isopentenyl)adenosine", "N6-Isopentenyladenosine", "NSC 105546", "IPA", "MeSH ID: D007541"], "SMILES": "OC1C(N2C=3C(N=C2)=C(NCC=C(C)C)N=CN3)OC(CO)C1O", "physical_data": {"Molecular Weight": "335.36", "Molecular Formula": "C15H21N5O4", "Melting Point": "142-143 \u00b0C"}}