{"cas_no": "77242-30-9", "cn_name": "(2-\u6c28\u57fa-5-\u785d\u57fa\u82ef\u57fa)\u7532\u9187", "en_name": ["2-Amino-5-nitrobenzenemethanol", "Benzenemethanol, 2-amino-5-nitro-", "2-Amino-5-nitrobenzenemethanol", "2-Amino-5-nitrobenzyl alcohol", "2-Hydroxymethyl-4-Nitroaniline", "(2-Amino-5-nitrophenyl)methanol"], "SMILES": "C(O)C1=CC(N(=O)=O)=CC=C1N", "physical_data": {"Molecular Weight": "168.15", "Molecular Formula": "C7H8N2O3", "Melting Point": "200-201 \u00b0C"}}