{"cas_no": "7726-95-6", "cn_name": "Government regulation", "en_name": ["Bromine", "Bromine", "Dibromine", "Diatomic bromine", "Bromine element", "Bromine molecule (Br2)", "Bromitize Plus", "ABWS 20", "MeSH ID: D001966"], "SMILES": "BrBr", "physical_data": {"Molecular Weight": "159.81", "Molecular Formula": "Br2", "Boiling Point": "58.78 \u00b0C", "Melting Point": "-7.25 \u00b0C", "Density": "3.11 g/cm\u00b3 @ Temp: 25 \u00b0C"}}