{"cas_no": "7726-03-6", "cn_name": "\u80c6\u56fa\u9187\u6b63\u620a\u9178\u916f", "en_name": ["Cholesteryl valerate", "Cholest-5-en-3-ol (3\u03b2)-, 3-pentanoate", "Cholesterol, valerate", "Cholest-5-en-3-ol (3\u03b2)-, pentanoate", "Valeric acid, cholesteryl ester", "Cholesteryl valerate", "Cholesterol pentanoate", "Cholesteryl pentanoate", "Cholesteryl n-valerate", "Cholest-5-en-3\u03b2-ol valerate", "5-Cholesten-3\u03b2-ol valerate"], "SMILES": "CC12C3C(C4C(C)(CC3)C(C(CCCC(C)C)C)CC4)CC=C1CC(OC(CCCC)=O)CC2", "physical_data": {"Molecular Weight": "470.77", "Molecular Formula": "C32H54O2", "Melting Point": "90.0 \u00b0C"}}