{"cas_no": "7727-73-3", "cn_name": "\u5341\u6c34\u5408\u786b\u9178\u94a0", "en_name": ["Sodium sulfate decahydrate", "Sulfuric acid sodium salt (1:2), hydrate (1:10)", "Sulfuric acid disodium salt, decahydrate", "Glauber's salt", "Sodium sulfate decahydrate", "Disodium sulfate decahydrate", "Sodium sulfate (Na2SO4) decahydrate", "Sodium sulfate decahydrate (Na2SO4.10H2O)", "Disodium sulfate decahydrate (Na2SO4.10H2O)", "Mangxiao"], "SMILES": "S(=O)(=O)(O)O.[Na].O", "physical_data": {"Molecular Weight": "", "Molecular Formula": "H2O4S.10H2O.2Na", "Melting Point": "32.4 \u00b0C", "Density": "1.46 g/cm\u00b3"}}