{"cas_no": "7727-37-9", "cn_name": "\u6c2e", "en_name": ["Nitrogen", "Nitrogen", "Nitrogen gas", "Nitrogen-14", "Dinitrogen", "Molecular nitrogen", "Nitrogen (N2)", "Diatomic nitrogen", "Nitrogen nutrition (plant)", "Hydrogen, ammoniate (2:1)", "MeSH ID: D009584"], "SMILES": "N#N", "physical_data": {"Molecular Weight": "28.01", "Molecular Formula": "N2", "Boiling Point": "-195.79 \u00b0C", "Melting Point": "-210.01 \u00b0C", "Density": "3.421 g/cm\u00b3"}}