{"cas_no": "7727-15-3", "cn_name": "\u4e09\u6eb4\u5316\u94dd", "en_name": ["Aluminum bromide", "Aluminum bromide (AlBr3)", "Aluminum bromide", "Aluminum tribromide", "Aluminum tribromide (AlBr3)", "NSC 87608"], "SMILES": "[Al](Br)(Br)Br", "physical_data": {"Molecular Weight": "", "Molecular Formula": "AlBr3", "Boiling Point": "255 \u00b0C", "Melting Point": "97.5 \u00b0C", "Density": "3.2 g/cm\u00b3"}}