{"cas_no": "77278-63-8", "cn_name": "1-BOC-4-\u82ef\u57fa\u54cc\u55ea", "en_name": ["1,1-Dimethylethyl 4-phenyl-1-piperazinecarboxylate", "1-Piperazinecarboxylic acid, 4-phenyl-, 1,1-dimethylethyl ester", "1,1-Dimethylethyl 4-phenyl-1-piperazinecarboxylate", "N-(tert-Butoxycarbonyl)-N\u2032-phenylpiperazine", "4-Phenylpiperazine-1-carboxylic acid tert-butyl ester", "1-Boc-4-Phenylpiperazine", "tert-Butyl 4-phenylpiperazine-1-carboxylate"], "SMILES": "C(OC(C)(C)C)(=O)N1CCN(CC1)C2=CC=CC=C2", "physical_data": {"Molecular Weight": "262.35", "Molecular Formula": "C15H22N2O2", "Melting Point": "70-71 \u00b0C"}}