{"cas_no": "7727-33-5", "cn_name": "1,1,2,2-\u56db(4-\u7f9f\u57fa\u82ef\u57fa)\u4e59\u70f7", "en_name": ["1,1,2,2-Tetrakis(4-hydroxyphenyl)ethane", "Phenol, 4,4\u2032,4\u2032\u2032,4\u2032\u2032\u2032-(1,2-ethanediylidene)tetrakis-", "Phenol, 4,4\u2032,4\u2032\u2032,4\u2032\u2032\u2032-ethanediylidenetetra-", "4,4\u2032,4\u2032\u2032,4\u2032\u2032\u2032-(1,2-Ethanediylidene)tetrakis[phenol]", "1,1,2,2-Tetrakis(p-hydroxyphenyl)ethane", "1,1,2,2-Tetrakis(4-hydroxyphenyl)ethane", "TEP-DF", "Tekp-E", "NSC 310098", "TEP", "KPF 3110", "1,1,2,2-Tetra(p-hydroxyphenyl)ethane", "AV Lite TEP-DF", "TEF-DT", "Tetraphenolethane"], "SMILES": "C(C(C1=CC=C(O)C=C1)C2=CC=C(O)C=C2)(C3=CC=C(O)C=C3)C4=CC=C(O)C=C4", "physical_data": {"Molecular Weight": "398.45", "Molecular Formula": "C26H22O4", "Melting Point": "299-300 \u00b0C"}}