{"cas_no": "7727-79-9", "cn_name": "ZEDERONE", "en_name": ["Zederone", "Oxireno[4,5]cyclodeca[1,2-b]furan-10(2H)-one, 1a,3,6,10a-tetrahydro-1a,5,9-trimethyl-, (1aR,4E,10aR)-", "Zederone", "Oxireno[4,5]cyclodeca[1,2-b]furan-10(2H)-one, 1a,3,6,10a-tetrahydro-1a,5,9-trimethyl-, [R-[R*,R*-(E)]]-", "Germacra-1(10),7,11-trien-6-one, 4,5\u03b1:8,12-diepoxy-, (E)-", "(1aR,4E,10aR)-1a,3,6,10a-Tetrahydro-1a,5,9-trimethyloxireno[4,5]cyclodeca[1,2-b]furan-10(2H)-one"], "SMILES": "CC12C(C(=O)C3=C(OC=C3C)CC(C)=CCC1)O2", "physical_data": {"Molecular Weight": "246.30", "Molecular Formula": "C15H18O3", "Melting Point": "153.4-153.9 \u00b0C"}}