{"cas_no": "7727-18-6", "cn_name": "\u4e09\u6c2f\u6c27\u9492", "en_name": ["Vanadium oxytrichloride", "Vanadium, trichlorooxo-, (T-4)-", "Vanadium, trichlorooxo-", "(T-4)-Trichlorooxovanadium", "Vanadium oxychloride", "Vanadium oxytrichloride", "Vanadyl trichloride", "Vanadium chloride oxide (VOCl3)", "Vanadyl chloride (VOCl3)", "Vanadyl chloride", "Trichlorooxovanadium", "Vanadium(V) oxytrichloride", "Vanadium oxide trichloride", "Vanadium trichloride oxide", "Vanadium chloride oxide (VCl3O)", "Vanadium monoxide trichloride", "Vanadium trichloride monooxide", "Vanadium trichloride monoxide", "Trichlorovanadium oxide", "Trichlorooxovanadium(V)"], "SMILES": "[V](Cl)(Cl)(Cl)=O", "physical_data": {"Molecular Weight": "", "Molecular Formula": "Cl3OV", "Boiling Point": "126-127 \u00b0C", "Melting Point": "-77 \u00b0C", "Density": "1.829 g/cm\u00b3"}}