{"cas_no": "7728-40-7", "cn_name": "\u5229\u591a\u5361\u56e0\u6742\u8d28D", "en_name": ["Monoethylglycinexylidide", "Acetamide, N-(2,6-dimethylphenyl)-2-(ethylamino)-", "2\u2032,6\u2032-Acetoxylidide, 2-(ethylamino)-", "N-(2,6-Dimethylphenyl)-2-(ethylamino)acetamide", "L 86", "N-Ethylglycinexylidide", "Monoethylglycinexylidide", "2-(Ethylamino)-2\u2032,6\u2032-acetoxylidide", "\u03c9-Ethylamino-2\u2032,6\u2032-dimethylacetanilide", "Monoethylglycylxylidide", "Norlidocaine", "MEGX", "N-(N-Ethylglycyl)-2,6-xylidine"], "SMILES": "N(C(CNCC)=O)C1=C(C)C=CC=C1C", "physical_data": {"Molecular Weight": "206.28", "Molecular Formula": "C12H18N2O", "Boiling Point": "164-165 \u00b0C @ Press: 1.3 Torr", "Melting Point": "47-49 \u00b0C"}}