{"cas_no": "77284-64-1", "cn_name": "N-BOC-2-\u6c28\u57fa\u4e01\u9178", "en_name": ["2-[[(1,1-Dimethylethoxy)carbonyl]amino]butanoic acid", "Butanoic acid, 2-[[(1,1-dimethylethoxy)carbonyl]amino]-", "2-[[(1,1-Dimethylethoxy)carbonyl]amino]butanoic acid", "2-tert-Butoxycarbonylaminobutyric acid", "2-[[[(1,1-Dimethylethyl)oxy]carbonyl]amino]butanoic acid", "DL-Boc-Aminobutyric acid", "2-[[(tert-Butoxy)carbonyl]amino]butanoic acid", "2-[(2-Methylpropan-2-yl)oxycarbonylamino]butanoic acid", "2-[(tert-Butoxycarbonyl)amino]butanoic acid"], "SMILES": "C(NC(OC(C)(C)C)=O)(C(O)=O)CC", "physical_data": {"Molecular Weight": "203.24", "Molecular Formula": "C9H17NO4", "Melting Point": "60-62 \u00b0C"}}