{"cas_no": "7729-23-9", "cn_name": "\u6bdb\u94a9\u85e4\u78b1", "en_name": ["Hirsutine", "Indolo[2,3-a]quinolizine-2-acetic acid, 3-ethyl-1,2,3,4,6,7,12,12b-octahydro-\u03b1-(methoxymethylene)-, methyl ester, (\u03b1E,2S,3R,12bR)-", "Hirsutine", "17,18-Seco-3\u03b2-yohimban-16-carboxylic acid, 16,17-didehydro-17-methoxy-, methyl ester, (E)-", "Corynan-16-carboxylic acid, 16,17-didehydro-17-methoxy-, methyl ester, (3\u03b2,16E)-", "Hirsutine (Mitragyna)", "Indolo[2,3-a]quinolizine-2-acetic acid, 3-ethyl-1,2,3,4,6,7,12,12b-octahydro-\u03b1-(methoxymethylene)-, methyl ester, [2S-[2\u03b1(E),3\u03b2,12b\u03b1]]-"], "SMILES": "C(C(OC)=O)(=COC)C1CC2C3=C(C=4C(N3)=CC=CC4)CCN2CC1CC", "physical_data": {"Molecular Weight": "368.47", "Molecular Formula": "C22H28N2O3", "Melting Point": "101 \u00b0C"}}