{"cas_no": "773-76-2", "cn_name": "5,7-\u4e8c\u6c2f-8-\u7f9f\u57fa\u55b9\u5549", "en_name": ["Chloroxine", "8-Quinolinol, 5,7-dichloro-", "5,7-Dichloro-8-quinolinol", "CHQ", "5,7-Dichloro-8-hydroxyquinoline", "5,7-Dichloroxine", "5,7-Dichloro-8-oxyquinoline", "Dichlorohydroxyquinoline", "Chloroxine", "Quesyl", "Clofuzid", "Dichloroxin", "Chloroxyquinoline", "Endiaron", "Dichloroquinolinol", "Quixalin", "Quinolor", "5,7-Dichlorooxine", "Chlofucid", "Capitrol", "NSC 3904"], "SMILES": "OC=1C2=C(C(Cl)=CC1Cl)C=CC=N2", "physical_data": {"Molecular Weight": "214.05", "Molecular Formula": "C9H5Cl2NO", "Melting Point": "179.5 \u00b0C"}}