{"cas_no": "773-47-7", "cn_name": "\u82ef\u7532\u57fa\u81a6\u9178\u4e8c\u7532\u916f", "en_name": ["Dimethyl P-(phenylmethyl)phosphonate", "Phosphonic acid, P-(phenylmethyl)-, dimethyl ester", "Phosphonic acid, benzyl-, dimethyl ester", "Phosphonic acid, (phenylmethyl)-, dimethyl ester", "Dimethyl P-(phenylmethyl)phosphonate", "Dimethyl benzylphosphonate", "NSC 202848"], "SMILES": "P(CC1=CC=CC=C1)(OC)(OC)=O", "physical_data": {"Molecular Weight": "200.17", "Molecular Formula": "C9H13O3P", "Boiling Point": "132 \u00b0C @ Press: 0.3 Torr"}}