{"cas_no": "773-15-9", "cn_name": "1,2,2-\u4e09\u6c1f-2-\u7f9f\u57fa-1-\u4e09\u6c1f\u7532\u57fa\u4e59\u70f7\u78fa\u9178", "en_name": ["1,2-Oxathietane, 3,4,4-trifluoro-3-(trifluoromethyl)-, 2,2-dioxide", "1,2-Oxathietane, 3,4,4-trifluoro-3-(trifluoromethyl)-, 2,2-dioxide", "2-Propanesulfonic acid, 1,1,1,2,3,3-hexafluoro-3-hydroxy-, \u03b2-sultone", "3-(Trifluoromethyl)-3,4,4-trifluoro-1-oxa-2-thiacyclobutane 2,2-dioxide", "3,4,4-Trifluoro-3-(trifluoromethyl)-1,2-oxathietane 2,2-dioxide", "1,2,2-Trifluoro-2-hydroxy-1-(trifluoromethyl)ethanesulfonic acid sultone", "3,4,4-Trifluoro-3-(trifluoromethyl)oxathietane 2,2-dioxide", "3,4,4-Trifluoro-3-(trifluoromethyl)-1,2\u03bb6-oxathietane-2,2-dione"], "SMILES": "C(F)(F)(F)C1(F)C(F)(F)OS1(=O)=O", "physical_data": {"Molecular Weight": "230.09", "Molecular Formula": "C3F6O3S", "Boiling Point": "42-43 \u00b0C", "Density": "1.6670 g/cm\u00b3 @ Temp: 20 \u00b0C"}}