{"cas_no": "773-64-8", "cn_name": "2,4,6-\u4e09\u7532\u57fa\u82ef\u78fa\u9170\u6c2f", "en_name": ["Mesitylenesulfonyl chloride", "Benzenesulfonyl chloride, 2,4,6-trimethyl-", "2-Mesitylenesulfonyl chloride", "2,4,6-Trimethylbenzenesulfonyl chloride", "Mesitylenesulfonyl chloride", "Mesitylsulfonyl chloride", "2,4,6-Trimethylphenylsulfonyl chloride", "NSC 403295", "2,4,6-Trimethylbenzene-1-sulfonyl chloride"], "SMILES": "S(Cl)(=O)(=O)C1=C(C)C=C(C)C=C1C", "physical_data": {"Molecular Weight": "218.70", "Molecular Formula": "C9H11ClO2S", "Melting Point": "56 \u00b0C"}}