{"cas_no": "773-99-9", "cn_name": "1-\u8418\u4e59\u9187", "en_name": ["1-Naphthaleneethanol", "1-Naphthaleneethanol", "2-(1-Naphthyl)ethanol", "2-(\u03b1-Naphthyl)ethanol", "1-(2-Hydroxyethyl)naphthalene", "NSC 28342", "2-Naphthalen-1-yl-ethanol", "2-(Naphthalen-1-yl)ethan-1-ol"], "SMILES": "C(CO)C=1C2=C(C=CC1)C=CC=C2", "physical_data": {"Molecular Weight": "172.22", "Molecular Formula": "C12H12O", "Boiling Point": "125 \u00b0C @ Press: 0.2 Torr", "Melting Point": "62 \u00b0C"}}