{"cas_no": "773-82-0", "cn_name": "\u4e94\u6c1f\u82ef\u8148", "en_name": ["Pentafluorobenzonitrile", "Benzonitrile, 2,3,4,5,6-pentafluoro-", "Benzonitrile, pentafluoro-", "2,3,4,5,6-Pentafluorobenzonitrile", "Pentafluorobenzonitrile", "Perfluorobenzonitrile", "Pentafluorocyanobenzene", "Cyanopentafluorobenzene", "Pentafluorophenyl cyanide", "NSC 88294"], "SMILES": "C(#N)C1=C(F)C(F)=C(F)C(F)=C1F", "physical_data": {"Molecular Weight": "193.07", "Molecular Formula": "C7F5N", "Boiling Point": "162 \u00b0C", "Melting Point": "2.4 \u00b0C"}}