{"cas_no": "773-01-3", "cn_name": "2,4,6-\u4e09\u7532\u57fa\u5421\u5583\u9393\u56db\u6c1f\u787c\u9178\u76d0", "en_name": ["Pyrylium, 2,4,6-trimethyl-, tetrafluoroborate(1-) (1:1)", "Pyrylium, 2,4,6-trimethyl-, tetrafluoroborate(1-) (1:1)", "Pyrylium, 2,4,6-trimethyl-, tetrafluoroborate(1-)", "2,4,6-Trimethylpyrylium fluoborate", "Borate(1-), tetrafluoro-, 2,4,6-trimethylpyrylium", "2,4,6-Trimethylpyrylium fluoroborate", "2,4,6-Trimethylpyrylium tetrafluoroborate", "2,4,6-Trimetylpyrylium tetrafluoroborate"], "SMILES": "[B+3]([F-])([F-])([F-])[F-].CC=1C=C(C)[O+]=C(C)C1", "physical_data": {"Molecular Weight": "", "Molecular Formula": "C8H11O.BF4", "Melting Point": "223 \u00b0C (decomp)"}}