{"cas_no": "77307-50-7", "cn_name": "3'',4''-\u4e8c-O-\u4e59\u9170\u57fa\u963f\u798f\u8c46\u82f7", "en_name": ["Kaempferol 3-O-(3\u2032\u2032,4\u2032\u2032-di-O-acetyl-\u03b1-L-rhamnopyranoside)", "4H-1-Benzopyran-4-one, 3-[(3,4-di-O-acetyl-6-deoxy-\u03b1-L-mannopyranosyl)oxy]-5,7-dihydroxy-2-(4-hydroxyphenyl)-", "3-[(3,4-Di-O-acetyl-6-deoxy-\u03b1-L-mannopyranosyl)oxy]-5,7-dihydroxy-2-(4-hydroxyphenyl)-4H-1-benzopyran-4-one", "3\u2032\u2032,4\u2032\u2032-Di-O-acetylafzelin", "Kaempferol 3-O-(3\u2032\u2032,4\u2032\u2032-di-O-acetyl-\u03b1-L-rhamnopyranoside)", "SL 0101-1", "SL 0101"], "SMILES": "O(C1=C(OC=2C(C1=O)=C(O)C=C(O)C2)C3=CC=C(O)C=C3)C4C(O)C(OC(C)=O)C(OC(C)=O)C(C)O4", "physical_data": {"Molecular Weight": "516.45", "Molecular Formula": "C25H24O12", "Melting Point": "147-149 \u00b0C"}}