{"cas_no": "7730-87-2", "cn_name": "1-\u7532\u57fa\u54cc\u5576-2-\u7fa7\u9178", "en_name": ["1-Methyl-2-piperidinecarboxylic acid", "2-Piperidinecarboxylic acid, 1-methyl-", "Pipecolic acid, 1-methyl-", "1-Methyl-2-piperidinecarboxylic acid", "N-Methyl-2-piperidinecarboxylic acid", "2-Piperidinecarboxylic acid, 1-methyl-, (\u00b1)-", "1-Methylpipecolinic acid"], "SMILES": "C(O)(=O)C1N(C)CCCC1", "physical_data": {"Molecular Weight": "143.18", "Molecular Formula": "C7H13NO2", "Melting Point": "207 \u00b0C"}}