{"cas_no": "7730-20-3", "cn_name": "6-\u6c1f-DL-\u8272\u6c28\u9178", "en_name": ["6-Fluorotryptophan", "Tryptophan, 6-fluoro-", "Tryptophan, 6-fluoro-, DL-", "DL-Tryptophan, 6-fluoro-", "6-Fluorotryptophan", "DL-6-Fluorotryptophan", "DL-6-Fluorotryptophane", "6-Fluoro-DL-tryptophan", "(\u00b1)-6-Fluorotryptophan", "NSC 9364", "2-Amino-3-(6-fluoro-1H-indol-3-yl)propanoic acid"], "SMILES": "C(C(C(O)=O)N)C=1C=2C(NC1)=CC(F)=CC2", "physical_data": {"Molecular Weight": "222.22", "Molecular Formula": "C11H11FN2O2", "Melting Point": "255 \u00b0C"}}