{"cas_no": "77301-42-9", "cn_name": "DL-6-\u7532\u6c27\u57fa-ALPHA-\u7532\u57fa-2-\u8418\u7532\u9187", "en_name": ["1-(6-Methoxy-2-naphthyl)ethanol", "2-Naphthalenemethanol, 6-methoxy-\u03b1-methyl-", "6-Methoxy-\u03b1-methyl-2-naphthalenemethanol", "\u03b1-(6-Methoxy-2-naphthyl)ethyl alcohol", "\u03b1-(6-Methoxy-2-naphthyl)ethanol", "1-(6-Methoxy-2-naphthyl)ethanol", "(\u00b1)-1-(6-Methoxynaphthyl)ethanol", "1-(6\u2032-Methoxy-2-naphthyl)ethanol", "2-(1-Hydroxyethyl)-6-methoxynaphthalene", "1-(6-Methoxynaphthalen-2-yl)ethanol", "1-(6-Methoxynaphthalen-2-yl)ethan-1-ol"], "SMILES": "C(C)(O)C1=CC2=C(C=C(OC)C=C2)C=C1", "physical_data": {"Molecular Weight": "202.25", "Molecular Formula": "C13H14O2", "Melting Point": "113.5-114.5 \u00b0C"}}