{"cas_no": "7731-29-5", "cn_name": "trans-4-\u7532\u57fa\u73af\u5df1\u9187", "en_name": ["trans-4-Methylcyclohexanol", "Cyclohexanol, 4-methyl-, trans-", "trans-4-Methylcyclohexanol", "trans-4-Methylcyclohexan-1-ol", "4-trans-Methylcyclohexanol"], "SMILES": "CC1CCC(O)CC1", "physical_data": {"Molecular Weight": "114.19", "Molecular Formula": "C7H14O", "Boiling Point": "174 \u00b0C", "Melting Point": "80-80.5 \u00b0C", "Density": "0.913 g/cm\u00b3 @ Temp: 20 \u00b0C"}}