{"cas_no": "77317-55-6", "cn_name": "2-\u6c28\u57fa-5-\u7898\u82ef\u7532\u9178\u7532\u916f", "en_name": ["Methyl 2-amino-5-iodobenzoate", "Benzoic acid, 2-amino-5-iodo-, methyl ester", "Anthranilic acid, 5-iodo-, methyl ester", "Methyl 2-amino-5-iodobenzoate", "Methyl 5-iodoanthranilate", "5-Iodoanthranilic acid methyl ester", "2-Amino-5-iodobenzoic acid methyl ester"], "SMILES": "C(OC)(=O)C1=C(N)C=CC(I)=C1", "physical_data": {"Molecular Weight": "277.06", "Molecular Formula": "C8H8INO2", "Melting Point": "83-84 \u00b0C"}}