{"cas_no": "7731-28-4", "cn_name": "cis-4-\u7532\u57fa\u73af\u5df1\u9187", "en_name": ["cis-4-Methylcyclohexanol", "Cyclohexanol, 4-methyl-, cis-", "cis-4-Methylcyclohexanol", "cis-4-Methyl-1-cyclohexanol", "4-cis-Methylcyclohexanol"], "SMILES": "CC1CCC(O)CC1", "physical_data": {"Molecular Weight": "114.19", "Molecular Formula": "C7H14O", "Boiling Point": "173 \u00b0C", "Melting Point": "-9.2 \u00b0C", "Density": "0.9223 g/cm\u00b3 @ Temp: 20 \u00b0C"}}