{"cas_no": "7732-18-5", "cn_name": "\u6c34", "en_name": ["Water", "Water", "R 718", "Hydrogen oxide (H2O)", "Distilled water", "NSC 147337", "Aquafina", "Ultrex II Ultrapure", "Milli-Q water", "Dihydrogen oxide", "MeSH ID: D014867"], "SMILES": "O", "physical_data": {"Molecular Weight": "", "Molecular Formula": "H2O", "Boiling Point": "100 \u00b0C", "Melting Point": "0 \u00b0C", "Density": "1.00293 g/cm\u00b3 @ Temp: 25 \u00b0C"}}