{"cas_no": "77326-46-6", "cn_name": "2-\u6c30\u57fa-3-\u785d\u57fa\u82ef\u7532\u9178\u7532\u916f", "en_name": ["Methyl 2-cyano-3-nitrobenzoate", "Benzoic acid, 2-cyano-3-nitro-, methyl ester", "Methyl 2-cyano-3-nitrobenzoate", "2-Carbomethoxy-6-nitrobenzonitrile"], "SMILES": "C(#N)C1=C(C(OC)=O)C=CC=C1N(=O)=O", "physical_data": {"Molecular Weight": "206.15", "Molecular Formula": "C9H6N2O4", "Melting Point": "140-142 \u00b0C"}}