{"cas_no": "77326-36-4", "cn_name": "2-\u6c28\u57fa-6-\u6c1f\u82ef\u8148", "en_name": ["2-Amino-6-fluorobenzonitrile", "Benzonitrile, 2-amino-6-fluoro-", "2-Amino-6-fluorobenzonitrile", "2-Cyano-3-fluorophenylamine", "6-Amino-2-fluorobenzenecarbonitrile", "6-Fluoro-2-aminobenzonitrile"], "SMILES": "C(#N)C1=C(F)C=CC=C1N", "physical_data": {"Molecular Weight": "136.13", "Molecular Formula": "C7H5FN2", "Melting Point": "125-127 \u00b0C"}}