{"cas_no": "77337-73-6", "cn_name": "\u963f\u574e\u9178\u9499", "en_name": ["Acamprosate calcium", "1-Propanesulfonic acid, 3-(acetylamino)-, calcium salt (2:1)", "Aotal", "Acamprosate calcium", "Calcium N-acetylhomotaurinate", "Campral EC", "Sobriol", "Alcomed", "Ca-AOTA", "Calcium bisacetyl homotaurine", "Calcium acamprosate", "Regtect", "Calcium 3-acetamidopropane-1-sulfonate"], "SMILES": "C(CNC(C)=O)CS(=O)(=O)O.[Ca]", "physical_data": {"Molecular Weight": "", "Molecular Formula": "C5H11NO4S.<sup>1</sup>/2Ca", "Melting Point": "270 \u00b0C"}}