{"cas_no": "77337-82-7", "cn_name": "2-\u6eb4-5-\u785d\u57fa\u82ef\u7532\u919a", "en_name": ["1-Bromo-2-methoxy-4-nitrobenzene", "Benzene, 1-bromo-2-methoxy-4-nitro-", "1-Bromo-2-methoxy-4-nitrobenzene", "2-Bromo-5-nitroanisole", "4-Bromo-3-methoxynitrobenzene", "NSC 405572"], "SMILES": "O(C)C1=CC(N(=O)=O)=CC=C1Br", "physical_data": {"Molecular Weight": "232.03", "Molecular Formula": "C7H6BrNO3", "Melting Point": "104 \u00b0C"}}