{"cas_no": "77341-67-4", "cn_name": "\u7425\u73c0\u9178\u5355\u8584\u8377\u916f", "en_name": ["Succinic acid menthol monoester", "Butanedioic acid, 1-[(1R,2S,5R)-5-methyl-2-(1-methylethyl)cyclohexyl] ester", "Butanedioic acid, mono[5-methyl-2-(1-methylethyl)cyclohexyl] ester, [1R-(1\u03b1,2\u03b2,5\u03b1)]-", "Butanedioic acid, mono[(1R,2S,5R)-5-methyl-2-(1-methylethyl)cyclohexyl] ester", "1-[(1R,2S,5R)-5-Methyl-2-(1-methylethyl)cyclohexyl] butanedioate", "Physcool", "Succinic acid menthol monoester", "Physcool N 2188", "FEMA 3810"], "SMILES": "C(C)(C)C1C(OC(CCC(O)=O)=O)CC(C)CC1", "physical_data": {"Molecular Weight": "256.34", "Molecular Formula": "C14H24O4", "Melting Point": "60-62 \u00b0C"}}