{"cas_no": "7735-43-5", "cn_name": "1,20-\u4e8c\u5341\u70f7\u4e8c\u9187", "en_name": ["1,20-Eicosanediol", "1,20-Eicosanediol", "1,20-Dihydroxyeicosane", "Icosane-1,20-diol"], "SMILES": "C(CCCCCCCCCCO)CCCCCCCCCO", "physical_data": {"Molecular Weight": "314.55", "Molecular Formula": "C20H42O2", "Boiling Point": "215-217 \u00b0C @ Press: 1.5 Torr", "Melting Point": "103 \u00b0C"}}