{"cas_no": "7735-42-4", "cn_name": "1,16-\u5341\u516d\u70f7\u4e8c\u9187", "en_name": ["1,16-Hexadecanediol", "1,16-Hexadecanediol", "1,16-Dihydroxyhexadecane"], "SMILES": "C(CCCCCCCCO)CCCCCCCO", "physical_data": {"Molecular Weight": "258.44", "Molecular Formula": "C16H34O2", "Boiling Point": "197.9 \u00b0C @ Press: 3 Torr", "Melting Point": "91.2-91.5 \u00b0C"}}