{"cas_no": "7737-17-9", "cn_name": "\u6c28\u57fa\u4e19\u916e\u76d0\u9178\u76d0", "en_name": ["2-Propanone, 1-amino-, hydrochloride", "2-Propanone, 1-amino-, hydrochloride", "2-Propanone, amino-, hydrochloride", "Aminoacetone hydrochloride", "2-Oxopropylammonium chloride", "1-Amino-2-propanone hydrochloride", "1-Aminopropan-2-one hydrochloride salt", "1-Aminoacetone Hydrochloride"], "SMILES": "C(CN)(C)=O.Cl", "physical_data": {"Molecular Weight": "", "Molecular Formula": "C3H7NO.ClH", "Melting Point": "73-74 \u00b0C"}}