{"cas_no": "7737-16-8", "cn_name": "N-(2-\u6c27\u4ee3\u4e19\u57fa)\u4e59\u9170\u80fa", "en_name": ["N-(2-Oxopropyl)acetamide", "Acetamide, N-(2-oxopropyl)-", "Acetamide, N-acetonyl-", "N-(2-Oxopropyl)acetamide", "Acetamidoacetone", "N-Acetonylacetamide", "1-(Acetylamino)-2-propanone", "(Acetylamino)acetone"], "SMILES": "C(NC(C)=O)C(C)=O", "physical_data": {"Molecular Weight": "115.13", "Molecular Formula": "C5H9NO2", "Boiling Point": "104-109 \u00b0C @ Press: 1-2 Torr", "Melting Point": "39-41 \u00b0C"}}