{"cas_no": "7737-62-4", "cn_name": "3-\u6c27\u4ee3\u5e9a\u9178\u4e59\u916f", "en_name": ["Heptanoic acid, 3-oxo-, ethyl ester", "Heptanoic acid, 3-oxo-, ethyl ester", "Ethyl \u03b2-oxoheptanoate", "Ethyl 3-oxoheptanoate", "3-Oxoheptanoic acid ethyl ester", "Ethyl 3-ketoheptanoate", "Ethyl valeroylacetate"], "SMILES": "C(CC(OCC)=O)(CCCC)=O", "physical_data": {"Molecular Weight": "172.22", "Molecular Formula": "C9H16O3", "Boiling Point": "110-112 \u00b0C @ Press: 16 Torr"}}