{"cas_no": "77377-52-7", "cn_name": "N-(\u7279\u4e01\u57fa\u4e8c\u7532\u57fa\u7845)-N-\u7532\u57fa\u4e09\u6c1f\u4e59\u9170\u80fa", "en_name": ["N-Methyl-N-(tert-butyldimethylsilyl)trifluoroacetamide", "Acetamide, N-[(1,1-dimethylethyl)dimethylsilyl]-2,2,2-trifluoro-N-methyl-", "N-[(1,1-Dimethylethyl)dimethylsilyl]-2,2,2-trifluoro-N-methylacetamide", "N-Methyl-N-(tert-butyldimethylsilyl)trifluoroacetamide", "N-(tert-Butyldimethylsilyl)-N-methyltrifluoroacetamide", "N-Methyl-N-(tert-butyldimethylsilyl)-1,1,1-trifluoroacetamide", "N-Methyl-N-(tert-butyltdimethylsilyl)trifluoroacetamide", "N-(Tertbutyldimethylsilyl)-N-methyltrifluoroacetamide"], "SMILES": "N([Si](C(C)(C)C)(C)C)(C(C(F)(F)F)=O)C", "physical_data": {"Molecular Weight": "241.33", "Molecular Formula": "C9H18F3NOSi", "Boiling Point": "168-170 \u00b0C", "Density": "1.023 g/cm\u00b3"}}