{"cas_no": "7738-93-4", "cn_name": "\u6cfc\u5c3c\u677eEP\u6742\u8d28K", "en_name": ["Androsta-1,4-diene-3,11,17-trione", "Androsta-1,4-diene-3,11,17-trione", "\u03941-Adrenosterone", "NSC 82849", "1-Dehydroadrenosterone"], "SMILES": "CC12C3C(C4C(C)(CC3=O)C(=O)CC4)CCC1=CC(=O)C=C2", "physical_data": {"Molecular Weight": "298.38", "Molecular Formula": "C19H22O3", "Melting Point": "193-195 \u00b0C"}}