{"cas_no": "7738-94-5", "cn_name": "\u94ec\u9178", "en_name": ["Chromic acid (H2CrO4)", "Chromic acid (H2CrO4)", "Chromic(VI) acid", "Chromium hydroxide oxide (Cr(OH)2O2)", "Chromium oxide hydroxide (CrO2(OH)2)"], "SMILES": "[Cr](O)(O)(=O)=O", "physical_data": {"Molecular Weight": "", "Molecular Formula": "CrH2O4", "Melting Point": "196 \u00b0C", "Density": "1.67-2.82 g/cm\u00b3"}}