{"cas_no": "773850-91-2", "cn_name": "1,3,6-\u4e09\u7f9f\u57fa-4,5-\u4e8c\u7532\u6c27\u57fa-8-\u7532\u57fa-9H-\u6c27\u6742\u84bd-9-\u916e", "en_name": ["1,3,6-Trihydroxy-2,5-dimethoxy-8-methyl-9H-xanthen-9-one", "9H-Xanthen-9-one, 1,3,6-trihydroxy-2,5-dimethoxy-8-methyl-", "1,3,6-Trihydroxy-2,5-dimethoxy-8-methyl-9H-xanthen-9-one", "Drimiopsin D", "2,5-Dimethoxy-8-methyl-1,3,6-trihydroxyxanthone"], "SMILES": "O(C)C1=C2C(C(=O)C=3C(O2)=CC(O)=C(OC)C3O)=C(C)C=C1O", "physical_data": {"Molecular Weight": "318.28", "Molecular Formula": "C16H14O7", "Melting Point": "205-208 \u00b0C"}}