{"cas_no": "774-74-3", "cn_name": "2-(2,6-\u4e8c\u6c2f\u82ef\u6c27\u57fa)\u4e59\u9170\u6c2f", "en_name": ["2-(2,4-Dichlorophenoxy)acetyl chloride", "Acetyl chloride, 2-(2,4-dichlorophenoxy)-", "Acetyl chloride, (2,4-dichlorophenoxy)-", "2-(2,4-Dichlorophenoxy)acetyl chloride", "(2,4-Dichlorophenoxy)acetyl chloride", "2-(2,4-Dichlorophenyloxy)acetyl chloride"], "SMILES": "O(CC(Cl)=O)C1=C(Cl)C=C(Cl)C=C1", "physical_data": {"Molecular Weight": "239.48", "Molecular Formula": "C8H5Cl3O2", "Boiling Point": "155-157 \u00b0C @ Press: 22-23 Torr", "Melting Point": "52.5-53.5 \u00b0C"}}