{"cas_no": "774-65-2", "cn_name": "\u82ef\u7532\u9178\u53d4\u4e01\u916f", "en_name": ["tert-Butyl benzoate", "Benzoic acid, 1,1-dimethylethyl ester", "Benzoic acid, tert-butyl ester", "Trimethylcarbinol benzoate", "tert-Butyl benzoate", "1,1-Dimethylethyl benzoate", "NSC 42534", "2-Benzoyloxy-2-methylpropane"], "SMILES": "C(OC(C)(C)C)(=O)C1=CC=CC=C1", "physical_data": {"Molecular Weight": "178.23", "Molecular Formula": "C11H14O2", "Boiling Point": "213 \u00b0C", "Density": "0.9928 g/cm\u00b3 @ Temp: 25 \u00b0C"}}