{"cas_no": "774-55-0", "cn_name": "1-(5,6,7,8-\u56db\u6c22-2-\u8418)\u4e59\u916e", "en_name": ["6-Acetyltetralin", "Ethanone, 1-(5,6,7,8-tetrahydro-2-naphthalenyl)-", "2\u2032-Acetonaphthone, 5\u2032,6\u2032,7\u2032,8\u2032-tetrahydro-", "1-(5,6,7,8-Tetrahydro-2-naphthalenyl)ethanone", "6-Acetyl-1,2,3,4-tetrahydronaphthalene", "5,6,7,8-Tetrahydronaphth-2-yl methyl ketone", "6-Acetyltetralin", "1-(5,6,7,8-Tetrahydronaphthalen-2-yl)ethanone", "NSC 5179", "2-Acetyl-5,6,7,8-tetrahydronaphthalene", "Floranton", "1-(5,6,7,8-Tetrahydronaphthalen-2-yl)ethan-1-one", "(1,2,3,4-Tetrahydronaphthalen-6-yl)ethan-1-one"], "SMILES": "C(C)(=O)C=1C=C2C(=CC1)CCCC2", "physical_data": {"Molecular Weight": "174.24", "Molecular Formula": "C12H14O", "Boiling Point": "167-169 \u00b0C @ Press: 8 Torr"}}