{"cas_no": "774-40-3", "cn_name": "\u6241\u6843\u9178\u4e59\u916f", "en_name": ["(\u00b1)-Ethyl mandelate", "Benzeneacetic acid, \u03b1-hydroxy-, ethyl ester", "Mandelic acid, ethyl ester", "Ethyl mandelate", "Ethyl phenylglycolate", "DL-Ethyl mandelate", "dl-Mandelic acid ethyl ester", "(\u00b1)-Ethyl mandelate", "DL-Mandelic acid ethyl ester", "(\u00b1)-\u03b1-Hydroxybenzeneacetic acid ethyl ester", "(\u00b1)-Mandelic acid ethyl ester", "Ethyl hydroxy(phenyl)acetate", "Ethyl \u03b1-hydroxyphenylacetate", "NSC 5307", "Ethyl 2-hydroxy-2-phenylacetate", "Ethyl \u03b1-hydroxybenzeneacetate", "Ethyl amygdalate", "Ethyl 2-phenyl-2-hydroxyacetate"], "SMILES": "C(C(OCC)=O)(O)C1=CC=CC=C1", "physical_data": {"Molecular Weight": "180.20", "Molecular Formula": "C10H12O3", "Boiling Point": "130-135 \u00b0C @ Press: 13 Torr", "Melting Point": "35 \u00b0C"}}