{"cas_no": "774-07-2", "cn_name": "4-\u6c28\u57fa-2-\u5def\u57fa\u5627\u5576-5-\u7fa7\u9178\u4e59\u916f", "en_name": ["Ethyl 6-amino-1,2-dihydro-2-thioxo-5-pyrimidinecarboxylate", "5-Pyrimidinecarboxylic acid, 6-amino-1,2-dihydro-2-thioxo-, ethyl ester", "5-Pyrimidinecarboxylic acid, 4-amino-2-mercapto-, ethyl ester", "5-Pyrimidinecarboxylic acid, 4-amino-1,2-dihydro-2-thioxo-, ethyl ester", "Ethyl 6-amino-1,2-dihydro-2-thioxo-5-pyrimidinecarboxylate", "NSC 9308"], "SMILES": "C(OCC)(=O)C1=C(N)NC(=S)N=C1", "physical_data": {"Molecular Weight": "199.23", "Molecular Formula": "C7H9N3O2S", "Melting Point": "260-265 \u00b0C"}}