{"cas_no": "774-48-1", "cn_name": "\u82ef\u7532\u919b\u4e8c\u4e59\u7f29\u919b", "en_name": ["(Diethoxymethyl)benzene", "Benzene, (diethoxymethyl)-", "Benzaldehyde, diethyl acetal", "(Diethoxymethyl)benzene", "\u03b1,\u03b1-Diethoxytoluene", "Diethoxyphenylmethane", "Diethyl benzaldehyde acetal", "Ethyl phenyl acetal", "NSC 287", "1,1-Diethoxymethylbenzene"], "SMILES": "C(OCC)(OCC)C1=CC=CC=C1", "physical_data": {"Molecular Weight": "180.24", "Molecular Formula": "C11H16O2", "Boiling Point": "217-221 \u00b0C", "Density": "0.97875 g/cm\u00b3 @ Temp: 25 \u00b0C"}}