{"cas_no": "7742-73-6", "cn_name": "1,3-\u4e8c\u6c2f\u5f02\u55b9\u5549", "en_name": ["1,3-Dichloroisoquinoline", "Isoquinoline, 1,3-dichloro-", "1,3-Dichloroisoquinoline", "NSC 170843"], "SMILES": "ClC=1C2=C(C=C(Cl)N1)C=CC=C2", "physical_data": {"Molecular Weight": "198.05", "Molecular Formula": "C9H5Cl2N", "Melting Point": "123 \u00b0C"}}