{"cas_no": "7745-93-9", "cn_name": "2-\u6eb4-4-\u785d\u57fa\u7532\u82ef", "en_name": ["2-Bromo-1-methyl-4-nitrobenzene", "Benzene, 2-bromo-1-methyl-4-nitro-", "Toluene, 2-bromo-4-nitro-", "2-Bromo-1-methyl-4-nitrobenzene", "2-Bromo-4-nitrotoluene", "1-Bromo-2-methyl-5-nitrobenzene", "4-Nitro-2-bromotoluene", "NSC 402166", "3-Bromo-4-methylnitrobenzene", "3-Bromo-4-methyl-1-nitrobenzene", "o-Bromo-p-nitrotoluene"], "SMILES": "N(=O)(=O)C1=CC(Br)=C(C)C=C1", "physical_data": {"Molecular Weight": "216.03", "Molecular Formula": "C7H6BrNO2", "Boiling Point": "175 \u00b0C @ Press: 38 Torr", "Melting Point": "78 \u00b0C"}}