{"cas_no": "7745-91-7", "cn_name": "3-\u6eb4-4-\u7532\u57fa\u82ef\u80fa", "en_name": ["3-Bromo-4-methylaniline", "Benzenamine, 3-bromo-4-methyl-", "p-Toluidine, 3-bromo-", "3-Bromo-4-methylbenzenamine", "3-Bromo-p-toluidine", "3-Bromo-4-methylaniline", "4-Amino-2-bromotoluene", "NSC 139873", "3-Bromo-4-methylphenylamine"], "SMILES": "BrC1=C(C)C=CC(N)=C1", "physical_data": {"Molecular Weight": "186.05", "Molecular Formula": "C7H8BrN", "Boiling Point": "255.5 \u00b0C", "Melting Point": "26 \u00b0C"}}