{"cas_no": "7745-92-8", "cn_name": "2-\u7898-4-\u785d\u57fa\u7532\u82ef", "en_name": ["2-Iodo-1-methyl-4-nitrobenzene", "Benzene, 2-iodo-1-methyl-4-nitro-", "Toluene, 2-iodo-4-nitro-", "2-Iodo-1-methyl-4-nitrobenzene", "2-Iodo-4-nitrotoluene", "1-Iodo-2-methyl-5-nitrobenzene", "NSC 310164"], "SMILES": "N(=O)(=O)C1=CC(I)=C(C)C=C1", "physical_data": {"Molecular Weight": "263.03", "Molecular Formula": "C7H6INO2", "Boiling Point": "114-116 \u00b0C @ Press: 0.2 Torr", "Melting Point": "58 \u00b0C"}}