{"cas_no": "7747-35-5", "cn_name": "7A-\u4e59\u57fa\u4e8c\u6c22-1H,3H,5H-\u6076\u5511\u5e76[3,4-C]\u6076\u5511", "en_name": ["Oxazolidine E", "1H,3H,5H-Oxazolo[3,4-c]oxazole, 7a-ethyldihydro-", "7a-Ethyldihydro-1H,3H,5H-oxazolo[3,4-c]oxazole", "5-Ethyl-1-aza-3,7-dioxabicyclo[3.3.0]octane", "Oxazolidine E", "Chemtan A 60", "Zoldine ZE", "Neosyn TX", "Oxaban E", "Bioban CS 1246", "Paramel TX 50", "Amine CS 1246", "CS 1246", "Canguard 96", "Truptan OX-E", "RGT 23416", "7-Ethylbicyclooxazolidine"], "SMILES": "C(C)C12N(COC1)COC2", "physical_data": {"Molecular Weight": "143.18", "Molecular Formula": "C7H13NO2", "Boiling Point": "73 \u00b0C @ Press: 29 Torr"}}