{"cas_no": "77472-71-0", "cn_name": "\u82ef\u57fa\u5421\u62c9\u897f\u5766\u80bc", "en_name": ["1-Pyrrolidineacetic acid, 2-oxo-4-phenyl-, hydrazide", "1-Pyrrolidineacetic acid, 2-oxo-4-phenyl-, hydrazide", "2-Oxo-4-phenylpyrrolidine-1-acetic acid hydrazide"], "SMILES": "C(C(NN)=O)N1CC(CC1=O)C2=CC=CC=C2", "physical_data": {"Molecular Weight": "233.27", "Molecular Formula": "C12H15N3O2", "Melting Point": "154-155 \u00b0C"}}