{"cas_no": "7748-58-5", "cn_name": "5-\u6eb4-6-\u785d\u57fa-1,2-\u4e9a\u7532\u4e8c\u6c27\u57fa\u82ef", "en_name": ["5-Bromo-6-nitro-1,3-benzodioxole", "1,3-Benzodioxole, 5-bromo-6-nitro-", "Benzene, 1-bromo-4,5-(methylenedioxy)-2-nitro-", "5-Bromo-6-nitro-1,3-benzodioxole", "2-Bromo-4,5-methylenedioxynitrobenzene", "2-Bromo-3,4-methylenedioxynitrobenzene", "4-Bromo-5-nitro-1,2-methylenedioxybenzene", "6-Nitro-5-bromobenzodioxol"], "SMILES": "N(=O)(=O)C=1C=C2C(=CC1Br)OCO2", "physical_data": {"Molecular Weight": "246.01", "Molecular Formula": "C7H4BrNO4", "Melting Point": "89 \u00b0C"}}