{"cas_no": "77481-82-4", "cn_name": "N-\u82c4\u57fa\u6c2f\u5316\u55b9\u5576\u55e1", "en_name": ["Cinchonanium, 9-hydroxy-6\u2032-methoxy-1-(phenylmethyl)-, chloride (1:1), (9S)-", "Cinchonanium, 9-hydroxy-6\u2032-methoxy-1-(phenylmethyl)-, chloride (1:1), (9S)-", "Cinchonanium, 9-hydroxy-6\u2032-methoxy-1-(phenylmethyl)-, chloride, (9S)-", "1-Benzylquinidinium chloride", "N-Benzylquinidinium chloride"], "SMILES": "C([N+]12C(C(O)C=3C4=C(C=CC(OC)=C4)N=CC3)CC(C(C=C)C1)CC2)C5=CC=CC=C5.[Cl-]", "physical_data": {"Molecular Weight": "", "Molecular Formula": "C27H31N2O2.Cl", "Melting Point": "178 \u00b0C"}}