{"cas_no": "77498-98-7", "cn_name": "2-\u82ef\u57fa-1H-\u54aa\u5511-4-\u7fa7\u9178\u5355\u6c34\u5408\u7269", "en_name": ["2-Phenyl-1H-imidazole-5-carboxylic acid", "1H-Imidazole-5-carboxylic acid, 2-phenyl-", "1H-Imidazole-4-carboxylic acid, 2-phenyl-", "2-Phenyl-1H-imidazole-5-carboxylic acid", "2-Phenylimidazole-4-carboxylic acid", "2-Phenyl-1H-imidazole-4-carboxylic acid"], "SMILES": "C(O)(=O)C=1NC(=NC1)C2=CC=CC=C2", "physical_data": {"Molecular Weight": "188.18", "Molecular Formula": "C10H8N2O2", "Melting Point": "239 \u00b0C"}}