{"cas_no": "775-56-4", "cn_name": "\u4e8c\u4e59\u6c27\u57fa\u7532\u57fa\u82ef\u57fa\u7845\u70f7", "en_name": ["(Diethoxymethylsilyl)benzene", "Benzene, (diethoxymethylsilyl)-", "Silane, diethoxymethylphenyl-", "(Diethoxymethylsilyl)benzene", "Methylphenyldiethoxysilane", "Phenylmethyldiethoxysilane", "Diethoxymethylphenylsilane", "LS 3970", "Diethoxyphenylmethylsilane"], "SMILES": "[Si](OCC)(OCC)(C)C1=CC=CC=C1", "physical_data": {"Molecular Weight": "210.34", "Molecular Formula": "C11H18O2Si", "Boiling Point": "218 \u00b0C", "Density": "0.963 g/cm\u00b3"}}