{"cas_no": "775-12-2", "cn_name": "\u4e8c\u82ef\u57fa\u7845\u70f7", "en_name": ["Diphenylsilane", "Benzene, 1,1\u2032-silylenebis-", "Silane, diphenyl-", "1,1\u2032-Silylenebis[benzene]", "Diphenylsilane", "TSL 8224", "NSC 33013", "SID 4559.0"], "SMILES": "[SiH2](C1=CC=CC=C1)C2=CC=CC=C2", "physical_data": {"Molecular Weight": "184.31", "Molecular Formula": "C12H12Si", "Boiling Point": "95-97 \u00b0C @ Press: 13 Torr", "Melting Point": "79 \u00b0C", "Density": "0.996 g/cm\u00b3"}}