{"cas_no": "775-15-5", "cn_name": "N-\u82c4\u57fa-3-\u5421\u54af\u70f7\u9187", "en_name": ["1-(Phenylmethyl)-3-pyrrolidinol", "3-Pyrrolidinol, 1-(phenylmethyl)-", "3-Pyrrolidinol, 1-benzyl-", "1-(Phenylmethyl)-3-pyrrolidinol", "1-Benzyl-3-hydroxypyrrolidine", "1-Benzyl-3-pyrrolidinol", "N-Benzyl-3-hydroxypyrrolidine", "N-Benzyl-3-pyrrolidinol", "(\u00b1)-1-Benzyl-3-hydroxypyrrolidine", "(RS)-N-Benzyl-3-pyrrolidinol"], "SMILES": "C(N1CCC(O)C1)C2=CC=CC=C2", "physical_data": {"Molecular Weight": "177.24", "Molecular Formula": "C11H15NO", "Boiling Point": "113-115 \u00b0C @ Press: 2 Torr", "Density": "1.0688 g/cm\u00b3 @ Temp: 20 \u00b0C"}}