{"cas_no": "775-06-4", "cn_name": "DL-\u95f4\u916a\u6c28\u9178", "en_name": ["DL-m-Tyrosine", "Phenylalanine, 3-hydroxy-", "m-Tyrosine, DL-", "DL-Phenylalanine, 3-hydroxy-", "3-Hydroxyphenylalanine", "DL-\u03b1-m-Tyrosine", "DL-3-(m-Hydroxyphenyl)alanine", "m-DL-Tyrosine", "DL-3-Hydroxyphenylalanine", "DL-Metatyrosine", "Metatyrosine", "DL-m-Hydroxyphenylalanine", "m-Tyrosine", "m-Hydroxyphenylalanine", "DL-m-Tyrosine", "NSC 89304", "2-Amino-3-(3-hydroxyphenyl)propanoic acid", "meta-Tyrosine", "\u03b1-Amino-3-hydroxybenzenepropanoic acid", "2-Azaniumyl-3-(3-hydroxyphenyl)propanoate"], "SMILES": "C(C(C(O)=O)N)C1=CC(O)=CC=C1", "physical_data": {"Molecular Weight": "181.19", "Molecular Formula": "C9H11NO3", "Melting Point": "275 \u00b0C"}}