{"cas_no": "775-16-6", "cn_name": "1-\u82c4\u57fa-3-\u5421\u54af\u70f7\u916e", "en_name": ["1-(Phenylmethyl)-3-pyrrolidinone", "3-Pyrrolidinone, 1-(phenylmethyl)-", "3-Pyrrolidinone, 1-benzyl-", "1-(Phenylmethyl)-3-pyrrolidinone", "1-Benzyl-3-pyrrolidinone", "1-Benzyl-3-pyrrolidone", "N-Benzyl-3-pyrrolidinone"], "SMILES": "C(N1CCC(=O)C1)C2=CC=CC=C2", "physical_data": {"Molecular Weight": "175.23", "Molecular Formula": "C11H13NO", "Boiling Point": "109 \u00b0C @ Press: 1.1 Torr"}}