{"cas_no": "77501-90-7", "cn_name": "\u4e59\u7fa7\u6c1f\u8349\u919a", "en_name": ["Fluoroglycofen-ethyl", "Benzoic acid, 5-[2-chloro-4-(trifluoromethyl)phenoxy]-2-nitro-, 2-ethoxy-2-oxoethyl ester", "Fluoroglycofen-ethyl", "Compete", "RH 0265", "Simtar", "2-Ethoxy-2-oxoethyl 5-(2-chloro-4-(trifluoromethyl)phenoxy)-2-nitrobenzoate"], "SMILES": "C(OCC(OCC)=O)(=O)C1=C(N(=O)=O)C=CC(OC2=C(Cl)C=C(C(F)(F)F)C=C2)=C1", "physical_data": {"Molecular Weight": "447.75", "Molecular Formula": "C18H13ClF3NO7", "Melting Point": "65 \u00b0C"}}