{"cas_no": "7752-82-1", "cn_name": "2-\u6c28\u57fa-5-\u6eb4\u5627\u5576", "en_name": ["2-Amino-5-bromopyrimidine", "2-Pyrimidinamine, 5-bromo-", "Pyrimidine, 2-amino-5-bromo-", "5-Bromo-2-pyrimidinamine", "2-Amino-5-bromopyrimidine", "5-Bromopyrimidin-2-ylamine", "NSC 27269", "5-Bromo-2-aminopyrimidine"], "SMILES": "BrC=1C=NC(N)=NC1", "physical_data": {"Molecular Weight": "174.00", "Molecular Formula": "C4H4BrN3", "Melting Point": "237-238 \u00b0C"}}