{"cas_no": "7752-72-9", "cn_name": "5-CHLORO-6-METHYLPYRIMIDIN-4(1H)-ONE", "en_name": ["5-Chloro-6-methyl-4(3H)-pyrimidinone", "4(3H)-Pyrimidinone, 5-chloro-6-methyl-", "4-Pyrimidinol, 5-chloro-6-methyl-", "4(1H)-Pyrimidinone, 5-chloro-6-methyl-", "5-Chloro-6-methyl-4(3H)-pyrimidinone", "5-Chloro-4-hydroxy-6-methylpyrimidine"], "SMILES": "ClC1=C(C)NC=NC1=O", "physical_data": {"Molecular Weight": "144.56", "Molecular Formula": "C5H5ClN2O", "Melting Point": "209-211 \u00b0C"}}