{"cas_no": "7753-60-8", "cn_name": "\u918b\u9178\u963f\u5948\u53ef\u4ed6", "en_name": ["Anecortave", "Pregna-4,9(11)-diene-3,20-dione, 21-(acetyloxy)-17-hydroxy-", "Pregna-4,9(11)-diene-3,20-dione, 17,21-dihydroxy-, 21-acetate", "21-(Acetyloxy)-17-hydroxypregna-4,9(11)-diene-3,20-dione", "21-Acetoxypregna-4,9(11)-dien-17\u03b1-ol-3,20-dione", "Al 3789", "Anecortave acetate", "Anecortave", "NSC 15475", "NSC 24345", "Retaane", "2-((10S,13S,17R)-17-Hydroxy-10,13-dimethyl-3-oxo-2,3,6,7,8,10,12,13,14,15,16,17-dodecahydro-1H-cyclopenta[a]phenanthren-17-yl)-2-oxoethyl acetate"], "SMILES": "CC12C(C3C(C4(C)C(CC3)=CC(=O)CC4)=CC1)CCC2(C(COC(C)=O)=O)O", "physical_data": {"Molecular Weight": "386.48", "Molecular Formula": "C23H30O5", "Melting Point": "231.5-234.5 \u00b0C"}}