{"cas_no": "77532-90-2", "cn_name": "2-\u6c30\u57fa-4-\u6c1f\u82ef\u7532\u919b", "en_name": ["5-Fluoro-2-formylbenzonitrile", "Benzonitrile, 5-fluoro-2-formyl-", "5-Fluoro-2-formylbenzonitrile"], "SMILES": "C(=O)C1=C(C#N)C=C(F)C=C1", "physical_data": {"Molecular Weight": "149.12", "Molecular Formula": "C8H4FNO", "Melting Point": "120-122 \u00b0C"}}