{"cas_no": "77532-85-5", "cn_name": "\u66f2\u683c\u5217\u6c40\u6742\u8d28", "en_name": ["2-(Dibromomethyl)-5-fluorobenzonitrile", "Benzonitrile, 2-(dibromomethyl)-5-fluoro-", "2-(Dibromomethyl)-5-fluorobenzonitrile"], "SMILES": "C(#N)C1=C(C(Br)Br)C=CC(F)=C1", "physical_data": {"Molecular Weight": "292.93", "Molecular Formula": "C8H4Br2FN", "Melting Point": "34-36 \u00b0C"}}