{"cas_no": "7755-92-2", "cn_name": "1-\u7532\u919b\u54cc\u55ea", "en_name": ["1-Piperazinecarboxaldehyde", "1-Piperazinecarboxaldehyde", "N-Formylpiperazine", "1-Formylpiperazine", "4-Formylpiperazine", "Piperazine-1-formamide", "1-Formylpyrazine", "NSC 511082", "1-Piperazinecarbaldehyde"], "SMILES": "C(=O)N1CCNCC1", "physical_data": {"Molecular Weight": "114.15", "Molecular Formula": "C5H10N2O", "Boiling Point": "115-120 \u00b0C @ Press: 4 Torr", "Melting Point": "205-207 \u00b0C"}}