{"cas_no": "7756-96-9", "cn_name": "\u90bb\u6c28\u57fa\u82ef\u7532\u9178\u4e01\u916f", "en_name": ["Butyl anthranilate", "Benzoic acid, 2-amino-, butyl ester", "Anthranilic acid, butyl ester", "Butyl anthranilate", "2-Aminobenzoic acid butyl ester", "Butyl o-aminobenzoate", "NSC 406509", "Butyl 2-aminobenzoate"], "SMILES": "C(OCCCC)(=O)C1=C(N)C=CC=C1", "physical_data": {"Molecular Weight": "193.24", "Molecular Formula": "C11H15NO2", "Boiling Point": "182 \u00b0C", "Melting Point": "&lt;0 \u00b0C"}}