{"cas_no": "7756-94-7", "cn_name": "\u4e09\u5f02\u4e01\u70ef", "en_name": ["1-Propene, 2-methyl-, trimer", "1-Propene, 2-methyl-, trimer", "Propene, 2-methyl-, trimer", "Triisobutylene", "Isobutene trimer", "Isobutylene trimer", "IP 1620R", "NAS 3"], "SMILES": "C(C)(C)=C", "physical_data": {"Molecular Weight": "", "Molecular Formula": "(C4H8)3", "Boiling Point": "180 \u00b0C", "Melting Point": "-76 \u00b0C", "Density": "0.7658 g/cm\u00b3 @ Temp: 20 \u00b0C"}}