{"cas_no": "7756-87-8", "cn_name": "1,3-\u4e8c\u6c2f\u56db\u82ef\u57fa\u4e8c\u7845\u6c27\u70f7", "en_name": ["1,3-Dichloro-1,1,3,3-tetraphenyldisiloxane", "Disiloxane, 1,3-dichloro-1,1,3,3-tetraphenyl-", "1,3-Dichloro-1,1,3,3-tetraphenyldisiloxane", "1,3-Dichlorotetraphenyldisiloxane"], "SMILES": "[Si](O[Si](Cl)(C1=CC=CC=C1)C2=CC=CC=C2)(Cl)(C3=CC=CC=C3)C4=CC=CC=C4", "physical_data": {"Molecular Weight": "451.49", "Molecular Formula": "C24H20Cl2OSi2", "Boiling Point": "238-241 \u00b0C @ Press: 1 Torr", "Melting Point": "36-38 \u00b0C"}}