{"cas_no": "7757-87-1", "cn_name": "\u78f7\u9178\u4e09\u9541", "en_name": ["Magnesium phosphate (Mg3(PO4)2)", "Phosphoric acid, magnesium salt (2:3)", "Tribasic magnesium phosphate", "Trimagnesium phosphate", "Trimagnesium diphosphate", "Magnesium phosphate (Mg3(PO4)2)", "Trimagnesium diorthophosphate", "Tertiary magnesium phosphate"], "SMILES": "P(=O)(O)(O)O.[Mg]", "physical_data": {"Molecular Weight": "", "Molecular Formula": "H3O4P.<sup>3</sup>/2Mg", "Melting Point": "1184 \u00b0C"}}