{"cas_no": "7757-79-1", "cn_name": "\u785d\u9178\u94be", "en_name": ["Potassium nitrate", "Nitric acid potassium salt (1:1)", "Nitric acid potassium salt", "Potassium nitrate (1:1)", "Nitre", "Niter", "Potassium nitrate", "Saltpeter", "Collo-Bo", "Nitric acid, potassium salt", "E 252", "Krista K", "Krista K Plus", "Nitrokalite"], "SMILES": "N(=O)(=O)O.[K]", "physical_data": {"Molecular Weight": "", "Molecular Formula": "HNO3.K", "Melting Point": "334 \u00b0C", "Density": "2.109 g/cm\u00b3 @ Temp: 16 \u00b0C"}}