{"cas_no": "7757-82-6", "cn_name": "\u786b\u9178\u94a0", "en_name": ["Sodium sulfate", "Sulfuric acid sodium salt (1:2)", "Sulfuric acid disodium salt", "Sodium sulfate (2:1)", "Sodium sulfate anhydrous", "Disodium sulfate", "Salt cake", "Sodium sulfate", "Sodium sulfate (Na2SO4)", "Disodium monosulfate", "Disodium sulphate", "Bisodium sulfate", "Sodium sulphate", "Kemsol", "Sulfuric acid, disodium salt", "Dibasic sodium sulfate", "A 6", "A 6 (salt)", "A 12", "A 12 (sulfate)", "Na-G 1", "Na-G 0", "T 350", "T 350 (sulfate)", "3ED", "Detergent White Speckle", "S 112289", "B 12078"], "SMILES": "S(=O)(=O)(O)O.[Na]", "physical_data": {"Molecular Weight": "", "Molecular Formula": "H2O4S.2Na", "Melting Point": "888 \u00b0C", "Density": "2.671 g/cm\u00b3"}}