{"cas_no": "7758-05-6", "cn_name": "\u7898\u9178\u94be", "en_name": ["Potassium iodate", "Iodic acid (HIO3), potassium salt (1:1)", "Iodic acid (HIO3), potassium salt", "Potassium iodate", "Potassium iodine oxide (KIO3)"], "SMILES": "I(=O)(=O)O.[K]", "physical_data": {"Molecular Weight": "", "Molecular Formula": "HIO3.K", "Melting Point": "560 \u00b0C", "Density": "3.98 g/cm\u00b3"}}