{"cas_no": "7758-87-4", "cn_name": "\u78f7\u9178\u9499", "en_name": ["Tricalcium phosphate", "Phosphoric acid, calcium salt (2:3)", "Calcium orthophosphate", "Calcium phosphate (Ca3(PO4)2)", "Tricalcium phosphate", "Tricalcium diphosphate", "Calcium phosphate (3:2)", "Calcium phosphate", "Tricalcium orthophosphate", "Calcium tertiary phosphate", "Phosphoric acid calcium(2+) salt (2:3)", "Tertiary calcium phosphate", "Bonarka", "Synthos", "Tricalcium phosphate (Ca3(PO4)2)", "\u03b1-Tricalcium phosphate", "\u03b2-Tricalcium phosphate", "Tribasic calcium phosphate", "Synthograft", "Posture", "TCP", "Calcium orthophosphate (Ca3(PO4)2)", "Posture (calcium supplement)", "TCP 10", "Multifos", "\u03b2-Whitlockite", "\u03b2-TCP", "Apamicron AP 12C", "Ostram", "C 13-09SF", "Cerasorb", "Ceredex", "Osferion", "TCP 118FG", "Allogran-R", "Vitoss", "Calcium phosphate Ca0.75(PO4)0.5", "C 13-09", "Coveg", "Calipharm T", "Ossaplast", "Tricafos P", "TCP 10U", "DET 10", "Osferion G1", "Phos Calcium P 24", "TricOs", "Cerasorb M", "Calciresorb", "Calcium phosphate (Ca10.5(PO4)7)", "JAX TCP", "Calcium phosphate (Ca1.5(PO4))", "Cerasorb Curasan", "Versacal MP", "SuperPore", "Tetrabones", "Expandia R", "nanoXIM-TCP 201", "\u03b1-Ca3(PO4)2", "EPSolute Instant S", "Cafos MF", "Tri-Cafos 200-7", "Calcium phosphate (Ca9(PO4)6)", "Mastergraft"], "SMILES": "P(=O)(O)(O)O.[Ca]", "physical_data": {"Molecular Weight": "", "Molecular Formula": "Ca.<sup>2</sup>/3H3O4P", "Melting Point": "1670 \u00b0C", "Density": "3.14 g/cm\u00b3"}}