{"cas_no": "7758-95-4", "cn_name": "\u6c2f\u5316\u94c5", "en_name": ["Lead chloride", "Lead chloride (PbCl2)", "Lead dichloride", "Lead(II) chloride", "Lead chloride", "Plumbous chloride", "Lead(2+) chloride"], "SMILES": "[Pb](Cl)Cl", "physical_data": {"Molecular Weight": "", "Molecular Formula": "Cl2Pb", "Boiling Point": "950 \u00b0C", "Melting Point": "501 \u00b0C", "Density": "5.85 g/cm\u00b3"}}