{"cas_no": "7758-99-8", "cn_name": "\u4e94\u6c34\u786b\u9178\u94dc", "en_name": ["Copper sulfate pentahydrate", "Sulfuric acid copper(2+) salt (1:1), hydrate (1:5)", "Sulfuric acid copper(2+) salt (1:1), pentahydrate", "Copper sulfate pentahydrate", "Cupric sulfate pentahydrate", "Copper(II) sulfate pentahydrate", "Copper(2+) sulfate pentahydrate", "Copper sulfate (CuSO4) pentahydrate", "Top Lucina HV-WA"], "SMILES": "S(=O)(=O)(O)O.[Cu].O", "physical_data": {"Molecular Weight": "", "Molecular Formula": "Cu.H2O4S.5H2O", "Melting Point": "110 \u00b0C (decomp)", "Density": "2.286 g/cm\u00b3 @ Temp: 15.6 \u00b0C"}}