{"cas_no": "7758-88-5", "cn_name": "\u6c1f\u5316\u94c8", "en_name": ["Cerium trifluoride", "Cerium fluoride (CeF3)", "Cerium trifluoride", "Cerous fluoride"], "SMILES": "[Ce](F)(F)F", "physical_data": {"Molecular Weight": "", "Molecular Formula": "CeF3", "Melting Point": "1459 \u00b0C", "Density": "6.126 g/cm\u00b3"}}