{"cas_no": "7758-01-2", "cn_name": "\u6eb4\u9178\u94be", "en_name": ["Potassium bromate", "Bromic acid, potassium salt (1:1)", "Bromic acid, potassium salt", "Potassium bromate"], "SMILES": "Br(=O)(=O)O.[K]", "physical_data": {"Molecular Weight": "", "Molecular Formula": "BrHO3.K", "Melting Point": "350 \u00b0C", "Density": "3.34 g/cm\u00b3"}}