{"cas_no": "7758-29-4", "cn_name": "\u4e09\u805a\u78f7\u9178\u94a0", "en_name": ["Sodium tripolyphosphate", "Triphosphoric acid, sodium salt (1:5)", "Triphosphoric acid, pentasodium salt", "Pentasodium triphosphate", "Sodium tripolyphosphate (Na5P3O10)", "Sodium triphosphate (Na5P3O10)", "Sodium triphosphate", "Pentasodium tripolyphosphate", "Armofos", "Polygon", "Pentasodium tripolyphosphate (Na5P3O10)", "Pentasodium triphosphate (Na5P3O10)", "Sodium phosphate (Na5P3O10)", "Sodium tripolyphosphate", "Thermphos", "S 400", "Thermphos L 50", "Thermphos N", "Thermphos SPR", "STPP", "Empiphos STP-D", "Freez-Gard FP 19", "Sodium polyphosphate (Na5P3O10)", "Rhodiaphos LV", "STP", "S 400 (phosphate)", "Thermphos NW", "Rhodiaphos H 5", "Rhodiaphos HPA 3.5", "Nutriphos 0-88", "Albriphos 50F", "Rhodiaphos A 4010", "Rhodiaphos A 70HG", "Rhodiaphos C 90H", "Rhodiaphos C 90S Blue TX", "Polypray H", "L 2209", "Tripolyphosphate soda", "Thermphos L 500", "Wandetto B", "Polypray STPP", "Sodium metaphosphate oxide (Na5(PO3)3O)", "E 451i", "STPP 20E", "Phosphorus sodium oxide (P3Na5O10)", "Na5P3O10", "T 5633", "S 400 (mica)", "Z 002"], "SMILES": "O(P(OP(=O)(O)O)(=O)O)P(=O)(O)O.[Na]", "physical_data": {"Molecular Weight": "", "Molecular Formula": "H5O10P3.5Na", "Melting Point": "622 \u00b0C", "Density": "2.52 g/cm\u00b3"}}