{"cas_no": "7758-94-3", "cn_name": "\u6c2f\u5316\u4e9a\u94c1", "en_name": ["Ferrous chloride", "Iron chloride (FeCl2)", "Ferrous chloride", "Iron dichloride", "Iron protochloride", "Iron(2+) chloride", "Iron(II) chloride", "Ferrous dichloride", "Ferro 66", "Iron(II) chloride (FeCl2)", "Ferrous chloride (FeCl2)", "Ferrocat FI", "Ferrosol 9", "Bellair green", "PIX 211", "Glycine, N,N\u2032-1,2-ethanediylbis[N-(carboxymethyl)-, compd. with iron chloride (FeCl2) (1:1)"], "SMILES": "[Fe](Cl)Cl", "physical_data": {"Molecular Weight": "", "Molecular Formula": "Cl2Fe", "Boiling Point": "1023 \u00b0C", "Melting Point": "674 \u00b0C", "Density": "3.16 g/cm\u00b3 @ Temp: 25 \u00b0C"}}