{"cas_no": "7758-89-6", "cn_name": "\u6c2f\u5316\u4e9a\u94dc", "en_name": ["Cuprous chloride", "Copper chloride (CuCl)", "Cuprous chloride", "Copper(I) chloride", "Copper chloride", "Copper monochloride", "Cuprous chloride (CuCl)", "Copper(1+) chloride", "Copper chloride (Cu2Cl2)", "Dicopper dichloride", "Cuprous chloride (Cu2Cl2)"], "SMILES": "Cl[Cu]", "physical_data": {"Molecular Weight": "", "Molecular Formula": "ClCu", "Melting Point": "422 \u00b0C"}}