{"cas_no": "7758-09-0", "cn_name": "\u4e9a\u785d\u9178\u94be", "en_name": ["Potassium nitrite", "Nitrous acid, potassium salt (1:1)", "Nitrous acid, potassium salt", "Potassium nitrite", "Klear", "E 249"], "SMILES": "N(=O)O.[K]", "physical_data": {"Molecular Weight": "", "Molecular Formula": "HNO2.K", "Melting Point": "441 \u00b0C (decomp)", "Density": "1.915 g/cm\u00b3"}}