{"cas_no": "7758-97-6", "cn_name": "\u94ec\u9178\u94c5", "en_name": ["Lead chromate (PbCrO4)", "Chromic acid (H2CrO4), lead(2+) salt (1:1)", "Lead chromate(VI) (PbCrO4)", "Lead chromate", "Lead chromate (PbCrO4)", "Plumbous chromate", "Lead chromium oxide (PbCrO4)", "Royal Yellow 6000", "Chromium lead oxide (CrPbO4)"], "SMILES": "[Cr](O)(O)(=O)=O.[Pb]", "physical_data": {"Molecular Weight": "", "Molecular Formula": "CrH2O4.Pb", "Melting Point": "844 \u00b0C", "Density": "6.12 g/cm\u00b3"}}