{"cas_no": "7758-02-3", "cn_name": "\u6eb4\u5316\u94be", "en_name": ["Potassium bromide", "Potassium bromide (KBr)", "Potassium bromide", "NSC 77367"], "SMILES": "Br[K]", "physical_data": {"Molecular Weight": "", "Molecular Formula": "BrK", "Boiling Point": "1435 \u00b0C", "Melting Point": "730 \u00b0C", "Density": "2.75 g/cm\u00b3 @ Temp: 25 \u00b0C"}}