{"cas_no": "7758-98-7", "cn_name": "\u65e0\u6c34\u786b\u9178\u94dc", "en_name": ["Copper sulfate", "Sulfuric acid copper(2+) salt (1:1)", "Copper(2+) sulfate (1:1)", "Blue stone", "Blue vitriol", "Cupric sulfate", "Cupric sulfate anhydrous", "Cupric sulphate", "Roman vitriol", "Copper sulfate (CuSO4)", "Copper(II) sulfate", "Copper sulfate", "Copper monosulfate", "Copper sulfate (1:1)", "Copper(2+) sulfate", "Blue Copper", "Incracide E 51", "Incracide 10A", "Hylinec", "Monocopper sulfate", "MAC 570", "Cuivrol", "Delcup", "Bluestone", "EarthTec", "Sulfuric acid, copper(2+) salt (1:1)", "Mastercop", "Upinorg", "Reducer Cu", "Baijunling", "Black blue stone", "Sulfuric acid, monocopper(1+) salt", "XWHGS 005", "CuPRiX20", "MeSH ID: D019327"], "SMILES": "S(=O)(=O)(O)O.[Cu]", "physical_data": {"Molecular Weight": "", "Molecular Formula": "Cu.H2O4S", "Melting Point": "590 \u00b0C (decomp)", "Density": "3.6 g/cm\u00b3"}}