{"cas_no": "7759-02-6", "cn_name": "\u786b\u9178\u9536", "en_name": ["Strontium sulfate", "Sulfuric acid, strontium salt (1:1)", "C.I. 77845", "Strontium sulfate", "Strontium monosulfate"], "SMILES": "S(=O)(=O)(O)O.[Sr]", "physical_data": {"Molecular Weight": "", "Molecular Formula": "H2O4S.Sr", "Melting Point": "1605 \u00b0C"}}