{"cas_no": "7759-01-5", "cn_name": "\u94a8\u9178\u94c5", "en_name": ["Lead tungsten oxide (PbWO4)", "Lead tungsten oxide (PbWO4)", "Tungstic acid (H2WO4), lead(2+) salt (1:1)", "Lead tungstate(VI) (PbWO4)", "C.I. 77650", "Lead tungstate (PbWO4)", "Tungstic acid (H2WO4), lead salt", "Plumbous tungstate"], "SMILES": "", "physical_data": {"Molecular Weight": "", "Molecular Formula": "O4PbW", "Melting Point": "1130 \u00b0C", "Density": "8.235 g/cm\u00b3"}}