{"cas_no": "776-99-8", "cn_name": "3,4-\u4e8c\u7532\u6c27\u57fa\u82ef\u4e19\u916e", "en_name": ["(3,4-Dimethoxyphenyl)acetone", "2-Propanone, 1-(3,4-dimethoxyphenyl)-", "2-Propanone, (3,4-dimethoxyphenyl)-", "1-(3,4-Dimethoxyphenyl)-2-propanone", "3,4-Dimethoxybenzyl methyl ketone", "(3,4-Dimethoxyphenyl)acetone", "NSC 16700", "Veratryl acetone", "1-(3,4-Dimethoxyphenyl)acetone"], "SMILES": "O(C)C1=C(OC)C=C(CC(C)=O)C=C1", "physical_data": {"Molecular Weight": "194.23", "Molecular Formula": "C11H14O3", "Boiling Point": "198 \u00b0C @ Press: 20 Torr", "Melting Point": "136-139 \u00b0C"}}