{"cas_no": "776-75-0", "cn_name": "\u82ef\u9170\u6c2e\u82ef\u70f7", "en_name": ["Benzoylpiperidine", "Methanone, phenyl-1-piperidinyl-", "Piperidine, 1-benzoyl-", "Phenyl-1-piperidinylmethanone", "N-Benzoylpiperidine", "Protectine I", "\u03b1-Repellin", "Benzoic acid, piperidide", "P 162", "Benzoylpiperidine", "1-Benzoylpiperidine", "Benzoic acid N-piperidide", "NSC 1992", "NSC 26344", "Phenyl(piperidin-1-yl)methanone"], "SMILES": "C(=O)(C1=CC=CC=C1)N2CCCCC2", "physical_data": {"Molecular Weight": "189.25", "Molecular Formula": "C12H15NO", "Boiling Point": "320.5 \u00b0C", "Melting Point": "49 \u00b0C"}}