{"cas_no": "776-19-2", "cn_name": "\u56db\u6c2f\u7518\u8132", "en_name": ["1,3,4,6-Tetrachlorotetrahydroimidazo[4,5-d]imidazole-2,5(1H,3H)-dione", "Imidazo[4,5-d]imidazole-2,5(1H,3H)-dione, 1,3,4,6-tetrachlorotetrahydro-", "Glycoluril, 1,3,4,6-tetrachloro-", "1,3,4,6-Tetrachlorotetrahydroimidazo[4,5-d]imidazole-2,5(1H,3H)-dione", "1,3,4,6-Tetrachloroglycoluril", "2,4,6,8-Tetrachloro-2,4,6,8-tetraazabicyclo[3.3.0]octane-3,7-dione", "Tetrachloroglycoluril", "Qiangluan", "NSC 100721"], "SMILES": "ClN1C2C(N(Cl)C(=O)N2Cl)N(Cl)C1=O", "physical_data": {"Molecular Weight": "279.90", "Molecular Formula": "C4H2Cl4N4O2", "Melting Point": "205 \u00b0C (decomp)"}}