{"cas_no": "776-86-3", "cn_name": "\u5f02\u83a8\u83ea\u4ead", "en_name": ["Isoscopoletin", "2H-1-Benzopyran-2-one, 6-hydroxy-7-methoxy-", "Coumarin, 6-hydroxy-7-methoxy-", "Herniarin, 6-hydroxy-", "6-Hydroxy-7-methoxy-2H-1-benzopyran-2-one", "Esculetin, 7-methyl ether", "6-Hydroxy-7-methoxycoumarin", "Isoscopoletin", "7-Methoxyesculetin"], "SMILES": "O(C)C=1C=C2C(=CC1O)C=CC(=O)O2", "physical_data": {"Molecular Weight": "192.17", "Molecular Formula": "C10H8O4", "Melting Point": "185 \u00b0C", "Density": "1.37 g/cm\u00b3"}}