{"cas_no": "776-04-5", "cn_name": "2-\u4e09\u6c1f\u7532\u57fa\u82ef\u78fa\u9170\u6c2f", "en_name": ["2-(Trifluoromethyl)benzenesulfonyl chloride", "Benzenesulfonyl chloride, 2-(trifluoromethyl)-", "o-Toluenesulfonyl chloride, \u03b1,\u03b1,\u03b1-trifluoro-", "2-(Trifluoromethyl)benzenesulfonyl chloride", "2-(Trifluoromethyl)phenylsulfonyl chloride", "2-(Trifluoromethyl)benzene-1-sulfonyl chloride", "o-(Trifluoromethyl)benzenesulfonyl chloride"], "SMILES": "C(F)(F)(F)C1=C(S(Cl)(=O)=O)C=CC=C1", "physical_data": {"Molecular Weight": "244.62", "Molecular Formula": "C7H4ClF3O2S", "Boiling Point": "123-126 \u00b0C @ Press: 5 Torr"}}