{"cas_no": "776-74-9", "cn_name": "\u4e8c\u82ef\u57fa\u6eb4\u7532\u70f7", "en_name": ["Bromodiphenylmethane", "Benzene, 1,1\u2032-(bromomethylene)bis-", "Methane, bromodiphenyl-", "1,1\u2032-(Bromomethylene)bis[benzene]", "Bromodiphenylmethane", "Benzhydryl bromide", "Diphenylmethyl bromide", "\u03b1-Bromodiphenylmethane", "Diphenylbromomethane", "\u03b1-Phenylbenzyl bromide", "1-[Bromo(phenyl)methyl]benzene", "NSC 39226", "(Bromomethylene)dibenzene", "[Bromo(phenyl)methyl]benzene"], "SMILES": "C(Br)(C1=CC=CC=C1)C2=CC=CC=C2", "physical_data": {"Molecular Weight": "247.13", "Molecular Formula": "C13H11Br", "Boiling Point": "173-180 \u00b0C @ Press: 13 Torr", "Melting Point": "45 \u00b0C"}}