{"cas_no": "776-53-4", "cn_name": "2-\u7532\u57fa\u5def\u57fa-4-\u6c28\u57fa\u5627\u5576-5-\u7532\u9178\u4e59\u916f", "en_name": ["5-Pyrimidinecarboxylic acid, 4-amino-2-(methylthio)-, ethyl ester", "5-Pyrimidinecarboxylic acid, 4-amino-2-(methylthio)-, ethyl ester", "4-Amino-2-methanethiopyrimidine-5-carboxylic acid ethyl ester", "Ethyl 4-amino-2-(methylthio)pyrimidine-5-carboxylate", "NSC 9310", "Ethyl 4-amino-2-methylsulfanyl-5-pyrimidinecarboxylate"], "SMILES": "C(OCC)(=O)C=1C(N)=NC(SC)=NC1", "physical_data": {"Molecular Weight": "213.26", "Molecular Formula": "C8H11N3O2S", "Melting Point": "127-128 \u00b0C"}}