{"cas_no": "776-76-1", "cn_name": "\u4e8c\u82ef\u7532\u57fa\u7845\u70f7", "en_name": ["Methyldiphenylsilane", "Benzene, 1,1\u2032-(methylsilylene)bis-", "Silane, methyldiphenyl-", "1,1\u2032-(Methylsilylene)bis[benzene]", "Diphenylmethylsilane", "Methyldiphenylsilane", "NSC 111638", "SID 4555.0", "LS 4880"], "SMILES": "[SiH](C)(C1=CC=CC=C1)C2=CC=CC=C2", "physical_data": {"Molecular Weight": "198.34", "Molecular Formula": "C13H14Si", "Boiling Point": "266-267 \u00b0C", "Density": "0.997 g/cm\u00b3"}}