{"cas_no": "776-34-1", "cn_name": "1-\u6c28\u57fa-4-\u785d\u57fa\u8418", "en_name": ["1-Amino-4-nitronaphthalene", "1-Naphthalenamine, 4-nitro-", "1-Naphthylamine, 4-nitro-", "4-Nitro-1-naphthalenamine", "1,4-Nitronaphthylamine", "1-Amino-4-nitronaphthalene", "4-Nitro-1-naphthylamine", "4-Nitro-1-naphthamine", "4-Nitro-\u03b1-naphthylamine", "4-Amino-1-nitronaphthalene", "NSC 614", "4-Nitro-1-aminonaphthalene"], "SMILES": "N(=O)(=O)C=1C2=C(C(N)=CC1)C=CC=C2", "physical_data": {"Molecular Weight": "188.18", "Molecular Formula": "C10H8N2O2", "Melting Point": "196 \u00b0C"}}