{"cas_no": "776-35-2", "cn_name": "9,10-\u4e8c\u6c22\u83f2", "en_name": ["9,10-Dihydrophenanthrene", "Phenanthrene, 9,10-dihydro-", "9,10-Dihydrophenanthrene", "NSC 60018"], "SMILES": "C1=2C=3C(CCC1=CC=CC2)=CC=CC3", "physical_data": {"Molecular Weight": "180.25", "Molecular Formula": "C14H12", "Boiling Point": "312-313 \u00b0C @ Press: 739 Torr", "Melting Point": "34.5 \u00b0C"}}