{"cas_no": "776-41-0", "cn_name": "\u5432\u54da-3-\u7532\u9178\u4e59\u916f", "en_name": ["1H-Indole-3-carboxylic acid, ethyl ester", "1H-Indole-3-carboxylic acid, ethyl ester", "Indole-3-carboxylic acid, ethyl ester", "Ethyl indole-3-carboxylate", "NSC 63796", "Ethyl 1H-indole-3-carboxylate", "3-(Ethoxycarbonyl)indole"], "SMILES": "C(OCC)(=O)C=1C=2C(NC1)=CC=CC2", "physical_data": {"Molecular Weight": "189.21", "Molecular Formula": "C11H11NO2", "Melting Point": "82 \u00b0C"}}