{"cas_no": "7761-88-8", "cn_name": "\u785d\u9178\u94f6", "en_name": ["Silver nitrate", "Nitric acid silver(1+) salt (1:1)", "Silver nitrate", "Nitric acid silver(1+) salt", "Silver(1+) nitrate (1:1)", "Silver nitrate (AgNO3)", "Silver(1+) nitrate", "Silver mononitrate", "Nitric acid silver(I) salt", "Nitric acid, silver(1+) salt", "Silver (I) nitrate", "P 2325-03", "MFS 10", "S 116266", "SilverClear DG 300", "MeSH ID: D012835"], "SMILES": "N(=O)(=O)O.[Ag]", "physical_data": {"Molecular Weight": "", "Molecular Formula": "Ag.HNO3", "Melting Point": "212 \u00b0C", "Density": "5.35 g/cm\u00b3"}}