{"cas_no": "7761-45-7", "cn_name": "\u6c2f\u82ef\u6c28\u5576", "en_name": ["Metoprine", "2,4-Pyrimidinediamine, 5-(3,4-dichlorophenyl)-6-methyl-", "Pyrimidine, 2,4-diamino-5-(3,4-dichlorophenyl)-6-methyl-", "5-(3,4-Dichlorophenyl)-6-methyl-2,4-pyrimidinediamine", "2,4-Diamino-5-(3\u2032,4\u2032-dichlorophenyl)-6-methylpyrimidine", "BW 50197", "Methodichlorophen", "2,4-Diamino-5-(3,4-dichlorophenyl)-6-methylpyrimidine", "BW 197U", "DDMP", "Metoprine", "NSC 19494", "NSC 7364", "SK 5265", "U 197"], "SMILES": "CC=1C(=C(N)N=C(N)N1)C2=CC(Cl)=C(Cl)C=C2", "physical_data": {"Molecular Weight": "269.13", "Molecular Formula": "C11H10Cl2N4", "Melting Point": "275-276 \u00b0C", "Density": "1.485 g/cm\u00b3"}}