{"cas_no": "7761-72-0", "cn_name": "4-\u6c28\u57fa\u82ef\u7532\u8112\u76d0\u9178\u76d0", "en_name": ["Benzenecarboximidamide, 4-amino-, hydrochloride (1:1)", "Benzenecarboximidamide, 4-amino-, hydrochloride (1:1)", "Benzamidine, p-amino-, monohydrochloride", "Benzenecarboximidamide, 4-amino-, monohydrochloride", "p-Aminobenzamidine hydrochloride", "4-Aminobenzamidine monohydrochloride", "4-Aminobenzamidine hydrochloride"], "SMILES": "C(=N)(N)C1=CC=C(N)C=C1.Cl", "physical_data": {"Molecular Weight": "", "Molecular Formula": "C7H9N3.ClH", "Melting Point": "225-226 \u00b0C"}}