{"cas_no": "7763-65-7", "cn_name": "L-\u7ec4\u6c28\u9170-L-\u4eae\u6c28\u9178", "en_name": ["L-Histidyl-L-leucine", "L-Leucine, L-histidyl-", "Leucine, N-L-histidyl-, L-", "L-Leucine, N-L-histidyl-", "Leucine, N-histidyl-", "L-Histidyl-L-leucine", "Histidylleucine", "N-Histidylleucine", "28: PN: WO2009143133 PAGE: 61 claimed protein", "83: PN: EP2161028 PAGE: 10 claimed protein", "20: PN: WO2021211467 SEQID: 173 claimed sequence", "789: PN: WO2022215055 SEQID: 789 claimed protein"], "SMILES": "C(C(C(NC(CC(C)C)C(O)=O)=O)N)C1=CN=CN1", "physical_data": {"Molecular Weight": "268.31", "Molecular Formula": "C12H20N4O3", "Melting Point": "214-217 \u00b0C (decomp)"}}