{"cas_no": "7763-16-8", "cn_name": "Z-\u8c37\u6c28\u9170\u80fa\u5bf9\u785d\u57fa\u82ef\u916f", "en_name": ["N2-[(Phenylmethoxy)carbonyl]-L-glutamine 4-nitrophenyl ester", "L-Glutamine, N2-[(phenylmethoxy)carbonyl]-, 4-nitrophenyl ester", "Glutamine, N2-carboxy-, N2-benzyl p-nitrophenyl ester, L-", "Glutamine, N2-carboxy-, N-benzyl p-nitrophenyl ester", "N2-[(Phenylmethoxy)carbonyl]-L-glutamine 4-nitrophenyl ester", "N2-(Benzyloxycarbonyl)-L-glutamine p-nitrophenyl ester", "N-Carbobenzoxy-L-glutamine-p-nitrophenyl ester"], "SMILES": "C(C(OC1=CC=C(N(=O)=O)C=C1)=O)(NC(OCC2=CC=CC=C2)=O)CCC(N)=O", "physical_data": {"Molecular Weight": "401.37", "Molecular Formula": "C19H19N3O7", "Melting Point": "151-153 \u00b0C"}}