{"cas_no": "7764-50-3", "cn_name": "2-\u7532\u57fa-5-(1-\u7532\u57fa\u4e59\u70ef\u57fa)\u73af\u5df1\u916e", "en_name": ["p-Menth-8-en-2-one", "Cyclohexanone, 2-methyl-5-(1-methylethenyl)-", "p-Menth-8-en-2-one", "Carvone, 1,6-dihydro-", "2-Methyl-5-(1-methylethenyl)cyclohexanone", "5-Isopropenyl-2-methylcyclohexanone", "1,6-Dihydrocarvone", "2-Methyl-5-(prop-1-en-2-yl)cyclohexan-1-one", "3-Isoprpopyl-6-methyl-2-ciclohexen-1-one"], "SMILES": "C(C)(=C)C1CC(=O)C(C)CC1", "physical_data": {"Molecular Weight": "152.23", "Molecular Formula": "C10H16O", "Boiling Point": "87-87.5 \u00b0C @ Press: 5 Torr", "Density": "0.929 g/cm\u00b3 @ Temp: 15 \u00b0C"}}