{"cas_no": "7764-95-6", "cn_name": "BOC-D-\u4e19\u6c28\u9178", "en_name": ["BOC-D-alanine", "D-Alanine, N-[(1,1-dimethylethoxy)carbonyl]-", "Alanine, N-carboxy-, N-tert-butyl ester, D-", "N-[(1,1-Dimethylethoxy)carbonyl]-D-alanine", "N-tert-Butoxycarbonyl-D-alanine", "BOC-D-alanine", "N-(tert-Butyloxycarbonyl)-D-alanine", "N-tert-BOC-(R)-alanine", "N-BOC-D-alanine", "(2R)-2-[(tert-Butoxycarbonyl)amino]propanoic acid", "(R)-2-tert-Butoxycarbonylaminopropionic acid", "2R-tert-Butoxycarbonylaminopropionic acid", "(2R)-2-(tert-Butoxycarbonylamino)propionic acid", "(R)-2-[(tert-Butoxycarbonyl)amino]propanoic acid", "(R)-2-tert-Butoxycarbonylaminopropionic acid", "(2R)-2-[[(tert-Butoxy)carbonyl]amino]propanoic acid", "(R)-2-((tert-Butoxycarbonyl)amino)propanoic acid", "(2R)-2-[(2-Methylpropan-2-yl)oxycarbonylamino]propanoic acid"], "SMILES": "N(C(OC(C)(C)C)=O)C(C(O)=O)C", "physical_data": {"Molecular Weight": "189.21", "Molecular Formula": "C8H15NO4", "Melting Point": "80-82 \u00b0C"}}