{"cas_no": "7764-29-6", "cn_name": "N,N\u2032-\u786b\u4ee3\u915e\u9170\u4e9a\u80fa", "en_name": ["2,2\u2032-Thiobis[1H-isoindole-1,3(2H)-dione]", "1H-Isoindole-1,3(2H)-dione, 2,2\u2032-thiobis-", "Phthalimide, N,N\u2032-thiodi-", "2,2\u2032-Thiobis[1H-isoindole-1,3(2H)-dione]", "N,N\u2032-Thiobisphthalimide", "N,N\u2032-Thiodiphthalimide", "NSC 75099", "2,2\u2032-Thiobis(isoindoline-1,3-dione)"], "SMILES": "O=C1C=2C(C(=O)N1SN3C(=O)C=4C(C3=O)=CC=CC4)=CC=CC2", "physical_data": {"Molecular Weight": "324.31", "Molecular Formula": "C16H8N2O4S", "Melting Point": "190 \u00b0C (decomp)"}}