{"cas_no": "7765-11-9", "cn_name": "\u6c2f\u4e59\u9170\u57fa-DL-\u82ef\u4e19\u6c28\u9178", "en_name": ["N-(2-Chloroacetyl)phenylalanine", "Phenylalanine, N-(2-chloroacetyl)-", "Alanine, N-(chloroacetyl)-3-phenyl-, DL-", "DL-Phenylalanine, N-(chloroacetyl)-", "Phenylalanine, N-(chloroacetyl)-", "N-(2-Chloroacetyl)phenylalanine", "N-Chloroacetyl-DL-phenylalanine", "NSC 77369", "2-[(2-Chloroacetyl)amino]-3-phenylpropanoic acid", "2-(2-Chloroacetamido)-3-phenylpropanoic acid", "2-(2-Chloro-acetylamino)-3-phenyl-propionic acid"], "SMILES": "C(CC1=CC=CC=C1)(NC(CCl)=O)C(O)=O", "physical_data": {"Molecular Weight": "241.67", "Molecular Formula": "C11H12ClNO3", "Melting Point": "128-129 \u00b0C"}}