{"cas_no": "77668-42-9", "cn_name": "2,3-\u4e8c\u6c2f\u82ef\u7532\u9170\u6c30", "en_name": ["2,3-Dichloro-\u03b1-oxobenzeneacetonitrile", "Benzeneacetonitrile, 2,3-dichloro-\u03b1-oxo-", "2,3-Dichloro-\u03b1-oxobenzeneacetonitrile", "2,3-Dichlorobenzoyl cyanide", "2,3-Dichlorobenzoyl nitrile", "2-(2,3-Dichlorophenyl)-2-oxoacetonitrile"], "SMILES": "C(C#N)(=O)C1=C(Cl)C(Cl)=CC=C1", "physical_data": {"Molecular Weight": "200.02", "Molecular Formula": "C8H3Cl2NO", "Melting Point": "52-53 \u00b0C"}}