{"cas_no": "77671-31-9", "cn_name": "\u4f9d\u8bfa\u6614\u916e", "en_name": ["Enoximone", "2H-Imidazol-2-one, 1,3-dihydro-4-methyl-5-[4-(methylthio)benzoyl]-", "1,3-Dihydro-4-methyl-5-[4-(methylthio)benzoyl]-2H-imidazol-2-one", "MDL 17043", "Fenoximone", "Enoximone", "RMI 17043", "Perfan", "Perfane", "MeSH ID: D017335"], "SMILES": "C(=O)(C1=C(C)NC(=O)N1)C2=CC=C(SC)C=C2", "physical_data": {"Molecular Weight": "248.30", "Molecular Formula": "C12H12N2O2S", "Melting Point": "256 \u00b0C (decomp)"}}