{"cas_no": "7768-28-7", "cn_name": "\u90bb\u7f9f\u57fa\u82ef\u4e59\u9187", "en_name": ["2-(2-Hydroxyethyl)phenol", "Benzeneethanol, 2-hydroxy-", "Phenethyl alcohol, o-hydroxy-", "2-Hydroxybenzeneethanol", "2-(o-Hydroxyphenyl)ethanol", "\u03b2-(o-Hydroxyphenyl)ethanol", "o-Hydroxyphenethyl alcohol", "2-(2-Hydroxyphenyl)ethanol", "o-(2-Hydroxyethyl)phenol", "2-(2-Hydroxyethyl)phenol", "2-Hydroxyphenethyl alcohol", "1,2-Tyrosol", "2-(2-Hydroxyphenyl)ethyl alcohol", "NSC 101845", "6-(2-Hydroxyethyl)phenol"], "SMILES": "C(CO)C1=C(O)C=CC=C1", "physical_data": {"Molecular Weight": "138.16", "Molecular Formula": "C8H10O2", "Boiling Point": "110 \u00b0C @ Press: 0.55 Torr"}}