{"cas_no": "7769-79-1", "cn_name": "2-\u6c28\u57fa\u5341\u516d\u70f7\u9178", "en_name": ["2-Aminohexadecanoic acid", "Hexadecanoic acid, 2-amino-", "2-Aminohexadecanoic acid", "\u03b1-Aminopalmitic acid", "2-Azaniumylhexadecanoate"], "SMILES": "C(CCCCCCCCCCCC)CC(C(O)=O)N", "physical_data": {"Molecular Weight": "271.44", "Molecular Formula": "C16H33NO2", "Melting Point": "220-225 \u00b0C"}}