{"cas_no": "777-37-7", "cn_name": "2-\u6c2f-5-\u785d\u57fa\u4e09\u6c1f\u7532\u82ef", "en_name": ["2-Chloro-5-nitrobenzotrifluoride", "Benzene, 1-chloro-4-nitro-2-(trifluoromethyl)-", "Toluene, 2-chloro-\u03b1,\u03b1,\u03b1-trifluoro-5-nitro-", "1-Chloro-4-nitro-2-(trifluoromethyl)benzene", "2-Chloro-5-nitrobenzotrifluoride", "4-Chloro-3-(trifluoromethyl)nitrobenzene", "2-(Trifluoromethyl)-4-nitrochlorobenzene", "3-(Trifluoromethyl)-4-chloronitrobenzene", "2-Chloro-\u03b1,\u03b1,\u03b1-trifluoro-5-nitrotoluene", "2-Chloro-5-nitro-1-trifluoromethylbenzene", "2-Chloro-5-nitrotrifluoromethylbenzene", "NSC 9467", "1-Chloro-2-trifluoromethyl-4-nitrobenzene", "4-Nitro-2-(trifluoromethyl)-chlorobenzene"], "SMILES": "C(F)(F)(F)C1=CC(N(=O)=O)=CC=C1Cl", "physical_data": {"Molecular Weight": "225.55", "Molecular Formula": "C7H3ClF3NO2", "Boiling Point": "232 \u00b0C", "Melting Point": "22 \u00b0C"}}