{"cas_no": "777-44-6", "cn_name": "3-\u4e09\u6c1f\u7532\u57fa\u82ef\u78fa\u9170\u6c2f", "en_name": ["3-(Trifluoromethyl)benzenesulfonyl chloride", "Benzenesulfonyl chloride, 3-(trifluoromethyl)-", "m-Toluenesulfonyl chloride, \u03b1,\u03b1,\u03b1-trifluoro-", "3-(Trifluoromethyl)benzenesulfonyl chloride", "m-(Trifluoromethyl)benzenesulfonyl chloride", "\u03b1,\u03b1,\u03b1-Trifluoro-m-toluenesulfonyl chloride", "3-Trifluorobenzenesulfonyl chloride", "3-Trifluoromethylphenylsulfonyl chloride", "Chloro 3-trifluoromethylphenyl sulfone", "3-Trifluoromethylbenzensulfonyl chloride", "3-(Trifluoromethyl)benzene-1-sulfonyl chloride"], "SMILES": "C(F)(F)(F)C1=CC(S(Cl)(=O)=O)=CC=C1", "physical_data": {"Molecular Weight": "244.62", "Molecular Formula": "C7H4ClF3O2S", "Boiling Point": "88-90 \u00b0C @ Press: 6 Torr", "Melting Point": "90-92 \u00b0C"}}