{"cas_no": "777-52-6", "cn_name": "4-\u785d\u57fa\u82ef\u4e8c\u6c2f\u5316\u78f7", "en_name": ["4-Nitrophenyl phosphorodichloridate", "Phosphorodichloridic acid, 4-nitrophenyl ester", "Phenol, p-nitro-, phosphorodichloridate", "4-Nitrophenyl phosphorodichloridate", "Phosphorodichloridic acid p-nitrophenyl ester", "p-Nitrophenyl dichlorophosphate", "p-Nitrophenyl phosphorodichloridate", "O-(4-Nitrophenyl) phosphorodichloridate", "4-Nitrophenyl dichlorophosphate", "Dichloro(p-nitrophenoxy)phosphine oxide", "4-Nitrophenyl phosphoryl dichloride", "Phenyl phosphodichloridate", "1-Dichlorophosphoryloxy-4-nitrobenzene", "1-Dichlorophosphoryloxy-4-nitro-benzene", "(4-Nitrophenoxy)phosphonoyl dichloride"], "SMILES": "O(P(Cl)(Cl)=O)C1=CC=C(N(=O)=O)C=C1", "physical_data": {"Molecular Weight": "255.98", "Molecular Formula": "C6H4Cl2NO4P", "Boiling Point": "180 \u00b0C @ Press: 10 Torr", "Melting Point": "53 \u00b0C"}}