{"cas_no": "7770-78-7", "cn_name": "\u725b\u84a1\u5b50\u82f7\u5143", "en_name": ["(-)-Arctigenin", "2(3H)-Furanone, 4-[(3,4-dimethoxyphenyl)methyl]dihydro-3-[(4-hydroxy-3-methoxyphenyl)methyl]-, (3R,4R)-", "2(3H)-Furanone, 4-[(3,4-dimethoxyphenyl)methyl]dihydro-3-[(4-hydroxy-3-methoxyphenyl)methyl]-, (3R-trans)-", "(3R,4R)-4-[(3,4-Dimethoxyphenyl)methyl]dihydro-3-[(4-hydroxy-3-methoxyphenyl)methyl]-2(3H)-furanone", "Arctigenin", "(-)-Arctigenin", "Arctidine"], "SMILES": "C(C1C(CC2=CC(OC)=C(OC)C=C2)COC1=O)C3=CC(OC)=C(O)C=C3", "physical_data": {"Molecular Weight": "372.41", "Molecular Formula": "C21H24O6", "Melting Point": "100-101 \u00b0C"}}