{"cas_no": "7772-98-7", "cn_name": "\u786b\u4ee3\u786b\u9178\u94a0", "en_name": ["Sodium thiosulfate", "Thiosulfuric acid (H2S2O3), sodium salt (1:2)", "Thiosulfuric acid, disodium salt", "Thiosulfuric acid (H2S2O3), disodium salt", "Disodium thiosulfate", "Hypo", "Sodium thiosulfate", "Sodium thiosulfate anhydrous", "Sodium thiosulfate (Na2(S2O3))", "Sodium oxide sulfide (Na2S2O3)", "Sodium thiosulphate", "S-Hydril", "Sodium hyposulfite", "Sodothiol", "Declor-It", "Chlorine Control", "Chlorine Cure", "Disodium thiosulphate", "Desilube 88", "Sulfactol", "Ametox", "Antichlor", "Sulfothiorine", "MFS 50"], "SMILES": "S(=O)(=O)(O)S.[Na]", "physical_data": {"Molecular Weight": "", "Molecular Formula": "H2O3S2.2Na", "Melting Point": "48 \u00b0C", "Density": "1.667 g/cm\u00b3"}}