{"cas_no": "7772-99-8", "cn_name": "\u6c2f\u5316\u4e9a\u9521", "en_name": ["Stannous chloride", "Tin chloride (SnCl2)", "C.I. 77864", "Stannous chloride", "Tin dichloride", "Tin(II) chloride", "Stannous dichloride", "Tin dichloride (SnCl2)", "Dichlorotin", "Uniston CR-HT 200", "Tin chloride", "Niklad 261", "Stannum dichloride"], "SMILES": "[Sn](Cl)Cl", "physical_data": {"Molecular Weight": "", "Molecular Formula": "Cl2Sn", "Boiling Point": "623 \u00b0C", "Melting Point": "246 \u00b0C", "Density": "3.90 g/cm\u00b3"}}