{"cas_no": "7772-79-4", "cn_name": "D-\u6c28\u57fa\u8461\u8404\u7cd6\u56db\u918b\u9178\u76d0", "en_name": ["\u03b2-D-Glucopyranose, 2-(acetylamino)-2-deoxy-, 1,3,4,6-tetraacetate", "\u03b2-D-Glucopyranose, 2-(acetylamino)-2-deoxy-, 1,3,4,6-tetraacetate", "Glucopyranose, 2-acetamido-2-deoxy-, 1,3,4,6-tetraacetate, \u03b2-D-", "N-Acetyl-\u03b2-D-glucosamine tetraacetate", "2-Acetamido-1,3,4,6-tetra-O-acetyl-2-deoxy-\u03b2-D-glucopyranose", "1,3,4,6-Tetra-O-acetyl-N-acetyl-\u03b2-D-glucosamine", "2-Acetamido-2-deoxy-1,3,4,6-tetra-O-acetyl-\u03b2-D-glucopyranose", "NSC 224432", "2-Acetamido-2-deoxy-\u03b2-D-glucopyranose 1,3,4,6-tetraacetate", "D-Glucosamine pentaacetate"], "SMILES": "O(C(C)=O)C1C(OC(C)=O)C(COC(C)=O)OC(OC(C)=O)C1NC(C)=O", "physical_data": {"Molecular Weight": "389.35", "Molecular Formula": "C16H23NO10", "Melting Point": "187 \u00b0C"}}