{"cas_no": "77732-09-3", "cn_name": "\u6076\u971c\u7075", "en_name": ["Oxadixyl", "Acetamide, N-(2,6-dimethylphenyl)-2-methoxy-N-(2-oxo-3-oxazolidinyl)-", "N-(2,6-Dimethylphenyl)-2-methoxy-N-(2-oxo-3-oxazolidinyl)acetamide", "SAN 371F", "Sandofan", "Oxadixyl", "SAN 371", "N-(2-Methoxyacetyl)-N-(2,6-xylyl)-3-amino-1,3-oxazolidin-2-one", "M 10797"], "SMILES": "N(C(COC)=O)(C1=C(C)C=CC=C1C)N2C(=O)OCC2", "physical_data": {"Molecular Weight": "278.30", "Molecular Formula": "C14H18N2O4", "Melting Point": "104 \u00b0C"}}