{"cas_no": "7773-01-5", "cn_name": "\u6c2f\u5316\u9530", "en_name": ["Manganese dichloride", "Manganese chloride (MnCl2)", "Manganese(II) chloride", "Manganous chloride", "Manganese chloride", "Manganese dichloride", "NSC 9879", "CMC 001"], "SMILES": "[Mn](Cl)Cl", "physical_data": {"Molecular Weight": "", "Molecular Formula": "Cl2Mn", "Boiling Point": "1190 \u00b0C", "Melting Point": "650 \u00b0C", "Density": "2.977 g/cm\u00b3 @ Temp: 25 \u00b0C"}}