{"cas_no": "7773-03-7", "cn_name": "\u4e9a\u786b\u9178\u6c22\u94be", "en_name": ["Potassium bisulfite", "Sulfurous acid, potassium salt (1:1)", "Sulfurous acid, monopotassium salt", "Potassium sulfite (KHSO3)", "Potassium acid sulfite", "Potassium bisulfite", "Potassium hydrogen sulfite"], "SMILES": "S(=O)(O)O.[K]", "physical_data": {"Molecular Weight": "", "Molecular Formula": "H2O3S.K", "Melting Point": "190 \u00b0C (decomp)"}}