{"cas_no": "7773-06-0", "cn_name": "\u6c28\u57fa\u78fa\u9178\u94f5", "en_name": ["Ammonium sulfamate", "Sulfamic acid, ammonium salt (1:1)", "Sulfamic acid, monoammonium salt", "Ammat", "Ammate X", "Ammonium amidosulphate", "Ammonium sulfamate", "Ammonium sulphamate", "AMS", "Ammonium amidosulfonate", "Ammonium amidosulfate", "AMS (salt)", "Fyran 206K", "Ikurin", "Monoammonium sulfamate", "Ammonium aminosulfonate", "Feliderm K", "Ammate", "Fyran J 3", "Bemiflame PF"], "SMILES": "S(N)(=O)(=O)O.N", "physical_data": {"Molecular Weight": "", "Molecular Formula": "H3NO3S.H3N", "Boiling Point": "160 \u00b0C", "Melting Point": "131 \u00b0C"}}