{"cas_no": "7774-34-7", "cn_name": "\u516d\u6c34\u6c2f\u5316\u9499", "en_name": ["Calcium chloride, hexahydrate", "Calcium chloride (CaCl2), hexahydrate", "Calcium chloride, hexahydrate", "Calcium dichloride hexahydrate"], "SMILES": "[Ca](Cl)Cl.O", "physical_data": {"Molecular Weight": "", "Molecular Formula": "CaCl2.6H2O", "Melting Point": "299 \u00b0C"}}