{"cas_no": "7774-74-5", "cn_name": "2-\u567b\u5429\u786b\u9187", "en_name": ["2-Thiophenethiol", "2-Thiophenethiol", "2-Mercaptothiophene", "\u03b1-Thienyl mercaptan", "2-Thienylmercaptan", "2-Thienylthiol"], "SMILES": "SC1=CC=CS1", "physical_data": {"Molecular Weight": "116.20", "Molecular Formula": "C4H4S2", "Boiling Point": "171.1 \u00b0C", "Density": "1.2454 g/cm\u00b3 @ Temp: 20 \u00b0C"}}