{"cas_no": "7774-44-9", "cn_name": "3-\u7532\u57fa\u4e01\u9178\u73af\u5df1\u57fa\u916f", "en_name": ["Cyclohexyl isovalerate", "Butanoic acid, 3-methyl-, cyclohexyl ester", "Isovaleric acid, cyclohexyl ester", "Cyclohexyl isovalerate", "Cyclohexyl 3-methylbutanoate", "NSC 147480"], "SMILES": "O(C(CC(C)C)=O)C1CCCCC1", "physical_data": {"Molecular Weight": "184.28", "Molecular Formula": "C11H20O2", "Boiling Point": "240-241 \u00b0C @ Press: 760 Torr"}}