{"cas_no": "7774-82-5", "cn_name": "2-\u5341\u4e09(\u78b3)\u70ef\u919b", "en_name": ["2-Tridecenal", "2-Tridecenal", "NSC 617616"], "SMILES": "C(CCCC=CC=O)CCCCCC", "physical_data": {"Molecular Weight": "196.33", "Molecular Formula": "C13H24O", "Boiling Point": "80 \u00b0C @ Press: 0.16 Torr"}}