{"cas_no": "7774-29-0", "cn_name": "\u7898\u5316\u6c5e", "en_name": ["Mercuric iodide", "Mercury iodide (HgI2)", "Mercuric iodide", "Red Mercuric Iodide", "Mercury diiodide", "Mercuric diiodide", "Diiodomercury", "Mercury(2+) diiodide", "Mercury(2+) iodide", "Mercury(II) iodide"], "SMILES": "[Hg](I)I", "physical_data": {"Molecular Weight": "", "Molecular Formula": "HgI2", "Boiling Point": "350 \u00b0C", "Melting Point": "259 \u00b0C", "Density": "6.28 g/cm\u00b3"}}