{"cas_no": "7774-73-4", "cn_name": "3-\u5def\u57fa\u567b\u5429", "en_name": ["3-Thiophenethiol", "3-Thiophenethiol", "3-Thienyl mercaptan", "3-Mercaptothiophene", "3-Thienylthiol"], "SMILES": "SC=1C=CSC1", "physical_data": {"Molecular Weight": "116.20", "Molecular Formula": "C4H4S2", "Boiling Point": "171 \u00b0C", "Density": "1.251 g/cm\u00b3 @ Temp: 25 \u00b0C"}}