{"cas_no": "7775-14-6", "cn_name": "\u8fde\u4e8c\u4e9a\u786b\u9178\u94a0", "en_name": ["Sodium dithionite", "Dithionous acid, sodium salt (1:2)", "Dithionous acid, disodium salt", "Sodium dithionite", "Vatrolite", "Hydros", "Blankit", "Sodium dithionite (Na2(S2O4))", "Disodium dithionite", "Disodium hydrosulfite", "Sodium hydrosulfite", "Sodium hyposulfite", "Burmol", "Sodium hydrosulfite (Na2S2O4)", "V-Brite B", "Blankit IN", "Hydrosulfite R Conc", "Cyclanon ARC", "Blankit S", "Hydrosulfite F", "Oxygen Scavenger SHS", "Albite F"], "SMILES": "S(S(=O)O)(=O)O.[Na]", "physical_data": {"Molecular Weight": "", "Molecular Formula": "H2O4S2.2Na", "Melting Point": "166-168 \u00b0C"}}