{"cas_no": "7775-11-3", "cn_name": "\u94ec\u9178\u94a0", "en_name": ["Disodium chromate", "Chromic acid (H2CrO4), sodium salt (1:2)", "Chromic acid (H2CrO4), disodium salt", "Disodium chromate", "Sodium chromate", "Sodium chromate (Na2(CrO4))", "Chromium disodium oxide", "Chromium sodium oxide (CrNa2O4)", "Disodium chromate (Na2CrO4)", "Sodium chromium oxide (Na2CrO4)", "Sodium chromate (VI)"], "SMILES": "[Cr](O)(O)(=O)=O.[Na]", "physical_data": {"Molecular Weight": "", "Molecular Formula": "CrH2O4.2Na", "Melting Point": "792 \u00b0C", "Density": "2.72 g/cm\u00b3"}}