{"cas_no": "7775-41-9", "cn_name": "\u6c1f\u5316\u94f6", "en_name": ["Silver fluoride", "Silver fluoride (AgF)", "Argentous fluoride", "Silver(I) fluoride", "Silver monofluoride", "Silver fluoride", "Silver(1+) fluoride"], "SMILES": "[Ag]F", "physical_data": {"Molecular Weight": "", "Molecular Formula": "AgF", "Boiling Point": "~1150 \u00b0C (approx)", "Melting Point": "435 \u00b0C", "Density": "5.852 g/cm\u00b3"}}