{"cas_no": "7775-09-9", "cn_name": "\u6c2f\u9178\u94a0", "en_name": ["Sodium chlorate", "Chloric acid, sodium salt (1:1)", "Chloric acid, sodium salt", "Atlacide", "Sodium chlorate", "VAL-DROP", "Shed-A-Leaf", "Sodium chlorate (NaClO3)", "Travex", "Oxycil", "Desolet", "Asex", "B-Herbatox", "Evau-Super", "Kusa-tohru", "Granex O", "Agrosan", "Sodakem", "Chlorate SL", "Defol 750", "Defol 5"], "SMILES": "Cl(=O)(=O)O.[Na]", "physical_data": {"Molecular Weight": "", "Molecular Formula": "ClHO3.Na", "Boiling Point": "122 \u00b0C", "Melting Point": "248 \u00b0C", "Density": "2.5 g/cm\u00b3"}}