{"cas_no": "7775-19-1", "cn_name": "\u504f\u787c\u9178\u94a0", "en_name": ["Sodium metaborate", "Boric acid (HBO2), sodium salt (1:1)", "Boric acid (HBO2), sodium salt", "Sodium borate (NaBO2)", "Borosoap", "Sodium metaborate", "Kodalk", "Sodium metaborate (NaBO2)", "Monosodium metaborate", "Sodium borate (Na2(BO2)2)"], "SMILES": "B(O)=O.[Na]", "physical_data": {"Molecular Weight": "", "Molecular Formula": "BHO2.Na", "Boiling Point": "1434 \u00b0C", "Melting Point": "966 \u00b0C", "Density": "2.464 g/cm\u00b3"}}