{"cas_no": "7776-34-3", "cn_name": "L-\u812f\u6c28\u9178\u76d0\u9178\u76d0", "en_name": ["L-Proline, hydrochloride (1:1)", "L-Proline, hydrochloride (1:1)", "Proline, hydrochloride, L-", "L-Proline, hydrochloride", "Proline hydrochloride", "L-Proline monohydrochloride", "(S)-Pyrrolidine-2-carboxylic acid hydrochloride"], "SMILES": "C(O)(=O)C1CCCN1.Cl", "physical_data": {"Molecular Weight": "", "Molecular Formula": "C5H9NO2.ClH", "Melting Point": "155 \u00b0C"}}