{"cas_no": "7776-48-9", "cn_name": "L-\u679c\u7cd6", "en_name": ["L-Fructose", "L-Fructose", "Fructose, L-", "L-arabino-2-Hexulose"], "SMILES": "C(C(C(CO)=O)O)(C(CO)O)O", "physical_data": {"Molecular Weight": "180.16", "Molecular Formula": "C6H12O6", "Melting Point": "101-103 \u00b0C"}}