{"cas_no": "77771-02-9", "cn_name": "3-\u6eb4-4-\u6c1f\u82ef\u7532\u919b", "en_name": ["3-Bromo-4-fluorobenzaldehyde", "Benzaldehyde, 3-bromo-4-fluoro-", "3-Bromo-4-fluorobenzaldehyde", "4-Fluoro-3-bromobenzaldehyde"], "SMILES": "C(=O)C1=CC(Br)=C(F)C=C1", "physical_data": {"Molecular Weight": "203.01", "Molecular Formula": "C7H4BrFO", "Boiling Point": "85-108 \u00b0C @ Press: 8 Torr", "Melting Point": "30-32 \u00b0C"}}