{"cas_no": "7778-83-8", "cn_name": "\u8089\u6842\u9178\u6b63\u4e19\u916f", "en_name": ["Propyl cinnamate", "2-Propenoic acid, 3-phenyl-, propyl ester", "Cinnamic acid, propyl ester", "Propyl cinnamate", "n-Propyl cinnamate", "Propyl 3-phenylacrylate", "NSC 406146", "Propyl 3-phenyl-2-acrylate"], "SMILES": "C(=CC(OCCC)=O)C1=CC=CC=C1", "physical_data": {"Molecular Weight": "190.24", "Molecular Formula": "C12H14O2", "Boiling Point": "148 \u00b0C @ Press: 15 Torr", "Density": "1.0496 g/cm\u00b3 @ Temp: 20 \u00b0C"}}