{"cas_no": "7778-18-9", "cn_name": "\u786b\u9178\u9499", "en_name": ["Calcium sulfate", "Sulfuric acid, calcium salt (1:1)", "Calcium sulfate", "Calcium sulphate", "Crysalba", "Calcium sulfate (CaSO4)", "Calcium sulfate (1:1)", "Drierite", "Thiolite", "Sulfuric acid calcium salt", "Sulfuric acid calcium(2+) salt (1:1)", "Basic calcium sulfate", "Denka Sigma 1000", "SSS-A", "A 30 (sulfate)", "CAS 20", "A 30", "CA 5 (sulfate)", "CA 5", "CAS 20-4", "Osteoset", "D 101A", "Oparex 10", "D 101A (sulfate)", "Franklin Fiber H 45", "CoCoat P 80HB", "Raddichem 27", "SurgiPlaster", "D 1 (sulfate)", "Capset", "Calmatrix", "GR (sulfate)", "KemWhite CG 80", "JAX CS", "CAB 30", "HG 2 (sulfate)", "NP-S 02", "SK 10", "TR 100 (sulfate)", "E 541", "NP-MO 1", "CaSO4", "NP-S 04", "NW 10 (sulfate)", "NW 20", "NP-M 02I30", "BKL-B 6D556CL1", "NP-M 02", "NP-S 04E", "NP-S 15", "C 804293", "Sudanit 280", "Torowhite Ti-ExR 04", "MeSH ID: D002133"], "SMILES": "S(=O)(=O)(O)O.[Ca]", "physical_data": {"Molecular Weight": "", "Molecular Formula": "Ca.H2O4S", "Melting Point": "1450 \u00b0C", "Density": "2.960 g/cm\u00b3"}}