{"cas_no": "7778-87-2", "cn_name": "\u5e9a\u9178\u4e19\u916f", "en_name": ["Propyl heptanoate", "Heptanoic acid, propyl ester", "Propyl heptanoate", "NSC 23045"], "SMILES": "C(C(OCCC)=O)CCCCC", "physical_data": {"Molecular Weight": "172.26", "Molecular Formula": "C10H20O2", "Boiling Point": "208 \u00b0C", "Melting Point": "-63.5 \u00b0C", "Density": "0.8823 g/cm\u00b3 @ Temp: 0 \u00b0C"}}