{"cas_no": "7778-53-2", "cn_name": "\u78f7\u9178\u4e09\u94be", "en_name": ["Tripotassium phosphate", "Phosphoric acid, potassium salt (1:3)", "Phosphoric acid, tripotassium salt", "Tripotassium phosphate", "Potassium orthophosphate", "Potassium phosphate", "Tripotassium orthophosphate", "Potassium phosphate (K3PO4)", "Potassium tribasic phosphate", "SA 811"], "SMILES": "P(=O)(O)(O)O.[K]", "physical_data": {"Molecular Weight": "", "Molecular Formula": "H3O4P.3K", "Melting Point": "1340 \u00b0C"}}