{"cas_no": "7778-50-9", "cn_name": "\u91cd\u94ec\u9178\u94be", "en_name": ["Potassium dichromate", "Chromic acid (H2Cr2O7), potassium salt (1:2)", "Dichromic acid (H2Cr2O7), dipotassium salt", "Chromic acid (H2Cr2O7), dipotassium salt", "Potassium dichromate", "Potassium bichromate", "Potassium dichromate (K2(Cr2O7))", "Dichromic acid dipotassium salt", "Dipotassium dichromate", "Dipotassium dichromate (K2Cr2O7)", "Potassium dichromate(VI)", "Dipotassium bichromate", "Dipotassium bichromate (K2Cr2O7)", "Chromium potassium oxide (K2Cr2O7)", "SRM 935a", "Dipotassium dichromium heptaoxide", "C 501", "MeSH ID: D011192"], "SMILES": "O([Cr](O)(=O)=O)[Cr](O)(=O)=O.[K]", "physical_data": {"Molecular Weight": "", "Molecular Formula": "Cr2H2O7.2K", "Melting Point": "398 \u00b0C", "Density": "2.676 g/cm\u00b3 @ Temp: 25 \u00b0C"}}