{"cas_no": "7778-77-0", "cn_name": "\u78f7\u9178\u4e8c\u6c22\u94be", "en_name": ["Monopotassium phosphate", "Phosphoric acid, potassium salt (1:1)", "Phosphoric acid, monopotassium salt", "Monopotassium phosphate", "Potassium acid phosphate", "Potassium biphosphate", "Potassium dihydrogen phosphate", "Sorensen's potassium phosphate", "Monopotassium orthophosphate", "Potassium phosphate (K(H2PO4))", "Potassium dihydrogen phosphate (KH2PO4)", "KDP", "Monobasic potassium phosphate", "Monopotassium dihydrogen phosphate", "Dihydrogen potassium phosphate", "Potassium dihydrogen orthophosphate", "Potassium hydrogen phosphate (KH2PO4)", "Potassium diphosphate", "Potassium monobasic phosphate (KH2PO4)", "Potassium phosphate monobasic", "Nutri-Vant-PeaK", "Monopotassium dihydrogen orthophosphate", "MKP", "Hydrogen potassium phosphate (H2KPO4)"], "SMILES": "P(=O)(O)(O)O.[K]", "physical_data": {"Molecular Weight": "", "Molecular Formula": "H3O4P.K", "Melting Point": "253 \u00b0C", "Density": "2.34 g/cm\u00b3"}}