{"cas_no": "7778-43-0", "cn_name": "\u7837\u9178\u94a0", "en_name": ["Sodium arsenate (Na2HAsO4)", "Arsenic acid (H3AsO4), sodium salt (1:2)", "Arsenic acid (H3AsO4), disodium salt", "Sodium biarsenate", "Disodium arsenate", "Disodium hydrogen arsenate", "Sodium arsenate (Na2HAsO4)", "Disodium hydrogen orthoarsenate", "Disodium monohydrogen arsenate", "Hydrogen sodium arsenate (HNa2AsO4)", "Sodium arsenate dibasic"], "SMILES": "[As](=O)(O)(O)O.[Na]", "physical_data": {"Molecular Weight": "", "Molecular Formula": "AsH3O4.2Na", "Melting Point": "57 \u00b0C", "Density": "1.87 g/cm\u00b3"}}