{"cas_no": "7778-74-7", "cn_name": "\u9ad8\u6c2f\u9178\u94be", "en_name": ["Potassium perchlorate", "Perchloric acid, potassium salt (1:1)", "Perchloric acid, potassium salt", "Peroidin", "Potassium perchlorate", "Potassium perchlorate (KClO4)", "Spectrex Fire Extinguishant Formulation A"], "SMILES": "Cl(=O)(=O)(=O)O.[K]", "physical_data": {"Molecular Weight": "", "Molecular Formula": "ClHO4.K", "Melting Point": "525 \u00b0C", "Density": "2.53 g/cm\u00b3"}}