{"cas_no": "7778-80-5", "cn_name": "\u786b\u9178\u94be", "en_name": ["Potassium sulfate", "Sulfuric acid potassium salt (1:2)", "Sulfuric acid dipotassium salt", "Potassium sulfate (2:1)", "Arcanum duplicatum", "Potassium sulfate", "Sal polychrestum", "Tartarus vitriolatus", "Dipotassium sulfate", "Potassium sulfate (K2(SO4))", "Potassium sulphate", "Potassium sulfate (K2SO4)", "Sulfuric acid, dipotassium salt", "Sulfate of potash"], "SMILES": "S(=O)(=O)(O)O.[K]", "physical_data": {"Molecular Weight": "", "Molecular Formula": "H2O4S.2K", "Boiling Point": "1689 \u00b0C", "Melting Point": "1067 \u00b0C", "Density": "2.66 g/cm\u00b3"}}