{"cas_no": "7778-54-3", "cn_name": "\u6b21\u6c2f\u9178\u9499", "en_name": ["Calcium hypochlorite", "Hypochlorous acid, calcium salt (2:1)", "Hypochlorous acid, calcium salt", "Calcium hypochlorite", "Calcium oxychloride", "Lime chloride", "B-K Powder", "Chloride of lime", "Chlorinated lime", "Caporit", "Losantin", "HTH VAN", "Chemichlon G", "HTH (bleaching agent)", "Solvox KS", "Eusol BPC", "T-Eusol", "Chloro lime chemical", "Bleaching powder", "Ca(ClO)2", "Nisso Hi-chlon LC", "Nisso Hi-Chlon", "Perfect PA", "Super Zappit", "Zappit", "calcium di(oxychloride)", "Toyokuron PT-P", "Toyoclon PT-P", "Toyokuron-PTGIII", "Toyokuron", "Toyoclon PTGIII"], "SMILES": "ClO.[Ca]", "physical_data": {"Molecular Weight": "", "Molecular Formula": "Ca.2ClHO", "Melting Point": "100 \u00b0C", "Density": "2.35 g/cm\u00b3"}}