{"cas_no": "7778-39-4", "cn_name": "\u7837\u9178\u3001\u539f\u7837\u9178", "en_name": ["Arsenic acid (H3AsO4)", "Arsenic acid (H3AsO4)", "Orthoarsenic acid", "Arsenic acid"], "SMILES": "[As](=O)(O)(O)O", "physical_data": {"Molecular Weight": "141.94", "Molecular Formula": "AsH3O4", "Melting Point": "35 \u00b0C", "Density": "~2.2 g/cm\u00b3 (approx)"}}