{"cas_no": "7778-85-0", "cn_name": "1,2-\u4e8c\u7532\u6c27\u57fa\u4e19\u70f7", "en_name": ["Propylene glycol dimethyl ether", "Propane, 1,2-dimethoxy-", "1,2-Dimethoxypropane", "Propylene glycol dimethyl ether", "DMFDG", "Hisolve MMPOM"], "SMILES": "C(COC)(OC)C", "physical_data": {"Molecular Weight": "104.15", "Molecular Formula": "C5H12O2", "Boiling Point": "96 \u00b0C"}}