{"cas_no": "7778-44-1", "cn_name": "\u7837\u9178\u9499", "en_name": ["Calcium arsenate", "Arsenic acid (H3AsO4), calcium salt (2:3)", "Calcium arsenate (Ca3(AsO4)2)", "Chip-Cal Granular", "Cucumber dust", "Pencal", "Spra-cal", "Tricalcium arsenate", "Calcium arsenate"], "SMILES": "[As](=O)(O)(O)O.[Ca]", "physical_data": {"Molecular Weight": "", "Molecular Formula": "AsH3O4.<sup>3</sup>/2Ca", "Melting Point": "1455 \u00b0C", "Density": "3.620 g/cm\u00b3"}}