{"cas_no": "7779-30-8", "cn_name": "1-(2,6,6-\u4e09\u7532\u57fa-2-\u73af\u5df1\u70ef-1-\u57fa)-1-\u620a\u70ef-3-\u916e", "en_name": ["5-(2,6,6-Trimethyl-2-cyclohexen-1-yl)-4-penten-3-one", "1-Penten-3-one, 1-(2,6,6-trimethyl-2-cyclohexen-1-yl)-", "1-(2,6,6-Trimethyl-2-cyclohexen-1-yl)-1-penten-3-one", "5-(2,6,6-Trimethyl-2-cyclohexen-1-yl)-4-penten-3-one", "NSC 163996", "1-(2,2,6-Trimethylcyclohex-2-en-1-yl)-1-penten-3-one"], "SMILES": "C(=CC(CC)=O)C1C(C)(C)CCC=C1C", "physical_data": {"Molecular Weight": "206.32", "Molecular Formula": "C14H22O", "Boiling Point": "115 \u00b0C @ Press: 3.8 Torr", "Density": "0.9210 g/cm\u00b3 @ Temp: 25 \u00b0C"}}