{"cas_no": "7779-31-9", "cn_name": "2-\u7532\u57fa-2-\u4e19\u70ef\u9178-3,3,5-\u4e09\u7532\u57fa\u73af\u5df1\u57fa\u916f", "en_name": ["3,3,5-Trimethylcyclohexyl methacrylate", "2-Propenoic acid, 2-methyl-, 3,3,5-trimethylcyclohexyl ester", "Methacrylic acid, 3,3,5-trimethylcyclohexyl ester", "3,3,5-Trimethylcyclohexyl methacrylate", "Isophoryl methacrylate", "SR 421A", "CD 421", "3,3,5-Trimethylcyclohexyl 2-methylprop-2-enoate", "Sartomer CD 421", "Miramer M 1131"], "SMILES": "O(C(C(C)=C)=O)C1CC(C)(C)CC(C)C1", "physical_data": {"Molecular Weight": "210.31", "Molecular Formula": "C13H22O2", "Boiling Point": "79 \u00b0C @ Press: 1.1 Torr", "Density": "0.9255 g/cm\u00b3 @ Temp: 20 \u00b0C"}}