{"cas_no": "7779-65-9", "cn_name": "\u6842\u9178\u5f02\u620a\u916f", "en_name": ["Isoamyl cinnamate", "2-Propenoic acid, 3-phenyl-, 3-methylbutyl ester", "Cinnamic acid, isopentyl ester", "Isopentyl alcohol, cinnamate", "Isoamyl cinnamate"], "SMILES": "C(=CC(OCCC(C)C)=O)C1=CC=CC=C1", "physical_data": {"Molecular Weight": "218.29", "Molecular Formula": "C14H18O2", "Boiling Point": "182-183 \u00b0C @ Press: 17 Torr", "Density": "0.9988 g/cm\u00b3 @ Temp: 20 \u00b0C"}}