{"cas_no": "7779-81-9", "cn_name": "(Z)-2-\u7532\u57fa-2-\u4e01\u9178-2-\u7532\u4e19\u916f", "en_name": ["Isobutyl angelate", "2-Butenoic acid, 2-methyl-, 2-methylpropyl ester, (2Z)-", "Crotonic acid, 2-methyl-, isobutyl ester, (Z)-", "2-Butenoic acid, 2-methyl-, 2-methylpropyl ester, (Z)-", "Angelic acid, isobutyl ester", "Isobutyl angelate", "Isobutyl cis-2-methyl-2-butenoate", "(Z)-Isobutyl 2-methylbut-2-enoate", "2-Methylpropyl angelate"], "SMILES": "C(OCC(C)C)(C(=CC)C)=O", "physical_data": {"Molecular Weight": "156.22", "Molecular Formula": "C9H16O2", "Boiling Point": "176-177 \u00b0C", "Density": "0.8974 g/cm\u00b3 @ Temp: 14 \u00b0C"}}