{"cas_no": "77794-93-5", "cn_name": "\u82c4\u57fa\u56db\u4e59\u57fa\u56db\u6c1f\u787c\u9178\u94f5", "en_name": ["Benzenemethanaminium, N,N,N-triethyl-, tetrafluoroborate(1-) (1:1)", "Benzenemethanaminium, N,N,N-triethyl-, tetrafluoroborate(1-) (1:1)", "Benzenemethanaminium, N,N,N-triethyl-, tetrafluoroborate(1-)", "Borate(1-), tetrafluoro-, N,N,N-triethylbenzenemethanaminium", "Benzyltriethylammonium tetrafluoroborate"], "SMILES": "[B+3]([F-])([F-])([F-])[F-].[N+](CC1=CC=CC=C1)(CC)(CC)CC", "physical_data": {"Molecular Weight": "", "Molecular Formula": "C13H22N.BF4", "Melting Point": "114-115 \u00b0C"}}