{"cas_no": "7779-17-1", "cn_name": "\u8089\u6842\u9178\u73af\u5df1\u916f", "en_name": ["Cyclohexyl cinnamate", "2-Propenoic acid, 3-phenyl-, cyclohexyl ester", "Cinnamic acid, cyclohexyl ester", "Cyclohexyl cinnamate", "NSC 71968"], "SMILES": "O(C(C=CC1=CC=CC=C1)=O)C2CCCCC2", "physical_data": {"Molecular Weight": "230.30", "Molecular Formula": "C15H18O2", "Melting Point": "50-53 \u00b0C"}}