{"cas_no": "7779-75-1", "cn_name": "\u4e59\u9170\u4e59\u9178\u5f02\u4e01\u916f", "en_name": ["Isobutyl acetoacetate", "Butanoic acid, 3-oxo-, 2-methylpropyl ester", "Acetoacetic acid, isobutyl ester", "Isobutyl acetoacetate", "2-Methylpropyl 3-oxobutanoate", "Isobutyl 3-oxobutanoate"], "SMILES": "C(OCC(C)C)(CC(C)=O)=O", "physical_data": {"Molecular Weight": "158.20", "Molecular Formula": "C8H14O3", "Boiling Point": "84.5 \u00b0C @ Press: 11 Torr", "Melting Point": "177-179 \u00b0C", "Density": "0.9697 g/cm\u00b3 @ Temp: 25 \u00b0C"}}