{"cas_no": "7779-80-8", "cn_name": "\u5e9a\u9178\u5f02\u4e01\u916f", "en_name": ["Isobutyl heptanoate", "Heptanoic acid, 2-methylpropyl ester", "Heptanoic acid, isobutyl ester", "Isobutyl heptanoate", "Isobutyl heptylate", "2-Methylpropyl heptanoate"], "SMILES": "C(OCC(C)C)(CCCCCC)=O", "physical_data": {"Molecular Weight": "186.29", "Molecular Formula": "C11H22O2", "Boiling Point": "208 \u00b0C", "Density": "0.8593 g/cm\u00b3 @ Temp: 20 \u00b0C"}}