{"cas_no": "7779-77-3", "cn_name": "2-\u6c28\u57fa\u82ef\u7532\u9178\u5f02\u4e01\u916f", "en_name": ["Isobutyl anthranilate", "Benzoic acid, 2-amino-, 2-methylpropyl ester", "Anthranilic acid, isobutyl ester", "Isobutyl anthranilate", "Isobutyl o-aminobenzoate", "2-Methylpropyl 2-aminobenzoate"], "SMILES": "C(OCC(C)C)(=O)C1=C(N)C=CC=C1", "physical_data": {"Molecular Weight": "193.24", "Molecular Formula": "C11H15NO2", "Melting Point": "135-137 \u00b0C"}}