{"cas_no": "7779-88-6", "cn_name": "\u785d\u9178\u950c", "en_name": ["Zinc nitrate", "Nitric acid, zinc salt (2:1)", "Nitric acid, zinc salt", "Zinc nitrate", "Aerotex Accelerator Number 5", "Zinc dinitrate", "Celloxan", "X 4 (nitrate)", "Zinc nitrate (Zn(NO3)2)", "X 4", "Zinc(II) nitrate", "Catalyst FT", "Zinc nitrate (Zn(NO3)2)", "Zinc, bis(nitrato-\u03baO)-"], "SMILES": "N(=O)(=O)O.[Zn]", "physical_data": {"Molecular Weight": "", "Molecular Formula": "HNO3.<sup>1</sup>/2Zn", "Melting Point": "110 \u00b0C", "Density": "1.522 g/cm\u00b3"}}