{"cas_no": "7779-78-4", "cn_name": "\u03b1-\u5f02\u4e01\u57fa\u82ef\u4e59\u9187", "en_name": ["\u03b1-(2-Methylpropyl)benzeneethanol", "Benzeneethanol, \u03b1-(2-methylpropyl)-", "Phenethyl alcohol, \u03b1-isobutyl-", "2-Pentanol, 4-methyl-1-phenyl-", "\u03b1-(2-Methylpropyl)benzeneethanol", "Isobutyl benzyl carbinol", "\u03b1-Isobutylphenethyl alcohol", "4-Methyl-1-phenylpentan-2-ol"], "SMILES": "C(C(CC(C)C)O)C1=CC=CC=C1", "physical_data": {"Molecular Weight": "178.27", "Molecular Formula": "C12H18O", "Melting Point": "129 \u00b0C"}}