{"cas_no": "7779-50-2", "cn_name": "(Z)-\u6c27\u4ee3\u73af\u5341\u4e03\u78b3-8-\u70ef-2-\u916e", "en_name": ["Oxacycloheptadec-7-en-2-one", "Oxacycloheptadec-7-en-2-one", "1-Oxa-7-cycloheptadecen-2-one", "16-Hydroxy-6-hexadecenoic acid \u03c9-lactone", "16-Hydroxy-6-hexadecenoic acid lactone", "Ambrettol"], "SMILES": "O=C1CCCCC=CCCCCCCCCCO1", "physical_data": {"Molecular Weight": "252.39", "Molecular Formula": "C16H28O2", "Boiling Point": "185 \u00b0C @ Press: 16 Torr"}}