{"cas_no": "778-22-3", "cn_name": "2,2-\u4e8c\u82ef\u57fa\u4e19\u70f7", "en_name": ["Dimethyldiphenylmethane", "Benzene, 1,1\u2032-(1-methylethylidene)bis-", "Propane, 2,2-diphenyl-", "1,1\u2032-(1-Methylethylidene)bis[benzene]", "2,2-Diphenylpropane", "Dimethyldiphenylmethane", "2-Phenylpropan-2-ylbenzene"], "SMILES": "C(C)(C)(C1=CC=CC=C1)C2=CC=CC=C2", "physical_data": {"Molecular Weight": "196.29", "Molecular Formula": "C15H16", "Boiling Point": "282.5 \u00b0C", "Melting Point": "29 \u00b0C", "Density": "0.9958 g/cm\u00b3 @ Temp: 25 \u00b0C"}}