{"cas_no": "778-28-9", "cn_name": "\u5bf9\u7532\u82ef\u78fa\u9178\u6b63\u4e01\u916f", "en_name": ["Butyl p-toluenesulfonate", "Benzenesulfonic acid, 4-methyl-, butyl ester", "p-Toluenesulfonic acid, butyl ester", "Butyl p-toluenesulfonate", "Butyl p-methylbenzenesulfonate", "Butyl 4-toluenesulfonate", "n-Butyl tosylate", "n-Butyl p-toluenesulfonate", "NSC 6190", "4-Methylbenzenesulfonic acid butyl ester", "Toluene-4-sulfonic acid butyl ester", "Butyl 4-methylbenzenesulfonate", "Butyl p-tosylate"], "SMILES": "S(OCCCC)(=O)(=O)C1=CC=C(C)C=C1", "physical_data": {"Molecular Weight": "228.31", "Molecular Formula": "C11H16O3S", "Boiling Point": "170-171 \u00b0C @ Press: 10 Torr", "Density": "1.1319 g/cm\u00b3 @ Temp: 20 \u00b0C"}}