{"cas_no": "778-82-5", "cn_name": "\u5432\u54da-3-\u918b\u9178\u4e59\u916f", "en_name": ["Ethyl 1H-indole-3-acetate", "1H-Indole-3-acetic acid, ethyl ester", "Indole-3-acetic acid, ethyl ester", "Ethyl 1H-indole-3-acetate", "Ethyl indole-3-acetate", "Ethyl \u03b2-indolylacetate", "Ethyl indol-3-ylacetate", "IAA ethyl ester", "3-[(Ethoxycarbonyl)methyl]indole", "NSC 38002", "Ethyl 2-(1H-indol-3-yl)acetate", "Ethyl 2-(indol-3-yl)acetate", "(1H-Indol-3-yl)acetic acid ethyl ester", "Ethyl (1H-indol-3-yl)acetate"], "SMILES": "C(C(OCC)=O)C=1C=2C(NC1)=CC=CC2", "physical_data": {"Molecular Weight": "203.24", "Molecular Formula": "C12H13NO2", "Boiling Point": "164-166 \u00b0C @ Press: 1 Torr", "Melting Point": "119.5 \u00b0C"}}