{"cas_no": "778-36-9", "cn_name": "\u4e94\u6c1f\u82ef\u78fa\u9178\u94a0", "en_name": ["Pentafluorobenzenesulfonamide", "Benzenesulfonamide, 2,3,4,5,6-pentafluoro-", "2,3,4,5,6-Pentafluorobenzenesulfonamide", "Pentafluorobenzenesulfonamide"], "SMILES": "S(N)(=O)(=O)C1=C(F)C(F)=C(F)C(F)=C1F", "physical_data": {"Molecular Weight": "247.14", "Molecular Formula": "C6H2F5NO2S", "Melting Point": "155-156 \u00b0C"}}