{"cas_no": "778-25-6", "cn_name": "\u7f9f\u57fa\u7532\u57fa\u4e8c\u82ef\u57fa\u7845\u70f7", "en_name": ["Methyldiphenylsilanol", "Silanol, 1-methyl-1,1-diphenyl-", "Silanol, methyldiphenyl-", "1-Methyl-1,1-diphenylsilanol", "Diphenyl(hydroxy)methylsilane", "Diphenylmethylsilanol", "Methyldiphenylsilanol", "Methyldiphenylhydroxysilane", "Diphenylmethylhydroxysilane"], "SMILES": "[Si](C)(O)(C1=CC=CC=C1)C2=CC=CC=C2", "physical_data": {"Molecular Weight": "214.34", "Molecular Formula": "C13H14OSi", "Boiling Point": "184-187 \u00b0C @ Press: 24 Torr", "Melting Point": "167 \u00b0C", "Density": "1.084 g/cm\u00b3 @ Temp: 25 \u00b0C"}}