{"cas_no": "778-94-9", "cn_name": "4-\u6c30\u57fa-3-\u785d\u57fa\u4e09\u6c1f\u7532\u57fa\u82ef", "en_name": ["2-Nitro-4-(trifluoromethyl)benzonitrile", "Benzonitrile, 2-nitro-4-(trifluoromethyl)-", "p-Tolunitrile, \u03b1,\u03b1,\u03b1-trifluoro-2-nitro-", "2-Nitro-4-(trifluoromethyl)benzonitrile", "2-Nitro-4-trifluoromethylbenzonitrile", "NSC 88323", "2-Nitro-4-(trifluoromethyl)benzenecarbonitrile"], "SMILES": "N(=O)(=O)C1=C(C#N)C=CC(C(F)(F)F)=C1", "physical_data": {"Molecular Weight": "216.12", "Molecular Formula": "C8H3F3N2O2", "Boiling Point": "156-158 \u00b0C @ Press: 18-19 Torr", "Melting Point": "47-48 \u00b0C"}}