{"cas_no": "7780-06-5", "cn_name": "3-\u82ef\u57fa-2-\u4e19\u70ef\u9178-1-\u7532\u4e59\u916f", "en_name": ["Isopropyl cinnamate", "2-Propenoic acid, 3-phenyl-, 1-methylethyl ester", "Cinnamic acid, isopropyl ester", "Isopropyl cinnamate", "iso-Propyl cinnamate"], "SMILES": "C(=CC(OC(C)C)=O)C1=CC=CC=C1", "physical_data": {"Molecular Weight": "190.24", "Molecular Formula": "C12H14O2", "Boiling Point": "153-155 \u00b0C @ Press: 20 Torr", "Melting Point": "39 \u00b0C", "Density": "1.0320 g/cm\u00b3 @ Temp: 20 \u00b0C"}}