{"cas_no": "7780-20-3", "cn_name": "\u80e1\u6912\u78b1", "en_name": ["Piperidine, 1-[5-(1,3-benzodioxol-5-yl)-1-oxo-2,4-pentadienyl]-", "2,4-Pentadien-1-one, 5-(1,3-benzodioxol-5-yl)-1-(1-piperidinyl)-", "Piperidine, 1-piperoyl-", "Piperidine, 1-[5-(1,3-benzodioxol-5-yl)-1-oxo-2,4-pentadienyl]-", "5-(1,3-Benzodioxol-5-yl)-1-(1-piperidinyl)-2,4-pentadien-1-one", "NSC 242267"], "SMILES": "C(=CC=CC(=O)N1CCCCC1)C=2C=C3C(=CC2)OCO3", "physical_data": {"Molecular Weight": "285.34", "Molecular Formula": "C17H19NO3", "Melting Point": "129 \u00b0C"}}