{"cas_no": "7781-49-9", "cn_name": "5-(4-\u7898\u82ef)-1-(4-\u785d\u57fa\u82ef)-3-\u82ef\u57fa\u7532", "en_name": ["Iodonitrotetrazolium formazan", "Methanone, [2-(4-iodophenyl)diazenyl]phenyl-, 2-(4-nitrophenyl)hydrazone", "Formazan, 1-(p-iodophenyl)-5-(p-nitrophenyl)-3-phenyl-", "Formazan, 1-(4-iodophenyl)-5-(4-nitrophenyl)-3-phenyl-", "Toluene, \u03b1-[(p-iodophenyl)azo]-\u03b1-[(p-nitrophenyl)hydrazono]-", "Diazene, (4-iodophenyl)[[(4-nitrophenyl)hydrazono]phenylmethyl]-", "Iodonitrotetrazolium formazan", "INT-F"], "SMILES": "C(=NNC1=CC=C(N(=O)=O)C=C1)(N=NC2=CC=C(I)C=C2)C3=CC=CC=C3", "physical_data": {"Molecular Weight": "471.25", "Molecular Formula": "C19H14IN5O2", "Melting Point": "184-187 \u00b0C"}}