{"cas_no": "7781-98-8", "cn_name": "3-\u7f9f\u57fa\u82ef\u7532\u9178\u4e59\u916f", "en_name": ["Ethyl 3-hydroxybenzoate", "Benzoic acid, 3-hydroxy-, ethyl ester", "Benzoic acid, m-hydroxy-, ethyl ester", "Ethyl m-hydroxybenzoate", "m-Ethoxycarbonylphenol", "Ethyl 3-hydroxybenzoate", "3-Hydroxybenzoic acid ethyl ester", "m-Hydroxybenzoic acid ethyl ester", "NSC 32427"], "SMILES": "C(OCC)(=O)C1=CC(O)=CC=C1", "physical_data": {"Molecular Weight": "166.17", "Molecular Formula": "C9H10O3", "Melting Point": "74 \u00b0C"}}