{"cas_no": "77811-44-0", "cn_name": "4-\u6eb4-2-\u7532\u57fa-6-\u785d\u57fa\u82ef\u80fa", "en_name": ["4-Bromo-2-methyl-6-nitrobenzenamine", "Benzenamine, 4-bromo-2-methyl-6-nitro-", "4-Bromo-2-methyl-6-nitrobenzenamine", "4-Bromo-2-methyl-6-nitroaniline", "4-Bromo-2-methyl-6-nitrophenylamine", "4-Bromo-6-methyl-2-nitroaniline"], "SMILES": "N(=O)(=O)C1=C(N)C(C)=CC(Br)=C1", "physical_data": {"Molecular Weight": "231.05", "Molecular Formula": "C7H7BrN2O2", "Melting Point": "143-145 \u00b0C"}}