{"cas_no": "7782-39-0", "cn_name": "\u6c18", "en_name": ["Deuterium", "Deuterium", "Diplogen", "Hydrogen-2", "Deuterium molecule", "Hydrogen, isotope of mass 2", "Hydrogen-d2", "Deuterium (D2)", "Dideuterium", "Deuterium mol.", "2H", "MeSH ID: D003903"], "SMILES": "[2H][2H]", "physical_data": {"Molecular Weight": "", "Molecular Formula": "D2", "Boiling Point": "-249.49 \u00b0C", "Density": "0.2059 g/cm\u00b3 @ Temp: -269.0 \u00b0C"}}