{"cas_no": "7782-78-7", "cn_name": "\u4e9a\u785d\u57fa\u786b\u9178", "en_name": ["Nitrosylsulfuric acid", "Sulfuric acid, anhydride with nitrous acid (1:1)", "Nitrosyl sulfate ((NO)H(SO4))", "Nitrosyl sulfate", "Sulfuric acid, monoanhydride with nitrous acid", "Nitrosulfonic acid", "Nitrosyl hydrogen sulfate", "Nitrosylsulfuric acid", "Nitrosylsulfuric acid (NOHSO4)", "Nitrosonium bisulfate", "Nitrosyl bisulfate", "Nitrosonium hydrogen sulfate", "ADWL 03"], "SMILES": "O(S(=O)(=O)O)N=O", "physical_data": {"Molecular Weight": "127.08", "Molecular Formula": "HNO5S", "Melting Point": "73-74 \u00b0C"}}