{"cas_no": "7782-50-5", "cn_name": "\u6c2f", "en_name": ["Chlorine", "Chlorine", "Molecular chlorine", "Chlorine mol.", "Dichlorine", "Diatomic chlorine", "Chlorine molecule (Cl2)", "MeSH ID: D002713"], "SMILES": "ClCl", "physical_data": {"Molecular Weight": "70.91", "Molecular Formula": "Cl2", "Boiling Point": "-34.04 \u00b0C", "Melting Point": "-105.5 \u00b0C", "Density": "1.4 g/cm\u00b3 @ Temp: 20 \u00b0C; Press: 5210 Torr"}}