{"cas_no": "7782-26-5", "cn_name": "R-2-\u82ef\u57fa\u4e19\u9178", "en_name": ["(-)-2-Phenylpropionic acid", "Benzeneacetic acid, \u03b1-methyl-, (\u03b1R)-", "Hydratropic acid, (R)-(-)-", "Benzeneacetic acid, \u03b1-methyl-, (R)-", "(\u03b1R)-\u03b1-Methylbenzeneacetic acid", "(-)-Hydratropic acid", "(-)-2-Phenylpropanoic acid", "(R)-Hydratropic acid", "(R)-2-Phenylpropionic acid", "(-)-2-Phenylpropionic acid", "(-)-\u03b1-Phenylpropionic acid", "(R)-(-)-Hydratropic acid", "(R)-(-)-2-Phenylpropionic acid", "(R)-\u03b1-Methylbenzeneacetic acid", "(R)-\u03b1-Phenylpropionic acid", "(R)-2-Phenylpropanoic acid", "(-)-(R)-2-Phenylpropionic acid", "l-PPA", "(R)-\u03b1-Methylphenylacetic acid", "(2R)-2-Phenylpropanoic acid", "NSC 245032", "(R)-2-Phenylpropanoic acid"], "SMILES": "C(C(O)=O)(C)C1=CC=CC=C1", "physical_data": {"Molecular Weight": "150.17", "Molecular Formula": "C9H10O2", "Boiling Point": "115 \u00b0C @ Press: 1.5 Torr", "Melting Point": "30.0-30.6 \u00b0C"}}