{"cas_no": "7782-41-4", "cn_name": "\u6c1f", "en_name": ["Fluorine", "Fluorine", "Fluorine-19", "Difluorine", "Diatomic fluorine", "Molecular fluorine", "Mol. fluorine", "MeSH ID: D005461"], "SMILES": "FF", "physical_data": {"Molecular Weight": "38.00", "Molecular Formula": "F2", "Boiling Point": "-188.13 \u00b0C", "Melting Point": "-219.61 \u00b0C", "Density": "0.593 g/cm\u00b3"}}