{"cas_no": "7782-24-3", "cn_name": "S-2-\u82ef\u57fa\u4e19\u9178", "en_name": ["(+)-2-Phenylpropionic acid", "Benzeneacetic acid, \u03b1-methyl-, (\u03b1S)-", "Hydratropic acid, (S)-(+)-", "Benzeneacetic acid, \u03b1-methyl-, (S)-", "(\u03b1S)-\u03b1-Methylbenzeneacetic acid", "(+)-Hydratropic acid", "(S)-(+)-\u03b1-Methylphenylacetic acid", "(S)-(+)-Hydratropic acid", "(S)-Hydratropic acid", "(+)-2-Phenylpropanoic acid", "(S)-(+)-2-Phenylpropionic acid", "(S)-2-Phenylpropionic acid", "(+)-2-Phenylpropionic acid", "(+)-\u03b1-Phenylpropionic acid", "(+)-(S)-Hydratropic acid", "(S)-\u03b1-Phenylpropionic acid", "(S)-2-Phenylpropanoic acid", "(+)-(S)-2-Phenylpropionic acid", "d-PPA", "(S)-\u03b1-Methylbenzeneacetic acid", "(2S)-2-Phenylpropanoic acid", "(S)-\u03b1-Methylphenylacetic acid", "(2S)-2-Phenylpropanoic acid"], "SMILES": "C(C(O)=O)(C)C1=CC=CC=C1", "physical_data": {"Molecular Weight": "150.17", "Molecular Formula": "C9H10O2", "Boiling Point": "116-117 \u00b0C @ Press: 2.2 Torr", "Melting Point": "150-153 \u00b0C"}}