{"cas_no": "7782-92-5", "cn_name": "\u6c28\u57fa\u94a0", "en_name": ["Sodium amide", "Sodium amide (Na(NH2))", "Sodium amide", "Sodamide"], "SMILES": "N[Na]", "physical_data": {"Molecular Weight": "", "Molecular Formula": "H2NNa", "Boiling Point": "400 \u00b0C", "Melting Point": "210 \u00b0C", "Density": "1.39 g/cm\u00b3 @ Temp: 20 \u00b0C"}}