{"cas_no": "7782-64-1", "cn_name": "\u6c1f\u5316\u4e9a\u9530", "en_name": ["Manganese fluoride (MnF2)", "Manganese fluoride (MnF2)", "C.I. 77738", "Manganese difluoride", "Manganous fluoride", "Manganese bifluoride", "Manganese(II) fluoride"], "SMILES": "[Mn](F)F", "physical_data": {"Molecular Weight": "", "Molecular Formula": "F2Mn", "Melting Point": "930 \u00b0C"}}