{"cas_no": "7782-65-2", "cn_name": "\u9517\u70f7", "en_name": ["Germane", "Germane", "Germanium hydride (GeH4)", "Germanium tetrahydride", "Monogermane", "Tetrahydrogermane", "Germanium(4+) hydride"], "SMILES": "[GeH4]", "physical_data": {"Molecular Weight": "", "Molecular Formula": "GeH4", "Boiling Point": "-88.5 \u00b0C", "Melting Point": "-165 \u00b0C", "Density": "1.53 g/cm\u00b3"}}