{"cas_no": "7782-68-5", "cn_name": "\u7898\u9178", "en_name": ["Iodic acid", "Iodic acid (HIO3)", "Hydrogen iodate", "Hydrogen iodate (HIO3)", "Iodic acid"], "SMILES": "I(=O)(=O)O", "physical_data": {"Molecular Weight": "175.91", "Molecular Formula": "HIO3", "Melting Point": "110 \u00b0C (decomp)", "Density": "4.63 g/cm\u00b3"}}