{"cas_no": "7782-79-8", "cn_name": "\u8fed\u6c2e\u9178", "en_name": ["Hydrazoic acid", "Hydrazoic acid", "Hydrogen azide", "Azoimide", "Diazoimide", "Hydronitric acid", "Triazoic acid", "Azidic acid"], "SMILES": "[N+](=[N-])=N", "physical_data": {"Molecular Weight": "", "Molecular Formula": "HN3", "Boiling Point": "37 \u00b0C", "Melting Point": "-80 \u00b0C"}}