{"cas_no": "7782-49-2", "cn_name": "\u7852", "en_name": ["Selenium", "Selenium", "C.I. 77805", "B-TRAXIM Se", "Selenium (Se)", "Selsaf 2000", "Serendipita MKCA6-3", "MeSH ID: D012643"], "SMILES": "[Se]", "physical_data": {"Molecular Weight": "", "Molecular Formula": "Se", "Boiling Point": "685 \u00b0C", "Melting Point": "170-217 \u00b0C", "Density": "4.8 g/cm\u00b3"}}