{"cas_no": "7782-61-8", "cn_name": "\u785d\u9178\u94c1(\u4e5d\u6c34)", "en_name": ["Iron nitrate (Fe(NO3)3) nonahydrate", "Nitric acid, iron(3+) salt, nonahydrate", "Ferric nitrate nonahydrate", "Iron(III) nitrate nonahydrate", "Iron trinitrate nonahydrate", "Iron(3+) nitrate nonahydrate", "Iron nitrate (Fe(NO3)3) nonahydrate", "Iron nitrate nonahydrate (Fe(NO3)3.9H2O)"], "SMILES": "N(=O)(=O)O.[Fe].O", "physical_data": {"Molecular Weight": "", "Molecular Formula": "Fe.9H2O.3HNO3", "Melting Point": "47 \u00b0C"}}