{"cas_no": "7782-44-7", "cn_name": "\u6c27", "en_name": ["Oxygen", "Oxygen", "Oxygen molecule", "Molecular oxygen", "Dioxygen", "Phoenix I 2 A 7", "Oxygen gas", "Medicinal Oxygen", "MeSH ID: D010100"], "SMILES": "O=O", "physical_data": {"Molecular Weight": "32.00", "Molecular Formula": "O2", "Boiling Point": "-182.96 \u00b0C", "Melting Point": "-218.4 \u00b0C", "Density": "3.419 g/cm\u00b3"}}