{"cas_no": "7782-89-0", "cn_name": "\u6c28\u57fa\u5316\u9502", "en_name": ["Lithium amide", "Lithium amide (Li(NH2))", "Lithamide", "Lithium amide"], "SMILES": "[Li]N", "physical_data": {"Molecular Weight": "", "Molecular Formula": "H2LiN", "Melting Point": "380-400 \u00b0C", "Density": "1.178 g/cm\u00b3 @ Temp: 17.5 \u00b0C"}}