{"cas_no": "7783-60-0", "cn_name": "\u56db\u6c1f\u5316\u786b", "en_name": ["Sulfur tetrafluoride", "Sulfur fluoride (SF4), (T-4)-", "Sulfur fluoride (SF4)", "Sulfur tetrafluoride", "Tetrafluorosulfurane"], "SMILES": "S(F)(F)(F)F", "physical_data": {"Molecular Weight": "108.06", "Molecular Formula": "F4S", "Boiling Point": "-38 \u00b0C", "Melting Point": "-121.0 \u00b0C", "Density": "1.9191 g/cm\u00b3"}}