{"cas_no": "7783-08-6", "cn_name": "\u7852\u9178", "en_name": ["Selenic acid", "Selenic acid", "Selenium hydroxide oxide (Se(OH)2O2)", "MeSH ID: D064586"], "SMILES": "[Se](=O)(=O)(O)O", "physical_data": {"Molecular Weight": "144.97", "Molecular Formula": "H2O4Se", "Boiling Point": "260 \u00b0C", "Melting Point": "58 \u00b0C"}}