{"cas_no": "7783-68-8", "cn_name": "\u6c1f\u5316\u94cc", "en_name": ["Niobium pentafluoride", "Niobium fluoride (NbF5), (TB-5-11)-", "Niobium fluoride (NbF5)", "Niobium pentafluoride", "Niobium(V) fluoride"], "SMILES": "[Nb](F)(F)(F)(F)F", "physical_data": {"Molecular Weight": "", "Molecular Formula": "F5Nb", "Boiling Point": "234.9 \u00b0C", "Melting Point": "80.0 \u00b0C", "Density": "2.6955 g/cm\u00b3 @ Temp: 80.04 \u00b0C"}}