{"cas_no": "7783-70-2", "cn_name": "\u4e94\u6c1f\u5316\u9511", "en_name": ["Antimony pentafluoride", "Antimony fluoride (SbF5)", "Antimony pentafluoride", "Antimony(V) fluoride", "Pentafluoroantimony"], "SMILES": "[Sb](F)(F)(F)(F)F", "physical_data": {"Molecular Weight": "", "Molecular Formula": "F5Sb", "Boiling Point": "141 \u00b0C", "Melting Point": "8.3 \u00b0C", "Density": "3.097 g/cm\u00b3 @ Temp: 25.8 \u00b0C"}}