{"cas_no": "7783-07-5", "cn_name": "\u7852\u5316\u6c22", "en_name": ["Hydrogen selenide", "Hydrogen selenide (H2Se)", "Selenium hydride", "Selane", "Dihydrogen selenide", "Selenium dihydride", "Dihydrogen monoselenide", "Hydrogen selenide", "NSC 605850", "NSC 605851", "NSC 605852", "Selenium hydride (SeH2)"], "SMILES": "[SeH2]", "physical_data": {"Molecular Weight": "", "Molecular Formula": "H2Se", "Boiling Point": "-41.3 \u00b0C", "Melting Point": "-65.73 \u00b0C", "Density": "2.12 g/cm\u00b3 @ Temp: -42 \u00b0C"}}