{"cas_no": "7783-77-9", "cn_name": "\u516d\u6c1f\u5316\u94bc", "en_name": ["Molybdenum fluoride (MoF6), (OC-6-11)-", "Molybdenum fluoride (MoF6), (OC-6-11)-", "Molybdenum fluoride (MoF6)", "Molybdenum hexafluoride", "Molybdenum(6+) fluoride", "Hexafluoromolybdenum"], "SMILES": "[Mo](F)(F)(F)(F)(F)F", "physical_data": {"Molecular Weight": "", "Molecular Formula": "F6Mo", "Boiling Point": "35 \u00b0C", "Melting Point": "17 \u00b0C"}}