{"cas_no": "7783-62-2", "cn_name": "\u56db\u6c1f\u5316\u9521", "en_name": ["Tin tetrafluoride", "Stannane, tetrafluoro-", "Tin fluoride (SnF4)", "Stannic fluoride", "Tin tetrafluoride", "Tin(4+) fluoride", "Tin(IV) fluoride"], "SMILES": "[Sn](F)(F)(F)F", "physical_data": {"Molecular Weight": "194.70", "Molecular Formula": "F4Sn", "Boiling Point": "705 \u00b0C"}}