{"cas_no": "7783-48-4", "cn_name": "\u6c1f\u5316\u9536", "en_name": ["Strontium fluoride", "Strontium fluoride (SrF2)", "Strontium fluoride", "Strontium difluoride", "Strontium difluoride (SrF2)"], "SMILES": "[Sr](F)F", "physical_data": {"Molecular Weight": "", "Molecular Formula": "F2Sr", "Boiling Point": "2460 \u00b0C", "Melting Point": "1400 \u00b0C", "Density": "4.286 g/cm\u00b3 @ Temp: 25 \u00b0C"}}