{"cas_no": "7783-20-2", "cn_name": "\u786b\u9178\u94f5", "en_name": ["Ammonium sulfate", "Sulfuric acid ammonium salt (1:2)", "Sulfuric acid diammonium salt", "Ammonium sulfate (2:1)", "Ammonium sulfate", "Dolamin", "Ammonium sulfate ((NH4)2SO4)", "Diammonium sulfate", "Diammonium sulphate", "Ammonium sulphate", "Coaltrol LPA 40", "Sulfuric acid, diammonium salt", "Para-Go", "Nonnen R 999-10", "Actimaster AMS", "Tasker Clear", "Busan 1215", "Oxamine 6150", "MeSH ID: D000645"], "SMILES": "S(=O)(=O)(O)O.N", "physical_data": {"Molecular Weight": "", "Molecular Formula": "H3N.<sup>1</sup>/2H2O4S", "Melting Point": "336-339 \u00b0C (decomp)", "Density": "1.769 g/cm\u00b3 @ Temp: 50 \u00b0C"}}