{"cas_no": "7783-49-5", "cn_name": "\u6c1f\u5316\u950c", "en_name": ["Zinc fluoride", "Zinc fluoride (ZnF2)", "Zinc fluoride", "Zinc difluoride", "Zinc difluoride (ZnF2)"], "SMILES": "[Zn](F)F", "physical_data": {"Molecular Weight": "", "Molecular Formula": "F2Zn", "Boiling Point": "1500 \u00b0C", "Melting Point": "872 \u00b0C", "Density": "4.9 g/cm\u00b3"}}