{"cas_no": "7783-93-9", "cn_name": "\u9ad8\u6c2f\u9178\u94f6", "en_name": ["Silver perchlorate", "Perchloric acid, silver(1+) salt (1:1)", "Perchloric acid, silver(1+) salt", "Silver perchlorate", "Silver(1+) perchlorate", "Silver(I) perchlorate", "Silver perchlorate (AgClO4)", "Silver monoperchlorate"], "SMILES": "Cl(=O)(=O)(=O)O.[Ag]", "physical_data": {"Molecular Weight": "", "Molecular Formula": "Ag.ClHO4", "Melting Point": "-6.15 \u00b0C", "Density": "1.04067 g/cm\u00b3 @ Temp: 15 \u00b0C"}}