{"cas_no": "7783-51-9", "cn_name": "\u4e09\u6c1f\u5316\u9553\u4e09\u6c34\u5408\u7269", "en_name": ["Gallium fluoride (GaF3)", "Gallium fluoride (GaF3)", "Gallium trifluoride", "Gallium fluoride", "Trifluorogallium"], "SMILES": "[Ga](F)(F)F", "physical_data": {"Molecular Weight": "", "Molecular Formula": "F3Ga", "Boiling Point": "950 \u00b0C", "Melting Point": "&gt;1000 \u00b0C", "Density": "4.47 g/cm\u00b3 @ Temp: 25 \u00b0C"}}