{"cas_no": "7783-82-6", "cn_name": "\u516d\u6c1f\u5316\u94a8", "en_name": ["Tungsten fluoride (WF6), (OC-6-11)-", "Tungsten fluoride (WF6), (OC-6-11)-", "Tungsten fluoride (WF6)", "Tungsten hexafluoride (WF6)", "Tungsten hexafluoride", "Hexafluorotungsten", "Wolfram hexafluoride", "Tungsten(6+) fluoride", "Tungsten fluoride"], "SMILES": "[W](F)(F)(F)(F)(F)F", "physical_data": {"Molecular Weight": "", "Molecular Formula": "F6W", "Boiling Point": "19.5 \u00b0C", "Melting Point": "2.5 \u00b0C", "Density": "3.44 g/cm\u00b3 @ Temp: 15 \u00b0C"}}