{"cas_no": "7783-54-2", "cn_name": "\u4e09\u6c1f\u5316\u6c2e", "en_name": ["Nitrogen trifluoride", "Nitrogen fluoride (NF3)", "Nitrogen trifluoride", "Perfluoroammonia", "Trifluoroammonia", "Trifluoroamine"], "SMILES": "N(F)(F)F", "physical_data": {"Molecular Weight": "71.00", "Molecular Formula": "F3N", "Boiling Point": "-129 \u00b0C", "Melting Point": "-208.5 \u00b0C", "Density": "1.92 g/cm\u00b3 @ Temp: -216.7 \u00b0C"}}