{"cas_no": "7783-09-7", "cn_name": "\u78b2\u5316\u6c22", "en_name": ["Hydrogen telluride", "Hydrogen telluride (H2Te)", "Tellurium hydride", "Telane", "Dihydrogen telluride", "Hydrogen telluride", "Tellurium hydride (TeH2)"], "SMILES": "[TeH2]", "physical_data": {"Molecular Weight": "", "Molecular Formula": "H2Te", "Boiling Point": "0 \u00b0C", "Melting Point": "-57 \u00b0C"}}