{"cas_no": "7783-71-3", "cn_name": "\u4e94\u6c1f\u5316\u94bd", "en_name": ["Tantalum pentafluoride", "Tantalum fluoride (TaF5)", "Tantalum pentafluoride", "Tantalum fluoride", "Tantalum(V) fluoride"], "SMILES": "[Ta](F)(F)(F)(F)F", "physical_data": {"Molecular Weight": "", "Molecular Formula": "F5Ta", "Boiling Point": "229-230 \u00b0C", "Melting Point": "96-97 \u00b0C", "Density": "4.74 g/cm\u00b3"}}