{"cas_no": "7783-66-6", "cn_name": "\u4e94\u6c1f\u5316\u7898", "en_name": ["Iodine pentafluoride", "Iodine fluoride (IF5)", "Iodine pentafluoride", "Pentafluoroiodine"], "SMILES": "I(F)(F)(F)(F)F", "physical_data": {"Molecular Weight": "221.90", "Molecular Formula": "F5I", "Boiling Point": "100.5 \u00b0C"}}