{"cas_no": "7783-46-2", "cn_name": "\u6c1f\u5316\u94c5", "en_name": ["Lead fluoride", "Lead fluoride (PbF2)", "Lead difluoride", "Plumbous fluoride", "Lead fluoride", "Lead difluoride (PbF2)", "Lead(2+) fluoride"], "SMILES": "[Pb](F)F", "physical_data": {"Molecular Weight": "", "Molecular Formula": "F2Pb", "Boiling Point": "1293 \u00b0C", "Melting Point": "824 \u00b0C"}}