{"cas_no": "7783-47-3", "cn_name": "\u4e8c\u6c1f\u5316\u9521", "en_name": ["Stop", "Tin fluoride (SnF2)", "Fluoristan", "Stannous fluoride", "Tin bifluoride", "Tin difluoride", "Stannous fluoride (SnF2)", "Gel-Tin", "Tin(II) fluoride", "Stop", "Difluorostannylene"], "SMILES": "[Sn](F)F", "physical_data": {"Molecular Weight": "", "Molecular Formula": "F2Sn", "Boiling Point": "850 \u00b0C", "Melting Point": "213 \u00b0C", "Density": "4.57 g/cm\u00b3 @ Temp: 25 \u00b0C"}}