{"cas_no": "7783-40-6", "cn_name": "\u6c1f\u5316\u9541", "en_name": ["Magnesium fluoride", "Magnesium fluoride (MgF2)", "Magnesium fluoride", "Irtran 1", "Magnesium difluoride", "Afluon", "Magnesium difluoride (MgF2)", "Cerac M 2010", "MS 4 (fluoride)", "MS 4", "MFDNB", "Suncolloid MSF 10P", "MSF 10P", "MFDNB 15WT% G 26", "MFW 15WT% E 10", "NanoTek MgF2 Slurry", "NanoTek MgF2", "MFGR 3-6"], "SMILES": "[Mg](F)F", "physical_data": {"Molecular Weight": "", "Molecular Formula": "F2Mg", "Boiling Point": "2260 \u00b0C", "Melting Point": "1265 \u00b0C", "Density": "2.97 g/cm\u00b3"}}