{"cas_no": "7783-79-1", "cn_name": "\u6c1f\u5316\u7852", "en_name": ["Selenium hexafluoride", "Selenium fluoride (SeF6), (OC-6-11)-", "Selenium fluoride (SeF6)", "Selenium hexafluoride"], "SMILES": "[Se](F)(F)(F)(F)(F)F", "physical_data": {"Molecular Weight": "192.95", "Molecular Formula": "F6Se", "Melting Point": "-50.8 \u00b0C", "Density": "8.467 x 10<sup>-3</sup> g/cm\u00b3"}}