{"cas_no": "7783-00-8", "cn_name": "\u4e9a\u7852\u9178", "en_name": ["Selenious acid", "Selenious acid", "Selenious acid (H2SeO3)", "Monohydrated selenium dioxide", "Micro Se", "Selenium hydroxide oxide (Se(OH)2O)", "MeSH ID: D020887"], "SMILES": "[Se](=O)(O)O", "physical_data": {"Molecular Weight": "128.97", "Molecular Formula": "H2O3Se", "Melting Point": "70 \u00b0C (decomp)", "Density": "3.004 g/cm\u00b3 @ Temp: 15 \u00b0C"}}