{"cas_no": "7783-28-0", "cn_name": "\u78f7\u9178\u6c22\u4e8c\u94f5", "en_name": ["Diammonium hydrogen phosphate", "Phosphoric acid, ammonium salt (1:2)", "Phosphoric acid, diammonium salt", "Ammonium phosphate dibasic", "Diammonium hydrogen phosphate", "Diammonium phosphate", "Secondary ammonium phosphate", "Dibasic ammonium phosphate", "Ammonium monohydrogen orthophosphate", "Diammonium monohydrogen phosphate", "Ammonium hydrogen phosphate", "Diammonium orthophosphate", "Diammonium acid phosphate", "Ammonium dibasic phosphate", "Diammonium hydrogen orthophosphate", "Ammonium hydrogen phosphate ((NH4)2HPO4)", "Pelor", "Phos-Chek 202A", "Hydrogen diammonium phosphate", "Coaltrol LPA 445", "Akoustan A", "K 2 (phosphate)", "K 2", "Ammonium orthophosphate dibasic", "Diammonium hydrogen phosphate ((NH4)HPO4)", "Ammonium monohydrogen phosphate", "Ammonium phosphate ((NH4)2(HPO4))", "Spartan AR 295", "DAP", "Pyrozyl WAR"], "SMILES": "P(=O)(O)(O)O.N", "physical_data": {"Molecular Weight": "", "Molecular Formula": "H3N.<sup>1</sup>/2H3O4P", "Melting Point": "155 \u00b0C (decomp)", "Density": "1.619 g/cm\u00b3"}}