{"cas_no": "7783-96-2", "cn_name": "\u7898\u5316\u94f6", "en_name": ["Silver iodide", "Silver iodide (AgI)", "Silver iodide", "Silver monoiodide", "Neosilvol", "Silver(I) iodide", "Argentous iodide"], "SMILES": "[Ag]I", "physical_data": {"Molecular Weight": "", "Molecular Formula": "AgI", "Boiling Point": "1506 \u00b0C", "Melting Point": "552 \u00b0C", "Density": "5.67 g/cm\u00b3"}}