{"cas_no": "7783-61-1", "cn_name": "\u56db\u6c1f\u5316\u7845", "en_name": ["Silicon tetrafluoride", "Silane, tetrafluoro-", "Silicon fluoride (SiF4)", "Tetrafluorosilane", "Silicon tetrafluoride", "Perfluorosilane", "Silicon fluoride"], "SMILES": "[Si](F)(F)(F)F", "physical_data": {"Molecular Weight": "104.08", "Molecular Formula": "F4Si", "Boiling Point": "-86 \u00b0C", "Melting Point": "-95.7 \u00b0C (sublm)", "Density": "1.660 g/cm\u00b3 @ Temp: -95 \u00b0C"}}