{"cas_no": "7783-90-6", "cn_name": "\u6c2f\u5316\u94f6", "en_name": ["Silver chloride", "Silver chloride (AgCl)", "Silver chloride", "Silver monochloride", "Silver(I) chloride", "JMAC LP", "JMAC-LP 10%", "RDAGCL 50", "Dorafresh AG", "Silvertec", "Ultra Fresh Silpure FBR 5", "iSyS AG", "Biostat T", "Biostat B", "Biostat L", "Biostat K", "JM Acticare", "RUCO-BAC AGP", "Schoeller-protec SIL B", "JMAC Composite PG", "Sanitized T 27-22 Silver", "Silpure FBR 5", "Acticide AGT 2", "Argentous chloride", "AgCl (Silver monochloride)", "LP 10", "Silaide"], "SMILES": "[Ag]Cl", "physical_data": {"Molecular Weight": "", "Molecular Formula": "AgCl", "Melting Point": "455 \u00b0C", "Density": "5.501 g/cm\u00b3"}}