{"cas_no": "7783-64-4", "cn_name": "\u6c1f\u5316\u9506", "en_name": ["Zirconium fluoride", "Zirconium fluoride (ZrF4), (T-4)-", "Zirconium fluoride (ZrF4)", "Zirconium tetrafluoride", "Zirconium fluoride", "Zirconium(IV) fluoride"], "SMILES": "[Zr](F)(F)(F)F", "physical_data": {"Molecular Weight": "", "Molecular Formula": "F4Zr", "Melting Point": "1205 \u00b0C"}}