{"cas_no": "7783-99-5", "cn_name": "\u4e9a\u785d\u9178\u94f6", "en_name": ["Silver nitrite", "Nitrous acid, silver(1+) salt (1:1)", "Nitrous acid, silver(1+) salt", "Silver nitrite", "Silver(1+) nitrite", "Silver(I) nitrite", "Silver nitrite (AgNO2)"], "SMILES": "N(=O)O.[Ag]", "physical_data": {"Molecular Weight": "", "Molecular Formula": "Ag.HNO2", "Melting Point": "220-222 \u00b0C"}}