{"cas_no": "7783-56-4", "cn_name": "\u4e09\u6c1f\u5316\u9511", "en_name": ["Trifluorostibine", "Stibine, trifluoro-", "Antimony fluoride (SbF3)", "Trifluorostibine", "Antimonous fluoride", "Antimony trifluoride", "Trifluoroantimony", "Antimony(3+) fluoride", "Antimony(III) fluoride"], "SMILES": "[Sb](F)(F)F", "physical_data": {"Molecular Weight": "", "Molecular Formula": "F3Sb", "Boiling Point": "376 \u00b0C", "Melting Point": "292 \u00b0C", "Density": "4.379 g/cm\u00b3 @ Temp: 20.9 \u00b0C"}}