{"cas_no": "7783-18-8", "cn_name": "\u786b\u4ee3\u786b\u9178\u94f5", "en_name": ["Ammonium thiosulfate", "Thiosulfuric acid (H2S2O3), ammonium salt (1:2)", "Ammonium thiosulfate ((NH4)2S2O3)", "Thiosulfuric acid, diammonium salt", "Thiosulfuric acid (H2S2O3), diammonium salt", "Ammonium hyposulfite", "Diammonium thiosulfate", "Thio-Sul", "Ammonium thiosulfate"], "SMILES": "S(=O)(=O)(O)S.N", "physical_data": {"Molecular Weight": "", "Molecular Formula": "H3N.<sup>1</sup>/2H2O3S2", "Melting Point": "150 \u00b0C (decomp)", "Density": "1.679 g/cm\u00b3"}}