{"cas_no": "7783-41-7", "cn_name": "\u4e00\u6c27\u5316\u4e8c\u6c1f", "en_name": ["Oxygen fluoride (OF2)", "Oxygen fluoride (OF2)", "Fluorine monoxide", "Fluorine oxide", "Oxygen difluoride", "Oxygen fluoride", "Fluorine oxide (F2O)", "Oxydifluoride", "Fluorine monoxide (F2O)", "Difluorine monooxide", "Difluorine monoxide", "Difluorine oxide"], "SMILES": "O(F)F", "physical_data": {"Molecular Weight": "54.00", "Molecular Formula": "F2O", "Boiling Point": "-144.75 \u00b0C", "Melting Point": "-223.8 \u00b0C"}}