{"cas_no": "7783-55-3", "cn_name": "\u4e09\u6c1f\u5316\u78f7", "en_name": ["Phosphorus trifluoride", "Phosphorous trifluoride", "Phosphorus fluoride (PF3)", "Phosphorus trifluoride", "Trifluorophosphine"], "SMILES": "P(F)(F)F", "physical_data": {"Molecular Weight": "87.97", "Molecular Formula": "F3P", "Boiling Point": "-95 \u00b0C", "Melting Point": "-160 \u00b0C"}}