{"cas_no": "7783-58-6", "cn_name": "\u56db\u6c1f\u5316\u9517", "en_name": ["Tetrafluorogermane", "Germane, tetrafluoro-", "Germanium fluoride (GeF4)", "Tetrafluorogermane", "Germanium fluoride", "Germanium tetrafluoride", "Germyl tetrafluoride"], "SMILES": "[Ge](F)(F)(F)F", "physical_data": {"Molecular Weight": "148.63", "Molecular Formula": "F4Ge", "Boiling Point": "-36.5 \u00b0C", "Melting Point": "-15 \u00b0C", "Density": "2.126 g/cm\u00b3 @ Temp: 0 \u00b0C"}}