{"cas_no": "7783-06-4", "cn_name": "\u786b\u5316\u6c22", "en_name": ["Hydrogen sulfide", "Hydrogen sulfide (H2S)", "Hydrosulfuric acid", "Stink damp", "Sulfureted hydrogen", "Sulfur hydride", "Hydrogen sulfide", "Dihydrogen sulfide", "Dihydrogen monosulfide", "Sulfur dihydride", "Sulfur hydride (SH2)", "MeSH ID: D006862"], "SMILES": "S", "physical_data": {"Molecular Weight": "", "Molecular Formula": "H2S", "Boiling Point": "-60.33 \u00b0C", "Melting Point": "-85.49 \u00b0C", "Density": "0.9539 g/cm\u00b3"}}