{"cas_no": "7784-41-0", "cn_name": "\u7837\u9178\u4e8c\u6c22\u94be", "en_name": ["Potassium dihydrogen arsenate", "Arsenic acid (H3AsO4), potassium salt (1:1)", "Potassium arsenate (KH2AsO4)", "Arsenic acid (H3AsO4), monopotassium salt", "Macquer's salt", "Potassium acid arsenate", "Potassium dihydrogen arsenate", "Potassium hydrogen arsenate (KH2AsO4)", "Monopotassium arsenate", "Monopotassium dihydrogen arsenate", "Potassium dihydrogen arsenate (KH2AsO4)", "Dihydrogen potassium arsenate", "Potassium dihydrogen orthoarsenate", "Hydrogen potassium arsenate (H2KAsO4)", "Potassium arsenate (K(H2AsO4))"], "SMILES": "[As](=O)(O)(O)O.[K]", "physical_data": {"Molecular Weight": "", "Molecular Formula": "AsH3O4.K", "Melting Point": "288 \u00b0C", "Density": "2.867 g/cm\u00b3"}}