{"cas_no": "7784-34-1", "cn_name": "\u4e09\u6c2f\u5316\u7837(\u6c2f\u5316\u4e9a\u7837)", "en_name": ["Arsenic chloride (AsCl3)", "Arsenous trichloride", "Arsenic chloride (AsCl3)", "Arsenous chloride", "Fuming liquid arsenic", "Arsenic(III) chloride", "Arsenic trichloride", "Trichloroarsine", "Arsenic(3+) chloride"], "SMILES": "[As](Cl)(Cl)Cl", "physical_data": {"Molecular Weight": "181.28", "Molecular Formula": "AsCl3", "Boiling Point": "130 \u00b0C", "Melting Point": "-16 \u00b0C", "Density": "2.1450 g/cm\u00b3 @ Temp: 25 \u00b0C"}}