{"cas_no": "7784-23-8", "cn_name": "\u7898\u5316\u94dd", "en_name": ["Aluminum iodide", "Aluminum iodide (AlI3)", "Aluminum triiodide", "Aluminum iodide"], "SMILES": "[Al](I)(I)I", "physical_data": {"Molecular Weight": "", "Molecular Formula": "AlI3", "Boiling Point": "386 \u00b0C", "Melting Point": "179.5 \u00b0C", "Density": "3.98 g/cm\u00b3 @ Temp: 25 \u00b0C"}}