{"cas_no": "7784-33-0", "cn_name": "\u6eb4\u5316\u7837", "en_name": ["Arsenous tribromide", "Arsenous tribromide", "Arsenic bromide (AsBr3)", "Arsenous bromide", "Tribromoarsine", "Arsenic tribromide"], "SMILES": "[As](Br)(Br)Br", "physical_data": {"Molecular Weight": "314.63", "Molecular Formula": "AsBr3", "Boiling Point": "221 \u00b0C", "Melting Point": "31.1 \u00b0C", "Density": "3.40 g/cm\u00b3 @ Temp: 25 \u00b0C"}}