{"cas_no": "7784-42-1", "cn_name": "\u7837\u70f7", "en_name": ["Arsine", "Arsine", "Arsenic trihydride", "Arseniuretted hydrogen", "Arsenous hydride", "Hydrogen arsenide", "Arsenic hydride (AsH3)", "Arsenic hydride"], "SMILES": "[AsH3]", "physical_data": {"Molecular Weight": "", "Molecular Formula": "AsH3", "Boiling Point": "-62.5 \u00b0C", "Melting Point": "-116 \u00b0C", "Density": "1.766 g/cm\u00b3 @ Temp: -111.8 \u00b0C"}}