{"cas_no": "7784-45-4", "cn_name": "\u7898\u5316\u7837", "en_name": ["Arsenic iodide (AsI3)", "Arsenous triiodide", "Arsenic iodide (AsI3)", "Arsenous iodide", "Arsenic triiodide", "Triiodoarsine", "Arsenic(III) iodide"], "SMILES": "[As](I)(I)I", "physical_data": {"Molecular Weight": "455.64", "Molecular Formula": "AsI3", "Boiling Point": "424 \u00b0C", "Melting Point": "140.9 \u00b0C", "Density": "4.688 g/cm\u00b3 @ Temp: 25 \u00b0C"}}