{"cas_no": "7784-09-0", "cn_name": "\u78f7\u9178\u94f6", "en_name": ["Silver phosphate", "Phosphoric acid, silver(1+) salt (1:3)", "Phosphoric acid, trisilver(1+) salt", "Silver phosphate", "Silver orthophosphate", "Trisilver phosphate", "Trisilver(1+) orthophosphate", "Silver phosphate (Ag3PO4)", "Silver orthophosphate (Ag3PO4)", "Trisilver(1+) phosphate", "Phosphoric acid silver salt (1:3)", "Biomaster 542"], "SMILES": "P(=O)(O)(O)O.[Ag]", "physical_data": {"Molecular Weight": "", "Molecular Formula": "Ag.<sup>1</sup>/3H3O4P", "Melting Point": "1012 \u00b0C"}}