{"cas_no": "7784-30-7", "cn_name": "\u78f7\u9178\u94dd", "en_name": ["Aluminum phosphate", "Phosphoric acid, aluminum salt (1:1)", "Aluminum phosphate (Al(PO4))", "Aluminum orthophosphate", "Aluminum phosphate (1:1)", "Aluminum monophosphate", "Aluphos", "Monoaluminum phosphate", "FFB 32", "Phosphalugel", "Aluminum phosphate", "FB 67", "Phosphaljel", "AlPO 5", "ALPO", "VPI", "Fosfalumina", "Aluminophosphate (AlPO4)", "Phosphaluvet", "Fabutit 748", "Fabutit 320", "AlPO 11", "Phosphalutab", "Fosfalugel", "Phosphalujel", "Ulcocid", "Rehydraphos", "Fabutit 705", "B 111", "Alfogel", "Taipoly L 2", "AdjuPhos", "Takialfa WR 100B", "Lithopix P 1", "Aluminium phosphate", "YR 1", "K-White G 110"], "SMILES": "P(=O)(O)(O)O.[Al]", "physical_data": {"Molecular Weight": "", "Molecular Formula": "Al.H3O4P", "Melting Point": "&gt;1460 \u00b0C", "Density": "2.56 g/cm\u00b3 @ Temp: 23 \u00b0C"}}