{"cas_no": "7784-35-2", "cn_name": "\u4e09\u6c1f\u5316\u7837", "en_name": ["Arsenous trifluoride", "Arsenous trifluoride", "Arsenic fluoride (AsF3)", "Arsenic trifluoride", "Arsenous fluoride", "Trifluoroarsine"], "SMILES": "[As](F)(F)F", "physical_data": {"Molecular Weight": "131.92", "Molecular Formula": "AsF3", "Boiling Point": "57.8 \u00b0C", "Melting Point": "-5.9 \u00b0C", "Density": "2.7 g/cm\u00b3"}}