{"cas_no": "7784-54-5", "cn_name": "A-D-\u6c28\u57fa\u8461\u8404\u7cd6\u4e94\u4e59\u9178\u76d0", "en_name": ["\u03b1-D-Glucopyranose, 2-(acetylamino)-2-deoxy-, 1,3,4,6-tetraacetate", "\u03b1-D-Glucopyranose, 2-(acetylamino)-2-deoxy-, 1,3,4,6-tetraacetate", "Glucopyranose, 2-acetamido-2-deoxy-, 1,3,4,6-tetraacetate, \u03b1-D-", "1,3,4,6-Tetra-O-acetyl-2-acetamido-2-deoxy-\u03b1-D-glucopyranose", "2-Acetamido-1,3,4,6-tetra-O-acetyl-2-deoxy-\u03b1-D-glucopyranose", "2-Acetamido-2-deoxy-\u03b1-D-glucopyranose 1,3,4,6-tetraacetate", "NSC 231931", "3-Acetamido-6-(acetoxymethyl)tetrahydro-2H-pyran-2,4,5-triyl triacetate", "2-Acetamido-2-deoxy-1,3,4,6-tetra-O-acetyl-\u03b1-D-glucopyranose"], "SMILES": "O(C(C)=O)C1C(OC(C)=O)C(COC(C)=O)OC(OC(C)=O)C1NC(C)=O", "physical_data": {"Molecular Weight": "389.35", "Molecular Formula": "C16H23NO10", "Melting Point": "128-130 \u00b0C"}}