{"cas_no": "7784-25-0", "cn_name": "\u786b\u9178\u94dd\u94f5", "en_name": ["Ammonium aluminum sulfate", "Sulfuric acid, aluminum ammonium salt (2:1:1)", "Aluminum ammonium sulfate (Al(NH4)(SO4)2)", "Alum ammonium", "Burnt ammonium alum", "Exsiccated ammonium alum", "Ammonium aluminum alum", "Ammonium alum", "Monoammonium monoaluminum sulfate", "Aluminum ammonium alum", "Aluminum ammonium disulfate (Al(NH4)(SO4)2)", "Curb", "Aluminum sulfate compd. with ammonium sulfate (1:1)", "Ammonium aluminum sulfate (NH4Al(SO4)2)", "Aluminum ammonium bis(sulfate)", "Ammonium aluminum sulfate", "Aluminum ammonium sulfate"], "SMILES": "S(=O)(=O)(O)O.[Al].N", "physical_data": {"Molecular Weight": "", "Molecular Formula": "Al.H3N.2H2O4S", "Melting Point": "94.5 \u00b0C", "Density": "2.45 g/cm\u00b3 @ Temp: 20 \u00b0C"}}