{"cas_no": "7784-18-1", "cn_name": "\u6c1f\u5316\u94dd", "en_name": ["Aluminum fluoride", "Aluminum fluoride (AlF3)", "Aluminum fluoride", "Aluminum trifluoride", "Aluminum trifluoride (AlF3)"], "SMILES": "[Al](F)(F)F", "physical_data": {"Molecular Weight": "", "Molecular Formula": "AlF3", "Boiling Point": "1260 \u00b0C", "Melting Point": "1291 \u00b0C", "Density": "3.10 g/cm\u00b3"}}