{"cas_no": "7784-26-1", "cn_name": "\u786b\u9178\u94dd\u94f5.\u5341\u4e8c\u6c34\u5408\u7269", "en_name": ["Aluminum ammonium sulfate dodecahydrate", "Sulfuric acid, aluminum ammonium salt, hydrate (2:1:1:12)", "Sulfuric acid, aluminum ammonium salt (2:1:1), dodecahydrate", "Ammonium aluminum sulfate hydrate", "Ammonium alum", "Monoaluminum monoammonium disulfate dodecahydrate", "Ammonia alum", "Ammonium aluminum sulfate dodecahydrate", "Aluminum ammonium disulfate dodecahydrate", "Aluminum ammonium sulfate (Al(NH4)(SO4)2) dodecahydrate", "Aluminum ammonium bis(sulfate) dodecahydrate", "Ammonium alum (NH4Al(SO4)2.12H2O)", "Ammonium aluminum disulfate dodecahydrate", "Aluminum ammonium sulfate dodecahydrate"], "SMILES": "S(=O)(=O)(O)O.[Al].N.O", "physical_data": {"Molecular Weight": "", "Molecular Formula": "Al.H3N.2H2O4S.12H2O", "Melting Point": "90 \u00b0C"}}