{"cas_no": "7785-33-3", "cn_name": "\u60d5\u5404\u9178\u9999\u53f6\u916f", "en_name": ["Geranyl tiglate", "2-Butenoic acid, 2-methyl-, (2E)-3,7-dimethyl-2,6-octadien-1-yl ester, (2E)-", "2-Butenoic acid, 2-methyl-, 3,7-dimethyl-2,6-octadienyl ester, (E,E)-", "Tiglic acid, trans-3,7-dimethyl-2,6-octadienyl ester", "Tiglic acid, geranyl ester", "2-Butenoic acid, 2-methyl-, (2E)-3,7-dimethyl-2,6-octadienyl ester, (2E)-", "Geranyl tiglate", "Geranyl (E)-2-methyl-2-butenoate"], "SMILES": "O(CC=C(CCC=C(C)C)C)C(C(=CC)C)=O", "physical_data": {"Molecular Weight": "236.35", "Molecular Formula": "C15H24O2", "Boiling Point": "149-151 \u00b0C", "Density": "0.9279 g/cm\u00b3 @ Temp: 15 \u00b0C"}}