{"cas_no": "7785-23-1", "cn_name": "\u6eb4\u5316\u94f6", "en_name": ["Silver bromide", "Silver bromide (AgBr)", "Silver bromide", "Silver monobromide", "Silver(I) bromide", "Argentous bromide"], "SMILES": "[Ag]Br", "physical_data": {"Molecular Weight": "", "Molecular Formula": "AgBr", "Melting Point": "432 \u00b0C", "Density": "6.47 g/cm\u00b3"}}