{"cas_no": "7785-26-4", "cn_name": "\u5de6\u65cb-alpha-\u848e\u70ef", "en_name": ["(-)-\u03b1-Pinene", "Bicyclo[3.1.1]hept-2-ene, 2,6,6-trimethyl-, (1S,5S)-", "2-Pinene, (1S,5S)-(-)-", "Bicyclo[3.1.1]hept-2-ene, 2,6,6-trimethyl-, (1S)-", "(1S,5S)-2,6,6-Trimethylbicyclo[3.1.1]hept-2-ene", "l-\u03b1-Pinene", "(1S,5S)-(-)-\u03b1-Pinene", "(-)-2-Pinene", "(S)-(-)-\u03b1-Pinene", "(-)-\u03b1-Pinene", "(1S)-(-)-\u03b1-Pinene", "(-)-(1S)-\u03b1-Pinene", "1S-\u03b1-Pinene", "(S)-(-)-Pinene", "(1S,5S)-2,6,6-Trimethylbicyclo[3.1.1]hept-2-ene"], "SMILES": "CC1(C)C2CC1CC=C2C", "physical_data": {"Molecular Weight": "136.23", "Molecular Formula": "C10H16", "Boiling Point": "157 \u00b0C", "Melting Point": "-61 \u00b0C", "Density": "0.849595 g/cm\u00b3 @ Temp: 30.00 \u00b0C"}}