{"cas_no": "7785-70-8", "cn_name": "\u848e\u70ef", "en_name": ["(1R)-\u03b1-Pinene", "Bicyclo[3.1.1]hept-2-ene, 2,6,6-trimethyl-, (1R,5R)-", "2-Pinene, (1R,5R)-(+)-", "Bicyclo[3.1.1]hept-2-ene, 2,6,6-trimethyl-, (1R)-", "(1R,5R)-2,6,6-Trimethylbicyclo[3.1.1]hept-2-ene", "d-\u03b1-Pinene", "(+)-(1R,5R)-\u03b1-Pinene", "(+)-2-Pinene", "(R)-(+)-\u03b1-Pinene", "(1R,5R)-(+)-\u03b1-Pinene", "(+)-\u03b1-Pinene", "(1R)-(+)-\u03b1-Pinene", "(+)-(1R)-\u03b1-Pinene", "(1R)-\u03b1-Pinene", "(1R)-2,6,6-Trimethylbicyclo[3.1.1]hept-2-ene", "(1R,5R)-2,6,6-Trimethylbicyclo[3.1.1]hept-2-ene"], "SMILES": "CC1(C)C2CC1CC=C2C", "physical_data": {"Molecular Weight": "136.23", "Molecular Formula": "C10H16", "Boiling Point": "155.5 \u00b0C", "Melting Point": "-62 \u00b0C", "Density": "0.846158 g/cm\u00b3 @ Temp: 35.00 \u00b0C"}}