{"cas_no": "7785-87-7", "cn_name": "\u786b\u9178\u9530", "en_name": ["Manganese sulfate", "Sulfuric acid, manganese(2+) salt (1:1)", "Manganese sulfate", "Manganese sulfate (MnSO4)", "Manganese sulphate", "Manganous sulfate", "Manganese(II) sulfate", "Manganese sulfate (1:1)", "Sulfuric acid manganese salt (1:1)", "Manganese(2+) sulfate (1:1)", "Manganese(2+) sulfate (MnSO4)", "Sorba-Spray Mn", "Man-Gro", "Manganese(2+) sulfate", "Manganese monosulfate"], "SMILES": "S(=O)(=O)(O)O.[Mn]", "physical_data": {"Molecular Weight": "", "Molecular Formula": "H2O4S.Mn", "Melting Point": "700 \u00b0C", "Density": "3.25 g/cm\u00b3"}}