{"cas_no": "7786-30-3", "cn_name": "\u6c2f\u5316\u9541", "en_name": ["Magnesium chloride", "Magnesium chloride (MgCl2)", "Magnesium chloride", "Magnesium dichloride", "Magnogene", "Aerotex Accelerator MX", "Catalyst G", "TMT 2", "Ekimac", "NSC 529832", "Freecat MX", "Magnesium(II) chloride", "FIX-Mg", "White Nigari NS", "HMC 23D", "C-TEK", "White Nigari", "TMT 4", "Soft Wafer", "LR-MC", "PS-F 20", "PS-F 30", "PS-F 15", "MeSH ID: D015636"], "SMILES": "[Mg](Cl)Cl", "physical_data": {"Molecular Weight": "", "Molecular Formula": "Cl2Mg", "Boiling Point": "1412 \u00b0C", "Melting Point": "712 \u00b0C", "Density": "2.32 g/cm\u00b3"}}