{"cas_no": "77868-84-9", "cn_name": "N-\u82c4\u57fa-3-\u6eb4\u5421\u54af\u70f7-2-\u916e", "en_name": ["3-Bromo-1-(phenylmethyl)-2-pyrrolidinone", "2-Pyrrolidinone, 3-bromo-1-(phenylmethyl)-", "3-Bromo-1-(phenylmethyl)-2-pyrrolidinone", "1-Benzyl-3-bromopyrrolidin-2-one"], "SMILES": "C(N1C(=O)C(Br)CC1)C2=CC=CC=C2", "physical_data": {"Molecular Weight": "254.12", "Molecular Formula": "C11H12BrNO", "Boiling Point": "171-172 \u00b0C @ Press: 0.9 Torr"}}