{"cas_no": "7786-34-7", "cn_name": "\u901f\u706d\u78f7", "en_name": ["Mevinphos", "2-Butenoic acid, 3-[(dimethoxyphosphinyl)oxy]-, methyl ester", "Crotonic acid, 3-hydroxy-, methyl ester, dimethyl phosphate", "1-Methoxycarbonyl-1-propen-2-yl dimethyl phosphate", "Meniphos", "Phosdrin", "Mevinphos", "2-Methoxycarbonyl-1-methylvinyl dimethyl phosphate", "Fosdrin", "O,O-Dimethyl O-(1-carbomethoxy-1-propen-2-yl) phosphate", "2-Carbomethoxy-1-methylvinyl dimethyl phosphate", "Gesfid", "CMDP", "PD 5 (pesticide)", "PD 5", "Phosdrin W 10", "NSC 46470", "MeSH ID: D008799"], "SMILES": "P(OC(=CC(OC)=O)C)(OC)(OC)=O", "physical_data": {"Molecular Weight": "224.15", "Molecular Formula": "C7H13O6P", "Boiling Point": "106-107.5 \u00b0C @ Press: 1 Torr", "Melting Point": "6.9 \u00b0C", "Density": "1.25 g/cm\u00b3 @ Temp: 20 \u00b0C"}}