{"cas_no": "7786-67-6", "cn_name": "\u5f02\u80e1\u8584\u8377\u9187", "en_name": ["5-Methyl-2-(1-methylethenyl)cyclohexanol", "Cyclohexanol, 5-methyl-2-(1-methylethenyl)-", "p-Menth-8-en-3-ol", "5-Methyl-2-(1-methylethenyl)cyclohexanol", "NSC 231369", "2-Isopropenyl-5-methylcyclohexanol", "5-Methyl-2-(1-methylvinyl)cyclohexanol"], "SMILES": "C(C)(=C)C1C(O)CC(C)CC1", "physical_data": {"Molecular Weight": "154.25", "Molecular Formula": "C10H18O", "Boiling Point": "90 \u00b0C @ Press: 10 Torr", "Density": "0.9407 g/cm\u00b3 @ Temp: 0 \u00b0C"}}