{"cas_no": "7786-81-4", "cn_name": "\u786b\u9178\u954d", "en_name": ["Nickel sulfate (NiSO4)", "Sulfuric acid, nickel(2+) salt (1:1)", "Nickel sulfate (NiSO4)", "Nickel sulfate", "Nickel(II) sulfate", "Nickel sulfate (1:1)", "Nickelous sulfate", "Nickel(2+) sulfate", "Sulfuric acid nickel(2+) salt", "Nickel(2+) sulfate (1:1)", "Nickel monosulfate", "Fine Emerald"], "SMILES": "S(=O)(=O)(O)O.[Ni]", "physical_data": {"Molecular Weight": "", "Molecular Formula": "H2O4S.Ni", "Melting Point": "840 \u00b0C (decomp)", "Density": "4.01 g/cm\u00b3"}}