{"cas_no": "7786-44-9", "cn_name": "\u53cd-2\uff0c\u987a6-\u58ec\u4e8c\u70ef\u9187", "en_name": ["2,6-Nonadien-1-ol", "2,6-Nonadien-1-ol", "Cucumber alcohol", "Violet-leaf alcohol", "2,6-Nonadienol"], "SMILES": "C(CC=CCO)C=CCC", "physical_data": {"Molecular Weight": "140.22", "Molecular Formula": "C9H16O", "Boiling Point": "196 \u00b0C", "Density": "0.8628 g/cm\u00b3 @ Temp: 21 \u00b0C"}}