{"cas_no": "77866-58-1", "cn_name": "\u53cd\u5f0f-4-\u6b63\u4e19\u57fa\u73af\u5df1\u9187", "en_name": ["trans-4-Propylcyclohexanol", "Cyclohexanol, 4-propyl-, trans-", "trans-4-Propylcyclohexanol"], "SMILES": "C(CC)C1CCC(O)CC1", "physical_data": {"Molecular Weight": "142.24", "Molecular Formula": "C9H18O", "Boiling Point": "212-214 \u00b0C @ Press: 740 Torr", "Density": "0.9025 g/cm\u00b3 @ Temp: 25 \u00b0C"}}