{"cas_no": "7786-61-0", "cn_name": "4-\u4e59\u70ef\u57fa-2-\u7532\u6c27\u57fa\u82ef\u915a", "en_name": ["4-Vinylguaiacol", "Phenol, 4-ethenyl-2-methoxy-", "Phenol, 2-methoxy-4-vinyl-", "Guaiacol, 4-vinyl-", "4-Ethenyl-2-methoxyphenol", "2-Methoxy-4-vinylphenol", "4-Vinylguaiacol", "o-Methoxy-p-vinylphenol", "p-Vinylguaiacol", "4-Hydroxy-3-methoxyvinylbenzene", "3-Methoxy-4-hydroxystyrene", "4-Hydroxy-3-methoxystyrene", "4-Vinyl-2-methoxyphenol", "2-Methoxy-4-ethenylphenol", "Varamol 106", "(4-Hydroxy-3-methoxyphenyl)ethene"], "SMILES": "O(C)C1=CC(C=C)=CC=C1O", "physical_data": {"Molecular Weight": "150.17", "Molecular Formula": "C9H10O2", "Boiling Point": "100 \u00b0C @ Press: 5 Torr", "Melting Point": "112-114 \u00b0C"}}