{"cas_no": "7787-47-5", "cn_name": "\u6c2f\u5316\u94cd", "en_name": ["Beryllium chloride", "Beryllium chloride (BeCl2)", "Beryllium dichloride", "Beryllium chloride", "NSC 84263"], "SMILES": "[Be](Cl)Cl", "physical_data": {"Molecular Weight": "", "Molecular Formula": "BeCl2", "Boiling Point": "482.3 \u00b0C", "Melting Point": "399.2 \u00b0C", "Density": "1.90 g/cm\u00b3"}}