{"cas_no": "7787-36-2", "cn_name": "\u8fc7\u9530\u9178\u94a1", "en_name": ["Permanganic acid (HMnO4), barium salt", "Permanganic acid (HMnO4), barium salt", "Barium permanganate", "Barium manganate (Ba(MnO4)2)"], "SMILES": "[Mn](O)(=O)(=O)=O.[Ba]", "physical_data": {"Molecular Weight": "", "Molecular Formula": "Ba.2HMnO4", "Melting Point": "200 \u00b0C (decomp)", "Density": "3.77 g/cm\u00b3"}}