{"cas_no": "7787-20-4", "cn_name": "\u8451\u916e", "en_name": ["(-)-Fenchone", "Bicyclo[2.2.1]heptan-2-one, 1,3,3-trimethyl-, (1R,4S)-", "2-Norbornanone, 1,3,3-trimethyl-, (1R,4S)-(-)-", "Bicyclo[2.2.1]heptan-2-one, 1,3,3-trimethyl-, (1R)-", "(1R,4S)-1,3,3-Trimethylbicyclo[2.2.1]heptan-2-one", "(-)-Fenchone", "L-Fenchone", "l-Fenchone", "(1R)-Fenchone", "L-(-)-Fenchone", "(R)-Fenchone", "(1R)-(-)-Fenchone", "(R)-(-)-Fenchone"], "SMILES": "CC12C(=O)C(C)(C)C(C1)CC2", "physical_data": {"Molecular Weight": "152.23", "Molecular Formula": "C10H16O", "Boiling Point": "193 \u00b0C", "Melting Point": "5 \u00b0C", "Density": "1.1994 g/cm\u00b3 @ Temp: 25.00 \u00b0C"}}