{"cas_no": "7787-32-8", "cn_name": "\u6c1f\u5316\u94a1", "en_name": ["Barium fluoride", "Barium fluoride (BaF2)", "Barium fluoride", "Barium difluoride", "Barium difluoride (BaF2)"], "SMILES": "[Ba](F)F", "physical_data": {"Molecular Weight": "", "Molecular Formula": "BaF2", "Boiling Point": "2260 \u00b0C", "Melting Point": "1289 \u00b0C", "Density": "4.89 g/cm\u00b3 @ Temp: 25 \u00b0C"}}