{"cas_no": "7787-69-1", "cn_name": "\u6eb4\u5316\u94ef", "en_name": ["Cesium bromide", "Cesium bromide (CsBr)", "Cesium bromide", "Cesium monobromide", "NSC 84269"], "SMILES": "Br[Cs]", "physical_data": {"Molecular Weight": "", "Molecular Formula": "BrCs", "Melting Point": "636 \u00b0C"}}