{"cas_no": "7787-85-1", "cn_name": "2-\u6c2f\u4e59\u57fa\u7532\u57fa\u4e8c\u6c2f\u7845\u70f7", "en_name": ["Dichloro(2-chloroethyl)methylsilane", "Silane, dichloro(2-chloroethyl)methyl-", "Dichloro(2-chloroethyl)methylsilane", "2-Chloroethylmethyldichlorosilane"], "SMILES": "C([Si](C)(Cl)Cl)CCl", "physical_data": {"Molecular Weight": "177.53", "Molecular Formula": "C3H7Cl3Si", "Boiling Point": "157 \u00b0C", "Density": "1.261 g/cm\u00b3"}}