{"cas_no": "7787-61-3", "cn_name": "\u4e09\u6c1f\u5316\u94cb", "en_name": ["Bismuth fluoride", "Bismuthine, trifluoro-", "Bismuth fluoride (BiF3)", "Trifluorobismuthine", "Bismuth trifluoride", "Bismuth fluoride"], "SMILES": "[Bi](F)(F)F", "physical_data": {"Molecular Weight": "", "Molecular Formula": "BiF3", "Melting Point": "757 \u00b0C", "Density": "7.92 g/cm\u00b3"}}