{"cas_no": "7787-70-4", "cn_name": "\u6eb4\u5316\u4e9a\u94dc", "en_name": ["Copper bromide (CuBr)", "Copper bromide (CuBr)", "Cuprous bromide", "Copper monobromide", "Copper(1+) bromide", "Copper(I) bromide", "Copper(1+) bromide tetramer", "Copper bromide (Cu4Br4)", "Cuprous bromide (CuBr)", "Copper bromide (Cu0.5Br0.5)", "Dsunsorb 3235H"], "SMILES": "Br[Cu]", "physical_data": {"Molecular Weight": "", "Molecular Formula": "BrCu", "Boiling Point": "1345 \u00b0C", "Melting Point": "504 \u00b0C", "Density": "4.72 g/cm\u00b3 @ Temp: 25 \u00b0C"}}