{"cas_no": "77879-90-4", "cn_name": "\u8910\u9ec4\u764c\u83cc\u7d20 V", "en_name": ["Gilvocarcin V", "6H-Benzo[d]naphtho[1,2-b]pyran-6-one, 4-(6-deoxy-\u03b1-D-galactofuranosyl)-8-ethenyl-1-hydroxy-10,12-dimethoxy-", "4-(6-Deoxy-\u03b1-D-galactofuranosyl)-8-ethenyl-1-hydroxy-10,12-dimethoxy-6H-benzo[d]naphtho[1,2-b]pyran-6-one", "Gilvocarcin V", "Antibiotic 1072B", "NSC 338943", "NSC 348115"], "SMILES": "O(C)C1=C2C(=C3C(C=4C(C(=O)O3)=CC(C=C)=CC4OC)=C1)C(=CC=C2O)C5OC(C(C)O)C(O)C5O", "physical_data": {"Molecular Weight": "494.49", "Molecular Formula": "C27H26O9", "Melting Point": "230-233 \u00b0C"}}