{"cas_no": "7787-60-2", "cn_name": "\u6c2f\u5316\u94cb", "en_name": ["Bismuth trichloride", "Bismuthine, trichloro-", "Bismuth chloride (BiCl3)", "Trichlorobismuthine", "Bismuth chloride", "Bismuth trichloride", "Bismuth trichloride (BiCl3)", "Trichlorobismuth", "Bismuth(III) chloride"], "SMILES": "[Bi](Cl)(Cl)Cl", "physical_data": {"Molecular Weight": "", "Molecular Formula": "BiCl3", "Boiling Point": "447 \u00b0C", "Melting Point": "224 \u00b0C", "Density": "3.87 g/cm\u00b3 @ Temp: 250 \u00b0C"}}