{"cas_no": "7787-62-4", "cn_name": "\u4e94\u6c1f\u5316\u94cb", "en_name": ["Bismuth fluoride (BiF5)", "Bismuth fluoride (BiF5)", "Bismuth pentafluoride"], "SMILES": "[Bi](F)(F)(F)(F)F", "physical_data": {"Molecular Weight": "", "Molecular Formula": "BiF5", "Boiling Point": "230 \u00b0C"}}