{"cas_no": "7787-42-0", "cn_name": "\u94a8\u9178\u94a1", "en_name": ["BaWO4", "Tungstate (WO42-), barium (1:1), (T-4)-", "Barium tungstate(VI) (BaWO4)", "Tungstic acid (H2WO4), barium salt (1:1)", "C.I. 77128", "Barium tungstate", "Barium White", "C.I. Pigment White 13", "Tungstate White", "Tungsten white", "Barium tungstate (BaWO4)", "Barium tungsten oxide (BaWO4)", "Pigment White 13", "BaWO4", "Barium tungsten oxide (BaWO4)"], "SMILES": "[W-2](=O)(=O)(=O)=O.[Ba+2]", "physical_data": {"Molecular Weight": "", "Molecular Formula": "Ba.O4W", "Melting Point": "1473 \u00b0C", "Density": "6.393 g/cm\u00b3 @ Temp: 22 \u00b0C"}}