{"cas_no": "7787-71-5", "cn_name": "\u4e09\u6c1f\u5316\u6eb4", "en_name": ["Bromine trifluoride", "Bromine fluoride (BrF3)", "Bromine trifluoride"], "SMILES": "Br(F)(F)F", "physical_data": {"Molecular Weight": "136.90", "Molecular Formula": "BrF3", "Boiling Point": "125.75 \u00b0C", "Melting Point": "8.77 \u00b0C", "Density": "2.8030 g/cm\u00b3 @ Temp: 25 \u00b0C"}}