{"cas_no": "7787-49-7", "cn_name": "\u4e8c\u6c1f\u5316\u94cd", "en_name": ["Beryllium fluoride (BeF2)", "Beryllium fluoride (BeF2)", "Beryllium fluoride", "Beryllium difluoride", "NSC 84264"], "SMILES": "[Be](F)F", "physical_data": {"Molecular Weight": "", "Molecular Formula": "BeF2", "Boiling Point": "1160 \u00b0C", "Melting Point": "555 \u00b0C", "Density": "1.986 g/cm\u00b3 @ Temp: 25 \u00b0C"}}