{"cas_no": "7787-58-8", "cn_name": "\u6eb4\u5316\u94cb", "en_name": ["Bismuth bromide", "Bismuthine, tribromo-", "Bismuth bromide (BiBr3)", "Tribromobismuthine", "Bismuth tribromide", "Bismuth bromide", "Bismuth(III) bromide"], "SMILES": "[Bi](Br)(Br)Br", "physical_data": {"Molecular Weight": "", "Molecular Formula": "BiBr3", "Melting Point": "219 \u00b0C"}}