{"cas_no": "7787-87-3", "cn_name": "(1-\u6c2f\u4e59\u57fa)\u4e09\u7532\u57fa\u7845\u70f7", "en_name": ["(1-Chloroethyl)trimethylsilane", "Silane, (1-chloroethyl)trimethyl-", "(1-Chloroethyl)trimethylsilane", "\u03b1-Chloroethyltrimethylsilane", "1-(Chloroethyl)trimethylsilane"], "SMILES": "[Si](C(C)Cl)(C)(C)C", "physical_data": {"Molecular Weight": "136.70", "Molecular Formula": "C5H13ClSi", "Boiling Point": "118 \u00b0C", "Density": "0.964 g/cm\u00b3"}}