{"cas_no": "7787-64-6", "cn_name": "\u7898\u5316\u94cb", "en_name": ["Bismuth triiodide", "Bismuthine, triiodo-", "Bismuth iodide (BiI3)", "Triiodobismuthine", "Bismuth triiodide", "Bismuth iodide", "Triiodobismuth", "NSC 103681", "Bismuth(III) iodide"], "SMILES": "[Bi](I)(I)I", "physical_data": {"Molecular Weight": "", "Molecular Formula": "BiI3", "Boiling Point": "500 \u00b0C", "Melting Point": "408 \u00b0C"}}