{"cas_no": "77877-20-4", "cn_name": "(4R,5S)-3-\u4e19\u9170\u57fa-4-\u7532\u57fa-5-\u82ef\u57fa-2-\u5641\u5511\u70f7\u916e", "en_name": ["(4R,5S)-4-Methyl-5-phenyl-3-propionyl-2-oxazolidinone", "2-Oxazolidinone, 4-methyl-3-(1-oxopropyl)-5-phenyl-, (4R,5S)-", "2-Oxazolidinone, 4-methyl-3-(1-oxopropyl)-5-phenyl-, (4R-cis)-", "(4R,5S)-4-Methyl-3-(1-oxopropyl)-5-phenyl-2-oxazolidinone", "(4R,5S)-4-Methyl-5-phenyl-3-propionyl-2-oxazolidinone"], "SMILES": "CC1C(OC(=O)N1C(CC)=O)C2=CC=CC=C2", "physical_data": {"Molecular Weight": "233.26", "Molecular Formula": "C13H15NO3", "Melting Point": "96-97 \u00b0C"}}