{"cas_no": "7787-93-1", "cn_name": "3-\u6c2f\u4e19\u57fa\u7532\u57fa\u4e8c\u6c2f\u7845\u70f7", "en_name": ["Dichloro(3-chloropropyl)methylsilane", "Silane, dichloro(3-chloropropyl)methyl-", "Dichloro(3-chloropropyl)methylsilane", "3-Chloropropylmethyldichlorosilane", "3-Chloropropyldichloromethylsilane", "\u03b3-Chloropropylmethyldichlorosilane"], "SMILES": "C([Si](C)(Cl)Cl)CCCl", "physical_data": {"Molecular Weight": "191.56", "Molecular Formula": "C4H9Cl3Si", "Boiling Point": "68-70 \u00b0C @ Press: 15 Torr", "Density": "1.204 g/cm\u00b3"}}