{"cas_no": "7788-98-9", "cn_name": "\u94ec\u9178\u94f5", "en_name": ["Ammonium chromate ((NH4)2CrO4)", "Chromic acid (H2CrO4), ammonium salt (1:2)", "Chromic acid (H2CrO4), diammonium salt", "Ammonium chromate(VI)", "Ammonium chromate", "Neutral ammonium chromate", "Ammonium chromate ((NH4)2CrO4)", "Diammonium chromate", "Chromic acid ammonium salt", "Diammonium chromate ((NH4)2CrO4)"], "SMILES": "[Cr](O)(O)(=O)=O.N", "physical_data": {"Molecular Weight": "", "Molecular Formula": "CrH2O4.2H3N", "Melting Point": "185 \u00b0C (decomp)", "Density": "1.866 g/cm\u00b3"}}