{"cas_no": "77881-13-1", "cn_name": "17\u0392-\u6c30\u57fa-17\u0391-\u7f9f\u57fa\u96c4\u753e-4-\u70ef-3-\u916e", "en_name": ["Androstenedione cyanohydrin", "Androst-4-ene-17-carbonitrile, 17-hydroxy-3-oxo-, (17\u03b1)-", "(17\u03b1)-17-Hydroxy-3-oxoandrost-4-ene-17-carbonitrile", "17\u03b2-Cyano-17\u03b1-hydroxyandrost-4-en-3-one", "17\u03b1-Hydroxy-17\u03b2-cyanoandrost-4-en-3-one", "Androstenedione cyanohydrin"], "SMILES": "CC12C(C3C(C4(C)C(CC3)=CC(=O)CC4)CC1)CCC2(C#N)O", "physical_data": {"Molecular Weight": "313.43", "Molecular Formula": "C20H27NO2", "Melting Point": "211-212 \u00b0C"}}