{"cas_no": "7789-42-6", "cn_name": "\u6eb4\u5316\u9549", "en_name": ["Cadmium bromide", "Cadmium bromide (CdBr2)", "Cadmium bromide", "Cadmium dibromide"], "SMILES": "[Cd](Br)Br", "physical_data": {"Molecular Weight": "", "Molecular Formula": "Br2Cd", "Boiling Point": "963 \u00b0C", "Melting Point": "566 \u00b0C", "Density": "5.192 g/cm\u00b3"}}