{"cas_no": "7789-40-4", "cn_name": "\u6eb4\u5316\u4e9a\u94ca", "en_name": ["Thallium bromide (TlBr)", "Thallium bromide (TlBr)", "Thallium monobromide", "Thallous bromide", "Thallium bromide", "Thallium(I) bromide", "Thallium bromide (Tl2Br2)", "Thallium bromide (TlBr), dimer"], "SMILES": "Br[Tl]", "physical_data": {"Molecular Weight": "", "Molecular Formula": "BrTl", "Boiling Point": "815 \u00b0C", "Melting Point": "460 \u00b0C", "Density": "7.50 g/cm\u00b3"}}