{"cas_no": "7789-61-9", "cn_name": "\u4e09\u6eb4\u5316\u9511", "en_name": ["Antimony tribromide", "Stibine, tribromo-", "Antimony bromide (SbBr3)", "Tribromostibine", "Antimony tribromide", "Antimony(III) bromide"], "SMILES": "[Sb](Br)(Br)Br", "physical_data": {"Molecular Weight": "", "Molecular Formula": "Br3Sb", "Boiling Point": "288 \u00b0C @ Press: 749 Torr", "Melting Point": "96 \u00b0C", "Density": "4.148 g/cm\u00b3 @ Temp: 23 \u00b0C"}}