{"cas_no": "7789-17-5", "cn_name": "\u7898\u5316\u94ef", "en_name": ["Cesium iodide", "Cesium iodide (CsI)", "Cesium monoiodide", "Cesium iodide", "NSC 15199"], "SMILES": "[Cs]I", "physical_data": {"Molecular Weight": "", "Molecular Formula": "CsI", "Boiling Point": "1300 \u00b0C", "Melting Point": "621 \u00b0C"}}