{"cas_no": "7789-23-3", "cn_name": "\u6c1f\u5316\u94be", "en_name": ["Potassium fluoride", "Potassium fluoride (KF)", "Potassium fluoride", "Potassium monofluoride", "Clocat F", "Potassium monofluoride (KF)"], "SMILES": "F[K]", "physical_data": {"Molecular Weight": "", "Molecular Formula": "FK", "Melting Point": "856 \u00b0C"}}