{"cas_no": "7789-06-2", "cn_name": "\u94ec\u9178\u9536(1:1)", "en_name": ["Strontium chromate", "Chromic acid (H2CrO4), strontium salt (1:1)", "Strontium chromate(VI)", "C.I. Pigment Yellow 32", "Deep Lemon Yellow", "X 2396", "Strontium chromate 12170", "Strontium yellow", "Strontium chromate", "Strontium chromate (1:1)", "Strontium chromate (SrCrO4)", "Sutokuro T", "Pigment Yellow 32", "C.I. 77839", "Chromium strontium oxide (CrSrO4)", "Strontium Chrome Yellow", "L 203E", "Add 398"], "SMILES": "[Cr](O)(O)(=O)=O.[Sr]", "physical_data": {"Molecular Weight": "", "Molecular Formula": "CrH2O4.Sr", "Melting Point": "1200 \u00b0C", "Density": "3.9 g/cm\u00b3"}}