{"cas_no": "7789-59-5", "cn_name": "\u4e09\u6eb4\u6c27\u78f7", "en_name": ["Phosphoric tribromide", "Phosphoric tribromide", "Phosphoryl bromide", "Phosphorus oxybromide", "Phosphoryl tribromide", "Tribromophosphorus oxide", "Phosphorus oxytribromide", "Phosphonyl tribromide", "Phosphorus bromide oxide (PBr3O)"], "SMILES": "P(Br)(Br)(Br)=O", "physical_data": {"Molecular Weight": "286.69", "Molecular Formula": "Br3OP", "Boiling Point": "192.0 \u00b0C", "Melting Point": "55-56 \u00b0C", "Density": "2.822 g/cm\u00b3"}}