{"cas_no": "7789-04-0", "cn_name": "\u78f7\u9178\u94ec", "en_name": ["Chromium phosphate (CrPO4)", "Phosphoric acid, chromium(3+) salt (1:1)", "Chromium phosphate", "Arnaudon's green", "Chromic phosphate", "Chromium phosphate (CrPO4)", "Chromium orthophosphate", "Chromium monophosphate", "Taika Chrome 100"], "SMILES": "P(=O)(O)(O)O.[Cr]", "physical_data": {"Molecular Weight": "", "Molecular Formula": "Cr.H3O4P", "Melting Point": "&gt;1800 \u00b0C"}}