{"cas_no": "7789-45-9", "cn_name": "\u6eb4\u5316\u94dc", "en_name": ["Copper bromide (CuBr2)", "Copper bromide (CuBr2)", "Cupric bromide", "Copper(II) bromide", "Copper dibromide"], "SMILES": "[Cu](Br)Br", "physical_data": {"Molecular Weight": "", "Molecular Formula": "Br2Cu", "Boiling Point": "900 \u00b0C", "Melting Point": "498 \u00b0C", "Density": "4.710 g/cm\u00b3 @ Temp: 20 \u00b0C"}}