{"cas_no": "7789-33-5", "cn_name": "\u4e00\u6eb4\u5316\u7898", "en_name": ["Iodine bromide (IBr)", "Iodine bromide (IBr)", "Bromine iodide", "Iodine monobromide", "Bromiodide", "Iodobromide", "Bromoiodide", "Bromine monoiodide", "Iodobromine", "Iodomonobromide", "Bromine iodide (BrI)"], "SMILES": "BrI", "physical_data": {"Molecular Weight": "206.81", "Molecular Formula": "BrI", "Melting Point": "278-279 \u00b0C (decomp)"}}