{"cas_no": "7789-39-1", "cn_name": "\u6eb4\u5316\u94f7", "en_name": ["Rubidium bromide", "Rubidium bromide (RbBr)", "Rubidium bromide", "Rubidium monobromide"], "SMILES": "Br[Rb]", "physical_data": {"Molecular Weight": "", "Molecular Formula": "BrRb", "Melting Point": "692 \u00b0C"}}