{"cas_no": "7789-79-9", "cn_name": "\u6b21\u78f7\u9178\u9499", "en_name": ["Calcium hypophosphite", "Phosphinic acid, calcium salt (2:1)", "Phosphinic acid, calcium salt", "Calcium hypophosphite (Ca(H2PO2)2)", "Calcium dihydrogen hypophosphite", "Calcium phosphinate (Ca(H2PO2)2)", "Calcium hypophosphite", "Phoslite IP-C", "IP-C", "Phoslite B 85CX", "Calcium phosphinate", "CaHP"], "SMILES": "[PH2](=O)O.[Ca]", "physical_data": {"Molecular Weight": "", "Molecular Formula": "Ca.2H3O2P", "Melting Point": "200 \u00b0C (decomp)"}}