{"cas_no": "7789-68-6", "cn_name": "\u56db\u6eb4\u5316\u949b", "en_name": ["Titanium tetrabromide", "Titanium bromide (TiBr4), (T-4)-", "Titanium bromide (TiBr4)", "Titanium tetrabromide", "Tetrabromotitanium", "Titanium(IV) bromide"], "SMILES": "[Ti](Br)(Br)(Br)Br", "physical_data": {"Molecular Weight": "", "Molecular Formula": "Br4Ti", "Boiling Point": "230 \u00b0C @ Press: 757 Torr", "Melting Point": "39 \u00b0C", "Density": "3.25 g/cm\u00b3 @ Temp: 20 \u00b0C"}}