{"cas_no": "7789-60-8", "cn_name": "\u4e09\u6eb4\u5316\u78f7", "en_name": ["Phosphorus tribromide", "Phosphorous tribromide", "Phosphorus bromide (PBr3)", "Phosphorous bromide", "Phosphorus tribromide", "Tribromophosphine", "PBr3"], "SMILES": "P(Br)(Br)Br", "physical_data": {"Molecular Weight": "270.69", "Molecular Formula": "Br3P", "Boiling Point": "173.2 \u00b0C", "Melting Point": "-41.5 \u00b0C", "Density": "2.85 g/cm\u00b3 @ Temp: 15 \u00b0C"}}