{"cas_no": "7789-67-5", "cn_name": "\u6eb4\u5316\u9521", "en_name": ["Tin tetrabromide", "Stannane, tetrabromo-", "Tin bromide (SnBr4)", "Tetrabromostannane", "Stannic bromide", "Tin tetrabromide", "Tetrabromotin", "Tin(IV) bromide"], "SMILES": "[Sn](Br)(Br)(Br)Br", "physical_data": {"Molecular Weight": "438.33", "Molecular Formula": "Br4Sn", "Boiling Point": "203-204 \u00b0C", "Melting Point": "31 \u00b0C", "Density": "3.34 g/cm\u00b3"}}