{"cas_no": "7789-30-2", "cn_name": "\u4e94\u6c1f\u5316\u6eb4", "en_name": ["Bromine pentafluoride", "Bromine fluoride (BrF5)", "Bromine pentafluoride"], "SMILES": "Br(F)(F)(F)(F)F", "physical_data": {"Molecular Weight": "174.90", "Molecular Formula": "BrF5", "Boiling Point": "40.76 \u00b0C", "Melting Point": "-60.5 \u00b0C", "Density": "2.4604 g/cm\u00b3 @ Temp: 25 \u00b0C"}}