{"cas_no": "7789-24-4", "cn_name": "\u6c1f\u5316\u9502", "en_name": ["Lithium fluoride", "Lithium fluoride (LiF)", "Lithium fluoride", "TLD 100", "Lithium monofluoride", "NTL 50", "PTL 710", "Lithium monofluoride (LiF)", "NSC 12957", "LFDNB"], "SMILES": "F[Li]", "physical_data": {"Molecular Weight": "", "Molecular Formula": "FLi", "Boiling Point": "1681 \u00b0C", "Melting Point": "848 \u00b0C", "Density": "2.640 g/cm\u00b3 @ Temp: 20 \u00b0C"}}