{"cas_no": "7789-80-2", "cn_name": "\u7898\u9178\u9499", "en_name": ["Calcium iodate", "Iodic acid (HIO3), calcium salt (2:1)", "Calcium iodate (Ca(IO3)2)", "Iodic acid (HIO3), calcium salt", "Iodic acid, calcium salt", "Calcium iodate", "Laurarite"], "SMILES": "I(=O)(=O)O.[Ca]", "physical_data": {"Molecular Weight": "", "Molecular Formula": "Ca.2HIO3", "Melting Point": "540 \u00b0C (decomp)", "Density": "4.519 g/cm\u00b3 @ Temp: 15 \u00b0C"}}