{"cas_no": "7789-19-7", "cn_name": "\u6c1f\u5316\u94dc", "en_name": ["Copper fluoride (CuF2)", "Copper fluoride (CuF2)", "Copper difluoride", "Cupric fluoride", "Copper(2+) fluoride", "Copper(II) fluoride"], "SMILES": "[Cu](F)F", "physical_data": {"Molecular Weight": "", "Molecular Formula": "CuF2", "Melting Point": "770 \u00b0C", "Density": "4.85 g/cm\u00b3"}}