{"cas_no": "7789-27-7", "cn_name": "\u6c1f\u5316\u94ca(I)", "en_name": ["Thallium fluoride", "Thallium fluoride (TlF)", "Thallium monofluoride", "Thallous fluoride", "Thallium fluoride (Tl4F4)", "Thallium fluoride"], "SMILES": "F[Tl]", "physical_data": {"Molecular Weight": "", "Molecular Formula": "FTl", "Boiling Point": "655 \u00b0C", "Melting Point": "327 \u00b0C", "Density": "8.36 g/cm\u00b3 @ Temp: 20 \u00b0C"}}