{"cas_no": "7789-99-3", "cn_name": "\u4e59\u9178-2-\u7532\u57fa\u620a\u916f", "en_name": ["1-Pentanol, 2-methyl-, 1-acetate", "1-Pentanol, 2-methyl-, 1-acetate", "1-Pentanol, 2-methyl-, acetate", "2-Methylpentyl acetate"], "SMILES": "C(COC(C)=O)(CCC)C", "physical_data": {"Molecular Weight": "144.21", "Molecular Formula": "C8H16O2", "Boiling Point": "163 \u00b0C"}}