{"cas_no": "7789-47-1", "cn_name": "\u6eb4\u5316\u6c5e", "en_name": ["Mercury dibromide", "Mercury bromide (HgBr2)", "Mercuric bromide", "Mercury dibromide", "Mercuric dibromide", "Mercury(II) bromide", "Dibromomercury"], "SMILES": "[Hg](Br)Br", "physical_data": {"Molecular Weight": "", "Molecular Formula": "Br2Hg", "Boiling Point": "322 \u00b0C", "Melting Point": "237 \u00b0C", "Density": "6.05 g/cm\u00b3"}}