{"cas_no": "7789-46-0", "cn_name": "\u6eb4\u5316\u4e9a\u94c1", "en_name": ["Ferrous bromide", "Iron bromide (FeBr2)", "Ferrous bromide", "Iron dibromide", "Dibromoiron", "Iron(II) bromide"], "SMILES": "[Fe](Br)Br", "physical_data": {"Molecular Weight": "", "Molecular Formula": "Br2Fe", "Boiling Point": "967 \u00b0C", "Melting Point": "689 \u00b0C"}}