{"cas_no": "7789-00-6", "cn_name": "\u94ec\u9178\u94be", "en_name": ["Dipotassium chromate (K2CrO4)", "Chromic acid (H2CrO4), potassium salt (1:2)", "Chromic acid (H2CrO4), dipotassium salt", "Neutral potassium chromate", "Potassium chromate(VI)", "Potassium chromate (K2(CrO4))", "Bipotassium chromate", "Dipotassium chromate (K2CrO4)", "Dipotassium chromate", "Potassium chromate", "Dipotassium monochromate", "Dipotassium chromate(2-)"], "SMILES": "[Cr](O)(O)(=O)=O.[K]", "physical_data": {"Molecular Weight": "", "Molecular Formula": "CrH2O4.2K", "Melting Point": "975 \u00b0C", "Density": "2.73 g/cm\u00b3"}}