{"cas_no": "7789-38-0", "cn_name": "\u6eb4\u9178\u94a0", "en_name": ["Sodium bromate", "Bromic acid, sodium salt (1:1)", "Bromic acid, sodium salt", "Sodium bromate", "Neutralizer K 126", "Neutralizer K 140", "Neutralizer K 938", "Sodium bromate (NaBrO3)"], "SMILES": "Br(=O)(=O)O.[Na]", "physical_data": {"Molecular Weight": "", "Molecular Formula": "BrHO3.Na", "Melting Point": "381 \u00b0C", "Density": "3.339 g/cm\u00b3 @ Temp: 17.5 \u00b0C"}}