{"cas_no": "7789-41-5", "cn_name": "\u6eb4\u5316\u9499", "en_name": ["Calcium bromide", "Calcium bromide (CaBr2)", "Calcium bromide", "Calcium dibromide"], "SMILES": "[Ca](Br)Br", "physical_data": {"Molecular Weight": "", "Molecular Formula": "Br2Ca", "Melting Point": "730 \u00b0C", "Density": "3.350 g/cm\u00b3"}}