{"cas_no": "7789-66-4", "cn_name": "\u56db\u6eb4\u5316\u7845", "en_name": ["Silicon bromide", "Silane, tetrabromo-", "Silicon bromide (SiBr4)", "Tetrabromosilane", "Silicon tetrabromide", "Perbromosilane", "Silicon bromide"], "SMILES": "[Si](Br)(Br)(Br)Br", "physical_data": {"Molecular Weight": "347.70", "Molecular Formula": "Br4Si", "Boiling Point": "154 \u00b0C", "Melting Point": "5 \u00b0C", "Density": "2.772 g/cm\u00b3 @ Temp: 25 \u00b0C"}}