{"cas_no": "7789-48-2", "cn_name": "\u6eb4\u5316\u9541", "en_name": ["Magnesium bromide", "Magnesium bromide (MgBr2)", "Magnesium bromide", "Magnesium dibromide"], "SMILES": "[Mg](Br)Br", "physical_data": {"Molecular Weight": "", "Molecular Formula": "Br2Mg", "Melting Point": "165 \u00b0C (decomp)", "Density": "3.720 g/cm\u00b3"}}