{"cas_no": "7789-75-5", "cn_name": "\u6c1f\u5316\u9499", "en_name": ["Calcium fluoride", "Calcium fluoride (CaF2)", "Calcium fluoride", "Irtran 3", "Calcium difluoride", "Calcium difluoride (CaF2)", "HO 100", "Calcarea fluorica", "HO 100W", "Fluorite Powder Calcium Fluoride", "MeSH ID: D002124"], "SMILES": "[Ca](F)F", "physical_data": {"Molecular Weight": "", "Molecular Formula": "CaF2", "Boiling Point": "2500 \u00b0C", "Melting Point": "1403 \u00b0C", "Density": "3.18 g/cm\u00b3"}}