{"cas_no": "7789-65-3", "cn_name": "\u56db\u6eb4\u5316\u7852", "en_name": ["Selenium bromide (SeBr4), (T-4)-", "Selenium bromide (SeBr4), (T-4)-", "Selenium bromide (SeBr4)", "Selenium tetrabromide"], "SMILES": "[Se](Br)(Br)(Br)Br", "physical_data": {"Molecular Weight": "398.58", "Molecular Formula": "Br4Se", "Melting Point": "123 \u00b0C"}}