{"cas_no": "7789-43-7", "cn_name": "\u65e0\u6c34\u6eb4\u5316\u94b4", "en_name": ["Cobalt dibromide", "Cobalt bromide (CoBr2)", "Cobaltous bromide", "Cobalt(II) bromide", "Cobalt dibromide", "Cobalt bromide"], "SMILES": "[Co](Br)Br", "physical_data": {"Molecular Weight": "", "Molecular Formula": "Br2Co", "Melting Point": "676.6 \u00b0C", "Density": "4.909 g/cm\u00b3 @ Temp: 25 \u00b0C"}}