{"cas_no": "7789-18-6", "cn_name": "\u785d\u9178\u94ef", "en_name": ["Cesium nitrate", "Nitric acid, cesium salt (1:1)", "Cesium nitrate", "Nitric acid, cesium salt"], "SMILES": "N(=O)(=O)O.[Cs]", "physical_data": {"Molecular Weight": "", "Molecular Formula": "Cs.HNO3", "Melting Point": "245 \u00b0C", "Density": "3.6415 g/cm\u00b3 @ Temp: 15.15 \u00b0C"}}