{"cas_no": "7789-92-6", "cn_name": "1\uff0c3\uff0c3-\u4e09\u4e59\u6c27\u57fa\u4e19\u70f7", "en_name": ["1,1,3-Triethoxypropane", "Propane, 1,1,3-triethoxy-", "Propionaldehyde, 3-ethoxy-, diethyl acetal", "1,1,3-Triethoxypropane", "\u03b2-Ethoxypropionaldehyde diethyl acetal", "3-Ethoxypropionaldehyde diethyl acetal", "NSC 71868"], "SMILES": "C(CCOCC)(OCC)OCC", "physical_data": {"Molecular Weight": "176.25", "Molecular Formula": "C9H20O3", "Boiling Point": "70 \u00b0C @ Press: 13 Torr"}}