{"cas_no": "7789-20-0", "cn_name": "\u91cd\u6c34", "en_name": ["Water-d2", "Water-d2", "Water, heavy (D2O)", "Deuterium oxide", "Dideuterium oxide", "Heavy water (D2O)", "Heavy water-d2", "Heavy water", "Deuterium oxide (D2O)", "Water-2H2", "Deuterium oxide-d2", "Dideuterium monoxide"], "SMILES": "O([2H])[2H]", "physical_data": {"Molecular Weight": "", "Molecular Formula": "D2O", "Boiling Point": "101.42 \u00b0C", "Melting Point": "3.81 \u00b0C", "Density": "1.104 g/cm\u00b3"}}