{"cas_no": "7789-21-1", "cn_name": "\u6c1f\u78fa\u9178", "en_name": ["Fluorosulfuric acid", "Fluorosulfuric acid", "Fluosulfonic acid", "Fluorosulfonic acid", "Fluorosulfuric acid (HSO3F)", "Monofluorosulfuric acid", "Fluosulfuric acid"], "SMILES": "S(F)(=O)(=O)O", "physical_data": {"Molecular Weight": "100.07", "Molecular Formula": "FHO3S", "Boiling Point": "163 \u00b0C @ Press: 760 Torr", "Melting Point": "-89 \u00b0C", "Density": "1.726 g/cm\u00b3 @ Temp: 25 \u00b0C"}}