{"cas_no": "7789-02-8", "cn_name": "\u4e5d\u6c34\u785d\u9178\u94ec(III)", "en_name": ["Chromium nitrate nonahydrate", "Nitric acid, chromium(3+) salt, nonahydrate", "Chromic nitrate nonahydrate", "Chromium nitrate nonahydrate", "Chromium trinitrate nonahydrate", "Chromium nitrate (Cr(NO3)3) nonahydrate", "Chromium(III) nitrate nonahydrate"], "SMILES": "N(=O)(=O)O.[Cr].O", "physical_data": {"Molecular Weight": "", "Molecular Formula": "Cr.9H2O.3HNO3", "Melting Point": "37 \u00b0C"}}