{"cas_no": "7789-29-9", "cn_name": "\u6c1f\u5316\u6c22\u94be", "en_name": ["Potassium bifluoride", "Potassium fluoride (K(HF2))", "Potassium acid fluoride", "Potassium bifluoride", "Potassium hydrogen fluoride", "Potassium hydrogen difluoride", "Potassium monohydrogen difluoride", "Potassium bifluoride (KHF2)", "Potassium hydrogen fluoride (KHF2)", "Hydrogen potassium fluoride (HKF2)", "Hydrogen potassium difluoride", "Hydrogen potassium fluoride", "Potassium fluoride hydrofluoride", "Potassium acid bifluoride", "Difluoro(hydro)potassium"], "SMILES": "", "physical_data": {"Molecular Weight": "", "Molecular Formula": "F2HK", "Melting Point": "227 \u00b0C"}}