{"cas_no": "779-89-5", "cn_name": "3-\u4e09\u6c1f\u7532\u57fa\u8089\u6842\u9178", "en_name": ["3-(Trifluoromethyl)cinnamic acid", "2-Propenoic acid, 3-[3-(trifluoromethyl)phenyl]-", "Cinnamic acid, m-(trifluoromethyl)-", "3-[3-(Trifluoromethyl)phenyl]-2-propenoic acid", "3-(Trifluoromethyl)cinnamic acid", "m-(Trifluoromethyl)cinnamic acid", "3-(3-Trifluoromethylphenyl)acrylic acid"], "SMILES": "C(F)(F)(F)C1=CC(C=CC(O)=O)=CC=C1", "physical_data": {"Molecular Weight": "216.16", "Molecular Formula": "C10H7F3O2", "Melting Point": "136 \u00b0C"}}