{"cas_no": "779-03-3", "cn_name": "9-\u6c28\u57fa\u84bd\u76d0\u9178\u76d0", "en_name": ["9-Aminoanthracene", "9-Anthracenamine", "9-Anthramine", "10-Anthracylamine", "9-Aminoanthracene", "5-Aminoanthracene", "NSC 125517", "NSC 155202", "9-Anthrylamine"], "SMILES": "NC=1C2=C(C=C3C1C=CC=C3)C=CC=C2", "physical_data": {"Molecular Weight": "193.24", "Molecular Formula": "C14H11N", "Melting Point": "215.5 \u00b0C"}}