{"cas_no": "779-88-4", "cn_name": "2,5-\u53cc(\u4e09\u6c1f\u7532\u57fa)\u82ef\u915a", "en_name": ["2,5-Bis(trifluoromethyl)phenol", "Phenol, 2,5-bis(trifluoromethyl)-", "2,5-Xylenol, \u03b1,\u03b1,\u03b1,\u03b1\u2032,\u03b1\u2032,\u03b1\u2032-hexafluoro-", "2,5-Bis(trifluoromethyl)phenol"], "SMILES": "C(F)(F)(F)C1=CC(O)=C(C(F)(F)F)C=C1", "physical_data": {"Molecular Weight": "230.11", "Molecular Formula": "C8H4F6O", "Melting Point": "55 \u00b0C"}}