{"cas_no": "779-27-1", "cn_name": "7-\u7f9f\u57fa\u9999\u8c46\u7d20-3-\u7fa7\u9178", "en_name": ["7-Hydroxycoumarin-3-carboxylic acid", "2H-1-Benzopyran-3-carboxylic acid, 7-hydroxy-2-oxo-", "7-Hydroxy-2-oxo-2H-1-benzopyran-3-carboxylic acid", "3-Carboxy-7-hydroxycoumarin", "Umbelliferone-3-carboxylic acid", "7-Hydroxycoumarin-3-carboxylic acid", "3-Carboxyumbelliferone", "NSC 115545", "7-Hydroxycoumarin carboxylic acid", "7-Hydroxycoumarinyl-3-carboxylic acid", "7-Hydroxy-2-oxobenzopyran-3-carboxylic acid"], "SMILES": "O=C1OC=2C(C=C1C(O)=O)=CC=C(O)C2", "physical_data": {"Molecular Weight": "206.15", "Molecular Formula": "C10H6O5", "Melting Point": "271 \u00b0C (decomp)"}}