{"cas_no": "779-90-8", "cn_name": "\u4e09\u4e59\u9170\u57fa\u82ef", "en_name": ["1,1\u2032,1\u2032\u2032-(1,3,5-Benzenetriyl)tris[ethanone]", "Ethanone, 1,1\u2032,1\u2032\u2032-(1,3,5-benzenetriyl)tris-", "Benzene, 1,3,5-triacetyl-", "1,1\u2032,1\u2032\u2032-(1,3,5-Benzenetriyl)tris[ethanone]", "1,3,5-Triacetylbenzene", "NSC 61943", "1-(3,5-Diacetylphenyl)ethan-1-one", "1-(3,5-Diacetylphenyl)ethanone"], "SMILES": "C(C)(=O)C1=CC(C(C)=O)=CC(C(C)=O)=C1", "physical_data": {"Molecular Weight": "204.22", "Molecular Formula": "C12H12O3", "Melting Point": "160-162 \u00b0C"}}