{"cas_no": "779-02-2", "cn_name": "9-\u7532\u57fa\u84bd", "en_name": ["9-Methylanthracene", "Anthracene, 9-methyl-", "9-Methylanthracene", "NSC 400540"], "SMILES": "CC=1C2=C(C=C3C1C=CC=C3)C=CC=C2", "physical_data": {"Molecular Weight": "192.26", "Molecular Formula": "C15H12", "Boiling Point": "196-197 \u00b0C", "Melting Point": "81.5 \u00b0C"}}