{"cas_no": "7790-48-9", "cn_name": "\u56db\u7898\u5316\u78b2", "en_name": ["Tellurium iodide (TeI4), (T-4)-", "Tellurium iodide (TeI4), (T-4)-", "Tellurium iodide (TeI4)", "Tellurium tetraiodide", "Tellurium iodide (Te0.2I0.8)"], "SMILES": "[Te](I)(I)(I)I", "physical_data": {"Molecular Weight": "", "Molecular Formula": "I4Te", "Melting Point": "280 \u00b0C", "Density": "5.05 g/cm\u00b3 @ Temp: 15 \u00b0C"}}