{"cas_no": "7790-86-5", "cn_name": "\u4e09\u6c2f\u5316\u94c8", "en_name": ["Cerium trichloride", "Cerium chloride (CeCl3)", "Cerous chloride", "Cerium trichloride", "Cerium chloride", "Cerium(III) chloride", "Cerous(III) chloride", "NSC 84267"], "SMILES": "[Ce](Cl)(Cl)Cl", "physical_data": {"Molecular Weight": "", "Molecular Formula": "CeCl3", "Melting Point": "788 \u00b0C"}}