{"cas_no": "7790-98-9", "cn_name": "\u9ad8\u6c2f\u9178\u94f5", "en_name": ["Ammonium perchlorate", "Perchloric acid, ammonium salt (1:1)", "Perchloric acid, ammonium salt", "Ammonium perchlorate", "Ammonium perchlorate (NH4ClO4)", "PKhA", "NK 270", "Arcite 322", "Arcite 155", "Arcadene 426", "HT 398", "Dyno AP", "PChA", "AP", "Arcadene 451"], "SMILES": "Cl(=O)(=O)(=O)O.N", "physical_data": {"Molecular Weight": "", "Molecular Formula": "ClHO4.H3N", "Melting Point": "&gt;300 \u00b0C", "Density": "1.95 g/cm\u00b3"}}