{"cas_no": "7790-99-0", "cn_name": "\u4e00\u6c2f\u5316\u7898", "en_name": ["Iodine chloride", "Iodine chloride (ICl)", "Wijs' chloride", "Iodine monochloride", "Chlorine iodide (ClI)", "Iodochlorine", "Chlorine iodide", "Iodine(I) chloride", "Chlorine monoiodide", "Iodine chloride", "Iodomonochloride", "Iodonium chloride"], "SMILES": "ClI", "physical_data": {"Molecular Weight": "162.36", "Molecular Formula": "ClI", "Melting Point": "27.19 \u00b0C", "Density": "3.10 g/cm\u00b3 @ Temp: 29 \u00b0C"}}