{"cas_no": "7790-30-9", "cn_name": "\u7898\u5316\u4e9a\u94ca", "en_name": ["Thallium iodide (TlI)", "Thallium iodide (TlI)", "Thallium monoiodide", "Thallous iodide", "Thallium iodide", "Thallium(1+) iodide", "Thallium(I) iodide"], "SMILES": "I[Tl]", "physical_data": {"Molecular Weight": "", "Molecular Formula": "ITl", "Boiling Point": "823 \u00b0C", "Melting Point": "440 \u00b0C"}}