{"cas_no": "7790-38-7", "cn_name": "\u4e8c\u7898\u5316\u94af", "en_name": ["Palladium diiodide", "Palladium iodide (PdI2)", "Palladous iodide", "Palladium diiodide", "Palladium iodide", "Palladium(II) iodide"], "SMILES": "[Pd](I)I", "physical_data": {"Molecular Weight": "", "Molecular Formula": "I2Pd", "Melting Point": "810 \u00b0C (decomp)", "Density": "6.06 g/cm\u00b3"}}