{"cas_no": "7790-76-3", "cn_name": "\u7126\u78f7\u9178\u9499", "en_name": ["Calcium pyrophosphate (Ca2P2O7)", "Diphosphoric acid, calcium salt (1:2)", "Pyrophosphoric acid, calcium salt (1:2)", "Calcium pyrophosphate (Ca2P2O7)", "Calcium pyrophosphate", "Dicalcium pyrophosphate", "Calcium phosphate (Ca2P2O7)", "Dicalcium diphosphate", "NP 970-10", "C 54-80", "Calcium metaphosphate oxide (Ca2(PO3)2O)", "Calcium (diphosphate) (Ca2(P2O7))"], "SMILES": "O(P(=O)(O)O)P(=O)(O)O.[Ca]", "physical_data": {"Molecular Weight": "", "Molecular Formula": "Ca.<sup>1</sup>/2H4O7P2", "Melting Point": "1353 \u00b0C", "Density": "3.09 g/cm\u00b3"}}