{"cas_no": "7790-80-9", "cn_name": "\u7898\u5316\u9549", "en_name": ["Cadmium iodide", "Cadmium iodide (CdI2)", "Cadmium diiodide", "Cadmium iodide", "Cadmium(II) iodide"], "SMILES": "[Cd](I)I", "physical_data": {"Molecular Weight": "", "Molecular Formula": "CdI2", "Boiling Point": "796 \u00b0C", "Melting Point": "387 \u00b0C", "Density": "5.67 g/cm\u00b3"}}