{"cas_no": "7790-91-2", "cn_name": "\u4e09\u6c1f\u5316\u6c2f", "en_name": ["Chlorine trifluoride", "Chlorine fluoride (ClF3)", "Chlorine trifluoride", "Chlorine trifluoride (ClF3)", "Chlorotrifluoride", "Chlorine fluoride (Cl2F6)", "Trifluorochlorine"], "SMILES": "Cl(F)(F)F", "physical_data": {"Molecular Weight": "92.45", "Molecular Formula": "ClF3", "Boiling Point": "11.75 \u00b0C", "Melting Point": "-76.34 \u00b0C"}}