{"cas_no": "7790-92-3", "cn_name": "\u6b21\u6c2f\u9178", "en_name": ["Hypochlorous acid", "Hypochlorous acid", "Hypochlorous acid (HClO)", "Hypochlorous acid (HOCl)", "Pure Star MP 100000C", "Comfosy", "Brio HOCl", "BriotechHOCl", "Dent Zia", "MeSH ID: D006997"], "SMILES": "ClO", "physical_data": {"Molecular Weight": "52.46", "Molecular Formula": "ClHO", "Boiling Point": "125-130 \u00b0C @ Press: 11 Torr", "Density": "1.1655 g/cm\u00b3 @ Temp: 20 \u00b0C"}}