{"cas_no": "7790-29-6", "cn_name": "\u7898\u5316\u94f7", "en_name": ["Rubidium iodide", "Rubidium iodide (RbI)", "Rubidium monoiodide", "Rubidium iodide"], "SMILES": "I[Rb]", "physical_data": {"Molecular Weight": "", "Molecular Formula": "IRb", "Boiling Point": "1300 \u00b0C", "Melting Point": "642 \u00b0C", "Density": "3.55 g/cm\u00b3"}}