{"cas_no": "7790-47-8", "cn_name": "\u56db\u7898\u5316\u9521", "en_name": ["Tin iodide (SnI4)", "Stannane, tetraiodo-", "Tin iodide (SnI4)", "Tetraiodostannane", "Stannic iodide", "Tin tetraiodide", "Tetraiodotin", "Tin(IV) iodide"], "SMILES": "[Sn](I)(I)(I)I", "physical_data": {"Molecular Weight": "626.33", "Molecular Formula": "I4Sn", "Boiling Point": "364-365 \u00b0C", "Melting Point": "143 \u00b0C", "Density": "4.473 g/cm\u00b3"}}