{"cas_no": "7790-44-5", "cn_name": "\u7898\u5316\u9511", "en_name": ["Triiodostibine", "Stibine, triiodo-", "Antimony iodide (SbI3)", "Triiodostibine", "Antimony triiodide"], "SMILES": "[Sb](I)(I)I", "physical_data": {"Molecular Weight": "", "Molecular Formula": "I3Sb", "Boiling Point": "420 \u00b0C", "Melting Point": "168 \u00b0C", "Density": "4.921 g/cm\u00b3 @ Temp: 17 \u00b0C"}}