{"cas_no": "7790-62-7", "cn_name": "\u7126\u786b\u9178\u94be", "en_name": ["Potassium pyrosulfate", "Disulfuric acid, potassium salt (1:2)", "Pyrosulfuric acid, dipotassium salt", "Disulfuric acid, dipotassium salt", "Potassium pyrosulfate (K2S2O7)", "Dipotassium pyrosulfate", "Potassium pyrosulfate", "Potassium disulfate", "Dipotassium disulfate", "Potassium sulfate (K2S2O7)", "Potassium disulfate (K2S2O7)"], "SMILES": "O(S(=O)(=O)O)S(=O)(=O)O.[K]", "physical_data": {"Molecular Weight": "", "Molecular Formula": "H2O7S2.2K", "Melting Point": "335 \u00b0C"}}