{"cas_no": "7790-69-4", "cn_name": "\u785d\u9178\u9502", "en_name": ["Lithium nitrate", "Nitric acid, lithium salt (1:1)", "Nitric acid, lithium salt", "Lithium nitrate", "Lifetime N", "Rasir", "Eucon Integral ARC"], "SMILES": "N(=O)(=O)O.[Li]", "physical_data": {"Molecular Weight": "", "Molecular Formula": "HNO3.Li", "Melting Point": "127 \u00b0C"}}