{"cas_no": "7790-79-6", "cn_name": "\u6c1f\u5316\u9549", "en_name": ["Cadmium fluoride", "Cadmium fluoride (CdF2)", "Cadmium fluoride", "Cadmium difluoride"], "SMILES": "[Cd](F)F", "physical_data": {"Molecular Weight": "", "Molecular Formula": "CdF2", "Boiling Point": "1748 \u00b0C", "Melting Point": "1109 \u00b0C"}}