{"cas_no": "7790-94-5", "cn_name": "\u6c2f\u78fa\u9178", "en_name": ["Chlorosulfonic acid", "Chlorosulfuric acid", "Chlorosulfonic acid", "Sulfuric chlorohydrin", "Monochlorosulfuric acid", "Sulfuric acid chlorohydrin", "Monochlorosulfonic acid"], "SMILES": "S(Cl)(=O)(=O)O", "physical_data": {"Molecular Weight": "116.52", "Molecular Formula": "ClHO3S", "Boiling Point": "60-64 \u00b0C @ Press: 2-4 Torr", "Melting Point": "-80 \u00b0C", "Density": "1.753 g/cm\u00b3 @ Temp: 20 \u00b0C"}}