{"cas_no": "7790-53-6", "cn_name": "\u504f\u78f7\u9178\u94be", "en_name": ["Potassium metaphosphate", "Metaphosphoric acid (HPO3), potassium salt (1:1)", "Potassium metaphosphate (KPO3)", "Metaphosphoric acid (HPO3), potassium salt", "Kurrol's salt", "Potassium phosphate (KPO3)", "Potassium polymetaphosphate", "Potassium Kurrol's salt", "Potassium metaphosphate"], "SMILES": "P(=O)(=O)O.[K]", "physical_data": {"Molecular Weight": "", "Molecular Formula": "HO3P.K", "Melting Point": "806 \u00b0C", "Density": "2.48 g/cm\u00b3"}}