{"cas_no": "7791-23-3", "cn_name": "\u6c2f\u6c27\u5316\u7852", "en_name": ["Selenium oxychloride", "Seleninyl chloride", "Selenium oxychloride", "Seleninyl dichloride", "Selenium oxydichloride", "Selenium chloride oxide (SeCl2O)", "Selenium dichloride oxide", "Selenium oxychloride (SeOCl2)", "Selenyl dichloride (SeOCl2)", "Dichlorooxoselenium"], "SMILES": "[Se](Cl)(Cl)=O", "physical_data": {"Molecular Weight": "165.87", "Molecular Formula": "Cl2OSe", "Boiling Point": "180 \u00b0C", "Melting Point": "8.5 \u00b0C", "Density": "2.44 g/cm\u00b3 @ Temp: 16 \u00b0C"}}