{"cas_no": "7791-12-0", "cn_name": "\u6c2f\u5316\u94ca", "en_name": ["Thallium monochloride", "Thallium chloride (TlCl)", "Thallium monochloride", "Thallous chloride", "Thallium(I) chloride", "Thallium chloride", "Thallium(1+) chloride"], "SMILES": "Cl[Tl]", "physical_data": {"Molecular Weight": "", "Molecular Formula": "ClTl", "Boiling Point": "720 \u00b0C", "Melting Point": "430 \u00b0C", "Density": "7.004 g/cm\u00b3 @ Temp: 30 \u00b0C"}}