{"cas_no": "7791-03-9", "cn_name": "\u9ad8\u6c2f\u9178\u9502", "en_name": ["Lithium perchlorate", "Perchloric acid, lithium salt (1:1)", "Perchloric acid, lithium salt", "Lithium perchlorate", "Lithium perchlorate (LiClO4)", "PC 3600", "LiClO4", "Lithium chloride oxide (LiClO4)"], "SMILES": "Cl(=O)(=O)(=O)O.[Li]", "physical_data": {"Molecular Weight": "", "Molecular Formula": "ClHO4.Li", "Melting Point": "236 \u00b0C", "Density": "1.06056 g/cm\u00b3 @ Temp: 15 \u00b0C"}}