{"cas_no": "7791-25-5", "cn_name": "\u78fa\u9170\u6c2f", "en_name": ["Sulfuryl chloride", "Sulfuryl chloride", "Sulfuric oxychloride", "Sulfuric dichloride", "Sulfonyl chloride", "Sulfur chloride oxide (SO2Cl2)", "Sulfuryl chloride (SO2Cl2)", "Sulphuryl chloride", "Sulfuryl dichloride", "Sulfonyl dichloride", "Sulfur chloride oxide (SCl2O2)", "Sulfur oxychloride (SO2Cl2)"], "SMILES": "S(Cl)(Cl)(=O)=O", "physical_data": {"Molecular Weight": "134.97", "Molecular Formula": "Cl2O2S", "Boiling Point": "69.3 \u00b0C", "Melting Point": "-54.1 \u00b0C", "Density": "1.6674 g/cm\u00b3 @ Temp: 20 \u00b0C"}}