{"cas_no": "7791-10-8", "cn_name": "\u6c2f\u9178\u9536", "en_name": ["Strontium chlorate", "Chloric acid, strontium salt (2:1)", "Chloric acid, strontium salt", "Strontium chlorate", "Strontium chlorate (Sr(ClO3)2)"], "SMILES": "Cl(=O)(=O)O.[Sr]", "physical_data": {"Molecular Weight": "", "Molecular Formula": "ClHO3.<sup>1</sup>/2Sr", "Melting Point": "120 \u00b0C (decomp)", "Density": "3.15 g/cm\u00b3"}}