{"cas_no": "7791-18-6", "cn_name": "\u516d\u6c34\u6c2f\u5316\u9541", "en_name": ["Magnesium chloride (MgCl2) hydrate (1:6)", "Magnesium chloride (MgCl2), hydrate (1:6)", "Magnesium chloride, hexahydrate", "Magnesium chloride (MgCl2), hexahydrate", "Magnesium chloride (MgCl2) hydrate (1:6)", "Magnesium dichloride hexahydrate", "Magnesium chloride hydrate (MgCl2.6H2O)", "Magnesium chloride hexahydrate (MgCl2.6H2O)", "Magnesium(II) chloride hexahydrate", "Magnesium chloride hexahydrate", "Crystallin CS", "Bishopite", "Magnesfine AT", "MgCl2.6H2O", "Magnesfine HT"], "SMILES": "[Mg](Cl)Cl.O", "physical_data": {"Molecular Weight": "", "Molecular Formula": "Cl2Mg.6H2O", "Melting Point": "116.7 \u00b0C", "Density": "1.56 g/cm\u00b3"}}