{"cas_no": "7791-11-9", "cn_name": "\u6c2f\u5316\u94f7", "en_name": ["Rubidium chloride (RbCl)", "Rubidium chloride (RbCl)", "Rubidium chloride", "Rubidium monochloride", "NSC 84273"], "SMILES": "Cl[Rb]", "physical_data": {"Molecular Weight": "", "Molecular Formula": "ClRb", "Melting Point": "726 \u00b0C", "Density": "2.803 g/cm\u00b3 @ Temp: 25 \u00b0C"}}