{"cas_no": "7791-07-3", "cn_name": "\u9ad8\u6c2f\u9178\u94a0\u4e00\u6c34\u5316\u5408\u7269", "en_name": ["Sodium perchlorate monohydrate", "Perchloric acid, sodium salt, monohydrate", "Sodium perchlorate monohydrate", "Sodium perchlorate (NaClO4) monohydrate"], "SMILES": "Cl(=O)(=O)(=O)O.[Na].O", "physical_data": {"Molecular Weight": "", "Molecular Formula": "ClHO4.H2O.Na", "Melting Point": "472 \u00b0C"}}