{"cas_no": "7791-21-1", "cn_name": "\u4e00\u6c27\u5316\u4e8c\u6c2f", "en_name": ["Chlorine oxide (Cl2O)", "Chlorine oxide (Cl2O)", "Chlorine monooxide", "Dichloroxide", "Hypochlorous anhydride", "Chlorine monoxide (Cl2O)", "Dichlorine monoxide", "Dichlorine oxide", "Oxygen dichloride", "Dichlorine monoxide (ClOCl)"], "SMILES": "O(Cl)Cl", "physical_data": {"Molecular Weight": "86.91", "Molecular Formula": "Cl2O", "Boiling Point": "2.2 \u00b0C", "Melting Point": "-120.6 \u00b0C"}}