{"cas_no": "7791-27-7", "cn_name": "\u6c2f\u5316\u4e8c\u786b\u9170", "en_name": ["Disulfuryl chloride", "Disulfuryl chloride", "Pyrosulfuryl chloride", "Chlorosulfonic anhydride", "Disulfur pentoxydichloride", "Sulfur pentoxydichloride", "Pyrosulfuryl chloride (S2O5Cl2)"], "SMILES": "O(S(Cl)(=O)=O)S(Cl)(=O)=O", "physical_data": {"Molecular Weight": "215.03", "Molecular Formula": "Cl2O5S2", "Boiling Point": "151 \u00b0C", "Melting Point": "-37 \u00b0C", "Density": "1.837 g/cm\u00b3"}}