{"cas_no": "779331-49-6", "cn_name": "4-\u6c1f-2-(4,4,5,5-\u56db\u7532\u57fa-1,3,2-\u4e8c\u6c27\u6742\u787c\u6742\u73af\u620a\u70f7-2-\u57fa)\u82ef\u915a", "en_name": ["4-Fluoro-2-(4,4,5,5-tetramethyl-1,3,2-dioxaborolan-2-yl)phenol", "Phenol, 4-fluoro-2-(4,4,5,5-tetramethyl-1,3,2-dioxaborolan-2-yl)-", "4-Fluoro-2-(4,4,5,5-tetramethyl-1,3,2-dioxaborolan-2-yl)phenol"], "SMILES": "OC1=C(B2OC(C)(C)C(C)(C)O2)C=C(F)C=C1", "physical_data": {"Molecular Weight": "238.06", "Molecular Formula": "C12H16BFO3", "Melting Point": "27-28 \u00b0C"}}