{"cas_no": "7795-95-1", "cn_name": "1-\u8f9b\u70f7\u78fa\u9170\u6c2f", "en_name": ["1-Octanesulfonyl chloride", "1-Octanesulfonyl chloride", "Octanesulfonyl chloride", "n-Octanesulfonyl chloride", "Octylsulfonyl chloride"], "SMILES": "C(CCCCCCC)S(Cl)(=O)=O", "physical_data": {"Molecular Weight": "212.74", "Molecular Formula": "C8H17ClO2S", "Boiling Point": "110-111 \u00b0C @ Press: 4 Torr"}}