{"cas_no": "7795-87-1", "cn_name": "\u78f7\u9178\u4e8c\u7678\u916f", "en_name": ["Phosphoric acid, didecyl ester", "Phosphoric acid, didecyl ester", "Decyl phosphate ((C10H21O)2(HO)PO)", "Didecyl phosphate", "Didecyl hydrogen phosphate", "Didecyl orthophosphate", "Di(decyl)monohydrogenphosphate", "NSC 309954"], "SMILES": "P(OCCCCCCCCCC)(OCCCCCCCCCC)(=O)O", "physical_data": {"Molecular Weight": "378.53", "Molecular Formula": "C20H43O4P", "Melting Point": "46-47 \u00b0C"}}