{"cas_no": "7797-83-3", "cn_name": "1,3-\u82ef\u5e76\u4e8c\u6c27-4-\u7532\u919b", "en_name": ["Benzodioxole-4-carboxaldehyde", "1,3-Benzodioxole-4-carboxaldehyde", "Benzaldehyde, 2,3-(methylenedioxy)-", "2,3-(Methylenedioxy)benzaldehyde", "1,3-Benzodioxole-4-aldehyde", "Benzodioxole-4-carboxaldehyde", "Benzo[d][1,3]dioxole-4-carboxaldehyde", "1,3-Benzodioxole-4-carbaldehyde", "1,3-Dioxaindane-4-carbaldehyde", "2H-1,3-Benzodioxole-4-carbaldehyde"], "SMILES": "C(=O)C1=C2C(OCO2)=CC=C1", "physical_data": {"Molecular Weight": "150.13", "Molecular Formula": "C8H6O3", "Boiling Point": "84-90.5 \u00b0C @ Press: 0.25 Torr", "Melting Point": "34 \u00b0C"}}