{"cas_no": "7797-81-1", "cn_name": "N-\u7f9f\u57fa-1,8-\u8418\u4e8c\u7532\u9170\u4e9a\u80fa", "en_name": ["N-Hydroxynaphthalimide", "1H-Benz[de]isoquinoline-1,3(2H)-dione, 2-hydroxy-", "Naphthalimide, N-hydroxy-", "2-Hydroxy-1H-benz[de]isoquinoline-1,3(2H)-dione", "N-Hydroxynaphthalimide", "N-Hydroxy-1,8-naphthalimide", "Naphthalhydroxamic acid", "NSC 108691", "2-Hydroxy-benzo[de]isoquinoline-1,3-dione"], "SMILES": "O=C1C=2C=3C(C(=O)N1O)=CC=CC3C=CC2", "physical_data": {"Molecular Weight": "213.19", "Molecular Formula": "C12H7NO3", "Melting Point": "284 \u00b0C"}}