{"cas_no": "77996-04-4", "cn_name": "\u6851\u544b\u5583 C", "en_name": ["[(1S,2R,6R)-2-[2,6-Dihydroxy-4-(6-hydroxy-2-benzofuranyl)phenyl]-6-(2,4-dihydroxyphenyl)-4-methyl-3-cyclohexen-1-yl](2,4-dihydroxyphenyl)methanone", "Methanone, [(1S,2R,6R)-2-[2,6-dihydroxy-4-(6-hydroxy-2-benzofuranyl)phenyl]-6-(2,4-dihydroxyphenyl)-4-methyl-3-cyclohexen-1-yl](2,4-dihydroxyphenyl)-", "Methanone, [2-[2,6-dihydroxy-4-(6-hydroxy-2-benzofuranyl)phenyl]-6-(2,4-dihydroxyphenyl)-4-methyl-3-cyclohexen-1-yl](2,4-dihydroxyphenyl)-, [1S-(1\u03b1,2\u03b1,6\u03b2)]-", "[(1S,2R,6R)-2-[2,6-Dihydroxy-4-(6-hydroxy-2-benzofuranyl)phenyl]-6-(2,4-dihydroxyphenyl)-4-methyl-3-cyclohexen-1-yl](2,4-dihydroxyphenyl)methanone", "Mulberrofuran C"], "SMILES": "C(=O)(C1C(C=C(C)CC1C2=C(O)C=C(O)C=C2)C3=C(O)C=C(C=C3O)C4=CC=5C(O4)=CC(O)=CC5)C6=C(O)C=C(O)C=C6", "physical_data": {"Molecular Weight": "580.58", "Molecular Formula": "C34H28O9", "Melting Point": "210 \u00b0C"}}