{"cas_no": "78-04-6", "cn_name": "\u4e8c\u4e01\u57fa\u9a6c\u6765\u9178\u9521", "en_name": ["Dibutyltin maleate", "1,3,2-Dioxastannepin-4,7-dione, 2,2-dibutyl-", "Dibutyltin maleate", "2,2-Dibutyl-1,3,2-dioxastannepin-4,7-dione", "Dibutyl(maleoyldioxy)tin", "Advastab DBTM", "Advastab T 290", "Nuodex V 1525", "Irgastab T 290", "Stavinor 1300SN", "Dibutylstannylene maleate", "Advastab T 340", "Markure UL 2", "KS 4B", "TVS-MA 300", "Mark BT 31", "Irgastab T 4", "Irgastab T 150", "Stann RC 40F", "Stanclere T 157", "Stavinor Sn 1300", "TVS-N 2000E", "TN 3J", "MA 300A", "Mark 275", "Stann RC 71A", "OTS 227", "Stann BM", "Stann BM(N)", "KK 3206", "Mark BT 58", "TN 1000", "KS 4C", "TVS 86SP5", "Stanclere TM", "Stann RC 5R", "TVS-NK 220B", "BM(N)", "T 501", "T 501 (tin compound)", "ADK Stab BT 53", "ADK Stab BT 31", "Stann MMS 22A", "Tinstab BM 360", "Stann RC 90C", "Mark 2289", "N 2000E", "Plastistab 2808", "KS 100A", "Neostann U 870", "Di-n-butyltin maleate", "ZT 203", "Therm-Chek 837"], "SMILES": "C(CCC)[Sn]1(CCCC)OC(=O)C=CC(=O)O1", "physical_data": {"Molecular Weight": "346.99", "Molecular Formula": "C12H20O4Sn", "Melting Point": "125-135 \u00b0C"}}