{"cas_no": "78-08-0", "cn_name": "\u4e59\u70ef\u57fa\u4e09\u4e59\u6c27\u57fa\u7845\u70f7", "en_name": ["Vinyltriethoxysilane", "Silane, ethenyltriethoxy-", "Silane, triethoxyvinyl-", "Ethenyltriethoxysilane", "Triethoxyvinylsilane", "Vinyltriethoxysilane", "NV 1107", "Silane A 151", "VTES", "A 151", "KBE 1003", "Polyscience VTES", "VTS-E", "TSL 8311", "Tri(ethoxo)(vinyl)silane", "GF 56", "UC-A 151", "LS 2300", "Silquest A 151", "V 4910", "Dynasylan VTEU", "YGO 1203", "Dynasylan VTEO", "Sila-Ace S 220", "S 220", "VP-Si 225", "WD 20", "WD 20 (silane)", "Unisilan U 612", "Unisilan 612", "Geniosil GF 56", "Si 255", "SCA 1613", "AH 151", "EB 151", "TM 12", "NSC 151", "JH-V 151", "KH 151", "NQ 71", "DL 151", "DB 151", "Z 6519", "YDH 151", "AC 75", "Silquest A 151NTJ", "VTEO", "Z 6518", "A 151NTJ", "Dow Corning 6518", "LMD 151", "Silaplane S 220", "SCA-V 71E", "KH 188", "Xiameter OFS 6518", "LT 151", "GX 150", "CG-V 151", "SG-Si 151", "Si 151", "SG 151", "T 103647", "A 1522", "A 1522 (crosslinker)", "Silquest A 151NT", "FD 151", "A 14374", "KBM 5220", "CG 151", "A 2151 (silane)", "A 2151", "NDZ 605"], "SMILES": "[Si](OCC)(OCC)(OCC)C=C", "physical_data": {"Molecular Weight": "190.31", "Molecular Formula": "C8H18O3Si", "Boiling Point": "160-161 \u00b0C", "Density": "0.903 g/cm\u00b3"}}