{"cas_no": "78-07-9", "cn_name": "\u4e09\u4e59\u6c27\u57fa\u4e59\u57fa\u7845\u70f7", "en_name": ["Ethyltriethoxysilane", "Silane, triethoxyethyl-", "Triethoxyethylsilane", "Ethaneorthosiliconic acid, triethyl ester", "Ethyltriethoxysilane", "A 15 (silane)", "MTS 32", "A 15", "NSC 5230", "ETES", "Dow Norning 1-6321"], "SMILES": "[Si](OCC)(OCC)(OCC)CC", "physical_data": {"Molecular Weight": "192.33", "Molecular Formula": "C8H20O3Si", "Boiling Point": "158.5 \u00b0C", "Melting Point": "-78 \u00b0C", "Density": "0.896 g/cm\u00b3"}}