{"cas_no": "78-00-2", "cn_name": "\u56db\u4e59\u57fa\u94c5", "en_name": ["Tetraethyllead", "Plumbane, tetraethyl-", "Tetraethylplumbane", "Lead, tetraethyl-", "TEL", "Tetraethyllead", "NSC 22314", "MeSH ID: D013756"], "SMILES": "[Pb](CC)(CC)(CC)CC", "physical_data": {"Molecular Weight": "323.44", "Molecular Formula": "C8H20Pb", "Boiling Point": "202 \u00b0C", "Melting Point": "-136.8 \u00b0C", "Density": "1.653 g/cm\u00b3 @ Temp: 20 \u00b0C"}}