{"cas_no": "78-09-1", "cn_name": "\u539f\u78b3\u9178\u56db\u4e59\u916f", "en_name": ["Tetraethyl orthocarbonate", "Ethane, 1,1\u2032,1\u2032\u2032,1\u2032\u2032\u2032-[methanetetrayltetrakis(oxy)]tetrakis-", "Orthocarbonic acid, tetraethyl ester", "1,1\u2032,1\u2032\u2032,1\u2032\u2032\u2032-[Methanetetrayltetrakis(oxy)]tetrakis[ethane]", "Tetraethoxymethane", "Tetraethyl orthocarbonate", "NSC 28574", "(Triethoxymethoxy)ethane"], "SMILES": "C(OCC)(OCC)(OCC)OCC", "physical_data": {"Molecular Weight": "192.25", "Molecular Formula": "C9H20O4", "Boiling Point": "159.5 \u00b0C", "Melting Point": "222 \u00b0C"}}