{"cas_no": "78-19-3", "cn_name": "3,9-\u4e8c\u4e59\u70ef\u57fa-2,4,8,10-\u56db\u6c27\u6742\u87ba[5.5]\u5341\u4e00\u70f7", "en_name": ["3,9-Divinyl-2,4,8,10-tetraoxaspiro[5.5]undecane", "2,4,8,10-Tetraoxaspiro[5.5]undecane, 3,9-diethenyl-", "2,4,8,10-Tetraoxaspiro[5.5]undecane, 3,9-divinyl-", "3,9-Diethenyl-2,4,8,10-tetraoxaspiro[5.5]undecane", "Acrolein, cyclic diacetal with pentaerythritol", "Acrolein, cyclic neopentanetetrayl acetal", "3,9-Divinyl-2,4,8,10-tetraoxaspiro[5.5]undecane", "Diallylidene pentaerythritol", "Pentaerythritol diacrolein acetal", "NSC 7585", "3,9-Bis(ethenyl)-2,4,8,10-tetraoxaspiro[5.5]undecane"], "SMILES": "C(=C)C1OCC2(COC(C=C)OC2)CO1", "physical_data": {"Molecular Weight": "212.24", "Molecular Formula": "C11H16O4", "Boiling Point": "93-94 \u00b0C @ Press: 1 Torr", "Melting Point": "42 \u00b0C"}}