{"cas_no": "78-10-4", "cn_name": "\u7845\u9178\u4e59\u916f", "en_name": ["Tetraethoxysilane", "Silicic acid (H4SiO4), tetraethyl ester", "Ethyl silicate ((EtO)4Si)", "Ethyl orthosilicate", "Silane, tetraethoxy-", "TEOS", "Tetraethyl silicate", "Tetraethoxysilane", "Silicon ethoxide", "Silicon tetraethoxide", "Dynasil A", "Tetraethoxysilicon", "ES 28 (ester)", "Tetraethyl orthosilicate", "ES 28", "ES 100 (silicate)", "Silikan L", "SI 42", "TES 28", "Silicon tetraethoxide (Si(OEt)4)", "Silicon ethoxide (Si(OEt)4)", "ES 100", "Conservare OH", "Ethyl silicate 28", "TSL 8124", "Tetraethoxysilicon(IV)", "KBE 04", "LS 2430", "Silicon tetraethoxide (Si(OC2H5)4)", "ES 140", "Colcoat 6P", "Ethyl Silicate 45", "ES 45", "T 1807", "LS 2340", "PETEOS", "NSC 4790", "KBM 06", "T 0100", "Unisilan 74", "ES 28P", "T 0100 (ester)", "Remmers 300", "KIEM-Silex OH", "Ethyl silicate PHASE", "Ethyl silicate 28P", "TSLB 124", "PG 121", "WD 932", "TEOS Pure", "SOTEOS", "AY 43-101", "Z 6697", "Ethyl Silicate A", "Silres BS-OH 100", "N 100", "N 100 (silicate)", "Silquest TEOS Pure", "Estel 1000", "Silquest SIT 7110.0", "Si 28 (coupling agent)", "Si 28", "Dynasylan TEOS-UHP", "Ekos 1", "Dynasylan A", "T 1126", "E 28", "SSG-HB 21N", "Dynasylan Silbond Condensed", "ECOS 1", "Tanapel DSR", "SIT 7110.0", "ADC 68", "Silikat TES 28", "KBE 14", "Xiameter 6697", "Dynasilane A", "F 127", "HG 202 (silicate)", "HG 202", "ZY 10735", "CG 502", "C 1002L", "JH-T 28"], "SMILES": "[Si](OCC)(OCC)(OCC)OCC", "physical_data": {"Molecular Weight": "208.33", "Molecular Formula": "C8H20O4Si", "Boiling Point": "168.8 \u00b0C @ Press: 760 Torr", "Melting Point": "-82.5 \u00b0C", "Density": "0.933 g/cm\u00b3 @ Temp: 20 \u00b0C"}}