{"cas_no": "78-11-5", "cn_name": "\u5b63\u620a\u56db\u9187\u56db\u785d\u9178\u916f", "en_name": ["Pentaerythritol, tetranitrate", "1,3-Propanediol, 2,2-bis[(nitrooxy)methyl]-, 1,3-dinitrate", "Pentaerythritol, tetranitrate", "1,3-Propanediol, 2,2-bis[(nitrooxy)methyl]-, dinitrate (ester)", "Angicap", "Angitet", "Antora", "Arcotrate", "Baritrate", "2,2-Bis(hydroxymethyl)-1,3-propanediol tetranitrate", "CHot", "Deltrate 20", "Duotrate", "Erinit", "Hasethrol", "Kaytrate", "Lowetrate", "Martrate 45", "Metranil", "Mycardol", "Myotrate 10", "Neo-Corovas", "Neopentanetetrayl nitrate", "Niperyt", "Niperyth", "Nitropenta", "Nitropentaerythrite", "Nitropentaerythritol", "Nitrotalans", "Pencard", "Pentaerythrityl tetranitrate", "Pentafin", "Pentanitrine", "Pentestan 80", "Pentetrate Unicelles", "Penthrit", "Penthrite", "Pentitrate", "Pentrate", "Pentrite", "Pentritol", "Pentryate", "Pergitral", "Peridex LA", "Peritrate", "Perityl", "PETN", "Prevangor", "Quintrate", "Rythritol", "Subicard", "Tanipent", "Tentrate 20", "Tetranitropentaerythrite", "Tetrasule", "Tranite D-Lay", "Vasodiatol", "Vaso 80 Unicelles", "Nitropenton", "Extex", "TEN", "Tetranitropentaerythritol", "XTX 8003", "Nitropenta 7W", "Vasolat", "Pentanitrol", "Lentrat", "Pentral 80", "Dipentrate", "Dilcoran 80", "Peridex", "Cardiacap", "Nitropent", "Nitrinal", "Pen-Tetra", "Pentrinat", "Nitro-Riletten", "Nitrin", "Nitrine", "Nitrolong", "Penta", "Pentaerithrityl tetranitrate", "LX 13", "PBXN 301", "LX 02-1", "LX 08-0", "LX 16", "LX 16 (explosive)", "C 2", "C 2 (explosive)", "Terpate", "Pentafilin", "Tena", "Tena (explosive)", "PENT", "PP 83"], "SMILES": "C(CON(=O)=O)(CON(=O)=O)(CON(=O)=O)CON(=O)=O", "physical_data": {"Molecular Weight": "316.14", "Molecular Formula": "C5H8N4O12", "Boiling Point": "180 \u00b0C @ Press: 50 Torr", "Melting Point": "140 \u00b0C", "Density": "1.773 g/cm\u00b3 @ Temp: 20 \u00b0C"}}