{"cas_no": "78-13-7", "cn_name": "\u56db(2-\u4e59\u57fa\u4e01\u57fa)\u7845\u9178\u916f", "en_name": ["Silicic acid (H4SiO4), tetrakis(2-ethylbutyl) ester", "Silicic acid (H4SiO4), tetrakis(2-ethylbutyl) ester", "1-Butanol, 2-ethyl-, silicate", "2-Ethylbutyl silicate", "Tetra(2-ethylbutyl) silicate", "Tetrakis(2-ethylbutoxy)silane", "2-Ethylbutyl orthosilicate", "Flo-Cool 180", "Coolanol 25", "Tetrakis(2-ethylbutyl) silicate"], "SMILES": "[Si](OCC(CC)CC)(OCC(CC)CC)(OCC(CC)CC)OCC(CC)CC", "physical_data": {"Molecular Weight": "432.75", "Molecular Formula": "C24H52O4Si", "Boiling Point": "145-149 \u00b0C @ Press: 0.3 Torr", "Melting Point": "301 \u00b0C (decomp)"}}