{"cas_no": "78-18-2", "cn_name": "\u8fc7\u6c27\u5316\u73af\u5df1\u916e", "en_name": ["1-[(1-Hydroperoxycyclohexyl)dioxy]cyclohexanol", "Cyclohexanol, 1-[(1-hydroperoxycyclohexyl)dioxy]-", "Peroxide, 1-hydroperoxycyclohexyl 1-hydroxycyclohexyl", "1-[(1-Hydroperoxycyclohexyl)dioxy]cyclohexanol", "1-Hydroxy-1\u2032-hydroperoxydicyclohexyl peroxide", "Perhexa P", "1-Hydroperoxycyclohexyl 1-hydroxycyclohexyl peroxide"], "SMILES": "O(OC1(O)CCCCC1)C2(OO)CCCCC2", "physical_data": {"Molecular Weight": "246.30", "Molecular Formula": "C12H22O5", "Melting Point": "76-77 \u00b0C"}}