{"cas_no": "78-24-0", "cn_name": "\u4e09\u5b63\u620a\u9187", "en_name": ["Tripentaerythritol", "1,3-Propanediol, 2,2-bis[[3-hydroxy-2,2-bis(hydroxymethyl)propoxy]methyl]-", "Tripentaerythritol", "2,2-Bis[[3-hydroxy-2,2-bis(hydroxymethyl)propoxy]methyl]-1,3-propanediol", "Tris(pentaerythritol)", "NSC 97579", "2-[[3-Hydroxy-2-[[3-hydroxy-2,2-bis(hydroxymethyl)propoxy]methyl]-2-(hydroxymethyl)propoxy]methyl]-2-(hydroxymethyl)propane-1,3-diol"], "SMILES": "C(COCC(CO)(CO)CO)(COCC(CO)(CO)CO)(CO)CO", "physical_data": {"Molecular Weight": "372.41", "Molecular Formula": "C15H32O10", "Melting Point": "249 \u00b0C"}}