{"cas_no": "78-27-3", "cn_name": "1\uff0d\u4e59\u7094\u57fa\u73af\u5df1\u9187", "en_name": ["1-Ethynylcyclohexanol", "Cyclohexanol, 1-ethynyl-", "1-Ethynylcyclohexanol", "1-Ethynyl-1-cyclohexanol", "(1-Hydroxycyclohexyl)ethyne", "1-Ethynyl-1-hydroxycyclohexane", "Ethynylcyclohexanol", "1-Hydroxy-1-ethynylcyclohexane", "(1-Hydroxycyclohexyl)acetylene", "NSC 8194", "DX 3022", "1-Ethynylcyclohexanal", "PC 00685"], "SMILES": "C(#C)C1(O)CCCCC1", "physical_data": {"Molecular Weight": "124.18", "Molecular Formula": "C8H12O", "Boiling Point": "174 \u00b0C", "Melting Point": "31.5 \u00b0C", "Density": "0.9809 g/cm\u00b3 @ Temp: 20 \u00b0C"}}