{"cas_no": "78-26-2", "cn_name": "2-\u7532\u57fa-2-\u4e19\u57fa-1,3-\u4e19\u4e8c\u9187", "en_name": ["2-Methyl-2-propyl-1,3-propanediol", "1,3-Propanediol, 2-methyl-2-propyl-", "2-Methyl-2-propyl-1,3-propanediol", "NSC 26233", "2-Propyl-2-methyl-1,3-propanediol", "2-Methyl-2-(1-propyl)-1,3-propanediol"], "SMILES": "C(CCC)(CO)(CO)C", "physical_data": {"Molecular Weight": "132.20", "Molecular Formula": "C7H16O2", "Boiling Point": "234 \u00b0C", "Melting Point": "62.5 \u00b0C"}}