{"cas_no": "78-34-2", "cn_name": "\u654c\u6076\u78f7", "en_name": ["Dioxathion", "Phosphorodithioic acid, SP,SP\u2032-1,4-dioxane-2,3-diyl OP,OP,OP\u2032,OP\u2032-tetraethyl ester", "Phosphorodithioic acid, S,S\u2032-p-dioxane-2,3-diyl O,O,O\u2032,O\u2032-tetraethyl ester", "Phosphorodithioic acid, S,S\u2032-1,4-dioxane-2,3-diyl O,O,O\u2032,O\u2032-tetraethyl ester", "ENT 22,897", "1,4-Dioxan-2,3-diyl bis(O,O-diethyl phosphorothiolothionate)", "2,3-p-Dioxanedithiol S,S-bis(O,O-diethyl phosphorodithioate)", "Dioxathion", "Hercules 528", "Kavadel", "Navadel", "Delnav", "Delnatex", "AC 528", "Dioxation", "2,3-Bis(diethoxyphosphinothioylthio)-1,4-dioxane"], "SMILES": "P(SC1C(SP(OCC)(OCC)=S)OCCO1)(OCC)(OCC)=S", "physical_data": {"Molecular Weight": "456.54", "Molecular Formula": "C12H26O6P2S4", "Melting Point": "-20 \u00b0C", "Density": "1.257 g/cm\u00b3 @ Temp: 26 \u00b0C"}}