{"cas_no": "78-33-1", "cn_name": "\u78f7\u9178\u4e09(\u5bf9-\u53d4\u4e01\u57fa\u82ef)\u916f", "en_name": ["Phenol, 4-(1,1-dimethylethyl)-, 1,1\u2032,1\u2032\u2032-phosphate", "Phenol, 4-(1,1-dimethylethyl)-, 1,1\u2032,1\u2032\u2032-phosphate", "Phenol, p-tert-butyl-, phosphate (3:1)", "Phenol, 4-(1,1-dimethylethyl)-, phosphate (3:1)", "p-tert-Butylphenol, phosphate (3:1)", "Tris(p-tert-butylphenyl) phosphate", "Tris(4-tert-butylphenyl) phosphate", "Tris(4-tert-butoxyphenyl) phosphate", "NSC 2884"], "SMILES": "P(OC1=CC=C(C(C)(C)C)C=C1)(OC2=CC=C(C(C)(C)C)C=C2)(OC3=CC=C(C(C)(C)C)C=C3)=O", "physical_data": {"Molecular Weight": "494.60", "Molecular Formula": "C30H39O4P", "Boiling Point": "224-226 \u00b0C @ Press: 0.1 Torr", "Melting Point": "96.2 \u00b0C"}}