{"cas_no": "78-30-8", "cn_name": "\u90bb\u78f7\u9178\u4e09\u7532\u915a\u916f", "en_name": ["o-Cresyl phosphate", "Phosphoric acid, tris(2-methylphenyl) ester", "Phosphoric acid, tri-o-tolyl ester", "TOCP", "Tri-o-cresyl phosphate", "Tri-o-tolyl phosphate", "TOTP", "o-Cresyl phosphate", "Tris(o-tolyl) phosphate", "Phosflex 179C", "Tris(o-methylphenyl) phosphate", "TOKF", "Tris(o-cresyl) phosphate", "Tris(2-tolyl) phosphate", "NSC 438", "P(o-Tolyl)3", "Tris(2-methylphenyl) phosphate"], "SMILES": "P(OC1=C(C)C=CC=C1)(OC2=C(C)C=CC=C2)(OC3=C(C)C=CC=C3)=O", "physical_data": {"Molecular Weight": "368.36", "Molecular Formula": "C21H21O4P", "Boiling Point": "410 \u00b0C", "Melting Point": "11 \u00b0C", "Density": "1.1955 g/cm\u00b3 @ Temp: 20 \u00b0C"}}