{"cas_no": "78-35-3", "cn_name": "\u4e01\u9178-1-\u4e59\u70ef\u57fa-1,5-\u4e8c\u7532\u57fa-4-\u5df1\u70ef\u57fa\u916f", "en_name": ["Linalyl isobutyrate", "Propanoic acid, 2-methyl-, 1-ethenyl-1,5-dimethyl-4-hexen-1-yl ester", "Isobutyric acid, 1,5-dimethyl-1-vinyl-4-hexenyl ester", "Propanoic acid, 2-methyl-, 1-ethenyl-1,5-dimethyl-4-hexenyl ester", "Isobutyric acid, linalyl ester", "1,6-Octadien-3-ol, 3,7-dimethyl-, isobutyrate", "Linalool isobutyrate", "Linalyl isobutyrate", "NSC 46145"], "SMILES": "C(OC(C(C)C)=O)(CCC=C(C)C)(C=C)C", "physical_data": {"Molecular Weight": "224.34", "Molecular Formula": "C14H24O2", "Boiling Point": "63-65 \u00b0C @ Press: 0.1 Torr"}}