{"cas_no": "78-32-0", "cn_name": "\u5bf9\u7532\u82ef\u9170\u78f7\u9178\u916f", "en_name": ["Tri-p-cresyl phosphate", "Phosphoric acid, tris(4-methylphenyl) ester", "Phosphoric acid, tri-p-tolyl ester", "p-Tolyl phosphate (C7H7O)3PO", "Tri-p-cresyl phosphate", "Tri-p-tolyl phosphate", "Tris(p-methylphenyl) phosphate", "Tris(p-cresyl) phosphate", "Tris(4-methylphenyl) phosphate", "NSC 2181"], "SMILES": "P(OC1=CC=C(C)C=C1)(OC2=CC=C(C)C=C2)(OC3=CC=C(C)C=C3)=O", "physical_data": {"Molecular Weight": "368.36", "Molecular Formula": "C21H21O4P", "Boiling Point": "244 \u00b0C @ Press: 3.5 Torr", "Melting Point": "77-78 \u00b0C", "Density": "1.247 g/cm\u00b3 @ Temp: 25 \u00b0C"}}