{"cas_no": "78-39-7", "cn_name": "\u539f\u4e59\u9178\u4e09\u4e59\u916f", "en_name": ["Triethyl orthoacetate", "Ethane, 1,1,1-triethoxy-", "Orthoacetic acid, triethyl ester", "1,1,1-Triethoxyethane", "Triethyl orthoacetate", "Ethyl orthoacetate", "NSC 5596"], "SMILES": "C(OCC)(OCC)(OCC)C", "physical_data": {"Molecular Weight": "162.23", "Molecular Formula": "C8H18O3", "Boiling Point": "145 \u00b0C", "Density": "0.8847 g/cm\u00b3 @ Temp: 25 \u00b0C"}}