{"cas_no": "78-38-6", "cn_name": "\u4e59\u57fa\u78f7\u9178\u4e8c\u4e59\u916f", "en_name": ["Diethyl ethylphosphonate", "Phosphonic acid, P-ethyl-, diethyl ester", "Phosphonic acid, ethyl-, diethyl ester", "Diethyl ethylphosphonate", "Diethyl ethanephosphonate", "Diethoxyethylphosphine oxide", "Amgard V 490", "Ethyldiethoxyphosphine oxide", "Antiblaze 75", "NSC 2671", "Antiblaze V 490", "Ethyldiethylphosphonic acid", "DEEP", "Albemarle V 490"], "SMILES": "P(OCC)(OCC)(CC)=O", "physical_data": {"Molecular Weight": "166.16", "Molecular Formula": "C6H15O3P", "Boiling Point": "198 \u00b0C @ Press: 760 Torr", "Density": "1.0259 g/cm\u00b3 @ Temp: 20 \u00b0C"}}