{"cas_no": "78-36-4", "cn_name": "\u4e01\u9178-1-\u4e59\u70ef\u57fa-1,5-\u4e8c\u7532\u57fa-4-\u5df1\u70ef\u57fa\u916f", "en_name": ["Linalyl butyrate", "Butanoic acid, 1-ethenyl-1,5-dimethyl-4-hexen-1-yl ester", "Butyric acid, 1,5-dimethyl-1-vinyl-4-hexenyl ester", "Butyric acid linalyl ester", "Butanoic acid, 1-ethenyl-1,5-dimethyl-4-hexenyl ester", "1,6-Octadien-3-ol, 3,7-dimethyl-, butyrate", "3,7-Dimethyl-1,6-octadien-3-ol butyrate", "3,7-Dimethyl-1,6-octadien-3-yl butyrate", "Linalyl butyrate", "Linalool butyrate", "Linalyl butanoate", "NSC 46144", "3,7-Dimethylocta-1,6-dien-3-yl butanoate"], "SMILES": "C(OC(CCC)=O)(CCC=C(C)C)(C=C)C", "physical_data": {"Molecular Weight": "224.34", "Molecular Formula": "C14H24O2", "Boiling Point": "80-82 \u00b0C @ Press: 0.2 Torr"}}