{"cas_no": "78-41-1", "cn_name": "\u66f2\u5e15\u62c9\u9187", "en_name": ["Triparanol", "Benzeneethanol, 4-chloro-\u03b1-[4-[2-(diethylamino)ethoxy]phenyl]-\u03b1-(4-methylphenyl)-", "Ethanol, 2-(p-chlorophenyl)-1-[p-[2-(diethylamino)ethoxy]phenyl]-1-p-tolyl-", "4-Chloro-\u03b1-[4-[2-(diethylamino)ethoxy]phenyl]-\u03b1-(4-methylphenyl)benzeneethanol", "MER 29", "2-(p-Chlorophenyl)-1-[p-(\u03b2-diethylaminoethoxy)phenyl]-1-(p-tolyl)ethanol", "2-p-Chlorophenyl-1-[p-(2-diethylaminoethoxy)phenyl]-1-p-tolylethanol", "1-[p-(\u03b2-Diethylaminoethoxy)phenyl]-1-(p-tolyl)-2-(p-chlorophenyl)ethanol", "1-[4-[2-(Diethylamino)ethoxy]phenyl]-1-(p-tolyl)-2-(p-chlorophenyl)ethanol", "Triparanol", "TR", "Triparin", "Tropalin", "Diticyl", "Trianel", "Sclane", "Drenaren", "Acosterina", "Valip", "Metasclene", "Hipocolestina", "Trikosterol", "Verdiana", "Clotrox", "MER 2p", "Metasqualene", "NSC 65345", "MeSH ID: D014308"], "SMILES": "C(CC1=CC=C(Cl)C=C1)(O)(C2=CC=C(OCCN(CC)CC)C=C2)C3=CC=C(C)C=C3", "physical_data": {"Molecular Weight": "438.00", "Molecular Formula": "C27H32ClNO2", "Boiling Point": "235-240 \u00b0C @ Press: 0.08 Torr", "Melting Point": "103 \u00b0C"}}