{"cas_no": "78-48-8", "cn_name": "1,2,4-\u4e09\u4e01\u57fa\u4e09\u786b\u78f7\u9178\u916f", "en_name": ["Tribufos", "Phosphorotrithioic acid, S,S,S-tributyl ester", "Butyl phosphorotrithioate", "B 1,776", "Butiphos", "Chemagro B 1776", "DEF", "DEF (defoliant)", "De-Green", "Fosfall", "Fos-Fall A", "S,S,S-Tributyl phosphorotrithioate", "S,S,S-Tributyl trithiophosphate", "Butyl phosphorotrithioate ((BuS)3PO)", "TBTP", "TBPT", "Tribufos", "DEF 6", "Tuoyelin"], "SMILES": "P(SCCCC)(SCCCC)(SCCCC)=O", "physical_data": {"Molecular Weight": "314.51", "Molecular Formula": "C12H27OPS3", "Boiling Point": "150 \u00b0C @ Press: 0.3 Torr", "Melting Point": "&lt;-25 \u00b0C", "Density": "1.06 g/cm\u00b3 @ Temp: 20 \u00b0C"}}