{"cas_no": "78-40-0", "cn_name": "\u78f7\u9178\u4e09\u4e59\u916f", "en_name": ["Triethyl phosphate", "Phosphoric acid, triethyl ester", "Ethyl phosphate", "Triethyl phosphate", "TEP", "Triethoxyphosphine oxide", "Levagard TEP", "NSC 2677", "Fyrol TEP", "Levagard TEP-Z", "SP 0724", "Tri-n-ethyl phosphate", "Disflamoll TEP", "FHZ 7265"], "SMILES": "P(OCC)(OCC)(OCC)=O", "physical_data": {"Molecular Weight": "182.15", "Molecular Formula": "C6H15O4P", "Boiling Point": "215-216 \u00b0C", "Melting Point": "-56.4 \u00b0C", "Density": "1.0725 g/cm\u00b3 @ Temp: 19 \u00b0C"}}