{"cas_no": "78-44-4", "cn_name": "\u5361\u5229\u666e\u591a", "en_name": ["Carisoprodol", "Carbamic acid, N-(1-methylethyl)-, 2-[[(aminocarbonyl)oxy]methyl]-2-methylpentyl ester", "Carbamic acid, isopropyl-, 2-(hydroxymethyl)-2-methylpentyl ester carbamate (ester)", "Carbamic acid, (1-methylethyl)-, 2-[[(aminocarbonyl)oxy]methyl]-2-methylpentyl ester", "Carbamic acid, isopropyl-, 2-(hydroxymethyl)-2-methylpentyl ester, carbamate", "Apesan", "Carisoprodatum", "Carisoprodol", "Isomeprobamate", "Isopropyl meprobamate", "N-Isopropyl-2-methyl-2-propyl-1,3-propanediol dicarbamate", "2-Methyl-2-propyl-1,3-propanediol carbamate isopropylcarbamate", "Rela (carbamic acid)", "Soma", "Somadril", "Isoprothane", "Carisoma", "Isobamate", "Carisoprodate", "Caprodat", "Domarax", "Flexal", "Flexartal", "Miolisodal", "Mioril", "Sanoma", "Somalgit", "Relasom", "Isoprotane", "Isoprotan", "Izoprotan", "Skutamil", "Atonalyt", "Stialgin", "Calenfa", "Carisol", "Arusal", "NIH 10966", "NSC 172124", "MeSH ID: D002328"], "SMILES": "C(COC(NC(C)C)=O)(COC(N)=O)(CCC)C", "physical_data": {"Molecular Weight": "260.33", "Molecular Formula": "C12H24N2O4", "Boiling Point": "160-170 \u00b0C @ Press: 2 Torr", "Melting Point": "92-93 \u00b0C"}}