{"cas_no": "78-43-3", "cn_name": "\u78f7\u9178\u4e09(2,3-\u4e8c\u6c2f\u4e19\u57fa)\u916f", "en_name": ["Tris(2,3-dichloropropyl) phosphate", "1-Propanol, 2,3-dichloro-, 1,1\u2032,1\u2032\u2032-phosphate", "1-Propanol, 2,3-dichloro-, phosphate (3:1)", "Celluflex FR 2", "Fyrol 32B", "Tris(2,3-dichloropropyl) phosphate", "Tris(2,3-dichloro-n-propyl) phosphate", "Tri(2,3-dichloropropyl) phosphate"], "SMILES": "P(OCC(CCl)Cl)(OCC(CCl)Cl)(OCC(CCl)Cl)=O", "physical_data": {"Molecular Weight": "430.90", "Molecular Formula": "C9H15Cl6O4P", "Boiling Point": "191-193 \u00b0C @ Press: 0.1 Torr", "Density": "1.5197 g/cm\u00b3 @ Temp: 22 \u00b0C"}}