{"cas_no": "78-42-2", "cn_name": "\u78f7\u9178\u4e09\u8f9b\u916f", "en_name": ["Tris(2-ethylhexyl) phosphate", "Phosphoric acid, tris(2-ethylhexyl) ester", "TOF", "Tris(2-ethylhexyl) phosphate", "Flexol TOF", "Trioctyl phosphate", "Tri(2-ethylhexyl) phosphate", "Disflamoll TOF", "TEHP", "TOP", "Reomol TOF", "NSC 407921", "Durad TOP", "Vulcanol TOF"], "SMILES": "P(OCC(CCCC)CC)(OCC(CCCC)CC)(OCC(CCCC)CC)=O", "physical_data": {"Molecular Weight": "434.63", "Molecular Formula": "C24H51O4P", "Boiling Point": "215 \u00b0C @ Press: 4 Torr", "Melting Point": "-74 \u00b0C", "Density": "0.924 g/cm\u00b3 @ Temp: 26 \u00b0C"}}