{"cas_no": "78-51-3", "cn_name": "\u78f7\u9178\u4e09(\u4e01\u6c27\u57fa\u4e59\u57fa)\u916f", "en_name": ["Tris(2-butoxyethyl) phosphate", "Ethanol, 2-butoxy-, 1,1\u2032,1\u2032\u2032-phosphate", "Ethanol, 2-butoxy-, phosphate (3:1)", "Phosphoric acid, tris(2-butoxyethyl) ester", "KP 140", "TBEP", "Tri(2-butoxyethyl) phosphate", "Tris(2-butoxyethyl) phosphate", "tris-2-Butoxyethyl phosphate", "2-Butoxyethanol phosphate", "Tris(2-n-butoxyethyl) phosphate", "TBXP", "Phosflex T-BEP", "Hostaphat B 310", "NSC 4839", "NSC 62228", "Kronitex KP 140", "Amgard TBEP", "FMC-KP 140", "Tris(2-butyloxyethyl) phosphate", "Hostaphat TBEP", "Tri(butoxylethyl) phosphate"], "SMILES": "P(OCCOCCCC)(OCCOCCCC)(OCCOCCCC)=O", "physical_data": {"Molecular Weight": "398.47", "Molecular Formula": "C18H39O7P", "Boiling Point": "215-228 \u00b0C @ Press: 4 Torr", "Melting Point": "-70 \u00b0C", "Density": "1.020 g/cm\u00b3 @ Temp: 20 \u00b0C"}}