{"cas_no": "78-53-5", "cn_name": "S-[2-(\u4e8c\u4e59\u6c28\u57fa)\u4e59\u57fa]O\uff0cO-\u4e8c\u4e59\u57fa\u786b\u8d76\u78f7\u9178\u916f", "en_name": ["Amiton", "Phosphorothioic acid, S-[2-(diethylamino)ethyl] O,O-diethyl ester", "R 5158", "Amiton", "O,O-Diethyl S-2-diethylaminoethyl phosphorothioate", "DSDP", "Inferno", "Metramac", "O,O-Diethyl S-2-diethylaminoethyl phosphorothiolate", "S-(Diethylaminoethyl) O,O-diethyl phosphorothioate", "VG", "VG (chemical warfare agent)", "VG nerve agent"], "SMILES": "P(SCCN(CC)CC)(OCC)(OCC)=O", "physical_data": {"Molecular Weight": "269.34", "Molecular Formula": "C10H24NO3PS", "Boiling Point": "110 \u00b0C @ Press: 0.2 Torr", "Melting Point": "&lt;25 \u00b0C"}}