{"cas_no": "78-54-6", "cn_name": "1,1'-\u4e59\u7094\u4e8c\u73af\u5df1\u9187", "en_name": ["1,1\u2032-(1,2-Ethynediyl)bis[cyclohexanol]", "Cyclohexanol, 1,1\u2032-(1,2-ethynediyl)bis-", "Cyclohexanol, 1,1\u2032-ethynylenedi-", "1,1\u2032-(1,2-Ethynediyl)bis[cyclohexanol]", "1,1\u2032-Ethynylenedicyclohexanol", "Bis(1-hydroxycyclohexyl)acetylene", "NSC 4321", "1-[2-(1-Hydroxycyclohexyl)ethynyl]cyclohexan-1-ol", "1-[2-(1-Hydroxycyclohexyl)ethynyl]cyclohexanol"], "SMILES": "C(#CC1(O)CCCCC1)C2(O)CCCCC2", "physical_data": {"Molecular Weight": "222.32", "Molecular Formula": "C14H22O2", "Boiling Point": "183 \u00b0C", "Melting Point": "109 \u00b0C"}}