{"cas_no": "78-59-1", "cn_name": "\u5f02\u4f5b\u5c14\u916e", "en_name": ["Isophorone", "2-Cyclohexen-1-one, 3,5,5-trimethyl-", "3,5,5-Trimethyl-2-cyclohexen-1-one", "Isoacetophorone", "Isophorone", "1,1,3-Trimethyl-3-cyclohexene-5-one", "3,5,5-Trimethyl-2-cyclohexene-1-one", "Isoforon", "Isophoron", "\u03b1-Isophoron", "3,5,5-Trimethyl-2-cyclohexenone", "\u03b1-Isophorone", "1-Cyclohexen-3-one, 1,5,5-trimethyl-", "1,5,5-Trimethyl-3-oxocyclohexene", "NSC 403657", "NSC 4881"], "SMILES": "CC1(C)CC(C)=CC(=O)C1", "physical_data": {"Molecular Weight": "138.21", "Molecular Formula": "C9H14O", "Boiling Point": "215.32 \u00b0C", "Melting Point": "-8.1 \u00b0C", "Density": "0.9255 g/cm\u00b3 @ Temp: 20 \u00b0C"}}