{"cas_no": "78-50-2", "cn_name": "\u4e09\u6b63\u8f9b\u57fa\u6c27\u81a6", "en_name": ["Trioctylphosphine oxide", "Phosphine oxide, trioctyl-", "Trioctylphosphine oxide", "TOPO", "Tri-n-octylphosphine oxide", "Hostarex PX 324", "Cyanex 921", "1-Dioctylphosphoryloctane", "1-(Dioctylphosphoryl)octane"], "SMILES": "P(CCCCCCCC)(CCCCCCCC)(CCCCCCCC)=O", "physical_data": {"Molecular Weight": "386.63", "Molecular Formula": "C24H51OP", "Boiling Point": "180-205 \u00b0C @ Press: 1 Torr", "Melting Point": "48-54 \u00b0C"}}