{"cas_no": "78-57-9", "cn_name": "\u706d\u869c\u677e\u7c89\u5242\u3001\u53ef\u6e7f\u6027\u7c89\u5242\u3001\u62cc\u79cd\u5242", "en_name": ["Menazon", "Phosphorodithioic acid, S-[(4,6-diamino-1,3,5-triazin-2-yl)methyl] O,O-dimethyl ester", "Phosphorodithioic acid, S-[(4,6-diamino-s-triazin-2-yl)methyl] O,O-dimethyl ester", "PP.175", "R 15,175", "Azidithion", "2,4-Diamino-6-dimethoxyphosphinothionylthiomethyl-s-triazine", "S-[(4,6-Diamino-s-triazine-2-yl)methyl] O,O-dimethyl phosphorodithioate", "S-(4,6-Diamino-1,3,5-triazin-2-ylmethyl) O,O-dimethyl phosphorodithioate", "S-(4,6-Diamino-1,3,5-triazin-2-ylmethyl) dimethyl phosphorothiolothionate", "O,O-Dimethyl S-(4,6-diamino-s-triazin-2-ylmethyl)phosphorodithioate", "O,O-Dimethyl S-(4,6-diamino-1,3,5-triazin-2-yl)methyl phosphorothiolothionate", "Menazon", "Sayfos", "Sayphos", "S-[(4,6-Diamino-s-triazin-2-yl)methyl]-O,O-dimethyl phosphorodithioate"], "SMILES": "P(SCC=1N=C(N)N=C(N)N1)(OC)(OC)=S", "physical_data": {"Molecular Weight": "281.30", "Molecular Formula": "C6H12N5O2PS2", "Melting Point": "164-166 \u00b0C"}}