{"cas_no": "78-67-1", "cn_name": "\u5076\u6c2e\u4e8c\u5f02\u4e01\u8148", "en_name": ["Azobisisobutyronitrile", "Propanenitrile, 2,2\u2032-(1,2-diazenediyl)bis[2-methyl-", "Propionitrile, 2,2\u2032-azobis[2-methyl-", "Propanenitrile, 2,2\u2032-azobis[2-methyl-", "2,2\u2032-(1,2-Diazenediyl)bis[2-methylpropanenitrile]", "Aceto AZIB", "\u03b1,\u03b1\u2032-Azobis(isobutyronitrile)", "2,2\u2032-Azobis[isobutyronitrile]", "\u03b1,\u03b1\u2032-Azodiisobutyronitrile", "2,2\u2032-Azodiisobutyronitrile", "Azobisisobutyronitrile", "Azodiisobutyronitrile", "\u03b1,\u03b1\u2032-Azodiisobutyric acid dinitrile", "AIBN", "AZDH", "2,2\u2032-Azobis(2-methylpropionitrile)", "Porofor N", "Pianofor An", "Vazo 64", "2,2\u2032-Dimethyl-2,2\u2032-azodipropionitrile", "ChKhZ 57", "N,N\u2032-Bis(2-cyano-2-propyl)diazene", "Genitron AZDN-FF", "2,2\u2032-Azobis[2-methylpropanenitrile]", "Genitron AZDN", "AZDN", "ChKhE 57", "N,N\u2032-Azobis(isobutyronitrile)", "V 60 (polymerization catalyst)", "V 60", "Porofor ChKhZ 57", "Perkadox AIBN", "KB-P 13", "2,2\u2032-Azobis(2-cyanopropane)", "KE-P 13", "ME 800", "NSC 1496", "NSC 68042", "ABN-R", "Peroxan AZDN", "\u03b1,\u03b1\u2032-Azoisobutyronitrile", "ABIN", "Vazo 64G", "Macklin A 800354", "A 800353"], "SMILES": "C(N=NC(C#N)(C)C)(C#N)(C)C", "physical_data": {"Molecular Weight": "164.21", "Molecular Formula": "C8H12N4", "Boiling Point": "&gt;260 \u00b0C", "Melting Point": "105 \u00b0C", "Density": "0.8003 g/cm\u00b3 @ Temp: 20 \u00b0C"}}