{"cas_no": "78-69-3", "cn_name": "\u56db\u6c22\u82b3\u6a1f\u9187", "en_name": ["Tetrahydrolinalool", "3-Octanol, 3,7-dimethyl-", "3,7-Dimethyl-3-octanol", "2,6-Dimethyl-6-octanol", "3,7-Dimethyloctan-3-ol", "Linalool tetrahydride", "Tetrahydrolinalool", "NSC 128151"], "SMILES": "C(CCCC(C)C)(CC)(C)O", "physical_data": {"Molecular Weight": "158.28", "Molecular Formula": "C10H22O", "Boiling Point": "88.5-89 \u00b0C @ Press: 14 Torr", "Density": "0.8341 g/cm\u00b3 @ Temp: 15 \u00b0C"}}