{"cas_no": "78-66-0", "cn_name": "3,6-\u4e8c\u7532\u57fa-4-\u8f9b\u7094-3,6-\u4e8c\u9187", "en_name": ["3,6-Dimethyl-4-octyne-3,6-diol", "4-Octyne-3,6-diol, 3,6-dimethyl-", "3,6-Dimethyl-4-octyne-3,6-diol", "Surfynol 82", "2,5-Diethyl-3-hexyne-2,5-diol", "Surfynol 85", "3,6-Dihydroxy-3,6-dimethyl-4-octyne", "NSC 1025", "NSC 406738", "Tuyile FS 82"], "SMILES": "C(C#CC(CC)(C)O)(CC)(C)O", "physical_data": {"Molecular Weight": "170.25", "Molecular Formula": "C10H18O2", "Boiling Point": "215-220 \u00b0C", "Melting Point": "54 \u00b0C"}}