{"cas_no": "78-62-6", "cn_name": "\u4e8c\u4e59\u6c27\u57fa\u4e8c\u7532\u57fa\u7845\u70f7", "en_name": ["Dimethyldiethoxysilane", "Silane, diethoxydimethyl-", "Diethoxydimethylsilane", "Dimethyldiethoxysilane", "Dimethylsilicondiethoxide", "KBE 22", "SZ 6078", "LS 1370", "TSL 8122", "NSC 77085", "DP 322", "CG-N 222", "QX 222 (silane)", "QX 222"], "SMILES": "[Si](OCC)(OCC)(C)C", "physical_data": {"Molecular Weight": "148.28", "Molecular Formula": "C6H16O2Si", "Boiling Point": "114 \u00b0C", "Melting Point": "-87 \u00b0C", "Density": "0.839 g/cm\u00b3"}}