{"cas_no": "78-63-7", "cn_name": "2,5-\u4e8c\u7532\u57fa-2,5-\u4e8c(\u53d4\u4e01\u57fa\u8fc7\u6c27\u57fa)\u5df1\u70f7", "en_name": ["2,5-Dimethyl-2,5-di(tert-butylperoxy)hexane", "Peroxide, 1,1\u2032-(1,1,4,4-tetramethyl-1,4-butanediyl)bis[2-(1,1-dimethylethyl)", "Peroxide, (1,1,4,4-tetramethyltetramethylene)bis[tert-butyl", "Peroxide, (1,1,4,4-tetramethyl-1,4-butanediyl)bis[(1,1-dimethylethyl)", "1,1\u2032-(1,1,4,4-Tetramethyl-1,4-butanediyl)bis[2-(1,1-dimethylethyl) peroxide]", "2,5-Dimethyl-2,5-bis(tert-butylperoxy)hexane", "Luperox 101", "Lupersol 101", "Varox", "Trigonox XQ 8", "2,5-Dimethyl-2,5-di(tert-butylperoxy)hexane", "Varox 50", "(1,1,4,4-Tetramethyltetramethylene)bis(tert-butyl peroxide)", "2,5-Bis(tert-butylperoxy)-2,5-dimethylhexane", "2,5-Dimethyl-2,5-bis(tert-butyldioxy)hexane", "2,5-Di(t-butylperoxy)-2,5-dimethylhexane", "Luperco 101XL", "2,5-Di(tert-butylperoxy)-2,5-dimethylhexane", "2,5-Di-tert-butyl-2,5-dimethylhexyl peroxide", "2,5-Bis(tert-butyldioxy)-2,5-dimethylhexane", "Kayahexa AD", "Kayahexa AD 40C", "Perhexa 25B", "Perhexa 25B40", "Trigonox 101", "Lupersol 101XL", "Perhexa 2.5B40", "Interox DHBP 45IC/G", "Perhexa 2.5B", "Kayahexa AD 40", "2,5-Dimethyl-2,5-di(t-butylperoxy)hexane", "AD 40C", "RC 4 (peroxide)", "RC 4", "Interox DHBP", "TC 8 (catalyst)", "TC 8", "CR 05", "Varox Liquid", "Varox DBPH 50", "Luperco 101X45", "CT 8 (crosslinking agent)", "CT 8", "HC 4 (peroxide)", "HC 4", "AD", "RPZ 101", "Trigonox 101E5", "2,5-Dimethyl-di(tert-butyl)peroxyhexane", "Trigonox 101-40MD-GR", "C 8", "C 8 (vulcanizer)", "C 8A", "C 15", "RC 8", "C 15 (peroxide)", "Trigonox 101E10", "Lupersol L 101", "101XL", "Luperox 101XL", "25B40", "L 101", "2,5-Methyl-2,5-di(tert-butylperoxy)hexane", "Luperox 101XL45", "LX 101", "RC 450P", "Trigonox 101-50", "2,5-Dimethylhexane-2,5-di-tert-butylperoxide", "NSC 38203", "Yinox 101", "Sanperox APO", "APO", "Trigonox 101-40D", "Link-Cup DBPH", "Varox DBPH", "APO 40S", "DHBP 50WO", "DBPH-PAR 100", "Varox DBPH 50HP", "Trigonox 101-40B", "DHBP 45ICI", "DBPH 50HP", "APO 10DL", "Perhexa 25B10", "Dual 25", "Trigonox 101-45B-PD", "Varox DBPH 50EZD", "DBPH 50", "Kayahexa 4D", "BPDH", "HC 8", "LS 4", "Peroxan HX", "DBPH", "DHBP", "Trigonox 101-40MB", "DBPMH", "WLZ 3", "Trigonox 101-45S-PS", "101-45S", "Luperox 101-50D", "Kayahekisa AD", "2,5-Dimethyl-2,5-bis(tert-butylperoxide)hexane", "T 101", "Peroxide L 101", "EX 131", "101-50D", "DDPH 50", "C 4", "Trigonox 101E50", "101XL45", "Trigonox 101-20PP", "LS 5", "Luperox L 101", "Colink 101-45GE", "TX 101", "Trigonox 101IP", "2,5-Dimethyl-2,5-bis(1,1-dimethylethylperoxy)hexane", "Luperox 101XL45SP2", "101XL45SP2", "Perhexa 25B36", "Luperox 101PP10", "Luperox 101SIL45", "DHBP 45", "Enox 101-20PP", "101SC8B", "Kayahexa APO 10DL", "101C8BS", "Trigonox 101SC15", "DHBP 45PSI", "Trigonox 101-40C", "HC 818B", "C 8BS", "DHBP 5IC5", "V 110B", "Vulcanizing agent 25", "Perkadox 101-40C", "Double 25", "CR-PP 20X", "Trigonox 101SC15S", "C 8B"], "SMILES": "C(CCC(OOC(C)(C)C)(C)C)(OOC(C)(C)C)(C)C", "physical_data": {"Molecular Weight": "290.44", "Molecular Formula": "C16H34O4", "Boiling Point": "50-52 \u00b0C @ Press: 0.1 Torr", "Melting Point": "5 \u00b0C", "Density": "0.8728 g/cm\u00b3 @ Temp: 28 \u00b0C"}}