{"cas_no": "78-70-6", "cn_name": "\u82b3\u6a1f\u9187", "en_name": ["(\u00b1)-Linalool", "1,6-Octadien-3-ol, 3,7-dimethyl-", "3,7-Dimethyl-1,6-octadien-3-ol", "2,6-Dimethyl-2,7-octadien-6-ol", "Linalol", "Linalool", "Linalyl alcohol", "\u03b2-Linalool", "3,7-Dimethyl-1,6-octadiene-3-ol", "Linanool", "dl-Linalool", "(\u00b1)-Linalool", "NSC 3789", "L 260-2", "2-Methyl-1-prenyl-3-buten-2-ol", "3,7-Dimethyl-3-hydroxy-1,6-octadiene", "3,7-Dimethyl-3-ol-1,6-octadiene", "Phantol", "Lipofresh"], "SMILES": "C(CCC=C(C)C)(C=C)(C)O", "physical_data": {"Molecular Weight": "154.25", "Molecular Formula": "C10H18O", "Boiling Point": "195-199 \u00b0C", "Melting Point": "&lt;25 \u00b0C", "Density": "0.858-0.868 g/cm\u00b3 @ Temp: 25 \u00b0C"}}