{"cas_no": "78-75-1", "cn_name": "1,2-\u4e8c\u6eb4\u4e19\u70f7", "en_name": ["1,2-Dibromopropane", "Propane, 1,2-dibromo-", "1,2-Dibromopropane", "Propylene dibromide", "2,3-Dibromopropane"], "SMILES": "C(CBr)(Br)C", "physical_data": {"Molecular Weight": "201.89", "Molecular Formula": "C3H6Br2", "Boiling Point": "141.9 \u00b0C", "Melting Point": "-55.2 \u00b0C", "Density": "1.9245 g/cm\u00b3 @ Temp: 20 \u00b0C"}}