{"cas_no": "78-71-7", "cn_name": "3,3-\u53cc(\u6c2f\u7532\u57fa)\u6c27\u6742\u73af\u4e01\u70f7", "en_name": ["3,3-Bis(chloromethyl)oxetane", "Oxetane, 3,3-bis(chloromethyl)-", "3,3-Bis(chloromethyl)oxetane", "3,3-Bis(chloromethyl)oxacyclobutane", "3,3-Bis(chloromethyl)-1-oxacyclobutane", "NSC 650608"], "SMILES": "C(Cl)C1(CCl)COC1", "physical_data": {"Molecular Weight": "155.02", "Molecular Formula": "C5H8Cl2O", "Boiling Point": "80 \u00b0C @ Press: 10 Torr", "Melting Point": "18.7 \u00b0C", "Density": "1.4 g/cm\u00b3"}}