{"cas_no": "78-77-3", "cn_name": "\u6eb4\u4ee3\u5f02\u4e01\u70f7", "en_name": ["1-Bromo-2-methylpropane", "Propane, 1-bromo-2-methyl-", "1-Bromo-2-methylpropane", "Isobutyl bromide", "iso-Butyl bromide", "Bromoisobutane", "2-Methylpropyl bromide", "NSC 8416", "1-Methyl-2-propyl bromide", "3-Bromo-2-methylpropane", "2-Methyl-1-bromopropane"], "SMILES": "C(CBr)(C)C", "physical_data": {"Molecular Weight": "137.02", "Molecular Formula": "C4H9Br", "Boiling Point": "91.1 \u00b0C", "Melting Point": "-119 \u00b0C", "Density": "1.2616 g/cm\u00b3 @ Temp: 25 \u00b0C"}}