{"cas_no": "78-74-0", "cn_name": "1,1,2-\u4e09\u6eb4\u4e59\u70f7", "en_name": ["1,1,2-Tribromoethane", "Ethane, 1,1,2-tribromo-", "1,1,2-Tribromoethane"], "SMILES": "C(CBr)(Br)Br", "physical_data": {"Molecular Weight": "266.76", "Molecular Formula": "C2H3Br3", "Boiling Point": "188.93 \u00b0C", "Melting Point": "-29.3 \u00b0C", "Density": "2.62205 g/cm\u00b3 @ Temp: 20 \u00b0C"}}