{"cas_no": "78-78-4", "cn_name": "2-\u7532\u57fa\u4e01\u70f7", "en_name": ["Isopentane", "Butane, 2-methyl-", "2-Methylbutane", "Isopentane", "iso-Pentane", "1,1,2-Trimethylethane", "Methylbutane", "Borger Isopentane", "Exxsol Isopentane S", "NSC 119476", "R 601A"], "SMILES": "C(CC)(C)C", "physical_data": {"Molecular Weight": "72.15", "Molecular Formula": "C5H12", "Boiling Point": "27.8 \u00b0C @ Press: 760 Torr", "Melting Point": "-159.9 \u00b0C", "Density": "0.6201 g/cm\u00b3 @ Temp: 20 \u00b0C"}}