{"cas_no": "78-76-2", "cn_name": "2-\u6eb4\u4e01\u70f7", "en_name": ["2-Bromobutane", "Butane, 2-bromo-", "2-Bromobutane", "sec-Butyl bromide", "Methylethylbromomethane", "2-Butyl bromide", "(\u00b1)-sec-Butyl bromide", "(\u00b1)-2-Bromobutane", "NSC 8417"], "SMILES": "C(CC)(Br)C", "physical_data": {"Molecular Weight": "137.02", "Molecular Formula": "C4H9Br", "Boiling Point": "91.2 \u00b0C", "Melting Point": "-112 \u00b0C", "Density": "1.2425 g/cm\u00b3 @ Temp: 25 \u00b0C"}}