{"cas_no": "78-79-5", "cn_name": "\u5f02\u620a\u4e8c\u70ef", "en_name": ["Isoprene", "1,3-Butadiene, 2-methyl-", "Isoprene", "2-Methyl-1,3-butadiene", "\u03b2-Methylbivinyl", "2-Methylbutadiene", "Isopentadiene", "3-Methyl-1,3-butadiene", "NSC 9237", "Benzene, ethynyl-, polymer with 2-methyl-1,3-butadiene, triblock"], "SMILES": "C(C=C)(C)=C", "physical_data": {"Molecular Weight": "68.12", "Molecular Formula": "C5H8", "Boiling Point": "34.067 \u00b0C @ Press: 760 Torr", "Melting Point": "-145.95 \u00b0C", "Density": "0.681 g/cm\u00b3 @ Temp: 20 \u00b0C"}}