{"cas_no": "78-86-4", "cn_name": "\u6c2f\u4ee3\u4ef2\u4e01\u70f7", "en_name": ["2-Chlorobutane", "Butane, 2-chloro-", "2-Chlorobutane", "sec-Butyl chloride", "1-Methylpropyl chloride", "(\u00b1)-2-Chlorobutane"], "SMILES": "C(CC)(C)Cl", "physical_data": {"Molecular Weight": "92.57", "Molecular Formula": "C4H9Cl", "Boiling Point": "68 \u00b0C", "Melting Point": "-140 \u00b0C", "Density": "0.86210 g/cm\u00b3 @ Temp: 30 \u00b0C"}}