{"cas_no": "78-87-5", "cn_name": "1,2-\u4e8c\u6c2f\u4e19\u70f7", "en_name": ["1,2-Dichloropropane", "Propane, 1,2-dichloro-", "1,2-Dichloropropane", "Propylene chloride", "Propylene dichloride", "1,2-DCP", "R 270da", "NSC 1237"], "SMILES": "C(CCl)(C)Cl", "physical_data": {"Molecular Weight": "112.99", "Molecular Formula": "C3H6Cl2", "Boiling Point": "96.4 \u00b0C", "Melting Point": "-100.4 \u00b0C", "Density": "1.159 g/cm\u00b3 @ Temp: 25 \u00b0C"}}