{"cas_no": "78-85-3", "cn_name": "2-\u7532\u57fa\u4e19\u70ef\u919b", "en_name": ["Methacrolein", "2-Propenal, 2-methyl-", "Methacrylaldehyde", "2-Methyl-2-propenal", "Isobutenal", "Methacrolein", "Methacrylic aldehyde", "\u03b1-Methylacrolein", "2-Methylacrolein", "Methylacrylaldehyde", "Methylacrolein", "2-Methylpropenal", "2-Methyl-2-propen-1-al", "2-Methylenepropanal", "\u03b1-Methacrolein", "\u03b1-Methylacrylaldehyde", "2-Formyl-1-propene", "2-Methacrolein", "NSC 8260"], "SMILES": "C(C=O)(C)=C", "physical_data": {"Molecular Weight": "70.09", "Molecular Formula": "C4H6O", "Boiling Point": "68.4 \u00b0C", "Melting Point": "-81 \u00b0C", "Density": "0.849 g/cm\u00b3 @ Temp: 25 \u00b0C"}}