{"cas_no": "78-89-7", "cn_name": "2-\u6c2f-1-\u7f9f\u57fa\u4e19\u70f7", "en_name": ["Propylene chlorohydrin", "1-Propanol, 2-chloro-", "2-Chloro-1-propanol", "2-Chloropropyl alcohol", "Propylene chlorohydrin", "2-Chloropropanol", "1-Hydroxy-2-chloropropane", "\u03b2-Propylene chlorohydrin", "NSC 122672"], "SMILES": "C(CO)(C)Cl", "physical_data": {"Molecular Weight": "94.54", "Molecular Formula": "C3H7ClO", "Boiling Point": "133-134 \u00b0C", "Melting Point": "&lt;25 \u00b0C", "Density": "1.103 g/cm\u00b3 @ Temp: 20 \u00b0C"}}