{"cas_no": "78-82-0", "cn_name": "\u5f02\u4e01\u8148", "en_name": ["Isobutyronitrile", "Propanenitrile, 2-methyl-", "Isobutyronitrile", "2-Methylpropanenitrile", "Isopropyl cyanide", "2-Methylpropionitrile", "2-Cyanopropane", "Isopropyl nitrile", "1-Cyano-1-methylethane", "Dimethylacetonitrile", "\u03b1-Methylpropanenitrile", "\u03b1-Methylpropionitrile", "Isobutanenitrile", "NSC 60536"], "SMILES": "C(C#N)(C)C", "physical_data": {"Molecular Weight": "69.11", "Molecular Formula": "C4H7N", "Boiling Point": "103.9 \u00b0C @ Press: 760 Torr", "Melting Point": "-71.5 \u00b0C", "Density": "0.7704 g/cm\u00b3 @ Temp: 20 \u00b0C"}}