{"cas_no": "78-83-1", "cn_name": "\u5f02\u4e01\u9187", "en_name": ["Isobutanol", "1-Propanol, 2-methyl-", "Isobutyl alcohol", "2-Methyl-1-propanol", "Isobutanol", "Isopropyl carbinol", "2-Methylpropyl alcohol", "iso-Butyl alcohol", "1-Isobutanol", "NSC 5708", "1-Methyl-2-propanol", "1-Hydroxy-2-methylpropane"], "SMILES": "C(CO)(C)C", "physical_data": {"Molecular Weight": "74.12", "Molecular Formula": "C4H10O", "Boiling Point": "108 \u00b0C", "Melting Point": "-108 \u00b0C", "Density": "0.8018 g/cm\u00b3 @ Temp: 24 \u00b0C"}}