{"cas_no": "78-81-9", "cn_name": "\u5f02\u4e01\u80fa", "en_name": ["Isobutylamine", "1-Propanamine, 2-methyl-", "Isobutylamine", "2-Methyl-1-propanamine", "1-Amino-2-methylpropane", "Monoisobutylamine", "Valamine", "2-Methylpropylamine", "3-Methyl-2-propylamine", "iso-Butylamine", "2-Methylpropanamine", "2-Methyl-1-aminopropane", "NSC 8028", "i-Butylamine"], "SMILES": "C(CN)(C)C", "physical_data": {"Molecular Weight": "73.14", "Molecular Formula": "C4H11N", "Boiling Point": "68-69 \u00b0C", "Melting Point": "-85 \u00b0C", "Density": "0.724 g/cm\u00b3 @ Temp: 25 \u00b0C"}}