{"cas_no": "78-88-6", "cn_name": "2,3-\u4e8c\u6c2f\u4e19\u70ef", "en_name": ["2,3-Dichloropropene", "1-Propene, 2,3-dichloro-", "Propene, 2,3-dichloro-", "2,3-Dichloro-1-propene", "2,3-Dichloropropene", "2-Chloroallyl chloride", "2,3-Dichloropropylene", "NSC 60520", "HCO 125OXF"], "SMILES": "C(CCl)(=C)Cl", "physical_data": {"Molecular Weight": "110.97", "Molecular Formula": "C3H4Cl2", "Boiling Point": "94 \u00b0C @ Press: 760 Torr", "Melting Point": "10 \u00b0C", "Density": "1.211 g/cm\u00b3 @ Temp: 20 \u00b0C"}}