{"cas_no": "78-84-2", "cn_name": "\u5f02\u4e01\u919b", "en_name": ["Isobutyraldehyde", "Propanal, 2-methyl-", "Isobutyraldehyde", "2-Methylpropanal", "Isobutanal", "Isobutyric aldehyde", "2-Methylpropionaldehyde", "Isobutyryl aldehyde", "Isopropylformaldehyde", "iso-Butyraldehyde", "\u03b1-Methylpropionaldehyde", "2-Methyl-1-propanal", "Isobutyral", "2-Formylpropane", "Dimethylacetaldehyde", "Isopropylcarboxaldehyde", "NSC 6739", "2-Propanecarboxaldehyde", "Isobutyroaldehyde"], "SMILES": "C(C=O)(C)C", "physical_data": {"Molecular Weight": "72.11", "Molecular Formula": "C4H8O", "Boiling Point": "64 \u00b0C @ Press: 760 Torr", "Melting Point": "-65.9 \u00b0C", "Density": "0.7938 g/cm\u00b3 @ Temp: 20 \u00b0C"}}