{"cas_no": "78-80-8", "cn_name": "2-\u7532\u57fa-1-\u4e01\u70ef-3-\u7094", "en_name": ["2-Methyl-1-buten-3-yne", "1-Buten-3-yne, 2-methyl-", "2-Methyl-1-buten-3-yne", "Isopropenylacetylene", "3-Methyl-3-buten-1-yne", "2-Methyl-1-butene-3-yne", "2-Methylbutenyne", "2-Methyl-1-butenyne", "Valylene", "NSC 9296", "3-Methyl-3-butene-1-yne", "2-Methyl-1-buten-1-yne"], "SMILES": "C(C#C)(C)=C", "physical_data": {"Molecular Weight": "66.10", "Molecular Formula": "C5H6", "Boiling Point": "32 \u00b0C", "Melting Point": "-113 \u00b0C", "Density": "0.7064 g/cm\u00b3 @ Temp: 20 \u00b0C"}}