{"cas_no": "78-94-4", "cn_name": "\u4e01\u70ef\u916e", "en_name": ["3-Buten-2-one", "3-Buten-2-one", "Methyl vinyl ketone", "Vinyl methyl ketone", "1-Buten-3-one", "2-Butenone", "3-Oxobutene", "3-Oxo-1-butene", "NSC 4853"], "SMILES": "C(C=C)(C)=O", "physical_data": {"Molecular Weight": "70.09", "Molecular Formula": "C4H6O", "Boiling Point": "81.4 \u00b0C", "Melting Point": "&lt;25 \u00b0C", "Density": "0.8407 g/cm\u00b3 @ Temp: 25 \u00b0C"}}