{"cas_no": "78-96-6", "cn_name": "\u5f02\u4e19\u9187\u80fa", "en_name": ["(\u00b1)-1-Amino-2-propanol", "2-Propanol, 1-amino-", "1-Amino-2-propanol", "\u03b1-Aminoisopropyl alcohol", "Isopropanolamine", "Threamine", "Monoisopropanolamine", "2-Hydroxy-1-propylamine", "1-Amino-2-hydroxypropane", "2-Hydroxypropylamine", "1-Methyl-2-aminoethanol", "2-Amino-1-methylethanol", "2-Hydroxypropanamine", "MIPA", "2-Hydroxy-1-propanamine", "\u03b2-Aminoisopropanol", "DL-1-Amino-2-propanol", "dl-1-Amino-2-propanol", "(\u00b1)-1-Amino-2-propanol", "(RS)-1-Amino-2-hydroxypropane", "(RS)-1-amino-2-propanol", "NSC 3188", "(2-Hydroxy-2-methylethyl)amine", "1-Aminoisopropanol", "Additive CA"], "SMILES": "C(CN)(C)O", "physical_data": {"Molecular Weight": "75.11", "Molecular Formula": "C3H9NO", "Boiling Point": "159.46 \u00b0C @ Press: 760 Torr", "Melting Point": "1.74 \u00b0C", "Density": "0.9611 g/cm\u00b3 @ Temp: 20 \u00b0C"}}