{"cas_no": "78-97-7", "cn_name": "\u4e73\u8148", "en_name": ["Lactonitrile", "Propanenitrile, 2-hydroxy-", "Lactonitrile", "2-Hydroxypropanenitrile", "\u03b1-Hydroxypropionitrile", "2-Hydroxypropionitrile", "Acetocyanohydrin", "Acetaldehyde, cyanohydrin", "(\u00b1)-2-Hydroxypropionitrile", "(\u00b1)-2-Hydroxypropanenitrile", "NSC 7764"], "SMILES": "C(C#N)(C)O", "physical_data": {"Molecular Weight": "71.08", "Molecular Formula": "C3H5NO", "Boiling Point": "221 \u00b0C", "Melting Point": "-40 \u00b0C", "Density": "0.9877 g/cm\u00b3 @ Temp: 20 \u00b0C"}}