{"cas_no": "78-93-3", "cn_name": "2-\u4e01\u916e", "en_name": ["Methyl ethyl ketone", "2-Butanone", "Butanone", "Ethyl methyl ketone", "MEK", "3-Butanone", "Methyl ethyl ketone", "Superbutanox M 50"], "SMILES": "C(CC)(C)=O", "physical_data": {"Molecular Weight": "72.11", "Molecular Formula": "C4H8O", "Boiling Point": "79.6 \u00b0C", "Melting Point": "-86 \u00b0C", "Density": "0.805 g/cm\u00b3 @ Temp: 20 \u00b0C"}}