{"cas_no": "78-95-5", "cn_name": "\u6c2f\u4e19\u916e", "en_name": ["Chloroacetone", "2-Propanone, 1-chloro-", "2-Propanone, chloro-", "1-Chloro-2-propanone", "Acetonyl chloride", "Chloroacetone", "Chloropropanone", "Monochloroacetone", "\u03b1-Chloroacetone", "1-Chloroacetone", "Chloromethyl methyl ketone", "Chloro-2-propanone", "Methyl chloromethyl ketone", "NSC 30673"], "SMILES": "C(CCl)(C)=O", "physical_data": {"Molecular Weight": "92.52", "Molecular Formula": "C3H5ClO", "Boiling Point": "119.7 \u00b0C", "Melting Point": "-44.5 \u00b0C", "Density": "1.123 g/cm\u00b3 @ Temp: 25 \u00b0C"}}