{"cas_no": "78-98-8", "cn_name": "\u4e19\u916e\u919b", "en_name": ["Methylglyoxal", "Propanal, 2-oxo-", "Pyruvaldehyde", "2-Oxopropanal", "Acetylformaldehyde", "Acetylformyl", "\u03b1-Ketopropionaldehyde", "Methylglyoxal", "Pyroracemic aldehyde", "Pyruvic aldehyde", "2-Ketopropionaldehyde", "2-Oxopropionaldehyde", "NSC 626580", "NSC 79019", "MeSH ID: D011765"], "SMILES": "C(C=O)(C)=O", "physical_data": {"Molecular Weight": "72.06", "Molecular Formula": "C3H4O2", "Boiling Point": "72 \u00b0C", "Melting Point": "&lt;25 \u00b0C", "Density": "1.0455 g/cm\u00b3 @ Temp: 24 \u00b0C"}}