{"cas_no": "78-90-0", "cn_name": "1,2-\u4e19\u4e8c\u80fa", "en_name": ["Propylenediamine", "1,2-Propanediamine", "1,2-Diaminopropane", "Propylenediamine", "1,2-Propylenediamine", "2,3-Diaminopropane", "1-Methyl-1,2-diaminoethane", "dl-1,2-Propylenediamine", "DL-1,2-Propanediamine", "(\u00b1)-1,2-Diaminopropane", "(RS)-1,2-Propanediamine", "NSC 175731", "N,N\u2032-Dimethyl-1,2-diaminopropane"], "SMILES": "C(CN)(C)N", "physical_data": {"Molecular Weight": "74.12", "Molecular Formula": "C3H10N2", "Boiling Point": "117 \u00b0C", "Melting Point": "-17 \u00b0C", "Density": "0.9 g/cm\u00b3"}}