{"cas_no": "780-69-8", "cn_name": "\u82ef\u57fa\u4e09\u4e59\u6c27\u57fa\u7845\u70f7", "en_name": ["Phenyltriethoxysilane", "Benzene, (triethoxysilyl)-", "Silane, triethoxyphenyl-", "(Triethoxysilyl)benzene", "Benzeneorthosiliconic acid, triethyl ester", "Triethoxyphenylsilane", "TSL 8178", "Phenyltriethoxysilane", "P 0320", "KBM 202LS4480", "PTS 32", "Tri(ethoxo)(phenyl)silane", "KBE 103", "LS 4480", "NSC 77115", "Dynasil 9265", "LS 4800", "Dynasylan 9265", "KH 162", "KH 651", "SIP 6821.0"], "SMILES": "[Si](OCC)(OCC)(OCC)C1=CC=CC=C1", "physical_data": {"Molecular Weight": "240.37", "Molecular Formula": "C12H20O3Si", "Boiling Point": "120 \u00b0C @ Press: 15 Torr", "Density": "0.996 g/cm\u00b3"}}