{"cas_no": "780-25-6", "cn_name": "N-\u82c4\u70ef\u4e01\u80fa", "en_name": ["N-Benzylidenebenzylamine", "Benzenemethanamine, N-(phenylmethylene)-", "Benzylamine, N-benzylidene-", "N-(Phenylmethylene)benzenemethanamine", "N-Benzylidenebenzylamine", "Benzylidenebenzylamine", "Benzaldehyde N-benzylimine", "\u03b1-(Benzylideneamino)toluene", "N-Benzylbenzenemethanimine", "Benzaldehyde benzylimine", "N-Benzylbenzaldimine", "Benzyl(benzylidene)amine", "N-Benzylidenebenzenemethanamine", "NSC 38821", "N-(Phenylmethylene)benzylamine", "N-Benzyl-N-(benzylidene)amine", "N-Benzylbenzylideneamine", "N-Benzylidene-1-phenylmethanamine", "N-Benzyl benzaldehyde imine"], "SMILES": "C(N=CC1=CC=CC=C1)C2=CC=CC=C2", "physical_data": {"Molecular Weight": "195.26", "Molecular Formula": "C14H13N", "Boiling Point": "160 \u00b0C", "Melting Point": "141-142 \u00b0C", "Density": "1.047 g/cm\u00b3 @ Temp: 20 \u00b0C"}}