{"cas_no": "7801-71-0", "cn_name": "Z-LEU-LEU-OH", "en_name": ["N-[(Phenylmethoxy)carbonyl]-L-leucyl-L-leucine", "L-Leucine, N-[(phenylmethoxy)carbonyl]-L-leucyl-", "Leucine, N-(N-carboxy-L-leucyl)-, N-benzyl ester, L-", "L-Leucine, N-[N-[(phenylmethoxy)carbonyl]-L-leucyl]-", "N-[(Phenylmethoxy)carbonyl]-L-leucyl-L-leucine", "N-Carbobenzoxy-L-leucyl-L-leucine", "Benzyloxycarbonyl-L-leucyl-L-leucine", "Carbobenzoxy-L-leucyl-L-leucine", "NSC 335978"], "SMILES": "C(C(NC(CC(C)C)C(O)=O)=O)(NC(OCC1=CC=CC=C1)=O)CC(C)C", "physical_data": {"Molecular Weight": "378.46", "Molecular Formula": "C20H30N2O5", "Melting Point": "114-116 \u00b0C"}}