{"cas_no": "78016-98-5", "cn_name": "2-\u4e09\u6c1f\u7532\u57fa\u54aa\u5511-4-\u7532\u9178", "en_name": ["2-(Trifluoromethyl)-1H-imidazole-5-carboxylic acid", "1H-Imidazole-5-carboxylic acid, 2-(trifluoromethyl)-", "1H-Imidazole-4-carboxylic acid, 2-(trifluoromethyl)-", "2-(Trifluoromethyl)-1H-imidazole-5-carboxylic acid", "2-Trifluoromethylimidazole-4-carboxylic acid", "2-(Trifluoromethyl)-1H-imidazole-4-carboxylic acid"], "SMILES": "C(F)(F)(F)C=1NC(C(O)=O)=CN1", "physical_data": {"Molecular Weight": "180.08", "Molecular Formula": "C5H3F3N2O2", "Melting Point": "264-265 \u00b0C (decomp)"}}