{"cas_no": "7803-58-9", "cn_name": "\u78fa\u9170\u80fa", "en_name": ["Sulfamide", "Sulfamide", "Sulfamamide", "Sulfuryl amide", "Sulfuric diamide", "Sulfuryl diamide", "Imidosulfamic acid", "Sulfonyl diamide", "Sulphamide", "NSC 252", "Sulfamoylamine"], "SMILES": "S(N)(N)(=O)=O", "physical_data": {"Molecular Weight": "96.11", "Molecular Formula": "H4N2O2S", "Melting Point": "92 \u00b0C"}}