{"cas_no": "7803-51-2", "cn_name": "\u78f7\u5316\u6c22", "en_name": ["Phosphine (PH3)", "Phosphine", "Phosphorus hydride (PH3)", "Hydrogen phosphide", "Phosphorus trihydride", "Phosphine (PH3)", "Phosphorus hydride", "TK-Gas", "Vaporphos"], "SMILES": "P", "physical_data": {"Molecular Weight": "", "Molecular Formula": "H3P", "Boiling Point": "-87.7 \u00b0C", "Melting Point": "-133 \u00b0C", "Density": "0.8 g/cm\u00b3"}}