{"cas_no": "7803-63-6", "cn_name": "\u786b\u9178\u6c22\u94f5", "en_name": ["Ammonium bisulfate", "Sulfuric acid, ammonium salt (1:1)", "Sulfuric acid, monoammonium salt", "Ammonium sulfate ((NH4)HSO4)", "Acid ammonium sulfate", "Ammonium acid sulfate", "Ammonium bisulfate", "Ammonium hydrogen sulfate", "Monoammonium sulfate", "Monoammonium hydrogen sulfate", "Ammonium hydrogen sulfate (NH4HSO4)", "Ammonium monohydrogen sulfate", "Ammonium sulfate ((NH4)2(SO4)2)"], "SMILES": "S(=O)(=O)(O)O.N", "physical_data": {"Molecular Weight": "", "Molecular Formula": "H3N.H2O4S", "Boiling Point": "358.8 \u00b0C", "Melting Point": "211 \u00b0C (decomp)"}}