{"cas_no": "7803-52-3", "cn_name": "\u9511\u5316\u6c22", "en_name": ["Stibine", "Stibine", "Antimony hydride", "Hydrogen antimonide", "Antimony hydride (SbH3)", "Antimony trihydride", "Stibine (SbH3)"], "SMILES": "[SbH3]", "physical_data": {"Molecular Weight": "", "Molecular Formula": "H3Sb", "Boiling Point": "-18.4 \u00b0C", "Melting Point": "-88 \u00b0C", "Density": "2.26 g/cm\u00b3 @ Temp: -25 \u00b0C"}}