{"cas_no": "7803-49-8", "cn_name": "\u7f9f\u80fa", "en_name": ["Hydroxylamine", "Hydroxylamine", "Hydroxyamine", "Telclean 1200A", "HDA", "EKC 270T", "MeSH ID: D019811"], "SMILES": "NO", "physical_data": {"Molecular Weight": "33.03", "Molecular Formula": "H3NO", "Boiling Point": "70 \u00b0C @ Press: 60 Torr", "Melting Point": "33 \u00b0C", "Density": "1.227 g/cm\u00b3"}}