{"cas_no": "7803-57-8", "cn_name": "\u6c34\u5408\u80bc", "en_name": ["Hydrazine hydrate (1:1)", "Hydrazine, hydrate (1:1)", "Hydrazine, monohydrate", "Hydrazine, hydrate", "Hydrazine hydrate (1:1)", "Hydrazinium hydroxide", "Hydrazine hydroxide", "Hydrazine hydrate"], "SMILES": "NN.O", "physical_data": {"Molecular Weight": "", "Molecular Formula": "H4N2.H2O", "Boiling Point": "59-67 \u00b0C @ Press: 70 Torr", "Melting Point": "-51.7 \u00b0C"}}