{"cas_no": "7803-88-5", "cn_name": "6-O-\u7532\u57fa\u9e1f\u82f7", "en_name": ["O-Methylguanosine", "Guanosine, 6-O-methyl-", "9H-Purine, 2-amino-6-methoxy-9-\u03b2-D-ribofuranosyl-", "6-O-Methylguanosine", "2-Amino-6-methoxypurine ribonucleoside", "6-Methoxy-9-\u03b2-D-ribofuranosyl-9H-purin-2-amine", "O-Methylguanosine", "O6-Methylguanosine", "NSC 66381", "6-Methylguanosine"], "SMILES": "OC1C(N2C=3C(N=C2)=C(OC)N=C(N)N3)OC(CO)C1O", "physical_data": {"Molecular Weight": "297.27", "Molecular Formula": "C11H15N5O5", "Melting Point": "120 \u00b0C"}}