{"cas_no": "7803-68-1", "cn_name": "\u78b2\u9178", "en_name": ["Telluric acid (H6TeO6)", "Telluric acid (H6TeO6)", "Telluric(VI) acid (H6TeO6)", "Orthotelluric acid", "Tellurium hexahydroxide", "Tellurium hydroxide (Te(OH)6)", "Hydrogen tellurate (H6TeO6)"], "SMILES": "[Te](O)(O)(O)(O)(O)O", "physical_data": {"Molecular Weight": "", "Molecular Formula": "H6O6Te", "Boiling Point": "0 \u00b0C"}}