{"cas_no": "7803-62-5", "cn_name": "\u7845\u70f7", "en_name": ["Silane", "Silane", "Silicane", "Silicon tetrahydride", "Monosilane (SiH4)", "Silicon hydride (SiH4)", "Silicon hydride"], "SMILES": "[SiH4]", "physical_data": {"Molecular Weight": "", "Molecular Formula": "H4Si", "Boiling Point": "-112 \u00b0C", "Melting Point": "-185 \u00b0C", "Density": "0.680 g/cm\u00b3 @ Temp: -185 \u00b0C"}}