{"cas_no": "78033-08-6", "cn_name": "8-\u7532\u6c27\u57fa\u7532\u57fa-3-\u5f02\u4e01\u9170-1-\u7532\u57fa\u9ec4\u560c\u5464", "en_name": ["8-Methoxymethyl-3-isobutyl-1-methylxanthine", "1H-Purine-2,6-dione, 3,9-dihydro-8-(methoxymethyl)-1-methyl-3-(2-methylpropyl)-", "1H-Purine-2,6-dione, 3,7-dihydro-8-(methoxymethyl)-1-methyl-3-(2-methylpropyl)-", "3,9-Dihydro-8-(methoxymethyl)-1-methyl-3-(2-methylpropyl)-1H-purine-2,6-dione", "1-Methyl-3-isobutyl-8-methoxymethylxanthine", "8-Methoxymethyl-3-isobutyl-1-methylxanthine", "MMPX", "8-(Methoxymethyl)-1-methyl-3-(2-methylpropy l)-7H-purine-2,6-dione", "3-Isobutyl-8-(methoxymethyl)-1-methyl-1H-purine-2,6(3H,7H)-dione"], "SMILES": "C(C(C)C)N1C2=C(NC(COC)=N2)C(=O)N(C)C1=O", "physical_data": {"Molecular Weight": "266.30", "Molecular Formula": "C12H18N4O3", "Melting Point": "196 \u00b0C"}}