{"cas_no": "7803-55-6", "cn_name": "\u504f\u9492\u9178\u94f5", "en_name": ["Ammonium vanadium oxide ((NH4)VO3)", "Vanadate (VO31-), ammonium (1:1)", "Vanadic acid (HVO3), ammonium salt", "Ammonium vanadate(V) ((NH4)VO3)", "Vanadate (VO31-), ammonium", "Ammonium metavanadate", "Ammonium metavanadate (NH4VO3)", "Ammonium vanadium trioxide", "Ammonium vanadate", "Ammonium monovanadate", "Ammonium vanadate ((NH4)VO3)", "Ammonium trioxovanadate(1-)", "Ammonium vanadate (VO31-)", "Ammonium trioxovanadate", "Ammonium vanadium oxide ((NH4)VO3)"], "SMILES": "[V-](=O)(=O)=O.[NH4+]", "physical_data": {"Molecular Weight": "", "Molecular Formula": "H4N.O3V", "Melting Point": "200 \u00b0C (decomp)", "Density": "2.326 g/cm\u00b3"}}