{"cas_no": "7803-65-8", "cn_name": "\u6b21\u78f7\u9178\u94f5", "en_name": ["Ammonium phosphinate", "Phosphinic acid, ammonium salt (1:1)", "Phosphinic acid, ammonium salt", "Ammonium hypophosphite ((NH4)H2PO2)", "Ammonium phosphinate"], "SMILES": "[PH2](=O)O.N", "physical_data": {"Molecular Weight": "", "Molecular Formula": "H3N.H3O2P", "Melting Point": "200 \u00b0C", "Density": "1.634 g/cm\u00b3"}}