{"cas_no": "78056-39-0", "cn_name": "4,5-\u4e8c\u6c1f-2-\u785d\u57fa\u82ef\u80fa", "en_name": ["4,5-Difluoro-2-nitroaniline", "Benzenamine, 4,5-difluoro-2-nitro-", "4,5-Difluoro-2-nitrobenzenamine", "4,5-Difluoro-2-nitroaniline", "2-Nitro-4,5-difluoroaniline", "4,5-Difluoro-2-nitrophenylamine", "3,4-Difluoro-6-nitroaniline", "NSC 402976"], "SMILES": "N(=O)(=O)C1=C(N)C=C(F)C(F)=C1", "physical_data": {"Molecular Weight": "174.10", "Molecular Formula": "C6H4F2N2O2", "Melting Point": "109-109.5 \u00b0C"}}