{"cas_no": "78092-53-2", "cn_name": "\u5bf9\u53d4\u4e01\u57fa6\u676f\u82b3\u70c3", "en_name": ["tert-Butylcalix[6]arene", "Heptacyclo[31.3.1.13,7.19,13.115,19.121,25.127,31]dotetraconta-1(37),3,5,7(42),9,11,13(41),15,17,19(40),21,23,25(39),27,29,31(38),33,35-octadecaene-37,38,39,40,41,42-hexol, 5,11,17,23,29,35-hexakis(1,1-dimethylethyl)-", "5,11,17,23,29,35-Hexakis(1,1-dimethylethyl)heptacyclo[31.3.1.13,7.19,13.115,19.121,25.127,31]dotetraconta-1(37),3,5,7(42),9,11,13(41),15,17,19(40),21,23,25(39),27,29,31(38),33,35-octadecaene-37,38,39,40,41,42-hexol", "5,11,17,23,29,35-Hexa-tert-butyl-37,38,39,40,41,42-hexahydroxycalix[6]arene", "4-tert-Butylcalix[6]arene", "p-tert-Butylcalix[6]arene", "NSC 344029", "p-t-Butylcalix[6]arene", "tert-Butylcalix[6]arene", "CALX-B 6"], "SMILES": "OC=1C=2CC=3C(O)=C(CC=4C(O)=C(CC=5C(O)=C(CC6=C(O)C(CC7=C(O)C(CC1C=C(C(C)(C)C)C2)=CC(C(C)(C)C)=C7)=CC(C(C)(C)C)=C6)C=C(C(C)(C)C)C5)C=C(C(C)(C)C)C4)C=C(C(C)(C)C)C3", "physical_data": {"Molecular Weight": "973.37", "Molecular Formula": "C66H84O6", "Melting Point": "373 \u00b0C"}}