{"cas_no": "781-73-7", "cn_name": "2-\u4e59\u9170\u82b4", "en_name": ["2-Acetyl-9H-fluorene", "Ethanone, 1-(9H-fluoren-2-yl)-", "Ketone, fluoren-2-yl methyl", "1-(9H-Fluoren-2-yl)ethanone", "2-Acetylfluorene", "2-Acetofluorene", "2-Fluorenyl methyl ketone", "2-Acetyl-9H-fluorene", "NSC 12351", "1-(9H-Fluoren-2-yl)ethan-1-one"], "SMILES": "C(C)(=O)C=1C=C2C(C=3C(C2)=CC=CC3)=CC1", "physical_data": {"Molecular Weight": "208.26", "Molecular Formula": "C15H12O", "Boiling Point": "172-173 \u00b0C @ Press: 0.05 Torr", "Melting Point": "132 \u00b0C"}}