{"cas_no": "781-35-1", "cn_name": "1,1-\u4e8c\u82ef\u57fa\u4e19\u916e", "en_name": ["1,1-Diphenylacetone", "2-Propanone, 1,1-diphenyl-", "1,1-Diphenyl-2-propanone", "1,1-Diphenylacetone", "Methyl diphenylmethyl ketone", "Benzhydryl methyl ketone", "NSC 400472"], "SMILES": "C(C(C)=O)(C1=CC=CC=C1)C2=CC=CC=C2", "physical_data": {"Molecular Weight": "210.27", "Molecular Formula": "C15H14O", "Boiling Point": "307 \u00b0C", "Melting Point": "46 \u00b0C"}}