{"cas_no": "781-43-1", "cn_name": "9,10-\u4e8c\u7532\u57fa\u84bd", "en_name": ["9,10-Dimethylanthracene", "Anthracene, 9,10-dimethyl-", "9,10-Dimethylanthracene", "NSC 4220"], "SMILES": "CC=1C2=C(C(C)=C3C1C=CC=C3)C=CC=C2", "physical_data": {"Molecular Weight": "206.28", "Molecular Formula": "C16H14", "Boiling Point": "360-362 \u00b0C @ Press: 760 Torr", "Melting Point": "4-182 \u00b0C"}}