{"cas_no": "78111-17-8", "cn_name": "\u5188\u7530(\u8f6f\u6d77\u7ef5)\u9178", "en_name": ["Okadaic acid", "1,7-Dioxaspiro[5.5]undec-10-ene-2-propanoic acid, \u03b1,5-dihydroxy-\u03b1,10-dimethyl-8-[(1R,2E)-1-methyl-3-[(2R,4\u2032aR,5R,6\u2032S,8\u2032R,8\u2032aS)-octahydro-8\u2032-hydroxy-6\u2032-[(1S,3S)-1-hydroxy-3-[(2S,3R,6S)-3-methyl-1,7-dioxaspiro[5.5]undec-2-yl]butyl]-7\u2032-methylenespiro[furan-2(3H),2\u2032(3\u2032H)-pyrano[3,2-b]pyran]-5-yl]-2-propen-1-yl]-, (\u03b1R,2S,5R,6R,8S)-", "Acanthifolicin, 9,10-deepithio-9,10-didehydro-", "1,7-Dioxaspiro[5.5]undec-10-ene-2-propanoic acid, \u03b1,5-dihydroxy-\u03b1,10-dimethyl-8-[(1R,2E)-1-methyl-3-[(2R,4\u2032aR,5R,6\u2032S,8\u2032R,8\u2032aS)-octahydro-8\u2032-hydroxy-6\u2032-[(1S,3S)-1-hydroxy-3-[(2S,3R,6S)-3-methyl-1,7-dioxaspiro[5.5]undec-2-yl]butyl]-7\u2032-methylenespiro[furan-2(3H),2\u2032(3\u2032H)-pyrano[3,2-b]pyran]-5-yl]-2-propenyl]-, (\u03b1R,2S,5R,6R,8S)-", "Spiro[furan-2(3H),2\u2032(3\u2032H)-pyrano[3,2-b]pyran], acanthifolicin deriv.", "1,7-Dioxaspiro[5.5]undecane, acanthifolicin deriv.", "(\u03b1R,2S,5R,6R,8S)-\u03b1,5-Dihydroxy-\u03b1,10-dimethyl-8-[(1R,2E)-1-methyl-3-[(2R,4\u2032aR,5R,6\u2032S,8\u2032R,8\u2032aS)-octahydro-8\u2032-hydroxy-6\u2032-[(1S,3S)-1-hydroxy-3-[(2S,3R,6S)-3-methyl-1,7-dioxaspiro[5.5]undec-2-yl]butyl]-7\u2032-methylenespiro[furan-2(3H),2\u2032(3\u2032H)-pyrano[3,2-b]pyran]-5-yl]-2-propen-1-yl]-1,7-dioxaspiro[5.5]undec-10-ene-2-propanoic acid", "Okadaic acid", "1,7-Dioxaspiro[5.5]undec-10-ene-2-propanoic acid, \u03b1,5-dihydroxy-\u03b1,10-dimethyl-8-[1-methyl-3-[octahydro-8\u2032-hydroxy-6\u2032-[1-hydroxy-3-(3-methyl-1,7-dioxaspiro[5.5]undec-2-yl)butyl]-7\u2032-methylenespiro[furan-2(3H),2\u2032(3\u2032H)-pyrano[3,2-b]pyran]-5-yl]-2-propenyl]-, [2\u2032R-[2\u2032\u03b1[R*[1R*[2S*(R*),5R*,6R*,8S*],2E]],4\u2032a\u03b2,6\u2032\u03b2[1S*,3S*(2S*,3R*,6S*)],8\u2032\u03b1,8\u2032a\u03b1]]-", "NSC 677083", "35-Demethyldinophysistoxin 1", "35-Demethyl-DTX 1", "OA", "MeSH ID: D019319"], "SMILES": "OC1C2(OC(C(C=CC3OC4(CC3)OC5C(CC4)OC(C(CC(C)C6OC7(CCC6C)CCCCO7)O)C(=C)C5O)C)CC(C)=C2)OC(CC(C(O)=O)(C)O)CC1", "physical_data": {"Molecular Weight": "805.00", "Molecular Formula": "C44H68O13", "Melting Point": "164-166 \u00b0C"}}