{"cas_no": "78113-36-7", "cn_name": "\u7f57\u83ab\u80bd", "en_name": ["Romurtide", "L-Lysine, N-(N-acetylmuramoyl)-L-alanyl-D-\u03b1-glutaminyl-N6-(1-oxooctadecyl)-", "L-Lysine, N2-[N2-[N-(N-acetylmuramoyl)-L-alanyl]-D-\u03b1-glutaminyl]-N6-(1-oxooctadecyl)-", "N-(N-Acetylmuramoyl)-L-alanyl-D-\u03b1-glutaminyl-N6-(1-oxooctadecyl)-L-lysine", "N\u03b1-Acetylmuramoyl-L-alanyl-D-isoglutaminyl-N\u03b5-stearoyl-L-lysine", "MDP-Lys(L 18)", "Muroctasin", "Romurtide", "Muroctasine", "DJ 7041", "Nopia", "1: PN: WO2009033811 PAGE: 103 claimed protein"], "SMILES": "C(C(NC(C)=O)C=O)(OC(C(NC(C(NC(CCC(NC(CCCCNC(CCCCCCCCCCCCCCCCC)=O)C(O)=O)=O)C(N)=O)=O)C)=O)C)C(C(CO)O)O", "physical_data": {"Molecular Weight": "887.11", "Molecular Formula": "C43H78N6O13", "Melting Point": "176-178 \u00b0C"}}