{"cas_no": "781649-84-1", "cn_name": "1,3-\u4e8c\u6c22-1-(4-\u54cc\u5576\u57fa)-2H-\u54aa\u5511\u5e76[4,5-B]\u5421\u5576-2-\u916e\u76d0\u9178\u76d0", "en_name": ["1-Piperidin-4-yl-1,3-dihydroimidazo[4,5-b]pyridin-2-one dihydrochloride", "2H-Imidazo[4,5-b]pyridin-2-one, 1,3-dihydro-1-(4-piperidinyl)-, hydrochloride (1:2)", "2H-Imidazo[4,5-b]pyridin-2-one, 1,3-dihydro-1-(4-piperidinyl)-, dihydrochloride", "2-Oxo-1-(4-piperidinyl)-2,3-dihydro-1H-imidazo[4,5-b]pyridine dihydrochloride", "1-(Piperidin-4-yl)-1,3-dihydro-2H-imidazo[4,5-b]pyridin-2-one dihydrochloride", "1-Piperidin-4-yl-1,3-dihydroimidazo[4,5-b]pyridin-2-one dihydrochloride", "1-(Piperidin-4-yl)-1H-imidazo[4,5-b]pyridin-2(3H)-one dihydrochloride"], "SMILES": "O=C1N(C=2C(N1)=NC=CC2)C3CCNCC3.Cl", "physical_data": {"Molecular Weight": "", "Molecular Formula": "C11H14N4O.2ClH", "Melting Point": "357.3 \u00b0C"}}