{"cas_no": "781652-57-1", "cn_name": "3-\u6c30\u57fa-N-(1,3-\u4e8c\u82ef\u57fa\u5421\u5511-5-\u57fa)\u82ef\u7532\u9170\u80fa", "en_name": ["3-Cyano-N-(1,3-diphenyl-1H-pyrazol-5-yl)benzamide", "Benzamide, 3-cyano-N-(1,3-diphenyl-1H-pyrazol-5-yl)-", "3-Cyano-N-(1,3-diphenyl-1H-pyrazol-5-yl)benzamide", "CDPPB", "3-Cyano-N-(2,5-diphenylpyrazol-3-yl)benzamide", "3-Cyano-N-(2,5-diphenyl-2H-pyrazol-3-yl)-benzamide"], "SMILES": "N(C(=O)C1=CC(C#N)=CC=C1)C=2N(N=C(C2)C3=CC=CC=C3)C4=CC=CC=C4", "physical_data": {"Molecular Weight": "364.40", "Molecular Formula": "C23H16N4O", "Melting Point": "207-208 \u00b0C"}}