{"cas_no": "78191-00-1", "cn_name": "N-\u7532\u6c27\u57fa-N-\u7532\u57fa\u4e59\u9170\u80fa", "en_name": ["N-Methoxy-N-methylacetamide", "Acetamide, N-methoxy-N-methyl-", "N-Methoxy-N-methylacetamide", "N-Methyl-N-methoxyacetamide", "N,O-Dimethylacetohydroxamic acid", "N-Methoxy-N-methylacetamide"], "SMILES": "N(C(C)=O)(OC)C", "physical_data": {"Molecular Weight": "103.12", "Molecular Formula": "C4H9NO2", "Boiling Point": "70-73 \u00b0C @ Press: 1 Torr"}}