{"cas_no": "782-28-5", "cn_name": "2-\u8418\u4e01\u9178", "en_name": ["2-Naphthalenebutanoic acid", "2-Naphthalenebutanoic acid", "2-Naphthalenebutyric acid", "\u03b3-(2-Naphthyl)butyric acid", "4-(2-Naphthyl)butyric acid", "4-(2-Naphthyl)butanoic acid", "NSC 3036", "4-(Naphthalen-2-yl)butanoic acid"], "SMILES": "C(CCC(O)=O)C1=CC2=C(C=C1)C=CC=C2", "physical_data": {"Molecular Weight": "214.26", "Molecular Formula": "C14H14O2", "Melting Point": "94-95 \u00b0C"}}