{"cas_no": "782-45-6", "cn_name": "\u5c0d\u80fa\u82ef\u7532\u91af\u80fa\u82ef", "en_name": ["4-Amino-N-phenylbenzamide", "Benzamide, 4-amino-N-phenyl-", "Benzanilide, 4-amino-", "4-Amino-N-phenylbenzamide", "4-Aminobenzanilide", "N-Phenyl-4-aminobenzamide", "1-Aminobenzene-4-carboxylic acid phenylamide"], "SMILES": "C(NC1=CC=CC=C1)(=O)C2=CC=C(N)C=C2", "physical_data": {"Molecular Weight": "212.25", "Molecular Formula": "C13H12N2O", "Melting Point": "135-136 \u00b0C"}}