{"cas_no": "78208-72-7", "cn_name": "3-\u5f02\u4e19\u57fa-1-H\u5421\u5511-5-\u7532\u9178\u4e59\u916f", "en_name": ["5-Isopropyl-1H-pyrazole-3-carboxylic acid ethyl ester", "1H-Pyrazole-3-carboxylic acid, 5-(1-methylethyl)-, ethyl ester", "5-Isopropyl-1H-pyrazole-3-carboxylic acid ethyl ester", "Ethyl 5-isopropyl-1H-pyrazole-3-carboxylate", "Ethyl 3-isopropyl-1H-pyrazole-5-carboxylate", "3-Isopropyl-1H-pyrazole-5-carboxylic acid ethyl ester"], "SMILES": "C(OCC)(=O)C=1C=C(C(C)C)NN1", "physical_data": {"Molecular Weight": "182.22", "Molecular Formula": "C9H14N2O2", "Melting Point": "61-63 \u00b0C"}}