{"cas_no": "78214-33-2", "cn_name": "\u4eba\u53c2\u7682\u7519 Rh2", "en_name": ["Ginsenoside Rh2", "\u03b2-D-Glucopyranoside, (3\u03b2,12\u03b2)-12,20-dihydroxydammar-24-en-3-yl", "Dammarane, \u03b2-D-glucopyranoside deriv.", "(3\u03b2,12\u03b2)-12,20-Dihydroxydammar-24-en-3-yl \u03b2-D-glucopyranoside", "Ginsenoside Rh2", "3-O-\u03b2-D-Glucopyranosyl-20(S)-protopanaxadiol", "20(S)-Ginsenoside Rh2", "20(S)-Rh2", "Ginsenoside 20-Rh2", "Ginsenoside rh2(S)"], "SMILES": "CC12C3(C)C(C(C(CCC=C(C)C)(C)O)CC3)C(O)CC1C4(C)C(CC2)C(C)(C)C(OC5OC(CO)C(O)C(O)C5O)CC4", "physical_data": {"Molecular Weight": "622.87", "Molecular Formula": "C36H62O8", "Melting Point": "139-144 \u00b0C"}}