{"cas_no": "78213-16-8", "cn_name": "\u53cc\u6c2f\u82ac\u9178\u4e8c\u4e59\u80fa", "en_name": ["Diclofenac diethylamine", "Benzeneacetic acid, 2-[(2,6-dichlorophenyl)amino]-, compd. with N-ethylethanamine (1:1)", "Ethanamine, N-ethyl-, 2-[(2,6-dichlorophenyl)amino]benzeneacetate", "Diclofenac diethylammonium salt", "Voltaren Emulgel", "Diclofenac diethylamine salt", "Diclofenac diethylamine", "Atomo Desinflamante", "Voltaren Schmerzgel", "Dynapar QPS"], "SMILES": "N(CC)CC.N(C1=C(CC(O)=O)C=CC=C1)C2=C(Cl)C=CC=C2Cl", "physical_data": {"Molecular Weight": "", "Molecular Formula": "C14H11Cl2NO2.C4H11N", "Melting Point": "145-148 \u00b0C"}}