{"cas_no": "78238-13-8", "cn_name": "3-\u7532\u6c27\u57fa-5-\u785d\u57fa\u82ef\u7532\u9178\u7532\u916f", "en_name": ["Benzoic acid, 3-methoxy-5-nitro-, methyl ester", "Benzoic acid, 3-methoxy-5-nitro-, methyl ester", "3-Methoxy-5-nitrobenzoic acid methyl ester", "Methyl 3-methoxy-5-nitrobenzoate"], "SMILES": "C(OC)(=O)C1=CC(N(=O)=O)=CC(OC)=C1", "physical_data": {"Molecular Weight": "211.17", "Molecular Formula": "C9H9NO5", "Melting Point": "88-90 \u00b0C"}}