{"cas_no": "78238-14-9", "cn_name": "3-\u7f9f\u57fa-5-\u785d\u57fa\u82ef\u7532\u9178", "en_name": ["3-Hydroxy-5-nitrobenzoic acid", "Benzoic acid, 3-hydroxy-5-nitro-", "3-Hydroxy-5-nitrobenzoic acid", "5-Hydroxy-3-nitrobenzoic acid", "3-Nitro-5-hydroxybenzoic acid"], "SMILES": "C(O)(=O)C1=CC(N(=O)=O)=CC(O)=C1", "physical_data": {"Molecular Weight": "183.12", "Molecular Formula": "C7H5NO5", "Melting Point": "194-195 \u00b0C"}}