{"cas_no": "78246-49-8", "cn_name": "\u5e15\u7f57\u897f\u6c40\u76d0\u9178\u76d0", "en_name": ["Paroxetine hydrochloride", "Piperidine, 3-[(1,3-benzodioxol-5-yloxy)methyl]-4-(4-fluorophenyl)-, hydrochloride (1:1), (3S,4R)-", "Piperidine, 3-[(1,3-benzodioxol-5-yloxy)methyl]-4-(4-fluorophenyl)-, hydrochloride, (3S-trans)-", "Piperidine, 3-[(1,3-benzodioxol-5-yloxy)methyl]-4-(4-fluorophenyl)-, hydrochloride, (3S,4R)-", "Paroxetine hydrochloride", "BRL 29060 hydrochloride", "BRL 29060A", "Paxil", "(-)-trans-4-(4-Fluorophenyl)-3-(3,4-methylenedioxyphenoxymethyl)piperidine hydrochloride", "Seroxat", "Aropax 20", "Tagonis", "Deroxat", "Paroxet", "Xanadol"], "SMILES": "C(OC=1C=C2C(=CC1)OCO2)C3C(CCNC3)C4=CC=C(F)C=C4.Cl", "physical_data": {"Molecular Weight": "", "Molecular Formula": "C19H20FNO3.ClH", "Melting Point": "120-133 \u00b0C"}}