{"cas_no": "782501-25-1", "cn_name": "4-\u6c2f\u786b\u9170\u57fa\u54cc\u5576\u7fa7\u9178\u4e01\u916f", "en_name": ["1,1-Dimethylethyl 4-(chlorosulfonyl)-1-piperidinecarboxylate", "1-Piperidinecarboxylic acid, 4-(chlorosulfonyl)-, 1,1-dimethylethyl ester", "1,1-Dimethylethyl 4-(chlorosulfonyl)-1-piperidinecarboxylate", "4-Chlorosulfonylpiperidine-1-carboxylic acid tert-butyl ester", "tert-Butyl 4-(chlorosulfonyl)piperidine-1-carboxylate"], "SMILES": "C(OC(C)(C)C)(=O)N1CCC(S(Cl)(=O)=O)CC1", "physical_data": {"Molecular Weight": "283.77", "Molecular Formula": "C10H18ClNO4S", "Melting Point": "83-84 \u00b0C"}}