{"cas_no": "78266-06-5", "cn_name": "N-(3-\u6eb4-2,4,6-\u4e09\u7532\u57fa\u82ef\u57fa\u7532\u9170\u7532\u57fa)\u4e59\u9170\u4e59\u9178", "en_name": ["Mebrofenin", "Glycine, N-[2-[(3-bromo-2,4,6-trimethylphenyl)amino]-2-oxoethyl]-N-(carboxymethyl)-", "N-[2-[(3-Bromo-2,4,6-trimethylphenyl)amino]-2-oxoethyl]-N-(carboxymethyl)glycine", "Mebrofenin", "SQ 26962", "2: PN: US20040033243 PAGE: 23 claimed protein", "2,2\u2032-((2-((3-Bromo-2,4,6-trimethylphenyl)amino)-2-oxoethyl)azanediyl)diacetic acid", "(3-Bromo-2,4,6-trimethylphenylcarbamoyl)methyliminodiacetic acid"], "SMILES": "N(C(CN(CC(O)=O)CC(O)=O)=O)C1=C(C)C(Br)=C(C)C=C1C", "physical_data": {"Molecular Weight": "387.23", "Molecular Formula": "C15H19BrN2O5", "Melting Point": "198-200 \u00b0C"}}