{"cas_no": "78269-85-9", "cn_name": "N-[2-(\u4e09\u7532\u57fa\u7845\u57fa)\u4e59\u6c27\u7fb0\u6c27\u57fa]\u7425\u73c0\u9170\u4e9a\u80fa", "en_name": ["2,5-Dioxo-1-pyrrolidinyl [2-(trimethylsilyl)ethyl] carbonate", "Carbonic acid, 2,5-dioxo-1-pyrrolidinyl [2-(trimethylsilyl)ethyl] ester", "2,5-Pyrrolidinedione, 1-[[[2-(trimethylsilyl)ethoxy]carbonyl]oxy]-", "2,5-Dioxo-1-pyrrolidinyl [2-(trimethylsilyl)ethyl] carbonate", "1-[[[2-(Trimethylsilyl)ethoxy]carbonyl]oxy]pyrrolidin-2,5-dione", "1-[[[2-(Trimethylsilyl)ethoxy]carbonyl]oxy]pyrrolidine-2,5-dione", "1-[[[[2-(Trimethylsilyl)ethyl]oxy]carbonyl]oxy]-2,5-pyrrolidinedione", "2,5-Dioxopyrrolidin-1-yl 2-(trimethylsilyl)ethyl carbonate", "N-[[[(2-Trimethylsilylethyl)oxy]carbonyl]oxy]succinimide", "Teoc-OSu"], "SMILES": "O(C(OCC[Si](C)(C)C)=O)N1C(=O)CCC1=O", "physical_data": {"Molecular Weight": "259.33", "Molecular Formula": "C10H17NO5Si", "Melting Point": "97.5-98.5 \u00b0C"}}