{"cas_no": "78273-80-0", "cn_name": "\u7f57\u6c99\u66ff\u4e01", "en_name": ["Roxatidine", "Acetamide, 2-hydroxy-N-[3-[3-(1-piperidinylmethyl)phenoxy]propyl]-", "2-Hydroxy-N-[3-[3-(1-piperidinylmethyl)phenoxy]propyl]acetamide", "Roxatidine"], "SMILES": "C(C1=CC(OCCCNC(CO)=O)=CC=C1)N2CCCCC2", "physical_data": {"Molecular Weight": "306.40", "Molecular Formula": "C17H26N2O3", "Melting Point": "59-60 \u00b0C"}}