{"cas_no": "78281-02-4", "cn_name": "\u7f9f\u57fa\u7ea2\u82b1\u9ec4\u8272\u7d20A", "en_name": ["Hydroxysafflor yellow A", "2,5-Cyclohexadien-1-one, 2,4-di-\u03b2-D-glucopyranosyl-3,4,5-trihydroxy-6-[(2E)-3-(4-hydroxyphenyl)-1-oxo-2-propen-1-yl]-", "2,5-Cyclohexadien-1-one, 2,4-di-\u03b2-D-glucopyranosyl-3,4,5-trihydroxy-6-[(2E)-3-(4-hydroxyphenyl)-1-oxo-2-propenyl]-", "2,4-Di-\u03b2-D-glucopyranosyl-3,4,5-trihydroxy-6-[(2E)-3-(4-hydroxyphenyl)-1-oxo-2-propen-1-yl]-2,5-cyclohexadien-1-one", "Safflomin A", "Hydroxysafflor yellow A", "HSYA"], "SMILES": "OC1(C(O)=C(C(=O)C(C(C=CC2=CC=C(O)C=C2)=O)=C1O)C3OC(CO)C(O)C(O)C3O)C4OC(CO)C(O)C(O)C4O", "physical_data": {"Molecular Weight": "612.53", "Molecular Formula": "C27H32O16", "Melting Point": "184-186 \u00b0C"}}