{"cas_no": "78281-72-8", "cn_name": "\u5948\u5e15\u915a\u80fa", "en_name": ["Nepafenac", "Benzeneacetamide, 2-amino-3-benzoyl-", "2-Amino-3-benzoylbenzeneacetamide", "AL 6515", "Nepafenac", "AHR 9434", "Nevanac", "Ilevro", "2-(2-Amino-3-benzoylphenyl)acetamide"], "SMILES": "C(=O)(C1=C(N)C(CC(N)=O)=CC=C1)C2=CC=CC=C2", "physical_data": {"Molecular Weight": "254.28", "Molecular Formula": "C15H14N2O2", "Melting Point": "178-180 \u00b0C"}}