{"cas_no": "78287-27-1", "cn_name": "7-\u4e59\u57fa\u559c\u6811\u78b1", "en_name": ["7-Ethylcamptothecin", "1H-Pyrano[3\u2032,4\u2032:6,7]indolizino[1,2-b]quinoline-3,14(4H,12H)-dione, 4,11-diethyl-4-hydroxy-, (4S)-", "1H-Pyrano[3\u2032,4\u2032:6,7]indolizino[1,2-b]quinoline-3,14(4H,12H)-dione, 4,11-diethyl-4-hydroxy-, (S)-", "(4S)-4,11-Diethyl-4-hydroxy-1H-pyrano[3\u2032,4\u2032:6,7]indolizino[1,2-b]quinoline-3,14(4H,12H)-dione", "7-Ethylcamptothecin", "SN 22", "7-Ethyl-20(S)-camptothecin"], "SMILES": "O=C1N2C(C=3C(C2)=C(CC)C=4C(N3)=CC=CC4)=CC5=C1COC(=O)C5(CC)O", "physical_data": {"Molecular Weight": "376.41", "Molecular Formula": "C22H20N2O4", "Melting Point": "259-261 \u00b0C"}}