{"cas_no": "783331-24-8", "cn_name": "3-(1,1-Dimethylethyl)-7-(5-methyl-3-isoxazolyl)-2-[(1-methyl-1H-1,2,4-triazol-5-yl)methoxy]-pyrazolo[1,5-d][1,2,4]triazine", "en_name": ["3-(1,1-Dimethylethyl)-7-(5-methyl-3-isoxazolyl)-2-[(1-methyl-1H-1,2,4-triazol-5-yl)methoxy]pyrazolo[1,5-d][1,2,4]triazine", "Pyrazolo[1,5-d][1,2,4]triazine, 3-(1,1-dimethylethyl)-7-(5-methyl-3-isoxazolyl)-2-[(1-methyl-1H-1,2,4-triazol-5-yl)methoxy]-", "3-(1,1-Dimethylethyl)-7-(5-methyl-3-isoxazolyl)-2-[(1-methyl-1H-1,2,4-triazol-5-yl)methoxy]pyrazolo[1,5-d][1,2,4]triazine", "MRK 016"], "SMILES": "C(C)(C)(C)C1=C2N(C(=NN=C2)C3=NOC(C)=C3)N=C1OCC=4N(C)N=CN4", "physical_data": {"Molecular Weight": "368.39", "Molecular Formula": "C17H20N8O2", "Melting Point": "175-176 \u00b0C"}}