{"cas_no": "78350-50-2", "cn_name": "3-\u6c28\u57fa\u544b\u54b1-4-\u7fa7\u9178", "en_name": ["4-Amino-1,2,5-oxadiazole-3-carboxylic acid", "1,2,5-Oxadiazole-3-carboxylic acid, 4-amino-", "Furazancarboxylic acid, amino-", "4-Amino-1,2,5-oxadiazole-3-carboxylic acid", "4-Amino-3-furazancarboxylic acid"], "SMILES": "C(O)(=O)C=1C(N)=NON1", "physical_data": {"Molecular Weight": "129.07", "Molecular Formula": "C3H3N3O3", "Melting Point": "216-217 \u00b0C"}}