{"cas_no": "78385-36-1", "cn_name": "(\u82c4\u6c27\u7fb0\u57fa\u7532\u57fa)\u4e09\u82ef\u57fa\u6eb4\u5316", "en_name": ["Phosphonium, [2-oxo-2-(phenylmethoxy)ethyl]triphenyl-, bromide (1:1)", "Phosphonium, [2-oxo-2-(phenylmethoxy)ethyl]triphenyl-, bromide (1:1)", "Phosphonium, [2-oxo-2-(phenylmethoxy)ethyl]triphenyl-, bromide", "Benzyloxycarbonylmethyltriphenylphosphonium bromide", "[2-(Benzyloxy)-2-oxoethyl]triphenylphosphanium bromide"], "SMILES": "[P+](CC(OCC1=CC=CC=C1)=O)(C2=CC=CC=C2)(C3=CC=CC=C3)C4=CC=CC=C4.[Br-]", "physical_data": {"Molecular Weight": "", "Molecular Formula": "C27H24O2P.Br", "Melting Point": "160 \u00b0C"}}