{"cas_no": "784-50-9", "cn_name": "9-\u82b4\u916e-2-\u7fa7\u9178", "en_name": ["Fluorenone-2-carboxylic acid", "9H-Fluorene-2-carboxylic acid, 9-oxo-", "Fluorene-2-carboxylic acid, 9-oxo-", "9-Oxo-9H-fluorene-2-carboxylic acid", "9-Fluorenone-2-carboxylic acid", "Fluorenone-2-carboxylic acid", "9-Oxofluorene-2-carboxylic acid", "NSC 113321", "NSC 81258", "2-Carboxyfluoren-9-one"], "SMILES": "O=C1C=2C(C=3C1=CC=CC3)=CC=C(C(O)=O)C2", "physical_data": {"Molecular Weight": "224.21", "Molecular Formula": "C14H8O3", "Melting Point": "341 \u00b0C"}}