{"cas_no": "784-04-3", "cn_name": "9-\u4e59\u9170\u57fa\u84bd", "en_name": ["9-Acetylanthracene", "Ethanone, 1-(9-anthracenyl)-", "Ketone, 9-anthryl methyl", "1-(9-Anthracenyl)ethanone", "9-Acetylanthracene", "9-Anthryl methyl ketone", "NSC 1143", "NSC 13246"], "SMILES": "C(C)(=O)C=1C2=C(C=C3C1C=CC=C3)C=CC=C2", "physical_data": {"Molecular Weight": "220.27", "Molecular Formula": "C16H12O", "Melting Point": "78 \u00b0C"}}