{"cas_no": "784-38-3", "cn_name": "2-\u6c28\u57fa-5-\u6c2f-2'-\u6c1f\u4e8c\u82ef\u7532\u916e", "en_name": ["2-Amino-5-chloro-2\u2032-fluorobenzophenone", "Methanone, (2-amino-5-chlorophenyl)(2-fluorophenyl)-", "Benzophenone, 2-amino-5-chloro-2\u2032-fluoro-", "(2-Amino-5-chlorophenyl)(2-fluorophenyl)methanone", "2-Amino-5-chloro-2\u2032-fluorobenzophenone"], "SMILES": "C(=O)(C1=C(N)C=CC(Cl)=C1)C2=C(F)C=CC=C2", "physical_data": {"Molecular Weight": "249.67", "Molecular Formula": "C13H9ClFNO", "Melting Point": "94-95 \u00b0C"}}