{"cas_no": "78416-81-6", "cn_name": "\u76d0\u9178\u66f2\u6797\u83cc\u7d20", "en_name": ["4H-Pyrimido[6,1-a]isoquinolin-4-one, 2,3,6,7-tetrahydro-9,10-dimethoxy-3-methyl-2-[(2,4,6-trimethylphenyl)imino]-, hydrochloride (1:1)", "4H-Pyrimido[6,1-a]isoquinolin-4-one, 2,3,6,7-tetrahydro-9,10-dimethoxy-3-methyl-2-[(2,4,6-trimethylphenyl)imino]-, hydrochloride (1:1)", "4H-Pyrimido[6,1-a]isoquinolin-4-one, 2,3,6,7-tetrahydro-9,10-dimethoxy-3-methyl-2-[(2,4,6-trimethylphenyl)imino]-, monohydrochloride", "HL 725", "Trequinsin hydrochloride"], "SMILES": "O=C1N2C(C=3C(=CC(OC)=C(OC)C3)CC2)=CC(=NC4=C(C)C=C(C)C=C4C)N1C.Cl", "physical_data": {"Molecular Weight": "", "Molecular Formula": "C24H27N3O3.ClH", "Melting Point": "210-211 \u00b0C"}}