{"cas_no": "78415-72-2", "cn_name": "\u7c73\u529b\u519c", "en_name": ["Milrinone", "[3,4\u2032-Bipyridine]-5-carbonitrile, 1,6-dihydro-2-methyl-6-oxo-", "1,6-Dihydro-2-methyl-6-oxo[3,4\u2032-bipyridine]-5-carbonitrile", "Win 47203", "Milrinone", "Corotrope", "Primacor IV", "Corotrop", "Milrila", "Primacor", "2-Hydroxy-6-methyl-5-(pyridin-4-yl)pyridine-3-carbonitrile", "MeSH ID: D020105"], "SMILES": "CC1=C(C=C(C#N)C(=O)N1)C=2C=CN=CC2", "physical_data": {"Molecular Weight": "211.22", "Molecular Formula": "C12H9N3O", "Melting Point": "&gt;300 \u00b0C"}}