{"cas_no": "78468-34-5", "cn_name": "(2 -\u6c28\u57fa- 4 -\u785d\u57fa\u82ef\u57fa)\u7532\u9187", "en_name": ["2-Amino-4-nitrobenzenemethanol", "Benzenemethanol, 2-amino-4-nitro-", "2-Amino-4-nitrobenzenemethanol", "2-Amino-4-nitrobenzyl alcohol", "(2-Amino-4-nitrophenyl)methanol"], "SMILES": "N(=O)(=O)C1=CC(N)=C(CO)C=C1", "physical_data": {"Molecular Weight": "168.15", "Molecular Formula": "C7H8N2O3", "Melting Point": "178-180 \u00b0C"}}