{"cas_no": "78473-00-4", "cn_name": "4-\u6c28\u57fa-3,5-\u4e8c\u6c2f\u82ef\u8148", "en_name": ["4-Amino-3,5-dichlorobenzonitrile", "Benzonitrile, 4-amino-3,5-dichloro-", "4-Amino-3,5-dichlorobenzonitrile", "4-Cyano-2,6-dichlorobenzenamine", "4-Cyano-2,6-dichloroaniline", "3,5-Dichloro-4-aminobenzonitrile", "2,6-Dichloro-4-cyanoaniline"], "SMILES": "C(#N)C1=CC(Cl)=C(N)C(Cl)=C1", "physical_data": {"Molecular Weight": "187.03", "Molecular Formula": "C7H4Cl2N2", "Melting Point": "117-118 \u00b0C"}}