{"cas_no": "78495-65-5", "cn_name": "4-\u6c1f-3-\u7532\u6c27\u57fa\u82ef\u4e59\u9178", "en_name": ["2-Fluoro-3,4-dimethoxybenzeneacetic acid", "Benzeneacetic acid, 2-fluoro-3,4-dimethoxy-", "2-Fluoro-3,4-dimethoxybenzeneacetic acid", "2-Fluoro-3,4-dimethoxyphenylacetic acid", "2-(2-Fluoro-3,4-dimethoxyphenyl)acetic acid", "2-(2-Fluoro-3,4-dimethoxyphenyl)aceticacid"], "SMILES": "O(C)C1=C(OC)C=CC(CC(O)=O)=C1F", "physical_data": {"Molecular Weight": "214.19", "Molecular Formula": "C10H11FO4", "Melting Point": "100-101 \u00b0C"}}