{"cas_no": "785-30-8", "cn_name": "4,4'-\u4e8c\u6c28\u57fa\u82ef\u9170\u66ff\u82ef\u80fa", "en_name": ["4,4\u2032-Diaminobenzanilide", "Benzamide, 4-amino-N-(4-aminophenyl)-", "Benzanilide, 4,4\u2032-diamino-", "4-Amino-N-(4-aminophenyl)benzamide", "4,4\u2032-Diaminobenzanilide", "4-Aminobenzoyl-4\u2032-aminoanilide", "N-(4-Aminophenyl)-4-aminobenzamide", "NSC 37092", "DABAN", "4,4\u2032-Diaminodiphenylamide"], "SMILES": "C(NC1=CC=C(N)C=C1)(=O)C2=CC=C(N)C=C2", "physical_data": {"Molecular Weight": "227.26", "Molecular Formula": "C13H13N3O", "Melting Point": "204 \u00b0C"}}