{"cas_no": "78510-19-7", "cn_name": "N-\u53cd\u5f0f-\u963f\u9b4f\u9170-3-\u7532\u6c27\u57fa\u916a\u80fa", "en_name": ["N-trans-Feruloylmethoxytyramine", "2-Propenamide, 3-(4-hydroxy-3-methoxyphenyl)-N-[2-(4-hydroxy-3-methoxyphenyl)ethyl]-, (2E)-", "2-Propenamide, 3-(4-hydroxy-3-methoxyphenyl)-N-[2-(4-hydroxy-3-methoxyphenyl)ethyl]-, (E)-", "(2E)-3-(4-Hydroxy-3-methoxyphenyl)-N-[2-(4-hydroxy-3-methoxyphenyl)ethyl]-2-propenamide", "N-trans-Feruloyl 3-O-methyldopamine", "trans-N-Feruloyl-3-O-methyldopamine", "N-trans-Feruloylhomovanillylamine", "N-Transferuloyl 3-O-methyldopamine", "trans-Feruloylmethoxytyramine", "N-trans-Feruloyl-3-methyldopamine", "N-trans-Feruloylmethoxytyramine", "N-trans-Feruloyl-3-methoxytyramine"], "SMILES": "C(CNC(C=CC1=CC(OC)=C(O)C=C1)=O)C2=CC(OC)=C(O)C=C2", "physical_data": {"Molecular Weight": "343.37", "Molecular Formula": "C19H21NO5", "Melting Point": "105-106 \u00b0C"}}