{"cas_no": "78521-39-8", "cn_name": "6-[[(4-\u7532\u82ef\u57fa)\u78fa\u57fa]\u6c28\u57fa]\u5df1\u9178", "en_name": ["6-[[(4-Methylphenyl)sulfonyl]amino]hexanoic acid", "Hexanoic acid, 6-[[(4-methylphenyl)sulfonyl]amino]-", "Hexanoic acid, 6-p-toluenesulfonamido-", "6-[[(4-Methylphenyl)sulfonyl]amino]hexanoic acid", "NSC 38047", "6-[(4-Methylbenzenesulfonyl)amino]caproic acid"], "SMILES": "S(NCCCCCC(O)=O)(=O)(=O)C1=CC=C(C)C=C1", "physical_data": {"Molecular Weight": "285.36", "Molecular Formula": "C13H19NO4S", "Melting Point": "106-108 \u00b0C"}}