{"cas_no": "78560-44-8", "cn_name": "\u5168\u6c1f\u5341\u4e8c\u70f7\u57fa\u4e09\u6c2f\u7845\u70f7", "en_name": ["1H,1H,2H,2H-Perfluorodecyltrichlorosilane", "Silane, trichloro(3,3,4,4,5,5,6,6,7,7,8,8,9,9,10,10,10-heptadecafluorodecyl)-", "Trichloro(3,3,4,4,5,5,6,6,7,7,8,8,9,9,10,10,10-heptadecafluorodecyl)silane", "[2-(Perfluorooctyl)ethyl]trichlorosilane", "(Perfluorooctylethyl)trichlorosilane", "TSL 8232", "3,3,4,4,5,5,6,6,7,7,8,8,9,9,10,10,10-Heptadecafluorodecyltrichlorosilane", "(1,1,2,2-Tetrahydroperfluorodecyl)trichlorosilane", "1H,1H,2H,2H-Perfluorodecyltrichlorosilane", "HFTCS", "(Heptadecafluoro-1,1,2,2-tetrahydrodecyl)trichlorosilane", "Heptadecafluoro-1,1,2,2-tetrahydrooctyltrichlorosilane", "(1H,1H,2H,2H-Heptadecafluorodecyl)trichlorosilane", "SIH 5841.0", "KS 3175", "Gelest SIH 5841.0", "(Heptadecafluoro-1,1,2,2-tetrahydradecyl)trichlorosilane", "FC 10", "Trichloro(1H,1H,2H,2H-perfluorodecyl)silane", "SG-Si 191", "FDTS"], "SMILES": "C(C(C(C(C(F)(F)F)(F)F)(F)F)(F)F)(C(C(C(CC[Si](Cl)(Cl)Cl)(F)F)(F)F)(F)F)(F)F", "physical_data": {"Molecular Weight": "581.56", "Molecular Formula": "C10H4Cl3F17Si", "Boiling Point": "216-218 \u00b0C", "Density": "1.703 g/cm\u00b3"}}