{"cas_no": "78560-45-9", "cn_name": "1H,1H,2H,2H-\u5168\u6c1f\u8f9b\u57fa\u4e09\u6c2f\u7845\u70f7", "en_name": ["(Tridecafluoro-1,1,2,2-tetrahydrooctyl)trichlorosilane", "Silane, trichloro(3,3,4,4,5,5,6,6,7,7,8,8,8-tridecafluorooctyl)-", "Trichloro(3,3,4,4,5,5,6,6,7,7,8,8,8-tridecafluorooctyl)silane", "(1,1,2,2-Tetrahydroperfluorooctyl)trichlorosilane", "[2-(Perfluorohexyl)ethyl]trichlorosilane", "Trichloro(tridecafluoro-1,1,2,2-tetrahydrooctyl)silane", "Trichloro(1H,1H,2H,2H-tridecafluorooctyl)silane", "1H,1H,2H,2H-Perfluorooctyltrichlorosilane", "3,3,4,4,5,5,6,6,7,7,8,8,8-Tridecafluorooctyltrichlorosilane", "(Tridecafluoro-1,1,2,2-tetrahydrooctyl)trichlorosilane", "T 2492", "TSL 8256", "Perfluoro-1,1,2,2-tetrahydrooctyltrichlorosilane", "SIT 8174.0", "Dynasylan 8061", "(1H,1H,2H,2H-Tridecafluorooctyl)trichlorosilane", "Tridecafluoro-1,1,2,2-tetrahydroctyl-1-trichlorosilane", "Trichloro(1H,1H,2H,2H-perfluorooctyl)silane", "F 13OTCS", "FOTS", "(3,3,4,4,5,5,6,6,7,7,8,8,8-Tridecafluorooctan-1-yl)trichlorosilane", "Trichloro(1H,1H,2H,2H-perfuorooctyl)silane"], "SMILES": "C(C(C(C(F)(F)F)(F)F)(F)F)(C(C(CC[Si](Cl)(Cl)Cl)(F)F)(F)F)(F)F", "physical_data": {"Molecular Weight": "481.54", "Molecular Formula": "C8H4Cl3F13Si", "Boiling Point": "84-85 \u00b0C @ Press: 17 Torr", "Density": "1.639 g/cm\u00b3"}}