{"cas_no": "78574-94-4", "cn_name": "\u73af\u9ec4\u82aa\u9187", "en_name": ["Cycloastragenol", "9,19-Cyclolanostane-3,6,16,25-tetrol, 20,24-epoxy-, (3\u03b2,6\u03b1,16\u03b2,20R,24S)-", "(3\u03b2,6\u03b1,16\u03b2,20R,24S)-20,24-Epoxy-9,19-cyclolanostane-3,6,16,25-tetrol", "Cyclosiversigenin", "Astramembrangenin", "Cycloastragenol", "Cyclosieversigenin", "Cyloastragenol"], "SMILES": "CC12C3C4(C5(C4)C(C(O)C3)C(C)(C)C(O)CC5)CCC1(C)C(C(O)C2)C6(C)OC(C(C)(C)O)CC6", "physical_data": {"Molecular Weight": "490.71", "Molecular Formula": "C30H50O5", "Melting Point": "239-241 \u00b0C"}}