{"cas_no": "78587-05-0", "cn_name": "\u567b\u87a8\u916e", "en_name": ["Hexythiazox", "3-Thiazolidinecarboxamide, 5-(4-chlorophenyl)-N-cyclohexyl-4-methyl-2-oxo-, (4R,5R)-rel-", "3-Thiazolidinecarboxamide, 5-(4-chlorophenyl)-N-cyclohexyl-4-methyl-2-oxo-, trans-", "rel-(4R,5R)-5-(4-Chlorophenyl)-N-cyclohexyl-4-methyl-2-oxo-3-thiazolidinecarboxamide", "Hexythiazox", "Nissorun", "NA 73", "Trevi", "Matacar", "Calibre", "Cesar", "Ordoval", "Savey", "Savey PM", "Hexygon", "Zeldox", "Onager", "GWN 2106", "Maiden", "Maccomite"], "SMILES": "CC1C(SC(=O)N1C(NC2CCCCC2)=O)C3=CC=C(Cl)C=C3", "physical_data": {"Molecular Weight": "352.88", "Molecular Formula": "C17H21ClN2O2S", "Melting Point": "108 \u00b0C"}}