{"cas_no": "78597-54-3", "cn_name": "5-\u6c28\u57fa-3-(4-\u7532\u57fa\u82ef\u57fa)\u5421\u5511", "en_name": ["5-(4-Methylphenyl)-1H-pyrazol-3-amine", "1H-Pyrazol-3-amine, 5-(4-methylphenyl)-", "5-(4-Methylphenyl)-1H-pyrazol-3-amine", "3-Amino-5-(4-methylphenyl)pyrazole", "3-Amino-5-(p-tolyl)pyrazole", "5-Amino-3-(4-methylphenyl)-1H-pyrazole", "3-(4-Methylphenyl)-5-amino-1H-pyrazole", "5-(p-Tolyl)-1H-pyrazol-3-amine", "1H-Pyrazol-3-amine 5-(4-methylphenyl)-", "3-Amino-5-(4-methylphenyl)-1H-pyrazole"], "SMILES": "NC=1C=C(C2=CC=C(C)C=C2)NN1", "physical_data": {"Molecular Weight": "173.21", "Molecular Formula": "C10H11N3", "Melting Point": "145-147 \u00b0C"}}