{"cas_no": "786-19-6", "cn_name": "\u4e09\u786b\u78f7", "en_name": ["Carbophenothion", "Phosphorodithioic acid, S-[[(4-chlorophenyl)thio]methyl] O,O-diethyl ester", "Phosphorodithioic acid, S-[[(p-chlorophenyl)thio]methyl] O,O-diethyl ester", "R 1303 (pesticide)", "ENT 23,708", "Acarithion", "Carbophenothion", "S-[[(p-Chlorophenyl)thio]methyl] O,O-diethyl phosphorodithioate", "Oleoakarithion", "Stauffer R 1303", "Trithion", "Carbofenthion", "Ethyl carbophenothion", "Hexathion", "Carbofenothion", "O,O-Diethyl S-(p-chlorophenylthio)methyl phosphorodithioate", "Garrathion", "R 1303", "Carbofenotion", "NSC 231691"], "SMILES": "P(SCSC1=CC=C(Cl)C=C1)(OCC)(OCC)=S", "physical_data": {"Molecular Weight": "342.87", "Molecular Formula": "C11H16ClO2PS3", "Boiling Point": "82 \u00b0C @ Press: 0.01 Torr", "Density": "1.271 g/cm\u00b3 @ Temp: 25 \u00b0C"}}