{"cas_no": "78603-91-5", "cn_name": "(S)-2-\u6c28\u57fa-1,1-\u4e8c\u82ef\u57fa-1-\u4e19\u9187", "en_name": ["\u03b1-[(1S)-1-Aminoethyl]-\u03b1-phenylbenzenemethanol", "Benzenemethanol, \u03b1-[(1S)-1-aminoethyl]-\u03b1-phenyl-", "Benzenemethanol, \u03b1-(1-aminoethyl)-\u03b1-phenyl-, (S)-", "\u03b1-[(1S)-1-Aminoethyl]-\u03b1-phenylbenzenemethanol", "(S)-2-Amino-1,1-diphenyl-1-propanol", "(S)-\u03b2-Hydroxy-\u03b1-methyl-\u03b2-phenylbenzeneethanamine", "(2S)-2-Amino-1,1-diphenylpropan-1-ol", "(S)-(-)-2-Amino-1,1-diphenyl-1-propanol"], "SMILES": "C(C(C)N)(O)(C1=CC=CC=C1)C2=CC=CC=C2", "physical_data": {"Molecular Weight": "227.30", "Molecular Formula": "C15H17NO", "Melting Point": "98-100 \u00b0C"}}