{"cas_no": "78613-35-1", "cn_name": "\u963f\u83ab\u7f57\u82ac", "en_name": ["Amorolfine", "Morpholine, 4-[3-[4-(1,1-dimethylpropyl)phenyl]-2-methylpropyl]-2,6-dimethyl-, (2R,6S)-rel-", "Morpholine, 4-[3-[4-(1,1-dimethylpropyl)phenyl]-2-methylpropyl]-2,6-dimethyl-, cis-", "rel-(2R,6S)-4-[3-[4-(1,1-Dimethylpropyl)phenyl]-2-methylpropyl]-2,6-dimethylmorpholine", "Amorolfine", "Loceryl", "Ro 14-4767/000", "Ro 14-4767"], "SMILES": "C(C(CN1CC(C)OC(C)C1)C)C2=CC=C(C(CC)(C)C)C=C2", "physical_data": {"Molecular Weight": "317.51", "Molecular Formula": "C21H35NO", "Boiling Point": "134 \u00b0C @ Press: 0.036 Torr"}}