{"cas_no": "78628-80-5", "cn_name": "\u76d0\u9178\u7279\u6bd4\u8418\u82ac", "en_name": ["Terbinafine hydrochloride", "1-Naphthalenemethanamine, N-[(2E)-6,6-dimethyl-2-hepten-4-yn-1-yl]-N-methyl-, hydrochloride (1:1)", "1-Naphthalenemethanamine, N-(6,6-dimethyl-2-hepten-4-ynyl)-N-methyl-, hydrochloride, (E)-", "1-Naphthalenemethanamine, N-[(2E)-6,6-dimethyl-2-hepten-4-ynyl]-N-methyl-, hydrochloride", "Terbinafine hydrochloride", "Terbina", "Lamisil", "Bramazil", "Bramizil", "Muzonal", "Terbine", "Lamisil Once"], "SMILES": "C(N(CC=CC#CC(C)(C)C)C)C=1C2=C(C=CC1)C=CC=C2.Cl", "physical_data": {"Molecular Weight": "", "Molecular Formula": "C21H25N.ClH", "Melting Point": "205 \u00b0C"}}