{"cas_no": "78628-28-1", "cn_name": "\u918b\u9178\u7f57\u6c99\u66ff\u4e01", "en_name": ["Roxatidine acetate", "Acetamide, 2-(acetyloxy)-N-[3-[3-(1-piperidinylmethyl)phenoxy]propyl]-", "2-(Acetyloxy)-N-[3-[3-(1-piperidinylmethyl)phenoxy]propyl]acetamide", "Roxatidine acetate", "Pifatidine", "Aceroxatidine", "2-Oxo-2-((3-(3-(piperidin-1-ylmethyl)phenoxy)propyl)amino)ethyl acetate"], "SMILES": "C(C1=CC(OCCCNC(COC(C)=O)=O)=CC=C1)N2CCCCC2", "physical_data": {"Molecular Weight": "348.44", "Molecular Formula": "C19H28N2O4", "Melting Point": "59-60 \u00b0C"}}