{"cas_no": "78660-92-1", "cn_name": "2-\u8054\u82ef-4-\u57fa-\u55b9\u5549-4-\u7fa7\u9178", "en_name": ["2-[1,1\u2032-Biphenyl]-4-yl-4-quinolinecarboxylic acid", "4-Quinolinecarboxylic acid, 2-[1,1\u2032-biphenyl]-4-yl-", "Cinchoninic acid, 2-(4-biphenylyl)-", "2-[1,1\u2032-Biphenyl]-4-yl-4-quinolinecarboxylic acid", "2-(1,1\u2032-Biphenyl-4-yl)-4-quinolinecarboxylic acid", "2-Biphenyl-4-yl-quinoline-4-carboxylic acid", "2-Biphenyl-4-ylquinoline-4-carboxylic acid", "2-(4-Phenylphenyl)quinoline-4-carboxylic acid"], "SMILES": "C(O)(=O)C=1C2=C(N=C(C1)C3=CC=C(C=C3)C4=CC=CC=C4)C=CC=C2", "physical_data": {"Molecular Weight": "325.36", "Molecular Formula": "C22H15NO2", "Melting Point": "289-290 \u00b0C"}}