{"cas_no": "78686-79-0", "cn_name": "5-\u6eb4-2-\u6c2f\u70df\u9178\u7532\u916f", "en_name": ["Methyl 5-bromo-2-chloronicotinate", "3-Pyridinecarboxylic acid, 5-bromo-2-chloro-, methyl ester", "Methyl 2-chloro-5-bromo-3-pyridinecarboxylate", "5-Bromo-2-chloronicotinic acid methyl ester", "Methyl 5-bromo-2-chloronicotinate", "5-Bromo-2-chloropyridine-3-carboxylic acid methyl ester", "Methyl 5-bromo-2-chloropyridine-3-carboxylate"], "SMILES": "C(OC)(=O)C1=C(Cl)N=CC(Br)=C1", "physical_data": {"Molecular Weight": "250.48", "Molecular Formula": "C7H5BrClNO2", "Melting Point": "48-49 \u00b0C"}}