{"cas_no": "787-84-8", "cn_name": "\u4e8c\u82ef\u7532\u9170\u80bc", "en_name": ["Benzoic acid, 2-benzoylhydrazide", "Benzoic acid, 2-benzoylhydrazide", "Hydrazine, 1,2-dibenzoyl-", "1,2-Dibenzoylhydrazine", "Dibenzoylhydrazine", "N,N\u2032-Dibenzoylhydrazine", "N2-Benzoylbenzoic acid hydrazide", "NSC 2762", "N\u2032-Benzoylbenzohydrazide"], "SMILES": "C(NNC(=O)C1=CC=CC=C1)(=O)C2=CC=CC=C2", "physical_data": {"Molecular Weight": "240.26", "Molecular Formula": "C14H12N2O2", "Melting Point": "241-242 \u00b0C"}}