{"cas_no": "787-07-5", "cn_name": "\u4e01\u4e8c\u9170\u4e01\u4e8c\u9178\u4e8c\u4e59\u916f", "en_name": ["Diethyl succinylsuccinate", "1,4-Cyclohexanedicarboxylic acid, 2,5-dioxo-, 1,4-diethyl ester", "1,4-Cyclohexanedicarboxylic acid, 2,5-dioxo-, diethyl ester", "Diethyl 2,5-dioxo-1,4-cyclohexanedicarboxylate", "2,5-Bis(ethoxycarbonyl)-1,4-cyclohexanedione", "Diethyl succinosuccinate", "Succinylsuccinic acid ethyl ester", "Diethyl succinylsuccinate", "Diethyl 1,4-cyclohexanedione-2,5-dicarboxylate", "Diethyl 1,4-dioxo-2,5-cyclohexanedicarboxylate", "2,5-Dicarbethoxy-1,4-cyclohexanedione", "2,5-Dioxo-1,4-cyclohexanedicarboxylic acid diethyl ester", "NSC 1140", "NSC 130894"], "SMILES": "C(OCC)(=O)C1C(=O)CC(C(OCC)=O)C(=O)C1", "physical_data": {"Molecular Weight": "256.25", "Molecular Formula": "C12H16O6", "Melting Point": "127-128 \u00b0C"}}