{"cas_no": "787-70-2", "cn_name": "\u8054\u82ef\u4e8c\u7532\u9178", "en_name": ["[1,1\u2032-Biphenyl]-4,4\u2032-dicarboxylic acid", "[1,1\u2032-Biphenyl]-4,4\u2032-dicarboxylic acid", "4,4\u2032-Biphenyldicarboxylic acid", "4,4\u2032-Bibenzoic acid", "4,4\u2032-Dicarboxybiphenyl", "p,p\u2032-Diphenic acid", "4,4\u2032-Diphenic acid", "4,4\u2032-Diphenyldicarboxylic acid", "NSC 60016", "4BPA"], "SMILES": "C(O)(=O)C1=CC=C(C=C1)C2=CC=C(C(O)=O)C=C2", "physical_data": {"Molecular Weight": "242.23", "Molecular Formula": "C14H10O4", "Melting Point": "&gt;300 \u00b0C (decomp)"}}