{"cas_no": "78751-80-1", "cn_name": "2-\u6eb4-7-\u53d4\u4e01\u57fa\u8298", "en_name": ["2-Bromo-7-(1,1-dimethylethyl)pyrene", "Pyrene, 2-bromo-7-(1,1-dimethylethyl)-", "2-Bromo-7-(1,1-dimethylethyl)pyrene", "2-Bromo-7-(tert-butyl)pyrene"], "SMILES": "C(C)(C)(C)C=1C=C2C3=C4C(=CC=C3C1)C=C(Br)C=C4C=C2", "physical_data": {"Molecular Weight": "337.25", "Molecular Formula": "C20H17Br", "Melting Point": "141-143 \u00b0C"}}