{"cas_no": "78755-81-4", "cn_name": "\u6c1f\u9a6c\u897f\u5c3c", "en_name": ["Flumazenil", "4H-Imidazo[1,5-a][1,4]benzodiazepine-3-carboxylic acid, 8-fluoro-5,6-dihydro-5-methyl-6-oxo-, ethyl ester", "Ro 15-1788", "Flumazenil", "Anexate", "Flumazepil", "Ro 151788", "Romazicon", "Flumenazil", "Ro 41-8157", "Ro 1722", "Mazicon", "Lanexat", "Ro 15-1788/000", "MeSH ID: D005442"], "SMILES": "C(OCC)(=O)C1=C2N(C=3C(C(=O)N(C)C2)=CC(F)=CC3)C=N1", "physical_data": {"Molecular Weight": "303.29", "Molecular Formula": "C15H14FN3O3", "Melting Point": "201-203 \u00b0C"}}