{"cas_no": "787618-22-8", "cn_name": "2-\u4e8c\u73af\u5df1\u57fa\u78f7-2',6'-\u4e8c\u5f02\u4e19\u6c27\u57fa-1,1'-\u8054\u82ef", "en_name": ["[2\u2032,6\u2032-Bis(1-methylethoxy)[1,1\u2032-biphenyl]-2-yl]dicyclohexylphosphine", "Phosphine, [2\u2032,6\u2032-bis(1-methylethoxy)[1,1\u2032-biphenyl]-2-yl]dicyclohexyl-", "[2\u2032,6\u2032-Bis(1-methylethoxy)[1,1\u2032-biphenyl]-2-yl]dicyclohexylphosphine", "2-(Dicyclohexylphosphino)-2\u2032,6\u2032-isopropoxybiphenyl", "RuPhos", "2-(Dicyclohexylphosphino)-2\u2032,6\u2032-di-isopropoxy-1,1\u2032-biphenyl", "2-(Dicyclohexylphosphino)-2\u2032,6\u2032-diisopropoxybiphenyl", "2-Dicyclohexylphosphino-2\u2032,6\u2032-diisopropoxybiphenyl", "Dicyclohexyl[2-[2,6-di(propan-2-yloxy)phenyl]phenyl]phosphane"], "SMILES": "P(C1=C(C=CC=C1)C2=C(OC(C)C)C=CC=C2OC(C)C)(C3CCCCC3)C4CCCCC4", "physical_data": {"Molecular Weight": "466.64", "Molecular Formula": "C30H43O2P", "Melting Point": "123-124 \u00b0C"}}