{"cas_no": "78790-88-2", "cn_name": "3-\u4e59\u6c27\u57fa\u5f02\u70df\u9178", "en_name": ["3-Ethoxy-4-pyridinecarboxylic acid", "4-Pyridinecarboxylic acid, 3-ethoxy-", "3-Ethoxy-4-pyridinecarboxylic acid", "3-Ethoxyisonicotinic acid"], "SMILES": "C(O)(=O)C=1C(OCC)=CN=CC1", "physical_data": {"Molecular Weight": "167.16", "Molecular Formula": "C8H9NO3", "Melting Point": "141-144 \u00b0C"}}