{"cas_no": "78804-17-8", "cn_name": "\u5c71\u6912\u5b50\u70ef\u9187", "en_name": ["Zeylenol", "5-Cyclohexene-1,2,3,4-tetrol, 2-[(benzoyloxy)methyl]-, 4-benzoate, (1S,2R,3S,4R)-", "5-Cyclohexene-1,2,3,4-tetrol, 2-[(benzoyloxy)methyl]-, 4-benzoate, [1S-(1\u03b1,2\u03b2,3\u03b2,4\u03b1)]-", "Zeylenol", "(-)-Zeylenol"], "SMILES": "C(OC(=O)C1=CC=CC=C1)C2(O)C(O)C(OC(=O)C3=CC=CC=C3)C=CC2O", "physical_data": {"Molecular Weight": "384.38", "Molecular Formula": "C21H20O7", "Melting Point": "131-132 \u00b0C"}}