{"cas_no": "78824-30-3", "cn_name": "\u5c71\u7af9\u5b50\u7d20", "en_name": ["Garcinol (benzophenone)", "Bicyclo[3.3.1]non-3-ene-2,9-dione, 3-(3,4-dihydroxybenzoyl)-4-hydroxy-8,8-dimethyl-1,7-bis(3-methyl-2-buten-1-yl)-5-[(2S)-5-methyl-2-(1-methylethenyl)-4-hexen-1-yl]-, (1R,5R,7R)-", "Bicyclo[3.3.1]non-3-ene-2,9-dione, 3-(3,4-dihydroxybenzoyl)-4-hydroxy-8,8-dimethyl-1,7-bis(3-methyl-2-butenyl)-5-[5-methyl-2-(1-methylethenyl)-4-hexenyl]-, [1R-[1\u03b1,5\u03b1,5(S*),7\u03b2]]-", "Bicyclo[3.3.1]non-3-ene-2,9-dione, 3-(3,4-dihydroxybenzoyl)-4-hydroxy-8,8-dimethyl-1,7-bis(3-methyl-2-butenyl)-5-[(2S)-5-methyl-2-(1-methylethenyl)-4-hexenyl]-, (1R,5R,7R)-", "(1R,5R,7R)-3-(3,4-Dihydroxybenzoyl)-4-hydroxy-8,8-dimethyl-1,7-bis(3-methyl-2-buten-1-yl)-5-[(2S)-5-methyl-2-(1-methylethenyl)-4-hexen-1-yl]bicyclo[3.3.1]non-3-ene-2,9-dione", "Garcinol", "Garcinol (benzophenone)", "Guttiferone F"], "SMILES": "C(C(CC=C(C)C)C(C)=C)C12C(=O)C(CC=C(C)C)(C(=O)C(C(=O)C3=CC(O)=C(O)C=C3)=C1O)C(C)(C)C(CC=C(C)C)C2", "physical_data": {"Molecular Weight": "602.80", "Molecular Formula": "C38H50O6", "Melting Point": "132 \u00b0C"}}