{"cas_no": "789-25-3", "cn_name": "\u4e09\u82ef\u57fa\u7845\u70f7", "en_name": ["Triphenylsilane", "Benzene, 1,1\u2032,1\u2032\u2032-silylidynetris-", "Silane, triphenyl-", "1,1\u2032,1\u2032\u2032-Silylidynetris[benzene]", "Triphenylsilane", "Triphenylhydrosilane", "NSC 12565", "SIT 8665", "LS 6390"], "SMILES": "[SiH](C1=CC=CC=C1)(C2=CC=CC=C2)C3=CC=CC=C3", "physical_data": {"Molecular Weight": "260.41", "Molecular Formula": "C18H16Si", "Boiling Point": "160-165 \u00b0C @ Press: 3 Torr", "Melting Point": "42-44 \u00b0C"}}