{"cas_no": "789-61-7", "cn_name": "6-\u5def\u57fa-2'-\u8131\u6c27\u9e1f\u82f7", "en_name": ["2\u2032-Deoxy-6-thioguanosine", "Guanosine, 2\u2032-deoxy-6-thio-", "9H-Purine-6(1H)-thione, 2-amino-9-(2-deoxy-\u03b2-D-erythro-pentofuranosyl)-", "2\u2032-Deoxy-6-thioguanosine", "Thioguanine deoxyriboside", "2\u2032-Deoxythioguanosine", "2\u2032-Desoxy-6-thioguanosine", "NSC 71261", "\u03b2-Thioguanine deoxyriboside", "2-Amino-9-(2-deoxy-\u03b2-D-erythro-pentofuranosyl)-6-mercaptopurine", "TGdR", "\u03b2-TGdR"], "SMILES": "S=C1C2=C(N(C=N2)C3OC(CO)C(O)C3)NC(N)=N1", "physical_data": {"Molecular Weight": "283.31", "Molecular Formula": "C10H13N5O3S", "Melting Point": "190-192 \u00b0C"}}