{"cas_no": "789-02-6", "cn_name": "O,P'-\u6ef4\u6ef4\u6d95", "en_name": ["o,p\u2032-DDT", "Benzene, 1-chloro-2-[2,2,2-trichloro-1-(4-chlorophenyl)ethyl]-", "Ethane, 1,1,1-trichloro-2-(o-chlorophenyl)-2-(p-chlorophenyl)-", "1-Chloro-2-[2,2,2-trichloro-1-(4-chlorophenyl)ethyl]benzene", "o,p\u2032-DDT", "1,1,1-Trichloro-2-(o-chlorophenyl)-2-(p-chlorophenyl)ethane", "2,4\u2032-DDT", "1-(o-Chlorophenyl)-1-(p-chlorophenyl)-2,2,2-trichloroethane", "2-(2-Chlorophenyl)-2-(4-chlorophenyl)-1,1,1-trichloroethane", "(\u00b1)-o,p\u2032-DDT", "(\u00b1)-1-(o-Chlorophenyl)-1-(p-chlorophenyl)-2,2,2-trichloroethane", "2,4\u2032-Dichlorodiphenyltrichloroethane", "(\u00b1)-o,p\u2032-DDT", "NSC 33446", "NSC 57644", "o,p\u2032-Chlorophenothane", "1-(2-Chlorophenyl)-1-(4-chlorophenyl)-2,2,2-trichloroethane", "2-o-Chlorophenyl-2-p-chlorophenyl-1,1,1-trichloroethane", "o,p\u2032-Dichlorodiphenyltrichloroethane"], "SMILES": "C(C(Cl)(Cl)Cl)(C1=C(Cl)C=CC=C1)C2=CC=C(Cl)C=C2", "physical_data": {"Molecular Weight": "354.49", "Molecular Formula": "C14H9Cl5", "Boiling Point": "190-191 \u00b0C @ Press: 1 Torr", "Melting Point": "74-74.5 \u00b0C"}}