{"cas_no": "78920-10-2", "cn_name": "5-\u7f9f\u57fa-4-\u6b63\u4e19\u57fa-2-\u544b\u5583\u916e", "en_name": ["5-Hydroxy-4-propyl-2(5H)-furanone", "2(5H)-Furanone, 5-hydroxy-4-propyl-", "5-Hydroxy-4-propyl-2(5H)-furanone", "5-Hydroxy-4-propyl-5H-furan-2-one", "2-Hydroxy-3-propyl-2H-furan-5-one"], "SMILES": "C(CC)C=1C(O)OC(=O)C1", "physical_data": {"Molecular Weight": "142.15", "Molecular Formula": "C7H10O3", "Boiling Point": "115 \u00b0C @ Press: 0.01 Torr"}}