{"cas_no": "78967-07-4", "cn_name": "\u83ab\u975e\u4f50\u9178", "en_name": ["Mofezolac", "5-Isoxazoleacetic acid, 3,4-bis(4-methoxyphenyl)-", "3,4-Bis(4-methoxyphenyl)-5-isoxazoleacetic acid", "Mofezolac", "N 22", "[3,4-Bis-(4-methoxyphenyl)isoxazol-5-yl]-acetic acid", "2-[3,4-Bis(4-methoxyphenyl)-1,2-oxazol-5-yl]acetic acid", "2-(3,4-Bis(4-methoxyphenyl)isoxazol-5-yl)aceticacid", "2-(3,4-Bis(4-methoxyphenyl)isoxazol-5-yl)acetic acid"], "SMILES": "C(C(O)=O)C1=C(C(=NO1)C2=CC=C(OC)C=C2)C3=CC=C(OC)C=C3", "physical_data": {"Molecular Weight": "339.34", "Molecular Formula": "C19H17NO5", "Melting Point": "147.5 \u00b0C"}}