{"cas_no": "79-08-3", "cn_name": "\u6eb4\u4e59\u9178", "en_name": ["Bromoacetic acid", "Acetic acid, 2-bromo-", "Acetic acid, bromo-", "2-Bromoacetic acid", "Bromoacetic acid", "Bromoethanoic acid", "Monobromoacetic acid", "Bromoacetate ion", "To NTu", "\u03b1-Bromoacetic acid", "Carboxymethyl bromide", "NSC 141", "2-Bromoethanoic acid", "MBAA"], "SMILES": "C(CBr)(O)=O", "physical_data": {"Molecular Weight": "138.95", "Molecular Formula": "C2H3BrO2", "Boiling Point": "208 \u00b0C", "Melting Point": "50 \u00b0C"}}