{"cas_no": "79-03-8", "cn_name": "\u4e19\u9170\u6c2f", "en_name": ["Propionyl chloride", "Propanoyl chloride", "Propionyl chloride", "Propionic acid chloride", "Chloro ethyl ketone", "NSC 83547", "Propionoyl chloride", "Prorionyl chloride", "Ethyl chloroform"], "SMILES": "C(CC)(Cl)=O", "physical_data": {"Molecular Weight": "92.52", "Molecular Formula": "C3H5ClO", "Boiling Point": "80 \u00b0C", "Melting Point": "-94 \u00b0C"}}