{"cas_no": "79-00-5", "cn_name": "1,1,2-\u4e09\u6c2f\u4e59\u70f7", "en_name": ["1,1,2-Trichloroethane", "Ethane, 1,1,2-trichloro-", "1,1,2-Trichloroethane", "\u03b2-Trichloroethane", "Vinyltrichloride", "1,2,2-Trichloroethane", "\u03b2-T", "Trichloroethane", "NSC 405074", "HCC 140"], "SMILES": "C(CCl)(Cl)Cl", "physical_data": {"Molecular Weight": "133.40", "Molecular Formula": "C2H3Cl3", "Boiling Point": "113.8 \u00b0C @ Press: 760 Torr", "Melting Point": "-36.6 \u00b0C", "Density": "1.4416 g/cm\u00b3 @ Temp: 20 \u00b0C"}}