{"cas_no": "79-06-1", "cn_name": "\u4e19\u70ef\u9170\u80fa", "en_name": ["Acrylamide", "2-Propenamide", "Acrylamide", "Acrylic amide", "Propenamide", "Ethylenecarboxamide", "Vinyl amide", "Bio-Acrylamide 50", "NSC 7785", "DM 206", "A 108465", "Aladdin A 108467", "MeSH ID: D020106"], "SMILES": "C(C=C)(N)=O", "physical_data": {"Molecular Weight": "71.08", "Molecular Formula": "C3H5NO", "Boiling Point": "192.6 \u00b0C", "Melting Point": "84.5 \u00b0C", "Density": "1.122 g/cm\u00b3 @ Temp: 30 \u00b0C"}}