{"cas_no": "79-05-0", "cn_name": "\u4e19\u9170\u80fa", "en_name": ["Propionamide", "Propanamide", "Propionamide", "Propionic acid amide", "Propionic amide", "Propionimidic acid", "Propanimidic acid", "Propylamide", "NSC 38708"], "SMILES": "C(CC)(N)=O", "physical_data": {"Molecular Weight": "73.09", "Molecular Formula": "C3H7NO", "Boiling Point": "213 \u00b0C", "Melting Point": "81.3 \u00b0C", "Density": "1.010 g/cm\u00b3 @ Temp: 20 \u00b0C"}}