{"cas_no": "79-09-4", "cn_name": "\u4e19\u9178", "en_name": ["Propionic acid", "Propanoic acid", "Propionic acid", "Carboxyethane", "Ethylformic acid", "Metacetonic acid", "Methylacetic acid", "Prozoin", "Pseudoacetic acid", "Ethanecarboxylic acid", "Luprosil", "MonoProp", "Antischim B", "Propkorn", "Propcorn", "Adofeed", "Toxi-Check"], "SMILES": "C(CC)(O)=O", "physical_data": {"Molecular Weight": "74.08", "Molecular Formula": "C3H6O2", "Boiling Point": "141.1 \u00b0C", "Melting Point": "-20.7 \u00b0C", "Density": "0.9930 g/cm\u00b3 @ Temp: 20 \u00b0C"}}