{"cas_no": "79-07-2", "cn_name": "\u6c2f\u4e59\u9170\u80fa", "en_name": ["Chloroacetamide", "Acetamide, 2-chloro-", "Acetamide, \u03b1-chloro-", "2-Chloroacetamide", "Chloracetamide", "Chloroacetamide", "\u03b1-Chloroacetamide", "Microcide", "Mergal AF", "KM 101", "NSC 54286", "NSC 8408", "KM 101 (fungicide)"], "SMILES": "C(CCl)(N)=O", "physical_data": {"Molecular Weight": "93.51", "Molecular Formula": "C2H4ClNO", "Boiling Point": "225 \u00b0C", "Melting Point": "120 \u00b0C", "Density": "1.60 g/cm\u00b3"}}