{"cas_no": "79-02-7", "cn_name": "\u4e8c\u6c2f\u4e59\u919b", "en_name": ["Dichloroacetaldehyde", "Acetaldehyde, 2,2-dichloro-", "Acetaldehyde, dichloro-", "2,2-Dichloroacetaldehyde", "Dichloroacetaldehyde", "Chloroaldehyde", "\u03b1,\u03b1-Dichloroacetaldehyde", "NSC 5207"], "SMILES": "C(C=O)(Cl)Cl", "physical_data": {"Molecular Weight": "112.94", "Molecular Formula": "C2H2Cl2O", "Boiling Point": "89.2 \u00b0C", "Melting Point": "-37.6--37.4 \u00b0C", "Density": "1.436 g/cm\u00b3 @ Temp: 25 \u00b0C"}}