{"cas_no": "79-04-9", "cn_name": "\u6c2f\u4e59\u9170\u6c2f", "en_name": ["Chloroacetyl chloride", "Acetyl chloride, 2-chloro-", "Acetyl chloride, chloro-", "2-Chloroacetyl chloride", "Chloroacetyl chloride", "Chloracetyl chloride", "Monochloroacetyl chloride", "Chloroacetic chloride", "Chloroacetic acid chloride", "Chloroethanoyl chloride", "\u03b1-Chloroacetic chloride", "9: PN: WO2007101224 PAGE: 36 claimed sequence", "Chloro (chloromethyl) ketone"], "SMILES": "C(CCl)(Cl)=O", "physical_data": {"Molecular Weight": "112.94", "Molecular Formula": "C2H2Cl2O", "Boiling Point": "106 \u00b0C", "Melting Point": "-21.77 \u00b0C", "Density": "1.4202 g/cm\u00b3 @ Temp: 20 \u00b0C"}}