{"cas_no": "79-01-6", "cn_name": "\u4e09\u6c2f\u4e59\u70ef", "en_name": ["Trichloroethylene", "Ethene, 1,1,2-trichloro-", "Ethylene, trichloro-", "Ethene, trichloro-", "1,1,2-Trichloroethene", "Algylen", "Chlorylen", "Ethinyl trichloride", "Ethylene trichloride", "Germalgene", "Threthylen", "Threthylene", "Trethylene", "Trichloran", "Trichloren", "Trichloroethene", "Trichloroethylene", "1,1,2-Trichloroethylene", "Trilene", "Trimar", "Westrosol", "Triclene", "Anamenth", "Fluate", "Densinfluat", "Narcogen", "Trilen", "Chlorilen", "Narkosoid", "Trielin", "Trieline", "Trielene", "TCE", "F 1120", "Triklone N", "R 1120", "TCE (chlorohydrocarbon)", "LPS HDX Heavy Duty Degreaser", "HCO 1120", "MeSH ID: D014241"], "SMILES": "C(=CCl)(Cl)Cl", "physical_data": {"Molecular Weight": "131.39", "Molecular Formula": "C2HCl3", "Boiling Point": "87.2 \u00b0C", "Melting Point": "-84.7 \u00b0C", "Density": "1.4642 g/cm\u00b3 @ Temp: 20 \u00b0C"}}