{"cas_no": "79-14-1", "cn_name": "\u4e59\u9187\u9178", "en_name": ["Glycolic acid", "Acetic acid, 2-hydroxy-", "Glycolic acid", "Acetic acid, hydroxy-", "2-Hydroxyacetic acid", "Hydroxyacetic acid", "Hydroxyethanoic acid", "\u03b1-Hydroxyacetic acid", "Glycocide", "GlyPure", "GlyPure 70", "NSC 166", "2-Hydroxyethanoic acid", "GlyPure 99", "YST-GCS"], "SMILES": "C(CO)(O)=O", "physical_data": {"Molecular Weight": "76.05", "Molecular Formula": "C2H4O3", "Boiling Point": "104 \u00b0C @ Press: 10 Torr", "Melting Point": "80 \u00b0C", "Density": "1.49 g/cm\u00b3 @ Temp: 25 \u00b0C"}}