{"cas_no": "79-11-8", "cn_name": "\u6c2f\u4e59\u9178", "en_name": ["Chloroacetic acid", "Acetic acid, 2-chloro-", "Acetic acid, chloro-", "2-Chloroacetic acid", "Chloracetic acid", "Chloroacetic acid", "Chloroethanoic acid", "\u03b1-Chloroacetic acid", "Monochloroacetic acid", "Monochloroethanoic acid", "MKhUK", "MCA", "NSC 142", "NSC 42970", "MCAA"], "SMILES": "C(CCl)(O)=O", "physical_data": {"Molecular Weight": "94.50", "Molecular Formula": "C2H3ClO2", "Boiling Point": "189 \u00b0C", "Melting Point": "63 \u00b0C", "Density": "1.4043 g/cm\u00b3 @ Temp: 40 \u00b0C"}}