{"cas_no": "79-16-3", "cn_name": "N-\u7532\u57fa\u4e59\u9170\u80fa", "en_name": ["N-Methylacetamide", "Acetamide, N-methyl-", "N-Methylacetamide", "Methylacetamide", "Monomethylacetamide", "NSC 747", "ACE-NME"], "SMILES": "C(NC)(C)=O", "physical_data": {"Molecular Weight": "73.09", "Molecular Formula": "C3H7NO", "Boiling Point": "205 \u00b0C", "Melting Point": "28 \u00b0C", "Density": "0.9371 g/cm\u00b3 @ Temp: 25 \u00b0C"}}