{"cas_no": "79-10-7", "cn_name": "\u4e19\u70ef\u9178", "en_name": ["Acrylic acid", "2-Propenoic acid", "Acrylic acid", "Acroleic acid", "Ethylenecarboxylic acid", "Vinylformic acid", "Propenoic acid", "NSC 4765", "LX 300", "LX 300 (crosslinking agent)", "B 60-1", "HF 3050", "Liroudan FR-RV", "Relugan FR-RV", "RA 238", "TM 1202", "Acrylic Acid Glacial", "BF 9011", "YLH 023"], "SMILES": "C(C=C)(O)=O", "physical_data": {"Molecular Weight": "72.06", "Molecular Formula": "C3H4O2", "Boiling Point": "141 \u00b0C @ Press: 760 Torr", "Melting Point": "12.3 \u00b0C", "Density": "1.0511 g/cm\u00b3 @ Temp: 20 \u00b0C"}}