{"cas_no": "79-15-2", "cn_name": "N-\u6eb4\u4ee3\u4e59\u9170\u80fa", "en_name": ["N-Bromoacetamide", "Acetamide, N-bromo-", "N-Bromoacetamide", "Acetobromamide", "NBA"], "SMILES": "C(NBr)(C)=O", "physical_data": {"Molecular Weight": "137.96", "Molecular Formula": "C2H4BrNO", "Boiling Point": "127-130 \u00b0C @ Press: 16 Torr", "Melting Point": "103.5 \u00b0C"}}