{"cas_no": "79-19-6", "cn_name": "\u6c28\u57fa\u786b\u8132", "en_name": ["Thiosemicarbazide", "Hydrazinecarbothioamide", "Semicarbazide, thio-", "N-Aminothiourea", "TSC", "TSZ", "Isothiosemicarbazide", "Thiosemicarbazide", "Thiocarbamoylhydrazine", "Thiasemicarbazide", "1-Aminothiourea", "2-Thiosemicarbazide", "1-Amino-2-thiourea", "Aminohydrazinomethane-1-thione", "NSC 2213", "NSC 31792", "Aminothiourea", "Carbamothioic acid, hydrazide", "Hydrazinesulfinamide", "Hydrazincarbothioamide"], "SMILES": "C(NN)(N)=S", "physical_data": {"Molecular Weight": "91.14", "Molecular Formula": "CH5N3S", "Melting Point": "183 \u00b0C"}}