{"cas_no": "79-22-1", "cn_name": "\u6c2f\u7532\u9178\u7532\u916f", "en_name": ["Methyl chloroformate", "Carbonochloridic acid, methyl ester", "Formic acid, chloro-, methyl ester", "Chloroformic acid methyl ester", "Methyl chlorocarbonate", "Methyl chloroformate", "Chlorocarbonic acid methyl ester", "Methoxycarbonyl chloride", "Methyl carbonochloridate", "Chloro(methoxy)methanone"], "SMILES": "C(OC)(Cl)=O", "physical_data": {"Molecular Weight": "94.50", "Molecular Formula": "C2H3ClO2", "Boiling Point": "71.0 \u00b0C", "Melting Point": "-61 \u00b0C", "Density": "1.223 g/cm\u00b3 @ Temp: 20 \u00b0C"}}