{"cas_no": "79-29-8", "cn_name": "2,3-\u4e8c\u7532\u57fa\u4e01\u70f7", "en_name": ["2,3-Dimethylbutane", "Butane, 2,3-dimethyl-", "2,3-Dimethylbutane", "Biisopropyl", "Diisopropyl", "1,1,2,2-Tetramethylethane", "NSC 24837"], "SMILES": "C(C(C)C)(C)C", "physical_data": {"Molecular Weight": "86.18", "Molecular Formula": "C6H14", "Boiling Point": "57.9 \u00b0C @ Press: 760 Torr", "Melting Point": "-128.8 \u00b0C", "Density": "0.6616 g/cm\u00b3 @ Temp: 20 \u00b0C"}}