{"cas_no": "79-27-6", "cn_name": "\u56db\u6eb4\u4e59\u70f7", "en_name": ["1,1,2,2-Tetrabromoethane", "Ethane, 1,1,2,2-tetrabromo-", "1,1,2,2-Tetrabromoethane", "Acetylene tetrabromide", "Muthmann's liquid", "TBE", "1,1,2,2-Tetrabromoethylene", "NSC 406889"], "SMILES": "C(C(Br)Br)(Br)Br", "physical_data": {"Molecular Weight": "345.65", "Molecular Formula": "C2H2Br4", "Boiling Point": "151 \u00b0C @ Press: 54 Torr", "Melting Point": "0 \u00b0C", "Density": "2.9656 g/cm\u00b3 @ Temp: 20 \u00b0C"}}