{"cas_no": "79-20-9", "cn_name": "\u4e59\u9178\u7532\u916f", "en_name": ["Methyl acetate", "Acetic acid, methyl ester", "Methyl acetate", "Devoton", "Tereton", "Methyl ethanoate", "NSC 405071"], "SMILES": "C(OC)(C)=O", "physical_data": {"Molecular Weight": "74.08", "Molecular Formula": "C3H6O2", "Boiling Point": "56.8 \u00b0C", "Melting Point": "-98 \u00b0C", "Density": "0.9342 g/cm\u00b3 @ Temp: 20 \u00b0C"}}