{"cas_no": "79-24-3", "cn_name": "\u785d\u57fa\u4e59\u70f7", "en_name": ["Nitroethane", "Ethane, nitro-", "Nitroethane", "NSC 8800"], "SMILES": "N(CC)(=O)=O", "physical_data": {"Molecular Weight": "75.07", "Molecular Formula": "C2H5NO2", "Boiling Point": "114-115 \u00b0C", "Melting Point": "-89.5 \u00b0C", "Density": "1.0448 g/cm\u00b3 @ Temp: 25 \u00b0C"}}