{"cas_no": "79-21-0", "cn_name": "\u8fc7\u6c27\u4e59\u9178", "en_name": ["Peracetic acid", "Ethaneperoxoic acid", "Peroxyacetic acid", "Acetyl hydroperoxide", "Hydroperoxide, acetyl", "Peracetic acid", "Osbon AC", "Monoperacetic acid", "Peroxoacetic acid", "Acetic peroxide", "Desoxon 1", "Proxitane 4002", "Estosteril", "Perethanoic acid", "Proxitane S", "Proxitane 12A", "Proxitane 1507", "Oxypel", "LCAP", "Ozonit", "Oxigreen 010", "Tsunami 100", "Tsunami", "Proxitane 15", "Peresal", "Peraclean Ocean", "Perasafe", "Agrosteril 110", "Steridial P", "Percidin 535", "Acecide", "Proxitane 5", "Proxitane 1512", "Agrosteril 110SL", "Synergize P 22", "Incimaxx Aqua S", "PES 15/23", "Steris 20", "Tsunami 200", "EnviroSan", "Proxitane Alfa", "Peraclean 35", "Redoxx 60", "Peraclean 15", "CaiBingLing", "Paraclean", "Persan MP 2J", "MeSH ID: D010463"], "SMILES": "C(OO)(C)=O", "physical_data": {"Molecular Weight": "76.05", "Molecular Formula": "C2H4O3", "Boiling Point": "105 \u00b0C", "Melting Point": "-0.2 \u00b0C", "Density": "1.226 g/cm\u00b3 @ Temp: 15 \u00b0C"}}