{"cas_no": "79-38-9", "cn_name": "\u4e09\u6c1f\u6c2f\u4e59\u70ef", "en_name": ["Chlorotrifluoroethylene", "Ethene, 1-chloro-1,2,2-trifluoro-", "Ethylene, chlorotrifluoro-", "Ethene, chlorotrifluoro-", "1-Chloro-1,2,2-trifluoroethene", "Chlorotrifluoroethylene", "Genetron 1113", "Monochlorotrifluoroethylene", "Trifluorochloroethylene", "Trifluoromonochloroethylene", "Trifluorovinyl chloride", "Trithene", "Chlorotrifluoroethene", "1-Chloro-1,2,2-trifluoroethylene", "2-Chloro-1,1,2-trifluoroethylene", "Trifluorochloroethene", "F 1113", "R 1113", "2-Chloro-1,1,2-trifluoroethene", "CFC 1113", "CFO 1113", "HCFO 1113"], "SMILES": "C(=C(F)F)(Cl)F", "physical_data": {"Molecular Weight": "116.47", "Molecular Formula": "C2ClF3", "Boiling Point": "-27.9 \u00b0C", "Melting Point": "-158.2 \u00b0C", "Density": "1.3 g/cm\u00b3"}}