{"cas_no": "79-39-0", "cn_name": "\u7532\u57fa\u4e19\u70ef\u9170\u80fa", "en_name": ["Methacrylamide", "2-Propenamide, 2-methyl-", "Methacrylamide", "2-Methyl-2-propenamide", "Methacrylic acid amide", "Methacrylic amide", "2-Methylpropenamide", "2-Methylacrylamide", "NSC 23772", "NSC 24147"], "SMILES": "C(C(N)=O)(C)=C", "physical_data": {"Molecular Weight": "85.10", "Molecular Formula": "C4H7NO", "Melting Point": "105 \u00b0C"}}