{"cas_no": "79-35-6", "cn_name": "1,1-\u4e8c\u6c2f-2,2-\u4e8c\u6c1f\u4e59\u70ef", "en_name": ["1,1-Dichloro-2,2-difluoroethene", "Ethene, 1,1-dichloro-2,2-difluoro-", "Ethylene, 1,1-dichloro-2,2-difluoro-", "1,1-Dichloro-2,2-difluoroethene", "1,1-Difluoro-2,2-dichloroethylene", "Genetron 1112a", "1,1-Dichlorodifluoroethylene", "1,1-Dichloro-2,2-difluoroethylene", "1,1-Difluoro-2,2-dichloroethene", "CFC 1112a", "F 1112a", "R 1112a"], "SMILES": "C(=C(F)F)(Cl)Cl", "physical_data": {"Molecular Weight": "132.92", "Molecular Formula": "C2Cl2F2", "Boiling Point": "19 \u00b0C", "Melting Point": "-116 \u00b0C"}}