{"cas_no": "79-36-7", "cn_name": "\u4e8c\u6c2f\u4e59\u9170\u6c2f", "en_name": ["Dichloroacetyl chloride", "Acetyl chloride, 2,2-dichloro-", "Acetyl chloride, dichloro-", "2,2-Dichloroacetyl chloride", "Dichloracetyl chloride", "Dichloroethanoyl chloride", "Dichloroacetyl chloride", "\u03b1,\u03b1-Dichloroacetyl chloride", "Dichloroacetic acid chloride"], "SMILES": "C(C(Cl)=O)(Cl)Cl", "physical_data": {"Molecular Weight": "147.39", "Molecular Formula": "C2HCl3O", "Boiling Point": "107-108 \u00b0C @ Press: 760 Torr", "Melting Point": "&lt;25 \u00b0C", "Density": "1.5315 g/cm\u00b3 @ Temp: 16 \u00b0C"}}