{"cas_no": "79-34-5", "cn_name": "1,1,2,2-\u56db\u6c2f\u4e59\u70f7", "en_name": ["1,1,2,2-Tetrachloroethane", "Ethane, 1,1,2,2-tetrachloro-", "1,1,2,2-Tetrachloroethane", "Acetylene tetrachloride", "Bonoform", "Cellon", "sym-Tetrachloroethane", "Tetrachloroethane", "s-Tetrachloroethane", "1,1,2,2-Tetrachlorethane", "1,1,2,2-TCE", "TCA", "F 130 (halocarbon)", "F 130", "NSC 60912", "R 130 (refrigerant)", "HCC 130"], "SMILES": "C(C(Cl)Cl)(Cl)Cl", "physical_data": {"Molecular Weight": "167.85", "Molecular Formula": "C2H2Cl4", "Boiling Point": "146 \u00b0C", "Melting Point": "-43.8 \u00b0C", "Density": "1.5953 g/cm\u00b3 @ Temp: 20 \u00b0C"}}