{"cas_no": "79-30-1", "cn_name": "\u5f02\u4e01\u9170\u6c2f", "en_name": ["Isobutyryl chloride", "Propanoyl chloride, 2-methyl-", "Isobutyryl chloride", "2-Methylpropanoyl chloride", "Isobutyric acid chloride", "2-Methylpropionyl chloride", "Isobutyroyl chloride", "Isobutanoyl chloride", "\u03b1-Methylpropionyl chloride", "Dimethylacetyl chloride", "Chloro isopropyl ketone", "2-Methylpropanoic acid chloride", "2,2-Dimethylacetyl chloride", "i-Butyryl chloride", "Isopropanecarbonyl chloride", "2-Propylcarbonyl chloride"], "SMILES": "C(C(Cl)=O)(C)C", "physical_data": {"Molecular Weight": "106.55", "Molecular Formula": "C4H7ClO", "Boiling Point": "92 \u00b0C", "Melting Point": "-90 \u00b0C", "Density": "1.0084 g/cm\u00b3 @ Temp: 25 \u00b0C"}}