{"cas_no": "79-37-8", "cn_name": "\u8349\u9170\u6c2f", "en_name": ["Oxalyl chloride", "Ethanedioyl dichloride", "Oxalyl chloride", "Oxalic acid dichloride", "Oxaloyl chloride", "Oxalyl dichloride", "Oxalic dichloride", "Ethanedioyl chloride", "Oxalic acid chloride", "Oxaloyl dichloride", "Dichlorooxalic acid"], "SMILES": "C(C(Cl)=O)(Cl)=O", "physical_data": {"Molecular Weight": "126.93", "Molecular Formula": "C2Cl2O2", "Boiling Point": "63.5 \u00b0C", "Melting Point": "-16 \u00b0C"}}