{"cas_no": "79-31-2", "cn_name": "\u5f02\u4e01\u9178", "en_name": ["Isobutyric acid", "Propanoic acid, 2-methyl-", "Isobutyric acid", "2-Methylpropanoic acid", "Dimethylacetic acid", "Isopropylformic acid", "\u03b1-Methylpropionic acid", "2-Methylpropionic acid", "iso-Butyric acid", "Isobutanoic acid", "\u03b1-Methylpropanoic acid", "i-Butyric acid", "NSC 62780", "2-Propanecarboxylic acid", "2-Methyl-1-propanoic acid", "Isobutyrates", "67: PN: WO2021258073 SEQID: 68 claimed sequence", "MeSH ID: D058610"], "SMILES": "C(C(O)=O)(C)C", "physical_data": {"Molecular Weight": "88.11", "Molecular Formula": "C4H8O2", "Boiling Point": "152-155 \u00b0C @ Press: 760 Torr", "Melting Point": "-47 \u00b0C", "Density": "0.950 g/cm\u00b3 @ Temp: 20 \u00b0C"}}