{"cas_no": "79-33-4", "cn_name": "L-\u4e73\u9178", "en_name": ["L-Lactic acid", "Propanoic acid, 2-hydroxy-, (2S)-", "Lactic acid, L-", "Propanoic acid, 2-hydroxy-, (S)-", "(2S)-2-Hydroxypropanoic acid", "d-Lactic acid", "Paralactic acid", "Sarcolactic acid", "(S)-(+)-Lactic acid", "(+)-Lactic acid", "L-Lactic acid", "(S)-Lactic acid", "L-(+)-\u03b1-Hydroxypropionic acid", "Espiritin", "Tisulac", "(S)-2-Hydroxypropionic acid", "L-(+)-Lactic acid", "(S)-2-Hydroxypropanoic acid", "PH 90", "PURAC", "PURAC Powder H 60", "HiPure 90", "(2S)-2-Hydroxypropanoic acid", "Purac FCC 50", "Purac Sanilac", "Purac Sanilac 80"], "SMILES": "C(C(O)=O)(C)O", "physical_data": {"Molecular Weight": "90.08", "Molecular Formula": "C3H6O3", "Melting Point": "53 \u00b0C"}}