{"cas_no": "79-41-4", "cn_name": "\u7532\u57fa\u4e19\u70ef\u9178", "en_name": ["Methacrylic acid", "2-Propenoic acid, 2-methyl-", "Methacrylic acid", "2-Methyl-2-propenoic acid", "\u03b1-Methylacrylic acid", "Methylacrylic acid", "2-Methylacrylic acid", "\u03b1-Methacrylic acid", "GE 110", "Loctite 3298", "Norsocryl MAA", "NSC 7393", "Light Ester A", "Acryester MAA", "MAA", "GE 100", "Isobutenic acid", "Methacrylate", "1-Methyl-3-(4-vinylbenzyl)imidazolium chloride-methacrylic acid copolymer", "CX 192", "Visiomer GMAA", "BMA 530", "MeSH ID: D008689"], "SMILES": "C(C(O)=O)(C)=C", "physical_data": {"Molecular Weight": "86.09", "Molecular Formula": "C4H6O2", "Boiling Point": "163 \u00b0C @ Press: 760 Torr", "Melting Point": "16 \u00b0C", "Density": "1.0153 g/cm\u00b3 @ Temp: 20 \u00b0C"}}