{"cas_no": "79-40-3", "cn_name": "\u4e8c\u786b\u4ee3\u8349\u9170\u6c28", "en_name": ["Dithiooxamide", "Ethanedithioamide", "Oxamide, dithio-", "Dithiooxamide", "Rubeane", "Rubeanic acid", "Hydrorubeanic acid", "Rubean", "Dithiooxalic acid diamide", "NSC 1893", "1,2-Ethanedisulfenamide", "D 0957"], "SMILES": "C(C(N)=S)(N)=S", "physical_data": {"Molecular Weight": "120.20", "Molecular Formula": "C2H4N2S2", "Melting Point": "170 \u00b0C (decomp)"}}