{"cas_no": "79-42-5", "cn_name": "\u786b\u4ee3\u4e73\u9178", "en_name": ["(\u00b1)-2-Mercaptopropionic acid", "Propanoic acid, 2-mercapto-", "Propionic acid, 2-mercapto-", "Propionic acid, \u03b1-mercapto-", "2-Mercaptopropanoic acid", "\u03b1-Mercaptopropanoic acid", "\u03b1-Mercaptopropionic acid", "2-Mercaptopropionic acid", "2-Thiolactic acid", "Mercaptopropionic acid", "Thiolactic acid", "(\u00b1)-2-Mercaptopropionic acid", "Mercaptolactic acid", "2-Sulfanylpropanoic acid"], "SMILES": "C(C(O)=O)(C)S", "physical_data": {"Molecular Weight": "106.14", "Molecular Formula": "C3H6O2S", "Boiling Point": "102 \u00b0C @ Press: 16 Torr", "Melting Point": "12 \u00b0C", "Density": "1.193 g/cm\u00b3 @ Temp: 19.2 \u00b0C"}}