{"cas_no": "79-46-9", "cn_name": "2-\u785d\u57fa\u4e19\u70f7", "en_name": ["2-Nitropropane", "Propane, 2-nitro-", "2-Nitropropane", "Isonitropropane", "Dimethylnitromethane", "NSC 5369", "1-Methylnitroethane"], "SMILES": "C(N(=O)=O)(C)C", "physical_data": {"Molecular Weight": "89.09", "Molecular Formula": "C3H7NO2", "Boiling Point": "120.3 \u00b0C @ Press: 760 Torr", "Melting Point": "-93 \u00b0C", "Density": "0.9821 g/cm\u00b3 @ Temp: 25 \u00b0C"}}