{"cas_no": "79-43-6", "cn_name": "\u4e8c\u6c2f\u4e59\u9178", "en_name": ["Dichloroacetic acid", "Acetic acid, 2,2-dichloro-", "Acetic acid, dichloro-", "2,2-Dichloroacetic acid", "Dichloracetic acid", "Dichlorethanoic acid", "Dichloroacetic acid", "DKhUK", "DCA", "Dichloroethanoic acid", "DCA (acid)", "NSC 2654", "DCAA", "MeSH ID: D003999"], "SMILES": "C(C(O)=O)(Cl)Cl", "physical_data": {"Molecular Weight": "128.94", "Molecular Formula": "C2H2Cl2O2", "Boiling Point": "193-194 \u00b0C", "Melting Point": "13.5 \u00b0C", "Density": "1.563 g/cm\u00b3 @ Temp: 20 \u00b0C"}}