{"cas_no": "79-44-7", "cn_name": "\u4e8c\u7532\u6c28\u57fa\u7532\u9170\u6c2f", "en_name": ["Dimethylcarbamoyl chloride", "Carbamic chloride, N,N-dimethyl-", "Carbamic chloride, dimethyl-", "Carbamoyl chloride, dimethyl-", "N,N-Dimethylcarbamic chloride", "Dimethylcarbamyl chloride", "N,N-Dimethylcarbamyl chloride", "N,N-Dimethylcarbamoyl chloride", "(Dimethylamino)carbonyl chloride", "Dimethylcarbamic acid chloride", "Dimethylcarbamoyl chloride", "N,N-Dimethylcarbamidoyl chloride", "(N,N-Dimethylamino)carbonyl chloride", "N,N-Dimethylcarbamic acid chloride", "Dimethylchloroformamide", "N,N-Dimethylchloroformamide", "NSC 122671", "1-Chloro-N,N-dimethylformamide"], "SMILES": "C(N(C)C)(Cl)=O", "physical_data": {"Molecular Weight": "107.54", "Molecular Formula": "C3H6ClNO", "Boiling Point": "167 \u00b0C", "Melting Point": "-33 \u00b0C", "Density": "1.168 g/cm\u00b3 @ Temp: 25 \u00b0C"}}