{"cas_no": "79-51-6", "cn_name": "1,3-\u4e8c\u6c1f\u56db\u6c2f\u4e19\u916e", "en_name": ["1,1,3,3-Tetrachloro-1,3-difluoro-2-propanone", "2-Propanone, 1,1,3,3-tetrachloro-1,3-difluoro-", "1,1,3,3-Tetrachloro-1,3-difluoro-2-propanone", "Difluorotetrachloroacetone", "Tetrachlorodifluoroacetone", "NSC 42760", "1,3-Difluorotetrachloroacetone"], "SMILES": "C(C(Cl)(Cl)F)(C(Cl)(Cl)F)=O", "physical_data": {"Molecular Weight": "231.84", "Molecular Formula": "C3Cl4F2O", "Boiling Point": "118-122 \u00b0C"}}