{"cas_no": "79-55-0", "cn_name": "\u4e94\u7532\u57fa\u54cc\u5576", "en_name": ["1,2,2,6,6-Pentamethylpiperidine", "Piperidine, 1,2,2,6,6-pentamethyl-", "1,2,2,6,6-Pentamethylpiperidine", "M&", "B 4486", "Pempidine", "Pyrilene", "N-Methyl-2,2,6,6-tetramethylpiperidine", "2,2,6,6,N-Pentamethylpiperidine", "N,2,2,6,6-Pentamethylpiperidine", "MeSH ID: D010393"], "SMILES": "CN1C(C)(C)CCCC1(C)C", "physical_data": {"Molecular Weight": "155.28", "Molecular Formula": "C10H21N", "Boiling Point": "147 \u00b0C", "Melting Point": "&lt;25 \u00b0C"}}