{"cas_no": "79-52-7", "cn_name": "1,1,3-\u4e09\u6c2f\u4e09\u6c1f\u4e19\u916e", "en_name": ["1,1,3-Trichlorotrifluoroacetone", "2-Propanone, 1,1,3-trichloro-1,3,3-trifluoro-", "1,1,3-Trichloro-1,3,3-trifluoro-2-propanone", "1,1,3-Trichlorotrifluoroacetone", "1,1,3-Trifluoro-1,3,3-trichloroacetone", "1,3,3-Trichloro-1,1,3-trifluoroacetone", "1,1,3-Trichloro-1,3,3-trifluoroacetone", "1,1,3-Trichlorotrifluoropropan-2-one", "NSC 73469"], "SMILES": "C(C(Cl)(Cl)F)(C(Cl)(F)F)=O", "physical_data": {"Molecular Weight": "215.39", "Molecular Formula": "C3Cl3F3O", "Boiling Point": "84.2 \u00b0C"}}