{"cas_no": "79-53-8", "cn_name": "CHLOROPENTAFLUOROACETONE", "en_name": ["1-Chloro-1,1,3,3,3-pentafluoro-2-propanone", "2-Propanone, 1-chloro-1,1,3,3,3-pentafluoro-", "1-Chloro-1,1,3,3,3-pentafluoro-2-propanone", "Chloropentafluoro-2-propanone", "Chloropentafluoroacetone", "1,1,1,3,3-Pentafluoro-3-chloroacetone", "Pentafluorochloroacetone", "\u03b1-Chloroperfluoroacetone"], "SMILES": "C(C(Cl)(F)F)(C(F)(F)F)=O", "physical_data": {"Molecular Weight": "182.48", "Molecular Formula": "C3ClF5O", "Boiling Point": "8 \u00b0C", "Melting Point": "-133 \u00b0C"}}