{"cas_no": "79-50-5", "cn_name": "DL-\u6cdb\u9170\u5185\u916f", "en_name": ["(\u00b1)-Pantolactone", "2(3H)-Furanone, dihydro-3-hydroxy-4,4-dimethyl-", "2(3H)-Furanone, dihydro-3-hydroxy-4,4-dimethyl-, (\u00b1)-", "Butyric acid, \u03b1,\u03b3-dihydroxy-\u03b2,\u03b2-dimethyl-, \u03b3-lactone", "Dihydro-3-hydroxy-4,4-dimethyl-2(3H)-furanone", "DL-Pantolactone", "(\u00b1)-Pantolactone", "DL-Pantoic acid \u03b3-lactone", "dl-Pantoyl lactone", "DL-Pantoyl lactone", "(RS)-Pantolactone", "(\u00b1)-Pantoyl lactone", "(\u00b1)-2-Hydroxy-3,3-dimethyl-\u03b3-butyrolactone", "\u03b1-Oxy-\u03b2,\u03b2-dimethyl-\u03b3-butyrolactone", "2,4-Dihydroxy-3,3-dimethylbutanoic acid \u03b3-lactone", "2,4-Dihydroxy-3,3-dimethylbutyric acid \u03b3-lactone", "2-Hydroxy-3,3-dimethylbutan-4-olide", "2-Hydroxy-3,3-dimethyl-\u03b3-butyrolactone", "3-Hydroxy-4,4-dimethyl-2-oxotetrahydrofuran", "3-Hydroxy-4,4-dimethyl-2-tetrahydrofuranone", "3-Hydroxydihydro-4,4-dimethyl-2(3H)-furanone", "NSC 135788", "NSC 5926", "\u03b1-Hydroxy-\u03b2,\u03b2-dimethyl-\u03b3-butyrolactone", "3-Hydroxy-4,4-dimethyldihydrofuran-2(3H)-one", "3-Hydroxy-4,4-dimethyl-dihydro-furan-2-one", "3-Hydroxy-4,4-dimethyloxolan-2-one"], "SMILES": "OC1C(C)(C)COC1=O", "physical_data": {"Molecular Weight": "130.14", "Molecular Formula": "C6H10O3", "Boiling Point": "120 \u00b0C @ Press: 11 Torr", "Melting Point": "91-92 \u00b0C"}}