{"cas_no": "79-57-2", "cn_name": "\u571f\u9709\u7d20", "en_name": ["Oxytetracycline", "2-Naphthacenecarboxamide, 4-(dimethylamino)-1,4,4a,5,5a,6,11,12a-octahydro-3,5,6,10,12,12a-hexahydroxy-6-methyl-1,11-dioxo-, (4S,4aR,5S,5aR,6S,12aS)-", "2-Naphthacenecarboxamide, 4-(dimethylamino)-1,4,4a,5,5a,6,11,12a-octahydro-3,5,6,10,12,12a-hexahydroxy-6-methyl-1,11-dioxo-", "2-Naphthacenecarboxamide, 4-(dimethylamino)-1,4,4a,5,5a,6,11,12a-octahydro-3,5,6,10,12,12a-hexahydroxy-6-methyl-1,11-dioxo-, [4S-(4\u03b1,4a\u03b1,5\u03b1,5a\u03b1,6\u03b2,12a\u03b1)]-", "(4S,4aR,5S,5aR,6S,12aS)-4-(Dimethylamino)-1,4,4a,5,5a,6,11,12a-octahydro-3,5,6,10,12,12a-hexahydroxy-6-methyl-1,11-dioxo-2-naphthacenecarboxamide", "Biostat PA", "5-Hydroxytetracycline", "OTC", "Oxymykoin", "Oxyterracyne", "Oxytetracycline", "Riomitsin", "Ryomycin", "Terrafungine", "Oxytetracycline amphoteric", "Terramycin", "Tetran", "Oxyterracine", "Oxitetracyclin", "Oxyterracin", "Vendarcin", "Macocyn", "Oxytetracyclin", "Oxy-Kesso-Tetra", "Adamycin", "Proteroxyna", "Berkmycen", "NSC 9169", "Solkaciclina", "Oksisyklin", "Stevacin", "Fanterrin", "Oxymycin", "Geomycin (Streptomyces vimosus)", "Lenocycline", "Oxypam", "Liquamycin", "Dabicycline", "OTC (antibiotic)", "Teravit", "Ursocycline", "Liquamycin LA 200", "Tarosin", "Tarocyn", "Ursocyclin", "Geomycin", "Antibiotic TM 25", "Terramycin Q 50", "Mycoshield TMQTHC 20", "LA 200", "Geotilin", "TM 50", "Oxyject LA", "Stecsolin", "Clinimycin", "OXTC", "Oxydon", "Oxatets", "Imperacin", "Unimycin", "Terralon LA", "Stevasin", "Abbocin", "Oxytetral", "Oxycline", "Oxiter 200", "Oxylim", "Oxymed 50", "Oxysentin 100", "Erfamycin", "4-Dimethylamino-3,5,6,10,12,12a-hexahydroxy-6-methyl-1,11-dioxo-4,4a,5,5a-tetrahydrotetracene-2-carboxamide", "Tormicina", "MeSH ID: D010118"], "SMILES": "OC12C(C(O)C3C(=C1O)C(=O)C=4C(C3(C)O)=CC=CC4O)C(N(C)C)C(O)=C(C(N)=O)C2=O", "physical_data": {"Molecular Weight": "460.43", "Molecular Formula": "C22H24N2O9", "Melting Point": "184-185 \u00b0C", "Density": "1.634 g/cm\u00b3 @ Temp: 20 \u00b0C"}}