{"cas_no": "79-61-8", "cn_name": "\u7cca\u72b6\u53f6\u7eff\u7d20", "en_name": ["Dichlorisone acetate", "Pregna-1,4-diene-3,20-dione, 21-(acetyloxy)-9,11-dichloro-17-hydroxy-, (11\u03b2)-", "Pregna-1,4-diene-3,20-dione, 9,11\u03b2-dichloro-17,21-dihydroxy-, 21-acetate", "(11\u03b2)-21-(Acetyloxy)-9,11-dichloro-17-hydroxypregna-1,4-diene-3,20-dione", "Dichlorisone acetate", "\u03941-9,11-Dichlorocortisone acetate", "Diloderm", "9\u03b1,11\u03b2-Dichloro-21-acetoxypregna-1,4-dien-17\u03b1-ol-3,20-dione", "Cloriderm", "Dermocid", "Diclorisona", "Disoderm", "Visoderm", "Astroderm", "Dichlorisone 21-acetate"], "SMILES": "ClC12C(C3C(C)(CC1Cl)C(C(COC(C)=O)=O)(O)CC3)CCC=4C2(C)C=CC(=O)C4", "physical_data": {"Molecular Weight": "455.37", "Molecular Formula": "C23H28Cl2O5", "Melting Point": "246-253 \u00b0C (decomp)"}}