{"cas_no": "79-63-0", "cn_name": "\u7f8a\u6bdb\u753e\u9187", "en_name": ["Lanosterol", "Lanosta-8,24-dien-3-ol, (3\u03b2)-", "Lanosta-8,24-dien-3\u03b2-ol", "Lanosterol", "Lanostadien-3\u03b2-ol", "(3\u03b2)-Lanosta-8,24-dien-3-ol", "Lanster", "4,4,14\u03b1-Trimethylcholesta-8,24-dien-3\u03b2-ol", "5\u03b1-Lanosta-8,24-dien-3\u03b2-ol", "Lanosta-8,24-dienol", "Lanosterin", "3\u03b2-Hydroxylanosta-8,24-diene", "NSC 60677", "3\u03b2-Hydroxy-lansota-8,24-dien-21-oic acid", "MeSH ID: D007810"], "SMILES": "CC12C3=C(C4(C)C(CC3)C(C)(C)C(O)CC4)CCC1(C)C(C(CCC=C(C)C)C)CC2", "physical_data": {"Molecular Weight": "426.72", "Molecular Formula": "C30H50O", "Melting Point": "140.5 \u00b0C"}}