{"cas_no": "79-69-6", "cn_name": "4-(2,5,6,6-\u56db\u7532\u57fa-2-\u73af\u5df1\u70ef-1-\u57fa)-3-\u4e01\u70ef-2-\u916e", "en_name": ["\u03b1-Irone", "3-Buten-2-one, 4-(2,5,6,6-tetramethyl-2-cyclohexen-1-yl)-", "\u03b1-Ionone, methyl-", "4-(2,5,6,6-Tetramethyl-2-cyclohexen-1-yl)-3-buten-2-one", "\u03b1-Irone", "\u03b1-Ionone, 6-methyl-", "6-Methyl-\u03b1-ionone", "4-(2,5,6,6-Tetramethyl-2-cyclohexen-1-yl)-3-butene-2-one", "Methyl-\u03b1-ionone"], "SMILES": "C(=CC(C)=O)C1C(C)(C)C(C)CC=C1C", "physical_data": {"Molecular Weight": "206.32", "Molecular Formula": "C14H22O", "Boiling Point": "89 \u00b0C @ Press: 0.5 Torr", "Melting Point": "&lt;25 \u00b0C", "Density": "0.9353 g/cm\u00b3 @ Temp: 21 \u00b0C"}}