{"cas_no": "79-74-3", "cn_name": "2,5-\u4e8c\u53d4\u620a\u57fa\u6c22\u918c", "en_name": ["2,5-Bis(1,1-dimethylpropyl)-1,4-benzenediol", "1,4-Benzenediol, 2,5-bis(1,1-dimethylpropyl)-", "Hydroquinone, 2,5-di-tert-pentyl-", "2,5-Bis(1,1-dimethylpropyl)-1,4-benzenediol", "2,5-Di-tert-amylhydroquinone", "2,5-Bis(1,1-dimethylpropyl)hydroquinone", "Santovar A", "2,5-Di-tert-pentylhydroquinone", "DAH", "DAHQ", "Antage DAH", "2,5-Di-t-amylhydroquinone", "2,5-Di(tert-amyl)-1,4-benzohydroquinone", "DTAHQ", "Lowinox AH 25", "AH 25", "2,5-Di(tert-amyl)hydroquinone", "NSC 455", "NSC 6267", "Santovar TAHQ", "Nocrac DAH", "2,5-Di-tert-pentyl-1,4-benzenediol", "Bostex 517", "Antioxidant DAH"], "SMILES": "C(CC)(C)(C)C1=C(O)C=C(C(CC)(C)C)C(O)=C1", "physical_data": {"Molecular Weight": "250.38", "Molecular Formula": "C16H26O2", "Melting Point": "179.4-180.4 \u00b0C", "Density": "1.05 g/cm\u00b3 @ Temp: 25 \u00b0C"}}