{"cas_no": "79-77-6", "cn_name": "beta-\u7d2b\u7f57\u916e", "en_name": ["\u03b2-Ionone", "3-Buten-2-one, 4-(2,6,6-trimethyl-1-cyclohexen-1-yl)-, (3E)-", "3-Buten-2-one, 4-(2,6,6-trimethyl-1-cyclohexen-1-yl)-, (E)-", "(3E)-4-(2,6,6-Trimethyl-1-cyclohexen-1-yl)-3-buten-2-one", "trans-\u03b2-Ionone", "\u03b2-Ionone", "(E)-\u03b2-Ionone", "Ionone beta", "(E)-4-(2,6,6-Trimethyl-1-cyclohexen-1-yl)-3-buten-2-one", "(E)-4-(2,6,6-Trimethylcyclohex-1-enyl)but-3-en-2-one", "trans-\u03b2-Lonone", "(E)-4-(2,6,6-Trimethyl-1-cyclohexen-1-yl)-3-buten-2-one"], "SMILES": "C(=CC(C)=O)C=1C(C)(C)CCCC1C", "physical_data": {"Molecular Weight": "192.30", "Molecular Formula": "C13H20O", "Boiling Point": "135-140 \u00b0C @ Press: 16 Torr", "Melting Point": "122-124 \u00b0C", "Density": "0.9468 g/cm\u00b3 @ Temp: 20 \u00b0C"}}