{"cas_no": "79-72-1", "cn_name": "5-\u6c28\u57fa-2-\u7532\u57fa-N-\u82ef\u57fa\u82ef\u78fa\u9170\u80fa", "en_name": ["5-Amino-2-methyl-N-phenylbenzenesulfonamide", "Benzenesulfonamide, 5-amino-2-methyl-N-phenyl-", "o-Toluenesulfonanilide, 5-amino-", "5-Amino-2-methyl-N-phenylbenzenesulfonamide", "5-Amino-o-toluenesulfonanilide", "5-Amino-2-toluenesulfonanilide", "NSC 37094"], "SMILES": "S(NC1=CC=CC=C1)(=O)(=O)C2=C(C)C=CC(N)=C2", "physical_data": {"Molecular Weight": "262.33", "Molecular Formula": "C13H14N2O2S", "Melting Point": "145 \u00b0C"}}