{"cas_no": "79-78-7", "cn_name": "1-(2,6,6-\u4e09\u7532\u57fa-2-\u73af\u5df1\u70ef-1-\u57fa)-1,6-\u5e9a\u4e8c\u70ef-3-\u916e", "en_name": ["Allyl-\u03b1-ionone", "1,6-Heptadien-3-one, 1-(2,6,6-trimethyl-2-cyclohexen-1-yl)-", "1-(2,6,6-Trimethyl-2-cyclohexen-1-yl)-1,6-heptadien-3-one", "Allyl-\u03b1-ionone", "Cetone V", "Hexalon (fragrance)", "Hexalon", "1-(2,6,6-Trimethylcyclohex-2-enyl)hepta-1,6-dien-3-one"], "SMILES": "C(=CC(CCC=C)=O)C1C(C)(C)CCC=C1C", "physical_data": {"Molecular Weight": "232.36", "Molecular Formula": "C16H24O", "Boiling Point": "109-111 \u00b0C @ Press: 1 Torr"}}