{"cas_no": "79-81-2", "cn_name": "\u7ef4\u751f\u7d20 A \u68d5\u6988\u9178\u916f", "en_name": ["Retinol palmitate", "Retinol, hexadecanoate", "Retinol, palmitate, all-trans-", "Retinol palmitate", "Arovit", "Dispatabs Tabs", "Myvak", "Myvax", "Testavol S", "Retinyl palmitate", "all-trans-Vitamin A palmitate", "Vitamin A palmitate", "Axerophthol palmitate", "Aquasol A", "Aquapalm", "all-trans-Retinol palmitate", "all-trans-Retinyl palmitate", "trans-Retinyl palmitate", "trans-Retinol palmitate", "Palmitic acid, ester with retinol", "Vitazyme A", "Arovit (Roche)", "Lutavit A 500 Plus", "Optovit A", "VAP 250CK-CWD", "VAP 250MS-CWD", "250S/N", "250S/N-B", "Riken A Palmitate 1000E", "Retiblan"], "SMILES": "C(=CC(=CC=CC(=CCOC(CCCCCCCCCCCCCCC)=O)C)C)C=1C(C)(C)CCCC1C", "physical_data": {"Molecular Weight": "524.86", "Molecular Formula": "C36H60O2", "Melting Point": "28-29 \u00b0C"}}