{"cas_no": "79-83-4", "cn_name": "D-\u6cdb\u9178", "en_name": ["(+)-Pantothenic acid", "\u03b2-Alanine, N-[(2R)-2,4-dihydroxy-3,3-dimethyl-1-oxobutyl]-", "Pantothenic acid, D-", "\u03b2-Alanine, N-(2,4-dihydroxy-3,3-dimethyl-1-oxobutyl)-, (R)-", "N-[(2R)-2,4-Dihydroxy-3,3-dimethyl-1-oxobutyl]-\u03b2-alanine", "Chick antidermatitis factor", "(+)-Pantothenic acid", "Vitamin B5", "Pantothenic acid", "D-Pantothenic acid", "D(+)-N-(2,4-Dihydroxy-3,3-dimethylbutyryl)-\u03b2-alanine", "(D)-(+)-Pantothenic acid", "(R)-3-(2,4-Dihydroxy-3,3-dimethylbutanamido)propanoicacid", "MeSH ID: D010205"], "SMILES": "C(C(CO)(C)C)(C(NCCC(O)=O)=O)O", "physical_data": {"Molecular Weight": "219.24", "Molecular Formula": "C9H17NO5", "Melting Point": "&lt;25 \u00b0C"}}