{"cas_no": "79-92-5", "cn_name": "\u83b0\u70ef", "en_name": ["(\u00b1)-Camphene", "Bicyclo[2.2.1]heptane, 2,2-dimethyl-3-methylene-", "Camphene", "2,2-Dimethyl-3-methylenebicyclo[2.2.1]heptane", "2,2-Dimethyl-3-methylenenorbornane", "3,3-Dimethyl-2-methylenenorcamphane", "3,3-Dimethyl-2-methylenenorbornane", "dl-Camphene", "(\u00b1)-Camphene", "DL-Camphene", "NSC 4165", "2-Methylene-3,3-dimethylbicyclo[2.2.1]heptane", "YS Camphene", "2,2-Dimethyl-3-methylidenebicyclo[2.2.1]heptane"], "SMILES": "CC1(C)C2CC(C1=C)CC2", "physical_data": {"Molecular Weight": "136.23", "Molecular Formula": "C10H16", "Boiling Point": "158.5 \u00b0C", "Melting Point": "51.5 \u00b0C", "Density": "0.839 g/cm\u00b3 @ Temp: 20 \u00b0C"}}