{"cas_no": "79-95-8", "cn_name": "\u56db\u6c2f\u53cc\u915aA", "en_name": ["Tetrachlorobisphenol A", "Phenol, 4,4\u2032-(1-methylethylidene)bis[2,6-dichloro-", "Phenol, 4,4\u2032-isopropylidenebis[2,6-dichloro-", "4,4\u2032-(1-Methylethylidene)bis[2,6-dichlorophenol]", "2,2-Bis(4-hydroxy-3,5-dichlorophenyl)propane", "2,2-Bis(3,5-dichloro-4-hydroxyphenyl)propane", "2,2-Bis[3,5-dichloro-4-oxyphenyl]propane", "Tetrachlorobisphenol A", "2,2\u2032,6,6\u2032-Tetrachlorobisphenol A", "4,4\u2032-Isopropylidenebis[2,6-dichlorophenol]", "Tetrachlorodian", "3,3\u2032,5,5\u2032-Tetrachlorobisphenol A", "NSC 18248", "NSC 67465", "3,5,3\u2032,5\u2032-Tetrachlorobisphenol A", "2,2\u2032,6,6\u2032-Tetrachloro-4,4\u2032-isopropylidenediphenol", "2,6-Dichloro-4-[2-(3,5-dichloro-4-hydroxyphenyl)propan-2-yl]phenol"], "SMILES": "C(C)(C)(C1=CC(Cl)=C(O)C(Cl)=C1)C2=CC(Cl)=C(O)C(Cl)=C2", "physical_data": {"Molecular Weight": "366.07", "Molecular Formula": "C15H12Cl4O2", "Melting Point": "136-137 \u00b0C"}}