{"cas_no": "79-97-0", "cn_name": "4,4'-(1-\u7532\u57fa\u4e9a\u4e59\u57fa)\u53cc(2-\u7532\u57fa\u82ef\u915a)", "en_name": ["Bisphenol C", "Phenol, 4,4\u2032-(1-methylethylidene)bis[2-methyl-", "o-Cresol, 4,4\u2032-isopropylidenedi-", "4,4\u2032-(1-Methylethylidene)bis[2-methylphenol]", "Bisphenol C", "4,4\u2032-Isopropylidenedi-o-cresol", "2,2-Bis(4-hydroxy-3-methylphenyl)propane", "Nonox DCP", "3,3\u2032-Dimethyldian", "2,2-Bis(3-methyl-4-hydroxyphenyl)propane", "4,4\u2032-Isopropylidenebis[2-methylphenol]", "4,4\u2032-Dihydroxy-3,3\u2032-dimethyldiphenyl-2,2-propane", "Dicresylolpropane", "3,3\u2032-Dimethylbisphenol A", "Bis-o-cresol A", "3,3\u2032-Dimethyl-4,4\u2032-dihydroxydiphenyl-2,2-propane", "2,2\u2032-Dimethyl-4,4\u2032-isopropylidenebisphenol", "2,2\u2032-(4-Hydroxy-3-methylphenyl)propane", "NSC 408489", "B 1567"], "SMILES": "C(C)(C)(C1=CC(C)=C(O)C=C1)C2=CC(C)=C(O)C=C2", "physical_data": {"Molecular Weight": "256.34", "Molecular Formula": "C17H20O2", "Melting Point": "136 \u00b0C"}}