{"cas_no": "79-94-7", "cn_name": "\u56db\u6eb4\u53cc\u915a A", "en_name": ["Tetrabromobisphenol A", "Phenol, 4,4\u2032-(1-methylethylidene)bis[2,6-dibromo-", "Phenol, 4,4\u2032-isopropylidenebis[2,6-dibromo-", "4,4\u2032-(1-Methylethylidene)bis[2,6-dibromophenol]", "Firemaster BP 4A", "2,2-Bis(3,5-dibromo-4-hydroxyphenyl)propane", "2,2-Bis(4-hydroxy-3,5-dibromophenyl)propane", "3,5,3\u2032,5\u2032-Tetrabromobisphenol A", "Tetrabromobisphenol A", "Bromdian", "2,2\u2032,6,6\u2032-Tetrabromobisphenol A", "Fire Guard 2000", "Tetrabromodian", "BA 59", "4,4\u2032-Isopropylidenebis[2,6-dibromophenol]", "3,3\u2032,5,5\u2032-Tetrabromobisphenol A", "Tetrabromodiphenylolpropane", "Saytex RB 100PC", "BA 59P", "Flame Cut 120G", "Saytex RB 100", "GLCBA 59P", "RB 100", "PB 100", "FG 2000", "TBBPA", "FR 1524", "NSC 59775", "Saytex CP 2000", "CP 2000", "Flame Cut 120R", "T 0032", "BA 59BP", "FCP 2010", "FR 1525", "2,6-Dibromo-4-[2-(3,5-dibromo-4-hydroxyphenyl)propan-2-yl]phenol", "Z 58", "Taixing HT 108", "HT 108", "2,2\u2032,6,6\u2032-Tetrabromo-4,4\u2032-isopropylidenediphenol", "CXB 1500C", "AP 1969", "XZ 5000"], "SMILES": "C(C)(C)(C1=CC(Br)=C(O)C(Br)=C1)C2=CC(Br)=C(O)C(Br)=C2", "physical_data": {"Molecular Weight": "543.87", "Molecular Formula": "C15H12Br4O2", "Melting Point": "179-181 \u00b0C", "Density": "220 g/cm\u00b3 @ Temp: 4 \u00b0C"}}