{"cas_no": "79-91-4", "cn_name": "\u6c27\u5316\u677e\u7bc0\u6cb9\u9178", "en_name": ["Terebic acid", "3-Furancarboxylic acid, tetrahydro-2,2-dimethyl-5-oxo-", "3-Furoic acid, tetrahydro-2,2-dimethyl-5-oxo-", "Terebic acid", "Succinic acid, (1-hydroxy-1-methylethyl)-, \u03b3-lactone", "Tetrahydro-2,2-dimethyl-5-oxo-3-furancarboxylic acid", "Terebinic acid", "\u03b3,\u03b3-Dimethylparaconic acid", "\u03b3,\u03b3-Dimethyldihydroaconic acid", "2,2-Dimethyl-5-oxotetrahydrofuran-3-carboxylic acid", "2,2-Dimethyl-5-oxooxolane-3-carboxylic acid"], "SMILES": "C(O)(=O)C1C(C)(C)OC(=O)C1", "physical_data": {"Molecular Weight": "158.15", "Molecular Formula": "C7H10O4", "Melting Point": "174.5 \u00b0C"}}