{"cas_no": "790-41-0", "cn_name": "4-\u6c2f\u82ef\u7532\u9178\u9150", "en_name": ["Benzoic acid, 4-chloro-, 1,1\u2032-anhydride", "Benzoic acid, 4-chloro-, 1,1\u2032-anhydride", "Benzoic acid, p-chloro-, anhydride", "Benzoic acid, 4-chloro-, anhydride", "p-Chlorobenzoic anhydride", "4-Chlorobenzoic anhydride", "p-Chlorobenzoic acid anhydride", "4-Chlorobenzoic acid anhydride", "NSC 404992"], "SMILES": "C(OC(=O)C1=CC=C(Cl)C=C1)(=O)C2=CC=C(Cl)C=C2", "physical_data": {"Molecular Weight": "295.12", "Molecular Formula": "C14H8Cl2O3", "Boiling Point": "248 \u00b0C @ Press: 5 Torr", "Melting Point": "193-194 \u00b0C"}}