{"cas_no": "790-83-0", "cn_name": "\u4e8c\u82ef- 4,4' -\u4e8c\u7fa7\u9178", "en_name": ["4,4\u2032-Methylenebis[benzoic acid]", "Benzoic acid, 4,4\u2032-methylenebis-", "Benzoic acid, 4,4\u2032-methylenedi-", "4,4\u2032-Methylenebis[benzoic acid]", "Bis(p-carboxyphenyl)methane", "Diphenylmethane-4,4\u2032-dicarboxylic acid", "4,4\u2032-Methylenedibenzoic acid", "4-[(4-Carboxyphenyl)methyl]benzoic acid", "4,4\u2032-Methylenebis(benzoic acid)", "Bis(4-carboxyphenyl)methane"], "SMILES": "C(C1=CC=C(C(O)=O)C=C1)C2=CC=C(C(O)=O)C=C2", "physical_data": {"Molecular Weight": "256.25", "Molecular Formula": "C15H12O4", "Melting Point": "322-323 \u00b0C"}}