{"cas_no": "79047-41-9", "cn_name": "2-\u6b63\u4e01\u57fa-4(5)-\u6c2f-5(4)-\u7532\u9170\u57fa\u54aa\u5511", "en_name": ["2-Butyl-5-chloro-1H-imidazole-4-methanol", "1H-Imidazole-4-methanol, 2-butyl-5-chloro-", "2-Butyl-5-chloro-1H-imidazole-4-methanol", "2-Butyl-4-chloro-5-(hydroxymethyl)imidazole", "2-Butyl-5-chloroimidazole-4-methanol", "2-Butyl-4-chloro-5-hydroxymethyl-1H-imidazole", "2-n-Butyl-4-chloro-5-(hydroxymethyl)imidazole", "5-Chloro-2-butylimidazole-4-methanol", "(2-Butyl-4-chloro-1H-imidazol-5-yl)methanol", "(2-Butyl-5-chloro-1H-imidazol-4-yl)methanol"], "SMILES": "C(CCC)C=1NC(CO)=C(Cl)N1", "physical_data": {"Molecular Weight": "188.65", "Molecular Formula": "C8H13ClN2O", "Melting Point": "147-148 \u00b0C"}}