{"cas_no": "79055-52-0", "cn_name": "2,4-\u4e8c\u6eb4-6-\u7532\u57fa\u5421\u5576", "en_name": ["2,4-Dibromo-6-methylpyridine", "Pyridine, 2,4-dibromo-6-methyl-", "2,4-Dibromo-6-methylpyridine"], "SMILES": "BrC=1C=C(Br)N=C(C)C1", "physical_data": {"Molecular Weight": "250.92", "Molecular Formula": "C6H5Br2N", "Boiling Point": "230-231 \u00b0C", "Melting Point": "27 \u00b0C"}}