{"cas_no": "79055-62-2", "cn_name": "2-\u6c2f-4-\u6c28\u57fa-5-\u7532\u57fa\u5421\u5576", "en_name": ["2-Chloro-5-methyl-4-pyridinamine", "4-Pyridinamine, 2-chloro-5-methyl-", "2-Chloro-5-methyl-4-pyridinamine", "4-Amino-2-chloro-5-methylpyridine", "2-Chloro-4-amino-5-methylpyridine", "2-Chloro-5-methyl-pyridin-4-ylamine"], "SMILES": "NC=1C(C)=CN=C(Cl)C1", "physical_data": {"Molecular Weight": "142.59", "Molecular Formula": "C6H7ClN2", "Melting Point": "115 \u00b0C"}}