{"cas_no": "79055-60-0", "cn_name": "2-\u6eb4-4-\u6c28\u57fa-5-\u7532\u57fa\u5627\u5576", "en_name": ["2-Bromo-5-methyl-4-pyridinamine", "4-Pyridinamine, 2-bromo-5-methyl-", "2-Bromo-5-methyl-4-pyridinamine", "2-Bromo-5-methylpyridin-4-ylamine"], "SMILES": "NC=1C(C)=CN=C(Br)C1", "physical_data": {"Molecular Weight": "187.04", "Molecular Formula": "C6H7BrN2", "Melting Point": "125 \u00b0C"}}