{"cas_no": "79055-59-7", "cn_name": "4 -\u6c28\u57fa- 2 -\u6eb4- 6 -\u7532\u57fa\u5421\u5576", "en_name": ["2-Bromo-6-methyl-4-pyridinamine", "4-Pyridinamine, 2-bromo-6-methyl-", "2-Bromo-6-methyl-4-pyridinamine", "4-Amino-2-bromo-6-methylpyridine", "2-Bromo-6-methylpyridin-4-ylamine"], "SMILES": "NC=1C=C(Br)N=C(C)C1", "physical_data": {"Molecular Weight": "187.04", "Molecular Formula": "C6H7BrN2", "Melting Point": "179 \u00b0C"}}