{"cas_no": "79055-68-8", "cn_name": "(R)-(-)-2-\u6c28\u57fa-5-\u81a6\u9170\u620a\u9178", "en_name": ["(-)-2-Amino-5-phosphonovaleric acid", "D-Norvaline, 5-phosphono-", "5-Phosphono-D-norvaline", "D-2-Amino-5-phosphonovaleric acid", "(-)-2-Amino-5-phosphonovaleric acid", "(-)-2-Amino-5-phosphonopentanoic acid", "D-(-)-2-Amino-5-phosphonopentanoic acid", "D-2-Amino-5-phosphonopentanoic acid", "D-Aminophosphonovaleric acid", "(R)-2-Amino-5-phosphonopentanoic acid", "D-AP-5", "(R)-AP-5", "(R)-2-Amino-5-phosphonopentanoic acid", "(2R)-2-Amino-5-phosphonopentanoic acid"], "SMILES": "C(CC(C(O)=O)N)CP(=O)(O)O", "physical_data": {"Molecular Weight": "197.13", "Molecular Formula": "C5H12NO5P", "Melting Point": "245-246 \u00b0C"}}