{"cas_no": "79069-13-9", "cn_name": "N-Boc-L-\u4e19\u6c28\u9187", "en_name": ["1,1-Dimethylethyl N-[(1S)-2-hydroxy-1-methylethyl]carbamate", "Carbamic acid, N-[(1S)-2-hydroxy-1-methylethyl]-, 1,1-dimethylethyl ester", "Carbamic acid, (2-hydroxy-1-methylethyl)-, 1,1-dimethylethyl ester, (S)-", "Carbamic acid, [(1S)-2-hydroxy-1-methylethyl]-, 1,1-dimethylethyl ester", "1,1-Dimethylethyl N-[(1S)-2-hydroxy-1-methylethyl]carbamate", "(S)-2-(N-tert-Butoxycarbonylamino)propan-1-ol", "N-tert-Butoxycarbonyl-L-alaninol", "(S)-2-tert-Butoxycarbonylamino-1-propanol", "(1S)-N-(tert-Butoxycarbonyl)-1-methyl-2-hydroxyethylamine", "(S)-2-((tert-Butoxycarbonyl)amino)propanol", "((S)-2-Hydroxy-1-methylethyl)carbamic acid tert-butyl ester", "(S)-(-)-2-(tert-Butoxycarbonylamino)-1-propanol", "(S)-N-Boc-alaninol", "N-Boc-L-alaninol", "tert-Butyl ((S)-1-hydroxypropan-2-yl)carbamate", "N-((S)-2-Hydroxy-1-methylethyl)carbamic acid tert-butyl ester", "1,1-Dimethylethyl ((1S)-2-hydroxy-1-methylethyl)carbamate", "tert-Butyl ((1S)-2-hydroxy-1-methylethyl)carbamate", "((1S)-2-Hydroxy-1-methylethyl)carbamic acid tert-butyl ester", "tert-Butyl N-((S)-1-hydroxypropan-2-yl)carbamate", "tert-Butyl ((2S)-1-hydroxypropan-2-yl)carbamate", "(S)-N-Boc-2-aminopropan-1-ol", "(S)-tert-Butyl (1-hydroxypropan-2-yl)carbamate", "(S)-2-t-Butoxycarbonylaminopropan-1-ol", "tert-Butyl N-[(2S)-1-hydroxypropan-2-yl]carbamate"], "SMILES": "O(C(C)(C)C)C(NC(CO)C)=O", "physical_data": {"Molecular Weight": "175.23", "Molecular Formula": "C8H17NO3", "Melting Point": "57-58 \u00b0C"}}