{"cas_no": "79099-07-3", "cn_name": "N-\u53d4\u4e01\u6c27\u7fb0\u57fa-4-\u54cc\u5576\u916e", "en_name": ["tert-Butyl 4-oxopiperidine-1-carboxylate", "1-Piperidinecarboxylic acid, 4-oxo-, 1,1-dimethylethyl ester", "1-(tert-Butoxycarbonyl)-4-piperidinone", "N-(tert-Butoxycarbonyl)-4-piperidinone", "N-(tert-Butyloxycarbonyl)-4-piperidone", "N-Boc-4-piperidone", "1-(tert-Butoxycarbonyl)-4-piperidone", "1-BOC-4-piperidone", "4-Keto-1-piperidinecarboxylic acid 1,1-dimethylethyl ester", "1,1-Dimethylethyl 4-oxo-1-piperidinecarboxylate", "tert-Butyl 4-oxo-1-piperidinecarboxylate", "4-Oxopiperidine-1-carboxylic acid tert-butyl ester", "4-Oxo-N-Boc-piperidine", "1-(tert-Butyloxycarbonyl)-4-piperidone", "4-Oxo-1-(tert-butoxycarbonyl)piperidine", "1-(tert-Butoxycarbonyl)-4-oxopiperidine", "4-Oxopiperidine-1-carboxylic acid tert-butyl ester", "N-(tert-Butoxycarbonyl)-4-piperidone", "1-(tert-Butyloxycarbonyl)-4-piperidinone", "4-Oxo-1-piperidinecarboxylic acid 1,1-dimethylethyl ester", "N-(tert-Butyloxycarbonyl)piperidin-4-one", "N-Boc-piperidin-4-one", "N-Boc-4-oxopiperidine", "1-Boc-4-oxopiperidine", "1-Boc-piperidin-4-one", "4-Oxopiperidin-1-carboxylic acid tert-butyl ester", "N-Boc-piperidine-4-one", "tert-Butyl 4-oxopiperidine-1-carboxylate", "tert-Butyl tert-butyl 4-oxopiperidine-1-carboxylate"], "SMILES": "C(OC(C)(C)C)(=O)N1CCC(=O)CC1", "physical_data": {"Molecular Weight": "199.25", "Molecular Formula": "C10H17NO3", "Melting Point": "64-65 \u00b0C"}}