{"cas_no": "791-31-1", "cn_name": "\u4e09\u82ef\u57fa\u7845\u9187", "en_name": ["Triphenylsilanol", "Silanol, 1,1,1-triphenyl-", "Silanol, triphenyl-", "1,1,1-Triphenylsilanol", "Triphenylhydroxysilane", "Triphenylsilanol", "Hydroxytriphenylsilane", "Triphenylsilyl hydroxide", "NSC 12564", "Z 6800", "LS 6400", "TSL 8161D"], "SMILES": "[Si](O)(C1=CC=CC=C1)(C2=CC=CC=C2)C3=CC=CC=C3", "physical_data": {"Molecular Weight": "276.40", "Molecular Formula": "C18H16OSi", "Boiling Point": "156-158 \u00b0C @ Press: 760 Torr", "Melting Point": "154.8 \u00b0C"}}