{"cas_no": "791-29-7", "cn_name": "\u7532\u57fa\u4e09\u82ef\u57fa\u7845\u70f7", "en_name": ["Methyltriphenylsilane", "Benzene, 1,1\u2032,1\u2032\u2032-(methylsilylidyne)tris-", "Silane, methyltriphenyl-", "1,1\u2032,1\u2032\u2032-(Methylsilylidyne)tris[benzene]", "Methyltriphenylsilane", "Triphenylmethylsilane"], "SMILES": "[Si](C)(C1=CC=CC=C1)(C2=CC=CC=C2)C3=CC=CC=C3", "physical_data": {"Molecular Weight": "274.43", "Molecular Formula": "C19H18Si", "Boiling Point": "198-204 \u00b0C @ Press: 10 Torr", "Melting Point": "67-67.5 \u00b0C"}}