{"cas_no": "791-35-5", "cn_name": "\u6c2f\u82ef\u8fbe\u8bfa", "en_name": ["Chlophedianol", "Benzenemethanol, 2-chloro-\u03b1-[2-(dimethylamino)ethyl]-\u03b1-phenyl-", "Benzhydrol, 2-chloro-\u03b1-[2-(dimethylamino)ethyl]-", "2-Chloro-\u03b1-[2-(dimethylamino)ethyl]-\u03b1-phenylbenzenemethanol", "2-Chloro-\u03b1-(2-dimethylaminoethyl)benzhydrol", "1-o-Chlorophenyl-3-dimethylamino-1-phenylpropan-1-ol", "Clofedanol", "1-Phenyl-1-o-chlorophenyl-3-(dimethylamino)-1-propanol", "Chlophedianol", "\u03b1-(Dimethylaminoethyl)-o-chlorobenzhydrol", "1-o-Chlorophenyl-1-phenyl-3-dimethylamino-1-propanol", "1-Phenyl-1-(o-chlorophenyl)-3-dimethylaminopropanol", "Tussistop", "Calmotusin", "(\u00b1)-Chlophedianol", "NSC 113595"], "SMILES": "C(CCN(C)C)(O)(C1=C(Cl)C=CC=C1)C2=CC=CC=C2", "physical_data": {"Molecular Weight": "289.80", "Molecular Formula": "C17H20ClNO", "Melting Point": "120 \u00b0C"}}