{"cas_no": "791-69-5", "cn_name": "ESTRADIOL", "en_name": ["9,11-Dehydroestradiol", "Estra-1,3,5(10),9(11)-tetraene-3,17-diol, (17\u03b2)-", "Estra-1,3,5(10),9(11)-tetraene-3,17\u03b2-diol", "(17\u03b2)-Estra-1,3,5(10),9(11)-tetraene-3,17-diol", "\u03949,11-Estradiol", "J 1213", "ZYC 1", "9,11-Dehydroestradiol"], "SMILES": "CC12C(C3C(C=4C(CC3)=CC(O)=CC4)=CC1)CCC2O", "physical_data": {"Molecular Weight": "270.37", "Molecular Formula": "C18H22O2", "Melting Point": "174-175 \u00b0C"}}