{"cas_no": "791-28-6", "cn_name": "\u4e09\u82ef\u57fa\u6c27\u5316\u81a6", "en_name": ["Triphenylphosphine oxide", "Phosphine oxide, triphenyl-", "Triphenylphosphine oxide", "Triphenyl phosphorus oxide", "Triphenylphosphine monoxide", "TPPO", "NSC 398", "PP 560", "(Diphenylphosphoroso)benzene"], "SMILES": "P(=O)(C1=CC=CC=C1)(C2=CC=CC=C2)C3=CC=CC=C3", "physical_data": {"Molecular Weight": "278.28", "Molecular Formula": "C18H15OP", "Boiling Point": "&gt;360 \u00b0C", "Melting Point": "156.5 \u00b0C", "Density": "1.140 g/cm\u00b3"}}