{"cas_no": "79124-76-8", "cn_name": "3-(3,4-\u4e8c\u6c2f\u82ef\u6c27\u57fa)\u82ef\u7532\u919b", "en_name": ["3-(3,4-Dichlorophenoxy)benzaldehyde", "Benzaldehyde, 3-(3,4-dichlorophenoxy)-", "3-(3,4-Dichlorophenoxy)benzaldehyde", "[3-(3,4-Dichlorophenoxy)phenyl]formaldehyde"], "SMILES": "O(C1=CC(C=O)=CC=C1)C2=CC(Cl)=C(Cl)C=C2", "physical_data": {"Molecular Weight": "267.11", "Molecular Formula": "C13H8Cl2O2", "Melting Point": "103 \u00b0C"}}