{"cas_no": "791616-63-2", "cn_name": "(R)-3,3\u2032-\u53cc(2,4,6-\u4e09\u5f02\u4e19\u57fa\u82ef\u57fa)-1,1\u2032-\u8054\u8418-2,2\u2032-\u53cc\u78f7\u9178\u6c22\u916f", "en_name": ["Dinaphtho[2,1-d:1\u2032,2\u2032-f][1,3,2]dioxaphosphepin, 4-hydroxy-2,6-bis[2,4,6-tris(1-methylethyl)phenyl]-, 4-oxide, (11bR)-", "Dinaphtho[2,1-d:1\u2032,2\u2032-f][1,3,2]dioxaphosphepin, 4-hydroxy-2,6-bis[2,4,6-tris(1-methylethyl)phenyl]-, 4-oxide, (11bR)-", "(R)-TRIP", "(R)-TRIP-PA"], "SMILES": "O=P1(O)OC2=C(C3=C(C(=CC=4C3=CC=CC4)C5=C(C(C)C)C=C(C(C)C)C=C5C(C)C)O1)C=6C(C=C2C7=C(C(C)C)C=C(C(C)C)C=C7C(C)C)=CC=CC6", "physical_data": {"Molecular Weight": "752.96", "Molecular Formula": "C50H57O4P", "Melting Point": "&gt;290 \u00b0C"}}