{"cas_no": "792-74-5", "cn_name": "\u8054\u82ef\u4e8c\u7532\u9178\u4e8c\u7532\u916f", "en_name": ["4,4\u2032-Dimethyl [1,1\u2032-biphenyl]-4,4\u2032-dicarboxylate", "[1,1\u2032-Biphenyl]-4,4\u2032-dicarboxylic acid, 4,4\u2032-dimethyl ester", "4,4\u2032-Biphenyldicarboxylic acid, dimethyl ester", "[1,1\u2032-Biphenyl]-4,4\u2032-dicarboxylic acid, dimethyl ester", "4,4\u2032-Dimethyl [1,1\u2032-biphenyl]-4,4\u2032-dicarboxylate", "Dimethyl 4,4\u2032-biphenyldicarboxylate", "Dimethyl [1,1\u2032-biphenyl]-4,4\u2032-dicarboxylate", "4,4\u2032-Bis(methoxycarbonyl)biphenyl"], "SMILES": "C(OC)(=O)C1=CC=C(C=C1)C2=CC=C(C(OC)=O)C=C2", "physical_data": {"Molecular Weight": "270.28", "Molecular Formula": "C16H14O4", "Melting Point": "224 \u00b0C"}}