{"cas_no": "79200-56-9", "cn_name": "(-)-\u6587\u65af\u5185\u916f", "en_name": ["(-)-2-Azabicyclo[2.2.1]hept-5-en-3-one", "2-Azabicyclo[2.2.1]hept-5-en-3-one, (1R,4S)-", "2-Azabicyclo[2.2.1]hept-5-en-3-one, (1R)-", "(1R,4S)-2-Azabicyclo[2.2.1]hept-5-en-3-one", "(-)-2-Azabicyclo[2.2.1]hept-5-en-3-one", "(1R)-(-)-2-Azabicyclo[2.2.1]hept-5-en-3-one", "(1R,4S)-(-)-2-Azabicyclo[2.2.1]hept-5-en-3-one", "(-)-Vince lactam", "(1R,4S)-2-Azabicyclo[2.2.1]hept-5-en-3-one"], "SMILES": "O=C1C2CC(N1)C=C2", "physical_data": {"Molecular Weight": "109.13", "Molecular Formula": "C6H7NO", "Melting Point": "94-95 \u00b0C"}}