{"cas_no": "79247-78-2", "cn_name": "2,5-\u4e8c\u6eb4-4-\u7532\u57fa\u567b\u5511", "en_name": ["2,5-Dibromo-4-methylthiazole", "Thiazole, 2,5-dibromo-4-methyl-", "2,5-Dibromo-4-methylthiazole"], "SMILES": "CC1=C(Br)SC(Br)=N1", "physical_data": {"Molecular Weight": "256.95", "Molecular Formula": "C4H3Br2NS", "Melting Point": "22 \u00b0C"}}