{"cas_no": "79241-46-6", "cn_name": "\u7cbe\u5421\u6c1f\u79be\u8349\u7075", "en_name": ["Fluazifop-P-butyl", "Propanoic acid, 2-[4-[[5-(trifluoromethyl)-2-pyridinyl]oxy]phenoxy]-, butyl ester, (2R)-", "Propanoic acid, 2-[4-[[5-(trifluoromethyl)-2-pyridinyl]oxy]phenoxy]-, butyl ester, (R)-", "PP 005", "Fusilade Super", "Fluazifop-P-butyl", "Fusilade 2000", "(+)-Fluazifop-butyl", "Fusilade S", "Fusilade II", "Fusilade DX", "Fusilade forte", "IH 773B", "ICI-A 0009", "ICI-A 0005", "Fusilade Max", "Deganol"], "SMILES": "O(C1=CC=C(C(F)(F)F)C=N1)C2=CC=C(OC(C(OCCCC)=O)C)C=C2", "physical_data": {"Molecular Weight": "383.36", "Molecular Formula": "C19H20F3NO4", "Boiling Point": "154 \u00b0C", "Melting Point": "5 \u00b0C"}}