{"cas_no": "79277-27-3", "cn_name": "\u567b\u5429\u9ec4\u9686", "en_name": ["Thifensulfuron methyl", "2-Thiophenecarboxylic acid, 3-[[[[(4-methoxy-6-methyl-1,3,5-triazin-2-yl)amino]carbonyl]amino]sulfonyl]-, methyl ester", "DPX-M 6316", "Harmony", "Thiameturon-methyl", "Thifensulfuron methyl ester", "Harmony 75DF", "Thifensulfuron methyl", "Pinnacle", "Refine", "Refine DF", "Pinnacle 25DF", "Harmony GT-XP", "Harmony GT", "Harmony SX"], "SMILES": "C(OC)(=O)C1=C(S(NC(NC=2N=C(OC)N=C(C)N2)=O)(=O)=O)C=CS1", "physical_data": {"Molecular Weight": "387.39", "Molecular Formula": "C12H13N5O6S2", "Melting Point": "176 \u00b0C"}}