{"cas_no": "79271-56-0", "cn_name": "\u4e09\u4e59\u57fa\u7845\u57fa\u4e09\u6c1f\u7532\u78fa\u9178\u916f", "en_name": ["Triethylsilyl 1,1,1-trifluoromethanesulfonate", "Methanesulfonic acid, 1,1,1-trifluoro-, triethylsilyl ester", "Methanesulfonic acid, trifluoro-, triethylsilyl ester", "Triethylsilyl 1,1,1-trifluoromethanesulfonate", "Triethylsilyl triflate", "Triethylsilyl trifluoromethanesulfonate", "Trifluoromethanesulfonic acid triethylsilyl ester"], "SMILES": "[Si](OS(C(F)(F)F)(=O)=O)(CC)(CC)CC", "physical_data": {"Molecular Weight": "264.34", "Molecular Formula": "C7H15F3O3SSi", "Boiling Point": "85-86 \u00b0C @ Press: 12 Torr", "Density": "1.169 g/cm\u00b3"}}