{"cas_no": "79286-87-6", "cn_name": "3-(N-\u4e59\u9170\u57fa-N-\u7532\u6c28\u57fa)\u5421\u54af\u70f7", "en_name": ["N-Methyl-N-3-pyrrolidinylacetamide", "Acetamide, N-methyl-N-3-pyrrolidinyl-", "N-Methyl-N-3-pyrrolidinylacetamide", "3-(N-Acetyl-N-methylamino)pyrrolidine", "3-(Acetylmethylamino)pyrrolidine", "3-(N-Methylacetamido)pyrrolidine"], "SMILES": "N(C(C)=O)(C)C1CCNC1", "physical_data": {"Molecular Weight": "142.20", "Molecular Formula": "C7H14N2O", "Boiling Point": "109-110 \u00b0C @ Press: 1 Torr"}}