{"cas_no": "793-24-8", "cn_name": "N-(1,3-\u4e8c\u7532\u57fa\u4e01\u57fa)-N'-\u82ef\u57fa\u5bf9\u82ef\u4e8c\u80fa", "en_name": ["Antioxidant 4020", "1,4-Benzenediamine, N1-(1,3-dimethylbutyl)-N4-phenyl-", "p-Phenylenediamine, N-(1,3-dimethylbutyl)-N\u2032-phenyl-", "1,4-Benzenediamine, N-(1,3-dimethylbutyl)-N\u2032-phenyl-", "N1-(1,3-Dimethylbutyl)-N4-phenyl-1,4-benzenediamine", "N-(4-Methyl-2-pentyl)-N\u2032-phenyl-p-phenylenediamine", "Santoflex 13", "N-(1,3-Dimethylbutyl)-N\u2032-phenyl-p-phenylenediamine", "Antioxidant 4020", "N-Phenyl-N\u2032-(1,3-dimethylbutyl)-p-phenylenediamine", "Permanax 120", "Wingstay 300", "Diafen 13", "Vulkanox 4020", "Nocrac 6C", "N-(1,3-Dimethylbutyl)-N\u2032-phenyl-1,4-phenylenediamine", "Flexzone 7L", "Santoflex 13F", "Antozite 67", "Antozite 67F", "Flexzone 7F", "DBDA", "UOP 562", "UOP 588", "Permanax 6PPD", "DMBPD", "CD 13", "Dusantox 6PPD", "Antioxidant CD 13", "Antage 6C", "Forte 6C", "Diafen FDMB", "N-Phenyl-N\u2032-(1,3-dimethylbutyl)-1,4-phenylenediamine", "Santoflex 6PPD", "6PPD", "Flexzone 7P", "Vulkanox 4020LG", "Pilflex 13", "Accinox ZC", "N-(1,3-Dimethylbutyl)-N\u2032-phenyl-1,4-benzenediamine", "4-(1,3-Dimethylbutylamino)diphenylamine", "Ozonone 6C", "CI", "Luvomaxx 6PPD", "Antigene 6C", "Nocceler 6C", "Antioxidant 6C", "Kumanox 13", "Antioxidant PD 2", "PD 2", "1-N-(4-Methylpentan-2-yl)-4-N-phenylbenzene-1,4-diamine", "Kumanox 13C", "Sunsine 6PPD", "Stangard 6PPD"], "SMILES": "N(C1=CC=C(NC(CC(C)C)C)C=C1)C2=CC=CC=C2", "physical_data": {"Molecular Weight": "268.40", "Molecular Formula": "C18H24N2", "Melting Point": "50 \u00b0C", "Density": "1.07 g/cm\u00b3"}}