{"cas_no": "793-19-1", "cn_name": "3,3'-(\u82c4\u57fa\u4e9a\u6c28\u57fa)\u4e8c\u4e19\u9178\u4e8c\u7532\u916f", "en_name": ["N-(3-Methoxy-3-oxopropyl)-N-(phenylmethyl)-\u03b2-alanine methyl ester", "\u03b2-Alanine, N-(3-methoxy-3-oxopropyl)-N-(phenylmethyl)-, methyl ester", "Propionic acid, 3,3\u2032-(benzylimino)di-, dimethyl ester", "N-(3-Methoxy-3-oxopropyl)-N-(phenylmethyl)-\u03b2-alanine methyl ester", "3,3\u2032-(Benzylimino)dipropionic acid dimethyl ester", "NSC 54971", "N,N-Bis[2-(methoxycarbonyl)ethyl]benzylamine", "Dimethyl 3,3\u2032-(benzylazanediyl)dipropanoate"], "SMILES": "N(CC1=CC=CC=C1)(CCC(OC)=O)CCC(OC)=O", "physical_data": {"Molecular Weight": "279.33", "Molecular Formula": "C15H21NO4", "Boiling Point": "150-161 \u00b0C @ Press: 0.6 Torr"}}