{"cas_no": "79307-93-0", "cn_name": "\u76d0\u9178\u6c2e\u5353\u65af\u6c40", "en_name": ["Azelastine hydrochloride", "1(2H)-Phthalazinone, 4-[(4-chlorophenyl)methyl]-2-(hexahydro-1-methyl-1H-azepin-4-yl)-, hydrochloride (1:1)", "1(2H)-Phthalazinone, 4-[(4-chlorophenyl)methyl]-2-(hexahydro-1-methyl-1H-azepin-4-yl)-, monohydrochloride", "Azelastine hydrochloride", "A 5610", "Azeptin", "E 0659", "Allergodil", "Astelin", "Rhinolast", "W 2979M", "Optivar", "Astepro", "Zalastine", "Azelast", "A 7611", "Prestw 1130"], "SMILES": "C(C=1C=2C(C(=O)N(N1)C3CCCN(C)CC3)=CC=CC2)C4=CC=C(Cl)C=C4.Cl", "physical_data": {"Molecular Weight": "", "Molecular Formula": "C22H24ClN3O.ClH", "Melting Point": "225-229 \u00b0C"}}