{"cas_no": "79349-82-9", "cn_name": "7-\u6c28\u57fa-3-\u4e59\u70ef\u57fa-3-\u5934\u5b62\u73af-4-\u7fa7\u9178", "en_name": ["(6R,7R)-7-Amino-3-ethenyl-8-oxo-5-thia-1-azabicyclo[4.2.0]oct-2-ene-2-carboxylic acid", "5-Thia-1-azabicyclo[4.2.0]oct-2-ene-2-carboxylic acid, 7-amino-3-ethenyl-8-oxo-, (6R,7R)-", "5-Thia-1-azabicyclo[4.2.0]oct-2-ene-2-carboxylic acid, 7-amino-3-ethenyl-8-oxo-, (6R-trans)-", "(6R,7R)-7-Amino-3-ethenyl-8-oxo-5-thia-1-azabicyclo[4.2.0]oct-2-ene-2-carboxylic acid", "7-Amino-3-vinyl-3-cephem-4-carboxylic acid"], "SMILES": "C(O)(=O)C=1N2C(C(N)C2=O)SCC1C=C", "physical_data": {"Molecular Weight": "226.25", "Molecular Formula": "C9H10N2O3S", "Melting Point": "&gt;200 \u00b0C (decomp)"}}