{"cas_no": "79352-78-6", "cn_name": "\u53bb\u4e59\u57fa\u963f\u83ab\u5730\u55b9", "en_name": ["Desethylamodiaquine", "Phenol, 4-[(7-chloro-4-quinolinyl)amino]-2-[(ethylamino)methyl]-", "4-[(7-Chloro-4-quinolinyl)amino]-2-[(ethylamino)methyl]phenol", "Monodesethylamodiaquine", "N-Desethylamodiaquine", "Desethylamodiaquine"], "SMILES": "N(C=1C2=C(N=CC1)C=C(Cl)C=C2)C3=CC(CNCC)=C(O)C=C3", "physical_data": {"Molecular Weight": "327.81", "Molecular Formula": "C18H18ClN3O", "Melting Point": "177-178 \u00b0C"}}