{"cas_no": "79383-44-1", "cn_name": "\u7532\u57fa2-\u7532\u6c27\u57fa-6-\u7532\u57fa\u82ef\u7532\u9178\u916f", "en_name": ["Benzoic acid, 2-methoxy-6-methyl-, methyl ester", "Benzoic acid, 2-methoxy-6-methyl-, methyl ester", "o-Anisic acid, 6-methyl-, methyl ester", "Methyl 2-methoxy-6-methylbenzoate"], "SMILES": "C(OC)(=O)C1=C(OC)C=CC=C1C", "physical_data": {"Molecular Weight": "180.20", "Molecular Formula": "C10H12O3", "Boiling Point": "95-96 \u00b0C @ Press: 0.5 Torr"}}