{"cas_no": "794-94-5", "cn_name": "4-\u7532\u6c27\u57fa\u7f9f\u82ef\u7532\u9178\u9150", "en_name": ["Benzoic acid, 4-methoxy-, 1,1\u2032-anhydride", "Benzoic acid, 4-methoxy-, 1,1\u2032-anhydride", "p-Anisic anhydride", "Benzoic acid, 4-methoxy-, anhydride", "p-Methoxybenzoic anhydride", "p-Anisic acid anhydride", "4-Methoxybenzoic anhydride", "NSC 101011", "4-Methoxybenzoic acid anhydride", "(4-Methoxybenzoyl) 4-methoxybenzoate"], "SMILES": "C(OC(=O)C1=CC=C(OC)C=C1)(=O)C2=CC=C(OC)C=C2", "physical_data": {"Molecular Weight": "286.28", "Molecular Formula": "C16H14O5", "Boiling Point": "304-310 \u00b0C @ Press: 10 Torr", "Melting Point": "98.5-98.8 \u00b0C"}}