{"cas_no": "79416-27-6", "cn_name": "5-\u6c28\u57fa\u916e\u620a\u9178\u7532\u916f\u76d0\u9178\u76d0", "en_name": ["Pentanoic acid, 5-amino-4-oxo-, methyl ester, hydrochloride (1:1)", "Pentanoic acid, 5-amino-4-oxo-, methyl ester, hydrochloride (1:1)", "Pentanoic acid, 5-amino-4-oxo-, methyl ester, hydrochloride", "Methyl 5-aminolevulinate hydrochloride", "Methyl 5-amino-4-oxopentanoate hydrochloride", "P 1202", "Methyl aminolevulinate hydrochloride", "Metvix", "5-Amino-4-oxopentanoic acid methyl ester hydrochloride", "\u03b4-Aminolevulinic acid methyl ester hydrochloride", "5-Aminolevulinic acid methyl ester hydrochloride", "Methyl ALA ester hydrochloride"], "SMILES": "C(CCC(OC)=O)(CN)=O.Cl", "physical_data": {"Molecular Weight": "", "Molecular Formula": "C6H11NO3.ClH", "Melting Point": "119.0-121.0 \u00b0C"}}