{"cas_no": "79422-73-4", "cn_name": "2-\u6c28\u57fa-2-(3-\u6eb4\u82ef\u57fa)\u4e59\u9178", "en_name": ["\u03b1-Amino-3-bromobenzeneacetic acid", "Benzeneacetic acid, \u03b1-amino-3-bromo-", "\u03b1-Amino-3-bromobenzeneacetic acid", "(Amino)(3-bromophenyl)acetic acid"], "SMILES": "C(C(O)=O)(N)C1=CC(Br)=CC=C1", "physical_data": {"Molecular Weight": "230.06", "Molecular Formula": "C8H8BrNO2", "Melting Point": "231-232 \u00b0C"}}