{"cas_no": "79456-34-1", "cn_name": "2-\u6c28\u57fa-3-\u4e09\u6c1f\u7532\u57fa-5-\u6eb4\u5421\u5576", "en_name": ["5-Bromo-3-(trifluoromethyl)pyridin-2-amine", "2-Pyridinamine, 5-bromo-3-(trifluoromethyl)-", "5-Bromo-3-(trifluoromethyl)-2-pyridinamine", "(5-Bromo-3-trifluoromethylpyridin-2-yl)amine", "5-Bromo-3-(trifluoromethyl)pyridin-2-amine", "2-Amino-5-bromo-3-(trifluoromethyl)pyridine"], "SMILES": "C(F)(F)(F)C1=C(N)N=CC(Br)=C1", "physical_data": {"Molecular Weight": "241.01", "Molecular Formula": "C6H4BrF3N2", "Melting Point": "91-93 \u00b0C"}}