{"cas_no": "79463-77-7", "cn_name": "N-\u6c30\u57fa\u7fb0\u4e9a\u80fa\u4e8c\u82ef\u57fa\u916f", "en_name": ["Diphenyl cyanocarbonimidate", "Carbonimidic acid, N-cyano-, diphenyl ester", "Carbonimidic acid, cyano-, diphenyl ester", "Diphenyl N-cyanoimidocarbonate", "Diphenyl cyanocarbonimidate", "Diphenyl N-cyanocarbonimidate", "Diphenoxymethylenecyanamide", "N-Cyanocarbonimidic acid diphenyl ester"], "SMILES": "C(OC1=CC=CC=C1)(OC2=CC=CC=C2)=NC#N", "physical_data": {"Molecular Weight": "238.24", "Molecular Formula": "C14H10N2O2", "Melting Point": "156-158 \u00b0C"}}