{"cas_no": "79498-31-0", "cn_name": "\u84dd\u843c\u7532\u7d20", "en_name": ["Glaucocalyxin A", "Kaur-16-ene-3,15-dione, 7,14-dihydroxy-, (7\u03b1,14R)-", "7H-2,10a-Ethanophenanthrene, kaur-16-ene-3,15-dione deriv.", "(7\u03b1,14R)-7,14-Dihydroxykaur-16-ene-3,15-dione", "Leukamenin F", "Glaucocalyxin A", "Wangzaozin B", "Leucamenin F"], "SMILES": "OC1C23C(C4(C)C(CC2O)C(C)(C)C(=O)CC4)CCC1C(=C)C3=O", "physical_data": {"Molecular Weight": "332.43", "Molecular Formula": "C20H28O4", "Melting Point": "219.5-220.5 \u00b0C"}}