{"cas_no": "79491-45-5", "cn_name": "2,6-\u4e8c\u6eb4-3-\u7532\u6c27\u57fa\u5421\u5576", "en_name": ["2,6-Dibromo-3-methoxypyridine", "Pyridine, 2,6-dibromo-3-methoxy-", "2,6-Dibromo-3-methoxypyridine"], "SMILES": "O(C)C1=C(Br)N=C(Br)C=C1", "physical_data": {"Molecular Weight": "266.92", "Molecular Formula": "C6H5Br2NO", "Melting Point": "99-100 \u00b0C"}}