{"cas_no": "79538-03-7", "cn_name": "2,3,5,6-\u56db\u6c1f-4-\u7532\u57fa\u82ef\u7532\u9187", "en_name": ["4-Methyl-2,3,5,6-tetrafluorobenzyl alcohol", "Benzenemethanol, 2,3,5,6-tetrafluoro-4-methyl-", "2,3,5,6-Tetrafluoro-4-methylbenzenemethanol", "2,3,5,6-Tetrafluoro-4-methylbenzyl alcohol", "4-Methyl-2,3,5,6-tetrafluorobenzyl alcohol"], "SMILES": "C(O)C1=C(F)C(F)=C(C)C(F)=C1F", "physical_data": {"Molecular Weight": "194.13", "Molecular Formula": "C8H6F4O", "Melting Point": "50-51 \u00b0C"}}