{"cas_no": "79540-50-4", "cn_name": "\u4e59\u6c27\u82ef\u8349\u80fa", "en_name": ["Etobenzanid", "Benzamide, N-(2,3-dichlorophenyl)-4-(ethoxymethoxy)-", "N-(2,3-Dichlorophenyl)-4-(ethoxymethoxy)benzamide", "Hw 52", "Etobenzanid", "Benzchlomet"], "SMILES": "N(C(=O)C1=CC=C(OCOCC)C=C1)C2=C(Cl)C(Cl)=CC=C2", "physical_data": {"Molecular Weight": "340.20", "Molecular Formula": "C16H15Cl2NO3", "Melting Point": "92.5 \u00b0C"}}