{"cas_no": "79559-97-0", "cn_name": "\u76d0\u9178\u820d\u66f2\u6797", "en_name": ["Sertraline hydrochloride", "1-Naphthalenamine, 4-(3,4-dichlorophenyl)-1,2,3,4-tetrahydro-N-methyl-, hydrochloride (1:1), (1S,4S)-", "1-Naphthalenamine, 4-(3,4-dichlorophenyl)-1,2,3,4-tetrahydro-N-methyl-, hydrochloride, (1S-cis)-", "1-Naphthalenamine, 4-(3,4-dichlorophenyl)-1,2,3,4-tetrahydro-N-methyl-, hydrochloride, (1S,4S)-", "Sertraline hydrochloride", "Zoloft", "Atruline", "Altruline", "Lesefer", "Lustral", "Sosser", "Zolof", "Dominum", "Gladem", "Cp 51974-1", "(1S,4S)-4-(3,4-Dichlorophenyl)-1,2,3,4-tetrahydro-N-methyl-1-naphthaleneamine hydrochloride", "(1S,4S)-4-(3,4-Dichlorophenyl)-1,2,3,4-tetrahydro-N-methyl-1-naphthalenamine hydrochloride", "Aremis", "Selectra", "(1S,4S)-N-Methyl-4-(3,4-dichlorophenyl)-1,2,3,4-tetrahydro-1-naphthalenamine hydrochloride", "(1S,4S)-4-(3,4-Dichlorophenyl)-1,2,3,4-tetrahydro-N-methyl-1-naphthalenamine hydrochloride", "Stimuloton", "Seserine", "Serlift", "Sirto", "Jzoloft"], "SMILES": "N(C)C1C=2C(C(CC1)C3=CC(Cl)=C(Cl)C=C3)=CC=CC2.Cl", "physical_data": {"Molecular Weight": "", "Molecular Formula": "C17H17Cl2N.ClH", "Melting Point": "243-245 \u00b0C"}}