{"cas_no": "79560-19-3", "cn_name": "4-(3,4-\u4e8c\u6c2f\u82ef\u57fa)-1-\u56db\u6c22\u8418\u916e", "en_name": ["4-(3,4-Dichlorophenyl)-3,4-dihydro-1(2H)-naphthalenone", "1(2H)-Naphthalenone, 4-(3,4-dichlorophenyl)-3,4-dihydro-", "4-(3,4-Dichlorophenyl)-3,4-dihydro-1(2H)-naphthalenone", "(\u00b1)-(3,4-Dichlorophenyl)-3,4-dihydro-1(2H)-naphthalenone", "4-(3,4-Dichlorophenyl)-1-tetralone", "Sertraline tetralone", "4-(3,4-Dichlorophenyl)-1-oxo-1,2,3,4-tetrahydronaphthalene", "Sertralone", "4-(3,4-Dichlorophenyl)-1,2,3,4-tetrahydro-1-naphthalenone", "4-(3,4-Dichlorophenyl)-3,4-dihydro-1(2H)-naphthalone", "CP 52608", "4-(3,4-Dichlorophenyl)tetralin-1-one", "Rac-tetralone"], "SMILES": "O=C1C=2C(C(CC1)C3=CC(Cl)=C(Cl)C=C3)=CC=CC2", "physical_data": {"Molecular Weight": "291.17", "Molecular Formula": "C16H12Cl2O", "Melting Point": "99-101 \u00b0C"}}