{"cas_no": "79592-91-9", "cn_name": "\u8349\u4e4c\u7532\u7d20", "en_name": ["Crassicauline A", "Aconitane-8,13,14-triol, 20-ethyl-1,6,16-trimethoxy-4-(methoxymethyl)-, 8-acetate 14-(4-methoxybenzoate), (1\u03b1,6\u03b1,14\u03b1,16\u03b2)-", "2H-12,3,6a-Ethanylylidene-7,9-methanonaphth[2,3-b]azocine, aconitane-8,13,14-triol deriv.", "Crassicauline A", "Crassicauline I", "3-Deoxyyunaconitine", "Crassicaulin A"], "SMILES": "O(C)C1C23C4C5C(OC(C)=O)(C6C2N(CC)CC(COC)(C3C6OC)CC1)CC(OC)C(O)(C4)C5OC(=O)C7=CC=C(OC)C=C7", "physical_data": {"Molecular Weight": "643.76", "Molecular Formula": "C35H49NO10", "Melting Point": "162.5-164.5 \u00b0C"}}