{"cas_no": "796-77-0", "cn_name": "4-[2 -(\u4e8c\u4e59\u6c28\u57fa)\u4e59\u6c27\u57fa]\u82ef\u7532\u916e", "en_name": ["[4-[2-(Diethylamino)ethoxy]phenyl]phenylmethanone", "Methanone, [4-[2-(diethylamino)ethoxy]phenyl]phenyl-", "Benzophenone, 4-[2-(diethylamino)ethoxy]-", "[4-[2-(Diethylamino)ethoxy]phenyl]phenylmethanone", "4-[2-(Diethylamino)ethoxy]benzophenone", "4-(\u03b2-Diethylaminoethoxy)benzophenone", "[2-(4-Benzoylphenoxy)ethyl]diethylamine"], "SMILES": "C(=O)(C1=CC=C(OCCN(CC)CC)C=C1)C2=CC=CC=C2", "physical_data": {"Molecular Weight": "297.39", "Molecular Formula": "C19H23NO2", "Boiling Point": "230 \u00b0C @ Press: 3 Torr"}}