{"cas_no": "796090-24-9", "cn_name": "6-\u6c2f-3-\u4e09\u6c1f\u7532\u57fa\u5421\u5576-2-\u7532\u9178", "en_name": ["6-Chloro-3-(trifluoromethyl)-2-pyridinecarboxylic acid", "2-Pyridinecarboxylic acid, 6-chloro-3-(trifluoromethyl)-", "6-Chloro-3-(trifluoromethyl)-2-pyridinecarboxylic acid", "6-Chloro-3-trifluoromethylpyridine-2-carboxylic acid"], "SMILES": "C(O)(=O)C1=C(C(F)(F)F)C=CC(Cl)=N1", "physical_data": {"Molecular Weight": "225.55", "Molecular Formula": "C7H3ClF3NO2", "Melting Point": "109-110 \u00b0C"}}