{"cas_no": "79603-03-5", "cn_name": "4-\u6eb4-2-\u785d\u57fa\u82ef\u7532\u8148", "en_name": ["4-Bromo-2-nitrobenzonitrile", "Benzonitrile, 4-bromo-2-nitro-", "4-Bromo-2-nitrobenzonitrile", "NSC 158356"], "SMILES": "N(=O)(=O)C1=C(C#N)C=CC(Br)=C1", "physical_data": {"Molecular Weight": "227.01", "Molecular Formula": "C7H3BrN2O2", "Melting Point": "98-99 \u00b0C"}}