{"cas_no": "79617-96-2", "cn_name": "\u820d\u66f2\u6797", "en_name": ["Sertraline", "1-Naphthalenamine, 4-(3,4-dichlorophenyl)-1,2,3,4-tetrahydro-N-methyl-, (1S,4S)-", "1-Naphthalenamine, 4-(3,4-dichlorophenyl)-1,2,3,4-tetrahydro-N-methyl-, (1S-cis)-", "(1S,4S)-4-(3,4-Dichlorophenyl)-1,2,3,4-tetrahydro-N-methyl-1-naphthalenamine", "CP 51974", "Sertraline", "(+)-Sertraline", "(1S,4S)-4-(3,4-Dichlorophenyl)-1,2,3,4-tetrahydro-N-methyl-1-naphthaleneamine", "MeSH ID: D020280"], "SMILES": "N(C)C1C=2C(C(CC1)C3=CC(Cl)=C(Cl)C=C3)=CC=CC2", "physical_data": {"Molecular Weight": "306.23", "Molecular Formula": "C17H17Cl2N", "Melting Point": "84 \u00b0C"}}