{"cas_no": "79622-59-6", "cn_name": "\u6c1f\u5576\u80fa", "en_name": ["Fluazinam", "2-Pyridinamine, 3-chloro-N-[3-chloro-2,6-dinitro-4-(trifluoromethyl)phenyl]-5-(trifluoromethyl)-", "3-Chloro-N-[3-chloro-2,6-dinitro-4-(trifluoromethyl)phenyl]-5-(trifluoromethyl)-2-pyridinamine", "N-(3-Chloro-5-trifluoromethyl-2-pyridyl)-2,6-dinitro-3-chloro-4-trifluoromethylaniline", "PP 192", "IKF 1216", "Shirlan Flow", "Fluazinam", "Frowncide", "ASC 67178", "ASC 66825", "Shirlan", "Shirlan (Zeneca)", "Altima", "Frowncide SC", "Omega", "Omega (pesticide)", "Sekoya", "Mapro", "Ohayo", "Zignal", "3-Chloro-N-(3-chloro-5-trifluoromethyl-2-pyridyl)-\u03b1,\u03b1,\u03b1-trifluoro-2,6-dinitro-p-toluidine", "Lektivar 40SC"], "SMILES": "N(C1=C(N(=O)=O)C(Cl)=C(C(F)(F)F)C=C1N(=O)=O)C2=C(Cl)C=C(C(F)(F)F)C=N2", "physical_data": {"Molecular Weight": "465.09", "Molecular Formula": "C13H4Cl2F6N4O4", "Melting Point": "113 \u00b0C"}}