{"cas_no": "79636-94-5", "cn_name": "5-\u6eb4-2-\u4e59\u6c27\u57fa\u82ef\u7532\u919b", "en_name": ["5-Bromo-2-ethoxybenzaldehyde", "Benzaldehyde, 5-bromo-2-ethoxy-", "5-Bromo-2-ethoxybenzaldehyde", "NSC 157341"], "SMILES": "O(CC)C1=C(C=O)C=C(Br)C=C1", "physical_data": {"Molecular Weight": "229.07", "Molecular Formula": "C9H9BrO2", "Melting Point": "63-64 \u00b0C"}}