{"cas_no": "79642-50-5", "cn_name": "\u53cc\u7425\u73c0\u9170\u4e9a\u80fa\u620a\u4e8c\u9178\u916f", "en_name": ["Disuccinimidyl glutarate", "Pentanedioic acid, 1,5-bis(2,5-dioxo-1-pyrrolidinyl) ester", "2,5-Pyrrolidinedione, 1,1\u2032-[(1,5-dioxo-1,5-pentanediyl)bis(oxy)]bis-", "Disuccinimidyl glutarate", "DSG Crosslinker", "N,N\u2032-Disuccinimidyl glutarate", "Di(N-succinimidyl)glutarate"], "SMILES": "O(C(CCCC(ON1C(=O)CCC1=O)=O)=O)N2C(=O)CCC2=O", "physical_data": {"Molecular Weight": "326.26", "Molecular Formula": "C13H14N2O8", "Melting Point": "168-172 \u00b0C"}}