{"cas_no": "79669-50-4", "cn_name": "2-\u7532\u57fa-5-\u6eb4\u82ef\u7532\u9178\u7532\u916f", "en_name": ["Methyl 5-bromo-2-methylbenzoate", "Benzoic acid, 5-bromo-2-methyl-, methyl ester", "o-Toluic acid, 5-bromo-, methyl ester", "Methyl 5-bromo-o-toluate", "Methyl 3-bromo-6-methylbenzoate", "Methyl 5-bromo-2-methylbenzoate", "NSC 243705", "5-Bromo-2-methylbenzoic acid methyl ester"], "SMILES": "C(OC)(=O)C1=C(C)C=CC(Br)=C1", "physical_data": {"Molecular Weight": "229.07", "Molecular Formula": "C9H9BrO2", "Melting Point": "45-47 \u00b0C"}}