{"cas_no": "79660-72-3", "cn_name": "\u6c1f\u7f57\u6c99\u661f", "en_name": ["Fleroxacin", "3-Quinolinecarboxylic acid, 6,8-difluoro-1-(2-fluoroethyl)-1,4-dihydro-7-(4-methyl-1-piperazinyl)-4-oxo-", "6,8-Difluoro-1-(2-fluoroethyl)-1,4-dihydro-7-(4-methyl-1-piperazinyl)-4-oxo-3-quinolinecarboxylic acid", "Ro 23-6240", "AM 833", "Fleroxacin", "Megalocin", "Flerofloxacin", "Quinodis", "Ro 23-6240/000", "Megalone", "MeSH ID: D016576"], "SMILES": "C(CF)N1C=2C(C(=O)C(C(O)=O)=C1)=CC(F)=C(C2F)N3CCN(C)CC3", "physical_data": {"Molecular Weight": "369.34", "Molecular Formula": "C17H18F3N3O3", "Melting Point": "270 \u00b0C (decomp)"}}