{"cas_no": "79660-46-1", "cn_name": "6,7,8-\u4e09\u6c1f-1,4-\u4e8c\u6c22-4-\u6c27\u4ee3-3-\u55b9\u5549\u7fa7\u9178\u4e59\u916f", "en_name": ["Ethyl 6,7,8-trifluoro-1,4-dihydro-4-oxoquinoline-3-carboxylate", "3-Quinolinecarboxylic acid, 6,7,8-trifluoro-1,4-dihydro-4-oxo-, ethyl ester", "DM 7", "Ethyl 6,7,8-trifluoro-1,4-dihydro-4-oxoquinoline-3-carboxylate", "DM 7 (pharmaceutical)"], "SMILES": "O=C1C=2C(NC=C1C(OCC)=O)=C(F)C(F)=C(F)C2", "physical_data": {"Molecular Weight": "271.19", "Molecular Formula": "C12H8F3NO3", "Melting Point": "279-280 \u00b0C (sublm)"}}