{"cas_no": "796967-16-3", "cn_name": "\u5229\u5c3c\u4f10\u5c3c", "en_name": ["Linifanib", "Urea, N-[4-(3-amino-1H-indazol-4-yl)phenyl]-N\u2032-(2-fluoro-5-methylphenyl)-", "N-[4-(3-Amino-1H-indazol-4-yl)phenyl]-N\u2032-(2-fluoro-5-methylphenyl)urea", "ABT 869", "Linifanib", "Linigfanib", "RG 3635", "AL 39324", "1-[4-(3-Amino-1H-indazol-4-yl)phenyl]-3-(2-fluoro-5-methylphenyl)urea"], "SMILES": "NC=1C2=C(C=CC=C2NN1)C3=CC=C(NC(NC4=C(F)C=CC(C)=C4)=O)C=C3", "physical_data": {"Molecular Weight": "375.40", "Molecular Formula": "C21H18FN5O", "Melting Point": "209-211 \u00b0C"}}