{"cas_no": "797-63-7", "cn_name": "\u5de6\u7094\u8bfa\u5b55\u916e", "en_name": ["Levonorgestrel", "18,19-Dinorpregn-4-en-20-yn-3-one, 13-ethyl-17-hydroxy-, (17\u03b1)-", "18,19-Dinor-17\u03b1-pregn-4-en-20-yn-3-one, 13-ethyl-17-hydroxy-", "(17\u03b1)-13-Ethyl-17-hydroxy-18,19-dinorpregn-4-en-20-yn-3-one", "13-Ethyl-17\u03b1-ethynylgon-4-en-17\u03b2-ol-3-one", "13\u03b2-Ethyl-17\u03b1-ethynyl-17\u03b2-hydroxygon-4-en-3-one", "19-Nortestosterone, 17-ethynyl-18-methyl-", "17\u03b2-Hydroxy-18-methyl-19-nor-17\u03b1-pregn-4-en-20-yn-3-one", "18-Methyl-17\u03b1-ethynyl-19-nortestosterone", "17\u03b1-Ethynyl-17-hydroxy-18-methylestr-4-en-3-one", "17\u03b1-Ethynyl-18-methyl-19-nortestosterone", "13-Ethyl-17\u03b1-ethynyl-17-hydroxygon-4-en-3-one", "13-Ethyl-17-hydroxy-18,19-dinor-17\u03b1-pregn-4-en-20-yn-3-one", "17\u03b1-Ethynyl-18-homo-19-nortestosterone", "13-Ethyl-17-ethynyl-17\u03b2-hydroxy-4-gonen-3-one", "17\u03b1-Ethynyl-13\u03b2-ethyl-3-oxo-4-estren-17\u03b2-ol", "Levonorgestrel", "17\u03b1-Ethynyl-13-ethyl-19-nortestosterone", "Norplant", "Follistrel", "D-(-)-Norgestrel", "Norplant 2", "18-Methylnorethindrone", "Microluton", "(-)-Norgestrel", "D-Norgestrel", "Norplant II", "Levonova", "Jadelle", "Norlevo", "Mirena", "Norgestrelem", "Wy 5104", "Microlut", "Norgeston", "Dexnorgestrel", "Microval", "Postinor 2", "Lng-IUS", "d-(17\u03b1)-17-Hydroxy-13-ethyl-18,19-dinorpregn-4-en-20-yn-3-one", "Femilis", "Femilis Slim", "Sino-implant (II)", "Plan B One-Step", "Skyla", "Jaydess", "MeSH ID: D016912"], "SMILES": "C(C)C12C(C3C(CC1)C4C(CC3)=CC(=O)CC4)CCC2(C#C)O", "physical_data": {"Molecular Weight": "312.45", "Molecular Formula": "C21H28O2", "Melting Point": "235-237 \u00b0C"}}