{"cas_no": "797-70-6", "cn_name": "\u4e09(4-\u7532\u57fa\u82ef\u57fa)\u6c27\u5316\u81a6", "en_name": ["Tris(4-methylphenyl)phosphine oxide", "Phosphine oxide, tris(4-methylphenyl)-", "Phosphine oxide, tri-p-tolyl-", "Tris(4-methylphenyl)phosphine oxide", "Tri-p-tolylphosphine oxide", "Tris-p-tolylphosphine oxide", "Tri(p-methylphenyl)phosphine monoxide", "Tris(4-tolyl)phosphine oxide", "1-Bis(4-methylphenyl)phosphoryl-4-methylbenzene"], "SMILES": "P(=O)(C1=CC=C(C)C=C1)(C2=CC=C(C)C=C2)C3=CC=C(C)C=C3", "physical_data": {"Molecular Weight": "320.36", "Molecular Formula": "C21H21OP", "Melting Point": "143-144 \u00b0C"}}