{"cas_no": "79725-98-7", "cn_name": "\u66f2\u9178\u53cc\u68d5\u6988\u9178\u916f", "en_name": ["Kojic acid dipalmitate", "Hexadecanoic acid, 4-oxo-6-[[(1-oxohexadecyl)oxy]methyl]-4H-pyran-3-yl ester", "Kojic acid dipalmitate", "KAD 15", "(5-Hexadecanoyloxy-4-oxopyran-2-yl)methyl hexadecanoate", "Kojic dipalmitate"], "SMILES": "C(OC(CCCCCCCCCCCCCCC)=O)C1=CC(=O)C(OC(CCCCCCCCCCCCCCC)=O)=CO1", "physical_data": {"Molecular Weight": "618.93", "Molecular Formula": "C38H66O6", "Melting Point": "92-94 \u00b0C"}}