{"cas_no": "79752-03-7", "cn_name": "1-(3-\u785d\u57fa-10,11-\u4e8c\u6c22-5H-\u4e8c\u82ef\u5e76[b,f]\u6c2e\u6742\u5353-5-\u57fa)\u4e59\u916e", "en_name": ["1-(10,11-Dihydro-3-nitro-5H-dibenz[b,f]azepin-5-yl)ethanone", "Ethanone, 1-(10,11-dihydro-3-nitro-5H-dibenz[b,f]azepin-5-yl)-", "5H-Dibenz[b,f]azepine, 5-acetyl-10,11-dihydro-3-nitro-", "1-(10,11-Dihydro-3-nitro-5H-dibenz[b,f]azepin-5-yl)ethanone", "1-(3-Nitro-10,11-dihydro-5H-dibenzo[b,f]azepin-5-yl)ethanone"], "SMILES": "C(C)(=O)N1C=2C(CCC=3C1=CC=CC3)=CC=C(N(=O)=O)C2", "physical_data": {"Molecular Weight": "282.29", "Molecular Formula": "C16H14N2O3", "Melting Point": "157-158 \u00b0C"}}