{"cas_no": "79775-07-8", "cn_name": "L-4-\u7f9f\u812f\u6c28\u9178\u53d4\u4e01\u916f", "en_name": ["(4R)-4-(1,1-Dimethylethoxy)-L-proline", "L-Proline, 4-(1,1-dimethylethoxy)-, (4R)-", "L-Proline, 4-(1,1-dimethylethoxy)-, trans-", "(4R)-4-(1,1-Dimethylethoxy)-L-proline", "trans-4-tert-Butoxy-L-proline", "(2S,4R)-4-tert-Butoxypyrrolidine-2-carboxylic acid"], "SMILES": "O(C(C)(C)C)C1CC(C(O)=O)NC1", "physical_data": {"Molecular Weight": "187.24", "Molecular Formula": "C9H17NO3", "Melting Point": "204-206 \u00b0C"}}