{"cas_no": "79778-41-9", "cn_name": "\u5948\u7acb\u81a6\u9178", "en_name": ["Neridronate", "Phosphonic acid, P,P\u2032-(6-amino-1-hydroxyhexylidene)bis-", "Phosphonic acid, (6-amino-1-hydroxyhexylidene)bis-", "P,P\u2032-(6-Amino-1-hydroxyhexylidene)bis[phosphonic acid]", "6-Amino-1-hydroxyhexane-1,1-diphosphonic acid", "6-Amino-1-hydroxyhexylidenediphosphonic acid", "Neridronic acid", "6-Amino-1-hydroxyhexylidene-1,1-bis(phosphonic acid)", "Nerixia", "Neridronate", "(6-Amino-1-hydroxyhexane-1,1-diyl)diphosphonic acid"], "SMILES": "C(CCCCCN)(P(=O)(O)O)(P(=O)(O)O)O", "physical_data": {"Molecular Weight": "277.15", "Molecular Formula": "C6H17NO7P2", "Melting Point": "247-249 \u00b0C"}}