{"cas_no": "79794-75-5", "cn_name": "\u6c2f\u96f7\u4ed6\u5b9a", "en_name": ["Loratadine", "1-Piperidinecarboxylic acid, 4-(8-chloro-5,6-dihydro-11H-benzo[5,6]cyclohepta[1,2-b]pyridin-11-ylidene)-, ethyl ester", "11H-Benzo[5,6]cyclohepta[1,2-b]pyridine, 1-piperidinecarboxylic acid deriv.", "Sch 29851", "Loratadine", "Loratidine", "Klaritin", "Claritin", "Bonalerg", "Civeran", "Anhissen", "Claritine", "Clarityn", "Claratyne", "Cronopen", "Fristamin", "Histaloran", "Lertamine", "Lisino", "Loracert", "Clarityne", "Loranox", "Lorastine", "Loratyne", "Lorfast", "Lowadina", "Optimin", "Polaratyne", "Pylor", "Restamine", "Sensibit", "Sohotin", "Tadine", "Velodan", "Zeos", "Loradex", "Alavert", "Flonidan", "Klarifer", "Clarotadin", "Erolin", "Lomilan", "Symphoral", "Ethyl 4-(8-chloro-5,6-dihydro-11H-benzo[5,6]cyclohepta[1,2-b]pyridin-11-ylidene)piperidine-1-carboxylate", "MeSH ID: D017336"], "SMILES": "ClC=1C=C2C(C(C=3C(CC2)=CC=CN3)=C4CCN(C(OCC)=O)CC4)=CC1", "physical_data": {"Molecular Weight": "382.88", "Molecular Formula": "C22H23ClN2O2", "Melting Point": "134-136 \u00b0C"}}