{"cas_no": "798-61-8", "cn_name": "4',6,7-\u4e09\u7532\u6c27\u57fa\u5f02\u9ec4\u916e", "en_name": ["7-O-Methylafromosin", "4H-1-Benzopyran-4-one, 6,7-dimethoxy-3-(4-methoxyphenyl)-", "Isoflavone, 4\u2032,6,7-trimethoxy-", "6,7-Dimethoxy-3-(4-methoxyphenyl)-4H-1-benzopyran-4-one", "Texasin dimethyl ether", "7-O-Methylafromosin", "Afromosin 7-O-methyl ether"], "SMILES": "O=C1C=2C(=CC(OC)=C(OC)C2)OC=C1C3=CC=C(OC)C=C3", "physical_data": {"Molecular Weight": "312.32", "Molecular Formula": "C18H16O5", "Melting Point": "174-175 \u00b0C"}}