{"cas_no": "79815-20-6", "cn_name": "(S)-\u5432\u54da\u5549-2-\u7fa7\u9178", "en_name": ["(S)-Indoline-2-carboxylic acid", "1H-Indole-2-carboxylic acid, 2,3-dihydro-, (2S)-", "1H-Indole-2-carboxylic acid, 2,3-dihydro-, (S)-", "(2S)-2,3-Dihydro-1H-indole-2-carboxylic acid", "(S)-2-Carboxyindoline", "(-)-2,3-Dihydroindole-2-carboxylic acid", "(S)-Indoline-2-carboxylic acid", "(-)-(S)-2-Indolinecarboxylic acid", "L-Indoline-2-carboxylic acid", "(2S)-2,3-Dihydroindole-2-carboxylic acid", "(2S)-2,3-Dihydroindole-2-carboxylic acid", "(S)-2,3-Dihydro-1H-indole-2-carboxylic acid", "(S)-(-)-2-Indolinecarboxylic acid", "(2S)-2-Indolinecarboxylic acid", "(2S)-2,3-Dihydro-1H-indole-2-carboxylic acid"], "SMILES": "C(O)(=O)C1CC=2C(N1)=CC=CC2", "physical_data": {"Molecular Weight": "163.17", "Molecular Formula": "C9H9NO2", "Melting Point": "160-163 \u00b0C (decomp)"}}