{"cas_no": "79822-46-1", "cn_name": "3-\u7532\u6c27\u57fa-4-\u53d4\u4e01\u57fa\u82ef\u7532\u9178", "en_name": ["4-(1,1-Dimethylethyl)-3-methoxybenzoic acid", "Benzoic acid, 4-(1,1-dimethylethyl)-3-methoxy-", "m-Anisic acid, 4-tert-butyl-", "4-(1,1-Dimethylethyl)-3-methoxybenzoic acid", "4-tert-Butyl-3-methoxybenzoic acid", "3-Methoxy-4-t-butylbenzoic acid", "3-Methoxy-4-tert-butyl-Benzoic acid", "3-Methoxy-4-tert-butylbenzoicacid"], "SMILES": "O(C)C1=C(C(C)(C)C)C=CC(C(O)=O)=C1", "physical_data": {"Molecular Weight": "208.25", "Molecular Formula": "C12H16O3", "Melting Point": "150-151 \u00b0C"}}