{"cas_no": "79831-76-8", "cn_name": "\u6817\u7cbe\u80fa", "en_name": ["(+)-Castanospermine", "1,6,7,8-Indolizinetetrol, octahydro-, (1S,6S,7R,8R,8aR)-", "1,6,7,8-Indolizinetetrol, octahydro-, [1S-(1\u03b1,6\u03b2,7\u03b1,8\u03b2,8a\u03b2)]-", "(1S,6S,7R,8R,8aR)-Octahydro-1,6,7,8-indolizinetetrol", "Castanospermine", "(+)-Castanospermine", "NSC 614552"], "SMILES": "OC1C2N(CC(O)C1O)CCC2O", "physical_data": {"Molecular Weight": "189.21", "Molecular Formula": "C8H15NO4", "Melting Point": "202-208 \u00b0C (decomp)"}}