{"cas_no": "79886-50-3", "cn_name": "1,2,3,6-\u56db-O-\u6ca1\u98df\u5b50\u9170-\u0392-D-\u8461\u8404\u7cd6", "en_name": ["1,2,3,6-Tetra-O-galloyl-\u03b2-D-glucose", "\u03b2-D-Glucopyranose, 1,2,3,6-tetrakis(3,4,5-trihydroxybenzoate)", "1,2,3,6-Tetra-O-galloyl-\u03b2-D-glucopyranose", "\u03b2-D-Glucopyranose 1,2,3,6-tetragallate", "1(\u03b2),2,3,6-Tetra-O-galloylglucose", "1,2,3,6-Tetra-O-galloyl-\u03b2-D-glucose", "NP 003686", "Tetra-O-galloyl-\u03b2-D-glucose (TGG)", "Tetra-O-galloyl-\u03b2-D-glucose", "TGG"], "SMILES": "O(C(=O)C1=CC(O)=C(O)C(O)=C1)C2C(OC(=O)C3=CC(O)=C(O)C(O)=C3)C(O)C(COC(=O)C4=CC(O)=C(O)C(O)=C4)OC2OC(=O)C5=CC(O)=C(O)C(O)=C5", "physical_data": {"Molecular Weight": "788.57", "Molecular Formula": "C34H28O22", "Melting Point": "198-200 \u00b0C"}}