{"cas_no": "79887-10-8", "cn_name": "4-\u620a\u57fa\u82ef\u4e59\u7094", "en_name": ["4-Pentylphenylacetylene", "Benzene, 1-ethynyl-4-pentyl-", "1-Ethynyl-4-pentylbenzene", "4-Pentylphenylacetylene", "4-(1-Pentyl)phenylacetylene", "(4-Amylphenyl)acetylene", "4-n-Pentylphenylacetylene", "4-Ethynyl-1-pentylbenzene", "1-Pentyl-4-ethynylbenzene"], "SMILES": "C(CCCC)C1=CC=C(C#C)C=C1", "physical_data": {"Molecular Weight": "172.27", "Molecular Formula": "C13H16", "Melting Point": "&gt;240 \u00b0C (decomp)"}}