{"cas_no": "79902-63-9", "cn_name": "\u8f9b\u4f10\u4ed6\u6c40", "en_name": ["Simvastatin", "Butanoic acid, 2,2-dimethyl-, (1S,3R,7S,8S,8aR)-1,2,3,7,8,8a-hexahydro-3,7-dimethyl-8-[2-[(2R,4R)-tetrahydro-4-hydroxy-6-oxo-2H-pyran-2-yl]ethyl]-1-naphthalenyl ester", "Butanoic acid, 2,2-dimethyl-, 1,2,3,7,8,8a-hexahydro-3,7-dimethyl-8-[2-(tetrahydro-4-hydroxy-6-oxo-2H-pyran-2-yl)ethyl]-1-naphthalenyl ester, [1S-[1\u03b1,3\u03b1,7\u03b2,8\u03b2(2S*,4S*),8a\u03b2]]-", "Simvastatin", "MK 733", "L 644128-000U", "Zocor", "Synvinolin", "Velostatin", "(+)-Simvastatin", "Cholestat", "Lipex", "Denan", "Kolestevan", "Lipovas", "Lodales", "Modutrol", "Nor-Vastina", "Rechol", "Simovil", "Simvotin", "Sinvacor", "Sivastin", "Valemia", "Zocord", "Lipinorm", "Liponorm", "Eucor", "Sinvascor", "Simvastatin lactone", "Apo-Simvastatin", "Co-Simvastatin", "Novo-Simvastatin", "Pms-simvastatin", "Simlo 20", "Simlip 20", "Starstat 20", "Simi 20", "Zorced", "Simastin 20", "Bestatin 20", "Simlup 20", "Zosta", "Simvofix", "Zocor Forte", "Simvastol", "Simvas", "Simlip", "Simvasterol", "Vazilip", "Simvachol", "Lycostatin", "Vasilip", "Apo-Simva", "Egilipid", "Simcovas", "Simgal", "Simratio", "Simvacard", "Simvacor", "Simvahexal", "Vastan", "Ximve", "MeSH ID: D019821"], "SMILES": "O(C(C(CC)(C)C)=O)C1C2C(C=CC(C)C2CCC3CC(O)CC(=O)O3)=CC(C)C1", "physical_data": {"Molecular Weight": "418.57", "Molecular Formula": "C25H38O5", "Melting Point": "135-138 \u00b0C"}}