{"cas_no": "79917-90-1", "cn_name": "\u6c2f\u5316(1-\u4e01\u57fa-3-\u7532\u57fa\u54aa\u5511)", "en_name": ["1-Butyl-3-methylimidazolium chloride", "1H-Imidazolium, 3-butyl-1-methyl-, chloride (1:1)", "1H-Imidazolium, 1-butyl-3-methyl-, chloride", "1-Methyl-3-butylimidazolium chloride", "3-Butyl-1-methylimidazolium chloride", "1-Butyl-3-methylimidazolium chloride", "1-n-Butyl-3-methylimidazolium chloride", "1-Butyl-3-methyl-1H-imidazolium chloride", "[BMIM]Cl", "N-Butyl-N\u2032-methylimidazolium chloride", "1-Butyl-3-methylimidizolium chloride", "LM 1039", "Basionics ST 70", "[C4Mim]Cl", "[C4Mim+][Cl-]", "1-Butyl-3-methyiimidazoiium chloride"], "SMILES": "C(CCC)[N+]1=CN(C)C=C1.[Cl-]", "physical_data": {"Molecular Weight": "", "Molecular Formula": "C8H15N2.Cl", "Melting Point": "68.80 \u00b0C", "Density": "1.08 g/cm\u00b3 @ Temp: 25 \u00b0C"}}