{"cas_no": "79922-55-7", "cn_name": "2,2'-\u4e8c[4-(4-\u987a\u4e01\u70ef\u4e8c\u9170\u4e9a\u80fa\u82ef\u6c27\u57fa)\u82ef\u57fa]\u4e19\u70f7", "en_name": ["Bisphenol A diphenyl ether bismaleimide", "1H-Pyrrole-2,5-dione, 1,1\u2032-[(1-methylethylidene)bis(4,1-phenyleneoxy-4,1-phenylene)]bis-", "1,1\u2032-[(1-Methylethylidene)bis(4,1-phenyleneoxy-4,1-phenylene)]bis[1H-pyrrole-2,5-dione]", "MB 8000", "2,2-Bis[4-(4-maleimidophenoxy)phenyl]propane", "BMI-BAPP", "Bisphenol A bis(4-maleimidophenyl ether)", "DAPPI", "BBMI", "1-[4-[4-[1-[4-[4-(2,5-Dioxo-1-pyrrolidinyl)phenoxy]phenyl]-1-methylethyl]phenoxy]phenyl]-1H-pyrrole-2,5-dione", "2,2\u2032-Bis[4-(4-maleimidophenoxy)phenyl]propane", "Bisphenol A diphenyl ether bismaleimide", "BMI 80", "QY 8911-3", "BMI 4000", "2,2\u2032-[4-(4-Maleimidophenoxy)phenyl]propane", "2,2-Bis[4-(4\u2032-maleimidophenoxy)phenyl]propane", "KI 80", "1-[4-[4-[2-[4-[4-(2,5-Dioxopyrrol-1-yl)phenoxy]phenyl]propan-2-yl]phenoxy]phenyl]pyrrole-2,5-dione"], "SMILES": "O=C1N(C2=CC=C(OC3=CC=C(C(C)(C)C4=CC=C(OC5=CC=C(C=C5)N6C(=O)C=CC6=O)C=C4)C=C3)C=C2)C(=O)C=C1", "physical_data": {"Molecular Weight": "570.59", "Molecular Formula": "C35H26N2O6", "Melting Point": "142 \u00b0C"}}