{"cas_no": "79944-56-2", "cn_name": "\u76d0\u9178\u54aa\u5511\u514b\u751f", "en_name": ["Idazoxan hydrochloride", "1H-Imidazole, 2-(2,3-dihydro-1,4-benzodioxin-2-yl)-4,5-dihydro-, hydrochloride (1:1)", "1H-Imidazole, 2-(2,3-dihydro-1,4-benzodioxin-2-yl)-4,5-dihydro-, monohydrochloride", "1,4-Benzodioxin, 1H-imidazole deriv.", "RX 781094", "RX 781094A", "(\u00b1)-Idazoxan monohydrochloride", "Idazoxan hydrochloride", "2-(2,3-Dihydrobenzo[b][1,4]dioxin-2-yl)-4,5-dihydro-1H-imidazole hydrochloride"], "SMILES": "C1(OC=2C(OC1)=CC=CC2)C=3NCCN3.Cl", "physical_data": {"Molecular Weight": "", "Molecular Formula": "C11H12N2O2.ClH", "Melting Point": "205-207 \u00b0C"}}