{"cas_no": "79952-42-4", "cn_name": "\u8f9b\u4f10\u4ed6\u6c40\u5185\u916f\u4e8c\u9187", "en_name": ["Monacolin J", "2H-Pyran-2-one, 6-[2-[(1S,2S,6R,8S,8aR)-1,2,6,7,8,8a-hexahydro-8-hydroxy-2,6-dimethyl-1-naphthalenyl]ethyl]tetrahydro-4-hydroxy-, (4R,6R)-", "2H-Pyran-2-one, 6-[2-(1,2,6,7,8,8a-hexahydro-8-hydroxy-2,6-dimethyl-1-naphthalenyl)ethyl]tetrahydro-4-hydroxy-, [1S-[1\u03b1(4S*,6S*),2\u03b1,6\u03b2,8\u03b2,8a\u03b1]]-", "(4R,6R)-6-[2-[(1S,2S,6R,8S,8aR)-1,2,6,7,8,8a-Hexahydro-8-hydroxy-2,6-dimethyl-1-naphthalenyl]ethyl]tetrahydro-4-hydroxy-2H-pyran-2-one", "Monacolin J", "Antibiotic MB 530A", "Lovastatin diol lactone"], "SMILES": "C(CC1CC(O)CC(=O)O1)C2C3C(C=CC2C)=CC(C)CC3O", "physical_data": {"Molecular Weight": "320.42", "Molecular Formula": "C19H28O4", "Melting Point": "125-126 \u00b0C"}}