{"cas_no": "79983-71-4", "cn_name": "\u5df1\u5511\u9187", "en_name": ["Hexaconazole", "1H-1,2,4-Triazole-1-ethanol, \u03b1-butyl-\u03b1-(2,4-dichlorophenyl)-", "1H-1,2,4-Triazole-1-ethanol, \u03b1-butyl-\u03b1-(2,4-dichlorophenyl)-, (\u00b1)-", "\u03b1-Butyl-\u03b1-(2,4-dichlorophenyl)-1H-1,2,4-triazole-1-ethanol", "R 154523", "PP 523", "Hexaconazole", "Anvil", "FD 4053", "PC 1002", "Clortriafol", "Anvil L", "Contaf", "Contaf 5EC", "TDP", "(\u00b1)-Hexaconazole", "Anvil Liquid", "RS-2-(2,4-Dichlorophenyl)-1-(1H-1,2,4-triazol-1-yl)hexan-2-ol", "Sitara", "Flowmax 5SC", "Ranvil", "Blin Exa", "Canvil", "Contaf Plus", "Controll", "Hexadhan", "Samarth", "2-(2,4-Dichlorophenyl)-1-(1H-1,2,4-triazol-1-yl)hexan-2-ol", "Hexaconazole Technical"], "SMILES": "C(CN1C=NC=N1)(CCCC)(O)C2=C(Cl)C=C(Cl)C=C2", "physical_data": {"Molecular Weight": "314.21", "Molecular Formula": "C14H17Cl2N3O", "Melting Point": "111 \u00b0C"}}