{"cas_no": "799842-07-2", "cn_name": "5-(\u6eb4\u7532\u57fa)-4-(4-\u6c1f\u82ef\u57fa)-6-\u5f02\u4e19\u57fa-2-[\u7532\u57fa(\u7532\u78fa\u9170)\u6c28\u57fa]\u5627\u5576", "en_name": ["N-[5-(Bromomethyl)-4-(4-fluorophenyl)-6-(1-methylethyl)-2-pyrimidinyl]-N-methylmethanesulfonamide", "Methanesulfonamide, N-[5-(bromomethyl)-4-(4-fluorophenyl)-6-(1-methylethyl)-2-pyrimidinyl]-N-methyl-", "N-[5-(Bromomethyl)-4-(4-fluorophenyl)-6-(1-methylethyl)-2-pyrimidinyl]-N-methylmethanesulfonamide", "N-[5-Bromomethyl-4-(4-fluorophenyl)-6-isopropylpyrimidin-2-yl]-N-methylmethanesulfonamide", "5-(Bromomethyl)-4-(4-fluorophenyl)-6-isopropyl-2-[methyl(methylsulfonyl)amino]pyrimidine", "N-(4-(4-Fluorophenyl)-5-(bromomethyl)-6-isopropyl-pyrimidin-2-yl)-N-methyl-methanesulfonamide"], "SMILES": "C(Br)C=1C(=NC(N(S(C)(=O)=O)C)=NC1C(C)C)C2=CC=C(F)C=C2", "physical_data": {"Molecular Weight": "416.31", "Molecular Formula": "C16H19BrFN3O2S", "Melting Point": "141.8 \u00b0C"}}