{"cas_no": "79996-99-9", "cn_name": "1-\u6eb4-4-(\u6eb4\u7532\u57fa)\u8418", "en_name": ["1-Bromo-4-(bromomethyl)naphthalene", "Naphthalene, 1-bromo-4-(bromomethyl)-", "1-Bromo-4-(bromomethyl)naphthalene", "1-(Bromomethyl)-4-bromonaphthalene", "4-Bromo-1-(bromomethyl)naphthalene", "1-Bromo-4-bromomethylnaphthalene"], "SMILES": "C(Br)C=1C2=C(C(Br)=CC1)C=CC=C2", "physical_data": {"Molecular Weight": "299.99", "Molecular Formula": "C11H8Br2", "Boiling Point": "175-205 \u00b0C @ Press: 14 Torr", "Melting Point": "102-104 \u00b0C"}}