{"cas_no": "79995-67-8", "cn_name": "BLUMEATIN B", "en_name": ["Blumeatin B", "4H-1-Benzopyran-4-one, 2,3-dihydro-3,5-dihydroxy-2-(3-hydroxy-4-methoxyphenyl)-7-methoxy-, (2R,3R)-", "4H-1-Benzopyran-4-one, 2,3-dihydro-3,5-dihydroxy-2-(3-hydroxy-4-methoxyphenyl)-7-methoxy-, (2R-trans)-", "(2R,3R)-2,3-Dihydro-3,5-dihydroxy-2-(3-hydroxy-4-methoxyphenyl)-7-methoxy-4H-1-benzopyran-4-one", "Blumeatin B", "(+)-4\u2032,7-Dimethoxy-(2R,3R)-dihydroquercetin", "(+)-4\u2032,7-Di-O-methyl-(2R,3R)-dihydroquercetin", "(2R,3R)-dihydroquercetin-4\u2032,7-dimethyl ether"], "SMILES": "O=C1C=2C(OC(C1O)C3=CC(O)=C(OC)C=C3)=CC(OC)=CC2O", "physical_data": {"Molecular Weight": "332.30", "Molecular Formula": "C17H16O7", "Melting Point": "165-167 \u00b0C"}}