{"cas_no": "80-07-9", "cn_name": "4,4'-\u4e8c\u6c2f\u4e8c\u82ef\u781c", "en_name": ["4,4\u2032-Dichlorodiphenyl sulfone", "Benzene, 1,1\u2032-sulfonylbis[4-chloro-", "Sulfone, bis(p-chlorophenyl)", "1,1\u2032-Sulfonylbis[4-chlorobenzene]", "4-Chloro-1-(4-chlorophenylsulfonyl)benzene", "Bis(4-chlorophenyl) sulfone", "p,p\u2032-Dichlorodiphenyl sulfone", "Bis(p-chlorophenyl) sulfone", "p-Chlorophenyl sulfone", "4-Chlorophenyl sulfone", "4,4\u2032-Dichlorodiphenyl sulfone", "Di-p-chlorophenyl sulfone", "B 0810", "NSC 23899", "NSC 38759", "NSC 50730", "NSC 7207", "1-Chloro-4-(4-chlorophenyl)sulfonylbenzene", "1-Chloro-4-(4-chlorobenzenesulfonyl)benzene"], "SMILES": "S(=O)(=O)(C1=CC=C(Cl)C=C1)C2=CC=C(Cl)C=C2", "physical_data": {"Molecular Weight": "287.16", "Molecular Formula": "C12H8Cl2O2S", "Boiling Point": "186-187 \u00b0C @ Press: 0.7 Torr", "Melting Point": "147.9 \u00b0C"}}