{"cas_no": "80-08-0", "cn_name": "\u6c28\u82ef\u781c", "en_name": ["Dapsone", "Benzenamine, 4,4\u2032-sulfonylbis-", "Aniline, 4,4\u2032-sulfonyldi-", "4,4\u2032-Sulfonylbis[benzenamine]", "1358F", "F 1358", "Avlosulfon", "Avlosulfone", "Bis(4-aminophenyl) sulfone", "Croysulfone", "DADPS", "Dapsone", "DDS", "p,p\u2032-Diaminodiphenyl sulfone", "4,4\u2032-Diaminodiphenyl sulfone", "Di(p-aminophenyl) sulfone", "Diaphenylsulfone", "Di(4-aminophenyl)sulfone", "Diphenasone", "Diphone", "Disulone", "DSS", "Dumitone", "Eporal", "Metabolite C", "Novophone", "Sulfona-Mae", "p,p\u2032-Sulfonyldianiline", "4,4\u2032-Sulfonyldianiline", "Sulphadione", "4,4\u2032-Sulphonyldianiline", "Udolac", "DDS (pharmaceutical)", "Bis(p-aminophenyl) sulfone", "4-Aminophenyl sulfone", "4,4\u2032-Sulfonylbisbenzamine", "1,1\u2032-Sulfonylbis[4-aminobenzene]", "Sulfona", "p-Aminophenyl sulfone", "Diaphenylsulfon", "Dapson", "4,4\u2032-Sulfonylbisaniline", "HT 976", "Araldite HT 976", "Sumicure S", "Hardener HT 976", "4,4\u2032-Dapsone", "HT 9664", "Seikacure S", "NSC 6091", "HY 976", "Aradur 976-1", "HT 976-1", "Servidapson", "4,4\u2032-DDS", "4,4\u2032-Sulfonyldiphenylamine", "DADFS", "HB-MC-GE 40", "HB-MC-GE 45", "Lapox K 10", "Aczone", "Atrisone", "Aradur 9664-1", "4-(4-Aminophenylsulfonyl)benzenamine", "4-(4-Aminophenyl)sulfonylaniline", "Aradur 9761-1", "4,4\u2032-Diaminobiphenyl sulfone", "HEW 62", "Aradur 976", "D 0089", "Aradur 9664-1NL", "K 10", "44DDS", "Aradur 9664", "CD 107482", "Aradur 976-1NL", "MeSH ID: D003622"], "SMILES": "S(=O)(=O)(C1=CC=C(N)C=C1)C2=CC=C(N)C=C2", "physical_data": {"Molecular Weight": "248.30", "Molecular Formula": "C12H12N2O2S", "Melting Point": "175-176 \u00b0C", "Density": "1.392 g/cm\u00b3"}}