{"cas_no": "80-00-2", "cn_name": "\u6740\u87a8\u781c", "en_name": ["4-Chlorophenyl phenyl sulfone", "Benzene, 1-chloro-4-(phenylsulfonyl)-", "Sulfone, p-chlorophenyl phenyl", "1-Chloro-4-(phenylsulfonyl)benzene", "R 242", "4-Chlorodiphenyl sulfone", "p-Chlorophenyl phenyl sulfone", "Sulphenone", "4-Chlorophenyl phenyl sulfone", "Sulfenon", "p-Chlorodiphenyl sulfone", "NSC 404335", "1-(Benzenesulfonyl)-4-chlorobenzene"], "SMILES": "S(=O)(=O)(C1=CC=C(Cl)C=C1)C2=CC=CC=C2", "physical_data": {"Molecular Weight": "252.72", "Molecular Formula": "C12H9ClO2S", "Boiling Point": "382-386 \u00b0C", "Melting Point": "94 \u00b0C"}}