{"cas_no": "80-05-7", "cn_name": "\u53cc\u915aA", "en_name": ["2,2-Bis(4-hydroxyphenyl)propane", "Phenol, 4,4\u2032-(1-methylethylidene)bis-", "Phenol, 4,4\u2032-isopropylidenedi-", "4,4\u2032-(1-Methylethylidene)bis[phenol]", "2,2-Bis(p-hydroxyphenyl)propane", "2,2-Bis(4-hydroxyphenyl)propane", "Bisphenol A", "Dian", "2,2-Di(4-phenylol)propane", "p,p\u2032-Isopropylidenebisphenol", "p,p\u2032-Isopropylidenediphenol", "Diphenylolpropane", "Bis(4-hydroxyphenyl)dimethylmethane", "Diano", "Pluracol 245", "Isopropylidenebis(4-hydroxybenzene)", "(4,4\u2032-Dihydroxydiphenyl)dimethylmethane", "\u03b2,\u03b2\u2032-Bis(p-hydroxyphenyl)propane", "4,4\u2032-Isopropylidenebis[phenol]", "Bis(p-hydroxyphenyl)propane", "4,4\u2032-Isopropylidenediphenol", "Parabis A", "p,p\u2032-Dihydroxydiphenylpropane", "p,p\u2032-Bisphenol A", "Ipognox 88", "Rikabanol", "Parabis", "2,2-Di(4-hydroxyphenyl)propane", "BPA 154", "Hidorin F 285", "BPA 157", "2,2\u2032-Bis(4-hydroxyphenyl)propane", "4,4\u2032-Methylethylidenebisphenol", "B 0494", "NSC 1767", "NSC 17959", "HT 3082", "BPA", "BPA-M", "Hidorin F 568", "4,4\u2032-(Propane-2,2-diyl)diphenol", "Nupole BPE-60", "HG 3876"], "SMILES": "C(C)(C)(C1=CC=C(O)C=C1)C2=CC=C(O)C=C2", "physical_data": {"Molecular Weight": "228.29", "Molecular Formula": "C15H16O2", "Boiling Point": "250 \u00b0C @ Press: 13 Torr", "Melting Point": "150-155 \u00b0C", "Density": "1.195 g/cm\u00b3 @ Temp: 25 \u00b0C"}}