{"cas_no": "80-04-6", "cn_name": "\u6c22\u5316\u53cc\u915aA", "en_name": ["Hydrogenated bisphenol A", "Cyclohexanol, 4,4\u2032-(1-methylethylidene)bis-", "Cyclohexanol, 4,4\u2032-isopropylidenedi-", "4,4\u2032-(1-Methylethylidene)bis[cyclohexanol]", "HBPA", "2,2-Bis(4-hydroxycyclohexyl)propane", "Hydrogenated bisphenol A", "1,1\u2032-Isopropylidenebis[4-cyclohexanol]", "Dodecahydrobisphenol A", "Perhydrobisphenol A", "Hydrobisphenol A", "Rikabinol HB", "4,4\u2032-Isopropylidenedicyclohexanol", "NSC 8990", "NSC 8991", "NSC 8992", "HBPA (diol)", "4,4\u2032-(Propane-2,2-diyl)dicyclohexanol", "ST 4100DX60"], "SMILES": "C(C)(C)(C1CCC(O)CC1)C2CCC(O)CC2", "physical_data": {"Molecular Weight": "240.38", "Molecular Formula": "C15H28O2", "Melting Point": "110-140 \u00b0C"}}