{"cas_no": "80-09-1", "cn_name": "\u53cc\u915a S", "en_name": ["Bisphenol S", "Phenol, 4,4\u2032-sulfonylbis-", "Phenol, 4,4\u2032-sulfonyldi-", "4,4\u2032-Sulfonylbis[phenol]", "4,4\u2032-Sulfonyldiphenol", "4,4\u2032-Dihydroxydiphenyl sulfone", "Bisphenol S", "Bis(4-hydroxyphenyl) sulfone", "Bis(p-hydroxyphenyl) sulfone", "1,1\u2032-Sulfonylbis[4-hydroxybenzene]", "p,p\u2032-Dihydroxydiphenyl sulfone", "Diphone C", "4,4\u2032-Bisphenol S", "4-Hydroxyphenyl sulfone", "BPS 1", "BPS-N", "BS 3 (phenol)", "BPS-P", "BS 3", "4-(4-Hydroxyphenylsulfonyl)phenol", "Diphone A", "Diphone D", "NSC 683541", "NSC 8712", "Ex 1B", "BS-PN", "Dynamar FC 5166", "BPS-H", "D 8", "Bisphenol S sulfonic acid ester", "HC-DS", "Dynamar FC 5157E", "BPS-FF 1"], "SMILES": "S(=O)(=O)(C1=CC=C(O)C=C1)C2=CC=C(O)C=C2", "physical_data": {"Molecular Weight": "250.27", "Molecular Formula": "C12H10O4S", "Melting Point": "240.5 \u00b0C"}}