{"cas_no": "80-06-8", "cn_name": "\u6740\u87a8\u9187", "en_name": ["1,1-Bis(4-chlorophenyl)ethanol", "Benzenemethanol, 4-chloro-\u03b1-(4-chlorophenyl)-\u03b1-methyl-", "Benzhydrol, 4,4\u2032-dichloro-\u03b1-methyl-", "4-Chloro-\u03b1-(4-chlorophenyl)-\u03b1-methylbenzenemethanol", "ENT 9624", "Bis(p-chlorophenyl)methyl carbinol", "DCPC", "4,4\u2032-Dichloro-\u03b1-methylbenzhydrol", "Di(p-chlorophenyl)ethanol", "Dimite", "DMC", "Bis(4-chlorophenyl)methyl carbinol", "Micasin", "1,1-Bis(4-chlorophenyl)ethanol", "Quickron", "BPE", "Mikazene", "Chlorfenethol", "Dimit", "BCPE (pesticide)", "BCPE", "Qikron", "1,1-Di(4-chlorophenyl)ethanol", "NSC 2848", "1,1-Bis(4-chlorophenyl)ethan-1-ol"], "SMILES": "C(C)(O)(C1=CC=C(Cl)C=C1)C2=CC=C(Cl)C=C2", "physical_data": {"Molecular Weight": "267.15", "Molecular Formula": "C14H12Cl2O", "Melting Point": "70 \u00b0C"}}