{"cas_no": "80-15-9", "cn_name": "\u8fc7\u6c27\u5316\u6c22\u5f02\u4e19\u82ef", "en_name": ["Cumene hydroperoxide", "Hydroperoxide, 1-methyl-1-phenylethyl", "Hydroperoxide, \u03b1,\u03b1-dimethylbenzyl", "1-Methyl-1-phenylethyl hydroperoxide", "Cumene hydroperoxide", "Cumyl hydroperoxide", "\u03b1-Cumyl hydroperoxide", "\u03b1,\u03b1-Dimethylbenzyl hydroperoxide", "Isopropylbenzene hydroperoxide", "\u03b1-Cumene hydroperoxide", "Percumyl H", "Trigonox K 80", "Cumenyl hydroperoxide", "7-Cumyl hydroperoxide", "2-Phenyl-2-propyl hydroperoxide", "Hyperiz", "Kayacumene H", "R 239A", "Trigonox R 239R", "Cumen hydroperoxide", "CHP 158", "2-Hydroperoxy-2-phenylpropane", "Percumyl H 80", "Trigonox R 239A", "H 80", "Luperox CU 90", "CU 90", "CHP 90", "Percumyl H 18", "2-Phenylpropyl hydroperoxide", "Cumyl hydrogen peroxide", "CHP 5", "Hyperis", "CHP", "Trigonox K 90", "Percumyl H 90", "CHPO", "Luperox CU 80", "PH 80", "Norox CHP", "CU 90L", "Peroxan CU 90L", "C 109598"], "SMILES": "C(OO)(C)(C)C1=CC=CC=C1", "physical_data": {"Molecular Weight": "152.19", "Molecular Formula": "C9H12O2", "Boiling Point": "53 \u00b0C @ Press: 0.098 Torr", "Melting Point": "-10 \u00b0C", "Density": "1.0619 g/cm\u00b3 @ Temp: 20 \u00b0C"}}