{"cas_no": "80-11-5", "cn_name": "N-\u7532\u57fa-N-\u4e9a\u785d\u57fa\u5bf9\u7532\u82ef\u78fa\u9170\u80fa", "en_name": ["N-Methyl-N-nitroso-p-toluenesulfonamide", "Benzenesulfonamide, N,4-dimethyl-N-nitroso-", "p-Toluenesulfonamide, N-methyl-N-nitroso-", "N,4-Dimethyl-N-nitrosobenzenesulfonamide", "Diazald", "N-Methyl-N-nitroso-p-toluenesulfonamide", "p-Tolylsulfonylmethylnitrosamide", "N-Nitroso-N-methyl-p-toluenesulfonamide", "Diazale", "N-Methyl-N-nitroso-4-tosylamide", "N-Methyl-N-nitrosotoluene-4-sulfonamide", "NSC 313"], "SMILES": "S(N(N=O)C)(=O)(=O)C1=CC=C(C)C=C1", "physical_data": {"Molecular Weight": "214.24", "Molecular Formula": "C8H10N2O3S", "Melting Point": "62 \u00b0C"}}