{"cas_no": "80-10-4", "cn_name": "\u4e8c\u82ef\u4e8c\u6c2f\u7845\u70f7", "en_name": ["Dichlorodiphenylsilane", "Benzene, 1,1\u2032-(dichlorosilylene)bis-", "Silane, dichlorodiphenyl-", "1,1\u2032-(Dichlorosilylene)bis[benzene]", "Dichlorodiphenylsilane", "Diphenyldichlorosilane", "Diphenylsilicon dichloride", "Diphenylsilyl dichloride", "TSL 8062", "NSC 77110"], "SMILES": "[Si](Cl)(Cl)(C1=CC=CC=C1)C2=CC=CC=C2", "physical_data": {"Molecular Weight": "253.20", "Molecular Formula": "C12H10Cl2Si", "Boiling Point": "305 \u00b0C", "Melting Point": "-22 \u00b0C", "Density": "1.204 g/cm\u00b3 @ Temp: 25 \u00b0C"}}