{"cas_no": "80-18-2", "cn_name": "\u82ef\u78fa\u9178\u7532\u916f", "en_name": ["Methyl benzenesulfonate", "Benzenesulfonic acid, methyl ester", "Methyl benzenesulfonate", "20ND3-5", "NSC 3214", "Methyl besylate"], "SMILES": "S(OC)(=O)(=O)C1=CC=CC=C1", "physical_data": {"Molecular Weight": "172.20", "Molecular Formula": "C7H8O3S", "Boiling Point": "278-280 \u00b0C", "Melting Point": "149 \u00b0C"}}