{"cas_no": "80-17-1", "cn_name": "\u82ef\u78fa\u9170\u80bc", "en_name": ["Benzenesulfonyl hydrazide", "Benzenesulfonic acid, hydrazide", "Benzenesulfonyl hydrazide", "Phenylsulfohydrazide", "Porofor BSH", "Benzenesulfonic hydrazide", "Genitron BSH", "Benzenesulfohydrazide", "Phenylsulfonyl hydrazide", "Phenylsulfonylhydrazine", "ChKhZ 9", "Porofor ChKhZ 9", "Benzenesulfonylhydrazine", "Benzenesulfonohydrazide", "Porofor-BSH-Pulver", "Celogen BSH", "Nitropore OBSH", "Hydrazide BSG", "N-Benzenesulfonylhydrazide", "BSH", "BSH (blowing agent)", "NSC 643", "Unicell BSHTM", "B 3809-25G"], "SMILES": "S(NN)(=O)(=O)C1=CC=CC=C1", "physical_data": {"Molecular Weight": "172.20", "Molecular Formula": "C6H8N2O2S", "Melting Point": "102 \u00b0C"}}