{"cas_no": "80-13-7", "cn_name": "\u54c8\u62c9\u5b97", "en_name": ["Halazone", "Benzoic acid, 4-[(dichloroamino)sulfonyl]-", "Benzoic acid, p-(dichlorosulfamoyl)-", "Halazone", "4-[(Dichloroamino)sulfonyl]benzoic acid", "p-(Dichlorosulfamoyl)benzoic acid", "p-(N,N-Dichlorosulfamyl)benzoic acid", "Pantocid", "p-Sulfondichloramidobenzoic acid", "Pantocide", "Pantosid", "p-(N,N-Dichlorosulfamoyl)benzoic acid", "Halazon", "Pentocid", "Zeptabs", "4-Carboxy-N,N-dichlorobenzenesulfonamide", "NSC 60717"], "SMILES": "S(N(Cl)Cl)(=O)(=O)C1=CC=C(C(O)=O)C=C1", "physical_data": {"Molecular Weight": "270.09", "Molecular Formula": "C7H5Cl2NO4S", "Melting Point": "195 \u00b0C (decomp)"}}