{"cas_no": "80-21-7", "cn_name": "\u95f4\u6c28\u57fa\u82ef\u78fa\u9170\u82ef\u80fa", "en_name": ["3-Amino-N-phenylbenzenesulfonamide", "Benzenesulfonamide, 3-amino-N-phenyl-", "Metanilanilide", "3-Amino-N-phenylbenzenesulfonamide", "3-Aminobenzenesulfonanilide", "NSC 4989", "3-(N-Phenylaminosulfonyl)aniline", "3-Amino-N-phenylbenzene-1-sulfonamide"], "SMILES": "S(NC1=CC=CC=C1)(=O)(=O)C2=CC(N)=CC=C2", "physical_data": {"Molecular Weight": "248.30", "Molecular Formula": "C12H12N2O2S", "Melting Point": "126-128 \u00b0C"}}