{"cas_no": "80-26-2", "cn_name": "\u4e59\u9178\u677e\u6cb9\u916f", "en_name": ["(\u00b1)-\u03b1-Terpinyl acetate", "3-Cyclohexene-1-methanol, \u03b1,\u03b1,4-trimethyl-, 1-acetate", "p-Menth-1-en-8-ol, acetate", "3-Cyclohexene-1-methanol, \u03b1,\u03b1,4-trimethyl-, acetate", "\u03b1-Terpineol acetate", "\u03b1-Terpinyl acetate", "Terpinyl acetate", "2-(4-Methyl-3-cyclohexen-1-yl)-2-propyl acetate", "(\u00b1)-\u03b1-Terpineol acetate", "(\u00b1)-\u03b1-Terpinyl acetate", "2-(4-Methylcyclohex-3-en-1-yl)propan-2-yl acetate", "\u03b1,\u03b1,4-Trimethyl-3-cyclohexene-1-methanol acetate"], "SMILES": "C(OC(C)=O)(C)(C)C1CCC(C)=CC1", "physical_data": {"Molecular Weight": "196.29", "Molecular Formula": "C12H20O2", "Boiling Point": "104-106 \u00b0C @ Press: 12 Torr", "Melting Point": "112-113.5 \u00b0C", "Density": "0.967 g/cm\u00b3 @ Temp: 20 \u00b0C"}}