{"cas_no": "80-23-9", "cn_name": "2-\u6c28\u57fa\u82ef\u915a-4-\u78fa\u9170\u7532\u80fa", "en_name": ["3-Amino-4-hydroxy-N-methylbenzenesulfonamide", "Benzenesulfonamide, 3-amino-4-hydroxy-N-methyl-", "Metanilamide, 4-hydroxy-N1-methyl-", "Metanilamide, 4-hydroxy-N-methyl-", "1-Phenol-4-sulfonamide, 2-amino-N-methyl-", "3-Amino-4-hydroxy-N-methylbenzenesulfonamide", "2-Amino-N-methyl-1-phenol-4-sulfonamide", "2-Aminophenol-4-sulfomethylamide", "2-Aminophenol-4-sulfonic acid methylamide", "4-Hydroxy-N1-methylmetanilamide", "2-Amino-4-(methylsulfamoyl)phenol", "3-Amino-4-hydroxy-N-methylbenzene-1-sulfonamide"], "SMILES": "S(NC)(=O)(=O)C1=CC(N)=C(O)C=C1", "physical_data": {"Molecular Weight": "202.23", "Molecular Formula": "C7H10N2O3S", "Melting Point": "129-130 \u00b0C"}}