{"cas_no": "80-20-6", "cn_name": "2-\u6c28\u57fa\u82ef\u915a-4-\u78fa\u9170\u82ef\u80fa", "en_name": ["3-Amino-4-hydroxy-N-phenylbenzenesulfonamide", "Benzenesulfonamide, 3-amino-4-hydroxy-N-phenyl-", "Metanilanilide, 4-hydroxy-", "1-Phenol-4-sulfonanilide, 2-amino-", "3-Amino-4-hydroxy-N-phenylbenzenesulfonamide", "4-Hydroxymetanilanilide", "3-Amino-4-hydroxybenzenesulfonanilide", "NSC 315543", "3-Amino-4-hydroxy-N-phenylbenzene-1-sulfonamide"], "SMILES": "S(NC1=CC=CC=C1)(=O)(=O)C2=CC(N)=C(O)C=C2", "physical_data": {"Molecular Weight": "264.30", "Molecular Formula": "C12H12N2O3S", "Melting Point": "172 \u00b0C"}}