{"cas_no": "80-25-1", "cn_name": "\u4e8c\u6c22\u677e\u9999\u9187\u918b\u9178\u916f", "en_name": ["Dihydro-\u03b1-terpinyl acetate", "Cyclohexanemethanol, \u03b1,\u03b1,4-trimethyl-, 1-acetate", "p-Menthan-8-ol, acetate", "Cyclohexanemethanol, \u03b1,\u03b1,4-trimethyl-, acetate", "Dihydro-\u03b1-terpinyl acetate", "2-(4-Methylcyclohexyl)propan-2-yl acetate"], "SMILES": "C(OC(C)=O)(C)(C)C1CCC(C)CC1", "physical_data": {"Molecular Weight": "198.30", "Molecular Formula": "C12H22O2", "Boiling Point": "134 \u00b0C @ Press: 14 Torr"}}