{"cas_no": "80-27-3", "cn_name": "\u03b1,\u03b1,4-\u4e09\u7532\u57fa-3-\u73af\u5df1\u70ef-1-\u7532\u9187\u4e19\u9178\u76d0", "en_name": ["\u03b1-Terpinyl propionate", "3-Cyclohexene-1-methanol, \u03b1,\u03b1,4-trimethyl-, 1-propanoate", "3-Cyclohexene-1-methanol, \u03b1,\u03b1,4-trimethyl-, propanoate", "\u03b1-Terpinyl propionate", "\u03b1-Terpineol propionate", "2-(4-Methylcyclohex-3-en-1-yl)propan-2-yl propanoate"], "SMILES": "C(OC(CC)=O)(C)(C)C1CCC(C)=CC1", "physical_data": {"Molecular Weight": "210.31", "Molecular Formula": "C13H22O2", "Boiling Point": "71-74 \u00b0C @ Press: 0.5 Torr"}}