{"cas_no": "80-33-1", "cn_name": "\u5bf9\u6c2f\u82ef\u57fa\u5bf9\u6c2f\u82ef\u78fa\u9178\u916f", "en_name": ["Chlorfenson", "Benzenesulfonic acid, 4-chloro-, 4-chlorophenyl ester", "Benzenesulfonic acid, p-chloro-, p-chlorophenyl ester", "D 854", "C 1006", "K 6451", "Acaricydol E 20", "Chlorfenson", "p-Chlorophenyl p-chlorobenzenesulfonate", "p-Chlorophenyl p-chlorobenzenesulphonate", "CPCBS", "Estonmite", "Genite 883", "Lethalaire G-58", "Miticide K 101", "Onex", "Orthotran", "Otracid", "Ovex", "Ovochlor", "Ovotox", "Ovotran", "PCPCBS", "4-Chlorophenyl 4-chlorobenzenesulfonate", "4-Chlorophenyl 4-chlorobenzenesulphonate", "CCS", "Sappilan", "Chlorofenizon", "Ethersulfonate", "Chlorbenzolsulfonat", "Chlorfensin", "Benzolsulfonat", "Erysit", "Roztoczol fluid", "Ovatran", "Danicut", "NSC 5618", "Ephirsulfonate"], "SMILES": "S(OC1=CC=C(Cl)C=C1)(=O)(=O)C2=CC=C(Cl)C=C2", "physical_data": {"Molecular Weight": "303.16", "Molecular Formula": "C12H8Cl2O3S", "Melting Point": "86.5 \u00b0C"}}