{"cas_no": "80-39-7", "cn_name": "N-\u4e59\u57fa\u5bf9\u7532\u82ef\u78fa\u9170\u80fa", "en_name": ["N-Ethyl-4-methylbenzenesulfonamide", "Benzenesulfonamide, N-ethyl-4-methyl-", "p-Toluenesulfonamide, N-ethyl-", "N-Ethyl-4-methylbenzenesulfonamide", "N-Ethyl-p-toluenesulfonamide", "p-Toluene-N-ethylsulfonamide", "p-Toluenesulfonyl-N-ethylamide", "Santicizer 3", "N-Tosylethylamine", "N-Ethyl-p-tolylsulfonamide", "N-Ethyl-p-methylbenzenesulfonamide", "N-Ethyltosylamide", "NSC 68803", "N-Ethyl-4-toluenesulfonamide"], "SMILES": "S(NCC)(=O)(=O)C1=CC=C(C)C=C1", "physical_data": {"Molecular Weight": "199.27", "Molecular Formula": "C9H13NO2S", "Melting Point": "64 \u00b0C"}}