{"cas_no": "80-30-8", "cn_name": "N-\u73af\u5df1\u57fa\u5bf9\u7532\u82ef\u78fa\u9170\u80fa", "en_name": ["N-Cyclohexyl-4-toluenesulfonamide", "Benzenesulfonamide, N-cyclohexyl-4-methyl-", "p-Toluenesulfonamide, N-cyclohexyl-", "N-Cyclohexyl-4-methylbenzenesulfonamide", "N-Cyclohexyl-p-toluenesulfonamide", "Santicizer 1H", "N-Cyclohexyl-4-toluenesulfonamide", "(Tosylamino)cyclohexane", "N-Cyclohexyl-4-methylphenylsulfonamide", "NSC 14856", "NSC 48143", "Topcizer 8", "N-Tosylcyclohexanamine"], "SMILES": "S(NC1CCCCC1)(=O)(=O)C2=CC=C(C)C=C2", "physical_data": {"Molecular Weight": "253.36", "Molecular Formula": "C13H19NO2S", "Melting Point": "86.5-88.0 \u00b0C"}}