{"cas_no": "80-32-0", "cn_name": "\u78fa\u80fa\u6c2f\u54d2\u55ea", "en_name": ["Sulfachlorpyridazine", "Benzenesulfonamide, 4-amino-N-(6-chloro-3-pyridazinyl)-", "Sulfanilamide, N1-(6-chloro-3-pyridazinyl)-", "4-Amino-N-(6-chloro-3-pyridazinyl)benzenesulfonamide", "BA 10370", "N1-(6-Chloro-3-pyridazinyl)sulfanilamide", "Consulid", "Sonilyn", "Sulfachlorpyridazine", "6-Sulfanilamido-3-chloropyridazine", "3-Chloro-6-sulfanilamidopyridazine", "Bactolin", "Renalsulfa", "Sulfaclorazina", "Sulfarene", "Sulpirazina", "Durasulf", "Sulfochlorpyridazine", "Nefrosul", "Cosulid", "Ciba 10370", "MeSH ID: D013410"], "SMILES": "S(NC1=CC=C(Cl)N=N1)(=O)(=O)C2=CC=C(N)C=C2", "physical_data": {"Molecular Weight": "284.72", "Molecular Formula": "C10H9ClN4O2S", "Melting Point": "187 \u00b0C"}}