{"cas_no": "80-35-3", "cn_name": "\u78fa\u80fa\u7532\u6c27\u54d2\u55ea", "en_name": ["Sulfamethoxypyridazine", "Benzenesulfonamide, 4-amino-N-(6-methoxy-3-pyridazinyl)-", "Sulfanilamide, N1-(6-methoxy-3-pyridazinyl)-", "4-Amino-N-(6-methoxy-3-pyridazinyl)benzenesulfonamide", "CL 13,494", "3-(p-Aminobenzenesulfamido)-6-methoxypyridazine", "Davosin", "Depovernil", "Kinex", "Kynex", "Medicel", "Lederkyn", "N1-(6-Methoxy-3-pyridazinyl)sulfanilamide", "6-Methoxy-3-sulfanilamidopyridazine", "Midicel", "Midikel", "Myasul", "Paramid", "Paramid Supra", "Spofadazine", "Sulfalex", "3-Sulfanilamido-6-methoxypyridazine", "Sultirene", "6-Sulfanilamido-3-methoxypyridazine", "Sulfamethoxypyridazine", "Sulfapyridazine", "Retamid", "Retasulfine", "3-(4-Aminobenzenesulfonamido)-6-methoxypyridazine", "Retasulphine", "Retasulfin", "Quinoseptyl", "Sulfapiridazin", "Davozil", "Lederkin", "3-Methoxy-6-sulfanilamidopyridazine", "SMOP", "Sulfozona", "Altezol", "Piridolo", "Lisulfen", "Longin", "Slosul", "Sulphamethoxypyridazine", "6-Methoxy-3-pyridazinylsulfanilamide", "LAS (pharmaceutical)", "LAS", "Sulfdurazin", "CL 13494", "RP 7522", "MeSH ID: D013421"], "SMILES": "S(NC1=CC=C(OC)N=N1)(=O)(=O)C2=CC=C(N)C=C2", "physical_data": {"Molecular Weight": "280.30", "Molecular Formula": "C11H12N4O3S", "Melting Point": "182.5 \u00b0C", "Density": "1.48318 g/cm\u00b3"}}