{"cas_no": "80-38-6", "cn_name": "\u9664\u87a8\u916f", "en_name": ["4-Chlorophenyl benzenesulfonate", "Benzenesulfonic acid, 4-chlorophenyl ester", "Benzenesulfonic acid, p-chlorophenyl ester", "928", "p-Chlorophenyl benzenesulfonate", "CPBS", "Fensone", "Murvesco", "PCBS", "PCPBS", "PCI", "Fenson", "4-Chlorophenyl benzenesulfonate", "Aracid", "Phenizon", "Ovicide Seppic", "NSC 406662", "Fenizon"], "SMILES": "S(OC1=CC=C(Cl)C=C1)(=O)(=O)C2=CC=CC=C2", "physical_data": {"Molecular Weight": "268.72", "Molecular Formula": "C12H9ClO3S", "Melting Point": "62 \u00b0C", "Density": "1.33 g/cm\u00b3"}}