{"cas_no": "80-41-1", "cn_name": "\u5bf9\u7532\u82ef\u78fa\u9178-\u03b2-\u6c2f\u4e59\u916f", "en_name": ["2-Chloroethyl p-toluenesulfonate", "Ethanol, 2-chloro-, 1-(4-methylbenzenesulfonate)", "Ethanol, 2-chloro-, 4-methylbenzenesulfonate", "Ethanol, 2-chloro-, p-toluenesulfonate", "2-Chloroethanol p-toluenesulfonate", "2-Chloroethyl p-toluenesulfonate", "2-Chloroethyl p-tosylate", "\u03b2-Chloroethyl p-toluenesulfonate", "2-Chloroethyl tosylate", "2-(p-Toluenesulfonyloxy)ethyl chloride", "2-Chloroethyl 4-methylbenzenesulfonate", "2-Chloroethanol tosylate", "2-Tosyloxyethyl chloride", "\u03b2-Chloroethyl tosylate", "2-Chloro-1-(p-toluenesulfonyl)ethane", "NSC 6079", "Toluene-4-sulfonic acid 2-chloroethyl ester", "p-Toluenesulfonic acid 2-chloroethyl ester", "2-Chloroethyl 4-methylbenzene-1-sulfonate"], "SMILES": "S(OCCCl)(=O)(=O)C1=CC=C(C)C=C1", "physical_data": {"Molecular Weight": "234.70", "Molecular Formula": "C9H11ClO3S", "Boiling Point": "210 \u00b0C @ Press: 21 Torr", "Melting Point": "22.5-23.0 \u00b0C", "Density": "1.361 g/cm\u00b3 @ Temp: 20 \u00b0C"}}