{"cas_no": "80-42-2", "cn_name": "\u82ef\u78fa\u9178\u4e19\u916f", "en_name": ["Propyl benzenesulfonate", "Benzenesulfonic acid, propyl ester", "Propyl benzenesulfonate", "NSC 3216"], "SMILES": "S(OCCC)(=O)(=O)C1=CC=CC=C1", "physical_data": {"Molecular Weight": "200.25", "Molecular Formula": "C9H12O3S", "Boiling Point": "153-154 \u00b0C @ Press: 9 Torr", "Melting Point": "100 \u00b0C (decomp)"}}