{"cas_no": "80-48-8", "cn_name": "\u5bf9\u7532\u82ef\u78fa\u9178\u7532\u916f", "en_name": ["Methyl p-toluenesulfonate", "Benzenesulfonic acid, 4-methyl-, methyl ester", "p-Toluenesulfonic acid, methyl ester", "Methyl p-toluenesulfonate", "Methyl tosylate", "Methyl p-tosylate", "p-Methylbenzenesulfonic acid methyl ester", "Methyl toluene-4-sulfonate", "Methyl 4-methylbenzenesulfonate", "Methyl p-methylbenzenesulfonate", "Methyl toluenesulfonate", "Toluene-4-sulfonic acid methyl ester", "NSC 406335"], "SMILES": "S(OC)(=O)(=O)C1=CC=C(C)C=C1", "physical_data": {"Molecular Weight": "186.23", "Molecular Formula": "C8H10O3S", "Boiling Point": "292 \u00b0C @ Press: 760 Torr", "Melting Point": "28-29 \u00b0C"}}