{"cas_no": "80-40-0", "cn_name": "\u5bf9\u7532\u82ef\u78fa\u9178\u4e59\u916f", "en_name": ["Ethyl p-toluenesulfonate", "Benzenesulfonic acid, 4-methyl-, ethyl ester", "p-Toluenesulfonic acid, ethyl ester", "Ethyl p-methylbenzenesulfonate", "Ethyl p-toluenesulfonate", "Ethyl tosylate", "Ethyl p-tosylate", "Ethyl toluenesulfonate", "Ethyl 4-toluenesulfonate", "Ethyl 4-methylbenzenesulfonate", "Toluene-4-sulfonic acid ethyl ester", "NSC 8887", "Aldrich 104256"], "SMILES": "S(OCC)(=O)(=O)C1=CC=C(C)C=C1", "physical_data": {"Molecular Weight": "200.25", "Molecular Formula": "C9H12O3S", "Boiling Point": "173 \u00b0C @ Press: 15 Torr", "Melting Point": "33 \u00b0C", "Density": "1.17 g/cm\u00b3"}}