{"cas_no": "80-44-4", "cn_name": "\u82ef\u78fa\u9178\u6b63\u4e01\u916f", "en_name": ["Butyl benzenesulfonate", "Benzenesulfonic acid, butyl ester", "Butyl benzenesulfonate", "NSC 3215"], "SMILES": "S(OCCCC)(=O)(=O)C1=CC=CC=C1", "physical_data": {"Molecular Weight": "214.28", "Molecular Formula": "C10H14O3S", "Boiling Point": "147-149 \u00b0C @ Press: 4 Torr", "Density": "1.148 g/cm\u00b3 @ Temp: 25 \u00b0C"}}