{"cas_no": "80-46-6", "cn_name": "\u5bf9\u53d4\u620a\u57fa\u82ef\u915a", "en_name": ["4-tert-Pentylphenol", "Phenol, 4-(1,1-dimethylpropyl)-", "Phenol, p-tert-pentyl-", "Phenol, p-(1,1-dimethylpropyl)-", "4-(1,1-Dimethylpropyl)phenol", "Amilfenol", "p-tert-Amylphenol", "4-tert-Amylphenol", "p-(\u03b1,\u03b1-Dimethylpropyl)phenol", "p-tert-Pentylphenol", "4-tert-Pentylphenol", "4-t-Amylphenol", "p-(1,1-Dimethylpropyl)phenol", "4-t-Pentylphenol", "NSC 403672", "NSC 4965", "BirexSE", "4-(2-Methylbutan-2-yl)phenol", "4-Tertamyl phenol"], "SMILES": "C(CC)(C)(C)C1=CC=C(O)C=C1", "physical_data": {"Molecular Weight": "164.24", "Molecular Formula": "C11H16O", "Boiling Point": "262.5 \u00b0C", "Melting Point": "94-95 \u00b0C", "Density": "0.962 g/cm\u00b3 @ Temp: 20 \u00b0C"}}