{"cas_no": "80-49-9", "cn_name": "\u6eb4\u7532\u540e\u9a6c\u6258\u54c1", "en_name": ["Homatropine methobromide", "8-Azoniabicyclo[3.2.1]octane, 3-[(2-hydroxy-2-phenylacetyl)oxy]-8,8-dimethyl-, bromide (1:1), (3-endo)-", "8-Methylhomatropinium bromide", "1\u03b1H,5\u03b1H-Tropanium, 3\u03b1-hydroxy-8-methyl-, bromide, mandelate", "8-Azoniabicyclo[3.2.1]octane, 3-[(hydroxyphenylacetyl)oxy]-8,8-dimethyl-, bromide, endo-(\u00b1)-", "8-Azoniabicyclo[3.2.1]octane, 3-[(hydroxyphenylacetyl)oxy]-8,8-dimethyl-, bromide, (3-endo)-", "Arkitropin", "Camatropine", "Esopin", "Homapin", "Homatromide", "Homatropine methylbromide", "Malcotran", "Mesopin", "Methatropin", "Methylhomatropine bromide", "Novatrin", "Novatrine", "Novatropine", "Sed-Tems", "Sethyl", "Tropinium methobromide mandelate", "Methylhomatropinium bromide", "Homatropine methobromide", "Methylhomatropine hydrobromide", "Helbatropin", "Novatropin", "Homatrocel", "Homatropil", "Homolone", "Methatropine", "8-Azoniabicyclo[3.2.1]octane, 3-[(hydroxyphenylacetyl)oxy]-8,8-dimethyl-, bromide, endo-", "NSC 34399"], "SMILES": "C[N+]1(C)C2CC(OC(C(O)C3=CC=CC=C3)=O)CC1CC2.[Br-]", "physical_data": {"Molecular Weight": "", "Molecular Formula": "C17H24NO3.Br", "Melting Point": "191-192 \u00b0C (decomp)"}}