{"cas_no": "80-43-3", "cn_name": "\u8fc7\u6c27\u5316\u4e8c\u5f02\u4e19\u82ef", "en_name": ["Dicumyl peroxide", "Peroxide, bis(1-methyl-1-phenylethyl)", "Peroxide, bis(\u03b1,\u03b1-dimethylbenzyl)", "Bis(1-methyl-1-phenylethyl) peroxide", "Active dicumyl peroxide", "Bis(\u03b1,\u03b1-dimethylbenzyl) peroxide", "Cumene peroxide", "Cumyl peroxide", "Dicumyl peroxide", "Di-\u03b1-cumyl peroxide", "Di-Cup", "Perkadox B", "Dicumenyl peroxide", "Di-Cup 40C", "\u03b1-Cumyl peroxide", "Di-Cup 40", "Percumyl D", "Luperox 500R", "Isopropylbenzene peroxide", "Di-Cup 40KE", "Bis(2-phenyl-2-propyl) peroxide", "Perkadox SB", "Perkadox BC", "Luperox 500T", "Dicumene hydroperoxide", "Percumyl D 40", "Luperco 500-40C", "Luperco 500-40KE", "\u03b1,\u03b1\u2032-Dicumyl peroxide", "Luperox 500", "\u03b1,\u03b1-Dimethylbenzyl peroxide", "Kayacumyl D", "Di-Cup R", "Di-Cup T", "Di-Cup 40HAF", "Perkadox BC 95", "Lupersol 500", "Perkadox BC 40", "Perkadox BC 9", "DCP", "Perkadox BC 96", "Sanperox DCP", "Interox DCUP 40G", "Luperco 500R", "Di-Cup 60", "Varox 40C", "TC 3 (vulcanizer)", "TC 3", "DCP 95R", "C 3 (crosslinking agent)", "C 3", "RC 3 (crosslinking agent)", "RC 3", "Perkadox BC 40KPD", "Dicup 4OKE", "Varox DCP-R", "Varox DCP 40C", "SWD 40C", "DCP 40C", "Peroximon DC", "Peroximon DC 40", "Kayacumyl D 40K", "Perkadox BC-FF", "Norox DCP", "Varox 40KE", "Luperox DC", "Luperox DC 40KEP", "LX 500", "NSC 56772", "Retic DCP", "Perkadox BC 40B", "Px SB", "Peroximon DC/SC", "Di-Cup 90", "Trigonox 239A", "Varox DCP 40KE", "Interox DCUP 1", "DCP 40", "Luperox PP 20", "Perkadox BC 40B-PD", "PO-D", "Kayacumyl D 40C", "D 40C", "Perkadox BC 40K", "Luperox DC 40P-SP2", "Varox DCP 40C-SP2", "Luperox 505R", "Luperox DCP 40P", "Luperox DC 40P-SP", "Parkmill D", "Luperox DCP", "DCP 99", "Luperox DC 40P", "Percumyl D 40B", "E-DCP 40P", "Peroxan DC", "Kayacumyl DCP", "14S-F1", "Luperox DC-SC", "BC-FF", "F 40", "F 40 (crosslinking agent)", "40B", "Percumyl D 40MB", "Kayacumyl D 40MB-S", "Kayacumyl D 40MB", "Diisopropylbenzene peroxide", "Akroform DC 40EPR", "D 100480", "PERO 302", "Perkadox BC 40S-PS", "F 40P", "Perkadox BC 40MB-GR", "Percumyl D-GP", "Luperox DC 40KE", "Percumyl C", "ACEOX DCP", "Di-Cup 40KE-U", "Di-Cup 40KEU", "Kayacumyl DCP 40C", "Peroxan DC 40GS", "Perkadox 14S-F1", "Sanperox DCP 98", "DCP 98", "DCP 40KE", "Peroxan DC-P +", "Di-Cup 40A", "Perkadox BFCC", "Buloxyn KED 40MB", "KED 40MB", "Perkadox BC 40C"], "SMILES": "C(OOC(C)(C)C1=CC=CC=C1)(C)(C)C2=CC=CC=C2", "physical_data": {"Molecular Weight": "270.37", "Molecular Formula": "C18H22O2", "Boiling Point": "396 \u00b0C", "Melting Point": "39 \u00b0C", "Density": "1.02 g/cm\u00b3"}}