{"cas_no": "80-54-6", "cn_name": "\u94c3\u5170\u919b", "en_name": ["Lilial", "Benzenepropanal, 4-(1,1-dimethylethyl)-\u03b1-methyl-", "Hydrocinnamaldehyde, p-tert-butyl-\u03b1-methyl-", "4-(1,1-Dimethylethyl)-\u03b1-methylbenzenepropanal", "p-tert-Butyl-\u03b1-methylhydrocinnamaldehyde", "Lilial", "\u03b1-Methyl-p-tert-butylhydrocinnamaldehyde", "3-(4-tert-Butylphenyl)-2-methylpropanal", "3-(p-tert-Butylphenyl)isobutylaldehyde", "3-(p-tert-Butylphenyl)-2-methylpropionaldehyde", "p-tert-Butyl-\u03b1-methylhydrocinnamic aldehyde", "4-tert-Butyl-\u03b1-methylhydrocinnamic aldehyde", "(\u00b1)-2-Methyl-3-(4-tert-butylphenyl)propanal", "PT-Bucinal", "NSC 22275", "Lilestralis", "2-Methyl-3-(4-tert-butylphenyl)propanal", "2-[(4-tert-Butylphenyl)methyl]propanal", "\u03b2-Lilial", "Lysmeral", "lilestral", "Lysmeral Extra", "p-tert-Butyl-\u03b1-methyldihydrocinnamaldehyde", "2-Methyl-3-(p-tert-butylphenyl)propanal", "2-(4-tert-Butylbenzyl)propanal", "2-(4-tert-Butylbenzyl)propionaldehyde", "P-T-Bucinal", "Butylphenyl methylpropional"], "SMILES": "C(C)(C)(C)C1=CC=C(CC(C=O)C)C=C1", "physical_data": {"Molecular Weight": "204.31", "Molecular Formula": "C14H20O", "Boiling Point": "95-96 \u00b0C @ Press: 1 Torr", "Melting Point": "106-109 \u00b0C", "Density": "0.942 g/cm\u00b3 @ Temp: 25 \u00b0C"}}