{"cas_no": "80-52-4", "cn_name": "4-\u6c28\u57fa-\u03b1,\u03b1-4-\u4e09\u7532\u57fa-\u73af\u5df1\u70f7\u7532\u80fa", "en_name": ["1,8-Diamino-p-menthane", "Cyclohexanemethanamine, 4-amino-\u03b1,\u03b1,4-trimethyl-", "p-Menthane-1,8-diamine", "4-Amino-\u03b1,\u03b1,4-trimethylcyclohexanemethanamine", "1,8-Diamino-p-menthane", "1-Amino-1-methyl-4-(2-amino-2-propyl)cyclohexane", "1-Methyl-4-(1-amino-1-methylethyl)cyclohexylamine", "Menthanediamine", "1,8-Menthanediamine", "1,8-p-Menthanediamine", "Primene MD", "NSC 5612"], "SMILES": "C(C)(C)(N)C1CCC(C)(N)CC1", "physical_data": {"Molecular Weight": "170.30", "Molecular Formula": "C10H22N2", "Boiling Point": "115-120 \u00b0C @ Press: 10 Torr", "Density": "0.91 g/cm\u00b3"}}