{"cas_no": "80-58-0", "cn_name": "2-\u6eb4\u4e01\u9178", "en_name": ["2-Bromobutyric acid", "Butanoic acid, 2-bromo-", "Butyric acid, 2-bromo-", "2-Bromobutanoic acid", "\u03b1-Bromobutyric acid", "2-Bromobutyric acid", "\u03b1-Bromo-n-butyric acid", "DL-\u03b1-Bromobutyric acid", "DL-2-Bromo-n-butyric acid", "(\u00b1)-2-Bromobutyric acid", "(\u00b1)-\u03b1-Bromobutanoic acid", "(RS)-\u03b1-Bromobutyric acid", "(RS)-2-Bromobutyric acid", "(\u00b1)-2-Bromobutanoic acid", "NSC 8024"], "SMILES": "C(C(O)=O)(CC)Br", "physical_data": {"Molecular Weight": "167.00", "Molecular Formula": "C4H7BrO2", "Boiling Point": "181-182 \u00b0C", "Melting Point": "-4 \u00b0C", "Density": "1.5671 g/cm\u00b3 @ Temp: 20 \u00b0C"}}