{"cas_no": "80-55-7", "cn_name": "2-\u7f9f\u57fa\u5f02\u4e01\u9178\u4e59\u916f", "en_name": ["Ethyl 2-hydroxyisobutyrate", "Propanoic acid, 2-hydroxy-2-methyl-, ethyl ester", "Lactic acid, 2-methyl-, ethyl ester", "Ethyl \u03b1-hydroxyisobutyrate", "Ethyl 2-methyllactate", "Ethyl 2-hydroxy-2-methylpropionate", "Ethyl 2-hydroxyisobutyrate", "Ethyl 2-methyl-2-hydroxypropanoate", "2-Hydroxy-2-methylpropanoic acid ethyl ester", "NSC 4667", "Ethyl 2-hydroxy-2-methylpropanoate", "2-Hydroxy-2-methylpropionic acid ethyl ester", "2-Hydroxyisobutyric acid ethyl ester", "\u03b1-Hydroxyisobutyric acid ethyl ester"], "SMILES": "C(C(C)(C)O)(OCC)=O", "physical_data": {"Molecular Weight": "132.16", "Molecular Formula": "C6H12O3", "Boiling Point": "150 \u00b0C", "Melting Point": "78 \u00b0C"}}