{"cas_no": "80-59-1", "cn_name": "\u60d5\u683c\u9178", "en_name": ["Tiglic acid", "2-Butenoic acid, 2-methyl-, (2E)-", "Crotonic acid, 2-methyl-, (E)-", "Tiglic acid", "2-Butenoic acid, 2-methyl-, (E)-", "(2E)-2-Methyl-2-butenoic acid", "Cevadic acid", "trans-\u03b1,\u03b2-Dimethylacrylic acid", "trans-2,3-Dimethylacrylic acid", "trans-2-Methyl-2-butenoic acid", "trans-2-Methylcrotonic acid", "(E)-2-Methylcrotonic acid", "Tiglinic acid", "(E)-2,3-Dimethylacrylic acid", "(E)-\u03b1-Methylcrotonic acid", "(E)-2-Methyl-2-butenoic acid", "NSC 44235", "NSC 8999"], "SMILES": "C(C(O)=O)(=CC)C", "physical_data": {"Molecular Weight": "100.12", "Molecular Formula": "C5H8O2", "Boiling Point": "198.5 \u00b0C", "Melting Point": "64.5 \u00b0C", "Density": "0.9427 g/cm\u00b3 @ Temp: 99.5 \u00b0C"}}