{"cas_no": "80-56-8", "cn_name": "\u03b2-\u848e\u70ef", "en_name": ["(\u00b1)-\u03b1-Pinene", "Bicyclo[3.1.1]hept-2-ene, 2,6,6-trimethyl-", "2-Pinene", "2,6,6-Trimethylbicyclo[3.1.1]hept-2-ene", "\u03b1-Pinene", "PC 500", "(\u00b1)-2-Pinene", "(\u00b1)-\u03b1-Pinene", "PC 500 (terpene)", "Acintene A", "NSC 7727", "Sylvapine A", "alpha-Pinene", "Leavo 95"], "SMILES": "CC1(C)C2CC1CC=C2C", "physical_data": {"Molecular Weight": "136.23", "Molecular Formula": "C10H16", "Boiling Point": "156 \u00b0C @ Press: 2760 Torr", "Melting Point": "-62.5 \u00b0C", "Density": "0.8592 g/cm\u00b3 @ Temp: 20 \u00b0C"}}