{"cas_no": "80-57-9", "cn_name": "\u9a6c\u82c4\u70ef\u916e", "en_name": ["(\u00b1)-Verbenone", "Bicyclo[3.1.1]hept-3-en-2-one, 4,6,6-trimethyl-", "2-Pinen-4-one", "4,6,6-Trimethylbicyclo[3.1.1]hept-3-en-2-one", "Verbenone", "(\u00b1)-Verbenone", "(RS)-Verbenone", "NSC 6832", "2,6,6-Trimethylbicyclo[3.1.1]hept-2-en-4-one"], "SMILES": "CC1(C)C2CC1C(=O)C=C2C", "physical_data": {"Molecular Weight": "150.22", "Molecular Formula": "C10H14O", "Boiling Point": "100 \u00b0C @ Press: 16 Torr", "Melting Point": "6.5 \u00b0C", "Density": "0.981 g/cm\u00b3 @ Temp: 15 \u00b0C"}}