{"cas_no": "80-51-3", "cn_name": "4,4'-\u6c27\u4ee3\u53cc\u82ef\u78fa\u9170\u80bc", "en_name": ["OBSH", "Benzenesulfonic acid, 4,4\u2032-oxybis-, 1,1\u2032-dihydrazide", "Benzenesulfonic acid, 4,4\u2032-oxydi-, dihydrazide", "Benzenesulfonic acid, 4,4\u2032-oxybis-, dihydrazide", "Celogen OT", "p,p\u2032-Oxybis(benzenesulfohydrazide)", "p,p\u2032-Oxybis(benzenesulfonyl hydrazide)", "4,4\u2032-Oxybis(benzenesulfonyl hydrazide)", "4,4\u2032-Oxydibenzenesulfonic acid dihydrazide", "p,p\u2032-Oxybis(benzenesulfonylhydrazine)", "OBSH", "Diphenyl ether 4,4\u2032-disulfohydrazide", "Genitron OB", "Diphenyl oxide 4,4\u2032-disulfohydrazide", "4,4\u2032-Oxydi(benzenesulfonic acid hydrazide)", "4,4\u2032-Oxybis(benzenesulfonic acid hydrazide)", "4,4\u2032-Oxybis(benzenesulfonic acid) dihydrazide", "Cellmic S", "Dihydrazide SDO", "p,p\u2032-Oxybis(benzenesulfone hydrazide)", "Neocellborn P 1000M", "FE 9", "Neocellborn FE 9", "4,4\u2032-Bis(hydrazinosulfonyl)diphenyl ether", "Neocellborn P 1000", "Neocellborn N 1000S", "Neocellborn N 5000", "Celogen TO", "Neocellborn N 50", "AZ-B 95", "Unifoam AZ 90", "Neocellborn 1000SW", "S 250", "S 250 (blowing agent)", "Neocellborn P 100", "Unicell OH", "N 1000SW", "Neocellborn N 1000SW", "NSC 5318", "4,4\u2032-Oxybis(benzenesulfohydrazide)", "Neothlene HM 806P", "Lagocell BO 20", "Celogen OT 1", "Neocellborn 1000S", "EH 80", "EH 80 (blowing agent)", "Cellmic SX", "Neocellborn N 7000", "Neothlene HM 80NP", "HM 80NP", "Akrosperse BBSH75EPR-S", "N 1000S", "Rhenoslab OBSH 75", "Neocellborn N 5000W", "Tracel OBSH 160NER", "Luvopor OB", "Neocellborn 41000S", "EE 188E", "Neocellborn NT-N", "Neocellborn N 1000M", "N 1000M", "Neocellborn 1000M", "150D", "4,4-Oxy-bis-(benzenesulphonylhydrazide)", "4,4\u2032-Oxydibenzenesulfonyl hydrazide", "Tracel OBSH", "Cellcom OBSH", "OT", "Blowing Agent OB", "JSJ 118-60S", "Tracel OBSH 80PR", "Neocellborn N 1000", "Neocellborn SB 51", "OBSH 75", "Unifoam AZ 100"], "SMILES": "S(NN)(=O)(=O)C1=CC=C(OC2=CC=C(S(NN)(=O)=O)C=C2)C=C1", "physical_data": {"Molecular Weight": "358.39", "Molecular Formula": "C12H14N4O5S2", "Melting Point": "150-160 \u00b0C (decomp)", "Density": "1.52 g/cm\u00b3"}}