{"cas_no": "80-68-2", "cn_name": "DL-\u82cf\u6c28\u9178", "en_name": ["(\u00b1)-Threonine", "Threonine", "DL-Threonine", "Threonine, DL-", "(\u00b1)-Threonine", "NSC 206292"], "SMILES": "C(C(C)O)(C(O)=O)N", "physical_data": {"Molecular Weight": "119.12", "Molecular Formula": "C4H9NO3", "Melting Point": "228-229 \u00b0C (decomp)"}}