{"cas_no": "80-65-9", "cn_name": "\u785d\u57fa\u544b\u5583\u4ee3\u8c22\u4ea7\u7269-\u544b\u5583\u5511\u916eAOZ", "en_name": ["3-Amino-2-oxazolidinone", "2-Oxazolidinone, 3-amino-", "3-Amino-2-oxazolidinone", "3-Amino-2-oxazolidone", "3-Amino-1,3-oxazolidin-2-one", "NSC 111187", "NSC 196570", "NSC 38250"], "SMILES": "O=C1N(N)CCO1", "physical_data": {"Molecular Weight": "102.09", "Molecular Formula": "C3H6N2O2", "Boiling Point": "130-135 \u00b0C @ Press: 10 Torr", "Melting Point": "34 \u00b0C"}}