{"cas_no": "80-63-7", "cn_name": "2-\u6c2f\u4ee3\u4e19\u70ef\u9178\u7532\u916f", "en_name": ["Methyl 2-chloro-2-propenoate", "2-Propenoic acid, 2-chloro-, methyl ester", "Acrylic acid, 2-chloro-, methyl ester", "Methyl 2-chloro-2-propenoate", "Methyl \u03b1-chloroacrylate", "Methyl 2-chloroacrylate", "Methyl 2-chloropropenoate", "2-Chloroacrylic acid methyl ester", "NSC 32608"], "SMILES": "C(C(=C)Cl)(OC)=O", "physical_data": {"Molecular Weight": "120.53", "Molecular Formula": "C4H5ClO2", "Boiling Point": "52 \u00b0C @ Press: 51 Torr", "Density": "1.189 g/cm\u00b3 @ Temp: 20 \u00b0C"}}