{"cas_no": "80-62-6", "cn_name": "\u7532\u57fa\u4e19\u70ef\u9178\u7532\u916f", "en_name": ["2-Propenoic acid, 2-methyl-, methyl ester", "2-Propenoic acid, 2-methyl-, methyl ester", "Methacrylic acid methyl ester", "Methacrylic acid, methyl ester", "MMA", "Methyl 2-methyl-2-propenoate", "Pegalan", "Methyl 2-methylacrylate", "2-(Methoxycarbonyl)-1-propene", "Acryester M", "TEB 3K", "2-Methyl-2-propenoic acid methyl ester", "Light Ester M", "NSC 4769", "Methyl methacrylate", "Acryloid HT 100", "Paraloid HT 100", "Methyl 2-methacrylate", "Three Bond 3057J", "Methyl isobutenoate", "Acryester MMA", "ACR-PA 20", "DL 101", "Degacryl M 547", "Visiomer MMA", "Acrifix 1S0116", "NA 7890", "Degalan M 890", "Meracryl MMA", "Neocryl B 736", "M 109626", "MeSH ID: D020366"], "SMILES": "C(C(C)=C)(OC)=O", "physical_data": {"Molecular Weight": "100.12", "Molecular Formula": "C5H8O2", "Boiling Point": "100.5 \u00b0C @ Press: 760 Torr", "Melting Point": "-48 \u00b0C", "Density": "0.9440 g/cm\u00b3 @ Temp: 20 \u00b0C"}}