{"cas_no": "80-69-3", "cn_name": "\u4e9a\u9152\u77f3\u9178", "en_name": ["Tartronic acid", "Propanedioic acid, 2-hydroxy-", "Tartronic acid", "Propanedioic acid, hydroxy-", "2-Hydroxypropanedioic acid", "Hydroxymalonic acid", "\u03b1-Hydroxymalonic acid", "Hydroxypropanedioic acid", "NSC 36171", "2-Hydroxymalonic acid"], "SMILES": "C(C(O)=O)(C(O)=O)O", "physical_data": {"Molecular Weight": "120.06", "Molecular Formula": "C3H4O5", "Melting Point": "157 \u00b0C"}}