{"cas_no": "80-77-3", "cn_name": "\u82ac\u90a3\u9732", "en_name": ["(\u00b1)-Chlormezanone", "4H-1,3-Thiazin-4-one, 2-(4-chlorophenyl)tetrahydro-3-methyl-, 1,1-dioxide", "4H-1,3-Thiazin-4-one, 2-(p-chlorophenyl)tetrahydro-3-methyl-, 1,1-dioxide", "Chlormethazone", "2-(4-Chlorophenyl)-3-methyl-4-metathiazanone-1,1-dioxide", "2-(p-Chlorophenyl)tetrahydro-3-methyl-4H-1,3-thiazin-4-one 1,1-dioxide", "2-(p-Chlorphenyl)-3-methyl-1,3-perhydrothiazin-4-on-1,1-dioxide", "Phenarol", "Trancopal", "Chlormethazanone", "Chlormezanone", "2-(p-Chlorophenyl)-3-methyl-1,3-perhydrothiazin-4-one 1,1-dioxide", "Mio-Sed", "Tanafol", "Fenarol", "Rilansyl", "Rilaquil", "Rilassol", "Muskel Trancopal", "(\u00b1)-Chlormezanone", "dl-Chlormezanone", "(\u00b1)-Fenarol", "Supotran", "Suprotran", "Rilasol", "Dichloromezanone", "Lobak", "Trancote", "Banabin-Sintyal", "Rexan", "Alinam", "Transanate", "NSC 169108", "2-(4-Chlorophenyl)-3-methyl-1,1-dioxo-1,3-thiazinan-4-one", "2-(4-Chlorophenyl)-3-methyl-1\u03bb6,3-thiazinane-1,1,4-trione", "2-(4-Chlorophenyl)-3-methyl-1,3-thiazinan-4-one1,1-dioxide", "2-(4-Chlorophenyl)-3-methyl-1,3-thiazinan-4-one 1,1-dioxide", "MeSH ID: D002720"], "SMILES": "O=S1(=O)C(N(C)C(=O)CC1)C2=CC=C(Cl)C=C2", "physical_data": {"Molecular Weight": "273.74", "Molecular Formula": "C11H12ClNO3S", "Melting Point": "116.2-118.2 \u00b0C"}}