{"cas_no": "80-73-9", "cn_name": "1,3-\u4e8c\u7532\u57fa-2-\u54aa\u5511\u5549\u916e", "en_name": ["1,3-Dimethyl-2-imidazolidinone", "2-Imidazolidinone, 1,3-dimethyl-", "1,3-Dimethyl-2-imidazolidinone", "N,N\u2032-Dimethylethyleneurea", "N,N\u2032-Dimethyl-2-imidazolidinone", "Rhonite 1", "1,3-Dimethylethyleneurea", "N,N\u2032-Dimethylimidazolidone", "Karbomos TsEM", "N,N\u2032-Dimethylimidazolidinone", "Dimethylimidazolidinone", "1,3-Dimethyl-2-imidazolidone", "DMEU", "DMEU (solvent)", "N,N-Dimethylimidazolidinone", "N,N-Dimethylethylenediamine cyclic urea", "DMI", "1,3-Dimethylimidazolidinone", "N,N\u2032-Dimethyl-N,N\u2032-ethyleneurea", "1,3-Dimethyl-2-imidazolidindione"], "SMILES": "O=C1N(C)CCN1C", "physical_data": {"Molecular Weight": "114.15", "Molecular Formula": "C5H10N2O", "Boiling Point": "221 \u00b0C", "Melting Point": "8.2 \u00b0C"}}