{"cas_no": "80-75-1", "cn_name": "11ALPHA-\u5b55\u916e", "en_name": ["11\u03b1-Hydroxyprogesterone", "Pregn-4-ene-3,20-dione, 11-hydroxy-, (11\u03b1)-", "Pregn-4-ene-3,20-dione, 11\u03b1-hydroxy-", "Progesterone, 11\u03b1-hydroxy-", "(11\u03b1)-11-Hydroxypregn-4-ene-3,20-dione", "11\u03b1-Hydroxypregn-4-ene-3,20-dione", "Pregn-4-en-11\u03b1-ol-3,20-dione", "U 0384", "4-Pregnene-11\u03b1-ol-3,20-dione", "11\u03b1-Hydroxyprogesterone", "11-Hydroxyprogesterone", "DG 322B", "NSC 3350"], "SMILES": "CC12C3C(C4C(C)(CC3O)C(C(C)=O)CC4)CCC1=CC(=O)CC2", "physical_data": {"Molecular Weight": "330.46", "Molecular Formula": "C21H30O3", "Melting Point": "166-168 \u00b0C"}}