{"cas_no": "80-71-7", "cn_name": "\u7532\u57fa\u73af\u620a\u70ef\u9187\u916e", "en_name": ["2-Hydroxy-3-methyl-2-cyclopenten-1-one", "2-Cyclopenten-1-one, 2-hydroxy-3-methyl-", "2-Hydroxy-3-methyl-2-cyclopenten-1-one", "Cyclotene", "Cycloten", "2-Hydroxy-3-methyl-2-cyclopentenone", "Corylon", "3-Methylcyclopent-2-en-2-ol-1-one", "Corylone", "3-Methyl-2-hydroxy-2-cyclopentenone", "2-Hydroxy-1-methylcyclopenten-3-one", "Maple lactone", "Cyclotene (odorant)", "NSC 133445", "NSC 84226", "2-Hydroxy-3-methyl-2-cyclopentene-1-one", "MCP", "2-Hydroxy-1-methyl-1-cyclopentene-3-one", "3-Methyl-2-hydroxy-2-cyclopenten-1-one"], "SMILES": "OC1=C(C)CCC1=O", "physical_data": {"Molecular Weight": "112.13", "Molecular Formula": "C6H8O2", "Boiling Point": "100-102 \u00b0C @ Press: 20 Torr", "Melting Point": "73-85 \u00b0C"}}