{"cas_no": "80-70-6", "cn_name": "\u56db\u7532\u57fa\u80cd", "en_name": ["1,1,3,3-Tetramethylguanidine", "Guanidine, N,N,N\u2032,N\u2032-tetramethyl-", "Guanidine, 1,1,3,3-tetramethyl-", "N,N,N\u2032,N\u2032-Tetramethylguanidine", "1,1,3,3-Tetramethylguanidine", "Tetramethylguanidine", "N1,N1,N3,N3-Tetramethylguanidine", "NSC 148309", "PC-CAT TMG", "Polycat 201"], "SMILES": "C(N(C)C)(N(C)C)=N", "physical_data": {"Molecular Weight": "115.18", "Molecular Formula": "C5H13N3", "Boiling Point": "159-160 \u00b0C", "Density": "0.91 g/cm\u00b3 @ Temp: 25 \u00b0C"}}