{"cas_no": "80-74-0", "cn_name": "\u78fa\u80fa\u4e59\u9170\u5f02\u5641", "en_name": ["Sulfisoxazole acetyl", "Acetamide, N-[(4-aminophenyl)sulfonyl]-N-(3,4-dimethyl-5-isoxazolyl)-", "Acetamide, N-(3,4-dimethyl-5-isoxazolyl)-N-sulfanilyl-", "Sulfanilamide, N1-acetyl-N1-(3,4-dimethyl-5-isoxazolyl)-", "N-[(4-Aminophenyl)sulfonyl]-N-(3,4-dimethyl-5-isoxazolyl)acetamide", "N1-Acetyl-N1-(3,4-dimethyl-5-isoxazolyl)sulfanilamide", "Lipo-Gantrisin acetyl", "N1-Monoacetylsulfisoxazole", "Sulfisoxazole acetyl", "Sulfisoxazole, N1-acetyl-", "N\u2032-Acetylsulfisoxazole", "N1-Acetylsulfisoxazole", "Acetylsulfisoxazole", "Gantrisin acetyl", "Acetylgantrisin", "Lipo-Gantrisin", "Sulfazin", "N-Acetylsulfisoxazole"], "SMILES": "N(S(=O)(=O)C1=CC=C(N)C=C1)(C(C)=O)C2=C(C)C(C)=NO2", "physical_data": {"Molecular Weight": "309.34", "Molecular Formula": "C13H15N3O4S", "Melting Point": "193.5 \u00b0C"}}