{"cas_no": "80-78-4", "cn_name": "\u9f99\u8475\u6b21\u78b1", "en_name": ["Solanidine", "Solanid-5-en-3-ol, (3\u03b2)-", "Solanid-5-en-3\u03b2-ol", "Solanidine", "1H-Naphth[2\u2032,1\u2032:4,5]indeno[1,2-b]indolizine, solanid-5-en-3-ol deriv.", "(3\u03b2)-Solanid-5-en-3-ol", "Solatubine", "Solanidin", "Solatubin", "NSC 76025", "(-)-Solanidine"], "SMILES": "CC12C3C(N4C(C3C)CCC(C)C4)CC1C5C(CC2)C6(C)C(=CC5)CC(O)CC6", "physical_data": {"Molecular Weight": "397.64", "Molecular Formula": "C27H43NO", "Melting Point": "218.5 \u00b0C"}}