{"cas_no": "80-92-2", "cn_name": "\u5b55\u753e\u4e8c\u9187", "en_name": ["Pregnanediol", "Pregnane-3,20-diol, (3\u03b1,5\u03b2,20S)-", "5\u03b2-Pregnane-3\u03b1,20\u03b1-diol", "Diol", "(3\u03b1,5\u03b2,20S)-Pregnane-3,20-diol", "3\u03b1,20\u03b1-Dihydroxy-5\u03b2-pregnane", "Pregnanediol", "NSC 1612", "NSC 47462", "MeSH ID: D011276"], "SMILES": "CC12C3C(C4C(C)(CC3)C(C(C)O)CC4)CCC1CC(O)CC2", "physical_data": {"Molecular Weight": "320.51", "Molecular Formula": "C21H36O2", "Melting Point": "243.5 \u00b0C", "Density": "1.067 g/cm\u00b3"}}