{"cas_no": "80-99-9", "cn_name": "5\u0391-CHOLEST-7-EN-3-OL;LATHOSTEROL", "en_name": ["Lathosterol", "Cholest-7-en-3-ol, (3\u03b2,5\u03b1)-", "5\u03b1-Cholest-7-en-3\u03b2-ol", "(3\u03b2,5\u03b1)-Cholest-7-en-3-ol", "Lathosterol", "3\u03b2-Hydroxy-5\u03b1-cholest-7-ene", "\u03947-Cholestenol", "\u03b3-Cholestenol", "Cholest-7-en-3-ol", "7-En-3-cholestanol"], "SMILES": "CC12C(C=3C(C4(C)C(CC3)CC(O)CC4)CC1)CCC2C(CCCC(C)C)C", "physical_data": {"Molecular Weight": "386.65", "Molecular Formula": "C27H46O", "Melting Point": "122-123 \u00b0C"}}