{"cas_no": "80-97-7", "cn_name": "\u4e8c\u6c22\u80c6\u56fa\u9187", "en_name": ["Cholestanol", "Cholestan-3-ol, (3\u03b2,5\u03b1)-", "5\u03b1-Cholestan-3\u03b2-ol", "(3\u03b2,5\u03b1)-Cholestan-3-ol", "\u03b2-Cholestanol", "Dihydrocholesterol", "3\u03b2-Hydroxycholestane", "Zymostanol", "5\u03b1-Dihydrocholesterol", "Dihydrocholesterin", "5\u03b1-Cholestanol", "Cholestan-3\u03b2-ol", "Cholestanol", "3\u03b2-Hydroxy-5\u03b1-cholestane", "NSC 18188", "Lathostanol", "Dihydrolathosterol", "5\u03b1(H)-Cholestan-3\u03b2-ol", "(+)-Dihydrocholesterol", "MeSH ID: D004083"], "SMILES": "CC12C(C3C(C4(C)C(CC3)CC(O)CC4)CC1)CCC2C(CCCC(C)C)C", "physical_data": {"Molecular Weight": "388.67", "Molecular Formula": "C27H48O", "Melting Point": "141.5 \u00b0C"}}