{"cas_no": "8000-41-7", "cn_name": "\u677e\u6cb9\u9187", "en_name": ["Terpineol", "Terpineol", "Terpineol 318", "Alpha Jax", "Terpineol C", "Terpineol LW", "RCI-YS 0130"], "SMILES": "", "physical_data": {"Molecular Weight": "", "Molecular Formula": "C10H18O", "Boiling Point": "217-218 \u00b0C @ Press: 760 Torr", "Melting Point": "35 \u00b0C", "Density": "0.9698 g/cm\u00b3 @ Temp: 15 \u00b0C"}}