{"cas_no": "8001-79-4", "cn_name": "\u84d6\u9ebb\u6cb9", "en_name": ["Castor oil", "Castor oil", "Phorbyol", "Aromatic castor oil", "3 Castor Oil", "No. 3 Castor oil", "Castor oil 3", "Oils, glyceridic, ricin", "Ricinus communis oil", "Fats and Glyceridic oils, castor", "Fats and Glyceridic oils, ricin", "LAVCO", "Viscotrol C", "ELA-DR", "DB Oil", "Ricinol", "Crystal O", "Tangantangan oil", "Oil of Palma Christi", "Neoloid", "Z 1", "Z 1 (oil)", "Thixcin ST", "Rizinusoel PD", "Acrol 1070", "HGS 120", "FD-ZY 05", "Refined Castor Oil Special Grade A", "FSG", "Refined Castor Oil A", "Himashiyu D", "Castor Oil D", "Jayant 9011", "AS 15", "AS 15 (oil)", "Parafarm", "LAV (polyol)", "LAV", "LAV (oil)", "Castor Oil SL", "Natunola Castor 1023", "Recastol 2790", "Kakutoku A", "Oleum Ricini", "Marutoku A", "Ricos CO-EX", "Spark M 80", "Industrial No. 1 castor oil", "L 04224", "CD 2020", "C 010 (polyurethane)", "C 010", "Rizinusol Q 1", "BMY 01", "Resinol EXP-PU 160-10", "AP 21", "AP 19", "Sternoil HCO", "MeSH ID: D002368"], "SMILES": "", "physical_data": {"Molecular Weight": "", "Molecular Formula": "Unspecified", "Boiling Point": "313 \u00b0C", "Melting Point": "-18--10 \u00b0C", "Density": "0.96 g/cm\u00b3"}}