{"cas_no": "8001-35-2", "cn_name": "\u6bd2\u6740\u82ac", "en_name": ["Toxaphene", "Toxaphene", "Alltox", "Chlorinated camphene", "Geniphene", "Phenacide", "Phenatox", "Toxakil", "Polychlorocamphene", "Toxyphen", "Melipax", "Hercules 3956", "Toxaphen", "Estonox", "M 5055", "Camphechlor", "Camphochlor", "Kamfochlor", "Strobane T", "PChK", "Anatox", "Canfeclor", "PCC", "PKhF", "PChK (insecticide)", "Polychlorcamphene", "MeSH ID: D014112"], "SMILES": "", "physical_data": {"Molecular Weight": "", "Molecular Formula": "Unspecified", "Melting Point": "65-90 \u00b0C", "Density": "1.65 g/cm\u00b3 @ Temp: 25 \u00b0C"}}