{"cas_no": "80012-43-7", "cn_name": "\u4f9d\u5339\u65af\u6c40", "en_name": ["Epinastine", "1H-Dibenz[c,f]imidazo[1,5-a]azepin-3-amine, 9,13b-dihydro-", "9,13b-Dihydro-1H-dibenz[c,f]imidazo[1,5-a]azepin-3-amine", "Epinastine", "WAL 801", "(\u00b1)-Epinastine"], "SMILES": "NC=1N2C(C=3C(CC=4C2=CC=CC4)=CC=CC3)CN1", "physical_data": {"Molecular Weight": "249.31", "Molecular Formula": "C16H15N3", "Melting Point": "205-208 \u00b0C"}}