{"cas_no": "8001-31-8", "cn_name": "\u6930\u5b50\u6cb9", "en_name": ["Coconut oil", "Coconut oil", "Copra oil", "Hydrol 110", "Oils, coconut", "Oils, copra", "Oils, glyceridic, coconut", "Oils, glyceridic, copra", "Cocos nucifera oil", "Fats and Glyceridic oils, coconut", "Fats and Glyceridic oils, copra", "Victory 76", "Koline", "Koline 76", "Hardko", "Palmin", "Trifat C 24", "Nikkol Trifat C 24", "Lipovol C 76", "Oleum cocois", "Emafat CO 7", "Coconut oils", "Ultimate 92", "Akovir CNO"], "SMILES": "", "physical_data": {"Molecular Weight": "", "Molecular Formula": "Unspecified", "Melting Point": "21-25 \u00b0C", "Density": "0.903 g/cm\u00b3 @ Temp: 0 \u00b0C"}}