{"cas_no": "80012-44-8", "cn_name": "\u76d0\u9178\u4f9d\u5339\u65af\u6c40", "en_name": ["Epinastine hydrochloride", "1H-Dibenz[c,f]imidazo[1,5-a]azepin-3-amine, 9,13b-dihydro-, hydrochloride (1:1)", "1H-Dibenz[c,f]imidazo[1,5-a]azepin-3-amine, 9,13b-dihydro-, monohydrochloride", "WAL 801CL", "Epinastine hydrochloride", "Alesion", "Elestat"], "SMILES": "NC=1N2C(C=3C(CC=4C2=CC=CC4)=CC=CC3)CN1.Cl", "physical_data": {"Molecular Weight": "", "Molecular Formula": "C16H15N3.ClH", "Melting Point": "273-275 \u00b0C"}}