{"cas_no": "8001-26-1", "cn_name": "\u4e9a\u9ebb\u5b50\u6cb9", "en_name": ["Linseed oil", "Linseed oil", "Linseed oil substitutes", "Linseed-oil substitutes", "Linseed oil, bleached", "Flaxseed oil", "Oils, glyceridic, flaxseed or linseed", "Fats and Glyceridic oils, linseed", "Fats and Glyceridic oils, flaxseed", "Scan-Oil", "Purolin", "Purolin 2", "P 1037", "Toenol 1140", "GP 1125", "Diggers", "Flax oil", "Eruboiruyu", "Hakujun'ama 6", "Hakujun'ama 7", "Linoxin Oil H", "PU 104", "Linola 2090", "NuLin 50", "OKO-M 25", "Oleum Lini", "Oleum semen Lini", "Linum seed oil", "Kremer 73054", "Veopol 212055", "Shuats-Alsi 2", "MeSH ID: D008043"], "SMILES": "", "physical_data": {"Molecular Weight": "", "Molecular Formula": "Unspecified", "Boiling Point": "&gt;316 \u00b0C", "Melting Point": "-24.0 \u00b0C", "Density": "0.925-0.935 g/cm\u00b3"}}