{"cas_no": "8003-22-3", "cn_name": "\u6eb6\u5242\u9ec4 33", "en_name": ["Solvent Yellow 33", "C.I. Solvent Yellow 33", "C.I. 47000", "Chinoline Yellow D Sol.in Spirits", "Chinoline Yellow ZSS", "Nitro Fast Yellow SL", "Oil Yellow SIS", "Petrol Yellow C", "Quinoline Yellow Base", "Quinoline Yellow Spirit Soluble", "Quinoline Yellow A Spirit Soluble", "Waxoline Yellow T", "Arlosol Yellow S", "D and C Yellow No. 11", "Quinoline Yellow SS", "Solvent Yellow 33", "D&", "C Yellow No. 11", "Japan Yellow 204", "Japan Yellow No. 204", "1,3-Isobenzofurandione, reaction products with dimethylquinoline and methylquinoline", "Kayaset Yellow 2G", "Polysolve Yellow 33G", "Oplas Yellow 136", "D &", "C Yellow 11", "Yellow 11", "KP Plast Yellow 2G", "Sumiplast Olive MR", "Yellow No. 204", "Plast Yellow 8005", "CI 47000"], "SMILES": "", "physical_data": {"Molecular Weight": "", "Molecular Formula": "Unspecified", "Melting Point": "241 \u00b0C"}}