{"cas_no": "8004-13-5", "cn_name": "\u4e8c\u82ef\u919a-\u8054\u82ef\u5171\u6676", "en_name": ["1,1\u2032-Biphenyl, mixt. with 1,1\u2032-oxybis[benzene]", "1,1\u2032-Biphenyl, mixt. with 1,1\u2032-oxybis[benzene]", "Benzene, 1,1\u2032-oxybis-, mixt. contg.", "Dowtherm", "Dinil", "Dowtherm A", "Biphenyl-diphenyl ether mixture", "Biphenyl-phenyl ether mixture", "Dinyl", "Diphyl", "Therminol VP", "Therminol VP 1"], "SMILES": "C1(=CC=CC=C1)C2=CC=CC=C2.O(C1=CC=CC=C1)C2=CC=CC=C2", "physical_data": {"Molecular Weight": "", "Molecular Formula": "C12H10O.C12H10", "Boiling Point": "257 \u00b0C", "Melting Point": "12.2 \u00b0C", "Density": "1.06 g/cm\u00b3 @ Temp: 25 \u00b0C"}}