{"cas_no": "8006-64-2", "cn_name": "\u677e\u8282\u6cb9", "en_name": ["Turpentine oil", "Turpentine oil", "Turpentine, oil", "Turpentine, Turpentine oil", "Turpentine spirits", "Oil of turpentine", "Terpentine oil", "Gum turpentine, oils", "G 4134", "Essential oils, turpentine", "Spirits of turpentine", "Gum Terpene N", "Oleum terebinthinae", "Terebinth oil"], "SMILES": "", "physical_data": {"Molecular Weight": "", "Molecular Formula": "Unspecified", "Boiling Point": "154-170 \u00b0C", "Melting Point": "-60--50 \u00b0C", "Density": "0.854-0.868 g/cm\u00b3 @ Temp: 25 \u00b0C"}}