{"cas_no": "8006-39-1", "cn_name": "\u677e\u8102\u9187", "en_name": ["Terpinol", "Terpinol"], "SMILES": "", "physical_data": {"Molecular Weight": "", "Molecular Formula": "Unspecified", "Melting Point": "105.0 \u00b0C"}}