{"cas_no": "80060-09-9", "cn_name": "\u4e01\u919a\u8132", "en_name": ["Diafenthiuron", "Thiourea, N-[2,6-bis(1-methylethyl)-4-phenoxyphenyl]-N\u2032-(1,1-dimethylethyl)-", "N-[2,6-Bis(1-methylethyl)-4-phenoxyphenyl]-N\u2032-(1,1-dimethylethyl)thiourea", "Diafenthiuron", "CGA 106630", "Polo", "Pegasus", "Pegasus (pesticide)", "Dingminiao", "Gamba", "1-tert-Butyl-3-(2,6-diisopropyl-4-phenoxyphenyl)thiourea", "Phoenix", "Phoenix (thiourea insecticide)", "Polo 500 SC", "Polo 500"], "SMILES": "N(C(NC(C)(C)C)=S)C1=C(C(C)C)C=C(OC2=CC=CC=C2)C=C1C(C)C", "physical_data": {"Molecular Weight": "384.58", "Molecular Formula": "C23H32N2OS", "Melting Point": "146 \u00b0C"}}