{"cas_no": "8007-70-3", "cn_name": "\u5927\u8334\u9999\u6cb9", "en_name": ["Anise oil", "Anise oil", "Oils, anise", "Oils, essential, anise", "Essential oils, anise", "Aniseed oil", "Anise oil", "Oil of anise", "Oils, Pimpinella anisum", "Pimpinella anisum fruit oil", "Oils, Pimpinellaanisum fruit", "Anise seed oil", "Oils, anise", "Pimpinella anisum seed oil", "Anise fruit oil"], "SMILES": "", "physical_data": {"Molecular Weight": "", "Molecular Formula": "Unspecified", "Melting Point": "14-19 \u00b0C", "Density": "0.978-0.988 g/cm\u00b3 @ Temp: 25 \u00b0C"}}