{"cas_no": "8007-35-0", "cn_name": "\u841c\u54c1\u9187\u4e59\u9178\u916f", "en_name": ["Terpineol, acetate", "Terpineol, acetate", "Terpinyl acetate"], "SMILES": "", "physical_data": {"Molecular Weight": "", "Molecular Formula": "C12H20O2", "Boiling Point": "104-106 \u00b0C @ Press: 11 Torr", "Density": "0.9216 g/cm\u00b3 @ Temp: 15.5 \u00b0C"}}