{"cas_no": "80082-65-1", "cn_name": "\u6c28\u66f2\u5357\u4e3b\u73af", "en_name": ["(2S,3S)-3-Amino-2-methyl-4-oxo-1-azetidinesulfonic acid", "1-Azetidinesulfonic acid, 3-amino-2-methyl-4-oxo-, (2S,3S)-", "1-Azetidinesulfonic acid, 3-amino-2-methyl-4-oxo-, (2S-trans)-", "(2S,3S)-3-Amino-2-methyl-4-oxo-1-azetidinesulfonic acid"], "SMILES": "S(=O)(=O)(O)N1C(C)C(N)C1=O", "physical_data": {"Molecular Weight": "180.18", "Molecular Formula": "C4H8N2O4S", "Melting Point": "&gt;230 \u00b0C (decomp)"}}