{"cas_no": "80087-71-4", "cn_name": "6-\u6c1f-2-\u5def\u57fa\u82ef\u5e76\u567b\u5511", "en_name": ["6-Fluoro-2(3H)-benzothiazolethione", "2(3H)-Benzothiazolethione, 6-fluoro-", "6-Fluoro-2(3H)-benzothiazolethione", "6-Fluoro-2-mercaptobenzothiazole"], "SMILES": "S=C1NC=2C(S1)=CC(F)=CC2", "physical_data": {"Molecular Weight": "185.24", "Molecular Formula": "C7H4FNS2", "Melting Point": "225-227 \u00b0C"}}