{"cas_no": "8008-20-6", "cn_name": "\u7164\u6cb9", "en_name": ["Kerosene", "Kerosene", "Kerosine (petroleum)", "Kerosine", "Shell 140", "Fuels, kerosine", "Ink oil", "AF 100 (pesticide)", "Avtur (pesticide)", "Avtur", "Odorless Solvent 3440", "Pegasol 3040", "Bayol 35", "Exxsol D 200/240", "Escaid 110", "Neochiozol", "Escaid 100", "Shellsol 2046", "Bitumen Cutter", "Nysolvin 75A", "SX 7", "SX 12", "KO 30 (solvent)", "Parasol", "P 878", "Kedrul 212", "Conoco 170E", "Chiotekku SH", "Chiotekku", "Finalan 75", "Deotomisol S", "Solbrax Eco 255/285", "Eneos Kerosene", "RP 3", "RP 3 (solvent)", "W-Kerosene", "Magisol 52", "Ketrul 211", "TS 1", "JP-A 1", "Kixxol", "Muplilkill", "Kerosin", "D 110", "MSGS 60", "HC 50 (solvent)", "HC 50", "JP 7 (kerosene)", "JP 7", "MeSH ID: D007648"], "SMILES": "", "physical_data": {"Molecular Weight": "", "Molecular Formula": "Unspecified", "Boiling Point": "175-325 \u00b0C", "Melting Point": "-20 \u00b0C", "Density": "~0.80 g/cm\u00b3 (approx)"}}