{"cas_no": "80126-54-1", "cn_name": "2-\u7532\u57fa-D-\u82ef\u4e19\u6c28\u9178", "en_name": ["2-Methyl-D-phenylalanine", "D-Phenylalanine, 2-methyl-", "2-Methyl-D-phenylalanine", "D-2\u2032-Methylphenylalanine", "D-2-Methylphenylalanine", "(R)-2-Amino-3-o-tolylpropionic acid", "(R)-2-Amino-3-(o-tolyl)propanoicacid"], "SMILES": "C(C(C(O)=O)N)C1=C(C)C=CC=C1", "physical_data": {"Molecular Weight": "179.22", "Molecular Formula": "C10H13NO2", "Melting Point": "259-260 \u00b0C (decomp)"}}