{"cas_no": "8013-90-9", "cn_name": "\u7d2b\u7f57\u5170\u916e", "en_name": ["Ionone", "Ionone", "Irisone"], "SMILES": "", "physical_data": {"Molecular Weight": "", "Molecular Formula": "C13H20O", "Boiling Point": "1 \u00b0C @ Press: 747 Torr", "Density": "0.853 g/cm\u00b3 @ Temp: 20 \u00b0C"}}