{"cas_no": "80149-80-0", "cn_name": "\u5bf9\u785d\u57fa\u82ef\u57fa\u4e09\u7532\u57fa\u7845\u4e59\u57fa\u78b3\u9178\u916f", "en_name": ["4-Nitrophenyl 2-(trimethylsilyl)ethyl carbonate", "Carbonic acid, 4-nitrophenyl 2-(trimethylsilyl)ethyl ester", "4-Nitrophenyl 2-(trimethylsilyl)ethyl carbonate", "2-(Trimethylsilyl)ethyl p-nitrophenyl carbonate", "2-(Trimethylsilyl)ethyl 4-nitrophenyl carbonate", "4-Nitrophenyl 2-trimethylsilylethyl carbonate", "2-(Trimethylsilanyl)ethyl 4-nitrophenyl carbonate"], "SMILES": "O(C(OCC[Si](C)(C)C)=O)C1=CC=C(N(=O)=O)C=C1", "physical_data": {"Molecular Weight": "283.35", "Molecular Formula": "C12H17NO5Si", "Melting Point": "35 \u00b0C"}}