{"cas_no": "8016-13-5", "cn_name": "\u9c7c\u6cb9", "en_name": ["Fish oil", "Fish oil", "Fats and Glyceridic oils, fish", "Oils, glyceridic, fish", "Oils, fish", "Fish body oil", "Oils, fish body", "Fish oils", "Glyceridic oils, fish", "Pikasol", "Triomar", "NC 020 (oil)", "Defloc Z 3", "Epamer", "Biopan", "Eskimo 3", "OmegaPure", "PJ 1", "DHA 27C-RD", "DHA Oil MH", "DHA 27G", "Nesterol HS-S", "Alkitol R 15", "Okeanol", "Feniko", "Omega 3TG", "Nisui DHA 27", "DHA-A 46MK", "VivoMega 1812TG", "Fatrofertil", "Omega DHA", "Omegavie DHA 70TG", "Omegavie EPA 70TG", "Omegavi 1812", "Omevulital 1812 Gold", "DHA 27", "DD Oil Type 2B-S", "MeSH ID: D005395"], "SMILES": "", "physical_data": {"Molecular Weight": "", "Molecular Formula": "Unspecified", "Melting Point": "31-45 \u00b0C"}}