{"cas_no": "8018-01-7", "cn_name": "\u4ee3\u68ee\u9530\u950c", "en_name": ["Mancozeb", "Manganese, [N-[2-[(dithiocarboxy)amino]ethyl]carbamodithioato(2-)-\u03baS,\u03baS\u2032]-, mixt. with [N-[2-[(dithiocarboxy)amino]ethyl]carbamodithioato(2-)-\u03baS,\u03baS\u2032]zinc", "Manganese, [[1,2-ethanediylbis[carbamodithioato]](2-)]-, mixt. with [[1,2-ethanediylbis[carbamodithioato]](2-)]zinc", "Carbamic acid, ethylenebis[dithio-, manganese zinc complex", "Manganese, [[2-[(dithiocarboxy)amino]ethyl]carbamodithioato(2-)-\u03baS,\u03baS\u2032]-, mixt. with [[2-[(dithiocarboxy)amino]ethyl]carbamodithioato(2-)-\u03baS,\u03baS\u2032]zinc", "Carbamodithioic acid, 1,2-ethanediylbis-, zinc complex", "Carbamodithioic acid, 1,2-ethanediylbis-, manganese complex", "Zinc, [[1,2-ethanediylbis[carbamodithioato]](2-)]-, mixt. contg.", "Zinc, [[2-[(dithiocarboxy)amino]ethyl]carbamodithioato(2-)-\u03baS,\u03baS\u2032]-, mixt. contg.", "Dithane M 45", "Mancozeb", "Manoseb", "Marzin", "Zinc manganese ethylenebisdithiocarbamate", "Dithane ultra", "F 2966", "Fore", "Zimanat", "Manzate 200", "Green-daisen M", "Manzeb", "Dithane SPC", "Vondozeb", "Maneb-zinc", "Dithane S 60", "Carmazine", "Karamate", "Zimaneb", "Ziman-Dithane", "Novozir MN 80", "Tanzeo M 45", "Othane M 45", "Kascade", "Manzidan", "Mancozan", "Milcozebe", "Tritogol MZ", "Mancozi", "Mancomix", "Dithane F", "Nemispor", "Mancosan", "Agrox 16D", "Dithane M80", "Penncozeb", "Dithane 945", "Karamate N", "Thane M 45", "Novozir MN", "Dithane DG", "Pennfluid", "Sancozeb", "Liro manzeb", "Indofil M 45", "Dithane F 45", "Dithane", "Sandozeb Pepite", "Mankogal", "Pencozeb", "Mycotrin", "Diesen M", "Sakozeb Blue", "Dithane DG NT", "Dithane OS", "Dithane Rainshield Neo Tec", "Mancozebe Sipcam", "Contizeb", "Suncozeb", "Dhanuka M 45", "Dithane Neo Tec 75WG", "Jimanaisen", "Jimandaisen", "Hi-shield", "Indofil 80WP", "Trimanoc", "Daisenmengxin", "Dithane M45", "Greenzeb 80WP", "Indofil M45", "Agrozeb 80WP", "Dithane 60SC", "Banazeb 60SC", "Dithane NT", "Mount 45"], "SMILES": "N(CCNC(=S)[S-])C=1[S-][Zn+2][S]1.N(CCNC(=S)[S-])C=1[S-][Mn+2][S]1", "physical_data": {"Molecular Weight": "", "Molecular Formula": "C4H6MnN2S4.C4H6N2S4Zn", "Melting Point": "192-204 \u00b0C (decomp)", "Density": "1.92 g/cm\u00b3"}}