{"cas_no": "80181-31-3", "cn_name": "\u805a(3-\u7f9f\u57fa\u4e01\u9178-CO-3-\u7f9f\u57fa\u7f2c\u8349\u9178)", "en_name": ["3-Hydroxybutyric acid-3-hydroxyvaleric acid copolymer", "Pentanoic acid, 3-hydroxy-, polymer with 3-hydroxybutanoic acid", "Butanoic acid, 3-hydroxy-, polymer with 3-hydroxypentanoic acid", "\u03b2-Hydroxybutyric acid-\u03b2-hydroxyvaleric acid copolymer", "\u03b2-Hydroxybutanoic acid-\u03b2-hydroxyvaleric acid copolymer", "\u03b2-Hydroxybutyrate-\u03b2-hydroxyvalerate copolymer", "Biopol 530", "3-Hydroxybutyrate-3-hydroxyvalerate copolymer", "Biopol D 410G", "3-Hydroxybutanoic acid-3-hydroxypentanoic acid copolymer", "3-Hydroxypentanoic acid-3-hydroxybutanoic acid copolymer", "Poly(3-hydroxybutyrate-3-hydroxyvalerate)", "Biopol PHBV", "Biopol P(3HB-3HV)", "Biopol D 600", "Biopol D 400", "Biopol D 411G", "3-Hydroxybutyric acid-3-hydroxyvaleric acid copolymer", "Biopol D 611G", "D 300P", "Biopol D 400P", "Biopol D 331G", "Biopol D 600G", "Biopol XB 407", "Biopol G 4112D", "Biopol D 411GWT", "Biopol P 600G", "Biopol D 400G", "3-Hydroxybutanoic acid-3-hydroxyvaleric acid copolymer", "NSC 179698", "Biopol D 411GN", "ElasmoPOB", "3-Hydroxybutyric acid-3-hydroxypentanoic acid copolymer", "Biopol PHBV 12", "ElastoPOB", "3-Hydroxybutyric acid-valeric acid copolymer", "Biocycle 2000", "Bioplastotan", "ElastoPHB 3D", "Poly(3-hydroxybutanoic acid-3-hydroxyvaleric acid)", "Hydroxybutyrate-hydroxyvalerate copolymer", "Biopol D 600GN", "3-Hydroxyvalerate-3-hydroxybutyrate copolymer", "3-Hydroxyvaleric acid-3-hydroxybutyric acid copolymer", "Biopol 6L600N19", "Poly(3-hydroxybutyrate-co-3-hydroxyvalerate)", "Poly(hydroxybutyrate-co-hydroxyvalerate)", "PHBV", "3-Hydroxybutyrate-hydroxyvalerate copolymer", "6L600N19", "Mirel MZ 100", "Biopol 3000", "Poly-(3-hydroxybutyrate-co-3-hydroxyvalerate)", "Biocycle L 110", "FN 000HA", "\u03b2-Hydroxybutanoic acid-\u03b2-hydroxypentanoic acid copolymer", "Ecomann 10020EM", "Biocycle 1000", "Hydroxybutyric acid-\u03b2-hydroxyvaleric acid copolymer", "[3-Hydroxybutyrate-co-3-hydroxyvalerate] copolymer", "Maj Eco FN 000HA", "PHB88/PHV12", "PHI 003", "Biocycle L 112"], "SMILES": "C(C(C)O)C(O)=O.C(CC(O)=O)(CC)O", "physical_data": {"Molecular Weight": "", "Molecular Formula": "(C5H10O3.C4H8O3)x", "Melting Point": "150 \u00b0C"}}