{"cas_no": "80194-70-3", "cn_name": "3-\u6c2f-2-\u6c30\u57fa-5-\u4e09\u6c1f\u7532\u57fa\u5421\u5576", "en_name": ["3-Chloro-5-(trifluoromethyl)-2-pyridinecarbonitrile", "2-Pyridinecarbonitrile, 3-chloro-5-(trifluoromethyl)-", "3-Chloro-5-(trifluoromethyl)-2-pyridinecarbonitrile", "3-Chloro-2-cyano-5-trifluoromethylpyridine", "2-Cyano-3-chloro-5-trifluoromethylpyridine", "3-Chloro-5-(trifluoromethyl)picolinonitrile"], "SMILES": "C(F)(F)(F)C=1C=C(Cl)C(C#N)=NC1", "physical_data": {"Molecular Weight": "206.55", "Molecular Formula": "C7H2ClF3N2", "Boiling Point": "108-110 \u00b0C @ Press: 30 Torr"}}