{"cas_no": "80194-69-0", "cn_name": "5-\u4e09\u6c1f\u7532\u57fa\u5421\u5576-2-\u7fa7\u9178", "en_name": ["5-(Trifluoromethyl)pyridine-2-carboxylic acid", "2-Pyridinecarboxylic acid, 5-(trifluoromethyl)-", "5-(Trifluoromethyl)-2-pyridinecarboxylic acid", "5-(Trifluoromethyl)pyridine-2-carboxylic acid", "5-Trifluoromethylpicolinic acid"], "SMILES": "C(F)(F)(F)C=1C=CC(C(O)=O)=NC1", "physical_data": {"Molecular Weight": "191.11", "Molecular Formula": "C7H4F3NO2", "Melting Point": "134-135 \u00b0C"}}