{"cas_no": "80194-71-4", "cn_name": "2-\u6c30\u57fa-3-\u6c1f-5-\u4e09\u6c1f\u7532\u57fa\u5421\u5576", "en_name": ["3-Fluoro-5-(trifluoromethyl)-2-pyridinecarbonitrile", "2-Pyridinecarbonitrile, 3-fluoro-5-(trifluoromethyl)-", "3-Fluoro-5-(trifluoromethyl)-2-pyridinecarbonitrile", "3-Fluoro-5-trifluoromethylpyridine-2-carbonitrile"], "SMILES": "C(F)(F)(F)C=1C=C(F)C(C#N)=NC1", "physical_data": {"Molecular Weight": "190.10", "Molecular Formula": "C7H2F4N2", "Boiling Point": "90-94 \u00b0C @ Press: 30 Torr"}}