{"cas_no": "802-93-7", "cn_name": "1,3-\u53cc\uff08\u516d\u6c1f-\u7f9f\u5f02\u4e19\u57fa\uff09\u82ef", "en_name": ["\u03b11,\u03b11,\u03b13,\u03b13-Tetrakis(trifluoromethyl)-1,3-benzenedimethanol", "1,3-Benzenedimethanol, \u03b11,\u03b11,\u03b13,\u03b13-tetrakis(trifluoromethyl)-", "m-Xylene-\u03b1,\u03b1\u2032-diol, \u03b1,\u03b1,\u03b1\u2032,\u03b1\u2032-tetrakis(trifluoromethyl)-", "1,3-Benzenedimethanol, \u03b1,\u03b1,\u03b1\u2032,\u03b1\u2032-tetrakis(trifluoromethyl)-", "\u03b11,\u03b11,\u03b13,\u03b13-Tetrakis(trifluoromethyl)-1,3-benzenedimethanol", "1,3-Bis(2-hydroxyhexafluoro-2-propyl)benzene", "1,3-Bis(2-hydroxyhexafluoroisopropyl)benzene", "1,3-Bis(hexafluoro-2-hydroxy-2-propyl)benzene", "1,1,1,3,3,3-Hexafluoro-2-[3-(1,1,1,3,3,3-hexafluoro-2-hydroxypropan-2-yl)phenyl]propan-2-ol"], "SMILES": "C(C(F)(F)F)(C(F)(F)F)(O)C1=CC(C(C(F)(F)F)(C(F)(F)F)O)=CC=C1", "physical_data": {"Molecular Weight": "410.16", "Molecular Formula": "C12H6F12O2", "Boiling Point": "77 \u00b0C @ Press: 4 Torr"}}