{"cas_no": "80214-83-1", "cn_name": "\u7f57\u7ea2\u9709\u7d20", "en_name": ["Roxithromycin", "Erythromycin, 9-[O-[(2-methoxyethoxy)methyl]oxime], (9E)-", "Oxacyclotetradecane, erythromycin deriv.", "RU 28965", "Roxithromycin", "Rulid", "Roxithromycin A", "Surlid", "Rotramin", "Assoral", "Claramid", "Overal", "Forilin", "Rossitrol", "RU 965", "Brilid", "Roxeptin", "Roxid", "Roxxibid", "Roxibest-A", "Roxid-M", "Roxacin", "Xthrocin", "Roxl 150", "Roxo", "Rulide", "Biaxsig", "Roxar", "Roximycin", "MeSH ID: D015575"], "SMILES": "O(C1C(C)C(OC2C(O)C(N(C)C)CC(C)O2)C(C)(O)CC(C)C(=NOCOCCOC)C(C)C(O)C(C)(O)C(CC)OC(=O)C1C)C3CC(OC)(C)C(O)C(C)O3", "physical_data": {"Molecular Weight": "837.05", "Molecular Formula": "C41H76N2O15", "Melting Point": "122-126 \u00b0C"}}