{"cas_no": "8021-39-4", "cn_name": "\u6728\u6750\u9632\u8150\u6cb9,\u6728\u69b4\u6cb9", "en_name": ["Wood creosote", "Wood creosote", "Creosote, wood", "Creosote beechwood", "Beechwood creosote"], "SMILES": "", "physical_data": {"Molecular Weight": "", "Molecular Formula": "Unspecified", "Boiling Point": "~203 \u00b0C (approx)"}}