{"cas_no": "80223-99-0", "cn_name": "\u76d0\u9178\u5766\u7d22\u7f57\u8f9b", "en_name": ["Benzenesulfonamide, 5-[2-[[2-(2-ethoxyphenoxy)ethyl]amino]propyl]-2-methoxy-, hydrochloride (1:1)", "Benzenesulfonamide, 5-[2-[[2-(2-ethoxyphenoxy)ethyl]amino]propyl]-2-methoxy-, hydrochloride (1:1)", "Benzenesulfonamide, 5-[2-[[2-(2-ethoxyphenoxy)ethyl]amino]propyl]-2-methoxy-, monohydrochloride", "YM 12617", "LY 253352", "dl-Tamsulosin hydrochloride"], "SMILES": "S(N)(=O)(=O)C1=C(OC)C=CC(CC(NCCOC2=C(OCC)C=CC=C2)C)=C1.Cl", "physical_data": {"Molecular Weight": "", "Molecular Formula": "C20H28N2O5S.ClH", "Melting Point": "254-256 \u00b0C"}}