{"cas_no": "8025-81-8", "cn_name": "\u87ba\u65cb\u9709\u7d20", "en_name": ["Spiramycin", "Spiramycin", "Foromacidin", "Rovamycin", "Provamycin", "RP 5337", "Espiramicin", "Antibiotic 799", "Selectomycin", "Stomamycin", "Sequamycin", "NSC 55926", "IL 5902", "Rovamicina", "Rovamycine", "Spiramycins", "MeSH ID: D015572"], "SMILES": "", "physical_data": {"Molecular Weight": "", "Molecular Formula": "Unspecified", "Melting Point": "126-128 \u00b0C"}}