{"cas_no": "80253-38-9", "cn_name": "2,2-\u4e8c\u7532\u57fa-3-\u6c28\u57fa\u4e19\u9178\u4e59\u916f\u76d0\u9178\u76d0", "en_name": ["Propanoic acid, 3-amino-2,2-dimethyl-, ethyl ester, hydrochloride (1:1)", "Propanoic acid, 3-amino-2,2-dimethyl-, ethyl ester, hydrochloride (1:1)", "Propanoic acid, 3-amino-2,2-dimethyl-, ethyl ester, hydrochloride", "Ethyl 3-amino-2,2-dimethylpropanoate hydrochloride"], "SMILES": "C(C(OCC)=O)(CN)(C)C.Cl", "physical_data": {"Molecular Weight": "", "Molecular Formula": "C7H15NO2.ClH", "Melting Point": "101 \u00b0C"}}