{"cas_no": "80262-44-8", "cn_name": "\u846b\u82a6\u8132", "en_name": ["Cucurbituril", "1H,4H,14H,17H-2,16:3,15-Dimethano-5H,6H,7H,8H,9H,10H,11H,12H,13H,18H,19H,20H,21H,22H,23H,24H,25H,26H-2,3,4a,5a,6a,7a,8a,9a,10a,11a,12a,13a,15,16,17a,18a,19a,20a,21a,22a,23a,24a,25a,26a-tetracosaazabispentaleno[1\u2032\u2032\u2032,6\u2032\u2032\u2032:5\u2032\u2032,6\u2032\u2032,7\u2032\u2032]cycloocta[1\u2032\u2032,2\u2032\u2032,3\u2032\u2032:3\u2032,4\u2032]pentaleno[1\u2032,6\u2032:5,6,7]cycloocta[1,2,3-gh:1\u2032,2\u2032,3\u2032-g'h\u2032]cycloocta[1,2,3-cd:5,6,7-c'd\u2032]dipentalene-1,4,6,8,10,12,14,17,19,21,23,25-dodecone, dodecahydro-", "Dodecahydro-1H,4H,14H,17H-2,16:3,15-dimethano-5H,6H,7H,8H,9H,10H,11H,12H,13H,18H,19H,20H,21H,22H,23H,24H,25H,26H-2,3,4a,5a,6a,7a,8a,9a,10a,11a,12a,13a,15,16,17a,18a,19a,20a,21a,22a,23a,24a,25a,26a-tetracosaazabispentaleno[1\u2032\u2032\u2032,6\u2032\u2032\u2032:5\u2032\u2032,6\u2032\u2032,7\u2032\u2032]cycloocta[1\u2032\u2032,2\u2032\u2032,3\u2032\u2032:3\u2032,4\u2032]pentaleno[1\u2032,6\u2032:5,6,7]cycloocta[1,2,3-gh:1\u2032,2\u2032,3\u2032-g'h\u2032]cycloocta[1,2,3-cd:5,6,7-c'd\u2032]dipentalene-1,4,6,8,10,12,14,17,19,21,23,25-dodecone", "Cucurbituril"], "SMILES": "O=C1N2C3C4N5C(=O)N3CN6C7N(C2)C(=O)N8C7N(C6=O)CN9C%10N(C8)C(=O)N%11C%10N(C9=O)CN%12C%13N(C%11)C(=O)N%14CN%15C(=O)N%16CN%17C(=O)N(CN41)C%18N(C5)C(=O)N(C%18%17)CN%19C%16C%15N(C%19=O)CN(C%12=O)C%14%13", "physical_data": {"Molecular Weight": "996.82", "Molecular Formula": "C36H36N24O12", "Melting Point": "&gt;300 \u00b0C"}}