{"cas_no": "80286-58-4", "cn_name": "\u9752\u84bf\u9178", "en_name": ["Artemisinic acid", "1-Naphthaleneacetic acid, 1,2,3,4,4a,5,6,8a-octahydro-4,7-dimethyl-\u03b1-methylene-, (1R,4R,4aS,8aR)-", "1-Naphthaleneacetic acid, 1,2,3,4,4a,5,6,8a-octahydro-4,7-dimethyl-\u03b1-methylene-, [1R-(1\u03b1,4\u03b2,4a\u03b2,8a\u03b2)]-", "(1R,4R,4aS,8aR)-1,2,3,4,4a,5,6,8a-Octahydro-4,7-dimethyl-\u03b1-methylene-1-naphthaleneacetic acid", "Artemisic acid", "Qing Hau acid", "Artemisininic acid", "Arteannuic acid", "Arteannuinic acid", "Artemisinic acid", "Qing Hao acid"], "SMILES": "C(C(O)=O)(=C)C1C2C(C(C)CC1)CCC(C)=C2", "physical_data": {"Molecular Weight": "234.33", "Molecular Formula": "C15H22O2", "Melting Point": "135 \u00b0C"}}