{"cas_no": "803-19-0", "cn_name": "\u53cc(4-\u7fa7\u57fa\u82ef\u57fa)\u82ef\u57fa\u6c27\u5316\u81a6", "en_name": ["4,4\u2032-(Phenylphosphinylidene)bis[benzoic acid]", "Benzoic acid, 4,4\u2032-(phenylphosphinylidene)bis-", "Benzoic acid, 4,4\u2032-(phenylphosphinylidene)di-", "4,4\u2032-(Phenylphosphinylidene)bis[benzoic acid]", "Bis(4-carboxyphenyl)phenyl phosphine oxide"], "SMILES": "P(=O)(C1=CC=C(C(O)=O)C=C1)(C2=CC=C(C(O)=O)C=C2)C3=CC=CC=C3", "physical_data": {"Molecular Weight": "366.30", "Molecular Formula": "C20H15O5P", "Melting Point": "340-342 \u00b0C"}}