{"cas_no": "8030-30-6", "cn_name": "\u77f3\u8111\u6cb9\uff0c\u539f\u6cb9", "en_name": ["Naphtha", "Naphtha", "Hi-flash naphtha", "Benzin", "Petroleum benzin", "Petroleum naphtha", "Benzin B 70", "Amsco H-SB", "Super VMP", "Amsco H-J", "Solvents, naphthas", "Kwick Dry", "Naphtesol M", "Exxon Naphtha 5", "Naphtha 5", "HI-SOPL", "Exxsol D 3135", "Naphtha 200", "Paragon 100E+", "Paragon 100E Plus", "Naphtha HT", "Shellsol D 25", "Terlitol D 60", "Texsolve V", "Shellsol D 40", "Sanstar-sol 600D", "Aromina 150"], "SMILES": "", "physical_data": {"Molecular Weight": "", "Molecular Formula": "Unspecified", "Boiling Point": "35-60 \u00b0C"}}