{"cas_no": "80336-66-9", "cn_name": "\u5e03\u6d1b\u82ac\u6742\u8d2819", "en_name": ["2-Chloro-1-[4-(2-methylpropyl)phenyl]-1-propanone", "1-Propanone, 2-chloro-1-[4-(2-methylpropyl)phenyl]-", "2-Chloro-1-[4-(2-methylpropyl)phenyl]-1-propanone", "1-Chloroethyl 4-isobutylphenyl ketone", "\u03b1-Chloro-p-isobutylpropiophenone", "2-Chloro-p-isobutylpropiophenone", "2-Chloro-1-(4-isobutylphenyl)propan-1-one"], "SMILES": "C(C(C)Cl)(=O)C1=CC=C(CC(C)C)C=C1", "physical_data": {"Molecular Weight": "224.73", "Molecular Formula": "C13H17ClO", "Boiling Point": "100-105 \u00b0C @ Press: 2 Torr", "Melting Point": "53.5-54.5 \u00b0C"}}