{"cas_no": "804-30-8", "cn_name": "\u544b\u5583\u786b\u80fa", "en_name": ["Fursultiamine", "Formamide, N-[(4-amino-2-methyl-5-pyrimidinyl)methyl]-N-[4-hydroxy-1-methyl-2-[[(tetrahydro-2-furanyl)methyl]dithio]-1-buten-1-yl]-", "Formamide, N-[(4-amino-2-methyl-5-pyrimidinyl)methyl]-N-[4-hydroxy-1-methyl-2-[(tetrahydrofurfuryl)dithio]-1-butenyl]-", "Formamide, N-[(4-amino-2-methyl-5-pyrimidinyl)methyl]-N-[4-hydroxy-1-methyl-2-[[(tetrahydro-2-furanyl)methyl]dithio]-1-butenyl]-", "N-[(4-Amino-2-methyl-5-pyrimidinyl)methyl]-N-[4-hydroxy-1-methyl-2-[[(tetrahydro-2-furanyl)methyl]dithio]-1-buten-1-yl]formamide", "Alinamin F", "N-[(4-Amino-2-methyl-5-pyrimidinyl)methyl]-N-[4-hydroxy-1-methyl-2-[(tetrahydrofurfuryl)dithio]-1-butenyl]formamide", "Fursultiamine", "Judolor", "Thiamine tetrahydrofurfuryl disulfide", "TTFD", "Tetrahydrofurfuryl thiamine disulfide", "Diteftin", "Adventan", "Fursultiamin", "Linamin", "Retar B1", "Thiamin tetrahydrofurfuryl disulfide"], "SMILES": "C(N(C(=C(SSCC1CCCO1)CCO)C)C=O)C=2C(N)=NC(C)=NC2", "physical_data": {"Molecular Weight": "398.54", "Molecular Formula": "C17H26N4O3S2", "Melting Point": "132 \u00b0C (decomp)", "Density": "1.29 g/cm\u00b3"}}