{"cas_no": "804-63-7", "cn_name": "\u594e\u5b81\u786b\u9178\u76d0", "en_name": ["Quinine sulfate", "Cinchonan-9-ol, 6\u2032-methoxy-, (8\u03b1,9R)-, sulfate (2:1)", "Quinine, sulfate (2:1) (salt)", "Cinchonan-9-ol, 6\u2032-methoxy-, (8\u03b1,9R)-, sulfate (2:1) (salt)", "Quinine sulfate", "Aflukin", "Coco-Quinine", "Quinine sulfuric acid", "Quinine sulfate (2:1)", "Quinine hemisulfate", "Quinoc", "NSC 5362", "Quinersol", "Chinin", "Chinine"], "SMILES": "C(O)(C=1C2=C(C=CC(OC)=C2)N=CC1)C3N4CC(C=C)C(C3)CC4.S(=O)(=O)(O)O", "physical_data": {"Molecular Weight": "", "Molecular Formula": "C20H24N2O2.<sup>1</sup>/2H2O4S", "Melting Point": "235.2 \u00b0C"}}