{"cas_no": "804-36-4", "cn_name": "\u785d\u544b\u70ef\u8159", "en_name": ["Nitrovin", "Hydrazinecarboximidamide, 2-[3-(5-nitro-2-furanyl)-1-[2-(5-nitro-2-furanyl)ethenyl]-2-propen-1-ylidene]-", "Guanidine, [[3-(5-nitro-2-furyl)-1-[2-(5-nitro-2-furyl)vinyl]allylidene]amino]-", "Hydrazinecarboximidamide, 2-[3-(5-nitro-2-furanyl)-1-[2-(5-nitro-2-furanyl)ethenyl]-2-propenylidene]-", "2-[3-(5-Nitro-2-furanyl)-1-[2-(5-nitro-2-furanyl)ethenyl]-2-propen-1-ylidene]hydrazinecarboximidamide", "1,4-Pentadien-3-one, 1,5-bis(5-nitro-2-furanyl)-, (aminoiminomethyl)hydrazone", "Nitrovin", "Bis(5-nitro-2-furfurylidene)acetone guanylhydrazone", "1,5-Bis(5-nitro-2-furyl)-3-pentadienone amidinohydrazone", "Bis(5-nitrofurfurylidine)acetone guanylhydrazone", "Difurazone", "Biovin 40", "2-(1,5-Bis(5-nitrofuran-2-yl)penta-1,4-dien-3-ylidene)hydrazinecarboximidamide"], "SMILES": "C(=CC(C=CC=1OC(N(=O)=O)=CC1)=NNC(=N)N)C=2OC(N(=O)=O)=CC2", "physical_data": {"Molecular Weight": "360.28", "Molecular Formula": "C14H12N6O6", "Melting Point": "217 \u00b0C (decomp)"}}