{"cas_no": "80407-68-7", "cn_name": "3,4-\u53cc(2-\u7532\u6c27\u57fa\u4e59\u6c27\u57fa)\u82ef\u8148", "en_name": ["3,4-Bis(2-methoxyethoxy)benzonitrile", "Benzonitrile, 3,4-bis(2-methoxyethoxy)-", "3,4-Bis(2-methoxyethoxy)benzonitrile", "3,4-(2-Methoxyethoxy)benzonitrile", "3,4-Di(2-methoxyethoxy)benzonitrile"], "SMILES": "O(CCOC)C1=C(OCCOC)C=CC(C#N)=C1", "physical_data": {"Molecular Weight": "251.28", "Molecular Formula": "C13H17NO4", "Melting Point": "39-40 \u00b0C"}}