{"cas_no": "80434-33-9", "cn_name": "\u53cc\u7ec6\u8f9b\u916e 2", "en_name": ["rel-(1R,2R,3R)-1-Ethyl-2,3-dihydro-4,5,7-trimethoxy-2-methyl-3-(2,4,5-trimethoxyphenyl)-1H-indene", "1H-Indene, 1-ethyl-2,3-dihydro-4,5,7-trimethoxy-2-methyl-3-(2,4,5-trimethoxyphenyl)-, (1R,2R,3R)-rel-", "1H-Indene, 1-ethyl-2,3-dihydro-4,5,7-trimethoxy-2-methyl-3-(2,4,5-trimethoxyphenyl)-, (1\u03b1,2\u03b2,3\u03b1)-", "rel-(1R,2R,3R)-1-Ethyl-2,3-dihydro-4,5,7-trimethoxy-2-methyl-3-(2,4,5-trimethoxyphenyl)-1H-indene", "Diasarone 2", "2,3-Dihydro-4,5,7-trimethoxy-1-ethyl-2-methyl-3-(2,4,5-trimethoxyphenyl)indene", "\u03b3-Diasarone"], "SMILES": "O(C)C1=C2C(C(C)C(CC)C2=C(OC)C=C1OC)C3=C(OC)C=C(OC)C(OC)=C3", "physical_data": {"Molecular Weight": "416.51", "Molecular Formula": "C24H32O6", "Melting Point": "84 \u00b0C"}}