{"cas_no": "80473-92-3", "cn_name": "(6A,11B,16A,17A)-6,9-\u4e8c\u6c1f-11,17-\u4e8c\u7f9f\u57fa-16-\u7532\u57fa-3-\u6c27\u4ee3\u96c4\u753e-1,4-\u4e8c\u70ef-17-\u786b\u4ee3\u7fa7\u9178", "en_name": ["6\u03b1,9\u03b1-Difluoro-11\u03b2,17\u03b1-dihydroxy-16\u03b1-methyl-3-oxoandrosta-1,4-diene-17\u03b2-carbothioic acid", "Androsta-1,4-diene-17-carbothioic acid, 6,9-difluoro-11,17-dihydroxy-16-methyl-3-oxo-, (6\u03b1,11\u03b2,16\u03b1,17\u03b1)-", "(6\u03b1,11\u03b2,16\u03b1,17\u03b1)-6,9-Difluoro-11,17-dihydroxy-16-methyl-3-oxoandrosta-1,4-diene-17-carbothioic acid", "6\u03b1,9\u03b1-Difluoro-11\u03b2,17\u03b1-dihydroxy-16\u03b1-methyl-3-oxoandrosta-1,4-diene-17\u03b2-carbothioic acid"], "SMILES": "CC12C(C3C(F)(C(O)C1)C4(C)C(C(F)C3)=CC(=O)C=C4)CC(C)C2(C(=O)S)O", "physical_data": {"Molecular Weight": "412.49", "Molecular Formula": "C21H26F2O4S", "Melting Point": "230-231 \u00b0C"}}