{"cas_no": "80474-45-9", "cn_name": "\u6c1f\u66ff\u5361\u677e\u4e19\u9178\u916f\u4e2d\u95f4\u4f53 E", "en_name": ["(6\u03b1,11\u03b2,16\u03b1,17\u03b1)-6,9-Difluoro-11-hydroxy-16-methyl-3-oxo-17-(1-oxopropoxy)androsta-1,4-diene-17-carbothioic acid", "Androsta-1,4-diene-17-carbothioic acid, 6,9-difluoro-11-hydroxy-16-methyl-3-oxo-17-(1-oxopropoxy)-, (6\u03b1,11\u03b2,16\u03b1,17\u03b1)-", "(6\u03b1,11\u03b2,16\u03b1,17\u03b1)-6,9-Difluoro-11-hydroxy-16-methyl-3-oxo-17-(1-oxopropoxy)androsta-1,4-diene-17-carbothioic acid", "6a,9a-Difluoro-11\u03b2-hydroxy-16\u03b1-methyl-3-oxo-17\u03b1-propionyloxyandrosta-1,4-diene-17\u03b2-carbothioic acid"], "SMILES": "O(C(CC)=O)C1(C(=O)S)C2(C)C(CC1C)C3C(F)(C(O)C2)C4(C)C(C(F)C3)=CC(=O)C=C4", "physical_data": {"Molecular Weight": "468.55", "Molecular Formula": "C24H30F2O5S", "Melting Point": "161-163 \u00b0C"}}