{"cas_no": "80474-14-2", "cn_name": "\u6c1f\u66ff\u5361\u677e\u4e19\u9178\u916f", "en_name": ["Fluticasone propionate", "Androsta-1,4-diene-17-carbothioic acid, 6,9-difluoro-11-hydroxy-16-methyl-3-oxo-17-(1-oxopropoxy)-, S-(fluoromethyl) ester, (6\u03b1,11\u03b2,16\u03b1,17\u03b1)-", "Fluticasone propionate", "Fluticasone 17-propionate", "Flixotide", "Flutide", "Flutide N", "Flixonase", "Flovent Diskus", "Flovent", "Cutivate cream", "Flonase", "Flunase", "Flutivate", "Flixotide Disks", "Flixotide Disk", "Flixotide Inhaler", "Zoflut", "Atemur Mite", "Cutivate", "Flixonase Nasal Spray", "Flonase Aq", "CCI 18781", "Cyclesonide", "Fluticone", "Axotide", "Flovent Rotadisk", "Rotadisk", "F 9428"], "SMILES": "O(C(CC)=O)C1(C(SCF)=O)C2(C)C(CC1C)C3C(F)(C(O)C2)C4(C)C(C(F)C3)=CC(=O)C=C4", "physical_data": {"Molecular Weight": "500.57", "Molecular Formula": "C25H31F3O5S", "Melting Point": "272-273 \u00b0C (decomp)"}}