{"cas_no": "8049-17-0", "cn_name": "\u7845\u94c1", "en_name": ["Ferrosilicon", "Ferrosilicon", "Ferroalloys, ferrosilicon"], "SMILES": "", "physical_data": {"Molecular Weight": "", "Molecular Formula": "Unspecified", "Melting Point": "1360 \u00b0C", "Density": "4.75 g/cm\u00b3"}}