{"cas_no": "80508-81-2", "cn_name": "\u84dd\u843c\u4e59\u7d20", "en_name": ["(7\u03b1,14R)-14-(Acetyloxy)-7-hydroxykaur-16-ene-3,15-dione", "Kaur-16-ene-3,15-dione, 14-(acetyloxy)-7-hydroxy-, (7\u03b1,14R)-", "(7\u03b1,14R)-14-(Acetyloxy)-7-hydroxykaur-16-ene-3,15-dione", "Glaucocalyxin B", "Wangzaozin C", "14\u03b2-Acetoxy-7\u03b1-hydroxy-ent-kaur-16-ene-3,15-dione"], "SMILES": "O(C(C)=O)C1C23C(C4(C)C(CC2O)C(C)(C)C(=O)CC4)CCC1C(=C)C3=O", "physical_data": {"Molecular Weight": "374.47", "Molecular Formula": "C22H30O5", "Melting Point": "190.5-191 \u00b0C"}}