{"cas_no": "80510-09-4", "cn_name": "N-\u987a\u5f0f\u963f\u9b4f\u9170\u916a\u80fa", "en_name": ["N-cis-Feruloyl tyramine", "2-Propenamide, 3-(4-hydroxy-3-methoxyphenyl)-N-[2-(4-hydroxyphenyl)ethyl]-, (2Z)-", "2-Propenamide, 3-(4-hydroxy-3-methoxyphenyl)-N-[2-(4-hydroxyphenyl)ethyl]-, (Z)-", "(2Z)-3-(4-Hydroxy-3-methoxyphenyl)-N-[2-(4-hydroxyphenyl)ethyl]-2-propenamide", "N-cis-Feruloyl tyramine", "Z-N-Feruloyltyramine", "cis-N-Feruloyltyramine", "cis-N-(4-Hydroxyphenethyl) ferulamide", "cis-Feruloyl-p-hydroxybenzenethylamine"], "SMILES": "C(=CC(NCCC1=CC=C(O)C=C1)=O)C2=CC(OC)=C(O)C=C2", "physical_data": {"Molecular Weight": "313.35", "Molecular Formula": "C18H19NO4", "Melting Point": "128-132 \u00b0C"}}