{"cas_no": "8052-41-3", "cn_name": "6-\u6eb4\u5df1\u57fa\u918b\u9178\u916f", "en_name": ["Stoddard solvent", "Stoddard solvent", "Named reagents and solutions, Stoddard", "Naphtha, solvent", "Solvent naphtha, Stoddard", "Solvents, naphthas", "Organic solvents, Stoddard solvent", "New Solvent F"], "SMILES": "", "physical_data": {"Molecular Weight": "", "Molecular Formula": "Unspecified", "Boiling Point": "130-230 \u00b0C", "Density": "0.765-0.795 g/cm\u00b3"}}