{"cas_no": "80563-86-6", "cn_name": "3-\u6c2f-2-\u7532\u57fa\u82ef\u78fa\u9170\u6c2f", "en_name": ["3-Chloro-2-methylbenzenesulfonyl chloride", "Benzenesulfonyl chloride, 3-chloro-2-methyl-", "o-Toluenesulfonyl chloride, 3-chloro-", "3-Chloro-2-methylbenzenesulfonyl chloride", "3-Chloro-2-methylbenzene-1-sulfonyl chloride", "3-Chloro-2-methylphenylsulfonyl chloride", "2-Methyl-3-chlorobenzenesulfonyl chloride"], "SMILES": "S(Cl)(=O)(=O)C1=C(C)C(Cl)=CC=C1", "physical_data": {"Molecular Weight": "225.09", "Molecular Formula": "C7H6Cl2O2S", "Melting Point": "72 \u00b0C"}}