{"cas_no": "80584-91-4", "cn_name": "2,4,6-\u4e09(\u6c28\u57fa\u5df1\u9178\u57fa)-1,3,5-\u4e09\u55ea", "en_name": ["1,3,5-Triazine-2,4,6-triaminocaproic acid", "Hexanoic acid, 6,6\u2032,6\u2032\u2032-(1,3,5-triazine-2,4,6-triyltriimino)tris-", "Hexanoic acid, 6,6\u2032,6\u2032\u2032-(s-triazine-2,4,6-triyltriimino)tri-", "6,6\u2032,6\u2032\u2032-(1,3,5-Triazine-2,4,6-triyltriimino)tris[hexanoic acid]", "6,6\u2032,6\u2032\u2032-(1,3,5-Triazine-2,4,6-triyltriimino)trihexanoic acid", "Irgacor L 190", "Irgacor 190", "6,6\u2032,6\u2032\u2032-(1,3,5-Triazine-2,4,6-triyltriimino)tris(hexanoic acid)", "Belcor 590", "Irgacor L 190 Plus", "1,3,5-Triazine-2,4,6-triaminocaproic acid", "L 190", "Belcor 593", "L 190 Plus", "Irgacor L 190P"], "SMILES": "N(CCCCCC(O)=O)C=1N=C(NCCCCCC(O)=O)N=C(NCCCCCC(O)=O)N1", "physical_data": {"Molecular Weight": "468.55", "Molecular Formula": "C21H36N6O6", "Melting Point": "186-188 \u00b0C"}}