{"cas_no": "806-29-1", "cn_name": "6-alpha-\u6c1f-\u5f02\u6c1f\u6cfc\u5c3c\u9f99", "en_name": ["(6\u03b1,11\u03b2)-6,9-Difluoro-11,17,21-trihydroxypregna-1,4-diene-3,20-dione", "Pregna-1,4-diene-3,20-dione, 6,9-difluoro-11,17,21-trihydroxy-, (6\u03b1,11\u03b2)-", "Pregna-1,4-diene-3,20-dione, 6\u03b1,9-difluoro-11\u03b2,17,21-trihydroxy-", "(6\u03b1,11\u03b2)-6,9-Difluoro-11,17,21-trihydroxypregna-1,4-diene-3,20-dione", "6\u03b1,9-Difluoroprednisolone", "6\u03b1,9\u03b1-Difluoroprednisolone", "NSC 77021"], "SMILES": "FC12C(C3C(C)(CC1O)C(C(CO)=O)(O)CC3)CC(F)C=4C2(C)C=CC(=O)C4", "physical_data": {"Molecular Weight": "396.42", "Molecular Formula": "C21H26F2O5", "Melting Point": "250-257 \u00b0C (decomp)"}}