{"cas_no": "80621-81-4", "cn_name": "\u5229\u798f\u6614\u660e", "en_name": ["Rifaximin", "2,7-(Epoxypentadeca[1,11,13]trienimino)benzofuro[4,5-e]pyrido[1,2-a]benzimidazole-1,15(2H)-dione, 25-(acetyloxy)-5,6,21,23-tetrahydroxy-27-methoxy-2,4,11,16,20,22,24,26-octamethyl-, (2S,16Z,18E,20S,21S,22R,23R,24R,25S,26R,27S,28E)-", "2,7-(Epoxypentadeca[1,11,13]trienimino)benzofuro[4,5-e]pyrido[1,2-a]benzimidazole-1,15(2H)-dione, 25-(acetyloxy)-5,6,21,23-tetrahydroxy-27-methoxy-2,4,11,16,20,22,24,26-octamethyl-, [2S-(2R*,16Z,18E,20R*,21R*,22S*,23S*,24S*,25R*,26S*,27R*,28E)]-", "(2S,16Z,18E,20S,21S,22R,23R,24R,25S,26R,27S,28E)-25-(Acetyloxy)-5,6,21,23-tetrahydroxy-27-methoxy-2,4,11,16,20,22,24,26-octamethyl-2,7-(epoxypentadeca[1,11,13]trienimino)benzofuro[4,5-e]pyrido[1,2-a]benzimidazole-1,15(2H)-dione", "L 105", "Rifamycin L 105SV", "L 105SV", "Rifaximin", "Rifamycin L 105", "L 105 (ansamacrolide antibiotic)", "refaximin", "Xifaxan", "Normix", "Xifaxanta", "(2S,16Z,18E,20S,21S,22R,23R,24R,25S,26R,27S,28E)-5,6,21,23,25-Pentahydroxy-27-methoxy-2,4,11,16,20,22,24,26-octamethyl-2,7-(epoxypentadeca[1,11,13]trienimino)benzofuro[4,5-e]pyrido[1,2-a]benzimidazole-1,15(2H)-dione,25-acetate"], "SMILES": "O=C1C=2C=3C4=C(N5C(=N4)C=C(C)C=C5)C6=C(O)C3C(O)=C(C)C2OC1(C)OC=CC(OC)C(C)C(OC(C)=O)C(C)C(O)C(C)C(O)C(C)C=CC=C(C)C(=O)N6", "physical_data": {"Molecular Weight": "785.88", "Molecular Formula": "C43H51N3O11", "Melting Point": "200-205 \u00b0C (decomp)"}}