{"cas_no": "80638-08-0", "cn_name": "N-(2-\u785d\u57fa\u82c4)\u2013N-\u7532\u57fa\u73af\u5df1\u80fa", "en_name": ["N-Cyclohexyl-N-methyl-2-nitrobenzenemethanamine", "Benzenemethanamine, N-cyclohexyl-N-methyl-2-nitro-", "Benzylamine, N-cyclohexyl-N-methyl-o-nitro-", "N-Cyclohexyl-N-methyl-2-nitrobenzenemethanamine", "N-(2-Nitrobenzyl)-N-methylcyclohexanamine"], "SMILES": "C(N(C)C1CCCCC1)C2=C(N(=O)=O)C=CC=C2", "physical_data": {"Molecular Weight": "248.32", "Molecular Formula": "C14H20N2O2", "Boiling Point": "116-119 \u00b0C @ Press: 0.06 Torr"}}