{"cas_no": "8068-05-1", "cn_name": "\u78b1\u6027\u6728\u7d20", "en_name": ["Alkali lignin", "Lignin, alkali", "Sulfate lignin", "Kraft lignin", "Lignin, kraft", "Lignin, soda", "Alkali lignin", "Lignin, sulfate", "Soda lignin", "Tomlinite", "Sulphate lignin", "Indulin AT", "Reax 27", "Reax 39", "Meadol MRM", "Indulin A", "Lignac 15SP", "Indulin AG", "Alkali soluble lignin", "Eucalin", "Indulin ATR", "Curan 100", "PC 940C", "KL 2", "KL 88", "KL 2 (binder)", "Curan 27-11", "Curan", "Curan (lignin)", "Indulin AT 1369", "Curan 27-11P", "Lignoboost", "PC 1369", "Biochoice", "Protobind 1075", "Mousoudake Souda Rigunin", "DCL 200", "NJ 23", "UPM BioPiva 100", "Biopiva 190", "Protobind 1000", "MG 3", "MG 3 (lignin)", "BioPiva 100", "Amallin A", "Amallin LPH", "Lineo Classic", "FP 602", "P 1000", "UPM BioPiva 350", "UPM BioPiva 199", "NewPro-PF 103", "HWG 25131", "M 0010-25G", "PB 1000 (pulp)", "PB 1000", "BioPiva 395", "BioPiva 200", "UPM BioPiva 200"], "SMILES": "", "physical_data": {"Molecular Weight": "", "Molecular Formula": "Unspecified", "Melting Point": "210 \u00b0C"}}