{"cas_no": "80681-42-1", "cn_name": "5-O-\u7532\u7ef4\u963f\u65af\u7c73\u9187", "en_name": ["5-O-Methylvisamminol", "5H-Furo[3,2-g][1]benzopyran-5-one, 2,3-dihydro-2-(1-hydroxy-1-methylethyl)-4-methoxy-7-methyl-, (2S)-", "5H-Furo[3,2-g][1]benzopyran-5-one, 2,3-dihydro-2-(1-hydroxy-1-methylethyl)-4-methoxy-7-methyl-, (S)-", "(2S)-2,3-Dihydro-2-(1-hydroxy-1-methylethyl)-4-methoxy-7-methyl-5H-furo[3,2-g][1]benzopyran-5-one", "5-O-Methylvisamminol"], "SMILES": "O(C)C=1C2=C(C=C3C1CC(C(C)(C)O)O3)OC(C)=CC2=O", "physical_data": {"Molecular Weight": "290.31", "Molecular Formula": "C16H18O5", "Melting Point": "133-135 \u00b0C"}}