{"cas_no": "80681-45-4", "cn_name": "\u5347\u9ebb\u82f7", "en_name": ["prim-O-Glucosylcimifugin", "5H-Furo[3,2-g][1]benzopyran-5-one, 7-[(\u03b2-D-glucopyranosyloxy)methyl]-2,3-dihydro-2-(1-hydroxy-1-methylethyl)-4-methoxy-, (2S)-", "5H-Furo[3,2-g][1]benzopyran-5-one, 7-[(\u03b2-D-glucopyranosyloxy)methyl]-2,3-dihydro-2-(1-hydroxy-1-methylethyl)-4-methoxy-, (S)-", "(2S)-7-[(\u03b2-D-Glucopyranosyloxy)methyl]-2,3-dihydro-2-(1-hydroxy-1-methylethyl)-4-methoxy-5H-furo[3,2-g][1]benzopyran-5-one", "prim-O-Glucosylcimifugin", "Cimicifuga glycoside"], "SMILES": "O(C)C=1C2=C(C=C3C1CC(C(C)(C)O)O3)OC(COC4OC(CO)C(O)C(O)C4O)=CC2=O", "physical_data": {"Molecular Weight": "468.45", "Molecular Formula": "C22H28O11", "Melting Point": "132-133 \u00b0C"}}