{"cas_no": "807-28-3", "cn_name": "1,3-\u4e8c\u7532\u57fa-1,1,3,3-\u56db\u82ef\u57fa\u4e8c\u7845\u6c27\u70f7", "en_name": ["1,3-Dimethyl-1,1,3,3-tetraphenyldisiloxane", "Disiloxane, 1,3-dimethyl-1,1,3,3-tetraphenyl-", "1,3-Dimethyl-1,1,3,3-tetraphenyldisiloxane", "T 2078", "1,1,3,3-Tetraphenyldimethyldisiloxane", "1,1,3,3-Tetraphenyl-1,3-dimethyldisiloxane", "Bis(diphenylmethylsilyl) ether"], "SMILES": "[Si](O[Si](C)(C1=CC=CC=C1)C2=CC=CC=C2)(C)(C3=CC=CC=C3)C4=CC=CC=C4", "physical_data": {"Molecular Weight": "410.65", "Molecular Formula": "C26H26OSi2", "Boiling Point": "215 \u00b0C @ Press: 0.5 Torr", "Melting Point": "48-50 \u00b0C", "Density": "1.076 g/cm\u00b3 @ Temp: 25 \u00b0C"}}