{"cas_no": "807-38-5", "cn_name": "\u53cc\u7f9f\u6c1f\u8f7b\u677e", "en_name": ["Fluocinolone", "Pregna-1,4-diene-3,20-dione, 6,9-difluoro-11,16,17,21-tetrahydroxy-, (6\u03b1,11\u03b2,16\u03b1)-", "Pregna-1,4-diene-3,20-dione, 6\u03b1,9-difluoro-11\u03b2,16\u03b1,17,21-tetrahydroxy-", "(6\u03b1,11\u03b2,16\u03b1)-6,9-Difluoro-11,16,17,21-tetrahydroxypregna-1,4-diene-3,20-dione", "Fluocinolone", "16\u03b1-Hydroxy-6\u03b1,9-difluoroprednisolone", "6\u03b1-Fluorotriamcinolone"], "SMILES": "FC12C(C3C(C)(CC1O)C(C(CO)=O)(O)C(O)C3)CC(F)C=4C2(C)C=CC(=O)C4", "physical_data": {"Molecular Weight": "412.42", "Molecular Formula": "C21H26F2O6", "Melting Point": "266-268 \u00b0C"}}