{"cas_no": "80715-22-6", "cn_name": "4-\u6eb4\u7532\u57fa-5-\u7532\u57fa-1,3-\u95f4\u4e8c\u6c27\u6742\u73af\u620a\u70ef-2-\u916e", "en_name": ["4-(Bromomethyl)-5-methyl-1,3-dioxol-2-one", "1,3-Dioxol-2-one, 4-(bromomethyl)-5-methyl-", "4-(Bromomethyl)-5-methyl-1,3-dioxol-2-one", "(5-Methyl-2-oxo-1,3-dioxol-4-yl)methyl bromide", "5-(Bromomethyl)-4-methyl-2-oxo-1,3-dioxole", "4-(Bromomethyl)-5-methyl-2-oxo-1,3-dioxole"], "SMILES": "C(Br)C1=C(C)OC(=O)O1", "physical_data": {"Molecular Weight": "193.00", "Molecular Formula": "C5H5BrO3", "Boiling Point": "115-120 \u00b0C @ Press: 5 Torr"}}