{"cas_no": "80734-02-7", "cn_name": "\u76d0\u9178\u4ed1\u6c28\u897f\u6797", "en_name": ["4-Thia-1-azabicyclo[3.2.0]heptane-2-carboxylic acid, 6-[[(2R)-2-amino-2-phenylacetyl]amino]-3,3-dimethyl-7-oxo-, (5-methyl-2-oxo-1,3-dioxol-4-yl)methyl ester, hydrochloride (1:1), (2S,5R,6R)-", "4-Thia-1-azabicyclo[3.2.0]heptane-2-carboxylic acid, 6-[[(2R)-2-amino-2-phenylacetyl]amino]-3,3-dimethyl-7-oxo-, (5-methyl-2-oxo-1,3-dioxol-4-yl)methyl ester, hydrochloride (1:1), (2S,5R,6R)-", "4-Thia-1-azabicyclo[3.2.0]heptane-2-carboxylic acid, 6-[(aminophenylacetyl)amino]-3,3-dimethyl-7-oxo-, (5-methyl-2-oxo-1,3-dioxol-4-yl)methyl ester, monohydrochloride, [2S-[2\u03b1,5\u03b1,6\u03b2(S*)]]-", "4-Thia-1-azabicyclo[3.2.0]heptane-2-carboxylic acid, 6-[[(2R)-aminophenylacetyl]amino]-3,3-dimethyl-7-oxo-, (5-methyl-2-oxo-1,3-dioxol-4-yl)methyl ester, monohydrochloride, (2S,5R,6R)-", "1,3-Dioxole, 4-thia-1-azabicyclo[3.2.0]heptane-2-carboxylic acid deriv.", "KB 1585", "KBT 1585", "Lenampicillin hydrochloride", "Takacillin", "Varacillin"], "SMILES": "C(OCC=1OC(=O)OC1C)(=O)C2N3C(C(NC(C(N)C4=CC=CC=C4)=O)C3=O)SC2(C)C.Cl", "physical_data": {"Molecular Weight": "", "Molecular Formula": "C21H23N3O7S.ClH", "Melting Point": "145 \u00b0C"}}