{"cas_no": "80756-85-0", "cn_name": "AE-\u6d3b\u6027\u916f", "en_name": ["2-Amino-\u03b1-(methoxyimino)-4-thiazoleethanethioic acid S-2-benzothiazolyl ester", "4-Thiazoleethanethioic acid, 2-amino-\u03b1-(methoxyimino)-, S-2-benzothiazolyl ester, (\u03b1Z)-", "4-Thiazoleethanethioic acid, 2-amino-\u03b1-(methoxyimino)-, S-2-benzothiazolyl ester, (Z)-", "S-(Benzothiazol-2-yl) 2-amino-\u03b1-(methoxyimino)thiazole-4-thioacetate", "S-(Benzothiazol-2-yl) (Z)-(2-aminothiazol-4-yl)(methoxyimino)thioacetate", "(\u03b1Z)-2-Amino-\u03b1-(methoxyimino)-4-thiazoleethanethioic acid S-2-benzothiazolyl ester", "2-Amino-\u03b1-(methoxyimino)-4-thiazoleethanethioic acid S-2-benzothiazolyl ester", "S-Benzothiazol-2-yl 2-(2-aminothiazol-4-yl)-2-(syn-methoxyimino)thioacetate", "(Z)-2-[Methoxyimino]-2-(2-aminothiazol-4-yl)acetic acid S-2-benzothiazole ester", "S-(Benzothiazol-2-yl) (Z)-(2-aminothiazol-4-yl)(methoxyimino)thioacetate", "S-1,3-Benzothiazol-2-yl (2Z)-2-(2-amino-1,3-thiazol-4-yl)-2-(methoxyimino)ethanethioate"], "SMILES": "S(C(C(=NOC)C1=CSC(N)=N1)=O)C2=NC=3C(S2)=CC=CC3", "physical_data": {"Molecular Weight": "350.44", "Molecular Formula": "C13H10N4O2S3", "Melting Point": "128-130 \u00b0C"}}