{"cas_no": "80789-75-9", "cn_name": "1-(\u5bf9\u7532\u82ef\u57fa)-1-\u73af\u620a\u7fa7\u9178", "en_name": ["1-(4-Methylphenyl)cyclopentanecarboxylic acid", "Cyclopentanecarboxylic acid, 1-(4-methylphenyl)-", "1-(4-Methylphenyl)cyclopentanecarboxylic acid", "1-(p-Methylphenyl)cyclopentanecarboxylic acid", "1-(p-Tolyl)-1-cyclopentanecarboxylic acid", "NSC 154615", "1-p-Tolylcyclopentanecarboxylic acid", "1-(4-Methylphenyl)cyclopentane-1-carboxylic acid"], "SMILES": "C(O)(=O)C1(CCCC1)C2=CC=C(C)C=C2", "physical_data": {"Molecular Weight": "204.26", "Molecular Formula": "C13H16O2", "Melting Point": "167-169 \u00b0C"}}