{"cas_no": "80789-69-1", "cn_name": "1-(4-\u6c2f\u82ef\u57fa)-1-\u73af\u620a\u70f7\u7532\u9178", "en_name": ["1-(4-Chlorophenyl)cyclopentanecarboxylic acid", "Cyclopentanecarboxylic acid, 1-(4-chlorophenyl)-", "Cyclopentanecarboxylic acid, 1-(p-chlorophenyl)-", "1-(4-Chlorophenyl)cyclopentanecarboxylic acid", "1-(p-Chlorophenyl)cyclopentanecarboxylic acid", "1-(4-Chlorophenyl)-1-cyclopentanecarboxylic acid", "NSC 123457"], "SMILES": "C(O)(=O)C1(CCCC1)C2=CC=C(Cl)C=C2", "physical_data": {"Molecular Weight": "224.68", "Molecular Formula": "C12H13ClO2", "Melting Point": "148-149 \u00b0C"}}