{"cas_no": "808-71-9", "cn_name": "\u55b7\u6c99\u897f\u6797\u6c22\u7898\u9178\u76d0", "en_name": ["Penethamate hydriodide", "4-Thia-1-azabicyclo[3.2.0]heptane-2-carboxylic acid, 3,3-dimethyl-7-oxo-6-[(phenylacetyl)amino]-, 2-(diethylamino)ethyl ester, hydriodide (1:1), (2S,5R,6R)-", "4-Thia-1-azabicyclo[3.2.0]heptane-2-carboxylic acid, 3,3-dimethyl-7-oxo-6-(2-phenylacetamido)-, 2-(diethylamino)ethyl ester, monohydriodide", "4-Thia-1-azabicyclo[3.2.0]heptane-2-carboxylic acid, 3,3-dimethyl-7-oxo-6-[(phenylacetyl)amino]- [2S-(2\u03b1,5\u03b1,6\u03b2)]-, 2-(diethylamino)ethyl ester, monohydriodide", "Penicillin, 2-(diethylamino)ethyl ester, hydriodide", "Penicillin G, 2-(diethylamino)ethyl ester, hydriodide", "4-Thia-1-azabicyclo[3.2.0]heptane-2-carboxylic acid, 3,3-dimethyl-7-oxo-6-[(phenylacetyl)amino]- (2S,5R,6R)-, 2-(diethylamino)ethyl ester, monohydriodide", "Pulmo 500", "Alivin", "Benzylpenicillin \u03b2-diethylaminoethyl ester hydriodide", "Bronchocillin", "Diethylaminoethyl ester penicillin hydriodide", "Estopen", "Leocillin", "Penicillin G diethylaminoethyl ester hydriodide", "Neo-Penil", "Pulmaxil N", "Penethamate hydriodide", "Penethacillin", "\u03b2-Diethylaminoethyl benzylpenicillinate hydriodide", "Ephicillin hydriodide", "Broncopen", "Eficillin", "Bronchopen", "Deripen", "Penethecillin", "Mamyzin"], "SMILES": "C(OCCN(CC)CC)(=O)C1N2C(C(NC(CC3=CC=CC=C3)=O)C2=O)SC1(C)C.I", "physical_data": {"Molecular Weight": "", "Molecular Formula": "C22H31N3O4S.HI", "Melting Point": "178.5 \u00b0C"}}