{"cas_no": "808-26-4", "cn_name": "\u5c71\u73af\u7d20", "en_name": ["Sancycline", "2-Naphthacenecarboxamide, 4-(dimethylamino)-1,4,4a,5,5a,6,11,12a-octahydro-3,10,12,12a-tetrahydroxy-1,11-dioxo-, (4S,4aS,5aR,12aS)-", "2-Naphthacenecarboxamide, 4-(dimethylamino)-1,4,4a,5,5a,6,11,12a-octahydro-3,10,12,12a-tetrahydroxy-1,11-dioxo-, [4S-(4\u03b1,4a\u03b1,5a\u03b1,12a\u03b1)]-", "(4S,4aS,5aR,12aS)-4-(Dimethylamino)-1,4,4a,5,5a,6,11,12a-octahydro-3,10,12,12a-tetrahydroxy-1,11-dioxo-2-naphthacenecarboxamide", "GS 2147", "Bonomycin", "6-Demethyl-6-deoxytetracycline", "4-(Dimethylamino)-1,4,4a,5,5a,6,11,12a-octahydro-3,10,12,12a-tetrahydroxy-1,11-dioxo-2-naphthacenecarboxamide", "Sancycline", "Norcycline"], "SMILES": "OC12C(C(N(C)C)C(O)=C(C(N)=O)C1=O)CC3C(=C2O)C(=O)C=4C(C3)=CC=CC4O", "physical_data": {"Molecular Weight": "414.41", "Molecular Formula": "C21H22N2O7", "Melting Point": "208 \u00b0C (decomp)"}}