{"cas_no": "808-48-0", "cn_name": "\u53bb\u6c27\u76ae\u8d28\u916e\u65b0\u620a\u9178\u916f", "en_name": ["Desoxycorticosterone pivalate", "Pregn-4-ene-3,20-dione, 21-(2,2-dimethyl-1-oxopropoxy)-", "11-Deoxycorticosterone, pivalate", "Corticosterone, deoxy-, pivalate", "Pivalic acid, ester with 11-deoxycorticosterone", "21-(2,2-Dimethyl-1-oxopropoxy)pregn-4-ene-3,20-dione", "Deoxycorticosterone trimethylacetate", "Deoxycortone trimethylacetate", "Desoxycorticosterone pivalate", "DTMA", "21-Hydroxypregn-4-ene-3,20-dione pivalate", "Cortexone M", "Deoxycorticosterone pivalate", "Neodin-Depositum", "Percorten M", "Deoxycortone pivalate", "DOCP", "Percorten Pivalate", "Desoxycorticosterone trimethylacetate", "Desoxycortone pivalate", "NSC 95278", "Desoxycortisone pivalate", "Zycortal"], "SMILES": "CC12C(C3C(C4(C)C(CC3)=CC(=O)CC4)CC1)CCC2C(COC(C(C)(C)C)=O)=O", "physical_data": {"Molecular Weight": "414.58", "Molecular Formula": "C26H38O4", "Melting Point": "200-202.5 \u00b0C"}}