{"cas_no": "80806-68-4", "cn_name": "3-\u5168\u6c1f\u5df1\u57fa\u4e19\u9187", "en_name": ["4,4,5,5,6,6,7,7,8,8,9,9,9-Tridecafluoro-1-nonanol", "1-Nonanol, 4,4,5,5,6,6,7,7,8,8,9,9,9-tridecafluoro-", "4,4,5,5,6,6,7,7,8,8,9,9,9-Tridecafluoro-1-nonanol", "4,4,5,5,6,6,7,7,8,8,9,9,9-Tridecafluoronon-1-ol", "4,4,5,5,6,6,7,7,8,8,9,9,9-Tridecafluorononan-1-ol", "3-(Perfluorohexyl)propanol"], "SMILES": "C(C(C(C(F)(F)F)(F)F)(F)F)(C(C(CCCO)(F)F)(F)F)(F)F", "physical_data": {"Molecular Weight": "378.13", "Molecular Formula": "C9H7F13O", "Boiling Point": "84-86 \u00b0C @ Press: 20 Torr", "Melting Point": "-6--3 \u00b0C"}}