{"cas_no": "80844-07-1", "cn_name": "\u919a\u83ca\u916f", "en_name": ["Ethofenprox", "Benzene, 1-[[2-(4-ethoxyphenyl)-2-methylpropoxy]methyl]-3-phenoxy-", "1-[[2-(4-Ethoxyphenyl)-2-methylpropoxy]methyl]-3-phenoxybenzene", "Ethofenprox", "MTI 500", "2-(4-Ethoxyphenyl)-2-methylpropyl 3-phenoxybenzyl ether", "Ethophenprox", "Trebon", "Ethoproxyfen", "Etofenprox", "4-Ethoxyneophyl 3-phenoxybenzyl ether", "Ethoproxyphen", "Etof", "SA 130301", "Safety (insecticide)", "Zenivex E 20", "Myungtaja", "Vectron", "Vectron 20WP", "Trebon Star", "NIXAM 416X"], "SMILES": "O(C1=CC(COCC(C)(C)C2=CC=C(OCC)C=C2)=CC=C1)C3=CC=CC=C3", "physical_data": {"Molecular Weight": "376.49", "Molecular Formula": "C25H28O3", "Boiling Point": "200 \u00b0C", "Melting Point": "37 \u00b0C"}}