{"cas_no": "80866-77-9", "cn_name": "2-\u6c2f-6-\u785d\u57fa\u82ef\u7532\u919a", "en_name": ["1-Chloro-2-methoxy-3-nitrobenzene", "Benzene, 1-chloro-2-methoxy-3-nitro-", "Anisole, 2-chloro-6-nitro-", "1-Chloro-2-methoxy-3-nitrobenzene", "2-Chloro-6-nitroanisole"], "SMILES": "O(C)C1=C(N(=O)=O)C=CC=C1Cl", "physical_data": {"Molecular Weight": "187.58", "Molecular Formula": "C7H6ClNO3", "Melting Point": "54 \u00b0C"}}