{"cas_no": "80866-80-4", "cn_name": "2-\u6c2f-5-\u785d\u57fa\u82c4\u9187", "en_name": ["2-Chloro-5-nitrobenzenemethanol", "Benzenemethanol, 2-chloro-5-nitro-", "Benzyl alcohol, 2-chloro-5-nitro-", "2-Chloro-5-nitrobenzenemethanol", "2-Chloro-5-nitrobenzyl alcohol", "(2-Chloro-5-nitrophenyl)methanol"], "SMILES": "C(O)C1=CC(N(=O)=O)=CC=C1Cl", "physical_data": {"Molecular Weight": "187.58", "Molecular Formula": "C7H6ClNO3", "Melting Point": "68 \u00b0C"}}