{"cas_no": "80866-76-8", "cn_name": "3-\u7532\u57fa-2-\u785d\u57fa\u82c4\u9187", "en_name": ["3-Methyl-2-nitrobenzenemethanol", "Benzenemethanol, 3-methyl-2-nitro-", "3-Methyl-2-nitrobenzenemethanol", "3-Hydroxymethyl-2-nitrotoluene", "3-Methyl-2-nitrobenzyl alcohol", "(3-Methyl-2-nitrophenyl)methanol", "2-Methyl-6-hydroxymethyl-1-nitrobenzene"], "SMILES": "N(=O)(=O)C1=C(CO)C=CC=C1C", "physical_data": {"Molecular Weight": "167.16", "Molecular Formula": "C8H9NO3", "Melting Point": "44-46 \u00b0C"}}