{"cas_no": "80866-91-7", "cn_name": "2-\u6eb4\u5421\u5576 N-\u6c27\u5316\u7269\u76d0\u9178\u76d0", "en_name": ["Pyridine, 2-bromo-, 1-oxide, hydrochloride (1:1)", "Pyridine, 2-bromo-, 1-oxide, hydrochloride (1:1)", "Pyridine, 2-bromo-, 1-oxide, hydrochloride", "Pyridine, 2-bromo-, 1-oxide, compd. with hydrochloric acid", "2-Bromopyridine N-oxide hydrochloride", "2-Bromopyridine 1-oxide hydrochloride"], "SMILES": "BrC=1N(=O)=CC=CC1.Cl", "physical_data": {"Molecular Weight": "", "Molecular Formula": "C5H4BrNO.ClH", "Melting Point": "135-136 \u00b0C"}}