{"cas_no": "80866-88-2", "cn_name": "3-\u7532\u6c27\u57fa-4-\u785d\u57fa\u82ef\u7532\u9187", "en_name": ["3-Methoxy-4-nitrobenzyl alcohol", "Benzenemethanol, 3-methoxy-4-nitro-", "Benzyl alcohol, 3-methoxy-4-nitro-", "3-Methoxy-4-nitrobenzenemethanol", "3-Methoxy-4-nitrobenzyl alcohol", "(3-Methoxy-4-nitrophenyl)methanol", "4-Nitro-3-methoxybenzyl alcohol"], "SMILES": "O(C)C1=C(N(=O)=O)C=CC(CO)=C1", "physical_data": {"Molecular Weight": "183.16", "Molecular Formula": "C8H9NO4", "Melting Point": "96 \u00b0C"}}