{"cas_no": "80866-82-6", "cn_name": "5-\u6eb4-2-\u7532\u6c27\u57fa\u82ef\u7532\u9187", "en_name": ["5-Bromo-2-methoxybenzenemethanol", "Benzenemethanol, 5-bromo-2-methoxy-", "Benzyl alcohol, 5-bromo-2-methoxy-", "5-Bromo-2-methoxybenzenemethanol", "3-Bromo-6-methoxybenzyl alcohol", "5-Bromo-2-methoxybenzyl alcohol", "2-Methoxy-5-bromobenzyl alcohol", "(5-Bromo-2-methoxyphenyl)methanol"], "SMILES": "O(C)C1=C(CO)C=C(Br)C=C1", "physical_data": {"Molecular Weight": "217.06", "Molecular Formula": "C8H9BrO2", "Melting Point": "72 \u00b0C"}}