{"cas_no": "80890-47-7", "cn_name": "\u5200\u8c46\u7d20A", "en_name": ["Concanamycin A", "Oxacyclooctadeca-3,5,13,15-tetraen-2-one, 18-[(1S,2R,3S)-3-[(2R,4R,5S,6R)-4-[[4-O-(aminocarbonyl)-2,6-dideoxy-\u03b2-D-arabino-hexopyranosyl]oxy]tetrahydro-2-hydroxy-5-methyl-6-(1E)-1-propen-1-yl-2H-pyran-2-yl]-2-hydroxy-1-methylbutyl]-9-ethyl-8,10-dihydroxy-3,17-dimethoxy-5,7,11,13-tetramethyl-, (3Z,5E,7R,8R,9S,10S,11R,13E,15E,17S,18R)-", "Concanamycin A", "Oxacyclooctadeca-3,5,13,15-tetraen-2-one, 18-[(1S,2R,3S)-3-[(2R,4R,5S,6R)-4-[[4-O-(aminocarbonyl)-2,6-dideoxy-\u03b2-D-arabino-hexopyranosyl]oxy]tetrahydro-2-hydroxy-5-methyl-6-(1E)-1-propenyl-2H-pyran-2-yl]-2-hydroxy-1-methylbutyl]-9-ethyl-8,10-dihydroxy-3,17-dimethoxy-5,7,11,13-tetramethyl-, (3Z,5E,7R,8R,9S,10S,11R,13E,15E,17S,18R)-", "Oxacyclooctadecane, concanamycin A deriv.", "(3Z,5E,7R,8R,9S,10S,11R,13E,15E,17S,18R)-18-[(1S,2R,3S)-3-[(2R,4R,5S,6R)-4-[[4-O-(Aminocarbonyl)-2,6-dideoxy-\u03b2-D-arabino-hexopyranosyl]oxy]tetrahydro-2-hydroxy-5-methyl-6-(1E)-1-propen-1-yl-2H-pyran-2-yl]-2-hydroxy-1-methylbutyl]-9-ethyl-8,10-dihydroxy-3,17-dimethoxy-5,7,11,13-tetramethyloxacyclooctadeca-3,5,13,15-tetraen-2-one", "[7R-[3Z,5E,7R*,8R*,9S*,10S*,11R*,13E,15E,17S*,18R*[1S*,2R*,3S*[2R*,4R*,5S*,6R*(E)]]]-18-[3-[4-[[4-O-(Aminocarbonyl)-2,6-dideoxy-\u03b2-D-arabino-hexopyranosyl]oxy]tetrahydro-2-hydroxy-5-methyl-6-(1-propenyl)-2H-pyran-2-yl]-2-hydroxy-1-methylbutyl]-9-ethyl-8,10-dihydroxy-3,17-dimethoxy-5,7,11,13-tetramethyloxacyclooctadeca-3,5,13,15-tetraen-2-one", "Antibiotic X 4357B", "X 4357B", "Concanamycin", "NSC 674620"], "SMILES": "C(C(C(C)C1C(OC)C=CC=C(C)CC(C)C(O)C(CC)C(O)C(C)C=C(C)C=C(OC)C(=O)O1)O)(C)C2(O)CC(OC3CC(O)C(OC(N)=O)C(C)O3)C(C)C(C=CC)O2", "physical_data": {"Molecular Weight": "866.09", "Molecular Formula": "C46H75NO14", "Melting Point": "179-180 \u00b0C"}}