{"cas_no": "80937-23-1", "cn_name": "(E)-4-(3,4-\u4e8c\u7532\u6c27\u57fa\u82ef\u57fa)-4-\u6c27\u4ee3-2-\u4e01\u70ef\u9178\u4e59\u916f", "en_name": ["(2E)-4-(3,4-Dimethoxyphenyl)-4-oxo-2-butenoic acid", "2-Butenoic acid, 4-(3,4-dimethoxyphenyl)-4-oxo-, (2E)-", "2-Butenoic acid, 4-(3,4-dimethoxyphenyl)-4-oxo-, (E)-", "(2E)-4-(3,4-Dimethoxyphenyl)-4-oxo-2-butenoic acid", "trans-\u03b2-(m,p-Dimethoxybenzoyl)acrylic acid"], "SMILES": "C(C=CC(O)=O)(=O)C1=CC(OC)=C(OC)C=C1", "physical_data": {"Molecular Weight": "236.22", "Molecular Formula": "C12H12O5", "Melting Point": "181 \u00b0C"}}