{"cas_no": "80945-86-4", "cn_name": "6-\u6eb4-2-\u6c2f\u82ef\u5e76\u567b\u5511", "en_name": ["6-Bromo-2-chlorobenzothiazole", "Benzothiazole, 6-bromo-2-chloro-", "6-Bromo-2-chlorobenzothiazole", "2-Chloro-6-bromobenzothiazole", "6-Bromo-2-chlorobenzo[d]thiazole", "6-Bromo-2-chloro-1,3-benzothiazole", "2-Chloro-6-bromobenzo[d]thiazole"], "SMILES": "ClC1=NC=2C(S1)=CC(Br)=CC2", "physical_data": {"Molecular Weight": "248.53", "Molecular Formula": "C7H3BrClNS", "Melting Point": "100-101 \u00b0C"}}