{"cas_no": "80997-87-1", "cn_name": "\u0392-\u7532\u57fa-DL-\u82ef\u4e19\u6c28\u9178\u76d0\u9178\u76d0", "en_name": ["Phenylalanine, \u03b2-methyl-, hydrochloride (1:1)", "Phenylalanine, \u03b2-methyl-, hydrochloride (1:1)", "DL-Phenylalanine, \u03b2-methyl-, hydrochloride", "Phenylalanine, \u03b2-methyl-, hydrochloride", "2-Amino-3-phenylbutanoic acid hydrochloride"], "SMILES": "C(C(C(O)=O)N)(C)C1=CC=CC=C1.Cl", "physical_data": {"Molecular Weight": "", "Molecular Formula": "C10H13NO2.ClH", "Melting Point": "210 \u00b0C (decomp)"}}