{"cas_no": "80992-93-4", "cn_name": "4-[4-(\u4e09\u6c1f\u7532\u57fa)\u82ef\u57fa]-3-\u4e01\u70ef-2-\u916e", "en_name": ["4-[4-(Trifluoromethyl)phenyl]-3-buten-2-one", "3-Buten-2-one, 4-[4-(trifluoromethyl)phenyl]-", "4-[4-(Trifluoromethyl)phenyl]-3-buten-2-one", "p-Trifluoromethylbenzalacetone"], "SMILES": "C(F)(F)(F)C1=CC=C(C=CC(C)=O)C=C1", "physical_data": {"Molecular Weight": "214.18", "Molecular Formula": "C11H9F3O", "Melting Point": "57-59 \u00b0C"}}