{"cas_no": "81-08-3", "cn_name": "2-\u78fa\u57fa\u82ef\u7532\u9178\u9150", "en_name": ["2-Sulfobenzoic acid cyclic anhydride", "3H-2,1-Benzoxathiol-3-one, 1,1-dioxide", "Benzoic acid, o-sulfo-, cyclic anhydride", "o-Sulfobenzoic acid, cyclic anhydride", "Benzoic acid, 2-sulfo-, cyclic anhydride", "o-Sulfobenzoic anhydride", "o-Sulfobenzoic acid anhydride", "2-Sulfobenzoic anhydride", "2-Sulfobenzoic acid cyclic anhydride", "2-Sulfobenzoic acid cycloanhydride", "NSC 11208", "NSC 49162", "1,3-Dihydro-2,1\u03bb6-benzoxathiole-1,1,3-trione"], "SMILES": "O=S1(=O)C=2C(C(=O)O1)=CC=CC2", "physical_data": {"Molecular Weight": "184.17", "Molecular Formula": "C7H4O4S", "Melting Point": "129.5 \u00b0C"}}