{"cas_no": "81-04-9", "cn_name": "1,5-\u8418\u4e8c\u78fa\u9178", "en_name": ["1,5-Naphthalenedisulfonic acid", "1,5-Naphthalenedisulfonic acid", "Armstrong's acid", "Napadisylic acid", "NSC 9588", "Naphthalene-1,5-disulfonic acid"], "SMILES": "S(=O)(=O)(O)C=1C2=C(C(S(=O)(=O)O)=CC=C2)C=CC1", "physical_data": {"Molecular Weight": "288.30", "Molecular Formula": "C10H8O6S2", "Melting Point": "242.5 \u00b0C (decomp)"}}