{"cas_no": "81-07-2", "cn_name": "\u7cd6\u7cbe", "en_name": ["Saccharin", "1,2-Benzisothiazol-3(2H)-one, 1,1-dioxide", "1,2-Benzisothiazolin-3-one, 1,1-dioxide", "Anhydro-o-sulfaminebenzoic acid", "Benzoic sulfimide", "Benzoic sulphinide", "Benzosulfimide", "o-Benzosulfimide", "o-Benzoyl sulfimide", "1,2-Dihydro-2-ketobenzisosulfonazole", "2,3-Dihydro-3-oxobenzisosulfonazole", "Garantose", "Glucid", "Gluside", "Saccharin", "Saccharin acid", "550 Saccharine", "Saccharin insoluble", "Saccharinol", "Saccharinose", "Saccharol", "o-Sulfobenzimide", "o-Sulfobenzoic acid imide", "Benzosulfinide", "o-Benzoic sulfimide", "Saccharine", "3-Hydroxybenzisothiazole-S,S-dioxide", "3-Benzisothiazolinone 1,1-dioxide", "Saccharimide", "o-Benzoic acid sulfimide", "1,1-Dioxo-1,2-benzisothiazol-3(2H)-one", "2,3-Dihydro-1,2-benzisothiazol-3-one-1,1-dioxide", "NSC 5349", "1,1-Dioxido-3-oxo-2,3-dihydrobenzo[d]isothiazole", "1,1-Dioxo-1,2-benzothiazol-3-one", "Necta Sweet", "Sucram", "1,1-Dioxo-1,2-dihydro-1\u03bb*6*-benzo[d]isothiazol-3-one", "2,3-Dihydro-1\u03bb6,2-benzothiazole-1,1,3-trione", "Benzo[d]isothiazol-3(2H)-one-1,1-dioxide", "MeSH ID: D012439"], "SMILES": "O=S1(=O)C=2C(C(=O)N1)=CC=CC2", "physical_data": {"Molecular Weight": "183.18", "Molecular Formula": "C7H5NO3S", "Melting Point": "228.8-229.7 \u00b0C", "Density": "0.828 g/cm\u00b3"}}