{"cas_no": "81-13-0", "cn_name": "D-\u6cdb\u9187", "en_name": ["(+)-Panthenol", "Butanamide, 2,4-dihydroxy-N-(3-hydroxypropyl)-3,3-dimethyl-, (2R)-", "Butyramide, 2,4-dihydroxy-N-(3-hydroxypropyl)-3,3-dimethyl-, D-(+)-", "Butanamide, 2,4-dihydroxy-N-(3-hydroxypropyl)-3,3-dimethyl-, (R)-", "(2R)-2,4-Dihydroxy-N-(3-hydroxypropyl)-3,3-dimethylbutanamide", "Bepanthen", "Bepanthene", "Bepantol", "Cozyme", "Dexpanthenol", "D(+)-2,4-Dihydroxy-N-(3-hydroxypropyl)-3,3-dimethylbutyramide", "D(+)-\u03b1,\u03b3-Dihydroxy-N-(3-hydroxypropyl)-\u03b2,\u03b2-dimethylbutyramide", "Ilopan", "D-P-A Injection", "Motilyn", "Panadon", "Panthoderm", "Pantol", "d-Pantothenol", "d-Pantothenyl alcohol", "Thenalton", "Zentinic", "D-Panthenol", "Panthenol", "Pantothenol", "Pantothenyl alcohol", "Propanolamine, N-pantoyl-", "Panthenol, (+)-", "D(+)-Pantothenyl alcohol", "D(+)-Panthenol", "Synapan", "Provitamin B", "d-Panthenol", "D-Pantothenyl alcohol", "Provitamin B5", "d-Panthenol 50", "Urupan", "Alcopan 250", "Pantenyl", "Intrapan", "(+)-Panthenol", "NSC 302962", "Panthenol 50W", "Cornergel", "Dolobene", "D-Panthenol 75L", "Pantogel", "(R)-2,4-Dihydroxy-N-(3-hydroxypropyl)-3,3-dimethylbutanamide", "(2R)-2,4-Dihydroxy-N-(3-hydroxypropyl)-3,3-dimethylbutanamide", "Corneregel"], "SMILES": "C(C(NCCCO)=O)(C(CO)(C)C)O", "physical_data": {"Molecular Weight": "205.25", "Molecular Formula": "C9H19NO4", "Boiling Point": "119 \u00b0C", "Melting Point": "&lt;25 \u00b0C", "Density": "1.2 g/cm\u00b3 @ Temp: 20 \u00b0C"}}