{"cas_no": "81-15-2", "cn_name": "\u4e8c\u7532\u82ef\u9e9d\u9999", "en_name": ["Musk Xylene", "Benzene, 1-(1,1-dimethylethyl)-3,5-dimethyl-2,4,6-trinitro-", "m-Xylene, 5-tert-butyl-2,4,6-trinitro-", "1-(1,1-Dimethylethyl)-3,5-dimethyl-2,4,6-trinitrobenzene", "1-tert-Butyl-3,5-dimethyl-2,4,6-trinitrobenzene", "5-tert-Butyl-2,4,6-trinitro-m-xylene", "Musk xylol", "2,4,6-Trinitro-5-tert-butyl-m-xylene", "Xylene musk", "2,4,6-Trinitro-1,3-dimethyl-5-tert-butylbenzene", "Musk Xylene", "2,4,6-Trinitro-3,5-dimethyl-tert-butylbenzene", "Moschus xylol", "NSC 59844"], "SMILES": "C(C)(C)(C)C1=C(N(=O)=O)C(C)=C(N(=O)=O)C(C)=C1N(=O)=O", "physical_data": {"Molecular Weight": "297.26", "Molecular Formula": "C12H15N3O6", "Boiling Point": "392.3 \u00b0C", "Melting Point": "110 \u00b0C"}}