{"cas_no": "81-19-6", "cn_name": "2,6-\u4e8c\u6c2f\u82c4\u53c9\u4e8c\u6c2f", "en_name": ["2,6-Dichlorobenzylidene chloride", "Benzene, 1,3-dichloro-2-(dichloromethyl)-", "Toluene, \u03b1,\u03b1,2,6-tetrachloro-", "1,3-Dichloro-2-(dichloromethyl)benzene", "\u03b1,\u03b1,2,6-Tetrachlorotoluene", "2,6-Dichlorobenzal chloride", "2,6-Dichlorobenzylidene chloride", "2,6,\u03b1,\u03b1-Tetrachlorotoluene", "NSC 79866"], "SMILES": "C(Cl)(Cl)C1=C(Cl)C=CC=C1Cl", "physical_data": {"Molecular Weight": "229.92", "Molecular Formula": "C7H4Cl4", "Boiling Point": "124-126 \u00b0C @ Press: 16 Torr"}}