{"cas_no": "81-16-3", "cn_name": "2-\u8418\u80fa-1-\u78fa\u9178", "en_name": ["2-Amino-1-naphthalenesulfonic acid", "1-Naphthalenesulfonic acid, 2-amino-", "2-Amino-1-naphthalenesulfonic acid", "2-Naphthylamine-1-sulfonic acid", "Tobias acid", "1-Sulfo-2-naphthylamine", "NSC 5523", "2-Aminonaphthalenesulfonic acid"], "SMILES": "S(=O)(=O)(O)C=1C2=C(C=CC1N)C=CC=C2", "physical_data": {"Molecular Weight": "223.25", "Molecular Formula": "C10H9NO3S", "Melting Point": "180 \u00b0C"}}