{"cas_no": "81-11-8", "cn_name": "4,4'-\u4e8c\u6c28\u57fa\u4e8c\u82ef\u4e59\u70ef-2,2'-\u4e8c\u78fa\u9178", "en_name": ["Diaminostilbenedisulfonic acid", "Benzenesulfonic acid, 2,2\u2032-(1,2-ethenediyl)bis[5-amino-", "2,2\u2032-Stilbenedisulfonic acid, 4,4\u2032-diamino-", "2,2\u2032-(1,2-Ethenediyl)bis[5-aminobenzenesulfonic acid]", "Amsonic acid", "DASD", "p,p\u2032-Diaminodiphenylethylene-o,o\u2032-disulfonic acid", "Flavonic acid", "4,4\u2032-Diamino-2,2\u2032-stilbenedisulfonic acid", "p,p\u2032-Diaminostilbene-o,o\u2032-disulfonic acid", "2,2\u2032-Disulfo-4,4\u2032-stilbenediamine", "Diaminostilbenedisulfonic acid", "DAS", "NSC 163", "DSD acid"], "SMILES": "S(=O)(=O)(O)C1=C(C=CC2=C(S(=O)(=O)O)C=C(N)C=C2)C=CC(N)=C1", "physical_data": {"Molecular Weight": "370.40", "Molecular Formula": "C14H14N2O6S2", "Melting Point": "&gt;300 \u00b0C"}}