{"cas_no": "81-21-0", "cn_name": "\u4e8c\u73af\u620a\u4e8c\u70ef\u73af\u6c27\u5316\u7269", "en_name": ["Dicyclopentadiene dioxide", "2,4-Methano-2H-indeno[1,2-b:5,6-b\u2032]bisoxirene, octahydro-", "4,7-Methanoindan, 1,2:5,6-diepoxyhexahydro-", "Octahydro-2,4-methano-2H-indeno[1,2-b:5,6-b\u2032]bisoxirene", "Bicyclopentadiene dioxide", "Dicyclopentadiene diepoxide", "Dicyclopentadiene dioxide", "1,2:5,6-Diepoxyhexahydro-4,7-methanoindan", "NSC 24262", "NSC 30544", "NSC 34460", "NSC 54738", "NSC 56357", "DCPDDO", "1,2:5,6-Diepoxydicyclopentadiene", "TTA 27", "Dicyclopentandiene diepoxide"], "SMILES": "C12C3C4C(C(C1CC5C2O5)C3)O4", "physical_data": {"Molecular Weight": "164.20", "Molecular Formula": "C10H12O2", "Boiling Point": "50 \u00b0C @ Press: 7.5 mmHg", "Melting Point": "180-184 \u00b0C", "Density": "1.331 g/cm\u00b3 @ Temp: 25 \u00b0C"}}