{"cas_no": "81-24-3", "cn_name": "\u725b\u9ec4\u80c6\u9178", "en_name": ["Taurocholic acid", "Ethanesulfonic acid, 2-[[(3\u03b1,5\u03b2,7\u03b1,12\u03b1)-3,7,12-trihydroxy-24-oxocholan-24-yl]amino]-", "Taurine, N-choloyl-", "Cholane, ethanesulfonic acid deriv.", "2-[[(3\u03b1,5\u03b2,7\u03b1,12\u03b1)-3,7,12-Trihydroxy-24-oxocholan-24-yl]amino]ethanesulfonic acid", "Cholaic acid", "Cholyltaurine", "Taurocholic acid", "Cholic acid taurine conjugate", "3\u03b1,7\u03b1,12\u03b1-Trihydroxy-5\u03b2-cholanic acid-24-taurine", "N-Choloyltaurine", "NSC 25505", "MeSH ID: D013656"], "SMILES": "OC1C2C3C(C)(C(C(CCC(NCCS(=O)(=O)O)=O)C)CC3)C(O)CC2C4(C)C(C1)CC(O)CC4", "physical_data": {"Molecular Weight": "515.70", "Molecular Formula": "C26H45NO7S", "Melting Point": "125 \u00b0C (decomp)"}}