{"cas_no": "81-25-4", "cn_name": "\u80c6\u9178", "en_name": ["Cholic acid", "Cholan-24-oic acid, 3,7,12-trihydroxy-, (3\u03b1,5\u03b2,7\u03b1,12\u03b1)-", "Cholic acid", "5\u03b2-Cholanic acid, 3\u03b1,7\u03b1,12\u03b1-trihydroxy-", "(3\u03b1,5\u03b2,7\u03b1,12\u03b1)-3,7,12-Trihydroxycholan-24-oic acid", "Cholalin", "17\u03b2-[1-Methyl-3-carboxypropyl]etiocholane-3\u03b1,7\u03b1,12\u03b1-triol", "3\u03b1,7\u03b1,12\u03b1-Trihydroxy-5\u03b2-cholanic acid", "3\u03b1,7\u03b1,12\u03b1-Trihydroxy-5\u03b2-cholanoic acid", "3\u03b1,7\u03b1,12\u03b1-Trihydroxycholanic acid", "3\u03b1,7\u03b1,12\u03b1-Trihydroxy-\u03b2-cholanic acid", "3\u03b1,7\u03b1,12\u03b1-Trihydroxy-5\u03b2-cholan-24-oic acid", "Colalin", "NSC-6135", "5\u03b2-Cholic acid", "5\u03b2-Cholanic acid-3\u03b1,7\u03b1,12\u03b1-triol", "Cholalic acid", "E 1000", "Cholbam", "Orphacol", "Kolbam", "MeSH ID: D002793", "MeSH ID: D019826"], "SMILES": "OC1C2C3C(C)(C(C(CCC(O)=O)C)CC3)C(O)CC2C4(C)C(C1)CC(O)CC4", "physical_data": {"Molecular Weight": "408.57", "Molecular Formula": "C24H40O5", "Melting Point": "198 \u00b0C"}}