{"cas_no": "81-23-2", "cn_name": "\u53bb\u6c22\u80c6\u9178", "en_name": ["3,7,12-Triketo-5\u03b2-cholanoic acid", "Cholan-24-oic acid, 3,7,12-trioxo-, (5\u03b2)-", "5\u03b2-Cholan-24-oic acid, 3,7,12-trioxo-", "(5\u03b2)-3,7,12-Trioxocholan-24-oic acid", "Acolen", "Bilidren", "Bilostat", "Cholagon", "Cholic acid, dehydro-", "Chologon", "Dehychol", "Dehydrocholic acid", "Deidrocolico Vita", "Didrocolo", "Decholin", "Erebile", "Felacrinos", "Hykolex", "Ketocholanic acid", "Oxycholin", "Procholon", "Triketocholanic acid", "3,7,12-Triketo-5\u03b2-cholanic acid", "3,7,12-Triketocholanic acid", "3,7,12-Triketo-5\u03b2-cholanoic acid", "3,7,12-Trioxo-5\u03b2-cholanic acid", "3,7,12-Trioxocholanic acid", "Dilabil", "DHC", "Cholimed", "Dehycon", "Didocol", "Dehystolin", "Sanocholen", "Drenobyl", "Novocolin", "3,7,12-Trioxo-5\u03b2-cholan-24-oic acid", "Hydrochol", "3,7,12-Tri-keto-5\u03b2-Cholan-24-oic acid", "Cholepatin", "Cholan DH", "NSC 8796", "MeSH ID: D003685"], "SMILES": "O=C1C2C3C(C)(C(C(CCC(O)=O)C)CC3)C(=O)CC2C4(C)C(C1)CC(=O)CC4", "physical_data": {"Molecular Weight": "402.52", "Molecular Formula": "C24H34O5", "Melting Point": "237 \u00b0C"}}