{"cas_no": "81-20-9", "cn_name": "2,6-\u4e8c\u7532\u57fa\u785d\u57fa\u82ef", "en_name": ["2,6-Dimethylnitrobenzene", "Benzene, 1,3-dimethyl-2-nitro-", "m-Xylene, 2-nitro-", "1,3-Dimethyl-2-nitrobenzene", "2-Nitro-m-xylene", "2,6-Dimethylnitrobenzene", "2-Nitro-1,3-dimethylbenzene", "2-Nitro-1,3-xylene", "NSC 9811"], "SMILES": "N(=O)(=O)C1=C(C)C=CC=C1C", "physical_data": {"Molecular Weight": "151.16", "Molecular Formula": "C8H9NO2", "Boiling Point": "226 \u00b0C", "Melting Point": "15 \u00b0C"}}