{"cas_no": "81-32-3", "cn_name": "3,4,9,10-\u8298\u56db\u7fa7\u9178", "en_name": ["3,4,9,10-Perylenetetracarboxylic acid", "3,4,9,10-Perylenetetracarboxylic acid", "3,4,9,10-Tetracarboxyperylene", "NSC 89768"], "SMILES": "C(O)(=O)C=1C=2C3=C(C=4C=5C(C3=CC1)=CC=C(C(O)=O)C5C(C(O)=O)=CC4)C=CC2C(O)=O", "physical_data": {"Molecular Weight": "428.35", "Molecular Formula": "C24H12O8", "Melting Point": "92-96 \u00b0C"}}