{"cas_no": "81-30-1", "cn_name": "1,4,5,8-\u8418\u56db\u7532\u9178\u9150", "en_name": ["Naphthalenetetracarboxylic dianhydride", "[2]Benzopyrano[6,5,4-def][2]benzopyran-1,3,6,8-tetrone", "1,4,5,8-Naphthalenetetracarboxylic 1,8:4,5-dianhydride", "Naphthalenetetracarboxylic dianhydride", "2,7-Dioxapyrene-1,3,6,8-tetrone", "1,4,5,8-Naphthalenetetracarboxylic acid dianhydride", "1,8:4,5-Naphthalenetetracarboxylic dianhydride", "1,4,5,8-Naphthalenetetracarboxylic dianhydride", "NTCDA", "Naphthalic 1,8:4,5-dianhydride", "NSC 84241", "Naphthalenetetracarboxylic anhydride", "1,4,5,8-Tetracarboxynaphthalene dianhydride", "1,4,5,8-Naphthalenetetracarboxylic acid-1,8:4,5-dianhydride", "Naphthalene-4,5,8,9-tetracarboxylic dianhydride", "1,4,5,8-Naphthalic dianhydride", "NTDA"], "SMILES": "O=C1C=2C3=C4C(C(=O)OC(=O)C4=CC2)=CC=C3C(=O)O1", "physical_data": {"Molecular Weight": "268.18", "Molecular Formula": "C14H4O6", "Melting Point": "450 \u00b0C"}}