{"cas_no": "81-48-1", "cn_name": "\u6eb6\u5242\u7d2b 13", "en_name": ["Solvent Violet 13", "9,10-Anthracenedione, 1-hydroxy-4-[(4-methylphenyl)amino]-", "Anthraquinone, 1-hydroxy-4-p-toluidino-", "1-Hydroxy-4-[(4-methylphenyl)amino]-9,10-anthracenedione", "C.I. 60725", "Ahcoquinone Blue IR Base", "Alizarine Irisol R Base", "Alizarine Violet 3B Base", "N-(4-Hydroxy-1-anthraquinonyl)-4-methylaniline", "Irisol base", "Oil Violet IRS", "Oil Violet ZIRS", "11092 Violet", "Waxoline Purple A", "Alizurol Purple", "C.I. Solvent Violet 13", "D and C Violet No. 2", "1-Hydroxy-4-(p-toluidino)anthraquinone", "1-Hydroxy-4-(4-methylanilino)anthraquinone", "Solvent Violet 13", "1-Hydroxy-4-p-toluidino-9,10-anthraquinone", "C.I. Disperse Blue 72", "Duranol Brilliant Violet TG", "Sumikaron Violet B", "Resolin Blue RRL", "Resiren Blue TR", "Dispersol Violet B-G", "Transetile Violet P 3B", "Sumikaron Violet 3BL", "Alizarine Violet 3B", "1-p-Toluidino-4-hydroxyanthraquinone", "Orient Oil Violet 730", "Alizarin violet 3B", "Macrolex Violet B", "1-Hydroxy-4-(p-tolylamino)-9,10-anthraquinone", "C.I. Solvent Blue 90", "Diaresin Blue G", "Lurafix Blue 590", "Disperse Blue 72", "Solvent Blue 90", "Teraprint Blue 6R", "Solvaperm Blue B", "Calco Oil Violet ZIRS", "Pyla-Cert D and C Violet 2", "Alizurol Purple SS", "Japan Violet 201", "Violet No. 201", "Japan Violet No. 201", "Japan Purple 201", "1-Hydroxy-4-[(4-methylphenyl)-9,10-anthracenedione", "Thermoplast Blue 684", "Kayaset Blue A 2R", "Sumiplast Violet B", "D&", "C Violet No. 2", "Sandoplast Violet RSB", "Oplas Violet 730", "D&", "C Violet 2", "NSC 2856", "Violet 2", "Plast Violet 8840", "Quinizarin Blue", "Alizarine Purple Lake SS", "Purple No. 201", "KP Plast Violet 2R", "Macrolex Violet 2R", "Macrolex Violet B GR", "FS Violet 1805", "1-Hydroxy-4-[(4-methylphenyl)amino]-9,10-dihydroanthracene-9,10-dione", "B 72", "1-Hydroxy-4-[(4-methylphenyl)amino]-9,10-anthraquinone", "1-Hydroxy-4-(4-methylanilino)anthracene-9,10-dione", "1-Hydroxy-4-(p-tolylamino)anthracene-9,10-dione", "Keyplast Oil Violet IRS", "Keyplast Violet IRS", "Oracet Violet 580", "Q 0022", "Macrolex Violet B Gran", "Fluorescent Violet B"], "SMILES": "N(C1=C2C(C(=O)C=3C(C2=O)=CC=CC3)=C(O)C=C1)C4=CC=C(C)C=C4", "physical_data": {"Molecular Weight": "329.35", "Molecular Formula": "C21H15NO3", "Melting Point": "186.1 \u00b0C"}}