{"cas_no": "81-42-5", "cn_name": "\u5206\u6563\u7d2b 28", "en_name": ["Disperse Violet 28", "9,10-Anthracenedione, 1,4-diamino-2,3-dichloro-", "Anthraquinone, 1,4-diamino-2,3-dichloro-", "1,4-Diamino-2,3-dichloro-9,10-anthracenedione", "C.I. 61102", "1,4-Diamino-2,3-dichloroanthraquinone", "Dianix Fast Violet RR", "2,3-Dichloro-1,4-anthraquinonylenediamine", "Latyl Violet 2R", "Sumikaron Violet RR", "C.I. Disperse Violet 28", "1,4-Diamino-2,3-dichloro-9,10-anthraquinone", "Sumiplast Violet RR", "Dianisox Fast Violet 2RM/D", "Sumikaron Violet E 2RL", "Dianix Violet 2R-E", "Resolin Violet RL", "Disperse Violet 28", "C.I. Solvent Violet 31", "Solvent violet 31", "Diaresin Violet D", "PS Violet RC", "Solvent Violet 51", "C.I. Solvent Violet 51", "Plast Violet 8855", "1,4-Diamino-2,3-dichloro-9,10-dihydroanthracene-9,10-dione", "KP Plast Violet R"], "SMILES": "O=C1C=2C(C(=O)C=3C1=CC=CC3)=C(N)C(Cl)=C(Cl)C2N", "physical_data": {"Molecular Weight": "307.13", "Molecular Formula": "C14H8Cl2N2O2", "Melting Point": "295 \u00b0C"}}