{"cas_no": "81-49-2", "cn_name": "1-\u6c28\u57fa-2,4-\u4e8c\u6eb4\u84bd\u918c", "en_name": ["1-Amino-2,4-dibromo-9,10-anthracenedione", "9,10-Anthracenedione, 1-amino-2,4-dibromo-", "Anthraquinone, 1-amino-2,4-dibromo-", "1-Amino-2,4-dibromo-9,10-anthracenedione", "2,4-Dibromo-1-anthraquinonylamine", "1-Amino-2,4-dibromo-9,10-anthraquinone", "1-Amino-2,4-dibromoanthraquinone", "NSC 3529", "1-Amino-2,4-dibromo-9,10-dihydroanthracene-9,10-dione"], "SMILES": "O=C1C=2C(C(=O)C=3C1=CC=CC3)=C(Br)C=C(Br)C2N", "physical_data": {"Molecular Weight": "381.02", "Molecular Formula": "C14H7Br2NO2", "Melting Point": "221 \u00b0C"}}