{"cas_no": "81-50-5", "cn_name": "1-\u6c28\u57fa-4-\u6eb4-2-\u7532\u57fa\u84bd\u916e", "en_name": ["1-Amino-4-bromo-2-methyl-9,10-anthracenedione", "9,10-Anthracenedione, 1-amino-4-bromo-2-methyl-", "Anthraquinone, 1-amino-4-bromo-2-methyl-", "1-Amino-4-bromo-2-methyl-9,10-anthracenedione", "1-Amino-4-bromo-2-methylanthraquinone", "1-Amino-2-methyl-4-bromoanthraquinone", "4-Bromo-2-methyl-1-anthraquinonylamine", "1-Amino-2-methyl-4-bromo-9,10-anthraquinone", "NSC 401160", "1-Amino-3-bromo-2-methyl-9,10-anthraquinone", "1-Amino-4-bromo-2-methyl-9,10-dihydroanthracene-9,10-dione"], "SMILES": "O=C1C=2C(C(=O)C=3C1=CC=CC3)=C(Br)C=C(C)C2N", "physical_data": {"Molecular Weight": "316.15", "Molecular Formula": "C15H10BrNO2", "Melting Point": "346-347 \u00b0C"}}