{"cas_no": "81-58-3", "cn_name": "1,4,5,8-\u56db\u6c2f\u84bd\u918c", "en_name": ["1,4,5,8-Tetrachloro-9,10-anthracenedione", "9,10-Anthracenedione, 1,4,5,8-tetrachloro-", "Anthraquinone, 1,4,5,8-tetrachloro-", "1,4,5,8-Tetrachloro-9,10-anthracenedione", "1,4,5,8-Tetrachloroanthraquinone", "1,4,5,8-Tetrachloro-9,10-anthraquinone", "NSC 513487"], "SMILES": "O=C1C=2C(C(=O)C=3C1=C(Cl)C=CC3Cl)=C(Cl)C=CC2Cl", "physical_data": {"Molecular Weight": "345.99", "Molecular Formula": "C14H4Cl4O2", "Melting Point": "341-342 \u00b0C"}}