{"cas_no": "81-54-9", "cn_name": "\u7f9f\u57fa\u831c\u8349\u7d20", "en_name": ["Purpurin", "9,10-Anthracenedione, 1,2,4-trihydroxy-", "Purpurin", "Anthraquinone, 1,2,4-trihydroxy-", "1,2,4-Trihydroxy-9,10-anthracenedione", "C.I. 58205", "C.I. 75410", "Hydroxylizaric acid", "Smoke Brown G", "Verantin", "Purpurine", "Purpurin (dye)", "1,2,4-Trihydroxyanthraquinone", "1,2,4-Trihydroxy-9,10-anthraquinone", "NSC 10447", "Purprin", "1,2,4-Trihydroxy-9,10-dihydroanthracene-9,10-dione", "1,2,4-Trihydroxyanthracenedione"], "SMILES": "O=C1C=2C(C(=O)C=3C1=CC=CC3)=C(O)C=C(O)C2O", "physical_data": {"Molecular Weight": "256.21", "Molecular Formula": "C14H8O5", "Melting Point": "259 \u00b0C"}}