{"cas_no": "81-60-7", "cn_name": "1,4,5,8-\u56db\u7f9f\u57fa\u84bd\u918c", "en_name": ["1,4,5,8-Tetrahydroxy-9,10-anthracenedione", "9,10-Anthracenedione, 1,4,5,8-tetrahydroxy-", "Anthraquinone, 1,4,5,8-tetrahydroxy-", "1,4,5,8-Tetrahydroxy-9,10-anthracenedione", "1,4,5,8-Tetrahydroxyanthraquinone", "1,4,5,8-Tetrahydroxy-9,10-anthraquinone", "NSC 401144"], "SMILES": "O=C1C=2C(C(=O)C=3C1=C(O)C=CC3O)=C(O)C=CC2O", "physical_data": {"Molecular Weight": "272.21", "Molecular Formula": "C14H8O6", "Melting Point": "246 \u00b0C"}}