{"cas_no": "81-61-8", "cn_name": "\u918c\u831c\u7d20", "en_name": ["Quinalizarin", "9,10-Anthracenedione, 1,2,5,8-tetrahydroxy-", "Anthraquinone, 1,2,5,8-tetrahydroxy-", "Quinalizarin", "1,2,5,8-Tetrahydroxy-9,10-anthracenedione", "C.I. 58500", "Alizarinbordeaux", "Alizarine Bordeaux B", "C.I. Mordant Violet 26", "Quinalizarine", "1,2,5,8-Tetrahydroxyanthraquinone", "Alizarine Bordeaux", "Khinalizarin", "1,2,5,8-Tetrahydroxy-9,10-anthraquinone", "1,4,5,6-Tetrahydroxyanthraquinone", "Alizarin Bordeaux BD", "NSC 144046", "NSC 4896", "PHF 016", "Quinazarin"], "SMILES": "O=C1C=2C(C(=O)C=3C1=C(O)C(O)=CC3)=C(O)C=CC2O", "physical_data": {"Molecular Weight": "272.21", "Molecular Formula": "C14H8O6", "Melting Point": "&gt;275 \u00b0C"}}