{"cas_no": "81-64-1", "cn_name": "1,4-\u4e8c\u7f9f\u57fa\u84bd\u918c", "en_name": ["Quinizarin", "9,10-Anthracenedione, 1,4-dihydroxy-", "Anthraquinone, 1,4-dihydroxy-", "1,4-Dihydroxy-9,10-anthracenedione", "C.I. 58050", "Chinizarin", "Quinizarin", "Quinizarine", "Smoke Orange R", "1,4-Dihydroxyanthraquinone", "1,4-Dihydroxy-9,10-anthraquinone", "NSC 15367", "DAQ", "Solvent Orange 86", "C.I. Solvent Orange 86", "Macrolex Orange GG", "C.I. Solvent Orange 100", "Solvent Orange 100", "Smoke Orange 18", "NSC 229036", "NSC 40899", "NSC 646569"], "SMILES": "O=C1C=2C(C(=O)C=3C1=CC=CC3)=C(O)C=CC2O", "physical_data": {"Molecular Weight": "240.21", "Molecular Formula": "C14H8O4", "Melting Point": "196 \u00b0C", "Density": "1.52 g/cm\u00b3"}}