{"cas_no": "81-81-2", "cn_name": "\u534e\u6cd5\u6797", "en_name": ["(\u00b1)-Warfarin", "2H-1-Benzopyran-2-one, 4-hydroxy-3-(3-oxo-1-phenylbutyl)-", "Coumarin, 3-(\u03b1-acetonylbenzyl)-4-hydroxy-", "4-Hydroxy-3-(3-oxo-1-phenylbutyl)-2H-1-benzopyran-2-one", "W.A.R.F. 42", "3-(\u03b1-Acetonylbenzyl)-4-hydroxycoumarin", "Compound 42", "Coumafen", "Coumafene", "Coumefene", "Dethmor", "Kumader", "3-(\u03b1-Phenyl-\u03b2-acetylethyl)-4-hydroxycoumarin", "3-(1\u2032-Phenyl-2\u2032-acetylethyl)-4-hydroxycoumarin", "Warfarin", "Zoocoumarin", "Kumadu", "Rodafarin", "1-(4\u2032-Hydroxy-3\u2032-coumarinyl)-1-phenyl-3-butanone", "Athrombine-K", "WARF compound 42", "Ratron", "4-Hydroxy-3-(3-oxo-1-phenylbutyl)-2H-chromen-2-one", "Brumolin", "Temus W", "Vampirinip II", "Ratron G", "Vampirinip III", "Kumatox", "Coumaphen", "Rodafarin C", "(\u00b1)-Warfarin", "(RS)-Warfarin", "rac-Warfarin", "DL-3-(\u03b1-Acetonylbenzyl)-4-hydroxycoumarin", "(\u00b1)-Warfarin-alcohol", "Co-Rax", "Rodex", "NSC 59813", "Warf 5", "Warfarin acid", "Martefarin", "Circuvit", "MeSH ID: D014859"], "SMILES": "C(CC(C)=O)(C1=C(O)C=2C(OC1=O)=CC=CC2)C3=CC=CC=C3", "physical_data": {"Molecular Weight": "308.33", "Molecular Formula": "C19H16O4", "Melting Point": "161 \u00b0C"}}