{"cas_no": "81-88-9", "cn_name": "\u7f57\u4e39\u660e B", "en_name": ["Rhodamine B", "Xanthylium, 9-(2-carboxyphenyl)-3,6-bis(diethylamino)-, chloride (1:1)", "[9-(o-Carboxyphenyl)-6-(diethylamino)-3H-xanthen-3-ylidene]diethylammonium chloride", "Ammonium, [9-(o-carboxyphenyl)-6-(diethylamino)-3H-xanthen-3-ylidene]diethyl-, chloride", "Xanthylium, 9-(2-carboxyphenyl)-3,6-bis(diethylamino)-, chloride", "11411 Red", "C.I. 45170", "ADC Rhodamine B", "Aizen Rhodamine BH", "Akiriku Rhodamine B", "Calcozine Red BX", "Calcozine Rhodamine BXP", "Cerise Toner X 1127", "Diabasic Rhodamine B", "Edicol Supra Rose B", "Eriosin Rhodamine B", "Hexacol Rhodamine B Extra", "Ikada Rhodamine B", "Mitsui Rhodamine BX", "Rheonine B", "Rhodamine, tetraethyl-", "Rhodamine B", "Rhodamine BA", "Rhodamine BA Export", "Rhodamine BN", "Rhodamine BS", "Rhodamine BX", "Rhodamine BXL", "Rhodamine BXP", "Rhodamine B Extra S", "Rhodamine B Extra M 310", "Rhodamine FB", "Rhodamine Lake Red B", "Sicilian Cerise Toner A 7127", "Symulex Magenta F", "Symulex Rhodamine B Toner F", "Takaoka Rhodamine B", "Tetraethylrhodamine", "C.I. Food Red 15", "Aizen Rhodamine BHC", "Edicol Supra Rose BS", "Rhodamine B Extra", "D and C Red No. 19", "C.I. Basic Violet 10", "FD And C Red No. 19", "Rhodamine B 500 hydrochloride", "Basic Violet 10", "Red No. 213", "Rhodamine B 500", "Rhodamine S (Russian)", "Rhodamine S", "Rhodamine O", "Japan Red 213", "Japan Red No. 213", "Flexo Red 540", "Basonyl Red 540", "D&", "C Red No. 19", "Basonyl Red 545", "Basazol Red 71P", "Aizen Rhodamine B", "Rhodamine 610 chloride", "Sumiplast Pink B", "Brilliant Pink B", "OP 312", "Basic Rose Red", "D&", "C Red 19", "Basic Rose Extract", "Basonyl Red 545FL", "LC 6100", "Rhodamine BDC", "Chromatint Rhodamine B", "Basazol Red 71L", "RHB", "Amezin Rhodamine B Liquid", "Rhodamine B-EX", "GRM 980", "Ruixiang Red B"], "SMILES": "C(O)(=O)C1=C(C=2C3=C([O+]=C4C2C=CC(N(CC)CC)=C4)C=C(N(CC)CC)C=C3)C=CC=C1.[Cl-]", "physical_data": {"Molecular Weight": "", "Molecular Formula": "C28H31N2O3.Cl", "Melting Point": "165 \u00b0C"}}