{"cas_no": "81-84-5", "cn_name": "1,8-\u8418\u4e8c\u7532\u9178\u9150", "en_name": ["Naphthalic anhydride", "1H,3H-Naphtho[1,8-cd]pyran-1,3-dione", "Naphthalic anhydride", "1,8-Naphthalic anhydride", "Protect (agrochemical)", "1,8-Naphthalenedicarboxylic acid anhydride", "1,8-Naphthalic acid anhydride", "1,8-Naphthalenedicarboxylic anhydride", "Protect", "1,8-Naphthoic anhydride", "NSC 5747", "1,8-Naphthanoic anhydride", "Naphthalene-2,6-dicarboxylic acid anhydride"], "SMILES": "O=C1C=2C=3C(C(=O)O1)=CC=CC3C=CC2", "physical_data": {"Molecular Weight": "198.17", "Molecular Formula": "C12H6O3", "Melting Point": "270 \u00b0C"}}