{"cas_no": "81-83-4", "cn_name": "\u8418\u4e9a\u80fa", "en_name": ["Naphthalimide", "1H-Benz[de]isoquinoline-1,3(2H)-dione", "Naphthalimide", "1,8-Naphthalenedicarboximide", "1,8-Naphthalenedicarboxylic acid imide", "1,8-Naphthalimide", "NSC 11011", "1,8-Naphthaleneimide", "Benzo[de]isoquinoline-1,3-dione"], "SMILES": "O=C1C=2C=3C(C(=O)N1)=CC=CC3C=CC2", "physical_data": {"Molecular Weight": "197.19", "Molecular Formula": "C12H7NO2", "Melting Point": "287 \u00b0C"}}