{"cas_no": "81-82-3", "cn_name": "\u6c2f\u706d\u9f20\u7075", "en_name": ["(\u00b1)-Coumachlor", "2H-1-Benzopyran-2-one, 3-[1-(4-chlorophenyl)-3-oxobutyl]-4-hydroxy-", "Coumachlor", "Coumarin, 3-(\u03b1-acetonyl-p-chlorobenzyl)-4-hydroxy-", "3-[1-(4-Chlorophenyl)-3-oxobutyl]-4-hydroxy-2H-1-benzopyran-2-one", "3-(\u03b1-Acetonyl-4-chlorobenzyl)-4-hydroxycoumarin", "3-(\u03b1-p-Chlorophenyl-\u03b2-acetylethyl)-4-hydroxycoumarin", "Experimental Rodenticide 332", "Geigy Rodenticide Exp. 332", "Tomorin", "3-[1-(p-Chlorophenyl)-2-acetylethyl]-4-hydroxycoumarin", "Cumachlor", "p-Chlorowarfarin", "(\u00b1)-p-Chlorowarfarin", "DL-3-(\u03b1-Acetonyl-4-chlorobenzyl)-4-hydroxycoumarin", "(\u00b1)-Coumachlor", "Racemic coumachlor", "(\u00b1)-3-(\u03b1-Acetonyl-4-chlorobenzyl)-4-hydroxy coumarin"], "SMILES": "C(CC(C)=O)(C1=C(O)C=2C(OC1=O)=CC=CC2)C3=CC=C(Cl)C=C3", "physical_data": {"Molecular Weight": "342.77", "Molecular Formula": "C19H15ClO4", "Melting Point": "169-171 \u00b0C"}}