{"cas_no": "81-86-7", "cn_name": "4-\u6eb4-1,8-\u8418\u4e8c\u7532\u9178\u9150", "en_name": ["4-Bromo-1,8-naphthalic anhydride", "1H,3H-Naphtho[1,8-cd]pyran-1,3-dione, 6-bromo-", "Naphthalic anhydride, 4-bromo-", "6-Bromo-1H,3H-naphtho[1,8-cd]pyran-1,3-dione", "4-Bromonaphthalic anhydride", "4-Bromo-1,8-naphthalenedicarboxylic anhydride", "4-Bromo-1,8-naphthalic acid anhydride", "4-Bromo-1,8-naphthalic anhydride", "4-Bromonaphthalene-1,8-dicarboxylic acid anhydride", "4-Bromo-1,8-naphthoic anhydride", "4-Bromo-1,8-naphtalic anhydride", "8-Bromo-3-oxatricyclo[7.3.1.0 5,13]trideca-1(13),5,7,9,11-pentaene-2,4-dione", "6-Bromobenzo[de]isochromene-1,3-dione", "4-Bromo-1,8-naphthalene anhydride"], "SMILES": "O=C1C=2C=3C(C(=O)O1)=CC=CC3C(Br)=CC2", "physical_data": {"Molecular Weight": "277.07", "Molecular Formula": "C12H5BrO3", "Melting Point": "215 \u00b0C"}}