{"cas_no": "81-92-5", "cn_name": "2-BIS(4-\u7f9f\u82ef\u57fa)\u7532\u57fa\u82c4\u9187", "en_name": ["2-[Bis(4-hydroxyphenyl)methyl]benzenemethanol", "Benzenemethanol, 2-[bis(4-hydroxyphenyl)methyl]-", "Benzyl alcohol, o-[bis(p-hydroxyphenyl)methyl]-", "2-[Bis(4-hydroxyphenyl)methyl]benzenemethanol", "Bis(4-hydroxyphenyl)[2-(hydroxymethyl)phenyl]methane", "o-[Bis(p-hydroxyphenyl)methyl]benzyl alcohol", "Egmol", "Phenolphthalol", "Normolax", "Regmolax", "Velaxin", "Regolax", "NSC 91527"], "SMILES": "C(C1=C(CO)C=CC=C1)(C2=CC=C(O)C=C2)C3=CC=C(O)C=C3", "physical_data": {"Molecular Weight": "306.36", "Molecular Formula": "C20H18O3", "Melting Point": "201.5 \u00b0C"}}