{"cas_no": "81-96-9", "cn_name": "3-\u6eb4\u4ee3\u82ef\u7ed5\u84bd\u916e", "en_name": ["3-Bromobenzanthrone", "7H-Benz[de]anthracen-7-one, 3-bromo-", "3-Bromo-7H-benz[de]anthracen-7-one", "3-Bromobenzanthrone", "NSC 13976", "3-Bromobenzo[b]phenalen-7-one", "3-Bromo-7H-benzo[de]anthracen-7-one"], "SMILES": "O=C1C=2C3=C(C=4C1=CC=CC4)C=CC(Br)=C3C=CC2", "physical_data": {"Molecular Weight": "309.16", "Molecular Formula": "C17H9BrO", "Melting Point": "167 \u00b0C"}}