{"cas_no": "81-90-3", "cn_name": "\u82ef\u915a\u8418", "en_name": ["Phenolphthalin", "Benzoic acid, 2-[bis(4-hydroxyphenyl)methyl]-", "o-Toluic acid, \u03b1,\u03b1-bis(p-hydroxyphenyl)-", "Phenolphthalin", "2-[Bis(4-hydroxyphenyl)methyl]benzoic acid", "\u03b1,\u03b1-Bis(p-hydroxyphenyl)-o-toluic acid", "4\u2032,4\u2032\u2032-Dihydroxytriphenylmethane-2-carboxylic acid", "Ex-Lax", "Evac-Q-Tabs", "Modane Plus", "Chocolax", "Darmol"], "SMILES": "C(C1=C(C(O)=O)C=CC=C1)(C2=CC=C(O)C=C2)C3=CC=C(O)C=C3", "physical_data": {"Molecular Weight": "320.34", "Molecular Formula": "C20H16O4", "Melting Point": "230.5 \u00b0C", "Density": "1.299 g/cm\u00b3"}}