{"cas_no": "81025-04-9", "cn_name": "\u5355\u6c34\u5408\u4e73\u7cd6\u9187", "en_name": ["Lactitol monohydrate", "D-Glucitol, 4-O-\u03b2-D-galactopyranosyl-, hydrate (1:1)", "D-Glucitol, 4-O-\u03b2-D-galactopyranosyl-, monohydrate", "Lactitol monohydrate", "Exportal", "4-O-\u03b2-D-Galactopyranosyl-D-glucitol monohydrate"], "SMILES": "O(C(C(C(CO)O)O)C(CO)O)C1OC(CO)C(O)C(O)C1O.O", "physical_data": {"Molecular Weight": "", "Molecular Formula": "C12H24O11.H2O", "Melting Point": "94-97 \u00b0C"}}