{"cas_no": "81055-73-4", "cn_name": "2,6-\u4e8c\u6c2f\u82ef\u7532\u9178\u4e59\u916f", "en_name": ["Benzoic acid, 2,6-dichloro-, ethyl ester", "Benzoic acid, 2,6-dichloro-, ethyl ester", "Ethyl 2,6-dichlorobenzoate", "2,6-Dichlorobenzoic acid ethyl ester"], "SMILES": "C(OCC)(=O)C1=C(Cl)C=CC=C1Cl", "physical_data": {"Molecular Weight": "219.06", "Molecular Formula": "C9H8Cl2O2", "Melting Point": "96-97 \u00b0C"}}