{"cas_no": "81074-81-9", "cn_name": "5-[(\u4e8c\u7532\u6c28\u57fa)\u7532\u57fa]-2-\u544b\u5583\u7532\u9187\u76d0\u9178\u76d0", "en_name": ["2-Furanmethanol, 5-[(dimethylamino)methyl]-, hydrochloride (1:1)", "2-Furanmethanol, 5-[(dimethylamino)methyl]-, hydrochloride (1:1)", "2-Furanmethanol, 5-[(dimethylamino)methyl]-, hydrochloride", "5-(Dimethylaminomethyl)-2-furanmethanol hydrochloride", "5-(Dimethylaminomethyl)furfuryl alcohol hydrochloride", "[5-[(Dimethylamino)methyl]furan-2-yl]methanol hydrochloride"], "SMILES": "C(N(C)C)C=1OC(CO)=CC1.Cl", "physical_data": {"Molecular Weight": "", "Molecular Formula": "C8H13NO2.ClH", "Melting Point": "120-121 \u00b0C"}}