{"cas_no": "81098-60-4", "cn_name": "\u897f\u6c99\u5fc5\u5229", "en_name": ["Cisapride", "Benzamide, 4-amino-5-chloro-N-[(3R,4S)-1-[3-(4-fluorophenoxy)propyl]-3-methoxy-4-piperidinyl]-2-methoxy-, rel-", "Benzamide, 4-amino-5-chloro-N-[1-[3-(4-fluorophenoxy)propyl]-3-methoxy-4-piperidinyl]-2-methoxy-, cis-", "rel-4-Amino-5-chloro-N-[(3R,4S)-1-[3-(4-fluorophenoxy)propyl]-3-methoxy-4-piperidinyl]-2-methoxybenzamide", "Cisapride", "R 51619", "Propulsid", "Acenalin", "(\u00b1)-Cisapride", "T 1341", "Prepulsid", "cis-2-Methoxy-4-amino-5-chloro-N-[1-[3-(4-fluorophenoxy)propyl]-3-methoxy-4-piperidinyl]benzamide", "Propulsin", "Alimix", "Risamal", "Cipril", "Coordinax", "Cisad", "MeSH ID: D020117"], "SMILES": "C(NC1C(OC)CN(CCCOC2=CC=C(F)C=C2)CC1)(=O)C3=C(OC)C=C(N)C(Cl)=C3", "physical_data": {"Molecular Weight": "465.95", "Molecular Formula": "C23H29ClFN3O4", "Melting Point": "109.8 \u00b0C"}}