{"cas_no": "811-97-2", "cn_name": "1,1,1,2-\u56db\u6c1f\u4e59\u70f7", "en_name": ["1,1,1,2-Tetrafluoroethane", "Ethane, 1,1,1,2-tetrafluoro-", "1,1,1,2-Tetrafluoroethane", "Norflurane", "1,2,2,2-Tetrafluoroethane", "R 134a", "Refrigerant R 134a", "Arcton 134a", "HFC 134a", "F 134A", "FC 134a", "Fron 134a", "HFA 134a", "HCFC 134a", "TG 134a", "Khladon 134a", "Freon 134a", "Forane 134a", "HC 134a", "Ecolo Ace 134a", "SUVA 134a", "AK 134a", "HFA 134", "Solkane 134a", "HFA P134a", "Halon 134A", "RF 134a", "P 134A", "KLEA 134a", "Genetron 134a", "Meforex 134a", "134a", "Freon R 134a", "H 134A", "HFA 334a"], "SMILES": "C(CF)(F)(F)F", "physical_data": {"Molecular Weight": "102.03", "Molecular Formula": "C2H2F4", "Boiling Point": "-26 \u00b0C", "Melting Point": "-101 \u00b0C"}}