{"cas_no": "811-93-8", "cn_name": "1,2-\u4e8c\u6c28\u57fa-2-\u7532\u57fa\u4e19\u70f7", "en_name": ["1,2-Diamino-2-methylpropane", "1,2-Propanediamine, 2-methyl-", "2-Methyl-1,2-propanediamine", "1,2-Diamino-2-methylpropane", "2,3-Diamino-2-methylpropane", "2-Methyl-1,2-diaminopropane", "1,1-Dimethylethylenediamine", "2,2-Dimethylethylenediamine", "C,C-Dimethylethylenediamine", "2-Amino-2-methylpropylamine", "Isobutylenediamine", "1,1-Dimethyl-1,2-ethanediamine", "NSC 114220", "NSC 17717", "(2-Amino-1,1-dimethylethyl)amine", "2-Methylpropan-1,2-diamine"], "SMILES": "C(CN)(C)(C)N", "physical_data": {"Molecular Weight": "88.15", "Molecular Formula": "C4H12N2", "Boiling Point": "59 \u00b0C @ Press: 20 Torr", "Melting Point": "120-120.8 \u00b0C"}}