{"cas_no": "811-49-4", "cn_name": "\u4e59\u57fa\u9502", "en_name": ["Ethyllithium", "Lithium, ethyl-", "Ethyllithium"], "SMILES": "C(C)[Li]", "physical_data": {"Molecular Weight": "", "Molecular Formula": "C2H5Li", "Melting Point": "95 \u00b0C", "Density": "0.883 g/cm\u00b3 @ Temp: 13 \u00b0C"}}