{"cas_no": "811-98-3", "cn_name": "\u6c18\u4ee3\u7532\u9187", "en_name": ["Methanol-d4", "Methan-d3-ol-d", "Methanol-d4", "Perdeuteriomethanol", "Tetradeuteromethanol", "Perdeuterated methanol", "Perdeuteromethanol", "Methyl-d3 alcohol-d", "Tetradeuteriomethanol", "Perdeuterated methyl alcohol", "Methyl hydroxide (CD3OD)"], "SMILES": "C(O)([2H])([2H])[2H]", "physical_data": {"Molecular Weight": "", "Molecular Formula": "CD4O", "Boiling Point": "65.3-65.6 \u00b0C"}}