{"cas_no": "811-62-1", "cn_name": "\u4e8c\u7532\u57fa\u6c2f\u5316\u81a6", "en_name": ["Chlorodimethylphosphine", "Phosphinous chloride, dimethyl-", "Chlorodimethylphosphine", "Dimethylchlorophosphine", "Dimethylphosphinous chloride", "Dimethylphosphine chloride"], "SMILES": "P(C)(C)Cl", "physical_data": {"Molecular Weight": "96.50", "Molecular Formula": "C2H6ClP", "Boiling Point": "77 \u00b0C", "Melting Point": "-4-0 \u00b0C"}}