{"cas_no": "81103-11-9", "cn_name": "\u514b\u62c9\u9709\u7d20", "en_name": ["Clarithromycin", "Erythromycin, 6-O-methyl-", "Oxacyclotetradecane, erythromycin deriv.", "6-O-Methylerythromycin", "A 56268", "Antibiotic TE 31", "Antibiotic A 56268", "6-O-Methylerythromycin A", "Clarithromycin", "TE 031", "Biaxin", "Klacid", "Fromilid", "Kelamycin", "Clamicin", "Veclam", "Klaricid", "Naxy", "Zeclar", "Macladin", "Clathromycin", "Abbott 56268", "Claris", "Fascar", "Crixan", "Clarithro", "Claric", "BIAXIN XL", "Clarith", "Claritek", "Klaribac", "Klarithran MR", "CRIXAN OD", "Klarimix", "Klabax", "Claridar", "CLARIPEN", "MeSH ID: D017291"], "SMILES": "O(C1C(OC)(C)CC(C)C(=O)C(C)C(O)C(C)(O)C(CC)OC(=O)C(C)C(OC2CC(OC)(C)C(O)C(C)O2)C1C)C3C(O)C(N(C)C)CC(C)O3", "physical_data": {"Molecular Weight": "747.95", "Molecular Formula": "C38H69NO13", "Melting Point": "220 \u00b0C (decomp)"}}