{"cas_no": "81112-08-5", "cn_name": "N-(4-(2-\u6c2f\u4e19\u9170)\u82ef\u57fa)\u4e59\u9170\u80fa", "en_name": ["N-[4-(2-Chloro-1-oxopropyl)phenyl]acetamide", "Acetamide, N-[4-(2-chloro-1-oxopropyl)phenyl]-", "N-[4-(2-Chloro-1-oxopropyl)phenyl]acetamide", "4-Acetamidophenyl 1-chloroethyl ketone", "4-Acetamido-\u03b1-chloropropiophenone", "1-(4-Acetamidophenyl)-2-chloro-1-propanone", "NSC 281614", "N-[4-(2-Chloropropanoyl)phenyl]acetamide"], "SMILES": "C(C(C)Cl)(=O)C1=CC=C(NC(C)=O)C=C1", "physical_data": {"Molecular Weight": "225.67", "Molecular Formula": "C11H12ClNO2", "Melting Point": "119-120 \u00b0C"}}