{"cas_no": "81110-73-8", "cn_name": "\u6d88\u65cb\u5361\u591a\u66f2", "en_name": ["Racecadotril", "Glycine, N-[2-[(acetylthio)methyl]-1-oxo-3-phenylpropyl]-, phenylmethyl ester", "Glycine, N-[2-[(acetylthio)methyl]-1-oxo-3-phenylpropyl]-, phenylmethyl ester, (\u00b1)-", "Acetorphan", "Racecadotril", "Tiorfan", "Redotil", "Cadotril", "Zedott", "Hidrasec"], "SMILES": "C(CC1=CC=CC=C1)(C(NCC(OCC2=CC=CC=C2)=O)=O)CSC(C)=O", "physical_data": {"Molecular Weight": "385.48", "Molecular Formula": "C21H23NO4S", "Melting Point": "89 \u00b0C"}}