{"cas_no": "81131-70-6", "cn_name": "\u666e\u4f10\u4ed6\u6c40\u94a0", "en_name": ["Pravastatin sodium", "1-Naphthaleneheptanoic acid, 1,2,6,7,8,8a-hexahydro-\u03b2,\u03b4,6-trihydroxy-2-methyl-8-[(2S)-2-methyl-1-oxobutoxy]-, sodium salt (1:1), (\u03b2R,\u03b4R,1S,2S,6S,8S,8aR)-", "1-Naphthaleneheptanoic acid, 1,2,6,7,8,8a-hexahydro-\u03b2,\u03b4,6-trihydroxy-2-methyl-8-(2-methyl-1-oxobutoxy)-, monosodium salt, [1S-[1\u03b1(\u03b2S*,\u03b4S*),2\u03b1,6\u03b1,8\u03b2(R*),8a\u03b1]]-", "1-Naphthaleneheptanoic acid, 1,2,6,7,8,8a-hexahydro-\u03b2,\u03b4,6-trihydroxy-2-methyl-8-[(2S)-2-methyl-1-oxobutoxy]-, monosodium salt, (\u03b2R,\u03b4R,1S,2S,6S,8S,8aR)-", "CS 514", "SQ 31000", "Epastatin sodium", "Pravastatin sodium", "Mevalotin", "Pravachol", "Sodium pravastatin", "Pravastatin sodium salt", "Pravacol", "Vasten", "Lipostat", "Selektine", "Elisor", "Pravasine", "Liprevil", "Prava", "Pravaselect", "Pravasin", "Selipran", "Selectin", "Lipidal", "Oliprevin", "3\u03b2-Hydroxycompactin sodium salt", "Eptastatin sodium", "Mevan", "Pravator", "Pravastin"], "SMILES": "C(CC(CC(CC(O)=O)O)O)C1C2C(OC(C(CC)C)=O)CC(O)C=C2C=CC1C.[Na]", "physical_data": {"Molecular Weight": "", "Molecular Formula": "C23H36O7.Na", "Melting Point": "181.5 \u00b0C"}}