{"cas_no": "81147-92-4", "cn_name": "\u827e\u53f8\u6d1b\u5c14", "en_name": ["Esmolol", "Benzenepropanoic acid, 4-[2-hydroxy-3-[(1-methylethyl)amino]propoxy]-, methyl ester", "Esmolol", "ASL 8052-001", "(\u00b1)-Esmolol", "3-(4-(2-Hydroxy-3-(isopropylamino)propoxy)phenyl)propionic acid methyl ester"], "SMILES": "O(CC(CNC(C)C)O)C1=CC=C(CCC(OC)=O)C=C1", "physical_data": {"Molecular Weight": "295.37", "Molecular Formula": "C16H25NO4", "Melting Point": "48-50 \u00b0C"}}