{"cas_no": "81147-94-6", "cn_name": "\u76d0\u9178\u827e\u53f8\u6d1b\u5c14\u6742\u8d284", "en_name": ["Methyl 4-(2-oxiranylmethoxy)benzenepropanoate", "Benzenepropanoic acid, 4-(2-oxiranylmethoxy)-, methyl ester", "Benzenepropanoic acid, 4-(oxiranylmethoxy)-, methyl ester", "Methyl 4-(2-oxiranylmethoxy)benzenepropanoate", "3-(4-(2,3-Epoxypropoxy)phenyl)propionic acid methyl ester"], "SMILES": "C(OC1=CC=C(CCC(OC)=O)C=C1)C2CO2", "physical_data": {"Molecular Weight": "236.26", "Molecular Formula": "C13H16O4", "Boiling Point": "156 \u00b0C @ Press: 0.4 Torr"}}