{"cas_no": "81161-17-3", "cn_name": "\u76d0\u9178\u827e\u53f8\u6d1b\u5c14", "en_name": ["Esmolol hydrochloride", "Benzenepropanoic acid, 4-[2-hydroxy-3-[(1-methylethyl)amino]propoxy]-, methyl ester, hydrochloride (1:1)", "Benzenepropanoic acid, 4-[2-hydroxy-3-[(1-methylethyl)amino]propoxy]-, methyl ester, hydrochloride", "ASL 8052", "Esmolol hydrochloride", "Brevibloc", "Clol"], "SMILES": "O(CC(CNC(C)C)O)C1=CC=C(CCC(OC)=O)C=C1.Cl", "physical_data": {"Molecular Weight": "", "Molecular Formula": "C16H25NO4.ClH", "Melting Point": "85-86 \u00b0C"}}