{"cas_no": "812-01-1", "cn_name": "\u6c2f\u78fa\u9178\u7532\u916f", "en_name": ["Chlorosulfuric acid, methyl ester", "Chlorosulfuric acid, methyl ester", "Methyl chlorosulfate", "Methyl chlorosulfonate", "Chlorosulfonic acid, methyl ester", "[(Chlorosulfonyl)oxy]methane"], "SMILES": "S(OC)(Cl)(=O)=O", "physical_data": {"Molecular Weight": "130.55", "Molecular Formula": "CH3ClO3S", "Boiling Point": "134 \u00b0C", "Melting Point": "-70 \u00b0C", "Density": "1.492 g/cm\u00b3 @ Temp: 15 \u00b0C"}}