{"cas_no": "81213-52-7", "cn_name": "MTSL (S-(2,2,5,5-TETRAMETHYL-2,5-DIHYDRO-1H-PYRROL-3YL)METHYL METHANESULFONOTHIOATE", "en_name": ["(1-Oxyl-2,2,5,5-tetramethyl-\u03943-pyrroline-3-methyl)methanethiosulfonate", "1H-Pyrrol-1-yloxy, 2,5-dihydro-2,2,5,5-tetramethyl-3-[[(methylsulfonyl)thio]methyl]-", "2,5-Dihydro-2,2,5,5-tetramethyl-3-[[(methylsulfonyl)thio]methyl]-1H-pyrrol-1-yloxy", "MTS", "MTS (spin label)", "MTSL", "MTSSL", "(1-Oxyl-2,2,5,5-tetramethyl-\u03943-pyrroline-3-methyl)methanethiosulfonate"], "SMILES": "C(SS(C)(=O)=O)C=1C(C)(C)N([O])C(C)(C)C1", "physical_data": {"Molecular Weight": "", "Molecular Formula": "C10H18NO3S2", "Melting Point": "85-87 \u00b0C"}}