{"cas_no": "81228-09-3", "cn_name": "2,4-\u4e8c\u6c1f\u82ef\u4e59\u9178", "en_name": ["2,4-Difluorophenylacetic acid", "Benzeneacetic acid, 2,4-difluoro-", "2,4-Difluorobenzeneacetic acid", "2,4-Difluorophenylacetic acid", "2-(2,4-Difluorophenyl)acetic acid"], "SMILES": "C(C(O)=O)C1=C(F)C=C(F)C=C1", "physical_data": {"Molecular Weight": "172.13", "Molecular Formula": "C8H6F2O2", "Melting Point": "117.00 \u00b0C"}}