{"cas_no": "81224-16-0", "cn_name": "7-\u6eb4-4-\u7532\u6c27\u57fa\u5432\u54da", "en_name": ["7-Bromo-4-methoxy-1H-indole", "1H-Indole, 7-bromo-4-methoxy-", "7-Bromo-4-methoxy-1H-indole", "7-Bromo-4-methoxyindole", "4-Methoxy-7-bromoindole"], "SMILES": "O(C)C1=C2C(=C(Br)C=C1)NC=C2", "physical_data": {"Molecular Weight": "226.07", "Molecular Formula": "C9H8BrNO", "Melting Point": "118 \u00b0C"}}