{"cas_no": "81246-79-9", "cn_name": "5'-O-(4,4'-\u4e8c\u7532\u6c27\u57fa\u4e09\u82ef\u7532\u57fa)\u5c3f\u82f7", "en_name": ["5\u2032-O-[Bis(4-methoxyphenyl)phenylmethyl]uridine", "Uridine, 5\u2032-O-[bis(4-methoxyphenyl)phenylmethyl]-", "Uridine, 5\u2032-O-[\u03b1,\u03b1-bis(p-methoxyphenyl)benzyl]-", "5\u2032-O-[Bis(4-methoxyphenyl)phenylmethyl]uridine", "5\u2032-O-(4,4\u2032-Dimethoxytrityl)uridine", "5\u2032-Dimethoxytrityluridine"], "SMILES": "C(OCC1OC(C(O)C1O)N2C(=O)NC(=O)C=C2)(C3=CC=C(OC)C=C3)(C4=CC=C(OC)C=C4)C5=CC=CC=C5", "physical_data": {"Molecular Weight": "546.57", "Molecular Formula": "C30H30N2O8", "Melting Point": "111-112 \u00b0C"}}