{"cas_no": "81250-34-2", "cn_name": "5,6-\u4e8c\u6c28\u57fa-1,3-\u4e8c\u4e19\u57fa-1H-\u5627\u5576-2,4-\u4e8c\u916e", "en_name": ["5,6-Diamino-1,3-dipropyl-2,4(1H,3H)-pyrimidinedione", "2,4(1H,3H)-Pyrimidinedione, 5,6-diamino-1,3-dipropyl-", "5,6-Diamino-1,3-dipropyl-2,4(1H,3H)-pyrimidinedione", "5,6-Diamino-1,3-dipropyluracil", "1,3-Dipropyl-5,6-diaminouracil", "5,6-Diamino-1,3-dipropyl-1,3-dihydropyrimidine-2,4-dione", "5,6-Diamino-1,3-dipropyl-1H-pyrimidine-2,4-dione"], "SMILES": "C(CC)N1C(=O)N(CCC)C(=O)C(N)=C1N", "physical_data": {"Molecular Weight": "226.28", "Molecular Formula": "C10H18N4O2", "Melting Point": "129-131 \u00b0C"}}