{"cas_no": "81267-65-4", "cn_name": "\u8131\u6c22\u96cc\u9a6c\u915a", "en_name": ["Phenoxodiol", "2H-1-Benzopyran-7-ol, 3-(4-hydroxyphenyl)-", "3-(4-Hydroxyphenyl)-2H-1-benzopyran-7-ol", "Haginin E", "Phenoxodiol", "Dehydroequol", "NV 06", "Idronoxil", "3-(4-Hydroxyphenyl)-2H-benzopyran-7-ol", "D 7446", "Veyonda"], "SMILES": "OC=1C=C2C(C=C(CO2)C3=CC=C(O)C=C3)=CC1", "physical_data": {"Molecular Weight": "240.25", "Molecular Formula": "C15H12O3", "Melting Point": "165-166 \u00b0C"}}