{"cas_no": "81290-20-2", "cn_name": "(\u4e09\u6c1f\u7532\u57fa)\u4e09\u7532\u57fa\u7845\u70f7", "en_name": ["(Trifluoromethyl)trimethylsilane", "Silane, trimethyl(trifluoromethyl)-", "Trimethyl(trifluoromethyl)silane", "(Trifluoromethyl)trimethylsilane", "Trimethylsilyltrifluoromethane", "Trifluoro(trimethylsilyl)methane", "Ruppert's reagent", "Reagents, Ruppert's", "Ruppert-Prakash reagent"], "SMILES": "C([Si](C)(C)C)(F)(F)F", "physical_data": {"Molecular Weight": "142.20", "Molecular Formula": "C4H9F3Si", "Boiling Point": "55 \u00b0C", "Density": "0.962 g/cm\u00b3"}}