{"cas_no": "813-78-5", "cn_name": "\u78f7\u9178\u4e8c\u7532\u916f", "en_name": ["Dimethyl phosphate", "Phosphoric acid, dimethyl ester", "Methyl phosphate ((CH3O)2(HO)PO)", "Dimethyl phosphate", "Dimethyl hydrogen phosphate", "O,O-Dimethyl phosphate", "O,O-Dimethyl hydrogen phosphate", "DMP", "NSC 2676"], "SMILES": "P(OC)(OC)(=O)O", "physical_data": {"Molecular Weight": "126.05", "Molecular Formula": "C2H7O4P", "Boiling Point": "113 \u00b0C @ Press: 0.023 Torr", "Density": "1.3337 g/cm\u00b3 @ Temp: 20 \u00b0C"}}