{"cas_no": "813-44-5", "cn_name": "1,1,1,2,4,5,5,5-\u516b\u6c1f\u4ee3-2,4-\u53cc(\u4e09\u6c1f\u4ee3\u7532\u57fa)-3-\u620a\u916e", "en_name": ["1,1,1,2,4,5,5,5-Octafluoro-2,4-bis(trifluoromethyl)-3-pentanone", "3-Pentanone, 1,1,1,2,4,5,5,5-octafluoro-2,4-bis(trifluoromethyl)-", "1,1,1,2,4,5,5,5-Octafluoro-2,4-bis(trifluoromethyl)-3-pentanone", "Perfluoroisopropyl ketone", "Perfluorodiisopropyl ketone", "Perfluorobis(isopropyl) ketone", "Tetradecafluoro-2,4-dimethylpentan-3-one"], "SMILES": "C(C(C(C(F)(F)F)(C(F)(F)F)F)=O)(C(F)(F)F)(C(F)(F)F)F", "physical_data": {"Molecular Weight": "366.05", "Molecular Formula": "C7F14O", "Boiling Point": "71-72 \u00b0C"}}