{"cas_no": "813-19-4", "cn_name": "\u516d\u6b63\u4e01\u57fa\u4e8c\u9521", "en_name": ["Bis(tributyltin)", "Distannane, 1,1,1,2,2,2-hexabutyl-", "Distannane, hexabutyl-", "Tin, hexabutyldi-", "1,1,1,2,2,2-Hexabutyldistannane", "Hexabutylditin", "Hexabutyldistannane", "Hexa-n-butyldistannane", "NSC 92633", "Bis(tributyltin)", "Hexa-n-butylditin", "NSC 227367", "NSC 65520", "Tributylditin", "Tributyl(tributylstannyl)stannane"], "SMILES": "[Sn]([Sn](CCCC)(CCCC)CCCC)(CCCC)(CCCC)CCCC", "physical_data": {"Molecular Weight": "580.11", "Molecular Formula": "C24H54Sn2", "Boiling Point": "197-198 \u00b0C @ Press: 1 Torr", "Density": "1.148 g/cm\u00b3"}}