{"cas_no": "813-56-9", "cn_name": "\u4e19\u4e8c\u9178-D4", "en_name": ["Propanedioic-2,2-d2 acid-1,3-d2", "Propanedioic-2,2-d2 acid-1,3-d2", "Malonic-d2 acid-d2", "Propanedioic-d2 acid-d2", "Malonic acid-d4", "Tetradeuteriomalonic acid"], "SMILES": "C(C(O)=O)(C(O)=O)([2H])[2H]", "physical_data": {"Molecular Weight": "", "Molecular Formula": "C3D4O4", "Melting Point": "130-131 \u00b0C"}}