{"cas_no": "81322-67-0", "cn_name": "5-\u6c2f-2-\u7f9f\u57fa-4-\u7532\u57fa\u82ef\u7532\u919b", "en_name": ["3-Chloro-6-hydroxy-2,4-dimethylbenzaldehyde", "Benzaldehyde, 3-chloro-6-hydroxy-2,4-dimethyl-", "Salicylaldehyde, 5-chloro-4,6-dimethyl-", "3-Chloro-6-hydroxy-2,4-dimethylbenzaldehyde", "5-Chloro-2-hydroxy-4,6-dimethylbenzaldehyde"], "SMILES": "C(=O)C1=C(C)C(Cl)=C(C)C=C1O", "physical_data": {"Molecular Weight": "184.62", "Molecular Formula": "C9H9ClO2", "Melting Point": "89-90 \u00b0C"}}