{"cas_no": "81329-90-0", "cn_name": "N-\u7f9f\u4e59\u57fa-3,4-\u4e9a\u7532\u4e8c\u6c27\u57fa\u82ef\u80fa\u76d0\u9178\u76d0", "en_name": ["5-[(2-Hydroxyethyl)amino]-1,3-benzodioxol", "Ethanol, 2-(1,3-benzodioxol-5-ylamino)-", "2-(1,3-Benzodioxol-5-ylamino)ethanol", "4-(2-Hydroxyethylamino)-1,2-methylenedioxybenzene", "4-(2\u2032-Hydroxyethyl)amino-1,2-methylenedioxybenzene", "5-[(2-Hydroxyethyl)amino]-1,3-benzodioxol", "1-(2-Hydroxyethylamino)-3,4-methylenedioxybenzene", "2-[(2H-1,3-Benzodioxol-5-yl)amino]ethan-1-ol"], "SMILES": "N(CCO)C=1C=C2C(=CC1)OCO2", "physical_data": {"Molecular Weight": "181.19", "Molecular Formula": "C9H11NO3", "Melting Point": "53-54 \u00b0C"}}