{"cas_no": "81335-77-5", "cn_name": "\u54aa\u8349\u70df", "en_name": ["Imazethapyr", "3-Pyridinecarboxylic acid, 2-[4,5-dihydro-4-methyl-4-(1-methylethyl)-5-oxo-1H-imidazol-2-yl]-5-ethyl-", "2-[4,5-Dihydro-4-methyl-4-(1-methylethyl)-5-oxo-1H-imidazol-2-yl]-5-ethyl-3-pyridinecarboxylic acid", "AC 263499", "Imazethapyr", "Pursuit", "Pivot", "CL 263499", "(\u00b1)-Imazethapyr", "5-Ethyl-2-(4-isopropyl-4-methyl-5-oxo-2-imidazolin-2-yl) nicotinic acid", "Fabian", "(\u00b1)-5-Ethyl-2-(4-isopropyl-4-methyl-5-oxo-4,5-dihydro-1H-imidazol-2-yl)nicotinic acid", "Pursuit 10"], "SMILES": "C(O)(=O)C1=C(N=CC(CC)=C1)C=2NC(C(C)C)(C)C(=O)N2", "physical_data": {"Molecular Weight": "289.33", "Molecular Formula": "C15H19N3O3", "Melting Point": "172-175 \u00b0C"}}