{"cas_no": "81335-37-7", "cn_name": "\u706d\u8349\u55b9", "en_name": ["Imazaquin", "3-Quinolinecarboxylic acid, 2-[4,5-dihydro-4-methyl-4-(1-methylethyl)-5-oxo-1H-imidazol-2-yl]-", "2-[4,5-Dihydro-4-methyl-4-(1-methylethyl)-5-oxo-1H-imidazol-2-yl]-3-quinolinecarboxylic acid", "AC 252214", "Imazaquin", "Scepter", "Image", "Image (pesticide)", "(\u00b1)-Imazaquin", "2-(4-Isopropyl-4-methyl-5-oxo-2-imidazolin-2-yl)-3-quinolinecarboxylic acid", "Toneup", "2-(4-Isopropyl-4-methyl-5-oxo-4,5-dihydro-1H-imidazol-2-yl)-quinoline-3-carboxylic acid"], "SMILES": "C(O)(=O)C=1C(=NC2=C(C1)C=CC=C2)C=3NC(C(C)C)(C)C(=O)N3", "physical_data": {"Molecular Weight": "311.34", "Molecular Formula": "C17H17N3O3", "Melting Point": "219-222 \u00b0C (decomp)"}}