{"cas_no": "81334-34-1", "cn_name": "\u706d\u8349\u70df", "en_name": ["Imazapyr", "3-Pyridinecarboxylic acid, 2-[4,5-dihydro-4-methyl-4-(1-methylethyl)-5-oxo-1H-imidazol-2-yl]-", "2-[4,5-Dihydro-4-methyl-4-(1-methylethyl)-5-oxo-1H-imidazol-2-yl]-3-pyridinecarboxylic acid", "AC 243997", "Imazapyr", "Chopper", "Arsenal 250A", "(\u00b1)-Imazapyr", "2-(4-Isopropyl-4-methyl-5-oxo-2-imidazolin-2-yl)nicotinic acid", "Charper", "Powerline", "2-(4-Isopropyl-4-methyl-5-oxo-4,5-dihydro-1H-imidazol-2-yl)-nicotinic acid"], "SMILES": "C(O)(=O)C1=C(C=2NC(C(C)C)(C)C(=O)N2)N=CC=C1", "physical_data": {"Molecular Weight": "261.28", "Molecular Formula": "C13H15N3O3", "Melting Point": "171 \u00b0C", "Density": "0.34 g/cm\u00b3"}}