{"cas_no": "814-78-8", "cn_name": "3-\u7532\u57fa-3-\u4e01\u70ef-2-\u916e", "en_name": ["3-Methyl-3-buten-2-one", "3-Buten-2-one, 3-methyl-", "3-Methyl-3-buten-2-one", "Isopropenyl methyl ketone", "2-Methyl-1-buten-3-one", "Methyl isopropenyl ketone", "3-Methylene-2-butanone", "Propen-2-yl methyl ketone", "NSC 24150"], "SMILES": "C(C(C)=O)(C)=C", "physical_data": {"Molecular Weight": "84.12", "Molecular Formula": "C5H8O", "Boiling Point": "98 \u00b0C", "Melting Point": "-54 \u00b0C", "Density": "0.8527 g/cm\u00b3 @ Temp: 20 \u00b0C"}}