{"cas_no": "814-68-6", "cn_name": "\u4e19\u70ef\u9170\u6c2f", "en_name": ["Acryloyl chloride", "2-Propenoyl chloride", "Acryloyl chloride", "Acrylyl chloride", "Acrylic acid chloride", "Propenoyl chloride", "NSC 93770", "A 0147"], "SMILES": "C(C=C)(Cl)=O", "physical_data": {"Molecular Weight": "90.51", "Molecular Formula": "C3H3ClO", "Boiling Point": "75 \u00b0C", "Density": "1.1136 g/cm\u00b3 @ Temp: 20 \u00b0C"}}