{"cas_no": "814-67-5", "cn_name": "1,2-\u4e19\u4e8c\u786b\u9187", "en_name": ["2,3-Dimercaptopropane", "1,2-Propanedithiol", "2,3-Dimercaptopropane", "1,2-Dithiolpropane", "1,2-Dimercaptopropane", "1-Methyl-1,2-ethanedithiol", "NSC 72085"], "SMILES": "C(CS)(C)S", "physical_data": {"Molecular Weight": "108.23", "Molecular Formula": "C3H8S2", "Boiling Point": "152 \u00b0C", "Density": "1.061 g/cm\u00b3 @ Temp: 20 \u00b0C"}}