{"cas_no": "814-29-9", "cn_name": "\u4e09\u6b63\u4e01\u57fa\u6c27\u5316\u78f7", "en_name": ["Tributylphosphine oxide", "Phosphine oxide, tributyl-", "Tributylphosphine oxide", "Butyphos", "Trisbutylphosphine oxide", "TBPO", "NSC 41935", "NSC 65484", "1-Dibutylphosphorylbutane", "1-(Dibutylphosphoryl)butane"], "SMILES": "P(CCCC)(CCCC)(CCCC)=O", "physical_data": {"Molecular Weight": "218.32", "Molecular Formula": "C12H27OP", "Boiling Point": "300 \u00b0C", "Melting Point": "64 \u00b0C", "Density": "0.8480 g/cm\u00b3 @ Temp: 20 \u00b0C"}}