{"cas_no": "814-94-8", "cn_name": "\u8349\u9178\u4e9a\u9521", "en_name": ["Stannous oxalate", "Ethanedioic acid, tin(2+) salt (1:1)", "Oxalic acid, tin(2+) salt (1:1)", "Tin oxalate (SnC2O4)", "Stannous oxalate", "Tin(II) oxalate", "Tin(2+) oxalate", "Fascat 2001", "SV CAT-100"], "SMILES": "C(C(O)=O)(O)=O.[Sn]", "physical_data": {"Molecular Weight": "", "Molecular Formula": "C2H2O4.Sn", "Melting Point": "280 \u00b0C (decomp)", "Density": "3.560 g/cm\u00b3"}}