{"cas_no": "814-49-3", "cn_name": "\u6c2f\u78f7\u9178\u4e8c\u4e59\u916f", "en_name": ["Diethyl chlorophosphate", "Phosphorochloridic acid, diethyl ester", "Ethyl phosphorochloridate", "Diethyl chlorophosphate", "Ethyl phosphorochloridate (EtO)2ClPO", "Ethyl phosphorochloridate (Cl(EtO)2PO)", "Diethoxyphosphorus oxychloride", "Diethyl phosphorochloridate", "Diethylphosphoryl chloride", "O,O-Diethyl chlorophosphate", "O,O-Diethyl chlorophosphonate", "O,O-Diethyl phosphorochloridate", "O,O-Diethylphosphoryl chloride", "Diethyl phosphorochloride", "Chlorodiethoxyphosphine oxide", "Diethylphosphoric acid chloride", "Diethoxyphosphoryl chloride", "O,O-Diethyl chloridophosphate", "Diethyl chlorophosphonate", "Phosphoric acid chloride diethyl ester", "Chlorodiethylphosphate", "Phosphoric acid diethyl ester chloride", "Diethyl phosphoric chloride", "Diethyl phosphochloridate", "NSC 43770", "1-[Chloro(ethoxy)phosphoryl]oxyethane"], "SMILES": "P(OCC)(OCC)(Cl)=O", "physical_data": {"Molecular Weight": "172.55", "Molecular Formula": "C4H10ClO3P", "Boiling Point": "60 \u00b0C @ Press: 2 Torr", "Melting Point": "95-96 \u00b0C", "Density": "1.1915 g/cm\u00b3 @ Temp: 25 \u00b0C"}}