{"cas_no": "814-75-5", "cn_name": "3-\u6eb4-2-\u4e01\u916e", "en_name": ["3-Bromo-2-butanone", "2-Butanone, 3-bromo-", "3-Bromo-2-butanone", "2-Bromo-3-butanone", "\u03b1-Bromoethyl methyl ketone", "1-Bromoethyl methyl ketone", "3-Bromobutanone", "(\u00b1)-\u03b1-Bromoethyl methyl ketone"], "SMILES": "C(C(C)=O)(Br)C", "physical_data": {"Molecular Weight": "151.00", "Molecular Formula": "C4H7BrO", "Boiling Point": "33-34 \u00b0C @ Press: 12 Torr"}}