{"cas_no": "81405-85-8", "cn_name": "\u54aa\u8349\u9178", "en_name": ["Imazamethabenz-methyl", "Benzoic acid, 2-[4,5-dihydro-4-methyl-4-(1-methylethyl)-5-oxo-1H-imidazol-2-yl]-4(or 5)-methyl-, methyl ester", "AC 222293", "Assert", "Assert 300", "Dagger", "Imazamethabenz-methyl", "Dagger G", "Imazamethabenz methyl ester"], "SMILES": "", "physical_data": {"Molecular Weight": "", "Molecular Formula": "C16H20N2O3", "Melting Point": "133 \u00b0C"}}