{"cas_no": "81403-68-1", "cn_name": "\u76d0\u9178\u963f\u592b\u5511\u55ea", "en_name": ["Alfuzosin hydrochloride", "2-Furancarboxamide, N-[3-[(4-amino-6,7-dimethoxy-2-quinazolinyl)methylamino]propyl]tetrahydro-, hydrochloride (1:1)", "2-Furancarboxamide, N-[3-[(4-amino-6,7-dimethoxy-2-quinazolinyl)methylamino]propyl]tetrahydro-, monohydrochloride", "Alfuzosin hydrochloride", "Xatral", "Urion", "SL 77499-10", "Alfoten", "SL 77-499-10", "Uroxatral"], "SMILES": "NC=1C2=C(N=C(N(CCCNC(=O)C3CCCO3)C)N1)C=C(OC)C(OC)=C2.Cl", "physical_data": {"Molecular Weight": "", "Molecular Formula": "C19H27N5O4.ClH", "Melting Point": "225 \u00b0C"}}