{"cas_no": "81409-90-7", "cn_name": "\u5361\u9ea6\u89d2\u6797", "en_name": ["Cabergoline", "Ergoline-8-carboxamide, N-[3-(dimethylamino)propyl]-N-[(ethylamino)carbonyl]-6-(2-propen-1-yl)-, (8\u03b2)-", "Ergoline-8-carboxamide, N-[3-(dimethylamino)propyl]-N-[(ethylamino)carbonyl]-6-(2-propenyl)-, (8\u03b2)-", "(8\u03b2)-N-[3-(Dimethylamino)propyl]-N-[(ethylamino)carbonyl]-6-(2-propen-1-yl)ergoline-8-carboxamide", "Cabergoline", "Sogilen", "Dostinex", "Cabaser", "Galastop", "Cabaseril", "Velactis"], "SMILES": "C(C=C)N1C2C(C=3C=4C(C2)=CNC4C=CC3)CC(C(N(C(NCC)=O)CCCN(C)C)=O)C1", "physical_data": {"Molecular Weight": "451.60", "Molecular Formula": "C26H37N5O2", "Melting Point": "102-104 \u00b0C"}}