{"cas_no": "81403-80-7", "cn_name": "\u963f\u592b\u5511\u55ea", "en_name": ["Alfuzosin", "2-Furancarboxamide, N-[3-[(4-amino-6,7-dimethoxy-2-quinazolinyl)methylamino]propyl]tetrahydro-", "N-[3-[(4-Amino-6,7-dimethoxy-2-quinazolinyl)methylamino]propyl]tetrahydro-2-furancarboxamide", "Alfuzosin", "SL 77499", "N-[3-[N-(4-Amino-6,7-dimethoxyquinazolin-2-yl)-N-(methyl)amino]propyl]tetrahydrofuran-2-carboxamide"], "SMILES": "NC=1C2=C(N=C(N(CCCNC(=O)C3CCCO3)C)N1)C=C(OC)C(OC)=C2", "physical_data": {"Molecular Weight": "389.45", "Molecular Formula": "C19H27N5O4", "Melting Point": "178-180 \u00b0C"}}