{"cas_no": "81406-37-3", "cn_name": "\u6c1f\u8349\u70df 1-\u7532\u57fa\u5e9a\u57fa\u916f", "en_name": ["Attain A", "Acetic acid, 2-[(4-amino-3,5-dichloro-6-fluoro-2-pyridinyl)oxy]-, 1-methylheptyl ester", "Acetic acid, [(4-amino-3,5-dichloro-6-fluoro-2-pyridinyl)oxy]-, 1-methylheptyl ester", "Dowco 433", "Starane 250", "Starane", "Starane 2", "Fluroxypyr 1-methylheptyl ester", "XRM 5084", "Fluroxypyr meptyl", "Tomahawk", "Spotlight", "Spotlight (pyridinoxyacetate herbicide)", "Fluroxypyr meptyl ester", "Attain A", "Starane 250EC", "Trophy A", "Starane Ultra"], "SMILES": "O(CC(OC(CCCCCC)C)=O)C1=C(Cl)C(N)=C(Cl)C(F)=N1", "physical_data": {"Molecular Weight": "367.24", "Molecular Formula": "C15H21Cl2FN2O3", "Melting Point": "59 \u00b0C"}}