{"cas_no": "81422-93-7", "cn_name": "\u6851\u6839\u916eD", "en_name": ["Sanggenon D", "11H-Benzofuro[3,2-b][1]benzopyran-11-one, 2-[6-(2,4-dihydroxybenzoyl)-5-(2,4-dihydroxyphenyl)-3-methyl-2-cyclohexen-1-yl]-5a,10a-dihydro-1,3,5a,8-tetrahydroxy-10a-(3-methyl-2-buten-1-yl)-", "11H-Benzofuro[3,2-b][1]benzopyran-11-one, 2-[6-(2,4-dihydroxybenzoyl)-5-(2,4-dihydroxyphenyl)-3-methyl-2-cyclohexen-1-yl]-5a,10a-dihydro-1,3,5a,8-tetrahydroxy-10a-(3-methyl-2-butenyl)-", "2-[6-(2,4-Dihydroxybenzoyl)-5-(2,4-dihydroxyphenyl)-3-methyl-2-cyclohexen-1-yl]-5a,10a-dihydro-1,3,5a,8-tetrahydroxy-10a-(3-methyl-2-buten-1-yl)-11H-benzofuro[3,2-b][1]benzopyran-11-one", "Sanggenone D", "Sanggenon D", "2-(2-(2,4-Dihydroxybenzoyl)-2\u2032,4\u2032-dihydroxy-5-methyl-1,2,3,6-tetrahydro-[1,1\u2032-biphenyl]-3-yl)-1,3,5a,8-tetrahydroxy-10a-(3-methylbut-2-en-1-yl)-5aH-benzofuro[3,2-b]chromen-11(10aH)-one"], "SMILES": "C(C=C(C)C)C12C(O)(C=3C(O1)=CC(O)=CC3)OC=4C(C2=O)=C(O)C(=C(O)C4)C5C(C(=O)C6=C(O)C=C(O)C=C6)C(CC(C)=C5)C7=C(O)C=C(O)C=C7", "physical_data": {"Molecular Weight": "708.71", "Molecular Formula": "C40H36O12", "Melting Point": "175-185 \u00b0C"}}