{"cas_no": "81445-44-5", "cn_name": "(S)-2-\u82c4\u6c27\u57fa\u4e19\u919b", "en_name": ["(2S)-2-(Phenylmethoxy)propanal", "Propanal, 2-(phenylmethoxy)-, (2S)-", "Propanal, 2-(phenylmethoxy)-, (S)-", "(2S)-2-(Phenylmethoxy)propanal", "(S)-\u03b1-(Benzyloxy)propanal", "(S)-2-(Benzyloxy)propanal", "(S)-2-(Benzyloxy)propionaldehyde", "(-)-(S)-2-(Phenylmethoxy)propanal", "(-)-(S)-2-(Benzyloxy)propanal", "(2S)-2-Benzyloxypropanal", "(2S)-2-(Benzyloxy)propanal", "(2S)-2-Phenylmethoxypropanal"], "SMILES": "C(OC(C=O)C)C1=CC=CC=C1", "physical_data": {"Molecular Weight": "164.20", "Molecular Formula": "C10H12O2", "Melting Point": "97-99 \u00b0C"}}