{"cas_no": "81486-22-8", "cn_name": "\u5c3c\u666e\u5730\u6d1b", "en_name": ["Nipradilol", "2H-1-Benzopyran-3-ol, 3,4-dihydro-8-[2-hydroxy-3-[(1-methylethyl)amino]propoxy]-, 3-nitrate", "K 351", "Nipradilol", "Hypadil", "KT 210", "Nipradolol"], "SMILES": "O(CC(CNC(C)C)O)C1=C2C(CC(ON(=O)=O)CO2)=CC=C1", "physical_data": {"Molecular Weight": "326.35", "Molecular Formula": "C15H22N2O6", "Melting Point": "107-116 \u00b0C"}}