{"cas_no": "815-57-6", "cn_name": "3-\u7532\u57fa-2,4-\u620a\u4e8c\u916e", "en_name": ["3-Methyl-2,4-pentanedione", "2,4-Pentanedione, 3-methyl-", "3-Methyl-2,4-pentanedione", "3-Methylacetylacetone", "3-Methylacetoacetone", "NSC 100644", "NSC 100645", "NSC 15756", "3-Methylpentan-2,4-dione"], "SMILES": "C(C(C)=O)(C(C)=O)C", "physical_data": {"Molecular Weight": "114.14", "Molecular Formula": "C6H10O2", "Boiling Point": "60-65 \u00b0C @ Press: 13 Torr", "Density": "0.9769 g/cm\u00b3 @ Temp: 19.4 \u00b0C"}}