{"cas_no": "815-06-5", "cn_name": "N-\u7532\u57fa-2,2,2-\u4e09\u6c1f\u4e59\u9170\u80fa", "en_name": ["N-Methyltrifluoroacetamide", "Acetamide, 2,2,2-trifluoro-N-methyl-", "2,2,2-Trifluoro-N-methylacetamide", "N-Methyltrifluoroacetamide"], "SMILES": "C(C(F)(F)F)(NC)=O", "physical_data": {"Molecular Weight": "127.07", "Molecular Formula": "C3H4F3NO", "Boiling Point": "156-157 \u00b0C", "Melting Point": "50-51 \u00b0C"}}