{"cas_no": "815-24-7", "cn_name": "2,2,4,4-\u56db\u7532\u57fa-3-\u620a\u916e", "en_name": ["Di-tert-butyl ketone", "3-Pentanone, 2,2,4,4-tetramethyl-", "2,2,4,4-Tetramethyl-3-pentanone", "Pivalone", "Di-tert-butyl ketone", "Hexamethylacetone", "2,2,4,4-Tetramethylpentanone", "NSC 848"], "SMILES": "C(C(C)(C)C)(C(C)(C)C)=O", "physical_data": {"Molecular Weight": "142.24", "Molecular Formula": "C9H18O", "Boiling Point": "152 \u00b0C", "Melting Point": "-25.2 \u00b0C", "Density": "0.8776 g/cm\u00b3 @ Temp: 20 \u00b0C"}}