{"cas_no": "815-17-8", "cn_name": "\u4e09\u7532\u57fa\u4e19\u916e\u9178", "en_name": ["3,3-Dimethyl-2-oxobutanoic acid", "Butanoic acid, 3,3-dimethyl-2-oxo-", "Butyric acid, 3,3-dimethyl-2-oxo-", "Butyric acid, \u03b2,\u03b2-dimethyl-\u03b1-oxo-", "3,3-Dimethyl-2-oxobutanoic acid", "tert-Butylglyoxylic acid", "Trimethylpyruvic acid", "3,3-Dimethyl-2-oxobutyric acid", "2-Oxo-3,3-dimethylbutanoic acid", "Trimethylpyroracemic acid", "NSC 16648"], "SMILES": "C(C(C)(C)C)(C(O)=O)=O", "physical_data": {"Molecular Weight": "130.14", "Molecular Formula": "C6H10O3", "Boiling Point": "189 \u00b0C", "Melting Point": "90.5 \u00b0C"}}