{"cas_no": "81565-19-7", "cn_name": "4-\u6c2f-3-(\u4e09\u6c1f\u7532\u57fa)\u5421\u5576", "en_name": ["3-Chloro-4-(trifluoromethyl)pyridine", "Pyridine, 3-chloro-4-(trifluoromethyl)-", "3-Chloro-4-(trifluoromethyl)pyridine"], "SMILES": "C(F)(F)(F)C=1C(Cl)=CN=CC1", "physical_data": {"Molecular Weight": "181.54", "Molecular Formula": "C6H3ClF3N", "Boiling Point": "142-144 \u00b0C", "Melting Point": "-23--20 \u00b0C", "Density": "1.407 g/cm\u00b3 @ Temp: 20 \u00b0C"}}