{"cas_no": "81569-25-7", "cn_name": "2-\u6c28\u57fa-5-\u5f02\u4e19\u57fa-1,3-\u567b\u5511-4-\u7fa7\u9178\u7532\u57fa\u916f", "en_name": ["4-Thiazolecarboxylic acid, 2-amino-5-(1-methylethyl)-, methyl ester", "4-Thiazolecarboxylic acid, 2-amino-5-(1-methylethyl)-, methyl ester", "Methyl 2-amino-5-isopropyl-1,3-thiazole-4-carboxylate", "Methyl 2-amino-5-isopropylthiazole-4-carboxylate", "Methyl 2-amino-5-(1-methylethyl)thiazole-4-carboxylate"], "SMILES": "C(OC)(=O)C1=C(C(C)C)SC(N)=N1", "physical_data": {"Molecular Weight": "200.26", "Molecular Formula": "C8H12N2O2S", "Melting Point": "151-152 \u00b0C"}}