{"cas_no": "81569-46-2", "cn_name": "2-\u6eb4-5-\u4e59\u57fa\u567b\u5511-4-\u7fa7\u9178\u7532\u916f", "en_name": ["4-Thiazolecarboxylic acid, 2-bromo-5-ethyl-, methyl ester", "4-Thiazolecarboxylic acid, 2-bromo-5-ethyl-, methyl ester", "Methyl 2-bromo-5-ethylthiazole-4-carboxylate"], "SMILES": "C(OC)(=O)C1=C(CC)SC(Br)=N1", "physical_data": {"Molecular Weight": "250.11", "Molecular Formula": "C7H8BrNO2S", "Boiling Point": "98-100 \u00b0C @ Press: 0.25 Torr"}}