{"cas_no": "816-40-0", "cn_name": "\u6eb4\u4e01\u916e", "en_name": ["1-Bromo-2-butanone", "2-Butanone, 1-bromo-", "1-Bromo-2-butanone", "Bromomethyl ethyl ketone", "2-Oxobutyl bromide"], "SMILES": "C(CBr)(CC)=O", "physical_data": {"Molecular Weight": "151.00", "Molecular Formula": "C4H7BrO", "Boiling Point": "49-50 \u00b0C @ Press: 12 Torr"}}