{"cas_no": "816-66-0", "cn_name": "4-\u7532\u57fa-2-\u6c27\u4ee3\u620a\u9178", "en_name": ["4-Methyl-2-oxovaleric acid", "Pentanoic acid, 4-methyl-2-oxo-", "Valeric acid, 4-methyl-2-oxo-", "4-Methyl-2-oxopentanoic acid", "\u03b1-Ketoisocaproic acid", "\u03b1-Oxoisocaproic acid", "2-Oxoisocaproic acid", "2-Oxoleucine", "2-Oxo-4-methylvaleric acid", "2-Ketoisocaproic acid", "2-Oxo-4-methylpentanoic acid", "4-Methyl-2-oxovaleric acid", "4-Methyl-2-oxopentanoate", "Ketoleucine", "\u03b1-Ketoisocapronic acid", "2-keto-4-Methylvaleric acid", "Isobutylglyoxylic acid", "Ketoisocaproic acid"], "SMILES": "C(CC(C)C)(C(O)=O)=O", "physical_data": {"Molecular Weight": "130.14", "Molecular Formula": "C6H10O3", "Boiling Point": "105-107 \u00b0C @ Press: 22 Torr", "Melting Point": "6-9 \u00b0C", "Density": "1.0312 g/cm\u00b3 @ Temp: 20 \u00b0C"}}