{"cas_no": "816-39-7", "cn_name": "1,3-\u4e8c\u6eb4\u4e19\u916e", "en_name": ["1,3-Dibromo-2-propanone", "2-Propanone, 1,3-dibromo-", "1,3-Dibromo-2-propanone", "1,3-Dibromoacetone", "Bis(bromomethyl) ketone", "NSC 249810"], "SMILES": "C(CBr)(CBr)=O", "physical_data": {"Molecular Weight": "215.87", "Molecular Formula": "C3H4Br2O", "Boiling Point": "97-98 \u00b0C @ Press: 21-22 Torr", "Melting Point": "26 \u00b0C"}}