{"cas_no": "816-79-5", "cn_name": "3-\u4e59\u57fa-2-\u620a\u70ef", "en_name": ["3-Ethyl-2-pentene", "2-Pentene, 3-ethyl-", "3-Ethyl-2-pentene", "NSC 74144"], "SMILES": "C(CC)(CC)=CC", "physical_data": {"Molecular Weight": "98.19", "Molecular Formula": "C7H14", "Boiling Point": "96 \u00b0C", "Density": "0.7191 g/cm\u00b3 @ Temp: 24.45 \u00b0C"}}