{"cas_no": "816-94-4", "cn_name": "\u4e8c\u786c\u8102\u9170\u78f7\u8102\u9170\u80c6\u78b1", "en_name": ["1,2-Distearoyl-sn-glycero-3-phosphocholine", "3,5,9-Trioxa-4-phosphaheptacosan-1-aminium, 4-hydroxy-N,N,N-trimethyl-10-oxo-7-[(1-oxooctadecyl)oxy]-, inner salt, 4-oxide, (7R)-", "Choline, hydroxide, dihydrogen phosphate, inner salt, ester with 1,2-distearin, L-", "3,5,9-Trioxa-4-phosphaheptacosan-1-aminium, 4-hydroxy-N,N,N-trimethyl-10-oxo-7-[(1-oxooctadecyl)oxy]-, hydroxide, inner salt, 4-oxide, (R)-", "Choline phosphate, 3-ester with L-1,2-distearin", "Distearoyl-L-\u03b1-lecithin", "1,2-Distearoyl-sn-glycero-3-phosphorylcholine", "Dioctadecanoyl-L-\u03b1-glycerophosphorylcholine", "L-\u03b1-Distearoylphosphatidylcholine", "1,2-L-\u03b1-Distearoylphosphatidylcholine", "\u03b2,\u03b3-Distearoyl L-\u03b1-phosphatidylcholine", "1,2-Distearoyl-sn-glycero-3-phosphocholine", "1,2-Distearoyl-L-\u03b1-glycerophosphocholine", "1,2-Distearoyl-3-sn-phosphatidylcholine", "L-\u03b2,\u03b3-Distearoyl-\u03b1-lecithin", "Distearoyl-L-\u03b1-phosphatidylcholine", "L-Distearoyllecithin", "Distearoyl-L-\u03b1-glycerophosphocholine", "L-\u03b2,\u03b3-Distearoyl-\u03b1-phosphatidylcholine", "Distearoyl sn-3-phosphatidylcholine", "1,2-Distearoyl-sn-3-phosphocholine", "1,2-Distearoyl-sn-glycerophosphocholine", "DSPC", "1,2-Distearoyl-sn-glycero-3-phosphocholine", "1,2-Bis(stearoyl)-sn-glycero-3-phosphocholine", "3,5,9-Trioxa-4-phosphaheptacosan-1-aminium, 4-hydroxy-N,N,N-trimethyl-10-oxo-7-[(1-oxooctadecyl)oxy]-, inner salt, 4-oxide, (R)-", "Distearoylphosphatidylcholine", "1,2-Dioctadecanoyl-sn-glycero-3-phosphocholine", "Distearoyl-sn-glycero-3-phosphocholine", "Coatsome MC 8080", "1,2-Distearoyl-sn-glycero-3-phosphatidylcholine", "1,2-Dioctadecanoyl-sn-glycero-3-phosphocholine", "1,2-Distearoyl-sn-glycero-3-phosphocholine", "L-DSPC", "[(2R)-2,3-Di(octadecanoyloxy)propyl] 2-(trimethylazaniumyl)ethyl phosphate", "1,2-Distearoyl-sn-glycero-3-phosphoinositol, ammonium salt", "1,2-Distearoyl-sn-glycero-3-phosphatidylcholine"], "SMILES": "C(OC(CCCCCCCCCCCCCCCCC)=O)(COP(OCC[N+](C)(C)C)(=O)[O-])COC(CCCCCCCCCCCCCCCCC)=O", "physical_data": {"Molecular Weight": "", "Molecular Formula": "C44H88NO8P", "Melting Point": "230.5-231.5 \u00b0C"}}