{"cas_no": "81633-29-6", "cn_name": "2-\u6c28\u57fa-4-\u7532\u57fa\u5627\u5576-5-\u7fa7\u9178\u4e59\u916f", "en_name": ["5-Pyrimidinecarboxylic acid, 2-amino-4-methyl-, ethyl ester", "5-Pyrimidinecarboxylic acid, 2-amino-4-methyl-, ethyl ester", "2-Amino-4-methylpyrimidine-5-carboxylic acid ethyl ester", "Ethyl 2-amino-4-methylpyrimidine-5-carboxylate"], "SMILES": "C(OCC)(=O)C=1C(C)=NC(N)=NC1", "physical_data": {"Molecular Weight": "181.19", "Molecular Formula": "C8H11N3O2", "Melting Point": "222 \u00b0C"}}