{"cas_no": "81655-41-6", "cn_name": "(\u00b1)-\u03b1-\u7532\u6c27\u57fa-\u03b1-(\u4e09\u6c1f\u7532\u57fa)\u82ef\u4e59\u9178", "en_name": ["\u03b1-Methoxy-\u03b1-trifluoromethylphenylacetic acid", "Benzeneacetic acid, \u03b1-methoxy-\u03b1-(trifluoromethyl)-", "Benzeneacetic acid, \u03b1-methoxy-\u03b1-(trifluoromethyl)-, (\u00b1)-", "\u03b1-Methoxy-\u03b1-(trifluoromethyl)benzeneacetic acid", "Mosher's acid", "(\u00b1)-\u03b1-Methoxy-\u03b1-(trifluoromethyl)benzeneacetic acid", "DL-\u03b1-Methoxy-\u03b1-(trifluoromethyl)phenylacetic acid", "(\u00b1)-\u03b1-Methoxy-\u03b1-(trifluoromethyl)phenylacetic acid", "2-Methoxy-2-(trifluoromethyl)phenylacetic acid", "\u03b1-Methoxy-\u03b1-trifluoromethylphenylacetic acid", "(\u00b1)-Mosher's acid", "MTPA", "3,3,3-Trifluoro-2-methoxy-2-phenylpropanoic acid", "(RS)-2-Methoxy-2-phenyl-3,3,3,-trifluoropropanoic acid"], "SMILES": "C(C(F)(F)F)(C(O)=O)(OC)C1=CC=CC=C1", "physical_data": {"Molecular Weight": "234.17", "Molecular Formula": "C10H9F3O3", "Melting Point": "44-45 \u00b0C"}}