{"cas_no": "817-95-8", "cn_name": "2-\u4e59\u6c27\u57fa\u4e59\u9178\u4e59\u916f", "en_name": ["Ethyl ethoxyacetate", "Acetic acid, 2-ethoxy-, ethyl ester", "Acetic acid, ethoxy-, ethyl ester", "Ethoxyacetic acid ethyl ester", "Ethyl ethoxyacetate", "\u03b1-Ethoxyacetic acid ethyl ester", "NSC 83555", "2-Ethoxyaceticacid ethylester"], "SMILES": "C(COCC)(OCC)=O", "physical_data": {"Molecular Weight": "132.16", "Molecular Formula": "C6H12O3", "Boiling Point": "158 \u00b0C", "Density": "0.9754 g/cm\u00b3"}}