{"cas_no": "817-09-4", "cn_name": "\u4e09(2-\u6c2f\u4e59\u57fa)\u80fa\u76d0\u9178\u76d0", "en_name": ["Tris(2-chloroethyl)amine hydrochloride", "Ethanamine, 2-chloro-N,N-bis(2-chloroethyl)-, hydrochloride (1:1)", "Triethylamine, 2,2\u2032,2\u2032\u2032-trichloro-, hydrochloride", "Ethanamine, 2-chloro-N,N-bis(2-chloroethyl)-, hydrochloride", "Sinalost", "Tri(\u03b2-chloroethyl)amine hydrochloride", "2,2\u2032,2\u2032\u2032-Trichlorotriethylamine hydrochloride", "Trimitan", "Tris(2-chloroethyl)amine hydrochloride", "Tris(\u03b2-chloroethyl)amine hydrochloride", "2-Chloro-N,N-bis(2-chloroethyl)ethanammonium chloride", "R 47", "Trichlormethin", "Trillekamin", "Trimustine", "NSC 30211", "Tri(2-chloroethyl)amine hydrochloride"], "SMILES": "N(CCCl)(CCCl)CCCl.Cl", "physical_data": {"Molecular Weight": "", "Molecular Formula": "C6H12Cl3N.ClH", "Melting Point": "130-131 \u00b0C"}}