{"cas_no": "817204-33-4", "cn_name": "2'-\u53bb\u6c27-2'-\u6c1f-2'-C-\u7532\u57fa\u80de\u82f7", "en_name": ["2\u2032-Deoxy-2\u2032-fluoro-2\u2032-C-methylcytidine", "Cytidine, 2\u2032-deoxy-2\u2032-fluoro-2\u2032-methyl-, (2\u2032R)-", "(2\u2032R)-2\u2032-Deoxy-2\u2032-fluoro-2\u2032-methylcytidine", "PSI 6130", "R 1656", "2\u2032-Deoxy-2\u2032-fluoro-2\u2032-C-methylcytidine", "2\u2032-Deoxy-2\u2032-fluoro-2\u2032-C-methylcytidine"], "SMILES": "CC1(F)C(OC(CO)C1O)N2C(=O)N=C(N)C=C2", "physical_data": {"Molecular Weight": "259.23", "Molecular Formula": "C10H14FN3O4", "Melting Point": "216.4-218.0 \u00b0C"}}