{"cas_no": "817204-32-3", "cn_name": "PSI 6206\u4e2d\u95f4\u4f53", "en_name": ["Cytidine, N-benzoyl-2\u2032-deoxy-2\u2032-fluoro-2\u2032-methyl-, 3\u2032,5\u2032-dibenzoate, (2\u2032R)-", "Cytidine, N-benzoyl-2\u2032-deoxy-2\u2032-fluoro-2\u2032-methyl-, 3\u2032,5\u2032-dibenzoate, (2\u2032R)-"], "SMILES": "CC1(F)C(OC(COC(=O)C2=CC=CC=C2)C1OC(=O)C3=CC=CC=C3)N4C(=O)N=C(NC(=O)C5=CC=CC=C5)C=C4", "physical_data": {"Molecular Weight": "571.55", "Molecular Formula": "C31H26FN3O7", "Melting Point": "241 \u00b0C"}}