{"cas_no": "81721-87-1", "cn_name": "6-\u785d\u57fa-2H-1 4-\u82ef\u5e76\u6076\u55ea-3(4H)-\u916e", "en_name": ["6-Nitro-4H-benzo[1,4]oxazin-3-one", "2H-1,4-Benzoxazin-3(4H)-one, 6-nitro-", "6-Nitro-2H-1,4-benzoxazin-3(4H)-one", "6-Nitro-4H-benzo[1,4]oxazin-3-one", "6-Nitro-2H-benzo[b][1,4]oxazin-3(4H)-one"], "SMILES": "N(=O)(=O)C=1C=C2C(=CC1)OCC(=O)N2", "physical_data": {"Molecular Weight": "194.14", "Molecular Formula": "C8H6N2O4", "Melting Point": "96-98 \u00b0C"}}