{"cas_no": "81732-48-1", "cn_name": "\u73ed\u5e03\u7279\u7f57\u6742\u8d28 5", "en_name": ["C,C\u2032-(5-Acetyl-1,3-phenylene) bis(N,N-dimethylcarbamate)", "Carbamic acid, N,N-dimethyl-, C,C\u2032-(5-acetyl-1,3-phenylene) ester", "Carbamic acid, dimethyl-, 5-acetyl-1,3-phenylene ester", "C,C\u2032-(5-Acetyl-1,3-phenylene) bis(N,N-dimethylcarbamate)"], "SMILES": "O(C(N(C)C)=O)C1=CC(OC(N(C)C)=O)=CC(C(C)=O)=C1", "physical_data": {"Molecular Weight": "294.30", "Molecular Formula": "C14H18N2O5", "Melting Point": "58-60 \u00b0C"}}