{"cas_no": "81740-18-3", "cn_name": "1-N-BOC-3-\u6c1f\u82ef\u80fa", "en_name": ["1,1-Dimethylethyl N-(3-fluorophenyl)carbamate", "Carbamic acid, N-(3-fluorophenyl)-, 1,1-dimethylethyl ester", "Carbamic acid, (3-fluorophenyl)-, 1,1-dimethylethyl ester", "1,1-Dimethylethyl N-(3-fluorophenyl)carbamate", "Tert-Butyl 3-fluorophenylcarbamate", "N-Boc-3-fluoroaniline", "1-N-Boc-3-fluoro-aniline"], "SMILES": "N(C(OC(C)(C)C)=O)C1=CC(F)=CC=C1", "physical_data": {"Molecular Weight": "211.23", "Molecular Formula": "C11H14FNO2", "Melting Point": "122-125 \u00b0C"}}