{"cas_no": "81777-89-1", "cn_name": "\u5f02\u6076\u8349\u916e", "en_name": ["Clomazone", "3-Isoxazolidinone, 2-[(2-chlorophenyl)methyl]-4,4-dimethyl-", "2-[(2-Chlorophenyl)methyl]-4,4-dimethyl-3-isoxazolidinone", "Dimethazone", "FMC 57020", "Clomazone", "Command", "Command EC", "Command (pesticide)", "Command 3ME", "Cirrus 50WP", "Cirrus", "F 57020", "Gamit", "Centium 360CS", "Isooxadiazon", "Command 480 EC", "2-(2-Chlorobenzyl)-4,4-dimethylisoxazolidin-3-one"], "SMILES": "C(N1C(=O)C(C)(C)CO1)C2=C(Cl)C=CC=C2", "physical_data": {"Molecular Weight": "239.70", "Molecular Formula": "C12H14ClNO2", "Boiling Point": "275 \u00b0C", "Melting Point": "25 \u00b0C"}}