{"cas_no": "818-81-5", "cn_name": "2-\u7532\u57fa\u8f9b-1-\u9187", "en_name": ["2-Methyloctanol", "1-Octanol, 2-methyl-", "2-Methyl-1-octanol", "1-Hydroxy-2-methyloctane", "2-Methyloctanol"], "SMILES": "C(CCCCCC)(CO)C", "physical_data": {"Molecular Weight": "144.25", "Molecular Formula": "C9H20O", "Boiling Point": "100 \u00b0C @ Press: 15 Torr"}}