{"cas_no": "818-61-1", "cn_name": "\u4e19\u70ef\u9178\u7f9f\u4e59\u916f", "en_name": ["2-Hydroxyethyl acrylate", "2-Propenoic acid, 2-hydroxyethyl ester", "Acrylic acid, 2-hydroxyethyl ester", "\u03b2-Hydroxyethyl acrylate", "2-Hydroxyethyl acrylate", "Ethylene glycol monoacrylate", "2-(Acryloyloxy)ethanol", "Bisomer 2HEA", "Rocryl 420", "Light Ester HOA", "Viscoat 220", "Light Ester OA", "Perm A (monomer)", "Perm A", "HEA", "AHEC-T", "Acryics HEA", "2-Hydroxyethyl 2-propenoate", "2HEA", "Light Acrylate HOA", "BHEA", "HOA", "Light Ester HOA-N", "2-Hydroxyethyl ester propenoic acid", "2-Hydroxyethyl pro-2-enoate", "HEA 98", "BEM 120", "Acrycs HEA"], "SMILES": "C(OCCO)(C=C)=O", "physical_data": {"Molecular Weight": "116.12", "Molecular Formula": "C5H8O3", "Boiling Point": "220 \u00b0C", "Density": "1.011 g/cm\u00b3"}}