{"cas_no": "818-44-0", "cn_name": "\u8f9b\u9178\u4e59\u70ef\u916f", "en_name": ["Vinyl octanoate", "Octanoic acid, ethenyl ester", "Octanoic acid, vinyl ester", "Vinyl caprylate", "Caprylic acid, vinyl ester", "Vinyl octanoate", "Vinyl n-octanoate", "NSC 32643"], "SMILES": "C(CCCCCCC)(OC=C)=O", "physical_data": {"Molecular Weight": "170.25", "Molecular Formula": "C10H18O2", "Boiling Point": "94 \u00b0C", "Density": "0.8889 g/cm\u00b3 @ Temp: 20 \u00b0C"}}