{"cas_no": "818-88-2", "cn_name": "\u7678\u4e8c\u9178\u5355\u7532\u916f", "en_name": ["Monomethyl sebacate", "Decanedioic acid, 1-methyl ester", "Sebacic acid, monomethyl ester", "Decanedioic acid, monomethyl ester", "Sebacic acid, methyl ester", "Decanedioic acid methyl hydrogen ester", "Monomethyl sebacate", "9-(Carbomethoxy)nonanoic acid", "Monomethyl decanedioate", "Methyl hydrogen sebacate", "Methyl 9-carboxynonanoate", "9-(Methoxycarbonyl)nonanoic acid", "10-Methoxy-10-oxodecanoic acid"], "SMILES": "C(CCCCCCCCC(O)=O)(OC)=O", "physical_data": {"Molecular Weight": "216.27", "Molecular Formula": "C11H20O4", "Boiling Point": "150 \u00b0C @ Press: 0.8 Torr", "Melting Point": "35-40 \u00b0C"}}