{"cas_no": "818-57-5", "cn_name": "4-\u620a\u70ef\u9178\u7532\u916f", "en_name": ["Methyl 4-pentenoate", "4-Pentenoic acid, methyl ester", "Methyl 4-pentenoate", "Methyl allylacetate", "Allylacetic acid methyl ester"], "SMILES": "C(CCC=C)(OC)=O", "physical_data": {"Molecular Weight": "114.14", "Molecular Formula": "C6H10O2", "Boiling Point": "125-126 \u00b0C"}}