{"cas_no": "818-23-5", "cn_name": "8-\u5341\u4e94\u70f7\u916e", "en_name": ["Diheptyl ketone", "8-Pentadecanone", "Diheptyl ketone", "Heptyl ketone", "Caprylone", "NSC 595"], "SMILES": "C(CCCCCCC)(CCCCCCC)=O", "physical_data": {"Molecular Weight": "226.40", "Molecular Formula": "C15H30O", "Boiling Point": "291 \u00b0C", "Melting Point": "43 \u00b0C"}}