{"cas_no": "818-38-2", "cn_name": "\u620a\u4e8c\u9178\u4e8c\u4e59\u916f", "en_name": ["Diethyl glutarate", "Pentanedioic acid, 1,5-diethyl ester", "Glutaric acid, diethyl ester", "Pentanedioic acid, diethyl ester", "Diethyl glutarate", "Ethyl glutarate", "Diethyl pentanedioate", "NSC 8890"], "SMILES": "C(CCCC(OCC)=O)(OCC)=O", "physical_data": {"Molecular Weight": "188.22", "Molecular Formula": "C9H16O4", "Boiling Point": "236.5 \u00b0C", "Melting Point": "-24.1 \u00b0C", "Density": "1.02704 g/cm\u00b3 @ Temp: 15 \u00b0C"}}