{"cas_no": "818-08-6", "cn_name": "\u4e8c\u4e01\u57fa\u6c27\u5316\u9521", "en_name": ["Dibutyltin oxide", "Stannane, dibutyloxo-", "Dibutyltin oxide", "Dibutyloxostannane", "Di-n-butyltin oxide", "Dibutylstannane oxide", "Dibutyloxotin", "Fascat 4201", "Tegokat 248", "Neostann U 300", "Fomrez SUL 11A", "U 300", "NSC 28130", "Cotin 100", "Stann BO", "Eurecat 9555", "Eurecat 9560", "MSCAT 02", "FC 4201", "Di-n-butyltin(II) oxide", "MSCAT 01", "Fomrez SUL 11B", "ZT 4201", "Tin dibutyl oxide", "Fomrez SUL 11C", "Axion CS 2455"], "SMILES": "[Sn](CCCC)(CCCC)=O", "physical_data": {"Molecular Weight": "248.94", "Molecular Formula": "C8H18OSn", "Melting Point": "&gt;150 \u00b0C (decomp)", "Density": "1.6 g/cm\u00b3"}}