{"cas_no": "818-59-7", "cn_name": "2-\u620a\u70ef\u9178\u7532\u916f", "en_name": ["Methyl 2-pentenoate", "2-Pentenoic acid, methyl ester", "Methyl 2-pentenoate"], "SMILES": "C(C=CCC)(OC)=O", "physical_data": {"Molecular Weight": "114.14", "Molecular Formula": "C6H10O2", "Boiling Point": "144-145 \u00b0C"}}