{"cas_no": "818-72-4", "cn_name": "1-\u8f9b\u7094-3-\u9187", "en_name": ["1-Octyn-3-ol", "1-Octyn-3-ol", "3-Hydroxyoct-1-yne", "(\u00b1)-1-Octyn-3-ol", "(RS)-1-Octyn-3-ol", "1-Ethynyl-1-hexanol"], "SMILES": "C(CCCCC)(C#C)O", "physical_data": {"Molecular Weight": "126.20", "Molecular Formula": "C8H14O", "Boiling Point": "44-47 \u00b0C @ Press: 1 Torr"}}