{"cas_no": "81810-66-4", "cn_name": "\u55b9\u70ef\u916e", "en_name": ["Quinocetone", "2-Propen-1-one, 1-(3-methyl-1,4-dioxido-2-quinoxalinyl)-3-phenyl-", "2-Propen-1-one, 1-(3-methyl-2-quinoxalinyl)-3-phenyl-, N,N\u2032-dioxide", "1-(3-Methyl-1,4-dioxido-2-quinoxalinyl)-3-phenyl-2-propen-1-one", "NSC 621477", "Quinocetone"], "SMILES": "O=N=1C2=C(N(=O)=C(C)C1C(C=CC3=CC=CC=C3)=O)C=CC=C2", "physical_data": {"Molecular Weight": "306.32", "Molecular Formula": "C18H14N2O3", "Melting Point": "187-188 \u00b0C"}}