{"cas_no": "81840-15-5", "cn_name": "\u7ef4\u53f8\u529b\u519c", "en_name": ["Vesnarinone", "2(1H)-Quinolinone, 6-[4-(3,4-dimethoxybenzoyl)-1-piperazinyl]-3,4-dihydro-", "Piperazine, 1-(3,4-dimethoxybenzoyl)-4-(1,2,3,4-tetrahydro-2-oxo-6-quinolinyl)-", "6-[4-(3,4-Dimethoxybenzoyl)-1-piperazinyl]-3,4-dihydro-2(1H)-quinolinone", "OPC 8212", "Vesnarinone", "Arkin", "Pieranometazine"], "SMILES": "C(=O)(N1CCN(C=2C=C3C(=CC2)NC(=O)CC3)CC1)C4=CC(OC)=C(OC)C=C4", "physical_data": {"Molecular Weight": "395.45", "Molecular Formula": "C22H25N3O4", "Melting Point": "238.1-239.5 \u00b0C"}}