{"cas_no": "81846-19-7", "cn_name": "\u66f2\u524d\u5217\u5c3c\u5c14", "en_name": ["Treprostinil", "Acetic acid, 2-[[(1R,2R,3aS,9aS)-2,3,3a,4,9,9a-hexahydro-2-hydroxy-1-[(3S)-3-hydroxyoctyl]-1H-benz[f]inden-5-yl]oxy]-", "Acetic acid, [[2,3,3a,4,9,9a-hexahydro-2-hydroxy-1-(3-hydroxyoctyl)-1H-benz[f]inden-5-yl]oxy]-, [1R-[1\u03b1(S*),2\u03b2,3a\u03b1,9a\u03b1]]-", "Acetic acid, [[(1R,2R,3aS,9aS)-2,3,3a,4,9,9a-hexahydro-2-hydroxy-1-[(3S)-3-hydroxyoctyl]-1H-benz[f]inden-5-yl]oxy]-", "1H-Benz[f]indene, acetic acid deriv.", "2-[[(1R,2R,3aS,9aS)-2,3,3a,4,9,9a-Hexahydro-2-hydroxy-1-[(3S)-3-hydroxyoctyl]-1H-benz[f]inden-5-yl]oxy]acetic acid", "U 62840", "15AU81", "LRX 15", "Treprostinil", "Uniprost", "BW 15AU", "Rumodolin", "2-[[(1R,2R,3aS,9aS)-2-Hydroxy-1-((S)-3-hydroxyoctyl)-2,3,3a,4,9,9a-hexahydro-1H-cyclopenta[b]naphthalen-5-yl]oxy]acetic acid", "Trevyent"], "SMILES": "C(CC(CCCCC)O)C1C2C(CC=3C(C2)=CC=CC3OCC(O)=O)CC1O", "physical_data": {"Molecular Weight": "390.51", "Molecular Formula": "C23H34O5", "Melting Point": "126-127 \u00b0C"}}