{"cas_no": "81872-10-8", "cn_name": "1-\u8418\u4e59\u9178", "en_name": ["Zofenopril", "L-Proline, 1-[(2S)-3-(benzoylthio)-2-methyl-1-oxopropyl]-4-(phenylthio)-, (4S)-", "L-Proline, 1-[3-(benzoylthio)-2-methyl-1-oxopropyl]-4-(phenylthio)-, [1(R*),2\u03b1,4\u03b1]-", "(4S)-1-[(2S)-3-(Benzoylthio)-2-methyl-1-oxopropyl]-4-(phenylthio)-L-proline", "Zofenopril"], "SMILES": "C(C(CSC(=O)C1=CC=CC=C1)C)(=O)N2C(C(O)=O)CC(SC3=CC=CC=C3)C2", "physical_data": {"Molecular Weight": "429.55", "Molecular Formula": "C22H23NO4S2", "Melting Point": "42-47 \u00b0C"}}