{"cas_no": "819-97-6", "cn_name": "\u4e01\u9178\u4ef2\u4e01\u916f", "en_name": ["sec-Butyl butyrate", "Butanoic acid, 1-methylpropyl ester", "Butyric acid, sec-butyl ester", "sec-Butyl butyrate", "sec-Butyl butanoate", "1-Methylpropyl butyrate", "1-Methylpropyl butanoate"], "SMILES": "O(C(CCC)=O)C(CC)C", "physical_data": {"Molecular Weight": "144.21", "Molecular Formula": "C8H16O2", "Boiling Point": "151.5 \u00b0C @ Press: 747 Torr", "Density": "0.8572 g/cm\u00b3 @ Temp: 16 \u00b0C"}}