{"cas_no": "819-79-4", "cn_name": "\u76d0\u9178\u4e8c\u5f02\u4e19\u80fa", "en_name": ["2-Propanamine, N-(1-methylethyl)-, hydrochloride (1:1)", "2-Propanamine, N-(1-methylethyl)-, hydrochloride (1:1)", "Diisopropylamine, hydrochloride", "2-Propanamine, N-(1-methylethyl)-, hydrochloride", "Diethylamine, dimethyl-, hydrochloride", "Diisopropylammonium chloride", "Bis(isopropyl)ammonium chloride"], "SMILES": "N(C(C)C)C(C)C.Cl", "physical_data": {"Molecular Weight": "", "Molecular Formula": "C6H15N.ClH", "Melting Point": "210.5-213 \u00b0C"}}