{"cas_no": "81907-62-2", "cn_name": "\u7075\u829d\u9178A", "en_name": ["Ganoderic acid A", "Lanost-8-en-26-oic acid, 7,15-dihydroxy-3,11,23-trioxo-, (7\u03b2,15\u03b1,25R)-", "(7\u03b2,15\u03b1,25R)-7,15-Dihydroxy-3,11,23-trioxolanost-8-en-26-oic acid", "Ganoderic acid A"], "SMILES": "CC12C3=C(C4(C)C(CC3O)C(C)(C)C(=O)CC4)C(=O)CC1(C)C(C(CC(CC(C(O)=O)C)=O)C)CC2O", "physical_data": {"Molecular Weight": "516.67", "Molecular Formula": "C30H44O7", "Melting Point": "118-123 \u00b0C"}}