{"cas_no": "81919-14-4", "cn_name": "\u82c4\u8fbe\u8d56\u6c28\u9178", "en_name": ["L-Lysine, 2-[[1-(phenylmethyl)-1H-indazol-3-yl]oxy]acetate (1:1)", "L-Lysine, 2-[[1-(phenylmethyl)-1H-indazol-3-yl]oxy]acetate (1:1)", "L-Lysine, mono[[[1-(phenylmethyl)-1H-indazol-3-yl]oxy]acetate]", "Acetic acid, [[1-(phenylmethyl)-1H-indazol-3-yl]oxy]-, compd. with L-lysine (1:1)", "Bendazac L-lysine salt", "Bendazac lysine salt", "Bendaline", "AF 1934", "Bendazac lysine"], "SMILES": "C(CCCCN)(C(O)=O)N.C(N1C=2C(C(OCC(O)=O)=N1)=CC=CC2)C3=CC=CC=C3", "physical_data": {"Molecular Weight": "", "Molecular Formula": "C16H14N2O3.C6H14N2O2", "Melting Point": "178-181 \u00b0C"}}