{"cas_no": "81925-81-7", "cn_name": "5-\u7532\u57fa-2-\u5e9a\u70ef-4-\u916e", "en_name": ["5-Methyl-2-hepten-4-one", "2-Hepten-4-one, 5-methyl-", "5-Methyl-2-hepten-4-one"], "SMILES": "C(C(CC)C)(C=CC)=O", "physical_data": {"Molecular Weight": "126.20", "Molecular Formula": "C8H14O", "Boiling Point": "170 \u00b0C", "Density": "0.848 g/cm\u00b3 @ Temp: 20 \u00b0C"}}