{"cas_no": "81927-55-1", "cn_name": "2,2,2-\u4e09\u6c2f\u4e59\u9170\u80fa\u82c4\u916f", "en_name": ["Phenylmethyl 2,2,2-trichloroethanimidate", "Ethanimidic acid, 2,2,2-trichloro-, phenylmethyl ester", "Acetimidic acid, 2,2,2-trichloro-, benzyl ester", "Phenylmethyl 2,2,2-trichloroethanimidate", "Benzyl trichloroacetimidate", "Benzyl 2,2,2-trichloroacetimidate", "O-Benzyl 2,2,2-trichloroacetimidate", "2,2,2-Trichloroacetimidic acid benzyl ester", "Benzyl 2,2,2-trichloroethanimidate"], "SMILES": "C(OC(C(Cl)(Cl)Cl)=N)C1=CC=CC=C1", "physical_data": {"Molecular Weight": "252.52", "Molecular Formula": "C9H8Cl3NO", "Boiling Point": "104 \u00b0C @ Press: 0.1 Torr", "Melting Point": "3 \u00b0C"}}