{"cas_no": "81932-04-9", "cn_name": "4-(\u6eb4\u4e8c\u6c1f\u7532\u6c27\u57fa)\u785d\u57fa\u82ef", "en_name": ["1-(Bromodifluoromethoxy)-4-nitrobenzene", "Benzene, 1-(bromodifluoromethoxy)-4-nitro-", "1-(Bromodifluoromethoxy)-4-nitrobenzene"], "SMILES": "O(C(Br)(F)F)C1=CC=C(N(=O)=O)C=C1", "physical_data": {"Molecular Weight": "268.01", "Molecular Formula": "C7H4BrF2NO3", "Melting Point": "48 \u00b0C"}}