{"cas_no": "81945-73-5", "cn_name": "1-\u7f9f\u57fa\u5421\u5511", "en_name": ["1-Hydroxypyrazole", "1H-Pyrazole, 1-hydroxy-", "1-Hydroxy-1H-pyrazole", "1-Hydroxypyrazole", "N-Hydroxypyrazole", "Pyrazol-1-ol"], "SMILES": "ON1C=CC=N1", "physical_data": {"Molecular Weight": "84.08", "Molecular Formula": "C3H4N2O", "Melting Point": "74 \u00b0C"}}