{"cas_no": "81971-39-3", "cn_name": "5-BROMO-1-METHYL-2(1H)-PYRIDINONE", "en_name": ["5-Bromo-1-methyl-1H-pyridin-2-one", "2(1H)-Pyridinone, 5-bromo-1-methyl-", "5-Bromo-1-methyl-2(1H)-pyridinone", "3-Bromo-1-methyl-6-oxo-1,6-dihydropyridine", "5-Bromo-1-methyl-1H-pyridin-2-one", "5-Bromo-1-methyl-2(1H)-pyridone", "5-Bromo-1-methylpyridin-2-one", "5-Bromo-N-methylpyridin-2(1H)-one"], "SMILES": "CN1C(=O)C=CC(Br)=C1", "physical_data": {"Molecular Weight": "188.02", "Molecular Formula": "C6H6BrNO", "Boiling Point": "126-131 \u00b0C @ Press: 1.6 Torr", "Melting Point": "62.1-63 \u00b0C"}}