{"cas_no": "81998-04-1", "cn_name": "4-\u7f9f\u7532\u57fa-4'-\u7532\u57fa-2,2'-\u8054\u5421\u5576", "en_name": ["4\u2032-Methyl[2,2\u2032-bipyridine]-4-methanol", "[2,2\u2032-Bipyridine]-4-methanol, 4\u2032-methyl-", "4\u2032-Methyl[2,2\u2032-bipyridine]-4-methanol", "4-(Hydroxymethyl)-4\u2032-methyl-2,2\u2032-bipyridine", "[2-(4-Methylpyridin-2-yl)pyridin-4-yl]methanol", "(4\u2032-Methyl-[2,2\u2032-bipyridin]-4-yl)methanol"], "SMILES": "C(O)C=1C=C(N=CC1)C2=CC(C)=CC=N2", "physical_data": {"Molecular Weight": "200.24", "Molecular Formula": "C12H12N2O", "Melting Point": "115-117 \u00b0C"}}