{"cas_no": "82-05-3", "cn_name": "\u82ef\u5e76\u84bd\u916e", "en_name": ["Benzanthrone", "7H-Benz[de]anthracen-7-one", "Benzanthrenone", "Benzanthrone", "7-Oxobenz[de]anthracene", "Naphthanthrone", "Benzoanthrone", "1,9-Benz-10-anthrone", "NSC 5189", "NSC 631641", "7H-Benz[d,e]anthracene-7-one"], "SMILES": "O=C1C=2C3=C(C=4C1=CC=CC4)C=CC=C3C=CC2", "physical_data": {"Molecular Weight": "230.26", "Molecular Formula": "C17H10O", "Melting Point": "170 \u00b0C"}}