{"cas_no": "82-08-6", "cn_name": "\u7c97\u7ce0\u67f4\u82e6\u7d20", "en_name": ["Rottlerin", "2-Propen-1-one, 1-[6-[(3-acetyl-2,4,6-trihydroxy-5-methylphenyl)methyl]-5,7-dihydroxy-2,2-dimethyl-2H-1-benzopyran-8-yl]-3-phenyl-, (2E)-", "Rottlerin", "Acetophenone, 3\u2032-[(8-cinnamoyl-5,7-dihydroxy-2,2-dimethyl-2H-1-benzopyran-6-yl)methyl]-2\u2032,4\u2032,6\u2032-trihydroxy-5\u2032-methyl-", "2-Propen-1-one, 1-[6-[(3-acetyl-2,4,6-trihydroxy-5-methylphenyl)methyl]-5,7-dihydroxy-2,2-dimethyl-2H-1-benzopyran-8-yl]-3-phenyl-, (E)-", "(2E)-1-[6-[(3-Acetyl-2,4,6-trihydroxy-5-methylphenyl)methyl]-5,7-dihydroxy-2,2-dimethyl-2H-1-benzopyran-8-yl]-3-phenyl-2-propen-1-one", "NSC 56346", "NSC 94525", "Mallotoxin", "PKC-\u03b4/PKC-\u03b8 inhibitor"], "SMILES": "C(C=CC1=CC=CC=C1)(=O)C2=C3C(=C(O)C(CC4=C(O)C(C(C)=O)=C(O)C(C)=C4O)=C2O)C=CC(C)(C)O3", "physical_data": {"Molecular Weight": "516.54", "Molecular Formula": "C30H28O8", "Melting Point": "212 \u00b0C"}}