{"cas_no": "82-09-7", "cn_name": "\u6bd2\u7070\u8349\u915a", "en_name": ["\u03b1-Toxicarol", "3H-Bis[1]benzopyrano[3,4-b:6\u2032,5\u2032-e]pyran-7(7aH)-one, 13,13a-dihydro-6-hydroxy-9,10-dimethoxy-3,3-dimethyl-, (7aS,13aS)-", "3H-Bis[1]benzopyrano[3,4-b:6\u2032,5\u2032-e]pyran-7(7aH)-one, 13,13a-dihydro-6-hydroxy-9,10-dimethoxy-3,3-dimethyl-, (7aS-cis)-", "3H-Bis[1]benzopyrano[3,4-b:6\u2032,5\u2032-e]pyran-7(7aH)-one, 13,13a-dihydro-6-hydroxy-9,10-dimethoxy-3,3-dimethyl-", "(7aS,13aS)-13,13a-Dihydro-6-hydroxy-9,10-dimethoxy-3,3-dimethyl-3H-bis[1]benzopyrano[3,4-b:6\u2032,5\u2032-e]pyran-7(7aH)-one", "\u03b1-Toxicarol"], "SMILES": "O=C1C2C=3C(=CC(OC)=C(OC)C3)OCC2OC=4C1=C(O)C=C5C4C=CC(C)(C)O5", "physical_data": {"Molecular Weight": "410.42", "Molecular Formula": "C23H22O7", "Melting Point": "219 \u00b0C"}}