{"cas_no": "82-02-0", "cn_name": "\u51ef\u6797", "en_name": ["Khellin", "5H-Furo[3,2-g][1]benzopyran-5-one, 4,9-dimethoxy-7-methyl-", "4,9-Dimethoxy-7-methyl-5H-furo[3,2-g][1]benzopyran-5-one", "Amicardine", "Ammipuran", "Ammivin", "Ammivisnagen", "Benecardin", "Cardio-khellin", "Corafurone", "5,8-Dimethoxy-2-methyl-6,7-furanochromone", "5,8-Dimethoxy-2-methyl-4\u2032,5\u2032-furano-6,7-chromone", "5,8-Dimethoxy-2-methyl-4\u2032,5\u2032-furo-6,7-chromone", "4,9-Dimethoxy-7-methyl-5-oxo-1,8-dioxabenz[f]indene", "4,9-Dimethoxy-7-methyl-5-oxofuro[3,2-g][1]benzopyran", "4,9-Dimethoxy-7-methyl-5-oxofuro[3,2-g]-1,2-chromene", "Eskel", "Kelamin", "Kelicor", "Kelicorin", "Keloid", "Khelfren", "Khelisem", "Khellin", "Khelloyd", "Lynamine", "Methafrone", "Norkel", "Simeskellina", "Vasokellina", "Visammin", "Viscardan", "Visnagalin", "Visnagen", "Benekardin", "Amikellin", "Medekellin", "Kellosal", "Ammispasmin", "Kalangin", "Gynokhellin", "Khelline I", "Coronin", "Hkelfren", "Gynokhellan", "Amicardien", "NSC 25509", "NSC 37744", "NSC 8519"], "SMILES": "O(C)C=1C2=C(C(OC)=C3C1C=CO3)OC(C)=CC2=O", "physical_data": {"Molecular Weight": "260.24", "Molecular Formula": "C14H12O5", "Boiling Point": "180-200 \u00b0C @ Press: 0.05 Torr", "Melting Point": "154.5 \u00b0C (decomp)", "Density": "1.44 g/cm\u00b3"}}