{"cas_no": "82-07-5", "cn_name": "\u546b\u5428-9-\u7fa7\u9178", "en_name": ["Xanthene-9-carboxylic acid", "9H-Xanthene-9-carboxylic acid", "Xanthene-9-carboxylic acid", "Xanthenecarboxylic acid", "Xanthanoic acid", "9-Carboxyxanthene", "Xanthine-9-carboxylic acid", "NSC 66208", "RH 00001"], "SMILES": "C(O)(=O)C1C=2C(OC=3C1=CC=CC3)=CC=CC2", "physical_data": {"Molecular Weight": "226.23", "Molecular Formula": "C14H10O3", "Melting Point": "217 \u00b0C (decomp)"}}