{"cas_no": "82-28-0", "cn_name": "\u5206\u6563\u6a5911", "en_name": ["Disperse Orange 11", "9,10-Anthracenedione, 1-amino-2-methyl-", "Anthraquinone, 1-amino-2-methyl-", "C.I. Disperse Orange 11", "1-Amino-2-methyl-9,10-anthracenedione", "C.I. 60700", "Acetate Fast Orange R", "Acetoquinone Light Orange JL", "1-Amino-2-methylanthraquinone", "Artisil Orange 3RP", "Celliton Orange R", "Cilla Orange R", "Duranol Orange G", "2-Methyl-1-anthraquinonylamine", "Microsetile Orange RA", "Nyloquinone Orange JR", "Perliton Orange 3R", "Serisol Orange YL", "Supracet Orange R", "1-Amino-2-methyl-9,10-anthraquinone", "Disperse Orange (anthraquinone dye)", "C.I. Solvent Orange 35", "Smoke Orange LK 6044", "Disperse Orange 11", "Solvent Orange 35", "NSC 39943", "NSC 667744", "DO 11"], "SMILES": "O=C1C=2C(C(=O)C=3C1=CC=CC3)=CC=C(C)C2N", "physical_data": {"Molecular Weight": "237.25", "Molecular Formula": "C15H11NO2", "Melting Point": "6-205 \u00b0C"}}