{"cas_no": "82-22-4", "cn_name": "1,1'-\u4e9a\u6c28\u57fa\u4e8c\u84bd\u918c[\u7528\u4e8e\u787c\u7684\u6d4b\u5b9a]", "en_name": ["Dianthrimide", "9,10-Anthracenedione, 1,1\u2032-iminobis-", "Anthraquinone, 1,1\u2032-iminodi-", "1,1\u2032-Iminobis[9,10-anthracenedione]", "Anthrimide", "1,1\u2032-Dianthraquinonylamine", "1,1\u2032-Dianthrimide", "Dianthrimide", "Bis(1-anthraquinonyl)amine", "NSC 7226", "AISE 4", "Bis(anthraquinon-1-yl)amino", "1-[(9,10-Dioxoanthracen-1-yl)amino]anthracene-9,10-dione"], "SMILES": "N(C1=C2C(C(=O)C=3C(C2=O)=CC=CC3)=CC=C1)C4=C5C(C(=O)C=6C(C5=O)=CC=CC6)=CC=C4", "physical_data": {"Molecular Weight": "429.42", "Molecular Formula": "C28H15NO4", "Melting Point": "320-324 \u00b0C"}}