{"cas_no": "82-35-9", "cn_name": "1,5-\u4e8c\u785d\u57fa\u84bd\u918c", "en_name": ["1,5-Dinitro-9,10-anthracenedione", "9,10-Anthracenedione, 1,5-dinitro-", "Anthraquinone, 1,5-dinitro-", "1,5-Dinitro-9,10-anthracenedione", "1,5-Dinitroanthraquinone", "1,5-Dinitro-9,10-anthraquinone", "NSC 37583", "1,5-Dinitro-9,10-dihydroanthracene-9,10-dione"], "SMILES": "O=C1C=2C(C(=O)C=3C1=CC=CC3N(=O)=O)=CC=CC2N(=O)=O", "physical_data": {"Molecular Weight": "298.21", "Molecular Formula": "C14H6N2O6", "Melting Point": "385 \u00b0C"}}