{"cas_no": "82-34-8", "cn_name": "1-\u785d\u57fa\u84bd\u918c", "en_name": ["1-Nitroanthraquinone", "9,10-Anthracenedione, 1-nitro-", "Anthraquinone, 1-nitro-", "1-Nitro-9,10-anthracenedione", "1-Nitroanthraquinone", "\u03b1-Nitroanthraquinone", "1-Nitro-9,10-anthraquinone", "NSC 12125", "1-Nitro-9,10-dihydroanthracene-9,10-dione"], "SMILES": "O=C1C=2C(C(=O)C=3C1=CC=CC3)=CC=CC2N(=O)=O", "physical_data": {"Molecular Weight": "253.21", "Molecular Formula": "C14H7NO4", "Boiling Point": "270 \u00b0C", "Melting Point": "231.5 \u00b0C"}}