{"cas_no": "82-38-2", "cn_name": "\u5206\u6563\u7ea2 9", "en_name": ["Solvent Red 111", "9,10-Anthracenedione, 1-(methylamino)-", "C.I. Disperse Red 9", "Anthraquinone, 1-(methylamino)-", "1-(Methylamino)-9,10-anthracenedione", "C.I. 60505", "Celanthrene Red Y", "Celliton Pink R", "Duranol Red GN", "1-(Methylamino)anthraquinone", "N-Methyl-1-anthraquinonylamine", "Oil Red ZMQ", "Serilene Fast Pink BT", "Supracet Pink R", "Waxoline Red MAA", "Waxoline Red MP", "\u03b1-Methylaminoanthraquinone", "1-(Methylamino)-9,10-anthraquinone", "Calco Oil Red ZMQ", "C.I. Solvent Red 111", "Macrolex Red G", "Amaplast Red AAP", "Orient Oil Red 330", "Smoke Red M", "Macrolex Red GS", "Oracet Red G", "Disperse Red 9", "Solvent Red 111", "Kayaset Red G", "Diaresin Red S", "Oplas Red 330", "Sandoplast Red PFS", "Waxoline Red MP-FW", "NSC 3721", "KP Plast Red G", "Oil Red 111", "Transparent Red GS", "Solvaperm Red PFS", "Solvaperm Red 111", "1-(Methylamino)-9,10-dihydroanthracene-9,10-dione"], "SMILES": "O=C1C=2C(C(=O)C=3C1=CC=CC3)=CC=CC2NC", "physical_data": {"Molecular Weight": "237.25", "Molecular Formula": "C15H11NO2", "Melting Point": "171 \u00b0C"}}