{"cas_no": "82-45-1", "cn_name": "1-\u6c28\u57fa\u84bd\u918c", "en_name": ["1-Aminoanthraquinone", "9,10-Anthracenedione, 1-amino-", "Anthraquinone, 1-amino-", "1-Amino-9,10-anthracenedione", "\u03b1-Aminoanthraquinone", "1-Aminoanthraquinone", "\u03b1-Anthraquinonylamine", "1-Amino-9,10-anthraquinone", "Smoke Orange G", "1-AAQ", "NSC 30415", "NSC 458", "9,10-Dioxo-9,10-dihydro-1-anthracenamine", "1-Amino-9,10-dihydroanthracene-9,10-dione"], "SMILES": "O=C1C=2C(C(=O)C=3C1=CC=CC3)=CC=CC2N", "physical_data": {"Molecular Weight": "223.23", "Molecular Formula": "C14H9NO2", "Melting Point": "253.5 \u00b0C"}}