{"cas_no": "82-43-9", "cn_name": "1,8-\u4e8c\u6c2f\u84bd\u918c", "en_name": ["1,8-Dichloroanthraquinone", "9,10-Anthracenedione, 1,8-dichloro-", "Anthraquinone, 1,8-dichloro-", "1,8-Dichloro-9,10-anthracenedione", "1,8-Dichloroanthraquinone", "1,8-Dichloro-9,10-anthraquinone", "NSC 7209", "1,8-Dichloro-9,10-dihydroanthracene-9,10-dione"], "SMILES": "O=C1C=2C(C(=O)C=3C1=C(Cl)C=CC3)=CC=CC2Cl", "physical_data": {"Molecular Weight": "277.10", "Molecular Formula": "C14H6Cl2O2", "Melting Point": "202 \u00b0C", "Density": "1.62 g/cm\u00b3"}}