{"cas_no": "82-46-2", "cn_name": "1,5-\u4e8c\u6c2f\u84bd\u918c", "en_name": ["1,5-Dichloroanthraquinone", "9,10-Anthracenedione, 1,5-dichloro-", "Anthraquinone, 1,5-dichloro-", "1,5-Dichloro-9,10-anthracenedione", "1,5-Dichloroanthraquinone", "1,5-Dichloro-9,10-anthraquinone", "NSC 13969"], "SMILES": "O=C1C=2C(C(=O)C=3C1=CC=CC3Cl)=CC=CC2Cl", "physical_data": {"Molecular Weight": "277.10", "Molecular Formula": "C14H6Cl2O2", "Melting Point": "251 \u00b0C", "Density": "0.5-0.6 g/cm\u00b3"}}