{"cas_no": "82-49-5", "cn_name": "1-\u84bd\u918c\u78fa\u9178", "en_name": ["9,10-Dihydro-9,10-dioxo-1-anthracenesulfonic acid", "1-Anthracenesulfonic acid, 9,10-dihydro-9,10-dioxo-", "1-Anthraquinonesulfonic acid", "9,10-Dihydro-9,10-dioxo-1-anthracenesulfonic acid", "\u03b1-Anthraquinonesulfonic acid", "1-Sulfoanthraquinone", "\u03b1-Sulfoanthraquinone", "9,10-Anthraquinone-1-sulfonic acid"], "SMILES": "S(=O)(=O)(O)C1=C2C(C(=O)C=3C(C2=O)=CC=CC3)=CC=C1", "physical_data": {"Molecular Weight": "288.28", "Molecular Formula": "C14H8O5S", "Melting Point": "210-211 \u00b0C"}}