{"cas_no": "82-44-0", "cn_name": "1-\u6c2f\u84bd\u918c", "en_name": ["1-Chloroanthraquinone", "9,10-Anthracenedione, 1-chloro-", "Anthraquinone, 1-chloro-", "1-Chloro-9,10-anthracenedione", "1-Chloroanthraquinone", "1-Chloro-9,10-anthraquinone", "\u03b1-Chloroanthraquinone", "\u03b1-Monochloroanthraquinone", "NSC 30428", "NSC 5138", "1-Chloro-9,10-dihydroanthracene-9,10-dione"], "SMILES": "O=C1C=2C(C(=O)C=3C1=CC=CC3)=CC=CC2Cl", "physical_data": {"Molecular Weight": "242.66", "Molecular Formula": "C14H7ClO2", "Melting Point": "162 \u00b0C"}}