{"cas_no": "82-57-5", "cn_name": "\u9f7f\u963f\u7c73\u7d20", "en_name": ["Visnagin", "5H-Furo[3,2-g][1]benzopyran-5-one, 4-methoxy-7-methyl-", "Visnagin", "4-Methoxy-7-methyl-5H-furo[3,2-g][1]benzopyran-5-one", "Desmethoxykhellin", "5-Methoxy-2-methyl-6,7-furanochrome", "5-Methoxy-2-methylfuranochromone", "Visnagidin", "Visnagine", "NSC 100593"], "SMILES": "O(C)C=1C2=C(C=C3C1C=CO3)OC(C)=CC2=O", "physical_data": {"Molecular Weight": "230.22", "Molecular Formula": "C13H10O4", "Melting Point": "144.5 \u00b0C"}}