{"cas_no": "82-50-8", "cn_name": "1-\u785d\u57fa\u84bd\u918c-5-\u78fa\u9178\u94a0\u76d0", "en_name": ["9,10-Dihydro-5-nitro-9,10-dioxo-1-anthracenesulfonic acid", "1-Anthracenesulfonic acid, 9,10-dihydro-5-nitro-9,10-dioxo-", "1-Anthraquinonesulfonic acid, 5-nitro-", "9,10-Dihydro-5-nitro-9,10-dioxo-1-anthracenesulfonic acid", "1-Nitro-5-sulfoanthraquinone", "5-Nitroanthraquinone-1-sulfonic acid", "1-Nitro-5-anthraquinonesulfonic acid", "1-Nitro-5-sulfonate-9,10-anthraquinone", "NSC 5535"], "SMILES": "S(=O)(=O)(O)C1=C2C(C(=O)C=3C(C2=O)=CC=CC3N(=O)=O)=CC=C1", "physical_data": {"Molecular Weight": "333.27", "Molecular Formula": "C14H7NO7S", "Melting Point": "348-350 \u00b0C"}}