{"cas_no": "82-66-6", "cn_name": "\u654c\u9f20", "en_name": ["Diphacinone", "1H-Indene-1,3(2H)-dione, 2-(2,2-diphenylacetyl)-", "1,3-Indandione, 2-(diphenylacetyl)-", "1H-Indene-1,3(2H)-dione, 2-(diphenylacetyl)-", "2-(2,2-Diphenylacetyl)-1H-indene-1,3(2H)-dione", "U 1363", "Didandin", "Dipaxin", "Diphacin", "Diphacinone", "Diphenacin", "Diphenadione", "2-(Diphenylacetyl)indan-1,3-dione", "Ratindan 1", "Diphenadion", "Didion", "Oragulant", "Solvan", "Ratindan", "Diphacinon", "NSC 9138", "Pestoff ferret paste", "NCI 9138", "Diphenylacetylindandione", "2-(Diphenylacetyl)-1H-indene-1,3(2H)-dione"], "SMILES": "C(C(=O)C1C(=O)C=2C(C1=O)=CC=CC2)(C3=CC=CC=C3)C4=CC=CC=C4", "physical_data": {"Molecular Weight": "340.37", "Molecular Formula": "C23H16O3", "Melting Point": "141-145 \u00b0C"}}