{"cas_no": "82-68-8", "cn_name": "\u4e94\u6c2f\u785d\u57fa\u82ef", "en_name": ["Quintozene", "Benzene, 1,2,3,4,5-pentachloro-6-nitro-", "Benzene, pentachloronitro-", "1,2,3,4,5-Pentachloro-6-nitrobenzene", "Brassicol Super", "Folosan", "PCNB", "Pentachloronitrobenzene", "Quintozene", "Terrachlor", "Tilcarex", "Brassicol", "Fomac 2", "Kobutol", "Terraclor", "Terrafun", "Avicol (pesticide)", "Batrilex", "Fartox", "GC 3944-3-4", "Brassicol 75", "Terraclor 30G", "Quintozen", "Phomasan", "Pentagen", "Botrilex", "Tritisan", "Marisan forte", "Quinosan", "Chinozan", "Nitropentachlorobenzene", "RTU 1010", "2,3,4,5,6-Pentachloronitrobenzene", "Terrazan F", "Terrazan", "Plantacol", "NSC 58427", "Korsikol", "RTU PCNB", "1,2,3,4,5-Pentachloronitrobenzene"], "SMILES": "N(=O)(=O)C1=C(Cl)C(Cl)=C(Cl)C(Cl)=C1Cl", "physical_data": {"Molecular Weight": "295.33", "Molecular Formula": "C6Cl5NO2", "Boiling Point": "328 \u00b0C", "Melting Point": "144 \u00b0C", "Density": "1.718 g/cm\u00b3 @ Temp: 25 \u00b0C"}}