{"cas_no": "82-71-3", "cn_name": "2\uff0c4\uff0c6-\u4e09\u785d\u57fa\u95f4\u82ef\u4e8c\u915a\uff0c\u6536\u655b\u9178", "en_name": ["Styphnic acid", "1,3-Benzenediol, 2,4,6-trinitro-", "Styphnic acid", "Resorcinol, 2,4,6-trinitro-", "2,4,6-Trinitro-1,3-benzenediol", "2,4-Dihydroxy-1,3,5-trinitrobenzene", "2,4,6-Trinitroresorcinol", "3-Hydroxy-2,4,6-trinitrophenol", "1,3-Dihydroxy-2,4,6-trinitrobenzene", "NSC 36932"], "SMILES": "N(=O)(=O)C1=C(O)C(N(=O)=O)=CC(N(=O)=O)=C1O", "physical_data": {"Molecular Weight": "245.10", "Molecular Formula": "C6H3N3O8", "Melting Point": "175.5 \u00b0C"}}