{"cas_no": "82-73-5", "cn_name": "3-\u6eb4\u4ee3\u82ef\u9150", "en_name": ["3-Bromophthalic anhydride", "1,3-Isobenzofurandione, 4-bromo-", "Phthalic anhydride, 3-bromo-", "4-Bromo-1,3-isobenzofurandione", "3-Bromophthalic anhydride", "NSC 508895", "4-Bromo-1,3-dihydro-2-benzofuran-1,3-dione"], "SMILES": "BrC1=C2C(C(=O)OC2=O)=CC=C1", "physical_data": {"Molecular Weight": "227.01", "Molecular Formula": "C8H3BrO3", "Melting Point": "132-134 \u00b0C"}}