{"cas_no": "82-82-6", "cn_name": "4-\u5421\u54c6\u9178", "en_name": ["4-Pyridoxic acid", "4-Pyridinecarboxylic acid, 3-hydroxy-5-(hydroxymethyl)-2-methyl-", "Isonicotinic acid, 3-hydroxy-5-(hydroxymethyl)-2-methyl-", "3-Hydroxy-5-(hydroxymethyl)-2-methyl-4-pyridinecarboxylic acid", "3-Hydroxy-5-(hydroxymethyl)-2-methylisonicotinic acid", "2-Methyl-3-hydroxy-4-carboxy-5-hydroxymethylpyridine", "4-Pyridoxic acid", "4-Pyridoxinecarboxylic acid", "4-Pyridoxylic acid", "4-Pyridoxinic acid", "Pyridoxic acid", "NSC 41814", "MeSH ID: D011735"], "SMILES": "C(O)(=O)C=1C(CO)=CN=C(C)C1O", "physical_data": {"Molecular Weight": "183.16", "Molecular Formula": "C8H9NO4", "Melting Point": "247.5 \u00b0C"}}