{"cas_no": "82-86-0", "cn_name": "\u82ca\u918c", "en_name": ["Acenaphthenequinone", "1,2-Acenaphthylenedione", "Acenaphthenequinone", "1,2-Acenaphthenedione", "1,2-Acenaphthenequinone", "Acenaphthoquinone", "Acenaphthenedione", "Acenaphthylenequinone", "Acenaphthylene-1,2-quinone", "NSC 7656", "Acenapthylen-1,2-dione", "Acenaphthalen-1,2-dione", "1,2-Dihydroacenaphthylene-1,2-dione"], "SMILES": "O=C1C2=C3C(C1=O)=CC=CC3=CC=C2", "physical_data": {"Molecular Weight": "182.17", "Molecular Formula": "C12H6O2", "Melting Point": "261 \u00b0C", "Density": "1.48 g/cm\u00b3"}}