{"cas_no": "82-98-4", "cn_name": "\u54cc\u7acb\u5ea6\u916f", "en_name": ["Piperidolate", "Benzeneacetic acid, \u03b1-phenyl-, 1-ethyl-3-piperidinyl ester", "Acetic acid, diphenyl-, 1-ethyl-3-piperidyl ester", "3-Piperidinol, 1-ethyl-, diphenylacetate (ester)", "JB 305", "1087 A.N.", "N-Ethyl-3-piperidyl diphenylacetate", "1-Ethyl-3-piperidyl diphenylacetate", "Piperidolate", "Dactil", "1-Ethylpiperidin-3-yl 2,2-diphenylacetate"], "SMILES": "C(C(OC1CN(CC)CCC1)=O)(C2=CC=CC=C2)C3=CC=CC=C3", "physical_data": {"Molecular Weight": "323.43", "Molecular Formula": "C21H25NO2", "Boiling Point": "191 \u00b0C", "Melting Point": "&lt;25 \u00b0C"}}