{"cas_no": "82-95-1", "cn_name": "\u5e03\u514b\u7acb\u55ea", "en_name": ["Buclizine", "Piperazine, 1-[(4-chlorophenyl)phenylmethyl]-4-[[4-(1,1-dimethylethyl)phenyl]methyl]-", "Piperazine, 1-(p-tert-butylbenzyl)-4-(p-chloro-\u03b1-phenylbenzyl)-", "1-[(4-Chlorophenyl)phenylmethyl]-4-[[4-(1,1-dimethylethyl)phenyl]methyl]piperazine", "AH 2526", "Buclizine", "1-(p-tert-Butylbenzyl)-4-(p-chloro-\u03b1-phenylbenzyl)piperazine", "1-(p-Chlorobenzhydryl)-4-(p-tert-butylbenzyl)-diethylenediamine", "1-(p-Chlorobenzhydryl)-4-(p-tert-butylbenzyl)-piperazine", "1-(p-Chloro-\u03b1-phenylbenzyl)-4-(p-tert-butylbenzyl)piperazine", "Histabuticine", "Histabutyzine", "Histabutizine", "Buclifen", "Aphilan R base", "Posdel", "Postafen", "Hitabutyzyne", "1-(4-(tert-Butyl)benzyl)-4-((4-chlorophenyl)(phenyl)methyl)piperazine"], "SMILES": "C(N1CCN(CC2=CC=C(C(C)(C)C)C=C2)CC1)(C3=CC=C(Cl)C=C3)C4=CC=CC=C4", "physical_data": {"Molecular Weight": "433.03", "Molecular Formula": "C28H33ClN2", "Boiling Point": "218 \u00b0C", "Melting Point": "78-85 \u00b0C"}}