{"cas_no": "82-92-8", "cn_name": "\u82ef\u7532\u55ea", "en_name": ["Cyclizine", "Piperazine, 1-(diphenylmethyl)-4-methyl-", "1-(Diphenylmethyl)-4-methylpiperazine", "(N-Benzhydryl)(N\u2032-methyl)diethylenediamine", "Compound 47-83", "Cyclizine", "Marezine", "Wellcome prepn. 47-83", "N-Benzhydryl-N\u2032-methylpiperazine", "N-Methyl-N\u2032-benzhydrylpiperazine", "Nautazine", "Neo-Devomit", "Ne-Devomit", "NSC 26608", "MeSH ID: D003501"], "SMILES": "C(N1CCN(C)CC1)(C2=CC=CC=C2)C3=CC=CC=C3", "physical_data": {"Molecular Weight": "266.38", "Molecular Formula": "C18H22N2", "Boiling Point": "150 \u00b0C @ Press: 0.09 Torr", "Melting Point": "105.5-107.5 \u00b0C"}}