{"cas_no": "820-10-0", "cn_name": "DL-\u86cb\u6c28\u9178\u781c", "en_name": ["(\u00b1)-Methionine sulfone", "Methionine, S,S-dioxide", "Butyric acid, 2-amino-4-(methylsulfonyl)-, DL-", "Butanoic acid, 2-amino-4-(methylsulfonyl)-", "DL-Methionine sulfone", "(\u00b1)-Methionine sulfone", "DL-Methionine S,S-dioxide", "Methionine sulfone", "NSC 62968", "2-Amino-4-(methylsulfonyl)butanoic acid", "2-Amino-4-methanesulfonylbutanoic acid"], "SMILES": "C(C(C(O)=O)N)CS(C)(=O)=O", "physical_data": {"Molecular Weight": "181.21", "Molecular Formula": "C5H11NO4S", "Melting Point": "254 \u00b0C (decomp)"}}