{"cas_no": "820-71-3", "cn_name": "\u7532\u57fa\u4e19\u70ef\u9187\u4e59\u9178\u916f", "en_name": ["Methallyl acetate", "2-Propen-1-ol, 2-methyl-, 1-acetate", "2-Propen-1-ol, 2-methyl-, acetate", "\u03b2-Methallyl acetate", "2-Methylallyl acetate", "1-Acetoxy-2-methyl-2-propene", "Methallyl acetate", "3-Acetoxy-2-methylprop-1-ene", "2-Methyl-2-propen-1-ol acetate", "Acetic acid 2-methyl-2-propenyl ester", "2-Methyl-2-propenyl acetate", "Acetic acid methallyl ester"], "SMILES": "C(OC(C)=O)C(C)=C", "physical_data": {"Molecular Weight": "114.14", "Molecular Formula": "C6H10O2", "Boiling Point": "124 \u00b0C"}}