{"cas_no": "82005-12-7", "cn_name": "2,5-\u5df2\u7094\u4e8c\u9187", "en_name": ["Hymenialdisine", "Pyrrolo[2,3-c]azepin-8(1H)-one, 4-(2-amino-1,5-dihydro-5-oxo-4H-imidazol-4-ylidene)-2-bromo-4,5,6,7-tetrahydro-, (4Z)-", "Pyrrolo[2,3-c]azepin-8(1H)-one, 4-(2-amino-1,5-dihydro-5-oxo-4H-imidazol-4-ylidene)-2-bromo-4,5,6,7-tetrahydro-, (Z)-", "(4Z)-4-(2-Amino-1,5-dihydro-5-oxo-4H-imidazol-4-ylidene)-2-bromo-4,5,6,7-tetrahydropyrrolo[2,3-c]azepin-8(1H)-one", "Hymenialdisine", "(Z)-Hymenialdisine", "Hymenialdesine", "Z-Hymenialdisine", "10Z-Hymenialdisine", "10Z-Hymenialdisine"], "SMILES": "O=C1C2=C(C(CCN1)=C3C(=O)N=C(N)N3)C=C(Br)N2", "physical_data": {"Molecular Weight": "324.13", "Molecular Formula": "C11H10BrN5O2", "Melting Point": "&gt;250 \u00b0C (decomp)"}}