{"cas_no": "82031-33-2", "cn_name": "2-(2-\u7532\u6c27\u4e59\u6c27\u57fa)\u82ef\u78fa\u9170\u80fa", "en_name": ["2-(2-Methoxyethoxy)benzenesulfonamide", "Benzenesulfonamide, 2-(2-methoxyethoxy)-", "2-(2-Methoxyethoxy)benzenesulfonamide", "2-(2-Methoxyethoxy)benzen sulfonamide"], "SMILES": "S(N)(=O)(=O)C1=C(OCCOC)C=CC=C1", "physical_data": {"Molecular Weight": "231.27", "Molecular Formula": "C9H13NO4S", "Melting Point": "109-112 \u00b0C"}}