{"cas_no": "82034-46-6", "cn_name": "\u4f9d\u78b3\u6c2f\u66ff\u6cfc\u8bfa", "en_name": ["Loteprednol etabonate", "Androsta-1,4-diene-17-carboxylic acid, 17-[(ethoxycarbonyl)oxy]-11-hydroxy-3-oxo-, chloromethyl ester, (11\u03b2,17\u03b1)-", "HGP 1", "CDDD 5604", "P 5604", "Loteprednol etabonate", "Lenoxin", "Alrex", "Lotemax"], "SMILES": "O(C(OCC)=O)C1(C(OCCl)=O)C2(C)C(CC1)C3C(C(O)C2)C4(C)C(CC3)=CC(=O)C=C4", "physical_data": {"Molecular Weight": "466.95", "Molecular Formula": "C24H31ClO7", "Melting Point": "220.5-223.5 \u00b0C"}}