{"cas_no": "82097-50-5", "cn_name": "\u919a\u82ef\u78fa\u9686", "en_name": ["Triasulfuron", "Benzenesulfonamide, 2-(2-chloroethoxy)-N-[[(4-methoxy-6-methyl-1,3,5-triazin-2-yl)amino]carbonyl]-", "2-(2-Chloroethoxy)-N-[[(4-methoxy-6-methyl-1,3,5-triazin-2-yl)amino]carbonyl]benzenesulfonamide", "CGA 131036", "Logran", "Triasulfuron", "Amber", "Amber (insecticide)"], "SMILES": "S(NC(NC=1N=C(OC)N=C(C)N1)=O)(=O)(=O)C2=C(OCCCl)C=CC=C2", "physical_data": {"Molecular Weight": "401.83", "Molecular Formula": "C14H16ClN5O5S", "Boiling Point": "150-260 \u00b0C", "Melting Point": "186 \u00b0C", "Density": "1.05-1.10 g/cm\u00b3"}}