{"cas_no": "821-09-0", "cn_name": "4-\u620a\u70ef-1-\u9187", "en_name": ["4-Penten-1-ol", "4-Penten-1-ol", "4-Pentenyl alcohol", "4-Pentenol", "5-Hydroxy-1-pentene", "1-Penten-5-ol", "1-Hydroxy-4-pentene", "NSC 97503", "Penta-4-ene-1-ol"], "SMILES": "C(CCO)C=C", "physical_data": {"Molecular Weight": "86.13", "Molecular Formula": "C5H10O", "Boiling Point": "141 \u00b0C", "Melting Point": "58-61 \u00b0C", "Density": "0.8457 g/cm\u00b3 @ Temp: 20 \u00b0C"}}