{"cas_no": "821-06-7", "cn_name": "1,4-\u4e8c\u6eb4-2-\u4e01\u70ef", "en_name": ["trans-1,4-Dibromo-2-butene", "2-Butene, 1,4-dibromo-, (2E)-", "2-Butene, 1,4-dibromo-, (E)-", "2-Butene, 1,4-dibromo-, trans-", "(2E)-1,4-Dibromo-2-butene", "trans-1,4-Dibromo-2-butene", "1,4-Dibromo-trans-2-butene", "1,4-Dibromo-(E)-2-butene", "(E)-1,4-Dibromo-2-butene", "1,4-Dibromo-2-(E)-butene", "(E)-1,4-Dibromo-2-butene", "(2E)-1,4-Dibromobut-2-ene"], "SMILES": "C(=CCBr)CBr", "physical_data": {"Molecular Weight": "213.90", "Molecular Formula": "C4H6Br2", "Boiling Point": "203 \u00b0C", "Melting Point": "53.4 \u00b0C"}}