{"cas_no": "821-99-8", "cn_name": "1,9-\u4e8c\u6c2f\u58ec\u70f7", "en_name": ["1,9-Dichlorononane", "Nonane, 1,9-dichloro-", "1,9-Dichlorononane", "NSC 9477"], "SMILES": "C(CCCCCl)CCCCCl", "physical_data": {"Molecular Weight": "197.15", "Molecular Formula": "C9H18Cl2", "Boiling Point": "260 \u00b0C"}}