{"cas_no": "821-41-0", "cn_name": "5-\u5df1\u70ef-1-\u9187", "en_name": ["5-Hexen-1-ol", "5-Hexen-1-ol", "1-Hexen-6-ol", "6-Hydroxy-1-hexene", "5-Hexene-1-ol"], "SMILES": "C(CC=C)CCO", "physical_data": {"Molecular Weight": "100.16", "Molecular Formula": "C6H12O", "Boiling Point": "155.5-156.0 \u00b0C @ Press: 718 Torr", "Density": "0.8453 g/cm\u00b3 @ Temp: 20 \u00b0C"}}