{"cas_no": "821-38-5", "cn_name": "\u5341\u56db\u70f7\u4e8c\u9178", "en_name": ["Tetradecanedioic acid", "Tetradecanedioic acid", "1,12-Dodecanedicarboxylic acid", "1,14-Tetradecanedioic acid", "DCA 14", "NSC 9504", "1,12-Dicarboxydodecane", "Emerox 114"], "SMILES": "C(CC(O)=O)CCCCCCCCCCC(O)=O", "physical_data": {"Molecular Weight": "258.35", "Molecular Formula": "C14H26O4", "Melting Point": "127 \u00b0C"}}