{"cas_no": "821-76-1", "cn_name": "1,7-\u4e8c\u6c2f\u5e9a\u70f7", "en_name": ["1,7-Dichloroheptane", "Heptane, 1,7-dichloro-", "1,7-Dichloroheptane", "NSC 18516"], "SMILES": "C(CCCCl)CCCCl", "physical_data": {"Molecular Weight": "169.09", "Molecular Formula": "C7H14Cl2", "Boiling Point": "106-110 \u00b0C @ Press: 15 Torr"}}