{"cas_no": "821-48-7", "cn_name": "\u53cc\uff082-\u6c2f\u4e59\u57fa\uff09\u80fa\u76d0\u9178\u76d0", "en_name": ["Bis(2-chloroethyl)amine hydrochloride", "Ethanamine, 2-chloro-N-(2-chloroethyl)-, hydrochloride (1:1)", "Diethylamine, 2,2\u2032-dichloro-, hydrochloride", "Ethanamine, 2-chloro-N-(2-chloroethyl)-, hydrochloride", "NSC 10873", "Nornitrogen mustard hydrochloride", "2,2\u2032-Dichlorodiethylamine hydrochloride", "Bis(\u03b2-chloroethyl)amine hydrochloride", "Bis(2-chloroethyl)amine hydrochloride", "N,N-Bis(2-chloroethyl)amine hydrochloride", "\u03b2,\u03b2\u2032-Dichlorodiethylamine hydrochloride", "2-Chloro-N-(2-chloroethyl)ethanamine hydrochloride", "Bis(2-chloroethyl)ammonium chloride", "Leo 72a", "1,5-Dichloro-3-azapentane hydrochloride", "Di(2-chloroethyl)amine hydrochloride", "Bi(2-chloroethyl)amine hydrochloride"], "SMILES": "N(CCCl)CCCl.Cl", "physical_data": {"Molecular Weight": "", "Molecular Formula": "C4H9Cl2N.ClH", "Melting Point": "210 \u00b0C"}}