{"cas_no": "821-55-6", "cn_name": "2-\u58ec\u916e", "en_name": ["2-Nonanone", "2-Nonanone", "Methyl heptyl ketone", "Heptyl methyl ketone", "Methyl n-heptyl ketone", "NSC 14760"], "SMILES": "C(CCCCC)CC(C)=O", "physical_data": {"Molecular Weight": "142.24", "Molecular Formula": "C9H18O", "Boiling Point": "195.3 \u00b0C", "Melting Point": "-7.5 \u00b0C", "Density": "0.8188 g/cm\u00b3 @ Temp: 22 \u00b0C"}}