{"cas_no": "821-95-4", "cn_name": "1-\u5341\u4e00\u70ef", "en_name": ["1-Undecene", "1-Undecene", "n-1-Undecene", "\u03b1-Undecene", "NSC 73983"], "SMILES": "C(CCCCC)CCCC=C", "physical_data": {"Molecular Weight": "154.29", "Molecular Formula": "C11H22", "Boiling Point": "192.7 \u00b0C @ Press: 760 Torr", "Melting Point": "-49.2 \u00b0C", "Density": "0.7503 g/cm\u00b3 @ Temp: 20 \u00b0C"}}