{"cas_no": "821-10-3", "cn_name": "1,4-\u4e8c\u6c2f-2-\u4e01\u7094", "en_name": ["1,4-Dichloro-2-butyne", "2-Butyne, 1,4-dichloro-", "1,4-Dichloro-2-butyne", "1,4-Dichlorobutyne", "Bis(chloromethyl)acetylene", "NSC 30603"], "SMILES": "C(#CCCl)CCl", "physical_data": {"Molecular Weight": "122.98", "Molecular Formula": "C4H4Cl2", "Boiling Point": "165.5 \u00b0C", "Melting Point": "162-165 \u00b0C", "Density": "1.258 g/cm\u00b3 @ Temp: 20 \u00b0C"}}