{"cas_no": "821-11-4", "cn_name": "\u53cd-2-\u4e01\u70ef-1,4-\u4e8c\u9187", "en_name": ["trans-2-Butene-1,4-diol", "2-Butene-1,4-diol, (2E)-", "2-Butene-1,4-diol, (E)-", "2-Butene-1,4-diol, trans-", "(2E)-2-Butene-1,4-diol", "trans-2-Butene-1,4-diol", "(E)-2-Butene-1,4-diol", "Penitricin C", "(E)-2-Butene-1,4-diol", "(2E)-But-2-ene-1,4-diol", "trans-2-Buten-1,4-diol"], "SMILES": "C(=CCO)CO", "physical_data": {"Molecular Weight": "88.11", "Molecular Formula": "C4H8O2", "Boiling Point": "131.5 \u00b0C @ Press: 12 Torr", "Melting Point": "25 \u00b0C", "Density": "1.0687 g/cm\u00b3 @ Temp: 20 \u00b0C"}}