{"cas_no": "82104-74-3", "cn_name": "5-\u6c30\u57fa\u82ef\u915e", "en_name": ["5-Cyanophthalide", "5-Isobenzofurancarbonitrile, 1,3-dihydro-1-oxo-", "1,3-Dihydro-1-oxo-5-isobenzofurancarbonitrile", "5-Cyanophthalide", "1-Oxo-1,3-dihydroisobenzofuran-5-carbonitrile", "1-Oxo-3H-2-benzofuran-5-carbonitrile", "1-Oxo-1,3-dihydro-2-benzofuran-5-carbonitrile"], "SMILES": "O=C1C=2C(=CC(C#N)=CC2)CO1", "physical_data": {"Molecular Weight": "159.14", "Molecular Formula": "C9H5NO2", "Melting Point": "202 \u00b0C"}}