{"cas_no": "82113-65-3", "cn_name": "\u53cc\u4e09\u6c1f\u7532\u70f7\u78fa\u9170\u4e9a\u80fa", "en_name": ["Bis(trifluoromethanesulfonyl)imide", "Methanesulfonamide, 1,1,1-trifluoro-N-[(trifluoromethyl)sulfonyl]-", "1,1,1-Trifluoro-N-[(trifluoromethyl)sulfonyl]methanesulfonamide", "Bis(trifluoromethylsulfonyl)amine", "Bis(trifluoromethylsulfonyl)imide", "Bis(trifluoromethanesulfonyl)imide", "Bis(trifluoromethanesulfonyl)amine", "Triflimide", "Triflic imide", "1,1,1-Trifluoro-N-[(trifluoromethyl)sulfonyl]methanesulfonimide", "Trifluoromethanesulfonimide", "Bis(trifluoromethanesulfonyl)amide", "Bis(trifluoromethane)sulfonimide", "Bis(trifluormethylsulfonyl)imide", "1,1,1-Trifluoro-N-trifluoromethanesulfonylmethanesulfonamide", "Trifluoromethane sulfonylimide", "HNTf2", "Bistriflimide"], "SMILES": "S(NS(C(F)(F)F)(=O)=O)(C(F)(F)F)(=O)=O", "physical_data": {"Molecular Weight": "281.15", "Molecular Formula": "C2HF6NO4S2", "Boiling Point": "90 \u00b0C @ Press: 2 x 10<sup>-3</sup> Torr", "Melting Point": "56 \u00b0C", "Density": "1.5-1.6 g/cm\u00b3"}}