{"cas_no": "82121-06-0", "cn_name": "7-\u6eb4-4-\u7f9f\u57fa\u55b9\u5549", "en_name": ["7-Bromo-4-hydroxyquinoline", "4-Quinolinol, 7-bromo-", "7-Bromo-4-quinolinol", "7-Bromo-4-hydroxyquinoline"], "SMILES": "OC=1C2=C(C=C(Br)C=C2)N=CC1", "physical_data": {"Molecular Weight": "224.05", "Molecular Formula": "C9H6BrNO", "Melting Point": "279-281 \u00b0C"}}