{"cas_no": "82159-09-9", "cn_name": "\u4f9d\u5e15\u65af\u4ed6", "en_name": ["Epalrestat", "3-Thiazolidineacetic acid, 5-[(2E)-2-methyl-3-phenyl-2-propen-1-ylidene]-4-oxo-2-thioxo-, (5Z)-", "3-Thiazolidineacetic acid, 5-(2-methyl-3-phenyl-2-propenylidene)-4-oxo-2-thioxo-, (Z,E)-", "3-Thiazolidineacetic acid, 5-[(2E)-2-methyl-3-phenyl-2-propenylidene]-4-oxo-2-thioxo-, (5Z)-", "(5Z)-5-[(2E)-2-Methyl-3-phenyl-2-propen-1-ylidene]-4-oxo-2-thioxo-3-thiazolidineacetic acid", "ONO 2235", "Epalrestat", "Kinedak", "Sorbistat", "Eabeth", "2-[(Z)-5-((E)-2-Methyl-3-phenylallylidene)-4-oxo-2-thioxothiazolidin-3-yl]acetic acid"], "SMILES": "C(C(=CC1=CC=CC=C1)C)=C2C(=O)N(CC(O)=O)C(=S)S2", "physical_data": {"Molecular Weight": "319.40", "Molecular Formula": "C15H13NO3S2", "Melting Point": "210-217 \u00b0C"}}