{"cas_no": "82185-41-9", "cn_name": "\u90bb\u6c28\u57fa\u82ef\u7532\u9178\u82c4\u916f", "en_name": ["Benzyl anthranilate", "Benzoic acid, 2-amino-, phenylmethyl ester", "Anthranilic acid, benzyl ester", "Benzyl o-aminobenzoate", "Benzyl anthranilate", "Benzyl 2-aminobenzoate"], "SMILES": "C(OCC1=CC=CC=C1)(=O)C2=C(N)C=CC=C2", "physical_data": {"Molecular Weight": "227.26", "Molecular Formula": "C14H13NO2", "Melting Point": "79-80 \u00b0C"}}