{"cas_no": "822-36-6", "cn_name": "4-\u7532\u57fa\u54aa\u5511", "en_name": ["4-Methylimidazole", "1H-Imidazole, 5-methyl-", "Imidazole, 4-methyl-", "1H-Imidazole, 4-methyl-", "Imidazole, 4(or 5)-methyl-", "5-Methyl-1H-imidazole", "4-Methylimidazole", "4(or 5)-Methylimidazole", "4(5)-Methylimidazole", "5-Methylimidazole", "4-Methyl-1H-imidazole", "NSC 40744", "1H-4-Methylimidazole"], "SMILES": "CC1=CN=CN1", "physical_data": {"Molecular Weight": "82.10", "Molecular Formula": "C4H6N2", "Boiling Point": "263 \u00b0C", "Melting Point": "56 \u00b0C", "Density": "0.9380 g/cm\u00b3 @ Temp: 153.0 \u00b0C"}}