{"cas_no": "822-85-5", "cn_name": "2-\u6eb4\u73af\u5df1\u916e", "en_name": ["2-Bromocyclohexanone", "Cyclohexanone, 2-bromo-", "Cyclohexanone, 2-bromo-, (\u00b1)-", "2-Bromocyclohexanone", "\u03b1-Bromocyclohexanone", "2-Bromo-1-cyclohexanone", "\u03b1-Monobromocyclohexanone", "(\u00b1)-2-Bromo-1-cyclohexanone"], "SMILES": "BrC1C(=O)CCCC1", "physical_data": {"Molecular Weight": "177.04", "Molecular Formula": "C6H9BrO", "Boiling Point": "89-90 \u00b0C @ Press: 14 Torr", "Melting Point": "74-75 \u00b0C", "Density": "1.350 g/cm\u00b3 @ Temp: 25 \u00b0C"}}