{"cas_no": "822-16-2", "cn_name": "\u786c\u8102\u9178\u94a0", "en_name": ["Sodium stearate", "Octadecanoic acid, sodium salt (1:1)", "Stearic acid, sodium salt", "Octadecanoic acid, sodium salt", "Flexichem B", "Prodhygine", "Sodium stearate", "Sodium octadecanoate", "Bonderlube 235", "AFCO-Chem B 65", "Nonsoul SN 1", "SS 40N", "C-Lube 10", "Serfax MT 90", "Edenor FHTI", "SNA 2000", "AFCO-Chem NA", "SK 1", "Nonsoul SN 15", "Bonderlube 234", "Rhenogran NAST 50ACMF-GE1858", "SN 1", "Daiwax NA", "C 18-98/100MY, sodium salt", "Ligastar NA-R/D", "Nonsoul SN 1W1", "SS 100"], "SMILES": "C(CCCCCCCCCCC)CCCCCC(O)=O.[Na]", "physical_data": {"Molecular Weight": "", "Molecular Formula": "C18H36O2.Na", "Melting Point": "270 \u00b0C", "Density": "1.07 g/cm\u00b3"}}