{"cas_no": "822-12-8", "cn_name": "\u5341\u56db\u70f7\u9178\u94a0\u76d0", "en_name": ["Sodium myristate", "Tetradecanoic acid, sodium salt (1:1)", "Myristic acid, sodium salt", "Tetradecanoic acid, sodium salt", "Sodium myristate", "Sodium tetradecanoate", "Nonsoul MN 1", "Nikkol MK 140", "C 14-98/100MY, sodium salt"], "SMILES": "C(CCCCCCCC)CCCCC(O)=O.[Na]", "physical_data": {"Molecular Weight": "", "Molecular Formula": "C14H28O2.Na", "Melting Point": "330 \u00b0C"}}