{"cas_no": "822-55-9", "cn_name": "4-(\u7f9f\u7532\u57fa)\u54aa\u5511", "en_name": ["1H-Imidazole-5-methanol", "1H-Imidazole-5-methanol", "Imidazole-4-methanol", "1H-Imidazole-4-methanol", "Imidazole-4(or 5)-methanol", "4-(Hydroxymethyl)imidazole", "4-Methylol-1H-imidazole", "4-Imidazolylmethanol", "5-(Hydroxymethyl)imidazole", "NSC 39016", "1H-Imidazol-4-ylmethanol", "1H-Imidazol-5-ylmethanol"], "SMILES": "C(O)C1=CN=CN1", "physical_data": {"Molecular Weight": "98.10", "Molecular Formula": "C4H6N2O", "Melting Point": "93 \u00b0C"}}