{"cas_no": "822-23-1", "cn_name": "\u786c\u8102\u9187\u4e59\u9178\u916f", "en_name": ["Octadecyl acetate", "Acetic acid, octadecyl ester", "1-Octadecanol acetate", "Octadecyl acetate", "Stearyl acetate", "1-Octadecyl acetate", "n-Octadecyl acetate", "NSC 5546"], "SMILES": "C(CCCCCCCCCCCC)CCCCCOC(C)=O", "physical_data": {"Molecular Weight": "312.53", "Molecular Formula": "C20H40O2", "Boiling Point": "172.4 \u00b0C @ Press: 1.5 Torr", "Melting Point": "34.5 \u00b0C"}}