{"cas_no": "822-20-8", "cn_name": "\u4e59\u9178\u6b63\u5341\u4e03\u70f7\u57fa\u916f", "en_name": ["1-Heptadecanol, 1-acetate", "1-Heptadecanol, 1-acetate", "1-Heptadecanol, acetate", "n-Heptadecyl acetate", "Heptadecyl acetate", "1-Heptadecyl acetate"], "SMILES": "C(CCCCCCCCCCCC)CCCCOC(C)=O", "physical_data": {"Molecular Weight": "298.50", "Molecular Formula": "C19H38O2", "Boiling Point": "123-130 \u00b0C @ Press: 1-2 Torr"}}