{"cas_no": "822-86-6", "cn_name": "\u53cd\u5f0f-1,2-\u4e8c\u6c2f\u73af\u5df1\u70f7", "en_name": ["trans-1,2-Dichlorocyclohexane", "Cyclohexane, 1,2-dichloro-, (1R,2R)-rel-", "Cyclohexane, 1,2-dichloro-, trans-", "rel-(1R,2R)-1,2-Dichlorocyclohexane", "trans-1,2-Dichlorocyclohexane", "1,2-trans-Dichlorocyclohexane"], "SMILES": "ClC1C(Cl)CCCC1", "physical_data": {"Molecular Weight": "153.05", "Molecular Formula": "C6H10Cl2", "Boiling Point": "193.5 \u00b0C", "Melting Point": "-6.5 \u00b0C", "Density": "1.1710 g/cm\u00b3 @ Temp: 30 \u00b0C"}}