{"cas_no": "822-87-7", "cn_name": "2-\u6c2f\u73af\u5df1\u916e", "en_name": ["2-Chlorocyclohexanone", "Cyclohexanone, 2-chloro-", "Cyclohexanone, 2-chloro-, (\u00b1)-", "2-Chlorocyclohexanone", "\u03b1-Chlorocyclohexanone", "2-Chlorocyclohexan-1-one", "(\u00b1)-2-Chloro-1-cyclohexanone", "(\u00b1)-2-Chlorocyclohexanone", "NSC 12439"], "SMILES": "ClC1C(=O)CCCC1", "physical_data": {"Molecular Weight": "132.59", "Molecular Formula": "C6H9ClO", "Boiling Point": "120-130 \u00b0C @ Press: 25 Torr", "Melting Point": "23 \u00b0C", "Density": "1.161 g/cm\u00b3 @ Temp: 20 \u00b0C"}}