{"cas_no": "822-39-9", "cn_name": "2-\u6c2f-1,3,2-\u4e8c\u6c27\u78f7\u6742\u73af\u620a\u70f7", "en_name": ["2-Chloro-1,3,2-dioxaphospholane", "1,3,2-Dioxaphospholane, 2-chloro-", "Phosphorochloridous acid, cyclic ethylene ester", "Ethylene phosphorochloridite", "Ethylene glycol, cyclic phosphorochloridite", "2-Chloro-1,3,2-dioxaphospholane", "Ethylene chlorophosphite", "Cyclic ethylene chlorophosphite", "Cyclic ethylene phosphorochloridite", "Cyclic O,O-ethylene phosphorochloridite", "Ethylene glycol chlorophosphite", "2-Chloro-2-oxa-1,3,2-dioxaphospholane", "2-Chloro-1,3,2-dioxaphospholidine"], "SMILES": "ClP1OCCO1", "physical_data": {"Molecular Weight": "126.48", "Molecular Formula": "C2H4ClO2P", "Boiling Point": "66-68 \u00b0C @ Press: 47 Torr", "Density": "1.4199 g/cm\u00b3 @ Temp: 20 \u00b0C"}}