{"cas_no": "822-08-2", "cn_name": "1\uff0c11-\u5341\u4e00\u78b3\u80fa", "en_name": ["1,11-Undecanediamine", "1,11-Undecanediamine", "Undecamethylenediamine", "1,11-Diaminoundecane", "NSC 59818", "1,11-Undecamethylenediamine"], "SMILES": "C(CCCCCN)CCCCCN", "physical_data": {"Molecular Weight": "186.34", "Molecular Formula": "C11H26N2", "Boiling Point": "149-152 \u00b0C @ Press: 10 Torr", "Melting Point": "58 \u00b0C"}}