{"cas_no": "822-13-9", "cn_name": "1-\u6c2f\u5341\u4e09\u70f7", "en_name": ["1-Chlorotridecane", "Tridecane, 1-chloro-", "1-Chlorotridecane", "Tridecyl chloride"], "SMILES": "C(CCCCCCCl)CCCCCC", "physical_data": {"Molecular Weight": "218.81", "Molecular Formula": "C13H27Cl", "Boiling Point": "148-149 \u00b0C @ Press: 9.5 Torr", "Melting Point": "6 \u00b0C"}}