{"cas_no": "822-67-3", "cn_name": "2-\u73af\u5df1\u70ef\u9187", "en_name": ["2-Cyclohexen-1-ol", "2-Cyclohexen-1-ol", "Cyclohexen-3-ol", "2-Cyclohexenol", "3-Hydroxycyclohexene", "1-Cyclohexen-3-ol", "1-Hydroxy-2-cyclohexene", "(\u00b1)-2-Cyclohexen-1-ol", "3-Hydroxy-1-cyclohexene", "NSC 64656", "2-Cyclohexenyl alcohol"], "SMILES": "OC1CCCC=C1", "physical_data": {"Molecular Weight": "98.14", "Molecular Formula": "C6H10O", "Boiling Point": "164 \u00b0C", "Melting Point": "107-108 \u00b0C", "Density": "1.00 g/cm\u00b3 @ Temp: 28 \u00b0C"}}