{"cas_no": "822-06-0", "cn_name": "\u516d\u4e9a\u7532\u57fa\u4e8c\u5f02\u6c30\u9178\u916f", "en_name": ["Hexamethylene diisocyanate", "Hexane, 1,6-diisocyanato-", "Isocyanic acid, hexamethylene ester", "1,6-Diisocyanatohexane", "Hexamethylene diisocyanate", "1,6-Hexamethylene diisocyanate", "Hexane 1,6-diisocyanate", "1,6-Hexylene diisocyanate", "HDI", "HMDI", "NSC 11687", "GMDI", "1,6-Hexane diisocyanate", "HXT", "1,6-Diisocyanatohexamethylene", "Coronate HDI", "H 106273", "CK 164"], "SMILES": "C(CCCN=C=O)CCN=C=O", "physical_data": {"Molecular Weight": "168.19", "Molecular Formula": "C8H12N2O2", "Boiling Point": "255 \u00b0C", "Melting Point": "-67 \u00b0C", "Density": "1.04 g/cm\u00b3 @ Temp: 25 \u00b0C"}}