{"cas_no": "822-48-0", "cn_name": "3-\u6c2f\u7532\u57fa-3-\u7532\u57fa\u6c27\u6742\u73af\u4e01\u70f7", "en_name": ["3-Chloromethyl-3-methyloxacyclobutane", "Oxetane, 3-(chloromethyl)-3-methyl-", "3-(Chloromethyl)-3-methyloxetane", "3-Methyl-3-(chloromethyl)oxacyclobutane", "3-Chloromethyl-3-methyloxetane", "3-Chloromethyl-3-methyloxacyclobutane"], "SMILES": "C(Cl)C1(C)COC1", "physical_data": {"Molecular Weight": "120.58", "Molecular Formula": "C5H9ClO", "Boiling Point": "154.8 \u00b0C", "Melting Point": "138 \u00b0C", "Density": "1.093-6 g/cm\u00b3 @ Temp: 20 \u00b0C"}}