{"cas_no": "822-38-8", "cn_name": "\u4e09\u786b\u4ee3\u78b3\u9178\u4e59\u70ef\u916f", "en_name": ["1,3-Dithiolane-2-thione", "1,3-Dithiolane-2-thione", "Carbonic acid, trithio-, cyclic ethylene ester", "Ethylene glycol, cyclic trithiocarbonate", "Ethylene trithiocarbonate", "Trithiocarbonic acid, cyclic ethylene ester", "Cyclic ethylene trithiocarbonate", "4,5-Dihydro-1,3-Dithiole-2-thione", "NSC 6746"], "SMILES": "S=C1SCCS1", "physical_data": {"Molecular Weight": "136.26", "Molecular Formula": "C3H4S3", "Boiling Point": "95-105 \u00b0C @ Press: 0.01 Torr", "Melting Point": "37 \u00b0C"}}