{"cas_no": "82205-58-1", "cn_name": "1-(5-\u785d\u57fa\u5421\u5576-2-\u57fa)\u54cc\u55ea", "en_name": ["4-(5-Nitropyridin-2-yl)piperazine", "Piperazine, 1-(5-nitro-2-pyridinyl)-", "Piperazine, 1-(5-nitro-2-pyridyl)-", "1-(5-Nitro-2-pyridinyl)piperazine", "5-Nitro-2-piperazinylpyridine", "1-(5-Nitropyridin-2-yl)piperazine", "4-(5-Nitropyridin-2-yl)piperazine", "N-(5-Nitropyridin-2-yl)piperazine"], "SMILES": "N(=O)(=O)C1=CC=C(N=C1)N2CCNCC2", "physical_data": {"Molecular Weight": "208.22", "Molecular Formula": "C9H12N4O2", "Melting Point": "84-85 \u00b0C"}}