{"cas_no": "82211-24-3", "cn_name": "\u6297\u5012\u80fa", "en_name": ["Inabenfide", "4-Pyridinecarboxamide, N-[4-chloro-2-(hydroxyphenylmethyl)phenyl]-", "N-[4-Chloro-2-(hydroxyphenylmethyl)phenyl]-4-pyridinecarboxamide", "Inabenfide", "Seritard", "CGR 811"], "SMILES": "C(O)(C1=C(NC(=O)C=2C=CN=CC2)C=CC(Cl)=C1)C3=CC=CC=C3", "physical_data": {"Molecular Weight": "338.79", "Molecular Formula": "C19H15ClN2O2", "Melting Point": "211 \u00b0C"}}