{"cas_no": "82231-52-5", "cn_name": "5-\u7532\u57fa-4-\u6eb4-1H-\u5421\u5511-3-\u7fa7\u9178", "en_name": ["4-Bromo-5-methyl-1H-pyrazole-3-carboxylic acid", "1H-Pyrazole-3-carboxylic acid, 4-bromo-5-methyl-", "4-Bromo-5-methyl-1H-pyrazole-3-carboxylic acid", "3-Carboxy-4-bromo-5-methylpyrazole", "NSC 215265"], "SMILES": "C(O)(=O)C=1C(Br)=C(C)NN1", "physical_data": {"Molecular Weight": "205.01", "Molecular Formula": "C5H5BrN2O2", "Melting Point": "256-257 \u00b0C"}}