{"cas_no": "82248-59-7", "cn_name": "\u76d0\u9178\u6258\u83ab\u897f\u6c40", "en_name": ["Atomoxetine hydrochloride", "Benzenepropanamine, N-methyl-\u03b3-(2-methylphenoxy)-, hydrochloride (1:1), (\u03b3R)-", "Benzenepropanamine, N-methyl-\u03b3-(2-methylphenoxy)-, hydrochloride, (R)-", "Benzenepropanamine, N-methyl-\u03b3-(2-methylphenoxy)-, hydrochloride, (\u03b3R)-", "LY 139603", "Tomoxetine hydrochloride", "(R)-(-)-Tomoxetine hydrochloride", "(R)-Tomoxetine hydrochloride", "Atomoxetine hydrochloride", "(R)-(-)-N-Methyl-3-[(2-methylphenyl)oxy]-3-phenyl-1-aminopropane hydrochloride", "Strattera", "(R)-N-Methyl-3-(2-methylphenoxy)-3-phenylpropylamine hydrochloride", "Atemoxetine hydrochloride", "(R)-N-Methyl-3-phenyl-3-(o-tolyloxy)propan-1-amine hydrochloride"], "SMILES": "C(OC1=C(C)C=CC=C1)(CCNC)C2=CC=CC=C2.Cl", "physical_data": {"Molecular Weight": "", "Molecular Formula": "C17H21NO.ClH", "Melting Point": "160-161 \u00b0C"}}