{"cas_no": "82294-70-0", "cn_name": "4-\u7532\u57fa\u567b\u5511-5-\u7532\u919b", "en_name": ["4-Methyl-5-thiazolecarboxaldehyde", "5-Thiazolecarboxaldehyde, 4-methyl-", "4-Methyl-5-thiazolecarboxaldehyde", "4-Methyl-5-formyl-1,3-thiazole", "4-Methyl-5-formylthiazole", "4-Methylthiazole-5-carbaldehyde"], "SMILES": "C(=O)C1=C(C)N=CS1", "physical_data": {"Molecular Weight": "127.16", "Molecular Formula": "C5H5NOS", "Melting Point": "75 \u00b0C"}}