{"cas_no": "823-78-9", "cn_name": "3-\u6eb4\u82c4\u6eb4", "en_name": ["3-Bromobenzyl bromide", "Benzene, 1-bromo-3-(bromomethyl)-", "Toluene, m,\u03b1-dibromo-", "1-Bromo-3-(bromomethyl)benzene", "3-Bromobenzyl bromide", "m-Bromobenzyl bromide", "\u03b1,m-Dibromotoluene", "3-(Bromomethyl)bromobenzene", "1-Bromomethyl-3-bromobenzene"], "SMILES": "C(Br)C1=CC(Br)=CC=C1", "physical_data": {"Molecular Weight": "249.93", "Molecular Formula": "C7H6Br2", "Melting Point": "39-41 \u00b0C"}}