{"cas_no": "823-76-7", "cn_name": "\u4e59\u9170\u57fa\u73af\u5df1\u70f7", "en_name": ["Cyclohexyl methyl ketone", "Ethanone, 1-cyclohexyl-", "Ketone, cyclohexyl methyl", "1-Cyclohexylethanone", "Acetophenone, hexahydro-", "Cyclohexane, acetyl-", "Acetylcyclohexane", "Cyclohexyl methyl ketone", "Methyl cyclohexyl ketone", "Cyclohexylethanone", "1-Acetylcyclohexane", "1-Cyclohexylacetaldehyde", "NSC 16249", "1-Cyclohexylethan-1-one", "1-Cyclohexylethane-1-one"], "SMILES": "C(C)(=O)C1CCCCC1", "physical_data": {"Molecular Weight": "126.20", "Molecular Formula": "C8H14O", "Boiling Point": "180.5 \u00b0C", "Melting Point": "49.5-51 \u00b0C", "Density": "0.9254 g/cm\u00b3 @ Temp: 16 \u00b0C"}}