{"cas_no": "823-36-9", "cn_name": "2-\u4e59\u57fa-1,3-\u73af\u620a\u4e8c\u916e", "en_name": ["2-Ethyl-1,3-cyclopentanedione", "1,3-Cyclopentanedione, 2-ethyl-", "2-Ethyl-1,3-cyclopentanedione"], "SMILES": "C(C)C1C(=O)CCC1=O", "physical_data": {"Molecular Weight": "126.15", "Molecular Formula": "C7H10O2", "Melting Point": "173-175 \u00b0C"}}