{"cas_no": "823-40-5", "cn_name": "2,6-\u4e8c\u6c28\u57fa\u7532\u82ef", "en_name": ["2,6-Diaminotoluene", "1,3-Benzenediamine, 2-methyl-", "Toluene-2,6-diamine", "2-Methyl-1,3-benzenediamine", "2,6-Diaminotoluene", "2,6-Tolylenediamine", "2,6-Diamino-1-methylbenzene", "2-Methyl-1,3-phenylenediamine", "2-Methyl-m-phenylenediamine", "2,6-Toluylenediamine", "1,3-Diamino-2-methylbenzene", "NSC 147490", "2,6-Diaminetoluene"], "SMILES": "CC1=C(N)C=CC=C1N", "physical_data": {"Molecular Weight": "122.17", "Molecular Formula": "C7H10N2", "Boiling Point": "289 \u00b0C", "Melting Point": "106 \u00b0C"}}