{"cas_no": "823-57-4", "cn_name": "2-\u6eb4-5-\u6c2f\u82ef\u80fa", "en_name": ["2-Bromo-5-chlorobenzenamine", "Benzenamine, 2-bromo-5-chloro-", "Aniline, 2-bromo-5-chloro-", "2-Bromo-5-chlorobenzenamine", "2-Bromo-5-chloroaniline", "2-Bromo-5-chloro-phenylamine"], "SMILES": "NC1=C(Br)C=CC(Cl)=C1", "physical_data": {"Molecular Weight": "206.47", "Molecular Formula": "C6H5BrClN", "Boiling Point": "127-128 \u00b0C @ Press: 7 Torr", "Melting Point": "59 \u00b0C"}}