{"cas_no": "823-85-8", "cn_name": "4-\u6c1f\u82ef\u80bc\u76d0\u9178\u76d0", "en_name": ["(4-Fluorophenyl)hydrazine hydrochloride", "Hydrazine, (4-fluorophenyl)-, hydrochloride (1:1)", "Hydrazine, (p-fluorophenyl)-, monohydrochloride", "Hydrazine, (4-fluorophenyl)-, monohydrochloride", "Hydrazine, (p-fluorophenyl)-, hydrochloride", "(p-Fluorophenyl)hydrazine hydrochloride", "(4-Fluorophenyl)hydrazine hydrochloride", "1-(4-Fluorophenyl)hydrazine hydrochloride", "(4-Fluorophenyl)hydrazine monohydrochloride"], "SMILES": "N(N)C1=CC=C(F)C=C1.Cl", "physical_data": {"Molecular Weight": "", "Molecular Formula": "C6H7FN2.ClH", "Melting Point": "200 \u00b0C (decomp)"}}