{"cas_no": "823-82-5", "cn_name": "2,5-\u4e8c\u7532\u9170\u57fa\u544b\u5583", "en_name": ["2,5-Furandicarboxaldehyde", "2,5-Furandicarboxaldehyde", "Furan-2,5-dialdehyde", "5-Formylfurfural", "2,5-Furandicarbaldehyde", "2,5-Diformylfuran", "NSC 618088", "2,5-Bis(carboxaldehyde)furan", "2,5-Furandicarboxyaldehyde"], "SMILES": "C(=O)C=1OC(C=O)=CC1", "physical_data": {"Molecular Weight": "124.09", "Molecular Formula": "C6H4O3", "Melting Point": "109-110 \u00b0C"}}