{"cas_no": "823-22-3", "cn_name": "\u4e01\u4f4d\u5df1\u5185\u916f", "en_name": ["(\u00b1)-\u03b4-Hexalactone", "2H-Pyran-2-one, tetrahydro-6-methyl-", "Hexanoic acid, 5-hydroxy-, lactone", "Tetrahydro-6-methyl-2H-pyran-2-one", "Hexanoic acid, 5-hydroxy-, \u03b4-lactone", "5-Hydroxyhexanoic acid lactone", "\u03b4-Hexalactone", "\u03b4-Methyl-\u03b4-valerolactone", "\u03b4-Caprolactone", "6-Methylvalerolactone", "\u03b4-Hexanolide", "(\u00b1)-5-Hexanolide", "(RS)-\u03b4-Hexalactone", "(\u00b1)-\u03b4-Hexalactone", "NSC 134774", "NSC 32863", "6-Methyl-\u03b4-valerolactone", "6-Methyltetrahydropyran-2-one", "5-Hexanolide", "6-Methyl-2H-tetrahydropyran-2-one", "\u03b4-Hexanolactone"], "SMILES": "CC1OC(=O)CCC1", "physical_data": {"Molecular Weight": "114.14", "Molecular Formula": "C6H10O2", "Boiling Point": "101-102 \u00b0C @ Press: 11 Torr", "Melting Point": "16-18 \u00b0C", "Density": "1.0162 g/cm\u00b3 @ Temp: 20 \u00b0C"}}