{"cas_no": "823-96-1", "cn_name": "\u4e09\u7532\u57fa\u73af\u4e09\u787c\u6c27\u70f7", "en_name": ["Trimethylboroxin", "Boroxin, 2,4,6-trimethyl-", "Boroxin, trimethyl-", "2,4,6-Trimethylboroxin", "Methaneboronic anhydride", "Trimethylboroxin", "2,4,6-Trimethylboroxine", "2,4,6-Trimethyl-1,3,5,2,4,6-trioxatriborinane", "Trimethyl-1,3,5,2,4,6-trioxatriborinane"], "SMILES": "CB1OB(C)OB(C)O1", "physical_data": {"Molecular Weight": "125.53", "Molecular Formula": "C3H9B3O3", "Boiling Point": "79.5-80.0 \u00b0C @ Press: 732 Torr", "Melting Point": "-38 \u00b0C"}}