{"cas_no": "823-56-3", "cn_name": "3,5-\u4e8c\u6c2f-2-\u6c1f\u5421\u5576", "en_name": ["3,5-Dichloro-2-fluoropyridine", "Pyridine, 3,5-dichloro-2-fluoro-", "3,5-Dichloro-2-fluoropyridine", "2-Fluoro-3,5-dichloropyridine"], "SMILES": "ClC1=C(F)N=CC(Cl)=C1", "physical_data": {"Molecular Weight": "165.98", "Molecular Formula": "C5H2Cl2FN", "Boiling Point": "173-174 \u00b0C @ Press: 760 Torr", "Melting Point": "38-39 \u00b0C"}}