{"cas_no": "823221-94-9", "cn_name": "2-\u6eb4-6-\u6c2f-4-(\u4e09\u6c1f\u7532\u57fa)\u5421\u5576", "en_name": ["2-Bromo-6-chloro-4-(trifluoromethyl)pyridine", "Pyridine, 2-bromo-6-chloro-4-(trifluoromethyl)-", "2-Bromo-6-chloro-4-(trifluoromethyl)pyridine"], "SMILES": "C(F)(F)(F)C=1C=C(Br)N=C(Cl)C1", "physical_data": {"Molecular Weight": "260.44", "Molecular Formula": "C6H2BrClF3N", "Boiling Point": "68-70 \u00b0C @ Press: 12 Torr", "Density": "1.770 g/cm\u00b3 @ Temp: 20 \u00b0C"}}