{"cas_no": "823221-97-2", "cn_name": "2-\u7898-3-\u6eb4-5-\u6c2f\u5421\u5576", "en_name": ["3-Bromo-5-chloro-2-iodopyridine", "Pyridine, 3-bromo-5-chloro-2-iodo-", "3-Bromo-5-chloro-2-iodopyridine", "2-Iodo-3-bromo-5-chloropyridine"], "SMILES": "BrC1=C(I)N=CC(Cl)=C1", "physical_data": {"Molecular Weight": "318.34", "Molecular Formula": "C5H2BrClIN", "Melting Point": "58-60 \u00b0C"}}