{"cas_no": "82353-56-8", "cn_name": "(R)-2-(\u53d4\u4e01\u6c27\u7fb0\u57fa\u6c28\u57fa)\u4e19\u919b", "en_name": ["1,1-Dimethylethyl N-[(1R)-1-methyl-2-oxoethyl]carbamate", "Carbamic acid, N-[(1R)-1-methyl-2-oxoethyl]-, 1,1-dimethylethyl ester", "Carbamic acid, (1-methyl-2-oxoethyl)-, 1,1-dimethylethyl ester, (R)-", "Carbamic acid, [(1R)-1-methyl-2-oxoethyl]-, 1,1-dimethylethyl ester", "1,1-Dimethylethyl N-[(1R)-1-methyl-2-oxoethyl]carbamate", "N-tert-Butoxycarbonyl-D-alaninal", "(R)-2-(tert-Butoxycarbonylamino)propanal", "((R)-1-Methyl-2-oxo-ethyl)carbamic acid tert-butyl ester", "((R)-1-Methyl-2-oxoethyl)carbamic acid tert-butyl ester", "(R)-2-(tert-Butoxycarbonylamino)propionaldehyde", "tert-Butyl ((R)-1-oxopropan-2-yl)carbamate", "(R)-(1-Methyl-2-oxo-ethyl)-carbamic acid tert-butyl ester", "(R)-tert-Butyl (1-oxopropan-2-yl)carbamate", "tert-Butyl-N-[(1R)-1-methyl-2-oxo-ethyl]carbamate"], "SMILES": "O(C(C)(C)C)C(NC(C=O)C)=O", "physical_data": {"Molecular Weight": "173.21", "Molecular Formula": "C8H15NO3", "Melting Point": "88 \u00b0C"}}