{"cas_no": "82380-18-5", "cn_name": "2-\u6c1f-4-\u7f9f\u57fa\u82ef\u8148", "en_name": ["2-Fluoro-4-hydroxybenzonitrile", "Benzonitrile, 2-fluoro-4-hydroxy-", "2-Fluoro-4-hydroxybenzonitrile", "3-Fluoro-4-cyanophenol", "4-Hydroxy-2-fluorobenzonitrile", "4-Cyano-3-fluorophenol", "4-Nitrile-3-fluorophenol"], "SMILES": "C(#N)C1=C(F)C=C(O)C=C1", "physical_data": {"Molecular Weight": "137.11", "Molecular Formula": "C7H4FNO", "Melting Point": "124-125 \u00b0C"}}