{"cas_no": "824-42-0", "cn_name": "2-\u7f9f\u57fa-3-\u7532\u57fa\u82ef\u7532\u919b", "en_name": ["3-Methylsalicylaldehyde", "Benzaldehyde, 2-hydroxy-3-methyl-", "2,3-Cresotaldehyde", "2-Hydroxy-3-methylbenzaldehyde", "o-Homosalicylaldehyde", "3-Methylsalicylaldehyde", "2-Hydroxy-m-tolualdehyde", "3-Methyl-2-hydroxybenzaldehyde"], "SMILES": "C(=O)C1=C(O)C(C)=CC=C1", "physical_data": {"Molecular Weight": "136.15", "Molecular Formula": "C8H8O2", "Boiling Point": "55-57 \u00b0C @ Press: 1 Torr", "Melting Point": "17 \u00b0C"}}