{"cas_no": "824-72-6", "cn_name": "\u82ef\u81a6\u9170\u4e8c\u6c2f", "en_name": ["Phenylphosphonic dichloride", "Phosphonic dichloride, P-phenyl-", "Phosphonic dichloride, phenyl-", "P-Phenylphosphonic dichloride", "Benzenephosphonyl chloride", "Phenylphosphonic acid dichloride", "Phenylphosphonyl dichloride", "Phenyldichlorophosphine oxide", "Phenylphosphonic dichloride", "Benzenephosphonic dichloride", "Dichlorophenylphosphine oxide", "Phenylphosphoryl dichloride", "NSC 66477"], "SMILES": "P(Cl)(Cl)(=O)C1=CC=CC=C1", "physical_data": {"Molecular Weight": "194.98", "Molecular Formula": "C6H5Cl2OP", "Boiling Point": "258 \u00b0C", "Melting Point": "1 \u00b0C", "Density": "1.197 g/cm\u00b3 @ Temp: 25 \u00b0C"}}