{"cas_no": "824-79-3", "cn_name": "\u5bf9\u7532\u82ef\u4e9a\u78fa\u9178\u94a0", "en_name": ["Sodium p-toluenesulfinate", "Benzenesulfinic acid, 4-methyl-, sodium salt (1:1)", "p-Toluenesulfinic acid, sodium salt", "Benzenesulfinic acid, 4-methyl-, sodium salt", "Sodium p-toluenesulfinate", "Sodium 4-methylbenzenesulfinate", "Sodium p-tolylsulfinate", "Sodium 4-toluenesulfinate", "Sodium p-methylbenzenesulfinate", "4-Methylbenzenesulfinic acid sodium salt", "NSC 4871", "NSC 9077", "Sodium p-toluenesulfinite", "p-Toluenesulfinic acid sodium salt"], "SMILES": "S(=O)(O)C1=CC=C(C)C=C1.[Na]", "physical_data": {"Molecular Weight": "", "Molecular Formula": "C7H8O2S.Na", "Melting Point": "&gt;290 \u00b0C (decomp)"}}