{"cas_no": "824-69-1", "cn_name": "2,5-\u4e8c\u6c2f\u5bf9\u82ef\u4e8c\u915a", "en_name": ["2,5-Dichlorohydroquinone", "1,4-Benzenediol, 2,5-dichloro-", "Hydroquinone, 2,5-dichloro-", "2,5-Dichloro-1,4-benzenediol", "2,5-Dichlorohydroquinone", "2,5-Dichloro-p-hydroquinone", "2,5-Dichloro-p-benzohydroquinone", "2,5-Dichloro-1,4-hydroquinone", "2,5-Dichloro-1,4-dihydroxybenzene", "2,5-Dichloro-4-hydroxyphenol", "NSC 48667"], "SMILES": "ClC1=C(O)C=C(Cl)C(O)=C1", "physical_data": {"Molecular Weight": "179.00", "Molecular Formula": "C6H4Cl2O2", "Melting Point": "166-167 \u00b0C"}}