{"cas_no": "824-94-2", "cn_name": "4-\u7532\u6c27\u57fa\u6c2f\u82c4", "en_name": ["4-Methoxybenzyl chloride", "Benzene, 1-(chloromethyl)-4-methoxy-", "Anisole, p-(chloromethyl)-", "1-(Chloromethyl)-4-methoxybenzene", "p-Methoxybenzyl chloride", "4-Methoxybenzyl chloride", "p-Anisyl chloride", "p-(Chloromethyl)anisole", "\u03b1-Chloro-4-methoxytoluene", "4-(Chloromethyl)anisole", "p-(Chloromethyl)(methoxy)benzene", "4-(Chloromethyl)-1-methoxybenzene", "NSC 172955", "1-(Chloromethyl)-4-(methyloxy)benzene", "\u03b1-Chloro-p-methoxytoluene", "4-(Chloromethyl)phenyl methyl ether", "4-Methyloxybenzyl chloride", "PBMCl", "PMBCl"], "SMILES": "C(Cl)C1=CC=C(OC)C=C1", "physical_data": {"Molecular Weight": "156.61", "Molecular Formula": "C8H9ClO", "Boiling Point": "262.5 \u00b0C", "Melting Point": "24.5 \u00b0C", "Density": "1.072 g/cm\u00b3 @ Temp: 0 \u00b0C"}}