{"cas_no": "824-55-5", "cn_name": "1-(\u6c2f\u7532\u57fa)-2,4-\u4e8c\u7532\u82ef", "en_name": ["2,4-Dimethylbenzyl chloride", "Benzene, 1-(chloromethyl)-2,4-dimethyl-", "1-(Chloromethyl)-2,4-dimethylbenzene", "2,4-Dimethylbenzyl chloride", "4-(Chloromethyl)-m-xylene", "1,3-Dimethyl-4-chloromethylbenzene", "NSC 405479", "NSC 574"], "SMILES": "C(Cl)C1=C(C)C=C(C)C=C1", "physical_data": {"Molecular Weight": "154.64", "Molecular Formula": "C9H11Cl", "Boiling Point": "215.5 \u00b0C", "Melting Point": "68-69 \u00b0C", "Density": "1.0597 g/cm\u00b3 @ Temp: 20 \u00b0C"}}