{"cas_no": "824-46-4", "cn_name": "2-\u7532\u6c27\u57fa\u5bf9\u82ef\u4e8c\u915a", "en_name": ["2-Methoxyhydroquinone", "1,4-Benzenediol, 2-methoxy-", "Hydroquinone, methoxy-", "2-Methoxy-1,4-benzenediol", "Methoxy-p-benzohydroquinone", "Methoxyhydroquinone", "Methoxyquinol", "o-Methoxyhydroquinone", "2-Methoxyhydroquinone", "2,5-Dihydroxyanisole", "1,4-Dihydroxy-3-methoxybenzene", "1,4-Dihydroxy-2-methoxybenzene", "Monomethoxyhydroquinone", "3-Methoxy-1,4-benzenediol", "4-Hydroxy-2-methoxyphenol", "2-Methoxy-1,4-dihydroxybenzene"], "SMILES": "O(C)C1=C(O)C=CC(O)=C1", "physical_data": {"Molecular Weight": "140.14", "Molecular Formula": "C7H8O3", "Boiling Point": "180 \u00b0C @ Press: 24 Torr", "Melting Point": "89-91 \u00b0C"}}