{"cas_no": "824-45-3", "cn_name": "2,5-\u4e8c\u7532\u57fa\u82c4\u6c2f", "en_name": ["2,5-Dimethylbenzyl chloride", "Benzene, 2-(chloromethyl)-1,4-dimethyl-", "2-(Chloromethyl)-1,4-dimethylbenzene", "2,5-Dimethylbenzyl chloride", "(Chloromethyl)-p-xylene", "2-Chloromethyl-p-xylene", "1-(Chloromethyl)-2,5-dimethylbenzene", "1,4-Dimethyl-2-chloromethylbenzene", "NSC 133437", "2-Chloromethyl-1,4-dimethylbenzene"], "SMILES": "C(Cl)C1=C(C)C=CC(C)=C1", "physical_data": {"Molecular Weight": "154.64", "Molecular Formula": "C9H11Cl", "Boiling Point": "120-121 \u00b0C @ Press: 23 Torr", "Melting Point": "145-147 \u00b0C", "Density": "0.955 g/cm\u00b3 @ Temp: 20 \u00b0C"}}