{"cas_no": "824-98-6", "cn_name": "3-\u7532\u6c27\u57fa\u6c2f\u5316\u82c4", "en_name": ["3-Methoxybenzyl chloride", "Benzene, 1-(chloromethyl)-3-methoxy-", "Anisole, m-(chloromethyl)-", "1-(Chloromethyl)-3-methoxybenzene", "\u03b1-Chloro-m-methoxytoluene", "m-(Chloromethyl)anisole", "3-Methoxybenzyl chloride", "m-Methoxybenzyl chloride", "(3-Methoxyphenyl)methyl chloride", "3-(Chloromethyl)anisole", "NSC 268684", "3-(Chloromethyl)phenyl methyl ether", "5-Methoxybenzyl chloride"], "SMILES": "C(Cl)C1=CC(OC)=CC=C1", "physical_data": {"Molecular Weight": "156.61", "Molecular Formula": "C8H9ClO", "Boiling Point": "124 \u00b0C @ Press: 13 Torr", "Melting Point": "37-41 \u00b0C"}}