{"cas_no": "824-40-8", "cn_name": "\u76ae\u8003\u6797\u7fa7\u9178 N-\u6c27\u5316\u7269", "en_name": ["Picolinic acid N-oxide", "2-Pyridinecarboxylic acid, 1-oxide", "Picolinic acid, 1-oxide", "Pyridine-2-carboxylic acid N-oxide", "Picolinic acid N-oxide", "2-Carboxypyridine N-oxide", "1-Oxopicolinic acid", "NSC 27961", "1-Oxidopyridine-2-carboxylic acid", "2-Carboxypyridine 1-oxide", "2-Carboxypyridin-1-ium-1-olate"], "SMILES": "C(O)(=O)C=1N(=O)=CC=CC1", "physical_data": {"Molecular Weight": "139.11", "Molecular Formula": "C6H5NO3", "Melting Point": "161 \u00b0C"}}