{"cas_no": "824-11-3", "cn_name": "\u4e09\u7f9f\u7532\u57fa\u4e19\u70f7\u4e9a\u78f7\u9178\u916f", "en_name": ["4-Ethyl-2,6,7-trioxa-1-phosphabicyclo[2.2.2]octane", "2,6,7-Trioxa-1-phosphabicyclo[2.2.2]octane, 4-ethyl-", "1,3-Propanediol, 2-ethyl-2-(hydroxymethyl)-, cyclic phosphite (1:1)", "1,3-Propanediol, 2-ethyl-2-(hydroxymethyl)-, cyclic phosphite", "4-Ethyl-2,6,7-trioxa-1-phosphabicyclo[2.2.2]octane", "Trimethylolpropane cyclic phosphite (1:1)", "Trimethylolpropane phosphite", "2-Ethyl-2-hydroxymethyl-1,3-propanediol cyclic phosphite", "1-Ethyl-3,5,8-trioxa-4-phospha[2.2.2]bicyclooctane", "ETPB", "Ethriol phosphite", "4-Ethyl-1-phospha-2,6,7-trioxabicyclo[2.2.2]octane", "NSC 127561"], "SMILES": "C(C)C12COP(OC1)OC2", "physical_data": {"Molecular Weight": "162.12", "Molecular Formula": "C6H11O3P", "Boiling Point": "93-110 \u00b0C @ Press: 3.5-9 Torr", "Melting Point": "53.7 \u00b0C"}}