{"cas_no": "824-75-9", "cn_name": "\u5bf9\u6c1f\u82ef\u7532\u9170\u80fa", "en_name": ["4-Fluorobenzamide", "Benzamide, 4-fluoro-", "Benzamide, p-fluoro-", "4-Fluorobenzamide", "p-Fluorobenzamide", "p-Fluorobenzoic acid amide", "NSC 102765"], "SMILES": "C(N)(=O)C1=CC=C(F)C=C1", "physical_data": {"Molecular Weight": "139.13", "Molecular Formula": "C7H6FNO", "Melting Point": "155.5 \u00b0C"}}