{"cas_no": "824-62-4", "cn_name": "\u53cc\u73af[2.2.1]\u5e9a\u70f7-2-\u7fa7\u9178", "en_name": ["Bicyclo[2.2.1]heptane-2-carboxylic acid", "Bicyclo[2.2.1]heptane-2-carboxylic acid", "2-Norbornanecarboxylic acid", "2-Norcamphanecarboxylic acid"], "SMILES": "C(O)(=O)C1C2CC(C1)CC2", "physical_data": {"Molecular Weight": "140.18", "Molecular Formula": "C8H12O2", "Boiling Point": "125-127 \u00b0C @ Press: 13 Torr", "Melting Point": "221-222 \u00b0C (sublm)"}}