{"cas_no": "824-51-1", "cn_name": "6-\u7532\u57fa-7-\u6c2e\u6742-\u5432\u54da", "en_name": ["6-Methyl-1H-pyrrolo[2,3-b]pyridine", "1H-Pyrrolo[2,3-b]pyridine, 6-methyl-", "6-Methyl-1H-pyrrolo[2,3-b]pyridine"], "SMILES": "CC=1N=C2C(=CC1)C=CN2", "physical_data": {"Molecular Weight": "132.16", "Molecular Formula": "C8H8N2", "Melting Point": "140.3-140.4 \u00b0C"}}