{"cas_no": "82409-02-7", "cn_name": "1,9-\u53cc-BOC-1,5,9-\u4e09\u6c2e\u6742\u58ec\u70f7", "en_name": ["1,1-Dimethylethyl 13,13-dimethyl-11-oxo-12-oxa-2,6,10-triazatetradecanoate", "12-Oxa-2,6,10-triazatetradecanoic acid, 13,13-dimethyl-11-oxo-, 1,1-dimethylethyl ester", "Carbamic acid, (iminodi-3,1-propanediyl)bis-, bis(1,1-dimethylethyl) ester", "1,1-Dimethylethyl 13,13-dimethyl-11-oxo-12-oxa-2,6,10-triazatetradecanoate", "[3-[[3-[(tert-Butoxycarbonyl)amino]propyl]amino]propyl]carbamic acid tert-butyl ester", "1,9-BisBOC-1,5,9-Triazanonane"], "SMILES": "O(C(NCCCNCCCNC(OC(C)(C)C)=O)=O)C(C)(C)C", "physical_data": {"Molecular Weight": "331.45", "Molecular Formula": "C16H33N3O4", "Melting Point": "68.1-70.0 \u00b0C"}}