{"cas_no": "82410-32-0", "cn_name": "\u66f4\u6614\u6d1b\u97e6", "en_name": ["Ganciclovir", "6H-Purin-6-one, 2-amino-1,9-dihydro-9-[[2-hydroxy-1-(hydroxymethyl)ethoxy]methyl]-", "2-Amino-1,9-dihydro-9-[[2-hydroxy-1-(hydroxymethyl)ethoxy]methyl]-6H-purin-6-one", "Biolf 62", "9-(1,3-Dihydroxy-2-propoxymethyl)guanine", "BW 759", "2\u2032-Nor-2\u2032-deoxyguanosine", "BW 759U", "BW-B 759U", "DHPG", "2\u2032-NDG", "Hydroxyacyclovir", "Ganciclovir", "HHEMG", "Gancyclovir", "Vitrasert", "RS 21592", "Ganquard", "Natclovir", "Denosine", "Ganguard", "Nataclovir", "Gengxiluowei", "2-Amino-9-(1,3-dihydroxypropan-2-yloxymethyl)-3H-purin-6-one", "2-Amino-9-(2-hydroxy-1-hydroxymethyl-ethoxymethyl)-1,9-dihydro-purin-6-one", "2-Amino-9-[[(1,3-dihydroxypropan-2-yl)oxy]methyl]-6,9-dihydro-3H-purin-6-one", "Vitrasert Implant", "MeSH ID: D015774"], "SMILES": "C(OC(CO)CO)N1C2=C(N=C1)C(=O)N=C(N)N2", "physical_data": {"Molecular Weight": "255.23", "Molecular Formula": "C9H13N5O4", "Melting Point": "250 \u00b0C (decomp)"}}