{"cas_no": "82419-36-1", "cn_name": "\u6c27\u6c1f\u6c99\u661f", "en_name": ["Ofloxacin", "7H-Pyrido[1,2,3-de]-1,4-benzoxazine-6-carboxylic acid, 9-fluoro-2,3-dihydro-3-methyl-10-(4-methyl-1-piperazinyl)-7-oxo-", "7H-Pyrido[1,2,3-de]-1,4-benzoxazine-6-carboxylic acid, 9-fluoro-2,3-dihydro-3-methyl-10-(4-methyl-1-piperazinyl)-7-oxo-, (\u00b1)-", "9-Fluoro-2,3-dihydro-3-methyl-10-(4-methyl-1-piperazinyl)-7-oxo-7H-pyrido[1,2,3-de]-1,4-benzoxazine-6-carboxylic acid", "DL 8280", "Ofloxacine", "HOE 280", "Ofloxacin", "(\u00b1)-Ofloxacin", "ORF 18489", "PT 01", "Tarivid", "Floxin", "Visiren", "9-Fluoro-3-methyl-10-(4-methyl-1-piperazinyl)-7-oxo-2,3-dihydro-7H-pyrido[1,2,3-de]-1,4-benzoxazine-6-carboxylic acid", "9-Fluoro-2,3-dihydro-3-methyl-10-(N-methylpiperazinyl)-7-oxo-7H-pyrido[1,2,3-de]-1,4-benzoxazine-6-carboxylic acid", "Ocuflox", "Oflox", "Floxal", "Floxil", "Flobacin", "Visren", "Exocin", "Oxaldin", "Oflocet", "Oflocin", "Tariferid", "Ofloxin", "Zanocin", "Oflin", "WP 0405", "Ofxin", "Ofloren", "Oflovir", "Surnor", "Kirol", "Prifloxcin", "Olfo 200", "Prifloxin", "Tarivan", "Meneflox", "Sanke", "Gailuoxian", "Oflicin", "OFLO", "Oquin", "Zenflox", "Traflox", "Otoxin", "9-Fluoro-2,3-dihydro-3-methyl-10-(4-methyl-piperazinyl)-7-oxo-7H-pyrido[1,2,3-de]-1,4-benzoxazine-6-carboxylic acid", "Pyfloxat", "MeSH ID: D015242"], "SMILES": "O=C1C=2C3=C(C(=C(F)C2)N4CCN(C)CC4)OCC(C)N3C=C1C(O)=O", "physical_data": {"Molecular Weight": "361.37", "Molecular Formula": "C18H20FN3O4", "Melting Point": "254 \u00b0C (decomp)"}}