{"cas_no": "82419-35-0", "cn_name": "\u6c1f\u55ea\u7fa7\u9178", "en_name": ["9,10-Difluoro-2,3-dihydro-3-methyl-7-oxo-7H-pyrido[1,2,3-de]-1,4-benzoxazine-6-carboxylic acid", "7H-Pyrido[1,2,3-de]-1,4-benzoxazine-6-carboxylic acid, 9,10-difluoro-2,3-dihydro-3-methyl-7-oxo-", "9,10-Difluoro-2,3-dihydro-3-methyl-7-oxo-7H-pyrido[1,2,3-de]-1,4-benzoxazine-6-carboxylic acid", "9,10-Difluoro-3-methyl-7-oxo-2,3-dihydro-7H-pyrido[1,2,3-de]-1,4-benzoxazine-6-carboxylic acid", "9,10-Difluoro-3-methyl-7-oxo-2,3-dihydro-7H-[1,4]oxazino[2,3,4-ij]quinoline-6-carboxylic acid"], "SMILES": "O=C1C=2C=3N(C=C1C(O)=O)C(C)COC3C(F)=C(F)C2", "physical_data": {"Molecular Weight": "281.21", "Molecular Formula": "C13H9F2NO4", "Melting Point": "309-311 \u00b0C"}}