{"cas_no": "82413-20-5", "cn_name": "\u5c48\u6d1b\u6614\u82ac", "en_name": ["Droloxifene", "Phenol, 3-[(1E)-1-[4-[2-(dimethylamino)ethoxy]phenyl]-2-phenyl-1-buten-1-yl]-", "Phenol, 3-[1-[4-[2-(dimethylamino)ethoxy]phenyl]-2-phenyl-1-butenyl]-, (E)-", "Phenol, 3-[(1E)-1-[4-[2-(dimethylamino)ethoxy]phenyl]-2-phenyl-1-butenyl]-", "3-[(1E)-1-[4-[2-(Dimethylamino)ethoxy]phenyl]-2-phenyl-1-buten-1-yl]phenol", "K 060", "K 21.060E", "3-Hydroxytamoxifen", "K 060E", "Droloxifene", "E-Droloxifene"], "SMILES": "C(=C(CC)C1=CC=CC=C1)(C2=CC=C(OCCN(C)C)C=C2)C3=CC(O)=CC=C3", "physical_data": {"Molecular Weight": "387.51", "Molecular Formula": "C26H29NO2", "Melting Point": "158-159 \u00b0C"}}