{"cas_no": "82494-09-5", "cn_name": "N-DECYL-\u0392-D-MALTOSIDE", "en_name": ["Decyl \u03b2-D-maltopyranoside", "\u03b2-D-Glucopyranoside, decyl 4-O-\u03b1-D-glucopyranosyl-", "Decyl 4-O-\u03b1-D-glucopyranosyl-\u03b2-D-glucopyranoside", "1-Decyl \u03b2-D-maltoside", "Decyl \u03b2-D-maltopyranoside", "n-Decyl \u03b2-D-maltoside", "Decylmaltoside", "Decyl \u03b2-D-maltoside", "1-O-Decyl-\u03b2-D-maltoside", "Decyl \u03b2-maltopyranoside", "Decyl-\u03b2-maltoside", "n-Decyl-\u03b2-D-maltopyranoside", "D 382"], "SMILES": "O(C1C(CO)OC(OCCCCCCCCCC)C(O)C1O)C2OC(CO)C(O)C(O)C2O", "physical_data": {"Molecular Weight": "482.56", "Molecular Formula": "C22H42O11", "Melting Point": "86.4 \u00b0C"}}