{"cas_no": "824958-12-5", "cn_name": "LP 44", "en_name": ["1-Piperazinehexanamide, 4-[2-(methylthio)phenyl]-N-(1,2,3,4-tetrahydro-1-naphthalenyl)-, hydrochloride (1:1)", "1-Piperazinehexanamide, 4-[2-(methylthio)phenyl]-N-(1,2,3,4-tetrahydro-1-naphthalenyl)-, hydrochloride (1:1)", "1-Piperazinehexanamide, 4-[2-(methylthio)phenyl]-N-(1,2,3,4-tetrahydro-1-naphthalenyl)-, monohydrochloride"], "SMILES": "N(C(CCCCCN1CCN(CC1)C2=C(SC)C=CC=C2)=O)C3C=4C(CCC3)=CC=CC4.Cl", "physical_data": {"Molecular Weight": "", "Molecular Formula": "C27H37N3OS.ClH", "Melting Point": "181-182 \u00b0C"}}