{"cas_no": "825-52-5", "cn_name": "\u0391-\u7f9f\u4e9a\u80fa\u57fa\u82ef\u4e59\u8148", "en_name": ["2-(Hydroxyimino)-2-phenylacetonitrile", "Benzeneacetonitrile, \u03b1-(hydroxyimino)-", "Glyoxylonitrile, phenyl-, oxime", "\u03b1-(Hydroxyimino)benzeneacetonitrile", "2-Phenylglyoxylonitrile 2-oxime", "2-(Hydroxyimino)-2-phenylacetonitrile", "Oximinophenylacetonitrile", "Benzoyl cyanide oxime"], "SMILES": "C(C#N)(=NO)C1=CC=CC=C1", "physical_data": {"Molecular Weight": "146.15", "Molecular Formula": "C8H6N2O", "Melting Point": "129 \u00b0C"}}