{"cas_no": "825-99-0", "cn_name": "3-(\u7532\u786b\u57fa)\u82ef\u7532\u9178", "en_name": ["3-(Methylthio)benzoic acid", "Benzoic acid, 3-(methylthio)-", "Benzoic acid, m-(methylthio)-", "Benzoic acid, m-methylmercapto-", "3-(Methylthio)benzoic acid", "3-Mercaptobenzoic acid S-methyl ether", "m-Methylthiobenzoic acid", "NSC 2937", "3-Methylsulfanylbenzoic acid", "3-Methanesulfanylbenzoic acid"], "SMILES": "C(O)(=O)C1=CC(SC)=CC=C1", "physical_data": {"Molecular Weight": "168.21", "Molecular Formula": "C8H8O2S", "Melting Point": "126-127 \u00b0C"}}