{"cas_no": "825-55-8", "cn_name": "\u90bb\u82ef\u567b\u5429", "en_name": ["2-Phenylthiophene", "Thiophene, 2-phenyl-", "2-Phenylthiophene"], "SMILES": "C1(=CC=CS1)C2=CC=CC=C2", "physical_data": {"Molecular Weight": "160.24", "Molecular Formula": "C10H8S", "Boiling Point": "256.1 \u00b0C @ Press: 760 Torr", "Melting Point": "34.0-34.5 \u00b0C", "Density": "1.1215 g/cm\u00b3 @ Temp: 54 \u00b0C"}}