{"cas_no": "825-51-4", "cn_name": "\u5341\u6c22\u5316-2-\u8418\u915a", "en_name": ["Decahydro-2-naphthalenol", "2-Naphthalenol, decahydro-", "2-Naphthol, decahydro-", "Decahydro-2-naphthalenol", "2-Decalol", "2-Hydroxydecalin", "\u03b2-Decalol", "Decahydro-2-naphthol", "NSC 2332", "NSC 71562", "NSC 84186", "Decahydronaphthalen-2-ol", "Decahydro-\u03b2-naphthol", "2-Hydroxydecahydronaphthalene"], "SMILES": "OC1CC2C(CC1)CCCC2", "physical_data": {"Molecular Weight": "154.25", "Molecular Formula": "C10H18O", "Boiling Point": "242-244 \u00b0C", "Melting Point": "99-100 \u00b0C", "Density": "0.9889 g/cm\u00b3 @ Temp: 20 \u00b0C"}}