{"cas_no": "825-44-5", "cn_name": "\u82ef\u5e76\u567b\u5429\u781c", "en_name": ["Benzothiophene 1,1-dioxide", "Benzo[b]thiophene, 1,1-dioxide", "Thianaphthene 1,1-dioxide", "Benzothiophene 1,1-dioxide", "Thionaphthene 1,1-dioxide", "Benzothiophene sulfone", "Benzo[b]thiophene S,S-dioxide", "NSC 82162", "Benzothiophene S,S-dioxide", "1-Benzothiophene 1,1-dioxide", "1H-1\u03bb6-Benzo[b]thiophene-1,1-dione"], "SMILES": "O=S1(=O)C=2C(C=C1)=CC=CC2", "physical_data": {"Molecular Weight": "166.20", "Molecular Formula": "C8H6O2S", "Melting Point": "142-143 \u00b0C"}}