{"cas_no": "825-25-2", "cn_name": "2-\u73af\u4e9a\u620a\u57fa\u73af\u620a\u916e", "en_name": ["2-Cyclopentylidenecyclopentanone", "Cyclopentanone, 2-cyclopentylidene-", "[Bicyclopentyliden]-2-one", "2-Cyclopentylidenecyclopentanone", "[\u03941,1\u2032-Bicyclopentan]-2-one", "2-Cyclopentylidene-1-cyclopentanone", "NSC 22041", "[1,1\u2032-Bi(cyclopentylidene)]-2-one"], "SMILES": "O=C1C(CCC1)=C2CCCC2", "physical_data": {"Molecular Weight": "150.22", "Molecular Formula": "C10H14O", "Boiling Point": "122-125 \u00b0C @ Press: 25 Torr", "Melting Point": "74-75 \u00b0C", "Density": "1.0221 g/cm\u00b3 @ Temp: 20 \u00b0C"}}