{"cas_no": "825-94-5", "cn_name": "\u6c2f\u82ef\u57fa\u4e09\u6c2f\u7845\u70f7", "en_name": ["1-Chloro-4-(trichlorosilyl)benzene", "Benzene, 1-chloro-4-(trichlorosilyl)-", "Silane, trichloro(p-chlorophenyl)-", "Silane, trichloro(4-chlorophenyl)-", "1-Chloro-4-(trichlorosilyl)benzene", "4-Chlorophenyltrichlorosilane", "p-Chlorophenyltrichlorosilane", "Trichloro(p-chlorophenyl)silane", "Trichloro(4-chlorophenyl)silane"], "SMILES": "[Si](Cl)(Cl)(Cl)C1=CC=C(Cl)C=C1", "physical_data": {"Molecular Weight": "245.99", "Molecular Formula": "C6H4Cl4Si", "Boiling Point": "105 \u00b0C @ Press: 18 Torr", "Density": "1.4062 g/cm\u00b3 @ Temp: 20 \u00b0C"}}