{"cas_no": "825-56-9", "cn_name": "2-\u82ef\u57fa-1,3,4-\u5641\u4e8c\u5511", "en_name": ["5-Phenyl-1,3,4-Oxadiazole", "1,3,4-Oxadiazole, 2-phenyl-", "2-Phenyl-1,3,4-oxadiazole", "5-Phenyl-1,3,4-Oxadiazole", "2-Phenyloxadiazole", "NSC 94884"], "SMILES": "C1(=NN=CO1)C2=CC=CC=C2", "physical_data": {"Molecular Weight": "146.15", "Molecular Formula": "C8H6N2O", "Boiling Point": "125 \u00b0C @ Press: 5 Torr", "Melting Point": "34 \u00b0C"}}