{"cas_no": "82508-32-5", "cn_name": "\u571f\u8346\u76ae\u7532\u9178", "en_name": ["Pseudolaric acid A", "2,4-Pentadienoic acid, 5-[(3R,4S,4aS,9aR)-4a-(acetyloxy)-3,4,4a,5,6,9-hexahydro-3,7-dimethyl-1-oxo-1H-4,9a-ethanocyclohepta[c]pyran-3-yl]-2-methyl-, (2E,4E)-", "2,4-Pentadienoic acid, 5-[4a-(acetyloxy)-3,4,4a,5,6,9-hexahydro-3,7-dimethyl-1-oxo-1H-4,9a-ethanocyclohepta[c]pyran-3-yl]-2-methyl-, [3\u03b1(2E,4E),4\u03b1,4a\u03b1,9a\u03b1]-(-)-", "1H-4,9a-Ethanocyclohepta[c]pyran, 2,4-pentadienoic acid deriv.", "(2E,4E)-5-[(3R,4S,4aS,9aR)-4a-(Acetyloxy)-3,4,4a,5,6,9-hexahydro-3,7-dimethyl-1-oxo-1H-4,9a-ethanocyclohepta[c]pyran-3-yl]-2-methyl-2,4-pentadienoic acid", "Pseudolaric acid A", "NSC 615487"], "SMILES": "O(C(C)=O)C12C3(C(=O)OC(C=CC=C(C(O)=O)C)(C)C1CC3)CC=C(C)CC2", "physical_data": {"Molecular Weight": "388.45", "Molecular Formula": "C22H28O6", "Melting Point": "206-207 \u00b0C"}}