{"cas_no": "82508-31-4", "cn_name": "\u571f\u8346\u76ae\u4e59\u9178", "en_name": ["Pseudolaric acid B", "1H-4,9a-Ethanocyclohepta[c]pyran-7-carboxylic acid, 4a-(acetyloxy)-3-[(1E,3E)-4-carboxy-1,3-pentadien-1-yl]-3,4,4a,5,6,9-hexahydro-3-methyl-1-oxo-, 7-methyl ester, (3R,4S,4aS,9aR)-", "1H-4,9a-Ethanocyclohepta[c]pyran-7-carboxylic acid, 4a-(acetyloxy)-3-(4-carboxy-1,3-pentadienyl)-3,4,4a,5,6,9-hexahydro-3-methyl-1-oxo-, 7-methyl ester, [3R-[3\u03b1(1E,3E),4\u03b1,4a\u03b1,9a\u03b1]]-", "1H-4,9a-Ethanocyclohepta[c]pyran-7-carboxylic acid, 4a-(acetyloxy)-3-[(1E,3E)-4-carboxy-1,3-pentadienyl]-3,4,4a,5,6,9-hexahydro-3-methyl-1-oxo-, 7-methyl ester, (3R,4S,4aS,9aR)-", "Pseudolaric acid B", "NSC 615488", "Pseudolarix acid B", "(-)-Pseudolaric acid B", "O-Acetylpseudolaric acid C"], "SMILES": "O(C(C)=O)C12C3(C(=O)OC(C=CC=C(C(O)=O)C)(C)C1CC3)CC=C(C(OC)=O)CC2", "physical_data": {"Molecular Weight": "432.46", "Molecular Formula": "C23H28O8", "Melting Point": "143-144 \u00b0C"}}