{"cas_no": "82547-58-8", "cn_name": "\u5934\u5b62\u7279\u4ed1\u65b0\u620a\u916f", "en_name": ["Cefteram", "5-Thia-1-azabicyclo[4.2.0]oct-2-ene-2-carboxylic acid, 7-[[(2Z)-2-(2-amino-4-thiazolyl)-2-(methoxyimino)acetyl]amino]-3-[(5-methyl-2H-tetrazol-2-yl)methyl]-8-oxo-, (6R,7R)-", "5-Thia-1-azabicyclo[4.2.0]oct-2-ene-2-carboxylic acid, 7-[[(2-amino-4-thiazolyl)(methoxyimino)acetyl]amino]-3-[(5-methyl-2H-tetrazol-2-yl)methyl]-8-oxo-, [6R-[6\u03b1,7\u03b2(Z)]]-", "5-Thia-1-azabicyclo[4.2.0]oct-2-ene-2-carboxylic acid, 7-[[(2Z)-(2-amino-4-thiazolyl)(methoxyimino)acetyl]amino]-3-[(5-methyl-2H-tetrazol-2-yl)methyl]-8-oxo-, (6R,7R)-", "(6R,7R)-7-[[(2Z)-2-(2-Amino-4-thiazolyl)-2-(methoxyimino)acetyl]amino]-3-[(5-methyl-2H-tetrazol-2-yl)methyl]-8-oxo-5-thia-1-azabicyclo[4.2.0]oct-2-ene-2-carboxylic acid", "Ro 19-5247", "Ceftetrame", "Cefteram", "T 2525", "Antibiotic T 2525", "Cefterame", "Antibiotic Ro 19-5247"], "SMILES": "C(O)(=O)C=1N2C(C(NC(C(=NOC)C=3N=C(N)SC3)=O)C2=O)SCC1CN4N=C(C)N=N4", "physical_data": {"Molecular Weight": "479.49", "Molecular Formula": "C16H17N9O5S2", "Melting Point": "&gt;200 \u00b0C"}}