{"cas_no": "82558-50-7", "cn_name": "\u5f02\u6076\u9170\u8349\u80fa", "en_name": ["Isoxaben", "Benzamide, N-[3-(1-ethyl-1-methylpropyl)-5-isoxazolyl]-2,6-dimethoxy-", "N-[3-(1-Ethyl-1-methylpropyl)-5-isoxazolyl]-2,6-dimethoxybenzamide", "Isoxaben", "EL 107", "NA 8318", "Benzamizole", "Flexidor", "Gallery", "X-Pand", "Cent 7"], "SMILES": "C(NC1=CC(C(CC)(CC)C)=NO1)(=O)C2=C(OC)C=CC=C2OC", "physical_data": {"Molecular Weight": "332.39", "Molecular Formula": "C18H24N2O4", "Melting Point": "177.5 \u00b0C"}}