{"cas_no": "82560-54-1", "cn_name": "\u82ef\u5e76\u544b\u5583\u786b\u9170\u6c2f", "en_name": ["Benfuracarb", "\u03b2-Alanine, N-[[[[(2,3-dihydro-2,2-dimethyl-7-benzofuranyl)oxy]carbonyl]methylamino]thio]-N-(1-methylethyl)-, ethyl ester", "Oncol 5G", "Benfuracarb", "Oncol", "OK 174", "Aminofuracarb", "Aminosulfulan", "Nakar"], "SMILES": "O(C(N(SN(CCC(OCC)=O)C(C)C)C)=O)C1=C2C(CC(C)(C)O2)=CC=C1", "physical_data": {"Molecular Weight": "410.53", "Molecular Formula": "C20H30N2O5S", "Boiling Point": "110 \u00b0C", "Melting Point": "&lt;25 \u00b0C"}}