{"cas_no": "825633-94-1", "cn_name": "5-\u7898\u54d2\u55ea-3(2H)-\u916e", "en_name": ["5-Iodo-3(2H)-pyridazinone", "3(2H)-Pyridazinone, 5-iodo-", "5-Iodo-3(2H)-pyridazinone", "5-Iodopyridazin-3(2H)-one", "5-Iodo-2,3-dihydropyridazin-3-one", "4-Iodo-1H-pyridazin-6-one"], "SMILES": "IC1=CC(=O)NN=C1", "physical_data": {"Molecular Weight": "221.98", "Molecular Formula": "C4H3IN2O", "Melting Point": "147-148 \u00b0C"}}