{"cas_no": "82560-12-1", "cn_name": "3-\u53d4\u4e01\u57fa-\u5421\u5511-5-\u80fa", "en_name": ["3-Amino-5-tert-butylpyrazole", "1H-Pyrazol-3-amine, 5-(1,1-dimethylethyl)-", "5-(1,1-Dimethylethyl)-1H-pyrazol-3-amine", "5-Amino-3-tert-butyl-1H-pyrazole", "3-tert-Butyl-5-aminopyrazole", "3-tert-Butyl-1H-pyrazol-3-amine", "5-Amino-3-tert-butylpyrazole", "5-tert-Butyl-1H-pyrazol-3-ylamine", "3-Amino-5-tert-butylpyrazole", "3-Amino-5-tert-butyl-1H-pyrazole", "5-tert-Butyl-1H-pyrazol-3-amine", "5-tert-Butylpyrazole-3-amine", "3-tert-Butyl-2H-pyrazol-5-amine", "5-(tert-Butyl)-3-aminopyrazole"], "SMILES": "C(C)(C)(C)C1=CC(N)=NN1", "physical_data": {"Molecular Weight": "139.20", "Molecular Formula": "C7H13N3", "Melting Point": "80 \u00b0C"}}