{"cas_no": "82572-04-1", "cn_name": "(R)-1-(1-\u8418\u57fa)\u4e59\u80fa\u76d0\u9178\u76d0", "en_name": ["1-Naphthalenemethanamine, \u03b1-methyl-, hydrochloride (1:1), (\u03b1R)-", "1-Naphthalenemethanamine, \u03b1-methyl-, hydrochloride (1:1), (\u03b1R)-", "1-Naphthalenemethanamine, \u03b1-methyl-, hydrochloride, (R)-", "1-Naphthalenemethanamine, \u03b1-methyl-, hydrochloride, (\u03b1R)-", "(R)-1-(1-Naphthyl)ethylamine hydrochloride", "(R)-1-(1-Naphthyl)ethylammonium chloride", "(R)-(+)-1-(1-Naphthyl)ethylamine hydrochloride", "(R)-1-(Naphthalen-1-yl)ethanamine hydrochloride"], "SMILES": "C(C)(N)C=1C2=C(C=CC1)C=CC=C2.Cl", "physical_data": {"Molecular Weight": "", "Molecular Formula": "C12H13N.ClH", "Melting Point": "216 \u00b0C (decomp)"}}