{"cas_no": "82571-53-7", "cn_name": "\u5965\u624e\u683c\u96f7", "en_name": ["Ozagrel", "2-Propenoic acid, 3-[4-(1H-imidazol-1-ylmethyl)phenyl]-, (2E)-", "2-Propenoic acid, 3-[4-(1H-imidazol-1-ylmethyl)phenyl]-, (E)-", "(2E)-3-[4-(1H-Imidazol-1-ylmethyl)phenyl]-2-propenoic acid", "Ozagrel", "(E)-4-(1-Imidazoylmethyl)cinnamic acid"], "SMILES": "C(C1=CC=C(C=CC(O)=O)C=C1)N2C=CN=C2", "physical_data": {"Molecular Weight": "228.25", "Molecular Formula": "C13H12N2O2", "Melting Point": "223-224 \u00b0C"}}