{"cas_no": "82576-75-8", "cn_name": "2-[(4-\u6c28\u57fa-2-\u7532\u57fa-5-\u785d\u57fa\u82ef\u57fa)\u6c28\u57fa]\u4e59\u9187", "en_name": ["HC Violet 1", "Ethanol, 2-[(4-amino-2-methyl-5-nitrophenyl)amino]-", "2-[(4-Amino-2-methyl-5-nitrophenyl)amino]ethanol", "HC Violet 1", "HC Violet No. 1", "2-(4-Amino-2-methyl-5-nitroanilino)ethanol"], "SMILES": "N(=O)(=O)C1=C(N)C=C(C)C(NCCO)=C1", "physical_data": {"Molecular Weight": "211.22", "Molecular Formula": "C9H13N3O3", "Melting Point": "139-140 \u00b0C"}}