{"cas_no": "82575-69-7", "cn_name": "4-(\u53cd\u5f0f-4-\u620a\u57fa\u73af\u5df1\u57fa)\u82ef\u915a", "en_name": ["4-(trans-4-Pentylcyclohexyl)phenol", "Phenol, 4-(trans-4-pentylcyclohexyl)-", "Phenol, 4-(4-pentylcyclohexyl)-, trans-", "4-(trans-4-Pentylcyclohexyl)phenol", "p-(trans-4-Pentylcyclohexyl)phenol", "trans-(4-Pentylcyclohexyl)phenol", "p-(trans-4-n-Pentylcyclohexyl)phenol", "PCH 500", "4-(trans-4-n-Pentylcyclohexyl)phenol", "trans-4-(4-Pentylcyclohexyl)phenol", "p-(trans-4-n-Propylcyclohexyl)phenol"], "SMILES": "C(CCCC)C1CCC(CC1)C2=CC=C(O)C=C2", "physical_data": {"Molecular Weight": "246.39", "Molecular Formula": "C17H26O", "Melting Point": "133-135 \u00b0C"}}