{"cas_no": "82586-55-8", "cn_name": "\u76d0\u9178\u55b9\u90a3\u666e\u5229", "en_name": ["Quinapril hydrochloride", "3-Isoquinolinecarboxylic acid, 2-[(2S)-2-[[(1S)-1-(ethoxycarbonyl)-3-phenylpropyl]amino]-1-oxopropyl]-1,2,3,4-tetrahydro-, hydrochloride (1:1), (3S)-", "3-Isoquinolinecarboxylic acid, 2-[2-[[1-(ethoxycarbonyl)-3-phenylpropyl]amino]-1-oxopropyl]-1,2,3,4-tetrahydro-, monohydrochloride, [3S-[2[R*(R*)],3R*]]-", "3-Isoquinolinecarboxylic acid, 2-[(2S)-2-[[(1S)-1-(ethoxycarbonyl)-3-phenylpropyl]amino]-1-oxopropyl]-1,2,3,4-tetrahydro-, monohydrochloride, (3S)-", "CI 906", "Quinapril hydrochloride", "Accupril", "Accuprin", "Acupril", "Korec", "Asig", "Accupro", "Accupron", "Acequin", "Acuitel", "Acuprel", "Quinazil", "Acequide", "PD 109452-2", "Korectic", "Quinopril", "Accupro 20"], "SMILES": "C(C(NC(CCC1=CC=CC=C1)C(OCC)=O)C)(=O)N2C(C(O)=O)CC=3C(C2)=CC=CC3.Cl", "physical_data": {"Molecular Weight": "", "Molecular Formula": "C25H30N2O5.ClH", "Melting Point": "120-130 \u00b0C"}}