{"cas_no": "826-73-3", "cn_name": "1-\u82ef\u5e76\u73af\u5e9a\u916e", "en_name": ["Benzosuberone", "5H-Benzocyclohepten-5-one, 6,7,8,9-tetrahydro-", "6,7,8,9-Tetrahydro-5H-benzocyclohepten-5-one", "1-Benzosuberanone", "Benzo[b]cycloheptan-1-one", "\u03b1-Benzosuberone", "2,3-Benzosuberone", "6,7,8,9-Tetrahydrobenzocyclohepten-5-one", "1-Benzosuberone", "5-Benzocycloheptanone", "Benzosuberone", "1-Benzocycloheptanone", "NSC 87961", "6,7,8,9-tetrahydro-5H-benzocyclohepten-5-one", "6,7,8,9-Tetrahydro-5H-benzo[7]annulen-5-one"], "SMILES": "O=C1C=2C(=CC=CC2)CCCC1", "physical_data": {"Molecular Weight": "160.21", "Molecular Formula": "C11H12O", "Boiling Point": "139 \u00b0C", "Melting Point": "202 \u00b0C", "Density": "1.0780 g/cm\u00b3 @ Temp: 20 \u00b0C"}}