{"cas_no": "826-62-0", "cn_name": "\u7eb3\u8fea\u514b\u9178\u9150", "en_name": ["5-Norbornene-2,3-dicarboxylic anhydride", "4,7-Methanoisobenzofuran-1,3-dione, 3a,4,7,7a-tetrahydro-", "5-Norbornene-2,3-dicarboxylic anhydride", "3a,4,7,7a-Tetrahydro-4,7-methanoisobenzofuran-1,3-dione", "Bicyclo[2.2.1]hept-5-ene-2,3-dicarboxylic anhydride", "2-Norbornene-5,6-dicarboxylic anhydride", "3,6-Methylene-1,2,3,6-tetrahydrophthalic anhydride", "5-Norbornene-2,3-dicarboxylic acid anhydride", "3,6-Methano-4-cyclohexene-1,2-dicarboxylic acid anhydride", "NSC 3999", "4-Oxatricyclo[5.2.1.02,6]dec-8-ene-3,5-dione", "Bicyclo[2.2.1]hept-2-ene-5,6-dicarboxylic anhydride", "Norbornenedicarboxylic anhydride", "5,6-Norbornene-2,3-dicarboxylic acid anhydride", "Anhydride 647"], "SMILES": "O=C1C2C(C3CC2C=C3)C(=O)O1", "physical_data": {"Molecular Weight": "164.16", "Molecular Formula": "C9H8O3", "Melting Point": "147 \u00b0C", "Density": "1.42 g/cm\u00b3"}}