{"cas_no": "826-85-7", "cn_name": "5-\u6c28\u57fa-1-\u82ef\u57fa\u5421\u5511", "en_name": ["1-Phenyl-1H-pyrazol-5-amine", "1H-Pyrazol-5-amine, 1-phenyl-", "Pyrazole, 5-amino-1-phenyl-", "1-Phenyl-1H-pyrazol-5-amine", "1-Phenyl-5-aminopyrazole", "5-Amino-1-phenylpyrazole", "NSC 75786", "(2-Phenyl-2H-pyrazol-3-yl)amine", "5-Amino-1-phenyl-1H-pyrazole", "2-Phenylpyrazol-3-amine", "1-Phenyl-1H-pyrazole-5-amine"], "SMILES": "NC=1N(N=CC1)C2=CC=CC=C2", "physical_data": {"Molecular Weight": "159.19", "Molecular Formula": "C9H9N3", "Boiling Point": "123-130 \u00b0C @ Press: 0.2 Torr", "Melting Point": "50-51 \u00b0C"}}