{"cas_no": "826-39-1", "cn_name": "\u76d0\u9178\u7f8e\u52a0\u660e", "en_name": ["Mecamylamine hydrochloride", "Bicyclo[2.2.1]heptan-2-amine, N,2,3,3-tetramethyl-, hydrochloride (1:1)", "2-Norbornanamine, N,2,3,3-tetramethyl-, hydrochloride", "Bicyclo[2.2.1]heptan-2-amine, N,2,3,3-tetramethyl-, hydrochloride", "Mecamylamine hydrochloride", "N,2,3,3-Tetramethyl-2-norbornanamine hydrochloride", "Inversine", "Mevasin", "Mecamylamine chloride", "Mevasine", "CPDD 0059"], "SMILES": "N(C)C1(C)C2CC(C1(C)C)CC2.Cl", "physical_data": {"Molecular Weight": "", "Molecular Formula": "C11H21N.ClH", "Melting Point": "243-246 \u00b0C (decomp)"}}