{"cas_no": "826-81-3", "cn_name": "8-\u7f9f\u57fa\u55b9\u54ea\u5576", "en_name": ["2-Methyl-8-hydroxyquinoline", "8-Quinolinol, 2-methyl-", "2-Methyl-8-quinolinol", "8-Hydroxyquinaldine", "2-Methyl-8-hydroxyquinoline", "8-Hydroxy-2-methylquinoline", "2-Methyloxine", "Hydroxyquinaldine", "NSC 403349", "NSC 58553"], "SMILES": "OC=1C2=C(C=CC(C)=N2)C=CC1", "physical_data": {"Molecular Weight": "159.18", "Molecular Formula": "C10H9NO", "Boiling Point": "267 \u00b0C", "Melting Point": "73.8 \u00b0C"}}