{"cas_no": "826-74-4", "cn_name": "1-\u4e59\u70ef\u8418", "en_name": ["1-Vinylnaphthalene", "Naphthalene, 1-ethenyl-", "Naphthalene, 1-vinyl-", "1-Ethenylnaphthalene", "\u03b1-Vinylnaphthalene", "1-Vinylnaphthalene", "(Naphthalen-1-yl)ethene"], "SMILES": "C(=C)C=1C2=C(C=CC1)C=CC=C2", "physical_data": {"Molecular Weight": "154.21", "Molecular Formula": "C12H10", "Boiling Point": "135-138 \u00b0C @ Press: 15 Torr", "Melting Point": "64-66 \u00b0C", "Density": "1.034 g/cm\u00b3 @ Temp: 20 \u00b0C"}}