{"cas_no": "826-55-1", "cn_name": "alpha,alpha-\u4e8c\u7532\u57fa\u82ef\u4e59\u9178", "en_name": ["2-Methyl-2-phenylpropanoic acid", "Benzeneacetic acid, \u03b1,\u03b1-dimethyl-", "Hydratropic acid, \u03b1-methyl-", "\u03b1,\u03b1-Dimethylbenzeneacetic acid", "TH 4161", "\u03b1,\u03b1-Dimethylphenylacetic acid", "2-Phenylisobutyric acid", "2-Methyl-2-phenylpropionic acid", "2-Methyl-2-phenylpropanoic acid", "2-Phenyl-2-methylpropionic acid", "NSC 28952", "NSC 29095", "2,2-Dimethyl-2-phenylacetic acid", "2-Phenylisobutanoic acid"], "SMILES": "C(C(O)=O)(C)(C)C1=CC=CC=C1", "physical_data": {"Molecular Weight": "164.20", "Molecular Formula": "C10H12O2", "Boiling Point": "167-168 \u00b0C @ Press: 15 Torr", "Melting Point": "78 \u00b0C"}}