{"cas_no": "826-36-8", "cn_name": "\u56db\u7532\u57fa\u54cc\u5576\u916e", "en_name": ["2,2,6,6-Tetramethyl-4-piperidone", "4-Piperidinone, 2,2,6,6-tetramethyl-", "4-Piperidone, 2,2,6,6-tetramethyl-", "2,2,6,6-Tetramethyl-4-piperidinone", "2,2,6,6-Tetramethyl-4-piperidone", "Triacetonamine", "2,2,6,6-Tetramethyl-4-oxopiperidine", "Triacetonamin", "Vincubine", "Vincubina", "4-Oxo-2,2,6,6-tetramethylpiperidine", "Odoratine", "IKh 196", "NSC 16579", "TEMP", "Violine", "Tetramethylpiperidone"], "SMILES": "CC1(C)NC(C)(C)CC(=O)C1", "physical_data": {"Molecular Weight": "155.24", "Molecular Formula": "C9H17NO", "Boiling Point": "205 \u00b0C", "Melting Point": "36 \u00b0C"}}