{"cas_no": "82626-01-5", "cn_name": "\u963f\u5c14\u5421\u767b", "en_name": ["Alpidem", "Imidazo[1,2-a]pyridine-3-acetamide, 6-chloro-2-(4-chlorophenyl)-N,N-dipropyl-", "6-Chloro-2-(4-chlorophenyl)-N,N-dipropylimidazo[1,2-a]pyridine-3-acetamide", "Alpidem", "SL 80.0342-00", "Ananxyl", "2-[6-Chloro-2-(4-chlorophenyl)imidazo[1,2-a]pyridin-3-yl]-N,N-dipropylacetamide"], "SMILES": "C(C(N(CCC)CCC)=O)C1=C(N=C2N1C=C(Cl)C=C2)C3=CC=C(Cl)C=C3", "physical_data": {"Molecular Weight": "404.33", "Molecular Formula": "C21H23Cl2N3O", "Melting Point": "140-141 \u00b0C"}}