{"cas_no": "82626-48-0", "cn_name": "\u5511\u5421\u5766", "en_name": ["Zolpidem", "Imidazo[1,2-a]pyridine-3-acetamide, N,N,6-trimethyl-2-(4-methylphenyl)-", "N,N,6-Trimethyl-2-(4-methylphenyl)imidazo[1,2-a]pyridine-3-acetamide", "Zolpidem", "SL 80-0750", "SL 800750", "Edluar", "Zoldem", "Zolnod", "Nytamel"], "SMILES": "C(C(N(C)C)=O)C1=C(N=C2N1C=C(C)C=C2)C3=CC=C(C)C=C3", "physical_data": {"Molecular Weight": "307.39", "Molecular Formula": "C19H21N3O", "Melting Point": "196 \u00b0C"}}