{"cas_no": "82640-04-8", "cn_name": "\u76d0\u9178\u96f7\u6d1b\u6614\u82ac", "en_name": ["Raloxifene hydrochloride", "Methanone, [6-hydroxy-2-(4-hydroxyphenyl)benzo[b]thien-3-yl][4-[2-(1-piperidinyl)ethoxy]phenyl]-, hydrochloride (1:1)", "Methanone, [6-hydroxy-2-(4-hydroxyphenyl)benzo[b]thien-3-yl][4-[2-(1-piperidinyl)ethoxy]phenyl]-, hydrochloride", "LY 156758", "Raloxifene hydrochloride", "Evista", "Keoxifene hydrochloride", "Fiona", "Bonebay", "Reloxafine", "Bontact", "Ralofen", "Ralista", "2-(4-Hydroxyphenyl)-3-[4-[2-(piperidin-1-yl)ethoxy]benzoyl]-1-benzothiophen-6-ol hydrochloride", "Optruma"], "SMILES": "C(=O)(C1=C(SC=2C1=CC=C(O)C2)C3=CC=C(O)C=C3)C4=CC=C(OCCN5CCCCC5)C=C4.Cl", "physical_data": {"Molecular Weight": "", "Molecular Formula": "C28H27NO4S.ClH", "Melting Point": "258 \u00b0C"}}