{"cas_no": "82654-98-6", "cn_name": "\u9999\u5170\u57fa\u4e01\u919a", "en_name": ["Vanillyl butyl ether", "Phenol, 4-(butoxymethyl)-2-methoxy-", "4-(Butoxymethyl)-2-methoxyphenol", "Vanillyl butyl ether", "Hotact VBE", "Vanillyl alcohol butyl ether", "Sensehot"], "SMILES": "C(OCCCC)C1=CC(OC)=C(O)C=C1", "physical_data": {"Molecular Weight": "210.27", "Molecular Formula": "C12H18O3", "Boiling Point": "240-241 \u00b0C"}}