{"cas_no": "82657-04-3", "cn_name": "\u8054\u82ef\u83ca\u916f", "en_name": ["Bifenthrin", "Cyclopropanecarboxylic acid, 3-[(1Z)-2-chloro-3,3,3-trifluoro-1-propen-1-yl]-2,2-dimethyl-, (2-methyl[1,1\u2032-biphenyl]-3-yl)methyl ester, (1R,3R)-rel-", "Cyclopropanecarboxylic acid, 3-(2-chloro-3,3,3-trifluoro-1-propenyl)-2,2-dimethyl-, (2-methyl[1,1\u2032-biphenyl]-3-yl)methyl ester, [1\u03b1,3\u03b1(Z)]-(\u00b1)-", "Cyclopropanecarboxylic acid, 3-[(1Z)-2-chloro-3,3,3-trifluoro-1-propenyl]-2,2-dimethyl-, (2-methyl[1,1\u2032-biphenyl]-3-yl)methyl ester, (1R,3R)-rel-", "FMC 54800", "Biphenthrin", "Bifenthrin", "Biphentrin", "Talstar", "Brigade", "Capture", "Capture (pesticide)", "Biflex FT", "Biflex", "Brigade 10WP", "Cyclopropanecarboxylic acid, 3-(2-chloro-3,3,3-trifluoro-1-propenyl)-2,2-dimethyl-, (2-methyl[1,1\u2032-biphenyl]-3-yl)methyl ester, [1\u03b1,3\u03b1(Z)]-", "Brigata Flo", "Bifenthrine", "Biphenate", "TalstarOne", "Semafor", "Kiros EV", "Empower", "Discipline", "Onyx", "Onyx (insecticide)", "Silencer", "Fanfare", "AGST 02002", "Capture LFR", "Seizer", "Bixan MG", "DeterMite", "Bifenture", "Bixan", "Talstar EZ", "Talstar Pro", "Gyro", "Capture 2EC", "Sniper", "Sniper (pyrethroid insecticide)", "(\u00b1)-Bifenthrin", "rac-Bifenthrin", "Talstar F", "Gold insecticide", "UP Star gold insecticide", "UP Star Gold insecticide", "Akate Master", "Talstar 80SC", "Talstar 100EC", "Bifen XTS", "BISTAR 10WP"], "SMILES": "C(=C(C(F)(F)F)Cl)C1C(C(OCC2=C(C)C(=CC=C2)C3=CC=CC=C3)=O)C1(C)C", "physical_data": {"Molecular Weight": "422.87", "Molecular Formula": "C23H22ClF3O2", "Melting Point": "69 \u00b0C", "Density": "1.212 g/cm\u00b3 @ Temp: 25 \u00b0C"}}