{"cas_no": "82671-06-5", "cn_name": "2,6-\u4e8c\u6c2f-5-\u6c1f\u70df\u9178", "en_name": ["2,6-Dichloro-5-fluoronicotinic acid", "3-Pyridinecarboxylic acid, 2,6-dichloro-5-fluoro-", "2,6-Dichloro-5-fluoro-3-pyridinecarboxylic acid", "2,6-Dichloro-5-fluoronicotinic acid"], "SMILES": "C(O)(=O)C1=C(Cl)N=C(Cl)C(F)=C1", "physical_data": {"Molecular Weight": "209.99", "Molecular Formula": "C6H2Cl2FNO2", "Melting Point": "155-156 \u00b0C"}}