{"cas_no": "82689-20-1", "cn_name": "BOC-L-LYS(Z)-OL", "en_name": ["Phenylmethyl N-[(5S)-5-[[(1,1-dimethylethoxy)carbonyl]amino]-6-hydroxyhexyl]carbamate", "Carbamic acid, N-[(5S)-5-[[(1,1-dimethylethoxy)carbonyl]amino]-6-hydroxyhexyl]-, phenylmethyl ester", "Carbamic acid, [5-[[(1,1-dimethylethoxy)carbonyl]amino]-6-hydroxyhexyl]-, phenylmethyl ester, (S)-", "Carbamic acid, [(5S)-5-[[(1,1-dimethylethoxy)carbonyl]amino]-6-hydroxyhexyl]-, phenylmethyl ester", "Phenylmethyl N-[(5S)-5-[[(1,1-dimethylethoxy)carbonyl]amino]-6-hydroxyhexyl]carbamate", "Benzyl [(5S)-5-[[(tert-butyloxy)carbonyl]amino]-6-hydroxyhexyl]carbamate", "Benzyl [(5S)-5-[(tert-butoxycarbonyl)amino]-6-hydroxyhexyl]carbamate", "(S)-Benzyl tert-butyl (6-hydroxyhexane-1,5-diyl)dicarbamate"], "SMILES": "C(OC(NCCCCC(NC(OC(C)(C)C)=O)CO)=O)C1=CC=CC=C1", "physical_data": {"Molecular Weight": "366.45", "Molecular Formula": "C19H30N2O5", "Melting Point": "62-63 \u00b0C"}}