{"cas_no": "82692-44-2", "cn_name": "\u5421\u8349\u916e", "en_name": ["Benzofenap", "Ethanone, 2-[[4-(2,4-dichloro-3-methylbenzoyl)-1,3-dimethyl-1H-pyrazol-5-yl]oxy]-1-(4-methylphenyl)-", "2-[[4-(2,4-Dichloro-3-methylbenzoyl)-1,3-dimethyl-1H-pyrazol-5-yl]oxy]-1-(4-methylphenyl)ethanone", "Benzofenap", "MY 71", "Yukawide", "MY 98"], "SMILES": "C(=O)(C1=C(OCC(=O)C2=CC=C(C)C=C2)N(C)N=C1C)C3=C(Cl)C(C)=C(Cl)C=C3", "physical_data": {"Molecular Weight": "431.31", "Molecular Formula": "C22H20Cl2N2O3", "Melting Point": "133.3 \u00b0C"}}