{"cas_no": "827-15-6", "cn_name": "2,3,4,5,6-\u4e94\u6c1f\u7898\u82ef", "en_name": ["Pentafluoroiodobenzene", "Benzene, 1,2,3,4,5-pentafluoro-6-iodo-", "Benzene, pentafluoroiodo-", "1,2,3,4,5-Pentafluoro-6-iodobenzene", "Pentafluoroiodobenzene", "Iodopentafluorobenzene", "Iodoperfluorobenzene", "2,3,4,5,6-Pentafluoroiodobenzene", "Pentafluorophenyl iodide", "Perfluoroiodobenzene", "NSC 88306"], "SMILES": "FC1=C(F)C(F)=C(I)C(F)=C1F", "physical_data": {"Molecular Weight": "293.96", "Molecular Formula": "C6F5I", "Boiling Point": "166 \u00b0C", "Melting Point": "-29 \u00b0C"}}