{"cas_no": "827-61-2", "cn_name": "\u4e59\u9170\u514b\u91cc\u5b9a", "en_name": ["Aceclidine", "1-Azabicyclo[2.2.2]octan-3-ol, 3-acetate", "3-Quinuclidinol, acetate (ester)", "1-Azabicyclo[2.2.2]octan-3-ol, acetate (ester)", "3-Quinuclidinol, acetate", "Aceclidine", "3-Acetoxyquinuclidine", "3-Hydroxyquinuclidine acetate", "Aceclidin", "(\u00b1)-3-Acetoxyquinuclidine", "3-Quinuclidinyl acetate", "dl-3-Quinuclidinol acetate", "NSC 657843", "1-Azabicyclo[2.2.2]octan-3-yl acetate", "Quinuclidin-3-yl acetate"], "SMILES": "O(C(C)=O)C1C2CCN(C1)CC2", "physical_data": {"Molecular Weight": "169.22", "Molecular Formula": "C9H15NO2", "Boiling Point": "73-74 \u00b0C @ Press: 0.4 Torr"}}