{"cas_no": "827-24-7", "cn_name": "2-\u6eb4-4-\u7532\u57fa-6-\u785d\u57fa\u82ef\u80fa", "en_name": ["2-Bromo-4-methyl-6-nitrobenzenamine", "Benzenamine, 2-bromo-4-methyl-6-nitro-", "p-Toluidine, 2-bromo-6-nitro-", "2-Bromo-4-methyl-6-nitrobenzenamine", "2-Bromo-4-methyl-6-nitroaniline", "(2-Bromo-4-methyl-6-nitrophenyl)amine"], "SMILES": "N(=O)(=O)C1=C(N)C(Br)=CC(C)=C1", "physical_data": {"Molecular Weight": "231.05", "Molecular Formula": "C7H7BrN2O2", "Melting Point": "63-64 \u00b0C"}}