{"cas_no": "827-25-8", "cn_name": "2-\u785d\u57fa-4-\u6c2f-6-\u6eb4\u82ef\u80fa", "en_name": ["2-Bromo-4-chloro-6-nitrobenzenamine", "Benzenamine, 2-bromo-4-chloro-6-nitro-", "Aniline, 2-bromo-4-chloro-6-nitro-", "2-Bromo-4-chloro-6-nitrobenzenamine", "2-Bromo-4-chloro-6-nitroaniline"], "SMILES": "N(=O)(=O)C1=C(N)C(Br)=CC(Cl)=C1", "physical_data": {"Molecular Weight": "251.47", "Molecular Formula": "C6H4BrClN2O2", "Melting Point": "106 \u00b0C"}}