{"cas_no": "827-19-0", "cn_name": "2,5-\u4e8c\u7532\u57fa\u82ef\u78fa\u9178\u94a0\u76d0", "en_name": ["Benzenesulfonic acid, 2,5-dimethyl-, sodium salt (1:1)", "Benzenesulfonic acid, 2,5-dimethyl-, sodium salt (1:1)", "Benzenesulfonic acid, 2,5-dimethyl-, sodium salt", "2,5-Xylenesulfonic acid, sodium salt", "Sodium 2,5-dimethylbenzenesulfonate", "Sodium p-xylenesulfonate", "Sodium p-xylene-2-sulfonate"], "SMILES": "S(=O)(=O)(O)C1=C(C)C=CC(C)=C1.[Na]", "physical_data": {"Molecular Weight": "", "Molecular Formula": "C8H10O3S.Na", "Melting Point": "&gt;250 \u00b0C"}}