{"cas_no": "827-36-1", "cn_name": "A-(N,N-\u4e8c\u7532\u6c28\u57fa)\u82ef\u4e59\u8148", "en_name": ["\u03b1-(Dimethylamino)benzeneacetonitrile", "Benzeneacetonitrile, \u03b1-(dimethylamino)-", "Acetonitrile, (dimethylamino)phenyl-", "Glycinonitrile, N,N-dimethyl-2-phenyl-", "\u03b1-(Dimethylamino)benzeneacetonitrile", "\u03b1-(Dimethylamino)phenylacetonitrile", "NSC 37416", "2-(N,N-Dimethylamino)-2-phenylacetonitrile", "2-(Dimethylamino)-2-phenylacetonitrile"], "SMILES": "C(N(C)C)(C#N)C1=CC=CC=C1", "physical_data": {"Molecular Weight": "160.22", "Molecular Formula": "C10H12N2", "Boiling Point": "120 \u00b0C @ Press: 16 Torr"}}