{"cas_no": "827-54-3", "cn_name": "2-\u4e59\u70ef\u57fa\u8418", "en_name": ["2-Vinylnaphthalene", "Naphthalene, 2-ethenyl-", "Naphthalene, 2-vinyl-", "2-Ethenylnaphthalene", "2-Vinylnaphthalene", "\u03b2-Vinylnaphthalene", "(2-Naphthyl)ethylene", "(2-Naphthyl)ethene", "(Naphthalen-2-yl)ethene"], "SMILES": "C(=C)C1=CC2=C(C=C1)C=CC=C2", "physical_data": {"Molecular Weight": "154.21", "Molecular Formula": "C12H10", "Boiling Point": "135-137 \u00b0C @ Press: 18 Torr", "Melting Point": "66 \u00b0C", "Density": "1.0485 g/cm\u00b3 @ Temp: 20 \u00b0C"}}