{"cas_no": "827-52-1", "cn_name": "\u73af\u5df1\u57fa\u82ef", "en_name": ["Cyclohexylbenzene", "Benzene, cyclohexyl-", "Cyclohexylbenzene", "Cyclohexane, phenyl-", "1,1\u2032-Biphenyl, 1,2,3,4,5,6-hexahydro-", "Phenylcyclohexane", "4-Cyclohexylbenzene", "NSC 40473", "NSC 69101"], "SMILES": "C1(CCCCC1)C2=CC=CC=C2", "physical_data": {"Molecular Weight": "160.26", "Molecular Formula": "C12H16", "Boiling Point": "240.1 \u00b0C", "Melting Point": "7.3 \u00b0C", "Density": "0.982 g/cm\u00b3 @ Temp: 14 \u00b0C"}}