{"cas_no": "827-08-7", "cn_name": "1,2-\u4e8c\u6eb4\u56db\u6c1f\u82ef", "en_name": ["1,2-Dibromotetrafluorobenzene", "Benzene, 1,2-dibromo-3,4,5,6-tetrafluoro-", "Benzene, 1,2-dibromotetrafluoro-", "1,2-Dibromo-3,4,5,6-tetrafluorobenzene", "1,2-Dibromoperfluorobenzene", "1,2-Dibromotetrafluorobenzene", "o-Dibromoperfluorobenzene", "NSC 88296"], "SMILES": "BrC1=C(Br)C(F)=C(F)C(F)=C1F", "physical_data": {"Molecular Weight": "307.87", "Molecular Formula": "C6Br2F4", "Boiling Point": "198 \u00b0C", "Melting Point": "12 \u00b0C"}}