{"cas_no": "827-94-1", "cn_name": "2,6-\u4e8c\u6eb4-4-\u785d\u57fa\u82ef\u80fa", "en_name": ["2,6-Dibromo-4-nitroaniline", "Benzenamine, 2,6-dibromo-4-nitro-", "Aniline, 2,6-dibromo-4-nitro-", "2,6-Dibromo-4-nitrobenzenamine", "2,6-Dibromo-4-nitroaniline", "2,6-Dibromo-p-nitroaniline", "NSC 38765", "2,6-Dibromo-4-nitro-phenylamine", "4-Nitro-2,6-dibromoaniline"], "SMILES": "N(=O)(=O)C1=CC(Br)=C(N)C(Br)=C1", "physical_data": {"Molecular Weight": "295.92", "Molecular Formula": "C6H4Br2N2O2", "Boiling Point": "207 \u00b0C", "Melting Point": "202.5 \u00b0C"}}