{"cas_no": "827-43-0", "cn_name": "4-\u7532\u57fa-2-\u82ef\u57fa\u54aa\u5511", "en_name": ["2-Phenyl-4-methylimidazole", "1H-Imidazole, 5-methyl-2-phenyl-", "Imidazole, 4(or 5)-methyl-2-phenyl-", "1H-Imidazole, 4-methyl-2-phenyl-", "5-Methyl-2-phenyl-1H-imidazole", "2-Phenyl-4-methylimidazole", "4-Methyl-2-phenylimidazole", "Curezol 2P4MZ", "2P4MZ", "4-Methyl-2-phenyl-1H-imidazole"], "SMILES": "CC=1NC(=NC1)C2=CC=CC=C2", "physical_data": {"Molecular Weight": "158.20", "Molecular Formula": "C10H10N2", "Melting Point": "180 \u00b0C"}}