{"cas_no": "82717-96-2", "cn_name": "N-[1-(S)-\u4e59\u6c27\u7fb0\u57fa-3-\u82ef\u4e19\u57fa]-L-\u4e19\u6c28\u9178", "en_name": ["N-[1(S)-Ethoxycarbonyl-3-phenylpropyl]-L-alanine", "Benzenebutanoic acid, \u03b1-[[(1S)-1-carboxyethyl]amino]-, 1-ethyl ester, (\u03b1S)-", "Benzenebutanoic acid, \u03b1-[(1-carboxyethyl)amino]-, monoethyl ester, [S-(R*,R*)]-", "Benzenebutanoic acid, \u03b1-[[(1S)-1-carboxyethyl]amino]-, monoethyl ester, (\u03b1S)-", "N-[(S)-1-Ethoxycarbonyl-3-phenylpropyl]-L-alanine", "N-[1(S)-Ethoxycarbonyl-3-phenylpropyl]-L-alanine"], "SMILES": "C(CCC1=CC=CC=C1)(NC(C(O)=O)C)C(OCC)=O", "physical_data": {"Molecular Weight": "279.33", "Molecular Formula": "C15H21NO4", "Melting Point": "147-148 \u00b0C"}}