{"cas_no": "82752-99-6", "cn_name": "\u8418\u6cd5\u5511\u916e\u76d0\u9178\u76d0", "en_name": ["Nefazodone hydrochloride", "3H-1,2,4-Triazol-3-one, 2-[3-[4-(3-chlorophenyl)-1-piperazinyl]propyl]-5-ethyl-2,4-dihydro-4-(2-phenoxyethyl)-, hydrochloride (1:1)", "3H-1,2,4-Triazol-3-one, 2-[3-[4-(3-chlorophenyl)-1-piperazinyl]propyl]-5-ethyl-2,4-dihydro-4-(2-phenoxyethyl)-, monohydrochloride", "Nefazodone hydrochloride", "BMY 13754", "MJ 13754-1", "Serzone", "BMY 13754-1", "Serazone", "Dutonin", "1-[3-[4-(3-Chlorophenyl)piperazin-1-yl]propyl]-3-ethyl-4-(2-phenoxyethyl)-4,5-dihydro-1H-1,2,4-triazol-5-one hydrochloride"], "SMILES": "C(COC1=CC=CC=C1)N2C(CC)=NN(CCCN3CCN(CC3)C4=CC(Cl)=CC=C4)C2=O.Cl", "physical_data": {"Molecular Weight": "", "Molecular Formula": "C25H32ClN5O2.ClH", "Melting Point": "186-188 \u00b0C"}}