{"cas_no": "827614-64-2", "cn_name": "2-\u6c28\u57fa\u5421\u5576-5-\u787c\u9178,\u9891\u54ea\u9187\u916f", "en_name": ["5-(4,4,5,5-Tetramethyl-1,3,2-dioxaborolan-2-yl)pyridin-2-amine", "2-Pyridinamine, 5-(4,4,5,5-tetramethyl-1,3,2-dioxaborolan-2-yl)-", "5-(4,4,5,5-Tetramethyl-1,3,2-dioxaborolan-2-yl)-2-pyridinamine", "2-Amino-5-(4,4,5,5-tetramethyl-1,3,2-dioxaborolan-2-yl)pyridine", "5-(4,4,5,5-Tetramethyl-1,3,2-dioxaborolan-2-yl)pyridin-2-amine", "[5-(4,4,5,5-Tetramethyl-[1,3,2]dioxaborolan-2-yl)pyridin-2-yl]amine", "(2-Aminopyridin-5-yl)boronic acid pinacol ester", "2-(6-Aminopyridin-3-yl)-4,4,5,5-tetramethyl-1,3,2-dioxaborolane", "2-Aminopyridine-5-boronic acid pinacol ester", "6-Aminopyridin-3-ylboronic acid pinacol ester", "5-(3,3,4,4-Tetramethylborolan-1-yl)pyridin-2-amine"], "SMILES": "CC1(C)OB(OC1(C)C)C=2C=CC(N)=NC2", "physical_data": {"Molecular Weight": "220.08", "Molecular Formula": "C11H17BN2O2", "Melting Point": "132-134 \u00b0C"}}