{"cas_no": "82769-76-4", "cn_name": "(S)-3-\u6c28\u57fa-3-\u82ef\u57fa\u4e19\u9187", "en_name": ["(-)-3-Amino-3-phenylpropanol", "Benzenepropanol, \u03b3-amino-, (\u03b3S)-", "Benzenepropanol, \u03b3-amino-, (S)-", "(\u03b3S)-\u03b3-Aminobenzenepropanol", "(S)-3-Amino-3-phenyl-1-propanol", "(3S)-3-Amino-3-phenyl-1-propanol", "(S)-3-Amino-3-phenylpropanol", "(-)-3-Amino-3-phenylpropanol", "(3S)-3-Amino-3-phenylpropan-1-ol"], "SMILES": "C(CCO)(N)C1=CC=CC=C1", "physical_data": {"Molecular Weight": "151.21", "Molecular Formula": "C9H13NO", "Boiling Point": "90-100 \u00b0C @ Press: 0.13 Torr", "Melting Point": "68-69 \u00b0C"}}