{"cas_no": "82768-85-2", "cn_name": "\u55b9\u666e\u5229\u62c9", "en_name": ["Quinaprilat", "3-Isoquinolinecarboxylic acid, 2-[(2S)-2-[[(1S)-1-carboxy-3-phenylpropyl]amino]-1-oxopropyl]-1,2,3,4-tetrahydro-, (3S)-", "3-Isoquinolinecarboxylic acid, 2-[2-[(1-carboxy-3-phenylpropyl)amino]-1-oxopropyl]-1,2,3,4-tetrahydro-, [3S-[2[R*(R*)],3R*]]-", "(3S)-2-[(2S)-2-[[(1S)-1-Carboxy-3-phenylpropyl]amino]-1-oxopropyl]-1,2,3,4-tetrahydro-3-isoquinolinecarboxylic acid", "CI 928", "Quinaprilat"], "SMILES": "C(C(NC(CCC1=CC=CC=C1)C(O)=O)C)(=O)N2C(C(O)=O)CC=3C(C2)=CC=CC3", "physical_data": {"Molecular Weight": "410.46", "Molecular Formula": "C23H26N2O5", "Melting Point": "166-168 \u00b0C"}}