{"cas_no": "82799-44-8", "cn_name": "2,4-\u4e8c\u4e59\u57fa\u567b\u5511\u916e", "en_name": ["2,4-Diethylthioxanthone", "9H-Thioxanthen-9-one, 2,4-diethyl-", "2,4-Diethyl-9H-thioxanthen-9-one", "2,4-Diethylthioxanthone", "Kayacure DETX", "Kayacure DETX-S", "DETX-S", "Speedcure DETX", "Genocure DETX", "Esacure DETX", "JRCure DETX", "DETX", "Daido UV-Cure DETX", "Chemcure JETX", "2,4-Diethylthioxanthen-9-one", "Chivacure DETX", "Chemcure DETX", "Irgacure DETX", "Photoinitiator DETX", "Gencure DETX", "Omnirad DETX", "Doublecure DETX", "Chemark DETX"], "SMILES": "C(C)C1=C2C(C(=O)C=3C(S2)=CC=CC3)=CC(CC)=C1", "physical_data": {"Molecular Weight": "268.37", "Molecular Formula": "C17H16OS", "Melting Point": "55-57 \u00b0C"}}