{"cas_no": "828-01-3", "cn_name": "DL-\u0392-\u82ef\u4e73\u9178", "en_name": ["(\u00b1)-3-Phenyllactic acid", "Benzenepropanoic acid, \u03b1-hydroxy-", "Lactic acid, 3-phenyl-, DL-", "Benzenepropanoic acid, \u03b1-hydroxy-, (\u00b1)-", "Lactic acid, \u03b2-phenyl-", "\u03b1-Hydroxybenzenepropanoic acid", "DL-\u03b2-Phenyllactic acid", "Ba 2653", "DL-3-Phenyllactic acid", "(\u00b1)-3-Phenyllactic acid", "DL-2-Hydroxy-3-phenylpropionic acid", "(RS)-3-Phenyllactic acid", "3-Phenyllactic acid", "\u03b2-Phenyllactic acid", "2-Hydroxy-3-phenylpropionic acid", "\u03b1-Hydroxy-\u03b2-phenylpropionic acid", "3-Phenyl-2-hydroxypropanoic acid", "(\u00b1)-\u03b2-Phenyllactic acid", "2-Hydroxy-3-phenylpropanoic acid", "NSC 2627", "(\u00b1)-2-Hydroxy-3-phenylpropanoic acid", "\u03b1-Hydroxyphenylpropanoic acid", "dl-Phenyllactic acid", "Rac-Phenyllactic acid", "phenylenolpyruvate"], "SMILES": "C(C(C(O)=O)O)C1=CC=CC=C1", "physical_data": {"Molecular Weight": "166.17", "Molecular Formula": "C9H10O3", "Boiling Point": "136 \u00b0C @ Press: 0.2 Torr", "Melting Point": "98 \u00b0C"}}