{"cas_no": "828-27-3", "cn_name": "4-(\u4e09\u6c1f\u7532\u6c27\u57fa)\u82ef\u915a", "en_name": ["4-(Trifluoromethoxy)phenol", "Phenol, 4-(trifluoromethoxy)-", "Phenol, p-(trifluoromethoxy)-", "4-(Trifluoromethoxy)phenol", "p-(Trifluoromethoxy)phenol"], "SMILES": "O(C(F)(F)F)C1=CC=C(O)C=C1", "physical_data": {"Molecular Weight": "178.11", "Molecular Formula": "C7H5F3O2", "Boiling Point": "90 \u00b0C @ Press: 4.5 Torr"}}