{"cas_no": "828-51-3", "cn_name": "1-\u91d1\u521a\u70f7\u7532\u9178", "en_name": ["1-Adamantanecarboxylic acid", "Tricyclo[3.3.1.13,7]decane-1-carboxylic acid", "1-Adamantanecarboxylic acid", "Adamantoic acid", "1-Carboxyadamantane", "1-Adamantane-1-carboxylic acid", "NSC 94182", "1-Adamantylcarboxylic acid", "Adamantan-1-carboxylic acid"], "SMILES": "C(O)(=O)C12CC3CC(C1)CC(C2)C3", "physical_data": {"Molecular Weight": "180.24", "Molecular Formula": "C11H16O2", "Melting Point": "181 \u00b0C"}}