{"cas_no": "828-73-9", "cn_name": "\u4e94\u6c28\u57fa\u6c1f\u4e19\u57fa\u6c22\u6c27\u5421\u5576", "en_name": ["(Pentafluorophenyl)hydrazine", "Hydrazine, (2,3,4,5,6-pentafluorophenyl)-", "Hydrazine, (pentafluorophenyl)-", "(2,3,4,5,6-Pentafluorophenyl)hydrazine", "(Pentafluorophenyl)hydrazine", "(Perfluorophenyl)hydrazine", "NSC 88334"], "SMILES": "N(N)C1=C(F)C(F)=C(F)C(F)=C1F", "physical_data": {"Molecular Weight": "198.09", "Molecular Formula": "C6H3F5N2", "Melting Point": "75 \u00b0C"}}