{"cas_no": "828-26-2", "cn_name": "\u4e09\u786b\u4e19\u916e", "en_name": ["Trithioacetone", "1,3,5-Trithiane, 2,2,4,4,6,6-hexamethyl-", "s-Trithiane, 2,2,4,4,6,6-hexamethyl-", "s-Trithiane, hexamethyl-", "2,2,4,4,6,6-Hexamethyl-1,3,5-trithiane", "Trithioacetone", "Hexamethyl-s-trithiane", "2,2,4,4,6,6-Hexamethyl-s-trithiane", "Hexamethyl-1,3,5-trithiane"], "SMILES": "CC1(C)SC(C)(C)SC(C)(C)S1", "physical_data": {"Molecular Weight": "222.43", "Molecular Formula": "C9H18S3", "Boiling Point": "105-107 \u00b0C @ Press: 10 Torr", "Melting Point": "227 \u00b0C", "Density": "1.073 g/cm\u00b3 @ Temp: 20 \u00b0C"}}