{"cas_no": "82820-87-9", "cn_name": "2,4-\u4e8c\u6eb4\u4e01\u9170\u6c2f", "en_name": ["2,4-Dibromobutanoyl chloride", "Butanoyl chloride, 2,4-dibromo-", "2,4-Dibromobutanoyl chloride", "2,4-Dibromobutyryl chloride"], "SMILES": "C(CCBr)(C(Cl)=O)Br", "physical_data": {"Molecular Weight": "264.34", "Molecular Formula": "C4H5Br2ClO", "Boiling Point": "84-87 \u00b0C @ Press: 8 Torr"}}