{"cas_no": "82834-12-6", "cn_name": "N-[(S)-\u4e59\u6c27\u7fb0\u57fa-1-\u4e01\u57fa]-(S)-\u4e19\u6c28\u9178", "en_name": ["N-[(1S)-1-Carboxyethyl]-L-norvaline 1-ethyl ester", "L-Norvaline, N-[(1S)-1-carboxyethyl]-, 1-ethyl ester", "L-Norvaline, N-(1-carboxyethyl)-, 1-ethyl ester, (S)-", "N-[(1S)-1-Carboxyethyl]-L-norvaline 1-ethyl ester"], "SMILES": "C(NC(C(O)=O)C)(C(OCC)=O)CCC", "physical_data": {"Molecular Weight": "217.26", "Molecular Formula": "C10H19NO4", "Melting Point": "148 \u00b0C"}}