{"cas_no": "82846-18-2", "cn_name": "4-\u6c1f-3-\u7532\u6c27\u57fa\u82ef\u7532\u9178", "en_name": ["4-Fluoro-3-methoxybenzoic acid", "Benzoic acid, 4-fluoro-3-methoxy-", "4-Fluoro-3-methoxybenzoic acid"], "SMILES": "O(C)C1=CC(C(O)=O)=CC=C1F", "physical_data": {"Molecular Weight": "170.14", "Molecular Formula": "C8H7FO3", "Melting Point": "207.5 \u00b0C"}}