{"cas_no": "829-85-6", "cn_name": "\u4e8c\u82ef\u57fa\u81a6", "en_name": ["Diphenylphosphine", "Phosphine, diphenyl-", "Diphenylphosphine", "NSC 152123"], "SMILES": "P(C1=CC=CC=C1)C2=CC=CC=C2", "physical_data": {"Molecular Weight": "186.19", "Molecular Formula": "C12H11P", "Boiling Point": "280 \u00b0C", "Melting Point": "-14.5 \u00b0C", "Density": "1.070 g/cm\u00b3"}}