{"cas_no": "829-20-9", "cn_name": "2,4-\u4e8c\u7532\u6c27\u57fa\u82ef\u4e59\u916e", "en_name": ["2\u2032,4\u2032-Dimethoxyacetophenone", "Ethanone, 1-(2,4-dimethoxyphenyl)-", "Acetophenone, 2\u2032,4\u2032-dimethoxy-", "Acetophenone, 2,4-dimethoxy-", "1-(2,4-Dimethoxyphenyl)ethanone", "2\u2032,4\u2032-Dimethoxyacetophenone", "NSC 46645", "4-Acetyl-1,3-dimethoxybenzene", "1-(2,4-Dimethoxyphenyl)ethan-1-one"], "SMILES": "O(C)C1=C(C(C)=O)C=CC(OC)=C1", "physical_data": {"Molecular Weight": "180.20", "Molecular Formula": "C10H12O3", "Boiling Point": "288 \u00b0C", "Melting Point": "40 \u00b0C"}}