{"cas_no": "829-84-5", "cn_name": "\u4e8c\u73af\u5df1\u57fa\u81a6", "en_name": ["Dicyclohexylphosphine", "Phosphine, dicyclohexyl-", "Dicyclohexylphosphine"], "SMILES": "P(C1CCCCC1)C2CCCCC2", "physical_data": {"Molecular Weight": "198.28", "Molecular Formula": "C12H23P", "Boiling Point": "&gt;149.4 \u00b0C"}}