{"cas_no": "82911-69-1", "cn_name": "9-\u82b4\u7532\u57fa-N-\u7425\u73c0\u9170\u4e9a\u80fa\u57fa\u78b3\u9178\u916f", "en_name": ["N-(9-Fluorenylmethoxycarbonyloxy)succinimide", "Carbonic acid, 2,5-dioxo-1-pyrrolidinyl 9H-fluoren-9-ylmethyl ester", "2,5-Pyrrolidinedione, 1-[[(9H-fluoren-9-ylmethoxy)carbonyl]oxy]-", "9-Fluorenylmethyl succinimidyl carbonate", "N-(9-Fluorenylmethoxycarbonyloxy)succinimide", "(Fluorenylmethoxycarbonyl)hydroxysuccinimide ester", "FMOC-OSu", "Succinimidyl (9-fluorenyl)methyl carbonate", "9-Fluorenylmethyl N-succinimidyl carbonate", "N-(9H-Fluoren-9-ylmethoxycarbonyloxy)succinimide", "Fluorenylmethoxycarbonyl N-hydroxysuccinimide", "Fmoc-N-hydroxysuccinimide ester", "Fmoc-N-hydroxysuccinimide", "N-Fmoc-succinimide", "(9H-Fluoren-9-yl)methyl succinimidyl carbonate", "1-[[[(9H-Fluoren-9-yl)methoxy]carbonyl]oxy]pyrrolidine-2,5-dione", "9-Fluorenylmethyl-N-hydroxysuccinimide", "(2,5-Dioxopyrrolidin-1-yl) 9H-fluoren-9-ylmethyl carbonate", "2,5-Dioxopyrrolidin-1-yl (9H-fluoren-9-yl)methyl carbonate"], "SMILES": "C(OC(ON1C(=O)CCC1=O)=O)C2C=3C(C=4C2=CC=CC4)=CC=CC3", "physical_data": {"Molecular Weight": "337.33", "Molecular Formula": "C19H15NO5", "Melting Point": "143-144 \u00b0C"}}