{"cas_no": "82925-02-8", "cn_name": "4-[2-(3,4-\u4e8c\u6c22-6,7-\u4e8c\u7532\u6c27\u57fa-2(1H)-\u5f02\u55b9\u5549)\u4e59\u57fa]-\u82ef\u80fa", "en_name": ["4-[2-(3,4-Dihydro-6,7-dimethoxy-2(1H)-isoquinolinyl)ethyl]benzenamine", "Benzenamine, 4-[2-(3,4-dihydro-6,7-dimethoxy-2(1H)-isoquinolinyl)ethyl]-", "4-[2-(3,4-Dihydro-6,7-dimethoxy-2(1H)-isoquinolinyl)ethyl]benzenamine", "[4-[2-(6,7-Dimethoxy-3,4-dihydro-1H-isoquinolin-2-yl)ethyl]phenyl]amine", "4-(2-(6,7-Dimethoxy-3,4-dihydroisoquinolin-2(1H)-yl)ethyl)aniline"], "SMILES": "O(C)C=1C=C2C(=CC1OC)CCN(CCC3=CC=C(N)C=C3)C2", "physical_data": {"Molecular Weight": "312.41", "Molecular Formula": "C19H24N2O2", "Melting Point": "129 \u00b0C"}}