{"cas_no": "82941-26-2", "cn_name": "(2-\u6b63\u4e01\u6c27\u4e59\u6c27\u57fa)\u4e59\u9178", "en_name": ["2-(2-Butoxyethoxy)acetic acid", "Acetic acid, 2-(2-butoxyethoxy)-", "Acetic acid, (2-butoxyethoxy)-", "2-(2-Butoxyethoxy)acetic acid", "(2-Butoxyethoxy)acetic acid", "3,6-Dioxadecanoic acid", "(2-n-Butoxyethoxy)acetic acid"], "SMILES": "C(COCCCC)OCC(O)=O", "physical_data": {"Molecular Weight": "176.21", "Molecular Formula": "C8H16O4", "Boiling Point": "141 \u00b0C @ Press: 5 Torr", "Density": "1.04635 g/cm\u00b3 @ Temp: 20 \u00b0C"}}