{"cas_no": "82958-44-9", "cn_name": "11-O-\u6ca1\u98df\u5b50\u9170\u5ca9\u767d\u83dc\u7d20", "en_name": ["11-O-Galloylbergenin", "Benzoic acid, 3,4,5-trihydroxy-, [(2R,3S,4S,4aR,10bS)-2,3,4,4a,6,10b-hexahydro-3,4,8,10-tetrahydroxy-9-methoxy-6-oxopyrano[3,2-c][2]benzopyran-2-yl]methyl ester", "Benzoic acid, 3,4,5-trihydroxy-, (2,3,4,4a,6,10b-hexahydro-3,4,8,10-tetrahydroxy-9-methoxy-6-oxopyrano[3,2-c][2]benzopyran-2-yl)methyl ester, [2R-(2\u03b1,3\u03b2,4\u03b1,4a\u03b1,10b\u03b2)]-", "Pyrano[3,2-c][2]benzopyran, benzoic acid deriv.", "11-O-Galloylbergenin"], "SMILES": "OC1=C2C3C(OC(=O)C2=CC(O)=C1OC)C(O)C(O)C(COC(=O)C4=CC(O)=C(O)C(O)=C4)O3", "physical_data": {"Molecular Weight": "480.38", "Molecular Formula": "C21H20O13", "Melting Point": "269 \u00b0C"}}