{"cas_no": "82956-11-4", "cn_name": "\u7532\u78fa\u9178\u8418\u83ab\u53f8\u4ed6", "en_name": ["Nafamostat mesylate", "Benzoic acid, 4-[(aminoiminomethyl)amino]-, 6-(aminoiminomethyl)-2-naphthalenyl ester, methanesulfonate (1:2)", "Benzoic acid, 4-[(aminoiminomethyl)amino]-, 6-(aminoiminomethyl)-2-naphthalenyl ester, dimethanesulfonate", "FUT 175", "Nafamostat mesylate", "Nafamostat mesilate", "6-Amidino-2-naphthyl p-guanidinobenzoate dimethanesulfonate", "Futhan", "Nafamostat dimethanesulfonate", "Nafamastat mesylate", "Coahibitor"], "SMILES": "S(C)(=O)(=O)O.C(=N)(N)C1=CC2=C(C=C(OC(=O)C3=CC=C(NC(=N)N)C=C3)C=C2)C=C1", "physical_data": {"Molecular Weight": "", "Molecular Formula": "C19H17N5O2.2CH4O3S", "Melting Point": "217-220 \u00b0C"}}