{"cas_no": "82964-04-3", "cn_name": "\u6258\u96f7\u65af\u8418", "en_name": ["Tolrestat", "Glycine, N-[[6-methoxy-5-(trifluoromethyl)-1-naphthalenyl]thioxomethyl]-N-methyl-", "N-[[6-Methoxy-5-(trifluoromethyl)-1-naphthalenyl]thioxomethyl]-N-methylglycine", "Tolrestat", "AY 27773", "Tolrestatin", "Alredase", "Lorestat", "2-(6-Methoxy-N-methyl-5-(trifluoromethyl)naphthalene-1-carbothioamido)aceticacid"], "SMILES": "C(N(CC(O)=O)C)(=S)C=1C2=C(C(C(F)(F)F)=C(OC)C=C2)C=CC1", "physical_data": {"Molecular Weight": "357.35", "Molecular Formula": "C16H14F3NO3S", "Melting Point": "164-165 \u00b0C"}}