{"cas_no": "82985-35-1", "cn_name": "\u4e8c(3-\u4e09\u7532\u6c27\u57fa\u7532\u7845\u70f7\u57fa\u4e19\u57fa)\u80fa", "en_name": ["Bis(trimethoxysilylpropyl)amine", "1-Propanamine, 3-(trimethoxysilyl)-N-[3-(trimethoxysilyl)propyl]-", "3-(Trimethoxysilyl)-N-[3-(trimethoxysilyl)propyl]-1-propanamine", "Bis(trimethoxysilylpropyl)amine", "TSL 8208", "A 1170", "Bis[3-(trimethoxysilyl)propyl]amine", "N,N-Bis[3-(trimethoxysilyl)propyl]amine", "TSL 8206", "Silquest A 1170", "Bis(\u03b3-trimethoxysilylpropyl)amine", "Silquest 1170", "D 1189", "Dynasylan 1124", "Silquest 9492", "KBM 666P", "SIB 1833.0", "Geniosil GF 192", "ZH 1170", "LT 1170", "KH 1170", "Silquest Y 9492"], "SMILES": "[Si](CCCNCCC[Si](OC)(OC)OC)(OC)(OC)OC", "physical_data": {"Molecular Weight": "341.55", "Molecular Formula": "C12H31NO6Si2", "Boiling Point": "152 \u00b0C @ Press: 4 Torr", "Density": "1.040 g/cm\u00b3"}}