{"cas_no": "82998-57-0", "cn_name": "3-\u7898-4-\u7532\u57fa\u82ef\u7532\u9178", "en_name": ["3-Iodo-4-methylbenzoic acid", "Benzoic acid, 3-iodo-4-methyl-", "3-Iodo-4-methylbenzoic acid"], "SMILES": "C(O)(=O)C1=CC(I)=C(C)C=C1", "physical_data": {"Molecular Weight": "262.04", "Molecular Formula": "C8H7IO2", "Melting Point": "208-210 \u00b0C"}}