{"cas_no": "83-07-8", "cn_name": "4-\u6c28\u57fa\u5b89\u66ff\u6bd4\u6797", "en_name": ["4-Aminoantipyrine", "3H-Pyrazol-3-one, 4-amino-1,2-dihydro-1,5-dimethyl-2-phenyl-", "Antipyrine, 4-amino-", "4-Amino-1,2-dihydro-1,5-dimethyl-2-phenyl-3H-pyrazol-3-one", "4-AAP", "4-Aminoantipyrine", "4-Amino-1,5-dimethyl-2-phenyl-3-pyrazolone", "4-Aminophenazone", "Ampyrone", "1-Phenyl-2,3-dimethyl-4-amino-5-pyrazolone", "Aminoantipyrine", "4-Amino-2,3-dimethyl-1-phenyl-3-pyrazolin-5-one", "Aminoazophene", "4-Amino-1,5-dimethyl-2-phenylpyrazolin-3-one", "4-Amino-2,3-dimethyl-1-phenyl-5-pyrazolone", "4-Amino-2,3-dimethyl-1-phenylpyrazolin-5-one", "4-Amino-1,5-dimethyl-2-phenyl-4-pyrazolin-3-one", "4-Amino-1,5-dimethyl-3-oxo-2-phenylpyrazoline", "Metapirazone", "Solvapyrin A", "4-Amino-1-phenyl-2,3-dimethyl-5-pyrazolone", "1,2-Dihydro-1,5-dimethyl-2-phenyl-4-amino-3H-pyrazol-3-one", "4-Amino-1,5-dimethyl-2-phenyl-1,2-dihydro-3H-pyrazol-3-one", "NSC 60242", "4-Amino-1,5-dimethyl-2-phenyl-1,2-dihydropyrazol-3-one", "(2,3-Dihydro-1,5-dimethyl-3-oxo-2-phenyl-1H-pyrazol-4-yl)amine", "4-Amino-1,5-dimethyl-2-phenyl-1H-pyrazol-3(2H)-one", "4-Amino-1,2-dihydro-2,3-dimethyl-1-phenylpyrazol-5-one", "4-Amino-1,5-dimethyl-2-phenyl-1H-pyrazol-3-one", "4-Amino-1,5-dimethyl-2-phenyl-1,2-dihydro-3H-pyrazole-3-one", "MeSH ID: D000675"], "SMILES": "O=C1N(N(C)C(C)=C1N)C2=CC=CC=C2", "physical_data": {"Molecular Weight": "203.24", "Molecular Formula": "C11H13N3O", "Melting Point": "109 \u00b0C"}}