{"cas_no": "83-01-2", "cn_name": "\u4e8c\u82ef\u6c28\u57fa\u7532\u9170\u6c2f", "en_name": ["N,N-Diphenylcarbamic chloride", "Carbamic chloride, N,N-diphenyl-", "Carbamoyl chloride, diphenyl-", "Carbamic chloride, diphenyl-", "N,N-Diphenylcarbamic chloride", "Diphenylcarbamoyl chloride", "Diphenylcarbamyl chloride", "Diphenylchloroformamide", "Diphenylcarbamic chloride", "N,N-Diphenylcarbamoyl chloride", "NSC 6788"], "SMILES": "N(C(Cl)=O)(C1=CC=CC=C1)C2=CC=CC=C2", "physical_data": {"Molecular Weight": "231.68", "Molecular Formula": "C13H10ClNO", "Melting Point": "84 \u00b0C"}}