{"cas_no": "83-05-6", "cn_name": "\u53cc(4-\u6c2f\u82ef\u57fa)\u4e59\u9178", "en_name": ["Bis(4-chlorophenyl)acetic acid", "Benzeneacetic acid, 4-chloro-\u03b1-(4-chlorophenyl)-", "Acetic acid, bis(p-chlorophenyl)-", "4-Chloro-\u03b1-(4-chlorophenyl)benzeneacetic acid", "DDA", "Bis(p-chlorophenyl)acetic acid", "Di(p-chlorophenyl)acetic acid", "Dichlorodiphenylacetic acid", "p,p\u2032-DDA", "Bis(4-chlorophenyl)acetic acid", "2,2-Bis(4-chlorophenyl)acetic acid", "DDA (degradation product)", "NSC 4279"], "SMILES": "C(C(O)=O)(C1=CC=C(Cl)C=C1)C2=CC=C(Cl)C=C2", "physical_data": {"Molecular Weight": "281.13", "Molecular Formula": "C14H10Cl2O2", "Melting Point": "163-164 \u00b0C"}}