{"cas_no": "83-13-6", "cn_name": "\u82ef\u57fa\u4e19\u4e8c\u9178\u4e8c\u4e59\u916f", "en_name": ["Diethyl phenylmalonate", "Propanedioic acid, 2-phenyl-, 1,3-diethyl ester", "Malonic acid, phenyl-, diethyl ester", "Propanedioic acid, phenyl-, diethyl ester", "Diethyl phenylmalonate", "Phenylmalonic acid diethyl ester", "Diethyl \u03b1-phenylmalonate", "Diethyl 2-phenylmalonate", "Ethyl phenylmalonate", "(Phenyl)propanedioic acid diethyl ester", "NSC 53560", "NSC 8126", "1,3-Diethyl 2-phenylpropanedioate"], "SMILES": "C(C(OCC)=O)(C(OCC)=O)C1=CC=CC=C1", "physical_data": {"Molecular Weight": "236.26", "Molecular Formula": "C13H16O4", "Boiling Point": "171 \u00b0C @ Press: 21 Torr", "Melting Point": "16.5 \u00b0C", "Density": "1.101 g/cm\u00b3 @ Temp: 15 \u00b0C"}}