{"cas_no": "83-18-1", "cn_name": "2,5-\u4e8c\u7532\u57fa-1-\u82ef\u57fa\u5421\u54af-3-\u7fb0\u919b", "en_name": ["2,5-Dimethyl-1-phenyl-1H-pyrrole-3-carboxaldehyde", "1H-Pyrrole-3-carboxaldehyde, 2,5-dimethyl-1-phenyl-", "Pyrrole-3-carboxaldehyde, 2,5-dimethyl-1-phenyl-", "2,5-Dimethyl-1-phenyl-1H-pyrrole-3-carboxaldehyde", "3-Formyl-2,5-dimethyl-1-phenylpyrrole", "2,5-Dimethyl-1-phenylpyrrole-3-carboxaldehyde", "NSC 68230", "2,5-Dimethyl-1-phenylpyrrole-3-carbaldehyde", "2,5-Dimethyl-1-phenyl-1H-pyrrole-3-carbaldehyde"], "SMILES": "CC=1N(C(C)=CC1C=O)C2=CC=CC=C2", "physical_data": {"Molecular Weight": "199.25", "Molecular Formula": "C13H13NO", "Boiling Point": "190 \u00b0C @ Press: 12 Torr", "Melting Point": "89-90 \u00b0C (decomp)"}}