{"cas_no": "83-15-8", "cn_name": "4-\u4e59\u9170\u6c28\u57fa\u5b89\u66ff\u6bd4\u6797", "en_name": ["4-Acetylaminoantipyrine", "Acetamide, N-(2,3-dihydro-1,5-dimethyl-3-oxo-2-phenyl-1H-pyrazol-4-yl)-", "Acetamide, N-antipyrinyl-", "Antipyrine, 4-acetamido-", "N-(2,3-Dihydro-1,5-dimethyl-3-oxo-2-phenyl-1H-pyrazol-4-yl)acetamide", "4-Acetamidoantipyrine", "N-Acetyl-4-aminoantipyrine", "4-Acetylaminoantipyrine", "Acetylaminoantipyrine", "4-Acetoaminoantipyrine", "4-Acetylaminophenazone", "N-Antipyrinylacetamide", "4-Acetaminoantipyrine", "N-Acetyl-4-aminophenazone", "4-(N-Acetylamino)antipyrine", "4-Acetamido-2,3-dimethyl-1-phenylpyrazol-5-one", "NSC 331807"], "SMILES": "O=C1N(N(C)C(C)=C1NC(C)=O)C2=CC=CC=C2", "physical_data": {"Molecular Weight": "245.28", "Molecular Formula": "C13H15N3O2", "Melting Point": "198-199 \u00b0C"}}