{"cas_no": "83-12-5", "cn_name": "\u82ef\u831a\u4e8c\u916e", "en_name": ["Phenindione", "1H-Indene-1,3(2H)-dione, 2-phenyl-", "1,3-Indandione, 2-phenyl-", "2-Phenyl-1H-indene-1,3(2H)-dione", "Athrombon", "Bindan", "Danilone", "Diadilan", "Dindevan", "Dineval", "Fenhydren", "Fenilin", "Hedulin", "Indema", "Indion", "Indon", "Phenhydren", "Phenindione", "2-Phenyl-1,3-diketohydrindene", "Phenylen", "2-Phenyl-1,3-indandione", "Phenylindione", "PID", "Pindione", "Phenillin", "Phenylin", "2-Phenyl-1,3-indanedione", "Danilon", "Tromazal", "Fenindion", "Emandion", "Rectadione", "Theradione", "Diophindane", "Trombol", "Emandione", "Danedion", "2-Phenylindandione", "Hemolidione", "Cronodione", "Thrombasal", "NSC 41693", "2-Phenyl-2,3-dihydro-1H-indene-1,3-dione", "2-Phenylindene-1,3-dione", "MeSH ID: D010630"], "SMILES": "O=C1C(C(=O)C=2C1=CC=CC2)C3=CC=CC=C3", "physical_data": {"Molecular Weight": "222.24", "Molecular Formula": "C15H10O2", "Melting Point": "149-151 \u00b0C"}}