{"cas_no": "83-26-1", "cn_name": "\u6740\u9f20\u916e", "en_name": ["Pindone", "1H-Indene-1,3(2H)-dione, 2-(2,2-dimethyl-1-oxopropyl)-", "1,3-Indandione, 2-pivaloyl-", "2-(2,2-Dimethyl-1-oxopropyl)-1H-indene-1,3(2H)-dione", "Pindone", "2-Pivaloyl-1,3-indandione", "2-Pivaloylindane-1,3-dione", "2-Pivalyl-1,3-indandione", "Pivalylindandione", "Pivalyl Valone", "Pivalyl", "Pival", "2-(Trimethylacetyl)-1,3-indandione", "Pivalylindan-1,3-dione", "NSC 31211", "NSC 6281", "Pivaldione"], "SMILES": "C(C(C)(C)C)(=O)C1C(=O)C=2C(C1=O)=CC=CC2", "physical_data": {"Molecular Weight": "230.26", "Molecular Formula": "C14H14O3", "Boiling Point": "180 \u00b0C @ Press: 1 Torr", "Melting Point": "108.5-110.5 \u00b0C", "Density": "1.06 g/cm\u00b3"}}