{"cas_no": "83-27-2", "cn_name": "\u4ef2\u4e01\u57fa\u4e19\u4e8c\u9178\u4e8c\u4e59\u916f", "en_name": ["1,3-Diethyl 2-(1-methylpropyl)propanedioate", "Propanedioic acid, 2-(1-methylpropyl)-, 1,3-diethyl ester", "Malonic acid, sec-butyl-, diethyl ester", "Propanedioic acid, (1-methylpropyl)-, diethyl ester", "1,3-Diethyl 2-(1-methylpropyl)propanedioate", "sec-Butylmalonic acid, diethyl ester", "Diethyl sec-butylmalonate", "(1-Methylpropyl)propanedioic acid diethyl ester", "NSC 127865", "NSC 30679", "NSC 41157", "Diethyl 2-sec-butylmalonate", "1,3-Diethyl 2-(butan-2-yl)propanedioate"], "SMILES": "C(C(OCC)=O)(C(OCC)=O)C(CC)C", "physical_data": {"Molecular Weight": "216.27", "Molecular Formula": "C11H20O4", "Boiling Point": "107-108 \u00b0C @ Press: 10 Torr"}}