{"cas_no": "83-24-9", "cn_name": "2,5-\u4e8c\u7532\u57fa-1-\u82ef\u57fa\u5421\u54af", "en_name": ["2,5-Dimethyl-1-phenylpyrrole", "1H-Pyrrole, 2,5-dimethyl-1-phenyl-", "Pyrrole, 2,5-dimethyl-1-phenyl-", "2,5-Dimethyl-1-phenyl-1H-pyrrole", "2,5-Dimethyl-1-phenylpyrrole", "1-Phenyl-2,5-dimethylpyrrole", "N-Phenyl-2,5-dimethylpyrrole", "NSC 163170", "2,5-Dimethyl-N-phenylpyrrole"], "SMILES": "CC=1N(C(C)=CC1)C2=CC=CC=C2", "physical_data": {"Molecular Weight": "171.24", "Molecular Formula": "C12H13N", "Boiling Point": "60-61 \u00b0C @ Press: 0.05 Torr", "Melting Point": "51-52 \u00b0C"}}