{"cas_no": "83-25-0", "cn_name": "N-\u82ef\u4e01\u4e8c\u91af\u4e9e\u80fa", "en_name": ["1-Phenyl-2,5-pyrrolidinedione", "2,5-Pyrrolidinedione, 1-phenyl-", "Succinimide, N-phenyl-", "1-Phenyl-2,5-pyrrolidinedione", "N-Phenylsuccinimide", "Succinanil", "1-Phenylsuccinimide", "NSC 2359"], "SMILES": "O=C1N(C(=O)CC1)C2=CC=CC=C2", "physical_data": {"Molecular Weight": "175.18", "Molecular Formula": "C10H9NO2", "Boiling Point": "400 \u00b0C", "Melting Point": "156 \u00b0C"}}