{"cas_no": "83-38-5", "cn_name": "2,6-\u4e8c\u6c2f\u82ef\u7532\u919b", "en_name": ["2,6-Dichlorobenzaldehyde", "Benzaldehyde, 2,6-dichloro-", "2,6-Dichlorobenzaldehyde", "o,o\u2032-Dichlorobenzaldehyde", "NSC 7193"], "SMILES": "C(=O)C1=C(Cl)C=CC=C1Cl", "physical_data": {"Molecular Weight": "175.01", "Molecular Formula": "C7H4Cl2O", "Boiling Point": "71 \u00b0C", "Melting Point": "71.5 \u00b0C"}}