{"cas_no": "83-31-8", "cn_name": "1,8-\u8418\u78fa\u9178\u5185\u916f", "en_name": ["1,8-Naphthosultone", "Naphth[1,8-cd]-1,2-oxathiole, 2,2-dioxide", "1-Naphthalenesulfonic acid, 8-hydroxy-, \u03b3-sultone", "Naphthosultone", "1,8-Naphthosultone", "1-Naphthol-8-sulfonic acid sultone", "NSC 26341"], "SMILES": "O=S1(=O)C=2C3=C(O1)C=CC=C3C=CC2", "physical_data": {"Molecular Weight": "206.22", "Molecular Formula": "C10H6O3S", "Boiling Point": "~190 \u00b0C (approx) @ Press: 2-3 Torr", "Melting Point": "156 \u00b0C"}}