{"cas_no": "83-39-6", "cn_name": "4,5-\u4e8c\u7532\u9170\u80fa\u54aa\u5511", "en_name": ["1H-Imidazole-4,5-dicarboxamide", "1H-Imidazole-4,5-dicarboxamide", "Imidazole-4,5-dicarboxamide", "Glycamide", "Glycarbylamide", "Glycamide 12"], "SMILES": "C(N)(=O)C1=C(C(N)=O)N=CN1", "physical_data": {"Molecular Weight": "154.13", "Molecular Formula": "C5H6N4O2", "Melting Point": "&gt;360 \u00b0C"}}