{"cas_no": "83-34-1", "cn_name": "3-\u7532\u57fa\u5432\u54da", "en_name": ["Skatole", "1H-Indole, 3-methyl-", "Indole, 3-methyl-", "Indole, 3-methyl-(skatole)", "3-Methyl-1H-indole", "3-Methylindole", "Scatole", "Skatol", "Skatole", "\u03b2-Methylindole", "NSC 122024"], "SMILES": "CC=1C=2C(=CC=CC2)NC1", "physical_data": {"Molecular Weight": "131.17", "Molecular Formula": "C9H9N", "Boiling Point": "265-266 \u00b0C @ Press: 755 Torr", "Melting Point": "95 \u00b0C"}}