{"cas_no": "83-33-0", "cn_name": "1-\u831a\u916e", "en_name": ["1-Indanone", "1H-Inden-1-one, 2,3-dihydro-", "1-Indanone", "Indanone", "2,3-Dihydro-1H-inden-1-one", "\u03b1-Hydrindone", "1-Indone", "\u03b1-Indanone", "2,3-Dihydro-1-indenone", "NSC 2581", "1H-Indan-1-one", "1-Oxobenzocyclopentane"], "SMILES": "O=C1C=2C(=CC=CC2)CC1", "physical_data": {"Molecular Weight": "132.16", "Molecular Formula": "C9H8O", "Boiling Point": "243 \u00b0C", "Melting Point": "42 \u00b0C"}}