{"cas_no": "83-30-7", "cn_name": "2,4,6-\u4e09\u7f9f\u57fa\u82ef\u7532\u9178", "en_name": ["2,4,6-Trihydroxybenzoic acid", "Benzoic acid, 2,4,6-trihydroxy-", "2,4,6-Trihydroxybenzoic acid", "2,4,6-Trihydroxybenzenecarboxylic acid", "Phloroglucinolcarboxylic acid", "Phloroglucinic acid", "NSC 36720", "4,6-Dihydroxysalicylic acid"], "SMILES": "C(O)(=O)C1=C(O)C=C(O)C=C1O", "physical_data": {"Molecular Weight": "170.12", "Molecular Formula": "C7H6O5", "Melting Point": "160-161 \u00b0C"}}