{"cas_no": "83-32-9", "cn_name": "\u82ca", "en_name": ["Acenaphthene", "Acenaphthylene, 1,2-dihydro-", "Acenaphthene", "1,2-Dihydroacenaphthylene", "peri-Ethylenenaphthalene", "1,8-Ethylenenaphthalene", "Naphthyleneethylene", "NSC 7657"], "SMILES": "C12=C3CCC1=CC=CC2=CC=C3", "physical_data": {"Molecular Weight": "154.21", "Molecular Formula": "C12H10", "Boiling Point": "279 \u00b0C @ Press: 760 Torr", "Melting Point": "95 \u00b0C", "Density": "1.0242 g/cm\u00b3 @ Temp: 90 \u00b0C"}}