{"cas_no": "83-44-3", "cn_name": "\u53bb\u6c27\u80c6\u9178", "en_name": ["Deoxycholic acid", "Cholan-24-oic acid, 3,12-dihydroxy-, (3\u03b1,5\u03b2,12\u03b1)-", "5\u03b2-Cholan-24-oic acid, 3\u03b1,12\u03b1-dihydroxy-", "(3\u03b1,5\u03b2,12\u03b1)-3,12-Dihydroxycholan-24-oic acid", "Cholic acid, deoxy-", "Cholorebic", "Degalol", "Deoxycholatic acid", "Deoxycholic acid", "Desoxycholic acid", "3\u03b1,12\u03b1-Dihydroxycholanic acid", "3\u03b1,12\u03b1-Dihydroxy-5\u03b2-cholanoic acid", "Droxolan", "17\u03b2-[1-Methyl-3-carboxypropyl]-etiocholane-3\u03b1,12\u03b1-diol", "3\u03b1,12\u03b1-Dihydroxy-5\u03b2-cholanic acid", "Cholerebic", "Pyrochol", "Septochol", "3\u03b1,12\u03b1-Dihydroxy-5\u03b2-cholan-24-oic acid", "5\u03b2-Deoxycholic acid", "5\u03b2-Cholanic acid-3\u03b1,12\u03b1-diol", "7-Deoxycholic acid", "NSC 8797", "ATX 101", "Kybella", "MeSH ID: D003840"], "SMILES": "CC12C(C3C(C4(C)C(CC3)CC(O)CC4)CC1O)CCC2C(CCC(O)=O)C", "physical_data": {"Molecular Weight": "392.57", "Molecular Formula": "C24H40O4", "Melting Point": "176-178 \u00b0C"}}