{"cas_no": "83-49-8", "cn_name": "\u732a\u53bb\u6c27\u80c6\u9178", "en_name": ["Hyodeoxycholic acid", "Cholan-24-oic acid, 3,6-dihydroxy-, (3\u03b1,5\u03b2,6\u03b1)-", "5\u03b2-Cholan-24-oic acid, 3\u03b1,6\u03b1-dihydroxy-", "5\u03b2-Cholanic acid, 3\u03b1,6\u03b1-dihydroxy-", "(3\u03b1,5\u03b2,6\u03b1)-3,6-Dihydroxycholan-24-oic acid", "3\u03b1,6\u03b1-Dihydroxy-5\u03b2-cholanoic acid", "3\u03b1,6\u03b1-Dihydroxy-5\u03b2-cholanic acid", "Hyodeoxycholic acid", "Hyodesoxycholic acid", "\u03b1-Hyodeoxycholic acid", "3\u03b1,6\u03b1-Dihydroxy-5\u03b2-cholan-24-oate", "6\u03b1-Hydroxylithocholic acid", "3\u03b1,6\u03b1-Dihydroxy-5\u03b2-cholan-24-oic acid", "7-Deoxyhyocholic acid", "Iodeoxycholic acid", "NSC 60672"], "SMILES": "CC12C3C(C4C(C)(CC3)C(C(CCC(O)=O)C)CC4)CC(O)C1CC(O)CC2", "physical_data": {"Molecular Weight": "392.57", "Molecular Formula": "C24H40O4", "Melting Point": "198.5 \u00b0C"}}