{"cas_no": "83-43-2", "cn_name": "\u7532\u57fa\u5f3a\u7684\u677e\u9f99", "en_name": ["Methylprednisolone", "Pregna-1,4-diene-3,20-dione, 11,17,21-trihydroxy-6-methyl-, (6\u03b1,11\u03b2)-", "Pregna-1,4-diene-3,20-dione, 11\u03b2,17,21-trihydroxy-6\u03b1-methyl-", "(6\u03b1,11\u03b2)-11,17,21-Trihydroxy-6-methylpregna-1,4-diene-3,20-dione", "Medrol", "Medrone", "\u03941-6\u03b1-Methylhydrocortisone", "Methylprednisolone", "6\u03b1-Methylprednisolone", "Metrisone", "11\u03b2,17,21-Trihydroxy-6\u03b1-methylpregna-1,4-diene-3,20-dione", "11\u03b2,17\u03b1,21-Trihydroxy-6\u03b1-methyl-1,4-pregnadiene-3,20-dione", "Urbason", "Urbasone", "Wyacort", "6\u03b1-Methyl-11\u03b2,17\u03b1,21\u03b2-trihydroxy-1,4-pregnadiene-3,20-dione", "Dopomedrol", "Besonia", "Promacortine", "Metastab", "Metilbetasone", "Medesone", "Medrate", "Moderin", "Noretona", "Urbazone", "Metipred", "U 7532", "Methypred", "Suprametil", "NSC 19987", "A-Methapred", "Medorol", "Medralone", "M-Prednisol", "Duralone", "Prednol", "Prednol L", "Solimedrol", "Metilprednisolone", "SW 196788", "MeSH ID: D008775"], "SMILES": "CC12C(C3C(C4(C)C(C(C)C3)=CC(=O)C=C4)C(O)C1)CCC2(C(CO)=O)O", "physical_data": {"Molecular Weight": "374.47", "Molecular Formula": "C22H30O5", "Melting Point": "228-237 \u00b0C"}}