{"cas_no": "83-42-1", "cn_name": "2-\u6c2f-6-\u785d\u57fa\u7532\u82ef", "en_name": ["1-Chloro-2-methyl-3-nitrobenzene", "Benzene, 1-chloro-2-methyl-3-nitro-", "Toluene, 2-chloro-6-nitro-", "1-Chloro-2-methyl-3-nitrobenzene", "2-Chloro-6-nitrotoluene", "6-Chloro-2-nitrotoluene", "3-Chloro-2-methylnitrobenzene", "3-Chloro-2-methyl-1-nitrobenzene", "2-Methyl-3-chloronitrobenzene", "NSC 49147", "2-Methyl-3-nitrochlorobenzene"], "SMILES": "N(=O)(=O)C1=C(C)C(Cl)=CC=C1", "physical_data": {"Molecular Weight": "171.58", "Molecular Formula": "C7H6ClNO2", "Boiling Point": "238 \u00b0C", "Melting Point": "37.8 \u00b0C"}}