{"cas_no": "83-46-5", "cn_name": "\u03b2-\u8c37\u753e\u9187", "en_name": ["(-)-\u03b2-Sitosterol", "Stigmast-5-en-3-ol, (3\u03b2)-", "Stigmast-5-en-3\u03b2-ol", "Nimbosterol", "(3\u03b2)-Stigmast-5-en-3-ol", "Cupreol", "\u03b1-Dihydrofucosterol", "22,23-Dihydrostigmasterol", "Quebrachol", "Rhamnol", "\u03b2-Sitosterol", "Stigmasterol, 22,23-dihydro-", "Angelicin (steroid)", "Cinchol", "SKF 14463", "Sitosterol", "Angelicin", "\u03b2-Sitosterin", "24\u03b1-Ethylcholesterol", "\u03945-Stigmasten-3\u03b2-ol", "(24R)-Ethylcholest-5-en-3\u03b2-ol", "Azuprostat", "Sobatum", "(-)-\u03b2-Sitosterol", "(24R)-Stigmast-5-en-3\u03b2-ol", "Rhammol", "Sito-Lande", "Harzol", "\u03b1-Phytosterol", "Prostasal", "NSC 18173", "NSC 49083", "NSC 8096", "Betaprost", "Inmunicin MAYMO"], "SMILES": "CC12C(C3C(C4(C)C(=CC3)CC(O)CC4)CC1)CCC2C(CCC(C(C)C)CC)C", "physical_data": {"Molecular Weight": "414.71", "Molecular Formula": "C29H50O", "Melting Point": "140 \u00b0C", "Density": "0.9417 g/cm\u00b3 @ Temp: 25 \u00b0C"}}