{"cas_no": "83-41-0", "cn_name": "3-\u785d\u57fa\u90bb\u4e8c\u7532\u82ef", "en_name": ["3-Nitro-o-xylene", "Benzene, 1,2-dimethyl-3-nitro-", "o-Xylene, 3-nitro-", "1,2-Dimethyl-3-nitrobenzene", "3-Nitro-o-xylene", "2,3-Dimethylnitrobenzene", "2,3-Dimethyl-1-nitrobenzene", "3-Nitro-o-xylol", "NSC 5402"], "SMILES": "N(=O)(=O)C1=C(C)C(C)=CC=C1", "physical_data": {"Molecular Weight": "151.16", "Molecular Formula": "C8H9NO2", "Boiling Point": "240 \u00b0C", "Melting Point": "15 \u00b0C", "Density": "1.1402 g/cm\u00b3 @ Temp: 20 \u00b0C"}}