{"cas_no": "83-45-4", "cn_name": "\u8c46\u753e\u70f7\u9187", "en_name": ["Sitostanol", "Stigmastan-3-ol, (3\u03b2,5\u03b1)-", "5\u03b1-Stigmastan-3\u03b2-ol", "(3\u03b2,5\u03b1)-Stigmastan-3-ol", "Dihydro-\u03b2-sitosterol", "Fucostanol", "\u03b2-Sitostanol", "Spinastanol", "Stigmastanol", "\u03b2-Sitosterol, dihydro-", "Dihydrositosterin", "Dihydrositosterol", "24\u03b1-Ethylcholestanol", "5,6-Dihydro-\u03b2-sitosterol", "Sitostanol", "NSC 49081", "3\u03b2-Sitostanol"], "SMILES": "CC12C(C3C(C4(C)C(CC3)CC(O)CC4)CC1)CCC2C(CCC(C(C)C)CC)C", "physical_data": {"Molecular Weight": "416.72", "Molecular Formula": "C29H52O", "Melting Point": "144 \u00b0C"}}