{"cas_no": "83-48-7", "cn_name": "\u8c46\u753e\u9187", "en_name": ["Stigmasterol", "Stigmasta-5,22-dien-3-ol, (3\u03b2,22E)-", "Stigmasta-5,22-dien-3\u03b2-ol", "(3\u03b2,22E)-Stigmasta-5,22-dien-3-ol", "Stigmasterol", "Stigmasterin", "24-Ethyl-5,22-cholestadien-3\u03b2-ol", "\u03b2-Stigmasterol", "(24S)-24-Ethylcholesta-5,22-dien-3\u03b2-ol", "(24S)-5,22-Stigmastadien-3\u03b2-ol", "\u03945,22-Stigmastadien-3\u03b2-ol", "\u03945-Stigmasterol", "(24S)-Stigmast-5,22-dien-3\u03b2-ol", "NSC 8095", "24\u03b2-Ethyl-5,22-cholestadien-3\u03b2-ol", "Stigmasta-5,22(E)-dien-3\u03b2-ol", "MeSH ID: D013265"], "SMILES": "CC12C(C3C(C4(C)C(=CC3)CC(O)CC4)CC1)CCC2C(C=CC(C(C)C)CC)C", "physical_data": {"Molecular Weight": "412.69", "Molecular Formula": "C29H48O", "Melting Point": "170 \u00b0C"}}