{"cas_no": "83-40-9", "cn_name": "3-\u7532\u57fa\u6c34\u6768\u9178", "en_name": ["3-Methylsalicylic acid", "Benzoic acid, 2-hydroxy-3-methyl-", "2,3-Cresotic acid", "2-Hydroxy-3-methylbenzoic acid", "3-MS", "o-Cresotic acid", "o-Cresotinic acid", "\u03b2-Cresotinic acid", "o-Homosalicylic acid", "2-Hydroxy-m-toluic acid", "3-Methylsalicylic acid", "2,3-Cresotinic acid", "3-Methyl-2-hydroxybenzoic acid", "Cresotinic acid", "Cresotic acid", "Hydroxytoluic acid", "NSC 17561", "NSC 1772", "NSC 50796"], "SMILES": "C(O)(=O)C1=C(O)C(C)=CC=C1", "physical_data": {"Molecular Weight": "152.15", "Molecular Formula": "C8H8O3", "Melting Point": "165.5 \u00b0C"}}