{"cas_no": "83-56-7", "cn_name": "1,5-\u4e8c\u7f9f\u57fa\u8418", "en_name": ["1,5-Dihydroxynaphthalene", "1,5-Naphthalenediol", "C.I. 76625", "Durafur Developer E", "Oxidation Base", "1,5-Dihydroxynaphthalene", "NSC 7202", "1,5-Dihydroxynaphthaline", "1,5-Naphthohydroquinone", "D 0590"], "SMILES": "OC=1C2=C(C(O)=CC=C2)C=CC1", "physical_data": {"Molecular Weight": "160.17", "Molecular Formula": "C10H8O2", "Melting Point": "262 \u00b0C (decomp)"}}