{"cas_no": "83-55-6", "cn_name": "1-\u6c28\u57fa-5-\u8418\u915a", "en_name": ["5-Amino-1-naphthol", "1-Naphthalenol, 5-amino-", "1-Naphthol, 5-amino-", "5-Amino-1-naphthalenol", "C.I. 76650", "5-Amino-1-naphthol", "1-Amino-5-naphthol", "5-Hydroxy-1-naphthylamine", "1-Amino-5-hydroxynaphthalene", "5-Amino-\u03b1-naphthol", "NSC 1499", "5-Hydroxy-1-naphthalenamine"], "SMILES": "NC=1C2=C(C(O)=CC=C2)C=CC1", "physical_data": {"Molecular Weight": "159.18", "Molecular Formula": "C10H9NO", "Melting Point": "192 \u00b0C"}}