{"cas_no": "83-53-4", "cn_name": "1,4-\u4e8c\u6eb4\u4ee3\u8418", "en_name": ["1,4-Dibromonaphthalene", "Naphthalene, 1,4-dibromo-", "1,4-Dibromonaphthalene"], "SMILES": "BrC=1C2=C(C(Br)=CC1)C=CC=C2", "physical_data": {"Molecular Weight": "285.96", "Molecular Formula": "C10H6Br2", "Boiling Point": "310 \u00b0C", "Melting Point": "83 \u00b0C"}}