{"cas_no": "83-63-6", "cn_name": "\u4e8c\u4e59\u9170\u6c28\u57fa\u5076\u6c2e\u7532\u82ef", "en_name": ["N-Acetyl-N-[2-methyl-4-[2-(2-methylphenyl)diazenyl]phenyl]acetamide", "Acetamide, N-acetyl-N-[2-methyl-4-[2-(2-methylphenyl)diazenyl]phenyl]-", "o-Diacetotoluidide, 4\u2032\u2032-(o-tolylazo)-", "Acetamide, N-acetyl-N-[2-methyl-4-[(2-methylphenyl)azo]phenyl]-", "N-Acetyl-N-[2-methyl-4-[2-(2-methylphenyl)diazenyl]phenyl]acetamide", "Diacetylaminoazotoluene", "Dimazon", "Pellidol", "Pellidole", "4\u2032\u2032-(o-Tolylazo)-o-diacetotoluidide", "Dermagan", "Diacetazotol", "Diacetotoluide", "Diamazo", "Epidermol", "Epithelone", "Granulin", "Granulin (ointment)", "NSC 6509", "NSC 7221"], "SMILES": "N(C(C)=O)(C(C)=O)C1=C(C)C=C(N=NC2=C(C)C=CC=C2)C=C1", "physical_data": {"Molecular Weight": "309.36", "Molecular Formula": "C18H19N3O2", "Melting Point": "75 \u00b0C"}}