{"cas_no": "83-66-9", "cn_name": "2,6-\u4e8c\u785d\u57fa-3-\u7532\u6c27\u57fa-4-\u53d4\u4e01\u57fa\u7532\u82ef", "en_name": ["Musk ambrette", "Benzene, 1-(1,1-dimethylethyl)-2-methoxy-4-methyl-3,5-dinitro-", "Anisole, 6-tert-butyl-3-methyl-2,4-dinitro-", "1-(1,1-Dimethylethyl)-2-methoxy-4-methyl-3,5-dinitrobenzene", "Musk ambrette", "2,6-Dinitro-3-methoxy-4-tert-butyltoluene", "Amber musk", "Synthetic musk ambrette", "6-tert-Butyl-3-methyl-2,4-dinitroanisole", "Musk ambrette (artificial)", "Artificial musk ambrette", "4-tert-Butyl-3-methoxy-2,6-dinitrotoluene", "Ambrette musk", "NSC 46122", "NSC 59845", "2,6-Dinitro-3-methoxy-4-tetra-butyl toluene", "1-tert-Butyl-2-methoxy-4-methyl-3,5-dinitrobenzene", "1-(tert-Butyl)-2-methoxy-4-methyl-3,5-dinitrobenzene"], "SMILES": "O(C)C1=C(N(=O)=O)C(C)=C(N(=O)=O)C=C1C(C)(C)C", "physical_data": {"Molecular Weight": "268.27", "Molecular Formula": "C12H16N2O5", "Melting Point": "85 \u00b0C"}}