{"cas_no": "83-67-0", "cn_name": "\u53ef\u53ef\u78b1", "en_name": ["Theobromine", "1H-Purine-2,6-dione, 3,7-dihydro-3,7-dimethyl-", "Theobromine", "3,7-Dihydro-3,7-dimethyl-1H-purine-2,6-dione", "3,7-Dimethylxanthine", "SC 15090", "Teobromin", "Diurobromine", "Santheose", "Theosalvose", "Theostene", "Thesal", "3,7-Dimethyl-3,7-dihydro-1H-purine-2,6-dione", "NSC 5039", "3,7-Dimethyl-3,7-dihydro-purine-2,6-dione", "3,7-Dimethyl-2,3,6,7-tetrahydro-1H-purine-2,6-dione", "3,7-Dimethylpurine-2,6-dione", "MeSH ID: D013805"], "SMILES": "CN1C2=C(C(=O)NC1=O)N(C)C=N2", "physical_data": {"Molecular Weight": "180.16", "Molecular Formula": "C7H8N4O2", "Melting Point": "357 \u00b0C"}}