{"cas_no": "83-73-8", "cn_name": "5,7-\u4e8c\u7898-8-\u7f9f\u57fa\u55b9\u5549", "en_name": ["5,7-Diiodo-8-hydroxyquinoline", "8-Quinolinol, 5,7-diiodo-", "5,7-Diiodo-8-quinolinol", "Diiodohydroxyquin", "Diiodohydroxyquinoline", "5,7-Diiodooxine", "Diiodoquin", "5,7-Diiodo-8-hydroxyquinoline", "Dinoleine", "Diodohydroxyquin", "Diodoquin", "Diodoxylin", "Di-Quinol", "Direxiode", "Disoquin", "Dyodin", "Embequin", "Enterosept", "Floraquin", "8-Hydroxy-5,7-diiodoquinoline", "Lanodoxin", "Moebiquin", "Quinadome", "Searlequin", "Sebaquin", "Zoaquin", "Yodoxin", "Enterodiamoebin", "Diamoebin", "Iodoquinol", "Diiodoquinol", "SS 578", "Rafamebin", "Ioquin", "Searlewuin", "Stanquinate", "NSC 74939", "NSC 8704", "Iodoquin", "MeSH ID: D004103"], "SMILES": "OC=1C2=C(C(I)=CC1I)C=CC=N2", "physical_data": {"Molecular Weight": "396.95", "Molecular Formula": "C9H5I2NO", "Melting Point": "210 \u00b0C"}}