{"cas_no": "83-79-4", "cn_name": "\u9c7c\u85e4\u916e", "en_name": ["Rotenone", "[1]Benzopyrano[3,4-b]furo[2,3-h][1]benzopyran-6(6aH)-one, 1,2,12,12a-tetrahydro-8,9-dimethoxy-2-(1-methylethenyl)-, (2R,6aS,12aS)-", "Rotenone", "[1]Benzopyrano[3,4-b]furo[2,3-h][1]benzopyran-6(6a\u03b1H)-one, 1,2,12,12a\u03b1-tetrahydro-2\u03b1-isopropenyl-8,9-dimethoxy-", "[1]Benzopyrano[3,4-b]furo[2,3-h][1]benzopyran-6(6aH)-one, 1,2,12,12a-tetrahydro-8,9-dimethoxy-2-(1-methylethenyl)-, [2R-(2\u03b1,6a\u03b1,12a\u03b1)]-", "(2R,6aS,12aS)-1,2,12,12a-Tetrahydro-8,9-dimethoxy-2-(1-methylethenyl)[1]benzopyrano[3,4-b]furo[2,3-h][1]benzopyran-6(6aH)-one", "Derrin", "Nicouline", "Ronone", "Rotenon", "Rotocide", "Tubatoxin", "5\u2032\u03b2-Rotenone", "Derris (insecticide)", "(-)-Rotenone", "Dactinol", "Liquid Derris", "Cube-Pulver", "Deril", "Paraderil", "Noxfish", "Dri-kil", "Derris", "Rotenox", "(-)-cis-Rotenone", "NSC 26258", "NSC 8505", "Rotena", "CFT Legumine", "TIFA Chem Fish", "Chem Fish", "Prentox Prenfish Toxicant", "Prentox Prenfish", "Prenfish Toxicant", "Cuberol", "Fish Tox 5", "Fish Tox", "Noxfire", "Rotacide", "Rotacide EC", "Sinid", "Tox-R", "Curex flea duster", "Cenol Garden Dust", "Chem-Mite", "Green cross warble powder", "YuTengTong", "MeSH ID: D012402"], "SMILES": "O=C1C=2C(=C3C(OC(C(C)=C)C3)=CC2)OC4C1C=5C(OC4)=CC(OC)=C(OC)C5", "physical_data": {"Molecular Weight": "394.42", "Molecular Formula": "C23H22O6", "Boiling Point": "210-220 \u00b0C @ Press: 0.5 Torr", "Melting Point": "165-166 \u00b0C", "Density": "1.27 g/cm\u00b3 @ Temp: 20 \u00b0C"}}