{"cas_no": "83-72-7", "cn_name": "2-\u7f9f\u57fa-1,4-\u8418\u918c", "en_name": ["2-Hydroxy-1,4-naphthoquinone", "1,4-Naphthalenedione, 2-hydroxy-", "1,4-Naphthoquinone, 2-hydroxy-", "2-Hydroxy-1,4-naphthalenedione", "C.I. 75480", "C.I. Natural Orange 6", "Flower of Paradise", "Henna", "Lawsone", "Mehendi", "Mendi", "2-Hydroxy-1,4-naphthoquinone", "2-Hydroxynaphthoquinone", "Henna (dye)", "Q 0", "Pakarli", "NSC 8625", "1,4-Dihydro-1,4-dioxo-2-hydroxynaphthalene", "NSC 27285", "NSC 52500", "Quino Power LSN", "Quinoexter 2014", "Quinoexter QE 2014", "2-Hydroxy-1,4-dihydronaphthalene-1,4-dione", "Quino Power 20"], "SMILES": "O=C1C=2C(C(=O)C=C1O)=CC=CC2", "physical_data": {"Molecular Weight": "174.15", "Molecular Formula": "C10H6O3", "Melting Point": "195.5 \u00b0C (decomp)"}}