{"cas_no": "83-75-0", "cn_name": "\u7121\u5473\u594e\u5be7", "en_name": ["Euquinine", "Cinchonan-9-ol, 6\u2032-methoxy-, 9-(ethyl carbonate), (8\u03b1,9R)-", "Quinine, ethyl carbonate (ester)", "Cinchonan-9-ol, 6\u2032-methoxy-, ethyl carbonate (ester), (8\u03b1,9R)-", "Euquinine", "Euquinin", "Quinine ethyl carbonate", "Aecachinium"], "SMILES": "C(OC(OCC)=O)(C1N2CC(C=C)C(C1)CC2)C=3C4=C(C=CC(OC)=C4)N=CC3", "physical_data": {"Molecular Weight": "396.48", "Molecular Formula": "C23H28N2O4", "Melting Point": "94-95 \u00b0C"}}