{"cas_no": "83-74-9", "cn_name": "\u4f0a\u6ce2\u52a0\u56e0", "en_name": ["(-)-Ibogaine", "Ibogamine, 12-methoxy-", "Ibogaine", "6,9-Methano-5H-pyrido[1\u2032,2\u2032:1,2]azepino[4,5-b]indole, ibogamine deriv.", "12-Methoxyibogamine", "(-)-Ibogaine", "Ibogain", "NSC 249764", "MeSH ID: D007050"], "SMILES": "C(C)C1C2C3C4=C(C=5C(N4)=CC=C(OC)C5)CCN2CC(C3)C1", "physical_data": {"Molecular Weight": "310.43", "Molecular Formula": "C20H26N2O", "Melting Point": "148 \u00b0C"}}