{"cas_no": "83-86-3", "cn_name": "\u690d\u9178", "en_name": ["Phytic acid", "myo-Inositol, 1,2,3,4,5,6-hexakis(dihydrogen phosphate)", "Inositol, hexakis(dihydrogen phosphate), myo-", "myo-Inositol, hexakis(dihydrogen phosphate)", "Fytic acid", "Phytic acid", "myo-Inositol hexaphosphate", "Inositol hexakis(phosphate)", "Inositol hexaphosphate", "Alkalovert", "myo-Inositol hexakis(phosphate)", "IP6", "meso-Inositol hexaphosphate", "Inositol 1,2,3,4,5,6-hexakisphosphate", "Phyliance", "InsP6", "Exfoderm Forte", "Exfoderm", "WHL", "WHL (depressant)", "RP 3000", "RP 3000 (rust inhibitor)", "Dermofeel PA 3", "IP 6J", "MeSH ID: D010833"], "SMILES": "O(P(=O)(O)O)C1C(OP(=O)(O)O)C(OP(=O)(O)O)C(OP(=O)(O)O)C(OP(=O)(O)O)C1OP(=O)(O)O", "physical_data": {"Molecular Weight": "660.04", "Molecular Formula": "C6H18O24P6", "Melting Point": "&lt;25 \u00b0C"}}