{"cas_no": "83-88-5", "cn_name": "\u7ef4\u751f\u7d20 B2", "en_name": ["Riboflavin", "Riboflavin", "Riboflavine", "Benzo[g]pteridine, riboflavin deriv.", "Beflavine", "Flaxain", "Hyre", "Lactoflavin", "Lactoflavine", "Ribipca", "Riboderm", "Vitamin B2", "Vitamin G", "Flavaxin", "6,7-Dimethyl-9-D-ribitylisoalloxazine", "Benzo[g]pteridine-2,4(3H,10H)-dione, 7,8-dimethyl-10-(D-ribo-2,3,4,5-tetrahydroxypentyl)-", "Ribosyn", "Vitaflavine", "Ribotone", "Ribovel", "Beflavin", "Ribocrisina", "Vitasan B2", "Lactobene", "Flavin BB", "Russupteridine yellow III", "1-Deoxy-1-(3,4-dihydro-7,8-dimethyl-2,4-dioxobenzo[g]pteridin-10(2H)-yl)-D-ribitol", "6,7-Dimethyl-9-ribitylisoalloxazine", "E 101", "C.I. Food Yellow 15", "Food Yellow 15", "(-)-Riboflavin", "C.I. 50900", "E 101 (dye)", "San Yellow B", "NSC 33298", "NCI 0033298", "D-Ribitol, 1-deoxy-1-(3,4-dihydro-7,8-dimethyl-2,4-dioxobenzo[g]pteridin-10(2H)-yl)-", "7,8-Dimethyl-10-ribitylisoalloxazine", "Ricrolin", "Riboflavin E101", "Riboflavin FP", "Riboflavin F", "7,8-Dimethyl-10-(1,2,3,4,5-pentahydroxypentyl)benzo[g]pteridine-2,4-dione", "MeSH ID: D012256"], "SMILES": "C(C(C(C(CO)O)O)O)N1C=2C(N=C3C1=NC(=O)NC3=O)=CC(C)=C(C)C2", "physical_data": {"Molecular Weight": "376.36", "Molecular Formula": "C17H20N4O6", "Melting Point": "278-279 \u00b0C (decomp)"}}