{"cas_no": "83-87-4", "cn_name": "1,2,3,4,6-alpha-D-\u8461\u8404\u7cd6\u4e94\u4e59\u9178\u916f", "en_name": ["Glucose pentaacetate", "D-Glucopyranose, 1,2,3,4,6-pentaacetate", "Glucopyranose, pentaacetate, D-", "D-Glucopyranose, pentaacetate", "D-Glucose, 1,2,3,4,6-pentaacetate", "1,2,3,4,6-Penta-O-acetyl-D-glucopyranose", "Pentaacetylglucose", "Pentaacetyl-D-glucose", "Peracetylated D-glucose", "Penta-O-acetyl-D-glucopyranose", "Glucopyranose pentaacetate", "Pagosten-1", "Glucose pentaacetate", "Peracetyl-D-glucose", "D-Glucose pentaacetate", "Penta-O-acetyl-D-glucopyranoside"], "SMILES": "O(C(C)=O)C1C(OC(C)=O)C(COC(C)=O)OC(OC(C)=O)C1OC(C)=O", "physical_data": {"Molecular Weight": "390.34", "Molecular Formula": "C16H22O11", "Boiling Point": "452 \u00b0C", "Melting Point": "129-130 \u00b0C"}}