{"cas_no": "83-98-7", "cn_name": "\u90bb\u7532\u82ef\u6d77\u660e", "en_name": ["(\u00b1)-Orphenadrine", "Ethanamine, N,N-dimethyl-2-[(2-methylphenyl)phenylmethoxy]-", "Ethylamine, N,N-dimethyl-2-[(o-methyl-\u03b1-phenylbenzyl)oxy]-", "N,N-Dimethyl-2-[(2-methylphenyl)phenylmethoxy]ethanamine", "WS 2434", "Brocadisipal", "N,N-Dimethyl-2-(o-methyl-\u03b1-phenylbenzyloxy)ethylamine", "o-Methyldiphenhydramine", "Orphenadrin", "Orphenadrine", "Phenyl-o-tolylmethyl dimethylaminoethyl ether", "N,N-Dimethyl-N-[2-(o-methyl-\u03b1-phenylbenzyloxy)ethyl]amine", "2-Methyldiphenhydramine", "Orphenadine", "(\u00b1)-Orphenadrine", "ORP", "BS 5930", "Biorphen", "MeSH ID: D009966"], "SMILES": "C(OCCN(C)C)(C1=C(C)C=CC=C1)C2=CC=CC=C2", "physical_data": {"Molecular Weight": "269.38", "Molecular Formula": "C18H23NO", "Boiling Point": "195 \u00b0C", "Melting Point": "&lt;25 \u00b0C"}}