{"cas_no": "83-95-4", "cn_name": "\u8335\u828b\u78b1", "en_name": ["Skimmianine", "Furo[2,3-b]quinoline, 4,7,8-trimethoxy-", "\u03b2-Fagarine", "Skimmianine", "4,7,8-Trimethoxyfuro[2,3-b]quinoline", "Chloroxylonine", "Skimmianin", "Skimmiamine", "NSC 217986", "NSC 94654"], "SMILES": "O(C)C1=C2C(C(OC)=C3C(=N2)OC=C3)=CC=C1OC", "physical_data": {"Molecular Weight": "259.26", "Molecular Formula": "C14H13NO4", "Melting Point": "177 \u00b0C"}}