{"cas_no": "830-93-3", "cn_name": "5-\u6eb4\u82a6\u7af9\u78b1", "en_name": ["5-Bromo-N,N-dimethyl-1H-indole-3-methanamine", "1H-Indole-3-methanamine, 5-bromo-N,N-dimethyl-", "Indole, 5-bromo-3-[(dimethylamino)methyl]-", "5-Bromo-N,N-dimethyl-1H-indole-3-methanamine", "5-Bromogramine", "NSC 73386", "[(5-Bromo-1H-indol-3-yl)methyl]dimethylamine", "1-(5-Bromo-1H-indol-3-yl)-N,N-dimethylmethanamine"], "SMILES": "C(N(C)C)C=1C=2C(NC1)=CC=C(Br)C2", "physical_data": {"Molecular Weight": "253.14", "Molecular Formula": "C11H13BrN2", "Melting Point": "149.5-150 \u00b0C"}}