{"cas_no": "830-81-9", "cn_name": "\u4e59\u9178-1-\u8418\u916f", "en_name": ["1-Naphthyl acetate", "1-Naphthalenol, 1-acetate", "1-Naphthol, acetate", "1-Naphthalenol, acetate", "\u03b1-Naphthyl acetate", "1-Naphthyl acetate", "1-Acetoxynaphthalene", "\u03b1-Naphthol acetate", "\u03b1-Acetoxynaphthalene", "Acetic acid 1-naphthyl ester", "NSC 9846", "Naphthalen-1-yl acetate", "1-Naphthalen-1-yl acetate"], "SMILES": "O(C(C)=O)C=1C2=C(C=CC1)C=CC=C2", "physical_data": {"Molecular Weight": "186.21", "Molecular Formula": "C12H10O2", "Melting Point": "44.5 \u00b0C"}}