{"cas_no": "830-94-4", "cn_name": "5-\u6c2f\u82a6\u7af9\u78b1", "en_name": ["5-Chloro-N,N-dimethyl-1H-indole-3-methanamine", "1H-Indole-3-methanamine, 5-chloro-N,N-dimethyl-", "Indole, 5-chloro-3-[(dimethylamino)methyl]-", "5-Chloro-N,N-dimethyl-1H-indole-3-methanamine", "5-Chlorogramine", "5-Chloro-3-[(dimethylamino)methyl]indole", "[(5-Chloro-1H-indol-3-yl)methyl]dimethylamine", "1-(5-Chloro-1H-indol-3-yl)-N,N-dimethylmethanamine"], "SMILES": "C(N(C)C)C=1C=2C(NC1)=CC=C(Cl)C2", "physical_data": {"Molecular Weight": "208.69", "Molecular Formula": "C11H13ClN2", "Melting Point": "150 \u00b0C"}}