{"cas_no": "830-79-5", "cn_name": "2,4,6-\u4e09\u7532\u6c27\u57fa\u82ef\u7532\u919b", "en_name": ["2,4,6-Trimethoxybenzaldehyde", "Benzaldehyde, 2,4,6-trimethoxy-", "2,4,6-Trimethoxybenzaldehyde"], "SMILES": "C(=O)C1=C(OC)C=C(OC)C=C1OC", "physical_data": {"Molecular Weight": "196.20", "Molecular Formula": "C10H12O4", "Melting Point": "120-121 \u00b0C"}}