{"cas_no": "830-43-3", "cn_name": "4-\u4e09\u6c1f\u7532\u57fa\u82ef\u78fa\u9170\u80fa", "en_name": ["4-(Trifluoromethyl)benzenesulfonamide", "Benzenesulfonamide, 4-(trifluoromethyl)-", "p-Toluenesulfonamide, \u03b1,\u03b1,\u03b1-trifluoro-", "4-(Trifluoromethyl)benzenesulfonamide", "\u03b1,\u03b1,\u03b1-Trifluoro-p-toluenesulfonamide", "p-Trifluoromethylbenzenesulfonamide", "4-(Trifluoromethyl)phenylsulfonamide"], "SMILES": "C(F)(F)(F)C1=CC=C(S(N)(=O)=O)C=C1", "physical_data": {"Molecular Weight": "225.19", "Molecular Formula": "C7H6F3NO2S", "Melting Point": "181-183 \u00b0C"}}