{"cas_no": "830-13-7", "cn_name": "\u73af\u5341\u4e8c\u916e", "en_name": ["Cyclododecanone", "Cyclododecanone", "NSC 77116"], "SMILES": "O=C1CCCCCCCCCCC1", "physical_data": {"Molecular Weight": "182.30", "Molecular Formula": "C12H22O", "Boiling Point": "126-128 \u00b0C", "Melting Point": "59 \u00b0C", "Density": "0.9059 g/cm\u00b3 @ Temp: 66 \u00b0C"}}