{"cas_no": "830-03-5", "cn_name": "4-\u785d\u57fa\u82ef\u57fa\u4e59\u9178\u916f", "en_name": ["4-Nitrophenyl acetate", "Acetic acid, 4-nitrophenyl ester", "Acetic acid, p-nitrophenyl ester", "Phenol, p-nitro-, acetate", "p-Nitrophenol acetate", "p-Nitrophenyl acetate", "4-Nitrophenyl acetate", "p-Acetoxynitrobenzene", "p-Nitrobenzene acetate", "NSC 2633", "4-Acetyloxy-1-nitrobenzene"], "SMILES": "O(C(C)=O)C1=CC=C(N(=O)=O)C=C1", "physical_data": {"Molecular Weight": "181.15", "Molecular Formula": "C8H7NO4", "Melting Point": "78 \u00b0C"}}