{"cas_no": "830-09-1", "cn_name": "4-\u7532\u6c27\u57fa\u8089\u6842\u9178", "en_name": ["4-Methoxycinnamic acid", "2-Propenoic acid, 3-(4-methoxyphenyl)-", "Cinnamic acid, p-methoxy-", "3-(4-Methoxyphenyl)-2-propenoic acid", "p-Methoxycinnamic acid", "4-Methoxycinnamic acid", "O-Methyl-p-coumaric acid", "3-(4-Methoxyphenyl)propenoic acid", "3-(4-Methoxyphenyl)acrylic acid", "4\u2032-Methoxycinnamic acid", "NSC 5303", "NSC 623437", "Bernel hydro", "4-Methyoxycinnamic acid"], "SMILES": "C(=CC(O)=O)C1=CC=C(OC)C=C1", "physical_data": {"Molecular Weight": "178.18", "Molecular Formula": "C10H10O3", "Melting Point": "170-171 \u00b0C"}}