{"cas_no": "830-50-2", "cn_name": "1-(\u4e94\u6c1f\u82ef\u57fa)\u4e59\u9187", "en_name": ["1-(Pentafluorophenyl)ethanol", "Benzenemethanol, 2,3,4,5,6-pentafluoro-\u03b1-methyl-", "Benzyl alcohol, 2,3,4,5,6-pentafluoro-\u03b1-methyl-", "2,3,4,5,6-Pentafluoro-\u03b1-methylbenzenemethanol", "2,3,4,5,6-Pentafluoro-\u03b1-methylbenzyl alcohol", "1-(Pentafluorophenyl)ethanol", "(\u00b1)-1-(Pentafluorophenyl)ethanol", "(RS)-\u03b1-Methyl-2,3,4,5,6-pentafluorobenzyl alcohol", "NSC 97014", "1-(2,3,4,5,6-Pentafluorophenyl)ethanol", "1-(Pentafluorophenyl)ethan-1-ol"], "SMILES": "C(C)(O)C1=C(F)C(F)=C(F)C(F)=C1F", "physical_data": {"Molecular Weight": "212.12", "Molecular Formula": "C8H5F5O", "Boiling Point": "80-82 \u00b0C @ Press: 37 Torr"}}