{"cas_no": "830-96-6", "cn_name": "\u5432\u54da-3-\u4e19\u9178", "en_name": ["1H-Indole-3-propanoic acid", "1H-Indole-3-propanoic acid", "Indole-3-propionic acid", "3-(3-Indolyl)propionic acid", "\u03b2-(3-Indolyl)propionic acid", "\u03b2-Indole-3-propionic acid", "\u03b2-Indolepropionic acid", "1H-Indole-3-propionic acid", "3-(3-Indolyl)propanoic acid", "3-(2-Carboxyethyl)-1H-indole", "IPA", "IPA (auxin)", "3-(1H-Indol-3-yl)propanoic acid", "3-(1H-Indol-3-yl)propionic acid", "NSC 3252", "NSC 47831", "3-(Indole-3-yl)propanoic acid"], "SMILES": "C(CC(O)=O)C=1C=2C(NC1)=CC=CC2", "physical_data": {"Molecular Weight": "189.21", "Molecular Formula": "C11H11NO2", "Melting Point": "134-135 \u00b0C"}}