{"cas_no": "83002-04-4", "cn_name": "5-(1,1-\u4e8c\u7532\u57fa\u5e9a\u57fa)-2-[5-\u7f9f\u57fa-2-(3-\u7f9f\u57fa\u4e19\u57fa)\u73af\u5df1\u57fa]\u82ef\u915a", "en_name": ["5-(1,1-Dimethylheptyl)-2-[(1R,2R,5R)-5-hydroxy-2-(3-hydroxypropyl)cyclohexyl]phenol", "Phenol, 5-(1,1-dimethylheptyl)-2-[(1R,2R,5R)-5-hydroxy-2-(3-hydroxypropyl)cyclohexyl]-", "Phenol, 5-(1,1-dimethylheptyl)-2-[5-hydroxy-2-(3-hydroxypropyl)cyclohexyl]-, (1\u03b1,2\u03b2,5\u03b1)-(-)-", "5-(1,1-Dimethylheptyl)-2-[(1R,2R,5R)-5-hydroxy-2-(3-hydroxypropyl)cyclohexyl]phenol", "(-)-CP 55940", "CP 55940"], "SMILES": "C(CCO)C1C(CC(O)CC1)C2=C(O)C=C(C(CCCCCC)(C)C)C=C2", "physical_data": {"Molecular Weight": "376.57", "Molecular Formula": "C24H40O3", "Melting Point": "65-68 \u00b0C"}}