{"cas_no": "83012-13-9", "cn_name": "4-\u6c2f-2,8-\u53cc(\u4e09\u6c1f\u7532\u57fa)\u55b9\u5549", "en_name": ["4-Chloro-2,8-bis(trifluoromethyl)quinoline", "Quinoline, 4-chloro-2,8-bis(trifluoromethyl)-", "4-Chloro-2,8-bis(trifluoromethyl)quinoline", "2,8-Bis(trifluoromethyl)-4-chloroquinoline"], "SMILES": "C(F)(F)(F)C=1C2=C(C(Cl)=CC(C(F)(F)F)=N2)C=CC1", "physical_data": {"Molecular Weight": "299.60", "Molecular Formula": "C11H4ClF6N", "Boiling Point": "148-152 \u00b0C @ Press: 18 Torr", "Melting Point": "45-46 \u00b0C"}}