{"cas_no": "83010-84-8", "cn_name": "7-\u7532\u6c27\u57fa-8-\u6c28\u57fa\u55b9\u5549", "en_name": ["7-Methoxy-8-quinolinamine", "8-Quinolinamine, 7-methoxy-", "Quinoline, 8-amino-7-methoxy-", "7-Methoxy-8-quinolinamine", "7-Methoxyquinolin-8-amine"], "SMILES": "NC=1C2=C(C=CC1OC)C=CC=N2", "physical_data": {"Molecular Weight": "174.20", "Molecular Formula": "C10H10N2O", "Melting Point": "108 \u00b0C"}}