{"cas_no": "83048-65-1", "cn_name": "\u5341\u4e03\u6c1f\u7678\u57fa\u4e09\u7532\u6c27\u57fa\u7845\u70f7", "en_name": ["Heptadecafluorodecyltrimethoxysilane", "Silane, (3,3,4,4,5,5,6,6,7,7,8,8,9,9,10,10,10-heptadecafluorodecyl)trimethoxy-", "(3,3,4,4,5,5,6,6,7,7,8,8,9,9,10,10,10-Heptadecafluorodecyl)trimethoxysilane", "LP 8T", "KBM 7803", "TSL 8233", "Heptadecafluorodecyltrimethoxysilane", "XC 95-470", "2-Perfluorooctylethyltrimethoxysilane", "2-Heptadecafluorooctylethyltrimethoxysilane", "XC 98A5382", "(Heptadecafluoro-1,1,2,2-tetrahydrodecyl)trimethoxysilane", "TSLB 8233", "1H,1H,2H,2H-Perfluorodecyltrimethoxysilane", "FAS 17", "1,1,2,2-Tetrahydroperfluorodecyltrimethoxysilane", "SG-SiF 17", "LS 4875", "Trimethoxy(1H,1H,2H,2H-heptadecafluorodecyl)silane", "SIH 5841.5", "(Heptadecafluoro-1,1,2,2-tetradecyl)trimethoxysilane", "Hetadecafluoro-1,1,2,2-tetrahydrodecyltrimethoxysilane", "WS 1160", "DMT 17", "SiSiB PC 9751", "T 2917", "F 1013 (coupling agent)", "F 1013"], "SMILES": "[Si](CCC(C(C(C(C(C(C(C(F)(F)F)(F)F)(F)F)(F)F)(F)F)(F)F)(F)F)(F)F)(OC)(OC)OC", "physical_data": {"Molecular Weight": "568.30", "Molecular Formula": "C13H13F17O3Si", "Boiling Point": "247 \u00b0C", "Density": "1.54 g/cm\u00b3"}}