{"cas_no": "83055-99-6", "cn_name": "\u82c4\u5627\u78fa\u9686", "en_name": ["Bensulfuron-methyl", "Benzoic acid, 2-[[[[[(4,6-dimethoxy-2-pyrimidinyl)amino]carbonyl]amino]sulfonyl]methyl]-, methyl ester", "DPX-F 5384", "Londax", "Bensulfuron-methyl", "F 5384", "Mariner", "DPX 84", "Methyl 2-[(4,6-dimethoxypyrimidin-2-yl)ureidosulfonylmethyl]benzoate", "Bianmihuanglong", "Methyl 2-[[3-(4,6-dimethoxypyrimidin-2-yl)ureido]sulfonylmethyl]benzoate", "Methyl \u03b1-((4,6-dimethoxypyrimidin-2-yl)ureidosulfonyl)-o-toluate", "Methyl \u03b1-(4,6-dimethoxy pyrimidine-2-ylcarbamoylsulfamoyl)-O-toluate"], "SMILES": "C(OC)(=O)C1=C(CS(NC(NC=2N=C(OC)C=C(OC)N2)=O)(=O)=O)C=CC=C1", "physical_data": {"Molecular Weight": "410.40", "Molecular Formula": "C16H18N4O7S", "Melting Point": "187 \u00b0C"}}