{"cas_no": "83088-26-0", "cn_name": "3,3',4',5-\u56db\u7532\u6c27\u57fa\u4e8c\u82ef\u4e59\u70ef", "en_name": ["4-[(1E)-2-(3,5-Dimethoxyphenyl)ethenyl]-1,2-dimethoxybenzene", "Benzene, 4-[(1E)-2-(3,5-dimethoxyphenyl)ethenyl]-1,2-dimethoxy-", "Benzene, 4-[2-(3,5-dimethoxyphenyl)ethenyl]-1,2-dimethoxy-, (E)-", "4-[(1E)-2-(3,5-Dimethoxyphenyl)ethenyl]-1,2-dimethoxybenzene", "3,5,3\u2032,4\u2032-Tetramethoxypiceatannol"], "SMILES": "C(=CC1=CC(OC)=CC(OC)=C1)C2=CC(OC)=C(OC)C=C2", "physical_data": {"Molecular Weight": "300.35", "Molecular Formula": "C18H20O4", "Melting Point": "66-67 \u00b0C"}}