{"cas_no": "83081-75-8", "cn_name": "1-(2-\u4e59\u6c27\u82ef\u57fa)\u54cc\u55ea\u76d0\u9178\u76d0", "en_name": ["Piperazine, 1-(2-ethoxyphenyl)-, hydrochloride (1:1)", "Piperazine, 1-(2-ethoxyphenyl)-, hydrochloride (1:1)", "Piperazine, 1-(2-ethoxyphenyl)-, monohydrochloride", "1-(2-Ethoxyphenyl)piperazine hydrochloride", "1-(2-Ethoxyphenyl)piperazine monohydrochloride"], "SMILES": "O(CC)C1=C(C=CC=C1)N2CCNCC2.Cl", "physical_data": {"Molecular Weight": "", "Molecular Formula": "C12H18N2O.ClH", "Melting Point": "207-209 \u00b0C"}}