{"cas_no": "831-91-4", "cn_name": "\u82c4\u57fa\u82ef\u57fa\u786b\u919a", "en_name": ["Benzyl phenyl sulfide", "Benzene, [(phenylmethyl)thio]-", "Sulfide, benzyl phenyl", "[(Phenylmethyl)thio]benzene", "Benzyl phenyl sulfide", "Phenyl benzyl sulfide", "((Benzyl)thio)benzene", "NSC 56472", "Benzyl phenyl thioether", "[(Phenylthio)methyl]benzene", "(Benzylsulfanyl)benzene", "Benzyl(phenyl)sulfane"], "SMILES": "C(SC1=CC=CC=C1)C2=CC=CC=C2", "physical_data": {"Molecular Weight": "200.30", "Molecular Formula": "C13H12S", "Boiling Point": "197 \u00b0C @ Press: 27 Torr", "Melting Point": "43.5 \u00b0C"}}