{"cas_no": "831-61-8", "cn_name": "\u6ca1\u98df\u5b50\u9178\u4e59\u916f", "en_name": ["Ethyl gallate", "Benzoic acid, 3,4,5-trihydroxy-, ethyl ester", "Gallic acid, ethyl ester", "Phyllemblin", "Ethyl gallate", "Nipagallin A", "Nipa No. 48", "Progallin A", "3,4,5-Trihydroxybenzoic acid ethyl ester", "Ethyl 3,4,5-trihydroxybenzoate", "NSC 402626"], "SMILES": "C(OCC)(=O)C1=CC(O)=C(O)C(O)=C1", "physical_data": {"Molecular Weight": "198.17", "Molecular Formula": "C9H10O5", "Melting Point": "154-155 \u00b0C"}}