{"cas_no": "831-82-3", "cn_name": "4-\u82ef\u6c27\u57fa\u82ef\u915a", "en_name": ["4-Phenoxyphenol", "Phenol, 4-phenoxy-", "Phenol, p-phenoxy-", "4-Phenoxyphenol", "p-Phenoxyphenol", "p-Hydroxydiphenyl ether", "4-Hydroxydiphenyl ether", "Hydroquinone monophenyl ether", "NSC 25027"], "SMILES": "O(C1=CC=C(O)C=C1)C2=CC=CC=C2", "physical_data": {"Molecular Weight": "186.21", "Molecular Formula": "C12H10O2", "Boiling Point": "177-180 \u00b0C @ Press: 9 Torr", "Melting Point": "84 \u00b0C"}}