{"cas_no": "83104-87-4", "cn_name": "\u8868\u6ca1\u98df\u5b50\u513f\u8336\u7d20 3-O-(3-O-\u7532\u57fa)\u6ca1\u98df\u5b50\u9178\u916f", "en_name": ["Epigallocatechin 3-O-(3-O-methyl)gallate", "Benzoic acid, 3,4-dihydroxy-5-methoxy-, (2R,3R)-3,4-dihydro-5,7-dihydroxy-2-(3,4,5-trihydroxyphenyl)-2H-1-benzopyran-3-yl ester", "Benzoic acid, 3,4-dihydroxy-5-methoxy-, 3,4-dihydro-5,7-dihydroxy-2-(3,4,5-trihydroxyphenyl)-2H-1-benzopyran-3-yl ester, (2R-cis)-", "(-)-Epigallocatechin 3-O-(3-O-methylgallate)", "Epigallocatechin 3-O-(3-O-methyl)gallate", "(-)-Epigallocatechin 3-(3\u2032\u2032-O-methyl)gallate", "EGCG3\u2032\u2032Me", "(-)-Epigallocatechin 3-O-(3\u2032-O-methyl)-gallate"], "SMILES": "O(C(=O)C1=CC(OC)=C(O)C(O)=C1)C2C(OC=3C(C2)=C(O)C=C(O)C3)C4=CC(O)=C(O)C(O)=C4", "physical_data": {"Molecular Weight": "472.40", "Molecular Formula": "C23H20O11", "Melting Point": "221-223 \u00b0C (decomp)"}}