{"cas_no": "83121-18-0", "cn_name": "\u6c1f\u82ef\u8132", "en_name": ["Teflubenzuron", "Benzamide, N-[[(3,5-dichloro-2,4-difluorophenyl)amino]carbonyl]-2,6-difluoro-", "N-[[(3,5-Dichloro-2,4-difluorophenyl)amino]carbonyl]-2,6-difluorobenzamide", "CME 134", "CME 134-01", "CME 13406", "Nomolt", "Teflubenzuron", "HOE 522", "Tefluron", "MK 139", "OMS 3009", "AC 291898", "Calicide", "Nomolt agro", "Ektobann", "Telubenzuron"], "SMILES": "N(C(NC(=O)C1=C(F)C=CC=C1F)=O)C2=C(F)C(Cl)=C(F)C(Cl)=C2", "physical_data": {"Molecular Weight": "381.11", "Molecular Formula": "C14H6Cl2F4N2O2", "Melting Point": "222.5 \u00b0C"}}