{"cas_no": "831217-01-7", "cn_name": "\u7ea2\u5730\u90a3\u975e", "en_name": ["Acetildenafil", "7H-Pyrazolo[4,3-d]pyrimidin-7-one, 5-[2-ethoxy-5-[2-(4-ethyl-1-piperazinyl)acetyl]phenyl]-1,6-dihydro-1-methyl-3-propyl-", "7H-Pyrazolo[4,3-d]pyrimidin-7-one, 5-[2-ethoxy-5-[(4-ethyl-1-piperazinyl)acetyl]phenyl]-1,4-dihydro-1-methyl-3-propyl-", "5-[2-Ethoxy-5-[2-(4-ethyl-1-piperazinyl)acetyl]phenyl]-1,6-dihydro-1-methyl-3-propyl-7H-pyrazolo[4,3-d]pyrimidin-7-one", "Acetildenafil", "Hongdenafil"], "SMILES": "C(CC)C=1C2=C(C(=O)N=C(N2)C3=C(OCC)C=CC(C(CN4CCN(CC)CC4)=O)=C3)N(C)N1", "physical_data": {"Molecular Weight": "466.58", "Molecular Formula": "C25H34N6O3", "Melting Point": "129-131 \u00b0C"}}