{"cas_no": "83130-01-2", "cn_name": "\u68c9\u94c3\u5a01", "en_name": ["Alanycarb", "8-Oxa-5,11-dithia-4,6,9-triazadodec-9-enoic acid, 6,10-dimethyl-7-oxo-4-(phenylmethyl)-, ethyl ester, (9Z)-", "5-Oxa-2,8-dithia-4,7,9-triazadodec-3-en-12-oic acid, 3,7-dimethyl-6-oxo-9-(phenylmethyl)-, ethyl ester, (Z)-", "5-Oxa-2,8-dithia-4,7,9-triazadodec-3-en-12-oic acid, 3,7-dimethyl-6-oxo-9-(phenylmethyl)-, ethyl ester, (3Z)-", "OK 135", "Alanycarb", "Alanicarb", "Orion", "Orion (insecticide)"], "SMILES": "N(CC1=CC=CC=C1)(SN(C(ON=C(SC)C)=O)C)CCC(OCC)=O", "physical_data": {"Molecular Weight": "399.53", "Molecular Formula": "C17H25N3O4S2", "Melting Point": "47 \u00b0C"}}