{"cas_no": "83164-33-4", "cn_name": "\u5421\u6c1f\u8349\u80fa", "en_name": ["Diflufenican", "3-Pyridinecarboxamide, N-(2,4-difluorophenyl)-2-[3-(trifluoromethyl)phenoxy]-", "N-(2,4-Difluorophenyl)-2-[3-(trifluoromethyl)phenoxy]-3-pyridinecarboxamide", "Diflufenican", "FR 1078", "Kwarc", "Brodal", "Diflufenicanil", "Canyon", "Legato", "Hurricane (herbicide)", "AG-D1-500 SC", "Hurricane", "Hurricane SC"], "SMILES": "O(C1=C(C(NC2=C(F)C=C(F)C=C2)=O)C=CC=N1)C3=CC(C(F)(F)F)=CC=C3", "physical_data": {"Molecular Weight": "394.29", "Molecular Formula": "C19H11F5N2O2", "Melting Point": "160 \u00b0C"}}