{"cas_no": "832-69-9", "cn_name": "1-\u7532\u57fa\u83f2", "en_name": ["1-Methylphenanthrene", "Phenanthrene, 1-methyl-", "1-Methylphenanthrene", "NSC 146583"], "SMILES": "CC=1C=2C(=C3C(=CC2)C=CC=C3)C=CC1", "physical_data": {"Molecular Weight": "192.26", "Molecular Formula": "C15H12", "Boiling Point": "354-355 \u00b0C", "Melting Point": "123 \u00b0C"}}