{"cas_no": "832-53-1", "cn_name": "\u4e94\u6c1f\u82ef\u57fa\u78fa\u9170\u6c2f", "en_name": ["2,3,4,5,6-Pentafluorobenzenesulfonyl chloride", "Benzenesulfonyl chloride, 2,3,4,5,6-pentafluoro-", "Benzenesulfonyl chloride, pentafluoro-", "2,3,4,5,6-Pentafluorobenzenesulfonyl chloride", "Pentafluorobenzenesulfonyl chloride", "Pentafluorophenylsulfonyl chloride", "NSC 96998", "Pentafluororbenzenesulfonyl chloride", "2,3,4,5,6-Pentafluorobenzene-1-sulfonyl chloride", "Perfluorobenzenesulfonyl chloride", "2,3,4,5,6-Pentafluorophenylsulfonyl chloride"], "SMILES": "S(Cl)(=O)(=O)C1=C(F)C(F)=C(F)C(F)=C1F", "physical_data": {"Molecular Weight": "266.57", "Molecular Formula": "C6ClF5O2S", "Boiling Point": "210.5 \u00b0C"}}