{"cas_no": "832-71-3", "cn_name": "3-\u7532\u57fa\u83f2", "en_name": ["3-Methylphenanthrene", "Phenanthrene, 3-methyl-", "3-Methylphenanthrene", "NSC 408897"], "SMILES": "CC1=CC2=C3C(=CC=C2C=C1)C=CC=C3", "physical_data": {"Molecular Weight": "192.26", "Molecular Formula": "C15H12", "Boiling Point": "350 \u00b0C", "Melting Point": "65 \u00b0C"}}