{"cas_no": "832-66-6", "cn_name": "1,3,7,8-\u56db\u7532\u57fa\u9ec4\u560c\u5464", "en_name": ["3,7-Dihydro-1,3,7,8-tetramethyl-1H-purine-2,6-dione", "1H-Purine-2,6-dione, 3,7-dihydro-1,3,7,8-tetramethyl-", "Xanthine, 1,3,7,8-tetramethyl-", "3,7-Dihydro-1,3,7,8-tetramethyl-1H-purine-2,6-dione", "Methylcaffeine", "8-Methylcaffeine", "1,3,7,8-Tetramethylxanthine", "1,3,7,8-Tetramethylpurine-2,6-dione"], "SMILES": "CN1C2=C(C(=O)N(C)C1=O)N(C)C(C)=N2", "physical_data": {"Molecular Weight": "208.22", "Molecular Formula": "C9H12N4O2", "Melting Point": "206-208 \u00b0C"}}