{"cas_no": "832-01-9", "cn_name": "\u5bf9\u7532\u6c27\u57fa\u8089\u6842\u9178\u7532\u916f", "en_name": ["Methyl 4-methoxycinnamate", "2-Propenoic acid, 3-(4-methoxyphenyl)-, methyl ester", "Cinnamic acid, p-methoxy-, methyl ester", "Methyl p-methoxycinnamate", "Methyl 4-methoxycinnamate", "Methyl 3-(4-methoxyphenyl)-2-propenoate", "3-(4-Methoxyphenyl)-2-propenoic acid methyl ester", "NSC 26461", "Methyl 3-(4-methoxyphenyl)acrylate", "Methyl 3-(4-methoxyphenyl)propenoate"], "SMILES": "C(=CC(OC)=O)C1=CC=C(OC)C=C1", "physical_data": {"Molecular Weight": "192.21", "Molecular Formula": "C11H12O3", "Boiling Point": "110 \u00b0C @ Press: 0.01 Torr", "Melting Point": "89 \u00b0C"}}