{"cas_no": "832114-00-8", "cn_name": "3,5-\u4e8c\u7532\u57fa\u5f02\u6076\u5511-4-\u787c\u9178\u9891\u54ea\u9187\u916f", "en_name": ["3,5-Dimethyl-4-(4,4,5,5-tetramethyl-1,3,2-dioxaborolan-2-yl)isoxazole", "Isoxazole, 3,5-dimethyl-4-(4,4,5,5-tetramethyl-1,3,2-dioxaborolan-2-yl)-", "3,5-Dimethyl-4-(4,4,5,5-tetramethyl-1,3,2-dioxaborolan-2-yl)isoxazole", "2-(3,5-Dimethylisoxazol-4-yl)-4,4,5,5-tetramethyl-1,3,2-dioxaborolane", "3,5-Dimethylisoxazole-4-boronic acid pinacol ester", "(3,5-Dimethylisoxazol-4-yl)boronic acid pinacol ester", "3,5-Dimethyl-4-(4,4,5,5-tetramethyl-1,3,2-dioxaborolan-2-yl)-1,2-oxazole", "3,5-Dimethyl-4-(tetramethyl-1,3,2-dioxaborolan-2-yl)-1,2-oxazole"], "SMILES": "CC=1C(=C(C)ON1)B2OC(C)(C)C(C)(C)O2", "physical_data": {"Molecular Weight": "223.08", "Molecular Formula": "C11H18BNO3", "Melting Point": "99-101 \u00b0C"}}