{"cas_no": "832114-06-4", "cn_name": "4-(4-\u7532\u57fa\u54cc\u55ea-1-\u7fb0\u57fa)\u82ef\u787c\u9178\u9891\u54ea\u916f", "en_name": ["(4-Methyl-1-piperazinyl)[4-(4,4,5,5-tetramethyl-1,3,2-dioxaborolan-2-yl)phenyl]methanone", "Methanone, (4-methyl-1-piperazinyl)[4-(4,4,5,5-tetramethyl-1,3,2-dioxaborolan-2-yl)phenyl]-", "Piperazine, 1-methyl-4-[4-(4,4,5,5-tetramethyl-1,3,2-dioxaborolan-2-yl)benzoyl]-", "(4-Methyl-1-piperazinyl)[4-(4,4,5,5-tetramethyl-1,3,2-dioxaborolan-2-yl)phenyl]methanone", "1-Methyl-4-[4-(4,4,5,5-tetramethyl-1,3,2-dioxaborolan-2-yl)benzoyl]piperazine", "(4-Methylpiperazin-1-yl)[4-(4,4,5,5-tetramethyl-[1,3,2]dioxaborolan-2-yl)phenyl]methanone", "[4-[(4-Methyl-1-piperazinyl)carbonyl]phenyl]boronic acid pinacol ester", "2-[4-(4-Methylpiperazin-1-ylcarbonyl)phenyl]-4,4,5,5-tetramethyl-1,3,2-dioxaborolane"], "SMILES": "CC1(C)OB(C2=CC=C(C(=O)N3CCN(C)CC3)C=C2)OC1(C)C", "physical_data": {"Molecular Weight": "330.23", "Molecular Formula": "C18H27BN2O3", "Melting Point": "94 \u00b0C"}}