{"cas_no": "83249-10-9", "cn_name": "\u53cc\u73af[1.1.1]\u620a\u70f7-1,3-\u4e8c\u7fa7\u9178, 1-\u7532\u916f", "en_name": ["1-Methyl bicyclo[1.1.1]pentane-1,3-dicarboxylate", "Bicyclo[1.1.1]pentane-1,3-dicarboxylic acid, 1-methyl ester", "Bicyclo[1.1.1]pentane-1,3-dicarboxylic acid, monomethyl ester", "1-Methyl bicyclo[1.1.1]pentane-1,3-dicarboxylate", "3-(Methoxycarbonyl)bicyclo[1.1.1]pentane-1-carboxylic acid", "Bicyclo[1.1.1]pentan-1,3-dicarboxylic acid-1-methyl ester"], "SMILES": "C(OC)(=O)C12CC(C(O)=O)(C1)C2", "physical_data": {"Molecular Weight": "170.16", "Molecular Formula": "C8H10O4", "Melting Point": "138-139 \u00b0C"}}