{"cas_no": "83261-15-8", "cn_name": "(S)-2-\u6c2f\u4e19\u9178\u5f02\u4e01\u916f", "en_name": ["Propanoic acid, 2-chloro-, 2-methylpropyl ester, (2S)-", "Propanoic acid, 2-chloro-, 2-methylpropyl ester, (2S)-", "Propanoic acid, 2-chloro-, 2-methylpropyl ester, (S)-", "Isobutyl L-(-)-2-chloropropionate", "(S)-Isobutyl 2-chloropropionate", "Isobutyl L-2-chloropropionate", "(S)-2-Chloropropionic acid 2-methylpropyl ester", "(S)-Isobutyl-2-chloropropanoate", "2-Methylpropyl (2S)-2-chloropropanoate"], "SMILES": "C(OCC(C)C)(C(C)Cl)=O", "physical_data": {"Molecular Weight": "164.63", "Molecular Formula": "C7H13ClO2", "Boiling Point": "44-45.5 \u00b0C @ Press: 4 Torr"}}