{"cas_no": "832747-59-8", "cn_name": "\u5229\u57f9\u916e\u6742\u8d28(3\u4e59\u70ef6,7,8,9-\u56db\u6c22\u5316-2-\u7532\u57fa-4H-\u5421\u5576\u9a88[1,A]\u5627\u5576-4-ONE)", "en_name": ["3-Ethenyl-6,7,8,9-tetrahydro-2-methyl-4H-pyrido[1,2-a]pyrimidin-4-one", "4H-Pyrido[1,2-a]pyrimidin-4-one, 3-ethenyl-6,7,8,9-tetrahydro-2-methyl-", "3-Ethenyl-6,7,8,9-tetrahydro-2-methyl-4H-pyrido[1,2-a]pyrimidin-4-one", "3-Ethenyl-2-methyl-6,7,8,9-tetrahydropyrido[1,2-a]pyrimidin-4-one", "3-Ethenyl-2-methyl-4H,6H,7H,8H,9H-pyrido[1,2-a]pyrimidin-4-one"], "SMILES": "O=C1N2C(=NC(C)=C1C=C)CCCC2", "physical_data": {"Molecular Weight": "190.24", "Molecular Formula": "C11H14N2O", "Melting Point": "180-183 \u00b0C"}}