{"cas_no": "83278-86-8", "cn_name": "2-\u7f9f\u7532\u57fa\u82ef\u5e76\u4e8c\u6c22\u5421\u5583", "en_name": ["3,4-Dihydro-2H-1-benzopyran-2-methanol", "2H-1-Benzopyran-2-methanol, 3,4-dihydro-", "3,4-Dihydro-2H-1-benzopyran-2-methanol", "2-(Hydroxymethyl)chroman", "3,4-Dihydro-2H-chromen-2-ylmethanol", "(Chroman-2-yl)methanol", "Chroman-2-ylmethyl alcohol", "(3,4-Dihydro-2H-1-benzopyran-2-yl)methanol"], "SMILES": "C(O)C1OC=2C(CC1)=CC=CC2", "physical_data": {"Molecular Weight": "164.20", "Molecular Formula": "C10H12O2", "Melting Point": "44 \u00b0C"}}