{"cas_no": "832735-61-2", "cn_name": "5-\u6eb4-1-(\u4e8c\u6c1f\u7532\u57fa)\u5421\u5576-2(1H)-\u916e", "en_name": ["5-Bromo-1-(difluoromethyl)-2(1H)-pyridinone", "2(1H)-Pyridinone, 5-bromo-1-(difluoromethyl)-", "5-Bromo-1-(difluoromethyl)-2(1H)-pyridinone", "5-Bromo-1-(difluoromethyl)pyridine-2(1H)-one", "5-Bromo-1-difluoromethyl-1H-pyridin-2-one", "5-Bromo-1-(difluoromethyl)pyridin-2(1H)-one", "5-Bromo-1-(difluoromethyl)-1,2-dihydropyridin-2-one"], "SMILES": "C(F)(F)N1C(=O)C=CC(Br)=C1", "physical_data": {"Molecular Weight": "224.00", "Molecular Formula": "C6H4BrF2NO", "Melting Point": "74-76 \u00b0C"}}