{"cas_no": "833-48-7", "cn_name": "10,11-\u4e8c\u6c22-5H-\u4e8c\u82ef\u5e76[A,D]\u73af\u5e9a\u70ef", "en_name": ["10,11-Dihydro-5H-dibenzo[a,d]cycloheptene", "5H-Dibenzo[a,d]cycloheptene, 10,11-dihydro-", "10,11-Dihydro-5H-dibenzo[a,d]cycloheptene", "Dibenzo[a,d][1,4]cycloheptadiene", "2,3:6,7-Dibenzosuberan", "Suberane", "10,11-Dihydrodibenzo[a,d]cycloheptene", "1,2:4,5-Dibenzocycloheptane", "NSC 86156", "Dibenzosuberane", "10,11-Dihydro-5H-dibenzo[a,d][7]annulene"], "SMILES": "C1=2C(CCC=3C(C1)=CC=CC3)=CC=CC2", "physical_data": {"Molecular Weight": "194.27", "Molecular Formula": "C15H14", "Melting Point": "78-79 \u00b0C"}}