{"cas_no": "833-50-1", "cn_name": "2-\u82ef\u57fa\u82ef\u5e76\u6076\u5511", "en_name": ["2-Phenylbenzoxazole", "Benzoxazole, 2-phenyl-", "2-Phenylbenzoxazole", "BOP", "NSC 29105", "NSC 406946", "2-Phenylbenzo[d]oxazole", "2-Phenyl-1,3-benzoxazole", "2-Phenyl-benzooxazole"], "SMILES": "C1(=NC=2C(O1)=CC=CC2)C3=CC=CC=C3", "physical_data": {"Molecular Weight": "195.22", "Molecular Formula": "C13H9NO", "Melting Point": "102-104 \u00b0C", "Density": "1.267 g/cm\u00b3"}}