{"cas_no": "83327-19-9", "cn_name": "(-)-\u843d\u53f6\u677e\u8102\u9187", "en_name": ["(-)-Lariciresinol", "3-Furanmethanol, tetrahydro-2-(4-hydroxy-3-methoxyphenyl)-4-[(4-hydroxy-3-methoxyphenyl)methyl]-, (2R,3S,4S)-", "3-Furanmethanol, tetrahydro-2-(4-hydroxy-3-methoxyphenyl)-4-[(4-hydroxy-3-methoxyphenyl)methyl]-, [2R-(2\u03b1,3\u03b2,4\u03b2)]-", "(2R,3S,4S)-Tetrahydro-2-(4-hydroxy-3-methoxyphenyl)-4-[(4-hydroxy-3-methoxyphenyl)methyl]-3-furanmethanol", "(-)-Lariciresinol"], "SMILES": "C(O)C1C(OCC1CC2=CC(OC)=C(O)C=C2)C3=CC(OC)=C(O)C=C3", "physical_data": {"Molecular Weight": "360.40", "Molecular Formula": "C20H24O6", "Melting Point": "156-158 \u00b0C"}}