{"cas_no": "83366-66-9", "cn_name": "\u5948\u6cd5\u5511\u916e", "en_name": ["Nefazodone", "3H-1,2,4-Triazol-3-one, 2-[3-[4-(3-chlorophenyl)-1-piperazinyl]propyl]-5-ethyl-2,4-dihydro-4-(2-phenoxyethyl)-", "2-[3-[4-(3-Chlorophenyl)-1-piperazinyl]propyl]-5-ethyl-2,4-dihydro-4-(2-phenoxyethyl)-3H-1,2,4-triazol-3-one", "Nefazodone"], "SMILES": "C(COC1=CC=CC=C1)N2C(CC)=NN(CCCN3CCN(CC3)C4=CC(Cl)=CC=C4)C2=O", "physical_data": {"Molecular Weight": "470.01", "Molecular Formula": "C25H32ClN5O2", "Melting Point": "83.5 \u00b0C"}}