{"cas_no": "834-12-8", "cn_name": "\u83a0\u706d\u51c0", "en_name": ["Ametryn", "1,3,5-Triazine-2,4-diamine, N2-ethyl-N4-(1-methylethyl)-6-(methylthio)-", "s-Triazine, 2-(ethylamino)-4-(isopropylamino)-6-(methylthio)-", "1,3,5-Triazine-2,4-diamine, N-ethyl-N\u2032-(1-methylethyl)-6-(methylthio)-", "N2-Ethyl-N4-(1-methylethyl)-6-(methylthio)-1,3,5-triazine-2,4-diamine", "A 1093", "G 34162", "Ametryne", "2-Ethylamino-4-isopropylamino-6-methylmercapto-s-triazine", "2-Ethylamino-4-isopropylamino-6-methylthio-s-triazine", "2-Methylmercapto-4-ethylamino-6-isopropylamino-s-triazine", "2-Methylthio-4-ethylamino-6-isopropylamino-s-triazine", "Gesapax", "Evik", "Ametryn", "2-Ethylamino-4-isopropylamino-6-methylthio-1,3,5-triazine", "Cemerin", "Primatol Z 80", "2-Ethylamino-4-methylthio-6-isopropylamino-1,3,5-triazine", "2-Methylthio-4-ethylamino-6-isopropylamino-sym-triazine", "Ametrex", "NSC 163044", "Doruplant", "Amephyt", "N-Ethyl-N\u2032-(1-methylethyl)-6-(methylthio)-1,3,5-triazine-2,4-diamine", "Metrimex 500SC", "2-N-Ethyl-6-(methylsulfanyl)-4-N-(propan-2-yl)-1,3,5-triazine-2,4-diamine"], "SMILES": "N(C(C)C)C=1N=C(NCC)N=C(SC)N1", "physical_data": {"Molecular Weight": "227.33", "Molecular Formula": "C9H17N5S", "Boiling Point": "345 \u00b0C", "Melting Point": "88-89 \u00b0C", "Density": "1.190 g/cm\u00b3 @ Temp: 20 \u00b0C"}}