{"cas_no": "834-66-2", "cn_name": "1-(4-\u6eb4\u82ef\u57fa\u78fa\u9170)\u54cc\u5576", "en_name": ["1-[(4-Bromophenyl)sulfonyl]piperidine", "Piperidine, 1-[(4-bromophenyl)sulfonyl]-", "Piperidine, 1-[(p-bromophenyl)sulfonyl]-", "1-[(4-Bromophenyl)sulfonyl]piperidine", "1-[(p-Bromophenyl)sulfonyl]piperidine", "N-(4-Bromobenzenesulfonyl)piperidine", "NSC 14845", "1-(4-Bromobenzenesulfonyl)piperidine"], "SMILES": "S(=O)(=O)(C1=CC=C(Br)C=C1)N2CCCCC2", "physical_data": {"Molecular Weight": "304.20", "Molecular Formula": "C11H14BrNO2S", "Melting Point": "91-91.5 \u00b0C"}}