{"cas_no": "834-24-2", "cn_name": "4-\u6c28\u57fa\u4e8c\u82ef\u4e59\u70ef", "en_name": ["4-Aminostilbene", "Benzenamine, 4-(2-phenylethenyl)-", "4-Stilbenamine", "4-(2-Phenylethenyl)benzenamine", "4-Aminostilbene", "p-Styrylaniline", "p-Aminostilbene", "NSC 36396", "4-Styrylaniline"], "SMILES": "C(=CC1=CC=CC=C1)C2=CC=C(N)C=C2", "physical_data": {"Molecular Weight": "195.26", "Molecular Formula": "C14H13N", "Melting Point": "151-152 \u00b0C"}}