{"cas_no": "834-28-6", "cn_name": "\u76d0\u9178\u82ef\u4e59\u798f\u660e", "en_name": ["Phenformin hydrochloride", "Imidodicarbonimidic diamide, N-(2-phenylethyl)-, hydrochloride (1:1)", "Biguanide, 1-phenethyl-, monohydrochloride", "Imidodicarbonimidic diamide, N-(2-phenylethyl)-, monohydrochloride", "Phenethylbiguanide hydrochloride", "1-Phenethylbiguanide hydrochloride", "Phenformin hydrochloride", "N\u2032-\u03b2-Phenylethylbiguanide-hydrochloride", "\u03b1-Phenethylbiguanide hydrochloride", "1-\u03b2-Phenylethylbiguanide hydrochloride", "N-Phenethylbiguanide hydrochloride", "Dipar", "1-(2-Phenylethyl)biguanide hydrochloride", "Dibein", "Lentobetic", "Azucaps", "Debinyl", "Feguanide", "Glucopostin", "Debeone DT", "DBI-TD", "Meltrol", "Insoral", "Normoglucina"], "SMILES": "C(CNC(NC(=N)N)=N)C1=CC=CC=C1.Cl", "physical_data": {"Molecular Weight": "", "Molecular Formula": "C10H15N5.ClH", "Melting Point": "175-178 \u00b0C"}}