{"cas_no": "83409-32-9", "cn_name": "\u53bb\u4e59\u57fa\u80fa\u7898\u916e", "en_name": ["Desethylamiodarone", "Methanone, (2-butyl-3-benzofuranyl)[4-[2-(ethylamino)ethoxy]-3,5-diiodophenyl]-", "(2-Butyl-3-benzofuranyl)[4-[2-(ethylamino)ethoxy]-3,5-diiodophenyl]methanone", "Desethylamiodarone", "N-Desethylamiodarone", "N-Monodesethylamiodarone", "Deethylamiodarone", "LB 33020", "N-Deethylamiodarone", "DAMI"], "SMILES": "C(=O)(C=1C=2C(OC1CCCC)=CC=CC2)C3=CC(I)=C(OCCNCC)C(I)=C3", "physical_data": {"Molecular Weight": "617.26", "Molecular Formula": "C23H25I2NO3", "Melting Point": "176.8-177.7 \u00b0C"}}