{"cas_no": "83435-67-0", "cn_name": "\u76d0\u9178\u5730\u62c9\u666e\u5229", "en_name": ["Delapril hydrochloride", "Glycine, N-[(1S)-1-(ethoxycarbonyl)-3-phenylpropyl]-L-alanyl-N-(2,3-dihydro-1H-inden-2-yl)-, hydrochloride (1:1)", "Glycine, N-(2,3-dihydro-1H-inden-2-yl)-N-[N-[1-(ethoxycarbonyl)-3-phenylpropyl]-L-alanyl]-, monohydrochloride, (S)-", "Glycine, N-[(1S)-1-(ethoxycarbonyl)-3-phenylpropyl]-L-alanyl-N-(2,3-dihydro-1H-inden-2-yl)-, monohydrochloride", "CV 3317", "Delapril hydrochloride", "Adecut", "Cupressin", "REV 6000A"], "SMILES": "N(C(C(NC(CCC1=CC=CC=C1)C(OCC)=O)C)=O)(CC(O)=O)C2CC=3C(C2)=CC=CC3.Cl", "physical_data": {"Molecular Weight": "", "Molecular Formula": "C26H32N2O5.ClH", "Melting Point": "166-170 \u00b0C"}}