{"cas_no": "83465-22-9", "cn_name": "\u4e95\u5188\u9709\u9187\u80fa", "en_name": ["Valiolamine", "D-epi-Inositol, 4-amino-3,4-dideoxy-2-C-(hydroxymethyl)-", "4-Amino-3,4-dideoxy-2-C-(hydroxymethyl)-D-epi-inositol", "Valiolamine", "EB 0155"], "SMILES": "C(O)C1(O)C(O)C(O)C(O)C(N)C1", "physical_data": {"Molecular Weight": "193.20", "Molecular Formula": "C7H15NO5", "Melting Point": "176.5-180.3 \u00b0C"}}