{"cas_no": "83463-62-1", "cn_name": "\u6eb4\u6c2f\u4e59\u8148", "en_name": ["Bromochloroacetonitrile", "Acetonitrile, 2-bromo-2-chloro-", "Acetonitrile, bromochloro-", "2-Bromo-2-chloroacetonitrile", "Bromochloroacetonitrile"], "SMILES": "C(C#N)(Br)Cl", "physical_data": {"Molecular Weight": "154.39", "Molecular Formula": "C2HBrClN", "Boiling Point": "125-130 \u00b0C @ Press: 760 Torr", "Density": "1.68 g/cm\u00b3 @ Temp: 25 \u00b0C"}}