{"cas_no": "83480-29-9", "cn_name": "\u4f0f\u683c\u5217\u6ce2\u7cd6", "en_name": ["Voglibose", "D-epi-Inositol, 3,4-dideoxy-4-[[2-hydroxy-1-(hydroxymethyl)ethyl]amino]-2-C-(hydroxymethyl)-", "3,4-Dideoxy-4-[[2-hydroxy-1-(hydroxymethyl)ethyl]amino]-2-C-(hydroxymethyl)-D-epi-inositol", "N-(1,3-Dihydroxy-2-propyl)valiolamine", "Voglibose", "AO 128", "Glustat", "A 71100", "Basen", "Voglistat", "(1S,2S,3R,4S,5S)-5-[(1,3-Dihydroxypropan-2-yl)amino]-1-(hydroxymethyl)cyclohexane-1,2,3,4-tetraol", "(1S,2S,3R,4S,5S)-5-((1,3-Dihydroxypropan-2-yl)amino)-1-(hydroxymethyl)cyclohexane-1,2,3,4-tetraol"], "SMILES": "N(C(CO)CO)C1CC(CO)(O)C(O)C(O)C1O", "physical_data": {"Molecular Weight": "267.28", "Molecular Formula": "C10H21NO7", "Melting Point": "161.5-162.1 \u00b0C"}}