{"cas_no": "83480-64-2", "cn_name": "\u4eba\u53c2\u7682\u82f7 RD2", "en_name": ["Ginsenoside Rd2", "\u03b2-D-Glucopyranoside, (3\u03b2,12\u03b2)-3-(\u03b2-D-glucopyranosyloxy)-12-hydroxydammar-24-en-20-yl 6-O-\u03b1-L-arabinopyranosyl-", "(3\u03b2,12\u03b2)-3-(\u03b2-D-Glucopyranosyloxy)-12-hydroxydammar-24-en-20-yl 6-O-\u03b1-L-arabinopyranosyl-\u03b2-D-glucopyranoside", "Ginsenoside Rd2", "Quinquenoside L10", "Ginsenoside C-O", "3-O-\u03b2-D-Glucopyranosylginsenoside C-Y", "Ginsenoside compound O", "3-O-Glucosylginsenoside C Y"], "SMILES": "CC12C3(C)C(C(C(OC4OC(COC5C(O)C(O)C(O)CO5)C(O)C(O)C4O)(CCC=C(C)C)C)CC3)C(O)CC1C6(C)C(CC2)C(C)(C)C(OC7OC(CO)C(O)C(O)C7O)CC6", "physical_data": {"Molecular Weight": "917.13", "Molecular Formula": "C47H80O17", "Melting Point": "185-186 \u00b0C"}}