{"cas_no": "835-11-0", "cn_name": "2,2'-\u4e8c\u7f9f\u57fa\u4e8c\u82ef\u7532\u916e", "en_name": ["2,2\u2032-Dihydroxybenzophenone", "Methanone, bis(2-hydroxyphenyl)-", "Benzophenone, 2,2\u2032-dihydroxy-", "Bis(2-hydroxyphenyl)methanone", "2,2\u2032-Dihydroxybenzophenone", "Bis(2-hydroxyphenyl) ketone", "2-(2-Hydroxybenzoyl)phenol"], "SMILES": "C(=O)(C1=C(O)C=CC=C1)C2=C(O)C=CC=C2", "physical_data": {"Molecular Weight": "214.22", "Molecular Formula": "C13H10O3", "Boiling Point": "333 \u00b0C", "Melting Point": "59.5 \u00b0C"}}