{"cas_no": "835-64-3", "cn_name": "2-(2-\u7f9f\u57fa\u82ef\u57fa)\u82ef\u5e76\u6076\u5511,\u8bf7\u78e8\u706d", "en_name": ["2-(2-Hydroxyphenyl)benzoxazole", "Phenol, 2-(2-benzoxazolyl)-", "Phenol, o-2-benzoxazolyl-", "2-(2-Benzoxazolyl)phenol", "2-(o-Hydroxyphenyl)benzoxazole", "2-(2-Hydroxyphenyl)benzoxazole", "2-(2\u2032-Hydroxyphenyl)benzoxazole", "o-2-Benzoxazolylphenol", "HBO", "NSC 403545", "NSC 5423", "2-(1,3-Benzoxazol-2-yl)phenol", "2-(2\u2032-Hydroxyphenyl)-2-benzoxazoline", "2-(2\u2032-Hydroxylphenyl)benzoxazole", "Luminor Light-Green 496T", "2-(Benzo[d]oxazol-2-yl)phenol", "2-Benzooxazol-2-yl-phenol"], "SMILES": "OC1=C(C2=NC=3C(O2)=CC=CC3)C=CC=C1", "physical_data": {"Molecular Weight": "211.22", "Molecular Formula": "C13H9NO2", "Boiling Point": "338 \u00b0C", "Melting Point": "123.5 \u00b0C"}}