{"cas_no": "835-31-4", "cn_name": "\u8418\u7532\u5511\u6797", "en_name": ["Naphazoline", "1H-Imidazole, 4,5-dihydro-2-(1-naphthalenylmethyl)-", "Naphazoline", "2-Imidazoline, 2-(1-naphthylmethyl)-", "4,5-Dihydro-2-(1-naphthalenylmethyl)-1H-imidazole", "Antan", "Naphthizine", "2-(1-Naphthylmethyl)-2-imidazoline", "Rhinazine", "Imidin", "Naphthazoline", "Colirio Alfa", "Euboral Oftalmico", "2-(1-Naphthalenylmethyl)-2-imidazoline", "Antigaimorit", "Nephazoline", "2-(Naphthalen-1-ylmethyl)-4,5-dihydro-1H-imidazole", "2-[(Naphthalen-1-yl)methyl]-4,5-dihydro-1H-imidazole", "MeSH ID: D009278"], "SMILES": "C(C=1C2=C(C=CC1)C=CC=C2)C=3NCCN3", "physical_data": {"Molecular Weight": "210.27", "Molecular Formula": "C14H14N2", "Boiling Point": "120-140 \u00b0C @ Press: 4 Torr", "Melting Point": "119 \u00b0C"}}