{"cas_no": "83509-88-0", "cn_name": "Z-\u0392-HOMOALA-OH", "en_name": ["(3S)-3-[[(Phenylmethoxy)carbonyl]amino]butanoic acid", "Butanoic acid, 3-[[(phenylmethoxy)carbonyl]amino]-, (3S)-", "Butanoic acid, 3-[[(phenylmethoxy)carbonyl]amino]-, (S)-", "(3S)-3-[[(Phenylmethoxy)carbonyl]amino]butanoic acid", "(S)-3-(((Benzyloxy)carbonyl)amino)butanoicacid", "(S)-3-(((Benzyloxy)carbonyl)amino)butanoic acid", "(s)-3-(Cbz-amino)butanoic acid"], "SMILES": "C(OC(NC(CC(O)=O)C)=O)C1=CC=CC=C1", "physical_data": {"Molecular Weight": "237.25", "Molecular Formula": "C12H15NO4", "Melting Point": "104-106 \u00b0C"}}