{"cas_no": "83512-85-0", "cn_name": "\u7fa7\u7532\u57fa\u58f3\u805a\u7cd6", "en_name": ["N-Carboxymethylchitosan", "Chitosan, N-(carboxymethyl)", "N-Carboxymethylchitosan", "Carboxymethylchitosan", "C 0001"], "SMILES": "", "physical_data": {"Molecular Weight": "", "Molecular Formula": "Unspecified", "Melting Point": "253 \u00b0C"}}