{"cas_no": "83524-75-8", "cn_name": "N,N-\u53cc(4-\u7532\u6c27\u57fa\u82c4\u57fa)\u82dd-3,4,9,10-\u4e8c\u7532\u9170\u4e9a\u80fa(\u989c\u6599\u9ed132)", "en_name": ["Pigment Black 32", "Anthra[2,1,9-def:6,5,10-d'e'f\u2032]diisoquinoline-1,3,8,10(2H,9H)-tetrone, 2,9-bis[(4-methoxyphenyl)methyl]-", "2,9-Bis[(4-methoxyphenyl)methyl]anthra[2,1,9-def:6,5,10-d'e'f\u2032]diisoquinoline-1,3,8,10(2H,9H)-tetrone", "N,N\u2032-Bis(4-methoxybenzyl)perylene-3,4:9,10-bis(dicarboximide)", "C.I. 71133", "C.I. Pigment Black 32", "Pigment Black 32", "Paliogen Black L 0086", "PDI-32", "HPP Black 8230", "N,N\u2032-Bis(4-methoxybenzyl)perylene-3,4,9,10-bis(dicarboximide)", "Black L 0086", "2,9-Bis(4-methoxybenzyl)anthra[2,1,9-def:6,5,10-d'e'f\u2032]diisoquinoline-1,3,8,10(2H,9H)-tetraone", "Perylene Black 32"], "SMILES": "O=C1C=2C3=C4C(C=5C=6C(C4=CC2)=CC=C7C6C(=CC5)C(=O)N(CC8=CC=C(OC)C=C8)C7=O)=CC=C3C(=O)N1CC9=CC=C(OC)C=C9", "physical_data": {"Molecular Weight": "630.64", "Molecular Formula": "C40H26N2O6", "Melting Point": "187-188 \u00b0C"}}