{"cas_no": "83554-69-2", "cn_name": "1-\u6c2f-6,6-\u4e8c\u7532\u57fa-2-\u5e9a\u70ef-4-\u7094", "en_name": ["(2E)-N,6,6-Trimethyl-2-hepten-4-yn-1-amine", "2-Hepten-4-yn-1-amine, N,6,6-trimethyl-, (2E)-", "2-Hepten-4-yn-1-amine, N,6,6-trimethyl-, (E)-", "(2E)-N,6,6-Trimethyl-2-hepten-4-yn-1-amine"], "SMILES": "C(#CC=CCNC)C(C)(C)C", "physical_data": {"Molecular Weight": "151.25", "Molecular Formula": "C10H17N", "Melting Point": "163-166 \u00b0C"}}