{"cas_no": "836-42-0", "cn_name": "4-\u82c4\u6c27\u57fa\u6c2f\u5316\u82c4", "en_name": ["4-Benzyloxybenzyl chloride", "Benzene, 1-(chloromethyl)-4-(phenylmethoxy)-", "Ether, benzyl \u03b1-chloro-p-tolyl", "1-(Chloromethyl)-4-(phenylmethoxy)benzene", "p-(Benzyloxy)benzyl chloride", "4-Benzyloxybenzyl chloride", "1-(Benzyloxy)-4-(chloromethyl)benzene", "NSC 131670", "1-(Chloromethyl)-4-(benzyloxy)benzene"], "SMILES": "O(CC1=CC=CC=C1)C2=CC=C(CCl)C=C2", "physical_data": {"Molecular Weight": "232.71", "Molecular Formula": "C14H13ClO", "Melting Point": "76-78 \u00b0C"}}