{"cas_no": "836-43-1", "cn_name": "4-\u82c4\u6c27\u57fa\u82c4\u9187", "en_name": ["4-(Benzyloxy)benzyl alcohol", "Benzenemethanol, 4-(phenylmethoxy)-", "Benzyl alcohol, p-(benzyloxy)-", "4-(Phenylmethoxy)benzenemethanol", "p-Benzyloxybenzyl alcohol", "4-(Benzyloxy)benzyl alcohol", "(4-Benzyloxyphenyl)methanol", "NSC 131675", "4-Benzyloxybenzenemethanol"], "SMILES": "O(CC1=CC=CC=C1)C2=CC=C(CO)C=C2", "physical_data": {"Molecular Weight": "214.26", "Molecular Formula": "C14H14O2", "Melting Point": "84-86 \u00b0C"}}