{"cas_no": "836-30-6", "cn_name": "4-\u785d\u57fa\u4e8c\u82ef\u80fa", "en_name": ["4-Nitrodiphenylamine", "Benzenamine, 4-nitro-N-phenyl-", "Diphenylamine, 4-nitro-", "4-Nitro-N-phenylbenzenamine", "4-Nitrodiphenylamine", "p-Nitrodiphenylamine", "N-(p-Nitrophenyl)aniline", "N-Phenyl-4-nitroaniline", "(4-Nitrophenyl)phenylamine", "4-Nitro-N-phenylaniline", "N-(4-Nitrophenyl)aniline", "NSC 33836", "N-Phenyl-p-nitroaniline", "N-Phenyl-4-nitrobenzenamine", "Phenyl(4-nitrophenyl)amine", "N-(4-Nitrophenyl)benzenamine"], "SMILES": "N(C1=CC=C(N(=O)=O)C=C1)C2=CC=CC=C2", "physical_data": {"Molecular Weight": "214.22", "Molecular Formula": "C12H10N2O2", "Boiling Point": "343 \u00b0C", "Melting Point": "133.5 \u00b0C"}}