{"cas_no": "836-79-3", "cn_name": "1,1,1,3,3,3-\u516d\u6c1f-2-(4-\u7f9f\u57fa\u82ef\u57fa)\u4e19-2-\u9187", "en_name": ["4-Hydroxy-\u03b1,\u03b1-bis(trifluoromethyl)benzenemethanol", "Benzenemethanol, 4-hydroxy-\u03b1,\u03b1-bis(trifluoromethyl)-", "Benzyl alcohol, p-hydroxy-\u03b1,\u03b1-bis(trifluoromethyl)-", "4-Hydroxy-\u03b1,\u03b1-bis(trifluoromethyl)benzenemethanol", "4-(2,2,2-Trifluoro-1-hydroxy-1-trifluoromethylethyl)phenol", "2-(4-Hydroxyphenyl)hexafluoropropan-2-ol"], "SMILES": "C(C(F)(F)F)(C(F)(F)F)(O)C1=CC=C(O)C=C1", "physical_data": {"Molecular Weight": "260.13", "Molecular Formula": "C9H6F6O2", "Melting Point": "122.5-123.5 \u00b0C"}}