{"cas_no": "836-59-9", "cn_name": "4-[2-(4-\u6eb4\u82ef\u6c27\u57fa)\u4e59\u57fa]\u5417\u5549", "en_name": ["4-[2-(4-Bromophenoxy)ethyl]morpholine", "Morpholine, 4-[2-(4-bromophenoxy)ethyl]-", "Morpholine, 4-[2-(p-bromophenoxy)ethyl]-", "4-[2-(4-Bromophenoxy)ethyl]morpholine", "4-[2-Morpholinoethoxy]phenyl bromide", "N-[2-(4-Bromophenoxy)ethyl]morpholine"], "SMILES": "O(CCN1CCOCC1)C2=CC=C(Br)C=C2", "physical_data": {"Molecular Weight": "286.16", "Molecular Formula": "C12H16BrNO2", "Boiling Point": "147-149 \u00b0C @ Press: 3 Torr"}}