{"cas_no": "836-41-9", "cn_name": "N-(4-\u7532\u6c27\u4e9a\u82c4\u57fa)\u82ef\u80fa", "en_name": ["N-(4-Methoxybenzylidene)aniline", "Benzenamine, N-[(4-methoxyphenyl)methylene]-", "Aniline, N-(p-methoxybenzylidene)-", "N-[(4-Methoxyphenyl)methylene]benzenamine", "(p-Methoxybenzylidene)aniline", "N-(p-Methoxybenzylidene)aniline", "p-Methoxybenzaldehyde anil", "p-Methoxybenzalaniline", "(4-Methoxybenzylidene)aniline", "N-(4-Methoxybenzylidene)aniline", "(4-Methoxyphenylmethylene)(phenyl)amine", "(4-Methoxybenzylidene)phenylamine", "NSC 155535", "N-[(4-Methoxyphenyl)methylene]phenylamine", "N-Phenyl-4-methoxybenzylideneimine"], "SMILES": "C(=NC1=CC=CC=C1)C2=CC=C(OC)C=C2", "physical_data": {"Molecular Weight": "211.26", "Molecular Formula": "C14H13NO", "Melting Point": "63 \u00b0C"}}