{"cas_no": "83647-43-2", "cn_name": "3-\u6eb4-2-\u7532\u57fa\u82ef\u7532\u9187", "en_name": ["3-Bromo-2-methylbenzenemethanol", "Benzenemethanol, 3-bromo-2-methyl-", "3-Bromo-2-methylbenzenemethanol", "3-Bromo-2-methylbenzyl alcohol", "(3-Bromo-2-methylphenyl)methanol"], "SMILES": "C(O)C1=C(C)C(Br)=CC=C1", "physical_data": {"Molecular Weight": "201.06", "Molecular Formula": "C8H9BrO", "Melting Point": "103-104 \u00b0C"}}