{"cas_no": "83649-48-3", "cn_name": "(R)-3-\u6c28\u57fa-3-\u82ef\u57fa\u4e19\u9178\u76d0\u9178\u76d0", "en_name": ["Benzenepropanoic acid, \u03b2-amino-, hydrochloride (1:1), (\u03b2R)-", "Benzenepropanoic acid, \u03b2-amino-, hydrochloride (1:1), (\u03b2R)-", "Benzenepropanoic acid, \u03b2-amino-, hydrochloride, (R)-", "Benzenepropanoic acid, \u03b2-amino-, hydrochloride, (\u03b2R)-", "(3R)-3-Amino-3-phenylpropanoic acid hydrochloride", "(R)-3-Amino-3-phenylpropanoic acid hydrochloride", "(R)-3-Amino-3-phenylpropionic acid hydrochloride"], "SMILES": "C(CC(O)=O)(N)C1=CC=CC=C1.Cl", "physical_data": {"Molecular Weight": "", "Molecular Formula": "C9H11NO2.ClH", "Melting Point": "195-198 \u00b0C"}}