{"cas_no": "83647-42-1", "cn_name": "3-\u6c28\u57fa-2-\u7532\u57fa\u82ef\u7532\u9187", "en_name": ["3-Amino-2-methylbenzyl alcohol", "Benzenemethanol, 3-amino-2-methyl-", "Benzyl alcohol, 3-amino-2-methyl-", "3-Amino-2-methylbenzenemethanol", "3-Amino-2-methylbenzyl alcohol", "2-Methyl-3-hydroxymethylaniline", "(3-Amino-2-methylphenyl)methanol"], "SMILES": "C(O)C1=C(C)C(N)=CC=C1", "physical_data": {"Molecular Weight": "137.18", "Molecular Formula": "C8H11NO", "Melting Point": "106-107 \u00b0C"}}