{"cas_no": "83657-22-1", "cn_name": "\u70ef\u6548\u5511", "en_name": ["Uniconazole", "1H-1,2,4-Triazole-1-ethanol, \u03b2-[(4-chlorophenyl)methylene]-\u03b1-(1,1-dimethylethyl)-, (\u03b2E)-", "1H-1,2,4-Triazole-1-ethanol, \u03b2-[(4-chlorophenyl)methylene]-\u03b1-(1,1-dimethylethyl)-, (E)-(\u00b1)-", "(\u03b2E)-\u03b2-[(4-Chlorophenyl)methylene]-\u03b1-(1,1-dimethylethyl)-1H-1,2,4-triazole-1-ethanol", "Uniconazole", "XE 1019", "Sumagic", "Prunit", "M 13144", "Sumiseven", "XE 1019D", "S 3307D", "S 327D", "S 07", "S 3307", "Majic S 3307D", "Majic", "1H-1,2,4-Triazole-1-ethanol, \u03b2-[(4-chlorophenyl)methylene]-\u03b1-(1,1-dimethylethyl)-, (E)-", "Pentefenzol", "(E)-1-(4-Chlorophenyl)-4,4-dimethyl-2-(1,2,4-triazol-1-yl)-1-penten-3-ol", "(\u03b2E)-\u03b2-[(4-Chlorophenyl)methylene]-\u03b1-(1,1-dimethylethyl)-1H-1,2,4-triazole-1-ethanol"], "SMILES": "C(=CC1=CC=C(Cl)C=C1)(C(C(C)(C)C)O)N2C=NC=N2", "physical_data": {"Molecular Weight": "291.78", "Molecular Formula": "C15H18ClN3O", "Melting Point": "153 \u00b0C"}}