{"cas_no": "83657-17-4", "cn_name": "UNICONAZOLE", "en_name": ["Uniconazole P", "1H-1,2,4-Triazole-1-ethanol, \u03b2-[(4-chlorophenyl)methylene]-\u03b1-(1,1-dimethylethyl)-, (\u03b1S,\u03b2E)-", "1H-1,2,4-Triazole-1-ethanol, \u03b2-[(4-chlorophenyl)methylene]-\u03b1-(1,1-dimethylethyl)-, [S-(E)]-", "(\u03b1S,\u03b2E)-\u03b2-[(4-Chlorophenyl)methylene]-\u03b1-(1,1-dimethylethyl)-1H-1,2,4-triazole-1-ethanol", "Uniconazole P", "(S)-S 3307", "(S)-Uniconazole", "Lomica", "Sunny", "Sumiseven P"], "SMILES": "C(=CC1=CC=C(Cl)C=C1)(C(C(C)(C)C)O)N2C=NC=N2", "physical_data": {"Molecular Weight": "291.78", "Molecular Formula": "C15H18ClN3O", "Melting Point": "153 \u00b0C"}}