{"cas_no": "837-18-3", "cn_name": "N-(\u82c4\u57fa)\u82ef\u78fa\u9170\u80fa", "en_name": ["N-(Phenylmethyl)benzenesulfonamide", "Benzenesulfonamide, N-(phenylmethyl)-", "Benzenesulfonamide, N-benzyl-", "N-(Phenylmethyl)benzenesulfonamide", "N-Benzylbenzenesulfonamide", "NSC 25016", "N-Benzenesulfonyl-N-benzylamine", "AZVIII 44D"], "SMILES": "S(NCC1=CC=CC=C1)(=O)(=O)C2=CC=CC=C2", "physical_data": {"Molecular Weight": "247.31", "Molecular Formula": "C13H13NO2S", "Melting Point": "85-86 \u00b0C"}}