{"cas_no": "83729-01-5", "cn_name": "\u4e39\u915a A", "en_name": ["Salvinorin", "2H-Naphtho[2,1-c]pyran-7-carboxylic acid, 9-(acetyloxy)-2-(3-furanyl)dodecahydro-6a,10b-dimethyl-4,10-dioxo-, methyl ester, (2S,4aR,6aR,7R,9S,10aS,10bR)-", "2H-Naphtho[2,1-c]pyran-7-carboxylic acid, 9-(acetyloxy)-2-(3-furanyl)dodecahydro-6a,10b-dimethyl-4,10-dioxo-, methyl ester, [2S-(2\u03b1,4a\u03b1,6a\u03b2,7\u03b2,9\u03b2,10a\u03b1,10b\u03b2)]-", "Salvinorin", "Divinorin A", "Salvinorin A", "(-)-Salvinorin A"], "SMILES": "CC12C3C(C)(C(C(OC)=O)CC(OC(C)=O)C3=O)CCC1C(=O)OC(C2)C=4C=COC4", "physical_data": {"Molecular Weight": "432.46", "Molecular Formula": "C23H28O8", "Melting Point": "235-238 \u00b0C"}}