{"cas_no": "83732-75-6", "cn_name": "2-(1-METHYL-1H-PYRROL-2-YL)ETHYLAMINE", "en_name": ["1-Methyl-1H-pyrrole-2-ethanamine", "1H-Pyrrole-2-ethanamine, 1-methyl-", "1-Methyl-1H-pyrrole-2-ethanamine", "2-(2-Aminoethyl)-1-methylpyrrole", "2-(2-Aminoethyl)-N-methylpyrrole", "1-Methyl-2-(2-aminoethyl)pyrrole", "2-(1-Methylpyrrol-2-yl)ethylamine", "2-(2-Aminoethyl)-1-methyl-1H-pyrrole", "2-(1-Methyl-1H-pyrrol-2-yl)ethanamine", "2-(1-Methyl-1H-pyrrol-2-yl)ethan-1-amine", "2-(1-Methylpyrrol-2-yl)ethanamine"], "SMILES": "C(CN)C=1N(C)C=CC1", "physical_data": {"Molecular Weight": "124.18", "Molecular Formula": "C7H12N2", "Boiling Point": "70-71 \u00b0C @ Press: 1.5 Torr"}}