{"cas_no": "83734-43-4", "cn_name": "2-\u7f9f\u57fa5-\u55b9\u5549\u7532\u9178", "en_name": ["1,2-Dihydro-2-oxo-5-quinolinecarboxylic acid", "5-Quinolinecarboxylic acid, 1,2-dihydro-2-oxo-", "1,2-Dihydro-2-oxo-5-quinolinecarboxylic acid", "5-Carboxycarbostyril", "1,2-Dihydro-2-oxoquinoline-5-carboxylic acid", "2-Hydroxyquinoline-5-carboxylic acid", "2-Oxo-1H-quinoline-5-carboxylic acid", "2-Oxo-1,2-dihydroquinoline-5-carboxylic acid"], "SMILES": "C(O)(=O)C1=C2C(NC(=O)C=C2)=CC=C1", "physical_data": {"Molecular Weight": "189.17", "Molecular Formula": "C10H7NO3", "Melting Point": "214-215 \u00b0C (decomp)"}}