{"cas_no": "837392-62-8", "cn_name": "1-\u7532\u57fa\u5432\u54da-5-\u787c\u9178\u9891\u54ea\u9187\u916f", "en_name": ["1-Methyl-5-(4,4,5,5-tetramethyl-1,3,2-dioxaborolan-2-yl)-1H-indole", "1H-Indole, 1-methyl-5-(4,4,5,5-tetramethyl-1,3,2-dioxaborolan-2-yl)-", "1-Methyl-5-(4,4,5,5-tetramethyl-1,3,2-dioxaborolan-2-yl)-1H-indole", "4,4,5,5-Tetramethyl-2-(1-methyl-1H-indol-5-yl)-1,3,2-dioxaborolane", "1-Methyl-5-(4,4,5,5-tetramethyl-1,3,2-dioxaborolan-2-yl)indole", "4,4,5,5-Tetramethyl-2-(1-methyl-5-indolyl)-1,3,2-dioxaborolane", "1-Methylindole-5-boronic acid pinacol ester"], "SMILES": "CC1(C)OB(C=2C=C3C(=CC2)N(C)C=C3)OC1(C)C", "physical_data": {"Molecular Weight": "257.14", "Molecular Formula": "C15H20BNO2", "Melting Point": "112 \u00b0C"}}