{"cas_no": "83763-48-8", "cn_name": "2-\u6c28\u57fa-4-N-(beta-\u7f9f\u4e59\u57fa)\u6c28\u57fa\u82ef\u7532\u919a\u786b\u9178\u76d0", "en_name": ["2-Amino-4-[(2-hydroxyethyl)amino]anisole sulfate", "Ethanol, 2-[(3-amino-4-methoxyphenyl)amino]-, sulfate (1:1)", "Ethanol, 2-[(3-amino-4-methoxyphenyl)amino]-, sulfate (1:1) (salt)", "2-Amino-4-[(2-hydroxyethyl)amino]anisole sulfate", "2-Amino-4-(\u03b2-hydroxyethylamino)anisole sulfate"], "SMILES": "S(=O)(=O)(O)O.N(CCO)C1=CC(N)=C(OC)C=C1", "physical_data": {"Molecular Weight": "", "Molecular Formula": "C9H14N2O2.H2O4S", "Melting Point": "148-149 \u00b0C"}}