{"cas_no": "83764-65-2", "cn_name": "\u54cc\u55b9", "en_name": ["Quinoline, 4,4\u2032-(1,3-propanediyldi-4,1-piperazinediyl)bis[7-chloro-", "Quinoline, 4,4\u2032-(1,3-propanediyldi-4,1-piperazinediyl)bis[7-chloro-", "Quinoline, 4,4\u2032-(trimethylenedi-4,1-piperazinediyl)bis[7-chloro-", "4,4\u2032-(1,3-Propanediyldi-4,1-piperazinediyl)bis[7-chloroquinoline]", "Piperaquinoline", "Piperaquine"], "SMILES": "ClC1=CC2=C(C(=CC=N2)N3CCN(CCCN4CCN(CC4)C=5C6=C(C=C(Cl)C=C6)N=CC5)CC3)C=C1", "physical_data": {"Molecular Weight": "535.51", "Molecular Formula": "C29H32Cl2N6", "Melting Point": "198-200 \u00b0C"}}