{"cas_no": "838-57-3", "cn_name": "\u5bf9\u785d\u57fa\u82ef\u7532\u9170\u918b\u9178\u4e59\u916f", "en_name": ["Ethyl (4-nitrobenzoyl)acetate", "Benzenepropanoic acid, 4-nitro-\u03b2-oxo-, ethyl ester", "Acetic acid, (p-nitrobenzoyl)-, ethyl ester", "Ethyl (p-nitrobenzoyl)acetate", "(p-Nitrobenzoyl)acetic acid ethyl ester", "Ethyl (4-nitrobenzoyl)acetate", "(4-Nitrobenzoyl)acetic acid ethyl ester", "Ethyl 3-(4-nitrophenyl)-3-oxopropanoate", "4-Nitro-\u03b2-oxobenzenepropanoic acid ethyl ester", "NSC 62134", "Ethyl 2-(4-nitrobenzoyl)acetate", "Ethyl 3-(4-nitrophenyl)-3-oxopropionate", "Ethyl 3-oxo-3-(4-nitrophenyl)propanoate", "3-Oxo-3-(4-nitrophenyl)propionic acid ethyl ester", "3-(4-Nitrophenyl)-3-oxopropionic acid ethyl ester"], "SMILES": "C(CC(OCC)=O)(=O)C1=CC=C(N(=O)=O)C=C1", "physical_data": {"Molecular Weight": "237.21", "Molecular Formula": "C11H11NO5", "Melting Point": "73-74 \u00b0C"}}