{"cas_no": "838-88-0", "cn_name": "4,4'-\u4e8c\u6c28\u57fa-3,3'-\u4e8c\u7532\u57fa\u8054\u82ef\u57fa\u7532\u70f7", "en_name": ["4,4\u2032-Diamino-3,3\u2032-dimethyldiphenylmethane", "Benzenamine, 4,4\u2032-methylenebis[2-methyl-", "o-Toluidine, 4,4\u2032-methylenedi-", "4,4\u2032-Methylenebis[2-methylbenzenamine]", "3,3\u2032-Dimethyl-4,4\u2032-diaminodiphenylmethane", "2,2\u2032-Dimethyl-4,4\u2032-methylenedianiline", "4,4\u2032-Diamino-3,3\u2032-dimethyldiphenylmethane", "4,4\u2032-Methylenedi-o-toluidine", "Bis(3-methyl-4-aminophenyl)methane", "4,4\u2032-Methylenebis[2-methylaniline]", "Kayahard MDT", "4,4\u2032-Methylenebis(o-toluidine)", "Kayabond C 100", "Di(3-methyl-4-aminophenyl)methane", "4,4\u2032-Amino-3,3\u2032-dimethyldiphenylmethane", "NSC 37146", "Bis(4-amino-3-methylphenyl)methane"], "SMILES": "C(C1=CC(C)=C(N)C=C1)C2=CC(C)=C(N)C=C2", "physical_data": {"Molecular Weight": "226.32", "Molecular Formula": "C15H18N2", "Melting Point": "158 \u00b0C"}}