{"cas_no": "838-96-0", "cn_name": "4-\u82c4\u6c27\u57fa\u82ef\u57fa\u4e59\u8148", "en_name": ["4-(Phenylmethoxy)benzeneacetonitrile", "Benzeneacetonitrile, 4-(phenylmethoxy)-", "Acetonitrile, [p-(benzyloxy)phenyl]-", "4-(Phenylmethoxy)benzeneacetonitrile", "p-(Benzyloxy)benzyl cyanide", "4-(Benzyloxy)phenylacetonitrile", "1-[4-(Benzyloxy)phenyl]acetonitrile", "2-[4-(Benzyloxy)phenyl]acetonitrile", "2-(4-Phenylmethoxyphenyl)acetonitrile"], "SMILES": "O(CC1=CC=CC=C1)C2=CC=C(CC#N)C=C2", "physical_data": {"Molecular Weight": "223.27", "Molecular Formula": "C15H13NO", "Boiling Point": "170-173 \u00b0C @ Press: 0.125 Torr", "Melting Point": "68.5-69 \u00b0C"}}