{"cas_no": "838-07-3", "cn_name": "5-\u7532\u57fa-2'-\u8131\u6c27\u80de\u82f7", "en_name": ["5-Methyl-2\u2032-deoxycytidine", "Cytidine, 2\u2032-deoxy-5-methyl-", "2\u2032-Deoxy-5-methylcytidine", "5-Methyl-2\u2032-deoxycytidine", "5-Methyldeoxycytidine", "2\u2032-Deoxy-5\u2032-methylcytidine"], "SMILES": "O=C1N(C2OC(CO)C(O)C2)C=C(C)C(N)=N1", "physical_data": {"Molecular Weight": "241.24", "Molecular Formula": "C10H15N3O4", "Melting Point": "198-199 \u00b0C"}}