{"cas_no": "838-41-5", "cn_name": "2,4-\u4e8c\u82ef\u5641\u5511", "en_name": ["2,4-Diphenyloxazole", "Oxazole, 2,4-diphenyl-", "2,4-Diphenyloxazole", "NSC 126384", "2,4-Diphenyl-1,3-oxazole"], "SMILES": "C=1(N=C(OC1)C2=CC=CC=C2)C3=CC=CC=C3", "physical_data": {"Molecular Weight": "221.25", "Molecular Formula": "C15H11NO", "Boiling Point": "339 \u00b0C", "Melting Point": "103 \u00b0C"}}