{"cas_no": "838-85-7", "cn_name": "\u78f7\u9178\u4e8c\u82ef\u916f", "en_name": ["Diphenyl phosphate", "Phosphoric acid, diphenyl ester", "Diphenyl phosphate", "Phenyl phosphate ((PhO)2(HO)PO)", "Diphenyl hydrogen phosphate", "NSC 6518"], "SMILES": "O(P(OC1=CC=CC=C1)(=O)O)C2=CC=CC=C2", "physical_data": {"Molecular Weight": "250.19", "Molecular Formula": "C12H11O4P", "Melting Point": "67-68 \u00b0C"}}