{"cas_no": "83846-48-4", "cn_name": "2-\u6c2f-4-\u5432\u54da-\u7532\u57fa\u82ef", "en_name": ["2-Chloro-4-iodo-1-methylbenzene", "Benzene, 2-chloro-4-iodo-1-methyl-", "Toluene, 2-chloro-4-iodo-", "2-Chloro-4-iodo-1-methylbenzene", "2-Chloro-4-iodotoluene", "1-Chloro-5-iodo-2-methylbenzene"], "SMILES": "ClC1=C(C)C=CC(I)=C1", "physical_data": {"Molecular Weight": "252.48", "Molecular Formula": "C7H6ClI", "Boiling Point": "123-124 \u00b0C @ Press: 20 Torr", "Melting Point": "22 \u00b0C"}}