{"cas_no": "83846-85-9", "cn_name": "4-\u82ef\u7532\u9170\u57fa-4'-\u7532\u57fa-\u4e8c\u82ef\u786b\u919a", "en_name": ["4-Benzoyl-4\u2032-methyldiphenyl sulfide", "Methanone, [4-[(4-methylphenyl)thio]phenyl]phenyl-", "[4-[(4-Methylphenyl)thio]phenyl]phenylmethanone", "Quantacure BMS", "4-Benzoyl-4\u2032-methyldiphenyl sulfide", "Kayacure BMS", "Phenyl (p-tolylthio)phenyl ketone", "4-(4-Methylphenylthio)benzophenone", "4-(p-Tolylthio)benzophenone", "4-(4-Tolylthio)benzophenone", "4-Benzoyl-4\u2032-methyldiphenyl thioether", "Speedcure BMS", "SB-PI 705", "Runtecure 1030", "Lunacure BMS", "BMS", "Chemcure BMS", "[4-(4-Methylphenyl)sulfanylphenyl]-phenylmethanone", "Omnirad BMS"], "SMILES": "C(=O)(C1=CC=C(SC2=CC=C(C)C=C2)C=C1)C3=CC=CC=C3", "physical_data": {"Molecular Weight": "304.41", "Molecular Formula": "C20H16OS", "Melting Point": "123-125 \u00b0C"}}