{"cas_no": "83857-96-9", "cn_name": "\u54aa\u5511\u919b", "en_name": ["2-Butyl-4-chloro-5-formylimidazole", "1H-Imidazole-4-carboxaldehyde, 2-butyl-5-chloro-", "2-Butyl-5-chloro-1H-imidazole-4-carboxaldehyde", "2-Butyl-4-chloro-5-formylimidazole", "2-Butyl-5-chloroimidazole-4-carboxaldehyde", "2-Butyl-4-chloroimidazole-5-carboxaldehyde", "2-Butyl-5-formyl-4-chloroimidazole", "2-n-Butyl-4-chloro-5-imidazolecarboxaldehyde", "2-Butyl-4-chloroimidazole-5-carbaldehyde", "2-n-Butyl-5-chlorimidazole-4-carbaldehyde", "2-Butyl-5-chloroimidazole-4-carbaldehyde", "2-Butyl-4-chloro-1H-imidazolyl-5-carboxaldehyde", "2-Butyl-5-chloro-3H-imidazole-4-carboxaldehyde", "2-Butyl-4-chloro-1H-imidazole-5-carboxaldehyde", "4-Chloro-2-n-butylimidazole-5-carboxaldehyde", "2-Butyl-5-chloro-4-formylimidazole", "2-Butyl-4-chloro-1H-imidazole-5-carbaldehyde", "2-Butyl-5-chloro-1H-imidazole-4-carbaldehyde", "2-n-Butyl-4-chloro-5 formyl imidazole", "2-Butyl-5-chloro-1H-imidazole-4-carboaldehyde", "2n-Butyl-4-chloro-5-formylimidazole"], "SMILES": "C(CCC)C=1NC(C=O)=C(Cl)N1", "physical_data": {"Molecular Weight": "186.64", "Molecular Formula": "C8H11ClN2O", "Melting Point": "93 \u00b0C"}}