{"cas_no": "83881-51-0", "cn_name": "\u897f\u66ff\u5229\u55ea", "en_name": ["Cetirizine", "Acetic acid, 2-[2-[4-[(4-chlorophenyl)phenylmethyl]-1-piperazinyl]ethoxy]-", "Acetic acid, [2-[4-[(4-chlorophenyl)phenylmethyl]-1-piperazinyl]ethoxy]-", "2-[2-[4-[(4-Chlorophenyl)phenylmethyl]-1-piperazinyl]ethoxy]acetic acid", "Cetirizine", "(\u00b1)-Cetirizine", "Cetirizin-Teva", "Piriteze", "Rigix", "Allamine", "Cetrin", "Zetrinal", "(2-[4-[(4-Chloro-phenyl)-phenyl-methyl]-piperazin-1-yl]-ethoxy)-acetic acid", "MeSH ID: D017332"], "SMILES": "C(N1CCN(CCOCC(O)=O)CC1)(C2=CC=C(Cl)C=C2)C3=CC=CC=C3", "physical_data": {"Molecular Weight": "388.89", "Molecular Formula": "C21H25ClN2O3", "Melting Point": "112.5 \u00b0C"}}