{"cas_no": "83881-52-1", "cn_name": "\u76d0\u9178\u897f\u66ff\u5229\u55ea", "en_name": ["Cetirizine hydrochloride", "Acetic acid, 2-[2-[4-[(4-chlorophenyl)phenylmethyl]-1-piperazinyl]ethoxy]-, hydrochloride (1:2)", "Acetic acid, [2-[4-[(4-chlorophenyl)phenylmethyl]-1-piperazinyl]ethoxy]-, dihydrochloride", "Cetirizine hydrochloride", "UCB-P 071", "Cetirizine dihydrochloride", "Alercet", "Cetrine", "Cetrizet", "Cistamine", "Histazine", "Nosemin", "Alerid", "Cesta", "Ryzen", "Sancotec", "Selitex", "Triz", "Virlix", "Zeran", "Zirtin", "Zyrtec", "Zyrzine", "Alerlisin", "Formistin", "Zirtek", "Zyrlex", "Reactine", "Riztec", "P 071", "Zirtec", "Cetrak", "Cetiriz", "Tomazine", "Epirizine", "Histazine-1", "2-(2-[4-[(4-Chlorophenyl)(phenyl)methyl]piperazin-1-yl]ethoxy)acetic acid dihydrochloride"], "SMILES": "C(N1CCN(CCOCC(O)=O)CC1)(C2=CC=C(Cl)C=C2)C3=CC=CC=C3.Cl", "physical_data": {"Molecular Weight": "", "Molecular Formula": "C21H25ClN2O3.2ClH", "Melting Point": "225 \u00b0C"}}