{"cas_no": "83883-25-4", "cn_name": "4-(6-\u7f9f\u57fa\u5df1\u6c27\u57fa)\u82ef\u7532\u9178", "en_name": ["4-[(6-Hydroxyhexyl)oxy]benzoic acid", "Benzoic acid, 4-[(6-hydroxyhexyl)oxy]-", "4-[(6-Hydroxyhexyl)oxy]benzoic acid", "4-(6-Hydroxyhexyloxy)benzoic acid", "p-[(6-Hydroxyhexyl)oxy]benzoic acid", "4-(6-Hydroxyhex-1-yloxy)benzoic acid"], "SMILES": "O(CCCCCCO)C1=CC=C(C(O)=O)C=C1", "physical_data": {"Molecular Weight": "238.28", "Molecular Formula": "C13H18O4", "Melting Point": "139-140 \u00b0C"}}