{"cas_no": "83883-26-5", "cn_name": "4-(6-(\u4e19\u70ef\u9170\u6c27\u57fa)\u5df1\u6c27\u57fa)\u82ef\u7532\u9178", "en_name": ["4-[[6-[(1-Oxo-2-propen-1-yl)oxy]hexyl]oxy]benzoic acid", "Benzoic acid, 4-[[6-[(1-oxo-2-propen-1-yl)oxy]hexyl]oxy]-", "Benzoic acid, 4-[[6-[(1-oxo-2-propenyl)oxy]hexyl]oxy]-", "4-[[6-[(1-Oxo-2-propen-1-yl)oxy]hexyl]oxy]benzoic acid", "4-[[6-(Acryloyloxy)hexyl]oxy]benzoic acid", "4-(\u03c9-Acryloyloxyhexyloxy)benzoic acid", "4-(Acryloyloxyhexyloxy)benzoic acid", "4-(6-Acryloyloxyhex-1-yloxy)benzoic acid", "4-[[6-(Acryloxy)hexyl]oxy]benzoic acid", "6OBA", "4-(6-Acryloylhex-1-yloxy)benzoic acid", "4-(6-Propenoyloxyhexyloxy)benzoic acid", "4-(6\u2032-Acryloyloxyhexyloxy)benzoic acid", "6-(4-Carboxyphenoxy)-n-hexyl acrylate"], "SMILES": "O(CCCCCCOC(C=C)=O)C1=CC=C(C(O)=O)C=C1", "physical_data": {"Molecular Weight": "292.33", "Molecular Formula": "C16H20O5", "Melting Point": "92-93 \u00b0C"}}