{"cas_no": "83881-47-4", "cn_name": "2-(2-\u6c2f\u4e59\u6c27\u57fa)\u4e59\u9178\u7532\u916f", "en_name": ["Methyl 2-(2-chloroethoxy)acetate", "Acetic acid, 2-(2-chloroethoxy)-, methyl ester", "Acetic acid, (2-chloroethoxy)-, methyl ester", "Methyl 2-(2-chloroethoxy)acetate", "Methyl (2-chloroethoxy)acetate", "Methyl 2-(2\u2032-chloroethoxy)acetate", "(2-Chloro-ethoxy)-acetic acid methyl ester"], "SMILES": "C(COCCCl)(OC)=O", "physical_data": {"Molecular Weight": "152.58", "Molecular Formula": "C5H9ClO3", "Boiling Point": "98-99 \u00b0C @ Press: 19 Torr", "Density": "1.2081 g/cm\u00b3 @ Temp: 20 \u00b0C"}}