{"cas_no": "83890-22-6", "cn_name": "2,2-\u4e8c\u7532\u57fa-1,3,6,9,12,15-\u516d\u6c27\u6742-2-\u7845\u6742\u5341\u4e03\u70f7", "en_name": ["Dimethylsila-17-crown-6", "1,3,6,9,12,15-Hexaoxa-2-silacycloheptadecane, 2,2-dimethyl-", "2,2-Dimethyl-1,3,6,9,12,15-hexaoxa-2-silacycloheptadecane", "Dimethylsila-17-crown-6"], "SMILES": "C[Si]1(C)OCCOCCOCCOCCOCCO1", "physical_data": {"Molecular Weight": "294.42", "Molecular Formula": "C12H26O6Si", "Boiling Point": "168-170 \u00b0C @ Press: 0.3 Torr", "Density": "1.090 g/cm\u00b3"}}