{"cas_no": "839-90-7", "cn_name": "1,3,5-\u4e09(2-\u7f9f\u4e59\u57fa)\u6c30\u5c3f\u9178", "en_name": ["Tris(hydroxyethyl) isocyanurate", "1,3,5-Triazine-2,4,6(1H,3H,5H)-trione, 1,3,5-tris(2-hydroxyethyl)-", "s-Triazine-2,4,6(1H,3H,5H)-trione, 1,3,5-tris(2-hydroxyethyl)-", "s-Triazine-2,4,6(1H,3H,5H)-trione, tris(2-hydroxyethyl)-", "1,3,5-Tris(2-hydroxyethyl)-1,3,5-triazine-2,4,6(1H,3H,5H)-trione", "Tris(2-hydroxyethyl) isocyanurate", "Tris(\u03b2-hydroxyethyl) isocyanurate", "Tris(hydroxyethyl) isocyanurate", "Isocyanuric acid tris(2-hydroxyethyl) ester", "1,3,5-Tris(2-hydroxyethyl) isocyanurate", "N,N\u2032,N\u2032\u2032-Tris(2-hydroxyethyl) isocyanurate", "THEIC", "1,3,5-Tris(2-hydroxyethyl)cyanuric acid", "NF-SE", "Tanac", "NSC 11680", "THEIC-G", "1,3,5-Tris(2-hydroxyethyl)-1,3,5-triazine-2,4,6-trione", "Theic P", "Theic PW", "Trihydroxyethyl isocyanurate", "THEIC-A", "Tris(2-hydroxyethyl)isocyanuric acid", "Tris(2-hydroxyethyl)isocyanurate", "1,3,5-Tris(2-hydroxyethyl)-1,3,5-triazinane-2,4,6-trione", "Tanac P", "1,3,5-Tris(2-hydroxyethyl)-S-triazine-2,4,6-trione", "JH-39"], "SMILES": "C(CO)N1C(=O)N(CCO)C(=O)N(CCO)C1=O", "physical_data": {"Molecular Weight": "261.23", "Molecular Formula": "C9H15N3O6", "Melting Point": "135 \u00b0C"}}