{"cas_no": "83902-02-7", "cn_name": "2,6-\u4e8c\u7532\u57fa\u82c4\u57fa\u6eb4", "en_name": ["2-(Bromomethyl)-1,3-dimethylbenzene", "Benzene, 2-(bromomethyl)-1,3-dimethyl-", "2-(Bromomethyl)-1,3-dimethylbenzene", "2,6-Dimethylbenzyl bromide"], "SMILES": "C(Br)C1=C(C)C=CC=C1C", "physical_data": {"Molecular Weight": "199.09", "Molecular Formula": "C9H11Br", "Melting Point": "37.5-38.5 \u00b0C"}}