{"cas_no": "83905-01-5", "cn_name": "\u963f\u5947\u9709\u7d20", "en_name": ["Azithromycin", "1-Oxa-6-azacyclopentadecan-15-one, 13-[(2,6-dideoxy-3-C-methyl-3-O-methyl-\u03b1-L-ribo-hexopyranosyl)oxy]-2-ethyl-3,4,10-trihydroxy-3,5,6,8,10,12,14-heptamethyl-11-[[3,4,6-trideoxy-3-(dimethylamino)-\u03b2-D-xylo-hexopyranosyl]oxy]-, (2R,3S,4R,5R,8R,10R,11R,12S,13S,14R)-", "1-Oxa-6-azacyclopentadecan-15-one, 13-[(2,6-dideoxy-3-C-methyl-3-O-methyl-\u03b1-L-ribo-hexopyranosyl)oxy]-2-ethyl-3,4,10-trihydroxy-3,5,6,8,10,12,14-heptamethyl-11-[[3,4,6-trideoxy-3-(dimethylamino)-\u03b2-D-xylo-hexopyranosyl]oxy]-, [2R-(2R*,3S*,4R*,5R*,8R*,10R*,11R*,12S*,13S*,14R*)]-", "(2R,3S,4R,5R,8R,10R,11R,12S,13S,14R)-13-[(2,6-Dideoxy-3-C-methyl-3-O-methyl-\u03b1-L-ribo-hexopyranosyl)oxy]-2-ethyl-3,4,10-trihydroxy-3,5,6,8,10,12,14-heptamethyl-11-[[3,4,6-trideoxy-3-(dimethylamino)-\u03b2-D-xylo-hexopyranosyl]oxy]-1-oxa-6-azacyclopentadecan-15-one", "XZ 405", "CP 62993", "Azithromycin", "Zithromax", "Zithromac", "Aruzilina", "Azenil", "Arzomicin", "Azadose", "Azitrocin", "Azitromax", "Aziwok", "Aztrin", "Setron", "Tobil", "Tromix", "Ultreon", "Zeto", "Zifin", "Zistic", "Zitrim", "Zitromax", "Azimin", "Azithral", "Azomycin", "Azomycin (macrolide)", "Sumamed", "9-Deoxo-9a-methyl-9a-aza-9a-homoetrythromycin A", "Trozocina", "N-Methyl-11-aza-10-deoxo-10-dihydroerythromycin A", "XZ 450", "Zythromax", "Azithromycin A", "Sumazid", "Zi-Factor", "Azatril", "Zithromax IV", "Macrozit", "Hemomycin", "Aziromycin", "Aziwin", "Azee", "Azisara", "Xithron", "Xithrone", "Durasite", "AzaSite", "Zitrocin", "Auricin", "Auricin (polyketide antibiotic)", "Sanhe", "Shimen", "Tridosil", "Azithrocin", "AZM", "Macromycin", "Zmax", "MeSH ID: D017963"], "SMILES": "O(C1C(C)C(OC2CC(OC)(C)C(O)C(C)O2)C(C)C(=O)OC(CC)C(C)(O)C(O)C(C)N(C)CC(C)CC1(C)O)C3C(O)C(N(C)C)CC(C)O3", "physical_data": {"Molecular Weight": "748.98", "Molecular Formula": "C38H72N2O12", "Melting Point": "113-115 \u00b0C"}}