{"cas_no": "83919-23-7", "cn_name": "\u7ce0\u9178\u83ab\u7c73\u677e", "en_name": ["Mometasone furoate", "Pregna-1,4-diene-3,20-dione, 9,21-dichloro-17-[(2-furanylcarbonyl)oxy]-11-hydroxy-16-methyl-, (11\u03b2,16\u03b1)-", "(11\u03b2,16\u03b1)-9,21-Dichloro-17-[(2-furanylcarbonyl)oxy]-11-hydroxy-16-methylpregna-1,4-diene-3,20-dione", "Mometasone furoate", "Sch 32088", "Nasonex", "Mometasone 17-(2-furoate)", "Elocon", "Elomet", "Elocom", "Ecural", "Asmanex", "Asmanex Twisthaler", "Twisthaler", "Monovo", "Ovixan", "LYR 210"], "SMILES": "O(C(=O)C1=CC=CO1)C2(C(CCl)=O)C3(C)C(CC2C)C4C(Cl)(C(O)C3)C5(C)C(CC4)=CC(=O)C=C5", "physical_data": {"Molecular Weight": "521.43", "Molecular Formula": "C27H30Cl2O6", "Melting Point": "218-220 \u00b0C"}}