{"cas_no": "83935-45-9", "cn_name": "N-(4-\u4e59\u9170\u82ef\u57fa)-2,5-\u4e8c\u7532\u57fa\u5421\u54af", "en_name": ["1-[4-(2,5-Dimethyl-1H-pyrrol-1-yl)phenyl]ethanone", "Ethanone, 1-[4-(2,5-dimethyl-1H-pyrrol-1-yl)phenyl]-", "1-[4-(2,5-Dimethyl-1H-pyrrol-1-yl)phenyl]ethanone", "4-(2,5-Dimethylpyrrol-1-yl)acetophenone", "1-(4-Acetylphenyl)-2,5-dimethylpyrrole", "1-(4-Acetylphenyl)-2,5-dimethyl-1H-pyrrole", "1-[4-(2,5-Dimethyl-1H-pyrrol-1-yl)phenyl]ethan-1-one", "1-[4-(2,5-Dimethyl-pyrrol-1-yl)-phenyl]-ethanone", "1-[4-(2,5-Dimethylpyrrol-1-yl)phenyl]ethanone"], "SMILES": "CC=1N(C2=CC=C(C(C)=O)C=C2)C(C)=CC1", "physical_data": {"Molecular Weight": "213.27", "Molecular Formula": "C14H15NO", "Melting Point": "112-113 \u00b0C"}}