{"cas_no": "84-02-6", "cn_name": "\u4e19\u6c2f\u62c9\u55ea", "en_name": ["Prochlorperazine maleate", "10H-Phenothiazine, 2-chloro-10-[3-(4-methyl-1-piperazinyl)propyl]-, (2Z)-2-butenedioate (1:2)", "Phenothiazine, 2-chloro-10-[3-(4-methyl-1-piperazinyl)propyl]-, maleate (1:2)", "10H-Phenothiazine, 2-chloro-10-[3-(4-methyl-1-piperazinyl)propyl]-, (Z)-2-butenedioate (1:2)", "Phenothiazine, 2-chloro-10-[3-(4-methyl-1-piperazinyl)propyl]-, dimaleate", "2-Chloro-10-[3-(4-methyl-1-piperazinyl)propyl]phenothiazine dimaleate", "Pasotomin", "Stemetil dimaleate", "Prochloroperazine dimaleate", "Meterazin maleate", "Prochlorperazine maleate", "Emetiral", "Prochlorperazine dimaleate", "Compazine", "Stemetil", "Prochlorperazine hydrogen maleate", "Vertigon", "Buccastem", "2-Chloro-10-(3-(4-methylpiperazin-1-yl)propyl)-10H-phenothiazine dimaleate"], "SMILES": "C(CCN1CCN(C)CC1)N2C=3C(SC=4C2=CC=CC4)=CC=C(Cl)C3.C(=CC(O)=O)C(O)=O", "physical_data": {"Molecular Weight": "", "Molecular Formula": "C20H24ClN3S.2C4H4O4", "Melting Point": "228 \u00b0C"}}