{"cas_no": "84-15-1", "cn_name": "\u90bb\u4e8c\u82ef\u57fa\u82ef", "en_name": ["o-Terphenyl", "1,1\u2032:2\u2032,1\u2032\u2032-Terphenyl", "o-Terphenyl", "1,1\u2032-Biphenyl, 2-phenyl-", "1,2-Diphenylbenzene", "NSC 6809", "2-Phenyl-1,1\u2032-biphenyl"], "SMILES": "C1(=C(C=CC=C1)C2=CC=CC=C2)C3=CC=CC=C3", "physical_data": {"Molecular Weight": "230.30", "Molecular Formula": "C18H14", "Boiling Point": "332 \u00b0C @ Press: 760 Torr", "Melting Point": "56.2 \u00b0C", "Density": "1.1 g/cm\u00b3"}}