{"cas_no": "84-19-5", "cn_name": "\u918b\u9178\u53cc\u70ef\u96cc\u915a", "en_name": ["Phenol, 4,4\u2032-(1,2-diethylidene-1,2-ethanediyl)bis-, 1,1\u2032-diacetate", "Phenol, 4,4\u2032-(1,2-diethylidene-1,2-ethanediyl)bis-, 1,1\u2032-diacetate", "Phenol, 4,4\u2032-(diethylideneethylene)di-, diacetate", "Phenol, 4,4\u2032-(1,2-diethylidene-1,2-ethanediyl)bis-, diacetate", "3,4-Bis(p-acetoxyphenyl)-2,4-hexadiene", "Dienestrol diacetate", "Farmacyrol", "Retalon-Oral", "Lipamone", "NSC 81279"], "SMILES": "C(C(=CC)C1=CC=C(OC(C)=O)C=C1)(=CC)C2=CC=C(OC(C)=O)C=C2", "physical_data": {"Molecular Weight": "350.41", "Molecular Formula": "C22H22O4", "Melting Point": "119-120 \u00b0C"}}