{"cas_no": "84-12-8", "cn_name": "\u83f2\u4e8c\u5576\u916e", "en_name": ["4,7-Phenanthroline-5,6-dione", "4,7-Phenanthroline-5,6-dione", "Phenanthrolinedione", "Enthobex", "Entobex", "Phanquinone", "4,7-Phenanthroline-5,6-quinone", "Phanquone", "Phanquinonum", "11925C", "CIBA 11925", "Entronon", "Phanchinone"], "SMILES": "O=C1C=2C(C=3C(C1=O)=NC=CC3)=CC=CN2", "physical_data": {"Molecular Weight": "210.19", "Molecular Formula": "C12H6N2O2", "Melting Point": "295 \u00b0C (decomp)"}}