{"cas_no": "84-17-3", "cn_name": "2,3-\u4e8c\u82ef\u915a\u4e01\u4e8c\u70ef", "en_name": ["Dienestrol", "Phenol, 4,4\u2032-(1,2-diethylidene-1,2-ethanediyl)bis-", "Phenol, 4,4\u2032-(diethylideneethylene)di-", "4,4\u2032-(1,2-Diethylidene-1,2-ethanediyl)bis[phenol]", "3,4-Bis(p-hydroxyphenyl)-2,4-hexadiene", "Cycladiene", "Dienestrol", "Dienol", "p,p\u2032-(Diethylideneethylene)diphenol", "4,4\u2032-(Diethylideneethylene)diphenol", "4,4\u2032-Dihydroxy-\u03b3,\u03b4-diphenyl-\u03b2,\u03b4-hexadiene", "Dinovex", "Di-(p-oxyphenyl)-2,4-hexadiene", "Estroral", "Gynefollin", "Oestrasid", "Oestrodiene", "Oestroral", "Restrol", "Retalon", "Sexadien", "3,4-Di-p-(hydroxyphenyl)hexa-2,4-diene", "2,4-Hexadiene, 3,4-bis(4-hydroxyphenyl)-", "Estrodienol", "Teserene", "Follidiene", "Follormon", "Dienesterol", "Synestrol", "Hormofemin", "DV", "Dienoestrol", "NSC 59809", "Dehydrostilbestrol", "MeSH ID: D004028"], "SMILES": "C(C(=CC)C1=CC=C(O)C=C1)(=CC)C2=CC=C(O)C=C2", "physical_data": {"Molecular Weight": "266.33", "Molecular Formula": "C18H18O2", "Melting Point": "227-228 \u00b0C", "Density": "1.184 g/cm\u00b3"}}