{"cas_no": "84-16-2", "cn_name": "4,4'-(1,2-\u4e8c\u4e59\u57fa\u4e9a\u4e59\u57fa)\u4e8c\u82ef\u915a", "en_name": ["Hexestrol", "Phenol, 4,4\u2032-[(1R,2S)-1,2-diethyl-1,2-ethanediyl]bis-, rel-", "Phenol, 4,4\u2032-(1,2-diethylethylene)di-, meso-", "Phenol, 4,4\u2032-(1,2-diethyl-1,2-ethanediyl)bis-, (R*,S*)-", "rel-4,4\u2032-[(1R,2S)-1,2-Diethyl-1,2-ethanediyl]bis[phenol]", "meso-3,4-Bis(p-hydroxyphenyl)-n-hexane", "Cycloestrol", "meso-3,4-Di(p-hydroxyphenyl)-n-hexane", "Extra-Plex", "Hexanoestrol", "meso-Hexestrol", "Hormoestrol", "Synthovo", "Syntrogene", "Hexestrol", "Sinestrol", "Estrifar", "Estronal", "Hexestrofen", "Hexoestrol", "Synestrol", "Synoestrol", "Mesohexestrol", "Hexron", "Erythrohexestrol", "NSC 9894", "MeSH ID: D006589"], "SMILES": "C(C(CC)C1=CC=C(O)C=C1)(CC)C2=CC=C(O)C=C2", "physical_data": {"Molecular Weight": "270.37", "Molecular Formula": "C18H22O2", "Melting Point": "185-188 \u00b0C"}}