{"cas_no": "84-11-7", "cn_name": "\u83f2\u918c", "en_name": ["9,10-Phenanthrenedione", "9,10-Phenanthrenedione", "Phenanthrenequinone", "Phenanthraquinone", "9,10-Phenanthraquinone", "9,10-Phenanthrenequinone", "NSC 10446", "NSC 7389"], "SMILES": "O=C1C=2C(C=3C(C1=O)=CC=CC3)=CC=CC2", "physical_data": {"Molecular Weight": "208.21", "Molecular Formula": "C14H8O2", "Boiling Point": "~360 \u00b0C (approx)", "Melting Point": "206-207 \u00b0C", "Density": "1.405 g/cm\u00b3 @ Temp: -6.7 \u00b0C"}}