{"cas_no": "84-21-9", "cn_name": "\u817a\u82f7-3'-\u78f7\u9178", "en_name": ["3\u2032-AMP", "3\u2032-Adenylic acid", "3\u2032-AMP", "Adenosine 3\u2032-monophosphate", "Adenosine 3\u2032-phosphate", "Synadenylic acid", "Adenosine 3\u2032-(dihydrogen phosphate)", "NSC 210570"], "SMILES": "OC1C(N2C=3C(N=C2)=C(N)N=CN3)OC(CO)C1OP(=O)(O)O", "physical_data": {"Molecular Weight": "347.22", "Molecular Formula": "C10H14N5O7P", "Melting Point": "197 \u00b0C"}}