{"cas_no": "84-26-4", "cn_name": "\u5434\u8331\u8438\u6b21\u78b1", "en_name": ["Rutaecarpine", "Indolo[2\u2032,3\u2032:3,4]pyrido[2,1-b]quinazolin-5(7H)-one, 8,13-dihydro-", "Rutecarpine", "8,13-Dihydroindolo[2\u2032,3\u2032:3,4]pyrido[2,1-b]quinazolin-5(7H)-one", "Rutaecarpine", "Rhetine", "NSC 258317", "3,13,21-Triazapentacyclo[11.8.0.0[2,10].0[4,9].0[15,20]]henicosa-1(21),2(10),4(9),5,7,15(20),16,18-octaen-14-one"], "SMILES": "O=C1N2C(C3=C(C=4C(N3)=CC=CC4)CC2)=NC=5C1=CC=CC5", "physical_data": {"Molecular Weight": "287.32", "Molecular Formula": "C18H13N3O", "Melting Point": "260 \u00b0C"}}