{"cas_no": "84-22-0", "cn_name": "\u56db\u6c22\u5511\u5549", "en_name": ["(\u00b1)-Tetrahydrozoline", "1H-Imidazole, 4,5-dihydro-2-(1,2,3,4-tetrahydro-1-naphthalenyl)-", "2-Imidazoline, 2-(1,2,3,4-tetrahydro-1-naphthyl)-", "4,5-Dihydro-2-(1,2,3,4-tetrahydro-1-naphthalenyl)-1H-imidazole", "2-(1,2,3,4-Tetrahydro-1-naphthyl)-2-imidazoline", "Tetrahydrozoline", "Tetryzoline", "Tetryzolin", "dl-Tetrahydrozoline", "(\u00b1)-Tetrahydrozoline", "Ocuzolin", "Tetryvil", "2-(1,2,3,4-Tetrahydronaphthalen-1-yl)-4,5-dihydro-1H-imidazole"], "SMILES": "C1(C=2C(CCC1)=CC=CC2)C=3NCCN3", "physical_data": {"Molecular Weight": "200.28", "Molecular Formula": "C13H16N2", "Melting Point": "117-119 \u00b0C"}}