{"cas_no": "84-36-6", "cn_name": "\u4e59\u916f\u5229\u8840\u5e73", "en_name": ["Syrosingopine", "Yohimban-16-carboxylic acid, 18-[[4-[(ethoxycarbonyl)oxy]-3,5-dimethoxybenzoyl]oxy]-11,17-dimethoxy-, methyl ester, (3\u03b2,16\u03b2,17\u03b1,18\u03b2,20\u03b1)-", "3\u03b2,20\u03b1-Yohimban-16\u03b2-carboxylic acid, 18\u03b2-hydroxy-11,17\u03b1-dimethoxy-, methyl ester, 4-hydroxy-3,5-dimethoxybenzoate (ester) ethyl carbonate (ester)", "Reserpic acid, methyl ester, ester with syringic acid, ethyl carbonate", "Carbethoxysyringoyl methylreserpate", "Methyl carbethoxysyringoyl reserpate", "Methyl reserpate ester of syringic acid ethyl carbonate", "Singoserp", "Syringic acid ethyl carbonate ester with methyl reserpate", "Syrosingopine", "Su 3118", "Isotense", "Syrosingopin", "Syringopine", "Siringina", "Seniramin", "Londomin", "Raunova", "NSC 77030", "SML 1908", "Methyl (1S,2R,3R,4aS,13bR,14aS)-3-[[4-[(ethoxycarbonyl)oxy]-3,5-dimethoxybenzoyl]oxy]-2,11-dimethoxy-1,2,3,4,4a,5,7,8,13,13b,14,14a-dodecahydroindolo[2\u2032,3\u2032:3,4]pyrido[1,2-b]isoquinoline-1-carboxylate"], "SMILES": "C(OC)(=O)C1C2CC3C4=C(C=5C(N4)=CC(OC)=CC5)CCN3CC2CC(OC(=O)C6=CC(OC)=C(OC(OCC)=O)C(OC)=C6)C1OC", "physical_data": {"Molecular Weight": "666.71", "Molecular Formula": "C35H42N2O11", "Melting Point": "177 \u00b0C"}}