{"cas_no": "84-47-9", "cn_name": "2-\u53d4\u4e01\u57fa\u84bd\u918c", "en_name": ["2-tert-Butylanthraquinone", "9,10-Anthracenedione, 2-(1,1-dimethylethyl)-", "Anthraquinone, 2-tert-butyl-", "2-(1,1-Dimethylethyl)-9,10-anthracenedione", "2-tert-Butylanthraquinone", "\u03b2-tert-Butylanthraquinone", "2-tert-Butyl-9,10-anthraquinone", "NSC 30548"], "SMILES": "O=C1C=2C(C(=O)C=3C1=CC=CC3)=CC=C(C(C)(C)C)C2", "physical_data": {"Molecular Weight": "264.32", "Molecular Formula": "C18H16O2", "Melting Point": "98 \u00b0C"}}