{"cas_no": "84-51-5", "cn_name": "2-\u4e59\u57fa\u84bd\u918c", "en_name": ["2-Ethylanthraquinone", "9,10-Anthracenedione, 2-ethyl-", "Anthraquinone, 2-ethyl-", "2-Ethyl-9,10-anthracenedione", "2-Ethylanthraquinone", "2-Ethyl-9,10-anthraquinone", "\u03b2-Ethylanthraquinone", "Kayacure 2-EAQ", "NSC 7216", "2-EAQ", "2-Ethylanthracene-9,10-dione", "2-Ethyl-9,10-dihydroanthracene-9,10-dione"], "SMILES": "O=C1C=2C(C(=O)C=3C1=CC=CC3)=CC=C(CC)C2", "physical_data": {"Molecular Weight": "236.27", "Molecular Formula": "C16H12O2", "Melting Point": "108-111 \u00b0C"}}