{"cas_no": "84-52-6", "cn_name": "\u80de\u55763'-\u5355\u78f7\u9178", "en_name": ["3\u2032-CMP", "3\u2032-Cytidylic acid", "Cytidine, 3\u2032-phosphate", "Cytidine 3\u2032-monophosphate", "3\u2032-Cytidinephosphoric acid", "Cytidylic acid b", "3\u2032-Cytosylic acid", "3\u2032-CMP", "Ribocytidine 3\u2032-monophosphate", "5-(4-Amino-2-oxopyrimidin-1(2H)-yl)-4-hydroxy-2-(hydroxymethyl)tetrahydrofuran-3-yl dihydrogen phosphate", "[5-(4-Amino-2-oxopyrimidin-1-yl)-4-hydroxy-2-(hydroxymethyl)oxolan-3-yl] dihydrogen phosphate"], "SMILES": "OC1C(OC(CO)C1OP(=O)(O)O)N2C(=O)N=C(N)C=C2", "physical_data": {"Molecular Weight": "323.20", "Molecular Formula": "C9H14N3O8P", "Melting Point": "233 \u00b0C (decomp)"}}