{"cas_no": "84-58-2", "cn_name": "2,3-\u4e8c\u6c2f-5,6-\u4e8c\u6c30\u57fa\u82ef\u918c(DDQ)", "en_name": ["2,3-Dichloro-5,6-dicyano-1,4-benzoquinone", "1,4-Cyclohexadiene-1,2-dicarbonitrile, 4,5-dichloro-3,6-dioxo-", "4,5-Dichloro-3,6-dioxo-1,4-cyclohexadiene-1,2-dicarbonitrile", "DDQ (oxidizing agent)", "2,3-Dichloro-5,6-dicyanoquinone", "2,3-Dichloro-5,6-dicyanobenzoquinone", "2,3-Dichloro-5,6-dicyano-p-quinone", "2,3-Dichloro-5,6-dicyano-p-benzoquinone", "4,5-Dichloro-3,6-dioxo-1,2-benzenedicarbonitrile", "Dichlorodicyanoquinone", "Dichlorodicyanobenzoquinone", "2,3-Dicyano-5,6-dichloro-1,4-benzoquinone", "5,6-Dicyano-2,3-dichloro-p-benzoquinone", "1,2-Dichloro-4,5-dicyano-p-benzoquinone", "Dichlorodicyano-p-benzoquinone", "2,3-Dicyano-5,6-dichlorobenzoquinone", "2,3-Chloro-5,6-dicyanoquinone", "2,3-Dichlorodicyano-p-benzoquinone", "DDQ", "2,3-Dichloro-5,6-cyano-1,4-benzoquinone", "Dicyanodichloroquinone", "5,6-Dichloro-2,3-dicyano-p-benzoquinone", "2,3-Dichloro-5,6-dicyano-1,4-benzoquinone", "NSC 401087", "Dichloro-5,6-dicyano-1,4-benzoquinone"], "SMILES": "C(#N)C1=C(C#N)C(=O)C(Cl)=C(Cl)C1=O", "physical_data": {"Molecular Weight": "227.00", "Molecular Formula": "C8Cl2N2O2", "Melting Point": "214.5 \u00b0C"}}