{"cas_no": "84-54-8", "cn_name": "2-\u7532\u57fa\u84bd\u918c", "en_name": ["2-Methylanthraquinone", "9,10-Anthracenedione, 2-methyl-", "Anthraquinone, 2-methyl-", "2-Methyl-9,10-anthracenedione", "2-Methylanthraquinone", "Tectoquinone", "2-Methyl-9,10-anthraquinone", "Tectochinon", "2-Methylanthracene-9,10-dione", "\u03b2-Methylanthraquinone", "NSC 607"], "SMILES": "O=C1C=2C(C(=O)C=3C1=CC=CC3)=CC=C(C)C2", "physical_data": {"Molecular Weight": "222.24", "Molecular Formula": "C15H10O2", "Boiling Point": "215-220 \u00b0C @ Press: 4 Torr", "Melting Point": "177 \u00b0C"}}