{"cas_no": "84-67-3", "cn_name": "4,4\u2019-\u4e8c\u6c28\u57fa-2,2\u2019-\u4e8c\u7532\u57fa-1,1\u2019-\u8054\u82ef", "en_name": ["2,2\u2032-Dimethyl-4,4\u2032-diaminobiphenyl", "[1,1\u2032-Biphenyl]-4,4\u2032-diamine, 2,2\u2032-dimethyl-", "Benzidine, 2,2\u2032-dimethyl-", "2,2\u2032-Dimethyl[1,1\u2032-biphenyl]-4,4\u2032-diamine", "4,4\u2032-Diamino-2,2\u2032-dimethylbiphenyl", "2,2\u2032-Dimethylbenzidine", "m-Tolidine", "2,2\u2032-Tolidine", "2,2\u2032-Dimethyl-4,4\u2032-biphenyldiamine", "2,2\u2032-Dimethyl-4,4\u2032-diaminobiphenyl", "m-TBHG", "NSC 1989", "m-TB", "2,2\u2032-Dimethyl-4,4\u2032-diaminobiphenylene", "DMBZ", "4-(4-Amino-2-methylphenyl)-3-methylaniline", "2,2\u2032-Dimethyl-4,4\u2032-diaminobenzidine"], "SMILES": "CC1=C(C=CC(N)=C1)C2=C(C)C=C(N)C=C2", "physical_data": {"Molecular Weight": "212.29", "Molecular Formula": "C14H16N2", "Melting Point": "103-104 \u00b0C"}}