{"cas_no": "84-64-0", "cn_name": "\u90bb\u82ef\u4e8c\u7532\u9178\u4e01\u57fa\u73af\u5df1\u916f", "en_name": ["Butyl cyclohexyl phthalate", "1,2-Benzenedicarboxylic acid, 1-butyl 2-cyclohexyl ester", "Phthalic acid, butyl cyclohexyl ester", "1,2-Benzenedicarboxylic acid, butyl cyclohexyl ester", "Butyl cyclohexyl phthalate", "Cyclohexyl butyl phthalate", "Elastex 50B", "NSC 69994"], "SMILES": "C(OC1CCCCC1)(=O)C2=C(C(OCCCC)=O)C=CC=C2", "physical_data": {"Molecular Weight": "304.38", "Molecular Formula": "C18H24O4", "Boiling Point": "189-222 \u00b0C @ Press: 5 Torr", "Melting Point": "&lt;25 \u00b0C", "Density": "1.076 g/cm\u00b3 @ Temp: 25 \u00b0C"}}