{"cas_no": "84-69-5", "cn_name": "\u90bb\u82ef\u4e8c\u7532\u9178\u4e8c\u5f02\u4e01\u916f", "en_name": ["Diisobutyl phthalate", "1,2-Benzenedicarboxylic acid, 1,2-bis(2-methylpropyl) ester", "Phthalic acid, diisobutyl ester", "1,2-Benzenedicarboxylic acid, bis(2-methylpropyl) ester", "Diisobutyl phthalate", "Hexaplas M/1B", "Palatinol IC", "Isobutyl phthalate", "Di-iso-Butyl phthalate", "Di(isobutyl) 1,2-benzenedicarboxylate", "Di(2-methylpropyl) phthalate", "1,2-Benzenedicarboxylic acid diisobutyl ester", "Reomol DiBP", "NSC 15316", "Bis(2-methylpropyl) phthalate", "2-Methylpropyl phthalate", "Bis(2-methylpropyl) o-phthalate"], "SMILES": "C(OCC(C)C)(=O)C1=C(C(OCC(C)C)=O)C=CC=C1", "physical_data": {"Molecular Weight": "278.34", "Molecular Formula": "C16H22O4", "Boiling Point": "296.5 \u00b0C", "Melting Point": "-64 \u00b0C", "Density": "1.039 g/cm\u00b3 @ Temp: 20 \u00b0C"}}