{"cas_no": "84-65-1", "cn_name": "\u84bd\u918c", "en_name": ["Anthraquinone", "9,10-Anthracenedione", "Anthraquinone", "Hoelite", "9,10-Anthraquinone", "Anthradione", "Morkit", "Anthracene-9,10-quinone", "DAQ-N", "Flight Control", "NSC 7957", "Flight Control Plus", "1,4,11,12-Tetrahydro-9,10-anthraquinone", "SAQ", "Kawasaki SAQ", "SAQ (quinone)", "Avipel", "DBLE 104"], "SMILES": "O=C1C=2C(C(=O)C=3C1=CC=CC3)=CC=CC2", "physical_data": {"Molecular Weight": "208.21", "Molecular Formula": "C14H8O2", "Boiling Point": "377 \u00b0C @ Press: 760 Torr", "Melting Point": "286 \u00b0C", "Density": "1.05814 g/cm\u00b3 @ Temp: 302.6 \u00b0C"}}