{"cas_no": "84-61-7", "cn_name": "\u90bb\u82ef\u4e8c\u7532\u9178\u4e8c\u73af\u5df1\u916f", "en_name": ["Dicyclohexyl phthalate", "1,2-Benzenedicarboxylic acid, 1,2-dicyclohexyl ester", "Phthalic acid, dicyclohexyl ester", "1,2-Benzenedicarboxylic acid, dicyclohexyl ester", "HF 191", "Dicyclohexyl phthalate", "Ergoplast FDC", "Unimoll 66", "Howflex CP", "Morflex 150", "Edenol DCHP", "DCHP", "NSC 6101", "Uniplex 250"], "SMILES": "C(OC1CCCCC1)(=O)C2=C(C(OC3CCCCC3)=O)C=CC=C2", "physical_data": {"Molecular Weight": "330.42", "Molecular Formula": "C20H26O4", "Boiling Point": "222-228 \u00b0C @ Press: 4 Torr", "Melting Point": "66 \u00b0C", "Density": "1.383 g/cm\u00b3 @ Temp: 20 \u00b0C"}}