{"cas_no": "84-60-6", "cn_name": "2,6-\u4e8c\u7f9f\u57fa\u84bd\u918c", "en_name": ["2,6-Dihydroxyanthraquinone", "9,10-Anthracenedione, 2,6-dihydroxy-", "Anthraflavic acid", "Anthraquinone, 2,6-dihydroxy-", "2,6-Dihydroxy-9,10-anthracenedione", "2,6-Dihydroxyanthraquinone", "Anthraflavin", "NSC-33531", "2,6-Dihydroxy-9,10-anthraquinone", "2,6-Dihydroxy-9,10-dihydroanthracene-9,10-dione"], "SMILES": "O=C1C=2C(C(=O)C=3C1=CC(O)=CC3)=CC(O)=CC2", "physical_data": {"Molecular Weight": "240.21", "Molecular Formula": "C14H8O4", "Melting Point": "&gt;320 \u00b0C"}}