{"cas_no": "84-62-8", "cn_name": "2,2-\u4e8c\u82ef\u57fa-1-\u82e6\u5473\u57fa\u80bc\u81ea\u7531\u57fa", "en_name": ["Diphenyl phthalate", "1,2-Benzenedicarboxylic acid, 1,2-diphenyl ester", "Phthalic acid, diphenyl ester", "1,2-Benzenedicarboxylic acid, diphenyl ester", "Diphenyl phthalate", "Phenyl phthalate", "NSC 4052", "1,2-Diphenyl benzene-1,2-dicarboxylate"], "SMILES": "C(OC1=CC=CC=C1)(=O)C2=C(C(OC3=CC=CC=C3)=O)C=CC=C2", "physical_data": {"Molecular Weight": "318.32", "Molecular Formula": "C20H14O4", "Boiling Point": "255 \u00b0C", "Melting Point": "73 \u00b0C"}}