{"cas_no": "84-66-2", "cn_name": "\u90bb\u82ef\u4e8c\u7532\u9178\u4e8c\u4e59\u916f", "en_name": ["Diethyl phthalate", "1,2-Benzenedicarboxylic acid, 1,2-diethyl ester", "Phthalic acid, diethyl ester", "1,2-Benzenedicarboxylic acid, diethyl ester", "Anozol", "Ethyl phthalate", "Neantine", "Palatinol A", "Phthalol", "Placidol E", "Solvanol", "Diethyl phthalate", "Unimoll DA", "o-Benzenedicarboxylic acid diethyl ester", "Diethyl 1,2-benzenedicarboxylate", "o-Bis(ethoxycarbonyl)benzene", "DEP", "NSC 8905", "1,2-Benzodioic acid diethyl ester", "1,2-Diethyl benzene-1,2-dicarboxylate"], "SMILES": "C(OCC)(=O)C1=C(C(OCC)=O)C=CC=C1", "physical_data": {"Molecular Weight": "222.24", "Molecular Formula": "C12H14O4", "Boiling Point": "298 \u00b0C", "Melting Point": "-40.5 \u00b0C", "Density": "1.120 g/cm\u00b3 @ Temp: 25 \u00b0C"}}