{"cas_no": "84-74-2", "cn_name": "\u90bb\u82ef\u4e8c\u7532\u9178\u4e8c\u4e01\u916f", "en_name": ["Dibutyl phthalate", "1,2-Benzenedicarboxylic acid, 1,2-dibutyl ester", "Phthalic acid, dibutyl ester", "1,2-Benzenedicarboxylic acid, dibutyl ester", "PX 104", "Celluflex DPB", "Dibutyl phthalate", "Di-n-butyl phthalate", "Elaol", "Palatinol C", "Polycizer DBP", "Staflex DBP", "Witcizer 300", "Hexaplas M/B", "Butyl phthalate", "n-Butyl phthalate", "Genoplast B", "Unimoll DB", "DBP", "Ergoplast FDB", "Di(n-butyl) 1,2-benzenedicarboxylate", "Dibutyl o-phthalate", "DBP (ester)", "Bis-n-butyl phthalate", "Hatco DBP", "Phthalic acid di-n-butyl ester", "Corflex 440", "Monocizer DBP", "Kodaflex DBP", "Vestinol C", "Plasthall DBP", "NSC 6370", "Dibutyl ester 1,2-benzenedicarboxylic acid", "YH 1BD2", "Ruifeng VP 201", "VP 201", "MeSH ID: D003993"], "SMILES": "C(OCCCC)(=O)C1=C(C(OCCCC)=O)C=CC=C1", "physical_data": {"Molecular Weight": "278.34", "Molecular Formula": "C16H22O4", "Boiling Point": "340 \u00b0C", "Melting Point": "-35 \u00b0C", "Density": "1.0465 g/cm\u00b3 @ Temp: 20 \u00b0C"}}