{"cas_no": "84-75-3", "cn_name": "\u90bb\u82ef\u4e8c\u7532\u9178\u4e8c\u5df2\u916f", "en_name": ["Dihexyl phthalate", "1,2-Benzenedicarboxylic acid, 1,2-dihexyl ester", "Phthalic acid, dihexyl ester", "1,2-Benzenedicarboxylic acid, dihexyl ester", "Dihexyl phthalate", "Di-n-hexyl phthalate", "Bis(n-hexyl) phthalate", "Jayflex DHP", "NSC 4817"], "SMILES": "C(OCCCCCC)(=O)C1=C(C(OCCCCCC)=O)C=CC=C1", "physical_data": {"Molecular Weight": "334.45", "Molecular Formula": "C20H30O4", "Boiling Point": "210 \u00b0C @ Press: 5 Torr", "Melting Point": "-58 \u00b0C", "Density": "0.995 g/cm\u00b3"}}