{"cas_no": "84-79-7", "cn_name": "\u9ec4\u949f\u82b1\u918c", "en_name": ["Lapachol", "1,4-Naphthalenedione, 2-hydroxy-3-(3-methyl-2-buten-1-yl)-", "Lapachol", "1,4-Naphthoquinone, 2-hydroxy-3-(3-methyl-2-butenyl)-", "1,4-Naphthalenedione, 2-hydroxy-3-(3-methyl-2-butenyl)-", "2-Hydroxy-3-(3-methyl-2-buten-1-yl)-1,4-naphthalenedione", "C.I. 75490", "Bethabarra Wood", "C.I. Natural Yellow 16", "2-Hydroxy-3-(3-methyl-2-butenyl)-1,4-naphthoquinone", "Ipe-tobacco Wood", "Lapachol Wood", "Surinam Greenheart Wood", "Taiguic acid", "Taigu Wood", "Tecomin", "NSC 11905", "Greenhartin", "2-Hydroxy-3-(3-methyl-2-butenyl)-1,4-naphthalenedione", "NSC 629756", "2-Hydroxy-3-(3-methylbut-2-en-1-yl)-1,4-dihydronaphthalene-1,4-dione"], "SMILES": "O=C1C=2C(C(=O)C(O)=C1CC=C(C)C)=CC=CC2", "physical_data": {"Molecular Weight": "242.27", "Molecular Formula": "C15H14O3", "Melting Point": "139.5 \u00b0C"}}