{"cas_no": "84-77-5", "cn_name": "\u90bb\u82ef\u4e8c\u7532\u9178\u4e8c\u7678\u916f", "en_name": ["Didecyl phthalate", "1,2-Benzenedicarboxylic acid, 1,2-didecyl ester", "Phthalic acid, didecyl ester", "1,2-Benzenedicarboxylic acid, didecyl ester", "Didecyl phthalate", "Di-n-decyl phthalate", "Decyl phthalate", "Vinycizer 105", "Bis(n-decyl)phthalate", "NSC 15319", "DDP", "Dicapryl phthalate"], "SMILES": "C(OCCCCCCCCCC)(=O)C1=C(C(OCCCCCCCCCC)=O)C=CC=C1", "physical_data": {"Molecular Weight": "446.66", "Molecular Formula": "C28H46O4", "Boiling Point": "261 \u00b0C @ Press: 5 Torr", "Melting Point": "&lt;25 \u00b0C", "Density": "0.9675 g/cm\u00b3 @ Temp: 20 \u00b0C"}}