{"cas_no": "84-72-0", "cn_name": "\u90bb\u82ef\u4e8c\u7532\u9178\u5355\u4e59\u4e8c\u9187\u916f", "en_name": ["Ethyl phthalyl ethyl glycolate", "1,2-Benzenedicarboxylic acid, 1-(2-ethoxy-2-oxoethyl) 2-ethyl ester", "Phthalic acid, ethyl ester, ester with ethyl glycolate", "1,2-Benzenedicarboxylic acid, 2-ethoxy-2-oxoethyl ethyl ester", "Glycolic acid, ethyl ester, ethyl phthalate", "Diethyl o-carboxybenzoyloxyacetate", "Santicizer E-15", "Ethyl phthalyl ethyl glycolate", "Carbethoxymethyl ethyl phthalate", "Ethyl carbethoxymethyl phthalate", "Ethoxycarbonylmethyl ethyl phthalate", "Ethyl ethoxycarbonylmethyl phthalate", "Ethyl 2-ethoxy-2-oxoethyl phthalate", "2-O-(2-Ethoxy-2-oxoethyl) 1-O-ethyl benzene-1,2-dicarboxylate"], "SMILES": "C(OCC(OCC)=O)(=O)C1=C(C(OCC)=O)C=CC=C1", "physical_data": {"Molecular Weight": "280.27", "Molecular Formula": "C14H16O6", "Boiling Point": "160-170 \u00b0C @ Press: 0.1 Torr"}}