{"cas_no": "84-76-4", "cn_name": "\u90bb\u82ef\u4e8c\u7532\u9178\u4e8c\u58ec\u916f", "en_name": ["Dinonyl phthalate", "1,2-Benzenedicarboxylic acid, 1,2-dinonyl ester", "Phthalic acid, dinonyl ester", "1,2-Benzenedicarboxylic acid, dinonyl ester", "Bisoflex 91", "Dinonyl 1,2-benzenedicarboxylate", "Dinonyl phthalate", "Di-n-nonyl phthalate", "Unimoll DN", "Bisoflex DNP", "Dinonyl o-phthalate", "Phthalic anhydride diester with Linevol 9", "Synplast 9P-N", "1,2-Dinonyl benzene-1,2-dicarboxylate"], "SMILES": "C(OCCCCCCCCC)(=O)C1=C(C(OCCCCCCCCC)=O)C=CC=C1", "physical_data": {"Molecular Weight": "418.61", "Molecular Formula": "C26H42O4", "Boiling Point": "413 \u00b0C", "Melting Point": "&lt;25 \u00b0C", "Density": "0.972 g/cm\u00b3 @ Temp: 20 \u00b0C"}}