{"cas_no": "84-83-3", "cn_name": "\u8d39\u820d\u5c14\u6c0f\u919b", "en_name": ["2-(Formylmethylene)-1,3,3-trimethylindoline", "Acetaldehyde, 2-(1,3-dihydro-1,3,3-trimethyl-2H-indol-2-ylidene)-", "Acetaldehyde, (1,3-dihydro-1,3,3-trimethyl-2H-indol-2-ylidene)-", "\u03942,\u03b1-Indolineacetaldehyde, 1,3,3-trimethyl-", "\u03942,\u03b1-Indolinacetaldehyde, 1,3,3-trimethyl-", "2-(1,3-Dihydro-1,3,3-trimethyl-2H-indol-2-ylidene)acetaldehyde", "1,3,3-Trimethyl-\u03942,\u03b1-indolineacetaldehyde", "1,3,3-Trimethyl-2-(formylmethylene)indoline", "2-(Formylmethylene)-1,3,3-trimethylindoline", "1,3,3-Trimethyl-2-methyleneindoline-\u03c9-aldehyde", "1,3,3-Trimethyl-2-(formylmethylene)-2,3-dihydroindole", "(1,3,3-Trimethylindolin-2-ylidene)acetaldehyde", "Fischer's aldehyde", "2-(Formylmethylene)-2,3-dihydro-1,3,3-trimethylindole", "NSC 68048", "(1,3-Dihydro-1,3,3-trimethyl-2H-indol-2-ylidene)acetaldehyde", "2-(2,3-Dihydro-1,3,3-trimethyl-1H-indol-2-ylidene)acetaldehyde", "2-(1,3,3-Trimethylindolin-2-ylidene)acetaldehyde", "2-(1,3,3-Trimethyl-2,3-dihydro-1H-indol-2-ylidene)acetaldehyde", "2-(1,3,3-Trimethylindol-2-ylidene)acetaldehyde"], "SMILES": "CN1C=2C(C(C)(C)C1=CC=O)=CC=CC2", "physical_data": {"Molecular Weight": "201.26", "Molecular Formula": "C13H15NO", "Boiling Point": "170-172 \u00b0C @ Press: 2 Torr", "Melting Point": "117-118 \u00b0C"}}