{"cas_no": "84-85-5", "cn_name": "4-\u7532\u6c27\u57fa-1-\u8418\u915a", "en_name": ["4-Methoxy-1-naphthol", "1-Naphthalenol, 4-methoxy-", "1-Naphthol, 4-methoxy-", "4-Methoxy-1-naphthalenol", "C.I. 76620", "Ursol Grounding Blue BL", "4-Methoxy-\u03b1-naphthol", "4-Methoxy-1-naphthol", "1-Hydroxy-4-methoxynaphthalene", "ET 2111", "Walrycin A", "Quino Power MNT", "QS 30", "3-Phenanthrenol, 9-methoxy-"], "SMILES": "O(C)C=1C2=C(C(O)=CC1)C=CC=C2", "physical_data": {"Molecular Weight": "174.20", "Molecular Formula": "C11H10O2", "Melting Point": "124-125 \u00b0C"}}