{"cas_no": "84-86-6", "cn_name": "\u5bf9\u6c28\u57fa\u8418\u78fa\u9178", "en_name": ["4-Amino-1-naphthalenesulfonic acid", "1-Naphthalenesulfonic acid, 4-amino-", "4-Amino-1-naphthalenesulfonic acid", "Piria's acid", "1,4-Naphthionic acid", "\u03b1-Naphthylamine-4-sulfonic acid", "1-Naphthylamine-4-sulfonic acid", "Naphthionic acid", "1-Amino-4-naphthalenesulfonic acid", "1-Amino-4-sulfonaphthalene", "NSC 4155", "4-Aminonaphthalenesulfonic acid"], "SMILES": "S(=O)(=O)(O)C=1C2=C(C(N)=CC1)C=CC=C2", "physical_data": {"Molecular Weight": "223.25", "Molecular Formula": "C10H9NO3S", "Melting Point": "240-241 \u00b0C"}}