{"cas_no": "84-82-2", "cn_name": "\u6bd2\u9ec4\u7d20", "en_name": ["Xanthothricin", "Pyrimido[5,4-e]-1,2,4-triazine-5,7(1H,6H)-dione, 1,6-dimethyl-", "Pyrimido[5,4-e]-as-triazine-5,7(1H,6H)-dione, 1,6-dimethyl-", "1,6-Dimethylpyrimido[5,4-e]-1,2,4-triazine-5,7(1H,6H)-dione", "Toxoflavine", "Xanthothricin", "1,5,6,7-Tetrahydro-1,6-dimethylpyrimidino[5,4-e]triazine-5,7-dione", "Toxoflavin", "Xanthotricin", "NSC 67078", "PKF 118-310", "SID 4251194", "K4394", "PKF118-310"], "SMILES": "O=C1C=2C(N(C)N=CN2)=NC(=O)N1C", "physical_data": {"Molecular Weight": "193.16", "Molecular Formula": "C7H7N5O2", "Melting Point": "165 \u00b0C"}}