{"cas_no": "84-88-8", "cn_name": "8-\u7f9f\u57fa\u55b9\u5549-5-\u78fa\u9178", "en_name": ["8-Hydroxyquinoline-5-sulfonic acid", "5-Quinolinesulfonic acid, 8-hydroxy-", "8-Hydroxyquinoline-5-sulfonic acid", "8-Hydroxy-5-quinolinesulfonic acid", "5-Sulfo-8-hydroxyquinoline", "Oxine-5-sulfonic acid", "5-Sulfooxine", "8-Quinolinol-5-sulfonic acid", "5-Sulfo-8-quinolinol", "Sulfoxine", "8-Oxyquinoline-5-sulfonic acid", "8-Hydroxy-5-sulfoquinoline", "NSC 105877", "NSC 13139", "NSC 220049", "HQSA", "8-Hydroxylquinoline-5-sulfonic acid"], "SMILES": "S(=O)(=O)(O)C=1C2=C(C(O)=CC1)N=CC=C2", "physical_data": {"Molecular Weight": "225.22", "Molecular Formula": "C9H7NO4S", "Melting Point": "322.5 \u00b0C"}}