{"cas_no": "84-80-0", "cn_name": "\u7ef4\u751f\u7d20 K1", "en_name": ["Phylloquinone", "1,4-Naphthalenedione, 2-methyl-3-[(2E,7R,11R)-3,7,11,15-tetramethyl-2-hexadecen-1-yl]-", "Phylloquinone", "1,4-Naphthalenedione, 2-methyl-3-(3,7,11,15-tetramethyl-2-hexadecenyl)-, [R-[R*,R*-(E)]]-", "1,4-Naphthalenedione, 2-methyl-3-[(2E,7R,11R)-3,7,11,15-tetramethyl-2-hexadecenyl]-", "2-Methyl-3-[(2E,7R,11R)-3,7,11,15-tetramethyl-2-hexadecen-1-yl]-1,4-naphthalenedione", "Antihemorrhagic vitamin", "Mephyton", "2-Methyl-3-phytyl-1,4-naphthoquinone", "Mono-Kay", "Phytomenadione", "Phytonadione", "Phytylmenadione", "Vitamin K1(20)", "\u03b1-Phylloquinone", "Konakion", "trans-Phylloquinone", "2\u2032,3\u2032-trans-Vitamin K1", "Synthex P", "Kephton", "Kinadion", "Monodion", "Combinal K1", "Kativ N", "AquaMEPHYTON", "Kaywan", "Phylloquinone K1", "Phytylmenaquinone", "Pediatrico", "Orakay", "Veta K1", "Veda K1", "NSC 270681", "Kanakion", "Amri-K", "Haemokion", "Kenadion", "Reconval"], "SMILES": "O=C1C=2C(C(=O)C(C)=C1CC=C(CCCC(CCCC(CCCC(C)C)C)C)C)=CC=CC2", "physical_data": {"Molecular Weight": "450.70", "Molecular Formula": "C31H46O2", "Boiling Point": "140-145 \u00b0C @ Press: 1 x 10<sup>-3</sup> Torr", "Melting Point": "-20 \u00b0C", "Density": "0.964 g/cm\u00b3 @ Temp: 25 \u00b0C"}}