{"cas_no": "84-87-7", "cn_name": "1-\u8418\u915a-4-\u78fa\u9178", "en_name": ["1-Naphthol-4-sulfonic acid", "1-Naphthalenesulfonic acid, 4-hydroxy-", "4-Hydroxy-1-naphthalenesulfonic acid", "\u03b1-Naphthol-4-sulfonic acid", "1-Naphthol-4-sulfonic acid", "Nevile and Winther's acid", "1,4-Oxy Acid", "1-Hydroxy-4-naphthalenesulfonic acid", "NW Acid", "NSC 9587", "1-Hydroxy-naphthalene-4-sulphonic acid"], "SMILES": "S(=O)(=O)(O)C=1C2=C(C(O)=CC1)C=CC=C2", "physical_data": {"Molecular Weight": "224.23", "Molecular Formula": "C10H8O4S", "Melting Point": "170 \u00b0C (decomp)"}}