{"cas_no": "84-81-1", "cn_name": "\u7dad\u751f\u7d20K2(30)", "en_name": ["Menaquinone 6", "1,4-Naphthalenedione, 2-[(2E,6E,10E,14E,18E)-3,7,11,15,19,23-hexamethyl-2,6,10,14,18,22-tetracosahexaen-1-yl]-3-methyl-", "Farnoquinone, (all-E)-", "1,4-Naphthalenedione, 2-(3,7,11,15,19,23-hexamethyl-2,6,10,14,18,22-tetracosahexaenyl)-3-methyl-, (all-E)-", "Farnoquinone", "1,4-Naphthalenedione, 2-[(2E,6E,10E,14E,18E)-3,7,11,15,19,23-hexamethyl-2,6,10,14,18,22-tetracosahexaenyl]-3-methyl-", "2-[(2E,6E,10E,14E,18E)-3,7,11,15,19,23-Hexamethyl-2,6,10,14,18,22-tetracosahexaen-1-yl]-3-methyl-1,4-naphthalenedione", "Menaquinone 6", "Menaquinone K6", "Vitamin K2(30)", "Vitamin MK6", "MK-6", "Vitamin K2 (MK-6)", "Vitamin K2-6"], "SMILES": "O=C1C=2C(C(=O)C(C)=C1CC=C(CCC=C(CCC=C(CCC=C(CCC=C(CCC=C(C)C)C)C)C)C)C)=CC=CC2", "physical_data": {"Molecular Weight": "580.88", "Molecular Formula": "C41H56O2", "Melting Point": "50 \u00b0C"}}