{"cas_no": "84-96-8", "cn_name": "\u5f02\u4e01\u55ea", "en_name": ["(\u00b1)-Trimeprazine", "10H-Phenothiazine-10-propanamine, N,N,\u03b2-trimethyl-", "Phenothiazine, 10-[3-(dimethylamino)-2-methylpropyl]-", "N,N,\u03b2-Trimethyl-10H-phenothiazine-10-propanamine", "Alimemazine", "Alimezine", "10-[3-(Dimethylamino)-2-methylpropyl]phenothiazine", "10-(2-Methyl-3-dimethylaminopropyl)phenothiazine", "Methylpromazine", "Trimeprazine", "Teralen", "Bayer 1219", "dl-Trimeprazine", "(\u00b1)-Trimeprazine", "(\u00b1)-Alimemazine", "Teralene", "MeSH ID: D014291"], "SMILES": "C(C(CN(C)C)C)N1C=2C(SC=3C1=CC=CC3)=CC=CC2", "physical_data": {"Molecular Weight": "298.45", "Molecular Formula": "C18H22N2S", "Boiling Point": "150-175 \u00b0C @ Press: 0.3 Torr", "Melting Point": "68 \u00b0C"}}