{"cas_no": "84-95-7", "cn_name": "N,N\u2019-\u4e8c\u4e59\u57fa-1-\u8418\u80fa", "en_name": ["N,N-Diethyl-1-naphthalenamine", "1-Naphthalenamine, N,N-diethyl-", "1-Naphthylamine, N,N-diethyl-", "N,N-Diethyl-1-naphthalenamine", "N,N-Diethyl-1-naphthylamine", "N,N-Diethyl-\u03b1-naphthylamine", "1-(Diethylamino)naphthalene", "NSC 6340"], "SMILES": "N(CC)(CC)C=1C2=C(C=CC1)C=CC=C2", "physical_data": {"Molecular Weight": "199.29", "Molecular Formula": "C14H17N", "Boiling Point": "285 \u00b0C", "Density": "1.015 g/cm\u00b3 @ Temp: 20 \u00b0C"}}