{"cas_no": "84-99-1", "cn_name": "\u9ec4\u6728\u4ead", "en_name": ["Xanthoxyletin", "2H,8H-Benzo[1,2-b:5,4-b\u2032]dipyran-2-one, 5-methoxy-8,8-dimethyl-", "Xanthoxyletin", "5-Methoxy-8,8-dimethyl-2H,8H-benzo[1,2-b:5,4-b\u2032]dipyran-2-one", "Xanthoxylin N", "2-Propenoic acid, 3-(7-hydroxy-5-methoxy-2,2-dimethyl-2H-1-benzopyran-6-yl)-, \u03b4-lactone", "NSC 35542"], "SMILES": "O(C)C1=C2C(=CC3=C1C=CC(=O)O3)OC(C)(C)C=C2", "physical_data": {"Molecular Weight": "258.27", "Molecular Formula": "C15H14O4", "Melting Point": "133 \u00b0C"}}