{"cas_no": "840-65-3", "cn_name": "2,6-\u8418\u4e8c\u7fa7\u9178\u4e8c\u7532\u916f", "en_name": ["2,6-Dimethyl 2,6-naphthalenedicarboxylate", "2,6-Naphthalenedicarboxylic acid, 2,6-dimethyl ester", "2,6-Naphthalenedicarboxylic acid, dimethyl ester", "2,6-Dimethyl 2,6-naphthalenedicarboxylate", "Dimethyl 2,6-naphthalenedicarboxylate", "2,6-Dicarbomethoxynaphthalene", "Dimethyl 2,6-naphthalate", "2,6-Naphthalic acid dimethyl ester", "NSC 59387", "2,6-Dimethyl naphthalene-2,6-dicarboxylate", "2,6-Bis(methoxycarbonyl)naphthalene"], "SMILES": "C(OC)(=O)C1=CC2=C(C=C(C(OC)=O)C=C2)C=C1", "physical_data": {"Molecular Weight": "244.24", "Molecular Formula": "C14H12O4", "Boiling Point": "265-270 \u00b0C @ Press: 100 Torr", "Melting Point": "181-183.5 \u00b0C"}}