{"cas_no": "840-97-1", "cn_name": "N-\u4e59\u9170-L-\u916a\u6c28\u9178\u4e59\u916f", "en_name": ["N-Acetyl-L-tyrosine ethyl ester", "L-Tyrosine, N-acetyl-, ethyl ester", "Tyrosine, N-acetyl-, ethyl ester, L-", "N-Acetyl-L-tyrosine ethyl ester", "Acetyltyrosine ethyl ester", "Ethyl N-acetyl-L-tyrosinate", "Acetyl-L-tyrosine ethyl ester", "N-Acetyltyrosine ethyl ester", "Ethyl acetyltyrosinate", "(S)-N-Acetyltyrosine ethyl ester", "ATEE", "NSC 64725", "NSC 87506", "Ethyl (2S)-2-acetamido-3-(4-hydroxyphenyl)propanoate"], "SMILES": "C(CC1=CC=C(O)C=C1)(C(OCC)=O)NC(C)=O", "physical_data": {"Molecular Weight": "251.28", "Molecular Formula": "C13H17NO4", "Melting Point": "96-97 \u00b0C"}}