{"cas_no": "84000-07-7", "cn_name": "FMOC-N-\u7532\u57fa-L-\u4e19\u6c28\u9178", "en_name": ["N-[(9H-Fluoren-9-ylmethoxy)carbonyl]-N-methyl-L-alanine", "L-Alanine, N-[(9H-fluoren-9-ylmethoxy)carbonyl]-N-methyl-", "N-[(9H-Fluoren-9-ylmethoxy)carbonyl]-N-methyl-L-alanine", "N-Fmoc-N-methyl-L-alanine", "(2S)-2-([[(9H-Fluoren-9-yl)methoxy]carbonyl](methyl)amino)propanoic acid", "(S)-2-((((9H-Fluoren-9-yl)methoxy)carbonyl)(methyl)amino)propanoic acid"], "SMILES": "C(OC(N(C(C(O)=O)C)C)=O)C1C=2C(C=3C1=CC=CC3)=CC=CC2", "physical_data": {"Molecular Weight": "325.36", "Molecular Formula": "C19H19NO4", "Melting Point": "140-142 \u00b0C"}}