{"cas_no": "84000-11-3", "cn_name": "Fmoc-N-\u7532\u57fa-L-\u7f2c\u6c28\u9178", "en_name": ["N-[(9H-Fluoren-9-ylmethoxy)carbonyl]-N-methyl-L-valine", "L-Valine, N-[(9H-fluoren-9-ylmethoxy)carbonyl]-N-methyl-", "N-[(9H-Fluoren-9-ylmethoxy)carbonyl]-N-methyl-L-valine", "N-(9-Fluorenylmethoxycarbonyl)-N-methylvaline", "(2S)-2-[9H-Fluoren-9-ylmethoxycarbonyl(methyl)amino]-3-methylbutanoic acid", "(2S)-2-([[(9H-Fluoren-9-yl)methoxy]carbonyl](methyl)amino)-3-methylbutanoic acid"], "SMILES": "C(OC(N(C(C(C)C)C(O)=O)C)=O)C1C=2C(C=3C1=CC=CC3)=CC=CC2", "physical_data": {"Molecular Weight": "353.41", "Molecular Formula": "C21H23NO4", "Melting Point": "187-189 \u00b0C"}}