{"cas_no": "84057-95-4", "cn_name": "\u7f57\u54cc\u5361\u56e0", "en_name": ["Ropivacaine", "2-Piperidinecarboxamide, N-(2,6-dimethylphenyl)-1-propyl-, (2S)-", "2-Piperidinecarboxamide, N-(2,6-dimethylphenyl)-1-propyl-, (S)-", "(2S)-N-(2,6-Dimethylphenyl)-1-propyl-2-piperidinecarboxamide", "Ropivacaine", "LEA 103", "(-)-LEA 103", "(-)-Ropivacaine", "(S)-(-)-Ropivacaine", "Naropeine", "Naropine", "Narop", "S-Ropivacaine", "Anapeine", "(2S)-N-(2,6-Dimethylphenyl)-1-propylpiperidine-2-carboxamide", "(2S)-N-(2,6-Dimethylphenyl)-1-propyl-2-piperidinecarboxamide"], "SMILES": "C(NC1=C(C)C=CC=C1C)(=O)C2N(CCC)CCCC2", "physical_data": {"Molecular Weight": "274.40", "Molecular Formula": "C17H26N2O", "Melting Point": "144-146 \u00b0C"}}