{"cas_no": "84057-84-1", "cn_name": "\u62c9\u83ab\u4e09\u55ea", "en_name": ["Lamotrigine", "1,2,4-Triazine-3,5-diamine, 6-(2,3-dichlorophenyl)-", "6-(2,3-Dichlorophenyl)-1,2,4-triazine-3,5-diamine", "Lamotrigine", "3,5-Diamino-6-(2,3-dichlorophenyl)-1,2,4-triazine", "Lamictal", "Lamotrigin", "BW 430C", "LTG", "Lamictal XR", "Lamidus", "Lamitrin", "3,5-Diamino-6-(2,3-dichlorophenyl)-as-triazine", "Epilepax", "Lamtox"], "SMILES": "NC=1C(=NN=C(N)N1)C2=C(Cl)C(Cl)=CC=C2", "physical_data": {"Molecular Weight": "256.09", "Molecular Formula": "C9H7Cl2N5", "Melting Point": "216-218 \u00b0C"}}