{"cas_no": "84087-01-4", "cn_name": "\u4e8c\u6c2f\u55b9\u5549\u9178", "en_name": ["Quinclorac", "8-Quinolinecarboxylic acid, 3,7-dichloro-", "3,7-Dichloro-8-quinolinecarboxylic acid", "Quinclorac", "BAS 514", "Drive", "Facet LA", "Parmount 75WG", "Paramount", "Facet", "BAS 514H", "Accord 75DF"], "SMILES": "C(O)(=O)C=1C2=C(C=CC1Cl)C=C(Cl)C=N2", "physical_data": {"Molecular Weight": "242.06", "Molecular Formula": "C10H5Cl2NO2", "Melting Point": "274 \u00b0C"}}