{"cas_no": "841-06-5", "cn_name": "\u7532\u6c27\u4e19\u51c0", "en_name": ["Methoprotryne", "1,3,5-Triazine-2,4-diamine, N2-(3-methoxypropyl)-N4-(1-methylethyl)-6-(methylthio)-", "s-Triazine, 2-(isopropylamino)-4-[(3-methoxypropyl)amino]-6-(methylthio)-", "1,3,5-Triazine-2,4-diamine, N-(3-methoxypropyl)-N\u2032-(1-methylethyl)-6-(methylthio)-", "N2-(3-Methoxypropyl)-N4-(1-methylethyl)-6-(methylthio)-1,3,5-triazine-2,4-diamine", "G 36393", "2-Isopropylamino-4-(3-methoxypropylamino)-6-methylthio-s-triazine", "Methoproptryne", "Gesaran 25", "Methotryne", "2-(Methylthio)-4-(isopropylamino)-6-(3-methoxypropylamino)-s-triazine", "2-Methylthio-4-isopropylamino-6-(\u03b3-methoxypropyl)amino-1,3,5-triazine", "2-Methylthio-4-isopropylamino-6-(\u03b3-methoxypropylamino)-s-triazine", "Methoprotryne", "Metoprotryn", "Methoprotryn", "Metoprotryne", "Gesaran", "2-Isopropylamino-4-(\u03b3-methoxypropylamino)-6-methylthiotriazine"], "SMILES": "N(C(C)C)C=1N=C(NCCCOC)N=C(SC)N1", "physical_data": {"Molecular Weight": "271.38", "Molecular Formula": "C11H21N5OS", "Melting Point": "68-70 \u00b0C", "Density": "1.186 g/cm\u00b3 @ Temp: 20 \u00b0C"}}