{"cas_no": "841-32-7", "cn_name": "2,2-\u4e8c\u82ef\u57fa\u620a\u9178", "en_name": ["\u03b1-Phenyl-\u03b1-propylbenzeneacetic acid", "Benzeneacetic acid, \u03b1-phenyl-\u03b1-propyl-", "Valeric acid, 2,2-diphenyl-", "\u03b1-Phenyl-\u03b1-propylbenzeneacetic acid", "SKF 2314", "Diphenylpropylacetic acid", "2,2-Diphenylpentanoic acid", "2,2-Diphenylvaleric acid", "NSC 88046"], "SMILES": "C(CCC)(C(O)=O)(C1=CC=CC=C1)C2=CC=CC=C2", "physical_data": {"Molecular Weight": "254.32", "Molecular Formula": "C17H18O2", "Melting Point": "155.5 \u00b0C"}}