{"cas_no": "841-77-0", "cn_name": "\u4e8c\u82ef\u7532\u57fa\u54cc\u55ea", "en_name": ["Benzhydrylpiperazine", "Piperazine, 1-(diphenylmethyl)-", "1-(Diphenylmethyl)piperazine", "Norcyclizine", "Benzhydrylpiperazine", "N-Benzhydrylpiperazine", "1-Benzhydrylpiperazine", "N-(Diphenylmethyl)piperazine", "4-(Diphenylmethyl)piperazine", "4-Benzhydrylpiperazine", "NSC 35536"], "SMILES": "C(C1=CC=CC=C1)(C2=CC=CC=C2)N3CCNCC3", "physical_data": {"Molecular Weight": "252.35", "Molecular Formula": "C17H20N2", "Boiling Point": "189-190 \u00b0C @ Press: 1 Torr", "Melting Point": "70-72 \u00b0C"}}