{"cas_no": "84100-84-5", "cn_name": "2,3,3-\u4e09\u7532\u57fa-3H-\u5432\u54da-5-\u7fa7\u9178", "en_name": ["2,3,3-Trimethyl-3H-indole-5-carboxylic acid", "3H-Indole-5-carboxylic acid, 2,3,3-trimethyl-", "2,3,3-Trimethyl-3H-indole-5-carboxylic acid", "2,3,3-Trimethyl-5-carboxyindolenine", "5-Carboxyl-2,3,3-trimethyl-3H-indolenine"], "SMILES": "CC1(C)C=2C(N=C1C)=CC=C(C(O)=O)C2", "physical_data": {"Molecular Weight": "203.24", "Molecular Formula": "C12H13NO2", "Melting Point": "208-210 \u00b0C"}}