{"cas_no": "84104-71-2", "cn_name": "\u96f7\u516c\u85e4\u5185\u916f\u7532", "en_name": ["Wilforlide A", "Olean-12-en-29-oic acid, 3,22-dihydroxy-, \u03b3-lactone, (3\u03b2,20\u03b1,22\u03b1)-", "4,2-(Epoxymethano)picene, olean-12-en-29-oic acid deriv.", "Wilforlide A", "Abruslactone A", "Regelide", "(-)-Abruslactone A"], "SMILES": "CC12C(C3C(C)(CC1)C4CC(C)(C3)C(=O)O4)=CCC5C2(C)CCC6C5(C)CCC(O)C6(C)C", "physical_data": {"Molecular Weight": "454.68", "Molecular Formula": "C30H46O3", "Melting Point": "318-320 \u00b0C"}}