{"cas_no": "84110-40-7", "cn_name": "\u5f02\u4e01\u57fa\u787c\u9178", "en_name": ["2-Methylpropylboronic acid", "Boronic acid, B-(2-methylpropyl)-", "Boronic acid, (2-methylpropyl)-", "1-Propaneboronic acid, 2-methyl-", "B-(2-Methylpropyl)boronic acid", "Isobutylboric acid", "Isobutyl boronic acid", "2-Methylpropylboronic acid"], "SMILES": "C(B(O)O)C(C)C", "physical_data": {"Molecular Weight": "101.94", "Molecular Formula": "C4H11BO2", "Melting Point": "104 \u00b0C"}}