{"cas_no": "84145-43-7", "cn_name": "1-(4-\u7532\u6c27\u57fa\u82ef\u57fa)\u54cc\u55ea\u76d0\u9178\u76d0", "en_name": ["Piperazine, 1-(4-methoxyphenyl)-, hydrochloride (1:1)", "Piperazine, 1-(4-methoxyphenyl)-, hydrochloride (1:1)", "Piperazine, 1-(4-methoxyphenyl)-, monohydrochloride", "1-(4-Methoxyphenyl)piperazine hydrochloride", "1-(Para-methoxyphenyl)piperazine hydrochloride"], "SMILES": "O(C)C1=CC=C(C=C1)N2CCNCC2.Cl", "physical_data": {"Molecular Weight": "", "Molecular Formula": "C11H16N2O.ClH", "Melting Point": "240 \u00b0C"}}