{"cas_no": "84163-77-9", "cn_name": "6-\u6c1f-3-(4-\u54cc\u5576\u57fa)-1,2 \u82ef\u5e76\u5f02\u5511", "en_name": ["6-Fluoro-3-(4-piperidinyl)-1,2-benzisoxazole", "1,2-Benzisoxazole, 6-fluoro-3-(4-piperidinyl)-", "6-Fluoro-3-(4-piperidinyl)-1,2-benzisoxazole", "R 56109", "4-(6-Fluoro-1,2-benzisoxazol-3-yl)piperidine", "6-Fluoro-3-(4-piperidinyl)benzisoxazole", "6-Fluoro-3-(piperidin-4-yl)benzo[d]isoxazole", "3-(4-Piperidinyl)-6-fluorobenzo[d]isoxazole", "4-(6-Fluorobenzo[d]isoxazol-3-yl)piperidine", "6-Fluoro-3-(piperidin-4-yl)benz[d]isoxazole"], "SMILES": "FC=1C=C2C(C(=NO2)C3CCNCC3)=CC1", "physical_data": {"Molecular Weight": "220.24", "Molecular Formula": "C12H13FN2O", "Melting Point": "302-306 \u00b0C"}}