{"cas_no": "84163-13-3", "cn_name": "6-\u6c1f-3-\u54cc\u5576-4-\u57fa-1,2-\u82ef\u5e76\u5f02\u5511\u76d0\u9178\u76d0", "en_name": ["6-Fluoro-3-(4-piperidinyl)-1,2-benzisoxazole hydrochloride", "1,2-Benzisoxazole, 6-fluoro-3-(4-piperidinyl)-, hydrochloride (1:1)", "1,2-Benzisoxazole, 6-fluoro-3-(4-piperidinyl)-, monohydrochloride", "4-(6-Fluoro-1,2-benzisoxazol-3-yl)piperidine hydrochloride", "6-Fluoro-3-(4-piperidinyl)-1,2-benzisoxazole hydrochloride", "6-Fluoro-3-(4-piperidinyl)benzisoxazole hydrochloride", "6-Fluoro-3-(piperidin-4-yl)benzo[d]isoxazole hydrochloride", "6-Fluoro-3-(piperidinyl-4-yl)-benzisoxazole hydrochloride", "6-Fluoro-3-(4-piperidinyl)-1,2-benzisoxazole monohydrochloride"], "SMILES": "FC=1C=C2C(C(=NO2)C3CCNCC3)=CC1.Cl", "physical_data": {"Molecular Weight": "", "Molecular Formula": "C12H13FN2O.ClH", "Melting Point": "293-295 \u00b0C"}}