{"cas_no": "842-07-9", "cn_name": "\u82cf\u4e39-1", "en_name": ["1-(Phenylazo)-2-naphthol", "2-Naphthalenol, 1-(2-phenyldiazenyl)-", "C.I. Solvent Yellow 14", "2-Naphthalenol, 1-(phenylazo)-", "Sudan Yellow", "2-Naphthol, 1-phenylazo-", "1-(2-Phenyldiazenyl)-2-naphthalenol", "C.I. 12055", "Brasilazina Oil Orange", "Calcogas Orange NC", "Ceres Orange R", "Dispersol Yellow PP", "Enial Orange I", "Fast Oil Orange I", "Fast Orange", "Fat Orange G", "Fat Orange I", "Fat Orange R", "Fat Orange 4A", "Fat Orange RS", "Grasal Orange", "Grasan Orange R", "Hidaco Oil Orange", "Lacquer Orange VG", "Oil Orange", "Oil Orange E", "Oil Orange R", "Oil Orange Z-7078", "Oil Orange 2B", "Oil Orange 31", "Oil Orange 2311", "Oil Orange 7078-V", "Oil Orange PEL", "Oleal Orange R", "Orange R Fat Soluble", "Orange 3RA Soluble in Grease", "Organol Orange", "Orient Oil Orange PS", "Petrol Orange Y", "Plastoresin Orange F 4A", "Resinol Orange R", "Silotras Orange TR", "Solvent Yellow 14", "Somalia Orange I", "Stearix Orange", "Sudan 1", "Sudan Orange R", "Sudan Orange RA New", "Tertrogras Orange SV", "Toyo Oil Orange", "Waxoline Yellow I", "Waxoline Yellow IM", "Waxoline Yellow IP", "Waxoline Yellow IS", "Sudan I", "1-(Phenylazo)-2-naphthol", "Orange Pel", "1-Benzeneazo-2-naphthol", "Benzeneazo-\u03b2-naphthol", "1-Phenylazo-\u03b2-naphthol", "Sudan Orange RA", "Fat Soluble Orange", "Oil Soluble Orange", "2-Hydroxynaphthyl-1-azobenzene", "2-Hydroxy-1-(phenylazo)naphthalene", "\u03b1-Phenylazo-\u03b2-naphthol", "Morton Orange Y", "1-(Phenylazo)-2-hydroxynaphthalene", "1-(2-Hydroxynaphthyl)azobenzene", "Oil orange PS", "1-Phenylazo-2-naphthalenol", "Waxoline Orange EP-FW", "Sudan Orange 220", "C.I. Disperse Yellow 97", "Disperse Yellow 97", "Orange JLS-PS", "NSC 11227", "NSC 51524", "Fat Orange R 01", "Oil Orange 5101", "Sudan Red I", "Dispersol Fast Orange B", "Oil Soluble Yellow R"], "SMILES": "N(=NC1=CC=CC=C1)C=2C3=C(C=CC2O)C=CC=C3", "physical_data": {"Molecular Weight": "248.28", "Molecular Formula": "C16H12N2O", "Melting Point": "134 \u00b0C", "Density": "1.1055 g/cm\u00b3 @ Temp: 17.2 \u00b0C"}}