{"cas_no": "84225-95-6", "cn_name": "\u96f7\u6c2f\u5fc5\u5229", "en_name": ["Raclopride", "Benzamide, 3,5-dichloro-N-[[(2S)-1-ethyl-2-pyrrolidinyl]methyl]-2-hydroxy-6-methoxy-", "Benzamide, 3,5-dichloro-N-[(1-ethyl-2-pyrrolidinyl)methyl]-2-hydroxy-6-methoxy-, (S)-", "3,5-Dichloro-N-[[(2S)-1-ethyl-2-pyrrolidinyl]methyl]-2-hydroxy-6-methoxybenzamide", "FLA 870", "Raclopride", "(-)-Raclopride", "(S)-3,5-Dichloro-N-((1-ethylpyrrolidin-2-yl)methyl)-2-hydroxy-6-methoxybenzamide", "3,5-Dichloro-N-[[(2S)-1-ethylpyrrolidin-2-yl]methyl]-2-hydroxy-6-methoxybenzamide"], "SMILES": "C(NCC1N(CC)CCC1)(=O)C2=C(OC)C(Cl)=CC(Cl)=C2O", "physical_data": {"Molecular Weight": "347.24", "Molecular Formula": "C15H20Cl2N2O3", "Melting Point": "49-50 \u00b0C"}}