{"cas_no": "84236-26-0", "cn_name": "\u8418\u666e\u751f\u6742\u8d28", "en_name": ["(+)-Bromonaproxen", "2-Naphthaleneacetic acid, 5-bromo-6-methoxy-\u03b1-methyl-, (\u03b1S)-", "2-Naphthaleneacetic acid, 5-bromo-6-methoxy-\u03b1-methyl-, (S)-", "(\u03b1S)-5-Bromo-6-methoxy-\u03b1-methyl-2-naphthaleneacetic acid", "(+)-5-Bromo-6-methoxy-\u03b1-methyl-2-naphthaleneacetic acid", "(+)-Bromonaproxen", "S-(+)-2-(5-Bromo-6-Methoxy-2-Naphthyl)propionic Acid", "(S)-2-(5-Bromo-6-methoxy-2-naphthyl)propanoic acid"], "SMILES": "BrC=1C2=C(C=C(C(C(O)=O)C)C=C2)C=CC1OC", "physical_data": {"Molecular Weight": "309.16", "Molecular Formula": "C14H13BrO3", "Melting Point": "155-157 \u00b0C"}}