{"cas_no": "84254-97-7", "cn_name": "N-\u82c4\u57fa-4-\u6c30\u57fa-4-(1-\u54cc\u5576)-\u54cc\u5576", "en_name": ["1\u2032-(Phenylmethyl)[1,4\u2032-bipiperidine]-4\u2032-carbonitrile", "[1,4\u2032-Bipiperidine]-4\u2032-carbonitrile, 1\u2032-(phenylmethyl)-", "[1,4\u2032-Bipiperidine]-4\u2032-carbonitrile, 1\u2032-benzyl-", "1\u2032-(Phenylmethyl)[1,4\u2032-bipiperidine]-4\u2032-carbonitrile", "1\u2032-Benzyl-[1,4\u2032-bipiperidine]-4\u2032-carbonitrile", "1-Benzyl-4-(piperidin-1-yl)piperidine-4-carbonitrile", "1-Benzyl-4-piperidin-1-ylpiperidine-4-carbonitrile"], "SMILES": "C(#N)C1(CCN(CC2=CC=CC=C2)CC1)N3CCCCC3", "physical_data": {"Molecular Weight": "283.41", "Molecular Formula": "C18H25N3", "Melting Point": "104-106 \u00b0C"}}