{"cas_no": "843-55-0", "cn_name": "\u53cc\u915aZ", "en_name": ["1,1-Bis(4-hydroxyphenyl)cyclohexane", "Phenol, 4,4\u2032-cyclohexylidenebis-", "Phenol, 4,4\u2032-cyclohexylidenedi-", "4,4\u2032-Cyclohexylidenebis[phenol]", "1,1-Bis(4-hydroxyphenyl)cyclohexane", "4,4\u2032-Cyclohexylidenediphenol", "Dian C", "Bisphenol Z", "1,1-Bis(p-Hydroxyphenyl)cyclohexane", "Antigene W", "Bis-Z", "NSC 29881", "NSC 50761", "1,1-Bis(4-hydroxyphenyl)-3,3,5-cyclohexane"], "SMILES": "OC1=CC=C(C2(CCCCC2)C3=CC=C(O)C=C3)C=C1", "physical_data": {"Molecular Weight": "268.35", "Molecular Formula": "C18H20O2", "Melting Point": "182 \u00b0C"}}