{"cas_no": "843-33-4", "cn_name": "4-(4-\u785d\u57fa\u82ef\u5076\u6c2e)\u82ef\u78f7\u4e8c\u915a", "en_name": ["4-[(4-Nitrophenyl)azo]-1,2-benzenediol", "1,2-Benzenediol, 4-[2-(4-nitrophenyl)diazenyl]-", "Pyrocatechol, 4-[(p-nitrophenyl)azo]-", "1,2-Benzenediol, 4-[(4-nitrophenyl)azo]-", "4-[2-(4-Nitrophenyl)diazenyl]-1,2-benzenediol", "3,4-Dihydroxy-4\u2032-nitroazobenzene", "4-[(4-Nitrophenyl)azo]pyrocatechol", "p-(p-Nitrophenylazo)pyrocatechol", "4-(4-Nitrophenylazo)-1,2-dihydroxybenzene", "4-[(4-Nitrophenyl)azo]-1,2-benzenediol", "4-(p-Nitrobenzeneazo)pyrocatechin", "NSC 75879"], "SMILES": "N(=NC1=CC(O)=C(O)C=C1)C2=CC=C(N(=O)=O)C=C2", "physical_data": {"Molecular Weight": "259.22", "Molecular Formula": "C12H9N3O4", "Melting Point": "232-234 \u00b0C"}}