{"cas_no": "84311-19-3", "cn_name": "N-BOC-2-\u7532\u57fa-L-\u4e1d\u6c28\u9178", "en_name": ["N-[(1,1-Dimethylethoxy)carbonyl]-2-methyl-L-serine", "L-Serine, N-[(1,1-dimethylethoxy)carbonyl]-2-methyl-", "N-[(1,1-Dimethylethoxy)carbonyl]-2-methyl-L-serine", "(S)-2-(tert-Butoxycarbonylamino)-3-hydroxy-2-methylpropanoic acid", "(2S)-2-[[(tert-Butoxy)carbonyl]amino]-3-hydroxy-2-methylpropanoic acid"], "SMILES": "N(C(C(O)=O)(CO)C)C(OC(C)(C)C)=O", "physical_data": {"Molecular Weight": "219.24", "Molecular Formula": "C9H17NO5", "Melting Point": "114-117 \u00b0C (decomp)"}}