{"cas_no": "84332-86-5", "cn_name": "\u4e59\u83cc\u5229", "en_name": ["Chlozolinate", "5-Oxazolidinecarboxylic acid, 3-(3,5-dichlorophenyl)-5-methyl-2,4-dioxo-, ethyl ester", "5-Oxazolidinecarboxylic acid, 3-(3,5-dichlorophenyl)-5-methyl-2,4-dioxo-, ethyl ester, (\u00b1)-", "Serinal", "Serinal (pesticide)", "Dichlozolinate", "Chlozolinate", "M 8164", "SDS 65311"], "SMILES": "O=C1N(C(=O)OC1(C(OCC)=O)C)C2=CC(Cl)=CC(Cl)=C2", "physical_data": {"Molecular Weight": "332.14", "Molecular Formula": "C13H11Cl2NO5", "Melting Point": "112.6 \u00b0C"}}