{"cas_no": "84348-37-8", "cn_name": "N-Boc-4-\u6c27\u4ee3-L-\u812f\u6c28\u9178", "en_name": ["1-(1,1-Dimethylethyl) (2S)-4-oxo-1,2-pyrrolidinedicarboxylate", "1,2-Pyrrolidinedicarboxylic acid, 4-oxo-, 1-(1,1-dimethylethyl) ester, (2S)-", "1,2-Pyrrolidinedicarboxylic acid, 4-oxo-, 1-(1,1-dimethylethyl) ester, (S)-", "1-(1,1-Dimethylethyl) (2S)-4-oxo-1,2-pyrrolidinedicarboxylate", "N-tert-Butoxycarbonyl-4-oxo-L-proline", "(2S)-1-(tert-Butoxycarbonyl)-4-oxo-2-pyrrolidinecarboxylic acid", "(2S)-1-(tert-Butoxycarbonyl)-4-oxo-2-pyrrolidinecarboxylic acid", "N-tert-Butoxycarbonyl-4-keto-L-proline", "1-(tert-Butoxycarbonyl)-4-oxo-L-proline", "(S)-1-(tert-Butoxycarbonyl)-4-oxopyrrolidine-2-carboxylic acid", "N-Boc-4-oxo-L-proline"], "SMILES": "C(OC(C)(C)C)(=O)N1C(C(O)=O)CC(=O)C1", "physical_data": {"Molecular Weight": "229.23", "Molecular Formula": "C10H15NO5", "Melting Point": "159-163 \u00b0C"}}