{"cas_no": "843663-66-1", "cn_name": "\u8d1d\u8fbe\u55b9\u5549", "en_name": ["Bedaquiline", "3-Quinolineethanol, 6-bromo-\u03b1-[2-(dimethylamino)ethyl]-2-methoxy-\u03b1-1-naphthalenyl-\u03b2-phenyl-, (\u03b1S,\u03b2R)-", "(\u03b1S,\u03b2R)-6-Bromo-\u03b1-[2-(dimethylamino)ethyl]-2-methoxy-\u03b1-1-naphthalenyl-\u03b2-phenyl-3-quinolineethanol", "R 207910", "TMC 207", "Bedaquiline", "Sirturo"], "SMILES": "C(C(C=1C(OC)=NC2=C(C1)C=C(Br)C=C2)C3=CC=CC=C3)(CCN(C)C)(O)C=4C5=C(C=CC4)C=CC=C5", "physical_data": {"Molecular Weight": "555.50", "Molecular Formula": "C32H31BrN2O2", "Melting Point": "104 \u00b0C"}}