{"cas_no": "84371-65-3", "cn_name": "\u7c73\u975e\u53f8\u916e", "en_name": ["Mifepristone", "Estra-4,9-dien-3-one, 11-[4-(dimethylamino)phenyl]-17-hydroxy-17-(1-propyn-1-yl)-, (11\u03b2,17\u03b2)-", "Estra-4,9-dien-3-one, 11-[4-(dimethylamino)phenyl]-17-hydroxy-17-(1-propynyl)-, (11\u03b2,17\u03b2)-", "(11\u03b2,17\u03b2)-11-[4-(Dimethylamino)phenyl]-17-hydroxy-17-(1-propyn-1-yl)estra-4,9-dien-3-one", "RU 486", "RU 38486", "RU 486-6", "R 38486", "Mifepristone", "Mifegyne", "Mifestone", "CDB 2477", "Mifeprex", "17\u03b2-Hydroxy-11\u03b2-[4-(dimethylamino)-phenyl]-17\u03b1-(prop-1-ynyl)-estra-4,9-dien-3-one", "C 1073", "VGX 410", "MTPill", "Pencrofton", "(8S,11R,13S,14S,17S)-11-[4-(Dimethylamino)phenyl]-17-hydroxy-13-methyl-17-prop-1-ynyl-1,2,6,7,8,11,12,14,15,16-decahydrocyclopenta[a]phenanthren-3-one", "MeSH ID: D015735"], "SMILES": "CC12C(C3C(C(C1)C4=CC=C(N(C)C)C=C4)=C5C(CC3)=CC(=O)CC5)CCC2(C#CC)O", "physical_data": {"Molecular Weight": "429.59", "Molecular Formula": "C29H35NO2", "Melting Point": "150 \u00b0C"}}