{"cas_no": "84380-01-8", "cn_name": "\u03b1-\u718a\u679c\u82f7", "en_name": ["\u03b1-Arbutin", "\u03b1-D-Glucopyranoside, 4-hydroxyphenyl", "4-Hydroxyphenyl \u03b1-D-glucopyranoside", "Hydroquinone O-\u03b1-D-glucopyranoside", "\u03b1-Arbutin"], "SMILES": "O(C1OC(CO)C(O)C(O)C1O)C2=CC=C(O)C=C2", "physical_data": {"Molecular Weight": "272.25", "Molecular Formula": "C12H16O7", "Melting Point": "205-208 \u00b0C"}}