{"cas_no": "84387-89-3", "cn_name": "3-\u6c28\u57fa-5-\u785d\u57fa\u82ef\u5e76\u5f02\u567b\u5511", "en_name": ["5-Nitro-1,2-benzisothiazol-3-amine", "1,2-Benzisothiazol-3-amine, 5-nitro-", "5-Nitro-1,2-benzisothiazol-3-amine", "3-Amino-5-nitrobenzisothiazole", "3-Amino-5-nitrobenzoisothiazole", "3-Amino-5-nitrobenzo[d]isothiazole", "5-Nitrobenzo[d]isothiazol-3-ylamine", "3-Amino-5-nitro-1,2-benzisothiazole"], "SMILES": "NC=1C=2C(=CC=C(N(=O)=O)C2)SN1", "physical_data": {"Molecular Weight": "195.20", "Molecular Formula": "C7H5N3O2S", "Melting Point": "225-227 \u00b0C"}}