{"cas_no": "84392-17-6", "cn_name": "4'-\u4e09\u6c1f\u7532\u57fa\u8054\u82ef-2-\u7fa7\u9178", "en_name": ["4\u2032-(Trifluoromethyl)[1,1\u2032-biphenyl]-2-carboxylic acid", "[1,1\u2032-Biphenyl]-2-carboxylic acid, 4\u2032-(trifluoromethyl)-", "4\u2032-(Trifluoromethyl)[1,1\u2032-biphenyl]-2-carboxylic acid", "4\u2032-(Trifluoromethyl)-2-biphenylcarboxylic acid", "Xenalipin", "BW 207U", "2-(4-Trifluoromethylphenyl)benzoic acid"], "SMILES": "C(O)(=O)C1=C(C=CC=C1)C2=CC=C(C(F)(F)F)C=C2", "physical_data": {"Molecular Weight": "266.22", "Molecular Formula": "C14H9F3O2", "Melting Point": "170 \u00b0C"}}