{"cas_no": "844-26-8", "cn_name": "\u6c27\u786b\u6c2f\u915a", "en_name": ["Bithionol sulfoxide", "Phenol, 2,2\u2032-sulfinylbis[4,6-dichloro-", "2,2\u2032-Sulfinylbis[4,6-dichlorophenol]", "Bis(2-hydroxy-3,5-dichlorophenyl) sulfoxide", "Bis(3,5-dichloro-2-hydroxyphenyl) sulfoxide", "Bithionol sulfoxide", "2,2\u2032-Dihydroxy-3,3\u2032,5,5\u2032-tetrachlorodiphenyl sulfoxide", "Bitin S", "3,5,3\u2032,5\u2032-Tetrachloro-2,2\u2032-dihydroxydiphenyl sulfoxide", "Distobitin", "Disto-5-Cogla", "Sulphene", "Bithionoloxide", "Levacid", "NSC 523910", "2,4-Dichloro-6-(3,5-dichloro-2-hydroxyphenyl)sulfinylphenol"], "SMILES": "S(=O)(C1=C(O)C(Cl)=CC(Cl)=C1)C2=C(O)C(Cl)=CC(Cl)=C2", "physical_data": {"Molecular Weight": "372.05", "Molecular Formula": "C12H6Cl4O3S", "Melting Point": "220 \u00b0C"}}