{"cas_no": "844-51-9", "cn_name": "2,5-\u8054\u82ef\u5bf9\u82ef\u918c", "en_name": ["2,5-Diphenyl-2,5-cyclohexadiene-1,4-dione", "2,5-Cyclohexadiene-1,4-dione, 2,5-diphenyl-", "p-Benzoquinone, 2,5-diphenyl-", "Quinone, 2,5-diphenyl-", "2,5-Diphenyl-2,5-cyclohexadiene-1,4-dione", "2,5-Diphenyl-p-benzoquinone", "2,5-Diphenyl-1,4-benzoquinone", "Stearer DPQ", "NSC 8725"], "SMILES": "O=C1C(=CC(=O)C(=C1)C2=CC=CC=C2)C3=CC=CC=C3", "physical_data": {"Molecular Weight": "260.29", "Molecular Formula": "C18H12O2", "Melting Point": "214 \u00b0C"}}