{"cas_no": "84449-90-1", "cn_name": "\u96f7\u6d1b\u6614\u82ac", "en_name": ["Raloxifene", "Methanone, [6-hydroxy-2-(4-hydroxyphenyl)benzo[b]thien-3-yl][4-[2-(1-piperidinyl)ethoxy]phenyl]-", "[6-Hydroxy-2-(4-hydroxyphenyl)benzo[b]thien-3-yl][4-[2-(1-piperidinyl)ethoxy]phenyl]methanone", "LY 139481", "Keoxifene", "Raloxifene", "[2-(4-Hydroxyphenyl)-6-hydroxybenzo[b]thien-3-yl][4-(2-(1-piperidinyl)ethoxy)phenyl]methanone", "[6-Hydroxy-2-(4-hydroxyphenyl)-1-benzothiophen-3-yl]-[4-(2-piperidin-1-ylethoxy)phenyl]methanone", "2-(4-Hydroxyphenyl)-3-[4-[2-(piperidin-1-yl)ethoxy]benzoyl]-1-benzothiophen-6-ol", "NSC 747974", "MeSH ID: D020849"], "SMILES": "C(=O)(C1=C(SC=2C1=CC=C(O)C2)C3=CC=C(O)C=C3)C4=CC=C(OCCN5CCCCC5)C=C4", "physical_data": {"Molecular Weight": "473.58", "Molecular Formula": "C28H27NO4S", "Melting Point": "143-147 \u00b0C"}}