{"cas_no": "84449-80-9", "cn_name": "4-[2-(1-\u5421\u54af\u70f7\u57fa)\u4e59\u6c27\u57fa]\u82ef\u7532\u9178\u76d0\u9178\u76d0", "en_name": ["Benzoic acid, 4-[2-(1-piperidinyl)ethoxy]-, hydrochloride (1:1)", "Benzoic acid, 4-[2-(1-piperidinyl)ethoxy]-, hydrochloride (1:1)", "Benzoic acid, 4-[2-(1-piperidinyl)ethoxy]-, hydrochloride", "4-(2-Piperidinoethoxy)benzoic acid hydrochloride", "4-[2-(1-Piperidinyl)ethoxy]benzoic acid hydrochloride", "1-(2-(4-Carboxyphenoxy)ethyl)piperidin-1-ium chloride"], "SMILES": "O(CCN1CCCCC1)C2=CC=C(C(O)=O)C=C2.Cl", "physical_data": {"Molecular Weight": "", "Molecular Formula": "C14H19NO3.ClH", "Melting Point": "276-277 \u00b0C"}}