{"cas_no": "84468-24-6", "cn_name": "1-(5-\u5f02\u55b9\u5549\u78fa\u9170\u57fa)\u54cc\u55ea\u76d0\u9178\u76d0", "en_name": ["1-(5-Isoquinolinylsulfonyl)piperazine", "Isoquinoline, 5-(1-piperazinylsulfonyl)-", "Piperazine, 1-(5-isoquinolinylsulfonyl)-", "5-(1-Piperazinylsulfonyl)isoquinoline", "HA 100 (pharmaceutical)", "HA 100", "1-(5-Isoquinolinylsulfonyl)piperazine"], "SMILES": "S(=O)(=O)(C=1C2=C(C=CC1)C=NC=C2)N3CCNCC3", "physical_data": {"Molecular Weight": "277.34", "Molecular Formula": "C13H15N3O2S", "Melting Point": "162 \u00b0C"}}