{"cas_no": "84478-72-8", "cn_name": "5-\u6c28\u57fa-2-\u6c2f-4-\u6c1f\u82ef\u915a", "en_name": ["5-Amino-2-chloro-4-fluorophenol", "Phenol, 5-amino-2-chloro-4-fluoro-", "5-Amino-2-chloro-4-fluorophenol", "2-Chloro-4-fluoro-5-aminophenol", "4-Chloro-2-fluoro-5-hydroxyaniline", "2-Fluoro-4-chloro-5-hydroxyaniline"], "SMILES": "ClC1=C(O)C=C(N)C(F)=C1", "physical_data": {"Molecular Weight": "161.56", "Molecular Formula": "C6H5ClFNO", "Melting Point": "145-146 \u00b0C (decomp)"}}