{"cas_no": "84487-14-9", "cn_name": "2-\u6eb4-3-\u785d\u57fa\u5421\u5576-4-\u80fa", "en_name": ["2-Bromo-3-nitro-4-pyridinamine", "4-Pyridinamine, 2-bromo-3-nitro-", "Pyridine, 4-amino-2-bromo-3-nitro-", "2-Bromo-3-nitro-4-pyridinamine", "4-Amino-2-bromo-3-nitropyridine", "2-Bromo-3-nitropyridin-4-amine", "2-Bromo-3-nitropyridine-4-amine"], "SMILES": "N(=O)(=O)C=1C(N)=CC=NC1Br", "physical_data": {"Molecular Weight": "218.01", "Molecular Formula": "C5H4BrN3O2", "Melting Point": "197 \u00b0C"}}