{"cas_no": "844891-04-9", "cn_name": "1,3,5-\u4e09\u7532\u57fa-4-(4,4,5,5-\u56db\u7532\u57fa-1,3,2-\u4e8c\u6c27\u787c\u70f7-2-\u57fa)-1H-\u5421\u5511", "en_name": ["1,3,5-Trimethyl-4-(4,4,5,5-tetramethyl-1,3,2-dioxaborolan-2-yl)-1H-pyrazole", "1H-Pyrazole, 1,3,5-trimethyl-4-(4,4,5,5-tetramethyl-1,3,2-dioxaborolan-2-yl)-", "1,3,5-Trimethyl-4-(4,4,5,5-tetramethyl-1,3,2-dioxaborolan-2-yl)-1H-pyrazole", "(1,3,5-Trimethyl-1H-pyrazol-4-yl)boronic acid pinacol ester", "2-(1,3,5-Trimethylpyrazol-4-yl)-4,4,5,5-tetramethyl-1,3,2-dioxaborolane", "1,3,5-Trimethyl-4-(4,4,5,5-tetramethyl-1,3,2-dioxaborolan-2-yl)pyrazole", "1,3,5-Trimethyl-4-(tetramethyl-1,3,2-dioxaborolan-2-yl)-1H-pyrazole", "1,3,5-Trimethyl-1H-pyrazole-4-boronic acid pinacol ester"], "SMILES": "CC1=C(C(C)=NN1C)B2OC(C)(C)C(C)(C)O2", "physical_data": {"Molecular Weight": "236.12", "Molecular Formula": "C12H21BN2O2", "Melting Point": "98-100 \u00b0C"}}