{"cas_no": "84496-56-0", "cn_name": "\u6c2f\u7532\u9170\u8349\u80fa", "en_name": ["Clomeprop", "Propanamide, 2-(2,4-dichloro-3-methylphenoxy)-N-phenyl-", "2-(2,4-Dichloro-3-methylphenoxy)-N-phenylpropanamide", "2-(2,4-Dichloro-3-methylphenoxy)propionanilide", "Clomeprop", "\u03b1-(2,4-Dichloro-3-methylphenoxy)propionic acid anilide", "MY 15"], "SMILES": "O(C(C(NC1=CC=CC=C1)=O)C)C2=C(Cl)C(C)=C(Cl)C=C2", "physical_data": {"Molecular Weight": "324.20", "Molecular Formula": "C16H15Cl2NO2", "Melting Point": "146.5 \u00b0C"}}