{"cas_no": "84501-67-7", "cn_name": "1-(2-\u6eb4\u4e59\u57fa)-4-\u4e59\u57fa-1,4-\u4e8c\u6c22-5H-\u56db\u5511-5-\u916e", "en_name": ["1-(2-Bromoethyl)-4-ethyl-1,4-dihydro-5H-tetrazol-5-one", "5H-Tetrazol-5-one, 1-(2-bromoethyl)-4-ethyl-1,4-dihydro-", "1-(2-Bromoethyl)-4-ethyl-1,4-dihydro-5H-tetrazol-5-one", "1-(2-Bromoethyl)-4-ethyl-1,4-dihydro-5H-tetrazole-5-one", "1-(2-Bromoethyl)-4-ethyltetrazol-5-one", "1-(2-Bromoethyl)-4-ethyl-4,5-dihydro-1H-1,2,3,4-tetrazol-5-one", "2-(4-Ethyl-4,5-dihydro-5-oxo-1H-tetrazol-1-yl)ethyl bromide"], "SMILES": "C(CBr)N1C(=O)N(CC)N=N1", "physical_data": {"Molecular Weight": "221.06", "Molecular Formula": "C5H9BrN4O", "Boiling Point": "90-93 \u00b0C @ Press: 1 Torr"}}