{"cas_no": "84501-64-4", "cn_name": "\u54cc\u55ea-2-\u7532\u9170\u80fa", "en_name": ["2-Piperazinecarboxamide", "2-Piperazinecarboxamide", "2-Carbamoylpiperazine"], "SMILES": "C(N)(=O)C1CNCCN1", "physical_data": {"Molecular Weight": "129.16", "Molecular Formula": "C5H11N3O", "Melting Point": "144-145 \u00b0C"}}