{"cas_no": "84504-69-8", "cn_name": "\u9a6c\u6765\u9178\u4f0a\u7d22\u62c9\u5b9a", "en_name": ["1,3,5-Triazine-2,4-diamine, 6-(2,5-dichlorophenyl)-, (2Z)-2-butenedioate (1:1)", "1,3,5-Triazine-2,4-diamine, 6-(2,5-dichlorophenyl)-, (2Z)-2-butenedioate (1:1)", "1,3,5-Triazine-2,4-diamine, 6-(2,5-dichlorophenyl)-, (Z)-2-butenedioate (1:1)", "MN 1695", "2,4-Diamino-6-(2,5-dichlorophenyl)-s-triazine maleate", "Irsogladine maleate", "Gaslon", "Gaslon N"], "SMILES": "C(=CC(O)=O)C(O)=O.ClC1=C(C=2N=C(N)N=C(N)N2)C=C(Cl)C=C1", "physical_data": {"Molecular Weight": "", "Molecular Formula": "C9H7Cl2N5.C4H4O4", "Melting Point": "205 \u00b0C (decomp)"}}