{"cas_no": "84531-36-2", "cn_name": "3-\u785d\u57fa-6,7-\u4e8c\u6c22-5-\u6c22-\u73af\u620a\u70f7[B]\u5421\u5576", "en_name": ["6,7-Dihydro-3-nitro-5H-cyclopenta[b]pyridine", "5H-Cyclopenta[b]pyridine, 6,7-dihydro-3-nitro-", "5H-1-Pyrindine, 6,7-dihydro-3-nitro-", "6,7-Dihydro-3-nitro-5H-cyclopenta[b]pyridine", "3-Nitro-6,7-dihydro-5H-cyclopenta[b]pyridine", "3-Nitro-5H,6H,7H-cyclopenta[b]pyridine"], "SMILES": "N(=O)(=O)C=1C=C2C(=NC1)CCC2", "physical_data": {"Molecular Weight": "164.16", "Molecular Formula": "C8H8N2O2", "Melting Point": "94-95 \u00b0C"}}