{"cas_no": "84547-85-3", "cn_name": "1-(N-\u7532\u57fa)-4-\u6c2f-3-\u5421\u5511\u7532\u9178", "en_name": ["4-Chloro-1-methyl-1H-pyrazole-3-carboxylic acid", "1H-Pyrazole-3-carboxylic acid, 4-chloro-1-methyl-", "4-Chloro-1-methyl-1H-pyrazole-3-carboxylic acid"], "SMILES": "C(O)(=O)C1=NN(C)C=C1Cl", "physical_data": {"Molecular Weight": "160.56", "Molecular Formula": "C5H5ClN2O2", "Melting Point": "219-221 \u00b0C"}}