{"cas_no": "84540-47-6", "cn_name": "2,6-\u4e8c\u7f9f\u57fa-3,4-\u4e8c\u7532\u57fa\u5421\u5576", "en_name": ["2,6-Dihydroxy-3,4-dimethylpyridine", "2(1H)-Pyridinone, 6-hydroxy-4,5-dimethyl-", "2(1H)-Pyridinone, 6-hydroxy-3,4-dimethyl-", "6-Hydroxy-4,5-dimethyl-2(1H)-pyridinone", "2,6-Dihydroxy-3,4-dimethylpyridine"], "SMILES": "CC1=C(C)C=C(O)NC1=O", "physical_data": {"Molecular Weight": "139.15", "Molecular Formula": "C7H9NO2", "Melting Point": "187 \u00b0C"}}