{"cas_no": "84547-87-5", "cn_name": "4-\u6c2f-1H-\u5421\u5511-3-\u7fa7\u9178", "en_name": ["4-Chloro-1H-pyrazole-3-carboxylic acid", "1H-Pyrazole-3-carboxylic acid, 4-chloro-", "4-Chloro-1H-pyrazole-3-carboxylic acid", "4-Chloro-3-pyrazolecarboxylic acid"], "SMILES": "C(O)(=O)C=1C(Cl)=CNN1", "physical_data": {"Molecular Weight": "146.53", "Molecular Formula": "C4H3ClN2O2", "Melting Point": "250 \u00b0C"}}