{"cas_no": "84547-84-2", "cn_name": "4-\u6eb4-2-\u7532\u57fa-2H-\u5421\u5511-3-\u7fa7\u9178", "en_name": ["4-Bromo-1-methyl-1H-pyrazole-5-carboxylic acid", "1H-Pyrazole-5-carboxylic acid, 4-bromo-1-methyl-", "Pyrazole-5-carboxylic acid, 4-bromo-1-methyl-", "4-Bromo-1-methyl-1H-pyrazole-5-carboxylic acid", "4-Bromopyrazole-1-methyl-5-carboxylic acid", "1-Methyl-4-bromopyrazole-5-carboxylic acid", "4-Bromo-2-methyl-2H-pyrazole-3-carboxylic acid"], "SMILES": "C(O)(=O)C1=C(Br)C=NN1C", "physical_data": {"Molecular Weight": "205.01", "Molecular Formula": "C5H5BrN2O2", "Melting Point": "235-236 \u00b0C"}}