{"cas_no": "84540-57-8", "cn_name": "\u4e19\u4e8c\u9187\u5355\u7532\u919a\u4e59\u9178\u916f", "en_name": ["Propylene glycol methyl ether acetate", "Propanol, 1(or 2)-methoxy-, acetate", "Propanol, methoxy-, acetate", "Propylene glycol methyl ether acetate", "Methoxypropanol acetate", "Propylene glycol monomethyl ether acetate", "PM Acetate", "PGMEA", "1,2-Propanediol monoacetate monomethyl ether", "Methoxypropyl acetate", "Isopropylene glycol monomethyl ether acetate", "Dowanol PMA-C", "PGMAC", "Bawanol PMA", "Nano XP", "Lunazard", "MFGAc", "PMA-P", "MMPG-AC", "PMA", "Dowanol PM acetate", "Arcosolv PM acetate", "Dowanol PMA-MPA", "R 4102", "Bannernol G"], "SMILES": "", "physical_data": {"Molecular Weight": "", "Molecular Formula": "C6H12O3", "Boiling Point": "146 \u00b0C"}}