{"cas_no": "84547-64-8", "cn_name": "3-(\u6c2f\u7532\u57fa)-1-\u7532\u57fa-1H-\u5421\u5511", "en_name": ["3-(Chloromethyl)-1-methyl-1H-pyrazole", "1H-Pyrazole, 3-(chloromethyl)-1-methyl-", "3-(Chloromethyl)-1-methyl-1H-pyrazole", "3-Chloromethyl-1-methylpyrazole", "3-Chloromethyl-1-methyl-1H-pyrazole"], "SMILES": "C(Cl)C1=NN(C)C=C1", "physical_data": {"Molecular Weight": "130.58", "Molecular Formula": "C5H7ClN2", "Boiling Point": "146-148 \u00b0C"}}