{"cas_no": "84540-59-0", "cn_name": "3-\u785d\u57fa-4-\u7532\u57fa\u82c4\u6c2f", "en_name": ["4-(Chloromethyl)-1-methyl-2-nitrobenzene", "Benzene, 4-(chloromethyl)-1-methyl-2-nitro-", "p-Xylene, \u03b14-chloro-2-nitro-", "4-(Chloromethyl)-1-methyl-2-nitrobenzene", "4-Methyl-3-nitrobenzyl chloride", "4-Chloromethyl-1-methyl-2-nitro-benzene"], "SMILES": "N(=O)(=O)C1=CC(CCl)=CC=C1C", "physical_data": {"Molecular Weight": "185.61", "Molecular Formula": "C8H8ClNO2", "Melting Point": "45 \u00b0C"}}