{"cas_no": "84551-43-9", "cn_name": "\u53cd\u5f0f-1,2-\u53cc(\u5168\u6c1f-N-\u4e01\u57fa)\u4e59\u70ef", "en_name": ["1,1,1,2,2,3,3,4,4,7,7,8,8,9,9,10,10,10-Octadecafluoro-5-decene", "5-Decene, 1,1,1,2,2,3,3,4,4,7,7,8,8,9,9,10,10,10-octadecafluoro-", "1,1,1,2,2,3,3,4,4,7,7,8,8,9,9,10,10,10-Octadecafluoro-5-decene", "Bis(perfluorobutyl)ethene", "F 44E", "Octadecafluoro-5-decene", "Therox", "1,2-Bis(perfluorobutyl)ethylene", "1,2-Bis(nonafluorobutyl)ethylene"], "SMILES": "C(C(C(F)(F)F)(F)F)(C(C=CC(C(C(C(F)(F)F)(F)F)(F)F)(F)F)(F)F)(F)F", "physical_data": {"Molecular Weight": "464.09", "Molecular Formula": "C10H2F18", "Boiling Point": "150 \u00b0C"}}