{"cas_no": "84573-16-0", "cn_name": "\u695d\u9170\u80fa", "en_name": ["(1R,2R,3S,3aR,8bS)-2,3,3a,8b-Tetrahydro-1,8b-dihydroxy-6,8-dimethoxy-3a-(4-methoxyphenyl)-N,N-dimethyl-3-phenyl-1H-cyclopenta[b]benzofuran-2-carboxamide", "1H-Cyclopenta[b]benzofuran-2-carboxamide, 2,3,3a,8b-tetrahydro-1,8b-dihydroxy-6,8-dimethoxy-3a-(4-methoxyphenyl)-N,N-dimethyl-3-phenyl-, (1R,2R,3S,3aR,8bS)-", "1H-Cyclopenta[b]benzofuran-2-carboxamide, 2,3,3a,8b-tetrahydro-1,8b-dihydroxy-6,8-dimethoxy-3a-(4-methoxyphenyl)-N,N-dimethyl-3-phenyl-, [1R-(1\u03b1,2\u03b1,3\u03b2,3a\u03b2,8b\u03b2)]-", "(1R,2R,3S,3aR,8bS)-2,3,3a,8b-Tetrahydro-1,8b-dihydroxy-6,8-dimethoxy-3a-(4-methoxyphenyl)-N,N-dimethyl-3-phenyl-1H-cyclopenta[b]benzofuran-2-carboxamide", "Rocaglamide", "NSC 326408", "Roc-A", "Rocaglamide A", "(-)-Rocaglamide"], "SMILES": "OC12C(C(C(C(N(C)C)=O)C1O)C3=CC=CC=C3)(OC=4C2=C(OC)C=C(OC)C4)C5=CC=C(OC)C=C5", "physical_data": {"Molecular Weight": "505.56", "Molecular Formula": "C29H31NO7", "Melting Point": "117-118 \u00b0C"}}