{"cas_no": "846-48-0", "cn_name": "\u5b9d\u4e39\u916e", "en_name": ["Boldenone", "Androsta-1,4-dien-3-one, 17-hydroxy-, (17\u03b2)-", "Androsta-1,4-dien-3-one, 17\u03b2-hydroxy-", "(17\u03b2)-17-Hydroxyandrosta-1,4-dien-3-one", "17\u03b2-Hydroxyandrosta-1,4-dien-3-one", "1,4-Androstadien-17\u03b2-ol-3-one", "Androsta-1,4-diene-17\u03b2-ol-3-one", "1,2-Dehydrotestosterone", "1-Dehydrotestosterone", "1,2-Didehydrotestosterone", "17\u03b2-Hydroxyandrost-1,4-diene-3-one", "Boldenone", "Dehydrotestosterone", "\u03941-Testosterone", "17\u03b2-Hydroxy-1,4-androstadiene-3-one", "17\u03b2-Hydroxyandrost-1,4-dien-3-one", "RU 18761", "\u03b2-Boldenone", "NSC 79102", "Boldane", "17\u03b2-Boldenone"], "SMILES": "CC12C3C(C4C(C)(CC3)C(O)CC4)CCC1=CC(=O)C=C2", "physical_data": {"Molecular Weight": "286.41", "Molecular Formula": "C19H26O2", "Melting Point": "165 \u00b0C"}}