{"cas_no": "846-49-1", "cn_name": "\u52b3\u62c9\u897f\u6cee", "en_name": ["Lorazepam", "2H-1,4-Benzodiazepin-2-one, 7-chloro-5-(2-chlorophenyl)-1,3-dihydro-3-hydroxy-", "2H-1,4-Benzodiazepin-2-one, 7-chloro-5-(o-chlorophenyl)-1,3-dihydro-3-hydroxy-", "7-Chloro-5-(2-chlorophenyl)-1,3-dihydro-3-hydroxy-2H-1,4-benzodiazepin-2-one", "7-Chloro-5-(o-chlorophenyl)-1,3-dihydro-3-hydroxy-2H-1,4-benzodiazepin-2-one", "Wy 4036", "Lorazepam", "Demethyllormetazepam", "o-Chlorooxazepam", "o-Chloroxazepam", "Temesta", "Tavor", "Ativan", "Wypax", "Norlormetazepam", "Delormetazepam", "(\u00b1)-Lorazepam", "(RS)-Lorazepam", "Almazine", "Orfidal", "Apo-Lorazepam", "Lorapam", "Larpose", "Aplacassee", "Novo-lorazem", "Loram", "Lorabenz", "Merlit", "Lorenin", "Wintin", "Renaquil", "Bonatranquan", "Lorat", "Novhepar", "Upan", "Lorazep", "Lorax", "Lorsedal", "Efasedan", "Sedatival", "Sidenar", "Nervistop L", "Duralozam", "Lorans", "Punktyl", "Lorazene", "Lozepam", "Sedizepan", "Loridem", "Bonton", "Anxiedin", "Lopam", "Laubeel", "Silence", "Azurogen", "Anxira", "Anzepam", "Aripax", "Lorazon", "Equitam", "Trapax", "Kalmalin", "Lorzem", "Lorivan", "Aplacasse", "Lorazin", "Rocosgen", "Tranqipam", "Sinestron", "Reposepan", "Stapam", "Control", "NIC", "Trapex", "Titus", "Emotival", "Psicopax", "Securit", "Sedazin", "Quait", "Somagerol", "Pro Dorm", "Lorsilan", "NSC 289758", "Tavor Expidet", "Lorazem", "7-Chloro-5-(2-chlorophenyl)-3-hydroxy-1H-1,4-benzodiazepin-2(3H)-one", "MeSH ID: D008140"], "SMILES": "ClC1=C(C=2C=3C(NC(=O)C(O)N2)=CC=C(Cl)C3)C=CC=C1", "physical_data": {"Molecular Weight": "321.16", "Molecular Formula": "C15H10Cl2N2O2", "Melting Point": "167 \u00b0C"}}