{"cas_no": "846-46-8", "cn_name": "5a-\u96c4\u753e\u70f7\u4e8c\u916e", "en_name": ["(5\u03b1)-Androstane-3,17-dione", "Androstane-3,17-dione, (5\u03b1)-", "5\u03b1-Androstane-3,17-dione", "5\u03b1-Androstanedione", "(5\u03b1)-Androstane-3,17-dione", "Androstane-3,17-dione", "5\u03b1-Androsta-3,17-dione", "NSC 60796", "NSC 9897", "Dihydroandrostenedione", "DHA"], "SMILES": "CC12C3C(C4C(C)(CC3)C(=O)CC4)CCC1CC(=O)CC2", "physical_data": {"Molecular Weight": "288.42", "Molecular Formula": "C19H28O2", "Melting Point": "130 \u00b0C"}}