{"cas_no": "846-50-4", "cn_name": "\u66ff\u9a6c\u897f\u6cee", "en_name": ["Temazepam", "2H-1,4-Benzodiazepin-2-one, 7-chloro-1,3-dihydro-3-hydroxy-1-methyl-5-phenyl-", "7-Chloro-1,3-dihydro-3-hydroxy-1-methyl-5-phenyl-2H-1,4-benzodiazepin-2-one", "3-Hydroxydiazepam", "N-Methyloxazepam", "Ro 5-5345", "Temazepam", "7-Chloro-1,3-dihydro-1-methyl-3-hydroxy-5-phenyl-2H-1,4-benzodiazepin-2-one", "Methyloxazepam", "7-Chloro-3-hydroxy-1-methyl-2-oxo-5-phenyl-3H-1,4-benzodiazepine", "ER 115", "Oxydiazepam", "1-Methyl-3-hydroxy-5-phenyl-7-chloro-1,3-dihydro-2H-1,4-benzodiazepin-2-one", "Crisonar", "Levanxene", "Levanxol", "Wy 3917", "K 3917", "Restoril", "Normison", "Tenox", "Tenox (pharmaceutical)", "Euhypnos", "Signopam", "7-Chloro-1,3-dihydro-5-phenyl-3-hydroxy-1-methyl-2H-1,4-benzodiazepin-2-one", "(\u00b1)-Temazepam", "(RS)-Temazepam", "Racemic temazepam", "Planum", "Euipnos", "Ro 5-5354", "Gelthix", "Remestan", "Perdorm", "NSC 246303", "MeSH ID: D013693"], "SMILES": "CN1C=2C(C(=NC(O)C1=O)C3=CC=CC=C3)=CC(Cl)=CC2", "physical_data": {"Molecular Weight": "300.74", "Molecular Formula": "C16H13ClN2O2", "Melting Point": "119-121 \u00b0C"}}