{"cas_no": "846023-24-3", "cn_name": "2-\u6c30\u57fa-N-(2,4-\u4e8c\u6c2f-5-\u7532\u6c27\u82ef\u57fa)\u4e59\u9170\u80fa", "en_name": ["2-Cyano-N-(2,4-dichloro-5-methoxyphenyl)acetamide", "Acetamide, 2-cyano-N-(2,4-dichloro-5-methoxyphenyl)-", "2-Cyano-N-(2,4-dichloro-5-methoxyphenyl)acetamide", "N-(2,4-Dichloro-5-methoxyphenyl)-2-cyanoacetamide"], "SMILES": "N(C(CC#N)=O)C1=CC(OC)=C(Cl)C=C1Cl", "physical_data": {"Molecular Weight": "259.09", "Molecular Formula": "C10H8Cl2N2O2", "Melting Point": "180-181 \u00b0C"}}