{"cas_no": "84605-18-5", "cn_name": "\u73af\u9ec4\u82aa\u9187", "en_name": ["Cyclogalegenin", "9,19-Cyclolanostane-3,6,16,25-tetrol, 20,24-epoxy-, (3\u03b2,6\u03b1,16\u03b2,24R)-", "1H,19H-Cyclopropa[9,10]cyclopenta[a]phenanthrene, 9,19-cyclolanostane-3,6,16,25-tetrol deriv.", "(3\u03b2,6\u03b1,16\u03b2,24R)-20,24-Epoxy-9,19-cyclolanostane-3,6,16,25-tetrol", "Cyclogalegenin", "Cyclogalagenin", "Cyclogalegigenin"], "SMILES": "CC12C3C4(C5(C4)C(C(O)C3)C(C)(C)C(O)CC5)CCC1(C)C(C(O)C2)C6(C)OC(C(C)(C)O)CC6", "physical_data": {"Molecular Weight": "490.71", "Molecular Formula": "C30H50O5", "Melting Point": "196-197 \u00b0C"}}