{"cas_no": "84606-45-1", "cn_name": "1-\u5f02\u4e19\u57fa-2-\u7532\u57fa\u54aa\u5511", "en_name": ["2-Methyl-1-(1-methylethyl)-1H-imidazole", "1H-Imidazole, 2-methyl-1-(1-methylethyl)-", "2-Methyl-1-(1-methylethyl)-1H-imidazole", "1-Isopropyl-2-methylimidazole", "2-Methyl-1-(propan-2-yl)-1H-imidazole"], "SMILES": "C(C)(C)N1C(C)=NC=C1", "physical_data": {"Molecular Weight": "124.18", "Molecular Formula": "C7H12N2", "Boiling Point": "80 \u00b0C @ Press: 1.2 Torr"}}