{"cas_no": "84611-23-4", "cn_name": "\u5384\u591a\u53f8\u5766", "en_name": ["Erdosteine", "Acetic acid, 2-[[2-oxo-2-[(tetrahydro-2-oxo-3-thienyl)amino]ethyl]thio]-", "Acetic acid, [[2-oxo-2-[(tetrahydro-2-oxo-3-thienyl)amino]ethyl]thio]-", "2-[[2-Oxo-2-[(tetrahydro-2-oxo-3-thienyl)amino]ethyl]thio]acetic acid", "Erdosteine", "RV 144", "Dithiosteine", "Secresolv", "Erdostin", "Mucotec", "2-[2-Oxo-2-[(2-oxothiolan-3-yl)amino]ethyl]sulfanylacetic acid", "2-([[(2-Oxothiolan-3-yl)carbamoyl]methyl]sulfanyl)acetic acid"], "SMILES": "N(C(CSCC(O)=O)=O)C1C(=O)SCC1", "physical_data": {"Molecular Weight": "249.31", "Molecular Formula": "C8H11NO4S2", "Melting Point": "156-158 \u00b0C"}}