{"cas_no": "84625-61-6", "cn_name": "\u4f0a\u66f2\u5eb7\u5511", "en_name": ["Itraconazole", "3H-1,2,4-Triazol-3-one, 4-[4-[4-[4-[[(2R,4S)-2-(2,4-dichlorophenyl)-2-(1H-1,2,4-triazol-1-ylmethyl)-1,3-dioxolan-4-yl]methoxy]phenyl]-1-piperazinyl]phenyl]-2,4-dihydro-2-(1-methylpropyl)-, rel-", "rel-4-[4-[4-[4-[[(2R,4S)-2-(2,4-Dichlorophenyl)-2-(1H-1,2,4-triazol-1-ylmethyl)-1,3-dioxolan-4-yl]methoxy]phenyl]-1-piperazinyl]phenyl]-2,4-dihydro-2-(1-methylpropyl)-3H-1,2,4-triazol-3-one", "Itraconazole", "R 51211", "Oriconazole", "Sporanox", "Orungal", "Itrizole", "Triasporin", "Sempera", "Canditral", "Traconal", "Sporamelt", "Spherazole CR", "Spherazole IR", "Sporonox", "Sporal", "Itrac", "Cladosal 100", "Itralek", "Sporanox IV", "Candistat", "cis-Itraconazole", "SUBA Itraconazole", "Orungamin", "PUR 1900", "Fungitraxx", "MeSH ID: D017964"], "SMILES": "C(C1(OC(COC2=CC=C(C=C2)N3CCN(CC3)C4=CC=C(C=C4)N5C(=O)N(C(CC)C)N=C5)CO1)C6=C(Cl)C=C(Cl)C=C6)N7C=NC=N7", "physical_data": {"Molecular Weight": "705.63", "Molecular Formula": "C35H38Cl2N8O4", "Melting Point": "166.2 \u00b0C", "Density": "1.27 g/cm\u00b3"}}