{"cas_no": "84624-28-2", "cn_name": "N'-Fmoc-L-\u8d56\u6c28\u9178", "en_name": ["N\u2032-Fmoc-L-lysine", "L-Lysine, N6-[(9H-fluoren-9-ylmethoxy)carbonyl]-", "N6-[(9H-Fluoren-9-ylmethoxy)carbonyl]-L-lysine", "3: PN: WO03068990 PAGE: 60 claimed protein", "H-L-Lys(\u03b5-fmoc)-OH", "N\u2032-Fmoc-L-lysine"], "SMILES": "C(OC(NCCCCC(C(O)=O)N)=O)C1C=2C(C=3C1=CC=CC3)=CC=CC2", "physical_data": {"Molecular Weight": "368.43", "Molecular Formula": "C21H24N2O4", "Melting Point": "209-210 \u00b0C"}}