{"cas_no": "84627-04-3", "cn_name": "\u82ac\u5730\u67de\u9178", "en_name": ["2-[(6-Hydroxy[1,1\u2032-biphenyl]-3-yl)carbonyl]benzoic acid", "Benzoic acid, 2-[(6-hydroxy[1,1\u2032-biphenyl]-3-yl)carbonyl]-", "Benzoic acid, o-[(6-hydroxy-3-biphenylyl)carbonyl]-", "2-[(6-Hydroxy[1,1\u2032-biphenyl]-3-yl)carbonyl]benzoic acid", "Fendizoic acid", "2-(3\u2032-Phenyl-4\u2032-hydroxybenzoyl)benzoic acid"], "SMILES": "OC=1C(=CC(C(=O)C2=C(C(O)=O)C=CC=C2)=CC1)C3=CC=CC=C3", "physical_data": {"Molecular Weight": "318.32", "Molecular Formula": "C20H14O4", "Melting Point": "260-265 \u00b0C (decomp)"}}