{"cas_no": "84633-29-4", "cn_name": "\u5bbd\u7f28\u916e", "en_name": ["Eurycomanone", "Picrasa-3,13(21)-diene-2,16-dione, 11,20-epoxy-1,11,12,14,15-pentahydroxy-, (1\u03b2,11\u03b2,12\u03b1,15\u03b2)-", "2H-1,11c-(Epoxymethano)phenanthro[10,1-bc]pyran, picrasa-3,13(21)-diene-2,16-dione deriv.", "(1\u03b2,11\u03b2,12\u03b1,15\u03b2)-11,20-Epoxy-1,11,12,14,15-pentahydroxypicrasa-3,13(21)-diene-2,16-dione", "Eurycomanone", "Pasakbumin A", "NSC 339187"], "SMILES": "OC12C34C(C5(C)C(CC3OC(=O)C1O)C(C)=CC(=O)C5O)C(O)(OC4)C(O)C2=C", "physical_data": {"Molecular Weight": "408.40", "Molecular Formula": "C20H24O9", "Melting Point": "273-285 \u00b0C"}}