{"cas_no": "84677-06-5", "cn_name": "1-Cbz-\u6c28\u57fa\u73af\u4e19\u70f7\u7fa7\u9178", "en_name": ["1-[[(Phenylmethoxy)carbonyl]amino]cyclopropanecarboxylic acid", "Cyclopropanecarboxylic acid, 1-[[(phenylmethoxy)carbonyl]amino]-", "1-[[(Phenylmethoxy)carbonyl]amino]cyclopropanecarboxylic acid", "1-Benzyloxycarbonylaminocyclopropanecarboxylic acid", "N-Benzyloxycarbonyl-1-aminocyclopropanecarboxylic acid", "1-[(Benzyloxycarbonyl)amino]cyclopropane-1-carboxylic acid", "1-(Phenylmethoxycarbonylamino)cyclopropane-1-carboxylic acid"], "SMILES": "N(C(OCC1=CC=CC=C1)=O)C2(C(O)=O)CC2", "physical_data": {"Molecular Weight": "235.24", "Molecular Formula": "C12H13NO4", "Melting Point": "153-158 \u00b0C"}}