{"cas_no": "84682-27-9", "cn_name": "1-(4-\u7532\u57fa\u82ef\u57fa)-1-\u73af\u5df1\u7fa7\u9178", "en_name": ["1-(4-Methylphenyl)cyclohexanecarboxylic acid", "Cyclohexanecarboxylic acid, 1-(4-methylphenyl)-", "1-(4-Methylphenyl)cyclohexanecarboxylic acid", "NSC 158275", "1-(4-Methylphenyl)-1-cyclohexanecarboxylic acid", "1-(4-Methylphenyl)cyclohexane-1-carboxylic acid"], "SMILES": "C(O)(=O)C1(CCCCC1)C2=CC=C(C)C=C2", "physical_data": {"Molecular Weight": "218.29", "Molecular Formula": "C14H18O2", "Melting Point": "168-171 \u00b0C"}}