{"cas_no": "84689-20-3", "cn_name": "2-(2,3-\u4e8c\u6c2f\u82ef\u57fa)-2-\u80cd\u4e9a\u80fa\u57fa\u4e59\u8148", "en_name": ["2-[Cyano(2,3-dichlorophenyl)methylene]hydrazinecarboximidamide", "Hydrazinecarboximidamide, 2-[cyano(2,3-dichlorophenyl)methylene]-", "2-[Cyano(2,3-dichlorophenyl)methylene]hydrazinecarboximidamide", "(2,3-Dichlorophenyl)(guanidinylimino)acetonitrile", "2-(2,3-Dichlorophenyl)-2-guanidinyliminoacetonitrile"], "SMILES": "C(=NNC(=N)N)(C#N)C1=C(Cl)C(Cl)=CC=C1", "physical_data": {"Molecular Weight": "256.09", "Molecular Formula": "C9H7Cl2N5", "Melting Point": "176-178 \u00b0C"}}