{"cas_no": "84692-91-1", "cn_name": "\u5c0f\u767d\u83ca\u5185\u916f\u884d\u751f\u7269", "en_name": ["Arglabin", "3H-Oxireno[8,8a]azuleno[4,5-b]furan-8(4aH)-one, 5,6,6a,7,9a,9b-hexahydro-1,4a-dimethyl-7-methylene-, (3aR,4aS,6aS,9aS,9bR)-", "3H-Oxireno[8,8a]azuleno[4,5-b]furan-8(4aH)-one, 5,6,6a,7,9a,9b-hexahydro-1,4a-dimethyl-7-methylene-, [4aS-(3aS*,4a\u03b1,6a\u03b1,9a\u03b2,9b\u03b1)]-", "(3aR,4aS,6aS,9aS,9bR)-5,6,6a,7,9a,9b-Hexahydro-1,4a-dimethyl-7-methylene-3H-oxireno[8,8a]azuleno[4,5-b]furan-8(4aH)-one", "Arglabin", "(+)-Arglabin", "Arglabine"], "SMILES": "CC12C3(C(C4C(CC1)C(=C)C(=O)O4)C(C)=CC3)O2", "physical_data": {"Molecular Weight": "246.30", "Molecular Formula": "C15H18O3", "Melting Point": "100-102 \u00b0C"}}