{"cas_no": "847490-69-1", "cn_name": "4-\u7898\u5f02\u6076\u5511", "en_name": ["4-Iodoisoxazole", "Isoxazole, 4-iodo-", "4-Iodoisoxazole"], "SMILES": "IC=1C=NOC1", "physical_data": {"Molecular Weight": "194.96", "Molecular Formula": "C3H2INO", "Melting Point": "61-63 \u00b0C"}}