{"cas_no": "847818-70-6", "cn_name": "1-\u4e59\u57fa-1H-\u5421\u5511-4-\u787c\u9178\u9891\u90a3\u9187\u916f", "en_name": ["1-Ethylpyrazole-4-boronic acid pinacol ester", "1H-Pyrazole, 1-ethyl-4-(4,4,5,5-tetramethyl-1,3,2-dioxaborolan-2-yl)-", "1-Ethyl-4-(4,4,5,5-tetramethyl-1,3,2-dioxaborolan-2-yl)-1H-pyrazole", "(1-Ethyl-1H-pyrazol-4-yl)boronic acid pinacol ester", "1-Ethylpyrazole-4-boronic acid pinacol ester", "1-Ethyl-4-(4,4,5,5-tetramethyl-1,3,2-dioxaborolan-2-yl)pyrazole", "2-(1-Ethyl-1H-pyrazol-4-yl)-4,4,5,5-tetramethyl-1,3,2-dioxaborolane", "1-Ethyl-4-(tetramethyl-1,3,2-dioxaborolan-2-yl)-1H-pyrazole"], "SMILES": "CC1(C)OB(OC1(C)C)C2=CN(CC)N=C2", "physical_data": {"Molecular Weight": "222.09", "Molecular Formula": "C11H19BN2O2", "Melting Point": "43-45 \u00b0C"}}