{"cas_no": "84793-24-8", "cn_name": "N-[1-(S)-\u4e59\u6c27\u7fb0\u57fa-3-\u82ef\u4e19\u57fa]-L-\u4e19\u6c28\u9178-N-\u7fa7\u57fa\u9178\u9150", "en_name": ["Ethyl (\u03b1S,4S)-4-methyl-2,5-dioxo-\u03b1-(2-phenylethyl)-3-oxazolidineacetate", "3-Oxazolidineacetic acid, 4-methyl-2,5-dioxo-\u03b1-(2-phenylethyl)-, ethyl ester, (\u03b1S,4S)-", "3-Oxazolidineacetic acid, 4-methyl-2,5-dioxo-\u03b1-(2-phenylethyl)-, ethyl ester, [S-(R*,R*)]-", "Ethyl (\u03b1S,4S)-4-methyl-2,5-dioxo-\u03b1-(2-phenylethyl)-3-oxazolidineacetate", "N-[1(S)-Ethoxycarbonyl-3-phenylpropyl]-L-alanine N-carboxyanhydride", "N-((S)-1-Ethoxycarbonyl-3-phenylpropyl)-L-alanine-N-carboxylic anhydride"], "SMILES": "C(C(OCC)=O)(CCC1=CC=CC=C1)N2C(C)C(=O)OC2=O", "physical_data": {"Molecular Weight": "305.33", "Molecular Formula": "C16H19NO5", "Melting Point": "70-72 \u00b0C"}}