{"cas_no": "84803-56-5", "cn_name": "4-(2-\u7532\u6c27\u57fa\u4e59\u57fa)\u82ef\u80fa", "en_name": ["4-(2-Methoxyethyl)benzenamine", "Benzenamine, 4-(2-methoxyethyl)-", "Aniline, p-2-methoxyethyl-", "4-(2-Methoxyethyl)benzenamine", "p-(2-Methoxyethyl)aniline", "1-Methoxy-2-(4-aminophenyl)ethane", "4-(2-Methoxyethyl)phenylamine"], "SMILES": "C(COC)C1=CC=C(N)C=C1", "physical_data": {"Molecular Weight": "151.21", "Molecular Formula": "C9H13NO", "Boiling Point": "111-114 \u00b0C @ Press: 8 Torr"}}