{"cas_no": "84803-46-3", "cn_name": "3-(4\u6c2f\u82ef\u57fa)\u620a\u4e8c\u9170\u4e9a\u80fa", "en_name": ["4-(4-Chlorophenyl)-2,6-piperidinedione", "2,6-Piperidinedione, 4-(4-chlorophenyl)-", "4-(4-Chlorophenyl)-2,6-piperidinedione"], "SMILES": "O=C1CC(CC(=O)N1)C2=CC=C(Cl)C=C2", "physical_data": {"Molecular Weight": "223.66", "Molecular Formula": "C11H10ClNO2", "Melting Point": "160 \u00b0C"}}