{"cas_no": "84803-57-6", "cn_name": "4-\u53d4\u4e01\u57fa-2,6-\u4e8c\u7532\u57fa\u82ef\u57fa\u4e59\u8148", "en_name": ["4-(1,1-Dimethylethyl)-2,6-dimethylbenzeneacetonitrile", "Benzeneacetonitrile, 4-(1,1-dimethylethyl)-2,6-dimethyl-", "4-(1,1-Dimethylethyl)-2,6-dimethylbenzeneacetonitrile", "4-tert-Butyl-2,6-dimethylphenylacetonitrile", "2-(4-tert-Butyl-2,6-dimethylphenyl)acetonitrile"], "SMILES": "C(C#N)C1=C(C)C=C(C(C)(C)C)C=C1C", "physical_data": {"Molecular Weight": "201.31", "Molecular Formula": "C14H19N", "Boiling Point": "169-170 \u00b0C @ Press: 23 Torr", "Melting Point": "90 \u00b0C"}}