{"cas_no": "84803-67-8", "cn_name": "3-\u6c28\u57fa-5-\u4e59\u9170\u57fa\u4e9a\u6c28\u57fa\u4e8c\u82c4", "en_name": ["1-(3-Amino-10,11-dihydro-5H-dibenz[b,f]azepin-5-yl)ethanone", "Ethanone, 1-(3-amino-10,11-dihydro-5H-dibenz[b,f]azepin-5-yl)-", "5H-Dibenz[b,f]azepin-3-amine, 5-acetyl-10,11-dihydro-", "5H-Dibenz[b,f]azepine, 5-acetyl-3-amino-10,11-dihydro-", "1-(3-Amino-10,11-dihydro-5H-dibenz[b,f]azepin-5-yl)ethanone", "5-Acetyl-3-aminoiminodibenzyl", "5-Acetyl-10,11-dihydro-5H-dibenz[b,f]azepin-3-amine"], "SMILES": "C(C)(=O)N1C=2C(CCC=3C1=CC=CC3)=CC=C(N)C2", "physical_data": {"Molecular Weight": "252.31", "Molecular Formula": "C16H16N2O", "Melting Point": "149-150 \u00b0C"}}