{"cas_no": "848133-76-6", "cn_name": "N-(4-\u6c2f-3-\u6c30\u57fa-7-\u4e59\u6c27\u57fa\u55b9\u5549-6-\u57fa)\u4e59\u9170\u80fa", "en_name": ["N-(4-Chloro-3-cyano-7-ethoxy-6-quinolinyl)acetamide", "Acetamide, N-(4-chloro-3-cyano-7-ethoxy-6-quinolinyl)-", "N-(4-Chloro-3-cyano-7-ethoxy-6-quinolinyl)acetamide", "4-Chloro-3-cyano-7-ethoxy-6-(N-acetylamino)quinoline", "4-Chloro-3-cyano-7-ethoxy-6-(acetylamino)quinoline", "N-(4-Chloro-3-cyano-7-ethoxyquinolin-6-yl)acetamide", "N-(4-Chloro-3-cyano-7-ethoxyquinoline-6-yl)acetamide"], "SMILES": "ClC=1C2=C(C=C(OCC)C(NC(C)=O)=C2)N=CC1C#N", "physical_data": {"Molecular Weight": "289.72", "Molecular Formula": "C14H12ClN3O2", "Melting Point": "250 \u00b0C"}}