{"cas_no": "848259-27-8", "cn_name": "\u4f69\u739b\u8d1d\u7279", "en_name": ["Pemafibrate", "Butanoic acid, 2-[3-[[2-benzoxazolyl[3-(4-methoxyphenoxy)propyl]amino]methyl]phenoxy]-, (2R)-", "(2R)-2-[3-[[2-Benzoxazolyl[3-(4-methoxyphenoxy)propyl]amino]methyl]phenoxy]butanoic acid", "(R)-2-[3-[[N-(Benzoxazol-2-yl)-N-[3-(4-methoxyphenoxy)propyl]amino]methyl]phenoxy]butanoic acid", "(R)-K 13675", "Pemafibrate", "K 877"], "SMILES": "N(CC1=CC(OC(C(O)=O)CC)=CC=C1)(CCCOC2=CC=C(OC)C=C2)C3=NC=4C(O3)=CC=CC4", "physical_data": {"Molecular Weight": "490.55", "Molecular Formula": "C28H30N2O6", "Melting Point": "98-99 \u00b0C"}}