{"cas_no": "84852-15-3", "cn_name": "4-\u58ec\u57fa\u915a(\u6df7\u6709\u5f02\u6784\u4f53)", "en_name": ["Phenol, 4-nonyl-, branched", "Phenol, 4-nonyl-, branched"], "SMILES": "", "physical_data": {"Molecular Weight": "", "Molecular Formula": "Unspecified", "Boiling Point": "295 \u00b0C"}}