{"cas_no": "84852-53-9", "cn_name": "\u5341\u6eb4\u4e8c\u82ef\u4e59\u70f7", "en_name": ["Decabromodiphenylethane", "Benzene, 1,1\u2032-(1,2-ethanediyl)bis[2,3,4,5,6-pentabromo-", "1,1\u2032-(1,2-Ethanediyl)bis[2,3,4,5,6-pentabromobenzene]", "1,2-Bis(pentabromophenyl)ethane", "Decabromodiphenylethane", "Decadiphenyl 8010", "Saytex 8010", "Planelon BDE", "S 8010", "1,2-Bis(2,3,4,5,6-pentabromophenyl)ethane", "Firemaster 2100", "Ethylenebis(pentabromobiphenyl)", "FCP 801", "Ethylenebispentabromobenzene", "RDT 3", "CG 801", "Bis(pentabromophenyl)ethane", "Saytex 4010", "F 8010", "Yabao 8010", "FR 105", "FR 1410", "RDT 3K", "1,2-Bis(pentabromodiphenyl)ethane", "DBDPE", "HP 8010", "1,2,3,4,5-Pentabromo-6-[2-(2,3,4,5,6-pentabromophenyl)ethyl]benzene", "802A", "Fire Cut FCP 801", "Firemaster FM 2100R", "FM 2100R", "RTD 3", "Firemaster 2100R", "HT 106", "SR 202 (flame retardant)", "SR 202", "DTXSID2052732", "FR 102WE", "H 02NF"], "SMILES": "C(CC1=C(Br)C(Br)=C(Br)C(Br)=C1Br)C2=C(Br)C(Br)=C(Br)C(Br)=C2Br", "physical_data": {"Molecular Weight": "971.22", "Molecular Formula": "C14H4Br10", "Melting Point": "334-337 \u00b0C"}}