{"cas_no": "848695-25-0", "cn_name": "BIIB021/CNF2024", "en_name": ["[6-Chloro-9-(4-methoxy-3,5-dimethylpyridin-2-ylmethyl)-9H-purin-2-yl]amine", "9H-Purin-2-amine, 6-chloro-9-[(4-methoxy-3,5-dimethyl-2-pyridinyl)methyl]-", "6-Chloro-9-[(4-methoxy-3,5-dimethyl-2-pyridinyl)methyl]-9H-purin-2-amine", "[6-Chloro-9-(4-methoxy-3,5-dimethylpyridin-2-ylmethyl)-9H-purin-2-yl]amine", "BIIB 021", "CNF 2024"], "SMILES": "C(N1C=2C(N=C1)=C(Cl)N=C(N)N2)C3=C(C)C(OC)=C(C)C=N3", "physical_data": {"Molecular Weight": "318.76", "Molecular Formula": "C14H15ClN6O", "Melting Point": "192-193 \u00b0C"}}