{"cas_no": "84873-15-4", "cn_name": "P-HYDROXYPHENETHYL TRANS-FERULATE", "en_name": ["p-Hydroxyphenethyl trans-ferulate", "2-Propenoic acid, 3-(4-hydroxy-3-methoxyphenyl)-, 2-(4-hydroxyphenyl)ethyl ester, (2E)-", "2-Propenoic acid, 3-(4-hydroxy-3-methoxyphenyl)-, 2-(4-hydroxyphenyl)ethyl ester, (E)-", "p-Hydroxyphenethyl trans-ferulate", "4-Hydroxyphenethyl trans-ferulate"], "SMILES": "C(=CC(OCCC1=CC=C(O)C=C1)=O)C2=CC(OC)=C(O)C=C2", "physical_data": {"Molecular Weight": "314.33", "Molecular Formula": "C18H18O5", "Melting Point": "168-169 \u00b0C"}}