{"cas_no": "84888-35-7", "cn_name": "N-\u0391-\u53d4\u4e01\u6c27\u7fb0\u57fa-S-(9-\u82b4\u7532\u57fa)-L-\u534a\u80f1\u6c28\u9178", "en_name": ["N-[(1,1-Dimethylethoxy)carbonyl]-S-(9H-fluoren-9-ylmethyl)-L-cysteine", "L-Cysteine, N-[(1,1-dimethylethoxy)carbonyl]-S-(9H-fluoren-9-ylmethyl)-", "N-[(1,1-Dimethylethoxy)carbonyl]-S-(9H-fluoren-9-ylmethyl)-L-cysteine"], "SMILES": "C(SCC(NC(OC(C)(C)C)=O)C(O)=O)C1C=2C(C=3C1=CC=CC3)=CC=CC2", "physical_data": {"Molecular Weight": "399.50", "Molecular Formula": "C22H25NO4S", "Melting Point": "74-75 \u00b0C"}}