{"cas_no": "849-55-8", "cn_name": "\u5e03\u82ac\u5b81\u76d0\u9178\u76d0", "en_name": ["Benzenemethanol, 4-hydroxy-\u03b1-[1-[(1-methyl-3-phenylpropyl)amino]ethyl]-, hydrochloride (1:1)", "Benzenemethanol, 4-hydroxy-\u03b1-[1-[(1-methyl-3-phenylpropyl)amino]ethyl]-, hydrochloride (1:1)", "Benzyl alcohol, p-hydroxy-\u03b1-[1-[(1-methyl-3-phenylpropyl)amino]ethyl]-, hydrochloride", "Nylidrin hydrochloride", "Benzenemethanol, 4-hydroxy-\u03b1-[1-[(1-methyl-3-phenylpropyl)amino]ethyl]-, hydrochloride", "Arlidin hydrochloride", "Buphenine hydrochloride", "Dilatol hydrochloride", "p-Hydroxy-\u03b1-[1-[(1-methyl-3-phenylpropyl)amino]ethyl]benzyl alcohol hydrochloride", "Suprifen Psb hydrochloride", "Verina", "Nylidrine hydrochloride", "Arlidin", "Dilatol", "Buphenin hydrochloride", "(\u00b1)-Nylidrin hydrochloride", "RHC 3432A", "Bufedon", "SKF 1700A", "Rydrin", "Tocodrin", "Opino", "Dilatal", "Penitardon", "Dilatropon", "Rudilin", "Buphedrin", "Tocodilydrin", "Dilydrin", "Perdilatal", "NSC 142004"], "SMILES": "C(C(NC(CCC1=CC=CC=C1)C)C)(O)C2=CC=C(O)C=C2.Cl", "physical_data": {"Molecular Weight": "", "Molecular Formula": "C19H25NO2.ClH", "Melting Point": "198-199 \u00b0C (decomp)"}}