{"cas_no": "84907-55-1", "cn_name": "1,2-\u4e8c(4'-\u7532\u9170\u57fa\u82ef\u57fa)\u4e59\u7094", "en_name": ["4,4\u2032-(1,2-Ethynediyl)bis[benzaldehyde]", "Benzaldehyde, 4,4\u2032-(1,2-ethynediyl)bis-", "Benzaldehyde, 4,4\u2032-ethynylenedi-", "4,4\u2032-(1,2-Ethynediyl)bis[benzaldehyde]", "Bis(4-formylphenyl)acetylene", "Bis(4-formylphenyl)ethyne", "1,2-Bis(4-formylphenyl)ethyne", "4,4\u2032-(Ethyne-1,2-diyl)dibenzaldehyde"], "SMILES": "C(#CC1=CC=C(C=O)C=C1)C2=CC=C(C=O)C=C2", "physical_data": {"Molecular Weight": "234.25", "Molecular Formula": "C16H10O2", "Melting Point": "213-214 \u00b0C"}}