{"cas_no": "849217-68-1", "cn_name": "\u5361\u535a\u66ff\u5c3c", "en_name": ["Cabozantinib", "1,1-Cyclopropanedicarboxamide, N\u2032-[4-[(6,7-dimethoxy-4-quinolinyl)oxy]phenyl]-N-(4-fluorophenyl)-", "1,1-Cyclopropanedicarboxamide, N-[4-[(6,7-dimethoxy-4-quinolinyl)oxy]phenyl]-N\u2032-(4-fluorophenyl)-", "N\u2032-[4-[(6,7-Dimethoxy-4-quinolinyl)oxy]phenyl]-N-(4-fluorophenyl)-1,1-cyclopropanedicarboxamide", "Cabozantinib", "BMS 907351", "Cabometyx", "1-N-[4-(6,7-Dimethoxyquinolin-4-yl)oxyphenyl]-1-N\u2032-(4-fluorophenyl)cyclopropane-1,1-dicarboxamide", "XL 184"], "SMILES": "C(NC1=CC=C(OC=2C3=C(C=C(OC)C(OC)=C3)N=CC2)C=C1)(=O)C4(C(NC5=CC=C(F)C=C5)=O)CC4", "physical_data": {"Molecular Weight": "501.51", "Molecular Formula": "C28H24FN3O5", "Melting Point": "98 \u00b0C"}}