{"cas_no": "84942-40-5", "cn_name": "5-\u6c2f-2-\u7f9f\u57fa-3-\u785d\u57fa\u82ef\u4e59\u916e", "en_name": ["2-Hydroxy-5-chloro-3-nitroacetophenone", "Ethanone, 1-(5-chloro-2-hydroxy-3-nitrophenyl)-", "Acetophenone, 5\u2032-chloro-2\u2032-hydroxy-3\u2032-nitro-", "1-(5-Chloro-2-hydroxy-3-nitrophenyl)ethanone", "2-Acetyl-4-chloro-6-nitrophenol", "5\u2032-Chloro-3\u2032-nitro-2\u2032-hydroxyacetophenone", "2-Hydroxy-5-chloro-3-nitroacetophenone", "5\u2032-Chloro-2\u2032-hydroxy-3\u2032-nitroacetophenone", "1-(5-Chloro-2-hydroxy-3-nitrophenyl)ethan-1-one"], "SMILES": "C(C)(=O)C1=C(O)C(N(=O)=O)=CC(Cl)=C1", "physical_data": {"Molecular Weight": "215.59", "Molecular Formula": "C8H6ClNO4", "Melting Point": "133 \u00b0C"}}