{"cas_no": "84954-92-7", "cn_name": "\u7edc\u585e\u7ef4", "en_name": ["Rosavin", "\u03b2-D-Glucopyranoside, (2E)-3-phenyl-2-propen-1-yl 6-O-\u03b1-L-arabinopyranosyl-", "\u03b2-D-Glucopyranoside, 3-phenyl-2-propenyl 6-O-\u03b1-L-arabinopyranosyl-, (E)-", "\u03b2-D-Glucopyranoside, (2E)-3-phenyl-2-propenyl 6-O-\u03b1-L-arabinopyranosyl-", "(2E)-3-Phenyl-2-propen-1-yl 6-O-\u03b1-L-arabinopyranosyl-\u03b2-D-glucopyranoside", "Rosavin", "Rosavidin"], "SMILES": "C(OC1C(O)C(O)C(O)CO1)C2OC(OCC=CC3=CC=CC=C3)C(O)C(O)C2O", "physical_data": {"Molecular Weight": "428.43", "Molecular Formula": "C20H28O10", "Melting Point": "97.0-99.0 \u00b0C"}}