{"cas_no": "849762-24-9", "cn_name": "3-\u7532\u57fa-\u4e01\u9178(3,6-\u4e8c\u6c27\u4ee3-1,4-\u73af\u5df1\u4e8c\u70ef-1-\u57fa)\u7532\u916f", "en_name": ["(3,6-Dioxo-1,4-cyclohexadien-1-yl)methyl 3-methylbutanoate", "Butanoic acid, 3-methyl-, (3,6-dioxo-1,4-cyclohexadien-1-yl)methyl ester", "(3,6-Dioxo-1,4-cyclohexadien-1-yl)methyl 3-methylbutanoate", "Blattellaquinone", "Gentisylquinone isovalerate"], "SMILES": "C(OC(CC(C)C)=O)C=1C(=O)C=CC(=O)C1", "physical_data": {"Molecular Weight": "222.24", "Molecular Formula": "C12H14O4", "Melting Point": "46-47 \u00b0C"}}