{"cas_no": "849832-73-1", "cn_name": "N-[(2Z)-\u54cc\u55ea-2-\u4e9a\u57fa]-2,2,2-\u4e09\u6c1f\u4e59\u9170\u80bc", "en_name": ["2,2,2-Trifluoroacetic acid (2Z)-2-(2-piperazinylidene)hydrazide", "Acetic acid, 2,2,2-trifluoro-, (2Z)-2-(2-piperazinylidene)hydrazide", "Acetic acid, trifluoro-, (2Z)-2-(2-piperazinylidene)hydrazide", "2,2,2-Trifluoroacetic acid (2Z)-2-(2-piperazinylidene)hydrazide", "N\u2032-[(2Z)-Piperazin-2-ylidene]trifluoroacetohydrazide", "N-[(2Z)-Piperazin-2-ylidene]-2,2,2-trifluoroacetohydrazide", "2,2,2-Trifluoro-N\u2032-(1,2,3,6-tetrahydropyrazin-5-yl)acetohydrazide"], "SMILES": "N(NC(C(F)(F)F)=O)=C1CNCCN1", "physical_data": {"Molecular Weight": "210.16", "Molecular Formula": "C6H9F3N4O", "Melting Point": "141 \u00b0C (decomp)"}}