{"cas_no": "85-06-3", "cn_name": "3-\u7532\u57fa\u82ef-5,6-\u55b9\u5549", "en_name": ["3-Methylbenzo[f]quinoline", "Benzo[f]quinoline, 3-methyl-", "3-Methylbenzo[f]quinoline", "\u03b2-Naphthoquinaldine", "NSC 43316", "NSC 4999"], "SMILES": "CC1=NC=2C(=C3C(=CC2)C=CC=C3)C=C1", "physical_data": {"Molecular Weight": "193.24", "Molecular Formula": "C14H11N", "Boiling Point": "214-215 \u00b0C @ Press: 21 Torr", "Melting Point": "82-83 \u00b0C"}}