{"cas_no": "85-00-7", "cn_name": "\u654c\u8349\u5feb", "en_name": ["Diquat dibromide", "Dipyrido[1,2-a:2\u2032,1\u2032-c]pyrazinediium, 6,7-dihydro-, bromide (1:2)", "Dipyrido[1,2-a:2\u2032,1\u2032-c]pyrazinediium, 6,7-dihydro-, dibromide", "6,7-Dihydrodipyrido[1,2-a:2\u2032,1\u2032-c]pyrazinediium dibromide", "6,7-Dihydrodipyrido[1,2-a:2\u2032,1\u2032-c]pyrazidiinium dibromide", "9,10-Dihydro-8a,10a-diazoniaphenanthrene dibromide", "Diquat dibromide", "1,1\u2032-Ethylene-2,2\u2032-bipyridylium dibromide", "Reglon", "Reglone", "1,1\u2032-Ethylene-2,2\u2032-bipyridinium dibromide", "Diquat", "Ortho-Diquat", "PP 100", "Weedtrine D", "N,N\u2032-Ethylene-2,2\u2032-bipyridinium dibromide", "6,7-Dihydrodipyrido[1,2-a:2\u2032,1\u2032-c]pyrazinium dibromide", "Reward", "Eliminator", "Eliminator (herbicide)", "Reglox", "Reglone Turbo", "PP 100 (herbicide)"], "SMILES": "C1=2C=3[N+](CC[N+]1=CC=CC2)=CC=CC3.[Br-]", "physical_data": {"Molecular Weight": "", "Molecular Formula": "C12H12N2.2Br", "Melting Point": "337 \u00b0C", "Density": "1.22-1.27 g/cm\u00b3 @ Temp: 20 \u00b0C"}}