{"cas_no": "85-01-8", "cn_name": "\u83f2", "en_name": ["Phenanthrene", "Phenanthrene", "Ravatite", "[3]Helicene", "NSC 26256"], "SMILES": "C12=C3C(=CC=C1C=CC=C2)C=CC=C3", "physical_data": {"Molecular Weight": "178.23", "Molecular Formula": "C14H10", "Boiling Point": "340 \u00b0C", "Melting Point": "101 \u00b0C", "Density": "0.9800 g/cm\u00b3 @ Temp: 4 \u00b0C"}}