{"cas_no": "85-02-9", "cn_name": "5.6-\u82ef\u5e76\u55b9\u5549", "en_name": ["Benzo[f]quinoline", "Benzo[f]quinoline", "1-Azaphenanthrene", "\u03b2-Naphthoquinoline", "5,6-Benzoquinoline", "5,6-Benzo[f]quinoline", "NSC 9850"], "SMILES": "C12=C3C(=CC=C1C=CC=C2)N=CC=C3", "physical_data": {"Molecular Weight": "179.22", "Molecular Formula": "C13H9N", "Boiling Point": "352 \u00b0C", "Melting Point": "94 \u00b0C"}}