{"cas_no": "85-19-8", "cn_name": "2-\u7f9f\u57fa-5-\u6c2f\u4e8c\u82ef\u7532\u916e", "en_name": ["Benzophenone 7", "Methanone, (5-chloro-2-hydroxyphenyl)phenyl-", "Benzophenone, 5-chloro-2-hydroxy-", "(5-Chloro-2-hydroxyphenyl)phenylmethanone", "2-Hydroxy-5-chlorobenzophenone", "3-Chloro-6-hydroxybenzophenone", "5-Chloro-2-hydroxybenzophenone", "DOW HCB", "UV Absorber NL/5", "2-Benzoyl-4-chlorophenol", "Ch 11", "Benzophenone 7", "NSC 33407", "(2-Hydroxy-5-chlorophenyl)phenylmethanone"], "SMILES": "C(=O)(C1=C(O)C=CC(Cl)=C1)C2=CC=CC=C2", "physical_data": {"Molecular Weight": "232.66", "Molecular Formula": "C13H9ClO2", "Boiling Point": "147-149 \u00b0C @ Press: 0.3 Torr", "Melting Point": "93-95 \u00b0C"}}