{"cas_no": "85-15-4", "cn_name": "2-\u7532\u57fa-beta-\u8418\u5e76\u5511", "en_name": ["2-Methylnaphth[1,2-d]oxazole", "Naphth[1,2-d]oxazole, 2-methyl-", "2-Methylnaphth[1,2-d]oxazole", "2-Methyl-4,5-benzobenzoxazole", "2-Methylnaphtho[1,2-d]oxazole", "2-Methylnaphtho[1,2-d][1,3]oxazole"], "SMILES": "CC1=NC=2C=3C(C=CC2O1)=CC=CC3", "physical_data": {"Molecular Weight": "183.21", "Molecular Formula": "C12H9NO", "Boiling Point": "312 \u00b0C", "Melting Point": "27 \u00b0C"}}