{"cas_no": "85-18-7", "cn_name": "8-\u6c2f\u8336\u78b1", "en_name": ["8-Chlorotheophylline", "1H-Purine-2,6-dione, 8-chloro-3,9-dihydro-1,3-dimethyl-", "Theophylline, 8-chloro-", "1H-Purine-2,6-dione, 8-chloro-3,7-dihydro-1,3-dimethyl-", "8-Chloro-3,9-dihydro-1,3-dimethyl-1H-purine-2,6-dione", "8-Chlorotheophylline", "1,3-Dimethyl-8-chloroxanthine", "8-Chloro-1,3-dimethylxanthine", "NSC 6113"], "SMILES": "O=C1C2=C(N(C)C(=O)N1C)N=C(Cl)N2", "physical_data": {"Molecular Weight": "214.61", "Molecular Formula": "C7H7ClN4O2", "Melting Point": "290 \u00b0C (decomp)"}}