{"cas_no": "85-29-0", "cn_name": "2,4'-\u4e8c\u6c2f\u4e8c\u82ef\u7532\u916e", "en_name": ["2,4\u2032-Dichlorobenzophenone", "Methanone, (2-chlorophenyl)(4-chlorophenyl)-", "Benzophenone, 2,4\u2032-dichloro-", "(2-Chlorophenyl)(4-chlorophenyl)methanone", "2,4\u2032-Dichlorobenzophenone", "o,p\u2032-Dichlorobenzophenone", "o,p\u2032-DCBP", "NSC 3221"], "SMILES": "C(=O)(C1=C(Cl)C=CC=C1)C2=CC=C(Cl)C=C2", "physical_data": {"Molecular Weight": "251.11", "Molecular Formula": "C13H8Cl2O", "Melting Point": "67 \u00b0C"}}