{"cas_no": "85-27-8", "cn_name": "\u82ef\u4e59\u57fa\u95f4\u82ef\u4e8c\u915a", "en_name": ["4-(1-Phenylethyl)-1,3-benzenediol", "1,3-Benzenediol, 4-(1-phenylethyl)-", "Resorcinol, 4-(\u03b1-methylbenzyl)-", "4-(1-Phenylethyl)-1,3-benzenediol", "4-(\u03b1-Methylbenzyl)resorcinol", "4-(1-Phenylethyl)resorcinol", "4-(1-Phenylethyl)resorcin", "4-(1-Phenylethyl)benzene-1,3-diol", "SymWhite 377"], "SMILES": "C(C)(C1=C(O)C=C(O)C=C1)C2=CC=CC=C2", "physical_data": {"Molecular Weight": "214.26", "Molecular Formula": "C14H14O2", "Boiling Point": "243-244 \u00b0C @ Press: 12 Torr", "Melting Point": "79 \u00b0C"}}