{"cas_no": "85-32-5", "cn_name": "\u9e1f\u82f7\u9178", "en_name": ["Guanosine monophosphate", "5\u2032-Guanylic acid", "GMP", "Guanosine 5\u2032-(dihydrogen phosphate)", "Guanylic acid", "5\u2032-GMP", "Guanosine monophosphate", "Guanosine 5\u2032-phosphate", "Guanidine monophosphate", "Guanosine 5\u2032-monophosphate", "Guanosine 5\u2032-phosphoric acid", "E 626", "Guanosine, mono(dihydrogen phosphate) (ester)", "MeSH ID: D006157"], "SMILES": "O=C1C2=C(N(C=N2)C3OC(COP(=O)(O)O)C(O)C3O)NC(N)=N1", "physical_data": {"Molecular Weight": "363.22", "Molecular Formula": "C10H14N5O8P", "Boiling Point": "64 \u00b0C @ Press: 0.05 Torr"}}