{"cas_no": "85-39-2", "cn_name": "5-\u964d\u51b0\u7247\u70ef-2,3-\u4e8c\u7532\u9187", "en_name": ["5-Norbornene-2,3-dimethanol", "Bicyclo[2.2.1]hept-5-ene-2,3-dimethanol", "5-Norbornene-2,3-dimethanol", "2,3-Bis(hydroxymethyl)-5-norbornene", "5,6-Bis(hydroxymethyl)bicyclo[2.2.1]hept-2-ene", "NSC 31985", "5,6-Di(hydroxymethyl)bicyclo[2.2.1]hept-2-ene", "Bicyclo[2.2.1]hept-5-ene-2,3-dimethylol", "[3-(Hydroxymethyl)bicyclo[2.2.1]hept-5-en-2-yl]methanol", "[3-(Hydroxymethyl)-2-bicyclo[2.2.1]hept-5-enyl]methanol"], "SMILES": "C(O)C1C(CO)C2CC1C=C2", "physical_data": {"Molecular Weight": "154.21", "Molecular Formula": "C9H14O2", "Boiling Point": "144-162 \u00b0C @ Press: 6.5 Torr", "Melting Point": "82.8-83.4 \u00b0C"}}