{"cas_no": "85-31-4", "cn_name": "6-\u786b\u57fa\u9e1f\u560c\u5464", "en_name": ["Thioguanosine", "Guanosine, 6-thio-", "6H-Purine-6-thione, 2-amino-1,9-dihydro-9-\u03b2-D-ribofuranosyl-", "9H-Purine-6(1H)-thione, 2-amino-9-\u03b2-D-ribofuranosyl-", "6-Thioguanosine", "2-Amino-6-mercaptopurine ribonucleoside", "2-Amino-9-(\u03b2-D-ribofuranosyl)purine-6-thiol", "Thioguanosine", "2-Amino-9-\u03b2-D-ribofuranosyl-9H-purine-6-thiol", "2-Amino-9-\u03b2-D-ribofuranosylpurine-6-thione", "6-Thioguanine riboside", "6-Mercaptoguanosine", "6-Thioguanine ribonucleoside", "NSC-29422", "2-Amino-6-mercaptopurine riboside", "6-Mercaptoguanine riboside", "9-\u03b2-D-Ribofuranosylthioguanine"], "SMILES": "S=C1C2=C(N(C=N2)C3OC(CO)C(O)C3O)NC(N)=N1", "physical_data": {"Molecular Weight": "299.31", "Molecular Formula": "C10H13N5O4S", "Melting Point": "224-227 \u00b0C"}}