{"cas_no": "85-30-3", "cn_name": "\u9e1f\u560c\u5464\u6838\u7519", "en_name": ["Guanosine", "Guanosine", "Guanine, 9-\u03b2-D-ribofuranosyl-", "Inosine, 2-amino-", "Vernine", "\u03b2-D-Ribofuranoside, guanine-9", "6H-Purin-6-one, 2-amino-1,9-dihydro-9-\u03b2-D-ribofuranosyl-", "2-Amino-1,9-dihydro-9-\u03b2-D-ribofuranosyl-6H-purin-6-one", "Guanine ribonucleoside", "NSC 19994", "DL-Guanosine", "7: PN: WO2013104540 PAGE: 124 claimed sequence", "MeSH ID: D006151"], "SMILES": "O=C1C2=C(N(C=N2)C3OC(CO)C(O)C3O)NC(N)=N1", "physical_data": {"Molecular Weight": "283.24", "Molecular Formula": "C10H13N5O5", "Melting Point": "239 \u00b0C (decomp)"}}