{"cas_no": "85-36-9", "cn_name": "\u918b\u7898\u82ef\u9178", "en_name": ["Acetrizoic acid", "Benzoic acid, 3-(acetylamino)-2,4,6-triiodo-", "Benzoic acid, 3-acetamido-2,4,6-triiodo-", "3-(Acetylamino)-2,4,6-triiodobenzoic acid", "3-Acetamido-2,4,6-triiodobenzoic acid", "2,4,6-Triiodo-3-acetamidobenzoic acid", "Acetrizoic acid", "Urokon", "3-Acetylamino-2,4,6-triiodobenzoic acid", "Opacaron", "Urokonic acid", "MeSH ID: D000100"], "SMILES": "N(C(C)=O)C1=C(I)C(C(O)=O)=C(I)C=C1I", "physical_data": {"Molecular Weight": "556.86", "Molecular Formula": "C9H6I3NO3", "Melting Point": "280-280.5 \u00b0C (decomp)"}}