{"cas_no": "85-38-1", "cn_name": "3-\u785d\u57fa\u6c34\u6768\u9178", "en_name": ["3-Nitrosalicylic acid", "Benzoic acid, 2-hydroxy-3-nitro-", "Salicylic acid, 3-nitro-", "2-Hydroxy-3-nitrobenzoic acid", "3-Nitrosalicylic acid", "NSC 182"], "SMILES": "C(O)(=O)C1=C(O)C(N(=O)=O)=CC=C1", "physical_data": {"Molecular Weight": "183.12", "Molecular Formula": "C7H5NO5", "Melting Point": "148 \u00b0C"}}