{"cas_no": "85-34-7", "cn_name": "\u4f10\u8349\u514b", "en_name": ["Chlorfenac", "Benzeneacetic acid, 2,3,6-trichloro-", "Acetic acid, (2,3,6-trichlorophenyl)-", "2,3,6-Trichlorobenzeneacetic acid", "Fenac", "TCPA", "2,3,6-Trichlorophenylacetic acid", "Fenatrol", "Chlorfenac", "NSC 41931", "2-(2,3,6-Trichlorophenyl)acetic acid"], "SMILES": "C(C(O)=O)C1=C(Cl)C(Cl)=CC=C1Cl", "physical_data": {"Molecular Weight": "239.48", "Molecular Formula": "C8H5Cl3O2", "Melting Point": "161 \u00b0C"}}