{"cas_no": "85-44-9", "cn_name": "\u82ef\u9150", "en_name": ["Phthalic anhydride", "1,3-Isobenzofurandione", "Phthalic anhydride", "ESEN", "Phthalandione", "1,3-Phthalandione", "Phthalic acid anhydride", "Retarder AK", "Retarder ESEN", "Retarder PD", "1,2-Benzenedicarboxylic anhydride", "Vulkalent B/C", "TGL 6525", "Araldite HT 901", "HT 901", "Phthalanhydride", "Sconoc 7", "Retarder B-C", "NSC 10431", "Sconoc 5", "2-Benzofuran-1,3-dione", "Rikacid PA", "OP 392", "ADP 1200", "1,3-Dihydro-2-benzofuran-1,3-dione", "F-A 14955", "SD 251"], "SMILES": "O=C1C=2C(C(=O)O1)=CC=CC2", "physical_data": {"Molecular Weight": "148.12", "Molecular Formula": "C8H4O3", "Boiling Point": "295 \u00b0C", "Melting Point": "130.8 \u00b0C", "Density": "1.53 g/cm\u00b3"}}