{"cas_no": "85-42-7", "cn_name": "\u516d\u6c22\u82ef\u9150", "en_name": ["Hexahydrophthalic anhydride", "1,3-Isobenzofurandione, hexahydro-", "1,2-Cyclohexanedicarboxylic anhydride", "Hexahydro-1,3-isobenzofurandione", "Hexahydrophthalic anhydride", "Araldite HT 907", "Lekutherm Hardener H", "HHPA", "Hexahydrophthalic acid anhydride", "1,2-Cyclohexanedicarboxylic acid anhydride", "Rikacid HH", "Epilox H 11-01", "Araldite HT 904", "Rikacid HH-A", "Araldite HY 907", "Cyclohexanedicarboxylic anhydride", "Rutapox HX", "Rikacid HHPA", "Araldite HY 925", "Araldite Hardener HY 925", "HY 925", "Rutadur AG", "NSC 8622", "Rikacid MH 700E", "MH 700E", "HT 907", "EP 400B", "Aradur HY 925", "Hexahydro-2-benzofuran-1,3-dione", "Cyclohexane-1,2-dicarboxylic acid anhydride", "Rikacid MH 600", "Hardener HY 925", "HV 136", "MY 1832"], "SMILES": "O=C1C2C(C(=O)O1)CCCC2", "physical_data": {"Molecular Weight": "154.16", "Molecular Formula": "C8H10O3", "Boiling Point": "146 \u00b0C @ Press: 15 Torr", "Melting Point": "32 \u00b0C"}}