{"cas_no": "85-43-8", "cn_name": "\u56db\u6c22\u5316\u90bb\u82ef\u4e8c\u7532\u9178\u9150", "en_name": ["1,2,3,6-Tetrahydrophthalic anhydride", "1,3-Isobenzofurandione, 3a,4,7,7a-tetrahydro-", "4-Cyclohexene-1,2-dicarboxylic anhydride", "3a,4,7,7a-Tetrahydro-1,3-isobenzofurandione", "Maleic anhydride-butadiene adduct", "\u03944-Tetrahydrophthalic anhydride", "1,2,3,6-Tetrahydrophthalic anhydride", "Tetrahydrophthalic anhydride", "Tetrahydrophthalic acid anhydride", "4-Cyclohexene-1,2-dicarboxylic acid anhydride", "1,2,3,6-Tetrahydrophthalic acid anhydride", "Rikacid TH", "Cyclohexene-4,5-dicarboxylic anhydride", "Rikacid THPA", "NSC 82642", "KBH 1098", "HK 019", "B 570H", "THPA", "Epiclon B 570H", "Tetrahydroisobenzofuran-1,3-dione", "1,3,3a,4,7,7a-Hexahydro-2-benzofuran-1,3-dione", "Anhydride 70", "1,3-Isobenzofurandione, hexahydro-5-methylene-", "Hexahydro-5-methylene-1,3-isobenzofurandione"], "SMILES": "O=C1C2C(C(=O)O1)CC=CC2", "physical_data": {"Molecular Weight": "152.15", "Molecular Formula": "C8H8O3", "Boiling Point": "195 \u00b0C @ Press: 50 Torr", "Melting Point": "102 \u00b0C", "Density": "1.20 g/cm\u00b3 @ Temp: 105 \u00b0C"}}