{"cas_no": "85-47-2", "cn_name": "1-\u8418\u78fa\u9178", "en_name": ["1-Naphthalenesulfonic acid", "1-Naphthalenesulfonic acid", "\u03b1-Naphthalenesulfonic acid", "HT 907", "1-Sulfonaphthalene", "1-Naphthylsulfonic acid"], "SMILES": "S(=O)(=O)(O)C=1C2=C(C=CC1)C=CC=C2", "physical_data": {"Molecular Weight": "208.23", "Molecular Formula": "C10H8O3S", "Melting Point": "140 \u00b0C"}}