{"cas_no": "85-46-1", "cn_name": "1-\u8418\u78fa\u9170\u6c2f", "en_name": ["1-Naphthalenesulfonyl chloride", "1-Naphthalenesulfonyl chloride", "\u03b1-Naphthalenesulfochloride", "\u03b1-Naphthalenesulfonyl chloride", "1-Naphthylsulfonyl chloride", "1-Chlorosulfonylnaphthalene", "NSC 74636", "Naphthyl-sulphonyl chloride", "Naphthalen-1-sulfonyl chloride"], "SMILES": "S(Cl)(=O)(=O)C=1C2=C(C=CC1)C=CC=C2", "physical_data": {"Molecular Weight": "226.68", "Molecular Formula": "C10H7ClO2S", "Melting Point": "68 \u00b0C"}}