{"cas_no": "85-41-6", "cn_name": "\u90bb\u82ef\u4e8c\u7532\u9170\u4e9a\u80fa", "en_name": ["Phthalimide", "1H-Isoindole-1,3(2H)-dione", "Phthalimide", "Isoindole-1,3-dione", "1,3-Isoindolinedione", "Benzoimide", "1,2-Benzenedicarboximide", "Phenylimide", "Phthalic dicarboximide", "Levegal PEW-T", "NSC 3108", "1,3-Dioxo-1,3-dihydroisoindole", "Kladnoite", "1,3-Dihydro-2H-isoindole-1,3-dione", "2,3-Dihydro-1H-isoindole-1,3-dione"], "SMILES": "O=C1C=2C(C(=O)N1)=CC=CC2", "physical_data": {"Molecular Weight": "147.13", "Molecular Formula": "C8H5NO2", "Melting Point": "238 \u00b0C"}}