{"cas_no": "85-40-5", "cn_name": "1,2,3,6-\u56db\u6c22\u90bb\u82ef\u4e8c\u7532\u9170\u4e9a\u80fa", "en_name": ["1,2,3,6-Tetrahydrophthalimide", "1H-Isoindole-1,3(2H)-dione, 3a,4,7,7a-tetrahydro-", "4-Cyclohexene-1,2-dicarboximide", "3a,4,7,7a-Tetrahydro-1H-isoindole-1,3(2H)-dione", "\u03944-Tetrahydrophthalimide", "Tetrahydrophthalimide", "Tetrahydrophthalic acid imide", "1,2,3,6-Tetrahydrophthalimide", "NSC 59011", "3a,4,7,7a-Tetrahydroisoindole-1,3-dione", "2,3,3a,4,7,7a-Hexahydro-1H-isoindole-1,3-dione", "THPI", "3-Hydroxy-3a,4,7,7a-tetrahydro-1H-isoindol-1-one"], "SMILES": "O=C1C2C(C(=O)N1)CC=CC2", "physical_data": {"Molecular Weight": "151.16", "Molecular Formula": "C8H9NO2", "Boiling Point": "145 \u00b0C @ Press: 1.0 Torr", "Melting Point": "135-136.5 \u00b0C"}}