{"cas_no": "85-48-3", "cn_name": "\u55b9\u5549-8-\u78fa\u9178", "en_name": ["8-Quinolinesulfonic acid", "8-Quinolinesulfonic acid", "NSC 10433", "NSC 28840", "8-Sulfoquinoline"], "SMILES": "S(=O)(=O)(O)C=1C2=C(C=CC1)C=CC=N2", "physical_data": {"Molecular Weight": "209.22", "Molecular Formula": "C9H7NO3S", "Melting Point": "312 \u00b0C", "Density": "1.62 g/cm\u00b3"}}