{"cas_no": "85-57-4", "cn_name": "2-(4-\u7f9f\u57fa\u82ef\u7532\u9170)\u82ef\u7532\u9178", "en_name": ["2-(4-Hydroxybenzoyl)benzoic acid", "Benzoic acid, 2-(4-hydroxybenzoyl)-", "Benzoic acid, o-(p-hydroxybenzoyl)-", "2-(4-Hydroxybenzoyl)benzoic acid", "o-(p-Hydroxybenzoyl)benzoic acid", "Phthalein acid", "4\u2032-Hydroxy-2-benzoylbenzoic acid", "2-(4\u2032-Hydroxybenzoyl)benzoic acid", "NSC 122980", "NSC 57609", "Hibenzate"], "SMILES": "C(=O)(C1=C(C(O)=O)C=CC=C1)C2=CC=C(O)C=C2", "physical_data": {"Molecular Weight": "242.23", "Molecular Formula": "C14H10O4", "Melting Point": "213 \u00b0C"}}