{"cas_no": "85-56-3", "cn_name": "2-(4-\u6c2f\u82ef\u7532\u9170)\u82ef\u7532\u9178", "en_name": ["2-(4-Chlorobenzoyl)benzoic acid", "Benzoic acid, 2-(4-chlorobenzoyl)-", "Benzoic acid, o-(p-chlorobenzoyl)-", "2-(4-Chlorobenzoyl)benzoic acid", "o-(p-Chlorobenzoyl)benzoic acid", "2-(p-Chlorobenzoyl)benzoic acid", "o-(4-Chlorobenzoyl)benzoic acid", "4-Chlorobenzophenone-2\u2032-carboxylic acid", "NSC 7825", "2-(4\u2032-Chlorobenzoyl)benzoic acid"], "SMILES": "C(=O)(C1=C(C(O)=O)C=CC=C1)C2=CC=C(Cl)C=C2", "physical_data": {"Molecular Weight": "260.67", "Molecular Formula": "C14H9ClO3", "Melting Point": "164-165 \u00b0C"}}