{"cas_no": "85-55-2", "cn_name": "2-(\u5bf9\u7532\u82ef\u7532\u9170\u57fa)\u82ef\u7532\u9178", "en_name": ["2-(4-Methylbenzoyl)benzoic acid", "Benzoic acid, 2-(4-methylbenzoyl)-", "Benzoic acid, o-(p-toluoyl)-", "2-(4-Methylbenzoyl)benzoic acid", "4\u2032-Methylbenzophenone-2-carboxylic acid", "o-(p-Toluoyl)benzoic acid", "2-(p-Toluoyl)benzoic acid", "4-Methylbenzophenone-2\u2032-carboxylic acid", "4\u2032-Methyl-2-benzoylbenzoic acid", "2-(4\u2032-Methylbenzoyl)benzoic acid", "NSC 11224"], "SMILES": "C(=O)(C1=C(C(O)=O)C=CC=C1)C2=CC=C(C)C=C2", "physical_data": {"Molecular Weight": "240.25", "Molecular Formula": "C15H12O3", "Melting Point": "146 \u00b0C"}}