{"cas_no": "85-52-9", "cn_name": "\u90bb\u82ef\u7532\u9170\u82ef\u7532\u9178", "en_name": ["2-Benzoylbenzoic acid", "Benzoic acid, 2-benzoyl-", "Benzoic acid, o-benzoyl-", "2-Benzoylbenzoic acid", "o-Benzoylbenzoic acid", "Benzophenone-2-carboxylic acid", "2-Carboxybenzophenone", "2-Benzoquinonecarboxylic acid", "Benzophenone-2-carbonic acid", "o-Carboxybenzophenone", "SKP 10A", "Ortho-benzoylbenzoic acid", "NSC 6646", "SKP 10AT"], "SMILES": "C(=O)(C1=C(C(O)=O)C=CC=C1)C2=CC=CC=C2", "physical_data": {"Molecular Weight": "226.23", "Molecular Formula": "C14H10O3", "Melting Point": "127-129 \u00b0C"}}