{"cas_no": "85-54-1", "cn_name": "2-(4-\u6c2f-3-\u785d\u57fa\u82ef\u7532\u9170)\u82ef\u7532\u9178", "en_name": ["2-(4-Chloro-3-nitrobenzoyl)benzoic acid", "Benzoic acid, 2-(4-chloro-3-nitrobenzoyl)-", "Benzoic acid, o-(4-chloro-3-nitrobenzoyl)-", "2-(4-Chloro-3-nitrobenzoyl)benzoic acid", "3\u2032-Nitro-4\u2032-chlorobenzoylbenzoic acid", "4-Chloro-3-nitrobenzophenone-2\u2032-carboxylic acid", "2-(3-Nitro-4-chlorobenzoyl)benzoic acid", "2-[(4-Chloro-3-nitrophenyl)carbonyl]benzoic acid", "NSC 15366", "2-(4\u2032-Chloro-3\u2032-nitrobenzoyl)benzoic acid"], "SMILES": "C(=O)(C1=C(C(O)=O)C=CC=C1)C2=CC(N(=O)=O)=C(Cl)C=C2", "physical_data": {"Molecular Weight": "305.67", "Molecular Formula": "C14H8ClNO5", "Melting Point": "200.5-201 \u00b0C"}}