{"cas_no": "85-60-9", "cn_name": "4,4'-\u4e9a\u4e01\u57fa\u53cc(6-\u53d4\u4e01\u57fa-3-\u7532\u57fa\u82ef\u915a)", "en_name": ["4,4\u2032-Butylidenebis(3-methyl-6-tert-butylphenol)", "Phenol, 4,4\u2032-butylidenebis[2-(1,1-dimethylethyl)-5-methyl-", "m-Cresol, 4,4\u2032-butylidenebis[6-tert-butyl-", "4,4\u2032-Butylidenebis[2-(1,1-dimethylethyl)-5-methylphenol]", "1,1-Bis(2-methyl-4-hydroxy-5-tert-butylphenyl)butane", "4,4\u2032-Butylidenebis[6-tert-butyl-3-methylphenol]", "Santowhite Powder", "4,4\u2032-Butylidenebis[2-tert-butyl-5-methylphenol]", "1,1-Bis(2-methyl-5-tert-butyl-4-hydroxyphenyl)butane", "4,4\u2032-Butylidenebis[3-methyl-6-tert-butylphenol]", "1,1-Bis(5-tert-butyl-4-hydroxy-2-methylphenyl)butane", "1,1-Bis(4-hydroxy-3-tert-butyl-6-methylphenyl)butane", "4,4\u2032-Butylidenebis[6-tert-butyl-m-cresol]", "Anullex PBA 15", "SWP (antioxidant)", "1,1-Bis(3-tert-butyl-4-hydroxy-6-methylphenyl)butane", "Sumilizer BBM", "SWP", "BBM", "Santowhite", "Noclizer NS 30", "Yoshinox BB", "Antage W 300", "Sumilizer BBM-S", "Annulex PBA 15", "Nonflex BB", "Vanox SWP", "1,1-Bis(3-tert-butyl-6-methyl-4-hydroxyphenyl)butane", "Santowhite AW 300", "ADK Stab AO 40", "BBM-S", "Nocrac NS 30", "Selosol G 969", "Mark AO 40", "Lowinox 44B25", "DH 26", "NSC 67485", "Antioxidant BBM", "4,4\u2032-Butylidenebis(3-methyl-6-t-butylphenol)", "4,4\u2032-Butylidenebis(3-methyl-6-tert-butylphenol)", "4,4\u2032-Butylidenebis(6-tert-butyl-3-methylphenol)", "NS 30", "W 300", "Antioxidant W 300", "Songnox 4425", "ADK-AO 40", "4,4\u2032-Butylidene-bis-(2-tert-butyl-5-methyl-phenol)", "2-tert-Butyl-4-[1-(5-tert-butyl-4-hydroxy-2-methylphenyl)butyl]-5-methylphenol", "TS 376", "AO 40"], "SMILES": "C(CCC)(C1=CC(C(C)(C)C)=C(O)C=C1C)C2=CC(C(C)(C)C)=C(O)C=C2C", "physical_data": {"Molecular Weight": "382.58", "Molecular Formula": "C26H38O2", "Melting Point": "209 \u00b0C", "Density": "1.03 g/cm\u00b3 @ Temp: 25 \u00b0C"}}