{"cas_no": "85-66-5", "cn_name": "\u7da0\u81bf\u7d20", "en_name": ["Pyocyanin", "1(5H)-Phenazinone, 5-methyl-", "Sanazin", "5-Methyl-1(5H)-phenazinone", "Pyocyanine", "Pyocyanin", "Sanasin", "MeSH ID: D011710"], "SMILES": "CN1C=2C(=NC=3C1=CC=CC3)C(=O)C=CC2", "physical_data": {"Molecular Weight": "210.23", "Molecular Formula": "C13H10N2O", "Melting Point": "133 \u00b0C (decomp)"}}