{"cas_no": "85-68-7", "cn_name": "\u90bb\u82ef\u4e8c\u7532\u9178\u4e01\u82c4\u916f", "en_name": ["Butyl benzyl phthalate", "1,2-Benzenedicarboxylic acid, 1-butyl 2-(phenylmethyl) ester", "Phthalic acid, benzyl butyl ester", "1,2-Benzenedicarboxylic acid, butyl phenylmethyl ester", "Benzyl butyl phthalate", "Butyl benzyl phthalate", "Palatinol BB", "Santicizer 160", "Sicol 160", "Unimoll BB", "Benzyl n-butyl phthalate", "BBP", "Santicizer C 160", "Diacizer D 160", "Ketjenflex 160", "Santicizer S 160", "S 160", "n-Butyl benzyl phthalate diester", "n-Butyl benzyl phthalate", "Sant 160", "NSC 71001", "Spatozoate", "Santicizer S 106", "2-O-Benzyl 1-O-butyl benzene-1,2-dicarboxylate", "Santiciser 160"], "SMILES": "C(OCC1=CC=CC=C1)(=O)C2=C(C(OCCCC)=O)C=CC=C2", "physical_data": {"Molecular Weight": "312.36", "Molecular Formula": "C19H20O4", "Boiling Point": "370 \u00b0C", "Melting Point": "-35 \u00b0C", "Density": "1.113-1.121 g/cm\u00b3 @ Temp: 25 \u00b0C"}}