{"cas_no": "85-73-4", "cn_name": "\u915e\u78fa\u80fa\u567b\u5511", "en_name": ["Phthalylsulfathiazole", "Benzoic acid, 2-[[[4-[(2-thiazolylamino)sulfonyl]phenyl]amino]carbonyl]-", "Phthalanilic acid, 4\u2032-(2-thiazolylsulfamoyl)-", "2-[[[4-[(2-Thiazolylamino)sulfonyl]phenyl]amino]carbonyl]benzoic acid", "AFI-Ftalyl", "(o-Carboxybenzoyl)-p-aminophenylsulfonamidothiazole", "Cremothalidine", "Enteramida", "Entero-sulfina", "Entexidina", "Intestiazol", "Phthalazol", "2-(N4-Phthalylaminobenzenesulfonamide)thiazole", "Phthalylnorsulfazole", "2-(N4-Phthalylsulfanilamido)thiazole", "Phthalylsulfathiazole", "Phthalylsulfonazole", "Sulfacetil", "Sulfaphthalazole", "Sulfathalidine", "Sulftalyl", "Taleudron", "Talidine", "Taloudron", "Thalazole", "Thalistanin", "Thalistatyl", "4\u2032-(2-Thiazolylsulfamoyl)phthalanilic acid", "4\u2032-(2-Thiazolylsulfamyl)phthalanilic acid", "Ultratiazol", "Phthalylsulphathiazole", "Ftalazol", "Phthalidin", "Thalinil", "Ftalysept", "Ftalil-Esteve", "Phtalazol", "Ftalil-Septol", "Sulphaphthalyl", "NSC 66454", "NSC 683525", "2-[[4-(1,3-Thiazol-2-ylsulfamoyl)phenyl]carbamoyl]benzoic acid", "2-([4-[(1,3-Thiazol-2-yl)sulfamoyl]phenyl]carbamoyl)benzoic acid"], "SMILES": "C(NC1=CC=C(S(NC2=NC=CS2)(=O)=O)C=C1)(=O)C3=C(C(O)=O)C=CC=C3", "physical_data": {"Molecular Weight": "403.43", "Molecular Formula": "C17H13N3O5S2", "Melting Point": "273 \u00b0C"}}