{"cas_no": "85-79-0", "cn_name": "\u8f9b\u53ef\u5361\u56e0", "en_name": ["Dibucaine", "4-Quinolinecarboxamide, 2-butoxy-N-[2-(diethylamino)ethyl]-", "Cinchoninamide, 2-butoxy-N-[2-(diethylamino)ethyl]-", "2-Butoxy-N-[2-(diethylamino)ethyl]-4-quinolinecarboxamide", "2-Butoxy-N-[2-(diethylamino)ethyl]cinchoninamide", "Dibucaine", "Dibucaine base", "Nupercainal", "Nupercaine", "N-[2-(Diethylamino)ethyl]-2-butoxycinchoninamide", "Cinchocaine", "Dermacaine", "Percamine", "NSC 159055", "2-Butoxy-N-[2-(diethylamino)ethyl]quinoline-4-carboxamide", "MeSH ID: D003992"], "SMILES": "C(NCCN(CC)CC)(=O)C=1C2=C(N=C(OCCCC)C1)C=CC=C2", "physical_data": {"Molecular Weight": "343.46", "Molecular Formula": "C20H29N3O2", "Melting Point": "64 \u00b0C"}}