{"cas_no": "85-70-1", "cn_name": "\u4e01\u57fa\u90bb\u82ef\u4e8c\u7532\u9170\u7f9f\u4e59\u9178\u4e01\u916f", "en_name": ["Butyl phthalyl butyl glycolate", "1,2-Benzenedicarboxylic acid, 1-(2-butoxy-2-oxoethyl) 2-butyl ester", "Phthalic acid, butyl ester, ester with butyl glycolate", "1,2-Benzenedicarboxylic acid, 2-butoxy-2-oxoethyl butyl ester", "Glycolic acid, butyl ester, butyl phthalate", "Butyl phthalate butyl glycolate", "Butyl phthalyl butyl glycolate", "Dibutyl o-carboxybenzoyloxyacetate", "Santicizer B 16", "Butyl carbobutoxymethyl phthalate", "Butyl glycolyl butyl phthalate", "Butoxycarbonylmethyl butyl phthalate", "Reomol 4PG", "Morflex 190", "2-Butoxy-2-oxoethyl butyl phthalate", "Butyl 2-butoxy-2-exoethyl phthalate", "2-O-(2-Butoxy-2-oxoethyl) 1-O-butyl benzene-1,2-dicarboxylate"], "SMILES": "C(OCC(OCCCC)=O)(=O)C1=C(C(OCCCC)=O)C=CC=C1", "physical_data": {"Molecular Weight": "336.38", "Molecular Formula": "C18H24O6", "Boiling Point": "345 \u00b0C", "Melting Point": "&lt;-35 \u00b0C", "Density": "1.097 g/cm\u00b3"}}