{"cas_no": "85-85-8", "cn_name": "1-(2-\u5421\u5576\u5076\u6c2e)-2-\u8418\u915a", "en_name": ["1-(2\u2032-Pyridylazo)-2-naphthol", "2-Naphthalenol, 1-[2-(2-pyridinyl)diazenyl]-", "2-Naphthol, 1-(2-pyridylazo)-", "2-Naphthalenol, 1-(2-pyridinylazo)-", "Pyridine, 2-(2-hydroxy-1-naphthylazo)-", "1-[2-(2-Pyridinyl)diazenyl]-2-naphthalenol", "2-Hydroxy-1-(2-pyridylazo)naphthalene", "1-(2-Pyridylazo)-2-hydroxynaphthalene", "1-(2-Pyridylazo)-2-naphthol", "PAN (indicator)", "PAN", "1-(Pyridin-2-azo)-2-naphthol", "1-(2-pyridylazo)naphthol-2", "1-(2\u2032-Pyridylazo)-2-naphthol", "NSC 5332", "2-Hydroxy-1-[pyridin-2-yldiazenyl]naphthalene", "PAN 1"], "SMILES": "N(=NC1=CC=CC=N1)C=2C3=C(C=CC2O)C=CC=C3", "physical_data": {"Molecular Weight": "249.27", "Molecular Formula": "C15H11N3O", "Melting Point": "137 \u00b0C"}}