{"cas_no": "85-81-4", "cn_name": "6-\u7532\u6c27\u57fa-8-\u785d\u57fa\u55b9\u5549", "en_name": ["6-Methoxy-8-nitroquinoline", "Quinoline, 6-methoxy-8-nitro-", "6-Methoxy-8-nitroquinoline", "8-Nitro-6-methoxyquinoline", "NSC 1883"], "SMILES": "N(=O)(=O)C=1C2=C(C=C(OC)C1)C=CC=N2", "physical_data": {"Molecular Weight": "204.18", "Molecular Formula": "C10H8N2O3", "Melting Point": "159 \u00b0C"}}