{"cas_no": "85-83-6", "cn_name": "\u6eb6\u5242\u7ea2 24", "en_name": ["Solvent Red 24", "2-Naphthalenol, 1-[2-[2-methyl-4-[2-(2-methylphenyl)diazenyl]phenyl]diazenyl]-", "C.I. Solvent Red 24", "2-Naphthalenol, 1-[[2-methyl-4-[(2-methylphenyl)azo]phenyl]azo]-", "2-Naphthol, 1-(4-o-tolylazo-o-tolylazo)-", "1-[2-[2-Methyl-4-[2-(2-methylphenyl)diazenyl]phenyl]diazenyl]-2-naphthalenol", "C.I. 26105", "Biebrich Scarlet BPC", "Biebrich Scarlet Red", "Brasilazina Oil Red B", "Candle Scarlet B", "Candle Scarlet G", "Candle Scarlet 2B", "Ceres Red BB", "Dispersol Red PP", "Enial Red IV", "Fast Oil Red B", "Fast Red BB", "Fat Ponceau R", "Fat Red B", "Fat Red 2B", "Fat Red BB", "Fat Red BS", "Fat Red TS", "Grasal Brilliant Red B", "Grasan Brilliant Red B", "Hidaco Oil Red", "Lacquer Red V", "Lacquer Red VS", "Oil Red A", "Oil Red D", "Oil Red F", "Oil Red S", "Oil Red 2B", "Oil Red 3", "Oil Red 3B", "Oil Red 7", "Oil Red 47", "Oil Red 282", "Oil Red APT", "Oil Red BB", "Oil Red BS", "Oil Red ED", "Oil Red GO", "Orient Oil Red RR", "Oil Red TAX", "Oil Red ZD", "Oil Scarlet", "Oil Scarlet 48", "Oleal Red BB", "Organol Red B", "Oil Red RR", "Plastoresin Red F", "Red 3R Soluble in Grease", "Resinol Red 2B", "Silotras Red T 3B", "Somalia Red IV", "Stearix Red 4B", "Stearix Red 4S", "Sudan P", "Sudan IV", "Sudan Red BB", "Sudan Red BBA", "Sudan Red IV", "Tertrogras Red N", "o-Tolylazo-o-tolylazo-2-naphthol", "o-Tolylazo-o-tolylazo-\u03b2-naphthol", "Toyo Oil Red BB", "Waxoline Red O", "Waxoline Red OM", "Waxoline Red OS", "Oil Red RC", "o-Tolueneazo-o-toluene-\u03b2-naphthol", "1-[4-(o-Tolylazo)-o-tolylazo]-2-naphthol", "2\u2032,3-Dimethyl-4-(2-hydroxynaphthylazo)azobenzene", "Scarlet red", "Fat Soluble Dark Red", "Scarlet oil", "Sudan Red 4BA", "Oil Red", "1-(2\u2032-Methyl-4\u2032-(2\u2032\u2032-methylphenylazo)phenylazo)-2-naphthol", "Japan Red 501", "Solvent Red 24", "Atlasol Red 4B", "SOT Red 1", "Aizen SOT Red 1", "Sudan (IV) dye", "Scarlet R (solvent dye)", "Scarlet R", "Oleosol Red BB", "Sudan Red 380", "Oil Red B", "Oil Red SST Extra", "NSC 10472", "TU 6-14-8780", "Sudan 4", "Orcosolve Red 4B", "Permalex Red 2B", "Medical Scarlet", "Red No. 501", "1-(2-Methyl-4-o-tolylazo-phenylazo)-naphthalen-2-ol"], "SMILES": "N(=NC1=C(C)C=C(N=NC2=C(C)C=CC=C2)C=C1)C=3C4=C(C=CC3O)C=CC=C4", "physical_data": {"Molecular Weight": "380.44", "Molecular Formula": "C24H20N4O", "Melting Point": "186 \u00b0C (decomp)"}}