{"cas_no": "85-86-9", "cn_name": "\u6eb6\u5242\u7ea2 23", "en_name": ["1-(p-Phenylazophenylazo)-2-naphthol (Sudan III)", "2-Naphthalenol, 1-[2-[4-(2-phenyldiazenyl)phenyl]diazenyl]-", "C.I. Solvent Red 23", "2-Naphthalenol, 1-[[4-(phenylazo)phenyl]azo]-", "2-Naphthol, 1-(p-phenylazophenylazo)-", "1-[2-[4-(2-Phenyldiazenyl)phenyl]diazenyl]-2-naphthalenol", "C.I. 26100", "111440 Red", "Brasilazina Oil Scarlet", "Certiqual Oil Red", "Fast Oil Scarlet III", "Fat Red R", "Fat Red HRR", "Fat Red RS", "Fat Scarlet LB", "Grasal Brilliant Red G", "Grasan Brilliant Red G", "Oil Red 3G", "Oil Red AS", "Oil Scarlet G", "Organol Red BS", "Organol Scarlet", "1-(p-Phenylazophenylazo)-2-naphthol", "Silotras Scarlet TB", "Somalia Red III", "Stearix Scarlet", "Sudan Red III", "Sudan P III", "Tetrazobenzene-\u03b2-naphthol", "Toney Red", "D and C Red No. 17", "Sudan III", "Red Zh", "Fat Soluble Red Zh", "FD And C Red No. 17", "Red No. 225", "Solvent Red 23", "Oil Red Extra", "Sudan 3", "Japan Red 225", "Japan Red No. 225", "NSC 65825", "NSC 8995", "D&", "C Red No. 17", "Oil Red DR 126", "DC Red 17", "Red 17", "VisioTag", "1-(p-Phenylazophenylazo)-2-naphthol (Sudan III)", "D&", "C Red No. 17 K 7007"], "SMILES": "N(=NC1=CC=C(N=NC2=CC=CC=C2)C=C1)C=3C4=C(C=CC3O)C=CC=C4", "physical_data": {"Molecular Weight": "352.39", "Molecular Formula": "C22H16N4O", "Melting Point": "195 \u00b0C"}}