{"cas_no": "85-94-9", "cn_name": "\u80de\u82f7 2\u02ca-\u4e00\u78f7\u9178", "en_name": ["2\u2032-Cytidylic acid", "2\u2032-Cytidylic acid", "2\u2032-CMP", "Cytidine 2\u2032-phosphate", "Cytidine 2\u2032-monophosphate"], "SMILES": "O(P(=O)(O)O)C1C(OC(CO)C1O)N2C(=O)N=C(N)C=C2", "physical_data": {"Molecular Weight": "323.20", "Molecular Formula": "C9H14N3O8P", "Melting Point": "240-242 \u00b0C (decomp)"}}