{"cas_no": "85-91-6", "cn_name": "2-(\u7532\u6c28\u57fa)\u82ef\u7532\u9178\u7532\u916f", "en_name": ["Methyl N-methylanthranilate", "Benzoic acid, 2-(methylamino)-, methyl ester", "Anthranilic acid, N-methyl-, methyl ester", "Methyl methylanthranilate", "Methyl methanthranilate", "Methyl N-methylanthranilate", "N-Methylanthranilic acid methyl ester", "Methyl o-(methylamino)benzoate", "Methyl 2-(methylamino)benzoate", "2-(Methylamino)benzoic acid methyl ester", "NSC 9406", "Dimethyl anthranilate"], "SMILES": "C(OC)(=O)C1=C(NC)C=CC=C1", "physical_data": {"Molecular Weight": "165.19", "Molecular Formula": "C9H11NO2", "Boiling Point": "256 \u00b0C @ Press: 760 Torr", "Melting Point": "18.5-19.5 \u00b0C", "Density": "1.120 g/cm\u00b3 @ Temp: 15 \u00b0C"}}