{"cas_no": "85-98-3", "cn_name": "N,N'-\u4e8c\u4e59\u57fa\u4e8c\u82ef\u8132", "en_name": ["Centralite", "Urea, N,N\u2032-diethyl-N,N\u2032-diphenyl-", "Carbanilide, N,N\u2032-diethyl-", "Centralite 1", "N,N\u2032-Diethyl-N,N\u2032-diphenylurea", "Carbamite", "Centralite", "sym-Diethyldiphenylurea", "Ethyl centralite", "N,N\u2032-Diethylcarbanilide", "Centralite I", "1,3-Diethyl-1,3-diphenylurea", "NSC 28779", "NSC 44038"], "SMILES": "N(C(N(CC)C1=CC=CC=C1)=O)(CC)C2=CC=CC=C2", "physical_data": {"Molecular Weight": "268.35", "Molecular Formula": "C17H20N2O", "Melting Point": "79 \u00b0C"}}