{"cas_no": "85-99-4", "cn_name": "2'-\u82ef\u7532\u9178\u4e59\u9170\u82ef\u80fa", "en_name": ["2\u2032-Benzoylacetanilide", "Acetamide, N-(2-benzoylphenyl)-", "Acetanilide, 2\u2032-benzoyl-", "N-(2-Benzoylphenyl)acetamide", "2\u2032-Benzoylacetanilide", "2-Acetamidobenzophenone", "2-Acetylaminobenzophenone", "NSC 126369", "N-(o-Benzoylphenyl)acetamide"], "SMILES": "C(=O)(C1=C(NC(C)=O)C=CC=C1)C2=CC=CC=C2", "physical_data": {"Molecular Weight": "239.27", "Molecular Formula": "C15H13NO2", "Melting Point": "71-73 \u00b0C"}}