{"cas_no": "850-52-2", "cn_name": "\u56db\u70ef\u96cc\u916e", "en_name": ["Altrenogest", "Estra-4,9,11-trien-3-one, 17-hydroxy-17-(2-propen-1-yl)-, (17\u03b2)-", "Estra-4,9,11-trien-3-one, 17\u03b1-allyl-17-hydroxy-", "Estra-4,9,11-trien-3-one, 17-hydroxy-17-(2-propenyl)-, (17\u03b2)-", "(17\u03b2)-17-Hydroxy-17-(2-propen-1-yl)estra-4,9,11-trien-3-one", "DRC 6246", "Allyltrenbolone", "R 2267", "RU 2267", "Altrenogest", "Regumate", "A 35957", "Matrix", "Matrix (progestogen)"], "SMILES": "CC12C(C3C(C=C1)=C4C(CC3)=CC(=O)CC4)CCC2(CC=C)O", "physical_data": {"Molecular Weight": "310.43", "Molecular Formula": "C21H26O2", "Melting Point": "120 \u00b0C"}}