{"cas_no": "85006-21-9", "cn_name": "2-\u6c2f-5-\u7532\u6c27\u57fa\u82ef\u80fa\u76d0\u9178\u76d0", "en_name": ["Benzenamine, 2-chloro-5-methoxy-, hydrochloride (1:1)", "Benzenamine, 2-chloro-5-methoxy-, hydrochloride (1:1)", "Benzenamine, 2-chloro-5-methoxy-, hydrochloride", "2-Chloro-5-methoxyaniline hydrochloride", "6-Chloro-m-anisidine hydrochloride", "6-Chloro-3-methoxyaniline hydrochloride", "2-Chloro-5-methoxybenzenamine hydrochloride"], "SMILES": "O(C)C1=CC(N)=C(Cl)C=C1.Cl", "physical_data": {"Molecular Weight": "", "Molecular Formula": "C7H8ClNO.ClH", "Melting Point": "203-205 \u00b0C (decomp)"}}