{"cas_no": "85006-31-1", "cn_name": "3-\u6c28\u57fa-4-\u7532\u57fa\u567b\u5429-2-\u7532\u9178\u7532\u916f", "en_name": ["Methyl 3-amino-4-methylthiophene-2-carboxylate", "2-Thiophenecarboxylic acid, 3-amino-4-methyl-, methyl ester", "Methyl 3-amino-4-methylthiophene-2-carboxylate", "2-Methoxycarbonyl-3-amino-4-methylthiophene", "3-Amino-4-methylthiophene-2-carboxylic acid methyl ester", "3-Amino-4-methyl-2-methoxycarbonylthiophene"], "SMILES": "C(OC)(=O)C1=C(N)C(C)=CS1", "physical_data": {"Molecular Weight": "171.22", "Molecular Formula": "C7H9NO2S", "Melting Point": "84-85 \u00b0C"}}