{"cas_no": "85006-25-3", "cn_name": "NULL", "en_name": ["N,O-Bis(tert-butoxycarbonyl)hydroxylamine", "Carbonic acid, [[(1,1-dimethylethoxy)carbonyl]azanyl] 1,1-dimethylethyl ester", "Carbamic acid, [[(1,1-dimethylethoxy)carbonyl]oxy]-, 1,1-dimethylethyl ester", "Carbamic acid, (tert-butoxycarbonyloxy)-, tert-butyl ester", "N,O-Bis(tert-butoxycarbonyl)hydroxylamine", "tert-Butyl N-(tert-butoxycarbonyloxy)carbamate", "tert-Butyl (tert-butoxycarbonyloxy)carbamate", "N,O-(tert-Butoxycarbonyl)hydroxylamine", "[(tert-Butoxycarbonyl)oxy]carbamic acid tert-butyl ester", "2-[[([[(tert-Butoxy)carbonyl]amino]oxy)carbonyl]oxy]-2-methylpropane"], "SMILES": "O(C(C)(C)C)C(NOC(OC(C)(C)C)=O)=O", "physical_data": {"Molecular Weight": "233.26", "Molecular Formula": "C10H19NO5", "Melting Point": "67-69 \u00b0C"}}