{"cas_no": "85026-55-7", "cn_name": "\u677e\u9999\u6811\u8102", "en_name": ["Rosin X", "\u03b2-D-Glucopyranoside, (2E)-3-phenyl-2-propen-1-yl", "\u03b2-D-Glucopyranoside, 3-phenyl-2-propenyl, (E)-", "\u03b2-D-Glucopyranoside, (2E)-3-phenyl-2-propenyl", "(2E)-3-Phenyl-2-propen-1-yl \u03b2-D-glucopyranoside", "Rosin (glycoside)", "Rosin", "Rosin X", "Chinese Rosin W", "trans-Cinnamyl \u03b2-D-glucopyranoside"], "SMILES": "O(CC=CC1=CC=CC=C1)C2OC(CO)C(O)C(O)C2O", "physical_data": {"Molecular Weight": "296.32", "Molecular Formula": "C15H20O6", "Melting Point": "114-116 \u00b0C"}}