{"cas_no": "850313-92-7", "cn_name": "\u4e09\u6c1f(2-\u7f9f\u57fa\u82ef\u57fa)\u787c\u9178\u94be", "en_name": ["Borate(1-), trifluoro(2-hydroxyphenyl-\u03baC)-, potassium (1:1), (T-4)-", "Borate(1-), trifluoro(2-hydroxyphenyl-\u03baC)-, potassium (1:1), (T-4)-", "Borate(1-), trifluoro(2-hydroxyphenyl-\u03baC)-, potassium, (T-4)-", "2-Hydroxyphenyltrifluoroborate potassium salt"], "SMILES": "[B+3]([F-])([F-])([F-])[C-]=1C(O)=CC=CC1.[K+]", "physical_data": {"Molecular Weight": "", "Molecular Formula": "C6H5BF3O.K", "Melting Point": "&gt;250 \u00b0C"}}