{"cas_no": "850567-55-4", "cn_name": "1-(4-\u6c1f\u82ef\u57fa)\u4e59\u70ef\u57fa\u787c\u9178\u9891\u54ea\u9187\u916f", "en_name": ["2-[1-(4-Fluorophenyl)ethenyl]-4,4,5,5-tetramethyl-1,3,2-dioxaborolane", "1,3,2-Dioxaborolane, 2-[1-(4-fluorophenyl)ethenyl]-4,4,5,5-tetramethyl-", "2-[1-(4-Fluorophenyl)ethenyl]-4,4,5,5-tetramethyl-1,3,2-dioxaborolane", "2-[1-(4-Fluorophenyl)vinyl]-4,4,5,5-tetramethyl-1,3,2-dioxaborolane", "2-(1-(4-Fluorophenyl)ethenyl)-4,4,5,5-tetramethyl-1,3,2-dioxaborolane", "1-(4-Fluorophenyl)vinylboronic acid pinacol ester"], "SMILES": "C(=C)(B1OC(C)(C)C(C)(C)O1)C2=CC=C(F)C=C2", "physical_data": {"Molecular Weight": "248.10", "Molecular Formula": "C14H18BFO2", "Melting Point": "43.2-44.1 \u00b0C"}}