{"cas_no": "850544-21-7", "cn_name": "4-\u6c28\u57fa-5-\u785d\u57fa-2-\u5421\u5576\u7fa7\u9178\u7532\u916f", "en_name": ["Methyl 4-amino-5-nitro-2-pyridinecarboxylate", "2-Pyridinecarboxylic acid, 4-amino-5-nitro-, methyl ester", "Methyl 4-amino-5-nitro-2-pyridinecarboxylate", "4-Amino-5-nitropyridine-2-carboxylic acid methyl ester", "4-Amino-5-nitropicolinic acid methyl ester"], "SMILES": "C(OC)(=O)C1=CC(N)=C(N(=O)=O)C=N1", "physical_data": {"Molecular Weight": "197.15", "Molecular Formula": "C7H7N3O4", "Melting Point": "223-225 \u00b0C"}}