{"cas_no": "850623-71-1", "cn_name": "(4-\u785d\u57fa\u82ef\u57fa)\u4e09\u6c1f\u787c\u9178\u94be", "en_name": ["Borate(1-), trifluoro(4-nitrophenyl)-, potassium (1:1), (T-4)-", "Borate(1-), trifluoro(4-nitrophenyl)-, potassium (1:1), (T-4)-", "Borate(1-), trifluoro(4-nitrophenyl)-, potassium, (T-4)-", "Potassium trifluoro(4-nitrophenyl)borate", "Potassium 4-nitrophenyltrifluoroborate"], "SMILES": "[B+3]([F-])([F-])([F-])[C-]=1C=CC(N(=O)=O)=CC1.[K+]", "physical_data": {"Molecular Weight": "", "Molecular Formula": "C6H4BF3NO2.K", "Melting Point": "&gt;220 \u00b0C"}}