{"cas_no": "85068-36-6", "cn_name": "2,5-\u4e8c\u6c1f\u82ef\u7532\u916e", "en_name": ["(2,5-Difluorophenyl)phenylmethanone", "Methanone, (2,5-difluorophenyl)phenyl-", "(2,5-Difluorophenyl)phenylmethanone", "2,5-Difluorobenzophenone"], "SMILES": "C(=O)(C1=C(F)C=CC(F)=C1)C2=CC=CC=C2", "physical_data": {"Molecular Weight": "218.20", "Molecular Formula": "C13H8F2O", "Boiling Point": "120-123 \u00b0C @ Press: 0.35 Torr"}}