{"cas_no": "85068-35-5", "cn_name": "2,4-\u4e8c\u6c1f\u4e8c\u82ef\u7532\u916e", "en_name": ["(2,4-Difluorophenyl)phenylmethanone", "Methanone, (2,4-difluorophenyl)phenyl-", "(2,4-Difluorophenyl)phenylmethanone", "2,4-Difluorobenzophenone"], "SMILES": "C(=O)(C1=C(F)C=C(F)C=C1)C2=CC=CC=C2", "physical_data": {"Molecular Weight": "218.20", "Molecular Formula": "C13H8F2O", "Melting Point": "92-95 \u00b0C"}}