{"cas_no": "85098-64-2", "cn_name": "1-\u82c4\u57fa-4-(\u82ef\u80fa\u57fa)\u54cc\u5576-4-\u7fa7\u9178", "en_name": ["4-(Phenylamino)-1-(phenylmethyl)-4-piperidinecarboxylic acid", "4-Piperidinecarboxylic acid, 4-(phenylamino)-1-(phenylmethyl)-", "4-(Phenylamino)-1-(phenylmethyl)-4-piperidinecarboxylic acid", "NSC 73748", "1-Benzyl-4-(phenylamino)piperidine-4-carboxylic acid", "4-Anilino-1-benzylpiperidine-4-carboxylic acid"], "SMILES": "N(C1(C(O)=O)CCN(CC2=CC=CC=C2)CC1)C3=CC=CC=C3", "physical_data": {"Molecular Weight": "310.39", "Molecular Formula": "C19H22N2O2", "Melting Point": "243-245 \u00b0C"}}