{"cas_no": "85095-61-0", "cn_name": "\u9632\u9ec4\u5242 HN-150", "en_name": ["N,N\u2032-(Methylenedi-4,1-phenylene)bis[2,2-dimethylhydrazinecarboxamide]", "Hydrazinecarboxamide, N,N\u2032-(methylenedi-4,1-phenylene)bis[2,2-dimethyl-", "N,N\u2032-(Methylenedi-4,1-phenylene)bis[2,2-dimethylhydrazinecarboxamide]", "1,1,1\u2032,1\u2032-Tetramethyl-4,4\u2032-(methylene-di-p-phenylene)disemicarbazide", "HN 150", "Z-UDT", "4,4\u2032-(Methylene-di-p-phenylene)bis(N,N-dimethylsemicarbazide)", "Chisorb 1500", "UDT", "Anti-yellowing agent UDT", "1-(Dimethylamino)-3-[4-[[4-(dimethylaminocarbamoylamino)phenyl]methyl]phenyl]urea"], "SMILES": "C(C1=CC=C(NC(NN(C)C)=O)C=C1)C2=CC=C(NC(NN(C)C)=O)C=C2", "physical_data": {"Molecular Weight": "370.45", "Molecular Formula": "C19H26N6O2", "Melting Point": "161-162 \u00b0C"}}