{"cas_no": "85098-70-0", "cn_name": "4-\u6c28\u57fa-1-(4-\u7532\u6c27\u57fa\u82ef\u4e59\u57fa)\u54cc\u5576", "en_name": ["1-[2-(4-Methoxyphenyl)ethyl]-4-piperidinamine", "4-Piperidinamine, 1-[2-(4-methoxyphenyl)ethyl]-", "1-[2-(4-Methoxyphenyl)ethyl]-4-piperidinamine", "R 48970", "1-(4-Methoxyphenethyl)-4-aminopiperidine", "1-(4-Methoxyphenethyl)piperidin-4-amine"], "SMILES": "C(CN1CCC(N)CC1)C2=CC=C(OC)C=C2", "physical_data": {"Molecular Weight": "234.34", "Molecular Formula": "C14H22N2O", "Melting Point": "30-32 \u00b0C"}}