{"cas_no": "85100-77-2", "cn_name": "1-\u4e01\u57fa-3-\u7532\u57fa\u54aa\u5511\u6eb4\u76d0", "en_name": ["1-Butyl-3-methylimidazolium bromide", "1H-Imidazolium, 3-butyl-1-methyl-, bromide (1:1)", "1H-Imidazolium, 1-butyl-3-methyl-, bromide", "3-Butyl-1-methylimidazolium bromide", "1-Butyl-3-methylimidazolium bromide", "1-Butyl-3-methyl-1H-imidazolium bromide", "1-Methyl-3-butylimidazolium bromide", "N-Butyl-N\u2032-methylimidazolium bromide", "1-n-Butyl-3-methylimidazolium bromide", "[C4Mim]Br", "[C4Mim+][Br-]"], "SMILES": "C(CCC)[N+]1=CN(C)C=C1.[Br-]", "physical_data": {"Molecular Weight": "", "Molecular Formula": "C8H15N2.Br", "Melting Point": "69-70 \u00b0C", "Density": "1.30 g/cm\u00b3 @ Temp: 25.1 \u00b0C"}}