{"cas_no": "85100-76-1", "cn_name": "1-\u4e19\u57fa-3-\u7532\u57fa\u54aa\u5511\u6eb4\u76d0", "en_name": ["1-Propyl-3-methylimidazolium bromide", "1H-Imidazolium, 1-methyl-3-propyl-, bromide (1:1)", "1H-Imidazolium, 1-methyl-3-propyl-, bromide", "1-Methyl-3-propyl-1H-imidazolium bromide", "3-Methyl-1-propylimidazolium bromide", "1-Methyl-3-propylimidazolium bromide", "1-Propyl-3-methylimidazolium bromide", "1-n-Propyl-3-methylimidazolium bromide"], "SMILES": "C(CC)[N+]1=CN(C)C=C1.[Br-]", "physical_data": {"Molecular Weight": "", "Molecular Formula": "C7H13N2.Br", "Melting Point": "40.4 \u00b0C"}}