{"cas_no": "85118-04-3", "cn_name": "3,4-\u4e8c\u6c1f\u82ef\u7532\u9170\u80fa", "en_name": ["3,4-Difluorobenzamide", "Benzamide, 3,4-difluoro-", "3,4-Difluorobenzamide"], "SMILES": "C(N)(=O)C1=CC(F)=C(F)C=C1", "physical_data": {"Molecular Weight": "157.12", "Molecular Formula": "C7H5F2NO", "Melting Point": "129-130 \u00b0C"}}