{"cas_no": "851178-99-9", "cn_name": "4-\u6c2f-2,3-\u4e8c\u6c1f\u5421\u5576", "en_name": ["4-Chloro-2,3-difluoropyridine", "Pyridine, 4-chloro-2,3-difluoro-", "4-Chloro-2,3-difluoropyridine"], "SMILES": "FC=1C(Cl)=CC=NC1F", "physical_data": {"Molecular Weight": "149.53", "Molecular Formula": "C5H2ClF2N", "Boiling Point": "139-141 \u00b0C", "Melting Point": "-25--23 \u00b0C"}}