{"cas_no": "851179-00-5", "cn_name": "3-\u6c2f-2,5-\u4e8c\u6c1f\u5421\u5576", "en_name": ["3-Chloro-2,5-difluoropyridine", "Pyridine, 3-chloro-2,5-difluoro-", "3-Chloro-2,5-difluoropyridine"], "SMILES": "ClC1=C(F)N=CC(F)=C1", "physical_data": {"Molecular Weight": "149.53", "Molecular Formula": "C5H2ClF2N", "Boiling Point": "136-137 \u00b0C", "Melting Point": "10-12 \u00b0C"}}