{"cas_no": "851386-45-3", "cn_name": "3,6-\u4e8c\u6c1f\u5421\u5576-2-\u7532\u9178", "en_name": ["3,6-Difluoro-2-pyridinecarboxylic acid", "2-Pyridinecarboxylic acid, 3,6-difluoro-", "3,6-Difluoro-2-pyridinecarboxylic acid", "3,6-Difluoropyridine-2-carboxylic acid"], "SMILES": "C(O)(=O)C1=C(F)C=CC(F)=N1", "physical_data": {"Molecular Weight": "159.09", "Molecular Formula": "C6H3F2NO2", "Melting Point": "139-141 \u00b0C"}}