{"cas_no": "851386-35-1", "cn_name": "5-\u7898-2,3-\u4e8c\u6c1f\u5421\u5576", "en_name": ["2,3-Difluoro-5-iodopyridine", "Pyridine, 2,3-difluoro-5-iodo-", "2,3-Difluoro-5-iodopyridine"], "SMILES": "FC1=C(F)N=CC(I)=C1", "physical_data": {"Molecular Weight": "240.98", "Molecular Formula": "C5H2F2IN", "Boiling Point": "69-71 \u00b0C @ Press: 15 Torr", "Melting Point": "34-35 \u00b0C"}}