{"cas_no": "851386-32-8", "cn_name": "4-\u6c2f-5,6-\u4e8c\u6c1f\u5421\u5576-3-\u7532\u9178", "en_name": ["4-Chloro-5,6-difluoro-3-pyridinecarboxylic acid", "3-Pyridinecarboxylic acid, 4-chloro-5,6-difluoro-", "4-Chloro-5,6-difluoro-3-pyridinecarboxylic acid", "4-Chloro-5,6-difluoronicotinic acid", "4-Chloro-5,6-difluoropyridine-3-carboxylic acid"], "SMILES": "C(O)(=O)C=1C(Cl)=C(F)C(F)=NC1", "physical_data": {"Molecular Weight": "193.54", "Molecular Formula": "C6H2ClF2NO2", "Melting Point": "117-118 \u00b0C (decomp)"}}