{"cas_no": "851386-43-1", "cn_name": "2,5-\u4e8c\u6c1f\u5421\u5576-3-\u7fa7\u9178", "en_name": ["2,5-Difluoro-3-pyridinecarboxylic acid", "3-Pyridinecarboxylic acid, 2,5-difluoro-", "2,5-Difluoro-3-pyridinecarboxylic acid", "2,5-Difluoropyridine-3-carboxylic acid", "2,5-Difluoronicotinic acid"], "SMILES": "C(O)(=O)C1=C(F)N=CC(F)=C1", "physical_data": {"Molecular Weight": "159.09", "Molecular Formula": "C6H3F2NO2", "Melting Point": "90-92 \u00b0C"}}