{"cas_no": "85175-59-3", "cn_name": "\u76d0\u9178\u4f0a\u4f10\u5e03\u96f7\u5b9a\u4fa7\u94fe", "en_name": ["3-(3-Chloropropyl)-1,3-dihydro-7,8-dimethoxy-2H-3-benzazepin-2-one", "2H-3-Benzazepin-2-one, 3-(3-chloropropyl)-1,3-dihydro-7,8-dimethoxy-", "3-(3-Chloropropyl)-1,3-dihydro-7,8-dimethoxy-2H-3-benzazepin-2-one", "3-(3-Chloropropyl)-7,8-dimethoxy-1H-3-benzazepin-2(3H)-one", "7,8-Dimethoxy-3-(3-chloropropyl)-1,3-dihydro-2H-3-benzazepin-2-one"], "SMILES": "O(C)C=1C=C2C(=CC1OC)CC(=O)N(CCCCl)C=C2", "physical_data": {"Molecular Weight": "295.76", "Molecular Formula": "C15H18ClNO3", "Melting Point": "100-102 \u00b0C"}}