{"cas_no": "851983-85-2", "cn_name": "Galeterone", "en_name": ["Galeterone", "Androsta-5,16-dien-3-ol, 17-(1H-benzimidazol-1-yl)-, (3\u03b2)-", "(3\u03b2)-17-(1H-Benzimidazol-1-yl)androsta-5,16-dien-3-ol", "VN/124-1", "VN 124", "Galeterone", "TOK 001", "Galaterone", "TK-001"], "SMILES": "CC12C(C3C(CC1)C4(C)C(=CC3)CC(O)CC4)CC=C2N5C=6C(N=C5)=CC=CC6", "physical_data": {"Molecular Weight": "388.55", "Molecular Formula": "C26H32N2O", "Melting Point": "189-190 \u00b0C"}}