{"cas_no": "852-38-0", "cn_name": "2-(4-\u8054\u82ef\u57fa)-5-\u82ef\u57fa\u6076\u4e8c\u5511", "en_name": ["2-(4-Biphenylyl)-5-phenyl-1,3,4-oxadiazole", "1,3,4-Oxadiazole, 2-[1,1\u2032-biphenyl]-4-yl-5-phenyl-", "1,3,4-Oxadiazole, 2-(4-biphenylyl)-5-phenyl-", "2-[1,1\u2032-Biphenyl]-4-yl-5-phenyl-1,3,4-oxadiazole", "PBD", "Phenyl-2-p-biphenylyl-5-oxadiazole-1,3,4", "2-Phenyl-5-(4-biphenylyl)-1,3,4-oxadiazole", "2-(4-Biphenyl)-5-phenyl-1,3,4-oxadiazole", "2-p-Biphenylyl-5-phenyl-1,3,4-oxadiazole", "2-(p-Biphenyl)-5-phenyl-1,3,4-oxadiazole", "2-Phenyl-5-p-biphenylyl-1,3,4-oxadiazole", "5-(4\u2032-Biphenylyl)-2-phenyl-1,3,4-oxadiazole", "2-Phenyl-5-(4\u2032-biphenylyl)-1,3,4-oxadiazole", "5-p-Biphenylyl-2-phenyl-1,3,4-oxadiazole", "2-(4-Biphenylyl)-5-phenyl-1,3,4-oxadiazole", "NSC 24858", "2-Phenyl-5-(4-phenylphenyl)-1,3,4-oxadiazole"], "SMILES": "C=1(OC(=NN1)C2=CC=CC=C2)C3=CC=C(C=C3)C4=CC=CC=C4", "physical_data": {"Molecular Weight": "298.34", "Molecular Formula": "C20H14N2O", "Melting Point": "166-167 \u00b0C"}}