{"cas_no": "852227-92-0", "cn_name": "3-(1H-\u5421\u5511-1-\u57fa)\u82ef\u7532\u919b", "en_name": ["3-(1H-Pyrazol-1-yl)benzaldehyde", "Benzaldehyde, 3-(1H-pyrazol-1-yl)-", "3-(1H-Pyrazol-1-yl)benzaldehyde", "3-(Pyrazol-1-yl)benzaldehyde"], "SMILES": "C(=O)C=1C=C(C=CC1)N2C=CC=N2", "physical_data": {"Molecular Weight": "172.18", "Molecular Formula": "C10H8N2O", "Melting Point": "28-30 \u00b0C"}}