{"cas_no": "852475-26-4", "cn_name": "MC1568", "en_name": ["(2E)-3-[5-[(1E)-3-(3-Fluorophenyl)-3-oxo-1-propen-1-yl]-1-methyl-1H-pyrrol-2-yl]-N-hydroxy-2-propenamide", "2-Propenamide, 3-[5-[(1E)-3-(3-fluorophenyl)-3-oxo-1-propen-1-yl]-1-methyl-1H-pyrrol-2-yl]-N-hydroxy-, (2E)-", "(2E)-3-[5-[(1E)-3-(3-Fluorophenyl)-3-oxo-1-propen-1-yl]-1-methyl-1H-pyrrol-2-yl]-N-hydroxy-2-propenamide", "MC 1568", "(E)-3-(5-((E)-3-(3-Fluorophenyl)-3-oxoprop-1-en-1-yl)-1-methyl-1H-pyrrol-2-yl)-N-hydroxyacrylamide", "MJK 001"], "SMILES": "C(=CC(=O)C1=CC(F)=CC=C1)C=2N(C)C(C=CC(NO)=O)=CC2", "physical_data": {"Molecular Weight": "314.31", "Molecular Formula": "C17H15FN2O3", "Melting Point": "212-215 \u00b0C"}}