{"cas_no": "85264-33-1", "cn_name": "\u4e8c\u7532\u57fa\u7f9f\u7532\u57fa\u5421\u5511", "en_name": ["1-(Hydroxymethyl)-3,5-dimethylpyrazole", "1H-Pyrazole-1-methanol, 3,5-dimethyl-", "Pyrazole-1-methanol, 3,5-dimethyl-", "3,5-Dimethyl-1H-pyrazole-1-methanol", "N-(Hydroxymethyl)-3,5-dimethylpyrazole", "3,5-Dimethylpyrazole-1-methanol", "1-(Hydroxymethyl)-3,5-dimethylpyrazole", "3,5-Dimethyl-1-(hydroxymethyl)pyrazole", "3,5-Dimethylpyrazol-1-methanol", "NSC 71880", "(3,5-Dimethyl-1H-pyrazol-1-yl)methanol", "2-(Hydroxymethyl)-3,5-dimethylpyrazole", "(3,5-Dimethyl-pyrazol-1-yl)-methanol", "Di(3,5-dimethyl-1H-pyrazol-1-yl)-1-methanol"], "SMILES": "C(O)N1C(C)=CC(C)=N1", "physical_data": {"Molecular Weight": "126.16", "Molecular Formula": "C6H10N2O", "Melting Point": "108-109 \u00b0C"}}