{"cas_no": "852620-97-4", "cn_name": "1-\u7532\u57fa-1-\u4e19\u57fa\u5421\u54af\u70f7\u9393\u53cc(\u6c1f\u78fa\u9170)\u4e9a\u80fa", "en_name": ["Pyrrolidinium, 1-methyl-1-propyl-, salt with imidodisulfuryl fluoride (1:1)", "Pyrrolidinium, 1-methyl-1-propyl-, salt with imidodisulfuryl fluoride (1:1)", "1-Methyl-1-propylpyrrolidinium bis(fluorosulfonyl)imide", "Elexcel IL 120", "N-Methyl-N-propylpyrrolidinium bis(fluorosulfonyl)imide", "1-Propyl-1-methylpyrrolidinium bis(fluorosulfonyl)imide", "1-Butyl-3-methylpyrrolidinium bisfluorosulfonylimide", "IL 120", "Elexcel AS 120", "AS 120", "N-Propyl-N-methylpyrrolidinium bis(fluorosulfonyl)imide", "1-Methyl-1-propylpyrrolidinium bis(fluorosulfonyl)amide", "PY13FSI"], "SMILES": "[N-](S(F)(=O)=O)S(F)(=O)=O.C(CC)[N+]1(C)CCCC1", "physical_data": {"Molecular Weight": "", "Molecular Formula": "C8H18N.F2NO4S2", "Melting Point": "256 \u00b0C"}}