{"cas_no": "85272-31-7", "cn_name": "\u4e8c\u53d4\u4e01\u57fa\u7845\u57fa\u53cc(\u4e09\u6c1f\u7532\u70f7\u78fa\u9178)", "en_name": ["Bis(1,1-dimethylethyl)[[(trifluoromethyl)sulfonyl]oxy]silyl 1,1,1-trifluoromethanesulfonate", "Methanesulfonic acid, 1,1,1-trifluoro-, bis(1,1-dimethylethyl)[[(trifluoromethyl)sulfonyl]oxy]silyl ester", "Methanesulfonic acid, trifluoro-, bis(1,1-dimethylethyl)silylene ester", "Bis(1,1-dimethylethyl)[[(trifluoromethyl)sulfonyl]oxy]silyl 1,1,1-trifluoromethanesulfonate", "Di-tert-butylsilyl bis(trifluoromethanesulfonate)", "Di-tert-butylbis(trifluoromethanesulfonato)silane", "Di(tert-butyl)silyl ditriflate", "(tert-Butyl)2(OTf)2Si", "[Ditert-butyl(trifluoromethylsulfonyloxy)silyl] trifluoromethanesulfonate"], "SMILES": "[Si](OS(C(F)(F)F)(=O)=O)(OS(C(F)(F)F)(=O)=O)(C(C)(C)C)C(C)(C)C", "physical_data": {"Molecular Weight": "440.45", "Molecular Formula": "C10H18F6O6S2Si", "Boiling Point": "73-75 \u00b0C @ Press: 0.35 Torr", "Density": "1.358 g/cm\u00b3"}}