{"cas_no": "85290-78-4", "cn_name": "3-\u7532\u57fa\u5421\u5511-4-\u7532\u9178\u4e59\u916f", "en_name": ["1H-Pyrazole-4-carboxylic acid, 3-methyl-, ethyl ester", "1H-Pyrazole-4-carboxylic acid, 3-methyl-, ethyl ester", "Pyrazole-4-carboxylic acid, 3(or 5)-methyl-, ethyl ester", "Ethyl 3-methylpyrazole-4-carboxylate", "Ethyl 3-methyl-1H-pyrazole-4-carboxylate", "3-Methyl-1H-pyrazole-4-carboxylic acid ethyl ester", "NSC 19454"], "SMILES": "C(OCC)(=O)C=1C(C)=NNC1", "physical_data": {"Molecular Weight": "154.17", "Molecular Formula": "C7H10N2O2", "Melting Point": "80 \u00b0C"}}