{"cas_no": "853-39-4", "cn_name": "\u5341\u6c1f\u8054\u82ef\u916e", "en_name": ["Decafluorobenzophenone", "Methanone, bis(2,3,4,5,6-pentafluorophenyl)-", "Benzophenone, decafluoro-", "Methanone, bis(pentafluorophenyl)-", "Bis(2,3,4,5,6-pentafluorophenyl)methanone", "Decafluorobenzophenone", "Perfluorobenzophenone", "NSC 96914"], "SMILES": "C(=O)(C1=C(F)C(F)=C(F)C(F)=C1F)C2=C(F)C(F)=C(F)C(F)=C2F", "physical_data": {"Molecular Weight": "362.12", "Molecular Formula": "C13F10O", "Melting Point": "91-92 \u00b0C"}}