{"cas_no": "853-34-9", "cn_name": "\u916e\u57fa\u4fdd\u592a\u677e", "en_name": ["Kebuzone", "3,5-Pyrazolidinedione, 4-(3-oxobutyl)-1,2-diphenyl-", "4-(3-Oxobutyl)-1,2-diphenyl-3,5-pyrazolidinedione", "Ketazon", "Ketophenylbutazone", "1,2-Diphenyl-4-(2-acetylethyl)pyrazolidine-3,5-dione", "\u03b3-Oxophenylbutazone", "Kebuzone", "\u03b3-Ketazone", "\u03b3-Ketophenylbutazone", "Ketazone", "Chebutan", "Chepirol", "Chetazol", "Chetil", "Chetopir", "Recheton", "Reuchetal", "Ejor", "Gammachetone", "Ketanol", "Ketason", "Chetazolidin", "Phloguron", "Copirene", "Pecnon", "KPB"], "SMILES": "O=C1N(N(C(=O)C1CCC(C)=O)C2=CC=CC=C2)C3=CC=CC=C3", "physical_data": {"Molecular Weight": "322.36", "Molecular Formula": "C19H18N2O3", "Melting Point": "126.0-128.5 \u00b0C"}}