{"cas_no": "853-23-6", "cn_name": "\u918b\u9178\u53bb\u6c22\u8868\u96c4\u916e", "en_name": ["3\u03b2-Acetoxyandrost-5-en-17-one", "Androst-5-en-17-one, 3-(acetyloxy)-, (3\u03b2)-", "Androst-5-en-17-one, 3\u03b2-hydroxy-, acetate", "(3\u03b2)-3-(Acetyloxy)androst-5-en-17-one", "\u03945-Dehydroepiandrosterone 3-acetate", "Dehydroepiandrost-5-en-17-one 3-acetate", "Dehydroisoandrosterone acetate", "SKF 2847", "3\u03b2-Acetoxyandrost-5-en-17-one", "3\u03b2-Hydroxyandrost-5-en-17-one 3-acetate", "3\u03b2-Hydroxy-5-androsten-17-one acetate", "trans-Dehydroandrosterone acetate", "5-Androsten-3\u03b2-ol-17-one acetate", "3\u03b2-Acetoxydehydroepiandrosterone", "Androstenolone acetate", "17-Oxoandrost-5-en-3\u03b2-yl acetate", "3\u03b2-Hydroxy-5-androstene-17-one acetate", "Dehydroepiandrosterone 3-acetate", "Dehydroisoandrosterone 3-acetate", "Prasterone acetate", "3\u03b2-Acetoxy-5-androstene-17-one", "3\u03b2-Acetyloxyandrost-5-en-17-one", "DHEA acetate", "Dehydroandrosterone acetate", "5-Androstene-3\u03b2-ol-17-one-3-acetate", "3\u03b2-Acetoxyandrosta-5-en-17-on"], "SMILES": "CC12C3C(C4C(C)(CC3)C(=O)CC4)CC=C1CC(OC(C)=O)CC2", "physical_data": {"Molecular Weight": "330.46", "Molecular Formula": "C21H30O3", "Melting Point": "150 \u00b0C"}}