{"cas_no": "85302-07-4", "cn_name": "2-[(\u4e8c\u7532\u57fa\u6c28\u57fa)\u4e9a\u7532\u57fa]-1,3-\u73af\u5df1\u4e8c\u916e", "en_name": ["2-[(Dimethylamino)methylene]-1,3-cyclohexanedione", "1,3-Cyclohexanedione, 2-[(dimethylamino)methylene]-", "2-[(Dimethylamino)methylene]-1,3-cyclohexanedione", "NSC 620164", "2-((Dimethylamino)methylene)cyclohexan-1,3-dione", "2-[(Dimethylamino)methylidene]cyclohexane-1,3-dione", "2-(Dimethylaminomethylidene)cyclohexane-1,3-dione"], "SMILES": "C(N(C)C)=C1C(=O)CCCC1=O", "physical_data": {"Molecular Weight": "167.21", "Molecular Formula": "C9H13NO2", "Melting Point": "116 \u00b0C"}}