{"cas_no": "853029-57-9", "cn_name": "\u5229\u62c9\u5229\u6c40\u6bcd\u6838", "en_name": ["8-Bromo-7-(2-butyn-1-yl)-3,7-dihydro-3-methyl-1-[(4-methyl-2-quinazolinyl)methyl]-1H-purine-2,6-dione", "1H-Purine-2,6-dione, 8-bromo-7-(2-butyn-1-yl)-3,7-dihydro-3-methyl-1-[(4-methyl-2-quinazolinyl)methyl]-", "1H-Purine-2,6-dione, 8-bromo-7-(2-butynyl)-3,7-dihydro-3-methyl-1-[(4-methyl-2-quinazolinyl)methyl]-", "8-Bromo-7-(2-butyn-1-yl)-3,7-dihydro-3-methyl-1-[(4-methyl-2-quinazolinyl)methyl]-1H-purine-2,6-dione", "1-[(4-Methylquinazolin-2-yl)methyl]-3-methyl-7-(2-butyn-1-yl)-8-bromoxanthine"], "SMILES": "C(C#CC)N1C2=C(N(C)C(=O)N(CC3=NC4=C(C(C)=N3)C=CC=C4)C2=O)N=C1Br", "physical_data": {"Molecular Weight": "453.29", "Molecular Formula": "C20H17BrN6O2", "Melting Point": "229-231 \u00b0C"}}