{"cas_no": "85342-62-7", "cn_name": "\u7532\u78fa\u9178, 1,1,1-\u4e09\u6c1f-, 1,3-\u4e8c\u6c27\u4ee3-1H-BENZ[DE]\u5f02\u55b9\u5549-2(3H)-\u57fa \u916f", "en_name": ["N-Hydroxynaphthalimide triflate", "Methanesulfonic acid, 1,1,1-trifluoro-, 1,3-dioxo-1H-benz[de]isoquinolin-2(3H)-yl ester", "1H-Benz[de]isoquinoline-1,3(2H)-dione, 2-[[(trifluoromethyl)sulfonyl]oxy]-", "NAI 105", "N-(Trifluoromethylsulfonyloxy)-1,8-naphthalimide", "N-Hydroxynaphthalimide triflate", "N-Hydroxynaphthalimide trifluoromethanesulfonate", "Adeka Optomer SP 082", "SP 082", "(1,3-Dioxobenzo[de]isoquinolin-2-yl) trifluoromethanesulfonate", "NIT PAG", "N-[(Trifluoromethylsulfonyl)oxy]-1H-benz[de]isoquinoline-1,3(2H)-dione", "N-(Trifluoromethanesulfonyloxy)-1,8-naphthalimide", "H 1136"], "SMILES": "O=C1C=2C=3C(C(=O)N1OS(C(F)(F)F)(=O)=O)=CC=CC3C=CC2", "physical_data": {"Molecular Weight": "345.25", "Molecular Formula": "C13H6F3NO5S", "Melting Point": "217 \u00b0C"}}