{"cas_no": "85386-20-5", "cn_name": "5-\u82ef\u57fa\u5627\u5576-2-\u7fa7\u9178", "en_name": ["5-Phenyl-2-pyrimidinecarboxylic acid", "2-Pyrimidinecarboxylic acid, 5-phenyl-", "5-Phenyl-2-pyrimidinecarboxylic acid"], "SMILES": "C(O)(=O)C=1N=CC(=CN1)C2=CC=CC=C2", "physical_data": {"Molecular Weight": "200.19", "Molecular Formula": "C11H8N2O2", "Melting Point": "223 \u00b0C"}}