{"cas_no": "85416-73-5", "cn_name": "S- (+)-Rolipram", "en_name": ["(+)-Rolipram", "2-Pyrrolidinone, 4-[3-(cyclopentyloxy)-4-methoxyphenyl]-, (4S)-", "2-Pyrrolidinone, 4-[3-(cyclopentyloxy)-4-methoxyphenyl]-, (S)-", "(4S)-4-[3-(Cyclopentyloxy)-4-methoxyphenyl]-2-pyrrolidinone", "(+)-Rolipram", "(S)-Rolipram", "(S)-(+)-Rolipram", "(4S)-4-(3-Cyclopentyloxy-4-methoxyphenyl)pyrrolidin-2-one"], "SMILES": "O(C1=C(OC)C=CC(=C1)C2CNC(=O)C2)C3CCCC3", "physical_data": {"Molecular Weight": "275.34", "Molecular Formula": "C16H21NO3", "Melting Point": "133-136 \u00b0C"}}