{"cas_no": "85416-75-7", "cn_name": "(4R)-4-[3-(\u73af\u620a\u6c27\u57fa)-4-\u7532\u6c27\u57fa\u82ef\u57fa]\u5421\u54af-2-\u916e", "en_name": ["(-)-Rolipram", "2-Pyrrolidinone, 4-[3-(cyclopentyloxy)-4-methoxyphenyl]-, (4R)-", "2-Pyrrolidinone, 4-[3-(cyclopentyloxy)-4-methoxyphenyl]-, (R)-", "(4R)-4-[3-(Cyclopentyloxy)-4-methoxyphenyl]-2-pyrrolidinone", "(-)-Rolipram", "(R)-Rolipram", "(R)-(-)-Rolipram", "(4r)-4-[3-(Cyclopentyloxy)-4-methoxyphenyl]pyrrolidin-2-one", "(4R)-4-(3-Cyclopentyloxy-4-methoxyphenyl)pyrrolidin-2-one"], "SMILES": "O(C1=C(OC)C=CC(=C1)C2CNC(=O)C2)C3CCCC3", "physical_data": {"Molecular Weight": "275.34", "Molecular Formula": "C16H21NO3", "Melting Point": "129-132 \u00b0C"}}