{"cas_no": "85440-79-5", "cn_name": "\u5432\u8fbe\u5e15\u80fa\u76f8\u5173\u7269\u8d28D", "en_name": ["2,3-Dihydro-2-methyl-1-nitroso-1H-indole", "1H-Indole, 2,3-dihydro-2-methyl-1-nitroso-", "1H-Indole, 2,3-dihydro-2-methyl-1-nitroso-, (\u00b1)-", "2,3-Dihydro-2-methyl-1-nitroso-1H-indole", "1-Nitroso-2-methylindoline", "2-Methyl-1-nitroso-2,3-dihydro-1H-indole", "2-Methyl-1-nitrosoindoline"], "SMILES": "N(=O)N1C=2C(CC1C)=CC=CC2", "physical_data": {"Molecular Weight": "162.19", "Molecular Formula": "C9H10N2O", "Melting Point": "54-55 \u00b0C"}}