{"cas_no": "854646-94-9", "cn_name": "2 - (5 - \u6eb4-2 - \u7532\u57fa\u82ef\u57fa)\u4e59\u9178", "en_name": ["5-Bromo-2-methylbenzeneacetic acid", "Benzeneacetic acid, 5-bromo-2-methyl-", "\u03b1-Toluic acid, 5-bromo-2-methyl-", "5-Bromo-2-methylbenzeneacetic acid", "2-(5-Bromo-2-methylphenyl)acetic acid"], "SMILES": "C(C(O)=O)C1=C(C)C=CC(Br)=C1", "physical_data": {"Molecular Weight": "229.07", "Molecular Formula": "C9H9BrO2", "Melting Point": "93.5-94.5 \u00b0C"}}