{"cas_no": "855-19-6", "cn_name": "\u918b\u9178\u6c2f\u777e\u916e", "en_name": ["(17\u03b2)-17-(Acetyloxy)-4-chloroandrost-4-en-3-one", "Androst-4-en-3-one, 17-(acetyloxy)-4-chloro-, (17\u03b2)-", "Androst-4-en-3-one, 4-chloro-17\u03b2-hydroxy-, acetate", "Testosterone, 4-chloro-, acetate", "(17\u03b2)-17-(Acetyloxy)-4-chloroandrost-4-en-3-one", "17\u03b2-Acetoxy-4-chloroandrost-4-en-3-one", "4-Chloro-17\u03b2-hydroxyandrost-4-en-3-one 17-acetate", "4-Chlorotestosterone acetate", "Macrobin", "Steranabol", "Stearanabol", "Chlorotestosterone acetate", "4-Chlorotestosterone 17-acetate", "Megagrisevit", "Anabolit", "Sterabol", "Test-anabol", "Testomed", "Clostebol acetate", "NSC 72159", "4-Androstene-4-chloro-17\u03b2-ol-3-one acetate"], "SMILES": "CC12C3C(C4C(C)(CC3)C(OC(C)=O)CC4)CCC1=C(Cl)C(=O)CC2", "physical_data": {"Molecular Weight": "364.91", "Molecular Formula": "C21H29ClO3", "Melting Point": "228-230 \u00b0C"}}