{"cas_no": "855-38-9", "cn_name": "\u4e09(4-\u7532\u6c27\u57fa\u82ef\u57fa)\u81a6", "en_name": ["Tris(4-methoxyphenyl)phosphine", "Phosphine, tris(4-methoxyphenyl)-", "Phosphine, tris(p-methoxyphenyl)-", "Tris(4-methoxyphenyl)phosphine", "Tri-p-anisylphosphine", "Tris(p-methoxyphenyl)phosphine", "Tris(p-anisyl)phosphine", "Trianisylphosphine", "Tri(p-methoxyphenyl)phosphine", "Tris(4-anisyl)phosphine", "Tri(4-methoxyphenyl)phosphine", "NSC 136458", "TPAP", "Tris(4-methoxylphenyl)phosphine", "Tris(4-methoxyphenyl)phosphane"], "SMILES": "P(C1=CC=C(OC)C=C1)(C2=CC=C(OC)C=C2)C3=CC=C(OC)C=C3", "physical_data": {"Molecular Weight": "352.36", "Molecular Formula": "C21H21O3P", "Melting Point": "131 \u00b0C"}}