{"cas_no": "855-97-0", "cn_name": "3,4,5,7-\u56db\u7532\u6c27\u57fa\u9ec4\u916e", "en_name": ["5,7,3\u2032,4\u2032-Tetramethoxyflavone", "4H-1-Benzopyran-4-one, 2-(3,4-dimethoxyphenyl)-5,7-dimethoxy-", "Flavone, 3\u2032,4\u2032,5,7-tetramethoxy-", "2-(3,4-Dimethoxyphenyl)-5,7-dimethoxy-4H-1-benzopyran-4-one", "Luteolin tetramethyl ether", "Tetramethyl camphoral", "3\u2032,4\u2032,5,7-Tetramethoxyflavone", "5,7,3\u2032,4\u2032-Tetramethoxyflavone", "Luteolin 5,7,3\u2032,4\u2032-tetramethyl ether", "5,7,3\u2032,4\u2032-Pentamethoxyflavone", "2-(3,4-Dimethoxyphenyl)-5,7-dimethoxy-4H-chromen-4-one", "2-(3,4-Dimethoxyphenyl)-5,7-dimethoxychromen-4-one"], "SMILES": "O(C)C1=C2C(OC(=CC2=O)C3=CC(OC)=C(OC)C=C3)=CC(OC)=C1", "physical_data": {"Molecular Weight": "342.34", "Molecular Formula": "C19H18O6", "Melting Point": "192 \u00b0C"}}