{"cas_no": "855-96-9", "cn_name": "\u534a\u9f7f\u6cfd\u5170\u7d20", "en_name": ["Eupatorin", "4H-1-Benzopyran-4-one, 5-hydroxy-2-(3-hydroxy-4-methoxyphenyl)-6,7-dimethoxy-", "Flavone, 3\u2032,5-dihydroxy-4\u2032,6,7-trimethoxy-", "5-Hydroxy-2-(3-hydroxy-4-methoxyphenyl)-6,7-dimethoxy-4H-1-benzopyran-4-one", "Eupatorin", "Eupatorine", "3\u2032,5-Dihydroxy-4\u2032,6,7-trimethoxyflavone", "6-Methoxyluteolin 4\u2032,7-dimethyl ether", "NSC 106402", "5,3\u2032-Dihydroxy-6,7,4\u2032-trimethoxyflavone", "E 4660", "5,3\u2032-Didemethylsinensetin"], "SMILES": "OC1=C2C(OC(=CC2=O)C3=CC(O)=C(OC)C=C3)=CC(OC)=C1OC", "physical_data": {"Molecular Weight": "344.32", "Molecular Formula": "C18H16O7", "Melting Point": "190-193 \u00b0C"}}