{"cas_no": "85509-19-9", "cn_name": "\u6c1f\u7845\u5511", "en_name": ["Flusilazole", "1H-1,2,4-Triazole, 1-[[bis(4-fluorophenyl)methylsilyl]methyl]-", "1-[[Bis(4-fluorophenyl)methylsilyl]methyl]-1H-1,2,4-triazole", "DPX-H 6573", "Flusilazole", "Flusilazol", "Punch", "Punch (pesticide)", "Nustar", "DPD 78710F", "DPX-N 6573", "Punch 40EC", "Lyric", "Olymp", "Olymp 10EX", "Sanction", "Benocarp", "Punch Bis", "Capitan", "Cane Strike", "Cursor", "Bis(4-fluorophenyl)methyl(1H-1,2,4-triazole-1-ylmethyl)silane", "Genie", "Genie (fungicide)", "Genie 25"], "SMILES": "[Si](CN1C=NC=N1)(C)(C2=CC=C(F)C=C2)C3=CC=C(F)C=C3", "physical_data": {"Molecular Weight": "315.39", "Molecular Formula": "C16H15F2N3Si", "Boiling Point": "393.00 \u00b0C", "Melting Point": "54 \u00b0C"}}