{"cas_no": "85547-22-4", "cn_name": "AAPTAMINE", "en_name": ["8,9-Dimethoxy-1H-benzo[de][1,6]naphthyridine", "1H-Benzo[de][1,6]naphthyridine, 8,9-dimethoxy-", "8,9-Dimethoxy-1H-benzo[de][1,6]naphthyridine", "Aaptamine"], "SMILES": "O(C)C1=C2C3=C(C=C1OC)C=CN=C3C=CN2", "physical_data": {"Molecular Weight": "228.25", "Molecular Formula": "C13H12N2O2", "Melting Point": "110-112 \u00b0C"}}