{"cas_no": "85571-15-9", "cn_name": "\u8349\u8d28\u7d20\u82f7", "en_name": ["Rhodionin", "4H-1-Benzopyran-4-one, 7-[(6-deoxy-\u03b1-L-mannopyranosyl)oxy]-3,5,8-trihydroxy-2-(4-hydroxyphenyl)-", "7-[(6-Deoxy-\u03b1-L-mannopyranosyl)oxy]-3,5,8-trihydroxy-2-(4-hydroxyphenyl)-4H-1-benzopyran-4-one", "Rhodionin", "Herbacetin 7-O-\u03b1-L-rhamnopyranoside"], "SMILES": "OC1=C2C(C(=O)C(O)=C(O2)C3=CC=C(O)C=C3)=C(O)C=C1OC4C(O)C(O)C(O)C(C)O4", "physical_data": {"Molecular Weight": "448.38", "Molecular Formula": "C21H20O11", "Melting Point": "234-237 \u00b0C"}}