{"cas_no": "855836-62-3", "cn_name": "2-\u6eb4-3-\u6c2f\u82ef\u915a", "en_name": ["2-Bromo-3-chlorophenol", "Phenol, 2-bromo-3-chloro-", "2-Bromo-3-chlorophenol"], "SMILES": "BrC1=C(Cl)C=CC=C1O", "physical_data": {"Molecular Weight": "207.45", "Molecular Formula": "C6H4BrClO", "Melting Point": "55.5 \u00b0C"}}