{"cas_no": "85583-54-6", "cn_name": "4-[2-(5-\u4e59\u57fa-2-\u5421\u5576\u57fa)\u4e59\u6c27\u57fa]\u785d\u57fa\u82ef", "en_name": ["5-Ethyl-2-[2-(4-nitrophenoxy)ethyl]pyridine", "Pyridine, 5-ethyl-2-[2-(4-nitrophenoxy)ethyl]-", "5-Ethyl-2-[2-(4-nitrophenoxy)ethyl]pyridine", "4-[2-(5-Ethyl-2-pyridyl)ethoxy]nitrobenzene", "4-[2-(5-Ethyl-2-pyridinyl)ethoxy]nitrobenzene"], "SMILES": "O(CCC1=CC=C(CC)C=N1)C2=CC=C(N(=O)=O)C=C2", "physical_data": {"Molecular Weight": "272.30", "Molecular Formula": "C15H16N2O3", "Melting Point": "53-55 \u00b0C"}}