{"cas_no": "85614-43-3", "cn_name": "5-\u70ef\u4e19\u57fa-3-\u7532\u6c27\u57fa\u6c34\u6768\u9178\u7532\u916f", "en_name": ["Methyl 2-hydroxy-3-methoxy-5-(2-propen-1-yl)benzoate", "Benzoic acid, 2-hydroxy-3-methoxy-5-(2-propen-1-yl)-, methyl ester", "Benzoic acid, 2-hydroxy-3-methoxy-5-(2-propenyl)-, methyl ester", "Methyl 2-hydroxy-3-methoxy-5-(2-propen-1-yl)benzoate", "Methyl 5-allyl-2-hydroxy-3-methoxybenzoate", "Methyl 5-allyl-3-methoxysalicylate"], "SMILES": "C(OC)(=O)C1=C(O)C(OC)=CC(CC=C)=C1", "physical_data": {"Molecular Weight": "222.24", "Molecular Formula": "C12H14O4", "Boiling Point": "173-174 \u00b0C @ Press: 12 Torr", "Melting Point": "55-55.5 \u00b0C"}}