{"cas_no": "85622-93-1", "cn_name": "\u66ff\u83ab\u5511\u80fa", "en_name": ["Temozolomide", "Imidazo[5,1-d]-1,2,3,5-tetrazine-8-carboxamide, 3,4-dihydro-3-methyl-4-oxo-", "3,4-Dihydro-3-methyl-4-oxoimidazo[5,1-d]-1,2,3,5-tetrazine-8-carboxamide", "CCRG 81045", "NSC 362856", "M and B 39831", "MB 39831", "Methazolastone", "Temozolomide", "Temodal", "Sch 52365", "Temodar", "3-Methyl-4-oxo-8-imidazolo[5,1-d][1,2,3,5]tetrazinecarboxamide", "8-Carbamoyl-3-methylimidazo[5,1-d]-1,2,3,5-tetrazin-4(3H)-one", "3-Methyl-8-carbamoylimidazo[5,1-d]-1,2,3,5-tetrazin-4(3H)-one", "3-Methyl-4-oxo-3,4-dihydroimidazo[5,1-d][1,2,3,5]tetrazine-8-carboxamide", "T 2577", "3-Methyl-4-oxoimidazo[5,1-d][1,2,3,5]tetrazine-8-carboxamide", "3-Methyl-4-oxo-3,4-dihydro-imidazo[5,1-d][1,2,3,5]tetrazine-8-carboxylic acid amide", "3-Methyl-4-oxo-3H,4H-imidazo[4,3-d][1,2,3,5]tetrazine-8-carboxamide", "Temomedac"], "SMILES": "C(N)(=O)C1=C2N(C(=O)N(C)N=N2)C=N1", "physical_data": {"Molecular Weight": "194.15", "Molecular Formula": "C6H6N6O2", "Melting Point": "212 \u00b0C (decomp)"}}