{"cas_no": "85643-19-2", "cn_name": "\u4ed9\u8305\u82f7", "en_name": ["Curculigoside", "\u03b2-D-Glucopyranoside, 2-[[(2,6-dimethoxybenzoyl)oxy]methyl]-4-hydroxyphenyl", "2-[[(2,6-Dimethoxybenzoyl)oxy]methyl]-4-hydroxyphenyl \u03b2-D-glucopyranoside", "Curculigoside", "Curculigoside A", "Curculigoside I", "Curculigoside 1"], "SMILES": "C(OCC1=C(OC2OC(CO)C(O)C(O)C2O)C=CC(O)=C1)(=O)C3=C(OC)C=CC=C3OC", "physical_data": {"Molecular Weight": "466.44", "Molecular Formula": "C22H26O11", "Melting Point": "158-160 \u00b0C"}}