{"cas_no": "85650-56-2", "cn_name": "\u963f\u585e\u90a3\u5e73\u9a6c\u6765\u9178\u76d0", "en_name": ["Asenapine maleate", "1H-Dibenz[2,3:6,7]oxepino[4,5-c]pyrrole, 5-chloro-2,3,3a,12b-tetrahydro-2-methyl-, (3aR,12bR)-rel-, (2Z)-2-butenedioate (1:1)", "1H-Dibenz[2,3:6,7]oxepino[4,5-c]pyrrole, 5-chloro-2,3,3a,12b-tetrahydro-2-methyl-, trans-, (Z)-2-butenedioate (1:1)", "Org 5222", "Asenapine maleate"], "SMILES": "C(=CC(O)=O)C(O)=O.CN1CC2C(C=3C(OC=4C2=CC(Cl)=CC4)=CC=CC3)C1", "physical_data": {"Molecular Weight": "", "Molecular Formula": "C17H16ClNO.C4H4O4", "Melting Point": "143-145 \u00b0C"}}