{"cas_no": "856834-95-2", "cn_name": "3-\u6eb4-2-\u6c2f-6-\u7532\u57fa-5-\u785d\u57fa\u5421\u5576", "en_name": ["3-Bromo-2-chloro-6-methyl-5-nitropyridine", "Pyridine, 3-bromo-2-chloro-6-methyl-5-nitro-", "2-Picoline, 5-bromo-6-chloro-3-nitro-", "3-Bromo-2-chloro-6-methyl-5-nitropyridine", "3-Bromo-2-chloro-5-nitro-6-picoline"], "SMILES": "N(=O)(=O)C1=C(C)N=C(Cl)C(Br)=C1", "physical_data": {"Molecular Weight": "251.47", "Molecular Formula": "C6H4BrClN2O2", "Melting Point": "93 \u00b0C"}}