{"cas_no": "856866-72-3", "cn_name": "\u7279\u5730\u5511\u80fa", "en_name": ["Tedizolid", "2-Oxazolidinone, 3-[3-fluoro-4-[6-(2-methyl-2H-tetrazol-5-yl)-3-pyridinyl]phenyl]-5-(hydroxymethyl)-, (5R)-", "(5R)-3-[3-Fluoro-4-[6-(2-methyl-2H-tetrazol-5-yl)-3-pyridinyl]phenyl]-5-(hydroxymethyl)-2-oxazolidinone", "DA 7157", "TR 700", "Tedizolid", "Sivextro", "(5R)-3-[3-Fluoro-4-[6-(2-methyltetrazol-5-yl)pyridin-3-yl]phenyl]-5-(hydroxymethyl)-1,3-oxazolidin-2-one"], "SMILES": "O=C1N(CC(CO)O1)C2=CC(F)=C(C=C2)C=3C=CC(=NC3)C4=NN(C)N=N4", "physical_data": {"Molecular Weight": "370.34", "Molecular Formula": "C17H15FN6O3", "Melting Point": "201 \u00b0C"}}