{"cas_no": "85721-33-1", "cn_name": "\u73af\u4e19\u6c99\u661f", "en_name": ["Ciprofloxacin", "3-Quinolinecarboxylic acid, 1-cyclopropyl-6-fluoro-1,4-dihydro-4-oxo-7-(1-piperazinyl)-", "1-Cyclopropyl-6-fluoro-1,4-dihydro-4-oxo-7-(1-piperazinyl)-3-quinolinecarboxylic acid", "BAY-q 3939", "Ciprofloxacin", "Cipro IV", "Cipropol", "Euciprin", "Ciprobay 100", "1-Cyclopropyl-6-fluoro-1,4-dihydro-7-(1-piperazinyl)-4-oxo-3-quinoline carboxylic acid", "Ciprine", "Oftacifox", "Catex", "Ciprofloxacillin", "Ciprofloxacine", "Ciprolet", "Cipromed", "Ciprovet", "Ciflafin", "Ciprolet DS", "Procip", "Cyclofloxacin", "Ciproxim", "Ciproxina", "Cunesin", "Quinox XR", "1-Cyclopropyl-6-fluoro-4-oxo-7-(piperazin-1-yl)-1,4-dihydroquinoline-3-carboxylic acid", "Novidate", "Cinthocip 500", "Ciprodac", "Cipronex", "Urociproxin", "Ciprox", "Ciproval", "Infu-luxacin", "Lipoquin", "Pulmaquin", "Profloxacin", "OTO 201", "AuriPro", "Otiprio", "1-Cyclopropyl-6-fluoro-4-oxo-7-(piperazin-1-yl)-quinoline-3-carboxylic acid", "1-Cyclopropyl-6-fluoro-4-oxo-7-piperazin-4-ium-1-ylquinoline-3-carboxylate", "ARD 3150", "Inhaled ciprofloxacin ARD 3150", "Phytaflox", "MeSH ID: D002939"], "SMILES": "O=C1C=2C(N(C=C1C(O)=O)C3CC3)=CC(=C(F)C2)N4CCNCC4", "physical_data": {"Molecular Weight": "331.34", "Molecular Formula": "C17H18FN3O3", "Melting Point": "225-257 \u00b0C (decomp)"}}