{"cas_no": "857629-78-8", "cn_name": "\u6069\u4ed6\u5361\u670b\u6742\u8d28G", "en_name": ["Entacapone 3-methyl ether", "2-Propenamide, 2-cyano-N,N-diethyl-3-(4-hydroxy-3-methoxy-5-nitrophenyl)-, (2E)-", "(2E)-2-Cyano-N,N-diethyl-3-(4-hydroxy-3-methoxy-5-nitrophenyl)-2-propenamide", "Entacapone 3-methyl ether"], "SMILES": "C(=C(C(N(CC)CC)=O)C#N)C1=CC(N(=O)=O)=C(O)C(OC)=C1", "physical_data": {"Molecular Weight": "319.31", "Molecular Formula": "C15H17N3O5", "Melting Point": "129.6-131.3 \u00b0C"}}