{"cas_no": "85785-20-2", "cn_name": "\u79be\u8349\u754f", "en_name": ["Esprocarb", "Carbamothioic acid, N-(1,2-dimethylpropyl)-N-ethyl-, S-(phenylmethyl) ester", "Carbamothioic acid, (1,2-dimethylpropyl)ethyl-, S-(phenylmethyl) ester", "SC 2957", "Esprocarb", "R 22957"], "SMILES": "N(C(SCC1=CC=CC=C1)=O)(C(C(C)C)C)CC", "physical_data": {"Molecular Weight": "265.41", "Molecular Formula": "C15H23NOS", "Boiling Point": "135 \u00b0C", "Melting Point": "&lt;25 \u00b0C"}}