{"cas_no": "858-46-8", "cn_name": "2,4,6-\u4e09(\u4e94\u6c1f\u4e59\u57fa)\u5747\u4e09\u55ea[\u7528\u4e8e\u8d28\u8c31\u6cd5]", "en_name": ["2,4,6-Tris(1,1,2,2,2-pentafluoroethyl)-1,3,5-triazine", "1,3,5-Triazine, 2,4,6-tris(1,1,2,2,2-pentafluoroethyl)-", "s-Triazine, 2,4,6-tris(pentafluoroethyl)-", "1,3,5-Triazine, 2,4,6-tris(pentafluoroethyl)-", "2,4,6-Tris(1,1,2,2,2-pentafluoroethyl)-1,3,5-triazine"], "SMILES": "C(C(F)(F)F)(F)(F)C=1N=C(C(C(F)(F)F)(F)F)N=C(C(C(F)(F)F)(F)F)N1", "physical_data": {"Molecular Weight": "435.09", "Molecular Formula": "C9F15N3", "Boiling Point": "121-122 \u00b0C", "Density": "1.651 g/cm\u00b3 @ Temp: 25 \u00b0C"}}