{"cas_no": "85815-37-8", "cn_name": "\u5229\u9a6c\u624e\u5c01\u76d0\u9178\u76d0", "en_name": ["1H-1,2,4-Triazole-3-carboxamide, 5-[[(2-aminoacetyl)amino]methyl]-1-[4-chloro-2-(2-chlorobenzoyl)phenyl]-N,N-dimethyl-, hydrochloride (1:1)", "1H-1,2,4-Triazole-3-carboxamide, 5-[[(2-aminoacetyl)amino]methyl]-1-[4-chloro-2-(2-chlorobenzoyl)phenyl]-N,N-dimethyl-, hydrochloride (1:1)", "1H-1,2,4-Triazole-3-carboxamide, 5-[[(aminoacetyl)amino]methyl]-1-[4-chloro-2-(2-chlorobenzoyl)phenyl]-N,N-dimethyl-, monohydrochloride", "450191S"], "SMILES": "C(NC(CN)=O)C=1N(N=C(C(N(C)C)=O)N1)C2=C(C(=O)C3=C(Cl)C=CC=C3)C=C(Cl)C=C2.Cl", "physical_data": {"Molecular Weight": "", "Molecular Formula": "C21H20Cl2N6O3.ClH", "Melting Point": "107 \u00b0C"}}