{"cas_no": "85857-16-5", "cn_name": "\u5341\u4e09\u6c1f\u8f9b\u57fa\u4e09\u7532\u6c27\u57fa\u7845\u70f7", "en_name": ["Tridecafluorooctyltrimethoxysilane", "Silane, trimethoxy(3,3,4,4,5,5,6,6,7,7,8,8,8-tridecafluorooctyl)-", "Trimethoxy(3,3,4,4,5,5,6,6,7,7,8,8,8-tridecafluorooctyl)silane", "Tridecafluorooctyltrimethoxysilane", "3,3,4,4,5,5,6,6,7,7,8,8,8-Tridecafluorooctyltrimethoxysilane", "(1H,1H,2H,2H-Perfluorooctyl)trimethoxysilane", "VPS 8161", "[2-(Perfluorohexyl)ethyl]trimethoxysilane", "Dynasylan F 8161", "Tridecafluoro-1,1,2,2-tetrahydrooctyltrimethoxysilane", "TSL 8257", "F 13TMS", "SIT 8176.0", "KBM 7603", "Actyflon G 607", "(Tridecafluoro-1,2,2,2-tetrahydrooctyl)-trimethoxy silane", "SiSiB PC 9757", "DMT 13", "Trimethoxy(1H,1H,2H,2H-tridecafluoro-n-octyl)silane", "KH 1331", "HF 81"], "SMILES": "[Si](CCC(C(C(C(C(C(F)(F)F)(F)F)(F)F)(F)F)(F)F)(F)F)(OC)(OC)OC", "physical_data": {"Molecular Weight": "468.28", "Molecular Formula": "C11H13F13O3Si", "Boiling Point": "60-62 \u00b0C @ Press: 0.5 Torr", "Density": "1.44 g/cm\u00b3"}}