{"cas_no": "85872-53-3", "cn_name": "1,3-DIPROPYL-8-PHENYLXANTHINE", "en_name": ["3,9-Dihydro-8-phenyl-1,3-dipropyl-1H-purine-2,6-dione", "1H-Purine-2,6-dione, 3,9-dihydro-8-phenyl-1,3-dipropyl-", "1H-Purine-2,6-dione, 3,7-dihydro-8-phenyl-1,3-dipropyl-", "3,9-Dihydro-8-phenyl-1,3-dipropyl-1H-purine-2,6-dione", "1,3-Dipropyl-8-phenylxanthine", "NPC 200"], "SMILES": "C(CC)N1C2=C(NC(=N2)C3=CC=CC=C3)C(=O)N(CCC)C1=O", "physical_data": {"Molecular Weight": "312.37", "Molecular Formula": "C17H20N4O2", "Melting Point": "252-253 \u00b0C"}}