{"cas_no": "85877-79-8", "cn_name": "\u4e5d\u6c1f\u5df1\u57fa\u4e09\u7532\u6c27\u57fa\u7845\u70f7", "en_name": ["Nonafluorohexyltrimethoxysilane", "Silane, trimethoxy(3,3,4,4,5,5,6,6,6-nonafluorohexyl)-", "Trimethoxy(3,3,4,4,5,5,6,6,6-nonafluorohexyl)silane", "Trimethoxy-2-perfluorobutylethylsilane", "3,3,4,4,5,5,6,6,6-Nonafluorohexyltrimethoxysilane", "Nonafluoro-1,1,2,2-tetrahydrohexyltrimethoxysilane", "1,1,2,2-Tetrahydroperfluorohexyltrimethoxysilane", "Dow Corning B 3958", "Nonafluorobutylethyltrimethoxysilane", "(1,1,2,2-Tetrahydrononafluorohexyl)trimethoxysilane", "Nonafluorohexyltrimethoxysilane", "2-Perfluorobutylethyltrimethoxysilane", "Trimethoxy(1H,1H,2H,2H-nonafluorohexyl)silane", "Trimethoxy(1H,1H,2H,2H-nonafluoro-n-hexyl)silane", "T 2918", "FAS 9E"], "SMILES": "[Si](CCC(C(C(C(F)(F)F)(F)F)(F)F)(F)F)(OC)(OC)OC", "physical_data": {"Molecular Weight": "368.27", "Molecular Formula": "C9H13F9O3Si", "Boiling Point": "68-69 \u00b0C @ Press: 15 Torr", "Density": "1.335 g/cm\u00b3"}}