{"cas_no": "859-65-4", "cn_name": "(\u82ef\u7532\u9170\u7532\u70ef)\u4e09\u82ef\u57fa\u78f7\u70f7", "en_name": ["1-Phenyl-2-(triphenylphosphoranylidene)ethanone", "Ethanone, 1-phenyl-2-(triphenylphosphoranylidene)-", "Acetophenone, 2-(triphenylphosphoranylidene)-", "1-Phenyl-2-(triphenylphosphoranylidene)ethanone", "2-(Triphenylphosphoranylidene)acetophenone", "Phenacylidenetriphenylphosphorane", "(Phenylcarbonylmethylene)triphenylphosphorane", "SKF 45359", "\u03b1-(Triphenylphosphoranylidene)acetophenone", "(Benzoylmethylene)triphenylphosphorane", "(2-Oxo-2-phenylethylidene)triphenylphosphorane", "NSC 167167", "Triphenylphosphoranylideneacetophenone", "1-Phenyl-2-(triphenylphosphanylidene)ethan-1-one"], "SMILES": "P(=CC(=O)C1=CC=CC=C1)(C2=CC=CC=C2)(C3=CC=CC=C3)C4=CC=CC=C4", "physical_data": {"Molecular Weight": "380.42", "Molecular Formula": "C26H21OP", "Melting Point": "186-188 \u00b0C"}}