{"cas_no": "85908-96-9", "cn_name": "1-Boc-2-\u54cc\u5576\u916e", "en_name": ["tert-Butyl 2-oxopiperidine-1-carboxylate", "1-Piperidinecarboxylic acid, 2-oxo-, 1,1-dimethylethyl ester", "tert-Butyl 2-oxopiperidine-1-carboxylate", "2-Oxopiperidine-1-carboxylic acid tert-butyl ester", "1,1-Dimethylethyl 2-oxopiperidine-1-carboxylate", "N-tert-Butoxycarbonyl-2-piperidinone", "6-Oxopiperidine-1-carboxylic acid tert-butyl ester", "N-Boc-2-piperidone", "N-Boc-\u03b4-valerolactam", "1-(tert-Butoxycarbonyl)-2-piperidone", "1-N-tert-Butoxycarbonyl-2-piperidone"], "SMILES": "C(OC(C)(C)C)(=O)N1C(=O)CCCC1", "physical_data": {"Molecular Weight": "199.25", "Molecular Formula": "C10H17NO3", "Boiling Point": "110 \u00b0C @ Press: 0.1 Torr", "Melting Point": "30-33 \u00b0C"}}