{"cas_no": "85951-60-6", "cn_name": "(S)-2-\u6c28\u57fa-7-\u7f9f\u57fa\u56db\u6c22\u5316\u8418", "en_name": ["(7S)-7-Amino-5,6,7,8-tetrahydro-2-naphthalenol", "2-Naphthalenol, 7-amino-5,6,7,8-tetrahydro-, (7S)-", "2-Naphthalenol, 7-amino-5,6,7,8-tetrahydro-, (S)-", "(7S)-7-Amino-5,6,7,8-tetrahydro-2-naphthalenol", "(S)-2-Amino-7-hydroxytetralin", "2-Naphthalenol 7-amino-5,6,7,8-tetrahydro-, (7S)-"], "SMILES": "NC1CC=2C(=CC=C(O)C2)CC1", "physical_data": {"Molecular Weight": "163.22", "Molecular Formula": "C10H13NO", "Melting Point": "143-144 \u00b0C"}}