{"cas_no": "85952-30-3", "cn_name": "(3,4-\u4e8c\u6c2f\u82ef\u57fa)\u7532\u70f7\u78fa\u9170\u6c2f", "en_name": ["3,4-Dichlorophenylmethanesulfonyl chloride", "Benzenemethanesulfonyl chloride, 3,4-dichloro-", "3,4-Dichlorobenzenemethanesulfonyl chloride", "3,4-Dichlorophenylmethanesulfonyl chloride", "1-(3,4-Dichlorophenyl)methanesulfonyl chloride"], "SMILES": "C(S(Cl)(=O)=O)C1=CC(Cl)=C(Cl)C=C1", "physical_data": {"Molecular Weight": "259.54", "Molecular Formula": "C7H5Cl3O2S", "Melting Point": "67-69 \u00b0C"}}