{"cas_no": "85954-11-6", "cn_name": "3,3'5,5'-\u56db\u7532\u57fa\u8054\u82ef\u53cc\u915a\u4e8c\u7f29\u6c34\u7518\u6cb9\u919a", "en_name": ["4,4\u2032-Bis(2,3-epoxypropoxy)-3,3\u2032,5,5\u2032-tetramethylbiphenyl", "Oxirane, 2,2\u2032-[(3,3\u2032,5,5\u2032-tetramethyl[1,1\u2032-biphenyl]-4,4\u2032-diyl)bis(oxymethylene)]bis-", "2,2\u2032-[(3,3\u2032,5,5\u2032-Tetramethyl[1,1\u2032-biphenyl]-4,4\u2032-diyl)bis(oxymethylene)]bis[oxirane]", "4,4\u2032-Bis(2,3-epoxypropoxy)-3,3\u2032,5,5\u2032-tetramethylbiphenyl", "3,3\u2032,5,5\u2032-Tetramethylbiphenol diglycidyl ether", "4,4\u2032-Bis(glycidyloxy)-3,3\u2032,5,5\u2032-tetramethylbiphenyl", "3,3\u2032,5,5\u2032-Tetramethylbiphenyl diglycidyl ether", "3,3\u2032,5,5\u2032-Tetramethyl-4,4\u2032-diphenol diglycidyl ether", "Tetramethylbiphenyl diglycidyl ether", "3,3\u2032,5,5\u2032-Tetramethyl-4,4\u2032-glycidoxybiphenyl", "4,4\u2032-Dihydroxy-3,3\u2032,5,5\u2032-tetramethylbiphenyl diglycidyl ether", "3,3\u2032,5,5\u2032-Tetramethylbiphenyl 4,4\u2032-diglycidyl ether", "3,3\u2032,5,5\u2032-Tetramethyl-4,4\u2032-biphenol diglycidyl ether", "YX 4000HK monomer", "3,3\u2032,5,5\u2032-Tetramethyl-4,4\u2032-dihydroxybiphenyl diglycidyl ether", "2-[[4-[3,5-Dimethyl-4-(oxiran-2-ylmethoxy)phenyl]-2,6-dimethylphenoxy]methyl]oxirane", "4,4\u2032-Bis(glycidoxy)-3,3\u2032,5,5\u2032-tetramethylbiphenyl", "4,4\u2032-Bis(glycidyloxy)-3,3\u2032,5,5\u2032-tetramethyl-1,1\u2032-biphenyl", "JX 9000H"], "SMILES": "CC=1C=C(C=C(C)C1OCC2CO2)C3=CC(C)=C(OCC4CO4)C(C)=C3", "physical_data": {"Molecular Weight": "354.44", "Molecular Formula": "C22H26O4", "Melting Point": "105 \u00b0C"}}