{"cas_no": "85979-59-5", "cn_name": "2-\u6c2f-4-(4-\u6c1f-\u82ef\u57fa)-\u5627\u5576", "en_name": ["2-Chloro-4-(4-fluorophenyl)pyrimidine", "Pyrimidine, 2-chloro-4-(4-fluorophenyl)-", "2-Chloro-4-(4-fluorophenyl)pyrimidine"], "SMILES": "ClC=1N=C(C=CN1)C2=CC=C(F)C=C2", "physical_data": {"Molecular Weight": "208.62", "Molecular Formula": "C10H6ClFN2", "Melting Point": "125-126 \u00b0C"}}