{"cas_no": "85979-49-3", "cn_name": "4-(4-\u6c1f\u82ef\u57fa)-2-\u5627\u5576\u80fa", "en_name": ["4-(4-Fluorophenyl)-2-pyrimidinamine", "2-Pyrimidinamine, 4-(4-fluorophenyl)-", "4-(4-Fluorophenyl)-2-pyrimidinamine"], "SMILES": "NC=1N=C(C=CN1)C2=CC=C(F)C=C2", "physical_data": {"Molecular Weight": "189.19", "Molecular Formula": "C10H8FN3", "Melting Point": "166-167 \u00b0C"}}