{"cas_no": "859833-22-0", "cn_name": "4-(\u54cc\u5576\u7532\u57fa)\u82ef\u787c\u9178\u9891\u90a3\u9187\u916f", "en_name": ["1-[[4-(4,4,5,5-Tetramethyl-1,3,2-dioxaborolan-2-yl)phenyl]methyl]piperidine", "Piperidine, 1-[[4-(4,4,5,5-tetramethyl-1,3,2-dioxaborolan-2-yl)phenyl]methyl]-", "1-[[4-(4,4,5,5-Tetramethyl-1,3,2-dioxaborolan-2-yl)phenyl]methyl]piperidine", "[4-(Piperidinomethyl)phenyl]boronic acid pinacol ester", "1-[[4-(Tetramethyl-1,3,2-dioxaborolan-2-yl)phenyl]methyl]piperidine"], "SMILES": "CC1(C)OB(OC1(C)C)C2=CC=C(CN3CCCCC3)C=C2", "physical_data": {"Molecular Weight": "301.23", "Molecular Formula": "C18H28BNO2", "Melting Point": "97-99 \u00b0C"}}