{"cas_no": "86-00-0", "cn_name": "2-\u785d\u57fa\u8054\u82ef", "en_name": ["2-Nitrobiphenyl", "1,1\u2032-Biphenyl, 2-nitro-", "Biphenyl, 2-nitro-", "2-Nitro-1,1\u2032-biphenyl", "o-Nitrobiphenyl", "2-Nitrobiphenyl", "o-Nitrodiphenyl", "ONB", "2-Phenylnitrobenzene", "NSC 5532", "2\u2032-Nitrobiphenyl", "o-Nitrophenyl benzene"], "SMILES": "N(=O)(=O)C1=C(C=CC=C1)C2=CC=CC=C2", "physical_data": {"Molecular Weight": "199.21", "Molecular Formula": "C12H9NO2", "Boiling Point": "320 \u00b0C", "Melting Point": "37.2 \u00b0C"}}