{"cas_no": "86-16-8", "cn_name": "4-(2,5-\u4e8c\u4e59\u6c27\u57fa-4-\u785d\u57fa\u82ef\u57fa)\u5417\u5549", "en_name": ["4-(2,5-Diethoxy-4-nitrophenyl)morpholine", "Morpholine, 4-(2,5-diethoxy-4-nitrophenyl)-", "4-(2,5-Diethoxy-4-nitrophenyl)morpholine"], "SMILES": "O(CC)C1=C(C=C(OCC)C(N(=O)=O)=C1)N2CCOCC2", "physical_data": {"Molecular Weight": "296.32", "Molecular Formula": "C14H20N2O5", "Melting Point": "139-139.5 \u00b0C"}}