{"cas_no": "86-19-1", "cn_name": "2-\u7f9f\u57fa-N-(4-\u7532\u6c27\u57fa\u82ef\u57fa)-11H-\u82ef\u5e76[a]\u5494\u5511-3-\u7532\u9170\u80fa", "en_name": ["2-Hydroxy-N-(4-methoxyphenyl)-11H-benzo[a]carbazole-3-carboxamide", "11H-Benzo[a]carbazole-3-carboxamide, 2-hydroxy-N-(4-methoxyphenyl)-", "11H-Benzo[a]carbazole-3-carbox-p-anisidide, 2-hydroxy-", "2-Hydroxy-N-(4-methoxyphenyl)-11H-benzo[a]carbazole-3-carboxamide", "C.I. 37595", "Amanil Naphthol AS-SG", "Amarthol AS-SG", "Azotol TCH", "Brenthol GB", "Cibanaphthol NS", "Hiltonaphthol AS-SG", "2-Hydroxy-11H-benzo[a]carbazole-3-carbox-p-anisidide", "Naphtanilide SG", "Naphtanilide SG-S 50", "Naphthanilide SR", "Naphthol AS-SG", "Naphtholate AS-SG Soln.", "Naphtoelan SG", "Naphtol AS-SG", "Naphtol AS-SGLL", "Naphtol AS-SG Supra", "Tulathol AS-SG", "2-Hydroxy-3-[N-(4-methoxyphenyl)carbamoyl]-11H-benzo[a]carbazole", "2-Hydroxy-\u03b1-benzocarbazole-3-carboxylic acid p-methoxyanilide", "C.I. Azoic Coupling Component 13", "Naphthol SG", "Azoic Coupling Component 13", "Scarlet RC Base", "Dycosthol AS-SG", "Napthol ASSG", "Naftol AS-SG", "N-(4-Methoxyphenyl)-2-hydroxy-11H-benzo[a]carbazole-3-carbamide"], "SMILES": "OC1=CC2=C3C(C=4C(N3)=CC=CC4)=CC=C2C=C1C(NC5=CC=C(OC)C=C5)=O", "physical_data": {"Molecular Weight": "382.41", "Molecular Formula": "C24H18N2O3", "Melting Point": "246 \u00b0C"}}