{"cas_no": "86-22-6", "cn_name": "\u6eb4\u82ef\u90a3\u654f", "en_name": ["(\u00b1)-Brompheniramine", "2-Pyridinepropanamine, \u03b3-(4-bromophenyl)-N,N-dimethyl-", "Pyridine, 2-[p-bromo-\u03b1-[2-(dimethylamino)ethyl]benzyl]-", "\u03b3-(4-Bromophenyl)-N,N-dimethyl-2-pyridinepropanamine", "2-[p-Bromo-\u03b1-(2-dimethylaminoethyl)benzyl]pyridine", "1-(p-Bromophenyl)-1-(2-pyridyl)-3-dimethylaminopropane", "3-(p-Bromophenyl)-3-(2-pyridyl)-N,N-dimethylpropylamine", "Brompheniramine", "Parabromdylamine", "Bromopheniramine", "Parabromodylamine", "(\u00b1)-Brompheniramine", "Bromphen", "[3-(4-Bromo-phenyl)-3-pyridin-2-yl-propyl]-dimethyl-amine", "MeSH ID: D001977"], "SMILES": "C(CCN(C)C)(C1=CC=C(Br)C=C1)C2=CC=CC=N2", "physical_data": {"Molecular Weight": "319.24", "Molecular Formula": "C16H19BrN2", "Boiling Point": "147-152 \u00b0C @ Press: 0.5 Torr", "Melting Point": "&lt;25 \u00b0C"}}