{"cas_no": "86-28-2", "cn_name": "N-\u4e59\u57fa\u5494\u5511", "en_name": ["9-Ethylcarbazole", "9H-Carbazole, 9-ethyl-", "Carbazole, 9-ethyl-", "9-Ethyl-9H-carbazole", "N-Ethylcarbazole", "9-Ethylcarbazole", "NSC 60585"], "SMILES": "C(C)N1C=2C(C=3C1=CC=CC3)=CC=CC2", "physical_data": {"Molecular Weight": "195.26", "Molecular Formula": "C14H13N", "Boiling Point": "190 \u00b0C", "Melting Point": "68 \u00b0C"}}