{"cas_no": "86-29-3", "cn_name": "\u4e8c\u82ef\u4e59\u8148", "en_name": ["Diphenylacetonitrile", "Benzeneacetonitrile, \u03b1-phenyl-", "Acetonitrile, diphenyl-", "\u03b1-Phenylbenzeneacetonitrile", "Dipan", "Diphenyl-\u03b1-cyanomethane", "Diphenylmethyl cyanide", "\u03b1-Phenylbenzyl cyanide", "Diphenatrile", "Diphenylacetonitrile", "Benzhydryl cyanide", "\u03b1-Phenylphenylacetonitrile", "NSC 130268", "NSC 884"], "SMILES": "C(C#N)(C1=CC=CC=C1)C2=CC=CC=C2", "physical_data": {"Molecular Weight": "193.24", "Molecular Formula": "C14H11N", "Boiling Point": "182-184 \u00b0C @ Press: 11 Torr", "Melting Point": "74.3 \u00b0C"}}