{"cas_no": "86-26-0", "cn_name": "2-\u7532\u6c27\u57fa\u8054\u82ef", "en_name": ["2-Methoxybiphenyl", "1,1\u2032-Biphenyl, 2-methoxy-", "Anisole, o-phenyl-", "2-Methoxy-1,1\u2032-biphenyl", "2-Methoxybiphenyl", "o-Phenylanisole", "2-Phenylanisole", "o-Methoxybiphenyl", "2-Hydroxybiphenyl methyl ether", "NSC 2148", "1-Methoxy-2-phenylbenzene", "o-Phenylanisol"], "SMILES": "O(C)C1=C(C=CC=C1)C2=CC=CC=C2", "physical_data": {"Molecular Weight": "184.23", "Molecular Formula": "C13H12O", "Boiling Point": "274 \u00b0C", "Melting Point": "29 \u00b0C"}}