{"cas_no": "86-21-5", "cn_name": "\u975e\u5c3c\u62c9\u654f", "en_name": ["(\u00b1)-Pheniramine", "2-Pyridinepropanamine, N,N-dimethyl-\u03b3-phenyl-", "Pyridine, 2-[\u03b1-[2-(dimethylamino)ethyl]benzyl]-", "N,N-Dimethyl-\u03b3-phenyl-2-pyridinepropanamine", "2-[\u03b1-(2-Dimethylaminoethyl)benzyl]pyridine", "Pheniramine", "1-Phenyl-1-(2-pyridyl)-3-di-methylaminopropane", "3-Phenyl-3-(2-pyridyl)-N,N-dimethylpropylamine", "Prophenpyridamine", "Tripoton", "Pyriton", "(\u00b1)-Pheniramine", "Propheniramine", "NSC 47965", "MeSH ID: D010632"], "SMILES": "C(CCN(C)C)(C1=CC=CC=C1)C2=CC=CC=N2", "physical_data": {"Molecular Weight": "240.34", "Molecular Formula": "C16H20N2", "Boiling Point": "181 \u00b0C", "Melting Point": "&lt;25 \u00b0C", "Density": "1.0081 g/cm\u00b3"}}