{"cas_no": "86-20-4", "cn_name": "3-\u785d\u57fa-N-\u4e59\u57fa\u5494\u5511", "en_name": ["9-Ethyl-3-nitro-9H-carbazole", "9H-Carbazole, 9-ethyl-3-nitro-", "Carbazole, 9-ethyl-3-nitro-", "9-Ethyl-3-nitro-9H-carbazole", "9-Ethyl-3-nitrocarbazole", "3-Nitro-N-ethylcarbazole", "3-Nitro-9-ethylcarbazole", "N-Ethyl-3-nitrocarbazole", "NSC 17817", "6-Nitro-9-ethylCarbazole"], "SMILES": "C(C)N1C=2C(C=3C1=CC=CC3)=CC(N(=O)=O)=CC2", "physical_data": {"Molecular Weight": "240.26", "Molecular Formula": "C14H12N2O2", "Melting Point": "126-127 \u00b0C", "Density": "1.35 g/cm\u00b3"}}