{"cas_no": "86-34-0", "cn_name": "\u5bc6\u6717\u4e01", "en_name": ["Phensuximide", "2,5-Pyrrolidinedione, 1-methyl-3-phenyl-", "Succinimide, N-methyl-2-phenyl-", "1-Methyl-3-phenyl-2,5-pyrrolidinedione", "Epimid", "Lifene", "N-Methyl-2-phenylsuccinimide", "N-Methyl-\u03b1-phenylsuccinimide", "Milontin", "Phensuximide", "1-Methyl-3-phenylsuccinimide", "Succitimal", "Mirontin", "Phensuximid", "Milonton", "PM 334", "N-Methyl-3-phenylsuccinimide", "RS-Phensuximide", "(\u00b1)-Phensuximide", "Racemic phensuximide", "N-Methyl-3-phenylpyrrolidinedione"], "SMILES": "O=C1C(CC(=O)N1C)C2=CC=CC=C2", "physical_data": {"Molecular Weight": "189.21", "Molecular Formula": "C11H11NO2", "Melting Point": "72 \u00b0C"}}