{"cas_no": "86-38-4", "cn_name": "6,9-\u4e8c\u6c2f-2-\u7532\u6c27\u57fa\u5416\u5576", "en_name": ["6,9-Dichloro-2-methoxyacridine", "Acridine, 6,9-dichloro-2-methoxy-", "6,9-Dichloro-2-methoxyacridine", "Halocrin", "Halocrine", "2-Methoxy-6,9-dichloroacridine", "3,9-Dichloro-7-methoxyacridine", "NSC 2095", "NSC 2951"], "SMILES": "ClC=1C2=C(N=C3C1C=CC(Cl)=C3)C=CC(OC)=C2", "physical_data": {"Molecular Weight": "278.13", "Molecular Formula": "C14H9Cl2NO", "Melting Point": "160-161 \u00b0C", "Density": "1.52 g/cm\u00b3"}}