{"cas_no": "86-35-1", "cn_name": "\u4e59\u82ef\u59a5\u82f1", "en_name": ["Ethotoin", "2,4-Imidazolidinedione, 3-ethyl-5-phenyl-", "Hydantoin, 3-ethyl-5-phenyl-", "3-Ethyl-5-phenyl-2,4-imidazolidinedione", "1-Ethyl-2,5-dioxo-4-phenylimidazolidine", "3-Ethyl-5-phenylhydantoin", "3-Ethyl-5-phenylimidazolidin-2,4-dione", "Peganone", "Ethotoin", "AC-695", "Accenon", "(\u00b1)-Ethotoin"], "SMILES": "O=C1C(NC(=O)N1CC)C2=CC=CC=C2", "physical_data": {"Molecular Weight": "204.23", "Molecular Formula": "C11H12N2O2", "Melting Point": "94 \u00b0C"}}