{"cas_no": "86-30-6", "cn_name": "N-\u4e9a\u785d\u57fa\u4e8c\u82ef\u80fa", "en_name": ["N-Nitrosodiphenylamine", "Benzenamine, N-nitroso-N-phenyl-", "Diphenylamine, N-nitroso-", "N-Nitroso-N-phenylbenzenamine", "Nitrosodiphenylamine", "N-Nitrosodiphenylamine", "Diphenylnitrosamine", "Retarder J", "Redax", "N-Nitroso-N-phenylaniline", "Vulkalent A", "Vultrol", "Vulcatard A", "N,N-Diphenylnitrosamine", "N-Nitroso-N-diphenylamine", "N,N-Diphenyl-N-nitrosoamine", "Sconoc", "Ortard", "N-Phenyl-N-nitrosoaniline", "NSC 585", "Diphenam N", "Antioxidant NDPA"], "SMILES": "N(N=O)(C1=CC=CC=C1)C2=CC=CC=C2", "physical_data": {"Molecular Weight": "198.22", "Molecular Formula": "C12H10N2O", "Boiling Point": "101 \u00b0C", "Melting Point": "66.5 \u00b0C", "Density": "1.23 g/cm\u00b3"}}