{"cas_no": "86-39-5", "cn_name": "2-\u6c2f\u567b\u5428\u916e", "en_name": ["2-Chlorothioxanthone", "9H-Thioxanthen-9-one, 2-chloro-", "Thioxanthen-9-one, 2-chloro-", "2-Chloro-9H-thioxanthen-9-one", "2-Chlorothiaxanthone", "2-Chlorothioxanthen-9-one", "2-Chlorothioxanthone", "Sandoray 1050", "UCI 100", "Kayacure CTX", "Quantacure CTX", "Nisso Cure CTX", "Speedcure CTX", "Kayacure DETA-S", "CTX", "Gencure CTX", "Omnirad CTX"], "SMILES": "O=C1C=2C(SC=3C1=CC=CC3)=CC=C(Cl)C2", "physical_data": {"Molecular Weight": "246.71", "Molecular Formula": "C13H7ClOS", "Melting Point": "174 \u00b0C", "Density": "1.53 g/cm\u00b3"}}