{"cas_no": "86-42-0", "cn_name": "\u963f\u83ab\u5730\u55b9", "en_name": ["Amodiaquine", "Phenol, 4-[(7-chloro-4-quinolinyl)amino]-2-[(diethylamino)methyl]-", "o-Cresol, 4-[(7-chloro-4-quinolyl)amino]-\u03b1-(diethylamino)-", "4-[(7-Chloro-4-quinolinyl)amino]-2-[(diethylamino)methyl]phenol", "Amodiaquin", "Amodiaquine", "CAM-AQ 1", "Camoquin", "Camoquinal", "7-Chloro-4-(3-diethylaminomethyl-4-hydroxyanilino)quinoline", "Flavoquine", "Miaquin", "Quinoline, 7-chloro-4-[[3-[(diethylamino)methyl]-4-hydroxyphenyl]amino]-", "SN 10,751", "CAM-AQI", "Camochin", "Camoquine", "SN 10751", "NSC 13453", "Sunoquine", "Amobin", "MeSH ID: D000655"], "SMILES": "N(C=1C2=C(C=C(Cl)C=C2)N=CC1)C3=CC(CN(CC)CC)=C(O)C=C3", "physical_data": {"Molecular Weight": "355.86", "Molecular Formula": "C20H22ClN3O", "Melting Point": "208 \u00b0C (decomp)"}}