{"cas_no": "86-48-6", "cn_name": "1-\u7f9f\u57fa-2-\u8418\u7532\u9178", "en_name": ["1-Hydroxy-2-naphthoic acid", "2-Naphthalenecarboxylic acid, 1-hydroxy-", "2-Naphthoic acid, 1-hydroxy-", "1-Hydroxy-2-naphthalenecarboxylic acid", "1-Hydroxy-2-naphthoic acid", "1-Naphthol-2-carboxylic acid", "2-Carboxy-1-naphthol", "NSC 3717", "Xinafoic acid", "\u03b1-Hydroxy-\u03b2-naphthoic acid", "1-Hydroxy 2-naphthalic acid", "H 0279"], "SMILES": "OC=1C2=C(C=CC1C(O)=O)C=CC=C2", "physical_data": {"Molecular Weight": "188.18", "Molecular Formula": "C11H8O3", "Boiling Point": "150-160 \u00b0C @ Press: 0.1 Torr", "Melting Point": "195 \u00b0C", "Density": "1.43 g/cm\u00b3"}}