{"cas_no": "86-47-5", "cn_name": "7-\u6c2f-4-\u7f9f\u57fa\u55b9\u5549-3-\u7fa7\u9178", "en_name": ["7-Chloro-4-hydroxyquinoline-3-carboxylic acid", "3-Quinolinecarboxylic acid, 7-chloro-4-hydroxy-", "7-Chloro-4-hydroxy-3-quinolinecarboxylic acid", "7-Chloro-4-hydroxyquinoline-3-carboxylic acid", "4-Hydroxy-7-chloro-3-quinolinecarboxylic acid", "NSC 27801", "NSC 56803"], "SMILES": "OC=1C2=C(N=CC1C(O)=O)C=C(Cl)C=C2", "physical_data": {"Molecular Weight": "223.61", "Molecular Formula": "C10H6ClNO3", "Melting Point": "174-273 \u00b0C (decomp)"}}