{"cas_no": "86-54-4", "cn_name": "\u80bc\u5c48\u55ea", "en_name": ["Hydralazine", "Phthalazine, 1-hydrazinyl-", "Phthalazine, 1-hydrazino-", "1(2H)-Phthalazinone, hydrazone", "1-Hydrazinylphthalazine", "Ba 5968", "Ciba 5968", "Apresolin", "Apresoline", "Apressin (pharmaceutical)", "Hydralazine", "1-Hydrazinophthalazine", "Hydralazin", "Hipoftalin", "Hypophthalin", "C 5968", "Aprezolin", "Hidralazin", "Apressin", "1-Phthalazinylhydrazine", "NSC 126699", "MeSH ID: D006830"], "SMILES": "N(N)=C1C=2C(C=NN1)=CC=CC2", "physical_data": {"Molecular Weight": "160.18", "Molecular Formula": "C8H8N4", "Melting Point": "172-173 \u00b0C"}}