{"cas_no": "86-52-2", "cn_name": "1-\u6c2f\u7532\u57fa\u8418", "en_name": ["1-(Chloromethyl)naphthalene", "Naphthalene, 1-(chloromethyl)-", "1-(Chloromethyl)naphthalene", "\u03b1-(Chloromethyl)naphthalene", "1-Naphthylmethyl chloride", "\u03b1-Naphthylmethyl chloride", "1-Naphthalenylmethyl chloride", "NSC 8473", "1-Naphthalylmethyl chloride", "1-(Chloromethyl)naphthalen"], "SMILES": "C(Cl)C=1C2=C(C=CC1)C=CC=C2", "physical_data": {"Molecular Weight": "176.64", "Molecular Formula": "C11H9Cl", "Boiling Point": "291.5 \u00b0C", "Melting Point": "32 \u00b0C", "Density": "1.174 g/cm\u00b3 @ Temp: 20 \u00b0C"}}