{"cas_no": "86-57-7", "cn_name": "1-\u785d\u57fa\u8418", "en_name": ["1-Nitronaphthalene", "Naphthalene, 1-nitro-", "1-Nitronaphthalene", "\u03b1-Nitronaphthalene", "Nitrol (pesticide)", "Nitrol", "NSC 9584", "1-Nitronaphthaline"], "SMILES": "N(=O)(=O)C=1C2=C(C=CC1)C=CC=C2", "physical_data": {"Molecular Weight": "173.17", "Molecular Formula": "C10H7NO2", "Boiling Point": "304 \u00b0C", "Melting Point": "61 \u00b0C", "Density": "1.332 g/cm\u00b3 @ Temp: 20 \u00b0C"}}