{"cas_no": "86-55-5", "cn_name": "1-\u8418\u7532\u9178", "en_name": ["1-Naphthoic acid", "1-Naphthalenecarboxylic acid", "1-Naphthoic acid", "Naphthalene-\u03b1-carboxylic acid", "\u03b1-Naphthoic acid", "1-Carboxynaphthalene", "\u03b1-Naphthylcarboxylic acid", "1-Naphthylcarboxylic acid", "NSC 37569", "1-Napthanoic acid", "1-Naphthalenoic acid"], "SMILES": "C(O)(=O)C=1C2=C(C=CC1)C=CC=C2", "physical_data": {"Molecular Weight": "172.18", "Molecular Formula": "C11H8O2", "Boiling Point": "300 \u00b0C", "Melting Point": "161 \u00b0C"}}