{"cas_no": "86-53-3", "cn_name": "1-\u8418\u7532\u8148", "en_name": ["1-Naphthalenecarbonitrile", "1-Naphthalenecarbonitrile", "1-Naphthonitrile", "\u03b1-Naphthonitrile", "\u03b1-Naphthyl cyanide", "1-Cyanonaphthalene", "1-Naphthylnitrile", "\u03b1-Cyanonaphthalene", "1-Naphthalenenitrile", "1-Naphthyl cyanide", "NSC 60230"], "SMILES": "C(#N)C=1C2=C(C=CC1)C=CC=C2", "physical_data": {"Molecular Weight": "153.18", "Molecular Formula": "C11H7N", "Boiling Point": "299 \u00b0C", "Melting Point": "37.5 \u00b0C"}}