{"cas_no": "86-50-0", "cn_name": "\u4fdd\u68c9\u78f7", "en_name": ["Azinphos-methyl", "Phosphorodithioic acid, O,O-dimethyl S-[(4-oxo-1,2,3-benzotriazin-3(4H)-yl)methyl] ester", "Phosphorodithioic acid, O,O-dimethyl ester, S-ester with 3-(mercaptomethyl)-1,2,3-benzotriazin-4(3H)-one", "1,2,3-Benzotriazine, phosphorodithioic acid deriv.", "Bayer 17147", "ENT 23,233", "S-(3,4-Dihydro-4-oxo-benzo[d][1,2,3]triazin-3-ylmethyl) O,O-dimethyl phosphorodithioate", "S-(3,4-Dihydro-4-oxo-1,2,3-benzotriazin-3-ylmethyl) O,O-dimethyl phosphorodithioate", "O,O-Dimethyl S-(4-oxo-3H-1,2,3-benzotriazine-3-methyl)phosphorodithioate", "O,O-Dimethyl S-(4-oxobenzotriazino-3-methyl)phosphorodithioate", "O,O-Dimethyl S-4-oxo-1,2,3-benzotriazin-3(4H)-ylmethyl phosphorodithioate", "O,O-Dimethylphosphorodithioate S-ester with 3-(mercaptomethyl)-1,2,3-benzotriazin-4-(3H)-one", "Guthion", "3-(Mercaptomethyl)-1,2,3-benzotriazin-4(3H)-one O,O-dimethyl phosphorodithioate S-ester", "Azinphos-methyl", "Methyl guthion", "Cotneon", "Azinfos-methyl", "Gusathion M", "Gusathion 20", "Cotnion", "Azinphos", "Gusathion", "Gusathion 25", "Methylgusathion", "O,O-Dimethyl S-(3,4-dihydro-4-oxo-1,2,3-benzotriazin-3-yl-methyl) dithiophosphate", "S-(3,4-Dihydro-4-oxobenzo[d]-1,2,3-triazin-3-ylmethyl) dimethyl phosphorothiolothionate", "O,O-Dimethyl S-[4-oxo-1,2,3-benzotriazine-3(4H)-ylmethyl] phosphorodithioate", "Gusathion-methyl", "Methyl-azinphos", "Azinphos M", "Carfene", "Pancide", "Toxation", "Azinugec", "Cotnion-methyl", "Sepizin M", "Metazintox", "BAY 17147", "Azimil", "Methyltriazothion", "MeSH ID: D001387"], "SMILES": "O=C1C=2C(N=NN1CSP(OC)(OC)=S)=CC=CC2", "physical_data": {"Molecular Weight": "317.32", "Molecular Formula": "C10H12N3O3PS2", "Melting Point": "72-74 \u00b0C", "Density": "1.44 g/cm\u00b3 @ Temp: 20 \u00b0C"}}