{"cas_no": "86-56-6", "cn_name": "N,N-\u4e8c\u7532\u57fa-1-\u8418\u80fa", "en_name": ["N,N-Dimethyl-1-naphthylamine", "1-Naphthalenamine, N,N-dimethyl-", "1-Naphthylamine, N,N-dimethyl-", "N,N-Dimethyl-1-naphthalenamine", "Dimethyl-\u03b1-naphthylamine", "N,N-Dimethyl-\u03b1-naphthylamine", "N,N-Dimethyl-1-naphthylamine", "\u03b1-Dimethylaminonaphthalene", "1-(Dimethylamino)naphthalene", "Dimethyl(naphth-1-yl)amine", "NSC 8713"], "SMILES": "N(C)(C)C=1C2=C(C=CC1)C=CC=C2", "physical_data": {"Molecular Weight": "171.24", "Molecular Formula": "C12H13N", "Boiling Point": "280 \u00b0C", "Melting Point": "&lt;25 \u00b0C"}}