{"cas_no": "86-51-1", "cn_name": "2,3-\u4e8c\u7532\u6c27\u57fa\u82ef\u7532\u919b", "en_name": ["2,3-Dimethoxybenzaldehyde", "Benzaldehyde, 2,3-dimethoxy-", "o-Veratraldehyde", "2,3-Dimethoxybenzaldehyde", "5,6-Dimethoxybenzaldehyde", "NSC 403661", "NSC 51953", "NSC 6314"], "SMILES": "O(C)C1=C(C=O)C=CC=C1OC", "physical_data": {"Molecular Weight": "166.17", "Molecular Formula": "C9H10O3", "Boiling Point": "137 \u00b0C @ Press: 12 Torr", "Melting Point": "51-52 \u00b0C"}}