{"cas_no": "86-65-7", "cn_name": "7-\u6c28\u57fa-1,3-\u8418\u4e8c\u78fa\u9178", "en_name": ["7-Amino-1,3-naphthalenedisulfonic acid", "1,3-Naphthalenedisulfonic acid, 7-amino-", "7-Amino-1,3-naphthalenedisulfonic acid", "Amino-G acid", "\u03b2-Naphthylamine-6,8-disulfonic acid", "2-Naphthylamine-6,8-disulfonic acid", "2-Aminonaphthalene-6,8-disulfonic acid", "2-Amino-6,8-disulfonaphthalene", "Amido-G-Acid", "6,8-Disulfo-2-aminonaphthalene", "NSC 4013", "6,8-Disulfo-2-naphthylamine"], "SMILES": "S(=O)(=O)(O)C=1C2=C(C=C(S(=O)(=O)O)C1)C=CC(N)=C2", "physical_data": {"Molecular Weight": "303.31", "Molecular Formula": "C10H9NO6S2", "Melting Point": "274 \u00b0C"}}