{"cas_no": "86-68-0", "cn_name": "6-\u7532\u6c27\u57fa-4-\u7fa7\u9178\u55b9\u5549", "en_name": ["Quininic acid", "4-Quinolinecarboxylic acid, 6-methoxy-", "Cinchoninic acid, 6-methoxy-", "6-Methoxy-4-quinolinecarboxylic acid", "6-Methoxycinchoninic acid", "Quininic acid", "NSC 403610"], "SMILES": "C(O)(=O)C=1C2=C(C=CC(OC)=C2)N=CC1", "physical_data": {"Molecular Weight": "203.19", "Molecular Formula": "C11H9NO3", "Boiling Point": "110-115 \u00b0C @ Press: 5 mmHg", "Melting Point": "280 \u00b0C (decomp)"}}