{"cas_no": "86-77-1", "cn_name": "2-\u7f9f\u57fa\u4e8c\u82ef\u5e76\u544b\u5583", "en_name": ["2-Dibenzofuranol", "2-Dibenzofuranol", "3-Hydroxybiphenylene oxide", "2-Hydroxydibenzofuran", "NSC 10863", "Dibenzo[b,d]furan-2-ol", "2-Dibenzofuranol, 4a,9b-dihydro-"], "SMILES": "OC=1C=C2C=3C(OC2=CC1)=CC=CC3", "physical_data": {"Molecular Weight": "184.19", "Molecular Formula": "C12H8O2", "Boiling Point": "348 \u00b0C @ Press: 758 Torr", "Melting Point": "136 \u00b0C"}}