{"cas_no": "86-79-3", "cn_name": "2-\u7f9f\u57fa\u5494\u5511", "en_name": ["2-Hydroxycarbazole", "9H-Carbazol-2-ol", "Carbazol-2-ol", "2-Hydroxycarbazole", "2-Hydroxy-9H-carbazole", "2-Hydroxycarbazol"], "SMILES": "OC=1C=C2C(C=3C(N2)=CC=CC3)=CC1", "physical_data": {"Molecular Weight": "183.21", "Molecular Formula": "C12H9NO", "Melting Point": "276 \u00b0C"}}