{"cas_no": "86-74-8", "cn_name": "\u5494\u5511", "en_name": ["Carbazole", "9H-Carbazole", "Carbazole", "9-Azafluorene", "Dibenzopyrrole", "Dibenzo[b,d]pyrrole", "Diphenylenimine", "SKF 20091", "NSC 3498", "Chlorophenesin carbamate"], "SMILES": "C1=2C=3C(NC1=CC=CC2)=CC=CC3", "physical_data": {"Molecular Weight": "167.21", "Molecular Formula": "C12H9N", "Boiling Point": "355 \u00b0C", "Melting Point": "245 \u00b0C", "Density": "1.10 g/cm\u00b3 @ Temp: 18 \u00b0C"}}