{"cas_no": "86-73-7", "cn_name": "\u82b4", "en_name": ["Fluorene", "9H-Fluorene", "Fluorene", "o-Biphenylenemethane", "Diphenylenemethane", "2,2\u2032-Methylenebiphenyl", "Methane, diphenylene-", "NSC 6787"], "SMILES": "C1=2C=3C(CC1=CC=CC2)=CC=CC3", "physical_data": {"Molecular Weight": "166.22", "Molecular Formula": "C13H10", "Boiling Point": "295 \u00b0C", "Melting Point": "116-117 \u00b0C", "Density": "1.203 g/cm\u00b3 @ Temp: 0 \u00b0C"}}