{"cas_no": "86-71-5", "cn_name": "3,6-\u4e8c\u6c28\u57fa\u5494\u5511", "en_name": ["3,6-Diaminocarbazole", "9H-Carbazole-3,6-diamine", "Carbazole, 3,6-diamino-", "3,6-Diaminocarbazole", "NSC 49770", "3,6-Diamino-9H-carbazole"], "SMILES": "NC=1C=C2C=3C(NC2=CC1)=CC=C(N)C3", "physical_data": {"Molecular Weight": "197.24", "Molecular Formula": "C12H11N3", "Melting Point": "276-279 \u00b0C"}}