{"cas_no": "86-76-0", "cn_name": "2-\u6eb4\u4e8c\u82ef\u5e76\u544b\u5583", "en_name": ["2-Bromodibenzofuran", "Dibenzofuran, 2-bromo-", "2-Bromodibenzofuran", "NSC 1735", "2-Bromodibenzo[b,d]furan"], "SMILES": "BrC=1C=C2C=3C(OC2=CC1)=CC=CC3", "physical_data": {"Molecular Weight": "247.09", "Molecular Formula": "C12H7BrO", "Melting Point": "110 \u00b0C"}}