{"cas_no": "86-87-3", "cn_name": "1-\u8418\u4e59\u9178", "en_name": ["1-Naphthaleneacetic acid", "1-Naphthaleneacetic acid", "\u03b1-Naphthylacetic acid", "Planofix", "1-Naphthylacetic acid", "Planofixe", "NAA", "\u03b1-NAA", "Fruitone N", "Fruitofix", "Phyomone", "Celmone", "Naphthaleneacetic acid", "ANU", "Nafusaku", "1-NAA", "Rhodofix", "Tre-hold", "2-(1-Naphthyl)acetic acid", "Biokor", "Agronaa", "Vardhak", "Alman", "\u03b1-Naphthaleneacetic acid", "2-(\u03b1-Naphthyl)ethanoic acid", "Pomoxon", "Rasin", "Etifix", "Rhizopon B", "N 10", "Naphthylacetic acid", "NSC 15772", "Germon", "Stimolante 66f", "Naftal", "Naphthalen-1-ylacetic acid", "2-(Naphthalen-1-yl)acetic acid", "Raizon 05", "N 40", "1-Carboxymethylnaphthalene", "Fengyousu", "PoMaxa", "Dirager"], "SMILES": "C(C(O)=O)C=1C2=C(C=CC1)C=CC=C2", "physical_data": {"Molecular Weight": "186.21", "Molecular Formula": "C12H10O2", "Melting Point": "134.5-135.5 \u00b0C"}}