{"cas_no": "86-88-4", "cn_name": "\u5b89\u59a5", "en_name": ["\u03b1-Naphthylthiourea", "Thiourea, N-1-naphthalenyl-", "Urea, 1-(1-naphthyl)-2-thio-", "Thiourea, 1-naphthalenyl-", "N-1-Naphthalenylthiourea", "Anturat", "Bantu", "ANTU", "Chemical 109", "Krysid", "\u03b1-Naphthylthiocarbamide", "\u03b1-Naphthylthiourea", "1-Naphthylthiourea", "1-(1-Naphthyl)-2-thiourea", "N-1-Naphthylthiourea", "Rattrack", "U 5227", "Kripid", "Dirax", "Alrato", "Smeesana", "Naphtox", "1-(1-Naphthyl)thiourea", "NSC 3287", "Naphthalen-1-ylthiourea", "1-(Naphthalen-1-yl)thiourea"], "SMILES": "N(C(N)=S)C=1C2=C(C=CC1)C=CC=C2", "physical_data": {"Molecular Weight": "202.28", "Molecular Formula": "C11H10N2S", "Melting Point": "198 \u00b0C", "Density": "1 g/cm\u00b3"}}