{"cas_no": "86-86-2", "cn_name": "1-\u8418\u4e59\u9170\u80fa", "en_name": ["1-Naphthaleneacetamide", "1-Naphthaleneacetamide", "Amid-Thin", "\u03b1-Naphthaleneacetamide", "\u03b1-Naphthylacetamide", "1-Naphthylacetamide", "Amid-Thin W", "2-(1-Naphthyl)acetamide", "Dirigol N", "Frufix", "NAAm", "\u03b1-NAA amide", "Rootone", "NSC 34862", "Diramid", "2-(Naphthalen-1-yl)acetamide", "2-(Naphthalene-1-yl)-acetamide"], "SMILES": "C(C(N)=O)C=1C2=C(C=CC1)C=CC=C2", "physical_data": {"Molecular Weight": "185.22", "Molecular Formula": "C12H11NO", "Melting Point": "184 \u00b0C"}}