{"cas_no": "86-84-0", "cn_name": "1-\u8418\u57fa\u5f02\u6c30\u9178\u916f", "en_name": ["1-Naphthyl isocyanate", "Naphthalene, 1-isocyanato-", "Isocyanic acid, 1-naphthyl ester", "1-Isocyanatonaphthalene", "\u03b1-Naphthyl isocyanate", "1-Naphthyl isocyanate", "1-Naphthalene isocyanate", "Naphthalen-1-ylisocyanate", "NSC 4023"], "SMILES": "N(=C=O)C=1C2=C(C=CC1)C=CC=C2", "physical_data": {"Molecular Weight": "169.18", "Molecular Formula": "C11H7NO", "Boiling Point": "269 \u00b0C", "Melting Point": "&lt;25 \u00b0C"}}