{"cas_no": "86-81-7", "cn_name": "3,4,5-\u4e09\u7532\u6c27\u57fa\u82ef\u7532\u919b", "en_name": ["3,4,5-Trimethoxybenzaldehyde", "Benzaldehyde, 3,4,5-trimethoxy-", "3,4,5-Trimethoxybenzaldehyde", "NSC 16692"], "SMILES": "O(C)C1=C(OC)C=C(C=O)C=C1OC", "physical_data": {"Molecular Weight": "196.20", "Molecular Formula": "C10H12O4", "Boiling Point": "143-146 \u00b0C @ Press: 0.4 Torr", "Melting Point": "74-75 \u00b0C"}}