{"cas_no": "86-95-3", "cn_name": "2,4-\u4e8c\u7f9f\u57fa\u55b9\u5549", "en_name": ["2,4-Dihydroxyquinoline", "2(1H)-Quinolinone, 4-hydroxy-", "2,4-Quinolinediol", "Carbostyril, 4-hydroxy-", "4-Hydroxy-2(1H)-quinolinone", "4-Hydroxycarbostyril", "2,4-Dihydroxyquinoline", "4-Hydroxy-1,2-dihydro-2-quinolinone", "4-Hydroxy-2-quinolinone", "4-Hydroxy-2-quinolone", "4-Hydroxyquinolin-2(1H)-one", "NSC 12465", "NSC 13962", "4-Hydroxy-1H-quinolin-2-one", "4-Hydroxyquinoline-2(1H)-one", "DHQ", "2,4-Dihydroxyquinolone"], "SMILES": "OC=1C=2C(NC(=O)C1)=CC=CC2", "physical_data": {"Molecular Weight": "161.16", "Molecular Formula": "C9H7NO2", "Boiling Point": "330-336 \u00b0C", "Melting Point": "355 \u00b0C"}}