{"cas_no": "86-97-5", "cn_name": "5-\u6c28\u57fa-2-\u8418\u915a", "en_name": ["5-Amino-2-naphthol", "2-Naphthalenol, 5-amino-", "2-Naphthol, 5-amino-", "5-Amino-2-naphthalenol", "5-Amino-2-naphthol", "1-Amino-6-naphthol", "6-Hydroxy-1-naphthylamine", "NSC 4012", "1-Amino-6-hydroxynaphthaline", "5-Amino-2-hydroxynaphthalene"], "SMILES": "NC=1C2=C(C=C(O)C=C2)C=CC1", "physical_data": {"Molecular Weight": "159.18", "Molecular Formula": "C10H9NO", "Melting Point": "183-185 \u00b0C"}}