{"cas_no": "86-93-1", "cn_name": "1-\u82ef\u57fa-5-\u5def\u57fa\u56db\u6c2e\u5511", "en_name": ["1-Phenyl-5-mercaptotetrazole", "5H-Tetrazole-5-thione, 1,2-dihydro-1-phenyl-", "1H-Tetrazole-5-thiol, 1-phenyl-", "2-Tetrazoline-5-thione, 1-phenyl-", "1,2,3,4-Tetrazole-5-thiol, 1-phenyl-", "1,2-Dihydro-1-phenyl-5H-tetrazole-5-thione", "5-Mercapto-1-phenyltetrazole", "1-Phenyl-5-mercapto-1,2,3,4-tetrazole", "Mercaptophenyltetrazole", "1-Phenyltetrazole-5-thiol", "5-Mercapto-1-phenyl-1H-tetrazole", "1-Phenyl-2-tetrazoline-5-thione", "1-Phenyltetrazoline-5-thione", "5-Mercapto-1-phenyl-1,2,3,4-tetrazole", "1-Phenyl-5-tetrazolethione", "1-Phenyl-1,2-tetrazoline-5-thione", "1-Phenyl-1H-tetrazole-5-thiol", "1-Phenyl-5-mercapto-1H-tetrazole", "1-Phenyl-5-mercaptotetrazole", "1-Phenyl-5-thioxo-4,5-dihydrotetrazole", "1-Phenyl-1H-tetrazol-5-thiol", "1-Phenyl-1H-tetrazole-5-thione", "1-Phenyl-2H-tetrazole-5-thione", "NSC 24018", "NSC 44916", "NSC 67819", "(1-Phenyltetrazol-5-yl)mercaptan", "1-Phenyl-4,5-dihydrotetrazole-5-thione", "1-Phenyl-5-thio-1,2,3,4-tetrazole", "5-Sulfanyl-1-phenyl-1H-tetrazole", "1-Phenyl-1H-1,2,3,4-tetrazole-5-thiol", "1-Phenyl-1H-1,2,3,4-tetraazole-5-thiol", "1-Phenyl-1H-tetraazole-5-thiol", "1-Phenyl-1,2,3,4-tetrazole-5-thiol"], "SMILES": "S=C1N(N=NN1)C2=CC=CC=C2", "physical_data": {"Molecular Weight": "178.21", "Molecular Formula": "C7H6N4S", "Melting Point": "152 \u00b0C"}}