{"cas_no": "86-98-6", "cn_name": "4,7-\u4e8c\u6c2f\u55b9\u5549", "en_name": ["4,7-Dichloroquinoline", "Quinoline, 4,7-dichloro-", "4,7-Dichloroquinoline", "NSC 593"], "SMILES": "ClC=1C2=C(C=C(Cl)C=C2)N=CC1", "physical_data": {"Molecular Weight": "198.05", "Molecular Formula": "C9H5Cl2N", "Boiling Point": "148 \u00b0C", "Melting Point": "93 \u00b0C"}}