{"cas_no": "86-99-7", "cn_name": "7-\u6c2f-4-\u7f9f\u57fa\u55b9\u5549", "en_name": ["7-Chloro-4-hydroxyquinoline", "4-Quinolinol, 7-chloro-", "7-Chloro-4-quinolinol", "7-Chloro-4-hydroxyquinoline", "4-Hydroxy-7-chloroquinoline", "NSC 38928"], "SMILES": "OC=1C2=C(C=C(Cl)C=C2)N=CC1", "physical_data": {"Molecular Weight": "179.60", "Molecular Formula": "C9H6ClNO", "Melting Point": "277-279 \u00b0C"}}