{"cas_no": "86-92-0", "cn_name": "1-(4-\u7532\u57fa\u82ef\u57fa)-3-\u7532\u57fa-5-\u5421\u5511\u5549\u916e", "en_name": ["1-p-Tolyl-3-methyl-5-pyrazolone", "3H-Pyrazol-3-one, 2,4-dihydro-5-methyl-2-(4-methylphenyl)-", "2-Pyrazolin-5-one, 3-methyl-1-p-tolyl-", "2,4-Dihydro-5-methyl-2-(4-methylphenyl)-3H-pyrazol-3-one", "1-(p-Tolyl)-3-methylpyrazolone-5", "3-Methyl-1-(p-tolyl)-2-pyrazolin-5-one", "3-Methyl-1-p-tolyl-5-pyrazolone", "3-Methyl-1-(4-methylphenyl)-5-pyrazolone", "3-Methyl-1-(4-methylphenyl)-2-pyrazolin-5-one", "1-p-Tolyl-3-methyl-5-pyrazolone", "3-Methyl-1-(4-methylphenyl)-4,5-dihydro-1H-pyrazol-5-one"], "SMILES": "O=C1N(N=C(C)C1)C2=CC=C(C)C=C2", "physical_data": {"Molecular Weight": "188.23", "Molecular Formula": "C11H12N2O", "Melting Point": "132-134 \u00b0C"}}