{"cas_no": "86-96-4", "cn_name": "2,4-\u55b9\u5511\u5549\u4e8c\u916e", "en_name": ["Quinazolinedione", "2,4(1H,3H)-Quinazolinedione", "Benzoyleneurea", "Urea, benzoylene-", "Quinazolinedione", "1,2,3,4-Tetrahydroquinazoline-2,4-dione", "2,4-Dihydroxyquinazoline", "Quinazoline-2,4-dione", "Benzouracil", "2,4-Dioxotetrahydroquinazoline", "2,4-Quinazolinediol", "1,2,3,4-Tetrahydro-2,4-dioxoquinazoline", "NSC 2108", "y-Thymine", "yT", "2-Hydroxy-3,4-dihydroquinazolin-4-one"], "SMILES": "O=C1C=2C(NC(=O)N1)=CC=CC2", "physical_data": {"Molecular Weight": "162.15", "Molecular Formula": "C8H6N2O2", "Melting Point": "300 \u00b0C"}}