{"cas_no": "86-90-8", "cn_name": "4-\u6eb4\u90bb\u82ef\u4e8c\u7532\u9178\u9150", "en_name": ["4-Bromophthalic anhydride", "1,3-Isobenzofurandione, 5-bromo-", "Phthalic anhydride, 4-bromo-", "5-Bromo-1,3-isobenzofurandione", "4-Bromophthalic anhydride", "5-Bromoisobenzofuran-1,3-dione", "5-Bromophthalic acid anhydride", "5-Bromo-2-benzofuran-1,3-dione", "5-Bromo-1,3-dihydro-2-benzofuran-1,3-dione"], "SMILES": "O=C1C=2C(C(=O)O1)=CC=C(Br)C2", "physical_data": {"Molecular Weight": "227.01", "Molecular Formula": "C8H3BrO3", "Boiling Point": "305-309 \u00b0C", "Melting Point": "107 \u00b0C"}}