{"cas_no": "860-79-7", "cn_name": "\u73af\u7ef4\u9ec4\u6768\u661f D", "en_name": ["Cyclovirobuxine", "9,19-Cyclopregnan-16-ol, 4,4,14-trimethyl-3,20-bis(methylamino)-, (3\u03b2,5\u03b1,16\u03b1,20S)-", "9,19-Cyclo-5\u03b1,9\u03b2-pregnan-16\u03b1-ol, 4,4,14-trimethyl-3\u03b2,20\u03b1-bis(methylamino)-", "1H,19H-Cyclopropa[9,10]cyclopenta[a]phenanthrene, 9,19-cyclopregnan-16-ol deriv.", "(3\u03b2,5\u03b1,16\u03b1,20S)-4,4,14-Trimethyl-3,20-bis(methylamino)-9,19-cyclopregnan-16-ol", "Cyclovirobuxine", "Cyclovirobuxine D", "Bebuxine", "Cyclovirobuxin D", "NSC 91722", "Cyclovirobuxinum D", "(3\u03b1,5\u03b1,16\u03b1,20S)-4,4,14-Trimethyl-3,20-bis(methylamino)-9,19-cyclopregnan-16-ol", "CVB-D"], "SMILES": "CC12C3C4(C5(C4)C(C(C)(C)C(NC)CC5)CC3)CCC1(C)C(C(NC)C)C(O)C2", "physical_data": {"Molecular Weight": "402.66", "Molecular Formula": "C26H46N2O", "Melting Point": "220-221 \u00b0C (decomp)"}}