{"cas_no": "860034-11-3", "cn_name": "4-\u6eb4-2-\u785d\u57fa\u82ef\u787c\u9178", "en_name": ["B-(4-Bromo-2-nitrophenyl)boronic acid", "Boronic acid, B-(4-bromo-2-nitrophenyl)-", "Boronic acid, (4-bromo-2-nitrophenyl)-", "B-(4-Bromo-2-nitrophenyl)boronic acid", "4-Bromo-2-nitrophenylboronic acid"], "SMILES": "B(O)(O)C1=C(N(=O)=O)C=C(Br)C=C1", "physical_data": {"Molecular Weight": "245.82", "Molecular Formula": "C6H5BBrNO4", "Melting Point": "274-276 \u00b0C"}}