{"cas_no": "86060-96-0", "cn_name": "N-\u82b4\u7532\u6c27\u7fb0\u57fa-S-\u4e59\u9170\u80fa\u57fa\u7532\u57fa-L-\u534a\u80f1\u6c28\u9178\u4e94\u6c1f\u82ef\u916f", "en_name": ["L-Cysteine, S-[(acetylamino)methyl]-N-[(9H-fluoren-9-ylmethoxy)carbonyl]-, pentafluorophenyl ester", "L-Cysteine, S-[(acetylamino)methyl]-N-[(9H-fluoren-9-ylmethoxy)carbonyl]-, pentafluorophenyl ester", "(2,3,4,5,6-Pentafluorophenyl) (2R)-3-(acetamidomethylsulfanyl)-2-(9H-fluoren-9-ylmethoxycarbonylamino)propanoate"], "SMILES": "C(OC(NC(C(OC1=C(F)C(F)=C(F)C(F)=C1F)=O)CSCNC(C)=O)=O)C2C=3C(C=4C2=CC=CC4)=CC=CC3", "physical_data": {"Molecular Weight": "580.52", "Molecular Formula": "C27H21F5N2O5S", "Melting Point": "155-158 \u00b0C"}}