{"cas_no": "86060-94-8", "cn_name": "FMOC-MET-OPFP", "en_name": ["N-[(9H-Fluoren-9-ylmethoxy)carbonyl]-L-methionine 2,3,4,5,6-pentafluorophenyl ester", "L-Methionine, N-[(9H-fluoren-9-ylmethoxy)carbonyl]-, 2,3,4,5,6-pentafluorophenyl ester", "L-Methionine, N-[(9H-fluoren-9-ylmethoxy)carbonyl]-, pentafluorophenyl ester", "N-[(9H-Fluoren-9-ylmethoxy)carbonyl]-L-methionine 2,3,4,5,6-pentafluorophenyl ester"], "SMILES": "C(OC(NC(C(OC1=C(F)C(F)=C(F)C(F)=C1F)=O)CCSC)=O)C2C=3C(C=4C2=CC=CC4)=CC=CC3", "physical_data": {"Molecular Weight": "537.50", "Molecular Formula": "C26H20F5NO4S", "Melting Point": "101-103 \u00b0C"}}