{"cas_no": "86060-85-7", "cn_name": "N-\u82b4\u7532\u6c27\u7fb0\u57fa\u7518\u6c28\u9178\u4e94\u6c1f\u82ef\u916f", "en_name": ["N-[(9H-Fluoren-9-ylmethoxy)carbonyl]glycine 2,3,4,5,6-pentafluorophenyl ester", "Glycine, N-[(9H-fluoren-9-ylmethoxy)carbonyl]-, 2,3,4,5,6-pentafluorophenyl ester", "Glycine, N-[(9H-fluoren-9-ylmethoxy)carbonyl]-, pentafluorophenyl ester", "N-[(9H-Fluoren-9-ylmethoxy)carbonyl]glycine 2,3,4,5,6-pentafluorophenyl ester", "N-(Fluorenylmethoxycarbonyl)glycine pentafluorophenyl ester", "N-9-Fluorenylmethoxycarbonylglycine pentafluorophenyl ester"], "SMILES": "C(OC(NCC(OC1=C(F)C(F)=C(F)C(F)=C1F)=O)=O)C2C=3C(C=4C2=CC=CC4)=CC=CC3", "physical_data": {"Molecular Weight": "463.35", "Molecular Formula": "C23H14F5NO4", "Melting Point": "156.3-157.4 \u00b0C"}}