{"cas_no": "86060-90-4", "cn_name": "\u812f\u80fa\u9178", "en_name": ["1-(9H-Fluoren-9-ylmethyl) 2-(pentafluorophenyl) (2S)-1,2-pyrrolidinedicarboxylate", "1,2-Pyrrolidinedicarboxylic acid, 1-(9H-fluoren-9-ylmethyl) 2-(pentafluorophenyl) ester, (2S)-", "1,2-Pyrrolidinedicarboxylic acid, 1-(9H-fluoren-9-ylmethyl) 2-(pentafluorophenyl) ester, (S)-", "1-(9H-Fluoren-9-ylmethyl) 2-(pentafluorophenyl) (2S)-1,2-pyrrolidinedicarboxylate", "N-(Fluorenylmethoxycarbonyl)proline pentafluorophenyl ester", "N-9-Fluorenylmethoxycarbonyl-L-proline pentafluorophenyl ester"], "SMILES": "C(OC(=O)N1C(C(OC2=C(F)C(F)=C(F)C(F)=C2F)=O)CCC1)C3C=4C(C=5C3=CC=CC5)=CC=CC4", "physical_data": {"Molecular Weight": "503.42", "Molecular Formula": "C26H18F5NO4", "Melting Point": "125-127 \u00b0C"}}