{"cas_no": "86060-89-1", "cn_name": "FMOC-ILE-OPFP", "en_name": ["N-[(9H-Fluoren-9-ylmethoxy)carbonyl]-L-isoleucine 2,3,4,5,6-pentafluorophenyl ester", "L-Isoleucine, N-[(9H-fluoren-9-ylmethoxy)carbonyl]-, 2,3,4,5,6-pentafluorophenyl ester", "L-Isoleucine, N-[(9H-fluoren-9-ylmethoxy)carbonyl]-, pentafluorophenyl ester", "N-[(9H-Fluoren-9-ylmethoxy)carbonyl]-L-isoleucine 2,3,4,5,6-pentafluorophenyl ester", "N-(Fluorenylmethoxycarbonyl)isoleucine pentafluorophenyl ester", "Pentafluorophenyl N-[(9H-fluoren-9-ylmethoxy)carbonyl]-L-isoleucinate"], "SMILES": "C(OC(NC(C(OC1=C(F)C(F)=C(F)C(F)=C1F)=O)C(CC)C)=O)C2C=3C(C=4C2=CC=CC4)=CC=CC3", "physical_data": {"Molecular Weight": "519.46", "Molecular Formula": "C27H22F5NO4", "Melting Point": "73-75 \u00b0C"}}