{"cas_no": "86061-04-3", "cn_name": "N-[(9H-\u82b4-9-\u57fa\u7532\u6c27\u57fa)\u7fb0\u57fa]-L-\u8c37\u6c28\u9178-5-\u53d4\u4e01\u57fa-1-\u4e94\u6c1f\u82ef\u916f", "en_name": ["5-(1,1-Dimethylethyl) 1-(2,3,4,5,6-pentafluorophenyl) N-[(9H-fluoren-9-ylmethoxy)carbonyl]-L-glutamate", "L-Glutamic acid, N-[(9H-fluoren-9-ylmethoxy)carbonyl]-, 5-(1,1-dimethylethyl) 1-(2,3,4,5,6-pentafluorophenyl) ester", "L-Glutamic acid, N-[(9H-fluoren-9-ylmethoxy)carbonyl]-, 5-(1,1-dimethylethyl) 1-(pentafluorophenyl) ester", "5-(1,1-Dimethylethyl) 1-(2,3,4,5,6-pentafluorophenyl) N-[(9H-fluoren-9-ylmethoxy)carbonyl]-L-glutamate", "N-(9-Fluorenylmethoxycarbonyl)-L-glutamic acid \u03b1-pentafluorophenyl \u03b3-tert-butyl ester", "N\u03b1-Fmoc-L-glutamic acid \u03b3-tert-butyl ester pentafluorophenyl ester"], "SMILES": "C(OC(NC(C(OC1=C(F)C(F)=C(F)C(F)=C1F)=O)CCC(OC(C)(C)C)=O)=O)C2C=3C(C=4C2=CC=CC4)=CC=CC3", "physical_data": {"Molecular Weight": "591.52", "Molecular Formula": "C30H26F5NO6", "Melting Point": "119-120 \u00b0C"}}