{"cas_no": "86087-23-2", "cn_name": "(S)-(+)-3-\u7f9f\u57fa\u56db\u6c22\u544b\u5583", "en_name": ["(+)-3-Hydroxytetrahydrofuran", "3-Furanol, tetrahydro-, (3S)-", "3-Furanol, tetrahydro-, (S)-", "(3S)-Tetrahydro-3-furanol", "(S)-Tetrahydro-3-furanol", "(S)-(+)-3-Hydroxytetrahydrofuran", "(+)-3-Hydroxytetrahydrofuran", "(S)-3-Hydroxytetrahydrofuran", "3S-Hydroxytetrahydrofuran", "(S)-(+)-Tetrahydrofuran-3-ol", "(3S)-Tetrahydrofuran-3-ol", "(3S)-Oxolan-3-ol", "(3S)-Oxolan-3-ol", "3-Furanol tetrahydro-, (3S)-"], "SMILES": "OC1CCOC1", "physical_data": {"Molecular Weight": "88.11", "Molecular Formula": "C4H8O2", "Boiling Point": "80 \u00b0C @ Press: 15 Torr"}}