{"cas_no": "86087-24-3", "cn_name": "(R)-(-)-3-\u7f9f\u57fa\u56db\u6c22\u544b\u5583", "en_name": ["(-)-3-Hydroxytetrahydrofuran", "3-Furanol, tetrahydro-, (3R)-", "3-Furanol, tetrahydro-, (R)-", "(3R)-Tetrahydro-3-furanol", "(R)-Tetrahydro-3-furanol", "(-)-3-Hydroxytetrahydrofuran", "(R)-(-)-3-Hydroxytetrahydrofuran", "(R)-3-Hydroxytetrahydrofuran", "3(R)-Hydroxytetrahydrofuran", "(R)-Tetrahydrofuran-3-ol", "(3R)-3-Hydroxytetrahydrofuran", "(R)-(-)-Tetrahydrofuran-3-ol", "(R)-(-)-Tetrahydrofuran-3-ol", "(3R)-Tetrahydrofuran-3-ol", "(3R)-Oxolan-3-ol", "(3R)-Oxolan-3-ol", "(R)-3-Hydroxytetrahydrofuran", "(r)-(-)-3-Hydroxytetrahydrofuran", "3-Furanol tetrahydro-, (3R)-"], "SMILES": "OC1CCOC1", "physical_data": {"Molecular Weight": "88.11", "Molecular Formula": "C4H8O2", "Boiling Point": "68-70 \u00b0C @ Press: 12 Torr"}}