{"cas_no": "86093-77-8", "cn_name": "3-(\u4e09\u6c1f\u7532\u57fa)\u567b\u5429", "en_name": ["3-(Trifluoromethyl)thiophene", "Thiophene, 3-(trifluoromethyl)-", "3-(Trifluoromethyl)thiophene", "3-Trifluoromethylthiophene"], "SMILES": "C(F)(F)(F)C=1C=CSC1", "physical_data": {"Molecular Weight": "152.14", "Molecular Formula": "C5H3F3S", "Boiling Point": "100 \u00b0C @ Press: 760 Torr"}}