{"cas_no": "861118-00-5", "cn_name": "3,5-\u4e8c\u7898-4-\u7532\u57fa\u82ef\u7532\u919b", "en_name": ["3,5-Diiodo-4-methylbenzaldehyde", "Benzaldehyde, 3,5-diiodo-4-methyl-", "3,5-Diiodo-4-methylbenzaldehyde"], "SMILES": "C(=O)C1=CC(I)=C(C)C(I)=C1", "physical_data": {"Molecular Weight": "371.94", "Molecular Formula": "C8H6I2O", "Melting Point": "305-307 \u00b0C"}}