{"cas_no": "86118-11-8", "cn_name": "(R)-2-\u6c28\u57fa-3-\u7532\u6c27\u57fa\u4e19\u9178", "en_name": ["O-Methyl-D-serine", "D-Serine, O-methyl-", "O-Methyl-D-serine", "(R)-O-Methylserine", "(R)-2-Amino-3-methoxypropanoic acid", "(2R)-2-Amino-3-methoxypropanoic acid"], "SMILES": "C(COC)(C(O)=O)N", "physical_data": {"Molecular Weight": "119.12", "Molecular Formula": "C4H9NO3", "Melting Point": "208-210 \u00b0C"}}