{"cas_no": "86153-25-5", "cn_name": "7-\u6eb4-3-\u5432\u54da\u7532\u9178", "en_name": ["7-Bromo-1H-indole-3-carboxylic acid", "1H-Indole-3-carboxylic acid, 7-bromo-", "Indole-3-carboxylic acid, 7-bromo-", "7-Bromo-1H-indole-3-carboxylic acid", "7-Bromoindole-3-carboxylic acid"], "SMILES": "C(O)(=O)C=1C=2C(NC1)=C(Br)C=CC2", "physical_data": {"Molecular Weight": "240.05", "Molecular Formula": "C9H6BrNO2", "Melting Point": "215-217 \u00b0C"}}