{"cas_no": "861928-27-0", "cn_name": "4-\u6eb4-2-(\u4e09\u6c1f\u7532\u57fa)\u82ef\u7532\u919b", "en_name": ["4-Bromo-2-(trifluoromethyl)benzaldehyde", "Benzaldehyde, 4-bromo-2-(trifluoromethyl)-", "4-Bromo-2-(trifluoromethyl)benzaldehyde"], "SMILES": "C(F)(F)(F)C1=C(C=O)C=CC(Br)=C1", "physical_data": {"Molecular Weight": "253.02", "Molecular Formula": "C8H4BrF3O", "Melting Point": "48-50 \u00b0C"}}