{"cas_no": "86209-51-0", "cn_name": "\u7532\u57fa\u6c1f\u5627\u78fa\u9686", "en_name": ["Primisulfuron-methyl", "Benzoic acid, 2-[[[[[4,6-bis(difluoromethoxy)-2-pyrimidinyl]amino]carbonyl]amino]sulfonyl]-, methyl ester", "CGA 136872", "Primisulfuron-methyl", "Tell", "Beacon"], "SMILES": "S(NC(NC=1N=C(OC(F)F)C=C(OC(F)F)N1)=O)(=O)(=O)C2=C(C(OC)=O)C=CC=C2", "physical_data": {"Molecular Weight": "468.34", "Molecular Formula": "C15H12F4N4O7S", "Melting Point": "194.8-197.4 \u00b0C (decomp)", "Density": "1.61 g/cm\u00b3 @ Temp: 20 \u00b0C"}}