{"cas_no": "862135-61-3", "cn_name": "5-\u6eb4-2-\u831a\u6ee1\u9187", "en_name": ["5-Bromo-2,3-dihydro-1H-inden-2-ol", "1H-Inden-2-ol, 5-bromo-2,3-dihydro-", "5-Bromo-2,3-dihydro-1H-inden-2-ol", "5-Bromoindan-2-ol"], "SMILES": "OC1CC=2C(C1)=CC(Br)=CC2", "physical_data": {"Molecular Weight": "213.07", "Molecular Formula": "C9H9BrO", "Melting Point": "115-117 \u00b0C"}}