{"cas_no": "86299-47-0", "cn_name": "\u5934\u5b62\u4ed6\u5576\u4fa7\u94fe\u9178", "en_name": ["(\u03b1Z)-2-Amino-\u03b1-[[2-(1,1-dimethylethoxy)-1,1-dimethyl-2-oxoethoxy]imino]-4-thiazoleacetic acid", "4-Thiazoleacetic acid, 2-amino-\u03b1-[[2-(1,1-dimethylethoxy)-1,1-dimethyl-2-oxoethoxy]imino]-, (\u03b1Z)-", "4-Thiazoleacetic acid, 2-amino-\u03b1-[[2-(1,1-dimethylethoxy)-1,1-dimethyl-2-oxoethoxy]imino]-, (Z)-", "(\u03b1Z)-2-Amino-\u03b1-[[2-(1,1-dimethylethoxy)-1,1-dimethyl-2-oxoethoxy]imino]-4-thiazoleacetic acid", "(Z)-(2-Aminothiazol-4-yl)-2-(2-tert-butoxycarbonyl-2-propoxyimino)acetic acid", "(Z)-2-(2-Aminothiazol-4-yl)-2-[(1-tert-butoxycarbonyl-1-methylethoxy)imino]acetic acid"], "SMILES": "C(=NOC(C(OC(C)(C)C)=O)(C)C)(C(O)=O)C1=CSC(N)=N1", "physical_data": {"Molecular Weight": "329.37", "Molecular Formula": "C13H19N3O5S", "Melting Point": "178-179 \u00b0C"}}