{"cas_no": "863-61-6", "cn_name": "\u56db\u70ef\u7532\u8418\u918c", "en_name": ["Menaquinone 4", "1,4-Naphthalenedione, 2-methyl-3-[(2E,6E,10E)-3,7,11,15-tetramethyl-2,6,10,14-hexadecatetraen-1-yl]-", "1,4-Naphthoquinone, 2-methyl-3-(3,7,11,15-tetramethyl-2,6,10,14-hexadecatetraenyl)-", "1,4-Naphthalenedione, 2-methyl-3-(3,7,11,15-tetramethyl-2,6,10,14-hexadecatetraenyl)-, (E,E,E)-", "1,4-Naphthalenedione, 2-methyl-3-[(2E,6E,10E)-3,7,11,15-tetramethyl-2,6,10,14-hexadecatetraenyl]-", "2-Methyl-3-[(2E,6E,10E)-3,7,11,15-tetramethyl-2,6,10,14-hexadecatetraen-1-yl]-1,4-naphthalenedione", "Vitamin K2(20)", "Menaquinone 4", "Vitamin MK 4", "Menaquinone K4", "MK-4", "2-Methyl-3-geranylgeranyl-1,4-naphthoquinone", "Menatetrenone", "Kaytwo", "Glakay", "K-viton", "Vitamin K2", "Vitamin K2-4"], "SMILES": "O=C1C=2C(C(=O)C(C)=C1CC=C(CCC=C(CCC=C(CCC=C(C)C)C)C)C)=CC=CC2", "physical_data": {"Molecular Weight": "444.65", "Molecular Formula": "C31H40O2", "Melting Point": "35 \u00b0C"}}