{"cas_no": "863-57-0", "cn_name": "\u7518\u6c28\u80c6\u9178\u94a0\u76d0", "en_name": ["Sodium glycocholate", "Glycine, N-[(3\u03b1,5\u03b2,7\u03b1,12\u03b1)-3,7,12-trihydroxy-24-oxocholan-24-yl]-, sodium salt (1:1)", "Glycine, N-choloyl-, monosodium salt", "Glycine, N-[(3\u03b1,5\u03b2,7\u03b1,12\u03b1)-3,7,12-trihydroxy-24-oxocholan-24-yl]-, monosodium salt", "Cholane, glycine deriv.", "Sodium glycocholate", "Glycocholic acid sodium salt", "Monosodium glycocholate", "Sodium cholylglycinate", "NSC 35609"], "SMILES": "OC1C2C3C(C)(C(C(CCC(NCC(O)=O)=O)C)CC3)C(O)CC2C4(C)C(C1)CC(O)CC4.[Na]", "physical_data": {"Molecular Weight": "", "Molecular Formula": "C26H43NO6.Na", "Melting Point": "230-240 \u00b0C"}}