{"cas_no": "863-76-3", "cn_name": "\u0391-\u9999\u6811\u8102\u9187\u4e59\u9178\u916f", "en_name": ["\u03b1-Amyrin acetate", "Urs-12-en-3-ol, 3-acetate, (3\u03b2)-", "Urs-12-en-3\u03b2-ol, acetate", "Urs-12-en-3-ol, acetate, (3\u03b2)-", "\u03b1-Amyrin acetate", "\u03b1-Amyrenyl acetate", "3-O-Acetyl-\u03b1-amyrin", "\u03b1-Acetylamyrin", "NSC 160881", "\u03b1-Amyrinone acetate"], "SMILES": "CC12C3(C)C(C4C(C)(CC3)CCC(C)C4C)=CCC1C5(C)C(CC2)C(C)(C)C(OC(C)=O)CC5", "physical_data": {"Molecular Weight": "468.75", "Molecular Formula": "C32H52O2", "Melting Point": "225-226 \u00b0C"}}