{"cas_no": "863329-66-2", "cn_name": "(2'R)-2'-\u8131\u6c27-2'-\u6c1f-2'-\u7532\u57fa\u8132\u82f7", "en_name": ["(2\u2032R)-2\u2032-Deoxy-2\u2032-fluoro-2\u2032-methyluridine", "Uridine, 2\u2032-deoxy-2\u2032-fluoro-2\u2032-methyl-, (2\u2032R)-", "(2\u2032R)-2\u2032-Deoxy-2\u2032-fluoro-2\u2032-methyluridine", "RO 2433", "PSI-6206", "GS 331007", "1-((2R,3R,4R,5R)-3-Fluoro-4-hydroxy-5-(hydroxymethyl)-3-methyltetrahydrofuran-2-yl)pyrimidine-2,4(1H,3H)-dione", "(2\u2032R)-2\u2032-Deoxy-2\u2032-fluoro-2\u2032-methyluridine", "ZL-01 metabolite M9"], "SMILES": "CC1(F)C(OC(CO)C1O)N2C(=O)NC(=O)C=C2", "physical_data": {"Molecular Weight": "260.22", "Molecular Formula": "C10H13FN2O5", "Melting Point": "237.3-238.0 \u00b0C"}}