{"cas_no": "863329-65-1", "cn_name": "(2'R)-2'-\u8131\u6c27-2'-\u6c1f-2'-\u7532\u57fa\u5c3f\u82f7 3',5'-\u4e8c\u82ef\u7532\u9178\u916f", "en_name": ["Uridine, 2\u2032-deoxy-2\u2032-fluoro-2\u2032-methyl-, 3\u2032,5\u2032-dibenzoate, (2\u2032R)-", "Uridine, 2\u2032-deoxy-2\u2032-fluoro-2\u2032-methyl-, 3\u2032,5\u2032-dibenzoate, (2\u2032R)-", "(2\u2032R)-2\u2032-Deoxy-2\u2032-fluoro-2\u2032-Methyl-uridine 3\u2032,5\u2032-dibenzoate"], "SMILES": "CC1(F)C(OC(COC(=O)C2=CC=CC=C2)C1OC(=O)C3=CC=CC=C3)N4C(=O)NC(=O)C=C4", "physical_data": {"Molecular Weight": "468.43", "Molecular Formula": "C24H21FN2O7", "Melting Point": "256.4-257.6 \u00b0C"}}