{"cas_no": "86347-15-1", "cn_name": "\u76d0\u9178\u7f8e\u6258\u54aa\u5576", "en_name": ["1H-Imidazole, 5-[1-(2,3-dimethylphenyl)ethyl]-, hydrochloride (1:1)", "1H-Imidazole, 5-[1-(2,3-dimethylphenyl)ethyl]-, hydrochloride (1:1)", "1H-Imidazole, 4-[1-(2,3-dimethylphenyl)ethyl]-, monohydrochloride", "Medetomidine hydrochloride", "Domitor", "MPV 785", "Zalopine"], "SMILES": "C(C)(C1=C(C)C(C)=CC=C1)C2=CN=CN2.Cl", "physical_data": {"Molecular Weight": "", "Molecular Formula": "C13H16N2.ClH", "Melting Point": "172-173 \u00b0C"}}