{"cas_no": "863453-61-6", "cn_name": "(R)-3-Boc-5-\u7532\u57fa-1,2,3-\u6c27\u6742\u567b\u5511\u70f7-2,2-\u4e8c\u6c27\u5316\u7269", "en_name": ["1,2,3-Oxathiazolidine-3-carboxylic acid, 5-methyl-, 1,1-dimethylethyl ester, 2,2-dioxide, (5R)-", "1,2,3-Oxathiazolidine-3-carboxylic acid, 5-methyl-, 1,1-dimethylethyl ester, 2,2-dioxide, (5R)-", "(r)-tert-Butyl 5-methyl-1,2,3-oxathiazolidine-3-carboxylate 2,2-dioxide"], "SMILES": "C(OC(C)(C)C)(=O)N1S(=O)(=O)OC(C)C1", "physical_data": {"Molecular Weight": "237.27", "Molecular Formula": "C8H15NO5S", "Melting Point": "117-118 \u00b0C"}}