{"cas_no": "863513-91-1", "cn_name": "CEBRANOPADOL", "en_name": ["Cebranopadol", "Spiro[cyclohexane-1,1\u2032(3\u2032H)-pyrano[3,4-b]indol]-4-amine, 6\u2032-fluoro-4\u2032,9\u2032-dihydro-N,N-dimethyl-4-phenyl-, (1\u03b1,4\u03b2)-", "Spiro[cyclohexane-1,1\u2032(3\u2032H)-pyrano[3,4-b]indol]-4-amine, 6\u2032-fluoro-4\u2032,9\u2032-dihydro-N,N-dimethyl-4-phenyl-, trans-", "(1\u03b1,4\u03b2)-6\u2032-Fluoro-4\u2032,9\u2032-dihydro-N,N-dimethyl-4-phenylspiro[cyclohexane-1,1\u2032(3\u2032H)-pyrano[3,4-b]indol]-4-amine", "Cebranopadol", "GRT 6005"], "SMILES": "N(C)(C)C1(CCC2(C3=C(C=4C(N3)=CC=C(F)C4)CCO2)CC1)C5=CC=CC=C5", "physical_data": {"Molecular Weight": "378.48", "Molecular Formula": "C24H27FN2O", "Melting Point": "284-292 \u00b0C"}}