{"cas_no": "86357-14-4", "cn_name": "\u4e09\u4e59\u9170\u66f4\u6614\u6d1b\u97e6", "en_name": ["N-[9-[[2-(Acetyloxy)-1-[(acetyloxy)methyl]ethoxy]methyl]-6,9-dihydro-6-oxo-1H-purin-2-yl]acetamide", "Acetamide, N-[9-[[2-(acetyloxy)-1-[(acetyloxy)methyl]ethoxy]methyl]-6,9-dihydro-6-oxo-1H-purin-2-yl]-", "N-[9-[[2-(Acetyloxy)-1-[(acetyloxy)methyl]ethoxy]methyl]-6,9-dihydro-6-oxo-1H-purin-2-yl]acetamide", "2-((2-Acetamido-6-hydroxy-9H-purin-9-yl)methoxy)propane-1,3-diyl diacetate"], "SMILES": "C(OC(COC(C)=O)COC(C)=O)N1C2=C(C(=O)N=C(NC(C)=O)N2)N=C1", "physical_data": {"Molecular Weight": "381.34", "Molecular Formula": "C15H19N5O7", "Melting Point": "175 \u00b0C"}}