{"cas_no": "863578-36-3", "cn_name": "2-\u6c28\u57fa-4-\u7532\u57fa\u82ef\u787c\u9178\u9891\u90a3\u9187\u916f", "en_name": ["5-Methyl-2-(4,4,5,5-tetramethyl-1,3,2-dioxaborolan-2-yl)benzenamine", "Benzenamine, 5-methyl-2-(4,4,5,5-tetramethyl-1,3,2-dioxaborolan-2-yl)-", "5-Methyl-2-(4,4,5,5-tetramethyl-1,3,2-dioxaborolan-2-yl)benzenamine", "5-Methyl-2-(4,4,5,5-tetramethyl-1,3,2-dioxaborolan-2-yl)aniline", "2-(2-Amino-4-methylphenyl)-4,4,5,5-tetramethyl-1,3,2-dioxaborolane"], "SMILES": "NC1=C(C=CC(C)=C1)B2OC(C)(C)C(C)(C)O2", "physical_data": {"Molecular Weight": "233.11", "Molecular Formula": "C13H20BNO2", "Melting Point": "68 \u00b0C"}}