{"cas_no": "86361-55-9", "cn_name": "2,6,3',5'-\u56db\u7f9f\u57fa\u4e8c\u82ef\u4e59\u70ef", "en_name": ["Gnetol", "1,3-Benzenediol, 2-[(1E)-2-(3,5-dihydroxyphenyl)ethenyl]-", "1,3-Benzenediol, 2-[2-(3,5-dihydroxyphenyl)ethenyl]-, (E)-", "2-[(1E)-2-(3,5-Dihydroxyphenyl)ethenyl]-1,3-benzenediol", "Gnetol"], "SMILES": "C(=CC1=C(O)C=CC=C1O)C2=CC(O)=CC(O)=C2", "physical_data": {"Molecular Weight": "244.24", "Molecular Formula": "C14H12O4", "Melting Point": "239.7-240.3 \u00b0C"}}