{"cas_no": "86386-76-7", "cn_name": "1-[[2-(2,4-\u4e8c\u6c1f\u82ef\u57fa)-2-\u73af\u6c27\u4e59\u70f7]\u7532\u57fa]-1H-1,2,4-\u4e09\u5511", "en_name": ["1-[2-(2,4-Difluorophenyl)-2,3-epoxypropyl]-1H-1,2,4-triazole", "1H-1,2,4-Triazole, 1-[[2-(2,4-difluorophenyl)-2-oxiranyl]methyl]-", "1H-1,2,4-Triazole, 1-[[2-(2,4-difluorophenyl)oxiranyl]methyl]-", "1-[[2-(2,4-Difluorophenyl)-2-oxiranyl]methyl]-1H-1,2,4-triazole", "1-[2-(2,4-Difluorophenyl)-2,3-epoxypropyl]-1H-1,2,4-triazole", "2-(2,4-Difluorophenyl)-2,3-epoxy-1-(1H-1,2,4-triazol-1-yl)propane", "1-[[2-(2,4-Difluorophenyl)oxiranyl]methyl]-1H-1,2,4-triazole", "2-(2,4-Difluorophenyl)-2-[(1H-1,2,4-triazol-1-yl)methyl]oxirane"], "SMILES": "C(C1(CO1)C2=C(F)C=C(F)C=C2)N3C=NC=N3", "physical_data": {"Molecular Weight": "237.21", "Molecular Formula": "C11H9F2N3O", "Melting Point": "73-74 \u00b0C"}}