{"cas_no": "86386-77-8", "cn_name": "1-[2-(2,4-\u4e8c\u6c1f\u82ef\u57fa)-2,3-\u73af\u6c27\u4e19\u70f7]-1H-1,2,4-\u4e09\u6c2e\u5511\u7532\u78fa\u9178\u76d0", "en_name": ["1H-1,2,4-Triazole, 1-[[2-(2,4-difluorophenyl)-2-oxiranyl]methyl]-, methanesulfonate (1:1)", "1H-1,2,4-Triazole, 1-[[2-(2,4-difluorophenyl)-2-oxiranyl]methyl]-, methanesulfonate (1:1)", "1H-1,2,4-Triazole, 1-[[2-(2,4-difluorophenyl)oxiranyl]methyl]-, monomethanesulfonate", "2-(2,4-Difluorophenyl)-2,3-epoxy-1-(1H-1,2,4-triazol-1-yl)propane methanesulfonate salt", "2-(2,4-Difluorophenyl)-2-((1H-1,2,4-triazol-1-yl)methyl)oxirane methanesulfonate"], "SMILES": "S(C)(=O)(=O)O.C(C1(CO1)C2=C(F)C=C(F)C=C2)N3C=NC=N3", "physical_data": {"Molecular Weight": "", "Molecular Formula": "C11H9F2N3O.CH4O3S", "Melting Point": "192-194 \u00b0C"}}