{"cas_no": "86386-73-4", "cn_name": "\u6c1f\u5eb7\u5511", "en_name": ["Fluconazole", "1H-1,2,4-Triazole-1-ethanol, \u03b1-(2,4-difluorophenyl)-\u03b1-(1H-1,2,4-triazol-1-ylmethyl)-", "\u03b1-(2,4-Difluorophenyl)-\u03b1-(1H-1,2,4-triazol-1-ylmethyl)-1H-1,2,4-triazole-1-ethanol", "UK 49858", "Fluconazole", "Diflucan", "Flucostat", "Biozolene", "Elazor", "Triflucan", "Flusol", "Zoltec", "Flunazol", "Flumycon", "Fluzon", "Difluconazole", "Fluconal", "1-(2,4-Difluorophenyl)-1,1-bis[(1H-1,2,4-triazol-1-yl)methyl]methanol", "Triconal", "Zocon", "Flucan", "Fungicon", "Fungican", "Alkanazole", "Flutec", "2-(2,4-Difluorophenyl)-1,3-bis(1,2,4-triazol-1-yl)-propan-2-ol", "Floroxan", "2-(2,4-Difluorophenyl)-1,3-bis(1H-1,2,4-triazol-1-yl)propan-2-ol", "MeSH ID: D015725"], "SMILES": "C(CN1C=NC=N1)(CN2C=NC=N2)(O)C3=C(F)C=C(F)C=C3", "physical_data": {"Molecular Weight": "306.27", "Molecular Formula": "C13H12F2N6O", "Melting Point": "138-140 \u00b0C"}}