{"cas_no": "863870-88-6", "cn_name": "2-\u6eb4-3-\u7898\u82ef\u915a", "en_name": ["2-Bromo-3-iodophenol", "Phenol, 2-bromo-3-iodo-", "2-Bromo-3-iodophenol"], "SMILES": "BrC1=C(I)C=CC=C1O", "physical_data": {"Molecular Weight": "298.90", "Molecular Formula": "C6H4BrIO", "Melting Point": "69-71 \u00b0C"}}