{"cas_no": "86392-75-8", "cn_name": "7-DEAZA-2'-\u8131\u6c27\u9e1f\u82f7", "en_name": ["7-Deaza-2\u2032-deoxyguanosine", "4H-Pyrrolo[2,3-d]pyrimidin-4-one, 2-amino-7-(2-deoxy-\u03b2-D-erythro-pentofuranosyl)-1,7-dihydro-", "2-Amino-7-(2-deoxy-\u03b2-D-erythro-pentofuranosyl)-1,7-dihydro-4H-pyrrolo[2,3-d]pyrimidin-4-one", "7-Deaza-2\u2032-deoxyguanosine", "98: PN: US20050130918 PAGE: 60 claimed sequence"], "SMILES": "O=C1C2=C(N(C=C2)C3OC(CO)C(O)C3)NC(N)=N1", "physical_data": {"Molecular Weight": "266.25", "Molecular Formula": "C11H14N4O4", "Melting Point": "262-265 \u00b0C"}}