{"cas_no": "86393-32-0", "cn_name": "\u76d0\u9178\u73af\u4e19\u6c99\u661f(\u4e00\u6c34\u7269)", "en_name": ["Ciprofloxacin hydrochloride monohydrate", "3-Quinolinecarboxylic acid, 1-cyclopropyl-6-fluoro-1,4-dihydro-4-oxo-7-(1-piperazinyl)-, hydrochloride, hydrate (1:1:1)", "3-Quinolinecarboxylic acid, 1-cyclopropyl-6-fluoro-1,4-dihydro-4-oxo-7-(1-piperazinyl)-, monohydrochloride, monohydrate", "Ciprofloxacin hydrochloride monohydrate"], "SMILES": "O=C1C=2C(N(C=C1C(O)=O)C3CC3)=CC(=C(F)C2)N4CCNCC4.Cl.O", "physical_data": {"Molecular Weight": "", "Molecular Formula": "C17H18FN3O3.ClH.H2O", "Melting Point": "318-320 \u00b0C"}}