{"cas_no": "86393-33-1", "cn_name": "\u73af\u4e19\u7fa7\u9178", "en_name": ["Fluoroquinolonic acid", "3-Quinolinecarboxylic acid, 7-chloro-1-cyclopropyl-6-fluoro-1,4-dihydro-4-oxo-", "7-Chloro-1-cyclopropyl-6-fluoro-1,4-dihydro-4-oxo-3-quinolinecarboxylic acid", "7-Chloro-1-cyclopropyl-6-fluoro-1,4-dihydro-4-oxoquinoline-3-carboxylic acid", "1-Cyclopropyl-6-fluoro-7-chloro-1,4-dihydro-4-oxo-3-quinolinecarboxylic acid", "7-Chloro-1-cyclopropyl-6-fluoro-3-carboxy-1,4-dihydro-4-oxoquinoline", "1-Cyclopropyl-7-chloro-6-fluoro-1,4-dihydro-4-oxoquinoline-3-carboxylic acid", "1-Cyclopropyl-1,4-dihydro-4-oxo-6-fluoro-7-chloro-3-quinolinecarboxylic acid", "1-Cyclopropyl-6-fluoro-7-chloro-1,4-dihydro-4-oxoquinolin-3-carboxylic acid", "7-Chloro-1-cyclopropyl-6-fluoroquinolin-4-one-3-carboxylic acid", "Fluoroquinolonic acid", "7-Chloro-1-cyclopropyl-6-fluoro-4-oxo-1,4-dihydro-3-quinolinecarboxylic acid"], "SMILES": "C(O)(=O)C1=CN(C=2C(C1=O)=CC(F)=C(Cl)C2)C3CC3", "physical_data": {"Molecular Weight": "281.67", "Molecular Formula": "C13H9ClFNO3", "Melting Point": "245-246 \u00b0C"}}