{"cas_no": "86398-94-9", "cn_name": "2,6-\u4e8c\u6c2f-4-\u4e09\u6c1f\u7532\u57fa\u82ef\u80bc", "en_name": ["[2,6-Dichloro-4-(trifluoromethyl)phenyl]hydrazine", "Hydrazine, [2,6-dichloro-4-(trifluoromethyl)phenyl]-", "[2,6-Dichloro-4-(trifluoromethyl)phenyl]hydrazine"], "SMILES": "C(F)(F)(F)C1=CC(Cl)=C(NN)C(Cl)=C1", "physical_data": {"Molecular Weight": "245.03", "Molecular Formula": "C7H5Cl2F3N2", "Melting Point": "65-67 \u00b0C"}}