{"cas_no": "86404-04-8", "cn_name": "\u7ef4\u751f\u7d20C\u4e59\u57fa\u919a", "en_name": ["3-O-Ethylascorbic acid", "L-Ascorbic acid, 3-O-ethyl-", "3-O-Ethyl-L-ascorbic acid", "L-Ascorbic acid 3-O-ethyl ether", "3-O-Ethylascorbic acid", "VC Ethyl", "COS-VCE", "ENB-VCE"], "SMILES": "C(CO)(O)C1C(OCC)=C(O)C(=O)O1", "physical_data": {"Molecular Weight": "204.18", "Molecular Formula": "C8H12O6", "Melting Point": "116-117.5 \u00b0C"}}