{"cas_no": "86404-63-9", "cn_name": "2'4'-\u4e8c\u6c1f-2-[1-(1H-1,2,4-\u4e09\u5511\u57fa)]\u82ef\u4e59\u916e", "en_name": ["1-(2,4-Difluorophenyl)-2-(1H-1,2,4-triazol-1-yl)ethanone", "Ethanone, 1-(2,4-difluorophenyl)-2-(1H-1,2,4-triazol-1-yl)-", "1-(2,4-Difluorophenyl)-2-(1H-1,2,4-triazol-1-yl)ethanone", "2\u2032,4\u2032-Difluoro-2-(1,2,4-triazol-1-yl)acetophenone", "1-(2,4-Difluorophenyl)-2-(1H-1,2,4-triazol-1-yl)-1-ethanone", "UK 51060", "2\u2032,4\u2032-Difluoro-2-(1H-1,2,4-triazol-1-yl)acetophenone", "1-(2,4-Difluorophenyl)-2-(4H-1,3,4-triazol-4-yl)ethan-1-one", "1-(2,4-Difluorophenyl)-2-(1,2,4-triazol-1-yl)ethanone"], "SMILES": "C(CN1C=NC=N1)(=O)C2=C(F)C=C(F)C=C2", "physical_data": {"Molecular Weight": "223.18", "Molecular Formula": "C10H7F2N3O", "Melting Point": "94-96 \u00b0C"}}