{"cas_no": "86477-09-0", "cn_name": "5,6-\u4e8c\u6c22-4H-\u5421\u54af\u5e76[1,2-B]\u5421\u5511-2-\u7fa7\u9178\u4e59\u916f", "en_name": ["5,6-Dihydro-4H-pyrrolo[1,2-b]pyrazole-2-carboxylic acid ethyl ester", "4H-Pyrrolo[1,2-b]pyrazole-2-carboxylic acid, 5,6-dihydro-, ethyl ester", "5,6-Dihydro-4H-pyrrolo[1,2-b]pyrazole-2-carboxylic acid ethyl ester"], "SMILES": "C(OCC)(=O)C=1C=C2N(N1)CCC2", "physical_data": {"Molecular Weight": "180.20", "Molecular Formula": "C9H12N2O2", "Melting Point": "61-63 \u00b0C"}}