{"cas_no": "86479-06-3", "cn_name": "\u516d\u4f0f\u9686", "en_name": ["Hexaflumuron", "Benzamide, N-[[[3,5-dichloro-4-(1,1,2,2-tetrafluoroethoxy)phenyl]amino]carbonyl]-2,6-difluoro-", "N-[[[3,5-Dichloro-4-(1,1,2,2-tetrafluoroethoxy)phenyl]amino]carbonyl]-2,6-difluorobenzamide", "XRD 473", "AI 3-29832", "Hexafluron", "Hexaflumuron", "OMS 3031", "Sonet", "Consult", "Consult 100EC", "Cosult", "Dowco 473"], "SMILES": "C(NC(NC1=CC(Cl)=C(OC(C(F)F)(F)F)C(Cl)=C1)=O)(=O)C2=C(F)C=CC=C2F", "physical_data": {"Molecular Weight": "461.14", "Molecular Formula": "C16H8Cl2F6N2O3", "Melting Point": "202-205 \u00b0C", "Density": "1.7 g/cm\u00b3"}}