{"cas_no": "86484-91-5", "cn_name": "\u76d0\u9178\u591a\u57f9\u6c99\u660e", "en_name": ["1,2-Benzenediol, 4-[2-[[6-[(2-phenylethyl)amino]hexyl]amino]ethyl]-, hydrochloride (1:2)", "1,2-Benzenediol, 4-[2-[[6-[(2-phenylethyl)amino]hexyl]amino]ethyl]-, hydrochloride (1:2)", "1,2-Benzenediol, 4-[2-[[6-[(2-phenylethyl)amino]hexyl]amino]ethyl]-, dihydrochloride", "Dopexamine hydrochloride", "Dopacard", "FPL 60278AR"], "SMILES": "C(CNCCCCCCNCCC1=CC=CC=C1)C2=CC(O)=C(O)C=C2.Cl", "physical_data": {"Molecular Weight": "", "Molecular Formula": "C22H32N2O2.2ClH", "Melting Point": "218-220 \u00b0C"}}