{"cas_no": "86499-96-9", "cn_name": "3-\u6eb4-1,3,4,5-\u56db\u6c22-2H-1-\u82ef\u5e76\u6c2e\u6742\u5353-2-\u916e", "en_name": ["3-Bromo-1,3,4,5-tetrahydro-2H-1-benzazepin-2-one", "2H-1-Benzazepin-2-one, 3-bromo-1,3,4,5-tetrahydro-", "3-Bromo-1,3,4,5-tetrahydro-2H-1-benzazepin-2-one", "3-Bromo-4,5-dihydro-1H-benzo[b]azepin-2(3H)-one", "3-Bromo-2,3,4,5-tetrahydro-1H-1-benzazepin-2-one", "3-Bromo-1,3,4,5-tetrahydro-1-benzazepin-2-one"], "SMILES": "O=C1NC=2C(CCC1Br)=CC=CC2", "physical_data": {"Molecular Weight": "240.10", "Molecular Formula": "C10H10BrNO", "Melting Point": "162-165 \u00b0C"}}