{"cas_no": "865-48-5", "cn_name": "\u53d4\u4e01\u9187\u94a0", "en_name": ["Sodium tert-butoxide", "2-Propanol, 2-methyl-, sodium salt (1:1)", "tert-Butyl alcohol, sodium salt", "2-Propanol, 2-methyl-, sodium salt", "Sodium tert-butoxide", "tert-Butoxysodium", "2-Methyl-2-propanol sodium salt", "Sodium tert-butylate", "tert-Butanol sodium salt", "Sodium tert-butanolate", "Sodium 2-methylpropan-2-olate", "Sodium t-butoxide", "2-Methylpropan-2-olate sodium"], "SMILES": "C(C)(C)(C)O.[Na]", "physical_data": {"Molecular Weight": "", "Molecular Formula": "C4H10O.Na", "Boiling Point": "180 \u00b0C @ Press: 1 Torr", "Melting Point": "263-270 \u00b0C (decomp)", "Density": "1.104 g/cm\u00b3"}}