{"cas_no": "865-21-4", "cn_name": "\u957f\u6625\u78b1", "en_name": ["Vinblastine", "Vincaleukoblastine", "Vinblastine", "1H-Indolizino[8,1-cd]carbazole, vincaleukoblastine deriv.", "2H-3,7-Methanoazacycloundecino[5,4-b]indole, vincaleukoblastine deriv.", "Vinblastin", "VLB", "Vincaleucoblastine", "Vincaleucoblastin", "1H-Indolizino[8,1-cd]carbazole-5-carboxylic acid, 4-(acetyloxy)-3a-ethyl-9-[5-ethyl-1,4,5,6,7,8,9,10-octahydro-5-hydroxy-9-(methoxycarbonyl)-2H-3,7-methanoazacycloundecino[5,4-b]indol-9-yl]-3a,4,5,5a,6,11,12,13a-octahydro-5-hydroxy-8-methoxy-6-methyl-, methyl ester, [3aR-[3a\u03b1,4\u03b2,5\u03b2,5a\u03b2,9(3R*,5S*,7R*,9S*),10bR*,13a\u03b1]]-", "[3aR-[3a\u03b1,4\u03b2,5\u03b2,5a\u03b2,9(3R*,5S*,7R*,9S*),10bR*,13a\u03b1]]-Methyl 4-(acetyloxy)-3a-ethyl-9-[5-ethyl-1,4,5,6,7,8,9,10-octahydro-5-hydroxy-9-(methoxycarbonyl)-2H-3,7-methanoazacycloundecino[5,4-b]indol-9-yl]-3a,4,5,5a,6,11,12,13a-octahydro-5-hydroxy-8-methoxy-6-methyl-1H-indolizino[8,1-cd]carbazole-5-carboxylate", "Rozevin", "(+)-Vinblastine", "Valban", "Dimethyl(2\u03b2,3\u03b2,4\u03b2,5\u03b1,12\u03b2,19\u03b1)-15-[(5S,9S)-5-ethyl-5-hydroxy-9-(methoxycarbonyl)-1,4,5,6,7,8,9,10-octahydro-2H-3,7-methanoazacycloundecino[5,4-b]indol-9-yl]-3-hydroxy-16-methoxy-1-methyl-6,7-didehydroaspidospermidine-3,4-dicarboxylate", "MeSH ID: D014747"], "SMILES": "C(C)C12C3C4(C(C(C(OC)=O)(O)C1OC(C)=O)N(C)C=5C4=CC(=C(OC)C5)C6(C(OC)=O)C7=C(C=8C(N7)=CC=CC8)CCN9CC(C6)CC(CC)(O)C9)CCN3CC=C2", "physical_data": {"Molecular Weight": "810.97", "Molecular Formula": "C46H58N4O9", "Melting Point": "211-216 \u00b0C"}}