{"cas_no": "865-34-9", "cn_name": "\u7532\u9187\u9502", "en_name": ["Lithium methoxide", "Methanol, lithium salt (1:1)", "Methanol, lithium salt", "Lithium methoxide", "Lithium methylate", "Methoxylithium", "Lithium methanolate"], "SMILES": "CO.[Li]", "physical_data": {"Molecular Weight": "", "Molecular Formula": "CH4O.Li", "Melting Point": "500 \u00b0C (decomp)"}}