{"cas_no": "865-47-4", "cn_name": "\u53d4\u4e01\u9187\u94be", "en_name": ["Potassium tert-butoxide", "2-Propanol, 2-methyl-, potassium salt (1:1)", "tert-Butyl alcohol, potassium salt", "2-Propanol, 2-methyl-, potassium salt", "Potassium tert-butoxide", "Potassium tert-butylate", "Potassium t-butoxide", "Potassium 1,1-dimethylethoxide", "tert-Butoxypotassium", "2-Methyl-2-propanol potassium salt", "tert-Butanol potassium salt", "Potassium tert-butanolate", "Potassium 2-methylpropan-2-olate", "Potassium tert-butanol"], "SMILES": "C(C)(C)(C)O.[K]", "physical_data": {"Molecular Weight": "", "Molecular Formula": "C4H10O.K", "Melting Point": "220 \u00b0C"}}