{"cas_no": "865-50-9", "cn_name": "\u6c18\u4ee3\u7898\u7532\u70f7", "en_name": ["Methyl-d3 iodide", "Methane-d3, iodo-", "Iodomethane-d3", "Trideuteromethyl iodide", "Methyl-d3 iodide", "Trideuterioiodomethane", "Trideuteriomethyl iodide", "Perdeuteriomethyl iodide", "Perdeuteroiodomethane", "Iodotrideuteriomethane", "Methyl iodide (CD3I)", "Trideutero(iodo)methane", "Iodomethane-d3"], "SMILES": "C(I)([2H])([2H])[2H]", "physical_data": {"Molecular Weight": "", "Molecular Formula": "CD3I", "Boiling Point": "40-42 \u00b0C @ Press: 760 Torr"}}