{"cas_no": "865-52-1", "cn_name": "\u56db\u7532\u57fa\u9517", "en_name": ["Germane, tetramethyl-", "Germane, tetramethyl-", "Tetramethylgermane", "Tetramethylgermanium", "NSC 65801"], "SMILES": "[Ge](C)(C)(C)C", "physical_data": {"Molecular Weight": "132.78", "Molecular Formula": "C4H12Ge", "Boiling Point": "43.4 \u00b0C", "Melting Point": "-88 \u00b0C", "Density": "0.975 g/cm\u00b3"}}