{"cas_no": "865-86-1", "cn_name": "1,1,2,2-\u56db\u6c22\u5168\u6c1f\u5341\u4e8c\u9187", "en_name": ["2-(Perfluorodecyl)ethanol", "1-Dodecanol, 3,3,4,4,5,5,6,6,7,7,8,8,9,9,10,10,11,11,12,12,12-heneicosafluoro-", "3,3,4,4,5,5,6,6,7,7,8,8,9,9,10,10,11,11,12,12,12-Heneicosafluoro-1-dodecanol", "2-(Perfluorodecyl)ethanol", "PFA 10", "1,1,2,2-Tetrahydroperfluorododecanol", "1H,1H,2H,2H-Perfluorododecanol", "1,1,2,2-Tetrahydrohenicosafluorododecanol", "1H,1H,2H,2H-Perfluorododecan-1-ol", "A 2020", "A 2020 (fluoro compound)", "2-(Perfluorodecyl)ethyl alcohol", "3-(Perfluorodecyl)ethanol", "10:2 FTOH", "3,3,4,4,5,5,6,6,7,7,8,8,9,9,10,10,11,11,12, 12,12-Heneicosafluorododecan-1-ol", "10:2 Fluorotelomer alcohol", "3,3,4,4,5,5,6,6,7,7,8,8,9,9,10,10,11,11,12,12,12-Henicosafluorododecan-1-ol"], "SMILES": "C(C(C(C(C(C(F)(F)F)(F)F)(F)F)(F)F)(F)F)(C(C(C(C(CCO)(F)F)(F)F)(F)F)(F)F)(F)F", "physical_data": {"Molecular Weight": "564.13", "Molecular Formula": "C12H5F21O", "Boiling Point": "111-111.5 \u00b0C @ Press: 10 Torr", "Melting Point": "92-93 \u00b0C"}}