{"cas_no": "865-77-0", "cn_name": "\u5168\u6c1f\u5f02\u58ec\u57fa\u7898", "en_name": ["1,1,1,2,3,3,4,4,5,5,6,6,7,7,8,8-Hexadecafluoro-8-iodo-2-(trifluoromethyl)octane", "Octane, 1,1,1,2,3,3,4,4,5,5,6,6,7,7,8,8-hexadecafluoro-8-iodo-2-(trifluoromethyl)-", "Octane, hexadecafluoro-1-iodo-7-(trifluoromethyl)-", "1,1,1,2,3,3,4,4,5,5,6,6,7,7,8,8-Hexadecafluoro-8-iodo-2-(trifluoromethyl)octane", "Nonadecafluoro-1-iodo-7-methyloctane", "1-Iodo-7-(trifluoromethyl)perfluorooctane", "1-Iodoperfluoro-7-methyloctane"], "SMILES": "C(C(C(F)(F)F)(C(F)(F)F)F)(C(C(C(C(C(F)(F)I)(F)F)(F)F)(F)F)(F)F)(F)F", "physical_data": {"Molecular Weight": "595.97", "Molecular Formula": "C9F19I", "Boiling Point": "189.5 \u00b0C"}}