{"cas_no": "865-49-6", "cn_name": "\u6c18\u4ee3\u6c2f\u4eff", "en_name": ["Chloroform-d", "Methane-d, trichloro-", "Chloroform-d", "Deuteriochloroform", "Deuterochloroform", "Trichloromethane-d", "Trichlorodeuteromethane", "Deuterotrichloromethane", "Trichlorodeuteriomethane", "Chloroform (CDCl3)", "Deuteriotrichloromethane", "Trichloromethane-d1", "Deuterochloroform(CDCl3)"], "SMILES": "C(Cl)(Cl)(Cl)[2H]", "physical_data": {"Molecular Weight": "", "Molecular Formula": "CCl3D", "Boiling Point": "61.5 \u00b0C", "Melting Point": "-64.69--64.15 \u00b0C", "Density": "1.5004 g/cm\u00b3 @ Temp: 20 \u00b0C"}}