{"cas_no": "865-44-1", "cn_name": "\u4e09\u6c2f\u5316\u7898", "en_name": ["Iodine trichloride", "Iodine chloride (ICl3)", "Iodine trichloride", "Trichloroiodine"], "SMILES": "I(Cl)(Cl)Cl", "physical_data": {"Molecular Weight": "233.26", "Molecular Formula": "Cl3I", "Melting Point": "~33 \u00b0C (approx)"}}