{"cas_no": "865233-35-8", "cn_name": "(3S)-3-(4-\u7f9f\u82ef\u57fa)-4-\u5df2\u7094\u9178", "en_name": ["(\u03b2S)-4-Hydroxy-\u03b2-1-propyn-1-ylbenzenepropanoic acid", "Benzenepropanoic acid, 4-hydroxy-\u03b2-1-propyn-1-yl-, (\u03b2S)-", "Benzenepropanoic acid, 4-hydroxy-\u03b2-1-propynyl-, (\u03b2S)-", "(\u03b2S)-4-Hydroxy-\u03b2-1-propyn-1-ylbenzenepropanoic acid", "(3S)-3-(4-Hydroxyphenyl)-4-hexynoic acid", "(S)-3-(4-Hydroxyphenyl)hex-4-ynoic acid"], "SMILES": "C(CC(O)=O)(C#CC)C1=CC=C(O)C=C1", "physical_data": {"Molecular Weight": "204.22", "Molecular Formula": "C12H12O3", "Melting Point": "127 \u00b0C"}}