{"cas_no": "865363-93-5", "cn_name": "2'-\u8131\u6c27-4'-C-\u4e59\u7094\u57fa-2-\u6c1f\u817a\u82f7", "en_name": ["2\u2032-Deoxy-4\u2032-C-ethynyl-2-fluoroadenosine", "Adenosine, 2\u2032-deoxy-4\u2032-C-ethynyl-2-fluoro-", "2\u2032-Deoxy-4\u2032-C-ethynyl-2-fluoroadenosine", "4\u2032-Ethynyl-2-fluoro-2\u2032-deoxyadenosine", "MK 8591", "Islatravir"], "SMILES": "NC1=C2C(N(C=N2)C3OC(C#C)(CO)C(O)C3)=NC(F)=N1", "physical_data": {"Molecular Weight": "293.25", "Molecular Formula": "C12H12FN5O3", "Melting Point": "220.0-221.4 \u00b0C (decomp)"}}