{"cas_no": "86541-78-8", "cn_name": "\u82ef\u90a3\u666e\u5229\u62c9", "en_name": ["Benazeprilat", "1H-1-Benzazepine-1-acetic acid, 3-[[(1S)-1-carboxy-3-phenylpropyl]amino]-2,3,4,5-tetrahydro-2-oxo-, (3S)-", "1H-1-Benzazepine-1-acetic acid, 3-[(1-carboxy-3-phenylpropyl)amino]-2,3,4,5-tetrahydro-2-oxo-, [S-(R*,R*)]-", "(3S)-3-[[(1S)-1-Carboxy-3-phenylpropyl]amino]-2,3,4,5-tetrahydro-2-oxo-1H-1-benzazepine-1-acetic acid", "CGS 14831", "Benazeprilat", "Benazeprilate"], "SMILES": "C(C(O)=O)N1C=2C(CCC(NC(CCC3=CC=CC=C3)C(O)=O)C1=O)=CC=CC2", "physical_data": {"Molecular Weight": "396.44", "Molecular Formula": "C22H24N2O5", "Melting Point": "270-272 \u00b0C"}}