{"cas_no": "86541-74-4", "cn_name": "\u76d0\u9178\u8d1d\u90a3\u666e\u5229", "en_name": ["Benazepril hydrochloride", "1H-1-Benzazepine-1-acetic acid, 3-[[(1S)-1-(ethoxycarbonyl)-3-phenylpropyl]amino]-2,3,4,5-tetrahydro-2-oxo-, hydrochloride (1:1), (3S)-", "1H-1-Benzazepine-1-acetic acid, 3-[[1-(ethoxycarbonyl)-3-phenylpropyl]amino]-2,3,4,5-tetrahydro-2-oxo-, monohydrochloride, [S-(R*,R*)]-", "1H-1-Benzazepine-1-acetic acid, 3-[[(1S)-1-(ethoxycarbonyl)-3-phenylpropyl]amino]-2,3,4,5-tetrahydro-2-oxo-, monohydrochloride, (3S)-", "Benazepril hydrochloride", "CGS 14824A", "Lotensin", "Lotension", "CGS 14824A HCl"], "SMILES": "C(C(O)=O)N1C=2C(CCC(NC(CCC3=CC=CC=C3)C(OCC)=O)C1=O)=CC=CC2.Cl", "physical_data": {"Molecular Weight": "", "Molecular Formula": "C24H28N2O5.ClH", "Melting Point": "188-190 \u00b0C"}}