{"cas_no": "86541-75-5", "cn_name": "\u8d1d\u90a3\u666e\u5229", "en_name": ["Benazepril", "1H-1-Benzazepine-1-acetic acid, 3-[[(1S)-1-(ethoxycarbonyl)-3-phenylpropyl]amino]-2,3,4,5-tetrahydro-2-oxo-, (3S)-", "1H-1-Benzazepine-1-acetic acid, 3-[[1-(ethoxycarbonyl)-3-phenylpropyl]amino]-2,3,4,5-tetrahydro-2-oxo-, [S-(R*,R*)]-", "(3S)-3-[[(1S)-1-(Ethoxycarbonyl)-3-phenylpropyl]amino]-2,3,4,5-tetrahydro-2-oxo-1H-1-benzazepine-1-acetic acid", "Benazepril", "Cibacen WS", "Benapril", "Cibacen", "Briem", "Cibacene"], "SMILES": "C(C(O)=O)N1C=2C(CCC(NC(CCC3=CC=CC=C3)C(OCC)=O)C1=O)=CC=CC2", "physical_data": {"Molecular Weight": "424.49", "Molecular Formula": "C24H28N2O5", "Melting Point": "148.5 \u00b0C"}}