{"cas_no": "865758-96-9", "cn_name": "2-[(6-\u6c2f-3,4-\u4e8c\u6c22-3-\u7532\u57fa-2,4-\u4e8c\u6c27\u4ee3-1(2H)-\u5627\u5576\u57fa)\u7532\u57fa]\u82ef\u7532\u8148", "en_name": ["2-[(6-Chloro-3,4-dihydro-3-methyl-2,4-dioxo-1(2H)-pyrimidinyl)methyl]benzonitrile", "Benzonitrile, 2-[(6-chloro-3,4-dihydro-3-methyl-2,4-dioxo-1(2H)-pyrimidinyl)methyl]-", "2-[(6-Chloro-3,4-dihydro-3-methyl-2,4-dioxo-1(2H)-pyrimidinyl)methyl]benzonitrile", "2-[(6-Chloro-3-methyl-2,4-dioxo-3,4-dihydropyrimidin-1(2H)-yl)methyl]benzonitrile", "2-[(6-Chloro-3-methyl-2,4-dioxopyrimidin-1-yl)methyl]benzonitrile"], "SMILES": "C(N1C(=O)N(C)C(=O)C=C1Cl)C2=C(C#N)C=CC=C2", "physical_data": {"Molecular Weight": "275.69", "Molecular Formula": "C13H10ClN3O2", "Melting Point": "168-170 \u00b0C"}}