{"cas_no": "86598-92-7", "cn_name": "\u4e9a\u80fa\u5511", "en_name": ["Imibenconazole", "1H-1,2,4-Triazole-1-ethanimidothioic acid, N-(2,4-dichlorophenyl)-, (4-chlorophenyl)methyl ester", "HF 8505", "HF 6305", "Imibenconazole", "Manage", "Manage (fungicide)"], "SMILES": "C(=NC1=C(Cl)C=C(Cl)C=C1)(CN2C=NC=N2)SCC3=CC=C(Cl)C=C3", "physical_data": {"Molecular Weight": "411.74", "Molecular Formula": "C17H13Cl3N4S", "Melting Point": "90 \u00b0C"}}