{"cas_no": "866-23-9", "cn_name": "\u4e09\u6c2f\u7532\u57fa\u81a6\u9178\u4e8c\u4e59\u916f", "en_name": ["Diethyl P-(trichloromethyl)phosphonate", "Phosphonic acid, P-(trichloromethyl)-, diethyl ester", "Phosphonic acid, (trichloromethyl)-, diethyl ester", "Diethyl P-(trichloromethyl)phosphonate", "Ro 3-0658", "Diethyl (trichloromethyl)phosphonate", "Diethyl trichloromethanephosphonate", "NSC 46567", "1-[Ethoxy(trichloromethyl)phosphoryl]oxyethane"], "SMILES": "P(C(Cl)(Cl)Cl)(OCC)(OCC)=O", "physical_data": {"Molecular Weight": "255.46", "Molecular Formula": "C5H10Cl3O3P", "Boiling Point": "122-123 \u00b0C @ Press: 12 Torr", "Density": "1.3664 g/cm\u00b3 @ Temp: 14 \u00b0C"}}