{"cas_no": "866-55-7", "cn_name": "\u4e8c\u4e59\u57fa\u4e8c\u6c2f\u5316\u9521", "en_name": ["Diethyltin dichloride", "Stannane, dichlorodiethyl-", "Tin, diethyl-, dichloride", "Dichlorodiethylstannane", "Diethyltin dichloride", "Diethyldichlorostannane", "Dichlorodiethyltin", "Diethyldichlorotin", "Diethylstannyl dichloride", "NSC 302600"], "SMILES": "[Sn](CC)(CC)(Cl)Cl", "physical_data": {"Molecular Weight": "247.74", "Molecular Formula": "C4H10Cl2Sn", "Boiling Point": "220 \u00b0C", "Melting Point": "82-84 \u00b0C"}}