{"cas_no": "86604-78-6", "cn_name": "\u5965\u7f8e\u62c9\u5511\u7f9f\u57fa\u7269", "en_name": ["4-Methoxy-3,5-dimethyl-2-pyridinemethanol", "2-Pyridinemethanol, 4-methoxy-3,5-dimethyl-", "4-Methoxy-3,5-dimethyl-2-pyridinemethanol", "2-Hydroxymethyl-4-methoxy-3,5-dimethylpyridine", "2-(Hydroxymethyl)-3,5-dimethyl-4-methoxypyridine", "(4-Methoxy-3,5-dimethylpyridin-2-yl)methanol", "4-Methoxy-3,5-dimethyl-2-(hydroxymethyl)pyridine"], "SMILES": "O(C)C=1C(C)=C(CO)N=CC1C", "physical_data": {"Molecular Weight": "167.21", "Molecular Formula": "C9H13NO2", "Boiling Point": "115-135 \u00b0C @ Press: 0.01 Torr"}}