{"cas_no": "86604-80-0", "cn_name": "4-\u7532\u6c27\u57fa-2,3,5-\u4e09\u7532\u57fa\u5421\u5576\u6c2e\u6c27\u5316\u7269", "en_name": ["Pyridine, 4-methoxy-2,3,5-trimethyl-, 1-oxide", "Pyridine, 4-methoxy-2,3,5-trimethyl-, 1-oxide", "4-Methoxy-2,3,5-trimethylpyridine 1-oxide", "4-Methoxy-2,3,5-trimethylpyridine N-oxide", "2,3,5-Trimethyl-4-methoxypyridine N-oxide"], "SMILES": "O(C)C=1C(C)=C(C)N(=O)=CC1C", "physical_data": {"Molecular Weight": "167.21", "Molecular Formula": "C9H13NO2", "Melting Point": "35 \u00b0C"}}