{"cas_no": "86604-75-3", "cn_name": "2-\u6c2f\u7532\u57fa-3,5-\u4e8c\u7532\u57fa-4-\u7532\u6c27\u57fa\u5421\u5576\u76d0\u9178\u76d0", "en_name": ["2-(Chloromethyl)-4-methoxy-3,5-dimethylpyridine hydrochloride", "Pyridine, 2-(chloromethyl)-4-methoxy-3,5-dimethyl-, hydrochloride (1:1)", "Pyridine, 2-(chloromethyl)-4-methoxy-3,5-dimethyl-, hydrochloride", "2-(Chloromethyl)-4-methoxy-3,5-dimethylpyridine hydrochloride", "2-(Chloromethyl)-3,5-dimethyl-4-methoxypyridine hydrochloride", "CC-993", "3,5-Dimethyl-2-chloromethyl-4-methoxypyridine hydrochloride", "2-(Chloromethyl)-4-methoxy-3,5-dimethyl-1-pyridinium chloride", "3,5-Dimethyl-4-methoxy-2-chloromethyl pyridine hydrochloride"], "SMILES": "O(C)C=1C(C)=C(CCl)N=CC1C.Cl", "physical_data": {"Molecular Weight": "", "Molecular Formula": "C9H12ClNO.ClH", "Melting Point": "127-128 \u00b0C"}}