{"cas_no": "86604-79-7", "cn_name": "4-\u785d\u57fa-2,3,5-\u4e09\u7532\u57fa\u5421\u5576-N-\u6c27\u5316\u7269", "en_name": ["Pyridine, 2,3,5-trimethyl-4-nitro-, 1-oxide", "Pyridine, 2,3,5-trimethyl-4-nitro-, 1-oxide", "2,3,5-Trimethyl-4-nitropyridine 1-oxide", "2,3,5-Trimethyl-4-nitropyridine N-oxide", "4-Nitro-2,3,5-trimethylpyridine N-oxide", "2,3,5-Trimethyl-4-nitro-1-oxidopyridin-1-ium"], "SMILES": "N(=O)(=O)C=1C(C)=C(C)N(=O)=CC1C", "physical_data": {"Molecular Weight": "182.18", "Molecular Formula": "C8H10N2O3", "Melting Point": "73-74 \u00b0C"}}