{"cas_no": "866323-14-0", "cn_name": "\u8d1d\u5229\u53f8\u4ed6", "en_name": ["Belinostat", "2-Propenamide, N-hydroxy-3-[3-[(phenylamino)sulfonyl]phenyl]-, (2E)-", "(2E)-N-Hydroxy-3-[3-[(phenylamino)sulfonyl]phenyl]-2-propenamide", "Belinostat", "PXD 101", "Beleodaq", "PX 105684", "(2E)-N-Hydroxy-3-[3-(phenylsulfamoyl)phenyl]prop-2-enamide"], "SMILES": "S(NC1=CC=CC=C1)(=O)(=O)C2=CC(C=CC(NO)=O)=CC=C2", "physical_data": {"Molecular Weight": "318.35", "Molecular Formula": "C15H14N2O4S", "Melting Point": "172 \u00b0C"}}