{"cas_no": "86639-52-3", "cn_name": "7-\u4e59\u57fa-10-\u7f9f\u57fa\u559c\u6811\u78b1", "en_name": ["7-Ethyl-10-hydroxycamptothecin", "1H-Pyrano[3\u2032,4\u2032:6,7]indolizino[1,2-b]quinoline-3,14(4H,12H)-dione, 4,11-diethyl-4,9-dihydroxy-, (4S)-", "1H-Pyrano[3\u2032,4\u2032:6,7]indolizino[1,2-b]quinoline-3,14(4H,12H)-dione, 4,11-diethyl-4,9-dihydroxy-, (S)-", "(4S)-4,11-Diethyl-4,9-dihydroxy-1H-pyrano[3\u2032,4\u2032:6,7]indolizino[1,2-b]quinoline-3,14(4H,12H)-dione", "7-Ethyl-10-hydroxycamptothecin", "SN 38 (pharmaceutical)", "SN 38", "10-Hydroxy-7-ethylcamptothecin", "7-Ethyl-10-hydroxy-20(S)-camptothecin", "SN 38 lactone", "(S)-SN 38", "(19S)-10,19-Diethyl-7,19-dihydroxy-17-oxa-3,13-diazapentacyclo[11.8.0.0[2,11].0[4,9].0[15,20]]henicosa-1(21),2(11),3,5,7,9,15(20)-heptaene-14,18-dione"], "SMILES": "C(C)C1=C2C(C=3N(C2)C(=O)C4=C(C3)C(CC)(O)C(=O)OC4)=NC=5C1=CC(O)=CC5", "physical_data": {"Molecular Weight": "392.40", "Molecular Formula": "C22H20N2O5", "Melting Point": "226.7-228.1 \u00b0C"}}