{"cas_no": "866460-33-5", "cn_name": "\u53f8\u66ff\u5339\u4ed1", "en_name": ["Setipiprant", "5H-Pyrido[4,3-b]indole-5-acetic acid, 8-fluoro-1,2,3,4-tetrahydro-2-(1-naphthalenylcarbonyl)-", "8-Fluoro-1,2,3,4-tetrahydro-2-(1-naphthalenylcarbonyl)-5H-pyrido[4,3-b]indole-5-acetic acid", "Setipiprant", "ACT 129968", "2-(2-(1-Naphthoyl)-8-fluoro-1,2,3,4-tetrahydropyrido[4,3-b]indol-5-yl)acetic acid"], "SMILES": "C(C(O)=O)N1C2=C(C=3C1=CC=C(F)C3)CN(C(=O)C=4C5=C(C=CC4)C=CC=C5)CC2", "physical_data": {"Molecular Weight": "402.42", "Molecular Formula": "C24H19FN2O3", "Melting Point": "224 \u00b0C"}}