{"cas_no": "866607-35-4", "cn_name": "\u5361\u683c\u5217\u51c0\u4e2d\u95f4\u4f532", "en_name": ["(1S)-1,5-Anhydro-1-C-[3-[[5-(4-fluorophenyl)-2-thienyl]methyl]-4-methylphenyl]-D-glucitol 2,3,4,6-tetraacetate", "D-Glucitol, 1,5-anhydro-1-C-[3-[[5-(4-fluorophenyl)-2-thienyl]methyl]-4-methylphenyl]-, 2,3,4,6-tetraacetate, (1S)-", "D-Glucitol, 1,5-anhydro-1-C-[3-[[5-(4-fluorophenyl)-2-thienyl]methyl]-4-methylphenyl]-, tetraacetate, (1S)-", "(1S)-1,5-Anhydro-1-C-[3-[[5-(4-fluorophenyl)-2-thienyl]methyl]-4-methylphenyl]-D-glucitol 2,3,4,6-tetraacetate"], "SMILES": "O(C(C)=O)C1C(OC(COC(C)=O)C(OC(C)=O)C1OC(C)=O)C2=CC(CC=3SC(=CC3)C4=CC=C(F)C=C4)=C(C)C=C2", "physical_data": {"Molecular Weight": "612.66", "Molecular Formula": "C32H33FO9S", "Melting Point": "160-170 \u00b0C"}}