{"cas_no": "86672-58-4", "cn_name": "6-\u7532\u57fa-2-[(4-\u7532\u57fa\u82ef\u57fa)\u6c28\u57fa]-4H-3,1-\u82ef\u5e76\u55ea-4-\u916e", "en_name": ["URB 754", "4H-3,1-Benzoxazin-4-one, 6-methyl-2-[(4-methylphenyl)amino]-", "6-Methyl-2-[(4-methylphenyl)amino]-4H-3,1-benzoxazin-4-one", "URB 754"], "SMILES": "O=C1C=2C(N=C(NC3=CC=C(C)C=C3)O1)=CC=C(C)C2", "physical_data": {"Molecular Weight": "266.29", "Molecular Formula": "C16H14N2O2", "Melting Point": "230-233 \u00b0C"}}