{"cas_no": "866823-73-6", "cn_name": "3'-[[(2-\u73af\u620a\u57fa-6,7-\u4e8c\u7532\u57fa-1-\u6c27\u4ee3-2,3-\u4e8c\u6c22-1H-\u831a-5-\u57fa)\u6c27\u57fa]\u7532\u57fa]\u8054\u82ef-4-\u7fa7\u9178", "en_name": ["Biphenyl indanone A", "[1,1\u2032-Biphenyl]-4-carboxylic acid, 3\u2032-[[(2-cyclopentyl-2,3-dihydro-6,7-dimethyl-1-oxo-1H-inden-5-yl)oxy]methyl]-", "3\u2032-[[(2-Cyclopentyl-2,3-dihydro-6,7-dimethyl-1-oxo-1H-inden-5-yl)oxy]methyl][1,1\u2032-biphenyl]-4-carboxylic acid", "3\u2032-[[(2-Cyclopentyl-6,7-dimethyl-1-oxo-2,3-dihydro-1H-inden-5-yl)oxy]methyl]biphenyl-4-carboxylic acid", "MRLSD 230", "Biphenyl indanone A", "3\u2032-(((2-Cyclopentyl-6,7-dimethyl-1-oxo-2,3-dihydro-1H-inden-5-yl)oxy)methyl)-[1,1\u2032-biphenyl]-4-carboxylic acid"], "SMILES": "O=C1C=2C(CC1C3CCCC3)=CC(OCC4=CC(=CC=C4)C5=CC=C(C(O)=O)C=C5)=C(C)C2C", "physical_data": {"Molecular Weight": "454.56", "Molecular Formula": "C30H30O4", "Melting Point": "238-241 \u00b0C"}}