{"cas_no": "867-13-0", "cn_name": "\u78f7\u9170\u57fa\u4e59\u9178\u4e09\u4e59\u916f", "en_name": ["Triethyl phosphonoacetate", "Acetic acid, 2-(diethoxyphosphinyl)-, ethyl ester", "Acetic acid, phosphono-, triethyl ester", "Acetic acid, (diethoxyphosphinyl)-, ethyl ester", "Phosphonoacetic acid triethyl ester", "Diethyl carbethoxymethylphosphonate", "Diethyl ethoxycarbonylmethanephosphonate", "Ethyl diethoxyphosphoryl acetate", "Ethyl (diethoxyphosphinyl)acetate", "Ethyl (diethylphosphono)acetate", "Triethyl phosphonoacetate", "(Ethoxycarbonylmethyl)diethoxyphosphine oxide", "Diethyl phosphonoacetic acid ethyl ester", "Carbethoxymethyldiethyl phosphonate", "Ethyl \u03b1-diethylphosphonoacetate", "Triethyl phosphonacetate", "(Diethoxyphosphinyl)acetic acid ethyl ester", "JC 224", "2-Phosphonoacetic acid triethyl ester", "NSC 13898", "NSC 16128", "Ethyl 2-(diethoxyphosphinyl)acetate", "(Diethoxyphosphoryl)acetic acid ethyl ester", "Ethyl 2-(diethylphosphono)acetate", "Triethyl 2-phosphonoacetate", "Ethyl 2-(diethoxyphosphoryl)acetate", "Ethyl 2-(diethoxylphosphoryl)acetate", "Diethyl 2-ethoxy-2-oxoethylphosphonate", "2-(Diethoxyphosphinyl)acetic acid ethyl ester"], "SMILES": "P(CC(OCC)=O)(OCC)(OCC)=O", "physical_data": {"Molecular Weight": "224.19", "Molecular Formula": "C8H17O5P", "Boiling Point": "140-141 \u00b0C @ Press: 9-10 Torr", "Melting Point": "92-93 \u00b0C", "Density": "1.0917 g/cm\u00b3 @ Temp: 20 \u00b0C"}}