{"cas_no": "867-81-2", "cn_name": "D-\u6cdb\u9178\u94a0", "en_name": ["Sodium pantothenate", "\u03b2-Alanine, N-[(2R)-2,4-dihydroxy-3,3-dimethyl-1-oxobutyl]-, sodium salt (1:1)", "Pantothenic acid, monosodium salt, D-", "\u03b2-Alanine, N-(2,4-dihydroxy-3,3-dimethyl-1-oxobutyl)-, monosodium salt, (R)-", "\u03b2-Alanine, N-[(2R)-2,4-dihydroxy-3,3-dimethyl-1-oxobutyl]-, monosodium salt", "Sodium pantothenate", "Sodium pantothenic acid", "Sodium D-pantothenate", "Pantothenic acid sodium salt"], "SMILES": "C(C(CO)(C)C)(C(NCCC(O)=O)=O)O.[Na]", "physical_data": {"Molecular Weight": "", "Molecular Formula": "C9H17NO5.Na", "Melting Point": "171-178 \u00b0C"}}