{"cas_no": "867-36-7", "cn_name": "\u4e8c\u6b63\u4e19\u57fa\u4e8c\u6c2f\u9521", "en_name": ["Dipropyltin dichloride", "Stannane, dichlorodipropyl-", "Dipropyltin dichloride", "Tin, dichlorodipropyl-", "Dichlorodipropylstannane", "Dipropyltin chloride", "Dichlorodipropyltin", "Di-n-propyltin dichloride", "Dipropyldichlorotin", "NSC 92618"], "SMILES": "[Sn](CCC)(CCC)(Cl)Cl", "physical_data": {"Molecular Weight": "275.79", "Molecular Formula": "C6H14Cl2Sn", "Boiling Point": "161 \u00b0C @ Press: 25 Torr", "Melting Point": "80-81 \u00b0C"}}