{"cas_no": "867-27-6", "cn_name": "\u7532\u57fa\u5185\u5438\u78f7", "en_name": ["Demeton-O-methyl", "Phosphorothioic acid, O-[2-(ethylthio)ethyl] O,O-dimethyl ester", "Phosphorothioic acid, O-[2-(ethylthio)ethyl] O,O-di-Me ester", "O,O-Dimethyl O-2-(ethylthio)ethyl phosphorothioate", "O-[2-(Ethylthio)ethyl] O,O-dimethyl phosphorothioate", "O-[2-(Ethylthio)ethyl] O,O-dimethyl thiophosphate", "Demeton-O-methyl", "Methyl-O-demeton", "O,O-Dimethyl O-[2-(ethylthio)ethyl] thiophosphate", "2-Ethylsulfanylethoxy-dimethoxy-sulfanylidene-\u03bb5-phosphane"], "SMILES": "P(OCCSCC)(OC)(OC)=S", "physical_data": {"Molecular Weight": "230.29", "Molecular Formula": "C6H15O3PS2", "Boiling Point": "93 \u00b0C @ Press: 0.5 Torr", "Melting Point": "&lt;25 \u00b0C", "Density": "1.2 g/cm\u00b3"}}