{"cas_no": "867-44-7", "cn_name": "S-\u7532\u57fa\u5f02\u786b\u8132\u786b\u9178\u76d0", "en_name": ["S-Methylisothiourea hemisulfate", "Carbamimidothioic acid, methyl ester, sulfate (2:1)", "Pseudourea, 2-methyl-2-thio-, sulfate (2:1)", "S-Methylthiouronium sulfate (2:1)", "S-Methylisothiourea sulfate (2:1)", "2-Methyl-2-thiopseudourea sulfate (2:1)", "S-Methylisothiourea hemisulfate", "Methylthioformamidine sulfate (2:1)", "Methylisothiourea sulfate (2:1)", "S-Methylthiopseudourea sulfate", "S-Methylisothiouronium hemisulfate", "S-Methylisothiourea semisulfate", "S-Methylisothiourea hemisulfuric acid salt", "Bis(S-methylisothiouronium) sulfate", "S-Methylisothioura hemisulfate", "2-Methylisothiourea hemisulfate", "Bis((methylsulfanyl)methanimidamide) sulfuric acid", "2-Methyl-2-thiopseudourea hemisulfate"], "SMILES": "C(SC)(=N)N.S(=O)(=O)(O)O", "physical_data": {"Molecular Weight": "", "Molecular Formula": "C2H6N2S.<sup>1</sup>/2H2O4S", "Melting Point": "239 \u00b0C"}}