{"cas_no": "867130-58-3", "cn_name": "6-\u916e-1,6-\u4e8c\u6c22\u54d2\u55ea-4-\u7fa7\u9178", "en_name": ["1,6-Dihydro-6-oxo-4-pyridazinecarboxylic acid", "4-Pyridazinecarboxylic acid, 1,6-dihydro-6-oxo-", "1,6-Dihydro-6-oxo-4-pyridazinecarboxylic acid", "6-Oxo-1,6-dihydropyridazine-4-carboxylic acid", "3-Oxopyridazine-5-carboxylic acid"], "SMILES": "C(O)(=O)C1=CC(=O)NN=C1", "physical_data": {"Molecular Weight": "140.10", "Molecular Formula": "C5H4N2O3", "Melting Point": "303 \u00b0C"}}