{"cas_no": "867131-59-7", "cn_name": "2-\u7532\u57fa-4-\u7532\u5def\u57fa-6-\u6c2f\u5627\u5576", "en_name": ["4-Chloro-2-methyl-6-(methylthio)pyrimidine", "Pyrimidine, 4-chloro-2-methyl-6-(methylthio)-", "4-Chloro-2-methyl-6-(methylthio)pyrimidine"], "SMILES": "S(C)C=1C=C(Cl)N=C(C)N1", "physical_data": {"Molecular Weight": "174.65", "Molecular Formula": "C6H7ClN2S", "Boiling Point": "126-128 \u00b0C @ Press: 19 Torr"}}