{"cas_no": "86728-85-0", "cn_name": "S(-)-4-\u6c2f-3-\u7f9f\u57fa\u4e01\u9178\u4e59\u916f", "en_name": ["Butanoic acid, 4-chloro-3-hydroxy-, ethyl ester, (3S)-", "Butanoic acid, 4-chloro-3-hydroxy-, ethyl ester, (3S)-", "Butanoic acid, 4-chloro-3-hydroxy-, ethyl ester, (S)-", "Ethyl (3S)-4-chloro-3-hydroxybutanoate", "Ethyl (S)-\u03b3-chloro-\u03b2-hydroxybutyrate", "Ethyl (3S)-4-chloro-3-hydroxybutyrate", "Ethyl (S)-4-chloro-3-hydroxybutyrate", "(3S)-4-Chloro-3-hydroxybutyric acid ethyl ester", "Ethyl (S)-4-chloro-3-hydroxybutanoate", "(S)-4-Chloro-3-hydroxybutanoic acid ethyl ester", "Ethyl (S)-(+)-4-chloro-3-hydroxybutanoate", "(-)-Ethyl 4-chloro-3-hydroxybutyrate", "(-)-Ethyl (s)-4-chloro-3-hydroxybutyrate"], "SMILES": "C(C(OCC)=O)C(CCl)O", "physical_data": {"Molecular Weight": "166.60", "Molecular Formula": "C6H11ClO3", "Boiling Point": "95 \u00b0C @ Press: 3 Torr", "Density": "1.0297 g/cm\u00b3 @ Temp: 25.00 \u00b0C"}}