{"cas_no": "86763-47-5", "cn_name": "\u5f02\u4e19\u8349\u80fa", "en_name": ["Propisochlor", "Acetamide, 2-chloro-N-(2-ethyl-6-methylphenyl)-N-[(1-methylethoxy)methyl]-", "2-Chloro-N-(2-ethyl-6-methylphenyl)-N-[(1-methylethoxy)methyl]acetamide", "Propisochlor", "Proponit", "Propizochlor", "Proponit 720EC", "Proponit 720SC", "(\u00b1)-Propisochlor", "2-Chloro-N-(2-ethyl-6-methylphenyl)-N-(isopropoxymethyl)acetamide"], "SMILES": "N(COC(C)C)(C(CCl)=O)C1=C(CC)C=CC=C1C", "physical_data": {"Molecular Weight": "283.79", "Molecular Formula": "C15H22ClNO2", "Boiling Point": "&gt;243 \u00b0C", "Melting Point": "21.6 \u00b0C"}}