{"cas_no": "86776-50-3", "cn_name": "4-\u4e59\u57fa\u82ef\u7532\u9178-3-\u6c1f-4-\u6c30\u57fa\u82ef\u916f", "en_name": ["4-Cyano-3-fluorophenyl 4-ethylbenzoate", "Benzoic acid, 4-ethyl-, 4-cyano-3-fluorophenyl ester", "4-Cyano-3-fluorophenyl 4-ethylbenzoate", "3-Fluoro-4-cyanophenyl 4-ethylbenzoate", "4-Cyano-1-(4-ethylbenzoyloxy)-3-fluorobenzene", "ME 2N.F", "2-BEB(F)-C", "PZG-2-N"], "SMILES": "C(OC1=CC(F)=C(C#N)C=C1)(=O)C2=CC=C(CC)C=C2", "physical_data": {"Molecular Weight": "269.27", "Molecular Formula": "C16H12FNO2", "Boiling Point": "29.5 \u00b0C"}}