{"cas_no": "86783-82-6", "cn_name": "2-\u8131\u6c27-2-\u6c1f-D-\u8461\u8404\u7cd6,\u5f02\u5934\u7269\u6df7\u5408\u7269", "en_name": ["2-Fluoro-2-deoxy-D-glucose", "D-Glucose, 2-deoxy-2-fluoro-", "2-Deoxy-2-fluoro-D-glucose", "2-Fluoro-2-deoxy-D-glucose", "2-Fluorodeoxyglucose", "2-Deoxy-2-fluoroglucose", "Fluorodeoxyglucose", "FDG", "2-Deoxy-2-fluoro-D-glucopyranose", "2-Fluoro-2-deoxy-d-glucopyranose"], "SMILES": "C(C(C(CO)O)O)(C(C=O)F)O", "physical_data": {"Molecular Weight": "182.15", "Molecular Formula": "C6H11FO5", "Melting Point": "170-176 \u00b0C"}}