{"cas_no": "86780-90-7", "cn_name": "\u963f\u96f7\u5730\u5e73", "en_name": ["Aranidipine", "3,5-Pyridinedicarboxylic acid, 1,4-dihydro-2,6-dimethyl-4-(2-nitrophenyl)-, 3-methyl 5-(2-oxopropyl) ester", "3,5-Pyridinedicarboxylic acid, 1,4-dihydro-2,6-dimethyl-4-(2-nitrophenyl)-, methyl 2-oxopropyl ester", "MPC 1304", "(\u00b1)-Acetonyl methyl 1,4-dihydro-2,6-dimethyl-4-(o-nitrophenyl)-3,5-pyridinedicarboxylate", "Aranidipine", "Sapresta", "3-Methyl 5-(2-oxopropyl) 2,6-dimethyl-4-(2-nitrophenyl)-1,4-dihydropyridine-3,5-dicarboxylate"], "SMILES": "C(OCC(C)=O)(=O)C=1C(C(C(OC)=O)=C(C)NC1C)C2=C(N(=O)=O)C=CC=C2", "physical_data": {"Molecular Weight": "388.37", "Molecular Formula": "C19H20N2O7", "Melting Point": "150-151 \u00b0C"}}