{"cas_no": "868-54-2", "cn_name": "2-\u6c28\u57fa-1-\u4e19\u70ef\u57fa-1,1,3-\u4e09\u7532\u8148", "en_name": ["2-Amino-1-propene-1,1,3-tricarbonitrile", "1-Propene-1,1,3-tricarbonitrile, 2-amino-", "2-Amino-1-propene-1,1,3-tricarbonitrile", "U 9189", "2-Amino-1,1,3-tricyanopropene", "2-Amino-1,1,3-tricyano-1-propene", "TCAP", "TRIAP", "1,1,3-Tricyano-2-aminopropene", "1,1,3-Tricyano-2-amino-1-propene", "Upjohn 9189", "Malononitrile, dimer", "(1-Amino-2-cyanoethylidene)malononitrile", "NSC 77901", "2-Amino-1,1,3-propenetricarbonitrile"], "SMILES": "C(=C(CC#N)N)(C#N)C#N", "physical_data": {"Molecular Weight": "132.12", "Molecular Formula": "C6H4N4", "Melting Point": "170-173 \u00b0C"}}