{"cas_no": "868-57-5", "cn_name": "2-\u7532\u57fa\u4e01\u9178\u7532\u916f", "en_name": ["(\u00b1)-Methyl 2-methylbutanoate", "Butanoic acid, 2-methyl-, methyl ester", "Butyric acid, 2-methyl-, methyl ester", "Butyric acid, \u03b1-methyl-, methyl ester", "Methyl 2-methylbutyrate", "Methyl \u03b1-methylbutyrate", "2-Methylbutanoic acid methyl ester", "Methyl 2-methylbutanoate", "Methyl \u03b1-methylbutanoate", "\u03b1-Methylbutyric acid methyl ester", "Methyl anteisovalerate", "Methyl dl-\u03b1-methylbutyrate", "(\u00b1)-Methyl \u03b1-methylbutyrate", "(\u00b1)-Methyl 2-methylbutanoate", "Methyl (\u00b1)-2-methylbutanoate", "2-Methylbutyric acid methyl ester"], "SMILES": "C(C(OC)=O)(CC)C", "physical_data": {"Molecular Weight": "116.16", "Molecular Formula": "C6H12O2", "Boiling Point": "112-115 \u00b0C", "Density": "0.8757 g/cm\u00b3 @ Temp: 25 \u00b0C"}}