{"cas_no": "868-63-3", "cn_name": "\u4e8c\u7f9f\u57fa\u4e59\u70ef", "en_name": ["N,N\u2032-(1,2-Dihydroxy-1,2-ethanediyl)bis[2-propenamide]", "2-Propenamide, N,N\u2032-(1,2-dihydroxy-1,2-ethanediyl)bis-", "Acrylamide, N,N\u2032-(1,2-dihydroxyethylene)bis-", "N,N\u2032-(1,2-Dihydroxy-1,2-ethanediyl)bis[2-propenamide]", "DHEBA", "1,2-Dihydroxyethylene-1,2-bisacrylamide", "1,2-Diacrylamido-1,2-dihydroxylethane", "D 2864", "N,N\u2032-Diacryloyl-1,2-dihydroxyethylenediamine"], "SMILES": "C(C(NC(C=C)=O)O)(NC(C=C)=O)O", "physical_data": {"Molecular Weight": "200.19", "Molecular Formula": "C8H12N2O4", "Melting Point": "158 \u00b0C"}}