{"cas_no": "868-83-7", "cn_name": "\u6c2f\u4e59\u9170\u80bc", "en_name": ["Acetic acid, 2-chloro-, hydrazide, hydrochloride (1:1)", "Acetic acid, 2-chloro-, hydrazide, hydrochloride (1:1)", "Acetic acid, chloro-, hydrazide, monohydrochloride", "Acetic acid, chloro-, hydrazide, hydrochloride", "Chloroacetylhydrazine hydrochloride", "2-Chloroacetohydrazide hydrochloride"], "SMILES": "C(CCl)(NN)=O.Cl", "physical_data": {"Molecular Weight": "", "Molecular Formula": "C2H5ClN2O.ClH", "Melting Point": "150 \u00b0C (decomp)"}}