{"cas_no": "868-84-8", "cn_name": "\u8352\u9178\u4e8c\u7532\u916f", "en_name": ["S,S-Dimethyl dithiocarbonate", "Carbonodithioic acid, S,S-dimethyl ester", "Carbonic acid, dithio-, S,S-dimethyl ester", "S,S-Dimethyl dithiocarbonate", "S,S\u2032-Dimethyldithiocarbonate", "NSC 227849", "Dithiocarbonic acid S,S\u2032-dimethyl ester"], "SMILES": "C(SC)(SC)=O", "physical_data": {"Molecular Weight": "122.21", "Molecular Formula": "C3H6OS2", "Boiling Point": "67-69 \u00b0C @ Press: 20 Torr", "Melting Point": "133-135 \u00b0C", "Density": "1.1838 g/cm\u00b3 @ Temp: 25 \u00b0C"}}