{"cas_no": "868-77-9", "cn_name": "\u7532\u57fa\u4e19\u70ef\u9178\u7f9f\u4e59\u916f", "en_name": ["2-Hydroxyethyl methacrylate", "2-Propenoic acid, 2-methyl-, 2-hydroxyethyl ester", "Methacrylic acid, 2-hydroxyethyl ester", "Methacrylic acid, ester with glycol", "Glycol methacrylate", "Glycol monomethacrylate", "Monomer MG 1", "\u03b2-Hydroxyethyl methacrylate", "2-Hydroxyethyl methacrylate", "Ethylene glycol monomethacrylate", "2-(Methacryloyloxy)ethanol", "Ethylene glycol methacrylate", "Acryester HO", "Rocryl 400", "Light Ester HO", "Bisomer SR", "Mhoromer BM 903", "NSC 24180", "Blemmer E", "Acryester HISS", "Mhoromer BM 905", "GE 610", "HEMA", "Light Ester HO 250", "Bisomer HEMA", "HEMA 90", "EB 109 (monomer)", "EB 109", "2-HEMA", "Kayarad 2-HEMA", "Acryester HOMA", "Light Ester HO 250M", "EM 321", "2-Hydroxyethyl 2-methylprop-2-enoate", "Acryl Ester HO", "Light Ester HO 250N", "Visiomer HEMA 98", "M 0085", "JB 4 Plus", "Visiomer HEMA 97", "H 140643", "Light Ester HOM", "A 69527", "HO 250N"], "SMILES": "C(C(C)=C)(OCCO)=O", "physical_data": {"Molecular Weight": "130.14", "Molecular Formula": "C6H10O3", "Boiling Point": "89-92 \u00b0C @ Press: 7 Torr", "Melting Point": "83-85 \u00b0C", "Density": "1.034 g/cm\u00b3 @ Temp: 25 \u00b0C"}}