{"cas_no": "868-26-8", "cn_name": "\u6eb4\u4e19\u4e8c\u9178\u4e8c\u7532\u916f", "en_name": ["1,3-Dimethyl 2-bromopropanedioate", "Propanedioic acid, 2-bromo-, 1,3-dimethyl ester", "Malonic acid, bromo-, dimethyl ester", "Propanedioic acid, bromo-, dimethyl ester", "1,3-Dimethyl 2-bromopropanedioate", "Dimethyl bromomalonate", "Dimethyl \u03b1-bromomalonate", "Dimethyl 2-bromopropanedioate", "NSC 175888", "Dimethyl 2-bromomalonate"], "SMILES": "C(C(OC)=O)(C(OC)=O)Br", "physical_data": {"Molecular Weight": "211.01", "Molecular Formula": "C5H7BrO4", "Boiling Point": "103-104 \u00b0C @ Press: 19 Torr", "Density": "1.6094 g/cm\u00b3 @ Temp: 20 \u00b0C"}}