{"cas_no": "868-28-0", "cn_name": "H-ILE-GLY-OH", "en_name": ["L-Isoleucylglycine", "Glycine, L-isoleucyl-", "Glycine, N-L-isoleucyl-", "L-Isoleucylglycine", "453: PN: WO2005081628 SEQID: 455 claimed protein", "45: PN: EP2161028 PAGE: 10 claimed protein", "9: PN: EP2878667 TABLE: 5 claimed sequence"], "SMILES": "C(C(NCC(O)=O)=O)(C(CC)C)N", "physical_data": {"Molecular Weight": "188.22", "Molecular Formula": "C8H16N2O3", "Melting Point": "220 \u00b0C"}}