{"cas_no": "868-85-9", "cn_name": "\u4e9a\u78f7\u9178\u4e8c\u7532\u916f", "en_name": ["Phosphonic acid, dimethyl ester", "Phosphonic acid, dimethyl ester", "Methyl phosphonate ((MeO)2HPO)", "Dimethyl hydrogen phosphite", "Dimethyl phosphonate", "Dimethoxyphosphine oxide", "Hydrogen dimethyl phosphite", "Dimethyl acid phosphite", "Dimethyl hydrogen phosphonate"], "SMILES": "P(OC)(OC)=O", "physical_data": {"Molecular Weight": "110.05", "Molecular Formula": "C2H7O3P", "Boiling Point": "72-73 \u00b0C @ Press: 25 Torr", "Melting Point": "144-146 \u00b0C", "Density": "1.200 g/cm\u00b3 @ Temp: 20 \u00b0C"}}