{"cas_no": "86811-58-7", "cn_name": "\u5421\u866b\u9686", "en_name": ["Fluazuron", "Benzamide, N-[[[4-chloro-3-[[3-chloro-5-(trifluoromethyl)-2-pyridinyl]oxy]phenyl]amino]carbonyl]-2,6-difluoro-", "N-[[[4-Chloro-3-[[3-chloro-5-(trifluoromethyl)-2-pyridinyl]oxy]phenyl]amino]carbonyl]-2,6-difluorobenzamide", "Fluazuron", "CGA 157419", "Acatak"], "SMILES": "O(C1=CC(NC(NC(=O)C2=C(F)C=CC=C2F)=O)=CC=C1Cl)C3=C(Cl)C=C(C(F)(F)F)C=N3", "physical_data": {"Molecular Weight": "506.21", "Molecular Formula": "C20H10Cl2F5N3O3", "Melting Point": "219 \u00b0C (decomp)"}}