{"cas_no": "868273-06-7", "cn_name": "ORG275695-\u6c2f-3-\u4e59\u57fa-N-[2-[4-(1-\u54cc\u5576\u57fa)\u82ef\u57fa]\u4e59\u57fa-1H-\u5432\u54da-2-\u7532\u9170\u80fa", "en_name": ["5-Chloro-3-ethyl-N-[2-[4-(1-piperidinyl)phenyl]ethyl]-1H-indole-2-carboxamide", "1H-Indole-2-carboxamide, 5-chloro-3-ethyl-N-[2-[4-(1-piperidinyl)phenyl]ethyl]-", "5-Chloro-3-ethyl-N-[2-[4-(1-piperidinyl)phenyl]ethyl]-1H-indole-2-carboxamide", "Org 27569"], "SMILES": "C(C)C=1C=2C(NC1C(NCCC3=CC=C(C=C3)N4CCCCC4)=O)=CC=C(Cl)C2", "physical_data": {"Molecular Weight": "409.95", "Molecular Formula": "C24H28ClN3O", "Melting Point": "178-180 \u00b0C"}}