{"cas_no": "86831-54-1", "cn_name": "\u7ea2\u666f\u5929\u7d20", "en_name": ["Rhodiosin", "4H-1-Benzopyran-4-one, 7-[(6-deoxy-3-O-\u03b2-D-glucopyranosyl-\u03b1-L-mannopyranosyl)oxy]-3,5,8-trihydroxy-2-(4-hydroxyphenyl)-", "7-[(6-Deoxy-3-O-\u03b2-D-glucopyranosyl-\u03b1-L-mannopyranosyl)oxy]-3,5,8-trihydroxy-2-(4-hydroxyphenyl)-4H-1-benzopyran-4-one", "Rhodiosin", "Herbacetin-7-O-\u03b2-D-glucopyranosyl(1\u21923)-\u03b1-L-rhamnopyranoside", "Herbacetin-7-O-(3\u2032\u2032-O-\u03b2-D-glucopyranoside)-\u03b1-L-rhamnopyranoside"], "SMILES": "OC1=C2C(C(=O)C(O)=C(O2)C3=CC=C(O)C=C3)=C(O)C=C1OC4C(O)C(OC5OC(CO)C(O)C(O)C5O)C(O)C(C)O4", "physical_data": {"Molecular Weight": "610.52", "Molecular Formula": "C27H30O16", "Melting Point": "195-199 \u00b0C"}}