{"cas_no": "86847-79-2", "cn_name": "2-\u7279\u620a\u9170\u6c28\u57fa-6-\u7532\u57fa\u5421\u5576", "en_name": ["2,2-Dimethyl-N-(6-methyl-2-pyridinyl)propanamide", "Propanamide, 2,2-dimethyl-N-(6-methyl-2-pyridinyl)-", "2,2-Dimethyl-N-(6-methyl-2-pyridinyl)propanamide", "2-Methyl-6-pivaloylaminopyridine", "2-N-Pivaloylamino-6-methylpyridine", "2-Methyl-6-(pivaloylamindo)pyridine", "N-(6-Methylpyridin-2-yl)-2,2-dimethylpropionamide", "6-Pivaloylamino-2-picoline"], "SMILES": "N(C(C(C)(C)C)=O)C=1N=C(C)C=CC1", "physical_data": {"Molecular Weight": "192.26", "Molecular Formula": "C11H16N2O", "Melting Point": "66-68 \u00b0C"}}