{"cas_no": "869-29-4", "cn_name": "\u70ef\u4e19\u4e9a\u57fa\u4e8c\u4e59\u9178\u916f", "en_name": ["2-Propene-1,1-diol, 1,1-diacetate", "2-Propene-1,1-diol, 1,1-diacetate", "2-Propene-1,1-diol, diacetate", "SD 345", "Allylidene acetate", "Allylidene diacetate", "SD 345 (ester)", "Acrolein diacetate", "DAP", "DAP (pesticide)", "3,3-Diacetoxy-1-propene", "3,3-Diacetoxypropene", "2-Propenal, monohydrate, diacetate", "NSC 45020", "NSC 7632", "1,1-Diacetoxy-2-propene", "1-(Acetyloxy)prop-2-en-1-yl acetate"], "SMILES": "C(OC(C)=O)(OC(C)=O)C=C", "physical_data": {"Molecular Weight": "158.15", "Molecular Formula": "C7H10O4", "Boiling Point": "180 \u00b0C", "Melting Point": "-37.6 \u00b0C", "Density": "1.076 g/cm\u00b3 @ Temp: 17 \u00b0C"}}