{"cas_no": "869-24-9", "cn_name": "2-\u4e8c\u4e59\u6c28\u57fa\u6c2f\u4e59\u70f7\u76d0\u9178\u76d0", "en_name": ["2-(Diethylamino)ethyl chloride hydrochloride", "Ethanamine, 2-chloro-N,N-diethyl-, hydrochloride (1:1)", "Triethylamine, 2-chloro-, hydrochloride", "Ethanamine, 2-chloro-N,N-diethyl-, hydrochloride", "\u03b2-Chloroethyldiethylamine hydrochloride", "N,N-Diethyl-2-chloroethylamine hydrochloride", "\u03b2-(Diethylamino)ethyl chloride hydrochloride", "N,N-Diethyl-\u03b2-chloroethylamine hydrochloride", "2-Chloro-N,N-diethylethylamine hydrochloride", "1-Chloro-2-(diethylamino)ethane hydrochloride", "(N,N-Diethylamino)ethyl chloride hydrochloride", "2-Chlorotriethylamine hydrochloride", "2-(Diethylamino)ethyl chloride hydrochloride", "(2-Chloroethyl)diethylamine monohydrochloride", "2-Chloroethyl-N,N-diethylamine hydrochloride", "N-2-Chloroethyl-N,N-diethylammonium hydrochloride", "2-Chloroethyldiethylammonium chloride", "2-(Diethylamino)ethyl chloride hydrochloric acid salt", "N-(2-Chloroethyl)diethylamine hydrochloride", "2-(N,N-Diethylamino)ethyl chloride hydrochloride", "2-Diethylaminoethyl chloride monohydrochloride", "1-Chloro-2-(N,N-diethylamino)ethane hydrochloride", "2-Chloro-N,N-diethylethanamine hydrochloride"], "SMILES": "N(CCCl)(CC)CC.Cl", "physical_data": {"Molecular Weight": "", "Molecular Formula": "C6H14ClN.ClH", "Melting Point": "212 \u00b0C"}}