{"cas_no": "869-10-3", "cn_name": "2,5-\u4e8c\u6eb4\u5df1\u4e8c\u9178\u4e8c\u4e59\u916f", "en_name": ["1,6-Diethyl 2,5-dibromohexanedioate", "Hexanedioic acid, 2,5-dibromo-, 1,6-diethyl ester", "Hexanedioic acid, 2,5-dibromo-, diethyl ester", "1,6-Diethyl 2,5-dibromohexanedioate", "Diethyl 2,5-dibromoadipate", "Diethyl 2,5-dibromohexanedioate", "Diethyl \u03b1,\u03b1\u2032-dibromoadipate", "2,5-Dibromohexanedioic acid diethyl ester", "NSC 49144"], "SMILES": "C(CCC(C(OCC)=O)Br)(C(OCC)=O)Br", "physical_data": {"Molecular Weight": "360.04", "Molecular Formula": "C10H16Br2O4", "Boiling Point": "195 \u00b0C @ Press: 10 Torr", "Melting Point": "75 \u00b0C", "Density": "1.5501 g/cm\u00b3 @ Temp: 20 \u00b0C"}}