{"cas_no": "869-52-3", "cn_name": "\u4e09\u4e9a\u4e59\u57fa\u56db\u80fa\u516d\u4e59\u9178", "en_name": ["Triethylenetetraminehexaacetic acid", "3,6,9,12-Tetraazatetradecanedioic acid, 3,6,9,12-tetrakis(carboxymethyl)-", "Glycine, N,N\u2032-ethylenebis[N-[2-[bis(carboxymethyl)amino]ethyl]-", "Acetic acid, [ethylenebis[[(carboxymethyl)imino]ethylenenitrilo]]tetra-", "3,6,9,12-Tetrakis(carboxymethyl)-3,6,9,12-tetraazatetradecanedioic acid", "[Ethylenebis[[(carboxymethyl)imino]ethylenenitrilo]]tetraacetic acid", "TTHA", "Triethylenetetraminehexaacetic acid", "Triethylenetetramine-N,N,N\u2032,N\u2032\u2032,N\u2032\u2032\u2032,N\u2032\u2032\u2032-hexaacetic acid", "(Triethylenetetraamino)hexaacetic acid", "Triethylenetetramine hexaacetic acid", "2-[2-[Bis(carboxymethyl)amino]ethyl-[2-[2-[bis(carboxymethyl)amino]ethyl-(carboxymethyl)amino]ethyl]amino]acetic acid"], "SMILES": "N(CCN(CCN(CC(O)=O)CC(O)=O)CC(O)=O)(CCN(CC(O)=O)CC(O)=O)CC(O)=O", "physical_data": {"Molecular Weight": "494.45", "Molecular Formula": "C18H30N4O12", "Melting Point": "222-224 \u00b0C (decomp)"}}