{"cas_no": "869-19-2", "cn_name": "\u7518\u6c28\u9170-L-\u4eae\u6c28\u9178", "en_name": ["Glycyl-L-leucine", "L-Leucine, glycyl-", "Leucine, N-glycyl-, L-", "L-Leucine, N-glycyl-", "Glycyl-L-leucine", "Glycylleucine", "N-Glycyl-L-leucine", "NSC 83257", "98: PN: EP2161028 PAGE: 10 claimed protein", "20: PN: WO2014063098 TABLE: 5 claimed protein", "117: PN: US20130123467 SEQID: 141 claimed protein", "17: PN: KR20140043582 SEQID: 20 claimed protein", "4: PN: WO2014170713 SEQID: 104 claimed protein", "(2S)-2-[(2-Aminoacetyl)amino]-4-methylpentanoic acid", "(2S)-2-(2-Aminoacetamido)-4-methylpentanoic acid", "35: PN: WO2021211467 SEQID: 188 claimed sequence", "467: PN: WO2022125673 SEQID: 467 claimed protein", "23: PN: WO2022164392 PAGE: 44 claimed sequence", "485: PN: WO2022215055 SEQID: 485 claimed protein"], "SMILES": "C(NC(CN)=O)(CC(C)C)C(O)=O", "physical_data": {"Molecular Weight": "188.22", "Molecular Formula": "C8H16N2O3", "Melting Point": "242 \u00b0C (decomp)"}}