{"cas_no": "86953-79-9", "cn_name": "1-Boc-\u56db\u6c22\u5421\u54af", "en_name": ["1,1-Dimethylethyl 1-pyrrolidinecarboxylate", "1-Pyrrolidinecarboxylic acid, 1,1-dimethylethyl ester", "1,1-Dimethylethyl 1-pyrrolidinecarboxylate", "N-tert-Butoxycarbonylpyrrolidine", "tert-Butyl 1-pyrrolidinecarboxylate", "1-(tert-Butoxycarbonyl)pyrrolidine", "NT 0186", "1-Pyrrolidinecarboxylic acid tert-butyl ester"], "SMILES": "C(OC(C)(C)C)(=O)N1CCCC1", "physical_data": {"Molecular Weight": "171.24", "Molecular Formula": "C9H17NO2", "Boiling Point": "90-100 \u00b0C @ Press: 0.6 Torr"}}