{"cas_no": "869572-92-9", "cn_name": "\u7279\u8003\u97e6\u745e", "en_name": ["Tecovirimat", "Benzamide, N-[(3aR,4R,4aR,5aS,6S,6aS)-3,3a,4,4a,5,5a,6,6a-octahydro-1,3-dioxo-4,6-ethenocycloprop[f]isoindol-2(1H)-yl]-4-(trifluoromethyl)-, rel-", "rel-N-[(3aR,4R,4aR,5aS,6S,6aS)-3,3a,4,4a,5,5a,6,6a-Octahydro-1,3-dioxo-4,6-ethenocycloprop[f]isoindol-2(1H)-yl]-4-(trifluoromethyl)benzamide", "ST 246", "Tecovirimat", "SIGA 246", "TPOXX"], "SMILES": "O=C1C2C(C3C4C(C2C=C3)C4)C(=O)N1NC(=O)C5=CC=C(C(F)(F)F)C=C5", "physical_data": {"Molecular Weight": "376.33", "Molecular Formula": "C19H15F3N2O3", "Melting Point": "194-195 \u00b0C"}}