{"cas_no": "86978-24-7", "cn_name": "(Z)-2-(2-\u53d4\u4e01\u6c27\u7fb0\u57fa\u6c28\u57fa\u567b\u5511-4-\u57fa)-2-\u620a\u70ef\u9178", "en_name": ["(\u03b1Z)-2-[[(1,1-Dimethylethoxy)carbonyl]amino]-\u03b1-propylidene-4-thiazoleacetic acid", "4-Thiazoleacetic acid, 2-[[(1,1-dimethylethoxy)carbonyl]amino]-\u03b1-propylidene-, (\u03b1Z)-", "4-Thiazoleacetic acid, 2-[[(1,1-dimethylethoxy)carbonyl]amino]-\u03b1-propylidene-, (Z)-", "(\u03b1Z)-2-[[(1,1-Dimethylethoxy)carbonyl]amino]-\u03b1-propylidene-4-thiazoleacetic acid"], "SMILES": "C(=CCC)(C(O)=O)C=1N=C(NC(OC(C)(C)C)=O)SC1", "physical_data": {"Molecular Weight": "298.36", "Molecular Formula": "C13H18N2O4S", "Melting Point": "167-169 \u00b0C"}}