{"cas_no": "87-08-1", "cn_name": "\u9752\u9709\u7d20V", "en_name": ["Penicillin V", "4-Thia-1-azabicyclo[3.2.0]heptane-2-carboxylic acid, 3,3-dimethyl-7-oxo-6-[(2-phenoxyacetyl)amino]-, (2S,5R,6R)-", "4-Thia-1-azabicyclo[3.2.0]heptane-2-carboxylic acid, 3,3-dimethyl-7-oxo-6-(2-phenoxyacetamido)-", "4-Thia-1-azabicyclo[3.2.0]heptane-2-carboxylic acid, 3,3-dimethyl-7-oxo-6-[(phenoxyacetyl)amino]-, [2S-(2\u03b1,5\u03b1,6\u03b2)]-", "4-Thia-1-azabicyclo[3.2.0]heptane-2-carboxylic acid, 3,3-dimethyl-7-oxo-6-[(phenoxyacetyl)amino]-, (2S,5R,6R)-", "(2S,5R,6R)-3,3-Dimethyl-7-oxo-6-[(2-phenoxyacetyl)amino]-4-thia-1-azabicyclo[3.2.0]heptane-2-carboxylic acid", "Calcipen", "V-Cil", "V-Cillin", "Distaquaine V", "Eskacillin V", "Fenacilin", "Meropenin", "Oracillin", "Oratren", "Ospen", "Penicillin, phenoxymethyl-", "Penicillin V", "Pen-Oral", "Pen-vee-oral", "Phenopenicillin", "Phenospen", "6-(Phenoxyacetamido)penicillanic acid", "Phenoxymethylpenicillin", "Phenoxymethylpenicillinic acid", "Vebecillin", "Acipen-V", "Orocillin", "Pen-Vee", "Stabicillin", "Phenocillin", "Oracilline", "V-Cyline", "V-Cylina", "V-Tablopen", "Crystapen V", "MeSH ID: D010404"], "SMILES": "C(O)(=O)C1N2C(C(NC(COC3=CC=CC=C3)=O)C2=O)SC1(C)C", "physical_data": {"Molecular Weight": "350.39", "Molecular Formula": "C16H18N2O5S", "Melting Point": "148-149 \u00b0C"}}