{"cas_no": "87-01-4", "cn_name": "7-\u4e8c\u7532\u6c28\u57fa-4-\u7532\u57fa\u9999\u8c46\u7d20", "en_name": ["DAMC", "2H-1-Benzopyran-2-one, 7-(dimethylamino)-4-methyl-", "Coumarin, 7-(dimethylamino)-4-methyl-", "7-(Dimethylamino)-4-methyl-2H-1-benzopyran-2-one", "7-(Dimethylamino)-4-methylcoumarin", "4-Methyl-7-(dimethylamino)coumarin", "DAMC", "Coumarin 311", "Calcofluor White LD", "7-N,N-Dimethylamino-4-methylcoumarin", "Coumarin 461", "Fluorescent Brightener 130", "C.I. 551101", "C.I. Fluorescent Brightener 130", "Brighter 63", "NSC 408145"], "SMILES": "CC=1C=2C(=CC(N(C)C)=CC2)OC(=O)C1", "physical_data": {"Molecular Weight": "203.24", "Molecular Formula": "C12H13NO2", "Melting Point": "143 \u00b0C"}}