{"cas_no": "87-00-3", "cn_name": "\u540e\u9a6c\u6258\u54c1", "en_name": ["(\u00b1)-Homatropine", "Benzeneacetic acid, \u03b1-hydroxy-, (3-endo)-8-methyl-8-azabicyclo[3.2.1]oct-3-yl ester", "1\u03b1H,5\u03b1H-Tropan-3\u03b1-ol, (\u00b1)-mandelate (ester)", "Benzeneacetic acid, \u03b1-hydroxy-, 8-methyl-8-azabicyclo[3.2.1]oct-3-yl ester, endo-(\u00b1)-", "Homatropin", "Homatropine", "(\u00b1)-Mandelyltropine", "Tropine (\u00b1)-mandelate (ester)", "(\u00b1)-Mandelic acid 1\u03b1H,5\u03b1H-tropan-3\u03b1-yl ester", "Homoatropine", "(\u00b1)-Homatropine", "Benzeneacetic acid, \u03b1-hydroxy-, 8-methyl-8-azabicyclo[3.2.1]oct-3-yl ester, endo-", "Mandelyltropeine", "Tropine mandelate"], "SMILES": "O(C(C(O)C1=CC=CC=C1)=O)C2CC3N(C)C(C2)CC3", "physical_data": {"Molecular Weight": "275.34", "Molecular Formula": "C16H21NO3", "Melting Point": "99.5 \u00b0C"}}