{"cas_no": "87-05-8", "cn_name": "7-\u4e59\u6c27\u57fa-4-\u7532\u57fa\u9999\u8c46\u7d20", "en_name": ["7-Ethoxy-4-methylcoumarin", "2H-1-Benzopyran-2-one, 7-ethoxy-4-methyl-", "Coumarin, 7-ethoxy-4-methyl-", "7-Ethoxy-4-methyl-2H-1-benzopyran-2-one", "7-Ethoxy-4-methylcoumarin", "4-Methylumbelliferone ethyl ether", "4-Methyl-7-ethoxycoumarin", "NSC 60561", "7-Ethoxy-4-methyl-2H-chromen-2-one"], "SMILES": "CC=1C=2C(=CC(OCC)=CC2)OC(=O)C1", "physical_data": {"Molecular Weight": "204.22", "Molecular Formula": "C12H12O3", "Melting Point": "106-108 \u00b0C"}}