{"cas_no": "87-17-2", "cn_name": "\u6c34\u6768\u9170\u82ef\u80fa", "en_name": ["Salicylanilide", "Benzamide, 2-hydroxy-N-phenyl-", "Salicylanilide", "2-Hydroxy-N-phenylbenzamide", "Ansadol", "Aseptolan", "o-Hydroxybenzanilide", "2-Hydroxybenzanilide", "Salicylanilid", "Salinide", "Salinidol", "Salnide", "Shirlan AG", "Shirlan", "Shirlan Extra", "Salicylic acid anilide", "N-Phenylsalicylamide", "Sherstat SLN", "Hyanilid", "Salifebrin", "WR 10019", "2-(N-Phenylcarboxamido)phenol", "SA 88", "2-(Phenylaminocarbonyl)phenol", "N-Phenyl-2-hydroxybenzamide", "NSC 14881", "SA 88 (biocide)"], "SMILES": "C(NC1=CC=CC=C1)(=O)C2=C(O)C=CC=C2", "physical_data": {"Molecular Weight": "213.23", "Molecular Formula": "C13H11NO2", "Melting Point": "136.5 \u00b0C", "Density": "1.33 g/cm\u00b3"}}