{"cas_no": "87-13-8", "cn_name": "\u4e59\u6c27\u57fa\u7532\u53c9\u4e19\u4e8c\u9178\u4e8c\u4e59\u916f", "en_name": ["Diethyl (ethoxymethylene)malonate", "Propanedioic acid, 2-(ethoxymethylene)-, 1,3-diethyl ester", "Malonic acid, (ethoxymethylene)-, diethyl ester", "Propanedioic acid, (ethoxymethylene)-, diethyl ester", "Diethyl (ethoxymethylene)malonate", "Diethyl 2-(ethoxymethylene)malonate", "(Ethoxymethylene)malonic acid diethyl ester", "2-Ethoxy-1,1-bis(ethoxycarbonyl)ethene", "(Ethoxymethylene)propanedioic acid diethyl ester", "Diethyl ethoxymethylidenemalonate", "NSC 62117", "NSC 9068", "Diethyl[(ethyloxy)methylidene]propanedioate", "Ethyl 3-ethoxy-2-(ethoxymethylene)-3-oxopropanoate", "2-(Ethoxymethylene)malonic acid diethyl ester", "Diethyl (ethoxymethylene)propanedioate", "Diethyl 2-(ethoxymethylidene)propanedioate", "Diethyl 2-(ethoxymethylene)propanedioate", "Diethyl 2-[(ethyloxy)methylidene]propanedioate", "Diethyl 2-ethoxymethylidene malonate", "1,3-Diethyl 2-(ethoxymethylidene)propanedioate", "Diethyl (ethoxymethylidene)propanedioate"], "SMILES": "C(C(OCC)=O)(C(OCC)=O)=COCC", "physical_data": {"Molecular Weight": "216.23", "Molecular Formula": "C10H16O5", "Boiling Point": "108-110 \u00b0C @ Press: 0.25 Torr", "Melting Point": "67-68 \u00b0C"}}