{"cas_no": "87-10-5", "cn_name": "3,5-\u4e8c\u6eb4-N-(4-\u6eb4\u4ee3\u82ef\u57fa)-2-\u7f9f\u57fa\u82ef\u7532\u9170\u80fa", "en_name": ["3,4\u2032,5-Tribromosalicylanilide", "Benzamide, 3,5-dibromo-N-(4-bromophenyl)-2-hydroxy-", "Salicylanilide, 3,4\u2032,5-tribromo-", "3,5-Dibromo-N-(4-bromophenyl)-2-hydroxybenzamide", "3,5-Dibromo-6-hydroxybenz-p-bromanilide", "Temasept II", "Temasept IV", "3,4\u2032,5-Tribromosalicylanilide", "Tribromsalan", "Tempasept II", "3,5-Dibromosalicylic acid p-bromoanilide", "Trisanyl", "Vancide TBS", "Sherstat TBS", "Tuasal 100", "Trisanil", "Agramed", "WR 34912", "TBS", "Tuasol", "NSC 20526"], "SMILES": "C(NC1=CC=C(Br)C=C1)(=O)C2=C(O)C(Br)=CC(Br)=C2", "physical_data": {"Molecular Weight": "449.92", "Molecular Formula": "C13H8Br3NO2", "Melting Point": "227 \u00b0C"}}