{"cas_no": "87-19-4", "cn_name": "\u6c34\u6768\u9178\u5f02\u4e01\u916f", "en_name": ["Isobutyl salicylate", "Benzoic acid, 2-hydroxy-, 2-methylpropyl ester", "Salicylic acid, isobutyl ester", "Isobutyl o-hydroxybenzoate", "Isobutyl salicylate", "2-Isobutoxycarbonylphenol", "NSC 62140", "Isobutyl 2-hydroxybenzoate", "2-Methylpropyl 2-hydroxybenzoate"], "SMILES": "C(OCC(C)C)(=O)C1=C(O)C=CC=C1", "physical_data": {"Molecular Weight": "194.23", "Molecular Formula": "C11H14O3", "Boiling Point": "261 \u00b0C", "Melting Point": "5.9 \u00b0C"}}