{"cas_no": "87-18-3", "cn_name": "2-\u7f9f\u57fa\u82ef\u7532\u9178-4-(1,1-\u4e8c\u7532\u57fa\u4e59\u57fa)\u82ef\u57fa\u916f", "en_name": ["p-tert-Butylphenyl salicylate", "Benzoic acid, 2-hydroxy-, 4-(1,1-dimethylethyl)phenyl ester", "Salicylic acid, p-tert-butylphenyl ester", "Phenol, p-tert-butyl-, salicylate", "p-tert-Butylphenyl salicylate", "4-tert-Butylphenyl salicylate", "UV Absorber NL 3", "Sumisorb 90", "Seesorb 202", "Viosorb 90", "NSC 33404", "TBS (UV stabilizer)", "TBS", "UV-TBS", "(4-tert-Butylphenyl) 2-hydroxybenzoate"], "SMILES": "C(OC1=CC=C(C(C)(C)C)C=C1)(=O)C2=C(O)C=CC=C2", "physical_data": {"Molecular Weight": "270.32", "Molecular Formula": "C17H18O3", "Melting Point": "62 \u00b0C"}}