{"cas_no": "87-11-6", "cn_name": "\u786b\u85e4\u9ec4\u7d20", "en_name": ["Thiolutin", "Acetamide, N-(4,5-dihydro-4-methyl-5-oxo-1,2-dithiolo[4,3-b]pyrrol-6-yl)-", "1,2-Dithiolo[4,3-b]pyrrol-5(4H)-one, 6-acetamido-4-methyl-", "1,2-Dithiolo[4,3-b]pyrrole, acetamide deriv.", "N-(4,5-Dihydro-4-methyl-5-oxo-1,2-dithiolo[4,3-b]pyrrol-6-yl)acetamide", "3-Acetamido-5-methylpyrrolin-4-one[4,3-d]-1,2-dithiole", "Thiolutin", "Acetopyrrothin", "NSC 3927"], "SMILES": "N(C(C)=O)C1=C2C(N(C)C1=O)=CSS2", "physical_data": {"Molecular Weight": "228.29", "Molecular Formula": "C8H8N2O2S2", "Boiling Point": "200 \u00b0C", "Melting Point": "256-257 \u00b0C (decomp)"}}