{"cas_no": "87-24-1", "cn_name": "\u90bb\u7532\u57fa\u82ef\u7532\u9178\u4e59\u916f", "en_name": ["Ethyl 2-methylbenzoate", "Benzoic acid, 2-methyl-, ethyl ester", "o-Toluic acid, ethyl ester", "Ethyl 2-methylbenzoate", "Ethyl o-toluate", "Ethyl o-methylbenzoate", "NSC 29048", "2-Methylbenzoic acid ethyl ester"], "SMILES": "C(OCC)(=O)C1=C(C)C=CC=C1", "physical_data": {"Molecular Weight": "164.20", "Molecular Formula": "C10H12O2", "Boiling Point": "227 \u00b0C", "Melting Point": "&lt;-10 \u00b0C"}}