{"cas_no": "87-25-2", "cn_name": "2-\u6c28\u57fa\u82ef\u7532\u9178\u4e59\u916f", "en_name": ["Ethyl 2-aminobenzoate", "Benzoic acid, 2-amino-, ethyl ester", "Anthranilic acid, ethyl ester", "Ethyl o-aminobenzoate", "Ethyl 2-aminobenzoate", "o-(Ethoxycarbonyl)aniline", "2-Carboethoxyaniline", "Ethyl anthranilate", "2-Aminobenzoic acid ethyl ester", "2-(Ethoxycarbonyl)aniline", "(2-(Ethoxycarbonyl)phenyl)amine", "NSC 4146"], "SMILES": "C(OCC)(=O)C1=C(N)C=CC=C1", "physical_data": {"Molecular Weight": "165.19", "Molecular Formula": "C9H11NO2", "Boiling Point": "268 \u00b0C @ Press: 760 Torr", "Melting Point": "13 \u00b0C", "Density": "1.1174 g/cm\u00b3 @ Temp: 20 \u00b0C"}}