{"cas_no": "87-28-5", "cn_name": "\u4e59\u4e8c\u9187\u6c34\u6768\u9178\u916f", "en_name": ["Glycol salicylate", "Benzoic acid, 2-hydroxy-, 2-hydroxyethyl ester", "Salicylic acid, 2-hydroxyethyl ester", "Ethylene glycol, monosalicylate", "GL 7", "Ethylene glycol salicylate", "Glycol monosalicylate", "Glycol salicylate", "Glysal", "2-Hydroxyethyl salicylate", "Monoglycol salicylate", "Spirosal", "\u03b2-Hydroxyethyl salicylate", "Espirosal", "Rheumacyl", "Sarocol", "2-Hydroxyethyl 2-hydroxybenzoate", "Norgesic", "Saliment"], "SMILES": "C(OCCO)(=O)C1=C(O)C=CC=C1", "physical_data": {"Molecular Weight": "182.17", "Molecular Formula": "C9H10O4", "Boiling Point": "169-172 \u00b0C @ Press: 12 Torr", "Melting Point": "37 \u00b0C", "Density": "1.2563 g/cm\u00b3 @ Temp: 20 \u00b0C"}}