{"cas_no": "87-32-1", "cn_name": "N-\u4e59\u9170-DL-\u8272\u6c28\u9178", "en_name": ["N-Acetyl-DL-tryptophan", "Tryptophan, N-acetyl-", "Tryptophan, N-acetyl-, DL-", "DL-Tryptophan, N-acetyl-", "N-Acetyltryptophan", "dl-\u03b1-Acetylamino-3-indolepropionic acid", "N-Acetyl-DL-tryptophan", "DL-Acetyltryptophan", "DL-N-Acetyltryptophan", "Acetyl-DL-tryptophan", "(RS)-N-Acetyltryptophan", "NSC 49124", "2-Acetamido-3-(1H-indol-3-yl)propanoic acid", "Ac-x-trp-oh"], "SMILES": "C(C(NC(C)=O)C(O)=O)C=1C=2C(NC1)=CC=CC2", "physical_data": {"Molecular Weight": "246.26", "Molecular Formula": "C13H14N2O3", "Melting Point": "205-206 \u00b0C"}}