{"cas_no": "87-31-0", "cn_name": "\u91cd\u6c2e\u4e8c\u785d\u57fa\u82ef\u915a", "en_name": ["5,7-Dinitro-1,2,3-benzoxadiazole", "1,2,3-Benzoxadiazole, 5,7-dinitro-", "5,7-Dinitro-1,2,3-benzoxadiazole"], "SMILES": "N(=O)(=O)C1=C2C(=CC(N(=O)=O)=C1)N=NO2", "physical_data": {"Molecular Weight": "210.10", "Molecular Formula": "C6H2N4O5", "Melting Point": "158 \u00b0C"}}