{"cas_no": "87-39-8", "cn_name": "\u7d2b\u5c3f\u9178", "en_name": ["Violuric acid", "2,4,5,6(1H,3H)-Pyrimidinetetrone, 5-oxime", "Violuric acid", "Alloxan, 5-oxime", "5-Isonitrosobarbituric acid", "5-(Hydroxyimino)barbituric acid", "NSC 56338", "VLA"], "SMILES": "N(O)=C1C(=O)NC(=O)NC1=O", "physical_data": {"Molecular Weight": "157.08", "Molecular Formula": "C4H3N3O4", "Melting Point": "203.5 \u00b0C (decomp)"}}