{"cas_no": "87-33-2", "cn_name": "\u785d\u9178\u5f02\u5c71\u68a8\u916f", "en_name": ["Isosorbide dinitrate", "D-Glucitol, 1,4:3,6-dianhydro-, 2,5-dinitrate", "Glucitol, 1,4:3,6-dianhydro-, dinitrate, D-", "D-Glucitol, 1,4:3,6-dianhydro-, dinitrate", "Glucitol, 1,4:3,6-dianhydro-, dinitrate", "Sorbitol, 1,4:3,6-dianhydro-, dinitrate", "Furo[3,2-b]furan, D-glucitol deriv.", "1,4:3,6-Dianhydro-D-sorbitol 2,5-dinitrate", "Dinitrosorbide", "Harrical", "Isordil", "Isordil Tembids", "Isosorbide dinitrate", "Nitrosorbide", "Sorbide dinitrate", "Sorbidnitrate", "Carvanil", "Carvasin", "Cedocard", "Cardis", "Maycor", "Isoket", "Isorbid", "Rigedal", "Sorbangil", "Sorbidilat", "Sorquad", "Sorbitrate", "Vascardin", "Vasorbate", "Sorbonit", "Nitrosorbid", "Korodil", "1,4:3,6-Dianhydrosorbitol 2,5-dinitrate", "Resoidan", "Claodical", "Sorbide nitrate", "Corosorbide", "Flindix", "ISDN", "Isodinit", "Isosorbide 2,5-dinitrate", "Isoket retard 40", "Isosorbide nitrate", "Frandol", "Dinitroisosorbide", "D-Isosorbide dinitrate", "TYB 3215", "1,4:3,6-Dianhydro-D-glucitol 2,5-dinitrate", "Sorbopercuten", "Dilatrate SR", "Vasotrate", "SDM 25", "EureCor", "Laserdil", "Rifloc Retard", "Isdin", "Nitorol", "Myorexon", "Iso-Mack", "Isostenase", "Duranitrat", "Dilatrate", "Cardio 10", "Diniket", "Nitrosorbonl Nosim", "Sorbichew", "Risordan", "Dignionitrat", "Isocard", "Corovliss", "Iso-Bid", "Astridine", "Langoran", "Iso-Puren", "Sorbid SA", "Imtack", "IBD", "Glentonin", "Isotrate", "Disorlon", "SDM 40", "Nitrol", "Soni-Slo", "Nitrofix", "Cardiket", "NSC 80038", "EV 151", "Isonate?", "Isocore", "MeSH ID: D007548"], "SMILES": "O(N(=O)=O)C1C2C(C(ON(=O)=O)CO2)OC1", "physical_data": {"Molecular Weight": "236.14", "Molecular Formula": "C6H8N2O8", "Melting Point": "70 \u00b0C"}}