{"cas_no": "87-40-1", "cn_name": "2,4,6-\u4e09\u6c2f\u82ef\u7532\u919a", "en_name": ["2,4,6-Trichloroanisole", "Benzene, 1,3,5-trichloro-2-methoxy-", "Anisole, 2,4,6-trichloro-", "1,3,5-Trichloro-2-methoxybenzene", "2,4,6-Trichloroanisole", "Tyrene", "Methyl 2,4,6-trichlorophenyl ether", "1-Methoxy-2,4,6-trichlorobenzene", "NSC 35142", "2-Methoxy-1,3,5-trichlorobenzene"], "SMILES": "O(C)C1=C(Cl)C=C(Cl)C=C1Cl", "physical_data": {"Molecular Weight": "211.47", "Molecular Formula": "C7H5Cl3O", "Boiling Point": "241 \u00b0C", "Melting Point": "61.5 \u00b0C"}}