{"cas_no": "87-41-2", "cn_name": "\u82ef\u915e", "en_name": ["Phthalide", "1(3H)-Isobenzofuranone", "Phthalide", "1-Phthalanone", "2-Hydroxymethylbenzoic acid \u03b3-lactone", "Phthalolactone", "NSC 1469", "3H-Isobenzofuran-1-one", "2-Benzofuran-1(3H)-one", "1,3-Dihydro-2-benzofuran-1-one"], "SMILES": "O=C1C=2C(=CC=CC2)CO1", "physical_data": {"Molecular Weight": "134.13", "Molecular Formula": "C8H6O2", "Boiling Point": "290 \u00b0C", "Melting Point": "75 \u00b0C", "Density": "1.1636 g/cm\u00b3 @ Temp: 99.1 \u00b0C"}}