{"cas_no": "87-48-9", "cn_name": "5-\u6eb4\u975b\u7ea2", "en_name": ["5-Bromoisatin", "1H-Indole-2,3-dione, 5-bromo-", "Indole-2,3-dione, 5-bromo-", "Isatin, 5-bromo-", "5-Bromo-1H-indole-2,3-dione", "5-Bromoindole-2,3-dione", "5-Bromoisatin", "5-Bromo-2,3-indolinedione", "NSC 4980", "5-Bromo-2,3-dihydro-1H-indole-2,3-dione"], "SMILES": "O=C1C=2C(NC1=O)=CC=C(Br)C2", "physical_data": {"Molecular Weight": "226.03", "Molecular Formula": "C8H4BrNO2", "Melting Point": "255 \u00b0C"}}