{"cas_no": "87-44-5", "cn_name": "\u03b2-\u77f3\u7af9\u70ef", "en_name": ["(-)-Caryophyllene", "Bicyclo[7.2.0]undec-4-ene, 4,11,11-trimethyl-8-methylene-, (1R,4E,9S)-", "Bicyclo[7.2.0]undec-4-ene, 4,11,11-trimethyl-8-methylene-, (E)-(1R,9S)-(-)-", "Bicyclo[7.2.0]undec-4-ene, 4,11,11-trimethyl-8-methylene-, [1R-(1R*,4E,9S*)]-", "(1R,4E,9S)-4,11,11-Trimethyl-8-methylenebicyclo[7.2.0]undec-4-ene", "trans-Caryophyllene", "Caryophyllene", "l-Caryophyllene", "\u03b2-Caryophyllene", "\u03b2-Caryophyllen", "(-)-\u03b2-Caryophyllene", "\u03b2-Caryophyllene, (-)", "(-)-Caryophyllene", "(-)-trans-Caryophyllene", "(-)-E-Caryophyllene", "(E)-Caryophyllene", "(-)-(E)-Caryophyllene", "NSC 11906", "Caryophyllene B", "trans-\u03b2-Caryophyllene", "Caryophylline", "9-epi-(E)-Caryophyllene", "(E)-Caryophyllene"], "SMILES": "CC1(C)C2C(C1)C(=C)CCC=C(C)CC2", "physical_data": {"Molecular Weight": "204.35", "Molecular Formula": "C15H24", "Boiling Point": "118-119 \u00b0C @ Press: 9.7 Torr", "Melting Point": "&lt;25 \u00b0C", "Density": "0.9052 g/cm\u00b3 @ Temp: 17 \u00b0C"}}