{"cas_no": "87-42-3", "cn_name": "6-\u6c2f\u560c\u5464", "en_name": ["6-Chloropurine", "9H-Purine, 6-chloro-", "Purine, 6-chloro-", "1H-Purine, 6-chloro-", "6-Chloro-9H-purine", "6-Chloropurine", "NSC 744", "6-Chloro-1H-purine", "6-Chloro-7H-purine"], "SMILES": "ClC1=C2C(=NC=N1)N=CN2", "physical_data": {"Molecular Weight": "154.56", "Molecular Formula": "C5H3ClN4", "Boiling Point": "185-192 \u00b0C @ Press: 2.25 Torr", "Melting Point": "175-177 \u00b0C"}}