{"cas_no": "87-56-9", "cn_name": "\u7ce0\u6c2f\u9178", "en_name": ["Mucochloric acid", "2-Butenoic acid, 2,3-dichloro-4-oxo-, (2Z)-", "Mucochloric acid", "Malealdehydic acid, dichloro-", "2-Butenoic acid, 2,3-dichloro-4-oxo-, (Z)-", "(2Z)-2,3-Dichloro-4-oxo-2-butenoic acid", "\u03b1,\u03b2-Dichloro-\u03b2-formylacrylic acid", "Dichloromalealdehydic acid", "2,3-Dichloromaleic aldehyde acid"], "SMILES": "C(=C(C=O)Cl)(C(O)=O)Cl", "physical_data": {"Molecular Weight": "168.96", "Molecular Formula": "C4H2Cl2O3", "Melting Point": "127 \u00b0C"}}