{"cas_no": "87-59-2", "cn_name": "2,3-\u4e8c\u7532\u57fa\u82ef\u80fa", "en_name": ["2,3-Dimethylaniline", "Benzenamine, 2,3-dimethyl-", "2,3-Xylidine", "2,3-Dimethylbenzenamine", "2,3-Dimethylaniline", "o-Xylidine", "2,3-Xylylamine", "3-Amino-o-xylene", "2,3-Dimethylphenylamine"], "SMILES": "CC1=C(C)C=CC=C1N", "physical_data": {"Molecular Weight": "121.18", "Molecular Formula": "C8H11N", "Boiling Point": "221.5 \u00b0C @ Press: 760 Torr", "Melting Point": "&lt;-15 \u00b0C", "Density": "0.9931 g/cm\u00b3 @ Temp: 20 \u00b0C"}}