{"cas_no": "87-51-4", "cn_name": "3-\u5432\u54da\u4e59\u9178", "en_name": ["Indole-3-acetic acid", "1H-Indole-3-acetic acid", "Indole-3-acetic acid", "3-IAA", "Heteroauxin", "IAA", "\u03b2-Indoleacetic acid", "Rhizopin", "Indoleacetic acid", "3-(Carboxymethyl)indole", "\u03b2-IAA", "\u03b1-IAA", "GAP", "2-(3-Indolyl)acetic acid", "2-(1H-Indol-3-yl)acetic acid", "3-Indolylmethylcarboxylic acid", "(1H-Indol-3-yl)acetic acid", "NSC 3787", "3-(Carboxymethyl)-1H-indole", "Noclosan", "Bioenraiz"], "SMILES": "C(C(O)=O)C=1C=2C(NC1)=CC=CC2", "physical_data": {"Molecular Weight": "175.18", "Molecular Formula": "C10H9NO2", "Melting Point": "168.5 \u00b0C", "Density": "1.576 g/cm\u00b3"}}