{"cas_no": "87-52-5", "cn_name": "\u82a6\u7af9\u78b1", "en_name": ["Gramine", "1H-Indole-3-methanamine, N,N-dimethyl-", "Indole, 3-[(dimethylamino)methyl]-", "Gramine", "N,N-Dimethyl-1H-indole-3-methanamine", "\u03b2-(Dimethylaminomethyl)indole", "Donaxine", "Gramin", "3-[(Dimethylamino)methyl]indole", "Donaxin", "N,N-Dimethyl-1H-indole-3-methylamine", "3-(N,N-Dimethylaminomethyl)indole", "NSC 16892", "3-[(Dimethylamino)methyl]-1H-indole", "[(1H-Indol-3-yl)methyl]dimethylamine", "1-(1H-Indol-3-yl)-N,N-dimethylmethanamine"], "SMILES": "C(N(C)C)C=1C=2C(NC1)=CC=CC2", "physical_data": {"Molecular Weight": "174.24", "Molecular Formula": "C11H14N2", "Melting Point": "138.5 \u00b0C"}}