{"cas_no": "87-60-5", "cn_name": "3-\u6c2f-2-\u7532\u57fa\u82ef\u80fa", "en_name": ["3-Chloro-2-methylaniline", "Benzenamine, 3-chloro-2-methyl-", "o-Toluidine, 3-chloro-", "3-Chloro-2-methylbenzenamine", "Fast Scarlet TR Base", "3-Chloro-2-methylaniline", "3-Chloro-o-toluidine", "2-Amino-6-chlorotoluene", "2-Methyl-3-chloroaniline", "6-Chloro-2-aminotoluene", "3-Chloro-2-methylphenylamine", "o-Methyl-m-chloroaniline", "3-Chloro-2-toluidine", "Scarlet TR base", "6-Chloro-2-amino-1-methylbenzene", "NSC 6184", "1-Amino-2-methyl-3-chlorobenzene", "3-Amino-1-chloro-2-methylbenzene", "1-Chloro-2-methyl-3-aminobenzene"], "SMILES": "CC1=C(Cl)C=CC=C1N", "physical_data": {"Molecular Weight": "141.60", "Molecular Formula": "C7H8ClN", "Boiling Point": "245 \u00b0C @ Press: 760 Torr", "Melting Point": "1 \u00b0C"}}