{"cas_no": "87-64-9", "cn_name": "2-\u6c2f-6-\u7532\u915a", "en_name": ["2-Chloro-6-methylphenol", "Phenol, 2-chloro-6-methyl-", "o-Cresol, 6-chloro-", "2-Chloro-6-methylphenol", "6-Chloro-o-cresol", "2-Methyl-6-chlorophenol", "6-Chloro-2-methylphenol", "3-Chloro-2-hydroxytoluene", "NSC 2878"], "SMILES": "OC1=C(C)C=CC=C1Cl", "physical_data": {"Molecular Weight": "142.58", "Molecular Formula": "C7H7ClO", "Boiling Point": "189 \u00b0C", "Melting Point": "130 \u00b0C", "Density": "1.1950 g/cm\u00b3 @ Temp: 25 \u00b0C"}}