{"cas_no": "87-69-4", "cn_name": "L-\u9152\u77f3\u9178", "en_name": ["(+)-Tartaric acid", "Butanedioic acid, 2,3-dihydroxy- (2R,3R)-", "Tartaric acid, L-(+)-", "Butanedioic acid, 2,3-dihydroxy- [R-(R*,R*)]-", "(2R,3R)-2,3-Dihydroxybutanedioic acid", "Dextrotartaric acid", "d-\u03b1,\u03b2-Dihydroxysuccinic acid", "Natural tartaric acid", "L-Tartaric acid", "Tartaric acid", "L-(+)-Tartaric acid", "Threaric acid", "(+)-Tartaric acid", "1,2-Dihydroxyethane-1,2-dicarboxylic acid", "(R,R)-(+)-Tartaric acid", "d-Tartaric acid", "(R,R)-Tartaric acid", "2,3-Dihydroxybutanedioic acid", "(+)-(R,R)-Tartaric acid", "(2R,3R)-(+)-Tartaric acid", "(+)-L-Tartaric acid", "(2R,3R)-Tartaric acid", "E 334", "Dihydroxysuccinic acid", "NSC 62778", "(2R,3R)-2,3-Dihydroxysuccinic acid", "(+)-(2R,3R)-Tartaric acid", "2,3-Dihydroxysuccinic acid", "(2R,3R)-2,3-Dihydroxysuccinic acid"], "SMILES": "C(C(C(O)=O)O)(C(O)=O)O", "physical_data": {"Molecular Weight": "150.09", "Molecular Formula": "C4H6O6", "Melting Point": "169 \u00b0C", "Density": "1.737 g/cm\u00b3"}}