{"cas_no": "87-62-7", "cn_name": "2,6-\u4e8c\u7532\u57fa\u82ef\u80fa", "en_name": ["2,6-Dimethylaniline", "Benzenamine, 2,6-dimethyl-", "2,6-Xylidine", "2,6-Dimethylbenzenamine", "2,6-Dimethylaniline", "o-Xylidine", "2-Amino-1,3-dimethylbenzene", "2-Amino-1,3-xylene", "2-Amino-m-xylene", "1-Amino-2,6-dimethylbenzene", "2,6-Xylylamine", "2,6-Dimethylphenylamine", "NSC 7098", "2,6-Dimethylaminobenzene"], "SMILES": "NC1=C(C)C=CC=C1C", "physical_data": {"Molecular Weight": "121.18", "Molecular Formula": "C8H11N", "Boiling Point": "216 \u00b0C", "Melting Point": "11.2 \u00b0C", "Density": "0.9842 g/cm\u00b3 @ Temp: 20 \u00b0C"}}