{"cas_no": "87-63-8", "cn_name": "2-\u6c2f-6-\u7532\u57fa\u82ef\u80fa", "en_name": ["2-Chloro-6-methylaniline", "Benzenamine, 2-chloro-6-methyl-", "o-Toluidine, 6-chloro-", "2-Chloro-6-methylbenzenamine", "2-Amino-3-chlorotoluene", "3-Chloro-2-aminotoluene", "6-Chloro-o-toluidine", "2-Chloro-6-methylaniline", "2-Methyl-6-chloroaniline", "6-Chloro-2-methylaniline", "(2-Chloro-6-methylphenyl)amine", "NSC 60121"], "SMILES": "NC1=C(C)C=CC=C1Cl", "physical_data": {"Molecular Weight": "141.60", "Molecular Formula": "C7H8ClN", "Boiling Point": "96-99 \u00b0C @ Press: 10 Torr"}}