{"cas_no": "87-68-3", "cn_name": "\u516d\u6c2f-1,3-\u4e01\u4e8c\u70ef", "en_name": ["Hexachlorobutadiene", "1,3-Butadiene, 1,1,2,3,4,4-hexachloro-", "Butadiene, hexachloro-", "1,1,2,3,4,4-Hexachloro-1,3-butadiene", "Hexachloro-1,3-butadiene", "Hexachlorobutadiene", "C 46", "Perchlorobutadiene", "Perchloro-1,3-butadiene", "HCB", "NSC 3701"], "SMILES": "C(C(=C(Cl)Cl)Cl)(=C(Cl)Cl)Cl", "physical_data": {"Molecular Weight": "260.76", "Molecular Formula": "C4Cl6", "Boiling Point": "215 \u00b0C @ Press: 760 Torr", "Melting Point": "-21 \u00b0C", "Density": "1.556 g/cm\u00b3 @ Temp: 25 \u00b0C"}}