{"cas_no": "87-65-0", "cn_name": "2,6-\u4e8c\u6c2f\u82ef\u915a", "en_name": ["2,6-Dichlorophenol", "Phenol, 2,6-dichloro-", "2,6-Dichlorophenol", "NSC 60647"], "SMILES": "OC1=C(Cl)C=CC=C1Cl", "physical_data": {"Molecular Weight": "163.00", "Molecular Formula": "C6H4Cl2O", "Boiling Point": "220 \u00b0C", "Melting Point": "68.5 \u00b0C"}}