{"cas_no": "87-66-1", "cn_name": "\u90bb\u82ef\u4e09\u915a", "en_name": ["Pyrogallol", "1,2,3-Benzenetriol", "Pyrogallol", "C.I. 76515", "C.I. Oxidation Base 32", "Fouramine Brown AP", "Fourrine 85", "Fourrine PG", "Pyrogallic acid", "1,2,3-Trihydroxybenzene", "2,3-Dihydroxyphenol", "NSC 5035", "Benzene-1,2,3-triol", "Pyrogallol acid", "2,6-Dihydroxyphenol", "Antioxidant PY", "Gallol", "1,2,3-Hydroxybenzene", "1,2,3-Pyrogallol", "MeSH ID: D011748"], "SMILES": "OC1=C(O)C=CC=C1O", "physical_data": {"Molecular Weight": "126.11", "Molecular Formula": "C6H6O3", "Boiling Point": "309 \u00b0C", "Melting Point": "133 \u00b0C", "Density": "1.453 g/cm\u00b3 @ Temp: 4 \u00b0C"}}