{"cas_no": "87-67-2", "cn_name": "\u9152\u77f3\u9178\u6c22\u80c6\u78b1", "en_name": ["Choline bitartrate", "Ethanaminium, 2-hydroxy-N,N,N-trimethyl-, (2R,3R)-2,3-dihydroxybutanedioate (1:1)", "Choline, tartrate (1:1) (salt)", "Choline tartrate", "Ethanaminium, 2-hydroxy-N,N,N-trimethyl-, salt with [R-(R*,R*)]-2,3-dihydroxybutanedioic acid (1:1)", "Choline, hydrogen tartrate", "Ethanaminium, 2-hydroxy-N,N,N-trimethyl-, salt with (2R,3R)-2,3-dihydroxybutanedioic acid (1:1)", "Tartaric acid, ion(1-), choline", "Butanedioic acid, 2,3-dihydroxy-[R-(R*,R*)]-, ion(1-), 2-hydroxy-N,N,N-trimethylethanaminium", "Butanedioic acid, 2,3-dihydroxy- (2R,3R)-, ion(1-), 2-hydroxy-N,N,N-trimethylethanaminium", "Choline bitartrate", "(2-Hydroxyethyl)trimethylammonium bitartrate"], "SMILES": "C([N+](C)(C)C)CO.C(C(C(O)=O)O)(C([O-])=O)O", "physical_data": {"Molecular Weight": "", "Molecular Formula": "C5H14NO.C4H5O6", "Melting Point": "148.5 \u00b0C"}}