{"cas_no": "87-61-6", "cn_name": "1,2,3-\u4e09\u6c2f\u82ef", "en_name": ["1,2,3-Trichlorobenzene", "Benzene, 1,2,3-trichloro-", "1,2,3-Trichlorobenzene", "vic-Trichlorobenzene", "1,2,6-Trichlorobenzene", "NSC 43432"], "SMILES": "ClC1=C(Cl)C=CC=C1Cl", "physical_data": {"Molecular Weight": "181.45", "Molecular Formula": "C6H3Cl3", "Boiling Point": "218.5 \u00b0C", "Melting Point": "53.5 \u00b0C", "Density": "1.4533 g/cm\u00b3 @ Temp: 25 \u00b0C"}}