{"cas_no": "87-72-9", "cn_name": "L-?\u963f\u62c9\u4f2f\u5421\u5583\u7cd6", "en_name": ["L-Arabinopyranose", "L-Arabinopyranose", "Arabinopyranose, L-", "Pectinose"], "SMILES": "OC1C(O)C(O)OCC1O", "physical_data": {"Molecular Weight": "150.13", "Molecular Formula": "C5H10O5", "Melting Point": "158 \u00b0C"}}