{"cas_no": "87-73-0", "cn_name": "\u8461\u8404\u7cd6\u4e8c\u9178", "en_name": ["Saccharic acid", "D-Glucaric acid", "Glucaric acid, D-", "Saccharic acid", "D-Glucosaccharic acid", "D-Saccharic acid", "D-Tetrahydroxyadipic acid", "L-Gularic acid", "D-Saccharate", "D-(+)-Saccharic acid", "Saccharic acids"], "SMILES": "C(C(C(C(O)=O)O)O)(C(C(O)=O)O)O", "physical_data": {"Molecular Weight": "210.14", "Molecular Formula": "C6H10O8", "Melting Point": "125.5 \u00b0C"}}