{"cas_no": "87-79-6", "cn_name": "L-\u5c71\u68a8\u7cd6", "en_name": ["L-(-)-Sorbose", "L-Sorbose", "Sorbose, L-", "Sorbose", "L-(-)-Sorbose", "L-xylo-2-Hexulose", "L-1,3,4,5,6-Pentahydroxyhexan-2-one", "Esorben", "L-Sorbinose", "NSC 97195"], "SMILES": "C(C(C(CO)=O)O)(C(CO)O)O", "physical_data": {"Molecular Weight": "180.16", "Molecular Formula": "C6H12O6", "Melting Point": "165 \u00b0C", "Density": "1.65 g/cm\u00b3 @ Temp: 15 \u00b0C"}}