{"cas_no": "87-89-8", "cn_name": "\u808c\u9187", "en_name": ["myo-Inositol", "myo-Inositol", "Inositol, myo-", "cis-1,2,3,5-trans-4,6-Cyclohexanehexol", "Dambose", "Meat sugar", "Mesoinosite", "Mesoinositol", "Myoinosite", "Myoinositol", "Nucite", "Phaseomannite", "Phaseomannitol", "meso-Inositol", "Inositol", "MI", "i-Inositol", "iso-Inositol", "Inosital", "Scyllite", "Mesoinosit", "Mesol", "Mesovit", "Inositene", "Inositina", "Inosite", "Cyclohexitol", "Mouse antialopecia factor", "Rat antispectacled eye factor", "Bios I", "Cyclohexanehexol", "Freeda"], "SMILES": "OC1C(O)C(O)C(O)C(O)C1O", "physical_data": {"Molecular Weight": "180.16", "Molecular Formula": "C6H12O6", "Melting Point": "225 \u00b0C", "Density": "1.752 g/cm\u00b3"}}