{"cas_no": "87-83-2", "cn_name": "\u4e94\u6eb4\u7532\u82ef", "en_name": ["Pentabromotoluene", "Benzene, 1,2,3,4,5-pentabromo-6-methyl-", "Toluene, 2,3,4,5,6-pentabromo-", "Benzene, pentabromomethyl-", "1,2,3,4,5-Pentabromo-6-methylbenzene", "Flammex 5BT", "Pentabromotoluene", "2,3,4,5,6-Pentabromotoluene", "Pentabromomethylbenzene", "2,3,4,5,6-Pentabromomethylbenzene", "PBT (flame retardant)", "PBT"], "SMILES": "BrC1=C(Br)C(Br)=C(C)C(Br)=C1Br", "physical_data": {"Molecular Weight": "486.62", "Molecular Formula": "C7H3Br5", "Melting Point": "288 \u00b0C"}}