{"cas_no": "87-82-1", "cn_name": "\u516d\u6eb4\u82ef", "en_name": ["Hexabromobenzene", "Benzene, 1,2,3,4,5,6-hexabromo-", "Benzene, hexabromo-", "1,2,3,4,5,6-Hexabromobenzene", "Hexabromobenzene", "Perbromobenzene", "HBB", "AFR 1001", "FR-B", "Plasafety HBB", "HBB-S", "NSC 113975", "HBB (flame retardant)", "HBB-b"], "SMILES": "BrC1=C(Br)C(Br)=C(Br)C(Br)=C1Br", "physical_data": {"Molecular Weight": "551.49", "Molecular Formula": "C6Br6", "Melting Point": "327 \u00b0C"}}