{"cas_no": "87-86-5", "cn_name": "\u4e94\u6c2f\u82ef\u915a", "en_name": ["Pentachlorophenol", "Phenol, 2,3,4,5,6-pentachloro-", "Phenol, pentachloro-", "2,3,4,5,6-Pentachlorophenol", "Dowicide 7", "PCP (pesticide)", "Penchlorol", "Penta", "EP 30", "Liroprem", "Pentachlorophenol", "Grundier Arbezol", "Lauxtol", "Permasan", "Fungifen", "Santophen 20", "PCP", "Preventol P", "Chlon", "PKhF", "Woodtreat A", "Pol Nu", "Dura Treet II", "1-Hydroxypentachlorobenzene", "Witophen P", "Pole topper", "Pole topper fluid", "Chlorophenasic acid", "Pentor 70", "Penton 70", "1-Hydroxy-2,3,4,5,6-pentachlorobenzene", "EP 30 (pesticide)", "Dowicide EC 7", "NSC 263497", "Satophen", "Perchlorophenol", "MeSH ID: D010416"], "SMILES": "ClC1=C(Cl)C(Cl)=C(O)C(Cl)=C1Cl", "physical_data": {"Molecular Weight": "266.34", "Molecular Formula": "C6HCl5O", "Boiling Point": "309.5 \u00b0C", "Melting Point": "191 \u00b0C", "Density": "1.978 g/cm\u00b3 @ Temp: 22 \u00b0C"}}