{"cas_no": "87-87-6", "cn_name": "\u56db\u6c2f\u6c30\u918c", "en_name": ["Tetrachloro-p-hydroquinone", "1,4-Benzenediol, 2,3,5,6-tetrachloro-", "Hydroquinone, tetrachloro-", "2,3,5,6-Tetrachloro-1,4-benzenediol", "Tetrachloro-p-hydroquinone", "Tetrachlorobenzoquinol", "2,3,5,6-Tetrachlorohydroquinone", "Tetrachloro-p-benzohydroquinone", "Dihydro-p-chloranil", "Perchlorohydroquinone", "Nordrosophilin A", "Tetrachloro-1,4-hydroquinone", "2,3,5,6-Tetrachloro-1,4-dihydroxybenzene", "Tetrachloro-1,4-benzenediol", "NSC 100888", "NSC 4858"], "SMILES": "ClC1=C(Cl)C(O)=C(Cl)C(Cl)=C1O", "physical_data": {"Molecular Weight": "247.89", "Molecular Formula": "C6H2Cl4O2", "Melting Point": "220 \u00b0C"}}