{"cas_no": "87-85-4", "cn_name": "\u516d\u7532\u57fa\u82ef", "en_name": ["Hexamethylbenzene", "Benzene, 1,2,3,4,5,6-hexamethyl-", "Benzene, hexamethyl-", "1,2,3,4,5,6-Hexamethylbenzene", "Hexamethylbenzene", "Mellitene", "NSC 3838"], "SMILES": "CC1=C(C)C(C)=C(C)C(C)=C1C", "physical_data": {"Molecular Weight": "162.27", "Molecular Formula": "C12H18", "Boiling Point": "263.4 \u00b0C", "Melting Point": "166.5 \u00b0C", "Density": "1.042 g/cm\u00b3"}}