{"cas_no": "87-88-7", "cn_name": "\u6c2f\u5189\u9178", "en_name": ["Chloranilic acid", "2,5-Cyclohexadiene-1,4-dione, 2,5-dichloro-3,6-dihydroxy-", "p-Benzoquinone, 2,5-dichloro-3,6-dihydroxy-", "Quinone, 2,5-dichloro-3,6-dihydroxy-", "2,5-Dichloro-3,6-dihydroxy-2,5-cyclohexadiene-1,4-dione", "Chloranilic acid", "2,5-Dichloro-3,6-dihydroxy-p-benzoquinone", "2,5-Dichloro-3,6-dihydroxy-1,4-quinone", "2,5-Dihydroxy-3,6-dichloro-1,4-benzoquinone", "2,5-Dihydroxy-3,6-dichlorobenzoquinone", "3,6-Dichloro-2,5-dihydroxy-1,4-benzoquinone", "2,5-Dichloro-3,6-dihydroxy-1,4-benzoquinone", "p-Chloranilic acid", "NSC 6108", "NSC 97383", "3,6-Dichloro-2,5-dihydroxybenzoquinone"], "SMILES": "ClC=1C(=O)C(O)=C(Cl)C(=O)C1O", "physical_data": {"Molecular Weight": "208.98", "Molecular Formula": "C6H2Cl2O4", "Melting Point": "283.5 \u00b0C", "Density": "1.957 g/cm\u00b3"}}