{"cas_no": "87-81-0", "cn_name": "\u5854\u683c\u7cd6", "en_name": ["D-Tagatose", "D-Tagatose", "Tagatose, D-", "D-lyxo-2-Hexulose"], "SMILES": "C(C(C(CO)=O)O)(C(CO)O)O", "physical_data": {"Molecular Weight": "180.16", "Molecular Formula": "C6H12O6", "Melting Point": "134.5 \u00b0C"}}