{"cas_no": "87-99-0", "cn_name": "\u6728\u7cd6\u9187", "en_name": ["Xylitol", "Xylitol", "Xylite (sugar)", "Xylite", "Klinit", "Xyliton", "Kylit", "Wood sugar alcohol", "Xylisorb", "Xylitol C", "Xylitol CM 90", "Xylit", "NSC 25283", "Xylitab 100", "Xylitab DC", "Xylisorb 300", "Xylisorb 700", "Xylitab 300", "C-Xylidex CR 16055", "Xylit XC", "Fluorette", "DL-Xylitol", "meso-Xylitol", "Eutrit", "xylo-Pentitol", "Xylitol P", "X 0018", "Xylite P", "Xivia CM 90", "MeSH ID: D014993"], "SMILES": "C(C(CO)O)(C(CO)O)O", "physical_data": {"Molecular Weight": "152.15", "Molecular Formula": "C5H12O5", "Boiling Point": "216 \u00b0C", "Melting Point": "93.5 \u00b0C"}}