{"cas_no": "87-90-1", "cn_name": "\u4e09\u6c2f\u5f02\u6c30\u5c3f\u9178", "en_name": ["Trichloroisocyanuric acid", "1,3,5-Triazine-2,4,6(1H,3H,5H)-trione, 1,3,5-trichloro-", "s-Triazine-2,4,6(1H,3H,5H)-trione, 1,3,5-trichloro-", "s-Triazine-2,4,6(1H,3H,5H)-trione, trichloro-", "1,3,5-Trichloro-1,3,5-triazine-2,4,6(1H,3H,5H)-trione", "ACL 85", "Symclosene", "Trichlorocyanuric acid", "Trichloroisocyanuric acid", "Trichloro-s-triazine-2,4,6(1H,3H,5H)-trione", "1,3,5-Trichloro-2,4,6-trioxohexahydro-s-triazine", "Fi Clor 91", "1,3,5-Trichloroisocyanuric acid", "Isocyanuric chloride", "1,3,5-Trichloro-1,3,5-triazine-2,4,6-trione", "N,N\u2032,N\u2032\u2032-Trichloroisocyanuric acid", "Symclosen", "Trichloro-s-triazinetrione", "CDB 90", "Neochlor 90", "Chloreal", "ACL 90", "ACL 90 Plus", "Hi-Lite 90", "Hi-Lite 90G", "Neochlor 90G", "Superclean 90TH", "Trichloroiminocyanuric acid", "NSC 405124", "TICA-G", "Neochlor 90FG", "Doristrip W", "TCCA", "1,3,5-Trichloro-2,4,6-triazinetrione", "1,3,5-Trichlorotriazine-2,4,6-trione", "1,3,5-Trichloro-1,3,5-triazinane-2,4,6-trione"], "SMILES": "O=C1N(Cl)C(=O)N(Cl)C(=O)N1Cl", "physical_data": {"Molecular Weight": "232.41", "Molecular Formula": "C3Cl3N3O3", "Melting Point": "47-246 \u00b0C (decomp)"}}