{"cas_no": "87-91-2", "cn_name": "L-(+)-\u9152\u77f3\u9178\u4e8c\u4e59\u916f", "en_name": ["Diethyl tartrate", "Butanedioic acid, 2,3-dihydroxy- (2R,3R)-, 1,4-diethyl ester", "Tartaric acid, diethyl ester", "Butanedioic acid, 2,3-dihydroxy-[R-(R*,R*)]-, diethyl ester", "Butanedioic acid, 2,3-dihydroxy- (2R,3R)-, diethyl ester", "Diethyl tartrate", "(+)-Diethyl L-tartrate", "(R,R)-Tartaric acid diethyl ester", "Ethyl tartrate", "Ethyl (+)-tartrate", "Diethyl L-tartrate", "Diethyl (2R,3R)-(+)-tartrate", "Diethyl (R,R)-(+)-tartrate", "Diethyl 1,2-dihydroxy-1,2-ethanedicarboxylate", "Diethyl (+)-tartrate", "Diethyl L-(+)-tartrate", "(+)-(R,R)-Diethyl tartrate", "(R,R)-Diethyl tartrate", "Diethyl (R,R)-tartrate", "Diethyl (2R,3R)-tartrate", "Diethyl L-tartarate", "L-Diethyl tartrate", "L-Tartaric acid diethyl ester", "NSC 44808", "NSC 8878", "Diethyl (2R,3R)-2,3-dihydroxysuccinate", "(+)-Diethyl L-tartarate", "Diethyl tartarate", "L-(+)-Tartaric acid diethyl ester"], "SMILES": "C(C(C(OCC)=O)O)(C(OCC)=O)O", "physical_data": {"Molecular Weight": "206.19", "Molecular Formula": "C8H14O6", "Boiling Point": "280 \u00b0C", "Melting Point": "17 \u00b0C", "Density": "1.2028 g/cm\u00b3 @ Temp: 20 \u00b0C"}}