{"cas_no": "87-92-3", "cn_name": "L-\u9152\u77f3\u9178\u4e8c\u4e01\u916f", "en_name": ["(+)-Dibutyl tartrate", "Butanedioic acid, 2,3-dihydroxy- (2R,3R)-, 1,4-dibutyl ester", "Tartaric acid, dibutyl ester", "Butanedioic acid, 2,3-dihydroxy- [R-(R*,R*)]-, dibutyl ester", "Butanedioic acid, 2,3-dihydroxy- (2R,3R)-, dibutyl ester", "Dibutyl tartrate", "ENT 396", "Dibutyl L-(+)-tartrate", "L-(+)-Tartaric acid dibutyl ester", "(+)-Tartaric acid dibutyl ester", "(+)-Dibutyl tartrate", "(2R,3R)-Di-n-butyl tartrate", "Dibutyl (R,R)-tartrate", "Dibutyl L-tartrate", "(2R,3R)-Dibutyl tartrate", "Dibutyl (+)-L-tartrate", "Di-n-butyl L-tartrate"], "SMILES": "C(C(C(OCCCC)=O)O)(C(OCCCC)=O)O", "physical_data": {"Molecular Weight": "262.30", "Molecular Formula": "C12H22O6", "Boiling Point": "320 \u00b0C", "Melting Point": "22 \u00b0C"}}