{"cas_no": "870-50-8", "cn_name": "\u5076\u6c2e\u4e8c\u7532\u9178\u4e8c\u53d4\u4e01\u916f", "en_name": ["Di-tert-butyl azodicarboxylate", "1,2-Diazenedicarboxylic acid, 1,2-bis(1,1-dimethylethyl) ester", "Formic acid, azodi-, di-tert-butyl ester", "Diazenedicarboxylic acid, bis(1,1-dimethylethyl) ester", "Di-tert-butyl azodiformate", "Di-tert-butyl azodicarboxylate", "Azodicarboxylic acid di-tert-butyl ester", "Di-tert-butyl diazodicarboxylate", "DBAD", "NSC 109889", "Bis(1,1-dimethylethyl)azodicarboxylate"], "SMILES": "O(C(C)(C)C)C(N=NC(OC(C)(C)C)=O)=O", "physical_data": {"Molecular Weight": "230.26", "Molecular Formula": "C10H18N2O4", "Melting Point": "85-87 \u00b0C"}}