{"cas_no": "870-85-9", "cn_name": "3-(\u7532\u57fa\u6c28\u57fa)\u5df4\u8c46\u9178\u4e59\u916f", "en_name": ["2-Butenoic acid, 3-(methylamino)-, ethyl ester", "2-Butenoic acid, 3-(methylamino)-, ethyl ester", "Crotonic acid, 3-(methylamino)-, ethyl ester", "Ethyl \u03b2-(methylamino)crotonate", "Ethyl 3-(methylamino)crotonate", "Ethyl 3-(methylamino)-2-butenoate", "NSC 61982", "3-(Methylamino)-2-butenoic acid ethyl ester"], "SMILES": "C(C(OCC)=O)=C(NC)C", "physical_data": {"Molecular Weight": "143.18", "Molecular Formula": "C7H13NO2", "Boiling Point": "133 \u00b0C @ Press: 50 Torr"}}