{"cas_no": "870-08-6", "cn_name": "\u6c27\u5316\u4e8c\u8f9b\u57fa\u9521", "en_name": ["Dioctyltin oxide", "Stannane, dioctyloxo-", "Dioctyltin oxide", "Tin, dioctyloxo-", "Dioctyloxostannane", "Di-n-octyltin oxide", "Stann OO", "Irgastab T 161", "U 800", "U 800 (heat stabilizer)", "NSC 140743", "Dioctyloxotin", "Neostann U 800P", "DOTO", "DOTO (dioctyltin oxide)", "Stann DOTO", "TIB KAT 417"], "SMILES": "[Sn](CCCCCCCC)(CCCCCCCC)=O", "physical_data": {"Molecular Weight": "361.15", "Molecular Formula": "C16H34OSn", "Melting Point": "245-248 \u00b0C (decomp)", "Density": "1.3 g/cm\u00b3"}}