{"cas_no": "870-63-3", "cn_name": "1-\u6eb4-3-\u7532\u57fa-2-\u4e01\u70ef", "en_name": ["Prenyl bromide", "2-Butene, 1-bromo-3-methyl-", "1-Bromo-3-methyl-2-butene", "3-Methyl-2-butenyl bromide", "Prenyl bromide", "\u03b3,\u03b3-Dimethylallyl bromide", "3,3-Dimethylallyl bromide", "4-Bromo-2-methyl-2-butene", "3-Methylcrotyl bromide", "Dimethylallyl bromide", "3,3-Dimethallyl bromide", "Isoprene hydrobromide", "Isoprenyl bromide", "3-Methyl-1-bromo-2-butene", "3-Methyl-2-buten-1-yl bromide"], "SMILES": "C(=C(C)C)CBr", "physical_data": {"Molecular Weight": "149.03", "Molecular Formula": "C5H9Br", "Boiling Point": "62-64 \u00b0C @ Press: 67 Torr", "Density": "1.2930 g/cm\u00b3 @ Temp: 15 \u00b0C"}}