{"cas_no": "870-73-5", "cn_name": "\u4e8c\u786b\u4ee3\u4e59\u9178\u4e59\u916f", "en_name": ["Ethyl ethane(dithioate)", "Ethane(dithioic) acid, ethyl ester", "Acetic acid, dithio-, ethyl ester", "Ethyl ethane(dithioate)", "Ethyl dithioacetate", "Thioacetylthioethane", "1-(Ethylsulfanyl)ethane-1-thione"], "SMILES": "S(C(C)=S)CC", "physical_data": {"Molecular Weight": "120.24", "Molecular Formula": "C4H8S2", "Boiling Point": "128-132 \u00b0C", "Density": "0.9807 g/cm\u00b3 @ Temp: 28 \u00b0C"}}