{"cas_no": "870-23-5", "cn_name": "\u70ef\u4e19\u786b\u9187", "en_name": ["Allyl mercaptan", "2-Propene-1-thiol", "Allyl mercaptan", "Allylthiol", "1-Propene-3-thiol", "NSC 6744", "2-Propen-1-thiol"], "SMILES": "C(CS)=C", "physical_data": {"Molecular Weight": "74.14", "Molecular Formula": "C3H6S", "Boiling Point": "65 \u00b0C", "Density": "0.9250 g/cm\u00b3 @ Temp: 23 \u00b0C"}}