{"cas_no": "870-24-6", "cn_name": "2-\u6c2f\u4e59\u80fa\u76d0\u9178\u76d0", "en_name": ["2-Chloroethylamine hydrochloride", "Ethanamine, 2-chloro-, hydrochloride (1:1)", "Ethylamine, 2-chloro-, hydrochloride", "Ethanamine, 2-chloro-, hydrochloride", "2-Chloroethylamine hydrochloride", "\u03b2-Chloroethylamine hydrochloride", "1-Amino-2-chloroethane hydrochloride", "2-Aminoethyl chloride hydrochloride", "2-Chloroethanamine hydrochloride", "2-Chloroethylamine monohydrochloride", "2-Chloroethan-1-amine hydrochloride"], "SMILES": "C(CN)Cl.Cl", "physical_data": {"Molecular Weight": "", "Molecular Formula": "C2H6ClN.ClH", "Melting Point": "144 \u00b0C"}}