{"cas_no": "870-46-2", "cn_name": "\u80bc\u57fa\u7532\u9178\u53d4\u4e01\u916f", "en_name": ["tert-Butyl carbazate", "Hydrazinecarboxylic acid, 1,1-dimethylethyl ester", "Carbazic acid, tert-butyl ester", "tert-Butyl carbazate", "(tert-Butoxycarbonyl)hydrazide", "(tert-Butyloxycarbonyl)hydrazide", "Hydrazinecarboxylic acid tert-butyl ester", "(tert-Butoxycarbonyl)hydrazine", "1-(tert-Butoxycarbonyl)hydrazine", "1,1-Dimethylethyl carbazate", "N-(tert-Butoxycarbonyl)hydrazine", "tert-Butyl hydrazinecarboxylate", "NSC 60250", "Hydrazinecarboxylic acid tert-butyl ester", "N-Boc-hydrazine", "1,1-Dimethylethyl hydrazinecarboxylate", "Boc-hydrazine", "tert-Butyl N-aminocarbamate", "tert-Butyl hydrazinoformate"], "SMILES": "O(C(C)(C)C)C(NN)=O", "physical_data": {"Molecular Weight": "132.16", "Molecular Formula": "C5H12N2O2", "Boiling Point": "76 \u00b0C @ Press: 4 Torr", "Melting Point": "38.5-39 \u00b0C"}}