{"cas_no": "870281-86-0", "cn_name": "2-[(1S)-1-\u6c28\u57fa\u4e19\u57fa]-5-\u6c1f-3-\u82ef\u57fa-4(3H)-\u55b9\u5511\u5549\u916e", "en_name": ["2-[(1S)-1-Aminopropyl]-5-fluoro-3-phenyl-4(3H)-quinazolinone", "4(3H)-Quinazolinone, 2-[(1S)-1-aminopropyl]-5-fluoro-3-phenyl-", "2-[(1S)-1-Aminopropyl]-5-fluoro-3-phenyl-4(3H)-quinazolinone", "(S)-2-(1-Aminopropyl)-5-fluoro-3-phenylquinazolin-4(3H)-one", "(S)-1-(5-Fluoro-4-oxo-3-phenyl-3,4-dihydroquinazolin-2-yl)propan-1-amine", "2-[(1S)-1-Aminopropyl]-5-fluoro-3-phenylquinazolin-4-one"], "SMILES": "C(CC)(N)C=1N(C(=O)C=2C(N1)=CC=CC2F)C3=CC=CC=C3", "physical_data": {"Molecular Weight": "297.33", "Molecular Formula": "C17H16FN3O", "Melting Point": "166-167 \u00b0C"}}