{"cas_no": "87051-43-2", "cn_name": "\u5229\u5766\u4e1d\u6797", "en_name": ["Ritanserin", "5H-Thiazolo[3,2-a]pyrimidin-5-one, 6-[2-[4-[bis(4-fluorophenyl)methylene]-1-piperidinyl]ethyl]-7-methyl-", "6-[2-[4-[Bis(4-fluorophenyl)methylene]-1-piperidinyl]ethyl]-7-methyl-5H-thiazolo[3,2-a]pyrimidin-5-one", "Ritanserin", "Tiserton", "ZINC 00538314", "MeSH ID: D016713"], "SMILES": "C(=C1CCN(CCC=2C(=O)N3C(=NC2C)SC=C3)CC1)(C4=CC=C(F)C=C4)C5=CC=C(F)C=C5", "physical_data": {"Molecular Weight": "477.57", "Molecular Formula": "C27H25F2N3OS", "Melting Point": "145.5 \u00b0C"}}