{"cas_no": "870718-06-2", "cn_name": "2,4-\u4e8c\u6c1f-3-\u7532\u9170\u57fa\u82ef\u57fa\u787c\u9178", "en_name": ["(2,4-Difluoro-3-formylphenyl)boronic acid", "Boronic acid, B-(2,4-difluoro-3-formylphenyl)-", "Boronic acid, (2,4-difluoro-3-formylphenyl)-", "B-(2,4-Difluoro-3-formylphenyl)boronic acid", "(2,4-Difluoro-3-formylphenyl)boronic acid", "2,4-Difluoro-3-formylbenzeneboronic acid"], "SMILES": "C(=O)C1=C(F)C(B(O)O)=CC=C1F", "physical_data": {"Molecular Weight": "185.92", "Molecular Formula": "C7H5BF2O3", "Melting Point": "225-230 \u00b0C"}}