{"cas_no": "870997-57-2", "cn_name": "2-\u6c28\u57fa-N,3-\u4e8c\u7532\u57fa\u82ef\u7532\u9170\u80fa", "en_name": ["2-Amino-N,3-dimethylbenzamide", "Benzamide, 2-amino-N,3-dimethyl-", "2-Amino-N,3-dimethylbenzamide", "2-Amino-3-methyl-N-methylbenzamide", "2-Amino-3,N-dimethyl-benzamide"], "SMILES": "C(NC)(=O)C1=C(N)C(C)=CC=C1", "physical_data": {"Molecular Weight": "164.20", "Molecular Formula": "C9H12N2O", "Melting Point": "115-117 \u00b0C"}}