{"cas_no": "871-92-1", "cn_name": "\u6b63\u8f9b\u57fa\u7845", "en_name": ["Octylsilane", "Silane, octyl-", "Octylsilane"], "SMILES": "C(CCCC)CCC[SiH3]", "physical_data": {"Molecular Weight": "144.33", "Molecular Formula": "C8H20Si", "Boiling Point": "162-163 \u00b0C", "Density": "0.746 g/cm\u00b3"}}