{"cas_no": "871-58-9", "cn_name": "\u4e01\u57fa\u9ec4\u539f\u9178\u94be", "en_name": ["Potassium butyl xanthate", "Carbonodithioic acid, O-butyl ester, potassium salt (1:1)", "Carbonic acid, dithio-, O-butyl ester, potassium salt", "Carbonodithioic acid, O-butyl ester, potassium salt", "Xanthic acid, butyl-, potassium salt", "Butyl potassium xanthate", "Potassium butyl xanthate", "Potassium butylxanthogenate", "Potassium O-butyl xanthate", "Potassium O-butyl dithiocarbonate", "Potassium n-butylxanthate", "Butyl potassium xanthogenate", "O-Butyl potassium dithiocarbonate", "Potassium butyl dithiocarbonate", "Potassium O-n-butyl xanthate", "Potassium O-butyl carbonodithioate"], "SMILES": "O(CCCC)C(=S)S.[K]", "physical_data": {"Molecular Weight": "", "Molecular Formula": "C5H10OS2.K", "Melting Point": "70 \u00b0C (decomp)"}}