{"cas_no": "871-84-1", "cn_name": "1\uff0c7-\u8f9b\u4e8c\u7094", "en_name": ["1,7-Octadiyne", "1,7-Octadiyne", "NSC 35135", "Octa-1,7-diyne"], "SMILES": "C(CCC#C)CC#C", "physical_data": {"Molecular Weight": "106.17", "Molecular Formula": "C8H10", "Boiling Point": "135.5 \u00b0C"}}