{"cas_no": "871-78-3", "cn_name": "N,N'-\u4e8c\u4e59\u9170\u4e59\u4e8c\u80fa", "en_name": ["N,N\u2032-Diacetylethylenediamine", "Acetamide, N,N\u2032-1,2-ethanediylbis-", "Acetamide, N,N\u2032-ethylenebis-", "N,N\u2032-1,2-Ethanediylbis[acetamide]", "1,2-Ethanediamine, N,N\u2032-diacetyl-", "N,N\u2032-Diacetylethylenediamine", "N,N\u2032-Ethylenebisacetamide", "Diacetylethylenediamine", "1,2-Diacetamidoethane", "N-[2-(Acetylamino)ethylene]acetamide", "NSC 603", "1,2-Ethylene bisacetamide", "1,2-Bis(acetylamino)ethane"], "SMILES": "C(CNC(C)=O)NC(C)=O", "physical_data": {"Molecular Weight": "144.17", "Molecular Formula": "C6H12N2O2", "Boiling Point": "200 \u00b0C @ Press: 2.5 Torr", "Melting Point": "175 \u00b0C"}}