{"cas_no": "871-41-0", "cn_name": "\u6b63\u5e9a\u57fa\u4e09\u6c2f\u7845\u70f7", "en_name": ["Trichloroheptylsilane", "Silane, trichloroheptyl-", "Trichloroheptylsilane", "Heptyltrichlorosilane"], "SMILES": "C(CCCCCC)[Si](Cl)(Cl)Cl", "physical_data": {"Molecular Weight": "233.64", "Molecular Formula": "C7H15Cl3Si", "Boiling Point": "211-212 \u00b0C", "Density": "1.087 g/cm\u00b3"}}