{"cas_no": "871-70-5", "cn_name": "\u5341\u516b\u70f7\u4e8c\u9178", "en_name": ["Octadecanedioic acid", "Octadecanedioic acid", "1,16-Hexadecanedicarboxylic acid", "1,18-Octadecanedioic acid", "1,16-Dicarboxyhexadecane", "Emerox 118", "Inherent C 18"], "SMILES": "C(CC(O)=O)CCCCCCCCCCCCCCC(O)=O", "physical_data": {"Molecular Weight": "314.46", "Molecular Formula": "C18H34O4", "Melting Point": "118 \u00b0C"}}