{"cas_no": "871-76-1", "cn_name": "\u6c28\u4e59\u57fa\u786b\u919a", "en_name": ["2,2\u2032-Thiobis[ethanamine]", "Ethanamine, 2,2\u2032-thiobis-", "Ethylamine, 2,2\u2032-thiobis-", "2,2\u2032-Thiobis[ethanamine]", "\u03b2,\u03b2\u2032-Diaminodiethyl sulfide", "Bis(\u03b2-aminoethyl) sulfide", "Monoethanolamine sulfide", "Bis(2-aminoethyl) sulfide", "3-Thiacadaverine", "1,5-Diamino-3-thiapentane", "2,2\u2032-Thiobis[ethylamine]", "Lanthionamine", "2,2\u2032-Thiodiethylamine", "1,7-Diaza-4-thiaheptane", "3-Thia-1,5-pentanediamine", "3-Thia-1,5-diaminopentane", "NSC 203144", "2-(2-Aminoethylthio)ethanamine", "2-[(2-Aminoethyl)sulfanyl]ethan-1-amine", "2-(2-Aminoethylsulfanyl)ethanamine", "2,2\u2032-Thiodiethanamine"], "SMILES": "S(CCN)CCN", "physical_data": {"Molecular Weight": "120.22", "Molecular Formula": "C4H12N2S", "Boiling Point": "130-131 \u00b0C @ Press: 22 Torr", "Melting Point": "0.5-1.5 \u00b0C", "Density": "1.051 g/cm\u00b3 @ Temp: 20 \u00b0C"}}