{"cas_no": "871-91-0", "cn_name": "7\u8f9b\u7094\u9187", "en_name": ["7-Octyn-1-ol", "7-Octyn-1-ol", "8-Hydroxy-1-octyne", "Oct-7-yne-1-ol", "Oct-7-yn-1-ol"], "SMILES": "C(CCC#C)CCCO", "physical_data": {"Molecular Weight": "126.20", "Molecular Formula": "C8H14O", "Boiling Point": "65-70 \u00b0C"}}