{"cas_no": "871-83-0", "cn_name": "\u5f02\u7678\u70f7", "en_name": ["2-Methylnonane", "Nonane, 2-methyl-", "2-Methylnonane", "NSC 24849"], "SMILES": "C(CCCCC)CC(C)C", "physical_data": {"Molecular Weight": "142.28", "Molecular Formula": "C10H22", "Boiling Point": "167.1 \u00b0C", "Melting Point": "-74.6 \u00b0C", "Density": "0.72805 g/cm\u00b3 @ Temp: 20 \u00b0C"}}