{"cas_no": "871126-15-7", "cn_name": "3-\u6c1f-2-\u7532\u9170\u57fa\u82ef\u787c\u9178", "en_name": ["B-(3-Fluoro-2-formylphenyl)boronic acid", "Boronic acid, B-(3-fluoro-2-formylphenyl)-", "Boronic acid, (3-fluoro-2-formylphenyl)-", "B-(3-Fluoro-2-formylphenyl)boronic acid", "(3-Fluoro-2-formylphenyl)boronic acid"], "SMILES": "C(=O)C1=C(B(O)O)C=CC=C1F", "physical_data": {"Molecular Weight": "167.93", "Molecular Formula": "C7H6BFO3", "Melting Point": "129.5 \u00b0C"}}