{"cas_no": "871231-44-6", "cn_name": "3-\u7532\u9170\u4e09\u6c1f\u7532\u82ef\u787c\u9178\u94be", "en_name": ["Borate(1-), trifluoro(3-formylphenyl)-, potassium (1:1), (T-4)-", "Borate(1-), trifluoro(3-formylphenyl)-, potassium (1:1), (T-4)-", "Borate(1-), trifluoro(3-formylphenyl)-, potassium, (T-4)-", "Potassium trifluoro(3-formylphenyl)borate"], "SMILES": "[B+3]([F-])([F-])([F-])[C-]=1C=C(C=O)C=CC1.[K+]", "physical_data": {"Molecular Weight": "", "Molecular Formula": "C7H5BF3O.K", "Melting Point": "196 \u00b0C"}}