{"cas_no": "87120-72-7", "cn_name": "1-Boc-4-\u6c28\u57fa\u54cc\u5576", "en_name": ["tert-Butyl 4-aminopiperidine-1-carboxylate", "1-Piperidinecarboxylic acid, 4-amino-, 1,1-dimethylethyl ester", "4-Amino-1-tert-butoxycarbonylpiperidine", "1-(t-Butoxycarbonyl)-4-aminopiperidine", "1-tert-Butoxycarbonyl-4-aminopiperidine", "tert-Butyl 4-aminopiperidine-1-carboxylate", "4-Amino-1-BOC-piperidine", "4-Aminopiperidine-1-carboxylic acid tert-butyl ester", "N-tert-Butoxycarbonyl-4-aminopiperidine", "1,1-Dimethylethyl 4-amino-1-piperidinecarboxylate", "[N-(tert-Butoxycarbonyl)piperidin-4-yl]amine", "N-Boc-4-aminopiperidine", "4-Amino-1-piperidinecarboxylic acid 1,1-dimethylethyl ester", "4-Amino-N-Boc-piperidine", "4-Amino-1-(tert-butyloxycarbonyl)piperidine", "tert-Butyl (4-aminopiperidin-1-yl)carbamate", "1-tert-Butyloxycarbonyl-4-aminopiperidine", "2-Methylpropan-2-yl 4-aminopiperidine-1-carboxylate", "1-Boc-piperidin-4-amine", "4-Amino-1-N-tert-butoxycarbonylpiperidine"], "SMILES": "C(OC(C)(C)C)(=O)N1CCC(N)CC1", "physical_data": {"Molecular Weight": "200.28", "Molecular Formula": "C10H20N2O2", "Melting Point": "66-67 \u00b0C"}}