{"cas_no": "87135-01-1", "cn_name": "1,6-\u53cc\u4e09\u7532\u6c27\u57fa\u7845\u57fa\u5df1\u70f7", "en_name": ["1,6-Bis(trimethoxysilyl)hexane", "2,11-Dioxa-3,10-disiladodecane, 3,3,10,10-tetramethoxy-", "3,3,10,10-Tetramethoxy-2,11-dioxa-3,10-disiladodecane", "1,6-Bis(trimethoxysilyl)hexane", "B 2495.7", "Z 6830", "KBE 6830", "KBM 3066", "SIB 1832.7", "Dowsil Z 6162"], "SMILES": "[Si](CCCCCC[Si](OC)(OC)OC)(OC)(OC)OC", "physical_data": {"Molecular Weight": "326.53", "Molecular Formula": "C12H30O6Si2", "Boiling Point": "161 \u00b0C @ Press: 2 Torr", "Density": "1.014 g/cm\u00b3"}}