{"cas_no": "871332-81-9", "cn_name": "3-\u785d\u57fa-5-(\u5421\u54af\u5549-1-\u7fb0\u57fa)\u82ef\u57fa\u787c\u9178", "en_name": ["B-[3-Nitro-5-(1-pyrrolidinylcarbonyl)phenyl]boronic acid", "Boronic acid, B-[3-nitro-5-(1-pyrrolidinylcarbonyl)phenyl]-", "Boronic acid, [3-nitro-5-(1-pyrrolidinylcarbonyl)phenyl]-", "B-[3-Nitro-5-(1-pyrrolidinylcarbonyl)phenyl]boronic acid", "(3-Nitro-5-(pyrrolidine-1-carbonyl)phenyl)boronicacid", "(3-Nitro-5-(pyrrolidine-1-carbonyl)phenyl)boronic acid"], "SMILES": "C(=O)(C1=CC(B(O)O)=CC(N(=O)=O)=C1)N2CCCC2", "physical_data": {"Molecular Weight": "264.04", "Molecular Formula": "C11H13BN2O5", "Melting Point": "177.2 \u00b0C"}}