{"cas_no": "87130-20-9", "cn_name": "\u4e59\u9709\u5a01", "en_name": ["Diethofencarb", "Carbamic acid, N-(3,4-diethoxyphenyl)-, 1-methylethyl ester", "Carbamic acid, (3,4-diethoxyphenyl)-, 1-methylethyl ester", "Diethofencarb", "Isopropyl N-(3,4-diethoxyphenyl)carbamate", "Isopropyl 3,4-diethoxycarbanilate", "S 32165", "Powmil", "Powmyl"], "SMILES": "O(CC)C1=C(OCC)C=CC(NC(OC(C)C)=O)=C1", "physical_data": {"Molecular Weight": "267.32", "Molecular Formula": "C14H21NO4", "Melting Point": "100.3 \u00b0C"}}