{"cas_no": "871362-31-1", "cn_name": "MGluR5 inhibitor", "en_name": ["2-Chloro-4-[2-[2,5-dimethyl-1-[4-(trifluoromethoxy)phenyl]-1H-imidazol-4-yl]ethynyl]pyridine", "Pyridine, 2-chloro-4-[2-[2,5-dimethyl-1-[4-(trifluoromethoxy)phenyl]-1H-imidazol-4-yl]ethynyl]-", "Pyridine, 2-chloro-4-[[2,5-dimethyl-1-[4-(trifluoromethoxy)phenyl]-1H-imidazol-4-yl]ethynyl]-", "2-Chloro-4-[2-[2,5-dimethyl-1-[4-(trifluoromethoxy)phenyl]-1H-imidazol-4-yl]ethynyl]pyridine", "2-Chloro-4-[2-[2,5-dimethyl-1-[4-(trifluoromethoxy)phenyl]imidazol-4-yl]ethynyl]pyridine"], "SMILES": "CC=1N(C(C)=NC1C#CC=2C=C(Cl)N=CC2)C3=CC=C(OC(F)(F)F)C=C3", "physical_data": {"Molecular Weight": "391.77", "Molecular Formula": "C19H13ClF3N3O", "Melting Point": "119-120 \u00b0C"}}