{"cas_no": "871726-73-7", "cn_name": "1,4,5,7-\u56db\u6c22-6H-\u5421\u5511\u5e76[3,4-C]\u5421\u5576-6-\u7fa7\u9178\u53d4\u4e01\u916f", "en_name": ["1,1-Dimethylethyl 1,4,5,7-tetrahydro-6H-pyrazolo[3,4-c]pyridine-6-carboxylate", "6H-Pyrazolo[3,4-c]pyridine-6-carboxylic acid, 1,4,5,7-tetrahydro-, 1,1-dimethylethyl ester", "1,1-Dimethylethyl 1,4,5,7-tetrahydro-6H-pyrazolo[3,4-c]pyridine-6-carboxylate", "tert-Butyl 1,4,5,7-tetrahydro-6H-pyrazolo[3,4-c]pyridine-6-carboxylate"], "SMILES": "C(OC(C)(C)C)(=O)N1CC2=C(CC1)C=NN2", "physical_data": {"Molecular Weight": "223.27", "Molecular Formula": "C11H17N3O2", "Melting Point": "74-75 \u00b0C"}}