{"cas_no": "871700-17-3", "cn_name": "\u66f2\u7f8e\u66ff\u5c3c", "en_name": ["Trametinib", "Acetamide, N-[3-[3-cyclopropyl-5-[(2-fluoro-4-iodophenyl)amino]-3,4,6,7-tetrahydro-6,8-dimethyl-2,4,7-trioxopyrido[4,3-d]pyrimidin-1(2H)-yl]phenyl]-", "N-[3-[3-Cyclopropyl-5-[(2-fluoro-4-iodophenyl)amino]-3,4,6,7-tetrahydro-6,8-dimethyl-2,4,7-trioxopyrido[4,3-d]pyrimidin-1(2H)-yl]phenyl]acetamide", "JTP 74057", "GSK 1120212", "Trametinib", "N-[3-[3-Cyclopropyl-5-(2-fluoro-4-iodo-phenylamino)-6,8-dimethyl-2,4,7-trioxo-3,4,6,7-tetrahydro-2H-pyrido[4,3-d]pyrimidin-1-yl]phenyl]acetamide", "G 02442104", "Mekinist", "GSK 212", "SNR 1611"], "SMILES": "N(C1=C2C(N(C(=O)N(C2=O)C3CC3)C4=CC(NC(C)=O)=CC=C4)=C(C)C(=O)N1C)C5=C(F)C=C(I)C=C5", "physical_data": {"Molecular Weight": "615.39", "Molecular Formula": "C26H23FIN5O4", "Melting Point": "300-301 \u00b0C"}}