{"cas_no": "871826-15-2", "cn_name": "6-\u6c2f-3-\u54d2\u55ea\u7532\u80fa", "en_name": ["6-Chloro-3-pyridazinemethanamine", "3-Pyridazinemethanamine, 6-chloro-", "6-Chloro-3-pyridazinemethanamine", "(6-Chloropyridazin-3-yl)methanamine"], "SMILES": "C(N)C1=CC=C(Cl)N=N1", "physical_data": {"Molecular Weight": "143.57", "Molecular Formula": "C5H6ClN3", "Melting Point": "97-98 \u00b0C"}}