{"cas_no": "87199-16-4", "cn_name": "3-\u7532\u9170\u57fa\u82ef\u787c\u9178", "en_name": ["3-Formylphenylboronic acid", "Boronic acid, B-(3-formylphenyl)-", "Boronic acid, (3-formylphenyl)-", "Benzeneboronic acid, m-formyl-", "B-(3-Formylphenyl)boronic acid", "m-Formylphenylboronic acid", "3-Formylphenylboronic acid", "(3-Formylbenzene)boronic acid"], "SMILES": "B(O)(O)C1=CC(C=O)=CC=C1", "physical_data": {"Molecular Weight": "149.94", "Molecular Formula": "C7H7BO3", "Melting Point": "112 \u00b0C"}}