{"cas_no": "87199-17-5", "cn_name": "4-\u7532\u9170\u57fa\u82ef\u787c\u9178", "en_name": ["4-Formylphenylboronic acid", "Boronic acid, B-(4-formylphenyl)-", "Boronic acid, (4-formylphenyl)-", "Benzeneboronic acid, p-formyl-", "B-(4-Formylphenyl)boronic acid", "p-Formylphenylboronic acid", "4-Formylphenylboronic acid", "p-Formylbenzeneboronic acid", "4-Formylbenzeneboronic acid", "4-Formylphenylborate", "4-FPBA"], "SMILES": "B(O)(O)C1=CC=C(C=O)C=C1", "physical_data": {"Molecular Weight": "149.94", "Molecular Formula": "C7H7BO3", "Melting Point": "128-130 \u00b0C"}}