{"cas_no": "872-49-1", "cn_name": "5-\u6c2f-1-\u7532\u57fa\u54aa\u5511", "en_name": ["5-Chloro-1-methyl-1H-imidazole", "1H-Imidazole, 5-chloro-1-methyl-", "Imidazole, 5-chloro-1-methyl-", "5-Chloro-1-methyl-1H-imidazole", "5-Chloro-1-methylimidazole", "1-Methyl-5-chloroimidazole"], "SMILES": "ClC=1N(C)C=NC1", "physical_data": {"Molecular Weight": "116.55", "Molecular Formula": "C4H5ClN2", "Boiling Point": "250-252 \u00b0C"}}