{"cas_no": "872-50-4", "cn_name": "N-\u7532\u57fa\u5421\u54af\u70f7\u916e", "en_name": ["N-Methyl-2-pyrrolidone", "2-Pyrrolidinone, 1-methyl-", "2-Pyrrolidone, 1-methyl-", "1-Methyl-2-pyrrolidinone", "N-Methylpyrrolidinone", "1-Methyl-5-pyrrolidinone", "NMP", "N-Methyl-2-pyrrolidone", "N-Methyl-\u03b1-pyrrolidinone", "N-Methyl-\u03b1-pyrrolidone", "N-Methyl-\u03b3-butyrolactam", "N-Methyl-2-pyrrolidinone", "N-Methylpyrrolidone", "M-Pyrol", "1-Methylazacyclopentan-2-one", "1-Methyl-2-pyrrolidone", "Pyrol M", "N-Methylpyrrolidone", "AgsolEx 1", "N 0131", "Microposit 2001", "N-Methyl-2-ketopyrrolidine", "N-Methylbutyrolactam", "Pharmasolve", "SL 1332", "NSC 4594", "N-Methylpyrrolidine-2-one", "M 0418", "EKOS 1", "NMP 1165", "LA 8E"], "SMILES": "O=C1N(C)CCC1", "physical_data": {"Molecular Weight": "99.13", "Molecular Formula": "C5H9NO", "Boiling Point": "202 \u00b0C @ Press: 760 Torr", "Melting Point": "-25 \u00b0C", "Density": "1.027 g/cm\u00b3 @ Temp: 25 \u00b0C"}}