{"cas_no": "872-10-6", "cn_name": "\u620a\u786b\u919a", "en_name": ["Pentyl sulfide", "Pentane, 1-(pentylthio)-", "Pentyl sulfide", "Pentane, 1,1\u2032-thiobis-", "1-(Pentylthio)pentane", "Amyl sulfide", "Di-n-pentyl sulfide", "6-Thiaundecane", "Diamyl sulfide", "Dipentyl sulfide", "Dipentyl thioether", "1-Pentylsulfanylpentane"], "SMILES": "S(CCCCC)CCCCC", "physical_data": {"Molecular Weight": "174.35", "Molecular Formula": "C10H22S", "Boiling Point": "230.1 \u00b0C", "Melting Point": "-51.3 \u00b0C", "Density": "0.85538 g/cm\u00b3 @ Temp: 0 \u00b0C"}}