{"cas_no": "872-53-7", "cn_name": "\u73af\u620a\u57fa\u7532\u919b", "en_name": ["Cyclopentanecarboxaldehyde", "Cyclopentanecarboxaldehyde", "Cyclopentanealdehyde", "Cyclopentylformaldehyde", "Formylcyclopentane", "Cyclopentyl aldehyde", "NSC 17492", "Cyclopentanecarbaldehyde"], "SMILES": "C(=O)C1CCCC1", "physical_data": {"Molecular Weight": "98.14", "Molecular Formula": "C6H10O", "Boiling Point": "133.5 \u00b0C", "Melting Point": "154-156 \u00b0C", "Density": "0.9356 g/cm\u00b3 @ Temp: 25 \u00b0C"}}