{"cas_no": "872-35-5", "cn_name": "2-\u5def\u57fa\u54aa\u5511", "en_name": ["2-Mercaptoimidazole", "2H-Imidazole-2-thione, 1,3-dihydro-", "Imidazole-2-thiol", "4-Imidazoline-2-thione", "2-Imidazolemercaptan", "1,3-Dihydro-2H-imidazole-2-thione", "2-Mercaptoimidazole", "1H-Imidazole-2-thiol", "2-Thioxo-2,3-dihydroimidazole", "1,3-Vinylenethiourea", "2-Mercapto-1H-imidazole", "1,3-Dihydroimidazole-2-thione", "NSC 112715", "2-Thioimidazole", "1-Imidazole-2(3H)-thione"], "SMILES": "S=C1NC=CN1", "physical_data": {"Molecular Weight": "100.14", "Molecular Formula": "C3H4N2S", "Melting Point": "225-227 \u00b0C"}}