{"cas_no": "872-32-2", "cn_name": "2-\u7532\u57fa\u5421\u54af\u5549", "en_name": ["2-Methyl-1-pyrroline", "2H-Pyrrole, 3,4-dihydro-5-methyl-", "1-Pyrroline, 2-methyl-", "3,4-Dihydro-5-methyl-2H-pyrrole", "2-Methyl-1-pyrroline", "2-Methyl-\u03941-pyrroline", "5-Methyl-3,4-dihydro-2H-pyrrole", "4,5-Dihydro-2-methyl-3H-pyrrole"], "SMILES": "CC=1CCCN1", "physical_data": {"Molecular Weight": "83.13", "Molecular Formula": "C5H9N", "Boiling Point": "99-101 \u00b0C"}}