{"cas_no": "872-05-9", "cn_name": "\u6b63\u7678\u70ef", "en_name": ["1-Decene", "1-Decene", "n-1-Decene", "\u03b1-Decene", "1-n-Decene", "Gulftene 10", "Dialen 10", "Neodene 10", "NSC 62122", "Linealene 10"], "SMILES": "C(CCCC=C)CCCC", "physical_data": {"Molecular Weight": "140.27", "Molecular Formula": "C10H20", "Boiling Point": "170.56 \u00b0C @ Press: 760 Torr", "Melting Point": "-66.3 \u00b0C", "Density": "0.7408 g/cm\u00b3 @ Temp: 20 \u00b0C"}}