{"cas_no": "872-55-9", "cn_name": "2-\u4e59\u57fa\u567b\u5429", "en_name": ["2-Ethylthiophene", "Thiophene, 2-ethyl-", "2-Ethylthiophene"], "SMILES": "C(C)C1=CC=CS1", "physical_data": {"Molecular Weight": "112.19", "Molecular Formula": "C6H8S", "Boiling Point": "134 \u00b0C", "Density": "0.9928 g/cm\u00b3 @ Temp: 20 \u00b0C"}}