{"cas_no": "872-71-9", "cn_name": "\u5421\u54af\u70f7\u4e8c\u786b\u4ee3\u7532\u9178\u94a0", "en_name": ["Sodium pyrrolidinedithiocarbamate", "1-Pyrrolidinecarbodithioic acid, sodium salt (1:1)", "1-Pyrrolidinecarbodithioic acid, sodium salt", "Sodium pyrrolidine-N-carbodithioate", "Sodium tetramethylenedithiocarbamate", "Sodium 1-pyrrolidinedithiocarboxylate", "Sodium 1-pyrrolidinecarbodithioate", "Sodium N-pyrrolidinedithiocarboxylate", "Sodium pyrrolidinedithioformate", "Sodium pyrrolidinedithiocarbamate", "Sodium pyrrolidinecarbodithioate", "Sodium tetrahydropyrrolyldithiocarbamate"], "SMILES": "C(=S)(S)N1CCCC1.[Na]", "physical_data": {"Molecular Weight": "", "Molecular Formula": "C5H9NS2.Na", "Melting Point": "&gt;300 \u00b0C"}}