{"cas_no": "872-85-5", "cn_name": "4-\u5421\u5576\u7532\u919b", "en_name": ["4-Pyridinecarboxaldehyde", "4-Pyridinecarboxaldehyde", "Isonicotinaldehyde", "4-Pyridinealdehyde", "p-Pyridinealdehyde", "4-Formylpyridine", "Pyridine-4-carbaldehyde", "Isonicotinic aldehyde", "\u03b3-Formylpyridine", "Pyridin-4-al", "Pyridin-4-ylcarboxaldehyde", "p-Formylpyridine", "NSC 8953", "Pyridin-4-carboxaldehyde", "4-Pyridylcarboxyaldehyde", "p-Pyridylaldehyde"], "SMILES": "C(=O)C=1C=CN=CC1", "physical_data": {"Molecular Weight": "107.11", "Molecular Formula": "C6H5NO", "Boiling Point": "77-78 \u00b0C", "Melting Point": "164-165 \u00b0C"}}