{"cas_no": "872-31-1", "cn_name": "3-\u6eb4\u567b\u5429", "en_name": ["3-Bromothiophene", "Thiophene, 3-bromo-", "3-Bromothiophene", "3-Thienyl bromide", "\u03b2-Bromothiophene", "NSC 96612", "3-Bromothiofuran"], "SMILES": "BrC=1C=CSC1", "physical_data": {"Molecular Weight": "163.04", "Molecular Formula": "C4H3BrS", "Boiling Point": "150 \u00b0C", "Melting Point": "&lt;25 \u00b0C"}}