{"cas_no": "872-36-6", "cn_name": "\u78b3\u9178\u4e9a\u4e59\u70ef\u916f", "en_name": ["Vinylene carbonate", "1,3-Dioxol-2-one", "Carbonic acid, cyclic vinylene ester", "Vinylene carbonate", "NSC 20980", "NSC 47201", "Vinylidene carbonate", "LBG 84922", "2H-1,3-Dioxol-2-one"], "SMILES": "O=C1OC=CO1", "physical_data": {"Molecular Weight": "86.05", "Molecular Formula": "C3H2O3", "Boiling Point": "73-74 \u00b0C @ Press: 32 Torr", "Melting Point": "20.5 \u00b0C"}}