{"cas_no": "872-93-5", "cn_name": "3-\u7532\u57fa\u73af\u4e01\u781c", "en_name": ["3-Methylsulfolane", "Thiophene, tetrahydro-3-methyl-, 1,1-dioxide", "3-Methylsulfolane", "3-Methyltetrahydrothiophene 1,1-dioxide", "3-Methyltetramethylene sulfone", "3-Methylthiolane 1,1-dioxide", "Tetrahydro-3-methylthiophene S,S-dioxide", "NSC 77078", "3-Methyl-1\u03bb6-thiolane-1,1-dione"], "SMILES": "O=S1(=O)CC(C)CC1", "physical_data": {"Molecular Weight": "134.20", "Molecular Formula": "C5H10O2S", "Boiling Point": "276 \u00b0C", "Melting Point": "1 \u00b0C", "Density": "1.1824 g/cm\u00b3 @ Temp: 20 \u00b0C"}}