{"cas_no": "87205-99-0", "cn_name": "\u4e8c\u6c22\u4e39\u53c2\u916e I", "en_name": ["Dihydrotanshinone I", "Phenanthro[1,2-b]furan-10,11-dione, 1,2-dihydro-1,6-dimethyl-, (1R)-", "(1R)-1,2-Dihydro-1,6-dimethylphenanthro[1,2-b]furan-10,11-dione", "(-)-Dihydrotanshinone I", "Tanshinone I, dihydro-", "Dihydrotanshinone I", "15,16-Dihydrotanshinone I", "(1R)-1,6-Dimethyl-1,2-dihydronaphtho[1,2-g][1]benzofuran-10,11-dione"], "SMILES": "O=C1C=2C(C3=C(C1=O)C(C)CO3)=CC=C4C2C=CC=C4C", "physical_data": {"Molecular Weight": "278.30", "Molecular Formula": "C18H14O3", "Melting Point": "201-203 \u00b0C"}}