{"cas_no": "87237-48-7", "cn_name": "\u5421\u6c1f\u7532\u79be\u7075", "en_name": ["Haloxyfop-ethoxyethyl", "Propanoic acid, 2-[4-[[3-chloro-5-(trifluoromethyl)-2-pyridinyl]oxy]phenoxy]-, 2-ethoxyethyl ester", "Dowco 453", "Gallant", "Gallant 125EE", "Haloxyfop-ethoxyethyl", "Zellek", "Haloxyfop ethoxyethyl ester", "Chloretazate", "Haloxyfop-etotyl", "Dowco 453 ethoxyethyl", "Dowco 453 ethoxyethyl ester"], "SMILES": "O(C1=C(Cl)C=C(C(F)(F)F)C=N1)C2=CC=C(OC(C(OCCOCC)=O)C)C=C2", "physical_data": {"Molecular Weight": "433.81", "Molecular Formula": "C19H19ClF3NO5", "Melting Point": "60 \u00b0C"}}