{"cas_no": "87239-81-4", "cn_name": "\u5934\u5b62\u6cca\u809f\u916f", "en_name": ["Cefpodoxime proxetil", "5-Thia-1-azabicyclo[4.2.0]oct-2-ene-2-carboxylic acid, 7-[[(2Z)-2-(2-amino-4-thiazolyl)-2-(methoxyimino)acetyl]amino]-3-(methoxymethyl)-8-oxo-, 1-[[(1-methylethoxy)carbonyl]oxy]ethyl ester, (6R,7R)-", "5-Thia-1-azabicyclo[4.2.0]oct-2-ene-2-carboxylic acid, 7-[[(2-amino-4-thiazolyl)(methoxyimino)acetyl]amino]-3-(methoxymethyl)-8-oxo-, 1-[[(1-methylethoxy)carbonyl]oxy]ethyl ester, [6R-[6\u03b1,7\u03b2(Z)]]-", "5-Thia-1-azabicyclo[4.2.0]oct-2-ene-2-carboxylic acid, 7-[[(2Z)-(2-amino-4-thiazolyl)(methoxyimino)acetyl]amino]-3-(methoxymethyl)-8-oxo-, 1-[[(1-methylethoxy)carbonyl]oxy]ethyl ester, (6R,7R)-", "CS 807 (pharmaceutical)", "CS 807", "Cefpodoxime proxetil", "U 76252", "Antibiotic CS 807", "RU 51807", "Banan", "(RS)-1-(Isopropoxycarbonyloxy)ethyl (+)-(6R,7R)-7-[2-(2-amino-4-thiazolyl)-2-[(Z)-(methoxyimino]acetamido]-3-methoxymethyl-8-oxo-5-thia-1-azabicyclo[4.2.0]oct-2-ene-2-carboxylate", "Orelox", "Vantin", "Otreon", "Cefodox", "Cephpodoxime proxetil", "Cepodem", "Cefoprox", "Cefoflam", "Simplicef"], "SMILES": "C(OC(OC(OC(C)C)=O)C)(=O)C=1N2C(C(NC(C(=NOC)C=3N=C(N)SC3)=O)C2=O)SCC1COC", "physical_data": {"Molecular Weight": "557.60", "Molecular Formula": "C21H27N5O9S2", "Melting Point": "98-103 \u00b0C"}}