{"cas_no": "87233-62-3", "cn_name": "\u5bcc\u9a6c\u9178\u4f9d\u7f8e\u65af\u6c40", "en_name": ["Emedastine difumarate", "1H-Benzimidazole, 1-(2-ethoxyethyl)-2-(hexahydro-4-methyl-1H-1,4-diazepin-1-yl)-, (2E)-2-butenedioate (1:2)", "1H-Benzimidazole, 1-(2-ethoxyethyl)-2-(hexahydro-4-methyl-1H-1,4-diazepin-1-yl)-, (E)-2-butenedioate (1:2)", "1H-1,4-Diazepine, 1H-benzimidazole deriv.", "KB 2413", "LY 188695", "KG 2413", "Emedastine difumarate", "AL 3432A", "Rapimine", "Emadine"], "SMILES": "C(=CC(O)=O)C(O)=O.C(COCC)N1C(=NC=2C1=CC=CC2)N3CCCN(C)CC3", "physical_data": {"Molecular Weight": "", "Molecular Formula": "C17H26N4O.2C4H4O4", "Melting Point": "148-151 \u00b0C"}}