{"cas_no": "87269-87-2", "cn_name": "(1S,3S,5S)-2-\u6c2e\u6742\u53cc\u73af[3,3,0]\u8f9b\u70f7-3-\u7fa7\u9178\u82c4\u916f\u76d0\u9178\u76d0", "en_name": ["Cyclopenta[b]pyrrole-2-carboxylic acid, octahydro-, phenylmethyl ester, hydrochloride (1:1), (2S,3aS,6aS)-", "Cyclopenta[b]pyrrole-2-carboxylic acid, octahydro-, phenylmethyl ester, hydrochloride (1:1), (2S,3aS,6aS)-", "Cyclopenta[b]pyrrole-2-carboxylic acid, octahydro-, phenylmethyl ester, hydrochloride, [2S-(2\u03b1,3a\u03b2,6a\u03b2)]-", "Cyclopenta[b]pyrrole-2-carboxylic acid, octahydro-, phenylmethyl ester, hydrochloride, (2S,3aS,6aS)-", "(2S,3aS,6aS)-octahydrocyclopenta[b]pyrrole-2-carboxylic acid benzyl ester hydrochloride", "Benzyl (2S,3aS,6aS)-octahydrocyclopenta[b]pyrrole-2-carboxylate hydrochloride", "(2S,3aS,6aS)-Octahydrocyclopenta[b]pyrrole-2-carboxylic acid benzyl ester hydrochloride"], "SMILES": "C(OCC1=CC=CC=C1)(=O)C2CC3C(N2)CCC3.Cl", "physical_data": {"Molecular Weight": "", "Molecular Formula": "C15H19NO2.ClH", "Melting Point": "178-180 \u00b0C"}}