{"cas_no": "873-55-2", "cn_name": "\u82ef\u4e9a\u78fa\u9178\u94a0", "en_name": ["Sodium benzenesulfinate", "Benzenesulfinic acid, sodium salt (1:1)", "Benzenesulfinic acid, sodium salt", "Sodium benzenesulfinate", "Sodium phenylsulfinate", "NSC 135147", "NSC 30629", "Benzenesulfinic acid sodium salt"], "SMILES": "S(=O)(O)C1=CC=CC=C1.[Na]", "physical_data": {"Molecular Weight": "", "Molecular Formula": "C6H6O2S.Na", "Melting Point": "&gt;300 \u00b0C"}}