{"cas_no": "873-40-5", "cn_name": "2,3,5-\u4e09\u6c2f\u5421\u55ea", "en_name": ["2,3,5-Trichloropyrazine", "Pyrazine, 2,3,5-trichloro-", "Pyrazine, trichloro-", "2,3,5-Trichloropyrazine", "Trichloropyrazine"], "SMILES": "ClC=1C(Cl)=NC=C(Cl)N1", "physical_data": {"Molecular Weight": "183.42", "Molecular Formula": "C4HCl3N2", "Melting Point": "32 \u00b0C"}}