{"cas_no": "873-50-7", "cn_name": "3-\u7532\u57fa\u5421\u5511-1-\u6c28\u7532\u9170\u80fa", "en_name": ["1-Carbamoyl-3-methylpyrazole", "1H-Pyrazole-1-carboxamide, 3-methyl-", "Pyrazole-1-carboxamide, 3-methyl-", "3-Methyl-1H-pyrazole-1-carboxamide", "3-Methylpyrazole-1-carboxamide", "1-Carbamoyl-3-methylpyrazole", "NSC 51116", "NSC 75630", "3-Methyl-pyrazole-1-carboxylic acid amide"], "SMILES": "C(N)(=O)N1N=C(C)C=C1", "physical_data": {"Molecular Weight": "125.13", "Molecular Formula": "C5H7N3O", "Melting Point": "127-128 \u00b0C"}}