{"cas_no": "873-62-1", "cn_name": "3-\u7f9f\u57fa\u82ef\u8148", "en_name": ["3-Cyanophenol", "Benzonitrile, 3-hydroxy-", "Benzonitrile, m-hydroxy-", "3-Hydroxybenzonitrile", "3-Cyanophenol", "m-Cyanophenol", "m-Hydroxybenzonitrile", "m-Cyanophenol", "NSC 60108"], "SMILES": "C(#N)C1=CC(O)=CC=C1", "physical_data": {"Molecular Weight": "119.12", "Molecular Formula": "C7H5NO", "Boiling Point": "179-180 \u00b0C @ Press: 13 Torr", "Melting Point": "79-81 \u00b0C"}}