{"cas_no": "873-32-5", "cn_name": "\u90bb\u6c2f\u82ef\u8148", "en_name": ["2-Chlorobenzonitrile", "Benzonitrile, 2-chloro-", "Benzonitrile, o-chloro-", "2-Chlorobenzonitrile", "o-Chlorobenzonitrile", "o-Cyanochlorobenzene", "o-Chlorocyanobenzene", "2-Cyanochlorobenzene", "2-Chlorophenyl cyanide", "1-Chloro-2-cyanobenzene", "NSC 8438"], "SMILES": "C(#N)C1=C(Cl)C=CC=C1", "physical_data": {"Molecular Weight": "137.57", "Molecular Formula": "C7H4ClN", "Boiling Point": "232 \u00b0C", "Melting Point": "46.3 \u00b0C"}}