{"cas_no": "873-77-8", "cn_name": "4-\u6c2f\u82ef\u57fa\u6eb4\u5316\u9541", "en_name": ["(4-Chlorophenyl)magnesium bromide", "Magnesium, bromo(4-chlorophenyl)-", "Magnesium, bromo(p-chlorophenyl)-", "p-Chlorophenylmagnesium bromide", "Bromo(4-chlorophenyl)magnesium", "(4-Chlorophenyl)magnesium bromide"], "SMILES": "[Mg](Br)C1=CC=C(Cl)C=C1", "physical_data": {"Molecular Weight": "", "Molecular Formula": "C6H4BrClMg", "Boiling Point": "115 \u00b0C @ Press: 0.04 Torr", "Melting Point": "168-169 \u00b0C"}}