{"cas_no": "873-83-6", "cn_name": "4-\u6c28\u57fa-2,6-\u4e8c\u7f9f\u57fa\u5627\u5576", "en_name": ["6-Aminouracil", "2,4(1H,3H)-Pyrimidinedione, 6-amino-", "Uracil, 6-amino-", "6-Amino-2,4(1H,3H)-pyrimidinedione", "6-Aminouracil", "6-Amino-2,4-dihydroxypyrimidine", "4-Aminouracil", "2,4-Dihydroxy-6-aminopyrimidine", "4-Amino-2,6-dihydroxypyrimidine", "6-Amino-2,4-dioxo-1,2,3,4-tetrahydropyrimidine", "NSC 15919", "NSC 7367", "6-Aminopyrimidine-2,4(1H,3H)-dione", "6-Aminopyrimidine-2,4-diol"], "SMILES": "NC1=CC(=O)NC(=O)N1", "physical_data": {"Molecular Weight": "127.10", "Molecular Formula": "C4H5N3O2", "Melting Point": "310-312 \u00b0C"}}