{"cas_no": "873-38-1", "cn_name": "2-\u6eb4-4-\u6c2f\u82ef\u80fa", "en_name": ["2-Bromo-4-chloroaniline", "Benzenamine, 2-bromo-4-chloro-", "Aniline, 2-bromo-4-chloro-", "2-Bromo-4-chlorobenzenamine", "2-Bromo-4-chloroaniline", "NSC 139478", "4-Chloro-2-bromoaniline", "2-Bromo-4-chloro-phenylamine"], "SMILES": "BrC1=C(N)C=CC(Cl)=C1", "physical_data": {"Molecular Weight": "206.47", "Molecular Formula": "C6H5BrClN", "Melting Point": "65-67 \u00b0C"}}