{"cas_no": "873-74-5", "cn_name": "\u5bf9\u6c28\u57fa\u82ef\u8148", "en_name": ["4-Aminobenzonitrile", "Benzonitrile, 4-amino-", "Benzonitrile, p-amino-", "4-Aminobenzonitrile", "4-Cyanoaniline", "1-Amino-4-cyanobenzene", "p-Aminobenzonitrile", "p-Cyanoaniline", "4-Cyanobenzenamine", "4-Aminobenzenenitrile", "4-Cyanophenylamine", "NSC 7625", "4-Cyanobenzeneamine", "p-Cyanophenylamine", "4-Aminophenylnitrile"], "SMILES": "C(#N)C1=CC=C(N)C=C1", "physical_data": {"Molecular Weight": "118.14", "Molecular Formula": "C7H6N2", "Boiling Point": "167 \u00b0C @ Press: 1.1 Torr", "Melting Point": "83-85 \u00b0C"}}