{"cas_no": "873-49-4", "cn_name": "\u73af\u4e19\u57fa\u82ef", "en_name": ["Phenylcyclopropane", "Benzene, cyclopropyl-", "Cyclopropylbenzene", "Cyclopropane, phenyl-", "Phenylcyclopropane", "1-Phenylcyclopropane", "NSC 3018"], "SMILES": "C1(CC1)C2=CC=CC=C2", "physical_data": {"Molecular Weight": "118.18", "Molecular Formula": "C9H10", "Boiling Point": "173.6 \u00b0C", "Melting Point": "-31 \u00b0C", "Density": "0.9449 g/cm\u00b3 @ Temp: 15 \u00b0C"}}