{"cas_no": "873-76-7", "cn_name": "4-\u6c2f\u82ef\u7532\u9187", "en_name": ["4-Chlorobenzyl alcohol", "Benzenemethanol, 4-chloro-", "Benzyl alcohol, p-chloro-", "4-Chlorobenzenemethanol", "p-Chlorobenzyl alcohol", "4-Chlorobenzyl alcohol", "p-Chlorotoluol", "4-Chlorophenylmethanol", "NSC 5286", "1-Chloro-4-(hydroxymethyl)benzene"], "SMILES": "C(O)C1=CC=C(Cl)C=C1", "physical_data": {"Molecular Weight": "142.58", "Molecular Formula": "C7H7ClO", "Boiling Point": "235 \u00b0C", "Melting Point": "75 \u00b0C"}}