{"cas_no": "873-66-5", "cn_name": "\u7532\u57fa\u82ef\u4e59\u70ef", "en_name": ["trans-\u03b2-Methylstyrene", "Benzene, (1E)-1-propen-1-yl-", "Benzene, propenyl-, (E)-", "Benzene, 1-propenyl-, (E)-", "Benzene, (1E)-1-propenyl-", "(1E)-1-Propen-1-ylbenzene", "trans-1-Propenylbenzene", "trans-\u03b2-Methylstyrene", "trans-1-Phenylpropene", "trans-Propenylbenzene", "trans-1-Phenyl-1-propene", "(E)-1-Propenylbenzene", "(E)-1-Phenyl-1-propene", "trans-1-Methyl-2-phenylethene", "(E)-1-Phenylpropene", "(E)-\u03b2-Methylstyrene", "(E)-Propenylbenzene", "NSC 73958", "(1E)-1-Propenylbenzene", "trans-3-Phenyl-2-propene", "(E)-1-Phenylpropene", "(E)-1-Phenyl-1-propene", "(E)-(1-Propen-1-yl)benzene", "(E)-Prop-1-en-1ylbenzene"], "SMILES": "C(=CC)C1=CC=CC=C1", "physical_data": {"Molecular Weight": "118.18", "Molecular Formula": "C9H10", "Boiling Point": "175 \u00b0C", "Melting Point": "-29.3 \u00b0C", "Density": "0.911 g/cm\u00b3"}}