{"cas_no": "873-94-9", "cn_name": "3,3,5-\u4e09\u7532\u57fa\u73af\u5df1\u916e", "en_name": ["3,3,5-Trimethylcyclohexanone", "Cyclohexanone, 3,3,5-trimethyl-", "3,3,5-Trimethylcyclohexanone", "Dihydroisophorone", "3,3,5-Trimethyl-1-cyclohexanone", "(\u00b1)-3,3,5-Trimethylcyclohexanone", "(\u00b1)-Dihydroisophorone"], "SMILES": "CC1(C)CC(C)CC(=O)C1", "physical_data": {"Molecular Weight": "140.22", "Molecular Formula": "C9H16O", "Boiling Point": "189 \u00b0C", "Melting Point": "180 \u00b0C", "Density": "0.9223 g/cm\u00b3 @ Temp: 19 \u00b0C"}}