{"cas_no": "873-69-8", "cn_name": "2-\u5421\u5576\u7532\u919b\u809f", "en_name": ["Pyridine 2-aldoxime", "2-Pyridinecarboxaldehyde, oxime", "Picolinaldehyde, oxime", "2-Pyridinealdoxime", "Picolinaldoxime", "2-Hydroxyiminomethyl pyridine", "2-Pyridylaldoxime", "Pyridine 2-aldoxime", "2-Formylpyridine ketoxime", "2-Pyridinaldoxime", "2-Formylpyridine oxime", "2-Aldoximepyridine", "Pyridine-2-carbaldoxime", "NSC 66484", "Pyridine-2-carboxaldoxime"], "SMILES": "C(=NO)C1=CC=CC=N1", "physical_data": {"Molecular Weight": "122.12", "Molecular Formula": "C6H6N2O", "Melting Point": "114 \u00b0C"}}