{"cas_no": "873-63-2", "cn_name": "3-\u6c2f\u82ef\u7532\u9187", "en_name": ["3-Chlorobenzyl alcohol", "Benzenemethanol, 3-chloro-", "Benzyl alcohol, m-chloro-", "3-Chlorobenzenemethanol", "3-Chlorobenzyl alcohol", "m-Chlorobenzyl alcohol", "(3-Chlorophenyl)methanol"], "SMILES": "C(O)C1=CC(Cl)=CC=C1", "physical_data": {"Molecular Weight": "142.58", "Molecular Formula": "C7H7ClO", "Boiling Point": "237 \u00b0C", "Melting Point": "236 \u00b0C"}}