{"cas_no": "873-95-0", "cn_name": "3-\u6c28\u57fa-5,5-\u4e8c\u7532\u57fa-2-\u73af\u5df1\u70ef-1-\u916e", "en_name": ["3-Amino-5,5-dimethyl-2-cyclohexen-1-one", "2-Cyclohexen-1-one, 3-amino-5,5-dimethyl-", "3-Amino-5,5-dimethyl-2-cyclohexen-1-one", "3-Amino-1,1-dimethyl-3-cyclohexen-5-one", "3-Amino-5,5-dimethylcyclohex-2-enone", "NSC 176345"], "SMILES": "CC1(C)CC(N)=CC(=O)C1", "physical_data": {"Molecular Weight": "139.19", "Molecular Formula": "C8H13NO", "Melting Point": "167 \u00b0C"}}