{"cas_no": "873-64-3", "cn_name": "2-\u4e59\u57fa-4,5-\u4e8c\u7532\u57fa\u567b\u5511", "en_name": ["2-Ethyl-4,5-dimethylthiazole", "Thiazole, 2-ethyl-4,5-dimethyl-", "2-Ethyl-4,5-dimethylthiazole", "4,5-Dimethyl-2-ethylthiazole", "2-Ethyl-4,5-dimethyl-1,3-thiazole"], "SMILES": "C(C)C1=NC(C)=C(C)S1", "physical_data": {"Molecular Weight": "141.23", "Molecular Formula": "C7H11NS", "Boiling Point": "63-64 \u00b0C @ Press: 3 Torr"}}