{"cas_no": "873-75-6", "cn_name": "4-\u6eb4\u82c4\u9187", "en_name": ["4-Bromobenzyl alcohol", "Benzenemethanol, 4-bromo-", "Benzyl alcohol, p-bromo-", "4-Bromobenzenemethanol", "p-Bromobenzyl alcohol", "4-Bromobenzyl alcohol", "(p-Bromophenyl)methanol", "(4-Bromophenyl)methanol", "4-Hydroxymethyl-1-bromobenzene", "1-(p-Bromophenyl)methanol", "1-Bromo-4-(hydroxymethyl)benzene"], "SMILES": "C(O)C1=CC=C(Br)C=C1", "physical_data": {"Molecular Weight": "187.03", "Molecular Formula": "C7H7BrO", "Boiling Point": "125-140 \u00b0C @ Press: 11 Torr", "Melting Point": "76.5-77.0 \u00b0C"}}