{"cas_no": "873055-58-4", "cn_name": "5-\u6c28\u57fa-2,4-\u4e8c-\u53d4\u4e01\u57fa-\u82ef\u915a", "en_name": ["5-Amino-2,4-bis(1,1-dimethylethyl)phenol", "Phenol, 5-amino-2,4-bis(1,1-dimethylethyl)-", "5-Amino-2,4-bis(1,1-dimethylethyl)phenol", "5-Amino-2,4-di-tert-butylphenol"], "SMILES": "C(C)(C)(C)C1=CC(C(C)(C)C)=C(O)C=C1N", "physical_data": {"Molecular Weight": "221.34", "Molecular Formula": "C14H23NO", "Melting Point": "86-89 \u00b0C"}}