{"cas_no": "873054-44-5", "cn_name": "\u4f9d\u4f10\u5361\u6258", "en_name": ["Ivacaftor", "3-Quinolinecarboxamide, N-[2,4-bis(1,1-dimethylethyl)-5-hydroxyphenyl]-1,4-dihydro-4-oxo-", "N-[2,4-Bis(1,1-dimethylethyl)-5-hydroxyphenyl]-1,4-dihydro-4-oxo-3-quinolinecarboxamide", "VX 770", "Ivacaftor", "Kalydeco", "N-(2,4-Di-tert-butyl-5-hydroxyphenyl)-4-oxo-1,4-dihydroquinoline-3-carboxamide", "N-[2,4-Bis(1,1-dimethylethyl)-5-hydroxyphenyl]-1,4-dihydro-4-oxoquinoline-3-carboxamide", "N-[2,4-Di(tert-butyl)-5-hydroxyphenyl]-4-oxo-1H,4H-quinoline-3-carboxamide", "N-(5-Hydroxy-2,4-di-tert-butylphenyl)-4-oxo-1H-quinoline-3-carboxamide"], "SMILES": "C(C)(C)(C)C1=C(NC(=O)C=2C(=O)C=3C(NC2)=CC=CC3)C=C(O)C(C(C)(C)C)=C1", "physical_data": {"Molecular Weight": "392.49", "Molecular Formula": "C24H28N2O3", "Melting Point": "124-128 \u00b0C"}}