{"cas_no": "87333-19-5", "cn_name": "\u96f7\u7c73\u666e\u5229", "en_name": ["Ramipril", "Cyclopenta[b]pyrrole-2-carboxylic acid, 1-[(2S)-2-[[(1S)-1-(ethoxycarbonyl)-3-phenylpropyl]amino]-1-oxopropyl]octahydro-, (2S,3aS,6aS)-", "Cyclopenta[b]pyrrole-2-carboxylic acid, 1-[2-[[1-(ethoxycarbonyl)-3-phenylpropyl]amino]-1-oxopropyl]octahydro-, [2S-[1[R*(R*)],2\u03b1,3a\u03b2,6a\u03b2]]-", "(2S,3aS,6aS)-1-[(2S)-2-[[(1S)-1-(Ethoxycarbonyl)-3-phenylpropyl]amino]-1-oxopropyl]octahydrocyclopenta[b]pyrrole-2-carboxylic acid", "HOE 498", "Ramipril", "Altace", "Tritace", "Unipril", "Triatec", "Vesdil", "Pramace", "Delix", "Ramace", "Cardace", "Ramipres", "Hopace", "Corpril", "Ecator", "Rampicardin", "MeSH ID: D017257"], "SMILES": "C(C(NC(CCC1=CC=CC=C1)C(OCC)=O)C)(=O)N2C3C(CC2C(O)=O)CCC3", "physical_data": {"Molecular Weight": "416.51", "Molecular Formula": "C23H32N2O5", "Melting Point": "109 \u00b0C"}}