{"cas_no": "87333-22-0", "cn_name": "N-\u4e59\u9170\u57fa-3-\u6c2f-L-\u4e19\u6c28\u9178\u7532\u916f", "en_name": ["N-Acetyl-3-chloroalanine methyl ester", "Alanine, N-acetyl-3-chloro-, methyl ester", "N-Acetyl-3-chloroalanine methyl ester", "DL-N-Acetyl-\u03b2-chloroalanine methyl ester", "(\u00b1)-Methyl 2-(acetylamino)-3-chloropropionate", "NSC 146378", "Pentanoic acid, 2-(chloromethyl)-4-oxo-, methyl ester", "3-Chloro-2-acetylamino-propionic acid methylester"], "SMILES": "C(C(OC)=O)(NC(C)=O)CCl", "physical_data": {"Molecular Weight": "179.60", "Molecular Formula": "C6H10ClNO3", "Melting Point": "79-80 \u00b0C"}}