{"cas_no": "87344-06-7", "cn_name": "\u5471\u6c28\u6258\u7f8e\u4e01", "en_name": ["Amtolmetin guacil", "Glycine, N-[2-[1-methyl-5-(4-methylbenzoyl)-1H-pyrrol-2-yl]acetyl]-, 2-methoxyphenyl ester", "Glycine, N-[[1-methyl-5-(4-methylbenzoyl)-1H-pyrrol-2-yl]acetyl]-, 2-methoxyphenyl ester", "ST 679", "MED 15", "Amtolmetin guacil", "Amtolmethin guacil", "Amtolmetin guacyl", "Finrid TM", "(2-Methoxyphenyl)2-[[2-[1-methyl-5-(4-methylbenzoyl)pyrrol-2-yl]acetyl]amino]acetate", "2-Methoxyphenyl 2-(2-(1-methyl-5-(4-methylbenzoyl)-1H-pyrrol-2-yl)acetamido)acetate"], "SMILES": "C(=O)(C=1N(C)C(CC(NCC(OC2=C(OC)C=CC=C2)=O)=O)=CC1)C3=CC=C(C)C=C3", "physical_data": {"Molecular Weight": "420.46", "Molecular Formula": "C24H24N2O5", "Melting Point": "117-120 \u00b0C"}}