{"cas_no": "873697-71-3", "cn_name": "4-[[2-\u6c1f-3-[N'-(6-\u7532\u57fa\u5421\u5576-3-\u57fa)\u8132\u57fa]\u82ef\u57fa]\u7532\u57fa]\u54cc\u55ea-1-\u7fa7\u9178\u7532\u916f", "en_name": ["Omecamtiv mecarbil", "1-Piperazinecarboxylic acid, 4-[[2-fluoro-3-[[[(6-methyl-3-pyridinyl)amino]carbonyl]amino]phenyl]methyl]-, methyl ester", "Omecamtiv mecarbil", "CK 1827452", "Methyl 4-[[2-fluoro-3-[N\u2032-(6-methylpyridin-3-yl)ureido]phenyl]methyl]piperazine-1-carboxylate"], "SMILES": "C(C1=C(F)C(NC(NC=2C=CC(C)=NC2)=O)=CC=C1)N3CCN(C(OC)=O)CC3", "physical_data": {"Molecular Weight": "401.43", "Molecular Formula": "C20H24FN5O3", "Melting Point": "180 \u00b0C"}}