{"cas_no": "87394-55-6", "cn_name": "1-(3-\u6c2f-2-\u5421\u5576)\u54cc\u55ea", "en_name": ["1-(3-Chloro-2-pyridinyl)piperazine", "Piperazine, 1-(3-chloro-2-pyridinyl)-", "1-(3-Chloro-2-pyridinyl)piperazine", "N-(3-Chloropyridin-2-yl)piperazine", "1-(3-Chloropyridin-2-yl)piperazine", "4-(3-Chloropyridin-2-yl)piperazine", "1-(3-Chloro-2-pyridyl)piperazine"], "SMILES": "ClC1=C(N2CCNCC2)N=CC=C1", "physical_data": {"Molecular Weight": "197.66", "Molecular Formula": "C9H12ClN3", "Melting Point": "142-144 \u00b0C"}}