{"cas_no": "873924-08-4", "cn_name": "3-BOC-9-\u6c27\u4ee3-3-\u6c2e\u6742\u87ba[5.5]\u5341\u4e00\u70f7", "en_name": ["1,1-Dimethylethyl 9-oxo-3-azaspiro[5.5]undecane-3-carboxylate", "3-Azaspiro[5.5]undecane-3-carboxylic acid, 9-oxo-, 1,1-dimethylethyl ester", "1,1-Dimethylethyl 9-oxo-3-azaspiro[5.5]undecane-3-carboxylate", "tert-Butyl 9-oxo-3-azaspiro[5.5]undecan-3-carboxylate", "9-Oxo-3-azaspiro[5.5]undecane-3-carboxylic acid tert-butyl ester", "tert-Butyl 9-oxo-3-azaspiro[5.5]undecane-3-carboxylate"], "SMILES": "C(OC(C)(C)C)(=O)N1CCC2(CC1)CCC(=O)CC2", "physical_data": {"Molecular Weight": "267.36", "Molecular Formula": "C15H25NO3", "Boiling Point": "120 \u00b0C @ Press: 0.02 Torr", "Melting Point": "70-73 \u00b0C"}}