{"cas_no": "87394-65-8", "cn_name": "1-(5-\u6c2f\u54cc\u5576\u57fa)\u54cc\u55ea", "en_name": ["1-(5-Chloropyridin-2-yl)piperazine", "Piperazine, 1-(5-chloro-2-pyridinyl)-", "1-(5-Chloro-2-pyridinyl)piperazine", "1-(5-Chloro-2-pyridyl)piperazine", "2-Piperazino-5-chloropyridine", "1-(5-Chloropyridin-2-yl)piperazine", "4-(5-Chloropyridin-2-yl)piperazine"], "SMILES": "ClC1=CC=C(N=C1)N2CCNCC2", "physical_data": {"Molecular Weight": "197.66", "Molecular Formula": "C9H12ClN3", "Melting Point": "59-61 \u00b0C"}}