{"cas_no": "87392-12-9", "cn_name": "\u5f02\u4e19\u7532\u8349\u80fa", "en_name": ["S-Metolachlor", "Acetamide, 2-chloro-N-(2-ethyl-6-methylphenyl)-N-[(1S)-2-methoxy-1-methylethyl]-", "Acetamide, 2-chloro-N-(2-ethyl-6-methylphenyl)-N-(2-methoxy-1-methylethyl)-, (S)-", "2-Chloro-N-(2-ethyl-6-methylphenyl)-N-[(1S)-2-methoxy-1-methylethyl]acetamide", "S-Metolachlor", "Dual II Magnum", "(S)-Metolachor", "S-Metholachlor", "Dual Gold", "\u03b1-Metolachlor", "Brawl", "Pennant Magnum", "Medal II"], "SMILES": "N(C(COC)C)(C(CCl)=O)C1=C(CC)C=CC=C1C", "physical_data": {"Molecular Weight": "283.79", "Molecular Formula": "C15H22ClNO2", "Boiling Point": "282 \u00b0C", "Melting Point": "-40 \u00b0C"}}