{"cas_no": "874-97-5", "cn_name": "3-\u7f9f\u7532\u57fa\u82ef\u7532\u8148", "en_name": ["3-(Hydroxymethyl)benzonitrile", "Benzonitrile, 3-(hydroxymethyl)-", "m-Tolunitrile, \u03b1-hydroxy-", "3-(Hydroxymethyl)benzonitrile", "m-Cyanobenzyl alcohol", "3-Cyanobenzyl alcohol", "3-Cyanobenzenemethanol"], "SMILES": "C(#N)C1=CC(CO)=CC=C1", "physical_data": {"Molecular Weight": "133.15", "Molecular Formula": "C8H7NO", "Boiling Point": "109-110 \u00b0C @ Press: 0.1 Torr", "Melting Point": "25-30 \u00b0C"}}