{"cas_no": "874-83-9", "cn_name": "4-(2-\u567b\u5429\u57fa)-3-\u4e01\u70ef-2-\u916e", "en_name": ["4-(2-Thienyl)-3-buten-2-one", "3-Buten-2-one, 4-(2-thienyl)-", "4-(2-Thienyl)-3-buten-2-one", "2-Thienylidenacetone", "2-(3-Oxo-1-butenyl)thiophene", "2-Thenylideneacetone"], "SMILES": "C(=CC(C)=O)C1=CC=CS1", "physical_data": {"Molecular Weight": "152.21", "Molecular Formula": "C8H8OS", "Boiling Point": "112-114 \u00b0C @ Press: 3 Torr", "Melting Point": "34-35 \u00b0C"}}