{"cas_no": "874-60-2", "cn_name": "\u5bf9\u7532\u57fa\u82ef\u7532\u9170\u6c2f", "en_name": ["4-Methylbenzoyl chloride", "Benzoyl chloride, 4-methyl-", "p-Toluoyl chloride", "4-Methylbenzoyl chloride", "p-Methylbenzoyl chloride", "p-Toluyl chloride", "4-Toluoyl chloride", "p-Toluic acid chloride", "4-Methylbenzoic acid chloride", "4-Methylbenzenecarbonyl chloride", "p-Toluenecarbonyl chloride"], "SMILES": "C(Cl)(=O)C1=CC=C(C)C=C1", "physical_data": {"Molecular Weight": "154.59", "Molecular Formula": "C8H7ClO", "Boiling Point": "226 \u00b0C", "Melting Point": "-3 \u00b0C", "Density": "1.175 g/cm\u00b3 @ Temp: 20 \u00b0C"}}