{"cas_no": "874-86-2", "cn_name": "\u5bf9\u6c30\u57fa\u6c2f\u82c4", "en_name": ["4-Cyanobenzyl chloride", "Benzonitrile, 4-(chloromethyl)-", "p-Tolunitrile, \u03b1-chloro-", "4-(Chloromethyl)benzonitrile", "p-Cyanobenzyl chloride", "4-Cyanobenzyl chloride", "4-(Chloromethyl)benzeneacetonitrile", "\u03b1-Chloro-p-tolunitrile", "\u03b1-Chloro-p-toluonitrile", "p-(Chloromethyl)benzonitrile", "(4-Cyanophenyl)methyl chloride", "NSC 44855", "NSC 6307", "\u03b1-Chloro-p-cyanotoluene"], "SMILES": "C(Cl)C1=CC=C(C#N)C=C1", "physical_data": {"Molecular Weight": "151.59", "Molecular Formula": "C8H6ClN", "Melting Point": "80-81 \u00b0C"}}