{"cas_no": "874-42-0", "cn_name": "2,4-\u4e8c\u6c2f\u82ef\u7532\u919b", "en_name": ["2,4-Dichlorobenzaldehyde", "Benzaldehyde, 2,4-dichloro-", "2,4-Dichlorobenzaldehyde", "o,p-Dichlorobenzaldehyde", "NSC 8762", "2,4-Dichlorophenylcarboxaldehyde"], "SMILES": "C(=O)C1=C(Cl)C=C(Cl)C=C1", "physical_data": {"Molecular Weight": "175.01", "Molecular Formula": "C7H4Cl2O", "Boiling Point": "233 \u00b0C", "Melting Point": "72 \u00b0C"}}