{"cas_no": "874-87-3", "cn_name": "4-(\u7532\u57fa\u786b\u4ee3)\u82c4\u6c2f", "en_name": ["4-(Methylthio)benzyl chloride", "Benzene, 1-(chloromethyl)-4-(methylthio)-", "Sulfide, \u03b1-chloro-p-tolyl methyl", "1-(Chloromethyl)-4-(methylthio)benzene", "p-(Methylthio)benzyl chloride", "4-(Methylthio)benzyl chloride", "4-(Chloromethyl)thioanisole", "1-Chloromethyl-4-methylthiobenzene", "1-Chloromethyl-4-methylsulfanylbenzene", "4-(Methylsulfanyl)benzyl chloride", "(4-(Chloromethyl)phenyl)(methyl)sulfane"], "SMILES": "C(Cl)C1=CC=C(SC)C=C1", "physical_data": {"Molecular Weight": "172.68", "Molecular Formula": "C8H9ClS", "Boiling Point": "145 \u00b0C @ Press: 17 Torr"}}