{"cas_no": "874-24-8", "cn_name": "3-\u7f9f\u57fa-2-\u5421\u5576\u7532\u9178", "en_name": ["3-Hydroxypicolinic acid", "2-Pyridinecarboxylic acid, 3-hydroxy-", "Picolinic acid, 3-hydroxy-", "3-Hydroxy-2-pyridinecarboxylic acid", "3-Hydroxypicolinic acid", "3-Hydroxy-2-carboxypyridine", "2-Carboxy-3-hydroxypyridine"], "SMILES": "C(O)(=O)C1=C(O)C=CC=N1", "physical_data": {"Molecular Weight": "139.11", "Molecular Formula": "C6H5NO3", "Melting Point": "214-215 \u00b0C (decomp)"}}