{"cas_no": "874-17-9", "cn_name": "2,6-\u4e8c\u6eb4-4-\u6c2f\u82ef\u80fa", "en_name": ["2,6-Dibromo-4-chloroaniline", "Benzenamine, 2,6-dibromo-4-chloro-", "Aniline, 2,6-dibromo-4-chloro-", "2,6-Dibromo-4-chlorobenzenamine", "2,6-Dibromo-4-chloroaniline", "4-Chloro-2,6-dibromoaniline"], "SMILES": "NC1=C(Br)C=C(Cl)C=C1Br", "physical_data": {"Molecular Weight": "285.36", "Molecular Formula": "C6H4Br2ClN", "Melting Point": "95 \u00b0C"}}