{"cas_no": "874-33-9", "cn_name": "N,2-\u4e8c\u7532\u57fa\u82c4\u80fa", "en_name": ["N,2-Dimethylbenzenemethanamine", "Benzenemethanamine, N,2-dimethyl-", "Benzylamine, N,o-dimethyl-", "N,2-Dimethylbenzenemethanamine", "NSC 97436", "N-Methyl-2-methylbenzylamine", "N-Methyl-1-o-tolylmethanamine", "2-Methyl-N-methylbenzylamine"], "SMILES": "C(NC)C1=C(C)C=CC=C1", "physical_data": {"Molecular Weight": "135.21", "Molecular Formula": "C9H13N", "Boiling Point": "100-102 \u00b0C @ Press: 11 Torr", "Melting Point": "129 \u00b0C"}}