{"cas_no": "874-61-3", "cn_name": "4-\u73af\u5df1\u916e\u7fa7\u9178", "en_name": ["4-Oxocyclohexanecarboxylic acid", "Cyclohexanecarboxylic acid, 4-oxo-", "4-Oxocyclohexanecarboxylic acid", "4-Ketocyclohexanecarboxylic acid", "Cyclohexanone-4-carboxylic acid", "4-Oxo-1-cyclohexanecarboxylic acid", "4-Ketocyclohexylcarboxylic acid"], "SMILES": "C(O)(=O)C1CCC(=O)CC1", "physical_data": {"Molecular Weight": "142.15", "Molecular Formula": "C7H10O3", "Boiling Point": "210 \u00b0C @ Press: 25 Torr", "Melting Point": "75-76 \u00b0C"}}