{"cas_no": "874-90-8", "cn_name": "4-\u7532\u6c27\u57fa\u6c30\u82ef", "en_name": ["4-Methoxybenzonitrile", "Benzonitrile, 4-methoxy-", "p-Anisonitrile", "4-Methoxybenzonitrile", "p-Cyanoanisole", "p-Methoxybenzonitrile", "p-Methoxyphenyl cyanide", "p-Anisylnitrile", "4-Cyanoanisole", "4-Cyanomethoxybenzene", "p-Cyanophenyl methyl ether", "1-Cyano-4-methoxybenzene", "p-Methoxycyanobenzene", "NSC 3777", "NSC 71539", "p-Anisolecarbonitrile", "Aubepinenitrile", "4-Methoxybenzenenitrile"], "SMILES": "C(#N)C1=CC=C(OC)C=C1", "physical_data": {"Molecular Weight": "133.15", "Molecular Formula": "C8H7NO", "Boiling Point": "256.5 \u00b0C", "Melting Point": "61.5 \u00b0C"}}