{"cas_no": "874-23-7", "cn_name": "2-\u4e59\u9170\u57fa\u73af\u5df1\u916e", "en_name": ["2-Acetylcyclohexanone", "Cyclohexanone, 2-acetyl-", "2-Acetylcyclohexanone", "\u03b1-Acetylcyclohexanone", "2-Acetyl-1-cyclohexanone", "NSC 7713"], "SMILES": "C(C)(=O)C1C(=O)CCCC1", "physical_data": {"Molecular Weight": "140.18", "Molecular Formula": "C8H12O2", "Boiling Point": "111-112 \u00b0C @ Press: 18 Torr", "Melting Point": "112-116 \u00b0C", "Density": "1.075 g/cm\u00b3 @ Temp: 0 \u00b0C"}}