{"cas_no": "874-43-1", "cn_name": "4-\u6c28\u57fa-2-\u7532\u57fa-5-(\u6c28\u7532\u57fa)\u5627\u5576\u76d0\u9178\u76d0", "en_name": ["5-Pyrimidinemethanamine, 4-amino-2-methyl-, hydrochloride (1:2)", "5-Pyrimidinemethanamine, 4-amino-2-methyl-, hydrochloride (1:2)", "Pyrimidine, 4-amino-5-(aminomethyl)-2-methyl-, dihydrochloride", "5-Pyrimidinemethanamine, 4-amino-2-methyl-, dihydrochloride", "5-(Aminomethyl)-2-methylpyrimidin-4-amine dihydrochloride"], "SMILES": "C(N)C=1C(N)=NC(C)=NC1.Cl", "physical_data": {"Molecular Weight": "", "Molecular Formula": "C6H10N4.2ClH", "Melting Point": "268-269 \u00b0C"}}