{"cas_no": "874-41-9", "cn_name": "1,3-\u4e8c\u7532\u57fa-4-\u4e59\u57fa\u82ef", "en_name": ["1,3-Dimethyl-4-ethylbenzene", "Benzene, 1-ethyl-2,4-dimethyl-", "m-Xylene, 4-ethyl-", "1-Ethyl-2,4-dimethylbenzene", "1,3-Dimethyl-4-ethylbenzene", "4-Ethyl-m-xylene", "2,4-Dimethylethylbenzene", "NSC 74184", "2,4-Dimethyl-1-ethylbenzene"], "SMILES": "C(C)C1=C(C)C=C(C)C=C1", "physical_data": {"Molecular Weight": "134.22", "Molecular Formula": "C10H14", "Boiling Point": "188.4 \u00b0C", "Melting Point": "-62.9 \u00b0C", "Density": "0.8759 g/cm\u00b3 @ Temp: 20 \u00b0C"}}