{"cas_no": "874-66-8", "cn_name": "3-(2-\u544b\u5583\u57fa)-2-\u7532\u57fa-2-\u4e19\u70ef\u919b", "en_name": ["2-Methyl-3-(2-furyl)acrolein", "2-Propenal, 3-(2-furanyl)-2-methyl-", "2-Furanacrolein, \u03b1-methyl-", "3-(2-Furanyl)-2-methyl-2-propenal", "2-Methyl-3-(\u03b1-furyl)propenal-2", "\u03b1-Methyl-\u03b2-(2-furyl)acrolein", "2-Methyl-3-(2-furyl)-2-propenal", "3-(2-(Furanyl)-2-methyl-2-propenal", "3-(2-Furyl)-2-methylprop-2-enal", "2-Methyl-3-(2-furyl)acrolein", "3-(Furan-2-yl)-2-methylacrylaldehyde", "2-Methyl-3-(2-furyl)-propenal"], "SMILES": "C(=C(C=O)C)C1=CC=CO1", "physical_data": {"Molecular Weight": "136.15", "Molecular Formula": "C8H8O2", "Boiling Point": "141-142 \u00b0C @ Press: 55 Torr", "Density": "1.0952 g/cm\u00b3 @ Temp: 20 \u00b0C"}}