{"cas_no": "874-14-6", "cn_name": "1,3-\u4e8c\u7532\u57fa\u8132\u5627\u5576", "en_name": ["1,3-Dimethyluracil", "2,4(1H,3H)-Pyrimidinedione, 1,3-dimethyl-", "Uracil, 1,3-dimethyl-", "1,3-Dimethyl-2,4(1H,3H)-pyrimidinedione", "1,3-Dimethyluracil", "N,N\u2032-Dimethyluracil", "N1,N3-Dimethyluracil", "1,3-Dimethyl-2,4-pyrimidinedione", "NSC 401858", "1,3-Dimethyl-1,2,3,4-tetrahydropyrimidine-2,4-dione", "1,3-Dimethyl-1H,3H-pyrimidine-2,4-dione"], "SMILES": "O=C1N(C)C(=O)C=CN1C", "physical_data": {"Molecular Weight": "140.14", "Molecular Formula": "C6H8N2O2", "Melting Point": "120 \u00b0C"}}