{"cas_no": "874-18-0", "cn_name": "2-\u6c2f-4,6-\u4e8c\u6eb4\u82ef\u80fa", "en_name": ["2,4-Dibromo-6-chloroaniline", "Benzenamine, 2,4-dibromo-6-chloro-", "Aniline, 2,4-dibromo-6-chloro-", "2,4-Dibromo-6-chlorobenzenamine", "2,4-Dibromo-6-chloroaniline", "2,4-Dibromo-6-chloro-phenylamine"], "SMILES": "NC1=C(Br)C=C(Br)C=C1Cl", "physical_data": {"Molecular Weight": "285.36", "Molecular Formula": "C6H4Br2ClN", "Melting Point": "95 \u00b0C"}}