{"cas_no": "874-05-5", "cn_name": "3-\u6c28\u57fa\u5432\u5511", "en_name": ["1H-Indazol-3-amine", "1H-Indazol-3-amine", "1H-Indazole, 3-amino-", "3-Aminoindazole", "3-Indazolamine", "3-Amino-1H-indazole", "1H-Indazol-3-ylamine", "NSC 348887", "NSC 44677"], "SMILES": "NC=1C=2C(=CC=CC2)NN1", "physical_data": {"Molecular Weight": "133.15", "Molecular Formula": "C7H7N3", "Melting Point": "153-154 \u00b0C"}}