{"cas_no": "874-84-0", "cn_name": "2-\u785d\u57fa\u4e59\u70ef\u57fa\u567b\u5429", "en_name": ["2-(2-Nitroethenyl)thiophene", "Thiophene, 2-(2-nitroethenyl)-", "Thiophene, 2-(2-nitrovinyl)-", "2-(2-Nitroethenyl)thiophene", "2-Thienylnitroethylene", "2-(2-Nitrovinyl)thiophene", "1-Nitro-2-(2-thienyl)ethylene", "1-Nitro-2-(thien-2-yl)ethene", "NSC 22059", "2-Furyl-1-nitroethene", "ST 003142"], "SMILES": "C(=CN(=O)=O)C1=CC=CS1", "physical_data": {"Molecular Weight": "155.17", "Molecular Formula": "C6H5NO2S", "Melting Point": "79-80 \u00b0C"}}