{"cas_no": "874-63-5", "cn_name": "3,5-\u4e8c\u7532\u57fa\u82ef\u7532\u919a", "en_name": ["1-Methoxy-3,5-dimethylbenzene", "Benzene, 1-methoxy-3,5-dimethyl-", "Anisole, 3,5-dimethyl-", "1-Methoxy-3,5-dimethylbenzene", "3,5-Dimethylanisole", "5-Methoxy-m-xylene", "5-Methoxy-1,3-dimethylbenzene", "5-Methoxy-m-xylene", "NSC 406910", "3,5-Dimethylphenyl methyl ether"], "SMILES": "O(C)C1=CC(C)=CC(C)=C1", "physical_data": {"Molecular Weight": "136.19", "Molecular Formula": "C9H12O", "Boiling Point": "194 \u00b0C"}}