{"cas_no": "87413-09-0", "cn_name": "\u6234\u65af-\u9a6c\u4e01\u6c27\u5316\u5242", "en_name": ["Dess-Martin periodinane", "Acetic acid, 1,1\u2032,1\u2032\u2032-(3-oxo-1\u03bb5-1,2-benziodoxol-1(3H)-ylidyne) ester", "1,2-Benziodoxol-3(1H)-one, 1,1,1-tris(acetyloxy)-1,1-dihydro-", "Dess-Martin periodinane", "Martin's reagent", "Dess-Martin reagent", "Reagents, Martin's", "Triacetoxyperiodinane", "1,1,1-Tris(acetyloxy)-1,1-dihydro-1,2-benziodoxol-3(1H)-one", "1,1,1-Triacetoxy-1,1-dihydro-1,2-benziodoxol-3(1H)-one", "(1,1-Diacetoxy-3-oxo-1,2-benziodoxol-1-yl) acetate"], "SMILES": "O(C(C)=O)I1(OC(C)=O)(OC(C)=O)C=2C(C(=O)O1)=CC=CC2", "physical_data": {"Molecular Weight": "424.14", "Molecular Formula": "C13H13IO8", "Melting Point": "134 \u00b0C"}}