{"cas_no": "87460-09-1", "cn_name": "[\u7f9f\u57fa(4-\u82ef\u4e01\u57fa)\u6c27\u81a6\u57fa]\u4e59\u9178\u82c4\u916f", "en_name": ["1-(Phenylmethyl) 2-[hydroxy(4-phenylbutyl)phosphinyl]acetate", "Acetic acid, 2-[hydroxy(4-phenylbutyl)phosphinyl]-, 1-(phenylmethyl) ester", "Acetic acid, [hydroxy(4-phenylbutyl)phosphinyl]-, phenylmethyl ester", "1-(Phenylmethyl) 2-[hydroxy(4-phenylbutyl)phosphinyl]acetate", "[Hydroxy-(4-phenyl-butyl)-phosphinoyl]-acetic acid benzyl ester", "(2-(Benzyloxy)-2-oxoethyl)(4-phenylbutyl)phosphinicacid"], "SMILES": "C(OC(CP(CCCCC1=CC=CC=C1)(=O)O)=O)C2=CC=CC=C2", "physical_data": {"Molecular Weight": "346.36", "Molecular Formula": "C19H23O4P", "Melting Point": "68-70 \u00b0C"}}