{"cas_no": "874638-80-9", "cn_name": "(2R)-2-\u8131\u6c27-2-\u6c1f-2-\u7532\u57fa-D-\u8d64\u5f0f\u620a\u7cd6\u9178 GAMMA-\u5185\u916f 3,5-\u4e8c\u82ef\u7532\u9178\u916f", "en_name": ["(2R)-2-Deoxy-2-fluoro-2-methyl-D-erythro-pentonic acid \u03b3-lactone 3,5-dibenzoate", "D-erythro-Pentonic acid, 2-deoxy-2-fluoro-2-methyl-, \u03b3-lactone, 3,5-dibenzoate, (2R)-", "(2R)-2-Deoxy-2-fluoro-2-methyl-D-erythro-pentonic acid \u03b3-lactone 3,5-dibenzoate"], "SMILES": "C(OC(=O)C1=CC=CC=C1)C2C(OC(=O)C3=CC=CC=C3)C(C)(F)C(=O)O2", "physical_data": {"Molecular Weight": "372.34", "Molecular Formula": "C20H17FO6", "Melting Point": "132.9-133.1 \u00b0C"}}