{"cas_no": "874819-71-3", "cn_name": "N-(2-\u785d\u57fa\u82ef\u57fa)\u78f7\u9178\u4e09\u9170\u80fa", "en_name": ["N-(2-Nitrophenyl)phosphoric triamide", "Phosphoric triamide, N-(2-nitrophenyl)-", "Phosphoric triamide, (2-nitrophenyl)-", "N-(2-Nitrophenyl)phosphoric triamide", "N-(2-Nitrophenyl)phosphoric acid triamide"], "SMILES": "N(=O)(=O)C1=C(NP(N)(N)=O)C=CC=C1", "physical_data": {"Molecular Weight": "216.13", "Molecular Formula": "C6H9N4O3P", "Melting Point": "168-169 \u00b0C"}}