{"cas_no": "874902-19-9", "cn_name": "5-([1,1'-\u8054\u82ef]-4-\u7532\u57fa)-N,N-\u4e8c\u7532\u57fa-1H-\u56db\u6c2e\u5511-1-\u7532\u9170\u80fa", "en_name": ["5-([1,1\u2032-Biphenyl]-4-ylmethyl)-N,N-dimethyl-1H-tetrazole-1-carboxamide", "1H-Tetrazole-1-carboxamide, 5-([1,1\u2032-biphenyl]-4-ylmethyl)-N,N-dimethyl-", "5-([1,1\u2032-Biphenyl]-4-ylmethyl)-N,N-dimethyl-1H-tetrazole-1-carboxamide", "LY 2183240"], "SMILES": "C(C=1N(C(N(C)C)=O)N=NN1)C2=CC=C(C=C2)C3=CC=CC=C3", "physical_data": {"Molecular Weight": "307.35", "Molecular Formula": "C17H17N5O", "Melting Point": "87-88 \u00b0C"}}