{"cas_no": "875-59-2", "cn_name": "4'-\u7f9f\u57fa-2'-\u7532\u57fa\u82ef\u4e59\u916e", "en_name": ["4\u2032-Hydroxy-2\u2032-methylacetophenone", "Ethanone, 1-(4-hydroxy-2-methylphenyl)-", "Acetophenone, 4\u2032-hydroxy-2\u2032-methyl-", "1-(4-Hydroxy-2-methylphenyl)ethanone", "4\u2032-Hydroxy-2\u2032-methylacetophenone", "2\u2032-Methyl-4\u2032-hydroxyacetophenone", "4-Acetyl-3-methylphenol", "NSC 63364", "2-Methyl-4-hydroxyacetophenone"], "SMILES": "C(C)(=O)C1=C(C)C=C(O)C=C1", "physical_data": {"Molecular Weight": "150.17", "Molecular Formula": "C9H10O2", "Boiling Point": "313 \u00b0C", "Melting Point": "128 \u00b0C"}}