{"cas_no": "875-79-6", "cn_name": "1,2-\u4e8c\u7532\u57fa\u5432\u54da", "en_name": ["1,2-Dimethylindole", "1H-Indole, 1,2-dimethyl-", "Indole, 1,2-dimethyl-", "1,2-Dimethyl-1H-indole", "1,2-Dimethylindole", "N,2-Dimethylindole", "NSC 62087"], "SMILES": "CN1C=2C(C=C1C)=CC=CC2", "physical_data": {"Molecular Weight": "145.20", "Molecular Formula": "C10H11N", "Boiling Point": "85-89 \u00b0C @ Press: 1.2 Torr", "Melting Point": "55-58 \u00b0C"}}