{"cas_no": "875-35-4", "cn_name": "3-\u6c30\u57fa-4-\u7532\u57fa-2,6-\u4e8c\u6c2f\u5421\u5576", "en_name": ["2,6-Dichloro-4-methyl-3-pyridinecarbonitrile", "3-Pyridinecarbonitrile, 2,6-dichloro-4-methyl-", "Nicotinonitrile, 2,6-dichloro-4-methyl-", "2,6-Dichloro-4-methyl-3-pyridinecarbonitrile", "3-Cyano-2,6-dichloro-4-methylpyridine", "2,6-Dichloro-3-cyano-4-methylpyridine", "2,6-Dichloro-4-methylnicotinonitrile", "Dicnil", "NSC 19881"], "SMILES": "C(#N)C=1C(C)=CC(Cl)=NC1Cl", "physical_data": {"Molecular Weight": "187.03", "Molecular Formula": "C7H4Cl2N2", "Boiling Point": "116-118 \u00b0C @ Press: 5 Torr", "Melting Point": "110-110.5 \u00b0C"}}