{"cas_no": "875-51-4", "cn_name": "4-\u6eb4-2-\u785d\u57fa\u82ef\u80fa", "en_name": ["4-Bromo-2-nitroaniline", "Benzenamine, 4-bromo-2-nitro-", "Aniline, 4-bromo-2-nitro-", "4-Bromo-2-nitrobenzenamine", "p-Bromo-o-nitroaniline", "4-Bromo-2-nitroaniline", "4-Bromo-o-nitroaniline", "1-Amino-4-bromo-2-nitrobenzene", "2-Nitro-4-bromoaniline", "NSC 10069", "NSC 37396", "(4-Bromo-2-nitrophenyl)amine"], "SMILES": "N(=O)(=O)C1=C(N)C=CC(Br)=C1", "physical_data": {"Molecular Weight": "217.02", "Molecular Formula": "C6H5BrN2O2", "Melting Point": "111.5 \u00b0C"}}