{"cas_no": "875-30-9", "cn_name": "1,3-\u4e8c\u7532\u57fa\u5432\u54da", "en_name": ["1,3-Dimethylindole", "1H-Indole, 1,3-dimethyl-", "Indole, 1,3-dimethyl-", "1,3-Dimethyl-1H-indole", "1,3-Dimethylindole", "N-Methylscatole", "1-Methylskatole", "NSC 6231", "3-Methyl-N-methylindole"], "SMILES": "CC=1C=2C(N(C)C1)=CC=CC2", "physical_data": {"Molecular Weight": "145.20", "Molecular Formula": "C10H11N", "Boiling Point": "258.5 \u00b0C", "Melting Point": "142 \u00b0C"}}