{"cas_no": "875-74-1", "cn_name": "\u5de6\u65cb\u82ef\u7518\u6c28\u9178", "en_name": ["(-)-Phenylglycine", "Benzeneacetic acid, \u03b1-amino-, (\u03b1R)-", "Glycine, 2-phenyl-, D-", "Benzeneacetic acid, \u03b1-amino-, (R)-", "(\u03b1R)-\u03b1-Aminobenzeneacetic acid", "D-\u03b1-Aminophenylacetic acid", "D-(-)-2-Phenylglycine", "D-(-)-Aminophenylacetic acid", "D-(-)-\u03b1-Aminophenylacetic acid", "(R)-\u03b1-Phenylglycine", "D-(-)-\u03b1-Phenylglycine", "D-\u03b1-Phenylglycine", "D-(-)-Phenylglycine", "D-Phenylglycine", "D-2-Phenylglycine", "(-)-(R)-Phenylglycine", "D-C-Phenylglycine", "(R)-2-Phenylglycine", "(R)-Phenylglycine", "(-)-Phenylglycine", "(R)-Phenylglycine", "(R)-(-)-2-Phenylglycine", "(R)-2-Amino-2-phenylacetic acid", "(R)-2-Phenylglycine", "(R)-2-Amino-2-phenylethanoic acid", "(2R)-Amino-2-phenylethanoic acid", "(R)-2-Phenyl-2-aminoethanoic acid", "(2R)-2-Azaniumyl-2-phenylacetate", "(2R)-2-Amino-2-phenylacetic acid"], "SMILES": "C(C(O)=O)(N)C1=CC=CC=C1", "physical_data": {"Molecular Weight": "151.16", "Molecular Formula": "C8H9NO2", "Melting Point": "300-301 \u00b0C"}}