{"cas_no": "875446-37-0", "cn_name": "\u5b89\u585e\u66f2\u5339", "en_name": ["Anacetrapib", "2-Oxazolidinone, 5-[3,5-bis(trifluoromethyl)phenyl]-3-[[4\u2032-fluoro-2\u2032-methoxy-5\u2032-(1-methylethyl)-4-(trifluoromethyl)[1,1\u2032-biphenyl]-2-yl]methyl]-4-methyl-, (4S,5R)-", "(4S,5R)-5-[3,5-Bis(trifluoromethyl)phenyl]-3-[[4\u2032-fluoro-2\u2032-methoxy-5\u2032-(1-methylethyl)-4-(trifluoromethyl)[1,1\u2032-biphenyl]-2-yl]methyl]-4-methyl-2-oxazolidinone", "(4S,5R)-5-[3,5-Bis(trifluoromethyl)phenyl]-3-[[4\u2032-fluoro-5\u2032-isopropyl-2\u2032-methoxy-4-(trifluoromethyl)biphenyl-2-yl]methyl]-4-methyl-1,3-oxazolidin-2-one", "Anacetrapib", "MK 0859"], "SMILES": "C(C1=C(C=CC(C(F)(F)F)=C1)C2=C(OC)C=C(F)C(C(C)C)=C2)N3C(C)C(OC3=O)C4=CC(C(F)(F)F)=CC(C(F)(F)F)=C4", "physical_data": {"Molecular Weight": "637.51", "Molecular Formula": "C30H25F10NO3", "Melting Point": "60-61 \u00b0C"}}