{"cas_no": "87546-18-7", "cn_name": "\u6c1f\u70ef\u8349\u9178", "en_name": ["Flumiclorac-pentyl", "Acetic acid, 2-[2-chloro-4-fluoro-5-(1,3,4,5,6,7-hexahydro-1,3-dioxo-2H-isoindol-2-yl)phenoxy]-, pentyl ester", "Acetic acid, [2-chloro-4-fluoro-5-(1,3,4,5,6,7-hexahydro-1,3-dioxo-2H-isoindol-2-yl)phenoxy]-, pentyl ester", "S 23031", "Flumiclorac-pentyl", "Sumiverde", "Resource", "V 23031", "S 2303", "Flumiclorac pentyl ester"], "SMILES": "O=C1N(C(=O)C2=C1CCCC2)C3=CC(OCC(OCCCCC)=O)=C(Cl)C=C3F", "physical_data": {"Molecular Weight": "423.86", "Molecular Formula": "C21H23ClFNO5", "Melting Point": "89 \u00b0C"}}