{"cas_no": "87547-06-6", "cn_name": "4-BROMO-2-FLUORO-5-NITROANILINE", "en_name": ["4-Bromo-2-fluoro-5-nitrobenzenamine", "Benzenamine, 4-bromo-2-fluoro-5-nitro-", "4-Bromo-2-fluoro-5-nitrobenzenamine", "4-Bromo-2-fluoro-5-nitroaniline"], "SMILES": "N(=O)(=O)C1=C(Br)C=C(F)C(N)=C1", "physical_data": {"Molecular Weight": "235.01", "Molecular Formula": "C6H4BrFN2O2", "Melting Point": "90-92 \u00b0C"}}