{"cas_no": "87562-14-9", "cn_name": "\u539a\u6734\u4e09\u915a", "en_name": ["Randaiol", "[1,1\u2032-Biphenyl]-2,2\u2032,5-triol, 5\u2032-(2-propen-1-yl)-", "[1,1\u2032-Biphenyl]-2,2\u2032,5-triol, 5\u2032-(2-propenyl)-", "5\u2032-(2-Propen-1-yl)[1,1\u2032-biphenyl]-2,2\u2032,5-triol", "Randaiol", "Magnotriol A"], "SMILES": "OC=1C(=CC(CC=C)=CC1)C2=C(O)C=CC(O)=C2", "physical_data": {"Molecular Weight": "242.27", "Molecular Formula": "C15H14O3", "Melting Point": "99-100 \u00b0C"}}