{"cas_no": "875664-52-1", "cn_name": "3,4-\u4e8c\u6c1f-2-\u7532\u6c27\u57fa\u82ef\u7532\u9178", "en_name": ["3,4-Difluoro-2-methoxybenzoic acid", "Benzoic acid, 3,4-difluoro-2-methoxy-", "3,4-Difluoro-2-methoxybenzoic acid"], "SMILES": "O(C)C1=C(C(O)=O)C=CC(F)=C1F", "physical_data": {"Molecular Weight": "188.13", "Molecular Formula": "C8H6F2O3", "Melting Point": "140-141 \u00b0C"}}