{"cas_no": "876-03-9", "cn_name": "3-\u6c28\u7532\u57fa\u82ef\u7532\u9178\u76d0\u9178\u76d0", "en_name": ["Benzoic acid, 3-(aminomethyl)-, hydrochloride (1:1)", "Benzoic acid, 3-(aminomethyl)-, hydrochloride (1:1)", "m-Toluic acid, \u03b1-amino-, hydrochloride", "Benzoic acid, 3-(aminomethyl)-, hydrochloride", "3-(aminomethyl)benzoic acid hydrochloride"], "SMILES": "C(O)(=O)C1=CC(CN)=CC=C1.Cl", "physical_data": {"Molecular Weight": "", "Molecular Formula": "C8H9NO2.ClH", "Melting Point": "250-251 \u00b0C"}}