{"cas_no": "876-27-7", "cn_name": "\u4e59\u9178-4-\u6c2f\u82ef\u916f", "en_name": ["Acetic acid, 4-chlorophenyl ester", "Acetic acid, 4-chlorophenyl ester", "Acetic acid, p-chlorophenyl ester", "Phenol, p-chloro-, acetate", "p-Chlorophenyl acetate", "p-Acetoxychlorobenzene", "4-Chlorophenyl acetate", "4-Acetoxychlorobenzene", "4-Acetoxyphenyl chloride", "NSC 48669", "1-Acetoxy-4-chlorobenzene"], "SMILES": "O(C(C)=O)C1=CC=C(Cl)C=C1", "physical_data": {"Molecular Weight": "170.59", "Molecular Formula": "C8H7ClO2", "Boiling Point": "108 \u00b0C @ Press: 12.5 Torr", "Melting Point": "7-8 \u00b0C", "Density": "1.2248 g/cm\u00b3 @ Temp: 20 \u00b0C"}}