{"cas_no": "876-31-3", "cn_name": "4-\u6c30\u57fa\u82ef\u4e59\u8148", "en_name": ["4-Cyanophenylacetonitrile", "Benzeneacetonitrile, 4-cyano-", "p-Tolunitrile, \u03b1-cyano-", "4-Cyanobenzeneacetonitrile", "p-Cyanobenzylcyanide", "\u03b1-Cyano-p-tolunitrile", "4-Cyanophenylacetonitrile", "1-Cyano-4-(cyanomethyl)benzene", "\u03b1-Cyano-p-toluonitrile", "4-Cyanobenzyl cyanide", "(p-Cyanophenyl)acetonitrile", "NSC 97215", "4-Cyanomethylbenzonitrile"], "SMILES": "C(C#N)C1=CC=C(C#N)C=C1", "physical_data": {"Molecular Weight": "142.16", "Molecular Formula": "C9H6N2", "Boiling Point": "142-143 \u00b0C @ Press: 1 Torr", "Melting Point": "102-104.5 \u00b0C"}}