{"cas_no": "876-08-4", "cn_name": "4-\u6c2f\u7532\u57fa\u82ef\u7532\u9170\u6c2f", "en_name": ["4-(Chloromethyl)benzoyl chloride", "Benzoyl chloride, 4-(chloromethyl)-", "p-Toluoyl chloride, \u03b1-chloro-", "4-(Chloromethyl)benzoyl chloride", "\u03b1-Chloro-p-toluoyl chloride", "p-(Chloromethyl)benzoyl chloride", "NSC 508741"], "SMILES": "C(Cl)(=O)C1=CC=C(CCl)C=C1", "physical_data": {"Molecular Weight": "189.04", "Molecular Formula": "C8H6Cl2O", "Boiling Point": "150-155 \u00b0C @ Press: 22 Torr", "Melting Point": "30-31 \u00b0C", "Density": "1.3034 g/cm\u00b3 @ Temp: 50 \u00b0C"}}