{"cas_no": "876-02-8", "cn_name": "4-\u7f9f\u57fa-3-\u7532\u57fa\u82ef\u4e59\u916e", "en_name": ["4\u2032-Hydroxy-3\u2032-methylacetophenone", "Ethanone, 1-(4-hydroxy-3-methylphenyl)-", "Acetophenone, 4\u2032-hydroxy-3\u2032-methyl-", "1-(4-Hydroxy-3-methylphenyl)ethanone", "4\u2032-Hydroxy-3\u2032-methylacetophenone", "3\u2032-Methyl-4\u2032-hydroxyacetophenone", "4-Acetyl-2-methylphenol", "2-Methyl-4-acetylphenol", "1-(3-Methyl-4-hydroxyphenyl)ethanone", "NSC 63365", "4-Hydroxyl-3-methyl acetophenone"], "SMILES": "C(C)(=O)C1=CC(C)=C(O)C=C1", "physical_data": {"Molecular Weight": "150.17", "Molecular Formula": "C9H10O2", "Melting Point": "103 \u00b0C"}}