{"cas_no": "876-33-5", "cn_name": "1-(\u6c28\u57fa\u6c27\u7532\u57fa)-4-\u7532\u6c27\u82ef\u57fa\u76d0\u9178\u76d0", "en_name": ["Hydroxylamine, O-[(4-methoxyphenyl)methyl]-, hydrochloride (1:1)", "Hydroxylamine, O-[(4-methoxyphenyl)methyl]-, hydrochloride (1:1)", "Hydroxylamine, O-(p-methoxybenzyl)-, hydrochloride", "Benzyloxyamine, p-methoxy-, hydrochloride", "Hydroxylamine, O-[(4-methoxyphenyl)methyl]-, hydrochloride", "O-(4-Methoxybenzyl)hydroxylamine hydrochloride", "4-Methoxybenzyloxyamine hydrochloride"], "SMILES": "C(ON)C1=CC=C(OC)C=C1.Cl", "physical_data": {"Molecular Weight": "", "Molecular Formula": "C8H11NO2.ClH", "Melting Point": "199-200 \u00b0C (decomp)"}}