{"cas_no": "876189-20-7", "cn_name": "5-\u7532\u6c27\u7fb0\u57fa-\u544b\u5583-2-\u787c\u9178", "en_name": ["2-Furancarboxylic acid, 5-borono-, 2-methyl ester", "2-Furancarboxylic acid, 5-borono-, 2-methyl ester", "[5-(Methoxycarbonyl)-2-furyl]boronic acid", "5-(Methoxycarbonyl)furan-2-ylboronic acid", "Methyl 5-boronofuran-2-carboxylate"], "SMILES": "C(OC)(=O)C=1OC(B(O)O)=CC1", "physical_data": {"Molecular Weight": "169.93", "Molecular Formula": "C6H7BO5", "Melting Point": "128 \u00b0C"}}