{"cas_no": "87639-57-4", "cn_name": "4-\u6eb4\u90bb\u82ef\u4e8c\u7532\u9178\u4e8c\u7532\u916f", "en_name": ["1,2-Benzenedicarboxylic acid, 4-bromo-, 1,2-dimethyl ester", "1,2-Benzenedicarboxylic acid, 4-bromo-, 1,2-dimethyl ester", "1,2-Benzenedicarboxylic acid, 4-bromo-, dimethyl ester", "Dimethyl 4-bromophthalate", "4-Bromophthalic acid dimethyl ester", "Dimethyl 4-bromo-1,2-benzenedicarboxylate", "1,2-Dimethyl 4-bromobenzene-1,2-dicarboxylate"], "SMILES": "C(OC)(=O)C1=C(C(OC)=O)C=CC(Br)=C1", "physical_data": {"Molecular Weight": "273.08", "Molecular Formula": "C10H9BrO4", "Boiling Point": "177-178 \u00b0C @ Press: 13 Torr", "Melting Point": "33-35 \u00b0C"}}