{"cas_no": "87661-20-9", "cn_name": "\u73af\u4e19\u7532\u9178\u53d4\u4e01\u916f", "en_name": ["1,1-Dimethylethyl cyclopropanecarboxylate", "Cyclopropanecarboxylic acid, 1,1-dimethylethyl ester", "1,1-Dimethylethyl cyclopropanecarboxylate", "tert-Butyl cyclopropanecarboxylate", "Cyclopropanecarboxylic acid tert-butyl ester", "Cyclopropanecarboxylic acid tert-butyl ester"], "SMILES": "C(OC(C)(C)C)(=O)C1CC1", "physical_data": {"Molecular Weight": "142.20", "Molecular Formula": "C8H14O2", "Boiling Point": "154 \u00b0C"}}