{"cas_no": "87674-68-8", "cn_name": "\u4e8c\u7532\u5429\u8349\u80fa", "en_name": ["Dimethenamid", "Acetamide, 2-chloro-N-(2,4-dimethyl-3-thienyl)-N-(2-methoxy-1-methylethyl)-", "2-Chloro-N-(2,4-dimethyl-3-thienyl)-N-(2-methoxy-1-methylethyl)acetamide", "SAN 582H", "Dimethenamid", "Frontier", "SAN 582", "Fieldstar"], "SMILES": "N(C(COC)C)(C(CCl)=O)C=1C(C)=CSC1C", "physical_data": {"Molecular Weight": "275.79", "Molecular Formula": "C12H18ClNO2S", "Boiling Point": "127 \u00b0C", "Melting Point": "&lt;25 \u00b0C"}}