{"cas_no": "876708-03-1", "cn_name": "4-\u6c28\u57fa-1-(4-C-\u53e0\u6c2e\u57fa-BETA-D-\u544b\u5583\u963f\u62c9\u4f2f\u7cd6\u57fa)-2(1H)-\u5627\u5576\u916e", "en_name": ["4-Amino-1-(4-C-azido-\u03b2-D-arabinofuranosyl)-2(1H)-pyrimidinone", "2(1H)-Pyrimidinone, 4-amino-1-(4-C-azido-\u03b2-D-arabinofuranosyl)-", "4-Amino-1-(4-C-azido-\u03b2-D-arabinofuranosyl)-2(1H)-pyrimidinone", "RO 9187", "2\u2032-Deoxy-2\u2032-beta-hydroxy-4\u2032-azidocytidine"], "SMILES": "N(=[N+]=[N-])C1(CO)OC(C(O)C1O)N2C(=O)N=C(N)C=C2", "physical_data": {"Molecular Weight": "", "Molecular Formula": "C9H12N6O5", "Melting Point": "188.0-189.0 \u00b0C"}}