{"cas_no": "87674-21-3", "cn_name": "1-(3-\u6c1f\u5421\u5576-4-\u57fa)\u4e59\u916e", "en_name": ["1-(3-Fluoro-4-pyridinyl)ethanone", "Ethanone, 1-(3-fluoro-4-pyridinyl)-", "1-(3-Fluoro-4-pyridinyl)ethanone", "3-Fluoro-4-acetylpyridine", "1-(3-Fluoropyridin-4-yl)ethan-1-one"], "SMILES": "C(C)(=O)C=1C(F)=CN=CC1", "physical_data": {"Molecular Weight": "139.13", "Molecular Formula": "C7H6FNO", "Boiling Point": "78 \u00b0C @ Press: 45 Torr"}}