{"cas_no": "87686-86-0", "cn_name": "1,3,6-\u4e09\u7f9f\u57fa-2-\u7532\u57fa\u84bd\u918c", "en_name": ["2-Methyl-1,3,6-trihydroxy-9,10-anthraquinone", "9,10-Anthracenedione, 1,3,6-trihydroxy-2-methyl-", "1,3,6-Trihydroxy-2-methyl-9,10-anthracenedione", "2-Methyl-1,3,6-trihydroxy-9,10-anthraquinone", "6-Hydroxyrubiadin", "1,3,6-Trihydroxy-2-methylanthraquinone", "2-Methyl-1,3,6-trihydroxyanthraquinone"], "SMILES": "O=C1C=2C(C(=O)C=3C1=CC=C(O)C3)=CC(O)=C(C)C2O", "physical_data": {"Molecular Weight": "270.24", "Molecular Formula": "C15H10O5", "Melting Point": "238-240 \u00b0C"}}