{"cas_no": "87698-82-6", "cn_name": "4-(2-\u6eb4\u82ef\u57fa)\u5417\u5549", "en_name": ["4-(2-Bromophenyl)morpholine", "Morpholine, 4-(2-bromophenyl)-", "4-(2-Bromophenyl)morpholine", "2-(4-Morpholino)bromobenzene", "2-Morpholinobromobenzene", "N-(2-Bromophenyl)morpholine"], "SMILES": "BrC1=C(N2CCOCC2)C=CC=C1", "physical_data": {"Molecular Weight": "242.11", "Molecular Formula": "C10H12BrNO", "Melting Point": "112-115 \u00b0C"}}