{"cas_no": "87694-50-6", "cn_name": "N-(\u53d4\u4e01\u6c27\u57fa\u7fb0\u57fa)-L-\u4eae\u6c28\u9178-N\u2032-\u7532\u6c27\u57fa-N\u2032-\u7532\u9170\u80fa", "en_name": ["1,1-Dimethylethyl N-[(1S)-1-[(methoxymethylamino)carbonyl]-3-methylbutyl]carbamate", "Carbamic acid, N-[(1S)-1-[(methoxymethylamino)carbonyl]-3-methylbutyl]-, 1,1-dimethylethyl ester", "Carbamic acid, [1-[(methoxymethylamino)carbonyl]-3-methylbutyl]-, 1,1-dimethylethyl ester, (S)-", "Carbamic acid, [(1S)-1-[(methoxymethylamino)carbonyl]-3-methylbutyl]-, 1,1-dimethylethyl ester", "1,1-Dimethylethyl N-[(1S)-1-[(methoxymethylamino)carbonyl]-3-methylbutyl]carbamate", "(S)-N-Methyl-N-methoxy-2-(tert-butoxycarbonylamino)-4-methylpentanamide", "tert-Butyl [(S)-1-[methoxy(methyl)amino]-4-methyl-1-oxopentan-2-yl]carbamate", "tert-Butyl [(2S)-1-[methoxy(methyl)amino]-4-methyl-1-oxopentan-2-yl]carbamate"], "SMILES": "C(NC(OC(C)(C)C)=O)(C(N(OC)C)=O)CC(C)C", "physical_data": {"Molecular Weight": "274.36", "Molecular Formula": "C13H26N2O4", "Melting Point": "105-107 \u00b0C"}}