{"cas_no": "87691-87-0", "cn_name": "4-(1,2-\u82ef\u5e76\u5f02\u567b\u5511-3-\u57fa)-1-\u54cc\u55ea", "en_name": ["3-(1-Piperazinyl)-1,2-benzisothiazole", "1,2-Benzisothiazole, 3-(1-piperazinyl)-", "3-(1-Piperazinyl)-1,2-benzisothiazole", "N-(3-Benzisothiazolyl)piperazine", "1-(1,2-Benzisothiazol-3-yl)piperazine", "MJ 14069", "1-(Benzoisothiazol-3-yl)piperazine", "ID 11614", "3-(Piperazin-1-yl)benzoisothiazole", "3-Piperazin-1-yl-benzo[d]isothiazole", "1-(Benzisothiazol-3-yl)piperazine", "3-(1-Piperazinyl)-1,2-benzothiazole", "4-(1,2-Benzisothiazol-3-yl)-1-piperazine"], "SMILES": "C=1(C=2C(SN1)=CC=CC2)N3CCNCC3", "physical_data": {"Molecular Weight": "219.31", "Molecular Formula": "C11H13N3S", "Melting Point": "87-91 \u00b0C"}}