{"cas_no": "877-90-7", "cn_name": "3-\u6c1f-4-\u6c1f\u4e59\u9170\u82ef\u80fa", "en_name": ["N-(3-Chloro-4-fluorophenyl)acetamide", "Acetamide, N-(3-chloro-4-fluorophenyl)-", "Acetanilide, 3\u2032-chloro-4\u2032-fluoro-", "N-(3-Chloro-4-fluorophenyl)acetamide", "3\u2032-Chloro-4\u2032-fluoroacetanilide"], "SMILES": "N(C(C)=O)C1=CC(Cl)=C(F)C=C1", "physical_data": {"Molecular Weight": "187.60", "Molecular Formula": "C8H7ClFNO", "Melting Point": "98 \u00b0C"}}