{"cas_no": "877-88-3", "cn_name": "3,5-\u4e8c\u7532\u6c27\u57fa\u6eb4\u82c4", "en_name": ["3,5-Dimethoxybenzyl bromide", "Benzene, 1-(bromomethyl)-3,5-dimethoxy-", "Toluene, \u03b1-bromo-3,5-dimethoxy-", "1-(Bromomethyl)-3,5-dimethoxybenzene", "3,5-Dimethoxybenzyl bromide", "5-(Bromomethyl)-1,3-dimethoxybenzene", "\u03b1-Bromo-3,5-dimethoxytoluene", "1-(Bromomethyl)-3,5-bis(methoxy)benzene"], "SMILES": "C(Br)C1=CC(OC)=CC(OC)=C1", "physical_data": {"Molecular Weight": "231.09", "Molecular Formula": "C9H11BrO2", "Melting Point": "71-72 \u00b0C"}}