{"cas_no": "877-03-2", "cn_name": "5-\u6eb4\u5432\u54da-3-\u7532\u919b", "en_name": ["5-Bromoindole-3-carboxaldehyde", "1H-Indole-3-carboxaldehyde, 5-bromo-", "Indole-3-carboxaldehyde, 5-bromo-", "5-Bromo-1H-indole-3-carboxaldehyde", "5-Bromoindole-3-carboxaldehyde", "5-Bromo-3-formylindole", "5-Bromoindole-3-carbaldehyde", "NSC 66831"], "SMILES": "C(=O)C=1C=2C(NC1)=CC=C(Br)C2", "physical_data": {"Molecular Weight": "224.05", "Molecular Formula": "C9H6BrNO", "Melting Point": "205 \u00b0C"}}