{"cas_no": "877-09-8", "cn_name": "\u56db\u6c2f\u95f4\u4e8c\u7532\u57fa\u82ef", "en_name": ["Tetrachloro-m-xylene", "Benzene, 1,2,3,5-tetrachloro-4,6-dimethyl-", "m-Xylene, 2,4,5,6-tetrachloro-", "m-Xylene, tetrachloro-", "1,2,3,5-Tetrachloro-4,6-dimethylbenzene", "Tetrachloro-m-xylene", "2,4,5,6-Tetrachloro-m-xylene", "2,4,5,6-Tetrachloro-m-xylene", "2,4,5,6-Tetrachloroxylene", "TCMX", "1,2,3,5-Tetrachloroxylene"], "SMILES": "CC1=C(Cl)C(C)=C(Cl)C(Cl)=C1Cl", "physical_data": {"Molecular Weight": "243.95", "Molecular Formula": "C8H6Cl4", "Melting Point": "223 \u00b0C"}}