{"cas_no": "877-65-6", "cn_name": "\u95f4\u53d4\u4e01\u57fa\u82c4\u57fa\u9187", "en_name": ["4-tert-Butylbenzyl alcohol", "Benzenemethanol, 4-(1,1-dimethylethyl)-", "Benzyl alcohol, p-tert-butyl-", "4-(1,1-Dimethylethyl)benzenemethanol", "p-tert-Butylbenzyl alcohol", "4-tert-Butylbenzyl alcohol", "4-tert-Butylphenylmethanol", "4-(1,1-Dimethylethyl)benzyl alcohol", "4-t-Butylbenzyl alcohol", "1-(1,1-Dimethylethyl)-4-(hydroxymethyl)benzene"], "SMILES": "C(C)(C)(C)C1=CC=C(CO)C=C1", "physical_data": {"Molecular Weight": "164.24", "Molecular Formula": "C11H16O", "Boiling Point": "140 \u00b0C"}}