{"cas_no": "877-89-4", "cn_name": "\u4e09\u805a\u6c30\u9178\u4e09\u7532\u916f", "en_name": ["2,4,6-Trimethoxy-1,3,5-triazine", "1,3,5-Triazine, 2,4,6-trimethoxy-", "s-Triazine, 2,4,6-trimethoxy-", "2,4,6-Trimethoxy-1,3,5-triazine", "2,4,6-Trimethoxy-s-triazine", "Trimethyl cyanurate"], "SMILES": "O(C)C=1N=C(OC)N=C(OC)N1", "physical_data": {"Molecular Weight": "171.15", "Molecular Formula": "C6H9N3O3", "Melting Point": "135 \u00b0C"}}