{"cas_no": "877-37-2", "cn_name": "2 -\u6eb4- 4 -\u6c2f\u82ef\u4e19\u916e", "en_name": ["2-Bromo-1-(4-chlorophenyl)-1-propanone", "1-Propanone, 2-bromo-1-(4-chlorophenyl)-", "Propiophenone, 2-bromo-4\u2032-chloro-", "2-Bromo-1-(4-chlorophenyl)-1-propanone", "\u03b1-Bromo-4\u2032-chloropropiophenone", "\u03b1-Bromo-p-chloropropiophenone", "2-Bromo-4\u2032-chloropropiophenone"], "SMILES": "C(C(Br)C)(=O)C1=CC=C(Cl)C=C1", "physical_data": {"Molecular Weight": "247.52", "Molecular Formula": "C9H8BrClO", "Melting Point": "77-79 \u00b0C"}}