{"cas_no": "877-43-0", "cn_name": "2\uff0c6-\u4e8c\u7532\u57fa\u55b9\u5549", "en_name": ["2,6-Dimethylquinoline", "Quinoline, 2,6-dimethyl-", "2,6-Dimethylquinoline", "6-Methylquinaldine", "p-Toluquinaldine", "NSC 1782"], "SMILES": "CC1=CC2=C(N=C(C)C=C2)C=C1", "physical_data": {"Molecular Weight": "157.21", "Molecular Formula": "C11H11N", "Boiling Point": "266.5 \u00b0C", "Melting Point": "60 \u00b0C"}}