{"cas_no": "877-96-3", "cn_name": "1-(3-\u4e8c\u7532\u6c28\u57fa\u4e19\u57fa)\u54cc\u55ea", "en_name": ["N,N-Dimethyl-1-piperazinepropanamine", "1-Piperazinepropanamine, N,N-dimethyl-", "Piperazine, 1-[3-(dimethylamino)propyl]-", "N,N-Dimethyl-1-piperazinepropanamine", "1-[3-(Dimethylamino)propyl]piperazine", "4-(3-(Dimethylamino)propyl)piperazine", "N,N-Dimethyl-3-(piperazin-1-yl)propan-1-amine", "Dimethyl(3-piperazin-1-ylpropyl)amine"], "SMILES": "C(CCN(C)C)N1CCNCC1", "physical_data": {"Molecular Weight": "171.28", "Molecular Formula": "C9H21N3", "Boiling Point": "96-101 \u00b0C @ Press: 6 Torr"}}