{"cas_no": "877-22-5", "cn_name": "3-\u7532\u6c27\u57fa\u6c34\u6768\u9178", "en_name": ["3-Methoxysalicylic acid", "Benzoic acid, 2-hydroxy-3-methoxy-", "m-Anisic acid, 2-hydroxy-", "Salicylic acid, 3-methoxy-", "2-Hydroxy-3-methoxybenzoic acid", "o-Vanillic acid", "3-Methoxysalicylic acid", "3-Methoxy-2-hydroxybenzoic acid", "NSC 134533", "NSC 408167"], "SMILES": "C(O)(=O)C1=C(O)C(OC)=CC=C1", "physical_data": {"Molecular Weight": "168.15", "Molecular Formula": "C8H8O4", "Melting Point": "150-152 \u00b0C"}}