{"cas_no": "877-42-9", "cn_name": "6-\u6eb4-2-\u7532\u57fa\u55b9\u5549", "en_name": ["6-Bromo-2-methylquinoline", "Quinoline, 6-bromo-2-methyl-", "Quinaldine, 6-bromo-", "6-Bromo-2-methylquinoline", "6-Bromoquinaldine", "2-Methyl-6-bromoquinoline"], "SMILES": "BrC1=CC2=C(N=C(C)C=C2)C=C1", "physical_data": {"Molecular Weight": "222.08", "Molecular Formula": "C10H8BrN", "Melting Point": "97 \u00b0C"}}