{"cas_no": "877-95-2", "cn_name": "N-(2-\u82ef\u4e59\u57fa)\u4e59\u9170\u80fa", "en_name": ["N-(2-Phenylethyl)acetamide", "Acetamide, N-(2-phenylethyl)-", "Acetamide, N-phenethyl-", "N-(2-Phenylethyl)acetamide", "N-Phenethylacetamide", "N-Acetylphenethylamine", "N-(\u03b2-Phenylethyl)acetamide", "N-2-Phenethylacetamide", "N-Acetyl-2-phenylethylamine", "NSC 7177", "Acetamide, N-(2-phenylethyl)"], "SMILES": "C(CNC(C)=O)C1=CC=CC=C1", "physical_data": {"Molecular Weight": "163.22", "Molecular Formula": "C10H13NO", "Boiling Point": "154 \u00b0C @ Press: 2 Torr", "Melting Point": "40 \u00b0C"}}