{"cas_no": "877-66-7", "cn_name": "4-\u7532\u78fa\u9170\u57fa\u82ef\u80bc\u76d0\u9178\u76d0", "en_name": ["p-(Methylsulfonyl)phenylhydrazine", "Hydrazine, [4-(methylsulfonyl)phenyl]-", "Hydrazine, [p-(methylsulfonyl)phenyl]-", "[4-(Methylsulfonyl)phenyl]hydrazine", "4-Methylsulfonylphenylhydrazine", "p-(Methylsulfonyl)phenylhydrazine", "(4-Methanesulfonylphenyl)hydrazine"], "SMILES": "S(C)(=O)(=O)C1=CC=C(NN)C=C1", "physical_data": {"Molecular Weight": "186.23", "Molecular Formula": "C7H10N2O2S", "Melting Point": "135-136 \u00b0C"}}