{"cas_no": "877-24-7", "cn_name": "\u90bb\u82ef\u4e8c\u7532\u9178\u6c22\u94be", "en_name": ["Potassium hydrogen phthalate", "1,2-Benzenedicarboxylic acid, potassium salt (1:1)", "Phthalic acid, monopotassium salt", "1,2-Benzenedicarboxylic acid, monopotassium salt", "Potassium acid phthalate", "Potassium biphthalate", "Potassium hydrogen phthalate", "Monopotassium phthalate", "Hydrogen potassium phthalate", "Monopotassium 1,2-benzenedicarboxylate", "KAP"], "SMILES": "C(O)(=O)C1=C(C(O)=O)C=CC=C1.[K]", "physical_data": {"Molecular Weight": "", "Molecular Formula": "C8H6O4.K", "Melting Point": "220 \u00b0C"}}