{"cas_no": "877-44-1", "cn_name": "1,2,4-\u4e09\u4e59\u82ef", "en_name": ["1,2,4-Triethylbenzene", "Benzene, 1,2,4-triethyl-", "1,2,4-Triethylbenzene"], "SMILES": "C(C)C1=C(CC)C=CC(CC)=C1", "physical_data": {"Molecular Weight": "162.27", "Molecular Formula": "C12H18", "Boiling Point": "218 \u00b0C"}}