{"cas_no": "877060-48-5", "cn_name": "3-IODO-PYRROLO[3,2-C]PYRIDINE-1-CARBOXYLIC ACID TERT-BUTYL ESTER", "en_name": ["1,1-Dimethylethyl 3-iodo-1H-pyrrolo[3,2-c]pyridine-1-carboxylate", "1H-Pyrrolo[3,2-c]pyridine-1-carboxylic acid, 3-iodo-, 1,1-dimethylethyl ester", "1,1-Dimethylethyl 3-iodo-1H-pyrrolo[3,2-c]pyridine-1-carboxylate", "3-Iodopyrrolo[3,2-c]pyridine-1-carboxylic acid tert-butyl ester"], "SMILES": "C(OC(C)(C)C)(=O)N1C=2C(C(I)=C1)=CN=CC2", "physical_data": {"Molecular Weight": "344.15", "Molecular Formula": "C12H13IN2O2", "Melting Point": "127-128 \u00b0C"}}