{"cas_no": "877179-04-9", "cn_name": "2-\u6c28\u57fa-5-\u6c1f-3,4,-\u4e8c\u6c2f\u8054\u82ef", "en_name": ["3\u2032,4\u2032-Dichloro-5-fluoro[1,1\u2032-biphenyl]-2-amine", "[1,1\u2032-Biphenyl]-2-amine, 3\u2032,4\u2032-dichloro-5-fluoro-", "3\u2032,4\u2032-Dichloro-5-fluoro[1,1\u2032-biphenyl]-2-amine", "2-(3,4-Dichlorophenyl)-4-fluoroaniline", "3\u2032,4\u2032-Dichloro-5-fluorobiphenyl-2-amine", "3\u2032,4\u2032-Dichloro-5-fluorobiphenyl-2-ylamine", "3\u2032,4\u2032-Dichloro-2-amino-5-fluorobiphenyl"], "SMILES": "NC1=C(C2=CC(Cl)=C(Cl)C=C2)C=C(F)C=C1", "physical_data": {"Molecular Weight": "256.10", "Molecular Formula": "C12H8Cl2FN", "Melting Point": "55-58 \u00b0C"}}