{"cas_no": "877264-44-3", "cn_name": "5-\u6c1f-2-\u7898\u82ef\u7532\u919b", "en_name": ["5-Fluoro-2-iodobenzaldehyde", "Benzaldehyde, 5-fluoro-2-iodo-", "5-Fluoro-2-iodobenzaldehyde", "2-Iodo-5-fluorobenzaldehyde"], "SMILES": "C(=O)C1=C(I)C=CC(F)=C1", "physical_data": {"Molecular Weight": "250.01", "Molecular Formula": "C7H4FIO", "Melting Point": "93-95 \u00b0C"}}