{"cas_no": "87726-17-8", "cn_name": "\u5e15\u5c3c\u57f9\u5357", "en_name": ["Panipenem", "1-Azabicyclo[3.2.0]hept-2-ene-2-carboxylic acid, 6-[(1R)-1-hydroxyethyl]-3-[[(3S)-1-(1-iminoethyl)-3-pyrrolidinyl]thio]-7-oxo-, (5R,6S)-", "1-Azabicyclo[3.2.0]hept-2-ene-2-carboxylic acid, 6-(1-hydroxyethyl)-3-[[1-(1-iminoethyl)-3-pyrrolidinyl]thio]-7-oxo-, [5R-[3(S*),5\u03b1,6\u03b1(R*)]]-", "(5R,6S)-6-[(1R)-1-Hydroxyethyl]-3-[[(3S)-1-(1-iminoethyl)-3-pyrrolidinyl]thio]-7-oxo-1-azabicyclo[3.2.0]hept-2-ene-2-carboxylic acid", "RS 533", "CS 533", "Panipenem"], "SMILES": "C(C)(O)C1C2N(C(C(O)=O)=C(SC3CN(C(C)=N)CC3)C2)C1=O", "physical_data": {"Molecular Weight": "339.41", "Molecular Formula": "C15H21N3O4S", "Melting Point": "198-200 \u00b0C (decomp)"}}