{"cas_no": "877399-74-1", "cn_name": "4-[4-(4,4,5,5-\u56db\u7532\u57fa-1,3,2-\u4e8c\u6c27\u6742\u73af\u620a\u787c\u70f7-2-\u57fa)-1H-\u5421\u5511-1-\u57fa]\u54cc\u5576-1-\u7532\u9178\u53d4\u4e01\u916f", "en_name": ["tert-Butyl 4-[4-(4,4,5,5-tetramethyl-1,3,2-dioxaborolan-2-yl)-1H-pyrazol-1-yl]piperidine-1-carboxylate", "1-Piperidinecarboxylic acid, 4-[4-(4,4,5,5-tetramethyl-1,3,2-dioxaborolan-2-yl)-1H-pyrazol-1-yl]-, 1,1-dimethylethyl ester", "tert-Butyl 4-[4-(4,4,5,5-tetramethyl-1,3,2-dioxaborolan-2-yl)-1H-pyrazol-1-yl]piperidine-1-carboxylate", "4-(4-(4,4,5,5-Tetramethyl-1,3,2-dioxaborolan-2-yl)pyrazol-1-yl)piperidine-1-carboxylic acid tert-butyl ester", "4-[4-(4,4,5,5-Tetramethyl[1,3,2]dioxaborolan-2-yl)-1H-pyrazol-1-yl]piperidine-1-carboxylic acid tert-butyl ester", "1-[1-(tert-Butoxycarbonyl)piperidin-4-yl]-4-(4,4,5,5-tetramethyl-1,3,2-dioxaborolan-2-yl)-1H-pyrazole", "tert-Butyl 4-[4-(4,4,5,5-tetramethyl-1,3,2-dioxaborolan-2-yl)pyrazol-1-yl]piperidine-1-carboxylate", "4-[4-(4,4,5,5-Tetramethyl-[1,3,2]dioxaborolan-2-yl)-pyrazol-1-yl]-piperidin-1-carboxylic acid tert-butyl ester"], "SMILES": "CC1(C)OB(OC1(C)C)C2=CN(N=C2)C3CCN(C(OC(C)(C)C)=O)CC3", "physical_data": {"Molecular Weight": "377.29", "Molecular Formula": "C19H32BN3O4", "Melting Point": "95 \u00b0C"}}