{"cas_no": "877399-52-5", "cn_name": "\u514b\u5511\u66ff\u5c3c", "en_name": ["Crizotinib", "2-Pyridinamine, 3-[(1R)-1-(2,6-dichloro-3-fluorophenyl)ethoxy]-5-[1-(4-piperidinyl)-1H-pyrazol-4-yl]-", "3-[(1R)-1-(2,6-Dichloro-3-fluorophenyl)ethoxy]-5-[1-(4-piperidinyl)-1H-pyrazol-4-yl]-2-pyridinamine", "[3-[[(R)-1-(2,6-Dichloro-3-fluorophenyl)ethyl]oxy]-5-[1-(piperidin-4-yl)-1H-pyrazol-4-yl]pyridin-2-yl]amine", "PF 2341066", "PF 02341066", "Crizotinib", "(R)-3-[1-(2,6-Dichloro-3-fluorophenyl)ethoxy]-5-(1-piperidin-4-yl-1H-pyrazol-4-yl)pyridin-2-ylamine", "Xalkori", "3-((R)-1-(2,6-Dichloro-3-fluorophenyl)ethoxy)-5-(1-(piperidin-4-yl)-1H-pyrazol-4-yl)pyridin-2-amine"], "SMILES": "O(C(C)C1=C(Cl)C(F)=CC=C1Cl)C2=CC(C3=CN(N=C3)C4CCNCC4)=CN=C2N", "physical_data": {"Molecular Weight": "450.34", "Molecular Formula": "C21H22Cl2FN5O", "Melting Point": "192 \u00b0C"}}