{"cas_no": "877399-00-3", "cn_name": "[5-\u6eb4-3-[(1R)-(2,6-\u4e8c\u6c2f-3-\u6c1f\u82ef\u57fa)\u4e59\u6c27\u57fa]\u5421\u5576-2-\u57fa]\u80fa", "en_name": ["5-Bromo-3-[(1R)-1-(2,6-dichloro-3-fluorophenyl)ethoxy]-2-pyridinamine", "2-Pyridinamine, 5-bromo-3-[(1R)-1-(2,6-dichloro-3-fluorophenyl)ethoxy]-", "5-Bromo-3-[(1R)-1-(2,6-dichloro-3-fluorophenyl)ethoxy]-2-pyridinamine", "[5-Bromo-3-[1(R)-(2,6-dichloro-3-fluorophenyl)ethoxy]pyridin-2-yl]amine", "[5-Bromo-3-[[(R)-1-(2,6-dichloro-3-fluorophenyl)ethyl]oxy]pyridin-2-yl]amine", "(R)-5-Bromo-3-[1-(2,6-dichloro-3-fluorophenyl)ethoxy]pyridin-2-amine", "(R)-5-Bromo-3-[1-(2,6-dichloro-3-fluorophenyl)ethoxy]pyridin-2-amine"], "SMILES": "C(OC1=C(N)N=CC(Br)=C1)(C)C2=C(Cl)C(F)=CC=C2Cl", "physical_data": {"Molecular Weight": "380.04", "Molecular Formula": "C13H10BrCl2FN2O", "Melting Point": "103 \u00b0C"}}