{"cas_no": "87760-53-0", "cn_name": "\u5766\u5ea6\u87ba\u916e", "en_name": ["Tandospirone", "4,7-Methano-1H-isoindole-1,3(2H)-dione, hexahydro-2-[4-[4-(2-pyrimidinyl)-1-piperazinyl]butyl]-, (3aR,4S,7R,7aS)-rel-", "4,7-Methano-1H-isoindole-1,3(2H)-dione, hexahydro-2-[4-[4-(2-pyrimidinyl)-1-piperazinyl]butyl]-, (3a\u03b1,4\u03b2,7\u03b2,7a\u03b1)-", "rel-(3aR,4S,7R,7aS)-Hexahydro-2-[4-[4-(2-pyrimidinyl)-1-piperazinyl]butyl]-4,7-methano-1H-isoindole-1,3(2H)-dione", "Tandospirone"], "SMILES": "O=C1C2C(C3CC2CC3)C(=O)N1CCCCN4CCN(CC4)C=5N=CC=CN5", "physical_data": {"Molecular Weight": "383.49", "Molecular Formula": "C21H29N5O2", "Melting Point": "112-113.5 \u00b0C"}}