{"cas_no": "87776-75-8", "cn_name": "3-\u6c2f-4-\u7532\u786b\u57fa\u82ef\u4e59\u9178", "en_name": ["3-Chloro-4-(methylthio)benzeneacetic acid", "Benzeneacetic acid, 3-chloro-4-(methylthio)-", "3-Chloro-4-(methylthio)benzeneacetic acid", "(3-Chloro-4-methylsulfanylphenyl)acetic acid", "3-Chloro-4-methylthiophenylacetic acid", "2-[3-Chloro-4-(methylsulfanyl)phenyl]acetic acid"], "SMILES": "S(C)C1=C(Cl)C=C(CC(O)=O)C=C1", "physical_data": {"Molecular Weight": "216.68", "Molecular Formula": "C9H9ClO2S", "Melting Point": "105.6-108.4 \u00b0C"}}