{"cas_no": "878-23-9", "cn_name": "2-\u6eb4-1-\u4e59\u57fa\u5421\u5576\u56db\u6c1f\u787c\u9178\u76d0", "en_name": ["2-Bromo-1-ethylpyridinium tetrafluoroborate", "Pyridinium, 2-bromo-1-ethyl-, tetrafluoroborate(1-) (1:1)", "Pyridinium, 2-bromo-1-ethyl-, tetrafluoroborate", "Pyridinium, 2-bromo-1-ethyl-, tetrafluoroborate(1-)", "2-Bromo-1-ethylpyridinium tetrafluoroborate", "Borate(1-), tetrafluoro-, 2-bromo-1-ethylpyridinium", "BEP"], "SMILES": "[B+3]([F-])([F-])([F-])[F-].C(C)[N+]=1C(Br)=CC=CC1", "physical_data": {"Molecular Weight": "", "Molecular Formula": "C7H9BrN.BF4", "Melting Point": "102-104 \u00b0C"}}