{"cas_no": "878-00-2", "cn_name": "4-\u4e59\u9170\u6c27\u57fa\u82ef\u7532\u919b", "en_name": ["4-(Acetyloxy)benzaldehyde", "Benzaldehyde, 4-(acetyloxy)-", "Benzaldehyde, p-hydroxy-, acetate", "4-(Acetyloxy)benzaldehyde", "p-Acetoxybenzaldehyde", "4-Acetoxybenzaldehyde", "p-Hydroxybenzaldehyde acetate", "4-Formylphenyl acetate", "NSC 40537", "Acetic acid 4-formylphenyl ester"], "SMILES": "O(C(C)=O)C1=CC=C(C=O)C=C1", "physical_data": {"Molecular Weight": "164.16", "Molecular Formula": "C9H8O3", "Boiling Point": "138 \u00b0C @ Press: 12 Torr", "Melting Point": "213 \u00b0C"}}