{"cas_no": "87808-49-9", "cn_name": "2-\u6eb4-4-\u7532\u57fa\u82ef\u7532\u9178\u7532\u916f", "en_name": ["Methyl 2-bromo-4-methylbenzoate", "Benzoic acid, 2-bromo-4-methyl-, methyl ester", "Methyl 2-bromo-4-methylbenzoate", "2-Bromo-4-methylbenzoic acid methyl ester"], "SMILES": "C(OC)(=O)C1=C(Br)C=C(C)C=C1", "physical_data": {"Molecular Weight": "229.07", "Molecular Formula": "C9H9BrO2", "Boiling Point": "161-164 \u00b0C @ Press: 32 Torr"}}