{"cas_no": "87818-31-3", "cn_name": "\u73af\u5e9a\u8349\u919a", "en_name": ["Cinmethylin", "7-Oxabicyclo[2.2.1]heptane, 1-methyl-4-(1-methylethyl)-2-[(2-methylphenyl)methoxy]-, (1R,2S,4S)-rel-", "7-Oxabicyclo[2.2.1]heptane, 1-methyl-4-(1-methylethyl)-2-[(2-methylphenyl)methoxy]-, exo-(\u00b1)-", "rel-(1R,2S,4S)-1-Methyl-4-(1-methylethyl)-2-[(2-methylphenyl)methoxy]-7-oxabicyclo[2.2.1]heptane", "Cinmethylin", "Cinch", "7-Oxabicyclo[2.2.1]heptane, 1-methyl-4-(1-methylethyl)-2-[(2-methylphenyl)methoxy]-, exo-", "SD 95481", "(\u00b1)-2-exo-(2-Methylbenzyloxy)-1-methyl-4-isopropyl-7-oxabicyclo[2.2.1]heptane"], "SMILES": "C(C)(C)C12CC(OCC3=C(C)C=CC=C3)C(C)(O1)CC2", "physical_data": {"Molecular Weight": "274.40", "Molecular Formula": "C18H26O2", "Boiling Point": "313 \u00b0C", "Melting Point": "&lt;25 \u00b0C"}}