{"cas_no": "878194-92-4", "cn_name": "3-\u6c30\u5627\u5576-4-\u787c\u9178\u9891\u54ea\u916f", "en_name": ["4-(4,4,5,5-Tetramethyl-1,3,2-dioxaborolan-2-yl)-3-pyridinecarbonitrile", "3-Pyridinecarbonitrile, 4-(4,4,5,5-tetramethyl-1,3,2-dioxaborolan-2-yl)-", "4-(4,4,5,5-Tetramethyl-1,3,2-dioxaborolan-2-yl)-3-pyridinecarbonitrile", "4-(4,4,5,5-Tetramethyl-1,3,2-dioxaborolan-2-yl)nicotinonitrile", "3-Cyanopyridine-4-boronic acid pinacol ester"], "SMILES": "C(#N)C=1C(=CC=NC1)B2OC(C)(C)C(C)(C)O2", "physical_data": {"Molecular Weight": "230.07", "Molecular Formula": "C12H15BN2O2", "Melting Point": "88 \u00b0C"}}