{"cas_no": "878194-93-5", "cn_name": "2-\u6c30\u5421\u5576-3-\u787c\u9178\u9891\u54ea\u916f", "en_name": ["3-(4,4,5,5-Tetramethyl-1,3,2-dioxaborolan-2-yl)-2-pyridinecarbonitrile", "2-Pyridinecarbonitrile, 3-(4,4,5,5-tetramethyl-1,3,2-dioxaborolan-2-yl)-", "3-(4,4,5,5-Tetramethyl-1,3,2-dioxaborolan-2-yl)-2-pyridinecarbonitrile"], "SMILES": "C(#N)C1=C(C=CC=N1)B2OC(C)(C)C(C)(C)O2", "physical_data": {"Molecular Weight": "230.07", "Molecular Formula": "C12H15BN2O2", "Melting Point": "66 \u00b0C"}}