{"cas_no": "87820-88-0", "cn_name": "\u4e09\u7532\u82ef\u8349\u916e", "en_name": ["Tralkoxydim", "2-Cyclohexen-1-one, 2-[1-(ethoxyimino)propyl]-3-hydroxy-5-(2,4,6-trimethylphenyl)-", "2-[1-(Ethoxyimino)propyl]-3-hydroxy-5-(2,4,6-trimethylphenyl)-2-cyclohexen-1-one", "Tralkoxydim", "PP 604", "FD 4026", "Grasp", "ICI-A 604", "Achieve", "Achieve (pesticide)", "Splendor", "ICIA 0604", "Grasp (cyclohexenone)", "2-[1-(Ethoxyimino)propyl]-3-hydroxy-5-mesitylcyclohex-2-enone"], "SMILES": "CC1=C(C(C)=CC(C)=C1)C2CC(=O)C(C(=NOCC)CC)=C(O)C2", "physical_data": {"Molecular Weight": "329.43", "Molecular Formula": "C20H27NO3", "Melting Point": "106 \u00b0C"}}