{"cas_no": "87848-99-5", "cn_name": "\u963f\u4f10\u65af\u6c40", "en_name": ["Acrivastine", "2-Propenoic acid, 3-[6-[(1E)-1-(4-methylphenyl)-3-(1-pyrrolidinyl)-1-propen-1-yl]-2-pyridinyl]-, (2E)-", "2-Propenoic acid, 3-[6-[1-(4-methylphenyl)-3-(1-pyrrolidinyl)-1-propenyl]-2-pyridinyl]-, (E,E)-", "2-Propenoic acid, 3-[6-[(1E)-1-(4-methylphenyl)-3-(1-pyrrolidinyl)-1-propenyl]-2-pyridinyl]-, (2E)-", "(2E)-3-[6-[(1E)-1-(4-Methylphenyl)-3-(1-pyrrolidinyl)-1-propen-1-yl]-2-pyridinyl]-2-propenoic acid", "BW 825C", "Acrivastine", "BW A825C", "BW 0270C", "Semprex"], "SMILES": "C(=CCN1CCCC1)(C=2N=C(C=CC(O)=O)C=CC2)C3=CC=C(C)C=C3", "physical_data": {"Molecular Weight": "348.44", "Molecular Formula": "C22H24N2O2", "Melting Point": "222 \u00b0C (decomp)"}}