{"cas_no": "879-48-1", "cn_name": "\u0391-\u6c28\u57fa- 2-\u82ef\u4e59\u9178\u4e59\u916f\u76d0\u9178\u76d0", "en_name": ["Benzeneacetic acid, \u03b1-amino-, ethyl ester, hydrochloride (1:1)", "Benzeneacetic acid, \u03b1-amino-, ethyl ester, hydrochloride (1:1)", "Glycine, 2-phenyl-, ethyl ester, hydrochloride", "Benzeneacetic acid, \u03b1-amino-, ethyl ester, hydrochloride", "Phenylglycine ethyl ester hydrochloride", "DL-Phenylglycine ethyl ester hydrochloride", "Ethyl phenylglycinate hydrochloride", "NSC 24595"], "SMILES": "C(C(OCC)=O)(N)C1=CC=CC=C1.Cl", "physical_data": {"Molecular Weight": "", "Molecular Formula": "C10H13NO2.ClH", "Melting Point": "119 \u00b0C"}}