{"cas_no": "879-39-0", "cn_name": "2,3,4,5-\u56db\u6c2f\u785d\u57fa\u82ef", "en_name": ["1,2,3,4-Tetrachloro-5-nitrobenzene", "Benzene, 1,2,3,4-tetrachloro-5-nitro-", "1,2,3,4-Tetrachloro-5-nitrobenzene", "2,3,4,5-Tetrachloro-1-nitrobenzene", "1-Nitro-2,3,4,5-tetrachlorobenzene", "NSC 5577", "NSC 57752"], "SMILES": "N(=O)(=O)C1=C(Cl)C(Cl)=C(Cl)C(Cl)=C1", "physical_data": {"Molecular Weight": "260.89", "Molecular Formula": "C6HCl4NO2", "Melting Point": "65-66 \u00b0C"}}