{"cas_no": "879-18-5", "cn_name": "1-\u8418\u7532\u9170\u6c2f", "en_name": ["1-Naphthoyl chloride", "1-Naphthalenecarbonyl chloride", "1-Naphthoyl chloride", "\u03b1-Naphthoyl chloride", "1-(Chlorocarbonyl)naphthalene", "1-Naphthoic acid chloride", "1-Naphthalenecarboxylic acid chloride", "1-Naphthylcarbonyl chloride", "NSC 9841", "1-Naphthaloyl chloride"], "SMILES": "C(Cl)(=O)C=1C2=C(C=CC1)C=CC=C2", "physical_data": {"Molecular Weight": "190.63", "Molecular Formula": "C11H7ClO", "Boiling Point": "295 \u00b0C", "Melting Point": "26 \u00b0C", "Density": "1.2694 g/cm\u00b3 @ Temp: 20 \u00b0C"}}