{"cas_no": "879-72-1", "cn_name": "3-\u4e8c\u7532\u80fa\u57fa\u4e19\u82ef\u916e", "en_name": ["1-Propanone, 3-(dimethylamino)-1-phenyl-, hydrochloride (1:1)", "1-Propanone, 3-(dimethylamino)-1-phenyl-, hydrochloride (1:1)", "Propiophenone, 3-(dimethylamino)-, hydrochloride", "1-Propanone, 3-(dimethylamino)-1-phenyl-, hydrochloride", "\u03b2-Dimethylaminopropiophenone hydrochloride", "3-(Dimethylamino)propiophenone hydrochloride", "Dimethylaminopropiophenone hydrochloride", "3-(Dimethylamino)-1-phenyl-1-propanone hydrochloride", "Dimethyl(3-oxo-3-phenylpropyl)ammonium chloride", "NSC 629913"], "SMILES": "C(CCN(C)C)(=O)C1=CC=CC=C1.Cl", "physical_data": {"Molecular Weight": "", "Molecular Formula": "C11H15NO.ClH", "Boiling Point": "150.6 \u00b0C", "Melting Point": "153-156 \u00b0C"}}