{"cas_no": "879-37-8", "cn_name": "3-\u5432\u54da\u4e59\u9170\u80fa", "en_name": ["Indole-3-acetamide", "1H-Indole-3-acetamide", "Indole-3-acetamide", "3-Indolylacetamide", "2-(1H-Indol-3-yl)acetamide", "NSC 1969", "2-(3-Indolyl)acetamide"], "SMILES": "C(C(N)=O)C=1C=2C(NC1)=CC=CC2", "physical_data": {"Molecular Weight": "174.20", "Molecular Formula": "C10H10N2O", "Melting Point": "150-151 \u00b0C"}}