{"cas_no": "879-36-7", "cn_name": "3-(2-\u6c28\u57fa\u4e19\u57fa)\u5432\u54da\u76d0\u9178\u76d0", "en_name": ["1H-Indole-3-ethanamine, \u03b1-methyl-, hydrochloride (1:1)", "1H-Indole-3-ethanamine, \u03b1-methyl-, hydrochloride (1:1)", "Indole, 3-(2-aminopropyl)-, monohydrochloride", "1H-Indole-3-ethanamine, \u03b1-methyl-, monohydrochloride", "Indopan", "\u03b1-Methyltryptamine hydrochloride", "dl-\u03b1-Methyltryptamine hydrochloride"], "SMILES": "C(C(C)N)C=1C=2C(NC1)=CC=CC2.Cl", "physical_data": {"Molecular Weight": "", "Molecular Formula": "C11H14N2.ClH", "Melting Point": "217 \u00b0C"}}