{"cas_no": "87905-98-4", "cn_name": "5-(Z-\u6c28\u57fa)-1-\u620a\u9187", "en_name": ["Phenylmethyl N-(5-hydroxypentyl)carbamate", "Carbamic acid, N-(5-hydroxypentyl)-, phenylmethyl ester", "Carbamic acid, (5-hydroxypentyl)-, phenylmethyl ester", "Phenylmethyl N-(5-hydroxypentyl)carbamate", "N-Benzyloxycarbonyl-5-aminopentanol", "5-[(Benzyloxycarbonyl)amino]-1-pentanol", "Benzyl (5-hydroxypentyl)carbamate"], "SMILES": "C(OC(NCCCCCO)=O)C1=CC=CC=C1", "physical_data": {"Molecular Weight": "237.29", "Molecular Formula": "C13H19NO3", "Melting Point": "42 \u00b0C"}}