{"cas_no": "879085-55-9", "cn_name": "\u7ef4\u83ab\u5fb7\u5409", "en_name": ["Vismodegib", "Benzamide, 2-chloro-N-[4-chloro-3-(2-pyridinyl)phenyl]-4-(methylsulfonyl)-", "2-Chloro-N-[4-chloro-3-(2-pyridinyl)phenyl]-4-(methylsulfonyl)benzamide", "GDC 0449", "Vismodegib", "Erivedge"], "SMILES": "ClC=1C(=CC(NC(=O)C2=C(Cl)C=C(S(C)(=O)=O)C=C2)=CC1)C3=CC=CC=N3", "physical_data": {"Molecular Weight": "421.30", "Molecular Formula": "C19H14Cl2N2O3S", "Melting Point": "218 \u00b0C"}}