{"cas_no": "879551-04-9", "cn_name": "\u6838\u82f7\u7c7b\u4e2d\u95f4\u4f53", "en_name": ["(2R)-2-Deoxy-2-fluoro-2-methyl-D-erythro-pentonic acid \u03b3-lactone", "D-erythro-Pentonic acid, 2-deoxy-2-fluoro-2-methyl-, \u03b3-lactone, (2R)-", "(2R)-2-Deoxy-2-fluoro-2-methyl-D-erythro-pentonic acid \u03b3-lactone"], "SMILES": "C(O)C1C(O)C(C)(F)C(=O)O1", "physical_data": {"Molecular Weight": "164.13", "Molecular Formula": "C6H9FO4", "Melting Point": "142-143 \u00b0C"}}