{"cas_no": "88-06-2", "cn_name": "2,4,6-\u4e09\u6c2f\u82ef\u915a", "en_name": ["2,4,6-Trichlorophenol", "Phenol, 2,4,6-trichloro-", "2,4,6-Trichlorophenol", "Dowicide 2S", "Omal", "Phenachlor", "1,3,5-Trichloro-2-hydroxybenzene", "2,4,6-TCP", "NSC 2165", "BTS 45186"], "SMILES": "OC1=C(Cl)C=C(Cl)C=C1Cl", "physical_data": {"Molecular Weight": "197.45", "Molecular Formula": "C6H3Cl3O", "Boiling Point": "246 \u00b0C", "Melting Point": "69 \u00b0C", "Density": "1.4901 g/cm\u00b3"}}