{"cas_no": "88-04-0", "cn_name": "4-\u6c2f-3,5-\u4e8c\u7532\u57fa\u82ef\u915a", "en_name": ["4-Chloro-3,5-dimethylphenol", "Phenol, 4-chloro-3,5-dimethyl-", "3,5-Xylenol, 4-chloro-", "4-Chloro-3,5-dimethylphenol", "Benzytol", "2-Chloro-5-hydroxy-1,3-dimethylbenzene", "2-Chloro-5-hydroxy-m-xylene", "Ottasept", "PCMX", "Dettol", "Espadol", "4-Chloro-m-xylenol", "Chloroxylenol", "Husept Extra", "Ottasept Extra", "RBA 777", "4-Chloro-3,5-Xylenol", "p-Chloro-m-Xylenol", "Desson", "p-Chloro-3,5-xylenol", "Camel", "Camel (pesticide)", "Hokubarine E 400", "Finecide C 2000", "Nipacide PX", "Parametaxylenol", "NSC 4971", "4-Chloro-5,3-dimethylphenol", "Dettol (biocide)", "Ecotru", "2,6-Dimethyl-4-hydroxy-1-chlorobenzene", "3,5-Dimethyl-p-chlorophenol", "Nipacide PX-R"], "SMILES": "ClC1=C(C)C=C(O)C=C1C", "physical_data": {"Molecular Weight": "156.61", "Molecular Formula": "C8H9ClO", "Boiling Point": "246 \u00b0C", "Melting Point": "115 \u00b0C"}}