{"cas_no": "88-03-9", "cn_name": "2,4,6-\u4e09\u7fa5\u7532\u82ef", "en_name": ["2-Methyl-1,3,5-benzenetriol", "1,3,5-Benzenetriol, 2-methyl-", "Phloroglucinol, methyl-", "2-Methyl-1,3,5-benzenetriol", "Toluene-2,4,6-triol", "2,4,6-Trihydroxytoluene", "2-Methylphloroglucinol", "Methylphloroglucinol", "NSC 112934", "NSC 72168", "1,3,5-Trihydroxy-2-methylbenzene"], "SMILES": "CC1=C(O)C=C(O)C=C1O", "physical_data": {"Molecular Weight": "140.14", "Molecular Formula": "C7H8O3", "Melting Point": "213-215 \u00b0C"}}