{"cas_no": "88-05-1", "cn_name": "\u5747\u4e09\u7532\u82ef\u80fa", "en_name": ["2,4,6-Trimethylaniline", "Benzenamine, 2,4,6-trimethyl-", "Aniline, 2,4,6-trimethyl-", "2,4,6-Trimethylbenzenamine", "Aminomesitylene", "Mesidine", "Mesitylamine", "Mesitylene, 2-amino-", "2,4,6-Trimethylaniline", "2-Aminomesitylene", "Mesidin", "2,4,6-Trimethylphenylamine", "1-Amino-2,4,6-trimethylbenzene", "NSC 31"], "SMILES": "NC1=C(C)C=C(C)C=C1C", "physical_data": {"Molecular Weight": "135.21", "Molecular Formula": "C9H13N", "Boiling Point": "232-234 \u00b0C", "Melting Point": "-5 \u00b0C", "Density": "96 g/cm\u00b3"}}