{"cas_no": "88-09-5", "cn_name": "2-\u4e59\u57fa\u4e01\u9178", "en_name": ["2-Ethylbutanoic acid", "Butanoic acid, 2-ethyl-", "Butyric acid, 2-ethyl-", "Butyric acid, \u03b1-ethyl-", "2-Ethylbutanoic acid", "Acetic acid, diethyl-", "Diethylacetic acid", "\u03b1-Ethylbutyric acid", "2-Ethylbutyric acid", "3-Pentanecarboxylic acid", "2-Ethyl-n-butyric acid", "NSC 11765", "NSC 8758"], "SMILES": "C(C(O)=O)(CC)CC", "physical_data": {"Molecular Weight": "116.16", "Molecular Formula": "C6H12O2", "Boiling Point": "194 \u00b0C", "Melting Point": "-31.8 \u00b0C", "Density": "0.923 g/cm\u00b3 @ Temp: 26 \u00b0C"}}