{"cas_no": "88-13-1", "cn_name": "3-\u567b\u5429\u7532\u9178", "en_name": ["3-Thiophenecarboxylic acid", "3-Thiophenecarboxylic acid", "3-Thenoic acid", "\u03b2-Thiophenecarboxylic acid", "\u03b2-Thiophenic acid", "3-Thienylcarboxylic acid", "3-Carboxythiophene", "NSC 66314", "Thiophene-3-carboxylic acid"], "SMILES": "C(O)(=O)C=1C=CSC1", "physical_data": {"Molecular Weight": "128.15", "Molecular Formula": "C5H4O2S", "Melting Point": "138 \u00b0C"}}