{"cas_no": "88-15-3", "cn_name": "2-\u4e59\u9170\u57fa\u567b\u5429", "en_name": ["2-Acetylthiophene", "Ethanone, 1-(2-thienyl)-", "Ketone, methyl 2-thienyl", "1-(2-Thienyl)ethanone", "2-Acetylthiophene", "Methyl 2-thienyl ketone", "2-Thienyl methyl ketone", "2-Acetothienone", "\u03b1-Acetylthiophene", "2-Acetothiophene", "1-(2-Thienyl)-1-ethanone", "NSC 2345", "1-(Thiophen-2-yl)ethanone", "Thiophen-2-yl methyl ketone", "2-(Acetyl)thiofuran", "1-(Thiophene-2-yl)ethanone", "1-(Thiophen-2-yl)ethan-1-one", "2-Acetaldehyde thiophene"], "SMILES": "C(C)(=O)C1=CC=CS1", "physical_data": {"Molecular Weight": "126.18", "Molecular Formula": "C6H6OS", "Boiling Point": "213.5 \u00b0C", "Melting Point": "10.5 \u00b0C", "Density": "1.1709 g/cm\u00b3 @ Temp: 20 \u00b0C"}}