{"cas_no": "88-18-6", "cn_name": "2-\u53d4\u4e01\u57fa\u82ef\u915a", "en_name": ["2-tert-Butylphenol", "Phenol, 2-(1,1-dimethylethyl)-", "Phenol, o-tert-butyl-", "2-(1,1-Dimethylethyl)phenol", "o-tert-Butylphenol", "2-tert-Butylphenol", "2-tert-Butyl-1-hydroxybenzene", "o-t-Butylphenol"], "SMILES": "C(C)(C)(C)C1=C(O)C=CC=C1", "physical_data": {"Molecular Weight": "150.22", "Molecular Formula": "C10H14O", "Boiling Point": "223 \u00b0C @ Press: 760 Torr", "Melting Point": "-6.8 \u00b0C", "Density": "0.9783 g/cm\u00b3 @ Temp: 20 \u00b0C"}}