{"cas_no": "88-17-5", "cn_name": "\u90bb\u6c28\u57fa\u4e09\u6c1f\u7532\u82ef", "en_name": ["2-(Trifluoromethyl)aniline", "Benzenamine, 2-(trifluoromethyl)-", "o-Toluidine, \u03b1,\u03b1,\u03b1-trifluoro-", "2-(Trifluoromethyl)benzenamine", "\u03b1,\u03b1,\u03b1-Trifluoro-o-toluidine", "2-(Trifluoromethyl)aniline", "o-Aminobenzotrifluoride", "o-(Trifluoromethyl)aniline", "2-Aminobenzotrifluoride", "2-Amino-\u03b1,\u03b1,\u03b1-trifluorotoluene", "NSC 10336", "o-(Trifluoromethyl)phenylamine", "2-Trifluoromethylphenylamine"], "SMILES": "C(F)(F)(F)C1=C(N)C=CC=C1", "physical_data": {"Molecular Weight": "161.12", "Molecular Formula": "C7H6F3N", "Boiling Point": "187 \u00b0C", "Melting Point": "35.5 \u00b0C"}}