{"cas_no": "88-14-2", "cn_name": "\u7ce0\u9178", "en_name": ["2-Furancarboxylic acid", "2-Furancarboxylic acid", "2-Furoic acid", "\u03b1-Furancarboxylic acid", "\u03b1-Furoic acid", "Pyromucic acid", "2-Carboxyfuran", "2-Furanoic acid", "NSC 58965", "NSC 8842", "Furan-2-carboxylic acid"], "SMILES": "C(O)(=O)C1=CC=CO1", "physical_data": {"Molecular Weight": "112.08", "Molecular Formula": "C5H4O3", "Boiling Point": "231 \u00b0C", "Melting Point": "133.5 \u00b0C", "Density": "1.483 g/cm\u00b3"}}