{"cas_no": "88-16-4", "cn_name": "\u90bb\u6c2f\u4e09\u6c1f\u7532\u82ef", "en_name": ["2-Chlorobenzotrifluoride", "Benzene, 1-chloro-2-(trifluoromethyl)-", "Toluene, o-chloro-\u03b1,\u03b1,\u03b1-trifluoro-", "1-Chloro-2-(trifluoromethyl)benzene", "o-Chloro-\u03b1,\u03b1,\u03b1-trifluorotoluene", "o-Chlorobenzotrifluoride", "2-Chlorobenzotrifluoride", "o-Trifluoromethylphenyl chloride", "2-Chloro(trifluoromethyl)benzene", "o-(Trifluoromethyl)chlorobenzene", "2-Chloro-\u03b1,\u03b1,\u03b1-trifluorotoluene", "2-(Trifluoromethyl)chlorobenzene", "NSC 10307", "2-Trifluoromethylphenyl chloride", "2-Chloro-1-trifluoromethylbenzene"], "SMILES": "C(F)(F)(F)C1=C(Cl)C=CC=C1", "physical_data": {"Molecular Weight": "180.55", "Molecular Formula": "C7H4ClF3", "Boiling Point": "152.2 \u00b0C", "Melting Point": "-6 \u00b0C"}}