{"cas_no": "88-10-8", "cn_name": "N,N-\u4e8c\u4e59\u57fa\u6c2f\u7532\u9170\u80fa", "en_name": ["Diethylcarbamoyl chloride", "Carbamic chloride, N,N-diethyl-", "Carbamoyl chloride, diethyl-", "Carbamic chloride, diethyl-", "N,N-Diethylcarbamic chloride", "Diethylcarbamoyl chloride", "N,N-Diethylcarbamoyl chloride", "Diethylcarbamyl chloride", "N,N-Diethylchloroformamide", "(Diethylamino)carbonyl chloride", "NSC 223067", "N-(Chlorocarbonyl)diethylamine"], "SMILES": "N(C(Cl)=O)(CC)CC", "physical_data": {"Molecular Weight": "135.59", "Molecular Formula": "C5H10ClNO", "Boiling Point": "186 \u00b0C", "Melting Point": "-32 \u00b0C", "Density": "1.0712 g/cm\u00b3 @ Temp: 20 \u00b0C"}}