{"cas_no": "88-19-7", "cn_name": "\u90bb\u7532\u82ef\u78fa\u9170\u80fa", "en_name": ["2-Methylbenzenesulfonamide", "Benzenesulfonamide, 2-methyl-", "o-Toluenesulfonamide", "2-Methylbenzenesulfonamide", "o-Methylbenzenesulfonamide", "Toluene-2-sulfonamide", "o-Toluenesulfamide", "2-Tolylsulfonamide", "NSC 2185", "2-Methylphenylsulfonamide", "2-Methylbenzenesulfonimidic acid", "2-Methylbenzene-1-sulfonamide"], "SMILES": "S(N)(=O)(=O)C1=C(C)C=CC=C1", "physical_data": {"Molecular Weight": "171.22", "Molecular Formula": "C7H9NO2S", "Boiling Point": "214 \u00b0C @ Press: 9.98 Torr", "Melting Point": "156.3 \u00b0C"}}