{"cas_no": "88-12-0", "cn_name": "N-\u4e59\u70ef\u57fa\u5421\u54af\u70f7\u916e", "en_name": ["N-Vinyl-2-pyrrolidone", "2-Pyrrolidinone, 1-ethenyl-", "2-Pyrrolidinone, 1-vinyl-", "1-Ethenyl-2-pyrrolidinone", "N-Vinyl-2-pyrrolidinone", "1-Vinyl-2-pyrrolidinone", "Vinylpyrrolidone", "N-Vinyl-2-pyrrolidone", "N-Vinylpyrrolidone", "1-Vinyl-2-pyrrolidone", "Vinylpyrrolidinone", "1-Vinylpyrrolidinone", "Vinylbutyrolactam", "V-Pyrol", "Aronix M 150", "N-Vinylpyrrolin-2-one", "V-Pyrol RC", "N-VP", "NSC 10222", "NSC 683040", "NVP 300", "N-V 2RC", "V-Pyro 4RC", "Vinyl-2-pyrrolidone", "MAK 706", "NVP"], "SMILES": "C(=C)N1C(=O)CCC1", "physical_data": {"Molecular Weight": "111.14", "Molecular Formula": "C6H9NO", "Boiling Point": "193 \u00b0C @ Press: 400 Torr", "Melting Point": "13.5 \u00b0C", "Density": "1.04 g/cm\u00b3 @ Temp: 24 \u00b0C"}}