{"cas_no": "88-11-9", "cn_name": "\u4e8c\u4e59\u57fa\u786b\u4ee3\u6c28\u57fa\u7532\u9170\u6c2f", "en_name": ["Diethylthiocarbamoyl chloride", "Carbamothioic chloride, N,N-diethyl-", "Carbamoyl chloride, diethylthio-", "Carbamothioic chloride, diethyl-", "N,N-Diethylcarbamothioic chloride", "Diethylthiocarbamoyl chloride", "Diethylthiocarbamyl chloride", "N,N-Diethylthiocarbamoyl chloride", "Diethylcarbamothioyl chloride", "NSC 379476", "(Chloromethanethioyl)diethylamine"], "SMILES": "N(C(Cl)=S)(CC)CC", "physical_data": {"Molecular Weight": "151.66", "Molecular Formula": "C5H10ClNS", "Boiling Point": "113 \u00b0C @ Press: 10 Torr", "Melting Point": "47-49 \u00b0C"}}