{"cas_no": "88-26-6", "cn_name": "3,5-\u4e8c\u53d4\u4e01\u57fa-4-\u7f9f\u57fa\u82c4\u9187", "en_name": ["3,5-Di-tert-butyl-4-hydroxybenzyl alcohol", "Benzenemethanol, 3,5-bis(1,1-dimethylethyl)-4-hydroxy-", "Benzyl alcohol, 3,5-di-tert-butyl-4-hydroxy-", "3,5-Bis(1,1-dimethylethyl)-4-hydroxybenzenemethanol", "2,6-Di-tert-butyl-4-hydroxymethylphenol", "4-Hydroxymethyl-2,6-di-tert-butylphenol", "Ionox 100", "3,5-Di-tert-butyl-4-hydroxybenzyl alcohol", "4-Hydroxy-3,5-di-tert-butylbenzyl alcohol", "AO 754", "Ethanox 754", "3,5-Di-tert-butyl-4-hydroxyphenylmethanol", "NSC 159133", "3,5-Di-t-butyl-4-hydroxy-benzyl alcohol"], "SMILES": "C(C)(C)(C)C1=C(O)C(C(C)(C)C)=CC(CO)=C1", "physical_data": {"Molecular Weight": "236.35", "Molecular Formula": "C15H24O2", "Melting Point": "137.9 \u00b0C"}}