{"cas_no": "88-27-7", "cn_name": "2,6-\u4e8c\u53d4\u4e01\u57fa\u5bf9(\u4e8c\u7532\u6c28\u7532\u57fa)\u82ef\u915a", "en_name": ["2,6-Di-tert-butyl-\u03b1-(dimethylamino)-p-cresol", "Phenol, 4-[(dimethylamino)methyl]-2,6-bis(1,1-dimethylethyl)-", "p-Cresol, 2,6-di-tert-butyl-\u03b1-(dimethylamino)-", "4-[(Dimethylamino)methyl]-2,6-bis(1,1-dimethylethyl)phenol", "2,6-Di-tert-butyl-4-(dimethylaminomethyl)phenol", "2,6-Di-tert-butyl-4-(N,N-dimethylaminomethyl)phenol", "N,N-Dimethyl(3,5-di-tert-butyl-4-hydroxybenzyl)amine", "(3,5-di-tert-Butyl-4-hydroxybenzyl)dimethylamine", "N,N-Dimethyl-3,5-di-tert-butyl-4-hydroxybenzylamine", "2,6-Di-tert-butyl-\u03b1-(dimethylamino)-p-cresol", "N-(3,5-di-tert-Butyl-4-hydroxybenzyl)-N,N-dimethylamine", "Ethyl 703", "N-(3,5-Di-tert-butyl-4-hydroxybenzyl)dimethylamine", "N,N-Dimethyl-3,5-bis(1,1-dimethylethyl)-4-hydroxybenzylamine", "OMI", "Ethyl Antioxidant 703", "Agidol 3", "F 1 (antioxidant)", "F 1", "4-(N,N-Dimethylaminomethyl)-2,6-di-tert-butylphenol", "Ethanox 703", "4-[(Dimethylamino)methyl]-2,6-di-tert-butylphenol", "2,6-Di-tert-butyl-\u03b1-(dimethylamino)-4-cresol", "NSC 27823", "NSC 58410", "N,N-Dimethyl-(3,5-di-tert-butyl-4-oxybenzyl)amine", "Antioxidant 703", "Ionol 103", "2,6-Ditert-butyl-4-[(dimethylamino)methyl]phenol"], "SMILES": "C(C)(C)(C)C1=C(O)C(C(C)(C)C)=CC(CN(C)C)=C1", "physical_data": {"Molecular Weight": "263.42", "Molecular Formula": "C17H29NO", "Melting Point": "92-93.5 \u00b0C"}}