{"cas_no": "88-20-0", "cn_name": "2-\u7532\u57fa\u82ef\u78fa\u9178", "en_name": ["o-Toluenesulfonic acid", "Benzenesulfonic acid, 2-methyl-", "o-Toluenesulfonic acid", "2-Methylbenzenesulfonic acid", "Toluene-2-sulfonic acid", "o-Methylbenzenesulfonic acid", "NSC 87381", "2-Methylbenzensulfonic acid"], "SMILES": "S(=O)(=O)(O)C1=C(C)C=CC=C1", "physical_data": {"Molecular Weight": "172.20", "Molecular Formula": "C7H8O3S", "Boiling Point": "128.8 \u00b0C", "Melting Point": "67.5 \u00b0C"}}