{"cas_no": "88-24-4", "cn_name": "2,2'-\u4e9a\u7532\u57fa\u53cc(4-\u4e59\u57fa-6-\u53d4\u4e01\u57fa\u82ef\u915a)", "en_name": ["2,2\u2032-Methylenebis[4-ethyl-6-tert-butylphenol]", "Phenol, 2,2\u2032-methylenebis[6-(1,1-dimethylethyl)-4-ethyl-", "Phenol, 2,2\u2032-methylenebis[6-tert-butyl-4-ethyl-", "2,2\u2032-Methylenebis[6-(1,1-dimethylethyl)-4-ethylphenol]", "Bis(2-hydroxy-3-tert-butyl-5-ethylphenyl)methane", "Antioxidant 425", "2,2\u2032-Methylenebis(6-tert-butyl-4-ethylphenol)", "Bis(3-tert-butyl-5-ethyl-2-hydroxyphenyl)methane", "AO 425", "2,2-Methylenebis(4-ethyl-6-tert-butylphenol)", "Chemanox 22", "Plastanox 425", "Yoshinox 425", "Nocrac NS 5", "Antage W 500", "Cyanox 425", "Agidol 7", "2,2-Methylenebis(4-ethyl-6-t-butylphenol)", "2,2\u2032-Methylenebis[4-ethyl-6-tert-butylphenol]", "NS 5", "Nonflex EBP", "Swanox 425", "NSC 7782", "2,2\u2032-Methylidene bis-4-ethyl-6-tert-butylphenol)", "MEB", "AW 500", "2-tert-Butyl-6-[(3-tert-butyl-5-ethyl-2-hydroxyphenyl)methyl]-4-ethylphenol"], "SMILES": "C(C)(C)(C)C1=C(O)C(CC2=C(O)C(C(C)(C)C)=CC(CC)=C2)=CC(CC)=C1", "physical_data": {"Molecular Weight": "368.55", "Molecular Formula": "C25H36O2", "Melting Point": "123 \u00b0C"}}