{"cas_no": "88-21-1", "cn_name": "2-\u6c28\u57fa\u82ef\u78fa\u9178", "en_name": ["2-Aminobenzenesulfonic acid", "Benzenesulfonic acid, 2-amino-", "Benzenesulfonic acid, o-amino-", "2-Aminobenzenesulfonic acid", "Aniline-o-sulfonic acid", "Orthanilic acid", "o-Sulfanilic acid", "2-Anilinesulfonic acid", "o-Aminobenzenesulfonic acid", "1-Aminobenzene-2-sulfonic acid", "o-Aminophenylsulfonic acid", "2-Aminophenylsulfonic acid", "2-Sulfoaniline", "NSC 147", "2-Aminobenzene-1-sulfonic acid"], "SMILES": "S(=O)(=O)(O)C1=C(N)C=CC=C1", "physical_data": {"Molecular Weight": "173.19", "Molecular Formula": "C6H7NO3S", "Melting Point": "&gt;320 \u00b0C (decomp)"}}