{"cas_no": "88-30-2", "cn_name": "3-\u4e09\u6c1f\u7532\u57fa-4-\u785d\u57fa\u82ef\u915a", "en_name": ["3-(Trifluoromethyl)-4-nitrophenol", "Phenol, 4-nitro-3-(trifluoromethyl)-", "m-Cresol, \u03b1,\u03b1,\u03b1-trifluoro-4-nitro-", "4-Nitro-3-(trifluoromethyl)phenol", "Lamprecid", "\u03b1,\u03b1,\u03b1-Trifluoro-4-nitro-m-cresol", "3-(Trifluoromethyl)-4-nitrophenol", "1-Nitro-4-hydroxy-2-(trifluoromethyl)benzene", "NSC 59758", "5-Hydroxy-2-nitrobenzotrifluoride"], "SMILES": "C(F)(F)(F)C1=C(N(=O)=O)C=CC(O)=C1", "physical_data": {"Molecular Weight": "207.11", "Molecular Formula": "C7H4F3NO3", "Melting Point": "76 \u00b0C"}}