{"cas_no": "88-32-4", "cn_name": "2-\u53d4\u4e01\u57fa-4-\u7f9f\u57fa\u8334\u9999\u919a", "en_name": ["2-tert-Butyl-4-hydroxyanisole", "Phenol, 3-(1,1-dimethylethyl)-4-methoxy-", "Phenol, 3-tert-butyl-4-methoxy-", "3-(1,1-Dimethylethyl)-4-methoxyphenol", "2-tert-Butyl-4-hydroxyanisole", "3-tert-Butyl-4-methoxyphenol", "tert-Butyl-3-methoxy-4-phenol", "2-tert-Butyl-p-hydroxyanisole", "4-Methoxy-3-tert-butylphenol", "2-(1,1-Dimethylethyl)-4-hydroxyanisole", "4-Methoxy-3-(1,1-dimethylethyl)phenol"], "SMILES": "C(C)(C)(C)C1=C(OC)C=CC(O)=C1", "physical_data": {"Molecular Weight": "180.24", "Molecular Formula": "C11H16O2", "Boiling Point": "142 \u00b0C @ Press: 14 Torr", "Melting Point": "62.3 \u00b0C"}}