{"cas_no": "88-41-5", "cn_name": "\u4e59\u9178\u90bb\u53d4\u4e01\u57fa\u73af\u5df1\u916f", "en_name": ["Verdox", "Cyclohexanol, 2-(1,1-dimethylethyl)-, 1-acetate", "Cyclohexanol, 2-(1,1-dimethylethyl)-, acetate", "Cyclohexanol, 2-tert-butyl-, acetate", "2-tert-Butylcyclohexanol acetate", "2-tert-Butylcyclohexyl acetate", "o-tert-Butylcyclohexyl acetate", "Verdox", "2-(1,1-Dimethylethyl)cyclohexyl acetate", "Agrumex HC", "2-(1,1-Dimethylethyl)cyclohexyl ethanoate"], "SMILES": "C(C)(C)(C)C1C(OC(C)=O)CCCC1", "physical_data": {"Molecular Weight": "198.30", "Molecular Formula": "C12H22O2", "Boiling Point": "227 \u00b0C"}}