{"cas_no": "88-44-8", "cn_name": "4-\u6c28\u57fa\u7532\u82ef-3-\u78fa\u9178", "en_name": ["2-Amino-5-methylbenzenesulfonic acid", "Benzenesulfonic acid, 2-amino-5-methyl-", "m-Toluenesulfonic acid, 6-amino-", "2-Amino-5-methylbenzenesulfonic acid", "PTMS", "PTMSA", "p-Toluidine-m-sulfonic acid", "6-Amino-m-toluenesulfonic acid", "4-Aminotoluene-3-sulfonic acid", "4-Methylaniline-2-sulfonic acid", "p-Toluidine-2-sulfonic acid", "2-Amino-5-methyl-1-benzenesulfonic acid", "4-Methyl-2-sulfoaniline", "4B Acid", "1-Amino-4-methylbenzene-2-sulfonic acid", "NSC 7544", "4-Amino-1-methylbenzene-3-sulfonic acid"], "SMILES": "S(=O)(=O)(O)C1=C(N)C=CC(C)=C1", "physical_data": {"Molecular Weight": "187.22", "Molecular Formula": "C7H9NO3S", "Melting Point": "93 \u00b0C"}}