{"cas_no": "88-43-7", "cn_name": "4-\u6c2f\u82ef\u80fa-3-\u78fa\u9178", "en_name": ["5-Amino-2-chlorobenzenesulfonic acid", "Benzenesulfonic acid, 5-amino-2-chloro-", "Metanilic acid, 6-chloro-", "5-Amino-2-chlorobenzenesulfonic acid", "p-Chloroaniline-m-sulfonic acid", "4-Chloroaniline-3-sulfonic acid", "4-Chloro-3-sulfoaniline", "6-Chlorometanilic acid", "3-Amino-6-chlorobenzenesulfonic acid", "1-Amino-4-chlorobenzene-3-sulfonic acid", "NSC 15346"], "SMILES": "S(=O)(=O)(O)C1=C(Cl)C=CC(N)=C1", "physical_data": {"Molecular Weight": "207.63", "Molecular Formula": "C6H6ClNO3S", "Melting Point": "&gt;310 \u00b0C (decomp)"}}