{"cas_no": "88-45-9", "cn_name": "2,5-\u4e8c\u6c28\u57fa\u82ef\u78fa\u9178", "en_name": ["2,5-Diaminobenzenesulfonic acid", "Benzenesulfonic acid, 2,5-diamino-", "2,5-Diaminobenzenesulfonic acid", "p-Phenylenediaminesulfonic acid", "p-Phenylenediamine-2-sulfonic acid", "1,4-Diaminobenzene-2-sulfonic acid", "1,4-Phenylenediamine-2-sulfonic acid", "1,4-Diamino-2-benzenesulfonic acid", "1,4-Phenylenediamine-3-sulfonic acid", "2,5-Diaminophenyl-1-sulfonic acid", "2-Sulfo-1,4-phenylenediamine", "2,5-Diaminobenzene-1-sulfonic acid", "1,4-Diaminobenzene-3-sulfonic acid"], "SMILES": "S(=O)(=O)(O)C1=C(N)C=CC(N)=C1", "physical_data": {"Molecular Weight": "188.20", "Molecular Formula": "C6H8N2O3S", "Melting Point": "&gt;309 \u00b0C"}}