{"cas_no": "88-58-4", "cn_name": "2,5-\u4e8c\u7279\u4e01\u57fa\u5bf9\u82ef\u4e8c\u915a", "en_name": ["2,5-Di-tert-butylhydroquinone", "1,4-Benzenediol, 2,5-bis(1,1-dimethylethyl)-", "Hydroquinone, 2,5-di-tert-butyl-", "2,5-Bis(1,1-dimethylethyl)-1,4-benzenediol", "Santovar O", "Dibug", "DTBHQ", "2,5-Di-tert-butylquinol", "Nocrac NS 7", "Antage DBH", "Naugard 451", "DBH", "1,4-Dihydroxy-2,5-di-tert-butylbenzene", "2,5-Di-tert-butyl-1,4-hydroquinone", "Nonflex Alba", "2,5-Di-tert-butyl-1,4-benzohydroquinone", "2,5-Di-tert-butylhydroquinone", "2,5-Di-tert-butyl-1,4-benzenediol", "NSC 11", "NSC 9886", "BHQ", "2,5-Dihydroxy-1,4-di-tert-butylbenzene", "DBHQ", "Alba", "2,5-Di-tert-butyl-1,4-dihydroxybenzene", "3,6-Di-tert-butylhydroquinone", "Antioxidant NS 7", "Antioxidant Alba", "Antioxidant DBH", "2,5-Ditert-butylbenzene-1,4-diol"], "SMILES": "C(C)(C)(C)C1=C(O)C=C(C(C)(C)C)C(O)=C1", "physical_data": {"Molecular Weight": "222.32", "Molecular Formula": "C14H22O2", "Melting Point": "213-214 \u00b0C"}}