{"cas_no": "88-67-5", "cn_name": "2-\u7898\u82ef\u7532\u9178", "en_name": ["2-Iodobenzoic acid", "Benzoic acid, 2-iodo-", "Benzoic acid, o-iodo-", "2-Iodobenzoic acid", "o-Iodobenzoic acid", "NSC 3772", "2-Carboxyphenyl iodide"], "SMILES": "C(O)(=O)C1=C(I)C=CC=C1", "physical_data": {"Molecular Weight": "248.02", "Molecular Formula": "C7H5IO2", "Melting Point": "163 \u00b0C"}}