{"cas_no": "88-61-9", "cn_name": "2,4-\u4e8c\u7532\u57fa\u82ef\u78fa\u9178", "en_name": ["2,4-Dimethylbenzenesulfonic acid", "Benzenesulfonic acid, 2,4-dimethyl-", "2,4-Xylenesulfonic acid", "2,4-Dimethylbenzenesulfonic acid", "m-Xylenesulfonic acid", "m-Xylene-4-sulfonic acid", "SXA 60", "2,4-Dimethylbenzene-1-sulfonic acid"], "SMILES": "S(=O)(=O)(O)C1=C(C)C=C(C)C=C1", "physical_data": {"Molecular Weight": "186.23", "Molecular Formula": "C8H10O3S", "Melting Point": "61-62 \u00b0C"}}