{"cas_no": "88-68-6", "cn_name": "2-\u6c28\u57fa\u82ef\u7532\u9170\u80fa", "en_name": ["Anthranilamide", "Benzamide, 2-amino-", "Benzamide, o-amino-", "2-Aminobenzamide", "o-Aminobenzamide", "Anthranilamide", "Anthranilimidic acid", "2-Carbamoylaniline", "SR 4327", "o-Carbamoylaniline", "2-Aminobenzenecarboxamide", "NSC 38768", "2-Aminobenzene-1-carboximidic acid"], "SMILES": "C(N)(=O)C1=C(N)C=CC=C1", "physical_data": {"Molecular Weight": "136.15", "Molecular Formula": "C7H8N2O", "Boiling Point": "300 \u00b0C", "Melting Point": "110-115 \u00b0C"}}