{"cas_no": "88-65-3", "cn_name": "2-\u6eb4\u82ef\u7532\u9178", "en_name": ["2-Bromobenzoic acid", "Benzoic acid, 2-bromo-", "Benzoic acid, o-bromo-", "2-Bromobenzoic acid", "o-Bromobenzoic acid", "NSC 176122", "NSC 6976", "Benzoic acid, 2-(bromocarbonyl)-"], "SMILES": "C(O)(=O)C1=C(Br)C=CC=C1", "physical_data": {"Molecular Weight": "201.02", "Molecular Formula": "C7H5BrO2", "Boiling Point": "86 \u00b0C @ Press: 4-5 Torr", "Melting Point": "150 \u00b0C", "Density": "1.929 g/cm\u00b3"}}