{"cas_no": "88-69-7", "cn_name": "2-\u5f02\u4e19\u57fa\u82ef\u915a", "en_name": ["2-Isopropylphenol", "Phenol, 2-(1-methylethyl)-", "Phenol, o-isopropyl-", "2-(1-Methylethyl)phenol", "o-Isopropylphenol", "2-Isopropylphenol", "o-Hydroxycumene", "o-Cumenol", "NSC 5103", "2-(Propan-2-yl)phenol"], "SMILES": "C(C)(C)C1=C(O)C=CC=C1", "physical_data": {"Molecular Weight": "136.19", "Molecular Formula": "C9H12O", "Boiling Point": "213.5 \u00b0C", "Melting Point": "15.5 \u00b0C", "Density": "0.9929 g/cm\u00b3 @ Temp: 25 \u00b0C"}}