{"cas_no": "88-60-8", "cn_name": "6-\u53d4\u4e01\u57fa\u95f4\u7532\u915a", "en_name": ["3-Methyl-6-tert-butylphenol", "Phenol, 2-(1,1-dimethylethyl)-5-methyl-", "m-Cresol, 6-tert-butyl-", "2-(1,1-Dimethylethyl)-5-methylphenol", "2-tert-Butyl-5-methylphenol", "6-tert-Butyl-m-cresol", "3-Methyl-6-tert-butylphenol", "6-tert-Butyl-3-methylphenol", "5-Methyl-2-tert-butylphenol", "NSC 48467", "6-tert-Butyl-3-cresol"], "SMILES": "C(C)(C)(C)C1=C(O)C=C(C)C=C1", "physical_data": {"Molecular Weight": "164.24", "Molecular Formula": "C11H16O", "Boiling Point": "224 \u00b0C @ Press: 760 Torr", "Melting Point": "46 \u00b0C", "Density": "0.922 g/cm\u00b3 @ Temp: 80 \u00b0C"}}