{"cas_no": "88-63-1", "cn_name": "2,4-\u4e8c\u6c28\u57fa\u82ef\u78fa\u9178", "en_name": ["2,4-Diaminobenzenesulfonic acid", "Benzenesulfonic acid, 2,4-diamino-", "2,4-Diaminobenzenesulfonic acid", "o-Aminosulfanilic acid", "1,3-Diaminobenzene-6-sulfonic acid", "m-Phenylenediamine-4-sulfonic acid", "1,3-Diaminobenzene-4-sulfonic acid", "1,3-Phenylenediamine-4-sulfonic acid", "4-Sulfo-1,3-diaminobenzene", "Metaphenylenediamine-4-sulfonic acid", "NSC 7835", "2,4-Diamino-1-benzenesulfonic acid", "ABSA", "1-Sulfo-2,4-phenylenediamine"], "SMILES": "S(=O)(=O)(O)C1=C(N)C=C(N)C=C1", "physical_data": {"Molecular Weight": "188.20", "Molecular Formula": "C6H8N2O3S", "Melting Point": "&gt;294 \u00b0C"}}