{"cas_no": "88-73-3", "cn_name": "\u90bb\u6c2f\u785d\u57fa\u82ef", "en_name": ["1-Chloro-2-nitrobenzene", "Benzene, 1-chloro-2-nitro-", "1-Chloro-2-nitrobenzene", "o-Chloronitrobenzene", "2-Chloro-1-nitrobenzene", "o-Nitrochlorobenzene", "ONCB", "2-Nitrochlorobenzene", "2-Chloronitrobenzene", "1-Nitro-2-chlorobenzene", "NSC 36934", "2-Nitrophenyl chloride", "2-Nitro-1-chlorobenzene", "o-Nitrobenzene chloride"], "SMILES": "N(=O)(=O)C1=C(Cl)C=CC=C1", "physical_data": {"Molecular Weight": "157.55", "Molecular Formula": "C6H4ClNO2", "Boiling Point": "245.5 \u00b0C", "Melting Point": "32 \u00b0C", "Density": "1.368 x 10<sup>-3</sup> g/cm\u00b3 @ Temp: 242 \u00b0C"}}