{"cas_no": "88-74-4", "cn_name": "2-\u785d\u57fa\u82ef\u80fa", "en_name": ["2-Nitroaniline", "Benzenamine, 2-nitro-", "Aniline, o-nitro-", "2-Nitrobenzenamine", "Azoene Fast Orange GR Base", "Azoene Fast Orange GR Salt", "Azofix Orange GR Salt", "Azogene Fast Orange GR", "Brentamine Fast Orange GR Base", "Brentamine Fast Orange GR Salt", "Devol Orange B", "Devol Orange Salt B", "Fast Orange O Base", "Fast Orange Base JR", "Fast Orange GR Base", "Fast Orange O Salt", "Fast Orange Salt JR", "Hiltonil Fast Orange GR Base", "Hiltosal Fast Orange GR Salt", "Hindasol Orange GR Salt", "Natasol Fast Orange GR Salt", "o-Nitroaniline", "ONA", "Orange Base Ciba II", "Orange Base Irga II", "Orange GRS Salt", "Orange Salt Ciba II", "Orange Salt Irga II", "2-Nitroaniline", "1-Amino-2-nitrobenzene", "o-Nitrophenylamine", "2-Nitrophenylamine", "2-Aminonitrobenzene", "o-Aminonitrobenzene", "1-Nitro-2-aminobenzene", "o-Nitrobenzenamine", "NSC 9796"], "SMILES": "N(=O)(=O)C1=C(N)C=CC=C1", "physical_data": {"Molecular Weight": "138.12", "Molecular Formula": "C6H6N2O2", "Boiling Point": "284 \u00b0C", "Melting Point": "69-71 \u00b0C", "Density": "0.9015 g/cm\u00b3 @ Temp: 25 \u00b0C"}}