{"cas_no": "88-72-2", "cn_name": "\u90bb\u785d\u57fa\u7532\u82ef", "en_name": ["2-Nitrotoluene", "Benzene, 1-methyl-2-nitro-", "Toluene, o-nitro-", "1-Methyl-2-nitrobenzene", "o-Methylnitrobenzene", "o-Nitrotoluene", "2-Nitrotoluene", "2-Methyl-1-nitrobenzene", "2-Methylnitrobenzene", "o-Mononitrotoluene", "NSC 9577"], "SMILES": "N(=O)(=O)C1=C(C)C=CC=C1", "physical_data": {"Molecular Weight": "137.14", "Molecular Formula": "C7H7NO2", "Boiling Point": "222 \u00b0C", "Melting Point": "-10 \u00b0C", "Density": "1.1622 g/cm\u00b3 @ Temp: 19 \u00b0C"}}