{"cas_no": "88-75-5", "cn_name": "2-\u785d\u57fa\u82ef\u915a", "en_name": ["2-Nitrophenol", "Phenol, 2-nitro-", "Phenol, o-nitro-", "2-Nitrophenol", "o-Hydroxynitrobenzene", "o-Nitrophenol", "2-Hydroxynitrobenzene", "NSC 1552"], "SMILES": "N(=O)(=O)C1=C(O)C=CC=C1", "physical_data": {"Molecular Weight": "139.11", "Molecular Formula": "C6H5NO3", "Boiling Point": "216 \u00b0C", "Melting Point": "44-45 \u00b0C", "Density": "1.495 g/cm\u00b3"}}