{"cas_no": "88-86-8", "cn_name": "2,5-\u4e8c\u6c2f-3-\u785d\u57fa\u82ef\u7532\u9178", "en_name": ["2,5-Dichloro-3-nitrobenzoic acid", "Benzoic acid, 2,5-dichloro-3-nitro-", "2,5-Dichloro-3-nitrobenzoic acid", "Dinoben", "3-Nitro-2,5-dichlorobenzoic acid"], "SMILES": "C(O)(=O)C1=C(Cl)C(N(=O)=O)=CC(Cl)=C1", "physical_data": {"Molecular Weight": "236.01", "Molecular Formula": "C7H3Cl2NO4", "Melting Point": "220 \u00b0C"}}