{"cas_no": "88-88-0", "cn_name": "2,4,6-\u4e09\u785d\u57fa\u6c2f\u4ee3\u82ef(0309\u9650\u51fa\u53e3)", "en_name": ["Picryl chloride", "Benzene, 2-chloro-1,3,5-trinitro-", "2-Chloro-1,3,5-trinitrobenzene", "Picryl chloride", "2,4,6-Trinitro-1-chlorobenzene", "2,4,6-Trinitrochlorobenzene", "1-Chloro-2,4,6-trinitrobenzene", "NSC 106297", "NSC 1872"], "SMILES": "N(=O)(=O)C1=C(Cl)C(N(=O)=O)=CC(N(=O)=O)=C1", "physical_data": {"Molecular Weight": "247.55", "Molecular Formula": "C6H2ClN3O6", "Boiling Point": "375 \u00b0C", "Melting Point": "83 \u00b0C", "Density": "1.797 g/cm\u00b3 @ Temp: 20 \u00b0C"}}