{"cas_no": "88-82-4", "cn_name": "2,3,5-\u4e09\u7898\u82ef\u7532\u9178", "en_name": ["2,3,5-Triiodobenzoic acid", "Benzoic acid, 2,3,5-triiodo-", "2,3,5-Triiodobenzoic acid", "TIB", "TIBA", "2,3,5-TIBA", "Triiodobenzoic acid", "Floraltone", "Johnkolor", "A 20812", "NSC 2582"], "SMILES": "C(O)(=O)C1=C(I)C(I)=CC(I)=C1", "physical_data": {"Molecular Weight": "499.81", "Molecular Formula": "C7H3I3O2", "Melting Point": "224-226 \u00b0C"}}