{"cas_no": "88-85-7", "cn_name": "\u5730\u4e50\u915a", "en_name": ["Dinoseb", "Phenol, 2-(1-methylpropyl)-4,6-dinitro-", "Phenol, 2-sec-butyl-4,6-dinitro-", "2-(1-Methylpropyl)-4,6-dinitrophenol", "BNP 30", "DN 289", "Butaphene", "2-sec-Butyl-4,6-dinitrophenol", "Chemox P.E.", "4,6-Dinitro-2-(1-methyl-n-propyl)phenol", "Dinoseb", "DNOSBP", "DNSBP", "Dow General", "4,6-Dinitro-2-sec-butylphenol", "4,6-Dinitro-o-sec-butylphenol", "BNP 20", "Dibutox", "DNBP", "Liro DNBP", "2,4-Dinitro-6-sec-butylphenol", "DBNF", "WSX 8365", "2,4-Dinitro-6-(1-methylpropyl)phenol", "Dytop", "Laseb", "Aatox", "Hivertox", "Ladob", "Desicoil", "6-sec-Butyl-2,4-dinitrophenol", "Butaphen", "Premerge", "Blaartox", "4,6-Dinitro-2-(2-butyl)phenol", "Dibutox 20CE", "NSC 202753", "Super Kabrol"], "SMILES": "C(CC)(C)C1=C(O)C(N(=O)=O)=CC(N(=O)=O)=C1", "physical_data": {"Molecular Weight": "240.21", "Molecular Formula": "C10H12N2O5", "Boiling Point": "332 \u00b0C", "Melting Point": "38-42 \u00b0C", "Density": "1.2647 g/cm\u00b3 @ Temp: 45 \u00b0C"}}