{"cas_no": "88-89-1", "cn_name": "\u82e6\u5473\u9178", "en_name": ["Picric acid", "Phenol, 2,4,6-trinitro-", "Picric acid", "2,4,6-Trinitrophenol", "C.I. 10305", "Carbazotic acid", "Nitroxanthic acid", "Picronitric acid", "Trinitrophenol", "Melinite", "Picral", "1-Hydroxy-2,4,6-trinitrobenzene", "NSC 36947", "NSC 56147", "MeSH ID: D010851"], "SMILES": "N(=O)(=O)C1=C(O)C(N(=O)=O)=CC(N(=O)=O)=C1", "physical_data": {"Molecular Weight": "229.10", "Molecular Formula": "C6H3N3O7", "Boiling Point": "&gt;300 \u00b0C", "Melting Point": "122-123 \u00b0C", "Density": "1.763 g/cm\u00b3"}}