{"cas_no": "88-99-3", "cn_name": "\u90bb\u82ef\u4e8c\u7532\u9178", "en_name": ["Phthalic acid", "1,2-Benzenedicarboxylic acid", "Phthalic acid", "o-Benzenedicarboxylic acid", "o-Dicarboxybenzene", "Sunftal 20", "o-Carboxybenzoic acid", "M 2", "NSC 5348", "HA 21"], "SMILES": "C(O)(=O)C1=C(C(O)=O)C=CC=C1", "physical_data": {"Molecular Weight": "166.13", "Molecular Formula": "C8H6O4", "Melting Point": "191 \u00b0C (decomp)", "Density": "1.593 g/cm\u00b3 @ Temp: 15 \u00b0C"}}