{"cas_no": "88-95-9", "cn_name": "\u90bb\u82ef\u4e8c\u7532\u9170\u6c2f", "en_name": ["Phthaloyl chloride", "1,2-Benzenedicarbonyl dichloride", "Phthaloyl chloride", "Phthalic acid dichloride", "Phthalyl chloride", "Phthalyl dichloride", "Phthalic chloride", "1,2-Bis(chlorocarbonyl)benzene", "Phthalic dichloride", "Phthaloyl dichloride", "o-Phthalic acid dichloride", "NSC 44611", "1,2-Phthaloyl dichloride", "o-Phthaloyl dichloride"], "SMILES": "C(Cl)(=O)C1=C(C(Cl)=O)C=CC=C1", "physical_data": {"Molecular Weight": "203.02", "Molecular Formula": "C8H4Cl2O2", "Boiling Point": "281.1 \u00b0C", "Melting Point": "15.5 \u00b0C"}}