{"cas_no": "88-96-0", "cn_name": "\u90bb\u82ef\u4e8c\u7532\u9170\u80fa", "en_name": ["Phthalamide", "1,2-Benzenedicarboxamide", "Phthalamide", "Phthaldiamide", "Phthalic acid diamide", "o-Carbamoylbenzamide", "NSC 5512"], "SMILES": "C(N)(=O)C1=C(C(N)=O)C=CC=C1", "physical_data": {"Molecular Weight": "164.16", "Molecular Formula": "C8H8N2O2", "Boiling Point": "233 \u00b0C", "Melting Point": "228 \u00b0C (decomp)"}}