{"cas_no": "88-97-1", "cn_name": "\u90bb\u7532\u9170\u80fa\u82ef\u7532\u9178", "en_name": ["Phthalamic acid", "Benzoic acid, 2-(aminocarbonyl)-", "Phthalamic acid", "2-(Aminocarbonyl)benzoic acid", "Phthalamide acid", "Phthalamidic acid", "o-Carbamoylbenzoic acid", "Phthalic acid monoamide", "Phthalic monoamide", "2-Carbamoylbenzoic acid", "NSC 5344"], "SMILES": "C(N)(=O)C1=C(C(O)=O)C=CC=C1", "physical_data": {"Molecular Weight": "165.15", "Molecular Formula": "C8H7NO3", "Melting Point": "185-186 \u00b0C"}}