{"cas_no": "880-78-4", "cn_name": "5-\u6c1f\u785d\u57fa\u82ef", "en_name": ["Pentafluoronitrobenzene", "Benzene, 1,2,3,4,5-pentafluoro-6-nitro-", "Benzene, pentafluoronitro-", "1,2,3,4,5-Pentafluoro-6-nitrobenzene", "Pentafluoronitrobenzene", "Nitropentafluorobenzene", "Perfluoronitrobenzene", "2,3,4,5,6-Pentafluoronitrobenzene"], "SMILES": "N(=O)(=O)C1=C(F)C(F)=C(F)C(F)=C1F", "physical_data": {"Molecular Weight": "213.06", "Molecular Formula": "C6F5NO2", "Boiling Point": "159.5 \u00b0C"}}