{"cas_no": "880-36-4", "cn_name": "2-\u6b63\u8f9b\u57fa\u567b\u5429", "en_name": ["2-Octylthiophene", "Thiophene, 2-octyl-", "2-Octylthiophene", "2-n-Octylthiophene"], "SMILES": "C(CCCCCCC)C1=CC=CS1", "physical_data": {"Molecular Weight": "196.35", "Molecular Formula": "C12H20S", "Boiling Point": "180 \u00b0C @ Press: 12 Torr", "Melting Point": "-44.22 \u00b0C", "Density": "0.934 g/cm\u00b3"}}