{"cas_no": "880-29-5", "cn_name": "1-(4-\u4e59\u6c27\u57fa\u82ef\u57fa)-2-\u786b\u8132", "en_name": ["N-(4-Ethoxyphenyl)thiourea", "Thiourea, N-(4-ethoxyphenyl)-", "Urea, 1-(p-ethoxyphenyl)-2-thio-", "Thiourea, (4-ethoxyphenyl)-", "N-(4-Ethoxyphenyl)thiourea", "(p-Ethoxyphenyl)thiourea", "(4-Ethoxyphenyl)thiourea", "4-Thioureidophenetole", "NSC 31198", "1-(4-Ethoxyphenyl)thiourea"], "SMILES": "N(C(N)=S)C1=CC=C(OCC)C=C1", "physical_data": {"Molecular Weight": "196.27", "Molecular Formula": "C9H12N2OS", "Melting Point": "171-173 \u00b0C"}}