{"cas_no": "880-52-4", "cn_name": "\u4e59\u9170\u91d1\u521a\u70f7\u80fa", "en_name": ["1-Acetamidoadamantane", "Acetamide, N-tricyclo[3.3.1.13,7]dec-1-yl-", "Acetamide, N-1-adamantyl-", "N-Tricyclo[3.3.1.13,7]dec-1-ylacetamide", "N-1-Adamantylacetamide", "1-Acetamidoadamantane", "N-Adamantylacetamide", "N-(Tricyclo[3.3.1.13,7]dec-1-yl)acetamide", "NSC 527917", "N-Acetyl amantadine", "N-(Adamantan-1-yl)acetamide"], "SMILES": "N(C(C)=O)C12CC3CC(C1)CC(C2)C3", "physical_data": {"Molecular Weight": "193.29", "Molecular Formula": "C12H19NO", "Melting Point": "148 \u00b0C"}}