{"cas_no": "880-09-1", "cn_name": "\u4e8c\u54cc\u5576\u7532\u70f7", "en_name": ["Dipiperidinomethane", "Piperidine, 1,1\u2032-methylenebis-", "Piperidine, 1,1\u2032-methylenedi-", "1,1\u2032-Methylenebis[piperidine]", "Dipiperidinomethane", "Bis(piperidino)methane", "Methylenebispiperidine", "1,1\u2032-Methylenedipiperidine", "NSC 25572", "1,1\u2032-Methylenebis-piperidin", "1-[(Piperidin-1-yl)methyl]piperidine", "1-(Piperidin-1-ylmethyl)piperidine", "Di(piperidin-1-yl)methane"], "SMILES": "C(N1CCCCC1)N2CCCCC2", "physical_data": {"Molecular Weight": "182.31", "Molecular Formula": "C11H22N2", "Boiling Point": "235 \u00b0C", "Density": "0.9168 g/cm\u00b3 @ Temp: 16.5 \u00b0C"}}