{"cas_no": "88043-21-4", "cn_name": "N-Boc-\u53cd\u5f0f-4-\u5bf9\u7532\u82ef\u78fa\u9170\u6c27\u57fa-L-\u812f\u6c28\u9178\u7532\u916f", "en_name": ["1-(1,1-Dimethylethyl) 2-methyl (2S,4R)-4-[[(4-methylphenyl)sulfonyl]oxy]-1,2-pyrrolidinedicarboxylate", "1,2-Pyrrolidinedicarboxylic acid, 4-[[(4-methylphenyl)sulfonyl]oxy]-, 1-(1,1-dimethylethyl) 2-methyl ester, (2S,4R)-", "1,2-Pyrrolidinedicarboxylic acid, 4-[[(4-methylphenyl)sulfonyl]oxy]-, 1-(1,1-dimethylethyl) 2-methyl ester, (2S-trans)-", "1-(1,1-Dimethylethyl) 2-methyl (2S,4R)-4-[[(4-methylphenyl)sulfonyl]oxy]-1,2-pyrrolidinedicarboxylate", "tert-Butyl methyl (2S,4R)-4-[[(4-methylphenyl)sulfonyl]oxy]pyrrolidine-1,2-dicarboxylate"], "SMILES": "C(OC(C)(C)C)(=O)N1C(C(OC)=O)CC(OS(=O)(=O)C2=CC=C(C)C=C2)C1", "physical_data": {"Molecular Weight": "399.46", "Molecular Formula": "C18H25NO7S", "Melting Point": "76-78 \u00b0C"}}