{"cas_no": "880468-89-3", "cn_name": "(R)-2-\u53d4\u4e01\u6c27\u7fb0\u57fa\u6c28\u57fa-N-\u82c4\u57fa-3-\u7532\u6c27\u57fa\u4e19\u9170\u80fa", "en_name": ["1,1-Dimethylethyl N-[(1R)-1-(methoxymethyl)-2-oxo-2-[(phenylmethyl)amino]ethyl]carbamate", "Carbamic acid, N-[(1R)-1-(methoxymethyl)-2-oxo-2-[(phenylmethyl)amino]ethyl]-, 1,1-dimethylethyl ester", "Carbamic acid, [(1R)-1-(methoxymethyl)-2-oxo-2-[(phenylmethyl)amino]ethyl]-, 1,1-dimethylethyl ester", "1,1-Dimethylethyl N-[(1R)-1-(methoxymethyl)-2-oxo-2-[(phenylmethyl)amino]ethyl]carbamate", "(R)-N-Benzyl-2-(tert-butoxycarbonylamino)-3-methoxypropionamide", "tert-Butyl [(2R)-1-(benzylamino)-3-methoxy-1-oxopropan-2-yl]carbamate", "(R)-tert-Butyl 1-(benzylamino)-3-methoxy-1-oxopropan-2-ylcarbamate", "(R)-tert-Butyl1-(benzylamino)-3-methoxy-1-oxopropan-2-ylcarbamate"], "SMILES": "C(C(NCC1=CC=CC=C1)=O)(NC(OC(C)(C)C)=O)COC", "physical_data": {"Molecular Weight": "308.37", "Molecular Formula": "C16H24N2O4", "Melting Point": "63-64 \u00b0C"}}