{"cas_no": "88040-23-7", "cn_name": "\u5934\u5b62\u5421\u809f", "en_name": ["Cefepime", "Pyrrolidinium, 1-[[(6R,7R)-7-[[(2Z)-2-(2-amino-4-thiazolyl)-2-(methoxyimino)acetyl]amino]-2-carboxy-8-oxo-5-thia-1-azabicyclo[4.2.0]oct-2-en-3-yl]methyl]-1-methyl-, inner salt", "Pyrrolidinium, 1-[[7-[[(2-amino-4-thiazolyl)(methoxyimino)acetyl]amino]-2-carboxy-8-oxo-5-thia-1-azabicyclo[4.2.0]oct-2-en-3-yl]methyl]-1-methyl-, inner salt, [6R-[6\u03b1,7\u03b2(Z)]]-", "Pyrrolidinium, 1-[[(6R,7R)-7-[[(2Z)-(2-amino-4-thiazolyl)(methoxyimino)acetyl]amino]-2-carboxy-8-oxo-5-thia-1-azabicyclo[4.2.0]oct-2-en-3-yl]methyl]-1-methyl-, inner salt", "BMY 28142", "Cefepime", "FR 81335", "Tsefepim", "Cefimen K", "Sefdin"], "SMILES": "C([O-])(=O)C=1N2C(C(NC(C(=NOC)C3=CSC(N)=N3)=O)C2=O)SCC1C[N+]4(C)CCCC4", "physical_data": {"Molecular Weight": "", "Molecular Formula": "C19H24N6O5S2", "Melting Point": "150 \u00b0C (decomp)"}}