{"cas_no": "88054-22-2", "cn_name": "2-\u7532\u57fa-5-\u785d\u57fa\u54aa\u5511", "en_name": ["2-Methyl-5-nitroimidazole", "1H-Imidazole, 2-methyl-5-nitro-", "Imidazole, 2-methyl-4-nitro-", "1H-Imidazole, 2-methyl-4-nitro-", "Imidazole, 2-methyl-4(or 5)-nitro-", "2-Methyl-5-nitro-1H-imidazole", "2-Methyl-4-nitroimidazole", "2-Methyl-5-nitroimidazole", "RP 8532", "Menidazole", "2-Methyl-4-nitro-1H-imidazole", "L 581490", "4-Nitro-2-methylimidazole"], "SMILES": "N(=O)(=O)C=1NC(C)=NC1", "physical_data": {"Molecular Weight": "127.10", "Molecular Formula": "C4H5N3O2", "Melting Point": "248 \u00b0C"}}