{"cas_no": "88069-49-2", "cn_name": "\u76d0\u9178\u5421\u897f\u5361\u5462", "en_name": ["Pilsicainide hydrochloride", "1H-Pyrrolizine-7a(5H)-acetamide, N-(2,6-dimethylphenyl)tetrahydro-, hydrochloride (1:1)", "1H-Pyrrolizine-7a(5H)-acetamide, N-(2,6-dimethylphenyl)tetrahydro-, monohydrochloride", "SUN 1165", "Pilsicainide hydrochloride", "Sunrythm", "1H-Pyrrolizine-7a(5H)-acetamide N-(2,6-dimethylphenyl)tetrahydro-, hydrochloride"], "SMILES": "C(C(NC1=C(C)C=CC=C1C)=O)C23N(CCC2)CCC3.Cl", "physical_data": {"Molecular Weight": "", "Molecular Formula": "C17H24N2O.ClH", "Melting Point": "212-214 \u00b0C"}}