{"cas_no": "88082-66-0", "cn_name": "(R,R)-(+)-2-\u6c28\u57fa-1,2-\u4e8c\u82ef\u57fa\u4e59\u9187", "en_name": ["(\u03b1R,\u03b2R)-\u03b2-Amino-\u03b1-phenylbenzeneethanol", "Benzeneethanol, \u03b2-amino-\u03b1-phenyl-, (\u03b1R,\u03b2R)-", "Benzeneethanol, \u03b2-amino-\u03b1-phenyl-, [R-(R*,R*)]-", "(\u03b1R,\u03b2R)-\u03b2-Amino-\u03b1-phenylbenzeneethanol", "(R,R)-2-Amino-1,2-diphenylethanol", "(1R,2R)-1-Amino-2-hydroxy-1,2-diphenylethane", "(1R,2R)-(+)-2-Amino-1,2-diphenylethanol"], "SMILES": "C(C(O)C1=CC=CC=C1)(N)C2=CC=CC=C2", "physical_data": {"Molecular Weight": "213.27", "Molecular Formula": "C14H15NO", "Melting Point": "104-106 \u00b0C"}}