{"cas_no": "88082-60-4", "cn_name": "\u6842\u76ae\u97a3\u8d28B1", "en_name": ["Cinnamtannin B1", "8,14-Methano-2H,14H-1-benzopyrano[7,8-d][1,3]benzodioxocin-3,5,11,13,15-pentol, 2,8-bis(3,4-dihydroxyphenyl)-4-[(2R,3R)-2-(3,4-dihydroxyphenyl)-3,4-dihydro-3,5,7-trihydroxy-2H-1-benzopyran-8-yl]-3,4-dihydro-, (2R,3R,4S,8S,14R,15R)-", "8,14-Methano-2H,14H-1-benzopyrano[7,8-d][1,3]benzodioxocin-3,5,11,13,15-pentol, 2,8-bis(3,4-dihydroxyphenyl)-4-[2-(3,4-dihydroxyphenyl)-3,4-dihydro-3,5,7-trihydroxy-2H-1-benzopyran-8-yl]-3,4-dihydro-, [2R-[2\u03b1,3\u03b1,4\u03b2(2R*,3R*),8\u03b2,14\u03b2,15R*]]-", "(2R,3R,4S,8S,14R,15R)-2,8-Bis(3,4-dihydroxyphenyl)-4-[(2R,3R)-2-(3,4-dihydroxyphenyl)-3,4-dihydro-3,5,7-trihydroxy-2H-1-benzopyran-8-yl]-3,4-dihydro-8,14-methano-2H,14H-1-benzopyrano[7,8-d][1,3]benzodioxocin-3,5,11,13,15-pentol", "Cinnamtannin B1", "LDN 0022358"], "SMILES": "OC1C2(OC3=C(C1C=4C(O2)=CC(O)=CC4O)C5=C(C(O)=C3)C(C(O)C(O5)C6=CC(O)=C(O)C=C6)C7=C8C(CC(O)C(O8)C9=CC(O)=C(O)C=C9)=C(O)C=C7O)C%10=CC(O)=C(O)C=C%10", "physical_data": {"Molecular Weight": "864.76", "Molecular Formula": "C45H36O18", "Melting Point": "203-206 \u00b0C (decomp)"}}