{"cas_no": "881-99-2", "cn_name": "\u95f4\u4e8c(\u4e09\u6c2f\u7532\u57fa)\u82ef", "en_name": ["1,3-Bis(trichloromethyl)benzene", "Benzene, 1,3-bis(trichloromethyl)-", "m-Xylene, \u03b1,\u03b1,\u03b1,\u03b1\u2032,\u03b1\u2032,\u03b1\u2032-hexachloro-", "1,3-Bis(trichloromethyl)benzene", "\u03b1,\u03b1,\u03b1,\u03b1\u2032,\u03b1\u2032,\u03b1\u2032-Hexachloro-m-xylene", "m-Bis(trichloromethyl)benzene", "3-(Trichloromethyl)benzotrichloride", "NSC 41882", "1,3-Di(trichloromethyl)benzene"], "SMILES": "C(Cl)(Cl)(Cl)C1=CC(C(Cl)(Cl)Cl)=CC=C1", "physical_data": {"Molecular Weight": "312.84", "Molecular Formula": "C8H4Cl6", "Boiling Point": "113-116 \u00b0C @ Press: 1 Torr", "Melting Point": "41-42 \u00b0C"}}