{"cas_no": "881-03-8", "cn_name": "2-\u7532\u57fa-\u4e8c\u785d\u57fa\u8418\u915a", "en_name": ["2-Methyl-1-nitronaphthalene", "Naphthalene, 2-methyl-1-nitro-", "2-Methyl-1-nitronaphthalene", "1-Nitro-2-methylnaphthalene", "NSC 7516"], "SMILES": "N(=O)(=O)C=1C2=C(C=CC1C)C=CC=C2", "physical_data": {"Molecular Weight": "187.19", "Molecular Formula": "C11H9NO2", "Boiling Point": "185-186 \u00b0C", "Melting Point": "81.5 \u00b0C"}}