{"cas_no": "881-50-5", "cn_name": "4-\u6eb4-2-\u785d\u57fa\u4e59\u9170\u82ef\u80fa", "en_name": ["N-(4-Bromo-2-nitrophenyl)acetamide", "Acetamide, N-(4-bromo-2-nitrophenyl)-", "Acetanilide, 4\u2032-bromo-2\u2032-nitro-", "N-(4-Bromo-2-nitrophenyl)acetamide", "4\u2032-Bromo-2\u2032-nitroacetanilide", "NSC 142293"], "SMILES": "N(C(C)=O)C1=C(N(=O)=O)C=C(Br)C=C1", "physical_data": {"Molecular Weight": "259.06", "Molecular Formula": "C8H7BrN2O3", "Melting Point": "104 \u00b0C"}}