{"cas_no": "881-68-5", "cn_name": "\u4e59\u9170\u9999\u5170\u7d20", "en_name": ["Acetovanillin", "Benzaldehyde, 4-(acetyloxy)-3-methoxy-", "Vanillin, acetate", "4-(Acetyloxy)-3-methoxybenzaldehyde", "Acetovanillin", "4-Acetoxy-3-methoxybenzaldehyde", "Acetylvanillin", "O-Acetylvanillin", "4-O-Acetylvanillin", "4-Formyl-2-methoxyphenol acetate", "4-Formyl-2-methoxyphenyl acetate", "4-Acetoxy-5-methoxybenzaldehyde", "NSC 25863", "NSC 8499"], "SMILES": "O(C(C)=O)C1=C(OC)C=C(C=O)C=C1", "physical_data": {"Molecular Weight": "194.18", "Molecular Formula": "C10H10O4", "Melting Point": "77 \u00b0C"}}