{"cas_no": "881-95-8", "cn_name": "DL-3-\u7532\u6c27\u57fa\u80be\u4e0a\u817a\u7d20\u76d0\u9178\u76d0", "en_name": ["Benzenemethanol, 4-hydroxy-3-methoxy-\u03b1-[(methylamino)methyl]-, hydrochloride (1:1)", "Benzenemethanol, 4-hydroxy-3-methoxy-\u03b1-[(methylamino)methyl]-, hydrochloride (1:1)", "Vanillyl alcohol, \u03b1-[(methylamino)methyl]-, hydrochloride, (\u00b1)-", "Benzenemethanol, 4-hydroxy-3-methoxy-\u03b1-[(methylamino)methyl]-, hydrochloride, (\u00b1)-", "Benzenemethanol, 4-hydroxy-3-methoxy-\u03b1-[(methylamino)methyl]-, hydrochloride", "(\u00b1)-Metanephrine hydrochloride", "dl-Metanephrine hydrochloride", "Metanephrine hydrochloride"], "SMILES": "C(CNC)(O)C1=CC(OC)=C(O)C=C1.Cl", "physical_data": {"Molecular Weight": "", "Molecular Formula": "C10H15NO3.ClH", "Melting Point": "177-178 \u00b0C", "Density": "1.320 g/cm\u00b3"}}