{"cas_no": "881-07-2", "cn_name": "8-\u785d\u57fa\u55b9\u90a3\u5549(8-\u785d\u57fa-2-\u7532\u57fa\u55b9\u5549)", "en_name": ["2-Methyl-8-nitroquinoline", "Quinoline, 2-methyl-8-nitro-", "Quinaldine, 8-nitro-", "2-Methyl-8-nitroquinoline", "8-Nitroquinaldine", "NSC 163380", "8-Nitro-2-methylquinoline"], "SMILES": "N(=O)(=O)C=1C2=C(C=CC(C)=N2)C=CC1", "physical_data": {"Molecular Weight": "188.18", "Molecular Formula": "C10H8N2O2", "Melting Point": "139-141 \u00b0C"}}