{"cas_no": "88107-10-2", "cn_name": "\u6cb9\u9178\u4e09\u4e59\u9187\u80fa", "en_name": ["Tomelukast", "Ethanone, 1-[2-hydroxy-3-propyl-4-[4-(2H-tetrazol-5-yl)butoxy]phenyl]-", "Ethanone, 1-[2-hydroxy-3-propyl-4-[4-(1H-tetrazol-5-yl)butoxy]phenyl]-", "1-[2-Hydroxy-3-propyl-4-[4-(2H-tetrazol-5-yl)butoxy]phenyl]ethanone", "LY 171883", "Tomelukast", "1-[2-Hydroxy-3-propyl-4-[4-(1H-tetrazol-5-yl)butoxy]phenyl]ethanone"], "SMILES": "O(CCCCC=1NN=NN1)C2=C(CCC)C(O)=C(C(C)=O)C=C2", "physical_data": {"Molecular Weight": "318.37", "Molecular Formula": "C16H22N4O3", "Melting Point": "113.5-115.0 \u00b0C"}}