{"cas_no": "88149-94-4", "cn_name": "5-\u6eb4-2-\uff084-\u6c1f\u82ef\u57fa\uff09-3-\uff084-\u7532\u57fa\u78fa\u9170\u57fa\u82ef\u57fa\uff09\u567b\u5429", "en_name": ["5-Bromo-2-(4-fluorophenyl)-3-[4-(methylsulfonyl)phenyl]thiophene", "Thiophene, 5-bromo-2-(4-fluorophenyl)-3-[4-(methylsulfonyl)phenyl]-", "5-Bromo-2-(4-fluorophenyl)-3-[4-(methylsulfonyl)phenyl]thiophene", "DuP 697"], "SMILES": "BrC1=CC(=C(S1)C2=CC=C(F)C=C2)C3=CC=C(S(C)(=O)=O)C=C3", "physical_data": {"Molecular Weight": "411.31", "Molecular Formula": "C17H12BrFO2S2", "Melting Point": "129-131 \u00b0C"}}