{"cas_no": "88150-42-9", "cn_name": "\u6c28\u6c2f\u5730\u5e73", "en_name": ["Amlodipine", "3,5-Pyridinedicarboxylic acid, 2-[(2-aminoethoxy)methyl]-4-(2-chlorophenyl)-1,4-dihydro-6-methyl-, 3-ethyl 5-methyl ester", "Amlodipine", "Racemic Amlodipine", "Pelmec", "2-[(2-Aminoethoxy)methyl]-4-(2-chlorophenyl)-3-(ethoxycarbonyl)-5-(methoxycarbonyl)-6-methyl-1,4-dihydropyridine", "(R,S)-Amlodipine", "Amlopres", "Intervask", "(\u00b1)-Amlodipine", "Adipin", "Sofvasc", "Egiramlon", "2-(2-Amino-ethoxymethyl)-4-(2-chloro-phenyl)-6-methyl-1,4-dihydro-pyridine-3,5-dicarboxylic acid 3-ethyl ester 5-methyl ester", "3-O-Ethyl 5-O-methyl 2-(2-aminoethoxymethyl)-4-(2-chlorophenyl)-6-methyl-1,4-dihydropyridine-3,5-dicarboxylate", "MeSH ID: D017311"], "SMILES": "C(OCC)(=O)C=1C(C(C(OC)=O)=C(C)NC1COCCN)C2=C(Cl)C=CC=C2", "physical_data": {"Molecular Weight": "408.88", "Molecular Formula": "C20H25ClN2O5", "Melting Point": "178-180 \u00b0C"}}