{"cas_no": "88150-47-4", "cn_name": "\u9a6c\u6765\u9178\u6c28\u6c2f\u5730\u5e73", "en_name": ["Amlodipine maleate", "3,5-Pyridinedicarboxylic acid, 2-[(2-aminoethoxy)methyl]-4-(2-chlorophenyl)-1,4-dihydro-6-methyl-, 3-ethyl 5-methyl ester, (2Z)-2-butenedioate (1:1)", "3,5-Pyridinedicarboxylic acid, 2-[(2-aminoethoxy)methyl]-4-(2-chlorophenyl)-1,4-dihydro-6-methyl-, 3-ethyl 5-methyl ester, (Z)-2-butenedioate (1:1)", "Amlodipine maleate", "UK 48340-11"], "SMILES": "C(=CC(O)=O)C(O)=O.C(OCC)(=O)C=1C(C(C(OC)=O)=C(C)NC1COCCN)C2=C(Cl)C=CC=C2", "physical_data": {"Molecular Weight": "", "Molecular Formula": "C20H25ClN2O5.C4H4O4", "Melting Point": "174.23 \u00b0C"}}