{"cas_no": "881639-98-1", "cn_name": "881639-98-1", "en_name": ["rel-1-[(3aR,4S,9bS)-4-(6-Bromo-1,3-benzodioxol-5-yl)-3a,4,5,9b-tetrahydro-3H-cyclopenta[c]quinolin-8-yl]ethanone", "Ethanone, 1-[(3aR,4S,9bS)-4-(6-bromo-1,3-benzodioxol-5-yl)-3a,4,5,9b-tetrahydro-3H-cyclopenta[c]quinolin-8-yl]-, rel-", "rel-1-[(3aR,4S,9bS)-4-(6-Bromo-1,3-benzodioxol-5-yl)-3a,4,5,9b-tetrahydro-3H-cyclopenta[c]quinolin-8-yl]ethanone", "G1", "G 1", "G 1 (Anti-tumor agent)"], "SMILES": "BrC1=C(C2C3C(C=4C(N2)=CC=C(C(C)=O)C4)C=CC3)C=C5C(=C1)OCO5", "physical_data": {"Molecular Weight": "412.28", "Molecular Formula": "C21H18BrNO3", "Melting Point": "103-105 \u00b0C"}}