{"cas_no": "881681-00-1", "cn_name": "\u6c83\u8bfa\u62c9\u8d5e", "en_name": ["Vonoprazan", "1H-Pyrrole-3-methanamine, 5-(2-fluorophenyl)-N-methyl-1-(3-pyridinylsulfonyl)-", "5-(2-Fluorophenyl)-N-methyl-1-(3-pyridinylsulfonyl)-1H-pyrrole-3-methanamine", "1-[5-(2-Fluorophenyl)-1-[(pyridin-3-yl)sulfonyl]-1H-pyrrol-3-yl]-N-methylmethanamine", "Vonoprazan", "TAK 438 free form"], "SMILES": "S(=O)(=O)(N1C(=CC(CNC)=C1)C2=C(F)C=CC=C2)C=3C=CC=NC3", "physical_data": {"Molecular Weight": "345.39", "Molecular Formula": "C17H16FN3O2S", "Melting Point": "200.2-202 \u00b0C"}}