{"cas_no": "881674-56-2", "cn_name": "5-(2-\u6c1f\u82ef\u57fa)-1H-\u5421\u54af-3-\u7532\u919b", "en_name": ["5-(2-Fluorophenyl)-1H-pyrrole-3-carboxaldehyde", "1H-Pyrrole-3-carboxaldehyde, 5-(2-fluorophenyl)-", "5-(2-Fluorophenyl)-1H-pyrrole-3-carboxaldehyde"], "SMILES": "FC1=C(C2=CC(C=O)=CN2)C=CC=C1", "physical_data": {"Molecular Weight": "189.19", "Molecular Formula": "C11H8FNO", "Melting Point": "130-131 \u00b0C"}}