{"cas_no": "881681-01-2", "cn_name": "\u5bcc\u9a6c\u9178\u6c83\u8bfa\u62c9\u8d5e", "en_name": ["5-(2-Fluorophenyl)-N-methyl-1-(3-pyridinylsulfonyl)-1H-pyrrole-3-methanamine (2E)-2-butenedioate (1:1)", "1H-Pyrrole-3-methanamine, 5-(2-fluorophenyl)-N-methyl-1-(3-pyridinylsulfonyl)-, (2E)-2-butenedioate (1:1)", "5-(2-Fluorophenyl)-N-methyl-1-(3-pyridinylsulfonyl)-1H-pyrrole-3-methanamine (2E)-2-butenedioate (1:1)", "TAK 438 monofumarate", "TAK 438", "Vocinti", "Takecab", "Vonoprazan fumarate"], "SMILES": "C(=CC(O)=O)C(O)=O.S(=O)(=O)(N1C(=CC(CNC)=C1)C2=C(F)C=CC=C2)C=3C=CC=NC3", "physical_data": {"Molecular Weight": "", "Molecular Formula": "C17H16FN3O2S.C4H4O4", "Melting Point": "201-203 \u00b0C"}}