{"cas_no": "881677-11-8", "cn_name": "5-(2-\u6c1f\u82ef\u57fa)-1-[(\u5421\u5576-3-\u57fa)\u78fa\u9170\u57fa]-1H-\u5421\u54af-3-\u7532\u919b", "en_name": ["5-(2-Fluorophenyl)-1-(3-pyridinylsulfonyl)-1H-pyrrole-3-carboxaldehyde", "1H-Pyrrole-3-carboxaldehyde, 5-(2-fluorophenyl)-1-(3-pyridinylsulfonyl)-", "5-(2-Fluorophenyl)-1-(3-pyridinylsulfonyl)-1H-pyrrole-3-carboxaldehyde", "5-(2-Fluorophenyl)-1-[(pyridin-3-yl)sulfonyl]-1H-pyrrole-3-carboxaldehyde"], "SMILES": "S(=O)(=O)(N1C(=CC(C=O)=C1)C2=C(F)C=CC=C2)C=3C=CC=NC3", "physical_data": {"Molecular Weight": "330.33", "Molecular Formula": "C16H11FN2O3S", "Melting Point": "105-107 \u00b0C"}}