{"cas_no": "88182-33-6", "cn_name": "\u6b27\u5f53\u5f52\u5185\u916fA", "en_name": ["Levistolide A", "1H-5,10c-Ethanonaphtho[1,2-c:7,8-c\u2032]difuran-3,10-dione, 1,8-dibutylidene-5,5a,6,7,8,10b-hexahydro-, (1Z,5S,5aS,8Z,10bS,10cS)-", "1H-5,10c-Ethanonaphtho[1,2-c:7,8-c\u2032]difuran-3,10-dione, 1,8-dibutylidene-5,5a,6,7,8,10b-hexahydro-, [5S-(1Z,5\u03b1,5a\u03b1,8Z,10b\u03b1,10c\u03b1)]-", "(1Z,5S,5aS,8Z,10bS,10cS)-1,8-Dibutylidene-5,5a,6,7,8,10b-hexahydro-1H-5,10c-ethanonaphtho[1,2-c:7,8-c\u2032]difuran-3,10-dione", "Diligustilide", "(Z,Z)-Diligustilide", "Levistolide A", "Z,Z\u2032-6,6\u2032,7,3\u2032a-Diligustilide", "Levistolid A"], "SMILES": "C(CCC)=C1C23C4C5=C(C(=CCCC)OC5=O)CCC4C(C=C2C(=O)O1)CC3", "physical_data": {"Molecular Weight": "380.48", "Molecular Formula": "C24H28O4", "Melting Point": "112-114 \u00b0C"}}