{"cas_no": "88196-70-7", "cn_name": "(R)-1-(3-\u7532\u6c27\u57fa\u82ef\u57fa)\u4e59\u80fa", "en_name": ["(R)-1-(3-Methoxyphenyl)ethylamine", "Benzenemethanamine, 3-methoxy-\u03b1-methyl-, (\u03b1R)-", "Benzenemethanamine, 3-methoxy-\u03b1-methyl-, (R)-", "(\u03b1R)-3-Methoxy-\u03b1-methylbenzenemethanamine", "(R)-m-Methoxy-\u03b1-phenethylamine", "(R)-1-(3-Methoxyphenyl)ethylamine", "(R)-m-Methoxy-\u03b1-phenylethylamine", "(R)-1-(3-Methoxyphenyl)ethylamine", "(R)-3-Methoxy-\u03b1-methylbenzylamine", "(R)-1-(3-Methoxyphenyl)ethanamine", "(R)-(+)-1-(3-Methoxyphenyl)ethylamine", "(1R)-1-(3-Methoxyphenyl)ethan-1-amine", "(1R)-1-(3-Methoxyphenyl)ethanamine"], "SMILES": "C(C)(N)C1=CC(OC)=CC=C1", "physical_data": {"Molecular Weight": "151.21", "Molecular Formula": "C9H13NO", "Boiling Point": "118-120 \u00b0C @ Press: 2.5 mmHg"}}