{"cas_no": "882-36-0", "cn_name": "\u4e59\u9170\u4e59\u9170\u82c4\u80fa", "en_name": ["3-Oxo-N-(phenylmethyl)butanamide", "Butanamide, 3-oxo-N-(phenylmethyl)-", "Acetoacetamide, N-benzyl-", "3-Oxo-N-(phenylmethyl)butanamide", "Acetoacetobenzylamide", "N-Benzylacetoacetamide", "NSC 60240"], "SMILES": "C(NC(CC(C)=O)=O)C1=CC=CC=C1", "physical_data": {"Molecular Weight": "191.23", "Molecular Formula": "C11H13NO2", "Melting Point": "101-102 \u00b0C"}}