{"cas_no": "882-09-7", "cn_name": "\u5bf9\u6c2f\u82ef\u6c27\u5f02\u4e01\u9178", "en_name": ["Clofibric acid", "Propanoic acid, 2-(4-chlorophenoxy)-2-methyl-", "Propionic acid, 2-(p-chlorophenoxy)-2-methyl-", "2-(4-Chlorophenoxy)-2-methylpropanoic acid", "\u03b1-(p-Chlorophenoxy)isobutyric acid", "PCIB", "\u03b1-(4-Chlorophenoxy)-\u03b1-methylpropionic acid", "\u03b1-(4-Chlorophenoxy)isobutyric acid", "Regadrin", "Clofibric acid", "Clofibrate free acid", "2-(p-Chlorophenoxy)isobutyric acid", "Chlorophibrinic acid", "PCPIB", "2-(p-Chlorophenoxy)-2-methylpropionic acid", "2-(4-Chlorophenoxy)-2-methylpropionic acid", "4-Chlorophenoxyisobutyric acid", "(p-Chlorophenoxy)isobutyric acid", "Clofibrin", "Chlorofibrinic acid", "Chlorfibrinic acid", "Clofibrinic acid", "CPIBA", "CPIB", "Clofibrilic acid", "Regulipid", "Arteriohom", "NSC 1149", "2-[(4-Chlorophenyl)oxy]-2-methylpropionic acid", "2-(p-Chlorophenoxy)-2-methylpropanoic acid", "2-(4-Chlorophenoxy)-2-methylpropanic acid", "MeSH ID: D002995"], "SMILES": "O(C(C(O)=O)(C)C)C1=CC=C(Cl)C=C1", "physical_data": {"Molecular Weight": "214.65", "Molecular Formula": "C10H11ClO3", "Melting Point": "118-119 \u00b0C"}}