{"cas_no": "882-59-7", "cn_name": "1,1-\u4e8c\u82ef\u57fa\u73af\u6c27\u4e59\u70f7", "en_name": ["2,2-Diphenyloxirane", "Oxirane, 2,2-diphenyl-", "Ethane, 1,2-epoxy-1,1-diphenyl-", "2,2-Diphenyloxirane", "\u03b1-Phenylstyrene oxide", "1,1-Diphenylethylene oxide", "1,1-Diphenylethene oxide"], "SMILES": "C1(CO1)(C2=CC=CC=C2)C3=CC=CC=C3", "physical_data": {"Molecular Weight": "196.24", "Molecular Formula": "C14H12O", "Boiling Point": "140-142 \u00b0C @ Press: 5 Torr", "Melting Point": "55-56 \u00b0C"}}