{"cas_no": "882-06-4", "cn_name": "\u5bf9\u785d\u57fa\u8089\u6842\u9178", "en_name": ["trans-4-Nitrocinnamic acid", "2-Propenoic acid, 3-(4-nitrophenyl)-, (2E)-", "Cinnamic acid, p-nitro-, (E)-", "2-Propenoic acid, 3-(4-nitrophenyl)-, (E)-", "(2E)-3-(4-Nitrophenyl)-2-propenoic acid", "trans-4-Nitrocinnamic acid", "trans-p-Nitrocinnamic acid", "(E)-p-Nitrocinnamic acid", "(E)-4-Nitrocinnamic acid", "(E)-3-(4-Nitrophenyl)acrylic acid", "(E)-3-(4-Nitrophenyl)-2-propenoic acid"], "SMILES": "N(=O)(=O)C1=CC=C(C=CC(O)=O)C=C1", "physical_data": {"Molecular Weight": "193.16", "Molecular Formula": "C9H7NO4", "Melting Point": "285-286 \u00b0C"}}