{"cas_no": "882-33-7", "cn_name": "\u4e8c\u82ef\u4e8c\u786b\u919a", "en_name": ["Diphenyl disulfide", "Disulfide, diphenyl", "Phenyl disulfide", "Diphenyl disulfide", "Biphenyl disulfide", "Diphenyl disulphide", "NSC 2689", "DPDS", "1,2-Diphenyldisulfane", "(Phenyldisulfanyl)benzene", "1,1\u2032-Dithiodibenzene"], "SMILES": "S(SC1=CC=CC=C1)C2=CC=CC=C2", "physical_data": {"Molecular Weight": "218.34", "Molecular Formula": "C12H10S2", "Boiling Point": "310 \u00b0C", "Melting Point": "62 \u00b0C", "Density": "1.110 g/cm\u00b3 @ Temp: 118.0 \u00b0C"}}