{"cas_no": "88277-83-2", "cn_name": "C-[1,4]DIOXAN-2-YL-METHYLAMINE", "en_name": ["1,4-Dioxane-2-methanamine", "1,4-Dioxane-2-methanamine", "2-Aminomethyl-1,4-dioxane", "(1,4-Dioxan-2-yl)methanamine", "1-(1,4-Dioxan-2-yl)methanamine", "1,4-Dioxan-2-ylmethylamine"], "SMILES": "C(N)C1COCCO1", "physical_data": {"Molecular Weight": "117.15", "Molecular Formula": "C5H11NO2", "Boiling Point": "84 \u00b0C @ Press: 18 Torr", "Melting Point": "78-80 \u00b0C", "Density": "1.0798 g/cm\u00b3 @ Temp: 20 \u00b0C"}}