{"cas_no": "88283-41-4", "cn_name": "\u5576\u6591\u809f", "en_name": ["Pyrifenox", "Ethanone, 1-(2,4-dichlorophenyl)-2-(3-pyridinyl)-, O-methyloxime", "1-(2,4-Dichlorophenyl)-2-(3-pyridinyl)ethanone O-methyloxime", "Ro 15-1297", "Pyrifenox", "Dorado", "Dorado (pesticide)", "ACR 3453A", "FD 4060", "Korado", "Corado"], "SMILES": "C(CC=1C=CC=NC1)(=NOC)C2=C(Cl)C=C(Cl)C=C2", "physical_data": {"Molecular Weight": "295.16", "Molecular Formula": "C14H12Cl2N2O", "Boiling Point": "212.1 \u00b0C", "Melting Point": "&lt;25 \u00b0C"}}