{"cas_no": "883-40-9", "cn_name": "\u4e8c\u82ef\u57fa\u91cd\u6c2e\u7532\u70f7", "en_name": ["1,1\u2032-(Diazomethylene)bis[benzene]", "Benzene, 1,1\u2032-(diazomethylene)bis-", "Methane, diazodiphenyl-", "1,1\u2032-(Diazomethylene)bis[benzene]", "Diphenyldiazomethane", "Diazodiphenylmethane", "1,1-Diphenyldiazomethane", "Diphenylazomethane", "[Diazo(phenyl)methyl]benzene"], "SMILES": "C(=[N+]=[N-])(C1=CC=CC=C1)C2=CC=CC=C2", "physical_data": {"Molecular Weight": "", "Molecular Formula": "C13H10N2", "Boiling Point": "40 \u00b0C @ Press: 8 Torr", "Melting Point": "29-30 \u00b0C"}}