{"cas_no": "883-99-8", "cn_name": "3-\u7f9f\u57fa-2-\u8418\u7532\u9178\u7532\u916f", "en_name": ["2-Naphthalenecarboxylic acid, 3-hydroxy-, methyl ester", "2-Naphthalenecarboxylic acid, 3-hydroxy-, methyl ester", "2-Naphthoic acid, 3-hydroxy-, methyl ester", "Methyl 3-hydroxy-2-naphthoate", "2-Hydroxy-3-naphthoic acid methyl ester", "Methyl 3-hydroxy-2-naphthalenecarboxylate", "Methyl 2-hydroxy-3-naphthoate", "2-Hydroxynaphthalene-3-carboxylic acid methyl ester", "3-(Methoxycarbonyl)-2-naphthol", "3-Carbomethoxy-2-naphthol", "Methyl 2-hydroxynaphthalene-3-carboxylate", "NSC 25175", "Methyl 2-hydroxy-3-naphthoic acid", "3-Hydroxy-2-naphthoic acid methyl ester", "3-Hydroxy-2-naphthalenecarboxylic acid methyl ester"], "SMILES": "C(OC)(=O)C1=CC2=C(C=C1O)C=CC=C2", "physical_data": {"Molecular Weight": "202.21", "Molecular Formula": "C12H10O3", "Boiling Point": "206 \u00b0C", "Melting Point": "75.5 \u00b0C"}}