{"cas_no": "883-44-3", "cn_name": "N-(3-\u7f9f\u4e19\u57fa)\u915e\u4e9a\u80fa", "en_name": ["2-(3-Hydroxypropyl)-1H-isoindole-1,3(2H)-dione", "1H-Isoindole-1,3(2H)-dione, 2-(3-hydroxypropyl)-", "Phthalimide, N-(3-hydroxypropyl)-", "2-(3-Hydroxypropyl)-1H-isoindole-1,3(2H)-dione", "N-(3-Hydroxypropyl)phthalimide", "2-(3-Hydroxypropyl)isoindole-1,3-dione", "3-(Phthalimido)propanol", "NSC 41174", "2-(3-Hydroxypropyl)isoindoline-1,3-dione", "3-Phthalimido-1-propanol", "3-(1,3-Dioxoisoindolin-2-yl)propanol", "2-(3-Hydroxypropyl)-2,3-dihydro-1H-isoindole-1,3-dione"], "SMILES": "O=C1C=2C(C(=O)N1CCCO)=CC=CC2", "physical_data": {"Molecular Weight": "205.21", "Molecular Formula": "C11H11NO3", "Melting Point": "74 \u00b0C"}}