{"cas_no": "883-21-6", "cn_name": "1-\u7532\u6c27\u57fa-2-\u8418\u7532\u9178", "en_name": ["1-Methoxy-2-naphthalenecarboxylic acid", "2-Naphthalenecarboxylic acid, 1-methoxy-", "2-Naphthoic acid, 1-methoxy-", "1-Methoxy-2-naphthalenecarboxylic acid", "1-Methoxy-2-naphthoic acid", "1-Methoxynaphthalene-2-carboxylic acid"], "SMILES": "O(C)C=1C2=C(C=CC1C(O)=O)C=CC=C2", "physical_data": {"Molecular Weight": "202.21", "Molecular Formula": "C12H10O3", "Melting Point": "126-128 \u00b0C"}}