{"cas_no": "883-94-3", "cn_name": "2-\u6c2f-7-\u4e09\u6c1f\u7532\u57fa\u55b9\u5641\u5549", "en_name": ["2-Chloro-7-(trifluoromethyl)quinoxaline", "Quinoxaline, 2-chloro-7-(trifluoromethyl)-", "2-Chloro-7-(trifluoromethyl)quinoxaline", "2-Chloro-7-trifluoromethylquinoxaline"], "SMILES": "C(F)(F)(F)C1=CC2=C(C=C1)N=CC(Cl)=N2", "physical_data": {"Molecular Weight": "232.59", "Molecular Formula": "C9H4ClF3N2", "Melting Point": "117-118 \u00b0C"}}