{"cas_no": "883-62-5", "cn_name": "3-\u7532\u6c27\u57fa-2-\u8418\u7532\u9178", "en_name": ["3-Methoxy-2-naphthoic acid", "2-Naphthalenecarboxylic acid, 3-methoxy-", "2-Naphthoic acid, 3-methoxy-", "3-Methoxy-2-naphthalenecarboxylic acid", "3-Methoxy-2-naphthoic acid", "2-Methoxy-3-naphthoic acid", "NSC 36216"], "SMILES": "C(O)(=O)C=1C(OC)=CC2=C(C1)C=CC=C2", "physical_data": {"Molecular Weight": "202.21", "Molecular Formula": "C12H10O3", "Melting Point": "133-134 \u00b0C"}}