{"cas_no": "883-93-2", "cn_name": "2-\u82ef\u57fa\u82ef\u5e76\u567b\u5511", "en_name": ["2-Phenylbenzothiazole", "Benzothiazole, 2-phenyl-", "2-Phenylbenzothiazole", "NSC 1854", "NSC 2034", "2-Phenylbenzo[d]thiazole", "2-Phenyl-1,3-benzothiazole"], "SMILES": "C1(=NC=2C(S1)=CC=CC2)C3=CC=CC=C3", "physical_data": {"Molecular Weight": "211.28", "Molecular Formula": "C13H9NS", "Boiling Point": "371 \u00b0C", "Melting Point": "115 \u00b0C"}}