{"cas_no": "88312-64-5", "cn_name": "2-\u6c28\u57fa-3-\u7fa7\u9178\u7532\u916f-5-\u785d\u57fa\u5421\u5576", "en_name": ["Methyl 2-amino-5-nitro-3-pyridinecarboxylate", "3-Pyridinecarboxylic acid, 2-amino-5-nitro-, methyl ester", "Methyl 2-amino-5-nitro-3-pyridinecarboxylate", "2-Amino-3-(methoxycarbonyl)-5-nitropyridine"], "SMILES": "C(OC)(=O)C=1C=C(N(=O)=O)C=NC1N", "physical_data": {"Molecular Weight": "197.15", "Molecular Formula": "C7H7N3O4", "Melting Point": "199-200 \u00b0C"}}