{"cas_no": "88374-55-4", "cn_name": "4-\u6b63\u8f9b\u6c27\u57fa\u82ef\u8148", "en_name": ["4-(Octyloxy)benzonitrile", "Benzonitrile, 4-(octyloxy)-", "4-(Octyloxy)benzonitrile", "4-Octyloxybenzonitrile", "4-Octoxybenzonitrile"], "SMILES": "O(CCCCCCCC)C1=CC=C(C#N)C=C1", "physical_data": {"Molecular Weight": "231.33", "Molecular Formula": "C15H21NO", "Boiling Point": "171-173 \u00b0C @ Press: 2 Torr", "Melting Point": "26.7-27.0 \u00b0C"}}