{"cas_no": "88398-53-2", "cn_name": "1,3-\u4e8c\u7532\u57fa-1H-\u5421\u5511-4-\u78fa\u80fa", "en_name": ["1,3-Dimethyl-1H-pyrazole-4-sulfonamide", "1H-Pyrazole-4-sulfonamide, 1,3-dimethyl-", "1,3-Dimethyl-1H-pyrazole-4-sulfonamide", "1,3-Dimethylpyrazole-4-sulfonamide"], "SMILES": "S(N)(=O)(=O)C=1C(C)=NN(C)C1", "physical_data": {"Molecular Weight": "175.21", "Molecular Formula": "C5H9N3O2S", "Melting Point": "97-105 \u00b0C"}}