{"cas_no": "884-35-5", "cn_name": "\u4e01\u9999\u9178\u7532\u916f", "en_name": ["Methyl syringate", "Benzoic acid, 4-hydroxy-3,5-dimethoxy-, methyl ester", "Syringic acid, methyl ester", "Methyl 4-hydroxy-3,5-dimethoxybenzoate", "Methyl syringate", "Methyl 3,5-dimethoxy-4-hydroxybenzoate", "4-Hydroxy-3,5-dimethoxybenzoic acid methyl ester", "NSC 16946", "NSC 611398", "DeniLite II Assist", "Novoprime F 258", "3,5-Dimethoxy-4-hydroxybenzoic acid methyl ester"], "SMILES": "C(OC)(=O)C1=CC(OC)=C(O)C(OC)=C1", "physical_data": {"Molecular Weight": "212.20", "Molecular Formula": "C10H12O5", "Melting Point": "107-108 \u00b0C"}}