{"cas_no": "884-33-3", "cn_name": "DL-\u82c4\u57fa\u4e01\u4e8c\u9178", "en_name": ["Benzylsuccinic acid", "Butanedioic acid, 2-(phenylmethyl)-", "Succinic acid, benzyl-", "Butanedioic acid, (phenylmethyl)-", "2-(Phenylmethyl)butanedioic acid", "Benzylsuccinic acid", "2-Benzylsuccinic acid", "DL-Benzylsuccinic acid", "NSC 20708", "\u03b1-Benzylsuccinic acid", "2-Benzylbutanedioic acid"], "SMILES": "C(CC1=CC=CC=C1)(CC(O)=O)C(O)=O", "physical_data": {"Molecular Weight": "208.21", "Molecular Formula": "C11H12O4", "Melting Point": "162 \u00b0C"}}